20
gdb 115414	2.64875	1.1268	0.88412	4.2235	79.4	-0.2785	0.0173	0.2958	1366.937	0.171456	-403.178251	-403.168992	-403.168048	-403.213648	33.413	
C	-0.0770463069	 1.5568753048	 0.0920105028	-0.385312
C	-0.0844272385	 0.040750844	-0.1221568197	-0.194742
C	-1.450750966	-0.591193192	 0.0926572293	 0.139715
C	-1.5284795165	-2.1108846262	-0.0967940118	-0.226901
C	-2.7316052398	-2.5173176817	 0.7792632946	-0.269839
C	-2.8874165208	-1.3046965158	 1.7530329179	-0.020058
O	-1.8355891467	-0.4035866667	 1.4644021655	-0.253223
C	-4.2022428185	-0.645681443	 1.5973400713	 0.268838
N	-5.2310295046	-0.1340860549	 1.4723510425	-0.326039
H	 0.9249461735	 1.9687985507	-0.0593188636	 0.113181
H	-0.7539531744	 2.0586929256	-0.6079822472	 0.117592
H	-0.4005188775	 1.8054823783	 1.1059490557	 0.138869
H	 0.2409708356	-0.1989847634	-1.1419945661	 0.101166
H	 0.6266413467	-0.4413877558	 0.5599434338	 0.103911
H	-2.1936304977	-0.096910413	-0.5561762046	 0.081029
H	-1.6566767496	-2.3981380471	-1.1428634477	 0.113156
H	-0.6063658643	-2.5713977017	 0.2718601478	 0.110636
H	-3.6377543303	-2.6531005904	 0.1862306275	 0.134748
H	-2.5554889185	-3.4405887354	 1.3333915047	 0.123525
H	-2.7873566951	-1.6005428865	 2.8018625175	 0.129747
26.7604	84.6078	112.1614	175.2634	213.8783	237.2983	265.088	395.4792	435.8107	505.4387	577.7434	600.0357	736.9759	766.3024	807.02	861.3176	883.8991	946.7096	965.8556	970.4931	1017.994	1045.0215	1071.0586	1110.2321	1129.3495	1152.1103	1205.0588	1222.831	1288.2925	1302.5074	1307.2011	1316.7242	1351.3893	1361.6053	1381.6382	1411.0371	1418.0332	1473.9988	1487.2346	1497.9959	1505.7143	1508.1523	2352.2877	2961.8811	3027.8395	3040.0475	3055.9596	3065.3401	3065.916	3083.2614	3105.7896	3109.9774	3125.5541	3133.2642
CCC1CCC(O1)C#N	CC[C@H]1CC[C@@H](O1)C#N	
InChI=1S/C7H11NO/c1-2-6-3-4-7(5-8)9-6/h6-7H,2-4H2,1H3	InChI=1S/C7H11NO/c1-2-6-3-4-7(5-8)9-6/h6-7H,2-4H2,1H3/t6-,7+/m0/s1
