19
gdb 90445	2.90402	1.41943	1.17757	2.8123	76.08	-0.2243	0.0161	0.2404	1108.3039	0.160605	-419.188655	-419.180329	-419.179385	-419.221523	31.749	
C	 0.0126317694	 1.6345203969	-0.0623335915	-0.40101
C	 0.0272648515	 0.1062434219	-0.0308774283	 0.00644
C	 1.0294644864	-0.5210755615	-1.0755350275	-0.182293
N	 2.2857900237	-0.826310858	-0.3337272335	-0.348829
C	 1.9065500337	-0.8058343425	 0.8782880261	 0.296328
C	 2.4310556595	-0.6038782649	 2.2904665516	 0.040331
O	 3.6407236842	 0.0678234961	 2.4567724276	-0.420058
C	 1.0607799665	 0.1664950002	 2.4835010496	-0.224951
N	 0.6010571458	-0.4645098621	 1.2089516534	-0.088567
H	 1.0242413752	 2.0448797783	 0.0268379953	 0.121517
H	-0.4043840632	 1.9786603097	-1.0138400155	 0.125337
H	-0.6019601855	 2.0504094636	 0.7420923113	 0.122983
H	-0.9871738798	-0.2728652059	-0.1844710865	 0.086426
H	 0.6212234992	-1.4465704029	-1.4989309538	 0.114926
H	 1.2380245814	 0.1594117244	-1.9069779369	 0.107757
H	 2.4663386693	-1.5169874474	 2.8896567045	 0.121908
H	 3.8068628743	 0.5809091578	 1.6577240696	 0.29422
H	 0.4486317662	-0.0817857255	 3.3532646409	 0.11491
H	 1.2161861524	 1.2487885518	 2.4220305037	 0.112624
85.1439	126.0703	217.1365	235.0804	267.9273	292.3377	349.4467	408.0093	464.8709	526.4342	651.6574	702.5724	751.7964	777.7038	837.4131	893.6679	917.9155	934.4454	994.9194	1033.8265	1058.7089	1070.1446	1117.7274	1129.1007	1141.2998	1176.7566	1208.3159	1214.5731	1233.1003	1281.0862	1304.2481	1321.1441	1355.2197	1376.5823	1402.4547	1431.7839	1487.7646	1495.4223	1497.7754	1508.2688	1747.5651	3031.205	3033.9405	3045.9237	3059.9489	3080.3779	3087.1402	3107.0217	3109.3805	3113.7006	3801.2355
CC1CN=C2C(O)CN12	C[C@H]1C[N][C]2[C@@H](O)CN12	
InChI=1S/C6H10N2O/c1-4-2-7-6-5(9)3-8(4)6/h4-5,9H,2-3H2,1H3	InChI=1S/C6H10N2O/c1-4-2-7-6-5(9)3-8(4)6/h4-5,9H,2-3H2,1H3/t4-,5-/m0/s1
