14
gdb 26839	3.62034	1.13214	0.86468	5.0246	75.49	-0.1999	-0.0421	0.1578	1236.0337	0.100018	-473.856238	-473.847729	-473.846785	-473.889464	30.71	
N	 0.1286400858	 1.3478734095	-0.1305760735	-0.597612
C	-0.0169320076	-0.0118987999	-0.0630506932	 0.337749
C	-1.147973626	-0.8046232019	-0.0567374632	 0.202357
O	-2.4213048295	-0.2992977365	 0.0117195585	-0.452694
C	-0.6872830282	-2.1405647072	-0.0380348174	-0.355328
C	 0.6876093974	-2.089236623	-0.0387537417	 0.257949
O	 1.0894979275	-0.7643684043	-0.0463718576	-0.186178
C	 1.6824457136	-3.1277769764	-0.0196810288	 0.058241
O	 2.8874108473	-2.9700294794	-0.0022263951	-0.307205
H	 0.974012505	 1.7077778233	 0.289848275	 0.271818
H	-0.7023616437	 1.8544862136	 0.1384343516	 0.27345
H	-2.9420946149	-0.6445039896	-0.7209905445	 0.304283
H	-1.2854053601	-3.0394381245	-0.0192809165	 0.129574
H	 1.2221946535	-4.1419444939	-0.0210586736	 0.063597
107.1915	123.6993	161.6446	225.2265	245.2736	289.2721	313.8429	386.0645	424.8516	533.1345	586.5823	629.9604	656.5506	711.8046	736.0217	836.3313	853.3404	961.3759	1008.8553	1087.2951	1149.1358	1171.778	1275.8084	1327.3432	1382.4775	1402.8063	1495.756	1568.542	1631.6939	1682.4451	1771.4766	2870.7322	3250.0738	3565.0287	3673.4655	3805.7452
NC1=C(O)C=C(O1)C=O	Nc1c(O)cc(o1)C=O	
InChI=1S/C5H5NO3/c6-5-4(8)1-3(2-7)9-5/h1-2,8H,6H2	InChI=1S/C5H5NO3/c6-5-4(8)1-3(2-7)9-5/h1-2,8H,6H2
