20
gdb 47929	2.05875	1.68421	1.16864	1.7147	74.99	-0.2152	-0.0213	0.1939	1116.9934	0.172731	-440.279699	-440.271253	-440.270309	-440.312753	32.447	
O	 0.0575899219	-0.0552279928	 0.2817069904	-0.320923
C	 0.0100134846	 1.1450833417	 0.1236062659	 0.365936
C	-1.321546334	 1.8727975926	-0.0227120182	-0.310622
C	-1.3538980094	 3.0719564633	-0.9788544325	-0.076399
O	-1.2726508786	 2.7613487915	-2.3534056518	-0.251034
C	-0.161234879	 2.0045878829	-2.8092739736	-0.074928
C	 1.2450913549	 2.5184426767	-2.4086971862	-0.191995
N	 1.931379769	 1.8714711317	-1.290646392	-0.276612
C	 1.3150434432	 1.9549521972	 0.0356025895	-0.244798
H	-2.0900854049	 1.1370805821	-0.2772756666	 0.132083
H	-1.563937325	 2.2602372677	 0.9786503756	 0.128705
H	-2.3141188763	 3.5848020204	-0.867305773	 0.116314
H	-0.5767516922	 3.7964159441	-0.6928323084	 0.090739
H	-0.2560984438	 0.9486290095	-2.5091779965	 0.107566
H	-0.2577053665	 2.0353928601	-3.8993316254	 0.110772
H	 1.90088485	 2.3954092078	-3.2779095276	 0.112619
H	 1.192840479	 3.597638645	-2.2195147874	 0.12029
H	 2.0911591548	 0.8923449026	-1.5075060325	 0.228415
H	 1.170680774	 3.0092018477	 0.2909453198	 0.107984
H	 2.0108401984	 1.5209504982	 0.7599617604	 0.125886
81.0667	131.0633	194.2698	243.5968	251.4844	336.7762	371.3628	418.7972	482.7155	494.0245	537.2939	609.0652	735.3093	764.1398	792.2248	848.1262	904.843	944.316	985.2628	995.1604	1024.5442	1064.3782	1101.6764	1137.292	1161.3539	1176.812	1223.9853	1253.3415	1284.8475	1317.1681	1338.356	1352.568	1359.9015	1376.1568	1407.8256	1423.5705	1440.1734	1466.6835	1469.1096	1494.7747	1508.6646	1512.9505	1795.0927	2981.3625	2992.8857	3010.2376	3032.8162	3051.4194	3068.2116	3075.8788	3079.0039	3095.981	3103.0045	3517.0937
O=C1CCOCCNC1	O=C1CCOCCNC1	
InChI=1S/C6H11NO2/c8-6-1-3-9-4-2-7-5-6/h7H,1-5H2	InChI=1S/C6H11NO2/c8-6-1-3-9-4-2-7-5-6/h7H,1-5H2
