17
gdb 44395	3.72877	1.54657	1.41623	4.3421	70.51	-0.2683	0.0089	0.2771	940.0459	0.13941	-421.839207	-421.832982	-421.832038	-421.869757	25.831	
O	-0.138626191	 0.0753637192	 0.1512616959	-0.32793
C	-0.0268502983	 1.2506726027	 0.0165192843	 0.438108
O	-1.0297727976	 2.1594040219	-0.2579852455	-0.266715
C	-0.0764461984	 3.2746776888	-0.3136649785	 0.126497
C	-0.0448356311	 4.2048964362	 0.9041976948	-0.052495
C	 1.5017862509	 4.4335323256	 1.0096096708	-0.225379
C	 1.4956710905	 2.9159979771	 1.3966645465	-0.036799
C	 0.1380315576	 3.2182838481	 2.0918898604	-0.245214
C	 1.0810869149	 2.3083976184	 0.0360878042	-0.217478
H	-0.1175380488	 3.7609710992	-1.2877499575	 0.098976
H	-0.7584152748	 5.0269061744	 0.9347492799	 0.075721
H	 2.045070725	 4.7329970934	 0.1079559839	 0.098982
H	 1.7715249326	 5.0839283099	 1.8440396166	 0.110439
H	 2.3223813674	 2.4430180849	 1.9235293212	 0.081776
H	 0.2785258357	 3.7491495303	 3.0348918291	 0.105887
H	-0.5872938406	 2.4134631326	 2.2211370084	 0.126829
H	 1.9013110858	 2.1525787274	-0.6641018846	 0.108793
137.4162	232.3929	330.0029	458.5715	491.9777	546.5774	638.8042	705.0346	790.5397	819.9999	831.9241	846.5647	871.9889	886.1637	919.8204	949.9069	972.0593	999.6743	1020.4607	1032.7896	1063.6795	1068.4084	1099.9801	1110.5976	1116.9304	1195.9612	1221.5978	1230.8277	1240.1675	1252.9627	1277.903	1298.1832	1331.438	1343.4474	1491.0904	1525.898	1933.9994	3053.8383	3080.4921	3118.1489	3121.1599	3125.9527	3132.2334	3136.6921	3139.5817
O=C1OC2C3CC(C3)C12	O=C1O[C@H]2[C@@H]3C[C@@H](C3)[C@@H]12	
InChI=1S/C7H8O2/c8-7-5-3-1-4(2-3)6(5)9-7/h3-6H,1-2H2	InChI=1S/C7H8O2/c8-7-5-3-1-4(2-3)6(5)9-7/h3-6H,1-2H2/t3-,4+,5-,6+/m1/s1
