20
gdb 16573	2.83066	2.49745	2.04602	1.5324	72.75	-0.2377	0.0781	0.3158	796.8186	0.181827	-349.032105	-349.025736	-349.024792	-349.062171	26.715	
C	-0.0334746273	 1.5441127739	-0.115363729	-0.077048
O	 1.3256878976	 1.9916401135	-0.0087567597	-0.280648
C	 2.1873293061	 0.8430833506	 0.0620342611	 0.120956
C	 1.3787099128	-0.2667089736	-0.6187031422	-0.222399
C	 0.0106794839	 0.0133814779	 0.0291524142	-0.021596
C	 0.0550084876	-0.4286667119	 1.5068586177	-0.2076
C	 1.1350064615	 0.3356913421	 2.3013006979	-0.189619
C	 2.4617953899	 0.474835369	 1.5297341677	-0.20381
H	-0.6371336349	 2.0299224724	 0.6612903245	 0.095793
H	-0.4364563828	 1.8410989427	-1.093888912	 0.0911
H	 3.1133224871	 1.0977281145	-0.4621980201	 0.068588
H	 1.3479177467	-0.1177795968	-1.7028366415	 0.095975
H	 1.7603235257	-1.2703315126	-0.4140176629	 0.093639
H	-0.8214529284	-0.4661432409	-0.4935646592	 0.064015
H	-0.9226753152	-0.2766632635	 1.9792915496	 0.092022
H	 0.2512820106	-1.5081152996	 1.5407379358	 0.091965
H	 0.7653941639	 1.3433795406	 2.5199181926	 0.112876
H	 1.3032526941	-0.1460215307	 3.2701788559	 0.089422
H	 3.0352181546	-0.4611428307	 1.5545318703	 0.088513
H	 3.0848383065	 1.2431455628	 1.9995505392	 0.097856
188.9887	243.1976	338.3001	364.0705	425.8692	473.3611	557.0374	725.4113	751.4582	800.71	818.5529	864.136	890.7699	895.9424	917.8109	943.5128	963.2293	1007.7706	1025.8198	1056.7835	1070.4169	1098.0565	1118.8802	1125.5206	1176.5399	1191.8167	1242.7795	1259.4806	1288.0773	1313.9783	1327.6931	1344.2769	1346.4765	1364.2355	1384.905	1389.9214	1398.1234	1478.8237	1487.6544	1494.2958	1504.0609	1528.8026	2998.654	3019.2408	3022.6951	3039.8404	3041.7265	3047.1421	3058.0917	3063.5386	3071.108	3075.1591	3084.1479	3103.7851
C1OC2CC1CCC2	C1O[C@@H]2C[C@H]1CCC2	
InChI=1S/C7H12O/c1-2-6-4-7(3-1)8-5-6/h6-7H,1-5H2	InChI=1S/C7H12O/c1-2-6-4-7(3-1)8-5-6/h6-7H,1-5H2/t6-,7+/m1/s1
