18
gdb 72768	2.7421	1.8129	1.50264	3.5992	75.27	-0.2356	0.0088	0.2445	947.4334	0.148989	-401.907821	-401.900578	-401.899634	-401.939051	29.343	
C	-0.1427654035	 1.5499118172	-0.1624234677	-0.456302
C	-0.0655582942	 0.0223485267	-0.1175103188	 0.198038
C	-1.2096247209	-0.5934929155	 0.7657202639	-0.160871
O	-0.2602147523	-0.7581876275	 1.8960787096	-0.270628
C	 0.7510213221	-0.5736432749	 0.9876818529	 0.363662
N	 1.8630659275	-1.1439822222	 0.7787876607	-0.295876
C	 1.9984286196	-1.0853779302	-0.6752211543	 0.005734
C	 1.0447222425	-2.0205368779	-1.3715667756	-0.305607
C	 0.6682495916	-0.5604413291	-1.3061105204	-0.145099
H	 0.8187338946	 1.9749965824	-0.4637392034	 0.133483
H	-0.8994824751	 1.8737658734	-0.8853826753	 0.122098
H	-0.406058431	 1.9624254136	 0.8158689861	 0.130874
H	-2.030749857	 0.0700199251	 1.0412926824	 0.124759
H	-1.5714900304	-1.57424385	 0.4485166386	 0.129397
H	 2.9789883578	-0.8816594303	-1.0878285552	 0.096685
H	 1.3232394066	-2.3852108985	-2.3550701431	 0.117926
H	 0.5292052313	-2.7489196618	-0.753083882	 0.12213
H	 0.6870966208	 0.0052201495	-2.2300587183	 0.089599
172.2205	218.5669	228.6463	240.5361	343.5803	419.5699	502.3971	521.5951	650.5637	678.6269	719.9478	757.7057	793.3153	843.2125	858.7093	901.8464	921.265	944.4117	963.2038	1010.9518	1042.626	1067.9137	1089.7153	1101.7159	1123.0308	1143.8379	1175.1957	1196.1171	1217.081	1254.1797	1312.375	1336.4213	1372.1858	1413.1794	1474.0666	1490.549	1496.8218	1504.4403	1729.5524	3034.6825	3066.7563	3103.7373	3117.6221	3123.4863	3141.3047	3178.6515	3188.5677	3211.7688
CC12COC1=NC1CC21	C[C@]12CO[C]1[N][C@H]1C[C@@H]21	
InChI=1S/C7H9NO/c1-7-3-9-6(7)8-5-2-4(5)7/h4-5H,2-3H2,1H3	InChI=1S/C7H9NO/c1-7-3-9-6(7)8-5-2-4(5)7/h4-5H,2-3H2,1H3/t4-,5+,7-/m1/s1
