17
gdb 117063	4.28829	0.80503	0.72422	3.0742	67.2	-0.2699	-0.0834	0.1865	1563.5044	0.132555	-496.138198	-496.128141	-496.127197	-496.174666	34.238	
C	 0.4454435782	 0.9063373537	-0.2348110007	-0.389459
C	-0.5779044158	 0.1802628799	 0.6234599152	-0.060875
O	 0.0597814268	-0.5181778279	 1.7225630004	-0.220552
C	 0.5215218527	-1.7365706896	 1.4650446164	 0.381121
O	 0.4632174966	-2.3200361585	 0.4093730995	-0.354309
C	 1.1673877874	-2.3762842021	 2.7058157792	 0.236473
O	 1.2525863873	-1.8085139836	 3.7675480525	-0.294229
C	 1.7007882709	-3.7797681496	 2.5156388498	-0.120167
O	 2.2614527718	-4.2718268832	 3.6956483331	-0.422095
H	 1.1104628156	 0.1953583689	-0.7306774701	 0.146168
H	-0.0709950401	 1.4869133514	-1.0055093444	 0.129047
H	 1.0440044475	 1.5927111812	 0.3702986125	 0.135863
H	-1.2618869053	 0.876949202	 1.1115778144	 0.127364
H	-1.1487473087	-0.5427465789	 0.0362337509	 0.137935
H	 0.8746275577	-4.4151017855	 2.1585795579	 0.136094
H	 2.4325035711	-3.7583250229	 1.6923561412	 0.136069
H	 2.1620856464	-3.5661178954	 4.3526077921	 0.295553
35.6562	63.6846	90.3575	122.7872	149.3798	230.6193	299.6787	315.3213	344.5092	352.1734	425.5476	473.8028	507.7429	704.6078	760.2792	805.043	861.1652	871.0515	1002.3594	1004.7405	1076.6227	1115.4862	1148.4719	1197.2608	1226.7202	1285.6759	1323.8613	1335.8573	1402.5366	1421.8747	1445.2192	1472.1159	1485.637	1488.1973	1506.5019	1799.6258	1813.3001	2990.8344	3005.2736	3048.9242	3076.1352	3119.6934	3124.083	3145.3826	3709.2175
CCOC(=O)C(=O)CO	CCOC(=O)C(=O)CO	
InChI=1S/C5H8O4/c1-2-9-5(8)4(7)3-6/h6H,2-3H2,1H3	InChI=1S/C5H8O4/c1-2-9-5(8)4(7)3-6/h6H,2-3H2,1H3
