15
gdb 74348	3.28024	1.18896	0.95928	0.4876	74.68	-0.2431	-0.0605	0.1826	1192.1004	0.111978	-416.810761	-416.80226	-416.801316	-416.844274	31.707	
N	 0.0279189906	 1.3498667338	-0.1049844477	-0.568884
C	-0.0470977185	 0.0009421351	-0.0278825965	 0.290448
N	-1.1116603391	-0.7108926968	 0.0519604076	-0.272859
C	-0.7395588821	-2.1479110363	 0.0478776297	-0.155586
C	 0.8123451115	-2.2391230727	-0.007770107	-0.368008
C	 1.2388348354	-0.7845143716	-0.0707169723	 0.355131
O	 2.3443606567	-0.3066232785	-0.1281576766	-0.318528
C	-1.3085704829	-2.8373387506	 1.2046479949	 0.349183
C	-1.7576339876	-3.418076233	 2.1556512539	-0.473956
H	 0.9399639321	 1.7586082468	 0.0220547998	 0.272397
H	-0.7822214028	 1.9031325344	 0.1175870976	 0.268628
H	-1.1738252384	-2.5930878064	-0.8568360152	 0.119459
H	 1.2369768293	-2.7161472713	 0.878746713	 0.156756
H	 1.1797347505	-2.7826253743	-0.8824826378	 0.145722
H	-2.1651505248	-3.9269612286	 2.9939343766	 0.200097
44.9762	116.2513	186.397	267.4606	280.1998	320.1498	399.6918	449.5961	482.8728	523.531	592.6799	619.2822	626.5703	647.587	653.453	741.8158	753.0888	836.1995	958.2891	1007.4953	1045.1713	1108.1502	1151.7689	1159.8192	1251.9999	1282.074	1336.8746	1422.5576	1443.9089	1606.072	1723.8615	1834.9827	2240.4923	3015.2895	3074.4992	3120.7822	3503.9077	3597.97	3724.7854
NC1=NC(CC1=O)C#C	NC1=N[C@@H](CC1=O)C#C	
InChI=1S/C6H6N2O/c1-2-4-3-5(9)6(7)8-4/h1,4H,3H2,(H2,7,8)	InChI=1S/C6H6N2O/c1-2-4-3-5(9)6(7)8-4/h1,4H,3H2,(H2,7,8)/t4-/m1/s1
