19
gdb 32819	3.40145	1.07999	0.8488	1.4606	80.28	-0.1776	0.0523	0.2299	1366.2441	0.160266	-419.225835	-419.216553	-419.215609	-419.260183	34.13	
C	-0.0191488325	 1.3800917764	 0.9625394479	-0.222273
O	-0.0451879196	-0.0161700412	 1.1398522807	-0.233673
C	 0.8243420839	-0.6993910787	 0.2387444456	-0.204689
C	 0.7771363184	-2.1680671059	 0.5049890151	 0.231408
C	 0.8122876498	-2.7611524213	 1.7526839521	 0.206696
N	 0.7721482499	-2.217285532	 3.0510316148	-0.618517
N	 0.7960931909	-4.119731491	 1.5706400549	-0.265745
C	 0.7538022399	-4.4146169023	 0.2251488209	-0.093195
C	 0.7316904901	-3.2236356881	-0.455982777	-0.256389
H	-0.3465609418	 1.6664473634	-0.0492652074	 0.106457
H	-0.7055082975	 1.8176321691	 1.6917323073	 0.125599
H	 0.9880936677	 1.7972974998	 1.1243535685	 0.101065
H	 0.5252096683	-0.4930934792	-0.8017209091	 0.094183
H	 1.8450378675	-0.2913182274	 0.3592260661	 0.085911
H	 1.6783300761	-2.2400479076	 3.5106045446	 0.235245
H	 0.4705737371	-1.2507421853	 2.9836714059	 0.253744
H	 0.7038191798	-4.7784065546	 2.3245487297	 0.256221
H	 0.7469000836	-5.4347868683	-0.1214250625	 0.112413
H	 0.7035447484	-3.1078220758	-1.529480668	 0.085537
60.0502	95.6992	134.2348	229.0682	241.3303	264.3281	280.5918	330.2467	374.8614	439.9525	493.6157	631.8442	653.4029	685.7426	707.7897	780.4923	815.9119	871.5488	916.9969	969.5257	1012.4868	1075.5996	1096.3654	1135.9584	1162.7604	1184.8072	1212.965	1230.6845	1256.6718	1281.0466	1333.8336	1405.8752	1431.8334	1477.75	1484.4742	1502.6087	1513.9721	1519.5442	1525.0871	1621.2696	1663.86	2923.907	2967.4619	2980.8325	3012.2527	3112.5267	3236.8975	3273.216	3480.8681	3576.5909	3677.5046
COCC1=C(N)NC=C1	COCc1c(N)[nH]cc1	
InChI=1S/C6H10N2O/c1-9-4-5-2-3-8-6(5)7/h2-3,8H,4,7H2,1H3	InChI=1S/C6H10N2O/c1-9-4-5-2-3-8-6(5)7/h2-3,8H,4,7H2,1H3
