16
gdb 32721	6.45906	0.73099	0.67761	3.0077	77.89	-0.2086	-0.0032	0.2054	1614.2723	0.123904	-437.898765	-437.89024	-437.889296	-437.933169	29.91	
C	-0.0415742339	 1.381760555	 0.0223687742	-0.248925
O	-0.11191285	-0.0400878223	-0.0111268063	-0.186294
C	 0.5490536824	-0.634860633	-1.0151634004	 0.105742
N	 0.6702688358	-1.8930802895	-1.0414659293	-0.308981
C	 1.2643621833	-2.4786534291	-2.1588861571	 0.247905
C	 1.0588260745	-2.2158565599	-3.485951386	-0.080836
O	 1.8013684911	-3.0581393431	-4.2571313767	-0.144948
C	 2.4923410138	-3.864388602	-3.4095091262	 0.01392
C	 2.199242072	-3.5716134648	-2.1183819478	-0.273627
H	 0.9647183367	 1.7231930275	 0.2915512648	 0.133671
H	-0.3277074756	 1.8200184478	-0.9412897469	 0.129038
H	-0.7477117313	 1.7065101861	 0.7870555258	 0.14978
H	 0.9492672072	 0.0453161023	-1.7812956252	 0.087532
H	 0.3968798681	-1.548370115	-4.0113820027	 0.126402
H	 3.1397264084	-4.5875762684	-3.8774555666	 0.134717
H	 2.5910651976	-4.0444450617	-1.2322185137	 0.114904
51.529	83.9004	106.1557	155.4907	209.207	305.9329	397.7542	423.7447	513.8529	615.683	668.7243	720.726	772.7977	779.8018	839.4107	885.9335	988.4081	1003.4911	1047.7825	1068.3755	1096.0896	1163.7293	1177.3173	1206.0782	1253.6236	1267.9214	1314.2235	1386.6343	1413.4578	1483.5139	1492.7815	1501.3834	1540.0279	1613.5229	1748.8122	3008.6146	3022.1303	3083.5117	3148.4382	3261.3579	3279.174	3286.3287
COC=NC1=COC=C1	COC=Nc1cocc1	
InChI=1S/C6H7NO2/c1-8-5-7-6-2-3-9-4-6/h2-5H,1H3	InChI=1S/C6H7NO2/c1-8-5-7-6-2-3-9-4-6/h2-5H,1H3
