17
gdb 54513	3.27828	1.41971	1.13501	3.7224	74.3	-0.2391	-0.0019	0.2372	1076.0774	0.137824	-418.028281	-418.020464	-418.01952	-418.060538	30.568	
N	 0.037236392	 1.2686402478	-0.2733762034	-0.541281
C	 0.0278150706	-0.0386505425	 0.1186078304	 0.323303
O	 1.0161573307	-0.6080989403	 0.5520624176	-0.381906
C	-1.2906803019	-0.7372769917	-0.0033274541	 0.236998
N	-1.4310290755	-2.0095138614	 0.7525584104	-0.365542
C	-1.347649017	-2.0682480635	-0.7054335752	-0.072413
C	-2.6940097467	-2.1551684163	-1.4187760081	-0.271908
C	-3.3765622688	-0.8567114018	-1.0357468432	-0.070378
C	-2.5994486899	-0.0734741951	-0.2834231747	-0.183423
H	 0.9325843862	 1.727419421	-0.3269303012	 0.263223
H	-0.7237146814	 1.6477127972	-0.8111765894	 0.261394
H	-0.4978535818	-2.207933753	 1.1212677508	 0.247796
H	-0.4529511762	-2.4823987695	-1.1576205703	 0.10719
H	-2.5721333715	-2.2484716336	-2.5054104709	 0.110282
H	-3.2685180628	-3.0271603886	-1.0838761959	 0.128888
H	-4.4003820777	-0.6350404235	-1.3158062584	 0.102816
H	-2.8838327684	 0.8842403148	 0.1370849557	 0.10496
81.5779	165.5813	198.8174	301.5648	328.5131	395.0173	417.7395	488.0967	514.0642	565.7296	659.0655	713.8577	748.5868	766.3014	783.7395	878.4484	906.4017	924.928	955.6879	978.893	997.7568	1039.2369	1081.4622	1104.0091	1129.5505	1174.3179	1204.7547	1251.0639	1280.1589	1330.472	1370.582	1393.1955	1427.4317	1462.8063	1613.8544	1663.216	1776.4867	3027.3136	3063.4623	3174.4884	3186.3484	3210.4432	3442.8023	3593.9659	3725.8188
NC(=O)C12NC1CC=C2	NC(=O)[C@]12N[C@H]1CC=C2	
InChI=1S/C6H8N2O/c7-5(9)6-3-1-2-4(6)8-6/h1,3-4,8H,2H2,(H2,7,9)	InChI=1S/C6H8N2O/c7-5(9)6-3-1-2-4(6)8-6/h1,3-4,8H,2H2,(H2,7,9)/t4-,6+/m0/s1
