15
gdb 15575	3.6246	1.84889	1.2841	5.1878	68.47	-0.2167	-0.0386	0.1781	902.4347	0.120038	-399.821603	-399.814226	-399.813281	-399.853482	27.09	
O	 0.0778788494	 1.3685177261	 0.1548834756	-0.442811
C	 0.0217324871	-0.0383244958	 0.0209436517	 0.032496
C	-1.4537263797	-0.4930697234	-0.1386297903	-0.187454
N	-1.4132189704	-1.4378810489	-1.2706095896	-0.284388
C	-0.2236713719	-1.3271323362	-1.9204160601	-0.077987
C	 0.6725821429	-0.5599889651	-1.2498582224	 0.150299
C	 2.00214907	-0.1990911785	-1.6345352097	 0.052322
O	 2.6835926717	 0.6121116087	-1.0161044922	-0.33462
H	 1.0124660427	 1.5932773883	 0.0341066728	 0.298246
H	 0.477652514	-0.5158701785	 0.9027015399	 0.08126
H	-1.8566048767	-0.9780401525	 0.7531389976	 0.122308
H	-2.0651001583	 0.3853557252	-0.3757925691	 0.132445
H	-2.2548430559	-1.6823710063	-1.7669502992	 0.256444
H	-0.0785620622	-1.8434793664	-2.8628429142	 0.138326
H	 2.3974529473	-0.6815989066	-2.5551840507	 0.063116
77.3892	145.0491	185.3049	296.0728	377.3576	389.8639	446.3305	483.3105	531.9846	620.0365	686.651	787.794	853.2494	931.484	963.9603	979.1517	1021.7306	1036.1816	1121.2868	1164.8106	1212.9602	1273.8746	1286.5721	1323.8821	1339.6447	1359.5531	1421.9109	1428.4286	1473.0702	1515.2979	1663.5726	1721.8468	2885.6451	2967.4461	3042.6983	3104.9949	3203.8783	3639.5373	3726.9457
OC1CNC=C1C=O	O[C@H]1CNC=C1C=O	
InChI=1S/C5H7NO2/c7-3-4-1-6-2-5(4)8/h1,3,5-6,8H,2H2	InChI=1S/C5H7NO2/c7-3-4-1-6-2-5(4)8/h1,3,5-6,8H,2H2/t5-/m0/s1
