16
gdb 50980	2.28407	1.19856	0.85265	3.4809	68.86	-0.2531	-0.0543	0.1989	1295.8129	0.121281	-475.061606	-475.052179	-475.051235	-475.097218	32.104	
O	-0.8015128183	 0.8099359539	 0.095017887	-0.241932
C	 0.0224000619	 1.1906060819	-0.6917780504	 0.178297
C	 1.2269649255	 2.0350854505	-0.2934935695	-0.286459
C	 1.5182657307	 3.2121784141	-1.2539035957	-0.082878
N	 0.583237266	 4.3066627439	-1.144676136	-0.274015
C	-0.634242158	 4.2729600388	-1.7408294565	 0.159376
O	-1.0827569518	 3.3025888562	-2.3190660147	-0.324265
C	 2.9162837574	 3.7394505811	-0.9854995586	 0.162538
O	 3.1539443024	 4.8772691824	-0.6710356056	-0.249582
H	-0.0091880022	 0.9074881104	-1.7637034596	 0.096598
H	 1.0909008251	 2.3899298796	 0.7314750459	 0.136223
H	 2.092979395	 1.3553193777	-0.3077999213	 0.127232
H	 1.5044351944	 2.8154144995	-2.2816597122	 0.13109
H	 0.9607798565	 5.1732271473	-0.7855447177	 0.266103
H	-1.1835473366	 5.226994728	-1.638954987	 0.097186
H	 3.7194910821	 2.9795264546	-1.0815262281	 0.104489
42.2326	73.5347	94.898	163.5695	190.2528	254.2876	267.1387	284.4366	361.3355	432.5069	530.3879	595.6382	683.9734	745.7404	803.82	877.264	964.4195	986.0514	1034.6912	1054.5459	1099.5505	1129.3728	1202.192	1234.8833	1254.4137	1324.9606	1361.3834	1410.7865	1423.9067	1424.4985	1446.1131	1515.63	1785.1373	1826.6136	1838.3282	2922.3595	2926.7425	2969.0816	2994.2255	3005.2918	3108.099	3591.8276
O=CCC(NC=O)C=O	O=CC[C@@H](NC=O)C=O	
InChI=1S/C5H7NO3/c7-2-1-5(3-8)6-4-9/h2-5H,1H2,(H,6,9)	InChI=1S/C5H7NO3/c7-2-1-5(3-8)6-4-9/h2-5H,1H2,(H,6,9)/t5-/m1/s1
