19
gdb 78011	2.61015	1.34251	1.07222	4.3282	78.83	-0.2426	-0.0251	0.2175	1192.2329	0.157097	-423.000096	-422.991073	-422.990129	-423.033656	33.575	
C	-0.7306719397	 1.2245620661	-0.2914520901	-0.423428
C	-0.3708238888	-0.2275450561	-0.5229233344	-0.073799
C	 0.5296230316	-0.7995898566	-1.5843384772	-0.217738
C	 1.8153731406	 0.0072085445	-1.7935769955	 0.144344
C	 1.8399388458	 1.3203595392	-2.5480673816	-0.421028
O	 2.0204203834	 0.1237840469	-0.3514356288	-0.32288
C	 0.9692312969	-0.7981414335	-0.1054201027	 0.358807
C	 1.1411336678	-1.9281190301	 0.8151942681	 0.061928
O	 2.1166339022	-2.1367093084	 1.4925882788	-0.265963
H	-1.34194431	 1.6200927237	-1.1090681245	 0.122036
H	-1.3056968865	 1.3225015552	 0.6346263942	 0.123868
H	 0.166289861	 1.837591622	-0.1936293238	 0.147251
H	-1.1809526364	-0.925754811	-0.3150680585	 0.102444
H	 0.2360341891	-1.6496960447	-2.1869096497	 0.110707
H	 2.5944121014	-0.6583832296	-2.1882964609	 0.097828
H	 2.7995986085	 1.8213511699	-2.385432421	 0.136401
H	 1.7388871248	 1.1270958259	-3.6213910338	 0.123358
H	 1.0394610212	 1.994703314	-2.2420501778	 0.12865
H	 0.2514882972	-2.6008072975	 0.8351598592	 0.067213
89.528	158.9458	174.2543	192.2914	216.7071	257.1384	262.3163	314.7341	390.0901	454.2769	569.9173	607.9277	703.548	723.7815	779.0334	865.2647	883.8543	911.1237	957.6086	1010.762	1033.6769	1042.3413	1059.1327	1093.8489	1114.6612	1141.1293	1155.8888	1206.0022	1270.9888	1321.3414	1331.8745	1390.0067	1404.5461	1408.9196	1423.853	1462.9563	1483.0747	1493.6277	1499.485	1508.5467	1812.1721	2854.279	3016.4835	3042.2157	3045.4255	3100.9239	3107.8246	3120.0894	3142.479	3151.2115	3195.414
CC1C2C(C)OC12C=O	C[C@H]1[C@H]2[C@@H](C)O[C@@]12C=O	
InChI=1S/C7H10O2/c1-4-6-5(2)9-7(4,6)3-8/h3-6H,1-2H3	InChI=1S/C7H10O2/c1-4-6-5(2)9-7(4,6)3-8/h3-6H,1-2H3/t4-,5+,6-,7-/m0/s1
