20
gdb 79637	2.5362	1.67415	1.26023	2.6744	78.63	-0.2243	0.0714	0.2956	1079.4161	0.170968	-403.104161	-403.096017	-403.095073	-403.136426	32.067	
C	 0.0747938466	 1.5414955702	 0.0401602202	-0.39227
C	 0.0111876408	 0.0110036504	 0.0031436583	-0.04593
C	 0.7076642332	-0.6031611724	-1.217359418	 0.025377
O	 2.1058898936	-0.3236577136	-1.3264512047	-0.23679
C	 1.7151993252	-1.587200125	-0.784632041	 0.019414
C	 1.6994958087	-1.648690594	 0.7309969952	-0.066293
C	 0.6727548841	-0.6740288235	 1.2089096893	-0.044463
N	 2.0966518656	-0.4032060128	 1.3954667822	-0.075641
C	 2.5897486839	-0.5535178679	 2.7578386481	-0.315999
H	 1.1180479331	 1.8628610622	 0.0712278197	 0.151451
H	-0.3993555985	 1.9791164191	-0.8442451177	 0.109951
H	-0.4370809127	 1.9348270227	 0.9243105206	 0.107552
H	-1.0372931021	-0.3153100013	-0.0276282167	 0.073609
H	 0.1754338008	-0.6634679734	-2.1654118507	 0.090059
H	 1.9973468714	-2.4612204652	-1.3655636509	 0.092658
H	 1.879140939	-2.5952796588	 1.2319034196	 0.082242
H	 0.0750663056	-0.871633725	 2.0966896589	 0.079971
H	 2.0814550498	-1.3480776657	 3.3318717155	 0.093884
H	 3.6597934123	-0.7817865629	 2.7309861662	 0.126278
H	 2.4551875797	 0.3920560269	 3.2926702357	 0.124939
146.6359	167.2844	217.5845	219.9256	235.617	295.1011	365.4801	426.3701	527.0735	553.5366	688.3056	711.8705	811.6362	831.1521	843.4045	865.5182	886.8098	904.1147	963.3645	980.9592	1026.3415	1037.9161	1065.5857	1091.4904	1127.8409	1130.0288	1142.2949	1165.0548	1166.804	1233.4339	1262.1944	1298.1431	1319.7835	1328.9774	1355.0528	1394.7908	1412.3508	1428.5107	1459.0251	1493.0452	1494.2504	1496.3304	1504.7909	2949.0074	3018.9462	3038.9854	3066.2421	3100.2732	3105.0909	3121.4648	3125.3059	3136.5252	3146.4447	3162.1728
CC1C2OC2C2C1N2C	C[C@H]1[C@H]2O[C@H]2[C@@H]2[C@H]1N2C	
InChI=1S/C7H11NO/c1-3-4-5(8(4)2)7-6(3)9-7/h3-7H,1-2H3	InChI=1S/C7H11NO/c1-3-4-5(8(4)2)7-6(3)9-7/h3-7H,1-2H3/t3-,4+,5+,6-,7+,8?/m1/s1
