17
gdb 44415	3.59714	1.50137	1.47452	3.497	74.75	-0.2301	0.0206	0.2507	950.129	0.138133	-417.88849	-417.881822	-417.880878	-417.919269	27.739	
N	 0.0481316886	 1.210842509	-0.4121120025	-0.561988
C	 0.0468374324	 0.0158366738	-0.0546813918	 0.394661
O	 1.1306056495	-0.8528589543	 0.2617903863	-0.293477
C	 0.1602492648	-1.6651851328	 1.0363202574	 0.135485
C	-0.6896377932	-2.9938596338	 0.980003935	-0.118328
C	-1.9053653838	-1.9374216884	 1.1706594241	-0.321881
C	-0.9621950735	-1.1030605107	 0.2320925891	 0.131081
N	-0.9211236508	-1.9207161294	-1.0198953903	-0.304322
C	-0.7933606776	-3.3064555671	-0.5048948118	-0.169555
H	 0.9995385822	 1.5697004252	-0.5102789165	 0.236751
H	 0.2025807503	-1.3049745136	 2.0652833841	 0.104984
H	-0.5270835182	-3.8092469589	 1.6841903871	 0.086161
H	-2.8759943923	-2.247212236	 0.7755873886	 0.110108
H	-1.99662352	-1.5687110677	 2.1920622364	 0.124401
H	-1.7858937078	-1.7801598797	-1.5298617408	 0.227088
H	 0.105695218	-3.7935983018	-0.8975891717	 0.117981
H	-1.6571118287	-3.9386550535	-0.7395835226	 0.100849
146.1536	216.0129	319.5898	366.4197	462.2008	470.6418	583.3455	644.8571	658.7583	706.2621	775.6917	793.1351	820.2305	834.7714	864.6312	899.2194	925.4566	963.6274	988.4562	1002.1745	1010.8539	1023.5684	1066.5051	1117.6089	1135.9303	1162.8862	1182.9183	1213.8841	1230.4639	1236.5745	1270.6112	1339.7652	1403.7309	1407.6534	1484.5812	1522.1835	1825.9251	3031.0754	3067.582	3071.2774	3090.8803	3128.5333	3152.18	3477.3665	3537.281
N=C1OC2C3CC12NC3	[NH][C]1O[C@@H]2[C@H]3C[C@@]12NC3	
InChI=1S/C6H8N2O/c7-5-6-1-3(2-8-6)4(6)9-5/h3-4,7-8H,1-2H2	InChI=1S/C6H8N2O/c7-5-6-1-3(2-8-6)4(6)9-5/h3-4,7-8H,1-2H2/t3-,4+,6-/m0/s1
