18
gdb 105650	2.05247	1.42368	1.28341	4.0058	72.83	-0.2725	0.0127	0.2853	1122.5506	0.146257	-439.073326	-439.064044	-439.0631	-439.107274	33.969	
C	 0.1402557275	 1.2597486164	-0.0221421825	-0.265281
O	-0.0382064488	-0.1453091347	 0.0909104005	-0.301226
C	-1.3703046184	-0.6104986598	 0.0530865671	 0.225606
C	-1.9716501126	-0.6509308061	-1.3860372685	-0.278748
C	-1.3694318442	-2.0692639849	-1.5654011315	-0.272883
C	-1.2689925428	-2.1805774951	-0.0168640111	 0.130438
O	-0.1704312381	-2.7696807664	 0.5902621771	-0.422464
C	-2.187700684	-0.0170519157	 1.1159901186	 0.233027
N	-2.8517197211	 0.4436307271	 1.9430380994	-0.34437
H	 1.2160079533	 1.4370531311	 0.0256720583	 0.140698
H	-0.2438299599	 1.6441797667	-0.9756829175	 0.120208
H	-0.3530315396	 1.78996138	 0.8014495313	 0.145198
H	-3.0632689555	-0.6501848034	-1.3604984301	 0.130134
H	-1.6322162449	 0.1363628411	-2.0603350029	 0.121026
H	-1.9735957797	-2.8176786785	-2.0797396947	 0.112994
H	-0.3757261298	-2.035017176	-2.0174634335	 0.116202
H	-2.1691417224	-2.6354648925	 0.4042056892	 0.113072
H	 0.5768691711	-2.1738263795	 0.4483885009	 0.29637
104.4184	116.0106	144.6632	168.5213	194.0644	217.2162	323.8656	367.5603	415.438	429.3214	504.3382	534.449	615.0177	616.1014	711.3355	783.156	883.0573	929.8267	961.8717	1020.7993	1074.4221	1094.6088	1138.069	1154.0488	1173.1258	1184.5299	1217.3785	1228.01	1239.9427	1263.4144	1293.9258	1346.8625	1442.5272	1467.2183	1482.7119	1487.3584	1491.0782	1509.2371	2345.0264	3012.7713	3075.533	3077.9154	3083.1285	3088.2736	3131.9588	3136.0874	3145.466	3773.5534
COC1(CCC1O)C#N	CO[C@]1(CC[C@H]1O)C#N	
InChI=1S/C6H9NO2/c1-9-6(4-7)3-2-5(6)8/h5,8H,2-3H2,1H3	InChI=1S/C6H9NO2/c1-9-6(4-7)3-2-5(6)8/h5,8H,2-3H2,1H3/t5-,6-/m1/s1
