13
gdb 25210	2.48354	1.93655	1.32806	3.2554	69.12	-0.2712	-0.078	0.1932	926.4909	0.090814	-448.929974	-448.922772	-448.921827	-448.962103	26.216	
N	-0.1761992939	 1.4295732139	 0.0386342448	-0.467275
C	-0.0690405062	 0.1861780798	 0.1177643746	 0.391941
O	 1.1834331448	-0.4245353887	 0.3277030174	-0.216865
C	 1.3478945569	-1.6828583189	 0.782749693	 0.152589
N	 0.5751058976	-2.4288245239	 1.4606239114	-0.262738
C	-0.7300655281	-2.101996381	 1.8042310561	 0.063452
N	-1.5923949401	-1.4264183782	 1.145535668	-0.238766
C	-1.2175461779	-0.7770954271	-0.0366318433	 0.267043
N	-1.7886034433	-0.8795428242	-1.1633338987	-0.464584
H	 0.7191501191	 1.8976107356	 0.1899106171	 0.242311
H	 2.3493638427	-2.0274339071	 0.5350860154	 0.156631
H	-1.0543451245	-2.5678045759	 2.7336318121	 0.142218
H	-2.5585730771	-1.5515793745	-1.0941255579	 0.234043
79.8149	106.1537	254.4526	300.9473	318.7656	393.1662	458.2371	595.2165	612.3307	694.6621	760.6932	809.3071	859.0849	905.4346	935.9193	956.7633	969.816	1007.3694	1027.4438	1080.0311	1183.8697	1241.1091	1335.5075	1424.2864	1435.2934	1652.5606	1697.7986	1724.1033	1797.0869	3151.1026	3175.1767	3439.1054	3480.0455
N=C1OC=NC=NC1=N	[NH][C]1OC=NC=N[C]1[NH]	
InChI=1S/C4H4N4O/c5-3-4(6)9-2-7-1-8-3/h1-2,5-6H	InChI=1S/C4H4N4O/c5-3-4(6)9-2-7-1-8-3/h1-2,5-6H
