15
gdb 132284	1.96481	1.83035	0.95323	2.1172	73.4	-0.2165	-0.0381	0.1784	1150.6276	0.113668	-458.154933	-458.14714	-458.146195	-458.187697	29.03	
C	-0.0169474301	 1.4722261088	 0.035542151	-0.49094
C	 0.000776359	-0.0259145826	-0.0475801638	 0.413297
N	-0.0211322314	-0.6154003428	-1.2106720661	-0.367729
C	-0.0019257148	-1.9726258272	-1.1759871799	 0.337936
F	-0.0252049966	-2.5320297596	-2.377399599	-0.061641
C	 0.0369978992	-2.7541411874	-0.0702269877	-0.363956
C	 0.0616828333	-2.1172353847	 1.2278018757	 0.385484
N	 0.0987036686	-2.6011620402	 2.4131966352	-0.574242
N	 0.0398435012	-0.7095882875	 1.1187864891	-0.342602
H	 0.8773472289	 1.843849299	 0.5473767689	 0.149694
H	-0.0512863538	 1.8839038864	-0.9718551797	 0.16712
H	-0.8898347283	 1.8203764745	 0.5982635126	 0.149521
H	 0.0496696841	-3.8329714138	-0.1439117217	 0.11503
H	 0.111661004	-3.6184310818	 2.3806253558	 0.215819
H	 0.0558813968	-0.2187207512	 2.0028253098	 0.267211
73.596	155.384	196.1136	210.1012	294.9938	358.5404	510.0375	535.0661	573.6191	583.3958	625.4698	659.0835	731.7203	748.6986	792.0883	849.425	939.2076	985.5518	1034.9104	1060.2287	1063.1214	1124.2324	1236.259	1278.3648	1342.8617	1404.369	1430.5633	1465.8699	1482.4003	1507.5454	1620.7635	1647.8923	1725.1297	3042.9984	3100.0527	3170.8525	3226.373	3509.6133	3597.8697
CC1=NC(F)=CC(=N)N1	CC1=N[C@@H](F)C=C([NH])N1	
InChI=1S/C5H6FN3/c1-3-8-4(6)2-5(7)9-3/h2H,1H3,(H2,7,8,9)	InChI=1S/C5H7FN3/c1-3-8-4(6)2-5(7)9-3/h2,4,7H,1H3,(H,8,9)/t4-/m1/s1
