23
gdb 113851	3.82944	0.80574	0.74384	1.7369	87.21	-0.2546	0.0841	0.3387	1654.6889	0.205345	-388.266797	-388.257138	-388.256193	-388.302372	35.651	
C	-0.5041894556	 1.5421879084	 0.4564146097	-0.374186
C	 0.208584918	 0.3211225063	-0.1386557962	-0.216205
C	 1.0644716853	-0.3813381965	 0.8887512256	 0.075048
O	 0.3899681406	-1.1422794828	 1.899033177	-0.27151
C	 1.2592319409	-1.8389104435	 0.9938644012	 0.032363
C	 0.6504760951	-2.8683059105	 0.0869668431	 0.029344
C	 1.5336387102	-3.4528632912	-1.0550321459	-0.234976
C	 0.9205498806	-4.8490075626	-0.7641534987	-0.209679
C	 0.4805819583	-4.3203629164	 0.6273525546	-0.229084
H	 0.2154736899	 2.271619319	 0.8440294735	 0.114598
H	-1.1191561263	 2.0457824752	-0.2952299646	 0.111986
H	-1.153186309	 1.2405981111	 1.2838855262	 0.134588
H	-0.5305982687	-0.3729070691	-0.5488380845	 0.105126
H	 0.8525051878	 0.6320857997	-0.9718480903	 0.099504
H	 1.8685528382	 0.2429338213	 1.2896864604	 0.080392
H	 2.1921643263	-2.1689798932	 1.461371434	 0.077743
H	-0.3015994251	-2.5069848979	-0.3089948444	 0.074518
H	 1.4133335516	-3.0307010188	-2.0556326778	 0.097755
H	 2.5958764938	-3.4174895503	-0.7902329536	 0.099516
H	 0.0611664202	-5.0537644914	-1.4090346183	 0.103062
H	 1.5881568996	-5.7130618112	-0.7931141403	 0.096959
H	 1.2261966862	-4.5430770525	 1.3977520258	 0.100563
H	-0.503378968	-4.607730903	 1.0039618033	 0.102576
46.965	64.7807	107.6604	146.1214	176.3831	224.5873	280.26	348.9866	394.5305	476.3768	554.9419	644.9263	750.1514	771.47	783.6	828.6379	866.9897	903.7315	933.034	946.4819	951.055	976.6698	1018.5748	1032.7576	1053.3652	1094.6604	1118.4998	1141.4983	1185.1726	1201.0027	1204.5594	1237.9333	1252.8993	1256.2415	1271.6964	1283.8288	1292.5419	1303.5658	1328.7713	1348.7552	1406.9301	1422.8955	1474.4908	1477.8945	1485.7132	1494.6809	1497.6378	1507.7034	1512.0896	3027.6048	3035.7632	3045.9436	3050.8517	3052.758	3058.9856	3066.1103	3074.6605	3087.4582	3099.9717	3106.3083	3107.5562	3116.4942	3120.7244
CCC1OC1C1CCC1	CC[C@H]1O[C@H]1C1CCC1	
InChI=1S/C8H14O/c1-2-7-8(9-7)6-4-3-5-6/h6-8H,2-5H2,1H3	InChI=1S/C8H14O/c1-2-7-8(9-7)6-4-3-5-6/h6-8H,2-5H2,1H3/t7-,8+/m1/s1
