13
gdb 21630	3.51101	2.43903	1.43923	1.3003	65.74	-0.2091	-0.0353	0.1738	792.8941	0.099114	-390.985319	-390.978701	-390.977756	-391.015876	25.342	
N	 0.0410526782	 1.296560567	-0.1679175789	-0.541759
C	-0.0242719823	-0.0336256367	-0.0306135164	 0.422285
N	-1.1621436324	-0.6685559668	 0.0625445273	-0.353933
C	-1.0902263615	-2.0272009976	 0.1996127896	 0.075478
N	-0.0269022901	-2.7685607629	 0.248952861	-0.218785
N	 1.1462859803	-2.0755082191	 0.1488910956	-0.307797
C	 1.2901065869	-0.719553136	 0.0067256969	 0.354499
N	 2.3698363672	-0.0277468679	-0.0910371873	-0.582581
H	 0.9573516557	 1.7124576217	-0.2339257572	 0.287453
H	-0.8024072554	 1.8415293433	-0.2034020173	 0.269693
H	-2.0343313118	-2.5551005434	 0.2771447375	 0.12523
H	 1.9693014227	-2.6575812637	 0.1878558641	 0.263857
H	 3.2109292224	-0.603445828	-0.0532601449	 0.206361
128.8342	241.9929	268.4354	340.7791	451.677	486.4396	553.8704	572.1788	593.1164	628.5805	651.9397	757.9702	784.6646	819.014	941.7547	941.8493	1021.2082	1088.1822	1154.2258	1282.09	1345.4559	1388.8288	1424.9035	1476.6501	1557.3735	1621.7636	1659.9546	1699.7409	3198.5987	3475.3594	3587.6214	3621.0842	3739.6941
NC1=NC=NNC1=N	Nc1ncn[nH]c1[NH]	
InChI=1S/C3H5N5/c4-2-3(5)8-7-1-6-2/h1H,(H2,5,8)(H2,4,6,7)	InChI=1S/C3H10N5/c4-2-3(5)8-7-1-6-2/h2-3,5-8H,1,4H2
