22
gdb 78782	2.57296	1.67174	1.28966	1.6963	84.86	-0.2383	0.0731	0.3114	1096.3043	0.194063	-367.160231	-367.151416	-367.150471	-367.193077	34.777	
C	 0.1084211215	 1.4691010727	 1.9755366746	-0.440859
C	 0.3242275167	 0.011312095	 1.5832052991	 0.03554
C	 0.1516505926	-0.5405158209	 0.1757848424	-0.086345
C	 1.4788963082	-0.6467999781	-0.5151522117	-0.078577
N	 1.060879613	-1.7019969036	 0.4664510854	-0.161863
C	 1.6879869697	-0.7174045902	 1.5179348201	-0.079841
C	 2.5947817097	-0.1383487607	 0.3902052992	 0.324494
C	 3.8407842809	-1.028798001	 0.254307512	-0.432832
C	 3.0104636754	 1.3331644242	 0.3497460387	-0.474341
H	 0.5714114204	 2.1792526763	 1.2905329401	 0.121773
H	-0.9641865871	 1.6905946462	 2.0027262205	 0.117069
H	 0.5047428302	 1.6616974738	 2.9788627603	 0.117428
H	-0.3069375555	-0.6114121302	 2.2303300043	 0.089774
H	-0.7772486313	-0.6897949116	-0.3658395258	 0.089856
H	 1.5450153611	-0.8732943986	-1.5756070959	 0.084779
H	 2.1447132781	-1.1221829423	 2.421775903	 0.071712
H	 3.5816319316	-2.0885788124	 0.3161910353	 0.13671
H	 4.3410198292	-0.8533764018	-0.7047723782	 0.108853
H	 4.5613723855	-0.8014945193	 1.0482932743	 0.108816
H	 3.4900383109	 1.6344908406	 1.2880059819	 0.114926
H	 3.7402933406	 1.4941653236	-0.4518361112	 0.112672
H	 2.1728512987	 2.005866788	 0.1645611216	 0.120253
111.9083	151.4659	163.9107	251.6346	256.0428	275.7055	328.3333	355.8048	373.3607	547.147	580.4978	624.1388	687.5176	767.7532	787.7599	809.7789	884.7373	901.1271	925.7218	939.2194	948.768	991.7286	1021.3483	1039.4537	1050.9653	1068.3913	1107.6378	1129.4687	1152.9107	1177.9659	1185.3532	1217.1754	1241.2175	1256.6506	1280.5676	1364.8871	1374.6867	1397.0922	1407.2929	1413.8247	1422.0494	1480.7323	1486.3295	1493.8952	1501.577	1504.0884	1519.8584	3022.1974	3026.1795	3033.4114	3038.9917	3084.7462	3089.1834	3091.63	3111.1585	3121.3793	3132.7342	3152.2324	3153.3018	3167.3171
CC1C2C3N2C1C3(C)C	C[C@H]1[C@H]2[C@@H]3N2[C@H]1C3(C)C	
InChI=1S/C8H13N/c1-4-5-7-8(2,3)6(4)9(5)7/h4-7H,1-3H3	InChI=1S/C8H13N/c1-4-5-7-8(2,3)6(4)9(5)7/h4-7H,1-3H3/t4-,5-,6+,7-,9?/m0/s1
