18
gdb 72217	3.34811	1.63895	1.34877	1.9643	76.38	-0.2014	0.0168	0.2182	971.5859	0.149561	-401.903179	-401.896114	-401.89517	-401.934089	29.391	
O	-0.1474113523	 1.4406932935	-0.0471628519	-0.457032
C	 0.0222261716	 0.0724685521	-0.0491939047	 0.351423
C	 0.745875329	-0.7366306494	-1.1203300999	-0.254497
N	-0.3184223959	-1.7931817008	-1.013416928	-0.104978
C	 0.1637344396	-3.0791718442	-0.5026406589	-0.222674
C	 0.8193941026	-2.9940823494	 0.8603270586	-0.085132
C	 0.6556788275	-1.9186920278	 1.6343928698	-0.06629
C	-0.2089748054	-0.7923886425	 1.2079899706	-0.148579
C	-1.0561302776	-0.9707718647	-0.0307907045	-0.100785
H	 0.6060367979	 1.8400061244	 0.4018920439	 0.288637
H	 0.7260755222	-0.2546602567	-2.1027241417	 0.112835
H	 1.7628732149	-1.0759108035	-0.8911659987	 0.099629
H	-0.6824482188	-3.7808183846	-0.474344817	 0.115156
H	 0.8674040202	-3.491102584	-1.2372435537	 0.110622
H	 1.418154003	-3.8383547979	 1.1911666059	 0.086801
H	 1.1381896917	-1.8532035313	 2.6057181756	 0.08544
H	-0.6811123685	-0.2058735804	 1.9913992238	 0.092008
H	-2.1367576415	-0.8906495528	-0.0566858193	 0.097416
207.2609	217.415	281.024	319.6441	389.2724	413.9043	475.1262	526.0106	580.9344	621.1435	666.112	746.6814	817.6893	850.7018	893.7472	910.2552	930.578	957.6622	983.3441	999.1429	1028.5642	1037.4076	1055.3415	1083.2011	1125.9538	1171.5975	1185.9198	1205.2176	1257.5007	1273.5932	1289.8579	1309.6017	1336.3095	1358.9547	1406.2506	1460.8726	1470.1746	1499.0656	1700.4218	3005.5248	3028.3543	3041.2453	3084.2925	3147.5408	3155.7487	3173.8757	3177.0972	3792.4883
OC12CN3CC=CC1C23	O[C@@]12CN3CC=C[C@@H]1[C@@H]23	
InChI=1S/C7H9NO/c9-7-4-8-3-1-2-5(7)6(7)8/h1-2,5-6,9H,3-4H2	InChI=1S/C7H9NO/c9-7-4-8-3-1-2-5(7)6(7)8/h1-2,5-6,9H,3-4H2/t5-,6+,7+/m1/s1
