15
gdb 10328	2.57339	1.75295	1.09453	1.8624	58.34	-0.2551	-0.045	0.2101	1023.9154	0.117073	-436.971902	-436.963165	-436.962221	-437.005866	30.597	
N	-0.2580691311	 1.3203709662	-0.0130224226	-0.52331
C	-0.0171220481	-0.0159552644	-0.0431471048	 0.397403
O	 1.0884171596	-0.5090763654	-0.1593921469	-0.359117
C	-1.2783962861	-0.9070988732	 0.007430984	-0.235129
C	-0.9042143895	-2.3928985422	 0.1402662708	-0.089665
O	-2.0519895819	-3.2283921183	 0.0875504961	-0.421575
C	-2.3030439446	-0.5023936252	 1.0601274028	 0.1538
O	-2.6208664451	 0.6363499076	 1.3159840791	-0.266877
H	 0.5473308719	 1.9221197691	 0.0651600172	 0.259313
H	-1.1496638941	 1.640218166	 0.3429967386	 0.276258
H	-1.7936472913	-0.7612927887	-0.9558929726	 0.132646
H	-0.1597433052	-2.6515977647	-0.6178205896	 0.129863
H	-0.441196702	-2.5721360783	 1.1152985848	 0.130968
H	-2.3479225919	-3.2770783868	-0.8269928697	 0.287258
H	-2.7766516605	-1.3546656017	 1.5839698527	 0.128164
50.6714	94.1107	119.501	196.7851	254.5756	300.4652	336.3589	377.4608	407.5585	511.1973	580.9928	600.0435	645.5498	732.5998	776.2617	895.8012	1008.4116	1037.1937	1084.4753	1096.2644	1148.7915	1182.6994	1217.2974	1310.0771	1344.3046	1382.8909	1404.9537	1424.5758	1502.7749	1620.7959	1794.8345	1802.3375	2959.4501	2991.4149	3060.1385	3105.9434	3530.7704	3681.0775	3817.856
NC(=O)C(CO)C=O	NC(=O)[C@@H](CO)C=O	
InChI=1S/C4H7NO3/c5-4(8)3(1-6)2-7/h1,3,7H,2H2,(H2,5,8)	InChI=1S/C4H7NO3/c5-4(8)3(1-6)2-7/h1,3,7H,2H2,(H2,5,8)/t3-/m1/s1
