20
gdb 115022	2.07944	1.46889	0.97191	4.008	83.75	-0.264	-0.0012	0.2628	1265.9353	0.171766	-366.046796	-366.037822	-366.036878	-366.080882	33.344	
C	-0.0187789154	 1.6124158774	-0.0031690689	-0.392644
C	-0.0095094306	 0.0804975109	 0.0164499569	-0.199242
C	 0.7503078163	-0.5307825801	-1.1628237497	 0.023445
C	 2.2657215511	-0.2050214963	-1.2287097065	-0.264321
C	 2.8592321004	-1.4219435245	-1.8918763989	-0.056486
C	 2.0126866089	-2.447106082	-1.9271683413	-0.072113
C	 0.6827343707	-2.096321484	-1.2750250086	-0.222777
C	 0.5415197824	-2.7841549188	 0.0154236918	 0.27909
N	 0.4373444939	-3.3336229887	 1.0276280303	-0.338791
H	 0.9942943616	 2.0226381218	 0.0619486248	 0.120579
H	-0.4736147112	 1.9961619403	-0.923484325	 0.114252
H	-0.5902187612	 2.0097338129	 0.840749378	 0.119593
H	 0.4299200459	-0.2766920807	 0.9553474503	 0.12165
H	-1.042786142	-0.2884391231	 0.0074672758	 0.103498
H	 0.3007458619	-0.1623815934	-2.0930720975	 0.087995
H	 2.463567872	 0.7199878154	-1.7801404296	 0.112609
H	 2.6937173325	-0.0654537214	-0.2251861061	 0.119586
H	 3.8762734611	-1.447988092	-2.2670381853	 0.105889
H	 2.216540678	-3.4389689508	-2.3110811359	 0.114063
H	-0.1744952463	-2.4000935028	-1.8875237548	 0.124124
68.4724	102.5872	126.4761	181.8139	214.6893	258.5441	375.412	393.9646	410.4852	483.0253	583.6085	679.6347	734.4031	781.0953	786.32	811.3684	906.3373	950.7518	959.3704	973.4818	982.1002	1001.9376	1040.8431	1073.1901	1130.2714	1135.231	1150.8324	1188.9163	1242.14	1283.1674	1302.7826	1313.6508	1334.969	1350.6135	1375.6729	1390.474	1413.8416	1482.308	1489.2958	1501.907	1506.6513	1689.6567	2347.6243	3006.2097	3023.7631	3027.7955	3032.6967	3041.0556	3063.2767	3071.1895	3100.1279	3108.3916	3191.6039	3220.4105
CCC1CC=CC1C#N	CC[C@H]1CC=C[C@H]1C#N	
InChI=1S/C8H11N/c1-2-7-4-3-5-8(7)6-9/h3,5,7-8H,2,4H2,1H3	InChI=1S/C8H11N/c1-2-7-4-3-5-8(7)6-9/h3,5,7-8H,2,4H2,1H3/t7-,8-/m0/s1
