14
gdb 49905	3.76531	1.04764	0.9024	5.3122	71.99	-0.2587	-0.0458	0.2129	1242.3618	0.099082	-436.68528	-436.676777	-436.675832	-436.71913	29.835	
O	-0.1835989946	-0.0295343808	-0.1568593004	-0.260371
C	-0.0733551169	 1.1648539576	-0.0928661573	 0.156397
N	 1.1286730462	 1.8503972436	-0.0113320483	-0.129998
C	 1.4066173937	 3.2964909708	 0.0767400707	-0.192111
C	 2.933718584	 2.9546638036	 0.0762095019	-0.333319
C	 3.7205976911	 3.3741762984	 1.2120405409	 0.32882
C	 4.3635907656	 3.7125360813	 2.1687951093	-0.440057
C	 2.4816349977	 1.4567955393	 0.0370470216	 0.438525
O	 3.0215869971	 0.3987194538	 0.0375638297	-0.298435
H	-0.931106765	 1.8675362596	-0.0930530784	 0.09247
H	 1.0608280165	 3.866566721	-0.7882553976	 0.135897
H	 1.0549575635	 3.7534224998	 1.003429538	 0.144702
H	 3.4180175677	 3.2261342462	-0.8671101969	 0.146319
H	 4.9405103334	 4.0073529059	 3.0105806769	 0.211161
53.9834	121.1873	161.4664	179.0851	195.5542	244.0915	380.775	435.237	500.3032	555.6127	633.9716	656.5495	664.5914	762.2045	820.5181	878.2769	985.5665	1030.9344	1046.7817	1091.3629	1145.5847	1163.6474	1189.5567	1261.8866	1327.4376	1363.5647	1433.731	1515.8009	1815.0638	1928.3553	2244.0715	2931.4009	3067.3957	3071.5785	3132.3027	3502.418
O=CN1CC(C#C)C1=O	O=CN1C[C@@H](C#C)C1=O	
InChI=1S/C6H5NO2/c1-2-5-3-7(4-8)6(5)9/h1,4-5H,3H2	InChI=1S/C6H5NO2/c1-2-5-3-7(4-8)6(5)9/h1,4-5H,3H2/t5-/m1/s1
