16
gdb 54493	2.55314	1.61603	1.10081	2.2793	71.39	-0.2514	-0.0397	0.2116	1078.3835	0.122374	-437.879523	-437.871	-437.870056	-437.913204	30.828	
C	 0.2537292248	 1.4372409434	 0.100370393	-0.492569
C	-0.1732208955	-0.0069410021	 0.0063706213	 0.290258
O	-0.6461143433	-0.6298205191	 0.9368674238	-0.328567
C	 0.0260642957	-0.6781910511	-1.3055644758	 0.112336
N	-0.7206423591	-1.9553290994	-1.5818170033	-0.348638
C	 0.7176748907	-2.0273195916	-1.5493881174	-0.088344
C	 1.2135533597	-1.5913242035	-2.936391637	-0.339353
C	 0.5819682465	-0.2040215175	-2.6293687821	 0.368262
O	 0.6906841069	 0.8787074544	-3.1279009232	-0.308198
H	 1.3409698538	 1.5102629687	-0.0227712438	 0.149589
H	-0.1852805988	 2.0170604614	-0.7173213498	 0.166653
H	-0.0334585915	 1.8462002212	 1.0692508559	 0.143747
H	-1.0757819396	-2.2164185154	-0.6565623672	 0.260496
H	 1.2602227365	-2.5829029975	-0.7949883147	 0.132598
H	 2.2987140133	-1.5058725751	-3.0353636848	 0.137784
H	 0.7975357999	-2.1532997468	-3.7746803249	 0.143946
68.3511	107.607	124.9149	173.497	201.4953	353.0115	366.9432	440.9618	545.8344	576.3295	586.7863	644.9581	668.1288	795.5753	831.9249	889.4661	939.8167	978.1149	1004.3791	1007.2462	1043.1519	1073.0392	1120.5363	1148.0855	1190.967	1230.6787	1292.2202	1361.6441	1380.3249	1400.9371	1441.9533	1454.5362	1467.9626	1774.0515	1882.4381	3040.378	3074.9457	3103.7154	3137.5733	3161.1387	3206.8359	3423.6982
CC(=O)C12NC1CC2=O	CC(=O)[C@]12N[C@H]1CC2=O	
InChI=1S/C6H7NO2/c1-3(8)6-4(7-6)2-5(6)9/h4,7H,2H2,1H3	InChI=1S/C6H7NO2/c1-3(8)6-4(7-6)2-5(6)9/h4,7H,2H2,1H3/t4-,6-/m0/s1
