20
gdb 98762	3.73707	1.06442	0.93391	3.3645	79.67	-0.2347	0.0346	0.2693	1319.9318	0.171134	-403.149236	-403.140004	-403.13906	-403.184826	33.481	
C	 0.0685757471	 1.4529847965	 0.1163981242	-0.331794
N	-0.1051730187	 0.0169158598	 0.2030930007	-0.310678
C	-1.2731712851	-0.6105844161	-0.1333579955	 0.396319
O	-2.2577664738	-0.0129436037	-0.5304035005	-0.37654
C	-1.2271881207	-2.127942167	 0.0151415593	-0.127826
C	-0.8770326668	-2.7665220054	 1.41304173	-0.262032
C	-2.2113569087	-3.5194698587	 1.3691395679	-0.044185
C	-3.3481394858	-2.5446874106	 1.2569816766	-0.263988
C	-2.5616962013	-2.8743453195	 0.0229479547	-0.034786
H	 0.8710679652	 1.7199006079	-0.5809051952	 0.122161
H	-0.8717641703	 1.8683103807	-0.2482220076	 0.170794
H	 0.2970725796	 1.8905509916	 1.0950384643	 0.122039
H	 0.6611909351	-0.5450189211	 0.5347866773	 0.2446
H	-0.5497514866	-2.5222053393	-0.7497584012	 0.097007
H	-0.0017614859	-3.4182862747	 1.3644534823	 0.10195
H	-0.7507421977	-2.0694252428	 2.2489247465	 0.097511
H	-2.3561026958	-4.5427914902	 1.6922543884	 0.085341
H	-4.3399814823	-2.9834598325	 1.2936603134	 0.110143
H	-3.2836440986	-1.555393622	 1.7019111954	 0.116273
H	-3.0265807491	-3.314874563	-0.8495121709	 0.087693
20.3628	83.1656	103.1314	137.5838	178.2203	304.0235	330.848	395.6553	436.7191	475.776	605.0422	707.0921	755.489	781.2193	812.9992	838.8897	926.5237	953.3106	958.5142	992.725	1016.2174	1034.1908	1058.4463	1080.461	1083.1945	1102.1006	1146.4618	1154.1833	1168.1935	1196.9618	1226.0233	1243.938	1260.4008	1302.7544	1343.5611	1368.2602	1437.3271	1484.8959	1493.1224	1499.8926	1500.6682	1557.6301	1775.8805	3023.4385	3038.6438	3049.8618	3073.3509	3101.8913	3117.5212	3151.6398	3184.2948	3193.3877	3207.8502	3645.0916
CNC(=O)C1CC2CC12	CNC(=O)[C@H]1C[C@H]2C[C@@H]12	
InChI=1S/C7H11NO/c1-8-7(9)6-3-4-2-5(4)6/h4-6H,2-3H2,1H3,(H,8,9)	InChI=1S/C7H11NO/c1-8-7(9)6-3-4-2-5(4)6/h4-6H,2-3H2,1H3,(H,8,9)/t4-,5-,6+/m1/s1
