16
gdb 131485	3.93262	1.21615	1.03533	3.4256	70.83	-0.2411	0.0123	0.2534	1132.1859	0.12711	-434.075149	-434.067718	-434.066774	-434.107385	28.302	
O	 0.0317978857	 1.3421907538	 0.8059381264	-0.41931
C	 0.0370785304	 0.059559089	 0.24210166	 0.091597
C	-0.5602901408	-1.0193067527	 1.0735228161	-0.313444
C	-1.2792847163	-0.5703133493	-0.196487634	-0.161367
C	-2.5436526828	 0.1759757556	-0.1296882581	 0.3907
N	-3.6128353897	-0.0535961446	-0.8800214848	-0.332078
C	-4.4992469801	 0.8828375637	-0.4421583644	 0.019876
N	-4.0600493893	 1.6757062205	 0.5201117659	-0.216499
N	-2.8028605172	 1.2041140441	 0.7109904151	-0.254668
H	 0.0373528701	 1.9840350715	 0.0864269333	 0.299369
H	 0.9186567925	-0.1719860396	-0.3525990301	 0.108264
H	-0.0961186691	-1.9983857599	 1.0786546579	 0.131541
H	-1.0035309905	-0.7176176536	 2.0162993295	 0.134182
H	-1.2469171802	-1.2445902552	-1.0438888196	 0.120802
H	-5.4965389954	 0.9810464013	-0.8445121279	 0.121951
H	-2.1639454672	 1.6463270153	 1.3525211047	 0.279083
80.3889	152.599	176.72	287.2004	367.0818	397.5657	453.7812	531.7736	625.8834	688.9007	715.793	773.2394	777.927	851.3639	909.1819	944.3317	983.8778	1001.4165	1031.122	1058.4729	1068.189	1122.5419	1127.3814	1170.6933	1208.1475	1224.6953	1285.1765	1296.0559	1314.1127	1331.1653	1426.748	1437.1431	1484.5458	1499.8992	1593.9624	3121.9352	3141.5426	3189.7535	3233.3374	3259.2664	3653.9282	3796.1682
OC1CC1C1=NC=NN1	O[C@H]1C[C@H]1c1ncn[nH]1	
InChI=1S/C5H7N3O/c9-4-1-3(4)5-6-2-7-8-5/h2-4,9H,1H2,(H,6,7,8)	InChI=1S/C5H7N3O/c9-4-1-3(4)5-6-2-7-8-5/h2-4,9H,1H2,(H,6,7,8)/t3-,4+/m1/s1
