16
gdb 128279	2.78519	1.56286	1.00739	1.4201	78.69	-0.2056	-0.0317	0.1739	1129.6387	0.127211	-430.270179	-430.261864	-430.26092	-430.305367	29.959	
C	 0.0354006605	 1.401565276	-0.1015923252	-0.318522
N	-0.0847423518	-0.0398918983	-0.0736731099	-0.325442
C	-1.2553804506	-0.6775605288	 0.0237162347	 0.423302
N	-2.3935895574	-0.0348172206	 0.1043009743	-0.374182
C	-3.5181981074	-0.8053786039	 0.2012493936	 0.075573
N	-3.6007721047	-2.0999810166	 0.2227658413	-0.222706
N	-2.3957158168	-2.7414242375	 0.1361489585	-0.306004
C	-1.16045295	-2.1582817074	 0.0332361761	 0.345838
N	-0.0071801403	-2.7212666458	-0.0504928502	-0.585995
H	 1.0923404767	 1.6645065212	-0.1642145426	 0.130447
H	-0.4920879321	 1.8245099563	-0.963192931	 0.14476
H	-0.3939542734	 1.8476121653	 0.8014220482	 0.146231
H	 0.7209600631	-0.647612424	-0.131969441	 0.275192
H	-4.4622378044	-0.2754651458	 0.2687070212	 0.123127
H	-2.4669529695	-3.7474730725	 0.1531872556	 0.262583
H	-0.0625505219	-3.7393767075	-0.0347681236	 0.205798
7.5344	112.4852	149.7369	197.5964	251.4312	361.3831	470.0961	531.7275	563.7521	567.9524	573.8641	603.04	641.556	779.3681	790.8523	815.8808	921.8214	943.2656	1076.1885	1093.2101	1134.792	1158.6315	1159.4411	1234.7002	1336.3706	1380.9613	1409.6698	1444.2531	1456.9635	1475.3683	1511.0718	1557.1699	1623.7402	1649.6246	1695.3332	3036.6154	3090.1816	3141.4591	3195.4765	3477.4593	3595.2413	3621.7743
CNC1=NC=NNC1=N	CNc1ncn[nH]c1[NH]	
InChI=1S/C4H7N5/c1-6-4-3(5)9-8-2-7-4/h2H,1H3,(H2,5,9)(H,6,7,8)	InChI=1S/C4H12N5/c1-6-4-3(5)9-8-2-7-4/h3-9H,2H2,1H3
