17
gdb 95570	2.55387	1.71053	1.11085	3.7969	70.64	-0.2483	0.0011	0.2495	1073.008	0.137101	-455.182635	-455.174249	-455.173305	-455.216207	30.146	
C	-0.1148910755	 1.3601925967	 0.5505518462	-0.346245
N	 0.0467788156	 0.0599918265	-0.0859275776	-0.125595
C	-1.1478829518	-0.6700432162	-0.4913829031	-0.200601
C	-1.3334132949	-1.9754268308	 0.2819194989	-0.145105
N	-0.3638497397	-3.0117622647	-0.0060579852	-0.237415
C	 0.7497241385	-2.7955162924	-0.5442682062	 0.122782
O	 1.3844088783	-1.6401616162	-0.9499620871	-0.243131
C	 1.3029391668	-0.3817615476	-0.3485970718	 0.469467
O	 2.324038678	 0.2240245375	-0.1563360748	-0.364056
H	 0.8710305659	 1.7359454338	 0.8181978532	 0.175761
H	-0.5965826597	 2.071988022	-0.1304728691	 0.131384
H	-0.7295520828	 1.2705924943	 1.4534678462	 0.127729
H	-2.0045611632	-0.0157909883	-0.3110474818	 0.121133
H	-1.1202970364	-0.876840122	-1.5680338716	 0.133632
H	-1.3231942649	-1.7690427533	 1.3602160116	 0.124055
H	-2.3251260934	-2.388134648	 0.0581113143	 0.1185
H	 1.4001790192	-3.6305196312	-0.797872692	 0.137706
79.9798	83.7758	137.869	161.5462	285.6977	316.4723	382.7246	441.0046	477.2692	535.7896	594.5547	695.6496	756.5076	839.4065	865.1103	923.8869	954.421	1025.7717	1027.1322	1087.4909	1101.5892	1127.8605	1156.995	1218.352	1283.1199	1309.5851	1377.0525	1386.7985	1422.3141	1432.4488	1449.6394	1478.3945	1493.974	1500.3228	1520.6645	1762.472	1842.3595	3021.0646	3022.5496	3034.8796	3055.9526	3075.341	3102.2781	3159.7924	3172.5819
CN1CCN=COC1=O	CN1CCN=COC1=O	
InChI=1S/C5H8N2O2/c1-7-3-2-6-4-9-5(7)8/h4H,2-3H2,1H3	InChI=1S/C5H8N2O2/c1-7-3-2-6-4-9-5(7)8/h4H,2-3H2,1H3
