20
gdb 68580	4.13424	0.97294	0.91195	4.0332	84.22	-0.3016	0.0363	0.3379	1342.2165	0.171119	-365.993566	-365.984925	-365.983981	-366.027023	33.153	
C	-0.0073960117	 1.4717148676	 0.0058742838	-0.508404
C	 0.000505258	-0.0328079425	 0.0008260247	 0.332935
C	 0.6200471964	-0.9727136756	-1.0824666663	-0.30908
C	 0.0121175071	-1.9169639108	-0.0084016661	 0.345565
C	 0.0315322338	-3.4357305906	-0.0335038837	-0.472998
C	-0.6309358457	-4.0194781504	 1.1328713352	 0.263826
N	-1.1598155598	-4.4572020014	 2.0624180095	-0.313662
C	 0.632981448	-0.9819143371	 1.0679556162	-0.286118
C	-1.2351128926	-0.9882138981	 0.0050442859	-0.286107
H	 1.0126406483	 1.8711273694	-0.0000537201	 0.12044
H	-0.5273603301	 1.8659923996	-0.8740243643	 0.120443
H	-0.5141369303	 1.8586347775	 0.8965194091	 0.123225
H	 0.1383875443	-0.9730257272	-2.0652522181	 0.089656
H	 1.7109610841	-0.9676732591	-1.1704730405	 0.089652
H	-0.4649654573	-3.8055995485	-0.9387779862	 0.151888
H	 1.0652965893	-3.8004689079	-0.0668655369	 0.15186
H	 1.7249680742	-0.9775112117	 1.1412252157	 0.088794
H	 0.1637227343	-0.9945049158	 2.0553615168	 0.104636
H	-1.8441490254	-1.0013167978	 0.9129182159	 0.104651
H	-1.8559742551	-0.9895647894	-0.8962617807	 0.088798
65.2298	96.0875	208.5484	219.2567	237.1991	357.3592	362.7858	394.1793	457.5731	545.1521	545.9166	620.5114	688.5426	759.0142	792.2157	887.6971	924.6394	936.4748	962.5541	976.3649	991.0463	996.4228	1080.4279	1084.2992	1103.76	1136.6369	1147.2833	1154.3402	1164.7911	1203.4476	1206.7354	1273.3658	1297.6035	1327.4848	1350.1051	1414.2198	1459.1049	1490.3155	1490.3338	1497.4168	1497.7016	1561.227	2361.8002	3027.8427	3034.2236	3037.3862	3041.6875	3050.8023	3072.0116	3095.6372	3097.0784	3102.7376	3111.0193	3114.7537
CC12CC(CC#N)(C1)C2	C[C@@]12C[C@@](CC#N)(C1)C2	
InChI=1S/C8H11N/c1-7-4-8(5-7,6-7)2-3-9/h2,4-6H2,1H3	InChI=1S/C8H11N/c1-7-4-8(5-7,6-7)2-3-9/h2,4-6H2,1H3/t7-,8+
