17
gdb 85386	1.95356	1.75272	0.95221	4.0228	70.55	-0.2577	-0.0099	0.2477	1189.7023	0.138086	-455.245259	-455.237083	-455.236139	-455.278131	30.876	
C	-0.0558435995	 1.554242935	 0.0081462084	-0.410459
C	 0.0518689677	 0.0319453219	 0.0060338819	 0.034461
C	 0.7034186288	-0.5048486517	-1.2708650351	-0.312096
C	 1.0134536665	-1.990500014	-1.191927493	 0.401668
O	 1.065033441	-2.7259790546	-2.1503849276	-0.343253
N	 1.2726374535	-2.4443540125	 0.0911324304	-0.378256
C	 1.2946476713	-1.7016812338	 1.2819055339	 0.455701
O	 1.6865521758	-2.1871792408	 2.3209487454	-0.385856
N	 0.8580295239	-0.4103321666	 1.1428737802	-0.350563
H	 0.9351419799	 2.0120704713	-0.0699799929	 0.133075
H	-0.6651158156	 1.8934027837	-0.834133851	 0.13265
H	-0.5296691828	 1.913051838	 0.9280134099	 0.123734
H	-0.9636920122	-0.3905451591	 0.0790926561	 0.094781
H	 0.0693517925	-0.3406355522	-2.1438811935	 0.13943
H	 1.6530685785	 0.018064892	-1.44478983	 0.139654
H	 1.5704139236	-3.4059202455	 0.1854308699	 0.269694
H	 0.7318178573	 0.0579830188	 2.0279134071	 0.255636
117.2209	132.4578	141.319	252.4074	271.3763	369.1878	433.2603	446.5745	494.8963	552.1908	576.3444	593.385	656.4621	706.0135	771.2599	878.0265	905.5793	943.4915	965.3785	1027.384	1084.7743	1119.2301	1192.5783	1210.7062	1287.5484	1307.0529	1361.3452	1375.876	1406.2051	1415.5259	1426.2807	1448.8761	1466.1039	1496.1382	1500.95	1818.4806	1829.5575	2964.9842	3036.3949	3038.9916	3107.2171	3121.1375	3126.3825	3612.5314	3623.4524
CC1CC(=O)NC(=O)N1	C[C@H]1CC(=O)NC(=O)N1	
InChI=1S/C5H8N2O2/c1-3-2-4(8)7-5(9)6-3/h3H,2H2,1H3,(H2,6,7,8,9)	InChI=1S/C5H8N2O2/c1-3-2-4(8)7-5(9)6-3/h3H,2H2,1H3,(H2,6,7,8,9)/t3-/m0/s1
