21
gdb 101464	2.69576	1.24253	1.06631	1.5483	80.7	-0.2278	0.0226	0.2505	1252.7233	0.180868	-424.217653	-424.207967	-424.207023	-424.252942	34.847	
C	-0.2340384046	 1.2297303094	-0.0833225429	-0.231921
O	 0.0984705607	-0.1367875872	-0.0737589961	-0.245247
C	 0.6881418925	-0.6022202832	 1.1286814905	 0.128291
C	-0.3377751643	-0.7746153188	 2.2510630487	-0.406025
C	 1.3908668629	-1.9343727461	 0.8033029378	 0.070273
O	 0.4413381659	-2.9360933943	 0.4338880027	-0.27545
C	 0.6516795175	-3.3436313344	-0.9153575977	-0.108525
C	 1.9207565869	-2.659461237	-1.3371774453	-0.096117
C	 2.339237165	-1.8613890526	-0.3642088565	-0.0758
H	 0.6368486641	 1.8629530201	 0.1517948938	 0.099104
H	-0.577934152	 1.4696997701	-1.0929126321	 0.125288
H	-1.0385580329	 1.4791477078	 0.6239467872	 0.106384
H	 1.47153107	 0.1073060341	 1.4524736542	 0.053643
H	-1.0878978993	-1.5091945793	 1.9498972984	 0.143075
H	 0.1510643903	-1.128737064	 3.1646235837	 0.111564
H	-0.8365293863	 0.1692268599	 2.4871965554	 0.110256
H	 1.8996506946	-2.2602460347	 1.7258658173	 0.077016
H	 0.7230494986	-4.4410586803	-0.9533418831	 0.101802
H	-0.2030595738	-3.046398813	-1.543263298	 0.109031
H	 2.3806328548	-2.806432626	-2.3060457521	 0.10329
H	 3.2121893895	-1.2214051706	-0.3724595359	 0.100067
57.7942	67.6545	92.7384	172.2245	207.569	219.0626	240.3693	338.5363	341.5965	396.6749	497.2185	660.2404	699.9476	779.5147	808.2945	827.6514	896.1537	931.0546	952.7701	955.7347	1023.1297	1031.421	1045.9767	1080.6579	1118.6641	1126.3698	1131.8958	1179.7884	1183.0431	1199.1333	1222.0254	1294.1727	1342.3185	1349.8836	1367.2659	1378.2387	1393.8055	1397.6906	1477.2388	1481.6571	1495.0229	1500.0076	1512.1208	1515.4973	1695.8245	2934.9697	2962.6468	2971.3667	2978.5624	3001.3603	3020.7383	3045.1758	3106.4899	3109.6172	3137.3005	3206.561	3231.4439
COC(C)C1OCC=C1	CO[C@@H](C)[C@H]1OCC=C1	
InChI=1S/C7H12O2/c1-6(8-2)7-4-3-5-9-7/h3-4,6-7H,5H2,1-2H3	InChI=1S/C7H12O2/c1-6(8-2)7-4-3-5-9-7/h3-4,6-7H,5H2,1-2H3/t6-,7-/m0/s1
