17
gdb 76114	3.24747	1.3021	1.11921	6.0559	73.06	-0.2551	0.0269	0.282	1112.3902	0.136036	-417.980412	-417.971953	-417.971008	-418.013396	31.808	
C	-0.0160988245	 1.5484297073	 0.0621020891	-0.520351
C	 0.1390099142	 0.0629382283	-0.0192684821	 0.309661
N	-0.8255183385	-0.8808788005	 0.5971759564	-0.380171
C	 0.609394912	-0.9555064418	 0.9604956559	-0.110669
C	 1.2746290661	-1.8066071856	-0.1275368272	-0.234709
C	 0.8488644149	-3.1891425615	-0.2565078839	 0.308449
N	 0.5052687549	-4.2872750163	-0.3672552578	-0.33453
C	 0.7034192629	-0.7549437972	-1.1991077886	 0.099074
O	-0.2002666608	-1.1989346617	-2.1511351721	-0.418704
H	 0.9144550338	 2.0559299628	-0.2122596869	 0.133522
H	-0.8000434413	 1.8958582702	-0.6198363476	 0.144048
H	-0.2853412647	 1.8636678647	 1.0759333217	 0.12413
H	-1.3149937468	-0.3919205615	 1.3447937467	 0.238287
H	 0.9362579206	-0.8418268708	 1.9862385551	 0.112565
H	 2.365300015	-1.7552638262	-0.0851318759	 0.12324
H	 1.5236622949	-0.2593408468	-1.7223614137	 0.104176
H	-0.9660557527	-1.5342581834	-1.662430419	 0.301982
90.8943	130.242	193.6072	198.9423	240.6103	294.2661	370.4243	420.5528	502.3934	531.2767	570.9086	636.7384	704.5138	746.3818	788.3892	855.4052	902.9905	931.5557	970.6946	1012.4681	1050.186	1058.3313	1100.4812	1108.2107	1142.3937	1181.8107	1224.7219	1263.147	1303.8993	1335.9243	1352.8062	1408.5376	1435.3866	1467.568	1482.6457	1497.7277	2357.2973	3029.8445	3085.3499	3096.6679	3100.4448	3102.639	3200.2138	3492.4022	3741.1971
CC12NC1C(C#N)C2O	C[C@]12N[C@H]1[C@@H](C#N)[C@H]2O	
InChI=1S/C6H8N2O/c1-6-4(8-6)3(2-7)5(6)9/h3-5,8-9H,1H3	InChI=1S/C6H8N2O/c1-6-4(8-6)3(2-7)5(6)9/h3-5,8-9H,1H3/t3-,4+,5-,6+/m1/s1
