18
gdb 75278	3.02786	1.46223	1.14621	2.8643	78.73	-0.2492	0.0039	0.253	1102.6391	0.148973	-401.970631	-401.962839	-401.961894	-402.002997	30.015	
C	-0.3592335947	 1.3533564087	 0.1126445558	-0.502013
C	-0.0429681443	-0.1048178443	 0.0073626312	 0.32325
C	-0.0953687361	-0.8863491121	-1.0765390786	-0.156346
C	 0.2766313979	-2.3289118094	-0.8215886943	-0.28107
C	 0.4888570227	-2.367170845	 0.7061014041	-0.168319
C	 0.362041068	-0.9119081565	 1.2099310742	 0.013004
O	-0.7935973025	-1.3040241796	 2.0532442634	-0.273754
C	-0.7379567909	-2.5960604019	 1.5707744533	 0.428002
N	-1.4756405997	-3.584084905	 1.7996112303	-0.545171
H	 0.5036668384	 1.9213009314	 0.4827096264	 0.127131
H	-0.6547980353	 1.7732643152	-0.8521920586	 0.126821
H	-1.1755628907	 1.52185296	 0.8252614763	 0.142843
H	-0.3828654136	-0.5371153485	-2.063685758	 0.097051
H	-0.5044833602	-3.0271128078	-1.1424279999	 0.135002
H	 1.1884091367	-2.6121579461	-1.3619884401	 0.113141
H	 1.3603901924	-2.9379923944	 1.0257320568	 0.106232
H	 1.1377084889	-0.4735184331	 1.8425229736	 0.088234
H	-2.2289870672	-3.3423911617	 2.4460221042	 0.225962
86.936	165.7382	187.9313	247.0508	267.3288	334.5316	430.4464	544.9861	590.4255	627.1301	712.4955	784.1733	816.6819	859.3	875.9012	890.2454	915.0333	940.7922	959.6407	1015.2131	1024.2505	1030.9521	1062.0833	1071.0855	1162.1393	1174.9995	1215.5873	1237.3209	1268.809	1296.3118	1322.377	1341.1453	1363.6397	1413.321	1479.08	1486.338	1491.0582	1714.0985	1818.8122	3022.3932	3029.0695	3067.459	3072.3078	3084.8434	3116.0402	3120.6081	3180.7055	3472.7307
CC1=CCC2C1OC2=N	CC1=CC[C@H]2[C@@H]1O[C]2[NH]	
InChI=1S/C7H9NO/c1-4-2-3-5-6(4)9-7(5)8/h2,5-6,8H,3H2,1H3	InChI=1S/C7H9NO/c1-4-2-3-5-6(4)9-7(5)8/h2,5-6,8H,3H2,1H3/t5-,6+/m0/s1
