20
gdb 82297	2.27293	1.7048	1.34522	1.5939	73.81	-0.2353	0.0698	0.3051	1042.435	0.171114	-440.265712	-440.257032	-440.256088	-440.298223	34.758	
C	 0.7490566864	 1.2981061016	-0.2792071753	-0.429752
C	 0.0340102256	-0.0324548396	-0.0495612379	 0.312335
O	-1.362951657	 0.1997246096	 0.1720104725	-0.488654
C	 0.2822479951	-1.0496679896	-1.2054348753	-0.267057
C	 1.4058162599	-1.9473416951	-0.7163306831	-0.033394
N	 2.5687806207	-1.1931851555	-0.2005246332	-0.330673
C	 1.5805989253	-1.7595182789	 0.7438839777	-0.062144
C	 0.5336620852	-0.7837846158	 1.2255440629	 0.139223
O	 1.0160783387	 0.0422916807	 2.2657946107	-0.440067
H	 1.819086227	 1.1392924528	-0.4162475922	 0.159163
H	 0.3495645097	 1.7810400223	-1.1807194666	 0.089835
H	 0.5978708999	 1.9686177968	 0.5699054871	 0.106351
H	-1.6639323016	 0.8348152766	-0.4862179531	 0.273433
H	-0.6273795215	-1.642744455	-1.3467115565	 0.105707
H	 0.5166557874	-0.5536523507	-2.1534689653	 0.096296
H	 1.5747292549	-2.9087327833	-1.1907098898	 0.085058
H	 3.3893896281	-1.7935441272	-0.2088364517	 0.231399
H	 1.8883613019	-2.5650564624	 1.4019969205	 0.087848
H	-0.3244969361	-1.3779520952	 1.5782159041	 0.077538
H	 0.2674908906	 0.550359608	 2.5959687647	 0.287554
111.1612	214.261	232.9274	270.4114	283.3418	301.4337	353.6307	369.9549	387.3299	428.5611	472.2505	561.1001	628.2956	655.4291	787.5553	805.589	868.7146	875.4105	929.5652	951.853	960.0253	971.0455	999.8925	1082.6963	1097.1012	1120.4104	1134.2736	1141.5795	1178.3648	1190.4344	1221.5303	1256.6935	1262.1816	1307.277	1348.9918	1357.9028	1384.8526	1402.3975	1433.7623	1454.8462	1476.9526	1488.1583	1505.9717	2978.4693	3022.4075	3040.4194	3087.2804	3106.4514	3154.4933	3158.0553	3171.495	3503.7674	3809.6859	3811.7645
CC1(O)CC2NC2C1O	C[C@@]1(O)C[C@H]2N[C@H]2[C@H]1O	
InChI=1S/C6H11NO2/c1-6(9)2-3-4(7-3)5(6)8/h3-5,7-9H,2H2,1H3	InChI=1S/C6H11NO2/c1-6(9)2-3-4(7-3)5(6)8/h3-5,7-9H,2H2,1H3/t3-,4-,5-,6-/m1/s1
