21
gdb 120533	5.99689	0.65569	0.62565	2.1325	80.18	-0.2425	-0.0301	0.2124	1823.2454	0.180139	-424.22441	-424.214375	-424.213431	-424.261018	35.126	
C	-0.0817258629	 1.7380064479	 0.2536283458	-0.382424
C	 0.2467569391	 0.2599330466	 0.0301650547	-0.165249
C	 0.7642263578	-0.4365470006	 1.2939494208	-0.185772
C	 1.0428225491	-1.9123395026	 1.0824779169	 0.152981
C	 1.2974193853	-2.7913056691	 2.3285122077	-0.325347
C	 0.053491953	-3.5649685557	 1.8618515218	 0.06068
O	-0.1700395054	-2.6620944406	 0.7599061348	-0.315771
C	 0.2797782269	-4.9764658242	 1.3535265673	 0.131075
O	 1.0778807332	-5.7476217376	 1.8192835365	-0.236012
H	 0.8014543074	 2.2971518809	 0.5829348732	 0.112549
H	-0.4490291628	 2.2069613833	-0.6643507298	 0.114157
H	-0.8539886078	 1.8600506837	 1.0212097205	 0.115145
H	-0.6445577573	-0.2727083072	-0.3203601248	 0.118553
H	 0.9959847338	 0.1648526136	-0.7669350471	 0.094456
H	 1.6919777275	 0.0424653139	 1.6379904638	 0.096738
H	 0.0323306228	-0.3278292261	 2.1054824661	 0.095255
H	 1.7852826788	-2.0489476014	 0.2838989078	 0.080868
H	 2.2160743945	-3.3783415428	 2.340570235	 0.130871
H	 1.1827464311	-2.2679486101	 3.2789799978	 0.112821
H	-0.8005460642	-3.5828598947	 2.5563943293	 0.103242
H	-0.36449038	-5.2394720772	 0.4843571119	 0.091187
32.4557	70.9221	87.4367	103.2534	133.6819	225.6532	244.5451	279.6289	372.0506	407.4447	488.7707	584.7998	736.8927	752.3025	808.5094	863.3943	889.2527	912.839	932.5176	952.8186	1029.959	1035.1613	1047.8272	1062.4022	1105.3264	1125.0194	1140.5946	1194.7605	1250.2365	1250.8679	1263.6148	1284.718	1322.1566	1334.7629	1342.9783	1382.9454	1401.1703	1409.975	1416.5124	1471.1174	1493.348	1496.2977	1500.2324	1510.0674	1832.2823	2886.9803	2987.8941	3004.894	3007.6121	3021.8188	3029.3994	3046.9587	3069.0814	3087.4274	3097.2712	3103.3428	3145.8495
CCCC1CC(O1)C=O	CCC[C@H]1C[C@@H](O1)C=O	
InChI=1S/C7H12O2/c1-2-3-6-4-7(5-8)9-6/h5-7H,2-4H2,1H3	InChI=1S/C7H12O2/c1-2-3-6-4-7(5-8)9-6/h5-7H,2-4H2,1H3/t6-,7+/m0/s1
