18
gdb 28457	3.11473	1.38945	0.97292	3.3107	83.59	-0.2268	-0.011	0.2158	1213.858	0.148682	-398.214609	-398.205723	-398.204779	-398.248421	33.019	
C	-0.015895276	 1.4851202595	 0.030275931	-0.459986
C	-0.0079138891	-0.0190807162	-0.0053493468	 0.346191
N	-0.1190540464	-0.6102244837	-1.1966436976	-0.308832
C	-0.0996003895	-1.9506157154	-1.1821718112	-0.063694
C	 0.0255630025	-2.7207345514	-0.0414194883	 0.216781
C	 0.0578905235	-4.2224625922	-0.0648210604	-0.523173
C	 0.1314248629	-1.9799673694	 1.1582641141	 0.305459
N	 0.3043217255	-2.6013560877	 2.3685889632	-0.566837
N	 0.1107073939	-0.6450941774	 1.171435814	-0.351361
H	 0.941825344	 1.8605352395	 0.4064086763	 0.134381
H	-0.1910538888	 1.8844776789	-0.9688137301	 0.13339
H	-0.7895519804	 1.8468628605	 0.714430709	 0.132038
H	-0.1888773433	-2.440851195	-2.1514284869	 0.099569
H	 0.9805860475	-4.614592648	 0.3806289904	 0.135483
H	-0.7812616402	-4.6624720072	 0.4914752967	 0.123919
H	-0.0027728495	-4.5959650157	-1.0905534033	 0.132868
H	-0.0031539327	-3.5540080322	 2.4695452182	 0.255498
H	 0.1725012059	-2.0067237969	 3.1722943018	 0.258307
43.9416	119.6493	178.7945	218.0177	279.3373	305.4134	316.0848	401.4029	444.7154	469.0989	514.4073	534.0529	589.4897	673.1205	751.6199	773.9442	810.4118	954.8645	970.1003	1010.1261	1027.43	1064.7756	1070.0819	1119.9452	1215.1383	1280.7472	1309.5957	1356.3477	1394.4902	1411.9032	1451.3864	1469.2941	1479.9981	1482.2248	1483.5497	1504.1569	1598.5898	1626.5862	1647.9704	3008.505	3045.0443	3057.5167	3101.6458	3109.2696	3129.6846	3154.9426	3591.012	3713.517
CC1=NC=C(C)C(N)=N1	Cc1ncc(C)c(N)n1	
InChI=1S/C6H9N3/c1-4-3-8-5(2)9-6(4)7/h3H,1-2H3,(H2,7,8,9)	InChI=1S/C6H9N3/c1-4-3-8-5(2)9-6(4)7/h3H,1-2H3,(H2,7,8,9)
