24
gdb 101327	2.24876	1.11838	0.98609	2.1979	86.61	-0.215	0.064	0.279	1399.1877	0.215376	-405.514946	-405.504053	-405.503108	-405.551013	39.961	
C	 0.4329211813	 1.1455364223	 0.3657039885	-0.391419
C	 0.1233843822	-0.3543792301	 0.359885537	-0.152315
C	-1.3250633663	-0.7331151839	 0.0072400346	 0.064108
C	-1.4551420063	-2.2570871935	-0.0924113221	-0.394953
N	-2.228923228	-0.2586728807	 1.0642126768	-0.09116
C	-2.7731225476	 1.0954035416	 1.00808032	-0.24783
C	-3.6620937359	-0.0845587635	 0.833700566	-0.002738
C	-4.3890560358	-0.3316100959	-0.474492513	-0.121355
O	-3.7894560552	 0.3886545493	-1.5415159982	-0.401835
H	 1.5005553589	 1.318587124	 0.5362078339	 0.105721
H	 0.17137102	 1.6105024376	-0.5917199044	 0.109856
H	-0.1150292222	 1.6687413476	 1.1534521759	 0.126862
H	 0.7797509576	-0.850466463	-0.3665671213	 0.085128
H	 0.3602250065	-0.7841143538	 1.3411224964	 0.097075
H	-1.5801130995	-0.2894974319	-0.9664929983	 0.080081
H	-2.4713492408	-2.5611836441	-0.3587417762	 0.105478
H	-0.776575943	-2.6525809905	-0.8548196754	 0.106954
H	-1.2075688607	-2.7227973544	 0.8671545626	 0.119708
H	-2.7656294374	 1.6558028366	 1.9403217923	 0.103602
H	-2.5854774678	 1.6834993109	 0.1134308092	 0.129711
H	-4.267474269	-0.4073468708	 1.6812270787	 0.086499
H	-4.4111943852	-1.4108725943	-0.6919890959	 0.09737
H	-5.4349321867	-0.0143352493	-0.3278621941	 0.09536
H	-4.2072066291	 0.1118383798	-2.3621842829	 0.290093
43.7077	101.4337	123.5983	167.3441	202.4346	208.7706	233.6105	239.7935	270.2481	293.4912	359.5437	377.0356	479.4084	504.8033	642.6091	690.8029	766.0799	810.6979	851.2019	925.7897	963.0905	974.4593	999.5831	1019.0555	1036.0039	1055.0998	1094.063	1115.7426	1124.4299	1133.6374	1173.0823	1183.7028	1190.3642	1230.3768	1275.8832	1299.5796	1331.4675	1338.3107	1376.47	1391.7149	1406.3685	1411.1135	1416.9562	1456.8823	1474.2643	1488.9536	1499.3236	1500.4774	1507.5915	1510.69	1518.1478	2962.8209	2992.2249	2999.6273	3019.1872	3033.1545	3037.8506	3058.2199	3094.0443	3096.0843	3100.3297	3108.4154	3111.0852	3118.4247	3186.3378	3831.9785
CCC(C)N1CC1CO	CC[C@@H](C)N1C[C@H]1CO	
InChI=1S/C7H15NO/c1-3-6(2)8-4-7(8)5-9/h6-7,9H,3-5H2,1-2H3	InChI=1S/C7H15NO/c1-3-6(2)8-4-7(8)5-9/h6-7,9H,3-5H2,1-2H3/t6-,7+,8?/m1/s1
