18
gdb 6340	2.87021	1.52929	1.1652	1.7155	69.43	-0.2474	-0.0379	0.2095	1082.1617	0.150657	-384.987045	-384.977594	-384.97665	-385.022005	32.775	
C	-0.1421687568	 1.1115996068	-1.2208137066	-0.396594
C	 0.3020509518	 0.1917269987	-0.0667170991	-0.268944
C	 1.1982575886	-0.9306222055	-0.5568347103	 0.374361
O	 2.3820486622	-0.9757434531	-0.3121434593	-0.302308
C	 0.5351749233	-2.0128470433	-1.4291428282	-0.383118
C	 1.0113068846	-1.8781732644	-2.8836914333	 0.387413
C	 2.3749988081	-2.455186693	-3.1839902389	-0.479601
O	 0.3266122193	-1.320702659	-3.7087451017	-0.293741
H	 0.7197951001	 1.6238826363	-1.6581434048	 0.134382
H	-0.6368142489	 0.5529982998	-2.0201059191	 0.152651
H	-0.8357070593	 1.8710319233	-0.8501360236	 0.124617
H	 0.8563494884	 0.7560131975	 0.6874117132	 0.122777
H	-0.5819588677	-0.2490029593	 0.4110032187	 0.115311
H	 0.8454186769	-2.9812946846	-1.0253469028	 0.135717
H	-0.5521384389	-1.9304571448	-1.4131125751	 0.125693
H	 2.3260743249	-3.5495113439	-3.1283575355	 0.140942
H	 2.701759248	-2.157251498	-4.1807727848	 0.139889
H	 3.0876409754	-2.1301197537	-2.4192391887	 0.170555
51.3562	71.7784	92.4033	163.0424	185.7383	225.3719	236.7199	341.9292	412.3976	487.9486	523.6506	572.0768	645.8292	787.6019	790.9626	829.3244	897.9874	945.9826	998.0501	1030.0794	1067.0752	1090.5504	1147.6507	1185.7934	1230.7173	1265.4788	1288.0669	1330.7851	1383.949	1418.0215	1459.9664	1470.8979	1474.4391	1478.4079	1501.811	1508.6092	1791.4289	1818.9167	3033.1945	3035.7537	3046.5483	3064.4868	3101.6458	3102.0299	3120.0743	3127.7421	3139.071	3157.2666
CCC(=O)CC(C)=O	CCC(=O)CC(=O)C	
InChI=1S/C6H10O2/c1-3-6(8)4-5(2)7/h3-4H2,1-2H3	InChI=1S/C6H10O2/c1-3-6(8)4-5(2)7/h3-4H2,1-2H3
