23
gdb 83787	2.21273	1.67102	1.42313	0.2293	87.88	-0.2346	0.0723	0.3068	1090.1127	0.20918	-351.137176	-351.129059	-351.128114	-351.169269	33.413	
C	-0.2120978683	 1.5202731917	-0.0453599887	-0.424608
C	-0.0062123875	 0.018809899	-0.0006000405	-0.015979
C	 1.2313352438	-0.7426231099	-0.4227370758	-0.047482
C	 2.588516491	-0.1146438354	-0.7090691307	-0.212196
C	 3.1147293864	 0.9006348014	 0.3345828676	-0.245324
C	 2.9227519466	 0.4547412092	 1.7805132687	-0.017041
C	 1.8376089813	 1.0596776558	 2.6418154236	-0.315015
C	 1.6827236712	-0.3477222741	 2.1179834831	-0.007358
C	 0.7568889437	-0.8100391171	 1.0219072982	-0.064428
H	 0.6936757676	 2.0999889617	 0.1225937377	 0.122224
H	-0.599794709	 1.8098074738	-1.0289751257	 0.112119
H	-0.9507103669	 1.8345647752	 0.7010432553	 0.117607
H	-0.9195524033	-0.4931403698	-0.3002816636	 0.080291
H	 1.0474288174	-1.6207611424	-1.0368681868	 0.074085
H	 3.310524162	-0.9394664949	-0.7770651016	 0.097085
H	 2.5838739265	 0.3622364303	-1.6973978725	 0.093952
H	 4.18187986	 1.055983147	 0.1454326619	 0.097245
H	 2.650885074	 1.8775131694	 0.1719138272	 0.107204
H	 3.8329054339	 0.1603524785	 2.2936814497	 0.077709
H	 2.0313660648	 1.178709809	 3.7027143487	 0.103385
H	 1.2310387697	 1.8495994466	 2.2169390726	 0.111822
H	 1.8281750766	-1.1192763548	 2.8684751564	 0.078264
H	 0.2342418185	-1.7196199501	 1.3030336851	 0.076439
144.1622	170.2295	191.4159	228.5356	281.6232	386.161	404.694	462.1205	509.4588	620.2063	656.6917	708.6969	739.0207	765.5097	776.3151	830.7996	896.7179	907.4064	939.7024	959.5813	970.9362	999.5371	1024.8482	1061.9733	1071.9948	1094.421	1122.7253	1129.2519	1133.83	1141.9819	1156.3265	1162.062	1234.175	1243.3129	1257.6709	1298.9651	1343.8454	1365.9095	1385.5791	1388.006	1400.2537	1417.255	1419.747	1456.4063	1480.2115	1488.1502	1498.4319	1508.0633	1514.7901	3009.8415	3031.6027	3038.5706	3051.1036	3079.2098	3079.8575	3101.9855	3122.1666	3130.727	3137.4753	3143.9576	3152.6204	3162.0164	3228.7758
CC1C2CCC3CC3C12	C[C@H]1[C@H]2CC[C@H]3C[C@H]3[C@@H]12	
InChI=1S/C9H14/c1-5-7-3-2-6-4-8(6)9(5)7/h5-9H,2-4H2,1H3	InChI=1S/C9H14/c1-5-7-3-2-6-4-8(6)9(5)7/h5-9H,2-4H2,1H3/t5-,6-,7+,8+,9-/m0/s1
