18
gdb 13023	2.51284	2.47518	1.59263	2.3404	66.43	-0.2257	0.0664	0.2921	864.0145	0.153628	-384.923889	-384.91619	-384.915246	-384.955347	30.001	
C	-0.0159964121	 1.5727462207	-0.0396920431	-0.415151
C	 0.0306636684	 0.0467309585	 0.0234932141	-0.050878
C	 0.7938961461	-0.6082495247	-1.1486345103	-0.105498
O	 1.3384191446	-1.8396131424	-0.6674560596	-0.257671
C	 1.5014697688	-1.7171444209	 0.7196399397	 0.06751
C	 2.2517027129	-0.5137818632	 1.2663274155	-0.397648
C	 0.7318434464	-0.5520312981	 1.2416517735	 0.360175
O	 0.0165606602	-0.6489813883	 2.4342679237	-0.472174
H	 0.9923454585	 2.0010300018	-0.0311962111	 0.11738
H	-0.5209306516	 1.9204941587	-0.9470762248	 0.119783
H	-0.5640927253	 1.9832246677	 0.8152147018	 0.112728
H	-0.993884916	-0.3448067521	 0.0536260129	 0.089345
H	 0.1557380089	-0.836335193	-2.0065648443	 0.112868
H	 1.602194437	 0.0525682363	-1.497577834	 0.092797
H	 1.5566908408	-2.6722367941	 1.2272614801	 0.111907
H	 2.7091904373	-0.6514238455	 2.240380152	 0.116214
H	 2.7986396318	 0.1370898868	 0.5922128885	 0.114865
H	 0.0831901334	 0.1963728518	 2.8916285352	 0.283448
135.5835	212.8326	223.9026	245.5682	294.4405	338.3947	383.0076	455.8566	500.898	579.849	662.1303	692.6005	827.1019	879.0335	910.3048	933.1449	952.0135	987.8447	1002.0339	1017.3013	1057.7658	1094.5025	1115.7479	1147.4263	1166.4982	1215.2245	1250.0297	1268.6369	1315.7001	1328.9882	1356.3653	1393.8953	1408.8408	1415.8464	1482.5038	1494.2986	1502.4979	1523.479	2984.504	3027.6978	3031.3635	3087.1613	3094.8145	3098.7864	3128.8619	3194.4931	3220.1259	3794.8575
CC1COC2CC12O	C[C@H]1CO[C@H]2C[C@@]12O	
InChI=1S/C6H10O2/c1-4-3-8-5-2-6(4,5)7/h4-5,7H,2-3H2,1H3	InChI=1S/C6H10O2/c1-4-3-8-5-2-6(4,5)7/h4-5,7H,2-3H2,1H3/t4-,5-,6+/m0/s1
