22
gdb 107627	2.44767	1.50333	1.12347	2.1322	81.46	-0.2268	0.0644	0.2912	1184.0914	0.194754	-404.335564	-404.326409	-404.325465	-404.369252	35.338	
C	-0.4025656974	 1.5049651498	-0.2040434552	-0.374867
C	 0.1029171545	 0.0670078052	-0.0279216842	-0.283944
C	 0.8289255993	-0.4703930155	-1.2421284311	 0.367217
C	 0.0828707095	-1.053732152	-2.3894707523	-0.289933
N	 0.8170679576	-1.9325833064	-1.4651796912	-0.147102
C	 2.1536074993	-2.3197255837	-1.9605984989	-0.155481
C	 2.8842116943	-1.0381680361	-2.4085593134	-0.286051
C	 2.2159231283	 0.0757804164	-1.571641282	 0.063872
O	 2.108941752	 1.3229705582	-2.247749816	-0.43404
H	 0.417905575	 2.1890456562	-0.4344553882	 0.130118
H	-1.1197302827	 1.5680842399	-1.0291763244	 0.1155
H	-0.9023736284	 1.8544140054	 0.7046817298	 0.10472
H	 0.7745437022	 0.0132891175	 0.8400133791	 0.089476
H	-0.7349720858	-0.6035148535	 0.1911515643	 0.104234
H	-0.9981862942	-1.1427504729	-2.3266176621	 0.111241
H	 0.4620219389	-0.9040271182	-3.396643967	 0.112757
H	 2.6806263339	-2.7976029004	-1.1273472656	 0.106926
H	 2.0609764563	-3.063419421	-2.7586055855	 0.107024
H	 3.9649231469	-1.0956251428	-2.251955539	 0.096193
H	 2.719035988	-0.8192707302	-3.4677626151	 0.113779
H	 2.7581835904	 0.2125255637	-0.6220366912	 0.06478
H	 2.9952587923	 1.6847208304	-2.3469194506	 0.283583
70.5158	120.6352	181.4708	201.3135	252.2589	276.2668	319.8071	324.6604	409.524	454.0861	530.4657	591.026	657.0496	692.2839	782.9054	815.5931	845.5473	892.1439	926.7991	954.4876	982.0464	983.8364	1018.6799	1067.4403	1091.2626	1099.7477	1106.5992	1113.6509	1168.8814	1203.1843	1230.5562	1238.0476	1252.551	1291.7197	1305.2565	1347.3779	1358.6183	1365.7734	1399.0438	1414.0664	1438.467	1482.1604	1490.9347	1494.9137	1501.7254	1509.7583	1522.0347	2966.6611	3013.9415	3038.9722	3039.4888	3055.8605	3066.8517	3079.3115	3102.4537	3103.4465	3110.0968	3124.9581	3191.9581	3816.1564
CCC12CN1CCC2O	CC[C@]12CN1CC[C@H]2O	
InChI=1S/C7H13NO/c1-2-7-5-8(7)4-3-6(7)9/h6,9H,2-5H2,1H3	InChI=1S/C7H13NO/c1-2-7-5-8(7)4-3-6(7)9/h6,9H,2-5H2,1H3/t6-,7-,8?/m1/s1
