15
gdb 49579	2.20022	1.73559	1.23948	3.7084	68.99	-0.2607	-0.0477	0.2131	1011.0977	0.11216	-416.769219	-416.761303	-416.760358	-416.802297	28.504	
O	-0.4950475901	 0.6546940117	-0.8115222253	-0.230885
C	 0.0998111283	 1.003876211	 0.1740437441	 0.140249
C	 1.2645991042	 1.9702089622	 0.156257011	-0.139351
C	 1.509399185	 2.8028699501	-1.0937903371	-0.016442
C	 0.4392843144	 3.7905805982	-1.3021736463	-0.242043
N	 1.4932733564	 4.1206721189	-0.3192037784	-0.130881
C	 1.1718567393	 3.337877592	 0.9312229371	-0.141541
C	-0.0865429666	 3.6723505147	 1.5896741396	 0.307245
N	-1.0921808605	 3.9208520267	 2.1031488239	-0.322138
H	-0.1686162143	 0.6202712377	 1.1832170462	 0.098437
H	 2.1526216859	 1.4298148913	 0.5002874867	 0.125513
H	 2.2735995645	 2.5977792766	-1.8337228008	 0.118046
H	 0.507315433	 4.4118895951	-2.1886329807	 0.14091
H	-0.573476343	 3.5971238466	-0.9605930485	 0.150292
H	 1.9884792434	 3.4620077973	 1.6443782283	 0.14259
71.9992	115.4166	136.9025	190.5241	258.4327	356.408	415.4125	530.5691	581.2699	676.1087	732.3695	749.3547	795.2257	810.6474	916.6307	965.7444	989.8202	1039.8575	1052.7992	1073.3176	1077.653	1119.4167	1141.5329	1195.5687	1224.9025	1256.5632	1341.0287	1346.013	1368.0289	1422.7052	1507.3121	1828.2197	2351.7303	2892.3307	3063.5301	3100.3453	3128.3196	3189.2133	3219.5051
O=CC1C2CN2C1C#N	O=C[C@H]1[C@H]2CN2[C@H]1C#N	
InChI=1S/C6H6N2O/c7-1-5-4(3-9)6-2-8(5)6/h3-6H,2H2	InChI=1S/C6H6N2O/c7-1-5-4(3-9)6-2-8(5)6/h3-6H,2H2/t4-,5+,6-,8?/m1/s1
