18
gdb 72569	2.45683	1.90105	1.49179	3.7762	70.46	-0.2471	0.0248	0.2719	941.6701	0.150696	-439.13992	-439.13269	-439.131746	-439.171081	29.878	
O	 0.0476087636	 1.3773730649	 0.0465950862	-0.503481
C	-0.0098343835	-0.0087507859	 0.0438435428	 0.328354
C	 0.7048101222	-0.722869512	 1.2414753162	-0.262616
C	 0.1741804307	-2.1833600312	 1.1543188143	-0.21619
C	-0.7454251051	-2.1143355307	-0.0960905946	-0.018596
C	-1.3826585599	-0.7168123526	 0.0516903179	-0.26565
N	 0.0921859051	-1.8826329729	-1.2877326008	-0.305708
C	 0.6166036147	-0.6218381257	-1.2146257244	 0.369744
O	 1.4190668146	-0.0708293619	-1.940423152	-0.411889
H	 0.6688049806	 1.6119465768	-0.6608195863	 0.290415
H	 1.7920014006	-0.6483967951	 1.1625492462	 0.114086
H	 0.4022595222	-0.2249125246	 2.1661127578	 0.113954
H	 0.9683861007	-2.9228749232	 1.0249530324	 0.101664
H	-0.4002982077	-2.4644300239	 2.0416285829	 0.107895
H	-1.4196226642	-2.957886098	-0.2390040179	 0.083607
H	-1.9299478381	-0.5885803034	 0.9887691405	 0.107427
H	-2.0133041149	-0.4412212842	-0.7958720898	 0.114212
H	 0.5398637985	-2.6183062163	-1.8130927113	 0.252774
151.3991	231.043	280.9779	348.3409	409.7378	427.7949	454.4961	476.9165	532.5412	583.6175	653.1318	735.8682	748.9266	804.6145	823.7518	876.1474	899.6688	931.3253	973.6352	982.1484	1002.7896	1060.3457	1101.3894	1138.9792	1167.7527	1184.2175	1224.0233	1243.2102	1250.1091	1272.0758	1306.6529	1345.6949	1362.195	1414.5942	1427.9854	1487.2527	1489.3732	1513.8174	1833.4634	3057.3292	3067.773	3071.9669	3098.7384	3118.8344	3124.4104	3132.211	3625.4819	3699.2286
OC12CCC(C1)NC2=O	O[C@@]12CC[C@@H](C1)NC2=O	
InChI=1S/C6H9NO2/c8-5-6(9)2-1-4(3-6)7-5/h4,9H,1-3H2,(H,7,8)	InChI=1S/C6H9NO2/c8-5-6(9)2-1-4(3-6)7-5/h4,9H,1-3H2,(H,7,8)/t4-,6-/m0/s1
