13
gdb 25867	4.39654	1.09221	0.876	5.4991	62.45	-0.2327	-0.0442	0.1884	1201.393	0.090047	-489.970397	-489.962525	-489.961581	-490.003332	28.739	
N	 0.0406183269	 1.3525562221	 0.0499511183	-0.540589
C	 0.0225630584	-0.0130197329	 0.0669510149	 0.328972
O	 1.0299476567	-0.6973621673	 0.128815586	-0.372699
C	-1.3056395318	-0.6548520209	 0.0401955052	 0.237679
C	-2.5794386312	-0.2221123686	 0.0907547512	-0.127645
O	-3.4383293285	-1.2810626116	 0.050662475	-0.208118
C	-2.6841619635	-2.4638370282	-0.02258976	 0.505686
O	-3.1642624041	-3.5582751043	-0.0664600056	-0.387467
N	-1.3800919951	-2.0432031427	-0.0317041303	-0.423646
H	 0.9450575888	 1.7867787652	-0.0449652817	 0.271675
H	-0.7600304727	 1.880338532	-0.2538576409	 0.263955
H	-3.0182932922	 0.7577465946	 0.1730236915	 0.15881
H	-0.5737398517	-2.6454112975	-0.0487054837	 0.293387
62.2965	128.8445	162.6907	289.9478	303.0141	368.2179	459.5851	500.3302	516.3262	566.6399	609.7239	655.525	721.2897	750.3922	772.7881	792.4854	880.1578	1002.4988	1088.7	1092.1647	1178.9057	1194.6509	1336.0816	1368.1256	1458.9932	1623.1414	1668.0538	1774.3084	1918.5921	3282.5369	3596.7442	3677.2733	3724.8892
NC(=O)C1=COC(=O)N1	NC(=O)c1coc(=O)[nH]1	
InChI=1S/C4H4N2O3/c5-3(7)2-1-9-4(8)6-2/h1H,(H2,5,7)(H,6,8)	InChI=1S/C4H4N2O3/c5-3(7)2-1-9-4(8)6-2/h1H,(H2,5,7)(H,6,8)
