21
gdb 117760	2.3184	0.99131	0.82727	0.3627	80.92	-0.2622	0.0358	0.298	1487.8201	0.178291	-424.185547	-424.174269	-424.173325	-424.221825	40.813	
C	-0.0211472575	 1.6673791754	-0.048036179	-0.39458
C	 0.0194066066	 0.1393345505	 0.0022193415	-0.184278
C	-1.3737382419	-0.5270114963	 0.0308180426	 0.133704
O	-2.0052306123	-0.1550901655	-1.2037721495	-0.450017
C	-1.281831641	-2.0689398523	 0.1435377263	-0.190109
C	-0.5480122442	-2.7465736531	-1.0097759062	-0.097582
O	-0.7689730259	-4.1448066973	-0.8726993501	-0.425982
C	-2.1689508139	-0.0300144859	 1.1660193272	 0.324161
C	-2.853720628	 0.3404856617	 2.0825350188	-0.471266
H	 0.9919961202	 2.0748844582	-0.1156551889	 0.107012
H	-0.5877708037	 2.0066314717	-0.9183309043	 0.133668
H	-0.493831532	 2.0805787306	 0.8475261719	 0.126081
H	 0.541322242	-0.2409418665	-0.8820303994	 0.109218
H	 0.5785811486	-0.2022600658	 0.8801035841	 0.10301
H	-2.942456824	-0.3642586533	-1.127742193	 0.284701
H	-0.8113623907	-2.3369694543	 1.0954011618	 0.113134
H	-2.3001311837	-2.4735698981	 0.1748651039	 0.106173
H	-0.94058168	-2.365265902	-1.9626612612	 0.102129
H	 0.5272077222	-2.5160660414	-0.9746323357	 0.087675
H	-0.3201405211	-4.5889360304	-1.5978703257	 0.284718
H	-3.4512172797	 0.6802429838	 2.8924565549	 0.198431
75.0393	93.2226	116.9916	126.6959	156.773	222.3641	227.9591	259.717	282.344	292.4265	341.0423	366.3986	414.1093	469.1778	569.5779	622.2654	633.2708	664.3284	733.9075	788.2136	797.7986	940.9845	962.8217	1020.1292	1028.8943	1050.3649	1074.1232	1116.523	1148.7519	1179.6254	1229.619	1248.172	1301.8285	1318.8745	1338.867	1363.3304	1384.6867	1409.9109	1458.1436	1473.6844	1484.1433	1495.4476	1511.6777	1534.1829	2226.9206	2983.9305	3025.3374	3041.828	3044.8833	3047.6263	3084.4899	3089.315	3114.2314	3131.8033	3499.5325	3812.2611	3830.2362
CCC(O)(CCO)C#C	CC[C@@](O)(CCO)C#C	
InChI=1S/C7H12O2/c1-3-7(9,4-2)5-6-8/h1,8-9H,4-6H2,2H3	InChI=1S/C7H12O2/c1-3-7(9,4-2)5-6-8/h1,8-9H,4-6H2,2H3/t7-/m1/s1
