15
gdb 129805	3.35557	1.62201	1.11483	4.4574	68.29	-0.1981	0.0096	0.2077	1026.7494	0.115854	-450.103946	-450.096609	-450.095665	-450.135926	27.131	
N	 0.0298579109	 1.4364324585	 0.2034198104	-0.603111
C	-0.0684386299	 0.0499574066	 0.0331952388	 0.162344
C	-1.1643174178	-0.7813023618	-0.0021538815	 0.375445
O	-2.5174614735	-0.7650066086	 0.0631287346	-0.285116
C	-2.9365216957	-2.1156979731	-0.2701462471	-0.109167
C	-1.6959998512	-3.0357099511	-0.0647202633	-0.196097
N	-0.6603851158	-2.023688086	-0.1228611187	 0.033526
N	 0.6845262882	-2.025949673	-0.1265804858	-0.197146
N	 1.0309835258	-0.7599494078	-0.0515871117	-0.247299
H	 1.0033170426	 1.7116254498	 0.1374053717	 0.252796
H	-0.5064077319	 1.9544326595	-0.4829162871	 0.246634
H	-3.778128166	-2.3750305049	 0.3728385681	 0.140173
H	-3.2595161113	-2.1273810887	-1.3165660554	 0.133574
H	-1.6951755911	-3.5417933682	 0.9061259661	 0.144636
H	-1.5936628133	-3.779126221	-0.8573796293	 0.148808
123.5814	145.6316	177.1743	254.8508	275.0968	372.3011	508.1672	619.4244	641.229	667.1491	700.05	769.3973	812.5814	854.1607	876.9717	944.5646	997.6921	1095.656	1117.1314	1138.4552	1197.6287	1230.7281	1242.4734	1270.4841	1301.0951	1340.5131	1376.3906	1412.3621	1502.6746	1519.6968	1548.6025	1643.4116	1693.5319	3050.5042	3054.4468	3116.3848	3135.6539	3518.3445	3607.84
NC1=C2OCCN2N=N1	Nc1c2OCCn2nn1	
InChI=1S/C4H6N4O/c5-3-4-8(7-6-3)1-2-9-4/h1-2,5H2	InChI=1S/C4H6N4O/c5-3-4-8(7-6-3)1-2-9-4/h1-2,5H2
