18
gdb 16967	3.2843	2.12811	1.95682	1.125	65.67	-0.2434	0.0698	0.3132	785.0114	0.156682	-384.947579	-384.940947	-384.940003	-384.978156	26.817	
O	 0.1457789756	 1.3937874232	-0.1750422998	-0.447445
C	 0.0226942326	-0.0055031567	-0.0132195956	 0.163187
C	 0.6625823408	-0.5834910679	 1.2952297823	-0.263147
C	-0.5113780106	-1.3647443804	 1.9082019756	 0.114088
C	-1.2064889072	-1.9432751221	 0.6657438472	-0.237129
C	-1.436907358	-0.5410438846	 0.0650997199	-0.068953
C	-2.1360269427	 0.131125822	 1.2525635463	-0.086045
O	-1.4648583805	-0.409297483	 2.4073886465	-0.285298
H	-0.0545826286	 1.8146991208	 0.6671365466	 0.283938
H	 0.5069140571	-0.4289335983	-0.8982511244	 0.087327
H	 1.5239414212	-1.2247458159	 1.0847130476	 0.100287
H	 0.9954605613	 0.2167313685	 1.9627637758	 0.102283
H	-0.2617354756	-2.0484424207	 2.7200304668	 0.074165
H	-0.5559310304	-2.5786669911	 0.0585898244	 0.09985
H	-2.1284261216	-2.4806147267	 0.9012065195	 0.105119
H	-1.986668495	-0.4757044569	-0.8741319313	 0.070712
H	-2.0469662241	 1.2243200987	 1.2441819742	 0.089098
H	-3.2051421043	-0.1154067088	 1.2956944483	 0.097964
108.5488	251.2714	289.1246	367.3279	421.6541	447.8878	529.9482	570.8067	756.691	776.549	815.0343	852.4426	893.4854	935.5918	945.673	954.0771	965.2422	987.0849	1034.6209	1044.4668	1072.2871	1103.989	1134.8054	1171.6207	1181.9452	1211.1017	1249.4787	1272.7324	1288.7177	1308.5728	1324.3048	1331.1906	1354.5615	1382.9383	1434.8711	1475.3153	1497.2416	1537.9299	3010.866	3043.2325	3050.1179	3060.4753	3064.7339	3100.562	3114.2783	3117.5168	3119.4391	3813.1238
OC1CC2CC1CO2	O[C@H]1C[C@@H]2C[C@H]1CO2	
InChI=1S/C6H10O2/c7-6-2-5-1-4(6)3-8-5/h4-7H,1-3H2	InChI=1S/C6H10O2/c7-6-2-5-1-4(6)3-8-5/h4-7H,1-3H2/t4-,5-,6-/m0/s1
