20
gdb 82567	3.17133	1.39206	1.18877	2.714	78.14	-0.2343	0.0698	0.304	1104.9938	0.17128	-403.077559	-403.069422	-403.068478	-403.110206	31.566	
C	-0.2286838786	 1.5213715986	-0.0232394394	-0.422538
C	 0.0468860329	 0.0351412578	-0.0268604148	 0.025001
C	 0.6009541506	-0.7443489004	-1.150478395	-0.045905
C	 1.658879847	 0.0264156657	-1.9349813439	-0.343803
C	 2.3988061521	 0.2035604906	-0.5904956742	 0.303442
C	 3.8487128072	-0.285229945	-0.4329405423	-0.126358
O	 4.2954119808	 1.0237007109	-0.0215497803	-0.277716
C	 2.948787426	 1.5318210831	-0.0346380939	-0.127947
N	 1.3758669121	-0.5968097897	 0.1629362126	-0.191266
H	 0.4210150082	 2.084732026	-0.6961339923	 0.125963
H	-1.2618315759	 1.6999845451	-0.3399523616	 0.124015
H	-0.1158478992	 1.9352427576	 0.984155711	 0.13011
H	-0.6794181115	-0.5229821605	 0.5623293534	 0.098053
H	 0.1860373393	-1.7009887165	-1.4523311232	 0.09503
H	 2.2181152124	-0.5994571808	-2.6339360455	 0.113896
H	 1.3276981997	 0.9263165827	-2.4628461006	 0.105606
H	 3.969086565	-1.035895631	 0.3576386346	 0.111906
H	 4.3513766275	-0.6244756051	-1.3475469625	 0.097114
H	 2.8458784218	 2.4113132166	-0.6836652004	 0.099508
H	 2.5913519626	 1.7804411241	 0.9728090683	 0.10589
88.3598	136.0817	188.5097	228.3868	293.7989	338.5083	356.8603	452.4241	470.5619	599.0624	710.9044	778.3172	817.0503	838.226	860.2958	911.0781	928.7807	960.1155	978.0468	995.5802	1005.7045	1039.3837	1074.7465	1104.7339	1121.6983	1144.7912	1159.1676	1169.1191	1190.2295	1218.926	1227.3779	1269.929	1281.4348	1306.0816	1357.0614	1381.6998	1417.1706	1441.9459	1486.6526	1495.4542	1500.3397	1504.4609	1523.9144	3001.2075	3014.4333	3040.0779	3048.2089	3051.0895	3062.7585	3097.563	3107.0092	3114.3022	3134.3875	3159.2505
CC1C2CC3(COC3)N12	C[C@H]1[C@H]2CC3(COC3)N12	
InChI=1S/C7H11NO/c1-5-6-2-7(8(5)6)3-9-4-7/h5-6H,2-4H2,1H3	InChI=1S/C7H11NO/c1-5-6-2-7(8(5)6)3-9-4-7/h5-6H,2-4H2,1H3/t5-,6+,8?/m0/s1
