21
gdb 87829	2.78937	1.34697	1.15311	2.2214	83.49	-0.2228	0.0693	0.2921	1183.4147	0.182192	-383.206216	-383.197234	-383.19629	-383.239456	34.813	
C	-0.1332214593	 1.4836163982	-0.0445325386	-0.391713
C	 0.0170033779	-0.0131333208	 0.0695251339	-0.069586
N	 1.3929644233	-0.5564572097	-0.070374538	-0.401982
C	 0.6924510001	-0.665040761	 1.2078837474	 0.346352
C	 1.2859290626	-0.1015727969	 2.5213958235	-0.301865
C	 0.8778430303	-1.4212267089	 3.1918491662	-0.10742
N	-0.5947118448	-1.5387386417	 3.0134352017	-0.371778
C	 0.3238757542	-1.9648264963	 1.9181137638	 0.248551
C	 0.2940657375	-3.3430126975	 1.3363540294	-0.523122
H	 0.7063406492	 1.9921781121	 0.4366499002	 0.125204
H	-0.1594497665	 1.7964214259	-1.09406668	 0.115982
H	-1.0607607185	 1.816492581	 0.4334296543	 0.120116
H	-0.7823146709	-0.5895707259	-0.3964528723	 0.076926
H	 1.3727373365	-1.4458455727	-0.5654053604	 0.224201
H	 2.3673146213	 0.0300764473	 2.440608415	 0.112253
H	 0.8236817457	 0.7981009698	 2.9351455246	 0.10703
H	 1.3792765995	-1.9358633759	 4.0027318129	 0.091517
H	-0.8819936522	-2.3908724868	 3.4979129994	 0.219752
H	-0.5751406015	-3.4854129954	 0.6826308117	 0.129194
H	 1.1953308655	-3.5465626855	 0.7471944498	 0.127492
H	 0.2405055902	-4.0988578593	 2.1272205556	 0.122897
109.7073	136.311	180.0043	192.6561	217.2872	250.54	325.597	420.7458	442.9062	479.3435	490.7163	578.1558	657.0384	748.7029	799.7968	848.2218	862.4326	899.346	923.7003	935.7815	998.8613	1014.4838	1029.1579	1037.2372	1064.1323	1087.6518	1096.7517	1121.2153	1135.9534	1178.3673	1216.8267	1227.598	1242.9148	1304.7903	1325.013	1361.322	1404.2293	1410.0942	1438.9409	1464.3742	1481.1354	1485.9648	1491.3612	1496.5681	1510.9292	3020.3838	3033.34	3063.0098	3080.0826	3094.0513	3095.9377	3099.7786	3123.0058	3124.0451	3185.402	3446.7899	3482.2448
CC1NC11CC2NC12C	C[C@H]1N[C@]21C[C@H]1N[C@@]21C	
InChI=1S/C7H12N2/c1-4-7(8-4)3-5-6(7,2)9-5/h4-5,8-9H,3H2,1-2H3	InChI=1S/C7H12N2/c1-4-7(8-4)3-5-6(7,2)9-5/h4-5,8-9H,3H2,1-2H3/t4-,5-,6-,7+/m1/s1
