22
gdb 113552	2.76181	1.11966	1.0172	2.7248	83.47	-0.2379	0.0815	0.3195	1323.7779	0.193565	-404.310467	-404.301124	-404.30018	-404.344615	35.78	
C	-0.2144923757	 1.5083942901	-0.1749516802	-0.377053
C	-0.0860418687	 0.0655542506	 0.3062417485	-0.119279
N	-1.362330604	-0.6340780839	 0.1733763339	-0.133225
C	-1.6107468467	-1.3288688206	-1.0987735284	-0.339243
C	-1.3840070049	-2.0934315197	 0.1465320212	 0.301688
C	-0.2639710983	-3.0216221734	 0.6319072596	-0.316714
C	-1.1614581816	-3.3631673162	 1.8597860388	-0.249162
C	-2.3888463014	-2.7637752827	 1.0986191076	 0.106673
O	-3.2662037617	-1.9035430877	 1.7606128559	-0.441583
H	 0.7306872438	 2.0438590139	-0.0438397542	 0.114333
H	-0.4801262833	 1.543861633	-1.2364289017	 0.121242
H	-0.9933270166	 2.0332074905	 0.385316125	 0.127066
H	 0.7194320474	-0.4425381049	-0.2493302879	 0.088713
H	 0.1966704307	 0.0485253417	 1.3658869112	 0.10554
H	-2.6116266918	-1.2274304649	-1.5113093342	 0.120049
H	-0.8078695471	-1.3149519613	-1.8358705981	 0.10944
H	-0.1184218239	-3.8737806129	-0.0381599949	 0.110139
H	 0.7106781416	-2.5722846552	 0.834228367	 0.107477
H	-1.2212802258	-4.4090389667	 2.1672157643	 0.098286
H	-0.9180274574	-2.7446927532	 2.7276045593	 0.106497
H	-2.9683976601	-3.553026567	 0.6033459604	 0.077659
H	-2.9183166846	-1.0138287794	 1.5843628469	 0.281457
77.2867	98.1404	153.0716	167.9004	230.5607	249.0761	310.6814	400.9976	442.5213	485.2237	500.693	550.8259	585.4685	725.8548	771.8751	776.0786	816.179	870.7382	897.0304	923.4904	942.6927	978.5243	1054.5806	1077.1111	1098.5135	1107.1045	1114.7133	1141.9917	1169.1823	1179.2789	1202.5686	1218.442	1227.429	1262.1283	1272.1971	1311.3742	1358.7815	1386.7876	1404.5095	1413.3636	1447.2508	1474.3344	1488.3738	1489.6738	1493.6444	1504.7895	1518.	2964.9744	3027.1663	3040.3302	3046.3087	3060.7742	3066.6617	3084.1617	3108.0969	3110.4108	3119.938	3128.5361	3172.2831	3664.5671
CCN1CC11CCC1O	CCN1C[C@]21CC[C@H]2O	
InChI=1S/C7H13NO/c1-2-8-5-7(8)4-3-6(7)9/h6,9H,2-5H2,1H3	InChI=1S/C7H13NO/c1-2-8-5-7(8)4-3-6(7)9/h6,9H,2-5H2,1H3/t6-,7-,8?/m1/s1
