18
gdb 103519	3.02879	1.33178	1.2651	1.4919	72.44	-0.2346	0.0116	0.2462	1069.6107	0.147996	-439.05149	-439.043244	-439.0423	-439.083941	32.368	
O	-0.0772554641	 1.4484379867	 0.1028688653	-0.440544
C	 0.0313401626	 0.0274966195	 0.0006901589	-0.129777
C	-1.405012153	-0.5007982529	-0.0399748434	 0.395905
O	-2.0980288481	-0.0356893251	 1.1149165401	-0.492731
C	-2.1309618651	-0.1333792435	-1.3305934617	-0.131675
C	-2.6202024291	-1.2045640577	-1.9578859875	-0.063606
C	-2.2552176286	-2.4553155387	-1.2304862847	-0.084851
N	-0.7753973277	-2.6678970112	-1.1684431623	-0.342913
C	-1.4816200438	-2.0273942818	-0.0399608855	-0.11749
H	 0.7927741277	 1.8115505009	 0.2883397351	 0.294894
H	 0.5724653013	-0.2781098008	-0.9013626288	 0.118609
H	 0.5401531589	-0.3890731474	 0.8822482401	 0.089558
H	-1.8222521545	 0.8836664861	 1.2267747251	 0.285217
H	-2.192886695	 0.8936804455	-1.6696825907	 0.105091
H	-3.1718256665	-1.197962232	-2.8905754795	 0.100126
H	-2.9018528717	-3.3257410335	-1.2290912178	 0.092051
H	-0.5963911091	-3.6397795694	-0.9176396417	 0.22816
H	-1.5476268843	-2.5260967848	 0.920457039	 0.093979
118.24	148.9497	186.7841	245.5985	299.4058	372.5157	396.4337	406.9288	446.6969	475.7531	615.0991	679.1382	750.6252	781.7163	805.5132	853.2693	868.0624	924.574	953.7158	957.7698	973.688	1031.3877	1064.152	1082.649	1113.3072	1123.352	1136.5517	1152.3782	1187.0759	1236.1834	1255.7405	1274.598	1320.643	1369.3776	1398.2093	1430.3377	1442.0369	1510.7312	1661.915	2995.9598	3070.0493	3171.2001	3181.5788	3194.4583	3219.1785	3467.5535	3766.7528	3844.7564
OCC1(O)C=CC2NC12	OC[C@@]1(O)C=C[C@H]2N[C@@H]12	
InChI=1S/C6H9NO2/c8-3-6(9)2-1-4-5(6)7-4/h1-2,4-5,7-9H,3H2	InChI=1S/C6H9NO2/c8-3-6(9)2-1-4-5(6)7-4/h1-2,4-5,7-9H,3H2/t4-,5-,6+/m1/s1
