21
gdb 90156	3.29678	1.43222	1.29133	1.7064	81.17	-0.2202	0.0739	0.2942	1089.2518	0.183926	-387.057797	-387.049961	-387.049017	-387.089546	32.103	
C	-0.0726319444	 1.5433915157	-0.034543059	-0.403625
C	 0.1104615545	 0.0418637721	 0.0258547843	 0.088466
O	 1.1953832566	-0.4426484681	-0.8355657087	-0.349167
C	 1.7202798383	-1.1945794966	 0.2698394441	 0.407743
C	 2.2031600462	-0.3023929937	 1.3645768658	-0.391423
C	 0.7246410347	-0.6438473881	 1.2602506767	 0.156627
C	 0.1590894626	-1.805642455	 2.0530319704	-0.29561
C	 1.1491002659	-2.9811255562	 1.7611184137	-0.219138
C	 1.7494061763	-2.70042143	 0.3486059463	-0.297928
H	 0.8263456545	 2.0706490137	 0.2955079741	 0.12065
H	-0.2968832906	 1.8582562484	-1.0587370284	 0.125696
H	-0.9078252858	 1.8440732668	 0.6073309158	 0.117198
H	-0.8217080673	-0.4655443578	-0.2598480722	 0.075801
H	 2.7374396087	-0.7637494348	 2.1880417877	 0.117629
H	 2.5460307496	 0.6935691667	 1.106366325	 0.117902
H	 0.0508174892	-1.625611015	 3.1277704461	 0.09974
H	-0.8379692285	-2.0488377307	 1.6665418187	 0.101577
H	 1.9492731183	-2.9884107378	 2.5088248324	 0.108414
H	 0.6644051503	-3.9597347671	 1.8184526297	 0.102861
H	 1.0942699867	-3.0933197084	-0.4366685471	 0.114172
H	 2.7350188542	-3.158787674	 0.2195968345	 0.102414
152.5479	208.6524	217.1281	240.6037	286.3105	344.6188	446.6732	488.0037	560.8365	592.2733	633.752	711.2741	756.6444	837.2836	849.474	852.9968	876.8462	909.0614	919.2064	951.5341	974.2863	1013.69	1042.1532	1056.4087	1077.1563	1086.6661	1126.6747	1187.3121	1205.9317	1222.5865	1226.3456	1263.1217	1290.3261	1319.8547	1330.5116	1351.3098	1370.003	1391.7798	1413.959	1479.562	1483.0418	1489.3518	1491.5663	1494.1878	1509.7364	3001.4865	3032.5885	3037.4043	3044.1838	3048.3316	3071.9802	3083.4292	3099.974	3105.9304	3119.8183	3133.958	3221.9684
CC1OC23CC12CCC3	C[C@H]1O[C@@]23C[C@@]12CCC3	
InChI=1S/C8H12O/c1-6-7-3-2-4-8(7,5-7)9-6/h6H,2-5H2,1H3	InChI=1S/C8H12O/c1-6-7-3-2-4-8(7,5-7)9-6/h6H,2-5H2,1H3/t6-,7+,8+/m1/s1
