18
gdb 30921	1.94076	1.87677	1.01764	2.2384	75.57	-0.1885	0.0345	0.2231	1171.5412	0.148408	-435.292508	-435.283052	-435.282107	-435.327431	33.528	
C	-1.2465222218	-0.4036686147	-0.3610913317	-0.326636
N	 0.1810648262	-0.1299989221	-0.1445065846	-0.397009
C	 0.7202824826	-0.6182925527	 1.0547187418	 0.145791
C	 1.1201046996	-1.8599513106	 1.4932223852	 0.298267
O	 1.0540552161	-3.0134583968	 0.7834929925	-0.447547
N	 1.6326232955	-1.814274692	 2.7511364973	-0.361226
C	 1.5459165837	-0.5413906794	 3.105443909	-0.009092
N	 1.0143461814	 0.2286021429	 2.1287686191	-0.016438
C	 0.7489026698	 1.6507788359	 2.1737289818	-0.335402
H	-1.832720962	 0.0895693548	 0.4199658898	 0.123062
H	-1.5481959072	 0.0169812028	-1.3253395626	 0.115267
H	-1.4937044088	-1.4746749616	-0.3487633398	 0.123092
H	 0.719887349	-0.4598955603	-0.9367358279	 0.237025
H	 1.4307260392	-3.6968737262	 1.3508571795	 0.297425
H	 1.8536192933	-0.1336702456	 4.056836245	 0.123516
H	 1.4568375001	 2.1316221146	 2.8521049894	 0.137271
H	 0.8653038837	 2.0617893206	 1.1695332535	 0.156849
H	-0.2701467404	 1.8609370504	 2.5176857825	 0.135783
49.5023	76.959	132.6794	168.6898	178.453	277.6918	283.107	328.2288	362.0662	430.6175	536.5792	589.1222	643.2905	685.0239	725.9386	768.019	787.2502	814.8976	1044.8844	1056.4811	1080.4788	1144.6596	1153.82	1159.1111	1189.1593	1259.0277	1323.362	1361.1442	1405.3856	1436.983	1449.8528	1470.3172	1472.9621	1483.7894	1490.7985	1516.3821	1521.8714	1543.8743	1677.5906	3000.874	3035.5647	3076.2752	3107.7542	3109.6142	3147.9478	3246.4007	3534.7181	3804.3914
CNC1=C(O)N=CN1C	CNc1c(O)ncn1C	
InChI=1S/C5H9N3O/c1-6-4-5(9)7-3-8(4)2/h3,6,9H,1-2H3	InChI=1S/C5H9N3O/c1-6-4-5(9)7-3-8(4)2/h3,6,9H,1-2H3
