20
gdb 88554	3.3078	1.15114	1.08886	1.6589	79.68	-0.249	0.0757	0.3247	1218.5898	0.17103	-403.088898	-403.080416	-403.079472	-403.122222	32.439	
C	-0.1366348508	 1.458095465	-0.2384102598	-0.435084
C	-0.0932977428	-0.0076406206	 0.1093704865	 0.082807
O	 1.1520014759	-0.7014649763	-0.0478782063	-0.266896
C	 0.6013029346	-0.5923237255	 1.2710863184	-0.049336
C	 1.3951233401	 0.1573293663	 2.2783912883	 0.350178
C	 2.4134333955	 1.2864326606	 2.0384173928	-0.300465
C	 3.2743532718	 0.7266870759	 3.2179931616	-0.253087
C	 2.2306842226	-0.3798367773	 3.4173414122	-0.084281
N	 0.9005678348	 0.16518591	 3.6527104301	-0.364028
H	 0.7309158826	 1.996289635	 0.1446853699	 0.134245
H	-0.1645882841	 1.5866017543	-1.3257592741	 0.128304
H	-1.0423965111	 1.9159324821	 0.1740494921	 0.123903
H	-0.9473009173	-0.5772813501	-0.2654329406	 0.087902
H	 0.1929779898	-1.5221526765	 1.6714683761	 0.089967
H	 2.9170793316	 1.1902483129	 1.0752996537	 0.128101
H	 2.0269426219	 2.3062244346	 2.1409565288	 0.093639
H	 4.2429247984	 0.3516438949	 2.8804159895	 0.113856
H	 3.433788044	 1.3845659339	 4.0790479049	 0.098102
H	 2.41814567	-1.4039698247	 3.7210632898	 0.097554
H	 0.9163988925	 1.0930521253	 4.0732886459	 0.22462
64.8996	134.2231	167.8407	192.1166	245.0684	305.7869	390.4323	433.1037	469.0773	534.5064	684.4407	760.4126	777.0627	792.3525	828.8255	865.2195	925.1191	947.057	952.359	980.0589	1023.0209	1033.9229	1056.6038	1087.9278	1096.9318	1131.5119	1162.1091	1169.1534	1178.5273	1216.3539	1230.8214	1252.0376	1278.6697	1288.5711	1323.3876	1367.334	1408.7153	1438.5244	1477.7135	1481.5684	1492.5927	1499.3493	1515.3967	3040.1941	3040.3389	3049.6413	3074.4441	3095.6322	3097.6016	3106.3812	3127.5699	3149.8812	3174.005	3457.1985
CC1OC1C12CCC1N2	C[C@H]1O[C@H]1[C@]12CC[C@H]1N2	
InChI=1S/C7H11NO/c1-4-6(9-4)7-3-2-5(7)8-7/h4-6,8H,2-3H2,1H3	InChI=1S/C7H11NO/c1-4-6(9-4)7-3-2-5(7)8-7/h4-6,8H,2-3H2,1H3/t4-,5-,6-,7+/m1/s1
