20
gdb 111696	2.37375	1.38275	1.18705	3.177	73.8	-0.2285	0.0602	0.2888	1141.5476	0.171848	-440.246687	-440.237805	-440.236861	-440.280529	33.533	
O	 0.1478274958	 1.3660273518	 0.7789012651	-0.423737
C	 0.1876633002	 0.0955911108	 0.137047583	-0.090889
C	-1.1975682347	-0.5006544262	 0.0273843033	-0.021731
C	-1.5320572583	-1.9267434109	-0.2282126284	-0.060873
C	-0.4551909897	-2.9906134558	-0.0891582784	 0.105395
O	 0.5692799331	-2.7563874161	-1.0496737809	-0.428087
C	 0.0251775389	-2.8904073414	 1.385875744	-0.274532
C	-0.96188612	-1.9229971275	 2.0853058292	-0.161343
N	-1.8560851127	-1.3153473115	 1.0746694714	-0.126974
H	-0.2839853277	 1.2499210486	 1.6313601088	 0.285056
H	 0.5750926415	 0.281432983	-0.8691108363	 0.125134
H	 0.8984792592	-0.5759870497	 0.6291085565	 0.092928
H	-1.8935389835	 0.2259892208	-0.3909561714	 0.099829
H	-2.3709666387	-2.15893423	-0.8786671006	 0.090142
H	-0.9122458218	-3.9733786339	-0.2726654381	 0.07457
H	 1.1866651576	-3.4940068543	-1.0148270996	 0.285244
H	 0.03147926	-3.8697557386	 1.8725538058	 0.101808
H	 1.0527579997	-2.5179436182	 1.397450963	 0.115999
H	-1.6039945308	-2.4618527187	 2.7886442741	 0.112479
H	-0.4463249779	-1.1452308924	 2.6597822597	 0.099582
72.4916	86.7146	149.0622	210.9241	261.524	299.0641	305.5121	381.0561	442.3927	500.2143	563.9686	691.7144	703.5493	729.9435	785.7886	850.9209	864.9774	929.1495	968.3108	991.4092	1023.8915	1057.3381	1060.9475	1069.0417	1126.7129	1145.1535	1149.7861	1211.3196	1218.7921	1236.3658	1255.7224	1274.9122	1310.6323	1335.8267	1337.2518	1350.9101	1383.6326	1412.993	1433.6861	1451.2393	1490.0246	1494.9505	1513.0205	2993.4687	3038.0312	3053.2873	3060.2032	3071.404	3090.7008	3106.3052	3113.2897	3141.9359	3815.5419	3815.6293
OCC1C2C(O)CCN12	OC[C@H]1[C@H]2[C@@H](O)CCN12	
InChI=1S/C6H11NO2/c8-3-4-6-5(9)1-2-7(4)6/h4-6,8-9H,1-3H2	InChI=1S/C6H11NO2/c8-3-4-6-5(9)1-2-7(4)6/h4-6,8-9H,1-3H2/t4-,5-,6-,7?/m0/s1
