20
gdb 20039	5.02367	1.29328	1.14818	0.3169	82.74	-0.2128	0.0343	0.2471	1110.787	0.179049	-311.87602	-311.8684	-311.867456	-311.908195	29.429	
C	-0.1365236229	 1.4452368071	-0.148837221	-0.270914
C	 1.2765358593	 0.9805078649	 0.0508634406	-0.271113
C	 0.1430408485	-0.0314926255	 0.0684802164	-0.095894
C	-0.265547252	-0.7247725751	 1.3054070632	 0.383938
C	-0.6466281569	-2.0040399748	 1.3936099955	-0.193081
C	-1.0557610224	-2.4013201459	 2.7900659253	-0.242394
C	-0.5321696605	-1.2218912061	 3.6473775276	-0.205774
C	-0.3685081771	-0.0415372654	 2.6586519605	-0.314275
H	-0.6082185809	 1.9939442587	 0.6585192332	 0.115813
H	-0.4476432493	 1.7579462987	-1.1393665788	 0.112674
H	 1.9444072506	 0.9648761502	-0.8032228033	 0.11332
H	 1.7635304872	 1.2170119795	 0.9900753495	 0.115187
H	 0.0718337607	-0.6498871953	-0.8216515255	 0.079735
H	-0.703408143	-2.6851968751	 0.550531684	 0.077083
H	-2.1486596532	-2.5052169138	 2.8638722812	 0.099859
H	-0.6378694365	-3.3645368473	 3.1055484172	 0.097189
H	-1.1855534674	-0.9811546024	 4.4899975344	 0.092918
H	 0.4468713582	-1.4832105861	 4.0618231839	 0.103242
H	 0.4994038568	 0.5830577316	 2.899278292	 0.098723
H	-1.2414193392	 0.626814002	 2.6788771738	 0.103764
71.9645	130.0957	181.0899	200.9968	331.126	398.8074	524.9719	566.1825	647.7493	784.3713	810.9764	826.3068	830.2175	856.5042	893.0481	911.9671	926.1717	932.5628	961.4987	1031.4247	1050.2063	1058.2939	1067.0268	1076.8935	1134.6058	1150.2339	1179.6207	1200.8218	1220.6421	1232.4521	1253.3505	1286.8062	1321.2596	1329.8375	1368.9309	1398.1488	1469.7302	1484.2381	1488.9796	1501.397	1507.0595	1706.7527	2994.03	3002.4517	3039.3416	3048.1089	3059.8209	3098.4282	3135.7672	3139.1435	3146.6343	3180.3899	3214.2042	3229.7819
C1CC1C1=CCCC1	C1CC1C1=CCCC1	
InChI=1S/C8H12/c1-2-4-7(3-1)8-5-6-8/h3,8H,1-2,4-6H2	InChI=1S/C8H12/c1-2-4-7(3-1)8-5-6-8/h3,8H,1-2,4-6H2
