15
gdb 16545	3.07449	2.36864	1.68726	2.2596	60.63	-0.2428	-0.0159	0.2268	783.8533	0.119585	-399.777434	-399.770392	-399.769448	-399.808805	25.98	
O	 0.1862088632	 1.3503678171	 0.4077672667	-0.431081
C	 0.0468926129	-0.0263870721	 0.1784929075	 0.008595
C	-1.3888028061	-0.594084018	 0.0058427805	-0.001347
C	-2.4537234645	 0.2804888253	-0.7028992986	-0.252593
C	-2.1416698037	-0.4996679607	-2.0157954688	-0.181063
N	-0.9856929804	-1.1835667812	-1.3339111539	-0.145015
C	 0.2082668132	-0.4316066101	-1.3073316792	 0.33707
O	 0.9382083526	-0.0560703175	-2.1823844852	-0.333886
H	 0.8181614541	 1.6814790807	-0.242771232	 0.303104
H	 0.6414068998	-0.6185734648	 0.8878498331	 0.102246
H	-1.7394580638	-1.2968199818	 0.7627765422	 0.088207
H	-3.4710859387	 0.1870887309	-0.3210837392	 0.115446
H	-2.1735343085	 1.3356799542	-0.7323015105	 0.131565
H	-2.9070364077	-1.2220833851	-2.3066238851	 0.122945
H	-1.8360479624	 0.0781473429	-2.8909693175	 0.135805
96.8393	165.7938	215.0497	238.3146	269.6744	478.1361	550.1772	643.1775	671.9586	745.1788	813.067	855.6321	878.1322	895.1671	960.9059	981.0223	1022.1307	1080.8601	1123.7042	1161.3259	1185.9257	1193.1957	1222.3587	1237.2994	1258.5634	1305.2217	1343.2667	1353.5071	1374.4118	1481.9851	1507.8406	1873.4751	3009.6004	3070.4677	3080.1916	3103.3303	3122.6114	3143.2753	3779.087
OC1C2CCN2C1=O	O[C@H]1[C@H]2CCN2C1=O	
InChI=1S/C5H7NO2/c7-4-3-1-2-6(3)5(4)8/h3-4,7H,1-2H2	InChI=1S/C5H7NO2/c7-4-3-1-2-6(3)5(4)8/h3-4,7H,1-2H2/t3-,4+/m1/s1
