16
gdb 77785	2.82725	1.36912	1.09149	3.7357	77.78	-0.2491	-0.0221	0.227	1119.8794	0.12186	-400.699124	-400.690604	-400.68966	-400.732099	32.116	
C	 0.0171686149	 1.5650015051	-0.0094199563	-0.425508
C	 0.0403771369	 0.0620308795	 0.1389729575	-0.023954
N	 1.2342537756	-0.7724583256	-0.1998623738	-0.220442
C	 2.3952630945	-0.0632295446	 0.3113493203	 0.414837
O	 3.3753945901	 0.2701377516	-0.2762474178	-0.295526
C	 1.937812034	-0.0464262029	 1.7740293327	-0.43707
C	 0.6486098772	-0.6984556824	 1.2571257133	 0.106828
C	 0.0195003274	-1.815689966	 1.8754245369	 0.227117
C	-0.5215982939	-2.7351711757	 2.4308605106	-0.381932
H	 0.8827851573	 2.0581294884	 0.437687853	 0.137146
H	-0.0070674276	 1.8311365236	-1.0707220845	 0.14715
H	-0.8860005589	 1.9669618695	 0.460328951	 0.135782
H	-0.8454650292	-0.4218680081	-0.2662373019	 0.121894
H	 2.535731932	-0.7289712229	 2.3821766864	 0.156256
H	 1.8636558772	 0.918841056	 2.2794497083	 0.13722
H	-0.9964550274	-3.5551145752	 2.9108864645	 0.2002
100.473	147.3694	153.6284	178.826	253.495	334.7156	420.3167	479.516	490.6752	522.9466	591.1745	605.2245	618.2362	636.5801	662.1904	728.6347	840.68	874.7758	955.0468	1014.4249	1034.1036	1064.9392	1112.723	1122.0555	1177.0718	1213.4963	1261.4394	1314.3656	1410.6904	1435.4979	1459.5124	1486.7844	1497.3228	1917.8782	2237.841	3045.7596	3075.5373	3111.0377	3124.192	3132.4584	3146.1618	3500.5712
CC1N2C(=O)CC12C#C	C[C@H]1N2C(=O)C[C@@]12C#C	
InChI=1S/C7H7NO/c1-3-7-4-6(9)8(7)5(7)2/h1,5H,4H2,2H3	InChI=1S/C7H7NO/c1-3-7-4-6(9)8(7)5(7)2/h1,5H,4H2,2H3/t5-,7+,8?/m1/s1
