16
gdb 18203	4.29132	1.67926	1.39707	3.0388	67.92	-0.2503	0.0318	0.2821	887.4685	0.133273	-342.782212	-342.775493	-342.774549	-342.813174	25.757	
N	-0.4734561329	-0.9537087353	-0.8945195993	-0.325404
C	-0.2564917608	 0.0876569803	-0.4420085481	 0.269992
C	 0.0245181028	 1.4000291541	 0.1343392522	-0.14869
C	-0.3402313384	 1.5094654908	 1.6412242516	-0.260454
C	 0.6576093225	 2.5683779537	 2.1630783118	-0.161643
N	 1.8598924333	 2.5330189274	 1.3093773255	-0.092776
C	 2.4060653895	 1.1836860135	 1.100929068	-0.243789
C	 1.5060611837	 1.791864199	 0.0900963913	-0.021974
H	-0.5427271759	 2.1437585579	-0.4376426236	 0.130514
H	-1.3822871559	 1.7988585795	 1.7880646957	 0.124656
H	-0.2006398274	 0.5441886999	 2.1322822729	 0.133261
H	 0.2322114848	 3.5739913031	 2.079079335	 0.117178
H	 0.9305229824	 2.4091885701	 3.2102311159	 0.118731
H	 3.474921028	 1.1548661693	 0.9150225766	 0.128242
H	 2.0324269083	 0.3582070259	 1.7017662842	 0.122263
H	 1.8968862459	 2.1614321808	-0.8524122798	 0.109893
106.6257	160.2685	257.5308	326.4176	405.0396	506.7242	543.3901	622.5703	650.0109	743.5754	829.801	861.4616	880.9764	944.5732	977.4682	1006.3967	1009.4539	1034.4198	1101.1932	1112.2108	1133.3335	1162.6113	1193.6907	1240.0778	1267.7507	1293.4269	1303.8799	1342.9144	1353.5902	1386.9791	1491.5661	1499.9371	1519.0811	2357.1626	3043.0345	3048.5271	3079.9973	3096.1297	3114.2948	3128.8141	3162.5926	3200.6898
N#CC1CCN2CC12	N#C[C@H]1CCN2C[C@@H]12	
InChI=1S/C6H8N2/c7-3-5-1-2-8-4-6(5)8/h5-6H,1-2,4H2	InChI=1S/C6H8N2/c7-3-5-1-2-8-4-6(5)8/h5-6H,1-2,4H2/t5-,6+,8?/m1/s1
