19
gdb 77724	2.20831	1.99758	1.56418	1.0566	73.83	-0.2244	0.0513	0.2757	964.3397	0.159668	-422.96324	-422.955446	-422.954502	-422.995193	30.639	
C	-0.442511672	 1.4069318446	 0.1044004224	-0.419369
C	-0.101737643	-0.0570017702	-0.0402844855	-0.10962
C	 0.6369227448	-0.5842548275	-1.2453685188	 0.314636
C	 1.4360722621	 0.2684908104	-2.2065316515	-0.332298
C	 2.7271707711	 0.5831512539	-1.3811839269	-0.084287
O	 2.3821200032	 0.414414625	 0.0152507603	-0.292505
C	 1.347002205	-0.5076628079	 0.0744404253	 0.237032
C	 1.4854998033	-2.0271403057	-0.0590778938	-0.151918
O	 0.6781243831	-2.0251083036	-1.2766759687	-0.324216
H	-1.3262831708	 1.6628265039	-0.4885293219	 0.1221
H	-0.6583317593	 1.6409521219	 1.1517383402	 0.128027
H	 0.38446428	 2.0484636622	-0.2064723652	 0.130191
H	-0.8412250133	-0.7433579051	 0.3679201123	 0.095603
H	 1.6639334063	-0.2863384851	-3.1190087699	 0.12804
H	 0.9105225879	 1.1848577451	-2.4884675706	 0.11796
H	 3.5355232046	-0.1111489116	-1.6482078116	 0.107691
H	 3.0962834321	 1.6050305539	-1.5071977805	 0.11309
H	 2.5138614879	-2.3477128391	-0.2627708377	 0.111495
H	 1.0480560472	-2.6557160548	 0.7250089323	 0.108347
130.816	167.723	211.9795	232.6237	266.5445	361.666	395.3785	518.1423	553.5373	630.4094	665.7426	735.9064	795.3328	826.7798	865.7057	912.5114	939.3298	964.9328	980.0024	1008.4106	1018.2157	1028.588	1110.819	1112.0854	1144.0584	1156.4492	1186.4528	1225.3487	1232.2318	1248.0533	1300.9251	1318.3452	1338.0977	1382.0067	1417.8476	1419.6006	1471.6319	1492.7745	1501.243	1510.3007	1518.1513	3011.8478	3022.068	3042.2463	3066.0818	3074.8663	3090.4733	3101.9163	3120.4317	3123.8285	3135.9043
CC1C23CCOC12CO3	C[C@H]1[C@@]23CCO[C@@]12CO3	
InChI=1S/C7H10O2/c1-5-6-2-3-8-7(5,6)4-9-6/h5H,2-4H2,1H3	InChI=1S/C7H10O2/c1-5-6-2-3-8-7(5,6)4-9-6/h5H,2-4H2,1H3/t5-,6-,7-/m0/s1
