21
gdb 94692	2.94728	1.46017	1.32394	2.6349	77.11	-0.2392	0.076	0.3151	1073.0463	0.184095	-424.231026	-424.222989	-424.222045	-424.262977	32.988	
C	 0.0272002176	 1.515095444	 0.1180067759	-0.466931
C	-0.0330821034	 0.0169343311	-0.0626820075	 0.411247
C	 0.7623015867	-0.6563881109	-1.2114843611	-0.303087
C	 1.0722193066	-1.6977034154	-0.1246004041	 0.058008
O	 0.8253692916	-0.6924259641	 0.9056087845	-0.342289
C	-0.0337609842	-2.7473889647	 0.0563946502	 0.152569
O	 0.0225821469	-3.2336764142	 1.3868821406	-0.443496
C	-1.3984985734	-2.1009484952	-0.2856657739	-0.258328
C	-1.4349147482	-0.5938449717	 0.0723802568	-0.238076
H	 1.0636117772	 1.8629965287	 0.0999305618	 0.123202
H	-0.5264123773	 2.0196959779	-0.6808250302	 0.119795
H	-0.4168520292	 1.8068268422	 1.0757764448	 0.125708
H	 0.2297055125	-0.969911223	-2.1111226956	 0.10192
H	 1.6453662788	-0.0742705505	-1.4814864303	 0.10694
H	 2.0753626833	-2.1235206335	-0.0451222074	 0.081416
H	 0.1393661594	-3.6125741558	-0.5935508966	 0.077022
H	 0.154158156	-2.4465861442	 1.9344444908	 0.284054
H	-1.5854341492	-2.2206377264	-1.3584331501	 0.09799
H	-2.1867006541	-2.6528797034	 0.2326521098	 0.109372
H	-1.7583112022	-0.4412739271	 1.1084123759	 0.107647
H	-2.1513599253	-0.0660505535	-0.567571224	 0.095315
134.0483	194.3963	206.246	287.7032	335.7049	390.3513	404.5303	434.3026	479.3811	531.4724	536.7638	646.5514	725.0072	778.2151	806.5268	839.7314	885.824	908.4481	925.0316	944.1404	986.8176	1011.486	1014.9776	1039.3301	1080.8283	1114.1792	1128.8696	1193.3319	1218.8013	1226.2178	1247.6748	1268.8254	1293.8088	1297.1657	1327.7434	1348.2774	1368.0799	1381.6796	1408.5924	1441.4417	1472.1565	1480.5636	1482.8849	1493.6563	1504.0119	3030.5604	3036.1587	3037.8688	3052.262	3072.5439	3073.7606	3087.4475	3099.385	3104.4846	3117.6915	3133.0157	3737.3577
CC12CC(O1)C(O)CC2	C[C@@]12C[C@@H](O1)[C@@H](O)CC2	
InChI=1S/C7H12O2/c1-7-3-2-5(8)6(4-7)9-7/h5-6,8H,2-4H2,1H3	InChI=1S/C7H12O2/c1-7-3-2-5(8)6(4-7)9-7/h5-6,8H,2-4H2,1H3/t5-,6+,7+/m0/s1
