17
gdb 25921	2.69857	1.63961	1.02839	1.3904	78.46	-0.179	-0.023	0.156	1120.6968	0.136633	-418.073287	-418.064871	-418.063927	-418.106151	32.331	
C	-0.0318814882	 1.4941528316	-0.0142695746	-0.500906
C	 0.0599421353	-0.0176099446	 0.0008524863	 0.438652
O	 1.1322263466	-0.5916408433	 0.0471888737	-0.357689
N	-1.1478763482	-0.708850451	-0.0381761649	-0.133367
C	-2.4372137539	-0.1344623032	 0.0141145323	-0.10606
C	-3.3415448449	-1.1448693231	 0.0533723882	-0.152849
C	-2.6349938184	-2.3923656272	 0.020659762	-0.26006
C	-1.2954344267	-2.1103478512	-0.0399310829	 0.370069
N	-0.2073820841	-2.9467378206	-0.1779612082	-0.596786
H	 0.983398916	 1.8883277324	-0.0230695344	 0.151316
H	-0.5727128983	 1.8489836326	-0.8962102315	 0.153385
H	-0.5573840089	 1.8635118772	 0.8715049449	 0.153299
H	-2.5628044918	 0.9321996837	 0.0275696348	 0.122658
H	-4.4133399007	-1.0233006227	 0.0993757155	 0.102876
H	-3.0650666394	-3.3817385776	 0.0220432522	 0.090787
H	-0.3586491201	-3.8769165985	 0.18086939	 0.249483
H	 0.6731166858	-2.5244748544	 0.0845381166	 0.275193
80.8038	136.6975	177.268	258.3769	281.1132	360.1764	364.8861	451.0785	509.5679	578.9009	591.282	613.4533	624.1261	660.0139	704.8652	724.7655	753.5316	851.5369	881.8667	957.1064	1038.1103	1055.8183	1077.2964	1096.5691	1153.9064	1239.8612	1282.0172	1349.8963	1355.9225	1394.7693	1461.8814	1472.7818	1480.3349	1564.1971	1597.9634	1653.1497	1778.0182	3052.2772	3118.7256	3167.6609	3242.9252	3256.8833	3310.194	3543.674	3668.5073
CC(=O)N1C=CC=C1N	CC(=O)n1cccc1N	
InChI=1S/C6H8N2O/c1-5(9)8-4-2-3-6(8)7/h2-4H,7H2,1H3	InChI=1S/C6H8N2O/c1-5(9)8-4-2-3-6(8)7/h2-4H,7H2,1H3
