18
gdb 128243	2.21107	1.4364	0.92583	3.8118	75.38	-0.2141	0.0108	0.2248	1277.658	0.147974	-435.23848	-435.229114	-435.228169	-435.274144	33.103	
C	 0.2983974294	 0.9016349323	-0.5373230511	-0.328681
N	-0.4025398084	 0.1793957568	 0.5278410737	-0.39986
C	 0.3962592981	-0.6003335524	 1.3872464868	 0.031297
C	 1.0661605	-0.2203600928	 2.5056429174	 0.057763
O	 1.7137104184	-1.2552058361	 3.0564223281	-0.187401
N	 1.4655044768	-2.4089992259	 2.2923758719	-0.243121
C	 0.6901189414	-2.0090361845	 1.3078779565	 0.404878
N	 0.1746354147	-2.8796998284	 0.3725903071	-0.387727
C	 0.68164885	-4.245504737	 0.3438510927	-0.319201
H	 0.8861711097	 0.2587460528	-1.2129720535	 0.100017
H	-0.4337381861	 1.4533435619	-1.1339007763	 0.123224
H	 0.9842058704	 1.6274999084	-0.0918860983	 0.134911
H	-1.1671573146	-0.3694046178	 0.1534405328	 0.228491
H	 1.1644763022	 0.7295037371	 3.0082783684	 0.146226
H	 0.059549748	-2.4587681195	-0.5381610788	 0.236886
H	 1.7605361002	-4.3002994854	 0.1436113714	 0.126571
H	 0.5010484739	-4.7134140399	 1.3143254099	 0.156645
H	 0.142506296	-4.8058113798	-0.4232441688	 0.11908
17.3419	113.9356	151.525	159.0348	172.0754	205.5604	284.5905	313.4629	459.3045	516.6406	540.3759	587.0642	620.3816	737.8909	753.4915	797.2445	851.6023	911.9733	937.2899	1038.2068	1080.4367	1142.6291	1148.94	1158.4814	1172.0564	1181.6988	1242.976	1314.0166	1368.8627	1453.6084	1456.259	1477.4746	1483.7108	1494.343	1506.8779	1519.5842	1524.8363	1578.6397	1679.0882	2966.5281	3011.0178	3075.2779	3094.7772	3117.9601	3135.5669	3262.6021	3544.0888	3591.644
CNC1=CON=C1NC	CNc1conc1NC	
InChI=1S/C5H9N3O/c1-6-4-3-9-8-5(4)7-2/h3,6H,1-2H3,(H,7,8)	InChI=1S/C5H9N3O/c1-6-4-3-9-8-5(4)7-2/h3,6H,1-2H3,(H,7,8)
