22
gdb 113719	3.17888	0.85132	0.7524	4.2771	87.33	-0.2868	0.0388	0.3256	1597.708	0.193095	-367.226452	-367.216102	-367.215157	-367.262436	37.471	
C	-0.4418562896	 1.5500289667	 0.7413782586	-0.378442
C	-0.3192837235	 0.0239891877	 0.8357678614	-0.200471
C	-1.5630640041	-0.6814641921	 0.3308433611	-0.000984
C	-1.7460396658	-0.9803680125	-1.1387209043	-0.302117
C	-1.588239668	-2.1141621145	-0.1574224491	-0.002558
C	-0.3471841318	-3.000398413	-0.1630343872	-0.165619
C	-0.1276076439	-3.7047379179	 1.1911685357	-0.395785
C	-0.4423717234	-3.9915129081	-1.2448144726	 0.276539
N	-0.5249876498	-4.7778166727	-2.0880462783	-0.326434
H	 0.4605068478	 2.0437269919	 1.1145058906	 0.113945
H	-0.5989965534	 1.8673221227	-0.2945145935	 0.122651
H	-1.2900170762	 1.9135660549	 1.3315336873	 0.117208
H	 0.5588370604	-0.2988656753	 0.264324244	 0.096571
H	-0.1293151864	-0.2607797017	 1.879096188	 0.100186
H	-2.4658282441	-0.3807410058	 0.8587204882	 0.087718
H	-2.7129763479	-0.8247822948	-1.6033254048	 0.119166
H	-0.904031054	-0.772642106	-1.7931351938	 0.116398
H	-2.4927126423	-2.6705285747	 0.0746590533	 0.098136
H	 0.5332322392	-2.3859795414	-0.3834769614	 0.122084
H	 0.7618701128	-4.3392661307	 1.1670894397	 0.134953
H	-0.0044723071	-2.9564765321	 1.9781174724	 0.130531
H	-0.9874356288	-4.3319730908	 1.4429318345	 0.136326
47.7883	72.0338	106.2445	151.7703	205.9937	223.0068	240.0868	251.5112	301.1295	356.7379	436.4147	494.4477	559.0194	589.4166	760.0888	787.86	807.0246	853.5285	869.5368	946.7728	964.0176	972.1703	1021.2088	1047.0885	1070.8587	1089.6362	1108.4001	1121.7385	1147.8146	1194.0194	1198.8547	1249.9829	1285.6236	1298.5545	1323.8968	1344.273	1396.9871	1408.7134	1414.1957	1434.2465	1481.7961	1493.0127	1495.4219	1498.8713	1499.7148	1506.8426	2354.843	3016.948	3034.3951	3045.0015	3049.0685	3057.0089	3102.7956	3108.9982	3124.3794	3125.4156	3126.4612	3130.7578	3141.6365	3212.8578
CCC1CC1C(C)C#N	CC[C@H]1C[C@H]1[C@@H](C)C#N	
InChI=1S/C8H13N/c1-3-7-4-8(7)6(2)5-9/h6-8H,3-4H2,1-2H3	InChI=1S/C8H13N/c1-3-7-4-8(7)6(2)5-9/h6-8H,3-4H2,1-2H3/t6-,7-,8-/m0/s1
