23
gdb 96234	2.22083	1.48419	1.0633	1.7426	86.87	-0.2491	0.0071	0.2562	1242.7656	0.207009	-388.303576	-388.294109	-388.293165	-388.337743	36.418	
C	 0.0279599839	 1.5775238693	-0.0687241658	-0.403541
C	 0.0326629764	 0.0414539446	-0.0404629592	 0.022936
C	 0.8006894362	-0.5179777353	-1.248618326	-0.191333
C	 0.5486163371	-1.9983587281	-1.5557558118	-0.196834
C	 1.2052151309	-2.998760492	-0.5962006787	-0.25361
C	 0.7692025847	-2.9607274981	 0.8494201588	-0.043051
C	 0.4799677028	-1.9164445254	 1.6303383373	-0.118611
C	 0.5655584493	-0.436878678	 1.3272896409	 0.105524
O	 1.9074018243	 0.0316478985	 1.5542988698	-0.441535
H	 1.0451117846	 1.9653618977	 0.03842418	 0.131671
H	-0.3876236223	 1.9520252467	-1.0095737484	 0.102854
H	-0.5722488604	 1.9885240007	 0.7502680522	 0.105599
H	-1.007910847	-0.3077524828	-0.106636603	 0.066809
H	 0.5150382997	 0.0670184083	-2.1310224442	 0.090597
H	 1.875655817	-0.3378284344	-1.1088338276	 0.088198
H	-0.5334709983	-2.1824235071	-1.5798206845	 0.096864
H	 0.9190465791	-2.2170408814	-2.5647115054	 0.09112
H	 1.0262008009	-4.0110240041	-0.976845335	 0.102878
H	 2.2986917431	-2.8705922559	-0.6410372931	 0.105748
H	 0.7219702152	-3.9400078581	 1.324166595	 0.089932
H	 0.2302599866	-2.137375062	 2.6662238318	 0.090097
H	-0.032839598	 0.0829538927	 2.0860088668	 0.077085
H	 2.5031402343	-0.678062656	 1.2964948501	 0.280602
50.981	116.0149	197.7151	218.8246	252.9397	261.8833	301.8903	317.5448	345.799	392.085	481.506	561.649	598.5382	682.8675	750.4934	794.5605	832.7066	861.1161	894.0587	934.9933	965.9352	998.4076	1010.8656	1016.0535	1046.5496	1075.56	1108.9528	1123.9339	1151.7971	1198.086	1243.202	1273.3042	1275.8268	1296.3168	1324.0259	1358.9263	1369.414	1382.7026	1392.5565	1402.5696	1416.5105	1420.6327	1439.0869	1477.5468	1485.8005	1491.9258	1495.6111	1507.9775	1723.0263	2981.6461	2999.64	3014.2336	3016.2199	3021.8462	3033.4551	3049.4649	3054.5567	3058.3467	3096.9444	3115.5472	3122.9002	3150.3862	3829.8739
CC1CCCC=CC1O	C[C@H]1CCCC=C[C@H]1O	
InChI=1S/C8H14O/c1-7-5-3-2-4-6-8(7)9/h4,6-9H,2-3,5H2,1H3	InChI=1S/C8H14O/c1-7-5-3-2-4-6-8(7)9/h4,6-9H,2-3,5H2,1H3/t7-,8+/m0/s1
