19
gdb 92340	2.10687	2.01092	1.2996	3.2364	69.6	-0.2377	0.0493	0.287	1011.3618	0.160576	-460.147216	-460.139208	-460.138264	-460.179764	31.582	
O	 0.2057027754	 1.221080996	-0.6297808981	-0.435479
C	 0.0632624887	-0.0772204597	-0.0651144393	 0.094556
C	 0.1233613674	-0.1653037829	 1.4857360196	-0.281447
C	-1.3430768661	-0.6885323106	 1.507224121	 0.111141
O	-2.3034732938	 0.2004547832	 2.0552728171	-0.258503
C	-2.6001723987	 1.1879129538	 1.0755994326	-0.131001
C	-2.5372875408	 0.4541606169	-0.2817506336	 0.131486
O	-2.4171371762	 1.2882831526	-1.4060109992	-0.444558
C	-1.4114339983	-0.5794766154	-0.0465507672	-0.115962
H	 1.1098096197	 1.5224084035	-0.4983839029	 0.292459
H	 0.7380606095	-0.7802221499	-0.5685408282	 0.078052
H	 0.8698410687	-0.857996241	 1.8819423387	 0.102503
H	 0.2360357171	 0.8045215736	 1.9773420044	 0.110417
H	-1.4900542617	-1.6644893486	 1.9731359121	 0.080743
H	-3.5863058441	 1.6004456682	 1.3008455253	 0.110475
H	-1.8660165104	 2.0086387409	 1.0834330999	 0.090462
H	-3.4720656134	-0.101911152	-0.4147774915	 0.093068
H	-1.5151921799	 1.6352383659	-1.3959998809	 0.295852
H	-1.5715598731	-1.4970442247	-0.6127921198	 0.075735
62.5347	194.3642	214.4785	243.2048	326.5685	390.5074	403.5009	430.2367	525.5419	537.7864	606.7099	675.9257	724.9252	762.4847	846.1265	902.7565	917.0745	955.0194	981.4926	1015.8507	1050.0641	1055.5401	1098.4003	1129.3246	1141.9842	1153.9402	1193.4536	1210.3105	1227.6877	1247.92	1259.6685	1287.2425	1316.0956	1323.864	1343.2284	1365.0619	1380.349	1417.9467	1459.5614	1470.7696	1513.6395	2986.3892	3020.4589	3045.9025	3061.0813	3090.4424	3102.7914	3110.4658	3122.6118	3756.5649	3825.0303
OC1CC2OCC(O)C12	O[C@H]1C[C@H]2OC[C@@H](O)[C@@H]12	
InChI=1S/C6H10O3/c7-3-1-5-6(3)4(8)2-9-5/h3-8H,1-2H2	InChI=1S/C6H10O3/c7-3-1-5-6(3)4(8)2-9-5/h3-8H,1-2H2/t3-,4+,5+,6+/m0/s1
