16
gdb 35554	2.6374	1.62838	1.48311	4.4301	67.31	-0.2683	0.0149	0.2831	947.4217	0.125875	-437.878569	-437.871292	-437.870348	-437.910631	27.408	
N	 0.9836270278	-0.7100357647	 0.6769669987	-0.329124
C	 0.465475866	 0.2869795696	 0.407483644	 0.291367
C	-0.2147486185	 1.540770498	 0.0187848292	-0.049868
C	-0.8856721198	 2.2586356865	 1.2148427548	-0.263343
C	 0.2030572184	 3.2163388435	 1.6826202661	 0.099326
O	 1.2322913985	 2.5778685522	 2.465031033	-0.289267
C	 2.229377784	 2.8053475452	 1.4380770209	-0.10884
C	 1.1586032367	 3.3591576123	 0.4760470057	 0.059229
O	 0.6988985168	 2.4801611809	-0.5398769652	-0.252144
H	-0.933658249	 1.2878664399	-0.7660675721	 0.139136
H	-1.7530496108	 2.8200486968	 0.8559677078	 0.12142
H	-1.2021795785	 1.5752061857	 2.0040651276	 0.146502
H	-0.1818212748	 4.1203258201	 2.1638893158	 0.088328
H	 2.9748702193	 3.5436335398	 1.7572386208	 0.109282
H	 2.7252282035	 1.882891625	 1.1229360349	 0.137014
H	 1.3411896406	 4.3307161791	 0.0171820479	 0.100983
94.5964	116.8079	198.033	264.9328	365.9291	408.942	483.2074	572.0925	644.2932	759.1956	804.8409	806.9176	859.923	904.3755	920.8286	973.9188	982.3729	1012.7912	1035.8969	1041.3758	1083.0869	1123.9978	1171.0542	1197.748	1231.4337	1236.3559	1282.1441	1319.7078	1334.4493	1352.3634	1363.2493	1377.1015	1465.4781	1510.0976	2355.0038	3029.1457	3061.3979	3071.1048	3080.0735	3098.2277	3119.6829	3138.74
N#CC1CC2OCC2O1	N#C[C@H]1C[C@H]2OC[C@H]2O1	
InChI=1S/C6H7NO2/c7-2-4-1-5-6(9-4)3-8-5/h4-6H,1,3H2	InChI=1S/C6H7NO2/c7-2-4-1-5-6(9-4)3-8-5/h4-6H,1,3H2/t4-,5-,6-/m1/s1
