18
gdb 35001	2.24814	1.63093	1.5555	4.2372	80.24	-0.2453	0.021	0.2663	996.2331	0.150233	-364.834152	-364.826486	-364.825542	-364.866482	29.594	
N	 0.3038169721	-1.2436502584	 0.1876800716	-0.352988
C	 0.2109217379	-0.090862522	 0.1407799285	 0.300491
C	 0.0533079182	 1.332525528	 0.0538823246	-0.19177
C	 0.414894458	 2.2532490021	 1.2179737523	-0.051298
C	 0.971316924	 1.692609044	 2.5146527677	-0.28278
C	 2.306556223	 1.0157394378	 2.3750831361	-0.043171
C	 3.0513225234	 1.0309329562	 1.2730654568	-0.043173
C	 2.6740820201	 1.7273531414	-0.0048973669	-0.28278
C	 1.2563789295	 2.2704165086	-0.0271546498	-0.051297
H	-0.8148707644	 1.623300006	-0.5288448594	 0.130114
H	-0.2826129433	 3.0750532249	 1.3459856884	 0.099403
H	 1.0630647478	 2.5183703785	 3.234258399	 0.117007
H	 0.2489301146	 0.9971875459	 2.9634129343	 0.125586
H	 2.6634550988	 0.4879280129	 3.2553061099	 0.09233
H	 4.0078177362	 0.5153537142	 1.2660748939	 0.09233
H	 3.365345058	 2.5653494249	-0.1723777573	 0.117008
H	 2.8298511084	 1.0498540456	-0.855526368	 0.125586
H	 1.1044436976	 3.1033509595	-0.7064204617	 0.099403
97.6059	107.4366	144.0285	330.742	340.0028	391.538	504.8721	517.4573	588.767	626.9909	684.874	733.727	787.0426	811.1871	880.1394	916.742	941.856	962.105	979.9572	1015.5411	1037.1753	1045.4623	1088.96	1098.1949	1143.9842	1205.3288	1231.3722	1238.8398	1249.2921	1355.5907	1365.0775	1368.0571	1377.5465	1424.8389	1435.2171	1476.0968	1479.5051	1739.0929	2348.414	3006.9134	3007.183	3029.6205	3030.1283	3149.2089	3153.6836	3154.2877	3167.2643	3175.9183
N#CC1C2CC=CCC12	N#C[C@H]1[C@H]2CC=CC[C@@H]12	
InChI=1S/C8H9N/c9-5-8-6-3-1-2-4-7(6)8/h1-2,6-8H,3-4H2	InChI=1S/C8H9N/c9-5-8-6-3-1-2-4-7(6)8/h1-2,6-8H,3-4H2/t6-,7+,8-
