22
gdb 119579	2.66645	1.10088	0.96147	1.8832	83.16	-0.2286	0.0846	0.3132	1377.6403	0.193235	-404.294087	-404.284435	-404.283491	-404.328874	35.551	
C	 0.0428730131	 1.3482510421	 0.0995716953	-0.221132
O	 0.1841342746	-0.0512776643	 0.1023455287	-0.233606
C	 0.4220578577	-0.5812873351	-1.1842953289	-0.170716
C	 0.5722510548	-2.068110598	-1.0886738604	 0.329794
C	 0.2752410279	-2.9669656423	-2.221882442	-0.300039
N	-0.6223305796	-3.0122589415	-1.0525131144	-0.161005
C	 0.118237092	-3.8289827483	-0.024507689	-0.178538
C	 1.2868033726	-2.8064116573	 0.0511157389	-0.039362
C	 2.7293717264	-3.2619122559	-0.1291085621	-0.418133
H	 0.9459550467	 1.8506194528	-0.2836195505	 0.101481
H	-0.8133189219	 1.6715346423	-0.5134861043	 0.106247
H	-0.1245325506	 1.6628117189	 1.132466974	 0.12754
H	-0.4105225858	-0.3412666766	-1.8665468591	 0.09428
H	 1.337276417	-0.1351109031	-1.6155739117	 0.08572
H	-0.1944644962	-2.5329378466	-3.100065372	 0.115766
H	 0.9161227686	-3.82052637	-2.4337859351	 0.107661
H	-0.4703172288	-3.9087973414	 0.8911958664	 0.110627
H	 0.3723854402	-4.8359412256	-0.3756697739	 0.096782
H	 1.1970880818	-2.211129986	 0.9621590447	 0.101045
H	 2.8628158193	-3.8500840005	-1.0429039008	 0.111607
H	 3.409753224	-2.4046309001	-0.1807324107	 0.117539
H	 3.0482803761	-3.8848676936	 0.7139371968	 0.116441
69.6986	86.5466	134.5388	177.8696	209.3228	226.5926	239.7223	325.6855	364.7034	403.6987	474.7036	556.4678	665.0927	711.4295	754.7044	848.6656	879.5141	907.7553	954.2802	977.7123	1010.5925	1031.743	1086.8153	1100.1996	1115.5171	1134.9821	1154.676	1163.2458	1183.8048	1207.9179	1222.5825	1245.0235	1251.8545	1282.8355	1329.9622	1353.1143	1390.67	1412.4594	1441.2645	1478.2198	1484.7287	1491.5767	1495.0449	1496.6182	1499.4521	1516.0118	1517.9227	2934.5407	2967.391	2980.1468	3011.0898	3027.7724	3036.2516	3083.1723	3092.3891	3099.6945	3103.5166	3114.5436	3114.9112	3187.382
COCC12CN1CC2C	COC[C@]12CN1C[C@H]2C	
InChI=1S/C7H13NO/c1-6-3-8-4-7(6,8)5-9-2/h6H,3-5H2,1-2H3	InChI=1S/C7H13NO/c1-6-3-8-4-7(6,8)5-9-2/h6H,3-5H2,1-2H3/t6-,7+,8?/m1/s1
