18
gdb 79233	2.22663	1.69976	1.60243	1.6532	71.42	-0.2359	0.0509	0.2868	977.1426	0.147011	-439.018067	-439.009859	-439.008915	-439.050256	32.285	
C	-0.160696843	 1.5639010486	 0.0053289484	-0.528324
C	 0.0722305866	 0.0924589536	 0.0631911493	 0.22513
C	 0.724653717	-0.913345235	-0.8253011504	-0.138066
C	 1.4037305203	-1.616396093	 0.3394704988	 0.062372
O	 2.6813964748	-1.1062753861	 0.6914495782	-0.4532
C	 0.2940317952	-1.0022519116	 1.2321587625	 0.323722
O	 0.5517488309	-0.8265164135	 2.5677177173	-0.47397
C	-0.9737783386	-1.658766167	 0.7054899527	-0.202324
N	-0.7675125612	-0.9350298167	-0.6025052191	-0.184507
H	 0.7186970457	 2.1227360145	 0.3439139731	 0.117632
H	-0.3901631974	 1.872447098	-1.0195069586	 0.137844
H	-1.0033878652	 1.8526772043	 0.6428725904	 0.135603
H	 1.0577710171	-0.8290400364	-1.8528695402	 0.099711
H	 1.5009448468	-2.7070126231	 0.3375374039	 0.087564
H	 2.7297270677	-0.1927038012	 0.3848893016	 0.287304
H	 1.5161491178	-0.7739323998	 2.6499267142	 0.285911
H	-1.0035693706	-2.7532016934	 0.6438828085	 0.09992
H	-1.8937849736	-1.2844445419	 1.1602852194	 0.11768
152.9832	171.5893	184.6692	230.3337	280.2482	331.074	403.8153	446.8318	469.1895	521.6211	552.7319	635.3567	682.5174	742.4844	768.713	824.8291	891.4584	910.7857	962.4687	993.1123	1034.7332	1071.1129	1088.274	1095.51	1117.9191	1145.6421	1161.17	1230.8799	1246.3593	1273.5069	1279.2916	1348.2545	1393.8442	1414.9568	1424.9618	1442.446	1479.2274	1489.856	1514.7319	3028.4483	3034.2136	3062.7063	3091.0535	3105.384	3109.7095	3187.8817	3713.1977	3788.245
CC12C3C(O)C1(O)CN23	C[C@@]12[C@H]3[C@@H](O)[C@]1(O)CN23	
InChI=1S/C6H9NO2/c1-5-3-4(8)6(5,9)2-7(3)5/h3-4,8-9H,2H2,1H3	InChI=1S/C6H9NO2/c1-5-3-4(8)6(5,9)2-7(3)5/h3-4,8-9H,2H2,1H3/t3-,4-,5-,6-,7?/m1/s1
