19
gdb 94293	2.88354	1.50299	1.19584	2.8438	75.08	-0.2266	0.0695	0.2961	1078.3369	0.159232	-422.957982	-422.949877	-422.948933	-422.991041	31.302	
O	 0.3507192499	 0.9935874471	-0.6711267624	-0.425327
C	 0.0878312445	-0.2385037584	-0.0382517918	 0.062254
C	 0.0963008348	-0.264830536	 1.5214497984	-0.248307
C	-1.3025064898	-0.9534497131	 1.5254567017	-0.329077
C	-1.3634156526	-0.7525597071	 0.0028688829	 0.317193
C	-2.5791989152	-0.214232608	-0.7231823887	-0.241129
C	-2.2472104574	-0.0380949277	-2.2071280668	-0.087958
O	-1.7317896998	-1.3967646152	-2.2962455178	-0.286378
C	-2.104245368	-1.637153238	-0.9403353408	 0.018506
H	-0.2713097141	 1.6397798975	-0.3185567798	 0.277379
H	 0.777545148	-0.9530208271	-0.4950398841	 0.09965
H	 0.9133870331	-0.8143092466	 1.9934451547	 0.10739
H	 0.0775000678	 0.7468785993	 1.9374016282	 0.098242
H	-1.2755960215	-2.0044345724	 1.8274337893	 0.108123
H	-2.0757685789	-0.4502647225	 2.1125307006	 0.103086
H	-3.4521520345	 0.1703346241	-0.2107611204	 0.097032
H	-3.1375704428	 0.0705606	-2.836411119	 0.106438
H	-1.4917764782	 0.704768222	-2.4748605943	 0.122582
H	-2.5236178753	-2.6052420079	-0.6859555399	 0.100301
46.9876	153.2405	166.763	240.5685	291.2632	364.4962	406.2032	430.0233	538.6553	613.2698	714.2055	778.9753	785.0588	821.5898	880.2162	915.4782	944.8491	949.5167	956.3529	995.189	1013.0702	1049.3256	1061.128	1075.9665	1115.811	1132.1525	1148.4769	1171.8031	1209.837	1221.3816	1236.9204	1244.4678	1268.0794	1287.1798	1309.0385	1334.0804	1419.9744	1431.2891	1475.7312	1496.2958	1504.5216	3036.7118	3049.6737	3060.6542	3079.8392	3092.5134	3105.8275	3119.8356	3162.7809	3189.1406	3798.2704
OC1CCC11C2COC12	O[C@H]1CC[C@]21[C@H]1CO[C@@H]21	
InChI=1S/C7H10O2/c8-5-1-2-7(5)4-3-9-6(4)7/h4-6,8H,1-3H2	InChI=1S/C7H10O2/c8-5-1-2-7(5)4-3-9-6(4)7/h4-6,8H,1-3H2/t4-,5-,6+,7+/m0/s1
