17
gdb 85181	2.2682	1.71269	1.16204	4.2633	67.69	-0.2753	0.008	0.2832	1071.6484	0.135164	-458.968446	-458.960123	-458.959178	-459.001752	30.385	
C	 0.3620378289	 1.502218287	-0.2134773822	-0.415313
C	 0.0075658611	 0.0623198718	 0.0821137081	 0.129436
O	 0.7445919611	-0.8724311736	-0.7919614192	-0.250388
C	 1.342658613	-1.4894029307	 0.2664662218	 0.469265
O	 2.1326323205	-2.3794127286	 0.2485975875	-0.334326
C	 0.624753293	-0.6411017788	 1.3243031048	-0.260975
C	 1.4849939848	 0.1336510081	 2.2867031803	 0.055203
C	 2.7777174706	-0.389336436	 2.7529662357	-0.18274
O	 2.7105434581	 0.6605932598	 1.7805116539	-0.227959
H	 1.433890244	 1.6738832028	-0.1005301319	 0.163724
H	 0.0659901637	 1.7571637351	-1.2350261884	 0.135269
H	-0.1749577519	 2.16778808	 0.4708336131	 0.123439
H	-1.0634033334	-0.1227107204	-0.0380378848	 0.099836
H	-0.1074098537	-1.2335091881	 1.8825713964	 0.119755
H	 0.9423323518	 0.8179926494	 2.9408345141	 0.101546
H	 3.150611614	-0.0899451126	 3.7305767421	 0.120539
H	 3.1275951743	-1.3456819653	 2.3726098988	 0.153688
91.8631	102.874	158.1439	171.6199	233.6357	302.5834	376.3071	428.002	514.1481	548.2503	706.0425	745.1355	794.6759	836.0403	870.1558	906.7897	912.7129	993.7519	1046.0873	1053.1594	1097.8299	1116.2543	1147.4129	1161.7585	1172.9022	1177.4469	1211.0335	1286.034	1319.0949	1347.9951	1383.5856	1415.3959	1423.8332	1485.6615	1498.3204	1523.0826	1925.59	3045.3204	3064.3735	3077.1579	3095.565	3102.1837	3112.6124	3148.1398	3199.6225
CC1OC(=O)C1C1CO1	C[C@H]1OC(=O)[C@H]1[C@H]1CO1	
InChI=1S/C6H8O3/c1-3-5(4-2-8-4)6(7)9-3/h3-5H,2H2,1H3	InChI=1S/C6H8O3/c1-3-5(4-2-8-4)6(7)9-3/h3-5H,2H2,1H3/t3-,4-,5-/m1/s1
