17
gdb 103723	2.40161	1.33436	1.00617	4.2372	69.9	-0.2426	0.0219	0.2645	1184.7618	0.134068	-455.122148	-455.112305	-455.111361	-455.156614	35.787	
N	 0.0827603918	 1.4214986479	 0.0458282924	-0.5626
C	 0.0241778485	-0.0229449708	 0.0118443306	 0.095908
C	-0.540543485	-0.7550349998	 1.2219406717	-0.367196
C	-1.3185593556	-0.749505038	-0.072245831	 0.395661
O	-2.4013861992	 0.1261524532	-0.165200164	-0.479032
C	-1.5147920094	-2.0139999307	-0.8680294727	-0.166053
O	-2.723469397	-2.5916777702	-0.374152838	-0.433472
C	 1.1495403452	-0.6246959022	-0.6649855594	 0.281384
N	 2.0275358614	-1.1212897992	-1.2313281853	-0.353719
H	 0.1164150812	 1.7767960438	-0.9069122234	 0.243441
H	-0.7908698198	 1.7637241298	 0.4363887564	 0.251179
H	-0.0492309828	-1.6665953608	 1.54143543	 0.139487
H	-0.9048936645	-0.1174053313	 2.0200897461	 0.132864
H	-3.1846626451	-0.4198677572	-0.0140889961	 0.298437
H	-1.6062772217	-1.7626554133	-1.9342327474	 0.109989
H	-0.6600508379	-2.6910896872	-0.7448199739	 0.115388
H	-3.0229019602	-3.257504054	-0.9998538759	 0.298334
93.3069	113.7777	135.797	163.1514	212.312	250.5021	262.2935	311.8972	363.4385	399.0587	421.9848	453.1486	493.5302	579.2458	637.2197	736.8547	765.0826	874.4146	901.9687	925.709	987.5726	1003.0973	1051.0684	1063.4797	1075.8777	1182.5806	1230.1984	1237.2552	1281.3314	1310.4045	1372.2168	1413.8633	1454.0763	1482.3202	1508.6904	1664.7589	2351.6091	3002.1654	3050.8631	3139.0962	3235.7551	3485.3324	3565.6532	3767.7405	3837.4641
NC1(CC1(O)CO)C#N	N[C@]1(C[C@]1(O)CO)C#N	
InChI=1S/C5H8N2O2/c6-2-4(7)1-5(4,9)3-8/h8-9H,1,3,7H2	InChI=1S/C5H8N2O2/c6-2-4(7)1-5(4,9)3-8/h8-9H,1,3,7H2/t4-,5+/m1/s1
