15
gdb 133637	4.34133	0.62031	0.60681	3.3305	58.92	-0.3301	0.0243	0.3544	1714.9619	0.108582	-548.343218	-548.334174	-548.33323	-548.378625	31.19	
F	 0.0068671935	 0.0635326469	-0.0768582996	-0.082321
C	-0.0324418185	 1.4036255069	 0.0000661322	 0.288119
F	 1.2330799682	 1.845825087	-0.0790046759	-0.082315
F	-0.6845105694	 1.8509431521	-1.0827804087	-0.075815
C	-0.7079044855	 1.8699452463	 1.2742912085	-0.342305
C	 0.012064248	 1.3752696644	 2.5316301334	-0.191521
C	-0.6932089926	 1.8641428103	 3.8110597249	-0.348679
C	-0.0238124824	 1.4040481043	 5.0256193568	 0.26058
N	 0.5159886369	 1.0326963559	 5.9771193968	-0.295967
H	-0.7393523102	 2.9638884357	 1.2418477272	 0.135959
H	-1.7412078343	 1.5093100164	 1.2432231784	 0.135973
H	 0.0488969888	 0.282185792	 2.5299194347	 0.142393
H	 1.0470493262	 1.7288098671	 2.5274455877	 0.142391
H	-0.732549711	 2.9597203493	 3.8303936329	 0.156755
H	-1.7315674579	 1.5125686953	 3.8326826308	 0.156755
52.0152	77.6267	90.9799	131.9531	208.2195	277.6855	360.5912	385.8233	398.2051	528.7754	538.4655	585.6889	653.8061	748.0148	844.93	848.7512	951.9025	1031.1307	1037.2507	1062.4992	1143.7728	1182.699	1245.173	1269.2279	1288.9779	1311.5087	1344.2783	1372.858	1413.9411	1469.7943	1477.8952	1506.8319	2366.1549	3038.5863	3054.5039	3069.9813	3073.563	3096.9763	3121.1551
FC(F)(F)CCCC#N	FC(F)(F)CCCC#N	
InChI=1S/C5H6F3N/c6-5(7,8)3-1-2-4-9/h1-3H2	InChI=1S/C5H6F3N/c6-5(7,8)3-1-2-4-9/h1-3H2
