19
gdb 37777	2.94758	1.87431	1.40784	0.4019	85.83	-0.2103	-0.0083	0.202	963.0779	0.161982	-348.70012	-348.693325	-348.692381	-348.730764	28.924	
C	-0.0167550493	 1.425006988	 0.2460335649	-0.298875
C	 1.4613724233	 1.5138820775	-0.2057557998	-0.076898
C	 2.3663794823	 0.2715472162	 0.0079446662	-0.032432
C	 2.4608905392	-0.7629029996	 1.0871023376	-0.061528
C	 1.7874926684	-1.9187665632	 1.1474384992	-0.064823
C	 0.6180681892	-2.3052017647	 0.235211778	-0.311299
C	-0.3424141678	-1.1370653575	 0.2821508984	-0.151081
C	 0.0143285289	 0.0040961563	-0.2937808556	 0.237808
C	 1.3135442844	 0.254472464	-1.0510835964	-0.189234
H	-0.2632689329	 1.5515334623	 1.3055123005	 0.098246
H	-0.6110372611	 2.1275301567	-0.3504507625	 0.105971
H	 1.9446039716	 2.4429138777	-0.4870705862	 0.087625
H	 3.3580301042	 0.5249492967	-0.3721708312	 0.090299
H	 3.2381799668	-0.5864801561	 1.8287210244	 0.08218
H	 2.0397698795	-2.6208880084	 1.9383589084	 0.087335
H	 0.9751158402	-2.4813207362	-0.7861438378	 0.122665
H	 0.1630679356	-3.2379097389	 0.578278443	 0.098632
H	-1.1162239149	-1.1479465078	 1.0468340169	 0.088112
H	 1.4909805526	 0.1084935169	-2.1103463682	 0.087296
182.2903	239.7426	308.0458	346.046	435.579	445.1385	497.9116	630.4118	676.744	717.1678	750.6249	774.7473	788.9607	855.9924	875.7225	895.8629	919.1505	961.4863	976.7475	983.7353	996.0791	1009.385	1042.7244	1065.3723	1073.5891	1100.2954	1128.9924	1174.2586	1201.5349	1232.0699	1251.7144	1263.9069	1308.3557	1323.6456	1340.8883	1402.8595	1422.5529	1482.5138	1485.2762	1686.968	1746.8451	3024.1936	3039.8523	3075.039	3084.775	3090.7897	3131.8497	3149.7502	3161.4212	3165.6938	3176.4928
C1C2C3C=CCC=C1C23	C1[C@H]2[C@H]3C=CC[CH][C]1[C@@H]23	
InChI=1S/C9H10/c1-2-4-7-8-5-6(3-1)9(7)8/h2-4,7-9H,1,5H2	InChI=1S/C9H10/c1-2-4-7-8-5-6(3-1)9(7)8/h2-4,7-9H,1,5H2/t7-,8+,9-/m1/s1
