19
gdb 51864	4.26173	0.90324	0.7816	3.7248	78.85	-0.2412	-0.0181	0.2231	1441.7459	0.158906	-423.04091	-423.032194	-423.03125	-423.075536	31.737	
O	-0.0576101759	-0.0606942106	 0.0417632096	-0.243647
C	-0.006856597	 1.1369864119	-0.0826485082	 0.151557
C	 1.2823412545	 1.933032543	-0.1017214048	-0.291781
C	 1.3415975293	 2.9420005284	-1.2605653972	 0.071979
O	 0.2563586189	 3.8375856997	-1.0700360643	-0.268152
C	 0.3313845658	 4.9933954603	-1.8914407566	-0.07796
C	 1.5408499515	 5.85114638	-1.515958226	-0.256762
C	 2.7628802731	 4.9789829051	-1.4001010042	-0.072932
C	 2.6697815702	 3.6543508077	-1.3132188507	-0.066066
H	-0.9279285001	 1.747251822	-0.1896798613	 0.097365
H	 1.3472458203	 2.5015577691	 0.8357229023	 0.131399
H	 2.122571427	 1.2349221789	-0.1451161799	 0.118624
H	 1.1965822978	 2.3902392833	-2.2095829469	 0.084273
H	 0.3956132925	 4.7013268358	-2.9519397146	 0.095261
H	-0.6088235184	 5.5316751883	-1.7452394674	 0.109903
H	 1.6949368359	 6.6279350613	-2.2755995596	 0.107557
H	 1.3557685787	 6.3781141255	-0.5700867157	 0.118535
H	 3.7368596532	 5.4609576286	-1.4041670417	 0.094941
H	 3.5558748827	 3.0265169219	-1.2722743628	 0.095906
43.9699	70.0654	101.6874	180.4058	277.9949	299.7874	385.8557	413.3529	495.6758	530.87	578.6083	680.4023	782.0431	808.1265	848.6942	890.9175	929.5635	973.997	999.3222	1020.113	1043.4339	1078.9865	1096.5811	1116.9925	1122.6809	1207.6995	1223.6932	1240.0849	1276.6067	1299.3549	1348.4491	1358.5468	1368.341	1399.283	1420.1648	1428.1751	1446.5743	1469.47	1500.9277	1722.7873	1829.2896	2911.5098	2920.8803	2979.8948	3016.6508	3031.0968	3051.7222	3092.4373	3109.1817	3152.9794	3175.6415
O=CCC1OCCC=C1	O=CC[C@H]1OCCC=C1	
InChI=1S/C7H10O2/c8-5-4-7-3-1-2-6-9-7/h1,3,5,7H,2,4,6H2	InChI=1S/C7H10O2/c8-5-4-7-3-1-2-6-9-7/h1,3,5,7H,2,4,6H2/t7-/m0/s1
