17
gdb 26310	3.6637	1.07613	1.00087	3.5983	72.86	-0.2177	0.0188	0.2365	1246.547	0.135056	-455.146386	-455.137582	-455.136637	-455.180508	31.844	
C	-1.0165595239	 0.983631472	 0.1924818546	-0.337132
N	-0.231639153	-0.2530083402	 0.1350957704	-0.192502
C	 1.0936685328	-0.1266174949	 0.7484974965	-0.337129
C	-0.2440171352	-0.8884369092	-1.086775667	 0.352796
C	-0.7472446602	-2.0491212853	-1.4948803208	-0.116912
O	-0.4861174585	-2.2267836049	-2.839604401	-0.222071
C	 0.2108583207	-1.1126762762	-3.2610800528	 0.507797
N	 0.6438777093	-0.8688204707	-4.4151829266	-0.582309
O	 0.3719424105	-0.2773901067	-2.2037799522	-0.238876
H	-0.545651978	 1.8159389469	-0.3522135477	 0.1263
H	-2.0066549593	 0.8031239356	-0.2320772145	 0.133463
H	-1.1358199621	 1.2784168028	 1.2395057015	 0.125397
H	 0.9721545599	 0.1693840593	 1.7949191155	 0.125398
H	 1.5995701554	-1.094225247	 0.7181423626	 0.133467
H	 1.7287673981	 0.619288191	 0.2470432541	 0.126305
H	-1.2895978874	-2.8236597176	-0.9832578616	 0.162356
H	 0.4114609107	-1.628818505	-5.049334461	 0.233651
45.8484	119.0069	137.2073	207.8199	223.526	229.3504	346.1642	401.0498	437.9322	533.5827	600.2698	677.596	736.4547	747.7255	775.7231	783.1078	888.8523	931.201	966.0754	1017.47	1061.5794	1098.9394	1117.9145	1164.7801	1181.8597	1202.7829	1222.6709	1334.4458	1360.2011	1439.8175	1468.3361	1479.9416	1495.0682	1500.0152	1519.1179	1761.7792	1820.0533	2991.2694	2995.4536	3078.6618	3078.8265	3125.3058	3127.539	3307.4386	3543.1447
CN(C)C1=COC(=N)O1	CN(C)C1=CO[C@H]([NH])O1	
InChI=1S/C5H8N2O2/c1-7(2)4-3-8-5(6)9-4/h3,6H,1-2H3	InChI=1S/C5H9N2O2/c1-7(2)4-3-8-5(6)9-4/h3,5-6H,1-2H3/t5-/m0/s1
