20
gdb 32917	4.49466	0.80842	0.72035	0.5708	84.84	-0.1708	0.0604	0.2313	1620.7024	0.172252	-399.353276	-399.343542	-399.342597	-399.388737	35.63	
C	 0.3204471356	 1.5623198106	 0.1399845318	-0.391021
C	 0.7059752087	 0.0869868604	 0.1486112795	-0.116758
N	 0.0296890229	-0.6202467408	 1.2496407626	-0.404766
C	 0.3409551185	-1.986635536	 1.3848214441	 0.295541
C	-0.2515094487	-3.1385017327	 0.9170756954	-0.215884
C	 0.4951565664	-4.2452531582	 1.4228818293	-0.200651
C	 1.5371554772	-3.7370913582	 2.165608614	 0.263446
N	 2.6229172351	-4.3320808029	 2.8467862919	-0.613006
N	 1.4332354894	-2.3663024285	 2.1367177816	-0.280929
H	 0.5692352759	 2.0334519735	 1.0953558917	 0.124204
H	 0.8418118185	 2.095064806	-0.6607508375	 0.116671
H	-0.7561840867	 1.687377643	-0.025911524	 0.11209
H	 0.4852985441	-0.3702741154	-0.8302736629	 0.089987
H	 1.7859230246	-0.0169937588	 0.302183863	 0.104645
H	-0.9734558774	-0.5034032495	 1.1619746977	 0.224512
H	-1.1276578922	-3.1817692938	 0.2873055731	 0.078125
H	 0.2907851126	-5.2934531575	 1.2631205311	 0.076932
H	 2.4362922011	-4.4488968875	 3.8393913963	 0.239893
H	 2.8162975731	-5.2515289066	 2.468200205	 0.243122
H	 2.0612448113	-1.7324321668	 2.6007345563	 0.253847
45.9819	66.2236	104.059	133.2415	240.9392	246.128	300.2406	339.4348	385.993	435.2953	498.3346	642.2214	646.3912	680.5368	705.8729	763.4596	775.1328	804.2719	815.722	832.7404	917.3247	1008.3675	1019.4558	1057.7473	1068.1311	1134.4201	1156.1298	1166.2875	1227.3435	1262.4395	1289.1258	1308.8984	1371.2199	1408.9513	1414.8666	1457.3377	1485.3724	1497.2075	1504.4912	1522.3238	1553.7408	1630.1268	1659.0874	2964.2278	3032.0243	3055.7519	3099.2023	3118.754	3232.1824	3247.463	3480.423	3536.157	3585.4627	3675.7159
CCNC1=CC=C(N)N1	CCNc1ccc(N)[nH]1	
InChI=1S/C6H11N3/c1-2-8-6-4-3-5(7)9-6/h3-4,8-9H,2,7H2,1H3	InChI=1S/C6H11N3/c1-2-8-6-4-3-5(7)9-6/h3-4,8-9H,2,7H2,1H3
