20
gdb 104121	2.53529	1.32578	1.14465	4.2701	76.19	-0.25	0.0579	0.3078	1189.9219	0.170422	-440.322645	-440.313452	-440.312508	-440.356665	34.325	
C	-0.1814314229	 1.5566371344	-0.2040083083	-0.398004
C	-0.0458209959	 0.0320400907	-0.1772138474	-0.209735
C	 0.8904388084	-0.5536097007	-1.2499713574	 0.351892
C	 2.341024843	-0.1159735273	-1.1009622698	-0.44747
C	 0.7249353545	-2.0823771442	-1.3545073357	-0.143556
O	-0.2809120499	-2.2447079463	-2.35580969	-0.254345
C	-0.3451175547	-1.1021343684	-3.1033140004	 0.482745
N	-1.0128582475	-0.925560146	-4.1539635671	-0.581307
O	 0.4263840198	-0.1363949238	-2.5577487307	-0.258722
H	 0.7565611449	 2.0576161076	 0.0540956968	 0.117878
H	-0.4885618634	 1.8990760375	-1.1954022194	 0.147897
H	-0.9355645539	 1.8828316497	 0.5178413733	 0.118027
H	 0.3164435091	-0.3019256698	 0.8034229493	 0.099346
H	-1.0343041392	-0.423653341	-0.3138388858	 0.113718
H	 2.7425346783	-0.4584490939	-0.1418246469	 0.123226
H	 2.9499809654	-0.5365573251	-1.905287551	 0.130821
H	 2.4288905777	 0.971647052	-1.1403349902	 0.141504
H	 1.6480270559	-2.5772209982	-1.6794455926	 0.112513
H	 0.3737839861	-2.5414327383	-0.4277351692	 0.12434
H	-1.4842166855	-1.788634329	-4.4141848177	 0.229231
71.2837	111.5925	141.9274	204.0058	224.603	245.0924	312.0486	339.104	389.7851	475.4688	517.3221	618.2332	718.4714	725.8377	784.2183	801.7229	804.9471	882.0656	929.4587	960.0951	1005.6541	1008.1096	1027.9896	1059.7235	1079.5294	1090.9436	1186.9763	1198.928	1229.2332	1268.4814	1306.2365	1324.4968	1380.3716	1409.7985	1413.4962	1417.9625	1475.2493	1488.9573	1494.2764	1505.5665	1509.4087	1522.6033	1798.3704	3023.5752	3033.0787	3044.4948	3048.6398	3061.0227	3107.9722	3109.4718	3120.0812	3127.9076	3135.5061	3535.2639
CCC1(C)COC(=N)O1	CC[C@@]1(C)CO[C]([NH])O1	
InChI=1S/C6H11NO2/c1-3-6(2)4-8-5(7)9-6/h7H,3-4H2,1-2H3	InChI=1S/C6H11NO2/c1-3-6(2)4-8-5(7)9-6/h7H,3-4H2,1-2H3/t6-/m0/s1
