19
gdb 55696	3.16673	1.05642	1.02065	3.9235	71.81	-0.2478	0.047	0.2948	1258.4114	0.158802	-456.362607	-456.353121	-456.352177	-456.397262	34.96	
C	-0.0302782811	 1.6498220576	 0.1520192065	-0.439221
C	-0.0218733642	 0.1286093052	 0.0326547076	 0.303742
C	 1.1033776168	-0.4304320953	-0.8791716767	-0.090378
O	 1.8520944072	-0.8866580806	 0.2728651806	-0.273261
C	 0.7597809519	-0.5925774425	 1.1554442071	-0.129661
N	-1.3648274527	-0.3969158929	-0.1744827058	-0.404801
C	-1.9687515051	-0.2573504771	-1.4080016337	 0.448941
N	-3.158826529	-0.9621863926	-1.5365385987	-0.564612
O	-1.4894349579	 0.4008360465	-2.314231616	-0.392703
H	 0.9839480259	 2.0192748654	 0.3310769234	 0.120942
H	-0.4090289015	 2.0932681314	-0.7707999797	 0.15411
H	-0.66760536	 1.9643473895	 0.9847626584	 0.11039
H	 0.7891625737	-1.2597833657	-1.5228557479	 0.103434
H	 1.6619694909	 0.300885246	-1.4707242533	 0.112214
H	 1.0636034773	 0.02348569	 2.0098942601	 0.107215
H	 0.2738176454	-1.5067465623	 1.532746926	 0.083605
H	-1.6033489007	-1.2236551096	 0.3520797244	 0.238559
H	-3.7247734506	-1.0776187163	-0.7091240994	 0.249472
H	-3.6807476764	-0.6901900767	-2.355947023	 0.262013
69.0262	71.9624	111.5256	166.4225	261.1786	314.8035	337.2736	370.3462	391.261	421.2829	433.247	477.9553	559.8357	615.7697	760.3902	782.9185	849.9154	913.0345	931.8649	942.058	1000.5876	1012.3375	1037.0352	1051.1788	1107.7782	1151.4424	1160.9438	1193.9967	1222.8823	1288.0661	1305.9709	1338.0705	1378.1483	1404.5492	1481.1259	1504.4191	1508.2707	1517.1722	1531.634	1625.2511	1793.693	2969.7782	3034.0846	3040.3502	3051.3315	3090.8897	3110.1952	3141.5421	3574.224	3608.6162	3688.2653
CC1(COC1)NC(N)=O	CC1(COC1)NC(=O)N	
InChI=1S/C5H10N2O2/c1-5(2-9-3-5)7-4(6)8/h2-3H2,1H3,(H3,6,7,8)	InChI=1S/C5H10N2O2/c1-5(2-9-3-5)7-4(6)8/h2-3H2,1H3,(H3,6,7,8)
