19
gdb 7372	3.70167	1.19222	0.95762	3.4957	68.91	-0.2381	0.0361	0.2742	1240.2973	0.163243	-402.236691	-402.226778	-402.225834	-402.272217	34.7	
C	 0.443206627	 1.0033517086	 0.6672908299	-0.388417
C	-0.1206278614	-0.2264983924	-0.0240065249	-0.039628
O	 0.8261494212	-0.6773310433	-0.9781343575	-0.271249
C	 0.4886268983	-1.8880086579	-1.6416240814	 0.044198
C	-0.5384239956	-1.694247286	-2.7586539121	-0.399685
C	 1.769970623	-2.5307959507	-2.2039841677	 0.371648
N	 2.9219317087	-1.9316968319	-1.8174514769	-0.514661
O	 1.7127662747	-3.5154357477	-2.9170364972	-0.377799
H	 1.3802733679	 0.7639773632	 1.1786456728	 0.123186
H	 0.6404914418	 1.7959814819	-0.0600619513	 0.129244
H	-0.267571304	 1.3821397165	 1.4075929785	 0.120489
H	-0.3224027291	-1.025892133	 0.7076333033	 0.092573
H	-1.0755398032	 0.0162461319	-0.5129057565	 0.098424
H	 0.0934281822	-2.6087710138	-0.9068023591	 0.096175
H	-0.1976370504	-0.9192381688	-3.4518518278	 0.124097
H	-0.6464823215	-2.6322137509	-3.3060808958	 0.151578
H	-1.5132074194	-1.401896876	-2.3595342317	 0.111649
H	 2.882562761	-1.0855447962	-1.2759278	 0.269411
H	 3.7945401691	-2.2816845638	-2.1747967745	 0.258767
45.5253	58.5708	87.7877	163.3306	213.9908	251.2013	274.3073	292.4468	346.1212	377.3555	415.5885	516.2352	562.0969	629.4793	736.0774	815.889	825.0484	865.5439	953.797	1051.201	1091.1345	1095.652	1117.571	1152.0344	1154.2434	1188.8282	1300.7779	1318.9252	1348.1517	1372.6597	1395.3164	1402.415	1437.4927	1484.4937	1492.551	1495.7928	1500.597	1529.3707	1588.4497	1799.2938	2970.1905	2975.5515	3010.7997	3044.3196	3049.25	3118.4502	3119.6656	3121.3585	3147.0194	3604.42	3746.989
CCOC(C)C(N)=O	CCO[C@@H](C)C(=O)N	
InChI=1S/C5H11NO2/c1-3-8-4(2)5(6)7/h4H,3H2,1-2H3,(H2,6,7)	InChI=1S/C5H11NO2/c1-3-8-4(2)5(6)7/h4H,3H2,1-2H3,(H2,6,7)/t4-/m0/s1
