19
gdb 23066	3.62253	1.01577	0.81846	3.9519	84.77	-0.2035	-0.0817	0.1218	1385.0584	0.158617	-419.154391	-419.145262	-419.144317	-419.188842	33.117	
C	-0.6410099919	 1.5276177613	 0.1359164642	-0.490949
C	 0.0150372715	 0.18422174	 0.018013859	 0.173829
N	 0.8917861876	-0.2490015162	 1.0508167566	-0.045008
O	 1.0557129252	 0.5633800594	 1.9501219388	-0.27168
C	-0.1345287538	-0.7041229071	-0.9867052644	 0.308336
C	 0.5403743099	-2.0674579635	-1.0852614055	-0.265958
N	-0.2098072053	-2.826129317	-2.0968884231	-0.288764
H	-1.0144750943	-3.254591709	-1.6480847692	 0.220907
C	-0.6856040645	-1.8120744102	-3.0460255879	-0.180621
C	-1.0137600774	-0.550481706	-2.2057347109	-0.325597
H	 0.1138654104	 2.3175299966	 0.2063688222	 0.145521
H	-1.2936059359	 1.7342719298	-0.7134169034	 0.117681
H	-1.2281870273	 1.5870107727	 1.0582199832	 0.144062
H	 1.5735952481	-1.9317790224	-1.4350181241	 0.134541
H	 0.5981594844	-2.5949321048	-0.1337180191	 0.141731
H	 0.1210060512	-1.5878055759	-3.7550343286	 0.116238
H	-1.53650341	-2.1829998866	-3.6209939107	 0.110434
H	-2.0693702226	-0.5524864714	-1.9023065289	 0.128442
H	-0.8420225154	 0.3916309304	-2.7363543882	 0.126854
71.2729	83.2803	121.1615	175.5569	198.0566	267.3071	299.6953	371.7271	425.3469	466.61	530.9362	649.9772	709.4028	771.0493	833.2551	852.0682	912.1747	937.0001	944.6641	991.5187	1020.2065	1054.8206	1066.0811	1108.9634	1124.4875	1179.2918	1219.8611	1249.8525	1276.1162	1307.8111	1324.641	1368.7084	1405.6516	1457.2749	1467.4166	1470.6208	1471.6182	1475.6574	1503.8024	1570.2472	1714.2917	3011.2792	3020.5852	3032.8925	3045.4657	3075.553	3097.1831	3111.3434	3138.1734	3141.3792	3501.6681
CC(=N[O-])C12C[NH+]1CC2	CC(=C1CNCC1)[N][O]	
InChI=1S/C6H10N2O/c1-5(7-9)6-2-3-8(6)4-6/h9H,2-4H2,1H3	InChI=1S/C6H10N2O/c1-5(8-9)6-2-3-7-4-6/h7H,2-4H2,1H3
