22
gdb 103093	2.144	1.21637	1.17099	1.0682	89.79	-0.2188	0.0367	0.2555	1274.3153	0.190649	-367.156939	-367.146241	-367.145296	-367.191985	39.864	
C	 0.633187619	 0.7564463791	 0.2137699667	-0.390228
C	 0.1946704377	-0.6479249325	-0.2251581532	-0.248457
C	-1.2924239992	-0.9260976944	-0.0431743748	 0.316993
C	-2.2178581796	-0.0623096339	-0.8821167712	-0.445003
C	-1.7452210343	-2.3462285638	 0.2277986346	-0.280529
C	-0.8048252741	-3.4247934397	 0.353772477	 0.355599
C	-0.0503699135	-4.3564613647	 0.4642578164	-0.460342
N	-1.8614553143	-1.2911780513	 1.254922001	-0.134784
C	-1.0441492941	-1.3816461328	 2.457195345	-0.319136
H	 1.7103673591	 0.8820522306	 0.0675730424	 0.115267
H	 0.1306828124	 1.5400721474	-0.3609110954	 0.120723
H	 0.4187636729	 0.9318575861	 1.2725400953	 0.121345
H	 0.4285493897	-0.784334523	-1.2887855833	 0.102544
H	 0.7841726416	-1.4008438943	 0.3029233919	 0.114844
H	-1.9813471481	-0.1572760308	-1.947773572	 0.114582
H	-3.258622811	-0.3543263473	-0.725085862	 0.125817
H	-2.1267375037	 0.9937725266	-0.6084223006	 0.122189
H	-2.7060493232	-2.6525429154	-0.183938654	 0.105883
H	 0.6172404008	-5.1773736494	 0.5533530136	 0.196418
H	-0.0289704528	-1.7715576383	 2.3093638923	 0.116709
H	-0.9771135786	-0.3864500869	 2.9072465017	 0.122912
H	-1.5524912469	-2.0394144715	 3.1690664687	 0.126655
85.533	118.3249	133.6016	180.0319	187.8827	203.4344	228.7138	282.5015	299.6982	356.4981	374.6647	388.9328	484.2411	579.6176	597.3305	610.8107	656.1502	683.6757	728.3737	784.0078	847.0239	946.5978	1002.2622	1010.9083	1043.3595	1059.3697	1088.0043	1134.3939	1154.2831	1166.4339	1172.7983	1262.6637	1295.8811	1333.4469	1367.2263	1402.3522	1410.5576	1415.7026	1452.3943	1476.4667	1485.2581	1490.1983	1494.7598	1504.3868	1509.2436	1511.6658	2225.3265	3014.245	3030.6991	3036.1351	3041.6479	3079.6841	3093.4846	3100.1218	3103.3662	3105.523	3109.2588	3116.9973	3124.5971	3502.6054
CCC1(C)C(C#C)N1C	CC[C@@]1(C)[C@@H](C#C)N1C	
InChI=1S/C8H13N/c1-5-7-8(3,6-2)9(7)4/h1,7H,6H2,2-4H3	InChI=1S/C8H13N/c1-5-7-8(3,6-2)9(7)4/h1,7H,6H2,2-4H3/t7-,8+,9?/m1/s1
