12
gdb 9121	5.28351	0.82737	0.71856	6.0155	64.19	-0.2581	-0.1076	0.1505	1439.9008	0.079841	-418.440448	-418.431566	-418.430622	-418.475739	28.317	
O	-0.0965375338	 1.4830549503	 0.0099159603	-0.403582
C	-0.0258211862	 0.0687522337	 0.0030172184	-0.218685
C	-1.3685411721	-0.4912603857	 0.0123815588	 0.12393
C	-2.4672087419	-0.9934172817	 0.0197292859	 0.031852
C	-3.8037190919	-1.5315901182	 0.0293462156	 0.156428
O	-4.0716773198	-2.7098714281	 0.0267375977	-0.251276
C	-4.9170081252	-0.451715525	 0.0443271459	 0.076771
O	-6.0783083298	-0.7433561484	 0.0535172234	-0.201061
H	 0.8052406505	 1.8202647681	 0.0057545117	 0.299686
H	 0.4989036526	-0.3144444291	-0.8878072587	 0.139471
H	 0.5145507799	-0.3222976565	 0.8809612278	 0.139472
H	-4.5521392624	 0.5979270806	 0.0457631433	 0.106995
47.6808	61.0949	72.8369	148.2894	194.0583	225.5433	278.5365	377.6795	409.7513	563.6356	584.9199	601.6521	839.9928	926.4996	1003.0823	1008.6455	1071.3742	1170.9756	1243.4524	1255.5969	1397.3575	1455.1003	1486.1906	1768.4093	1843.2262	2325.0242	2907.9357	2967.1418	2987.6939	3822.5819
OCC#CC(=O)C=O	OCC#CC(=O)C=O	
InChI=1S/C5H4O3/c6-3-1-2-5(8)4-7/h4,6H,3H2	InChI=1S/C5H4O3/c6-3-1-2-5(8)4-7/h4,6H,3H2
