14
gdb 7711	3.48671	2.03645	1.34282	4.1353	60.17	-0.271	-0.0033	0.2677	861.909	0.109555	-415.92038	-415.913512	-415.912568	-415.951879	25.252	
N	-0.0734192934	 1.3029497166	 0.2350379232	-0.491478
C	-0.051629847	 0.071354221	-0.0290242226	 0.40473
C	-1.280627496	-0.7910239837	-0.0431472111	-0.278973
C	-1.2251992478	-1.7485164121	-1.2309550775	-0.172352
N	 0.0575238999	-2.4298740088	-1.1965769543	-0.36044
C	 1.233429475	-1.8614870104	-0.8112715177	 0.467764
O	 2.3124883023	-2.3806695282	-0.8913912084	-0.364838
O	 1.1410838734	-0.577926705	-0.2948879733	-0.249964
H	 0.871560016	 1.6916730896	 0.2085487082	 0.234575
H	-1.3125171189	-1.3737491549	 0.8854233111	 0.141169
H	-2.1578060341	-0.1455221316	-0.076108062	 0.146757
H	-2.0208793379	-2.4947605313	-1.161693301	 0.127683
H	-1.3657133048	-1.1987679961	-2.1725799504	 0.1274
H	 0.1698586933	-3.3176480551	-1.658581104	 0.267966
88.3582	113.0341	220.937	375.0796	437.2138	481.2423	512.7243	548.3139	598.8397	706.9952	753.4693	788.8639	921.7794	937.8821	950.6895	978.629	1083.563	1102.2663	1111.7186	1208.0749	1245.0976	1271.748	1349.7196	1379.9938	1400.1456	1464.4497	1477.5456	1524.9076	1771.0522	1874.028	3003.9564	3046.8011	3090.7252	3146.0857	3470.7074	3652.3845
N=C1CCNC(=O)O1	[NH][C]1CCNC(=O)O1	
InChI=1S/C4H6N2O2/c5-3-1-2-6-4(7)8-3/h5H,1-2H2,(H,6,7)	InChI=1S/C4H6N2O2/c5-3-1-2-6-4(7)8-3/h5H,1-2H2,(H,6,7)
