19
gdb 84766	2.27741	1.54018	1.22585	4.4034	80.43	-0.2579	0.0025	0.2604	1104.6492	0.159823	-382.091032	-382.082132	-382.081188	-382.124167	34.148	
C	-0.1525374256	 1.5898764933	-0.0045888931	-0.397845
C	 0.0574781949	 0.0752524927	-0.0095845923	-0.031635
C	 0.8799649721	-0.4790371568	-1.1544502347	-0.076552
C	 1.6344286657	-1.5114548215	-0.7828043964	-0.090534
C	 1.4523710563	-1.8316339334	 0.6810664548	-0.291725
C	 0.8221372433	-0.5077158616	 1.2377715413	 0.079311
N	 1.8208256424	 0.4620296988	 1.7060700405	-0.531912
C	-0.0980200452	-0.7767423766	 2.3515174338	 0.291608
N	-0.8219010176	-1.0112898015	 3.2212622002	-0.347921
H	 0.7937957951	 2.1344606426	-0.0164601679	 0.12376
H	-0.7302670264	 1.8851661147	-0.886514409	 0.112614
H	-0.7058997141	 1.904112555	 0.8844935732	 0.136533
H	-0.9332053705	-0.401200431	-0.0358279132	 0.106578
H	 0.8031379061	-0.0804273039	-2.1600401589	 0.101717
H	 2.2750374343	-2.0947300248	-1.4340092183	 0.103304
H	 0.776223419	-2.6867333413	 0.8149492892	 0.129689
H	 2.3800363508	-2.0733129343	 1.2108344152	 0.107968
H	 2.3268704376	 0.0751540564	 2.4975826445	 0.238699
H	 2.5002734918	 0.6060860831	 0.9633648412	 0.236343
93.4999	143.5431	192.6167	212.9663	270.1023	280.3331	296.5609	392.3544	400.4589	495.7727	522.9875	573.3455	592.7439	698.9349	759.2259	773.8273	864.5333	903.0465	930.7846	967.6224	969.1245	971.612	1022.6741	1046.558	1107.0544	1113.1544	1137.3763	1153.4956	1246.1285	1267.1235	1292.2632	1337.4889	1357.5074	1377.1076	1415.9554	1478.4713	1491.0699	1492.9361	1644.8239	1681.1415	2358.4962	2999.2663	3020.8663	3045.3229	3068.1792	3112.4535	3132.1028	3186.4402	3211.4323	3483.4708	3567.7009
CC1C=CCC1(N)C#N	C[C@H]1C=CC[C@]1(N)C#N	
InChI=1S/C7H10N2/c1-6-3-2-4-7(6,9)5-8/h2-3,6H,4,9H2,1H3	InChI=1S/C7H10N2/c1-6-3-2-4-7(6,9)5-8/h2-3,6H,4,9H2,1H3/t6-,7-/m0/s1
