18
gdb 91709	2.5982	1.80454	1.58779	3.383	70.36	-0.2427	0.0243	0.2671	924.2698	0.150862	-439.101544	-439.094423	-439.093479	-439.13297	28.684	
O	 0.0612147694	 1.4215238928	-0.1382760928	-0.426674
C	 0.0150415228	 0.0200873179	 0.0143079158	 0.144876
C	 0.6603019695	-0.5185257197	 1.3371411648	-0.268442
C	-0.4181095568	-1.423058548	 1.9580992504	 0.113357
C	-1.2562345688	-1.8590153395	 0.7495807127	-0.258475
C	-1.4453917916	-0.4795883424	 0.0950727801	-0.012285
N	-2.2603440428	 0.3711503353	 0.9747025866	-0.247188
C	-2.1084016488	 0.1954045854	 2.2179928393	 0.122448
O	-1.2569171336	-0.6498334407	 2.8525430135	-0.242557
H	 0.9807508903	 1.6779578526	-0.2571206498	 0.28364
H	 0.4889766123	-0.4725585658	-0.8498873454	 0.065144
H	 1.5743227705	-1.08663452	 1.1381693934	 0.099343
H	 0.9113083184	 0.305343438	 2.0097462577	 0.119403
H	-0.0255691084	-2.233171505	 2.573404905	 0.085723
H	-0.684980001	-2.5426856366	 0.1127796147	 0.102512
H	-2.1980894071	-2.3370552572	 1.0274609746	 0.116389
H	-1.9192542315	-0.5080851744	-0.8879216935	 0.078214
H	-2.7012881228	 0.7476078775	 2.9444463331	 0.124571
90.2627	234.3652	260.4952	366.8896	387.5282	416.1177	451.017	487.3795	610.7225	676.0459	733.5917	810.6813	830.4392	855.1629	900.4386	933.0499	954.8017	963.0985	976.0448	1021.1364	1040.2393	1086.4123	1115.6864	1151.3474	1172.2346	1222.7488	1231.3135	1240.8099	1261.6067	1310.2538	1332.9528	1352.7307	1361.9508	1372.6965	1402.967	1433.9963	1471.9071	1492.6912	1719.0749	2962.5274	3053.1682	3055.7989	3090.9971	3108.6984	3113.737	3116.2654	3163.0981	3823.4923
OC1CC2CC1N=CO2	O[C@H]1C[C@@H]2C[C@H]1N=CO2	
InChI=1S/C6H9NO2/c8-6-2-4-1-5(6)7-3-9-4/h3-6,8H,1-2H2	InChI=1S/C6H9NO2/c8-6-2-4-1-5(6)7-3-9-4/h3-6,8H,1-2H2/t4-,5+,6-/m0/s1
