14
gdb 15319	4.4772	1.16458	1.02914	3.7673	60.43	-0.2566	-0.059	0.1975	1094.2552	0.10392	-419.662847	-419.654762	-419.653818	-419.696554	27.214	
O	-0.3922262714	 0.3604699719	 0.291451304	-0.232928
C	 0.0883775133	 1.4582037319	 0.1876853417	 0.158662
C	 1.5098727487	 1.7306393456	-0.2759539978	-0.322832
C	 1.528447897	 2.7452569453	-1.3961367746	 0.046582
O	 1.2187517291	 4.0866526603	-1.0558196258	-0.221613
C	 2.5424548925	 3.8341811698	-1.5170208865	-0.045147
C	 3.6646713057	 3.9668564486	-0.5354913529	 0.145173
O	 3.5391842036	 3.9210565855	 0.6622404483	-0.24464
H	-0.4899998802	 2.3731436044	 0.4421165963	 0.100981
H	 2.0650288588	 2.1371575339	 0.5773733699	 0.165558
H	 1.9637358639	 0.7875328212	-0.5933728545	 0.126928
H	 1.087677933	 2.4126722255	-2.3379842537	 0.11818
H	 2.7627803233	 4.206431083	-2.5181789554	 0.113043
H	 4.6609072726	 4.0973135833	-1.0123477492	 0.092053
59.4746	70.1536	140.6729	156.9231	237.004	267.9157	414.661	453.0275	508.3722	740.2027	784.3709	848.9098	850.708	912.4789	973.6504	1002.0957	1059.0743	1089.1749	1137.2364	1143.8503	1240.1299	1272.1726	1300.8322	1387.7442	1420.2159	1422.5736	1448.243	1452.1829	1821.0718	1836.229	2894.608	2899.8779	3047.0971	3092.4353	3112.5752	3117.65
O=CCC1OC1C=O	O=CC[C@H]1O[C@H]1C=O	
InChI=1S/C5H6O3/c6-2-1-4-5(3-7)8-4/h2-5H,1H2	InChI=1S/C5H6O3/c6-2-1-4-5(3-7)8-4/h2-5H,1H2/t4-,5+/m1/s1
