15
gdb 54502	2.60955	1.69109	1.14495	5.6383	67.78	-0.2648	-0.011	0.2539	1021.9273	0.113564	-453.951476	-453.9439	-453.942956	-453.983737	28.801	
O	-0.128392217	-0.1092404382	 0.1895033753	-0.380585
C	-0.02875549	 1.2118090272	-0.0343836749	 0.367829
O	 1.0147803787	 1.7477076878	-0.2993821905	-0.350264
C	-1.3289552508	 1.9302403859	 0.0634207913	 0.079324
C	-1.6685313677	 3.1633312736	-0.7841995014	-0.319829
C	-1.7030508409	 3.2872228741	 0.6913127362	-0.042606
N	-2.8940070566	 2.658287609	 1.2877149441	-0.355208
C	-2.5702676084	 1.4095722622	 0.7034777023	 0.354233
N	-2.9974928321	 0.2202597194	 0.764441037	-0.586769
H	-3.8396668823	 0.116504661	 1.3293448557	 0.231304
H	-1.058798931	-0.3554869544	 0.3700922523	 0.323292
H	-0.7913071625	 3.5747760219	-1.2739407534	 0.162365
H	-2.5861099817	 3.1700660511	-1.3650565947	 0.127886
H	-1.0625571998	 3.9259192288	 1.2843581272	 0.143119
H	-3.811820468	 3.0754655307	 1.1745334934	 0.245909
92.6632	150.3146	190.3124	215.7484	359.7306	415.8088	458.035	572.8357	580.7617	648.4221	706.4134	745.5895	748.0839	783.7923	840.454	862.6141	892.8562	956.8004	979.0848	1023.1627	1063.7291	1075.4239	1100.856	1183.1817	1203.6726	1294.709	1306.754	1327.357	1391.7656	1430.7457	1476.7735	1788.3956	1858.9118	3123.1673	3216.0042	3224.6274	3492.9496	3529.6808	3536.6722
[O-]C(=O)C12CC1NC2=[NH2+]	OC(=O)[C@]12C[C@H]1N[C]2[NH]	
InChI=1S/C5H6N2O2/c6-3-5(4(8)9)1-2(5)7-3/h2H,1H2,(H2,6,7)(H,8,9)	InChI=1S/C5H6N2O2/c6-3-5(4(8)9)1-2(5)7-3/h2H,1H2,(H2,6,7)(H,8,9)/t2-,5-/m1/s1
