19
gdb 107486	2.08792	1.77715	1.23329	0.3777	75.12	-0.249	0.0762	0.3251	1092.209	0.157549	-422.968546	-422.959996	-422.959051	-423.001716	32.528	
C	-0.2573179728	 1.5206459507	 0.115893619	-0.389878
C	 0.1087620403	 0.0318946212	 0.0321752638	-0.316349
C	 0.7558366591	-0.3406740594	-1.2646084199	 0.335197
O	 1.5759374942	-1.5241247766	-1.3340170422	-0.294342
C	 2.146650628	-0.2801100854	-1.7640977928	-0.048669
C	 1.6971874186	-0.0639686103	-3.2188982366	-0.34733
C	 0.2443943632	-0.1662846015	-2.698444478	 0.408209
C	-0.9948350225	-0.6237367715	-3.3194845383	-0.265935
O	-0.7506711631	 0.7732697397	-3.0602064162	-0.271359
H	 0.6370967795	 2.1482992818	 0.0474404826	 0.115878
H	-0.9282922548	 1.8020868542	-0.6989110688	 0.148274
H	-0.7518051469	 1.7417577892	 1.0660736605	 0.113974
H	 0.79327117	-0.2483020985	 0.8402840164	 0.116411
H	-0.7927752551	-0.5810088542	 0.1653518376	 0.108899
H	 3.0561211123	 0.0479538275	-1.2742790345	 0.107418
H	 1.9021976988	 0.9427230004	-3.5933280868	 0.123014
H	 2.0371257317	-0.8130372493	-3.9374631295	 0.115696
H	-1.0001619352	-0.9019517952	-4.372005429	 0.121171
H	-1.7739566051	-1.0814077627	-2.7120269673	 0.119721
81.3854	140.1175	158.5461	193.92	256.0367	293.2958	386.4607	411.4366	452.987	524.3761	608.1418	635.9938	767.9724	807.5959	845.7739	874.3218	890.616	921.8611	942.8547	974.9283	984.2762	1059.6988	1070.058	1108.1234	1115.0237	1126.8082	1155.3488	1163.7847	1209.8264	1246.1487	1263.0605	1300.6143	1350.3492	1410.1675	1434.2554	1452.444	1478.7538	1483.6776	1498.5808	1516.62	1538.1307	3022.4098	3043.7213	3065.1647	3070.4253	3087.4843	3109.5823	3125.6478	3133.8147	3175.3283	3188.0773
CCC12OC1CC21CO1	CC[C@]12O[C@H]1C[C@]12CO1	
InChI=1S/C7H10O2/c1-2-7-5(9-7)3-6(7)4-8-6/h5H,2-4H2,1H3	InChI=1S/C7H10O2/c1-2-7-5(9-7)3-6(7)4-8-6/h5H,2-4H2,1H3/t5-,6+,7-/m0/s1
