19
gdb 35870	2.07069	1.7731	1.17466	4.8572	78.52	-0.2505	0.0236	0.2741	1101.7714	0.161588	-382.068791	-382.060602	-382.059658	-382.102258	31.391	
N	-0.0459899337	-1.1730275291	 0.0713803079	-0.340852
C	-0.0405058162	-0.0174774084	 0.052138139	 0.325855
C	-0.0061854192	 1.4567238989	-0.0032765949	-0.253363
N	-0.6729766236	 2.015489935	 1.1839232158	-0.277331
C	 0.4076658677	 2.2229257145	 2.1633915459	-0.18068
C	 1.635303342	 2.6910581167	 1.3558308323	-0.298433
C	 1.4530864032	 1.9992318519	-0.0002595266	 0.367093
C	 2.5693567059	 1.2555735611	-0.6835653888	-0.31182
C	 2.0648687684	 2.5537064061	-1.2612642566	-0.317756
H	-0.548454125	 1.7560297445	-0.9054895208	 0.121505
H	-1.0653362769	 2.9155640026	 0.9254171185	 0.227388
H	 0.0890967921	 2.9290744751	 2.9330876598	 0.111229
H	 0.6139215662	 1.2651328529	 2.6551485315	 0.129859
H	 1.6136510013	 3.7809624305	 1.2372191484	 0.10157
H	 2.58250742	 2.4298384801	 1.8362499179	 0.11027
H	 3.5404126893	 1.2500039791	-0.1997894534	 0.118465
H	 2.3252978312	 0.3331824652	-1.2001540324	 0.13639
H	 1.4853480107	 2.5122476502	-2.1786241512	 0.11539
H	 2.6901442966	 3.4365887032	-1.1711758024	 0.115221
32.3622	148.7884	156.6602	262.8355	314.004	319.1967	399.8514	463.4278	532.0042	580.0337	642.7706	776.557	779.3412	816.2772	845.3903	896.6819	917.5252	929.9613	952.3277	975.5768	990.0255	1010.6483	1062.797	1087.6133	1096.9484	1117.029	1189.9572	1198.8366	1207.1249	1249.2153	1275.6642	1304.9443	1346.9856	1355.1198	1373.3765	1466.2296	1469.7676	1492.7059	1503.7801	1504.4047	2355.4029	3031.2931	3043.8219	3065.2159	3088.5655	3113.0574	3119.7901	3131.1974	3200.1904	3219.3747	3516.3371
N#CC1NCCC11CC1	N#C[C@H]1NCCC21CC2	
InChI=1S/C7H10N2/c8-5-6-7(1-2-7)3-4-9-6/h6,9H,1-4H2	InChI=1S/C7H10N2/c8-5-6-7(1-2-7)3-4-9-6/h6,9H,1-4H2/t6-/m1/s1
