20
gdb 113043	3.19154	0.86343	0.74692	5.3476	80.23	-0.2613	0.0306	0.2919	1562.0469	0.170159	-403.157218	-403.147672	-403.146727	-403.192825	34.195	
C	-0.1160693984	 1.4161727699	 0.492019119	-0.382492
C	-0.0521139799	-0.0798858643	 0.1706457144	-0.190464
C	-1.4033381601	-0.6458221152	-0.2231747531	 0.178109
C	-1.5773143155	-2.1788696665	-0.3085524262	-0.348117
C	-2.7131838654	-1.9613483013	 0.7108454431	 0.166224
C	-2.6191840766	-2.7271567977	 2.0345030272	-0.355931
C	-3.6456903006	-2.3255045731	 2.9939388335	 0.26663
N	-4.4669639237	-2.0130729593	 3.7439434291	-0.301625
O	-2.3781004446	-0.5710592323	 0.8555271538	-0.304488
H	 0.8599723531	 1.793935744	 0.8095081009	 0.115107
H	-0.431586754	 1.9954443503	-0.3825649116	 0.116166
H	-0.8336817795	 1.603618208	 1.2956591192	 0.142771
H	 0.6497855673	-0.2666996127	-0.6532444265	 0.099334
H	 0.3222531857	-0.6352571163	 1.0397156191	 0.094765
H	-1.7889694436	-0.1210534014	-1.1090870162	 0.078331
H	-1.8651438006	-2.591246726	-1.2759569124	 0.116751
H	-0.7259605166	-2.7403449486	 0.0860957654	 0.109372
H	-3.7197616138	-2.0834589234	 0.2895942662	 0.095358
H	-2.7219781348	-3.8013596986	 1.8378325916	 0.151837
H	-1.6313180886	-2.5641173455	 2.4783422236	 0.152362
41.1889	71.0394	97.4068	144.9308	205.1516	239.0349	323.5072	388.2938	393.1717	396.9246	451.5224	535.9482	694.5062	785.1588	829.4262	874.5999	902.682	946.0443	955.1926	972.0732	1016.0851	1042.0391	1066.1028	1112.5688	1118.4047	1142.9369	1198.0428	1233.2551	1254.0468	1274.9331	1292.0929	1307.2076	1328.9887	1358.5587	1386.7275	1409.7546	1421.4697	1450.4591	1473.1276	1492.2914	1498.6886	1509.0932	2365.3203	2998.705	3017.2945	3018.5405	3038.9554	3041.3617	3057.9212	3067.5614	3089.7036	3106.5153	3121.2106	3133.4038
CCC1CC(CC#N)O1	CC[C@H]1C[C@@H](CC#N)O1	
InChI=1S/C7H11NO/c1-2-6-5-7(9-6)3-4-8/h6-7H,2-3,5H2,1H3	InChI=1S/C7H11NO/c1-2-6-5-7(9-6)3-4-8/h6-7H,2-3,5H2,1H3/t6-,7+/m0/s1
