17
gdb 112531	2.25925	1.28398	1.11914	3.575	68.2	-0.2613	-0.0093	0.252	1162.1988	0.136048	-455.119424	-455.11033	-455.109386	-455.153794	32.851	
N	 0.3760129081	 1.3448553069	 0.4274189911	-0.508647
C	 0.1368890722	-0.0432942579	 0.1639523851	-0.06016
C	-1.3265432246	-0.5533429961	 0.1829397635	 0.105452
C	-2.4543902218	 0.4591021042	 0.0586552263	-0.071008
O	-3.656288492	-0.2016882996	-0.2827966203	-0.418418
O	-1.1350782674	-1.2484174544	-1.0898073591	-0.301218
C	 0.1616929398	-0.6662121073	-1.2916069274	-0.053344
C	 0.1875827522	 0.3288680241	-2.3652126402	 0.282545
N	 0.214797252	 1.1646060207	-3.1641314251	-0.322734
H	 1.3653500557	 1.5417916222	 0.5225959115	 0.244365
H	 0.0142160037	 1.9463921388	-0.3055441313	 0.252459
H	 0.7718815082	-0.6386398944	 0.8222342221	 0.111342
H	-1.5689730389	-1.2759788822	 0.9690833858	 0.09915
H	-2.615769328	 0.9584375007	 1.0186614613	 0.126104
H	-2.1983263945	 1.2307713657	-0.683832798	 0.092822
H	-3.4764018716	-0.6904202397	-1.0951494459	 0.294703
H	 0.9258067468	-1.4276059317	-1.4820003795	 0.126586
53.1861	108.5769	135.3478	170.4895	223.0142	270.4812	306.6406	371.0373	440.5677	476.3592	522.1329	561.9564	607.7504	745.6524	824.6156	833.6595	854.4886	923.1059	993.6576	1024.1599	1051.8416	1072.3353	1088.986	1170.66	1182.4478	1215.2383	1239.764	1265.3474	1304.7136	1336.7126	1358.2729	1404.8312	1432.1752	1440.2433	1494.5578	1672.8489	2345.9055	2986.8713	3052.8954	3058.5469	3092.3363	3101.3117	3515.964	3597.4726	3789.2006
NC1C(CO)OC1C#N	N[C@H]1[C@@H](CO)O[C@H]1C#N	
InChI=1S/C5H8N2O2/c6-1-3-5(7)4(2-8)9-3/h3-5,8H,2,7H2	InChI=1S/C5H8N2O2/c6-1-3-5(7)4(2-8)9-3/h3-5,8H,2,7H2/t3-,4+,5+/m0/s1
