21
gdb 107638	2.5169	1.49722	1.1223	3.2304	77.8	-0.2472	0.0596	0.3069	1148.4816	0.183798	-424.223488	-424.214774	-424.213829	-424.256501	34.328	
O	-0.1827482789	 1.3732887406	 0.6326937018	-0.432961
C	-0.0579870078	 0.070493417	 0.083779927	-0.150137
C	-1.3963823419	-0.6035577863	-0.0835769362	 0.342851
C	-2.0762194239	-1.2306181405	 1.1111347568	-0.323272
C	-1.6400614707	-2.0974749379	-0.0429630375	-0.09969
C	-2.6993070483	-2.442617587	-1.0865434275	-0.222651
C	-3.3990863684	-1.0985189016	-1.3895960744	-0.274525
C	-2.3118203972	-0.0302807182	-1.1511977066	 0.061209
O	-2.8094725137	 1.2407537262	-0.7187498654	-0.440389
H	-0.9877916626	 1.7550942123	 0.2585642236	 0.290311
H	 0.4599268626	 0.1044460592	-0.8917819844	 0.072842
H	 0.5792357974	-0.5046876263	 0.7660163235	 0.092811
H	-1.4835624602	-1.2782447698	 2.0182372242	 0.116601
H	-3.1325860047	-1.057727446	 1.2858028963	 0.114292
H	-0.8192953274	-2.7901137113	 0.1117663414	 0.082934
H	-2.210889403	-2.8316889763	-1.987671278	 0.10217
H	-3.4030169103	-3.2100844289	-0.7466362931	 0.102939
H	-3.8164402809	-1.057957845	-2.3997533953	 0.093321
H	-4.2223890144	-0.9138709489	-0.6929318339	 0.116341
H	-1.7158273913	 0.1089383542	-2.068014433	 0.068233
H	-3.2423967043	 1.6705175246	-1.4633407294	 0.28677
96.2902	132.5484	181.9631	252.8146	289.8593	311.7111	345.961	386.0235	441.8295	463.4736	533.9786	587.8658	634.6243	720.2233	814.9394	854.3637	902.56	936.966	947.186	962.8997	981.8102	1011.0866	1052.6007	1062.9496	1069.6774	1083.1928	1089.6876	1108.793	1180.323	1210.3022	1218.8372	1228.6541	1274.4474	1299.245	1326.8871	1337.1443	1360.9115	1369.5097	1405.446	1434.1775	1467.3888	1488.7117	1494.4395	1509.9459	1517.8188	2937.1241	2964.9263	3033.7976	3046.4464	3055.3646	3070.8688	3099.6708	3135.0891	3162.7496	3216.6191	3755.5007	3817.7904
OCC12CC1CCC2O	OC[C@]12C[C@H]1CC[C@H]2O	
InChI=1S/C7H12O2/c8-4-7-3-5(7)1-2-6(7)9/h5-6,8-9H,1-4H2	InChI=1S/C7H12O2/c8-4-7-3-5(7)1-2-6(7)9/h5-6,8-9H,1-4H2/t5-,6-,7-/m1/s1
