16
gdb 45249	3.1753	1.73322	1.39882	3.9298	68.52	-0.2589	0.0281	0.2869	927.0229	0.126237	-437.873342	-437.866692	-437.865748	-437.904443	26.464	
N	 0.0640275259	 1.1527893081	 0.339768515	-0.547407
C	 0.0209609678	-0.0585333945	 0.0300016538	 0.461345
O	 1.0037662768	-0.9097180265	-0.4383151241	-0.267911
C	 0.0368108376	-1.9906714211	-0.6492904811	 0.110212
C	 0.2540902094	-3.2377461145	 0.2183244693	-0.274391
C	-0.5861958602	-3.0124393641	 1.4637103051	 0.047148
O	-0.2276728537	-1.8365605503	 2.1915309432	-0.240561
C	-1.3710822509	-1.7685894394	 1.3338368647	 0.033704
C	-1.072714138	-1.1134096186	-0.0060007047	-0.215584
H	 1.0053791021	 1.5334292599	 0.229097603	 0.229702
H	-0.0394460052	-2.2038668623	-1.7173377659	 0.099956
H	-0.0927342921	-4.1318439357	-0.3117454848	 0.111514
H	 1.3139602641	-3.3749196389	 0.4524948543	 0.137784
H	-0.9095514707	-3.85548561	 2.0704776744	 0.101846
H	-2.3221706846	-1.6018299386	 1.8308479512	 0.107286
H	-1.9655528782	-0.8739735935	-0.5830415734	 0.105357
118.8996	162.0296	293.627	362.5775	430.2949	466.7942	618.8052	695.5651	698.1952	773.4303	823.9473	839.1497	861.9583	868.8346	885.921	936.3317	972.8071	984.8567	1007.9793	1042.1999	1043.7478	1070.1882	1112.9316	1195.025	1201.3541	1217.133	1259.153	1269.9541	1291.225	1324.1074	1346.9837	1368.8097	1427.718	1461.075	1831.4921	3049.4365	3090.9245	3102.2512	3124.5811	3138.4948	3163.0975	3477.957
N=C1OC2CC3OC3C12	[NH][C]1O[C@H]2C[C@H]3O[C@H]3[C@@H]12	
InChI=1S/C6H7NO2/c7-6-4-2(9-6)1-3-5(4)8-3/h2-5,7H,1H2	InChI=1S/C6H7NO2/c7-6-4-2(9-6)1-3-5(4)8-3/h2-5,7H,1H2/t2-,3+,4-,5+/m0/s1
