20
gdb 60157	4.80977	0.73414	0.72663	1.8431	77.48	-0.2453	-0.0322	0.2131	1609.3322	0.168709	-440.274407	-440.264898	-440.263954	-440.30936	34.974	
C	 0.0151906675	 1.6124173726	 0.0396743833	-0.387583
C	-0.000189751	 0.0904353564	 0.0240632756	 0.14872
O	 0.5270211764	-0.373236888	 1.2540825074	-0.439615
C	-1.4092973544	-0.4792549005	-0.1772599585	-0.168925
N	-1.3766605393	-1.9307041282	-0.0699603609	-0.106738
C	-0.9205337907	-2.7106810864	-1.2506830506	-0.293593
C	-2.1179000581	-3.646318421	-1.0254029045	 0.391273
O	-2.4645424588	-4.7013852669	-1.4589749051	-0.273298
C	-2.6693111607	-2.6549823431	 0.0105955756	-0.287271
H	 1.0318665574	 1.9741936507	 0.2134101616	 0.129009
H	-0.3384571741	 2.0183658706	-0.9133376582	 0.109708
H	-0.6223286554	 1.9927309219	 0.8442326383	 0.120862
H	 0.6312546837	-0.259807346	-0.8139239767	 0.060638
H	 0.2164642337	-1.2862386204	 1.3350450736	 0.279684
H	-2.0563265982	-0.098507483	 0.6215969291	 0.111503
H	-1.8277329587	-0.1405913588	-1.1438600511	 0.080197
H	-1.0020041123	-2.1690822982	-2.2071310525	 0.123485
H	 0.0795607738	-3.1482510194	-1.1747449893	 0.140243
H	-2.9262207637	-3.0497418006	 0.9988835729	 0.138093
H	-3.529997177	-2.0939790618	-0.3865793799	 0.123609
61.687	77.2851	102.7175	160.0874	219.0018	289.502	321.3726	366.4293	428.3091	451.2136	479.2528	504.0607	532.51	677.7881	761.7509	775.5465	853.9977	927.6441	941.9896	965.6346	1020.4286	1056.9585	1072.8769	1081.5605	1096.5769	1152.6919	1170.6572	1176.7074	1212.017	1247.9741	1280.1688	1304.9033	1308.5663	1359.2964	1385.1591	1406.5309	1449.5441	1457.0923	1472.2233	1484.6632	1491.3694	1501.2297	1924.2069	2919.2713	2931.2894	2981.3048	2991.6727	3039.7885	3060.4113	3075.7681	3080.2026	3111.7897	3122.2869	3729.8153
CC(O)CN1CC(=O)C1	C[C@@H](O)CN1CC(=O)C1	
InChI=1S/C6H11NO2/c1-5(8)2-7-3-6(9)4-7/h5,8H,2-4H2,1H3	InChI=1S/C6H11NO2/c1-5(8)2-7-3-6(9)4-7/h5,8H,2-4H2,1H3/t5-/m1/s1
