18
gdb 73549	2.64111	1.93244	1.59438	1.5702	71.51	-0.2322	0.075	0.3071	905.7084	0.149518	-438.985912	-438.978813	-438.977868	-439.017102	29.184	
O	 0.224663002	 1.3854382264	 0.0773152261	-0.487585
C	 0.1170740998	-0.0101850544	 0.0193598748	 0.465236
C	 0.6712660351	-0.6158149843	-1.2656313327	-0.183069
O	-0.4766276839	-0.5701543778	-2.1565037152	-0.294634
C	-1.7144230843	-0.7469338591	-1.4284327963	-0.192362
C	-1.2891391823	-0.6724091939	 0.0147252728	 0.229498
C	-1.5377031779	-0.0770294598	 1.4287465614	-0.322425
C	-0.0874090822	-0.6898973215	 1.4015749144	-0.10465
N	-0.6085612696	-1.8896406848	 0.6446276807	-0.360399
H	 0.0921329794	 1.7289539305	-0.813600679	 0.291105
H	 1.4497104974	-0.0028212038	-1.7269348515	 0.101629
H	 1.0249341516	-1.6402183946	-1.1354305502	 0.128252
H	-2.4040317451	 0.0551539139	-1.7158263879	 0.109511
H	-2.1653581026	-1.7124138158	-1.6867781832	 0.108995
H	-1.6386796278	 1.0046948031	 1.5166147526	 0.122453
H	-2.2539444049	-0.6166222587	 2.0544629886	 0.092993
H	 0.6159708343	-0.7889691066	 2.2301467954	 0.086102
H	-1.2957866789	-2.3698908887	 1.2316314491	 0.209348
114.4965	213.4397	317.2062	346.5318	373.5789	426.7256	490.4143	531.8897	596.9885	624.0904	735.8044	776.8943	805.4796	848.9316	871.7192	899.891	936.3928	947.5482	985.3295	1014.8725	1037.696	1068.6632	1087.2101	1114.2471	1142.7013	1178.3424	1199.7501	1202.9904	1216.9875	1264.2035	1270.0565	1282.4905	1303.2166	1339.0264	1376.521	1400.7577	1496.5957	1497.9097	1507.8114	3024.2193	3061.5246	3065.4029	3066.1956	3100.6256	3120.5778	3146.1079	3402.0261	3798.795
OC12COCC11CC2N1	O[C@]12COC[C@@]31C[C@H]2N3	
InChI=1S/C6H9NO2/c8-6-3-9-2-5(6)1-4(6)7-5/h4,7-8H,1-3H2	InChI=1S/C6H9NO2/c8-6-3-9-2-5(6)1-4(6)7-5/h4,7-8H,1-3H2/t4-,5-,6+/m1/s1
