16
gdb 27819	1.96129	1.8733	0.96431	3.838	76.9	-0.2122	-0.0208	0.1914	1169.0136	0.126133	-434.162594	-434.154328	-434.153384	-434.195431	31.267	
C	-0.0215107022	 1.491477516	-0.009365095	-0.487981
C	 0.0143142501	-0.0093757144	-0.060576706	 0.406459
N	 0.0242471995	-0.6186043042	-1.2098336888	-0.374313
C	 0.0568968872	-1.9970033629	-1.1838196012	 0.397744
N	 0.1129374263	-2.5579646307	-2.4304978811	-0.562987
C	 0.0687862692	-2.7399972286	-0.0253664031	-0.333763
C	 0.0597582715	-2.092314999	 1.2490173368	 0.416877
O	 0.0688930041	-2.5845397266	 2.3640398348	-0.407436
N	 0.0342788719	-0.6709882401	 1.1196947311	-0.376462
H	 0.8581565721	 1.8835072505	 0.5126526574	 0.146192
H	-0.0390645022	 1.8845306536	-1.0249684351	 0.157884
H	-0.9089995729	 1.8422470892	 0.5285095839	 0.144863
H	-0.1407840482	-1.9505628721	-3.192827691	 0.260462
H	-0.1212565542	-3.5310639297	-2.5325740738	 0.259638
H	 0.0918928817	-3.8220491523	-0.0389627554	 0.095005
H	 0.024709196	-0.1675210187	 1.9962582565	 0.257815
89.0592	161.4334	177.9172	217.9829	291.6475	350.4759	399.8546	460.5268	513.9414	538.2482	563.3634	588.2428	629.9061	666.5586	745.8944	764.727	835.5648	923.5717	971.3055	1024.0031	1057.1067	1063.3615	1107.265	1222.2589	1269.6376	1297.0808	1403.1238	1449.9448	1463.0148	1483.5603	1495.001	1597.6298	1640.52	1665.728	1796.056	3040.8502	3097.6063	3165.214	3211.5878	3599.7135	3602.4779	3722.89
CC1=NC(N)=CC(=O)N1	Cc1nc(N)cc(=O)[nH]1	
InChI=1S/C5H7N3O/c1-3-7-4(6)2-5(9)8-3/h2H,1H3,(H3,6,7,8,9)	InChI=1S/C5H7N3O/c1-3-7-4(6)2-5(9)8-3/h2H,1H3,(H3,6,7,8,9)
