16
gdb 127823	4.4533	1.00987	0.83258	3.8227	74.97	-0.2344	-0.0251	0.2092	1328.9043	0.124766	-434.062096	-434.053649	-434.052704	-434.095718	30.68	
C	 0.0246305771	 1.4202812383	-0.0862291423	-0.340831
N	 0.0226046767	-0.0291996499	-0.1070969926	-0.2868
C	-1.0989704851	-0.6336198711	 0.0068896645	 0.23969
N	-2.3505560544	-0.0365946053	 0.0849151156	-0.570618
C	-1.1139875267	-2.1045956536	 0.0046179305	 0.135869
C	-0.0436263356	-2.9356015241	 0.155460248	 0.019399
O	-0.4237817743	-4.2131640234	 0.0946832171	-0.161951
N	-1.801811916	-4.271295095	-0.1118922016	-0.131882
C	-2.192199666	-3.0226631168	-0.1624626268	-0.071157
H	 1.0559903185	 1.7809815329	-0.0998286099	 0.127103
H	-0.4873876996	 1.8501067986	-0.9610593112	 0.119362
H	-0.4560366407	 1.8407271113	 0.8144468151	 0.101339
H	-2.3614495512	 0.9482054142	 0.3006114954	 0.257431
H	-3.0722775011	-0.554426531	 0.5621965817	 0.25422
H	 1.0054585589	-2.7418593853	 0.3077281293	 0.175229
H	-3.2388491604	-2.8158863598	-0.3380790127	 0.133595
58.9708	135.4899	142.231	149.7976	292.6814	308.906	392.903	425.5591	468.028	522.2829	616.0887	654.854	731.2932	746.1074	881.6689	888.5521	911.8046	937.8151	964.0538	1024.6271	1101.6455	1110.7378	1154.1451	1172.6602	1193.0247	1248.9179	1355.8914	1397.4684	1434.9337	1481.0206	1493.506	1506.0331	1637.0989	1652.6547	1721.1217	2948.646	3006.8996	3100.703	3239.1591	3286.6942	3582.3274	3686.9784
CN=C(N)C1=CON=C1	CN=C(N)c1conc1	
InChI=1S/C5H7N3O/c1-7-5(6)4-2-8-9-3-4/h2-3H,1H3,(H2,6,7)	InChI=1S/C5H7N3O/c1-7-5(6)4-2-8-9-3-4/h2-3H,1H3,(H2,6,7)
