22
gdb 117683	3.1311	0.96804	0.88441	2.618	79.04	-0.2367	0.0708	0.3076	1435.0054	0.192517	-441.448495	-441.438139	-441.437194	-441.483755	38.113	
C	-0.1184196375	 1.3139550496	 0.3712574478	-0.23146
O	-0.0587436261	-0.0800552568	 0.167626956	-0.25656
C	-1.3192970383	-0.6679337671	-0.1012476964	-0.092366
C	-1.1073310666	-2.1899539342	-0.1617044697	 0.308789
C	-0.2607212867	-2.5810938178	-1.3811184289	-0.418053
O	-0.4578940263	-2.593502314	 1.0426390724	-0.479052
C	-2.463294409	-2.8805624476	-0.204576207	-0.000618
C	-2.6383667446	-4.2421282774	 0.3495835028	-0.248037
N	-3.2307736665	-3.0731059518	 1.0328915789	-0.337466
H	 0.8959115143	 1.6564729669	 0.5889427604	 0.131469
H	-0.4867879925	 1.836469665	-0.5241402754	 0.112606
H	-0.7742456381	 1.5723641224	 1.2163945837	 0.112791
H	-2.0315475176	-0.424878691	 0.7021401838	 0.10193
H	-1.7316358133	-0.2907284825	-1.0502559457	 0.092601
H	 0.674363263	-2.0148182272	-1.3923795395	 0.123636
H	-0.0289342503	-3.6479991759	-1.3414600137	 0.124238
H	-0.7961657708	-2.3756615896	-2.3144191016	 0.108876
H	 0.1945835642	-1.906426493	 1.2288853465	 0.289884
H	-3.0700072081	-2.5881799323	-1.0601634036	 0.082916
H	-3.3537840657	-4.922887818	-0.1028424801	 0.110803
H	-1.7737711366	-4.7110561589	 0.8080394286	 0.127147
H	-2.613357457	-2.8335933187	 1.8078285207	 0.235926
70.1483	103.9773	122.464	145.3576	228.2191	237.1321	239.3103	290.1753	331.8592	348.0971	393.7654	415.739	446.7322	530.9821	622.3781	765.3135	845.9386	869.5362	931.355	939.471	962.1624	981.2942	1000.536	1025.3332	1101.2838	1135.7288	1150.3233	1159.805	1168.2907	1189.9506	1202.488	1223.1519	1248.4027	1280.2704	1286.6563	1316.2392	1354.4442	1391.9467	1414.3612	1443.0681	1479.5495	1486.2677	1490.8519	1496.5542	1501.0814	1506.5798	1522.8957	2972.8322	2984.7281	3015.6995	3031.2821	3039.7942	3110.3361	3116.1356	3118.4102	3121.4066	3131.5637	3209.7612	3479.94	3775.7687
COCC(C)(O)C1CN1	COC[C@@](C)(O)[C@H]1CN1	
InChI=1S/C6H13NO2/c1-6(8,4-9-2)5-3-7-5/h5,7-8H,3-4H2,1-2H3	InChI=1S/C6H13NO2/c1-6(8,4-9-2)5-3-7-5/h5,7-8H,3-4H2,1-2H3/t5-,6-/m1/s1
