18
gdb 8055	3.3496	1.81692	1.52346	2.6558	73.2	-0.2442	-0.0262	0.218	903.646	0.153364	-347.767548	-347.760006	-347.759062	-347.799317	28.726	
C	 0.4805016637	 1.2308644597	 0.3732535242	-0.514352
C	 0.1909007925	-0.2264099264	 0.1325831036	 0.320257
C	 0.6254708718	-1.0965219821	-1.0869109507	-0.257108
C	-0.202990851	-2.0502275191	-0.1798086733	-0.051073
C	 0.57194112	-1.4460586062	 1.0281555566	-0.260159
C	-1.2392239172	-0.9010654783	-0.0477522782	-0.090323
C	-2.232084647	-0.8557534267	 1.0752568391	 0.114036
O	-2.3243435274	-1.6548758161	 1.9759777947	-0.24986
H	 1.5614876494	 1.4041088537	 0.4160686209	 0.125681
H	 0.0729832288	 1.8548698175	-0.4296469525	 0.120766
H	 0.0505514337	 1.5730335967	 1.320626292	 0.125256
H	 0.1971759326	-0.8337276592	-2.0589369186	 0.08825
H	 1.6955027862	-1.3093556712	-1.1631979877	 0.0919
H	-0.4313349881	-3.1002902274	-0.3571276106	 0.081619
H	 1.6402655307	-1.6762870963	 1.073794948	 0.087989
H	 0.1009093887	-1.5241066157	 2.0067081771	 0.122422
H	-1.7383360836	-0.5915428398	-0.9754610815	 0.073903
H	-2.9298363938	 0.013977827	 1.0219184468	 0.070796
84.5094	175.8826	204.3964	237.5574	297.1774	333.2449	442.813	551.5944	608.5821	718.2378	745.6765	782.4229	847.2625	905.9209	909.9473	944.7495	990.9949	1017.9267	1023.0536	1036.3843	1061.4963	1105.9178	1121.811	1147.409	1180.5605	1196.3867	1219.13	1225.5051	1243.7114	1313.9716	1386.0831	1410.0783	1429.9075	1488.3171	1489.4117	1501.8296	1541.4213	1814.2031	2844.6106	3024.1727	3027.2327	3043.8383	3062.248	3095.0051	3097.4163	3109.4188	3124.6775	3154.708
CC12CC(C1)C2C=O	C[C@@]12C[C@@H](C1)[C@H]2C=O	
InChI=1S/C7H10O/c1-7-2-5(3-7)6(7)4-8/h4-6H,2-3H2,1H3	InChI=1S/C7H10O/c1-7-2-5(3-7)6(7)4-8/h4-6H,2-3H2,1H3/t5-,6-,7+/m1/s1
