21
gdb 78265	2.45948	1.39435	1.10942	1.263	82.64	-0.203	0.0787	0.2817	1208.6974	0.180756	-387.009959	-387.000733	-386.999789	-387.04325	35.97	
C	 0.0852385019	 1.5506896002	-0.0251210506	-0.419604
C	 0.0755644759	 0.0341783684	-0.0094023213	-0.030439
C	 1.4061591854	-0.6398870316	-0.2291504083	-0.055234
C	 0.772485567	-0.6208420397	 1.1556745562	-0.143167
C	 0.7891280509	-2.1810489185	 1.1642486272	 0.348527
O	 1.2581845037	-2.8504827618	 2.284518703	-0.453886
C	 0.0768497404	-2.8920889168	 0.0420627769	-0.082548
C	-1.3007842189	-2.6907791396	-0.5890056125	-0.436449
C	 1.409783132	-2.1929516827	-0.2150016891	-0.162398
H	 1.0161031075	 1.9446744917	 0.3969558603	 0.115845
H	-0.0062058572	 1.9337318926	-1.0472353962	 0.117754
H	-0.7452515575	 1.9571769525	 0.5621084453	 0.116798
H	-0.8280952385	-0.3938090921	-0.4199527295	 0.079136
H	 2.2688593115	-0.0765438982	-0.5635013818	 0.084418
H	 1.1003336852	-0.0625609018	 2.0240814829	 0.086453
H	 0.5108529048	-3.0093711498	 2.8729712583	 0.281601
H	 0.3098295365	-3.9499719609	 0.1645361519	 0.095453
H	-1.2445421914	-2.1811955318	-1.55507985	 0.131053
H	-1.7693250455	-3.6638367504	-0.7673039823	 0.109123
H	-1.9786788451	-2.1227266333	 0.0549341757	 0.124988
H	 2.2661273715	-2.7578928366	-0.5620294761	 0.092577
104.897	182.423	205.369	216.2873	232.1499	252.0198	264.6822	303.5925	380.5129	414.8168	498.0884	566.0735	653.4419	719.4442	748.0893	785.9806	814.9099	877.9633	902.1879	943.9139	971.9343	983.6878	1003.9553	1046.708	1056.731	1068.5951	1100.6967	1109.3772	1124.5542	1144.1918	1177.8367	1209.7619	1230.4162	1277.2097	1282.7867	1309.8305	1355.0436	1407.213	1411.4471	1413.9104	1479.0898	1494.558	1499.6784	1503.5563	1506.8371	3026.9482	3035.6709	3090.7107	3092.9265	3094.5466	3106.6322	3113.4752	3176.3915	3186.4695	3191.8067	3214.5607	3775.9209
CC1C2C1C1(O)C(C)C21	C[C@H]1[C@H]2[C@@H]1[C@@]1(O)[C@@H](C)[C@@H]21	
InChI=1S/C8H12O/c1-3-5-6(3)8(9)4(2)7(5)8/h3-7,9H,1-2H3	InChI=1S/C8H12O/c1-3-5-6(3)8(9)4(2)7(5)8/h3-7,9H,1-2H3/t3-,4-,5-,6+,7-,8-/m0/s1
