15
gdb 131637	2.40493	1.57734	0.97731	1.1478	63.35	-0.2108	0.0415	0.2523	1123.9241	0.114006	-491.099144	-491.090876	-491.089932	-491.1319	31.	
O	 0.2324434071	 1.0519318851	 0.9627119433	-0.422588
C	 0.0473316792	 0.1276951011	-0.1317388418	-0.215653
C	-1.3458707388	-0.4104058318	-0.1349521762	-0.055636
C	-2.1156304045	-0.6049400728	 1.0017372179	 0.419485
O	-1.8435210206	-0.3435308862	 2.288968008	-0.430922
N	-3.2984602919	-1.1207562219	 0.6207628938	-0.286937
N	-3.3741084105	-1.2874611061	-0.7425515714	-0.352047
C	-2.2011719602	-0.8554540503	-1.1704206877	 0.342592
O	-1.877623387	-0.8583364826	-2.4816034269	-0.432036
H	-0.3004750031	 1.8309730621	 0.7650405657	 0.291889
H	 0.2935198767	 0.5990000727	-1.0912420981	 0.124947
H	 0.7983985832	-0.6504819462	 0.0470948351	 0.128865
H	-1.0049038989	 0.1533465275	 2.275262268	 0.309306
H	-4.0894384256	-1.3389480062	 1.1999430553	 0.276472
H	-2.6434876653	-1.2034273246	-2.9582201048	 0.302263
99.9674	166.4158	197.777	242.6633	301.6249	311.0321	386.2997	418.1963	443.411	468.1927	549.0218	623.2317	665.1405	706.1827	731.7871	762.1556	819.0026	969.7306	999.0666	1078.0357	1138.3859	1194.8679	1230.4223	1232.33	1299.3971	1370.6028	1396.8072	1406.9343	1484.1394	1510.2978	1564.9154	1620.4015	1663.6766	3024.9573	3059.8005	3623.669	3695.1478	3790.317	3796.9817
OCC1=C(O)NN=C1O	OCc1c(O)[nH]nc1O	
InChI=1S/C4H6N2O3/c7-1-2-3(8)5-6-4(2)9/h7H,1H2,(H3,5,6,8,9)	InChI=1S/C4H6N2O3/c7-1-2-3(8)5-6-4(2)9/h7H,1H2,(H3,5,6,8,9)
