21
gdb 73570	2.159	2.04561	1.51454	1.6463	80.69	-0.229	0.0904	0.3194	995.8428	0.184378	-387.065909	-387.058228	-387.057283	-387.097502	31.527	
C	-0.0259887036	 1.4745941253	-0.0041550846	-0.480506
C	-0.0012002304	-0.0461154397	-0.0272001372	 0.325973
C	-1.325378663	-0.6892223951	-0.4659054104	-0.145461
O	-1.4578811508	-1.902800677	 0.2732426242	-0.256108
C	-0.8533909277	-1.7150897165	 1.5557405635	-0.10936
C	 0.3227008912	-0.7639395835	 1.3317308366	-0.076625
C	 1.6344126207	-1.2978022952	 0.7227248626	-0.060262
C	 1.3997540428	-2.1195337021	-0.517222212	-0.307706
C	 1.314204515	-0.6210832668	-0.6104643058	-0.095853
H	 0.9170114721	 1.8771190005	 0.3801584625	 0.118632
H	-0.1700171623	 1.8824872748	-1.0121195942	 0.116629
H	-0.8384779148	 1.8505736681	 0.6272885881	 0.11341
H	-2.1689635497	-0.0134694816	-0.2449309282	 0.082213
H	-1.3600738928	-0.9483160646	-1.5285162152	 0.107768
H	-1.5788406648	-1.2744200363	 2.2593290885	 0.086402
H	-0.5675329593	-2.7034416114	 1.9277758066	 0.109218
H	 0.4864051511	-0.0823555841	 2.1686375607	 0.069632
H	 2.5790642188	-1.332432242	 1.2521735702	 0.081604
H	 2.3048347339	-2.5379736398	-0.9477882563	 0.105354
H	 0.5211822706	-2.7442905501	-0.6228450357	 0.136903
H	 1.9746065127	-0.052636463	-1.256111994	 0.078145
145.1257	230.0136	243.555	259.6362	278.6057	324.3555	416.4507	489.8047	570.9845	629.4584	731.7193	769.4767	774.4801	827.3494	876.8359	915.0519	927.2459	943.0866	958.2728	993.3759	999.5486	1006.2429	1045.3837	1067.1037	1087.8111	1096.8546	1110.697	1158.3027	1175.8387	1188.2219	1205.9245	1236.7361	1250.8936	1273.9641	1303.8271	1324.8904	1354.6563	1360.6283	1401.7797	1414.796	1488.7828	1491.8696	1497.3769	1502.051	1512.1509	2955.5888	2967.5014	3021.3631	3077.2784	3081.7735	3083.6126	3091.1647	3097.8485	3131.1739	3164.5354	3179.6092	3220.0385
CC12COCC1C1CC21	C[C@]12COC[C@H]1[C@H]1C[C@@H]21	
InChI=1S/C8H12O/c1-8-4-9-3-7(8)5-2-6(5)8/h5-7H,2-4H2,1H3	InChI=1S/C8H12O/c1-8-4-9-3-7(8)5-2-6(5)8/h5-7H,2-4H2,1H3/t5-,6+,7-,8+/m0/s1
