21
gdb 85421	2.18778	1.51581	1.22272	4.4493	77.88	-0.2582	0.0192	0.2775	1151.9678	0.181533	-424.294782	-424.285578	-424.284634	-424.328157	35.742	
C	 0.117153326	 1.700454701	-0.1780717474	-0.417022
C	 0.0005708558	 0.187969459	 0.04420684	-0.021091
C	 0.6797558543	-0.592613952	-1.0918259754	-0.376369
C	 2.0809396627	-0.8739517806	-0.5616545006	 0.421993
O	 3.0547127336	-1.2091625318	-1.1720292131	-0.341299
O	 2.0899843483	-0.6871071043	 0.7832731839	-0.250188
C	 0.7651017988	-0.3558590809	 1.2931840211	 0.35921
C	 0.9700577543	 0.6366773324	 2.4322278762	-0.42989
C	 0.1275023062	-1.6487641155	 1.8146967758	-0.418111
H	 1.1616443925	 2.0140058909	-0.2821250778	 0.132437
H	-0.4036751125	 1.9811679685	-1.0988115888	 0.120146
H	-0.3266827352	 2.2710579722	 0.6417787445	 0.121511
H	-1.057998076	-0.0741494747	 0.1331030425	 0.079113
H	 0.1953430491	-1.5531160684	-1.2965809347	 0.135799
H	 0.7369229733	-0.0512382417	-2.0378421052	 0.133583
H	 1.52683844	 1.5153920379	 2.1017699802	 0.130271
H	 0.0057096639	 0.9634978137	 2.8334230492	 0.118968
H	 1.5325704592	 0.1636196057	 3.24184462	 0.129057
H	 0.7805494009	-2.1182222639	 2.5551538184	 0.132491
H	-0.8360988851	-1.4353446098	 2.2878034152	 0.119695
H	-0.0418978001	-2.3674897878	 1.007534686	 0.119693
103.1123	107.7099	226.65	244.9647	267.5752	291.27	332.2962	337.6179	352.9459	400.893	491.8042	525.0211	564.0293	602.2606	664.6024	745.3001	841.6856	882.5428	927.7301	941.7719	954.3177	975.9425	1008.7997	1030.8524	1082.1478	1098.0564	1158.3024	1185.4681	1203.8428	1242.9213	1276.4024	1289.3999	1322.9048	1368.774	1400.3281	1412.5513	1420.5774	1468.9344	1474.7988	1484.7662	1493.5297	1500.2746	1506.7445	1514.2543	1878.2732	3037.5346	3039.8758	3049.0386	3054.0165	3067.042	3104.0809	3111.5568	3114.4542	3118.245	3121.9357	3123.8387	3137.2956
CC1CC(=O)OC1(C)C	C[C@H]1CC(=O)OC1(C)C	
InChI=1S/C7H12O2/c1-5-4-6(8)9-7(5,2)3/h5H,4H2,1-3H3	InChI=1S/C7H12O2/c1-5-4-6(8)9-7(5,2)3/h5H,4H2,1-3H3/t5-/m0/s1
