23
gdb 94284	2.78842	1.40729	1.17976	0.1431	89.27	-0.2384	0.0832	0.3216	1179.371	0.206792	-351.117386	-351.108822	-351.107878	-351.150351	34.108	
C	-0.2441059718	 1.4845807131	 0.044940219	-0.392953
C	-0.0410821666	-0.0300271212	 0.0339022491	-0.074854
C	 1.1701842415	-0.4912868736	-0.8378183507	-0.217825
C	 2.0109612046	-0.7070397669	 0.4528379369	-0.312844
C	 0.7058512083	-0.6099770718	 1.2577873236	 0.404148
C	 0.6295569096	-0.3386823019	 2.7272164013	-0.144124
C	-0.8217490595	-0.1721753246	 3.2011218932	-0.232536
C	-1.1672707876	-1.5773503143	 2.608710241	-0.235205
C	 0.2905733623	-1.7319571761	 2.1618288798	-0.128089
H	 0.6836934698	 2.0067058959	 0.3044119084	 0.112493
H	-0.5599419075	 1.8389502827	-0.942819563	 0.109137
H	-1.007420206	 1.7882450181	 0.7677170918	 0.116849
H	-0.9869679044	-0.5283018692	-0.2035386337	 0.064146
H	 0.9741191356	-1.4266661108	-1.3674681434	 0.099327
H	 1.5507789778	 0.24157539	-1.5543107999	 0.091502
H	 2.5710546896	-1.6432447972	 0.5296630618	 0.096222
H	 2.6996671175	 0.1206246907	 0.6512663307	 0.098581
H	 1.5064589943	-0.0234860445	 3.2828463141	 0.076041
H	-0.9073815788	-0.1596003405	 4.2901682676	 0.101293
H	-1.371201258	 0.6867002901	 2.8045393112	 0.096116
H	-1.4576085538	-2.2919318002	 3.3820566655	 0.100991
H	-1.91940538	-1.6079639288	 1.8128941166	 0.093896
H	 0.868029413	-2.649065939	 2.2119162391	 0.07769
78.3832	152.3235	179.1945	231.6881	244.8006	276.823	345.2506	436.5451	476.4337	565.094	717.2459	744.8186	780.2572	791.4162	834.39	846.6025	887.1474	918.9597	922.538	956.1591	964.1109	976.0152	995.5395	1019.4639	1045.5129	1074.121	1076.7033	1096.1016	1151.357	1175.4688	1177.5951	1204.3116	1222.8931	1240.8943	1246.6757	1254.3437	1256.6119	1278.4673	1289.0438	1298.3714	1351.0268	1409.755	1430.8564	1479.2876	1481.4514	1493.6348	1497.8158	1500.0195	1505.903	3027.4999	3038.9988	3042.0872	3043.1259	3056.191	3059.9977	3086.3471	3091.5705	3093.0715	3102.5848	3112.186	3113.8216	3156.6445	3167.8361
CC1CCC11C2CCC12	C[C@H]1CC[C@]21[C@H]1CC[C@@H]21	
InChI=1S/C9H14/c1-6-4-5-9(6)7-2-3-8(7)9/h6-8H,2-5H2,1H3	InChI=1S/C9H14/c1-6-4-5-9(6)7-2-3-8(7)9/h6-8H,2-5H2,1H3/t6-,7-,8+,9-/m0/s1
