18
gdb 47843	2.29247	1.69781	1.26116	2.8902	72.91	-0.2636	-0.0167	0.247	1045.107	0.149148	-439.12166	-439.113742	-439.112797	-439.154344	30.136	
O	 0.2077373703	 1.1291450771	 1.5274398127	-0.28811
C	-0.0147019409	 1.4741106118	 0.4058071084	 0.38801
C	-1.4148767251	 1.7067866323	-0.142177964	-0.292294
C	-1.6254443137	 2.7325600314	-1.2628235282	-0.219642
C	-1.2223415049	 4.1661327706	-0.8971760735	-0.187907
C	 0.2356531638	 4.2799903059	-0.4167818485	-0.18636
N	 1.1524967915	 3.6973327519	-1.3815485666	-0.227994
C	 1.4129880961	 2.4681477953	-1.3746632514	 0.129959
O	 1.0376256182	 1.4676232193	-0.5074731301	-0.224472
H	-1.7402417476	 0.7200093877	-0.4985246564	 0.145109
H	-2.0342568072	 1.9364485991	 0.7296158108	 0.138747
H	-1.0870836904	 2.4167096661	-2.1617222796	 0.123321
H	-2.6877382827	 2.716625288	-1.5292201173	 0.107961
H	-1.3642465787	 4.8074285534	-1.7734144332	 0.114702
H	-1.8747265666	 4.5551421183	-0.106111459	 0.104481
H	 0.4947561434	 5.3364974164	-0.3007992215	 0.112729
H	 0.3376754348	 3.8239345455	 0.5791820036	 0.127318
H	 2.093531	 2.0383808399	-2.1063855162	 0.134444
88.8813	93.9085	235.208	266.2038	295.059	319.1276	431.6025	497.5489	537.0028	596.6975	606.5418	711.495	787.3795	816.287	831.7357	906.0873	913.9508	956.3602	996.0587	1038.5474	1075.4161	1102.0731	1116.772	1141.1282	1203.6524	1225.9002	1271.4187	1299.8261	1355.7957	1369.0882	1380.5545	1395.3127	1424.5764	1455.5162	1480.699	1496.5686	1527.1115	1742.2104	1854.7797	2998.3364	3030.7255	3034.9191	3052.1399	3071.9815	3080.0659	3086.6027	3101.8401	3167.8449
O=C1CCCCN=CO1	O=C1CCCCN=CO1	
InChI=1S/C6H9NO2/c8-6-3-1-2-4-7-5-9-6/h5H,1-4H2/b7-5-	InChI=1S/C6H9NO2/c8-6-3-1-2-4-7-5-9-6/h5H,1-4H2/b7-5-
