16
gdb 80191	2.35304	1.80318	1.46356	4.9805	63.53	-0.2412	0.0075	0.2486	943.6153	0.125155	-475.026647	-475.018737	-475.017793	-475.058967	30.199	
N	 0.4079505686	 1.2986884202	 0.4537317295	-0.504523
C	 0.0221267514	-0.0455711476	 0.0588457713	-0.130833
C	-1.4434001408	-0.4691065418	 0.1158569805	-0.150246
C	-2.3850100559	 0.1899755076	-0.8685203488	 0.06331
O	-1.9560266296	 1.3685175824	-1.483924072	-0.416574
C	-1.7194669932	-1.1166956847	-1.2181359133	 0.020232
O	-0.5828775496	-1.0056847162	-2.0477168909	-0.226204
C	 0.4223640293	-0.3163618395	-1.4093957249	 0.429201
O	 1.4272705994	-0.0119645762	-1.9701944051	-0.312871
H	-0.1521445643	 1.9686197868	-0.0643213931	 0.249151
H	 0.210121168	 1.4368136428	 1.4391939569	 0.229821
H	 0.6070503512	-0.7524540518	 0.6620057712	 0.119574
H	-1.8419708705	-0.8708674734	 1.0394314456	 0.1027
H	-3.4469362442	 0.152346913	-0.6295165357	 0.104533
H	-2.0215016431	 1.2594977222	-2.439504042	 0.305343
H	-2.2666050469	-2.0375181837	-1.375247009	 0.117387
93.4929	168.5087	197.0949	259.4755	289.6677	312.7459	374.9228	491.9592	559.324	598.4284	654.8222	710.1211	760.2919	787.8008	797.7393	834.1231	886.8326	963.9916	1033.2217	1050.981	1064.5447	1095.6249	1115.3763	1135.82	1155.6266	1212.4804	1217.949	1274.3366	1315.4276	1332.1741	1357.9382	1410.555	1433.3749	1664.2065	1906.1632	3029.9485	3114.9063	3183.2085	3196.9714	3506.1028	3588.1892	3800.1411
NC1C2C(O)C2OC1=O	N[C@H]1[C@H]2[C@@H](O)[C@H]2OC1=O	
InChI=1S/C5H7NO3/c6-2-1-3(7)4(1)9-5(2)8/h1-4,7H,6H2	InChI=1S/C5H7NO3/c6-2-1-3(7)4(1)9-5(2)8/h1-4,7H,6H2/t1-,2-,3+,4-/m0/s1
