22
gdb 103957	2.04434	1.7387	1.21166	1.7139	81.55	-0.222	0.0618	0.2838	1139.2344	0.193484	-404.295241	-404.285861	-404.284917	-404.328745	36.637	
C	 0.3348989734	 1.8535007222	-0.7112085704	-0.45144
C	 0.1441900663	 0.3536486931	-0.6754258148	 0.028222
C	 0.704352204	-0.6285094892	-1.621755437	-0.044921
C	 2.126876639	-0.2843334824	-2.0565423161	-0.322677
C	 2.5175570714	-0.3815495198	-0.5518354277	 0.333858
C	 3.297869468	-1.6597452018	-0.2515976296	-0.429554
C	 3.2025977009	 0.8271094855	 0.1403057366	-0.151227
O	 3.5361253631	 1.9127953782	-0.7166172871	-0.400792
N	 1.0778362549	-0.67000181	-0.1405134292	-0.192818
H	 1.3075781903	 2.166796702	-1.0896134335	 0.161837
H	-0.4401802234	 2.2926231665	-1.3497778563	 0.113445
H	 0.2097638082	 2.2797474374	 0.2906514315	 0.119424
H	-0.8548513532	 0.0796706092	-0.3359561516	 0.092542
H	 0.1010079239	-1.4110811971	-2.0726805187	 0.087592
H	 2.6033721851	-1.0540239231	-2.6674701539	 0.101465
H	 2.2528420002	 0.6843832565	-2.5448650698	 0.106577
H	 4.3162969679	-1.595372694	-0.6528154828	 0.100086
H	 3.3607931636	-1.8211722195	 0.8297678431	 0.12287
H	 2.804220589	-2.5309439217	-0.6907642649	 0.120094
H	 2.5255810053	 1.2374878005	 0.8939882854	 0.127596
H	 4.101837471	 0.4825524341	 0.6699270219	 0.091674
H	 4.2174410011	 1.6120206733	-1.3258507252	 0.28615
78.835	152.8416	184.8989	256.0349	273.8139	281.6296	297.4119	315.5527	357.065	371.4837	450.3209	501.057	602.6369	642.6349	711.0246	771.7196	816.0303	873.0023	915.0294	931.9155	947.1564	967.7615	998.4723	1005.0451	1067.3764	1080.3241	1105.6812	1123.2441	1143.4942	1166.7695	1201.2943	1233.2663	1259.0515	1273.8359	1278.74	1358.0865	1396.2425	1404.7351	1413.5128	1421.6323	1444.1718	1479.6841	1488.296	1497.0036	1501.6065	1510.4315	1517.9653	3000.7245	3025.303	3032.6909	3066.2113	3084.767	3094.5966	3096.4302	3103.9144	3112.0583	3117.0769	3148.8191	3156.1121	3820.946
CC1C2CC(C)(CO)N12	C[C@H]1[C@H]2C[C@@](C)(CO)N12	
InChI=1S/C7H13NO/c1-5-6-3-7(2,4-9)8(5)6/h5-6,9H,3-4H2,1-2H3	InChI=1S/C7H13NO/c1-5-6-3-7(2,4-9)8(5)6/h5-6,9H,3-4H2,1-2H3/t5-,6+,7-,8?/m0/s1
