17
gdb 28480	3.09243	1.41666	0.97941	2.451	81.41	-0.1911	-0.019	0.1722	1173.7149	0.138054	-414.261386	-414.252902	-414.251958	-414.293973	32.701	
C	-0.003686444	 1.5004673892	-0.0376655939	-0.499473
C	 0.0297573704	-0.0021294192	-0.0081509444	 0.289591
N	 0.010054448	-0.6452431975	-1.1752121011	-0.355761
C	 0.0531685397	-1.9846202222	-1.1445460791	 0.399206
N	 0.1043065465	-2.6337611566	-2.3587372413	-0.560306
N	 0.0876437339	-2.7452888143	-0.0439399119	-0.313007
C	 0.0956089356	-2.0874731554	 1.1128440487	-0.048136
C	 0.0781934448	-0.6983552628	 1.2127876833	 0.190035
N	 0.1691662113	-0.0275373904	 2.4465868249	-0.599046
H	 0.8297758006	 1.9202107898	 0.5372742442	 0.141285
H	 0.0523026777	 1.8499496086	-1.0689055341	 0.14248
H	-0.9287209123	 1.8902604297	 0.4088422234	 0.1233
H	-0.2311636732	-2.0995025615	-3.1439668484	 0.253863
H	-0.167315301	-3.6035525812	-2.3352122033	 0.254371
H	 0.1185059003	-2.6974923276	 2.0165322003	 0.094299
H	-0.0280707487	-0.6304033739	 3.2353343145	 0.242564
H	-0.4093352295	 0.8007600951	 2.5030852982	 0.244733
119.1033	155.9063	209.2274	249.5985	287.2859	322.0457	377.6297	432.9572	453.8274	490.5566	504.1081	531.2559	583.7794	644.6029	723.9252	762.2723	802.4293	826.525	955.458	962.2289	1016.1101	1054.6927	1092.7231	1134.1058	1229.8276	1284.8168	1327.6876	1387.328	1397.4095	1455.941	1481.7853	1493.3966	1497.3909	1600.5121	1623.5601	1645.3766	1659.8755	3016.6225	3072.5634	3119.4247	3148.9518	3531.9062	3593.5472	3622.7761	3715.6007
CC1=NC(N)=NC=C1N	Cc1nc(N)ncc1N	
InChI=1S/C5H8N4/c1-3-4(6)2-8-5(7)9-3/h2H,6H2,1H3,(H2,7,8,9)	InChI=1S/C5H8N4/c1-3-4(6)2-8-5(7)9-3/h2H,6H2,1H3,(H2,7,8,9)
