18
gdb 54524	3.27712	1.32831	1.08981	2.2638	72.07	-0.2418	-0.0217	0.2201	1128.8942	0.147802	-439.08572	-439.077339	-439.076395	-439.119277	30.979	
C	 0.6971756115	 0.2906647733	-0.9449726851	-0.481578
C	-0.1673025211	 0.302185533	 0.2967176691	 0.314169
O	 0.1305252023	 0.9231825713	 1.2956122343	-0.310916
C	-1.4434672336	-0.4818665491	 0.2650732354	 0.201612
C	-2.4675307247	-0.2770772443	 1.3736459231	-0.156853
O	-3.3584958303	-1.3872201229	 1.266762494	-0.26038
C	-2.59531407	-2.5104895506	 0.8459001003	-0.107346
C	-1.5380767691	-1.9398850194	-0.0854737829	-0.085226
N	-1.973521735	-0.9285816032	-1.0378462811	-0.36984
H	 1.6005852725	 0.8719113746	-0.7584140236	 0.137885
H	 0.9628100606	-0.7322645421	-1.2310278057	 0.13916
H	 0.1393544925	 0.7081742094	-1.7884584667	 0.157859
H	-1.9530530092	-0.2482209965	 2.3429173169	 0.124036
H	-3.0635563096	 0.6339479316	 1.2663854835	 0.120333
H	-2.1076688494	-3.0180232794	 1.6938751105	 0.106029
H	-3.2802923647	-3.2164563983	 0.3646975125	 0.119726
H	-0.6797414714	-2.5417011453	-0.3662816188	 0.106024
H	-2.9906904312	-0.8552121321	-1.0259150657	 0.245307
50.8149	112.9922	154.9389	192.1961	267.0381	338.389	359.0922	434.7561	488.6531	587.0475	612.7081	701.0792	750.2474	851.7711	882.0702	926.8445	944.5081	978.1278	1006.21	1025.1715	1049.5826	1070.618	1108.4886	1125.7703	1167.0336	1185.4024	1217.5771	1251.8181	1306.0161	1323.4718	1343.2259	1374.2154	1391.1404	1435.8982	1456.1062	1468.4317	1504.8004	1519.0708	1788.0995	2980.2123	3028.0848	3048.9864	3073.2502	3090.6406	3111.3089	3158.9028	3167.7883	3466.8843
CC(=O)C12COCC1N2	CC(=O)[C@]12COC[C@H]1N2	
InChI=1S/C6H9NO2/c1-4(8)6-3-9-2-5(6)7-6/h5,7H,2-3H2,1H3	InChI=1S/C6H9NO2/c1-4(8)6-3-9-2-5(6)7-6/h5,7H,2-3H2,1H3/t5-,6-/m1/s1
