21
gdb 90996	3.35326	1.52593	1.48103	1.4994	80.66	-0.231	0.0909	0.3219	1010.1226	0.185862	-387.08771	-387.080672	-387.079728	-387.118777	29.753	
C	-0.190577357	 1.5251855751	 0.0184407423	-0.417151
C	 0.0383003277	 0.0113331906	-0.0020123966	 0.034556
C	 0.9078362973	-0.4720464623	-1.2094194124	-0.257729
C	 2.2292461053	-0.8882349144	-0.5539940146	-0.02194
C	 2.1521982153	-2.1336849441	 0.390246096	 0.094348
C	 3.1357485601	-1.4175458916	 1.3408967895	-0.244689
C	 2.3477492688	-0.1818365274	 0.840990427	-0.078253
C	 0.8706305676	-0.5022223659	 1.1830965391	 0.097361
O	 0.8913637417	-1.9508304766	 1.0557402578	-0.296392
H	 0.7549485365	 2.0785079382	-0.0027143818	 0.114214
H	-0.773906514	 1.8408843134	-0.8527357946	 0.116283
H	-0.7377544109	 1.8345211795	 0.9159188373	 0.112643
H	-0.9298321429	-0.4986115935	 0.0094554261	 0.076712
H	 0.4403168668	-1.3048822712	-1.7427272731	 0.104086
H	 1.0623168677	 0.3329582787	-1.935629044	 0.093245
H	 3.1228961168	-0.859759016	-1.1775004635	 0.068578
H	 2.251902986	-3.1664462415	 0.0573028624	 0.073242
H	 3.0845611034	-1.6901158007	 2.3975617251	 0.097534
H	 4.1685588854	-1.4175111669	 0.9852473624	 0.096868
H	 2.6921381411	 0.8430808559	 0.9707593276	 0.070513
H	 0.5094201873	-0.2218584994	 2.1754284478	 0.065969
135.8172	226.8114	256.4485	328.4549	396.2487	438.7804	501.8729	613.3733	691.0089	715.1532	796.6988	825.3245	851.3362	868.2804	878.0512	915.4532	924.5448	938.0043	954.628	984.4974	1016.6873	1024.7282	1033.3623	1065.9792	1070.1808	1108.821	1119.8012	1128.567	1177.976	1223.378	1231.1009	1235.4687	1250.8733	1265.5796	1276.4939	1296.9128	1323.435	1330.7209	1355.4124	1368.2736	1409.9856	1487.1365	1490.2148	1497.3773	1500.423	3026.8706	3044.8558	3056.7206	3064.6296	3084.0828	3087.5486	3096.318	3097.9006	3112.65	3124.2735	3127.0603	3131.2303
CC1CC2C3CC2C1O3	C[C@H]1C[C@@H]2[C@H]3C[C@@H]2[C@@H]1O3	
InChI=1S/C8H12O/c1-4-2-5-6-3-7(5)9-8(4)6/h4-8H,2-3H2,1H3	InChI=1S/C8H12O/c1-4-2-5-6-3-7(5)9-8(4)6/h4-8H,2-3H2,1H3/t4-,5-,6-,7+,8+/m0/s1
