14
gdb 25511	4.55934	1.1447	0.91498	2.9587	75.37	-0.2449	-0.0536	0.1914	1179.7674	0.103271	-432.933909	-432.926595	-432.925651	-432.967016	26.322	
O	 1.8879648992	 4.2106483587	 0.2011110844	-0.261255
C	 1.0604667917	 3.3417766922	 0.157075412	 0.156719
N	 1.2759686167	 1.9791972553	 0.0178527761	-0.392553
C	 2.4686758471	 1.2628537405	-0.1054251999	 0.421254
N	 3.6343538412	 1.8991117437	-0.0975374521	-0.275717
C	 4.7228138577	 1.1363443577	-0.2204216517	-0.011802
C	 4.6572974127	-0.2451232033	-0.3498814514	-0.023653
N	 3.481800621	-0.8863174407	-0.3578078812	-0.225542
C	 2.3972614781	-0.1379595785	-0.2365923854	-0.07688
H	-0.0303415416	 3.534068733	 0.2258759044	 0.081248
H	 0.4370153331	 1.4181398801	 0.0035168373	 0.257198
H	 5.6787586095	 1.6537837855	-0.2145255173	 0.124361
H	 5.5544210336	-0.8483438498	-0.4486591635	 0.119887
H	 1.4354634898	-0.6493896544	-0.2418607817	 0.106735
26.682	159.107	166.781	274.1157	340.2435	428.5103	542.2522	552.7916	592.9236	636.6926	782.0075	811.2569	868.4895	885.7688	940.9292	988.993	1019.8574	1020.2977	1076.6158	1134.7909	1199.3827	1242.9576	1306.0335	1343.3321	1422.7975	1452.0501	1508.2631	1533.9145	1598.4274	1620.5689	1844.5707	2917.7245	3130.5819	3161.4218	3184.6891	3614.8401
O=CNC1=NC=CN=C1	O=CNc1nccnc1	
InChI=1S/C5H5N3O/c9-4-8-5-3-6-1-2-7-5/h1-4H,(H,7,8,9)	InChI=1S/C5H5N3O/c9-4-8-5-3-6-1-2-7-5/h1-4H,(H,7,8,9)
