19
gdb 47436	2.98943	1.32542	0.96975	2.6156	75.86	-0.2207	-0.0229	0.1978	1214.5652	0.16032	-419.183657	-419.175359	-419.174415	-419.217159	31.209	
O	 0.2720188924	 0.0149453016	 0.3614433918	-0.307158
C	 0.0759121912	 1.1796524221	 0.1377838147	 0.393106
C	-1.2726644333	 1.8494983459	-0.159791111	-0.283128
N	-0.9844689666	 3.2422785403	-0.5196504265	-0.294112
C	 0.2878435169	 3.5696689441	 0.1520580481	-0.20632
C	 1.1470527587	 2.2921984674	 0.1056415739	-0.075487
N	 2.090380815	 2.1614014185	 1.1943209074	-0.062593
C	 3.1381495026	 1.1567979598	 1.033465586	-0.204384
C	 3.46192889	 2.6056269401	 0.9419847987	-0.232782
H	-1.8274808855	 1.3184164263	-0.9371018841	 0.132382
H	-1.8789579389	 1.8062872501	 0.7567101242	 0.140597
H	-0.8491873749	 3.3019267998	-1.5237764228	 0.222971
H	 0.7578559918	 4.4335411739	-0.3220807397	 0.108459
H	 0.0933387335	 3.8229946145	 1.2011621177	 0.124232
H	 1.6308238381	 2.2190449175	-0.8906816705	 0.073865
H	 3.3817599565	 0.5902005675	 1.9266289489	 0.122411
H	 3.1497088719	 0.5777261398	 0.1137059225	 0.120853
H	 3.694704091	 3.0064577433	-0.0435485317	 0.107547
H	 3.9462988895	 3.1194523975	 1.7669077324	 0.119542
66.4397	86.6697	163.9024	188.0036	279.5058	334.4	402.2445	472.1274	549.0887	568.3618	664.1498	726.9346	793.3231	810.5024	874.4801	895.4443	916.4669	972.4751	989.6401	1023.6762	1049.1025	1093.7457	1100.0883	1116.5378	1118.7076	1124.1685	1174.3149	1180.8934	1199.2021	1267.1814	1287.1899	1303.4123	1315.5713	1335.45	1376.2024	1458.3801	1463.2289	1492.8268	1500.2966	1518.9453	1853.1612	2882.4133	3010.7249	3041.9119	3096.1684	3103.8726	3112.641	3115.3732	3183.5861	3203.0592	3516.1622
O=C1CNCC1N1CC1	O=C1CNC[C@H]1N1CC1	
InChI=1S/C6H10N2O/c9-6-4-7-3-5(6)8-1-2-8/h5,7H,1-4H2	InChI=1S/C6H10N2O/c9-6-4-7-3-5(6)8-1-2-8/h5,7H,1-4H2/t5-/m1/s1
