23
gdb 115600	3.16809	0.98073	0.90396	2.3981	82.08	-0.2428	0.0565	0.2993	1452.2639	0.20331	-425.41736	-425.406731	-425.405787	-425.45313	38.837	
C	-0.07812385	 1.5550097097	-0.3333723354	-0.38998
C	 0.0354362301	 0.0428402281	-0.1184922237	-0.179069
C	-1.2984486491	-0.5700773681	 0.2747903299	 0.105478
O	-2.3057455364	-0.436336556	-0.7635327851	-0.29467
C	-2.3571071121	-1.8591758755	-0.9765045772	-0.122892
C	-1.4315867922	-2.1164265057	 0.2422187948	 0.327412
O	-0.1979018645	-2.7463708712	-0.03526613	-0.475423
C	-2.1206475034	-2.7101672759	 1.472110161	-0.225518
C	-2.4558494051	-4.2003052322	 1.3434153723	-0.41459
H	 0.8777268496	 1.9806974012	-0.65285302	 0.108964
H	-0.8250730216	 1.7760834929	-1.1011359563	 0.134387
H	-0.3816541176	 2.0672635414	 0.5868179912	 0.108758
H	 0.4001523006	-0.4467895262	-1.0265496739	 0.107837
H	 0.7640448497	-0.1820409832	 0.6701192851	 0.099254
H	-1.659075754	-0.1171976753	 1.210084376	 0.065076
H	-3.3818947422	-2.246895183	-0.9183835786	 0.09192
H	-1.9074100769	-2.1544471331	-1.9332599522	 0.095889
H	-0.3524403379	-3.6921251062	-0.1248835669	 0.281075
H	-1.46740392	-2.5507355683	 2.339008065	 0.105474
H	-3.0396542179	-2.142131874	 1.6583164323	 0.109783
H	-2.9843269418	-4.558545342	 2.2312415654	 0.125902
H	-3.0963822752	-4.39746536	 0.4764713268	 0.122684
H	-1.5531159222	-4.8145781774	 1.2450323594	 0.112248
58.2439	93.3312	106.4385	152.6619	199.8468	216.6795	230.278	265.5892	302.1372	325.8022	352.7466	425.5471	487.874	573.0226	658.5508	769.1598	788.9797	854.2239	886.2476	908.2452	957.3192	988.2565	998.9373	1018.7645	1037.4922	1064.8304	1099.1532	1112.7705	1136.2315	1164.068	1198.9453	1229.2642	1273.4219	1286.1465	1309.9632	1317.3487	1338.3945	1364.9366	1389.5385	1407.2098	1411.7319	1416.2972	1475.9661	1477.0846	1498.2662	1501.2469	1510.4419	1512.5644	1516.298	2991.6659	3006.5643	3027.4845	3030.3678	3033.7749	3039.1672	3053.4605	3065.5366	3082.865	3094.3119	3103.7177	3109.0394	3118.1042	3818.0608
CCC1OCC1(O)CC	CC[C@H]1OC[C@]1(O)CC	
InChI=1S/C7H14O2/c1-3-6-7(8,4-2)5-9-6/h6,8H,3-5H2,1-2H3	InChI=1S/C7H14O2/c1-3-6-7(8,4-2)5-9-6/h6,8H,3-5H2,1-2H3/t6-,7-/m1/s1
