20
gdb 40458	3.87538	1.35203	1.26032	0.9628	82.5	-0.2219	0.0879	0.3098	1072.4009	0.172314	-365.924918	-365.917606	-365.916662	-365.956742	30.072	
C	-0.1312948078	 1.3417475342	-0.3045726646	-0.235592
C	 1.2543899882	 0.9261325784	 0.0462226686	-0.235416
N	 0.1561048346	-0.0390873647	 0.0698067287	-0.170511
C	-0.2694969833	-0.5304889618	 1.3435097664	 0.378793
C	 0.3772258242	-1.8483800304	 1.8580249125	-0.273531
C	-0.9543224168	-2.1036509323	 2.5568042282	-0.056886
C	-1.472492363	-0.7451208586	 3.0520403003	-0.064251
C	-0.4467910335	 0.3145598633	 2.6555909963	-0.293316
C	-1.6937637039	-1.1753880381	 1.6238982304	-0.14092
H	-0.6532139665	 1.9806938255	 0.4033075943	 0.114063
H	-0.4150591056	 1.486549887	-1.3430918453	 0.116565
H	 2.0012024432	 0.7718482299	-0.7273024316	 0.116672
H	 1.6476460346	 1.2763631438	 0.998437699	 0.116687
H	 0.5371031787	-2.5419561462	 1.0290496005	 0.105336
H	 1.290343663	-1.7628924774	 2.4595577287	 0.081437
H	-1.314685554	-3.0275820942	 2.9900957644	 0.083711
H	-2.2111500251	-0.6834812203	 3.8406063472	 0.084254
H	 0.4354836477	 0.4639228483	 3.2894526836	 0.086008
H	-0.9365702218	 1.2749166821	 2.4718861641	 0.097571
H	-2.5829777029	-1.2965811886	 1.0233383383	 0.089324
64.8195	187.0468	222.8039	351.4722	397.0834	439.4006	479.5932	563.1576	718.1116	739.1035	780.7768	792.657	813.1599	874.4224	887.8379	910.1471	930.3882	947.936	961.0056	986.4287	1008.6883	1023.4521	1034.1096	1045.9652	1094.5402	1102.3397	1109.7365	1119.4841	1134.909	1155.1416	1167.7457	1173.3654	1188.935	1212.5745	1241.9822	1277.2326	1297.0936	1359.2289	1379.599	1486.2238	1491.9619	1506.6566	1516.2707	3022.2333	3030.4514	3089.4759	3101.7095	3106.4574	3109.7847	3182.2889	3193.1989	3197.5476	3200.4108	3228.9878
C1CN1C12CC3C(C1)C23	C1CN1[C@@]12C[C@H]3[C@@H](C1)[C@@H]23	
InChI=1S/C8H11N/c1-2-9(1)8-3-5-6(4-8)7(5)8/h5-7H,1-4H2	InChI=1S/C8H11N/c1-2-9(1)8-3-5-6(4-8)7(5)8/h5-7H,1-4H2/t5-,6+,7-,8-
