23
gdb 91804	2.52167	1.40668	1.20641	1.4247	84.94	-0.2527	0.0672	0.3199	1188.1172	0.205958	-388.296693	-388.287413	-388.286468	-388.330069	36.779	
C	 0.0174045681	 1.5773105829	-0.0637453786	-0.43699
C	 0.0964459188	 0.0521761648	-0.0410976276	 0.043764
C	 0.8593977414	-0.5839025116	-1.2293686088	-0.246573
C	 1.3006913099	-1.9537977226	-0.7159667531	-0.08131
C	 2.5586110483	-2.0026908429	 0.1128705458	-0.31697
C	 1.2182322744	-1.9511837564	 0.802772412	 0.375356
C	 0.7330964289	-3.1385444128	 1.6006870736	-0.495642
C	 0.7526810979	-0.5537193354	 1.2315048852	 0.00534
O	 1.8704060484	 0.1980679341	 1.7036643888	-0.43033
H	 1.0185456162	 2.0202522799	-0.0350829604	 0.12118
H	-0.4739657705	 1.932827178	-0.97503033	 0.1175
H	-0.5554919188	 1.9670966913	 0.7868258789	 0.10503
H	-0.9244936809	-0.3533059089	-0.0632689833	 0.069692
H	 0.2216756875	-0.6633181242	-2.1149111832	 0.093649
H	 1.7199823806	 0.0338569234	-1.5143976481	 0.099779
H	 1.0159925217	-2.8395165016	-1.2745546837	 0.074561
H	 3.0947881832	-2.9454892751	 0.1629263027	 0.098428
H	 3.1894175727	-1.1221898901	 0.151260619	 0.12422
H	 1.0548297567	-4.0785302221	 1.1405918177	 0.111869
H	 1.1271839357	-3.1195824889	 2.6237179673	 0.121002
H	-0.3616607037	-3.1604179763	 1.66690125	 0.109432
H	 0.0087292807	-0.6396754081	 2.0376145901	 0.055475
H	 1.5433848127	 1.0516878324	 2.0043549757	 0.281539
70.4477	192.365	219.2022	237.7587	256.2701	270.3796	287.3007	337.7065	348.9626	418.7794	482.0673	503.1758	602.0064	640.9265	739.2957	818.9367	840.0386	863.0819	907.3392	921.3377	942.3866	962.6779	991.8512	1014.3225	1061.5684	1067.3484	1082.6998	1103.3071	1120.5935	1143.1284	1172.2208	1203.5353	1222.2539	1270.3256	1291.2607	1307.856	1326.0011	1347.0042	1367.7501	1393.9606	1405.02	1418.6958	1430.5294	1485.669	1490.2925	1497.1975	1500.6222	1503.2932	1506.8709	2978.556	3009.5291	3017.4486	3022.7207	3029.3881	3074.7541	3078.3863	3086.7504	3094.1537	3101.7746	3127.3633	3157.836	3218.3472	3820.4744
CC1CC2CC2(C)C1O	C[C@H]1C[C@H]2C[C@@]2(C)[C@H]1O	
InChI=1S/C8H14O/c1-5-3-6-4-8(6,2)7(5)9/h5-7,9H,3-4H2,1-2H3	InChI=1S/C8H14O/c1-5-3-6-4-8(6,2)7(5)9/h5-7,9H,3-4H2,1-2H3/t5-,6-,7-,8+/m0/s1
