17
gdb 64520	2.88591	1.71246	1.39838	2.0517	71.18	-0.2411	-0.0271	0.214	954.3459	0.134212	-421.762736	-421.754963	-421.754018	-421.794974	29.802	
C	 0.113789214	 1.6589671998	-0.3021443914	-0.485818
C	 0.0372536421	 0.1442324167	-0.1516391031	 0.216247
C	-1.3906110121	-0.3443318855	-0.0632142095	 0.11355
O	-1.7650368288	-1.2563774811	 0.6325368198	-0.262151
C	 0.8135482669	-0.7441896394	-1.1473846371	-0.157222
C	 2.2301048273	-0.8550769818	-0.5349997163	 0.062674
O	 2.2670992966	-0.0532981136	 0.6419944132	-0.28788
C	 0.9349122002	-0.5621523499	 0.9216243575	 0.036948
C	 1.1507421966	-1.7625797361	-0.0654934261	-0.126801
H	 1.1563803078	 1.9787336473	-0.3260897425	 0.146723
H	-0.3719583027	 1.9827806743	-1.2294832326	 0.118043
H	-0.3840525996	 2.1695284005	 0.5303128021	 0.121802
H	-2.1088803551	 0.2109829515	-0.7103422598	 0.07735
H	 0.6105426045	-0.9129171545	-2.1977624719	 0.096357
H	 3.1364761399	-1.0078010158	-1.1053145399	 0.11746
H	 0.6711215636	-0.5855576436	 1.9752727078	 0.100003
H	 1.0267622788	-2.8324144889	 0.0063771098	 0.112714
90.3616	172.516	185.8417	210.5825	282.1265	309.407	442.3723	574.1224	612.7061	679.2458	762.9398	782.5982	800.2279	821.9788	861.3203	893.8967	930.4827	940.5856	984.8758	1002.2807	1025.9973	1034.2456	1058.2702	1076.8447	1146.1706	1155.5823	1186.8806	1200.5402	1218.7632	1240.6051	1305.8546	1364.6352	1397.9924	1426.649	1485.4607	1501.3811	1811.7956	2860.7287	3031.5677	3090.5434	3142.3658	3167.1367	3193.8143	3212.5733	3235.5078
CC1(C=O)C2C3OC1C23	C[C@@]1(C=O)[C@H]2[C@H]3O[C@@H]1[C@@H]23	
InChI=1S/C7H8O2/c1-7(2-8)4-3-5(4)9-6(3)7/h2-6H,1H3	InChI=1S/C7H8O2/c1-7(2-8)4-3-5(4)9-6(3)7/h2-6H,1H3/t3-,4+,5-,6+,7+/m0/s1
