12
gdb 21844	7.87077	1.24016	1.08834	5.6743	57.76	-0.2549	-0.0059	0.249	991.0882	0.08524	-414.695038	-414.688402	-414.687458	-414.726468	23.449	
O	-0.0747032728	 0.0263561934	 0.1141291987	-0.259632
C	-0.0023842269	 1.1983748421	-0.0797257313	 0.165505
O	 1.060128373	 1.9301643605	 0.3780838269	-0.220153
C	 1.0246649741	 3.2858341544	 0.2227196525	 0.44491
N	-0.0991598818	 3.9778591358	 0.3428444291	-0.30256
N	 0.2976016307	 5.2532077808	 0.1428204644	-0.185464
C	 1.6276701454	 5.3694768594	-0.0769429189	 0.000668
C	 2.1492299188	 4.0938308109	-0.0368173507	-0.319183
H	-0.7296018684	 1.8163741006	-0.6273855951	 0.118361
H	-0.3887207694	 5.9858338171	 0.196735244	 0.284515
H	 2.0935311637	 6.3278845025	-0.2423656845	 0.146737
H	 3.1707215836	 3.7839998225	-0.1741098851	 0.126295
76.6299	131.9974	184.4523	371.0251	442.6266	474.3221	516.5382	659.9502	720.0932	773.441	837.2059	847.0814	941.1966	1015.8213	1041.0009	1073.1664	1092.4247	1128.1573	1230.378	1310.7175	1406.3091	1412.1594	1487.8704	1508.3177	1577.1249	1876.0993	3039.0897	3265.1982	3291.6589	3684.0086
O=COC1=NNC=C1	O=COc1n[nH]cc1	
InChI=1S/C4H4N2O2/c7-3-8-4-1-2-5-6-4/h1-3H,(H,5,6)	InChI=1S/C4H4N2O2/c7-3-8-4-1-2-5-6-4/h1-3H,(H,5,6)
