23
gdb 117624	2.65543	0.75723	0.6772	1.6765	91.78	-0.2465	0.0453	0.2918	1831.9393	0.201505	-388.277861	-388.265825	-388.264881	-388.316828	42.225	
C	-0.0781241716	 1.6069025442	 0.1912455033	-0.387511
C	 0.0065189985	 0.0869896847	 0.0199800664	-0.177688
C	-1.3756870979	-0.5619211158	-0.1089407687	-0.175362
C	-1.3727144332	-2.1134299311	-0.0855501469	 0.136158
C	-0.5476232308	-2.7155648159	-1.2318707914	-0.396609
O	-0.7477364914	-2.5891121548	 1.1176431302	-0.447202
C	-2.7629046981	-2.5921950738	-0.1514994064	 0.066916
C	-3.9093958286	-2.9623305265	-0.1726833136	 0.054972
C	-5.2900536854	-3.4237605175	-0.2074574298	-0.500417
H	 0.9176161181	 2.053105249	 0.2773483424	 0.111162
H	-0.580844577	 2.0771565212	-0.6614656366	 0.112078
H	-0.6416140522	 1.8736114881	 1.0924780835	 0.111637
H	 0.611859029	-0.1415928717	-0.8649293337	 0.09682
H	 0.5256027552	-0.3595967162	 0.8745767268	 0.111036
H	-2.0136007658	-0.223479535	 0.7187008863	 0.087339
H	-1.8719944986	-0.2277024608	-1.0284172865	 0.099349
H	 0.5029812223	-2.4368357145	-1.1222055965	 0.125635
H	-0.6203668283	-3.8047334596	-1.205912414	 0.127973
H	-0.9136578304	-2.3604065867	-2.1985348106	 0.117241
H	-1.3579055493	-2.4188683192	 1.8434008973	 0.278678
H	-5.4164952199	-4.3417018948	 0.3771341505	 0.150121
H	-5.9749901596	-2.6723392123	 0.2006345122	 0.147212
H	-5.6085145551	-3.6398114109	-1.2332805542	 0.150464
15.5037	70.6441	78.5815	87.0698	134.3676	199.4064	233.6848	250.5613	287.1856	294.4737	316.5249	317.9861	370.1809	382.7531	431.0414	563.2317	567.7679	714.7015	748.1612	843.486	870.077	921.5882	951.8254	1001.4155	1046.8231	1051.4615	1054.793	1065.5398	1110.6364	1140.78	1188.1843	1213.8319	1264.7729	1306.4585	1327.147	1372.3998	1391.5132	1407.4017	1413.5883	1414.5028	1473.5534	1477.7724	1478.9098	1484.9861	1495.2021	1497.4535	1499.4483	1512.5302	2362.7049	3014.5383	3026.9941	3027.3618	3037.4754	3052.8345	3054.8398	3075.8388	3087.811	3088.6267	3099.7545	3100.7843	3133.1102	3136.455	3809.3489
CCCC(C)(O)C#CC	CCC[C@@](C)(O)C#CC	
InChI=1S/C8H14O/c1-4-6-8(3,9)7-5-2/h9H,4,6H2,1-3H3	InChI=1S/C8H14O/c1-4-6-8(3,9)7-5-2/h9H,4,6H2,1-3H3/t8-/m1/s1
