18
gdb 71874	3.02261	1.92355	1.45979	3.7911	74.53	-0.2344	-0.0164	0.218	923.2354	0.148479	-401.886241	-401.879265	-401.878321	-401.917042	28.943	
C	 0.1365526132	 1.530632348	 0.0590072665	-0.488194
C	-0.0124428979	 0.0211093733	 0.0276742029	 0.289338
C	 0.1095356725	-0.6546827027	-1.4176430211	-0.301338
C	-1.3202840614	-1.3108689216	-1.2889721638	 0.080884
O	-1.3241960881	-2.6777993217	-0.6795589453	-0.279217
C	-0.8644002701	-2.0152231342	 0.4472877619	 0.316754
N	 0.2372722592	-2.1572445009	 1.0518308066	-0.257657
C	 0.7234823747	-0.7461117099	 1.1766560644	-0.206834
C	-1.4056065316	-0.6435529649	 0.0874282978	-0.176692
H	 1.1817556612	 1.823205445	-0.0956974711	 0.12315
H	-0.4600508495	 2.0126133353	-0.7225176502	 0.116297
H	-0.1815887988	 1.9401235215	 1.0242683962	 0.120323
H	 0.1069317145	 0.1069514986	-2.201586317	 0.113581
H	 0.9365503693	-1.3450931862	-1.5890735596	 0.132765
H	-2.0334994243	-1.2603127356	-2.1090734444	 0.102696
H	 1.8106587515	-0.7625684817	 1.045673508	 0.11749
H	 0.5145327955	-0.2941983672	 2.1571718727	 0.104165
H	-2.3040810898	-0.2504053051	 0.5591731656	 0.09249
219.3422	239.8946	257.157	301.2543	356.0895	400.3595	514.9087	574.0809	623.953	668.0207	734.2078	767.4222	829.0315	857.0129	863.43	906.7695	908.7263	937.5798	959.9188	980.4213	996.8884	1086.4527	1102.2816	1122.8857	1146.0598	1181.8557	1200.8688	1219.333	1236.9127	1254.9799	1265.5334	1308.6087	1345.0343	1413.3561	1454.2375	1484.0797	1493.3166	1495.2196	1696.0821	3003.442	3024.3668	3071.9634	3072.4466	3088.0198	3095.3905	3132.426	3137.8914	3145.3861
CC12CC3OC(=NC1)C23	C[C@@]12C[C@H]3O[C]([N]C1)[C@@H]23	
InChI=1S/C7H9NO/c1-7-2-4-5(7)6(9-4)8-3-7/h4-5H,2-3H2,1H3	InChI=1S/C7H9NO/c1-7-2-4-5(7)6(9-4)8-3-7/h4-5H,2-3H2,1H3/t4-,5+,7-/m1/s1
