18
gdb 7168	3.22729	1.18527	1.03347	4.0183	69.41	-0.2503	0.0161	0.2664	1180.7692	0.153058	-381.109981	-381.100893	-381.099949	-381.144259	32.106	
C	 0.3054262691	 1.4407359062	-0.0607157762	-0.340706
N	 0.1259840358	-0.0077355692	-0.009002619	-0.07909
C	 0.7456689353	-0.624039977	 1.1717289944	-0.163602
C	 1.1351058693	-2.0753789386	 0.8818545816	-0.057537
O	 1.9692715511	-2.1568277945	-0.2508261353	-0.415012
C	-1.2792955454	-0.3814873199	-0.1378904011	-0.284603
C	-1.8109621011	-0.0739776964	-1.4709838718	 0.275467
N	-2.2393588676	 0.1738245043	-2.5145318587	-0.30339
H	 1.3725559501	 1.6742509211	-0.0462291515	 0.135554
H	-0.1165819728	 1.8319133388	-0.9904319746	 0.150984
H	-0.1781057313	 1.9622881815	 0.784558314	 0.104154
H	 1.6608418912	-0.0640530021	 1.3839959834	 0.117895
H	 0.102870667	-0.558863995	 2.0682045775	 0.087161
H	 1.6903679861	-2.4783521162	 1.7357344332	 0.112477
H	 0.2346234426	-2.7040657448	 0.7658714201	 0.08463
H	 1.5803522236	-1.5518553143	-0.8975866193	 0.283584
H	-1.3856575582	-1.4582543091	 0.0241411229	 0.158421
H	-1.9217089848	 0.1187128551	 0.6116989302	 0.133616
58.2076	78.8363	132.6127	173.0605	234.4408	262.5483	355.812	384.007	394.1463	397.1441	485.8714	543.3934	570.8445	807.4961	885.9013	928.8181	958.848	1004.3049	1055.153	1079.6578	1106.574	1152.1551	1180.7535	1206.4219	1252.8288	1291.658	1316.5733	1376.2004	1392.6046	1396.2743	1440.9428	1458.7858	1473.4867	1489.5349	1495.4647	1506.7307	1517.4917	2367.0348	2929.8961	2941.6893	2949.8227	2955.5521	3068.1392	3082.9566	3084.9334	3088.9028	3127.6096	3742.5335
CN(CCO)CC#N	CN(CCO)CC#N	
InChI=1S/C5H10N2O/c1-7(3-2-6)4-5-8/h8H,3-5H2,1H3	InChI=1S/C5H10N2O/c1-7(3-2-6)4-5-8/h8H,3-5H2,1H3
