20
gdb 61879	2.59253	0.87656	0.7154	4.0501	78.05	-0.2604	0.02	0.2804	1602.6615	0.168673	-440.261362	-440.25135	-440.250405	-440.297771	35.111	
C	-0.0957278264	 1.5138860101	 0.1275647538	-0.393233
C	-0.0833615989	-0.0099356168	 0.2070983052	 0.111447
C	 0.320819787	-0.5284328982	 1.5870668274	-0.238226
C	 0.3717203085	-2.0367266381	 1.6637183669	 0.088336
C	 1.6128316382	-2.7848275724	 1.4188832114	-0.178358
O	 1.123792637	-2.5884405654	 2.7459726391	-0.236224
O	-1.400798737	-0.5268843563	-0.0585135447	-0.193351
C	-1.7418560362	-0.72098398	-1.3460897886	 0.127981
N	-2.9210537925	-1.0557748375	-1.6469966152	-0.442478
H	 0.9004113612	 1.91755683	 0.3332498857	 0.122596
H	-0.4016118554	 1.8501428357	-0.8676099447	 0.122254
H	-0.7979644729	 1.9263897722	 0.8579673249	 0.137794
H	 0.6073231103	-0.416229136	-0.5467604422	 0.083735
H	 1.3042004877	-0.1234467924	 1.8481917817	 0.110109
H	-0.394005351	-0.1495031057	 2.3274600006	 0.123041
H	-0.5731330768	-2.5438197245	 1.4735584876	 0.116713
H	 1.5679330678	-3.8080625965	 1.0486817468	 0.117774
H	 2.5281462805	-2.245107664	 1.1752589705	 0.107965
H	-0.9070011333	-0.5754040508	-2.0470656331	 0.083495
H	-2.9978582078	-1.1868685835	-2.6534486828	 0.22863
44.2392	69.2154	88.0231	117.9121	157.8154	215.7642	237.7434	321.503	345.9501	400.8435	475.7232	531.9384	593.1067	817.9805	820.9914	860.2121	875.9895	887.6161	940.1381	973.7009	1022.9338	1044.7455	1078.9491	1110.8288	1130.4339	1148.9561	1155.9801	1162.7114	1185.5718	1245.9669	1287.2573	1300.0365	1312.8705	1374.5402	1390.5044	1411.1038	1427.293	1442.8	1474.1872	1488.2421	1495.1301	1529.7903	1744.4531	2993.1758	3012.0073	3038.075	3042.7529	3077.4834	3087.4577	3114.1853	3120.9744	3128.8711	3164.3663	3518.0053
CC(CC1CO1)OC=N	C[C@@H](C[C@H]1CO1)O[CH][NH]	
InChI=1S/C6H11NO2/c1-5(9-4-7)2-6-3-8-6/h4-7H,2-3H2,1H3	InChI=1S/C6H11NO2/c1-5(9-4-7)2-6-3-8-6/h4-7H,2-3H2,1H3/t5-,6-/m0/s1
