20
gdb 111419	2.21565	1.44196	1.0132	2.2606	74.77	-0.2403	0.0601	0.3004	1224.1678	0.170306	-440.213309	-440.204059	-440.203115	-440.247682	33.875	
C	 0.2664211827	 1.0075471324	-0.2393969825	-0.245219
O	 0.0537832722	-0.37094227	-0.4642205806	-0.244696
C	-1.2274609692	-0.8162742092	-0.097510529	 0.094328
C	-1.5242473504	-2.2410208768	-0.5332823309	-0.060383
C	-0.6230486231	-3.1863795369	 0.1465862021	-0.246989
N	-1.8095535971	-2.7077823663	 0.8887706639	-0.162236
C	-1.4966917221	-1.3024189311	 1.367288098	-0.017225
C	-0.4461225051	-1.2236024261	 2.460969793	-0.067858
O	-0.8442271348	-1.9915126563	 3.5843729995	-0.427477
H	 1.2705082182	 1.2416638828	-0.6002148786	 0.132608
H	-0.4624145578	 1.6222993374	-0.7893969041	 0.110003
H	 0.2048284	 1.2703891196	 0.8265641524	 0.112555
H	-1.9892464258	-0.0977086354	-0.4283910083	 0.074828
H	-2.1601857732	-2.5235476381	-1.3649433962	 0.099874
H	-0.7082573843	-4.2330550931	-0.1271942942	 0.124996
H	 0.3747019757	-2.8686677014	 0.4304023656	 0.133312
H	-2.4333143922	-0.8879511107	 1.7508282819	 0.091364
H	 0.5408957699	-1.5348649086	 2.0897039379	 0.095754
H	-0.3447840738	-0.1888517788	 2.8075124184	 0.106755
H	-1.1670493096	-2.8350323133	 3.2454539816	 0.295704
89.5866	95.9114	124.8929	142.1843	184.499	277.4911	294.2595	357.5902	370.9989	494.9316	544.1245	565.9686	738.7606	772.4221	782.7232	847.598	906.0533	978.8569	1004.5003	1036.8662	1059.2855	1063.6662	1088.3067	1103.6498	1115.5704	1155.1336	1165.4167	1182.7755	1210.648	1217.6295	1230.8103	1258.7913	1296.8273	1330.4394	1369.2074	1384.37	1398.0383	1435.1262	1481.47	1489.632	1494.9044	1507.3323	1519.7493	2981.4177	3001.2784	3011.6328	3032.2102	3056.3362	3074.4632	3119.8705	3129.434	3174.2787	3216.4877	3789.0679
COC1C2CN2C1CO	CO[C@H]1[C@H]2CN2[C@H]1CO	
InChI=1S/C6H11NO2/c1-9-6-4-2-7(4)5(6)3-8/h4-6,8H,2-3H2,1H3	InChI=1S/C6H11NO2/c1-9-6-4-2-7(4)5(6)3-8/h4-6,8H,2-3H2,1H3/t4-,5+,6+,7?/m1/s1
