17
gdb 46371	3.48379	1.10391	0.88754	3.4075	67.73	-0.2571	0.0022	0.2593	1258.6045	0.136436	-458.958149	-458.950008	-458.949063	-458.992567	28.569	
O	 0.3630524814	 0.0972938973	 0.185962184	-0.32356
C	 0.159368925	 1.2414542353	-0.0621795042	 0.458271
O	-0.9844866182	 1.8053933736	-0.5686722394	-0.237667
C	-0.4104424669	 3.1518984211	-0.5075932845	-0.107716
C	 0.9101796034	 2.5760695778	 0.0441436742	-0.205424
C	 1.3699467632	 2.9654065298	 1.4388843819	-0.047887
C	 2.6331700849	 2.2228431954	 1.935160625	-0.083477
O	 3.4312472314	 3.4206229497	 1.821409763	-0.26932
C	 2.2706184793	 4.2203748995	 1.5295061765	-0.089989
H	-0.3735584098	 3.6016767468	-1.5012913194	 0.130633
H	-0.9817658642	 3.7814244944	 0.178774751	 0.12728
H	 1.7435681484	 2.6300671437	-0.6633032296	 0.122691
H	 0.5273254083	 2.9511646316	 2.1349520961	 0.089736
H	 2.5752152964	 1.8638655691	 2.9699421252	 0.108533
H	 3.0013541313	 1.412577886	 1.29680126	 0.122688
H	 2.3904668236	 4.803842067	 0.6077745364	 0.101986
H	 2.0222930125	 4.9037449518	 2.3522352439	 0.10322
49.1469	59.4361	119.1483	135.3211	280.5025	309.0838	374.2043	536.2969	669.3694	754.1704	818.7823	838.0924	876.9603	921.4061	943.7624	961.1921	987.5899	1036.7826	1045.8203	1063.9243	1098.3862	1121.1834	1154.106	1159.3013	1162.5091	1205.0132	1232.5688	1248.4236	1281.4839	1309.6298	1350.169	1375.6553	1404.9433	1511.22	1517.8107	1537.2858	1934.9069	3004.204	3024.4838	3046.4752	3065.3517	3071.8448	3072.0483	3085.0443	3133.2949
O=C1OCC1C1COC1	O=C1OC[C@H]1C1COC1	
InChI=1S/C6H8O3/c7-6-5(3-9-6)4-1-8-2-4/h4-5H,1-3H2	InChI=1S/C6H8O3/c7-6-5(3-9-6)4-1-8-2-4/h4-5H,1-3H2/t5-/m0/s1
