22
gdb 113661	3.4102	0.84602	0.77781	3.2723	85.86	-0.2425	0.0323	0.2748	1605.1388	0.193425	-404.380253	-404.369708	-404.368764	-404.416687	37.584	
C	-0.082280535	 1.5791483608	 0.0102924946	-0.373547
C	-0.0363919283	 0.0965776363	 0.399130235	-0.208399
C	-1.3706905955	-0.5878098433	 0.1812145621	 0.020492
C	-1.775598951	-1.1290836941	-1.1546571072	-0.283959
C	-1.5158984531	-2.0970890247	-0.0179569802	-0.165581
C	-0.305933427	-2.9746613674	-0.1096888549	 0.438482
O	 0.6683149082	-2.7049177199	-0.7986658422	-0.393226
N	-0.3795828879	-4.114517812	 0.6415188216	-0.326175
C	 0.6946219539	-5.0849347439	 0.6959666704	-0.332663
H	 0.8842166279	 2.0615062088	 0.1864432481	 0.110436
H	-0.3298132799	 1.7003042507	-1.049513581	 0.11807
H	-0.8364580875	 2.12360389	 0.5903192245	 0.106283
H	 0.7335466717	-0.4230118632	-0.1759902114	 0.139511
H	 0.2465977904	 0.0053379032	 1.4562781756	 0.088431
H	-2.1815348828	-0.1637366242	 0.7710368897	 0.082599
H	-2.7973726766	-1.0082321425	-1.4964730259	 0.107688
H	-1.0191485955	-1.136991541	-1.9321987686	 0.139249
H	-2.3839358007	-2.5478598438	 0.454574973	 0.071786
H	-1.1990860015	-4.2679359521	 1.2042866105	 0.243194
H	 0.3499410409	-6.0785594816	 0.3883519748	 0.122719
H	 1.4699194851	-4.7461279569	 0.0079770128	 0.171763
H	 1.1207280541	-5.159388619	 1.7034020888	 0.122847
45.1617	82.9322	86.5756	127.0064	148.2682	205.73	234.4837	255.1039	319.6289	385.7441	402.8851	462.4472	492.3502	667.8195	763.6825	786.8054	801.6669	839.5673	866.0664	928.0526	952.8261	991.9657	1029.611	1076.8573	1080.7254	1105.6693	1118.0522	1142.2682	1154.263	1172.5177	1201.089	1228.4616	1242.4586	1299.0456	1345.5688	1407.0232	1411.3788	1426.1013	1440.0513	1478.9713	1492.9447	1496.2133	1499.6214	1501.286	1510.6319	1559.34	1754.8378	3020.9764	3023.9168	3028.6623	3074.2692	3086.1852	3104.3991	3107.3325	3123.5192	3134.1401	3143.0576	3154.3835	3227.6898	3653.2726
CCC1CC1C(=O)NC	CC[C@H]1C[C@H]1C(=O)NC	
InChI=1S/C7H13NO/c1-3-5-4-6(5)7(9)8-2/h5-6H,3-4H2,1-2H3,(H,8,9)	InChI=1S/C7H13NO/c1-3-5-4-6(5)7(9)8-2/h5-6H,3-4H2,1-2H3,(H,8,9)/t5-,6+/m0/s1
