21
gdb 39265	2.36233	2.14808	1.51624	1.3746	80.9	-0.2347	0.0833	0.3181	959.0334	0.186692	-387.078605	-387.071732	-387.070788	-387.109316	29.776	
C	-0.0189685131	 1.4702948768	-0.0066560518	-0.42689
C	 1.3367536268	 0.7865682522	-0.0306732123	-0.043923
C	 2.1949086171	 0.4140539064	-1.2162684865	-0.104942
O	 2.3128649762	-1.0185262802	-1.2883253652	-0.290173
C	 1.0968502636	-1.7526283955	-1.0519001409	 0.142256
C	 0.929661985	-2.1699047797	 0.4482369488	-0.212157
C	 0.0122352314	-1.0736569598	 1.0995763939	-0.301305
C	 0.0510568089	-0.0220478378	 0.0062471216	 0.36545
C	-0.1154625832	-0.8424057475	-1.2691957896	-0.295067
H	-0.2647226171	 2.0073850988	 0.9038857086	 0.115477
H	-0.3980238518	 1.9420470092	-0.9088810116	 0.112029
H	 1.8728661012	 0.8236497789	 0.9139993635	 0.087857
H	 1.7917240613	 0.8192323461	-2.1551791554	 0.090349
H	 3.2210317535	 0.779053018	-1.121536407	 0.105206
H	 1.1487817944	-2.6222379557	-1.7124166359	 0.069547
H	 0.4817939418	-3.1656564194	 0.5217177779	 0.09421
H	 1.9139415294	-2.2133924609	 0.9199067206	 0.108945
H	-0.9999888663	-1.4590059578	 1.2714745991	 0.091509
H	 0.3973322524	-0.7134196843	 2.0567877694	 0.096203
H	-0.0809907684	-0.2758152582	-2.2010254605	 0.101602
H	-1.049675613	-1.4146390396	-1.2549438368	 0.093817
173.5329	266.8891	342.5879	362.8215	399.0305	463.0729	474.9005	562.9465	568.2015	717.6016	774.9137	791.8177	837.912	849.0786	871.0264	883.1126	913.6813	931.2222	945.6474	975.8558	1009.6955	1025.4577	1055.5601	1067.1738	1081.9606	1093.9111	1153.9727	1171.7207	1176.2602	1227.0367	1233.6857	1258.7272	1264.7138	1287.5113	1306.0277	1330.1841	1350.0464	1363.69	1388.3627	1433.175	1476.1485	1490.2528	1492.3098	1507.3304	1527.2711	2995.9703	3029.766	3046.4382	3056.0486	3074.6636	3084.4351	3090.3549	3114.7958	3116.27	3120.8304	3137.9426	3202.9222
C1C2COC3CCC12C3	C1[C@@H]2CO[C@H]3CC[C@@]12C3	
InChI=1S/C8H12O/c1-2-8-3-6(8)5-9-7(1)4-8/h6-7H,1-5H2	InChI=1S/C8H12O/c1-2-8-3-6(8)5-9-7(1)4-8/h6-7H,1-5H2/t6-,7+,8+/m1/s1
