19
gdb 79508	3.04959	1.60583	1.25633	2.9923	79.5	-0.2306	-0.0104	0.2202	1040.4779	0.16093	-385.877815	-385.870491	-385.869547	-385.909478	29.322	
C	-0.1445975726	 1.5569500194	 0.055892021	-0.407283
C	 0.0248514593	 0.0384330024	-0.0242117282	-0.127899
C	 0.9380133055	-0.4947128357	-1.1252765845	-0.012072
C	 1.3752610224	-1.9544300028	-0.7733340897	-0.066656
C	 2.735868624	-1.7010978533	-1.4624523441	-0.240243
C	 2.4351811676	-0.4112365478	-0.6652729729	-0.057791
C	 1.9323498118	-1.2909282284	 0.5404074559	-0.127784
C	 0.7939337711	-0.5405773698	 1.1828692227	 0.411807
O	 0.5459736894	-0.3928434246	 2.3520333844	-0.340722
H	 0.8250994069	 2.0662350955	 0.0578000193	 0.117293
H	-0.7217037043	 1.9364857586	-0.7929965366	 0.11498
H	-0.6664118033	 1.8281388885	 0.9779217515	 0.138098
H	-0.9648849412	-0.4358861544	-0.0660698569	 0.094174
H	 0.7045405782	-0.2615147571	-2.1657453572	 0.069709
H	 0.7527442046	-2.8501661899	-0.8150208099	 0.079801
H	 3.5811735107	-2.3048197625	-1.12235397	 0.098048
H	 2.7242165054	-1.6165384178	-2.5535573587	 0.093676
H	 3.0511186113	 0.4855342313	-0.5814464749	 0.081513
H	 2.6418502731	-1.8194001015	 1.1752477088	 0.081349
114.9494	195.3994	199.1558	227.4044	358.5911	450.9315	501.5265	592.0476	655.2876	689.2751	771.6581	805.0227	832.3924	878.2357	893.9896	913.4129	927.5743	939.4046	1007.7284	1031.3839	1045.312	1063.3241	1089.4028	1093.8715	1110.6186	1138.9197	1158.2049	1177.5921	1193.946	1225.9609	1237.1426	1249.8523	1265.6814	1275.2596	1331.1771	1359.5455	1406.6157	1496.6005	1497.7788	1519.6811	1853.8972	3021.0994	3035.5424	3046.5729	3092.7906	3095.889	3102.7164	3104.8828	3110.1514	3116.3977	3138.2146
CC1C2C3CC2C3C1=O	C[C@H]1[C@@H]2[C@H]3C[C@@H]2[C@H]3C1=O	
InChI=1S/C8H10O/c1-3-6-4-2-5(6)7(4)8(3)9/h3-7H,2H2,1H3	InChI=1S/C8H10O/c1-3-6-4-2-5(6)7(4)8(3)9/h3-7H,2H2,1H3/t3-,4-,5+,6-,7+/m0/s1
