23
gdb 119605	3.83242	0.93143	0.85239	1.1889	85.81	-0.2241	0.0862	0.3103	1490.3614	0.206277	-388.292225	-388.283015	-388.282071	-388.326435	35.233	
C	-0.023817225	 1.6021368641	-0.1575949787	-0.383481
C	-0.0463690662	 0.0726683657	-0.1101907373	-0.156587
C	-1.4552872703	-0.4961824576	 0.1100895888	-0.267265
C	-1.4842354068	-1.9988904907	 0.1901432455	 0.47817
C	-1.5136355342	-2.8813944153	-1.0372121682	-0.359272
C	-2.6789969318	-2.8773284647	-0.0570812587	-0.12922
C	-2.6607782278	-3.9222166235	 1.0458504679	-0.237871
C	-1.2225700907	-3.8076064375	 1.6001188224	-0.094689
O	-0.7754982693	-2.4852130001	 1.3121511239	-0.302079
H	 0.9907681825	 1.9813934109	-0.3149762248	 0.110044
H	-0.6516591316	 1.9853034899	-0.9704429299	 0.109057
H	-0.3981573881	 2.0332677875	 0.7777680586	 0.113214
H	 0.3620123635	-0.3341252903	-1.0439611085	 0.093516
H	 0.6064734417	-0.287236728	 0.6923700226	 0.115952
H	-1.87413817	-0.088247358	 1.0395318115	 0.098169
H	-2.1174066805	-0.1756771695	-0.7039334248	 0.091135
H	-1.6763113499	-2.3944672862	-1.9931322527	 0.109469
H	-0.8658619001	-3.7504952843	-1.0883826974	 0.111395
H	-3.630661484	-2.4659203567	-0.3742572764	 0.086215
H	-3.3988828618	-3.6582359731	 1.8108000111	 0.106627
H	-2.8813820843	-4.9381849824	 0.7038339862	 0.103039
H	-1.1578207411	-3.9575906993	 2.681582832	 0.107625
H	-0.5622774645	-4.5439900907	 1.1207333668	 0.096835
76.7766	91.7192	113.4658	219.4622	239.8229	249.8119	309.115	345.233	412.652	442.1387	662.3255	676.3636	715.8273	747.0172	833.9067	853.703	871.6763	894.5212	903.1507	927.4073	942.8626	971.2637	1018.4962	1027.6442	1050.138	1059.418	1094.6304	1110.614	1125.1317	1142.8725	1218.6566	1226.6163	1235.3156	1264.1575	1282.7621	1312.1558	1327.3061	1336.3663	1384.5474	1395.5086	1411.6106	1417.3684	1473.0575	1484.2432	1493.6701	1495.9341	1500.1449	1510.3443	1530.5835	2999.9356	3015.8687	3026.1643	3030.8389	3043.2461	3052.7299	3072.9569	3077.934	3090.5482	3096.78	3100.1012	3127.2197	3169.5611	3211.6996
CCCC12CC1CCO2	CCC[C@]12C[C@H]1CCO2	
InChI=1S/C8H14O/c1-2-4-8-6-7(8)3-5-9-8/h7H,2-6H2,1H3	InChI=1S/C8H14O/c1-2-4-8-6-7(8)3-5-9-8/h7H,2-6H2,1H3/t7-,8+/m1/s1
