17
gdb 30893	2.32352	1.30576	0.87777	2.2913	73.78	-0.1695	0.0499	0.2195	1281.923	0.136078	-455.163792	-455.154266	-455.153321	-455.198238	34.996	
N	-0.0644233493	 1.3495086224	 0.4367854823	-0.610709
C	-0.0460667924	-0.0201733396	 0.1108931741	 0.192743
C	-1.1198717192	-0.8175744582	-0.2315426603	 0.186147
C	-2.5650651189	-0.5356298396	-0.3983926467	-0.182764
O	-3.3996558728	-1.2199434721	 0.5464743651	-0.421757
N	-0.6146542524	-2.1143280326	-0.4070751717	-0.346884
C	 0.7169526411	-2.1168703911	-0.1611244194	 0.391726
O	 1.3787094491	-3.2962444631	-0.256266277	-0.433843
C	 1.1270033185	-0.8402262853	 0.1511676003	-0.371453
H	 0.7652149923	 1.8286350036	 0.1093091427	 0.240025
H	-0.8767658486	 1.8267809055	 0.0671031697	 0.236804
H	-2.7283475207	 0.552682771	-0.3541475458	 0.082522
H	-2.937539936	-0.8702057209	-1.3753256423	 0.106899
H	-3.0149136304	-1.059398804	 1.4154799805	 0.27551
H	-1.1766174275	-2.9408173566	-0.515869757	 0.267158
H	 2.2953728071	-3.1493026439	-0.004907373	 0.30734
H	 2.1333253802	-0.5231020355	 0.3785515085	 0.080536
53.8887	113.6409	177.5061	223.7358	241.3683	255.8247	276.3661	309.9196	376.727	379.5562	459.754	527.88	603.3533	634.4762	663.7246	686.158	707.0775	780.4977	822.0858	960.5593	1004.0979	1045.0042	1064.886	1172.4271	1183.9576	1203.3859	1234.3578	1268.4995	1349.7372	1363.2335	1420.7035	1481.7939	1499.4414	1551.0364	1593.8654	1647.6811	1667.1269	2978.4996	3032.557	3241.0235	3529.8472	3616.857	3681.1868	3797.3056	3848.7475
NC1=C(CO)NC(O)=C1	Nc1c(CO)[nH]c(O)c1	
InChI=1S/C5H8N2O2/c6-3-1-5(9)7-4(3)2-8/h1,7-9H,2,6H2	InChI=1S/C5H8N2O2/c6-3-1-5(9)7-4(3)2-8/h1,7-9H,2,6H2
