15
gdb 62381	2.75097	1.82482	1.36633	3.0613	71.13	-0.2406	-0.0069	0.2337	932.8816	0.110336	-420.527322	-420.519459	-420.518515	-420.559596	30.474	
O	 0.0657615463	 1.3523845616	 0.0107080796	-0.471882
C	 0.0639002236	-0.0497292202	 0.0017227987	 0.336741
C	 1.0244628105	-0.5691396323	-0.9608470225	 0.235417
C	 1.8513980336	-0.902384618	-1.7683409794	-0.475137
C	-0.0385880248	-0.6834257052	 1.4644743818	-0.040858
O	-1.4188683119	-0.2183318556	 1.4771428178	-0.285852
C	-1.4125416921	-0.6335026	 0.0808209813	-0.031609
C	-1.1362746637	-2.1315332558	 0.1844968424	-0.087914
C	-0.1936731228	-2.1649610365	 1.1344581813	-0.087261
H	 0.8248438718	 1.6508631475	-0.4989142863	 0.29167
H	 2.5729510351	-1.2228090363	-2.4792581562	 0.202654
H	 0.5747067904	-0.3357500688	 2.2936429533	 0.090597
H	-2.2241952195	-0.2347209026	-0.5245956289	 0.092594
H	-1.5667562551	-2.9196828517	-0.4145113998	 0.115568
H	 0.3742111185	-2.989252746	 1.538881287	 0.115273
80.1384	154.125	159.1082	277.5639	328.7117	433.6159	451.5684	517.3293	592.1183	597.3739	648.5007	667.2472	669.4325	728.4603	792.6762	854.6047	875.5264	893.4546	920.2167	926.19	984.8283	989.4943	1057.5734	1124.6458	1141.5543	1164.249	1226.6839	1228.3534	1295.5163	1310.7786	1378.1102	1602.3375	2226.601	3146.9638	3150.897	3237.031	3262.6762	3498.1398	3837.3158
OC1(C#C)C2OC1C=C2	O[C@@]1(C#C)[C@H]2O[C@@H]1C=C2	
InChI=1S/C7H6O2/c1-2-7(8)5-3-4-6(7)9-5/h1,3-6,8H	InChI=1S/C7H6O2/c1-2-7(8)5-3-4-6(7)9-5/h1,3-6,8H/t5-,6+,7-
