19
gdb 89474	2.97173	1.5579	1.38542	2.1567	69.77	-0.2471	0.0671	0.3142	1008.3012	0.160061	-460.176088	-460.168144	-460.167199	-460.208111	31.577	
C	-0.0815328998	 1.4741215974	 0.0803140489	-0.473383
C	 0.0230118058	-0.0233993726	-0.0315702048	 0.475157
C	 0.7215692983	-0.6317497291	-1.2706695648	-0.299727
C	 0.1157955924	-2.0702143294	-1.2672393944	 0.117401
O	 1.0458702622	-3.1304713725	-1.1508598571	-0.43452
C	-0.7646695937	-1.995713532	 0.0023103738	 0.014239
C	 0.1444972891	-1.9111104066	 1.239461496	-0.090656
O	 0.6471997145	-0.5682516749	 1.1356456342	-0.307856
O	-1.2577200511	-0.6540637368	-0.0658076838	-0.281229
H	 0.9172848087	 1.9123847625	 0.1478144134	 0.131576
H	-0.589786603	 1.886082814	-0.794802563	 0.125274
H	-0.642178915	 1.7371208761	 0.9799664723	 0.136623
H	 0.4719705966	-0.0796860814	-2.1805684929	 0.099048
H	 1.8063706645	-0.6543541004	-1.1459976216	 0.109072
H	-0.5303442899	-2.218547455	-2.1418299875	 0.075116
H	 1.5780955551	-3.1558629644	-1.9511887073	 0.289876
H	-1.5835896899	-2.7108447659	 0.0555009184	 0.08807
H	-0.4221652498	-2.0206074661	 2.1708753402	 0.100147
H	 0.963065145	-2.6336447528	 1.2115148801	 0.125768
119.3482	190.3606	239.4563	258.8098	283.9079	318.1703	418.3532	426.7684	510.3053	558.645	636.1358	653.847	777.3612	829.2194	839.6543	872.0823	895.1055	913.8973	972.48	990.4502	1034.3627	1043.9072	1061.0207	1086.4967	1156.9814	1178.2571	1190.938	1211.1731	1216.7112	1220.8895	1306.1535	1315.4801	1348.2361	1351.2387	1372.1931	1418.0506	1426.009	1473.6032	1481.2782	1487.7349	1519.5719	3014.9595	3038.8222	3056.264	3063.5808	3110.1236	3120.8527	3134.7911	3139.7744	3141.6013	3833.3691
CC12CC(O)C(CO1)O2	C[C@@]12C[C@@H](O)[C@@H](CO1)O2	
InChI=1S/C6H10O3/c1-6-2-4(7)5(9-6)3-8-6/h4-5,7H,2-3H2,1H3	InChI=1S/C6H10O3/c1-6-2-4(7)5(9-6)3-8-6/h4-5,7H,2-3H2,1H3/t4-,5-,6-/m1/s1
