18
gdb 33547	2.49548	1.48951	1.18728	3.6842	76.56	-0.2385	0.0198	0.2582	1100.875	0.148479	-398.076529	-398.068091	-398.067147	-398.109925	31.292	
N	-0.0511392267	-1.2192083611	 0.1175578587	-0.357076
C	-0.0246967601	-0.0627305395	 0.1246621226	 0.256284
C	-0.053733816	 1.4064297646	 0.0737925884	 0.169534
C	-0.0886557561	 2.0559857826	 1.4941468867	-0.198535
N	 1.3776164413	 2.2366982255	 1.4267047498	-0.301717
C	 1.3734697868	 2.0318539655	-0.0379385881	-0.198533
N	-1.0219385156	 1.956605683	-0.858890441	-0.118843
C	-1.2796743368	 1.2641099344	-2.1227221909	-0.239576
C	-2.3071385586	 1.2810042766	-1.0461171378	-0.239578
H	-0.6813360864	 2.9778613148	 1.4493232519	 0.111952
H	-0.4335642015	 1.4312957849	 2.3229199305	 0.121763
H	 1.7156196878	 3.1406709396	 1.7350379273	 0.227084
H	 2.1752519302	 1.3882392021	-0.4107290537	 0.121763
H	 1.3154419375	 2.9449063871	-0.6429989288	 0.111953
H	-1.372449777	 1.9126951001	-2.9882048233	 0.125248
H	-0.7791418183	 0.3158411773	-2.3038282829	 0.141514
H	-2.4794600967	 0.3437998501	-0.5221902678	 0.141515
H	-3.1657309537	 1.9421999824	-1.1091143214	 0.125246
74.2646	107.3418	150.7247	191.0648	224.4574	304.5722	379.511	455.2598	500.9034	582.7679	612.5034	675.088	789.2398	833.9557	892.0094	915.4521	956.8715	962.0758	1011.1957	1018.3298	1041.4333	1079.5874	1111.621	1129.0403	1133.3045	1147.3492	1169.8285	1180.2627	1192.984	1250.6053	1272.7936	1326.5745	1357.2151	1381.1065	1488.76	1498.8034	1514.6543	1523.4273	2338.8491	3021.7971	3028.1971	3088.927	3089.435	3110.9828	3113.1857	3195.3566	3208.4676	3542.7416
N#CC1(CNC1)N1CC1	N#CC1(CNC1)N1CC1	
InChI=1S/C6H9N3/c7-3-6(4-8-5-6)9-1-2-9/h8H,1-2,4-5H2	InChI=1S/C6H9N3/c7-3-6(4-8-5-6)9-1-2-9/h8H,1-2,4-5H2
