18
gdb 32922	4.97262	0.80295	0.72471	2.1289	75.76	-0.1885	0.0541	0.2426	1565.6974	0.148918	-435.300979	-435.291943	-435.290999	-435.335663	33.106	
C	-0.2078069947	 1.5336028909	-0.2859549984	-0.392218
C	-0.3692795049	 0.0341394357	-0.5088799537	-0.119836
N	-1.1510603167	-0.5714534527	 0.5839184235	-0.411127
C	-1.4101937221	-1.9450074609	 0.4702097477	 0.290595
C	-0.8100769299	-3.0844287309	 0.9265613593	-0.161991
N	-1.5324362911	-4.2128201486	 0.5535710289	-0.361613
C	-2.5396810084	-3.7444245379	-0.1280265866	 0.445211
O	-3.5192542931	-4.4571512289	-0.7146048343	-0.428953
N	-2.5391055827	-2.3916993382	-0.2254649495	-0.332262
H	 0.3509428522	 1.9889440177	-1.1086873301	 0.120066
H	-1.1835798365	 2.022213412	-0.2115701085	 0.126172
H	 0.3423634433	 1.7373924484	 0.6402264944	 0.114657
H	-0.9106480021	-0.1499249559	-1.4436526592	 0.106873
H	 0.6171112006	-0.4448912057	-0.6194819277	 0.094665
H	-0.7136486283	-0.3711057169	 1.4757417138	 0.230678
H	 0.0942623985	-3.1672520234	 1.5099655627	 0.098518
H	-3.3203593079	-5.3831886154	-0.5265828097	 0.311163
H	-3.2545081862	-1.8114384193	-0.6292521027	 0.269401
48.6975	65.3674	104.0441	247.1651	256.2039	310.9978	343.1346	401.4503	424.4255	466.6078	485.0272	647.7359	674.3056	712.23	730.1265	783.3763	813.4274	821.4903	917.6068	1006.6336	1049.8974	1067.6716	1135.2186	1144.3431	1157.1688	1205.6627	1261.0388	1280.1927	1294.035	1372.975	1380.4491	1411.3034	1469.6641	1494.0347	1497.9549	1521.45	1563.6468	1611.198	1637.9016	2971.6504	3033.6327	3056.4728	3101.3345	3120.6787	3248.1736	3544.1693	3674.1745	3801.4347
CCNC1=CN=C(O)N1	CCNc1cnc(O)[nH]1	
InChI=1S/C5H9N3O/c1-2-6-4-3-7-5(9)8-4/h3,6H,2H2,1H3,(H2,7,8,9)	InChI=1S/C5H9N3O/c1-2-6-4-3-7-5(9)8-4/h3,6H,2H2,1H3,(H2,7,8,9)
