22
gdb 111791	3.5	1.20946	1.15099	0.7861	82.37	-0.2165	0.084	0.3005	1201.2854	0.195138	-404.311463	-404.302721	-404.301777	-404.344691	33.694	
C	-0.2157727242	 1.3412685267	 0.1306695566	-0.241438
O	 0.2946258426	 0.0556834474	-0.1507538158	-0.247551
C	 0.797573518	-0.5962748404	 0.9747779533	 0.173535
C	-0.1566750903	-1.3736160162	 1.9428701344	-0.057697
C	-1.0123935038	-2.1976041765	 0.948243285	-0.223209
C	 0.1403377568	-2.7139465744	 0.0322597399	-0.220922
C	 1.3266911022	-2.0328401266	 0.7616903337	-0.063456
N	 1.0531478977	-2.198884969	 2.2200948568	-0.081102
C	 0.923626682	-3.5235253571	 2.7994559575	-0.327787
H	 0.5534323302	 1.9927925212	 0.5726755802	 0.108561
H	-0.5455836574	 1.7748433574	-0.8162798353	 0.127384
H	-1.0716393183	 1.3022617182	 0.8205881962	 0.109616
H	 1.5085817201	 0.0241718269	 1.531095231	 0.077979
H	-0.651691207	-0.9094357226	 2.7978037051	 0.059754
H	-1.5673965964	-2.9989818497	 1.4422574922	 0.093856
H	-1.7257579227	-1.5708335885	 0.4086308641	 0.103519
H	 0.2319327486	-3.8027610377	 0.02254248	 0.093236
H	 0.0474364809	-2.3655503984	-0.9977341034	 0.112851
H	 2.3395679155	-2.2360561358	 0.4103216096	 0.064815
H	 1.9067020089	-4.0063955898	 2.8044672269	 0.119714
H	 0.5984301613	-3.4241921538	 3.8405657231	 0.119204
H	 0.2188307353	-4.1995016213	 2.2898666588	 0.099139
79.8538	162.8654	168.6499	189.0217	250.8552	283.5501	297.4392	339.9615	467.455	540.4609	575.1547	726.6498	754.4881	804.3611	844.8954	852.1393	856.7789	914.816	980.7502	995.9649	1007.3098	1030.5995	1036.415	1118.5793	1141.6116	1144.6298	1163.0415	1183.471	1186.1379	1208.7104	1224.1153	1228.3872	1249.7674	1256.3817	1268.8739	1301.3304	1304.1282	1340.8451	1383.4541	1447.8687	1474.2413	1481.3056	1485.1978	1488.8368	1506.0498	1509.4834	1510.1959	2976.7101	2980.0615	3028.7407	3052.2765	3058.7986	3065.0522	3072.7729	3095.2691	3099.7169	3107.3478	3108.3391	3117.2156	3126.159
COC1C2CCC1N2C	CO[C@H]1[C@H]2CC[C@@H]1N2C	
InChI=1S/C7H13NO/c1-8-5-3-4-6(8)7(5)9-2/h5-7H,3-4H2,1-2H3	InChI=1S/C7H13NO/c1-8-5-3-4-6(8)7(5)9-2/h5-7H,3-4H2,1-2H3/t5-,6+,7+
