20
gdb 106052	2.58834	1.62315	1.28031	2.0356	78.23	-0.2149	0.0829	0.2979	1073.1375	0.170512	-403.056329	-403.047862	-403.046918	-403.089256	32.55	
C	 0.1754709612	 1.2248448836	 0.3191820751	-0.257803
O	-0.0451684953	-0.0845039387	-0.1843417168	-0.287546
C	-1.347761673	-0.5065519731	-0.0957780825	 0.39837
C	-1.9588882794	-0.9947343219	 1.2515135777	-0.157556
C	-3.456493134	-1.0277436349	 1.0347542857	-0.182522
N	-3.2017135226	-1.4634157432	-0.4011802559	-0.186773
C	-1.7996613442	-1.915102919	 0.0667141127	-0.110647
C	-2.5237020332	-0.2450360014	-1.0319772273	 0.002505
C	-3.2866879572	 1.067852022	-1.0865306257	-0.432908
H	 1.2472576477	 1.4184386118	 0.2397112231	 0.129742
H	-0.366829925	 1.9811078823	-0.2638927319	 0.116413
H	-0.1317916053	 1.3055552352	 1.3705572466	 0.112487
H	-1.3681106521	-0.972087794	 2.1595147114	 0.091074
H	-3.9452776802	-1.8515730389	 1.5628784357	 0.109379
H	-4.057012967	-0.1205749661	 1.1513941797	 0.096231
H	-1.3530487554	-2.8841415703	-0.1018199603	 0.105081
H	-2.2511534248	-0.5547478848	-2.0468838151	 0.086
H	-3.4191746169	 1.5251414588	-0.1028247758	 0.11871
H	-2.7508399176	 1.7858549913	-1.716130102	 0.120504
H	-4.2761470057	 0.9103390415	-1.5302816845	 0.129261
87.1455	159.1181	172.1478	187.6358	227.5725	297.0536	378.4657	412.4403	494.2048	576.4957	628.5704	681.6035	773.0765	788.5946	838.7459	851.2397	903.6778	941.6635	954.6443	977.2389	1024.2609	1055.2168	1089.9134	1099.1467	1119.1881	1125.4962	1140.8798	1173.8778	1180.6668	1212.8921	1218.4734	1244.4893	1282.4354	1311.721	1378.0322	1402.3146	1420.4562	1484.0892	1491.5372	1493.2112	1496.8671	1507.2361	1528.5062	3000.4006	3034.7913	3045.2255	3049.7662	3056.3671	3094.4865	3099.491	3118.6125	3125.0118	3185.1414	3224.4988
COC12C3CN(C13)C2C	CO[C@]12[C@H]3CN([C@@H]13)[C@H]2C	
InChI=1S/C7H11NO/c1-4-7(9-2)5-3-8(4)6(5)7/h4-6H,3H2,1-2H3	InChI=1S/C7H11NO/c1-4-7(9-2)5-3-8(4)6(5)7/h4-6H,3H2,1-2H3/t4-,5-,6+,7+/m0/s1
