21
gdb 39867	3.21062	1.58627	1.44655	0.2491	85.74	-0.2498	0.0867	0.3364	1011.7224	0.184911	-349.900196	-349.893153	-349.892209	-349.931247	29.995	
C	-0.0621322663	 1.5082415054	 0.0110408578	-0.33226
C	 1.2582975598	 0.7640704008	-0.0063725436	-0.348653
C	-0.0376276817	 0.0093385758	 0.0022753307	 0.430631
C	-0.4616169858	-0.9676179595	 1.1029721409	-0.132846
C	-1.9983632244	-1.0049362587	 1.3133372106	-0.229955
C	-2.1656444382	-1.8329664642	 0.0130166041	-0.031428
C	-2.0242441044	-0.9901684733	-1.2808720865	-0.229955
C	-0.4836032223	-0.9550720987	-1.1007953919	-0.132841
C	-0.6116623142	-2.0782567452	-0.0038825454	-0.027931
H	-0.3504907725	 2.0131014349	 0.9280396475	 0.108192
H	-0.3686953156	 2.02346419	-0.8942133128	 0.108192
H	 1.8390597385	 0.7773252446	-0.9237673288	 0.108494
H	 1.8572622103	 0.7669689733	 0.8993351964	 0.108494
H	 0.1788101478	-1.0450739988	 1.9836007936	 0.058139
H	-2.2529742082	-1.6092878621	 2.189747459	 0.094033
H	-2.5249860408	-0.0469805428	 1.3827729064	 0.088947
H	-2.9159883718	-2.6242989508	 0.0159977896	 0.060495
H	-2.296356572	-1.5845334888	-2.1588513779	 0.094033
H	-2.5520395921	-0.0315447425	-1.3288790919	 0.088947
H	 0.13911982	-1.0224241631	-1.9948495444	 0.058139
H	-0.1073450659	-3.0413709564	-0.0143967237	 0.059133
135.3489	206.9079	260.0602	352.6599	373.3064	429.8342	572.5912	631.6285	704.8362	769.8904	802.1957	835.4461	837.8001	840.6451	872.4175	904.4029	929.973	946.2789	957.7998	971.8704	993.0839	1008.4926	1011.7514	1046.3615	1074.0215	1084.1	1106.216	1107.3675	1123.4001	1159.6788	1179.8225	1186.5652	1206.705	1240.344	1244.1478	1257.4999	1264.7398	1295.4463	1300.9073	1320.8422	1398.9407	1464.117	1475.9317	1487.7108	1503.0355	3034.5859	3036.1494	3081.0438	3081.2663	3087.2323	3088.2226	3098.0929	3116.4547	3121.1906	3142.4825	3193.8029	3208.7772
C1CC11C2CC3CC1C23	C1CC21[C@H]1C[C@H]3C[C@@H]2[C@@H]13	
InChI=1S/C9H12/c1-2-9(1)6-3-5-4-7(9)8(5)6/h5-8H,1-4H2	InChI=1S/C9H12/c1-2-9(1)6-3-5-4-7(9)8(5)6/h5-8H,1-4H2/t5-,6-,7+,8+
