17
gdb 7452	3.08334	1.65074	1.12353	4.8734	60.45	-0.254	0.0024	0.2565	1030.5465	0.141972	-438.173946	-438.165424	-438.16448	-438.207001	31.523	
C	 0.0767425637	 1.6670212921	-0.0564473029	-0.393978
C	 0.0594133473	 0.1420167397	-0.0607290278	 0.135896
O	 0.8031487808	-0.2803808213	-1.1788948646	-0.436896
C	 0.6508763781	-0.4564418352	 1.2416009738	-0.163755
N	 0.0161936238	-0.024640489	 2.4973197386	-0.544462
H	 0.2605145375	-1.8156319352	 2.9958001682	 0.310593
H	 0.3972188545	 0.8566863959	 2.8202054342	 0.255067
H	-0.9827296325	 0.1110935177	 2.3649603881	 0.249511
C	 0.6372560278	-2.0003633452	 1.2007850195	 0.450717
O	 0.8192886479	-2.6449224735	 0.1929067064	-0.357381
O	 0.4216009687	-2.5705871699	 2.3832199286	-0.356218
H	 1.1013100231	 2.0354167045	 0.0623856768	 0.121472
H	-0.3028838143	 2.0323776492	-1.0137896299	 0.137734
H	-0.5458169704	 2.0826224237	 0.740900597	 0.097865
H	-0.9909803596	-0.2016073647	-0.1315077687	 0.06277
H	 0.8898254913	-1.2449466273	-1.0983827701	 0.30072
H	 1.7092772423	-0.1687223717	 1.2785164928	 0.130343
77.6431	95.5769	208.1053	236.3398	300.1486	328.7023	343.3507	356.9695	407.6435	483.037	573.8058	594.2601	645.3479	738.0572	848.3874	851.4646	897.5989	929.051	981.35	1062.0623	1088.9832	1122.8179	1165.7963	1191.2357	1236.7018	1268.8702	1327.02	1371.5442	1383.8932	1403.2953	1433.1931	1470.3229	1487.8793	1500.142	1655.8717	1831.9807	2910.9472	3040.8712	3044.3794	3112.9663	3126.9163	3434.2362	3500.0239	3593.4042	3656.2491
CC(O)C([NH3+])C([O-])=O	C[C@@H](O)[C@@H](N)C(=O)O	
InChI=1S/C4H9NO3/c1-2(6)3(5)4(7)8/h2-3,6H,5H2,1H3,(H,7,8)	InChI=1S/C4H9NO3/c1-2(6)3(5)4(7)8/h2-3,6H,5H2,1H3,(H,7,8)/t2-,3-/m1/s1
