15
gdb 51209	3.78796	1.14522	1.03673	2.3574	65.3	-0.2513	-0.0336	0.2177	1133.3697	0.109405	-457.646993	-457.63935	-457.638406	-457.680565	27.921	
O	-0.0782736199	-0.0587819904	 0.0176072182	-0.23185
C	-0.0346520022	 1.1380333931	-0.092946061	 0.154683
C	 1.2552695797	 1.9444778245	-0.1008341192	-0.437911
C	 1.3049213585	 2.9252615042	-1.2329343676	 0.415922
O	 0.2867043645	 3.9684594374	-1.3258124773	-0.348217
C	 1.1182214497	 4.2367980332	-2.4893635708	 0.038594
C	 2.4539095461	 3.8389968681	-1.7876139982	-0.009142
O	 2.8554971218	 2.902336893	-2.8225608274	-0.320186
C	 1.4113646321	 2.7363634748	-2.790725235	 0.002323
H	-0.9574762783	 1.7484006893	-0.1926873248	 0.104535
H	 1.3086052759	 2.5028607896	 0.8444370772	 0.142584
H	 2.1088349155	 1.2629264644	-0.1522860063	 0.147189
H	 0.8659561269	 5.0697043516	-3.1432030059	 0.113753
H	 3.2119683102	 4.4338606245	-1.2790815692	 0.111159
H	 0.9391620395	 2.0269907127	-3.4694399327	 0.116563
42.1545	63.2125	150.9758	245.3396	326.9257	452.1216	529.7414	564.5269	669.8727	757.7165	769.5101	779.7541	823.2079	826.3216	861.0426	897.7674	935.0633	974.4971	1016.2724	1075.5891	1089.6744	1108.1762	1134.3108	1163.6875	1169.084	1208.2036	1260.4029	1276.4811	1303.1145	1392.6039	1425.4664	1438.2737	1836.3227	2911.4504	3022.5946	3109.0758	3129.8857	3131.8222	3150.9623
O=CCC12OC3C1OC23	O=CC[C@@]12O[C@H]3[C@@H]1O[C@@H]23	
InChI=1S/C6H6O3/c7-2-1-6-4-3(9-6)5(6)8-4/h2-5H,1H2	InChI=1S/C6H6O3/c7-2-1-6-4-3(9-6)5(6)8-4/h2-5H,1H2/t3-,4-,5+,6+
