20
gdb 6930	4.94652	0.94715	0.88497	0.9158	72.21	-0.2572	0.079	0.3362	1363.3369	0.174134	-386.127365	-386.117578	-386.116633	-386.162134	34.905	
C	 0.0830613054	 1.5217780675	-0.1435183796	-0.455283
C	-0.0498179192	 0.0355381545	 0.1096582667	 0.39593
C	-1.1450667342	-0.6447738185	-0.6863685046	-0.451037
O	 1.187474179	-0.6986967158	 0.1568975956	-0.30195
C	 0.4105841012	-0.597210011	 1.3617234302	 0.007109
C	 1.0380708528	 0.1078213108	 2.5385498342	-0.222398
C	 2.1641650014	-0.7193435597	 3.1529050176	-0.06292
O	 2.6598992022	-0.0051141109	 4.2748915547	-0.422685
H	 0.9350617342	 1.9510323389	 0.3847100551	 0.131014
H	 0.224946442	 1.7056953346	-1.2142113584	 0.123674
H	-0.8249295213	 2.050451112	 0.1665479426	 0.12003
H	-0.9748938647	-0.5115866366	-1.7604342028	 0.123449
H	-1.1717996969	-1.7166441079	-0.4758059471	 0.124797
H	-2.1247900977	-0.2165679177	-0.4477605287	 0.118576
H	-0.0827055256	-1.5366561337	 1.6288088961	 0.077937
H	 1.4411898754	 1.0818861088	 2.2515035123	 0.111323
H	 0.2725525066	 0.2838116537	 3.3046415987	 0.108333
H	 1.78124126	-1.7105848759	 3.4476538493	 0.08234
H	 2.9464509252	-0.8807659915	 2.3965174216	 0.105827
H	 3.4066025343	-0.4924198215	 4.6346224066	 0.285932
61.8458	92.4621	115.524	159.7118	202.7755	247.6688	262.5292	296.4854	336.8948	374.7864	428.1803	500.6598	546.9369	703.2042	789.5574	824.9551	904.343	944.3099	981.5975	1005.4248	1019.8308	1073.8179	1097.6546	1134.6651	1143.0274	1155.2433	1226.6815	1245.4333	1266.176	1311.689	1330.7628	1360.2296	1409.2283	1419.3938	1459.2431	1468.0292	1473.193	1479.8577	1487.6768	1502.2868	1522.4966	1529.4277	2963.0456	3008.5935	3032.305	3038.4056	3041.5832	3058.2892	3093.1084	3098.3053	3109.166	3122.6762	3143.1745	3831.3517
CC1(C)OC1CCO	CC1(C)O[C@H]1CCO	
InChI=1S/C6H12O2/c1-6(2)5(8-6)3-4-7/h5,7H,3-4H2,1-2H3	InChI=1S/C6H12O2/c1-6(2)5(8-6)3-4-7/h5,7H,3-4H2,1-2H3/t5-/m0/s1
