25
gdb 85865	2.05011	1.51254	1.21187	0.1475	92.47	-0.259	0.0823	0.3413	1237.1326	0.227335	-352.347236	-352.33715	-352.336205	-352.381428	39.687	
C	-0.5350866296	 0.8149112131	-1.4742413586	-0.412725
C	 0.3470539429	-0.28072662	-0.8933024126	-0.036556
C	 1.8725181972	-0.2309475638	-1.1986066403	-0.278526
C	 2.190286675	-0.5602012019	 0.2972360874	 0.258463
C	 2.5336914717	-2.0392481147	 0.5014202834	-0.430955
C	 3.2303307935	 0.3350044178	 0.9641655936	-0.450388
C	 0.7003533725	-0.2550816724	 0.6055057438	 0.350028
C	 0.1834926696	 0.737372955	 1.6084910195	-0.33113
C	-0.1311122527	-0.7337628658	 1.7569941311	-0.33184
H	-0.143459016	 1.8089451973	-1.2323900889	 0.112687
H	-0.5892878777	 0.7329490029	-2.5655437981	 0.11208
H	-1.560138443	 0.7563343872	-1.0897355497	 0.110938
H	-0.0663272574	-1.2591790554	-1.1668775885	 0.067684
H	 2.2539358411	-0.9341540796	-1.9442648591	 0.088889
H	 2.1981143427	 0.7777628354	-1.4725837031	 0.090471
H	 3.5177494042	-2.2716673931	 0.077800124	 0.10696
H	 2.5596318604	-2.2978606872	 1.5660434944	 0.107985
H	 1.798236019	-2.6921038615	 0.0203924617	 0.111431
H	 2.9952877274	 1.3943661025	 0.8222684436	 0.110638
H	 3.2921712171	 0.1458916343	 2.0428566849	 0.10765
H	 4.226155025	 0.1516589099	 0.5435349188	 0.1092
H	 0.8851756373	 1.1800190345	 2.3084402279	 0.108034
H	-0.6177774442	 1.4049872916	 1.3073516483	 0.107844
H	-1.1454038572	-1.0650127152	 1.5535041749	 0.10494
H	 0.3593314811	-1.280535061	 2.5568714418	 0.106199
56.7454	197.3652	203.0654	218.7081	226.8106	240.433	251.3504	278.713	329.9003	344.3036	405.2715	452.1299	518.0599	551.6475	624.1719	745.5377	792.3919	855.2095	871.3997	894.4676	918.5123	927.9751	948.0999	964.2269	978.3485	998.2224	1037.7645	1047.834	1076.3654	1078.5923	1117.0771	1171.3233	1188.3494	1193.7937	1219.5378	1232.0431	1261.0486	1283.326	1307.7834	1355.1678	1378.7894	1399.8169	1407.3343	1418.9112	1463.0307	1479.8076	1483.2524	1488.3603	1492.7496	1497.8041	1500.1151	1505.3528	1506.8294	3017.3603	3021.2408	3022.8581	3024.545	3043.676	3078.2796	3085.7727	3087.306	3093.2996	3095.2189	3098.2056	3100.6555	3114.8967	3122.0218	3190.9097	3207.1436
CC1CC(C)(C)C11CC1	C[C@H]1CC(C)(C)C21CC2	
InChI=1S/C9H16/c1-7-6-8(2,3)9(7)4-5-9/h7H,4-6H2,1-3H3	InChI=1S/C9H16/c1-7-6-8(2,3)9(7)4-5-9/h7H,4-6H2,1-3H3/t7-/m0/s1
