19
gdb 121517	5.55221	0.45821	0.42775	4.8459	84.6	-0.2523	-0.0439	0.2083	2477.2395	0.155529	-423.014759	-423.003603	-423.002659	-423.054302	37.055	
C	-0.0612478322	 1.5141738449	 0.014419743	-0.476569
C	 0.0752553172	 0.0042208243	-0.0027269181	 0.247254
O	 1.1498455653	-0.5580488798	-0.0221052158	-0.276765
C	-1.1737344576	-0.7333498594	 0.0056126801	 0.09792
C	-2.217050223	-1.3415226905	 0.0126298327	 0.007969
C	-3.4552896567	-2.106613031	 0.0205568661	-0.367647
C	-3.2323923367	-3.6307113638	 0.0143448347	-0.158581
C	-4.5476950919	-4.3992844383	 0.0225614	-0.073905
O	-4.2369946098	-5.7814304517	 0.0162917528	-0.41917
H	 0.9293117499	 1.9713288368	 0.0063564083	 0.141447
H	-0.637038733	 1.8495403454	-0.854976523	 0.144168
H	-0.6143971264	 1.8315673945	 0.9050075634	 0.144178
H	-4.0447320602	-1.8179510227	 0.9017729183	 0.138457
H	-4.0586411404	-1.8129612833	-0.8495406256	 0.138553
H	-2.6549995502	-3.9172899835	-0.8700899316	 0.126448
H	-2.6410750601	-3.9224305299	 0.8878360775	 0.126378
H	-5.1344781171	-4.1233086261	 0.9150000711	 0.085879
H	-5.1484208037	-4.1183851343	-0.8589967675	 0.085895
H	-5.0605734834	-6.2776456217	 0.0213370536	 0.288093
9.8455	53.4819	65.3502	113.9804	120.7129	141.321	159.5259	245.1838	256.6528	358.2685	385.3767	441.8563	496.8679	602.8287	610.8218	685.083	751.6426	861.0672	958.5109	1014.8092	1019.6802	1042.5082	1061.5165	1090.4834	1112.9102	1212.0338	1230.9331	1247.9873	1297.7301	1303.8024	1312.4845	1374.5347	1381.1144	1460.907	1462.7827	1467.0749	1469.1653	1498.2957	1528.1137	1767.3201	2331.6391	2951.8748	2976.6363	3010.0314	3037.8072	3038.3704	3058.8059	3102.5322	3105.2466	3150.389	3831.5692
CC(=O)C#CCCCO	CC(=O)C#CCCCO	
InChI=1S/C7H10O2/c1-7(9)5-3-2-4-6-8/h8H,2,4,6H2,1H3	InChI=1S/C7H10O2/c1-7(9)5-3-2-4-6-8/h8H,2,4,6H2,1H3
