16
gdb 42509	3.58465	1.13749	0.97631	2.0011	78.42	-0.2432	-0.0388	0.2044	1206.559	0.122841	-400.69134	-400.682902	-400.681957	-400.724798	31.33	
O	 0.1084402612	 0.0574594957	 0.2061583105	-0.304101
C	 0.0156251573	 1.2467807851	 0.1362262612	 0.34374
C	-1.177963305	 2.2567962036	 0.0049829823	-0.304805
C	-0.1073192614	 3.3608156182	-0.3411287575	-0.338945
C	 1.0069513529	 2.3726403992	 0.0264179119	 0.244834
C	 2.2091069956	 2.5113064992	 0.8995325237	-0.287102
N	 2.3497580433	 2.2859334318	-0.5364457282	-0.352412
C	-2.2114737143	 1.9585807227	-0.9577526625	 0.320024
C	-3.0501464185	 1.6989019065	-1.7790135099	-0.436126
H	-1.6074334502	 2.4210752981	 1.000796988	 0.134318
H	-0.1078546865	 3.6175407711	-1.4013999125	 0.137224
H	-0.1691614696	 4.2695530194	 0.2583813856	 0.120103
H	 2.4903814272	 3.5046690967	 1.2385881104	 0.134138
H	 2.4247573203	 1.6998065167	 1.590074347	 0.135558
H	 2.5676825714	 1.3080229134	-0.724546438	 0.252489
H	-3.7957697936	 1.4671416926	-2.4985912021	 0.201061
52.2715	122.832	186.7989	196.9509	233.6846	320.5306	385.0483	438.7117	534.41	552.1181	619.3125	637.8763	703.8448	751.1111	799.8962	820.2903	916.7133	925.7811	966.3144	1007.7299	1013.6491	1073.5208	1084.7565	1104.8931	1132.7111	1186.4943	1223.7655	1261.0475	1284.3844	1309.5427	1401.7039	1483.5839	1503.2282	1886.8573	2237.3832	3039.1483	3087.4564	3106.675	3146.8585	3199.3689	3477.4008	3504.2832
O=C1C(CC11CN1)C#C	O=C1[C@@H](C[C@]21CN2)C#C	
InChI=1S/C7H7NO/c1-2-5-3-7(4-8-7)6(5)9/h1,5,8H,3-4H2	InChI=1S/C7H7NO/c1-2-5-3-7(4-8-7)6(5)9/h1,5,8H,3-4H2/t5-,7-/m1/s1
