18
gdb 85020	2.33295	1.69978	1.06288	1.0731	74.88	-0.2425	0.0085	0.251	1133.2918	0.148685	-435.341336	-435.332256	-435.331312	-435.375224	33.	
C	-0.0191231875	 1.5527992273	 0.0111678651	-0.392922
C	-0.0080308928	 0.0222501687	 0.0179415792	-0.036383
N	 0.7471807206	-0.5744883042	-1.0747450253	-0.371184
C	 1.859304052	-1.2542517941	-0.6536835593	 0.466146
O	 2.7286028611	-1.7634015598	-1.3226191753	-0.408401
N	 1.7972915927	-1.2648746112	 0.7537960755	-0.151023
C	 2.7749015468	-1.9515376373	 1.5646579975	-0.364246
C	 0.718797115	-0.5456301513	 1.2366088895	 0.374783
N	 0.3391717485	-0.3331791543	 2.4302699771	-0.554793
H	 1.0011532834	 1.9479169262	 0.0032726906	 0.125706
H	-0.5477155072	 1.9334108138	-0.8685578747	 0.116674
H	-0.5268186172	 1.9126328537	 0.9090095654	 0.154021
H	-1.0401788653	-0.3479806746	 0.0240846255	 0.119173
H	 0.6916156816	-0.2606625365	-2.0285147579	 0.260353
H	 3.4988197232	-2.4023192469	 0.8845143953	 0.173224
H	 3.2911414438	-1.253353204	 2.2329978718	 0.136049
H	 2.3055325842	-2.7360506828	 2.1688396969	 0.136493
H	 0.9503502169	-0.7838213925	 3.1116738831	 0.216328
72.5917	123.0945	157.6625	163.5549	237.4191	259.861	286.8147	365.4824	380.871	424.4871	575.4772	611.7512	660.4952	724.1405	744.3465	762.2884	853.1966	896.4389	956.3835	1025.983	1078.939	1104.0134	1152.6797	1160.0395	1208.8705	1242.9866	1284.6999	1322.2295	1370.3895	1401.33	1418.5048	1427.307	1473.1274	1492.5133	1492.8346	1495.3421	1517.9428	1745.5004	1855.5451	3027.1872	3034.4348	3041.2894	3082.3816	3113.4554	3136.2488	3151.1754	3477.8933	3674.0266
CC1NC(=O)N(C)C1=N	C[C@H]1NC(=O)N(C)[C]1[NH]	
InChI=1S/C5H9N3O/c1-3-4(6)8(2)5(9)7-3/h3,6H,1-2H3,(H,7,9)	InChI=1S/C5H9N3O/c1-3-4(6)8(2)5(9)7-3/h3,6H,1-2H3,(H,7,9)/t3-/m1/s1
