17
gdb 6517	2.95116	1.83588	1.40859	5.424	69.69	-0.2743	0.0377	0.312	936.8576	0.139679	-363.868539	-363.859596	-363.858651	-363.901298	32.925	
C	-0.0707005076	 1.5536961056	-0.0494493611	-0.448425
C	 0.0095001863	 0.0441758296	-0.0011915681	 0.371383
O	-1.1627042174	-0.591023715	-0.4261968277	-0.444445
C	 1.302884888	-0.683081509	-0.2474280919	-0.378428
C	 0.6905966971	-0.6757016456	 1.1587624719	 0.104387
C	 1.3838549689	 0.0814925389	 2.2830092343	-0.459716
C	 0.0793813192	-1.9089136819	 1.59457621	 0.271197
N	-0.3751815049	-2.8926984646	 1.9985173822	-0.354043
H	 0.8487068865	 2.0349433822	 0.289734088	 0.12296
H	-0.2486627626	 1.877768197	-1.0816179828	 0.119255
H	-0.9035315699	 1.9105365163	 0.5634224805	 0.139394
H	-1.2204689486	-0.5067567588	-1.3845353474	 0.288722
H	 1.2537344885	-1.613027064	-0.8013773097	 0.137734
H	 2.2150885208	-0.1100064635	-0.3776495604	 0.121895
H	 1.8966771466	 0.9681696699	 1.9051603823	 0.123186
H	 0.6666016455	 0.3972191885	 3.0462525517	 0.141882
H	 2.129616674	-0.5580950158	 2.7636638784	 0.14306
128.6857	154.5213	172.4018	190.384	234.7081	265.1995	282.7943	381.4396	395.9041	396.9246	464.2451	577.3054	600.2285	655.5329	720.8967	865.0892	914.8897	935.2556	964.3885	1009.4346	1058.7398	1075.7307	1110.492	1173.4727	1223.4349	1286.4974	1316.012	1384.9543	1413.2533	1422.8086	1474.734	1479.4824	1490.5373	1496.1863	1510.0112	2353.6341	3036.2035	3048.0209	3100.5843	3115.1043	3127.1899	3134.5942	3138.8978	3233.0266	3798.2822
CC1(O)CC1(C)C#N	C[C@@]1(O)C[C@]1(C)C#N	
InChI=1S/C6H9NO/c1-5(4-7)3-6(5,2)8/h8H,3H2,1-2H3	InChI=1S/C6H9NO/c1-5(4-7)3-6(5,2)8/h8H,3H2,1-2H3/t5-,6-/m1/s1
