16
gdb 46592	2.7029	1.86565	1.45724	3.0777	68.39	-0.2264	-0.0277	0.1988	918.6118	0.125162	-437.827382	-437.820329	-437.819385	-437.858814	27.835	
O	-0.0177355983	-0.0065303542	 0.041441823	-0.303942
C	 0.0046889056	 1.19376905	-0.0079770048	 0.336464
C	-1.2633476988	 2.092278954	-0.1705034339	-0.205663
O	-0.8433164822	 3.3672906896	-0.6761194882	-0.296478
C	 0.5437464433	 3.4366946007	-0.550020976	 0.34488
C	 1.1567971578	 3.3866511198	 0.8023061966	-0.379047
C	 1.1602613973	 2.1346756095	-0.0815939786	 0.086818
N	 2.1528976056	 2.1612117209	-1.1639052852	-0.357236
C	 1.5729601708	 3.4467981422	-1.6875988576	-0.234024
H	-1.9503555806	 1.6264491451	-0.8827857752	 0.148429
H	-1.7870185924	 2.2020476634	 0.7891864247	 0.130369
H	 2.1212041769	 3.8449052041	 1.0001898972	 0.125537
H	 0.4660045096	 3.3955586547	 1.6375881093	 0.13645
H	 3.1134210812	 2.2283886344	-0.8405253786	 0.227035
H	 1.1205474694	 3.3022107862	-2.6724612867	 0.129977
H	 2.2519989746	 4.3057284296	-1.719154556	 0.11043
108.3322	153.9398	272.1052	346.9144	373.2459	458.0872	531.2443	573.7309	631.6172	654.0999	698.3511	741.9106	830.8877	867.254	906.8066	923.9904	951.3866	975.5806	1002.8068	1032.3823	1051.0179	1054.0308	1108.6441	1150.266	1194.9292	1258.7591	1286.702	1314.6716	1334.8044	1363.9001	1374.6263	1471.4702	1487.3278	1502.2036	1845.5276	3017.4434	3038.3716	3092.425	3097.5214	3127.6994	3225.3551	3507.4109
O=C1COC23CC12NC3	O=C1CO[C@@]23C[C@@]12NC3	
InChI=1S/C6H7NO2/c8-4-1-9-5-2-6(4,5)7-3-5/h7H,1-3H2	InChI=1S/C6H7NO2/c8-4-1-9-5-2-6(4,5)7-3-5/h7H,1-3H2/t5-,6-/m1/s1
