15
gdb 21550	4.04244	2.06699	1.39486	3.025	69.16	-0.1901	0.0367	0.2268	855.9498	0.121884	-358.81693	-358.809963	-358.809019	-358.848557	25.557	
N	-0.0125185254	 1.4971337981	-0.0873901898	-0.60891
C	-0.011569331	 0.0895460027	-0.0510674965	-0.025155
C	-1.0615083788	-0.80897137	-0.1589583353	 0.352858
C	-2.4685281671	-1.3722024173	-0.3261449934	-0.38659
C	-1.7602352464	-2.7900369001	-0.3209162554	-0.164584
N	-0.511881585	-2.0386362925	-0.1444255185	 0.088498
N	 0.8121598881	-2.0890857541	-0.0542014377	-0.311654
C	 1.1199200513	-0.7766453942	 0.0137599442	-0.044441
H	 0.8472132826	 1.8805652273	 0.2850365653	 0.242221
H	-0.7875619928	 1.8968897087	 0.427015794	 0.240877
H	-3.1584967448	-1.2115270922	 0.5062905031	 0.123992
H	-2.9742417222	-1.1278519142	-1.2635067056	 0.129781
H	-2.0107158349	-3.4460775477	 0.5169980868	 0.131132
H	-1.8164370939	-3.3445542882	-1.2613329062	 0.134108
H	 2.1554130103	-0.4793675663	 0.106902875	 0.097868
61.5324	133.2615	218.0861	277.3573	345.1328	516.8872	641.5242	646.8296	655.0624	720.1066	778.9785	814.6167	827.7078	854.7763	897.8807	1056.8433	1062.3057	1074.9518	1133.5068	1172.7529	1204.6246	1215.1293	1231.9797	1284.6502	1336.9173	1388.3968	1418.2973	1481.7092	1494.7359	1531.2675	1641.6604	1657.9435	3058.2984	3064.9235	3105.4414	3119.708	3231.6573	3528.7838	3614.8735
NC1=C2CCN2N=C1	Nc1c2CCn2nc1	
InChI=1S/C5H7N3/c6-4-3-7-8-2-1-5(4)8/h3H,1-2,6H2	InChI=1S/C5H7N3/c6-4-3-7-8-2-1-5(4)8/h3H,1-2,6H2
