19
gdb 17610	3.99282	1.27427	1.15555	2.3964	72.93	-0.2527	-0.0232	0.2295	1123.1161	0.164569	-365.063747	-365.054743	-365.053799	-365.097781	32.175	
C	 0.057585317	 1.5622330153	-0.2683851119	-0.393243
C	-0.0833210384	 0.055083579	 0.0411427327	-0.072441
C	-1.550830387	-0.3708009359	 0.1206944401	-0.389158
C	 0.6717568586	-0.7297673068	-1.0254513997	 0.390984
O	 0.1192041978	-1.2317102681	-1.9847624303	-0.349161
C	 2.1569755252	-0.8471708291	-0.8630710922	-0.10031
C	 2.727016063	-2.2252472049	-1.0284801083	-0.220538
N	 2.9432092275	-1.2115846426	-2.050110517	-0.305266
H	 1.104445161	 1.8761320033	-0.3228976639	 0.125307
H	-0.417865819	 1.8013598756	-1.2249646935	 0.134894
H	-0.4308644307	 2.153007539	 0.5121236288	 0.123896
H	 0.4131793563	-0.1367636381	 1.0022047898	 0.086893
H	-2.041602586	-0.2332739003	-0.8459603205	 0.137438
H	-1.6442624807	-1.426706038	 0.3902817993	 0.119026
H	-2.0814296333	 0.2232353101	 0.8708843234	 0.109075
H	 2.638125921	-0.1620096614	-0.1715991289	 0.097754
H	 3.6020647834	-2.5012040121	-0.4471175195	 0.125608
H	 2.0199649951	-3.0252468006	-1.2296748076	 0.131531
H	 2.2696987094	-1.3675549243	-2.8020511409	 0.247713
50.9274	78.8095	182.3393	194.9195	219.6323	253.4723	277.3324	318.0875	348.4358	435.179	638.3822	753.9366	782.913	851.2735	863.3283	903.6096	932.9528	971.0941	973.1783	1008.9353	1054.2041	1104.9751	1120.2075	1129.4882	1146.0064	1182.5543	1203.0816	1288.7906	1315.074	1323.5845	1363.8461	1395.8236	1406.8979	1419.0531	1485.0006	1486.7718	1495.9313	1500.5024	1510.3227	1778.4846	3015.1885	3036.3712	3045.0374	3109.0267	3111.7255	3111.8616	3113.3493	3127.9239	3155.9292	3205.7223	3455.9099
CC(C)C(=O)C1CN1	CC(C)C(=O)[C@H]1CN1	
InChI=1S/C6H11NO/c1-4(2)6(8)5-3-7-5/h4-5,7H,3H2,1-2H3	InChI=1S/C6H11NO/c1-4(2)6(8)5-3-7-5/h4-5,7H,3H2,1-2H3/t5-/m1/s1
