18
gdb 117599	2.09484	1.15004	0.96376	4.2376	77.54	-0.2713	-0.0135	0.2578	1335.3591	0.145928	-398.139581	-398.129335	-398.128391	-398.175018	36.035	
C	-0.0588317983	 1.5817176741	-0.0931730173	-0.39805
C	 0.0102511266	 0.0651962258	 0.0567032671	-0.134076
N	 0.7121926368	-0.51243888	-1.0979820234	-0.299376
C	 0.7243425984	-1.9734905231	-1.1887929386	-0.041102
C	 1.5282385234	-2.6044679743	-0.0265573822	-0.398753
C	-0.6504192359	-2.557296123	-1.2003330427	 0.288395
N	-1.7402800156	-2.9403047016	-1.1677291747	-0.330804
C	 1.3797198898	-2.3288039208	-2.4662512437	 0.301027
N	 1.9048050645	-2.5999511595	-3.4576920567	-0.317604
H	 0.9427524953	 2.0090836247	-0.1927384902	 0.136291
H	-0.6415937069	 1.8652044622	-0.9767969147	 0.125049
H	-0.5434896763	 2.0268890823	 0.7796905126	 0.130011
H	 0.5705924016	-0.1859989349	 0.9630368502	 0.118196
H	-1.0044700552	-0.3474086386	 0.1761123837	 0.116699
H	 0.3198797062	-0.1335737841	-1.9548998213	 0.241687
H	 1.0158726428	-2.434655001	 0.9214058396	 0.149191
H	 1.6283146875	-3.680418939	-0.1787805384	 0.157212
H	 2.5168551154	-2.1428555392	 0.0026018907	 0.156004
70.7487	95.4999	122.886	134.2472	187.8172	216.3975	251.0762	256.4757	306.6934	348.0121	419.4082	485.2332	524.8402	577.0253	616.4727	702.3047	763.8584	826.7884	911.6681	921.0746	969.7062	1056.273	1105.1203	1139.9489	1165.79	1197.4595	1224.8854	1308.2769	1388.7092	1405.4549	1415.9689	1482.4825	1487.647	1491.7675	1499.3304	1513.5032	1526.8822	2346.4808	2371.8386	2980.1549	3039.2099	3063.9365	3070.2067	3109.6665	3127.3171	3153.7825	3157.8853	3516.7822
CCNC(C)(C#N)C#N	CCNC(C)(C#N)C#N	
InChI=1S/C6H9N3/c1-3-9-6(2,4-7)5-8/h9H,3H2,1-2H3	InChI=1S/C6H9N3/c1-3-9-6(2,4-7)5-8/h9H,3H2,1-2H3
