18
gdb 109137	4.14391	0.97805	0.8295	4.4239	76.35	-0.2446	0.0119	0.2565	1362.2262	0.147714	-439.094211	-439.085301	-439.084357	-439.128641	32.203	
O	 0.0981029465	 1.4339453886	-0.1013976541	-0.41011
C	 0.0330564779	 0.0237641305	-0.061523803	-0.163737
C	-1.3959537106	-0.4198589713	 0.0597139675	 0.258006
C	-2.448074334	 0.3898334372	 0.0078339958	-0.152549
C	-3.8326663747	-0.1733430245	 0.1730946885	-0.347307
C	-3.9530624014	-1.5870953624	-0.3522052659	 0.393919
N	-5.0449853762	-2.0163297635	-0.8290888775	-0.516134
O	-2.8429782463	-2.3765469612	-0.3063833626	-0.245436
C	-1.6267555428	-1.8913785045	 0.272663671	-0.165701
H	 1.011005085	 1.6890030076	-0.2601241689	 0.293579
H	 0.4701620364	-0.4265906624	-0.970852213	 0.102734
H	 0.6125533878	-0.3818626316	 0.7884004091	 0.096181
H	-2.320925699	 1.4563607393	-0.1327042481	 0.119125
H	-4.1099322	-0.1775253102	 1.2389943143	 0.1366
H	-4.5916065583	 0.4275175558	-0.3305201678	 0.14493
H	-4.939164383	-2.9896780881	-1.1230699294	 0.215179
H	-0.8337198368	-2.4908339145	-0.1879358801	 0.120244
H	-1.6253176306	-2.1316677749	 1.3475973741	 0.120477
46.5729	93.5613	128.2542	200.9884	206.3313	239.7491	362.4864	427.0733	436.09	486.6246	567.1121	593.09	750.2792	777.3366	831.4588	888.7642	916.3125	978.0284	988.8627	1004.1041	1058.6628	1073.3787	1094.2378	1149.459	1171.3775	1204.8148	1232.17	1250.566	1270.4849	1298.3126	1328.8199	1362.1433	1432.1212	1463.2277	1465.9371	1503.5494	1509.8408	1747.4765	1757.6241	2931.5049	2947.7556	2980.8536	2991.1527	3060.7903	3116.2891	3210.0901	3460.9694	3842.4389
OCC1=CCC(=N)OC1	OCC1=CC[C]([NH])OC1	
InChI=1S/C6H9NO2/c7-6-2-1-5(3-8)4-9-6/h1,7-8H,2-4H2	InChI=1S/C6H9NO2/c7-6-2-1-5(3-8)4-9-6/h1,7-8H,2-4H2
