16
gdb 99511	2.43521	1.12053	0.82729	4.1328	66.82	-0.2829	-0.0527	0.2302	1356.7848	0.120477	-475.021664	-475.011586	-475.010642	-475.058441	33.929	
C	 0.4395223117	 0.4348159625	-1.0407108516	-0.253478
O	-0.2198737286	-0.7312348833	-0.5638222962	-0.233974
C	-1.3004046375	-0.4769009565	 0.2896008005	-0.097139
C	-2.4344375385	 0.159689103	-0.4110049294	 0.288532
N	-3.2886835161	 0.6701708208	-0.9971341256	-0.31351
C	-1.7501723062	-1.7991217984	 0.9516872749	 0.321682
O	-2.7305591722	-1.8302929529	 1.6537433635	-0.303788
C	-0.9069242446	-3.0346335562	 0.7184882694	-0.126792
O	-1.4096427114	-4.1266879269	 1.4256881483	-0.419982
H	 1.2736838919	 0.089774721	-1.6528876768	 0.148921
H	-0.2309488111	 1.0513530901	-1.6518465534	 0.14626
H	 0.8243959525	 1.0388157128	-0.2069602848	 0.122443
H	-1.0077136847	 0.1920166714	 1.1182287309	 0.148113
H	-0.877651579	-3.2208209146	-0.367164472	 0.140776
H	 0.1307354639	-2.8065269457	 1.007064515	 0.132781
H	-2.2153243401	-3.8160085071	 1.8658286471	 0.299157
16.7632	91.1033	113.4581	139.6649	162.7633	187.1499	263.7175	301.1279	345.5696	352.8184	428.3336	448.2937	495.5579	604.4375	728.5294	815.1884	913.3006	1004.1808	1016.5752	1114.7704	1141.378	1171.7922	1183.2712	1215.5738	1236.0359	1289.803	1311.1724	1335.2358	1442.682	1472.1843	1479.699	1488.3293	1506.0463	1816.8288	2359.3895	2960.3286	2991.816	3002.4795	3009.391	3069.9905	3144.2469	3712.2478
COC(C#N)C(=O)CO	CO[C@@H](C#N)C(=O)CO	
InChI=1S/C5H7NO3/c1-9-5(2-6)4(8)3-7/h5,7H,3H2,1H3	InChI=1S/C5H7NO3/c1-9-5(2-6)4(8)3-7/h5,7H,3H2,1H3/t5-/m0/s1
