23
gdb 91330	2.66877	1.49061	1.2208	1.5046	84.37	-0.2327	0.0799	0.3126	1153.977	0.206849	-388.298938	-388.290237	-388.289292	-388.331858	34.859	
C	-0.1464151972	 1.5376248127	-0.0165367109	-0.399519
C	 0.0162441514	 0.0093353366	-0.0052697798	 0.031915
C	 0.646342777	-0.5134811392	-1.3368334673	-0.223898
C	 2.0470481874	-1.0715261122	-1.1123181125	 0.100645
C	 2.8892877472	-0.1997957057	-0.1641345141	-0.296989
C	 2.1793316131	-1.0529400077	 0.9136841803	 0.411223
C	 2.9608349818	-1.552656288	 2.1074552634	-0.466855
C	 0.8019172553	-0.4770773767	 1.2576917393	-0.247506
O	 1.9620970056	-2.1011592254	-0.088195024	-0.331746
H	 0.8188652427	 2.0514903112	-0.0864881346	 0.116365
H	-0.7536136602	 1.8613353931	-0.8688593608	 0.111369
H	-0.6396211693	 1.8868416291	 0.8972174074	 0.111243
H	-0.9935283142	-0.4069221691	 0.062786226	 0.077732
H	 0.03320193	-1.3163491129	-1.7595635777	 0.103655
H	 0.677013552	 0.2900867044	-2.0831000708	 0.089206
H	 2.5079308622	-1.4452445002	-2.031317209	 0.068797
H	 3.9536985	-0.4356009706	-0.2270287098	 0.101484
H	 2.7427547855	 0.8816710877	-0.1658159009	 0.096564
H	 3.1919151034	-0.7282362976	 2.7904407486	 0.115367
H	 2.3845585189	-2.3020850464	 2.660545652	 0.122741
H	 3.8987555883	-2.0122713733	 1.7836513692	 0.119533
H	 0.9117821177	 0.3501903739	 1.9696033984	 0.088388
H	 0.2401846613	-1.2647343638	 1.7716026875	 0.100287
71.7466	174.0166	205.8821	250.7022	272.4248	351.2567	363.0349	373.2898	399.2822	467.4712	489.0127	648.5194	678.9247	770.0271	832.6146	855.2823	873.7724	888.3427	914.4968	938.9782	953.6299	976.5239	1000.8544	1016.4111	1042.4171	1080.7016	1094.1617	1132.5872	1169.0336	1213.6449	1224.3976	1239.2708	1252.0918	1269.2327	1303.9774	1330.5616	1351.5518	1364.2749	1366.8658	1384.7004	1405.8958	1415.1782	1471.413	1479.0615	1481.6315	1490.6534	1494.5237	1497.0983	1503.9078	3022.1272	3025.4961	3027.7332	3033.9349	3040.3313	3062.1405	3069.3788	3074.4439	3076.248	3094.0711	3095.3872	3103.0373	3114.864	3131.5163
CC1CC2CC(C)(C1)O2	C[C@H]1C[C@H]2C[C@@](C)(C1)O2	
InChI=1S/C8H14O/c1-6-3-7-5-8(2,4-6)9-7/h6-7H,3-5H2,1-2H3	InChI=1S/C8H14O/c1-6-3-7-5-8(2,4-6)9-7/h6-7H,3-5H2,1-2H3/t6-,7-,8+/m0/s1
