20
gdb 100715	2.88883	0.93258	0.86431	2.8742	71.3	-0.2557	0.0158	0.2715	1412.0712	0.168563	-477.453829	-477.442936	-477.441992	-477.490196	38.885	
C	-0.0446402892	 1.5329567073	 0.1390264899	-0.41702
C	-0.0424877994	 0.005197279	 0.0190966266	 0.005172
C	-1.4679290362	-0.5736475768	 0.0442219601	-0.079702
O	-2.1639349419	-0.2833155526	 1.2476457493	-0.425967
C	 0.6690587997	-0.4711808127	-1.2696008643	 0.024174
O	 0.0311578776	 0.0324216028	-2.41502273	-0.440047
C	 2.1448119842	-0.0403424711	-1.3181447599	 0.386003
N	 2.9654430155	-0.5519648686	-0.3705116452	-0.518444
O	 2.5248544472	 0.7293546292	-2.1867500711	-0.382253
H	 0.9706530184	 1.9371898367	 0.1949638507	 0.125684
H	-0.536344723	 1.981449608	-0.7292717582	 0.132382
H	-0.5702594778	 1.8456200306	 1.0458666585	 0.107868
H	 0.4880390036	-0.419125651	 0.8831181964	 0.064018
H	-2.0184837505	-0.2228597156	-0.8387168119	 0.115778
H	-1.4172171427	-1.6671804399	-0.0155954528	 0.101016
H	-2.4910755342	 0.6186490023	 1.191342556	 0.286361
H	 0.6414061216	-1.5743342894	-1.2915431387	 0.081924
H	 0.7123562803	 0.5706333425	-2.8560959006	 0.294417
H	 2.6438830143	-1.2122229507	 0.3151123222	 0.268944
H	 3.9402528225	-0.3006758698	-0.385244817	 0.269692
54.1572	68.6422	101.3384	149.5213	198.1376	210.2366	242.0115	253.0225	296.6267	321.3069	355.6773	436.7162	450.7943	529.9524	545.0041	622.9386	660.2166	737.1779	842.1363	868.4603	911.5212	951.1023	1019.9986	1068.2676	1093.9767	1115.022	1127.4586	1160.1486	1237.9276	1255.2456	1309.7603	1327.0302	1360.5993	1376.3652	1389.6892	1404.4585	1424.1196	1465.1662	1497.7843	1504.7579	1509.3884	1620.6463	1781.3328	2955.3087	3008.5932	3018.7245	3042.1116	3068.0104	3107.2944	3119.3588	3605.9315	3630.6068	3740.0166	3838.9465
CC(CO)C(O)C(N)=O	C[C@@H](CO)[C@@H](O)C(=O)N	
InChI=1S/C5H11NO3/c1-3(2-7)4(8)5(6)9/h3-4,7-8H,2H2,1H3,(H2,6,9)	InChI=1S/C5H11NO3/c1-3(2-7)4(8)5(6)9/h3-4,7-8H,2H2,1H3,(H2,6,9)/t3-,4+/m0/s1
