18
gdb 84159	2.8737	1.32903	0.94815	4.4407	75.01	-0.2417	0.0096	0.2513	1225.2988	0.148337	-439.134723	-439.126096	-439.125152	-439.168107	32.503	
C	 0.3138928522	 1.5189272288	 0.1597522626	-0.477327
C	 0.0249675482	 0.0514437729	 0.0109526476	 0.299615
C	 0.2461462416	-0.637668584	-1.1061908338	-0.178199
C	-0.1369027264	-2.0826902135	-1.2560224839	-0.00683
O	 0.7299240234	-2.7550841695	-2.1358606772	-0.43881
C	-0.1518817278	-2.8119198489	 0.0901313309	 0.384356
O	 0.1152636568	-4.0033860927	 0.140670948	-0.39926
N	-0.4899015583	-2.0728514389	 1.1724493814	-0.330521
C	-0.5750063157	-0.6200436132	 1.222515898	-0.237589
H	 1.0524103057	 1.7023969386	 0.9503951999	 0.128894
H	 0.6972874767	 1.9425965354	-0.7711331461	 0.133126
H	-0.5897063922	 2.0765729135	 0.4386037423	 0.127301
H	 0.676871985	-0.166468234	-1.9849705214	 0.105054
H	-1.175649773	-2.1341886253	-1.6401012288	 0.09798
H	 0.799619322	-3.6509579335	-1.7677034262	 0.292765
H	-0.505157574	-2.5805491091	 2.0450705581	 0.252856
H	-0.0505782364	-0.2765949834	 2.1242850629	 0.122221
H	-1.6219671078	-0.2961159834	 1.3420834759	 0.124368
67.1379	135.0029	169.6918	203.8522	290.2388	327.774	403.7143	427.3244	453.1241	480.2731	504.2074	566.5608	597.7226	672.7912	756.4874	811.3655	887.773	916.8261	986.5269	1017.098	1074.8909	1080.7075	1107.3279	1122.1161	1201.217	1247.3871	1259.4076	1294.8692	1333.3025	1380.1059	1397.9821	1415.8801	1453.9724	1479.6626	1482.9099	1490.6559	1521.7784	1753.2008	1779.5931	2893.4014	2968.6216	3017.0036	3024.3871	3063.3965	3122.7727	3174.8204	3610.2037	3685.3059
CC1=CC(O)C(=O)NC1	CC1=C[C@@H](O)C(=O)NC1	
InChI=1S/C6H9NO2/c1-4-2-5(8)6(9)7-3-4/h2,5,8H,3H2,1H3,(H,7,9)	InChI=1S/C6H9NO2/c1-4-2-5(8)6(9)7-3-4/h2,5,8H,3H2,1H3,(H,7,9)/t5-/m1/s1
