18
gdb 77763	2.80759	1.51797	1.14507	3.6824	77.29	-0.2429	0.0088	0.2517	1098.2026	0.147416	-401.881589	-401.873653	-401.872709	-401.913777	31.089	
C	-0.105728505	 1.5673871269	 0.0059366275	-0.444633
C	 0.0254086016	 0.0541256628	 0.0293412308	 0.044995
C	 1.2452956494	-0.6448684811	-0.6852596641	-0.294192
C	 2.0581518574	-0.1429964232	 0.5350216001	 0.445474
O	 3.0978257145	 0.3745509438	 0.79366343	-0.32417
C	 0.7740366825	-0.6581091149	 1.2208220442	-0.267674
C	 0.9314797258	-1.8445728142	 0.2393869138	 0.441823
C	 0.1732828753	-3.0823343488	 0.0125996186	-0.347473
N	 1.6005185901	-3.1011116761	 0.455676605	-0.403233
H	 0.8393495552	 2.0661468156	 0.2422430245	 0.14003
H	-0.4305527238	 1.9116525025	-0.981530132	 0.123176
H	-0.8525935438	 1.9000729495	 0.7343127367	 0.124763
H	-0.9176880673	-0.4450479792	-0.2084912088	 0.085509
H	 1.4935934425	-0.6494830591	-1.7449228833	 0.091032
H	 0.5017841513	-0.6827219829	 2.2729179243	 0.098649
H	-0.531658958	-3.4505054825	 0.7526333963	 0.128686
H	-0.0527041098	-3.3691956508	-1.0115165932	 0.119575
H	 2.2119688021	-3.3359867683	-0.3229995105	 0.237661
125.6211	174.4978	211.1518	226.105	243.2002	383.8667	395.9516	471.7481	512.1445	579.892	694.9922	726.0395	769.054	781.9858	827.429	889.2353	923.736	954.636	976.172	1015.5624	1030.4602	1050.7266	1067.5308	1101.0428	1105.134	1117.5093	1143.1017	1168.0435	1199.9988	1218.0804	1250.2105	1265.9203	1383.7961	1422.0491	1444.5071	1494.1358	1500.2599	1527.0652	1919.8273	3034.9901	3074.7935	3099.5724	3106.6246	3111.9007	3141.3563	3159.537	3191.7426	3495.1142
CC1C2C(=O)C1C21CN1	C[C@H]1[C@H]2C(=O)[C@@H]1[C@]12CN1	
InChI=1S/C7H9NO/c1-3-4-6(9)5(3)7(4)2-8-7/h3-5,8H,2H2,1H3	InChI=1S/C7H9NO/c1-3-4-6(9)5(3)7(4)2-8-7/h3-5,8H,2H2,1H3/t3-,4-,5+,7+
