20
gdb 81871	2.87432	1.4184	1.09623	3.6048	80.2	-0.2257	0.0317	0.2574	1167.1737	0.171217	-403.189878	-403.181066	-403.180122	-403.223068	33.512	
C	-0.0882618707	 1.4165387897	-0.1049876016	-0.347463
N	-0.0318561625	-0.0160136226	 0.0800818028	-0.061407
C	-1.1950293315	-0.8533905527	 0.0493869119	-0.041193
C	-1.4034237757	-1.6762922931	-1.2039552216	-0.346694
C	-0.7206852454	-2.2852666804	 0.0081776356	 0.328627
C	-1.4143550547	-3.3823900849	 0.780209252	-0.478822
C	 0.8001676236	-2.2158974728	 0.0434420823	-0.421206
C	 1.1485363261	-0.7199340104	 0.0103355704	 0.39934
O	 2.2559946546	-0.2330030015	-0.0802637458	-0.389634
H	 0.938997655	 1.7850535427	-0.1146412889	 0.164311
H	-0.5755065053	 1.6782988228	-1.0529497255	 0.123231
H	-0.6387587818	 1.8983969762	 0.7112180266	 0.122389
H	-2.034793246	-0.5334676798	 0.6584357179	 0.096899
H	-2.408114364	-2.0234691266	-1.4231399557	 0.113866
H	-0.8105118257	-1.4189243231	-2.0765622648	 0.116697
H	-2.5002695476	-3.2442910421	 0.7814224889	 0.116136
H	-1.2070255221	-4.3650383752	 0.3411644629	 0.124124
H	-1.0782901245	-3.4062522325	 1.8231459274	 0.120836
H	 1.2030574613	-2.6538547251	 0.9635671463	 0.12735
H	 1.2936184169	-2.7189169586	-0.7933080812	 0.132614
106.4466	131.8816	157.9298	215.2161	237.7276	279.943	322.0246	365.1581	462.8695	479.9388	545.3442	591.4143	651.3991	721.7266	780.1776	860.8769	909.5481	922.5545	972.7576	988.9342	1016.3799	1046.0726	1067.5494	1089.8475	1109.8304	1130.7912	1159.6589	1189.7141	1237.8412	1260.5705	1317.4718	1327.5191	1379.3026	1419.4099	1422.7759	1450.6102	1465.0674	1484.4592	1491.8116	1493.3794	1502.6865	1518.4932	1806.5976	3015.0365	3024.5132	3050.4225	3067.1202	3086.0353	3093.8778	3099.0138	3119.9035	3142.5491	3155.1008	3210.4337
CN1C2CC2(C)CC1=O	CN1[C@H]2C[C@@]2(C)CC1=O	
InChI=1S/C7H11NO/c1-7-3-5(7)8(2)6(9)4-7/h5H,3-4H2,1-2H3	InChI=1S/C7H11NO/c1-7-3-5(7)8(2)6(9)4-7/h5H,3-4H2,1-2H3/t5-,7-/m0/s1
