21
gdb 113976	4.12435	0.6479	0.59248	4.2842	84.89	-0.2414	0.0371	0.2785	1889.396	0.181694	-383.26053	-383.250442	-383.249498	-383.29672	35.822	
C	 0.2369552442	-2.9374721677	 0.1963122796	-0.381298
C	-0.0612511524	-1.5816979234	 0.8481165104	-0.202935
C	-1.4914192081	-1.1458210879	 0.5947815618	 0.026422
C	-2.5875955463	-1.4736579314	 1.5517306366	-0.26129
N	-2.1652788101	-0.0871242078	 1.3496066837	-0.095924
C	-1.4723362808	 0.5805030298	 2.4392233178	-0.137473
C	-2.5019720557	 1.4079351605	 3.2334276267	-0.333737
C	-1.8905156777	 2.1430103184	 4.3366843002	 0.252213
N	-1.3862507644	 2.7163736225	 5.2041182577	-0.30585
H	 1.27841643	-3.2306808885	 0.3568276368	 0.118599
H	-0.4038340817	-3.7227049544	 0.6102513239	 0.121815
H	 0.0629651436	-2.9025731022	-0.8845625677	 0.120584
H	 0.1379869335	-1.6420841384	 1.9229094173	 0.102618
H	 0.6241801274	-0.8245016364	 0.4454151996	 0.106855
H	-1.7498826971	-1.1185178149	-0.4642181725	 0.092963
H	-3.5857837836	-1.7264875726	 1.2046970082	 0.118307
H	-2.2937580869	-1.9598467919	 2.482566542	 0.108582
H	-0.9552850392	-0.1024853299	 3.1300757395	 0.107365
H	-0.7177436519	 1.2533751103	 2.018491896	 0.126043
H	-3.0011635816	 2.1095552546	 2.5578041882	 0.162361
H	-3.2776172611	 0.7460273013	 3.6346496943	 0.153781
58.9276	71.383	85.9438	97.9835	181.4838	218.2708	269.2466	288.0091	352.0561	401.4268	449.7102	521.5081	569.9232	748.3613	786.7524	797.5211	840.2022	913.5548	950.7363	968.9692	1006.0196	1034.7327	1046.8449	1069.4069	1095.7655	1117.2928	1150.5923	1164.6546	1195.9707	1235.2251	1285.8469	1296.6516	1317.7021	1337.6841	1347.7039	1394.7546	1409.9231	1429.3838	1468.1459	1485.8205	1495.4452	1498.5808	1507.3629	1516.2021	2362.824	2984.149	3024.5977	3035.5789	3051.7197	3068.3743	3072.4224	3083.3902	3097.6552	3099.3371	3108.0195	3111.4467	3175.1045
CCC1CN1CCC#N	CC[C@H]1CN1CCC#N	
InChI=1S/C7H12N2/c1-2-7-6-9(7)5-3-4-8/h7H,2-3,5-6H2,1H3	InChI=1S/C7H12N2/c1-2-7-6-9(7)5-3-4-8/h7H,2-3,5-6H2,1H3/t7-,9?/m0/s1
