18
gdb 8428	3.86925	1.82438	1.78274	0.924	66.97	-0.2401	0.0886	0.3287	849.0293	0.152301	-384.931314	-384.923657	-384.922713	-384.962749	29.951	
C	 0.1855306574	 1.4913008378	 0.0184824157	-0.416604
C	-0.0040362294	-0.0147358625	 0.0034878369	 0.444486
C	-1.4718550482	-0.4415950433	-0.0430851643	-0.407894
O	 0.7049232952	-0.5566189586	-1.1215548092	-0.294383
C	 1.2249186527	-1.7978189266	-0.7177680024	 0.05596
C	 2.5176549937	-1.7493605245	 0.0679944995	-0.327891
C	 1.1802576349	-1.8072490026	 0.7743609584	 0.055953
O	 0.6365630571	-0.5710494628	 1.1619651877	-0.294371
H	 1.2507701625	 1.727397344	 0.0534519022	 0.126591
H	-0.2485155156	 1.9337578328	-0.8816557181	 0.12579
H	-0.3045240716	 1.9234723788	 0.8945465691	 0.125722
H	-1.9524135896	-0.0527542562	-0.9449525372	 0.122277
H	-1.5459578926	-1.5324560793	-0.0528257005	 0.119172
H	-2.0051789754	-0.0650403894	 0.8339912462	 0.122297
H	 0.9680250658	-2.6389059082	-1.3524274316	 0.10209
H	 3.1310556812	-2.6450179652	 0.080696984	 0.112475
H	 3.0522872674	-0.8068412377	 0.0899429022	 0.126238
H	 0.8861889847	-2.6561810665	 1.3818582313	 0.102092
107.6018	188.7243	240.7276	254.8308	324.7221	334.0652	413.222	444.4977	526.9065	641.2748	721.8253	784.7839	790.2365	814.306	867.2054	917.8832	937.9387	990.1878	1000.6826	1004.6527	1011.0309	1064.8655	1095.2664	1113.0302	1147.9296	1176.0351	1192.8477	1224.8329	1282.9059	1334.7494	1373.4987	1398.9858	1414.5346	1456.9328	1473.6342	1476.2987	1492.6228	1497.6299	3045.5	3056.5026	3123.7337	3123.8548	3129.6695	3134.635	3141.9801	3161.2878	3170.8936	3230.4772
CC1(C)OC2CC2O1	CC1(C)O[C@H]2C[C@H]2O1	
InChI=1S/C6H10O2/c1-6(2)7-4-3-5(4)8-6/h4-5H,3H2,1-2H3	InChI=1S/C6H10O2/c1-6(2)7-4-3-5(4)8-6/h4-5H,3H2,1-2H3/t4-,5+
