19
gdb 10505	3.19768	1.34433	1.08382	3.326	71.83	-0.2371	-0.0185	0.2185	1137.4255	0.163796	-365.048479	-365.039428	-365.038484	-365.083228	32.204	
C	 0.797656559	-1.6529417983	 0.5320072724	-0.411643
C	-0.0610061674	-0.8542558707	-0.4522274286	-0.245455
C	-1.5315415025	-0.6549217336	-0.093461739	 0.302009
C	-2.3062114306	 0.1445748398	-1.1365277283	-0.318695
C	-1.8408676073	 1.5848519031	-1.203633326	 0.158493
O	-1.5409707793	 2.167159489	-2.2149684134	-0.24692
C	-2.2716566292	-1.6521559999	 0.7218993006	-0.284527
N	-1.9374757056	-0.3302672157	 1.2882650369	-0.344931
H	 1.8327279745	-1.6851100729	 0.1805367777	 0.127575
H	 0.8158653313	-1.2032066121	 1.5307994603	 0.118069
H	 0.4547534221	-2.687020871	 0.6318872217	 0.126207
H	 0.391686542	 0.1363357835	-0.5962960269	 0.115783
H	-0.0211794631	-1.3381501328	-1.4365378324	 0.113887
H	-2.2269541611	-0.3023845719	-2.1323320169	 0.114862
H	-3.36393718	 0.1634250182	-0.8448146044	 0.125189
H	-1.7988072179	 2.0881408929	-0.2119742602	 0.090306
H	-3.3300536032	-1.8200035043	 0.5401160789	 0.115545
H	-1.7391117106	-2.5210829259	 1.0954024944	 0.11431
H	-1.1474612912	-0.4234331175	 1.9212944633	 0.229936
44.3789	60.9348	84.6303	191.4188	243.1223	279.9907	332.5432	350.9724	418.1692	480.5238	536.1446	674.8583	773.3619	810.0397	850.03	896.799	932.6133	974.5847	1008.9784	1028.4822	1046.1545	1074.6194	1096.3252	1126.8336	1145.9933	1206.6566	1260.7652	1276.5685	1313.0155	1321.3703	1377.5729	1397.8702	1418.4559	1420.6652	1451.6912	1484.4034	1498.9802	1502.6291	1520.8264	1829.9582	2889.7306	3015.5806	3032.9518	3037.7112	3046.7216	3098.0184	3101.8714	3111.7923	3115.4452	3198.0725	3506.2466
CCC1(CC=O)CN1	CC[C@@]1(CC=O)CN1	
InChI=1S/C6H11NO/c1-2-6(3-4-8)5-7-6/h4,7H,2-3,5H2,1H3	InChI=1S/C6H11NO/c1-2-6(3-4-8)5-7-6/h4,7H,2-3,5H2,1H3/t6-/m1/s1
