17
gdb 81111	2.58456	1.74357	1.27033	1.8611	78.87	-0.2411	-0.0052	0.2359	1019.6475	0.134377	-384.607336	-384.599446	-384.598502	-384.639267	31.575	
C	-0.1263275326	 1.5260182736	-0.021833153	-0.425599
C	-0.0197905069	 0.01268641	-0.0349149545	-0.013933
C	 1.281279323	-0.602613136	-0.6536350864	-0.018465
O	 1.9835473501	-0.242505336	 0.5814778701	-0.317931
C	 0.7111964964	-0.6464883537	 1.2093281931	 0.309319
C	 0.6477331709	-2.1420019715	 0.8239908432	-0.133753
C	 1.0404404192	-2.1064911411	-0.449623134	-0.088887
C	 0.4992027012	-0.2307118709	 2.5686611461	 0.052334
C	 0.2854300658	 0.1240079132	 3.6969222113	-0.32964
H	 0.828781289	 1.9808271093	 0.2488604195	 0.139221
H	-0.4279233528	 1.898338416	-1.0068631067	 0.114599
H	-0.8816834803	 1.8513235717	 0.701235594	 0.125535
H	-0.9579695373	-0.4681298969	-0.3226902467	 0.077383
H	 1.7521457607	-0.2324409939	-1.5627234636	 0.084284
H	 0.342787528	-2.9529819353	 1.4673103363	 0.121437
H	 1.1512698325	-2.8964199029	-1.1773187765	 0.116355
H	 0.1066968032	 0.4353810344	 4.6965250878	 0.187741
124.7896	156.9955	220.4764	267.7536	279.6667	465.1602	470.143	506.6002	545.7838	555.9585	629.3593	645.8545	680.3248	699.6487	744.8899	810.9216	835.1225	894.7301	898.6637	918.822	960.065	982.9013	1035.4368	1074.5955	1082.9675	1118.3975	1207.3125	1217.229	1251.5062	1287.0419	1303.766	1366.9522	1402.6133	1488.1828	1500.7432	1615.2112	2242.9529	3037.1434	3080.3766	3097.3071	3135.1086	3141.3479	3236.9251	3265.6904	3501.2762
CC1C2OC1(C=C2)C#C	C[C@H]1[C@H]2O[C@@]1(C=C2)C#C	
InChI=1S/C8H8O/c1-3-8-5-4-7(9-8)6(8)2/h1,4-7H,2H3	InChI=1S/C8H8O/c1-3-8-5-4-7(9-8)6(8)2/h1,4-7H,2H3/t6-,7-,8+/m0/s1
