18
gdb 80268	2.6999	1.51691	1.36555	2.4842	79.11	-0.232	-0.0589	0.1731	1020.9279	0.148463	-401.950168	-401.942264	-401.94132	-401.982535	30.493	
C	-0.255056182	 1.3614421802	 0.1296475413	-0.331882
N	-0.0165687773	-0.0691852943	 0.0395308747	-0.094133
C	 0.5096138795	-0.6705476699	-1.168432421	-0.045151
C	 0.9758641983	 0.1290685371	-2.3718111054	-0.344084
C	 2.0528051238	 1.192287852	-2.1343904394	 0.362935
O	 2.2500491898	 2.0692410601	-2.9527205945	-0.340153
C	 2.866543243	 1.0633202817	-0.911793686	-0.179095
C	 2.5600415525	 0.1998240417	 0.0704813548	-0.031439
C	 1.3500535917	-0.6459017216	 0.079572858	-0.083751
H	 0.504735141	 2.0051076325	-0.3334578703	 0.126888
H	-1.2166808555	 1.5738609268	-0.3477637499	 0.131774
H	-0.3315142497	 1.6371010489	 1.1857908531	 0.128943
H	 0.0236494031	-1.6106102828	-1.4261576295	 0.100224
H	 1.406970325	-0.5747477591	-3.0961107221	 0.140087
H	 0.1389730916	 0.6097123066	-2.8893046409	 0.138365
H	 3.740781206	 1.7042156064	-0.8575849406	 0.11222
H	 3.2161474091	 0.1172140528	 0.9340898116	 0.111056
H	 1.4095090001	-1.5334937592	 0.7038602962	 0.097197
84.6047	158.6678	194.9292	224.1759	316.9889	410.0614	430.9372	448.4274	524.8316	580.9459	635.9847	699.4643	738.6692	759.6023	840.9099	876.9574	930.482	956.2261	991.6041	1014.9372	1051.353	1106.6901	1140.2557	1152.2782	1162.7678	1185.166	1222.5603	1246.9782	1310.3563	1346.5672	1373.7571	1408.0891	1419.5211	1443.4391	1454.0343	1485.484	1502.7178	1669.9224	1766.8608	3009.1277	3032.7048	3078.5459	3080.2063	3107.9473	3109.1821	3135.3389	3155.5993	3190.7788
CN1C2CC(=O)C=CC12	CN1[C@H]2CC(=O)C=C[C@@H]12	
InChI=1S/C7H9NO/c1-8-6-3-2-5(9)4-7(6)8/h2-3,6-7H,4H2,1H3	InChI=1S/C7H9NO/c1-8-6-3-2-5(9)4-7(6)8/h2-3,6-7H,4H2,1H3/t6-,7+,8?/m1/s1
