19
gdb 66440	2.53546	1.69448	1.34211	1.5135	79.43	-0.2097	0.0725	0.2822	1041.1648	0.156702	-385.786412	-385.777776	-385.776832	-385.818926	33.838	
C	-0.0673019418	 1.4589764307	-0.0151395291	-0.524542
C	 0.0242654475	-0.0329502768	-0.0085573932	 0.310382
C	 0.9778489989	-1.0061629544	-0.7724388851	-0.268278
C	 0.8721749064	-2.0111027098	 0.3856937971	-0.141251
C	-0.0683934519	-1.0332213692	 1.1430237439	-0.194851
C	-1.0796984002	-1.0913144052	-0.0023716398	 0.196836
C	-2.5674370437	-0.9551748137	 0.0138986464	-0.52676
C	-0.1068327255	-2.0752112008	-0.760397878	 0.339813
O	-0.3347969663	-3.1401564694	-1.5938601801	-0.449624
H	 0.8641738211	 1.9197143632	 0.3347238356	 0.121878
H	-0.272746662	 1.8459948319	-1.0207229398	 0.116755
H	-0.872589663	 1.803575582	 0.6430174246	 0.119695
H	 1.7986250889	-0.8452584832	-1.4599003974	 0.083723
H	 1.5949205696	-2.7449489786	 0.7154487537	 0.089411
H	-0.2463090929	-0.8621606616	 2.1982694663	 0.076802
H	-2.8761619316	-0.1487446815	 0.6883962454	 0.121125
H	-2.9670277067	-0.7231585081	-0.9808665021	 0.113943
H	-3.0502706577	-1.8765491134	 0.3595108325	 0.127792
H	-0.5382821292	-2.8022081822	-2.473752381	 0.287148
166.9042	178.0937	184.1736	202.9577	204.3963	294.7196	317.224	383.3832	426.7846	533.5631	629.858	638.3248	679.9325	758.7377	784.0837	811.2613	842.9075	871.6466	900.6987	905.9003	915.845	943.9698	987.6183	1075.9538	1091.6434	1101.0397	1121.0977	1147.7116	1194.2838	1214.7576	1234.447	1301.6052	1333.9447	1408.5927	1411.239	1451.9657	1458.1509	1479.0451	1484.901	1493.936	1503.7789	3014.9014	3017.9336	3072.7907	3074.3803	3086.4326	3089.905	3176.4368	3192.1354	3209.163	3779.1698
CC12C3C4C1C2(C)C34O	C[C@@]12[C@H]3[C@H]4[C@@H]1[C@]2(C)[C@@]34O	
InChI=1S/C8H10O/c1-6-4-3-5(6)8(3,9)7(4,6)2/h3-5,9H,1-2H3	InChI=1S/C8H10O/c1-6-4-3-5(6)8(3,9)7(4,6)2/h3-5,9H,1-2H3/t3-,4+,5-,6+,7+,8+/m1/s1
