20
gdb 69305	2.41868	1.50106	1.26525	3.5234	80.05	-0.2278	-0.0125	0.2153	1125.1021	0.168551	-403.135031	-403.125418	-403.124474	-403.168826	35.955	
C	-0.0811574816	 1.5900185128	 0.0435667842	-0.514655
C	 0.1130444812	 0.1077171114	-0.0114997837	 0.20194
N	-0.8084763965	-0.8520064219	 0.697311645	-0.37205
C	 0.6320749784	-0.9093311208	 0.9742292379	-0.150525
C	 1.2582406572	-1.7974932549	-0.1270334031	 0.188481
C	 2.7899525761	-1.7501275269	-0.1280894338	-0.442462
C	 0.7212937728	-3.2174231645	-0.273460296	-0.448432
C	 0.7178191077	-0.7194425522	-1.1277733409	 0.380153
O	 0.9127717743	-0.5201212492	-2.292704926	-0.324534
H	 0.8010707006	 2.1112022518	-0.3405927464	 0.139656
H	-0.9388385026	 1.895338255	-0.5651689425	 0.143952
H	-0.257096986	 1.9272727642	 1.0708800429	 0.1204
H	-1.250074154	-0.3059897176	 1.4386665792	 0.23239
H	 1.035199318	-0.7195411233	 1.9621390395	 0.100027
H	 3.1935096147	-2.373114554	 0.6775834572	 0.116051
H	 3.1792460803	-2.1246651061	-1.0790455768	 0.137319
H	 3.1662550958	-0.7307157532	 0.0096765761	 0.11503
H	-0.3674518313	-3.2301036375	-0.1935651157	 0.142111
H	 1.003948561	-3.6290988881	-1.2478954778	 0.126307
H	 1.1369217238	-3.8732440549	 0.5003394605	 0.10884
93.337	172.786	173.4874	198.3886	204.6366	219.7086	264.2812	289.5217	323.3071	334.7561	499.8585	533.3207	569.1839	654.8487	754.6207	767.1778	809.0747	861.8415	902.4387	945.9325	961.3396	996.3049	1019.8511	1036.2299	1040.7753	1107.1903	1108.8063	1189.1042	1215.8395	1242.7777	1299.7712	1347.9707	1391.5146	1400.8801	1412.687	1433.786	1478.7459	1481.8248	1486.527	1496.0842	1499.5914	1510.5279	1881.5403	3028.6704	3030.9505	3032.5308	3093.9786	3095.5917	3097.274	3105.7063	3113.8919	3132.572	3187.4857	3454.5646
CC12NC1C(C)(C)C2=O	C[C@]12N[C@H]1C(C)(C)C2=O	
InChI=1S/C7H11NO/c1-6(2)4-7(3,8-4)5(6)9/h4,8H,1-3H3	InChI=1S/C7H11NO/c1-6(2)4-7(3,8-4)5(6)9/h4,8H,1-3H3/t4-,7-/m0/s1
