19
gdb 116796	6.65798	0.51721	0.49846	7.7485	80.5	-0.2308	0.0101	0.2409	2184.647	0.158114	-456.38812	-456.377916	-456.376972	-456.42564	35.134	
C	 0.2081432254	 1.3389977362	-0.3066850674	-0.37217
C	-0.1400919299	 0.1056916164	 0.5276881274	-0.138969
N	-1.4723514178	-0.396485094	 0.245595493	-0.280536
H	-2.2604990163	 0.2123987242	 0.4123514937	 0.250121
C	-1.7676618146	-1.6773104675	-0.0788194819	 0.139488
N	-2.9618873123	-2.1135298367	-0.2029460902	-0.302119
C	-3.1572162124	-3.4991833944	-0.5767777699	-0.290197
C	-4.3051353601	-4.121755322	 0.2328966349	 0.413488
O	-5.0034030043	-3.225608063	 0.9454306138	-0.361917
O	-4.5658963947	-5.29389915	 0.2128039632	-0.338517
H	 1.2116700724	 1.6968555615	-0.0577176667	 0.126619
H	 0.1727918582	 1.1101085909	-1.3754734887	 0.131331
H	-0.4944481415	 2.1560575173	-0.1112272084	 0.123774
H	 0.5653914473	-0.7045702714	 0.3171826552	 0.124224
H	-0.038349463	 0.3383760313	 1.5969952379	 0.117404
H	-0.8813579253	-2.3045253079	-0.2431112123	 0.100712
H	-4.5595596467	-2.3664791834	 0.7806764661	 0.298851
H	-3.4529473794	-3.5771194605	-1.6325504818	 0.138109
H	-2.2690246749	-4.1340676372	-0.4479110778	 0.120304
23.6696	44.4711	75.8605	93.3631	183.4749	204.8711	266.3776	313.5083	333.0443	429.7346	476.0435	569.915	574.8739	599.5528	672.6427	790.6893	797.9923	873.6843	922.6348	988.1736	1028.4787	1056.2553	1076.7888	1121.529	1190.8204	1221.4277	1233.0133	1289.583	1320.8928	1351.5033	1381.3261	1408.1118	1417.2035	1428.6833	1464.1038	1489.3782	1490.9482	1508.0343	1512.6147	1754.8384	1876.7186	2999.117	3006.6556	3036.0614	3037.182	3039.6856	3077.3324	3110.8218	3123.4687	3506.9488	3609.9202
CC[NH+]=CNCC([O-])=O	CCNC=NCC(=O)O	
InChI=1S/C5H10N2O2/c1-2-6-4-7-3-5(8)9/h4H,2-3H2,1H3,(H,6,7)(H,8,9)	InChI=1S/C5H10N2O2/c1-2-6-4-7-3-5(8)9/h4H,2-3H2,1H3,(H,6,7)(H,8,9)
