19
gdb 38916	3.11005	1.73235	1.25308	1.0991	83.05	-0.2198	0.0139	0.2337	1017.9762	0.161383	-385.86631	-385.859231	-385.858287	-385.897515	29.158	
C	 0.0579974496	 1.4750253461	 0.0962031337	-0.350094
C	 1.3691441698	 0.7604458883	-0.0584201883	-0.105786
C	 1.7506090056	 0.044530524	 1.2436780716	-0.255295
C	 0.4008089296	-0.7256983047	 1.2042282513	 0.057621
O	 0.627977175	-2.1044232635	 0.9927346579	-0.267477
C	-0.4564084586	-2.7624335753	 0.3531360976	-0.134594
C	-0.9308783061	-2.0705017379	-0.9024404147	-0.099273
C	-0.6687358531	-0.7810931967	-1.1301865916	-0.178731
C	 0.0285488106	-0.0145116277	-0.0994502281	 0.360827
H	-0.2295651245	 1.9087778959	 1.0531825235	 0.105106
H	-0.2620093825	 2.0565192246	-0.7639205542	 0.113903
H	 2.0416227457	 0.9797438552	-0.8790345835	 0.08936
H	 2.574478667	-0.6611931779	 1.1262736189	 0.120605
H	 1.9352679146	 0.6823986664	 2.1141467437	 0.094298
H	-0.2903985951	-0.5723763937	 2.048467586	 0.055193
H	-0.0886997863	-3.766609094	 0.1137203816	 0.115978
H	-1.2987205628	-2.8943744068	 1.056743591	 0.097802
H	-1.4858187922	-2.6726118121	-1.6157867848	 0.09293
H	-0.9758644863	-0.2903307101	-2.0499039715	 0.087627
129.7766	193.093	262.8747	372.7402	394.689	454.525	469.2523	505.8463	634.968	701.0372	728.1161	818.736	835.8638	880.5497	892.701	923.1619	934.0509	945.482	979.7077	1000.2173	1024.3955	1031.7465	1049.2049	1091.5021	1094.6616	1136.6149	1183.2792	1187.8926	1238.9572	1248.2859	1265.0315	1280.9792	1316.3254	1353.691	1356.2687	1400.4573	1444.5354	1470.2846	1488.5446	1495.1118	1696.9162	2936.8781	2967.2356	3049.3518	3057.6816	3089.2884	3126.0091	3154.3464	3177.9491	3179.6304	3188.5064
C1C2CC3OCC=CC123	C1[C@H]2C[C@@H]3OCC=C[C@]123	
InChI=1S/C8H10O/c1-2-8-5-6(8)4-7(8)9-3-1/h1-2,6-7H,3-5H2	InChI=1S/C8H10O/c1-2-8-5-6(8)4-7(8)9-3-1/h1-2,6-7H,3-5H2/t6-,7+,8+/m1/s1
