25
gdb 119883	3.7848	0.79446	0.70831	0.2187	96.35	-0.224	0.0345	0.2585	1736.9811	0.230457	-352.391324	-352.381548	-352.380604	-352.42653	37.077	
C	 0.0640771483	 1.6203129848	 0.0716746181	-0.377308
C	 0.0539636252	 0.0895301122	 0.0515195087	-0.1554
C	 0.6250347409	-0.4931309894	-1.2562655832	-0.277793
C	 0.6536148576	-2.0032177521	-1.2950896515	 0.323407
C	-0.2255789189	-2.7058727346	-2.0154875584	-0.149307
C	-0.252478487	-4.2098488072	-2.1108760619	-0.237887
C	 1.037595992	-4.8496539437	-1.5786679557	-0.193381
C	 1.470221139	-4.1825868263	-0.2688505199	-0.197776
C	 1.7339575981	-2.6858560833	-0.4812851684	-0.284684
H	 1.083423117	 2.0113892959	-0.0228665287	 0.112559
H	-0.5235502406	 2.0310200529	-0.7571044188	 0.113198
H	-0.3569411157	 2.0106716806	 1.0036274066	 0.110009
H	 0.6248178508	-0.2891422148	 0.9082234065	 0.096958
H	-0.9711196863	-0.2784149771	 0.181797325	 0.098489
H	 0.0309213858	-0.1160122234	-2.097420035	 0.093814
H	 1.6443845828	-0.1031757526	-1.3964598397	 0.090394
H	-0.9859709372	-2.1711094114	-2.5832506221	 0.067842
H	-1.120367226	-4.5965519319	-1.554407746	 0.102176
H	-0.4219564628	-4.5106288617	-3.152894999	 0.097215
H	 0.8980837181	-5.9271384826	-1.4394287646	 0.087907
H	 1.835379454	-4.7280395286	-2.3231169621	 0.095461
H	 0.6753979923	-4.3070161426	 0.4784058449	 0.095786
H	 2.3635532137	-4.6686386092	 0.1385377656	 0.088048
H	 2.7008397675	-2.5437561647	-0.9889778458	 0.102327
H	 1.8438712217	-2.1842974292	 0.4884045557	 0.097947
59.374	73.7299	90.9081	183.842	241.8034	256.3384	294.1531	326.8811	334.5352	448.5683	499.0489	528.4472	646.1504	742.9166	781.8819	820.1408	843.6497	860.7329	879.4169	903.7222	928.9079	941.6633	980.8818	1041.294	1052.2062	1074.9744	1094.7754	1110.3233	1119.5236	1159.864	1172.3058	1198.4705	1255.0499	1268.649	1293.5101	1310.8571	1318.1727	1343.5433	1368.5871	1372.5165	1379.0147	1384.7481	1401.1564	1410.2308	1471.9215	1477.5108	1479.9655	1489.6342	1491.6685	1498.4455	1500.4437	1508.7821	1734.8179	2986.7277	2987.799	2995.719	3015.8477	3019.9642	3026.5088	3028.1284	3035.5569	3040.814	3044.5158	3065.2933	3065.3922	3070.2054	3096.0041	3099.9607	3129.922
CCCC1=CCCCC1	CCCC1=CCCCC1	
InChI=1S/C9H16/c1-2-6-9-7-4-3-5-8-9/h7H,2-6,8H2,1H3	InChI=1S/C9H16/c1-2-6-9-7-4-3-5-8-9/h7H,2-6,8H2,1H3
