14
gdb 37761	3.11269	1.74272	1.18125	2.0979	67.67	-0.2312	-0.0491	0.182	966.9014	0.102144	-436.703768	-436.697139	-436.696195	-436.734985	25.549	
C	-0.0675763027	 1.7260523971	-0.2746269344	-0.189931
O	 1.1188766143	 1.6938423164	 0.5436115675	-0.237955
C	 1.6138094833	 0.443758715	 0.4927853213	 0.425101
N	 2.3358675975	-0.1608992179	 1.3577332151	-0.322929
C	 2.2557879963	-1.5289555398	 0.9526996109	-0.016522
C	 1.4376298468	-1.7658932624	-0.0948186735	-0.188298
O	-1.4097981206	-0.1616670716	-1.0718178826	-0.27387
C	-0.3541647924	 0.2627287352	-0.7064015102	 0.336245
C	 1.0124052063	-0.4131872984	-0.5818425074	-0.24246
H	-0.8916930368	 2.1435276116	 0.3089710693	 0.16106
H	 0.0996407303	 2.3533916511	-1.1583063856	 0.150754
H	 2.8171607358	-2.2571279005	 1.5235309821	 0.119745
H	 1.2418683745	-2.706666714	-0.5846851985	 0.119443
H	 1.4986801376	-0.1896841917	-1.5481700642	 0.159617
116.9756	155.4812	278.8233	364.9214	452.6089	502.0526	579.5999	624.0655	659.4967	693.8006	718.4961	788.566	864.1233	936.3713	948.6536	964.6826	1006.6265	1035.9598	1063.712	1096.1159	1131.3463	1170.9272	1195.588	1225.0307	1293.3231	1336.0108	1392.6134	1480.2404	1570.2901	1678.9291	1884.1952	2977.416	3045.081	3114.7697	3224.8639	3264.2985
C1OC2=NC3C4OC13C24	C1OC2=NC=C[C@H]2C1=O	
InChI=1S/C6H5NO2/c1-6-2-3(9-6)4(6)7-5(2)8-1/h2-4H,1H2	InChI=1S/C6H5NO2/c8-5-3-9-6-4(5)1-2-7-6/h1-2,4H,3H2/t4-/m0/s1
