18
gdb 76438	3.10148	0.99102	0.94441	4.3351	70.7	-0.2452	0.0194	0.2646	1312.1997	0.144271	-476.185206	-476.175229	-476.174285	-476.220189	35.883	
C	 0.0806029211	 1.5676752005	-0.3403163293	-0.440855
C	 0.0262522502	 0.092710764	-0.0358423036	 0.299726
O	-1.106798123	-0.5820562218	-0.5537167812	-0.221028
C	-2.270180265	-0.4085053835	 0.1145694695	 0.115268
N	-3.3326519355	-0.9190429821	-0.3348740409	-0.442815
C	 1.2754611362	-0.7615407284	-0.0787157694	 0.047075
O	 2.5155564607	-0.1701260292	-0.2932719958	-0.433701
C	 0.5845895452	-0.49499797	 1.2452236361	-0.036838
O	 1.2317257646	 0.4025605157	 2.1107874647	-0.426235
H	-0.035174294	 1.7191136351	-1.4174521903	 0.14023
H	-0.7165532198	 2.1129214184	 0.1749704376	 0.121007
H	 1.0360027601	 1.9933660895	-0.0330209869	 0.132947
H	-2.1627460745	 0.1810670842	 1.0339775988	 0.096684
H	-4.1087998878	-0.7066143183	 0.2887484221	 0.229075
H	 1.1818136156	-1.7435747029	-0.5318099102	 0.122677
H	 2.7215511963	 0.3318970384	 0.5073650006	 0.286164
H	 0.018989066	-1.2914785366	 1.7238280056	 0.108685
H	 1.7635897337	-0.1135323829	 2.7272695827	 0.301934
74.5322	121.0106	123.5391	136.1317	195.6883	214.7613	260.3407	291.3893	357.5266	376.8491	421.0549	481.5721	523.2452	649.2198	661.5968	739.9802	823.3684	852.6911	916.1913	965.4111	1001.0431	1050.2533	1073.5317	1088.5457	1105.8657	1152.1088	1170.923	1204.5879	1250.7453	1284.2771	1305.5911	1333.9117	1400.3694	1413.7451	1418.2483	1465.3433	1477.8284	1503.6162	1743.6352	3037.8151	3047.3382	3110.4863	3127.6676	3152.4459	3165.174	3515.3843	3742.8559	3798.3211
CC1(OC=N)C(O)C1O	C[C@@]1(O[CH][NH])[C@@H](O)[C@H]1O	
InChI=1S/C5H9NO3/c1-5(9-2-6)3(7)4(5)8/h2-4,6-8H,1H3	InChI=1S/C5H9NO3/c1-5(9-2-6)3(7)4(5)8/h2-4,6-8H,1H3/t3-,4+,5+
