19
gdb 22546	2.1639	1.08881	0.88226	1.7992	76.77	-0.2315	-0.0379	0.1935	1389.4604	0.15552	-456.30191	-456.291208	-456.290264	-456.338623	37.026	
C	 0.5377158744	 1.1842328674	-0.3350712137	-0.315956
N	-0.300115178	 0.1633648643	 0.2745762494	-0.29004
C	 0.3102288325	-0.5533273101	 1.3678643272	-0.141498
C	-0.7523278092	-0.9998216155	 2.3683170081	 0.150247
O	-1.9010549803	-0.6417071221	 2.3290759207	-0.254437
C	 1.1170689987	-1.757362964	 0.9042297971	 0.364101
C	 0.4958028187	-2.7412350465	-0.0442396409	-0.47688
N	 2.2931359398	-1.8465903211	 1.3985029985	-0.17494
O	 2.9514918201	-3.0051237029	 0.967292846	-0.39333
H	 1.4205051209	 0.7200110172	-0.7875485407	 0.128718
H	-0.0209457981	 1.6831110349	-1.1317556163	 0.123306
H	 0.894203436	 1.9536895979	 0.3723352428	 0.099593
H	-1.1943875539	 0.5302648124	 0.5819049332	 0.237106
H	 1.0064527776	 0.0595662014	 1.9756515547	 0.098747
H	-0.3719177709	-1.6713862888	 3.1662361957	 0.102989
H	-0.4112870792	-2.3193501765	-0.4779077017	 0.144781
H	 1.1997609687	-2.9976697814	-0.8403671789	 0.148489
H	 0.2561791977	-3.6767151905	 0.4750025434	 0.141111
H	 3.8190591946	-2.910485576	 1.3750531253	 0.307891
46.7597	77.3666	89.4684	104.5751	174.4392	192.6001	222.6414	288.5256	301.0904	325.9749	387.9154	416.2854	467.3705	577.1401	646.1964	713.0764	745.9699	792.1018	894.2081	985.3055	1002.0807	1037.2384	1056.2864	1077.9274	1146.3718	1171.3438	1195.0284	1268.1705	1279.9944	1324.3056	1393.889	1397.6962	1408.6203	1462.7148	1470.1424	1483.0459	1488.1673	1496.3286	1518.3756	1721.6289	1823.3985	2902.2509	2921.4597	2950.825	3040.2495	3062.5255	3103.2724	3110.0421	3153.5305	3533.0459	3816.5754
CNC(C=O)C(C)=NO	CN[C@@H](C=O)C(=NO)C	
InChI=1S/C5H10N2O2/c1-4(7-9)5(3-8)6-2/h3,5-6,9H,1-2H3	InChI=1S/C5H10N2O2/c1-4(7-9)5(3-8)6-2/h3,5-6,9H,1-2H3/t5-/m0/s1
