16
gdb 19199	3.32189	2.08165	1.73018	1.8534	59.23	-0.24	0.0555	0.2955	793.6491	0.131778	-420.839468	-420.832757	-420.831813	-420.869905	26.934	
O	 0.0985893652	 1.4760841402	 0.0867414191	-0.453162
C	 0.0389765657	 0.0839540819	 0.0463350055	 0.175343
C	-1.3428161126	-0.6576040487	-0.1506323598	-0.138703
C	-1.8255030292	 0.0246108826	-1.4267595226	-0.10914
O	-0.5808322193	 0.0475160653	-2.1933747161	-0.301096
C	 0.3312329198	-0.6199412885	-1.2991667538	-0.007513
C	-0.51181085	-1.8160634567	-0.7720537881	 0.122572
O	 0.0828513649	-2.6197718983	 0.2179852525	-0.436682
H	-0.062348974	 1.7841358482	-0.8145060898	 0.292708
H	 0.595020862	-0.3240621859	 0.8871080646	 0.109556
H	-2.0539496915	-0.8205175892	 0.656849458	 0.083881
H	-2.5863469458	-0.5386378015	-1.9764760105	 0.110065
H	-2.1816475876	 1.0473854877	-1.2636456503	 0.108154
H	 1.3131308861	-0.7008761387	-1.7651492837	 0.078943
H	-1.009658919	-2.4070224611	-1.5515571902	 0.075873
H	 0.7500842154	-3.1708344074	-0.2037100948	 0.289201
214.3491	261.0752	296.0009	310.6177	326.499	406.8587	486.1011	516.6258	637.2693	719.0392	814.9477	830.2229	882.5749	903.1787	935.2925	960.3162	988.9777	1020.5554	1057.3999	1099.5245	1136.3382	1142.4044	1176.8861	1194.9565	1216.5899	1249.8599	1259.4474	1271.2695	1302.1617	1325.9161	1364.4104	1420.7873	1439.5141	1526.708	3021.8245	3038.2997	3081.1644	3127.0011	3143.6048	3155.8801	3767.4302	3813.7766
OC1C2COC1C2O	O[C@H]1[C@H]2CO[C@@H]1[C@H]2O	
InChI=1S/C5H8O3/c6-3-2-1-8-5(3)4(2)7/h2-7H,1H2	InChI=1S/C5H8O3/c6-3-2-1-8-5(3)4(2)7/h2-7H,1H2/t2-,3-,4-,5+/m0/s1
