17
gdb 37606	2.36175	1.9857	1.1601	2.5502	81.	-0.2276	-0.0272	0.2004	1032.9106	0.136838	-384.690011	-384.682567	-384.681623	-384.722327	28.856	
C	 0.0621966393	 1.5248034572	 0.2102687662	-0.269736
C	 1.4399453042	 2.2350432297	 0.1533480895	-0.295704
C	 2.6663265259	 1.4058375431	 0.5858603897	 0.373565
O	 3.7910253337	 1.832650672	 0.4864260487	-0.316244
C	 3.09303892	-1.2468291667	 0.750143419	-0.111753
C	 2.3142598333	 0.0229252402	 1.0968955423	-0.244146
C	 1.2176456585	-0.5995339912	 0.2286905077	 0.363028
C	 0.1636787321	 0.0712819499	-0.222340873	-0.250641
C	 2.064292568	-1.7888939604	 0.0616412394	-0.187328
H	-0.3516472036	 1.5900631213	 1.2260725446	 0.116271
H	-0.6417139267	 2.0664142383	-0.4287620188	 0.110043
H	 1.6533330004	 2.5436578269	-0.8767032441	 0.139197
H	 1.4350792895	 3.1579785292	 0.7451479931	 0.126726
H	 4.0969516325	-1.5731046087	 0.9852097031	 0.122954
H	 2.0355316378	 0.1063227196	 2.1573355157	 0.114632
H	-0.5713493768	-0.3507600475	-0.9001007518	 0.096063
H	 1.9262339118	-2.7254261829	-0.4640770614	 0.113075
50.4012	166.9507	215.9176	311.4878	341.8053	457.5611	484.4394	515.6612	580.3248	638.4316	723.5206	771.3596	796.676	848.1236	904.322	908.1802	927.552	959.9194	978.1445	1020.9597	1041.4464	1079.1432	1103.1402	1142.7263	1152.7279	1198.9357	1230.586	1285.5062	1312.405	1314.7399	1329.2559	1354.2971	1441.9373	1490.2395	1570.119	1762.1636	1814.9881	3008.741	3010.2184	3039.5491	3073.0167	3082.6487	3178.9508	3205.585	3240.2029
C1CC23OC4C2C(=C1)C34	C1CC(=O)[C@@H]2C=CC2=C1	
InChI=1S/C8H8O/c1-2-4-5-7-6(4)8(5,3-1)9-7/h2,5-7H,1,3H2	InChI=1S/C8H8O/c9-8-3-1-2-6-4-5-7(6)8/h2,4-5,7H,1,3H2/t7-/m1/s1
