23
gdb 91918	2.38559	1.45085	1.01586	1.7671	85.11	-0.2562	0.0803	0.3366	1267.0486	0.206774	-388.30402	-388.2951	-388.294156	-388.337204	35.114	
C	 0.0568897551	 1.5841254847	-0.0182634107	-0.404764
C	 0.0110453704	 0.0535995397	 0.0140925374	 0.023766
C	 0.6197407332	-0.5449173829	-1.2692085576	-0.222009
C	 0.9080800742	-2.0323908797	-1.1750195202	 0.021369
O	 2.1060666675	-2.4049262877	-0.4743000849	-0.261731
C	 0.8450438923	-2.7500349374	 0.1090242248	 0.070572
C	 0.4878996567	-2.0356305126	 1.3979431084	-0.015369
C	 1.2728269054	-2.6228871092	 2.5787956373	-0.405088
C	 0.6986791317	-0.5181750573	 1.2623144579	-0.195406
H	 1.0928313329	 1.9431530792	-0.0244187586	 0.115526
H	-0.4361351041	 1.9796211271	-0.9130847634	 0.10942
H	-0.440374855	 2.0157413976	 0.8567563632	 0.10979
H	-1.0448220234	-0.2537106552	 0.0538084239	 0.067217
H	-0.0518407517	-0.3621137602	-2.1161708513	 0.095781
H	 1.5624320871	-0.0338779909	-1.5062269504	 0.110437
H	 0.7531600516	-2.6070755768	-2.0889687935	 0.086496
H	 0.6299316476	-3.8209150118	 0.0941340903	 0.079168
H	-0.5839962652	-2.2182454728	 1.5692921748	 0.071495
H	 2.3494918073	-2.5061572929	 2.4186931475	 0.130884
H	 1.0105957266	-2.1175062426	 3.513914483	 0.110169
H	 1.0657009912	-3.6909952603	 2.7048269145	 0.109316
H	 1.7741883343	-0.3048586829	 1.2187883704	 0.106011
H	 0.3130792243	-0.0222173751	 2.1610477669	 0.08695
96.2374	150.8259	206.0742	235.2467	244.0627	265.5663	353.5097	368.7423	416.039	439.9286	448.981	594.2047	648.7144	779.8578	807.6962	855.5952	860.868	891.2058	941.9734	951.6041	971.6622	997.7167	1032.7768	1058.9269	1065.7651	1098.6757	1120.2393	1163.1303	1176.7389	1188.3935	1213.2717	1285.4765	1290.863	1300.5376	1328.5645	1343.6437	1372.8419	1375.4269	1390.0699	1396.4854	1408.7712	1414.03	1464.3304	1479.0506	1488.0964	1495.3554	1497.5872	1500.6531	1503.9697	2986.0659	2991.7801	3019.6067	3022.6739	3027.4298	3031.9238	3061.3238	3066.4486	3079.9692	3091.2869	3096.5939	3098.415	3101.8724	3107.7605
CC1CC2OC2C(C)C1	C[C@H]1C[C@H]2O[C@H]2[C@@H](C)C1	
InChI=1S/C8H14O/c1-5-3-6(2)8-7(4-5)9-8/h5-8H,3-4H2,1-2H3	InChI=1S/C8H14O/c1-5-3-6(2)8-7(4-5)9-8/h5-8H,3-4H2,1-2H3/t5-,6+,7-,8+/m1/s1
