17
gdb 86599	2.49376	1.43529	1.22953	2.0287	68.95	-0.2542	-0.0328	0.2214	1085.6765	0.133907	-458.936736	-458.928218	-458.927273	-458.970288	30.921	
C	 0.7168520696	 1.2960295275	-0.379395213	-0.41296
C	 0.1161461083	-0.0406052305	 0.0169604515	 0.030193
O	 0.6474094112	-1.1667188542	-0.7396062718	-0.307264
C	 1.2122521259	-1.8250851868	 0.4098409491	-0.03558
C	 2.7156633442	-1.9496946446	 0.3692757866	 0.054191
C	 3.454383602	-1.8161015639	-0.8916296094	-0.167768
O	 3.4385882408	-0.7559538401	 0.0710582354	-0.230385
C	 0.6469860499	-0.6946924817	 1.3001703959	 0.343728
O	 0.6325940204	-0.4464177853	 2.464727699	-0.278187
H	 1.8066887869	 1.2502117944	-0.3207394326	 0.154282
H	 0.4256272064	 1.5498966502	-1.4028184279	 0.130713
H	 0.349257094	 2.0796337265	 0.2904071402	 0.132968
H	-0.9810377093	-0.0216341873	-0.0323659726	 0.108367
H	 0.7592064047	-2.8095494366	 0.5946421721	 0.108519
H	 3.1383515901	-2.5493975217	 1.175845872	 0.110934
H	 4.4103206252	-2.323018465	-1.0097932315	 0.120819
H	 2.8955627997	-1.6161200209	-1.801817793	 0.137431
84.0934	96.8437	154.3002	202.7529	222.735	236.8724	340.4516	403.8128	524.4154	555.7036	630.88	718.205	792.8028	847.7183	873.6518	892.6495	938.4892	973.538	1037.8547	1061.4409	1066.9636	1098.2499	1112.0505	1130.3158	1162.5429	1171.1463	1221.4684	1278.0744	1284.1847	1312.6632	1364.4544	1398.2098	1415.1447	1481.6466	1504.5017	1513.9964	1926.2626	3012.2462	3021.7687	3044.3638	3098.7036	3114.7081	3117.5335	3138.4898	3199.3955
CC1OC(C2CO2)C1=O	C[C@H]1O[C@@H]([C@H]2CO2)C1=O	
InChI=1S/C6H8O3/c1-3-5(7)6(9-3)4-2-8-4/h3-4,6H,2H2,1H3	InChI=1S/C6H8O3/c1-3-5(7)6(9-3)4-2-8-4/h3-4,6H,2H2,1H3/t3-,4-,6+/m1/s1
