23
gdb 122446	4.41156	0.63689	0.60977	1.6884	84.61	-0.248	0.076	0.3241	1938.7073	0.202402	-425.406393	-425.395412	-425.394468	-425.443154	39.692	
C	 0.357466464	 1.48437936	 0.0488038051	-0.38428
C	-0.026088001	 0.0206791279	-0.0896645815	-0.02303
O	 0.6811075087	-0.5293381666	-1.180526683	-0.241354
C	 0.3991832196	-1.8980802923	-1.3929953774	-0.085392
C	 1.1572665292	-2.3560066565	-2.6092169151	-0.04071
C	 2.6144257217	-2.774270351	-2.5193379467	-0.342064
C	 1.5449545186	-3.7865862278	-2.8560492651	 0.387065
C	 1.2095006137	-4.9108619928	-1.9010452097	-0.449454
O	 1.4175027432	-4.1507442408	-4.2104082537	-0.465788
H	 1.4323412024	 1.5838449168	 0.224700342	 0.125818
H	 0.1087154625	 2.0335610285	-0.8637726726	 0.126584
H	-0.1764947406	 1.9422163555	 0.8869501256	 0.112317
H	 0.2123050924	-0.5302870505	 0.8371030854	 0.080718
H	-1.113754316	-0.0812019177	-0.2487676458	 0.083015
H	 0.6832009923	-2.4846040602	-0.5032865862	 0.078009
H	-0.6858218908	-2.0426973729	-1.5381605818	 0.087113
H	 0.890947067	-1.8204390649	-3.5151663209	 0.103384
H	 3.2763387155	-2.4582113699	-3.3175530541	 0.111294
H	 3.0683708052	-2.8121734292	-1.5337321491	 0.10692
H	 1.2982475004	-4.6048367434	-0.8557173521	 0.118972
H	 0.1913599358	-5.2743738254	-2.0739532298	 0.125929
H	 1.8960409583	-5.7532985708	-2.0533622009	 0.107082
H	 2.1000470078	-4.804072936	-4.4018937623	 0.277852
42.9377	73.8054	91.8424	131.8746	199.2056	216.209	246.9748	249.2604	297.7013	312.3358	376.5005	409.04	429.0691	498.5965	528.8368	705.8189	821.5361	850.3723	881.5452	914.6922	916.4385	930.2601	993.614	1022.4809	1044.232	1068.362	1091.0536	1125.2544	1140.8057	1158.8445	1181.8663	1196.9596	1240.0701	1278.235	1293.5774	1295.3908	1345.6108	1382.7293	1401.7696	1413.7115	1421.0342	1458.407	1480.3534	1483.414	1488.5585	1499.507	1512.1804	1513.1231	1535.8803	2940.5246	2953.3205	2968.0282	2977.7726	3024.3384	3044.388	3085.9624	3118.4767	3119.5167	3120.9524	3127.6339	3163.6033	3219.6482	3788.2624
CCOCC1CC1(C)O	CCOC[C@H]1C[C@]1(C)O	
InChI=1S/C7H14O2/c1-3-9-5-6-4-7(6,2)8/h6,8H,3-5H2,1-2H3	InChI=1S/C7H14O2/c1-3-9-5-6-4-7(6,2)8/h6,8H,3-5H2,1-2H3/t6-,7+/m1/s1
