15
gdb 113637	3.69538	0.9594	0.80211	3.8276	69.52	-0.2835	-0.0748	0.2087	1354.2291	0.11125	-453.935922	-453.926827	-453.925882	-453.970892	31.225	
O	 0.0787722643	 1.3330763675	 0.2710614217	-0.409526
C	-0.0546471949	 0.0611025739	-0.3255821532	-0.07245
C	-1.3391076391	-0.6134019504	 0.0947790471	-0.031181
C	-1.5010342314	-2.1082989181	 0.1347785627	-0.261513
N	-1.3067577854	-1.3405254086	 1.3514505615	-0.092805
C	-2.1828077342	-1.1635935027	 2.3949024556	 0.30058
O	-2.5162080501	-0.0958258975	 2.850212684	-0.310392
C	-2.6284452723	-2.4359928362	 2.9944284	 0.238988
N	-3.0135876707	-3.4199998601	 3.4621151959	-0.313311
H	 0.0059181726	 1.2216699746	 1.2261232686	 0.296733
H	-0.0639209144	 0.2273889285	-1.407886638	 0.124648
H	 0.793291269	-0.6015752985	-0.092288611	 0.099394
H	-2.2395751125	-0.0260158011	-0.0762173544	 0.132271
H	-2.4896775455	-2.5187748589	-0.0519371499	 0.153036
H	-0.6711928454	-2.7498789224	-0.1474226703	 0.145528
54.4126	73.3929	111.4727	137.6369	193.8976	291.9307	315.3671	351.5431	400.2201	465.5247	527.4818	586.8037	724.8807	771.4793	825.9384	900.5483	970.0624	1030.7354	1078.5771	1089.4388	1132.6359	1139.6033	1145.5635	1203.5816	1236.5335	1346.7255	1380.5194	1417.8349	1459.5263	1495.4649	1513.2213	1779.4304	2348.5859	2987.6626	3079.406	3116.3545	3142.0219	3208.5109	3798.7638
OCC1CN1C(=O)C#N	OC[C@H]1CN1C(=O)C#N	
InChI=1S/C5H6N2O2/c6-1-5(9)7-2-4(7)3-8/h4,8H,2-3H2	InChI=1S/C5H6N2O2/c6-1-5(9)7-2-4(7)3-8/h4,8H,2-3H2/t4-,7?/m1/s1
