21
gdb 114843	3.16062	1.22708	1.16601	1.6037	77.12	-0.2355	0.0766	0.3121	1157.2628	0.185399	-424.230704	-424.222773	-424.221829	-424.263203	31.501	
O	-0.1613710146	 1.520694823	 0.2111589849	-0.42419
C	 0.0377088899	 0.1214091298	 0.0503928831	-0.115005
C	-1.338799435	-0.5161275467	-0.0622422445	 0.061353
C	-2.120660505	-0.1417655933	-1.3670188297	-0.224239
C	-2.5509567526	-1.5242394642	-1.8909302646	 0.109939
C	-2.8180184856	-2.3109217549	-0.5997620929	-0.235294
C	-1.3806339375	-2.0682481556	-0.0866943015	-0.076031
C	-0.6008248595	-2.595266223	-1.3030882804	-0.075696
O	-1.3886902476	-2.1782973705	-2.4327077986	-0.282429
H	 0.6981394132	 1.9512036939	 0.1916680145	 0.286038
H	 0.6345479398	-0.0853834299	-0.8508403223	 0.090815
H	 0.5805458706	-0.3022766788	 0.9120877216	 0.080206
H	-1.9051517444	-0.1761974356	 0.8122394122	 0.079938
H	-2.9775218524	 0.5057358553	-1.1603986178	 0.097564
H	-1.4864243109	 0.3656087859	-2.0982199609	 0.107825
H	-3.3242699775	-1.5239585035	-2.6598942182	 0.070089
H	-3.5864545623	-1.8648798526	 0.0367777558	 0.097223
H	-3.0511338227	-3.3629649876	-0.7826772338	 0.099882
H	-1.1050133257	-2.5450719112	 0.8556486399	 0.063283
H	 0.413712543	-2.1909536302	-1.391333783	 0.096568
H	-0.5258418432	-3.6916719103	-1.289302354	 0.092162
101.2921	116.4032	203.4904	266.2192	320.8169	365.9165	423.1673	471.1316	493.9629	575.9446	766.1143	789.269	814.5052	852.9008	881.1535	924.8212	946.0942	949.4471	968.4725	977.5951	1011.6349	1033.6279	1058.1174	1065.221	1087.811	1125.9299	1144.6761	1177.3817	1197.8106	1203.1619	1252.3795	1261.0037	1268.771	1275.7056	1303.61	1320.1649	1330.9416	1346.12	1377.7655	1386.5729	1459.465	1480.0748	1497.0442	1523.2776	1534.7486	2957.7352	2997.26	3002.305	3039.8584	3054.3157	3059.7332	3064.2025	3100.5733	3108.067	3115.1483	3119.8098	3830.038
OCC1CC2CC1CO2	OC[C@H]1C[C@@H]2C[C@H]1CO2	
InChI=1S/C7H12O2/c8-3-5-1-7-2-6(5)4-9-7/h5-8H,1-4H2	InChI=1S/C7H12O2/c8-3-5-1-7-2-6(5)4-9-7/h5-8H,1-4H2/t5-,6+,7-/m1/s1
