21
gdb 84577	2.77769	1.62888	1.18472	0.2367	87.69	-0.2327	0.0207	0.2534	1103.4558	0.185108	-349.981184	-349.973383	-349.972439	-350.013571	31.424	
C	-0.1181416552	 1.60697119	-0.0920459876	-0.403516
C	 0.0413607397	 0.08280021	-0.0261072023	-0.029843
C	 0.6362356798	-0.5441942628	-1.2709905635	-0.06503
C	 1.4702760226	-1.5444457111	-0.9965250286	-0.087633
C	 1.628754932	-1.7604557922	 0.4962502521	-0.094316
C	 3.0507326079	-1.6961779087	 1.006313281	-0.077259
C	 3.3086317014	-0.5406286822	 1.613120024	-0.061898
C	 2.1215939762	 0.391703977	 1.6117072289	-0.26838
C	 0.9408020011	-0.4931119248	 1.1107689632	-0.029887
H	 0.8249596604	 2.1107471539	-0.3233097768	 0.11941
H	-0.8337384387	 1.8798862445	-0.8751839876	 0.110054
H	-0.494270456	 2.0097832633	 0.854276235	 0.111963
H	-0.9704304646	-0.3301908405	 0.1106740694	 0.078928
H	 0.361725471	-0.2143553198	-2.2685397057	 0.085006
H	 1.9833230255	-2.1565125978	-1.7309101518	 0.087906
H	 1.1387417926	-2.6981541625	 0.7966387169	 0.073763
H	 3.7630248245	-2.4999795993	 0.8533704541	 0.087018
H	 4.2669897524	-0.2552235327	 2.0344143953	 0.088391
H	 1.9210729885	 0.8206865847	 2.6004525447	 0.099834
H	 2.3187979058	 1.2443193353	 0.9497608983	 0.107436
H	 0.3279009332	-0.7686392641	 1.9728209811	 0.068053
55.2512	192.2442	223.8576	266.6126	287.5549	388.2865	459.0999	503.5686	604.1569	673.609	727.1149	746.5284	760.4067	805.8882	838.9113	870.1934	908.8061	957.8952	967.4787	972.9422	983.0921	991.2084	1028.5856	1045.6694	1072.6114	1108.6917	1128.7149	1137.3284	1164.2416	1184.0671	1221.7453	1282.511	1287.1938	1303.692	1315.3982	1335.1101	1349.8959	1374.4619	1380.0895	1410.9648	1481.6493	1498.1815	1505.3364	1677.3394	1694.2452	2969.6037	2990.07	3025.3219	3033.2691	3047.7255	3071.7143	3095.2481	3107.5717	3167.8122	3174.9042	3196.0341	3201.3488
CC1C=CC2C=CCC12	C[C@H]1C=C[C@H]2C=CC[C@@H]12	
InChI=1S/C9H12/c1-7-5-6-8-3-2-4-9(7)8/h2-3,5-9H,4H2,1H3	InChI=1S/C9H12/c1-7-5-6-8-3-2-4-9(7)8/h2-3,5-9H,4H2,1H3/t7-,8+,9-/m0/s1
