14
gdb 113641	2.51214	1.16961	0.97374	2.8521	64.32	-0.2918	-0.1045	0.1874	1203.3446	0.098485	-473.800878	-473.791909	-473.790965	-473.835717	30.693	
O	-0.8102164162	 0.4279828521	-1.9433553396	-0.407233
C	-0.1164017818	-0.2315667608	-0.9023730172	-0.112919
C	-0.9390899723	-0.2205573521	 0.3647487097	 0.039524
O	-1.9857498781	-1.1854006219	 0.4825654726	-0.232911
C	-0.9219792209	-1.2640943941	 1.4225831341	-0.064379
C	-0.0405375979	-2.4732669453	 1.3850632925	 0.280253
O	 0.7392897553	-2.7379085736	 2.2647508529	-0.259884
C	-0.1983060543	-3.3754656135	 0.2246903856	 0.248314
N	-0.2882553012	-4.1150934065	-0.6594445002	-0.312604
H	-1.5759705748	-0.1111896094	-2.1706490969	 0.2999
H	 0.1622818466	-1.2548162539	-1.1817258102	 0.124359
H	 0.804263509	 0.3377283308	-0.7348669364	 0.130686
H	-1.2291350923	 0.7777565428	 0.6962246512	 0.127322
H	-1.1476460813	-0.9544076544	 2.4421513919	 0.139573
52.7933	71.7265	117.7848	152.7285	210.4172	290.1336	306.0699	370.3648	439.5212	442.7692	520.6111	664.6143	669.1798	769.919	830.7629	890.3493	962.4699	1030.5771	1076.0728	1098.36	1125.6782	1213.9827	1235.7417	1282.0313	1352.6281	1382.0332	1416.3881	1464.5878	1486.8371	1788.5403	2339.9079	3035.7627	3085.3545	3111.7592	3134.4828	3807.0207
OCC1OC1C(=O)C#N	OC[C@H]1O[C@H]1C(=O)C#N	
InChI=1S/C5H5NO3/c6-1-3(8)5-4(2-7)9-5/h4-5,7H,2H2	InChI=1S/C5H5NO3/c6-1-3(8)5-4(2-7)9-5/h4-5,7H,2H2/t4-,5+/m1/s1
