19
gdb 37380	2.80864	2.03836	1.8264	1.9293	75.79	-0.2542	0.0831	0.3373	858.7379	0.164062	-385.886952	-385.880969	-385.880025	-385.91682	26.566	
C	-0.0111133022	 1.5645775116	 0.0106265253	-0.220992
C	 1.4677457331	 1.9321593733	 0.0003526293	-0.05728
C	 2.234155578	 0.7635154562	 0.573469035	-0.055566
C	 1.2163498495	-0.3230667737	 0.9090349536	-0.224875
C	 0.0290561333	 0.0219015435	-0.0329278943	-0.090945
C	 0.4489857467	-0.4409618161	-1.428884403	 0.046827
O	 0.4595174593	 0.5223217466	-2.4858410615	-0.262096
C	 1.7136375879	 0.1476966383	-1.8800756383	 0.04354
C	 2.3487059636	 1.1005204196	-0.9118064587	-0.068527
H	-0.4706518167	 1.9041902189	 0.9462063108	 0.089732
H	-0.5703224807	 1.98491517	-0.8262848325	 0.119929
H	 1.7640782954	 2.9558853326	 0.1983779754	 0.081495
H	 3.1012723129	 0.8991639406	 1.2091076687	 0.080611
H	 1.5925886166	-1.3398828498	 0.7472797749	 0.095226
H	 0.9161120607	-0.2427968171	 1.9598874893	 0.098684
H	-0.9112999339	-0.4393219827	 0.2766669753	 0.066762
H	 0.1635196996	-1.4470784293	-1.7325917021	 0.087422
H	 2.376583933	-0.4032087966	-2.5447508625	 0.089115
H	 3.2778885639	 1.5625954842	-1.2280170047	 0.080937
279.2793	309.3919	364.009	466.311	478.0699	572.2882	642.6732	680.4852	773.7754	780.7692	805.6054	823.6264	863.0522	877.1901	903.7419	922.7249	959.1881	966.3172	998.758	1033.4704	1044.3328	1057.5862	1070.5773	1077.2742	1100.7563	1130.5783	1151.04	1182.2021	1201.6275	1225.5688	1277.3432	1305.6549	1310.6696	1327.2465	1348.5587	1359.0776	1376.927	1419.5573	1457.0523	1481.6961	1500.9584	3032.5651	3039.6506	3071.689	3083.268	3115.5985	3121.3869	3127.661	3160.9052	3171.1677	3183.8616
C1C2C3CC1C1OC1C23	C1[C@H]2[C@H]3C[C@@H]1[C@H]1O[C@H]1[C@@H]23	
InChI=1S/C8H10O/c1-3-2-5-4(1)6(5)8-7(3)9-8/h3-8H,1-2H2	InChI=1S/C8H10O/c1-3-2-5-4(1)6(5)8-7(3)9-8/h3-8H,1-2H2/t3-,4+,5-,6+,7-,8+/m1/s1
