19
gdb 80080	2.20968	1.71088	1.34497	3.1234	80.87	-0.2278	-0.0125	0.2153	1049.3881	0.160264	-385.91619	-385.908123	-385.907178	-385.948796	31.443	
C	-0.142950457	 1.4859413314	 0.0078154579	-0.420233
C	 0.0377407852	-0.0147290991	 0.0281615115	-0.018275
C	 1.3424736195	-0.7183446953	-0.2839783478	-0.111699
C	 2.5904952835	 0.05912618	-0.4651548651	-0.056105
C	 3.1542119212	 0.7846493059	 0.5014498859	-0.07372
C	 2.6024920381	 0.8764899777	 1.8983792604	-0.382947
C	 1.5123307636	-0.1392443305	 2.2423386787	 0.407118
O	 1.2979800574	-0.4422814789	 3.3969971393	-0.336136
C	 0.7634656843	-0.7863304919	 1.1280677578	-0.161317
H	 0.7948699137	 2.0212815343	 0.165708405	 0.131549
H	-0.5369621613	 1.8012218724	-0.9642403194	 0.122481
H	-0.8568705844	 1.8047233465	 0.7745280028	 0.127584
H	-0.8402734579	-0.5544893557	-0.3174757038	 0.101571
H	 1.2644142917	-1.6224232076	-0.8801992371	 0.09636
H	 3.0388631767	 0.0363719253	-1.454765762	 0.093791
H	 4.0544244623	 1.3575217467	 0.2949736694	 0.09617
H	 3.3896457963	 0.7681177226	 2.6525593692	 0.137892
H	 2.1795889833	 1.8782561253	 2.0746467003	 0.138838
H	 0.2846162538	-1.7059752093	 1.4452728571	 0.107078
76.5714	138.2125	197.0971	212.4127	328.7247	397.6802	436.1468	478.5026	510.9211	545.7797	622.8245	701.183	733.6851	744.129	823.4619	882.8999	925.039	945.5502	958.6772	979.082	997.7475	1033.864	1051.7449	1085.9186	1124.9141	1145.7446	1192.1583	1197.1021	1220.501	1265.0832	1333.4146	1361.8608	1370.4635	1413.0324	1424.1696	1425.4627	1438.8674	1494.8214	1504.595	1719.3091	1787.748	2993.8033	3039.722	3066.7551	3095.5253	3127.9152	3142.3129	3148.3901	3154.7793	3174.0352	3177.6401
CC1C2C=CCC(=O)C12	C[C@H]1[C@H]2C=CCC(=O)[C@@H]12	
InChI=1S/C8H10O/c1-5-6-3-2-4-7(9)8(5)6/h2-3,5-6,8H,4H2,1H3	InChI=1S/C8H10O/c1-5-6-3-2-4-7(9)8(5)6/h2-3,5-6,8H,4H2,1H3/t5-,6+,8-/m0/s1
