25
gdb 78023	2.23277	1.40162	1.2176	0.1241	92.47	-0.2482	0.0795	0.3276	1243.809	0.229559	-352.371145	-352.361371	-352.360427	-352.404939	38.167	
C	-0.3495471823	 1.5351895502	 0.04385411	-0.427092
C	-0.0117007409	 0.0568652948	 0.0731898381	-0.042346
C	 1.2900202601	-0.6170377339	-0.3282451652	-0.105004
C	 2.6089767137	 0.1443381643	-0.4193595833	 0.038869
C	 2.7821792864	 1.0185882572	-1.6655486634	-0.40059
C	 2.7230008688	 0.9202781714	 0.9191256137	-0.241606
C	 1.8154984758	 0.1783707302	 1.9303889458	-0.272392
C	 0.8234365182	-0.6575594067	 1.1161418281	 0.32567
C	 0.2820301085	-1.907055182	 1.7736890552	-0.479443
H	 0.4445329823	 2.1748160244	 0.4296366659	 0.119874
H	-0.5723796024	 1.8651287587	-0.9773155543	 0.116184
H	-1.2432269717	 1.7283537889	 0.6488729767	 0.112406
H	-0.8692195851	-0.5421232677	-0.2320592929	 0.075311
H	 1.1978957934	-1.4999703336	-0.9557088209	 0.068109
H	 3.3999733449	-0.6189408268	-0.4369643941	 0.067984
H	 2.0174275387	 1.8006806704	-1.7112261389	 0.115762
H	 3.7626062236	 1.5080378589	-1.6712485954	 0.107493
H	 2.7041763441	 0.4230448403	-2.5814502451	 0.108746
H	 3.7598215369	 0.9726733582	 1.2652073595	 0.092968
H	 2.3993049855	 1.9560753109	 0.7828159584	 0.101624
H	 2.4131815021	-0.5057976602	 2.5448152523	 0.094007
H	 1.3221537421	 0.8674030712	 2.6263690008	 0.092017
H	-0.3239734766	-1.6652781413	 2.6558286231	 0.112509
H	-0.3522295334	-2.4769132927	 1.0869337637	 0.110106
H	 1.0933593373	-2.5670559252	 2.1049421725	 0.108836
113.3796	146.6517	179.5749	195.9535	218.158	227.033	247.7007	286.1403	350.1442	386.2561	461.7261	526.6765	570.5675	637.1241	700.6812	735.5883	816.1119	845.7753	894.1639	927.314	958.6602	964.0037	987.5701	1007.7201	1023.1468	1057.6496	1083.0101	1094.9727	1124.3871	1135.8132	1142.2463	1179.9152	1204.9561	1242.9697	1256.1145	1293.4311	1322.6007	1332.5379	1343.2157	1357.3116	1382.3418	1411.8392	1414.4811	1418.3237	1460.7877	1483.7025	1489.4103	1494.2958	1496.9825	1499.612	1502.4572	1508.1547	1519.8637	2993.6463	3013.5564	3024.1731	3028.0764	3029.9142	3052.2609	3056.6108	3069.5233	3077.9775	3089.5749	3091.5437	3091.7251	3100.9795	3103.704	3135.0333	3145.1856
CC1C2C(C)CCC12C	C[C@H]1[C@H]2[C@@H](C)CC[C@@]12C	
InChI=1S/C9H16/c1-6-4-5-9(3)7(2)8(6)9/h6-8H,4-5H2,1-3H3	InChI=1S/C9H16/c1-6-4-5-9(3)7(2)8(6)9/h6-8H,4-5H2,1-3H3/t6-,7-,8+,9-/m0/s1
