19
gdb 79463	2.54138	1.92269	1.5243	1.8939	74.09	-0.2385	0.0803	0.3188	948.9507	0.160407	-422.9933	-422.985983	-422.985039	-423.024534	30.335	
C	-0.024699724	 1.5244657211	 0.0109445538	-0.506109
C	 0.1342072792	 0.0329704567	 0.0369920093	 0.350197
O	-1.1240861582	-0.6518437985	-0.2026841713	-0.321234
C	-0.7523870401	-1.9312238884	 0.3494474918	 0.073213
C	-0.5091045142	-1.5874277953	 1.8334802805	-0.245129
C	 0.6912980424	-0.8270289294	 1.2476324848	-0.106208
C	 0.8115008769	-1.9043515382	 0.1026707421	-0.136382
C	 1.0570677569	-0.7776655478	-0.9144309518	 0.15287
O	 0.6817145118	-0.8979871177	-2.2533439914	-0.452881
H	 0.9361556969	 2.0140184559	 0.194293679	 0.121109
H	-0.391829889	 1.8483543947	-0.9682839475	 0.133751
H	-0.7373261215	 1.8564147476	 0.7719104156	 0.127347
H	-1.4216579425	-2.7163533985	 0.0019415856	 0.081883
H	-1.3024757009	-1.0427955705	 2.3520346572	 0.101874
H	-0.181848107	-2.4509596261	 2.4183821264	 0.103627
H	 1.5296919314	-0.4389167683	 1.8223392406	 0.075596
H	 1.383281794	-2.8267576702	 0.1770928693	 0.074924
H	 2.0957790859	-0.4369385508	-0.8745407065	 0.086363
H	-0.282469868	-0.9699835363	-2.2404581975	 0.285189
187.6874	200.5366	223.4873	285.4893	311.1242	478.2334	505.6547	526.3119	604.408	631.3333	727.8443	755.1741	802.1845	826.6457	831.679	859.9926	893.8334	923.6521	958.8993	969.6232	1001.5667	1036.642	1070.1777	1085.2838	1114.0002	1133.0997	1149.4089	1168.4408	1178.5703	1200.5766	1243.1394	1260.229	1274.5055	1303.9785	1323.8982	1342.7656	1414.7204	1445.7486	1481.7744	1485.1361	1489.7201	3039.4458	3057.811	3081.0372	3110.0867	3116.4507	3119.6864	3134.8425	3138.373	3148.7335	3757.0016
CC12OC3CC1C3C2O	C[C@]12O[C@@H]3C[C@H]1[C@@H]3[C@H]2O	
InChI=1S/C7H10O2/c1-7-3-2-4(9-7)5(3)6(7)8/h3-6,8H,2H2,1H3	InChI=1S/C7H10O2/c1-7-3-2-4(9-7)5(3)6(7)8/h3-6,8H,2H2,1H3/t3-,4+,5-,6+,7-/m0/s1
