19
gdb 116928	4.91988	0.55638	0.52501	2.5867	83.12	-0.2401	0.0396	0.2797	2076.239	0.15679	-422.974131	-422.963653	-422.962708	-423.011673	36.409	
O	-0.1633786229	 1.3899703817	 0.0689333211	-0.414422
C	-0.0492549478	-0.0204232164	 0.1403540073	-0.062869
C	-1.4275530984	-0.5950852713	-0.2080040138	-0.328064
C	-1.4516390399	-2.0522630137	-0.1730370671	 0.059415
C	-1.4067314186	-3.2584765154	-0.1315764749	 0.053187
C	-1.4564521729	-4.6895748365	-0.1001381838	-0.230982
C	-1.7218165856	-5.4196407839	 1.2195311588	-0.311542
C	-2.809212874	-5.3308419234	 0.1917480361	 0.146569
O	-3.9172519215	-4.5234929572	 0.4145073108	-0.42743
H	 0.6921295801	 1.7741854819	 0.2805592357	 0.290133
H	 0.6971500246	-0.406684144	-0.5696130018	 0.099213
H	 0.242882754	-0.3573254449	 1.1460162136	 0.099692
H	-2.1598212179	-0.1841953161	 0.4976632477	 0.139229
H	-1.7149140469	-0.2266286124	-1.2004527892	 0.138587
H	-0.8216392292	-5.1993225188	-0.8185129755	 0.112706
H	-1.2153907546	-6.3660999568	 1.3741938571	 0.1167
H	-1.8357091048	-4.8009348483	 2.1017675599	 0.129116
H	-3.0526323808	-6.2277792059	-0.3723031905	 0.10235
H	-3.6795268427	-3.6205530585	 0.1630995984	 0.288411
19.7399	67.2263	77.803	118.1281	147.7184	198.6577	235.8721	309.3954	341.1818	362.649	409.2469	478.4701	544.3946	617.8708	734.3446	782.0333	794.8538	837.5889	925.6578	992.3768	1004.8377	1046.195	1056.7739	1081.4388	1088.8343	1115.2898	1150.176	1187.5678	1222.701	1230.7754	1238.5717	1305.0621	1330.9891	1364.7064	1374.4951	1413.0943	1455.1394	1472.6442	1478.2155	1527.7231	2349.9686	2984.7622	3015.7056	3030.2906	3067.6889	3135.5356	3139.3792	3151.9343	3236.4746	3735.8015	3834.7757
OCCC#CC1CC1O	OCCC#C[C@H]1C[C@H]1O	
InChI=1S/C7H10O2/c8-4-2-1-3-6-5-7(6)9/h6-9H,2,4-5H2	InChI=1S/C7H10O2/c8-4-2-1-3-6-5-7(6)9/h6-9H,2,4-5H2/t6-,7+/m0/s1
