16
gdb 62434	3.91319	1.24402	1.19957	3.0639	74.26	-0.2629	-0.0311	0.2318	1056.5057	0.125244	-396.923036	-396.91529	-396.914346	-396.955109	29.218	
C	-0.077593054	 1.5401991126	 0.0638474011	-0.477569
C	 0.0053432148	 0.0282668874	-0.0430865966	 0.137563
C	-1.1506912919	-0.6465685277	 0.514720328	 0.267623
N	-2.0965613624	-1.1579991226	 0.9388013171	-0.332261
C	 0.7154947016	-0.6785867753	-1.1584239289	-0.074734
C	 1.7294780362	 0.09682491	-1.9999736516	-0.205089
N	 2.7750654704	 0.5206271502	-1.0500916404	-0.187239
C	 2.4491378164	 0.0686903621	 0.0917913167	 0.031696
N	 1.27750638	-0.7457947293	 0.2079781071	-0.150658
H	 0.8157665832	 2.0256935207	-0.3295632761	 0.154995
H	-0.9448044671	 1.8953211536	-0.5005234583	 0.149432
H	-0.2085065829	 1.8414258981	 1.106831081	 0.150239
H	 0.2843670663	-1.5956998691	-1.5450505596	 0.126214
H	 2.1699136549	-0.5465226752	-2.7689541134	 0.137326
H	 1.3179919092	 0.9737545146	-2.5120455457	 0.130918
H	 3.0357931954	 0.2358128599	 0.9894654397	 0.141543
137.5382	158.5773	178.2368	241.3614	248.801	363.5905	404.7226	494.0704	553.0989	583.0794	656.2467	741.6135	804.4824	865.8649	873.6703	944.6499	959.4185	968.6616	997.7861	1024.8036	1070.01	1093.8595	1120.8902	1208.1488	1239.6408	1284.2751	1309.9792	1323.8865	1378.1878	1419.1955	1478.6427	1491.7737	1498.3391	1676.2482	2357.8609	3045.982	3053.9244	3079.1014	3118.9085	3152.2628	3173.5012	3200.8576
CC1(C#N)C2CN=CN12	C[C@@]1(C#N)[C@H]2CN=CN12	
InChI=1S/C6H7N3/c1-6(3-7)5-2-8-4-9(5)6/h4-5H,2H2,1H3	InChI=1S/C6H7N3/c1-6(3-7)5-2-8-4-9(5)6/h4-5H,2H2,1H3/t5-,6-,9?/m1/s1
