23
gdb 106496	2.47017	1.50805	1.15135	1.5115	84.51	-0.2379	0.0859	0.3238	1193.1696	0.206306	-388.287526	-388.278598	-388.277654	-388.320763	35.248	
C	-0.1166954905	 1.5705262475	 0.0157781974	-0.388925
C	 0.0383779796	 0.0473305435	-0.032685593	-0.293935
C	 0.806022261	-0.4623963743	-1.2272975271	 0.428491
C	 2.17555835	 0.0859853847	-1.7121803035	-0.283591
C	 1.5712670607	-0.4247825243	-3.0336105926	 0.08003
C	 1.5613005103	-1.9567210807	-2.8690635309	-0.244906
C	 0.9260311659	-2.0013988735	-1.4396886155	 0.002949
C	 1.7171882295	-2.7758158107	-0.3874734091	-0.421276
O	 0.2506217159	-0.0550111975	-2.5305482877	-0.337489
H	 0.8495282223	 2.0682620127	 0.1460984171	 0.113607
H	-0.562294192	 1.9387560369	-0.9117919571	 0.137819
H	-0.7578359543	 1.86909676	 0.85039731	 0.108601
H	 0.5342494102	-0.312697864	 0.8775829914	 0.102584
H	-0.9533385369	-0.4242203969	-0.0495921702	 0.106022
H	 2.2143046354	 1.1746762344	-1.6773815378	 0.107585
H	 3.1015115822	-0.3567986082	-1.336414457	 0.090297
H	 1.8122878395	 0.0039378508	-4.0064584115	 0.073478
H	 0.9410897209	-2.441802446	-3.6258896885	 0.103431
H	 2.564336098	-2.3939232033	-2.9072069011	 0.092793
H	-0.0902594367	-2.4052062232	-1.4935173179	 0.075585
H	 2.7379397897	-2.393202402	-0.2800608145	 0.113959
H	 1.2364258952	-2.7244847368	 0.5954988772	 0.115275
H	 1.792039914	-3.8339416089	-0.6593562982	 0.117616
85.0264	158.5574	177.1696	218.6367	224.9882	264.2291	330.6738	393.5346	431.0528	509.0025	554.7563	608.4689	684.1016	756.0101	815.1317	836.9031	847.6834	884.1364	907.0937	934.0055	944.93	977.1411	1001.1914	1030.9441	1056.1649	1085.8973	1096.3958	1109.1184	1151.9434	1179.0219	1186.6485	1209.2404	1234.6929	1275.8208	1278.5735	1306.8573	1310.0105	1350.839	1363.5173	1391.9649	1408.1043	1413.2847	1470.8196	1482.1011	1495.7349	1497.7411	1498.6993	1504.736	1510.034	3019.0587	3028.9243	3041.8279	3047.9138	3053.7481	3055.7475	3068.7672	3094.3751	3097.5073	3105.8688	3110.0022	3120.0311	3125.7211	3145.1677
CCC12CC(CC1C)O2	CC[C@@]12C[C@@H](C[C@H]1C)O2	
InChI=1S/C8H14O/c1-3-8-5-7(9-8)4-6(8)2/h6-7H,3-5H2,1-2H3	InChI=1S/C8H14O/c1-3-8-5-7(9-8)4-6(8)2/h6-7H,3-5H2,1-2H3/t6-,7-,8-/m1/s1
