18
gdb 9167	7.28988	0.77861	0.71647	2.2178	77.55	-0.2378	-0.0092	0.2286	1605.5306	0.149763	-347.807516	-347.797186	-347.796242	-347.845709	33.931	
C	-0.0232536152	 1.5093043748	 0.2785706307	-0.379391
C	-0.0678153957	 0.0268335756	-0.0826885579	-0.276191
C	 0.7960753255	-0.3293282879	-1.2872684801	 0.384546
O	 1.3674800338	 0.5034587669	-1.9441951912	-0.275884
C	 0.8846887031	-1.8367397428	-1.5951548462	-0.485634
C	 1.5881358364	-2.1700660562	-2.8213392758	 0.059264
C	 2.1702646864	-2.4390257689	-3.8389385824	 0.119279
C	 2.8767575477	-2.754993479	-5.0714194769	-0.498248
H	 0.9930647225	 1.818007585	 0.5369764104	 0.130574
H	-0.3434764586	 2.1238139343	-0.5660857962	 0.135612
H	-0.6757468139	 1.7194187607	 1.1305538736	 0.110111
H	 0.2426457107	-0.6015357517	 0.763204967	 0.118088
H	-1.0952041306	-0.2918026042	-0.309998587	 0.124071
H	 1.3666907981	-2.310628159	-0.7269859311	 0.147148
H	-0.1375260514	-2.2406673954	-1.6029424526	 0.141675
H	 3.7341793229	-3.4107619669	-4.8836610426	 0.145832
H	 2.222178798	-3.2625308658	-5.7886356316	 0.145526
H	 3.2538157702	-1.8457470294	-5.55226786	 0.153621
20.9452	22.6528	51.1993	75.5273	191.9392	200.3148	218.4419	284.0209	349.4025	370.5225	422.2765	460.7275	646.5489	734.6659	774.523	825.4731	896.1747	991.4234	1029.0328	1052.3416	1053.3739	1086.1699	1122.8463	1176.5117	1217.01	1289.8882	1331.0747	1370.026	1414.0431	1414.593	1437.7473	1455.274	1478.2615	1478.6245	1492.5064	1498.2582	1825.7986	2383.1306	3001.4259	3015.8745	3026.6066	3028.1387	3044.5054	3051.6498	3086.2238	3089.0798	3121.8785	3129.7487
CCC(=O)CC#CC	CCC(=O)CC#CC	
InChI=1S/C7H10O/c1-3-5-6-7(8)4-2/h4,6H2,1-2H3	InChI=1S/C7H10O/c1-3-5-6-7(8)4-2/h4,6H2,1-2H3
