23
gdb 101730	3.20987	0.81357	0.71079	1.1106	83.53	-0.2498	0.0855	0.3352	1698.6086	0.202457	-425.405713	-425.394714	-425.393769	-425.442854	38.983	
C	 0.0809323316	 1.5609138942	-0.2971564659	-0.236912
O	-0.0180808403	 0.1714555433	-0.0895120764	-0.249094
C	 0.6219723313	-0.6286802304	-1.0794735756	 0.148676
C	 2.1360341199	-0.6897902397	-0.8657880103	-0.404844
C	-0.0253572788	-2.0161566028	-0.9992286773	-0.242848
C	-1.4949978275	-1.9738513519	-1.3387807206	 0.06379
O	-1.8378013246	-1.864780488	-2.7310615969	-0.27327
C	-2.2360010173	-3.0454703525	-2.0244929158	 0.077532
C	-1.6507572002	-4.3599217858	-2.4753494439	-0.419385
H	 1.1134867893	 1.9306336341	-0.2132588231	 0.104735
H	-0.3102607797	 1.8528497317	-1.2839934571	 0.108964
H	-0.5205449108	 2.0452404972	 0.4765929751	 0.12527
H	 0.4111950512	-0.205407157	-2.0753553811	 0.081187
H	 2.6087817154	-1.3050523333	-1.6379991158	 0.116052
H	 2.5883395725	 0.304828843	-0.9135875851	 0.116417
H	 2.3652021394	-1.123191765	 0.1131282614	 0.121103
H	 0.5045853285	-2.6930210569	-1.6742883616	 0.099194
H	 0.1002617816	-2.3962569148	 0.0229889568	 0.106119
H	-2.0695674465	-1.3045680308	-0.6983295596	 0.098788
H	-3.310322144	-3.0868687511	-1.8279065464	 0.083214
H	-0.5772312388	-4.289611809	-2.6600581302	 0.126127
H	-1.826092542	-5.1340564657	-1.7201327509	 0.120803
H	-2.1308698205	-4.6858600389	-3.4041516597	 0.128381
34.7163	75.3308	86.7034	127.0921	168.0151	194.6757	212.6919	232.6235	292.995	322.9023	377.5	443.5052	470.4996	499.0505	560.0621	757.9451	811.3986	832.1803	886.1496	928.3785	944.8298	1000.7731	1031.8367	1073.1103	1119.3755	1121.1557	1127.7375	1166.2816	1176.5616	1180.4476	1185.5901	1213.6017	1271.5961	1299.5178	1312.7182	1376.3742	1385.5498	1402.9447	1405.6992	1418.2689	1455.7253	1469.9897	1478.5123	1483.8786	1490.5609	1494.0272	1501.8826	1512.319	1513.6738	2970.9523	2980.3397	3026.0339	3032.4372	3037.9482	3039.2241	3072.7751	3097.7526	3098.5058	3108.1383	3109.9461	3113.1443	3117.9352	3134.1229
COC(C)CC1OC1C	CO[C@@H](C)C[C@H]1O[C@H]1C	
InChI=1S/C7H14O2/c1-5(8-3)4-7-6(2)9-7/h5-7H,4H2,1-3H3	InChI=1S/C7H14O2/c1-5(8-3)4-7-6(2)9-7/h5-7H,4H2,1-3H3/t5-,6-,7+/m0/s1
