23
gdb 83418	2.86652	1.21598	1.06013	0.1894	90.25	-0.2261	0.089	0.3151	1280.1119	0.206376	-351.116342	-351.10743	-351.106486	-351.149911	35.086	
C	-0.032351954	 1.5215064509	-0.1153791796	-0.419521
C	 0.1069722813	 0.0208012289	 0.0406755935	-0.055129
C	 1.3753622232	-0.7700936108	-0.1637913067	-0.12838
C	 2.5965461372	-0.0167873489	 0.371342762	-0.225197
C	 1.9132944889	 0.074379297	 1.7728587611	-0.309353
C	 0.7021297041	-0.7033413846	 1.2248155348	 0.383716
C	-0.058806151	-1.7416210657	 1.9740896148	-0.104928
C	 0.5802561415	-2.6131266021	 3.0294831546	-0.277891
C	-0.4087365837	-1.5483889089	 3.4329382299	-0.267608
H	 0.8358604267	 2.0659169154	 0.264320545	 0.118274
H	-0.1526083569	 1.7924379237	-1.1704184026	 0.114147
H	-0.912347759	 1.889858722	 0.423697416	 0.114764
H	-0.756609171	-0.5198267011	-0.3456889351	 0.077461
H	 1.4160138473	-1.6021540877	-0.8585321717	 0.076294
H	 3.4955299492	-0.6365103546	 0.396273282	 0.100197
H	 2.8464037411	 0.9279919893	-0.1229251205	 0.093466
H	 2.4694007941	-0.4812103412	 2.5312065449	 0.10251
H	 1.7098442089	 1.0753406538	 2.1670029252	 0.092685
H	-0.8234525423	-2.2314545417	 1.3761146715	 0.075333
H	 0.2724340498	-3.6516616528	 3.0846483092	 0.108045
H	 1.6251571603	-2.4509466463	 3.2706936085	 0.110199
H	-0.0195140079	-0.6652866182	 3.929061594	 0.112209
H	-1.3920007677	-1.8514887763	 3.7756049092	 0.108707
62.3228	140.7124	168.9496	189.8162	245.9916	274.3552	332.6424	368.5549	490.4367	516.8437	608.8533	720.6345	749.1254	783.8937	799.6227	827.8023	859.1558	907.6735	925.6572	929.0858	958.0834	982.0587	991.9305	1039.5997	1058.2845	1061.4652	1076.219	1081.6701	1102.8109	1134.2825	1141.9718	1152.5621	1198.0152	1215.4771	1223.1591	1234.5006	1242.8915	1263.166	1321.5516	1330.4846	1396.3191	1411.6249	1465.8273	1468.8229	1479.1032	1500.5522	1501.0143	1507.4606	1516.5305	3031.1005	3041.6347	3049.4666	3086.0183	3091.8786	3105.0708	3110.4665	3122.6257	3129.4286	3130.8674	3136.1437	3165.172	3207.0757	3222.271
CC1C2CCC12C1CC1	C[C@H]1[C@H]2CC[C@@]12C1CC1	
InChI=1S/C9H14/c1-6-8-4-5-9(6,8)7-2-3-7/h6-8H,2-5H2,1H3	InChI=1S/C9H14/c1-6-8-4-5-9(6,8)7-2-3-7/h6-8H,2-5H2,1H3/t6-,8+,9-/m0/s1
