21
gdb 126810	1.85166	1.73044	1.00946	2.5331	85.75	-0.2265	0.0273	0.2538	1256.8877	0.183741	-383.306678	-383.297297	-383.296353	-383.341484	34.308	
C	-0.0868025239	 1.6093296293	 0.2898156423	-0.377105
C	-0.0931313188	 0.1427178716	-0.1430058512	-0.141902
N	-1.4241834034	-0.4429404149	-0.1077899365	-0.01815
N	-2.00458852	-0.6321817247	 1.0983253307	-0.274978
C	-3.1916999484	-1.163113216	 0.8241500421	-0.000109
C	-3.3827075463	-1.3220414639	-0.5603864504	-0.316675
C	-2.2194304077	-0.846802117	-1.1415232392	 0.372262
C	-1.8440444466	-0.7443918155	-2.5889996574	-0.304515
C	-1.9959450769	 0.6689966821	-3.180769365	-0.374989
H	 0.935997173	 1.9984401508	 0.288721001	 0.115995
H	-0.6914566942	 2.2234711748	-0.3843485393	 0.124892
H	-0.4968610284	 1.7011290611	 1.2980034449	 0.15071
H	 0.2940288392	 0.0330303382	-1.1585944479	 0.117074
H	 0.5462719375	-0.4472740519	 0.5209212852	 0.129036
H	-3.8616721988	-1.4194184537	 1.6321551072	 0.106061
H	-4.2361649225	-1.7323846248	-1.0765851472	 0.096139
H	-0.8168978038	-1.0978842405	-2.743285111	 0.111132
H	-2.4855267412	-1.4360223355	-3.1441222619	 0.11757
H	-3.0222913325	 1.028611212	-3.0634253163	 0.128322
H	-1.3344114125	 1.3854781671	-2.6843946044	 0.123629
H	-1.7515185837	 0.6698624315	-4.2476048155	 0.115603
59.5298	69.8903	126.9842	164.3402	204.2768	226.1095	306.6494	336.6023	405.7012	458.3614	617.4258	672.1746	703.6621	709.7495	780.9435	792.4405	796.1004	885.8062	942.3955	960.5365	981.9215	1043.7992	1063.7785	1081.0529	1084.9161	1106.1996	1188.9251	1234.6002	1264.0408	1295.67	1327.466	1348.6059	1372.5524	1392.868	1405.1297	1407.912	1447.8164	1478.1431	1484.9678	1488.4546	1498.1869	1502.5635	1508.5943	1510.536	1577.0491	3029.5788	3039.1926	3044.4001	3059.1975	3075.7284	3106.5254	3110.0304	3116.6178	3118.1098	3139.0552	3237.535	3261.3813
CCN1N=CC=C1CC	CCn1nccc1CC	
InChI=1S/C7H12N2/c1-3-7-5-6-8-9(7)4-2/h5-6H,3-4H2,1-2H3	InChI=1S/C7H12N2/c1-3-7-5-6-8-9(7)4-2/h5-6H,3-4H2,1-2H3
