14
gdb 11330	6.39032	1.34107	1.12404	1.4454	63.25	-0.2505	-0.0071	0.2434	1006.9367	0.1079	-415.912967	-415.905455	-415.904511	-415.945491	26.236	
C	-0.001383351	 1.454587376	 0.0792735945	-0.333528
N	-0.0101968847	 0.0042267022	 0.1667411582	-0.359003
C	-1.0942790299	-0.6186964722	 0.0733491446	 0.52822
N	-1.2137548922	-2.0062414383	 0.1435666266	-0.396106
C	-2.5071157884	-2.448523311	 0.0137946703	 0.409476
O	-2.9136541827	-3.5819969125	 0.0337109511	-0.351957
C	-3.3102288292	-1.1597516084	-0.1622232571	-0.220491
O	-2.3501872661	-0.1023082599	-0.1104163396	-0.251637
H	 0.6476270842	 1.760797798	-0.7488250021	 0.12852
H	-0.9899313053	 1.9036382121	-0.0677270731	 0.125957
H	 0.4366730816	 1.8672364299	 0.9949962501	 0.128519
H	-0.4126027743	-2.602079135	 0.2770558676	 0.284383
H	-3.8302370048	-1.1500982621	-1.1252513689	 0.153824
H	-4.044320507	-1.0422726688	 0.6410409879	 0.153823
59.6662	97.509	176.7067	211.9124	269.7059	406.3577	539.3001	539.9825	606.6359	661.304	693.9493	713.1813	894.0579	914.7738	1024.2495	1049.8963	1083.698	1137.8333	1153.0234	1201.0993	1201.7302	1327.3016	1374.2866	1383.035	1445.9471	1491.8284	1495.3897	1501.6721	1828.8485	1873.929	3018.8142	3054.0327	3078.253	3089.0448	3100.2483	3663.578
CN=C1NC(=O)CO1	CN=C1NC(=O)CO1	
InChI=1S/C4H6N2O2/c1-5-4-6-3(7)2-8-4/h2H2,1H3,(H,5,6,7)	InChI=1S/C4H6N2O2/c1-5-4-6-3(7)2-8-4/h2H2,1H3,(H,5,6,7)
