16
gdb 82435	2.50955	1.8495	1.2596	5.0263	64.37	-0.2607	0.0079	0.2686	979.2232	0.125794	-475.029234	-475.021804	-475.02086	-475.061166	28.648	
O	 0.3408120757	 0.8207384346	 0.807854066	-0.43685
C	-0.1055558835	-0.2366993925	 0.0063465023	 0.020267
C	-1.6086389734	-0.2511190755	-0.1406647663	-0.060857
N	-2.1345470495	 0.4737810154	-1.311519288	-0.322008
C	-2.1331802872	-0.9951833905	-1.3028413365	-0.059343
C	-1.1335639842	-1.658280324	-2.2258501456	-0.08152
O	 0.0919464509	-0.9264423881	-2.3661503993	-0.218314
C	 0.567141711	-0.1630510317	-1.3694715899	 0.402854
O	 1.5292876835	 0.539291271	-1.5451170043	-0.349406
H	 1.0796481311	 1.2165384279	 0.3186059073	 0.299353
H	 0.1943063262	-1.2062646582	 0.4487176938	 0.096192
H	-2.1714664692	-0.2292683141	 0.788004688	 0.10448
H	-3.0656941234	 0.833605196	-1.1233223371	 0.242931
H	-3.0759645113	-1.5291655263	-1.2103883383	 0.1026
H	-0.9097087925	-2.6701992383	-1.8637183573	 0.12284
H	-1.5270153043	-1.7410343358	-3.2427923648	 0.136781
97.1734	157.3068	239.4936	318.4998	331.7417	411.1703	463.0659	476.0004	539.2831	576.3732	667.3135	745.1329	810.7736	860.4949	883.9854	895.5355	974.8848	1018.5348	1054.7124	1077.8208	1118.7431	1140.4454	1163.5169	1172.4922	1227.1202	1255.4055	1262.1281	1285.0024	1351.8768	1394.4437	1424.709	1452.3768	1472.7568	1508.9164	1830.8307	2924.0291	3026.5647	3091.746	3140.125	3158.3114	3521.439	3694.7482
OC1C2NC2COC1=O	O[C@H]1[C@H]2N[C@H]2COC1=O	
InChI=1S/C5H7NO3/c7-4-3-2(6-3)1-9-5(4)8/h2-4,6-7H,1H2	InChI=1S/C5H7NO3/c7-4-3-2(6-3)1-9-5(4)8/h2-4,6-7H,1H2/t2-,3-,4-/m0/s1
