15
gdb 50745	2.3632	1.62448	1.09019	3.6196	62.89	-0.2635	-0.0389	0.2246	1071.7517	0.111859	-494.926437	-494.9185	-494.917555	-494.959811	28.318	
O	 0.1221963303	-0.1804096849	-0.1978138784	-0.220478
C	 0.0709541426	 1.0140543261	-0.2611630341	 0.138192
C	 1.287176398	 1.9263431665	-0.0367431696	-0.111343
O	 2.4310726807	 1.1428322692	 0.1650376313	-0.237877
C	 3.6221912916	 1.848850042	-0.1239726943	-0.102412
C	 3.6109543825	 2.2608583845	-1.58004876	-0.074079
O	 2.4729751485	 3.0963110717	-1.8753852669	-0.223652
C	 1.3331517477	 2.9549105862	-1.1779947784	 0.382277
O	 0.3713349412	 3.6304307825	-1.4254536332	-0.326748
H	-0.8559225434	 1.5800810259	-0.4770114882	 0.122574
H	 1.0473873332	 2.5272036043	 0.8610100374	 0.135984
H	 3.7332930152	 2.7300383719	 0.5279261639	 0.1111
H	 4.4521436386	 1.1652024211	 0.0722500711	 0.134609
H	 4.4907599383	 2.8521907292	-1.8461296998	 0.133553
H	 3.5661796551	 1.3752539538	-2.2229045809	 0.138299
51.7237	121.6242	141.8295	220.6132	284.3495	344.8987	421.4336	483.0337	508.7702	610.331	671.5829	720.2062	761.1467	889.0843	925.8196	966.2683	1027.9567	1075.4425	1107.4018	1136.8773	1176.5369	1227.7115	1250.289	1268.5931	1310.626	1329.1075	1391.0821	1412.9719	1426.8454	1494.3679	1503.5743	1829.369	1856.6907	2936.7519	2957.7195	2987.3778	3053.0542	3104.946	3112.3805
O=CC1OCCOC1=O	O=C[C@H]1OCCOC1=O	
InChI=1S/C5H6O4/c6-3-4-5(7)9-2-1-8-4/h3-4H,1-2H2	InChI=1S/C5H6O4/c6-3-4-5(7)9-2-1-8-4/h3-4H,1-2H2/t4-/m1/s1
