19
gdb 7786	3.26272	1.70454	1.18036	3.8779	72.02	-0.2338	0.0349	0.2687	1030.8494	0.167772	-365.122622	-365.114775	-365.113831	-365.154758	29.881	
C	-0.0233470004	 1.5679644986	 0.0177429323	-0.404997
C	 0.016003195	 0.0379960096	-0.0169812469	 0.021133
C	 0.6966420694	-0.4996806351	-1.2806980267	-0.19006
C	 0.6141769238	-2.0243816361	-1.3302240814	-0.164921
N	 1.0444507843	-2.6147589858	-0.0696330369	-0.300592
C	 0.9972261183	-2.0390512125	 1.1719755577	 0.374128
O	 1.2067338988	-2.6851491229	 2.1825584516	-0.376104
C	 0.7358050637	-0.5366284091	 1.2118058204	-0.294848
H	 0.9898708542	 1.9860625944	-0.0121131742	 0.115548
H	-0.5765575813	 1.9708240886	-0.8371913171	 0.112409
H	-0.5048880546	 1.9317952713	 0.9312927365	 0.117832
H	-1.0200009114	-0.3320042867	-0.0119348814	 0.078136
H	 0.2293233855	-0.0895601331	-2.1823550941	 0.099987
H	 1.7483573294	-0.1845735606	-1.2890629866	 0.104046
H	-0.4194159351	-2.3255333425	-1.5631019905	 0.105688
H	 1.2470453311	-2.415366537	-2.1349219116	 0.110233
H	 1.1895864851	-3.6140660693	-0.0393016852	 0.242896
H	 1.7168175984	-0.0528020791	 1.3201902329	 0.123756
H	 0.1915344059	-0.3335512829	 2.1379085414	 0.12573
98.5104	127.703	224.054	241.6459	281.8884	398.6168	419.8955	458.8309	493.2219	545.0608	663.7332	670.7144	799.3886	839.4171	888.3678	924.7646	967.6923	980.8061	1001.0375	1087.1165	1119.503	1128.155	1169.6352	1187.967	1265.1439	1279.4814	1300.9476	1330.1345	1349.103	1374.9079	1394.0329	1401.1928	1413.4781	1459.8946	1483.3607	1492.0775	1497.3633	1499.6211	1529.6826	1788.1073	2976.6531	2993.5716	3020.811	3023.7223	3029.3597	3052.4269	3076.7351	3092.221	3099.0653	3100.8674	3601.872
CC1CCNC(=O)C1	C[C@H]1CCNC(=O)C1	
InChI=1S/C6H11NO/c1-5-2-3-7-6(8)4-5/h5H,2-4H2,1H3,(H,7,8)	InChI=1S/C6H11NO/c1-5-2-3-7-6(8)4-5/h5H,2-4H2,1H3,(H,7,8)/t5-/m0/s1
