22
gdb 10606	2.46904	1.68283	1.18743	1.7363	78.09	-0.2528	0.0786	0.3314	1137.1078	0.197761	-350.204628	-350.194647	-350.193703	-350.23965	36.184	
C	-1.1311995642	-0.3848136314	 0.3498032047	-0.384799
C	 0.3939928734	-0.4926745689	 0.4791459974	-0.260437
C	 1.1048038769	-0.7511710942	-0.839921526	 0.405274
C	 1.1218597433	 0.3915874877	-1.8465914494	-0.248463
C	 1.9461658704	 1.5996782051	-1.3831836633	-0.382586
O	 2.3770304978	-1.4214512096	-0.7236412001	-0.312119
C	 1.2956779301	-2.1269341914	-1.3467534357	 0.027497
C	 0.816452825	-3.395266813	-0.6857281264	-0.4261
H	-1.4274450068	 0.4480032061	-0.2956132273	 0.120731
H	-1.5603058251	-1.2998135067	-0.071804274	 0.118504
H	-1.5910297368	-0.2201677902	 1.3288958649	 0.116349
H	 0.7916423904	 0.4293511756	 0.919517766	 0.104369
H	 0.6561241983	-1.2909082235	 1.1779757866	 0.108672
H	 1.5415281483	 0.0132068003	-2.7847181118	 0.100912
H	 0.092657189	 0.7002983663	-2.0680626627	 0.097947
H	 1.5078082952	 2.0871098845	-0.5068327176	 0.115862
H	 2.9628723177	 1.2890652461	-1.1249443742	 0.134759
H	 2.0105636803	 2.3501308643	-2.1767255661	 0.111376
H	 1.4144004462	-2.2217986653	-2.4295053246	 0.078194
H	 0.6557058144	-3.2715730495	 0.3865654923	 0.125916
H	-0.1204106309	-3.7312920203	-1.1436961593	 0.119177
H	 1.5572252472	-4.1900621018	-0.8250492835	 0.128966
36.9519	90.975	158.7735	175.995	190.0329	213.3776	258.462	282.357	323.2572	383.1827	426.5906	484.7878	575.7693	679.0268	764.8003	783.9282	799.9717	908.2166	928.7972	958.6225	1008.0125	1026.7976	1045.6693	1069.8623	1117.1086	1131.8282	1135.3136	1175.4781	1241.7809	1273.1769	1302.7664	1333.4799	1365.2016	1391.3477	1405.4243	1408.7291	1411.2479	1465.8937	1476.5613	1483.3752	1493.1783	1500.1613	1502.3631	1505.4903	1508.486	1516.7309	3031.0227	3036.7545	3037.8508	3038.3601	3045.0382	3065.4089	3071.4435	3087.6759	3095.6536	3105.7961	3107.3328	3111.2493	3117.2414	3136.7794
CCC1(CC)OC1C	CCC1(CC)O[C@H]1C	
InChI=1S/C7H14O/c1-4-7(5-2)6(3)8-7/h6H,4-5H2,1-3H3	InChI=1S/C7H14O/c1-4-7(5-2)6(3)8-7/h6H,4-5H2,1-3H3/t6-/m0/s1
