18
gdb 85182	2.31416	1.6383	1.1445	2.9057	71.59	-0.2384	0.0026	0.241	1101.3692	0.147182	-439.078256	-439.06969	-439.068745	-439.11192	31.338	
C	 0.6110281283	 1.5066791738	-0.3524467909	-0.4
C	 0.0369889745	 0.1409784145	-0.0559304522	 0.120721
O	 0.8021863579	-0.9404867273	-0.7098842992	-0.254065
C	 1.1661614097	-1.4953566052	 0.4858232546	 0.434944
O	 1.9029902251	-2.4128306504	 0.6737352025	-0.338324
C	 0.3294092296	-0.5045156685	 1.3251996305	-0.168074
N	 0.9169020739	 0.3101625334	 2.360075026	-0.086893
C	 1.5987804235	-0.3839025416	 3.4537617096	-0.22604
C	 2.3748588017	 0.4107670262	 2.4639378662	-0.231835
H	 1.6737162532	 1.5533225893	-0.1041474266	 0.134462
H	 0.4911586651	 1.7470147598	-1.4125172209	 0.132643
H	 0.0863561802	 2.2622520228	 0.2395875705	 0.138179
H	-1.0081096565	 0.0674477836	-0.3676811256	 0.100157
H	-0.5532352567	-1.002560057	 1.7388805324	 0.119443
H	 1.4018301731	 0.0093636013	 4.4469024503	 0.121813
H	 1.6921398063	-1.4649860074	 3.388049264	 0.142036
H	 2.9900825839	-0.1465676891	 1.7621292158	 0.139182
H	 2.7470852071	 1.3978211918	 2.721227513	 0.121652
76.0093	99.4887	140.7869	178.8527	208.902	300.7277	351.9634	416.4212	492.91	526.2068	679.4842	737.9964	792.72	828.4334	857.2835	887.0942	904.541	931.1556	1033.8854	1045.144	1054.5618	1101.1382	1130.7261	1136.7452	1147.7124	1163.7139	1180.4706	1194.7835	1226.3054	1317.1736	1331.5983	1363.8432	1385.4865	1413.5482	1481.5021	1487.2466	1493.274	1515.8288	1913.6765	3050.7004	3062.2215	3080.6626	3108.9237	3113.3711	3123.4588	3135.8893	3193.629	3207.4021
CC1OC(=O)C1N1CC1	C[C@H]1OC(=O)[C@H]1N1CC1	
InChI=1S/C6H9NO2/c1-4-5(6(8)9-4)7-2-3-7/h4-5H,2-3H2,1H3	InChI=1S/C6H9NO2/c1-4-5(6(8)9-4)7-2-3-7/h4-5H,2-3H2,1H3/t4-,5+/m1/s1
