21
gdb 93057	2.35046	1.54439	1.18345	1.3914	86.93	-0.2226	-0.0285	0.1941	1148.4153	0.183711	-387.10634	-387.097575	-387.096631	-387.139485	34.394	
C	-0.2015918836	 1.4934808313	 0.0001744463	-0.410508
C	 0.0546487539	-0.0202362424	-0.0063293351	-0.03931
C	 0.8266770166	-0.4265939961	-1.2399451621	-0.078443
C	 1.3489623647	-1.6366456798	-1.4960718972	-0.107759
C	 1.2947269166	-2.8399561916	-0.6712552935	-0.074701
C	 0.9769163273	-2.9729068314	 0.6263610652	-0.064114
C	 0.6152668083	-1.9321209649	 1.6467524279	-0.282926
C	 0.7961054844	-0.4516693145	 1.2880697518	 0.107314
O	 2.1653043231	-0.0761005087	 1.2520382115	-0.441288
H	 0.7435921961	 2.0345960951	 0.1103639748	 0.132894
H	-0.6786218267	 1.819582157	-0.9295150756	 0.109799
H	-0.8533401472	 1.7795700126	 0.8313420927	 0.110468
H	-0.9142251714	-0.5406679814	-0.0180816588	 0.088626
H	 0.9737080057	 0.3523652304	-1.9850570942	 0.088398
H	 1.8554643185	-1.7649264851	-2.4505982654	 0.088947
H	 1.5643879339	-3.7526284245	-1.1988664611	 0.085814
H	 0.9967294035	-3.9851415937	 1.0274314117	 0.092322
H	-0.4261215492	-2.0990878076	 1.9606726751	 0.109065
H	 1.2168266937	-2.1152284956	 2.5479933809	 0.11807
H	 0.3774013552	 0.1264521872	 2.1203030378	 0.082815
H	 2.5368086369	-0.4442884565	 0.4404501874	 0.284517
65.2584	144.1706	222.7119	244.4633	310.1083	326.5884	335.4703	361.3042	389.9301	468.3834	492.5354	595.1804	681.0627	744.9139	794.4299	819.3731	859.1335	870.7154	911.0665	930.0836	991.235	1005.3219	1013.0665	1016.7614	1071.5612	1079.513	1112.928	1145.2115	1224.9509	1252.7126	1253.8662	1288.1152	1309.5459	1340.3152	1347.7328	1393.5369	1405.3048	1431.3399	1437.948	1452.1494	1462.5682	1498.3891	1503.9854	1673.846	1707.8282	2991.6936	3001.0233	3031.1278	3034.1719	3040.0968	3104.516	3111.3852	3126.1981	3134.832	3149.9388	3161.5087	3766.8813
CC1C=CC=CCC1O	C[C@H]1C=CC=CC[C@H]1O	
InChI=1S/C8H12O/c1-7-5-3-2-4-6-8(7)9/h2-5,7-9H,6H2,1H3	InChI=1S/C8H12O/c1-7-5-3-2-4-6-8(7)9/h2-5,7-9H,6H2,1H3/t7-,8+/m0/s1
