14
gdb 123589	2.97142	1.57902	1.21006	4.4791	75.96	-0.2333	-0.0683	0.165	987.0023	0.102202	-432.810029	-432.80315	-432.802206	-432.841759	26.069	
C	-0.0159262014	 1.5178076991	-0.0753743041	-0.185022
C	 1.5053627084	 1.204671425	-0.135449222	-0.146189
C	 1.1434432351	 0.1584555876	 0.9556526066	-0.185064
N	-0.1940717286	 0.0235869108	 0.2183585851	-0.18741
C	 0.2859808986	-0.5470205058	-1.0735932014	 0.343088
C	 1.4870739603	 0.276045175	-1.3395320183	 0.290957
N	 2.287717383	 0.19785604	-2.3422455879	 0.030125
N	 2.9735206795	 0.0974369085	-3.245478174	-0.243798
O	-0.2227994312	-1.4417775038	-1.6810318747	-0.318685
H	-0.3240954808	 2.0937374086	 0.8001417636	 0.127361
H	-0.517714725	 1.8773101962	-0.9757660599	 0.127697
H	 2.3008488328	 1.945594146	-0.0531265036	 0.091878
H	 1.730888556	-0.7591464864	 1.0238823581	 0.127696
H	 0.9646638933	 0.5825994391	 1.9462761825	 0.127368
86.3255	149.5581	186.3609	419.8751	480.4626	485.9575	533.49	544.7147	618.1564	700.096	752.3149	830.9242	832.777	864.3596	878.5768	925.5466	1008.2825	1017.0709	1052.0953	1084.1146	1171.521	1188.7529	1195.5136	1230.606	1255.8398	1287.8527	1461.9458	1490.1292	1525.6866	1872.7533	2203.0693	3065.7853	3070.7551	3116.4411	3135.6096	3138.1302
C1C2CN1C1=C2N=NO1	C1[C@H]2CN1C(=O)[C]2[N][N]	
InChI=1S/C5H5N3O/c1-3-2-8(1)5-4(3)6-7-9-5/h3H,1-2H2	InChI=1S/C5H5N3O/c6-7-4-3-1-8(2-3)5(4)9/h3H,1-2H2
