15
gdb 44988	3.36466	1.32033	1.09542	4.154	72.48	-0.2567	0.0026	0.2593	1087.9528	0.111764	-420.621201	-420.613628	-420.612684	-420.653312	29.338	
O	 0.0998451693	 0.1016820004	-0.4153645522	-0.316904
C	-0.0046187568	 1.2208964451	-0.016020318	 0.403922
C	-1.2841580326	 2.0399438545	 0.1879882193	-0.375394
C	-0.8202390017	 3.32844522	 0.8222306925	-0.115321
C	-0.0688163834	 3.2398592339	 2.1295008905	-0.333288
C	 0.6995518002	 3.2490503198	 0.8283607125	 0.233211
O	 1.0849827739	 1.9647669639	 0.3552415655	-0.243666
C	 1.5742332308	 4.3106023481	 0.4456873485	 0.253491
C	 2.3030850768	 5.214167033	 0.1350122905	-0.403306
H	-1.752912307	 2.2017204629	-0.7874200201	 0.150537
H	-1.9843660797	 1.458016983	 0.7938320462	 0.148979
H	-1.3039921869	 4.2611514227	 0.5637368199	 0.121182
H	-0.0189286307	 4.1364145998	 2.7356992059	 0.139035
H	-0.0756619921	 2.3051153666	 2.6816641104	 0.135523
H	 2.9507645496	 6.0086073664	-0.1435136016	 0.201999
99.6025	145.0973	166.1519	315.9242	417.5825	445.0262	481.1699	534.682	559.4706	583.896	596.3028	673.0349	696.1267	742.0309	843.8082	848.0231	892.0304	929.2628	967.9462	1032.0053	1060.6146	1076.1649	1089.0945	1155.1082	1198.7899	1227.0123	1278.6536	1300.573	1389.1692	1459.4388	1475.4578	1893.2561	2245.559	3065.6357	3106.1037	3133.7694	3201.0077	3233.0408	3501.249
O=C1CC2CC2(O1)C#C	O=C1C[C@H]2C[C@]2(O1)C#C	
InChI=1S/C7H6O2/c1-2-7-4-5(7)3-6(8)9-7/h1,5H,3-4H2	InChI=1S/C7H6O2/c1-2-7-4-5(7)3-6(8)9-7/h1,5H,3-4H2/t5-,7+/m0/s1
