17
gdb 8142	4.25215	1.77037	1.46619	0.9865	68.99	-0.2358	0.0251	0.2609	907.5263	0.141825	-363.878054	-363.870469	-363.869525	-363.909562	28.805	
C	 0.0585565566	 1.4423553482	-0.0176183843	-0.478743
C	-0.0341668421	-0.0429266553	 0.0159006019	 0.383254
N	-1.0899229419	-0.7442937788	 0.1589262861	-0.340947
C	-0.6870786662	-2.1358391804	 0.0915509444	 0.328312
C	-1.4441722002	-3.1026094038	 0.9611982256	-0.469771
C	-0.0833429835	-2.547195274	-1.2408003761	-0.353624
C	 0.8161974467	-2.0840122946	-0.1286986047	 0.021402
O	 1.1548774688	-0.7074914505	-0.1252752327	-0.245112
H	 0.791247882	 1.7943208148	 0.715131005	 0.144337
H	 0.392923645	 1.78425474	-1.0025526215	 0.14538
H	-0.9184451783	 1.872852439	 0.1998706337	 0.152826
H	-2.4906376845	-3.1615960528	 0.6451226608	 0.13152
H	-1.0126983798	-4.1060548195	 0.8984710351	 0.111976
H	-1.4256999042	-2.7833136191	 2.0079864936	 0.124214
H	-0.0562257472	-3.6102351339	-1.4566315081	 0.116391
H	-0.2314718096	-1.9027595942	-2.1011532853	 0.119813
H	 1.5764978984	-2.7097318453	 0.3214475065	 0.108773
131.4979	170.4423	184.8417	242.4441	276.387	380.8877	421.9291	460.2911	599.0548	651.0654	678.4523	772.9392	801.6526	873.5364	920.8692	950.0211	964.4681	996.0626	1033.5307	1057.9908	1068.0904	1102.3778	1117.2209	1129.9036	1234.5685	1267.5869	1327.3628	1385.8607	1411.8655	1420.7286	1469.6914	1474.4292	1478.3514	1479.8852	1498.8358	1710.5033	3035.9125	3049.1221	3103.9903	3105.731	3111.0446	3126.6651	3164.1355	3191.7853	3219.8129
CC1=NC2(C)CC2O1	CC1=N[C@@]2(C)C[C@H]2O1	
InChI=1S/C6H9NO/c1-4-7-6(2)3-5(6)8-4/h5H,3H2,1-2H3	InChI=1S/C6H9NO/c1-4-7-6(2)3-5(6)8-4/h5H,3H2,1-2H3/t5-,6+/m1/s1
