15
gdb 127903	3.8214	1.18654	0.91048	2.6783	77.48	-0.2464	-0.0701	0.1764	1223.9262	0.112755	-450.105033	-450.096781	-450.095837	-450.138601	29.732	
C	-0.244906258	 1.4748555406	-0.0195311312	-0.33576
N	 0.1875898525	 0.1007181973	 0.0764658169	-0.302239
C	 0.7614861604	-0.5074856144	-0.8820264245	 0.385631
N	 1.1441195431	-1.8269051732	-0.7045285031	-0.397358
C	 1.7703116467	-2.6147446546	-1.6377734203	 0.501126
N	 2.090022448	-3.8131583693	-1.4034809602	-0.556681
O	 2.0336159842	-2.0174848616	-2.8589242667	-0.279229
N	 1.6889946537	-0.6955375239	-3.1405526661	-0.042644
C	 1.1074723473	-0.0184454981	-2.2248928554	-0.03185
H	 0.2410240545	 2.0564898568	 0.772543905	 0.14045
H	-0.0527003675	 1.980704774	-0.9749895999	 0.109951
H	-1.3226407642	 1.5226548415	 0.1754045824	 0.140445
H	 0.9497856301	-2.2573465503	 0.1884875538	 0.278731
H	 2.5426511243	-4.2326021259	-2.2120930316	 0.238733
H	 0.8703326451	 0.9975171111	-2.5136211491	 0.150693
75.0036	81.3734	116.4075	236.7569	239.4448	370.1744	396.641	476.1395	545.2675	588.4814	620.9326	698.1227	716.9075	718.398	791.4535	890.2117	907.1115	925.4622	998.3096	1047.6085	1119.1252	1128.1562	1156.4826	1305.8266	1356.7725	1390.0987	1441.8926	1451.2044	1478.6419	1507.9159	1660.4359	1745.1921	1784.0477	3004.6976	3067.882	3075.0327	3221.9171	3538.0985	3620.2371
CN=C1NC(=N)ON=C1	CN=C1N[C]([NH])ON=C1	
InChI=1S/C4H6N4O/c1-6-3-2-7-9-4(5)8-3/h2H,1H3,(H2,5,6,8)	InChI=1S/C4H6N4O/c1-6-3-2-7-9-4(5)8-3/h2H,1H3,(H2,5,6,8)
