23
gdb 122540	4.17518	0.60644	0.57153	1.8367	84.62	-0.2435	0.0893	0.3328	2040.0707	0.203216	-425.387148	-425.376268	-425.375324	-425.424335	38.002	
C	 0.0567600558	 1.2512539959	-0.4115200041	-0.225904
O	-0.0737780746	-0.0015372312	 0.2116363538	-0.229646
C	-1.2857592463	-0.6508785689	-0.1067365196	-0.041298
C	-1.3188476717	-1.9959811389	 0.6091088912	-0.222328
C	-2.6008179678	-2.7551369764	 0.3402180011	-0.047077
C	-2.7616560024	-3.5638362453	-0.9384749583	-0.324853
C	-2.6367631923	-4.2516529771	 0.4006336071	 0.111601
O	-1.4515019967	-4.90451549	 0.7248913546	-0.233186
C	-1.3735017788	-6.2072561305	 0.1838633633	-0.229626
H	 1.0180816288	 1.6725144066	-0.1064373708	 0.124321
H	 0.0391345788	 1.167684857	-1.5104856326	 0.099928
H	-0.7453796707	 1.9452719023	-0.111505431	 0.099886
H	-2.1454979632	-0.0283072267	 0.2000564105	 0.077424
H	-1.3711655789	-0.7957754994	-1.1976104319	 0.08407
H	-0.4584102177	-2.5932846332	 0.2958218875	 0.117554
H	-1.2027894445	-1.8231579792	 1.6856400743	 0.107144
H	-3.5014755143	-2.2624672113	 0.6996354999	 0.084611
H	-3.7165874472	-3.5687275941	-1.4527021176	 0.108264
H	-1.8939719802	-3.6179523389	-1.5886279285	 0.117327
H	-3.5299859342	-4.7259355965	 0.8119877545	 0.081695
H	-2.1842675895	-6.8504520036	 0.5590292696	 0.10485
H	-1.4237869698	-6.1946970114	-0.9144227777	 0.108219
H	-0.4151119624	-6.628988529	 0.4955989848	 0.127025
48.4768	76.4019	94.7759	104.1052	132.5702	184.2249	197.3448	236.679	277.5291	294.0424	401.198	450.49	479.6376	607.8329	766.7023	799.0712	834.3135	886.6533	948.0436	990.5379	1010.7754	1037.6559	1055.9865	1079.968	1110.7954	1136.9903	1161.6315	1171.0971	1174.914	1185.1472	1194.6388	1222.9983	1228.0876	1247.3133	1262.2206	1296.8052	1312.3685	1384.3046	1414.6356	1427.8331	1472.5813	1481.6104	1485.4732	1485.7045	1490.8304	1496.3906	1506.235	1509.4234	1532.1027	2939.1261	2964.3039	2969.1647	2981.4298	3004.2289	3032.5287	3043.974	3077.7298	3099.943	3109.5424	3118.2539	3126.7628	3132.2024	3215.3933
COCCC1CC1OC	COCC[C@H]1C[C@H]1OC	
InChI=1S/C7H14O2/c1-8-4-3-6-5-7(6)9-2/h6-7H,3-5H2,1-2H3	InChI=1S/C7H14O2/c1-8-4-3-6-5-7(6)9-2/h6-7H,3-5H2,1-2H3/t6-,7+/m0/s1
