21
gdb 55454	3.20619	1.04753	0.93493	1.8253	79.25	-0.2385	-0.0155	0.223	1342.886	0.18297	-424.259522	-424.250427	-424.249482	-424.294501	33.751	
C	 0.1161951268	 1.5051857227	 0.0081118477	-0.483878
C	-0.1116948692	 0.0064566879	 0.047885624	 0.378247
O	-0.3744478774	-0.5762951346	 1.0766320434	-0.312615
C	-0.0297633317	-0.7380191771	-1.2822997791	-0.096916
C	 0.6920631284	-2.0908914421	-1.1477607494	-0.203796
C	 0.5731736489	-2.8975452358	-2.4476148941	-0.217648
C	-0.8877331615	-2.9852908877	-2.8905131013	-0.06724
O	-1.4708070819	-1.6966196715	-3.0196921349	-0.245589
C	-1.4678221715	-0.9867650186	-1.8002849173	-0.077031
H	 1.1522659018	 1.7124826575	-0.2858607731	 0.142998
H	-0.522610677	 1.9733700772	-0.7495825232	 0.139077
H	-0.080488211	 1.9442367339	 0.9868858555	 0.141319
H	 0.4810878926	-0.1115460295	-2.0235566549	 0.076348
H	 1.7439156037	-1.935826083	-0.8841087894	 0.09667
H	 0.2357272978	-2.6368414289	-0.3145676741	 0.122591
H	 1.1554311733	-2.416079392	-3.2430946929	 0.102273
H	 0.9793646954	-3.906516363	-2.3132498045	 0.098048
H	-0.9813325052	-3.4597122497	-3.8714018672	 0.106274
H	-1.4650652488	-3.5849100516	-2.1655905562	 0.089057
H	-2.0285034986	-1.536758757	-1.0264147046	 0.105238
H	-1.9880999949	-0.0435791073	-1.9943306944	 0.106572
21.1314	113.8726	149.8492	178.4523	240.499	273.7198	312.8607	386.4127	450.2813	470.4308	550.3809	588.4519	606.5309	812.2542	861.8936	869.377	893.6169	922.0323	948.0932	971.3714	1005.0815	1036.051	1049.9415	1097.778	1136.9471	1157.7931	1187.6076	1204.6799	1243.3969	1297.3191	1304.1813	1335.3618	1342.7586	1371.7662	1377.6431	1382.5297	1400.7363	1417.2335	1460.961	1474.5989	1479.6597	1491.6614	1492.5407	1507.4234	1803.0906	2960.5739	2974.5728	3028.1761	3030.305	3036.348	3040.0398	3070.6901	3076.7008	3085.4841	3089.5481	3090.3977	3151.2576
CC(=O)C1CCCOC1	CC(=O)[C@H]1CCCOC1	
InChI=1S/C7H12O2/c1-6(8)7-3-2-4-9-5-7/h7H,2-5H2,1H3	InChI=1S/C7H12O2/c1-6(8)7-3-2-4-9-5-7/h7H,2-5H2,1H3/t7-/m0/s1
