15
gdb 132955	2.39961	1.94586	1.08171	0.7118	71.76	-0.2214	-0.0349	0.1865	1029.9062	0.114395	-458.140507	-458.132963	-458.132019	-458.172754	28.218	
C	-0.0425173848	 1.4572318546	 0.0088396824	-0.339784
N	 0.00063157	-0.0066590804	 0.0005190095	-0.188216
C	-1.2463827789	-0.6940426205	 0.0042805834	 0.370478
N	-2.30498952	 0.0290965908	 0.0148229265	-0.57054
C	-1.1002285402	-2.134777134	-0.0047819616	-0.186482
C	 0.1275921549	-2.7009461759	-0.0149938214	-0.003441
N	 1.3025363387	-1.9841355524	-0.0177047529	-0.375529
C	 1.155600571	-0.710664786	-0.0098956874	 0.434074
F	 2.2448615992	 0.0400002419	-0.011782301	-0.059512
H	 0.9708122205	 1.8477079268	 0.0019882378	 0.149241
H	-0.5977699701	 1.804072196	-0.8649193007	 0.161261
H	-0.5821218637	 1.7949687607	 0.8959272807	 0.161063
H	-3.1313246365	-0.5656454981	 0.0162974317	 0.217764
H	-2.0006005616	-2.7365410608	-0.0029498224	 0.106379
H	 0.2491196316	-3.7795890528	-0.0217352345	 0.123244
94.971	138.3284	200.3049	248.9111	367.9578	387.4018	459.5998	511.6489	556.9514	569.7473	699.9025	720.6688	763.2122	792.0745	836.7458	853.5695	982.5558	997.7313	1058.1171	1129.5762	1157.4936	1200.8018	1209.7525	1309.8379	1347.0574	1427.3391	1439.4051	1476.2802	1478.8836	1518.8176	1602.3364	1649.6083	1715.9712	3073.5627	3134.4485	3180.4887	3202.5969	3212.4522	3506.5641
CN1C(=N)C=CN=C1F	CN1C(=CCN=C1F)[NH]	
InChI=1S/C5H6FN3/c1-9-4(7)2-3-8-5(9)6/h2-3,7H,1H3	InChI=1S/C5H7FN3/c1-9-4(7)2-3-8-5(9)6/h2,7H,3H2,1H3
