21
gdb 108669	2.22709	1.35149	0.91857	1.5329	82.3	-0.2364	0.0149	0.2513	1313.9594	0.182602	-424.231114	-424.22162	-424.220676	-424.265735	35.073	
C	 0.1332678141	 1.5219280406	-0.4343486855	-0.487851
C	-0.0494433619	 0.0554030019	-0.1420911288	 0.167532
C	-1.208146252	-0.5781820167	 0.0917424336	 0.159464
C	-2.5600172609	 0.0839424316	 0.1837555518	-0.158564
O	-3.2052429004	-0.196011148	 1.4272938739	-0.413316
C	-1.2281301959	-2.0782142384	 0.3157068697	-0.267558
C	 0.0656127429	-2.7252702606	-0.1665279253	-0.09449
O	 1.1887198551	-2.0271836929	 0.3425541426	-0.243887
C	 1.2574626321	-0.7130525452	-0.1591610476	-0.136463
H	 0.6453709041	 1.6597917826	-1.3956760598	 0.129107
H	-0.8024290937	 2.0789739231	-0.4809690962	 0.129509
H	 0.7714374027	 1.9941352154	 0.3239097524	 0.126134
H	-2.5041256325	 1.1650393357	 0.0093701964	 0.088762
H	-3.2323201492	-0.3325725379	-0.5770113046	 0.110617
H	-2.6273960175	 0.1310806779	 2.1250392567	 0.281201
H	-1.3895581065	-2.2992990928	 1.3773718425	 0.116454
H	-2.0838654612	-2.5176905594	-0.214144493	 0.100106
H	 0.1569707953	-3.7564330981	 0.1861622365	 0.105405
H	 0.094215165	-2.739713963	-1.2693884268	 0.084499
H	 1.6567246906	-0.7121549201	-1.1925179418	 0.091513
H	 1.9983700497	-0.1896423955	 0.4587484534	 0.111825
63.8384	107.6384	120.8708	142.7202	233.7761	307.7215	323.868	338.3708	362.8315	430.795	447.9219	481.2771	605.3252	652.8177	730.5725	855.9182	895.8761	945.7825	951.4207	981.9133	1023.241	1039.1916	1079.3406	1083.9973	1132.7318	1144.9366	1161.2691	1198.0901	1239.9079	1253.5048	1274.5532	1319.1371	1366.367	1370.1661	1388.5144	1409.4507	1414.859	1427.7802	1468.7698	1480.8395	1483.7214	1487.5619	1502.073	1505.6913	1739.2433	2912.9022	2962.1194	3015.8543	3020.5593	3023.0052	3037.8266	3054.623	3056.4634	3058.2424	3086.4549	3141.5887	3807.0986
CC1=C(CO)CCOC1	CC1=C(CO)CCOC1	
InChI=1S/C7H12O2/c1-6-5-9-3-2-7(6)4-8/h8H,2-5H2,1H3	InChI=1S/C7H12O2/c1-6-5-9-3-2-7(6)4-8/h8H,2-5H2,1H3
