14
gdb 15277	4.90256	1.137	0.99332	4.3567	68.83	-0.2668	0.0149	0.2816	1118.9083	0.106441	-341.53481	-341.526905	-341.525961	-341.567727	28.293	
C	-0.1097137159	-1.2196359966	 0.194634934	-0.435868
C	-0.0470992773	-0.0200502646	 0.1467216648	 0.371968
C	 0.0195192397	 1.4123612691	 0.0477641918	-0.252562
N	 0.6771913405	 2.1502436509	 1.1529019452	-0.308877
C	 1.309920652	 2.1439946205	-0.160582858	-0.005365
C	 2.6268667842	 1.3937108916	-0.2667199166	-0.347242
C	 3.7634775171	 2.2373510278	 0.1007394982	 0.262144
N	 4.6512248024	 2.9219889417	 0.3799892126	-0.303579
H	-0.1691401706	-2.2786994027	 0.2512105263	 0.207325
H	-0.8550041757	 1.8731610313	-0.406766627	 0.121383
H	 0.1931924205	 3.0273977771	 1.3241939581	 0.247442
H	 1.2536287075	 3.0468383929	-0.765037209	 0.113291
H	 2.5973352399	 0.5176781404	 0.3871773476	 0.173283
H	 2.7720867656	 1.0333960905	-1.2917084279	 0.156658
55.947	94.9593	163.5524	216.9478	327.0343	374.9993	386.95	522.1794	553.9117	598.2531	629.9339	669.4106	807.7613	834.6559	875.6627	934.3795	958.7498	1005.5131	1014.6675	1112.1562	1180.9939	1209.8248	1247.023	1271.0743	1319.356	1400.5632	1450.714	1458.9418	2241.5345	2364.7222	3052.4226	3105.3016	3127.0278	3138.0762	3501.4725	3515.3203
C#CC1NC1CC#N	C#C[C@H]1N[C@H]1CC#N	
InChI=1S/C6H6N2/c1-2-5-6(8-5)3-4-7/h1,5-6,8H,3H2	InChI=1S/C6H6N2/c1-2-5-6(8-5)3-4-7/h1,5-6,8H,3H2/t5-,6+/m1/s1
