13
gdb 131092	3.71236	0.83997	0.68537	8.5067	63.61	-0.1937	0.0133	0.207	1488.0612	0.087825	-486.074351	-486.065048	-486.064104	-486.110452	31.108	
O	 0.8892022935	-0.0854513211	 0.0254901799	-0.274257
C	 0.8890912731	 1.074855983	 0.0167746926	 0.557903
O	 1.0596358237	 2.2340528807	 0.0080068601	-0.341092
C	-1.8348662784	 1.5999997731	 0.0182822211	-0.186183
N	-3.1315313975	 1.3533431126	 0.0304104776	-0.206
N	-3.7941247002	 2.6065455995	 0.0217555445	-0.263682
C	-2.9258469497	 3.6049913794	 0.0015957392	 0.482785
N	-3.2032216787	 4.9454300737	-0.0835134053	-0.590521
H	-4.1063068215	 5.2315964449	 0.2648343593	 0.273158
H	-2.4634738524	 5.5570279179	 0.2292048356	 0.276284
N	-1.7213887431	 3.0239319675	 0.0002488839	-0.278388
H	-4.7990707508	 2.6634137479	 0.0026365456	 0.273965
H	-0.8304584781	 3.4951113808	-0.0202922439	 0.276027
40.5884	67.6044	69.9674	96.0093	187.482	235.9938	286.7238	382.4915	487.6527	555.8057	597.173	640.8974	669.9847	685.7502	714.9712	736.0786	827.3184	922.012	965.2435	1090.1583	1103.4407	1258.6874	1339.6839	1359.0811	1426.2693	1540.4774	1638.6576	1674.2343	2404.8174	3573.5599	3644.6068	3657.404	3669.7041
[O-]C(=O)C1=NNC(=[NH2+])N1	O=C=O.[C]1=NN[C@H](N)N1	
InChI=1S/C3H4N4O2/c4-3-5-1(2(8)9)6-7-3/h(H,8,9)(H3,4,5,6,7)	InChI=1S/C2H5N4.CO2/c3-2-4-1-5-6-2;2-1-3/h2,6H,3H2,(H,4,5);/t2-;/m1./s1
