19
gdb 77070	2.70601	1.28965	1.18557	0.5607	77.25	-0.2564	0.0159	0.2722	1151.9049	0.155541	-422.980905	-422.971097	-422.970153	-423.015122	36.793	
C	-0.4059199453	 1.513469882	 0.0871278966	-0.427116
C	-0.0976834643	 0.0227672186	 0.0474371911	 0.373663
C	-1.3059891338	-0.8125336171	-0.340094343	-0.437302
O	 1.0286773957	-0.25562187	-0.8519238309	-0.325331
C	 1.9223902076	-0.5581268138	 0.2371565755	-0.110016
C	 2.9401076492	 0.4592475545	 0.4663723941	 0.307819
C	 3.7436465412	 1.3196836653	 0.7179401835	-0.431011
C	 0.7376475809	-0.5089439599	 1.2561398285	 0.037306
O	 0.8652988134	 0.2483074417	 2.4170649411	-0.421707
H	 0.4893017331	 2.099871768	 0.3084566549	 0.116672
H	-0.7886372268	 1.8390911468	-0.8850392508	 0.123752
H	-1.1594981398	 1.7313426036	 0.8499483381	 0.125161
H	-1.6700028323	-0.5247853006	-1.3316419379	 0.126186
H	-1.0508713578	-1.8759130151	-0.3664113335	 0.117676
H	-2.1191060407	-0.6661436886	 0.378949638	 0.122606
H	 2.3935846471	-1.5391841952	 0.1064988321	 0.107376
H	 4.4789875748	 2.06349969	 0.9055524399	 0.20816
H	 0.420456834	-1.5097765457	 1.5593680473	 0.098256
H	 1.4706971335	 0.9793383255	 2.2359372855	 0.287849
64.3408	130.7875	174.1112	187.8349	215.7318	249.9456	294.3393	333.3744	345.5905	382.8352	417.3355	502.9067	548.6543	603.3308	646.3499	670.4554	713.4248	783.0392	859.6482	870.1182	937.5984	980.1009	990.3682	999.747	1047.0618	1159.3071	1166.6131	1191.759	1229.8485	1265.895	1283.8934	1338.3855	1351.8803	1400.1424	1412.255	1444.3383	1471.8068	1483.6037	1493.02	1505.5987	2219.9554	3033.2741	3036.6703	3043.0707	3082.9163	3105.5519	3112.3274	3115.8656	3123.2757	3497.8446	3756.4827
CC1(C)OC(C#C)C1O	CC1(C)O[C@@H](C#C)[C@H]1O	
InChI=1S/C7H10O2/c1-4-5-6(8)7(2,3)9-5/h1,5-6,8H,2-3H3	InChI=1S/C7H10O2/c1-4-5-6(8)7(2,3)9-5/h1,5-6,8H,2-3H3/t5-,6+/m0/s1
