19
gdb 91605	2.21045	1.97326	1.45667	2.2141	74.16	-0.2391	-0.0168	0.2222	980.0112	0.160696	-423.063428	-423.055893	-423.054949	-423.095242	30.219	
C	-0.2133777816	 1.5431775598	-0.0365893958	-0.409201
C	 0.0262845236	 0.0426574731	 0.0206729949	 0.136471
O	 0.8193801019	-0.389290553	-1.1093149535	-0.296771
C	 1.8956513392	-1.1821371982	-0.5851342894	 0.101402
C	 1.2724559967	-1.8570294908	 0.6496281398	-0.252529
C	 0.8121245863	-0.5056838509	 1.2442711589	-0.159082
C	 2.1421731549	 0.2552663753	 1.2872688444	 0.430929
O	 2.5041817628	 1.0557782218	 2.1080148989	-0.334116
C	 2.9222924886	-0.2257909674	 0.0459645733	-0.333277
H	 0.7200294506	 2.1075284363	 0.0381005383	 0.132556
H	-0.6977975897	 1.8040684578	-0.981558711	 0.128899
H	-0.8690067971	 1.8548022037	 0.7830420627	 0.12072
H	-0.9428303728	-0.4763716138	-0.0219860123	 0.080275
H	 2.2704049244	-1.8280241392	-1.3788754342	 0.083655
H	 0.4433444285	-2.5219306863	 0.3969902167	 0.11379
H	 1.9960254101	-2.3906140044	 1.2714523293	 0.109132
H	 0.2581523654	-0.4958510557	 2.1811259722	 0.086695
H	 3.8434309255	-0.7341364834	 0.3534794381	 0.125638
H	 3.1906939228	 0.6104434654	-0.603987211	 0.134813
115.0608	142.3809	223.1798	305.0133	396.456	419.2524	448.0144	493.2921	536.6167	615.7068	671.2269	775.2511	800.3584	819.1509	854.523	914.9846	923.8397	945.6498	953.0556	992.8887	1014.4619	1042.9199	1095.5587	1112.8981	1139.549	1144.4453	1177.9787	1192.9149	1242.3239	1263.4538	1287.3433	1313.2449	1337.3693	1358.9063	1388.3927	1417.8395	1435.7746	1484.6059	1497.0856	1499.0062	1856.9886	2985.4764	3043.3991	3051.0778	3067.0327	3114.5796	3115.4176	3121.4745	3122.9081	3124.6516	3142.2413
CC1OC2CC1C(=O)C2	C[C@H]1O[C@@H]2C[C@H]1C(=O)C2	
InChI=1S/C7H10O2/c1-4-6-2-5(9-4)3-7(6)8/h4-6H,2-3H2,1H3	InChI=1S/C7H10O2/c1-4-6-2-5(9-4)3-7(6)8/h4-6H,2-3H2,1H3/t4-,5-,6-/m1/s1
