21
gdb 81615	3.4241	0.92311	0.84479	2.6834	84.35	-0.2472	-0.0192	0.228	1446.4704	0.181948	-387.046662	-387.037789	-387.036844	-387.081274	33.307	
C	-0.1809918771	 1.5398154164	-0.3585566762	-0.443574
C	 0.0281393474	 0.0510213436	-0.1184121898	 0.06747
C	 1.1916090624	-0.7440289092	-0.8024352049	-0.067304
C	 2.1712997662	-0.0680392962	 0.201115955	-0.232715
C	 0.9304185594	-0.4844824014	 1.044928863	-0.082167
C	 1.0045162874	-1.8514464049	 0.2896959941	 0.044117
C	-0.1607913712	-2.8430240167	 0.2698209236	-0.342268
C	 0.0973108804	-3.967489453	-0.7102628826	 0.167746
O	-0.6639223361	-4.3204878015	-1.5733996397	-0.239455
H	 0.736242286	 2.1313178702	-0.3141215326	 0.118352
H	-0.6312529159	 1.7030049501	-1.3440424711	 0.120131
H	-0.8736204763	 1.949203577	 0.3854165687	 0.117718
H	-0.9429448443	-0.4450762516	-0.1850982721	 0.065665
H	 1.3461702115	-0.8971953446	-1.8723798068	 0.073333
H	 3.100215699	-0.6065667223	 0.408540122	 0.089652
H	 2.3623730443	 0.9972613373	 0.0787580029	 0.095993
H	 0.7829319745	-0.3402031107	 2.1175457624	 0.065989
H	 1.9313770764	-2.3993058081	 0.4997619621	 0.065927
H	-0.2392817319	-3.2987086164	 1.2687269948	 0.119843
H	-1.1277560506	-2.3986602145	 0.0290055443	 0.126078
H	 1.0843559785	-4.4721521935	-0.5790348369	 0.069469
41.9796	63.1073	163.6331	182.928	247.8115	275.5137	359.4752	382.9462	462.4188	578.0665	608.1971	732.987	775.4761	789.8511	797.4412	869.1312	889.5581	898.6997	1015.0775	1018.5113	1023.7221	1030.4725	1042.8135	1059.2801	1100.7491	1120.1912	1131.0411	1140.883	1151.0519	1191.8853	1213.5021	1218.8049	1246.9324	1250.218	1274.0695	1292.3083	1410.8633	1421.318	1430.6985	1434.5922	1461.7719	1496.6335	1498.4264	1535.4544	1835.6045	2846.332	3004.6988	3025.8313	3034.2651	3063.3122	3070.1629	3086.8591	3089.2736	3095.7251	3116.5844	3122.1634	3144.49
CC1C2CC1C2CC=O	C[C@H]1[C@H]2C[C@@H]1[C@H]2CC=O	
InChI=1S/C8H12O/c1-5-7-4-8(5)6(7)2-3-9/h3,5-8H,2,4H2,1H3	InChI=1S/C8H12O/c1-5-7-4-8(5)6(7)2-3-9/h3,5-8H,2,4H2,1H3/t5-,6-,7+,8-
