18
gdb 13508	3.11127	1.76625	1.38847	3.3254	67.97	-0.2475	-0.0247	0.2228	956.7142	0.153033	-384.953104	-384.944861	-384.943917	-384.986052	30.508	
C	-0.0274038269	 1.4556244645	-0.1461661632	-0.477137
C	 0.0375566783	-0.0304493913	 0.1400103184	 0.405392
O	 1.1019346475	-0.5873014981	 0.3444906012	-0.335338
C	-1.2743176258	-0.7806514634	 0.1302186316	-0.172395
C	-1.5108551777	-1.4789434352	-1.2596516821	-0.232559
C	-0.973637346	-2.8045999691	-0.6632439636	-0.252431
C	-1.2077521271	-2.2180855772	 0.7570389034	 0.165457
O	-0.3088808646	-2.4837833585	 1.7867871139	-0.435401
H	 0.9776488568	 1.8606214419	-0.2696929312	 0.143826
H	-0.6290011642	 1.6538951573	-1.0397420035	 0.141269
H	-0.5245273422	 1.9639933032	 0.6886264127	 0.148634
H	-2.0817122742	-0.1252890155	 0.4685247667	 0.078143
H	-2.5762382545	-1.5175145613	-1.4970744302	 0.112157
H	-0.9777990354	-1.064368419	-2.1182695152	 0.109031
H	-1.4903221064	-3.7306817108	-0.9241242674	 0.099943
H	 0.0956764319	-2.9239961687	-0.8542440184	 0.118332
H	-2.2008937613	-2.4931273965	 1.1267890763	 0.088783
H	 0.5407801315	-2.1200147324	 1.4963917006	 0.294296
57.5423	130.4065	145.0008	212.0546	246.3354	303.8609	413.097	470.0597	560.909	601.2188	644.0144	672.2227	754.7601	776.3322	877.9893	909.5916	958.9344	959.6042	996.8474	1017.327	1070.2277	1101.2949	1160.3992	1184.954	1189.807	1228.4376	1247.3039	1258.2039	1271.3935	1344.5047	1370.2573	1387.8975	1460.847	1466.4245	1473.9545	1478.0585	1496.8652	1770.6572	3035.3887	3054.7983	3063.2946	3068.1185	3074.1208	3097.0444	3112.9636	3130.6503	3152.2977	3715.5241
CC(=O)C1CCC1O	CC(=O)[C@H]1CC[C@H]1O	
InChI=1S/C6H10O2/c1-4(7)5-2-3-6(5)8/h5-6,8H,2-3H2,1H3	InChI=1S/C6H10O2/c1-4(7)5-2-3-6(5)8/h5-6,8H,2-3H2,1H3/t5-,6-/m1/s1
