17
gdb 11853	6.03464	1.24476	1.14247	2.1516	72.69	-0.2384	0.0323	0.2707	1085.1608	0.141144	-363.842109	-363.834149	-363.833205	-363.874747	29.138	
C	-0.2400546902	 1.4570479881	 0.2421346298	-0.339608
N	-0.2996748586	 0.0023265128	 0.2796175407	-0.328639
C	 0.6106608777	-0.6298850467	 0.8550390126	 0.458067
C	 0.9118585403	-2.0929722479	 1.1084423665	-0.463607
C	 2.1427420292	-1.535057957	 1.8152561942	 0.455595
C	 2.7886020809	-1.8825957907	 3.1084406202	-0.331004
C	 3.5707350744	-1.9483395877	 1.79828488	-0.330998
O	 1.7518745053	-0.1754754955	 1.5137213737	-0.282744
H	 0.637396738	 1.8836406819	 0.7420921614	 0.12524
H	-0.2451885406	 1.7881519505	-0.8022356708	 0.126799
H	-1.1434550953	 1.8640037231	 0.7097481845	 0.126822
H	 0.1863464983	-2.606621602	 1.7424304623	 0.136862
H	 1.101250546	-2.6836998515	 0.2099385775	 0.136859
H	 3.0185506676	-1.0655677547	 3.783446199	 0.132746
H	 2.5066972537	-2.8105770122	 3.5949935638	 0.122432
H	 3.8232728214	-2.921245189	 1.3895887055	 0.122432
H	 4.3091691618	-1.1740547515	 1.6215315791	 0.132746
78.0737	85.1784	174.7444	210.8386	294.9373	310.2324	436.3696	485.8009	560.5141	561.5258	752.8066	778.399	842.3521	885.4313	919.9878	944.2665	988.2842	1040.9394	1049.0405	1050.3967	1075.6312	1084.2964	1132.7348	1151.3203	1171.4749	1184.8486	1225.8778	1274.3815	1385.1826	1440.0329	1450.1602	1467.3591	1494.4103	1497.2116	1507.4184	1855.3614	3016.787	3078.8073	3082.2061	3086.7951	3131.9181	3131.996	3134.1208	3215.5327	3228.8862
CN=C1CC2(CC2)O1	CN=C1CC2(CC2)O1	
InChI=1S/C6H9NO/c1-7-5-4-6(8-5)2-3-6/h2-4H2,1H3	InChI=1S/C6H9NO/c1-7-5-4-6(8-5)2-3-6/h2-4H2,1H3
