19
gdb 31138	1.98571	1.66716	0.96978	1.0507	78.92	-0.1635	0.056	0.2196	1228.2523	0.159008	-419.23857	-419.228551	-419.227607	-419.273153	36.771	
C	 0.160342395	 1.603626821	 0.1616134725	-0.361937
C	-0.0904115002	 0.1044431885	-0.0835468235	-0.327146
C	 0.6484849148	-0.4496348367	-1.2660491769	 0.097141
C	 0.122206637	-0.8160183245	-2.4863626781	 0.307023
O	-1.149655251	-0.8365184801	-2.9672008612	-0.439006
N	 1.1168649783	-1.2319049923	-3.3113438793	-0.307074
C	 2.3324066408	-1.1576041708	-2.6324157308	-0.183233
C	 2.0660503301	-0.6715895434	-1.3772614212	 0.166864
N	 2.9940145725	-0.3468100078	-0.3620911482	-0.605732
H	 1.2287538131	 1.7919109111	 0.2991435434	 0.139159
H	-0.17219678	 2.198188611	-0.6951972434	 0.111344
H	-0.371702569	 1.9560145235	 1.0520642447	 0.0998
H	 0.176482761	-0.4534204685	 0.8260446294	 0.095201
H	-1.1703401103	-0.06776039	-0.2041078228	 0.071361
H	-1.7299106756	-0.4731927524	-2.291165717	 0.303286
H	 0.9754307027	-1.5573859721	-4.2501466807	 0.261041
H	 3.2558748315	-1.4399855593	-3.1088462003	 0.101129
H	 3.9059239347	-0.7480490603	-0.5454786887	 0.234598
H	 2.6859700848	-0.673235077	 0.5474181821	 0.236181
75.4207	117.618	183.5794	190.2382	195.9875	219.3689	224.5459	288.102	304.4743	393.6698	419.3901	522.743	567.3071	576.7439	636.7325	689.9925	717.1044	750.5915	791.7268	823.5759	962.3052	995.2463	1072.8108	1087.1954	1100.7893	1161.7394	1181.6389	1239.7031	1295.4213	1302.1464	1351.5647	1375.0736	1406.8701	1444.7367	1484.2666	1495.4972	1511.5177	1568.164	1593.0708	1644.2271	1667.2957	2986.2197	3009.578	3032.6417	3100.6026	3118.2164	3272.0477	3508.318	3597.9269	3701.0862	3839.449
CCC1=C(O)NC=C1N	CCc1c(O)[nH]cc1N	
InChI=1S/C6H10N2O/c1-2-4-5(7)3-8-6(4)9/h3,8-9H,2,7H2,1H3	InChI=1S/C6H10N2O/c1-2-4-5(7)3-8-6(4)9/h3,8-9H,2,7H2,1H3
