18
gdb 93384	2.8682	1.50387	1.14049	4.18	71.92	-0.2427	0.0016	0.2443	1072.9174	0.149039	-439.090649	-439.0827	-439.081755	-439.123178	30.666	
O	-0.1579901087	 1.4612842945	 0.398095694	-0.431375
C	 0.0308878405	 0.0903441692	 0.0754451937	 0.107496
C	 0.9141352907	-0.6467543976	 1.0967046202	-0.25971
C	 0.748606256	-2.1742773134	 0.9546865441	-0.308496
C	-0.683236245	-2.4799556987	 1.3558883278	 0.364912
O	-0.9983209191	-3.1670634481	 2.2966313112	-0.323098
N	-1.6373268283	-1.8249171512	 0.5569742471	-0.101345
C	-2.3237058992	-0.6408887001	 1.0594312419	-0.235368
C	-1.3474758939	-0.5402523375	-0.0704343986	-0.017419
H	 0.699817674	 1.8977278932	 0.3630839011	 0.285383
H	 0.5177642102	-0.0001070906	-0.9093731708	 0.07482
H	 1.9602454172	-0.35254822	 0.9576865539	 0.101087
H	 0.6294060777	-0.3354100482	 2.1087484972	 0.12368
H	 0.9348034331	-2.4800167857	-0.0820565613	 0.119971
H	 1.4246632093	-2.7263972472	 1.60873163	 0.12843
H	-3.3885485465	-0.5800110388	 0.8549491316	 0.12909
H	-2.0222400288	-0.2703711139	 2.0350669998	 0.138392
H	-1.7728149292	-0.4433870457	-1.0669317926	 0.10355
70.7444	176.1876	224.8959	256.2155	286.051	356.7538	393.7505	434.0873	500.1365	583.2657	636.0716	693.5775	743.6597	774.6675	874.0075	933.3854	955.8766	976.3655	1008.2602	1049.0597	1062.1362	1091.8142	1115.6977	1122.3385	1157.8318	1175.2181	1190.0239	1228.636	1261.5021	1319.4735	1338.2451	1367.5475	1380.1927	1422.3142	1442.7279	1473.1329	1502.6153	1518.0954	1817.2772	2961.9622	3034.9662	3041.5776	3077.7672	3116.8993	3128.6701	3129.4867	3205.6472	3809.8835
OC1CCC(=O)N2CC12	O[C@H]1CCC(=O)N2C[C@@H]12	
InChI=1S/C6H9NO2/c8-5-1-2-6(9)7-3-4(5)7/h4-5,8H,1-3H2	InChI=1S/C6H9NO2/c8-5-1-2-6(9)7-3-4(5)7/h4-5,8H,1-3H2/t4-,5-,7?/m0/s1
