15
gdb 34548	4.31821	1.37863	1.26225	1.8025	78.03	-0.2461	-0.0439	0.2022	995.1298	0.113681	-379.591124	-379.584458	-379.583514	-379.622077	26.884	
C	 0.0485994496	-1.1039908282	 0.1430178187	-0.342702
C	-0.0369249085	 0.0922762811	 0.0539601299	 0.247593
C	-0.1012095684	 1.5068265284	-0.0504510764	 0.191026
N	-1.1814996307	 2.1934445969	-0.0946406059	-0.258147
C	-0.7351242192	 3.5896567448	-0.0352989327	-0.04458
C	-0.1619539587	 3.7957839115	 1.4138411104	-0.237172
C	 1.2057108036	 3.3999379566	 0.8576946872	-0.047767
C	 0.7442073868	 3.5887623767	-0.5421360935	-0.058063
N	 1.141716827	 2.2437498887	-0.1165514148	-0.188821
H	 0.1123859056	-2.1616060047	 0.2197817592	 0.202284
H	-1.4705281597	 4.2948821828	-0.4131151617	 0.087421
H	-0.1526481377	 4.8538879141	 1.6859696132	 0.118005
H	-0.6176441681	 3.2007103729	 2.2094155513	 0.115553
H	 2.1742358683	 3.5601014072	 1.3140269271	 0.110884
H	 1.1986000901	 4.0471626511	-1.412744572	 0.104488
122.4025	161.0054	344.0688	389.1144	475.4256	508.8049	581.4687	644.9132	656.9695	669.0254	714.4952	782.8958	822.6249	838.7382	869.7174	911.4839	918.6141	945.3409	978.4847	1005.7671	1038.6363	1088.1733	1130.902	1158.3383	1189.7069	1212.7558	1248.8068	1272.171	1295.2789	1335.2841	1483.4272	1642.4082	2239.955	3062.3807	3123.0929	3154.6173	3180.5735	3201.3541	3500.9107
C#CC1=NC2CC3C2N13	C#C[C]1[N][C@H]2C[C@@H]3[C@H]2N13	
InChI=1S/C7H6N2/c1-2-6-8-4-3-5-7(4)9(5)6/h1,4-5,7H,3H2	InChI=1S/C7H6N2/c1-2-6-8-4-3-5-7(4)9(5)6/h1,4-5,7H,3H2/t4-,5+,7-,9?/m0/s1
