15
gdb 125420	3.04591	1.48993	1.00926	5.4813	74.38	-0.2309	-0.0791	0.1518	1116.2176	0.112393	-450.109259	-450.101041	-450.100097	-450.142594	30.685	
C	-0.0662469843	 1.5076907884	 0.015486273	-0.497926
C	-0.0231906678	 0.0086350246	-0.0268091422	 0.300272
N	-0.0251171902	-0.5930723553	-1.1590046961	-0.298158
C	-0.001816111	-1.9834444959	-1.185486932	 0.445748
N	 0.0785223997	-2.6108841219	-2.2825923693	-0.510493
O	-0.0982003951	-2.6839154113	 0.011441695	-0.27334
N	-0.0123100578	-2.0479216319	 1.2501040771	-0.160124
C	 0.0085266105	-0.7588649299	 1.2298018525	 0.336421
N	-0.0306944749	-0.0876531083	 2.4415656566	-0.560905
H	 0.8530687979	 1.9148853706	 0.4561234475	 0.138833
H	-0.1661543499	 1.8940077719	-0.9986109489	 0.165198
H	-0.9018403144	 1.8534078896	 0.6329121509	 0.156806
H	 0.0947753677	-3.6166391814	-2.10919316	 0.230611
H	 0.0908286948	-0.7053654528	 3.2344104372	 0.266979
H	 0.5523832948	 0.7348671837	 2.5019491885	 0.260078
32.5227	171.4392	209.5205	293.6021	299.2127	321.1234	364.4808	410.6236	486.6771	523.8097	581.4593	641.2544	690.0936	709.6511	773.4911	803.0867	864.5447	879.5035	972.9203	1005.6999	1050.1043	1089.3663	1164.3183	1240.7589	1306.6672	1399.6496	1428.8188	1470.224	1478.2203	1614.7174	1645.0475	1714.5491	1724.8974	3027.8999	3090.1984	3160.3429	3492.4817	3548.195	3653.7263
CC1=NC(=N)ON=C1N	C[C]1N=C([NH])ON=C1N	
InChI=1S/C4H6N4O/c1-2-3(5)8-9-4(6)7-2/h6H,1H3,(H2,5,8)	InChI=1S/C4H6N4O/c1-2-3(5)8-9-4(6)7-2/h6H,1H3,(H2,5,8)
