20
gdb 119118	2.34978	1.15192	0.92251	2.074	75.45	-0.2456	0.0174	0.263	1364.5997	0.169399	-440.310195	-440.300191	-440.299247	-440.345673	36.396	
C	-0.0525684828	 1.6061253737	-0.225095567	-0.383465
C	-0.0598863241	 0.0791736712	-0.3263934005	-0.171867
C	-1.3271675882	-0.5439420625	 0.2757433022	-0.26073
C	-1.3599917327	-2.0500906563	 0.1519045197	 0.308662
C	-2.6076596398	-2.7655925852	-0.1776151531	-0.216705
O	-1.5899325218	-2.5885627005	-1.1654801523	-0.287043
C	-0.3243030615	-2.8006299047	 0.9769971389	 0.338436
N	 0.104070883	-3.9576665442	 0.4061291432	-0.529429
O	 0.0437164647	-2.3875031198	 2.060653409	-0.371188
H	 0.859885246	 2.0277784113	-0.6576721955	 0.112616
H	-0.9054718845	 2.0443937399	-0.7556179227	 0.112373
H	-0.1084065778	 1.9330079267	 0.8190276348	 0.119107
H	 0.0214376509	-0.2251106462	-1.3769171689	 0.104989
H	 0.8169951294	-0.326750452	 0.191023184	 0.116042
H	-1.3924455766	-0.2968735571	 1.3405477977	 0.128334
H	-2.2149545969	-0.1325190679	-0.2178462668	 0.094838
H	-2.7510906449	-3.7883825394	 0.1656897356	 0.124425
H	-3.5176358303	-2.1899238506	-0.3386953537	 0.124227
H	-0.1171403454	-4.1359929493	-0.5598872571	 0.273588
H	 0.8400399433	-4.4714665372	 0.8611231725	 0.262789
64.0035	76.8077	80.6386	149.6963	237.9035	249.7249	287.0271	329.6092	340.3768	362.4101	447.3146	513.798	533.3157	638.0794	716.5434	740.8542	771.3758	821.486	889.3806	900.8729	931.5302	966.6853	1050.7384	1077.1446	1105.2777	1120.7616	1139.437	1171.2042	1217.6187	1274.3639	1302.4187	1331.8929	1363.8491	1394.5858	1410.6031	1414.8045	1464.8683	1492.9937	1500.2068	1507.6855	1518.4789	1594.5182	1796.735	3029.087	3030.522	3042.3288	3064.4004	3088.9011	3090.3816	3102.1773	3104.0479	3180.9932	3593.1289	3732.0325
CCCC1(CO1)C(N)=O	CCC[C@]1(CO1)C(=O)N	
InChI=1S/C6H11NO2/c1-2-3-6(4-9-6)5(7)8/h2-4H2,1H3,(H2,7,8)	InChI=1S/C6H11NO2/c1-2-3-6(4-9-6)5(7)8/h2-4H2,1H3,(H2,7,8)/t6-/m0/s1
