17
gdb 83183	3.22555	1.34452	1.17352	2.1175	67.68	-0.2333	-0.0206	0.2126	1063.7061	0.136386	-458.957651	-458.950022	-458.949078	-458.989928	29.79	
O	 0.4953787482	 1.0044188081	 0.3546984577	-0.419907
C	 0.0839238447	-0.2951490102	 0.0852097297	 0.093515
C	-1.4038794959	-0.6091361057	-0.0084185974	-0.134117
C	-2.401339509	 0.5364806373	 0.0991149319	-0.336072
C	-3.0054326691	 0.8613591253	-1.2566364937	 0.361315
O	-4.1616253705	 1.1579357807	-1.4339400541	-0.302952
C	-2.0338383946	 0.7787737831	-2.4397371785	-0.175662
O	-0.6829587346	 0.5602012883	-2.0482168317	-0.263615
C	-0.5337091071	-0.5843953569	-1.2516485439	 0.017697
H	 0.4367605946	 1.4873849129	-0.4812151497	 0.298427
H	 0.729958349	-1.0452734189	 0.5310975889	 0.107646
H	-1.7328715494	-1.5788226114	 0.3491342803	 0.102991
H	-3.2105898229	 0.3205598791	 0.7982757482	 0.132555
H	-1.8779670109	 1.4317579398	 0.463697744	 0.144419
H	-2.3811807024	-0.0105152016	-3.1227464142	 0.130309
H	-2.0593173458	 1.7255105049	-2.9862586449	 0.145769
H	-0.3031145043	-1.4952958747	-1.8011419226	 0.097681
71.8115	160.1911	214.0152	305.5123	380.252	434.3448	455.9847	461.1478	536.6979	584.1936	635.0852	680.7359	762.4745	779.6345	795.2814	906.3372	929.6985	994.4015	1009.5479	1062.9241	1077.506	1103.3842	1116.4007	1158.8785	1177.0271	1231.8935	1237.4553	1270.2126	1291.1056	1332.6357	1346.1562	1354.6774	1383.9713	1439.5592	1458.2314	1461.7113	1827.2673	3005.6324	3018.5436	3101.9423	3116.344	3121.6442	3155.4097	3170.6091	3748.1589
OC1C2CC(=O)COC12	O[C@H]1[C@H]2CC(=O)CO[C@@H]12	
InChI=1S/C6H8O3/c7-3-1-4-5(8)6(4)9-2-3/h4-6,8H,1-2H2	InChI=1S/C6H8O3/c7-3-1-4-5(8)6(4)9-2-3/h4-6,8H,1-2H2/t4-,5+,6-/m1/s1
