19
gdb 72010	2.47439	1.94603	1.4461	3.1663	78.86	-0.2313	-0.0027	0.2286	969.6103	0.160943	-385.883282	-385.876028	-385.875084	-385.914622	29.715	
C	 0.0288901983	 1.5560009055	-0.0591248948	-0.507358
C	 0.0095333044	 0.0495366413	-0.0727347569	 0.347766
C	 0.4240770576	-0.8253838058	-1.2691311616	-0.290651
C	-0.342145164	-1.9386910029	-0.5137623664	-0.046576
C	 0.5722648693	-2.1562560399	 0.7159759838	-0.226362
C	 0.4021159013	-0.7239075526	 1.2737576403	-0.199453
C	-1.1098208619	-0.7315780308	 1.5535186562	 0.4355
O	-1.8033699839	-0.5039080202	 2.5030235379	-0.337884
C	-1.3220463723	-0.8304287905	 0.0565625789	-0.197288
H	 1.0582809442	 1.9328454835	-0.053561786	 0.123038
H	-0.4723047243	 1.9677810567	-0.9412636152	 0.120386
H	-0.4739954631	 1.9521306003	 0.830045754	 0.134622
H	-0.0901624475	-0.5027903617	-2.1791477156	 0.101392
H	 1.4872632059	-0.9813673901	-1.4830280475	 0.0918
H	-0.7308507005	-2.8174726903	-1.0261225556	 0.073385
H	 0.2171576814	-2.9215344203	 1.4130505006	 0.108971
H	 1.5987386614	-2.3982893061	 0.4265814844	 0.102103
H	 1.1227777025	-0.3303302685	 1.9874925626	 0.080733
H	-2.2522490785	-0.6123170376	-0.4631955692	 0.085876
119.5489	218.0025	245.5104	300.8268	353.1041	446.5099	496.0109	539.4603	606.3932	646.3129	717.6437	784.0914	790.2039	849.7491	884.7531	902.4594	925.6653	955.161	975.4728	986.2026	1023.9738	1050.852	1065.4332	1085.7756	1117.6488	1147.5356	1167.8161	1178.2094	1203.6442	1215.3471	1233.9223	1266.7071	1293.264	1311.3568	1326.072	1416.2588	1488.3828	1494.6279	1496.9704	1520.507	1883.5523	3025.2632	3036.8202	3050.6495	3089.2942	3094.3556	3097.7465	3098.5538	3125.8125	3145.2289	3151.234
CC12CC3CC1C(=O)C23	C[C@@]12C[C@H]3C[C@@H]1C(=O)[C@@H]23	
InChI=1S/C8H10O/c1-8-3-4-2-5(8)7(9)6(4)8/h4-6H,2-3H2,1H3	InChI=1S/C8H10O/c1-8-3-4-2-5(8)7(9)6(4)8/h4-6H,2-3H2,1H3/t4-,5-,6+,8-/m1/s1
