16
gdb 18747	3.05473	2.21822	1.56139	4.0561	64.65	-0.235	-0.0173	0.2177	832.0043	0.129919	-383.725076	-383.717799	-383.716855	-383.757132	27.479	
O	-0.132766549	 1.4443131194	 0.4589651952	-0.416268
C	-0.0000702154	 0.0948378448	 0.0843590015	 0.126987
C	 0.4579714268	-0.932147453	 1.1685439923	-0.270401
C	-0.8854421469	-1.6921532622	 1.0212796905	-0.02563
C	-1.9898539991	-1.222661886	 2.0076077067	-0.357374
C	-2.427283966	-0.1731875343	 0.9647453328	 0.43114
O	-3.3215251724	 0.6175220294	 0.9183315908	-0.293154
C	-1.3664499622	-0.6312999864	-0.0495950256	-0.187447
H	 0.7457125618	 1.8343089075	 0.5134779303	 0.28712
H	 0.5854111907	-0.0061077609	-0.8394416892	 0.07689
H	 1.3422606434	-1.5074218096	 0.8839479311	 0.10194
H	 0.6268462905	-0.4904367209	 2.1548193943	 0.102431
H	-0.8419683882	-2.7579149973	 0.8054599047	 0.07706
H	-2.7827588137	-1.9594413499	 2.177426324	 0.130884
H	-1.6641999879	-0.8374035987	 2.9783028431	 0.126359
H	-1.7211442624	-0.8467763719	-1.0581401626	 0.089465
43.8394	122.0961	260.8473	331.4478	383.0543	410.3106	437.3093	553.4779	580.8731	703.8161	762.3351	813.3181	844.0986	902.3389	924.0223	955.369	1013.649	1037.6802	1053.0563	1074.0456	1117.2036	1134.3821	1176.0646	1187.6	1220.5879	1228.5011	1261.5408	1279.329	1297.7673	1327.7454	1416.4976	1432.7488	1474.8358	1893.7604	3001.5423	3047.7957	3055.3971	3101.2161	3108.7693	3110.5054	3131.6143	3815.5907
OC1CC2CC(=O)C12	O[C@H]1C[C@H]2CC(=O)[C@@H]12	
InChI=1S/C6H8O2/c7-4-1-3-2-5(8)6(3)4/h3-4,6-7H,1-2H2	InChI=1S/C6H8O2/c7-4-1-3-2-5(8)6(3)4/h3-4,6-7H,1-2H2/t3-,4-,6+/m0/s1
