18
gdb 18402	3.33107	2.18005	1.48687	1.9903	67.37	-0.2416	0.0845	0.3261	863.8448	0.156191	-384.922883	-384.916135	-384.915191	-384.953552	26.933	
C	-0.0738921373	 1.4870940809	 0.0893889605	-0.324404
C	 1.2864992525	 0.8179356952	 0.0299284418	-0.044848
C	 2.1869643702	 0.7563243428	 1.2545815952	-0.227678
C	 2.6403237156	-0.6696177489	 1.5929953816	-0.068799
O	 1.628707225	-1.4379100183	 2.2315588396	-0.227438
C	 0.5395204147	-1.8008415375	 1.4359044312	 0.021044
O	-0.3369911275	-0.7346615948	 1.140696132	-0.241418
C	 0.0220243233	-0.0043067367	 0.0010440423	 0.108633
H	-0.3791316271	 1.8892014318	 1.049314763	 0.127258
H	-0.4348681204	 2.0373813102	-0.7722757679	 0.112944
H	 1.8149282149	 0.8865115101	-0.9174917464	 0.086183
H	 3.0717384982	 1.3828591893	 1.0882669662	 0.098728
H	 1.6755423227	 1.1586679127	 2.1347988234	 0.116193
H	 2.9907567317	-1.1860506878	 0.6837536074	 0.085862
H	 3.4709765462	-0.6439878606	 2.3053496705	 0.106105
H	 0.8843456089	-2.2717933606	 0.4985112065	 0.073587
H	-0.0367050377	-2.514687546	 2.0293065339	 0.112807
H	-0.2578855841	-0.4861438817	-0.9358310607	 0.08524
150.1593	204.3758	303.1274	338.9044	387.6286	411.1346	465.8187	581.3821	654.7573	756.0452	792.6002	834.2902	863.8731	960.5389	967.9582	977.0636	1028.1	1049.6193	1055.6138	1091.9723	1121.92	1133.3862	1154.6675	1158.2868	1203.1063	1251.4922	1258.9716	1295.1908	1341.8683	1351.3964	1385.7192	1408.7307	1411.4186	1450.624	1467.6455	1484.9004	1489.0801	1501.7721	2948.2993	2970.7141	3033.7155	3077.1162	3084.1871	3096.3641	3104.1405	3135.3393	3139.4759	3225.6144
C1C2CCOCOC12	C1[C@H]2CCOCO[C@@H]12	
InChI=1S/C6H10O2/c1-2-7-4-8-6-3-5(1)6/h5-6H,1-4H2	InChI=1S/C6H10O2/c1-2-7-4-8-6-3-5(1)6/h5-6H,1-4H2/t5-,6+/m1/s1
