18
gdb 26847	2.9224	1.37735	0.94717	4.7518	84.68	-0.2038	-0.0333	0.1704	1223.0035	0.148302	-402.036872	-402.028003	-402.027059	-402.071387	32.351	
C	 0.0824088524	 1.5277884988	-0.0760204606	-0.497178
C	-0.0506498522	 0.0321469223	-0.0429187088	 0.325009
C	-1.2321695154	-0.6564781416	 0.0621639066	 0.163022
C	-2.5756264115	 0.0290324085	 0.1596153326	-0.507346
C	-1.1468036049	-2.0824803131	 0.0767228336	-0.09594
C	 0.029905767	-2.7619329693	-0.0074372216	-0.272584
C	 1.291368859	-2.0626958935	-0.1190876417	 0.422624
O	 2.4106337276	-2.5448691632	-0.2016029258	-0.407978
N	 1.1241791468	-0.6639638069	-0.1266784225	-0.41621
H	 0.7030558002	 1.8832605135	 0.755171694	 0.144223
H	 0.5622979874	 1.856814538	-1.0054764603	 0.144214
H	-0.8881325718	 2.0174465132	-0.0057812058	 0.144771
H	-2.7956007364	 0.6482954499	-0.7174658658	 0.130472
H	-3.3729885924	-0.7149022302	 0.2347030201	 0.126804
H	-2.6545397101	 0.674664139	 1.0417031648	 0.130472
H	-2.0747351761	-2.6432304032	 0.159548578	 0.102006
H	 0.0729922146	-3.8437174232	 0.0053435385	 0.112291
H	 1.9958422357	-0.156362959	-0.2041990053	 0.251326
35.1255	80.3478	120.924	189.2968	295.1084	301.4349	329.0838	433.3664	473.2086	503.4551	570.4725	585.911	704.7951	734.4091	761.0393	762.6902	849.1368	912.958	992.2243	998.0606	1038.1416	1046.3713	1072.061	1133.6873	1197.5752	1223.9996	1248.9802	1318.3113	1410.6719	1421.602	1446.9042	1457.6262	1479.0509	1484.9401	1497.5131	1507.6743	1591.6166	1664.9949	1781.7231	3026.1595	3029.8147	3075.6005	3079.2296	3110.5753	3155.8821	3156.5158	3216.2022	3590.7514	35.1175	80.3459	120.9242	189.2966	295.1084	301.4349	329.0839	433.3664	473.2087	503.4552	570.4725	585.9111	704.7952	734.4091	761.0394	762.6902	849.1369	912.958	992.2243	998.0608	1038.1419	1046.3717	1072.0614	1133.6875	1197.5754	1223.9996	1248.9803	1318.3115	1410.6723	1421.6022	1446.9042	1457.6263	1479.0515	1484.9406	1497.5136	1507.6748	1591.6167	1664.995	1781.7238	3026.1595	3029.8147	3075.6005	3079.2296	3110.5753	3155.8821	3156.5158	3216.2022	3590.7513
CC1=C(C)C=CC(=O)N1	Cc1c(C)ccc(=O)[nH]1	
InChI=1S/C7H9NO/c1-5-3-4-7(9)8-6(5)2/h3-4H,1-2H3,(H,8,9)	InChI=1S/C7H9NO/c1-5-3-4-7(9)8-6(5)2/h3-4H,1-2H3,(H,8,9)
