25
gdb 57422	2.52339	1.10122	1.04313	1.653	89.19	-0.2519	0.0755	0.3273	1384.6766	0.225012	-389.491865	-389.48063	-389.479685	-389.52744	42.565	
C	 0.4096099467	 2.2789477551	-0.7939265968	-0.428245
C	 0.0456189668	 0.7860021793	-0.7654715684	 0.220492
C	 0.0261586795	 0.2708717324	 0.6860378939	-0.405482
C	-1.3567937395	 0.6163385177	-1.3919293091	-0.40159
C	 0.9821513113	-0.1194943565	-1.5702907868	 0.026711
O	 1.4518621274	 0.3011113321	-2.855955465	-0.308697
C	 2.432062856	-0.0512215007	-1.8567362002	 0.376458
C	 3.364415037	 1.0552836421	-1.4084172874	-0.466322
C	 3.1465957389	-1.360345813	-2.1410378892	-0.446764
H	 1.2808611974	 2.5038098569	-0.1739482077	 0.111839
H	 0.6109422404	 2.610572175	-1.8159459694	 0.131199
H	-0.4259529353	 2.868992431	-0.4029701422	 0.105355
H	-0.7032494081	 0.8278735762	 1.2837517369	 0.112631
H	-0.2497541122	-0.7887317973	 0.7308791683	 0.110289
H	 1.0065535783	 0.3834667551	 1.1607445392	 0.11246
H	-1.3622064214	 0.9625754786	-2.4302223749	 0.128174
H	-1.6727010126	-0.4325267596	-1.3849950974	 0.10771
H	-2.1011940442	 1.1947954658	-0.8348793412	 0.10704
H	 0.5839892682	-1.140331852	-1.5864243304	 0.071717
H	 2.8905719764	 2.0329811058	-1.4437737497	 0.134338
H	 3.7240167042	 0.8727016896	-0.389624049	 0.118289
H	 4.2418395583	 1.0828396523	-2.0643517358	 0.118727
H	 3.9018836019	-1.2175892078	-2.9217895866	 0.12243
H	 3.6589965145	-1.7269838042	-1.2445695688	 0.117228
H	 2.4462643898	-2.1272967338	-2.4800612424	 0.124013
51.9833	125.1458	144.3958	196.7487	203.203	244.2217	263.198	271.8666	280.815	326.3652	340.0813	379.5885	386.8102	403.1088	438.9487	538.3104	553.3405	709.2968	754.8187	822.8806	922.3651	926.2808	935.687	945.0167	957.4532	963.8929	1010.2698	1038.5008	1055.4145	1090.2311	1136.5453	1152.8211	1226.7044	1242.537	1257.7269	1291.263	1377.6801	1394.4658	1398.1235	1406.6902	1418.1865	1423.9275	1465.7347	1474.4017	1480.5366	1485.067	1487.0434	1493.5858	1500.1637	1505.8313	1510.6352	1516.3608	1530.0806	3025.0867	3027.3228	3030.7656	3034.2109	3038.772	3042.3208	3088.2831	3092.1534	3095.4635	3097.469	3098.3696	3103.7798	3107.6137	3123.1798	3126.0883	3181.6545
CC(C)(C)C1OC1(C)C	CC(C)(C)[C@H]1OC1(C)C	
InChI=1S/C8H16O/c1-7(2,3)6-8(4,5)9-6/h6H,1-5H3	InChI=1S/C8H16O/c1-7(2,3)6-8(4,5)9-6/h6H,1-5H3/t6-/m1/s1
