18
gdb 62235	5.43301	0.57815	0.53719	1.6102	74.37	-0.2695	-0.0399	0.2296	1943.0612	0.144022	-439.097107	-439.086655	-439.08571	-439.13441	34.761	
C	-0.0530401003	 1.5567338398	-0.048718137	-0.38947
C	-0.0192681757	 0.0215656349	 0.0683662015	-0.153086
C	 0.7052229697	-0.4523633357	 1.3402653417	-0.053655
O	 2.0426736898	-0.0158749435	 1.250461078	-0.252627
C	 2.8261533737	-0.3608079871	 2.3665995103	-0.149422
C	 4.2352196529	 0.1598026713	 2.1352206042	 0.139818
O	 5.1271010852	 0.0318420343	 2.9292160032	-0.230589
C	-1.3705409257	-0.544273729	 0.0408716451	 0.257458
N	-2.4382612753	-0.9862003249	 0.0343191956	-0.314718
H	 0.9675276831	 1.9412544576	-0.0131760813	 0.14341
H	-0.5181470574	 1.8648687056	-0.9876354345	 0.13937
H	-0.6227153033	 1.9943467051	 0.7761218808	 0.136006
H	 0.5291279187	-0.3902268472	-0.7878383831	 0.140222
H	 0.2132215704	-0.0321425951	 2.2320007908	 0.112274
H	 0.6571770649	-1.5490430111	 1.4181713568	 0.116039
H	 2.4323761886	 0.0772088538	 3.2984757515	 0.130233
H	 2.8713302684	-1.4524578315	 2.5158342601	 0.13043
H	 4.3665845125	 0.6724517629	 1.1569571662	 0.098306
41.7559	55.6467	83.7437	100.8084	133.5208	170.8304	216.7595	241.475	305.8964	374.0267	399.4848	552.6486	563.8036	578.5321	741.723	831.3949	932.8499	940.2198	1015.0895	1054.6216	1103.9352	1111.9535	1129.2584	1168.3428	1177.9439	1237.4499	1266.0819	1307.1274	1341.3237	1348.473	1398.1832	1406.4423	1433.6367	1481.1755	1494.7578	1500.3669	1523.0509	1848.3612	2360.5397	2900.7789	2968.2555	2979.0499	3001.507	3014.7015	3045.8956	3056.185	3129.7641	3149.083
CC(COCC=O)C#N	C[C@@H](COCC=O)C#N	
InChI=1S/C6H9NO2/c1-6(4-7)5-9-3-2-8/h2,6H,3,5H2,1H3	InChI=1S/C6H9NO2/c1-6(4-7)5-9-3-2-8/h2,6H,3,5H2,1H3/t6-/m1/s1
