19
gdb 84673	2.62296	1.84858	1.46083	1.9384	78.59	-0.2376	0.0101	0.2477	961.4563	0.162065	-385.863702	-385.856482	-385.855538	-385.895093	29.684	
O	 0.0186071846	 1.43314586	 0.0312078037	-0.436868
C	 0.0300143421	 0.0003718232	 0.0118214876	 0.058645
C	 0.9509991546	-0.5640942482	 1.0670966107	-0.098774
C	 0.5230809135	-1.3364171161	 2.0654593486	-0.064254
C	-0.9380094345	-1.6467368307	 2.2280650572	-0.07932
C	-1.8176658976	-0.3797596174	 2.5620434484	-0.242994
C	-2.4054408686	-0.4396382992	 1.1529081146	-0.082309
C	-1.7184333618	-1.7795301518	 0.8956290891	-0.086985
C	-1.3718516117	-0.5930532948	 0.0499273931	-0.042266
H	-0.3782908811	 1.6984760138	 0.8680398394	 0.27791
H	 0.4605435811	-0.2324012389	-0.9709696831	 0.089352
H	 1.9989534843	-0.2930558832	 0.9725587166	 0.093156
H	 1.218036263	-1.7042282037	 2.8161442501	 0.088957
H	-1.107824919	-2.4686951997	 2.9239265493	 0.073795
H	-2.5749397071	-0.6081208069	 3.3168533594	 0.105442
H	-1.2777678636	 0.5221152513	 2.8691609168	 0.085475
H	-3.4154812915	-0.1422373407	 0.8963671104	 0.085856
H	-2.1194449162	-2.7039934509	 0.497908367	 0.083799
H	-1.8540308106	-0.597044116	-0.924491029	 0.091383
102.2007	202.1784	280.0372	300.8653	362.1935	454.6053	494.9252	563.0128	633.9045	704.9614	727.2583	781.6007	787.7662	845.3207	846.3425	893.6131	932.3598	972.5487	988.4817	1002.0894	1013.863	1039.6882	1046.7705	1057.8528	1076.2136	1093.9115	1147.8198	1182.7072	1186.6915	1221.5237	1255.7358	1262.6414	1291.9535	1325.9579	1339.5433	1367.0745	1405.6938	1420.0421	1439.2321	1496.9872	1710.1586	3019.2659	3038.1701	3090.5895	3104.696	3139.6762	3149.9989	3173.2048	3175.2452	3186.0608	3803.2036
OC1C=CC2CC3C2C13	O[C@H]1C=C[C@H]2C[C@@H]3[C@H]2[C@H]13	
InChI=1S/C8H10O/c9-6-2-1-4-3-5-7(4)8(5)6/h1-2,4-9H,3H2	InChI=1S/C8H10O/c9-6-2-1-4-3-5-7(4)8(5)6/h1-2,4-9H,3H2/t4-,5+,6-,7-,8-/m0/s1
