20
gdb 113658	2.90969	1.12957	0.96813	2.4369	76.92	-0.2484	0.0027	0.2511	1312.3667	0.169768	-440.290253	-440.280452	-440.279508	-440.326253	35.093	
C	-0.072604078	 1.2712586246	 0.5578925515	-0.370978
C	-0.1505928447	-0.1675215712	 0.0519699477	-0.282978
C	-1.5389171492	-0.7730054591	 0.1987073194	 0.390778
O	-2.4346987263	-0.2394829515	 0.8337166868	-0.383926
N	-1.7287768182	-1.9430505288	-0.5115317597	-0.079935
C	-1.0221638918	-3.2013352404	-0.3470867435	-0.260775
C	-2.5049220955	-3.0953650814	-0.1223335933	-0.011764
C	-3.0935120765	-3.215233528	 1.2760910239	-0.107711
O	-2.2447235462	-2.7045957291	 2.2809517458	-0.42132
H	 0.9487037747	 1.6526308799	 0.4722385873	 0.109675
H	-0.7340589962	 1.9250946806	-0.0166943492	 0.129854
H	-0.3820288566	 1.3330931254	 1.6035880674	 0.133442
H	 0.1535955592	-0.2450265539	-0.9976232381	 0.126469
H	 0.5458832032	-0.8096554129	 0.6085406244	 0.127676
H	-0.6323326342	-3.6630960567	-1.2501889802	 0.123149
H	-0.4116816444	-3.3054552256	 0.5461264042	 0.143497
H	-3.1596019346	-3.4730303008	-0.90765699	 0.101827
H	-4.0757372253	-2.7244893118	 1.2911728768	 0.115643
H	-3.2541586613	-4.2789586371	 1.4900899529	 0.114817
H	-2.3610511582	-1.7447595125	 2.2616466358	 0.30256
21.3231	74.7733	126.1038	172.7485	196.1656	210.6273	254.4961	294.1048	350.9034	430.4095	554.3163	565.821	626.0516	685.4565	732.4044	809.1888	815.9789	886.3847	957.9022	1002.3994	1022.3494	1055.2618	1085.5201	1096.4552	1106.171	1129.0405	1132.8576	1162.186	1177.0175	1251.575	1281.7326	1339.556	1376.4252	1413.6088	1414.4996	1431.1361	1440.188	1458.3082	1491.7991	1492.6749	1500.2224	1501.138	1742.8221	3015.0985	3025.6787	3052.1476	3061.1435	3070.9957	3107.1712	3113.5291	3121.6013	3132.406	3202.3932	3747.3426
CCC(=O)N1CC1CO	CCC(=O)N1C[C@H]1CO	
InChI=1S/C6H11NO2/c1-2-6(9)7-3-5(7)4-8/h5,8H,2-4H2,1H3	InChI=1S/C6H11NO2/c1-2-6(9)7-3-5(7)4-8/h5,8H,2-4H2,1H3/t5-,7?/m0/s1
