19
gdb 92871	2.3955	1.55594	1.12591	2.518	78.38	-0.2344	-0.0537	0.1807	1130.3195	0.159526	-423.064179	-423.055453	-423.054509	-423.097438	33.155	
C	 0.053630575	 1.5923792127	-0.0196001878	-0.408596
C	 0.0424626169	 0.0613970049	-0.0373558534	-0.009698
C	 0.7511455805	-0.5143111254	-1.275565718	-0.253815
C	 0.8621690817	-2.009717751	-1.230591183	-0.053858
C	 0.8105494959	-2.7191327479	-0.0945542884	-0.139941
C	 0.677339543	-2.0693291765	 1.2191720429	 0.343398
O	 0.6797038499	-2.6914919107	 2.2656958296	-0.347239
C	 0.6456086631	-0.5318994113	 1.2367055409	 0.028241
O	 1.9957887163	-0.0769305358	 1.345654745	-0.440768
H	 1.075629535	 1.970683508	 0.0649208303	 0.137772
H	-0.3909734989	 1.9969929334	-0.9346928798	 0.109566
H	-0.5192171815	 1.97790391	 0.8301419883	 0.114333
H	-1.0001825907	-0.2846169182	-0.0671180348	 0.083146
H	 0.2285888952	-0.2064910099	-2.188777267	 0.107896
H	 1.7626900685	-0.0899081997	-1.3490398149	 0.14006
H	 1.007438854	-2.5259754955	-2.1773467491	 0.10902
H	 0.8961850512	-3.801238777	-0.0845426508	 0.106483
H	 0.062215165	-0.2238240462	 2.1162282685	 0.078725
H	 2.36892018	-0.4787433039	 2.1382168314	 0.295275
69.1899	144.1713	207.7857	231.6037	253.4768	290.8059	336.7748	383.4379	435.1387	447.0909	500.4109	608.9432	660.026	702.5295	804.0291	865.0988	893.3945	933.4111	952.0046	990.0536	1001.2843	1025.304	1085.0011	1112.3233	1130.9962	1189.3954	1201.108	1262.9474	1275.1436	1306.4461	1330.3095	1367.6502	1379.8691	1406.8469	1412.239	1426.7665	1461.8133	1494.5111	1503.9789	1678.1534	1766.9981	3000.3867	3011.4726	3019.6121	3037.2793	3057.9466	3100.7471	3122.9324	3150.0462	3187.9137	3806.8798
CC1CC=CC(=O)C1O	C[C@H]1CC=CC(=O)[C@H]1O	
InChI=1S/C7H10O2/c1-5-3-2-4-6(8)7(5)9/h2,4-5,7,9H,3H2,1H3	InChI=1S/C7H10O2/c1-5-3-2-4-6(8)7(5)9/h2,4-5,7,9H,3H2,1H3/t5-,7-/m0/s1
