24
gdb 121959	5.32491	0.52441	0.50142	4.192	91.13	-0.31	0.0358	0.3458	2240.7638	0.215743	-368.449276	-368.437974	-368.437029	-368.486774	39.986	
C	-0.1449431193	 1.5611363768	 0.0990323598	-0.381698
C	-0.0714793756	 0.0352549131	-0.0007652587	-0.163017
C	 0.7540437496	-0.4504753033	-1.1981296925	-0.178673
C	 0.8267395385	-1.979023048	-1.2926824917	-0.185332
C	 1.5558232909	-2.5158430855	-2.5376318627	 0.020724
C	 3.0388858552	-2.1279689418	-2.5792577679	-0.399902
C	 1.3852669557	-4.0550190713	-2.5962737055	-0.346802
C	 1.9188775748	-4.6508246572	-3.8192950595	 0.262972
N	 2.341850397	-5.1040883253	-4.7948718917	-0.314995
H	 0.8532725516	 1.9998965735	 0.2067406429	 0.114912
H	-0.6003153774	 1.9950820324	-0.798086697	 0.11518
H	-0.7413471458	 1.8768036626	 0.9605839955	 0.113467
H	 0.3582470802	-0.3728987228	 0.9237139572	 0.095874
H	-1.0866145099	-0.3777003523	-0.0700527542	 0.095501
H	 0.3192255444	-0.0494559772	-2.1245091283	 0.095406
H	 1.7641507668	-0.0284119809	-1.1284490508	 0.100713
H	 1.3151256784	-2.3778388001	-0.3915814118	 0.094794
H	-0.1968524646	-2.3784430939	-1.2841090266	 0.092358
H	 1.0638189184	-2.1014351305	-3.4275530403	 0.093998
H	 3.5621161961	-2.4899256226	-1.6857588924	 0.114223
H	 3.5334433681	-2.5567337802	-3.4555820184	 0.14165
H	 3.1655435985	-1.0435478414	-2.624368222	 0.124636
H	 1.886743703	-4.5188771841	-1.7375256559	 0.147221
H	 0.3243411553	-4.3197801199	-2.5217261975	 0.14679
46.4062	64.1917	88.4659	103.1242	135.5261	173.5	241.1457	249.2098	266.439	299.164	386.4725	400.4557	414.0356	464.2874	578.7861	735.5323	785.953	840.1818	884.5526	906.581	917.6604	921.2972	970.4134	1023.9057	1036.4893	1069.4627	1078.5484	1131.2768	1143.7783	1184.583	1230.9549	1261.0648	1273.0134	1308.0049	1319.8585	1334.1485	1356.5181	1377.8668	1381.4292	1400.5748	1413.5137	1419.3608	1462.9425	1480.7576	1485.8828	1498.2724	1499.5635	1499.7025	1507.0564	1513.0224	2358.7959	2997.3853	3008.1019	3016.1966	3018.1632	3029.8707	3031.5724	3031.869	3036.7824	3040.3726	3065.5095	3076.0854	3096.7716	3103.0155	3103.2847	3121.7089
CCCCC(C)CC#N	CCCC[C@@H](C)CC#N	
InChI=1S/C8H15N/c1-3-4-5-8(2)6-7-9/h8H,3-6H2,1-2H3	InChI=1S/C8H15N/c1-3-4-5-8(2)6-7-9/h8H,3-6H2,1-2H3/t8-/m1/s1
