14
gdb 26080	3.35037	1.1958	0.91411	2.9242	66.74	-0.2445	-0.0075	0.237	1182.3462	0.101479	-436.710316	-436.702446	-436.701502	-436.743604	28.515	
O	 0.5669685694	 1.5595633848	-0.1938783367	-0.398262
C	 0.1473212222	 0.2247766323	 0.016747285	-0.129532
C	 0.3708002164	-0.6082583031	-1.1893683344	 0.268571
N	 0.5569380774	-1.2526653594	-2.1299080449	-0.322927
C	 0.787022816	-0.4024948196	 1.2294110523	 0.207402
C	 1.2992163494	 0.2820870357	 2.2890140372	-0.096429
O	 1.7767925784	-0.5791194416	 3.2213701007	-0.138244
C	 1.5627230487	-1.8357557848	 2.7500674373	 0.010135
C	 0.9609603307	-1.7950549903	 1.5345514533	-0.294153
H	 1.5274628859	 1.5519012381	-0.2889859355	 0.295087
H	-0.9390264069	 0.2938880542	 0.1560723066	 0.158135
H	 1.3852860834	 1.3309225105	 2.5154897363	 0.154557
H	 1.8980666297	-2.6381029721	 3.3858354216	 0.14805
H	 0.6857250393	-2.6356302547	 0.9173493112	 0.137611
45.7959	115.4627	178.3084	225.5693	296.6538	370.2169	430.6607	483.0171	599.8605	621.193	625.3055	746.9875	771.2004	817.4365	848.6886	893.981	910.5965	1005.6098	1051.9618	1076.3072	1107.6502	1205.4921	1245.1714	1256.9999	1287.769	1318.8881	1402.7499	1421.2042	1533.2615	1624.2304	2357.9235	3037.1011	3261.0352	3287.8177	3292.7437	3789.3077
OC(C#N)C1=COC=C1	O[C@@H](C#N)c1cocc1	
InChI=1S/C6H5NO2/c7-3-6(8)5-1-2-9-4-5/h1-2,4,6,8H	InChI=1S/C6H5NO2/c7-3-6(8)5-1-2-9-4-5/h1-2,4,6,8H/t6-/m0/s1
