14
gdb 12461	3.75477	2.02535	1.4045	3.8218	59.74	-0.2561	-0.0036	0.2525	836.7466	0.10938	-415.898909	-415.892026	-415.891082	-415.930509	25.019	
O	 0.0040539271	-0.1408095292	-0.105100942	-0.354837
C	-0.093265423	 1.0368599027	 0.1072518686	 0.459885
N	-1.1322296338	 1.8158670057	-0.2897252349	-0.344422
C	-1.431294306	 3.1634695923	 0.1643079688	-0.191947
C	-0.391713703	 4.176561017	-0.3096073613	-0.138321
N	 0.9348338206	 4.0160871459	 0.245725481	-0.241496
C	 1.39758832	 2.9495630379	 0.717225171	 0.138838
O	 0.9065344004	 1.6651377407	 0.8407350275	-0.234592
H	-1.8524719201	 1.2915495677	-0.7598371988	 0.266604
H	-2.4104412161	 3.4304220849	-0.2418022858	 0.123421
H	-1.5118863891	 3.2000026179	 1.258677494	 0.131286
H	-0.3224919769	 4.1429113134	-1.4042589772	 0.127638
H	-0.73290227	 5.1861976002	-0.0503676395	 0.118937
H	 2.3929245399	 2.9433145228	 1.1574976387	 0.139005
78.6225	98.2311	271.0284	313.1473	419.9937	470.4608	512.2499	535.6738	644.6453	735.817	767.9483	845.668	860.641	940.7008	964.8318	1017.4735	1087.0985	1114.2437	1126.5372	1266.9368	1286.7015	1321.9961	1386.8896	1409.5294	1440.635	1465.311	1482.2472	1495.999	1770.18	1862.6911	3021.9037	3027.3224	3061.1149	3099.5456	3160.7735	3647.4613
O=C1NCCN=CO1	O=C1NCCN=CO1	
InChI=1S/C4H6N2O2/c7-4-6-2-1-5-3-8-4/h3H,1-2H2,(H,6,7)	InChI=1S/C4H6N2O2/c7-4-6-2-1-5-3-8-4/h3H,1-2H2,(H,6,7)
