21
gdb 65814	3.36948	0.83684	0.77386	1.0846	84.65	-0.2545	0.0515	0.306	1548.5568	0.180296	-387.048294	-387.038399	-387.037455	-387.083305	37.24	
O	-0.0289528045	 1.6323275918	-0.1534257866	-0.48639
C	-0.020069762	 0.2265275144	 0.0322574505	 0.421051
C	 0.8702486903	-0.4728151258	-1.0017873456	-0.21877
C	 2.342886643	-0.0139004042	-0.9574826638	-0.38821
C	 3.194703048	-0.7538679145	-1.8793481202	 0.291554
C	 3.8745657798	-1.3814333604	-2.6465816212	-0.430494
C	 0.1807274262	-0.2822787076	 1.4971383679	-0.281963
C	-1.0654653504	-1.1902118748	 1.3156580107	-0.21107
C	-1.4569661385	-0.3533107058	 0.0684674736	-0.263687
H	 0.8343580434	 1.9798846096	 0.0937890915	 0.27806
H	 0.829466625	-1.556489308	-0.845816286	 0.108949
H	 0.4663877135	-0.2768614562	-2.0010020595	 0.115111
H	 2.3969830782	 1.0549561276	-1.2013544869	 0.126853
H	 2.7363665493	-0.1221879357	 0.0624451424	 0.130139
H	 4.4853769864	-1.9281397525	-3.321143982	 0.19367
H	 1.1297814497	-0.7643348172	 1.7480021017	 0.092705
H	-0.0060756737	 0.530250982	 2.2041071564	 0.104499
H	-0.796907115	-2.2187807283	 1.0618220799	 0.105984
H	-1.7812013921	-1.2167369306	 2.1392175827	 0.102662
H	-2.168974517	 0.439723088	 0.3077632835	 0.112638
H	-1.8000830596	-0.8863670019	-0.8219520989	 0.09671
60.1084	94.7268	124.098	149.1505	218.0104	237.7	327.0578	331.8815	359.3602	420.4368	474.3614	508.1314	619.8975	635.1123	643.81	730.1422	779.5839	791.1661	862.967	915.4044	936.1067	945.8997	971.9211	986.4247	1025.2398	1030.8131	1073.6394	1137.769	1195.6769	1196.6571	1227.293	1250.1558	1267.023	1276.0986	1287.9908	1291.5594	1330.8705	1344.8417	1388.2193	1465.7801	1474.9463	1481.8773	1487.916	1504.3039	2239.9505	3011.4415	3041.7462	3043.0939	3053.9974	3061.698	3069.2464	3088.5471	3104.0623	3115.9146	3129.5298	3508.1708	3811.3381
OC1(CCC#C)CCC1	OC1(CCC#C)CCC1	
InChI=1S/C8H12O/c1-2-3-5-8(9)6-4-7-8/h1,9H,3-7H2	InChI=1S/C8H12O/c1-2-3-5-8(9)6-4-7-8/h1,9H,3-7H2
