21
gdb 111128	3.30107	1.2546	1.15	1.3466	81.69	-0.2483	0.0775	0.3259	1159.6046	0.184977	-387.037628	-387.029921	-387.028977	-387.069822	31.535	
O	-0.07603247	 1.4835251279	-0.1997189355	-0.423757
C	 0.0475562314	 0.0822197781	 0.0215460311	-0.138938
C	-1.358955494	-0.4917677732	 0.0100043671	 0.066771
C	-2.0656199506	-0.6228476079	-1.3721905972	-0.039125
C	-1.2471623321	-1.9511448647	-1.5538098693	-0.226676
C	-1.496903128	-2.04235215	-0.0053137404	-0.068809
C	-3.02384175	-2.2759962362	-0.0090235769	-0.031113
C	-3.9832400163	-1.1786437368	 0.3843872235	-0.318358
C	-3.4453146646	-1.2236377212	-1.0250434885	-0.031293
H	 0.8044957994	 1.8691380169	-0.1745980131	 0.285364
H	 0.6957136411	-0.3754673709	-0.73743889	 0.08647
H	 0.5038755367	-0.1226912893	 1.0045120046	 0.082441
H	-1.9054356148	 0.0471553797	 0.7851897979	 0.069184
H	-2.0334389809	 0.1885686073	-2.0986334948	 0.067545
H	-1.7005343704	-2.730016503	-2.1732584305	 0.085901
H	-0.2041786396	-1.8109867726	-1.8419603667	 0.091146
H	-0.8938535641	-2.676770041	 0.6469967722	 0.053767
H	-3.3794654	-3.299272608	-0.056147827	 0.083641
H	-5.0170932669	-1.4961063948	 0.4857947934	 0.104337
H	-3.7154516079	-0.3949717306	 1.0822753981	 0.117936
H	-4.1210432185	-1.4503033399	-1.8422680682	 0.083568
77.5073	157.8641	241.7973	290.7278	337.212	388.0154	449.8222	524.8201	563.0982	642.8752	764.8164	797.261	801.5061	833.9615	849.3889	891.2405	905.2549	925.6089	980.7335	999.1106	1022.1426	1040.3682	1050.8629	1064.1136	1079.0986	1083.5847	1101.7996	1107.4392	1114.4255	1123.1545	1192.0539	1202.9414	1225.3463	1237.7541	1249.6337	1258.8382	1276.0751	1286.2052	1318.5707	1362.1579	1404.8878	1459.0549	1499.7671	1503.0101	1529.6274	2961.842	3018.4897	3061.7484	3090.8209	3095.9959	3119.4142	3125.4749	3132.2702	3163.3015	3172.6405	3208.4487	3829.6314
OCC1C2CC1C1CC21	OC[C@H]1[C@H]2C[C@@H]1[C@H]1C[C@@H]21	
InChI=1S/C8H12O/c9-3-8-6-2-7(8)5-1-4(5)6/h4-9H,1-3H2	InChI=1S/C8H12O/c9-3-8-6-2-7(8)5-1-4(5)6/h4-9H,1-3H2/t4-,5+,6+,7-,8+
