25
gdb 59782	3.01012	1.03401	0.81858	1.3404	88.95	-0.2428	0.0834	0.3263	1492.1054	0.230067	-389.511622	-389.501965	-389.501021	-389.546037	37.428	
C	 0.0510098808	 1.5611519456	 0.0139578123	-0.397725
C	 0.024731678	 0.0244443431	 0.0372288888	 0.035307
C	 0.8139361147	-0.4817060585	 1.2552828709	-0.397717
C	-1.4175100725	-0.5381675535	-0.0021325806	 0.048891
C	-2.2202425171	-0.0467950665	-1.2228802788	-0.217336
C	-3.6060803056	-0.6937930018	-1.2779103451	-0.08145
O	-3.5379530092	-2.1078394587	-1.2810213969	-0.239854
C	-2.8944212347	-2.5988880167	-0.1195938279	-0.081467
C	-1.4611315506	-2.0789180336	 0.0126418055	-0.217323
H	 1.0803834502	 1.9285014486	 0.0783609911	 0.109053
H	-0.3863272473	 1.9733407344	-0.8988700243	 0.115355
H	-0.4998464826	 1.9758228589	 0.8673045604	 0.109576
H	 0.5383681658	-0.3337174964	-0.8678580228	 0.069295
H	 0.3135703729	-0.2019650997	 2.1906827578	 0.109573
H	 0.9360113624	-1.5677615561	 1.2529022719	 0.115361
H	 1.8155251568	-0.0399379703	 1.2743394656	 0.109045
H	-1.9353206524	-0.1809502882	 0.9035665838	 0.061374
H	-2.343183282	 1.0408133484	-1.2049636049	 0.094563
H	-1.6757486852	-0.2979456594	-2.1430582236	 0.098423
H	-4.2109504525	-0.348495211	-0.4198965188	 0.07947
H	-4.1349009345	-0.4103560304	-2.1929742795	 0.102564
H	-3.4747432513	-2.3192765475	 0.7783652029	 0.07947
H	-2.9097240421	-3.6901329592	-0.1988377339	 0.102563
H	-0.8647197949	-2.4690948241	-0.8230203893	 0.098422
H	-1.0282924269	-2.4790365673	 0.9350787353	 0.094567
55.2703	115.7795	180.7018	224.2768	233.0899	239.4648	312.0744	338.3813	399.9299	404.3253	439.5804	476.849	492.3964	585.112	808.1178	819.357	851.323	885.6276	918.4301	925.8598	961.9643	967.3677	996.8149	1020.5655	1036.3151	1088.1758	1091.0653	1127.3674	1177.6277	1187.1285	1195.6495	1202.0853	1265.6181	1269.4468	1295.4337	1324.1375	1335.2711	1349.1993	1371.241	1371.2524	1387.7914	1391.0768	1400.683	1421.2762	1430.3699	1471.3487	1483.5394	1487.6495	1492.6958	1495.2552	1504.3594	1505.5829	1514.536	2940.6904	2946.91	2967.8957	2991.7853	3018.4786	3024.1278	3025.226	3030.0824	3075.5072	3077.2784	3077.8769	3080.0211	3088.03	3094.4911	3111.0073	3112.3109
CC(C)C1CCOCC1	CC(C)C1CCOCC1	
InChI=1S/C8H16O/c1-7(2)8-3-5-9-6-4-8/h7-8H,3-6H2,1-2H3	InChI=1S/C8H16O/c1-7(2)8-3-5-9-6-4-8/h7-8H,3-6H2,1-2H3
