13
gdb 42547	4.32368	1.27409	1.16545	4.6854	67.55	-0.2777	-0.0338	0.2439	1007.6917	0.089742	-415.570189	-415.563418	-415.562474	-415.601538	25.731	
O	-0.0644963781	 0.0620886387	 0.0606366487	-0.289931
C	-0.1019713675	 1.2462187392	 0.057608073	 0.452145
C	-1.1514612426	 2.3415943856	-0.0919600117	-0.222035
C	-0.9459493404	 3.1236735276	 1.2394227814	-0.293261
C	 0.4632181472	 3.4298288659	 0.7030207317	 0.230503
C	 1.4090645541	 4.3631932927	 1.2298351731	 0.209653
N	 2.1343662362	 5.1446546906	 1.6759755663	-0.330529
C	 0.0613732862	 3.152887251	-0.6910502397	-0.089952
N	 1.0200855231	 2.2057062961	-0.0063071708	-0.220537
H	-2.1355209356	 2.1656353081	-0.5145191874	 0.121749
H	-1.5425015787	 4.03669186	 1.2772541734	 0.143312
H	-1.037732644	 2.5653205202	 2.1747416033	 0.138877
H	 0.2824138502	 3.6118449743	-1.6427993912	 0.150006
117.6137	156.1102	203.206	375.1279	462.6864	500.2333	541.8764	561.5455	657.331	696.6722	771.3604	789.8422	843.0959	883.7689	923.2993	944.0739	990.6654	1032.6674	1046.8789	1112.7211	1129.5616	1155.3423	1204.4263	1211.0153	1266.1958	1373.9752	1499.7679	1941.9795	2365.6807	3069.7552	3136.7736	3181.0915	3245.78
O=C1C2CC3(C#N)C2N13	O=C1[C@H]2C[C@]3(C#N)[C@H]2N13	
InChI=1S/C6H4N2O/c7-2-6-1-3-4(6)8(6)5(3)9/h3-4H,1H2	InChI=1S/C6H4N2O/c7-2-6-1-3-4(6)8(6)5(3)9/h3-4H,1H2/t3-,4-,6-,8?/m0/s1
