19
gdb 116799	6.51288	0.48794	0.47167	19.6871	104.08	-0.1474	-0.0687	0.0787	2271.0306	0.157367	-456.318521	-456.307833	-456.306888	-456.35675	35.997	
C	-0.367653202	 1.3443974134	-0.0720367132	-0.332839
N	 0.332533526	 0.0710148659	 0.0338760765	-0.285594
C	 0.6869159593	-0.6753197556	-1.0129686631	 0.218627
N	 1.2882634576	-1.8275924607	-0.9629512168	-0.248336
H	 1.4912604772	-2.23852761	-0.0580373156	 0.273899
C	 1.5721903517	-2.716396649	-2.1209896076	-0.15453
C	 0.8623150783	-4.0471228	-2.0109170528	-0.347076
C	 1.537440135	-5.0677727279	-3.0655188773	 0.370943
O	 2.7211529292	-4.779103217	-3.3323963005	-0.468549
O	 0.7841977673	-5.974500588	-3.4239706095	-0.452431
H	 0.2206605546	 2.1473800257	 0.3810215484	 0.16446
H	-0.5232120917	 1.5800277017	-1.1261329516	 0.168423
H	-1.3430347111	 1.2926620461	 0.4204185913	 0.166229
H	 0.5435132496	-0.2650082069	 0.9627154021	 0.277694
H	 0.4457652315	-0.285803672	-1.9969218568	 0.182278
H	 1.2887892291	-2.1607000101	-3.0195104291	 0.125524
H	 2.6455705053	-2.9231431491	-2.1742302936	 0.166719
H	 1.0225312374	-4.4782755124	-1.0124871942	 0.083844
H	-0.2152060642	-3.9725913343	-2.1790797368	 0.090717
33.5741	44.0013	65.2272	74.4225	116.9033	193.4396	217.2936	231.9602	293.5755	424.0284	472.6438	539.5706	548.3142	606.387	679.1351	732.8116	795.4551	813.4033	942.192	999.172	1004.8731	1041.6347	1069.3242	1138.0408	1152.6047	1162.3112	1182.1462	1255.1666	1289.0176	1339.3512	1360.4837	1388.5932	1407.8284	1462.6318	1474.4479	1479.2995	1484.6317	1503.3648	1539.393	1758.3668	1795.8077	3012.5311	3047.3381	3059.2294	3094.0058	3113.8041	3120.4627	3147.8821	3204.9082	3554.9259	3608.309
CNC=[NH+]CCC([O-])=O	CN[CH]NCCC(=O)[O]	
InChI=1S/C5H10N2O2/c1-6-4-7-3-2-5(8)9/h4H,2-3H2,1H3,(H,6,7)(H,8,9)	InChI=1S/C5H10N2O2/c1-6-4-7-3-2-5(8)9/h4,6-7H,2-3H2,1H3
