20
gdb 36654	4.16371	0.78199	0.75677	4.4749	83.32	-0.2649	0.0383	0.3032	1546.9046	0.172051	-366.000769	-365.992128	-365.991183	-366.03505	32.293	
N	-0.0955709554	-1.1104907203	-0.0536650925	-0.306718
C	-0.0130327051	 0.0339444127	 0.0848732666	 0.255073
C	 0.116389514	 1.4797590859	 0.2484652497	-0.33211
C	 1.4469310135	 2.0273282001	-0.3136146294	-0.224543
C	 1.5370613391	 3.5290063251	-0.1394867193	 0.00159
C	 1.906380882	 4.235736403	 1.1415034427	-0.067326
C	 3.0148202865	 3.4958145642	 1.9045054892	-0.231451
C	 3.9337825041	 3.5988360833	 0.6442702974	-0.229323
C	 2.8089822724	 4.3321152716	-0.0992917164	-0.087449
H	-0.7327937375	 1.963152676	-0.2488643327	 0.148927
H	 0.0330565454	 1.7222822502	 1.3139362509	 0.156041
H	 2.2752561195	 1.518212601	 0.1855011432	 0.124372
H	 1.5202389616	 1.7688015484	-1.3759753386	 0.12021
H	 0.7495170939	 4.0608043582	-0.6731510099	 0.086709
H	 1.2616920387	 4.9938955365	 1.5706702139	 0.085083
H	 3.404367811	 4.0776326857	 2.7421244904	 0.108671
H	 2.7754785405	 2.4920772553	 2.2714108518	 0.096898
H	 4.798516142	 4.2406003545	 0.8241970789	 0.107985
H	 4.289832605	 2.6638576534	 0.2002041829	 0.100814
H	 2.9557461187	 5.1727815153	-0.7673513887	 0.086547
57.7961	74.0769	106.4828	215.0392	251.8539	280.2658	398.9072	435.2486	492.3679	579.3684	711.692	751.8124	776.9877	792.3455	799.9108	906.3122	936.8461	940.0677	964.3506	990.138	1015.162	1023.0315	1033.4518	1051.1135	1082.3491	1122.327	1141.3533	1177.7182	1223.3225	1234.2708	1246.9254	1263.8709	1282.6379	1305.6597	1315.3165	1346.7415	1374.2235	1453.8561	1467.2463	1481.306	1496.259	1509.4347	2361.129	3039.9044	3044.4014	3049.9681	3054.65	3076.6292	3099.1324	3100.3596	3115.939	3117.5615	3170.3074	3182.0418
N#CCCC1C2CCC12	N#CCC[C@H]1[C@H]2CC[C@@H]12	
InChI=1S/C8H11N/c9-5-1-2-6-7-3-4-8(6)7/h6-8H,1-4H2	InChI=1S/C8H11N/c9-5-1-2-6-7-3-4-8(6)7/h6-8H,1-4H2/t6-,7+,8-
