25
gdb 91320	2.35656	1.44429	1.1667	0.129	92.25	-0.2581	0.0751	0.3332	1235.0169	0.22881	-352.33826	-352.32878	-352.327835	-352.3718	37.961	
C	-0.8247942626	 1.2285273619	 0.2535756019	-0.421317
C	-0.0173706238	-0.0375691256	-0.0063698257	 0.050734
C	 1.2537472715	-0.0097731431	-0.9055211913	-0.261111
C	 1.9268119315	-1.0573105724	 0.0311514631	 0.004135
C	 2.9750615382	-0.4835855997	 1.0062735757	-0.285624
C	 1.8421457283	-0.146408999	 2.0394067945	 0.345085
C	 1.9740302611	-0.9642903249	 3.3274568728	-0.432051
C	 1.7136155245	 1.3365723345	 2.3861036645	-0.448296
C	 0.7811797552	-0.816600713	 1.0789498432	-0.084702
H	-0.2066932692	 2.0658938141	 0.5835273533	 0.11513
H	-1.3393855581	 1.5429753474	-0.6619877026	 0.109261
H	-1.5920598581	 1.0588194621	 1.0178692773	 0.110691
H	-0.701660791	-0.7804643436	-0.4362081291	 0.073287
H	 1.1066882193	-0.3084201668	-1.9467705045	 0.093159
H	 1.7746886286	 0.9540314487	-0.9027386533	 0.091138
H	 2.1197475617	-2.0351728673	-0.4118834065	 0.058192
H	 3.6858600532	-1.225149873	 1.3833970308	 0.090103
H	 3.5450977608	 0.3721757942	 0.6294612448	 0.086792
H	 2.8561511684	-0.6536144593	 3.8998281809	 0.106761
H	 1.0933751501	-0.8341001178	 3.9679210827	 0.10829
H	 2.074830418	-2.0338125465	 3.1134915012	 0.109321
H	 1.733343447	 1.9738387317	 1.4985888487	 0.113666
H	 0.7895274949	 1.5471708704	 2.9356765675	 0.110825
H	 2.5531926509	 1.6433396255	 3.0219461425	 0.10664
H	 0.2349139696	-1.6322541385	 1.5595695275	 0.049892
70.6637	165.4238	215.3802	219.9863	266.0041	290.0575	297.359	340.1601	350.6056	375.4701	424.4714	534.1804	571.2052	641.7655	754.7377	819.259	828.3918	845.427	876.586	916.5184	936.1887	940.3923	955.2887	983.5623	1001.4128	1026.0568	1038.0954	1107.6911	1124.2767	1132.2067	1160.7917	1186.3857	1205.426	1218.7973	1229.4708	1253.3969	1272.6902	1284.7341	1300.0114	1306.02	1347.0676	1379.5037	1396.8828	1406.6147	1417.6196	1479.8647	1483.0202	1484.5537	1492.2423	1493.8615	1498.9377	1504.9946	1513.5344	3009.6364	3014.8013	3023.8127	3029.3982	3037.0431	3040.3637	3063.9836	3079.2539	3082.8027	3083.8712	3085.8507	3087.2699	3091.0332	3103.2611	3111.6026	3126.7853
CC1CC2CC(C)(C)C12	C[C@H]1C[C@H]2CC(C)(C)[C@@H]12	
InChI=1S/C9H16/c1-6-4-7-5-9(2,3)8(6)7/h6-8H,4-5H2,1-3H3	InChI=1S/C9H16/c1-6-4-7-5-9(2,3)8(6)7/h6-8H,4-5H2,1-3H3/t6-,7-,8-/m0/s1
