17
gdb 15952	3.04113	1.91774	1.35246	1.0726	74.52	-0.2409	0.038	0.2789	934.0943	0.141997	-326.6538	-326.646149	-326.645205	-326.685659	29.424	
C	-0.2930198884	-1.0114609036	-0.6851184811	-0.450972
C	-0.1708609127	 0.1181586049	-0.288505653	 0.314305
C	 0.007355348	 1.4750104578	 0.181643877	-0.248648
C	 0.1038350069	 1.7609118874	 1.7206458662	-0.229563
C	 1.2425628217	 2.7825478533	 1.4388663657	-0.297407
C	 1.3967976564	 2.1483896171	 0.0553322541	 0.364004
C	 2.5950285088	 1.5340854511	-0.5482784795	-0.301987
N	 1.9934858471	 2.7636846372	-1.1159381199	-0.372845
H	-0.4118358956	-2.0093330931	-1.0279630695	 0.19622
H	-0.7530041637	 2.1290281642	-0.2638226089	 0.104754
H	-0.8040968448	 2.1325038703	 2.1974330278	 0.108734
H	 0.4601258817	 0.8810476845	 2.2590758994	 0.11875
H	 0.8758889329	 3.8112813948	 1.3731553001	 0.112275
H	 2.1116973389	 2.7580607879	 2.0990779697	 0.108418
H	 3.5696689069	 1.6765374567	-0.0885816564	 0.116605
H	 2.467430607	 0.5950767586	-1.0803190172	 0.124836
H	 1.4550833689	 2.5330322809	-1.9486539346	 0.232521
91.315	131.1967	192.4394	297.5489	326.2854	361.5897	483.544	536.1531	566.9496	614.8838	633.841	707.1604	784.6865	835.1955	890.364	922.5843	937.1967	952.0746	976.756	1028.0986	1065.6895	1086.3281	1103.4259	1127.3741	1191.0128	1233.4984	1247.3277	1252.6437	1266.1103	1297.3934	1347.1985	1411.3138	1480.2046	1495.983	1513.9337	2229.0933	3024.7792	3060.3653	3081.1731	3105.2156	3114.7511	3141.2663	3194.0185	3485.4758	3503.8289
C#CC1CCC11CN1	C#C[C@H]1CC[C@]21CN2	
InChI=1S/C7H9N/c1-2-6-3-4-7(6)5-8-7/h1,6,8H,3-5H2	InChI=1S/C7H9N/c1-2-6-3-4-7(6)5-8-7/h1,6,8H,3-5H2/t6-,7+/m0/s1
