23
gdb 103427	2.19483	1.38455	1.26692	1.1514	84.82	-0.2408	0.0726	0.3134	1199.6975	0.204354	-388.267815	-388.258102	-388.257158	-388.30159	37.93	
C	 1.2169874159	 0.2537183562	 1.240006734	-0.379812
C	 0.2890260904	 0.5112151345	 0.0487591692	-0.240149
C	 0.8091819105	-0.096912155	-1.2539552766	 0.397374
O	 2.0831603179	 0.4495054507	-1.5838281413	-0.486848
C	 0.9432690902	-1.6216690097	-1.3522835272	-0.064514
C	-0.3973338563	-2.2980078181	-1.2874129051	-0.299749
C	 0.0301654357	-1.6538698515	-2.5759902705	-0.061185
C	-0.1446403507	-0.1275020481	-2.5229805561	-0.044307
C	-1.5540608295	 0.4524884489	-2.4847906318	-0.418146
H	 1.2983445446	-0.8189196647	 1.4452015021	 0.121274
H	 2.2227377467	 0.6287337216	 1.0338870433	 0.12409
H	 0.8438280808	 0.7403823795	 2.146063843	 0.105646
H	-0.7123708016	 0.1239785968	 0.2650088232	 0.095291
H	 0.1617429017	 1.5940457711	-0.1005590714	 0.081016
H	 1.9802756226	 1.404755734	-1.6620825798	 0.27106
H	 1.8741045258	-2.1476331784	-1.1815239033	 0.09015
H	-0.3593847204	-3.3827989051	-1.280018795	 0.111884
H	-1.2090220883	-1.889807346	-0.6912448823	 0.103857
H	 0.1438580604	-2.2325401911	-3.4849744665	 0.081141
H	 0.4243059808	 0.3335554352	-3.3360889223	 0.074603
H	-2.171399801	-0.0082659304	-1.7078357822	 0.114147
H	-1.5402692628	 1.5327899453	-2.3009965912	 0.10865
H	-2.0605242635	 0.2890800243	-3.4426499521	 0.114526
99.7769	151.602	166.2497	206.9162	217.4091	268.7365	280.3661	301.0052	326.9162	386.4686	479.6079	497.1311	534.9838	639.2925	713.3881	787.872	788.735	822.3578	907.8322	926.5997	950.2139	959.6214	990.7288	1010.1676	1025.4217	1055.3998	1068.4415	1085.4517	1102.7972	1110.5176	1130.8749	1144.0699	1191.2963	1196.3893	1250.6283	1279.3126	1283.9084	1355.4673	1358.9287	1364.755	1402.3314	1407.9382	1410.4718	1480.0871	1488.0735	1495.8007	1498.799	1503.0051	1511.5769	2999.3171	3028.8296	3040.3046	3057.0008	3064.5247	3088.2396	3104.1108	3104.7665	3115.2107	3122.8878	3175.2644	3190.1094	3201.471	3793.4881
CCC1(O)C2CC2C1C	CC[C@@]1(O)[C@H]2C[C@H]2[C@H]1C	
InChI=1S/C8H14O/c1-3-8(9)5(2)6-4-7(6)8/h5-7,9H,3-4H2,1-2H3	InChI=1S/C8H14O/c1-3-8(9)5(2)6-4-7(6)8/h5-7,9H,3-4H2,1-2H3/t5-,6+,7+,8+/m1/s1
