17
gdb 114303	2.39879	1.41762	1.07846	2.7366	72.15	-0.2566	0.0065	0.2631	1133.493	0.136377	-417.958516	-417.950076	-417.949132	-417.991952	30.959	
O	-0.1828025713	 1.5442833183	-0.0537576509	-0.423245
C	 0.0545151226	 0.1498849632	 0.0842614393	-0.121114
C	-1.301024632	-0.5261067495	-0.0198381669	 0.02337
C	-2.041058835	-0.6543435233	-1.3785908208	-0.195443
N	-2.3068441059	-2.1296542917	-1.1506145984	-0.139531
C	-0.986533074	-2.8024955761	-1.1125723662	-0.152513
C	 0.1066446261	-2.4226275339	-1.9708111246	 0.311521
N	 0.9788822532	-2.1470046868	-2.6795156877	-0.34905
C	-1.4369597879	-2.0427139156	 0.0870158816	-0.08396
H	 0.6646373239	 1.9858366459	-0.1600441387	 0.292846
H	 0.7365293717	-0.2166379175	-0.6925211249	 0.121756
H	 0.5045538618	-0.0876891829	 1.062918259	 0.088993
H	-1.9643410255	-0.0559602824	 0.7116865926	 0.106549
H	-2.9892813847	-0.1203524465	-1.429879016	 0.12781
H	-1.4592873463	-0.4478708758	-2.2805930065	 0.136167
H	-1.100409805	-3.8808246776	-1.0367595942	 0.144899
H	-1.6814229018	-2.5901196377	 0.9927024534	 0.110945
75.3685	123.5811	146.2355	188.9712	243.2187	281.4659	377.9452	430.1507	457.805	571.0279	597.9633	741.3448	765.2327	782.331	874.1742	906.0567	927.1238	975.318	1013.189	1058.3354	1068.3807	1090.7505	1115.6464	1144.146	1179.8105	1224.4395	1237.3406	1267.6848	1285.2663	1294.0906	1348.0337	1381.225	1401.2474	1466.2921	1501.1912	1524.7776	2347.1262	2963.5146	3046.7525	3075.7539	3076.9984	3143.1242	3148.0459	3159.0499	3834.9258
OCC1CN2C(C#N)C12	OC[C@H]1CN2[C@@H](C#N)[C@@H]12	
InChI=1S/C6H8N2O/c7-1-5-6-4(3-9)2-8(5)6/h4-6,9H,2-3H2	InChI=1S/C6H8N2O/c7-1-5-6-4(3-9)2-8(5)6/h4-6,9H,2-3H2/t4-,5+,6-,8?/m1/s1
