19
gdb 87882	3.10934	1.27996	1.25747	1.7142	75.53	-0.235	0.0651	0.3002	1100.5771	0.159125	-422.964238	-422.956149	-422.955205	-422.997143	31.288	
O	-0.3539854656	 1.343103825	-0.3714649616	-0.424593
C	-0.1819727475	-0.037110579	-0.2260609234	 0.054766
C	-0.2891709921	-0.6598971461	 1.1455786603	-0.406373
C	-1.4068681096	-0.8030784844	 0.1415636539	 0.35051
C	-2.8358902595	-0.2409693788	 0.2406242141	-0.324532
C	-3.3517783293	-1.5039870098	-0.504316736	-0.074897
C	-3.2028667096	-1.4690933335	-2.0386626361	-0.07835
O	-1.8637539223	-2.0203191149	-1.9821632682	-0.288302
C	-1.9068296681	-2.0791391853	-0.5433159361	 0.014318
H	 0.4485762723	 1.7772434608	-0.0643528184	 0.288263
H	 0.4928009237	-0.4980805724	-0.9471919502	 0.095668
H	 0.3203790775	-1.5298823464	 1.3722219611	 0.111295
H	-0.4621715707	 0.0116988815	 1.9813140137	 0.111408
H	-3.2066665982	-0.1690302823	 1.2670086993	 0.102283
H	-3.0040683413	 0.7161262208	-0.2600036838	 0.116272
H	-4.2124303966	-2.0302412561	-0.0947524484	 0.077088
H	-3.8788224344	-2.1360841893	-2.5876295121	 0.100798
H	-3.2266941289	-0.4741760502	-2.5012259154	 0.104745
H	-1.5793235098	-3.0473730594	-0.1534946829	 0.069633
58.9937	139.973	192.7181	220.6892	288.7909	355.2389	418.943	465.7189	502.0454	564.9719	757.8564	785.4726	814.109	848.0414	878.8187	887.449	922.2957	937.0074	997.1201	1005.5063	1017.5505	1029.5432	1047.867	1086.1418	1104.1887	1148.0332	1159.6299	1170.1398	1177.2831	1213.1033	1235.2722	1255.4838	1281.2115	1304.5316	1306.776	1348.0903	1358.1963	1425.3564	1484.3454	1487.3539	1520.1225	3011.1479	3053.6769	3055.3664	3065.4632	3104.3799	3104.6057	3115.0239	3123.5223	3204.6965	3807.9099
OC1CC11CC2COC12	O[C@H]1C[C@]21C[C@H]1CO[C@@H]21	
InChI=1S/C7H10O2/c8-5-2-7(5)1-4-3-9-6(4)7/h4-6,8H,1-3H2	InChI=1S/C7H10O2/c8-5-2-7(5)1-4-3-9-6(4)7/h4-6,8H,1-3H2/t4-,5-,6+,7-/m0/s1
