18
gdb 23293	2.67421	1.40816	1.20598	1.4113	76.07	-0.2384	0.007	0.2455	1101.3278	0.147451	-439.012904	-439.004842	-439.003898	-439.045348	31.43	
C	-0.0723526002	 1.5123487311	-0.0327273186	-0.409242
C	 0.0599236482	 0.0044414426	 0.0802026047	 0.146505
O	 0.9019294957	-0.5191954785	-0.9938735524	-0.299224
C	 1.9356217519	-1.2098426578	-0.274586135	 0.010349
C	 1.1433534534	-1.9886851524	 0.8160500605	-0.254187
C	 0.8332554501	-0.5284024446	 1.309938949	-0.166787
C	 2.2571022747	-0.2412138887	 0.8600688845	 0.490762
N	 3.2177788007	 0.3859189857	 1.3831956437	-0.310657
O	 4.4017077297	 0.2327808037	 0.6280066621	-0.396131
H	 0.8977871927	 2.0011098911	 0.0920543816	 0.13507
H	-0.4704766713	 1.7801688451	-1.0156072435	 0.129303
H	-0.758736901	 1.8948906892	 0.7304236578	 0.113347
H	-0.9270772946	-0.4698024984	 0.0058324476	 0.07856
H	 2.6633338337	-1.6424118376	-0.9539501478	 0.105147
H	 0.2999856371	-2.5848392466	 0.4585901292	 0.109685
H	 1.7755558089	-2.5492413937	 1.5057454424	 0.119767
H	 0.4574988759	-0.2908684351	 2.3021028047	 0.091681
H	 5.0300593644	 0.757719465	 1.1355159295	 0.306055
99.525	172.7714	222.8178	230.792	262.5314	337.6537	412.2534	453.6087	491.2403	519.8567	655.5581	718.2494	778.4433	809.109	825.2774	843.773	883.6452	937.8486	966.6986	1004.2716	1023.27	1047.4183	1068.3551	1098.6883	1109.2083	1141.6906	1157.3915	1219.8718	1226.7022	1251.3245	1280.4584	1331.7495	1385.7637	1408.6531	1412.2186	1480.6019	1488.4016	1494.7545	1809.0428	3018.5136	3039.2221	3068.3078	3110.0527	3124.7243	3144.3088	3157.1395	3182.1218	3817.5518
CC1OC2CC1C2=NO	C[C@H]1O[C@@H]2C[C@H]1C2=NO	
InChI=1S/C6H9NO2/c1-3-4-2-5(9-3)6(4)7-8/h3-5,8H,2H2,1H3	InChI=1S/C6H9NO2/c1-3-4-2-5(9-3)6(4)7-8/h3-5,8H,2H2,1H3/t3-,4-,5-/m1/s1
