15
gdb 31304	2.30579	1.55389	0.93383	5.554	78.07	-0.2134	-0.014	0.1994	1187.2725	0.114029	-416.848734	-416.840529	-416.839585	-416.8819	29.793	
C	 0.0243327117	 1.4059784783	 0.0085144808	-0.251517
O	 0.0039283974	-0.0119014393	 0.0050254944	-0.25666
C	-1.2098801724	-0.5921681114	 0.0127683734	 0.287002
C	-1.3749840146	-1.9766760834	 0.0102637456	 0.105587
N	-2.7425932646	-2.2131373745	 0.0201023579	-0.313223
C	-3.4137571158	-1.0362787347	 0.0285291099	-0.060664
C	-2.4974350914	-0.0000470988	 0.0242986932	-0.288733
C	-0.4260041245	-3.0119922573	 0.0001233909	 0.213916
N	 0.3408031674	-3.8833126392	-0.0081766529	-0.366736
H	 1.0754224124	 1.6965186718	 0.0011560387	 0.144054
H	-0.4725474182	 1.8137285961	-0.8808327342	 0.12698
H	-0.4587506559	 1.8091311319	 0.9075076084	 0.126979
H	-3.1544672845	-3.1299819027	 0.0207602987	 0.280309
H	-4.4914615746	-1.0098469712	 0.0368997132	 0.137958
H	-2.7342753621	 1.0505525944	 0.028995502	 0.114749
79.6685	124.6943	158.3945	213.1572	251.9034	322.3009	425.0821	445.1596	518.909	544.7046	629.8642	640.6704	703.5821	712.2222	749.0051	819.2017	911.5585	1040.2627	1106.3544	1131.5336	1178.754	1202.6115	1217.3088	1268.7087	1327.2691	1445.8387	1464.4301	1490.4757	1493.9202	1504.791	1534.0218	1617.0654	2326.2675	3009.1837	3070.2368	3144.3025	3262.9107	3280.5206	3686.2152
COC1=C(NC=C1)C#N	COc1c([nH]cc1)C#N	
InChI=1S/C6H6N2O/c1-9-6-2-3-8-5(6)4-7/h2-3,8H,1H3	InChI=1S/C6H6N2O/c1-9-6-2-3-8-5(6)4-7/h2-3,8H,1H3
