19
gdb 62995	2.13636	1.63639	1.24727	1.6171	75.26	-0.239	-0.0292	0.2098	1083.6583	0.156595	-423.003349	-422.994291	-422.993347	-423.037255	34.23	
C	-0.0878175541	 1.5449377537	 0.1194538316	-0.46193
C	 0.063545777	 0.0345254156	 0.022625827	 0.392118
O	-1.1772523566	-0.6082338813	 0.2458006992	-0.475786
C	 0.6702523182	-0.5785495036	-1.246251921	-0.055475
C	 2.1085217614	-0.1907224804	-1.4195574897	-0.303193
C	 1.7625607654	-1.281277827	-0.4423200722	-0.084763
C	 1.2299063661	-0.6769821345	 0.8588575533	-0.148114
C	 2.1502658051	 0.160633772	 1.7087871221	 0.1276
O	 1.771706977	 0.837125127	 2.6349748527	-0.261689
H	 0.8283462568	 2.0714590049	-0.160174536	 0.119798
H	-0.8938830322	 1.8729193552	-0.543880634	 0.123517
H	-0.3270153801	 1.8414757207	 1.1465230716	 0.132921
H	-1.5549459758	-0.2473230797	 1.0558127955	 0.281429
H	 0.0636089354	-0.9652926266	-2.0550627344	 0.098987
H	 2.5646908297	-0.5259484333	-2.3451125306	 0.120872
H	 2.4781958047	 0.773255007	-1.0784849119	 0.110327
H	 2.1372341491	-2.2907360551	-0.554882899	 0.093497
H	 0.7415490881	-1.4147698474	 1.5006250816	 0.112542
H	 3.2281428247	 0.1313350828	 1.4249440842	 0.077342
47.7976	117.0807	179.4033	221.0938	250.2192	256.3966	317.1165	383.1039	431.1965	475.0429	503.6077	542.8334	646.6548	719.7845	792.1212	816.9894	882.2889	945.1664	964.5905	972.5911	990.6742	1014.6043	1044.0161	1070.4989	1083.4817	1099.142	1112.8645	1147.6469	1163.2554	1180.9144	1226.6833	1279.7999	1303.5091	1352.3841	1391.9821	1409.1894	1417.5601	1482.1537	1490.3908	1499.3629	1807.5341	2858.1041	3036.4907	3083.2603	3106.5456	3112.2774	3119.4621	3186.6504	3195.8138	3206.9873	3798.7492
CC1(O)C2CC2C1C=O	C[C@@]1(O)[C@H]2C[C@H]2[C@H]1C=O	
InChI=1S/C7H10O2/c1-7(9)5-2-4(5)6(7)3-8/h3-6,9H,2H2,1H3	InChI=1S/C7H10O2/c1-7(9)5-2-4(5)6(7)3-8/h3-6,9H,2H2,1H3/t4-,5+,6-,7-/m1/s1
