18
gdb 90852	3.04054	1.82539	1.4893	2.0274	74.22	-0.2128	0.008	0.2208	918.3051	0.150656	-401.931489	-401.924674	-401.92373	-401.962338	28.309	
O	-0.010058867	 1.4281305555	-0.0740715861	-0.438549
C	 0.0160142815	 0.0191834877	 0.0308702794	 0.151862
C	 0.5760182173	-0.5442170082	 1.36565448	-0.293054
C	-0.158478326	-1.870467984	 1.4999612494	-0.029505
C	-1.6019057851	-1.9240364686	 1.9176357916	-0.071477
C	-2.3180253452	-0.6453005529	 2.1713280107	-0.085339
C	-2.2587058085	 0.1297682143	 1.0886567039	-0.065259
C	-1.4231405635	-0.5458182151	 0.018882902	-0.088299
N	-1.2391490228	-1.9602576958	 0.4800624415	-0.1259
H	 0.8950424976	 1.7437808639	-0.1526028824	 0.287342
H	 0.5672109559	-0.4248085639	-0.8119423325	 0.075602
H	 1.659199428	-0.6889814625	 1.3393486608	 0.095343
H	 0.3451112946	 0.1593605024	 2.1708851787	 0.115571
H	 0.4342335376	-2.7746423853	 1.6110258362	 0.087937
H	-1.9845913065	-2.8499747024	 2.3411515926	 0.087953
H	-2.8009839495	-0.409019353	 3.1112901994	 0.100353
H	-2.6366915133	 1.1388689422	 0.9906761452	 0.111985
H	-1.8656913953	-0.5169454241	-0.9802599204	 0.083434
142.2023	252.3005	273.6677	321.7418	401.3629	499.758	526.9874	633.1696	664.896	729.1397	753.763	779.7303	790.425	859.4917	875.3307	918.1953	940.7117	945.9846	976.188	1023.2444	1053.2186	1056.838	1088.2654	1104.2969	1123.9489	1127.7901	1186.5716	1216.6697	1224.2638	1258.8024	1281.5042	1309.4239	1337.4991	1359.9408	1374.4357	1387.4219	1425.2436	1489.3441	1666.8799	2985.8543	3057.2673	3071.796	3101.8866	3127.7422	3140.4459	3204.9772	3231.8087	3827.8109
OC1CC2C3C=CC1N23	O[C@H]1C[C@H]2[C@H]3C=C[C@@H]1N23	
InChI=1S/C7H9NO/c9-7-3-6-4-1-2-5(7)8(4)6/h1-2,4-7,9H,3H2	InChI=1S/C7H9NO/c9-7-3-6-4-1-2-5(7)8(4)6/h1-2,4-7,9H,3H2/t4-,5+,6+,7+,8?/m1/s1
