21
gdb 95808	2.3559	1.5247	1.08182	2.8518	74.78	-0.2494	0.0652	0.3146	1174.4896	0.182794	-461.372428	-461.363361	-461.362416	-461.405514	35.401	
C	 0.0521498709	 1.5315411041	-0.0521749607	-0.402743
C	 0.0560103719	 0.01107837	 0.0047062578	 0.119817
O	 0.6836332057	-0.4520731374	-1.183739342	-0.250924
C	 0.7102990642	-1.8600879443	-1.2882594149	-0.079349
C	 1.4871275741	-2.4898814881	-0.1277842678	-0.239241
C	 0.8551209129	-2.0631910567	 1.197244416	 0.087377
O	 1.628561153	-2.4504897553	 2.3325801042	-0.456009
C	 0.7497766908	-0.5325032674	 1.2650311483	 0.129515
O	 2.0383562661	 0.039593398	 1.3746591341	-0.443795
H	 1.0774157043	 1.9059015212	-0.0473677294	 0.14733
H	-0.4471903299	 1.8691185332	-0.9637579758	 0.117163
H	-0.4754720465	 1.9455142216	 0.8121837044	 0.110586
H	-0.9848307541	-0.361966131	 0.0297129012	 0.056988
H	-0.3184230217	-2.2628164504	-1.3153557944	 0.082479
H	 1.1831447663	-2.0909562623	-2.2468491078	 0.109866
H	 1.4887343974	-3.58346663	-0.2230493956	 0.083588
H	 2.5228667692	-2.1376487348	-0.1556906701	 0.120298
H	-0.1597974548	-2.4865200512	 1.2722475905	 0.066908
H	 1.9423083736	-3.3497433719	 2.19553138	 0.286704
H	 0.1306832486	-0.2634581338	 2.1375996733	 0.063993
H	 2.5092665778	-0.5097121832	 2.0142193188	 0.289449
122.974	167.3276	223.1895	232.6442	256.5842	292.7392	298.7936	328.9552	382.1675	424.3985	450.4939	469.2884	579.3686	643.8842	712.7224	811.0843	851.2113	884.727	944.5144	968.117	995.9722	1021.186	1062.4171	1107.0461	1113.7642	1133.6635	1166.1286	1167.7989	1216.2234	1254.9126	1260.3615	1281.0736	1332.5123	1339.333	1372.6608	1380.2266	1398.8707	1409.011	1416.4188	1426.8515	1440.2446	1476.7956	1484.9364	1498.1022	1503.4382	2929.0683	2944.7373	2955.3497	2976.0208	3026.3416	3052.0916	3085.6579	3095.6583	3122.9612	3145.4537	3775.5287	3823.336
CC1OCCC(O)C1O	C[C@H]1OCC[C@@H](O)[C@H]1O	
InChI=1S/C6H12O3/c1-4-6(8)5(7)2-3-9-4/h4-8H,2-3H2,1H3	InChI=1S/C6H12O3/c1-4-6(8)5(7)2-3-9-4/h4-8H,2-3H2,1H3/t4-,5-,6+/m1/s1
