13
gdb 20746	3.38653	2.43174	1.42771	2.6413	65.68	-0.243	-0.0646	0.1784	808.6864	0.096649	-390.917213	-390.910321	-390.909377	-390.94868	25.11	
C	-0.0276733797	 1.4819618754	-0.0133841515	-0.463251
C	-0.0048938277	-0.0085824562	-0.0051768515	 0.350847
N	-0.0339451986	-0.6477365599	-1.1319863684	-0.249556
N	-0.0101818127	-1.9946078764	-1.0299012999	-0.106096
N	 0.0394084067	-2.7358335283	 0.0775509917	-0.048555
N	 0.0693636677	-2.1552649986	 1.2032570723	-0.257829
C	 0.0498605582	-0.7350961334	 1.2693662502	 0.30114
N	 0.0783475276	-0.1084232787	 2.3820842201	-0.505052
H	 0.8573059759	 1.870256586	 0.5010251735	 0.157932
H	-0.0661882388	 1.8580792025	-1.0366053917	 0.136
H	-0.8895931213	 1.8437887932	 0.5565872874	 0.157861
H	-0.0317477111	-2.5122582008	-1.8937956658	 0.297913
H	 0.1149470836	-0.7883765247	 3.1462630335	 0.228646
55.3654	175.5051	288.2068	294.7262	394.7649	471.471	474.7612	535.5999	613.1422	624.7681	741.1959	799.2475	920.5156	931.8334	970.298	1054.6149	1064.4735	1105.1059	1177.6017	1254.5216	1377.8742	1408.3887	1447.2958	1461.5349	1462.295	1561.0852	1649.8478	1701.8017	3047.0897	3103.5843	3151.9415	3446.1539	3657.4914
CC1=NNN=NC1=N	Cc1n[nH]nnc1[NH]	
InChI=1S/C3H5N5/c1-2-3(4)6-8-7-5-2/h1H3,(H2,4,6,7)	InChI=1S/C3H10N5/c1-2-3(4)6-8-7-5-2/h2-8H,1H3
