17
gdb 72805	2.86076	1.55284	1.3	2.4007	74.22	-0.2438	-0.0555	0.1883	1015.9985	0.136115	-421.845264	-421.837553	-421.836609	-421.877397	29.618	
C	-0.2751995352	 1.497432515	 0.0230944996	-0.460554
C	 0.0418357735	 0.0175647918	 0.0131469838	 0.396672
O	-1.1429358844	-0.7947659357	 0.2885723562	-0.322984
C	-0.4603451824	-1.4974025206	 1.3457534735	-0.088007
C	 0.824818648	-0.6468854653	 1.1679233848	-0.256258
C	 2.0052620909	-1.3666943294	 0.5202553656	 0.376967
O	 2.8949280485	-1.9511925422	 1.0928353729	-0.331833
C	 1.8237722843	-1.2259555856	-0.9499731283	-0.191942
C	 0.7468470975	-0.4818410393	-1.2288209492	-0.090559
H	 0.6345167067	 2.0913104452	-0.1128511897	 0.127657
H	-0.9683597663	 1.7393135429	-0.7895796648	 0.131594
H	-0.7452116528	 1.7808448636	 0.9684839401	 0.129725
H	-0.9651236494	-1.3659502184	 2.308322233	 0.117303
H	-0.3528109919	-2.5681838175	 1.1367568961	 0.115537
H	 1.1156545214	-0.0425177268	 2.025965087	 0.101987
H	 2.4886184515	-1.7035625582	-1.6591056311	 0.12279
H	 0.3659428201	-0.2600971394	-2.2206895495	 0.121905
91.8344	199.5844	213.7597	226.9761	287.6798	346.9959	396.7811	492.1282	574.1132	639.1344	709.8002	732.6632	787.8828	855.408	876.7759	889.6594	948.1172	975.6478	999.7291	1005.0882	1052.5734	1084.445	1111.5051	1140.3662	1160.4688	1182.4532	1243.0861	1261.4247	1296.1431	1336.8635	1368.7537	1405.6509	1481.0791	1488.044	1520.9792	1642.1891	1815.4497	3028.5466	3036.3895	3076.8809	3107.0799	3120.8715	3128.2121	3186.2712	3221.9427
CC12OCC1C(=O)C=C2	C[C@]12OC[C@H]1C(=O)C=C2	
InChI=1S/C7H8O2/c1-7-3-2-6(8)5(7)4-9-7/h2-3,5H,4H2,1H3	InChI=1S/C7H8O2/c1-7-3-2-6(8)5(7)4-9-7/h2-3,5H,4H2,1H3/t5-,7+/m0/s1
