18
gdb 100450	4.08924	0.61658	0.55	2.8302	80.25	-0.2573	-0.025	0.2323	1976.9859	0.144982	-439.08797	-439.077116	-439.076172	-439.125782	37.37	
C	 0.0707709736	 1.5346980814	-0.1690143112	-0.38714
C	 0.0130018597	 0.0069098097	-0.1357213446	-0.178236
C	-1.4133977036	-0.5213209578	 0.1179006878	-0.067308
O	-2.3441243371	-0.0605875367	-0.8584859598	-0.41161
C	-1.4246134119	-1.9832967024	 0.2296241201	 0.029148
C	-1.414300216	-3.1880562069	 0.2884756242	 0.079704
C	-1.3512027701	-4.6378992958	 0.4152145692	 0.259844
N	-2.3779984855	-5.2899927362	-0.2078036727	-0.520463
O	-0.4549320329	-5.2078030366	 1.0060708307	-0.331707
H	 1.0826216017	 1.8807530695	-0.3979871428	 0.115445
H	-0.6108102528	 1.9321989348	-0.925125607	 0.131019
H	-0.2181373435	 1.9613032183	 0.7978873911	 0.118206
H	 0.3717215598	-0.413331477	-1.0843332457	 0.100717
H	 0.6705492717	-0.3912839592	 0.6449866953	 0.119559
H	-1.7781006171	-0.0995490704	 1.063593839	 0.125468
H	-2.11340392	-0.4774126084	-1.6966662772	 0.284148
H	-3.173545379	-4.7866262506	-0.5607353698	 0.266834
H	-2.446769627	-6.2865339957	-0.0775628564	 0.266373
18.7931	62.8676	76.579	131.8244	178.0496	218.9613	229.1858	241.2748	289.8576	324.7718	365.7551	483.2646	509.8769	556.3943	585.0104	611.2737	740.2142	772.2433	786.7951	875.288	979.389	1047.1907	1062.0551	1093.1207	1110.6224	1128.7115	1251.8355	1290.1495	1327.5161	1345.2253	1372.3188	1406.9518	1418.0456	1480.9368	1494.2952	1508.05	1609.2003	1775.7977	2339.7659	3023.4639	3036.277	3040.3323	3074.0594	3106.836	3126.7157	3596.631	3736.3442	3799.6298
CCC(O)C#CC(N)=O	CC[C@@H](O)C#CC(=O)N	
InChI=1S/C6H9NO2/c1-2-5(8)3-4-6(7)9/h5,8H,2H2,1H3,(H2,7,9)	InChI=1S/C6H9NO2/c1-2-5(8)3-4-6(7)9/h5,8H,2H2,1H3,(H2,7,9)/t5-/m1/s1
