17
gdb 37754	2.43896	1.85672	1.20188	2.7923	83.23	-0.2239	-0.0316	0.1923	1030.7354	0.136385	-384.713345	-384.705923	-384.704978	-384.745593	29.15	
C	-0.126855175	 1.3892134716	 0.3944306575	-0.36243
C	 1.369529555	 1.0923818553	 0.0338112788	-0.088106
C	 2.1127739099	 0.2253413383	 1.0138435928	-0.092326
C	 2.1889122377	-1.0510653234	 0.6092929588	-0.131929
C	 1.5369622136	-1.2630631418	-0.6864802675	 0.351401
C	 1.4653956823	-2.4039251886	-1.3764558749	-0.429644
O	-1.578253811	-0.1817256798	-0.9374265931	-0.283875
C	-0.5354436306	 0.302707937	-0.615020099	 0.407248
C	 0.9304150331	 0.0722812975	-1.0728823488	-0.257634
H	-0.4324610657	 1.2112432548	 1.4289402714	 0.132039
H	-0.4811262487	 2.3799802932	 0.0910982241	 0.132155
H	 1.9347810933	 1.970318244	-0.2874603833	 0.086078
H	 2.5126867634	 0.6100534706	 1.9454987012	 0.104688
H	 2.6669643368	-1.8565805792	 1.1553633151	 0.103224
H	 0.9519146868	-2.4653319155	-2.329070668	 0.115301
H	 1.9131347355	-3.3177550634	-1.0002307504	 0.106942
H	 1.0906563833	 0.3455916593	-2.1185619747	 0.106867
57.8826	130.7098	237.2052	324.9813	384.7574	432.1242	493.8425	568.0539	627.3176	694.9283	708.1182	745.8157	773.9813	828.9703	853.346	891.2595	908.7697	929.6117	965.4549	982.8902	993.3567	1021.1149	1061.1059	1099.3675	1120.7462	1170.1666	1206.1666	1218.0911	1243.2174	1262.5793	1314.9524	1366.5365	1432.4569	1456.1483	1636.8874	1708.2889	1893.6327	3053.8287	3077.66	3091.0628	3111.6414	3152.5531	3187.2154	3210.5502	3236.5408
C1C2C3C=C4COC13C24	C1[C@H]2[CH]C=C([CH2])[C@H]2C1=O	
InChI=1S/C8H8O/c1-4-3-9-8-2-5(6(1)8)7(4)8/h1,5-7H,2-3H2	InChI=1S/C8H8O/c1-5-2-3-6-4-7(9)8(5)6/h2-3,6,8H,1,4H2/t6-,8-/m1/s1
