22
gdb 118000	3.31875	0.7694	0.65794	3.4595	83.43	-0.297	0.0126	0.3095	1738.1116	0.191873	-404.369376	-404.358287	-404.357343	-404.406245	39.422	
C	 0.0677141681	 1.6134561172	 0.0450849751	-0.379442
C	 0.0063216004	 0.0832754407	 0.0234149032	-0.182954
C	 0.6312897613	-0.5111253148	-1.2446803859	-0.171109
C	 0.6542599313	-2.0499060554	-1.2838554574	-0.007262
C	-0.7464685809	-2.6622503947	-1.4195284667	-0.417314
C	 1.5755193331	-2.5225625444	-2.43761129	-0.016415
O	 2.888918605	-1.9942642099	-2.370489358	-0.410042
C	 1.630629217	-3.9985476857	-2.5133129168	 0.260241
N	 1.7033918866	-5.1518309888	-2.537855676	-0.326328
H	 1.1025732145	 1.969126992	-0.0068959764	 0.11673
H	-0.471412144	 2.0430931175	-0.8064537897	 0.116392
H	-0.3787285083	 2.0166866137	 0.9591457064	 0.114083
H	 0.5274348898	-0.3164550561	 0.9037548184	 0.09551
H	-1.0382096514	-0.2361656593	 0.1173143862	 0.101222
H	 0.0882255783	-0.1427658379	-2.1273573712	 0.092638
H	 1.6584637908	-0.1444881292	-1.3427638096	 0.111858
H	 1.1067766778	-2.4168997087	-0.3500766706	 0.078261
H	-0.7106058574	-3.7548057194	-1.4354118729	 0.14487
H	-1.3841802207	-2.3637646961	-0.5842422977	 0.127873
H	-1.2303988169	-2.3255814325	-2.3441290979	 0.119722
H	 1.1673529009	-2.1546888561	-3.3868141423	 0.137652
H	 3.3151771345	-2.3489734021	-1.5813761504	 0.293813
49.5607	63.5586	93.6325	128.6086	187.1512	214.5638	245.0018	250.4951	277.8135	323.8422	334.2113	388.0291	435.6352	453.6811	586.9331	612.1015	744.2478	842.1653	859.6576	883.193	937.7261	965.5587	1009.8419	1036.4779	1070.0856	1083.4533	1131.6309	1144.2376	1186.0028	1239.5569	1268.5766	1294.6321	1319.4809	1327.8821	1358.8632	1368.6481	1394.1055	1413.4732	1416.845	1423.5741	1484.3314	1494.761	1499.8256	1500.6605	1506.4934	1514.1165	2351.6422	2991.4833	3006.4603	3020.8661	3031.4352	3037.0062	3051.2938	3051.9875	3078.5124	3099.2275	3104.7965	3108.098	3126.8416	3797.9661
CCCC(C)C(O)C#N	CCC[C@@H](C)[C@@H](O)C#N	
InChI=1S/C7H13NO/c1-3-4-6(2)7(9)5-8/h6-7,9H,3-4H2,1-2H3	InChI=1S/C7H13NO/c1-3-4-6(2)7(9)5-8/h6-7,9H,3-4H2,1-2H3/t6-,7+/m1/s1
