21
gdb 92355	2.19084	1.91762	1.55195	2.3178	76.78	-0.2427	0.0759	0.3187	993.9532	0.184674	-424.248824	-424.240998	-424.240053	-424.280518	32.421	
C	-0.0176206762	 1.4539292676	 0.1211598478	-0.480488
C	-0.043639825	-0.0468676103	-0.0437583803	 0.377077
C	 0.6986998057	-0.704878419	-1.2118935124	-0.269163
C	 0.4330607682	-2.1350983385	-0.6948382181	-0.042444
C	 0.975557858	-1.9913013606	 0.7329609104	-0.083848
O	 0.580762149	-0.6568434863	 1.1209614465	-0.328167
C	-1.1102263384	-2.1483037667	-0.6180058003	-0.259739
C	-1.4527484179	-0.7029627381	-0.1160978859	 0.137064
O	-2.10760622	-0.6497653922	 1.1312502549	-0.449229
H	 1.0050272398	 1.8109627701	 0.2701792105	 0.120678
H	-0.4346498132	 1.9413367126	-0.765473833	 0.116426
H	-0.6195353797	 1.7480494583	 0.9856781401	 0.133604
H	 0.2352030053	-0.5017011648	-2.1814183098	 0.100145
H	 1.7563962514	-0.4290294726	-1.2484137313	 0.101588
H	 0.8800032937	-2.9563319282	-1.2567849766	 0.067749
H	 0.5454403926	-2.7185683323	 1.4316261371	 0.100079
H	 2.0695798124	-2.0710531918	 0.7780208394	 0.099326
H	-1.5485414649	-2.3431689519	-1.6014169404	 0.095862
H	-1.5026522683	-2.8947385485	 0.077929332	 0.102666
H	-2.0980450848	-0.1776488364	-0.8274857153	 0.077651
H	-1.4042572577	-0.7648743105	 1.7871770547	 0.28316
129.5834	218.4885	243.7022	302.7031	313.029	371.2922	431.5418	458.4081	520.4669	551.5947	606.2344	612.3118	768.0093	807.1507	835.3703	865.7731	895.4438	909.529	944.4612	960.5208	967.4468	996.4701	1030.0351	1059.9026	1079.2801	1117.2062	1130.5097	1171.2873	1188.8701	1222.4497	1227.6335	1252.9288	1280.4018	1305.3791	1314.1677	1334.4875	1359.9252	1375.9679	1412.5326	1446.9651	1481.8726	1483.2807	1493.4788	1497.9239	1530.3449	3011.6971	3042.7402	3048.0866	3054.4442	3055.9004	3061.7933	3102.7343	3106.9901	3109.9335	3116.1367	3121.383	3724.4977
CC12CC(CO1)CC2O	C[C@@]12C[C@@H](CO1)C[C@H]2O	
InChI=1S/C7H12O2/c1-7-3-5(4-9-7)2-6(7)8/h5-6,8H,2-4H2,1H3	InChI=1S/C7H12O2/c1-7-3-5(4-9-7)2-6(7)8/h5-6,8H,2-4H2,1H3/t5-,6+,7-/m0/s1
