19
gdb 83293	2.34598	1.83433	1.44541	2.4948	73.42	-0.2302	-0.0169	0.2133	991.6718	0.161141	-423.062278	-423.054631	-423.053687	-423.094331	30.123	
C	-0.3246138443	 1.5537764075	 0.0931095625	-0.419246
C	 0.0182018493	 0.0733615784	-0.0357251018	-0.090641
C	 0.8235053155	-0.4499725409	-1.2518725167	 0.045251
C	 2.1860131275	 0.2657718083	-1.399363012	-0.226453
C	 2.9946945271	-0.3594452836	-0.2229987673	-0.23506
C	 1.9425059724	-1.3356376384	 0.3695208102	-0.040611
O	 1.2080058289	-1.758168943	-0.7853031793	-0.260862
C	 0.915105401	-0.4592628896	 1.0970029989	 0.414905
O	 0.851905037	-0.1957988345	 2.2686912141	-0.330827
H	 0.5663269426	 2.1870503625	 0.0465890723	 0.122217
H	-1.0114644353	 1.8747515567	-0.6958771564	 0.117659
H	-0.8022615227	 1.7340223319	 1.0601509026	 0.143073
H	-0.9066019014	-0.5182420734	-0.0043166127	 0.114885
H	 0.2474443664	-0.5502948479	-2.1716323832	 0.084103
H	 2.6350703118	 0.0195628385	-2.3635432489	 0.113682
H	 2.1071313418	 1.3529894956	-1.3365953196	 0.109533
H	 3.8606592707	-0.9194619829	-0.5816130592	 0.117017
H	 3.3411463496	 0.3743634251	 0.5087172899	 0.121028
H	 2.3235036221	-2.1850790403	 0.9325895066	 0.100346
92.7075	189.0434	203.4317	239.7042	269.3701	439.1137	475.5314	525.3252	545.6611	651.3259	701.5473	767.0371	821.7956	833.8302	851.8789	895.7901	920.2681	951.4583	963.7793	1004.0729	1030.6114	1072.5198	1076.271	1124.4816	1127.2473	1167.765	1207.6596	1224.3109	1249.3254	1268.6621	1295.8948	1305.7083	1327.0832	1344.3117	1353.7587	1409.9657	1481.8999	1494.6413	1497.7223	1510.6371	1859.258	3024.6959	3042.3291	3070.0017	3080.1979	3109.8641	3112.3325	3118.6588	3120.9572	3130.1731	3150.985
CC1C2CCC(O2)C1=O	C[C@H]1[C@H]2CC[C@H](O2)C1=O	
InChI=1S/C7H10O2/c1-4-5-2-3-6(9-5)7(4)8/h4-6H,2-3H2,1H3	InChI=1S/C7H10O2/c1-4-5-2-3-6(9-5)7(4)8/h4-6H,2-3H2,1H3/t4-,5+,6-/m0/s1
