21
gdb 118045	3.81053	0.75747	0.65973	4.2348	76.66	-0.2421	-0.0157	0.2263	1704.7879	0.17886	-461.360085	-461.349107	-461.348163	-461.397028	38.135	
C	-0.1554190827	 1.3681924469	 0.0453394012	-0.231667
O	-0.0560435719	-0.0374114073	-0.0047836579	-0.250651
C	 0.7449181591	-0.5108530045	-1.0714490003	-0.088197
C	 0.6294279698	-2.0346909004	-1.0460703791	 0.107412
O	-0.7410096544	-2.399779892	-1.0745673501	-0.447395
C	 1.3167015325	-2.7157175378	-2.2440792071	-0.08777
C	 2.7965760131	-2.3621723608	-2.4026139332	-0.40987
C	 1.108752811	-4.2238422867	-2.1573540266	 0.144289
O	 1.984363395	-5.0364787407	-2.3215772716	-0.251424
H	 0.8284749722	 1.8373822014	 0.1955140877	 0.11244
H	-0.5964649764	 1.7767861942	-0.8765447269	 0.112011
H	-0.800062805	 1.6199187922	 0.8905624921	 0.13322
H	 0.3707556465	-0.1232551008	-2.0339326348	 0.092832
H	 1.7873801956	-0.1833117166	-0.9470575436	 0.099168
H	 1.1002835911	-2.3898407496	-0.1128724424	 0.08051
H	-1.1828323628	-1.8052180337	-0.4552434214	 0.293233
H	 0.7506268582	-2.399319406	-3.1348981853	 0.104373
H	 3.2528579462	-3.0017541726	-3.1605197956	 0.139843
H	 2.9334172477	-1.3191707216	-2.6988029403	 0.112978
H	 3.3433198387	-2.530232969	-1.468981961	 0.125614
H	 0.0681910567	-4.5322875448	-1.9357729938	 0.109052
51.2134	69.8727	97.604	119.0432	138.1322	191.0431	235.785	250.6265	287.9384	320.0675	374.2882	395.0544	441.0829	470.7486	559.9296	674.9795	820.6951	890.5528	932.3887	958.6889	977.6755	1059.2255	1086.9826	1123.5622	1141.4828	1157.915	1168.6732	1187.5633	1223.5114	1249.4511	1277.5197	1310.0927	1327.9317	1370.5317	1399.6217	1406.9763	1423.6322	1445.583	1479.4467	1486.8362	1493.1269	1498.0585	1500.6298	1522.1222	1822.3043	2946.6194	2952.1375	2966.8904	2982.6067	2993.6991	3021.9802	3030.5428	3048.3342	3113.7021	3119.7881	3135.5894	3778.4102
COCC(O)C(C)C=O	COC[C@@H](O)[C@@H](C)C=O	
InChI=1S/C6H12O3/c1-5(3-7)6(8)4-9-2/h3,5-6,8H,4H2,1-2H3	InChI=1S/C6H12O3/c1-5(3-7)6(8)4-9-2/h3,5-6,8H,4H2,1-2H3/t5-,6+/m0/s1
