16
gdb 126703	2.08816	1.86115	1.05894	3.0079	66.17	-0.2119	0.0461	0.258	1100.4323	0.125099	-471.256492	-471.247691	-471.246746	-471.29058	31.44	
C	 0.1255740926	 1.5621730919	 0.1128227618	-0.383728
C	-0.021685443	 0.0482126074	-0.0441535612	-0.157871
N	 0.6840337117	-0.4742206627	-1.204016974	-0.169883
C	 0.0511684281	-0.8397735489	-2.4132237187	 0.467426
O	-1.1345717224	-0.7912999757	-2.6647346009	-0.431234
N	 1.1121061922	-1.247962996	-3.1775712156	-0.325195
N	 2.3436758676	-1.162383678	-2.530746005	-0.338698
C	 2.0200995292	-0.696456545	-1.3680522946	 0.481996
O	 2.8652660802	-0.4358596932	-0.3639130152	-0.41629
H	 1.1740974834	 1.8418349182	 0.2476202675	 0.133433
H	-0.264825489	 2.0807757503	-0.7671666504	 0.138808
H	-0.4346163778	 1.9023007652	 0.9889555275	 0.123909
H	 0.3428366277	-0.4718988824	 0.8467434965	 0.126925
H	-1.0687041541	-0.2257406597	-0.197789318	 0.150331
H	 1.0606204757	-1.593477739	-4.1184202083	 0.279478
H	 3.7519985078	-0.6689496223	-0.6700601013	 0.320591
52.4857	103.3173	124.5271	203.358	244.2053	288.0504	336.2041	396.8985	435.3038	454.6869	597.4543	618.3238	689.7165	738.4618	760.599	785.2897	813.3058	974.1017	1017.6267	1078.1231	1107.3556	1204.1221	1213.5393	1246.1232	1313.5983	1364.3602	1389.4891	1395.1739	1413.4647	1477.2746	1492.8725	1504.6904	1581.1143	1683.4024	1846.1753	3045.5128	3060.7609	3108.218	3120.4046	3132.6612	3709.712	3789.9714
CCN1C(=O)NN=C1O	CCn1c(=O)[nH]nc1O	
InChI=1S/C4H7N3O2/c1-2-7-3(8)5-6-4(7)9/h2H2,1H3,(H,5,8)(H,6,9)	InChI=1S/C4H7N3O2/c1-2-7-3(8)5-6-4(7)9/h2H2,1H3,(H,5,8)(H,6,9)
