17
gdb 30269	3.74152	1.39736	1.18128	2.787	73.8	-0.2184	0.0312	0.2497	1045.2449	0.13958	-418.051839	-418.044699	-418.043755	-418.083507	28.027	
O	 0.0416840699	 1.4094618091	 0.0261268563	-0.428595
C	 0.0131356769	-0.0049490195	-0.0244206308	 0.12394
C	-1.4466894323	-0.5417726745	-0.1209133255	-0.209603
N	-1.6099288362	-0.6861764653	-1.5574407887	 0.01214
C	-2.6198502153	-0.8849091168	-2.4686362659	-0.163
C	-1.9749107075	-1.0031508361	-3.6782646339	-0.095453
N	-0.6060418709	-0.894276936	-3.5326510174	-0.363632
C	-0.431712819	-0.7101763621	-2.2448341237	 0.356163
C	 0.7186225144	-0.5592081652	-1.2957605534	-0.371428
H	-0.2878150086	 1.7462451611	-0.8155099371	 0.289957
H	 0.4931818503	-0.3365631176	 0.8981766627	 0.099766
H	-1.5668834528	-1.5060376402	 0.3878923669	 0.121982
H	-2.1485419997	 0.1762540688	 0.3100078436	 0.131918
H	-3.660446296	-0.9084464686	-2.1919508082	 0.126788
H	-2.4231427414	-1.1523140058	-4.6492789391	 0.106566
H	 1.4955022027	 0.1280695476	-1.637653292	 0.136231
H	 1.1970415656	-1.525909219	-1.0949743841	 0.126259
88.2189	180.3674	230.0798	345.9901	385.067	391.2619	489.0032	630.3677	661.8223	683.961	724.8446	734.4663	807.1259	848.4147	864.1226	883.8444	943.5548	956.9416	1033.937	1081.166	1088.9536	1121.3668	1162.529	1177.1251	1208.4471	1252.1193	1283.1358	1297.7374	1319.6057	1328.4676	1417.3091	1431.2543	1449.2549	1477.9789	1493.0232	1524.4694	1576.4341	3030.3249	3033.4621	3101.456	3104.4512	3108.4409	3245.0905	3280.9532	3790.7808
OC1CN2C=CN=C2C1	O[C@H]1Cn2ccnc2C1	
InChI=1S/C6H8N2O/c9-5-3-6-7-1-2-8(6)4-5/h1-2,5,9H,3-4H2	InChI=1S/C6H8N2O/c9-5-3-6-7-1-2-8(6)4-5/h1-2,5,9H,3-4H2/t5-/m1/s1
