19
gdb 91776	2.42414	1.81544	1.60578	2.5546	68.87	-0.2492	0.062	0.3111	940.0112	0.162519	-460.173266	-460.166042	-460.165097	-460.204562	29.613	
O	 0.0794222253	 1.42054726	-0.1600739157	-0.430017
C	 0.0583286743	 0.00910839	-0.0209137065	 0.098577
C	 0.6514419467	-0.5404770195	 1.3076040075	-0.300059
C	-0.5341534528	-1.3132649165	 1.9276516017	 0.194027
O	-1.2944464779	-1.7066493405	 0.7943119846	-0.255852
C	-1.4076867962	-0.4913584187	 0.0437011791	 0.061301
C	-2.3409432459	 0.4515316641	 0.8146469542	-0.21534
C	-1.7952817898	 0.6661349305	 2.2346392102	-0.08434
O	-1.3105656135	-0.5482011543	 2.8150332636	-0.258958
H	 0.9933876165	 1.6983375402	-0.2702194614	 0.289171
H	 0.5571574075	-0.4608295552	-0.8780175782	 0.077667
H	 1.478415429	-1.2295882773	 1.1212560467	 0.106766
H	 1.010539063	 0.2625171984	 1.9558032702	 0.113144
H	-0.2543240504	-2.2136706945	 2.4762293835	 0.08767
H	-1.8112193027	-0.7412456128	-0.9394247467	 0.079805
H	-2.4406212507	 1.4137428211	 0.3055386132	 0.114937
H	-3.3249018119	-0.0258926016	 0.8554709215	 0.107634
H	-0.9945435944	 1.4168628897	 2.2073922956	 0.106134
H	-2.574321376	 1.0283949268	 2.9101501469	 0.10773
130.0051	252.0251	283.0928	289.3582	395.0355	405.3207	449.7335	483.4919	534.6821	608.3412	739.8608	780.3424	819.9184	834.4776	853.5409	910.2709	964.0403	975.989	989.3226	1021.3438	1030.2993	1066.1786	1100.0305	1107.5276	1156.3253	1202.9305	1216.7142	1237.4973	1269.4949	1283.7099	1296.6341	1333.9495	1351.4879	1367.0153	1370.9175	1395.806	1419.7654	1425.8894	1467.482	1476.754	1522.7736	3012.8449	3022.3031	3054.9648	3067.88	3092.2777	3094.845	3110.374	3111.3342	3120.2624	3831.268
OC1CC2OC1CCO2	O[C@H]1C[C@@H]2O[C@H]1CCO2	
InChI=1S/C6H10O3/c7-4-3-6-8-2-1-5(4)9-6/h4-7H,1-3H2	InChI=1S/C6H10O3/c7-4-3-6-8-2-1-5(4)9-6/h4-7H,1-3H2/t4-,5-,6-/m0/s1
