17
gdb 107859	3.68092	1.37683	1.32775	1.1477	66.51	-0.248	0.0559	0.3039	996.895	0.136638	-458.900865	-458.893764	-458.89282	-458.932571	28.31	
O	 0.0221774088	 1.39267879	-0.152828492	-0.413221
C	 0.0184179856	-0.0153450874	 0.0130504956	-0.191601
C	-1.3791916172	-0.5568409679	 0.1095154416	 0.360528
C	-2.3800070347	-0.0888418746	 1.1848834032	-0.234753
C	-3.3697600948	-1.2166987761	 0.8496469925	 0.020344
O	-2.595755279	-2.4011845558	 1.2158488739	-0.293599
C	-1.8074944387	-2.1063453597	 0.0667084144	-0.000397
C	-2.9566533816	-1.4344443765	-0.6827478612	 0.063789
O	-2.1696095357	-0.3266378891	-1.1121070019	-0.341751
H	-0.5080083475	 1.5805375607	-0.9358168992	 0.297006
H	 0.5496147041	-0.5190005463	-0.8092870578	 0.096852
H	 0.5591734931	-0.2274590042	 0.9414722816	 0.120107
H	-2.0253238085	-0.1768126719	 2.2133561821	 0.114538
H	-2.73016423	 0.9225381886	 0.9762894811	 0.116019
H	-4.3869092392	-1.2158125681	 1.2349697529	 0.089805
H	-1.1233165129	-2.8820541699	-0.2725641638	 0.097004
H	-3.640908532	-1.8602055218	-1.413643533	 0.099328
79.7922	155.8406	280.0868	325.9355	401.6447	450.3917	533.1837	556.9406	675.6167	700.929	774.5907	792.6317	846.3512	851.009	862.6565	910.5098	936.4252	972.2894	1003.7641	1025.6102	1038.0411	1064.9639	1090.2555	1106.9824	1159.7556	1164.6933	1206.0003	1221.3592	1234.4582	1273.5527	1283.4085	1323.9667	1353.9869	1384.5706	1431.3005	1461.9437	1492.3586	2988.0353	3077.9944	3086.565	3138.3279	3147.1955	3150.7975	3156.8485	3803.4431
OCC12CC3OC1C3O2	OC[C@]12C[C@@H]3O[C@H]1[C@@H]3O2	
InChI=1S/C6H8O3/c7-2-6-1-3-4(9-6)5(6)8-3/h3-5,7H,1-2H2	InChI=1S/C6H8O3/c7-2-6-1-3-4(9-6)5(6)8-3/h3-5,7H,1-2H2/t3-,4+,5-,6+/m0/s1
