13
gdb 33489	2.26014	1.75209	1.20114	4.5443	66.56	-0.3034	-0.0204	0.283	996.2517	0.088743	-415.577302	-415.56973	-415.568786	-415.609608	27.604	
N	 0.0832015436	-1.1684563752	-0.0615360344	-0.314987
C	 0.0320058697	-0.0151032353	-0.0394135655	 0.276458
C	-0.0164204396	 1.4432615783	 0.0124413364	-0.023264
C	-0.2533881232	 2.0976089287	 1.4486745162	-0.299692
C	 1.1216967944	 2.7580561024	 1.3231099272	 0.051862
O	 2.0776578949	 1.7035176529	 1.1459212772	-0.220534
C	 1.3813387178	 2.1602307931	 0.0079580154	-0.003275
C	-0.9182693321	 1.9898201691	-0.9967687683	 0.255465
N	-1.6062156598	 2.4688997055	-1.7913878286	-0.314408
H	-1.0931170663	 2.7923462139	 1.4301606154	 0.155616
H	-0.3607007016	 1.382527516	 2.2646932857	 0.154796
H	 1.4730041252	 3.6858730973	 1.7548407271	 0.136513
H	 1.9312333571	 2.4796736534	-0.8680907538	 0.145449
120.7093	131.1911	166.4348	187.069	321.8728	430.0242	489.644	504.8045	557.3123	589.9545	602.1181	784.8522	848.0875	861.0367	909.4911	935.8596	982.5331	1017.3309	1048.6739	1087.6816	1120.904	1220.3173	1236.4911	1246.0535	1272.1955	1389.4309	1469.4948	2363.6899	2368.246	3096.2948	3165.1251	3206.7822	3222.0822
N#CC1(CC2OC12)C#N	N#CC1(C[C@H]2O[C@@H]12)C#N	
InChI=1S/C6H4N2O/c7-2-6(3-8)1-4-5(6)9-4/h4-5H,1H2	InChI=1S/C6H4N2O/c7-2-6(3-8)1-4-5(6)9-4/h4-5H,1H2/t4-,5-/m1/s1
