14
gdb 56396	3.36985	0.73021	0.61492	1.605	73.1	-0.2681	-0.0416	0.2265	1692.2267	0.099913	-432.861695	-432.85171	-432.850766	-432.898688	33.526	
N	-0.2844927014	 1.5619795075	-0.1356502295	-0.480873
C	-0.0220417396	 0.1192477608	-0.0570467852	-0.31244
C	-1.2786803984	-0.5903466568	 0.258810061	 0.31955
N	-2.2566934667	-1.1560313593	 0.4954473117	-0.310769
C	 0.6062659714	-0.4700122935	-1.2504523734	 0.092819
C	 1.1413001594	-0.8902833088	-2.2448546287	 0.041105
C	 1.8338585826	-1.3336419476	-3.4522153604	 0.272339
N	 1.4024319593	-2.536649154	-3.9210159465	-0.519229
O	 2.7115149977	-0.6743951839	-3.9728372931	-0.32906
H	 0.597976093	 2.0408583502	-0.2932084729	 0.25395
H	-0.8671390302	 1.7541472437	-0.9460925952	 0.253002
H	 0.650657666	-0.0400299228	 0.7969367511	 0.172798
H	 0.662335214	-3.0467542613	-3.4711935927	 0.274626
H	 1.8263646029	-2.9047901343	-4.7569533861	 0.272181
18.3348	60.7239	101.267	154.5	168.1652	216.5203	243.3555	274.2401	374.9317	396.8994	491.1838	568.5693	575.7673	590.2284	624.6348	740.8357	772.1855	866.2805	892.9579	1073.4048	1092.0768	1115.3281	1193.4167	1306.7628	1348.8403	1387.1512	1610.9609	1661.4959	1779.5363	2346.1388	2371.9191	3025.3586	3493.254	3575.3325	3601.5512	3742.6168
NC(C#N)C#CC(N)=O	N[C@@H](C#N)C#CC(=O)N	
InChI=1S/C5H5N3O/c6-3-4(7)1-2-5(8)9/h4H,7H2,(H2,8,9)	InChI=1S/C5H5N3O/c6-3-4(7)1-2-5(8)9/h4H,7H2,(H2,8,9)/t4-/m1/s1
