20
gdb 17136	5.90608	1.05818	0.98556	1.4427	75.18	-0.2536	0.0802	0.3338	1224.8209	0.177189	-348.976747	-348.968535	-348.967591	-349.009665	31.338	
O	 0.7797331042	 0.4870937696	-0.6955476162	-0.43383
C	-0.0333521079	-0.2980367542	 0.1385265398	 0.180989
C	-0.0202032069	-0.0767688169	 1.6752501388	-0.277599
C	-1.5547096517	-0.3620456068	 1.6883272461	-0.009905
C	-1.5717204798	-0.08850812	 0.151723779	-0.277604
C	-1.9278098017	-1.7718793798	 2.0791488078	 0.048409
C	-2.2721981241	-2.0984158418	 3.5104417027	-0.274713
C	-3.3499760571	-2.1065234709	 2.4523578261	-0.274719
H	 0.5891783871	 1.4125753844	-0.5085906973	 0.274053
H	 0.2182805321	-1.3333261752	-0.1097514047	 0.091719
H	 0.6252895366	-0.7150019464	 2.2840478612	 0.10039
H	 0.1964013293	 0.9707121148	 1.9134854354	 0.08641
H	-2.1458840752	 0.3393697915	 2.284958734	 0.061142
H	-1.8219147593	 0.9554403676	-0.0684203908	 0.086411
H	-2.1872134113	-0.7362809322	-0.4777173899	 0.100389
H	-1.3911576047	-2.5487486565	 1.5384541477	 0.079596
H	-1.9446394936	-3.0472918002	 3.9207192331	 0.109987
H	-2.2745673678	-1.2835991494	 4.2274583987	 0.109444
H	-4.0730540018	-1.2971329711	 2.4618396545	 0.109444
H	-3.7589279963	-3.0609421965	 2.1395774242	 0.109987
68.6098	86.202	174.8795	276.3954	279.3045	303.589	378.2481	452.6805	465.9615	659.577	744.6941	805.091	810.0615	824.6288	885.1792	919.007	937.7685	941.5221	995.6259	998.2241	1028.739	1055.1122	1074.3573	1084.5009	1103.9573	1136.2319	1147.9068	1190.3495	1198.2933	1226.9803	1249.2105	1253.882	1265.8862	1281.5647	1312.1102	1334.9495	1431.7057	1439.8275	1466.1745	1470.499	1492.1627	1507.1514	3036.9956	3037.7111	3055.8268	3067.4346	3101.4775	3105.677	3126.7057	3127.192	3132.8578	3204.8343	3220.018	3801.5005
OC1CC(C1)C1CC1	O[C@H]1C[C@@H](C1)C1CC1	
InChI=1S/C7H12O/c8-7-3-6(4-7)5-1-2-5/h5-8H,1-4H2	InChI=1S/C7H12O/c8-7-3-6(4-7)5-1-2-5/h5-8H,1-4H2/t6-,7-
