21
gdb 121953	5.25975	0.59247	0.56918	2.2117	75.78	-0.262	0.0793	0.3412	1948.72	0.180639	-461.331056	-461.32077	-461.319826	-461.367357	36.667	
O	-0.0013219303	 1.4069092888	-0.1183133787	-0.42051
C	 0.0407269878	-0.0118392093	-0.0909391052	-0.07601
C	-1.3901133399	-0.5224736037	 0.0086639243	-0.168195
C	-1.4728470346	-2.0489415891	 0.0645045947	-0.206366
C	-2.9195110388	-2.5669450691	 0.1022044331	 0.086998
O	-3.665667454	-2.1389715195	-1.0236679332	-0.433737
C	-2.9508354534	-4.0857205626	 0.2010558715	 0.064947
C	-4.0992506603	-4.8643959552	-0.2683111787	-0.187681
O	-2.9073943114	-4.7578632684	-1.0662665318	-0.25146
H	 0.8998874801	 1.7331095247	-0.1946716555	 0.284412
H	 0.5163355088	-0.4147672773	-1.0006815106	 0.083094
H	 0.6288573198	-0.3756685491	 0.7685813866	 0.079313
H	-1.8522575796	-0.087734533	 0.903967107	 0.101463
H	-1.9625466949	-0.1563490829	-0.8489161721	 0.12388
H	-0.9708837686	-2.4896947432	-0.8082992337	 0.101652
H	-0.9418733003	-2.4247745751	 0.9502255795	 0.09074
H	-3.4269705804	-2.1472415331	 0.9813861654	 0.093028
H	-3.4060018487	-2.7298222206	-1.7449637207	 0.288953
H	-2.303148659	-4.5238913112	 0.9612559797	 0.095462
H	-4.2861012403	-5.8531115751	 0.146023139	 0.119493
H	-4.9638524817	-4.339564176	-0.6661872804	 0.130522
56.2707	72.0087	83.7641	132.1481	152.0299	237.8612	260.8531	274.6189	294.0405	364.2902	467.865	492.5408	543.3368	662.9559	762.0749	786.9417	848.092	886.7328	921.3422	984.5422	1013.0599	1025.3104	1057.5883	1080.7278	1099.75	1129.5378	1135.7337	1162.7296	1171.1143	1207.0617	1226.2504	1268.2429	1286.5968	1286.701	1307.4912	1330.2777	1355.4364	1392.5583	1420.4132	1442.5063	1463.5015	1481.0359	1502.2489	1516.1548	1528.9133	2952.5313	2977.2594	3005.1502	3021.9307	3034.1577	3048.1131	3097.1717	3099.5512	3110.4302	3196.3341	3742.8196	3830.6758
OCCCC(O)C1CO1	OCCC[C@@H](O)[C@H]1CO1	
InChI=1S/C6H12O3/c7-3-1-2-5(8)6-4-9-6/h5-8H,1-4H2	InChI=1S/C6H12O3/c7-3-1-2-5(8)6-4-9-6/h5-8H,1-4H2/t5-,6-/m1/s1
