17
gdb 49250	3.38533	1.24062	0.96767	3.4528	86.25	-0.2316	-0.0556	0.176	1193.8167	0.137287	-384.725879	-384.71823	-384.717286	-384.758005	29.465	
O	-0.0943181617	-0.0143844181	 0.2254567959	-0.271212
C	-0.0088355534	 1.179460639	 0.0556001045	 0.095896
C	 1.2625621765	 1.9329569815	-0.0610298209	 0.209428
C	 1.1841897957	 3.2850483398	-0.0964879811	-0.152425
C	 2.3982835839	 4.1627968647	-0.0131639794	-0.311558
C	 3.2126802659	 3.9410116525	-1.2659640843	-0.088658
C	 3.8023056442	 2.7605979289	-1.5305332078	-0.055521
C	 3.6187307556	 1.5394572512	-0.778674728	-0.092587
C	 2.4924319757	 1.1696092833	-0.1174776671	-0.163429
H	-0.9194082253	 1.8176133128	-0.0069261554	 0.068262
H	 0.2030968776	 3.7506355591	-0.1710842129	 0.103818
H	 2.1203419288	 5.212874296	 0.0961731596	 0.110194
H	 2.9921047424	 3.8751791948	 0.8660029017	 0.12841
H	 3.328084319	 4.7709818053	-1.9567888684	 0.10192
H	 4.4640933515	 2.6948294057	-2.3916081083	 0.098282
H	 4.4139915064	 0.8015108549	-0.8562174057	 0.100129
H	 2.430145877	 0.1631122386	 0.2851769976	 0.119051
100.9605	180.3853	214.7038	276.0958	305.3682	354.6686	423.4328	453.9053	530.2747	647.5961	677.0799	756.9901	772.9221	843.3836	859.2587	912.9857	947.5665	967.3562	984.499	1016.932	1037.8056	1047.1585	1080.4947	1169.9806	1221.6932	1247.7815	1259.8159	1324.7957	1344.4645	1407.9567	1432.1273	1471.9048	1476.9944	1591.9839	1660.1886	1676.6833	1796.6459	2871.945	3002.5771	3104.3905	3142.2127	3147.6519	3155.7144	3178.4124	3184.3337
O=CC1=CCC=CC=C1	O=CC1=CCC=CC=C1	
InChI=1S/C8H8O/c9-7-8-5-3-1-2-4-6-8/h1-3,5-7H,4H2	InChI=1S/C8H8O/c9-7-8-5-3-1-2-4-6-8/h1-3,5-7H,4H2
