17
gdb 17525	4.55346	1.72681	1.59419	0.96	67.11	-0.2412	0.0564	0.2976	848.6879	0.143258	-363.796997	-363.789976	-363.789032	-363.82832	26.993	
O	-0.0353661567	 1.3959882791	 0.0415142776	-0.424817
C	 0.0213167065	-0.0231327935	-0.0123324267	-0.201879
C	-1.3930860711	-0.5236338232	 0.0059401841	 0.370355
C	-2.2827707659	-0.4217324225	 1.2642408397	-0.270598
C	-2.881617172	-1.7165127373	 0.7492847912	-0.039377
C	-2.9203747111	-1.6616867358	-0.7447121549	-0.039371
C	-2.346535629	-0.3315341321	-1.1937638031	-0.270611
N	-1.6511850212	-2.068868215	-0.0440754949	-0.205085
H	 0.8650199841	 1.7330562684	 0.0314906879	 0.292269
H	 0.5211319257	-0.3783637104	-0.9274783874	 0.093586
H	 0.5671923705	-0.44388079	 0.8470126281	 0.093597
H	-1.7003856667	-0.5917322573	 2.1739541545	 0.106164
H	-2.9157225829	 0.462360921	 1.3853519781	 0.102083
H	-3.4172442277	-2.4765504351	 1.3072490722	 0.092713
H	-3.4856179865	-2.3798315445	-1.3283611239	 0.092714
H	-2.9832284907	 0.5578519516	-1.2168624247	 0.102084
H	-1.8123563851	-0.4333457236	-2.1424141277	 0.106173
72.0766	169.7441	239.4593	320.2718	358.1429	436.2481	440.0125	672.6723	731.5165	774.7425	804.8682	822.0153	900.7122	907.8773	961.2512	999.7217	1014.9938	1021.3194	1033.6535	1061.1705	1085.5201	1100.6327	1111.7949	1160.7484	1186.0895	1214.4728	1242.9001	1258.9136	1274.4298	1338.5071	1342.8796	1376.2879	1468.9004	1486.7198	1504.0385	1519.3849	2969.4407	3001.0408	3046.6203	3052.0716	3103.7811	3106.5429	3171.6119	3183.5512	3833.6261
OCC12CC3C(C1)N23	OC[C@@]12C[C@H]3[C@@H](C1)N23	
InChI=1S/C6H9NO/c8-3-6-1-4-5(2-6)7(4)6/h4-5,8H,1-3H2	InChI=1S/C6H9NO/c8-3-6-1-4-5(2-6)7(4)6/h4-5,8H,1-3H2/t4-,5+,6+,7?
