20
gdb 6867	3.28322	1.74685	1.53584	1.9773	70.58	-0.2398	0.0625	0.3023	932.7515	0.177734	-386.155699	-386.147691	-386.146747	-386.187271	31.806	
C	-0.018476299	 1.5560378235	 0.0033034277	-0.433159
C	-0.0034745874	 0.0257413905	-0.0066034492	 0.355334
O	-1.3477924988	-0.4728720232	 0.0561176638	-0.467192
C	 0.7072780126	-0.5245496622	-1.2606074518	-0.23116
C	 0.8429558366	-2.0477491344	-1.1913054501	-0.072345
O	 1.5293635748	-2.4536634563	-0.0198543438	-0.25202
C	 0.8383487612	-2.0595090139	 1.1561594057	-0.082734
C	 0.6942517564	-0.5381609226	 1.2421432206	-0.20439
H	 0.9965976739	 1.9656162519	 0.0080394822	 0.115768
H	-0.5291534588	 1.9442413004	-0.8867847307	 0.100397
H	-0.5476898315	 1.9237139109	 0.8875087283	 0.1211
H	-1.8180231876	-0.150582881	-0.7203317891	 0.274883
H	 0.1498562538	-0.2361752875	-2.1623670753	 0.078189
H	 1.7044992182	-0.0760179477	-1.339821925	 0.101621
H	-0.1569665973	-2.508306113	-1.2252347549	 0.092305
H	 1.4244261653	-2.4279133509	-2.0364080519	 0.100584
H	-0.1572723154	-2.5271606131	 1.1865105118	 0.104128
H	 1.423742631	-2.4432201158	 1.9968251258	 0.100437
H	 1.6878504118	-0.0851295567	 1.3295873422	 0.098214
H	 0.1177435703	-0.2652104289	 2.1328516636	 0.100041
152.5452	209.1373	244.9867	283.7724	295.7542	318.677	364.5089	423.8692	438.9131	490.26	510.2387	618.0128	728.6642	801.7872	862.7217	891.0297	928.1175	989.7137	1000.5515	1018.3947	1023.0684	1045.8669	1108.9284	1138.1357	1187.8225	1200.1239	1210.8023	1264.7942	1295.7465	1327.1611	1342.3335	1369.7249	1386.5924	1402.1172	1407.2823	1424.8175	1459.6245	1474.0429	1489.2019	1492.6226	1494.9807	1506.1966	2984.4414	2997.3161	3014.6589	3023.6452	3040.5367	3065.577	3082.3953	3084.3985	3089.5179	3092.4133	3114.0103	3803.598
CC1(O)CCOCC1	CC1(O)CCOCC1	
InChI=1S/C6H12O2/c1-6(7)2-4-8-5-3-6/h7H,2-5H2,1H3	InChI=1S/C6H12O2/c1-6(7)2-4-8-5-3-6/h7H,2-5H2,1H3
