21
gdb 39480	2.29705	1.73684	1.20539	1.1495	84.35	-0.2229	0.015	0.2379	1104.4995	0.185232	-387.064412	-387.05644	-387.055496	-387.096744	31.927	
C	-0.1311144111	 1.2944303402	-0.4870160663	-0.303557
C	 1.2856239594	 0.9177770075	-0.1431950485	-0.023828
C	 1.9913737167	 1.4267660366	 1.1133885093	-0.117445
O	 2.2282254982	 0.4255020273	 2.0886604854	-0.230193
C	 1.4483367069	 0.5391099617	 3.260460825	-0.053263
C	-0.0710161772	 0.5134911386	 3.0078980634	-0.294478
C	-0.5238855189	-0.7001516188	 2.2426280341	-0.074855
C	-0.3730862414	-0.9490143672	 0.9391088614	-0.028058
C	 0.2050173019	-0.1559068463	-0.1806906913	-0.036962
H	-0.6969423446	 1.8346333533	 0.2648571495	 0.118417
H	-0.3830955218	 1.5663829906	-1.5066433409	 0.111351
H	 1.95610662	 0.8469483104	-0.9949471962	 0.089308
H	 2.9715730485	 1.8149995531	 0.8108984055	 0.103052
H	 1.4465885768	 2.2722039696	 1.5527817623	 0.093841
H	 1.739490527	-0.3128338209	 3.8837820216	 0.106881
H	 1.7038130781	 1.4607027901	 3.8105083952	 0.082336
H	-0.5684632317	 0.5502729549	 3.9838156591	 0.099348
H	-0.3619768836	 1.4354798128	 2.4930934482	 0.106187
H	-0.9956423594	-1.4801836632	 2.8357022996	 0.082685
H	-0.7536849376	-1.9098707636	 0.596455277	 0.082241
H	 0.286878334	-0.7656934966	-1.0756268431	 0.086991
83.1769	192.2484	205.1908	269.5662	299.0066	349.1	373.4034	477.0999	551.4456	605.5358	696.8208	710.7018	740.7903	798.2803	838.9109	863.4908	893.5753	928.0836	962.0623	982.6414	1000.5872	1020.638	1045.8471	1057.9814	1093.7961	1122.6155	1138.3395	1144.8767	1194.4158	1247.4387	1262.4989	1272.8339	1318.9059	1321.9704	1354.6586	1386.9304	1407.2824	1413.9241	1423.7289	1445.9196	1479.7744	1491.3082	1497.9396	1513.0203	1726.2126	2960.5042	3009.7971	3038.9524	3046.8498	3064.1864	3081.0308	3121.4734	3128.2207	3135.6486	3146.3951	3157.403	3212.5247
C1C2COCCC=CC12	C1[C@H]2COCCC=C[C@@H]12	
InChI=1S/C8H12O/c1-2-4-9-6-8-5-7(8)3-1/h1,3,7-8H,2,4-6H2/b3-1-	InChI=1S/C8H12O/c1-2-4-9-6-8-5-7(8)3-1/h1,3,7-8H,2,4-6H2/b3-1-/t7-,8-/m0/s1
