15
gdb 66208	2.41172	1.53506	1.41035	3.41	65.43	-0.2698	-0.0024	0.2675	982.7649	0.113241	-453.956643	-453.948606	-453.947662	-453.989215	29.617	
O	-0.056988042	 1.3821762766	 0.0240793677	-0.442107
C	 0.035547246	-0.0302451988	-0.0266062753	 0.158129
C	 0.7554366622	-0.569089344	 1.2257865081	-0.112549
O	 0.6884147403	-1.9898941574	 1.3024794888	-0.215901
C	-0.5071042107	-2.5321643772	 0.949426406	 0.139458
N	-1.4958904024	-1.9810102931	 0.3910415647	-0.262024
C	-1.4032269947	-0.5858888007	-0.0047852158	-0.176367
C	 0.7508920704	-0.4577134703	-1.2453872226	 0.252714
N	 1.3400385498	-0.7492792283	-2.1958896217	-0.326643
H	 0.7990864485	 1.7646572872	-0.2017013298	 0.300035
H	 1.8153161213	-0.3056860722	 1.2289909105	 0.131833
H	 0.2686160286	-0.1201239384	 2.0993980379	 0.133203
H	-0.5252722703	-3.5874230825	 1.2105393959	 0.13959
H	-1.9749360375	 0.0401324458	 0.6901933823	 0.139167
H	-1.8638017995	-0.4681533667	-0.9895588666	 0.141464
102.6474	131.8984	199.0628	230.8502	287.1165	325.6316	388.3576	444.9475	470.5872	502.0984	606.716	633.7923	702.2566	841.3885	942.0241	946.3065	969.8805	993.2002	1001.6724	1112.6076	1134.0659	1150.8629	1171.2461	1242.9227	1291.193	1346.2398	1369.9793	1394.5352	1413.846	1479.9023	1505.2044	1743.7495	2352.2967	3041.6408	3048.3036	3092.6694	3116.822	3178.0169	3800.3844
OC1(COC=NC1)C#N	O[C@]1(COC=NC1)C#N	
InChI=1S/C5H6N2O2/c6-1-5(8)2-7-4-9-3-5/h4,8H,2-3H2	InChI=1S/C5H6N2O2/c6-1-5(8)2-7-4-9-3-5/h4,8H,2-3H2/t5-/m1/s1
