17
gdb 126176	4.03789	0.97853	0.91623	1.5761	69.87	-0.29	-0.0292	0.2608	1316.7096	0.135692	-455.146807	-455.138022	-455.137078	-455.181459	31.106	
C	-0.0291453645	 1.5712929703	 0.0120498649	-0.387661
C	-0.0972779629	 0.0461972924	-0.0826940428	-0.200399
C	 0.7552781534	-0.5039640489	-1.2422623182	 0.002614
O	 2.121260797	-0.1416266635	-1.1383543615	-0.419872
C	 0.5990509626	-1.9950261959	-1.3564191372	 0.4398
N	-0.1761042489	-2.6823504818	-2.1408660842	-0.318671
C	 0.1021119263	-3.9701383883	-1.7496682694	 0.03598
N	 0.9841915256	-4.0897866074	-0.7972143873	-0.110742
O	 1.3217176221	-2.7552176207	-0.5223542476	-0.214608
H	 1.0054434459	 1.9062590142	 0.1191975986	 0.133976
H	-0.4412435933	 2.0398515245	-0.8881097861	 0.121748
H	-0.6013504983	 1.9331711313	 0.8707962812	 0.118224
H	 0.2520235306	-0.4128645774	 0.8518357415	 0.105684
H	-1.132145931	-0.2864345336	-0.2252654104	 0.119378
H	 0.4026865419	-0.0770232603	-2.1858448501	 0.128051
H	 2.4881409392	-0.5761896618	-0.3594857148	 0.295343
H	-0.3626502157	-4.8394973432	-2.1917397264	 0.151154
32.8183	99.3776	114.5973	197.6686	230.6829	279.0937	318.257	355.7269	413.2263	519.8494	655.7262	742.8303	783.7077	795.5918	900.9056	913.9222	932.3734	977.6153	991.6473	1020.3724	1067.232	1108.3502	1121.8492	1178.9735	1242.144	1261.5191	1287.866	1330.6922	1341.0444	1377.0838	1408.6976	1420.0078	1483.3892	1495.6684	1508.5707	1516.2474	1621.3928	3022.9045	3042.4788	3064.6065	3085.636	3109.7702	3128.4899	3261.6972	3799.5098
CCC(O)C1=NC=NO1	CC[C@@H](O)c1ncno1	
InChI=1S/C5H8N2O2/c1-2-4(8)5-6-3-7-9-5/h3-4,8H,2H2,1H3	InChI=1S/C5H8N2O2/c1-2-4(8)5-6-3-7-9-5/h3-4,8H,2H2,1H3/t4-/m1/s1
