16
gdb 11638	3.15381	1.90944	1.48247	4.4624	70.3	-0.2598	0.0079	0.2677	884.9351	0.13187	-342.72828	-342.721167	-342.720223	-342.759527	27.137	
C	-0.152942862	 1.6164659112	-0.0191193723	-0.446093
C	 0.020469727	 0.1073086633	 0.0170009289	 0.006841
C	 1.1821128305	-0.6543451044	-0.6988513909	-0.057841
C	 2.1747474449	-0.1497572269	 0.3796665224	-0.238337
C	 0.8844948806	-0.629966065	 1.1025833944	 0.226777
N	 0.9586178386	-1.8592248256	 0.2080657557	-0.336359
C	 0.6302159276	-0.7127829634	 2.5212770829	 0.159718
N	 0.4051738725	-0.7505215061	 3.6547339877	-0.346398
H	 0.7841429427	 2.1651693948	 0.0988025752	 0.127254
H	-0.5976140598	 1.9183452601	-0.9732958761	 0.129503
H	-0.8321039124	 1.9389759903	 0.7768352759	 0.139145
H	-0.9471901864	-0.389256594	-0.1229257861	 0.081058
H	 1.3572218023	-0.7756396399	-1.7670990593	 0.097209
H	 3.0442790079	-0.784607626	 0.5434853634	 0.128878
H	 2.4082842724	 0.9119757083	 0.4168557733	 0.114189
H	 0.0078608436	-2.2175072067	 0.0639429549	 0.214456
126.4862	162.8698	189.9975	295.5283	334.4652	503.7296	527.1992	544.5136	589.5846	604.7192	762.669	806.3583	827.1571	911.1048	941.2461	960.4854	1018.732	1051.7607	1088.5219	1092.028	1139.2315	1163.5204	1185.6714	1212.7515	1223.9102	1262.6436	1277.0711	1299.4289	1402.055	1422.6222	1492.7451	1493.8306	1512.2364	2352.6112	3037.0211	3042.6909	3102.2976	3106.8682	3125.7002	3129.8137	3185.9673	3374.3242
CC1C2CC1(N2)C#N	C[C@H]1[C@H]2C[C@@]1(N2)C#N	
InChI=1S/C6H8N2/c1-4-5-2-6(4,3-7)8-5/h4-5,8H,2H2,1H3	InChI=1S/C6H8N2/c1-4-5-2-6(4,3-7)8-5/h4-5,8H,2H2,1H3/t4-,5+,6+/m0/s1
