17
gdb 46060	2.77618	1.45935	1.23302	4.344	67.43	-0.2657	0.0152	0.2808	1052.8188	0.136762	-458.988414	-458.980673	-458.979729	-459.02129	28.805	
O	 0.2270685202	 0.1796739529	 0.4606586676	-0.331685
C	 0.104446992	 1.3067585916	 0.086455206	 0.43978
C	-1.034851078	 1.9389338187	-0.7016228579	-0.352631
C	-0.7941014536	 3.4435151279	-0.5494280899	-0.246074
C	 0.7276158417	 3.5092019158	-0.2783201735	 0.056155
O	 1.0530207552	 2.2614607895	 0.3476384268	-0.22794
C	 1.5402768527	 3.6931724909	-1.544742583	 0.074426
C	 2.7343180378	 2.8974345953	-1.8434508911	-0.177174
O	 1.4808927535	 2.6238728712	-2.4872537	-0.238827
H	-0.938210828	 1.6103072648	-1.7400367369	 0.162018
H	-1.9939470217	 1.5870952522	-0.3196894996	 0.136644
H	-1.0776308198	 4.0249332511	-1.4288502221	 0.120664
H	-1.3415023351	 3.8400851334	 0.3099634733	 0.118991
H	 0.9892013267	 4.3043298935	 0.4270161624	 0.101635
H	 1.4523580907	 4.6899908562	-1.9819520606	 0.098651
H	 3.5039120605	 3.3127357822	-2.4913472175	 0.120296
H	 3.058509555	 2.1436315927	-1.131752514	 0.14507
78.9497	101.1915	142.744	238.1931	268.2226	431.4496	493.4773	545.1028	566.4734	665.4024	753.5574	786.7475	809.2032	874.0363	885.1577	919.4154	981.2108	1000.1186	1029.4504	1054.8885	1102.9691	1103.4079	1156.9389	1158.7541	1172.0803	1181.8222	1225.0987	1286.5955	1297.6153	1316.7144	1347.5919	1388.9187	1432.3649	1456.86	1497.8642	1523.4191	1893.0566	3058.7876	3070.3289	3080.1436	3093.0197	3104.4894	3116.9055	3137.2121	3203.5282
O=C1CCC(O1)C1CO1	O=C1CC[C@@H](O1)[C@H]1CO1	
InChI=1S/C6H8O3/c7-6-2-1-4(9-6)5-3-8-5/h4-5H,1-3H2	InChI=1S/C6H8O3/c7-6-2-1-4(9-6)5-3-8-5/h4-5H,1-3H2/t4-,5-/m1/s1
