15
gdb 125199	3.46837	1.60803	1.10625	5.5971	76.02	-0.1911	-0.0169	0.1743	1029.4235	0.115207	-412.991748	-412.984226	-412.983282	-413.024501	28.018	
C	-0.0113066975	 1.5418703827	 0.0975059315	-0.507245
C	 0.0154344727	 0.0565894433	-0.0408829991	 0.169202
C	-0.0199018554	-0.8032160146	-1.1209928422	 0.301184
N	-0.085981166	-0.9463358773	-2.4782002758	-0.406389
N	-0.0725782385	-2.2790318113	-2.8134351742	-0.101835
N	-0.001942143	-2.9975134327	-1.7484800849	-0.299185
C	 0.0340547376	-2.147891163	-0.6621343215	 0.268882
C	 0.103808921	-2.1235128907	 0.7208191536	-0.203129
N	 0.0905512198	-0.793084415	 1.0552187773	-0.283735
H	 0.8900943258	 1.9346535813	 0.5854518261	 0.131614
H	-0.0709960122	 2.0060076306	-0.8898921473	 0.131909
H	-0.876506905	 1.8947750987	 0.6735244302	 0.131634
H	-0.1386373358	-0.269645142	-3.218492934	 0.268975
H	 0.1593776641	-2.8952561184	 1.4685844588	 0.13508
H	 0.1313188623	-0.4590521116	 2.0043091613	 0.263038
31.2287	175.6507	248.5633	270.3824	283.5393	390.5381	526.8296	532.0774	597.6097	615.8183	673.9657	687.7208	706.3972	772.9557	831.6789	967.0507	985.8038	1013.7305	1058.4658	1111.6535	1127.0254	1238.5085	1268.3635	1313.7436	1327.066	1396.4761	1422.9492	1448.8607	1478.1484	1493.5214	1504.0763	1557.3864	1695.59	3010.6397	3052.593	3116.9184	3286.1993	3656.5544	3693.7677
CC1=C2NN=NC2=CN1	Cc1c2[nH]nnc2c[nH]1	
InChI=1S/C5H6N4/c1-3-5-4(2-6-3)7-9-8-5/h2,6H,1H3,(H,7,8)	InChI=1S/C5H6N4/c1-3-5-4(2-6-3)7-9-8-5/h2,6H,1H3,(H,7,8)
