21
gdb 108122	2.94738	1.57253	1.40189	1.0206	81.74	-0.2388	0.0952	0.334	1038.6424	0.18446	-387.050128	-387.042526	-387.041582	-387.082052	30.918	
C	-0.0510013368	 1.4028633485	-0.0061643883	-0.26542
O	-0.0179987118	-0.0111057058	-0.0245098543	-0.303099
C	 0.5917908013	-0.5406710857	-1.1484061565	 0.479659
C	 0.0006426363	-0.4914651529	-2.5680852803	-0.31026
C	 0.9998051465	-1.65849259	-2.8045697678	-0.051891
C	 2.3568409197	-0.9240078497	-2.7172630438	-0.202939
C	 2.2001753951	-0.5374050627	-1.2339168927	-0.110765
C	 2.1688799633	-1.9313695418	-0.5496877121	-0.244916
C	 0.8231552922	-2.0713578572	-1.2756626571	-0.088784
H	 0.959108157	 1.8362088595	-0.0301067521	 0.108964
H	-0.622202024	 1.8068773333	-0.8542297859	 0.111439
H	-0.5416553121	 1.7002218864	 0.9233448005	 0.12651
H	-1.0410162765	-0.825595762	-2.5505821673	 0.099394
H	 0.1010706278	 0.4031145208	-3.1911346261	 0.085462
H	 0.8452201455	-2.3758361121	-3.6081403727	 0.065071
H	 3.2274448983	-1.5641421383	-2.8904445275	 0.091497
H	 2.4108341451	-0.072792771	-3.4024331332	 0.089143
H	 2.7995268525	 0.2823659397	-0.8389047392	 0.059871
H	 2.9849008366	-2.6263236715	-0.7719279094	 0.084111
H	 2.0183303463	-1.8626645679	 0.5302302291	 0.107879
H	 0.0549449279	-2.8042173996	-1.0328249232	 0.069076
91.565	173.8026	182.2125	315.519	346.8102	442.127	455.3553	492.9862	574.1086	669.2182	693.0498	788.0103	829.6923	867.3648	898.0308	925.1239	935.246	952.9294	977.7085	987.3051	1004.1271	1043.8444	1056.0316	1078.8904	1089.7042	1123.7341	1149.6246	1153.0643	1181.74	1185.4115	1203.0578	1219.6612	1233.6395	1237.0196	1247.5442	1273.7609	1305.0418	1318.7003	1331.9278	1479.1007	1487.4973	1488.2515	1493.4178	1507.5986	1515.0592	2989.2983	3038.0031	3042.0025	3044.7109	3049.0881	3089.6294	3101.7764	3111.7783	3117.6217	3119.2346	3124.9002	3134.9273
COC12CC3CC1CC23	CO[C@@]12C[C@H]3C[C@@H]1C[C@@H]23	
InChI=1S/C8H12O/c1-9-8-4-5-2-6(8)3-7(5)8/h5-7H,2-4H2,1H3	InChI=1S/C8H12O/c1-9-8-4-5-2-6(8)3-7(5)8/h5-7H,2-4H2,1H3/t5-,6-,7-,8+/m1/s1
