18
gdb 101538	3.17664	0.87003	0.7617	4.6141	74.17	-0.285	-0.0857	0.1993	1515.5126	0.144735	-439.107285	-439.097017	-439.096072	-439.143617	35.596	
C	-0.1068009553	 1.4172276775	-0.6876119728	-0.385187
C	-0.0985270778	 0.0751549577	 0.0484558599	-0.197504
C	-1.4735992821	-0.5989183335	 0.0687442987	 0.143404
O	-1.9811517689	-0.8404389506	-1.2367699374	-0.426297
C	-1.4599080007	-1.9012720319	 0.9072194432	-0.342214
C	-2.8196843852	-2.563232103	 0.869517596	 0.326839
O	-3.7044595868	-2.3509006364	 1.6586116662	-0.266975
C	-3.0271485118	-3.5156484037	-0.2442208311	 0.223084
N	-3.1566282757	-4.2860032981	-1.0969738388	-0.312147
H	 0.8980925723	 1.8464383159	-0.7307250559	 0.11806
H	-0.4753621203	 1.2967673224	-1.7094418031	 0.132736
H	-0.7584109576	 2.1377471368	-0.1821329027	 0.122479
H	 0.6191857335	-0.6113631628	-0.4243177063	 0.093803
H	 0.2442709473	 0.210756988	 1.0815735373	 0.106313
H	-2.2047087877	 0.0808617975	 0.5226592221	 0.114312
H	-1.3497519101	-1.3889036473	-1.7175098295	 0.288216
H	-0.6968861054	-2.5842750116	 0.5154346197	 0.120787
H	-1.2298996076	-1.6679685068	 1.9504407443	 0.140291
48.8202	52.987	114.6021	118.7816	176.3579	222.9746	247.9078	290.4858	337.7843	352.7744	427.8866	464.8484	486.9664	622.1386	693.4411	770.9008	795.2849	870.6396	934.7388	982.4528	1002.7992	1058.4368	1104.7065	1108.9538	1137.3681	1226.1686	1264.6315	1281.7754	1336.7092	1355.8087	1381.963	1410.7418	1424.694	1465.2735	1482.8007	1496.8376	1508.3325	1800.6984	2336.3286	3004.1334	3037.5295	3043.2395	3049.0768	3059.8218	3109.6462	3112.343	3126.5176	3791.0767
CCC(O)CC(=O)C#N	CC[C@@H](O)CC(=O)C#N	
InChI=1S/C6H9NO2/c1-2-5(8)3-6(9)4-7/h5,8H,2-3H2,1H3	InChI=1S/C6H9NO2/c1-2-5(8)3-6(9)4-7/h5,8H,2-3H2,1H3/t5-/m1/s1
