21
gdb 76876	2.30883	1.86596	1.53803	1.4864	81.	-0.2354	0.0083	0.2437	992.3023	0.185235	-387.099995	-387.092265	-387.091321	-387.131603	32.208	
C	-0.1773958556	 1.5619957648	 0.0303111955	-0.410629
C	 0.0449152565	 0.0519523915	 0.0051701285	-0.00705
C	 0.8965082037	-0.4912348089	-1.1965226429	-0.060461
C	 1.2218174041	-1.9111442637	-0.6707631979	-0.223181
C	 1.9552387176	-1.3872508306	 0.584208497	-0.080014
C	 2.9064886317	-0.386342099	-0.0577669191	-0.112567
C	 2.2750479171	 0.1481035563	-1.1104265193	-0.072369
C	 0.8173059628	-0.5354316048	 1.2489670007	 0.13722
O	 1.2785538949	 0.4159796181	 2.1875557981	-0.436062
H	 0.7656421892	 2.116620349	-0.0046419057	 0.104377
H	-0.7753595179	 1.8765731124	-0.8318601142	 0.10655
H	-0.703263994	 1.8653508939	 0.939625769	 0.126679
H	-0.9364678258	-0.4336720777	-0.0447549399	 0.070006
H	 0.3965084972	-0.4176374347	-2.1635400889	 0.056738
H	 0.3291894771	-2.5043509781	-0.4434982783	 0.090046
H	 1.8783208145	-2.4765714948	-1.3368919628	 0.096146
H	 2.404751685	-2.1185391459	 1.256018683	 0.060699
H	 3.8799153067	-0.1152400969	 0.3321276897	 0.097754
H	 2.6289525034	 0.9475151568	-1.7495893976	 0.096671
H	 0.1568656708	-1.189355227	 1.8252266176	 0.083032
H	 1.929965781	 0.9686117695	 1.7409775775	 0.276413
125.2889	207.0871	255.076	268.6706	353.9668	397.2028	457.6345	470.5873	505.9089	563.1721	682.986	726.1647	758.6615	774.3055	821.1713	862.9831	908.8602	916.0222	925.7254	958.7752	964.2744	980.5503	1024.4162	1033.7153	1073.0301	1117.7409	1126.9889	1137.9482	1151.2952	1184.1739	1191.6797	1247.574	1281.5099	1283.0512	1296.1656	1305.6142	1336.177	1361.5456	1378.0774	1410.4889	1440.9393	1491.0906	1497.2696	1503.8024	1636.8962	3026.7184	3034.6386	3045.2049	3068.9658	3095.6359	3100.1026	3106.3447	3114.1264	3115.044	3193.47	3219.0292	3793.1074
CC1C2CC(C=C2)C1O	C[C@H]1[C@@H]2C[C@@H](C=C2)[C@H]1O	
InChI=1S/C8H12O/c1-5-6-2-3-7(4-6)8(5)9/h2-3,5-9H,4H2,1H3	InChI=1S/C8H12O/c1-5-6-2-3-7(4-6)8(5)9/h2-3,5-9H,4H2,1H3/t5-,6-,7+,8-/m0/s1
