17
gdb 76512	3.22499	1.25999	1.15399	0.6523	68.01	-0.2402	0.0511	0.2913	1093.97	0.134486	-458.884509	-458.876358	-458.875414	-458.917133	31.397	
O	 0.0900389944	 1.3029429451	 0.1453586363	-0.426757
C	 0.0407062361	-0.0938808847	 0.0243802011	-0.050607
C	-0.4628171374	-0.7805814991	 1.2695006864	 0.02042
O	-0.8364649696	 0.0100419643	 2.3512289805	-0.428941
C	-1.3095795137	-0.7651024554	 0.019413383	 0.282821
C	-2.704870203	-0.1048962557	-0.0710979324	-0.342841
C	-3.1404702369	-1.3252781011	-0.9052223541	 0.041872
O	-2.2867121382	-1.3950587717	-2.0529364865	-0.247301
C	-1.8038276987	-1.9339294431	-0.8091947272	-0.090966
H	-0.3580747384	 1.6925479296	-0.612731132	 0.300839
H	 0.8581724652	-0.5352161098	-0.5437675894	 0.096746
H	 0.0000533474	-1.7157196129	 1.5738719529	 0.103536
H	-0.6304988278	 0.9211721774	 2.0972254354	 0.296929
H	-3.1840994227	-0.0363843858	 0.9086939032	 0.130402
H	-2.7825791044	 0.8557090253	-0.5887081357	 0.097463
H	-4.1205898349	-1.7800077636	-0.9841290612	 0.108939
H	-1.4867973572	-2.9700997689	-0.8025188504	 0.107447
104.5437	138.6234	173.2563	254.3719	297.5834	324.9808	392.033	427.768	480.1944	577.5327	622.1588	648.3039	782.2966	843.1683	852.2851	862.0872	883.5122	939.5577	960.2466	991.3066	1017.9161	1063.746	1091.07	1117.3011	1142.7782	1167.0211	1168.8129	1218.2872	1230.8004	1261.4017	1283.5305	1316.6671	1329.4281	1377.4096	1399.9249	1464.3205	1473.9328	3053.522	3111.7799	3114.7722	3143.6871	3183.9499	3198.8349	3735.6668	3810.1017
OC1C(O)C11CC2OC12	O[C@H]1[C@@H](O)[C@]21C[C@H]1O[C@@H]21	
InChI=1S/C6H8O3/c7-3-4(8)6(3)1-2-5(6)9-2/h2-5,7-8H,1H2	InChI=1S/C6H8O3/c7-3-4(8)6(3)1-2-5(6)9-2/h2-5,7-8H,1H2/t2-,3-,4+,5-,6+/m1/s1
