15
gdb 30603	4.55408	1.08146	0.87878	2.7836	71.34	-0.2517	-0.0411	0.2106	1264.6379	0.11383	-454.007324	-453.999091	-453.998147	-454.041118	28.681	
C	 0.0151862912	 1.4178595434	 0.058182001	-0.335464
N	-0.0912826257	-0.0252512808	 0.0809185838	-0.318139
C	-1.2664029287	-0.6728092692	-0.1284495556	 0.320224
O	-2.3400313772	-0.1455777701	-0.3532505763	-0.37511
C	-1.1063368242	-2.1554735792	-0.0528093376	 0.333503
N	-0.0188776251	-2.830758396	 0.1791219679	-0.320955
C	-0.4169841112	-4.1547864712	 0.1413636302	-0.115902
C	-1.7485041563	-4.2007090957	-0.1164404207	-0.03202
O	-2.1992762778	-2.9243215961	-0.242479885	-0.146694
H	 0.7035131029	 1.7533412074	-0.7255047596	 0.130191
H	-0.9788944186	 1.8176531865	-0.145934085	 0.171523
H	 0.3660001674	 1.805731744	 1.0209867878	 0.130183
H	 0.7213126728	-0.5970135435	 0.2561675873	 0.266874
H	 0.2741347136	-4.9668833037	 0.3002570461	 0.133965
H	-2.4769993531	-4.984072656	-0.2347406443	 0.15782
74.4917	86.1119	110.0929	156.5101	223.3949	311.0099	394.0077	498.6843	555.3048	630.2243	674.0418	782.7477	803.5242	819.1828	868.8179	935.693	962.3451	1033.4971	1118.9085	1153.2453	1153.4819	1164.0354	1179.3937	1223.8268	1299.4431	1397.5369	1442.5882	1495.7828	1498.3696	1522.0761	1567.4352	1591.5056	1787.8494	3028.0922	3079.9644	3151.7296	3266.4569	3302.1842	3621.8329
CNC(=O)C1=NC=CO1	CNC(=O)c1ncco1	
InChI=1S/C5H6N2O2/c1-6-4(8)5-7-2-3-9-5/h2-3H,1H3,(H,6,8)	InChI=1S/C5H6N2O2/c1-6-4(8)5-7-2-3-9-5/h2-3H,1H3,(H,6,8)
