19
gdb 82995	3.61161	1.58632	1.46324	1.9839	73.02	-0.2373	0.0781	0.3154	952.5142	0.163022	-423.018762	-423.012182	-423.011238	-423.049361	28.057	
O	 0.1358492736	 1.4205524056	-0.090857025	-0.455108
C	 0.0270625283	 0.0311085631	-0.0337052053	 0.179151
C	 0.1178795908	-0.6521277845	 1.3512446471	 0.025817
O	-0.8668738003	 0.1059661465	 2.0885600145	-0.314656
C	-2.04657619	-0.1114806968	 1.2476244778	 0.088064
C	-2.7918966724	-1.2959664501	 1.8603869868	-0.211977
C	-1.7496541501	-2.4444872977	 1.7109583185	-0.234342
C	-0.702142774	-1.8398316283	 0.765577137	-0.033159
C	-1.3657655766	-0.662345055	-0.0281340493	-0.135743
H	-0.1989529374	 1.7404351387	 0.7583725139	 0.289429
H	 0.6953867166	-0.4020450671	-0.7809303122	 0.088084
H	 1.0289380559	-0.7491522677	 1.9408467726	 0.077722
H	-2.608262027	 0.8198193036	 1.1584097976	 0.07511
H	-3.0688706733	-1.0964413186	 2.8983385779	 0.107981
H	-3.7089736784	-1.5068765999	 1.2983791256	 0.096144
H	-1.3099676432	-2.7250800403	 2.6723282645	 0.109376
H	-2.1946353327	-3.3466101728	 1.2819867046	 0.100948
H	-0.1055092174	-2.5399854283	 0.1813072563	 0.075406
H	-1.9816439625	-0.7973458204	-0.9159407531	 0.071753
200.0736	225.7853	256.4262	397.7145	465.3075	513.3189	563.8916	660.7303	731.1524	745.735	781.4976	805.9287	834.15	847.493	887.2452	906.4065	926.7581	963.8108	978.8936	991.1894	1039.5081	1040.8991	1062.8897	1099.1267	1123.1992	1138.2905	1182.717	1200.6956	1216.7424	1232.6061	1258.6681	1275.6322	1285.5587	1295.2582	1310.0835	1335.9467	1354.4698	1363.2475	1448.4455	1476.6712	1499.8575	3041.8592	3058.1086	3090.7336	3097.6479	3102.2262	3109.7921	3118.9731	3128.6795	3135.8796	3750.2572
OC1C2OC3CCC2C13	O[C@H]1[C@H]2O[C@@H]3CC[C@H]2[C@H]13	
InChI=1S/C7H10O2/c8-6-5-3-1-2-4(5)9-7(3)6/h3-8H,1-2H2	InChI=1S/C7H10O2/c8-6-5-3-1-2-4(5)9-7(3)6/h3-8H,1-2H2/t3-,4+,5-,6+,7-/m0/s1
