17
gdb 31161	2.05481	1.79378	1.01365	1.4336	72.46	-0.1712	0.0489	0.2201	1153.3124	0.135885	-455.143452	-455.134054	-455.13311	-455.17752	34.257	
C	-0.1420317777	 1.434662495	 0.0908421053	-0.257827
O	 0.0644391694	 0.0273471279	-0.0491835845	-0.295389
C	 0.6829682996	-0.5502225304	 1.0297390343	 0.125423
C	 1.9887333656	-0.9356774613	 1.1101791059	 0.306369
N	 3.0627711162	-0.7789097538	 0.2434657166	-0.601397
O	 2.2320762234	-1.5251704176	 2.295722504	-0.185073
C	 1.0384213659	-1.5305161816	 3.007987758	-0.131556
C	 0.0623155874	-0.9361920026	 2.2726584606	 0.164972
N	-1.2731127438	-0.6546935451	 2.5887733585	-0.617909
H	 0.8133862581	 1.965121003	 0.1896987934	 0.118877
H	-0.6533869195	 1.7691714917	-0.8151755774	 0.121834
H	-0.7627218333	 1.6582419672	 0.9665429835	 0.131748
H	 2.7374754744	-0.5689085071	-0.6921839788	 0.256864
H	 3.6685486018	-1.5914446562	 0.2284628984	 0.253051
H	 1.0818622633	-1.9747205459	 3.986115406	 0.116999
H	-1.6391249535	-1.2422517266	 3.3266586106	 0.243831
H	-1.8677055472	-0.7305341568	 1.7718061457	 0.249182
69.0916	150.4173	166.6799	189.1039	201.3804	232.8861	280.1817	300.3441	359.9175	453.7296	551.5567	568.202	577.5019	621.991	694.6053	733.3644	753.3139	794.7058	798.3393	1001.0157	1036.7571	1081.8203	1141.597	1154.9044	1179.5753	1213.325	1256.4912	1311.3504	1387.945	1467.8561	1485.5081	1499.19	1508.8231	1622.4049	1634.5762	1659.1083	1713.6643	3010.0036	3075.8729	3120.6198	3294.2664	3523.3629	3526.9782	3619.8916	3622.4485
COC1=C(N)OC=C1N	COc1c(N)occ1N	
InChI=1S/C5H8N2O2/c1-8-4-3(6)2-9-5(4)7/h2H,6-7H2,1H3	InChI=1S/C5H8N2O2/c1-8-4-3(6)2-9-5(4)7/h2H,6-7H2,1H3
