20
gdb 124550	3.62199	0.95264	0.90786	2.9192	82.57	-0.2467	0.0001	0.2468	1419.0887	0.169666	-403.169133	-403.159504	-403.15856	-403.204199	34.772	
C	-0.077459693	 1.5842501271	 0.0990126409	-0.389819
C	-0.0179473484	 0.0486063152	 0.0247394614	-0.076644
C	 0.9008875159	-0.5307058501	 1.1144208258	-0.389813
C	-1.3951982954	-0.5516528745	 0.1014812077	 0.403066
N	-1.8606921278	-1.2512876608	-0.906165036	-0.220269
O	-3.1417520908	-1.6617001897	-0.5269438273	-0.214147
C	-3.4106688595	-1.1939131886	 0.7052280458	 0.443269
C	-4.741158788	-1.5342998335	 1.2776952594	-0.49104
C	-2.3470925148	-0.4817528448	 1.1632132394	-0.428344
H	 0.9253077345	 2.0105640116	-0.0061125839	 0.115373
H	-0.7084585146	 1.9944832606	-0.6945182412	 0.126243
H	-0.4830724549	 1.9194742429	 1.0599763724	 0.114174
H	 0.3842839783	-0.2352285817	-0.95397943	 0.100319
H	 0.9639154764	-1.6200725242	 1.0405954489	 0.126251
H	 1.9118267165	-0.1219636729	 1.0181535953	 0.115368
H	 0.5344088602	-0.2810082666	 2.1162615779	 0.114177
H	-5.5492381301	-1.150676677	 0.6462148423	 0.150297
H	-4.8698389584	-2.6191181356	 1.3521142215	 0.150297
H	-4.8446054737	-1.1027639712	 2.2749607031	 0.139608
H	-2.2542749826	 0.0178249038	 2.1133007765	 0.111632
45.0508	93.1387	117.855	165.9052	219.1012	247.473	248.0357	303.969	351.6907	437.6776	485.2067	590.3305	644.1596	714.1628	744.1562	813.8781	888.3435	922.8524	932.7498	968.1146	1005.9392	1014.0612	1031.7375	1065.5416	1065.9928	1122.8021	1164.9887	1191.0864	1297.7566	1343.8188	1345.9539	1397.7996	1411.6279	1416.6755	1444.7914	1473.9503	1486.4814	1490.0178	1490.2355	1500.4497	1507.1396	1529.2847	1647.406	3031.0976	3034.4914	3042.4507	3050.2462	3096.9528	3098.7549	3104.4537	3112.6799	3114.4995	3138.1865	3271.4482
CC(C)C1=NOC(C)=C1	CC(C)c1noc(C)c1	
InChI=1S/C7H11NO/c1-5(2)7-4-6(3)9-8-7/h4-5H,1-3H3	InChI=1S/C7H11NO/c1-5(2)7-4-6(3)9-8-7/h4-5H,1-3H3
