20
gdb 16567	2.82479	2.50457	2.05602	1.3805	72.71	-0.2374	0.076	0.3134	794.3513	0.181744	-349.028503	-349.022164	-349.02122	-349.058508	26.802	
C	-0.0452295162	 1.5609916297	-0.0721946094	-0.215932
C	 1.4469703678	 2.0137586899	-0.0631395663	-0.234778
C	 2.259748148	 0.700162942	 0.023477649	 0.133491
C	 1.3397916652	-0.3094273261	-0.6779770827	-0.218819
C	 0.0101943854	 0.0132172696	 0.0306666485	 0.003457
C	 0.1435114273	-0.4594868364	 1.4917158453	-0.219365
C	 1.3299136931	 0.2359917168	 2.1768356799	-0.066109
O	 2.4978900506	 0.2791632011	 1.3680444893	-0.271358
H	-0.6243118349	 2.0072181312	 0.7422217572	 0.095121
H	-0.5321657003	 1.8557628489	-1.0067078517	 0.09612
H	 1.7035856893	 2.5390447231	-0.9877282634	 0.097903
H	 1.6933874939	 2.6838989301	 0.7644424027	 0.108066
H	 3.2529896521	 0.7857996586	-0.4232444893	 0.07056
H	 1.2834304785	-0.0982451918	-1.7523868575	 0.08707
H	 1.6760273273	-1.3406929158	-0.5406678489	 0.095548
H	-0.8569691946	-0.4594115421	-0.4388481349	 0.058445
H	-0.7693107961	-0.2474560793	 2.061453688	 0.090979
H	 0.2895414015	-1.5461088724	 1.5039231482	 0.097754
H	 1.0361989247	 1.256253562	 2.4703450415	 0.087826
H	 1.6195658174	-0.2882172688	 3.0924356943	 0.104022
187.4097	273.5327	340.8726	384.011	429.7543	457.3204	553.5327	747.0259	752.3325	777.5419	805.281	830.4889	885.6724	897.0453	903.1881	940.5179	960.5587	1000.2662	1020.8409	1036.3772	1065.387	1092.612	1120.138	1170.5284	1176.4007	1218.5953	1229.5198	1258.3544	1274.4591	1289.043	1305.8384	1330.5341	1346.5306	1353.3541	1371.1317	1386.1376	1418.7078	1475.0891	1481.5287	1487.9934	1501.1809	1515.5159	2974.0054	3025.1292	3036.3009	3043.8691	3058.3763	3065.3611	3067.9521	3079.2794	3081.5841	3087.6565	3097.9643	3106.9611
C1CC2CC1CCO2	C1C[C@@H]2C[C@H]1CCO2	
InChI=1S/C7H12O/c1-2-7-5-6(1)3-4-8-7/h6-7H,1-5H2	InChI=1S/C7H12O/c1-2-7-5-6(1)3-4-8-7/h6-7H,1-5H2/t6-,7-/m1/s1
