20
gdb 15719	2.88666	1.79116	1.2476	1.2411	71.01	-0.2495	0.088	0.3375	1038.2355	0.177058	-386.151243	-386.14265	-386.141706	-386.184522	31.389	
C	-0.1698826674	 1.5938420087	 0.1524532657	-0.38569
C	-0.2451759245	 0.0645454332	 0.1566461331	-0.18205
C	 0.7933020426	-0.5651468489	 1.0855932244	 0.121903
O	 0.6102865289	-0.0733918732	 2.4221770246	-0.276917
C	 0.2319807378	-1.1620609691	 3.2456497176	 0.022835
O	-0.1691231974	-2.2063215426	 2.4035986899	-0.248126
C	 0.6963495733	-2.099378639	 1.2733393238	 0.094361
C	 0.1514002164	-2.9334851797	 0.1302386496	-0.418071
H	 0.8061875216	 1.9404698842	-0.2058828097	 0.110252
H	-0.9366686987	 2.0244032217	-0.4983982058	 0.108755
H	-0.3136134369	 1.9861402226	 1.1622051974	 0.135375
H	-1.2433684621	-0.2602764732	 0.4729721128	 0.10531
H	-0.0886925624	-0.3180968304	-0.85971008	 0.092221
H	 1.8017506559	-0.2830581739	 0.7534221206	 0.073872
H	 1.0917611481	-1.4667292259	 3.8702649605	 0.081597
H	-0.6102818171	-0.8766139737	 3.8851227719	 0.112254
H	 1.6964367848	-2.4724966428	 1.5536936811	 0.069758
H	-0.8582684672	-2.6202175902	-0.1442725316	 0.13233
H	 0.7977957448	-2.8466248571	-0.748470208	 0.12101
H	 0.1157015995	-3.9861755807	 0.4230529724	 0.129021
62.6849	121.5922	192.0069	199.5582	234.6535	239.7652	287.8897	367.9536	444.5853	518.9506	691.9001	742.9978	769.0834	847.8612	879.6649	935.2887	951.4387	1018.2369	1035.2381	1064.1224	1096.266	1122.6226	1134.5722	1151.955	1173.9201	1189.5894	1234.597	1290.6048	1303.48	1346.9913	1357.7501	1390.5813	1403.6812	1409.9642	1423.8172	1435.1368	1479.1986	1486.3125	1497.818	1506.4147	1510.5893	1547.2452	2931.9478	2951.3767	3012.513	3026.0753	3035.7273	3050.006	3064.0351	3069.1353	3101.1678	3118.702	3125.9777	3134.0976
CCC1OCOC1C	CC[C@H]1OCO[C@H]1C	
InChI=1S/C6H12O2/c1-3-6-5(2)7-4-8-6/h5-6H,3-4H2,1-2H3	InChI=1S/C6H12O2/c1-3-6-5(2)7-4-8-6/h5-6H,3-4H2,1-2H3/t5-,6+/m0/s1
