23
gdb 95955	2.58029	1.43252	1.18763	1.6941	84.34	-0.238	0.0757	0.3137	1173.433	0.206785	-388.287989	-388.278938	-388.277994	-388.322562	34.317	
C	 0.539562771	 1.6669877651	-0.4599462841	-0.405637
C	 0.0610461476	 0.2522060007	-0.1075172054	-0.093892
C	 0.6384340196	-0.8165513612	-1.0530468541	-0.07264
O	 1.8514549264	-1.2875889137	-0.4583105185	-0.269948
C	 1.9762274381	-0.7582117016	 0.8569396206	-0.117382
C	 0.5838447324	-0.2533606898	 1.2493271519	 0.356295
C	 0.5243101774	 0.6250305515	 2.5292390344	-0.295556
C	 0.0686944833	-0.6216661072	 3.3358617996	-0.214095
C	-0.2681939611	-1.3281448685	 1.9959027766	-0.275109
H	 1.6320183466	 1.7242605671	-0.5075177006	 0.125675
H	 0.1521054772	 1.9715982617	-1.4375036561	 0.114502
H	 0.1971761996	 2.400738083	 0.2766018079	 0.115105
H	-1.034031951	 0.2327968925	-0.1274042795	 0.065807
H	-0.0553691714	-1.6608875047	-1.1726223578	 0.091771
H	 0.8610129145	-0.4194343416	-2.0509754605	 0.095292
H	 2.3508489994	-1.5478153767	 1.5188717825	 0.098396
H	 2.7092761701	 0.0646102851	 0.8708070764	 0.084282
H	 1.4508618631	 1.1179352096	 2.8378264393	 0.096393
H	-0.2623694236	 1.3832205635	 2.4681050386	 0.100138
H	 0.9006436669	-1.1000424529	 3.859644291	 0.104652
H	-0.7489492157	-0.4845141391	 4.0468559742	 0.097581
H	-1.3308608295	-1.24735294	 1.7459963456	 0.094676
H	 0.0361830893	-2.3717700427	 1.8797702378	 0.103696
28.9249	112.8229	121.9109	194.3031	219.146	297.7527	312.5028	368.9521	450.4073	491.6842	671.3126	715.576	752.2801	794.6521	854.2093	872.9517	909.2964	929.5449	933.2393	944.3761	962.4684	981.5586	1026.4103	1032.7989	1076.1696	1101.0128	1135.3715	1154.5892	1180.0053	1205.6247	1210.5723	1218.3544	1237.2483	1257.4863	1270.2553	1276.9358	1302.886	1313.8061	1361.921	1363.3326	1398.2924	1415.0414	1475.8004	1483.9801	1496.5391	1497.9458	1505.2751	1523.3801	1531.1742	2966.1581	2995.4942	3033.3922	3041.5493	3043.3225	3045.1832	3047.0708	3050.1585	3061.8035	3090.4288	3097.5478	3100.9088	3105.4897	3117.4928
CC1COCC11CCC1	C[C@H]1COCC21CCC2	
InChI=1S/C8H14O/c1-7-5-9-6-8(7)3-2-4-8/h7H,2-6H2,1H3	InChI=1S/C8H14O/c1-7-5-9-6-8(7)3-2-4-8/h7H,2-6H2,1H3/t7-/m0/s1
