17
gdb 61190	3.61877	0.86694	0.79795	5.577	75.12	-0.2644	0.015	0.2794	1429.0959	0.133884	-417.972226	-417.9622	-417.961256	-418.007389	36.085	
N	-0.2062628667	 1.571322109	 0.0227849943	-0.498007
C	-0.0838030396	 0.1180953167	-0.034802555	-0.152259
C	-1.4212746682	-0.4901772911	 0.0995737111	 0.317927
N	-2.4554692586	-0.992639603	 0.2067772013	-0.320962
C	 0.596693894	-0.4453581048	-1.3112312137	 0.12739
O	-0.0929914282	 0.1223107806	-2.4022320593	-0.432952
C	 2.1033351182	-0.0996582685	-1.3508726827	-0.380458
C	 2.6955043508	-0.5194927983	-2.6139924459	 0.248248
C	 3.1118157484	-0.8745525067	-3.6850336521	-0.40457
H	 0.6990217928	 1.9934855713	 0.1971815533	 0.238261
H	-0.535563123	 1.9060561329	-0.8783014245	 0.255481
H	 0.4997764137	-0.2121210323	 0.8331920068	 0.128608
H	 0.4949837971	-1.5409897724	-1.3050678472	 0.100897
H	 0.3637620556	-0.1408924834	-3.210456923	 0.297062
H	 2.2280438587	 0.9833920999	-1.2301267688	 0.12986
H	 2.6152446003	-0.585387099	-0.5107796742	 0.137293
H	 3.5157342547	-1.186469681	-4.6168075003	 0.208181
66.1737	82.0328	104.5376	177.5927	211.7016	259.1387	283.5265	343.5559	348.8322	362.713	389.6505	457.9654	534.2607	604.0439	634.501	667.7327	710.7605	829.7143	848.7566	879.4535	965.2737	979.8139	1041.181	1113.8421	1120.6385	1180.2979	1236.6354	1267.0298	1288.037	1321.6006	1386.3629	1398.8877	1429.3604	1464.2762	1658.7885	2234.2613	2366.3233	2994.536	3024.9392	3047.2791	3067.442	3502.3087	3504.3718	3593.7889	3784.5794
NC(C#N)C(O)CC#C	N[C@@H](C#N)[C@@H](O)CC#C	
InChI=1S/C6H8N2O/c1-2-3-6(9)5(8)4-7/h1,5-6,9H,3,8H2	InChI=1S/C6H8N2O/c1-2-3-6(9)5(8)4-7/h1,5-6,9H,3,8H2/t5-,6-/m0/s1
