16
gdb 124832	4.39738	0.95061	0.87098	3.7984	66.64	-0.2841	-0.0671	0.217	1323.4275	0.122641	-471.15231	-471.143704	-471.142759	-471.186472	30.697	
C	-0.041475454	 1.5572760613	 0.2219997271	-0.40493
C	-0.0118938854	 0.0479503364	-0.0116672453	 0.142799
O	 0.7713579018	-0.6280701207	 0.9574719099	-0.422087
C	-1.4430007212	-0.5367523713	-0.0932005063	-0.337387
C	-1.4411375784	-2.0204277243	-0.2081675776	 0.438561
N	-1.4829255574	-2.6966914109	-1.3201496804	-0.154141
O	-1.4317973949	-3.9943560978	-0.9383143134	-0.138805
N	-1.3646896379	-4.0506016602	 0.4517056984	 0.044361
N	-1.3698515779	-2.872385667	 0.8846391959	-0.20179
H	 0.978659854	 1.9455042013	 0.2735876726	 0.134843
H	-0.5717955141	 2.0757511094	-0.5833580499	 0.121979
H	-0.5472402765	 1.7955775289	 1.1657995171	 0.112899
H	 0.4917232088	-0.1629808101	-0.9621230046	 0.111172
H	 0.3590953695	-0.5145722206	 1.8216528703	 0.285668
H	-2.0001344965	-0.2620641499	 0.8101372888	 0.126298
H	-1.9661537398	-0.1079890647	-0.9520788527	 0.140562
61.5271	70.0228	112.0979	244.0145	288.4353	296.6612	328.5059	349.1417	459.0394	475.3453	671.9262	694.7516	718.4271	805.4985	848.7757	898.7764	939.8669	959.2729	1047.3739	1065.0312	1095.4153	1102.7604	1149.8578	1178.5747	1297.638	1322.0799	1342.4293	1373.7901	1408.4648	1426.5069	1464.6777	1489.5411	1492.4313	1496.0481	1599.5471	3028.7235	3042.6759	3056.088	3097.2808	3111.7767	3125.6989	3796.6259
CC(O)CC1=NON=N1	C[C@@H](O)Cc1nonn1	
InChI=1S/C4H7N3O2/c1-3(8)2-4-5-7-9-6-4/h3,8H,2H2,1H3	InChI=1S/C4H7N3O2/c1-3(8)2-4-5-7-9-6-4/h3,8H,2H2,1H3/t3-/m1/s1
