22
gdb 101785	4.17159	0.7265	0.64859	7.0544	79.65	-0.236	0.0377	0.2738	1747.9255	0.194044	-441.532604	-441.522353	-441.521409	-441.568497	37.37	
C	-0.09823312	 1.5456137511	-0.3486668286	-0.396684
C	-0.1121403901	 0.1884743853	 0.3605545516	-0.176465
C	-1.38219469	-0.6433565471	 0.1088562244	 0.034763
N	-1.6110097088	-0.9509105654	-1.3210288834	-0.516148
H	-2.5401909082	-2.4200477787	-1.4036374063	 0.319371
H	-1.8999964008	-0.1230611326	-1.8318362639	 0.248561
H	-0.7436305155	-1.2686428983	-1.7500915379	 0.244936
C	-1.375752832	-1.9475739206	 0.9232693311	-0.207296
C	-2.7259145844	-2.6985462963	 0.9986402596	-0.331332
C	-3.0171133843	-3.746856772	-0.0821596751	 0.383422
O	-2.8738927619	-3.3567917477	-1.352630457	-0.38226
O	-3.3812403056	-4.8615276051	 0.1968393351	-0.334042
H	 0.8099161064	 2.1044905278	-0.1057886091	 0.126093
H	-0.1304611949	 1.4381078849	-1.4381159125	 0.108486
H	-0.9551756814	 2.1589995623	-0.0477744628	 0.120019
H	 0.7633284383	-0.4017385223	 0.0542625753	 0.098239
H	-0.0096132194	 0.3441814655	 1.44117133	 0.106888
H	-2.2500540122	-0.0513385875	 0.4307637251	 0.090055
H	-0.5911398458	-2.612996751	 0.53890536	 0.108706
H	-1.0766055001	-1.6932060272	 1.9456388783	 0.109844
H	-2.7956071588	-3.2374961042	 1.9447599864	 0.129044
H	-3.5479619404	-1.9696696009	 0.9890676596	 0.1158
50.094	77.7227	99.1837	161.7317	187.6913	230.2666	248.5575	319.4329	336.1173	367.5626	443.9883	478.5568	494.9512	595.3816	703.7291	772.785	805.9558	844.8068	914.8383	921.2951	968.0595	976.7435	1005.1549	1027.8569	1052.1522	1071.238	1115.3836	1146.4399	1167.6544	1217.516	1261.9649	1306.2069	1315.7133	1327.7797	1359.3203	1375.4781	1387.816	1408.4872	1420.5969	1470.8987	1477.2913	1488.571	1490.982	1499.8944	1507.3166	1648.397	1847.8182	3007.0405	3015.4556	3022.5795	3031.1517	3033.2363	3054.8815	3073.8276	3096.93	3109.4414	3118.027	3170.1628	3477.1427	3568.4119
CCC([NH3+])CCC([O-])=O	CC[C@@H](N)CCC(=O)O	
InChI=1S/C6H13NO2/c1-2-5(7)3-4-6(8)9/h5H,2-4,7H2,1H3,(H,8,9)	InChI=1S/C6H13NO2/c1-2-5(7)3-4-6(8)9/h5H,2-4,7H2,1H3,(H,8,9)/t5-/m1/s1
