19
gdb 16161	4.32694	1.59745	1.36561	1.5866	76.25	-0.2261	0.0195	0.2455	976.0536	0.166687	-327.915354	-327.907803	-327.906859	-327.946982	29.495	
C	-0.3922934993	 1.4719484249	-0.0785185684	-0.375477
C	 0.1574064248	 0.0506966104	 0.1082207259	-0.294063
C	 0.8829392746	-0.4736211013	-1.1082825094	 0.33269
N	 0.0996982698	-0.9094379535	-2.3077704384	-0.370836
C	 0.8970089495	-1.8985910828	-1.5453713559	-0.106638
C	 2.2538917521	-2.2067546446	-2.1684100967	-0.263374
C	 2.9633421419	-0.868148537	-2.1055722657	-0.073819
C	 2.2218435666	 0.0692225369	-1.5131381904	-0.107646
H	 0.411741513	 2.1874611496	-0.2785787653	 0.12167
H	-1.0894771109	 1.5166306414	-0.9212952758	 0.122935
H	-0.9214238177	 1.8087440273	 0.8180338393	 0.112195
H	 0.8376440878	 0.0295349947	 0.9693235594	 0.103849
H	-0.6673138226	-0.6319316474	 0.3513922805	 0.091476
H	-0.8756052829	-1.0166126246	-2.0273701588	 0.21802
H	 0.3692412882	-2.6670306997	-0.9893679058	 0.081892
H	 2.7917871811	-2.9808687174	-1.6050438644	 0.102857
H	 2.1545528116	-2.5704135656	-3.1983476546	 0.118811
H	 3.9484242751	-0.7125838404	-2.5313114444	 0.093206
H	 2.5140966474	 1.101184049	-1.3578640611	 0.092252
93.5877	161.5432	200.8416	290.6335	297.5857	376.4531	463.1622	493.3008	632.8443	708.8274	743.1036	781.244	789.7609	861.2998	899.8449	915.1069	951.9934	961.6376	964.6126	985.8408	1026.4787	1065.3602	1095.4943	1114.6052	1128.4601	1165.2904	1191.3856	1256.1652	1285.3228	1307.1016	1328.1409	1372.1204	1389.273	1412.9028	1433.5174	1464.7428	1479.3916	1498.2174	1506.1986	1670.4583	3015.3532	3019.6139	3037.969	3049.7709	3057.2852	3107.0435	3109.2962	3158.3168	3185.1947	3210.5124	3453.0572
CCC12NC1CC=C2	CC[C@]12N[C@H]1CC=C2	
InChI=1S/C7H11N/c1-2-7-5-3-4-6(7)8-7/h3,5-6,8H,2,4H2,1H3	InChI=1S/C7H11N/c1-2-7-5-3-4-6(7)8-7/h3,5-6,8H,2,4H2,1H3/t6-,7+/m0/s1
