17
gdb 33716	6.21028	0.91763	0.91762	0.0004	89.8	-0.255	0.0295	0.2846	1289.9511	0.134573	-347.442187	-347.434014	-347.43307	-347.474573	32.491	
C	 0.0203030997	-1.1392686281	-0.0095071541	-0.355126
C	 0.0022414932	 0.0636428537	-0.0001236587	 0.061393
C	-0.0201984698	 1.4963573049	 0.0116830035	 0.223071
C	-0.6439066881	 2.4276075203	 1.1032266275	-0.283831
C	-0.0498419598	 3.3957539232	 0.0273670446	 0.223073
C	 1.2077723359	 2.4655692811	 0.0049750904	-0.283882
C	-0.6693607795	 2.4449841528	-1.049707531	-0.283841
C	-0.0721069381	 4.8284707664	 0.0391943161	 0.061394
C	-0.0906891414	 6.0313695627	 0.0491557684	-0.355128
H	 0.0368406794	-2.200886268	-0.0182418478	 0.176131
H	-1.7324361996	 2.4098893592	 1.1918876899	 0.106782
H	-0.1537732827	 2.427197324	 2.079370534	 0.106758
H	 1.8290059839	 2.4678454978	 0.9034001716	 0.106772
H	 1.8079723837	 2.4824667486	-0.9075156371	 0.106765
H	-0.2021875352	 2.460424891	-2.0369383967	 0.106761
H	-1.75968025	 2.4284944337	-1.1130679297	 0.106778
H	-0.1065734914	 7.0929933268	 0.0583158691	 0.17613
107.7717	107.8658	203.9699	205.2544	454.4369	455.2017	490.936	526.0701	526.2297	563.2041	565.4252	592.6052	631.9238	631.9519	633.4019	633.4182	805.6454	806.9903	930.0179	962.2344	987.3186	1034.1539	1035.1332	1097.4889	1120.5686	1120.8078	1146.5513	1147.71	1162.121	1163.3451	1274.3131	1336.5492	1495.0143	1496.9495	1553.0531	2234.472	2235.901	3059.5031	3060.4009	3067.4666	3130.5532	3135.6744	3136.1416	3502.2386	3502.5787
C#CC12CC(C1)(C2)C#C	C#C[C@@]12C[C@@](C1)(C2)C#C	
InChI=1S/C9H8/c1-3-8-5-9(4-2,6-8)7-8/h1-2H,5-7H2	InChI=1S/C9H8/c1-3-8-5-9(4-2,6-8)7-8/h1-2H,5-7H2/t8-,9+
