19
gdb 94760	2.99513	1.22834	1.19535	4.1147	80.86	-0.2206	0.0358	0.2563	1142.7161	0.161154	-382.071058	-382.062877	-382.061933	-382.103616	31.738	
C	-0.3512120614	 1.4093745433	 0.4639520404	-0.33554
N	 0.1444482125	 0.1096971686	 0.0091779574	-0.05311
C	-0.9278084121	-0.7994074484	-0.436747881	-0.200539
C	-1.3269035817	-1.6817528068	 0.7825467524	-0.293185
C	-0.0500507421	-1.7262531132	 1.6166827124	 0.183981
C	 1.2354916588	-2.0150000564	 0.8439271997	-0.356232
C	 0.8420439886	-0.5903683028	 1.0533218391	-0.006731
C	-0.1227250917	-2.0233654465	 3.0121889361	 0.191252
N	-0.1798229104	-2.2531082404	 4.1462434302	-0.355405
H	 0.4927907946	 2.0245113157	 0.7891946561	 0.128946
H	-0.8345547674	 1.9225107184	-0.371604656	 0.126273
H	-1.0697798208	 1.3481514979	 1.2994347667	 0.108341
H	-1.7678965879	-0.2267192925	-0.8339886583	 0.114662
H	-0.5555918562	-1.4300006472	-1.2500525351	 0.116529
H	-2.1271367245	-1.2212718755	 1.3692923383	 0.125021
H	-1.67025363	-2.6714833091	 0.4695136754	 0.119227
H	 2.0744223053	-2.3740873516	 1.428297342	 0.140871
H	 1.1479115905	-2.4673654563	-0.137494209	 0.129227
H	 1.4409909657	 0.0242787426	 1.7140449833	 0.116411
102.3674	161.5818	171.4873	225.3704	288.6114	344.2939	408.911	465.357	493.453	551.1569	572.1922	655.7507	690.8422	784.2764	803.0864	862.5366	922.2234	944.9881	978.7426	1016.8388	1025.9854	1072.672	1095.1879	1108.7618	1126.722	1160.4774	1208.251	1234.6478	1249.4188	1265.1358	1300.8118	1335.1286	1354.5944	1407.0016	1461.2204	1482.2105	1493.5927	1499.4981	1505.6419	1518.1108	2338.8586	2959.7164	3051.17	3059.805	3075.5913	3101.1756	3113.341	3119.2164	3143.2711	3194.8071	3232.3403
CN1CCC2(CC12)C#N	CN1CC[C@]2(C[C@@H]12)C#N	
InChI=1S/C7H10N2/c1-9-3-2-7(5-8)4-6(7)9/h6H,2-4H2,1H3	InChI=1S/C7H10N2/c1-9-3-2-7(5-8)4-6(7)9/h6H,2-4H2,1H3/t6-,7+/m1/s1
