20
gdb 70687	2.2256	1.82583	1.21367	2.8222	78.79	-0.2126	-0.0105	0.2021	1082.1865	0.172679	-403.159877	-403.151516	-403.150572	-403.19256	32.675	
C	 0.0391092438	 1.5489466942	 0.0203513325	-0.463657
C	 0.0725033924	 0.0361811515	-0.0129462027	 0.231792
C	-0.8520454935	-0.7311698362	 0.9338529213	-0.320705
C	 0.6244658128	-0.7487271797	 1.1775943049	-0.082759
C	 1.4299466864	-2.0332567949	 0.9273695465	-0.19661
N	 1.8308258906	-2.274051231	-0.4590643411	-0.281192
C	 0.7339388592	-2.0287993871	-1.3994587098	-0.28079
C	 0.2711214981	-0.5698574982	-1.3670438897	 0.328046
O	 0.1486225212	 0.0829107134	-2.3832887683	-0.327875
H	 0.9847340637	 1.9720038122	-0.3332029998	 0.123681
H	-0.7516196958	 1.9307260081	-0.6307945874	 0.138135
H	-0.1399552177	 1.9106923065	 1.0373481044	 0.106405
H	-1.4857915257	-0.127549576	 1.5747537988	 0.121402
H	-1.3225458565	-1.6407010322	 0.5745152777	 0.118815
H	 0.9761098331	-0.131238566	 1.9996420965	 0.093276
H	 2.3373101972	-2.0180879506	 1.5381441766	 0.110703
H	 0.8422553029	-2.8991391907	 1.2607103721	 0.112538
H	 2.6041400497	-1.659476022	-0.6968795012	 0.22251
H	 1.0497313257	-2.2543500807	-2.4210215043	 0.127017
H	-0.0932905975	-2.7070816307	-1.150374077	 0.119269
87.34	164.5783	202.6214	212.0322	293.2545	320.2291	382.835	441.2986	468.7412	489.5962	579.8735	647.109	742.2402	773.3251	799.3475	860.736	883.5145	902.0641	931.1363	974.9905	1012.5245	1048.5899	1058.0209	1086.3531	1119.0572	1126.0422	1147.97	1163.347	1218.3676	1275.0914	1320.1058	1338.8006	1350.4759	1375.6157	1399.8981	1415.815	1462.8255	1481.4001	1484.7914	1493.7087	1495.8829	1499.8304	1785.2014	3015.5957	3023.8145	3039.8246	3082.4074	3105.41	3106.4686	3119.3097	3129.1177	3141.5949	3214.1568	3503.0442
CC12CC1CNCC2=O	C[C@]12C[C@H]1CNCC2=O	
InChI=1S/C7H11NO/c1-7-2-5(7)3-8-4-6(7)9/h5,8H,2-4H2,1H3	InChI=1S/C7H11NO/c1-7-2-5(7)3-8-4-6(7)9/h5,8H,2-4H2,1H3/t5-,7-/m0/s1
