21
gdb 120941	3.31505	0.94662	0.85228	1.2291	79.7	-0.2451	0.0892	0.3342	1457.9828	0.180395	-424.1829	-424.173273	-424.172329	-424.217748	35.104	
C	-0.101514263	 1.3927052614	-0.0728057767	-0.224476
O	-0.1489721943	-0.0126226162	-0.1034269371	-0.235527
C	 0.7714455083	-0.5725127297	-1.018814376	-0.070056
C	 0.6036262004	-2.0783853031	-1.0008232114	-0.073612
C	-0.7311814171	-2.6800162665	-1.5700516973	-0.255505
C	 0.1102498716	-3.4390513568	-2.6014034952	-0.040359
O	 0.8459252318	-2.4575098886	-3.3497234713	-0.290166
C	 1.3714037245	-2.8801083332	-2.0797198906	 0.397773
C	 2.7719649556	-3.398843189	-2.0315480544	-0.504556
H	 0.8888686394	 1.7628810852	 0.238413798	 0.100651
H	-0.3348397905	 1.832352412	-1.0557418659	 0.103947
H	-0.8468861066	 1.7314871688	 0.6512245897	 0.124473
H	 0.5905640888	-0.1917157217	-2.0359333745	 0.101629
H	 1.8041570181	-0.2950339583	-0.7406712926	 0.078471
H	 0.8070167024	-2.4640323635	 0.0027618276	 0.080121
H	-1.2400498093	-3.3276537446	-0.8529701429	 0.105629
H	-1.4449947289	-1.9661112365	-1.987261192	 0.112929
H	-0.0904159958	-4.3820413327	-3.098379399	 0.099118
H	 3.4969810342	-2.578869405	-2.0890446807	 0.130251
H	 2.9530201839	-3.9413347355	-1.0979234767	 0.124633
H	 2.9570707764	-4.0731815165	-2.871963681	 0.134631
69.5799	97.3158	119.2792	166.4846	198.5592	236.5317	253.5982	308.1494	346.2503	419.9067	488.0741	559.9248	641.0485	728.1127	844.6563	857.7066	885.8351	908.5937	953.7361	978.2579	994.0675	1046.5617	1090.6716	1095.4623	1112.6266	1155.3264	1174.3879	1189.326	1199.9414	1209.422	1233.7897	1260.5437	1266.8443	1281.6804	1350.5056	1402.8218	1416.9478	1458.2589	1478.2075	1481.0923	1485.4475	1485.9028	1496.0732	1504.3193	1529.9352	2941.6575	2967.3906	3001.3596	3009.6836	3032.8467	3067.1944	3072.9049	3094.2407	3110.3778	3119.8097	3127.6439	3177.5315
COCC1CC2OC12C	COC[C@H]1C[C@H]2O[C@@]12C	
InChI=1S/C7H12O2/c1-7-5(4-8-2)3-6(7)9-7/h5-6H,3-4H2,1-2H3	InChI=1S/C7H12O2/c1-7-5(4-8-2)3-6(7)9-7/h5-6H,3-4H2,1-2H3/t5-,6-,7+/m1/s1
