17
gdb 128846	6.01077	0.69683	0.66763	2.0255	70.8	-0.2586	-0.0272	0.2314	1660.9959	0.136803	-451.30118	-451.292397	-451.291453	-451.336693	29.854	
C	-0.1875922784	 1.3558692971	 0.0652055934	-0.230682
O	 0.0421307428	-0.0309555967	-0.013417385	-0.22964
C	 0.638199059	-0.5539035837	 1.1498015998	-0.052184
C	 0.8237595938	-2.0590384387	 0.9399644058	-0.303119
C	 1.4211794519	-2.7216545841	 2.1341831651	 0.372161
N	 2.6612880079	-3.2009032152	 2.1860713875	-0.258925
N	 2.7077563331	-3.6573277162	 3.4306546768	-0.067423
N	 1.5942841479	-3.4884720024	 4.1270222225	-0.098407
N	 0.7630823149	-2.8917544997	 3.3146136483	-0.249046
H	 0.7497496278	 1.9184061417	 0.2012263787	 0.104969
H	-0.6506293703	 1.6639900819	-0.8752001835	 0.128869
H	-0.8639910927	 1.6114759745	 0.8959680407	 0.10744
H	 1.6133332829	-0.073814619	 1.3401097206	 0.092905
H	 0.0056029836	-0.3732142438	 2.0338325026	 0.109558
H	-0.1547109395	-2.5007674168	 0.7275979776	 0.137668
H	 1.4669532864	-2.2297071599	 0.07369155	 0.134156
H	 3.5228926988	-4.108006109	 3.8187835491	 0.3017
27.106	82.3116	96.1349	107.7128	231.3764	263.7282	338.6833	350.678	464.0707	580.7455	733.7435	742.9563	793.5896	817.7355	997.4188	1027.7742	1058.7036	1063.4133	1073.9655	1125.8806	1164.1952	1180.5077	1194.2266	1225.3022	1229.2666	1271.6051	1302.1433	1312.9242	1362.5061	1420.9108	1471.9594	1481.8528	1485.8757	1486.0312	1505.0231	1534.1986	1547.1274	2956.9175	2973.5866	2995.7129	3016.273	3065.4748	3116.0869	3122.045	3649.8801
COCCC1=NNN=N1	COCCc1n[nH]nn1	
InChI=1S/C4H8N4O/c1-9-3-2-4-5-7-8-6-4/h2-3H2,1H3,(H,5,6,7,8)	InChI=1S/C4H8N4O/c1-9-3-2-4-5-7-8-6-4/h2-3H2,1H3,(H,5,6,7,8)
