16
gdb 51275	3.99353	0.88858	0.77331	4.3018	74.01	-0.2206	-0.0345	0.1862	1406.3969	0.123301	-437.941526	-437.932918	-437.931974	-437.976496	30.543	
O	 0.204989827	-0.2058665314	-0.378889286	-0.231241
C	 0.0966157904	 0.9804157441	-0.2174968551	 0.160349
C	 1.263380802	 1.9472506894	-0.0465448369	-0.37621
C	 1.294227042	 2.9410577208	-1.1656516701	 0.232077
C	 0.9776398301	 4.2428496779	-1.1141748061	-0.109777
N	 1.0911676261	 4.8525866606	-2.3690861751	-0.319112
C	 1.5054121811	 3.9515224412	-3.3390101098	 0.424201
O	 1.6968038516	 4.2007799479	-4.5043738855	-0.359927
C	 1.6593146872	 2.6124838723	-2.5962928003	-0.444861
H	-0.9003593757	 1.478837502	-0.2088459286	 0.077556
H	 1.1240527215	 2.4721528833	 0.9077665636	 0.120186
H	 2.1848300002	 1.3577694984	 0.0096075782	 0.12552
H	 0.671159656	 4.8317395373	-0.2604915217	 0.130621
H	 0.9284878218	 5.8256209951	-2.5675548715	 0.26417
H	 2.6864128393	 2.2462776378	-2.7105032738	 0.150952
H	 1.0099377295	 1.8591902933	-3.0576671715	 0.155495
32.2854	58.707	102.5902	182.1271	271.4251	339.6511	425.8514	466.3348	492.3328	500.7437	581.119	597.0591	738.7799	834.459	848.2959	865.349	915.5179	950.3944	1002.4942	1054.8176	1092.2312	1149.4226	1175.503	1186.4205	1222.9813	1281.9047	1312.2468	1361.0641	1403.1441	1415.9134	1433.4511	1456.2836	1698.5008	1834.6728	1844.9818	2867.486	3022.4718	3044.8383	3077.0124	3084.0505	3231.1785	3666.6689
O=CCC1=CNC(=O)C1	O=CCC1=CNC(=O)C1	
InChI=1S/C6H7NO2/c8-2-1-5-3-6(9)7-4-5/h2,4H,1,3H2,(H,7,9)	InChI=1S/C6H7NO2/c8-2-1-5-3-6(9)7-4-5/h2,4H,1,3H2,(H,7,9)
