19
gdb 50427	3.10541	1.28101	1.01803	2.7068	81.19	-0.2357	-0.0198	0.2159	1180.831	0.160514	-385.901519	-385.893569	-385.892624	-385.934471	30.693	
O	-0.2141355469	 0.0633105467	 0.1660237222	-0.248221
C	-0.0421517488	 1.2494711987	 0.0577991203	 0.157333
C	 1.3067192304	 1.9416537344	 0.0350561618	-0.079736
C	 1.4852521326	 2.6942396268	-1.3080790478	-0.29711
C	 2.6285969223	 3.6749103621	-1.2765904199	-0.089842
C	 3.0274102037	 4.2778843634	-0.1550734423	-0.036472
C	 2.3789650631	 4.0364929932	 1.1551629577	-0.086787
C	 0.8776322252	 4.2497273719	 1.2919215386	-0.292019
C	 1.4354734051	 2.8529238251	 1.249721868	-0.039562
H	-0.9064176015	 1.9510064289	-0.0307089503	 0.069805
H	 2.0706556933	 1.1604558007	 0.1102602932	 0.096389
H	 1.6338739896	 1.9601045681	-2.1073319076	 0.119233
H	 0.5498468674	 3.2154186603	-1.5616592452	 0.114094
H	 3.12306081	 3.8906596094	-2.219066604	 0.092356
H	 3.8544786734	 4.9817541471	-0.1783671266	 0.090453
H	 2.9776215691	 4.2612763824	 2.0315430631	 0.090015
H	 0.4976906355	 4.6137625469	 2.2402633362	 0.117202
H	 0.3602651353	 4.6430748549	 0.4242086853	 0.122358
H	 1.4404268411	 2.3187255692	 2.1953363875	 0.100511
59.2288	101.8637	213.4787	270.5214	304.653	367.2846	429.784	493.8387	508.4454	620.2	721.7538	754.7086	775.4449	825.4129	860.2378	897.3561	942.0912	960.4117	983.0773	993.5719	1032.6613	1060.3398	1077.1532	1098.1151	1106.6629	1129.7193	1155.6667	1194.544	1213.335	1238.5031	1272.3152	1336.7931	1344.6341	1373.7285	1407.7137	1423.9332	1425.8101	1477.5842	1495.5645	1711.3989	1833.2783	2844.3959	2994.9496	3052.7673	3065.7201	3135.9257	3147.1512	3155.2995	3164.5151	3181.3415	3222.8234
O=CC1CC=CC2CC12	O=C[C@H]1CC=C[C@H]2C[C@@H]12	
InChI=1S/C8H10O/c9-5-7-3-1-2-6-4-8(6)7/h1-2,5-8H,3-4H2	InChI=1S/C8H10O/c9-5-7-3-1-2-6-4-8(6)7/h1-2,5-8H,3-4H2/t6-,7+,8+/m0/s1
