16
gdb 79001	3.59447	1.8537	1.68543	2.9289	73.14	-0.2078	-0.0278	0.18	830.7493	0.125724	-400.624889	-400.618612	-400.617668	-400.655188	26.284	
O	 0.4782484212	 1.3024509358	-0.6381119309	-0.412331
C	 0.216239061	 0.0199256451	-0.1612916746	 0.095035
C	-1.2584074997	-0.613285709	-0.2135406443	-0.106403
C	-2.0337069676	-0.7444704809	-1.5586116259	-0.060095
C	-1.1453359129	-1.2127453858	-2.722757198	-0.067733
C	 0.2338301811	-0.7884131641	-2.4395758728	-0.102654
C	 0.488741667	-1.1149557107	-1.1496405547	-0.044812
C	-0.6668923808	-1.9763591648	-0.6216755111	-0.01214
N	-1.6634182946	-2.1866319436	-1.7368778933	-0.146869
H	 0.5178275983	 1.9080359749	 0.1076920005	 0.291312
H	 0.5969832011	-0.1150459732	 0.861963516	 0.079624
H	-1.9003551195	-0.4910520818	 0.6614445921	 0.083211
H	-3.044487133	-0.3940232684	-1.7339102933	 0.103154
H	-1.598013059	-1.2641512916	-3.7078097336	 0.098674
H	 0.653284449	 0.0832200044	-2.9277348224	 0.121103
H	-0.4903545717	-2.8187341762	 0.0422105865	 0.080922
172.5291	220.6691	286.873	488.8335	542.0016	572.0711	641.433	703.096	721.8118	745.7608	754.6608	801.1794	821.7494	876.4424	882.2364	919.136	936.3795	973.0993	979.5685	997.5196	1042.8456	1076.2711	1116.3672	1144.6826	1150.9345	1158.605	1190.4923	1215.5295	1245.9945	1249.7655	1307.1752	1308.6855	1329.4807	1441.6738	1564.955	2989.76	3091.6199	3141.1287	3165.3366	3181.0674	3203.3009	3833.5819
OC1C2C3C4C=C1C2N34	O[C@H]1[C@H]2[C@H]3[C@H]4[CH][C]1[C@@H]2N34	
InChI=1S/C7H7NO/c9-7-2-1-3-6-4(7)5(2)8(3)6/h1,3-7,9H	InChI=1S/C7H7NO/c9-7-2-1-3-6-4(7)5(2)8(3)6/h1,3-7,9H/t3-,4-,5+,6-,7-,8?/m1/s1
