18
gdb 22064	3.96792	0.61128	0.56317	1.1314	86.05	-0.2339	-0.0331	0.2007	1964.3395	0.143619	-439.01846	-439.007546	-439.006602	-439.056488	37.669	
C	 0.0794121202	 1.5125057617	-0.0771219555	-0.384774
C	 0.0236613488	-0.0065586414	 0.1368643182	-0.02948
O	 0.7061553909	-0.3977835655	 1.326736869	-0.411771
C	-1.3570494023	-0.5015657906	 0.1208286824	 0.198866
C	-2.5059346476	-0.8720543256	 0.1553999796	-0.075829
C	-3.8299168223	-1.3948821709	 0.1708759217	 0.196971
C	-4.0520745521	-2.8653246717	-0.088865869	-0.476676
N	-4.778647154	-0.5561497797	 0.4128646315	-0.153601
O	-6.0189398646	-1.1931629909	 0.3986219584	-0.390932
H	 1.1209329342	 1.8432790104	-0.0530015137	 0.126244
H	-0.3630654131	 1.7870149775	-1.0389776888	 0.128337
H	-0.4754952241	 2.030321356	 0.7116965111	 0.121338
H	 0.5832160628	-0.4969761553	-0.6691066782	 0.120169
H	 0.1775119203	-0.0953246151	 2.0739644632	 0.284164
H	-4.569787244	-3.3226252035	 0.7600726852	 0.15029
H	-4.6986888947	-2.999369979	-0.9618145813	 0.150106
H	-3.1051807341	-3.3777161702	-0.2563059249	 0.134215
H	-6.6233783243	-0.4675335863	 0.5890710212	 0.312363
17.1884	69.2002	72.4663	88.2067	189.4514	207.793	252.9893	285.3199	298.5239	355.4602	392.2607	455.3134	480.4315	507.7658	562.2331	583.8202	613.0675	739.8887	858.8511	934.6742	1001.12	1044.0299	1045.5175	1046.9295	1090.1789	1127.1504	1279.5916	1292.1167	1337.6098	1397.2829	1399.7835	1403.3567	1417.4802	1476.668	1482.0791	1487.4781	1491.1989	1665.3736	2339.7214	3036.9671	3041.4338	3048.1799	3105.8903	3116.7127	3128.6139	3157.0342	3801.1342	3816.0434
CC(O)C#CC(C)=NO	C[C@@H](O)C#CC(=NO)C	
InChI=1S/C6H9NO2/c1-5(7-9)3-4-6(2)8/h6,8-9H,1-2H3	InChI=1S/C6H9NO2/c1-5(7-9)3-4-6(2)8/h6,8-9H,1-2H3/t6-/m1/s1
