23
gdb 103963	2.42932	1.38542	1.10398	1.4696	85.17	-0.2441	0.0732	0.3174	1231.0682	0.204869	-388.262878	-388.253293	-388.252349	-388.296575	37.551	
C	-0.0941507495	 1.6244789292	-0.0187177691	-0.388544
C	 0.152955999	 0.1126739564	-0.1029206521	-0.24207
C	 0.7343204242	-0.5114331725	 1.1749509084	 0.351782
C	 2.1149179365	 0.0644326986	 1.5120055543	-0.443547
C	-0.1733865778	-0.5411005747	 2.4578143317	-0.284927
C	 0.0297440511	-2.0579755971	 2.5667919003	-0.118642
C	-0.5060151045	-2.74676364	 1.350862854	 0.088848
O	-1.6420880953	-2.3127945058	 0.6517120678	-0.41719
C	 0.8099780293	-2.0549380568	 1.2254659838	-0.132212
H	 0.832832769	 2.1929303029	 0.1049338788	 0.111944
H	-0.5799186313	 1.9864838342	-0.9303742502	 0.109339
H	-0.7503675525	 1.8736700144	 0.8230865507	 0.11252
H	-0.7847151692	-0.3940359606	-0.3393392024	 0.125035
H	 0.8395018053	-0.0978313707	-0.9349794157	 0.082684
H	 2.0623442596	 1.1362550134	 1.7264705405	 0.113407
H	 2.5420224101	-0.4306955033	 2.3904918534	 0.109636
H	 2.811722003	-0.0780222871	 0.6772577193	 0.107765
H	 0.2505204277	 0.0215787252	 3.2921517997	 0.096209
H	-1.2117120568	-0.2284934752	 2.312468725	 0.089056
H	 0.2404458666	-2.5962575184	 3.4840411545	 0.080256
H	-0.405911322	-3.8333745053	 1.3845048745	 0.086374
H	-2.4104458451	-2.4770121479	 1.2089973836	 0.284827
H	 1.7004409026	-2.613269789	 0.952929689	 0.077449
92.2758	151.9459	166.5034	217.2167	246.6929	266.8948	286.5813	314.7871	364.9631	379.519	419.5075	507.8805	617.6779	647.3518	732.1646	780.1595	786.0551	843.4109	887.2887	925.1201	935.1748	979.3879	998.3346	999.2775	1015.0096	1025.964	1054.6977	1073.0318	1085.642	1146.1984	1185.49	1204.8206	1224.7934	1241.9338	1272.6928	1292.4361	1302.2362	1321.6807	1359.7802	1376.3367	1405.6384	1411.9794	1453.5724	1482.9335	1486.828	1494.4489	1501.3267	1507.8758	1511.4136	3013.0342	3024.4383	3031.8897	3052.355	3084.6277	3087.7809	3092.0578	3097.029	3104.2978	3108.5596	3120.6585	3152.4704	3171.9089	3801.2014
CCC1(C)CC2C(O)C12	CC[C@@]1(C)C[C@H]2[C@@H](O)[C@@H]12	
InChI=1S/C8H14O/c1-3-8(2)4-5-6(8)7(5)9/h5-7,9H,3-4H2,1-2H3	InChI=1S/C8H14O/c1-3-8(2)4-5-6(8)7(5)9/h5-7,9H,3-4H2,1-2H3/t5-,6+,7-,8+/m1/s1
