15
gdb 75053	3.22479	1.39851	0.98065	8.4459	79.98	-0.1742	-0.0304	0.1438	1126.3077	0.115171	-450.144451	-450.136465	-450.13552	-450.176945	30.381	
N	-0.1294120424	 1.4270268887	-0.1288165002	-0.59491
C	-0.0406641249	 0.038520382	 0.0351422186	 0.373331
N	-1.1153228879	-0.6996637631	-0.1552886622	-0.219807
H	-1.9451572892	-0.1841659167	-0.4133224088	 0.284829
C	-1.1773695105	-2.0769660242	-0.0297893775	-0.229828
H	-2.1364827866	-2.5320011197	-0.2206659553	 0.121796
C	-0.0358780402	-2.8166739772	 0.3283797233	 0.298246
O	 0.0426974673	-4.0413079826	 0.4729000474	-0.426489
C	 1.2227732693	-2.0012338086	 0.5564135438	 0.26001
N	 2.355120148	-2.4737655703	 0.8849714431	-0.541128
N	 1.0970316671	-0.6100438391	 0.3830288793	-0.357086
H	 0.4719357851	 1.7773539068	-0.8689902277	 0.262926
H	 0.0786455339	 1.9401836143	 0.7229954816	 0.262921
H	 2.2297525238	-3.4882903669	 0.9577442805	 0.241996
H	 1.9406712972	-0.0745371934	 0.5369146141	 0.263194
101.685	138.1019	165.5483	318.618	332.3702	352.7803	423.6981	463.1688	515.7377	551.318	603.6452	638.0136	692.2982	707.2464	759.4204	770.7496	787.2858	816.6639	925.4331	1003.8298	1097.4852	1175.0679	1205.9668	1244.4105	1288.012	1385.2883	1411.944	1438.2531	1549.7003	1633.7795	1693.9834	1699.9726	1721.2158	3253.4099	3437.0053	3486.0737	3548.9289	3597.8299	3618.4748
NC1=[NH+][CH-]C(=O)C(=N)N1	N[C]1N[CH]C(=O)[C]([NH])N1	
InChI=1S/C4H6N4O/c5-3-2(9)1-7-4(6)8-3/h1,7H,6H2,(H2,5,8)	InChI=1S/C4H6N4O/c5-3-2(9)1-7-4(6)8-3/h1H,(H5,5,6,7,8)
