22
gdb 60212	3.70969	0.95811	0.84562	2.0836	83.41	-0.2246	0.0776	0.3022	1454.8844	0.193013	-404.296951	-404.287505	-404.286561	-404.331858	35.605	
C	-0.0166517395	 1.5437758693	 0.0429387868	-0.38844
C	-0.0012790727	 0.0199795733	-0.010191989	 0.149847
C	 0.592551202	-0.5941417509	 1.2611750786	-0.387878
O	-1.3497916952	-0.3856233734	-0.2266111965	-0.263937
C	-1.5382151504	-1.6979943118	-0.6639949338	 0.176442
C	-1.7783016822	-2.8769425889	 0.3669218782	-0.261455
C	-3.0919440195	-3.1623924489	-0.3644262568	-0.054438
N	-3.9101113744	-1.9430968847	-0.1792450902	-0.320504
C	-2.905934333	-1.9922754308	-1.2714278795	-0.095924
H	 0.9972008017	 1.9375785568	 0.161870819	 0.108734
H	-0.4472288293	 1.9530022679	-0.8746065269	 0.119299
H	-0.6232029404	 1.8864614128	 0.8871592791	 0.125389
H	 0.6054966282	-0.302937516	-0.8744325608	 0.060412
H	 0.6306516501	-1.6853419747	 1.2024610189	 0.117661
H	 1.6138566657	-0.231734689	 1.4182225315	 0.109809
H	-0.0109546669	-0.317719402	 2.1316796696	 0.124103
H	-0.7453843091	-1.9878360812	-1.3703310491	 0.065517
H	-1.027550767	-3.6668152586	 0.2944147144	 0.095803
H	-1.90656861	-2.5657494476	 1.4051530386	 0.113242
H	-3.5480782154	-4.1220694373	-0.5705064734	 0.09253
H	-4.8143681229	-2.1155376329	-0.6190135766	 0.226334
H	-3.2072967599	-1.8425638114	-2.3013118221	 0.087456
40.8388	83.3763	115.1763	206.4515	237.4002	267.6096	303.5219	324.1126	417.9406	465.2547	478.2315	576.4328	690.3619	792.3839	829.7706	836.6522	854.286	897.6864	925.4175	940.991	953.8791	971.6044	994.4731	1011.1534	1047.8211	1095.1171	1129.0911	1138.3449	1154.5213	1166.8649	1174.1589	1197.0866	1216.5224	1254.7004	1298.7709	1332.9149	1354.811	1367.8736	1383.8355	1397.9897	1412.1036	1425.6139	1468.4069	1479.2688	1485.9724	1494.5896	1509.6768	2944.9923	2984.9331	3035.9287	3042.8182	3069.9487	3106.4743	3114.409	3117.2515	3122.4898	3133.6261	3181.5515	3200.6695	3466.5392
CC(C)OC1CC2NC12	CC(C)O[C@H]1C[C@H]2N[C@@H]12	
InChI=1S/C7H13NO/c1-4(2)9-6-3-5-7(6)8-5/h4-8H,3H2,1-2H3	InChI=1S/C7H13NO/c1-4(2)9-6-3-5-7(6)8-5/h4-8H,3H2,1-2H3/t5-,6+,7-/m1/s1
