21
gdb 111834	2.74755	1.33005	1.19397	1.1877	84.04	-0.2302	0.0135	0.2438	1173.9031	0.183611	-387.080019	-387.0715	-387.070556	-387.113299	32.873	
C	-0.3838852918	 1.4118108557	 0.2073388388	-0.373303
C	 0.2479813426	 0.0532343336	-0.118492346	-0.191716
C	 0.9019349204	-0.58064956	 1.0903823625	-0.040339
C	 0.083271828	-1.3013962287	 2.1348243016	 0.074007
O	-1.2885620734	-1.4325248817	 1.8822998341	-0.257925
C	-1.7260207522	-2.7504903108	 1.5707322746	-0.116386
C	-0.8806273851	-3.4189953494	 0.5161442602	-0.077355
C	 0.3982730264	-3.0806266236	 0.3588379242	-0.074434
C	 1.0286866251	-2.0951793877	 1.2722108677	-0.142468
H	 0.3566821047	 2.1111817664	 0.6116654003	 0.106299
H	-0.818574116	 1.8693034366	-0.6872681263	 0.105438
H	-1.1775403665	 1.2945705377	 0.9509032712	 0.132485
H	-0.5170341644	-0.6198992736	-0.5141180587	 0.106765
H	 0.999615995	 0.1711676999	-0.909621531	 0.089401
H	 1.743900981	-0.0177407284	 1.4886936354	 0.080732
H	 0.3162561763	-1.1533005487	 3.1882224092	 0.083099
H	-1.7587912113	-3.3725535353	 2.4823086211	 0.102639
H	-2.7588020622	-2.6391437471	 1.2245038595	 0.115295
H	-1.354111766	-4.1760466891	-0.1019712874	 0.093755
H	 1.0119134572	-3.5394131252	-0.4117147696	 0.091689
H	 1.9541036022	-2.4307783306	 1.7336242287	 0.092324
72.1377	125.1027	141.7498	218.1286	252.648	293.0128	369.1731	496.4004	532.4661	560.5472	581.0226	728.8072	757.6853	781.9814	811.1414	835.7436	890.0434	922.339	971.7422	986.85	995.2501	1001.5857	1046.6011	1070.0571	1077.7156	1109.0199	1127.9965	1139.2849	1184.4661	1199.1757	1245.9194	1268.4705	1295.5454	1335.2683	1344.4592	1380.761	1402.5704	1409.3826	1416.4727	1439.8309	1486.1813	1491.6658	1498.8945	1508.4069	1709.4897	2953.1708	3025.9908	3031.4552	3067.9111	3084.4671	3101.0334	3104.9971	3114.7616	3124.2821	3137.5578	3155.9884	3181.052
CCC1C2OCC=CC12	CC[C@H]1[C@H]2OCC=C[C@@H]12	
InChI=1S/C8H12O/c1-2-6-7-4-3-5-9-8(6)7/h3-4,6-8H,2,5H2,1H3	InChI=1S/C8H12O/c1-2-6-7-4-3-5-9-8(6)7/h3-4,6-8H,2,5H2,1H3/t6-,7+,8-/m1/s1
