15
gdb 27443	2.5785	1.74428	1.17606	5.8366	78.1	-0.2371	-0.0783	0.1587	1023.4169	0.115209	-413.010647	-413.003206	-413.002262	-413.042419	28.906	
N	 0.0702749008	 1.3401485114	-0.2216684807	-0.544622
C	-0.0758231404	-0.0172927074	-0.0397702161	 0.34864
N	-1.2031201905	-0.5624744356	-0.3376622118	-0.283557
C	-1.4528413009	-1.8958729622	-0.0179332264	 0.314511
N	-2.4137396659	-2.2210931043	 0.7446346998	-0.480667
N	-0.6683051093	-2.8624243756	-0.7031982999	-0.219778
C	 0.5899457764	-2.9133965511	-0.4760177842	-0.016822
C	 1.3908771218	-1.993251781	 0.3264709583	-0.087974
C	 1.0985181431	-0.694288548	 0.5294623264	-0.124291
H	 0.9905872334	 1.698987459	-0.4184398352	 0.257218
H	-0.6822996549	 1.7752489632	-0.735041989	 0.266091
H	-2.4867773003	-3.2398369781	 0.7775944864	 0.217633
H	 1.1425539126	-3.7297699324	-0.9484787011	 0.119154
H	 2.3387826728	-2.377285758	 0.6949064367	 0.117916
H	 1.8108132914	-0.06766903	 1.0603118668	 0.116549
110.7309	155.6007	254.2913	329.8687	377.9469	417.5714	453.3449	469.8182	525.8002	571.9251	644.781	699.1288	723.9946	812.7245	850.569	856.8625	884.8777	951.0894	961.4477	987.8872	1015.7849	1048.4082	1183.0398	1228.7097	1324.4535	1344.8036	1418.0171	1458.5184	1611.3071	1627.0333	1676.7732	1707.4539	1723.1395	3092.9328	3153.4371	3173.862	3465.5242	3578.2647	3699.0485
NC1=NC(=N)N=CC=C1	NC1=N[C]([NH])N=CC=C1	
InChI=1S/C5H6N4/c6-4-2-1-3-8-5(7)9-4/h1-3H,(H3,6,7,9)	InChI=1S/C5H6N4/c6-4-2-1-3-8-5(7)9-4/h1-3H,(H3,6,7,9)
