21
gdb 75161	3.54972	0.9982	0.86517	1.6195	84.87	-0.2299	0.0305	0.2604	1404.9966	0.182588	-387.088832	-387.079958	-387.079014	-387.122968	33.344	
C	-0.390549814	 1.29638234	 0.3606258202	-0.493845
C	-0.009617045	-0.1196569209	 0.0648717183	 0.343332
C	-0.2103508862	-0.7940318585	-1.0695245612	-0.161819
C	 0.3497115376	-2.1936358611	-1.026889916	-0.275319
C	 0.6801084753	-2.4032818919	 0.4805269996	-0.024603
C	 0.7310867782	-0.9690374237	 1.077393498	-0.315137
C	-0.40339571	-3.2209702455	 1.146167512	 0.104168
C	-0.265178434	-4.6592922737	 1.4005323299	-0.188782
O	-0.1285160977	-3.7096911764	 2.4613491295	-0.24547
H	 0.4934439204	 1.9018252991	 0.5998690421	 0.124668
H	-0.9025111571	 1.7640230051	-0.4848856259	 0.121518
H	-1.0503417205	 1.3556013701	 1.2356521909	 0.125592
H	-0.6904848316	-0.3850853315	-1.952801798	 0.081992
H	-0.3534693594	-2.9494171622	-1.4001526392	 0.099
H	 1.2490725353	-2.2824710177	-1.651647969	 0.103818
H	 1.6296145002	-2.9268245616	 0.622011434	 0.071265
H	 1.7653036811	-0.6152768157	 1.192691154	 0.101457
H	 0.2860642086	-0.9288342229	 2.0792123212	 0.113254
H	-1.4138593961	-2.8219782811	 1.0276212067	 0.092321
H	-1.1485650244	-5.2946602078	 1.4515370184	 0.111978
H	 0.6535582694	-5.1681816323	 1.1099543846	 0.110613
58.4015	77.5882	161.3237	202.3632	248.3482	303.5117	318.996	335.8381	441.6457	493.4937	614.4134	738.6418	786.1918	834.7477	861.4517	874.5107	909.5886	928.4469	953.3201	958.4347	989.8413	1034.9273	1040.8192	1061.9474	1105.5947	1118.5705	1156.0799	1168.7933	1175.4332	1186.0366	1237.8302	1257.6318	1288.3097	1293.2002	1311.3467	1325.986	1356.9061	1414.457	1451.0193	1479.3575	1486.2833	1490.2192	1496.0462	1530.4591	1724.7279	3007.001	3008.1489	3016.1769	3036.2828	3047.9387	3060.7946	3067.4463	3078.7307	3085.985	3108.9907	3163.9473	3182.2289
CC1=CCC(C1)C1CO1	CC1=CC[C@@H](C1)[C@H]1CO1	
InChI=1S/C8H12O/c1-6-2-3-7(4-6)8-5-9-8/h2,7-8H,3-5H2,1H3	InChI=1S/C8H12O/c1-6-2-3-7(4-6)8-5-9-8/h2,7-8H,3-5H2,1H3/t7-,8+/m0/s1
