19
gdb 114449	4.69253	1.14016	1.07	1.6042	74.36	-0.235	0.0693	0.3043	1178.5969	0.159508	-422.961166	-422.953611	-422.952666	-422.993357	29.804	
C	 0.0782043029	 1.5783275473	 0.02967598	-0.382471
C	-0.0840774034	 0.0578093267	-0.0456582208	-0.184766
C	 0.6313874185	-0.5528793866	-1.2459426363	 0.102955
O	 2.0626778644	-0.284133674	-1.1803085748	-0.28687
C	 2.6275658606	-1.565005945	-1.217020191	 0.095845
C	 1.8523157018	-2.5025566355	-2.1913622587	 0.016353
O	 2.1248848604	-3.6594275022	-1.3354968759	-0.317332
C	 1.7879076644	-2.5880219245	-0.3948771076	 0.024931
C	 0.6345725416	-2.0742059995	-1.31574945	-0.089738
H	 1.136262889	 1.8471331011	 0.0852055806	 0.137974
H	-0.3465524051	 2.0653055598	-0.8551997711	 0.11355
H	-0.4272154706	 1.9856814353	 0.9101342026	 0.112047
H	 0.3019865616	-0.4064981124	 0.8701869922	 0.099369
H	-1.1474410436	-0.2070954421	-0.1099601259	 0.097331
H	 0.2470859196	-0.1050408752	-2.1735283923	 0.081718
H	 3.7144633873	-1.550430197	-1.1760214769	 0.101827
H	 1.9249480932	-2.6275647427	-3.2714042187	 0.094817
H	 1.7852228177	-2.8191966995	 0.669672327	 0.095342
H	-0.3014611103	-2.6261870642	-1.3774024124	 0.087117
91.8549	129.2628	189.8101	256.8503	346.7558	448.1804	463.5795	513.0125	686.0099	720.6336	773.5857	784.9962	813.8821	870.1	885.3325	898.2901	904.0236	945.2176	978.2979	997.8981	1005.8209	1056.7479	1086.111	1108.5886	1136.5994	1145.5294	1148.221	1164.4677	1183.7494	1225.3579	1261.4526	1273.7274	1289.2254	1310.2299	1331.9489	1379.5262	1407.2905	1410.5145	1474.951	1497.9149	1509.9466	3003.3718	3022.6873	3037.8976	3061.1638	3104.0491	3122.3867	3124.179	3125.1246	3147.8673	3161.8018
CCC1OC2C3OC2C13	CC[C@H]1O[C@@H]2[C@H]3O[C@@H]2[C@@H]13	
InChI=1S/C7H10O2/c1-2-3-4-5-7(8-3)6(4)9-5/h3-7H,2H2,1H3	InChI=1S/C7H10O2/c1-2-3-4-5-7(8-3)6(4)9-5/h3-7H,2H2,1H3/t3-,4-,5-,6+,7+/m1/s1
