15
gdb 128256	6.65418	0.90458	0.80361	4.5151	78.44	-0.2162	-0.0041	0.212	1373.0182	0.113341	-412.977021	-412.968431	-412.967486	-413.010384	31.08	
C	 0.0042139224	 1.361783591	 0.2581253899	-0.347364
N	-0.0278631437	-0.0221291414	-0.1764948021	-0.399805
C	-1.1619925499	-0.7736929991	-0.0457281887	 0.451615
N	-1.2173954	-2.0928851563	-0.0704036665	-0.390322
C	-2.5630638801	-2.3410198599	 0.0433489557	 0.18339
N	-3.3330980338	-1.2649227508	 0.1421724119	-0.282785
N	-2.4104636678	-0.2601274142	 0.0871593025	-0.259353
C	-3.1026913198	-3.6542870369	 0.0585117393	 0.286363
C	-3.5501255148	-4.7699657335	 0.0713936949	-0.384994
H	 1.0098920308	 1.7556906284	 0.1030860363	 0.146198
H	-0.6763096455	 1.9685213117	-0.3507649082	 0.134761
H	-0.2636145737	 1.4949952696	 1.3169309023	 0.129134
H	 0.8087584285	-0.5650641941	-0.0278828273	 0.264373
H	-2.7161266416	 0.6965124072	 0.1282316062	 0.277667
H	-3.947037431	-5.7546371617	 0.0810465937	 0.191123
73.4081	129.2872	151.8715	174.7967	222.2058	314.2407	413.0869	430.3013	490.1913	500.3907	569.2457	601.8005	641.1734	665.6349	736.0307	746.181	775.2449	1014.3513	1037.455	1101.2989	1135.4556	1157.8644	1191.0555	1312.2569	1372.5353	1395.2636	1465.6742	1486.6415	1489.4414	1520.4255	1528.4482	1654.4488	2249.1034	2992.4096	3059.1124	3134.0989	3505.7269	3631.0259	3681.6607
CNC1=NC(=NN1)C#C	CNc1nc(n[nH]1)C#C	
InChI=1S/C5H6N4/c1-3-4-7-5(6-2)9-8-4/h1H,2H3,(H2,6,7,8,9)	InChI=1S/C5H6N4/c1-3-4-7-5(6-2)9-8-4/h1H,2H3,(H2,6,7,8,9)
