24
gdb 60004	3.69857	0.66391	0.6509	4.142	90.32	-0.3102	0.0353	0.3455	1848.2595	0.215473	-368.448932	-368.43774	-368.436796	-368.485752	40.524	
C	-0.0996767871	 1.5261254287	 0.1679397003	-0.384154
C	-0.082640002	-0.0006047328	 0.008747727	 0.021047
C	-1.5128564352	-0.5467219223	-0.1106792362	-0.387367
C	 0.7535748295	-0.4582779685	-1.2019989735	-0.172714
C	 2.2467656313	-0.0813109349	-1.1930439741	 0.011246
C	 3.0087752763	-0.6774863182	-0.0030857264	-0.401209
C	 2.877920635	-0.5332957837	-2.5348387181	-0.345471
C	 4.2637451168	-0.0987663973	-2.6965437266	 0.262552
N	 5.3575956527	 0.2577872066	-2.8082616985	-0.315155
H	 0.8987617846	 1.9364572452	 0.3458337439	 0.117185
H	-0.5041126138	 2.0085171779	-0.7303320675	 0.112423
H	-0.7300227241	 1.82092218	 1.0130602072	 0.114181
H	 0.359702969	-0.4323498751	 0.9161482332	 0.079017
H	-2.0131832854	-0.1446618431	-0.9999491418	 0.112683
H	-1.5196339593	-1.6389298363	-0.190873025	 0.110566
H	-2.1148562432	-0.2703222117	 0.7609353661	 0.112337
H	 0.6735653325	-1.55143225	-1.2890365411	 0.090619
H	 0.2915618224	-0.0476477746	-2.1116152272	 0.089675
H	 2.3373307983	 1.0104674085	-1.1526423045	 0.09788
H	 2.9079019615	-1.7694502679	 0.0175352475	 0.11457
H	 4.0748034574	-0.4386345409	-0.0583413801	 0.141303
H	 2.6322494074	-0.2904278085	 0.947216555	 0.124895
H	 2.8455248573	-1.6271999633	-2.6140197855	 0.146961
H	 2.2958294983	-0.1397173377	-3.3759152039	 0.14693
50.5004	59.2914	111.0163	117.2233	199.7525	230.3389	236.535	253.3573	278.1913	337.864	379.5947	398.4155	412.5552	431.2427	453.0066	586.5808	810.274	832.111	868.5529	898.2273	913.9978	932.3058	966.4132	969.049	983.8026	1041.0123	1079.6452	1131.9269	1152.5961	1186.226	1194.4319	1232.9345	1276.7366	1293.4781	1330.4123	1359.1699	1365.221	1384.3326	1393.1614	1403.6182	1417.6601	1425.3855	1462.3867	1480.217	1488.5738	1494.9225	1499.3459	1505.6738	1506.3888	1511.8737	2358.739	2994.6647	3014.8571	3023.6304	3028.7553	3029.1849	3031.6185	3035.3259	3048.441	3076.9208	3089.0039	3095.1726	3100.1708	3102.6997	3105.7394	3119.1946
CC(C)CC(C)CC#N	CC(C)C[C@@H](C)CC#N	
InChI=1S/C8H15N/c1-7(2)6-8(3)4-5-9/h7-8H,4,6H2,1-3H3	InChI=1S/C8H15N/c1-7(2)6-8(3)4-5-9/h7-8H,4,6H2,1-3H3/t8-/m0/s1
