17
gdb 85147	2.08249	1.75321	1.13153	4.0343	68.81	-0.2428	-0.0346	0.2082	1082.4078	0.134291	-458.935187	-458.926617	-458.925672	-458.969102	31.119	
O	 0.2712781866	 1.1257419858	-0.5326887875	-0.427467
C	 0.1317773291	-0.113118551	 0.1169612962	 0.03134
C	 0.0187428713	-0.1063485363	 1.6776451667	-0.394851
C	-1.2744210537	-0.9186152803	 1.5181267331	 0.346347
O	-1.9609293926	-1.5604465873	 2.2604558978	-0.297198
C	-1.3056029628	-0.6879695731	 0.0074786785	 0.149671
C	-2.4489483782	 0.1510630551	-0.6212993471	-0.117252
O	-2.8139856543	-0.9215281705	-1.5092349854	-0.270095
C	-1.7711414347	-1.7644261045	-0.9875466051	-0.135153
H	 1.1729111774	 1.4385465292	-0.4094784914	 0.292594
H	 0.8778568933	-0.8401235091	-0.2335290237	 0.081697
H	 0.8189197337	-0.5576231181	 2.2690660494	 0.128943
H	-0.1886325095	 0.90166322	 2.0540207137	 0.139363
H	-3.263279528	 0.4148875112	 0.0635830359	 0.114226
H	-2.1006838302	 1.039827308	-1.1560545529	 0.131565
H	-1.0323687634	-2.0372456503	-1.7524021927	 0.106116
H	-2.168818964	-2.6717312489	-0.5164257552	 0.120155
56.7541	80.7225	155.8326	219.301	250.9476	261.8603	312.4153	459.7288	478.5168	547.1125	586.3466	679.8128	772.4547	841.58	851.7831	910.4746	951.5569	984.7201	1040.824	1049.4705	1064.9373	1111.3513	1147.6463	1161.8091	1165.365	1184.3556	1217.8558	1230.5439	1234.3343	1306.4213	1322.9558	1366.3222	1413.3081	1434.12	1498.7502	1525.0293	1885.8924	3001.9613	3007.2634	3030.0784	3052.4186	3058.0209	3091.5022	3119.0102	3823.6167
OC1CC(=O)C11COC1	O[C@H]1CC(=O)C21COC2	
InChI=1S/C6H8O3/c7-4-1-5(8)6(4)2-9-3-6/h4,7H,1-3H2	InChI=1S/C6H8O3/c7-4-1-5(8)6(4)2-9-3-6/h4,7H,1-3H2/t4-/m0/s1
