17
gdb 85573	2.7994	1.39534	1.01899	0.6823	69.98	-0.251	0.0135	0.2645	1145.5598	0.137634	-455.222647	-455.21405	-455.213106	-455.257302	31.217	
C	-0.1178328596	 1.5670576564	 0.0061924934	-0.385962
C	 0.066422857	 0.0405548271	 0.009421297	-0.088193
N	 0.7218578049	-0.4418124786	-1.1994947629	-0.318706
C	 1.9981981836	-0.886120188	-1.3355556645	 0.404944
O	 2.5042923466	-1.1498900987	-2.4088480932	-0.37229
C	 2.7968795325	-1.0439129262	-0.0475953849	-0.276826
N	 2.0095154209	-0.9397125697	 1.1659133831	-0.329477
C	 0.7748040187	-0.3884329678	 1.2955244977	 0.416159
O	 0.2312873324	-0.2295214272	 2.3725093074	-0.380757
H	 0.8499954079	 2.0754747558	-0.0446423026	 0.125498
H	-0.7137060752	 1.8783216911	-0.8571757994	 0.117967
H	-0.6318464338	 1.872138576	 0.9199356688	 0.153955
H	-0.924076866	-0.4250384872	 0.0710566324	 0.127625
H	 0.2363973717	-0.3142608092	-2.0774401927	 0.252254
H	 3.279339282	-2.0244151624	-0.1003081308	 0.153286
H	 3.5997589725	-0.2938304174	-0.0751251503	 0.144631
H	 2.4485467237	-1.179069774	 2.0441611814	 0.255893
22.8248	85.5672	115.1337	238.9968	261.1974	386.9675	405.4535	447.053	458.9883	518.378	583.5494	605.3806	659.8224	710.5918	753.7841	787.5017	878.2151	967.2977	1012.432	1048.9665	1088.6758	1100.0922	1169.6563	1248.5807	1302.4731	1319.5775	1344.7119	1384.4473	1396.0232	1428.8094	1472.9161	1479.2688	1491.9963	1499.4048	1525.3758	1793.1684	1800.1355	3012.598	3040.4275	3043.4458	3082.5787	3112.8993	3141.7964	3589.1014	3597.8783
CC1NC(=O)CNC1=O	C[C@H]1NC(=O)CNC1=O	
InChI=1S/C5H8N2O2/c1-3-5(9)6-2-4(8)7-3/h3H,2H2,1H3,(H,6,9)(H,7,8)	InChI=1S/C5H8N2O2/c1-3-5(9)6-2-4(8)7-3/h3H,2H2,1H3,(H,6,9)(H,7,8)/t3-/m1/s1
