21
gdb 94236	2.86556	1.03216	0.96056	4.2651	79.73	-0.267	0.0105	0.2775	1348.4474	0.18028	-424.250771	-424.241033	-424.240089	-424.285192	36.115	
C	-0.7159304311	 1.1606055242	-0.0093608369	-0.427591
C	 0.1598419249	-0.0811985775	-0.0422854732	 0.012844
C	 1.549422255	-0.0419506155	-0.7392042666	-0.249065
C	 2.0844676406	-1.003621155	 0.3546734306	-0.274769
C	 0.8723055677	-0.5950011174	 1.2411864364	 0.380918
C	 1.1896048724	 0.4641079467	 2.2884520821	-0.433408
O	 0.1094058994	-1.6590610653	 1.8541052898	-0.235068
C	 0.7619182824	-2.5626039492	 2.6018449119	 0.153575
O	 0.2042425274	-3.4528783318	 3.1748017321	-0.282544
H	-0.1756833583	 2.0309190426	 0.3770734314	 0.114209
H	-1.0618883766	 1.4097739677	-1.018130567	 0.120875
H	-1.6021078309	 1.0070680559	 0.6154311119	 0.128846
H	-0.4108790666	-0.9275334638	-0.4383873368	 0.094114
H	 1.5990713035	-0.384774771	-1.7740726785	 0.107858
H	 2.0099235451	 0.9487331735	-0.6795752195	 0.105557
H	 2.0092059226	-2.0481948685	 0.0422342129	 0.117803
H	 3.0836367869	-0.8214488221	 0.7575346446	 0.103664
H	 1.7120748292	 1.3139189039	 1.8397316396	 0.125916
H	 0.2724712439	 0.8294389993	 2.7586346246	 0.13657
H	 1.8355259423	 0.0523398592	 3.0707738536	 0.121168
H	 1.8569920502	-2.4073097362	 2.623447417	 0.078528
87.0306	117.6113	153.0705	174.2804	212.6794	245.523	268.5012	278.9056	338.0522	393.9054	433.6034	488.5657	537.6838	670.7673	766.4823	801.7552	889.0437	896.7709	906.9065	948.0268	961.7048	988.3895	1050.2731	1062.9925	1108.1004	1150.3253	1168.5831	1184.8855	1197.8141	1213.207	1255.5158	1271.9441	1285.7691	1300.2105	1380.0971	1408.0826	1411.7588	1432.8547	1476.4574	1485.5657	1487.2174	1499.8092	1501.9317	1502.2154	1855.6356	2959.7526	3032.0654	3039.749	3054.0225	3062.4406	3064.1777	3098.6979	3102.86	3108.5006	3112.0868	3122.2529	3126.825
CC1CCC1(C)OC=O	C[C@H]1CC[C@]1(C)OC=O	
InChI=1S/C7H12O2/c1-6-3-4-7(6,2)9-5-8/h5-6H,3-4H2,1-2H3	InChI=1S/C7H12O2/c1-6-3-4-7(6,2)9-5-8/h5-6H,3-4H2,1-2H3/t6-,7-/m0/s1
