18
gdb 68264	2.43517	1.49789	1.44453	2.6439	78.46	-0.2435	0.0405	0.284	1035.4093	0.146091	-401.848049	-401.839593	-401.838648	-401.880514	33.584	
C	 0.0006953371	 1.4642703882	 0.0980020913	-0.518827
C	 0.0114570729	-0.0284961949	-0.0313375355	 0.269904
C	 0.7077918316	-0.9458096548	-1.072289422	-0.293488
C	 0.0548434591	-1.8795393532	-0.0292007276	-0.091504
N	 0.4993277185	-0.9513120023	 1.0928018435	-0.409854
C	-1.2434998192	-0.9965970059	-0.0788854789	 0.294494
O	-2.0652275959	-1.0061496032	 1.0472119227	-0.494383
C	-2.063212104	-1.0117965944	-1.276746446	 0.295662
C	-2.7489855785	-1.0147141198	-2.2633294982	-0.446115
H	 1.0125770576	 1.8622087993	 0.2293356164	 0.121588
H	-0.4308582177	 1.9170620399	-0.8001202366	 0.137433
H	-0.6045753647	 1.7638977711	 0.9590458154	 0.137666
H	 0.3251704521	-0.9548462339	-2.0950628742	 0.118114
H	 1.8005864416	-0.9224283944	-1.0456964096	 0.09305
H	 0.11736106	-2.9639411924	 0.0670651887	 0.090567
H	 1.5214475714	-0.9283105988	 1.132751508	 0.210705
H	-1.4377561893	-1.004206911	 1.7893091205	 0.291502
H	-3.3595464225	-1.0218883096	-3.132318408	 0.193487
116.9873	164.3418	186.5882	207.3508	300.7434	344.2593	384.4457	495.5027	505.9272	556.3303	589.9684	610.4834	624.3711	659.0201	669.6655	700.0213	785.8963	803.8563	880.0042	913.4823	953.5925	1019.1054	1033.3469	1071.5441	1101.8143	1113.6711	1132.16	1193.1504	1199.2448	1228.8258	1262.3923	1287.6516	1330.0489	1407.1971	1429.1527	1482.0919	1485.2892	1507.655	2242.6379	3034.9114	3058.1752	3104.2907	3114.5122	3115.8738	3127.4808	3413.3363	3501.5184	3676.6147
CC12CC(N1)C2(O)C#C	C[C@@]12C[C@@H](N1)[C@]2(O)C#C	
InChI=1S/C7H9NO/c1-3-7(9)5-4-6(7,2)8-5/h1,5,8-9H,4H2,2H3	InChI=1S/C7H9NO/c1-3-7(9)5-4-6(7,2)8-5/h1,5,8-9H,4H2,2H3/t5-,6+,7-/m1/s1
