21
gdb 86102	2.46648	1.22093	0.90535	3.2756	86.	-0.2306	-0.024	0.2067	1349.7098	0.181146	-387.124838	-387.115233	-387.114289	-387.159645	35.328	
C	-0.0770848151	 1.5656595378	-0.0379718582	-0.416937
C	 0.1085007454	 0.0477865947	-0.0031816265	 0.013207
C	 0.9294947099	-0.5477999053	-1.1745416654	-0.311628
C	 1.5597022131	-1.7892554229	-0.5772670408	 0.336126
C	 2.2150341639	-2.8285129442	-1.4296169722	-0.493064
C	 1.451396575	-1.786081071	 0.754855968	-0.200927
C	 0.7826302844	-0.5347373991	 1.2855965637	-0.129751
C	 1.8412236269	 0.3829473149	 1.8772645999	 0.163999
O	 1.8464732888	 0.7908416096	 3.0102933831	-0.255413
H	 0.8812996479	 2.0958849422	-0.0434168899	 0.119805
H	-0.6229380982	 1.8671886821	-0.9379340581	 0.11598
H	-0.645427688	 1.9164552665	 0.8294778965	 0.126615
H	-0.8834124811	-0.4176290967	-0.0389192069	 0.089649
H	 0.3052164674	-0.7682425083	-2.0492005428	 0.101673
H	 1.7056769165	 0.1491252489	-1.5248500797	 0.104814
H	 3.0309352176	-2.3945903428	-2.021867178	 0.129168
H	 2.6267303518	-3.6448764279	-0.8304230149	 0.126822
H	 1.5041959517	-3.2544043631	-2.1490589848	 0.127966
H	 1.8485829321	-2.5517911132	 1.4127813664	 0.097083
H	 0.0527336652	-0.7243968082	 2.0790369375	 0.085742
H	 2.6637613449	 0.642378446	 1.170051783	 0.069071
58.4514	83.6817	128.2596	185.4772	225.6943	245.4441	265.2753	358.0636	382.7159	431.3244	460.0847	479.1812	554.9082	684.2896	842.5905	848.1008	877.7562	922.2826	929.4472	959.734	987.8016	1020.0596	1036.0453	1066.0415	1088.0701	1129.1859	1147.3475	1179.2147	1212.0366	1267.3155	1275.8279	1286.4748	1333.8939	1353.6006	1367.0883	1411.5231	1415.2722	1422.5877	1477.618	1485.1419	1488.5032	1496.764	1502.0132	1710.3714	1825.496	2853.5649	2996.5719	3017.8965	3027.3339	3032.953	3047.5998	3062.5226	3063.8776	3099.2809	3103.1573	3112.8072	3188.3813
CC1CC(C)=CC1C=O	C[C@H]1CC(=C[C@H]1C=O)C	
InChI=1S/C8H12O/c1-6-3-7(2)8(4-6)5-9/h4-5,7-8H,3H2,1-2H3	InChI=1S/C8H12O/c1-6-3-7(2)8(4-6)5-9/h4-5,7-8H,3H2,1-2H3/t7-,8-/m0/s1
