17
gdb 35757	3.17055	1.50553	1.3538	1.4898	73.03	-0.2406	0.0364	0.277	993.3437	0.136508	-421.762741	-421.755335	-421.754391	-421.794536	29.281	
C	-0.0288391816	-1.2393813846	-0.2317115739	-0.452426
C	-0.0041771455	-0.0478450545	-0.0802571465	 0.347529
C	 0.0099257292	 1.4074504807	 0.0821968955	-0.079445
O	-0.6280663633	 1.8254627163	 1.2961323811	-0.274417
C	 0.2433041431	 1.9311544735	 2.4241481989	-0.079258
C	 1.6146311696	 2.424996828	 1.9815460119	 0.074637
C	 1.4819824234	 3.3392975524	 0.7444687659	-0.255932
C	 1.4425238393	 1.9708024236	 0.0347828125	 0.066609
O	 2.1823967877	 1.3798575395	 1.1344458664	-0.291933
H	-0.0468731459	-2.2935793981	-0.3591951266	 0.198657
H	-0.5847624705	 1.865557263	-0.7189997207	 0.114244
H	-0.2422696968	 2.6330858106	 3.11064147	 0.109871
H	 0.3587134175	 0.9604851979	 2.926384409	 0.114456
H	 2.2696271275	 2.6991591919	 2.8121963469	 0.084037
H	 0.6128898718	 3.9939527729	 0.6692255726	 0.116212
H	 2.4055614752	 3.8779964761	 0.532238161	 0.114365
H	 1.9220678594	 1.8205128508	-0.9348540138	 0.092793
99.3344	137.4811	262.716	303.2719	383.2725	414.0243	449.7654	552.6534	603.7755	623.6265	669.0396	701.5835	829.81	846.0196	863.0803	901.3983	910.7088	959.6023	967.4548	1003.6662	1026.452	1070.6042	1079.0907	1106.7608	1155.9219	1207.5703	1249.7382	1252.0853	1287.017	1320.9298	1339.5741	1343.8683	1357.8352	1396.3579	1481.9202	1487.1817	2236.5185	3011.5633	3025.9171	3075.221	3082.7095	3089.2251	3097.0271	3153.4659	3503.3234
C#CC1OCC2CC1O2	C#C[C@H]1OC[C@@H]2C[C@H]1O2	
InChI=1S/C7H8O2/c1-2-6-7-3-5(9-7)4-8-6/h1,5-7H,3-4H2	InChI=1S/C7H8O2/c1-2-6-7-3-5(9-7)4-8-6/h1,5-7H,3-4H2/t5-,6+,7+/m0/s1
