14
gdb 133613	2.93378	1.40176	1.26552	2.2702	49.89	-0.2785	0.0784	0.3569	983.1363	0.097881	-605.325892	-605.317931	-605.316987	-605.360269	27.556	
F	-0.358717256	 0.0520634157	 0.4505599246	-0.089417
C	-0.1324905581	 1.3492945251	 0.1799819325	 0.2673
F	 1.184911617	 1.5195453916	 0.0395703357	-0.066708
F	-0.7168881222	 1.6372708869	-0.9861248382	-0.066717
C	-0.6816475982	 2.2547097289	 1.3021266893	 0.03973
O	-2.059317438	 2.0777386017	 1.4484391488	-0.245465
C	-2.2622916892	 1.0954366109	 2.4679288902	-0.106447
C	-0.9027663565	 1.0120056058	 3.2018201716	-0.10636
O	-0.0697853503	 1.954605515	 2.5212706004	-0.24551
H	-0.4702459875	 3.2946674833	 1.0293633802	 0.125804
H	-3.0745400254	 1.4446707905	 3.1103252747	 0.123525
H	-2.5430683362	 0.1349287703	 2.0244645703	 0.123382
H	-0.9629903355	 1.3160743001	 4.2498308897	 0.123506
H	-0.471814324	 0.007524284	 3.1437639301	 0.123379
28.2285	65.5044	145.4446	197.8873	258.0359	357.8504	409.0659	528.382	574.3797	682.362	739.3677	800.6999	846.4185	871.6791	962.8124	977.4231	996.4417	1087.9248	1164.0015	1164.1775	1190.4002	1219.1704	1232.6838	1241.5282	1298.9156	1314.25	1376.637	1396.9377	1411.2386	1520.2419	1535.5094	3047.1659	3053.8615	3066.8917	3089.6818	3111.4942
FC(F)(F)C1OCCO1	FC(F)(F)C1OCCO1	
InChI=1S/C4H5F3O2/c5-4(6,7)3-8-1-2-9-3/h3H,1-2H2	InChI=1S/C4H5F3O2/c5-4(6,7)3-8-1-2-9-3/h3H,1-2H2
