21
gdb 74897	2.72258	1.48375	1.11773	0.3577	91.84	-0.2013	-0.0143	0.187	1172.4687	0.184536	-349.96138	-349.95314	-349.952196	-349.993902	32.868	
C	 0.0452218753	 1.4542807104	 0.0898384195	-0.477531
C	-0.0245468683	-0.0540568638	 0.0041952425	 0.25743
C	-1.1711975814	-0.6970649398	 0.2975584486	-0.142306
C	-1.5113575755	-2.1361292835	 0.210270982	-0.0498
C	-1.0926164102	-3.0175730762	-0.964167582	-0.296857
C	-0.5005605729	-3.253673854	 0.391663401	-0.019706
C	 0.9511603128	-2.9296928931	 0.7368788351	-0.278234
C	 1.6424170766	-1.9381235091	-0.1619822083	-0.091525
C	 1.213795819	-0.7016333751	-0.4456162341	-0.112503
H	 0.8204187584	 1.7798438905	 0.7947405235	 0.123293
H	 0.3059776273	 1.8913334073	-0.8829741078	 0.120901
H	-0.9068281882	 1.885674076	 0.409012942	 0.117414
H	-2.0041481401	-0.0746886573	 0.6193387493	 0.077375
H	-2.4996004676	-2.35447005	 0.6030321912	 0.078425
H	-1.8201490205	-3.7246507025	-1.3475063476	 0.107058
H	-0.4683535873	-2.5565340182	-1.7196594808	 0.125297
H	-0.8781365997	-4.1234171392	 0.9255412537	 0.081806
H	 0.9714723814	-2.555744858	 1.7716430546	 0.114149
H	 1.5249543535	-3.8631537534	 0.7408982254	 0.100313
H	 2.5860206119	-2.258823242	-0.5961185542	 0.087072
H	 1.8602309155	-0.0750552088	-1.0599019436	 0.077931
88.0481	158.3385	197.026	275.9029	279.6367	349.9187	374.6421	427.0639	471.3914	604.7877	655.2845	677.1109	735.3133	777.319	805.4244	847.5271	874.8588	880.5039	934.6886	959.0792	999.3435	1024.3066	1028.1362	1038.6676	1070.5396	1070.8017	1114.3527	1135.35	1156.9084	1184.2369	1239.3077	1258.8507	1270.8055	1351.1165	1368.5031	1398.7551	1410.9874	1420.9714	1451.4953	1478.3592	1483.3698	1490.7455	1497.4519	1677.9417	1714.4337	2993.0664	3014.7668	3054.0089	3061.0472	3112.5977	3119.9587	3120.9085	3132.3254	3139.9356	3153.7004	3159.1765	3231.0608
CC1=CC2CC2CC=C1	CC1=C[C@H]2C[C@H]2CC=C1	
InChI=1S/C9H12/c1-7-3-2-4-8-6-9(8)5-7/h2-3,5,8-9H,4,6H2,1H3	InChI=1S/C9H12/c1-7-3-2-4-8-6-9(8)5-7/h2-3,5,8-9H,4,6H2,1H3/t8-,9+/m1/s1
