18
gdb 66986	2.43372	2.05608	1.54775	2.2924	74.5	-0.2369	-0.0187	0.2182	929.7402	0.149795	-401.967408	-401.960148	-401.959204	-401.998901	28.844	
C	 0.020839023	 1.5030889761	 0.0644925596	-0.502812
C	-0.0338426908	 0.0080500302	-0.0234861929	 0.213906
C	 0.5726444386	-0.8557658787	-1.0951368801	-0.07306
C	-0.2616590271	-2.1301617467	-1.2391248555	-0.250541
C	-0.6700727901	-2.2327236846	 0.2503221508	-0.178694
C	 0.698479289	-2.0558957552	 0.9297190692	-0.168242
N	 1.1826805129	-0.8156332641	 0.2455424053	-0.15926
C	-1.2082795142	-0.8042937876	 0.4683476658	 0.401558
O	-2.2614711205	-0.4244129875	 0.9032729238	-0.334239
H	 0.9564512092	 1.8812103739	-0.3542895489	 0.129571
H	-0.8155064842	 1.9493112199	-0.482248788	 0.132571
H	-0.0476197478	 1.8335908334	 1.1054911127	 0.134498
H	 1.1444042861	-0.4299374406	-1.9115646322	 0.101345
H	-1.1171605424	-2.0043189577	-1.9089177846	 0.118538
H	 0.3304814798	-2.9853969746	-1.5797936749	 0.111101
H	-1.3190160697	-3.0462848124	 0.5606471688	 0.092148
H	 0.6367469094	-1.8834266759	 2.0080603696	 0.11939
H	 1.3974037387	-2.8750798479	 0.7376005017	 0.11222
122.1598	161.9601	235.8511	250.4114	390.9975	447.7218	477.7614	555.0682	651.8221	665.1819	774.4912	797.8306	811.1189	816.5397	897.8458	913.747	926.9965	946.6363	981.926	1013.6944	1043.3027	1079.0496	1094.2118	1105.568	1155.4982	1178.9844	1199.7448	1248.5064	1267.492	1279.0834	1299.6536	1328.9637	1405.5575	1430.8913	1482.1716	1491.2708	1492.9591	1513.3832	1867.9685	3044.1534	3051.6138	3056.3837	3100.9868	3106.6968	3109.1935	3126.6336	3170.1321	3182.6065
CC12C3CC(CN13)C2=O	C[C@@]12[C@@H]3C[C@@H](CN13)C2=O	
InChI=1S/C7H9NO/c1-7-5-2-4(6(7)9)3-8(5)7/h4-5H,2-3H2,1H3	InChI=1S/C7H9NO/c1-7-5-2-4(6(7)9)3-8(5)7/h4-5H,2-3H2,1H3/t4-,5-,7-,8?/m0/s1
