20
gdb 45595	2.73235	1.48646	1.15299	3.6876	78.26	-0.2423	0.0319	0.2741	1115.1556	0.174307	-403.193368	-403.185537	-403.184593	-403.226029	30.728	
O	-0.1628893177	 0.0223613356	 0.1144405514	-0.364972
C	-0.0848869612	 1.217673708	 0.0125385375	 0.410142
N	-1.0250479461	 2.2121705401	-0.1403801338	-0.329216
C	-0.0883534814	 3.3300166148	 0.0867699137	 0.018557
C	-0.2608141249	 4.0459466526	 1.4437983888	-0.210829
C	 1.0471940905	 4.161633384	 2.2410824634	-0.188224
C	 1.6922613537	 2.7825313187	 2.4254047768	-0.19707
C	 2.1450967859	 2.2090238462	 1.0754245933	-0.224394
C	 1.0603339364	 2.2608712746	 0.0010036089	-0.15223
H	-2.0285559503	 2.1730165623	-0.0250301857	 0.242862
H	-0.0854983591	 4.0494632684	-0.737868033	 0.082132
H	-0.7060538635	 5.0347013346	 1.2896538011	 0.096856
H	-0.9762230891	 3.4723888625	 2.0454526234	 0.101938
H	 1.7505818237	 4.828153558	 1.7228507303	 0.094719
H	 0.8382502326	 4.6240221172	 3.211764413	 0.096968
H	 2.5536015397	 2.8475192032	 3.0985741545	 0.096038
H	 0.9716045889	 2.1055769391	 2.9034762782	 0.105629
H	 3.0133578185	 2.7833797749	 0.7288950466	 0.097715
H	 2.4806883139	 1.1714442487	 1.1830308059	 0.120077
H	 1.5154234296	 2.2643300965	-0.9940791442	 0.1033
78.4028	90.4848	199.7525	320.0863	372.0676	410.7064	452.0285	457.411	505.5045	594.8244	679.4441	755.9451	770.2947	782.4719	852.2805	878.042	908.3139	950.1626	977.6656	1004.1911	1054.2735	1074.328	1097.6899	1134.9239	1155.503	1167.9771	1189.2755	1222.2912	1262.4817	1290.7652	1309.5743	1331.5483	1351.8678	1358.8003	1377.536	1382.8476	1390.1668	1395.2029	1480.4397	1487.9267	1491.3607	1501.4577	1888.329	3012.8478	3019.7422	3024.4342	3029.1817	3045.9115	3065.0164	3067.755	3069.3907	3073.236	3079.3906	3588.5954
O=C1NC2CCCCC12	O=C1N[C@H]2CCCC[C@@H]12	
InChI=1S/C7H11NO/c9-7-5-3-1-2-4-6(5)8-7/h5-6H,1-4H2,(H,8,9)	InChI=1S/C7H11NO/c9-7-5-3-1-2-4-6(5)8-7/h5-6H,1-4H2,(H,8,9)/t5-,6+/m1/s1
