16
gdb 7099	3.97327	1.19719	0.99938	1.5605	67.04	-0.2586	0.0097	0.2683	1178.7527	0.127544	-383.74314	-383.734023	-383.733079	-383.778535	31.392	
C	-0.1031223881	 1.0488824406	-0.4071544768	-0.387794
C	-0.4717091224	-0.4102970263	-0.1887111277	-0.053911
O	 0.1945014929	-1.2710668691	-1.1406000471	-0.226208
C	 1.4349701177	-1.6640670542	-0.8242825835	 0.451851
O	 2.0271223324	-1.3497583814	 0.1766270428	-0.362903
C	 2.0522612062	-2.5342579015	-1.9211204677	-0.468433
C	 1.1366714975	-3.4218480632	-2.6213874553	 0.324067
C	 0.4048374361	-4.1751218158	-3.2033783715	-0.451706
H	 0.9586478985	 1.2110251515	-0.2075110598	 0.144966
H	-0.3244914699	 1.3572530755	-1.4329306746	 0.127915
H	-0.6811073002	 1.6812174429	 0.2742342079	 0.123343
H	-0.2103722821	-0.7362952474	 0.8204858392	 0.134251
H	-1.5352097362	-0.586115999	-0.3643734899	 0.118594
H	 2.5237711166	-1.8444657086	-2.6349939954	 0.162033
H	 2.8662191028	-3.0933137333	-1.4508868067	 0.163738
H	-0.2524495117	-4.8348643508	-3.7133001041	 0.200197
19.6333	75.2422	98.6003	137.549	217.3448	299.9444	328.1359	349.0949	441.83	480.1677	587.3206	627.322	648.4072	717.678	785.486	858.1633	922.9702	955.067	996.2497	1053.0619	1117.4057	1196.8685	1209.5082	1275.0704	1317.0502	1332.2217	1399.4201	1420.9435	1447.7311	1485.0427	1488.0288	1507.4082	1818.5028	2248.1932	3024.2449	3046.2104	3073.6655	3092.6385	3114.513	3122.1975	3142.1839	3507.062
CCOC(=O)CC#C	CCOC(=O)CC#C	
InChI=1S/C6H8O2/c1-3-5-6(7)8-4-2/h1H,4-5H2,2H3	InChI=1S/C6H8O2/c1-3-5-6(7)8-4-2/h1H,4-5H2,2H3
