20
gdb 124605	2.5282	1.37907	1.11593	3.3283	80.59	-0.2473	0.0165	0.2638	1198.0206	0.171623	-399.376729	-399.367395	-399.366451	-399.411206	33.867	
C	-0.0679984654	 1.5567028934	 0.0063614278	-0.380561
C	-0.0196360384	 0.0257619975	 0.0409296468	 0.026913
C	 0.7330122761	-0.5065627107	 1.2646442064	-0.380571
N	-1.3752821146	-0.5268967321	-0.0023749322	 0.003448
N	-2.2535379622	-0.2567120748	 0.9990347908	-0.256235
C	-3.3331223473	-0.9122422488	 0.6114619642	 0.023568
N	-3.212825493	-1.58278489	-0.5637417984	-0.320732
C	-1.9648153492	-1.3206064189	-0.9288916774	 0.353764
C	-1.3068422358	-1.8224907924	-2.1710218199	-0.505884
H	 0.9469933923	 1.9645208921	 0.0045400712	 0.118095
H	-0.5859425162	 1.9132216376	-0.8885197335	 0.121887
H	-0.5981234016	 1.935846482	 0.8833281467	 0.149655
H	 0.4714499556	-0.3373549899	-0.8671628519	 0.09846
H	 0.2284844483	-0.1932313979	 2.1817754718	 0.149649
H	 0.7776554933	-1.5992978589	 1.2536062407	 0.121896
H	 1.7556148275	-0.1183440327	 1.2747278575	 0.118107
H	-4.2399280309	-0.9064024984	 1.1982447921	 0.120275
H	-0.9870610328	-1.0045159849	-2.8255574871	 0.139036
H	-0.4263399636	-2.4354780055	-1.9504292276	 0.138974
H	-2.0264711024	-2.4362741668	-2.713709068	 0.160257
47.2009	121.2026	130.607	193.5878	220.7065	254.4491	258.351	294.3707	382.428	428.4204	517.268	630.1622	698.2481	706.2689	723.1802	891.211	905.0823	934.4366	953.2841	981.4399	1008.2461	1066.8282	1073.7393	1136.1408	1147.0449	1206.5854	1215.8481	1289.467	1314.7568	1344.9903	1384.9251	1397.6857	1406.5739	1417.6093	1431.4801	1479.1791	1480.7313	1486.1414	1490.564	1495.2885	1506.3747	1516.1098	1563.929	3038.4183	3044.6279	3048.5052	3066.9901	3091.0498	3116.3203	3120.0404	3132.3326	3137.9556	3150.5783	3254.9013
CC(C)N1N=CN=C1C	CC(C)n1ncnc1C	
InChI=1S/C6H11N3/c1-5(2)9-6(3)7-4-8-9/h4-5H,1-3H3	InChI=1S/C6H11N3/c1-5(2)9-6(3)7-4-8-9/h4-5H,1-3H3
