22
gdb 60474	5.47323	0.50863	0.48118	4.728	85.06	-0.2808	0.0116	0.2924	2273.3938	0.191518	-404.357245	-404.34616	-404.345216	-404.395002	38.319	
C	-0.0949198167	 1.5341477695	-0.1355702852	-0.383446
C	 0.0344123011	 0.0096388994	 0.0041215787	 0.03561
C	 0.7870659902	-0.5788917359	-1.196920378	-0.389383
C	 0.7216102959	-0.4091359832	 1.3158890795	-0.186816
C	-0.0462687831	-0.0330277127	 2.5752627809	-0.063713
O	 0.6357665958	-0.5963260029	 3.688329846	-0.237687
C	 0.0128292342	-0.2931899271	 4.9078938544	-0.184012
C	 0.7651414219	-0.9118423371	 6.0042669259	 0.264146
N	 1.3352160469	-1.3864756919	 6.8887766651	-0.292874
H	 0.8910191561	 2.0133583877	-0.1021609339	 0.115802
H	-0.5585925047	 1.7988044472	-1.091372181	 0.114997
H	-0.7068609735	 1.9756839048	 0.6571155175	 0.111498
H	-0.9793781809	-0.4172324531	 0.0057965852	 0.073517
H	 1.8097376008	-0.1868013488	-1.2478963744	 0.115623
H	 0.8519813215	-1.6698827179	-1.1326727401	 0.113733
H	 0.2878173747	-0.3257803621	-2.1377803306	 0.111864
H	 0.8584086065	-1.4967032086	 1.3251745989	 0.109919
H	 1.725012687	 0.0321095896	 1.3686197349	 0.107338
H	-0.113723651	 1.0594143282	 2.6968854893	 0.095911
H	-1.0779738106	-0.422345723	 2.5314450029	 0.0924
H	-0.0325497447	 0.7945528527	 5.0851569586	 0.137885
H	-1.0241686673	-0.6676811347	 4.9415042454	 0.137689
31.8006	65.1908	82.1936	110.144	132.088	180.4529	226.8952	249.1632	290.7069	316.3884	386.5101	407.1474	426.5422	479.5789	580.3323	794.4962	832.6074	927.8158	940.4119	955.6788	967.9922	994.2737	1026.076	1036.8765	1069.4034	1150.7944	1158.5106	1189.8429	1195.6046	1246.1091	1257.0141	1303.8868	1314.5748	1363.448	1373.6654	1392.1597	1402.0786	1423.4179	1446.2669	1483.8841	1489.8413	1494.3184	1499.1315	1506.0882	1511.1809	1527.4517	2374.0059	2955.3792	2966.6928	2986.9605	2994.4699	2995.7215	3025.7344	3027.2885	3033.3231	3074.2847	3091.0054	3096.9233	3101.1417	3103.622
CC(C)CCOCC#N	CC(C)CCOCC#N	
InChI=1S/C7H13NO/c1-7(2)3-5-9-6-4-8/h7H,3,5-6H2,1-2H3	InChI=1S/C7H13NO/c1-7(2)3-5-9-6-4-8/h7H,3,5-6H2,1-2H3
