20
gdb 116479	3.24587	1.14066	0.8914	1.362	77.5	-0.2452	0.0122	0.2573	1329.4211	0.171905	-440.290127	-440.281336	-440.280392	-440.324085	32.541	
C	-0.2127577734	 1.4850656845	 0.1436622029	-0.381837
C	-0.1056751865	-0.0291895061	-0.0424386163	-0.17455
C	 0.8276946675	-0.435107464	-1.197465389	 0.039268
C	 1.0527084295	-1.949065904	-1.1859367413	-0.110837
O	 2.030417805	-2.3669243902	-2.1283205663	-0.218322
C	 1.561487307	-2.4260470763	-3.4261339643	 0.017536
O	 1.4620172149	-1.1731465371	-4.0992919216	-0.22646
C	 0.6487216107	-0.1942002704	-3.6096542326	 0.117486
N	 0.3186082774	 0.1303833773	-2.4388731666	-0.25448
H	 0.7581797139	 1.9189388523	 0.4085861807	 0.108649
H	-0.551728149	 1.9585476248	-0.7805786677	 0.138901
H	-0.918124722	 1.7335359417	 0.9424655231	 0.107016
H	 0.2566858591	-0.4931053089	 0.8835599151	 0.090026
H	-1.1002512018	-0.4498228537	-0.2382835569	 0.099255
H	 1.8121620146	 0.0281905822	-1.026132032	 0.099876
H	 1.4290545725	-2.2557962378	-0.2058966894	 0.113932
H	 0.1028765549	-2.4757061727	-1.3723099915	 0.09477
H	 2.2846791489	-2.9939785593	-4.0133196685	 0.1258
H	 0.5694570281	-2.9060612066	-3.4586627108	 0.093443
H	 0.2854479587	 0.4047761543	-4.4458491871	 0.120529
63.376	96.2613	159.8221	192.6575	224.3349	302.2586	341.4948	406.1648	446.9623	462.2114	557.3286	597.7238	761.0311	792.3971	839.9181	923.1592	935.6268	969.0533	973.8819	998.7764	1041.4723	1076.8175	1102.966	1142.2242	1153.155	1167.7597	1216.9569	1264.0834	1291.7613	1301.647	1342.0243	1377.714	1379.7596	1400.8871	1407.4589	1433.2505	1453.6226	1477.9874	1487.204	1494.5291	1506.5537	1510.8912	1757.9626	2967.8079	2979.1425	2991.1973	3021.5001	3035.1968	3057.8706	3090.1401	3099.3189	3123.7105	3128.4689	3129.9564
CCC1COCOC=N1	CC[C@H]1COCOC=N1	
InChI=1S/C6H11NO2/c1-2-6-3-8-5-9-4-7-6/h4,6H,2-3,5H2,1H3	InChI=1S/C6H11NO2/c1-2-6-3-8-5-9-4-7-6/h4,6H,2-3,5H2,1H3/t6-/m0/s1
