18
gdb 47793	2.48579	1.7629	1.21325	2.3966	74.12	-0.2404	0.0119	0.2522	1037.5686	0.149615	-439.066735	-439.059173	-439.058229	-439.098911	29.702	
N	-0.0387688415	 1.2636629504	 0.5612527686	-0.497209
C	-0.0084211432	 0.1031972788	 0.0536661436	 0.348994
O	 1.1804283292	-0.5778929929	-0.1153371247	-0.262626
C	 1.5388712303	-0.9792803431	-1.4404423697	-0.09997
C	 0.8259261809	-2.2294651988	-1.9375916326	-0.09138
O	-0.5136340844	-2.0035822939	-2.3214333179	-0.244583
C	-1.439731461	-1.6739073437	-1.3353702936	 0.112693
C	-1.3915241054	-2.0992985828	 0.0947581214	-0.349799
C	-1.2685175109	-0.6098579429	-0.2610913441	-0.09363
H	 0.9163278056	 1.5847365605	 0.7326800661	 0.219367
H	 1.371111221	-0.15339959	-2.1436034104	 0.11877
H	 2.6135380443	-1.1808669998	-1.3929494694	 0.119321
H	 1.329420806	-2.5769642288	-2.8460978188	 0.11756
H	 0.9029548201	-3.0274166412	-1.1854554395	 0.10905
H	-2.4200022482	-1.6667102011	-1.8002492489	 0.116455
H	-2.3027423103	-2.4433537089	 0.5705336124	 0.124416
H	-0.4860784305	-2.5537497667	 0.4768050204	 0.136462
H	-2.1318985319	 0.018312825	-0.0787976629	 0.11611
70.4365	184.8727	223.9894	292.1187	340.194	393.3899	450.152	496.545	568.8958	625.7323	699.5206	730.6232	781.4019	824.9189	874.0239	902.1695	940.0981	960.7641	993.5743	1038.5691	1057.4194	1083.2335	1109.8213	1119.466	1137.8226	1157.4654	1184.107	1271.4114	1280.0198	1319.0186	1338.4796	1373.9418	1400.515	1416.7581	1423.2936	1481.3215	1486.3583	1490.7126	1730.7074	3009.6328	3027.0969	3079.59	3092.6825	3147.96	3167.9735	3189.9813	3239.0671	3465.6886
N=C1OCCOC2CC12	[NH][C]1OCCO[C@H]2C[C@@H]12	
InChI=1S/C6H9NO2/c7-6-4-3-5(4)8-1-2-9-6/h4-5,7H,1-3H2	InChI=1S/C6H9NO2/c7-6-4-3-5(4)8-1-2-9-6/h4-5,7H,1-3H2/t4-,5+/m1/s1
