25
gdb 63179	2.70704	1.2647	1.16781	0.1422	92.33	-0.2471	0.0773	0.3243	1255.1957	0.230905	-352.37048	-352.361258	-352.360314	-352.403634	36.958	
C	-0.3473579072	 1.518766538	-0.08905895	-0.465017
C	-0.0801416214	 0.0276579593	-0.0185905543	 0.331501
C	-1.2804182318	-0.7965448745	-0.4563207745	-0.449065
C	 1.2848138418	-0.5527499584	-0.3563672815	-0.075408
C	 2.5017634963	 0.3053272833	-0.6984035178	-0.230072
C	 3.4123713269	 0.5399494333	 0.5180632406	-0.179088
C	 2.6256256934	 1.1429571369	 1.6861103207	-0.198468
C	 1.5003737118	 0.2025702142	 2.1696188333	-0.224233
C	 0.7730602847	-0.5759738343	 1.0771327632	-0.065166
H	 0.5107375097	 2.1294505844	 0.1932956342	 0.118255
H	-0.6381982445	 1.8108888488	-1.1057426483	 0.111162
H	-1.1757225483	 1.791629955	 0.575809613	 0.111854
H	-1.5662284693	-0.5614901384	-1.4890584864	 0.108792
H	-1.0699353638	-1.8694240125	-0.4058918853	 0.108898
H	-2.151453558	-0.5983378936	 0.1805800469	 0.108776
H	 1.2518454682	-1.5032794423	-0.8819772825	 0.07174
H	 3.0701969379	-0.1842263414	-1.4957383324	 0.092354
H	 2.1942530769	 1.277057175	-1.1050021702	 0.095908
H	 3.8551620503	-0.4153807175	 0.8312109415	 0.091053
H	 4.2442129929	 1.1979183031	 0.2418834971	 0.086521
H	 3.2942866738	 1.3542687459	 2.5280721539	 0.089363
H	 2.2178404591	 2.1132727965	 1.3783199601	 0.099004
H	 1.9558932257	-0.5406330102	 2.8362861146	 0.097072
H	 0.7867094133	 0.7600806925	 2.7894880626	 0.093207
H	 0.4154214813	-1.5416597629	 1.4268052818	 0.071057
118.4232	157.8653	196.9136	207.0036	237.889	272.1461	320.6671	342.3584	408.6572	440.4366	468.4162	511.0057	641.5787	697.8194	750.1616	781.1935	828.9877	857.0018	920.167	932.6424	965.5704	975.177	980.9398	990.7264	1019.8732	1071.822	1080.5422	1096.7815	1143.3768	1152.0502	1160.9201	1170.6565	1206.3301	1251.713	1282.2146	1294.185	1338.5655	1345.2162	1366.6094	1369.3123	1379.5355	1386.4563	1409.1993	1422.1718	1448.4987	1479.6736	1482.3004	1487.8419	1491.3649	1492.6533	1505.6483	1508.2263	1515.2727	3013.263	3013.7549	3014.7524	3022.9312	3025.8765	3028.6251	3043.308	3061.7651	3065.2333	3071.3452	3071.6865	3074.505	3094.2841	3118.4367	3133.161	3139.9309
CC1(C)C2CCCCC12	CC1(C)[C@H]2CCCC[C@@H]12	
InChI=1S/C9H16/c1-9(2)7-5-3-4-6-8(7)9/h7-8H,3-6H2,1-2H3	InChI=1S/C9H16/c1-9(2)7-5-3-4-6-8(7)9/h7-8H,3-6H2,1-2H3/t7-,8+
