19
gdb 120726	2.37762	1.39821	1.02218	5.6281	72.35	-0.2321	0.0211	0.2532	1194.6703	0.160277	-456.340429	-456.331626	-456.330682	-456.374214	32.878	
N	 0.5080682286	 1.508618545	 1.0286789319	-0.507992
H	 0.8346011497	 1.6033405749	 0.0728146373	 0.249675
H	 1.6355637683	 0.918541389	 2.2168460529	 0.32709
H	 0.2824511315	 2.4421593347	 1.359578312	 0.258253
C	-0.7107104436	 0.6738443876	 1.0860131832	-0.167219
C	-0.9453084471	 0.1705189968	 2.514092025	-0.141519
N	-0.8657635498	 1.2924149604	 3.4467749939	-0.112503
C	-0.8602378006	 0.9728100393	 4.8760464504	-0.238169
C	 0.3716788107	 1.4748808681	 4.2270906439	-0.141124
C	 1.5989090155	 0.5704950939	 4.1333772769	 0.3739
O	 2.1823635982	 0.4876174639	 2.9375885823	-0.388739
O	 2.0465093977	 0.0157236714	 5.1044043135	-0.330019
H	-1.5944001015	 1.2279674354	 0.7436363027	 0.110944
H	-0.5751823468	-0.1825915481	 0.4185902085	 0.117495
H	-1.9531200911	-0.2544028668	 2.5770273839	 0.111516
H	-0.2352090333	-0.6367421589	 2.7521425845	 0.115438
H	-1.4623779954	 1.6196261408	 5.5075247802	 0.118091
H	-0.8563490873	-0.0765880954	 5.1644228716	 0.128757
H	 0.6478635061	 2.5202331882	 4.3624503354	 0.116124
59.4842	124.0798	192.2326	199.7572	213.0857	284.7315	344.5882	377.8992	411.5708	530.15	543.4491	581.4701	729.8508	767.5897	829.4372	876.3858	901.7714	917.2935	943.7105	1008.5204	1043.9522	1058.6914	1091.4688	1112.5348	1119.401	1129.5592	1158.1581	1208.6796	1256.3	1277.2998	1310.8014	1349.7876	1394.0941	1396.5776	1419.7343	1482.226	1492.9092	1502.0854	1513.676	1638.5894	1842.5088	2985.261	3016.006	3065.9947	3068.4285	3089.5381	3103.2361	3108.9859	3190.8822	3505.236	3583.8044
[NH3+]CCN1CC1C([O-])=O	NCCN1C[C@H]1C(=O)O	
InChI=1S/C5H10N2O2/c6-1-2-7-3-4(7)5(8)9/h4H,1-3,6H2,(H,8,9)	InChI=1S/C5H10N2O2/c6-1-2-7-3-4(7)5(8)9/h4H,1-3,6H2,(H,8,9)/t4-,7?/m0/s1
