19
gdb 70098	2.45957	1.89171	1.34016	2.3018	80.71	-0.2274	0.0083	0.2357	1007.537	0.16061	-382.024866	-382.017082	-382.016138	-382.056615	31.494	
C	-0.0621169334	 1.5007124094	 0.0291180299	-0.512399
C	 0.0751290792	 0.0016608417	-0.0163536008	 0.214305
N	-0.5396560535	-0.8360859136	 1.0425182058	-0.366751
C	 0.9506704425	-0.7859995099	 0.8951337101	-0.146184
C	 1.4912663975	-1.9267029286	 0.0991345087	-0.072804
C	 0.9983910005	-1.9038387981	-1.142407064	-0.13127
C	 0.0995846628	-0.7328912565	-1.3525944486	 0.316122
C	-1.0804390971	-0.7396379619	-2.255968853	-0.274583
N	 0.14763579	-0.0394896225	-2.6592130636	-0.376338
H	 0.7248920652	 1.9967533358	-0.549261494	 0.133346
H	-1.0318807627	 1.8298275435	-0.3652998207	 0.125445
H	 0.0107108353	 1.86203375	 1.0597649606	 0.119055
H	-0.8051194279	-0.220728964	 1.8123100364	 0.219112
H	 1.530561878	-0.3236661842	 1.6876672563	 0.08712
H	 2.1567367259	-2.6775111893	 0.5065330839	 0.101587
H	 1.1822787158	-2.6302285036	-1.9245957261	 0.10452
H	-1.3155204185	-1.6277213273	-2.8362930343	 0.119078
H	-1.9474133065	-0.1588249996	-1.9488145201	 0.111537
H	 0.0356937468	 0.9629478589	-2.5276112565	 0.229098
128.4504	203.4058	234.5828	262.4695	287.7311	380.4489	414.7765	458.914	545.8655	593.2396	638.293	749.6324	765.5819	836.4727	844.117	874.0411	907.984	923.8014	938.3986	954.0345	971.8925	984.2707	1042.4659	1052.3241	1065.5223	1103.6003	1116.7152	1133.905	1168.1041	1243.8012	1259.2732	1289.3031	1323.3623	1375.1032	1408.1888	1409.6069	1431.6924	1487.0707	1499.3509	1512.3272	1656.9065	3019.406	3080.2596	3099.5159	3100.6064	3160.9432	3185.8817	3199.9667	3223.2097	3451.9533	3500.8557
CC12NC1C=CC21CN1	C[C@]12N[C@H]1C=C[C@]12CN1	
InChI=1S/C7H10N2/c1-6-5(9-6)2-3-7(6)4-8-7/h2-3,5,8-9H,4H2,1H3	InChI=1S/C7H10N2/c1-6-5(9-6)2-3-7(6)4-8-7/h2-3,5,8-9H,4H2,1H3/t5-,6-,7+/m0/s1
