23
gdb 111428	2.73736	1.41348	1.12782	0.3161	87.58	-0.2406	0.0775	0.318	1198.993	0.207844	-351.139969	-351.13167	-351.130726	-351.172646	33.775	
C	-0.0825921723	 1.5480128035	-0.0635293607	-0.383368
C	-0.0027943986	 0.0191117341	-0.0235415179	-0.168081
C	 0.7023852761	-0.5249084046	 1.2291809754	-0.003761
C	 0.0290118226	-0.1794123482	 2.5693171092	-0.036816
C	-1.353917939	-0.6943592616	 2.8926550301	-0.302431
C	-0.1396553504	-1.4520984283	 3.3733190174	-0.042627
C	 0.4054679145	-2.6069002939	 2.5508744793	-0.04018
C	-0.2702847828	-2.9903762669	 1.2561867479	-0.301023
C	 0.9102256308	-2.0485632196	 1.2364625338	-0.054851
H	 0.9164330108	 1.9982167586	-0.0312044476	 0.109143
H	-0.5735716444	 1.8969525007	-0.9774658479	 0.108209
H	-0.6490281883	 1.9369802533	 0.7888384435	 0.120109
H	-1.0136801438	-0.4019128039	-0.0834304528	 0.091314
H	 0.529246659	-0.3433956879	-0.9123298312	 0.090807
H	 1.7042991387	-0.0741205703	 1.2614426029	 0.069134
H	 0.3332884731	 0.7435215928	 3.0515413095	 0.07996
H	-1.9158932035	-0.1403935817	 3.6379237137	 0.104802
H	-1.9780623315	-1.1139013657	 2.1128102371	 0.110092
H	 0.0581917191	-1.4740898067	 4.4390365435	 0.07868
H	 0.9549969234	-3.3728037327	 3.0863468824	 0.078604
H	-0.0926703883	-3.9958754978	 0.8879975204	 0.104663
H	-1.2671707834	-2.6266358946	 1.0376264372	 0.109681
H	 1.8258430482	-2.4189576485	 0.786415865	 0.077936
88.2925	144.2765	170.8322	253.2795	272.0408	351.4283	398.8927	492.2978	512.8954	659.1254	668.3915	701.9263	774.6847	788.9165	825.5751	832.5309	834.7154	914.1134	949.769	958.1425	974.9219	990.9423	1031.6522	1041.6218	1053.6158	1057.7945	1076.0041	1086.2155	1097.9023	1107.1653	1116.5316	1139.8551	1161.0297	1201.8987	1219.2614	1279.2318	1294.4354	1316.3809	1343.6675	1358.6365	1378.0778	1385.4572	1391.5974	1409.1631	1479.7862	1484.3746	1500.1059	1505.8147	1509.1798	3000.9909	3023.6446	3028.8744	3057.1896	3095.295	3103.8277	3129.4433	3135.8857	3150.1026	3156.1134	3163.6224	3177.4032	3208.7529	3217.4494
CCC1C2CC2C2CC12	CC[C@H]1[C@H]2C[C@H]2[C@H]2C[C@@H]12	
InChI=1S/C9H14/c1-2-5-6-3-8(6)9-4-7(5)9/h5-9H,2-4H2,1H3	InChI=1S/C9H14/c1-2-5-6-3-8(6)9-4-7(5)9/h5-9H,2-4H2,1H3/t5-,6+,7-,8+,9-
