14
gdb 71535	2.64244	1.57998	1.42789	3.8698	67.07	-0.2717	-0.0215	0.2502	955.8149	0.098566	-436.581814	-436.574334	-436.57339	-436.613748	28.255	
C	 0.0555013091	 1.4765964217	-0.1014596642	-0.534952
C	 0.0451250765	-0.0098593095	-0.0338472047	 0.370789
O	 0.633694781	-0.8083178436	-1.1003121732	-0.334151
C	 0.1362991428	-1.8306573958	-0.208121536	 0.002314
C	 0.4478572621	-1.0297715755	 1.0906990026	-0.015302
O	-0.8982547418	-1.1461704797	 1.6364079402	-0.338256
C	-1.1481371998	-1.0298470857	 0.2133987379	 0.328906
C	-2.4865721622	-1.0474545688	-0.3035984701	 0.148002
N	-3.5488521172	-1.0436619552	-0.7599476867	-0.337217
H	 1.0838721933	 1.8479425881	-0.137180188	 0.149035
H	-0.4730979582	 1.8226528686	-0.9940844322	 0.156166
H	-0.4384784747	 1.8867439948	 0.7840882591	 0.153043
H	 0.257786467	-2.8805507665	-0.4670480271	 0.128899
H	 1.2985684822	-1.0573229329	 1.7678644423	 0.122725
117.9896	147.096	208.4249	241.6565	299.6248	420.3691	494.4073	537.2897	538.2487	641.2478	703.0709	760.1518	782.503	794.4238	821.5575	893.1959	932.0167	956.829	1016.7268	1071.4921	1109.1494	1134.0933	1155.2238	1216.6614	1264.4699	1297.067	1369.8798	1421.4338	1472.5188	1484.9938	2353.7854	3046.059	3122.5977	3127.498	3148.9637	3162.6593
CC12OC3C1OC23C#N	C[C@@]12O[C@H]3[C@@H]1O[C@@]23C#N	
InChI=1S/C6H5NO2/c1-5-3-4(8-5)6(5,2-7)9-3/h3-4H,1H3	InChI=1S/C6H5NO2/c1-5-3-4(8-5)6(5,2-7)9-3/h3-4H,1H3/t3-,4-,5+,6+/m0/s1
