12
gdb 131951	2.80757	1.66585	1.05227	2.5962	61.68	-0.3079	-0.1228	0.1851	1021.545	0.075468	-505.828453	-505.820734	-505.81979	-505.86206	26.31	
C	 0.0400283563	 1.5324568703	 0.1268938865	-0.496063
C	 0.1049384668	 0.0557837979	-0.02839038	 0.227114
C	-0.0181777047	-0.7655215488	-1.1097919387	 0.409326
O	 0.1160898656	-2.035674948	-0.7531443658	-0.176536
N	 0.338328548	-2.0068866539	 0.6467229596	 0.021065
N	 0.3262898554	-0.8042800943	 1.0282870087	-0.156481
N	-0.2586675539	-0.4606863611	-2.4971156946	 0.3769
O	-0.3732511032	 0.7326721343	-2.7593752193	-0.368393
O	-0.3274204675	-1.3911824967	-3.2808971928	-0.325875
H	 0.1929094106	 1.792401265	 1.1752597225	 0.158253
H	 0.8028875315	 2.0227457925	-0.483775081	 0.16535
H	-0.9278826149	 1.9173682328	-0.2051739351	 0.16534
42.5073	73.566	187.6442	198.5092	286.0576	328.0088	437.8555	536.4451	634.5744	667.4373	706.2553	722.1112	794.5934	845.6025	979.7479	1026.8816	1066.3817	1173.2488	1255.1381	1351.588	1403.2194	1413.1576	1435.8438	1473.9286	1482.483	1620.6249	1653.7075	3057.9324	3118.4913	3153.1354	42.5132	73.568	187.6443	198.509	286.0574	328.0088	437.8556	536.4451	634.5744	667.4364	706.2549	722.1103	794.5939	845.6026	979.7479	1026.8817	1066.3813	1173.2488	1255.138	1351.5879	1403.2196	1413.157	1435.8432	1473.9278	1482.4823	1620.6248	1653.7075	3057.9325	3118.4913	3153.1354
CC1=C(ON=N1)N(=O)=O	Cc1c(onn1)N(=O)=O	
InChI=1S/C3H3N3O3/c1-2-3(6(7)8)9-5-4-2/h1H3	InChI=1S/C3H3N3O3/c1-2-3(6(7)8)9-5-4-2/h1H3
