21
gdb 100113	3.86738	0.84674	0.8255	3.1574	75.03	-0.2557	0.0593	0.315	1473.4952	0.179612	-461.33604	-461.325689	-461.324744	-461.3714	38.075	
C	 0.0120539385	 1.5470344268	-0.086307673	-0.417947
C	-0.0001718642	 0.0110165853	-0.036889008	 0.3572
O	 0.6467454316	-0.4518863599	 1.1495814955	-0.480995
C	-1.4435049904	-0.5154407521	-0.0236357077	-0.113767
O	-2.036780077	-0.0626917484	 1.191164593	-0.435038
C	 0.7659072224	-0.61785961	-1.211790222	-0.24131
C	 2.2255838115	-0.2335625785	-1.2510322639	 0.090555
C	 2.992805695	-0.2394543222	-2.5016523093	-0.184501
O	 2.5606154503	 0.9905310478	-1.9192782647	-0.237533
H	 1.0341818288	 1.9212134647	-0.0103588178	 0.139361
H	-0.4166661147	 1.9162070808	-1.0237603454	 0.108745
H	-0.5773428772	 1.950078226	 0.7414439769	 0.12058
H	 0.0287110182	-0.2708650559	 1.8689420059	 0.284345
H	-1.9982462903	-0.1454439669	-0.8987410138	 0.090613
H	-1.4234928239	-1.6136660125	-0.0608413744	 0.090763
H	-2.8465151987	-0.5569644528	 1.3424474968	 0.294908
H	 0.6985526932	-1.7091098988	-1.1166191209	 0.102965
H	 0.2962634576	-0.3320926704	-2.159519738	 0.099163
H	 2.7645579833	-0.3875341445	-0.3175826926	 0.112957
H	 4.0671644239	-0.4176986732	-2.4806875129	 0.111816
H	 2.4980296419	-0.5143024551	-3.4331531237	 0.107119
62.2409	87.4776	141.594	142.3489	225.9276	235.6957	253.3422	312.5047	336.2825	351.1354	400.4165	441.2962	448.5138	463.276	634.2619	774.0269	793.2251	855.9821	907.9007	920.6933	951.8318	966.0109	986.392	1063.5586	1089.0911	1099.3372	1143.3746	1155.92	1160.2915	1182.8806	1198.6213	1243.2734	1247.9011	1294.0842	1312.4907	1342.8431	1397.5518	1409.8936	1444.4612	1448.5479	1457.2342	1489.4679	1499.7484	1510.1342	1531.61	2985.153	3025.4762	3030.3686	3046.3182	3077.5897	3079.5188	3115.1373	3133.0572	3144.4933	3163.6111	3777.8902	3847.1623
CC(O)(CO)CC1CO1	C[C@@](O)(CO)C[C@H]1CO1	
InChI=1S/C6H12O3/c1-6(8,4-7)2-5-3-9-5/h5,7-8H,2-4H2,1H3	InChI=1S/C6H12O3/c1-6(8,4-7)2-5-3-9-5/h5,7-8H,2-4H2,1H3/t5-,6-/m0/s1
