16
gdb 45268	3.11274	1.73403	1.39113	5.4114	67.08	-0.2533	0.0195	0.2727	926.9217	0.12706	-437.894352	-437.887777	-437.886833	-437.925391	26.21	
O	-0.1650008495	 0.1296656738	 0.3625772545	-0.327057
C	-0.0387905596	 1.2683862129	 0.0541782827	 0.478601
O	-0.9920975163	 2.1134968152	-0.4588946368	-0.254304
C	-0.0194003235	 3.1973400727	-0.6467957529	 0.112941
C	-0.2527306355	 4.4383163772	 0.2261040301	-0.24285
C	 0.5888682445	 4.2281831282	 1.4776356521	-0.033906
N	 0.2195133347	 3.0243904436	 2.2377838078	-0.320165
C	 1.3951969789	 2.9785934981	 1.3442851511	-0.047135
C	 1.0806811007	 2.3230892092	 0.0096737298	-0.246433
H	 0.0683545746	 3.4143274762	-1.7126757421	 0.100794
H	 0.0893156412	 5.3314086898	-0.3076970839	 0.108506
H	-1.3160440708	 4.5629527285	 0.4502910686	 0.135712
H	 0.9669121498	 5.0918819464	 2.0162252668	 0.094003
H	 0.5224870617	 3.1096740847	 3.2043921599	 0.238522
H	 2.385252744	 2.8777697048	 1.7737906317	 0.097307
H	 1.9610147253	 2.0564626087	-0.5747078793	 0.105465
125.6781	160.6807	300.6731	371.905	427.3277	496.0476	647.5691	681.718	718.3296	764.2401	808.3484	833.907	858.3844	888.7962	906.0549	938.4227	967.6239	994.3576	1018.2094	1052.4018	1076.0317	1122.7132	1128.9897	1161.5435	1190.9663	1199.4134	1235.1047	1274.9661	1296.4335	1337.8975	1347.9555	1382.0554	1423.177	1464.6282	1945.0324	3052.2743	3097.1251	3105.4199	3124.6455	3156.2357	3180.1913	3509.373
O=C1OC2CC3NC3C12	O=C1O[C@H]2C[C@H]3N[C@H]3[C@@H]12	
InChI=1S/C6H7NO2/c8-6-4-3(9-6)1-2-5(4)7-2/h2-5,7H,1H2	InChI=1S/C6H7NO2/c8-6-4-3(9-6)1-2-5(4)7-2/h2-5,7H,1H2/t2-,3+,4+,5-/m1/s1
