14
gdb 21099	6.88664	1.29602	1.12739	3.3939	59.96	-0.2737	-0.0285	0.2452	1016.9545	0.108107	-412.022211	-412.014533	-412.013589	-412.055257	26.003	
C	-0.1843188966	 1.4136634376	-0.1039968322	-0.318869
N	-0.0060825924	-0.0172641778	 0.0449303601	 0.153033
N	 0.2941629407	-0.8103651622	-0.9729149214	-0.121616
N	 0.3869969358	-2.0174853366	-0.473316454	-0.27527
C	 0.1402457843	-1.9040962192	 0.8534731127	 0.377324
C	 0.1412411797	-3.0969022726	 1.7620858892	-0.149354
O	 1.106129641	-4.0491478761	 1.371658921	-0.412032
N	-0.1097601969	-0.6495577047	 1.210132998	-0.307482
H	 0.5505694556	 1.9424255601	 0.5063702234	 0.165023
H	-0.0407953817	 1.650318924	-1.1573110259	 0.174727
H	-1.1902655839	 1.6948108687	 0.2139786551	 0.163891
H	 0.3750762169	-2.7790572205	 2.7819179315	 0.135508
H	-0.8721385756	-3.5318770016	 1.7811784294	 0.112888
H	 1.0702607032	-4.112130039	 0.4096451532	 0.302228
40.3989	95.6976	152.029	207.5242	293.8957	330.4269	379.98	476.7374	673.7523	698.889	753.0156	781.8252	1014.354	1044.0781	1050.6322	1075.2262	1111.814	1152.325	1211.6924	1255.0513	1307.9268	1356.9045	1411.3506	1419.4964	1435.0919	1450.6491	1476.5205	1504.6253	1506.5736	1545.6823	2965.5261	3067.6044	3092.277	3141.4997	3179.6484	3792.8561
CN1N=NC(CO)=N1	Cn1nnc(CO)n1	
InChI=1S/C3H6N4O/c1-7-5-3(2-8)4-6-7/h8H,2H2,1H3	InChI=1S/C3H6N4O/c1-7-5-3(2-8)4-6-7/h8H,2H2,1H3
