20
gdb 37011	3.31497	1.13517	1.11882	2.1227	79.47	-0.2394	0.0628	0.3023	1205.3204	0.171295	-403.084843	-403.076584	-403.075639	-403.118095	31.526	
C	 0.2125010545	 1.2889389287	 0.515235362	-0.203269
C	 1.4856847241	 1.5646902904	-0.3402674414	-0.291297
C	 1.3717324088	 0.1311884358	-0.8684347742	 0.304401
C	-0.0534339836	-0.0023544644	-0.3167986576	-0.311067
N	 1.9138457262	-0.3478183288	-2.1420203439	-0.43313
C	 2.4005783557	-0.9243800297	-0.8944342185	 0.202639
C	 3.8548055956	-0.942155844	-0.438450093	-0.131388
O	 3.6850968494	-2.2821393258	 0.0831186932	-0.275819
C	 2.3287710802	-2.367118732	-0.4013297065	-0.146453
H	 0.45126576	 1.0660317349	 1.5575562786	 0.109278
H	-0.5675478988	 2.0516457347	 0.4914864047	 0.104062
H	 1.3162397143	 2.3018216151	-1.1303606956	 0.112234
H	 2.4015709969	 1.8286307574	 0.1949205947	 0.103536
H	-0.2976457548	-0.9158423181	 0.2334525829	 0.102965
H	-0.8116308501	 0.1507827121	-1.0920455	 0.106931
H	 1.2595631004	-0.9775294542	-2.6044382901	 0.227469
H	 4.5895032715	-0.9010678946	-1.2522254754	 0.110474
H	 4.1367876632	-0.228259574	 0.3458738829	 0.103617
H	 1.6120344977	-2.5788727402	 0.403421659	 0.104205
H	 2.2174147188	-3.1263573834	-1.1888000919	 0.100614
73.2625	113.0758	154.0858	172.5171	246.4734	413.894	428.7377	437.503	514.8831	577.9751	712.8915	784.127	809.3981	864.9195	887.1522	928.3347	935.4246	944.6804	979.0869	995.3767	1008.6018	1023.8782	1055.2871	1115.3708	1122.0037	1137.7739	1145.8718	1150.2416	1192.0326	1218.1918	1248.7879	1249.4563	1255.3576	1278.2719	1292.2117	1305.0514	1355.9544	1470.8077	1480.2889	1494.127	1501.7112	1518.865	1529.0602	2991.2762	3013.655	3034.7643	3042.1498	3056.9559	3057.9995	3072.8183	3090.1435	3104.7066	3129.6621	3472.8107
C1CC2(C1)NC21COC1	C1CC2(C1)NC12COC1	
InChI=1S/C7H11NO/c1-2-6(3-1)7(8-6)4-9-5-7/h8H,1-5H2	InChI=1S/C7H11NO/c1-2-6(3-1)7(8-6)4-9-5-7/h8H,1-5H2
