17
gdb 49650	4.42869	1.24237	1.19398	3.3861	72.42	-0.2368	-0.0256	0.2112	1054.8713	0.137123	-421.786183	-421.779367	-421.778423	-421.817848	26.928	
O	 0.061273579	-0.1315630205	-0.2956587895	-0.258053
C	 0.01438784	 1.0688189579	-0.172555919	 0.13243
C	 1.2304954256	 1.9440011868	-0.0552269763	-0.081714
C	 1.2487887452	 3.3389518005	-0.749958728	 0.041707
O	 0.0496261378	 3.9528194464	-0.2590845728	-0.266088
C	 0.439614237	 4.0325765791	 1.123593087	 0.073485
C	 1.6328188947	 5.0112561699	 1.0665627903	-0.244662
C	 2.2957319362	 3.8372112549	 0.3311829452	-0.061436
C	 1.4649473549	 2.822864013	 1.1985145903	-0.092789
H	-0.9551438875	 1.6076018665	-0.133732455	 0.090777
H	 2.1306744489	 1.36284319	-0.2723522716	 0.095493
H	 1.3511182946	 3.4722181372	-1.8251146502	 0.091618
H	-0.4275097848	 4.1526817601	 1.7696914903	 0.089135
H	 1.466778247	 5.9611885789	 0.5534574392	 0.108972
H	 2.0984154881	 5.1688608692	 2.0430802195	 0.107879
H	 3.3587970804	 3.7361783245	 0.1242843915	 0.084653
H	 1.7739177929	 2.4367766356	 2.167313329	 0.088593
68.3632	160.7832	227.5278	407.7838	440.6177	483.6492	564.092	679.4506	753.9119	786.3664	826.0857	840.0531	874.9262	905.7329	923.4621	927.8711	982.0155	990.4939	1018.3998	1044.5429	1055.6833	1075.7907	1102.5074	1122.5534	1153.5772	1176.196	1193.5218	1210.7208	1237.6782	1252.1168	1266.9669	1277.1719	1318.4596	1339.9768	1426.0671	1480.2708	1815.2054	2919.8119	3063.0325	3089.2721	3126.0657	3139.4526	3142.6648	3146.0509	3153.2524
O=CC1C2OC3CC2C13	O=C[C@H]1[C@H]2O[C@@H]3C[C@H]2[C@H]13	
InChI=1S/C7H8O2/c8-2-4-6-3-1-5(6)9-7(3)4/h2-7H,1H2	InChI=1S/C7H8O2/c8-2-4-6-3-1-5(6)9-7(3)4/h2-7H,1H2/t3-,4+,5+,6+,7-/m0/s1
