19
gdb 57068	2.49706	1.25086	0.96278	5.377	75.79	-0.2534	0.0293	0.2827	1255.6752	0.159299	-419.194536	-419.184991	-419.184047	-419.2292	34.895	
N	 0.0353071043	 1.4404157849	 0.1503582428	-0.510369
C	-0.0974838171	-0.0115886638	-0.0186438564	-0.148811
C	-1.5260778069	-0.3673953009	-0.0263579956	 0.30401
N	-2.6431399544	-0.6570246746	-0.0826324413	-0.330694
C	 0.5847022323	-0.5908683613	-1.2695544689	 0.020936
C	 2.1233194776	-0.4159466101	-1.4159011318	-0.257665
C	 2.1852033408	-1.8616011592	-1.9827389977	-0.247648
C	 0.7828652353	-2.1298076014	-1.3676866066	 0.105814
O	 0.8442248059	-2.6583188269	-0.0543842656	-0.433747
H	 1.0210242411	 1.6714175887	 0.2330852607	 0.238744
H	-0.309674312	 1.9188912338	-0.6776684152	 0.235831
H	 0.345646355	-0.4912768624	 0.8600152237	 0.147001
H	 0.0699582605	-0.2273546425	-2.1648954269	 0.085851
H	 2.4797818988	 0.3941421698	-2.0548623645	 0.103031
H	 2.6172066213	-0.3435271082	-0.4425243519	 0.110721
H	 2.1621226157	-1.8798924757	-3.0758542649	 0.107267
H	 2.9936179266	-2.5073460842	-1.6315044585	 0.100506
H	 0.0607912463	-2.6814066919	-1.9811902838	 0.078466
H	 1.0722067589	-3.5911013843	-0.1129901476	 0.290755
58.1037	100.1822	126.9446	198.63	214.3409	248.8803	264.7231	307.8676	388.1528	405.8543	467.8473	552.2821	609.2025	706.3932	771.5491	853.1987	860.4736	895.8909	910.6512	945.1276	963.4048	1027.0504	1083.5852	1102.5623	1119.5736	1139.6341	1187.7239	1199.1737	1226.556	1255.4182	1261.1277	1283.7828	1296.7199	1322.5123	1372.2645	1403.6331	1417.5095	1468.9891	1491.2848	1655.1797	2360.9594	3027.8622	3054.139	3060.4329	3063.0364	3075.7767	3109.9709	3124.6368	3486.1558	3572.1607	3824.9274
NC(C#N)C1CCC1O	N[C@@H](C#N)[C@H]1CC[C@H]1O	
InChI=1S/C6H10N2O/c7-3-5(8)4-1-2-6(4)9/h4-6,9H,1-2,8H2	InChI=1S/C6H10N2O/c7-3-5(8)4-1-2-6(4)9/h4-6,9H,1-2,8H2/t4-,5+,6-/m1/s1
