21
gdb 63080	2.31021	1.67041	1.31881	1.3683	83.87	-0.223	0.0209	0.2439	1085.3819	0.181331	-387.093183	-387.084075	-387.083131	-387.125973	35.972	
C	-0.1395154115	 1.5709352278	 0.0527650941	-0.461049
C	 0.0240414559	 0.0685006897	 0.0582402174	 0.359631
O	-1.109557384	-0.5966968997	-0.4554388769	-0.466436
C	 1.3335109304	-0.6430954296	-0.2192032808	-0.170842
C	 2.6644299914	 0.0987399115	-0.0901158247	-0.291858
C	 2.70672719	 0.4938995534	 1.3712449682	-0.073829
C	 1.6392893198	 0.0518319331	 2.0394851122	-0.143738
C	 0.6936051232	-0.7217593349	 1.1759683874	 0.266954
C	 0.0388960968	-1.9579925879	 1.7507478028	-0.484208
H	 0.6875240576	 2.0813441171	 0.54758876	 0.128003
H	-0.1996594348	 1.9446665594	-0.9777266637	 0.101368
H	-1.0705865319	 1.8425906113	 0.5602883742	 0.123398
H	-1.1546093608	-0.406868339	-1.3991874199	 0.278417
H	 1.265423831	-1.495463527	-0.8869460559	 0.07996
H	 3.5125759354	-0.5446753542	-0.3606731169	 0.106575
H	 2.7261567953	 0.9744532345	-0.7513143705	 0.10522
H	 3.5080103061	 1.091297206	 1.7921770977	 0.092356
H	 1.449669686	 0.2122427698	 3.0958262028	 0.089551
H	-0.5623795245	-1.7071845751	 2.6329203777	 0.112156
H	-0.6223980922	-2.4242237821	 1.0196147353	 0.137225
H	 0.7938023607	-2.6886708242	 2.0617559697	 0.111145
177.1132	178.4959	195.5557	219.3852	230.43	251.7155	286.1191	355.7969	374.4428	413.6773	486.3709	527.6361	627.0882	669.5255	720.1493	764.6631	814.6392	865.7642	927.9423	944.1672	945.1926	965.4575	977.9082	1007.0738	1041.7696	1080.1874	1104.1785	1123.8482	1161.4516	1177.701	1201.5822	1257.1815	1276.4385	1291.191	1326.7034	1367.305	1403.1268	1411.1099	1436.3752	1478.3611	1492.1011	1494.6448	1495.8132	1501.9052	1670.9152	3007.8874	3022.8948	3027.3961	3030.2434	3080.5195	3086.7194	3140.8105	3141.8289	3165.6245	3176.6766	3203.1015	3791.0287
CC1(O)C2CC=CC12C	C[C@@]1(O)[C@H]2CC=C[C@@]12C	
InChI=1S/C8H12O/c1-7-5-3-4-6(7)8(7,2)9/h3,5-6,9H,4H2,1-2H3	InChI=1S/C8H12O/c1-7-5-3-4-6(7)8(7,2)9/h3,5-6,9H,4H2,1-2H3/t6-,7+,8+/m0/s1
