17
gdb 104568	2.73262	1.22412	1.01042	2.1607	69.35	-0.2733	-0.0521	0.2212	1201.607	0.133292	-459.004692	-458.995668	-458.994723	-459.038901	32.343	
C	 0.0200697636	 1.5855134113	 0.1085300823	-0.398126
C	 0.3015488554	 0.0815540895	 0.193778339	-0.242009
C	 0.6857727121	-0.5369245786	-1.1392482216	 0.317707
C	 0.5198271901	-2.074997831	-1.2847287038	-0.479496
C	-0.5573144249	-1.7026636352	-2.3007779574	 0.446346
O	-1.331640143	-2.2563688559	-3.0080416687	-0.303641
O	-0.3569260953	-0.348641435	-2.1703396636	-0.273643
C	 2.0170532141	-0.0547439327	-1.694826368	 0.125789
O	 2.907563631	 0.3881905371	-1.0198203286	-0.24101
H	 0.9146329481	 2.1386449296	-0.1890244353	 0.138769
H	-0.7722364975	 1.7911806357	-0.6165136068	 0.1386
H	-0.301611348	 1.9665625404	 1.08139461	 0.122256
H	 1.1250861289	-0.1119990535	 0.8895919126	 0.129553
H	-0.5804799474	-0.4446243311	 0.5757637926	 0.1066
H	 1.3613640647	-2.6218561566	-1.7162906553	 0.153536
H	 0.1654504891	-2.5928530133	-0.3925445142	 0.156889
H	 2.108792269	-0.1757727206	-2.7971590032	 0.101878
84.3233	89.3248	109.4665	196.5616	208.3208	280.9698	290.8935	388.1785	420.1611	458.9879	522.2276	552.3899	709.3947	783.8758	813.8441	877.8496	893.226	952.167	981.1531	1021.5384	1043.0174	1086.1771	1098.5613	1165.558	1184.1464	1226.7991	1271.9464	1331.2488	1368.2322	1411.6737	1415.7193	1450.819	1468.6765	1501.9012	1510.3916	1834.6967	1948.9592	2893.9445	3041.403	3051.5432	3084.0772	3085.5928	3122.6573	3130.5881	3145.0615
CCC1(CC(=O)O1)C=O	CC[C@]1(CC(=O)O1)C=O	
InChI=1S/C6H8O3/c1-2-6(4-7)3-5(8)9-6/h4H,2-3H2,1H3	InChI=1S/C6H8O3/c1-2-6(4-7)3-5(8)9-6/h4H,2-3H2,1H3/t6-/m0/s1
