16
gdb 24229	4.07295	1.58536	1.24625	3.7114	74.21	-0.2055	0.025	0.2305	967.0974	0.12887	-396.930396	-396.924062	-396.923118	-396.960939	25.795	
C	 0.0828885776	 1.4851075735	-0.0441634516	-0.233368
C	 1.3395671905	 0.6836256721	-0.0020262695	-0.164216
N	-0.005382693	 0.0205915764	-0.0302830935	-0.10334
C	-0.207030202	-0.6224297235	-1.3658457632	-0.289576
C	 1.0628698754	-0.3011014711	-2.0925894332	 0.269884
C	 1.9422121619	 0.4038342275	-1.3266473892	 0.300707
N	 3.1009557217	 0.68283954	-2.0023836912	-0.349566
C	 2.9112198269	 0.1460063335	-3.1909182711	-0.015196
N	 1.679394066	-0.4588706308	-3.308089326	-0.37697
H	-0.2996046648	 1.9626779344	 0.8547065043	 0.115692
H	-0.1285131554	 2.0143486387	-0.971663044	 0.109838
H	 1.9132210501	 0.5893931677	 0.9148211252	 0.103007
H	-0.3630534625	-1.6984643655	-1.2154446593	 0.119171
H	-1.1143403344	-0.2239996468	-1.8359960216	 0.117904
H	 3.6182054721	 0.1535560661	-4.0072993042	 0.129071
H	 1.3363858998	-0.9485562724	-4.1172290918	 0.266958
154.241	224.3866	347.9486	424.4133	449.9043	506.7427	596.8177	659.6542	698.1322	728.3829	745.0272	786.4996	800.1518	836.1308	955.4133	969.6507	1018.2696	1029.8883	1069.1824	1087.7431	1114.6125	1142.3886	1151.9867	1200.8037	1246.7165	1251.6698	1288.8433	1310.3957	1374.5378	1419.9354	1453.5187	1489.3592	1502.6478	1518.3433	1607.2529	3013.2735	3047.1824	3091.3205	3156.8915	3180.2481	3249.9312	3666.8604
C1C2N1CC1=C2N=CN1	C1[C@H]2N1Cc1c2nc[nH]1	
InChI=1S/C6H7N3/c1-4-6(8-3-7-4)5-2-9(1)5/h3,5H,1-2H2,(H,7,8)	InChI=1S/C6H7N3/c1-4-6(8-3-7-4)5-2-9(1)5/h3,5H,1-2H2,(H,7,8)/t5-,9?/m1/s1
