24
gdb 104029	2.67222	1.27047	1.14027	1.5971	87.62	-0.2218	0.0799	0.3017	1244.5616	0.218489	-368.400626	-368.391454	-368.39051	-368.434116	36.384	
C	 0.1791560599	 1.3570045994	-0.2891936299	-0.398603
C	 0.3218098554	-0.1362925979	 0.0290226227	-0.221058
C	 0.7475654052	-0.4950901471	 1.4765869688	 0.323933
C	-0.2808709279	 0.0630099209	 2.476395792	-0.443979
C	 0.865026304	-2.0466976617	 1.63746618	-0.284639
C	 2.344844646	-2.3549371285	 1.7832778848	-0.007088
C	 3.2740448814	-1.8964796288	 0.720062356	-0.252424
N	 3.1243863311	-1.115199618	 1.9559577587	-0.091686
C	 2.186020895	 0.0144996668	 1.8413611458	-0.21388
H	 1.1079509462	 1.9074485151	-0.1069109527	 0.119442
H	-0.0806154917	 1.4968517427	-1.3432508626	 0.113885
H	-0.6081172499	 1.8289096575	 0.3058221584	 0.119927
H	-0.638341317	-0.6303822506	-0.1718566766	 0.094638
H	 1.0333831753	-0.5791789829	-0.6774206727	 0.096496
H	-1.2903547241	-0.2992603314	 2.250193069	 0.109696
H	-0.0341593835	-0.2462751977	 3.4973575966	 0.113762
H	-0.308999745	 1.1569329814	 2.4639954834	 0.116578
H	 0.3347562403	-2.379396404	 2.5358596038	 0.097611
H	 0.4135506325	-2.5755795822	 0.7913223025	 0.100357
H	 2.6306684305	-3.1936837589	 2.4129033441	 0.085469
H	 4.2437365778	-2.3731580964	 0.6030570841	 0.111584
H	 2.8552041254	-1.5056650606	-0.2035663932	 0.109148
H	 2.5702399922	 0.7380118653	 1.1149532423	 0.100923
H	 2.1680375109	 0.5180674475	 2.8139895849	 0.099909
76.0242	120.8885	201.5032	234.0973	266.059	289.4645	346.3281	354.8039	374.1015	412.4099	457.2915	600.8044	665.2307	753.8116	774.9801	785.0467	838.3956	864.0878	894.8798	920.9342	946.2624	980.6753	1017.7162	1020.2212	1033.2406	1045.7102	1080.1732	1104.5391	1106.9402	1154.6452	1180.1736	1184.0795	1204.8507	1232.958	1275.3339	1304.2844	1308.5727	1329.9627	1357.9539	1366.1039	1395.7007	1410.9723	1419.1266	1479.4757	1492.4104	1495.4973	1498.8781	1499.9187	1507.7216	1512.7992	1516.0807	3015.8035	3025.9599	3035.8218	3040.0748	3042.5087	3057.4965	3075.2259	3076.2922	3094.1118	3099.539	3103.2853	3106.4922	3113.5082	3136.7486	3188.4537
CCC1(C)CC2CN2C1	CC[C@@]1(C)C[C@H]2CN2C1	
InChI=1S/C8H15N/c1-3-8(2)4-7-5-9(7)6-8/h7H,3-6H2,1-2H3	InChI=1S/C8H15N/c1-3-8(2)4-7-5-9(7)6-8/h7H,3-6H2,1-2H3/t7-,8-,9?/m0/s1
