17
gdb 37661	3.75452	2.1374	2.11799	1.0639	71.67	-0.2166	0.0782	0.2948	750.5435	0.141381	-380.798731	-380.793741	-380.792797	-380.82773	22.888	
C	-0.0352878729	 1.4945093891	 0.0767190007	-0.18871
C	 1.5037771675	 1.3954242805	-0.0270086205	-0.061466
C	 1.8742023536	 0.6062984052	 1.2329670201	-0.005153
C	 0.6551483338	-0.3920400001	 1.233524195	-0.053022
C	 1.6725878937	-1.4819015909	 0.890956051	-0.039068
C	 2.1839610324	-0.9683687496	-0.401140238	-0.063285
C	 1.2248319158	 0.1099474036	-0.8619453373	-0.014784
N	-0.0559934646	-0.0175606675	-0.0212348265	-0.13248
N	 2.8300376026	-0.5241733973	 0.8729333101	-0.164384
H	-0.4847879576	 1.9073397247	 0.9848860257	 0.102889
H	-0.5088599778	 1.9345405119	-0.8038295586	 0.110807
H	 2.1557214477	 2.205205368	-0.3555648873	 0.074307
H	 2.1683070448	 1.1449530863	 2.1309376158	 0.079257
H	 0.0017636638	-0.4878963236	 2.0977163302	 0.077474
H	 1.7505901188	-2.4966865812	 1.2619419178	 0.097668
H	 2.7964598305	-1.5579758771	-1.0708888018	 0.099598
H	 1.0232106777	 0.2105140682	-1.9264960864	 0.080351
413.5416	455.8811	530.3224	658.177	694.9318	754.8629	792.8682	801.363	826.0101	844.2967	858.7747	874.5538	877.1996	902.0563	935.901	949.6402	954.9943	989.2202	994.5792	1019.7997	1031.7089	1053.4173	1076.4166	1145.5944	1164.5614	1168.3079	1190.8212	1204.7904	1226.2425	1244.4461	1250.777	1268.8037	1299.5909	1308.7099	1315.6424	1362.1265	1517.5633	3054.9578	3111.8841	3116.7036	3139.7102	3140.3713	3148.8268	3184.5999	3203.4706
C1C2C3C4C5C(C2N14)N35	C1[C@H]2[C@H]3[C@@H]4[C@H]5[C@@H]([C@H]2N14)N35	
InChI=1S/C7H8N2/c1-2-3-6-7-5(8(1)3)4(2)9(6)7/h2-7H,1H2	InChI=1S/C7H8N2/c1-2-3-6-7-5(8(1)3)4(2)9(6)7/h2-7H,1H2/t2-,3+,4+,5-,6-,7+,9?/m1/s1
