20
gdb 110641	2.40513	1.51307	1.14172	1.6336	79.66	-0.2142	0.0519	0.2662	1169.016	0.168358	-403.049564	-403.040668	-403.039724	-403.083106	34.101	
C	-0.4710412503	 1.5001101358	-0.3766892605	-0.373175
C	 0.0176925903	 0.1557848433	 0.1647977887	-0.101106
N	 0.7449326367	-0.5680937838	-0.8885893333	-0.108881
C	 1.9663314792	-1.3157648613	-0.8030724371	-0.159996
C	 2.0082189643	-2.3489198913	 0.3895914073	-0.002113
O	 0.8185432589	-2.2089578074	 1.1735823652	-0.230226
C	 0.7558436528	-2.9488701654	-0.0500424362	-0.048258
C	 0.6766435428	-1.9433250982	-1.2789948586	 0.287349
C	 0.2017818685	-2.3694085242	-2.6357984238	-0.492258
H	 0.3703559088	 2.1146836728	-0.7115128164	 0.114162
H	-1.1403288853	 1.3570642067	-1.2308538423	 0.112489
H	-1.0148747185	 2.0525746229	 0.3974684306	 0.103406
H	 0.6710067693	 0.3090736049	 1.0281780881	 0.108165
H	-0.8283388402	-0.4426148257	 0.5151960934	 0.106475
H	 2.8448983565	-1.0051706024	-1.3602433378	 0.092705
H	 2.8828610993	-2.7826152917	 0.8587696983	 0.109422
H	 0.3983289585	-3.9713580371	-0.0122661085	 0.106636
H	-0.8884455257	-2.4906472223	-2.6507096449	 0.122683
H	 0.4701653148	-1.617949038	-3.3825148856	 0.134062
H	 0.6450788993	-3.3281780679	-2.9276894663	 0.118456
57.3655	168.7239	184.4568	205.8051	229.8059	267.5822	295.6115	350.8609	424.8251	531.7244	586.9181	685.5792	733.797	749.0236	786.288	824.6654	847.3954	867.0628	884.9883	931.6799	961.1482	971.9763	1007.2593	1033.9885	1094.9338	1105.7906	1130.8493	1173.8759	1178.7517	1216.0481	1244.1707	1256.2221	1313.1153	1360.6286	1375.4371	1403.5791	1406.4604	1458.0767	1473.6763	1484.1625	1488.4845	1494.1198	1502.7714	3023.5266	3032.242	3049.9551	3080.8551	3088.9793	3103.5956	3116.4512	3120.8328	3154.8857	3180.7106	3198.713
CCN1C2C3OC3C12C	CCN1[C@H]2[C@H]3O[C@H]3[C@@]12C	
InChI=1S/C7H11NO/c1-3-8-5-4-6(9-4)7(5,8)2/h4-6H,3H2,1-2H3	InChI=1S/C7H11NO/c1-3-8-5-4-6(9-4)7(5,8)2/h4-6H,3H2,1-2H3/t4-,5+,6-,7+,8?/m1/s1
