19
gdb 70000	2.93204	1.71733	1.5949	1.5113	73.16	-0.2444	0.0791	0.3235	927.1701	0.161779	-423.005164	-422.998295	-422.997351	-423.03585	29.449	
O	-0.1718364481	 1.3662163599	 0.0931378926	-0.47769
C	-0.0681119959	-0.0212577303	-0.0208889758	 0.400072
C	-0.5186478473	-0.7056587229	-1.2907027486	-0.369672
C	-1.3159029898	-0.8681140651	-0.0132974742	-0.076766
C	-0.9318282806	-2.0167198288	 0.9432997743	 0.085865
C	-0.1505732236	-1.248836294	 2.0257618566	-0.227901
C	 0.8786404999	-0.7457556631	 0.9775842669	-0.114194
C	 1.31280303	-2.1031998135	 0.4143373284	-0.094284
O	 0.0808692223	-2.8508753328	 0.347962679	-0.279333
H	 0.5347923709	 1.762921709	-0.4278523328	 0.281378
H	-0.9590055216	-0.0421186674	-2.0283146892	 0.108903
H	 0.0007734109	-1.5633387717	-1.6990761766	 0.129805
H	-2.3028990508	-0.424987005	 0.0594009786	 0.092454
H	-1.7552990893	-2.6579013105	 1.2571296593	 0.075791
H	-0.724693056	-0.4367681239	 2.4765220702	 0.110409
H	 0.2720528117	-1.8930455938	 2.802761686	 0.095036
H	 1.6943161155	-0.1165436182	 1.3339149437	 0.06592
H	 1.762844074	-2.0440231829	-0.582569554	 0.097994
H	 2.0186529478	-2.6118671549	 1.0840849153	 0.096214
193.0185	299.0166	316.3425	328.4272	393.0821	432.4037	495.4676	517.4293	600.4135	678.1916	760.4926	777.401	846.5365	880.878	890.6057	918.2897	930.4855	946.0606	958.7053	971.0197	996.1846	1017.8924	1042.5837	1059.1027	1077.5729	1097.5677	1135.4065	1168.1265	1209.1204	1225.7912	1232.2112	1273.0297	1279.6623	1295.0983	1323.3948	1327.3342	1380.2651	1397.0089	1482.189	1490.7963	1532.0003	3012.7692	3059.1374	3061.468	3118.6411	3123.3407	3125.259	3137.5491	3175.3403	3229.7164	3792.8132
OC12CC1C1CC2CO1	O[C@]12C[C@H]1[C@@H]1C[C@H]2CO1	
InChI=1S/C7H10O2/c8-7-2-5(7)6-1-4(7)3-9-6/h4-6,8H,1-3H2	InChI=1S/C7H10O2/c8-7-2-5(7)6-1-4(7)3-9-6/h4-6,8H,1-3H2/t4-,5-,6-,7-/m0/s1
