18
gdb 65386	3.49616	0.93247	0.89579	2.3097	76.37	-0.2381	-0.0362	0.2019	1352.3248	0.146274	-439.048585	-439.03971	-439.038766	-439.082762	32.882	
O	-0.0470781388	 1.4035322043	-0.2230212243	-0.467017
C	-0.0025057149	 0.045266031	 0.0418307638	 0.350116
C	-0.1907079042	-0.4107019195	 1.4716591561	-0.35887
C	-1.2936629147	-0.6697061191	 0.4825396826	-0.115653
C	-2.5607983153	 0.1184498856	 0.5187146744	 0.030627
C	-3.7118288415	-0.2852464091	-0.3258245975	-0.247397
N	-3.7686648004	-0.4599435671	 1.1373301849	-0.325133
C	 0.8959019107	-0.7080280504	-0.8528865146	 0.100218
O	 1.4775827792	-0.1698624694	-1.7692732369	-0.291284
H	 0.4628193488	 1.513055851	-1.0418463646	 0.298768
H	 0.3993061171	-1.2438068523	 1.8392548723	 0.124325
H	-0.33565198	 0.3988608151	 2.1787520928	 0.146398
H	-1.4075765167	-1.6975862282	 0.1424633541	 0.089697
H	-2.4251720171	 1.1743979904	 0.7313453576	 0.113683
H	-4.3858410678	 0.4671640666	-0.724793098	 0.12482
H	-3.5972985362	-1.1657776972	-0.9537839945	 0.109373
H	-3.6015468613	-1.4359723485	 1.3729172413	 0.227941
H	 0.9915587231	-1.7943935333	-0.6496431194	 0.089388
55.2823	88.3313	141.3775	201.1298	276.8679	309.2164	351.0935	361.3419	412.2145	461.2818	534.1452	636.0579	767.0084	801.8556	841.0642	862.2198	889.3821	917.6279	951.9934	962.1019	1028.7008	1044.9315	1070.9522	1076.64	1092.7026	1135.8339	1161.4215	1203.5674	1245.074	1252.0026	1289.617	1319.5384	1346.1532	1383.8316	1437.1057	1457.1917	1493.4763	1513.6535	1787.1072	2925.099	3106.451	3119.5462	3131.4531	3161.8666	3192.8911	3226.0543	3488.931	3693.3705
OC1(CC1C1CN1)C=O	O[C@]1(C[C@H]1[C@H]1CN1)C=O	
InChI=1S/C6H9NO2/c8-3-6(9)1-4(6)5-2-7-5/h3-5,7,9H,1-2H2	InChI=1S/C6H9NO2/c8-3-6(9)1-4(6)5-2-7-5/h3-5,7,9H,1-2H2/t4-,5+,6+/m0/s1
