17
gdb 125910	3.70766	1.2777	1.00188	4.1279	76.29	-0.2043	0.0302	0.2345	1170.5491	0.137044	-417.988127	-417.979945	-417.979	-418.02126	30.359	
C	-0.3574440915	 1.6424249411	-0.1544211277	-0.402551
C	 0.1105698334	 0.2080066019	-0.0019230442	 0.066116
C	 0.8838181981	-0.4714972856	-1.2117744254	-0.413014
C	 2.0390376711	-0.6259543952	-0.2306717281	 0.221727
C	 3.1918824038	-1.1119781739	 0.3618235122	 0.079217
O	 4.2480455785	-1.8252620886	-0.1224905573	-0.437875
C	 3.0714615588	-0.6816241795	 1.7125378995	-0.053908
N	 1.9283226245	-0.0135743234	 1.9583808476	-0.309957
N	 1.3691751051	 0.0159390747	 0.749475582	 0.083552
H	 0.4413183699	 2.2728114709	-0.5561689567	 0.130162
H	-1.2159397949	 1.6890341285	-0.8322153616	 0.124895
H	-0.6651025592	 2.0514158664	 0.8124694394	 0.142962
H	-0.6896751219	-0.4306708364	 0.3864513784	 0.107962
H	 0.4305638293	-1.4002651473	-1.5671990524	 0.125966
H	 1.0550094328	 0.1948817248	-2.0618363276	 0.121841
H	 4.1139037761	-1.9832492567	-1.0610295055	 0.298834
H	 3.792658146	-0.8344480016	 2.5017262773	 0.114071
50.9501	162.2598	183.5963	213.5282	265.7823	308.8223	353.6117	430.3079	541.8148	637.6597	657.1591	658.8282	718.8006	756.7163	841.7224	871.3113	914.5912	983.4794	1062.5146	1085.6015	1096.5211	1111.0511	1179.1461	1208.3203	1221.8664	1228.5974	1268.2526	1331.232	1367.3692	1390.0482	1409.9421	1439.211	1480.1686	1486.7196	1496.3089	1510.3863	1637.245	3039.965	3055.5529	3058.5422	3108.3431	3113.7042	3121.0639	3249.8671	3846.6978
CC1CC2=C(O)C=NN12	C[C@H]1Cc2c(O)cnn12	
InChI=1S/C6H8N2O/c1-4-2-5-6(9)3-7-8(4)5/h3-4,9H,2H2,1H3	InChI=1S/C6H8N2O/c1-4-2-5-6(9)3-7-8(4)5/h3-4,9H,2H2,1H3/t4-/m0/s1
