15
gdb 32553	2.74377	1.57443	1.00682	8.0221	72.02	-0.2196	-0.0167	0.2029	1113.0451	0.114198	-453.983747	-453.975974	-453.97503	-454.016235	28.837	
C	 0.0652420812	 1.3869423446	 0.0068386366	-0.245373
O	-0.0160589892	-0.0250782902	 0.0030672761	-0.226332
C	-1.2414446527	-0.5793875635	 0.0109264938	 0.210827
C	-2.4131027621	 0.1014182183	 0.0224014664	-0.131594
N	-3.598697619	-0.6159967745	 0.0292100126	-0.299658
C	-3.5693858006	-1.9716410997	 0.0241619182	 0.096636
N	-2.4984990351	-2.688786506	 0.0133697869	-0.317225
C	-1.2381166693	-2.0684406179	 0.0062321536	 0.339688
O	-0.2056163001	-2.7037662693	-0.0052625653	-0.349824
H	 1.127489847	 1.6330393477	-0.0007910614	 0.148407
H	-0.4142438586	 1.8187147261	-0.8825213569	 0.121962
H	-0.4000938881	 1.8131233668	 0.9063547119	 0.121953
H	-2.5062381218	 1.1774293559	 0.0267216618	 0.128645
H	-4.4802033339	-0.129414382	 0.0377318258	 0.270418
H	-4.5463527977	-2.4529147461	 0.02992397	 0.131469
91.6423	125.7592	228.2092	249.1653	332.6083	357.8433	430.2278	465.6499	506.9681	573.8302	591.4977	598.1216	764.0358	814.594	820.286	922.0568	954.7886	1026.5174	1086.4202	1124.1934	1177.1	1212.591	1247.2339	1291.8107	1383.8424	1422.4963	1478.3149	1490.9479	1504.8602	1539.9918	1637.1842	1682.209	1778.6763	2995.4204	3052.2987	3142.9089	3143.8654	3233.7365	3647.3327
COC1=CNC=NC1=O	COc1c[nH]cnc1=O	
InChI=1S/C5H6N2O2/c1-9-4-2-6-3-7-5(4)8/h2-3H,1H3,(H,6,7,8)	InChI=1S/C5H6N2O2/c1-9-4-2-6-3-7-5(4)8/h2-3H,1H3,(H,6,7,8)
