19
gdb 40658	3.77701	1.20985	1.01996	1.6747	79.95	-0.2444	0.0007	0.2451	1196.2988	0.160328	-385.858885	-385.851276	-385.850332	-385.891305	30.026	
C	-0.1868167185	 1.4049911569	-0.1959278247	-0.276429
C	 1.2539765725	 1.123077899	 0.1550130264	-0.275238
C	 0.2663705721	-0.0114911509	 0.0499901615	 0.041377
C	-0.1841510126	-0.760175415	 1.2913747384	-0.089139
C	-1.5626280205	-1.3931422321	 1.1588785257	-0.083854
C	-1.5560134595	-2.7035782315	 1.4131535114	-0.094123
C	-0.1640876064	-3.1599504486	 1.7096583957	-0.00362
O	 0.7447973427	-2.9602994755	 0.5977959385	-0.259534
C	 0.6956698043	-1.9691131487	 1.6271571097	 0.024331
H	-0.8051593247	 1.8799167793	 0.5595351044	 0.107904
H	-0.4232390454	 1.7030296346	-1.2113182103	 0.112634
H	 2.0042492233	 1.2246008257	-0.6210057131	 0.114203
H	 1.5982367363	 1.4098971395	 1.1436890942	 0.107251
H	 0.3573414315	-0.6516844626	-0.8217183888	 0.101534
H	-0.1740101396	-0.0605845795	 2.1406717787	 0.077306
H	-2.4235787131	-0.8153260794	 0.8411579905	 0.103754
H	-2.4107511913	-3.3677430866	 1.3791156097	 0.102114
H	 0.0520373704	-4.026074589	 2.3274300864	 0.095971
H	 1.6115397186	-1.8451190455	 2.1987751658	 0.093558
81.6918	123.8296	156.4866	298.3456	336.2849	414.3853	498.3901	537.1565	713.7183	742.9013	777.7038	815.1103	831.1914	837.7775	864.6099	879.4061	909.1177	929.3236	946.294	980.6091	994.8366	1021.0671	1057.2513	1063.0718	1079.3728	1107.2524	1128.4898	1147.7454	1175.1384	1199.1884	1223.7423	1252.6875	1275.2718	1287.2936	1299.6679	1373.5245	1405.9432	1412.3317	1469.5803	1505.3761	1661.5369	2994.6264	3126.5489	3131.6781	3146.6672	3162.4915	3165.9989	3189.2601	3205.2136	3217.9299	3220.7279
C1CC1C1C=CC2OC12	C1CC1[C@H]1C=C[C@H]2O[C@@H]12	
InChI=1S/C8H10O/c1-2-5(1)6-3-4-7-8(6)9-7/h3-8H,1-2H2	InChI=1S/C8H10O/c1-2-5(1)6-3-4-7-8(6)9-7/h3-8H,1-2H2/t6-,7-,8+/m1/s1
