17
gdb 6169	3.65877	1.4189	1.34993	2.5208	65.13	-0.2455	0.0171	0.2626	997.455	0.140119	-401.027869	-401.019052	-401.018108	-401.060869	32.401	
C	 1.0435721979	 0.9384054251	-0.5353479355	-0.463056
C	 0.0412771461	-0.0394851105	 0.0346961007	 0.402734
C	-1.1577298366	-0.3220920722	-0.8448899513	-0.448573
O	 0.5938686107	-1.2107087747	 0.6715881573	-0.298711
C	-0.0950306915	-0.2600172666	 1.4930732743	-0.096827
C	 0.7011515278	 0.4843194609	 2.540085454	 0.354955
N	 2.0238266598	 0.1655993595	 2.5652184565	-0.518827
O	 0.1670960051	 1.2870847366	 3.280304041	-0.362904
H	 1.877053995	 1.1089566325	 0.1466836522	 0.135907
H	 1.438730221	 0.5557127152	-1.4825711471	 0.125439
H	 0.5590272518	 1.8986415868	-0.7395030329	 0.131915
H	-0.8325808895	-0.6865671469	-1.8252888873	 0.127276
H	-1.8032722782	-1.0788458087	-0.3935714134	 0.131498
H	-1.7425648366	 0.5899203935	-1.0024806008	 0.130385
H	-1.0674618153	-0.5779473386	 1.8672300642	 0.112831
H	 2.3537499806	-0.6051741538	 2.0077942959	 0.272455
H	 2.5986785719	 0.545123492	 3.2990062921	 0.263504
83.5813	152.8652	173.6522	183.4845	221.6694	317.8228	338.6463	375.3245	409.1009	439.3333	497.2111	560.7063	639.1892	691.3205	746.3476	834.171	919.247	935.5121	952.8167	1016.9952	1072.0578	1095.3323	1109.3068	1148.3403	1260.2847	1318.1132	1359.7706	1409.1574	1421.3944	1435.652	1476.7057	1483.5384	1500.8243	1511.4682	1595.2794	1803.4634	3036.85	3043.3022	3100.0847	3105.6241	3124.9854	3129.4898	3148.7781	3593.0887	3733.2649
CC1(C)OC1C(N)=O	CC1(C)O[C@H]1C(=O)N	
InChI=1S/C5H9NO2/c1-5(2)3(8-5)4(6)7/h3H,1-2H3,(H2,6,7)	InChI=1S/C5H9NO2/c1-5(2)3(8-5)4(6)7/h3H,1-2H3,(H2,6,7)/t3-/m0/s1
