19
gdb 88811	2.99338	1.09775	0.89514	2.3015	76.93	-0.2304	-0.0119	0.2185	1320.3789	0.15786	-423.013132	-423.004175	-423.00323	-423.047822	33.24	
O	-0.0578383069	 1.4439542215	 0.7454108762	-0.417319
C	 0.068107335	 0.1446354564	 0.2412545298	 0.082954
C	-0.5920984398	-0.998438084	 0.9648506319	-0.325667
C	-1.1753023009	-0.4781152629	-0.3368008881	-0.027941
C	-2.479633242	 0.2680405459	-0.3268689254	-0.094094
C	-3.015322082	 0.9457618337	-1.6314700108	-0.25769
C	-4.4359757733	 0.3636060947	-1.3656500445	-0.339432
C	-3.7954965374	-0.5384065933	-0.295444296	 0.384162
O	-4.1365335042	-1.5429979347	 0.2585907373	-0.298759
H	 0.442097398	 1.4932529847	 1.5665363817	 0.290427
H	 1.0082788834	-0.051348375	-0.2737779752	 0.088469
H	-0.1120506368	-1.970557358	 0.9709196134	 0.115333
H	-1.1354526763	-0.7552357418	 1.8718871913	 0.121018
H	-1.0236054077	-1.1079102712	-1.2095231975	 0.087411
H	-2.4829395929	 0.9892040272	 0.4983492776	 0.111483
H	-2.9316845588	 2.0319094232	-1.6733275968	 0.113237
H	-2.5584358885	 0.5211014098	-2.528978281	 0.109709
H	-5.1282248607	 1.0863634009	-0.9212717219	 0.130241
H	-4.9492013282	-0.1503643373	-2.1820005421	 0.12646
37.1182	88.8654	111.7231	183.2154	238.1052	302.2834	352.3772	419.6155	450.1149	507.8521	592.811	679.5013	714.1485	770.8265	800.2916	842.6615	890.6905	924.6251	952.4795	990.6735	1008.5133	1021.07	1056.6473	1061.5263	1088.0577	1130.3638	1170.5177	1183.4687	1200.4193	1223.7007	1230.4216	1238.2305	1259.9496	1287.9675	1302.4292	1401.2013	1424.8186	1443.9025	1485.8352	1493.033	1886.2264	3053.4148	3058.6721	3073.1567	3100.2663	3113.0608	3134.0615	3135.9288	3141.5588	3222.9906	3810.9246
OC1CC1C1CCC1=O	O[C@H]1C[C@H]1[C@H]1CCC1=O	
InChI=1S/C7H10O2/c8-6-2-1-4(6)5-3-7(5)9/h4-5,7,9H,1-3H2	InChI=1S/C7H10O2/c8-6-2-1-4(6)5-3-7(5)9/h4-5,7,9H,1-3H2/t4-,5+,7+/m1/s1
