18
gdb 65406	3.7066	0.84294	0.77653	3.688	84.08	-0.2549	0.0251	0.2799	1478.7403	0.145365	-364.785442	-364.775793	-364.774849	-364.820298	35.3	
C	 0.0551313243	 1.5243211868	-0.159214452	-0.461242
C	 0.0001314737	 0.0109449402	 0.0057901412	 0.105182
C	 1.3004266161	-0.7851849359	-0.0307513489	-0.305668
C	 0.5441046583	-0.6727083044	 1.2607124723	-0.024515
C	 1.086249782	 0.1240986242	 2.438368557	-0.377173
C	 2.0031616633	-0.6729284084	 3.2563205818	 0.267786
N	 2.7225296523	-1.3128894416	 3.8950181611	-0.302993
C	-1.1642752583	-0.6013105607	-0.5820263783	 0.273692
C	-2.1450111119	-1.0934417802	-1.0749301905	-0.447097
H	 0.9834878182	 1.9443993708	 0.2360681929	 0.116015
H	 0.0013536906	 1.784628824	-1.2201807367	 0.138274
H	-0.7868643906	 2.0070267453	 0.3464663907	 0.132149
H	 1.3062502682	-1.73810251	-0.5452628343	 0.13444
H	 2.213599027	-0.2077191646	-0.1362711976	 0.122617
H	-0.0066586674	-1.5575577485	 1.561563564	 0.1211
H	 1.6215223393	 1.0173533848	 2.1028925681	 0.151399
H	 0.2663684554	 0.4703424697	 3.0789001916	 0.158935
H	-3.0076473906	-1.5336791414	-1.5102782123	 0.197099
47.5943	100.0457	137.0646	176.8812	193.4756	248.1388	301.0122	379.6958	388.0458	411.6722	483.9163	539.3593	580.3484	600.8005	650.6581	678.8722	836.3108	869.3974	878.721	932.4615	945.5469	975.366	1037.1756	1074.3054	1108.443	1115.002	1157.2915	1237.2812	1280.1666	1297.0604	1324.8287	1416.9357	1418.638	1460.846	1485.7778	1489.3976	1503.7631	2234.9736	2362.9951	3041.6127	3045.8932	3091.0224	3111.0305	3119.9521	3136.0141	3169.8703	3230.1834	3502.1431
CC1(CC1CC#N)C#C	C[C@]1(C[C@H]1CC#N)C#C	
InChI=1S/C8H9N/c1-3-8(2)6-7(8)4-5-9/h1,7H,4,6H2,2H3	InChI=1S/C8H9N/c1-3-8(2)6-7(8)4-5-9/h1,7H,4,6H2,2H3/t7-,8-/m1/s1
