15
gdb 29826	3.30013	1.39847	0.98825	2.8309	73.6	-0.2053	-0.062	0.1433	1120.7213	0.113458	-454.003746	-453.995794	-453.99485	-454.036525	29.463	
C	-0.017362232	 1.4518463037	-0.0093538176	-0.333832
N	-0.0308840638	-0.0066002171	 0.0034144074	-0.102094
C	-1.2002727064	-0.7084111031	-0.1097313594	-0.084444
C	-1.1663221678	-2.0719577223	-0.0930029367	 0.362088
O	-2.3115552974	-2.7918797921	-0.2034959592	-0.432277
N	-0.0053648585	-2.7572651668	 0.0327508636	-0.309669
C	 1.1080202695	-2.088986703	 0.1404792043	-0.102682
C	 1.2153006704	-0.6360428793	 0.1373815676	 0.376689
O	 2.2492259792	 0.0121353321	 0.2371682799	-0.413726
H	 0.6037224894	 1.8078108842	-0.8348900587	 0.162411
H	-1.0372460623	 1.8208923549	-0.1177995743	 0.132694
H	 0.4234627908	 1.8248566233	 0.918282525	 0.162398
H	-2.1178648623	-0.1450867881	-0.2093381873	 0.142575
H	-2.0461173338	-3.7196877307	-0.1672561651	 0.300613
H	 2.0397030949	-2.6385676656	 0.2413937106	 0.139257
67.5293	127.3964	188.1927	310.4702	346.8594	360.5324	390.445	432.1406	454.0927	545.1046	600.1207	602.9892	755.3343	772.2421	824.3812	843.8739	937.5686	957.7973	1070.2968	1144.3936	1151.7249	1189.987	1222.7485	1331.5876	1338.7663	1400.6053	1453.4574	1465.1154	1478.3023	1510.6505	1554.2384	1683.767	1756.4072	3058.0287	3124.4873	3158.8221	3175.6967	3224.3098	3791.9699
CN1C=C(O)N=CC1=O	Cn1cc(O)ncc1=O	
InChI=1S/C5H6N2O2/c1-7-3-4(8)6-2-5(7)9/h2-3,8H,1H3	InChI=1S/C5H6N2O2/c1-7-3-4(8)6-2-5(7)9/h2-3,8H,1H3
