18
gdb 58670	1.94002	1.46439	1.14472	2.9509	73.03	-0.2833	0.0003	0.2835	1181.0118	0.144426	-439.07993	-439.06992	-439.068976	-439.114844	35.847	
C	 0.0591104742	 1.3907668041	-0.4214180337	-0.424702
C	 0.0487416632	 0.0560879842	 0.3212227824	 0.034194
O	 0.4869918668	 0.1659348508	 1.6637447446	-0.424327
C	-1.3379811032	-0.5955916521	 0.2800210629	 0.237218
O	-1.7978339414	-1.0874748261	-0.9798790164	-0.28
C	-1.5790615271	-2.0426788126	 0.0675666242	 0.030393
C	-0.4994791468	-3.0738913009	-0.1183695339	-0.431444
C	-2.328380336	 0.1436335831	 1.0548295304	 0.248063
N	-3.0643770901	 0.7638125079	 1.6957052671	-0.337271
H	 1.0614027132	 1.824704072	-0.3861490431	 0.132301
H	-0.231803375	 1.2515656179	-1.4664895169	 0.142013
H	-0.6427281462	 2.0978452474	 0.0355064461	 0.134109
H	 0.7503718654	-0.6291457025	-0.1596852712	 0.1042
H	-0.0178699967	 0.8685345222	 2.0909240722	 0.295741
H	-2.5081604291	-2.4283585788	 0.4897654835	 0.115814
H	 0.3951376333	-2.6585187647	-0.5842886335	 0.138388
H	-0.226072124	-3.5083384341	 0.8482306698	 0.144191
H	-0.8714730705	-3.8799459978	-0.7586487644	 0.141119
62.2242	125.6649	134.6909	151.5308	194.6768	216.8785	255.8442	322.6032	340.835	369.5624	392.9123	485.5068	510.2351	574.5387	615.3604	689.9234	800.7505	894.47	934.5688	969.6924	1005.3047	1044.9474	1083.8803	1121.4335	1131.8906	1162.4968	1236.769	1289.8421	1319.2941	1369.9765	1404.2226	1409.2891	1416.5415	1452.7239	1485.4928	1492.7446	1495.5887	1504.3694	2349.0907	3038.1695	3048.9289	3090.292	3104.0248	3112.5005	3114.7483	3130.6826	3148.1892	3789.8084
CC(O)C1(OC1C)C#N	C[C@@H](O)[C@]1(O[C@H]1C)C#N	
InChI=1S/C6H9NO2/c1-4(8)6(3-7)5(2)9-6/h4-5,8H,1-2H3	InChI=1S/C6H9NO2/c1-4(8)6(3-7)5(2)9-6/h4-5,8H,1-2H3/t4-,5+,6-/m1/s1
