25
gdb 96581	2.17148	1.42378	1.00304	1.0899	88.9	-0.2403	0.0795	0.3198	1319.7544	0.231124	-389.503703	-389.494449	-389.493505	-389.537204	36.708	
C	 0.1442386836	 1.6272725999	 0.1147197948	-0.395311
C	 0.02191355	 0.108792932	 0.0012087691	 0.148586
C	 0.6412869531	-0.4113503987	-1.3116983156	-0.19348
C	 1.0453584337	-1.890695332	-1.307871226	-0.192313
C	-0.0772253775	-2.9366459337	-1.2257913777	-0.184513
C	-0.9729715684	-2.942632309	 0.0311186163	-0.188008
C	-0.2392670019	-2.7952050735	 1.3803822501	-0.195859
C	-0.1014821484	-1.3619263279	 1.9144573781	-0.070374
O	 0.6731112343	-0.4735093672	 1.1321792217	-0.259878
H	 1.1994068374	 1.9117521272	 0.1788791492	 0.123083
H	-0.2937023508	 2.1217421003	-0.7589499242	 0.108108
H	-0.3635522632	 1.9936129754	 1.0115993321	 0.112052
H	-1.0426172667	-0.1560244053	 0.0292238426	 0.067394
H	-0.0575898509	-0.2029385257	-2.133007435	 0.088303
H	 1.5427444017	 0.1794895973	-1.520359137	 0.093192
H	 1.6100762581	-2.0869818686	-2.2276476099	 0.085883
H	 1.7490390425	-2.0431264826	-0.4832644414	 0.109753
H	-0.7226294053	-2.8497361619	-2.1102754335	 0.088066
H	 0.3992024646	-3.9230261464	-1.3025814319	 0.093448
H	-1.7463188608	-2.1690236998	-0.0457801904	 0.094258
H	-1.5209108333	-3.8921529313	 0.030159119	 0.090251
H	-0.7913014139	-3.3484446608	 2.1516521302	 0.091236
H	 0.7523904857	-3.2611703453	 1.3263921667	 0.10232
H	-1.1087706819	-0.9410763964	 2.0731410858	 0.083738
H	 0.3910630482	-1.395532156	 2.8932342469	 0.100064
91.414	148.1942	187.2946	237.3964	260.2732	284.1426	303.0576	331.1156	378.8761	448.5265	462.0172	533.3569	539.3713	740.8194	765.3839	803.6665	814.1197	863.7476	905.9963	922.5941	963.0902	983.8189	994.5329	1043.6389	1060.9008	1095.6057	1128.4453	1133.657	1149.3222	1171.7556	1192.6252	1225.3567	1261.7116	1295.7476	1305.7526	1325.8466	1338.3467	1369.1323	1381.3026	1386.5329	1394.6455	1397.9867	1403.4305	1407.7811	1426.3576	1473.2617	1478.5594	1484.0131	1488.0487	1491.6034	1495.7894	1497.4336	1507.9469	2961.1626	3006.3702	3010.3051	3012.1424	3016.5917	3026.4637	3033.936	3035.9715	3039.14	3050.4889	3055.3652	3059.9959	3065.8621	3082.2053	3106.8216	3113.45
CC1CCCCCCO1	C[C@H]1CCCCCCO1	
InChI=1S/C8H16O/c1-8-6-4-2-3-5-7-9-8/h8H,2-7H2,1H3	InChI=1S/C8H16O/c1-8-6-4-2-3-5-7-9-8/h8H,2-7H2,1H3/t8-/m0/s1
