20
gdb 72813	2.65079	1.56953	1.24743	3.7819	78.39	-0.234	0.0335	0.2675	1078.6002	0.17284	-403.193807	-403.185602	-403.184658	-403.226411	32.109	
C	-0.3814174029	 1.4672369546	 0.1114731223	-0.479356
C	 0.0683468254	 0.0224233546	-0.0374252444	 0.349839
C	-1.0542246117	-1.0352689541	 0.2315458886	-0.271024
C	-0.3792038691	-1.404561023	 1.5819790744	-0.221278
C	 0.875109946	-0.6042451125	 1.1419116827	-0.178139
C	 1.939086603	-1.4719686015	 0.4706398754	 0.400772
O	 2.7187318607	-2.2251777468	 1.0134206091	-0.388554
N	 1.8407907935	-1.2632644298	-0.8817536622	-0.309964
C	 0.9114773641	-0.2312484154	-1.3046373136	-0.231531
H	 0.4744122195	 2.1510085542	 0.137594065	 0.117878
H	-1.0252814858	 1.7668412041	-0.7242256413	 0.11738
H	-0.9528320591	 1.6107697629	 1.0344354644	 0.119798
H	-2.071115137	-0.6385369209	 0.2865342533	 0.099217
H	-1.0423794704	-1.856439358	-0.4902138724	 0.105845
H	-0.8764975451	-0.9497563966	 2.4418881238	 0.10522
H	-0.2218967124	-2.4642398893	 1.79312287	 0.118515
H	 1.3401698992	 0.0499638867	 1.8830121841	 0.089012
H	 2.5044373824	-1.6988636724	-1.5029118785	 0.248407
H	 0.2894564985	-0.5682174703	-2.1433080791	 0.108151
H	 1.4386985113	 0.6790628636	-1.6264408114	 0.099812
85.012	144.9289	216.1856	242.2328	275.0029	325.4021	359.4747	479.4763	538.0007	545.9913	610.6692	704.1583	727.3107	745.3794	820.1521	868.0119	897.621	939.5246	955.3288	972.829	994.3685	1019.1499	1066.4904	1098.8604	1156.0721	1173.5119	1203.1792	1218.3634	1239.5884	1245.5942	1259.3162	1277.6617	1285.3321	1334.0778	1356.3292	1414.8051	1449.6695	1477.6257	1493.7484	1495.6546	1498.4137	1529.8175	1822.2646	2987.9961	3021.9699	3036.7384	3056.6001	3067.5353	3085.2147	3087.2065	3096.685	3104.4913	3124.3938	3636.6009
CC12CCC1C(=O)NC2	C[C@]12CC[C@H]1C(=O)NC2	
InChI=1S/C7H11NO/c1-7-3-2-5(7)6(9)8-4-7/h5H,2-4H2,1H3,(H,8,9)	InChI=1S/C7H11NO/c1-7-3-2-5(7)6(9)8-4-7/h5H,2-4H2,1H3,(H,8,9)/t5-,7+/m0/s1
