21
gdb 109507	1.83183	1.39361	1.00623	0.8938	85.93	-0.229	0.0496	0.2786	1311.7352	0.178808	-387.052225	-387.041664	-387.04072	-387.087321	39.503	
C	 0.2465955073	 1.5008388824	 0.1366188809	-0.374577
C	-0.2043096418	 0.0560377066	-0.1094200661	-0.213517
C	 0.5494695483	-0.5886567712	-1.2525779964	-0.037869
C	 1.9150439468	-1.2710451689	-1.040849794	-0.313398
C	 2.4848801837	-1.4013807448	 0.2644793324	 0.351511
C	 2.9684456258	-1.5142837331	 1.3620232755	-0.475127
C	 0.6644668321	-2.0620635433	-1.4617143521	 0.360174
C	 0.0408995684	-3.0764998346	-0.5333209179	-0.456706
O	 0.6157495842	-2.4213735333	-2.8176793891	-0.46009
H	 1.3068868182	 1.535175433	 0.4050136048	 0.130195
H	 0.1059789894	 2.1173010917	-0.7580778462	 0.112595
H	-0.3237974938	 1.9581741216	 0.9508113197	 0.109704
H	-0.0650225555	-0.5247730084	 0.8074802309	 0.109172
H	-1.2783715295	 0.0349316325	-0.334307305	 0.099699
H	 0.504023871	-0.0355684881	-2.1876320599	 0.100265
H	 2.6282044433	-1.1203294833	-1.8458815011	 0.111019
H	 3.4011924401	-1.6157867366	 2.3260286958	 0.192464
H	 0.1376255953	-2.7870892431	 0.5140771012	 0.13771
H	-1.019333161	-3.2061105586	-0.7718739338	 0.126563
H	 0.5362759275	-4.0485209047	-0.6486597788	 0.110467
H	 1.0870660102	-3.2565009556	-2.9195791307	 0.279746
69.3455	129.5623	131.4997	164.6878	193.7323	212.5095	259.3582	303.1425	328.263	361.2171	391.3579	420.852	498.1659	542.0566	567.1583	607.174	650.8467	702.5344	777.6674	818.6255	859.4131	934.3038	958.6178	999.5809	1036.8533	1051.3604	1088.7986	1114.6688	1128.1974	1154.9455	1227.3519	1270.9731	1299.4861	1322.1792	1336.664	1386.0463	1409.7455	1418.6146	1452.1432	1482.6088	1488.4938	1498.756	1504.4771	1509.2806	2224.2819	3026.2777	3030.1535	3034.2019	3076.2371	3092.2665	3103.2971	3112.509	3140.0351	3141.8803	3152.3559	3504.6522	3786.0252
CCC1C(C#C)C1(C)O	CC[C@H]1[C@@H](C#C)[C@]1(C)O	
InChI=1S/C8H12O/c1-4-6-7(5-2)8(6,3)9/h1,6-7,9H,5H2,2-3H3	InChI=1S/C8H12O/c1-4-6-7(5-2)8(6,3)9/h1,6-7,9H,5H2,2-3H3/t6-,7+,8+/m1/s1
