21
gdb 74331	3.78181	0.95309	0.82737	2.0253	85.71	-0.2328	0.0243	0.2571	1447.5706	0.182584	-387.088778	-387.079804	-387.07886	-387.1231	33.448	
C	 0.0632634838	 1.5722339604	 0.2355565769	-0.49051
C	 0.0639804267	 0.0868451393	 0.058133969	 0.338088
C	-0.0863700635	-0.5920211209	-1.0814411916	-0.189423
C	-0.0951193543	-2.0920202402	-0.8831974556	-0.053712
C	 0.4030323245	-2.2431068011	 0.5843997575	-0.238182
C	 0.2188710831	-0.8514080027	 1.2384153836	-0.295653
C	-1.48095174	-2.6704393686	-1.0975517094	 0.099781
C	-1.9037324144	-3.2480265159	-2.3786618071	-0.185092
O	-1.5691065158	-4.0877550521	-1.2715100474	-0.243009
H	 1.0048455509	 1.9181030969	 0.6809166054	 0.1253
H	-0.0772525966	 2.0954788672	-0.7141049656	 0.12271
H	-0.7352492249	 1.8872993842	 0.9198040399	 0.125441
H	-0.2431583168	-0.1361118043	-2.054043398	 0.083229
H	 0.5756950279	-2.6092877691	-1.580318366	 0.073395
H	-0.121675939	-3.041265175	 1.1158065493	 0.11053
H	 1.4637469763	-2.5089232935	 0.5764683813	 0.104704
H	 1.0655952689	-0.5761467925	 1.8791386642	 0.100119
H	-0.6706967232	-0.8049099761	 1.8829163316	 0.103679
H	-2.2570451068	-2.2562167359	-0.4499069621	 0.087046
H	-2.9556608807	-3.2411648097	-2.6614638102	 0.111855
H	-1.2016173162	-3.2742168602	-3.2118519857	 0.109704
67.7295	72.8316	127.4668	184.0031	219.0736	307.7323	329.5062	350.89	449.6695	486.1508	599.8464	730.6149	781.7416	843.218	849.1171	870.8422	887.3447	915.325	955.7199	975.2611	994.5852	1032.7508	1047.5451	1058.8006	1104.913	1126.117	1155.2354	1171.3646	1173.8571	1202.2205	1246.8909	1276.559	1283.5644	1290.202	1300.9921	1331.0688	1362.1676	1413.34	1440.6915	1479.2302	1484.1408	1488.4735	1501.7357	1528.6507	1721.6559	3004.4559	3016.1631	3023.5506	3040.0141	3061.0018	3063.0666	3076.6243	3085.3494	3103.5863	3109.7477	3162.2278	3178.5136
CC1=CC(CC1)C1CO1	CC1=C[C@@H](CC1)[C@H]1CO1	
InChI=1S/C8H12O/c1-6-2-3-7(4-6)8-5-9-8/h4,7-8H,2-3,5H2,1H3	InChI=1S/C8H12O/c1-6-2-3-7(4-6)8-5-9-8/h4,7-8H,2-3,5H2,1H3/t7-,8-/m1/s1
