20
gdb 111438	2.83675	1.58144	1.24957	1.1708	77.58	-0.2254	0.0668	0.2922	1069.0104	0.172109	-403.090003	-403.082108	-403.081163	-403.122344	31.155	
C	-0.3253107053	 1.1771377698	-0.027092072	-0.235763
O	 0.1646273316	-0.141767553	 0.0590014657	-0.235988
C	 0.7855379978	-0.5914591182	-1.1335937752	 0.075093
C	 1.4042151805	-1.9719218636	-0.9111373983	-0.063249
C	 0.4958491333	-3.0487308293	-0.3677132591	-0.2955
C	 0.7107350766	-2.9221785454	-1.8544377977	 0.000879
N	-0.2088117771	-2.19154131	-2.7333136686	-0.10659
C	-1.4026089424	-1.5883062922	-2.1304191099	-0.249808
C	-0.1744387592	-0.7748492741	-2.3270032965	-0.046629
H	 0.4766398495	 1.8938307808	-0.2666724772	 0.10221
H	-1.1143517259	 1.2765002219	-0.7869790531	 0.11083
H	-0.7434989279	 1.4315859086	 0.9498717685	 0.126492
H	 1.5711709315	 0.1255604009	-1.4200584229	 0.066182
H	 2.4675281958	-2.0250319152	-0.7097608988	 0.088249
H	 0.9760062061	-3.8935639598	 0.115035041	 0.111249
H	-0.4387929896	-2.758099414	 0.0934842509	 0.129901
H	 1.2467553047	-3.7123201898	-2.3677960351	 0.095615
H	-2.2399314493	-1.4733971998	-2.8137533599	 0.113517
H	-1.6864828966	-1.8483017303	-1.1168213548	 0.125959
H	-0.1275960939	-0.0476851574	-3.1338339572	 0.087351
101.325	143.8389	174.2868	232.0608	299.8874	372.7053	439.5558	510.1466	556.2825	657.3914	700.149	735.3518	804.1421	826.5903	843.5985	872.7732	948.9476	977.6713	997.2343	1014.8622	1044.0536	1050.6391	1079.1157	1091.3432	1113.7494	1117.5403	1127.7614	1150.4704	1160.7566	1181.5361	1203.2277	1226.4708	1282.633	1303.6431	1327.7146	1374.6526	1380.6359	1389.1262	1478.1205	1479.8215	1486.6122	1508.9995	1517.5061	2970.5656	2977.6644	3024.1219	3113.3757	3116.4144	3131.8774	3143.1384	3168.0209	3179.0419	3205.8111	3231.9567
COC1C2CC2N2CC12	CO[C@H]1[C@H]2C[C@H]2N2C[C@@H]12	
InChI=1S/C7H11NO/c1-9-7-4-2-5(4)8-3-6(7)8/h4-7H,2-3H2,1H3	InChI=1S/C7H11NO/c1-9-7-4-2-5(4)8-3-6(7)8/h4-7H,2-3H2,1H3/t4-,5+,6-,7-,8?/m0/s1
