19
gdb 14392	4.01862	1.89726	1.60434	1.6466	74.67	-0.2021	0.0711	0.2732	875.5002	0.164853	-327.832549	-327.824869	-327.823925	-327.864361	30.392	
C	-0.097371964	 1.6105634193	 0.0009939622	-0.440318
C	 0.0832274342	 0.0886915044	 0.0323346943	 0.327605
C	-1.1199870973	-0.6348096998	-0.5732455841	-0.448815
C	 1.3591135097	-0.6869162879	-0.2332600968	-0.099681
C	 2.6510492055	-0.1481148868	 0.4411525834	-0.073409
N	 2.3581136354	 1.1173006706	 1.1649187782	-0.340604
C	 2.0119705093	-0.1966162277	 1.7688461327	-0.07341
C	 0.6943818776	-0.7373670152	 1.1477345392	-0.09968
H	 0.6847022376	 2.1025922105	-0.5777446084	 0.125896
H	-1.0640340323	 1.8534964017	-0.4555371282	 0.088587
H	-0.0752921199	 2.0449040812	 1.0007623529	 0.125888
H	-1.266688791	-0.328170559	-1.6148813476	 0.116144
H	-0.9991850623	-1.7226302607	-0.554816227	 0.107799
H	-2.0335608853	-0.3863402326	-0.0217025037	 0.116144
H	 1.3967506122	-1.4735526567	-0.9781069301	 0.08012
H	 3.6595521238	-0.397801525	 0.1376807196	 0.090957
H	 3.2343044697	 1.4118366526	 1.5974250053	 0.225699
H	 2.4116508027	-0.4925094924	 2.7302095679	 0.090957
H	 0.1587658441	-1.5675087364	 1.5938176702	 0.080121
52.7565	188.3558	264.3034	266.009	328.0276	378.8896	388.2883	494.806	595.5449	689.2649	722.6165	740.3789	768.5234	845.4541	876.4219	902.4215	918.7976	923.6629	988.4526	998.8959	999.1969	1032.2914	1034.6374	1043.8796	1108.9639	1118.1409	1148.6783	1171.7454	1239.9674	1250.5613	1298.4397	1307.7686	1359.8301	1398.3186	1410.6332	1427.7886	1488.4487	1489.8698	1495.9457	1501.1632	3023.4016	3035.2332	3089.1317	3098.8401	3118.7543	3147.1214	3166.4089	3176.4282	3188.3317	3201.603	3458.7254
CC1(C)C2C3NC3C12	CC1(C)[C@H]2[C@H]3N[C@H]3[C@@H]12	
InChI=1S/C7H11N/c1-7(2)3-4(7)6-5(3)8-6/h3-6,8H,1-2H3	InChI=1S/C7H11N/c1-7(2)3-4(7)6-5(3)8-6/h3-6,8H,1-2H3/t3-,4+,5-,6+
