19
gdb 105545	2.51371	1.43833	1.12356	2.8309	70.41	-0.2513	0.0659	0.3172	1134.5036	0.158466	-460.113355	-460.104544	-460.1036	-460.147216	32.565	
O	 0.2791453961	 1.5600173763	 0.4969131444	-0.428075
C	 0.2419217026	 0.1567196245	 0.6553077774	-0.116399
C	-1.1035703191	-0.4218057199	 0.2201140677	 0.369384
C	-2.368406845	 0.2568324348	 0.8029661074	-0.328391
C	-2.6732612295	 0.6316458262	-0.6573615162	-0.07429
O	-1.420294334	 0.06736053	-1.1164351063	-0.332221
C	-1.1029591688	-1.9316889718	 0.3088098757	 0.013258
C	-1.5991417573	-2.7848438073	-0.7764806831	-0.17404
O	-0.1955883778	-2.622008629	-0.5490848405	-0.239047
H	 0.0727402407	 1.7175959422	-0.432826596	 0.289233
H	 1.0342465057	-0.34106029	 0.0776314834	 0.117723
H	 0.4107921014	-0.0538343922	 1.717409507	 0.108739
H	-3.0826951131	-0.4091535776	 1.2897729411	 0.108253
H	-2.1426349384	 1.1065776064	 1.4469530156	 0.13027
H	-3.5321460888	 0.117915731	-1.1050975984	 0.106076
H	-2.7387786003	 1.7013840039	-0.8813195294	 0.111253
H	-1.1360078458	-2.3143008445	 1.3320869714	 0.095665
H	-1.9974179779	-3.7717923695	-0.5455466207	 0.112384
H	-1.9719430607	-2.3131144231	-1.6816698207	 0.130224
83.8056	93.4221	130.4818	177.5829	226.5684	276.7357	323.5863	413.6754	445.2027	483.3738	621.6219	667.839	768.1972	847.5066	868.434	882.1841	896.0004	951.8888	974.5909	994.4832	1019.3404	1074.6792	1091.6009	1124.3439	1160.086	1165.0026	1171.4635	1197.775	1208.7657	1233.1756	1248.4962	1274.3979	1287.431	1351.2443	1385.565	1428.642	1433.0014	1475.9032	1493.8112	1515.6927	1526.7727	3006.0592	3026.5553	3072.1987	3074.1059	3079.9029	3085.2889	3094.8584	3148.5715	3193.3116	3783.1153
OCC1(CCO1)C1CO1	OC[C@]1(CCO1)[C@H]1CO1	
InChI=1S/C6H10O3/c7-4-6(1-2-9-6)5-3-8-5/h5,7H,1-4H2	InChI=1S/C6H10O3/c7-4-6(1-2-9-6)5-3-8-5/h5,7H,1-4H2/t5-,6-/m1/s1
