15
gdb 127980	4.98724	1.09535	0.90401	2.112	76.51	-0.2249	-0.0802	0.1447	1237.4209	0.112373	-450.100897	-450.092499	-450.091555	-450.134304	30.441	
C	 0.2144301795	 1.4178784699	 0.1355139531	-0.326517
N	 0.2019654655	-0.0353549705	 0.1018001569	-0.31427
C	 0.3909469184	-0.6075993563	-1.0175663009	 0.41518
O	 0.6075831353	 0.079240311	-2.1752307692	-0.287925
N	 0.8082978628	-0.6012504304	-3.4056495017	-0.190966
C	 0.7297029555	-1.8917922654	-3.3500378731	 0.466899
N	 0.8014897262	-2.6070261555	-4.5175205207	-0.547141
N	 0.5487098203	-2.6988962265	-2.2165111669	-0.275727
C	 0.3940815252	-2.0610093504	-1.1175938075	-0.0207
H	 1.1809023222	 1.821532686	-0.1955010094	 0.132635
H	-0.5490983067	 1.8460796739	-0.5278270113	 0.133096
H	 0.0239854924	 1.7543675365	 1.1564851292	 0.12272
H	 1.1440350859	-2.1065438622	-5.3230584845	 0.269365
H	 1.1287813518	-3.5542916894	-4.4111675727	 0.26875
H	 0.256908206	-2.6082326305	-0.1874151512	 0.154601
56.1014	109.7905	186.7643	189.1855	266.0216	353.8869	386.6374	426.9639	453.8269	536.0177	581.7071	616.2008	624.6331	774.9159	785.7875	823.8383	946.0202	983.3341	998.0406	1043.1378	1099.1066	1156.7592	1169.4517	1295.77	1348.8733	1417.8435	1431.6823	1482.4424	1492.7753	1597.2242	1639.8655	1697.4565	1716.5658	3003.2978	3052.8553	3117.5259	3168.4122	3587.4891	3707.9401
CN=C1ON=C(N)N=C1	CN=c1onc(N)nc1	
InChI=1S/C4H6N4O/c1-6-3-2-7-4(5)8-9-3/h2H,1H3,(H2,5,8)	InChI=1S/C4H6N4O/c1-6-3-2-7-4(5)8-9-3/h2H,1H3,(H2,5,8)
