18
gdb 88651	3.28643	1.16101	1.03157	2.3664	73.34	-0.2401	0.0169	0.2569	1196.1083	0.14765	-439.063606	-439.055363	-439.054419	-439.096896	31.621	
O	-0.0834370349	 1.4494129286	 0.7201399942	-0.43112
C	 0.0140871628	 0.2217285959	 0.0722341373	 0.145282
C	-0.3072138286	-1.0839467371	 0.7533337784	-0.34986
C	-1.1957171813	-0.570065729	-0.3709168252	-0.089023
C	-2.5918668088	-0.0870142278	-0.0948551157	 0.099715
C	-3.656042161	-1.1088399142	 0.3712843817	-0.372823
C	-3.6824411607	-0.2888235374	 1.6415812517	 0.446318
N	-4.316687433	-0.3334394705	 2.7189021965	-0.533423
O	-2.7151960835	 0.6067431699	 1.205542225	-0.283741
H	-0.882571562	 1.4428209637	 1.2621797075	 0.296768
H	 0.8629291339	 0.2349497756	-0.6039536699	 0.109265
H	 0.3166945362	-1.9522061479	 0.5714421724	 0.115803
H	-0.7019515081	-1.0166345036	 1.7621733357	 0.126472
H	-1.121610968	-1.0748627932	-1.3315429764	 0.097251
H	-2.938427244	 0.5881201845	-0.8830855205	 0.106275
H	-4.5939948177	-1.1230019045	-0.1853563188	 0.140921
H	-3.2878118302	-2.1274091265	 0.5048322184	 0.144255
H	-4.0481127511	 0.4249322135	 3.3479506275	 0.231665
70.7732	82.1872	173.8293	238.755	283.1422	412.7642	458.7364	469.3263	489.0451	512.6952	636.041	699.6517	760.8683	792.8426	825.1951	866.9161	903.5689	921.4821	971.7331	985.0057	1008.724	1040.3373	1046.0462	1064.98	1124.1222	1128.4757	1137.1652	1148.3027	1218.6853	1229.0225	1238.7653	1300.5316	1354.8189	1378.2772	1395.9423	1453.6594	1460.956	1490.9104	1831.3705	3065.5145	3089.8539	3130.9202	3134.1169	3146.6693	3165.3303	3219.7008	3480.1116	3772.9634
OC1CC1C1CC(=N)O1	O[C@H]1C[C@H]1[C@H]1C[C]([NH])O1	
InChI=1S/C6H9NO2/c7-6-2-5(9-6)3-1-4(3)8/h3-5,7-8H,1-2H2	InChI=1S/C6H9NO2/c7-6-2-5(9-6)3-1-4(3)8/h3-5,7-8H,1-2H2/t3-,4+,5-/m1/s1
