17
gdb 42072	2.14374	2.12568	1.21068	2.1167	70.54	-0.2542	-0.0052	0.2491	1008.5856	0.137668	-455.128326	-455.120674	-455.11973	-455.160474	28.975	
C	-0.0071219431	 1.4057528598	 0.010812486	-0.014509
O	 1.299811742	 1.9224488836	-0.0953258554	-0.209097
C	 2.0707113961	 1.7061022588	 1.0332577096	 0.103288
N	 3.0446994435	 0.9214116653	 1.1177592567	-0.202571
C	 3.4207031558	 0.0611950515	-0.0029501859	-0.159712
C	 2.5572671635	-1.2354481489	-0.0691574076	-0.159708
N	 1.5946421134	-1.2051786145	-1.169076239	-0.202624
C	 0.4967690639	-0.6114241026	-1.0521604418	 0.103314
O	 0.0241308597	-0.0006274437	 0.0959823726	-0.20902
H	-0.5098163531	 1.7492754747	 0.9219291449	 0.121393
H	-0.5379580177	 1.7494835101	-0.8841254843	 0.121392
H	 1.7683025973	 2.3134548	 1.8897756182	 0.118194
H	 3.3537989176	 0.577387551	-0.9664237178	 0.124005
H	 4.463538286	-0.2230938157	 0.157421663	 0.111726
H	 3.2188732369	-2.0847885983	-0.2560800596	 0.11172
H	 2.076199702	-1.3872385452	 0.9028182285	 0.12401
H	-0.1986264041	-0.5547018059	-1.8930851483	 0.1182
115.9296	168.3365	180.7073	247.205	315.9379	334.3473	390.7686	468.9789	620.8173	630.2269	679.2745	698.4725	836.8535	902.1612	928.5357	951.5831	977.7062	1001.6287	1013.3856	1018.5463	1076.666	1091.1106	1126.0669	1185.6288	1242.9216	1294.5735	1305.5985	1360.8681	1367.3575	1389.1961	1400.0541	1435.7174	1500.5447	1506.4791	1509.334	1762.2264	1769.5237	3031.2605	3046.834	3047.2354	3090.2682	3090.8761	3101.4115	3107.7037	3108.3328
C1OC=NCCN=CO1	C1OC=NCCN=CO1	
InChI=1S/C5H8N2O2/c1-2-7-4-9-5-8-3-6-1/h3-4H,1-2,5H2/b6-3-,7-4-	InChI=1S/C5H8N2O2/c1-2-7-4-9-5-8-3-6-1/h3-4H,1-2,5H2/b6-3-,7-4-
