21
gdb 104489	2.58775	1.3725	1.0814	3.1986	83.63	-0.2465	-0.0154	0.2311	1199.7717	0.182037	-387.078334	-387.069393	-387.068449	-387.111815	34.114	
C	-0.5045308453	 1.3570156419	 0.0983208675	-0.384096
C	 0.2145505755	 0.0171430455	-0.1087617972	-0.276182
C	 0.8061846217	-0.5436687369	 1.1723866489	 0.250529
C	 2.0180996462	 0.1637857643	 1.6704223989	 0.126551
O	 2.5562715761	 1.0935022035	 1.119364037	-0.283006
C	-0.0117217987	-1.1068473578	 2.3313834751	-0.098203
C	-1.2565252502	-1.8471707536	 1.8194122586	-0.246573
C	-0.3250850024	-2.8066507165	 1.0115959122	-0.247748
C	 0.8896483076	-2.0294843705	 1.5322323487	-0.109615
H	 0.1885355095	 2.113249608	 0.4741491418	 0.140896
H	-0.92379844	 1.7213063975	-0.8445967377	 0.110209
H	-1.3269490622	 1.2602763951	 0.8153802882	 0.111107
H	-0.4745967378	-0.7037872922	-0.5572895605	 0.096617
H	 1.0322053829	 0.1531812147	-0.8247896262	 0.114066
H	 2.4233830743	-0.2439836893	 2.6271042677	 0.066449
H	 0.1180404093	-0.7274944642	 3.3387347431	 0.093462
H	-1.7855212249	-2.3666449514	 2.6209253034	 0.1118
H	-1.9798527905	-1.2535515966	 1.2543184813	 0.109263
H	-0.3511356731	-3.8252167063	 1.4047298489	 0.111425
H	-0.4572231963	-2.8524158395	-0.072760542	 0.108424
H	 1.8376309783	-2.4733359257	 1.8145705323	 0.094627
92.112	115.5935	176.3086	214.6158	223.738	274.988	308.8901	322.2181	413.368	484.8822	551.0982	709.3614	752.5705	785.4795	796.7312	833.3028	853.4045	936.5263	963.9792	970.5792	996.2071	1006.4328	1024.3032	1051.453	1082.3944	1095.566	1108.1735	1111.8312	1189.2059	1219.1947	1241.7763	1259.8723	1289.3711	1293.3847	1329.5761	1363.9325	1384.9248	1403.7993	1445.2506	1472.21	1483.8919	1495.3323	1504.813	1512.4798	1812.8044	2845.4823	3038.3997	3049.1797	3059.5547	3066.0667	3084.8401	3102.9954	3104.3095	3121.9375	3129.9134	3166.9111	3177.3979
CCC1(C=O)C2CCC12	CC[C@@]1(C=O)[C@H]2CC[C@@H]12	
InChI=1S/C8H12O/c1-2-8(5-9)6-3-4-7(6)8/h5-7H,2-4H2,1H3	InChI=1S/C8H12O/c1-2-8(5-9)6-3-4-7(6)8/h5-7H,2-4H2,1H3/t6-,7+,8+
