23
gdb 84012	2.03576	1.63246	1.36668	1.3436	85.24	-0.2351	0.0823	0.3175	1135.7526	0.20671	-388.289788	-388.280695	-388.279751	-388.323078	35.497	
C	-0.3233263014	 1.4698848091	-0.1510529314	-0.421458
C	-0.0402924011	-0.0113838037	-0.0223433208	-0.072783
C	 1.3319504159	-0.5853653193	-0.3188378077	 0.04022
O	 2.3595401769	 0.3093878817	-0.6337418613	-0.252976
C	 3.2864128132	 0.5199197128	 0.4245847906	-0.064084
C	 2.5903433422	 1.1464025886	 1.6285008135	-0.219288
C	 1.4877693014	 0.2085275731	 2.1611192811	-0.267918
C	 0.7894919843	-0.6350412267	 1.0926255181	 0.276955
C	 0.3074943612	-1.9804136164	 1.6065957854	-0.459355
H	 0.59962455	 2.0489263208	-0.2110582195	 0.131547
H	-0.8892604187	 1.6678769282	-1.0672757194	 0.116223
H	-0.9166064122	 1.8463135205	 0.6897922968	 0.110207
H	-0.8669261946	-0.6412481137	-0.3433429536	 0.07515
H	 1.3995309828	-1.5147510333	-0.8841936264	 0.078982
H	 3.7690836108	-0.4299219155	 0.7074620003	 0.085546
H	 4.0561998723	 1.1821221052	 0.0179947975	 0.104487
H	 3.3195361568	 1.349146128	 2.4209862665	 0.094128
H	 2.1760097891	 2.112796032	 1.3245355356	 0.109667
H	 1.9538083545	-0.4934538181	 2.8640749129	 0.097163
H	 0.7526512359	 0.7745136026	 2.7465112707	 0.099307
H	-0.4385157616	-1.8527611402	 2.4007813134	 0.11463
H	-0.1573101563	-2.5725274634	 0.811963495	 0.112519
H	 1.1353706485	-2.5685714221	 2.0206558226	 0.111131
93.4709	148.0974	194.4929	203.5454	229.691	252.4902	328.7135	352.6868	437.1403	460.0203	488.2548	574.2889	591.3987	696.3337	787.6963	822.149	882.3153	882.9281	919.9779	957.6753	978.9343	1026.1061	1046.2478	1057.9903	1084.2167	1091.5098	1115.2623	1144.7301	1156.9027	1179.3373	1210.6271	1249.2926	1266.9	1304.2527	1333.5221	1354.182	1370.0079	1375.9902	1406.0225	1414.5282	1416.1728	1448.0612	1478.9904	1489.517	1493.2528	1496.5545	1502.6875	1508.4802	1510.0192	2973.4374	3013.9152	3018.9276	3035.1472	3042.3382	3047.9334	3074.8538	3083.1288	3088.4578	3090.0878	3092.787	3096.7961	3123.8923	3139.8731
CC1C2OCCCC12C	C[C@H]1[C@H]2OCCC[C@@]12C	
InChI=1S/C8H14O/c1-6-7-8(6,2)4-3-5-9-7/h6-7H,3-5H2,1-2H3	InChI=1S/C8H14O/c1-6-7-8(6,2)4-3-5-9-7/h6-7H,3-5H2,1-2H3/t6-,7+,8-/m0/s1
