21
gdb 94590	3.02848	0.97486	0.8633	3.4991	79.59	-0.237	-0.0077	0.2293	1434.078	0.180334	-424.233392	-424.223321	-424.222377	-424.270011	35.636	
C	-0.4878976047	 1.2758882707	-0.1942045864	-0.409855
C	 0.2221232315	-0.0685294626	-0.1246012804	-0.054808
C	 1.7244706423	-0.1019792282	-0.4829718891	-0.077206
O	 2.0740425874	-0.6412370746	 0.8087925691	-0.29343
C	 0.6944247283	-0.6274410372	 1.250412189	 0.140595
C	 0.4936943151	 0.2120354337	 2.5147112178	-0.308393
C	 1.1899324167	-0.4604897502	 3.6992369148	 0.385031
C	 2.6263340528	-0.0552472618	 3.9504423444	-0.482148
O	 0.6182574649	-1.2987345294	 4.3578180222	-0.307069
H	 0.0745775408	 2.0629493483	 0.3177203362	 0.121403
H	-0.6118593095	 1.5859671402	-1.2373250989	 0.120615
H	-1.485223529	 1.2266163261	 0.2550745234	 0.124243
H	-0.3540837304	-0.8161515959	-0.6759364153	 0.086916
H	 2.0138565872	-0.775196331	-1.2983783809	 0.105184
H	 2.1851090648	 0.8802520056	-0.6535216995	 0.098906
H	 0.3451706055	-1.6481932397	 1.4528628253	 0.094955
H	 0.8790110638	 1.2234528524	 2.3549761407	 0.100844
H	-0.5767182874	 0.2607045433	 2.7376596332	 0.121896
H	 2.6743778787	 1.0054218081	 4.2249381683	 0.132495
H	 3.0574749686	-0.6607099539	 4.7485574512	 0.135026
H	 3.1958449529	-0.1707928937	 3.0217370448	 0.164802
29.7275	55.4988	81.2163	133.3841	181.3178	200.0494	237.8626	345.0122	355.8951	418.5045	462.1793	540.5225	590.0736	731.1779	802.3307	824.182	884.6144	901.2862	920.8556	933.1446	1011.5178	1027.5783	1031.6208	1065.8466	1123.2891	1137.2511	1158.1747	1175.2881	1189.7226	1239.2941	1261.7778	1293.0167	1305.678	1357.5747	1379.7716	1383.2212	1387.7578	1416.4615	1459.2688	1472.3391	1475.1142	1496.7026	1500.6509	1528.0329	1812.2789	3008.0053	3020.4302	3032.7976	3033.6034	3051.1406	3052.3901	3072.9414	3097.9496	3098.3668	3105.4934	3113.0035	3153.4202
CC1COC1CC(C)=O	C[C@H]1CO[C@H]1CC(=O)C	
InChI=1S/C7H12O2/c1-5-4-9-7(5)3-6(2)8/h5,7H,3-4H2,1-2H3	InChI=1S/C7H12O2/c1-5-4-9-7(5)3-6(2)8/h5,7H,3-4H2,1-2H3/t5-,7-/m0/s1
