25
gdb 72402	2.78958	1.40055	1.3026	0.0056	91.41	-0.2781	0.0737	0.3518	1169.4717	0.231348	-352.398799	-352.390136	-352.389192	-352.43105	36.142	
C	 0.0171119716	 1.4953264956	 0.022380371	-0.481629
C	 0.0022258357	-0.0250857736	 0.0028378724	 0.337662
C	 0.637062932	-0.6555732597	-1.2644030036	-0.240493
C	 0.0773286107	-2.1099485187	-1.2744467664	-0.240481
C	-0.8223153872	-2.167357456	-0.0119887965	 0.337663
C	-1.8306956002	-3.3055252187	-0.0109904657	-0.48163
C	 0.1165269728	-2.1423442685	 1.222665474	-0.240493
C	 0.6763254396	-0.6879913817	 1.2327163322	-0.240482
C	-1.3765941326	-0.7243426813	 0.0154345867	-0.27106
H	 1.0428023334	 1.8827715483	 0.0116815155	 0.10976
H	-0.5002896958	 1.9102941304	-0.850047155	 0.107584
H	-0.4731085353	 1.8872421174	 0.9207790342	 0.107587
H	 0.3240540066	-0.1072531169	-2.1594276413	 0.088249
H	 1.7306664321	-0.6175018615	-1.2318889767	 0.088903
H	-0.5183086763	-2.2961787177	-2.1745754662	 0.088249
H	 0.8630923663	-2.8717353365	-1.247374308	 0.088904
H	-1.3293994757	-4.280472157	-0.0321945649	 0.10976
H	-2.4607490424	-3.2791285655	 0.8853171725	 0.107583
H	-2.4893203475	-3.2553109047	-0.8854770179	 0.107589
H	-0.450675459	-2.3520104057	 2.135912213	 0.088248
H	 0.900719259	-2.9028850547	 1.1512759095	 0.088903
H	 1.76838002	-0.6486894143	 1.1667786481	 0.088904
H	 0.3919035448	-0.1631728578	 2.15106656	 0.08825
H	-1.9601648819	-0.5059560205	 0.9173347459	 0.081236
H	-1.9881220906	-0.4829151304	-0.8617301231	 0.081235
156.0859	223.9993	225.9866	232.4124	274.9433	286.2204	358.0542	410.2682	411.2413	465.8858	551.1156	558.1512	604.0903	766.9282	793.4279	803.1671	853.5279	903.1055	904.6545	906.5188	927.3461	963.0664	968.622	989.1276	1005.7743	1020.4803	1080.4604	1085.3914	1117.5482	1157.0579	1176.3398	1197.6257	1222.8587	1243.5088	1261.9837	1283.4371	1284.8733	1292.4892	1293.9562	1315.7875	1350.6427	1371.3638	1412.4349	1413.5093	1480.0173	1490.0374	1493.7827	1494.6656	1494.884	1497.3545	1500.331	1502.035	1527.2766	3018.5373	3018.5933	3028.5333	3030.2877	3033.2512	3041.2063	3048.1111	3063.9268	3068.5609	3075.0172	3082.2223	3082.5999	3083.4122	3087.5871	3090.3101	3092.1576
CC12CCC(C)(CC1)C2	C[C@@]12CC[C@@](C)(CC1)C2	
InChI=1S/C9H16/c1-8-3-5-9(2,7-8)6-4-8/h3-7H2,1-2H3	InChI=1S/C9H16/c1-8-3-5-9(2,7-8)6-4-8/h3-7H2,1-2H3/t8-,9+
