20
gdb 46392	3.48781	0.94176	0.81719	3.3741	80.23	-0.2447	0.0362	0.2809	1446.1756	0.17154	-403.159093	-403.150149	-403.149205	-403.193655	32.956	
O	 0.213175945	 0.0657271422	-0.2304579572	-0.366116
C	 0.1070754666	 1.2593008191	-0.1187865124	 0.429224
N	-0.9704426097	 2.1097678129	-0.1602353527	-0.320601
C	-0.216805739	 3.3281980941	 0.1481731137	-0.19058
C	 1.0697541693	 2.4456532371	 0.1604224182	-0.132501
C	 1.8717239728	 2.3526209852	 1.4584113782	-0.241698
C	 2.9427328548	 1.2830451518	 1.38906901	 0.039295
C	 4.3102314264	 1.6141618548	 0.8432639894	-0.257828
C	 4.1285556648	 1.332756001	 2.3155947602	-0.283067
H	-1.9597363639	 1.930286226	-0.2477315302	 0.249255
H	-0.2610528597	 4.0944972981	-0.6319739588	 0.111543
H	-0.4674452717	 3.7752239088	 1.11647024	 0.110923
H	 1.730909222	 2.641038317	-0.688720464	 0.103735
H	 2.3340838872	 3.3254627386	 1.6724009505	 0.093381
H	 1.1866070804	 2.143397549	 2.2915385326	 0.101132
H	 2.5587164255	 0.2977445991	 1.1434514577	 0.116854
H	 4.8179684444	 0.8746467788	 0.2342225577	 0.114194
H	 4.5063324862	 2.6406123594	 0.5481145533	 0.104125
H	 4.2017065341	 2.1705519092	 3.002115224	 0.105855
H	 4.5114128945	 0.4000161778	 2.7146275698	 0.112875
68.6287	78.233	97.5236	151.6614	210.2098	297.6064	343.3417	405.8197	469.1293	495.5054	711.5842	758.9196	773.7994	806.148	816.7504	845.0281	880.9955	928.2251	954.2802	982.2552	994.6279	1055.7143	1075.167	1078.7931	1121.2682	1140.9711	1154.3743	1165.1378	1175.8807	1200.6237	1210.8816	1231.6184	1260.1321	1283.5583	1319.2378	1366.505	1395.0524	1420.2173	1469.9016	1485.922	1508.464	1526.2571	1882.6119	3006.0018	3035.4278	3040.8857	3074.6699	3087.5006	3125.4679	3130.9154	3164.2639	3204.3356	3219.8362	3609.3957
O=C1NCC1CC1CC1	O=C1NC[C@H]1CC1CC1	
InChI=1S/C7H11NO/c9-7-6(4-8-7)3-5-1-2-5/h5-6H,1-4H2,(H,8,9)	InChI=1S/C7H11NO/c9-7-6(4-8-7)3-5-1-2-5/h5-6H,1-4H2,(H,8,9)/t6-/m1/s1
