17
gdb 69528	2.43446	1.66233	1.31015	2.1229	67.79	-0.2207	0.0544	0.2751	1020.6479	0.132435	-458.873481	-458.864731	-458.863787	-458.906172	33.807	
C	-0.0364967117	 1.5210906627	 0.0626977604	-0.506859
C	 0.1234853762	 0.0386436919	 0.0178962654	 0.360058
O	-0.8012771676	-0.8083783008	 0.7267523499	-0.281503
C	 0.6121482377	-0.9569820638	 0.9685616459	-0.150633
C	 1.2575555583	-1.8019000403	-0.1850164626	 0.307747
O	 2.4555706709	-2.4742550506	-0.0772861639	-0.445655
C	 0.2265413989	-2.2052746749	-1.2057799649	-0.38449
C	 0.7388509438	-0.7796909276	-1.1858482349	 0.209969
O	 1.412817521	-0.1688845585	-2.2248168728	-0.451075
H	 0.8658468527	 2.0100985314	-0.3163668404	 0.136512
H	-0.8785428469	 1.8428380472	-0.5608468587	 0.128662
H	-0.2224172058	 1.8555555793	 1.0866031768	 0.134585
H	 0.965686652	-0.8742899452	 1.9911892965	 0.104227
H	 3.1662276679	-1.826865183	-0.0063983476	 0.293209
H	 0.6707701355	-2.7897171225	-2.0067893108	 0.119225
H	-0.7901231177	-2.457829214	-0.9309510564	 0.133558
H	 0.8186871749	-0.1028710213	-2.9808350017	 0.292463
145.8381	158.3131	181.8228	215.3465	285.5955	307.1505	341.3487	364.6179	421.1134	440.9189	514.7437	553.7474	580.918	656.1176	763.3997	776.0414	824.9988	869.8854	880.4256	973.8189	985.0859	1010.8517	1061.8973	1095.8417	1110.3353	1134.9272	1184.7371	1234.3616	1275.9775	1300.6349	1362.8833	1400.7323	1404.3497	1462.266	1482.6817	1491.2866	1509.4794	3035.073	3098.8903	3125.5032	3131.6822	3171.2766	3230.036	3785.5101	3789.5775
CC12OC1C1(O)CC21O	C[C@]12O[C@H]1[C@@]1(O)C[C@@]21O	
InChI=1S/C6H8O3/c1-4-3(9-4)5(7)2-6(4,5)8/h3,7-8H,2H2,1H3	InChI=1S/C6H8O3/c1-4-3(9-4)5(7)2-6(4,5)8/h3,7-8H,2H2,1H3/t3-,4+,5+,6-/m1/s1
