23
gdb 74807	3.33949	1.19595	1.03169	0.3086	92.7	-0.2113	0.0285	0.2398	1288.3553	0.206651	-351.176672	-351.167746	-351.166802	-351.209526	35.757	
C	 0.0517295305	 1.5414111249	-0.0137552462	-0.477406
C	-0.0319779183	 0.0408483629	-0.0143565498	 0.299947
C	 0.0346012755	-0.6889090066	-1.133317672	-0.137449
C	-0.001613103	-2.1714836724	-1.1481567412	-0.093529
C	 0.9939025219	-2.9568802842	-0.2965659539	-0.331084
C	-0.4541794436	-2.8904954202	 0.1085981194	 0.3428
C	-1.2853573709	-4.1480359535	-0.0490298882	-0.46335
C	-0.8889350878	-1.9953673175	 1.259136883	-0.260239
C	-0.1646099735	-0.639046499	 1.3317422453	-0.324383
H	 0.8952215465	 1.8940900235	 0.5953045171	 0.118412
H	 0.1763045623	 1.9409459577	-1.0241441266	 0.116684
H	-0.8506331662	 1.9903168969	 0.4226505448	 0.117967
H	 0.1402126124	-0.1897434755	-2.0940378987	 0.073334
H	-0.272235179	-2.6241153418	-2.0975938657	 0.074142
H	 1.3653130626	-3.8980861205	-0.6893318866	 0.103309
H	 1.7322071897	-2.3816268922	 0.2512091374	 0.110481
H	-0.9633162087	-4.7335402676	-0.9160203338	 0.1104
H	-1.2014132203	-4.7914350024	 0.8354818298	 0.112481
H	-2.3466381393	-3.9069472358	-0.1832043228	 0.113573
H	-1.9649035995	-1.8076105491	 1.1412807852	 0.097064
H	-0.7734878874	-2.5256436581	 2.2128740463	 0.09265
H	 0.8328444342	-0.7667368866	 1.7763439374	 0.108697
H	-0.7036350579	 0.0156747271	 2.0278696198	 0.0955
111.2758	178.025	200.5277	225.2695	261.1681	305.9116	341.7342	370.1613	379.6898	444.1255	485.8697	574.1557	651.3751	689.5442	759.2764	829.659	843.0825	874.9758	906.108	926.6068	960.3058	985.6704	1022.4644	1039.7758	1049.0835	1056.0806	1070.3031	1101.686	1113.9778	1125.2357	1182.7702	1221.8866	1243.8874	1270.0433	1314.5281	1349.4036	1364.2025	1396.707	1412.4648	1414.2558	1421.452	1475.6658	1480.8445	1483.016	1489.5102	1491.9925	1496.5758	1508.7968	1730.3062	2999.5119	3007.1092	3008.1211	3017.9886	3039.9408	3047.5886	3049.6028	3076.2645	3094.9635	3105.1393	3127.0376	3138.5401	3152.9757	3213.2761
CC1=CC2CC2(C)CC1	CC1=C[C@H]2C[C@@]2(C)CC1	
InChI=1S/C9H14/c1-7-3-4-9(2)6-8(9)5-7/h5,8H,3-4,6H2,1-2H3	InChI=1S/C9H14/c1-7-3-4-9(2)6-8(9)5-7/h5,8H,3-4,6H2,1-2H3/t8-,9+/m0/s1
