21
gdb 40413	3.33348	1.26984	1.13023	0.2314	87.78	-0.22	0.0219	0.2419	1181.4659	0.184085	-349.938972	-349.931074	-349.93013	-349.97143	32.037	
C	-0.0333289668	 1.5080575649	-0.1159055235	-0.273053
C	 1.3133974868	 0.8314122198	-0.0354267779	-0.276061
C	 0.0484161759	 0.0084004891	 0.0318479085	-0.081184
C	-0.381362175	-0.6757983136	 1.2922231098	 0.362007
C	-0.36218523	-2.1937091029	 1.3753285917	-0.328641
C	-1.6831024704	-1.4663984289	 1.4110433953	-0.087193
C	-2.3043600715	-1.158503974	 2.7722013124	-0.277013
C	-1.2607036424	-0.288541607	 3.441913774	-0.084179
C	-0.2407310056	-0.0106986891	 2.6271137993	-0.161863
H	-0.3641452386	 2.0761649769	 0.747293981	 0.114975
H	-0.3506811278	 1.919434814	-1.0678817231	 0.107511
H	 1.9161662082	 0.770436754	-0.9349832914	 0.108101
H	 1.8929092781	 0.9578566187	 0.8728133923	 0.11137
H	-0.1771401317	-0.5653510788	-0.8634452421	 0.074468
H	-0.1300215372	-2.737342721	 0.4641602621	 0.104472
H	 0.0144288347	-2.6538399467	 2.283675651	 0.106832
H	-2.3352939657	-1.5697883149	 0.5511645412	 0.081646
H	-3.2613446246	-0.6285721881	 2.6707548142	 0.105833
H	-2.5169849884	-2.0669568136	 3.3514083751	 0.107488
H	-1.3422476775	 0.032765361	 4.4743880427	 0.091125
H	 0.6216546296	 0.5907259302	 2.8932679075	 0.093361
67.7871	153.1629	184.3082	282.5787	348.2181	358.5605	447.0579	505.5338	590.3254	714.8912	746.7913	765.4288	788.2054	809.5396	826.9387	883.9537	899.0756	920.9024	935.4414	949.265	965.415	975.2016	1026.6634	1044.2747	1058.9879	1069.643	1072.3314	1075.6582	1093.6208	1135.0369	1136.8447	1191.3622	1197.9657	1218.3984	1244.238	1283.287	1314.9317	1345.0564	1396.5898	1429.5796	1468.9923	1472.6281	1483.8808	1506.8552	1670.4795	3010.7347	3037.1139	3114.5055	3129.9113	3132.1503	3136.6665	3170.7925	3179.1911	3202.9137	3204.4892	3207.4422	3222.1379
C1CC1C12CC1CC=C2	C1CC1[C@]12C[C@H]1CC=C2	
InChI=1S/C9H12/c1-2-8-6-9(8,5-1)7-3-4-7/h1,5,7-8H,2-4,6H2	InChI=1S/C9H12/c1-2-8-6-9(8,5-1)7-3-4-7/h1,5,7-8H,2-4,6H2/t8-,9+/m1/s1
