13
gdb 56385	2.06682	1.53649	1.2785	4.8103	62.7	-0.3052	-0.0446	0.2606	1031.1319	0.086303	-452.711323	-452.702299	-452.701355	-452.745571	30.852	
O	 0.0602423695	 1.4963135759	-0.1319659641	-0.421141
C	 0.0120490057	 0.0912473774	 0.0383374697	 0.036811
C	-1.4135331303	-0.2905188801	 0.0989910184	 0.34689
N	-2.5272120738	-0.581219209	 0.1746896788	-0.320422
C	 0.6482984644	-0.5970945725	-1.1109712435	 0.27048
N	 1.2165837685	-1.0783787827	-1.9934371004	-0.305393
C	 0.7483261603	-0.3199723315	 1.3276470844	 0.067274
C	 0.0555540061	-0.491417118	 2.605816889	-0.189257
O	 0.4952534645	-1.61467765	 1.8256056325	-0.213125
H	 0.9325206348	 1.733759849	-0.4695449853	 0.312451
H	 1.7940145575	-0.0096109288	 1.3113761959	 0.120025
H	 0.6090324985	-0.3215983845	 3.526549924	 0.139025
H	-1.0219073655	-0.3609556951	 2.6614873907	 0.156382
64.7937	126.5026	138.8932	152.0932	164.3333	243.9677	261.8534	359.0138	429.0426	510.8283	529.8963	573.2476	651.1671	673.8504	867.7133	910.2176	975.1078	1036.0532	1074.5542	1108.266	1127.6179	1164.012	1170.8599	1289.6573	1361.2671	1427.5936	1524.4652	2362.0546	2379.6841	3104.4656	3111.021	3205.1325	3803.5141
OC(C#N)(C#N)C1CO1	OC(C#N)(C#N)[C@H]1CO1	
InChI=1S/C5H4N2O2/c6-2-5(8,3-7)4-1-9-4/h4,8H,1H2	InChI=1S/C5H4N2O2/c6-2-5(8,3-7)4-1-9-4/h4,8H,1H2/t4-/m1/s1
