16
gdb 55909	3.56725	0.89195	0.75811	2.2545	67.64	-0.2512	-0.0216	0.2296	1437.8891	0.122412	-475.05755	-475.04837	-475.047426	-475.09338	32.357	
N	-0.1308424804	 1.2863440448	 0.0436320731	-0.566113
C	 0.0543994313	-0.0577019928	 0.1651923934	 0.502632
O	 1.0001989768	-0.6011047035	 0.6794868602	-0.38785
O	-1.018466476	-0.7143834284	-0.3730328641	-0.267468
C	-0.9802852166	-2.1176463496	-0.2406174125	 0.145286
C	-1.8817040724	-2.7609859132	 0.7454900163	-0.32297
C	-2.1927335202	-2.8578855649	-0.7559108466	-0.162177
C	-3.3661052796	-2.1044026473	-1.2636318567	 0.174867
O	-4.0619365308	-2.4751786081	-2.176172512	-0.268123
H	 0.6705874777	 1.8669596951	 0.2199915273	 0.274001
H	-0.8436764401	 1.6311364225	-0.5762513431	 0.26987
H	-0.0011516888	-2.5413997424	-0.4257312576	 0.138613
H	-1.5554284315	-3.6589270238	 1.2561600422	 0.139558
H	-2.5260042905	-2.1061401168	 1.3230295334	 0.136481
H	-2.0178786499	-3.8011958587	-1.2606916279	 0.116608
H	-3.5756884489	-1.1548958028	-0.7246259154	 0.076783
18.6398	79.3478	102.0454	148.4349	244.1252	278.5175	328.5886	401.7048	425.6698	492.3615	526.5394	542.2935	649.3626	777.6364	814.8638	841.0772	877.727	898.7801	1004.6519	1043.1394	1052.3159	1063.0451	1110.8059	1126.2138	1163.8418	1181.806	1229.5277	1327.2274	1349.967	1412.0352	1443.1847	1479.8577	1612.6851	1820.2981	1847.6729	2895.1839	3140.5569	3183.7924	3197.3123	3235.1668	3617.248	3747.2717
NC(=O)OC1CC1C=O	NC(=O)O[C@H]1C[C@H]1C=O	
InChI=1S/C5H7NO3/c6-5(8)9-4-1-3(4)2-7/h2-4H,1H2,(H2,6,8)	InChI=1S/C5H7NO3/c6-5(8)9-4-1-3(4)2-7/h2-4H,1H2,(H2,6,8)/t3-,4-/m0/s1
