16
gdb 29986	3.43805	1.67216	1.13304	2.0184	78.02	-0.184	0.024	0.2079	1026.7698	0.128074	-396.977379	-396.970039	-396.969095	-397.009127	28.109	
C	-0.0091646031	 1.4648525759	-0.013835814	-0.34539
N	-0.0149177002	 0.0208572202	 0.0283362209	-0.144741
C	-0.0764147263	-0.8336653233	-1.0531949645	-0.024358
N	-0.0690047917	-2.1165914212	-0.7345699928	-0.380342
C	 0.0019287651	-2.0801151408	 0.625783048	 0.342383
C	 0.0372876485	-0.7946232755	 1.1435689024	 0.3043
C	 0.1054723622	-0.8709130569	 2.5606159534	-0.327374
C	 0.1088052988	-2.2250662516	 2.8430739191	-0.05858
N	 0.0470482643	-2.9638427883	 1.6729540843	-0.385402
H	 0.9059930913	 1.8673112334	 0.4336893458	 0.140889
H	-0.0600106134	 1.7917545485	-1.0545405268	 0.141032
H	-0.8700025706	 1.877024882	 0.5236377406	 0.140893
H	-0.1244856093	-0.444760584	-2.0601072404	 0.121318
H	 0.1480939326	-0.0783608045	 3.2902798273	 0.093817
H	 0.1530266861	-2.7238596995	 3.7980016191	 0.11706
H	 0.0362923857	-3.9661054743	 1.6125204674	 0.264495
107.6714	153.1941	229.115	253.7022	348.7582	401.869	533.9657	597.3169	621.5047	622.1691	684.6156	711.1817	757.463	779.8841	791.7448	815.3867	929.7688	1057.4985	1064.8457	1091.2375	1153.7214	1156.304	1236.4473	1255.6557	1316.4707	1350.7847	1394.1174	1448.5041	1479.382	1480.5836	1495.3107	1513.4174	1522.2726	1552.9867	1603.1043	3030.368	3086.1319	3130.8953	3243.6623	3251.6532	3270.6879	3692.7684
CN1C=NC2=C1C=CN2	Cn1cnc2c1cc[nH]2	
InChI=1S/C6H7N3/c1-9-4-8-6-5(9)2-3-7-6/h2-4,7H,1H3	InChI=1S/C6H7N3/c1-9-4-8-6-5(9)2-3-7-6/h2-4,7H,1H3
