18
gdb 74558	2.4684	1.58327	1.25842	1.5859	83.35	-0.2142	0.0094	0.2236	1073.6716	0.146941	-364.763299	-364.754996	-364.754051	-364.795936	32.196	
C	-0.096679041	 1.5164825877	 0.0415985676	-0.493457
C	-0.0748956499	 0.0240669579	-0.0106186861	 0.324081
C	-0.0277404254	-0.771283306	-1.0828176796	-0.189091
C	 0.0482656465	-2.1959838445	-0.6696342856	-0.070737
C	 1.2572206645	-2.6284953459	 0.1245352634	-0.218807
C	 2.4486403257	-1.8368866497	 0.2108789226	 0.375744
C	 3.4682386631	-1.2088606931	 0.3308238064	-0.474034
N	-0.0065815294	-2.2365904061	 0.8047369288	-0.12542
C	-0.0680801884	-0.8251396353	 1.2471580565	-0.258389
H	 0.8006976567	 1.9041602987	 0.5399736771	 0.133896
H	-0.14396498	 1.9550041504	-0.9584472454	 0.127309
H	-0.9567397326	 1.8808353209	 0.6177645656	 0.1269
H	-0.0223892265	-0.450942121	-2.1171518057	 0.096704
H	-0.5039171504	-2.9587111317	-1.2141905014	 0.097064
H	 1.4322783423	-3.6996743854	 0.2048745141	 0.1147
H	 4.3702672099	-0.655096399	 0.4153534441	 0.19792
H	 0.7817590568	-0.589237857	 1.9003665075	 0.123886
H	-0.9810810517	-0.684457921	 1.84125609	 0.111733
94.9052	142.9409	179.1366	202.47	306.3797	357.3706	366.3443	444.0421	571.3117	586.9574	608.7348	624.3281	657.0537	726.1538	780.4719	803.5259	849.7056	888.5186	912.6155	977.6325	991.5122	1026.9954	1040.4067	1077.2067	1092.2901	1119.8658	1202.3322	1216.2962	1260.6979	1289.3312	1346.7678	1357.4245	1368.5082	1413.1479	1479.6245	1482.265	1487.9098	1711.1675	2229.0909	3011.129	3019.8804	3047.6847	3065.9992	3114.2327	3119.8521	3132.344	3211.8638	3503.2586
CC1=CC2C(C#C)N2C1	CC1=C[C@H]2[C@@H](C#C)N2C1	
InChI=1S/C8H9N/c1-3-7-8-4-6(2)5-9(7)8/h1,4,7-8H,5H2,2H3	InChI=1S/C8H9N/c1-3-7-8-4-6(2)5-9(7)8/h1,4,7-8H,5H2,2H3/t7-,8+,9?/m1/s1
