20
gdb 14059	3.21065	1.58615	1.43505	1.3391	75.45	-0.2403	0.0677	0.308	998.282	0.176354	-348.97707	-348.968446	-348.967502	-349.010015	32.324	
C	-0.0703567791	 1.543307371	-0.2970065796	-0.403843
C	 0.0225890946	 0.042350062	-0.1288824312	-0.115551
C	 1.3598806279	-0.6516066067	-0.0838565015	 0.017528
O	 2.4948866694	 0.1579172941	-0.205333139	-0.414205
C	 0.5134506104	-0.566157252	 1.1613946543	 0.323958
C	 0.948257466	 0.1411865212	 2.4513552698	-0.287624
C	 0.6644568552	-1.1853691066	 3.2190420371	-0.20274
C	-0.0466579402	-1.7539965587	 1.9542820564	-0.29965
H	 0.7952020762	 2.0422594625	 0.1433226922	 0.132049
H	-0.1038461437	 1.8166816376	-1.3570281873	 0.116722
H	-0.9755181534	 1.9367546287	 0.1786722414	 0.109365
H	-0.7618256639	-0.5198495129	-0.6325663859	 0.079288
H	 1.4416227886	-1.6247554953	-0.5720657909	 0.076763
H	 3.1781070119	-0.1960924859	 0.373739937	 0.286802
H	 1.974963884	 0.518380729	 2.4774138503	 0.088892
H	 0.2811824445	 0.9580242706	 2.744385804	 0.102386
H	 1.5792303324	-1.7300914665	 3.4663324888	 0.098844
H	 0.0584581079	-1.1042680126	 4.12390297	 0.098565
H	-1.1385384111	-1.7361678858	 2.036844446	 0.098759
H	 0.2558143023	-2.7529821437	 1.6248400182	 0.093693
76.456	156.1399	161.5651	183.6972	237.0401	249.6545	293.8701	409.0697	480.9798	571.7254	587.6879	713.7045	778.2346	803.984	850.6541	871.6249	936.9448	946.2055	952.0367	1000.9481	1049.6498	1077.9147	1097.0972	1141.6704	1152.5695	1173.3472	1190.1916	1220.7823	1224.0469	1252.4694	1267.8254	1277.5588	1294.4167	1328.1976	1366.8995	1412.5613	1466.8726	1480.7655	1483.8028	1493.3905	1505.0728	1508.4123	3034.0907	3037.3703	3044.8119	3063.5439	3073.9681	3080.6601	3086.5737	3090.031	3116.3473	3118.3671	3134.8179	3802.0547
CC1C(O)C11CCC1	C[C@H]1[C@@H](O)C21CCC2	
InChI=1S/C7H12O/c1-5-6(8)7(5)3-2-4-7/h5-6,8H,2-4H2,1H3	InChI=1S/C7H12O/c1-5-6(8)7(5)3-2-4-7/h5-6,8H,2-4H2,1H3/t5-,6+/m0/s1
