19
gdb 41486	3.21838	1.59726	1.31751	1.1867	74.11	-0.2438	0.0668	0.3106	1000.0767	0.161566	-422.99171	-422.984632	-422.983688	-423.0232	28.294	
C	-0.1541666062	 1.4538084029	-0.0864581207	-0.16435
O	 1.135060737	 1.690984153	 0.5311031787	-0.298656
C	 1.5262232882	 0.3047948522	 0.3770279114	 0.086658
C	 1.3603557577	-0.5298844622	 1.6608517724	-0.25342
C	-0.1243754801	-0.8115927765	 1.2728805232	-0.083113
C	-0.4702372387	-2.2298848846	 0.8025026175	-0.09655
O	-0.0318424673	-2.3247045107	-0.5538241819	-0.253474
C	-0.2712881133	-1.0560177093	-1.155814389	-0.203062
C	 0.0876231539	-0.0531050311	-0.0847978912	 0.297976
H	-0.986674421	 1.8329727377	 0.5190014732	 0.102168
H	-0.2050232728	 1.9068469305	-1.0870496375	 0.099115
H	 2.4321559416	 0.1937845547	-0.2267386147	 0.074504
H	 1.9798447422	-1.4323925639	 1.6668392005	 0.10538
H	 1.5221972193	 0.0264594643	 2.5864513637	 0.11056
H	-0.8752270326	-0.4029637272	 1.9520937127	 0.073888
H	 0.0306116266	-3.0228651649	 1.3653822645	 0.110769
H	-1.5583493309	-2.3942236337	 0.8630292977	 0.089584
H	 0.3456549977	-0.9935464166	-2.0569427311	 0.113728
H	-1.3303257412	-0.9495458644	-1.4514630093	 0.088295
101.9668	194.3343	241.7659	330.5772	351.2442	401.3172	460.0531	636.9302	693.7012	729.7628	796.3837	849.1018	872.2634	882.8533	933.4536	950.0823	976.3576	999.7827	1011.1076	1038.1093	1081.0048	1092.2574	1131.716	1136.9817	1153.5339	1183.3047	1191.0808	1222.1661	1246.8565	1260.9279	1269.9172	1287.8498	1302.5268	1334.5119	1349.9932	1381.6051	1399.12	1458.9086	1499.9527	1512.7903	1521.8068	2946.9271	2972.4614	2993.4837	3046.346	3049.9177	3063.715	3082.911	3086.4651	3087.3874	3119.5784
C1OC2CC3COCC123	C1O[C@H]2C[C@@H]3COC[C@]123	
InChI=1S/C7H10O2/c1-5-2-8-3-7(5)4-9-6(1)7/h5-6H,1-4H2	InChI=1S/C7H10O2/c1-5-2-8-3-7(5)4-9-6(1)7/h5-6H,1-4H2/t5-,6+,7-/m1/s1
