17
gdb 35534	4.57365	1.0562	0.96262	1.2207	81.35	-0.2457	-0.005	0.2407	1224.4432	0.135857	-384.616718	-384.608981	-384.608036	-384.649023	30.118	
C	-0.0921162483	-1.2397964672	-0.1770236113	-0.457229
C	-0.0410121344	-0.0421954263	-0.0839159115	 0.314586
C	 0.0298040357	 1.4066674117	 0.0454186953	-0.193925
C	-0.5968212367	 1.9492822156	 1.390863726	-0.262912
C	 0.1803533786	 3.2553283235	 1.5988030247	 0.099491
O	 0.9231536425	 3.5399703316	 2.8356357461	-0.306229
C	 2.1715299103	 3.6675842009	 2.0851396596	-0.157303
C	 1.4858122373	 2.999306316	 0.9211368611	 0.185324
C	 1.475909959	 1.9431056753	 0.1211195267	-0.207397
H	-0.1422461923	-2.2968306217	-0.2636462097	 0.196507
H	-0.5053876955	 1.8502232837	-0.807207731	 0.115484
H	-1.6822765578	 2.0604967524	 1.3330414882	 0.106553
H	-0.3536457348	 1.2511182923	 2.1961214935	 0.132945
H	-0.3864309029	 4.1488416093	 1.3043821892	 0.082788
H	 2.4412525685	 4.7229348952	 1.9483074817	 0.110541
H	 3.0043958162	 3.1306895628	 2.550375329	 0.12461
H	 2.3086015646	 1.4217218349	-0.3323783177	 0.116167
81.0219	147.1991	202.4143	273.7409	332.1988	380.3518	476.1018	524.7138	561.1801	619.1683	640.0614	661.7069	764.9864	814.6034	849.3137	865.8833	907.4618	961.2967	984.4101	1004.8203	1014.0281	1040.0823	1057.2364	1125.696	1139.7459	1163.7579	1223.9127	1247.0514	1256.651	1296.3392	1326.269	1345.7411	1357.3612	1479.5587	1508.3784	1747.6425	2235.4519	2991.0045	3008.9071	3017.1025	3068.4059	3078.7913	3125.7545	3221.6431	3505.0967
C#CC1CC2OCC2=C1	C#C[C@H]1C[C@H]2OC[C]2[CH]1	
InChI=1S/C8H8O/c1-2-6-3-7-5-9-8(7)4-6/h1,3,6,8H,4-5H2	InChI=1S/C8H8O/c1-2-6-3-7-5-9-8(7)4-6/h1,3,6,8H,4-5H2/t6-,8-/m1/s1
