23
gdb 56143	3.07551	0.84895	0.78786	1.9747	83.04	-0.2661	0.0187	0.2848	1604.8817	0.201493	-425.483149	-425.471642	-425.470698	-425.520986	40.773	
C	-0.1303209881	 1.4453207635	 0.0116559993	-0.47989
C	 0.07850279	-0.0506586071	 0.0012983888	 0.42999
O	 1.1450724421	-0.6109850849	-0.012050597	-0.349897
O	-1.106220687	-0.6967214208	 0.009061557	-0.249169
C	-1.0427253216	-2.1360174987	 0.0004152704	-0.058902
C	-2.4682063421	-2.6995908746	 0.0111318175	 0.228914
C	-3.2303408091	-2.2282852276	-1.2404418544	-0.401683
C	-2.353571251	-4.2346060706	 0.0021043248	-0.412161
C	-3.2061854162	-2.2413153725	 1.2818725588	-0.401672
H	 0.8367398199	 1.9465004404	 0.0053604201	 0.147753
H	-0.7140134799	 1.7491561168	-0.8619396947	 0.148306
H	-0.6974590278	 1.7392936829	 0.8994127262	 0.148303
H	-0.4934445336	-2.4595405246	-0.8903942777	 0.113604
H	-0.4762949833	-2.4693481347	 0.8767492753	 0.113603
H	-2.7289513397	-2.5612455323	-2.1561931661	 0.108108
H	-4.2467613816	-2.6353360382	-1.2494689627	 0.109603
H	-3.2994149771	-1.1378473472	-1.2713267378	 0.12287
H	-1.8119155961	-4.601342344	 0.8810101385	 0.113471
H	-3.347929954	-4.6926070934	 0.0092947616	 0.114803
H	-1.8289429851	-4.5921850545	-0.8907908324	 0.113469
H	-3.2745064616	-1.1512559393	 1.3253605188	 0.122879
H	-4.2223051969	-2.6484925842	 1.306139937	 0.109595
H	-2.6874068503	-2.5837067041	 2.1843639184	 0.108104
30.7127	49.3249	71.8938	126.5804	179.0843	218.0635	246.5001	253.7267	255.4683	291.1962	328.1345	377.655	407.7509	444.5168	510.7534	606.1699	636.3363	756.5102	913.5566	918.1645	931.3018	942.9076	948.8665	960.8522	993.5844	1049.3785	1063.6474	1072.5426	1077.4043	1228.2034	1244.6059	1265.3124	1291.535	1308.5775	1385.0382	1395.0362	1395.139	1402.9327	1435.1819	1469.8044	1476.1264	1477.7413	1486.104	1490.7142	1494.0806	1504.5685	1509.3726	1521.8624	1824.4028	3024.5859	3028.8504	3032.8497	3040.9864	3056.8124	3082.3663	3091.3656	3094.7867	3096.5961	3101.2915	3115.7354	3119.6196	3121.3955	3169.0498
CC(=O)OCC(C)(C)C	CC(=O)OCC(C)(C)C	
InChI=1S/C7H14O2/c1-6(8)9-5-7(2,3)4/h5H2,1-4H3	InChI=1S/C7H14O2/c1-6(8)9-5-7(2,3)4/h5H2,1-4H3
