17
gdb 35354	3.06245	1.45254	1.20391	2.3071	79.26	-0.2241	0.0205	0.2446	1060.8603	0.137225	-380.818604	-380.810929	-380.809985	-380.850839	29.632	
C	-0.2980039819	-1.2328891527	-0.2106659759	-0.470798
C	-0.2048337963	-0.0396689222	-0.0941146318	 0.364316
C	-0.0544642902	 1.3991548212	 0.0288782573	-0.18435
C	-0.0577681062	 1.9410131895	 1.5170282302	-0.357986
C	 1.4397914214	 2.0374663761	 1.3128789489	 0.370997
N	 2.5555272871	 1.9105198672	 1.8998393705	-0.331061
C	 3.5003210139	 1.6748954578	 0.7670270084	-0.169462
C	 2.6141042305	 1.2545058582	-0.4584457043	-0.199612
N	 1.360168591	 1.9133889177	-0.0747800017	-0.081642
H	-0.3943768484	-2.2862026379	-0.3097431596	 0.208072
H	-0.7276346968	 1.9171173076	-0.6593667167	 0.115099
H	-0.5739514899	 2.8966426848	 1.6203138693	 0.136683
H	-0.3897119458	 1.242229338	 2.2830533702	 0.147005
H	 4.0525919775	 2.5974311091	 0.5482832289	 0.11336
H	 4.2285825062	 0.9080242515	 1.0414112167	 0.114178
H	 3.0005089955	 1.6159795838	-1.4138902829	 0.111528
H	 2.4861269424	 0.1645432101	-0.5106492674	 0.113672
84.7733	139.1092	209.3183	264.6129	284.84	405.1738	495.3868	553.4912	600.2244	633.5761	660.8822	681.6918	762.7294	794.6199	821.1668	861.7673	908.5958	961.598	997.8283	1014.6142	1049.6778	1099.8586	1120.7832	1135.0071	1190.625	1212.2956	1218.0819	1242.7073	1269.3388	1319.8808	1346.0321	1357.1825	1461.2226	1493.9801	1513.2459	1761.9046	2231.2039	3015.2544	3030.3753	3069.0468	3094.3374	3095.6032	3104.233	3166.3485	3500.6252
C#CC1CC2=NCCN12	C#C[C@H]1C[C]2[N]CCN12	
InChI=1S/C7H8N2/c1-2-6-5-7-8-3-4-9(6)7/h1,6H,3-5H2	InChI=1S/C7H8N2/c1-2-6-5-7-8-3-4-9(6)7/h1,6H,3-5H2/t6-/m0/s1
