18
gdb 124596	2.66304	1.34062	1.10817	2.8212	72.82	-0.2197	0.0179	0.2376	1162.6855	0.148569	-435.318668	-435.309801	-435.308856	-435.352864	32.381	
C	-0.0190624189	 1.5502287599	 0.035160395	-0.38823
C	-0.0428072871	 0.019883039	-0.0408939109	 0.031236
C	-1.462328013	-0.5506434742	 0.0471852295	-0.388247
N	 0.6439407503	-0.4587399329	-1.2404289108	-0.116701
C	 0.3347286866	-0.2546026878	-2.5611104497	 0.043839
N	 1.1676204941	-0.8315159667	-3.3713238705	-0.223716
N	 2.0664053578	-1.4435070274	-2.5280338027	-0.315168
C	 1.8015929166	-1.2533985188	-1.1909571367	 0.475591
O	 2.3926278237	-1.6531988285	-0.2078924999	-0.436769
H	 1.0055055682	 1.9277677601	-0.0163806707	 0.135129
H	-0.5931343848	 1.9995111109	-0.7827845846	 0.117239
H	-0.4628979164	 1.8860562413	 0.9767717914	 0.126559
H	 0.5590807846	-0.3889153126	 0.776829698	 0.130936
H	-2.0920726732	-0.1822536041	-0.7702234783	 0.117243
H	-1.4474571628	-1.6428188558	 0.0039854412	 0.135121
H	-1.9299400021	-0.2495619478	 0.9890403901	 0.126569
H	-0.512327111	 0.3250378363	-2.8923107854	 0.148846
H	 2.8335285575	-1.9725441508	-2.903038135	 0.280524
35.9401	110.5699	185.0867	222.1662	228.4787	258.8177	297.8942	399.5931	426.2235	469.6056	574.1409	633.5918	664.1053	753.9517	785.0353	846.0042	887.6274	931.7242	936.6673	952.2143	1061.8512	1120.303	1150.2506	1151.8789	1214.4592	1235.46	1269.2419	1365.6426	1371.7748	1388.9542	1402.8674	1422.4167	1447.353	1483.9609	1489.5964	1501.7911	1507.544	1616.4713	1833.4249	3036.2091	3039.2182	3071.1737	3104.3134	3113.6527	3123.1337	3125.7043	3267.0899	3699.0318
CC(C)N1C=NNC1=O	CC(C)n1cn[nH]c1=O	
InChI=1S/C5H9N3O/c1-4(2)8-3-6-7-5(8)9/h3-4H,1-2H3,(H,7,9)	InChI=1S/C5H9N3O/c1-4(2)8-3-6-7-5(8)9/h3-4H,1-2H3,(H,7,9)
