20
gdb 30686	3.94675	0.96235	0.79923	2.6507	81.72	-0.2049	0.0442	0.2491	1445.9815	0.171659	-403.186614	-403.177382	-403.176438	-403.221122	34.725	
C	 0.2092141218	 1.6668979522	 0.0791377118	-0.384387
C	 0.4016813124	 0.154113238	-0.0426120819	-0.176883
C	 0.5320029634	-0.5433962438	 1.3211057766	 0.007341
O	-0.6035418155	-0.2801643115	 2.1494585117	-0.4274
C	 0.7756434263	-2.0268335378	 1.204938474	 0.25183
C	 0.2584875952	-2.9766412316	 2.0612479407	-0.182078
N	 0.706269194	-4.2073121639	 1.653898165	-0.241644
C	 1.5073345871	-4.067427668	 0.5506216543	-0.0717
C	 1.5698861884	-2.7281564917	 0.2465685778	-0.263703
H	 1.0813602949	 2.1383762699	 0.5461752762	 0.111371
H	 0.065978157	 2.128728222	-0.9024281929	 0.104805
H	-0.6607605175	 1.8947158029	 0.7003243674	 0.127149
H	-0.441919868	-0.2965416719	-0.5835754539	 0.087346
H	 1.2961847145	-0.063742813	-0.6381349533	 0.09752
H	 1.363189136	-0.0714886433	 1.8644667193	 0.094121
H	-1.3447353805	-0.7583517956	 1.7587705556	 0.270989
H	-0.3710953879	-2.8629133215	 2.9277876684	 0.124883
H	 0.4767501394	-5.0797116785	 2.0958802083	 0.260581
H	 1.9560575629	-4.9246368684	 0.0748446732	 0.117947
H	 2.1253437961	-2.2983316745	-0.5725775481	 0.091912
43.9509	89.377	145.9648	192.9796	233.7895	287.868	340.5112	361.6184	453.9732	474.9819	490.8958	639.8473	644.346	692.1706	743.2422	781.5452	805.3703	827.5095	886.4876	905.9255	976.8864	987.1218	1062.9597	1078.7077	1097.5331	1112.9778	1119.2812	1161.8271	1241.6852	1271.0717	1272.7563	1311.189	1332.2305	1381.6628	1402.5463	1405.5623	1424.9947	1467.1609	1478.2192	1494.1994	1508.7816	1517.9667	1599.6713	3001.1208	3017.8345	3035.4737	3060.6497	3099.3551	3122.4776	3247.2007	3269.0712	3275.9644	3686.8395	3784.0961
CCC(O)C1=CNC=C1	CC[C@@H](O)c1c[nH]cc1	
InChI=1S/C7H11NO/c1-2-7(9)6-3-4-8-5-6/h3-5,7-9H,2H2,1H3	InChI=1S/C7H11NO/c1-2-7(9)6-3-4-8-5-6/h3-5,7-9H,2H2,1H3/t7-/m1/s1
