18
gdb 16332	3.06972	1.85824	1.42796	1.732	67.38	-0.2553	0.0667	0.322	932.2652	0.152778	-384.902399	-384.894228	-384.893283	-384.935013	30.461	
C	-0.2404272621	 1.4920938739	 0.0076580154	-0.41061
C	-0.0072837019	-0.0072900228	-0.1027035702	-0.033888
C	 1.2541507242	-0.5282811089	-0.8919597732	-0.266911
C	 1.7240901385	-1.2092174327	 0.3985321436	-0.050261
O	 1.8603364176	-0.180321103	 1.3888660153	-0.299981
C	 0.5469023906	-0.7309959892	 1.1441609552	 0.395671
C	-0.1814278153	-1.2509240844	 2.3409014909	-0.183465
O	-0.6548580874	-0.1934732422	 3.1640462549	-0.414057
H	 0.6582325815	 1.9870707383	 0.3866914624	 0.127338
H	-0.4854436057	 1.9273942146	-0.966857936	 0.110812
H	-1.0647192776	 1.7065017539	 0.6951184994	 0.126784
H	-0.9081564421	-0.5166791084	-0.4609447834	 0.076623
H	 0.9978085926	-1.2292996423	-1.6897348986	 0.105164
H	 1.9356323929	 0.2337596751	-1.2783040361	 0.110321
H	 2.3316903289	-2.0982917336	 0.5283674596	 0.1024
H	-1.0688971782	-1.8121722177	 2.0300943979	 0.112447
H	 0.477765056	-1.9353854527	 2.8957619202	 0.09756
H	 0.1158554774	 0.3259389821	 3.4194308028	 0.294052
72.6125	116.9264	189.4721	225.505	284.6183	313.1258	367.4094	416.0408	487.0498	552.9013	698.9629	713.5083	785.8434	857.3788	881.6778	937.398	954.9595	963.2087	1014.0693	1052.9349	1073.7593	1106.9189	1117.0776	1156.3964	1192.6823	1221.6309	1236.9608	1261.5404	1288.5203	1355.2937	1372.7275	1401.8664	1419.4546	1457.4938	1480.3815	1488.3258	1490.7124	1507.4819	2994.1016	3035.6469	3051.3579	3064.5867	3077.3776	3103.1146	3116.2334	3122.3945	3177.8843	3804.4604
CC1CC2OC12CO	C[C@H]1C[C@H]2O[C@@]12CO	
InChI=1S/C6H10O2/c1-4-2-5-6(4,3-7)8-5/h4-5,7H,2-3H2,1H3	InChI=1S/C6H10O2/c1-4-2-5-6(4,3-7)8-5/h4-5,7H,2-3H2,1H3/t4-,5+,6-/m0/s1
