13
gdb 125186	3.60308	1.6564	1.14282	2.3316	66.64	-0.2465	-0.044	0.2026	979.1778	0.090777	-452.739918	-452.733206	-452.732262	-452.771449	24.845	
C	 0.0625277551	 1.5102812244	-0.0141446209	-0.499145
C	-0.0862344045	 0.0361584099	 0.0651260167	 0.322845
C	-1.1191351795	-0.8464265998	-0.0449757049	 0.06912
N	-2.4865062725	-1.0405192887	-0.2595340809	-0.338208
C	-2.6069815364	-2.3192216133	-0.1893543711	 0.054229
O	-1.4571228502	-3.0659052328	 0.0553212655	-0.210244
C	-0.5089321793	-2.0991327725	 0.1453435652	 0.456622
N	 0.7747399991	-2.0850596598	 0.3586346672	-0.269411
O	 1.0382784375	-0.6903542733	 0.3041481302	-0.223224
H	 0.7515067741	 1.7918506519	-0.8170652522	 0.157925
H	-0.9092883768	 1.9673765739	-0.20859188	 0.156203
H	 0.46132871	 1.9146429408	 0.9218576413	 0.157925
H	-3.5078607966	-2.9041848806	-0.2984380562	 0.165364
79.6084	183.5002	249.0442	286.3032	393.8697	555.2177	601.3355	603.9161	627.1798	712.1276	787.8027	798.4177	874.4473	899.0097	909.8356	986.5254	1040.3245	1060.5525	1122.9586	1202.6303	1267.3895	1336.9964	1413.9215	1440.6859	1472.2378	1482.8516	1569.5008	1618.3125	1710.5927	3043.1321	3100.8975	3142.5288	3273.0164
CC1=C2N=COC2=NO1	Cc1c2ncoc2no1	
InChI=1S/C5H4N2O2/c1-3-4-5(7-9-3)8-2-6-4/h2H,1H3	InChI=1S/C5H4N2O2/c1-3-4-5(7-9-3)8-2-6-4/h2H,1H3
