25
gdb 64476	2.4381	1.34663	1.11976	1.0774	88.58	-0.2393	0.0783	0.3176	1264.7108	0.229579	-389.512944	-389.503442	-389.502498	-389.546295	38.092	
C	 0.0060195997	 1.4997015974	 0.0693744182	-0.403154
C	 0.0162211882	-0.0301223319	-0.0347938934	 0.361254
C	-1.4245111782	-0.5651102547	-0.0085101317	-0.411398
C	 0.7256608475	-0.4853787376	-1.3353666913	-0.224665
C	 2.2640872966	-0.4502090021	-1.3133358795	-0.195858
C	 2.8997068166	-1.7017616341	-0.6858249072	-0.184414
C	 2.6551359579	-1.8702303569	 0.8186705684	-0.179326
C	 1.1860420999	-1.7752978223	 1.2376238998	-0.076841
O	 0.7082053884	-0.4429705492	 1.1524364291	-0.286627
H	 1.0188461273	 1.9049094454	-0.0055108049	 0.116378
H	-0.604967823	 1.9409528604	-0.7237843571	 0.106444
H	-0.4055556413	 1.8014857984	 1.0363455875	 0.119988
H	-1.9768156128	-0.2440043755	-0.898013694	 0.109535
H	-1.4410311941	-1.6593882199	 0.0129650161	 0.110209
H	-1.9499209475	-0.1971397999	 0.8774943232	 0.115638
H	 0.4028980849	-1.5021615692	-1.5939676199	 0.086936
H	 0.3516573249	 0.153651076	-2.1437244616	 0.093402
H	 2.6228511322	-0.3666857717	-2.3458957967	 0.089346
H	 2.6173434031	 0.4483842322	-0.7935166369	 0.101617
H	 2.5160288193	-2.5859704879	-1.2145808731	 0.089522
H	 3.9809997595	-1.6865021086	-0.8684203342	 0.089774
H	 3.055452206	-2.838718325	 1.1462793791	 0.085615
H	 3.2010756732	-1.0980535976	 1.3748822166	 0.102336
H	 0.5659146504	-2.4711219027	 0.6542053788	 0.086445
H	 1.0859118715	-2.0676653828	 2.2897950548	 0.097844
105.9574	168.7361	212.5704	234.2065	258.1922	297.213	298.5271	311.2188	370.9046	398.2941	421.155	486.6069	503.737	550.4247	696.8193	797.5206	812.1296	847.8716	873.1255	913.3116	923.7671	943.0342	967.7405	994.2975	1015.663	1030.8622	1094.4026	1102.4867	1116.4522	1161.9183	1178.8074	1218.903	1240.1081	1269.4642	1284.2767	1302.8245	1327.1104	1369.0285	1384.268	1385.3848	1391.4692	1396.8213	1407.4917	1417.0078	1469.8904	1473.9707	1483.0146	1483.4454	1488.3102	1491.4747	1496.655	1505.2668	1509.7913	2997.5214	3005.5313	3017.1002	3019.8194	3025.783	3034.2293	3043.749	3050.1657	3051.0784	3059.6898	3063.2811	3069.6267	3101.0512	3112.5199	3117.8679	3120.6738
CC1(C)CCCCCO1	CC1(C)CCCCCO1	
InChI=1S/C8H16O/c1-8(2)6-4-3-5-7-9-8/h3-7H2,1-2H3	InChI=1S/C8H16O/c1-8(2)6-4-3-5-7-9-8/h3-7H2,1-2H3
