21
gdb 82047	2.70252	1.4623	1.25016	1.7635	81.72	-0.2478	0.0881	0.3359	1116.785	0.182246	-387.043146	-387.034771	-387.033827	-387.075935	32.849	
C	-0.0171561458	 1.5554407162	-0.4316225286	-0.409037
C	 0.0513219336	 0.0573214355	-0.1749771316	-0.112776
C	 1.2163470133	-0.719452163	-0.8134259399	 0.022705
O	 2.4320036233	-0.231298342	-0.2274285749	-0.25444
C	 1.6721071868	-1.2110882838	 0.4935923938	-0.044833
C	 0.5509745199	-0.4622855623	 1.2268185655	 0.353608
C	 0.92938138	 0.4173429982	 2.4418709823	-0.278149
C	 0.3926963476	-0.7051692845	 3.3733675399	-0.212622
C	-0.3612878985	-1.3052140614	 2.1545553005	-0.293611
H	 0.9560254978	 2.0184304038	-0.2472090462	 0.133558
H	-0.3040737711	 1.7639364833	-1.468248923	 0.112174
H	-0.7552523819	 2.0375828391	 0.2184324592	 0.112418
H	-0.9032310569	-0.4265000136	-0.4138195772	 0.071608
H	 1.2906477055	-1.1601021159	-1.8016500259	 0.09797
H	 2.1805554926	-2.1286266215	 0.7715642594	 0.097941
H	 1.9781565576	 0.7099094604	 2.5302793945	 0.10742
H	 0.3112908533	 1.3190604299	 2.4958544693	 0.099536
H	 1.19174374	-1.3636373714	 3.7248460403	 0.103453
H	-0.2074624885	-0.4027536103	 4.2343644324	 0.097639
H	-1.4012864782	-0.9665650389	 2.1084249695	 0.100037
H	-0.3464549406	-2.3915551876	 2.0238625608	 0.0954
108.4131	120.3387	185.6602	228.0452	241.9128	268.4939	363.8706	469.1766	545.8937	584.2337	683.1882	735.6949	795.376	836.523	847.2235	861.1626	875.3948	887.6708	933.1136	951.8589	982.0659	993.6681	1042.561	1050.5751	1069.0298	1093.3326	1150.8557	1168.3788	1177.5696	1200.8541	1227.9308	1235.3597	1248.0819	1253.9573	1274.2336	1292.9141	1313.8187	1356.8112	1381.1189	1405.4938	1475.492	1484.3732	1492.1983	1500.4926	1507.1267	3030.898	3038.8551	3043.1895	3052.9216	3061.2267	3088.9213	3091.7253	3104.0979	3118.2659	3119.0994	3164.4888	3181.699
CC1C2OC2C11CCC1	C[C@H]1[C@H]2O[C@H]2C21CCC2	
InChI=1S/C8H12O/c1-5-6-7(9-6)8(5)3-2-4-8/h5-7H,2-4H2,1H3	InChI=1S/C8H12O/c1-5-6-7(9-6)8(5)3-2-4-8/h5-7H,2-4H2,1H3/t5-,6+,7+/m0/s1
