14
gdb 61103	2.46178	1.24865	1.03615	3.7568	72.22	-0.2854	-0.0235	0.2619	1163.2566	0.098551	-395.695993	-395.686457	-395.685513	-395.730443	33.674	
N	 0.0391445076	 1.5149463342	-0.0147982998	-0.491679
C	 0.0175154338	 0.0547930792	-0.0029972979	-0.086824
C	-1.4588185871	-0.4516418297	 0.124853022	-0.374496
C	-2.120023471	 0.0115323911	 1.3322164145	 0.327566
C	-2.6755955294	 0.3739356526	 2.3323858693	-0.420177
C	 0.5916604457	-0.5393625198	-1.2407759759	 0.28226
N	 1.0050001206	-0.9396552293	-2.2428572258	-0.319081
C	 0.8141796635	-0.4182938204	 1.1480938912	 0.339985
N	 1.4455426755	-0.7947544008	 2.037602746	-0.312347
H	 0.9919120374	 1.8568015656	-0.0952879889	 0.262682
H	-0.4809204464	 1.8576563564	-0.8174856603	 0.254919
H	-1.9914146094	-0.1075390074	-0.7699634205	 0.154783
H	-1.4489209498	-1.5456629043	 0.0824379991	 0.170573
H	-3.1609135209	 0.6966279625	 3.2205441369	 0.211837
66.5971	109.6148	133.1934	186.2987	190.9918	252.7955	272.0065	336.7499	353.1766	442.5862	492.6193	521.9669	582.3057	619.9553	637.3696	674.8038	727.3297	832.0219	923.928	963.5299	1006.5948	1054.6146	1136.3571	1241.5967	1339.8265	1348.3101	1464.4312	1656.9476	2251.0809	2350.1201	2374.607	3039.2869	3084.331	3500.1555	3503.6739	3587.2818
NC(CC#C)(C#N)C#N	NC(CC#C)(C#N)C#N	
InChI=1S/C6H5N3/c1-2-3-6(9,4-7)5-8/h1H,3,9H2	InChI=1S/C6H5N3/c1-2-3-6(9,4-7)5-8/h1H,3,9H2
