16
gdb 42939	2.5397	2.18509	1.52042	4.0614	67.4	-0.2355	-0.0146	0.2209	876.3518	0.12667	-437.855381	-437.848942	-437.847998	-437.886029	26.191	
O	-0.0386173444	 0.0355164183	 0.3429329273	-0.317248
C	-0.06574407	 1.2067154571	 0.0659447119	 0.370315
C	-1.3639514039	 2.0105239028	-0.0739354319	-0.005918
C	-1.3915791642	 2.9369694063	 1.1683796462	-0.271136
C	-0.5580106238	 3.8377321562	 0.2329998606	 0.063194
O	-1.1911855267	 3.177101814	-0.9169989918	-0.286726
C	 0.9025007373	 3.4476910017	 0.1186646277	-0.018173
C	 1.6671316813	 2.6500014362	 1.1243727271	-0.263142
N	 1.0970339243	 2.0038544537	-0.0637463029	-0.104409
H	-2.2165661074	 1.3881652762	-0.3439505912	 0.107158
H	-2.3858483784	 3.3554564035	 1.326995295	 0.128985
H	-0.9744249729	 2.5852941928	 2.1135890969	 0.119101
H	-0.7215116897	 4.9170276111	 0.236907268	 0.091963
H	 1.4691811774	 4.0541725786	-0.585077991	 0.114322
H	 2.7510554495	 2.7179772745	 1.1381650898	 0.136663
H	 1.2146083116	 2.425886667	 2.0855963483	 0.13505
143.5873	251.4981	311.3098	413.0549	433.7823	472.9872	524.6195	633.0401	690.8355	745.3043	793.5696	870.4013	886.5423	897.0324	938.5834	944.9986	971.4549	1006.9657	1036.6983	1078.4821	1084.9942	1114.6835	1130.9573	1162.0359	1183.6619	1203.7572	1247.6161	1284.805	1303.3736	1329.3689	1357.1751	1405.5331	1488.7463	1514.334	1832.0989	3080.7093	3097.3748	3120.8855	3129.5008	3132.1403	3144.0651	3209.0925
O=C1C2CC(O2)C2CN12	O=C1[C@H]2C[C@H](O2)[C@H]2CN12	
InChI=1S/C6H7NO2/c8-6-5-1-4(9-5)3-2-7(3)6/h3-5H,1-2H2	InChI=1S/C6H7NO2/c8-6-5-1-4(9-5)3-2-7(3)6/h3-5H,1-2H2/t3-,4+,5-,7?/m1/s1
