18
gdb 67741	3.40034	1.55761	1.35165	2.2489	76.26	-0.2251	-0.0026	0.2225	996.232	0.147377	-401.903117	-401.895486	-401.894542	-401.934463	31.307	
C	-0.0607723644	 1.4975610767	 0.0042641703	-0.484764
C	-0.0619757029	-0.0019914611	-0.1247024923	 0.317447
C	 0.8589710084	-0.7008760232	-1.0619613717	-0.139174
C	 0.460265573	-1.9649575324	-1.2467516952	-0.201703
C	-0.7020448814	-2.2408394148	-0.3249161585	 0.353862
O	-1.5161299755	-3.3433166445	-0.576552741	-0.489802
C	-0.1260724306	-2.1590915076	 1.1234950937	-0.169629
N	-0.4118172031	-0.6998329421	 1.2156534126	-0.192613
C	-1.2858249927	-0.8224830161	 0.0092573492	-0.174538
H	 0.9116619406	 1.8590595444	 0.3553059124	 0.12451
H	-0.2704536953	 1.9702202869	-0.9614254612	 0.117866
H	-0.816871936	 1.8200337486	 0.7237651116	 0.133263
H	 1.7532401482	-0.2379167527	-1.4611852286	 0.10316
H	 0.9861621135	-2.7508546429	-1.7764341967	 0.106298
H	-1.7587616366	-3.3327459292	-1.5087178156	 0.281236
H	-0.796229949	-2.6655075989	 1.8227013707	 0.123946
H	 0.9108459571	-2.4685828953	 1.2878815702	 0.098785
H	-2.3183006933	-0.4845384757	-0.0232878897	 0.09185
176.7452	212.2	271.3083	298.2501	332.9601	358.7531	407.3279	435.9898	557.9135	567.9866	619.4841	686.3972	719.5978	749.2735	812.1159	849.1452	878.686	916.302	951.0535	983.7021	1009.7887	1017.7641	1034.3173	1077.417	1086.2959	1127.5301	1155.9572	1173.7463	1246.5356	1267.3888	1317.96	1333.4381	1354.7737	1398.423	1418.3481	1486.4874	1488.4279	1493.873	1638.8101	3034.8259	3046.6981	3095.8664	3115.624	3125.6758	3144.9756	3192.5709	3217.1493	3805.2474
CC12C=CC3(O)CN1C23	C[C@@]12C=C[C@@]3(O)CN1[C@@H]23	
InChI=1S/C7H9NO/c1-6-2-3-7(9)4-8(6)5(6)7/h2-3,5,9H,4H2,1H3	InChI=1S/C7H9NO/c1-6-2-3-7(9)4-8(6)5(6)7/h2-3,5,9H,4H2,1H3/t5-,6-,7+,8?/m0/s1
