18
gdb 38274	3.23147	1.72111	1.40812	0.91	70.84	-0.2449	0.0654	0.3104	942.4985	0.151005	-438.986805	-438.980353	-438.979409	-439.017351	27.148	
C	-0.014246107	 1.5852027101	 0.1503788467	-0.250186
N	 1.4778485558	 1.246005364	 0.0647369313	-0.175444
C	 1.1176438268	 0.0473948874	 0.9911890233	-0.240586
C	-0.0068964255	 0.0407400539	-0.0548450204	 0.384216
O	-1.0570464767	-0.8181960903	-0.3338271471	-0.298029
C	-1.4950300532	-0.5255734619	-1.6658802998	-0.004137
O	-0.4694598123	-0.5033032672	-2.6247560242	-0.242776
C	 0.4885985093	 0.5590621406	-2.4423414214	-0.166549
C	 1.0971715367	 0.2611842825	-1.0787253051	 0.030516
H	-0.3149804352	 1.9610445635	 1.1307235365	 0.106469
H	-0.3652263344	 2.2470838996	-0.6402859379	 0.105908
H	 1.849388877	-0.7628829616	 0.961438318	 0.113114
H	 0.888344908	 0.3584666658	 2.0127109	 0.108962
H	-2.1720417249	-1.332056142	-1.9487936507	 0.126135
H	-2.0274093345	 0.4410562189	-1.6590715997	 0.08849
H	 1.1961116294	 0.4688440194	-3.2686612975	 0.119968
H	-0.0054692245	 1.5354323447	-2.5162094519	 0.108717
H	 1.8352067052	-0.5402756873	-1.1652815301	 0.085212
169.3295	284.9939	377.2085	392.6362	413.0703	452.2233	566.4556	605.7939	618.5604	702.6617	748.7536	835.5616	869.8976	891.7687	914.8705	965.0136	973.4363	987.1676	1040.6715	1065.8216	1074.9703	1097.04	1143.3705	1159.8502	1169.8586	1184.1807	1187.2991	1217.9533	1243.2505	1255.9563	1298.8923	1318.455	1370.7783	1422.9384	1445.7787	1494.4517	1505.5601	1519.8553	1558.9004	2956.6824	3032.0156	3063.5589	3075.1009	3081.1248	3113.7611	3130.9666	3137.0407	3147.853
C1N2CC11OCOCC21	C1N2C[C@]31OCOC[C@@H]23	
InChI=1S/C6H9NO2/c1-5-6(9-4-8-1)2-7(5)3-6/h5H,1-4H2	InChI=1S/C6H9NO2/c1-5-6(9-4-8-1)2-7(5)3-6/h5H,1-4H2/t5-/m1/s1
