15
gdb 128690	2.35219	1.56163	0.94412	2.1499	77.71	-0.2128	0.0034	0.2162	1183.4624	0.112692	-416.790526	-416.78209	-416.781146	-416.823663	30.949	
C	 0.0077820004	 1.3927262854	 0.0531354079	-0.238951
O	 0.0184645259	-0.0329999267	 0.0261464244	-0.26073
C	 0.6327385671	-0.6308992349	 1.0517957298	 0.356232
N	 1.2055444822	 0.026644715	 2.0473104158	-0.320179
N	 1.6942517614	-0.9584238499	 2.846941232	-0.210379
C	 1.4439223981	-2.1966868877	 2.3812365737	-0.12811
C	 0.7427903068	-2.0493978462	 1.1933368891	-0.005543
C	 0.2551827303	-3.0527591052	 0.3315418751	 0.243609
C	-0.1634755593	-3.9061870962	-0.4080258206	-0.446522
H	 1.0274607154	 1.7912198412	 0.0456632555	 0.133988
H	-0.5262982735	 1.7036352836	-0.8453655417	 0.131314
H	-0.5051436074	 1.7626892149	 0.9467935944	 0.133997
H	 2.1826288596	-0.7007718687	 3.6861705289	 0.279168
H	 1.7651494721	-3.0861325622	 2.8989884368	 0.148717
H	-0.5352532992	-4.6527999624	-1.0641743712	 0.18339
102.2471	120.4143	165.8297	184.9093	252.4003	335.9805	411.2982	413.5531	487.0858	537.4728	555.4906	616.9658	645.824	655.6204	744.8575	753.1146	803.3934	938.3382	1047.9	1081.0078	1171.09	1181.1852	1205.7636	1258.5235	1324.4625	1391.8627	1451.3597	1479.8459	1493.7553	1501.3045	1560.1034	1607.8744	2235.8964	3033.8269	3100.6953	3148.3158	3268.8797	3506.5144	3691.0384
COC1=NNC=C1C#C	COc1n[nH]cc1C#C	
InChI=1S/C6H6N2O/c1-3-5-4-7-8-6(5)9-2/h1,4H,2H3,(H,7,8)	InChI=1S/C6H6N2O/c1-3-5-4-7-8-6(5)9-2/h1,4H,2H3,(H,7,8)
