22
gdb 104222	2.42608	1.37621	1.23314	2.1138	82.4	-0.2382	0.079	0.3173	1176.9335	0.192912	-404.304081	-404.294488	-404.293544	-404.338118	36.472	
C	 0.0177265238	 1.3715182124	 0.2720660714	-0.252719
O	-0.1215311516	-0.0179928949	 0.4783839951	-0.287396
C	-1.3386405615	-0.5906339035	 0.042409516	 0.336835
C	-2.5439982373	-0.056246103	 0.8180265744	-0.448367
C	-1.5777300792	-0.6623783513	-1.5039657276	-0.278778
C	-1.8961556846	-2.1811211315	-1.3639828106	-0.30889
C	-1.2690967469	-2.1279494664	 0.0290426523	 0.327772
C	-0.1495860237	-2.9260957573	 0.5635104128	-0.296724
N	-1.5143850057	-3.0598881905	 1.1219015852	-0.383863
H	 1.0518199696	 1.6252304766	 0.5185028591	 0.127031
H	-0.1713153666	 1.651674663	-0.7745388607	 0.108393
H	-0.6473114763	 1.9646832095	 0.915132445	 0.108593
H	-2.7221000216	 1.0025342177	 0.6069185978	 0.117337
H	-3.4497944622	-0.6055097671	 0.5457627653	 0.127478
H	-2.3868382661	-0.1680397704	 1.89611439	 0.116216
H	-2.3614649241	-0.0236506772	-1.9171576703	 0.094453
H	-0.6444247395	-0.4895888554	-2.0447324568	 0.109707
H	-2.9690510137	-2.3904552137	-1.3307658499	 0.110056
H	-1.4309950883	-2.852082416	-2.0888863757	 0.105902
H	 0.2040441	-3.7966523596	 0.0165198128	 0.112046
H	 0.6051696475	-2.4035526071	 1.1429505365	 0.12563
H	-1.574099592	-2.5569358545	 2.005306368	 0.229287
92.6871	95.4516	171.2296	188.0034	221.5736	266.7655	285.5372	318.9413	349.3421	394.401	476.9336	494.0934	575.8866	670.1577	757.9942	839.4156	885.7981	897.8764	914.2879	928.1012	942.5276	967.8559	986.0016	1041.0699	1091.0127	1119.3893	1122.1873	1157.4881	1180.6567	1186.5604	1201.1923	1209.4112	1231.2394	1250.9684	1256.8894	1273.2024	1321.4729	1402.7976	1413.7669	1472.5848	1475.1009	1483.0802	1488.5793	1494.784	1506.1685	1511.5039	1514.7433	2989.4087	3033.8688	3041.4655	3061.0409	3066.8898	3103.9661	3108.599	3110.0721	3110.8026	3113.9322	3127.8691	3201.6227	3482.1187
COC1(C)CCC11CN1	CO[C@@]1(C)CC[C@]21CN2	
InChI=1S/C7H13NO/c1-6(9-2)3-4-7(6)5-8-7/h8H,3-5H2,1-2H3	InChI=1S/C7H13NO/c1-6(9-2)3-4-7(6)5-8-7/h8H,3-5H2,1-2H3/t6-,7+/m0/s1
