13
gdb 24532	3.97474	1.8274	1.25185	5.756	75.07	-0.2503	-0.0819	0.1683	897.1518	0.09506	-411.85083	-411.845221	-411.844276	-411.880718	22.539	
N	-0.0265303251	 1.3273315794	 0.0099458793	-0.363391
C	 1.1520511907	 2.0152826471	 0.0021221548	-0.037892
C	 2.3430961913	 1.3235045702	-0.0136024293	-0.047148
N	 2.4461773582	-0.0284969722	-0.0222457129	-0.312893
C	 1.3034559802	-0.6784038521	-0.0145597645	 0.347864
N	 1.0634290021	-2.0194044137	-0.0197613926	-0.328458
C	-0.2664290925	-2.0730503943	-0.006845234	 0.038448
N	-0.9868266752	-0.8943372443	 0.0069716556	-0.372637
C	-0.0034248353	-0.0176436404	 0.0021360088	 0.388137
H	-0.9148413845	 1.8138974525	 0.0215107854	 0.287588
H	 1.0879879748	 3.0939003372	 0.0088393287	 0.148308
H	 3.2720648367	 1.8825836781	-0.0196739105	 0.127647
H	-0.7935641614	-3.0198628775	-0.0069492089	 0.124429
248.4635	261.8223	404.5014	484.7915	561.1609	594.8066	637.2982	640.1224	756.2813	784.8251	810.4409	830.7449	921.8457	927.2452	932.8069	967.0241	1072.4266	1126.4531	1168.2362	1235.9961	1256.621	1321.0924	1359.4922	1418.445	1460.9252	1491.2188	1520.4173	1634.5853	1662.9785	3195.0577	3219.6803	3242.7468	3576.1554
N1C=CN=C2N=CN=C12	[nH]1ccnc2ncnc12	
InChI=1S/C5H4N4/c1-2-7-5-4(6-1)8-3-9-5/h1-3H,(H,6,7,8,9)	InChI=1S/C5H4N4/c1-2-7-5-4(6-1)8-3-9-5/h1-3H,(H,6,7,8,9)
