19
gdb 73621	2.17585	1.44101	1.1409	2.9434	76.87	-0.2397	-0.0195	0.2202	1152.4998	0.159338	-423.033089	-423.02455	-423.023606	-423.06629	32.484	
O	-0.0445546404	 1.3999591677	 0.165123123	-0.459171
C	-0.028682906	 0.0213543289	-0.0238097187	 0.385536
C	 0.8578554432	-0.5315202415	-1.1358873955	-0.288735
C	 0.1874303832	-1.8459868326	-1.6075728011	-0.23385
C	-1.2841997973	-1.7809229968	-1.11298868	-0.225111
C	-1.3098146522	-0.7338205551	-0.0082106909	-0.10768
C	-0.3642502674	-0.8467172352	 1.2029467193	-0.180404
C	 0.3664772162	-2.0538810293	 1.6388767545	 0.140691
O	 0.6269154036	-2.2852508392	 2.7981302895	-0.276571
H	 0.7875281147	 1.6596599808	 0.5762341279	 0.288454
H	 0.8529439365	 0.2197545959	-1.9329686997	 0.117681
H	 1.9007281781	-0.676117663	-0.8340319903	 0.103131
H	 0.2416525013	-1.9540669296	-2.6936497958	 0.10824
H	 0.6990320488	-2.7160717519	-1.1894160865	 0.118098
H	-1.943840177	-1.4379412055	-1.9177003994	 0.112719
H	-1.6576674853	-2.7590558414	-0.794672049	 0.109986
H	-2.2408137212	-0.2193752927	 0.2013505468	 0.107184
H	-0.6856513928	-0.2428593732	 2.0463574545	 0.111665
H	 0.683927144	-2.7615993662	 0.8456145915	 0.068137
84.6584	151.2687	158.2327	212.5048	238.2838	307.9568	361.7063	418.0191	465.8271	503.2435	581.7259	643.2928	685.0733	796.3442	853.5405	886.4089	898.2052	935.8734	953.7706	1002.1119	1022.6212	1052.1764	1072.2627	1110.0825	1119.0548	1176.9124	1204.2673	1227.2658	1248.4219	1253.9708	1305.8154	1316.8849	1319.8927	1333.8353	1357.4777	1433.4784	1463.0633	1493.7263	1499.6267	1520.0502	1793.2321	2914.6521	3041.6985	3044.1429	3068.774	3078.0381	3081.6418	3110.0899	3163.4197	3180.1358	3796.6603
OC12CCCC1C2C=O	O[C@]12CCC[C@H]1[C@H]2C=O	
InChI=1S/C7H10O2/c8-4-6-5-2-1-3-7(5,6)9/h4-6,9H,1-3H2	InChI=1S/C7H10O2/c8-4-6-5-2-1-3-7(5,6)9/h4-6,9H,1-3H2/t5-,6+,7+/m0/s1
