16
gdb 45625	5.18386	0.98592	0.88462	1.985	71.91	-0.2481	-0.0223	0.2257	1272.7681	0.126448	-434.092339	-434.084641	-434.083697	-434.125147	28.584	
O	-0.580887426	 0.3131297087	-1.0512186323	-0.353113
C	-0.2249022452	 1.2695326484	-0.4123965988	 0.402147
C	-0.8798192257	 1.9773922472	 0.7822889346	-0.300484
N	 0.0052945359	 3.0813898887	 1.1491798192	-0.320881
C	 0.9888433241	 3.0469010858	 0.3267437498	 0.415284
N	 0.9348702697	 2.0187689923	-0.6103269513	-0.388597
C	 2.1125530519	 4.0074167929	 0.3394674689	-0.126518
C	 1.7823351698	 5.4674327938	 0.3232370964	-0.218386
N	 2.2856224938	 4.8347745614	 1.5383313087	-0.299725
H	-1.8777615119	 2.3381563824	 0.5081684708	 0.151012
H	-1.0117912757	 1.2785801792	 1.6158249389	 0.152636
H	 1.6071158078	 1.8309094095	-1.3366186095	 0.269614
H	 3.0330717706	 3.6649449499	-0.1265390433	 0.100719
H	 2.4670346461	 6.157610776	-0.1616032218	 0.127456
H	 0.7293308403	 5.7272938053	 0.267004823	 0.132892
H	 1.5017778045	 4.6293020484	 2.1585985365	 0.255944
59.3207	137.5117	183.5906	202.0827	339.1049	369.4907	486.1752	501.9936	558.9417	669.7609	695.4889	736.6124	835.2946	881.8574	887.3755	966.9519	977.2908	984.219	1004.4847	1068.8103	1118.0048	1131.8918	1164.7835	1179.3079	1192.2142	1221.4442	1282.9697	1288.5989	1321.5016	1377.4778	1440.7721	1471.8746	1501.7968	1687.8427	1860.6191	3048.9959	3082.5527	3113.4599	3140.6309	3208.016	3470.4942	3652.5134
O=C1CN=C(N1)C1CN1	O=C1CN=C(N1)[C@H]1CN1	
InChI=1S/C5H7N3O/c9-4-2-7-5(8-4)3-1-6-3/h3,6H,1-2H2,(H,7,8,9)	InChI=1S/C5H7N3O/c9-4-2-7-5(8-4)3-1-6-3/h3,6H,1-2H2,(H,7,8,9)/t3-/m1/s1
