17
gdb 8058	3.39838	1.85224	1.54057	3.7599	69.7	-0.2374	-0.0353	0.2021	881.8333	0.141652	-363.788925	-363.781509	-363.780565	-363.820556	27.968	
C	-0.0330383414	 1.4922698643	 0.1035033096	-0.52027
C	 0.0341376255	-0.0126390623	 0.0474679547	 0.284718
C	 0.545163641	-0.9364139829	-1.0808537954	-0.197823
N	 0.082238222	-1.9630257834	-0.0293898799	-0.144112
C	 0.7647874078	-1.0118125661	 0.9781256557	-0.213017
C	-1.1458024113	-1.0550687896	 0.1077661782	-0.077434
C	-2.0242741778	-1.1651249227	 1.322068663	 0.127269
O	-1.79718971	-1.8042948915	 2.3187813687	-0.241866
H	 0.9677911724	 1.925220081	-0.0008179971	 0.12874
H	-0.6571270271	 1.8908996667	-0.703519319	 0.124374
H	-0.4485091136	 1.8362834251	 1.0564821346	 0.128678
H	-0.0195407994	-0.9775394183	-2.017030666	 0.100312
H	 1.6230741781	-0.9676670317	-1.2613915782	 0.103706
H	 1.8559957636	-1.0393395135	 0.9143116633	 0.10025
H	 0.4182212743	-1.1408511883	 2.0015072051	 0.136492
H	-1.7877795588	-1.068469169	-0.7830174026	 0.083664
H	-2.9638838854	-0.5702608078	 1.2280232353	 0.076318
93.491	182.0235	196.6265	245.7109	297.4338	339.9539	457.2662	582.3238	603.2758	718.2414	763.0841	780.8252	862.9515	907.7059	912.69	926.4389	985.1765	1025.0376	1043.6324	1077.3574	1094.0439	1144.3412	1171.0501	1190.9926	1199.6644	1203.4376	1256.006	1322.0096	1392.4277	1408.8791	1427.4726	1487.3781	1488.5672	1515.2614	1553.3014	1821.6673	2848.8288	3025.826	3029.4642	3047.3053	3067.8234	3098.8979	3101.3937	3114.939	3165.6125
CC12CN(C1)C2C=O	C[C@@]12CN(C1)[C@H]2C=O	
InChI=1S/C6H9NO/c1-6-3-7(4-6)5(6)2-8/h2,5H,3-4H2,1H3	InChI=1S/C6H9NO/c1-6-3-7(4-6)5(6)2-8/h2,5H,3-4H2,1H3/t5-/m0/s1
