21
gdb 114618	2.29452	1.29266	0.96229	1.0519	78.61	-0.2452	0.0773	0.3225	1302.6674	0.180966	-424.189574	-424.179937	-424.178993	-424.224315	35.577	
C	 0.0335013756	 1.4991070212	 0.3380561405	-0.382539
C	 0.0225373007	 0.0247555279	-0.0906426463	-0.300911
C	-1.3578510487	-0.5484383593	-0.1954717435	 0.406677
O	-2.0682776408	-0.8206934536	 1.0270819841	-0.296404
C	-1.8977238388	-1.8916092143	 0.0844250283	-0.052227
C	-2.9967545108	-1.7460588362	-0.9722003826	-0.254927
C	-2.4386471105	-0.3108815784	-1.2820496515	-0.044104
C	-3.3810160285	 0.861059744	-1.0875953433	-0.098939
O	-4.4226976578	 0.7364659119	-2.0487517298	-0.42459
H	 1.0586452859	 1.8681762042	 0.435940365	 0.114072
H	-0.4797970902	 2.131905492	-0.3931549331	 0.120643
H	-0.4676223359	 1.623089413	 1.3024702375	 0.133921
H	 0.5257216005	-0.0871289696	-1.059303906	 0.101986
H	 0.5860277107	-0.5745137054	 0.6334658882	 0.110458
H	-1.4022683052	-2.7857016252	 0.4475368509	 0.098314
H	-2.8881399784	-2.4311860774	-1.8156609235	 0.105331
H	-4.0198019589	-1.7952183793	-0.5926950712	 0.112902
H	-1.9968694896	-0.2734159341	-2.2826177912	 0.079671
H	-3.7734122066	 0.8363475825	-0.0615017105	 0.10272
H	-2.8362017829	 1.8107979516	-1.2171116619	 0.081907
H	-5.0820615099	 1.4115074244	-1.86406999	 0.286038
71.8007	91.9449	127.2221	168.6296	211.1392	235.258	260.0007	316.1575	342.1657	438.9157	491.8864	539.1547	670.183	721.6241	782.6564	833.9756	866.4809	916.6802	926.9934	947.3238	984.4036	1001.1239	1061.4325	1067.3699	1077.4155	1103.3181	1110.9892	1167.6009	1185.5854	1201.3952	1252.1275	1258.4888	1268.1688	1275.4508	1316.4393	1353.264	1360.1881	1408.5761	1443.5018	1465.528	1471.8164	1483.2165	1499.2201	1509.3404	1524.4155	2964.1312	3022.9016	3028.1599	3040.1609	3065.8082	3069.0351	3073.1147	3109.203	3117.634	3127.8648	3176.0453	3830.0501
CCC12OC1CC2CO	CC[C@]12O[C@H]1C[C@H]2CO	
InChI=1S/C7H12O2/c1-2-7-5(4-8)3-6(7)9-7/h5-6,8H,2-4H2,1H3	InChI=1S/C7H12O2/c1-2-7-5(4-8)3-6(7)9-7/h5-6,8H,2-4H2,1H3/t5-,6-,7+/m0/s1
