22
gdb 97383	3.81559	0.81563	0.78901	3.0246	87.39	-0.2407	0.0299	0.2706	1596.2961	0.192018	-404.341405	-404.331383	-404.330439	-404.376594	36.869	
C	-0.0071797966	 1.5023641904	-0.0767861313	-0.313315
N	-0.3459491654	 0.1098266358	-0.2780735266	-0.212292
C	 0.4728435043	-0.593866417	-0.9259261426	 0.114587
O	 0.2452356391	-1.9055782405	-1.1271944311	-0.251891
C	 1.1538302384	-2.6060937595	-1.9870748763	 0.40924
C	 0.9066297747	-2.2228680065	-3.4417466058	-0.433901
C	 2.6566657355	-2.6192860467	-1.5692870719	-0.266114
C	 2.6552379609	-4.15876162	-1.775010669	-0.223971
C	 1.103265281	-4.1293409606	-1.7238831304	-0.262583
H	 0.9488471416	 1.8046930655	-0.5369254624	 0.091406
H	-0.8002779042	 2.1384048145	-0.4869467161	 0.12504
H	 0.047788991	 1.718574581	 0.9966571847	 0.125179
H	 1.4166590141	-0.2169824038	-1.3490817992	 0.075522
H	 1.1253510949	-1.1643475189	-3.6170928069	 0.117997
H	 1.5421667994	-2.8118919627	-4.1101762173	 0.121298
H	-0.1391381834	-2.4070356475	-3.7053880677	 0.133077
H	 3.3516119318	-2.0215042464	-2.1644678132	 0.098954
H	 2.7678613544	-2.3540418197	-0.5148353218	 0.11523
H	 3.0363206639	-4.4475233821	-2.7576938151	 0.107758
H	 3.1644601537	-4.7576829407	-1.0184478485	 0.107554
H	 0.7219306213	-4.3206172031	-0.718607262	 0.120746
H	 0.5491069296	-4.7391268616	-2.4412322897	 0.100481
59.9262	92.1182	127.9332	153.4904	204.086	245.5496	278.1553	309.303	332.4404	367.4034	393.5779	469.2945	533.6733	683.8446	740.7905	794.0459	868.6005	912.8821	930.3051	938.7337	957.2242	986.3363	992.6981	1043.3497	1072.0514	1141.2956	1146.7213	1173.2244	1194.2081	1198.394	1212.4072	1247.2906	1252.6916	1278.2364	1289.0208	1304.7231	1406.4622	1410.1527	1449.7429	1468.6487	1480.521	1480.6315	1486.5964	1494.0338	1505.0833	1505.8759	1772.3641	2959.2603	2996.0918	3034.287	3053.1663	3059.3458	3067.1886	3072.6703	3072.8473	3104.0647	3109.9577	3115.0763	3121.4333	3134.5881
CN=COC1(C)CCC1	CN=COC1(C)CCC1	
InChI=1S/C7H13NO/c1-7(4-3-5-7)9-6-8-2/h6H,3-5H2,1-2H3	InChI=1S/C7H13NO/c1-7(4-3-5-7)9-6-8-2/h6H,3-5H2,1-2H3
