17
gdb 9300	5.59012	0.87131	0.80787	4.0685	69.88	-0.2407	-0.0206	0.2201	1407.8665	0.138469	-400.998252	-400.988631	-400.987687	-401.034016	32.001	
C	 0.3018888364	 1.0100437963	 0.5713778481	-0.251895
O	-0.2370649296	 0.2917732801	-0.5327323238	-0.191093
C	 0.5831190138	-0.620548209	-1.0896955937	 0.132471
N	 0.1787024713	-1.3176660283	-2.0556201512	-0.246002
C	 1.0432914074	-2.3111051818	-2.668039031	-0.031538
C	 2.3997705656	-2.6229401518	-2.0323723339	-0.41297
C	 0.1994904061	-3.5780898075	-2.8470121541	 0.160814
O	 0.6408164689	-4.697122531	-2.8371501458	-0.246586
H	 0.5310618054	 0.3429380344	 1.4111440228	 0.129642
H	 1.2070000578	 1.5616725215	 0.2895624654	 0.128081
H	-0.4664315305	 1.719849583	 0.8793690337	 0.149446
H	 1.5779561044	-0.6696403352	-0.6292751639	 0.082944
H	 1.2149434063	-1.9713488854	-3.7056657001	 0.117327
H	 3.0727459516	-1.7618803703	-2.0734477796	 0.114663
H	 2.2859515811	-2.9317808195	-0.9882584208	 0.124801
H	 2.8614782508	-3.4532939303	-2.5699218447	 0.142467
H	-0.8792203669	-3.3655490355	-3.0042351074	 0.097429
35.727	54.5332	120.4516	140.9131	161.9314	214.7687	267.0705	276.1764	340.5742	394.0651	501.614	534.8877	659.141	814.0799	910.6032	946.7243	991.89	1054.5877	1103.3041	1119.3756	1147.3684	1176.3603	1186.8178	1273.3478	1303.875	1319.1768	1387.1769	1406.7122	1418.758	1484.6179	1490.0811	1494.859	1498.3975	1500.5724	1775.6799	1834.7932	2916.5361	2948.8048	3013.1089	3038.138	3047.5464	3078.6287	3112.1811	3137.6056	3147.0921
COC=NC(C)C=O	COC=N[C@@H](C)C=O	
InChI=1S/C5H9NO2/c1-5(3-7)6-4-8-2/h3-5H,1-2H3	InChI=1S/C5H9NO2/c1-5(3-7)6-4-8-2/h3-5H,1-2H3/t5-/m0/s1
