22
gdb 65572	3.1704	1.05086	0.96757	2.5543	82.79	-0.241	0.0782	0.3191	1341.429	0.194206	-404.306113	-404.297131	-404.296187	-404.339955	34.905	
O	-0.178454116	 1.5553521009	-0.0356262065	-0.486747
C	 0.0464611959	 0.167100983	-0.0066656535	 0.435591
C	-1.2985977324	-0.5594632701	 0.096239508	-0.204237
N	-2.1934039222	-0.0752962894	-0.9539506993	-0.084701
C	-2.3710415981	-0.9100714725	-2.1390383359	-0.21623
C	-3.4583977327	-0.7764186353	-1.1314888731	-0.224828
C	 1.0169399099	-0.4146688543	-1.0888229315	-0.275967
C	 1.7430404522	-1.2019982529	 0.0340920645	-0.21371
C	 1.059540975	-0.2766438067	 1.077412222	-0.26744
H	-0.9938569624	 1.6762126889	-0.5446973551	 0.278447
H	-1.1631839195	-1.6538956529	 0.0672165971	 0.083937
H	-1.7527891288	-0.3028682459	 1.0609435353	 0.108973
H	-2.4283482315	-0.3839370568	-3.0873246853	 0.122089
H	-1.8396160027	-1.8591876026	-2.1746763522	 0.1156
H	-3.653930619	-1.6364370623	-0.4933858913	 0.113837
H	-4.3236229697	-0.1506071107	-1.3307677548	 0.121285
H	 0.5906588219	-0.978923074	-1.9222233873	 0.087441
H	 1.6356948621	 0.3932446781	-1.4866228815	 0.1077
H	 1.4004841029	-2.2378182355	 0.1085885231	 0.097134
H	 2.8344994506	-1.2046658022	 0.0133817216	 0.099498
H	 1.691597566	 0.5708273735	 1.3535114394	 0.113391
H	 0.6569273084	-0.7297843102	 1.9883595463	 0.088938
84.8912	90.8415	137.1596	173.2661	275.3849	324.857	352.6203	399.8514	447.3927	475.5818	530.6815	654.6415	743.1172	768.8918	790.0415	837.4578	867.1811	902.9943	908.6864	932.9934	953.434	982.9962	1024.3105	1030.298	1038.3892	1092.5147	1114.7671	1121.7743	1143.1197	1175.5187	1182.4143	1198.3402	1210.4084	1245.9565	1264.9954	1267.6107	1285.4693	1315.5284	1327.1342	1362.5766	1427.2664	1469.3799	1479.2845	1485.5017	1493.5079	1507.5629	1522.0959	2960.7334	3051.0276	3053.7768	3059.4166	3066.0865	3098.0422	3102.2297	3103.3507	3115.2584	3126.3871	3180.8117	3195.501	3713.1875
OC1(CN2CC2)CCC1	OC1(CN2CC2)CCC1	
InChI=1S/C7H13NO/c9-7(2-1-3-7)6-8-4-5-8/h9H,1-6H2	InChI=1S/C7H13NO/c9-7(2-1-3-7)6-8-4-5-8/h9H,1-6H2
