17
gdb 43395	2.54157	1.75781	1.16275	4.6324	75.42	-0.2432	-0.058	0.1852	1045.697	0.136782	-421.840255	-421.832676	-421.831732	-421.872448	29.228	
O	 0.0533219083	 0.0206900407	 0.2400237676	-0.32856
C	 0.0127557798	 1.2175527027	 0.0450169372	 0.315158
C	-1.2576259325	 1.9489206136	-0.1413837342	-0.142692
C	-1.314819776	 3.2831887314	-0.2477611264	-0.055521
C	-0.0994963941	 4.1672791086	-0.2522056824	-0.271924
C	 1.1636186137	 3.4012159448	-0.6715737354	-0.311273
C	 1.2696342583	 2.0715820649	 0.0441152959	 0.32089
C	 2.2202562463	 1.8521261392	 1.1565182737	-0.216572
O	 2.4861455301	 1.3558376237	-0.1472007398	-0.262826
H	-2.1522987774	 1.3343015291	-0.130060591	 0.113265
H	-2.283719028	 3.7728822014	-0.3183507912	 0.112378
H	-0.2629162812	 5.0222669772	-0.9174572033	 0.118862
H	 0.0279184795	 4.5970543749	 0.7529055322	 0.12797
H	 1.1159032573	 3.2021497867	-1.7496244388	 0.122957
H	 2.0651065191	 3.9950159029	-0.4955296094	 0.112292
H	 2.845934019	 2.6810354524	 1.487380892	 0.113316
H	 1.9915586576	 1.0924424757	 1.9015477532	 0.132278
74.2805	157.6202	254.3196	295.0996	342.996	362.1289	404.2016	483.224	545.6862	644.0037	664.5328	738.0526	828.2068	838.667	878.6825	911.8577	939.2554	955.5539	1020.8197	1025.6284	1069.9878	1130.747	1136.5222	1158.5487	1177.2618	1204.7727	1242.6189	1303.5523	1350.3659	1361.2309	1408.0563	1410.3387	1470.7044	1489.9928	1510.6668	1681.449	1780.5608	3001.9394	3033.3959	3062.8242	3079.4816	3090.1301	3152.7278	3177.7392	3189.8005
O=C1C=CCCC11CO1	O=C1C=CCC[C@]21CO2	
InChI=1S/C7H8O2/c8-6-3-1-2-4-7(6)5-9-7/h1,3H,2,4-5H2	InChI=1S/C7H8O2/c8-6-3-1-2-4-7(6)5-9-7/h1,3H,2,4-5H2/t7-/m1/s1
