21
gdb 114899	3.00517	1.29206	1.15328	1.7068	77.85	-0.2388	0.0708	0.3096	1170.0386	0.183874	-424.211822	-424.20347	-424.202526	-424.245141	31.961	
C	 0.049680826	 1.6124183609	 0.3081881631	-0.237848
O	 0.5930231633	 0.3614186074	-0.0484782992	-0.237827
C	 0.7718605178	-0.501445553	 1.0474225725	 0.128676
C	-0.5020582971	-1.1903161	 1.6264862474	-0.285702
C	 0.1092907769	-2.5835085058	 1.2875084519	 0.10982
O	-0.5480407379	-3.3245274326	 0.2796669301	-0.256284
C	-0.2066113451	-2.746589649	-0.9793101526	-0.090031
C	 1.2497744932	-2.2733876615	-0.8403830135	-0.225485
C	 1.3503430677	-1.8862271141	 0.641617257	-0.0874
H	 0.6973847606	 2.1444487509	 1.0227428014	 0.10478
H	-0.0310244835	 2.2053651376	-0.606018272	 0.12693
H	-0.9500560158	 1.5161965096	 0.7570979459	 0.109975
H	 1.3715976849	 0.0001619391	 1.8218724526	 0.061205
H	-0.6972335238	-1.0112892057	 2.6865521608	 0.097445
H	-1.4111756037	-0.9789826073	 1.0574187995	 0.111875
H	 0.2673558975	-3.2473073981	 2.1396612033	 0.076018
H	-0.3535468614	-3.5129655539	-1.744713094	 0.104841
H	-0.8632982685	-1.8949092232	-1.209313138	 0.098586
H	 1.9377327009	-3.097966212	-1.04859713	 0.100593
H	 1.4832348901	-1.4435714388	-1.5092862685	 0.120028
H	 2.329775818	-2.1055494104	 1.0682449923	 0.069802
62.0068	113.8679	177.2613	206.4413	243.2281	320.1276	413.9453	435.2293	495.1177	595.0453	674.7597	729.3283	792.5387	844.2383	878.1365	897.0577	923.2991	961.2208	973.7369	1011.6187	1042.3643	1054.4181	1082.3706	1117.8004	1135.9586	1166.6968	1185.2531	1188.6357	1218.6898	1228.6881	1240.2615	1256.2114	1271.7423	1286.989	1316.8508	1334.0086	1353.453	1383.1059	1398.3697	1461.4667	1478.1092	1483.1694	1488.295	1509.9369	1524.8821	2973.9758	2982.5713	3001.6641	3025.1374	3060.5532	3062.3443	3086.6547	3093.8081	3103.2782	3114.6995	3121.7102	3129.0969
COC1CC2OCCC12	CO[C@H]1C[C@H]2OCC[C@@H]12	
InChI=1S/C7H12O2/c1-8-6-4-7-5(6)2-3-9-7/h5-7H,2-4H2,1H3	InChI=1S/C7H12O2/c1-8-6-4-7-5(6)2-3-9-7/h5-7H,2-4H2,1H3/t5-,6-,7+/m0/s1
