18
gdb 37636	2.8254	2.22495	2.00738	0.3419	71.76	-0.2311	0.0862	0.3173	806.4703	0.152474	-401.919161	-401.913375	-401.91243	-401.948977	25.212	
C	 0.005472675	 1.5188640675	-0.2063917677	-0.214919
C	 1.3669096429	 2.1276635	 0.2244573761	-0.212614
C	 2.3587568661	 0.9687073213	 0.3839475371	 0.062706
O	 2.3009524633	 0.1593179856	-0.8093891774	-0.267708
C	 1.2490402341	-0.7499518464	-0.5227031427	 0.0469
C	 1.4916854283	-1.2603649631	 0.9116462878	-0.058232
C	 1.8984449882	 0.0244470681	 1.502733253	-0.053534
N	 0.4437789892	-0.3373877731	 1.4760521745	-0.164252
C	 0.0238508242	 0.0196549054	 0.0687039361	-0.000381
H	-0.8269288489	 1.9857693883	 0.3287912607	 0.108433
H	-0.1687668386	 1.6796299043	-1.2752415023	 0.109739
H	 1.7355354816	 2.8408518353	-0.5174490692	 0.10436
H	 1.2801636568	 2.6603645791	 1.1777988638	 0.103846
H	 3.3885714459	 1.3069707994	 0.5222830403	 0.079806
H	 1.1124859789	-1.4316794591	-1.3605389103	 0.082359
H	 1.6899862219	-2.2544082519	 1.2917331272	 0.096218
H	 2.3192231537	 0.0993654324	 2.4980205655	 0.09944
H	-0.9308603028	-0.465835103	-0.1444132427	 0.077833
187.7876	343.922	394.5909	508.0849	579.0107	651.8439	686.1654	721.86	770.0217	801.2852	815.9148	851.896	852.9012	894.7761	914.8599	948.6658	957.3215	984.9333	1021.199	1045.9322	1053.2155	1064.2505	1086.3777	1100.0331	1176.8832	1183.6664	1220.0693	1233.5885	1262.1871	1269.5948	1302.1045	1309.0733	1333.3591	1350.2384	1354.2924	1378.4776	1386.1416	1471.6759	1493.4663	3042.4875	3050.7392	3079.4923	3083.6376	3087.5125	3101.1366	3134.2656	3187.4891	3199.7253
C1CC2OC3C4C2N4C13	C1C[C@@H]2O[C@H]3[C@H]4[C@@H]2N4[C@@H]13	
InChI=1S/C7H9NO/c1-2-4-5-6-7(9-4)3(1)8(5)6/h3-7H,1-2H2	InChI=1S/C7H9NO/c1-2-4-5-6-7(9-4)3(1)8(5)6/h3-7H,1-2H2/t3-,4-,5+,6+,7+,8?/m0/s1
