14
gdb 48294	2.57543	0.90025	0.69625	2.1935	68.55	-0.2898	-0.077	0.2128	1495.3042	0.099088	-432.867745	-432.858303	-432.857359	-432.904125	31.063	
O	-0.2170441315	 0.0170020368	-0.1747186662	-0.213468
C	-0.0762924964	 1.1974218177	-0.038220643	 0.15971
C	 1.3158974571	 1.8763897684	-0.0484564493	-0.184846
N	 1.3554404168	 2.7225946018	-1.2410568445	-0.316347
C	 2.5775318193	 3.5220282681	-1.3744191565	-0.279189
C	 2.5473574228	 4.2843622659	-2.6232289073	 0.267558
N	 2.53479202	 4.8657716717	-3.6206418357	-0.284012
C	 1.4555731204	 2.6862912589	 1.1670403074	 0.293843
N	 1.55325894	 3.3080214697	 2.1359468588	-0.304292
H	-0.9183578104	 1.9097061401	 0.0605896326	 0.130373
H	 2.0756354959	 1.0785697962	-0.0232767496	 0.137053
H	 1.2428198222	 2.1319417079	-2.0593974889	 0.255584
H	 2.6337988614	 4.2230532532	-0.5343576023	 0.189828
H	 3.5041692522	 2.9236838736	-1.3571948656	 0.148205
32.0024	60.6365	90.0942	110.3077	172.811	228.6628	282.9853	353.4829	388.8628	463.7741	506.7263	530.3077	637.7517	763.113	924.5579	958.22	964.076	1016.3593	1038.4812	1118.0663	1140.2951	1245.7987	1252.9572	1345.6221	1380.6947	1401.8556	1491.0249	1506.2921	1849.3064	2360.3747	2373.074	2954.9259	2968.4348	2983.9384	3074.027	3524.575
O=CC(NCC#N)C#N	O=C[C@@H](NCC#N)C#N	
InChI=1S/C5H5N3O/c6-1-2-8-5(3-7)4-9/h4-5,8H,2H2	InChI=1S/C5H5N3O/c6-1-2-8-5(3-7)4-9/h4-5,8H,2H2/t5-/m0/s1
