20
gdb 67593	2.65111	1.89527	1.80742	1.4869	80.51	-0.2296	0.0904	0.32	918.8711	0.174338	-366.011162	-366.004295	-366.003351	-366.041894	29.026	
C	-0.026532624	 1.4749659806	 0.0063057277	-0.487835
C	 0.0223395115	-0.0270868223	 0.0079864979	 0.351314
C	 1.2283090554	-0.8691646516	-0.3515118576	-0.110455
C	 0.7772647475	-1.9884983554	-1.2730237489	-0.250406
C	-0.7331615729	-1.9846126138	-1.100318611	-0.040081
C	-1.26623791	-2.000348181	 0.2852578618	-0.040085
C	-0.2609706563	-2.0191284759	 1.42557045	-0.250402
C	 0.6828447054	-0.8852580717	 1.0662680603	-0.110445
N	-1.1927330915	-0.7184130339	-0.4673266375	-0.165425
H	 0.9163606477	 1.8927847565	 0.3728061445	 0.110079
H	-0.2007927799	 1.8611843172	-1.0034791614	 0.121816
H	-0.8343527585	 1.8425028367	 0.6478292092	 0.12179
H	 2.1967729555	-0.407785639	-0.5136607346	 0.080569
H	 1.043694015	-1.7633070366	-2.3116528828	 0.105727
H	 1.2212877423	-2.9607521684	-1.0257449486	 0.104067
H	-1.3507382034	-2.3569852335	-1.9132277918	 0.084705
H	-2.2665339233	-2.3840320965	 0.4671311696	 0.084705
H	-0.7610096002	-1.8165463979	 2.3791791309	 0.105727
H	 0.2416825854	-2.9896518277	 1.5204610587	 0.104066
H	 1.2894216742	-0.4345513658	 1.8447358636	 0.08057
194.1788	214.1734	248.8531	300.8319	431.4867	473.0261	565.3165	659.444	689.122	716.7469	730.6853	784.8254	808.3349	843.908	867.6704	889.8273	929.0023	934.813	980.6171	1031.4195	1039.0944	1041.986	1064.8289	1093.6863	1106.2011	1111.0569	1130.0934	1172.2266	1196.745	1204.9494	1224.9321	1254.1342	1307.1249	1321.179	1322.9528	1366.8156	1411.752	1414.1485	1448.393	1480.6635	1486.1244	1497.2615	1501.9696	3027.5372	3029.5575	3031.1748	3065.4632	3066.4582	3095.5185	3105.1369	3136.6222	3147.4752	3158.9066	3169.2621
CC12C3CC4C(CC13)N24	C[C@@]12[C@@H]3C[C@H]4[C@@H](C[C@H]13)N24	
InChI=1S/C8H11N/c1-8-4-2-6-7(9(6)8)3-5(4)8/h4-7H,2-3H2,1H3	InChI=1S/C8H11N/c1-8-4-2-6-7(9(6)8)3-5(4)8/h4-7H,2-3H2,1H3/t4-,5+,6+,7-,8-,9?
