19
gdb 35244	2.98451	1.22356	1.00883	2.353	81.76	-0.2359	0.0524	0.2883	1228.8086	0.158278	-385.819908	-385.811049	-385.810104	-385.854364	32.84	
C	-0.1548594842	-1.2175094169	 0.1274222512	-0.470381
C	-0.0595822458	-0.0186180489	 0.1392882383	 0.353958
C	 0.0170277054	 1.4127293009	 0.1159347166	-0.211397
C	 0.6508272231	 2.194685997	 1.2597241538	-0.297322
C	 1.3415388573	 2.1417316914	-0.0695772276	-0.027329
C	 2.6482191127	 1.4019288035	-0.2368975562	 0.121278
C	 3.9394017659	 2.2032413718	 0.061668795	-0.290469
C	 4.2100282638	 1.100981167	 1.1027323424	-0.05894
O	 2.9432040778	 0.4668788597	 0.8274228701	-0.280222
H	-0.22172007	-2.2767443941	 0.133442239	 0.191537
H	-0.8349591404	 1.8932421387	-0.3578580531	 0.109407
H	 0.1623135628	 3.1108043393	 1.571466989	 0.112379
H	 1.0923490686	 1.601780488	 2.0512860106	 0.143137
H	 1.2840032413	 3.0281797296	-0.6975951944	 0.093193
H	 2.6634782916	 0.8883555131	-1.2081224088	 0.083085
H	 4.6551691589	 2.281627115	-0.7576703247	 0.109904
H	 3.7597732306	 3.1938623112	 0.4838153076	 0.110924
H	 5.0522075332	 0.4364448055	 0.8727179014	 0.103046
H	 4.2888087376	 1.4240333282	 2.1473050998	 0.104212
52.2464	74.8924	93.4869	188.2966	222.9936	270.5779	358.7251	503.8227	547.7023	582.4255	622.7681	644.2496	715.6709	771.4439	801.2417	833.3752	858.5079	916.4671	942.8946	962.1129	999.0771	1021.1276	1057.5363	1082.3282	1106.1842	1113.8961	1131.2893	1156.6436	1168.2629	1216.9517	1220.9581	1258.0916	1276.0236	1351.7434	1369.254	1383.2692	1407.0135	1478.8737	1488.0166	1531.1471	2238.2088	3004.6175	3017.6819	3057.4093	3078.2438	3129.5796	3135.2762	3138.4688	3145.3347	3242.0571	3507.715
C#CC1CC1C1CCO1	C#C[C@H]1C[C@H]1[C@H]1CCO1	
InChI=1S/C8H10O/c1-2-6-5-7(6)8-3-4-9-8/h1,6-8H,3-5H2	InChI=1S/C8H10O/c1-2-6-5-7(6)8-3-4-9-8/h1,6-8H,3-5H2/t6-,7+,8+/m0/s1
