14
gdb 25463	2.83513	1.6318	1.03569	1.5263	75.24	-0.2321	-0.0884	0.1437	1056.4897	0.103084	-432.912497	-432.905312	-432.904368	-432.944608	26.718	
N	-0.0566057112	 1.2369545551	-0.4788675083	-0.539798
C	 0.0245368452	 0.0206479545	-0.09158582	 0.361186
C	 1.2425116702	-0.6944766211	 0.3204338144	-0.040992
N	 1.3042746882	-1.9193898572	 0.7074332447	-0.234029
C	 0.1220362374	-2.643379678	 0.7442543568	-0.089125
C	-1.0599346075	-2.1039384906	 0.3919286729	 0.018611
N	-1.1397684518	-0.786089687	-0.0265635497	-0.177099
C	-2.4023552375	-0.2596870958	-0.3876570193	 0.173366
O	-3.4112808484	-0.913525276	-0.3451133871	-0.289424
H	 0.8638442057	 1.6729212772	-0.4681737343	 0.230043
H	 2.1640894802	-0.11312871	 0.2864934524	 0.125365
H	 0.1924165578	-3.6719834881	 1.07217031	 0.129031
H	-2.0080057017	-2.6237623159	 0.4027019123	 0.170413
H	-2.3286956366	 0.7882454629	-0.6988191751	 0.162452
68.9064	160.1831	247.2731	260.1206	377.709	416.8163	518.7423	525.3254	584.575	659.5159	752.0461	796.1599	839.9117	847.209	873.4127	945.2226	961.9271	1038.1612	1054.4103	1080.989	1171.9076	1228.8922	1283.8723	1367.2311	1380.1704	1407.5073	1452.6161	1590.8433	1658.0921	1693.2826	1814.2473	3095.3122	3130.7575	3218.8044	3245.4361	3501.2431
N=C1C=NC=CN1C=O	[NH]C1=CN=CCN1C=O	
InChI=1S/C5H5N3O/c6-5-3-7-1-2-8(5)4-9/h1-4,6H	InChI=1S/C5H6N3O/c6-5-3-7-1-2-8(5)4-9/h1,3-4,6H,2H2
