16
gdb 50021	3.03353	1.0872	1.00235	4.2135	73.18	-0.2426	-0.05	0.1926	1217.3635	0.122642	-437.869405	-437.861029	-437.860085	-437.903064	30.4	
O	 0.0178308907	-0.0057768727	-0.4130689727	-0.261211
C	 0.0675323653	 1.1136049997	 0.0309567021	 0.184371
C	 1.2866646033	 1.957074323	 0.0285715396	-0.153766
C	 1.1210827286	 3.4646305171	-0.0624046424	-0.365318
C	 1.5323209655	 2.8666241168	 1.2358033863	 0.212334
N	 0.8007637351	 2.8286159287	 2.5121639238	-0.37832
C	 2.0707854732	 3.0113032163	 3.2877729339	-0.284165
C	 2.8511587523	 2.9808475105	 1.9582390958	 0.334713
O	 3.9980158225	 3.0213704377	 1.6279799333	-0.293587
H	-0.8259878157	 1.5991960093	 0.4836064192	 0.073025
H	 2.1668651639	 1.5090650786	-0.4199311004	 0.130151
H	 1.8598981544	 4.0201145033	-0.6293826677	 0.151797
H	 0.1048266428	 3.8440376966	-0.1303579188	 0.134437
H	 0.1760646877	 3.6210451675	 2.6188849019	 0.231411
H	 2.1612027794	 3.9603726742	 3.8275536833	 0.136181
H	 2.286731751	 2.1863178133	 3.973356073	 0.147945
75.9346	96.4608	130.1174	178.1499	248.2869	313.8759	399.939	468.1145	507.7688	553.0958	606.5003	714.5466	780.4292	817.9139	857.0389	886.3268	970.0898	990.4026	1028.2085	1035.8081	1048.3973	1065.6606	1078.0821	1133.6904	1164.9896	1213.8838	1259.6358	1301.2999	1345.2916	1387.1409	1444.3992	1460.3679	1474.5583	1820.5369	1907.2533	2878.9613	3044.3262	3097.1334	3123.1959	3181.3341	3218.147	3526.4831
O=CC1CC11NCC1=O	O=C[C@H]1C[C@]21NCC2=O	
InChI=1S/C6H7NO2/c8-3-4-1-6(4)5(9)2-7-6/h3-4,7H,1-2H2	InChI=1S/C6H7NO2/c8-3-4-1-6(4)5(9)2-7-6/h3-4,7H,1-2H2/t4-,6-/m1/s1
