18
gdb 79766	2.73256	1.97281	1.8068	2.0119	72.15	-0.2302	0.0577	0.2879	859.1355	0.151291	-401.925639	-401.919116	-401.918172	-401.956237	27.348	
O	 0.3270846326	 1.2728588515	 0.4671828752	-0.442795
C	 0.0541909637	-0.0595420087	 0.0575999941	 0.14139
C	-1.4212138043	-0.4080487114	-0.0918368683	-0.1169
C	-2.0913784494	 0.0314204162	-1.3743175899	-0.079789
C	-1.2059428047	 0.7286357258	-2.3954788667	-0.190614
N	 0.0166212536	-0.0805470982	-2.5362654758	-0.116744
C	-0.2487889557	-1.4182441785	-1.9700584932	-0.060973
C	-1.582085182	-1.3890075764	-1.2329218649	-0.079155
C	 0.6732635327	-0.4761777124	-1.273712299	-0.093927
H	-0.1063871446	 1.8699629951	-0.1503492	 0.282887
H	 0.496867203	-0.6807969898	 0.8457402035	 0.091511
H	-2.027446205	-0.482105942	 0.803849641	 0.089786
H	-3.1543983472	 0.2459532535	-1.3525187396	 0.09016
H	-1.7030822535	 0.7626604231	-3.3717626835	 0.112605
H	-0.9437540204	 1.7617932707	-2.1369142677	 0.096685
H	 0.063731308	-2.2877644474	-2.536615318	 0.091713
H	-2.2279747475	-2.2553822672	-1.1927431604	 0.090028
H	 1.7559125907	-0.5391499538	-1.3349962669	 0.094133
161.6946	191.2274	304.0347	371.0558	523.4225	536.2676	625.2521	671.5682	703.8665	742.9084	777.0501	805.6877	814.6267	866.7271	894.0301	921.2372	969.0323	993.0757	1007.8525	1030.464	1045.937	1075.5746	1086.4158	1092.4812	1097.4319	1102.5722	1133.8509	1216.4051	1257.7581	1262.1504	1283.4233	1300.3207	1309.3181	1325.6517	1335.2948	1381.8918	1420.3993	1427.7911	1511.6768	3028.3804	3038.0494	3060.4715	3149.1187	3165.198	3175.7348	3177.4353	3209.8853	3827.2052
OC1C2C3CN4C(C23)C14	O[C@H]1[C@H]2[C@H]3CN4[C@H]([C@@H]23)[C@H]14	
InChI=1S/C7H9NO/c9-7-4-2-1-8-5(3(2)4)6(7)8/h2-7,9H,1H2	InChI=1S/C7H9NO/c9-7-4-2-1-8-5(3(2)4)6(7)8/h2-7,9H,1H2/t2-,3+,4-,5+,6+,7-,8?/m0/s1
