17
gdb 65618	3.28198	1.33675	1.21244	2.8541	72.69	-0.2537	0.014	0.2677	1063.3517	0.136236	-417.970817	-417.962732	-417.961788	-418.003383	30.559	
C	 0.1434128785	 1.4607593457	-0.0178884324	-0.433026
C	 0.0441878598	-0.0590200533	-0.0000227282	 0.132638
N	 1.0131436804	-0.76153239	-0.908899728	-0.360126
C	 1.4881553965	-1.6487498951	 0.1831949013	-0.048755
C	 2.729494878	-1.0629690557	 0.8746717502	-0.071854
O	 1.8879684409	-0.2087495036	 1.7052573196	-0.291504
C	 0.6937039494	-0.8211217955	 1.2156411865	 0.078554
C	-1.332224762	-0.5218219488	-0.2028282003	 0.246313
N	-2.4049773952	-0.9208337959	-0.3717329699	-0.336375
H	 1.1571874988	 1.7472677669	 0.2660029388	 0.146511
H	-0.0724834597	 1.8429512228	-1.019108721	 0.134377
H	-0.5654819211	 1.9065163572	 0.6860259716	 0.13367
H	 0.5702555765	-1.2441401058	-1.6821614567	 0.238638
H	 1.4094320255	-2.7236813254	 0.025566544	 0.097264
H	 3.2947071137	-1.7672833922	 1.4964145106	 0.110196
H	 3.40235103	-0.4893351035	 0.2312259903	 0.120117
H	 0.03021794	-1.1801113479	 2.0035053735	 0.103365
102.1271	145.4525	185.9045	207.2135	249.2588	340.9971	414.4244	443.2516	501.9192	573.3233	636.3314	694.3797	795.9513	808.4345	861.0905	917.0921	940.0091	954.7362	999.1669	1012.6807	1040.5343	1085.4184	1138.2822	1153.643	1169.9579	1177.0234	1210.4271	1231.8149	1294.0672	1316.416	1353.0588	1391.7776	1408.5564	1482.4073	1486.0278	1504.552	2340.0823	3030.3183	3050.6755	3100.3593	3103.6224	3122.7266	3123.9331	3149.0279	3552.2334
CC1(NC2COC12)C#N	C[C@]1(N[C@H]2CO[C@@H]12)C#N	
InChI=1S/C6H8N2O/c1-6(3-7)5-4(8-6)2-9-5/h4-5,8H,2H2,1H3	InChI=1S/C6H8N2O/c1-6(3-7)5-4(8-6)2-9-5/h4-5,8H,2H2,1H3/t4-,5+,6-/m0/s1
