20
gdb 114267	4.65849	1.07639	1.04243	2.4236	82.17	-0.2065	0.0645	0.2711	1243.3745	0.169635	-402.99377	-402.985738	-402.984794	-403.026293	31.8	
C	 0.0061907584	 1.585005477	 0.0656793013	-0.384371
C	-0.0878957339	 0.0609863828	 0.0389025882	-0.117153
N	 0.5888428693	-0.4970982221	-1.1162578356	-0.083194
C	-0.0438803707	-0.3006061624	-2.4748997595	-0.275944
C	 0.4363768076	-1.7281261793	-2.7862574568	 0.322226
C	 0.4661866262	-3.2520087372	-3.0716398275	-0.308173
C	 1.5970421959	-2.8549612885	-2.0252518163	 0.005381
O	 1.9339891389	-1.7307632784	-2.8809850319	-0.31702
C	 0.5258031678	-1.9693686332	-1.2920190531	 0.012608
H	 1.0519399148	 1.9044420773	 0.0603574148	 0.130039
H	-0.4864604569	 2.0270996262	-0.8070725027	 0.118263
H	-0.4815759446	 1.9861526386	 0.9594281987	 0.112007
H	 0.3940342522	-0.3571304107	 0.9310629426	 0.105638
H	-1.1544895909	-0.242482575	 0.082707579	 0.067581
H	-1.139931132	-0.2122828198	-2.4278313001	 0.099866
H	 0.3834628397	 0.5040520467	-3.0778540369	 0.12654
H	-0.3890345397	-3.8437456051	-2.7344752535	 0.103184
H	 0.8557802539	-3.5643853941	-4.0410626791	 0.117778
H	 2.4165226822	-3.4830386197	-1.6632439778	 0.092862
H	-0.2931101882	-2.472951393	-0.7664142537	 0.071882
83.8299	130.0407	197.9471	271.3837	315.8194	358.9873	373.0177	472.0435	541.3633	634.3922	675.3753	729.6416	774.8561	811.515	841.6299	866.2723	913.9159	936.9282	949.0286	983.0297	1002.561	1013.4209	1039.5472	1090.9689	1107.9195	1132.3301	1141.7512	1176.181	1184.4784	1191.1917	1211.2291	1240.3442	1255.3624	1286.9627	1312.462	1339.1222	1395.1765	1414.5201	1477.788	1480.1637	1489.3604	1492.9554	1511.5543	2884.4623	2992.604	3037.2308	3040.3633	3046.1711	3059.2741	3072.7936	3102.099	3104.4328	3120.8353	3152.3093
CCN1CC23CC(O2)C13	CCN1C[C@@]23C[C@@H](O2)[C@@H]13	
InChI=1S/C7H11NO/c1-2-8-4-7-3-5(9-7)6(7)8/h5-6H,2-4H2,1H3	InChI=1S/C7H11NO/c1-2-8-4-7-3-5(9-7)6(7)8/h5-6H,2-4H2,1H3/t5-,6-,7-/m1/s1
