21
gdb 107099	3.7774	0.89783	0.82541	3.2194	84.24	-0.2445	-0.0194	0.2251	1466.1785	0.181318	-387.078325	-387.069057	-387.068112	-387.112959	34.424	
C	 0.0508057865	 1.5436201455	 0.2129806984	-0.373961
C	 0.0130898629	 0.0416129365	-0.1019247008	-0.2996
C	-1.3806160283	-0.5246946415	-0.0934338658	 0.403483
C	-2.07969173	-0.9834461504	 1.1559347825	-0.333243
C	-1.869794239	-1.9724578177	 0.0402366526	-0.13366
C	-2.9330387978	-1.7591821999	-1.0521196738	-0.073046
C	-2.4336588847	-0.2698346137	-1.1823053534	-0.324948
C	-2.6627725406	-2.5421622485	-2.3066448738	 0.158483
O	-3.4695449369	-3.2161572022	-2.8939972976	-0.258255
H	 1.0761924749	 1.9248756097	 0.1918937947	 0.114139
H	-0.5316513798	 2.1159784621	-0.5169186174	 0.119406
H	-0.3667313622	 1.7476912737	 1.2042236365	 0.120214
H	 0.4737485895	-0.1370384272	-1.0829666738	 0.096856
H	 0.6259234935	-0.5028281169	 0.6275009631	 0.098741
H	-1.4349696132	-1.1294345823	 2.017557485	 0.113495
H	-3.0808395029	-0.6367738276	 1.4034441347	 0.106974
H	-1.2994775544	-2.8831658218	 0.1848209587	 0.092743
H	-3.9740838791	-1.9081491687	-0.7530876806	 0.088053
H	-3.1834332478	 0.5005079773	-0.9793237291	 0.107152
H	-1.9901914837	-0.0732218183	-2.1636421803	 0.109144
H	-1.6133577368	-2.4481789079	-2.6780412599	 0.067831
64.0279	79.4028	99.4504	188.4607	215.4224	299.2351	348.5456	360.6824	386.9677	419.8703	484.2647	647.9946	755.5751	787.5466	844.4074	850.7466	861.001	927.602	962.9057	976.0256	995.3897	1020.2579	1026.8916	1059.9241	1077.989	1086.4004	1091.6853	1148.6938	1176.4845	1230.3432	1233.7556	1252.3037	1263.141	1302.0748	1330.1552	1359.232	1404.0891	1413.1821	1427.2782	1478.8848	1481.2303	1497.8701	1504.6982	1507.6115	1831.0495	2838.3623	3013.0058	3034.2149	3043.8014	3048.8613	3075.9001	3095.3808	3102.1215	3102.8808	3108.2853	3172.2264	3193.7137
CCC12CC1C(C2)C=O	CC[C@]12C[C@H]1[C@@H](C2)C=O	
InChI=1S/C8H12O/c1-2-8-3-6(5-9)7(8)4-8/h5-7H,2-4H2,1H3	InChI=1S/C8H12O/c1-2-8-3-6(5-9)7(8)4-8/h5-7H,2-4H2,1H3/t6-,7-,8-/m0/s1
