15
gdb 49333	2.37323	1.79798	1.03198	4.161	70.77	-0.2499	-0.0348	0.2151	1077.7911	0.113954	-450.165502	-450.157397	-450.156453	-450.198937	29.29	
N	-0.0944502281	 1.2586713473	 0.0683646539	-0.531878
C	 0.0102864839	 0.0000443779	 0.0241354176	 0.402694
C	-1.2021855012	-0.9109893111	-0.0167496153	-0.237443
N	-0.6202347409	-2.2287383499	 0.1554458224	-0.367371
C	 0.7584617411	-2.2254260856	-0.0102156649	 0.439738
N	 1.5788417557	-3.1797978262	-0.1328691178	-0.528365
N	 1.1441128178	-0.8495856934	 0.0007232882	-0.179008
C	 2.4573371121	-0.3678692328	 0.0074584731	 0.170959
O	 3.4583433205	-1.024310749	 0.0379582966	-0.253111
H	 0.7941648888	 1.7542660636	 0.0880636344	 0.231765
H	-1.8995982492	-0.6475991085	 0.7836450473	 0.15087
H	-1.722344543	-0.7881640918	-0.9760922212	 0.142432
H	-1.1162020012	-3.0403046011	-0.1748728436	 0.254451
H	 1.0952382113	-4.0766747505	-0.1087498125	 0.216808
H	 2.4647303424	 0.7365119012	-0.0212582182	 0.087458
47.7667	113.6722	167.7773	209.8745	239.4484	375.7877	427.9557	467.7823	548.2417	566.1224	639.4111	719.016	738.9242	782.4034	812.219	858.903	974.3481	1013.8533	1028.2704	1048.479	1130.9826	1166.1355	1199.265	1217.7843	1261.6767	1331.7581	1424.1271	1431.5246	1462.6281	1511.6835	1745.8868	1778.8934	1854.5011	2965.2676	3019.9056	3081.1735	3495.6045	3512.7156	3648.4399
N=C1CNC(=N)N1C=O	[NH][C]1CN[C]([NH])N1C=O	
InChI=1S/C4H6N4O/c5-3-1-7-4(6)8(3)2-9/h2,5H,1H2,(H2,6,7)	InChI=1S/C4H6N4O/c5-3-1-7-4(6)8(3)2-9/h2,5H,1H2,(H2,6,7)
