15
gdb 55212	2.56458	1.70197	1.10218	1.4288	68.63	-0.2314	-0.0439	0.1875	1038.9873	0.114516	-454.020049	-454.012419	-454.011475	-454.052397	29.114	
N	-0.0441681328	 1.2235738501	 0.3390775872	-0.518952
C	 0.0597524288	-0.0364988316	-0.1407127425	 0.39411
O	 1.0515981174	-0.5265774661	-0.6492684332	-0.374315
C	-1.2566749634	-0.8251728331	-0.043984796	-0.205506
N	-1.0507402766	-2.2379504016	-0.2934767671	-0.273287
C	-1.4216868759	-2.9251315533	 0.8279291327	 0.020662
C	-2.0100225963	-2.1544421556	 1.7860733103	-0.261693
C	-1.9236591101	-0.7754420058	 1.3588200518	 0.378795
O	-2.2616238515	 0.2623167888	 1.9064325936	-0.384775
H	 0.7966778169	 1.7759324592	 0.3954511596	 0.263719
H	-0.8286538231	 1.4391726762	 0.9466153255	 0.283986
H	-1.9608829746	-0.391401968	-0.7648075615	 0.146951
H	-0.1946463782	-2.4757762597	-0.7795861389	 0.268808
H	-1.24278424	-3.9932400784	 0.8664840767	 0.142712
H	-2.4298771907	-2.4934943912	 2.7195708917	 0.118784
89.2693	114.6023	212.5343	270.926	396.9142	423.3513	474.2623	516.4152	579.3791	601.2984	627.1567	673.1779	691.4127	727.3238	781.5737	831.3711	904.4502	944.0066	971.7119	1091.4716	1101.8578	1143.3844	1172.5505	1182.1196	1230.4434	1277.2093	1357.128	1371.5575	1449.5251	1595.7435	1626.4109	1767.5113	1800.0409	3042.6946	3213.2286	3266.9658	3493.0741	3572.5648	3679.9352
NC(=O)C1NC=CC1=O	NC(=O)[C@H]1NC=CC1=O	
InChI=1S/C5H6N2O2/c6-5(9)4-3(8)1-2-7-4/h1-2,4,7H,(H2,6,9)	InChI=1S/C5H6N2O2/c6-5(9)4-3(8)1-2-7-4/h1-2,4,7H,(H2,6,9)/t4-/m0/s1
