19
gdb 84694	2.90999	1.70076	1.43621	1.2704	75.37	-0.2427	0.0105	0.2532	985.7375	0.161639	-423.041224	-423.033891	-423.032947	-423.072716	29.462	
C	-0.0677633545	 1.573226935	 0.0366912451	-0.407464
C	-0.0022667515	 0.0385018831	-0.020568248	-0.041668
C	 0.6806531725	-0.449523413	-1.2794927688	-0.064966
C	 1.8119135007	-1.1518034421	-1.2350721661	-0.069953
C	 2.415415839	-1.4758985192	 0.1119862772	-0.003028
C	 1.6499714179	-2.6214176386	 0.8020187702	-0.080487
O	 0.4912613531	-1.9505640655	 1.299340701	-0.281316
C	 0.7391587102	-0.547671353	 1.1974384187	 0.179007
O	 2.1326274047	-0.409506365	 1.0299814644	-0.253515
H	 0.9403150386	 1.9947135758	 0.0909608624	 0.133272
H	-0.5580483801	 1.9787545212	-0.8537586752	 0.114958
H	-0.630912786	 1.9117015808	 0.9129915252	 0.114133
H	-1.024041116	-0.3625503518	 0.0082311584	 0.092415
H	 0.22238505	-0.1850542772	-2.2294627036	 0.09274
H	 2.3002689864	-1.522596467	-2.1308203752	 0.091439
H	 3.4964067608	-1.6190662189	 0.0784585717	 0.09043
H	 1.3434762325	-3.4178288552	 0.1181040741	 0.109702
H	 2.2318258855	-3.0485638895	 1.6294104392	 0.10027
H	 0.451991096	-0.0586124397	 2.1341112694	 0.084029
128.1261	211.6361	221.3551	261.29	339.4228	405.2922	478.0016	544.1399	570.9217	707.4547	730.0518	794.5607	820.9583	860.8946	893.3111	918.1489	942.8348	973.1639	988.9128	996.9955	1032.0636	1048.3709	1077.7757	1098.0722	1123.8787	1149.6361	1185.8998	1205.0565	1267.4831	1301.6382	1314.9217	1332.7741	1340.369	1377.1995	1386.6002	1397.0326	1420.9385	1494.4028	1504.5664	1514.9385	1705.9382	3015.1129	3023.1874	3034.0321	3060.6346	3090.17	3102.1027	3109.6959	3115.6803	3151.4889	3182.0873
CC1C=CC2COC1O2	C[C@H]1C=C[C@@H]2CO[C@H]1O2	
InChI=1S/C7H10O2/c1-5-2-3-6-4-8-7(5)9-6/h2-3,5-7H,4H2,1H3	InChI=1S/C7H10O2/c1-5-2-3-6-4-8-7(5)9-6/h2-3,5-7H,4H2,1H3/t5-,6+,7-/m0/s1
