17
gdb 17068	3.85223	1.45265	1.25884	3.2012	64.9	-0.2367	0.0676	0.3043	990.0933	0.142632	-400.909282	-400.901601	-400.900657	-400.941406	28.968	
O	 0.0788432799	 1.4307220078	-0.1174216032	-0.422246
C	 0.0542660224	 0.0335300109	 0.1645115775	-0.119345
C	-1.355433461	-0.5254850256	 0.0900163824	 0.041012
C	-1.9952070888	-0.8452812323	-1.2972206173	-0.104836
N	-1.0292185676	-2.0069333031	-1.4071833339	-0.326754
C	-1.5783667599	-2.0661449582	 0.0098813386	-0.078557
C	-2.9931984095	-1.798466874	-0.5570031819	 0.13135
O	-3.9590378912	-1.3157547803	 0.3352729264	-0.427713
H	-0.1072888505	 1.5371764214	-1.0553558356	 0.280864
H	 0.7250714269	-0.5259631438	-0.4964091402	 0.113179
H	 0.4294547083	-0.0637631938	 1.1895869951	 0.104616
H	-2.0264818311	-0.0085581517	 0.7759064627	 0.096067
H	-2.1847438174	-0.1747887022	-2.1389741673	 0.071567
H	-1.452916685	-2.7544770714	-1.9687627239	 0.204779
H	-1.266518434	-2.8373311087	 0.7158960166	 0.083666
H	-3.3829476081	-2.6092572559	-1.1909154303	 0.063425
H	-4.7285884735	-1.0345674091	-0.1697261655	 0.288926
77.1981	155.3781	230.5028	250.2403	292.4245	348.7377	363.3747	452.3322	589.2359	638.0987	778.3773	786.919	871.6582	889.71	900.1313	906.566	1009.3571	1062.0131	1064.1227	1092.3204	1109.0443	1132.6585	1153.2565	1160.1822	1171.9227	1197.7309	1220.1059	1256.2375	1275.0799	1298.727	1314.3677	1367.4212	1405.5044	1420.278	1434.8338	1505.7948	2991.943	3036.4896	3079.3054	3082.9451	3106.2158	3126.2604	3362.4721	3819.715	3820.9306
OCC1C2NC1C2O	OC[C@H]1[C@H]2N[C@@H]1[C@H]2O	
InChI=1S/C5H9NO2/c7-1-2-3-5(8)4(2)6-3/h2-8H,1H2	InChI=1S/C5H9NO2/c7-1-2-3-5(8)4(2)6-3/h2-8H,1H2/t2-,3+,4-,5-
