20
gdb 97956	5.83422	0.47317	0.45588	3.5364	85.91	-0.238	0.0302	0.2682	2410.0921	0.168448	-403.169707	-403.158309	-403.157365	-403.210118	38.256	
C	 0.4291137863	 1.3655626833	 0.3137891675	-0.362314
C	-0.3171169191	 0.1344507316	-0.2321397133	-0.313997
C	 0.2934560486	-0.4183468637	-1.4373917148	 0.143203
C	 0.8104549922	-0.8444654982	-2.4389164273	-0.013846
C	 1.438498989	-1.3899744027	-3.6370963094	-0.353211
C	 2.0344832515	-2.7878868184	-3.404126148	-0.303752
C	 2.7519446473	-3.3127211213	-4.646411065	 0.414777
N	 3.0837669128	-4.6367446707	-4.5947364339	-0.529632
O	 3.0101263134	-2.614869902	-5.6080388596	-0.353585
H	 1.4626162837	 1.1128583463	 0.5660770646	 0.125442
H	 0.4512808934	 2.166785197	-0.429852815	 0.128379
H	-0.0636361133	 1.7439142777	 1.2146211759	 0.111593
H	-0.3596019005	-0.6401858326	 0.5447879286	 0.123373
H	-1.3604611726	 0.4038676805	-0.4420882426	 0.12637
H	 0.7126170123	-1.4414671122	-4.4569966229	 0.137047
H	 2.2332039599	-0.7268508452	-3.9947277675	 0.147884
H	 2.7535643748	-2.751184959	-2.5763724071	 0.132972
H	 1.2526204906	-3.4921891179	-3.0982428285	 0.121846
H	 2.9376149693	-5.1947236405	-3.7720456276	 0.257392
H	 3.6314594704	-5.0193400819	-5.347885264	 0.260059
12.2487	19.7517	58.5118	74.3814	133.7067	140.4575	191.8893	221.4117	284.1822	342.2861	401.5607	496.2529	511.3951	518.0392	602.0022	640.6704	747.3811	785.4154	786.5447	861.8014	963.0473	1032.219	1043.5602	1079.7184	1094.6965	1105.0727	1166.5199	1175.6625	1246.059	1286.4042	1305.4175	1340.1681	1352.9759	1402.3257	1408.0607	1462.5363	1475.0591	1476.6191	1494.4108	1505.7624	1617.6319	1796.8964	2367.4662	3016.0168	3033.9677	3041.9982	3043.1065	3044.7416	3066.0836	3086.3451	3115.695	3122.8468	3602.2976	3738.7122
CCC#CCCC(N)=O	CCC#CCCC(=O)N	
InChI=1S/C7H11NO/c1-2-3-4-5-6-7(8)9/h2,5-6H2,1H3,(H2,8,9)	InChI=1S/C7H11NO/c1-2-3-4-5-6-7(8)9/h2,5-6H2,1H3,(H2,8,9)
