18
gdb 13495	3.11973	1.69253	1.4256	2.8654	68.79	-0.204	0.0319	0.2358	956.6012	0.15364	-381.122159	-381.113555	-381.112611	-381.155354	30.932	
C	 0.0304527633	 1.4889391783	-0.075937011	-0.327837
N	 0.0458875526	 0.0342217128	 0.0405582106	-0.055931
C	 0.8464636821	-0.4046973749	 1.1780334604	-0.336683
C	-1.274728467	-0.5382574708	-0.0098695864	-0.091178
C	-1.4260220192	-2.088572317	-0.1598210622	-0.201026
N	-2.2566584856	-2.0598530182	 1.0448127572	-0.314153
C	-2.1273417202	-0.7150955543	 1.3010221847	 0.391866
O	-2.5163627057	-0.009696662	 2.1942692522	-0.365768
H	 1.0589756264	 1.8545247757	-0.1598609823	 0.116523
H	-0.5069335582	 1.7806660342	-0.9837854831	 0.117605
H	-0.4439411803	 1.9918051282	 0.783270495	 0.123351
H	 0.4523623645	-0.0537403157	 2.1467231335	 0.122241
H	 0.9011958864	-1.4966813218	 1.207451834	 0.118206
H	 1.8669278778	-0.0264504853	 1.0651424461	 0.11967
H	-1.8556011485	-0.0085599157	-0.7699905993	 0.103183
H	-1.9460518087	-2.4207035163	-1.0637634698	 0.112862
H	-0.4917263163	-2.6466692844	-0.0510975913	 0.116928
H	-2.7504999232	-2.7890855327	 1.5370026518	 0.250141
73.6236	107.7178	139.2729	230.2077	237.8489	263.5039	351.1766	390.0449	395.4157	497.4532	519.4188	689.5654	747.2657	818.0342	910.1987	943.373	994.807	1059.2328	1067.7376	1119.1714	1119.9935	1154.9845	1165.2307	1184.8784	1192.3829	1229.1263	1290.568	1322.1053	1377.5508	1403.7469	1442.8683	1475.791	1480.41	1495.2664	1503.8893	1519.1381	1534.3622	1880.5848	2966.8184	2972.1696	3045.4139	3061.7637	3070.6252	3075.3127	3093.651	3101.8676	3109.8304	3614.6857
CN(C)C1CNC1=O	CN(C)[C@H]1CNC1=O	
InChI=1S/C5H10N2O/c1-7(2)4-3-6-5(4)8/h4H,3H2,1-2H3,(H,6,8)	InChI=1S/C5H10N2O/c1-7(2)4-3-6-5(4)8/h4H,3H2,1-2H3,(H,6,8)/t4-/m0/s1
