14
gdb 11173	5.90917	1.29229	1.10794	3.804	63.43	-0.2671	0.0051	0.2722	1005.4596	0.107264	-382.552229	-382.545062	-382.544118	-382.583868	26.422	
O	 0.0662663103	-0.0076512374	 0.3561870441	-0.326458
C	-0.0173922149	 1.1778276995	 0.2390283986	 0.425245
C	-1.2713894805	 2.0318119016	 0.0787198825	-0.363914
C	-0.7812072094	 3.4514944923	 0.4210323475	-0.203262
C	 0.7087315426	 3.3552721841	 0.0051242035	-0.086243
O	 1.0793982449	 1.9905434391	 0.2274967917	-0.214205
C	-1.4956925416	 4.5415570538	-0.2198936912	 0.301902
C	-2.0751211113	 5.4414090563	-0.7662755029	-0.43
H	-1.6050912009	 1.9688045829	-0.9625776709	 0.151551
H	-2.0760001199	 1.6618400812	 0.713767252	 0.15066
H	-0.8227092948	 3.580565097	 1.5094679266	 0.124813
H	 0.8372466737	 3.6013154351	-1.0546370874	 0.128461
H	 1.3639774472	 3.9901277227	 0.6032964739	 0.136568
H	-2.5922999354	 6.2377954816	-1.242162048	 0.204881
90.1451	144.0837	183.6926	253.8221	437.3413	484.9323	513.9599	546.8582	605.1593	643.3208	648.5748	688.7411	835.6539	877.1821	920.2468	1041.7858	1060.9928	1066.475	1086.8112	1164.5242	1177.4034	1241.279	1266.1342	1312.6095	1347.868	1398.0694	1465.6502	1522.7908	1892.1966	2242.5116	3032.3214	3051.6382	3067.2703	3125.574	3142.9315	3502.8594
O=C1CC(CO1)C#C	O=C1C[C@@H](CO1)C#C	
InChI=1S/C6H6O2/c1-2-5-3-6(7)8-4-5/h1,5H,3-4H2	InChI=1S/C6H6O2/c1-2-5-3-6(7)8-4-5/h1,5H,3-4H2/t5-/m0/s1
