19
gdb 93815	2.30278	1.39422	1.07134	0.3084	71.69	-0.2367	-0.0243	0.2124	1170.5691	0.159412	-460.191124	-460.182293	-460.181349	-460.224582	33.678	
O	-0.0830288619	 1.4422161935	-0.0448714499	-0.432476
C	-0.0051279313	 0.0263095471	-0.0094731569	 0.115996
C	-1.4329674093	-0.5104485848	 0.067424526	-0.190837
C	-1.4569097812	-2.0452778984	 0.0630101153	-0.238855
C	-0.7577348938	-2.6250179823	-1.1694929955	 0.033319
O	-1.5218602941	-2.2417026417	-2.3134600657	-0.43165
C	 0.6620499984	-2.0484783916	-1.2863992736	 0.350266
O	 1.6365197084	-2.7569453275	-1.3892359063	-0.312662
C	 0.7225584756	-0.5306987503	-1.2535591934	-0.3185
H	 0.8133438646	 1.7931954383	-0.058406464	 0.282755
H	 0.545131029	-0.3004766527	 0.8898174892	 0.07224
H	-1.912529009	-0.1230984147	 0.9712394482	 0.105528
H	-1.995647826	-0.1268863553	-0.7896262899	 0.126469
H	-0.9573228356	-2.4369045576	 0.9581783977	 0.108224
H	-2.4877967105	-2.4122497873	 0.0816090084	 0.116082
H	-0.6738192542	-3.716564996	-1.0947985119	 0.081625
H	-1.1375411325	-2.6705227341	-3.0854564864	 0.294191
H	 0.2048283153	-0.1401839866	-2.1374553866	 0.134572
H	 1.7701137179	-0.2174262681	-1.2870094847	 0.103712
76.4376	110.5198	213.2893	240.0871	292.4194	323.5244	336.311	353.677	427.6424	436.0346	479.9574	509.5784	625.5793	677.6261	786.8385	829.9745	889.3668	916.274	962.5636	999.3547	1025.8612	1076.1174	1092.8381	1096.4878	1132.0397	1170.5223	1219.509	1250.7602	1268.1867	1279.6303	1298.3746	1339.7391	1355.9056	1373.9717	1381.0786	1405.9898	1437.8412	1460.5928	1475.3397	1498.7905	1815.7295	2949.9774	3025.3359	3038.7687	3042.6991	3056.1947	3085.6626	3101.2936	3104.2028	3812.7805	3814.4141
OC1CCC(O)C(=O)C1	O[C@H]1CC[C@@H](O)C(=O)C1	
InChI=1S/C6H10O3/c7-4-1-2-5(8)6(9)3-4/h4-5,7-8H,1-3H2	InChI=1S/C6H10O3/c7-4-1-2-5(8)6(9)3-4/h4-5,7-8H,1-3H2/t4-,5+/m0/s1
