17
gdb 16728	3.60115	1.72586	1.69934	4.1326	70.77	-0.2822	0.0338	0.316	855.1928	0.145089	-326.74648	-326.739687	-326.738743	-326.777363	26.542	
N	 0.6978467756	-0.814607825	 1.027435292	-0.34345
C	 0.3702793367	 0.1901004664	 0.5572266489	 0.284469
C	-0.0496286999	 1.4549423422	-0.0459003571	-0.167663
C	-0.9036859388	 2.3239309719	 0.9332953894	-0.232674
C	 0.0674318535	 3.3212280201	 1.5436547988	-0.019157
C	 1.3617580711	 2.7948996195	 2.1132453505	-0.300399
C	 1.3285395468	 3.3409747182	 0.7070399302	-0.019151
C	 1.165335593	 2.3563253232	-0.4392751062	-0.232681
H	-0.6339299451	 1.1932590011	-0.932858163	 0.128846
H	-1.6650838023	 2.8585351372	 0.3555188093	 0.109764
H	-1.4249132933	 1.7056905272	 1.6695956284	 0.12471
H	-0.3443708169	 4.23521973	 1.9564293474	 0.087599
H	 1.8495412537	 3.4081309719	 2.8630225395	 0.11486
H	 1.4841666148	 1.7288149974	 2.2725077735	 0.142859
H	 1.8489276237	 4.2695547253	 0.5014223933	 0.087596
H	 2.0595596299	 1.7602359323	-0.6419543529	 0.124708
H	 0.9173545375	 2.8989348713	-1.357664002	 0.109765
114.1072	171.1875	270.024	297.8637	382.4595	478.0013	555.4016	643.66	748.5592	762.4039	766.4869	825.7222	875.7194	890.6853	941.4756	963.3286	981.8435	1049.8327	1069.3013	1073.3643	1093.3095	1109.8796	1121.6725	1190.2174	1203.5817	1216.2299	1239.8161	1322.8215	1326.1452	1352.1604	1353.0255	1401.7443	1489.3323	1492.8075	1504.5388	2350.0211	3047.3636	3047.3883	3071.2832	3094.3133	3096.1727	3136.2602	3168.4558	3177.1002	3219.8513
N#CC1CC2CC2C1	N#C[C@H]1C[C@H]2C[C@H]2C1	
InChI=1S/C7H9N/c8-4-5-1-6-3-7(6)2-5/h5-7H,1-3H2	InChI=1S/C7H9N/c8-4-5-1-6-3-7(6)2-5/h5-7H,1-3H2/t5-,6-,7+
