15
gdb 7931	3.48145	1.8496	1.28996	1.688	62.96	-0.2596	-0.0429	0.2167	917.0437	0.118129	-399.843051	-399.835476	-399.834532	-399.875647	27.435	
C	-0.202376508	 1.608045175	 0.1154488986	-0.39488
C	 0.0951566064	 0.122495894	-0.0359154284	 0.007276
O	 0.9749560086	-0.1217137131	-1.1429129608	-0.247409
C	 2.0907840261	-0.8399827387	-0.7903758808	 0.405408
N	 3.0042862141	-1.1684723997	-1.5934750927	-0.527698
C	 2.0557435313	-1.166850225	 0.6817532752	-0.431739
C	 0.8006973619	-0.4769532686	 1.1873015313	 0.383298
O	 0.4068598403	-0.3898302634	 2.3187524566	-0.303242
H	 0.7223991427	 2.1756248595	 0.2535338744	 0.131088
H	-0.715953036	 1.9883103289	-0.770574282	 0.135752
H	-0.8391802944	 1.7577153588	 0.9910876136	 0.14771
H	-0.836516479	-0.4338338358	-0.2081660342	 0.122856
H	 2.7941973775	-0.8286113457	-2.5339301641	 0.225879
H	 1.9918342033	-2.2469543467	 0.8494329289	 0.172743
H	 2.9489345152	-0.8167169394	 1.2052994144	 0.172958
53.482	83.4289	214.5027	234.3288	364.5055	394.4693	474.874	524.478	585.0672	589.4212	663.7425	759.2741	848.3167	899.5132	908.6254	942.352	1017.7751	1068.4162	1104.77	1118.5804	1153.4715	1180.2046	1240.6687	1289.7691	1331.518	1367.979	1401.3431	1418.7218	1485.0743	1496.1987	1783.634	1866.2768	3018.218	3050.0938	3069.2996	3113.5866	3127.8298	3137.5642	3471.1952
CC1OC(=N)CC1=O	C[C@H]1O[C]([NH])CC1=O	
InChI=1S/C5H7NO2/c1-3-4(7)2-5(6)8-3/h3,6H,2H2,1H3	InChI=1S/C5H7NO2/c1-3-4(7)2-5(6)8-3/h3,6H,2H2,1H3/t3-/m1/s1
