16
gdb 94507	4.22588	0.73733	0.66948	4.5627	78.7	-0.2536	-0.0636	0.19	1625.5135	0.122915	-437.824647	-437.815444	-437.8145	-437.860353	31.718	
O	 0.1775764153	 1.4103702471	-0.139700015	-0.416378
C	 0.0839730529	 0.0254326509	 0.0020751557	 0.15914
C	 0.2130444157	-0.5221145385	 1.4477246309	-0.214227
N	-1.2656806014	-0.5625836113	 1.5338823781	-0.306346
C	-1.3824140722	-0.567463666	 0.0535591394	-0.269843
C	-2.4606189045	 0.2129883433	-0.5156442433	 0.139142
C	-3.3412836867	 0.8753083593	-1.0126485717	 0.071677
C	-4.4105427467	 1.6692404513	-1.5596133829	 0.017845
O	-4.6197004407	 1.8192870569	-2.7416256132	-0.227356
H	-0.4210807877	 1.8206772866	 0.4958587305	 0.294716
H	 0.7342983657	-0.4113207914	-0.7557101871	 0.107781
H	 0.7070920453	-1.5034877772	 1.4762693176	 0.099724
H	 0.6939933759	 0.1437967839	 2.1711493722	 0.113273
H	-1.6718647753	-1.3630957355	 2.0059004733	 0.227235
H	-1.3857929372	-1.5737112357	-0.3929878777	 0.103773
H	-5.0519044385	 2.1501984462	-0.7929270968	 0.099843
36.4879	74.7144	77.6318	132.4466	214.2368	222.4342	361.8047	384.0808	405.9189	477.968	522.0087	666.1178	698.538	778.2269	850.5179	902.2226	945.9864	992.9222	1008.275	1020.9506	1058.931	1130.4078	1131.4657	1176.0706	1195.4252	1239.085	1286.7745	1327.2791	1359.3647	1381.4057	1421.9066	1442.6708	1515.0809	1766.8789	2320.5225	2916.6143	2981.9514	3003.7551	3076.7654	3121.6161	3531.6768	3794.0966
OC1CNC1C#CC=O	O[C@H]1CN[C@H]1C#CC=O	
InChI=1S/C6H7NO2/c8-3-1-2-5-6(9)4-7-5/h3,5-7,9H,4H2	InChI=1S/C6H7NO2/c8-3-1-2-5-6(9)4-7-5/h3,5-7,9H,4H2/t5-,6-/m0/s1
