24
gdb 121851	2.74763	0.70888	0.58729	0.7254	90.7	-0.2398	0.0361	0.2759	2018.4741	0.214313	-405.570312	-405.558486	-405.557542	-405.609662	40.647	
C	 0.0470889865	 1.4873195042	-0.0951969344	-0.381974
C	-0.0366853172	-0.0411954613	-0.0693807448	-0.188069
C	-1.473620337	-0.5301661813	 0.0296971632	-0.030371
O	-1.4456177951	-1.961847749	 0.0419842114	-0.257357
C	-2.6379741846	-2.5984359855	 0.1181892886	 0.401587
C	-2.4271516929	-4.0970989328	 0.1067136423	-0.488222
N	-3.7185377046	-1.9406308712	 0.177959179	-0.294207
C	-4.9997243608	-2.6152460114	 0.2616271425	-0.135602
C	-5.8043632877	-2.0872543904	 1.4526423475	-0.356018
H	 1.08566126	 1.8226593478	-0.1670483702	 0.116309
H	-0.4964779803	 1.9019515564	-0.9512239272	 0.118062
H	-0.3821176372	 1.9260392582	 0.8122856824	 0.118056
H	 0.4192721157	-0.4603250393	-0.9739539018	 0.104246
H	 0.5330590759	-0.4374716631	 0.7792525592	 0.104179
H	-1.9652058424	-0.1684449839	 0.9403955026	 0.109469
H	-2.0803120612	-0.1857440718	-0.8159502416	 0.109757
H	-1.360586958	-4.3202869794	 0.1301550989	 0.139953
H	-2.9070956174	-4.5675363427	 0.9692068201	 0.142592
H	-2.8597342043	-4.5423896648	-0.7942889628	 0.143076
H	-5.5552603276	-2.4021003149	-0.6622699463	 0.102119
H	-4.9200851681	-3.7106996319	 0.3306004159	 0.081039
H	-6.8012502473	-2.538970779	 1.4802851888	 0.105137
H	-5.2972776457	-2.3162139952	 2.3954968842	 0.112637
H	-5.9135021187	-1.0010885776	 1.3863934423	 0.123602
22.8062	52.2786	70.1849	82.2286	100.5807	157.7297	211.4233	221.4225	234.5123	293.7249	316.5776	344.9569	434.0358	526.4628	581.3703	619.7722	761.3302	791.7444	823.1438	892.3544	911.7347	947.9731	989.5651	1046.4523	1052.6944	1069.7883	1091.9465	1129.2005	1161.9897	1164.2016	1190.25	1265.4857	1290.2075	1303.4753	1307.4879	1333.0031	1380.3968	1396.7325	1404.3028	1412.9254	1420.784	1479.5233	1482.7635	1488.6299	1491.7014	1497.0005	1500.2589	1504.8007	1514.16	1520.8035	1747.507	2984.7478	3020.5188	3029.5527	3032.638	3036.7004	3038.969	3053.4866	3057.8494	3079.0367	3102.0481	3106.4126	3108.9624	3113.6501	3117.6243	3154.1124
CCCOC(C)=NCC	CCCOC(=NCC)C	
InChI=1S/C7H15NO/c1-4-6-9-7(3)8-5-2/h4-6H2,1-3H3	InChI=1S/C7H15NO/c1-4-6-9-7(3)8-5-2/h4-6H2,1-3H3
