19
gdb 54403	3.22427	1.32133	1.17313	1.788	75.14	-0.2443	-0.02	0.2243	1108.6483	0.159202	-423.022665	-423.01445	-423.013506	-423.056063	31.288	
C	-0.1071669182	 1.4695663019	-0.0192370473	-0.492107
C	-0.1376701339	-0.0477205174	 0.0475653341	 0.256463
O	-0.193027388	-0.6417586933	 1.1013712809	-0.292715
C	-0.0770486153	-0.7874249639	-1.2615597193	 0.205614
C	 1.2630232693	-0.8856938334	-2.0892162052	-0.273803
C	 0.4682226381	-2.0380920817	-2.7459014072	 0.094525
C	-0.1205294233	-2.3427141224	-1.3490317212	-0.269051
O	-0.6042896144	-1.3556260206	-3.4197914037	-0.276807
C	-1.042518744	-0.4241493654	-2.4090827852	-0.124286
H	 0.6868979831	 1.8207750086	-0.6865721492	 0.138213
H	-1.0547183683	 1.8426057055	-0.4263003887	 0.145959
H	 0.0347320115	 1.8784766705	 0.9818341883	 0.144357
H	 1.5422396484	-0.0421337452	-2.7247672873	 0.104601
H	 2.1011686425	-1.2203548781	-1.4764654865	 0.115897
H	 0.9057801946	-2.7810130886	-3.4098442966	 0.086185
H	 0.5803468607	-2.8107238361	-0.6581374933	 0.11782
H	-1.0956689567	-2.8323633946	-1.3133443911	 0.10672
H	-2.0938106789	-0.605188046	-2.1563775993	 0.110049
H	-0.9316988471	 0.6052092603	-2.769640432	 0.102364
42.1221	127.5829	168.7112	175.8209	327.8316	360.325	437.6854	481.1125	520.457	591.0717	611.0089	673.9573	824.8256	855.0223	885.3878	903.0429	932.7121	955.2742	961.2438	989.8494	1008.7787	1021.9668	1045.7329	1094.2941	1119.1154	1130.0776	1171.4407	1203.6573	1211.5916	1234.7512	1239.2675	1285.0458	1316.8278	1370.7162	1386.5898	1462.342	1474.4239	1475.744	1505.5741	1531.664	1799.8409	3022.205	3035.2065	3064.1373	3070.411	3082.9581	3096.9083	3142.1873	3145.7086	3151.8005	3155.4405
CC(=O)C12CC(C1)OC2	CC(=O)[C@@]12C[C@@H](C1)OC2	
InChI=1S/C7H10O2/c1-5(8)7-2-6(3-7)9-4-7/h6H,2-4H2,1H3	InChI=1S/C7H10O2/c1-5(8)7-2-6(3-7)9-4-7/h6H,2-4H2,1H3/t6-,7-
