16
gdb 52339	3.18844	0.69787	0.60819	1.7155	74.51	-0.2555	-0.0444	0.2111	1762.8366	0.119618	-437.839419	-437.829395	-437.828451	-437.876954	33.687	
O	 0.1502687063	 0.1591556418	-0.6911423561	-0.220417
C	 0.3806314407	 1.3373487955	-0.6594575963	 0.130871
C	 1.6355151051	 1.9222807542	-0.0174674908	-0.177642
O	 1.6924543795	 3.3295410278	-0.1650953045	-0.200865
C	 2.3867569984	 3.8051152856	-1.2258839095	 0.136282
N	 2.384048533	 5.0387983401	-1.464036938	-0.238777
C	 3.1574739844	 5.5573529505	-2.5856232386	-0.25886
C	 3.8967055268	 4.5966955679	-3.4105031144	 0.284006
C	 4.4948983626	 3.7913297673	-4.0737707931	-0.466229
H	-0.3080815291	 2.1001867093	-1.086537633	 0.105213
H	 1.6094578498	 1.7084190216	 1.0561674256	 0.157553
H	 2.520075831	 1.4237514142	-0.4344447342	 0.14426
H	 2.9263150596	 3.0430776262	-1.8017059962	 0.103303
H	 2.4695189097	 6.1249278292	-3.2258383197	 0.148
H	 3.8589907128	 6.3015116851	-2.186018757	 0.148433
H	 5.0310012794	 3.0982128338	-4.6743338441	 0.204869
18.9043	50.5513	72.193	115.1262	164.378	233.9383	259.1638	326.2534	334.8878	412.0733	422.7877	580.6224	621.0058	665.3688	684.9701	711.3215	923.3713	954.3379	1017.1274	1023.3003	1026.3126	1074.044	1120.3747	1211.6201	1267.0232	1305.2948	1346.2258	1351.552	1399.3953	1407.7967	1460.9151	1469.3646	1775.986	1843.5835	2227.5992	2895.3658	3020.6633	3031.179	3040.4127	3047.8506	3090.4843	3501.4674
O=CCOC=NCC#C	O=CCOC=NCC#C	
InChI=1S/C6H7NO2/c1-2-3-7-6-9-5-4-8/h1,4,6H,3,5H2	InChI=1S/C6H7NO2/c1-2-3-7-6-9-5-4-8/h1,4,6H,3,5H2
