15
gdb 124903	3.7377	1.27177	1.03343	3.1112	66.7	-0.288	-0.0494	0.2386	1112.607	0.111704	-453.885356	-453.877652	-453.876708	-453.918154	28.208	
C	-0.3139456695	 1.3826153344	-0.8354972361	-0.47034
C	-0.0773373874	 0.1062868357	-0.0651055931	 0.30074
C	 1.0802519479	-0.7587645382	-0.3740687367	-0.215707
O	 1.0809128862	 0.0724156086	 0.7846392083	-0.265053
C	-1.265344683	-0.527224022	 0.5596413261	 0.312009
N	-2.4881774677	-0.3348463789	 0.1410217386	-0.175415
O	-3.2864133981	-1.0788555556	 0.9642311278	-0.145571
N	-2.5512679554	-1.7337501813	 1.9121485278	-0.061847
C	-1.3120427971	-1.4070576071	 1.6811087618	-0.114625
H	 0.6302500037	 1.7582861103	-1.2352624677	 0.13
H	-1.0104352076	 1.2063949925	-1.659708344	 0.149322
H	-0.7500716909	 2.1469040468	-0.1860777448	 0.142791
H	 1.0245461161	-1.8299021723	-0.1863545715	 0.122717
H	 1.7604979481	-0.4581427049	-1.1695362392	 0.128687
H	-0.5050886853	-1.7704402582	 2.2965610225	 0.162294
56.6648	162.4698	177.239	198.5506	316.6562	357.9069	437.8738	482.238	557.7883	647.9909	736.42	806.5322	868.4589	890.3395	908.3908	924.3299	939.7	1015.4607	1024.5957	1054.8309	1103.3268	1134.7811	1141.6637	1167.9051	1256.5283	1367.7091	1414.6437	1436.3134	1472.0255	1480.3264	1498.3776	1524.758	1612.3166	3052.1945	3085.1672	3123.3816	3138.61	3175.8434	3282.2871
CC1(CO1)C1=NON=C1	C[C@]1(CO1)c1nonc1	
InChI=1S/C5H6N2O2/c1-5(3-8-5)4-2-6-9-7-4/h2H,3H2,1H3	InChI=1S/C5H6N2O2/c1-5(3-8-5)4-2-6-9-7-4/h2H,3H2,1H3/t5-/m0/s1
