20
gdb 108902	3.59024	0.91145	0.7704	4.1043	87.9	-0.2035	0.0021	0.2056	1512.9008	0.171396	-403.195596	-403.186244	-403.1853	-403.230709	33.391	
C	 0.1825783814	 1.5501956317	-0.2069530416	-0.372698
C	-0.0869728563	 0.0619335931	 0.0806739526	-0.283688
C	 0.6301944307	-0.46110255	 1.2857856736	 0.240895
C	 0.0841072833	-0.9402430581	 2.4065945567	-0.0984
N	 1.0438261952	-1.3638523628	 3.3389131656	-0.05395
C	 2.391830451	-1.0443123186	 2.8373341402	-0.174785
C	 2.1443667189	-0.569237024	 1.3801089065	-0.326721
C	 0.7626078614	-1.939200559	 4.5397961369	 0.139155
O	-0.354698969	-2.1685558559	 4.9576336388	-0.335847
H	 1.2459154039	 1.7386345138	-0.3867267477	 0.116972
H	-0.3661017486	 1.8780346447	-1.0950980273	 0.116145
H	-0.1300441293	 2.1732326917	 0.6366639177	 0.12215
H	-1.1638620483	-0.0942586131	 0.2085664636	 0.108563
H	 0.2070149855	-0.5243327275	-0.8023975973	 0.102565
H	-0.9558574458	-1.0515421765	 2.6753136102	 0.148887
H	 2.8399480382	-0.2495030794	 3.443695693	 0.123503
H	 3.0432125406	-1.9202700608	 2.8939555485	 0.125246
H	 2.5308735444	-1.2875683083	 0.6446479979	 0.115194
H	 2.6521907055	 0.3798936142	 1.1804247649	 0.117947
H	 1.6847986673	-2.182307885	 5.1037127773	 0.068867
53.6211	71.9817	116.4861	170.1599	180.7137	229.634	266.1849	351.9248	426.1374	492.001	510.9428	590.7789	756.5709	783.0062	837.8825	885.5222	904.5036	933.5007	961.639	985.1726	1018.0427	1052.8837	1071.7229	1103.1961	1166.2949	1203.9659	1245.7102	1252.3461	1259.6185	1303.1674	1321.5106	1350.2101	1359.9234	1407.3229	1439.9206	1448.9919	1478.918	1493.7227	1497.5099	1507.6036	1522.2059	1721.6892	1785.5217	2936.0616	2999.3701	3014.3742	3035.7865	3036.7017	3061.4812	3063.3256	3091.2161	3106.8973	3111.4249	3257.2976
CCC1=CN(CC1)C=O	CCC1=CN(CC1)C=O	
InChI=1S/C7H11NO/c1-2-7-3-4-8(5-7)6-9/h5-6H,2-4H2,1H3	InChI=1S/C7H11NO/c1-2-7-3-4-8(5-7)6-9/h5-6H,2-4H2,1H3
