14
gdb 51722	3.71782	1.01576	0.88156	5.4294	59.67	-0.2804	-0.0123	0.2681	1252.8097	0.10111	-511.031171	-511.023136	-511.022191	-511.065089	27.763	
O	-0.0148183393	 0.0615271769	-0.2623424645	-0.255771
C	 0.0095599439	 1.2353817977	-0.0676302729	 0.179758
O	 1.1415854917	 1.971397083	-0.2275556118	-0.193565
C	 1.0260700484	 3.3711456173	-0.0281880879	 0.199939
C	 2.4448597566	 3.9612066323	 0.0587159667	-0.205542
N	 2.595488171	 4.4530544091	-1.2909716014	-0.365947
C	 1.4004748218	 4.5703847702	-1.9485684884	 0.484492
O	 1.1599972487	 5.0740985418	-3.0040885674	-0.373123
O	 0.4288920638	 3.9784813219	-1.1497368342	-0.234402
H	-0.8532859993	 1.8397150092	 0.267586343	 0.097416
H	 0.4007615555	 3.5743605029	 0.8452183092	 0.114992
H	 2.4957274396	 4.7579331938	 0.8114611125	 0.127073
H	 3.1648271204	 3.1794270118	 0.3101051731	 0.150115
H	 3.3863330573	 4.9842384019	-1.6118452259	 0.274566
50.1394	105.384	129.5389	155.4211	233.159	380.4165	407.0869	464.4544	537.8218	649.9346	737.014	760.4348	806.3795	907.0248	939.7202	1011.8531	1039.878	1066.9637	1081.2087	1117.7907	1161.3435	1215.4014	1240.8496	1324.3298	1379.2727	1397.3997	1437.4401	1450.2729	1522.1588	1881.7404	1920.5442	2973.9559	3024.9365	3081.9181	3106.9666	3682.0319
O=COC1CNC(=O)O1	O=CO[C@H]1CNC(=O)O1	
InChI=1S/C4H5NO4/c6-2-8-3-1-5-4(7)9-3/h2-3H,1H2,(H,5,7)	InChI=1S/C4H5NO4/c6-2-8-3-1-5-4(7)9-3/h2-3H,1H2,(H,5,7)/t3-/m1/s1
