18
gdb 68713	2.38119	1.64793	1.34439	4.4869	81.05	-0.2675	0.0207	0.2883	1034.5586	0.148189	-364.793642	-364.785659	-364.784714	-364.825905	31.141	
C	-0.0171381824	 1.5299104772	 0.0726128164	-0.48597
C	-0.0396888227	 0.0284769129	 0.0200270891	 0.282915
C	 1.1566241688	-0.7956709618	-0.355634105	-0.375613
C	 0.5820974475	-0.9826606972	 1.0387353204	 0.161771
C	 1.3312427028	-0.6765840666	 2.214680302	 0.208138
N	 1.9307879411	-0.4226608118	 3.1725819368	-0.35691
C	-0.6798520295	-1.8141751163	 0.9872536294	-0.125936
C	-1.882840099	-0.9896193215	 1.3570132163	-0.293211
C	-1.2891626751	-0.8283910948	-0.017605959	-0.109435
H	 0.9548344155	 1.9015992975	 0.4104915476	 0.13631
H	-0.2100655629	 1.953272411	-0.9199100455	 0.12904
H	-0.782027853	 1.9136378505	 0.7548469204	 0.130362
H	 1.0693268232	-1.6174375741	-1.0607706219	 0.120065
H	 2.1011450797	-0.2617919628	-0.3980643134	 0.133561
H	-0.7003018694	-2.8967809827	 0.9532191884	 0.102807
H	-2.8218142945	-1.5331254381	 1.3984006314	 0.120179
H	-1.7934321418	-0.1958857942	 2.0931649658	 0.124468
H	-1.8442596082	-1.0705691272	-0.9164919192	 0.097459
117.2206	137.2495	195.143	222.8888	292.0327	370.3103	427.6694	513.3406	539.0248	570.758	596.8792	681.3149	754.8497	787.7884	821.2092	862.3704	932.3068	961.4065	985.083	991.0868	1016.515	1050.0357	1074.6973	1089.6039	1097.7021	1115.331	1133.9643	1176.1057	1245.548	1267.8201	1331.9483	1340.8457	1370.0305	1422.2149	1483.6445	1487.8709	1490.3922	1497.1326	2339.8347	3031.3333	3093.9317	3111.2007	3118.7406	3120.5834	3176.8021	3186.9463	3208.0978	3208.6953
CC12CC1(C#N)C1CC21	C[C@@]12C[C@]1(C#N)[C@H]1C[C@@H]21	
InChI=1S/C8H9N/c1-7-3-8(7,4-9)6-2-5(6)7/h5-6H,2-3H2,1H3	InChI=1S/C8H9N/c1-7-3-8(7,4-9)6-2-5(6)7/h5-6H,2-3H2,1H3/t5-,6+,7+,8+/m1/s1
