17
gdb 37226	3.64075	1.49933	1.21578	1.3268	74.4	-0.2442	0.0029	0.2472	1011.3261	0.137447	-421.766662	-421.759834	-421.75889	-421.797768	27.423	
C	 0.1176720066	 1.4641930284	 0.2765897432	-0.094881
O	 0.9839912678	 2.2633938432	-0.5148774609	-0.262052
C	 2.1671355761	 1.6281189696	-1.0090266675	-0.121098
C	 1.7006692121	 0.5202449664	-1.9409907884	-0.094733
C	 2.4766649392	-0.7622831733	-2.3351873288	-0.00473
O	 2.7893405111	-1.5060774326	-1.1586954437	-0.237517
C	 1.4463791426	-1.6152651491	-1.693792853	-0.102951
C	 0.751468753	-0.384721268	-1.1684407484	 0.315952
C	 0.0183967696	 0.0147813986	-0.1421354584	-0.245075
H	 0.4419452166	 1.4793333293	 1.3333972548	 0.104708
H	-0.8565698108	 1.9675898732	 0.2409220353	 0.120246
H	 2.7361011425	 2.4212723963	-1.5015084915	 0.106001
H	 2.772222213	 1.2061579356	-0.1940593859	 0.106035
H	 1.220001113	 0.9438477631	-2.8307363267	 0.094034
H	 3.0871825268	-0.9390072001	-3.212978354	 0.105864
H	 1.0918309482	-2.6108537978	-1.9287942088	 0.110695
H	-0.5593088272	-0.6542215829	 0.4896763027	 0.099501
154.8685	177.21	286.9043	298.4334	393.7303	439.2361	554.0606	621.5969	664.2683	755.1433	783.6163	832.7188	849.7239	873.5992	876.8525	917.7902	965.9456	1000.8662	1020.9586	1038.9315	1057.6995	1075.3452	1131.8064	1143.129	1191.0616	1223.8339	1240.5802	1257.8586	1277.1051	1302.5101	1338.776	1357.3072	1376.3374	1404.3972	1485.9279	1502.2139	1775.8236	2939.8624	3008.7347	3040.0809	3044.1543	3092.5953	3167.4748	3185.9318	3205.2106
C1OCC2C3OC3C2=C1	C1OC[C@H]2[C@H]3O[C@H]3[C]2[CH]1	
InChI=1S/C7H8O2/c1-2-8-3-5-4(1)6-7(5)9-6/h1,5-7H,2-3H2	InChI=1S/C7H8O2/c1-2-8-3-5-4(1)6-7(5)9-6/h1,5-7H,2-3H2/t5-,6+,7-/m1/s1
