21
gdb 93898	2.67925	1.51759	1.21537	2.1629	78.13	-0.2533	0.0853	0.3386	1123.499	0.182923	-424.221856	-424.213271	-424.212327	-424.254759	33.371	
C	-0.170806413	 1.555926077	 0.0295505524	-0.386247
C	 0.0422950012	 0.0367062146	-0.0028496729	-0.025067
C	 0.7959018291	-0.4184735118	-1.2636786537	-0.088791
O	 2.1810074044	-0.1344387213	-1.1829075323	-0.257179
C	 2.8584098408	-0.9549915601	-0.2445083386	 0.103501
C	 4.2987619157	-0.4644811785	-0.1707949566	-0.404643
C	 2.1783629407	-0.9342275237	 1.1134075107	 0.032807
O	 1.9115705956	 0.3555607446	 1.6594682768	-0.248121
C	 0.7965822249	-0.4425639091	 1.234170962	 0.030803
H	 0.7929955742	 2.0680371365	-0.0097327613	 0.145366
H	-0.7764408523	 1.8789797591	-0.8232182679	 0.107005
H	-0.6816719572	 1.8664681483	 0.9463150087	 0.113607
H	-0.9354379712	-0.462267439	-0.0039299587	 0.071864
H	 0.6430380991	-1.4992815785	-1.4232600164	 0.082224
H	 0.4258688247	 0.1076675334	-2.1493459055	 0.103968
H	 2.8379893613	-2.0034250104	-0.5974151734	 0.062944
H	 4.3225771137	 0.5518500161	 0.2304855017	 0.14092
H	 4.8951150602	-1.1135513052	 0.4774813875	 0.112798
H	 4.7448646368	-0.4603659281	-1.1684423097	 0.124453
H	 2.5536417145	-1.6682600692	 1.8286800264	 0.088409
H	 0.1860473868	-0.8023783547	 2.062633751	 0.089379
80.0506	190.1402	213.855	226.2604	243.715	279.7498	334.181	369.4385	430.4364	493.5829	553.8275	676.6492	726.7735	754.8871	817.4361	858.4308	871.2388	949.6702	964.0616	974.8626	999.7457	1039.579	1063.2291	1101.3076	1123.6138	1138.8112	1144.7703	1177.3463	1195.3073	1281.4029	1294.608	1332.6743	1343.2351	1355.9223	1367.0344	1380.3705	1397.9377	1405.3192	1425.5499	1465.9447	1483.8602	1489.4394	1499.4453	1502.8067	1503.6953	2928.2995	2961.0716	3024.4987	3040.3135	3047.6687	3075.7826	3092.3748	3104.3769	3107.1379	3122.2549	3133.0801	3134.9977
CC1COC(C)C2OC12	C[C@H]1CO[C@@H](C)[C@H]2O[C@@H]12	
InChI=1S/C7H12O2/c1-4-3-8-5(2)7-6(4)9-7/h4-7H,3H2,1-2H3	InChI=1S/C7H12O2/c1-4-3-8-5(2)7-6(4)9-7/h4-7H,3H2,1-2H3/t4-,5-,6-,7+/m0/s1
