16
gdb 36061	2.14656	1.48565	1.07135	6.1784	73.09	-0.2645	-0.0045	0.26	1141.1076	0.124818	-396.928072	-396.919512	-396.918568	-396.961782	30.887	
N	-0.0349136729	-1.002394143	 0.5935919769	-0.293043
C	 0.0076469979	 0.1186951001	 0.3174416592	 0.273286
C	 0.0992272113	 1.5439072656	 0.0119046103	-0.402269
C	 1.5700137595	 2.0082203235	-0.1891306206	 0.155434
C	 1.7300145632	 3.547716079	 0.0324667958	-0.28286
C	 2.2673928319	 3.1797791334	 1.4384957386	-0.162087
N	 2.462955432	 1.7939839769	 0.9600652155	-0.31995
C	 2.0883287515	 1.4775695045	-1.4584997189	 0.283138
N	 2.4825577566	 1.0895634601	-2.4728004533	-0.327682
H	-0.4924423114	 1.768142617	-0.8818731915	 0.172647
H	-0.3368804056	 2.1058236895	 0.8447285584	 0.158847
H	 2.4894012062	 3.978684852	-0.6186383549	 0.1472
H	 0.8139900056	 4.135797216	-0.0288764089	 0.123206
H	 3.1888322063	 3.6727041454	 1.7590230227	 0.126032
H	 1.514291089	 3.2959633049	 2.2291327001	 0.106095
H	 2.2300153388	 1.0229806053	 1.5770951307	 0.242006
63.8654	114.8832	143.0455	187.145	209.0288	323.7031	374.3164	393.7718	484.4736	534.3642	567.3344	645.6023	724.6261	777.0131	878.2624	896.7219	935.6748	962.9124	981.5174	1027.8153	1083.6645	1115.8172	1159.7737	1171.5965	1207.4839	1255.9223	1286.5706	1320.8323	1335.0233	1388.9574	1457.6069	1486.4896	1530.5426	2358.2062	2364.0218	3012.5809	3051.6931	3086.8182	3096.2511	3098.2573	3160.9389	3533.7147
N#CCC1(CCN1)C#N	N#CC[C@]1(CCN1)C#N	
InChI=1S/C6H7N3/c7-3-1-6(5-8)2-4-9-6/h9H,1-2,4H2	InChI=1S/C6H7N3/c7-3-1-6(5-8)2-4-9-6/h9H,1-2,4H2/t6-/m0/s1
