19
gdb 56598	3.07722	0.93521	0.92238	4.2851	76.29	-0.2633	0.0338	0.2971	1372.3728	0.159066	-419.19605	-419.186325	-419.18538	-419.230821	35.587	
N	-0.2067098794	 1.462502044	-0.0776352337	-0.507427
C	 0.0429030834	 0.0251398534	 0.0004428904	-0.126439
C	 0.7118110912	-0.5233380541	-1.2015113773	 0.267636
N	 1.2035941728	-0.923837307	-2.1681860485	-0.327953
C	 0.8701394768	-0.2893697823	 1.2658001294	 0.124147
O	 2.0651088796	 0.4707466471	 1.1390956515	-0.445496
C	 0.1154520415	 0.044574277	 2.5301469813	-0.010065
C	-0.7297236843	-1.0052696522	 3.2031606427	-0.270702
C	 0.5682068678	-0.5710575706	 3.8350787149	-0.294741
H	 0.6901462792	 1.9389843351	-0.1017326967	 0.252814
H	-0.6986075058	 1.6895705998	-0.9354636025	 0.243536
H	-0.9173257987	-0.4937021749	 0.1006405982	 0.131142
H	 1.1001607139	-1.3670244854	 1.2587412464	 0.080936
H	 2.4838381373	 0.5016315268	 2.0051720656	 0.291525
H	-0.2490862567	 1.0653284364	 2.5634496483	 0.113335
H	-1.6600368414	-0.6918409418	 3.6623549939	 0.122029
H	-0.7645771086	-1.9955805383	 2.7602774016	 0.117819
H	 1.3946805295	-1.2752611314	 3.8112172457	 0.116344
H	 0.5310218519	 0.0395413383	 4.7299615088	 0.12156
74.2435	84.5585	123.8252	185.0993	240.4332	255.7171	272.3247	303.3088	330.8466	365.6369	447.4985	493.8769	584.2506	716.9315	782.0668	831.625	846.2218	869.4606	907.4657	939.9128	980.8786	985.62	1049.2638	1063.083	1086.0668	1125.4999	1146.9927	1165.4387	1199.9512	1200.9534	1219.953	1288.3259	1307.8053	1338.4482	1388.0236	1394.3513	1441.5666	1470.1142	1504.9745	1646.1767	2346.7704	2973.26	3052.7438	3126.848	3134.3453	3176.9587	3208.882	3224.3789	3505.8782	3589.0904	3824.1304
NC(C#N)C(O)C1CC1	N[C@@H](C#N)[C@@H](O)C1CC1	
InChI=1S/C6H10N2O/c7-3-5(8)6(9)4-1-2-4/h4-6,9H,1-2,8H2	InChI=1S/C6H10N2O/c7-3-5(8)6(9)4-1-2-4/h4-6,9H,1-2,8H2/t5-,6-/m0/s1
