20
gdb 17104	4.36852	1.48726	1.40983	0.2491	80.6	-0.2122	0.0237	0.2359	1000.0382	0.178784	-311.844999	-311.837644	-311.8367	-311.876683	29.138	
C	-0.235226324	 1.5115806583	-0.1033296974	-0.371212
C	 0.1498202535	 0.0246140813	 0.0043660692	-0.321565
C	 0.8100233434	-0.5050616595	-1.2246100678	 0.372625
C	 2.0439447818	-0.9757454505	-1.4401600934	-0.211437
C	 2.0401972707	-1.3459411162	-2.9305761219	-0.057144
C	 1.3125056374	-0.0930088238	-3.528817508	-0.204792
C	 0.1551989962	-0.6293320275	-2.6183401985	-0.109964
C	 0.6472372471	-2.0577319019	-3.0359247643	-0.205204
H	 0.6519891802	 2.1324551398	-0.2616178614	 0.119714
H	-0.9175011386	 1.6854417393	-0.9416854302	 0.119129
H	-0.7332001993	 1.8529003101	 0.8095817519	 0.111184
H	 0.8154331115	-0.1208945346	 0.8632313307	 0.101559
H	-0.7592517169	-0.5574062321	 0.2142671221	 0.102018
H	 2.8680635444	-1.0900318121	-0.7492636308	 0.090452
H	 2.9456114935	-1.7628223189	-3.3710340484	 0.056108
H	 1.7265502506	 0.8899803289	-3.2915872915	 0.088914
H	 1.0994477406	-0.1801762076	-4.5995699298	 0.088099
H	-0.8807434963	-0.3097049385	-2.7373920281	 0.054585
H	 0.3705827789	-2.3306234385	-4.0599405539	 0.088079
H	 0.4495741154	-2.8813119059	-2.3454218886	 0.088853
78.5679	127.4433	207.0196	289.3497	366.2178	493.2866	504.4718	584.434	644.7741	771.5712	786.8432	803.3773	831.7746	844.3813	865.4383	879.5214	933.204	953.9883	1002.34	1014.7369	1049.3308	1065.1767	1080.8573	1085.6697	1109.1877	1113.934	1195.923	1223.4636	1225.6056	1235.4409	1244.1626	1270.2211	1285.0916	1335.559	1350.2556	1405.923	1477.0971	1477.846	1497.2528	1506.4195	1513.4564	1686.1153	3001.2641	3035.3216	3036.4864	3046.7081	3054.654	3104.9709	3107.8919	3109.0328	3110.4181	3114.2977	3117.7633	3221.4946
CCC1=CC2CC1C2	CCC1=C[C@@H]2C[C@H]1C2	
InChI=1S/C8H12/c1-2-7-3-6-4-8(7)5-6/h3,6,8H,2,4-5H2,1H3	InChI=1S/C8H12/c1-2-7-3-6-4-8(7)5-6/h3,6,8H,2,4-5H2,1H3/t6-,8+
