19
gdb 83854	2.13187	1.74408	1.30127	2.4763	75.33	-0.2312	-0.0087	0.2225	1052.3889	0.161023	-423.045144	-423.037178	-423.036234	-423.077566	31.373	
O	 0.0054833911	 1.3940726259	 0.0946737416	-0.405658
C	-0.0037008288	 0.0031895436	-0.006018321	 0.080386
C	-1.3292041921	-0.6750809355	 0.0450884306	-0.087949
C	-2.607962977	 0.1615720188	 0.118296736	-0.219329
C	-3.1980897804	 0.4827103629	-1.2620597411	-0.208888
C	-2.1324759849	 1.078171815	-2.1988333972	-0.299406
C	-1.0042788527	 0.0881873861	-2.4419611512	 0.396724
O	-0.529283085	-0.0962116428	-3.5433290741	-0.337315
C	-0.5275523108	-0.6966811492	-1.2636082768	-0.189024
H	 0.7591737602	 1.7289714039	-0.4030255039	 0.298798
H	 0.8374532931	-0.4898607124	 0.4795120737	 0.099627
H	-1.3516651369	-1.6165148786	 0.5841952619	 0.098777
H	-3.3463454506	-0.3787296661	 0.7180067394	 0.10078
H	-2.3956069976	 1.0976946789	 0.6452512543	 0.123944
H	-3.6042215483	-0.4316738161	-1.7131233688	 0.105014
H	-4.0361526044	 1.1801866077	-1.1581574073	 0.10054
H	-2.5422772825	 1.3597851861	-3.1719441932	 0.114009
H	-1.7057239519	 1.9750048055	-1.7326374602	 0.124998
H	-0.0053055807	-1.6048340836	-1.5443221029	 0.103972
83.9019	153.7634	198.1627	284.3141	337.866	384.6273	409.3914	452.9661	480.1235	574.1631	618.0215	720.4406	725.9324	752.5204	810.9646	888.4938	904.0852	918.1405	954.822	1014.5769	1035.4821	1045.8177	1090.3483	1119.71	1131.457	1176.4019	1201.4805	1238.8042	1251.8479	1279.7304	1296.2363	1344.0992	1357.2948	1365.4725	1376.8169	1383.764	1449.9411	1460.5178	1492.55	1500.5378	1788.1153	3025.6793	3037.879	3047.5284	3071.9284	3090.0804	3106.9901	3107.9265	3157.3045	3174.5705	3807.2965
OC1C2CCCC(=O)C12	O[C@H]1[C@H]2CCCC(=O)[C@@H]12	
InChI=1S/C7H10O2/c8-5-3-1-2-4-6(5)7(4)9/h4,6-7,9H,1-3H2	InChI=1S/C7H10O2/c8-5-3-1-2-4-6(5)7(4)9/h4,6-7,9H,1-3H2/t4-,6-,7-/m0/s1
