21
gdb 56883	3.19817	0.90924	0.75503	1.0934	84.95	-0.2544	0.0552	0.3096	1525.662	0.180355	-387.047724	-387.037752	-387.036808	-387.082734	37.441	
C	 0.0790010184	 1.4860143395	 0.1119777298	-0.393831
C	-0.060825983	-0.045443219	 0.0019384083	-0.177304
C	-1.4677721217	-0.445898983	-0.0203699479	 0.334495
C	-2.626016918	-0.766689934	-0.0633214142	-0.476265
C	 0.6788594108	-0.5942906894	-1.2274751009	 0.05593
C	 2.2308717421	-0.4903039186	-1.2620567143	-0.266583
C	 2.266476897	-1.8892845299	-1.9073221257	 0.140964
O	 3.3117031429	-2.7070601117	-1.4351506328	-0.431939
C	 0.8208840085	-2.1322044615	-1.3912336479	-0.28382
H	 1.1348542988	 1.768033453	 0.1646326466	 0.120435
H	-0.3670279919	 1.9769778327	-0.7583471537	 0.124231
H	-0.4243439517	 1.8611995947	 1.0066837885	 0.124819
H	 0.4041401835	-0.4941482301	 0.8920036353	 0.099963
H	-3.647484572	-1.0550187492	-0.089030977	 0.192323
H	 0.2420043659	-0.1518359322	-2.1291018247	 0.076902
H	 2.6926822603	 0.3400086578	-1.7999565225	 0.099398
H	 2.6543131065	-0.5463890769	-0.2535697608	 0.110289
H	 2.2833140175	-1.8163435764	-3.0046003593	 0.065564
H	 3.2550707216	-3.558418977	-1.8807301641	 0.281289
H	 0.8550338356	-2.6306952598	-0.4170544687	 0.10566
H	 0.1114139189	-2.6519526789	-2.038608564	 0.097481
63.2622	82.6915	121.7721	200.2429	225.7093	241.7818	266.5623	342.7751	366.8858	408.5562	450.8258	482.2923	552.0276	621.0381	630.58	636.1193	776.5556	811.3467	861.0446	927.6394	939.487	983.6966	1015.5392	1025.9377	1049.12	1090.2916	1118.3452	1124.6101	1181.3893	1205.8813	1220.0481	1253.1829	1265.9656	1276.326	1302.4258	1327.3619	1336.431	1377.7212	1406.1322	1431.1058	1469.6597	1492.8969	1498.3648	1499.3347	2231.6987	2990.1314	2997.6958	3040.4313	3049.5955	3051.0549	3057.7763	3113.7904	3114.4658	3118.3071	3120.9745	3505.0308	3814.899
CC(C#C)C1CC(O)C1	C[C@@H](C#C)[C@H]1C[C@@H](O)C1	
InChI=1S/C8H12O/c1-3-6(2)7-4-8(9)5-7/h1,6-9H,4-5H2,2H3	InChI=1S/C8H12O/c1-3-6(2)7-4-8(9)5-7/h1,6-9H,4-5H2,2H3/t6-,7-,8+/m0/s1
