22
gdb 30647	3.54124	0.96851	0.83261	1.8515	89.36	-0.1931	0.0498	0.2429	1470.5656	0.195087	-367.260979	-367.25142	-367.250476	-367.296036	36.007	
C	-0.2406767446	 1.609138592	 0.3758376664	-0.391428
C	-0.2024238064	 0.0790699202	 0.3147266017	-0.155943
C	-1.4853303228	-0.5795247261	-0.2540426608	-0.09363
C	-1.7315647168	-0.196076039	-1.7199690469	-0.395667
C	-1.4441351089	-2.0734742665	-0.0830388511	 0.319511
C	-1.2073316075	-3.1020490206	-0.9714021935	-0.231881
C	-1.2514276863	-4.3286191988	-0.2488459921	-0.142533
C	-1.5150967165	-4.0207204034	 1.0632737628	-0.101019
N	-1.6268500644	-2.6544187697	 1.1526129339	-0.29646
H	 0.6609759703	 2.0014653174	 0.8565829028	 0.113039
H	-0.3018429481	 2.0590917386	-0.61956502	 0.120446
H	-1.1036873195	 1.9620578796	 0.9527044732	 0.109831
H	 0.652775201	-0.25326207	-0.2872454443	 0.102318
H	-0.0276994404	-0.3140902516	 1.3237850833	 0.086065
H	-2.333178665	-0.1964782023	 0.3364937286	 0.067115
H	-1.8655474845	 0.8829442691	-1.8304267731	 0.112107
H	-0.8849960986	-0.4931282296	-2.3487547785	 0.120035
H	-2.6268947844	-0.6901124175	-2.1068543261	 0.121505
H	-1.0237911573	-2.9888332893	-2.0285698607	 0.085593
H	-1.110958527	-5.3204782622	-0.650384473	 0.088076
H	-1.6382355995	-4.6466973832	 1.932437508	 0.110317
H	-1.8358935729	-2.1476310371	 1.9952431493	 0.252601
32.4069	90.5126	121.9223	202.9279	227.252	274.6035	283.8291	347.1814	389.0817	467.5069	478.706	628.3327	659.0691	699.3851	724.6453	780.1635	793.5934	839.2798	849.9979	895.284	953.229	970.4601	993.8996	1033.4027	1055.007	1085.6259	1123.5596	1127.9103	1144.2975	1177.6665	1236.3942	1279.0347	1286.6786	1328.7099	1359.4339	1376.3184	1406.8288	1414.1972	1439.03	1455.7748	1482.6892	1493.244	1497.0924	1503.7476	1508.236	1512.0097	1611.5533	2968.9164	3023.5679	3031.0605	3039.5026	3056.8617	3095.9808	3105.4427	3109.0087	3121.2874	3240.8712	3254.3602	3269.7085	3675.0767
CCC(C)C1=CC=CN1	CC[C@@H](C)c1ccc[nH]1	
InChI=1S/C8H13N/c1-3-7(2)8-5-4-6-9-8/h4-7,9H,3H2,1-2H3	InChI=1S/C8H13N/c1-3-7(2)8-5-4-6-9-8/h4-7,9H,3H2,1-2H3/t7-/m1/s1
