16
gdb 34528	3.84729	1.31225	1.23727	4.5928	79.96	-0.2438	-0.0518	0.192	1031.3784	0.127495	-363.623057	-363.616469	-363.615525	-363.654009	26.858	
N	 0.0603555875	-1.1452334341	-0.0203518574	-0.347807
C	-0.0162417593	 0.0118417549	-0.0176043573	 0.171102
C	-0.0606747006	 1.4231223191	-0.0227410509	 0.244639
C	-1.1335483383	 2.2278641054	-0.0039351502	-0.172394
C	-0.6148331961	 3.6726755576	 0.036727149	-0.109527
C	 0.6376636773	 3.4926153327	-0.8768892279	-0.203489
C	 1.1929931841	 2.3398833559	 0.0113767454	-0.167559
C	 1.1825320536	 3.0636322523	 1.3699797079	-0.074662
C	 0.1111907393	 3.8552086302	 1.3868805987	-0.071252
H	-2.1735550471	 1.9339984652	 0.0247663607	 0.129779
H	-1.3395955421	 4.4405724771	-0.2282665769	 0.075579
H	 0.3922842574	 3.176383106	-1.8942331925	 0.107112
H	 1.2855129866	 4.3720083059	-0.8899293477	 0.10831
H	 2.1252979099	 1.8617483464	-0.2819063835	 0.085969
H	 1.9039892443	 2.8905283193	 2.1562678407	 0.113542
H	-0.2529922266	 4.4791135461	 2.1912931919	 0.110658
121.8422	163.4639	402.9024	436.3464	464.9719	507.5147	541.6299	589.5312	638.0768	737.2482	753.7374	808.233	852.9934	864.9468	891.156	907.6623	930.239	932.9755	950.1649	964.2691	1039.4089	1092.1768	1128.3907	1142.8981	1197.5547	1227.8798	1245.2869	1262.7249	1273.4476	1289.2546	1330.6484	1494.0803	1627.8507	1659.5514	2330.0355	3062.7906	3126.254	3132.782	3142.712	3218.5049	3235.494	3244.1638
N#CC1=CC2CC1C=C2	N#CC1=C[C@@H]2C[C@H]1C=C2	
InChI=1S/C8H7N/c9-5-8-4-6-1-2-7(8)3-6/h1-2,4,6-7H,3H2	InChI=1S/C8H7N/c9-5-8-4-6-1-2-7(8)3-6/h1-2,4,6-7H,3H2/t6-,7+/m0/s1
