14
gdb 66411	2.36265	1.55205	1.28805	1.6616	69.87	-0.249	0.001	0.25	1016.3764	0.09844	-436.604731	-436.596536	-436.595591	-436.637414	30.789	
O	-0.06586513	 1.4654539052	 0.0003653656	-0.434295
C	 0.0037845101	 0.1028032992	-0.0555975115	 0.239082
C	-1.0903785667	-0.9208182723	-0.1127610096	 0.024299
O	-0.3544673938	-1.7092606112	-1.0779861077	-0.262772
C	 0.6480063793	-0.7357881047	-1.1261822561	 0.387104
N	 1.6556858209	-0.621312596	-1.8546165239	-0.559048
C	-0.2958121306	-0.8134271566	 1.1670215746	-0.335702
C	 0.5749675079	-1.8380336897	 1.6593438362	 0.339059
C	 1.3142542773	-2.6869595413	 2.0810398634	-0.422821
H	 0.7842464737	 1.8026904413	 0.3076126317	 0.308362
H	-2.1641197013	-0.8584463449	-0.2215243969	 0.140545
H	 1.7444277357	-1.4026512452	-2.5059958615	 0.239008
H	-0.8220059104	-0.2311984895	 1.9222280518	 0.135242
H	 1.9655513979	-3.4416650743	 2.4468929039	 0.201935
97.2058	130.8656	201.4859	204.5801	304.4854	331.0277	363.7324	471.8898	480.2464	602.4438	631.1594	664.0883	669.4288	714.8103	750.5165	832.6401	869.7653	918.5557	930.48	938.3498	1005.3473	1015.9708	1066.6692	1156.278	1215.5566	1266.8203	1320.4445	1343.1168	1492.715	1844.9454	2240.2875	3130.9637	3223.373	3485.699	3503.1315	3791.1119
OC12C(OC1=N)C2C#C	O[C@@]12[C@@H](O[C]1[NH])[C@H]2C#C	
InChI=1S/C6H5NO2/c1-2-3-4-6(3,8)5(7)9-4/h1,3-4,7-8H	InChI=1S/C6H5NO2/c1-2-3-4-6(3,8)5(7)9-4/h1,3-4,7-8H/t3-,4+,6+/m1/s1
