14
gdb 11234	4.73068	1.45923	1.29111	2.1979	59.25	-0.2271	-0.024	0.2031	927.3655	0.107916	-415.888696	-415.881288	-415.880344	-415.921047	26.444	
N	-0.0572984112	 1.4131803154	-0.4006425157	-0.573743
C	-0.0906113904	 0.0663860067	-0.192773953	 0.485676
N	-1.1375055814	-0.6683821331	-0.1389795932	-0.368611
C	-0.6438769325	-2.0333874896	 0.0734190902	-0.083782
C	 0.8974726024	-1.9273036102	 0.0089282158	-0.124618
O	 1.1355307311	-0.5046692906	-0.0870430153	-0.249866
C	-1.162903481	-2.5367160813	 1.4182020458	 0.155993
O	-0.4845910812	-3.0670566007	 2.2600928991	-0.243156
H	 0.7795547311	 1.8848287333	-0.0972481966	 0.268278
H	-0.9229828222	 1.892599215	-0.2128730108	 0.272168
H	-1.0450270677	-2.7113092651	-0.6947310024	 0.101681
H	 1.3743718941	-2.3104027055	 0.9135087127	 0.144091
H	 1.3288542264	-2.4075536341	-0.8725977356	 0.119043
H	-2.2476119175	-2.3519089302	 1.5683858189	 0.096847
56.1698	102.5156	196.5232	263.6837	351.2199	397.2325	443.5953	508.4208	613.3033	706.9577	724.7816	743.2336	842.9021	931.3628	945.977	1019.5271	1039.8618	1080.275	1096.0746	1171.1667	1221.3122	1255.2435	1324.0109	1355.4348	1407.2764	1437.858	1525.3062	1618.153	1742.4261	1829.1194	2916.0007	2991.4472	3068.4516	3125.36	3600.6624	3716.915
NC1=NC(CO1)C=O	NC1=N[C@@H](CO1)C=O	
InChI=1S/C4H6N2O2/c5-4-6-3(1-7)2-8-4/h1,3H,2H2,(H2,5,6)	InChI=1S/C4H6N2O2/c5-4-6-3(1-7)2-8-4/h1,3H,2H2,(H2,5,6)/t3-/m1/s1
