13
gdb 43537	2.53493	1.52529	1.09395	1.1287	65.3	-0.2975	-0.0263	0.2712	1053.8948	0.088394	-452.713996	-452.706357	-452.705413	-452.746601	27.571	
N	-0.0865607131	 1.2342437996	-0.5799542883	-0.535377
C	-0.0545001685	 0.0830328548	-0.1040401	 0.399838
O	 0.9842041654	-0.6546752708	 0.4670169233	-0.271353
C	 0.1495729282	-1.8399621046	 0.6364344917	-0.088391
C	 0.0813497676	-2.292639284	 2.0192353357	 0.290519
N	-0.0062328098	-2.6663759064	 3.1088298471	-0.308087
C	-1.0464503966	-1.0286945223	 0.0911754298	 0.281534
C	-2.4612683405	-1.0146807194	 0.4558752146	-0.244274
O	-1.9955558589	-1.4860882682	-0.8210356468	-0.240851
H	 0.8174821283	 1.7056388886	-0.5392009858	 0.248217
H	 0.4755597335	-2.6482563326	-0.0237339603	 0.160865
H	-2.8425077725	-1.7811509114	 1.127206851	 0.150668
H	-2.9979984032	-0.0695413933	 0.4336401178	 0.156692
85.5982	121.1246	218.2768	234.9076	251.9591	345.4531	425.9449	518.1303	595.3815	619.1422	686.9883	765.5318	857.9444	867.506	916.3799	928.3881	986.0164	1023.6271	1034.2221	1123.3631	1130.7764	1166.4677	1206.728	1257.2043	1350.5936	1443.3098	1530.6391	1851.2289	2364.2378	3087.2481	3103.3723	3205.028	3497.8956
N=C1OC(C#N)C11CO1	[NH][C]1O[C@@H](C#N)[C@]21CO2	
InChI=1S/C5H4N2O2/c6-1-3-5(2-8-5)4(7)9-3/h3,7H,2H2	InChI=1S/C5H4N2O2/c6-1-3-5(2-8-5)4(7)9-3/h3,7H,2H2/t3-,5-/m0/s1
