19
gdb 53391	2.98485	0.99314	0.82592	1.8755	84.85	-0.2281	0.0442	0.2724	1454.0474	0.157251	-385.830483	-385.820948	-385.820004	-385.867084	33.898	
C	 0.0136679457	 1.4540301256	-0.2541776122	-0.498325
C	 0.0264669653	 0.0033700795	-0.1312243675	 0.053896
C	 0.0450258884	-1.1968254135	-0.0267508565	 0.109163
C	 0.0493460561	-2.6387911674	 0.0999361892	-0.340383
C	 0.0841286728	-3.2682983651	 1.5231126658	-0.082898
O	-1.0829178796	-4.0692653471	 1.2442499462	-0.303986
C	-1.2854554752	-3.400084518	 0.0010373699	 0.476651
C	-2.6196022315	-2.8972738333	-0.4302121713	-0.336611
C	-1.9417775902	-4.0509797259	-1.1649192201	-0.338484
H	 0.9087959403	 1.8978396061	 0.1955994932	 0.149711
H	-0.0162139752	 1.7643988788	-1.3045218885	 0.148863
H	-0.8586181303	 1.8895050082	 0.2455016512	 0.149576
H	 0.8099666413	-3.0821188506	-0.5509858828	 0.107722
H	 0.9582052571	-3.8840363412	 1.7569714155	 0.108612
H	-0.0936044986	-2.5483412642	 2.3294949708	 0.110181
H	-3.4662249675	-3.1395393951	 0.2030371741	 0.123065
H	-2.6661479527	-1.9265476449	-0.9128978257	 0.122559
H	-1.5370160443	-3.8726430177	-2.1562797438	 0.116138
H	-2.3447317218	-5.0463428041	-1.0098576675	 0.12455
14.0924	61.7731	81.6707	137.7673	229.1928	244.828	314.6993	338.2256	420.731	472.1109	508.1989	579.8762	703.6734	756.7517	864.8547	871.065	894.5182	924.6037	985.7463	989.9912	1022.7684	1047.4378	1051.9417	1053.5994	1066.8119	1070.8543	1161.6685	1185.4065	1193.5919	1218.4188	1223.222	1334.753	1352.3497	1385.2821	1415.0703	1446.308	1477.7162	1478.7415	1493.7087	1525.9226	2368.4298	3026.3897	3031.595	3047.4234	3086.879	3087.2951	3087.8227	3125.1049	3129.8714	3209.6008	3224.9001
CC#CC1COC11CC1	CC#C[C@H]1COC21CC2	
InChI=1S/C8H10O/c1-2-3-7-6-9-8(7)4-5-8/h7H,4-6H2,1H3	InChI=1S/C8H10O/c1-2-3-7-6-9-8(7)4-5-8/h7H,4-6H2,1H3/t7-/m0/s1
