18
gdb 54410	3.28653	1.38938	1.16101	14.1697	73.83	-0.1678	-0.0132	0.1546	1068.5287	0.150296	-439.038329	-439.030729	-439.029784	-439.070947	29.517	
O	 0.2466805553	 0.5951265292	-1.0784682854	-0.486974
C	 0.0597450657	 1.1864671616	 0.0034118656	 0.271269
O	 0.7108250619	 1.290942905	 1.0513657869	-0.480966
C	-1.2940240227	 1.9623692591	 0.0325953256	 0.247075
C	-2.358761643	 1.7626012891	 1.161993603	-0.257882
C	-2.8590053948	 3.1352277335	 0.6798384225	-0.058917
C	-1.3890912108	 3.483393004	 0.388371504	-0.257864
N	-3.3434556083	 2.7721021573	-0.7350987162	-0.269535
H	-4.2254901657	 2.2610274465	-0.7157966743	 0.29991
H	-3.4714249023	 3.5992055341	-1.3174033054	 0.299911
C	-2.1441874643	 1.8782358396	-1.2201693611	-0.244532
H	-3.0433344121	 0.9094923884	 1.112854528	 0.098318
H	-1.8789954237	 1.8172418337	 2.1379883158	 0.159865
H	-3.5953346579	 3.7727504722	 1.1749769692	 0.098225
H	-0.8249221157	 3.6877810707	 1.2970318921	 0.159869
H	-1.171277766	 4.2316692058	-0.3807117095	 0.098324
H	-1.7022765428	 2.3334059184	-2.1040581527	 0.161959
H	-2.5192287928	 0.8836584218	-1.452300868	 0.161946
55.1855	136.3738	163.3875	321.6552	345.0549	436.9582	451.7363	543.1567	640.2569	716.6876	738.487	772.1226	799.4296	830.631	837.9372	853.9337	900.7767	940.857	961.7803	985.1411	999.1253	1095.5971	1103.0016	1125.9471	1130.4594	1175.2697	1200.8065	1222.1459	1229.5936	1261.9839	1291.8221	1302.5265	1333.3575	1342.556	1479.4262	1489.1453	1516.3844	1639.5747	1784.1648	3052.8266	3055.4062	3088.0829	3124.709	3156.51	3162.9444	3193.8976	3453.8273	3529.5096
[O-]C(=O)C12CC(C1)[NH2+]C2	O=C([O])[C@@]12C[C@@H](C1)[NH2]C2	
InChI=1S/C6H9NO2/c8-5(9)6-1-4(2-6)7-3-6/h4,7H,1-3H2,(H,8,9)	InChI=1S/C6H9NO2/c8-5(9)6-1-4(2-6)7-3-6/h4H,1-3,7H2/t4-,6-
