12
gdb 27656	3.15477	1.31887	0.93099	4.6426	64.89	-0.2172	-0.0142	0.203	1130.1222	0.078724	-468.853316	-468.845604	-468.84466	-468.88557	28.291	
N	 0.1235933342	 1.3551129966	-0.1226040473	-0.599628
C	-0.0285537995	-0.0004239946	-0.0544989599	 0.316446
C	-1.0976887963	-0.8529779303	-0.0324798944	 0.091623
N	-0.6195473337	-2.183050016	-0.0738004815	-0.424412
C	 0.6519765256	-2.0380338454	-0.1037453437	 0.467695
O	 1.6166603203	-2.9498802379	-0.1319794892	-0.397689
O	 1.1089339393	-0.7532444818	-0.09878848	-0.18237
C	-2.4568357825	-0.4868921543	 0.0290789443	 0.194008
N	-3.5585014743	-0.127830467	 0.085768407	-0.354811
H	 0.938692895	 1.7215101811	 0.3497963927	 0.27506
H	-0.7196255665	 1.8733590556	 0.0804818486	 0.284213
H	 1.1878151784	-3.8157579062	-0.1227602463	 0.329866
131.4038	140.1693	220.3639	254.0127	323.144	349.2644	421.215	453.7473	535.0582	540.8152	597.649	631.7333	678.8558	721.7929	732.4509	830.8657	998.1084	1050.9204	1186.2535	1202.66	1290.6554	1409.0527	1483.2455	1612.5318	1668.6627	1731.5623	2331.4198	3559.4838	3664.6751	3804.2531
NC1=C(N=C(O)O1)C#N	Nc1c(nc(O)o1)C#N	
InChI=1S/C4H3N3O2/c5-1-2-3(6)9-4(8)7-2/h6H2,(H,7,8)	InChI=1S/C4H3N3O2/c5-1-2-3(6)9-4(8)7-2/h6H2,(H,7,8)
