15
gdb 22797	2.85953	1.48998	1.03367	5.1818	75.25	-0.2197	-0.0528	0.1669	1095.3314	0.113818	-453.925005	-453.91716	-453.916216	-453.957494	29.588	
O	 0.0304351497	 1.3509139563	 0.0208799749	-0.351267
N	 0.0314573072	-0.0259222227	-0.0724491972	-0.190707
C	-1.1252547937	-0.5712119734	-0.0142052961	 0.271815
C	-1.118625577	-2.0823862846	-0.052992826	-0.253398
N	-2.1234867589	-2.5771819435	-0.9871870483	-0.292821
C	-3.3234102243	-1.9397821752	-1.0330675632	 0.021986
C	-3.5498629037	-0.707216423	-0.5085731929	-0.227772
C	-2.484947008	 0.0975641245	 0.0757102816	 0.303843
O	-2.6485875291	 1.210058538	 0.5443590968	-0.341246
H	 0.9658607728	 1.5601637225	-0.0848147025	 0.310631
H	-0.126211672	-2.4350990594	-0.3395343755	 0.13709
H	-1.340462822	-2.4612340124	 0.960310206	 0.123671
H	-2.1125608307	-3.564549615	-1.184170315	 0.256417
H	-4.1121207894	-2.4827909492	-1.5459148277	 0.12532
H	-4.5288062011	-0.252770773	-0.587999395	 0.106436
73.0693	160.3532	226.6019	299.2829	312.0989	382.5952	435.5928	445.7653	474.1259	529.5421	540.754	642.9723	698.8402	751.7122	831.5323	905.3841	967.0739	975.416	998.8289	1050.4091	1091.4366	1181.7369	1227.0908	1259.9605	1287.5501	1342.0843	1412.2701	1432.775	1480.937	1533.3873	1659.6692	1696.6486	1756.5523	2948.9984	3111.5046	3176.2423	3221.5945	3640.5151	3797.4388
ON=C1CNC=CC1=O	ON=C1CNC=CC1=O	
InChI=1S/C5H6N2O2/c8-5-1-2-6-3-4(5)7-9/h1-2,6,9H,3H2	InChI=1S/C5H6N2O2/c8-5-1-2-6-3-4(5)7-9/h1-2,6,9H,3H2
