23
gdb 118176	3.89144	0.61933	0.58499	1.3495	83.03	-0.2432	-0.0094	0.2338	1966.2439	0.201824	-425.450685	-425.439017	-425.438073	-425.488978	40.525	
C	 0.0566077631	 1.7117307196	-0.0126496375	-0.40018
C	 0.0094511984	 0.1756344	-0.0152426106	 0.0348
C	 0.6605383518	-0.4360295599	-1.2670083694	-0.176408
C	-0.0301923877	-0.0829346923	-2.5793660876	-0.086349
O	 0.6003162021	-0.8343303493	-3.6081417233	-0.421764
C	 0.6699992775	-0.3897544657	 1.2501583798	-0.310823
C	-0.1156565737	-0.1678711174	 2.5385575688	 0.381154
C	 0.6173173852	-0.4914720886	 3.8294110152	-0.472197
O	-1.2595784992	 0.2276779627	 2.5397345961	-0.29675
H	 1.0919260047	 2.0710609571	-0.0685450093	 0.105341
H	-0.4868263531	 2.1354142833	-0.8619370057	 0.114754
H	-0.3983387694	 2.1105974878	 0.8971678783	 0.131871
H	-1.0447165461	-0.127257082	 0.0144921258	 0.092789
H	 1.7139922299	-0.1329468914	-1.3329264476	 0.097886
H	 0.6587969855	-1.5301822969	-1.1850462876	 0.100424
H	-1.103429291	-0.3270222664	-2.5086058729	 0.085258
H	 0.0462914989	 0.9960107972	-2.7804935779	 0.087771
H	 0.1995926877	-0.58873199	-4.4469347089	 0.284626
H	 0.804930136	-1.4780968915	 1.1584268776	 0.119958
H	 1.6856205449	 0.0103863852	 1.3794126547	 0.110322
H	 1.4177318302	 0.2404313635	 3.9908370911	 0.14153
H	-0.0760717799	-0.4564938359	 4.6705590701	 0.141724
H	 1.0947888944	-1.4756723794	 3.7754572708	 0.134262
42.199	57.0318	73.23	112.1538	119.5556	125.3152	223.6171	240.9434	267.3875	288.0206	321.2321	373.9188	448.3971	479.9827	496.8106	610.5403	790.8382	809.035	827.2419	870.5054	946.0408	965.817	970.6721	1007.7535	1030.7008	1066.0353	1122.9814	1141.0042	1162.6635	1187.0233	1225.4362	1242.2522	1255.8875	1298.9267	1316.2398	1355.6273	1372.4686	1380.9502	1391.7732	1410.1573	1445.3457	1458.6332	1464.2766	1477.0886	1489.1587	1498.6009	1511.7822	1527.9617	1808.3088	2961.1426	2998.0268	3002.9935	3018.3501	3025.7383	3030.7547	3035.7746	3041.8776	3064.5492	3096.6952	3099.5021	3124.0847	3151.2125	3830.3727
CC(CCO)CC(C)=O	C[C@@H](CCO)CC(=O)C	
InChI=1S/C7H14O2/c1-6(3-4-8)5-7(2)9/h6,8H,3-5H2,1-2H3	InChI=1S/C7H14O2/c1-6(3-4-8)5-7(2)9/h6,8H,3-5H2,1-2H3/t6-/m0/s1
