19
gdb 109409	2.3202	1.43477	1.05045	3.1288	76.1	-0.237	-0.0267	0.2103	1212.1364	0.156645	-423.014036	-423.004753	-423.003809	-423.048243	34.008	
C	 0.0906988298	 1.5339529557	 0.1742836277	-0.38433
C	-0.1595700102	 0.0469550964	-0.102299044	-0.202909
C	 0.675857537	-0.4789258684	-1.2672287906	-0.186564
C	 2.2303134413	-0.5646807246	-1.1306870199	 0.433864
O	 3.097775414	 0.2492235388	-1.0082222085	-0.308906
C	 2.2000015227	-2.0679490094	-1.3799203649	-0.190475
O	 1.3027095796	-2.5802425382	-0.3635939662	-0.276295
C	 0.7201801256	-2.0034569245	-1.5335532268	 0.40806
C	-0.2031488901	-2.829235036	-2.3680078527	-0.506926
H	 1.1479224791	 1.7223627436	 0.381038974	 0.14383
H	-0.1920928362	 2.1502551994	-0.6863892512	 0.112735
H	-0.4932214517	 1.8742405884	 1.0346317141	 0.113123
H	 0.0721361687	-0.547485431	 0.7873608252	 0.118074
H	-1.222911773	-0.1162001949	-0.3216862668	 0.096608
H	 0.4617741563	 0.0807360426	-2.1886752233	 0.098037
H	 2.9404071571	-2.7490859411	-1.7833755203	 0.119358
H	-1.199243967	-2.8725145538	-1.914216756	 0.139366
H	-0.3081167131	-2.3987324023	-3.3687377356	 0.132313
H	 0.1738430202	-3.8510108707	-2.4591176544	 0.141038
78.2477	103.2542	138.4518	184.8163	203.3462	246.4842	263.9373	344.0819	366.9434	498.5591	544.3317	592.5229	660.4598	736.5557	759.7921	826.1978	841.5309	879.2992	963.2692	986.7311	1011.839	1039.5782	1065.4032	1079.4497	1103.7415	1155.5019	1185.5654	1221.3633	1238.5421	1278.8082	1332.3688	1364.2744	1402.3199	1413.3359	1447.7858	1479.9689	1491.2069	1493.7338	1498.5911	1509.9129	1891.8079	3019.8528	3022.4187	3035.795	3038.7982	3076.1316	3102.0083	3103.8238	3120.0861	3125.6352	3190.8447
CCC1C(=O)C2OC12C	CC[C@H]1C(=O)[C@H]2O[C@@]12C	
InChI=1S/C7H10O2/c1-3-4-5(8)6-7(4,2)9-6/h4,6H,3H2,1-2H3	InChI=1S/C7H10O2/c1-3-4-5(8)6-7(4,2)9-6/h4,6H,3H2,1-2H3/t4-,6+,7-/m0/s1
