16
gdb 35205	3.76517	1.14443	1.07471	4.3997	74.09	-0.2748	-0.001	0.2738	1142.5931	0.124119	-400.705077	-400.697524	-400.69658	-400.73736	28.9	
N	-0.1053181695	-1.1315815173	-0.0222780892	-0.33086
C	-0.0482124355	 0.0230475675	-0.0059360949	 0.309905
C	 0.0236022254	 1.4664528632	-0.0236578891	-0.229868
O	 0.6359665566	 2.0905221459	 1.118487393	-0.270112
C	 1.3306108592	 2.1544290598	-0.1093113458	 0.473436
C	 2.7605708279	 1.6089757384	-0.2609833373	-0.332198
C	 3.1314025692	 2.9376674444	-0.9474311992	-0.043515
C	 2.262801943	 3.1594036595	-2.1473416032	-0.279544
C	 1.6931718595	 3.4563765676	-0.7803811722	-0.150695
H	-0.8682089234	 1.9634373418	-0.4004051351	 0.139022
H	 3.2177975924	 1.4860236705	 0.7233294226	 0.134646
H	 2.8974555428	 0.6935298321	-0.8436379092	 0.123289
H	 4.0554851887	 3.478248606	-0.792027986	 0.103438
H	 2.4929529572	 4.0376832662	-2.7414722249	 0.124914
H	 1.8937600342	 2.3149272978	-2.7246366053	 0.118962
H	 1.3282366724	 4.4324250466	-0.487896194	 0.109181
93.6562	119.514	183.3859	294.7387	366.3493	388.9042	471.4854	480.4785	576.7434	622.3032	760.4618	785.0956	828.5508	843.2538	916.2464	936.719	956.3358	966.3246	1005.4769	1017.5625	1055.5743	1061.3663	1088.5835	1102.8565	1144.2155	1176.3639	1199.7514	1248.0699	1288.3882	1318.8032	1347.9222	1458.7225	1479.0179	1497.6514	2357.3885	3062.2729	3112.3603	3123.2428	3135.7398	3198.0208	3200.011	3212.1858
N#CC1OC11CC2CC12	N#C[C@H]1O[C@]21C[C@H]1C[C@@H]21	
InChI=1S/C7H7NO/c8-3-6-7(9-6)2-4-1-5(4)7/h4-6H,1-2H2	InChI=1S/C7H7NO/c8-3-6-7(9-6)2-4-1-5(4)7/h4-6H,1-2H2/t4-,5-,6-,7-/m1/s1
