18
gdb 89884	3.77341	0.87244	0.8051	2.3357	74.42	-0.2486	-0.0285	0.22	1424.1384	0.146109	-439.049558	-439.04079	-439.039846	-439.083539	32.698	
O	 0.5968686169	 0.7588335987	-0.9422119802	-0.42862
C	-0.021095958	-0.1599802117	-0.0854782156	 0.169347
C	 0.2133362123	-0.0675265269	 1.453201642	-0.331424
C	-1.273066878	-0.4024149021	 1.630790632	 0.337868
C	-1.5603897045	-0.0696321937	 0.1618033098	-0.349871
N	-1.7168390613	-1.5871041809	 2.3353420775	-0.370872
C	-2.1889789857	-0.2576670724	 2.8044650947	-0.205547
C	-1.6534150232	 0.1717122896	 4.1233269201	 0.18112
O	-2.1721756865	 1.0034108776	 4.8256279248	-0.2625
H	 0.404831915	 1.6480106893	-0.624822284	 0.280049
H	 0.2541236772	-1.1480750591	-0.4631435532	 0.105748
H	 0.9340630631	-0.7514171997	 1.9047297405	 0.122538
H	 0.4470125266	 0.9591390446	 1.7573491791	 0.104835
H	-1.9232245304	 0.9564423748	 0.0337290108	 0.108759
H	-2.2113296416	-0.747021717	-0.3980746119	 0.110117
H	-2.4685402989	-2.0541168726	 1.8327659027	 0.240809
H	-3.2116039361	 0.0509189618	 2.6001188696	 0.104223
H	-0.7089700068	-0.3422826003	 4.4094025013	 0.08342
55.004	108.1273	143.6292	211.0473	289.0123	339.8806	356.2881	385.3407	428.1652	461.6898	493.0327	554.5008	717.9811	811.6106	826.0871	894.6685	933.5972	957.8376	981.4772	1002.5806	1044.2993	1051.1617	1072.3367	1077.5725	1126.9547	1175.0306	1206.2452	1211.2163	1240.7965	1246.4733	1282.7883	1326.5844	1334.977	1394.6741	1434.3913	1458.7563	1459.948	1488.6205	1821.4797	2892.5073	3039.5084	3047.228	3080.4708	3102.3779	3123.8394	3146.289	3494.265	3801.9344
OC1CC2(C1)NC2C=O	O[C@H]1C[C@@]2(C1)N[C@H]2C=O	
InChI=1S/C6H9NO2/c8-3-5-6(7-5)1-4(9)2-6/h3-5,7,9H,1-2H2	InChI=1S/C6H9NO2/c8-3-5-6(7-5)1-4(9)2-6/h3-5,7,9H,1-2H2/t4-,5-,6-/m0/s1
