14
gdb 129627	3.21236	1.3381	0.99279	3.211	66.42	-0.2228	-0.0587	0.1641	1107.1173	0.099749	-469.985156	-469.976871	-469.975927	-470.018774	29.361	
N	-0.2216104992	 1.3540604502	-0.3568354186	-0.599937
C	-0.0934680181	 0.0090291236	-0.0911571997	 0.218694
C	-1.0177974518	-0.9988644403	-0.0367682037	 0.319575
C	-2.5072149932	-1.0228469689	-0.1385891765	-0.393419
C	-2.9236121153	-0.2879520514	-1.4098791702	 0.148603
O	-3.0402530357	 0.9105651408	-1.4606628546	-0.235557
O	-0.3456167388	-2.1510623495	 0.1657829423	-0.207522
N	 1.0133377608	-1.8252898266	 0.2624533155	-0.014388
N	 1.1368927623	-0.574307739	 0.1065791635	-0.17303
H	 0.4702475789	 1.9380808554	 0.0881799974	 0.264187
H	-1.1633465335	 1.7158269496	-0.3171478416	 0.268385
H	-2.8532116753	-2.0592972052	-0.1558293524	 0.145926
H	-2.9652800286	-0.5079284737	 0.714720739	 0.148091
H	-3.0729906225	-0.9204785949	-2.3089694903	 0.110393
62.7419	84.3948	141.7059	223.0702	284.0684	317.1547	352.6253	430.8952	510.6835	546.45	646.2237	676.0127	737.5787	750.1454	784.5102	899.4775	979.3314	1014.1137	1042.7506	1078.6686	1168.4767	1256.8501	1277.724	1310.2938	1411.7606	1422.9727	1454.1441	1465.2937	1625.0511	1692.8511	1816.5104	2925.126	3033.571	3113.8204	3568.0955	3679.7658
NC1=C(CC=O)ON=N1	Nc1c(CC=O)onn1	
InChI=1S/C4H5N3O2/c5-4-3(1-2-8)9-7-6-4/h2H,1,5H2	InChI=1S/C4H5N3O2/c5-4-3(1-2-8)9-7-6-4/h2H,1,5H2
