13
gdb 132307	2.10775	1.81891	0.97648	5.0547	67.41	-0.2245	-0.0321	0.1923	1086.7883	0.089054	-494.075014	-494.067305	-494.066361	-494.107395	28.806	
N	-0.0265842135	 1.347904846	-0.0615886212	-0.555543
C	-0.0017698352	-0.0052340812	-0.0250613882	 0.436539
N	-1.1486293946	-0.6341404192	-0.0104434793	-0.361077
C	-1.1987995377	-1.9849993266	-0.0060875814	 0.436332
N	-2.2391839425	-2.6967404806	-0.0012671468	-0.530956
O	 0.0918341048	-2.7086008749	-0.0010586039	-0.256032
C	 1.2016626958	-2.0161853909	-0.0128382051	 0.431719
F	 2.2607419262	-2.791349965	-0.010168477	-0.036237
C	 1.2772066018	-0.6739162741	-0.0264701745	-0.457424
H	 0.807144464	 1.8858456171	 0.0912955847	 0.268055
H	-0.9208723832	 1.7988412845	 0.0414732437	 0.275251
H	-2.0068615945	-3.6868509208	 0.0046860411	 0.229438
H	 2.2264937886	-0.1613386643	-0.043634422	 0.119935
103.9319	182.5863	197.0762	209.4677	327.8675	353.1633	495.8897	515.7007	539.6226	570.2613	647.4533	683.0239	702.3218	734.2275	776.4607	785.6001	806.1503	950.6326	1009.7744	1048.444	1168.0887	1220.2942	1258.3174	1418.8807	1496.3006	1584.1224	1639.3009	1726.5381	1792.0674	3248.2434	3536.4672	3613.1695	3748.5653
NC1=NC(=N)OC(F)=C1	NC1=C[C@@H](OC(=N1)[NH])F	
InChI=1S/C4H4FN3O/c5-2-1-3(6)8-4(7)9-2/h1H,(H3,6,7,8)	InChI=1S/C4H5FN3O/c5-2-1-3(6)8-4(7)9-2/h1-2,7H,(H2,6,8)/t2-/m1/s1
