20
gdb 111833	2.5732	1.41518	1.30939	2.0614	78.85	-0.2305	0.0226	0.2531	1107.3988	0.17295	-403.1489	-403.140538	-403.139593	-403.182183	31.582	
C	 0.3305989177	 1.3653270988	-0.2860800782	-0.374941
C	-0.1887819447	-0.0244237845	 0.1023680855	-0.211557
C	 0.572052625	-0.6153364953	 1.2721499521	-0.017788
C	 0.7273095796	-2.097393441	 1.5244378577	-0.127965
C	 0.2758293965	-3.146462852	 0.5320544065	-0.091925
O	 0.8357539056	-3.0160549525	-0.7901495119	-0.230474
C	 1.9548416113	-2.2747340341	-0.9599353044	 0.114295
N	 2.516956457	-1.4672426212	-0.1642122984	-0.252305
C	 1.9352996931	-1.2805559935	 1.1292703564	-0.009586
H	 1.3751597942	 1.3084398744	-0.6057765377	 0.137314
H	-0.2561924336	 1.7918239783	-1.105662604	 0.108275
H	 0.2754363004	 2.0595955521	 0.5598413668	 0.109676
H	-1.2502018659	 0.0397861328	 0.3760088242	 0.095221
H	-0.1428687426	-0.6880391977	-0.7655008317	 0.116919
H	 0.4800751856	-0.0239811022	 2.1815897727	 0.086466
H	 0.6539688637	-2.4349970329	 2.5543611681	 0.091214
H	 0.5654101091	-4.1360441164	 0.905413236	 0.119925
H	-0.809850108	-3.1481398414	 0.3867697341	 0.119099
H	 2.3544373537	-2.4405443153	-1.9583541951	 0.124173
H	 2.6746156321	-1.0409671365	 1.8861354714	 0.093964
77.4556	110.061	130.4847	205.6522	263.858	276.4037	436.2447	467.2796	519.3962	604.6749	654.7398	749.935	767.8699	808.2229	835.9801	890.5826	932.1116	947.1872	978.2183	997.4561	998.4841	1058.6869	1076.9983	1105.7673	1114.9621	1143.8536	1172.1101	1196.3669	1244.7612	1278.8685	1302.024	1341.1579	1364.1841	1384.4444	1408.4919	1412.3232	1420.0623	1452.2641	1492.3578	1499.8377	1510.5688	1514.4297	1723.8098	3023.7919	3028.4352	3033.632	3065.3187	3085.6893	3103.3202	3115.7031	3122.3128	3144.0184	3159.6898	3163.8044
CCC1C2COC=NC12	CC[C@H]1[C@H]2COC=N[C@@H]12	
InChI=1S/C7H11NO/c1-2-5-6-3-9-4-8-7(5)6/h4-7H,2-3H2,1H3	InChI=1S/C7H11NO/c1-2-5-6-3-9-4-8-7(5)6/h4-7H,2-3H2,1H3/t5-,6+,7-/m0/s1
