19
gdb 103136	2.3667	1.48521	1.13413	3.6778	73.97	-0.2392	0.0263	0.2655	1141.4426	0.158771	-456.338072	-456.328743	-456.327799	-456.371716	35.341	
C	-0.391720325	 1.4944260061	 0.0566853797	-0.391354
C	 0.0974776137	 0.0620006857	-0.0522721853	-0.004933
N	 1.4131567018	-0.1139971947	-0.7141768994	-0.35294
C	 1.9919553089	-0.7940538374	 0.3345448934	 0.365511
N	 3.0525026318	-1.4514360466	 0.5749963386	-0.584632
C	 0.7494023009	-0.5849687188	 1.2167137164	 0.299395
O	 0.8817517237	 0.3101118418	 2.2874405207	-0.475238
C	 0.226157144	-1.9321684067	 1.711178575	-0.124875
O	 1.1450719391	-2.4306666161	 2.6701301337	-0.435614
H	 0.3631299151	 2.1235889573	 0.5313521496	 0.142204
H	-0.6210858534	 1.8984011835	-0.9349444793	 0.110057
H	-1.303890236	 1.5366151269	 0.6596201663	 0.126847
H	-0.6765550073	-0.582225823	-0.4902512489	 0.079602
H	 1.606963091	-0.2064370623	-1.7013645346	 0.238169
H	 3.6845696887	-1.5023517268	-0.2251471432	 0.210324
H	 1.2266417839	-0.2210893204	 3.01939646	 0.291875
H	-0.7342408866	-1.8029375505	 2.2219978602	 0.111457
H	 0.0846206504	-2.6284311334	 0.8709814836	 0.090877
H	 2.0022782054	-2.4920795646	 2.2136485034	 0.303269
96.9543	145.962	162.9251	202.2164	218.5314	271.0624	285.5698	342.382	401.8234	457.187	466.5091	499.1933	573.717	662.9187	703.4606	741.5635	764.9941	829.3298	887.6817	921.061	988.7374	1025.9395	1066.2703	1068.2883	1099.1995	1131.7338	1148.3233	1197.4716	1236.217	1271.3582	1332.3777	1353.3138	1374.3447	1384.5156	1412.1217	1427.3066	1462.8419	1486.8105	1492.0347	1496.0878	1781.3575	2991.8906	3014.1903	3043.1466	3073.4332	3108.6001	3143.5857	3460.7534	3592.5048	3647.4078	3745.2671
CC1NC(=N)C1(O)CO	C[C@H]1N[C]([NH])[C@]1(O)CO	
InChI=1S/C5H10N2O2/c1-3-5(9,2-8)4(6)7-3/h3,8-9H,2H2,1H3,(H2,6,7)	InChI=1S/C5H10N2O2/c1-3-5(9,2-8)4(6)7-3/h3,8-9H,2H2,1H3,(H2,6,7)/t3-,5+/m1/s1
