16
gdb 35138	5.13913	0.93104	0.89867	4.198	69.49	-0.2759	-0.0042	0.2718	1280.1988	0.124101	-437.848688	-437.840597	-437.839653	-437.882349	29.016	
N	-0.6110036509	-0.8111885235	-0.7180728353	-0.313525
C	-0.1116562332	 0.1638710396	-0.3505236082	 0.274167
C	 0.49801363	 1.4102520075	 0.1174765694	 0.008858
C	-0.1123094447	 2.0455819777	 1.3918020974	-0.313228
C	 1.3141811153	 1.8835416538	 1.9734908629	 0.098267
O	 1.7613361378	 1.1963746674	 0.7780070716	-0.288391
C	 2.0655324248	 3.1686787728	 2.2085888395	 0.05468
C	 3.3372034335	 3.4502368552	 1.5337756722	-0.168169
O	 2.1156583439	 4.0615240997	 1.0974376064	-0.235296
H	 0.6018824009	 2.1011871069	-0.7258225449	 0.140489
H	-0.455675878	 3.0717000873	 1.2680636494	 0.141798
H	-0.8793941326	 1.4411453574	 1.8734260378	 0.138272
H	 1.394110309	 1.2356615148	 2.8544674906	 0.099535
H	 1.8601859625	 3.6444565352	 3.1696640329	 0.100585
H	 4.0536206072	 4.123888618	 1.9999199577	 0.121304
H	 3.7423581643	 2.7055529102	 0.8545787507	 0.140654
46.3114	109.8009	134.7888	186.3054	255.6319	287.8533	451.106	513.2701	551.8528	649.4574	733.2588	754.7537	852.0891	889.6896	926.7516	953.133	993.8758	1005.2845	1025.4242	1069.1154	1097.844	1109.9717	1155.9875	1168.0463	1172.4327	1253.5216	1261.1867	1282.8086	1296.3808	1345.6988	1382.2606	1426.9135	1483.2138	1515.8556	2358.4846	3040.0477	3057.9597	3094.1004	3104.1138	3105.0378	3169.6134	3203.014
N#CC1CC(O1)C1CO1	N#C[C@H]1C[C@@H](O1)[C@H]1CO1	
InChI=1S/C6H7NO2/c7-2-4-1-5(9-4)6-3-8-6/h4-6H,1,3H2	InChI=1S/C6H7NO2/c7-2-4-1-5(9-4)6-3-8-6/h4-6H,1,3H2/t4-,5-,6-/m1/s1
