14
gdb 25785	4.29227	1.11828	0.88765	2.4129	68.41	-0.2283	-0.0429	0.1854	1211.3053	0.102396	-470.043947	-470.036062	-470.035117	-470.076562	29.659	
N	-0.1374833504	 1.3102224246	 0.0880948611	-0.528795
C	 0.023897879	-0.05625603	 0.0529709236	 0.252373
N	 1.181326835	-0.5980217765	 0.0539418868	-0.519108
C	-1.236101329	-0.8274658688	 0.0611989696	 0.394105
N	-1.3667378616	-2.1236608101	 0.0883620218	-0.398055
C	-2.7233975349	-2.3357221149	 0.0669204974	 0.333457
O	-3.2516784279	-3.5692870082	 0.0871374468	-0.426224
C	-3.3773143952	-1.1431095199	 0.0237242005	-0.153557
O	-2.4112993291	-0.1660396672	 0.0207665456	-0.182641
H	 0.6974955186	 1.8344213705	-0.1236193904	 0.262293
H	-1.0009464361	 1.6932162197	-0.2593819239	 0.263326
H	 1.0856020621	-1.611809585	 0.089753925	 0.234522
H	-2.5146468356	-4.1914742124	 0.1188819695	 0.311667
H	-4.4043317549	-0.8305405619	-0.0040764834	 0.156636
69.9971	159.3567	179.3578	343.2888	352.9796	375.1246	407.7141	420.7247	492.9612	541.3246	630.7613	644.96	663.7293	722.0036	740.0542	778.1372	867.0225	980.8185	1033.0559	1112.7165	1132.8133	1152.4634	1181.4055	1250.4188	1326.6212	1400.2127	1441.1002	1584.4242	1622.989	1688.6498	1714.4599	3316.036	3505.2353	3592.5291	3714.6739	3806.5847
NC(=N)C1=NC(O)=CO1	NC(=N)c1nc(O)co1	
InChI=1S/C4H5N3O2/c5-3(6)4-7-2(8)1-9-4/h1,8H,(H3,5,6)	InChI=1S/C4H5N3O2/c5-3(6)4-7-2(8)1-9-4/h1,8H,(H3,5,6)
