17
gdb 85393	2.03279	1.77031	0.98054	3.3684	71.91	-0.2447	-0.0199	0.2248	1170.0699	0.136334	-455.178175	-455.169954	-455.16901	-455.211324	30.453	
C	-0.0246889706	 1.4641428631	-0.014373297	-0.31779
N	 0.0191650595	 0.0109081977	-0.019587814	-0.086445
C	 0.7355140806	-0.5210126526	-1.1667137217	-0.236833
C	 0.6024885009	-2.0188810807	-1.2120660078	 0.40768
N	 0.5104351918	-2.6583932904	-2.2916507292	-0.490494
O	 0.6169860746	-2.6826156954	 0.0047903496	-0.224704
C	 0.6398081517	-2.0375546278	 1.2192216426	 0.417959
O	 0.7199566789	-2.6905633088	 2.2157503057	-0.298862
C	 0.5862307344	-0.5218729283	 1.2027407642	-0.297104
H	 0.9790800852	 1.9251999825	 0.0466201332	 0.101762
H	-0.5102497274	 1.819626845	-0.9275170662	 0.132696
H	-0.6111102171	 1.8102946484	 0.8418443449	 0.130807
H	 0.3178165244	-0.1273099696	-2.0941278529	 0.149244
H	 1.8139775615	-0.2562119007	-1.1483792789	 0.10645
H	 0.4615588859	-3.6635879289	-2.1139878033	 0.236402
H	 1.6229665556	-0.1670814558	 1.3866807816	 0.117719
H	-0.00960026	-0.2185452477	 2.0670619192	 0.151512
81.7526	115.2768	153.3494	252.6986	315.3404	327.9355	396.204	428.6638	445.871	549.9437	574.0339	618.0591	626.8083	835.3725	917.1016	937.4042	950.2923	998.8179	1039.6356	1071.7006	1107.3004	1155.5201	1160.9391	1180.2	1231.5805	1288.146	1306.0872	1339.478	1366.0909	1403.1054	1459.3898	1470.5107	1485.1017	1497.5272	1505.2441	1776.5851	1879.2151	2883.0556	2888.6924	2937.3722	3071.4143	3100.6276	3116.4396	3124.2112	3473.6939
CN1CC(=N)OC(=O)C1	CN1C[C]([NH])OC(=O)C1	
InChI=1S/C5H8N2O2/c1-7-2-4(6)9-5(8)3-7/h6H,2-3H2,1H3	InChI=1S/C5H8N2O2/c1-7-2-4(6)9-5(8)3-7/h6H,2-3H2,1H3
