15
gdb 48008	5.37768	0.71768	0.68655	4.4356	78.25	-0.2635	-0.0607	0.2028	1583.5598	0.110865	-420.556534	-420.548155	-420.547211	-420.591818	29.039	
O	-0.1251109649	-0.0520533324	 0.2299208573	-0.230307
C	-0.0392486342	 1.1487600785	 0.1061446838	 0.019002
C	 1.1999733116	 1.8791020282	 0.0550715787	-0.000737
C	 2.2189025518	 2.5271476972	 0.0051454638	 0.16072
C	 3.4453305041	 3.2893747086	-0.0608869946	-0.225654
C	 4.1530769061	 3.4525732116	-1.472210518	-0.263678
C	 4.0243588908	 4.9704278739	-1.3016109281	 0.037079
O	 2.6286277586	 5.2596944751	-1.1628833924	-0.229578
C	 3.3409363836	 4.8353749778	-0.0072260007	 0.023618
H	-0.9428450688	 1.7861802967	 0.0204695271	 0.10025
H	 4.165652407	 2.9185228936	 0.6749478988	 0.121545
H	 5.1795669775	 3.0826636969	-1.4526105626	 0.121738
H	 3.6184330935	 3.0360492922	-2.3268123467	 0.132221
H	 4.6600642133	 5.7579255943	-1.6870623122	 0.117181
H	 3.3110984899	 5.4696619879	 0.870635656	 0.1166
19.5107	70.954	100.4597	157.539	246.1188	306.2322	418.7253	465.3118	554.0465	655.6036	727.8458	789.2951	846.0701	858.7226	903.6036	922.4326	949.4587	1001.6212	1021.3853	1024.7689	1060.9342	1132.7003	1179.7255	1191.36	1232.596	1238.5427	1268.1348	1334.596	1391.6494	1422.0903	1472.1583	1765.3627	2326.1479	2918.3433	3063.9335	3084.6887	3147.84	3188.4999	3205.0088
O=CC#CC1CC2OC12	O=CC#C[C@H]1C[C@H]2O[C@@H]12	
InChI=1S/C7H6O2/c8-3-1-2-5-4-6-7(5)9-6/h3,5-7H,4H2	InChI=1S/C7H6O2/c8-3-1-2-5-4-6-7(5)9-6/h3,5-7H,4H2/t5-,6+,7-/m0/s1
