18
gdb 80826	2.02827	1.8114	1.63985	4.6017	71.67	-0.2268	-0.0069	0.2198	972.3355	0.147455	-439.077694	-439.069393	-439.068449	-439.110183	32.057	
C	-0.0342123611	 1.5135512617	 0.0140214736	-0.515799
C	-0.0727776153	 0.0136366547	 0.007346961	 0.166155
N	 0.3983577069	-0.7805369203	-1.2123155857	-0.361167
C	-0.3584096241	-1.9143021451	-0.5567922584	-0.075436
C	 0.5561060072	-2.2035710676	 0.6408213079	-0.315154
C	 0.7677127593	-0.7366770512	 1.0576893963	 0.465176
O	 1.4174453055	-0.2738501908	 1.9519836181	-0.335474
C	-1.3587228224	-0.8550250933	-0.0029240887	 0.08971
O	-2.0036665787	-1.0204477052	 1.2326800125	-0.429975
H	 0.9915337105	 1.8677927512	-0.1231021805	 0.142184
H	-0.6607485127	 1.9386085978	-0.7766008075	 0.109801
H	-0.3901532389	 1.889071809	 0.9777994747	 0.146267
H	-0.1539622341	-0.451584211	-2.0071965616	 0.217966
H	-0.6662506705	-2.7480394625	-1.1870681718	 0.073216
H	 0.0786987099	-2.7728582579	 1.4414029054	 0.128235
H	 1.4951256125	-2.6814765838	 0.3538173317	 0.131824
H	-2.0433428549	-0.5095393405	-0.7906583544	 0.071912
H	-2.8021843992	-1.5422715853	 1.1049743874	 0.290557
117.2276	145.3081	217.6312	236.5236	249.3662	263.5266	382.3629	452.4132	480.9012	547.7125	615.0079	660.1212	676.6409	754.8494	822.2091	848.8728	868.8161	918.9488	951.1288	988.5595	1029.2991	1052.9842	1106.5543	1113.4035	1138.0551	1138.7437	1185.1294	1220.9806	1253.7078	1285.6595	1301.9234	1319.078	1380.6579	1410.8426	1429.9047	1445.4847	1482.7523	1485.8087	1884.5655	3004.7692	3040.5379	3078.8936	3110.7786	3120.7733	3121.7488	3134.6496	3428.9835	3820.4021
CC12NC(CC1=O)C2O	C[C@@]12N[C@@H](CC1=O)[C@H]2O	
InChI=1S/C6H9NO2/c1-6-4(8)2-3(7-6)5(6)9/h3,5,7,9H,2H2,1H3	InChI=1S/C6H9NO2/c1-6-4(8)2-3(7-6)5(6)9/h3,5,7,9H,2H2,1H3/t3-,5+,6+/m0/s1
