18
gdb 32006	2.83884	1.25689	0.92776	4.5313	83.79	-0.2099	-0.0334	0.1765	1271.2392	0.1497	-402.034257	-402.026049	-402.025105	-402.067455	31.123	
C	 0.1132990874	 1.5564510639	-0.115419962	-0.373826
C	-0.0622461513	 0.0355116617	 0.046235978	-0.294203
C	 0.6092005046	-0.513529164	 1.2761024315	 0.418436
C	-0.0523649924	-0.9709637517	 2.3796540866	-0.261098
C	 0.7041646762	-1.4415901626	 3.4890859475	-0.035196
C	 2.0662430804	-1.4487857377	 3.4772308901	-0.258758
C	 2.8118590211	-0.9760745369	 2.3281029444	 0.42007
O	 4.0243374724	-0.9350316818	 2.1934486207	-0.404074
N	 1.9749740853	-0.5301582503	 1.2812658908	-0.409249
H	 1.1689876236	 1.835919111	-0.1874183844	 0.124504
H	-0.3871218137	 1.9042336185	-1.0234787424	 0.125539
H	-0.3142515581	 2.0893572605	 0.7386840738	 0.132638
H	-1.1265761117	-0.2097827574	 0.0973607164	 0.122642
H	 0.335337621	-0.4749953596	-0.8408445393	 0.118385
H	-1.1339005043	-0.9699133579	 2.3990476382	 0.099184
H	 0.1744916554	-1.805160247	 4.3650713887	 0.108166
H	 2.6511055378	-1.8065612007	 4.3151610214	 0.11392
H	 2.4856138465	-0.2038124679	 0.47116952	 0.25292
61.6308	128.7584	181.9883	206.0422	286.3375	338.4714	437.7602	490.8919	520.0976	548.1193	642.059	712.5769	730.5638	750.8892	789.1671	807.0879	863.6905	902.6201	977.6244	1001.6928	1018.8727	1069.886	1081.7046	1103.8765	1169.1049	1218.9814	1226.7176	1277.8919	1349.5521	1361.9267	1412.7893	1443.2436	1472.4446	1488.8671	1497.0774	1506.6778	1598.2656	1661.091	1781.8373	3025.6882	3043.2894	3088.3723	3116.7038	3121.2264	3169.6834	3216.646	3220.1245	3590.1953
CCC1=CC=CC(=O)N1	CCc1cccc(=O)[nH]1	
InChI=1S/C7H9NO/c1-2-6-4-3-5-7(9)8-6/h3-5H,2H2,1H3,(H,8,9)	InChI=1S/C7H9NO/c1-2-6-4-3-5-7(9)8-6/h3-5H,2H2,1H3,(H,8,9)
