19
gdb 60331	3.61071	0.81211	0.75019	1.3584	73.74	-0.2438	-0.0981	0.1457	1564.0838	0.15431	-460.172624	-460.162135	-460.161191	-460.209298	36.286	
C	 0.9443838302	 1.1334957874	 0.752960068	-0.384025
C	 0.0108565315	 0.0519684069	 0.2071618124	 0.14346
C	 0.2584617364	-0.2336354178	-1.2689006696	-0.388761
O	 0.1688552625	-1.2036275035	 0.8773158806	-0.236597
C	-0.2872172987	-1.2716042474	 2.1929156322	-0.188901
C	 0.818637591	-1.1549184187	 3.2328320844	 0.276864
O	 1.9802110508	-0.9303894091	 2.9969284293	-0.26572
C	 0.3925114994	-1.3590286262	 4.6940224313	 0.082776
O	-0.7430258739	-1.5739438553	 5.029394263	-0.2165
H	 1.9853282758	 0.8071900952	 0.6861445878	 0.13946
H	 0.8212548119	 2.0568424811	 0.1776038379	 0.111986
H	 0.7302473345	 1.3669442372	 1.7998526705	 0.107118
H	-1.0337824865	 0.3814557108	 0.3401918278	 0.068575
H	 1.2872857526	-0.5743063016	-1.4208538555	 0.129263
H	-0.4181372759	-1.0140570653	-1.6261720909	 0.122385
H	 0.1003765038	 0.66892822	-1.8660533664	 0.114647
H	-1.0596775508	-0.5198627732	 2.4234830423	 0.127944
H	-0.7726732595	-2.2458692543	 2.3501144425	 0.144341
H	 1.2409084052	-1.2796706363	 5.4066740826	 0.111686
38.9782	60.3109	94.2143	130.3738	176.9647	213.7181	245.1818	253.7976	302.0789	361.3368	434.185	456.7711	482.621	517.4252	654.3589	795.8048	815.2628	881.5531	928.7027	933.0909	946.6872	1061.6812	1128.6003	1154.1715	1160.8556	1184.5193	1202.7113	1284.5296	1361.3296	1367.4319	1373.6399	1400.4561	1405.2415	1418.9512	1442.7446	1480.2153	1481.747	1495.1456	1509.1321	1817.4989	1819.9378	2921.1323	2956.2232	2983.3339	3028.0878	3041.3164	3046.5312	3108.0708	3118.9494	3125.6776	3130.8561
CC(C)OCC(=O)C=O	CC(C)OCC(=O)C=O	
InChI=1S/C6H10O3/c1-5(2)9-4-6(8)3-7/h3,5H,4H2,1-2H3	InChI=1S/C6H10O3/c1-5(2)9-4-6(8)3-7/h3,5H,4H2,1-2H3
