21
gdb 75038	2.41304	1.64063	1.15079	0.6977	92.55	-0.1984	-0.015	0.1834	1148.8845	0.184589	-349.962323	-349.95408	-349.953135	-349.994955	32.804	
C	-0.1277047671	 1.5360800586	 0.0668725851	-0.479525
C	-0.0024875548	 0.0346752047	-0.0198471438	 0.306475
C	-0.0759654615	-0.5748616859	-1.2202205015	-0.18843
C	 0.0179610955	-1.9943226588	-1.5376452731	-0.058019
C	-0.2560568726	-3.0407273313	-0.7461304474	-0.108091
C	-0.8049140357	-2.9720452445	 0.6544496694	-0.273937
C	-0.0800350254	-2.0552241661	 1.6353523327	-0.019902
C	 1.3561571571	-1.6592102479	 1.4836894421	-0.297075
C	 0.2554954596	-0.6165116622	 1.2929323804	-0.098397
H	 0.7739974352	 1.9830068828	 0.5054762553	 0.125897
H	-0.2921077053	 1.989497313	-0.9135283692	 0.118993
H	-0.9627108002	 1.8227505795	 0.7199358883	 0.124009
H	-0.1841870051	 0.0745390207	-2.0870569713	 0.073753
H	 0.3321172747	-2.2102447767	-2.557849877	 0.080695
H	-0.1138411144	-4.0374731328	-1.1553439638	 0.084962
H	-1.8573656541	-2.6509029488	 0.6146258463	 0.11375
H	-0.8183487189	-3.9831142742	 1.07794326	 0.100507
H	-0.4196723203	-2.1938194076	 2.6600328747	 0.082269
H	 1.9803851551	-1.5830158312	 2.3672428384	 0.107899
H	 1.8742695703	-1.9805910983	 0.5880491851	 0.128891
H	 0.1480916677	 0.071632857	 2.1266404295	 0.075275
69.1139	179.673	222.9793	238.8415	276.4071	329.6626	391.0728	441.5508	491.5685	557.7765	654.8955	700.7334	732.9715	769.8608	805.1691	855.9083	892.6275	911.2243	929.9958	958.313	999.6624	1024.6381	1031.2023	1047.1212	1063.2666	1073.9216	1116.7625	1141.1598	1158.7493	1167.2396	1243.9435	1255.8094	1269.7286	1358.0242	1370.8621	1404.4083	1410.1284	1431.0091	1449.3048	1477.4764	1481.8389	1489.7121	1494.3888	1679.5905	1707.1949	2986.4207	3011.6653	3047.0155	3056.2307	3114.2995	3117.4571	3124.1844	3136.5184	3139.5349	3142.4378	3162.6415	3229.2885
CC1=CC=CCC2CC12	CC1=CC=CC[C@H]2C[C@@H]12	
InChI=1S/C9H12/c1-7-4-2-3-5-8-6-9(7)8/h2-4,8-9H,5-6H2,1H3	InChI=1S/C9H12/c1-7-4-2-3-5-8-6-9(7)8/h2-4,8-9H,5-6H2,1H3/t8-,9-/m0/s1
