16
gdb 35479	2.81744	1.53622	1.36593	3.9092	73.34	-0.2499	-0.0154	0.2345	986.7317	0.125709	-400.739462	-400.732119	-400.731175	-400.771332	28.472	
N	 0.1625839212	-0.6073990518	 1.250875402	-0.331531
C	 0.0667539065	 0.3279837049	 0.5785531498	 0.278972
C	-0.040411199	 1.5216925499	-0.3014062996	-0.079928
O	-1.0761941046	 2.3842497429	 0.1345530564	-0.254063
C	-0.7563207355	 3.369479547	 1.0819413951	 0.12495
C	 0.101271176	 3.1378798698	 2.2834247046	-0.337626
C	 0.6268429064	 3.9692906348	 1.1006101708	-0.116479
C	 1.5872077473	 3.332547731	 0.1770448579	-0.050999
C	 1.3025711288	 2.198148407	-0.4622101276	-0.100415
H	-0.3766706938	 1.1506256142	-1.2775240019	 0.145866
H	-1.6110393283	 4.0285011922	 1.1783156446	 0.117413
H	-0.1637789825	 3.6650394596	 3.1935604413	 0.12526
H	 0.5555075083	 2.1666902439	 2.4385036868	 0.153807
H	 0.7285539984	 5.0385382769	 1.2489707103	 0.098346
H	 2.5442557603	 3.8201525177	 0.0169320357	 0.108917
H	 2.0074354605	 1.7165690898	-1.1301263162	 0.11751
94.823	137.1404	241.9964	265.6257	400.3795	419.7872	494.0921	534.6302	621.679	635.3659	719.4658	752.5136	804.1197	813.5426	876.6914	913.4118	960.6016	982.1941	996.5942	1007.3683	1050.8845	1091.6356	1103.1395	1119.6046	1179.6695	1195.7344	1241.6136	1300.3989	1349.3849	1365.8505	1411.9347	1418.8615	1481.3024	1710.6718	2347.3461	3037.7673	3141.2507	3163.3524	3174.0724	3186.027	3201.6203	3235.8839
N#CC1OC2CC2C=C1	N#C[C@H]1O[C@H]2C[C@H]2C=C1	
InChI=1S/C7H7NO/c8-4-6-2-1-5-3-7(5)9-6/h1-2,5-7H,3H2	InChI=1S/C7H7NO/c8-4-6-2-1-5-3-7(5)9-6/h1-2,5-7H,3H2/t5-,6+,7+/m1/s1
