19
gdb 33002	4.88886	0.92017	0.78201	1.2966	87.35	-0.2141	0.0046	0.2187	1471.5134	0.160843	-385.958759	-385.950484	-385.949539	-385.992049	31.428	
C	 0.0430189324	 1.5676265298	-0.0991367551	-0.391599
C	-0.0044378646	 0.0539137066	 0.0121159627	-0.046711
O	 0.6465756937	-0.4832162262	-1.1315339864	-0.276269
C	 0.7337068255	-1.8346920479	-1.2610677125	 0.410921
C	 0.2242759733	-2.7560149816	-0.3420930502	-0.254809
C	 0.3745349096	-4.1227981005	-0.5831687471	-0.092449
C	 1.0229229842	-4.5817909339	-1.7229708057	-0.127464
C	 1.5290821759	-3.6547721686	-2.6362702735	-0.086534
C	 1.3879150064	-2.2937412352	-2.411178858	-0.196593
H	 1.0779125907	 1.9187078042	-0.1352994653	 0.131459
H	-0.4659682988	 1.9030446481	-1.0068800182	 0.131461
H	-0.4493029392	 2.0237620994	 0.7647400052	 0.118616
H	 0.5015562915	-0.2864253691	 0.9269400234	 0.105454
H	-1.0437809197	-0.3020735267	 0.054629242	 0.105451
H	-0.2849465325	-2.4255214537	 0.5535902166	 0.094666
H	-0.0248751346	-4.8298137597	 0.1370578293	 0.092686
H	 1.1345742543	-5.6453649455	-1.901223586	 0.090103
H	 2.0384311123	-3.9955093014	-3.5320182936	 0.093805
H	 1.7746890698	-1.5602201683	-3.1095087375	 0.097805
61.396	114.4741	164.206	236.3908	259.6587	341.7266	423.5208	430.2135	524.4076	599.2747	624.5031	709.855	775.8469	809.6226	824.2895	844.8012	897.5937	938.8782	947.9209	977.5737	1008.1722	1047.5588	1074.2943	1104.0893	1142.0372	1178.186	1184.7055	1195.9167	1283.4508	1297.2441	1331.8424	1355.3135	1400.1398	1423.6425	1484.6183	1486.5491	1500.1741	1518.5698	1534.994	1623.9476	1645.5079	2990.7682	3026.961	3047.6655	3122.7282	3126.3938	3170.5941	3177.7028	3195.1886	3202.4806	3214.2704
CCOC1=CC=CC=C1	CCOc1ccccc1	
InChI=1S/C8H10O/c1-2-9-8-6-4-3-5-7-8/h3-7H,2H2,1H3	InChI=1S/C8H10O/c1-2-9-8-6-4-3-5-7-8/h3-7H,2H2,1H3
