23
gdb 120848	3.28759	0.622	0.56692	0.7518	83.65	-0.2592	0.0786	0.3378	2049.0218	0.203651	-425.408389	-425.397456	-425.396512	-425.445747	38.535	
C	-0.3894443926	 1.4863934797	-0.1399474407	-0.383334
C	-0.2601251762	-0.0259727505	-0.3343047007	-0.156008
C	 1.1087530227	-0.4435694108	-0.8915541966	-0.212252
C	 1.2139894395	-1.9387561242	-1.0686420658	 0.059954
O	 0.4855693236	-2.527313747	-2.1556165454	-0.269521
C	 1.9179408201	-2.6278696842	-2.1638608298	 0.048798
C	 2.6541356109	-1.9510209001	-3.2931471054	-0.217341
C	 2.4642679174	-2.6933593	-4.6130903864	-0.06474
O	 3.2245972493	-2.0144864007	-5.6007583421	-0.42264
H	 0.3653330297	 1.8637828818	 0.5592946981	 0.112477
H	-0.256797562	 2.020245067	-1.0875328129	 0.11611
H	-1.373678519	 1.7535805243	 0.2569634376	 0.113216
H	-0.4332501661	-0.5367183757	 0.622178019	 0.09409
H	-1.0388509217	-0.3837359183	-1.0179410803	 0.115204
H	 1.2831043451	 0.06245901	-1.8461429426	 0.104384
H	 1.9031991007	-0.1157078383	-0.2067456445	 0.097214
H	 1.1124364338	-2.5000062955	-0.1353115228	 0.08286
H	 2.2747360797	-3.6385193449	-1.9460376193	 0.083543
H	 2.3156588118	-0.9201383144	-3.4229173089	 0.114555
H	 3.7254359001	-1.9173171607	-3.058792816	 0.109101
H	 2.794489115	-3.7397726731	-4.5035845287	 0.082738
H	 1.3938171851	-2.71114925	-4.8662334106	 0.10541
H	 3.067314453	-2.4423045044	-6.4473409951	 0.286182
51.7794	74.4813	84.0655	92.847	129.5157	168.2527	246.3242	263.4421	272.9781	319.4694	356.5802	483.8871	503.0141	546.8263	739.9677	771.3885	818.8467	851.5576	883.0158	906.5747	957.8946	1018.7107	1035.0337	1058.7061	1073.0921	1083.6757	1119.0784	1136.8247	1174.7364	1186.6275	1230.6178	1245.8902	1263.5109	1296.6409	1308.1502	1314.4047	1330.1123	1333.6116	1388.2899	1412.0912	1419.157	1462.2219	1468.7774	1480.9823	1492.5926	1498.9042	1502.009	1509.7155	1529.6963	2964.0936	3008.1663	3016.9207	3022.3777	3029.2271	3041.3422	3056.586	3059.8227	3071.4493	3084.3333	3097.7702	3102.6886	3109.9402	3831.2081
CCCC1OC1CCO	CCC[C@H]1O[C@H]1CCO	
InChI=1S/C7H14O2/c1-2-3-6-7(9-6)4-5-8/h6-8H,2-5H2,1H3	InChI=1S/C7H14O2/c1-2-3-6-7(9-6)4-5-8/h6-8H,2-5H2,1H3/t6-,7+/m1/s1
