21
gdb 111013	2.48036	1.40861	1.11123	1.2634	78.03	-0.2508	0.0735	0.3243	1174.0219	0.183486	-424.20882	-424.200125	-424.19918	-424.241998	34.162	
O	-0.1136630341	 1.4374684306	-0.0909004042	-0.427169
C	 0.0126263114	 0.0351747486	 0.12795171	-0.13191
C	-1.3791099625	-0.5584054069	 0.0272131717	 0.022341
C	-2.0253288565	-0.6649148275	-1.3914085742	-0.016833
C	-1.2252766012	-1.9845636497	-1.5863577251	-0.308813
C	-1.4898456639	-2.106746292	-0.0494039774	 0.409075
O	-0.695790611	-2.8628436746	 0.813631436	-0.495161
C	-3.0196121793	-2.3099818366	-0.0126405495	-0.277793
C	-3.4299951424	-1.2039415323	-1.0404113309	-0.220866
H	 0.7514558199	 1.8370682478	 0.0377049135	 0.28445
H	 0.7033011702	-0.4130143285	-0.599749674	 0.086729
H	 0.4177345507	-0.1772561042	 1.1290686618	 0.096928
H	-2.0061524353	-0.0807985806	 0.7889842349	 0.065233
H	-1.9574389607	 0.1584490183	-2.0995062219	 0.073056
H	-1.6539496001	-2.7475754883	-2.2442395117	 0.079522
H	-0.1733072579	-1.8353517551	-1.8268794649	 0.102506
H	-0.9406773417	-3.7898563558	 0.7218059193	 0.277886
H	-3.3056767168	-3.3178092353	-0.3339719268	 0.084381
H	-3.4253663844	-2.1433995617	 0.9891644959	 0.1011
H	-4.0692788097	-0.4365725998	-0.595043523	 0.100657
H	-3.9487632046	-1.6117915466	-1.9127374896	 0.094683
72.5866	142.0826	228.4888	242.3796	270.3872	281.3909	314.1454	393.5915	441.3309	517.7598	537.4137	605.3772	667.0778	791.3393	841.8765	857.7345	885.616	897.5774	939.3345	972.3709	979.7719	1016.8459	1042.8567	1072.5595	1089.4496	1102.706	1119.9013	1136.0515	1182.2758	1208.2894	1217.8782	1226.9019	1251.5124	1259.6136	1269.8896	1276.6807	1310.2871	1323.2669	1362.9822	1405.4577	1464.3507	1492.8761	1496.5577	1515.8983	1530.614	2985.2684	3013.238	3037.549	3042.1439	3051.6709	3056.5474	3084.5637	3103.5585	3135.7851	3141.0889	3805.4456	3828.9036
OCC1C2CC1(O)CC2	OC[C@H]1[C@H]2C[C@]1(O)CC2	
InChI=1S/C7H12O2/c8-4-6-5-1-2-7(6,9)3-5/h5-6,8-9H,1-4H2	InChI=1S/C7H12O2/c8-4-6-5-1-2-7(6,9)3-5/h5-6,8-9H,1-4H2/t5-,6+,7-/m1/s1
