16
gdb 31691	4.59404	0.91293	0.77039	1.7297	75.65	-0.2304	-0.0386	0.1918	1398.9373	0.124896	-437.934339	-437.926071	-437.925127	-437.967753	30.131	
O	 0.2553741157	 1.0237042865	 0.8254321365	-0.407598
C	-0.0161492482	 0.1278717436	-0.2404712641	-0.163868
C	-1.3878104157	-0.477895147	-0.1613841116	 0.200732
C	-2.1783712784	-0.5261884079	 0.9506233191	-0.173009
N	-3.3641506475	-1.17365996	 0.6139971188	-0.0433
C	-4.4249057022	-1.4103810806	 1.4800882348	 0.180844
O	-5.4424249362	-1.9704331263	 1.167623962	-0.291435
C	-3.3155003893	-1.536229103	-0.7255063534	-0.054307
C	-2.1180764314	-1.1198004995	-1.2253617502	-0.274589
H	-0.3963988763	 1.7313013644	 0.7759841404	 0.282772
H	 0.1218412472	 0.6101551781	-1.221582197	 0.099438
H	 0.7535022469	-0.6502934362	-0.167829873	 0.129772
H	-2.0059477375	-0.1716944791	 1.9534205843	 0.147056
H	-4.2171255598	-1.0204101474	 2.4927889283	 0.099045
H	-4.1532024725	-2.0471557155	-1.1685229427	 0.156909
H	-1.7799263148	-1.24859621	-2.2431096323	 0.11154
74.4208	105.1929	148.2662	239.5862	271.317	279.7078	353.3984	446.7165	507.6004	618.1529	629.5574	719.6849	726.7109	795.2543	805.1623	859.6444	972.3217	1000.0734	1001.876	1031.6351	1070.8124	1091.0484	1180.8678	1205.177	1235.4907	1321.2512	1334.7993	1390.7997	1425.702	1434.5821	1449.4291	1500.8502	1524.5888	1628.9499	1825.5986	2975.5458	2978.441	3046.6874	3242.2447	3274.0101	3293.4374	3806.3395
OCC1=CN(C=O)C=C1	OCc1cn(C=O)cc1	
InChI=1S/C6H7NO2/c8-4-6-1-2-7(3-6)5-9/h1-3,5,8H,4H2	InChI=1S/C6H7NO2/c8-4-6-1-2-7(3-6)5-9/h1-3,5,8H,4H2
