19
gdb 115325	2.719	1.28095	0.99515	2.4744	71.14	-0.2479	-0.0415	0.2064	1214.3022	0.159648	-460.188165	-460.17935	-460.178406	-460.222202	33.116	
O	-0.1372937779	 1.5349331264	-0.2597816111	-0.425549
C	 0.000192159	 0.1318462951	-0.2601631422	-0.076771
C	-1.3349693255	-0.5797533589	 0.00005379	-0.112012
C	-1.3300230092	-2.1201933954	-0.0191485441	-0.245337
C	-2.5638552877	-2.5149709024	 0.8244132076	-0.23081
C	-2.600921531	-1.496031031	 1.9630491836	 0.045461
O	-1.7827641175	-1.9639084339	 3.0309992021	-0.434695
C	-1.9038499909	-0.2508616531	 1.3751058832	 0.385684
O	-1.7455054595	 0.7810803792	 1.9910695166	-0.353143
H	-0.5290569274	 1.7639749033	 0.5943220949	 0.294855
H	 0.3853744552	-0.1522112042	-1.2453689538	 0.108672
H	 0.736165301	-0.2092111004	 0.487585436	 0.089597
H	-2.0651997343	-0.2033819464	-0.732998757	 0.114896
H	-1.3608366703	-2.5300894234	-1.0309906093	 0.108221
H	-0.4186683063	-2.4914161078	 0.4629652539	 0.1214
H	-3.4756790498	-2.4197428617	 0.2244160764	 0.106299
H	-2.5187711688	-3.5360516328	 1.2088073139	 0.122122
H	-3.6149518681	-1.2603180209	 2.3132019213	 0.085699
H	-1.6414150508	-1.2172862418	 3.6263559279	 0.29541
40.7067	120.324	172.2302	203.8036	240.4597	317.4966	380.3859	395.6284	426.3634	502.3391	563.1384	591.1836	630.6948	663.3768	816.3315	835.3916	910.1803	926.3765	995.339	998.4202	1022.4297	1072.7812	1081.6285	1104.6799	1159.108	1168.8315	1206.8352	1209.2717	1246.8724	1275.8413	1319.6852	1336.9208	1343.859	1351.7694	1387.9379	1410.0911	1457.6271	1477.4837	1496.5874	1511.1652	1808.3589	2962.1499	3001.1444	3011.5104	3048.8399	3053.738	3066.3836	3107.2058	3117.26	3744.3767	3784.8741
OCC1CCC(O)C1=O	OC[C@H]1CC[C@@H](O)C1=O	
InChI=1S/C6H10O3/c7-3-4-1-2-5(8)6(4)9/h4-5,7-8H,1-3H2	InChI=1S/C6H10O3/c7-3-4-1-2-5(8)6(4)9/h4-5,7-8H,1-3H2/t4-,5-/m1/s1
