18
gdb 56860	2.60278	1.25921	1.05125	2.8301	78.47	-0.2602	0.0302	0.2904	1210.1633	0.145959	-401.91939	-401.910301	-401.909357	-401.953489	33.775	
C	-0.0515229544	 1.6322571174	-0.1941067649	-0.391532
C	-0.0046222089	 0.1132493539	 0.0710169136	-0.177448
C	-1.3094389016	-0.3943788443	 0.491675599	 0.332234
C	-2.3850064099	-0.8042905761	 0.8374623044	-0.472241
C	 0.5404373597	-0.6288280195	-1.1545662626	 0.135168
C	 0.3937954231	-2.1618709553	-1.2505023272	-0.396705
C	-0.4574909882	-1.8452549737	-2.4613008277	 0.456349
N	-1.0721797403	-2.5221846496	-3.3167128877	-0.543168
O	-0.3203715803	-0.4742619385	-2.3305144464	-0.262561
H	 0.9471464575	 2.0064695291	-0.4404546074	 0.116207
H	-0.7198835703	 1.8460211577	-1.0313052984	 0.149442
H	-0.4150099618	 2.1657303061	 0.6868457206	 0.13034
H	 0.7146803286	-0.075975003	 0.8816492927	 0.113685
H	-3.3364977093	-1.1660475483	 1.14064788	 0.203444
H	 1.5420088087	-0.2521862177	-1.3861418626	 0.094539
H	 1.3060852126	-2.7213636626	-1.4610196042	 0.134676
H	-0.1528414579	-2.6282361846	-0.4298620211	 0.149498
H	-1.5368719673	-1.9220573411	-4.0002480501	 0.228075
65.8205	84.9438	157.6772	191.7644	219.5326	254.7082	357.3214	366.8738	474.7283	496.0809	551.1042	630.0328	648.6844	657.0523	687.2966	783.8816	864.2948	869.3127	926.0322	955.0809	999.1089	1015.8722	1024.5011	1064.8924	1087.901	1135.9709	1164.8907	1225.0251	1245.6039	1287.9001	1321.1844	1344.4879	1387.0565	1408.424	1460.955	1491.7718	1502.4364	1830.8511	2236.9635	3001.6938	3046.399	3058.9487	3093.0992	3121.2806	3139.0683	3150.7875	3477.2433	3502.2585
CC(C#C)C1CC(=N)O1	C[C@@H](C#C)[C@H]1C[C]([NH])O1	
InChI=1S/C7H9NO/c1-3-5(2)6-4-7(8)9-6/h1,5-6,8H,4H2,2H3	InChI=1S/C7H9NO/c1-3-5(2)6-4-7(8)9-6/h1,5-6,8H,4H2,2H3/t5-,6+/m0/s1
