23
gdb 64003	2.61078	1.48488	1.23094	0.3866	91.6	-0.2207	0.0253	0.2461	1157.1818	0.206335	-351.148562	-351.139901	-351.138957	-351.181106	35.296	
C	-0.0764013833	 1.5381665951	-0.0770919818	-0.422799
C	-0.0402783063	 0.0040964339	-0.0196703269	 0.289508
C	-1.4589286062	-0.5544198282	-0.1785556919	-0.444289
C	 0.937159647	-0.5326811814	-1.1394892463	-0.27271
C	 2.2921709406	-0.6366868974	-0.4488373651	-0.255715
C	 2.0989563814	-0.7041811581	 0.8633862584	 0.328152
C	 2.6446032452	-0.3470820406	 2.2266840717	-0.327746
C	 1.2401834576	 0.3198548583	 2.4836580751	-0.253163
C	 0.6680912249	-0.5108785158	 1.2723427615	-0.061761
H	 0.9303396688	 1.9644613845	-0.0206876934	 0.113869
H	-0.5275989283	 1.875408648	-1.0168002202	 0.106944
H	-0.6678961495	 1.9546080233	 0.7454097944	 0.108853
H	-1.8954628683	-0.2641219979	-1.141061238	 0.107866
H	-1.4618677849	-1.6487953675	-0.1283425075	 0.108428
H	-2.1219042443	-0.1813125696	 0.6103343503	 0.109139
H	 0.5964153327	-1.5056337217	-1.5222331991	 0.095716
H	 0.9629950168	 0.1433527481	-2.0030051032	 0.093473
H	 3.2367405856	-0.5856774794	-0.9784156798	 0.087111
H	 2.7976463579	-1.2163518222	 2.8755240448	 0.109829
H	 3.5345381899	 0.2856158658	 2.2736880417	 0.108131
H	 0.7859485521	 0.1450312735	 3.4618389508	 0.095969
H	 1.2666051438	 1.3927156382	 2.2851579196	 0.109557
H	 0.1884041168	-1.4242465187	 1.6476765051	 0.065639
94.6516	212.1872	243.3113	258.0207	280.1262	313.0722	327.4283	338.8806	409.9772	470.1783	565.8148	629.0648	680.507	731.4762	781.9873	825.3045	846.9645	887.4493	908.4619	942.5433	947.5835	961.5612	971.1405	1008.785	1021.3263	1047.8688	1075.9809	1115.0358	1141.3473	1186.4465	1189.3648	1209.8188	1224.8863	1238.0016	1254.5939	1270.8304	1304.1144	1306.9703	1345.1355	1398.0136	1419.1707	1473.4264	1481.5789	1485.8778	1489.091	1495.2678	1503.5249	1510.2354	1739.8533	2998.0747	3011.31	3020.3929	3027.3607	3043.2332	3046.0776	3068.4071	3085.7161	3090.7726	3093.1316	3097.4255	3099.2295	3132.5286	3192.553
CC1(C)CC=C2CCC12	CC1(C)C[CH][C]2CC[C@@H]12	
InChI=1S/C9H14/c1-9(2)6-5-7-3-4-8(7)9/h5,8H,3-4,6H2,1-2H3	InChI=1S/C9H14/c1-9(2)6-5-7-3-4-8(7)9/h5,8H,3-4,6H2,1-2H3/t8-/m1/s1
