17
gdb 98009	4.45577	0.58612	0.57386	3.1324	82.82	-0.27	-0.0699	0.2001	1984.3223	0.131417	-421.836788	-421.826146	-421.825202	-421.874699	35.218	
C	-0.003222226	 1.4868057582	-0.1438067885	-0.387533
C	-0.2404020292	-0.0175382533	-0.2473340468	-0.283757
C	-1.3952991715	-0.4999914926	 0.6114737871	 0.21541
O	-2.0630922598	 0.2262010824	 1.3146528648	-0.281031
C	-1.6659971399	-1.9288112549	 0.544248427	-0.036103
C	-1.885505593	-3.1178979975	 0.4971806904	 0.15225
C	-2.1494338746	-4.5487515912	 0.4582555652	 0.246466
C	-3.2832259371	-4.9758843164	-0.4468368974	-0.482509
O	-1.4888225325	-5.3188025084	 1.1193683147	-0.264256
H	 0.8344347957	 1.7841609965	-0.7800695365	 0.115833
H	-0.8900975583	 2.0451862256	-0.4534671435	 0.135835
H	 0.2224329664	 1.7768027713	 0.8852681656	 0.137887
H	-0.4462280028	-0.3257215672	-1.2816600296	 0.133621
H	 0.6497285164	-0.5902193626	 0.0468109513	 0.139955
H	-3.0894036826	-4.6502138773	-1.4745732849	 0.150638
H	-3.3869744254	-6.0611586536	-0.4105159746	 0.150529
H	-4.2161067159	-4.4975418391	-0.1294023343	 0.156765
32.0614	51.3819	66.9824	93.6211	123.9299	192.0567	212.1207	251.1053	277.9856	317.0538	486.4898	558.9936	570.0081	607.093	623.4496	701.9633	806.2256	847.7663	971.4235	1003.2764	1043.9135	1061.5025	1089.7376	1142.5892	1228.4139	1272.2521	1369.2725	1383.3074	1414.5921	1446.6799	1459.4371	1467.0826	1492.4363	1497.8794	1768.1251	1774.2032	2293.3918	3022.6239	3040.3138	3050.1439	3054.5704	3105.0322	3127.5882	3130.7066	3154.6415
CCC(=O)C#CC(C)=O	CCC(=O)C#CC(=O)C	
InChI=1S/C7H8O2/c1-3-7(9)5-4-6(2)8/h3H2,1-2H3	InChI=1S/C7H8O2/c1-3-7(9)5-4-6(2)8/h3H2,1-2H3
