19
gdb 88488	2.29963	1.45451	1.12877	2.8619	81.7	-0.2373	0.0411	0.2783	1162.7634	0.158599	-381.983611	-381.974485	-381.973541	-382.017368	34.618	
C	 0.4697628471	 1.415801894	-0.5149307103	-0.412749
C	 0.08687264	 0.0380258198	-0.0309024178	 0.024715
N	 1.1623724492	-0.9603933296	 0.1439922377	-0.352041
C	 0.4134464067	-0.4969728532	 1.3188595288	-0.142538
C	 1.2149471578	 0.2760615463	 2.3438157787	 0.110684
C	 2.3841530917	-0.4158968142	 2.9711383663	-0.269814
N	 2.6022931643	 0.6634746485	 2.0059132757	-0.343568
C	 0.443617939	 1.2228384674	 3.1110349671	 0.320893
C	-0.2406428005	 1.9800405993	 3.7466704314	-0.42869
H	 1.372521729	 1.7825026776	-0.0235176779	 0.149072
H	 0.6443058757	 1.4071303247	-1.5960545829	 0.118546
H	-0.3384525501	 2.124566281	-0.3074639524	 0.126733
H	-0.8423148815	-0.3400087441	-0.4561682799	 0.087063
H	 0.8624479344	-1.8870686932	-0.1423857856	 0.235777
H	-0.3168454151	-1.1735635624	 1.7594990091	 0.093772
H	 2.6503803188	-0.1837312935	 3.9975650735	 0.125576
H	 2.5744328637	-1.4391835791	 2.6560525064	 0.115035
H	 2.7988327859	 0.2368631484	 1.0987284382	 0.24949
H	-0.8291161863	 2.6613829725	 4.3095093842	 0.192042
67.8795	130.0006	166.7608	179.6913	227.5791	254.6854	318.2456	390.8324	466.0181	500.8725	548.9066	580.4421	605.5404	651.6917	702.7865	793.2562	835.4294	880.1387	912.2005	940.3817	958.4609	1010.7191	1012.2648	1028.9989	1072.9947	1103.1261	1123.9465	1156.7243	1197.7267	1248.4585	1262.1044	1287.7596	1322.863	1356.5275	1403.8176	1429.2655	1460.4333	1493.468	1499.5499	1500.8766	2238.4505	3041.6797	3102.342	3106.0332	3106.8851	3122.2015	3143.8299	3201.6389	3447.0321	3503.6572	3519.5966
CC1NC1C1(CN1)C#C	C[C@H]1N[C@H]1[C@]1(CN1)C#C	
InChI=1S/C7H10N2/c1-3-7(4-8-7)6-5(2)9-6/h1,5-6,8-9H,4H2,2H3	InChI=1S/C7H10N2/c1-3-7(4-8-7)6-5(2)9-6/h1,5-6,8-9H,4H2,2H3/t5-,6-,7-/m1/s1
