18
gdb 13263	6.29305	0.87968	0.80822	1.4707	77.24	-0.2346	0.0572	0.2918	1442.5426	0.152384	-347.762785	-347.753675	-347.752731	-347.798963	30.781	
C	 0.0103728129	 1.4720697832	 0.0758506192	-0.496895
C	 0.032326281	 0.016420288	 0.0761628626	 0.093013
C	 0.0518910688	-1.1871339723	 0.0846430126	 0.04678
C	 0.0464252041	-2.6450647148	 0.0814867735	-0.36544
C	-1.3283592446	-3.2424214324	-0.2244764867	 0.174278
C	-1.4804340561	-4.7740022296	-0.0923485444	-0.301194
C	-2.5862032219	-4.427025044	 0.9237521453	-0.057107
O	-2.2854219468	-3.0190668651	 0.8353212166	-0.284582
H	 0.4178838829	 1.8795767049	-0.8561453039	 0.143614
H	-1.0111607687	 1.8529849869	 0.1849111676	 0.149114
H	 0.6039053195	 1.8793855937	 0.9019857539	 0.145991
H	 0.7537058187	-3.0246252864	-0.6699781838	 0.122225
H	 0.3820026814	-3.0305050586	 1.0529936889	 0.124288
H	-1.6999427659	-2.8360805509	-1.1747663736	 0.08121
H	-1.7920887169	-5.3093355508	-0.9900729959	 0.110306
H	-0.6078044258	-5.2705373445	 0.3385631566	 0.10909
H	-3.6076051813	-4.6478855187	 0.5876761882	 0.100779
H	-2.4591318913	-4.8112770588	 1.9424194533	 0.104532
16.8449	56.3013	76.064	100.0496	210.3132	252.2287	328.498	382.6994	394.2994	494.8871	734.1225	766.8199	812.3994	868.9977	891.2554	966.3874	1008.978	1037.1859	1052.3767	1055.4833	1094.1328	1123.6213	1166.3079	1169.7503	1211.5118	1233.5045	1256.333	1288.9668	1318.1391	1370.3477	1393.3223	1415.1108	1456.4365	1478.9291	1479.3647	1489.4376	1532.6804	2375.9577	3004.5924	3008.0316	3014.878	3024.9844	3047.2575	3054.8604	3073.2318	3084.2445	3085.8457	3131.0521
CC#CCC1CCO1	CC#CC[C@H]1CCO1	
InChI=1S/C7H10O/c1-2-3-4-7-5-6-8-7/h7H,4-6H2,1H3	InChI=1S/C7H10O/c1-2-3-4-7-5-6-8-7/h7H,4-6H2,1H3/t7-/m0/s1
