13
gdb 32052	4.06734	1.25741	0.96635	5.4999	63.69	-0.2836	-0.071	0.2126	1128.711	0.089638	-489.944718	-489.937077	-489.936133	-489.977496	26.661	
C	-0.0404618967	 1.3882764673	 0.0573462548	-0.236598
O	 0.0351716119	-0.0466686954	-0.0585443881	-0.22236
C	 0.6389610266	-0.5303879562	-1.1164642588	 0.54816
N	 1.1598363724	 0.2248546297	-2.0434602053	-0.403153
C	 1.7377519039	-0.4818949441	-3.0533093187	 0.090239
N	 1.8248910206	-1.7731365503	-3.1910872863	-0.320402
C	 1.2784583691	-2.5629803644	-2.2186284626	 0.463916
O	 1.242817502	-3.7461684027	-2.1414913827	-0.304542
O	 0.6420485592	-1.8454078974	-1.1060382158	-0.229241
H	 0.9619835232	 1.8181102929	 0.0906052972	 0.157838
H	-0.5876928792	 1.8074326852	-0.7885926679	 0.157831
H	-0.5715202435	 1.5658741778	 0.9912129425	 0.153812
H	 2.1808454404	 0.1245525178	-3.8411871181	 0.1445
87.9283	131.6445	144.2341	212.917	226.5276	389.7039	431.5815	525.6501	562.2785	649.2101	743.8811	778.0466	816.3176	843.3745	955.4423	1016.1649	1036.7868	1111.366	1179.0372	1198.3656	1317.6031	1405.2168	1428.9837	1478.0258	1481.7711	1491.4745	1564.1005	1657.5245	1922.363	3067.3291	3152.6595	3160.4912	3178.3251
COC1=NC=NC(=O)O1	COc1ncnc(=O)o1	
InChI=1S/C4H4N2O3/c1-8-4-6-2-5-3(7)9-4/h2H,1H3	InChI=1S/C4H4N2O3/c1-8-4-6-2-5-3(7)9-4/h2H,1H3
