24
gdb 8948	3.58358	1.12317	0.91314	1.0264	82.38	-0.2473	0.085	0.3323	1374.4738	0.220716	-351.408443	-351.397626	-351.396682	-351.444224	38.807	
C	-0.0187992316	 1.6113285455	 0.0214318252	-0.390176
C	-0.0571043742	 0.0810831705	-0.0656782238	-0.180007
C	 0.7348205169	-0.5096200644	-1.2481318895	 0.038494
C	 2.2102782919	-0.082554529	-1.225026966	-0.403192
C	 0.6303969696	-2.0480038619	-1.3051421171	 0.145302
C	-0.805691132	-2.5812478495	-1.306004	-0.40997
O	 1.3044703928	-2.4532487609	-2.4964816307	-0.246283
C	 1.7996000299	-3.7694434922	-2.4817392505	-0.236863
H	 0.9874725967	 1.9875370689	 0.2253543271	 0.119783
H	-0.3617769823	 2.0685175669	-0.9138144349	 0.113504
H	-0.6719248283	 1.9690240787	 0.8236866515	 0.109528
H	 0.3261849341	-0.3452154038	 0.8726904938	 0.089519
H	-1.1041655075	-0.2307857714	-0.1370489803	 0.097059
H	 0.2845919536	-0.1379281412	-2.1805720276	 0.075329
H	 2.7606665449	-0.5802600365	-2.0249261084	 0.128984
H	 2.3199490617	 0.9969729117	-1.3569913991	 0.110047
H	 2.6782869769	-0.3497319555	-0.2688516585	 0.101479
H	 1.1680902649	-2.4647464596	-0.4345342397	 0.056639
H	-1.3929871403	-2.0999242197	-2.0949117779	 0.119902
H	-0.8169705384	-3.659846506	-1.4873937481	 0.113117
H	-1.3014474495	-2.4094265534	-0.3471789819	 0.118291
H	 2.4951420064	-3.9342935372	-1.6434383023	 0.101918
H	 1.00329307	-4.526191195	-2.4174288348	 0.103214
H	 2.339784254	-3.9210769849	-3.4201448867	 0.124382
60.7303	80.7669	92.4044	164.9129	199.1293	207.4281	218.1846	264.1783	299.5932	323.1485	348.1445	398.1962	418.4868	503.2545	526.2518	776.2857	821.6133	848.0245	906.8013	966.6711	986.6946	995.9948	1035.8173	1061.0352	1113.2109	1140.2794	1158.5336	1180.5517	1182.6616	1195.281	1227.2382	1286.9429	1313.8447	1346.7238	1370.2385	1376.1615	1392.7103	1401.9897	1407.8632	1413.0085	1477.4554	1484.2487	1484.8688	1492.6108	1495.0039	1500.7495	1503.7079	1508.6463	1512.4984	1516.9651	2940.1112	2972.716	2997.4792	3011.0879	3017.5951	3029.7523	3033.6485	3041.0363	3067.044	3096.7501	3101.1178	3105.4336	3110.3053	3113.8305	3119.1938	3138.4733
CCC(C)C(C)OC	CC[C@@H](C)[C@@H](C)OC	
InChI=1S/C7H16O/c1-5-6(2)7(3)8-4/h6-7H,5H2,1-4H3	InChI=1S/C7H16O/c1-5-6(2)7(3)8-4/h6-7H,5H2,1-4H3/t6-,7-/m1/s1
