16
gdb 16858	4.14082	1.97045	1.47443	3.4313	66.25	-0.2271	0.0307	0.2578	843.9987	0.132955	-379.902732	-379.896109	-379.895165	-379.933487	26.094	
N	-0.1130217413	 1.2905058484	 0.4893921576	-0.519031
C	-0.0523361031	 0.1182103426	 0.0223606735	 0.429604
C	-1.2489861639	-0.8084052148	 0.0381119102	-0.254762
N	-1.2344767675	-1.6201535843	-1.1772905835	-0.30892
C	-0.0807548534	-2.4768912644	-1.2026465157	-0.034703
C	 0.974486336	-2.2082280153	-2.2598346171	-0.309973
C	 1.1793117327	-1.7477778834	-0.8434980203	 0.104763
O	 1.090458792	-0.371081293	-0.5528119763	-0.246027
H	 0.7969652098	 1.749450533	 0.4083225956	 0.219335
H	-1.2220510705	-1.4075870595	 0.9665935839	 0.10378
H	-2.1422726615	-0.1838480162	 0.0711383784	 0.139755
H	-2.0963392953	-2.1336359496	-1.3015393746	 0.232321
H	-0.1877340208	-3.49442428	-0.8249562186	 0.086669
H	 1.5859746896	-3.0286391594	-2.6186992345	 0.115009
H	 0.7242476043	-1.4449616607	-2.9867708723	 0.134571
H	 1.9298161329	-2.2393069735	-0.2325971665	 0.107609
93.6744	209.7488	301.3781	394.6589	456.7324	474.9263	495.292	612.1188	629.4895	726.2443	796.7723	827.3995	870.0821	906.8925	933.5381	997.4868	1027.9659	1039.4576	1054.0475	1074.8668	1107.3857	1128.7705	1156.3699	1182.238	1240.3161	1260.3441	1304.6239	1323.5128	1391.3641	1418.9993	1458.5412	1484.4124	1495.2955	1764.3445	2935.0582	3086.4245	3127.3192	3140.9435	3154.9987	3241.0933	3461.7291	3573.6838
N=C1CNC2CC2O1	[NH][C]1CN[C@H]2C[C@H]2O1	
InChI=1S/C5H8N2O/c6-5-2-7-3-1-4(3)8-5/h3-4,6-7H,1-2H2	InChI=1S/C5H8N2O/c6-5-2-7-3-1-4(3)8-5/h3-4,6-7H,1-2H2/t3-,4+/m0/s1
