20
gdb 74418	2.61182	1.52807	1.16973	1.2674	80.21	-0.2327	0.0273	0.26	1149.1361	0.169279	-403.175039	-403.165833	-403.164889	-403.208359	34.948	
C	-0.0079273797	 1.4303500016	 0.0782712986	-0.480332
C	-0.0395008107	-0.0526076327	-0.0533016305	 0.372501
N	-0.0716766429	-0.7258149166	-1.1364084552	-0.342303
C	-0.0545851511	-2.1255453988	-0.7584726844	 0.280963
C	-0.8149962552	-3.0706943041	-1.6493643334	-0.471298
C	 1.2000883745	-2.554838236	-0.0112584072	-0.38551
C	-0.0171755067	-2.1271258462	 0.7658661999	 0.363103
C	-0.7540420325	-2.9968287815	 1.739927394	-0.475389
O	-0.0322119093	-0.7452401631	 1.1242978241	-0.278027
H	 0.9371085998	 1.756296193	 0.5250205633	 0.144131
H	-0.1159878537	 1.885384647	-0.9058830808	 0.151854
H	-0.8134586704	 1.7714777863	 0.7358770484	 0.142631
H	-0.3666681888	-3.0936023684	-2.6478257166	 0.132024
H	-0.8018603184	-4.0888362387	-1.2492790024	 0.110894
H	-1.8576605605	-2.7551451985	-1.75663738	 0.122937
H	 1.4191603827	-3.6178655435	-0.0000806457	 0.112193
H	 2.0684394833	-1.9044570561	-0.0384249415	 0.115348
H	-0.7731045863	-4.0304905761	 1.3844416022	 0.124843
H	-0.2670617561	-2.9881103745	 2.7209293353	 0.131427
H	-1.786296008	-2.655865073	 1.867047152	 0.12801
133.5088	161.9357	171.2536	188.5956	200.4933	214.5929	276.8477	356.1943	415.785	456.3804	474.1593	584.8586	615.3619	653.189	705.2321	786.6234	854.3606	912.1137	933.3025	960.2383	966.0867	997.8513	1036.8861	1053.196	1068.0661	1104.5262	1111.6716	1183.7082	1216.4025	1299.3537	1319.8728	1383.7504	1410.6099	1414.306	1427.2123	1472.6508	1474.8221	1475.7839	1478.3066	1483.1792	1495.5124	1505.7657	1709.7746	3035.3249	3037.5533	3048.3556	3100.4739	3103.1119	3104.8652	3110.4959	3119.6684	3123.1036	3163.0871	3214.3948
CC1=NC2(C)CC2(C)O1	CC1=N[C@@]2(C)C[C@@]2(C)O1	
InChI=1S/C7H11NO/c1-5-8-6(2)4-7(6,3)9-5/h4H2,1-3H3	InChI=1S/C7H11NO/c1-5-8-6(2)4-7(6,3)9-5/h4H2,1-3H3/t6-,7+/m0/s1
