15
gdb 15936	3.487	2.00191	1.5704	2.0881	62.	-0.2367	-0.0444	0.1923	821.2301	0.118749	-399.750123	-399.743124	-399.74218	-399.781545	25.799	
O	-0.7359577608	 1.1159633881	 0.678586071	-0.257379
C	 0.2207430613	 0.8552569445	-0.0092260568	 0.083092
C	 1.4221080244	 1.7409213284	-0.1276645523	 0.332739
C	 1.7545466349	 2.7289419801	 1.0128754868	-0.22231
N	 2.0101769622	 3.8205299585	 0.0247366921	-0.31779
C	 1.5371986598	 2.9783647418	-1.0886813772	-0.099316
C	 2.6713109022	 2.1690437851	-1.7428637547	-0.07153
O	 2.5468698139	 1.110556544	-0.7548472068	-0.336676
H	 0.2733332201	-0.0610488758	-0.6365596279	 0.09276
H	 0.8767254449	 2.8882536809	 1.6477696103	 0.128543
H	 2.6219153165	 2.4646347836	 1.6241784955	 0.119212
H	 1.4341357609	 4.6385552227	 0.1807769783	 0.229947
H	 0.7341547788	 3.3696242006	-1.7143188265	 0.093678
H	 2.454978987	 1.7906925118	-2.7495147889	 0.106048
H	 3.6528435738	 2.6516443255	-1.718116893	 0.118984
107.0943	124.3898	223.7608	243.3379	371.786	411.0471	510.5083	637.466	717.2248	742.717	806.8651	860.3327	923.8292	951.2217	1000.7329	1007.9103	1045.4877	1061.3896	1106.5758	1124.3656	1142.3879	1172.2625	1187.9148	1239.6439	1292.9059	1334.5768	1346.7083	1395.284	1400.5055	1493.0619	1504.7552	1810.7374	2903.6081	3023.2412	3042.9881	3092.9997	3103.5986	3107.309	3552.4723
O=CC12CNC1CO2	O=C[C@]12CN[C@H]1CO2	
InChI=1S/C5H7NO2/c7-3-5-2-6-4(5)1-8-5/h3-4,6H,1-2H2	InChI=1S/C5H7NO2/c7-3-5-2-6-4(5)1-8-5/h3-4,6H,1-2H2/t4-,5+/m0/s1
