20
gdb 64433	2.6211	1.53699	1.26012	1.7914	76.29	-0.2409	0.0158	0.2568	1090.5482	0.17036	-440.296991	-440.288135	-440.28719	-440.330197	34.049	
C	-0.148979687	 1.6198985605	-0.1235716126	-0.437336
C	-0.0306547337	 0.0931445613	-0.0117705552	 0.426436
C	-1.395962125	-0.5833205745	 0.0184833094	-0.406344
O	 0.6552860371	-0.4987916218	-1.0797335785	-0.260884
C	 1.948403458	-0.0079787972	-1.3994946102	-0.106947
C	 3.0087524382	-0.476664909	-0.410543746	-0.150219
N	 2.9189697877	 0.0207759897	 0.951578487	-0.251943
C	 1.8423692994	 0.0728571325	 1.6055016294	 0.11632
O	 0.5533441578	-0.219400779	 1.2769916856	-0.262348
H	 0.8087913664	 2.1212251993	 0.0287280634	 0.134068
H	-0.538049277	 1.8930918077	-1.1079819673	 0.128405
H	-0.8398215423	 1.982230871	 0.640865259	 0.129975
H	-1.9517721394	-0.3380972001	-0.8893293784	 0.124318
H	-1.2600475244	-1.6654265868	 0.0683766236	 0.134017
H	-1.9629044794	-0.2526498208	 0.8906988308	 0.125437
H	 2.1759974159	-0.4147327122	-2.3901607769	 0.111768
H	 1.9535168544	 1.0859047376	-1.4816336608	 0.103135
H	 2.9825564985	-1.5752818382	-0.3758688671	 0.121664
H	 3.9921206067	-0.196903668	-0.8076375042	 0.105485
H	 1.8851783481	 0.3418838382	 2.6620216191	 0.114994
84.4135	109.3108	211.8238	251.2618	270.0388	314.072	340.8595	386.7937	394.868	445.8738	499.4142	517.1891	598.3887	709.232	795.6761	813.7909	852.7724	925.4738	932.5454	961.6491	973.3404	1018.9059	1046.7779	1087.3515	1117.8914	1148.3465	1183.9319	1228.1837	1263.012	1281.1644	1318.9898	1381.5219	1398.747	1406.4632	1415.6303	1431.4884	1473.5805	1476.3988	1480.5106	1489.97	1495.5725	1514.9068	1751.4146	3009.4788	3028.6886	3054.3697	3056.8256	3062.2576	3083.2372	3125.8381	3132.6745	3135.9011	3142.4691	3148.1622
CC1(C)OCCN=CO1	CC1(C)OCCN=CO1	
InChI=1S/C6H11NO2/c1-6(2)8-4-3-7-5-9-6/h5H,3-4H2,1-2H3	InChI=1S/C6H11NO2/c1-6(2)8-4-3-7-5-9-6/h5H,3-4H2,1-2H3
