17
gdb 50006	3.80294	1.17826	1.02752	2.0999	74.3	-0.2509	-0.0041	0.2467	1157.8545	0.135989	-417.944734	-417.936973	-417.936029	-417.97737	29.211	
O	 0.165826693	 0.2116663637	 0.6213643351	-0.281153
C	 0.0836200132	 1.328123792	 0.17335651	 0.135934
N	 1.0711764837	 1.9614182608	-0.5658912927	-0.124346
C	 2.4873898622	 1.8461113028	-0.2727639461	-0.312379
C	 1.7848127277	 3.1608900523	-0.1818076483	 0.342873
C	 2.0174161624	 4.4376364987	-0.9947144384	-0.25376
N	 1.9673368535	 5.2720771153	 0.2635118885	-0.118015
C	 0.6152905563	 5.0819949093	 0.8069137209	-0.239645
C	 1.6100894042	 4.0125824658	 1.0487293646	-0.118436
H	-0.8292089575	 1.9485564062	 0.2519938444	 0.086086
H	 2.7562006209	 1.3384754018	 0.6509331211	 0.141576
H	 3.1341757013	 1.6396932389	-1.1216475862	 0.131089
H	 3.0065424389	 4.4957853731	-1.4530996193	 0.126651
H	 1.252422562	 4.7018595516	-1.7311674929	 0.119707
H	 0.3929899389	 5.746325133	 1.6361678528	 0.132085
H	-0.2134780849	 4.9138053952	 0.1216381045	 0.11905
H	 2.0279947342	 3.8032179795	 2.0279883121	 0.112683
85.7853	113.1169	178.4779	232.8969	327.4008	358.7794	436.1478	482.4661	533.3965	681.1473	759.5368	782.3676	823.7396	878.6227	907.3309	950.9224	961.1679	996.8409	1036.3269	1045.9321	1087.1523	1112.8471	1117.5721	1120.199	1136.8807	1188.0959	1205.7399	1215.1713	1243.4938	1277.8503	1340.0738	1416.2243	1445.9052	1487.1939	1505.2239	1515.8766	1801.4453	2956.1021	3056.4871	3102.6066	3104.8835	3120.4676	3168.229	3193.9163	3200.2617
O=CN1CC11CN2CC12	O=CN1C[C@]21CN1C[C@@H]21	
InChI=1S/C6H8N2O/c9-4-8-3-6(8)2-7-1-5(6)7/h4-5H,1-3H2	InChI=1S/C6H8N2O/c9-4-8-3-6(8)2-7-1-5(6)7/h4-5H,1-3H2/t5-,6+,7?,8?/m0/s1
