17
gdb 67318	3.27073	1.4182	1.2133	1.47	79.16	-0.2448	0.0468	0.2917	1053.2423	0.134876	-384.578593	-384.570864	-384.56992	-384.610492	30.895	
O	-0.0894320946	 1.3283000312	-0.03266	-0.467405
C	 0.0173535929	-0.0432436991	-0.0408255917	 0.412951
C	 0.4141277215	-0.9987766144	 1.1492121193	-0.129536
C	-1.0296983549	-1.0044144998	 1.6921585167	-0.277855
C	-1.2050173013	-0.986981856	 0.1587974283	-0.081507
C	 0.03932751	-1.9156030494	-0.0590829916	-0.042307
C	 0.6884109593	-0.9662192117	-1.1044370688	-0.291102
C	 0.1776824271	-0.9609925517	-2.4592067169	 0.305608
C	-0.2530215364	-0.9510900385	-3.5825008744	-0.439579
H	 0.7943238105	 1.7094723539	 0.0146798724	 0.287255
H	 1.3648523244	-1.0069771471	 1.6855093473	 0.069094
H	-1.3537459694	-1.9102981506	 2.2131396236	 0.093452
H	-1.3544358778	-0.1103027647	 2.2307179469	 0.105815
H	-2.1136228208	-0.9859054769	-0.4415862288	 0.088046
H	 0.0353162462	-3.0027959078	-0.0640763446	 0.088009
H	 1.785449057	-0.9599702911	-1.0886796202	 0.087046
H	-0.6332929436	-0.9413377462	-4.5738071576	 0.192014
125.1481	128.3445	251.1814	303.478	332.6019	385.1747	398.417	517.2753	559.5634	612.0106	637.2037	665.1147	752.2819	806.3939	858.817	880.5153	897.53	917.8252	924.416	958.851	1012.1227	1028.4256	1069.5801	1072.0033	1081.6295	1125.7099	1156.7918	1166.4739	1193.2446	1219.8237	1233.5416	1270.2642	1303.3272	1336.4339	1409.7938	1506.8454	2230.1979	3029.1755	3050.084	3096.9129	3110.2236	3129.081	3152.4569	3504.0128	3803.3556
OC12C3CC1C3C2C#C	O[C@@]12[C@H]3C[C@@H]1[C@H]3[C@H]2C#C	
InChI=1S/C8H8O/c1-2-4-7-5-3-6(7)8(4,5)9/h1,4-7,9H,3H2	InChI=1S/C8H8O/c1-2-4-7-5-3-6(7)8(4,5)9/h1,4-7,9H,3H2/t4-,5-,6+,7-,8-/m1/s1
