15
gdb 35596	4.77977	0.89515	0.78125	3.0376	78.62	-0.2815	-0.0601	0.2214	1362.0083	0.114285	-379.718664	-379.710732	-379.709788	-379.751741	28.756	
N	-0.7382650757	-0.8225383428	-0.9079203633	-0.315239
C	-0.3647266076	 0.1731394731	-0.4555792841	 0.266626
C	 0.1081115168	 1.4245349465	 0.1259328725	-0.15116
C	-0.4540964682	 1.7052361134	 1.554390538	-0.268668
C	 0.676612866	 2.4412841054	 2.2170014126	-0.152426
C	 1.8198003722	 2.3379683623	 1.5268642626	 0.200178
C	 1.6582011685	 1.5021891796	 0.2694077438	-0.32318
C	 3.0732039757	 2.8860665391	 1.9119673266	 0.204512
N	 4.107649725	 3.3234384896	 2.1949990419	-0.324101
H	-0.2132025577	 2.2399149134	-0.5304302723	 0.142385
H	-1.3850781053	 2.2784426495	 1.5223203137	 0.139242
H	-0.6761674368	 0.7734411192	 2.0904637567	 0.150019
H	 0.5713131985	 2.9574818711	 3.1631911887	 0.13486
H	 2.1033081192	 0.5100927102	 0.4052591326	 0.1519
H	 2.1302215594	 1.9499135505	-0.6083112699	 0.145051
65.8763	121.4884	171.4088	200.7473	267.7869	379.0481	446.7341	527.9355	542.2926	576.4375	592.5786	616.856	835.1762	861.9845	876.4447	937.3369	989.9323	1027.4571	1039.6646	1056.3819	1148.2819	1183.7017	1204.8728	1277.0558	1304.5947	1309.9374	1326.3389	1362.3808	1481.3744	1493.1301	1680.013	2341.6275	2361.7805	3033.5005	3050.3136	3058.534	3088.7889	3105.9547	3219.6193
N#CC1CC=C(C1)C#N	N#C[C@H]1CC=C(C1)C#N	
InChI=1S/C7H6N2/c8-4-6-1-2-7(3-6)5-9/h1,7H,2-3H2	InChI=1S/C7H6N2/c8-4-6-1-2-7(3-6)5-9/h1,7H,2-3H2/t7-/m0/s1
