20
gdb 91954	2.31167	1.74346	1.31709	2.4825	77.6	-0.2329	0.0676	0.3005	1054.3293	0.171669	-403.107574	-403.099512	-403.098568	-403.139974	31.84	
C	-0.4626744256	 1.4783957727	 0.0340209569	-0.408223
C	 0.0107920547	 0.0192351189	-0.0210432059	-0.094222
C	 0.8831887038	-0.3321445819	-1.2664647082	-0.181209
N	 2.2756967269	-0.6016366232	-0.8448539538	-0.097824
C	 2.9006054491	 0.510764845	-0.1222863395	-0.259923
C	 2.28954635	-0.6162261921	 0.6303711774	-0.106481
C	 0.8950699663	-0.426664639	 1.1530712621	 0.441839
C	 0.5858814955	-0.2059845472	 2.5699422823	-0.25131
O	 0.4028112765	-1.4943300488	 1.9779711424	-0.282303
H	 0.3691995263	 2.1883999725	 0.0683399835	 0.121703
H	-1.0608607805	 1.7163625668	-0.8517186703	 0.120233
H	-1.0896402688	 1.6605357251	 0.9125411912	 0.118938
H	-0.8752720331	-0.6220231316	-0.0071458311	 0.1008
H	 0.5127772702	-1.2441023728	-1.7439024578	 0.115159
H	 0.8726032214	 0.4621188409	-2.0200425378	 0.104787
H	 3.9813674981	 0.563544241	-0.2189872586	 0.119305
H	 2.404765198	 1.4775613341	-0.1054360505	 0.112095
H	 2.9034322583	-1.3623302369	 1.1262182493	 0.101818
H	 1.396310107	-0.1328312382	 3.2951115116	 0.112662
H	-0.3287048439	 0.3135878647	 2.8537048769	 0.112155
83.1954	192.9237	200.8811	249.6575	298.3168	346.6277	374.1917	419.7858	495.8641	558.6548	685.4067	721.1067	771.2206	839.9163	858.1637	871.4263	896.2506	941.8809	971.5555	990.6786	1011.098	1057.529	1088.7466	1103.8854	1116.8097	1129.3188	1136.1131	1164.5266	1174.8153	1238.2591	1248.7371	1265.603	1281.169	1329.2896	1352.6727	1360.1196	1410.7283	1438.2975	1490.8001	1495.2544	1502.3162	1514.4728	1534.7579	3035.7547	3045.754	3062.3377	3075.7589	3089.0091	3101.3717	3107.0792	3114.1988	3156.1331	3159.0768	3194.4658
CC1CN2CC2C11CO1	C[C@H]1CN2C[C@H]2[C@]21CO2	
InChI=1S/C7H11NO/c1-5-2-8-3-6(8)7(5)4-9-7/h5-6H,2-4H2,1H3	InChI=1S/C7H11NO/c1-5-2-8-3-6(8)7(5)4-9-7/h5-6H,2-4H2,1H3/t5-,6-,7+,8?/m0/s1
