17
gdb 19444	3.23752	2.06484	1.58048	1.7831	68.37	-0.2279	0.065	0.2929	857.3432	0.142054	-363.791552	-363.784344	-363.7834	-363.822971	27.898	
C	 0.1063417083	 1.5210950812	-0.0934974209	-0.335455
C	 1.3104360963	 0.6106073144	 0.1144991106	-0.341836
C	-0.0595847473	 0.0386508623	-0.0502208546	 0.415323
O	-0.7460146592	-0.6172775074	 1.0170410914	-0.320565
C	-1.2980765751	-1.6099950873	 0.1127677112	-0.132837
C	-0.597600874	-0.9427529753	-1.0661178494	 0.1957
C	-0.9932076707	-0.7330319052	-2.4705285819	-0.305244
N	 0.1159043551	-1.6475752716	-2.1168677321	-0.355019
H	-0.2536704112	 2.0775122754	 0.765184572	 0.12955
H	-0.0020414208	 2.0328571548	-1.0447820318	 0.113993
H	 2.0260959757	 0.5023743427	-0.6957192103	 0.109451
H	 1.7430348177	 0.5664102533	 1.1081005311	 0.130894
H	-0.944298372	-2.6207910422	 0.3429865767	 0.116315
H	-2.3936077662	-1.5868065222	 0.1060103562	 0.108586
H	-1.8766373426	-1.2224690872	-2.8723038474	 0.123811
H	-0.7613028328	 0.2265851691	-2.927228502	 0.114923
H	 1.0164586888	-1.2065489747	-2.2926939388	 0.232411
82.4422	190.3602	202.1096	290.1446	360.9345	392.0451	529.8316	557.6022	581.7005	753.8674	822.1335	863.8227	875.8528	890.6303	925.6036	945.7516	973.5385	990.1364	1007.1668	1042.5353	1051.4278	1064.4458	1093.3342	1127.1805	1147.7985	1186.2274	1196.1192	1254.7936	1267.9853	1323.1124	1365.8523	1446.5161	1452.7175	1492.4358	1517.4862	1531.1117	3028.5941	3080.4109	3100.9703	3120.5946	3126.6516	3185.2474	3206.9614	3221.8346	3486.3316
C1CC11OCC11CN1	C1CC21OC[C@]12CN1	
InChI=1S/C6H9NO/c1-2-6(1)5(3-7-5)4-8-6/h7H,1-4H2	InChI=1S/C6H9NO/c1-2-6(1)5(3-7-5)4-8-6/h7H,1-4H2/t5-/m0/s1
