21
gdb 92241	2.59246	1.62616	1.286	1.9131	81.73	-0.2363	0.0691	0.3055	1079.5508	0.183416	-387.042089	-387.034148	-387.033204	-387.074374	31.684	
C	-0.2355117496	 1.5648419363	-0.0419605617	-0.41261
C	 0.0304387671	 0.0659786356	-0.0247272841	-0.075392
C	 1.1903931928	-0.5206908531	-0.8981935426	-0.255406
C	 1.6494391773	-1.4237122845	 0.2915949925	-0.070529
C	 2.8960499634	-0.9302062823	 1.0738372808	-0.25392
C	 1.9619030081	-0.0443615377	 1.9347050042	 0.073674
O	 1.515447182	-0.6952130763	 3.1479177716	-0.295434
C	 0.2262741687	-1.0257480811	 2.5695479587	-0.184793
C	 0.6958828425	-0.5717631583	 1.1957874168	 0.323638
H	 0.6767321745	 2.1301283657	 0.1785447421	 0.113971
H	-0.5997572516	 1.889803114	-1.0226429948	 0.116333
H	-0.9895713268	 1.8459063999	 0.7017506543	 0.116593
H	-0.8969303497	-0.4759461726	-0.250874846	 0.072977
H	 0.8808473136	-1.0471249759	-1.8035079979	 0.101898
H	 1.9381161624	 0.2289761804	-1.1773523496	 0.097605
H	 1.5109754812	-2.4966112447	 0.14618744	 0.063447
H	 3.4000453384	-1.6910875449	 1.674842716	 0.11067
H	 3.6405701526	-0.3974112737	 0.4734160968	 0.094068
H	 2.2148859298	 1.0075221883	 2.1039199154	 0.067817
H	-0.0283548031	-2.0861830734	 2.6918461393	 0.099442
H	-0.5747483038	-0.4136796717	 3.0099174281	 0.095952
97.4509	147.2437	217.5078	232.2402	315.0526	365.9407	416.8108	456.8438	510.6623	621.3703	688.6284	784.5254	802.8938	844.0822	866.9209	890.5273	904.2782	966.0993	969.2448	988.2858	1005.3037	1025.5268	1083.3995	1099.4537	1122.3701	1128.1594	1146.3487	1162.606	1181.3013	1213.3292	1233.1013	1239.0415	1269.9447	1271.5462	1289.889	1301.5546	1323.3044	1358.9916	1385.8504	1409.9108	1461.2971	1487.0335	1495.5755	1496.8906	1518.3441	2988.1062	3018.6515	3025.7978	3040.9227	3041.8278	3048.8467	3054.0759	3086.0178	3092.862	3095.4883	3107.7055	3113.5401
CC1CC2CC3OCC123	C[C@H]1C[C@H]2C[C@@H]3OC[C@]123	
InChI=1S/C8H12O/c1-5-2-6-3-7-8(5,6)4-9-7/h5-7H,2-4H2,1H3	InChI=1S/C8H12O/c1-5-2-6-3-7-8(5,6)4-9-7/h5-7H,2-4H2,1H3/t5-,6-,7-,8-/m0/s1
