19
gdb 111268	3.05795	1.28859	1.01324	2.2138	77.29	-0.2208	-0.0136	0.2072	1222.3152	0.157242	-423.009709	-423.000356	-422.999412	-423.044062	33.772	
C	 0.1350160516	 1.2823151652	-0.1860085828	-0.245385
O	-0.3044983404	-0.013061714	 0.1843514654	-0.247436
C	 0.4836218869	-0.5918094399	 1.1878051094	 0.011972
C	 0.0852463225	-2.008694632	 1.584228873	-0.136242
C	 0.2506033035	-2.910943243	 0.412783692	-0.316406
C	 1.5027776172	-2.5593833896	 1.21153163	 0.209293
C	 2.385889333	-3.5863943269	 1.8585446445	-0.495892
C	 1.9009660426	-1.1644062005	 0.8408237274	 0.334842
O	 2.9526963217	-0.6457897079	 0.5791649073	-0.328928
H	 1.1626091019	 1.2696967875	-0.5700323015	 0.136395
H	-0.5405248587	 1.6364563905	-0.9677992789	 0.127031
H	 0.0908610091	 1.9777814372	 0.6665146719	 0.106519
H	 0.5815523684	 0.08267487	 2.0555198757	 0.08543
H	-0.4965954812	-2.2694529404	 2.4583817545	 0.105371
H	-0.0709935921	-3.9383841625	 0.5525760869	 0.122603
H	 0.1005327268	-2.5262779126	-0.5900135992	 0.137024
H	 1.7990421194	-4.4249242096	 2.2462922792	 0.122345
H	 3.1039841581	-3.9881881963	 1.1358644986	 0.139915
H	 2.9563750497	-3.1541764553	 2.6866786767	 0.131548
70.9421	104.6816	152.9054	157.482	183.1073	231.7021	269.0926	316.3831	367.9639	469.6465	522.1252	628.4076	634.9329	762.0427	820.2283	836.9249	917.5468	954.2263	975.1457	986.7734	1037.8343	1049.8764	1081.6608	1106.0446	1110.8291	1154.3811	1183.5914	1211.6515	1234.7874	1269.5753	1301.1945	1370.7171	1383.9206	1419.1379	1480.2642	1482.7237	1487.2788	1494.9103	1498.5902	1512.5743	1864.8721	2965.4353	2986.0006	3034.3583	3056.1466	3099.3695	3106.8479	3123.0696	3130.4908	3204.1279	3216.5545
COC1C2CC2(C)C1=O	CO[C@H]1[C@H]2C[C@@]2(C)C1=O	
InChI=1S/C7H10O2/c1-7-3-4(7)5(9-2)6(7)8/h4-5H,3H2,1-2H3	InChI=1S/C7H10O2/c1-7-3-4(7)5(9-2)6(7)8/h4-5H,3H2,1-2H3/t4-,5+,7-/m1/s1
