19
gdb 68633	2.44515	1.49556	1.25748	2.8584	76.03	-0.2387	-0.0297	0.209	1085.673	0.159007	-423.018577	-423.010423	-423.009478	-423.051415	31.442	
C	 0.1481056073	 1.5347008006	 0.0319091534	-0.490673
C	-0.0091944116	 0.0439322804	-0.0593462426	 0.415452
C	 0.3176215192	-0.8153880697	-1.3076678887	-0.269278
C	-0.4512752046	-1.8884876924	-0.4804122421	-0.09697
C	 0.4939161571	-2.0103344305	 0.7183531401	-0.089948
O	 0.7387156358	-0.6129930495	 0.9885455261	-0.307976
C	-1.3889400714	-0.7061578875	-0.0203010854	-0.117383
C	-2.1571912347	-0.7675701356	 1.2664584994	 0.130328
O	-3.3604260231	-0.6826189709	 1.3320990583	-0.262938
H	 1.2008308648	 1.8117684727	-0.0800954055	 0.133335
H	-0.4289170806	 2.0302414359	-0.7533585217	 0.124722
H	-0.1982189207	 1.9017361085	 1.002806251	 0.13458
H	-0.2189002837	-0.4989459037	-2.2031669193	 0.108136
H	 1.3746701399	-0.9932123847	-1.5223550583	 0.101872
H	-0.855575519	-2.8010311268	-0.9148746208	 0.086451
H	 0.0549230749	-2.4951039736	 1.5967616847	 0.106977
H	 1.4320361771	-2.5189732151	 0.4673985054	 0.107276
H	-2.0576857264	-0.4020593757	-0.8273110904	 0.094376
H	-1.5437597803	-0.8791833821	 2.1853136963	 0.091658
63.1141	169.6105	208.661	216.985	297.331	311.2282	396.9047	418.5387	526.8767	562.1744	619.4439	682.1316	791.2338	852.1825	871.2164	906.1482	912.3645	951.7971	964.5574	999.3284	1018.3924	1054.8456	1082.4836	1122.8064	1127.3499	1146.2844	1186.0027	1193.6628	1203.4317	1236.8487	1278.377	1314.1669	1339.5881	1364.8398	1418.8074	1433.8904	1480.1007	1491.3693	1494.0688	1535.2482	1812.8245	2909.8179	3030.1165	3043.3317	3065.8447	3070.9113	3106.5614	3113.6451	3123.1399	3135.8341	3139.769
CC12CC(CO1)C2C=O	C[C@@]12C[C@@H](CO1)[C@H]2C=O	
InChI=1S/C7H10O2/c1-7-2-5(4-9-7)6(7)3-8/h3,5-6H,2,4H2,1H3	InChI=1S/C7H10O2/c1-7-2-5(4-9-7)6(7)3-8/h3,5-6H,2,4H2,1H3/t5-,6+,7-/m0/s1
