17
gdb 48169	4.06082	0.8594	0.78394	1.0806	70.04	-0.2427	-0.1011	0.1416	1452.192	0.132416	-458.944098	-458.934795	-458.933851	-458.979649	32.426	
O	-0.6628813046	 1.3897818672	 0.3132937225	-0.215008
C	 0.4941232682	 1.2301078884	 0.6022162354	 0.085597
C	 1.6103782307	 2.1990130311	 0.1847821001	 0.277887
O	 2.7407168762	 1.9558840741	 0.5297753575	-0.262873
C	 1.1749609335	 3.3879887987	-0.6605132212	-0.186588
O	 2.2310087385	 4.2003781271	-1.0891067485	-0.229565
C	 2.5244162822	 5.2794026502	-0.2441110603	 0.130762
C	 3.4611397387	 5.1021696819	 0.9230768056	-0.296783
C	 3.9106853945	 5.8236985519	-0.3325405395	-0.286322
H	 0.8680061598	 0.3722156343	 1.2003484317	 0.113098
H	 0.6681723137	 2.9855486949	-1.5480960589	 0.147196
H	 0.405170884	 3.9453074457	-0.1043016594	 0.13061
H	 1.6965647271	 5.981504358	-0.1382992897	 0.087927
H	 3.2776288132	 5.6823192927	 1.8211793253	 0.110293
H	 3.8524736677	 4.1058209123	 1.0823965747	 0.147287
H	 4.5922280404	 5.2911270514	-0.9856240873	 0.131401
H	 4.0465758761	 6.898807	-0.308272178	 0.115082
44.1179	58.2609	104.1028	133.0414	177.0358	257.7723	274.8079	405.7224	438.691	467.5272	518.7479	649.0531	750.7891	805.641	808.195	831.5245	882.6376	965.0506	985.7538	1057.4722	1067.4038	1078.9048	1115.5918	1131.5868	1166.0988	1197.5103	1199.641	1244.254	1300.623	1361.8549	1379.2637	1409.2651	1444.038	1454.782	1497.8076	1817.0043	1820.2085	2923.11	2996.3229	3046.466	3093.7673	3141.0629	3144.5678	3229.3463	3247.3481
O=CC(=O)COC1CC1	O=CC(=O)COC1CC1	
InChI=1S/C6H8O3/c7-3-5(8)4-9-6-1-2-6/h3,6H,1-2,4H2	InChI=1S/C6H8O3/c7-3-5(8)4-9-6-1-2-6/h3,6H,1-2,4H2
