17
gdb 116271	2.24124	1.45941	1.02973	1.3228	69.28	-0.2571	0.0211	0.2782	1163.2253	0.134861	-458.912079	-458.90311	-458.902166	-458.946812	32.146	
O	-0.0683129778	 1.557403524	-0.0362705034	-0.421524
C	 0.0481671412	 0.1515308179	 0.0634375294	-0.083317
C	-1.3248166657	-0.4981228515	 0.1621572184	 0.09394
O	-2.0611327796	-0.1875433797	-1.0255938895	-0.289333
C	-2.7351956015	-1.358068855	-1.4560188251	 0.024314
O	-2.6426145647	-2.3022117569	-0.4163662429	-0.233222
C	-1.3936301496	-2.0442461446	 0.2278513677	-0.134735
C	-0.2839190011	-2.7406219002	-0.4286905569	 0.363651
C	 0.6134519662	-3.3327376519	-0.9659530053	-0.478889
H	-0.6329797563	 1.7292443942	-0.7986891297	 0.293354
H	 0.5909235673	-0.2767359376	-0.7901597359	 0.104112
H	 0.6253624868	-0.0557454236	 0.9709665374	 0.111442
H	-1.8576446049	-0.0840929648	 1.0288600345	 0.093376
H	-3.7962431191	-1.1492230566	-1.6305531803	 0.119925
H	-2.2618167517	-1.7316083744	-2.3778101084	 0.102812
H	-1.4898050856	-2.3938151161	 1.2593420888	 0.125326
H	 1.4082659463	-3.8572824532	-1.437173449	 0.20877
36.637	109.2267	122.1115	131.4874	220.474	271.846	367.38	426.9318	437.2897	488.0133	572.867	637.6955	679.687	746.7249	788.0232	849.6054	871.8029	960.3117	1011.7283	1054.0902	1070.1696	1087.7921	1115.4614	1127.4025	1167.568	1216.8493	1232.7852	1280.4007	1304.8259	1357.0311	1364.6821	1402.3225	1429.8739	1440.153	1495.103	1547.5292	2232.3366	2978.4958	3011.5267	3021.6788	3066.693	3078.6714	3082.9535	3499.1855	3801.8243
OCC1OCOC1C#C	OC[C@H]1OCO[C@H]1C#C	
InChI=1S/C6H8O3/c1-2-5-6(3-7)9-4-8-5/h1,5-7H,3-4H2	InChI=1S/C6H8O3/c1-2-5-6(3-7)9-4-8-5/h1,5-7H,3-4H2/t5-,6+/m0/s1
