14
gdb 128613	2.70336	1.54992	0.99136	3.8227	69.04	-0.2437	-0.0666	0.1771	1111.1974	0.100495	-473.794837	-473.787177	-473.786233	-473.827284	28.008	
C	 0.0573828879	 1.3871865048	 0.0069645489	-0.253992
O	-0.0099268797	-0.0299758641	 0.0024972231	-0.234291
C	-1.2277241824	-0.5977322724	 0.0102946146	 0.194922
C	-2.4137694227	 0.0597684193	 0.0221109989	-0.031888
O	-3.6259700978	-0.5426565221	 0.0298952429	-0.224209
N	-3.7328421157	-1.9128329813	 0.026383753	-0.049644
C	-2.6310953595	-2.5816383358	 0.0152375694	-0.053423
C	-1.2524598238	-2.0600340687	 0.0052052802	 0.285647
O	-0.2740443084	-2.785312323	-0.0040786653	-0.351869
H	 1.1175535682	 1.6403589518	-0.0007080879	 0.153632
H	-0.4255037769	 1.8118248403	-0.8828225994	 0.130982
H	-0.4110347444	 1.8054929197	 0.9074221996	 0.130989
H	-2.5336609834	 1.1345473478	 0.0267607236	 0.146003
H	-2.7565295015	-3.6608883663	 0.0129851184	 0.157142
98.4809	133.3085	215.7962	243.4598	325.5025	335.4951	412.9648	486.2337	539.2972	552.4712	605.5713	759.9728	777.069	858.6653	880.3741	904.2669	951.0798	1054.7122	1149.558	1176.8231	1206.5996	1246.6828	1290.5959	1334.7758	1422.2775	1484.3354	1492.2601	1504.2422	1619.8042	1651.5753	1761.7283	3005.2995	3066.525	3150.2285	3186.0351	3228.0758
COC1=CON=CC1=O	COc1concc1=O	
InChI=1S/C5H5NO3/c1-8-5-3-9-6-2-4(5)7/h2-3H,1H3	InChI=1S/C5H5NO3/c1-8-5-3-9-6-2-4(5)7/h2-3H,1H3
