14
gdb 29504	3.39862	1.66445	1.11727	1.9959	70.23	-0.1796	0.0242	0.2038	991.08	0.103959	-432.903734	-432.896354	-432.89541	-432.935241	28.214	
O	 0.0986182367	 1.422875628	 0.0974172147	-0.454984
C	 0.0735632814	 0.0570772406	 0.0395553819	 0.150305
C	 0.0659201384	-0.7739401417	-1.0669338687	-0.206125
N	 0.03802506	-2.1075362758	-0.6528564616	-0.395602
C	 0.0282448059	-2.1125025016	 0.7130749039	 0.361491
C	 0.0495093215	-0.801197622	 1.1660563091	 0.27213
N	 0.037504578	-0.9223253267	 2.5428083418	-0.423882
C	 0.0105281082	-2.2733026801	 2.8076647463	-0.005576
N	 0.0040188365	-3.0284825712	 1.7237372064	-0.360519
H	 0.1118484641	 1.7697132402	-0.7998267705	 0.295515
H	 0.0780652047	-0.5197253897	-2.1146375737	 0.108427
H	 0.0274523039	-2.9074048203	-1.2583461951	 0.263748
H	 0.0464792257	-0.1843497253	 3.2243263136	 0.268319
H	-0.0035709051	-2.6461308144	 3.8208490021	 0.126751
171.9667	198.8228	226.1249	250.2771	279.051	400.4343	452.5831	553.9388	571.7027	618.5727	625.9945	665.2816	710.7485	755.9492	788.8352	815.0728	962.7285	1069.9785	1092.8397	1111.6042	1169.3153	1253.0676	1283.8585	1329.2048	1364.7008	1401.4185	1467.942	1514.6729	1552.6379	1594.3721	1642.308	3254.3007	3257.6823	3687.7794	3702.9491	3833.9503
OC1=CNC2=C1NC=N2	Oc1c[nH]c2c1[nH]cn2	
InChI=1S/C5H5N3O/c9-3-1-6-5-4(3)7-2-8-5/h1-2,6,9H,(H,7,8)	InChI=1S/C5H5N3O/c9-3-1-6-5-4(3)7-2-8-5/h1-2,6,9H,(H,7,8)
