15
gdb 7419	2.28508	1.56093	1.1391	0.7468	59.52	-0.184	0.0477	0.2317	1062.848	0.116984	-433.166605	-433.156444	-433.1555	-433.203727	33.571	
N	-0.1922696742	 1.7529211709	 0.2448223334	-0.536573
C	-0.3599322872	 0.4487749046	 0.8163255447	-0.204466
C	-1.293558806	-0.3789056038	 0.307128557	 0.362092
N	-1.6370335891	-1.6230858402	 0.8529154299	-0.55998
N	-2.0116064915	-0.0688630267	-0.8515222192	-0.553302
H	-2.991851098	-0.3139121514	-0.7728840729	 0.239454
H	-1.8848251644	 0.9148485506	-1.0703154194	 0.253491
C	 0.7608752077	-1.1062342766	-1.9600336893	 0.599577
O	 1.1110588721	-0.0309389971	-2.2319749072	-0.302064
O	 0.4431068759	-2.1982597595	-1.7150540948	-0.307721
H	-0.1342668327	 2.4720115628	 0.9586295757	 0.229081
H	 0.6575726466	 1.8139361223	-0.3093514631	 0.238556
H	 0.2655809465	 0.1130414265	 1.642902112	 0.051383
H	-1.0368495535	-1.8798626044	 1.6262325505	 0.241425
H	-1.6222257421	-2.3564659579	 0.1516408927	 0.249046
29.8094	51.7192	63.086	85.7097	104.6303	216.0243	272.9293	298.4221	362.9832	445.3513	465.5809	584.1952	611.3539	670.1858	682.1393	708.8244	815.3328	837.2743	859.1415	931.4035	1090.497	1152.7837	1197.2409	1213.9658	1342.1003	1375.3012	1433.6769	1617.6032	1633.0544	1650.6955	1755.5097	2429.4686	3110.7011	3478.7723	3496.5123	3514.291	3545.8028	3600.2637	3615.611
NC(C(N)=[NH2+])C([O-])=O	N[CH]C(=[NH2])N.C(=O)=O	
InChI=1S/C3H7N3O2/c4-1(2(5)6)3(7)8/h1H,4H2,(H3,5,6)(H,7,8)	InChI=1S/C2H7N3.CO2/c3-1-2(4)5;2-1-3/h1H,3-5H2;
