15
gdb 70779	3.7832	1.37988	1.15208	3.6074	71.29	-0.2617	-0.0164	0.2454	1041.371	0.111676	-416.707101	-416.699571	-416.698627	-416.738999	28.775	
C	 0.0598940279	 1.4024834201	-0.1547330358	-0.535278
C	 0.0062223184	-0.078257481	-0.0146820731	 0.462499
O	 0.5231772669	-0.9386577983	-1.0854230084	-0.361734
C	 0.0616100748	-1.8902071391	-0.0977712059	 0.406775
C	 0.1816425152	-3.3040847615	-0.3240557715	 0.143541
N	 0.2528520322	-4.4511204706	-0.4526287701	-0.338829
C	 0.4956595022	-1.0162821013	 1.1401449151	-0.169248
N	-0.8454578478	-0.9938409269	 1.7922765298	-0.334625
C	-1.1850811264	-1.0309902825	 0.3404992164	-0.169244
H	 1.0938784289	 1.7409784145	-0.2672300737	 0.144863
H	-0.5103669819	 1.7270296889	-1.0298496452	 0.144856
H	-0.3688537312	 1.8653244053	 0.7387045121	 0.153946
H	 1.4454558129	-1.0261634708	 1.6743878497	 0.111364
H	-1.0507544227	-1.8892330334	 2.2402531137	 0.22975
H	-2.1985167694	-1.0580466535	-0.0593037433	 0.111364
132.0722	138.0115	207.29	243.9713	302.927	420.5398	495.5922	524.3332	551.7552	594.7294	667.4149	745.6936	773.5339	806.2651	860.354	876.134	938.147	992.576	1041.445	1054.0236	1087.2961	1139.2987	1143.4407	1151.549	1186.5481	1230.1479	1282.6991	1297.0665	1391.4505	1443.1115	1475.4468	1488.1451	2350.654	3046.0194	3120.4643	3127.2509	3129.534	3132.8545	3430.2349
CC12OC3(C#N)C1NC23	C[C@@]12O[C@@]3(C#N)[C@@H]1N[C@@H]23	
InChI=1S/C6H6N2O/c1-5-3-6(2-7,9-5)4(5)8-3/h3-4,8H,1H3	InChI=1S/C6H6N2O/c1-5-3-6(2-7,9-5)4(5)8-3/h3-4,8H,1H3/t3-,4+,5-,6+
