16
gdb 88361	2.101	1.34253	0.92974	4.4854	75.	-0.2765	0.0181	0.2946	1248.0887	0.122049	-400.69821	-400.688975	-400.688031	-400.732737	33.556	
O	-0.0235540117	 1.4007364958	 0.6518133093	-0.412348
C	 0.0682572431	 0.0784329846	 0.2091976323	 0.088833
C	-0.5762208328	-1.0133257674	 1.0258425035	-0.336418
C	-1.2093766559	-0.5514755643	-0.2686252846	-0.013682
C	-2.4978331722	 0.275287422	-0.2268179451	-0.345973
C	-2.7772953839	 0.9118335423	-1.5160797237	 0.330055
C	-2.9834326182	 1.4259414317	-2.5804952123	-0.429043
C	-3.6365581393	-0.5539068696	 0.2079270904	 0.300199
N	-4.514329014	-1.2122053495	 0.5686599487	-0.327557
H	 0.5361789281	 1.4982371041	 1.4290335692	 0.296695
H	 0.9753043437	-0.1563603889	-0.3459294205	 0.101457
H	-0.1224108862	-1.9972142419	 1.0560257881	 0.125466
H	-1.060981921	-0.7078934812	 1.9477666006	 0.128447
H	-1.1446239786	-1.2175793341	-1.1213841464	 0.117878
H	-2.3563999177	 1.0613593163	 0.5256804551	 0.168636
H	-3.1735854636	 1.8873328302	-3.5181496446	 0.207354
47.4421	114.3033	129.0353	156.58	236.0422	296.4348	311.438	363.434	430.3428	469.5582	530.4427	576.3158	589.9208	642.3911	661.8077	786.2841	841.4462	864.5908	930.1263	1006.4513	1008.2196	1056.4378	1063.7926	1134.8765	1142.3165	1172.3399	1233.3042	1251.2381	1300.2214	1310.0179	1383.4558	1422.6228	1486.907	2249.8051	2364.0854	3041.2972	3112.6316	3135.2041	3178.552	3225.2154	3503.3449	3813.0831
OC1CC1C(C#C)C#N	O[C@H]1C[C@H]1[C@@H](C#C)C#N	
InChI=1S/C7H7NO/c1-2-5(4-8)6-3-7(6)9/h1,5-7,9H,3H2	InChI=1S/C7H7NO/c1-2-5(4-8)6-3-7(6)9/h1,5-7,9H,3H2/t5-,6-,7-/m0/s1
