19
gdb 41029	3.2953	1.81457	1.52484	1.5882	79.87	-0.2339	0.0629	0.2968	927.6409	0.160379	-385.745947	-385.739316	-385.738372	-385.776443	28.598	
C	 0.0579690265	 1.5015292744	-0.3115018238	-0.205298
C	 1.5338022368	 1.5675498681	 0.1871511727	-0.318832
C	 1.4144808868	 0.1388514304	 0.7401192936	 0.241735
C	 2.4865553392	-0.7858081283	 1.405870057	-0.16318
C	 1.5948740731	-1.9899308265	 1.0413595025	-0.267548
C	 1.5991603008	-1.0379542614	-0.1876763066	 0.410192
C	 3.1440144746	-0.9260723809	-0.0589350594	-0.309691
O	 0.4190224761	-0.8565865065	-0.9665446602	-0.364692
C	-0.0719881172	 0.0370839267	 0.1118939232	-0.011882
H	-0.6094018755	 2.1519400983	 0.2605097931	 0.104259
H	-0.1049617525	 1.6637759012	-1.3784253723	 0.11542
H	 2.2916318369	 1.7315070004	-0.5861964492	 0.100784
H	 1.6818672722	 2.321043487	 0.9654663168	 0.10364
H	 3.0492318573	-0.6393182938	 2.3289246398	 0.082654
H	 2.0910533304	-2.9550323512	 0.9210995221	 0.092276
H	 0.6509914319	-2.0742808295	 1.5826081983	 0.097498
H	 3.6180648623	-0.0337818138	-0.4679692767	 0.109318
H	 3.7548472165	-1.8192337852	-0.2207462221	 0.100708
H	-0.9989904163	-0.3427971194	 0.5448244212	 0.082636
169.5777	260.7829	341.7875	376.06	461.1633	494.4595	533.0965	562.2034	691.485	731.3304	764.1656	800.1998	817.6721	872.4095	894.3149	939.0948	949.0333	958.2663	967.4566	978.2927	1036.4168	1040.0806	1052.9478	1074.9798	1114.1014	1123.8365	1142.7974	1162.0327	1167.5891	1198.3683	1205.3664	1220.0294	1232.9523	1260.9642	1282.7324	1298.4159	1315.8281	1462.8322	1486.0639	1496.085	1530.4519	3043.0082	3058.5641	3063.058	3067.5356	3088.5726	3098.1554	3102.7113	3127.8726	3137.915	3143.2723
C1CC23C4CC2(C4)OC13	C1C[C@]23[C@H]4C[C@@]2(C4)O[C@H]13	
InChI=1S/C8H10O/c1-2-8-5-3-7(8,4-5)9-6(1)8/h5-6H,1-4H2	InChI=1S/C8H10O/c1-2-8-5-3-7(8,4-5)9-6(1)8/h5-6H,1-4H2/t5-,6-,7-,8-/m1/s1
