19
gdb 74769	3.63919	1.17094	1.07837	2.4997	81.8	-0.2208	-0.027	0.1938	1186.8689	0.159031	-385.870145	-385.86202	-385.861075	-385.902905	31.239	
C	 0.4052428268	 1.5242361987	 0.1061437496	-0.518457
C	 0.154534495	 0.0569167264	 0.1192207756	 0.341892
C	-0.2835535308	-0.7828610293	-0.8268581241	-0.202638
C	-0.3079602134	-2.1463360989	-0.1217786187	-0.088033
C	-0.9348635852	-1.7417994139	 1.2523527935	-0.218744
C	 0.3701814875	-0.8750667052	 1.3295717097	-0.121533
C	 1.094940997	-2.0725589144	 0.6258922451	-0.058236
C	 1.4756782505	-3.2719422426	 1.4484708946	 0.1179
O	 1.3476617475	-3.3825851092	 2.6436181077	-0.247486
H	 1.4538771636	 1.7537709435	 0.3356895559	 0.128449
H	 0.1683256181	 1.9609425951	-0.8682723861	 0.126168
H	-0.1969545282	 2.0396555088	 0.8654237032	 0.129903
H	-0.5665021798	-0.5858661275	-1.8516461208	 0.098174
H	-0.6192319325	-3.028635684	-0.6807303452	 0.067339
H	-1.8844218543	-1.2042820886	 1.2164744337	 0.094407
H	-0.9608435489	-2.5455213816	 1.9906826889	 0.120616
H	 0.7371571455	-0.4561895894	 2.2655085918	 0.072291
H	 1.9329302821	-1.8245875815	-0.035761301	 0.084062
H	 1.9176174895	-4.1019735461	 0.8471124064	 0.073928
84.1913	158.8767	164.9674	186.9357	276.4177	322.4893	394.2015	504.8007	567.1869	593.4965	702.2145	756.6358	795.0322	817.1004	843.1993	858.1214	915.1931	934.948	982.6805	1003.6131	1013.8604	1043.2414	1065.1058	1075.2035	1100.1731	1106.4274	1179.3959	1194.9363	1221.5877	1231.6163	1236.7683	1255.2325	1304.8027	1349.0496	1414.9349	1423.3284	1476.8611	1486.0457	1501.0913	1688.9079	1813.7754	2848.0375	3014.3304	3047.0654	3058.688	3072.0232	3106.4644	3118.7245	3131.1331	3140.266	3225.1444
CC1=CC2CC1C2C=O	CC1=C[C@@H]2C[C@H]1[C@H]2C=O	
InChI=1S/C8H10O/c1-5-2-6-3-7(5)8(6)4-9/h2,4,6-8H,3H2,1H3	InChI=1S/C8H10O/c1-5-2-6-3-7(5)8(6)4-9/h2,4,6-8H,3H2,1H3/t6-,7-,8+/m1/s1
