15
gdb 127319	3.36912	1.7314	1.1521	3.8085	74.39	-0.2142	-0.0078	0.2064	995.6413	0.11594	-412.993069	-412.985829	-412.984885	-413.02529	26.968	
C	 0.0000183813	 1.4463713693	 0.0448660856	-0.342427
N	-0.0381702397	-0.0004185785	 0.0098577091	-0.125243
C	-0.0776623333	-0.8045057701	-1.1141445207	-0.058179
C	-0.0302788686	-2.1473033537	-0.7837742462	-0.349479
C	 0.04913234	-2.1620076222	 0.6349535191	 0.35539
C	 0.0474112616	-0.8480307963	 1.0857800639	 0.370306
N	 0.1197174536	-0.7806007347	 2.4331294206	-0.317726
N	 0.1662621036	-2.0128464115	 2.8708240225	-0.129769
N	 0.1233649432	-2.8601974336	 1.797388067	-0.356177
H	 1.011662926	 1.8174749631	 0.2430900951	 0.145498
H	-0.3380987251	 1.8366779104	-0.9169107152	 0.1387
H	-0.6649702283	 1.8167788358	 0.8292271359	 0.158024
H	-0.1415485037	-0.3488301788	-2.0910103224	 0.126934
H	-0.0606861558	-2.9702732891	-1.4784570053	 0.109498
H	 0.1517405651	-3.8500539302	 1.9720843411	 0.274651
52.5527	144.418	244.3579	252.5294	356.6262	468.8011	535.111	585.2741	624.471	682.4146	705.9576	710.7872	767.745	801.5795	824.2181	1005.1479	1021.7263	1037.5245	1107.0084	1149.7356	1157.1702	1236.4406	1278.0126	1279.9432	1375.424	1385.982	1453.3327	1474.0513	1482.8023	1517.6561	1524.3162	1556.7393	1614.0294	3036.6618	3103.48	3138.9065	3246.2203	3270.8742	3681.8716
CN1C=CC2=C1N=NN2	Cn1ccc2c1nn[nH]2	
InChI=1S/C5H6N4/c1-9-3-2-4-5(9)7-8-6-4/h2-3H,1H3,(H,6,7,8)	InChI=1S/C5H6N4/c1-9-3-2-4-5(9)7-8-6-4/h2-3H,1H3,(H,6,7,8)
