21
gdb 98850	3.11118	1.05778	0.97038	1.6179	79.39	-0.2637	0.0129	0.2765	1343.4246	0.181493	-424.256015	-424.246076	-424.245132	-424.292275	35.266	
C	 0.9104524596	 1.4569186439	-0.4060933858	-0.240112
O	 1.1062737912	 0.0398237044	-0.4820916075	-0.235809
C	 0.1460192801	-0.6420703017	-1.1448089834	 0.441345
O	-0.8209502529	-0.111805827	-1.63688014	-0.370349
C	 0.4728518096	-2.109396574	-1.2151052486	-0.110644
C	-0.67991529	-3.0748847667	-1.5809767623	-0.232669
C	 0.2656051219	-3.8095820835	-2.5668942459	-0.226734
C	 1.2561978433	-2.6096504815	-2.4940148402	 0.015567
C	 1.216217687	-1.6816719706	-3.7036832572	-0.403482
H	 0.8623822428	 1.8957058897	-1.4060101293	 0.138741
H	-0.0180286043	 1.6903048195	 0.1214558334	 0.139551
H	 1.7684544293	 1.8472331002	 0.1416596919	 0.130802
H	 1.0074174151	-2.4009713457	-0.3091246263	 0.089827
H	-1.10568531	-3.658832279	-0.7622728897	 0.099197
H	-1.4842842934	-2.5352990469	-2.0848060986	 0.127665
H	 0.6882311437	-4.724306431	-2.1426395134	 0.099352
H	-0.1364366691	-4.0427884935	-3.5564573801	 0.098548
H	 2.2924335	-2.8833833451	-2.2779765582	 0.075057
H	 0.1960700176	-1.3580817773	-3.9318292586	 0.136358
H	 1.8204724743	-0.783060463	-3.5373787161	 0.115929
H	 1.6155600844	-2.1945193011	-4.5852112239	 0.11186
22.3533	77.2666	109.2511	125.7604	200.3202	205.0247	253.2801	325.0346	342.4601	370.1254	426.1574	612.4532	713.3239	762.0649	785.4355	823.8642	885.0369	910.8498	939.4005	967.7613	978.9527	1013.9586	1073.9456	1092.2935	1133.3807	1158.3592	1179.3521	1197.2848	1217.075	1224.6909	1243.7444	1261.6854	1277.0454	1289.5876	1358.1974	1382.5974	1411.6327	1473.3199	1481.4177	1482.7389	1493.4486	1497.1415	1498.366	1502.1277	1806.6149	3030.0264	3050.3756	3053.2102	3061.5083	3073.2194	3091.9149	3093.8751	3102.4384	3110.7057	3124.0534	3132.4951	3156.2136
COC(=O)C1CCC1C	COC(=O)[C@H]1CC[C@H]1C	
InChI=1S/C7H12O2/c1-5-3-4-6(5)7(8)9-2/h5-6H,3-4H2,1-2H3	InChI=1S/C7H12O2/c1-5-3-4-6(5)7(8)9-2/h5-6H,3-4H2,1-2H3/t5-,6+/m1/s1
