19
gdb 64713	3.74045	1.08563	1.01856	4.6687	79.17	-0.2423	0.033	0.2753	1215.2121	0.159435	-382.044061	-382.035493	-382.034549	-382.07722	32.802	
C	 0.0000767573	 1.6091249978	 0.1744970519	-0.462771
C	 0.0200624493	 0.090573664	 0.0544790308	 0.3374
C	-1.3885443271	-0.4941971361	-0.1722706681	-0.407829
C	-1.9864036929	-0.0728043028	-1.4383325624	 0.272697
N	-2.4415288719	 0.2628698448	-2.4462486171	-0.314365
C	 1.0742468023	-0.5398401108	-0.9418113005	-0.275995
C	 1.6834247393	-1.2999626055	 0.2389092738	-0.039355
N	 2.1368920592	-0.2624961099	 1.1975270432	-0.337854
C	 0.7202500893	-0.6874120613	 1.1924793105	-0.102056
H	 1.0030392056	 1.9743678231	 0.4037883943	 0.144446
H	-0.3381661649	 2.073692492	-0.7573961635	 0.136322
H	-0.6756326085	 1.9322549947	 0.9754071362	 0.108814
H	-1.3475898764	-1.5900126957	-0.1585386242	 0.14597
H	-2.0551578827	-0.1912443191	 0.6447156217	 0.146694
H	 0.610857862	-1.1798956845	-1.6958755997	 0.114217
H	 1.7480350804	 0.1673714846	-1.429955133	 0.115817
H	 2.1314407416	-2.2856302106	 0.2385870804	 0.09756
H	 2.5893010331	-0.7419687356	 1.9754834929	 0.231606
H	 0.2561783451	-1.0901875192	 2.0863169328	 0.088683
73.9624	123.5806	184.3427	239.9728	262.6386	321.481	365.7386	403.7776	418.9925	459.2333	573.077	674.5425	772.6717	815.9511	838.7294	851.7372	902.7295	933.5374	947.7224	957.1605	965.6951	1001.9823	1019.3086	1087.6285	1108.758	1143.8102	1151.7218	1159.9875	1227.4766	1250.29	1280.6327	1307.9286	1320.4906	1344.1602	1382.1502	1411.249	1464.1332	1479.4073	1490.7702	1506.1847	2360.0347	3029.6201	3032.4998	3068.7652	3071.3958	3095.4253	3127.1347	3134.1291	3169.0049	3195.9178	3474.7361
CC1(CC#N)CC2NC12	C[C@@]1(CC#N)C[C@H]2N[C@@H]12	
InChI=1S/C7H10N2/c1-7(2-3-8)4-5-6(7)9-5/h5-6,9H,2,4H2,1H3	InChI=1S/C7H10N2/c1-7(2-3-8)4-5-6(7)9-5/h5-6,9H,2,4H2,1H3/t5-,6-,7-/m1/s1
