22
gdb 101782	2.37516	0.98849	0.77206	5.3511	78.97	-0.2444	0.0222	0.2667	1538.0066	0.19304	-441.524127	-441.513628	-441.512684	-441.560653	37.893	
C	-0.110688426	 1.470212658	 0.7190272166	-0.391175
C	-0.1863469241	 0.1047837522	 0.0311812219	-0.175247
C	-1.5427964556	-0.6077560864	 0.1503170838	 0.051787
C	-1.5522201685	-1.9042156027	-0.6732294575	-0.397908
N	-1.8765930073	-0.8180589188	 1.5728501391	-0.31935
H	-1.2348197921	-1.4895055217	 1.9799474422	 0.226994
H	-2.4770194954	 0.8776559924	 2.2818370396	 0.309403
C	-3.263391088	-1.1802089213	 1.859293541	-0.31768
C	-4.1315235724	 0.0665915036	 2.1015743409	 0.420536
O	-3.4121241856	 1.1693574953	 2.3552627189	-0.363902
O	-5.3318248628	 0.0461965628	 2.0910411859	-0.332837
H	 0.8453081759	 1.9582219368	 0.5069895896	 0.116539
H	-0.9078295093	 2.1366748825	 0.371865178	 0.126192
H	-0.198184168	 1.3782665327	 1.805234759	 0.121515
H	 0.0373165188	 0.218218186	-1.0360225347	 0.104171
H	 0.5960070447	-0.5562410649	 0.4314063365	 0.092246
H	-2.3168450501	 0.0651397876	-0.2438395419	 0.09798
H	-1.3629271581	-1.6949978795	-1.730695825	 0.124074
H	-0.7707019175	-2.589108607	-0.3226890796	 0.112293
H	-2.5115791141	-2.4252451127	-0.6078597043	 0.123263
H	-3.7543940445	-1.7810155314	 1.0847901095	 0.132142
H	-3.29880144	-1.7685727037	 2.7824039007	 0.138964
49.6221	60.9995	82.1231	116.2612	220.6686	229.9005	238.3796	277.0013	308.8101	393.6867	415.4242	483.289	551.8927	560.3175	650.1323	748.8684	780.9658	828.282	856.5108	883.2042	903.2728	965.6832	996.9872	1024.3026	1036.9252	1111.3162	1123.1491	1161.717	1189.8985	1213.8488	1261.4789	1302.0105	1324.9932	1345.3476	1368.0231	1387.467	1409.6885	1412.1947	1418.8102	1467.7001	1472.3614	1487.0249	1496.6456	1498.747	1506.4569	1512.647	1878.4203	3005.7242	3019.8078	3031.012	3038.3081	3038.5191	3058.3783	3084.5124	3099.5731	3104.7184	3111.6738	3114.1114	3485.0463	3529.898
CCC(C)[NH2+]CC([O-])=O	CC[C@@H](C)NCC(=O)O	
InChI=1S/C6H13NO2/c1-3-5(2)7-4-6(8)9/h5,7H,3-4H2,1-2H3,(H,8,9)	InChI=1S/C6H13NO2/c1-3-5(2)7-4-6(8)9/h5,7H,3-4H2,1-2H3,(H,8,9)/t5-/m1/s1
