19
gdb 107957	2.74741	1.38664	1.32444	2.1919	75.35	-0.2372	0.0696	0.3067	1081.5246	0.157887	-422.936929	-422.9285	-422.927556	-422.969826	32.524	
C	 0.0221064574	 1.4753437182	 0.0234519411	-0.525595
C	 0.0331787546	-0.0207294691	-0.1030609055	 0.244729
C	 0.6347653585	-0.9372895899	-1.1961085182	-0.326148
C	 0.0237318614	-1.9504959117	-0.2048917033	-0.130271
C	 0.3699871618	-1.0622791652	 1.0204467501	 0.046975
O	-0.9772903798	-1.0764451377	 1.5835601557	-0.379106
C	-1.1732770535	-1.0029765193	 0.1269148452	 0.41505
C	-2.5933491066	-1.0153936332	-0.3469757248	-0.204732
O	-3.2593844276	-2.1879892672	 0.085771716	-0.414763
H	 1.0407839072	 1.8756488352	 0.0653584946	 0.123559
H	-0.4852275522	 1.9450450193	-0.8261176588	 0.122897
H	-0.4988988774	 1.7708035643	 0.9401712836	 0.13509
H	 0.1776437536	-0.8829746123	-2.1885377986	 0.10042
H	 1.7253340978	-0.9374901568	-1.2826980945	 0.097916
H	-0.0022321056	-3.0386023826	-0.2355294635	 0.089222
H	 1.2192415337	-1.1050206653	 1.7025783265	 0.09299
H	-3.1011636812	-0.1053186966	 0.011389101	 0.099311
H	-2.6251676615	-1.0070816546	-1.4419305617	 0.116571
H	-3.0495425205	-2.2881633655	 1.0221402852	 0.295887
86.2411	127.5094	216.6261	230.5907	240.7474	278.749	370.4737	418.7587	488.0025	534.6019	655.0598	700.1787	738.4276	782.8498	804.8053	852.1567	880.515	929.3063	935.8974	952.1971	1011.3087	1040.2848	1064.724	1083.2096	1108.1768	1142.8226	1151.5847	1170.3863	1198.7821	1219.9822	1242.4486	1275.1353	1331.6724	1356.2716	1376.9901	1405.7757	1443.5721	1489.1201	1489.8284	1491.6412	1516.5202	2976.9371	3029.0546	3047.2994	3071.903	3094.5111	3101.6965	3102.8397	3117.1752	3137.4911	3791.6571
CC12CC3C1OC23CO	C[C@@]12C[C@H]3[C@@H]1O[C@@]23CO	
InChI=1S/C7H10O2/c1-6-2-4-5(6)9-7(4,6)3-8/h4-5,8H,2-3H2,1H3	InChI=1S/C7H10O2/c1-6-2-4-5(6)9-7(4,6)3-8/h4-5,8H,2-3H2,1H3/t4-,5-,6+,7+/m0/s1
