21
gdb 96187	2.1249	1.88021	1.15269	2.7191	77.17	-0.2436	0.0676	0.3112	1108.9268	0.185466	-424.222607	-424.214615	-424.213671	-424.255216	31.668	
O	-0.0066851309	 1.4259052401	 0.0386465894	-0.445037
C	 0.0476739121	 0.0091002564	 0.0356553422	 0.117767
C	 0.8761440672	-0.5576835104	 1.1928670908	-0.218509
C	 0.7993711084	-2.0891952304	 1.1980096535	-0.20814
C	-0.6267325279	-2.5457965318	 1.534183697	-0.210732
C	-1.7002670361	-1.9450088641	 0.6010824832	-0.072971
C	-2.8253769706	-1.1714150847	 1.323957438	-0.080448
O	-2.2204268793	 0.0993861287	 0.9932106336	-0.311646
C	-1.3734428428	-0.5471383114	 0.0048678475	 0.117698
H	-0.666407938	 1.6656234918	 0.7024390452	 0.292505
H	 0.5389437348	-0.2717661982	-0.9057833459	 0.082082
H	 1.9067656098	-0.2032863526	 1.0953655499	 0.099187
H	 0.4882436905	-0.1647345958	 2.1419890775	 0.095201
H	 1.1030397536	-2.4780897294	 0.2158213288	 0.094155
H	 1.5007949594	-2.5095711533	 1.9264387388	 0.097168
H	-0.6948745882	-3.6384783331	 1.515833253	 0.096689
H	-0.8383307951	-2.2442144518	 2.567657315	 0.101468
H	-2.0358743895	-2.6775292451	-0.1355984416	 0.076175
H	-3.8173014668	-1.2698382581	 0.862543901	 0.098737
H	-2.9136968737	-1.3163834447	 2.406381136	 0.105173
H	-1.804271397	-0.4014996218	-0.9957002329	 0.073478
83.9638	109.3183	231.3104	284.6293	348.6265	394.2995	407.3469	426.711	447.5053	575.3916	629.8029	747.3707	783.9518	835.7039	882.6104	891.6881	915.8501	955.3457	988.3682	1002.1634	1036.2343	1050.428	1088.2595	1100.3704	1132.0608	1146.0925	1164.5027	1188.981	1201.4182	1248.3397	1264.0394	1282.6699	1305.224	1336.0237	1354.7249	1356.5436	1366.2433	1373.3561	1384.5151	1404.082	1440.9809	1484.7795	1491.7531	1499.6125	1525.4313	2997.0142	3008.5019	3011.326	3020.0524	3025.1289	3030.2412	3064.4026	3066.0362	3070.4173	3084.5847	3091.7861	3772.2357
OC1CCCC2COC12	O[C@H]1CCC[C@H]2CO[C@@H]12	
InChI=1S/C7H12O2/c8-6-3-1-2-5-4-9-7(5)6/h5-8H,1-4H2	InChI=1S/C7H12O2/c8-6-3-1-2-5-4-9-7(5)6/h5-8H,1-4H2/t5-,6-,7+/m0/s1
