17
gdb 113428	3.03345	1.12092	0.93824	4.1757	69.34	-0.2691	0.0117	0.2808	1250.3122	0.134787	-458.965066	-458.956548	-458.955603	-458.998651	31.55	
O	 0.4431493431	 0.5371973772	 0.7090919119	-0.411405
C	-0.1975332072	 0.2393358129	-0.5245675192	-0.081264
C	-1.5082344524	-0.4951578497	-0.3469595914	-0.126136
C	-1.8970236546	-1.6384100048	-1.2873231045	-0.370626
C	-1.4883762937	-1.9074100819	 0.1159017927	 0.456201
C	-0.368834527	-2.732658268	 0.7308154499	-0.500356
C	-1.4693224725	-3.1590355151	 1.7067877456	 0.435074
O	-1.59474695	-3.8625453343	 2.6545112091	-0.312191
O	-2.4389867225	-2.3880292589	 1.0997551852	-0.265224
H	-0.1410934583	 1.1059375106	 1.2209840405	 0.287169
H	-0.3513653515	 1.1478833052	-1.1261721638	 0.101083
H	 0.5103357449	-0.391467551	-1.0729770905	 0.110721
H	-2.3383907779	 0.1033740672	 0.0220555341	 0.10467
H	-2.9472363228	-1.7489410293	-1.5330373696	 0.136901
H	-1.2113427575	-1.9054605902	-2.0858010622	 0.124886
H	 0.0344943231	-3.5480664203	 0.1277765623	 0.143825
H	 0.4378588867	-2.1567002697	 1.1870403898	 0.166669
74.5653	114.3689	148.3614	175.3232	289.2847	297.8017	396.5161	432.1469	469.0655	518.927	531.8376	603.5631	792.3836	801.3126	863.4004	885.9067	954.374	958.7702	1011.8667	1026.7604	1054.0784	1058.6467	1072.5567	1101.3849	1115.2676	1160.5501	1204.7985	1221.2504	1261.6322	1336.6362	1378.3919	1411.3553	1430.0482	1454.1524	1495.8654	1508.5695	1948.1647	2992.8382	3069.183	3088.5723	3129.598	3137.6713	3149.6603	3220.9989	3816.2228
OCC1CC11CC(=O)O1	OC[C@H]1C[C@]21CC(=O)O2	
InChI=1S/C6H8O3/c7-3-4-1-6(4)2-5(8)9-6/h4,7H,1-3H2	InChI=1S/C6H8O3/c7-3-4-1-6(4)2-5(8)9-6/h4,7H,1-3H2/t4-,6-/m1/s1
