20
gdb 82249	2.46513	1.89705	1.40279	2.4688	76.53	-0.2366	0.0651	0.3017	988.7506	0.174352	-403.117874	-403.110515	-403.109571	-403.149576	30.276	
O	 0.0739854501	 1.4292132065	 0.1435722677	-0.437726
C	 0.0456353101	 0.0230835867	-0.0111040962	 0.125511
C	 0.7755810429	-0.6997018203	 1.1179367394	-0.076715
N	 0.0917645994	-0.4389944343	 2.4051009921	-0.352238
C	-0.0990197439	-1.738162987	 1.7128563729	-0.050754
C	-1.4014730403	-1.8342545423	 0.9359602689	-0.020604
C	-2.683130013	-1.2716655343	 1.6178009181	-0.219934
C	-2.5207096019	 0.0493672493	 0.8123512676	-0.217426
C	-1.3821723849	-0.6045611999	-0.0268853439	-0.042226
H	-0.1366531716	 1.5911815973	 1.0718268399	 0.289086
H	 0.54906841	-0.1775337422	-0.9629570866	 0.080188
H	 1.8582108733	-0.7757001757	 1.1039341548	 0.087327
H	 0.7481784782	-0.5597377445	 3.1715976792	 0.234153
H	 0.3170151706	-2.6235981991	 2.1840721798	 0.08362
H	-1.4936782571	-2.824191899	 0.4810375056	 0.06323
H	-3.582538487	-1.831728291	 1.3505043347	 0.09392
H	-2.6371821866	-1.1793621939	 2.7047606891	 0.101054
H	-3.3936539404	 0.3675665565	 0.23793598	 0.092931
H	-2.1887650528	 0.8894716531	 1.4230893946	 0.099259
H	-1.696295545	-0.8237152658	-1.0491398776	 0.067344
87.1632	181.9119	251.4176	270.8654	428.7125	461.7245	509.5548	529.2082	620.8679	690.0218	736.2507	743.4817	801.9012	831.3038	865.445	895.0397	903.13	934.0128	960.0538	966.3858	1021.885	1043.3055	1055.2694	1088.9426	1109.0636	1117.2726	1127.7842	1165.9954	1205.2326	1225.9327	1248.8045	1252.7467	1268.3867	1272.9749	1290.3915	1307.9334	1329.9854	1349.14	1372.4923	1418.639	1442.5489	1472.2096	1492.0104	3049.5151	3060.2721	3068.1637	3071.8159	3087.839	3113.1745	3133.7773	3150.9708	3165.0811	3507.7186	3775.8982
OC1C2NC2C2CCC12	O[C@H]1[C@H]2N[C@H]2[C@H]2CC[C@@H]12	
InChI=1S/C7H11NO/c9-7-4-2-1-3(4)5-6(7)8-5/h3-9H,1-2H2	InChI=1S/C7H11NO/c9-7-4-2-1-3(4)5-6(7)8-5/h3-9H,1-2H2/t3-,4+,5-,6-,7+/m0/s1
