17
gdb 36017	3.15665	0.90086	0.75962	0.6444	85.43	-0.2579	0.032	0.2898	1482.6699	0.131173	-347.449867	-347.439674	-347.43873	-347.485394	36.991	
C	-0.1193083828	-1.2284431355	-0.0304421216	-0.42631
C	-0.0691704804	-0.0284751182	-0.0013176577	 0.298814
C	 0.005048383	 1.425210473	 0.012068039	-0.367011
C	 1.4614716133	 1.9700751491	 0.0490402566	-0.165977
C	 1.4450858651	 3.5163976416	-0.1183633951	-0.36703
C	 2.7722172974	 4.097705348	-0.2587008953	 0.298853
C	 3.8706646215	 4.565766582	-0.3914336323	-0.426326
C	 2.1450470707	 1.5758822121	 1.276091589	 0.363886
C	 2.6815846163	 1.2706875551	 2.3067107792	-0.474104
H	-0.1660801152	-2.2890371919	-0.0455978314	 0.197013
H	-0.4892207825	 1.823925374	-0.8829575988	 0.130674
H	-0.5423324373	 1.8199800819	 0.8767132735	 0.139937
H	 1.9990179386	 1.546494597	-0.8073300634	 0.130187
H	 0.8444270387	 3.7606291233	-1.0037480408	 0.130668
H	 0.9313418552	 3.9600109719	 0.7432380183	 0.139945
H	 4.8411598164	 4.9827763809	-0.4987600659	 0.197014
H	 3.169480752	 0.9909627657	 3.2073885768	 0.199766
53.5661	78.0696	99.0334	142.372	208.4947	221.1545	300.0946	340.1986	344.5708	436.2532	458.032	526.3576	620.3726	620.9075	625.5514	635.881	644.387	644.8897	648.8831	797.9686	892.2414	926.4206	1000.471	1029.1499	1046.4843	1075.3006	1196.6124	1226.6372	1276.5014	1343.8107	1347.0062	1372.2143	1464.0007	1473.8919	2240.5924	2243.2073	2243.701	3020.6415	3024.4164	3040.7698	3058.2975	3068.6258	3505.4892	3507.3181	3507.6446
C#CCC(CC#C)C#C	C#CCC(CC#C)C#C	
InChI=1S/C9H8/c1-4-7-9(6-3)8-5-2/h1-3,9H,7-8H2	InChI=1S/C9H8/c1-4-7-9(6-3)8-5-2/h1-3,9H,7-8H2
