14
gdb 133227	3.08994	1.44071	0.9887	6.5461	70.37	-0.2311	-0.0425	0.1886	1107.3272	0.101017	-477.994801	-477.987064	-477.98612	-478.027801	27.965	
C	 0.0221869567	 1.4819552102	 0.032148827	-0.31708
N	-0.0298989589	 0.0266748493	 0.014865816	-0.002622
C	-1.1752807788	-0.678133419	-0.1492076256	 0.053312
C	-1.1899846179	-2.0392545555	-0.1609947088	-0.274144
C	 0.0357587542	-2.7882040546	 0.003780098	 0.252709
O	 0.1632040686	-4.0031795963	 0.0127719697	-0.377978
C	 1.1848980495	-1.8638733627	 0.1699180567	 0.230558
F	 2.367989924	-2.4220353583	 0.3301606216	-0.038835
N	 1.1661646512	-0.5767473406	 0.1765351981	-0.25915
H	 0.6664037046	 1.842439924	-0.7738474413	 0.159482
H	-0.9852185251	 1.8759979702	-0.1041482541	 0.144461
H	 0.4233010163	 1.8300400732	 0.9873939825	 0.159511
H	-2.0715704967	-0.0810274077	-0.2693473506	 0.141541
H	-2.1197264776	-2.5770273023	-0.2938731991	 0.128236
52.7781	110.056	191.9598	305.0428	333.1499	336.3094	451.385	469.5793	542.8993	549.8346	608.273	701.2621	762.262	820.3729	847.0184	957.202	976.9699	1079.9089	1146.3875	1153.5934	1196.5405	1299.632	1362.829	1383.8603	1458.74	1471.8953	1480.9325	1522.7148	1620.0318	1640.5472	1750.6115	3053.567	3122.1077	3155.7753	3200.5954	3224.7641
CN1C=CC(=O)C(F)=N1	Cn1ccc(=O)c(F)n1	
InChI=1S/C5H5FN2O/c1-8-3-2-4(9)5(6)7-8/h2-3H,1H3	InChI=1S/C5H5FN2O/c1-8-3-2-4(9)5(6)7-8/h2-3H,1H3
