17
gdb 26024	4.65741	0.96969	0.88894	5.3558	74.66	-0.2196	-0.0307	0.1889	1321.2181	0.135907	-418.057847	-418.049172	-418.048228	-418.09303	30.547	
C	 0.0734519773	 1.465179916	-0.2166372216	-0.478947
C	 0.1409084148	-0.0372964069	-0.4098164978	 0.376543
O	 1.1218448326	-0.606155287	-0.8150224776	-0.265054
C	-1.1548528363	-0.7925272313	-0.0654782225	-0.293562
N	-1.0192617699	-2.2249427708	-0.0382622998	 0.035699
C	-0.7510221955	-3.0602724319	-1.1032139367	-0.111552
C	-0.7154049671	-4.3238227326	-0.5791142849	-0.091152
N	-0.9502776298	-4.2945449727	 0.7774593935	-0.274126
C	-1.1238384685	-3.0279827795	 1.0651100029	 0.008757
H	 0.9519619885	 1.9335235838	-0.6609841076	 0.154815
H	-0.8385596119	 1.8818396213	-0.6575134342	 0.140151
H	 0.0459618762	 1.6974277323	 0.8546963191	 0.15091
H	-1.5203582221	-0.4552519984	 0.9100759911	 0.141156
H	-1.9167567795	-0.4898396093	-0.7975991937	 0.146246
H	-0.595020525	-2.6756538903	-2.0966217109	 0.129739
H	-0.5318008825	-5.2519662338	-1.0984355169	 0.108246
H	-1.3388888715	-2.6193061189	 2.0422413076	 0.12213
30.5298	53.8357	106.6444	111.5426	275.6926	321.0679	335.7301	464.565	567.082	631.5272	676.56	725.6161	771.5178	801.9385	808.7251	848.1	856.5723	915.2888	971.8025	1046.2383	1066.6723	1103.052	1143.8383	1178.2333	1214.3927	1272.7218	1311.9003	1361.7509	1384.3434	1401.1372	1412.356	1455.1038	1466.4253	1476.7027	1533.5211	1548.9674	1836.8132	3016.6741	3037.2948	3082.6213	3098.2565	3157.1088	3239.3295	3250.4161	3286.1118
CC(=O)CN1C=CN=C1	CC(=O)Cn1ccnc1	
InChI=1S/C6H8N2O/c1-6(9)4-8-3-2-7-5-8/h2-3,5H,4H2,1H3	InChI=1S/C6H8N2O/c1-6(9)4-8-3-2-7-5-8/h2-3,5H,4H2,1H3
