17
gdb 54063	2.14668	1.13092	0.83121	3.7026	75.86	-0.2521	-0.0351	0.217	1383.5838	0.130541	-421.818479	-421.808015	-421.80707	-421.855956	35.497	
C	-0.1426506377	 1.5639011146	 0.4699322104	-0.479271
C	 0.1182717972	 0.1126434898	 0.1360918309	 0.389004
O	 1.2245010183	-0.3344086267	-0.0400640963	-0.291391
C	-1.1367201789	-0.7990064524	 0.0105991024	-0.28747
C	-0.785995621	-2.1851502601	-0.5788010788	-0.278448
C	-0.4378845674	-2.12728206	-2.0528768683	 0.146568
O	-0.8927790791	-2.8759493062	-2.8788321218	-0.236981
C	-1.7644248691	-0.9211736568	 1.3227999704	 0.308367
C	-2.2495712474	-1.0311583847	 2.4171492031	-0.434747
H	 0.8004290058	 2.0749071999	 0.6649585303	 0.149805
H	-0.6464169047	 2.0459637319	-0.3767505887	 0.147122
H	-0.8100997982	 1.6479701783	 1.3318437877	 0.159705
H	-1.842600805	-0.2815973487	-0.656372104	 0.12654
H	 0.0898553043	-2.5669609047	-0.041430561	 0.152091
H	-1.6149600229	-2.8822157594	-0.4444819342	 0.131917
H	 0.2908327615	-1.3363704228	-2.3339709627	 0.090292
H	-2.6913539357	-1.1310822722	 3.3779899206	 0.206897
31.6457	40.8916	82.2053	112.4967	138.4603	145.2608	243.9286	296.1354	375.2616	407.507	447.8018	549.6762	555.6037	607.7509	632.0627	653.02	754.456	805.9621	951.0953	966.3777	979.397	1062.0201	1081.9626	1103.2125	1177.9624	1219.4255	1255.7744	1307.6106	1338.4434	1382.2001	1428.8372	1446.1368	1462.5225	1473.9704	1820.9758	1832.361	2232.7289	2902.9776	2997.865	3040.7889	3055.0235	3110.3022	3129.0876	3160.3223	3501.5683
CC(=O)C(CC=O)C#C	CC(=O)[C@@H](CC=O)C#C	
InChI=1S/C7H8O2/c1-3-7(4-5-8)6(2)9/h1,5,7H,4H2,2H3	InChI=1S/C7H8O2/c1-3-7(4-5-8)6(2)9/h1,5,7H,4H2,2H3/t7-/m1/s1
