12
gdb 21941	3.59385	1.79042	1.20696	2.7879	52.17	-0.2766	-0.043	0.2336	900.9093	0.083338	-451.745365	-451.738204	-451.73726	-451.777298	25.292	
O	 0.3907778859	 1.0338160841	 0.855938146	-0.405607
C	 0.0361167088	 0.2311870206	-0.2412297544	-0.149441
C	-1.3934039902	-0.2217682593	-0.2032383321	 0.247138
N	-2.1408358238	-0.1017166063	 0.8560549682	-0.151791
O	-3.3549538506	-0.6487920486	 0.5458983561	-0.164277
N	-3.3667737283	-1.1241303912	-0.7454075144	-0.17993
C	-2.1757651345	-0.8710359982	-1.2075186058	 0.325664
O	-1.7495111129	-1.1709563022	-2.4395314027	-0.409168
H	-0.0315692518	 0.6703605871	 1.6425682666	 0.303705
H	 0.2048147658	 0.8222488394	-1.1488331002	 0.140765
H	 0.6787684443	-0.6620527055	-0.3293970574	 0.120575
H	-2.4729220627	-1.5946748498	-2.9204338201	 0.322367
65.8383	159.306	232.8433	273.294	330.4952	353.6987	439.8421	535.4143	612.5597	657.0241	732.9384	798.3509	921.8488	954.5333	1017.0896	1050.5359	1100.1146	1217.3443	1223.3953	1269.8083	1358.692	1442.7228	1492.0817	1501.2299	1581.9056	1648.8666	2958.0041	3059.9155	3787.0188	3804.3612
OCC1=NON=C1O	OCc1nonc1O	
InChI=1S/C3H4N2O3/c6-1-2-3(7)5-8-4-2/h6H,1H2,(H,5,7)	InChI=1S/C3H4N2O3/c6-1-2-3(7)5-8-4-2/h6H,1H2,(H,5,7)
