17
gdb 37892	3.13519	2.20671	1.74787	1.4905	70.28	-0.2247	0.0846	0.3093	816.3211	0.139051	-421.755561	-421.749847	-421.748903	-421.785275	25.003	
C	-0.0955463393	 1.5192785058	 0.0178029758	-0.327678
C	 1.4713323012	 1.286011007	 0.0035423712	-0.146366
C	 1.2661277749	 0.0679282582	 0.9412457958	 0.075009
O	 2.1508423967	-1.0029613773	 0.6298543752	-0.286613
C	 1.8323178383	-1.1812797587	-0.7612656926	-0.006897
C	 0.5335318093	-2.0485932608	-0.8290943823	-0.092097
O	-0.5521269354	-1.1967560251	-0.3318433332	-0.344652
C	 0.1142134565	 0.0006633352	-0.0953472743	 0.415023
C	 1.268547011	 0.2048603262	-1.1014068718	-0.069459
H	-0.5249805099	 1.9080815371	 0.9449547222	 0.10485
H	-0.5062908551	 2.0265117614	-0.8574152467	 0.109773
H	 2.2402320346	 2.0528138079	 0.0591985944	 0.088659
H	 1.1121420477	 0.1741981396	 2.013367919	 0.088157
H	 2.6841370452	-1.5996542703	-1.2978079019	 0.085124
H	 0.2914426456	-2.3644285649	-1.8518299518	 0.103434
H	 0.6240134883	-2.9258871134	-0.1835036826	 0.12301
H	 1.0318745202	 0.4736860021	-2.1295559065	 0.080723
239.9327	393.8353	399.681	458.4965	488.1003	632.7606	700.2343	735.1628	765.363	820.2459	834.6413	849.973	886.4208	904.1729	937.0943	965.4381	977.2014	989.9455	1013.4897	1040.2634	1061.1715	1069.475	1096.8693	1110.4545	1140.1247	1178.1572	1194.2611	1201.241	1225.9257	1249.311	1266.4186	1275.7958	1304.1267	1365.8679	1383.053	1495.5613	1519.5322	3025.1531	3060.801	3102.1881	3119.3993	3128.167	3134.7795	3142.5906	3153.5446
C1C2C3OC4COC13C24	C1[C@H]2[C@@H]3O[C@H]4CO[C@@]13[C@@H]24	
InChI=1S/C7H8O2/c1-3-5-4-2-8-7(1,5)6(3)9-4/h3-6H,1-2H2	InChI=1S/C7H8O2/c1-3-5-4-2-8-7(1,5)6(3)9-4/h3-6H,1-2H2/t3-,4+,5+,6+,7-/m1/s1
