16
gdb 5910	4.09735	1.27413	1.20926	1.3511	72.54	-0.2589	0.0282	0.2872	1044.1436	0.125707	-346.533671	-346.524312	-346.523368	-346.567076	34.551	
C	 0.092630982	 1.5855956848	 0.0047595488	-0.39674
C	 0.0238275499	 0.05461425	-0.0027181152	 0.1437
O	 0.7067501226	-0.3696118942	 1.1733503797	-0.435814
C	-1.4550644441	-0.4514647866	 0.0109478352	-0.380107
C	-2.2145256568	-0.0045345902	 1.1696685997	 0.327699
C	-2.8509865393	 0.3638539176	 2.1200758123	-0.457151
C	 0.6789490589	-0.4934455011	-1.2015261578	 0.322463
C	 1.2028698247	-0.9802758762	-2.1679393564	-0.473325
H	 1.1365089099	 1.904844165	 0.0048389035	 0.134073
H	-0.405062575	 1.9983508535	-0.8760460658	 0.121945
H	-0.3974679382	 1.9622115848	 0.9051463372	 0.142574
H	 0.8001077345	-1.3279774789	 1.1358881684	 0.284388
H	-1.9446679228	-0.1242766148	-0.9139319722	 0.140477
H	-1.4382249502	-1.5479343651	-0.0244076147	 0.128554
H	-3.4111528527	 0.6863101531	 2.9624693948	 0.19664
H	 1.6784905064	-1.3959881317	-3.0220565874	 0.200625
75.9637	119.2671	176.5353	185.4897	240.1452	293.1664	331.4904	347.9218	367.4971	404.1065	488.2202	561.2875	577.562	617.5165	642.1049	646.8593	666.8117	759.8296	879.4584	930.8915	958.6867	986.3636	1078.0069	1155.4535	1172.8162	1244.895	1325.0397	1378.5471	1410.2163	1462.0669	1483.2091	1494.4354	2229.3866	2240.1819	3027.7556	3057.8771	3064.8926	3139.1714	3145.3912	3499.1903	3506.4007	3807.0139
CC(O)(CC#C)C#C	C[C@@](O)(CC#C)C#C	
InChI=1S/C7H8O/c1-4-6-7(3,8)5-2/h1-2,8H,6H2,3H3	InChI=1S/C7H8O/c1-4-6-7(3,8)5-2/h1-2,8H,6H2,3H3/t7-/m0/s1
