21
gdb 114910	2.78928	1.24627	0.91326	3.0212	86.08	-0.2314	-0.0377	0.1937	1339.8918	0.181897	-387.147018	-387.137399	-387.136455	-387.182118	35.143	
C	 0.0307263695	 1.6069792183	-0.1462265224	-0.389078
C	 0.0315476791	 0.0804140684	-0.0250669752	-0.181061
C	-1.3727101771	-0.5405834413	 0.1007951803	-0.091656
C	-1.3999129539	-2.0830486644	-0.0011437102	-0.296666
C	-2.1705161594	-2.5337907049	 1.2117261261	-0.157785
C	-2.535117986	-1.5305318691	 2.022278005	 0.225379
C	-3.2795010699	-1.5721247739	 3.3164895056	-0.491944
C	-2.0577468133	-0.2455386346	 1.4482108028	 0.32321
O	-2.1914478706	 0.8440340618	 1.9648777926	-0.339181
H	 1.0534490633	 1.9910656692	-0.2148423827	 0.104991
H	-0.5055936377	 1.9254279478	-1.0476367933	 0.107696
H	-0.460601214	 2.0661863439	 0.7133783134	 0.153731
H	 0.5198441593	-0.358196404	-0.9044816965	 0.09464
H	 0.6333487122	-0.2263680623	 0.8409039589	 0.098324
H	-2.0116960532	-0.1052480558	-0.6787914792	 0.100307
H	-1.8652426399	-2.4381695794	-0.928689042	 0.114819
H	-0.3860582763	-2.5053977945	 0.007015072	 0.116745
H	-2.3857710023	-3.582764518	 1.3937511382	 0.104412
H	-3.5481608486	-2.5930163539	 3.5991749462	 0.119014
H	-2.6788241258	-1.1309212246	 4.1192761999	 0.142704
H	-4.1938704856	-0.9718493187	 3.2551424503	 0.141398
33.8964	109.5408	118.9307	181.5136	224.8221	252.7828	266.2411	279.8444	362.4984	398.5697	514.9762	574.9657	684.3641	705.3012	754.7606	829.956	835.7242	891.8498	929.9625	975.3679	1003.8784	1034.2323	1039.5107	1066.1189	1081.4852	1120.1263	1125.2292	1193.1384	1228.1776	1261.4478	1286.2984	1306.5054	1341.5427	1355.0092	1368.8373	1412.4705	1413.2187	1473.5422	1476.5228	1484.7012	1489.7404	1495.9363	1515.2462	1702.448	1791.6591	3011.775	3019.0619	3022.4643	3033.9732	3036.7423	3048.8853	3052.0549	3090.5892	3095.8611	3121.3942	3141.4455	3176.5494
CCC1CC=C(C)C1=O	CC[C@H]1CC=C(C)C1=O	
InChI=1S/C8H12O/c1-3-7-5-4-6(2)8(7)9/h4,7H,3,5H2,1-2H3	InChI=1S/C8H12O/c1-3-7-5-4-6(2)8(7)9/h4,7H,3,5H2,1-2H3/t7-/m0/s1
