18
gdb 51238	3.40844	1.12927	0.98139	2.1748	72.25	-0.2341	-0.0295	0.2045	1214.9627	0.146992	-439.03924	-439.030811	-439.029867	-439.073637	30.567	
O	-0.2651176187	 0.0328617919	-0.3461318036	-0.238231
C	-0.0255841466	 1.1661654667	-0.014484501	 0.149387
C	 1.3447354889	 1.8080940915	-0.0735415873	-0.354189
C	 1.3659930022	 2.9320888762	-1.1019991465	 0.282881
C	 1.4123859951	 2.5655266556	-2.6045563503	-0.119799
O	 2.5122983487	 3.4767455929	-2.8374648666	-0.287236
C	 2.5670318411	 3.8559614323	-1.4527140711	 0.041153
C	 1.6586773099	 5.0596441284	-1.1309422772	-0.183204
N	 0.5579689937	 4.1249130385	-0.7507890683	-0.369975
H	-0.8320964015	 1.8425639783	 0.3469826983	 0.088323
H	 1.5688005063	 2.2376273758	 0.9104585549	 0.12305
H	 2.0840828025	 1.0400731507	-0.3170791952	 0.122258
H	 1.7000332169	 1.529120023	-2.8220270727	 0.115204
H	 0.5188533622	 2.8200305195	-3.1892722486	 0.100177
H	 3.5746167754	 3.8025470139	-1.0350651844	 0.086662
H	 1.9734870522	 5.6873643138	-0.2896971194	 0.109109
H	 1.4764583049	 5.6918705186	-2.0058870833	 0.113648
H	-0.3010435933	 4.2329282423	-1.2807375377	 0.22078
37.977	69.0323	123.3061	176.8801	275.0185	345.8811	386.1623	427.6569	491.6752	640.9532	659.9604	785.6086	835.6626	872.5044	901.9487	924.3085	947.48	987.3874	1002.1571	1028.0196	1037.9139	1071.8861	1119.158	1132.8608	1141.0865	1163.211	1209.3361	1252.0185	1260.8461	1296.6236	1308.5941	1324.3537	1366.3835	1380.0412	1421.1038	1457.5055	1499.6787	1515.9303	1827.9859	2885.5494	3007.8476	3029.3652	3036.7223	3055.4314	3081.5287	3093.7143	3108.9334	3516.6544
O=CCC12COC1CN2	O=CC[C@]12CO[C@H]1CN2	
InChI=1S/C6H9NO2/c8-2-1-6-4-9-5(6)3-7-6/h2,5,7H,1,3-4H2	InChI=1S/C6H9NO2/c8-2-1-6-4-9-5(6)3-7-6/h2,5,7H,1,3-4H2/t5-,6-/m0/s1
