18
gdb 68371	2.92102	1.62249	1.25266	5.3959	71.75	-0.2479	0.0541	0.302	1025.7837	0.148775	-439.126733	-439.118984	-439.11804	-439.158813	30.707	
C	-0.0818401927	 1.5342632187	 0.002628201	-0.503507
C	 0.0540861775	 0.0291841412	 0.0173053257	 0.332648
C	 1.0814761809	-0.7118576549	-0.8973107202	-0.275986
C	 1.009061189	-1.8275422206	 0.1740241268	 0.110335
C	 0.7177452417	-0.7200577074	 1.214596726	-0.268911
O	-0.1611410821	-2.6380988874	-0.030173028	-0.2603
C	-1.342400575	-1.9875154182	-0.271281123	 0.456736
O	-2.3496803626	-2.5984632122	-0.5165654206	-0.394237
N	-1.2410288528	-0.6218922729	-0.1886735828	-0.382954
H	 0.8895479929	 2.0061520875	 0.1710184451	 0.128375
H	-0.465531696	 1.8847577349	-0.9623888391	 0.12772
H	-0.7674314935	 1.8724552325	 0.7871999463	 0.132056
H	 0.7752278446	-0.9593215186	-1.9156619085	 0.114367
H	 2.0591330013	-0.2248880011	-0.8947919806	 0.109076
H	 1.8341730906	-2.5242750311	 0.3133164493	 0.094432
H	 1.6377246312	-0.2310981378	 1.5422159309	 0.108689
H	 0.0869460011	-0.9740841765	 2.0682640591	 0.116398
H	-2.0461022962	-0.0972128361	-0.4885516173	 0.255064
75.838	225.1521	242.1765	274.3163	326.4844	393.131	437.1501	457.3005	509.1387	514.5735	639.4066	665.6435	767.7922	826.472	845.5369	859.9237	920.855	932.864	982.6764	986.7735	1017.5568	1027.6609	1061.6014	1130.1563	1180.2114	1203.8228	1216.745	1247.2712	1260.9638	1271.5231	1307.2657	1398.3693	1412.9149	1434.8021	1462.0262	1488.5445	1494.1513	1499.5971	1861.5099	3030.9106	3066.5415	3074.2652	3096.0153	3119.0948	3128.3139	3134.5776	3139.4957	3655.6759	75.8382	225.1525	242.1766	274.3163	326.4847	393.131	437.1501	457.3005	509.1388	514.5735	639.4066	665.6436	767.7922	826.4721	845.5368	859.9237	920.8549	932.8639	982.6763	986.7734	1017.5565	1027.6608	1061.6012	1130.1562	1180.2111	1203.8226	1216.7449	1247.2711	1260.9638	1271.5229	1307.2656	1398.3692	1412.9146	1434.8019	1462.0259	1488.5441	1494.151	1499.5968	1861.5097	3030.9106	3066.5415	3074.2652	3096.0153	3119.0949	3128.3139	3134.5777	3139.4957	3655.676
CC12CC(C1)OC(=O)N2	C[C@@]12C[C@@H](C1)OC(=O)N2	
InChI=1S/C6H9NO2/c1-6-2-4(3-6)9-5(8)7-6/h4H,2-3H2,1H3,(H,7,8)	InChI=1S/C6H9NO2/c1-6-2-4(3-6)9-5(8)7-6/h4H,2-3H2,1H3,(H,7,8)/t4-,6+
