17
gdb 69608	3.32253	1.26203	1.20734	4.699	78.08	-0.2441	-0.0025	0.2416	1098.5795	0.135388	-380.802108	-380.794166	-380.793222	-380.834322	30.952	
C	 0.1649368639	 1.4698571748	 0.0324110266	-0.472077
C	 0.0242450942	-0.0186137336	 0.0469084957	 0.362905
C	-0.9748013627	-0.7958159582	 0.85673784	-0.354259
C	 0.4962616351	-1.0832082099	 1.0112252765	-0.163488
C	 1.0744047761	-1.8370950378	-0.2054920549	 0.162834
C	 0.1053136874	-2.0995825887	-1.3016691267	-0.281886
N	 0.6347966353	-0.7398038174	-1.1597382849	-0.19344
C	 2.4098811369	-2.3523215989	-0.2108551757	 0.237407
N	 3.4816878788	-2.7872720013	-0.1768357464	-0.338703
H	 1.1915427326	 1.7588498573	-0.211302386	 0.139599
H	-0.4970713491	 1.9129767639	-0.7204451123	 0.131745
H	-0.0961093262	 1.8932313624	 1.0066415865	 0.122779
H	-1.3800064873	-0.2167034102	 1.6815742639	 0.128627
H	-1.6855053352	-1.5100387575	 0.4565672718	 0.120824
H	 1.0378703666	-0.9899289695	 1.942449629	 0.114142
H	 0.5025337845	-2.5979668925	-2.1810056711	 0.148823
H	-0.9299439407	-2.3340168528	-1.085496542	 0.134167
105.1968	157.398	199.1634	250.7132	310.9987	365.8567	458.2583	481.4332	509.1958	550.0767	601.6363	615.9955	758.0498	773.1334	810.2689	869.2064	912.2232	946.6426	955.7608	977.2877	1023.176	1059.6167	1083.9464	1105.2206	1130.5739	1138.2109	1173.9601	1208.3896	1273.5764	1341.0196	1386.3918	1425.1114	1474.824	1476.9505	1498.1641	1522.9212	2347.0586	3033.1433	3098.4187	3117.8314	3126.081	3139.0664	3202.3343	3212.0358	3221.9991
CC12CC1C1(CN21)C#N	C[C@]12C[C@H]1[C@]1(CN21)C#N	
InChI=1S/C7H8N2/c1-6-2-5(6)7(3-8)4-9(6)7/h5H,2,4H2,1H3	InChI=1S/C7H8N2/c1-6-2-5(6)7(3-8)4-9(6)7/h5H,2,4H2,1H3/t5-,6+,7-,9?/m1/s1
