16
gdb 29822	3.22034	1.39936	0.98266	4.5398	78.49	-0.1934	-0.0563	0.1371	1148.9083	0.125545	-434.121823	-434.113372	-434.112428	-434.156083	30.875	
C	-0.0266056913	 1.463509024	 0.0197327879	-0.358382
N	 0.0002863722	 0.0044355579	-0.0073825755	-0.111713
C	-1.1821350873	-0.6938054116	-0.0311289317	-0.05481
C	-1.1823825629	-2.0592433623	-0.049346474	 0.288619
N	-2.3438310707	-2.8358741395	-0.134735151	-0.576471
N	-0.00430073	-2.7540400662	-0.0503795752	-0.274766
C	 1.1122463652	-2.0922539367	-0.0361575367	-0.092465
C	 1.2446909721	-0.6374972925	-0.0113557569	 0.381464
O	 2.3076761438	-0.0291514254	 0.008762916	-0.416513
H	 1.0074076517	 1.8044901486	 0.0218584211	 0.183598
H	-0.5453887694	 1.8500986899	-0.8625565411	 0.140621
H	-0.5372187794	 1.8183371447	 0.9201717403	 0.138753
H	-2.0876764368	-0.0997348419	-0.0388736077	 0.118665
H	-3.1436948588	-2.4566087829	 0.3523153308	 0.245512
H	-2.1602121302	-3.7894438836	 0.1477192618	 0.253755
H	 2.0467797515	-2.6479453125	-0.0365128981	 0.134132
19.3632	110.603	177.1636	228.1938	309.4176	354.5601	371.6397	416.4351	444.5503	543.5377	581.0297	597.2615	685.6593	757.94	774.4899	819.0717	835.4087	937.312	945.6697	1062.5271	1129.9361	1153.2013	1157.0081	1211.9931	1325.7602	1347.4603	1380.1342	1435.2452	1469.1521	1498.6687	1504.5731	1566.1865	1635.2491	1677.5683	1753.4812	3042.1577	3104.4554	3165.8669	3173.1655	3200.1768	3551.6284	3653.0565
CN1C=C(N)N=CC1=O	Cn1cc(N)ncc1=O	
InChI=1S/C5H7N3O/c1-8-3-4(6)7-2-5(8)9/h2-3H,6H2,1H3	InChI=1S/C5H7N3O/c1-8-3-4(6)7-2-5(8)9/h2-3H,6H2,1H3
