22
gdb 76903	2.3313	1.69321	1.20628	1.5062	82.42	-0.2127	0.0855	0.2982	1131.7605	0.194988	-404.338815	-404.330045	-404.3291	-404.371957	33.716	
C	 0.214478811	 1.5727027273	-0.0920139409	-0.40054
C	 0.0843711265	 0.0606446187	-0.0953136362	 0.041924
C	 0.6648200103	-0.7587155508	-1.2849614399	 0.081297
O	 1.7394506348	-0.1800443949	-1.9997520952	-0.267988
C	 2.9740351648	-0.4720753685	-1.3355449803	-0.074861
C	 2.7559866654	-1.8024548429	-0.5986898255	-0.234527
C	 1.2814004009	-1.7001213536	-0.2184911839	-0.000763
N	 0.9887358423	-0.6815947545	 0.8145868227	-0.093997
C	 0.4859182747	-1.1154840352	 2.097349363	-0.330888
H	 1.2265002941	 1.8754197967	-0.3704953322	 0.129107
H	-0.4854420032	 2.0204444491	-0.8055710619	 0.114399
H	-0.0101797021	 1.9800098127	 0.8995921558	 0.111357
H	-0.9700475709	-0.2310486009	 0.0596998671	 0.050476
H	-0.0585110985	-1.1439607705	-2.0056259282	 0.078234
H	 3.7564834629	-0.5119489302	-2.0984371542	 0.103685
H	 3.219831004	 0.3218408105	-0.6185957337	 0.10268
H	 2.9133180686	-2.6535749063	-1.2701746628	 0.100956
H	 3.4114898465	-1.9123453332	 0.2690001832	 0.104548
H	 0.7783053363	-2.6634024195	-0.0650643409	 0.057703
H	 1.24444122	-1.7116945132	 2.6161572475	 0.118168
H	 0.2631200472	-0.2462548652	 2.7253278129	 0.120823
H	-0.4353918056	-1.7257187855	 2.0224597234	 0.088207
94.2203	176.0841	183.5582	211.4051	213.7526	249.14	261.5295	387.4564	405.953	533.5952	624.066	663.02	745.5191	795.5798	866.6488	871.16	878.903	910.3965	953.3671	972.1582	1007.3641	1041.885	1072.2042	1091.9133	1133.4248	1150.1212	1162.0196	1171.3651	1206.7365	1222.052	1233.3995	1256.314	1278.211	1303.1792	1321.2645	1334.6055	1357.2465	1384.5366	1397.5616	1411.0281	1455.5424	1472.2072	1486.1332	1487.9871	1493.781	1499.0565	1516.2054	2916.4153	2933.8584	3018.8328	3020.7902	3036.8198	3049.7359	3053.553	3088.5358	3094.2353	3095.2145	3099.5742	3109.4433	3127.7774
CC1C2OCCC2N1C	C[C@H]1[C@H]2OCC[C@H]2N1C	
InChI=1S/C7H13NO/c1-5-7-6(8(5)2)3-4-9-7/h5-7H,3-4H2,1-2H3	InChI=1S/C7H13NO/c1-5-7-6(8(5)2)3-4-9-7/h5-7H,3-4H2,1-2H3/t5-,6+,7+/m0/s1
