16
gdb 85753	3.12558	1.3481	1.1376	5.4684	69.02	-0.2818	0.0117	0.2935	1088.7408	0.123986	-437.877154	-437.869254	-437.86831	-437.909908	29.274	
C	 0.3840236776	 1.4973885377	-0.2180063205	-0.403785
C	 0.1048578136	 0.0182057369	-0.0071278503	 0.106993
O	 0.6351236151	-0.7059786779	-1.1318669091	-0.27748
C	 1.1288499751	-1.9715373674	-0.7215062915	-0.038403
C	 2.3057144759	-2.3186492845	-1.5308166106	 0.286671
N	 3.2257745966	-2.6354899414	-2.1519318769	-0.313027
C	 1.4253282265	-1.839345076	 0.768737989	 0.003726
O	 2.198044567	-0.6831275269	 1.0705218214	-0.23328
C	 0.7734166136	-0.6056273491	 1.2026906969	 0.012957
H	 1.4619495831	 1.6744176511	-0.219456889	 0.14843
H	-0.0292966977	 1.8254253699	-1.1747584285	 0.137096
H	-0.0765427334	 2.08951496	 0.5788045059	 0.119446
H	-0.9796823083	-0.1628162318	 0.0691798735	 0.08401
H	 0.3743558605	-2.7633943879	-0.8612077253	 0.123967
H	 1.5805665076	-2.721455892	 1.3820188412	 0.126125
H	 0.3846631771	-0.4483385409	 2.2045946238	 0.116554
73.9632	134.1319	181.767	238.3549	273.4892	344.1509	389.5832	491.7806	549.5928	560.0161	673.2021	795.4368	829.5328	849.1431	893.7595	898.1419	941.5127	1009.248	1038.658	1046.5953	1087.6289	1103.9649	1128.2172	1155.2428	1254.9756	1294.7626	1308.8065	1340.2075	1351.9863	1378.7717	1407.9727	1442.6545	1485.8306	1498.8705	2370.4693	2972.7924	2977.2574	3049.7927	3123.8744	3140.5639	3161.1328	3175.5561
CC1OC(C#N)C2OC12	C[C@H]1O[C@@H](C#N)[C@H]2O[C@@H]12	
InChI=1S/C6H7NO2/c1-3-5-6(9-5)4(2-7)8-3/h3-6H,1H3	InChI=1S/C6H7NO2/c1-3-5-6(9-5)4(2-7)8-3/h3-6H,1H3/t3-,4+,5+,6-/m1/s1
