18
gdb 109139	4.27494	0.9518	0.78978	5.0678	75.4	-0.236	0.0194	0.2554	1392.6491	0.148245	-439.125889	-439.116813	-439.115869	-439.160887	32.368	
O	 0.0805745355	 1.4246628981	-0.1540218706	-0.412201
C	 0.0291554558	 0.0183681597	-0.0301929223	-0.142977
C	-1.399230605	-0.4430029699	 0.0876171964	 0.253033
C	-2.4360680129	 0.3888759094	 0.0725924217	-0.138516
C	-3.8604909399	-0.0600704246	 0.1891914015	-0.378297
C	-4.0746275198	-1.5593204039	 0.3301099857	 0.393665
O	-5.1869983385	-2.0434355255	 0.4329035847	-0.381495
N	-2.9531816965	-2.3380295719	 0.3356212008	-0.319874
C	-1.5659985685	-1.9307536456	 0.2246497741	-0.231323
H	 1.0024778397	 1.6859775946	-0.2257851104	 0.292794
H	 0.4960354091	-0.4771184966	-0.9006567073	 0.095604
H	 0.5921079847	-0.3259801373	 0.8561907347	 0.095602
H	-2.2520266798	 1.4529641478	-0.0291083205	 0.115716
H	-4.353090838	 0.4133225493	 1.0487386954	 0.141532
H	-4.4478015586	 0.2645102312	-0.67986595	 0.141526
H	-3.1479844308	-3.3242004957	 0.4316572797	 0.244718
H	-1.1004581232	-2.4315930808	-0.6401854139	 0.115254
H	-1.0048016432	-2.2815866185	 1.1063802604	 0.115238
46.1036	57.9826	108.2093	200.4884	205.02	226.8825	366.2459	432.3895	446.4126	511.4457	529.7853	593.0821	652.5457	750.1943	776.3466	830.3141	937.6171	978.993	1012.0461	1015.8735	1071.9014	1081.1195	1128.1261	1168.0955	1209.2294	1226.7356	1245.7892	1269.8586	1305.4982	1337.8251	1394.7805	1400.9277	1452.0747	1465.8571	1493.9986	1513.3387	1531.6159	1768.4015	1791.2143	2933.9341	2946.4753	2964.1628	2972.6184	3026.9661	3047.5345	3193.0299	3608.4779	3844.3954
OCC1=CCC(=O)NC1	OCC1=CCC(=O)NC1	
InChI=1S/C6H9NO2/c8-4-5-1-2-6(9)7-3-5/h1,8H,2-4H2,(H,7,9)	InChI=1S/C6H9NO2/c8-4-5-1-2-6(9)7-3-5/h1,8H,2-4H2,(H,7,9)
