22
gdb 39130	3.38639	1.32928	1.20947	1.5229	84.84	-0.2261	0.0792	0.3053	1135.891	0.197086	-367.186627	-367.178924	-367.17798	-367.218615	31.62	
C	-0.1471097384	 1.4550490274	-0.0538672688	-0.262815
C	 1.1016989705	 0.6541655332	 0.0564534621	-0.097007
N	-0.2068431706	-0.0117086962	-0.1157734796	-0.098773
C	-0.2196873739	-0.5359418318	-1.4977170606	-0.155198
C	 0.9293910126	 0.1443834332	-2.2756851913	-0.319746
C	 1.9634836463	 0.4780253264	-1.1777138419	 0.399907
C	 3.0248219656	 1.5535001645	-1.55496065	-0.282139
C	 4.0369541176	 0.4174781494	-1.8637513903	-0.210799
C	 3.1303963365	-0.5574463206	-1.0676950705	-0.270125
H	-0.5901319961	 1.8846634108	 0.8400171452	 0.113202
H	-0.321087929	 2.030910179	-0.9596126548	 0.106121
H	 1.5791347273	 0.539239738	 1.0269267744	 0.080643
H	-0.0544714537	-1.6170140593	-1.4311713658	 0.106975
H	-1.2017712046	-0.3790717103	-1.954990498	 0.102921
H	 1.3377383822	-0.4983858525	-3.0603155401	 0.099801
H	 0.5863918279	 1.0618836576	-2.7654254027	 0.101917
H	 2.7663641324	 2.240591981	-2.3657653986	 0.092493
H	 3.3270756019	 2.1443193498	-0.6847838098	 0.099745
H	 4.0696801511	 0.1748949268	-2.9293493224	 0.102483
H	 5.0621297386	 0.5482683287	-1.5103494128	 0.096923
H	 3.4665653352	-0.6743629092	-0.0326155467	 0.097949
H	 2.9549938005	-1.5524941061	-1.4865293968	 0.09552
115.8485	130.813	207.9431	308.4044	361.2166	388.347	421.0782	488.3195	649.7978	677.1654	711.3737	789.7279	798.9239	825.5099	856.0884	876.5489	914.2588	940.2984	947.4805	964.368	971.9883	1005.0652	1019.4502	1056.2854	1094.3455	1106.8017	1129.9112	1138.4039	1175.8241	1200.3654	1211.4569	1220.9563	1242.6169	1258.1045	1265.8404	1276.023	1282.5752	1301.3251	1319.1497	1348.8355	1390.8435	1474.1929	1484.1392	1489.548	1496.117	1507.8784	1519.3026	3039.1589	3044.1073	3045.535	3049.0329	3062.561	3081.2487	3090.5735	3093.9224	3098.1347	3107.384	3117.5533	3131.4497	3189.0225
C1C2N1CCC21CCC1	C1[C@H]2N1CCC12CCC1	
InChI=1S/C8H13N/c1-2-8(3-1)4-5-9-6-7(8)9/h7H,1-6H2	InChI=1S/C8H13N/c1-2-8(3-1)4-5-9-6-7(8)9/h7H,1-6H2/t7-,9?/m1/s1
