18
gdb 62526	2.50711	1.33333	1.13134	3.1883	79.03	-0.2455	0.0223	0.2678	1155.895	0.14492	-401.944123	-401.93444	-401.933495	-401.978469	35.638	
C	-0.0423968116	 1.5480459354	-0.0245718662	-0.444669
C	-0.065601979	 0.0224269974	 0.0227740017	 0.12128
C	-1.4498330405	-0.5299255277	 0.3446029775	-0.441121
C	 0.7055095658	-0.6750622306	-1.1814752276	-0.202885
N	 1.6665248988	-1.1572299799	-0.180422227	-0.332887
C	 1.0581905041	-0.5844447367	 0.9082239182	 0.43011
O	 1.3214727731	-0.5689905805	 2.0805146086	-0.369954
C	 0.0201831869	-1.7016281206	-1.9487032295	 0.342303
C	-0.5378370605	-2.5418941139	-2.6029637491	-0.43994
H	 0.9544425228	 1.9297624445	-0.2674267759	 0.123253
H	-0.7475001154	 1.9274377705	-0.7719395197	 0.121486
H	-0.327525693	 1.9556361219	 0.950006007	 0.139001
H	-2.1867478613	-0.192415979	-0.3914228375	 0.120983
H	-1.4576049608	-1.6225505449	 0.3542015067	 0.132534
H	-1.7623755696	-0.1771976714	 1.3319991498	 0.133483
H	 1.1451668288	 0.060890961	-1.8655957165	 0.109144
H	 2.4705676038	-1.7613514213	-0.2706224631	 0.254048
H	-1.0318850123	-3.2867622143	-3.1769342475	 0.203834
53.8967	135.8763	167.4717	201.6445	215.5355	221.4148	277.7628	305.3498	338.284	434.3898	449.6161	513.8166	601.0183	634.4738	660.0705	679.4963	740.4899	770.9213	821.9106	961.8615	971.1742	993.5294	1023.546	1057.6991	1144.161	1161.6935	1219.9935	1258.9158	1282.912	1366.6743	1371.5088	1401.7445	1422.3463	1480.8261	1483.5519	1501.7307	1503.8508	1893.4998	2234.6969	3026.7146	3032.6676	3040.8585	3101.2972	3108.8907	3112.2266	3124.1501	3500.7611	3605.4263
CC1(C)C(NC1=O)C#C	CC1(C)[C@@H](NC1=O)C#C	
InChI=1S/C7H9NO/c1-4-5-7(2,3)6(9)8-5/h1,5H,2-3H3,(H,8,9)	InChI=1S/C7H9NO/c1-4-5-7(2,3)6(9)8-5/h1,5H,2-3H3,(H,8,9)/t5-/m0/s1
