16
gdb 30231	3.62554	1.32907	1.04639	5.7219	71.57	-0.2093	0.0223	0.2316	1122.3873	0.125266	-437.902856	-437.89516	-437.894216	-437.935607	28.552	
C	-0.3236931222	 1.4736948333	 0.1754688203	-0.39874
C	-0.0468009409	-0.008776766	-0.0363726103	-0.149679
C	 0.8077352231	-0.4117901101	-1.3104452084	-0.185594
N	 1.7441337107	-1.0687800071	-0.3794628799	-0.136826
C	 1.0887050914	-0.638962818	 0.7633038119	 0.289218
C	 1.892793309	-0.882593697	 1.8034620311	-0.189315
O	 3.0552821092	-1.4665819347	 1.3023674319	-0.230883
C	 3.0097003012	-1.5200466305	-0.0978098542	 0.477435
O	 3.907066153	-1.9099110299	-0.7906075832	-0.403178
H	 0.5979853794	 2.0600113711	 0.1138203254	 0.13188
H	-1.022412891	 1.8474515887	-0.579785957	 0.12759
H	-0.7689637464	 1.6474130114	 1.1597612147	 0.132827
H	-0.9742600668	-0.5856702497	 0.0217066295	 0.110974
H	 0.3366981196	-1.0938707811	-2.0208655644	 0.136998
H	 1.2481805372	 0.4377261967	-1.839671722	 0.138018
H	 1.8490535535	-0.7295914671	 2.8665531647	 0.149274
65.6972	106.1457	204.1899	237.0226	304.175	366.776	434.4782	597.5704	627.1828	684.4959	693.9398	696.8728	744.3	779.4147	871.7085	913.591	945.9134	971.1973	1072.2203	1089.4279	1107.7605	1139.3534	1177.8272	1229.4813	1244.745	1282.4133	1321.7525	1363.3995	1386.6608	1413.9902	1493.7691	1496.004	1511.7251	1696.9541	1892.2359	3038.702	3063.0871	3067.0572	3110.0722	3115.8401	3124.7638	3301.5146
CC1CN2C1=COC2=O	C[C@H]1CN2[C]1[CH]OC2=O	
InChI=1S/C6H7NO2/c1-4-2-7-5(4)3-9-6(7)8/h3-4H,2H2,1H3	InChI=1S/C6H7NO2/c1-4-2-7-5(4)3-9-6(7)8/h3-4H,2H2,1H3/t4-/m0/s1
