23
gdb 60527	2.69645	1.14544	1.05455	1.588	81.36	-0.2608	0.0733	0.3341	1299.4625	0.203227	-425.410682	-425.40035	-425.399406	-425.445383	39.485	
C	 0.0225395078	 1.5202485711	 0.0392991963	-0.412056
C	 0.0020511645	-0.0195983499	 0.0454617756	 0.2533
C	 0.7417856952	-0.5371764645	 1.2921773594	-0.420364
C	-1.4624282148	-0.4967983026	 0.0677936213	-0.421446
C	 0.7040413966	-0.508297151	-1.2578964873	 0.093157
O	 2.0185956126	 0.0096054424	-1.3794449431	-0.448519
C	 0.7519827878	-2.0249961394	-1.412045071	 0.044383
C	 1.7071332427	-2.6630418305	-2.3231909338	-0.186024
O	 1.9461238599	-2.6431770545	-0.905477778	-0.249708
H	 1.0456835795	 1.8938217673	-0.0389884144	 0.130924
H	-0.5477268456	 1.9196841048	-0.8073635282	 0.103213
H	-0.4248719091	 1.9143443399	 0.9579552434	 0.103131
H	 0.2559096907	-0.1707570239	 2.2025684804	 0.108814
H	 0.7549613045	-1.630614095	 1.3365123108	 0.122678
H	 1.7778110772	-0.1856204292	 1.3080956848	 0.114271
H	-1.9856739985	-0.2285581712	-0.8577153835	 0.109015
H	-1.5502003682	-1.5791780426	 0.2047631947	 0.111887
H	-2.0002377386	-0.0239748986	 0.8961801422	 0.114961
H	 0.1338925851	-0.1035114335	-2.1062201575	 0.085571
H	 2.5914853169	-0.6249830312	-0.925738836	 0.29291
H	-0.1602500448	-2.5683233438	-1.1756154172	 0.099969
H	 1.4852200614	-3.6451029126	-2.7358959764	 0.119352
H	 2.3768757173	-2.0376172616	-2.9078338325	 0.13058
67.4356	97.328	187.6603	226.4453	240.5954	261.4433	278.0965	300.6781	311.378	342.7087	353.4065	395.1221	466.6292	509.5104	535.6357	679.7973	759.6108	795.8325	872.7523	901.7241	938.6357	939.8998	960.1493	976.323	1008.4492	1038.9403	1054.6751	1099.6807	1123.2149	1164.6533	1170.7845	1219.5683	1235.3013	1271.186	1274.7071	1300.1234	1349.0208	1394.9851	1400.7999	1414.5152	1432.9565	1444.1527	1480.4312	1486.5522	1491.8824	1505.3955	1511.1567	1516.1992	1521.4389	3008.6657	3024.9765	3029.4739	3036.9776	3088.5081	3092.9358	3098.1131	3100.2263	3101.8247	3109.8901	3128.4559	3142.2364	3196.1366	3738.3399
CC(C)(C)C(O)C1CO1	CC(C)(C)[C@@H](O)[C@H]1CO1	
InChI=1S/C7H14O2/c1-7(2,3)6(8)5-4-9-5/h5-6,8H,4H2,1-3H3	InChI=1S/C7H14O2/c1-7(2,3)6(8)5-4-9-5/h5-6,8H,4H2,1-3H3/t5-,6+/m1/s1
