16
gdb 38704	2.82538	2.26534	1.70745	1.2267	66.77	-0.2327	0.004	0.2366	816.948	0.127258	-437.849674	-437.843677	-437.842733	-437.879634	25.537	
C	-0.0128687483	 1.4754912305	 0.0570780214	-0.403136
C	 1.3506896885	 0.7926499083	-0.009141372	 0.066204
O	 2.1621665503	 0.2788005489	 1.0491539921	-0.260035
C	 1.6317330807	-1.0175796974	 1.2201657167	 0.23325
C	 0.1382446251	-0.7662157492	 1.296796829	-0.30448
C	 0.097052801	-0.0206784256	-0.0491850241	 0.29361
N	-0.0052102899	-0.9696457755	-1.1423801884	-0.318735
C	 0.918802579	-1.832336454	-0.9645668683	 0.10666
O	 1.8544287045	-1.8586219554	 0.0347361973	-0.264919
H	-0.4166603777	 1.8705020039	 0.9834948576	 0.125772
H	-0.2386986617	 2.0694224601	-0.824086993	 0.132791
H	 1.9086313465	 0.9471746622	-0.925541701	 0.116104
H	 2.1571901433	-1.5138273109	 2.0360269264	 0.102783
H	-0.4872096616	-1.6597848809	 1.2961416912	 0.124124
H	-0.095024656	-0.141475241	 2.1597825388	 0.117439
H	 1.0639544063	-2.6682395238	-1.6434325236	 0.132566
240.1931	340.8788	366.559	427.3335	465.0453	521.0729	596.9073	640.8651	723.684	747.648	809.23	810.8363	880.089	908.7966	918.7961	954.1316	983.7644	991.2732	1020.5946	1045.5071	1078.404	1091.2307	1098.0792	1130.0892	1134.8236	1229.4891	1274.068	1314.1487	1327.5684	1346.3422	1373.0328	1405.5058	1470.3656	1486.3549	1642.9017	3085.0452	3122.7559	3134.6264	3145.9866	3176.5932	3184.8571	3214.5004
C1C2OC3CC12N=CO3	C1[C@H]2O[C@H]3C[C@@]12[N][CH]O3	
InChI=1S/C6H7NO2/c1-4-6(1)2-5(9-4)8-3-7-6/h3-5H,1-2H2	InChI=1S/C6H7NO2/c1-4-6(1)2-5(9-4)8-3-7-6/h3-5H,1-2H2/t4-,5+,6+/m1/s1
