17
gdb 71819	3.41004	1.63398	1.51601	0.9492	69.78	-0.244	0.0722	0.3162	910.9123	0.137278	-421.76564	-421.75907	-421.758125	-421.796139	27.898	
O	-0.0955779538	 1.3927827752	-0.0468857022	-0.463946
C	 0.0196096587	 0.0157309445	-0.0567356928	 0.394567
C	 0.7403861992	-0.7879277257	-1.1391657257	-0.293855
C	-0.2048672286	-1.9856999823	-0.7840246445	-0.099366
C	 0.438465478	-2.8720306946	 0.2963213663	 0.029881
O	 1.6712470606	-2.3608313556	 0.8374274883	-0.254723
C	 0.4435645859	-2.088722755	 1.534569981	 0.033941
C	-0.258830027	-0.787296804	 1.2274940692	-0.16011
C	-1.1187254752	-0.9646466617	-0.012027398	-0.138113
H	 0.700918158	 1.7594680308	 0.3535683194	 0.286948
H	 0.4777051026	-0.3755814174	-2.1172080279	 0.101428
H	 1.8161486811	-0.9488567194	-1.0648967859	 0.112511
H	-0.6321661454	-2.5342477884	-1.6211079945	 0.075227
H	 0.3630247773	-3.9551720859	 0.2555484217	 0.09516
H	 0.3714952797	-2.5188272609	 2.5305058085	 0.095944
H	-0.6449428123	-0.1798099288	 2.0373957478	 0.089052
H	-2.1890127889	-0.8200318909	-0.0837076707	 0.095453
188.9944	279.1422	338.4143	366.6458	381.1118	505.4152	569.1875	587.8218	675.57	716.952	737.7861	830.7318	839.7643	853.7634	879.776	890.0592	907.1283	964.5676	984.5222	995.7376	1015.4464	1031.6975	1048.7713	1103.1086	1120.6053	1163.5282	1175.8498	1230.3884	1246.2869	1258.5149	1274.7234	1295.2472	1314.4792	1329.2356	1413.2501	1439.2089	1497.6305	3065.7466	3129.9314	3134.4885	3139.3118	3155.0152	3190.0032	3200.4756	3792.1821
OC12CC3C4OC4C1C23	O[C@@]12C[C@H]3[C@H]4O[C@H]4[C@@H]1[C@@H]23	
InChI=1S/C7H8O2/c8-7-1-2-3(7)4(7)6-5(2)9-6/h2-6,8H,1H2	InChI=1S/C7H8O2/c8-7-1-2-3(7)4(7)6-5(2)9-6/h2-6,8H,1H2/t2-,3+,4+,5-,6+,7-/m1/s1
