18
gdb 88796	2.80688	1.35657	1.05947	4.9828	71.91	-0.2572	0.012	0.2692	1159.9182	0.148066	-439.082449	-439.073999	-439.073055	-439.116064	31.053	
C	 0.0813660952	 1.5568337627	-0.2734378785	-0.426878
C	-0.06171325	 0.0936378318	 0.0667465638	 0.006524
N	 1.1274643656	-0.77411856	-0.0360819535	-0.332123
C	 0.4937470708	-0.5781137229	 1.2750006052	-0.041352
C	 1.3241154058	 0.0609294521	 2.3635787032	-0.222169
C	 2.3491112791	-0.8517948347	 3.073872391	-0.091331
O	 3.4358537894	 0.04305028	 2.6849846314	-0.228962
C	 2.5858376851	 0.8748583289	 2.0087000381	 0.474186
O	 2.8685161355	 1.875548111	 1.4331818005	-0.317444
H	 1.0201860098	 1.970100969	 0.0964014475	 0.175667
H	 0.0490636506	 1.6920296208	-1.359924223	 0.119246
H	-0.749467987	 2.1274837777	 0.1568390899	 0.110516
H	-0.9967726855	-0.3476058897	-0.280243358	 0.084137
H	 0.8883544115	-1.6802624191	-0.4277338792	 0.23262
H	-0.1119408048	-1.3975605685	 1.6649931334	 0.087342
H	 0.6881031462	 0.6130297045	 3.0631307154	 0.119344
H	 2.277851843	-0.9251228508	 4.1607363665	 0.123935
H	 2.4851767195	-1.8380390328	 2.6248756263	 0.126741
59.529	118.9689	164.02	190.	217.3747	254.5337	386.771	472.1793	502.7006	509.4239	725.3328	744.2346	773.4517	798.8039	865.5516	924.5286	935.3975	971.3832	994.8501	1025.733	1075.6346	1081.7556	1105.9893	1122.2414	1150.8432	1164.3991	1184.649	1233.7302	1263.8473	1277.2032	1324.8097	1365.8388	1401.8979	1432.5215	1466.1028	1502.039	1508.2897	1514.8804	1930.5282	3035.3787	3066.6318	3071.0651	3086.0278	3092.3741	3098.5958	3133.0982	3155.7493	3512.6479
CC1NC1C1COC1=O	C[C@H]1N[C@H]1[C@H]1COC1=O	
InChI=1S/C6H9NO2/c1-3-5(7-3)4-2-9-6(4)8/h3-5,7H,2H2,1H3	InChI=1S/C6H9NO2/c1-3-5(7-3)4-2-9-6(4)8/h3-5,7H,2H2,1H3/t3-,4-,5-/m1/s1
