23
gdb 96178	2.19757	1.73823	1.12022	1.3109	84.5	-0.2397	0.0765	0.3162	1170.9661	0.208565	-388.290601	-388.282355	-388.28141	-388.323009	33.277	
C	-0.0592424565	 1.5703487123	-0.0537763209	-0.403475
C	 0.020776322	 0.0421936329	-0.0003071344	-0.0151
C	 0.5896439044	-0.5448006365	-1.2991919277	-0.083543
O	 0.7251463331	-1.9529577614	-1.2264762431	-0.245007
C	 1.7199154227	-2.3241153542	-0.287465524	-0.087973
C	 1.3543194304	-1.9263248516	 1.1501676217	-0.037535
C	 2.5835950075	-1.4423610754	 1.9698910897	-0.234983
C	 2.2497637592	 0.0145124206	 1.5430173376	-0.239487
C	 0.8045697164	-0.4680947357	 1.2129401778	 0.039239
H	 0.9367794752	 2.0178077771	-0.1454266945	 0.11717
H	-0.6558085459	 1.908771179	-0.9081115178	 0.111667
H	-0.5205422094	 1.9726557965	 0.8541899537	 0.113734
H	-0.9990876448	-0.3573374428	 0.0891438305	 0.076774
H	-0.084871049	-0.3401595276	-2.1367815653	 0.101459
H	 1.5654376933	-0.0844876486	-1.5383059178	 0.079062
H	 1.8375503101	-3.4084171268	-0.3736754828	 0.104084
H	 2.6811851746	-1.8648822271	-0.5769405225	 0.080468
H	 0.7229837804	-2.6953488579	 1.6030669064	 0.064236
H	 2.4407463675	-1.5923453495	 3.0434102948	 0.100313
H	 3.5618908271	-1.8446819425	 1.6907266358	 0.093995
H	 2.3570437269	 0.8007224848	 2.2937734726	 0.095716
H	 2.8077207855	 0.3164618469	 0.6519992373	 0.1019
H	 0.1894938892	-0.3508690426	 2.1122843028	 0.067289
126.2177	161.3162	215.6446	228.7743	291.5288	339.2716	365.3624	429.9282	462.5432	533.8446	607.4055	657.9905	751.3352	834.6987	874.2646	890.495	930.8486	937.0173	948.634	959.9171	976.9682	1000.6256	1040.44	1077.7598	1094.0906	1120.5098	1148.5735	1168.3532	1197.6994	1213.0891	1238.3078	1248.6185	1261.5457	1272.8276	1284.788	1324.2713	1336.4788	1352.0125	1354.9569	1382.1629	1401.8519	1411.5951	1426.4229	1481.9868	1491.8035	1495.6932	1497.772	1501.0599	1508.7271	2943.2921	2953.2569	3005.5983	3026.7143	3033.9278	3049.6928	3058.687	3063.7134	3072.7783	3082.7581	3093.3232	3096.1698	3097.4809	3114.2402
CC1COCC2CCC12	C[C@H]1COC[C@H]2CC[C@@H]12	
InChI=1S/C8H14O/c1-6-4-9-5-7-2-3-8(6)7/h6-8H,2-5H2,1H3	InChI=1S/C8H14O/c1-6-4-9-5-7-2-3-8(6)7/h6-8H,2-5H2,1H3/t6-,7+,8-/m0/s1
