18
gdb 55232	3.56365	1.08679	0.85767	1.0396	73.65	-0.2442	-0.0351	0.2091	1307.0898	0.146835	-439.148725	-439.139714	-439.13877	-439.183342	32.123	
C	-0.0444691589	 1.4790469596	 0.0463948022	-0.495899
C	 0.0122733556	-0.0396946835	 0.0349822508	 0.392112
O	 1.0605086396	-0.6583395704	 0.1031369027	-0.369019
N	-1.1920992897	-0.6874262481	-0.0464742927	-0.094661
C	-1.2425183283	-2.156513803	-0.0714028248	-0.169607
C	-2.6693688456	-2.486328382	 0.3763338006	-0.336414
C	-3.4830255715	-1.2434914949	 0.0233658297	 0.386848
O	-4.6765227399	-1.1586420013	-0.0717612924	-0.293151
C	-2.5008558004	-0.0833810628	-0.2003150984	-0.284401
H	 0.9760141533	 1.8547945117	 0.1095307528	 0.149896
H	-0.5186655762	 1.869289692	-0.8602397989	 0.13767
H	-0.6184317727	 1.8507994809	 0.9019212198	 0.137518
H	-1.0446902454	-2.5349584862	-1.0832780521	 0.119818
H	-0.4628634506	-2.5497593581	 0.5807270593	 0.147189
H	-3.0982588022	-3.3787787049	-0.08203452	 0.141663
H	-2.7234786453	-2.6135406758	 1.4648129106	 0.146283
H	-2.6972417391	 0.7085657334	 0.531268446	 0.145171
H	-2.6785078027	 0.3417156435	-1.1990947051	 0.138985
53.0358	91.5301	133.7216	140.1773	194.1817	202.8893	373.8125	432.8004	466.1543	529.0621	595.8995	616.2571	630.8204	749.1962	807.6363	836.2222	914.3579	952.526	1006.5594	1050.757	1070.7177	1080.5303	1146.0451	1190.9357	1197.4209	1218.477	1262.5948	1282.6254	1315.3161	1371.1938	1383.3878	1429.0929	1450.3772	1468.6282	1481.4275	1487.5715	1525.387	1765.6054	1863.1743	2999.4295	3017.4755	3041.3912	3045.0921	3058.134	3102.0326	3125.5593	3132.4018	3163.5159
CC(=O)N1CCC(=O)C1	CC(=O)N1CCC(=O)C1	
InChI=1S/C6H9NO2/c1-5(8)7-3-2-6(9)4-7/h2-4H2,1H3	InChI=1S/C6H9NO2/c1-5(8)7-3-2-6(9)4-7/h2-4H2,1H3
