21
gdb 68401	2.19781	1.82494	1.54258	1.9435	77.16	-0.2556	0.0656	0.3212	1004.2379	0.182739	-424.223799	-424.215306	-424.214361	-424.25583	35.084	
C	-0.0540947403	 1.5387739954	-0.0007272956	-0.457693
C	 0.0670745935	 0.0156027118	-0.0223986073	 0.414365
O	-1.2273356801	-0.5590993588	-0.1974974694	-0.495824
C	 1.0258995937	-0.5636682219	-1.106178106	-0.253605
C	 1.9881331706	-1.3599154242	-0.1979467799	-0.027632
C	 2.2770990863	-0.3422073795	 0.9436238121	-0.29826
C	 0.7618124586	-0.5821550018	 1.2272759573	 0.365662
O	 0.0948099255	-0.2177442947	 2.3983286728	-0.50832
C	 1.0061063667	-2.0556836229	 0.7868489074	-0.293024
H	 0.9182807919	 2.0326102753	 0.0772808462	 0.111181
H	-0.5413203341	 1.8792295956	-0.9188904718	 0.119323
H	-0.6613208891	 1.8580918168	 0.8525418674	 0.119412
H	-1.707055555	-0.4033613047	 0.6252835774	 0.277956
H	 0.4706294734	-1.1971279795	-1.801644694	 0.112121
H	 1.5361849021	 0.2190799943	-1.6747197228	 0.093665
H	 2.7943129856	-1.912360205	-0.6777841185	 0.064731
H	 2.9135346488	-0.7620126581	 1.7278463897	 0.087949
H	 2.6191113945	 0.6615697584	 0.6800724174	 0.093802
H	 0.4663097398	-0.7121238767	 3.135166647	 0.282553
H	 0.1586063583	-2.6090088394	 0.3805636316	 0.110305
H	 1.5269519193	-2.6362682905	 1.5540930088	 0.081334
162.0893	221.908	232.4887	257.6362	285.4666	357.6	371.0185	385.9543	437.7436	460.6652	511.5054	541.5783	586.197	655.1661	748.9654	835.3779	850.9537	891.5906	898.6424	940.843	969.5405	973.2262	990.7966	1014.0076	1033.9353	1072.0876	1116.2475	1122.9518	1135.5336	1170.4871	1179.7738	1214.118	1227.1684	1271.1927	1283.6385	1287.4436	1317.1281	1375.5263	1388.9263	1407.7825	1480.0946	1486.7487	1493.8061	1494.9433	1525.7361	3040.071	3053.2634	3059.2283	3062.4612	3109.142	3112.5811	3114.8519	3122.0757	3126.927	3135.1625	3785.1901	3825.7931
CC1(O)CC2CC1(O)C2	C[C@@]1(O)C[C@H]2C[C@]1(O)C2	
InChI=1S/C7H12O2/c1-6(8)2-5-3-7(6,9)4-5/h5,8-9H,2-4H2,1H3	InChI=1S/C7H12O2/c1-6(8)2-5-3-7(6,9)4-5/h5,8-9H,2-4H2,1H3/t5-,6-,7-/m1/s1
