23
gdb 117086	2.90661	0.89758	0.81705	3.4365	83.32	-0.2377	-0.0089	0.2289	1570.3336	0.201195	-425.435985	-425.424567	-425.423623	-425.472848	40.84	
C	-0.0589526415	 1.4040484525	 0.0699735768	-0.226181
O	-0.0552662215	 0.0378543627	-0.270165397	-0.209447
C	-1.2094383416	-0.6257149471	 0.1474989169	-0.168196
C	-1.1071442656	-2.1142672852	-0.1940004326	 0.351732
O	-0.0708106814	-2.5863582917	-0.5904180403	-0.295456
C	-2.386817089	-2.9661713913	-0.044148643	 0.149686
C	-1.9850919395	-4.4390904676	 0.1316615748	-0.398445
C	-3.2551202349	-2.5118389064	 1.1449429949	-0.42503
C	-3.1834364202	-2.8033914107	-1.3618221009	-0.406048
H	 0.8789462976	 1.8299008818	-0.2935324777	 0.133704
H	-0.8992038795	 1.9424988114	-0.3973135938	 0.102739
H	-0.1203814978	 1.5546779087	 1.1597474709	 0.103992
H	-1.3570940215	-0.5333241441	 1.2392891884	 0.109176
H	-2.1161549921	-0.199146196	-0.3175726857	 0.10373
H	-1.4479582738	-4.5916942575	 1.073060874	 0.114053
H	-2.8765461486	-5.0745393591	 0.1410771386	 0.103385
H	-1.3283653391	-4.7612483482	-0.678040489	 0.136345
H	-3.6180040921	-1.4857250801	 1.0322476928	 0.115911
H	-4.1349398863	-3.158733434	 1.2256000381	 0.118517
H	-2.7090574824	-2.5798702365	 2.091737811	 0.119641
H	-2.5891851612	-3.131752276	-2.2194205213	 0.133464
H	-4.0928740477	-3.4122435842	-1.3226406853	 0.118645
H	-3.4859178802	-1.7652864512	-1.5335974606	 0.114084
38.2186	84.9286	100.8999	145.0616	200.2013	222.5984	245.6978	266.1563	275.2067	288.8883	306.0843	355.8894	369.3165	390.5315	466.3656	574.9164	598.9668	785.34	850.9898	935.4026	947.1291	964.2083	967.895	981.9177	1046.9933	1057.4136	1089.8517	1174.4389	1183.4038	1221.0958	1236.6364	1249.8046	1265.6345	1278.2927	1394.5083	1399.7759	1403.7731	1430.3605	1465.7293	1478.0867	1485.7019	1486.1725	1487.242	1491.2821	1500.7239	1506.5724	1516.3498	1519.7213	1816.819	2939.7107	2962.1217	2968.5279	3010.5633	3030.2681	3033.1507	3041.7963	3096.7973	3098.8564	3105.6266	3106.859	3113.7573	3119.1309	3138.2182
COCC(=O)C(C)(C)C	COCC(=O)C(C)(C)C	
InChI=1S/C7H14O2/c1-7(2,3)6(8)5-9-4/h5H2,1-4H3	InChI=1S/C7H14O2/c1-7(2,3)6(8)5-9-4/h5H2,1-4H3
