19
gdb 51578	3.95195	0.86792	0.77255	4.6589	80.17	-0.2303	0.0377	0.268	1485.0569	0.159146	-419.179997	-419.171098	-419.170154	-419.214793	32.578	
O	-0.1412896186	 0.0560821725	-0.4128356706	-0.331959
C	 0.001904116	 1.2204241777	-0.0997803717	 0.15209
N	 1.1933135025	 1.839221806	 0.0950444157	-0.279149
C	 2.4459142104	 1.1569967284	 0.0049545963	 0.041221
C	 3.52603898	 1.6800735552	-0.9158652089	-0.32964
C	 3.6550123196	 1.8468657537	 0.5806435284	 0.007475
N	 3.4366492952	 3.1659099796	 1.1111522775	-0.084992
C	 3.7103258195	 3.3541814976	 2.5357216487	-0.224501
C	 4.6225814047	 3.9231241115	 1.5060515601	-0.217099
H	-0.8477744369	 1.9126982871	 0.0659659311	 0.069275
H	 1.2262105587	 2.800101377	 0.4030754665	 0.255272
H	 2.3371406972	 0.0861177274	 0.1211396015	 0.130934
H	 4.1719117546	 0.9679166958	-1.4170793079	 0.12106
H	 3.2938853223	 2.5748840202	-1.482488886	 0.123651
H	 4.3912647061	 1.2279294	 1.0988668334	 0.082344
H	 3.0152475738	 3.9944335674	 3.0706276086	 0.121985
H	 4.0650572948	 2.4940349783	 3.0997855761	 0.120408
H	 5.5910948334	 3.4451513675	 1.3766146077	 0.119007
H	 4.6020126867	 4.984471397	 1.2771723535	 0.122615
35.1444	90.7475	112.3679	203.788	217.6932	272.8007	307.5529	384.6292	492.6551	584.6187	599.4611	718.4196	754.7428	815.3842	825.7055	870.6446	898.3363	941.2139	1002.2609	1017.8605	1030.5104	1051.9458	1065.6362	1101.9323	1120.0505	1121.8175	1127.229	1137.5907	1176.1894	1208.4089	1220.0078	1256.3318	1316.7114	1355.999	1399.0985	1429.7381	1471.3648	1491.025	1518.3054	1536.8214	1800.426	2932.063	3065.0406	3103.2129	3107.5035	3137.254	3185.9331	3200.4095	3200.707	3231.1095	3610.6676
O=CNC1CC1N1CC1	O=CN[C@H]1C[C@H]1N1CC1	
InChI=1S/C6H10N2O/c9-4-7-5-3-6(5)8-1-2-8/h4-6H,1-3H2,(H,7,9)	InChI=1S/C6H10N2O/c9-4-7-5-3-6(5)8-1-2-8/h4-6H,1-3H2,(H,7,9)/t5-,6+/m0/s1
