23
gdb 95285	2.01742	1.74828	1.35003	1.2587	84.01	-0.2472	0.0699	0.3171	1114.7477	0.206508	-388.303118	-388.294152	-388.293208	-388.336474	35.639	
C	-0.4872026968	 1.4508287437	 0.0506319802	-0.426386
C	 0.149921983	 0.0666948433	-0.061857309	-0.012138
C	 1.1764128383	-0.0970436363	-1.1985079229	-0.225861
C	 1.8910174092	-1.4213756348	-0.8592574481	-0.231969
C	 2.0161910106	-1.4001271461	 0.6706518622	-0.029612
C	 3.0914403208	-0.4357131343	 1.2522254394	-0.225232
C	 1.9756671532	 0.4834416335	 1.8225026342	-0.287977
C	 0.8904072307	-0.4483328651	 1.1952774058	 0.417814
O	 0.026024224	-1.0663036847	 2.1291494744	-0.493948
H	 0.2649010885	 2.2353860797	 0.1849658901	 0.117626
H	-1.0580760219	 1.6942691717	-0.8513954493	 0.116486
H	-1.1830382793	 1.5086285951	 0.8967686788	 0.099484
H	-0.6490453261	-0.6696363008	-0.2271907366	 0.07713
H	 0.7108402798	-0.1008624436	-2.188802264	 0.093417
H	 1.8881990466	 0.7391694427	-1.1853535782	 0.095327
H	 1.2668831948	-2.2665361602	-1.1727841325	 0.09789
H	 2.8580843955	-1.5283823157	-1.3614930068	 0.091413
H	 2.0132097911	-2.3921644759	 1.1247654458	 0.071167
H	 3.7452828111	-0.8815247781	 2.0045946346	 0.099972
H	 3.7220860703	 0.0348453578	 0.4922428955	 0.094171
H	 1.9185836329	 0.4812750017	 2.9134101438	 0.099616
H	 1.9897717474	 1.5198116842	 1.4753767002	 0.090144
H	-0.5821679537	-0.3964147379	 2.4610370225	 0.271467
53.7053	178.8713	220.1383	234.6437	247.1602	258.6416	306.3112	401.1645	417.3851	506.896	523.8475	586.3038	620.5519	730.1622	801.0221	815.081	847.8442	878.6341	929.2858	948.0099	960.0842	972.4252	979.2907	1023.2894	1044.7644	1069.6319	1086.6657	1132.7879	1166.2203	1188.3887	1207.1392	1219.5015	1236.4818	1246.8624	1269.9321	1277.9427	1305.9016	1317.4311	1339.7699	1343.6436	1363.004	1386.1243	1413.4973	1465.2383	1485.3246	1487.5653	1493.7848	1501.144	1505.0656	3005.8808	3021.7247	3024.3818	3033.0783	3052.9093	3060.5711	3075.5989	3082.6339	3084.0361	3092.6118	3099.3018	3104.8108	3120.9775	3793.637
CC1CCC2CCC12O	C[C@H]1CC[C@H]2CC[C@@]12O	
InChI=1S/C8H14O/c1-6-2-3-7-4-5-8(6,7)9/h6-7,9H,2-5H2,1H3	InChI=1S/C8H14O/c1-6-2-3-7-4-5-8(6,7)9/h6-7,9H,2-5H2,1H3/t6-,7-,8+/m0/s1
