16
gdb 103455	2.91323	1.44742	1.25207	0.6921	63.71	-0.2336	0.0041	0.2377	1017.6071	0.124524	-474.99793	-474.990097	-474.989153	-475.030371	29.969	
O	 0.2354581248	 0.9343155696	 0.7527329197	-0.42625
C	-0.1320195219	 0.3691473983	-0.5064229252	-0.149262
C	-1.4428867341	-0.3612490848	-0.349507497	 0.33261
O	-2.4527935629	 0.4461306918	 0.1824016415	-0.467529
C	-1.9986468369	-1.3812833751	-1.2879881664	-0.002963
O	-1.0960661686	-2.0051666264	-2.1948469032	-0.210694
C	-0.2230388934	-2.6949459905	-1.4105128664	 0.092698
N	-0.3774221309	-2.6746451929	-0.1481594724	-0.259824
C	-1.522984522	-1.8279979761	 0.0971583511	-0.128747
H	 0.532217271	 0.2092812179	 1.3146025651	 0.296364
H	-0.2654604938	 1.2153328178	-1.1871569037	 0.127099
H	 0.6583452127	-0.273774119	-0.9052228383	 0.113364
H	-2.0340434867	 0.9226010383	 0.9129897572	 0.291455
H	-3.0158719792	-1.3158266335	-1.6525269221	 0.12861
H	 0.5511628568	-3.2237930619	-1.952312436	 0.149974
H	-2.1759805549	-2.0820340335	 0.9229360262	 0.113096
79.313	145.1369	213.4085	275.8923	339.447	374.4378	400.7353	429.9857	508.0724	559.9956	632.4701	729.3231	769.9389	854.104	891.7582	911.2291	939.886	973.0528	991.1739	1019.4397	1047.056	1055.2325	1073.9497	1121.3852	1161.3571	1232.1977	1253.196	1276.5879	1310.887	1346.8375	1376.7144	1410.4193	1469.7685	1486.2064	1664.1288	3053.595	3101.7299	3191.5178	3200.9013	3234.9569	3750.2753	3801.902
OCC1(O)C2OC=NC12	OC[C@@]1(O)[C@H]2OC=N[C@@H]12	
InChI=1S/C5H7NO3/c7-1-5(8)3-4(5)9-2-6-3/h2-4,7-8H,1H2	InChI=1S/C5H7NO3/c7-1-5(8)3-4(5)9-2-6-3/h2-4,7-8H,1H2/t3-,4+,5+/m1/s1
