19
gdb 116941	4.66917	0.54184	0.49138	2.0077	81.87	-0.2424	-0.0134	0.229	2198.3037	0.15494	-423.015667	-423.004334	-423.00339	-423.056583	37.401	
C	-0.3379001593	 1.3220487437	-0.5607810456	-0.477761
C	-0.5488160695	-0.1823875761	-0.5445873185	 0.391566
O	-0.6067611271	-0.8391965736	-1.5523703137	-0.269325
C	-0.6824870342	-0.800345701	 0.8605010254	-0.488604
C	-0.882871007	-2.2385996153	 0.8745646751	 0.084072
C	-1.0488456159	-3.4301690215	 0.8857498935	 0.086495
C	-1.2479295553	-4.872403709	 0.8446064987	-0.328025
C	-1.2766925193	-5.412183355	-0.5900761459	-0.061855
O	-1.4743349532	-6.8135898305	-0.4994256385	-0.417488
H	-0.255895354	 1.6700899012	-1.590703185	 0.145487
H	-1.1717201206	 1.8317958972	-0.065080812	 0.139811
H	 0.5707269644	 1.5878902919	-0.0089060565	 0.139888
H	 0.2168142472	-0.5213716357	 1.4287692056	 0.145926
H	-1.5077242171	-0.2817096673	 1.3699290814	 0.145968
H	-0.4501430216	-5.388210771	 1.3929654935	 0.134555
H	-2.1890399331	-5.1465749736	 1.3369074893	 0.134552
H	-2.0860981184	-4.9199191814	-1.1484939077	 0.102983
H	-0.3302225368	-5.1638866536	-1.0919047162	 0.10301
H	-1.4953295692	-7.1720948093	-1.3911833129	 0.288744
11.6749	13.8256	46.4519	84.6486	104.0544	150.7209	218.8795	239.371	304.0864	347.5694	385.2099	391.6152	470.0039	504.9005	612.6921	794.1105	794.9137	828.5151	829.2282	965.3752	1000.9369	1051.5993	1078.7086	1088.7596	1165.9925	1172.0066	1219.3486	1227.2466	1238.8757	1304.1025	1329.6749	1339.976	1382.1535	1439.017	1454.9923	1465.1045	1476.9037	1479.1779	1526.8445	1830.4431	2379.6758	2989.6356	3003.8774	3020.6045	3027.9564	3028.8862	3037.0771	3066.3342	3097.0082	3155.0167	3835.0939
CC(=O)CC#CCCO	CC(=O)CC#CCCO	
InChI=1S/C7H10O2/c1-7(9)5-3-2-4-6-8/h8H,4-6H2,1H3	InChI=1S/C7H10O2/c1-7(9)5-3-2-4-6-8/h8H,4-6H2,1H3
