19
gdb 62579	3.60991	1.48162	1.33017	2.9187	74.5	-0.2307	0.0681	0.2988	1018.2313	0.160329	-422.977918	-422.970706	-422.969762	-423.009012	30.34	
C	 0.0038882847	 1.497330329	 0.0344961496	-0.432276
C	-0.0346719506	-0.0145600518	-0.0136244601	 0.421877
O	-1.248316608	-0.4181931087	-0.5607662986	-0.476492
C	 1.2942322002	-0.6981632533	-0.2822018461	-0.147946
C	 0.667943195	-0.7271010598	 1.1283268667	-0.147952
C	 0.5149414641	-2.2537999728	 1.2558823196	 0.044386
C	 1.8953954974	-2.7864676675	 0.7864920678	-0.215581
C	 1.3094295937	-2.2170933186	-0.533422778	 0.044384
O	-0.0098162621	-2.6614717106	-0.0568988148	-0.315845
H	 0.9417166843	 1.8653219907	 0.4586317182	 0.109215
H	-0.1077816905	 1.9030496507	-0.9755531172	 0.126578
H	-0.8263577019	 1.8698668442	 0.6421012004	 0.126582
H	-1.2198941704	-1.3872296927	-0.5680352698	 0.290111
H	 2.1778530382	-0.1222736345	-0.5359276983	 0.088171
H	 1.0637364608	-0.173756475	 1.9732933475	 0.088172
H	-0.0387280434	-2.6699395652	 2.0966412281	 0.091493
H	 2.7989965707	-2.3301543379	 1.197070918	 0.10156
H	 1.9474663912	-3.8767236345	 0.7872487802	 0.112071
H	 1.5678398366	-2.5957141018	-1.5215867232	 0.091492
200.9023	209.3165	251.5395	280.5224	379.2057	405.1476	502.4009	587.8922	649.6306	653.8614	719.4236	719.4857	781.1196	812.2844	850.986	854.8088	902.3863	907.563	951.9941	968.0512	993.0055	1013.3516	1039.816	1069.5121	1085.7509	1094.8895	1111.0217	1120.0965	1173.2473	1222.4398	1258.5141	1273.4094	1279.8524	1283.229	1288.0133	1370.8828	1411.7569	1461.572	1479.3246	1483.7611	1506.4488	3042.064	3069.3891	3111.2501	3122.6416	3130.3364	3132.228	3143.2699	3161.3659	3170.2501	3684.9427
CC1(O)C2C1C1CC2O1	C[C@@]1(O)[C@H]2[C@@H]1[C@@H]1C[C@H]2O1	
InChI=1S/C7H10O2/c1-7(8)5-3-2-4(9-3)6(5)7/h3-6,8H,2H2,1H3	InChI=1S/C7H10O2/c1-7(8)5-3-2-4(9-3)6(5)7/h3-6,8H,2H2,1H3/t3-,4+,5-,6+,7-
