17
gdb 22763	1.99836	1.48731	0.99012	1.2697	78.74	-0.2392	-0.004	0.2353	1225.485	0.133362	-417.900089	-417.890686	-417.889742	-417.934478	34.562	
C	-0.9631189077	 1.1688758333	 0.0239861057	-0.379618
C	-0.0826225439	-0.0697325854	-0.044954517	-0.043135
N	 1.1886345884	 0.1043894567	-0.8169152601	-0.323853
C	 2.0194477445	-0.4825636578	 0.2845186336	-0.281679
C	 3.1906917018	 0.2909939326	 0.663809789	 0.378328
C	 4.1666421484	 0.925866281	 0.959784326	-0.444733
C	 0.7651684962	-0.4240189009	 1.1587298667	 0.403765
N	 0.4628121703	-0.5794082491	 2.3733623974	-0.236602
O	 1.5795492416	-0.9155296771	 3.1499075825	-0.383419
H	-0.3776237833	 2.032261136	 0.3492370863	 0.130736
H	-1.3882148215	 1.3897737114	-0.9603039077	 0.117061
H	-1.7853611823	 1.0118627431	 0.7289554302	 0.126503
H	-0.6768881314	-0.9353775804	-0.3753861357	 0.088709
H	 1.2333204314	-0.4259386895	-1.6798711679	 0.223404
H	 2.3137835372	-1.5296126072	 0.1134819473	 0.116696
H	 5.0229621452	 1.4928667162	 1.2294341703	 0.197401
H	 1.2053052349	-0.968738183	 4.0361136833	 0.310437
56.2653	108.7812	146.9708	198.1152	217.6996	240.8718	302.6595	358.9897	435.8363	457.5715	520.7995	532.806	592.9068	623.6726	649.577	653.6233	780.2226	860.1516	908.0464	954.8047	996.4923	1018.2052	1069.722	1077.0674	1122.6525	1160.932	1191.158	1289.2396	1319.5463	1369.3731	1379.4614	1405.2989	1416.5446	1486.2119	1492.4889	1802.497	2240.1804	2980.1256	2984.1116	3040.4394	3111.6627	3129.0474	3504.12	3538.1546	3814.2458
CC1NC(C#C)C1=NO	C[C@H]1N[C@@H](C#C)C1=NO	
InChI=1S/C6H8N2O/c1-3-5-6(8-9)4(2)7-5/h1,4-5,7,9H,2H3	InChI=1S/C6H8N2O/c1-3-5-6(8-9)4(2)7-5/h1,4-5,7,9H,2H3/t4-,5+/m1/s1
