17
gdb 27990	2.5026	1.38663	0.90013	3.8339	80.47	-0.2011	-0.0253	0.1758	1259.4577	0.136465	-418.066338	-418.057533	-418.056589	-418.099712	32.412	
C	-0.0226352844	 1.5306559181	 0.0285936945	-0.496404
C	 0.0026545393	 0.0342736803	 0.0097137821	 0.277496
C	 0.0495159891	-0.767314217	-1.0894894862	-0.186573
N	 0.0511079609	-2.0996368288	-0.665358995	-0.086623
C	-0.0217951294	-3.2025442289	-1.5037803702	 0.168807
O	 0.0012591888	-3.1341371595	-2.7075344134	-0.305662
C	 0.034409588	-2.1219964488	 0.7345937628	 0.327311
N	-0.0180893467	-3.3495320273	 1.4152709567	-0.604798
C	 0.0003080308	-0.8293397	 1.1683482662	-0.330673
H	 0.8351083314	 1.9410662827	 0.5745010699	 0.127087
H	 0.000514503	 1.9385347519	-0.9854576803	 0.127304
H	-0.9251773626	 1.9100000286	 0.522109435	 0.128326
H	 0.0754190114	-0.5502237943	-2.143514192	 0.145656
H	-0.1123322308	-4.1431915358	-0.9377930931	 0.108965
H	 0.8601277532	-3.8589602978	 1.3893850025	 0.252125
H	-0.273651078	-3.2084057852	 2.3843883273	 0.253951
H	-0.0078996541	-0.5135973579	 2.2015583832	 0.093706
119.8425	144.1021	188.2683	190.5279	201.6465	229.1318	284.2219	374.9196	401.851	562.2533	606.4531	623.6131	649.854	687.556	750.3141	782.7634	818.297	895.0612	977.3862	1014.0508	1041.4989	1064.0055	1125.4483	1166.9844	1186.7459	1244.5383	1350.9782	1372.5591	1421.2597	1431.9831	1449.3766	1482.1333	1497.6876	1584.6926	1641.1952	1668.3536	1810.7016	3018.2907	3025.656	3073.6904	3112.886	3235.0829	3288.9818	3499.448	3605.0323
CC1=CN(C=O)C(N)=C1	Cc1cn(C=O)c(N)c1	
InChI=1S/C6H8N2O/c1-5-2-6(7)8(3-5)4-9/h2-4H,7H2,1H3	InChI=1S/C6H8N2O/c1-5-2-6(7)8(3-5)4-9/h2-4H,7H2,1H3
