17
gdb 60871	2.64248	1.22385	1.0005	2.1655	75.22	-0.2527	-0.0324	0.2203	1211.668	0.131584	-421.773707	-421.764073	-421.763129	-421.808793	34.472	
C	 0.3492819711	 1.5564714721	-0.1557723038	-0.416364
C	 0.0089465304	 0.0669241954	 0.0547858068	-0.151555
C	 0.3873237644	-0.689984156	-1.2089097214	 0.13399
O	-0.4108746084	-1.153197599	-1.9823810226	-0.25082
C	 0.7242859878	-0.4852710566	 1.2912474412	 0.179191
C	 1.2572881517	-1.8636319501	 1.3262234028	-0.223129
O	 2.1306519189	-0.7546891515	 1.125214331	-0.263502
C	 0.3550353666	 0.1406982883	 2.5404766478	 0.277885
C	 0.0123947394	 0.6715857545	 3.5629783747	-0.38237
H	 1.4198020954	 1.6861105958	-0.3434893124	 0.138446
H	-0.2050070301	 1.9603541813	-1.006979667	 0.133683
H	 0.0879400805	 2.1329604661	 0.7351099213	 0.143055
H	-1.0697919957	-0.0525005074	 0.1966043116	 0.110951
H	 1.4812561166	-0.7507271338	-1.3961304462	 0.102759
H	 1.3556975042	-2.3688602397	 2.2845611384	 0.132668
H	 1.1106065837	-2.5146127634	 0.4647411508	 0.131937
H	-0.2784199164	 1.1349604339	 4.473718437	 0.203174
52.9561	57.15	139.055	189.3822	223.55	237.5342	259.1623	325.5922	393.7284	431.3952	470.3894	559.1059	582.0952	632.9638	673.3225	720.8692	847.2782	876.1079	912.2531	954.5107	961.9645	1079.2793	1096.2521	1133.1207	1150.136	1171.3312	1196.0162	1298.6043	1332.3099	1356.9143	1400.4	1422.3049	1496.6116	1500.5349	1523.0016	1829.7877	2237.5553	2903.785	3044.884	3070.4827	3086.2312	3120.3319	3128.0894	3181.0101	3499.5116
CC(C=O)C1(CO1)C#C	C[C@@H](C=O)[C@]1(CO1)C#C	
InChI=1S/C7H8O2/c1-3-7(5-9-7)6(2)4-8/h1,4,6H,5H2,2H3	InChI=1S/C7H8O2/c1-3-7(5-9-7)6(2)4-8/h1,4,6H,5H2,2H3/t6-,7+/m0/s1
