18
gdb 17243	4.50135	1.70849	1.61793	0.8718	71.27	-0.2342	0.101	0.3352	875.9345	0.154343	-347.737983	-347.730944	-347.73	-347.769107	27.589	
C	 0.0273807748	 1.2763191116	-0.2382479487	-0.257998
O	-0.0979306705	-0.0476161829	 0.254258577	-0.284173
C	-1.3727316077	-0.5494224338	 0.1581559195	 0.451673
C	-2.5744024286	-0.2331256917	 1.0480200832	-0.301851
C	-3.1936996522	-1.5258407378	 0.4397864337	-0.064117
C	-3.4375885676	-1.1744173899	-1.0560248265	-0.226825
C	-1.9177498413	-1.1183295097	-1.1738966171	-0.130016
C	-1.7315809979	-1.9991345813	 0.0514986047	-0.160073
H	 1.076328468	 1.5597670738	-0.1277794257	 0.126161
H	-0.2565634902	 1.3387393766	-1.2978069299	 0.110538
H	-0.593699271	 1.9811733496	 0.3319228589	 0.112956
H	-2.3195260728	-0.3647745694	 2.1034361693	 0.102189
H	-3.1262177311	 0.7039987478	 0.908518759	 0.085242
H	-3.9181035838	-2.1043620757	 1.0080662518	 0.072962
H	-3.8526613533	-2.0218892405	-1.6098671183	 0.098354
H	-4.023818887	-0.2730396855	-1.2725970893	 0.084674
H	-1.2971342052	-1.0993911687	-2.0609982995	 0.085303
H	-1.1643796025	-2.9028251827	 0.2174495778	 0.095003
100.3211	178.3651	183.548	367.5058	374.647	426.4384	479.0728	620.2952	701.8882	750.1898	800.0934	831.1605	869.6342	922.6679	942.4539	961.0615	991.9921	1001.9055	1013.3226	1056.3692	1076.7445	1117.2303	1124.3005	1144.1846	1167.969	1181.7209	1197.4683	1207.4432	1233.2088	1270.4165	1283.4214	1314.162	1402.2716	1482.1577	1488.8502	1497.4407	1506.5467	1511.3799	2994.7465	3023.1469	3031.278	3048.9546	3085.6894	3096.7853	3122.3758	3141.5461	3194.5039	3229.8903
COC12CC3CC1C23	CO[C@@]12C[C@H]3C[C@@H]1[C@@H]23	
InChI=1S/C7H10O/c1-8-7-3-4-2-5(7)6(4)7/h4-6H,2-3H2,1H3	InChI=1S/C7H10O/c1-8-7-3-4-2-5(7)6(4)7/h4-6H,2-3H2,1H3/t4-,5-,6+,7+/m1/s1
