18
gdb 72854	3.07246	1.32818	1.10395	2.6036	78.24	-0.2279	0.0257	0.2536	1141.2318	0.146194	-401.866889	-401.858332	-401.857388	-401.899968	32.827	
C	-0.4411492006	 1.5657494645	-0.0074254397	-0.475539
C	-0.078087397	 0.1075356618	 0.0603603724	 0.441767
C	-1.1765724912	-0.9760047775	 0.2066718715	-0.216645
N	-0.3016978451	-1.7408017496	 1.1472378248	-0.322022
C	 0.6929739762	-0.6468908268	 1.1763794727	-0.127143
C	 1.7892297805	-0.8624340974	 0.1002612793	-0.077564
O	 0.9298219232	-0.2637345675	-0.9154202741	-0.332668
C	 3.0289091995	-0.1265059446	 0.2862901274	 0.336269
C	 4.0477467981	 0.4850146303	 0.470735599	-0.439888
H	 0.4532688481	 2.18859428	 0.0798918947	 0.135061
H	-0.9177983581	 1.7893943846	-0.9687448963	 0.132522
H	-1.140270955	 1.8348911956	 0.7906281146	 0.116017
H	-2.0981465721	-0.5917406256	 0.6617116669	 0.095282
H	-1.4244025807	-1.5185834066	-0.7106845508	 0.113718
H	-0.7310033856	-1.9174469937	 2.0467531376	 0.223513
H	 0.9893832993	-0.2451198103	 2.1455123714	 0.08523
H	 1.9819422044	-1.9189377701	-0.1148519659	 0.113
H	 4.953323446	 1.018958563	 0.6216459945	 0.19909
71.8125	142.6625	191.8091	204.3864	261.053	331.8388	382.8739	391.7333	456.3228	533.9488	624.3622	628.8374	666.4542	674.121	777.2092	836.4302	899.2415	923.4312	943.8744	951.7301	992.9227	1001.0478	1020.7657	1043.9556	1134.0885	1150.5775	1171.1945	1200.4485	1227.9314	1260.7185	1292.6534	1334.4851	1372.6233	1387.5488	1410.4763	1480.3054	1488.8274	1496.3888	2231.2977	3019.1508	3033.9414	3052.7127	3083.4022	3101.3172	3110.3606	3119.4313	3502.6526	3556.573
CC12CNC1C(O2)C#C	C[C@]12CN[C@H]1[C@@H](O2)C#C	
InChI=1S/C7H9NO/c1-3-5-6-7(2,9-5)4-8-6/h1,5-6,8H,4H2,2H3	InChI=1S/C7H9NO/c1-3-5-6-7(2,9-5)4-8-6/h1,5-6,8H,4H2,2H3/t5-,6-,7-/m0/s1
