15
gdb 32321	2.74493	1.52514	0.98632	4.0463	73.6	-0.2388	-0.0723	0.1665	1119.7831	0.11324	-453.961293	-453.953503	-453.952558	-453.993926	28.98	
O	 0.1159692793	 1.3726061507	 0.0118077029	-0.42653
C	 0.0406793768	-0.024083382	-0.042382184	-0.109907
C	-1.3777396173	-0.5227615642	 0.0447900174	 0.25139
N	-2.3253384534	 0.3434885475	 0.1534604019	-0.336648
C	-3.6323729922	-0.1160648251	 0.2339099332	-0.091287
C	-3.9119600466	-1.4261273969	 0.2002977704	 0.038323
O	-2.9394974046	-2.3658215388	 0.0869089909	-0.221351
C	-1.6132686866	-1.9752864255	 0.0022039671	 0.351898
N	-0.6707725763	-2.8144861805	-0.1046664239	-0.518822
H	-0.7978977643	 1.6855939243	 0.09282834	 0.292457
H	 0.4843874921	-0.4119914467	-0.9727425664	 0.128702
H	 0.6187365185	-0.4869609948	 0.7726530702	 0.128909
H	-4.4151967271	 0.6249528736	 0.3246438503	 0.130562
H	-4.8994245489	-1.8645525173	 0.2571425832	 0.149231
H	-1.0216391194	-3.7727088044	-0.1179265631	 0.233073
87.11	117.2536	212.2967	232.9683	331.4024	352.2896	427.9028	495.5729	552.2868	553.7313	596.7193	744.6638	783.91	815.951	868.8429	901.2393	913.7417	979.5436	1014.8796	1053.3071	1110.9395	1172.3843	1210.7758	1237.6578	1269.1443	1297.4595	1350.4826	1419.3524	1463.2854	1485.9243	1614.7723	1673.4617	1731.6905	2990.1982	3002.2258	3216.9353	3237.9767	3490.1036	3696.1421
OCC1=NC=COC1=N	OCC1=C(OC=C[N]1)[NH]	
InChI=1S/C5H6N2O2/c6-5-4(3-8)7-1-2-9-5/h1-2,6,8H,3H2	InChI=1S/C5H6N2O2/c6-5-4(3-8)7-1-2-9-5/h1-2,6,8H,3H2
