23
gdb 64492	2.91675	1.45758	1.15933	0.1858	89.27	-0.268	0.0917	0.3596	1162.2229	0.206932	-351.082492	-351.074141	-351.073196	-351.115153	34.073	
C	-0.0573872219	 1.6342930231	 0.5350053567	-0.467915
C	-0.0326545367	 0.1483120065	 0.1503801216	 0.36848
C	-1.4811950145	-0.3043146771	-0.0315048611	-0.066785
C	-2.3935469425	 0.3729462244	-1.0309833556	-0.275839
C	-2.0178629238	-1.0715475011	-1.2160146015	-0.26874
C	 1.0599190107	-0.3884128122	-0.8538419134	-0.089615
C	 2.1371100813	-0.1354375828	 0.2410362414	-0.241015
C	 0.9306160332	-0.7911903178	 0.9764568908	-0.079796
C	 0.8905562759	-1.7996389709	-0.204703379	-0.226038
H	 0.9069350627	 2.0338799538	 0.8501302896	 0.11147
H	-0.4162385287	 2.2486283746	-0.2966915341	 0.114591
H	-0.7584788672	 1.7838026144	 1.3642740092	 0.112131
H	-1.9649302654	-0.5381356719	 0.9156888284	 0.081839
H	-3.4049844658	 0.6201955929	-0.7274609948	 0.107021
H	-1.9524451316	 1.0883058541	-1.7174395615	 0.109337
H	-1.3371639816	-1.3064704054	-2.0269824615	 0.115752
H	-2.7669647639	-1.8358413206	-1.0361381645	 0.107458
H	 1.1453577678	-0.1579023973	-1.9186136154	 0.061462
H	 3.0334690892	-0.7566840036	 0.1679869572	 0.086904
H	 2.4045317173	 0.8925519022	 0.4788115382	 0.090595
H	 0.8543529895	-1.021681971	 2.0419514636	 0.060214
H	-0.0372990468	-2.3389905289	-0.3761072576	 0.10521
H	 1.7563366429	-2.4615128954	-0.2905584467	 0.083279
86.208	152.1057	165.8006	227.1727	285.8093	370.3266	410.2354	434.8899	555.3634	583.3857	636.6138	759.9169	792.2047	803.7675	826.1728	860.1571	869.3796	896.4049	898.4849	924.8772	977.4453	1005.7134	1011.8743	1023.5855	1058.7458	1069.3763	1073.2555	1091.6191	1102.3032	1109.678	1137.2977	1145.2349	1176.3434	1185.9723	1193.3503	1205.8891	1210.8006	1238.0423	1244.6873	1252.0819	1293.0299	1389.3775	1413.9042	1470.5448	1485.989	1494.238	1507.0783	1514.0368	1549.7733	3037.2498	3065.6187	3066.676	3075.4888	3087.904	3091.1141	3111.8013	3126.1528	3127.4496	3132.2128	3149.9748	3167.7052	3203.4192	3219.3584
CC1(C2CC2)C2CC1C2	C[C@@]1(C2CC2)[C@H]2C[C@@H]1C2	
InChI=1S/C9H14/c1-9(6-2-3-6)7-4-8(9)5-7/h6-8H,2-5H2,1H3	InChI=1S/C9H14/c1-9(6-2-3-6)7-4-8(9)5-7/h6-8H,2-5H2,1H3/t7-,8+,9-
