16
gdb 10644	2.6695	1.85515	1.35271	4.5002	66.25	-0.2424	0.0144	0.2567	951.7026	0.129385	-379.894882	-379.886198	-379.885254	-379.927895	31.022	
C	 0.0743717096	 1.2447296182	-0.2728508852	-0.261579
O	-0.0706391661	-0.0700187338	 0.2539441167	-0.277867
C	-1.3420256725	-0.6117669441	 0.1016262335	 0.267385
C	-1.7182613513	-1.2011239572	-1.2545336192	-0.356841
C	-1.3826454691	-2.112886978	-0.0892125591	-0.025062
N	-0.1492692227	-2.8335966224	 0.039260795	-0.523219
C	-2.3744305327	 0.0262577411	 0.8931276001	 0.259235
N	-3.1936688707	 0.5548838454	 1.5155097183	-0.349643
H	 1.1140632628	 1.5307817233	-0.1061176756	 0.139635
H	-0.146158748	 1.2693921613	-1.3479919964	 0.118028
H	-0.5845335353	 1.9531432613	 0.243923025	 0.141725
H	-2.7467929499	-1.1178510659	-1.5870979096	 0.135651
H	-0.9628942817	-1.0795665972	-2.0238529949	 0.126372
H	-2.2320580891	-2.6072584991	 0.3746076456	 0.124139
H	-0.0563487033	-3.5218842465	-0.7004948119	 0.235536
H	 0.63345965	-2.1915689665	-0.0272561922	 0.246505
103.8527	145.323	162.8182	186.7583	204.6232	207.2727	312.4253	376.7459	430.5591	505.5097	575.1949	628.9207	669.5298	806.8648	843.9923	910.1365	936.9963	988.8569	1039.1862	1084.7	1098.1568	1174.6297	1184.3923	1216.3038	1239.1312	1288.5495	1290.2509	1417.3828	1465.1803	1478.9428	1488.3328	1507.6696	1647.7474	2347.4643	3009.607	3073.6255	3134.506	3138.9576	3146.2768	3231.8968	3505.1168	3589.0369
COC1(CC1N)C#N	CO[C@]1(C[C@H]1N)C#N	
InChI=1S/C5H8N2O/c1-8-5(3-6)2-4(5)7/h4H,2,7H2,1H3	InChI=1S/C5H8N2O/c1-8-5(3-6)2-4(5)7/h4H,2,7H2,1H3/t4-,5-/m1/s1
