21
gdb 99847	1.71827	1.46804	1.18855	1.9535	80.22	-0.2579	0.0235	0.2814	1224.8655	0.17851	-424.191444	-424.180507	-424.179563	-424.22684	40.791	
C	-0.1962165273	 1.4919077092	 0.0245834366	-0.406158
C	 0.0419839993	-0.0198137846	-0.0819674245	 0.038724
C	 0.7535941345	-0.3738072678	-1.3941093222	-0.416091
C	 0.7871849749	-0.5657662796	 1.1672390742	 0.12353
O	-0.0573582691	-0.2425384766	 2.2950764494	-0.471305
C	 0.9197062163	-2.11135149	 1.1572138383	-0.081586
O	-0.3483613873	-2.7221623625	 1.1260467425	-0.421139
C	 2.1137795131	 0.0317715876	 1.3348327824	 0.316187
C	 3.2173257005	 0.4760073849	 1.5131820993	-0.46937
H	 0.7503423109	 2.0418482606	-0.0138827147	 0.118268
H	-0.8163532421	 1.8343726512	-0.8096278752	 0.107295
H	-0.7011215322	 1.7459216255	 0.9581582267	 0.128245
H	-0.9271023726	-0.5304193707	-0.0675320809	 0.091473
H	 1.7748114273	 0.0221070242	-1.4103782502	 0.122593
H	 0.7999898512	-1.452624654	-1.5645553812	 0.123951
H	 0.2133817622	 0.0659864943	-2.2379839178	 0.115201
H	 0.4957982855	-0.243723617	 3.0841000564	 0.287581
H	 1.4771032455	-2.4535601493	 0.282515068	 0.120277
H	 1.4932848488	-2.4039233248	 2.0519242432	 0.08211
H	-0.8635344955	-2.2766095877	 1.8118518274	 0.28728
H	 4.187855936	 0.8831246271	 1.6587038222	 0.202935
59.4677	125.8395	136.2306	158.8585	208.0247	228.5887	256.3841	272.5219	291.6357	346.7971	370.7856	402.7429	456.8628	492.9899	529.9373	580.5378	605.295	635.5861	673.063	693.3739	871.1796	926.0775	939.4695	968.2967	993.3329	1053.8166	1086.269	1094.0772	1154.7906	1167.469	1201.0363	1222.4154	1326.652	1349.666	1358.3352	1391.2813	1399.203	1422.3636	1429.9974	1488.9333	1492.3439	1498.4026	1511.2508	1519.6675	2225.3723	2971.0263	3036.7497	3040.8882	3053.3002	3100.5258	3104.4691	3107.6723	3116.915	3136.1827	3497.5347	3764.1941	3809.9524
CC(C)C(O)(CO)C#C	CC(C)[C@@](O)(CO)C#C	
InChI=1S/C7H12O2/c1-4-7(9,5-8)6(2)3/h1,6,8-9H,5H2,2-3H3	InChI=1S/C7H12O2/c1-4-7(9,5-8)6(2)3/h1,6,8-9H,5H2,2-3H3/t7-/m0/s1
