22
gdb 94674	2.18271	1.70432	1.28432	0.4893	81.86	-0.2239	0.0756	0.2995	1113.0247	0.194159	-404.350692	-404.341359	-404.340414	-404.383918	36.565	
C	-0.0907366251	 1.5261876464	 0.0643830539	-0.496603
C	 0.2195514162	 0.0548123072	-0.0108133966	 0.308222
C	 0.7150291038	-0.5224777835	-1.3304358389	-0.247206
C	 1.176296786	-1.9509834128	-0.9689429656	-0.251567
C	 1.6452866691	-1.8612991361	 0.4984674138	 0.084879
O	 2.9963206108	-1.4109429518	 0.6101003175	-0.447185
C	 0.7839499881	-0.7591690028	 1.105017443	 0.300735
C	 1.1407520376	-0.2512366762	 2.4768697209	-0.503723
N	-0.6376447074	-0.9275431034	 0.7082318434	-0.433424
H	 0.7669138418	 2.1240592938	-0.263522159	 0.124893
H	-0.9367241543	 1.7782944944	-0.5860140483	 0.122354
H	-0.3494121907	 1.8398714164	 1.0802710567	 0.112974
H	-0.0584516722	-0.5175685735	-2.1055821075	 0.094681
H	 1.554412469	 0.0833520314	-1.690817871	 0.100637
H	 0.3365459257	-2.645279748	-1.0379699254	 0.119235
H	 1.9745233671	-2.3203463038	-1.620252035	 0.079435
H	 1.5148680673	-2.8164996538	 1.0290254118	 0.060288
H	 3.5627787082	-2.0852361904	 0.2237137365	 0.282467
H	 2.1975841245	 0.0225626162	 2.5193667053	 0.145035
H	 0.5430353908	 0.6222589235	 2.7542176113	 0.107891
H	 0.9649917831	-1.0269418155	 3.232019513	 0.118032
H	-1.2118966896	-0.4222053876	 1.3812340103	 0.217948
113.294	174.1572	187.8691	199.7553	249.4875	269.8395	278.2153	332.3296	404.1032	428.7071	465.778	478.7152	560.5399	642.5778	695.9291	758.2837	810.6908	871.2899	905.6862	921.3073	971.6932	982.4983	1018.1918	1034.2341	1042.8674	1095.3798	1105.6519	1121.2455	1129.9901	1201.1462	1228.663	1235.8107	1284.5345	1292.3039	1331.9501	1353.8908	1366.3732	1409.639	1415.7627	1429.357	1444.3063	1470.5455	1478.5136	1487.114	1494.13	1494.5098	1513.365	2987.3043	3024.6705	3031.7563	3037.5022	3060.3856	3077.7558	3084.6833	3091.6074	3102.2181	3116.3555	3126.2382	3474.588	3828.6093
CC12CCC(O)C1(C)N2	C[C@@]12CC[C@@H](O)[C@]1(C)N2	
InChI=1S/C7H13NO/c1-6-4-3-5(9)7(6,2)8-6/h5,8-9H,3-4H2,1-2H3	InChI=1S/C7H13NO/c1-6-4-3-5(9)7(6,2)8-6/h5,8-9H,3-4H2,1-2H3/t5-,6-,7+/m1/s1
