16
gdb 67170	3.03137	1.5412	1.48713	4.5578	68.22	-0.227	0.0063	0.2333	954.1805	0.12531	-437.872165	-437.864998	-437.864054	-437.903532	28.291	
C	-0.0373889618	 1.5603878558	-0.0164727645	-0.518772
C	 0.0161882494	 0.0642188917	-0.008189573	 0.252375
C	 0.0277165926	-0.8761919539	-1.1869763598	-0.097082
N	 1.2232184491	-1.6674376245	-1.137925964	-0.318522
C	 1.7582022577	-1.6951332064	 0.1397353216	 0.446809
O	 2.725584595	-2.3135386546	 0.5131665144	-0.377203
C	 0.7537844768	-0.8814002918	 0.9720834968	-0.106654
O	-0.414344875	-1.7799535177	 1.0157675252	-0.295151
C	-1.0002877245	-1.0501420998	-0.0509347814	 0.033691
H	 0.9463513194	 1.9911342781	-0.2345928571	 0.135186
H	-0.7316937619	 1.9171345722	-0.7838926547	 0.127895
H	-0.3733358505	 1.9544532477	 0.948462473	 0.132754
H	-0.303714449	-0.5250777023	-2.1567818595	 0.110173
H	 1.3940191031	-2.4424970662	-1.7603855707	 0.256555
H	 1.075061974	-0.5619273542	 1.9609808873	 0.10312
H	-2.0771634443	-1.0899111339	-0.1712272638	 0.114826
143.5276	187.7435	233.5139	274.7585	361.3534	453.2546	477.7411	565.3029	580.2544	648.249	736.0105	765.6713	803.1712	854.536	877.1109	894.4967	923.1836	960.2803	988.4703	1044.4444	1059.5003	1092.4306	1131.9603	1190.7316	1196.3918	1223.7485	1251.6259	1274.4838	1334.3627	1381.9501	1418.4687	1473.2797	1485.0795	1498.4865	1842.9209	3029.2255	3093.0155	3102.7991	3151.0565	3178.9748	3193.3005	3628.0038
CC12C3NC(=O)C1OC23	C[C@@]12[C@H]3NC(=O)[C@@H]1O[C@@H]23	
InChI=1S/C6H7NO2/c1-6-2-3(6)9-4(6)5(8)7-2/h2-4H,1H3,(H,7,8)	InChI=1S/C6H7NO2/c1-6-2-3(6)9-4(6)5(8)7-2/h2-4H,1H3,(H,7,8)/t2-,3+,4-,6-/m0/s1
