15
gdb 33999	3.36652	1.41202	1.19265	3.2184	70.54	-0.2689	0.0012	0.2701	1023.7235	0.114136	-416.81089	-416.803558	-416.802613	-416.84296	27.602	
N	 0.2312607399	-1.1795318609	-0.1917498669	-0.33412
C	 0.1362790331	-0.0360114424	-0.0517835034	 0.258964
C	 0.0485002436	 1.3946669987	 0.092708573	 0.272146
C	 0.2148135368	 2.2875760504	-1.1201157953	-0.327711
C	 1.2886775249	 2.2499040732	-0.0651956815	-0.114255
C	 1.4577181315	 3.3868598286	 0.9296812769	-0.181108
N	 0.3328876089	 3.629840634	 1.8201348811	-0.257129
C	-0.657253147	 2.8530590602	 1.823489328	 0.118476
O	-0.9154407156	 1.7546254415	 1.0530923115	-0.25817
H	 0.4022833904	 1.8140882888	-2.0762961615	 0.147517
H	-0.4457963983	 3.148269329	-1.1481296569	 0.14622
H	 2.1955667809	 1.7125528798	-0.3208895365	 0.126862
H	 2.3300669465	 3.1764133877	 1.5595717241	 0.135356
H	 1.6830705869	 4.3239251802	 0.4051802283	 0.127462
H	-1.4936825727	 3.0066250612	 2.5007280791	 0.13949
86.6621	140.309	173.8342	306.4773	384.5865	433.218	495.992	550.6136	569.3075	600.4758	664.7384	779.7679	875.4097	888.917	921.1457	938.257	956.5463	982.1678	1050.8654	1068.2428	1093.3912	1129.4531	1163.0187	1244.0015	1260.6164	1282.1864	1366.9834	1403.1979	1413.6519	1471.0242	1486.1549	1750.4795	2360.7449	3026.3371	3056.2634	3139.0262	3171.2604	3178.5055	3235.9657
N#CC12CC1CN=CO2	N#C[C@]12C[C@H]1CN=CO2	
InChI=1S/C6H6N2O/c7-3-6-1-5(6)2-8-4-9-6/h4-5H,1-2H2	InChI=1S/C6H6N2O/c7-3-6-1-5(6)2-8-4-9-6/h4-5H,1-2H2/t5-,6+/m0/s1
