16
gdb 104963	2.21577	1.60763	1.07668	4.1512	71.46	-0.2767	-0.0875	0.1893	1117.1588	0.121621	-437.877706	-437.86849	-437.867546	-437.912103	32.572	
C	-1.3203058825	-0.0180911055	 0.0625817198	-0.263834
O	 0.1011752644	 0.0312154604	-0.0277982871	-0.282789
C	 0.6476501495	-0.6903744146	-1.0764433009	 0.303202
C	 1.8779101912	-1.5272797153	-0.750981744	-0.284395
C	 0.5918131558	-2.2119422895	-1.0770994034	-0.310357
C	 0.6837430164	-0.0168664651	-2.4055163352	 0.228047
O	 1.0780929817	-0.5321354068	-3.42553403	-0.294182
C	 0.2266641934	 1.3910501515	-2.4206647392	 0.256664
N	-0.1345137684	 2.4870943596	-2.4916539265	-0.319035
H	-1.8007171425	 0.4110425616	-0.8250288206	 0.128561
H	-1.6759484062	-1.0468488434	 0.2006172964	 0.116568
H	-1.5926479076	 0.5791612044	 0.9341234151	 0.144035
H	 2.6695184551	-1.5347021284	-1.490670268	 0.146558
H	 2.186697982	-1.4800563935	 0.2863036946	 0.144632
H	 0.0337861186	-2.6599965406	-0.2636105847	 0.136377
H	 0.4944196091	-2.6905936449	-2.0444925462	 0.149949
50.4035	124.4191	131.1316	180.191	226.4957	252.502	266.228	314.4668	358.545	470.2085	488.0007	568.5275	686.4776	751.1811	779.7811	838.268	897.5203	953.139	975.6798	1049.3517	1087.4102	1092.8465	1095.3842	1182.2827	1204.7237	1220.211	1297.7171	1325.046	1440.9592	1469.2449	1482.2502	1493.5356	1501.9484	1770.7496	2339.3486	3013.8853	3076.0295	3139.9292	3146.9996	3149.3284	3239.5474	3253.7109
COC1(CC1)C(=O)C#N	COC1(CC1)C(=O)C#N	
InChI=1S/C6H7NO2/c1-9-6(2-3-6)5(8)4-7/h2-3H2,1H3	InChI=1S/C6H7NO2/c1-9-6(2-3-6)5(8)4-7/h2-3H2,1H3
