16
gdb 50953	1.90864	1.34391	0.86288	3.4703	78.08	-0.2555	0.0163	0.2719	1312.5141	0.120943	-400.699945	-400.690068	-400.689124	-400.735583	34.912	
O	-0.0299034339	 0.1903287158	-0.8802913652	-0.315857
C	 0.0077792442	 1.2489827453	-0.294050759	 0.167057
N	 1.127799032	 1.810628994	 0.243835328	-0.266802
C	 2.4295542119	 1.1608104516	 0.1925814644	-0.17022
C	 3.4616541185	 1.9934099569	-0.6239718472	-0.361276
C	 3.0408229307	 2.2315691029	-1.9963145627	 0.303836
C	 2.6811553606	 2.4176195945	-3.1272752385	-0.433208
C	 2.9480615686	 0.9000025578	 1.5364963876	 0.309724
C	 3.3968236014	 0.7264488844	 2.6375292219	-0.422601
H	-0.8830796385	 1.8864272281	-0.1325953125	 0.082081
H	 1.0388271537	 2.6676210846	 0.7672288874	 0.253265
H	 2.2508833821	 0.2155076589	-0.3296923638	 0.164689
H	 3.6329029497	 2.9452897203	-0.1061200036	 0.134117
H	 4.4174982662	 1.4577722196	-0.6043872857	 0.149952
H	 2.3663799093	 2.5765930852	-4.1289037909	 0.201039
H	 3.7824524836	 0.5475148698	 3.6110300299	 0.204206
44.1082	72.0966	109.9151	143.2597	187.3359	219.4795	285.2728	346.6767	372.7022	491.2714	515.3115	522.9642	556.7973	626.8592	643.2045	651.8356	665.9237	758.1316	867.0314	961.8156	1006.9722	1027.3143	1044.6941	1067.5284	1187.9947	1238.1427	1293.7784	1345.124	1360.5008	1428.0561	1466.6255	1520.0757	1808.469	2238.1283	2244.3397	2946.6462	3031.7189	3067.4954	3082.504	3501.8794	3506.229	3631.5658
O=CNC(CC#C)C#C	O=CN[C@@H](CC#C)C#C	
InChI=1S/C7H7NO/c1-3-5-7(4-2)8-6-9/h1-2,6-7H,5H2,(H,8,9)	InChI=1S/C7H7NO/c1-3-5-7(4-2)8-6-9/h1-2,6-7H,5H2,(H,8,9)/t7-/m1/s1
