20
gdb 77740	2.2794	2.05141	1.38902	1.1863	85.53	-0.205	-0.0384	0.1666	1013.9503	0.17004	-365.89753	-365.889342	-365.888398	-365.929582	32.686	
C	 0.2977266426	 1.5354287586	-0.3091025683	-0.416342
C	 0.0447477629	 0.0638453509	-0.0401207905	-0.053701
C	 0.8399185444	-1.0277950829	-0.7758219716	 0.007316
C	 2.1144314913	-0.726127468	-1.0927899897	-0.120142
C	 2.9829009504	-1.1469355674	 0.0877665817	-0.179796
N	 1.9960033721	-1.4168739667	 1.1751732531	-0.163853
C	 0.8301050695	-1.9270876519	 0.4802008471	-0.137762
C	 0.6411414592	-0.6816522	 1.2475513154	 0.302028
C	 0.1073628714	-0.4509297587	 2.6331326976	-0.474817
H	 1.3646570512	 1.7752289481	-0.2731272292	 0.115906
H	-0.0803479067	 1.8268946079	-1.2949239418	 0.125095
H	-0.2184077863	 2.1518119113	 0.4349424471	 0.118404
H	-1.0358871916	-0.1273075155	 0.0139686761	 0.083059
H	 2.3915615851	 0.1334171363	-1.6952863642	 0.099926
H	 3.5949148219	-2.0530529363	-0.0155512276	 0.115331
H	 3.6582880604	-0.3211037689	 0.3424740012	 0.11452
H	 0.4368412154	-2.9298175937	 0.6091727203	 0.086858
H	 0.4308379443	-1.2478128617	 3.3063360575	 0.13805
H	 0.4628258399	 0.5022409535	 3.0402302514	 0.123422
H	-0.9882407375	-0.4215650547	 2.6214806144	 0.116499
160.7874	178.0567	197.9856	211.5043	258.7427	327.4597	363.2311	448.5016	542.1498	555.3018	596.7711	679.8326	700.0531	784.9505	836.9226	844.1471	859.9811	896.2772	940.6639	971.9136	1006.7816	1032.6377	1034.7459	1069.0018	1082.3523	1093.1114	1124.4271	1174.1482	1188.2298	1199.5447	1207.6628	1278.4016	1301.8026	1364.3022	1392.9959	1404.5635	1414.6005	1476.7727	1482.0717	1487.115	1491.8947	1495.9811	1583.9013	3006.4611	3012.5878	3029.759	3032.3169	3058.2313	3087.629	3095.8635	3107.5671	3126.3471	3167.6257	3172.3455
CC1C2=CCN3C2C13C	C[C@H]1[C]2[CH]CN3[C@H]2[C@]13C	
InChI=1S/C8H11N/c1-5-6-3-4-9-7(6)8(5,9)2/h3,5,7H,4H2,1-2H3	InChI=1S/C8H11N/c1-5-6-3-4-9-7(6)8(5,9)2/h3,5,7H,4H2,1-2H3/t5-,7+,8-,9?/m0/s1
