14
gdb 21239	3.4873	1.91729	1.25665	3.1968	61.61	-0.2312	-0.0344	0.1968	924.9728	0.105795	-415.832166	-415.824333	-415.823389	-415.865038	26.815	
C	 0.0871642683	 1.4398856916	-0.0015277417	-0.246064
O	 0.0595157577	 0.0122175184	 0.0286498469	-0.271863
C	 0.5887944473	-0.6074049668	-1.0354972532	 0.275942
C	 0.6834144787	-1.9537119268	-1.2474487457	 0.296926
C	 0.2756014879	-3.1399218375	-0.4568336061	-0.498289
O	 1.2805854635	-2.1115155289	-2.4384678744	-0.202929
N	 1.552056746	-0.8284506785	-2.9561564635	-0.026162
N	 1.1370416116	 0.0266065367	-2.1153179608	-0.209321
H	 1.1150216704	 1.8121777499	-0.0582428979	 0.140957
H	-0.4759101601	 1.8260841215	-0.8571660655	 0.140938
H	-0.3778034395	 1.7635291712	 0.9300036316	 0.136768
H	-0.4427771969	-3.7564565333	-1.0072239765	 0.153723
H	 1.1371411505	-3.7704477919	-0.2133088221	 0.153723
H	-0.1894144555	-2.8102648057	 0.4743935089	 0.15565
57.9305	108.6195	179.436	189.1381	238.5357	296.6732	358.2833	522.0532	630.3289	662.4625	726.0168	742.2057	756.999	989.2925	1031.9469	1059.4689	1065.1062	1180.1551	1190.2466	1224.0663	1277.6046	1399.3301	1415.0286	1435.8692	1477.1575	1484.2243	1484.7467	1497.7704	1502.1627	1689.5867	3035.3775	3040.1984	3096.185	3104.241	3138.4557	3151.9312
COC1=C(C)ON=N1	COc1c(C)onn1	
InChI=1S/C4H6N2O2/c1-3-4(7-2)5-6-8-3/h1-2H3	InChI=1S/C4H6N2O2/c1-3-4(7-2)5-6-8-3/h1-2H3
