14
gdb 49918	3.28182	1.10382	0.94624	4.5696	66.84	-0.2663	-0.0592	0.2071	1201.4	0.099284	-473.865407	-473.857015	-473.856071	-473.899517	28.512	
O	-0.6350884749	 0.906555097	-0.6727442663	-0.227947
C	 0.1593104	 0.9829684252	 0.228060619	 0.150414
C	 1.3891249561	 1.8617627058	 0.195490052	-0.262931
C	 1.5619143478	 2.7693152151	-1.0436059708	-0.195785
N	 1.3922369818	 3.9408082217	-0.1536749643	-0.126893
C	 1.3928336488	 5.300661775	-0.4274489177	 0.156435
O	 1.2510214991	 6.1679141309	 0.3911102169	-0.259474
C	 1.2403376803	 3.1829088481	 1.0198857289	 0.428133
O	 1.0678358601	 3.46197697	 2.1632825404	-0.300046
H	 0.0278417409	 0.4167823957	 1.1729743257	 0.11129
H	 2.2690639111	 1.2928830952	 0.5080857241	 0.137332
H	 2.5432489253	 2.7245535176	-1.52001221	 0.134699
H	 0.7633051673	 2.6553673077	-1.778217604	 0.158449
H	 1.5435691764	 5.485199685	-1.5098333938	 0.096324
52.688	103.8724	151.571	174.6827	202.0757	222.541	295.8961	461.9459	500.535	627.5249	687.2787	755.7311	788.2899	870.4974	964.503	1025.2035	1032.2612	1057.3416	1078.8167	1134.5227	1170.6621	1177.3829	1263.1644	1319.6949	1368.8603	1416.8619	1433.2044	1513.5523	1813.9609	1821.325	1919.4423	2927.1811	2938.8171	3076.769	3090.8177	3141.3336
O=CC1CN(C=O)C1=O	O=C[C@H]1CN(C=O)C1=O	
InChI=1S/C5H5NO3/c7-2-4-1-6(3-8)5(4)9/h2-4H,1H2	InChI=1S/C5H5NO3/c7-2-4-1-6(3-8)5(4)9/h2-4H,1H2/t4-/m1/s1
