16
gdb 67062	3.13437	0.98805	0.80735	3.3348	73.16	-0.2242	-0.0433	0.1809	1358.2304	0.121914	-437.881862	-437.872593	-437.871649	-437.917299	32.512	
N	 1.7220578462	 0.6871891083	-0.8368632319	-0.563752
C	 0.5585947309	 0.4888606185	-0.0072545108	-0.136081
C	-0.6703754275	-0.1080969164	-0.6241776125	-0.025726
C	-0.5917015392	-1.6034688574	-1.0947688145	-0.342523
C	-1.9273923227	-1.8382486733	-0.3742207332	 0.405745
C	-1.8725699741	-0.4601918981	 0.3083653664	-0.385715
O	-2.7359668966	-2.7188504318	-0.3894982193	-0.286037
C	 0.6204533795	 0.8486805785	 1.2608361585	 0.449981
O	 0.7248039644	 1.1763917434	 2.3774584402	-0.241813
H	 1.9704549698	 1.6638071608	-0.9486476623	 0.248337
H	 2.5373477326	 0.1841837662	-0.5066392259	 0.248436
H	-0.9992362904	 0.5225029297	-1.4576001032	 0.09494
H	-0.5770751786	-1.8052424856	-2.1681678893	 0.132555
H	 0.2248122125	-2.1582960974	-0.6204756317	 0.128899
H	-1.5965510586	-0.5550465954	 1.3653548522	 0.138428
H	-2.7733133083	 0.1537931502	 0.2401666373	 0.134328
47.4718	51.7574	123.6471	128.8106	173.7783	250.3449	366.5669	398.6581	433.1397	498.5978	562.0403	599.3157	667.3725	699.2566	721.3659	757.0187	879.431	926.7334	973.3981	1005.4951	1047.1185	1103.0027	1169.5051	1191.417	1197.7522	1224.8538	1231.8604	1263.7506	1349.4042	1379.1026	1425.049	1444.668	1652.0577	1896.6208	2196.9823	3039.2077	3047.3213	3058.0632	3116.9956	3120.5144	3507.5807	3586.9283
NC12C3CC1(C3)OC2=O	N[C](C1CC(=O)C1)[C][O]	
InChI=1S/C6H7NO2/c7-6-3-1-5(6,2-3)9-4(6)8/h3H,1-2,7H2	InChI=1S/C6H7NO2/c7-6(3-8)4-1-5(9)2-4/h4H,1-2,7H2
