17
gdb 45193	3.51263	1.5954	1.34991	3.1848	73.88	-0.2514	0.0097	0.2612	960.2433	0.13903	-417.927465	-417.920942	-417.919998	-417.958168	27.15	
N	 0.0429136075	 1.2378038363	 0.3157682275	-0.554495
C	 0.0082361687	 0.0213829623	 0.0323913595	 0.302852
O	 1.0481941973	-0.8700860756	-0.3253495071	-0.293243
C	 0.04117197	-1.7925507783	-0.9088090731	 0.120727
C	-0.3334658697	-3.270637877	-0.654995698	-0.305596
C	-1.6770870532	-2.9504254687	 0.1220508139	-0.016327
C	-1.1000043956	-2.0235140044	 1.2031108322	-0.215473
C	-0.9962007688	-1.1108135939	-0.0468873745	 0.250447
N	-2.3134536236	-1.6804555768	-0.4545619801	-0.400391
H	 0.9949660078	 1.6055074761	 0.2736828335	 0.236046
H	-0.0246216775	-1.5392940476	-1.9706393449	 0.093911
H	-0.4687186372	-3.8086234268	-1.5963596713	 0.10801
H	 0.3507267334	-3.8433871103	-0.0255909308	 0.128944
H	-2.3583399219	-3.7737187473	 0.3349827299	 0.086045
H	-1.8530666631	-1.6396634009	 1.8896345883	 0.128647
H	-0.1806941358	-2.3130985002	 1.7112858836	 0.113131
H	-2.4246950683	-1.6968553569	-1.4694124685	 0.216763
148.6778	246.8508	272.7475	415.2688	452.4865	552.5849	602.5035	644.8048	676.8903	691.0024	784.0147	798.5041	818.7193	870.0226	887.8081	895.9344	945.218	957.0374	1008.3011	1028.627	1057.5199	1062.9771	1099.7748	1120.4132	1137.8852	1185.8825	1202.6443	1220.6441	1259.7017	1272.0337	1288.9664	1300.2618	1337.3164	1401.4799	1477.3841	1499.2186	1828.8745	3057.6911	3074.7873	3097.8886	3124.8188	3128.1565	3172.5953	3441.6395	3478.4272
N=C1OC2CC3CC12N3	[NH][C]1O[C@H]2C[C@H]3C[C@@]12N3	
InChI=1S/C6H8N2O/c7-5-6-2-3(8-6)1-4(6)9-5/h3-4,7-8H,1-2H2	InChI=1S/C6H8N2O/c7-5-6-2-3(8-6)1-4(6)9-5/h3-4,7-8H,1-2H2/t3-,4-,6-/m0/s1
