15
gdb 129779	3.39873	1.53732	1.07505	5.4603	68.3	-0.2145	0.0217	0.2362	1052.0014	0.115054	-453.933909	-453.926581	-453.925636	-453.965894	27.726	
N	 0.0882585749	 1.4128458778	 0.0193221522	-0.594783
C	-0.0733669221	 0.0488372193	-0.0004012254	 0.314634
C	-1.1434332344	-0.7855372071	-0.0973178263	 0.042993
C	-2.622538253	-0.9551383754	-0.2441607629	-0.406192
C	-2.7266272506	-2.5185445648	-0.1589285753	-0.084702
O	-1.3881328186	-3.0822132701	-0.2734757792	-0.267743
C	-0.5327137831	-2.0550289007	-0.1466888207	 0.49085
N	 0.7697114975	-2.0758895498	-0.0805463129	-0.296239
O	 1.0687802383	-0.6722406358	 0.021215594	-0.228978
H	 0.9844081322	 1.7114053068	 0.3786855449	 0.268417
H	-0.6830296771	 1.9263393488	 0.4183868779	 0.263689
H	-3.2204356962	-0.488413211	 0.5452936475	 0.118338
H	-3.0025103759	-0.5850121159	-1.2035244082	 0.126502
H	-3.1362726508	-2.8367263371	 0.8048521202	 0.125086
H	-3.3303675709	-2.9513360949	-0.9589196456	 0.128128
83.3145	188.7349	216.7161	269.7052	301.862	391.798	551.7156	577.5725	609.5624	649.6283	670.7443	737.2129	773.4879	788.9005	846.6833	901.1999	936.6983	1008.1022	1040.9665	1077.2817	1119.1589	1206.8376	1238.5064	1247.9751	1303.3586	1350.5712	1394.2564	1486.0954	1508.5363	1520.1626	1610.1549	1644.871	1739.5663	3030.6127	3052.7394	3068.4397	3117.358	3568.2885	3673.6264
NC1=C2CCOC2=NO1	Nc1c2CCOc2no1	
InChI=1S/C5H6N2O2/c6-4-3-1-2-8-5(3)7-9-4/h1-2,6H2	InChI=1S/C5H6N2O2/c6-4-3-1-2-8-5(3)7-9-4/h1-2,6H2
