17
gdb 18686	3.07701	2.31078	1.47079	3.8305	68.11	-0.2342	0.0243	0.2585	857.1063	0.145651	-363.896429	-363.889637	-363.888693	-363.927451	26.541	
O	 0.0291496507	 0.001499366	-0.3999557302	-0.378584
C	 0.0239375967	 1.1777001537	-0.0877306257	 0.383027
N	-1.1357728439	 1.8488999414	 0.2228860483	-0.314787
C	-1.2574152202	 3.3032585759	 0.1423468425	-0.159844
C	-0.1366364191	 3.974647816	 0.9383535377	-0.216605
C	 1.2317741872	 3.407245021	 0.5608587343	-0.043222
C	 1.8312922369	 2.31344889	 1.3986248333	-0.278602
C	 1.2802469957	 1.9904517237	 0.0223534658	-0.115925
H	-1.9653874804	 1.2981322906	 0.0507635103	 0.242852
H	-1.2285717694	 3.6442523595	-0.90409952	 0.107085
H	-2.2345479777	 3.5850233311	 0.5460556421	 0.111064
H	-0.1614205353	 5.0525379187	 0.7515127253	 0.105982
H	-0.3248467472	 3.8324984185	 2.0080625514	 0.111237
H	 1.9264966152	 4.1087312326	 0.1107444154	 0.091481
H	 2.9074843367	 2.2728620068	 1.5225814875	 0.119209
H	 1.2651915701	 1.9719423787	 2.2592662533	 0.124697
H	 2.0072640741	 1.7382982759	-0.7404618311	 0.110935
87.2691	208.5515	233.1656	386.6096	413.6096	447.1384	524.3002	597.2865	701.7768	735.7293	770.3025	786.5212	834.0551	911.2166	932.6013	961.8699	995.428	1036.7271	1068.8311	1091.8952	1123.1224	1130.4526	1147.513	1213.2001	1246.777	1261.0796	1306.7513	1367.2768	1376.4641	1391.3251	1409.704	1466.0513	1480.1355	1494.6123	1518.0076	1790.936	2983.1204	3042.1561	3077.3265	3087.9738	3132.3802	3157.3049	3184.8438	3221.4033	3598.7175
O=C1NCCC2CC12	O=C1NCC[C@H]2C[C@@H]12	
InChI=1S/C6H9NO/c8-6-5-3-4(5)1-2-7-6/h4-5H,1-3H2,(H,7,8)	InChI=1S/C6H9NO/c8-6-5-3-4(5)1-2-7-6/h4-5H,1-3H2,(H,7,8)/t4-,5+/m0/s1
