17
gdb 30786	3.42949	1.25215	0.92795	1.8311	72.63	-0.1729	0.0434	0.2163	1239.8248	0.135201	-455.163848	-455.154171	-455.153227	-455.199538	33.139	
C	-0.0250240293	 1.3899085597	 0.0452254105	-0.233603
O	-0.0004916237	-0.0283391204	 0.1291405185	-0.294502
C	-1.2138877997	-0.6363101699	 0.0597106092	 0.253484
C	-1.3963003372	-1.9941922596	 0.1223467899	 0.2376
O	-0.5591017028	-3.0568472157	 0.2557454881	-0.454447
N	-2.7521138217	-2.197052612	 0.0172413123	-0.043096
C	-3.4202715289	-3.4808433353	 0.0337940817	-0.334348
C	-3.3161418783	-0.9564556119	-0.1029154194	-0.023012
N	-2.4107681425	 0.0015511895	-0.0801893136	-0.361918
H	 1.0150875448	 1.713697606	 0.115673081	 0.119328
H	-0.4577087279	 1.7251742911	-0.9037688863	 0.128621
H	-0.6090322566	 1.8270703263	 0.8625719079	 0.128583
H	 0.3364387475	-2.7058088101	 0.3126786233	 0.313907
H	-3.2290745506	-4.0079085175	 0.9731839429	 0.148694
H	-4.4941121084	-3.3153940929	-0.068359128	 0.141492
H	-3.0768034763	-4.1099200869	-0.7927027858	 0.148698
H	-4.3822058584	-0.8242415504	-0.2023664321	 0.12452
28.0216	74.1488	131.4198	172.0989	187.1358	209.1834	250.7708	283.7134	351.2566	351.7882	548.0681	615.5166	636.4336	686.6053	713.7109	768.3935	777.51	1001.4442	1076.7543	1115.5411	1154.4912	1181.4659	1194.9385	1234.8573	1248.9233	1303.7169	1345.0406	1410.7701	1454.8195	1477.3995	1477.9609	1482.3827	1495.268	1507.2374	1529.181	1562.0885	1684.7525	3025.2894	3044.5723	3087.8618	3105.7966	3133.3443	3142.1938	3256.1562	3826.1528
COC1=C(O)N(C)C=N1	COc1c(O)n(C)cn1	
InChI=1S/C5H8N2O2/c1-7-3-6-4(9-2)5(7)8/h3,8H,1-2H3	InChI=1S/C5H8N2O2/c1-7-3-6-4(9-2)5(7)8/h3,8H,1-2H3
