19
gdb 103849	4.13106	0.95847	0.88989	2.515	72.11	-0.2605	0.0685	0.329	1342.4383	0.157031	-460.114174	-460.10481	-460.103865	-460.148624	34.235	
C	 0.1419349932	 1.5755067426	 0.064526828	-0.477137
C	-0.1458215109	 0.102616649	 0.233382817	 0.342369
C	-1.3733175223	-0.4118581574	-0.501017094	-0.112752
O	-1.2092871499	-0.3045100436	-1.9040488196	-0.414901
O	 0.9822347789	-0.7954735122	 0.0575783731	-0.298818
C	 0.3827233392	-0.7088307651	 1.3476431806	-0.03124
C	 1.2302519411	-0.2153255114	 2.4820811824	 0.043228
C	 2.677911067	-0.4743470069	 2.5123595267	-0.17272
O	 2.1628584761	 0.8337756364	 2.2549624771	-0.224109
H	 1.1327246609	 1.8246311143	 0.4393862434	 0.160286
H	 0.0697711778	 1.8332655214	-0.9960100388	 0.134877
H	-0.602801236	 2.1698936457	 0.6054455376	 0.117316
H	-1.5747481193	-1.4510481436	-0.2007392811	 0.088182
H	-2.2510784954	 0.1915017923	-0.2455924167	 0.11159
H	-0.411749042	-0.8009680005	-2.1227596158	 0.293586
H	-0.1939895517	-1.5930203766	 1.6365488679	 0.087594
H	 0.6962439015	-0.1490829906	 3.4318177858	 0.100584
H	 3.1869502589	-0.5966244859	 3.4665774065	 0.118117
H	 3.1357218028	-0.962267688	 1.6549806996	 0.13395
69.8457	87.347	137.473	173.711	228.4467	254.5289	284.7314	346.1245	389.3133	411.7543	445.8403	630.9243	656.4987	718.1977	785.9753	851.2176	896.9774	919.3843	942.5276	965.8323	1006.5209	1061.1835	1088.4645	1101.764	1122.776	1142.3047	1165.8618	1169.2097	1206.0981	1268.9198	1287.4605	1330.4622	1386.861	1414.1264	1424.2252	1427.6831	1470.0658	1491.9454	1500.0215	1510.4056	1519.8335	2991.258	3045.3009	3059.1739	3075.583	3093.3668	3100.2121	3107.8697	3176.6646	3191.7769	3794.3864
CC1(CO)OC1C1CO1	C[C@@]1(CO)O[C@H]1[C@H]1CO1	
InChI=1S/C6H10O3/c1-6(3-7)5(9-6)4-2-8-4/h4-5,7H,2-3H2,1H3	InChI=1S/C6H10O3/c1-6(3-7)5(9-6)4-2-8-4/h4-5,7H,2-3H2,1H3/t4-,5+,6+/m1/s1
