18
gdb 74922	2.81321	1.53931	1.34862	1.6672	77.04	-0.2091	0.0177	0.2268	1032.2453	0.148261	-401.893397	-401.885721	-401.884777	-401.925077	31.022	
C	 0.0733358	 1.4565134397	 0.0599723988	-0.503766
C	-0.058030733	-0.0289735121	-0.0384693543	 0.349529
C	-0.115870762	-0.7893754128	-1.1427087646	-0.160412
C	-0.0187663807	-2.2338170665	-0.7356025175	-0.17354
N	 1.4135006091	-2.4023793569	-0.1889585168	-0.310775
C	 0.8748544742	-2.1863665848	 1.1598320839	-0.135029
C	-0.0785836108	-0.9281489436	 1.1546391337	-0.185254
C	-0.5657312565	-2.2801460464	 0.751100938	 0.350105
O	-1.7080185557	-2.8530449726	 1.2612885515	-0.451767
H	 1.0283845139	 1.7373753158	 0.521590004	 0.131911
H	 0.023568825	 1.927788215	-0.9252366071	 0.123994
H	-0.7170853923	 1.8882611672	 0.6867919109	 0.123739
H	-0.0498877024	-0.439067503	-2.1651469135	 0.091703
H	-0.3111820555	-2.9978810731	-1.4553170992	 0.067542
H	 1.6378096505	-3.3947399476	-0.2553821235	 0.213012
H	 1.42674021	-2.4457786345	 2.0559101952	 0.097734
H	-0.3265265759	-0.565338001	 2.1462968267	 0.085806
H	-1.6080369378	-3.8114910127	 1.2373771839	 0.285469
148.4403	169.7134	248.5905	271.5853	348.4057	353.6495	445.3128	465.8878	562.5977	582.1857	630.9141	726.7534	743.9714	788.4761	837.4066	855.2386	915.4173	926.1236	956.8521	966.6135	1006.7452	1017.304	1061.4591	1069.3208	1081.9442	1134.0912	1162.5609	1171.2615	1196.394	1266.6855	1281.1835	1317.3957	1344.6944	1358.4287	1412.4643	1473.5971	1478.6549	1488.64	1682.1778	3018.1344	3064.8258	3111.7447	3120.1502	3177.392	3186.2711	3208.3704	3455.4137	3787.7234
CC1=CC2NC3C1C23O	CC1=C[C@H]2N[C@H]3[C@@H]1[C@@]23O	
InChI=1S/C7H9NO/c1-3-2-4-7(9)5(3)6(7)8-4/h2,4-6,8-9H,1H3	InChI=1S/C7H9NO/c1-3-2-4-7(9)5(3)6(7)8-4/h2,4-6,8-9H,1H3/t4-,5-,6+,7+/m1/s1
