20
gdb 65137	2.93916	1.44557	1.29755	1.5652	77.71	-0.2281	0.0841	0.3122	1077.0498	0.170775	-403.07677	-403.06841	-403.067466	-403.109683	32.355	
C	-0.0504106385	 1.5028012056	 0.0062696703	-0.454034
C	 0.0811892073	-0.0047874684	-0.0400213095	 0.369511
C	 1.1956535066	-0.6190748929	-0.7819137424	-0.220655
O	 1.2265939651	-0.5356160292	 0.6438309393	-0.267512
C	-1.2219182858	-0.7527479492	 0.0570396118	-0.054681
C	-1.5007764356	-2.0519323057	 0.699808149	-0.061579
C	-0.7226997687	-2.3025053573	 1.9903810474	-0.238276
C	-1.242074502	-0.9243233932	 2.4621225452	-0.157397
N	-2.1152528977	-0.753775394	 1.235497795	-0.172516
H	 0.9306414165	 1.9763211981	-0.0782462013	 0.125893
H	-0.6855132128	 1.8596174045	-0.8115049195	 0.125685
H	-0.5125612593	 1.8214804481	 0.9456277502	 0.138052
H	 1.0851838779	-1.6239737016	-1.1868248579	 0.11569
H	 1.9104453077	 0.0177745034	-1.3015179439	 0.11193
H	-1.8246034946	-0.576739579	-0.8351352669	 0.096914
H	-2.114019278	-2.7957664233	 0.1980349523	 0.090779
H	-1.1559934422	-3.1226470507	 2.5664817906	 0.102911
H	 0.3536113528	-2.4424891373	 1.9024691819	 0.124779
H	-1.8774887367	-0.9644762802	 3.3483640385	 0.108658
H	-0.4961179322	-0.1367272378	 2.5949281799	 0.115848
67.404	157.6558	185.9963	203.013	279.8502	327.1756	349.7149	394.9042	495.149	559.9153	745.2013	751.3455	772.9689	785.7392	801.9862	867.7392	888.8289	925.5273	966.272	973.4553	1012.3198	1026.2203	1050.0505	1075.1908	1106.2978	1129.5156	1136.781	1168.1192	1183.8952	1208.7608	1227.3195	1272.4496	1274.9582	1297.3289	1365.5339	1385.3977	1413.2947	1452.7893	1480.6573	1482.4174	1494.1419	1512.4053	1526.3195	3040.1234	3067.1694	3081.034	3081.1798	3097.7589	3106.2381	3118.8614	3126.6859	3142.8484	3148.512	3169.2819
CC1(CO1)C1C2CCN12	C[C@]1(CO1)[C@H]1[C@H]2CCN12	
InChI=1S/C7H11NO/c1-7(4-9-7)6-5-2-3-8(5)6/h5-6H,2-4H2,1H3	InChI=1S/C7H11NO/c1-7(4-9-7)6-5-2-3-8(5)6/h5-6H,2-4H2,1H3/t5-,6-,7+,8?/m1/s1
