23
gdb 65772	3.27309	0.94373	0.92543	2.9305	85.5	-0.2443	-0.0192	0.2251	1403.4452	0.205501	-388.321709	-388.312077	-388.311133	-388.357308	36.021	
C	-0.0947726977	 1.4997663045	 0.0420777111	-0.438292
C	 0.0210479498	-0.0325089203	-0.0466511532	 0.33155
C	-1.3937859152	-0.6513137971	-0.1813425989	-0.32936
C	-2.1267431682	-0.2431600906	-1.4390103291	 0.158221
O	-3.1900895824	 0.3240944539	-1.4625321601	-0.247705
C	 0.9598339442	-0.4424391063	-1.2234798116	-0.241197
C	 2.3440002792	-0.6353897507	-0.5872835937	-0.206721
C	 2.0091968436	-1.328173469	 0.7407366871	-0.195083
C	 0.7405879648	-0.5974031958	 1.2297618757	-0.254481
H	 0.895489187	 1.9624456681	 0.1090787671	 0.113702
H	-0.6022396146	 1.9205534134	-0.832768763	 0.122764
H	-0.6622976311	 1.7999853474	 0.9296319282	 0.118629
H	-1.2966687787	-1.7466935429	-0.2003720701	 0.109523
H	-2.018875659	-0.3796203006	 0.6753162607	 0.115455
H	-1.6091633194	-0.510020352	-2.3894656104	 0.073331
H	 0.631130333	-1.3972898471	-1.6531284496	 0.090912
H	 0.9558693463	 0.2912599293	-2.0352757298	 0.096006
H	 3.0281180531	-1.2094190535	-1.2187351916	 0.095059
H	 2.8151441634	 0.3371265927	-0.3981853776	 0.100059
H	 1.7907293059	-2.386945984	 0.5553834734	 0.096785
H	 2.8239411069	-1.2920602127	 1.4693262625	 0.096034
H	 1.0139004931	 0.2310870857	 1.891763807	 0.099034
H	 0.0842518358	-1.2532038724	 1.8092040958	 0.095773
31.9227	56.5154	93.9055	200.3795	250.8602	277.3982	315.9238	343.1741	390.0889	422.966	490.6588	554.3785	605.6169	719.7123	822.6158	833.1706	858.8902	893.8591	915.3418	920.0859	951.9029	978.6372	998.9156	1039.0891	1040.0493	1057.3528	1090.4	1151.5861	1173.1749	1194.2935	1232.6164	1261.9516	1266.2298	1283.73	1309.9315	1326.3189	1344.2371	1353.4512	1360.2328	1419.3821	1436.5586	1459.9763	1487.7809	1490.71	1492.4366	1501.5252	1502.3713	1514.4175	1827.8139	2863.868	3006.1336	3022.4883	3028.0897	3029.8198	3036.3116	3043.6019	3080.0694	3081.1206	3085.9275	3088.9188	3095.619	3097.0693	3101.0599
CC1(CC=O)CCCC1	CC1(CC=O)CCCC1	
InChI=1S/C8H14O/c1-8(6-7-9)4-2-3-5-8/h7H,2-6H2,1H3	InChI=1S/C8H14O/c1-8(6-7-9)4-2-3-5-8/h7H,2-6H2,1H3
