20
gdb 51181	3.65778	1.11912	1.04533	3.6379	79.47	-0.2422	0.032	0.2741	1222.4876	0.17279	-403.179474	-403.171116	-403.170171	-403.213065	32.065	
O	 0.0242883164	 0.1791016594	 1.0876890017	-0.318222
C	 0.0345671936	 1.2729147877	 0.5687523636	 0.137133
N	 1.1099928287	 1.8503050015	-0.0408849384	-0.376356
C	 2.3632178006	 1.1823328159	-0.2288361237	 0.406973
C	 3.195448669	 0.8764046256	 0.9878106917	-0.29584
C	 3.6741309036	 1.9113307466	-0.0031386008	-0.103733
C	 4.6520561634	 1.4677075814	-1.0815109681	-0.213989
C	 4.0617005428	 0.1443886619	-1.6287792125	-0.227758
C	 2.5340439256	 0.2692890594	-1.4405814476	-0.257616
H	-0.8491763934	 1.9442389363	 0.549157903	 0.068195
H	 0.9532824843	 2.7210828042	-0.5266224044	 0.241643
H	 2.8100327165	 1.2430979591	 1.9311367195	 0.123455
H	 3.694579251	-0.0841828049	 1.0549340554	 0.115844
H	 3.6735042402	 2.9489478514	 0.3142401163	 0.081931
H	 4.6885700061	 2.2280714479	-1.8714682362	 0.096737
H	 5.6745786633	 1.3415943422	-0.710389842	 0.101619
H	 4.3398687464	-0.0349074186	-2.670335806	 0.100247
H	 4.4435499686	-0.7045286094	-1.0538094364	 0.111155
H	 2.0391052415	-0.6975240902	-1.3102358126	 0.118424
H	 2.0751220818	 0.7580525925	-2.3094941425	 0.090158
34.927	127.5353	197.6522	227.5384	241.2712	371.9123	391.2726	439.0607	526.843	541.5539	618.3592	678.6708	792.3726	813.1653	858.7389	886.7125	903.5552	935.0514	973.0011	996.532	1003.9838	1033.2995	1045.6723	1071.0042	1081.3493	1117.4679	1164.4485	1176.8498	1207.0395	1254.5987	1266.0018	1285.0846	1316.7135	1339.1145	1345.0301	1403.5067	1434.4034	1487.9995	1493.5336	1495.1177	1506.1658	1517.9711	1812.7869	2916.7804	3027.03	3029.3217	3054.6439	3072.8652	3086.537	3102.8303	3143.5347	3164.0665	3230.9509	3602.531
O=CNC12CC1CCC2	O=CN[C@]12C[C@H]1CCC2	
InChI=1S/C7H11NO/c9-5-8-7-3-1-2-6(7)4-7/h5-6H,1-4H2,(H,8,9)	InChI=1S/C7H11NO/c9-5-8-7-3-1-2-6(7)4-7/h5-6H,1-4H2,(H,8,9)/t6-,7-/m1/s1
