20
gdb 64349	2.60203	1.417	1.14839	2.7029	76.45	-0.2534	0.0243	0.2777	1145.8636	0.171161	-440.312251	-440.303346	-440.302402	-440.345438	34.523	
C	-0.0247586703	 1.5639659726	 0.0390434602	-0.431271
C	-0.0010585026	 0.0351676699	-0.0064166585	 0.331943
O	-1.3344419096	-0.4756958829	-0.1178302565	-0.464751
C	 0.7379091672	-0.4931453973	-1.242185355	-0.222343
C	 0.7413891641	-2.0160289758	-1.2408202106	-0.080283
O	 1.254245615	-2.5838598109	-0.0229081042	-0.260888
C	 0.8514903196	-2.0567155204	 1.1700549535	 0.382962
N	 0.7291933487	-2.7693211128	 2.2093760208	-0.507576
C	 0.6887989369	-0.55517764	 1.2337146276	-0.297545
H	 0.9868770533	 1.9820606442	 0.044608977	 0.116208
H	-0.5605542118	 1.9553066078	-0.830380702	 0.124972
H	-0.5369651878	 1.9153608128	 0.9422200346	 0.109642
H	-1.7903339047	-0.3107585783	 0.7143447582	 0.283984
H	 0.242896445	-0.1402337634	-2.1530962969	 0.111027
H	 1.7626313837	-0.1064495738	-1.2437267523	 0.105045
H	-0.2777102895	-2.3865041756	-1.3929040296	 0.128619
H	 1.3813391622	-2.4134157285	-2.0320273175	 0.113012
H	 0.9147202916	-3.748208361	 1.9780244581	 0.216888
H	 1.6889392013	-0.112481689	 1.328164494	 0.122815
H	 0.1444033678	-0.3109557076	 2.1500771191	 0.117539
91.556	123.3326	235.7116	244.56	263.6127	272.9293	330.4221	386.2137	418.3658	469.1581	487.2469	513.7103	574.8693	654.6349	766.0599	823.7355	887.7733	896.6776	931.4998	937.7829	983.1671	998.6457	1033.0703	1049.1794	1115.4977	1133.5263	1157.9802	1184.345	1204.916	1281.4776	1292.3513	1318.1121	1344.0485	1361.8947	1401.8468	1408.0432	1430.8603	1460.1641	1477.1783	1492.5808	1494.2603	1507.946	1748.4065	3028.3315	3032.5911	3046.7747	3052.2391	3092.1351	3094.364	3099.8368	3110.2261	3117.7486	3455.7783	3811.4651
CC1(O)CCOC(=N)C1	C[C@@]1(O)CCO[C]([NH])C1	
InChI=1S/C6H11NO2/c1-6(8)2-3-9-5(7)4-6/h7-8H,2-4H2,1H3	InChI=1S/C6H11NO2/c1-6(8)2-3-9-5(7)4-6/h7-8H,2-4H2,1H3/t6-/m1/s1
