17
gdb 69126	2.88599	1.4979	1.16123	4.65	75.92	-0.2349	-0.0567	0.1781	1078.0498	0.136885	-418.034169	-418.026216	-418.025271	-418.066367	31.024	
C	 0.0109780038	 1.5560020923	 0.016929114	-0.465094
C	 0.0809941704	 0.0511473282	 0.0113843306	 0.324954
C	-0.7990133705	-0.8031032503	 0.8764422093	-0.328438
C	 0.7214794681	-0.761600989	 1.1160193417	-0.204918
C	 1.5145216058	-1.8315476564	 0.4473145173	 0.367965
O	 2.2770945214	-2.6278964955	 0.9327050535	-0.322071
C	 1.2100338832	-1.7336863488	-1.0487629339	 0.247435
N	 1.5266846	-2.566816475	-1.9557627665	-0.531576
N	 0.5077272558	-0.5616155835	-1.230574539	-0.353068
H	 0.9720073159	 1.9887579048	-0.2757535664	 0.137687
H	-0.7511093241	 1.9128535754	-0.6853705896	 0.12654
H	-0.2540717658	 1.9282854832	 1.0102176225	 0.127101
H	-1.3953391393	-0.3267781304	 1.6471723056	 0.131322
H	-1.2317266984	-1.7034776004	 0.4536243157	 0.135063
H	 1.0867062245	-0.3236798644	 2.0357216211	 0.120761
H	 2.073882168	-3.3137184966	-1.5215690998	 0.234929
H	-0.0589534087	-0.4623741437	-2.060740156	 0.251409
117.7739	143.0669	220.2061	280.2822	313.5053	345.2691	420.1261	455.2234	521.9326	528.3528	599.5355	643.8595	728.9123	745.9639	803.9371	857.8584	876.3275	930.4874	963.4435	973.2263	1012.2989	1059.0815	1070.2181	1114.6827	1122.2487	1177.8085	1230.5754	1296.4982	1350.0628	1400.5108	1413.0175	1432.9817	1482.925	1487.2095	1502.6256	1742.0138	1842.6986	3035.0475	3099.8461	3122.2458	3132.2615	3204.4998	3224.8165	3457.0931	3602.9526
CC12CC1C(=O)C(=N)N2	C[C@]12C[C@H]1C(=O)[C]([NH])N2	
InChI=1S/C6H8N2O/c1-6-2-3(6)4(9)5(7)8-6/h3H,2H2,1H3,(H2,7,8)	InChI=1S/C6H8N2O/c1-6-2-3(6)4(9)5(7)8-6/h3H,2H2,1H3,(H2,7,8)/t3-,6-/m0/s1
