19
gdb 22101	3.71316	0.76744	0.72399	4.	79.86	-0.2575	-0.0054	0.2521	1581.5009	0.156586	-419.193148	-419.182617	-419.181673	-419.229634	36.935	
C	 0.0278220506	 1.6124823078	-0.0886606588	-0.385684
C	-0.0159505726	 0.0732706043	-0.0562482707	-0.146588
C	-1.4672276789	-0.4807592316	 0.0292321154	-0.276123
C	-2.1384188891	-0.1521513923	 1.337009641	 0.348353
C	-1.660572658	-0.7921355063	 2.6136341044	-0.475443
N	-3.1150483224	 0.6720393373	 1.2746376751	-0.158214
O	-3.6716978623	 0.909975317	 2.5386473183	-0.395964
C	 0.6592089264	-0.4869836772	-1.2311296121	 0.26785
N	 1.1818193431	-0.9284064957	-2.1628628535	-0.321494
H	 1.058933494	 1.9732488395	-0.1019497416	 0.135784
H	-0.4819352331	 1.992925263	-0.9780276698	 0.141525
H	-0.4769601532	 2.0168128802	 0.7916007425	 0.137599
H	 0.5422368672	-0.2768739949	 0.8216334217	 0.129581
H	-2.0593045398	-0.0677092703	-0.79113417	 0.134376
H	-1.4337190128	-1.5693752376	-0.0955820642	 0.127201
H	-1.2246612871	-0.0450028838	 3.28596767	 0.149233
H	-2.5058375736	-1.2324903316	 3.1504731296	 0.155867
H	-0.9159788838	-1.5674187526	 2.4208904604	 0.122572
H	-4.4005051345	 1.5047274148	 2.3317911522	 0.30957
42.4174	70.9833	86.1728	127.5022	173.8928	216.6517	268.788	295.5384	300.1722	382.0128	392.1991	427.2948	515.4459	555.2504	571.2248	662.9248	816.1459	829.56	892.4131	923.9213	989.2247	1019.8898	1027.7431	1073.8372	1101.606	1137.645	1231.087	1270.7339	1302.4785	1333.1018	1366.6656	1400.8799	1402.8346	1415.8746	1475.3071	1475.7315	1486.0766	1492.4132	1500.5948	1724.757	2356.2827	3029.3982	3040.8132	3043.6889	3053.8335	3101.6959	3110.8015	3129.9638	3132.1855	3136.8134	3818.7497
CC(CC(C)=NO)C#N	C[C@@H](CC(=NO)C)C#N	
InChI=1S/C6H10N2O/c1-5(4-7)3-6(2)8-9/h5,9H,3H2,1-2H3	InChI=1S/C6H10N2O/c1-5(4-7)3-6(2)8-9/h5,9H,3H2,1-2H3/t5-/m0/s1
