19
gdb 96418	2.09564	1.62831	1.19112	0.307	76.48	-0.2543	0.0428	0.2971	1108.7434	0.15956	-422.997622	-422.989063	-422.988118	-423.030459	33.379	
O	 0.069361421	 1.4216290532	-0.0179344976	-0.438607
C	 0.0287201172	 0.0115372941	 0.0278729672	 0.123028
C	 0.8344546452	-0.5739811601	 1.1922204884	-0.230036
C	 0.719889774	-2.1014684839	 1.2100922589	-0.082586
O	-0.6334523403	-2.5249059992	 1.2683850615	-0.234537
C	-1.3811216025	-2.0782985039	 0.1611129848	-0.091085
C	-1.4262523606	-0.5351370668	 0.0642638488	-0.202022
C	-2.1738053518	 0.0718265029	 1.1622276641	 0.327266
C	-2.759548604	 0.6107146222	 2.0647191781	-0.479344
H	-0.4540279079	 1.7451814488	 0.7267744739	 0.281604
H	 0.4738877734	-0.3217307159	-0.9180912162	 0.087686
H	 1.8824868785	-0.2697234719	 1.1042875236	 0.104778
H	 0.4465041123	-0.1726641997	 2.1358462428	 0.111573
H	 1.2064035848	-2.5270965545	 0.314805763	 0.087232
H	 1.210280376	-2.5255688976	 2.0902489672	 0.112791
H	-0.9537038443	-2.4690568859	-0.7787216887	 0.089187
H	-2.3882033563	-2.4862892703	 0.2759463796	 0.120132
H	-1.9140606327	-0.2640797947	-0.8807826795	 0.110431
H	-3.2992182519	 1.0616597933	 2.86076365	 0.202508
105.1109	137.8553	175.8185	246.3785	324.8566	354.1739	378.5648	398.3039	423.9385	444.373	551.4296	622.7714	650.807	653.6229	682.6059	798.616	852.5187	868.9356	927.3914	978.959	1016.8985	1036.8457	1096.8756	1104.7693	1124.9081	1174.8616	1207.1776	1244.8029	1265.6794	1285.7555	1305.9135	1341.1264	1360.4749	1380.3149	1397.7108	1414.5922	1441.7591	1476.3464	1489.2321	1503.4375	2225.6334	2953.223	2958.7094	3026.1389	3036.7621	3042.513	3090.7032	3093.6508	3099.474	3500.2431	3765.3385
OC1CCOCC1C#C	O[C@H]1CCOC[C@H]1C#C	
InChI=1S/C7H10O2/c1-2-6-5-9-4-3-7(6)8/h1,6-8H,3-5H2	InChI=1S/C7H10O2/c1-2-6-5-9-4-3-7(6)8/h1,6-8H,3-5H2/t6-,7+/m1/s1
