15
gdb 25801	4.26274	1.07113	0.86061	1.4924	72.24	-0.2254	-0.0405	0.1848	1266.5078	0.113215	-454.021213	-454.012883	-454.011939	-454.055102	29.968	
C	 0.0514682234	 1.5144524278	 0.0429625869	-0.492393
C	 0.0268581079	-0.0026202383	 0.0194058249	 0.291062
O	 1.050576751	-0.6707560071	 0.026332564	-0.3565
C	-1.271357614	-0.6565394188	-0.0080088683	 0.222331
C	-2.5868266328	-0.2427443611	-0.0227212001	-0.165441
N	-3.444109435	-1.3112583708	-0.0481105283	-0.36366
C	-2.6510964801	-2.3664216292	-0.0485576289	 0.473959
O	-3.0438538322	-3.6430196755	-0.0694660697	-0.413021
N	-1.3453825588	-2.0490383374	-0.0252743388	-0.357361
H	 1.0881128348	 1.8520834417	 0.0401939124	 0.144179
H	-0.4715916353	 1.9243249093	-0.8272720075	 0.141119
H	-0.4546601071	 1.8934580624	 0.9371421036	 0.142315
H	-2.9601145306	 0.7702572182	-0.0164568883	 0.124267
H	-4.0100452163	-3.6316588696	-0.083838683	 0.320543
H	-0.5417820651	-2.6567510215	-0.0206715987	 0.288601
40.1732	109.6928	147.9992	153.5632	334.288	335.0364	427.3021	445.4759	535.8064	567.3632	590.3804	615.6741	678.7313	738.9496	748.4644	870.1207	943.7887	1003.896	1038.5845	1042.7073	1109.6476	1166.1753	1232.5551	1284.5945	1318.7202	1373.9203	1403.163	1468.5415	1475.4024	1513.8338	1605.2729	1625.7065	1738.9976	3042.3544	3105.2609	3156.5342	3251.9121	3659.2161	3795.821
CC(=O)C1=CN=C(O)N1	CC(=O)c1cnc(O)[nH]1	
InChI=1S/C5H6N2O2/c1-3(8)4-2-6-5(9)7-4/h2H,1H3,(H2,6,7,9)	InChI=1S/C5H6N2O2/c1-3(8)4-2-6-5(9)7-4/h2H,1H3,(H2,6,7,9)
