18
gdb 32998	5.04273	0.94441	0.80694	0.452	84.54	-0.213	-0.0236	0.1894	1424.9106	0.150113	-398.198253	-398.189804	-398.188859	-398.232725	30.717	
C	 0.1246340658	 1.5169950739	 0.0499261873	-0.401154
C	-0.1624209704	 0.0246200851	-0.0869401071	-0.101969
N	 0.5741722978	-0.5354528522	-1.2048668263	-0.359237
C	 0.7630955088	-1.8635881492	-1.4142376025	 0.473541
N	 0.3718987027	-2.7156803724	-0.449006219	-0.324822
C	 0.6077433408	-4.0046630146	-0.6849055405	 0.01538
C	 1.2094097838	-4.4689599314	-1.8477252672	-0.157304
C	 1.5582047978	-3.4920443032	-2.7788412464	 0.013297
N	 1.346769968	-2.1966917195	-2.5868126868	-0.330697
H	 1.1901167749	 1.6981333931	 0.2209899949	 0.128421
H	-0.1736270093	 2.0642398626	-0.851850508	 0.11757
H	-0.4357653424	 1.9353954623	 0.890300321	 0.125114
H	 0.1339614005	-0.5125059816	 0.8176404549	 0.134682
H	-1.2437867614	-0.1424896909	-0.2050218033	 0.104092
H	 0.7757783551	 0.0499198788	-1.999783413	 0.247243
H	 0.2946994017	-4.695875917	 0.0958668194	 0.109077
H	 1.3886348676	-5.5214602769	-2.0232678301	 0.097834
H	 2.0276162782	-3.7646246369	-3.7227100873	 0.10893
24.0847	82.4691	154.4482	183.9873	265.2559	339.8013	416.3396	457.0531	488.3319	538.0593	645.1301	660.8195	801.0634	804.692	830.4348	870.2123	954.0551	993.3674	999.7384	1012.424	1074.3245	1092.0421	1112.6142	1160.9188	1183.5883	1247.0228	1286.9322	1307.4294	1362.9054	1392.769	1413.8922	1441.1295	1484.8176	1494.1641	1500.7248	1527.6217	1565.4863	1599.2431	1642.136	2989.4252	3034.0253	3085.1437	3107.2243	3120.8186	3141.2259	3142.5031	3218.4113	3641.5398	24.0887	82.4698	154.4485	183.9875	265.2576	339.8014	416.3395	457.0529	488.3313	538.0592	645.1302	660.8196	801.0635	804.692	830.4347	870.2123	954.055	993.3673	999.7384	1012.4239	1074.3245	1092.0419	1112.6143	1160.9188	1183.5882	1247.0227	1286.9321	1307.4293	1362.9056	1392.7691	1413.8917	1441.1291	1484.8177	1494.1633	1500.7242	1527.6218	1565.4862	1599.2432	1642.1359	2989.4252	3034.0253	3085.1437	3107.2243	3120.8186	3141.2259	3142.5032	3218.4113	3641.5397
CCNC1=NC=CC=N1	CCNc1ncccn1	
InChI=1S/C6H9N3/c1-2-7-6-8-4-3-5-9-6/h3-5H,2H2,1H3,(H,7,8,9)	InChI=1S/C6H9N3/c1-2-7-6-8-4-3-5-9-6/h3-5H,2H2,1H3,(H,7,8,9)
