16
gdb 17686	4.41451	1.40111	1.33622	2.3748	61.17	-0.2358	0.0655	0.3013	955.9064	0.128933	-420.825487	-420.817736	-420.816792	-420.85738	29.496	
O	 0.101700369	 1.3532155428	 0.0116779605	-0.432639
C	 0.1051292787	-0.0352871129	 0.0527897782	 0.082772
C	-0.3571211429	-0.7626728125	 1.3009676078	-0.375393
C	-1.2339028926	-0.7415264833	 0.0752938659	 0.352057
O	-2.3450309576	 0.1158900506	 0.1437994675	-0.478856
C	-1.4853436837	-1.9750780568	-0.7282488033	 0.001262
C	-2.7987181569	-2.6293023443	-0.7462317509	-0.187137
O	-2.3834927385	-1.781632858	-1.832254634	-0.253213
H	-0.8296563906	 1.6155917333	 0.0503348278	 0.28763
H	 0.9215721834	-0.4632119015	-0.5225363657	 0.102036
H	 0.1199012976	-1.696472645	 1.580898457	 0.115305
H	-0.6868351154	-0.1448431918	 2.1294244725	 0.130751
H	-2.7340495247	 0.0928230075	-0.7440002032	 0.298578
H	-0.6022940317	-2.5703902505	-0.960070465	 0.103043
H	-2.8714025535	-3.68673176	-0.9921171335	 0.124057
H	-3.5995135706	-2.2281739776	-0.1298585018	 0.129748
98.1381	165.3856	199.7536	276.6175	301.4246	360.803	393.5173	459.489	526.4059	574.5285	634.7431	734.1442	804.3652	843.5368	883.5093	899.7975	947.7801	1005.8637	1020.3446	1051.8795	1087.0065	1102.567	1135.8549	1160.355	1169.3677	1223.3284	1266.1863	1315.9438	1333.7541	1376.3984	1422.3192	1443.1328	1497.1442	1522.3336	3100.0211	3117.0852	3128.2047	3147.4735	3194.5125	3223.3809	3717.0899	3729.7301
OC1CC1(O)C1CO1	O[C@H]1C[C@]1(O)[C@H]1CO1	
InChI=1S/C5H8O3/c6-3-1-5(3,7)4-2-8-4/h3-4,6-7H,1-2H2	InChI=1S/C5H8O3/c6-3-1-5(3,7)4-2-8-4/h3-4,6-7H,1-2H2/t3-,4+,5+/m0/s1
