12
gdb 21219	7.14836	1.36272	1.15398	5.6403	53.04	-0.2485	0.0196	0.2681	959.8427	0.083748	-451.812125	-451.804959	-451.804015	-451.843888	24.85	
C	 0.065832009	 1.4129765769	-0.0537292399	-0.330114
N	-0.0426179231	-0.0299043373	 0.1132897199	-0.388744
C	-1.2504098389	-0.6233497363	 0.0316096764	 0.547374
N	-2.4042034687	-0.0398425502	-0.0167662802	-0.239428
O	-3.3228125039	-1.1456883952	-0.0083936462	-0.232201
C	-2.6406814718	-2.3039162397	 0.0129545267	 0.51506
O	-3.0703972541	-3.4085071579	 0.0097770825	-0.360543
O	-1.2855274546	-1.9755995318	 0.0410854257	-0.239238
H	 1.0811100028	 1.7174809408	 0.2038046585	 0.141908
H	-0.1639816548	 1.7361057381	-1.0762839131	 0.143694
H	-0.6335987232	 1.9038687173	 0.6264243477	 0.17073
H	 0.7358800413	-0.6040614047	-0.1697334179	 0.271502
99.0782	124.5686	186.4134	218.1611	337.5797	379.4038	434.2222	581.2792	702.4404	707.8606	776.8229	778.7298	890.8029	969.047	988.0698	1096.4759	1153.8648	1165.9073	1193.0344	1356.427	1457.8627	1484.1227	1509.6337	1572.6062	1712.6124	1952.887	3031.6263	3110.5781	3150.2771	3638.735
CNC1=NOC(=O)O1	CNc1noc(=O)o1	
InChI=1S/C3H4N2O3/c1-4-2-5-8-3(6)7-2/h1H3,(H,4,5)	InChI=1S/C3H4N2O3/c1-4-2-5-8-3(6)7-2/h1H3,(H,4,5)
