14
gdb 129273	5.17042	1.11161	0.95556	3.7464	66.77	-0.2416	0.0035	0.2451	1172.907	0.101399	-469.958544	-469.951244	-469.9503	-469.990951	26.792	
N	-0.2161919339	 1.1817070807	 0.0689996205	-0.578518
C	-0.0836075869	-0.0612548733	-0.0055732656	 0.51635
O	 0.9443665679	-0.8044694327	-0.5015200343	-0.244642
N	 0.6102316983	-2.1919189244	-0.3838913777	-0.212909
C	-0.5441155452	-2.1733891048	 0.1834031932	 0.496115
O	-1.0432081447	-0.9408362677	 0.442394015	-0.208348
N	-1.2728693688	-3.2466915756	 0.6141870207	-0.163808
C	-2.470349181	-3.665992724	-0.1289435356	-0.228711
C	-1.2268923805	-4.4877084333	-0.1536438834	-0.219618
H	 0.5967819043	 1.6563121559	-0.3156111718	 0.245215
H	-3.3074737819	-3.9541664809	 0.4970907632	 0.146779
H	-2.7246977424	-3.1064801703	-1.0243180792	 0.14839
H	-0.6332952201	-4.4835833919	-1.0623102004	 0.159511
H	-1.1586174051	-5.3863838176	 0.4495206156	 0.144193
71.0261	127.5074	185.3917	220.3592	370.777	405.236	540.6691	595.6571	704.9724	747.2481	751.9202	783.777	817.9853	890.1228	910.6939	919.9726	960.6898	1006.7797	1050.593	1054.3768	1125.5083	1145.54	1177.9388	1183.3564	1241.2486	1285.9177	1454.5863	1493.1388	1519.1489	1685.1344	1818.9061	3128.7731	3135.0625	3220.0632	3233.0114	3546.0072
N=C1ON=C(O1)N1CC1	[NH][C@@H]1ON=C(O1)N1CC1	
InChI=1S/C4H5N3O2/c5-3-8-4(6-9-3)7-1-2-7/h5H,1-2H2	InChI=1S/C4H6N3O2/c5-3-8-4(6-9-3)7-1-2-7/h3,5H,1-2H2/t3-/m0/s1
