21
gdb 111805	2.8972	1.33274	1.27201	2.5011	76.72	-0.247	0.0831	0.3301	1132.2084	0.184874	-424.237436	-424.229464	-424.228519	-424.270081	31.264	
C	 0.1500891033	 1.5984088551	 0.1263211907	-0.385439
C	-0.0430397253	 0.0827243682	-0.0045654981	-0.216157
C	 0.6015216429	-0.4859258092	-1.2677138903	 0.00361
C	 0.5234919376	-2.0173024232	-1.5017246319	-0.117586
C	-0.9905206831	-2.1905278875	-1.7367566368	-0.081231
O	-1.3595986091	-0.9768654304	-2.4272938026	-0.270572
C	-0.1428603288	-0.2649678374	-2.5955396891	 0.2143
O	 0.6755872437	-0.9128353293	-3.5551993001	-0.274404
C	 1.1842094542	-2.0903407214	-2.8882608914	-0.083289
H	 1.2130269784	 1.8634549814	 0.1440993278	 0.115329
H	-0.3108152663	 2.1342797038	-0.7100402087	 0.121623
H	-0.3025753901	 1.9747042421	 1.0486348052	 0.114812
H	 0.3929945153	-0.4139597223	 0.8717334602	 0.093796
H	-1.1129769239	-0.1473544698	 0.0044677431	 0.115706
H	 1.6354696392	-0.1335566889	-1.3520003793	 0.076907
H	 0.9559015309	-2.6690118288	-0.7424628233	 0.075729
H	-1.2194227686	-3.0576670022	-2.3672781604	 0.104188
H	-1.5650852988	-2.2735474077	-0.8071335294	 0.100964
H	-0.3695841622	 0.7408737136	-2.9441304077	 0.090629
H	 2.279657052	-2.0419050634	-2.8369114524	 0.097893
H	 0.8971525087	-2.9831684329	-3.4558002755	 0.103191
72.6066	169.2492	194.6743	212.3567	274.7632	344.4431	430.562	482.524	547.7668	625.3152	735.4227	801.0155	837.8389	863.9616	908.7457	918.0871	923.4451	933.9098	965.9145	975.5223	997.8992	1025.9622	1059.758	1089.0277	1107.2701	1112.1421	1155.1119	1176.587	1193.7131	1235.2955	1261.2062	1275.4577	1298.0081	1319.3297	1322.1975	1356.2076	1370.7478	1387.4973	1410.2427	1414.7214	1483.1227	1501.049	1504.8165	1518.1199	1532.8964	3013.031	3023.6239	3026.0098	3032.7545	3048.5395	3056.3354	3063.7449	3078.7042	3103.9737	3106.2572	3120.5486	3150.4287
CCC1C2COC1OC2	CC[C@H]1[C@H]2CO[C@@H]1OC2	
InChI=1S/C7H12O2/c1-2-6-5-3-8-7(6)9-4-5/h5-7H,2-4H2,1H3	InChI=1S/C7H12O2/c1-2-6-5-3-8-7(6)9-4-5/h5-7H,2-4H2,1H3/t5-,6-,7+/m0/s1
