16
gdb 33831	4.60395	1.08149	1.00393	2.1064	77.32	-0.2528	0.0227	0.2755	1179.8144	0.123052	-400.643939	-400.636124	-400.63518	-400.676219	30.426	
C	 0.0083574126	-1.1915890254	 0.0955268722	-0.389986
C	 0.0347115571	 0.0092442778	 0.0382527391	 0.233995
C	 0.0358345579	 1.4293251253	-0.0765498494	 0.130729
C	-0.6972136218	 2.2404254068	-1.1730114127	-0.390364
C	 0.5046962084	 3.2064098839	-1.1670099467	 0.45108
C	 1.0871858082	 3.9577550153	-2.2751804533	-0.264201
O	 0.419324609	 4.6215666356	-1.1897091981	-0.27159
C	 1.1925562487	 2.4216781488	-0.0732571067	-0.186672
N	 0.3200237541	 2.2727668099	 1.0845685149	-0.346979
H	-0.0076451851	-2.2513486623	 0.1608359701	 0.191928
H	-0.8051630229	 1.7019117536	-2.116900837	 0.127532
H	-1.6650019549	 2.6545118799	-0.8748913575	 0.11657
H	 2.1646102412	 4.111971518	-2.3214525228	 0.122153
H	 0.5708717598	 3.9913473717	-3.2336369615	 0.12103
H	 2.2546095855	 2.2491817047	 0.0550200817	 0.111683
H	-0.3440650379	 3.0402931562	 1.1774890978	 0.243091
82.1438	147.1589	209.9711	281.6202	341.0929	407.8016	445.2768	509.3237	533.6706	579.3527	608.6953	649.7451	659.3452	790.0267	818.3513	850.7663	895.3629	942.1165	975.3149	999.0814	1043.9235	1089.284	1113.8261	1126.7564	1138.0367	1163.8187	1182.719	1224.8643	1229.5172	1282.1115	1408.6275	1439.3183	1480.2197	1537.9528	2242.7947	3058.714	3081.3678	3121.1913	3168.3779	3190.194	3461.2237	3502.5851
C#CC12CC3(CO3)C1N2	C#C[C@]12C[C@]3(CO3)[C@H]1N2	
InChI=1S/C7H7NO/c1-2-6-3-7(4-9-7)5(6)8-6/h1,5,8H,3-4H2	InChI=1S/C7H7NO/c1-2-6-3-7(4-9-7)5(6)8-6/h1,5,8H,3-4H2/t5-,6-,7-/m0/s1
