19
gdb 121547	5.57557	0.45876	0.4378	2.4144	83.29	-0.2468	0.0283	0.2751	2427.2101	0.156903	-422.965265	-422.954889	-422.953945	-423.003704	35.215	
O	-0.1399091053	 1.3284575711	-0.587394203	-0.421287
C	-0.0480436609	 0.0354400322	-0.012810361	-0.073983
C	-1.4001362683	-0.6447636163	-0.1828960851	-0.156876
C	-1.4149141743	-2.0648789665	 0.4143247276	-0.362764
C	-2.6978161902	-2.7389709256	 0.2597210879	 0.045163
C	-3.7651881999	-3.2778389075	 0.1109651194	 0.146976
C	-5.0361068769	-3.9346590648	-0.026348701	-0.116799
C	-5.9351306479	-3.6656183734	-1.1664853819	-0.160029
O	-5.1908331631	-4.8745645361	-1.1053246876	-0.216279
H	 0.7116615388	 1.7639800864	-0.4890926053	 0.286862
H	 0.735473196	-0.5663419641	-0.5030948291	 0.086109
H	 0.2090083231	 0.0904105502	 1.0584353541	 0.085119
H	-2.1705911549	-0.0325115755	 0.2967428347	 0.118872
H	-1.6466187118	-0.688494175	-1.2485761025	 0.12006
H	-0.6314179694	-2.6721665054	-0.0592152612	 0.133969
H	-1.1561163481	-2.01958614	 1.4809459189	 0.13055
H	-5.4954547667	-4.2654231077	 0.9048606407	 0.113943
H	-7.0114566655	-3.7633429032	-1.0283558391	 0.117221
H	-5.6183679547	-2.9556493586	-1.9281117663	 0.123173
11.5501	58.597	67.2365	113.3868	140.4346	170.0889	258.165	266.5433	325.0985	369.7732	474.2054	530.7406	558.6471	733.5413	754.5848	832.2158	864.2431	904.9233	994.3576	1018.4718	1031.2819	1084.228	1087.3712	1115.6271	1149.2552	1159.9968	1185.8056	1212.6245	1231.276	1283.1951	1298.8626	1305.4999	1311.7856	1374.6758	1409.139	1465.1772	1471.9574	1499.0042	1519.2212	1528.3046	2366.1606	2953.5039	2978.5615	3009.7347	3037.6527	3054.2614	3082.9403	3100.4486	3110.5092	3176.4318	3830.9515
OCCCC#CC1CO1	OCCCC#C[C@H]1CO1	
InChI=1S/C7H10O2/c8-5-3-1-2-4-7-6-9-7/h7-8H,1,3,5-6H2	InChI=1S/C7H10O2/c8-5-3-1-2-4-7-6-9-7/h7-8H,1,3,5-6H2/t7-/m0/s1
