16
gdb 7638	4.35031	1.35819	1.32384	3.5547	60.82	-0.2779	0.0081	0.2861	979.0579	0.129559	-420.908469	-420.900552	-420.899607	-420.940961	29.049	
C	-0.0947010574	 1.6317672873	-0.0055072318	-0.412004
C	 0.0246344754	 0.1101551289	-0.0976289915	 0.111407
O	 0.9943288988	-0.4027092392	 0.8030190924	-0.434859
C	-1.3200509004	-0.578809122	 0.1161903497	 0.124351
C	-1.3234899794	-2.1069770839	 0.2945188772	-0.432664
C	-1.7836683897	-1.7824954469	 1.7132750192	 0.445384
O	-2.0833013618	-2.3592535343	 2.7062666856	-0.309688
O	-1.763223531	-0.4175436865	 1.5150861869	-0.26969
H	 0.8898422129	 2.0900743003	-0.1252698469	 0.131595
H	-0.7594023233	 2.024837814	-0.7816123825	 0.119326
H	-0.5025414368	 1.9253234224	 0.9677866764	 0.134313
H	 0.3815148264	-0.1710936391	-1.0967511521	 0.099743
H	 0.7224864535	-0.1422832561	 1.6914811937	 0.292743
H	-2.0862414289	-0.1860519951	-0.5577903227	 0.098034
H	-2.0459771233	-2.6700184574	-0.2974894727	 0.141593
H	-0.3409486649	-2.5779617623	 0.253888909	 0.160414
84.9853	91.7452	209.0358	250.6422	275.9385	355.8745	395.9558	466.4214	516.0644	531.872	630.51	722.7724	799.3438	894.2696	902.0105	965.0103	991.2092	1037.8275	1047.9026	1088.1134	1115.0079	1132.4948	1168.172	1230.2926	1282.6461	1302.2909	1349.7212	1383.7228	1405.6432	1420.6331	1445.1094	1492.7632	1500.0306	1944.8129	3036.299	3038.7218	3080.1688	3097.401	3108.2472	3127.8916	3160.1616	3790.2203
CC(O)C1CC(=O)O1	C[C@@H](O)[C@H]1CC(=O)O1	
InChI=1S/C5H8O3/c1-3(6)4-2-5(7)8-4/h3-4,6H,2H2,1H3	InChI=1S/C5H8O3/c1-3(6)4-2-5(7)8-4/h3-4,6H,2H2,1H3/t3-,4-/m1/s1
