21
gdb 72018	2.72682	1.99692	1.79191	0.0981	83.88	-0.2497	0.1003	0.35	911.8175	0.18608	-349.947548	-349.940957	-349.940013	-349.977865	29.26	
C	-0.0050428459	 1.5014431885	 0.0003774728	-0.510431
C	-0.0001754107	-0.0081590869	-0.0647427051	 0.351668
C	 0.8296859068	-0.7188311132	-1.1518957985	-0.252418
C	 0.685191255	-2.1356970584	-0.5487719006	-0.051598
C	 1.3377750588	-1.9139152058	 0.8383946971	-0.215798
C	 0.3427094451	-0.8276861676	 1.2771868253	-0.09414
C	-1.031026014	-1.5130249809	 1.1543065784	-0.073554
C	-0.8340446699	-2.1886971052	-0.1952397928	-0.061835
C	-1.3500078251	-0.7625556476	-0.110803243	-0.114085
H	 1.0027690115	 1.8947893549	 0.1755336981	 0.111905
H	-0.3734477924	 1.937287791	-0.9360612908	 0.11222
H	-0.6498042752	 1.8627669507	 0.8091603445	 0.115053
H	 0.3690834915	-0.6168150144	-2.1404563372	 0.086424
H	 1.8726127757	-0.3867880138	-1.208894952	 0.083207
H	 1.058234002	-2.9688624605	-1.1440091136	 0.053221
H	 1.2935963868	-2.7954504507	 1.4862305353	 0.089582
H	 2.3769805267	-1.5753043881	 0.7667232429	 0.085813
H	 0.5606027959	-0.2430055007	 2.1698940452	 0.057173
H	-1.6797355596	-1.8784346085	 1.9409967524	 0.076207
H	-1.4819305411	-2.9961282754	-0.5096502184	 0.078913
H	-2.2964373319	-0.4141665576	-0.5083366799	 0.072472
228.3516	250.722	270.0484	420.9065	468.0601	542.5338	573.8395	643.3282	673.2859	776.7455	782.1965	804.9228	826.2355	869.2019	883.2765	906.6389	914.2529	919.8623	933.4818	959.7837	968.3418	1000.5903	1016.2293	1029.8529	1050.0471	1066.9349	1085.5644	1119.8219	1161.6098	1169.4052	1199.7218	1209.17	1234.1652	1249.9399	1252.2399	1277.2659	1288.1029	1314.5475	1351.8539	1368.0013	1413.7785	1481.1581	1492.371	1496.553	1501.3777	3019.462	3032.0358	3041.2344	3080.8839	3083.5051	3088.5532	3091.6928	3116.6845	3123.6885	3168.5909	3182.0986	3205.1255
CC12CC3CC1C1C3C21	C[C@@]12C[C@H]3C[C@@H]1[C@@H]1[C@H]3[C@H]21	
InChI=1S/C9H12/c1-9-3-4-2-5(9)7-6(4)8(7)9/h4-8H,2-3H2,1H3	InChI=1S/C9H12/c1-9-3-4-2-5(9)7-6(4)8(7)9/h4-8H,2-3H2,1H3/t4-,5-,6+,7-,8+,9-/m1/s1
