19
gdb 108774	2.69137	1.23982	0.8734	6.159	83.55	-0.2079	-0.0138	0.1941	1320.2671	0.160869	-419.232775	-419.223834	-419.22289	-419.266475	33.17	
C	 0.1193178552	 1.4367422326	 0.0264366462	-0.32355
N	-0.0195248869	-0.0040440561	 0.0285966786	-0.341712
C	-1.2181659988	-0.6405041347	-0.0498634961	 0.409021
C	-2.4237129438	-0.0101798627	-0.0720626349	-0.318658
C	-3.6721405904	-0.7490882801	-0.0354258134	 0.401168
O	-4.769556926	-0.2172529527	 0.0144663156	-0.367718
C	-3.5553955769	-2.2762731875	-0.0110105754	-0.280294
N	-2.3240069284	-2.7241372041	-0.6571733582	-0.304746
C	-1.1415840669	-2.1517078332	-0.0371174404	-0.262794
H	 1.1751226557	 1.6922492765	 0.1328744107	 0.129695
H	-0.2604397354	 1.888930331	-0.8997127395	 0.137523
H	-0.4286056972	 1.8760645483	 0.867171156	 0.146583
H	 0.8059967034	-0.5468135744	-0.1595241386	 0.246452
H	-2.5052373011	 1.0701776845	-0.0828696518	 0.083643
H	-3.6336836614	-2.5902901377	 1.0494645031	 0.093304
H	-4.4200453971	-2.6871744578	-0.5372168007	 0.123752
H	-2.2649399449	-3.7359782271	-0.6335964723	 0.224013
H	-0.25558384	-2.4783063646	-0.5969578883	 0.102315
H	-0.9890818592	-2.4706599103	 1.0148224594	 0.102003
89.4386	133.2002	153.1099	186.7497	215.9261	271.5485	325.0282	391.32	454.7937	471.2884	514.3116	558.7653	616.478	651.4821	745.8269	857.8466	898.4027	936.3643	986.5358	998.3703	1038.4593	1080.7759	1153.7944	1164.127	1186.4321	1207.0776	1267.8244	1283.378	1286.9157	1321.1128	1347.5166	1417.7897	1461.4074	1474.6709	1479.5886	1491.2901	1493.0868	1515.9756	1551.1437	1662.244	1754.7399	2887.2897	2902.5062	3011.2445	3030.9781	3071.4683	3101.0944	3131.9101	3200.2284	3528.9987	3651.4213
CNC1=CC(=O)CNC1	CNC1=CC(=O)CNC1	
InChI=1S/C6H10N2O/c1-7-5-2-6(9)4-8-3-5/h2,7-8H,3-4H2,1H3	InChI=1S/C6H10N2O/c1-7-5-2-6(9)4-8-3-5/h2,7-8H,3-4H2,1H3
