18
gdb 46792	2.88055	1.65613	1.29754	3.1418	71.27	-0.2273	0.0005	0.2279	996.7163	0.149941	-439.081756	-439.074568	-439.073624	-439.113421	28.611	
O	 0.0069459381	 0.0763628642	 0.7333814333	-0.306059
C	-0.0204253443	 1.1273565601	 0.1540978465	 0.389192
C	-1.3199061661	 1.8995538065	-0.0672147201	-0.346177
C	-1.6450374718	 2.4991403241	-1.4601586119	-0.182736
N	-0.5664761764	 3.2126576176	-2.1456256062	-0.099692
C	 0.5511560187	 2.2855009924	-2.5191657833	-0.20288
C	 1.3126371352	 2.6653097043	-1.2352449597	 0.120785
C	 0.3734202981	 3.8914106762	-1.1924113119	-0.211847
O	 1.1709725083	 1.7018776085	-0.1899964172	-0.237789
H	-2.1199763038	 1.2186942501	 0.2301603934	 0.136633
H	-1.3104430981	 2.7057313139	 0.6768239826	 0.137069
H	-1.986447931	 1.7053517638	-2.1329962167	 0.120376
H	-2.4915234285	 3.1827971267	-1.3291356188	 0.114027
H	 0.2781171388	 1.2314602483	-2.6298277454	 0.119954
H	 1.0466773642	 2.6258534114	-3.433832792	 0.115785
H	 2.3873824474	 2.8447940196	-1.292459234	 0.100348
H	 0.8299222141	 4.7647549668	-1.6687467132	 0.117434
H	-0.0378177928	 4.1947870756	-0.2279635656	 0.115577
87.856	173.9814	310.1412	327.6571	360.5252	432.8648	472.6707	517.4945	554.2203	673.6561	758.6127	782.5205	821.7002	855.5457	884.8647	927.2699	945.3896	956.4142	1011.6903	1054.8363	1072.0302	1088.549	1126.9048	1169.0487	1178.3187	1245.8266	1259.0226	1270.0945	1273.1939	1290.3661	1318.6023	1349.2546	1387.7594	1400.5741	1462.2094	1486.3573	1494.7258	1512.1429	1834.9609	3034.3811	3038.3987	3042.787	3057.0527	3078.0598	3096.27	3104.2601	3115.0223	3120.393
O=C1CCN2CC(C2)O1	O=C1CCN2C[C@@H](C2)O1	
InChI=1S/C6H9NO2/c8-6-1-2-7-3-5(4-7)9-6/h5H,1-4H2	InChI=1S/C6H9NO2/c8-6-1-2-7-3-5(4-7)9-6/h5H,1-4H2
