16
gdb 18450	3.35117	1.71043	1.40266	4.6113	65.74	-0.2331	-0.0122	0.2208	909.3205	0.130216	-383.711318	-383.703912	-383.702968	-383.743088	27.811	
O	 0.031414635	 1.4182318926	-0.1637866443	-0.422294
C	 0.0285353335	 0.0215971793	 0.0279808955	 0.112583
C	 0.2335353832	-0.5687538861	 1.4715106765	-0.289945
C	-1.1357811805	-1.2457873971	 1.3393354445	-0.073896
C	-2.2512446534	-0.2419483375	 1.1259579817	-0.099997
C	-2.3337048175	 1.1050146972	 1.7557153958	 0.14737
O	-3.37413008	 1.5648376657	 2.1653552272	-0.274807
C	-1.3479147247	-0.6271434019	-0.0368293515	-0.085774
H	 0.9439126087	 1.7255089926	-0.165377629	 0.287588
H	 0.7091898566	-0.4699358757	-0.6792605103	 0.083628
H	 1.0590547512	-1.2828846427	 1.5120219606	 0.108654
H	 0.3539024644	 0.1540071681	 2.2819538423	 0.10958
H	-1.3709266467	-2.2502724425	 1.6679165606	 0.101994
H	-3.2317545165	-0.705927155	 1.0578123243	 0.108071
H	-1.389059256	 1.6751042721	 1.8233319541	 0.088398
H	-1.7898306073	-1.055211899	-0.9281768581	 0.098848
82.3715	171.0936	220.6663	271.0079	292.5808	385.5956	430.6733	474.3699	603.3965	687.1668	783.3818	808.9336	842.68	926.7023	973.556	981.9211	996.7751	1031.744	1049.4091	1067.4647	1094.5321	1122.0307	1178.7535	1205.9973	1207.0986	1245.0038	1272.8581	1326.1804	1331.608	1383.2211	1429.315	1461.9697	1496.7499	1805.1695	2966.8804	3014.2827	3067.0073	3117.8283	3154.7654	3185.0805	3197.4157	3813.0268
OC1CC2C(C=O)C12	O[C@H]1C[C@H]2[C@@H](C=O)[C@@H]12	
InChI=1S/C6H8O2/c7-2-4-3-1-5(8)6(3)4/h2-6,8H,1H2	InChI=1S/C6H8O2/c7-2-4-3-1-5(8)6(3)4/h2-6,8H,1H2/t3-,4+,5-,6-/m0/s1
