19
gdb 90490	2.57723	1.58759	1.30573	3.3714	74.45	-0.2442	0.0785	0.3227	1042.1296	0.160167	-422.964289	-422.956423	-422.955478	-422.996795	30.921	
O	 0.2822336862	 1.4228972756	 0.1594861679	-0.443597
C	 0.0571000892	 0.0472292198	 0.2628924627	 0.14932
C	 0.0330476558	-0.6486299439	 1.6685827772	-0.288657
C	-1.3118305427	-1.2897501385	 1.2990164338	-0.103513
C	-2.386403958	-0.2941431889	 0.9689114016	-0.024577
C	-2.7230712246	 1.0102098936	 1.6304342797	 0.04737
C	-2.5857380306	 1.2497495184	 3.075715336	-0.182797
O	-1.6842681032	 1.854241405	 2.1397136056	-0.23995
C	-1.3208898328	-0.5636799016	-0.0637579368	-0.127117
H	-0.2401584784	 1.852344875	 0.8494806065	 0.299902
H	 0.8083753547	-0.4284368596	-0.3745261804	 0.089719
H	 0.8343193006	-1.3823909811	 1.7827706722	 0.101958
H	 0.0444900466	 0.0190176661	 2.5314651904	 0.106154
H	-1.5673797731	-2.3241191129	 1.4971145742	 0.086687
H	-3.3143693985	-0.7958643818	 0.6919507401	 0.094314
H	-3.5001844316	 1.5722470108	 1.1089922278	 0.101212
H	-3.2499549409	 1.9461711003	 3.583609358	 0.123767
H	-2.1502184985	 0.4711357634	 3.6986369015	 0.126308
H	-1.5949037402	-0.9536935295	-1.0379345279	 0.083497
69.8173	167.0993	190.6611	225.992	297.1971	388.7818	447.5494	538.2858	547.6897	649.9332	694.5961	744.855	790.5097	808.9722	851.5472	891.6978	912.6563	959.4568	975.8689	1005.7506	1015.0024	1053.1959	1059.7091	1093.1091	1104.44	1130.0515	1148.1458	1168.0537	1180.5221	1189.6529	1236.5186	1270.8409	1297.5726	1307.4986	1334.8796	1355.9428	1428.4397	1457.2986	1460.1442	1489.2844	1522.9526	3062.7195	3073.2604	3088.3532	3095.3649	3107.12	3123.9079	3165.8909	3180.2811	3187.5206	3758.6194
OC1CC2C(C3CO3)C12	O[C@H]1C[C@H]2[C@@H]([C@H]3CO3)[C@@H]12	
InChI=1S/C7H10O2/c8-4-1-3-6(4)7(3)5-2-9-5/h3-8H,1-2H2	InChI=1S/C7H10O2/c8-4-1-3-6(4)7(3)5-2-9-5/h3-8H,1-2H2/t3-,4+,5-,6-,7+/m1/s1
