19
gdb 38775	2.87	1.95514	1.64919	1.8829	76.83	-0.2199	0.0651	0.285	896.9688	0.164161	-382.008716	-382.002355	-382.001411	-382.038994	27.403	
C	 0.005069341	 1.5809325197	-0.139635365	-0.263452
C	 1.5235684029	 1.4802354379	-0.0845157857	-0.044121
C	 2.0410462384	 0.7017905199	 1.0626940957	-0.000715
C	 1.437367216	 0.5367179322	 2.4286399285	-0.046444
N	 0.2266826211	 1.3012852104	 2.8023819771	-0.341185
C	 0.1264811719	-0.1501520343	 2.564194204	-0.023867
C	-0.5770171139	-0.5942360086	 1.3002431995	-0.222435
C	-0.0047548319	 0.0329749398	 0.0255831507	 0.020477
N	 1.5077726126	-0.0424697945	-0.1107930365	-0.171557
H	-0.482435644	 2.1903013044	 0.6183556162	 0.131616
H	-0.3397414168	 1.8716968527	-1.1346830649	 0.097457
H	 2.2043133638	 2.0415862408	-0.7185748109	 0.087239
H	 3.1259572592	 0.6239714788	 1.0761992766	 0.086926
H	 2.1716989344	 0.3691018589	 3.2119981987	 0.081825
H	 0.241117519	 1.4881543887	 3.8013503175	 0.229951
H	-0.0181859913	-0.790614458	 3.4311511608	 0.083523
H	-0.4791363586	-1.6847588708	 1.2220482127	 0.10632
H	-1.6500621027	-0.3731985596	 1.358912132	 0.106324
H	-0.4439723709	-0.4687359485	-0.8389494373	 0.082119
221.1203	249.4284	347.2241	371.9093	464.5565	486.7468	622.0915	697.1963	718.9259	756.4981	787.4556	815.0918	823.91	840.1907	885.2451	909.6057	945.2861	986.5861	1006.1434	1030.7936	1052.538	1064.8245	1080.5164	1113.1623	1127.1109	1154.544	1181.176	1191.543	1228.3811	1241.7353	1274.9331	1275.6175	1303.9239	1330.3294	1362.9243	1388.0247	1413.5153	1447.0059	1464.3034	1470.6934	1488.0365	3020.5185	3058.9414	3071.1972	3084.5146	3122.451	3129.1317	3142.3327	3149.434	3155.9496	3503.1682
C1C2C3C4NC4CC1N23	C1[C@H]2[C@H]3[C@H]4N[C@H]4C[C@@H]1N23	
InChI=1S/C7H10N2/c1-3-2-5-7(9(3)5)6-4(1)8-6/h3-8H,1-2H2	InChI=1S/C7H10N2/c1-3-2-5-7(9(3)5)6-4(1)8-6/h3-8H,1-2H2/t3-,4-,5-,6-,7-,9?/m0/s1
