21
gdb 119091	2.33727	1.085	0.86685	2.268	74.75	-0.2494	0.0703	0.3197	1409.2568	0.180198	-461.316581	-461.306234	-461.30529	-461.353115	36.293	
C	 0.2529145696	 1.3482271567	 0.0244346033	-0.256006
O	 0.036308369	-0.046991686	-0.0093978119	-0.296259
C	-1.2882845602	-0.5280386906	 0.0277592106	 0.347669
C	-1.1837711292	-2.0486981856	 0.06678475	-0.217055
C	-0.3896030834	-2.5791650035	 1.2549731915	-0.085569
O	-0.4674501115	-3.9973750166	 1.2138017903	-0.421057
C	-2.3032352811	 0.0671481735	 1.049475294	-0.136631
O	-3.2601189727	 0.3074948049	 0.0003069637	-0.271387
C	-2.3062975682	-0.0189336622	-1.0291309286	-0.134566
H	 1.3282528621	 1.4930756012	-0.1041296699	 0.132238
H	-0.2669964978	 1.8790185757	-0.7837760527	 0.11543
H	-0.0450018644	 1.7963684912	 0.9815160759	 0.114093
H	-2.1934133177	-2.4726029914	 0.0958560909	 0.117055
H	-0.7113221637	-2.3959986256	-0.8589974093	 0.111501
H	 0.6480431353	-2.2275404718	 1.189525873	 0.10534
H	-0.8111879889	-2.1874961793	 2.1960455994	 0.080492
H	 0.0993564622	-4.3480024855	 1.9066582587	 0.285411
H	-2.6878257748	-0.6201829849	 1.8115092187	 0.106031
H	-1.9877839547	 0.9971149126	 1.5380317868	 0.098163
H	-1.9879486065	 0.8660309956	-1.5942006799	 0.098659
H	-2.6887310535	-0.7693088883	-1.7305172445	 0.106448
52.0165	61.3263	81.9694	115.3172	149.6058	233.2344	257.6774	289.5351	332.6172	336.6387	388.4606	455.5733	540.4907	667.8157	797.4666	840.1667	914.8291	947.7004	960.0218	1001.0651	1020.2055	1036.9163	1058.9782	1102.7878	1130.181	1150.7271	1158.5587	1175.4018	1178.4625	1215.2697	1255.3245	1260.2815	1274.9449	1301.8104	1319.5298	1358.429	1379.4925	1459.9619	1479.1955	1482.2061	1487.296	1506.1934	1514.9822	1528.2547	1533.8503	2960.7918	3002.1184	3011.4408	3026.8619	3033.2128	3043.1037	3057.1453	3064.327	3066.2637	3091.1186	3116.2249	3832.3148
COC1(CCO)COC1	COC1(CCO)COC1	
InChI=1S/C6H12O3/c1-8-6(2-3-7)4-9-5-6/h7H,2-5H2,1H3	InChI=1S/C6H12O3/c1-8-6(2-3-7)4-9-5-6/h7H,2-5H2,1H3
