21
gdb 72034	2.40274	1.88281	1.48958	1.2759	81.09	-0.2348	0.0792	0.314	999.6577	0.184543	-387.108113	-387.100316	-387.099372	-387.139607	32.495	
C	-0.0902357658	 1.4801150065	 0.0109854867	-0.500053
C	 0.016281945	-0.0187720848	-0.0266773477	 0.309771
C	 1.1152802034	-0.7578609509	-0.7898636825	-0.268068
C	 0.6656642862	-2.1989158418	-0.4475625982	-0.048979
C	 0.5679780086	-2.1388997226	 1.0990930965	-0.224425
C	-0.32497664	-0.9062009631	 1.1751785142	-0.181702
C	-1.1996123889	-0.9185819257	-0.072281245	 0.375415
O	-2.4676844023	-0.3535905866	-0.1206748028	-0.483698
C	-0.8244516282	-2.1667594582	-0.865058274	-0.286492
H	 0.7692598382	 1.9303093596	 0.5209966158	 0.109375
H	-0.1326747351	 1.8987119732	-1.0013709947	 0.11479
H	-0.9997763796	 1.7920555997	 0.5314475082	 0.126888
H	 1.0915552845	-0.552031324	-1.8661760013	 0.090459
H	 2.1201617887	-0.5276653468	-0.4173848964	 0.088992
H	 1.266755304	-3.0074818908	-0.8629416402	 0.061615
H	 0.1041502591	-3.0352428172	 1.5262132364	 0.088154
H	 1.5440747832	-1.9968080699	 1.5758475366	 0.092472
H	-0.6798290701	-0.4708907569	 2.1011198906	 0.076412
H	-3.0631210993	-0.9052017099	 0.3980961727	 0.280647
H	-0.9659030686	-2.0378770395	-1.9432551085	 0.096609
H	-1.3745223728	-3.0594248902	-0.5435614863	 0.081818
184.4469	208.0957	226.9804	281.9619	339.3718	374.5344	417.6259	420.9288	504.4346	578.0563	601.1805	683.6287	696.4163	805.0543	897.6841	898.4445	901.0525	912.9858	928.4296	949.0083	953.1701	982.6569	1024.1255	1040.2604	1095.6539	1121.596	1131.0681	1154.1994	1164.5086	1194.6297	1226.8303	1243.4356	1267.2312	1285.9312	1297.9366	1320.7719	1326.328	1358.3122	1419.0758	1455.1204	1487.1685	1490.011	1490.8224	1501.199	1519.6446	3024.3958	3028.8412	3030.0493	3036.4	3070.8903	3075.7985	3079.347	3080.662	3112.2239	3117.3049	3192.4825	3794.6201
CC12CC3CC1C2(O)C3	C[C@@]12C[C@H]3C[C@@H]1[C@]2(O)C3	
InChI=1S/C8H12O/c1-7-3-5-2-6(7)8(7,9)4-5/h5-6,9H,2-4H2,1H3	InChI=1S/C8H12O/c1-7-3-5-2-6(7)8(7,9)4-5/h5-6,9H,2-4H2,1H3/t5-,6+,7-,8-/m1/s1
