15
gdb 125020	2.41269	1.87606	1.06277	2.9922	73.86	-0.2219	-0.0505	0.1714	1058.7053	0.113601	-450.150755	-450.142615	-450.14167	-450.183291	30.432	
C	 0.0647701145	 1.5064740131	 0.0111545795	-0.500521
C	 0.0045409086	 0.0059834459	 0.0020043757	 0.285481
C	-1.1903914191	-0.6760615586	 0.0325924557	 0.154692
N	-2.4315523309	-0.1301654182	 0.1048108413	-0.584399
C	-1.1616028738	-2.1334526464	 0.0140159798	 0.447049
O	-2.1526103575	-2.8514820003	 0.0179660679	-0.408005
N	 0.1289883477	-2.615348098	-0.0173107835	-0.298169
N	 1.2954812799	-1.915447214	-0.0387980901	-0.084691
N	 1.2136691446	-0.645463123	-0.0305827765	-0.253724
H	 1.1064530794	 1.82961225	 0.0143406171	 0.155663
H	-0.4255864522	 1.9371105249	-0.8718959785	 0.127909
H	-0.4339014172	 1.9212142738	 0.8959166962	 0.135073
H	-2.5803134482	 0.8342994213	-0.1348421195	 0.265398
H	-3.19218829	-0.7798307294	-0.0342619334	 0.27961
H	 0.2538452242	-3.619182801	-0.0345013815	 0.278632
111.4671	135.1134	202.5396	269.5068	290.9681	310.7027	335.5208	492.9438	526.6759	536.5767	556.5329	577.9113	638.5281	696.8021	749.4031	796.0708	904.138	957.495	998.9919	1057.66	1087.0666	1207.1372	1276.3314	1304.9941	1343.1414	1402.0542	1454.5406	1484.5999	1491.9568	1519.7673	1608.1817	1645.6262	1768.7503	3016.072	3064.3028	3145.0545	3579.0629	3600.7241	3720.0689
CC1=C(N)C(=O)NN=N1	Cc1c(N)c(=O)[nH]nn1	
InChI=1S/C4H6N4O/c1-2-3(5)4(9)7-8-6-2/h1H3,(H2,5,8)(H,6,7,9)	InChI=1S/C4H6N4O/c1-2-3(5)4(9)7-8-6-2/h1H3,(H2,5,8)(H,6,7,9)
