24
gdb 63639	3.25387	0.98587	0.92126	1.0718	91.03	-0.2186	0.0807	0.2993	1442.3083	0.216312	-368.382057	-368.372199	-368.371255	-368.416892	37.593	
C	 0.003630046	 1.5446655561	-0.3848332247	-0.457788
C	-0.0006604768	 0.0518355389	-0.1062723917	 0.340649
C	-1.2756898996	-0.6501565324	-0.5329890386	-0.436447
C	 1.2900809591	-0.6979904094	-0.1450578406	-0.297414
N	 0.5891482359	-0.4994688657	 1.1250090514	-0.117546
C	 1.205577031	 0.359838795	 2.1134832681	 0.096832
C	 0.2847881848	 0.9001867289	 3.238752493	-0.234777
C	 1.4206757777	 0.6012067933	 4.2546518312	-0.21364
C	 2.049234301	-0.3546219392	 3.2036411672	-0.233801
H	 0.9522299187	 2.0205314171	-0.1289471324	 0.119598
H	-0.1776822352	 1.7247802732	-1.4500448487	 0.118834
H	-0.7940936207	 2.0492866718	 0.1727036742	 0.120513
H	-1.4293381718	-0.5612101946	-1.6147061687	 0.109242
H	-1.2366167351	-1.709764414	-0.270219754	 0.123025
H	-2.1474167678	-0.2103484013	-0.0343839584	 0.113317
H	 1.332587453	-1.7206005784	-0.5133112817	 0.10536
H	 2.1977703097	-0.1196120775	-0.318229901	 0.099693
H	 1.7919577414	 1.1819388591	 1.6738981727	 0.05079
H	-0.0799556375	 1.9269354859	 3.1541948136	 0.090007
H	-0.5665972944	 0.2277295057	 3.3760627306	 0.107631
H	 2.047349789	 1.4788084046	 4.4371457813	 0.099548
H	 1.1364466794	 0.1741367593	 5.218545361	 0.09809
H	 1.6971123765	-1.381893508	 3.3304595363	 0.108281
H	 3.1360266156	-0.3592090986	 3.0900182096	 0.090003
53.8112	108.6179	126.4114	172.0275	202.4128	215.4295	307.6458	366.9453	374.6122	392.1745	439.8157	506.9887	615.6579	710.409	735.3466	790.1563	845.5838	898.9931	911.2078	927.6244	935.3517	950.4949	958.8885	984.5685	1021.6865	1052.2376	1058.9678	1097.0802	1118.9588	1143.8614	1146.7087	1197.7383	1221.0765	1246.839	1250.1275	1260.7365	1275.1617	1287.9042	1298.8433	1371.2046	1383.0766	1408.7052	1419.8252	1474.888	1479.3078	1485.5357	1486.6977	1498.4284	1503.17	1508.9307	1514.7134	2965.5316	3025.4316	3032.827	3056.0578	3057.7693	3063.8153	3079.817	3084.3375	3089.2362	3102.2692	3112.4763	3122.3098	3124.2842	3126.4831	3163.6347
CC1(C)CN1C1CCC1	CC1(C)CN1C1CCC1	
InChI=1S/C8H15N/c1-8(2)6-9(8)7-4-3-5-7/h7H,3-6H2,1-2H3	InChI=1S/C8H15N/c1-8(2)6-9(8)7-4-3-5-7/h7H,3-6H2,1-2H3
