19
gdb 36829	5.66781	0.57849	0.55092	2.0868	87.19	-0.2326	0.0303	0.2629	2007.0527	0.159905	-381.981092	-381.971816	-381.970872	-382.017796	32.919	
C	 0.0065132888	 1.4882319845	-0.4148557379	-0.391774
C	-0.0150089695	 0.0377379066	-0.2414601017	 0.050677
C	-0.0027792849	-1.1589707924	-0.0943281798	 0.109921
C	-0.0020957438	-2.5875483478	 0.0523736518	-0.155778
C	-0.3413142222	-3.20516558	 1.3697557486	-0.22611
N	-1.279949042	-3.3184084126	 0.2493340892	-0.307646
C	 1.3848802033	 2.0952208491	-0.1947823478	 0.051269
C	 1.5072579537	 3.4710109188	 0.3437298529	-0.248942
N	 1.8993600543	 2.3078663742	 1.1620196102	-0.304566
H	-0.3421491886	 1.7461070798	-1.4244214443	 0.136458
H	-0.7057667931	 1.9551370859	 0.2798975824	 0.120777
H	 0.6929803378	-3.1197883955	-0.5921613867	 0.116773
H	 0.142938009	-4.133625327	 1.6587540657	 0.125267
H	-0.5745523861	-2.5317660011	 2.1890009002	 0.121324
H	-2.0284064595	-2.6383741106	 0.3610327582	 0.238265
H	 2.141024889	 1.738521133	-0.8906053574	 0.10368
H	 2.3276235571	 4.1120937967	 0.0342815688	 0.121632
H	 0.5907344798	 4.0012852412	 0.5926940115	 0.109284
H	 1.173234617	 2.1005128072	 1.8443341162	 0.229488
14.566	53.4369	82.0546	142.3454	172.4348	307.4437	320.6261	375.2764	479.7175	519.3152	536.1422	727.4993	784.634	813.5765	830.0192	877.7364	923.6276	936.6655	959.8507	975.7934	995.534	1050.9827	1085.2928	1119.6901	1126.1011	1149.2693	1156.9641	1177.0612	1217.7932	1245.5445	1257.1181	1265.278	1298.0424	1311.2643	1323.2731	1396.6272	1418.6998	1462.6357	1504.4356	1514.6737	2360.5481	3003.9845	3035.538	3105.464	3114.6627	3134.4889	3137.2094	3190.4587	3205.1017	3490.7228	3503.1581
C(C#CC1CN1)C1CN1	C(C#C[C@H]1CN1)[C@H]1CN1	
InChI=1S/C7H10N2/c1(2-6-4-8-6)3-7-5-9-7/h6-9H,2,4-5H2	InChI=1S/C7H10N2/c1(2-6-4-8-6)3-7-5-9-7/h6-9H,2,4-5H2/t6-,7-/m0/s1
