15
gdb 19035	4.09883	2.21484	1.86387	3.3397	64.27	-0.2404	-0.0262	0.2141	732.7901	0.121079	-362.639962	-362.63418	-362.633235	-362.669734	23.358	
O	 0.0175271468	-0.004033706	-0.1920451079	-0.324009
C	-0.0260427445	 1.1872465459	-0.0171572665	 0.408104
C	-1.2888727271	 2.0483372222	 0.1361172152	-0.328953
C	-0.7339071103	 3.3990568061	 0.5919571729	-0.074303
C	 0.0585146319	 3.2059867751	 1.9076618029	-0.156835
N	 1.3571575703	 3.0651996799	 1.1625709665	-0.140633
C	 0.6672277923	 3.5246540214	-0.075912537	-0.049989
C	 1.1517783717	 2.1228032502	 0.001442415	-0.134434
H	-1.7742727832	 2.1199421972	-0.8453235556	 0.132566
H	-2.0002311299	 1.593978347	 0.8315746049	 0.127952
H	-1.4250813704	 4.2377988641	 0.5295538807	 0.084696
H	 0.1261944724	 4.1114114947	 2.5147532831	 0.120405
H	-0.2094625294	 2.3564606635	 2.5458743487	 0.112115
H	 1.0591249517	 4.2954041758	-0.7289450698	 0.106329
H	 2.0884692778	 1.7986980229	-0.4348967031	 0.11699
130.0191	325.2256	383.3135	444.0246	558.7835	600.7506	648.8033	742.4468	775.8801	819.8654	844.4022	884.4599	892.1682	937.4322	962.6582	1011.0174	1030.3604	1050.3602	1079.5262	1140.9044	1153.6971	1181.6126	1198.6785	1234.7171	1263.9105	1277.9998	1303.7513	1328.6608	1345.8247	1452.434	1502.9368	1836.6257	3039.3098	3041.313	3100.1387	3109.2657	3128.118	3184.3524	3201.9883
O=C1CC2CN3C2C13	O=C1C[C@H]2CN3[C@H]2[C@H]13	
InChI=1S/C6H7NO/c8-4-1-3-2-7-5(3)6(4)7/h3,5-6H,1-2H2	InChI=1S/C6H7NO/c8-4-1-3-2-7-5(3)6(4)7/h3,5-6H,1-2H2/t3-,5+,6-,7?/m0/s1
