21
gdb 43735	3.86609	1.03621	1.00629	3.0283	82.02	-0.2382	-0.0169	0.2213	1273.9236	0.182974	-387.119321	-387.110766	-387.109822	-387.154144	32.643	
O	-0.3606823852	 0.042729067	-0.3326869332	-0.291691
C	-0.1925766804	 1.1867410515	-0.0243475957	 0.413831
C	-1.1265889347	 2.3058199814	 0.4589436366	-0.401939
C	 0.1496166723	 3.166209763	 0.7760725485	 0.363714
C	 1.0471208622	 2.0840686106	 0.1003503525	-0.429952
C	 0.1648162575	 4.5907571223	 0.2096068668	-0.275176
C	-0.5872542174	 5.443366274	 1.2602763527	-0.20182
C	-0.4955431704	 4.64181949	 2.5947158011	-0.203401
C	 0.3763548779	 3.4085667745	 2.2750769878	-0.264034
H	-1.748780193	 2.7016526956	-0.3516003797	 0.124867
H	-1.7798950793	 2.0419734222	 1.2961865591	 0.125106
H	 1.8700400483	 1.6725412289	 0.6929284106	 0.125193
H	 1.441691112	 2.3780574872	-0.8790224139	 0.126391
H	 1.2055539488	 4.9272073126	 0.1237169643	 0.099023
H	-0.274898825	 4.6555891194	-0.7908308224	 0.092114
H	-0.1544221875	 6.4433937669	 1.3478393934	 0.10085
H	-1.6328911048	 5.5814722248	 0.9696495989	 0.102027
H	-0.0789853829	 5.2351017846	 3.4128677655	 0.099869
H	-1.4936038557	 4.3263567101	 2.9147868465	 0.102021
H	 0.1344287608	 2.5381754615	 2.893647784	 0.095422
H	 1.4365014666	 3.637519682	 2.4420517964	 0.097585
26.2685	40.0531	131.3812	255.2068	349.6531	357.8984	394.1944	425.4785	511.212	622.4346	661.1395	679.7225	725.4484	798.6708	810.6857	880.6754	885.5637	911.1464	918.6926	973.7466	990.3085	1001.4034	1034.1236	1069.9445	1084.6171	1116.3727	1133.5989	1192.7733	1199.4514	1214.8236	1231.5405	1251.3461	1279.4659	1287.1971	1314.1591	1329.8082	1340.5438	1360.3987	1423.5399	1441.7275	1484.0532	1493.5962	1496.7112	1517.2656	1891.9395	3022.8595	3028.5433	3040.5137	3045.8669	3046.1366	3057.8053	3070.7252	3077.1144	3085.8449	3096.4301	3098.682	3105.6094
O=C1CC2(C1)CCCC2	O=C1CC2(C1)CCCC2	
InChI=1S/C8H12O/c9-7-5-8(6-7)3-1-2-4-8/h1-6H2	InChI=1S/C8H12O/c9-7-5-8(6-7)3-1-2-4-8/h1-6H2
