16
gdb 6993	2.78037	1.96187	1.5184	2.2976	61.03	-0.241	-0.0312	0.2098	877.9445	0.126841	-420.877118	-420.8682	-420.867256	-420.910612	31.989	
C	-0.1234947219	 1.5648331215	 0.0106856178	-0.424815
C	-0.0955126463	 0.038092696	-0.044674292	 0.273482
O	-1.3826391428	-0.5173368368	 0.1186391856	-0.477075
C	 0.7038879333	-0.5397124092	-1.2571762208	 0.081827
O	 0.8692924628	 0.3708270911	-2.3128700603	-0.425939
C	 1.9341690686	-0.8176685602	-0.3259532837	-0.400762
C	 0.9802290852	-0.6072589117	 0.8510693977	 0.351455
O	 0.944776372	-0.9686764627	 1.9940226452	-0.312351
H	 0.867584861	 2.0011256036	-0.1395361543	 0.122672
H	-0.7829318409	 1.9393409429	-0.7756937667	 0.143098
H	-0.5071846001	 1.8875621228	 0.9830021021	 0.120295
H	-1.4932518686	-0.6963975198	 1.0608493659	 0.292261
H	 0.2298182297	-1.4735497573	-1.5818607548	 0.094217
H	 1.3363687826	-0.0715807793	-3.0280236267	 0.291694
H	 2.4424395249	-1.7822129043	-0.3850000032	 0.130407
H	 2.6705515404	-0.0102522668	-0.4016353418	 0.139534
46.5133	133.0685	205.1419	212.5711	229.4659	249.0991	277.371	327.4078	400.5933	462.4511	498.1951	602.8505	656.9826	718.6079	803.9639	857.277	922.7385	981.6298	1030.167	1084.7011	1105.8819	1123.1216	1162.0339	1197.5398	1218.8949	1255.0168	1316.9251	1352.9965	1397.9487	1419.6699	1442.0586	1481.7875	1486.8612	1884.0638	3039.0117	3046.2444	3057.5731	3121.7815	3126.0974	3133.2988	3780.2414	3827.1086
CC1(O)C(O)CC1=O	C[C@@]1(O)[C@@H](O)CC1=O	
InChI=1S/C5H8O3/c1-5(8)3(6)2-4(5)7/h3,6,8H,2H2,1H3	InChI=1S/C5H8O3/c1-5(8)3(6)2-4(5)7/h3,6,8H,2H2,1H3/t3-,5+/m0/s1
