18
gdb 26989	3.06337	1.1928	0.87843	1.1785	85.01	-0.1941	0.0452	0.2393	1304.2893	0.147021	-364.822597	-364.813406	-364.812462	-364.857412	33.819	
C	-0.7918816639	 1.4962089308	 0.3817841041	-0.507484
C	-0.2571334659	 0.1111332861	 0.1683341615	 0.191732
C	 0.2893025376	-0.3969539448	-0.9946816234	 0.236624
C	 0.4865298466	 0.2417785955	-2.3451236586	-0.474082
C	 1.4979879134	-0.4271728264	-3.1600778176	 0.287303
C	 2.3140799296	-1.0149853484	-3.8190647746	-0.438632
N	 0.6220278986	-1.70926199	-0.767023091	-0.28712
C	 0.313149886	-2.0533155619	 0.5222768594	-0.092352
C	-0.2375832796	-0.9478429468	 1.125167191	-0.231991
H	-0.3595117472	 2.2136098809	-0.3239397984	 0.113526
H	-1.8818762272	 1.545577741	 0.2617893437	 0.123648
H	-0.5653670282	 1.8552759346	 1.3910915252	 0.123655
H	-0.4575076877	 0.2612949628	-2.9104888179	 0.145726
H	 0.7672268567	 1.2937408403	-2.209043164	 0.147967
H	 3.0450592872	-1.5049978922	-4.413499365	 0.200033
H	 1.0988269027	-2.2851590799	-1.4405986226	 0.260623
H	 0.5216591474	-3.0410946564	 0.9003186329	 0.113843
H	-0.5896317962	-0.8908705853	 2.1446673951	 0.086981
32.7844	77.9755	121.0753	214.4193	232.5565	265.2713	329.5608	375.4256	496.4151	512.6027	618.0275	624.53	643.0027	655.0743	656.1378	710.7709	765.8357	820.3518	918.7906	943.0239	957.2149	985.0073	1059.6736	1074.6529	1110.1423	1178.1174	1216.7011	1263.1099	1299.1133	1330.1443	1419.2121	1430.9781	1464.7672	1484.8686	1491.3553	1499.5485	1513.624	1623.6263	2235.8752	2989.1842	3017.4758	3039.0478	3069.0862	3095.1196	3237.2732	3268.659	3504.4262	3663.1811
CC1=C(CC#C)NC=C1	Cc1c(CC#C)[nH]cc1	
InChI=1S/C8H9N/c1-3-4-8-7(2)5-6-9-8/h1,5-6,9H,4H2,2H3	InChI=1S/C8H9N/c1-3-4-8-7(2)5-6-9-8/h1,5-6,9H,4H2,2H3
