22
gdb 79201	2.2895	1.95721	1.39348	1.4191	85.64	-0.2158	0.0883	0.3041	1046.6462	0.195939	-367.15541	-367.147362	-367.146418	-367.187367	33.069	
C	-0.0952665254	 1.5911611171	-0.017112462	-0.439534
C	 0.0503586406	 0.075386674	 0.0902634074	-0.032778
N	 1.1519738041	-0.7935020001	-0.4087559084	-0.168199
C	 2.5594994963	-0.2955407413	-0.316145562	 0.010565
C	 3.0935105445	-1.2606166985	 0.7878611135	-0.206601
C	 2.1443544492	-0.363065909	 1.6713298916	-0.096163
C	 2.6481942311	 0.8020659151	 0.7836112405	-0.249249
C	 0.801031551	-0.7920603117	 1.051623857	 0.308079
C	 0.1248146526	-2.0010869604	 1.6574758823	-0.466985
H	 0.5629766188	 2.0166230798	-0.7795548888	 0.134745
H	-1.1217109361	 1.8247131777	-0.3143851508	 0.115398
H	 0.0931883425	 2.1121755844	 0.9251519726	 0.131141
H	-0.881107503	-0.407253045	-0.2056893928	 0.089249
H	 3.0302897334	-0.189371226	-1.2930906612	 0.068855
H	 2.8433404648	-2.3170242646	 0.6726358403	 0.102515
H	 4.152976417	-1.1308798495	 1.0188335727	 0.092712
H	 2.2088146019	-0.3396117609	 2.7594684439	 0.061269
H	 3.6914763762	 1.0375489564	 1.00571489	 0.09566
H	 2.0863487612	 1.7247270972	 0.7057752439	 0.095691
H	-0.4079214446	-1.7270002326	 2.5759368539	 0.11293
H	-0.5987224273	-2.4319639623	 0.9602948047	 0.124805
H	 0.8501372213	-2.7808911098	 1.9139140218	 0.115895
129.0352	180.1561	234.7226	242.0478	289.075	305.6837	415.0336	529.5198	545.6589	557.2512	667.0529	700.4267	709.7007	779.0468	834.2899	840.1598	883.9932	890.1573	926.5	965.7695	1002.9243	1026.2238	1037.5186	1045.1641	1060.6569	1092.0366	1103.9074	1110.0302	1119.1126	1144.6759	1157.3886	1210.667	1225.2058	1240.703	1246.8901	1290.614	1317.5321	1363.593	1409.7783	1411.9492	1448.9462	1482.2466	1488.4526	1494.6713	1499.9948	1506.5546	1537.9353	3026.5468	3042.1568	3067.078	3085.1296	3086.2104	3087.7162	3109.7958	3112.1802	3113.5974	3114.9889	3120.4987	3134.036	3206.4927
CC1N2C3CC(C3)C12C	C[C@H]1N2[C@@H]3C[C@@H](C3)[C@@]12C	
InChI=1S/C8H13N/c1-5-8(2)6-3-7(4-6)9(5)8/h5-7H,3-4H2,1-2H3	InChI=1S/C8H13N/c1-5-8(2)6-3-7(4-6)9(5)8/h5-7H,3-4H2,1-2H3/t5-,6-,7+,8-,9?/m1/s1
