19
gdb 75912	2.72814	1.50875	1.08551	2.2283	75.31	-0.2401	0.0302	0.2703	1123.3168	0.160964	-419.230334	-419.221913	-419.220969	-419.263436	32.231	
C	-0.037012227	 1.6311150032	-0.0546600186	-0.409468
C	 0.1380135457	 0.1170476772	 0.0120948078	-0.212491
C	 0.9811391835	-0.4243746745	-1.1564637513	 0.431373
O	 0.956052939	-0.0346377222	-2.3036400281	-0.388545
N	 1.7539872716	-1.4370028021	-0.6625125608	-0.328356
C	 1.5525247847	-1.7385190839	 0.7442712516	-0.219992
C	 0.8179949352	-0.4885793431	 1.2391177312	 0.333353
C	 1.3453460473	 0.3270018982	 2.3609265226	-0.282243
N	 0.1907091589	-0.5751957924	 2.5557857607	-0.365249
H	 0.9225880039	 2.1476248543	 0.0394538429	 0.126784
H	-0.4655835395	 1.8995416714	-1.0231630108	 0.14598
H	-0.7054315655	 1.9967243744	 0.7319339702	 0.106723
H	-0.8497744819	-0.3573939185	-0.0994278436	 0.106929
H	 2.3087305412	-2.0044521363	-1.2834105305	 0.252556
H	 0.9318999086	-2.6330378851	 0.8938905939	 0.116406
H	 2.5022992363	-1.8956175478	 1.2651883025	 0.116415
H	 2.2536421828	 0.0206451707	 2.8735568309	 0.117758
H	 1.1719014477	 1.3987046762	 2.3509504522	 0.119288
H	-0.6711802825	-0.0338011097	 2.571047227	 0.232778
60.0104	144.5771	216.5047	238.2931	269.1653	297.6089	346.8439	445.0272	495.6568	508.6648	539.7289	654.9411	704.7588	757.7412	814.7408	857.5472	919.0027	936.9064	977.828	1026.1309	1040.3734	1060.0246	1075.6722	1097.2894	1126.98	1145.7228	1201.956	1246.1086	1263.5804	1271.3364	1311.1109	1334.7822	1370.4997	1394.1755	1409.858	1452.4957	1491.5444	1500.5643	1515.5832	1530.1741	1829.1236	2986.9713	3005.9535	3039.0837	3067.6926	3107.1417	3111.5473	3128.2212	3198.6647	3487.1834	3642.0688
CC1C(=O)NCC11CN1	C[C@H]1C(=O)NC[C@]21CN2	
InChI=1S/C6H10N2O/c1-4-5(9)7-2-6(4)3-8-6/h4,8H,2-3H2,1H3,(H,7,9)	InChI=1S/C6H10N2O/c1-4-5(9)7-2-6(4)3-8-6/h4,8H,2-3H2,1H3,(H,7,9)/t4-,6+/m0/s1
