20
gdb 35970	2.96474	1.18462	0.91139	5.0619	79.59	-0.2714	0.0219	0.2933	1290.8584	0.172823	-403.165415	-403.156807	-403.155863	-403.199064	32.349	
N	 0.1565284431	-1.2046935099	 0.0240556051	-0.319235
C	 0.1120090311	-0.0507254674	 0.0198710638	 0.286833
C	 0.0093490875	 1.4201968913	 0.0199728141	-0.036336
C	-0.8508836389	 1.895122852	 1.2101295732	-0.203257
C	-1.4522808684	 3.3143120112	 1.0775405332	-0.213435
C	-0.7126895736	 4.3157663541	 0.1691004132	-0.199417
C	 0.8177738903	 4.3464072292	 0.302024433	-0.200097
C	 1.5265327582	 3.218301751	-0.4522235581	-0.070661
O	 1.3330472556	 1.9196386514	 0.0880245825	-0.248652
H	-0.4604058616	 1.7062198465	-0.935174428	 0.113675
H	-1.6593694566	 1.175903331	 1.3743662247	 0.122631
H	-0.1954135446	 1.830231672	 2.084129715	 0.128379
H	-2.4830575449	 3.2347320439	 0.7141310165	 0.107361
H	-1.5270191199	 3.7358693379	 2.0863446788	 0.110196
H	-0.9625695527	 4.1162500091	-0.8817823332	 0.097878
H	-1.1163597152	 5.3124281329	 0.3787268203	 0.101778
H	 1.1945311086	 5.2898233199	-0.1129450717	 0.103343
H	 1.1204334441	 4.3259198225	 1.3562884486	 0.108492
H	 1.2144496923	 3.2326695596	-1.5102557439	 0.093383
H	 2.6097585056	 3.367328912	-0.4244693772	 0.117144
63.5067	107.0951	156.1943	205.2014	302.1265	315.2856	333.0223	397.2897	504.3828	521.3244	544.1943	563.3778	750.7623	776.3603	864.085	880.1241	894.6409	966.4696	1003.3415	1013.6773	1029.2596	1045.8154	1120.4775	1134.1524	1147.5629	1210.6998	1227.42	1261.7645	1293.1678	1312.8488	1315.1906	1368.649	1372.8379	1382.3072	1390.0939	1402.2046	1419.7171	1472.3789	1478.093	1488.8967	1495.8722	1505.5043	2365.8998	2966.4954	2978.0423	3014.6744	3024.6979	3032.9588	3054.5141	3058.7555	3067.7378	3071.0944	3088.7658	3099.3953
N#CC1CCCCCO1	N#C[C@H]1CCCCCO1	
InChI=1S/C7H11NO/c8-6-7-4-2-1-3-5-9-7/h7H,1-5H2	InChI=1S/C7H11NO/c8-6-7-4-2-1-3-5-9-7/h7H,1-5H2/t7-/m1/s1
