17
gdb 74107	2.46413	1.62596	1.07929	4.3345	76.74	-0.2417	-0.0535	0.1882	1114.5267	0.136075	-421.84976	-421.841894	-421.84095	-421.8822	29.895	
C	-0.2193398956	 1.5284309799	 0.0208033197	-0.475345
C	 0.026983493	 0.0476194601	-0.0050869081	 0.32389
C	-0.0903229109	-0.6755031766	-1.1310210164	-0.265654
C	 0.1105805979	-2.1314572861	-1.1959601977	 0.403785
O	-0.2472392755	-2.8070595565	-2.1422466745	-0.34063
C	 0.7778798855	-2.7688949711	-0.0073184274	-0.084821
O	 2.0318219937	-2.1815079974	 0.3841169986	-0.246306
C	 0.9141507278	-1.9891557965	 1.2381550973	 0.047599
C	 0.3780425288	-0.5796017319	 1.3225262408	-0.34752
H	 0.6905648819	 2.0647253359	 0.3185253829	 0.140166
H	-0.5370631043	 1.903834712	-0.954181635	 0.135895
H	-0.9877690013	 1.7865450021	 0.7604460974	 0.133741
H	-0.3965415112	-0.2095761493	-2.0629934232	 0.10465
H	 0.7474696049	-3.8559809191	 0.009218861	 0.109037
H	 0.9684110245	-2.5341496249	 2.1806563199	 0.102113
H	 1.1133696911	 0.0506466262	 1.8417391131	 0.129747
H	-0.5142827802	-0.5722133671	 1.9653825816	 0.129655
101.5078	140.4469	188.8327	262.0575	304.9966	348.9242	448.4774	457.6694	475.8731	539.3359	632.5312	744.8215	790.2702	851.5668	873.8842	901.6808	925.6859	955.4392	1002.2271	1032.0421	1061.0139	1085.7159	1134.9982	1158.0697	1238.3233	1270.8648	1277.5027	1331.2113	1361.9249	1390.1463	1411.5372	1446.0903	1457.1758	1477.2681	1482.662	1696.114	1770.2231	3008.1902	3021.9829	3036.2534	3069.8109	3111.0331	3126.893	3149.3621	3177.5641
CC1=CC(=O)C2OC2C1	CC1=CC(=O)[C@H]2O[C@H]2C1	
InChI=1S/C7H8O2/c1-4-2-5(8)7-6(3-4)9-7/h2,6-7H,3H2,1H3	InChI=1S/C7H8O2/c1-4-2-5(8)7-6(3-4)9-7/h2,6-7H,3H2,1H3/t6-,7+/m0/s1
