20
gdb 90630	3.44113	1.08214	0.99823	4.4534	84.58	-0.2766	0.0361	0.3127	1279.5088	0.170793	-366.007424	-365.998499	-365.997555	-366.040617	34.149	
C	-0.0592987158	 1.5032229812	-0.0257239354	-0.412541
C	 0.0167883182	-0.0178405562	 0.0378684201	 0.002073
C	 1.0957574804	-0.6490086836	-0.9088855764	-0.275668
C	 1.8620980775	-1.1495083004	 0.3200020955	-0.073704
C	 0.8123183207	-0.5460311178	 1.2444244381	-0.073365
C	 0.9908441722	-2.058449501	 1.1804133308	 0.143336
C	-0.0440702818	-3.0359379586	 0.6413038928	-0.471337
C	 1.7039277935	-2.5753278745	 2.3282832022	 0.232577
N	 2.2616116711	-3.0072745232	 3.2455490632	-0.346358
H	 0.93256963	 1.9536107549	 0.0917298646	 0.12021
H	-0.4678374124	 1.8322739364	-0.9869669626	 0.119432
H	-0.7025628511	 1.8995652051	 0.767252738	 0.120686
H	-0.9897744869	-0.4374924127	-0.0623584575	 0.076246
H	 0.7659652772	-1.4036533541	-1.6288132961	 0.104135
H	 1.6513789199	 0.1216431275	-1.4486053414	 0.113073
H	 2.9391937529	-1.1713307518	 0.4303084261	 0.109127
H	 0.9462792427	-0.0204512537	 2.1828299002	 0.105982
H	-0.5572697205	-2.6365100141	-0.2340674616	 0.130414
H	 0.4329600508	-3.9773438392	 0.3533994838	 0.137809
H	-0.7965662087	-3.2577954843	 1.4037651054	 0.137873
121.7448	145.3026	159.0165	201.581	251.8584	264.9587	299.3549	348.4078	423.255	456.7903	556.8125	572.6963	659.2463	713.5005	832.4841	843.6306	873.2338	903.5308	936.7142	955.4761	996.0708	1024.3421	1033.2146	1069.4917	1106.278	1111.086	1127.3365	1171.8877	1211.6611	1249.9481	1256.7256	1278.2137	1291.1813	1359.6784	1384.3423	1409.6287	1420.8187	1483.3204	1494.1366	1496.4767	1500.5849	1505.1408	2347.5843	3027.6091	3044.1567	3051.348	3057.3664	3096.9396	3100.5642	3108.8223	3112.6884	3148.9815	3179.0374	3193.0977
CC1CC2C1C2(C)C#N	C[C@H]1C[C@H]2[C@@H]1[C@]2(C)C#N	
InChI=1S/C8H11N/c1-5-3-6-7(5)8(6,2)4-9/h5-7H,3H2,1-2H3	InChI=1S/C8H11N/c1-5-3-6-7(5)8(6,2)4-9/h5-7H,3H2,1-2H3/t5-,6-,7+,8+/m0/s1
