18
gdb 125548	4.74249	1.23888	1.00624	3.2109	80.34	-0.1955	0.0447	0.2402	1183.3544	0.151277	-398.155232	-398.147496	-398.146552	-398.187545	29.392	
C	 0.0350612964	 1.4216557379	-0.0836353999	-0.488063
C	 0.0028843925	-0.0698446328	 0.0350288696	 0.374279
N	 0.0265758736	-0.8296724615	-1.0617657368	-0.364038
N	 0.0424435132	-2.0925475345	-0.56668946	 0.041433
C	-0.1609082679	-3.38248467	-1.1885208166	-0.166797
C	 0.1363860577	-4.303908468	 0.02384057	-0.180079
N	-0.2014206218	-3.4648391812	 1.2018646711	-0.411923
C	-0.0389286726	-2.1428515191	 0.7802851698	 0.45735
C	-0.0461178969	-0.8416352232	 1.2351936676	-0.473996
H	 0.9440533241	 1.8418424846	 0.3621350127	 0.123502
H	 0.0049662969	 1.7097749138	-1.1366143789	 0.136291
H	-0.8177741402	 1.8820617545	 0.4274360743	 0.123144
H	-1.1932152641	-3.4922068591	-1.5450188802	 0.12533
H	 0.5199938755	-3.5509963029	-2.0255723882	 0.131638
H	-0.4642713292	-5.2159072369	 0.0106391058	 0.12201
H	 1.1984911177	-4.5842073466	 0.0220604107	 0.113929
H	 0.2961963231	-3.7156993666	 2.0454411176	 0.244557
H	-0.082563368	-0.4852225383	 2.2509757914	 0.091432
105.9569	119.4703	190.7175	235.5608	274.1193	346.5976	492.1333	538.7037	605.599	663.8742	692.3934	737.6451	746.8071	783.5292	843.7637	900.1174	951.7987	981.9883	1024.6566	1043.6971	1062.3929	1124.483	1135.8476	1169.2657	1204.3776	1247.9223	1299.3723	1325.4136	1346.2248	1386.3443	1401.0874	1427.8077	1481.1022	1483.4985	1501.1665	1507.1963	1526.146	1547.816	1618.6643	3009.7248	3023.3581	3030.9152	3080.5353	3098.6954	3106.733	3130.3263	3269.1811	3578.2716
CC1=NN2CCNC2=C1	Cc1nn2CCNc2c1	
InChI=1S/C6H9N3/c1-5-4-6-7-2-3-9(6)8-5/h4,7H,2-3H2,1H3	InChI=1S/C6H9N3/c1-5-4-6-7-2-3-9(6)8-5/h4,7H,2-3H2,1H3
