19
gdb 52435	11.54646	0.42785	0.42064	2.237	80.55	-0.2567	-0.0285	0.2282	2459.4982	0.154953	-422.990338	-422.979615	-422.97867	-423.028229	35.991	
O	-0.6019877682	 0.8179359053	 0.8135215152	-0.230942
C	 0.0783772609	 1.0339318415	-0.1550744254	 0.153545
C	 1.3128130333	 1.9064856057	-0.1693666941	-0.281005
C	 1.2288871013	 3.004784137	-1.2291629398	-0.06195
O	 2.4950534219	 3.6166060229	-1.3262395152	-0.242385
C	 2.5344046052	 4.6747607351	-2.2591766358	-0.052882
C	 3.9591223109	 5.2388928741	-2.2560896107	-0.35044
C	 4.1138365353	 6.3439294265	-3.1918757091	 0.285654
C	 4.2122864769	 7.2526665758	-3.9719253291	-0.445504
H	-0.1711790631	 0.5761086048	-1.141755097	 0.073908
H	 1.4726137604	 2.3265356135	 0.8260991083	 0.132242
H	 2.1718189721	 1.2686744733	-0.420668728	 0.133037
H	 0.9322534425	 2.5764986186	-2.2025854121	 0.09323
H	 0.4601738558	 3.7453547241	-0.9540464479	 0.105053
H	 2.2706833523	 4.3191670073	-3.2677467134	 0.102274
H	 1.8149499579	 5.4634904093	-1.989167965	 0.104432
H	 4.204678907	 5.5632850278	-1.2380024777	 0.142355
H	 4.656728159	 4.4296733624	-2.5022815846	 0.140965
H	 4.3140361487	 8.0574996749	-4.6569053587	 0.198412
35.0294	53.0868	64.5041	89.2684	122.4763	146.6572	175.6525	267.9613	347.8401	354.2365	455.2659	506.4366	556.5084	625.7965	652.0122	788.5788	798.7448	870.679	959.0133	1001.8399	1033.3791	1058.3673	1089.1458	1121.7059	1139.7465	1162.5563	1219.6807	1239.2473	1275.6869	1301.04	1305.7137	1310.9169	1395.7816	1431.8887	1448.6224	1467.3791	1477.4931	1514.9172	1537.2028	1838.8614	2242.8214	2850.5426	2951.0258	2975.8689	2986.4902	3007.3847	3027.1521	3035.5667	3073.2766	3118.3242	3507.2146
O=CCCOCCC#C	O=CCCOCCC#C	
InChI=1S/C7H10O2/c1-2-3-6-9-7-4-5-8/h1,5H,3-4,6-7H2	InChI=1S/C7H10O2/c1-2-3-6-9-7-4-5-8/h1,5H,3-4,6-7H2
