18
gdb 117474	6.23925	0.62917	0.58654	5.3595	73.23	-0.2499	-0.0307	0.2191	1865.5479	0.143894	-476.20611	-476.195785	-476.194841	-476.243129	34.463	
C	 0.0417542642	 1.0907003216	-0.2230460974	-0.229053
O	-0.1495301932	-0.3045193922	-0.3065798461	-0.209543
C	-1.3823156428	-0.7141847172	 0.1916353371	-0.155908
C	-1.4995756524	-2.2317137125	 0.1353664559	 0.346296
O	-0.5717555629	-2.9659036331	-0.0772490609	-0.262674
C	-2.9212889999	-2.7654054395	 0.3568311412	-0.204135
O	-2.9478092817	-4.1007108361	 0.7966822115	-0.167319
C	-2.6322383948	-5.0539088833	-0.1150320701	 0.14881
N	-2.5895549427	-6.2597279269	 0.2454061931	-0.443569
H	 1.0309537436	 1.3034942252	-0.6331595548	 0.14001
H	-0.7131580637	 1.6424077853	-0.8048675432	 0.107771
H	 0.0019498581	 1.4450168953	 0.8186423446	 0.110784
H	-1.5246446767	-0.4145329955	 1.2484327314	 0.118136
H	-2.2283253689	-0.2662641413	-0.3645009521	 0.104619
H	-3.4389522888	-2.1752549223	 1.119362574	 0.140132
H	-3.4784068367	-2.632594549	-0.585195085	 0.131691
H	-2.4597767887	-4.6583220729	-1.1226727138	 0.092769
H	-2.3614973019	-6.8519333658	-0.5501575853	 0.231184
36.9089	69.6153	79.3532	95.859	154.2349	170.5322	233.4256	275.6952	304.6996	357.655	390.4047	460.7244	621.5342	732.9066	811.842	826.4138	909.0314	961.896	997.0518	1032.3723	1062.9255	1095.4942	1174.2434	1182.8772	1185.1487	1236.3383	1241.3224	1267.0586	1323.7569	1384.9534	1411.3062	1421.6625	1466.0413	1472.0627	1487.2699	1490.8523	1515.4888	1750.1252	1845.9056	2921.1849	2938.4667	2974.5097	2981.6466	3021.2814	3051.2919	3087.2441	3126.2976	3523.2201
COCC(=O)COC=N	COCC(=O)CO[CH][NH]	
InChI=1S/C5H9NO3/c1-8-2-5(7)3-9-4-6/h4,6H,2-3H2,1H3	InChI=1S/C5H9NO3/c1-8-2-5(7)3-9-4-6/h4,6H,2-3H2,1H3
