21
gdb 103869	4.29535	0.75239	0.7074	1.5943	85.61	-0.2555	0.0575	0.313	1635.2473	0.17944	-387.040213	-387.029659	-387.028715	-387.075983	38.686	
C	 0.0095240887	 1.5961806115	-0.0858857917	-0.466479
C	-0.0675156706	 0.086549314	 0.0511974473	 0.334989
C	-1.3201762415	-0.5125406846	-0.5508961783	-0.139275
O	-1.3261797579	-0.2420461247	-1.9477734763	-0.420964
C	 1.1982985053	-0.7358014855	-0.0482283446	-0.308181
C	 0.4787861145	-0.6243589949	 1.2724834132	-0.044919
C	 1.0934534769	 0.1242004421	 2.4490763186	-0.389679
C	 1.9615545513	-0.7265702717	 3.2588924687	 0.309591
C	 2.6652427105	-1.4441035487	 3.9181710713	-0.446942
H	 0.9721361795	 1.9954968448	 0.2425890448	 0.111083
H	-0.1285829928	 1.8750984225	-1.1338899379	 0.138118
H	-0.7769315564	 2.0893384777	 0.4988274146	 0.108432
H	-1.3405285423	-1.5971735621	-0.3600593089	 0.081284
H	-2.2081101606	-0.0754460014	-0.0643042439	 0.082999
H	-2.18303183	-0.5001196615	-2.2994922363	 0.28669
H	 1.1667370542	-1.6792797399	-0.5822025643	 0.113235
H	 2.1360390085	-0.1991832668	-0.1544507441	 0.110033
H	-0.0724271026	-1.5082395772	 1.583953566	 0.08861
H	 1.6685961108	 0.9854383459	 2.091700259	 0.12909
H	 0.2979810602	 0.5352503178	 3.0854850798	 0.129412
H	 3.2930319243	-2.0701853274	 4.5019859333	 0.192871
48.9302	82.1323	117.8717	173.693	181.6775	241.8208	248.3857	295.0227	337.8093	346.8687	366.813	414.1795	469.8945	607.7412	614.177	634.064	705.7756	853.0659	863.1369	894.554	940.0166	951.0167	980.3446	1001.304	1027.5906	1066.7116	1077.9838	1111.1148	1129.4482	1167.1968	1234.2004	1241.4821	1250.4428	1288.6466	1326.0562	1360.2252	1413.205	1427.747	1461.0641	1466.1892	1488.5122	1496.4359	1512.7087	1517.9222	2238.4513	2957.3519	2990.7633	3016.2475	3028.7467	3063.035	3097.5442	3121.7587	3128.5579	3136.4097	3211.7498	3507.4651	3831.783
CC1(CO)CC1CC#C	C[C@@]1(CO)C[C@H]1CC#C	
InChI=1S/C8H12O/c1-3-4-7-5-8(7,2)6-9/h1,7,9H,4-6H2,2H3	InChI=1S/C8H12O/c1-3-4-7-5-8(7,2)6-9/h1,7,9H,4-6H2,2H3/t7-,8+/m1/s1
