16
gdb 45599	2.97978	1.56041	1.22568	3.6101	64.17	-0.244	0.0131	0.2571	999.6273	0.126624	-475.028645	-475.021413	-475.020469	-475.06078	27.443	
O	-0.190487678	 0.0236386913	 0.1971898966	-0.349764
C	-0.0869482451	 1.2109445031	 0.0679557436	 0.364635
N	-1.0025681768	 2.2205635127	-0.1517076454	-0.320233
C	-0.0840907666	 3.3405955034	 0.0746820324	-0.047542
C	-0.2128250572	 4.0209773527	 1.4572654961	-0.094589
O	 1.034144272	 4.0772532123	 2.1349376696	-0.22297
C	 1.5995537569	 2.8051545197	 2.2612877096	 0.001763
O	 2.0578361505	 2.3064612399	 1.0226817593	-0.233486
C	 1.0685682434	 2.2712252715	 0.0425797679	-0.016073
H	-2.0111042009	 2.194029099	-0.1958492885	 0.253443
H	-0.0627059256	 4.0687654706	-0.7396997007	 0.097178
H	-0.5591649594	 5.0533770804	 1.3686408819	 0.119321
H	-0.9414635875	 3.4601777905	 2.0634136171	 0.100027
H	 2.4816712728	 2.8988437458	 2.8957242236	 0.127579
H	 0.8729743114	 2.104226121	 2.7106748999	 0.096453
H	 1.5759912502	 2.2469315361	-0.9246773929	 0.124258
80.1357	110.8074	237.5202	375.0549	385.7718	418.5125	473.1441	513.6918	542.4526	687.6284	704.3711	767.4224	833.4184	881.528	956.1213	971.6664	996.7231	1056.3095	1070.306	1103.994	1155.6141	1168.6269	1188.5958	1229.6438	1266.6245	1279.3248	1331.5441	1352.0826	1368.6082	1378.0733	1413.0004	1444.8447	1494.5692	1512.1096	1899.5998	2944.14	2985.2512	3073.4784	3092.1964	3103.1447	3128.8748	3604.9164
O=C1NC2COCOC12	O=C1N[C@H]2COCO[C@@H]12	
InChI=1S/C5H7NO3/c7-5-4-3(6-5)1-8-2-9-4/h3-4H,1-2H2,(H,6,7)	InChI=1S/C5H7NO3/c7-5-4-3(6-5)1-8-2-9-4/h3-4H,1-2H2,(H,6,7)/t3-,4+/m0/s1
