23
gdb 112926	2.41639	1.28093	0.89046	0.9549	88.6	-0.2409	0.0243	0.2652	1393.6506	0.205544	-388.31424	-388.304696	-388.303752	-388.348482	36.384	
C	-0.0233056888	 1.5549842959	-0.068299325	-0.383892
C	-0.0267911027	 0.0258927054	-0.0139448246	-0.183638
C	-1.4379165364	-0.5716048762	 0.0278644034	 0.099591
O	-2.1096753504	-0.1462006475	-1.1491241803	-0.279687
C	-3.3488268584	-0.8065272821	-1.381231448	 0.145282
C	-4.0284166176	-0.0894090731	-2.5375481078	-0.403503
C	-3.1063992201	-2.297791283	-1.647867172	-0.256618
C	-2.1530687208	-2.8622939653	-0.6284604913	-0.08652
C	-1.4171251282	-2.0736952917	 0.1502383692	-0.065191
H	 0.9985708512	 1.9438659779	-0.1115468608	 0.107188
H	-0.5649146893	 1.9097125107	-0.9482130579	 0.134785
H	-0.5064575128	 1.9820468061	 0.817961874	 0.108458
H	 0.491127147	-0.3874909227	-0.8873700678	 0.104637
H	 0.5167829148	-0.3223814707	 0.8728712224	 0.091326
H	-1.9601137291	-0.151480578	 0.9112567456	 0.065289
H	-3.9751639241	-0.7168820068	-0.47643903	 0.063554
H	-3.4004360516	-0.1356804338	-3.432915756	 0.12282
H	-4.9929887772	-0.5533906658	-2.7655933623	 0.111983
H	-4.1962519727	 0.962464922	-2.2912967244	 0.120499
H	-4.0612000434	-2.8387646242	-1.6162842073	 0.100903
H	-2.7102067245	-2.435727418	-2.6643308429	 0.108352
H	-2.0916075887	-3.9433958699	-0.5331085694	 0.08755
H	-0.760626756	-2.4881297291	 0.9112704229	 0.086835
83.955	109.6082	148.5665	182.0663	220.7267	230.3083	301.209	333.6279	413.2967	458.8912	476.1104	480.6522	572.8952	681.166	754.9755	808.8878	860.6492	881.3873	916.7622	934.2478	971.8971	996.4254	1001.6762	1025.2243	1073.1221	1091.3476	1118.8535	1132.5501	1146.5332	1187.4565	1211.3929	1237.9981	1286.2518	1310.8408	1322.9525	1349.3486	1381.2011	1391.8958	1397.6389	1406.2531	1407.4731	1423.5408	1470.1236	1476.4757	1483.7343	1494.5001	1500.1763	1508.1605	1724.634	2893.8264	2948.4682	3005.3369	3030.155	3035.7058	3040.109	3042.8653	3068.9067	3100.3253	3112.9916	3119.949	3127.8699	3146.933	3170.4402
CCC1OC(C)CC=C1	CC[C@H]1O[C@@H](C)CC=C1	
InChI=1S/C8H14O/c1-3-8-6-4-5-7(2)9-8/h4,6-8H,3,5H2,1-2H3	InChI=1S/C8H14O/c1-3-8-6-4-5-7(2)9-8/h4,6-8H,3,5H2,1-2H3/t7-,8+/m0/s1
