19
gdb 28314	3.11211	1.4363	1.00806	1.3505	86.23	-0.1694	0.0521	0.2215	1191.7555	0.160767	-382.070115	-382.061312	-382.060368	-382.103533	32.824	
C	-0.2419857292	 1.5242619598	 0.0816881445	-0.511771
C	-0.0206832744	 0.044568944	-0.0082839517	 0.268009
C	 0.0471019921	-0.7129165086	-1.1707971915	-0.255251
N	 0.1402975047	-2.0156818242	-0.7761900316	 0.007348
C	 0.7361197337	-3.3464480625	-1.0016327334	-0.165359
C	 0.7256310058	-3.5356143774	 0.5615326975	-0.371592
C	 0.2205299733	-2.101664785	 0.5951844433	 0.251324
C	 0.1305503384	-0.8336300652	 1.1243168708	-0.02262
N	 0.2376297664	-0.4020461231	 2.4638847719	-0.610812
H	 0.541801031	 2.0126515512	 0.6739771057	 0.126732
H	-0.2416206079	 1.9837639607	-0.9108548545	 0.118883
H	-1.2016637925	 1.7772738468	 0.5541784538	 0.112249
H	-0.0536744145	-0.4089273384	-2.2011265047	 0.109085
H	 0.1086394715	-4.0237746948	-1.5882734289	 0.116197
H	 1.7402173636	-3.3073231046	-1.4346241822	 0.123996
H	 0.0436166567	-4.3100733707	 0.9262299364	 0.111386
H	 1.71577799	-3.707426187	 0.9929360368	 0.1193
H	 0.0456114226	-1.1484021928	 3.1199540027	 0.235712
H	-0.3935750812	 0.3646741019	 2.6662111452	 0.237185
90.7972	119.2753	164.7387	178.0946	233.9739	259.807	293.9201	342.0374	548.6148	568.4791	616.6122	655.2835	663.2383	712.432	796.1593	805.0551	826.0919	866.4884	929.3603	995.8492	1046.8281	1057.9009	1060.7807	1136.2198	1165.1765	1181.835	1207.4979	1236.1869	1239.3406	1285.1115	1372.6913	1406.0121	1424.0579	1431.7061	1481.0252	1491.8078	1501.2117	1511.9177	1541.9813	1643.5061	1664.383	3002.994	3043.8429	3048.691	3050.417	3085.5508	3102.3627	3102.9175	3249.25	3519.5689	3609.2587
CC1=CN2CCC2=C1N	Cc1cn2CCc2c1N	
InChI=1S/C7H10N2/c1-5-4-9-3-2-6(9)7(5)8/h4H,2-3,8H2,1H3	InChI=1S/C7H10N2/c1-5-4-9-3-2-6(9)7(5)8/h4H,2-3,8H2,1H3
