21
gdb 115296	3.92872	0.96834	0.81012	2.4973	81.61	-0.2399	0.0222	0.2621	1445.4253	0.18273	-424.238264	-424.229084	-424.22814	-424.272089	34.747	
C	-0.0428758943	 1.4701113412	 0.1548743609	-0.478679
C	 0.0112785328	-0.0221685961	-0.0099857324	 0.292594
C	 0.0170798638	-0.6404949276	-1.1913247997	-0.159658
C	 0.018717475	-2.1411158035	-1.3241796304	-0.267432
C	-0.3596051487	-2.7920722159	 0.0061503946	 0.097131
C	-0.0409926176	-4.2795719105	 0.0892609827	-0.068364
O	-0.3986075508	-4.8142377602	 1.3463800137	-0.427268
O	 0.3729490184	-2.1893444059	 1.0734112508	-0.276355
C	 0.0517414366	-0.8262503354	 1.2679664712	-0.151981
H	 0.8450199325	 1.8478180462	 0.6782493651	 0.125277
H	-0.1089369066	 1.9758515226	-0.8118305203	 0.125526
H	-0.9106337757	 1.7736013048	 0.7551512923	 0.125223
H	 0.0108102164	-0.0548673162	-2.1079418309	 0.081632
H	-0.6924372521	-2.4530160761	-2.0998530109	 0.106718
H	 1.0063632475	-2.4979123107	-1.6509068497	 0.110914
H	-1.437888487	-2.6511363293	 0.1900347657	 0.072616
H	-0.6090816374	-4.8248486657	-0.6717878956	 0.105185
H	 1.0319011712	-4.4229621552	-0.1212669175	 0.088432
H	-0.0292446544	-4.2037980938	 1.9961558963	 0.287812
H	 0.8209081043	-0.4271378829	 1.9410769791	 0.113596
H	-0.9143448139	-0.7280066098	 1.7980305551	 0.097081
80.7731	129.1084	171.1865	186.4676	228.5251	269.2842	317.4899	366.5506	428.7271	456.3244	464.4744	518.1329	552.4277	679.3789	793.0973	824.6885	885.9708	919.6575	963.9962	1006.7052	1041.9242	1066.2777	1082.5874	1087.6268	1091.7209	1118.5219	1140.72	1186.9568	1209.0899	1244.1272	1280.4041	1298.4954	1348.3503	1369.6698	1389.4222	1400.9839	1411.1237	1415.6844	1445.8242	1473.3361	1478.9204	1486.5613	1493.1696	1499.2741	1746.8089	2929.9919	2962.6181	2975.741	3003.639	3014.3444	3042.6856	3044.2266	3059.6813	3076.3754	3113.0497	3148.4231	3787.9379
CC1=CCC(CO)OC1	CC1=CC[C@@H](CO)OC1	
InChI=1S/C7H12O2/c1-6-2-3-7(4-8)9-5-6/h2,7-8H,3-5H2,1H3	InChI=1S/C7H12O2/c1-6-2-3-7(4-8)9-5-6/h2,7-8H,3-5H2,1H3/t7-/m0/s1
