18
gdb 64981	3.35016	1.09454	0.9023	4.6634	75.27	-0.2471	-0.0194	0.2277	1295.4002	0.148141	-435.280301	-435.27133	-435.270386	-435.314275	32.96	
C	-0.1370580959	 1.1742947365	-1.1398199529	-0.464347
C	-0.0953832034	 0.0235155547	-0.1608144368	 0.256206
C	 0.9350590949	-1.043327311	-0.3392634726	-0.255198
N	 1.0362842775	-0.0999158762	 0.7832316171	-0.37179
C	-1.432444538	-0.3680072687	 0.4230835564	 0.339596
N	-2.4981033303	-0.1745952516	-0.238274749	-0.52299
N	-1.3161870996	-0.9438067579	 1.7012596531	-0.348057
C	-2.3319563465	-1.4486549239	 2.4666205967	 0.161619
O	-3.4981101311	-1.5186047467	 2.1438926284	-0.304567
H	 0.8486213035	 1.3376050925	-1.5869788959	 0.10375
H	-0.8587721339	 0.9648358627	-1.9312301236	 0.163306
H	-0.4543539148	 2.0963458918	-0.6424855679	 0.130868
H	 0.7164479207	-2.0689172286	-0.0561163687	 0.128612
H	 1.6209375713	-0.9373753211	-1.1750777973	 0.12649
H	 1.7313248498	 0.6178594636	 0.5997879215	 0.24101
H	-3.3072512773	-0.516402346	 0.2812625154	 0.252143
H	-0.3814700363	-0.8871220901	 2.093799451	 0.270986
H	-1.9617770207	-1.8024350901	 3.4481603852	 0.092362
65.5759	95.3091	189.4362	197.7694	251.5678	270.7638	307.8849	331.0284	373.6828	475.6292	499.4427	654.5305	710.0102	765.1734	833.7773	849.1361	926.0022	947.1717	964.897	977.2718	999.2366	1028.9262	1036.6963	1058.6261	1126.1798	1142.369	1192.7098	1261.5674	1282.3481	1351.2475	1392.9007	1414.9066	1437.9242	1477.1313	1500.049	1507.8992	1520.5692	1725.4952	1806.5388	2948.6647	3041.0841	3106.6755	3113.7031	3141.0675	3201.7783	3486.4005	3517.3625	3520.4514
CC1(CN1)C(=N)NC=O	C[C@]1(CN1)C(=N)NC=O	
InChI=1S/C5H9N3O/c1-5(2-8-5)4(6)7-3-9/h3,8H,2H2,1H3,(H2,6,7,9)	InChI=1S/C5H9N3O/c1-5(2-8-5)4(6)7-3-9/h3,8H,2H2,1H3,(H2,6,7,9)/t5-/m0/s1
