20
gdb 76950	2.9969	1.15634	1.03254	3.7928	81.61	-0.2445	0.009	0.2535	1250.7644	0.169908	-403.139135	-403.129991	-403.129047	-403.173181	33.659	
C	 0.0973698382	 1.3736021898	-0.0232130671	-0.406469
C	-0.047072177	-0.122465142	 0.1203960451	-0.079022
N	 1.0027563473	-1.0147372672	-0.3353733243	-0.123652
C	 2.1182507395	-0.7097770074	-1.0793622392	 0.139871
O	 2.1314044161	 0.0022434069	-2.0567696193	-0.307288
C	 0.7903525065	-0.9258278887	 1.0846973003	 0.342638
C	 1.7213159011	-0.3753439948	 2.177099858	-0.299359
C	 0.9514839341	-1.2723692516	 3.1928095048	-0.207925
C	 0.3251061683	-2.060408981	 2.0040772336	-0.297682
H	 1.0929118203	 1.7134223087	 0.2730749641	 0.126957
H	-0.0558843075	 1.6755055278	-1.0624220125	 0.151399
H	-0.6441489297	 1.8831131714	 0.6009459025	 0.117975
H	-1.0496039886	-0.5040032262	-0.0759522228	 0.099395
H	 3.0117145791	-1.2596492203	-0.7218613396	 0.076056
H	 2.7578189593	-0.6987097298	 2.0439898401	 0.113794
H	 1.7129280514	 0.7039308581	 2.3461882815	 0.112445
H	 1.5584592271	-1.8454741672	 3.8951350412	 0.107651
H	 0.2044875027	-0.7075057173	 3.7548521945	 0.111459
H	-0.747238186	-2.2670814182	 2.0384891311	 0.108084
H	 0.8566150477	-2.993363561	 1.7947797981	 0.113674
87.29	102.1105	144.6422	176.8385	203.0467	238.7172	253.4519	385.139	400.2511	480.1425	524.2931	672.5928	716.7943	786.9181	815.9773	853.0463	892.7612	929.5425	962.8385	980.1189	1031.7634	1044.2213	1069.0432	1115.9022	1132.7358	1141.6656	1183.8366	1195.9493	1214.5174	1249.9232	1264.3395	1275.9111	1285.7066	1369.544	1413.891	1422.5407	1466.4702	1470.7177	1480.4178	1488.2635	1494.1041	1510.8247	1788.1846	2933.0941	3044.1997	3056.9583	3060.6095	3075.2665	3098.2109	3105.7551	3110.6941	3116.722	3129.0911	3133.5449
CC1N(C=O)C11CCC1	C[C@H]1N(C=O)C21CCC2	
InChI=1S/C7H11NO/c1-6-7(3-2-4-7)8(6)5-9/h5-6H,2-4H2,1H3	InChI=1S/C7H11NO/c1-6-7(3-2-4-7)8(6)5-9/h5-6H,2-4H2,1H3/t6-,8?/m1/s1
