21
gdb 47091	2.42539	1.69	1.16857	2.7821	80.89	-0.2327	-0.0137	0.219	1110.8559	0.185558	-387.146925	-387.139126	-387.138182	-387.179713	30.875	
O	-0.0894249653	 0.1399950996	 0.5397441796	-0.321876
C	-0.0727712489	 1.3215248967	 0.3051431674	 0.394176
C	-1.2858673268	 2.2585525913	 0.3699603481	-0.31835
C	-0.786490669	 3.6239414052	-0.1324462151	-0.247321
C	 0.7423318141	 3.607260359	 0.094493657	-0.000327
C	 1.2214729207	 3.9506708661	 1.5191928051	-0.216433
C	 2.5789456085	 3.2359532834	 1.6288969961	-0.197576
C	 2.3829466364	 1.892468694	 0.8807880123	-0.226284
C	 1.1777747378	 2.1332113208	-0.0665686309	-0.105643
H	-2.1224363015	 1.8434454106	-0.1982295929	 0.127878
H	-1.6123967123	 2.2929365179	 1.4162832038	 0.134088
H	-0.9982684075	 3.7279991419	-1.2021177334	 0.102397
H	-1.2703938175	 4.4657734086	 0.3710398877	 0.102301
H	 1.2526933286	 4.2608872051	-0.6200107177	 0.068472
H	 1.2816060101	 5.028045756	 1.6993207239	 0.096019
H	 0.5217323988	 3.5393920845	 2.2595171103	 0.096488
H	 3.3465271658	 3.8345953801	 1.1246398603	 0.098568
H	 2.9081270301	 3.0993368206	 2.6628141788	 0.097828
H	 3.2816721898	 1.6001327314	 0.332827896	 0.101154
H	 2.1546968585	 1.0715358344	 1.5674084037	 0.119221
H	 1.4150738196	 1.877609143	-1.1060257701	 0.09522
49.7343	131.0885	198.2405	251.8365	317.2999	442.1388	505.1641	555.3119	588.6067	622.256	704.3541	719.7735	787.8249	824.6847	883.0393	903.4209	918.5428	933.8501	957.2347	986.6942	1011.7095	1036.4564	1049.21	1074.9387	1127.0589	1146.4378	1188.291	1195.4909	1209.0185	1229.1394	1247.8125	1279.1947	1290.2904	1310.6695	1320.5756	1328.4011	1342.9871	1351.2492	1374.8838	1451.1014	1490.9287	1495.9759	1499.2767	1514.0218	1836.2959	3018.4564	3036.025	3038.2237	3042.1857	3047.0746	3056.3366	3060.6678	3085.4204	3086.7293	3088.8649	3102.3411	3105.5585
O=C1CCC2CCCC12	O=C1CC[C@H]2CCC[C@@H]12	
InChI=1S/C8H12O/c9-8-5-4-6-2-1-3-7(6)8/h6-7H,1-5H2	InChI=1S/C8H12O/c9-8-5-4-6-2-1-3-7(6)8/h6-7H,1-5H2/t6-,7-/m1/s1
