17
gdb 92823	2.94226	1.72097	1.27864	2.1741	73.84	-0.2121	0.0011	0.2132	983.0289	0.138836	-418.019774	-418.012551	-418.011607	-418.051248	28.885	
O	 0.1956660643	 1.4595723229	 0.0562442135	-0.427345
C	 0.0853228144	 0.0527352413	-0.002179988	 0.091349
C	 0.5116085652	-0.6402388339	 1.335334185	-0.193149
N	-0.7019628976	-0.6849819589	 2.1872829376	-0.316561
C	-1.675487077	-0.6120933072	 1.3701526042	 0.374562
N	-3.0315049648	-0.4127677684	 1.5691348997	-0.375429
C	-3.4929673328	 0.2780331219	 0.416881161	-0.035806
C	-2.5828494527	 0.3132677937	-0.5692435633	-0.172024
C	-1.3742022307	-0.4633324246	-0.107141092	-0.130354
H	-0.3300083098	 1.7664998714	 0.8040646115	 0.283722
H	 0.7052305141	-0.2540006296	-0.8481062535	 0.086379
H	 0.8890305848	-1.6552802801	 1.1465822194	 0.103412
H	 1.3063669857	-0.078193197	 1.8347690576	 0.112037
H	-3.3643329302	-0.1607720034	 2.4885904791	 0.255913
H	-4.5044995747	 0.6609421792	 0.4185364084	 0.125782
H	-2.7482203315	 0.7055364722	-1.5611404171	 0.109507
H	-1.3440911469	-1.4549026995	-0.5875494331	 0.108006
114.7346	176.9288	277.9676	316.3561	361.1621	402.6663	487.321	546.6589	624.738	678.6583	710.5063	722.2981	804.4594	840.0464	853.1812	857.3252	914.1772	948.3737	987.817	995.4361	1042.8851	1074.0094	1112.7482	1143.1349	1169.7222	1211.7956	1240.8036	1259.0911	1294.2256	1307.5099	1332.1349	1370.0928	1402.2617	1438.4	1486.1382	1642.5104	1746.0267	2975.4382	3009.6975	3085.2677	3090.5818	3227.971	3255.1968	3609.519	3793.9927
OC1CN=C2NC=CC12	O[C@H]1C[N][C]2NC=C[C@@H]12	
InChI=1S/C6H8N2O/c9-5-3-8-6-4(5)1-2-7-6/h1-2,4-5,9H,3H2,(H,7,8)	InChI=1S/C6H8N2O/c9-5-3-8-6-4(5)1-2-7-6/h1-2,4-5,9H,3H2,(H,7,8)/t4-,5-/m0/s1
