17
gdb 123553	3.94557	1.53653	1.21077	2.6666	77.39	-0.2148	0.0256	0.2404	1005.0683	0.140934	-380.881705	-380.875268	-380.874324	-380.912319	26.564	
C	-0.0179038864	 1.4825803607	 0.0767103644	-0.279678
C	 1.3043697957	 0.7582176624	 0.0285175396	-0.022138
C	 2.0322110789	 0.4279296812	 1.3489237178	-0.376632
C	 1.0322323723	-0.4789073011	 2.0071248778	 0.34475
C	-0.0739353826	-0.7624506619	 1.2377079639	 0.239296
C	-0.8630746598	-1.6101325697	 2.039758417	-0.172788
N	-0.2819823469	-1.834656036	 3.2217494009	-0.228816
N	 0.8714176075	-1.1210376521	 3.1839024095	-0.322567
C	-0.0102617608	-0.0276194513	-0.0520557474	-0.19542
H	-0.3561542406	 1.904351766	 1.0180927165	 0.114214
H	-0.2854226473	 2.0647935296	-0.7995341564	 0.110088
H	 1.9142093904	 0.8934438431	-0.856841218	 0.088438
H	 2.988832	-0.0745940918	 1.1569623204	 0.116708
H	 2.2566215602	 1.3280060284	 1.9339700257	 0.118796
H	-1.8144078959	-2.0752265254	 1.8265303462	 0.107132
H	 1.4821864703	-1.1542580849	 3.9820111447	 0.268719
H	-0.3408642549	-0.483103877	-0.9782923326	 0.089897
156.0431	224.7862	333.1971	412.5896	434.6315	499.1747	588.8732	683.5722	697.6364	708.5521	767.6858	790.9072	813.189	878.626	883.3946	963.4896	980.47	988.1612	1038.2261	1071.5639	1085.5083	1098.3972	1100.5444	1154.6742	1180.2629	1200.2018	1226.843	1257.1942	1305.5022	1335.1542	1359.5762	1413.2318	1448.7722	1476.5911	1488.9975	1545.1324	1596.4989	3021.1513	3052.5507	3120.8881	3172.9031	3180.1028	3209.5847	3242.9263	3674.8865
C1C2CC3=C(C=NN3)C12	C1[C@H]2Cc3c(cn[nH]3)[C@@H]12	
InChI=1S/C7H8N2/c1-4-2-7-6(5(1)4)3-8-9-7/h3-5H,1-2H2,(H,8,9)	InChI=1S/C7H8N2/c1-4-2-7-6(5(1)4)3-8-9-7/h3-5H,1-2H2,(H,8,9)/t4-,5-/m0/s1
