14
gdb 5154	5.87708	1.31802	1.19645	3.6146	68.12	-0.2259	0.0184	0.2443	981.361	0.108271	-341.57657	-341.569438	-341.568493	-341.609035	25.858	
C	-0.0520335108	-1.2137676201	 0.3081167651	-0.440499
C	-0.0063673674	-0.0337316062	 0.0920232988	 0.318623
C	 0.0347457278	 1.4055989625	-0.1548875993	-0.329649
N	 1.3728551829	 1.9727158372	-0.0647537732	 0.027227
C	 2.1849952205	 2.0061419	 1.0496143524	-0.121218
C	 3.3251791786	 2.6504720444	 0.6503037467	-0.085936
N	 3.2397003315	 3.0145519553	-0.6742299491	-0.273048
C	 2.0620872278	 2.5921182435	-1.0686061715	 0.01036
H	-0.0867874679	-2.2595050191	 0.4917173427	 0.211463
H	-0.3452229506	 1.6257672836	-1.1579495097	 0.155773
H	-0.6277875028	 1.9206149011	 0.5518862677	 0.155897
H	 1.8776682757	 1.5676727224	 1.9844431654	 0.132923
H	 4.2018646136	 2.8732455907	 1.2393190274	 0.110114
H	 1.643445921	 2.7007075848	-2.0588859234	 0.127969
29.8839	101.1248	240.1328	318.8086	327.8708	463.2286	627.6535	633.6152	676.0146	678.3739	728.1115	755.5865	813.0315	858.8215	914.492	956.1936	973.0584	1045.2042	1098.6603	1143.7639	1217.753	1265.5651	1303.6322	1368.1539	1395.0719	1415.7125	1469.736	1530.4456	1546.6955	2247.0745	3030.0327	3077.5334	3241.988	3248.9353	3280.7292	3502.699
C#CCN1C=CN=C1	C#CCn1ccnc1	
InChI=1S/C6H6N2/c1-2-4-8-5-3-7-6-8/h1,3,5-6H,4H2	InChI=1S/C6H6N2/c1-2-4-8-5-3-7-6-8/h1,3,5-6H,4H2
