21
gdb 123038	2.86677	0.8836	0.75754	2.9609	76.6	-0.2304	0.0803	0.3107	1581.5986	0.179751	-461.312838	-461.302546	-461.301602	-461.350346	36.453	
C	-0.0651745114	 1.136992777	 0.7659225595	-0.227043
O	 0.0101843665	-0.2634409741	 0.64218673	-0.22984
C	-1.0457664857	-0.8066335814	-0.1168330938	-0.062288
C	-0.9014764101	-2.3143900022	-0.1285343124	-0.071212
O	-1.135026023	-2.7861097709	 1.1876309561	-0.26121
C	-0.7084050768	-4.0851483813	 1.4621614872	 0.056063
C	 0.7833815324	-4.3565209358	 1.5556197812	-0.358377
C	-0.0535613739	-4.201744327	 2.8088813211	 0.133982
O	 0.0602180354	-3.0496342543	 3.5789823991	-0.433089
H	 0.7871628962	 1.4578086705	 1.3693632519	 0.131316
H	-0.0153989817	 1.6374285751	-0.2143506223	 0.103621
H	-0.9944189063	 1.4534270916	 1.2651728925	 0.107684
H	-2.0210228512	-0.5320945046	 0.317808204	 0.09844
H	-1.0231169818	-0.4295355729	-1.1536199969	 0.087454
H	-1.6270841012	-2.7521606341	-0.8310407005	 0.09387
H	 0.1083830623	-2.5871540053	-0.4615007759	 0.10931
H	-1.3675497706	-4.8710940851	 1.0946414432	 0.088017
H	 1.1472672138	-5.3382847268	 1.2711621714	 0.111113
H	 1.4492562047	-3.5306595676	 1.3274938349	 0.128433
H	-0.2507453218	-5.079683018	 3.4160325483	 0.099747
H	-0.2564788861	-2.3239822727	 3.0213738916	 0.294011
17.0143	39.0827	90.0779	148.8841	178.8012	234.7924	273.8152	300.2418	322.3206	365.8793	426.8673	480.2498	568.6491	622.3922	755.3245	803.4776	863.1608	886.8006	929.0885	1006.4031	1023.747	1049.2189	1061.4438	1101.9186	1114.0249	1133.0973	1140.0812	1165.3549	1187.4475	1193.8768	1226.4952	1239.6543	1262.8363	1297.5424	1345.2848	1355.6105	1409.6022	1430.9727	1438.9094	1477.703	1479.5786	1486.6325	1498.446	1504.8082	1521.8245	2956.6666	2972.4845	2990.1034	2996.659	3015.6723	3048.5572	3102.1636	3117.4044	3128.4461	3159.9059	3222.3736	3731.8883
COCCOC1CC1O	COCCO[C@H]1C[C@H]1O	
InChI=1S/C6H12O3/c1-8-2-3-9-6-4-5(6)7/h5-7H,2-4H2,1H3	InChI=1S/C6H12O3/c1-8-2-3-9-6-4-5(6)7/h5-7H,2-4H2,1H3/t5-,6+/m1/s1
