17
gdb 17361	3.85703	1.7013	1.53105	1.3027	67.76	-0.2392	-0.0213	0.2179	893.1283	0.14152	-363.832658	-363.824899	-363.823955	-363.865336	28.424	
C	 0.6265621346	 0.3437366004	 1.3690660357	-0.481362
C	 0.1030633254	 0.0450256932	-0.0208837948	 0.381049
O	 0.6808557231	 0.3892784147	-1.0283355212	-0.303261
C	-1.1850909029	-0.7606486099	-0.0706054504	-0.039999
C	-1.7471429936	-1.2081790962	-1.437955858	-0.2771
C	-1.5170447031	-2.6405617314	-0.9582400973	-0.00901
C	-0.1120839892	-2.855176663	-0.5756078794	-0.247097
N	-1.0086568329	-2.1995254932	 0.4091409327	-0.157677
H	 1.634242575	 0.7567479685	 1.3122426199	 0.140105
H	-0.0344623605	 1.0671019124	 1.8615808559	 0.141888
H	 0.6147829674	-0.5643528519	 1.9806407874	 0.158952
H	-1.9349687779	-0.2922852179	 0.5740276871	 0.094706
H	-2.798781627	-0.949408147	-1.5671865942	 0.11132
H	-1.1809984658	-0.8929333041	-2.3166437323	 0.128328
H	-2.2273993052	-3.4555179105	-1.0489092347	 0.09901
H	 0.1773788458	-3.8503563275	-0.25374966	 0.12408
H	 0.6762882167	-2.2814699666	-1.0563852663	 0.136069
45.035	130.5009	148.6329	188.9515	330.3694	361.5481	459.3632	551.9864	597.7882	710.2817	760.7519	765.9475	788.386	920.9224	926.862	954.9364	981.9632	1006.8302	1057.7309	1062.2461	1097.2925	1117.5096	1140.0596	1162.7079	1196.6458	1226.9505	1254.2336	1270.0515	1358.1364	1371.1652	1387.1241	1463.8948	1472.3897	1485.7984	1503.1276	1803.0757	3035.9512	3060.4285	3080.2606	3099.986	3116.3799	3135.4199	3154.0682	3168.5059	3208.0884
CC(=O)C1CC2CN12	CC(=O)[C@H]1C[C@H]2CN12	
InChI=1S/C6H9NO/c1-4(8)6-2-5-3-7(5)6/h5-6H,2-3H2,1H3	InChI=1S/C6H9NO/c1-4(8)6-2-5-3-7(5)6/h5-6H,2-3H2,1H3/t5-,6+,7?/m0/s1
