21
gdb 57364	2.08961	1.55945	1.2016	1.6103	84.02	-0.2601	0.0265	0.2867	1163.4005	0.178356	-387.041992	-387.031773	-387.030829	-387.076292	39.184	
C	-0.3544696829	 1.4994657358	-0.117493383	-0.433212
C	-0.0242282721	 0.0012920465	-0.0005903198	 0.168042
C	 0.9204276298	-0.2122746505	 1.1995636809	-0.414701
C	-1.3230700098	-0.8015743007	 0.1972967601	-0.417257
C	 0.6964005934	-0.5072695886	-1.2672927174	 0.211122
C	 0.57742268	 0.1567858481	-2.5844854083	-0.230323
O	 1.742633237	 0.3394929259	-1.7850274756	-0.278521
C	 1.0296491536	-1.9181382013	-1.2786737142	 0.291578
C	 1.2968318349	-3.090385365	-1.2859746701	-0.40165
H	 0.5296445125	 2.0764213327	-0.4002016677	 0.135341
H	-1.1462317615	 1.6884560232	-0.8490309364	 0.109079
H	-0.7109300965	 1.8715683151	 0.8478113288	 0.111553
H	 0.4378031589	 0.1162417188	 2.1254757534	 0.108369
H	 1.1888034288	-1.2664968269	 1.3108915624	 0.125427
H	 1.8433620955	 0.3619902155	 1.0729794227	 0.127558
H	-1.9997045649	-0.6765216852	-0.6550594681	 0.110643
H	-1.1197961394	-1.8692963433	 0.3144475811	 0.128077
H	-1.8458979045	-0.4544766726	 1.0944253003	 0.112564
H	 0.7177473295	-0.4384408906	-3.4848788328	 0.122265
H	-0.0580703818	 1.0318163771	-2.6947728329	 0.118043
H	 1.5408238094	-4.1239872239	-1.2959895535	 0.196002
60.0295	148.839	184.4269	215.6378	252.8948	265.0234	271.5765	304.3884	315.6452	358.5185	381.1339	445.822	464.5168	551.281	595.8337	608.4367	620.9466	660.6453	808.4117	853.9337	890.9993	939.4733	943.4884	961.6557	966.7513	1041.5183	1055.5097	1132.4947	1155.7989	1171.5082	1237.6126	1244.6855	1292.1438	1348.3433	1395.9453	1399.3769	1430.8928	1478.9013	1489.7608	1492.6447	1502.3347	1502.8768	1519.3331	1528.2758	2233.6072	3032.4486	3035.9317	3042.0587	3095.7798	3097.8585	3103.0796	3108.1243	3115.9354	3119.6744	3125.0717	3188.5464	3500.8336
CC(C)(C)C1(CO1)C#C	CC(C)(C)[C@]1(CO1)C#C	
InChI=1S/C8H12O/c1-5-8(6-9-8)7(2,3)4/h1H,6H2,2-4H3	InChI=1S/C8H12O/c1-5-8(6-9-8)7(2,3)4/h1H,6H2,2-4H3/t8-/m1/s1
