21
gdb 68089	3.16938	1.4939	1.38063	0.0117	86.53	-0.217	-0.0028	0.2142	1064.6044	0.18267	-349.955263	-349.94718	-349.946236	-349.986873	33.866	
C	-0.0274997294	 1.5311563308	 0.0226675751	-0.501471
C	 0.0030849865	 0.0123579934	 0.0106124183	 0.238553
C	 0.7063914472	-0.7127511076	-1.1798457665	-0.245596
C	 0.399774365	-2.1353715789	-0.6143734561	 0.238552
C	 0.8736591773	-3.348003777	-1.3971794695	-0.501471
C	 1.013268523	-1.9337926867	 0.7924395546	-0.114617
C	 0.7808936579	-0.6756817289	 1.1585443501	-0.114603
C	-1.1306244801	-1.9670799108	-0.4539023596	-0.114607
C	-1.3630022072	-0.7089701483	-0.0878095519	-0.114622
H	 0.9854896119	 1.9472545038	 0.0281963505	 0.115249
H	-0.5471433536	 1.9234538918	-0.857887748	 0.115234
H	-0.5465486291	 1.9103255455	 0.9103132316	 0.114395
H	 0.2222883838	-0.5218365625	-2.1432755105	 0.085323
H	 1.778430627	-0.4976174381	-1.2385880894	 0.085317
H	 1.9629877528	-3.3453304567	-1.5097268141	 0.115242
H	 0.5947719443	-4.2798180141	-0.8921644685	 0.114395
H	 0.4323334925	-3.3692845377	-2.3992218758	 0.115241
H	 1.4942324892	-2.7226593445	 1.357398844	 0.092371
H	 1.0263671634	-0.1894151681	 2.0945483512	 0.092367
H	-1.8410323354	-2.7744279087	-0.581669793	 0.092372
H	-2.3089314469	-0.2411790566	 0.1555045276	 0.092376
200.0441	203.0626	221.8814	252.4394	305.2095	337.2247	433.6622	476.2883	515.5691	542.0913	563.5143	652.6947	684.1113	712.3383	762.5236	810.0283	811.3635	868.9148	886.6671	895.2995	899.0535	917.5409	937.7371	1013.6757	1060.0605	1083.006	1085.9616	1117.0634	1175.5571	1186.6428	1197.6692	1205.9269	1256.744	1284.3697	1290.3764	1365.6193	1413.5473	1414.1543	1488.0194	1494.3571	1495.1047	1496.1235	1496.166	1614.8273	1665.6102	3026.5455	3026.7003	3036.6289	3090.844	3090.9502	3094.906	3097.9948	3099.664	3192.7968	3194.0349	3219.6214	3222.1711
CC12CC(C)(C=C1)C=C2	C[C@@]12C[C@@](C)(C=C1)C=C2	
InChI=1S/C9H12/c1-8-3-5-9(2,7-8)6-4-8/h3-6H,7H2,1-2H3	InChI=1S/C9H12/c1-8-3-5-9(2,7-8)6-4-8/h3-6H,7H2,1-2H3/t8-,9+
