22
gdb 59389	2.68819	0.97285	0.94288	4.3975	87.71	-0.2764	0.0388	0.3153	1421.8335	0.192318	-367.232486	-367.222043	-367.221099	-367.267746	38.497	
C	 0.0917804994	 0.8779597445	 1.6900317618	-0.385549
C	-0.5232260747	-0.5294580056	 1.7469160032	 0.000266
C	-1.2728495519	-0.7546693668	 3.0679608034	-0.389584
C	-1.4414329202	-0.7401625635	 0.5547989763	 0.0004
C	-0.9307045715	-1.1272727952	-0.8012157747	-0.332816
C	-1.7744962306	-2.1239208316	-0.0121385979	 0.139655
C	-1.137042506	-3.4013216831	 0.5158599116	-0.464621
C	-3.1365467646	-2.2975924752	-0.4564493201	 0.238654
N	-4.2308304796	-2.4454487555	-0.803335279	-0.35063
H	 0.77563661	 1.0382546561	 2.5295478945	 0.114572
H	 0.6501058321	 1.0324947102	 0.7616436874	 0.117035
H	-0.6872608148	 1.6472164065	 1.743845978	 0.117822
H	 0.2999475572	-1.2524808897	 1.6901163692	 0.073301
H	-2.108613508	-0.0522500842	 3.1655715918	 0.11986
H	-1.6814267988	-1.7675762445	 3.1311039446	 0.119705
H	-0.6093724284	-0.6026382916	 3.9252602704	 0.114556
H	-2.2874498216	-0.0562449849	 0.5445271561	 0.105723
H	-1.3643601611	-0.6696485635	-1.6823989738	 0.135303
H	 0.1208621875	-1.3810902366	-0.8944891225	 0.121412
H	-1.137084304	-4.1733995572	-0.2592898284	 0.138903
H	-0.1015968456	-3.228882693	 0.8162027309	 0.12713
H	-1.6846102548	-3.7915773454	 1.3787574871	 0.138903
63.0567	101.48	133.7275	181.4721	210.3236	224.146	247.6621	258.8494	321.1406	336.6075	364.7074	448.4612	468.19	577.4925	589.9573	687.2585	773.4456	859.4435	893.8233	928.5679	938.9083	954.5453	968.7908	979.6009	1067.1996	1072.8387	1106.8545	1118.1585	1143.3973	1187.8348	1216.1484	1270.7465	1300.6978	1325.5598	1342.5325	1398.6603	1416.0577	1418.9975	1432.3977	1484.1867	1484.8429	1488.8626	1491.0322	1500.081	1504.3367	1511.2986	2345.6809	3025.5022	3028.7151	3033.3274	3046.4429	3094.9139	3101.1781	3106.6887	3108.9807	3111.5963	3129.0579	3132.9777	3134.2319	3224.2925
CC(C)C1CC1(C)C#N	CC(C)[C@H]1C[C@]1(C)C#N	
InChI=1S/C8H13N/c1-6(2)7-4-8(7,3)5-9/h6-7H,4H2,1-3H3	InChI=1S/C8H13N/c1-6(2)7-4-8(7,3)5-9/h6-7H,4H2,1-3H3/t7-,8-/m1/s1
