12
gdb 24522	4.19997	1.78003	1.25018	1.5374	66.57	-0.2673	-0.0609	0.2065	882.0292	0.082525	-431.742231	-431.736775	-431.735831	-431.772094	21.319	
O	-0.0676546886	 1.3046756448	 0.0097456809	-0.190978
C	 1.2385055608	 1.7187604273	-0.0003818144	 0.067639
N	 2.1412409827	 0.7993969298	-0.0140908647	-0.322931
C	 1.3925632091	-0.3786277987	-0.0134104421	 0.181017
C	 0.0321602999	-0.0555456459	 0.00131852	 0.414878
N	-0.9798639985	-0.8894118958	 0.0063666777	-0.334017
C	-0.5667921151	-2.1671451807	-0.0046004551	 0.061664
N	 0.6911787876	-2.6244410884	-0.0190978263	-0.253133
C	 1.6895172118	-1.7344643411	-0.0236940422	-0.065477
H	 1.3870637277	 2.7881867578	 0.0040760519	 0.168605
H	-1.3505777736	-2.9187470365	-0.0012824816	 0.132721
H	 2.7083542863	-2.1112579626	-0.0354814442	 0.140012
240.447	253.0028	425.0666	457.5579	566.4958	622.3904	658.1397	665.3212	811.461	837.8337	893.6059	897.1339	931.6422	954.0333	1003.894	1081.3543	1136.6076	1190.6108	1270.1236	1301.0141	1319.4189	1355.4566	1413.9949	1473.4757	1552.5157	1625.4537	1652.2169	3176.1011	3185.2718	3272.5304
O1C=NC2=C1N=CN=C2	o1cnc2c1ncnc2	
InChI=1S/C5H3N3O/c1-4-5(7-2-6-1)9-3-8-4/h1-3H	InChI=1S/C5H3N3O/c1-4-5(7-2-6-1)9-3-8-4/h1-3H
