22
gdb 116326	2.95197	1.26474	0.98369	1.6489	82.42	-0.2371	0.0734	0.3105	1274.9528	0.1964	-404.329432	-404.320761	-404.319817	-404.362853	33.439	
C	 0.0172455749	 1.3856124974	 0.0297867142	-0.236328
O	-0.1393244945	-0.006398493	-0.1072111574	-0.254361
C	 0.6234736746	-0.5890969655	-1.1542492793	 0.163671
C	 2.1225178493	-0.6949022167	-0.8388493732	-0.23663
C	 2.8445951742	-1.4542666874	-1.9610882015	-0.206029
C	 2.3788431222	-2.9172050875	-2.0728580982	-0.195004
C	 0.8737378908	-3.0791312976	-1.8958591508	-0.03455
N	 0.385865888	-3.0265094759	-0.5062090943	-0.323981
C	 0.0199631773	-1.9471287611	-1.433887169	-0.049225
H	 1.0238224997	 1.6708504617	 0.3687123878	 0.106427
H	-0.1883930209	 1.9145772844	-0.9152673156	 0.097553
H	-0.7047644169	 1.7180526381	 0.7803230575	 0.124131
H	 0.5017727743	 0.023981518	-2.0668903539	 0.05431
H	 2.5514485434	 0.3064751792	-0.7316232819	 0.087718
H	 2.2388002551	-1.2137235947	 0.1179665768	 0.124262
H	 2.6531136289	-0.9397875513	-2.9128274862	 0.092931
H	 3.9283051187	-1.4209398107	-1.8073158011	 0.093641
H	 2.6771116243	-3.3237366331	-3.0455489074	 0.091851
H	 2.8768820325	-3.5260885448	-1.3095244099	 0.11035
H	 0.3977153221	-3.8015430268	-2.5558053422	 0.079866
H	-0.4010507225	-3.6552005695	-0.3739838092	 0.229564
H	-1.0101141555	-1.9107783332	-1.7823613052	 0.079831
79.0624	106.1371	184.0682	202.3044	263.7428	308.9198	362.157	399.4917	431.6032	473.2891	622.9761	630.0861	777.0609	790.1727	866.1682	881.3687	897.776	917.405	944.2453	977.4245	1017.3111	1060.4854	1079.4845	1087.5963	1140.857	1146.9129	1167.9403	1169.9206	1183.7385	1219.1538	1227.539	1237.9025	1270.6512	1289.2639	1342.2463	1358.431	1373.3171	1382.6159	1391.7949	1416.2356	1459.9871	1477.8737	1481.3936	1487.706	1492.496	1499.2031	1512.0826	2926.48	2970.3074	3013.2731	3022.1397	3032.9053	3048.0804	3065.4772	3076.7138	3097.3621	3106.6753	3118.9916	3130.9894	3510.5696
COC1CCCC2NC12	CO[C@H]1CCC[C@H]2N[C@@H]12	
InChI=1S/C7H13NO/c1-9-6-4-2-3-5-7(6)8-5/h5-8H,2-4H2,1H3	InChI=1S/C7H13NO/c1-9-6-4-2-3-5-7(6)8-5/h5-8H,2-4H2,1H3/t5-,6+,7-/m1/s1
