23
gdb 93668	2.15705	1.5452	1.21878	0.9834	80.53	-0.2482	0.0534	0.3016	1169.0657	0.203974	-425.441022	-425.430801	-425.429857	-425.475466	38.875	
C	-0.4869047989	 1.3732773809	-0.060672945	-0.406544
C	-0.0121348346	-0.0772262183	-0.0766881526	-0.026354
C	 1.0124540221	-0.4130932348	-1.1934518398	 0.075643
O	 1.8308684458	 0.6692076928	-1.6134861951	-0.428236
C	 1.8130756959	-1.5884848931	-0.5788593686	-0.11313
O	 1.3351955737	-1.8029344399	 0.7413141442	-0.291401
C	 0.6567215418	-0.6251831192	 1.2106930071	 0.357532
C	 1.6702443137	 0.3371087867	 1.8538633625	-0.425201
C	-0.3555187366	-1.0924834535	 2.2537999812	-0.42596
H	 0.3465919894	 2.0740827607	 0.0230659437	 0.117076
H	-1.017638276	 1.6147460942	-0.9864900958	 0.120632
H	-1.1731688898	 1.5522895654	 0.7735924217	 0.111614
H	-0.879649357	-0.7254566673	-0.2538606865	 0.076085
H	 0.4930038576	-0.716065046	-2.1061517362	 0.092284
H	 2.4274162648	 0.9027803555	-0.895385947	 0.279793
H	 1.6918235096	-2.5245549636	-1.1337527045	 0.108518
H	 2.8850303911	-1.3352729129	-0.5865417489	 0.087279
H	 2.4459145241	 0.658642996	 1.1510630454	 0.090008
H	 1.1819426094	 1.2356513008	 2.241808884	 0.121199
H	 2.1746637951	-0.1665436519	 2.6832702318	 0.126168
H	 0.1548102534	-1.557909828	 3.1023253035	 0.12063
H	-0.9451108168	-0.2506967998	 2.6304459957	 0.113628
H	-1.0351248278	-1.8298224647	 1.8181447892	 0.118737
76.1734	117.7459	192.681	200.9007	216.3702	248.8962	265.3431	276.5995	291.3791	350.3943	412.7425	429.7188	466.9471	532.254	642.1171	690.5694	720.9807	830.2745	847.4665	919.1529	944.7155	958.6608	993.0628	1012.099	1030.903	1071.1112	1078.338	1130.3538	1153.1501	1181.867	1192.244	1221.3095	1263.387	1284.0956	1297.0163	1348.9811	1365.4405	1373.7421	1398.008	1408.3546	1418.5841	1443.4207	1471.0636	1483.9547	1490.1617	1495.9887	1502.4053	1506.2325	1520.3555	2979.7448	3021.2353	3036.475	3040.816	3043.7529	3060.5372	3082.553	3100.8994	3104.3029	3109.8358	3119.159	3119.6371	3126.946	3820.4916
CC1C(O)COC1(C)C	C[C@H]1[C@@H](O)COC1(C)C	
InChI=1S/C7H14O2/c1-5-6(8)4-9-7(5,2)3/h5-6,8H,4H2,1-3H3	InChI=1S/C7H14O2/c1-5-6(8)4-9-7(5,2)3/h5-6,8H,4H2,1-3H3/t5-,6-/m0/s1
