17
gdb 81360	2.64348	1.46673	1.3637	2.6454	62.68	-0.2492	0.0372	0.2863	1006.3235	0.13642	-496.05769	-496.049858	-496.048914	-496.089781	30.955	
O	 0.127367856	 1.393886346	-0.1256734221	-0.455675
C	 0.1287688005	-0.0036064817	-0.0743200663	 0.190347
C	 0.1551364799	-0.6132129209	 1.349291973	-0.015854
O	-1.2919704453	-0.3357004184	 1.4338142224	-0.332362
C	-1.2787831289	-0.6540780814	 0.0005874376	 0.008765
C	-1.0056261992	-2.1617411087	 0.0362565386	 0.037421
O	-0.5231267631	-2.6221166772	-1.2204088954	-0.430284
C	 0.1415519854	-2.1384587838	 1.1300681784	 0.110928
O	 1.3472958216	-2.6881560931	 0.6691792175	-0.444201
H	-0.4986298083	 1.6922910821	 0.5471305102	 0.28835
H	 0.8402435212	-0.36452472	-0.8171383634	 0.099467
H	 0.7473613311	-0.1928187141	 2.1614195903	 0.088483
H	-2.1355595836	-0.2796563535	-0.5590628796	 0.087255
H	-1.8866574836	-2.7249431335	 0.3540092365	 0.089694
H	-0.7513567814	-3.5514036004	-1.31592928	 0.302403
H	-0.1581712407	-2.6507115033	 2.0491221313	 0.088343
H	 1.2443718784	-2.7802371681	-0.2898576791	 0.28692
114.0802	179.9664	214.8069	309.315	319.3662	326.1418	432.0899	497.0079	526.8393	547.6522	571.1829	601.3852	730.1075	803.1942	858.3399	888.838	915.3509	954.2887	963.2433	997.5941	1046.2868	1097.2657	1115.328	1138.5612	1157.2389	1180.3755	1204.4417	1221.3796	1259.976	1283.9009	1288.7377	1299.7835	1333.9364	1356.0107	1420.8865	1426.6549	1456.7661	3060.0976	3077.5572	3121.9249	3130.6682	3135.803	3707.8651	3771.049	3838.3889
OC1C2OC1C(O)C2O	O[C@H]1[C@H]2O[C@@H]1[C@@H](O)[C@H]2O	
InChI=1S/C5H8O4/c6-1-2(7)5-3(8)4(1)9-5/h1-8H	InChI=1S/C5H8O4/c6-1-2(7)5-3(8)4(1)9-5/h1-8H/t1-,2+,3+,4+,5-
