21
gdb 93239	2.83165	1.30823	0.93242	4.0846	80.2	-0.2246	0.0587	0.2833	1287.6758	0.18427	-420.4665	-420.457057	-420.456113	-420.500721	34.742	
C	 0.0342001065	 1.5749065963	 0.0215420663	-0.403142
C	 0.001340586	 0.0465428928	-0.0141776044	-0.004385
C	 0.7126615575	-0.5170689086	-1.244227703	-0.155659
N	 0.692404883	-1.9650367544	-1.1786181144	-0.362408
C	 0.8771508139	-2.7022321739	-0.0254268177	 0.461423
O	 1.0938264327	-3.9041633592	-0.0743157761	-0.428793
N	 0.7479897353	-2.005872314	 1.1611837657	-0.125358
C	 1.0256821079	-2.7027230707	 2.4015500632	-0.339503
C	 0.6458084892	-0.5571711614	 1.235120162	-0.142633
H	 1.0638937732	 1.9493654082	 0.0476156569	 0.120444
H	-0.4536006194	 1.9992391951	-0.8616018253	 0.119526
H	-0.4832966219	 1.9603413012	 0.9056437775	 0.120311
H	-1.0409213265	-0.2938480595	-0.0531236546	 0.094906
H	 0.2025116897	-0.1974770865	-2.1596338689	 0.108219
H	 1.7396189066	-0.1153821687	-1.2903227536	 0.096661
H	 0.9245337401	-2.4943366265	-2.0036105395	 0.247534
H	 1.0862892882	-3.7681824652	 2.1865127362	 0.169187
H	 1.9755744619	-2.3721575477	 2.8466726972	 0.11004
H	 0.2268447317	-2.518271109	 3.1303855501	 0.112895
H	 1.640456783	-0.1036861476	 1.3936777981	 0.095245
H	 0.0469701514	-0.3017343408	 2.1187656642	 0.10549
91.8248	103.4394	135.938	183.2946	213.3874	228.6455	263.7558	363.1258	412.0098	424.4316	446.8995	508.3903	587.3597	691.6124	758.3881	780.3477	872.5267	906.5918	951.0197	975.087	1038.1083	1103.8125	1109.7545	1146.5174	1167.1066	1183.4692	1220.7109	1248.3339	1291.2501	1301.7587	1308.1977	1328.1777	1384.282	1411.3284	1413.9444	1432.321	1459.203	1474.6466	1497.9864	1498.8981	1499.3807	1506.9392	1524.2847	1550.1885	1773.9576	2943.8179	2953.3882	2996.0315	3025.3481	3032.2317	3038.0653	3049.088	3056.5073	3099.2948	3106.0797	3168.4804	3644.37
CC1CNC(=O)N(C)C1	C[C@H]1CNC(=O)N(C)C1	
InChI=1S/C6H12N2O/c1-5-3-7-6(9)8(2)4-5/h5H,3-4H2,1-2H3,(H,7,9)	InChI=1S/C6H12N2O/c1-5-3-7-6(9)8(2)4-5/h5H,3-4H2,1-2H3,(H,7,9)/t5-/m0/s1
