18
gdb 32455	3.12041	1.24154	0.89947	1.1055	76.41	-0.1766	0.0496	0.2262	1281.5656	0.146395	-439.102932	-439.093111	-439.092166	-439.137992	34.695	
C	-0.0664880771	 1.3760608862	 0.0336659924	-0.248218
O	-0.0504883458	-0.0390271202	 0.0251783888	-0.257892
C	 0.6165100402	-0.6087514895	 1.0550614528	 0.288299
C	 1.2627314994	-0.0359263962	 2.1071021542	-0.211679
O	 1.7943770019	-1.0428443649	 2.8955982131	-0.18902
C	 1.4746847561	-2.2188457348	 2.3096046367	 0.307039
N	 1.9766206843	-3.3609888173	 2.9268917897	-0.598124
C	 0.7523186197	-2.0380327271	 1.1670962585	 0.042785
C	 0.231700258	-3.0687895226	 0.2168262383	-0.516792
H	 0.9528237372	 1.7823889012	-0.0164014629	 0.121281
H	-0.6292992253	 1.6927133469	-0.8458065083	 0.132134
H	-0.5556666731	 1.7591423102	 0.9396679921	 0.120354
H	 1.4537807117	 0.96900912	 2.4332267329	 0.126292
H	 2.3431335441	-3.1525548023	 3.8468397181	 0.252371
H	 1.2999929981	-4.1108590119	 2.9838386371	 0.254492
H	-0.8395953461	-3.2659014367	 0.3518866295	 0.122605
H	 0.3651183748	-2.7448585725	-0.820337428	 0.13519
H	 0.7634604019	-4.0177824584	 0.3395932251	 0.118886
74.5783	83.6028	99.4815	173.1716	184.4633	222.9897	242.8952	278.0905	356.0832	394.7081	528.1849	564.9367	598.3335	635.9542	690.763	732.7488	745.6914	779.6742	938.2192	1033.5815	1058.8417	1065.7772	1142.3266	1182.4682	1187.2271	1211.7304	1249.079	1275.9366	1359.0224	1417.0145	1460.0813	1480.4828	1481.4574	1486.67	1502.9955	1510.5326	1625.3404	1639.4502	1701.8456	2997.8558	3017.4701	3053.1704	3072.1697	3102.8397	3134.8124	3306.901	3541.9496	3636.4538
COC1=COC(N)=C1C	COc1coc(N)c1C	
InChI=1S/C6H9NO2/c1-4-5(8-2)3-9-6(4)7/h3H,7H2,1-2H3	InChI=1S/C6H9NO2/c1-4-5(8-2)3-9-6(4)7/h3H,7H2,1-2H3
