12
gdb 10376	2.42153	2.24968	1.40711	2.7112	59.	-0.2979	-0.0285	0.2694	853.7587	0.083744	-377.507582	-377.500213	-377.499269	-377.540349	25.005	
N	-0.0621782398	-1.1934227485	-0.0918047433	-0.311313
C	-0.0580219836	-0.0388786242	-0.0645463997	 0.263657
C	-0.0175085412	 1.4174492135	 0.0085680921	-0.060416
C	-0.1101917138	 2.0120443415	 1.461281918	-0.089064
O	 1.220450814	 2.5327903196	 1.3867807942	-0.248747
C	 1.4257005515	 2.0396679229	 0.0593678246	-0.089054
C	-0.9170170443	 2.0269211146	-0.9647129485	 0.263696
N	-1.6169743074	 2.5462598338	-1.7223952962	-0.311323
H	-0.8680419857	 2.793477087	 1.5700744611	 0.145632
H	-0.2279464973	 1.2538580251	 2.2410860142	 0.145641
H	 2.2277259492	 1.2980458415	-0.0003253247	 0.145647
H	 1.5875401183	 2.8376500732	-0.6712748018	 0.145643
35.3839	133.6354	187.4108	194.8052	246.4311	481.515	503.6209	538.8902	584.9659	593.7657	842.9804	896.0342	978.2174	981.9983	987.3245	1071.8732	1142.4242	1154.5327	1166.5225	1266.9241	1314.7715	1372.8566	1506.412	1530.4522	2364.8664	2369.4219	3043.2524	3052.1705	3107.1453	3108.8025
N#CC1(COC1)C#N	N#CC1(COC1)C#N	
InChI=1S/C5H4N2O/c6-1-5(2-7)3-8-4-5/h3-4H2	InChI=1S/C5H4N2O/c6-1-5(2-7)3-8-4-5/h3-4H2
