17
gdb 16238	2.94073	2.30353	1.482	1.8604	69.88	-0.2296	0.0133	0.2429	861.5669	0.143627	-363.841288	-363.834113	-363.833169	-363.872567	28.12	
O	 0.4288585381	 0.865249044	-0.7519539956	-0.428743
C	 0.0675399663	-0.2563926499	 0.0282403555	 0.045604
C	 0.4455419127	-0.186377239	 1.53072963	-0.301841
C	-0.6496232183	-0.9867693217	 2.1973337101	-0.089748
C	-1.6753554847	-1.211524003	 1.3742583675	-0.113439
C	-1.4325158836	-0.6111750432	 0.0373942318	 0.296115
C	-2.4330104647	 0.2090727666	-0.7041677619	-0.294148
N	-2.1026077448	-1.1540621817	-1.1528117057	-0.371703
H	 0.040004435	 1.6453631661	-0.3405461474	 0.278423
H	 0.604964197	-1.0947197132	-0.431506027	 0.10298
H	 1.4529003156	-0.5676940895	 1.726392568	 0.11236
H	 0.4388519287	 0.8596915922	 1.8742974044	 0.099628
H	-0.5952668955	-1.3041635444	 3.2323552921	 0.098198
H	-2.5898902831	-1.7418934265	 1.6110222037	 0.105387
H	-3.4369530203	 0.3343443101	-0.307225345	 0.115514
H	-2.0578085848	 1.0455450471	-1.287643056	 0.111257
H	-1.4661425035	-1.096299584	-1.9466079744	 0.234156
79.6169	247.7181	268.4816	273.6484	333.6442	424.9189	466.0671	526.7997	569.9618	680.0537	749.5054	773.8138	874.2805	896.2427	929.5929	965.6328	974.57	985.2288	1003.087	1029.0215	1069.6961	1109.7383	1123.8403	1138.2182	1148.9407	1259.9438	1276.4416	1303.1524	1314.1561	1332.9297	1334.8593	1414.6702	1433.3973	1485.3514	1497.4972	1674.0557	2991.72	3037.4256	3070.8972	3105.2349	3190.7459	3193.9183	3216.4719	3472.8592	3797.1214
OC1CC=CC11CN1	O[C@H]1CC=C[C@]21CN2	
InChI=1S/C6H9NO/c8-5-2-1-3-6(5)4-7-6/h1,3,5,7-8H,2,4H2	InChI=1S/C6H9NO/c8-5-2-1-3-6(5)4-7-6/h1,3,5,7-8H,2,4H2/t5-,6+/m0/s1
