19
gdb 108292	2.78498	1.29375	1.0393	3.4886	75.73	-0.2361	-0.0181	0.2179	1183.5195	0.158222	-423.013426	-423.00468	-423.003736	-423.047433	32.745	
O	-0.1294842678	 1.4901318244	 0.1893004239	-0.423381
C	 0.0118868522	 0.0770352884	 0.2493951247	-0.188501
C	-1.3442678583	-0.5268719674	-0.0053859106	 0.389357
C	-2.426182226	-0.403950019	 1.1019870046	-0.273519
C	-2.7044976269	-1.9332701739	 1.0188506609	-0.229132
C	-1.5842672603	-2.0904846779	-0.061531711	-0.23062
C	-2.1176242173	-1.9117415001	-1.4852193348	 0.415923
O	-2.5116246757	-2.6744602375	-2.3201278336	-0.303518
C	-1.9105026577	-0.3856786937	-1.4500494292	-0.406385
H	 0.7283553316	 1.8889101431	 0.363237088	 0.29001
H	 0.7290899884	-0.2865212338	-0.5059128669	 0.084316
H	 0.3839286902	-0.2451309784	 1.2359311554	 0.084763
H	-2.0138670348	-0.0944137424	 2.0655672558	 0.106569
H	-3.2646074425	 0.2557852862	 0.8667835744	 0.105606
H	-2.4759347684	-2.4729079323	 1.9397413217	 0.114125
H	-3.7038482827	-2.2310646432	 0.6925886865	 0.116994
H	-0.823419957	-2.8550931076	 0.1051458177	 0.08541
H	-2.8056236992	 0.2280984571	-1.5833222055	 0.127846
H	-1.1641159881	-0.0609739819	-2.1832056918	 0.134137
48.4696	92.5707	146.692	198.1208	266.3544	342.2903	355.7755	374.544	436.0566	521.442	589.0889	663.4077	724.3215	769.4887	850.7203	889.5051	915.1712	950.7547	955.258	971.0939	1016.4189	1024.1189	1063.684	1099.2612	1127.726	1139.7042	1185.2261	1201.4451	1218.5256	1232.0112	1245.0262	1261.5143	1278.1525	1302.0439	1336.569	1431.8504	1462.1589	1480.6281	1496.1427	1520.4418	1884.5147	2953.6098	2982.312	3051.8672	3062.7208	3069.5377	3098.3011	3104.6196	3107.7621	3125.5493	3826.8695
OCC12CCC1C(=O)C2	OC[C@]12CC[C@H]1C(=O)C2	
InChI=1S/C7H10O2/c8-4-7-2-1-5(7)6(9)3-7/h5,8H,1-4H2	InChI=1S/C7H10O2/c8-4-7-2-1-5(7)6(9)3-7/h5,8H,1-4H2/t5-,7+/m0/s1
