21
gdb 83746	2.66718	1.48823	1.3193	1.1874	81.72	-0.2337	0.0736	0.3074	1084.6501	0.184073	-387.07179	-387.063612	-387.062668	-387.104252	32.908	
O	 0.0802338251	 1.4311059015	 0.0448027921	-0.419482
C	-0.0227080768	 0.0343479465	 0.0467570734	 0.087964
C	-0.4381216265	-0.6695609986	 1.3054617444	-0.088776
C	-1.1286448913	 0.1355385596	 2.4018162638	-0.213503
C	-2.2778518055	 0.9081726259	 1.7076073407	-0.297774
C	-2.5868150718	 0.1116691656	 0.4346793235	 0.405407
C	-3.942267487	-0.5202693684	 0.2283146449	-0.320773
C	-3.5144181307	 0.651464249	-0.6250867817	-0.325121
C	-1.3540596956	-0.6835754392	 0.086394046	-0.186771
H	-0.3067229118	 1.7542826257	-0.7755006858	 0.288925
H	 0.7564377675	-0.4648894176	-0.5310701113	 0.081706
H	 0.1275288843	-1.5471349187	 1.6000137099	 0.081226
H	-1.5272699085	-0.5644510999	 3.1445870786	 0.097787
H	-0.4437202487	 0.8095346806	 2.9253484401	 0.105435
H	-3.156735876	 1.0100261075	 2.3515203048	 0.088049
H	-1.9365803829	 1.9113907718	 1.4447039126	 0.112312
H	-3.9919310758	-1.4997150521	-0.2369093631	 0.106865
H	-4.7017034668	-0.3491477667	 0.9845698328	 0.108417
H	-3.9891233418	 1.6117905502	-0.4490764162	 0.108038
H	-3.2771136075	 0.4587862403	-1.6667882563	 0.103559
H	-1.475685912	-1.565799113	-0.5346712534	 0.076509
82.0999	179.6992	211.5196	248.1779	280.1073	311.9619	373.2836	487.8278	505.0552	612.5409	691.3833	741.8096	776.1952	784.3815	812.891	825.7541	894.4843	922.5994	939.0833	951.8087	985.5956	1007.7684	1037.8931	1043.4075	1055.6563	1071.7092	1076.8015	1101.9588	1119.3773	1189.6062	1195.7029	1223.4415	1229.7313	1268.6747	1292.0569	1303.5529	1322.1757	1333.5125	1363.9684	1401.5329	1445.5772	1466.5253	1483.0524	1500.7009	1503.7457	3039.0558	3056.8891	3079.491	3085.1546	3111.1186	3118.1101	3122.7847	3149.9688	3165.0265	3195.9277	3211.5706	3807.0821
OC1C2CCC3(CC3)C12	O[C@H]1[C@H]2CCC3(CC3)[C@@H]12	
InChI=1S/C8H12O/c9-7-5-1-2-8(3-4-8)6(5)7/h5-7,9H,1-4H2	InChI=1S/C8H12O/c9-7-5-1-2-8(3-4-8)6(5)7/h5-7,9H,1-4H2/t5-,6+,7-/m0/s1
