15
gdb 29204	3.14235	1.44138	0.99427	7.3682	72.23	-0.2402	-0.0407	0.1994	1124.2417	0.112778	-454.023433	-454.014966	-454.014022	-454.056893	30.696	
C	-0.0328307053	 1.5485485405	-0.0167898404	-0.522964
C	-0.0086783382	 0.0469181127	-0.0057576856	 0.133129
C	-0.0334294644	-0.6951076262	-1.1322507093	 0.041415
O	-0.0130037225	-2.0219792288	-1.1542653535	-0.220121
C	 0.0391462481	-2.7675195603	 0.086234341	 0.429322
O	 0.054150529	-3.9564927383	-0.0366923653	-0.346971
N	 0.0649948152	-2.0491293944	 1.2367148628	-0.419166
C	 0.0431621151	-0.7352279772	 1.211775861	 0.368094
N	 0.0718709086	-0.0993479356	 2.4025101051	-0.551993
H	 0.8613745528	 1.9766257809	 0.4536970544	 0.135104
H	-0.0721648829	 1.9255816602	-1.042222314	 0.138634
H	-0.9076856659	 1.9485737468	 0.5112395258	 0.135123
H	-0.072619796	-0.2625683332	-2.1287621447	 0.135258
H	 0.1082573057	-0.6608695574	 3.2371360121	 0.276206
H	 0.0590330607	 0.9006044904	 2.4767813407	 0.268931
69.2558	85.3775	195.7044	207.4039	283.6283	284.7669	374.9924	409.2602	475.0186	559.8335	585.6184	589.0302	684.386	746.3685	763.7304	787.2732	818.6973	946.5932	1019.6021	1026.3835	1071.3367	1176.8453	1255.3349	1302.9864	1358.8346	1419.1594	1479.2611	1482.5451	1509.4834	1558.4356	1635.3321	1715.7102	1883.3515	3015.4992	3063.2884	3111.2964	3172.5233	3619.0093	3760.5708
CC1=COC(=O)N=C1N	Cc1coc(=O)nc1N	
InChI=1S/C5H6N2O2/c1-3-2-9-5(8)7-4(3)6/h2H,1H3,(H2,6,7,8)	InChI=1S/C5H6N2O2/c1-3-2-9-5(8)7-4(3)6/h2H,1H3,(H2,6,7,8)
