12
gdb 133491	2.72287	1.32665	1.06068	4.0943	50.44	-0.2665	-0.0869	0.1796	1066.3954	0.072822	-600.319314	-600.310691	-600.309747	-600.353339	30.391	
N	 0.0956379483	 1.2936422575	 0.2472446008	-0.540096
C	 0.1217998761	-0.0288746421	-0.0866927504	 0.278031
N	 1.0581410348	-0.7366227524	-0.5943027729	-0.491272
C	-1.185523268	-0.7182526048	 0.2392717974	 0.219935
O	-2.1394798504	-0.1109630759	 0.6521389267	-0.289396
C	-1.2822603749	-2.2562242277	 0.0178144487	 0.251723
F	-1.1139754564	-2.563943556	-1.2678151512	-0.062999
F	-0.3707080863	-2.8994602013	 0.7467819957	-0.062803
F	-2.4888846966	-2.6753828126	 0.3927621447	-0.057941
H	 0.8100936685	 1.9120010854	-0.0965313876	 0.261279
H	-0.7990933351	 1.6892933315	 0.4912203736	 0.276634
H	 1.89441647	-0.1823185316	-0.7896953954	 0.216904
63.4954	67.9226	181.7108	218.1087	296.0977	305.0595	347.5261	403.8354	434.7405	491.5138	512.1947	551.5811	608.9445	650.5135	763.7307	817.8244	893.3568	1026.2538	1091.6867	1137.3667	1215.8626	1233.3828	1296.0376	1434.7946	1608.2958	1719.2108	1826.4191	3454.1497	3591.4983	3721.8335
NC(=N)C(=O)C(F)(F)F	NC(=N)C(=O)C(F)(F)F	
InChI=1S/C3H3F3N2O/c4-3(5,6)1(9)2(7)8/h(H3,7,8)	InChI=1S/C3H3F3N2O/c4-3(5,6)1(9)2(7)8/h(H3,7,8)
