21
gdb 98202	2.4832	1.12192	0.93963	3.7889	75.43	-0.2607	-0.0249	0.2358	1354.3789	0.177781	-461.371107	-461.360042	-461.359097	-461.407679	39.541	
C	-0.2288548948	 1.3519897108	 0.0236022721	-0.250054
O	-0.1772904765	-0.0475473709	-0.1552523684	-0.28336
C	 0.6485508337	-0.5534331707	-1.2016137656	 0.267758
C	 0.1763616403	-0.0906677403	-2.5914014523	-0.423544
C	 2.1357235539	-0.2253100196	-0.9796820547	-0.423494
C	 0.485722459	-2.0805417873	-1.1312745193	 0.328785
O	 1.0738033432	-2.8061340021	-1.9066362203	-0.351943
C	-0.421699725	-2.6936513634	-0.0793384631	-0.125756
O	-0.4351559404	-4.0872950077	-0.1803394436	-0.428912
H	 0.7507022093	 1.7802864741	 0.2742761318	 0.113742
H	-0.6249431153	 1.8742277839	-0.8574059511	 0.11375
H	-0.906647113	 1.5281644939	 0.8621367245	 0.13476
H	 0.3836646829	 0.9715998375	-2.7457640039	 0.119016
H	 0.7024309752	-0.6598980066	-3.3605526228	 0.146615
H	-0.8989011976	-0.2567794029	-2.70627066	 0.126993
H	 2.4384527944	-0.4865480968	 0.0386913424	 0.126985
H	 2.7421018926	-0.7996478383	-1.6831071087	 0.146601
H	 2.3341570586	 0.837663782	-1.140710528	 0.119008
H	-0.0762670547	-2.3572058541	 0.9100142104	 0.12565
H	-1.4275499155	-2.263823857	-0.2008685228	 0.125689
H	 0.1589848499	-4.2947883045	-0.9190162564	 0.29171
36.1187	64.8818	127.0354	166.5789	189.7269	219.8084	263.9013	266.9572	286.1821	312.9189	357.6085	395.7242	398.0889	434.7641	475.7972	571.381	628.0409	776.4125	840.4628	921.9728	934.4107	971.9538	1029.9989	1066.9623	1112.935	1142.4812	1173.1109	1182.1466	1200.0665	1225.8959	1232.3589	1272.93	1317.233	1382.5643	1402.0793	1445.6075	1473.608	1478.8878	1479.0917	1481.757	1499.5124	1502.4979	1506.9063	1515.9128	1788.271	2998.4337	3003.1028	3013.4645	3043.3066	3048.3597	3058.144	3116.4265	3117.0707	3120.4701	3136.4413	3140.7591	3687.1187
COC(C)(C)C(=O)CO	COC(C)(C)C(=O)CO	
InChI=1S/C6H12O3/c1-6(2,9-3)5(8)4-7/h7H,4H2,1-3H3	InChI=1S/C6H12O3/c1-6(2,9-3)5(8)4-7/h7H,4H2,1-3H3
