18
gdb 48958	3.22332	1.63234	1.39564	1.1758	75.63	-0.2272	-0.035	0.1922	960.4569	0.149718	-401.895443	-401.888531	-401.887587	-401.926903	27.723	
O	-0.0455892299	-0.0403689692	-0.2078704446	-0.258129
C	 0.0505544383	 1.0877154048	 0.2177821167	 0.036078
C	 1.2839013244	 1.9098883554	 0.1634916069	 0.242244
C	 1.5860121857	 3.1558736767	 0.9958060361	-0.251515
N	 2.5815761639	 3.5482725565	-0.0749355318	-0.153009
C	 3.5789222795	 2.4419912841	 0.1209330658	-0.165798
C	 2.6748751626	 1.2568561049	-0.2648204497	-0.098852
C	 2.365097245	 1.6446396039	-1.7349701209	-0.243886
C	 1.6470332663	 2.8200918029	-1.0817803464	-0.017286
H	-0.8323423143	 1.6039591451	 0.6617601279	 0.071485
H	 0.7496081002	 3.8611792797	 1.0070342737	 0.111218
H	 2.0046317269	 3.0623887545	 2.002558504	 0.105954
H	 4.4322408954	 2.5598059374	-0.5517642776	 0.106227
H	 3.9421089896	 2.4416841337	 1.1510154492	 0.104096
H	 2.9351591599	 0.2407867342	 0.0223135158	 0.08724
H	 3.2039989758	 1.8341937977	-2.4105823918	 0.102765
H	 1.6416524691	 0.9710636418	-2.1987329189	 0.129833
H	 0.9449083616	 3.491143546	-1.5732437544	 0.091333
81.6644	180.0295	226.5539	403.5617	448.119	450.8527	533.7351	639.5953	678.9399	711.8774	810.6619	841.8961	842.7313	869.6998	913.5483	934.3194	951.6268	997.8365	1000.0505	1016.757	1044.1107	1079.6929	1117.1757	1139.6686	1154.4475	1166.3272	1189.986	1216.1095	1231.9919	1251.0798	1256.1955	1286.9716	1315.9121	1327.227	1430.4885	1487.8479	1503.2617	1529.3803	1797.4328	2860.1978	3043.8992	3058.9421	3065.9768	3100.2872	3113.7362	3129.6898	3137.1633	3149.2822
O=CC12CN3CC1CC23	O=C[C@@]12CN3C[C@@H]1C[C@@H]23	
InChI=1S/C7H9NO/c9-4-7-3-8-2-5(7)1-6(7)8/h4-6H,1-3H2	InChI=1S/C7H9NO/c9-4-7-3-8-2-5(7)1-6(7)8/h4-6H,1-3H2/t5-,6-,7-/m0/s1
