18
gdb 64760	3.45122	1.10856	1.05178	1.653	77.69	-0.2486	0.0192	0.2678	1201.4328	0.146474	-401.931914	-401.922987	-401.922043	-401.966061	33.09	
C	 0.0939905932	 1.4748215177	 0.0851023531	-0.422693
C	 0.0009465857	-0.0520453586	 0.0227923462	 0.257823
C	-1.4759744264	-0.5294910442	 0.0177717396	-0.393252
C	-2.2736610763	-0.0576243267	 1.1412459538	 0.327055
C	-2.9466804974	 0.3358860408	 2.0556322265	-0.445127
C	 0.7647738055	-0.6424588721	-1.2045190604	-0.149616
O	 1.7983538633	-1.4721239525	-0.628358214	-0.220007
C	 1.6297733171	-1.3677031468	 0.7120380766	 0.114713
N	 0.7054657561	-0.6434138101	 1.183155859	-0.277152
H	 1.1408917596	 1.7915598456	 0.0872050413	 0.118636
H	-0.4027355085	 1.9293154209	-0.7795989096	 0.110766
H	-0.3825675492	 1.8461053533	 0.9943928112	 0.147708
H	-1.9398287455	-0.198903557	-0.9217158595	 0.127072
H	-1.4822935419	-1.6262130502	-0.0003394171	 0.132451
H	-3.5334662952	 0.6758022146	 2.8725530962	 0.195119
H	 0.1398992258	-1.2725670527	-1.845143387	 0.116174
H	 1.2444598457	 0.1250601548	-1.8180002868	 0.117974
H	 2.3395408983	-1.9445032568	 1.295100581	 0.142358
42.2942	88.2355	142.7615	237.5492	281.8322	312.9621	351.8804	364.8448	377.8099	456.0137	594.5475	616.3415	641.0792	694.447	794.0075	845.6257	902.0336	920.0556	953.4246	967.6218	974.5025	983.2047	1002.6484	1112.7568	1139.8898	1183.2295	1197.9187	1249.5814	1286.9687	1319.1353	1345.795	1381.8595	1409.4929	1461.973	1487.3353	1495.5663	1517.0992	1705.7379	2240.4765	3012.742	3036.3819	3048.3782	3053.9008	3097.0192	3106.2117	3138.3127	3214.0525	3507.1192
CC1(CC#C)COC=N1	C[C@@]1(CC#C)COC=N1	
InChI=1S/C7H9NO/c1-3-4-7(2)5-9-6-8-7/h1,6H,4-5H2,2H3	InChI=1S/C7H9NO/c1-3-4-7(2)5-9-6-8-7/h1,6H,4-5H2,2H3/t7-/m1/s1
