22
gdb 109938	2.39768	1.30727	0.96317	1.274	82.58	-0.2393	0.076	0.3152	1296.8145	0.193771	-404.305969	-404.296336	-404.295392	-404.340425	36.352	
C	-0.8610675198	 1.0921194398	-0.0171334493	-0.402307
C	 0.1209969036	-0.0703009236	-0.0094752728	 0.04498
C	 1.4986084499	 0.1162514284	-0.7206805178	-0.335965
C	 2.1469094954	-0.612510001	 0.4582399967	 0.362674
C	 3.0751790261	-1.760416173	 0.3885256243	-0.308166
N	 3.506936735	-0.4731767771	 0.9755755208	-0.369782
C	 0.8760380576	-0.4696719672	 1.3093224698	-0.08471
C	 0.9975979612	 0.591873886	 2.389310106	-0.085525
O	-0.2625894634	 0.7060913732	 3.0394892876	-0.425407
H	-0.3977253839	 2.0171674975	 0.3407108439	 0.109198
H	-1.2247795367	 1.27823065	-1.034217396	 0.103827
H	-1.7213462514	 0.8871381061	 0.6254807817	 0.12947
H	-0.3733548413	-0.962099625	-0.4080100882	 0.074104
H	 1.6191964628	-0.3213012269	-1.715734685	 0.097591
H	 1.7927428857	 1.1716891732	-0.7660633499	 0.097093
H	 2.9915798231	-2.5792529441	 1.0989395035	 0.116993
H	 3.4636688803	-2.044800891	-0.5867765685	 0.108251
H	 4.0825926664	 0.0365788198	 0.3088075721	 0.227246
H	 0.5136199073	-1.3904074854	 1.7765821793	 0.073401
H	 1.7893060754	 0.2890470714	 3.0897668231	 0.104528
H	 1.3104600361	 1.5538477882	 1.9522714948	 0.078076
H	-0.1823905894	 1.3673618308	 3.7330379339	 0.284428
59.127	116.9705	149.0792	206.8155	234.6466	246.3826	273.8677	326.7724	338.2981	366.374	473.6986	499.5565	581.4493	734.6089	808.5902	839.0158	870.2888	894.0551	926.0943	969.6516	972.0398	990.146	1010.011	1033.8107	1068.3697	1103.1683	1114.0787	1134.5404	1151.6378	1173.5246	1218.2697	1239.0075	1247.4194	1266.0219	1270.7938	1277.0477	1307.0549	1353.0085	1367.119	1413.2831	1418.7181	1457.5867	1484.2852	1487.3969	1496.0933	1513.9067	1523.7309	2970.11	3012.2016	3029.8149	3033.5916	3043.8613	3063.1506	3088.7806	3095.477	3097.8385	3117.0565	3182.0849	3486.3468	3827.9884
CC1CC2(CN2)C1CO	C[C@H]1C[C@]2(CN2)[C@H]1CO	
InChI=1S/C7H13NO/c1-5-2-7(4-8-7)6(5)3-9/h5-6,8-9H,2-4H2,1H3	InChI=1S/C7H13NO/c1-5-2-7(4-8-7)6(5)3-9/h5-6,8-9H,2-4H2,1H3/t5-,6-,7-/m0/s1
