17
gdb 90330	2.9743	1.81655	1.70791	3.436	70.89	-0.2515	-0.0212	0.2303	884.168	0.137982	-417.946551	-417.939783	-417.938839	-417.977471	27.246	
C	-0.0782245111	 1.5881318114	-0.0957790997	-0.39605
C	 0.0778035667	 0.0831878512	-0.0108107539	 0.104033
O	 0.9176514726	-0.4145802196	-1.1364008782	-0.252994
C	 2.067153219	-0.5069085768	-0.4249956138	 0.288906
N	 2.9612123383	 0.3922711501	-0.3633771025	-0.244517
C	 3.3380045601	 0.4277884899	 1.0664902634	-0.187501
C	 2.2277629119	-0.3874655096	 1.7404229551	-0.060491
C	 0.7734780271	-0.505498587	 1.2579211362	-0.103816
N	 1.8374894585	-1.3778680994	 0.7271024901	-0.125408
H	 0.9019800268	 2.0702684037	-0.1263618408	 0.151659
H	-0.6339564624	 1.8676258179	-0.9944213912	 0.133653
H	-0.6243843768	 1.9545549954	 0.7803268158	 0.121065
H	-0.8825729434	-0.4279116189	-0.1198572857	 0.10944
H	 4.3095068092	-0.0405168465	 1.2755949602	 0.123988
H	 3.3995664896	 1.4749409051	 1.3781473717	 0.124704
H	 2.4070047954	-0.7696408859	 2.7429647253	 0.103514
H	 0.0924419685	-0.9566360409	 1.9769403479	 0.109817
133.9316	226.2125	239.8153	328.6108	396.8215	510.7734	547.7978	634.8879	667.7414	716.8296	781.6847	789.4987	814.4133	888.3608	904.9527	918.3647	969.6721	1010.9123	1021.3493	1037.3584	1075.8519	1090.5311	1119.5695	1144.2671	1167.0374	1202.3726	1228.0347	1307.1003	1315.3746	1344.7152	1359.9743	1382.1827	1408.6418	1479.2486	1490.5052	1498.0626	1677.1452	3018.6803	3042.0177	3076.6894	3078.3646	3114.8128	3126.0204	3135.232	3144.5253
CC1OC2=NCC3C1N23	C[C@H]1O[C]2[N]C[C@H]3[C@@H]1N23	
InChI=1S/C6H8N2O/c1-3-5-4-2-7-6(9-3)8(4)5/h3-5H,2H2,1H3	InChI=1S/C6H8N2O/c1-3-5-4-2-7-6(9-3)8(4)5/h3-5H,2H2,1H3/t3-,4+,5-,8?/m1/s1
