15
gdb 50122	6.14816	0.89643	0.8465	2.996	75.07	-0.2446	-0.0346	0.21	1306.9199	0.109725	-420.555854	-420.547585	-420.54664	-420.589142	30.409	
O	-0.1121092529	-0.040236394	-0.0455723545	-0.251879
C	-0.0194592488	 1.1426218862	 0.1663691422	 0.155774
C	 1.2621745436	 1.9272814986	 0.043824229	-0.110055
C	 1.2557343564	 3.1690407074	-0.929877203	-0.339746
C	 1.5813788143	 4.0739658356	 0.2739285335	 0.302785
O	 0.5132444743	 3.8778789614	 1.223827626	-0.270252
C	 1.5602981465	 2.9129233709	 1.1964614215	-0.079343
C	 2.310324005	 5.293380416	 0.2883598608	 0.173589
C	 2.9352781289	 6.3198109065	 0.2500217499	-0.371262
H	-0.898298252	 1.749851965	 0.4715911777	 0.097187
H	 2.0903439238	 1.2472673741	-0.1624621713	 0.106067
H	 2.0599358015	 3.1101494287	-1.6641317554	 0.135203
H	 0.3130408213	 3.4057520012	-1.4281754586	 0.127357
H	 2.1022237211	 2.7319439779	 2.1174076217	 0.126598
H	 3.4846898369	 7.2287351944	 0.2282043905	 0.197978
69.5367	90.7191	150.2893	207.8498	284.7827	371.5918	410.246	472.4432	515.1256	562.1628	623.8875	630.8834	680.0827	744.064	827.1904	883.7011	902.4781	939.9949	959.0966	1022.263	1074.2462	1094.8075	1155.6651	1164.9029	1211.6249	1246.1599	1260.1851	1293.9409	1405.7593	1431.6946	1471.4251	1824.0031	2243.5644	2910.9978	3078.6398	3107.9541	3145.2925	3194.2197	3500.1876
O=CC1CC2(OC12)C#C	O=C[C@H]1C[C@]2(O[C@@H]12)C#C	
InChI=1S/C7H6O2/c1-2-7-3-5(4-8)6(7)9-7/h1,4-6H,3H2	InChI=1S/C7H6O2/c1-2-7-3-5(4-8)6(7)9-7/h1,4-6H,3H2/t5-,6+,7-/m1/s1
