19
gdb 16658	2.77513	2.34662	1.73127	2.4482	70.29	-0.2231	0.0668	0.29	845.3113	0.166786	-365.045771	-365.038213	-365.037269	-365.076993	29.901	
C	-0.8204642976	 1.2436435788	 0.0391911961	-0.38893
C	 0.034656511	-0.0173975639	 0.0076657697	 0.05007
C	 0.860338567	-0.2360997118	-1.2879758449	 0.064263
O	 1.2523899161	 1.0288062423	-1.819058469	-0.419177
C	 2.057743281	-1.0826165632	-0.7993966986	-0.250136
C	 2.2040898887	-0.7204254827	 0.671652123	-0.01591
C	 2.1747919052	 0.7196398266	 1.03768414	-0.256756
N	 0.9577101998	-0.1054517639	 1.1624840973	-0.104705
H	-0.2075126631	 2.1400208139	-0.0734145463	 0.13229
H	-1.5527856567	 1.2346387067	-0.7737240982	 0.111395
H	-1.3575791075	 1.3018897737	 0.9896239951	 0.119876
H	-0.6245086735	-0.8900763663	 0.1061970927	 0.080029
H	 0.2650943025	-0.7775793255	-2.036172071	 0.067605
H	 1.7907419295	 0.8670583853	-2.5998830703	 0.283668
H	 1.8280278325	-2.1500827933	-0.8960703678	 0.104448
H	 2.9595428456	-0.8887713058	-1.3906301353	 0.094958
H	 2.683620767	-1.4392625077	 1.3307621011	 0.084023
H	 2.591358963	 1.0377388943	 1.9894577631	 0.107314
H	 2.2337022393	 1.4481107626	 0.2363154633	 0.135675
146.1001	217.1646	231.447	269.2006	283.5994	344.9603	405.3452	437.9935	537.9814	660.8517	723.1391	764.9906	809.426	847.0087	866.2396	906.9331	946.3786	1003.1407	1011.5324	1049.0927	1075.7614	1100.5329	1122.2245	1144.5172	1151.3606	1179.7759	1213.2853	1218.0434	1276.031	1288.396	1335.5084	1357.3586	1373.7828	1393.714	1407.0568	1421.9137	1477.2616	1489.5098	1498.2816	1501.8745	2995.8325	3018.0156	3037.6454	3050.1042	3075.2281	3115.6473	3117.0449	3137.7344	3139.4871	3213.3632	3821.9566
CC1C(O)CC2CN12	C[C@H]1[C@@H](O)C[C@H]2CN12	
InChI=1S/C6H11NO/c1-4-6(8)2-5-3-7(4)5/h4-6,8H,2-3H2,1H3	InChI=1S/C6H11NO/c1-4-6(8)2-5-3-7(4)5/h4-6,8H,2-3H2,1H3/t4-,5-,6-,7?/m0/s1
