14
gdb 125236	3.21276	1.39959	0.98083	3.5959	69.32	-0.249	-0.0579	0.191	1126.9266	0.100139	-473.831339	-473.823479	-473.822534	-473.86391	29.055	
C	 0.0347396275	 1.5043553435	 0.0466218818	-0.468275
C	-0.0471806882	 0.0112639841	 0.0178902249	 0.424418
C	-1.1692647034	-0.7206879447	-0.17192808	-0.344387
C	-1.1150169003	-2.1619093366	-0.1782341837	 0.337023
O	-2.0462280618	-2.9291472502	-0.337462239	-0.348477
C	 0.2824771372	-2.6492573837	 0.0435555251	 0.323464
O	 0.4389382664	-3.9750244856	 0.0550659756	-0.370056
N	 1.3337998865	-1.9211381341	 0.2218959282	-0.185708
O	 1.1649980218	-0.5392368667	 0.208960156	-0.269606
H	 0.713545264	 1.8635848698	-0.7332827597	 0.158139
H	-0.9515448682	 1.9428265529	-0.1092258551	 0.147358
H	 0.4304807384	 1.8456238194	 1.0083772899	 0.158136
H	-2.1230846686	-0.2317199716	-0.3216289441	 0.126295
H	 1.3783734988	-4.1594947566	 0.2056687201	 0.311677
108.0805	109.6683	175.7616	303.7276	317.9298	351.8473	420.8824	460.837	516.92	567.9576	590.5748	602.3122	697.034	787.688	791.1522	880.0727	933.9659	1017.3267	1055.5873	1064.1002	1176.6095	1228.7105	1255.0847	1374.3184	1413.1324	1467.1819	1469.4264	1482.2781	1631.2845	1662.2698	1769.5692	3047.9937	3108.1008	3150.9885	3220.0482	3745.6456
CC1=CC(=O)C(O)=NO1	Cc1cc(=O)c(O)no1	
InChI=1S/C5H5NO3/c1-3-2-4(7)5(8)6-9-3/h2H,1H3,(H,6,8)	InChI=1S/C5H5NO3/c1-3-2-4(7)5(8)6-9-3/h2H,1H3,(H,6,8)
