19
gdb 105852	2.01651	1.63898	1.23303	2.9103	76.68	-0.2286	-0.0125	0.2161	1126.0804	0.157114	-423.005041	-422.995771	-422.994826	-423.039262	33.874	
C	-0.2612465421	 1.3633834255	-0.102438475	-0.262842
O	 0.1734825422	 0.0201550416	 0.0860730888	-0.275561
C	 0.773436775	-0.5193900631	-1.0216720839	 0.308081
C	-0.0366356289	-1.0745007626	-2.1945826789	-0.072403
C	 0.0988999368	-0.6766114073	-3.6509716767	-0.42301
C	 0.8666426787	-2.0103467154	-1.4475286477	-0.162846
C	 2.3279128536	-1.8326687414	-1.8852705646	-0.362115
C	 2.2262183373	-0.3643609279	-1.3866276862	 0.341953
O	 3.0419251852	 0.486023508	-1.164166741	-0.324202
H	 0.5833599024	 2.0221246573	-0.3347765273	 0.140396
H	-1.004628669	 1.4314425011	-0.9088000494	 0.109502
H	-0.7199187387	 1.679084004	 0.8366447711	 0.131151
H	-1.0706596305	-1.1799903738	-1.8679132175	 0.104594
H	 1.1380436751	-0.5227823691	-3.9512154001	 0.130653
H	-0.3258294571	-1.4476901599	-4.3032898642	 0.123564
H	-0.438951739	 0.2566892986	-3.8462872925	 0.125486
H	 0.4918735251	-2.854900904	-0.8844370876	 0.111974
H	 3.0410119683	-2.3813585084	-1.262986155	 0.134778
H	 2.5682111357	-2.0021156331	-2.9374746325	 0.120847
66.1522	104.542	159.272	168.2851	179.2068	274.1442	288.1888	311.1612	414.9352	477.513	519.791	587.8445	658.8948	693.51	781.571	825.6378	899.7459	946.9115	979.2952	1005.5922	1019.9798	1045.262	1051.7543	1110.4862	1126.7096	1148.0066	1179.1814	1207.5313	1219.5963	1239.3082	1298.4784	1337.0157	1416.6184	1433.8405	1465.876	1486.2139	1490.9697	1495.4912	1503.4471	1507.4291	1871.7541	3002.8757	3036.6963	3063.9889	3073.3475	3095.9858	3112.1499	3116.703	3129.3544	3131.0016	3205.9842
COC12C(C)C1CC2=O	CO[C@]12[C@@H](C)[C@H]1CC2=O	
InChI=1S/C7H10O2/c1-4-5-3-6(8)7(4,5)9-2/h4-5H,3H2,1-2H3	InChI=1S/C7H10O2/c1-4-5-3-6(8)7(4,5)9-2/h4-5H,3H2,1-2H3/t4-,5+,7+/m0/s1
