19
gdb 78162	2.27879	1.69917	1.33012	4.8744	75.35	-0.247	0.0346	0.2816	1051.7647	0.160255	-419.23261	-419.224071	-419.223127	-419.265491	32.578	
C	 0.8090638283	 2.0494592554	 0.371993564	-0.42333
C	 0.6301788866	 0.5507237529	 0.2892966539	 0.003382
C	 0.7714733934	-0.309675805	-0.9170995076	-0.065285
C	 1.469005761	 0.1507853461	-2.200306548	 0.030179
C	 0.7494751921	 1.2222715606	-3.0228687753	-0.405493
N	 2.7556034811	 0.5647547832	-1.6681079502	-0.323669
C	 2.9692990523	 0.2335484304	-0.3501656986	 0.398152
O	 3.9750778521	 0.4240185833	 0.2840008055	-0.37067
N	 1.7763305452	-0.3967483352	 0.1663410422	-0.172946
H	 1.5483940447	 2.4336784672	-0.331340271	 0.140651
H	-0.1465072729	 2.5462445783	 0.1736588155	 0.122431
H	 1.126259358	 2.3283731899	 1.381915433	 0.140077
H	-0.0871118755	 0.1766631896	 1.0184075615	 0.104465
H	 0.110570393	-1.1659240269	-1.0171081782	 0.100054
H	 1.5910192206	-0.7377508338	-2.8391777585	 0.091619
H	 0.578721271	 2.1312408729	-2.4428096247	 0.13106
H	 1.3324562165	 1.4847985932	-3.9118940345	 0.119776
H	-0.21833422	 0.8417885553	-3.3646269923	 0.126398
H	 3.5204001422	 0.8867017227	-2.2387009469	 0.253149
103.3178	137.0357	190.8403	219.2595	231.2285	280.4625	364.246	425.2482	452.4005	521.878	561.264	652.2596	696.2444	744.3919	771.6938	819.3106	859.1774	933.3494	959.6352	992.7858	1041.5825	1056.2279	1090.4835	1131.8335	1134.0326	1164.2624	1175.2422	1227.9502	1299.5464	1324.0685	1375.8315	1397.9717	1409.4496	1419.4442	1432.0354	1439.149	1492.1807	1494.8761	1499.6366	1504.4047	1857.5682	2972.3537	3041.9791	3043.4297	3101.1003	3104.7976	3113.0191	3136.6845	3146.0403	3150.3713	3650.0652
CC1C2C(C)NC(=O)N12	C[C@H]1[C@H]2[C@@H](C)NC(=O)N12	
InChI=1S/C6H10N2O/c1-3-5-4(2)8(5)6(9)7-3/h3-5H,1-2H3,(H,7,9)	InChI=1S/C6H10N2O/c1-3-5-4(2)8(5)6(9)7-3/h3-5H,1-2H3,(H,7,9)/t3-,4+,5-,8?/m1/s1
