21
gdb 116311	2.21801	1.19319	0.83217	3.8223	74.3	-0.2425	0.0692	0.3117	1386.3388	0.182719	-461.346981	-461.337233	-461.336289	-461.382466	35.23	
O	-0.2929365119	 1.5980595868	 0.0073684164	-0.425007
C	-0.0239523687	 0.2151723341	 0.2005725682	-0.110515
C	-1.3359838547	-0.5246657442	-0.014065438	 0.004448
C	-1.9266022007	-0.3579200087	-1.4230552439	-0.084447
O	-2.876166517	-1.4005450794	-1.5380787317	-0.247735
C	-2.2908664388	-2.5564180137	-0.9536720916	-0.079486
C	-1.3151866674	-2.0718326558	 0.1585868334	-0.037391
C	 0.0509566411	-2.7381629546	 0.0221182584	-0.100944
O	-0.157982903	-4.1340209606	 0.1918727355	-0.422976
H	 0.5290312827	 2.0847201056	 0.1178242727	 0.28736
H	 0.7382396346	-0.1375245192	-0.5126672504	 0.085408
H	 0.3603240554	 0.0252519452	 1.2152348847	 0.090484
H	-2.0593154102	-0.1096784001	 0.6957567414	 0.092617
H	-2.4379028901	 0.5939466889	-1.5740306394	 0.120826
H	-1.1339288576	-0.4514319791	-2.1881876075	 0.074658
H	-3.0991289611	-3.1871630585	-0.5762722234	 0.110739
H	-1.7380476113	-3.1349874781	-1.7097940097	 0.092658
H	-1.7009093744	-2.3451505317	 1.1449127208	 0.087817
H	 0.4826887633	-2.5230215852	-0.968964276	 0.087055
H	 0.7494510736	-2.3520857916	 0.7804795937	 0.087215
H	 0.6764056662	-4.5869420702	 0.0394871364	 0.287217
34.3301	106.9455	138.0492	158.3042	218.6672	229.5885	275.6934	278.5615	329.6073	387.9988	456.7664	486.0966	645.2858	695.0144	827.5579	882.8527	936.8996	949.1834	966.0637	1028.8145	1059.735	1068.3162	1079.3221	1091.1557	1124.0948	1148.7026	1154.0147	1210.3066	1230.9767	1251.1729	1258.5229	1272.6915	1277.0912	1301.9763	1332.5589	1338.4587	1362.8983	1387.4802	1405.2558	1454.8142	1462.9781	1507.0298	1515.8485	1520.2296	1530.388	2935.0357	2958.3044	2968.8075	2985.4153	2989.4167	2998.978	3048.7347	3067.3956	3095.6592	3117.9374	3829.9089	3830.611
OCC1COCC1CO	OC[C@H]1COC[C@H]1CO	
InChI=1S/C6H12O3/c7-1-5-3-9-4-6(5)2-8/h5-8H,1-4H2	InChI=1S/C6H12O3/c7-1-5-3-9-4-6(5)2-8/h5-8H,1-4H2/t5-,6+
