14
gdb 132926	3.18996	1.33333	0.94198	7.6977	69.37	-0.2148	-0.0128	0.202	1132.465	0.102087	-478.019446	-478.01178	-478.010836	-478.051421	29.468	
O	 0.0308101741	-0.0856586433	 0.0239982641	-0.401771
C	-0.0156865035	 1.1386912336	 0.0126759206	 0.297678
C	-1.2366868721	 1.9274449302	 0.0242246277	-0.338177
C	-1.2384392439	 3.2912942727	 0.0013700824	 0.432763
N	-2.3770585754	 4.0943299568	-0.0789348676	-0.587778
H	-3.231763042	 3.558929853	-0.0158976249	 0.264466
H	-2.3927030967	 4.8560053677	 0.5890638643	 0.253551
N	-0.0553917872	 3.9821844175	 0.0026661691	-0.376204
C	 1.1569206585	 3.3220794525	-0.0000649307	-0.110867
C	 1.1979923057	 1.9758344275	 0.0140175621	 0.122617
F	 2.3730208657	 1.3529586869	 0.0331440966	-0.064139
H	-2.1751728839	 1.3875816571	 0.0680583307	 0.100828
H	-0.0747113584	 4.9676599115	-0.2025129296	 0.26514
H	 2.048006119	 3.9352176664	-0.0043912748	 0.141893
126.6316	185.3648	278.758	298.7305	340.415	365.6521	407.5949	440.5057	457.3517	522.6881	608.7195	639.9697	727.3109	741.8208	760.6121	800.678	848.8786	862.1566	978.745	1123.7339	1176.2738	1224.2657	1249.0756	1300.1276	1377.8071	1408.4886	1558.8735	1633.959	1668.0667	1710.2876	1732.2658	3202.6079	3224.8308	3536.2805	3640.879	3650.5791
[O-]C1=CC(=[NH2+])NC=C1F	O=c1cc(N)[nH]cc1F	
InChI=1S/C5H5FN2O/c6-3-2-8-5(7)1-4(3)9/h1-2H,(H3,7,8,9)	InChI=1S/C5H5FN2O/c6-3-2-8-5(7)1-4(3)9/h1-2H,(H3,7,8,9)
