18
gdb 97779	3.03421	0.78051	0.65668	1.4417	89.26	-0.2355	0.0241	0.2596	1735.8567	0.145431	-364.722685	-364.712779	-364.711835	-364.759128	35.271	
C	-0.2255143012	 1.6143040708	 0.1101137946	-0.364899
C	 0.2329984941	 0.1610319637	-0.1110228377	-0.318265
C	 0.8836239569	-0.4197291662	 1.0577439544	 0.152035
C	 1.4031573256	-0.8862296021	 2.0394285521	 0.099584
C	 2.0628732568	-1.4350908858	 3.1886224777	-0.262888
N	 1.2294826169	-1.9860193856	 4.2761383219	-0.316519
C	 2.0689972676	-2.9152233578	 3.495147675	-0.245721
C	 1.4099888137	-3.8778422651	 2.6598551769	 0.389583
C	 0.8975361784	-4.7052616608	 1.954982386	-0.42924
H	 0.6248391891	 2.2575814954	 0.3521891629	 0.126526
H	-0.706670666	 2.0033705851	-0.7921840336	 0.114077
H	-0.9394374072	 1.6740697289	 0.935852458	 0.131691
H	-0.6297974687	-0.4591291455	-0.3855914641	 0.134398
H	 0.9188532562	 0.1180805411	-0.9670150977	 0.129315
H	 2.9742148651	-0.9167147922	 3.4828877833	 0.110276
H	 1.6742643966	-1.8022097262	 5.172578161	 0.239046
H	 2.9811119399	-3.2781719805	 3.9656494889	 0.113606
H	 0.4308319061	-5.4280053071	 1.3327961604	 0.197394
24.6636	58.6723	106.0404	141.2275	206.1391	224.9899	236.0174	344.7647	404.9066	470.4966	526.5708	570.7461	603.5712	622.2746	657.3292	715.3616	785.2552	811.7559	857.8778	908.9244	967.8598	972.3966	1065.3673	1086.2226	1104.0553	1145.7522	1192.0525	1202.878	1255.7344	1285.7943	1350.8804	1401.3138	1409.1345	1438.2746	1473.6527	1494.9778	1505.7512	2244.527	2368.2097	3020.8415	3044.7407	3049.0169	3111.7795	3117.8787	3122.3087	3124.9233	3497.2018	3505.6377
CCC#CC1NC1C#C	CCC#C[C@H]1N[C@H]1C#C	
InChI=1S/C8H9N/c1-3-5-6-8-7(4-2)9-8/h2,7-9H,3H2,1H3	InChI=1S/C8H9N/c1-3-5-6-8-7(4-2)9-8/h2,7-9H,3H2,1H3/t7-,8+/m0/s1
