17
gdb 65420	3.99479	0.84196	0.78536	2.8191	80.43	-0.2632	0.0228	0.2861	1449.6728	0.134756	-380.831672	-380.822274	-380.821329	-380.866186	34.615	
N	-0.0541605474	 1.4253321544	 0.2120745916	-0.555919
C	-0.0152011107	 0.0001925945	-0.0048135553	 0.120649
C	-0.6551997859	-0.8666111435	 1.0694458396	-0.292477
C	-1.3386754739	-0.7246703343	-0.2548798479	-0.017221
C	-2.6267465804	 0.0745408753	-0.3904612301	-0.391472
C	-3.7957534592	-0.7002538389	 0.0128339829	 0.306667
C	-4.7459272402	-1.3562057843	 0.3458394346	-0.441952
C	 1.1532533444	-0.5260253659	-0.6814429271	 0.235985
N	 2.0989679029	-0.9024915284	-1.2328576104	-0.344715
H	 0.6844962567	 1.7073371784	 0.8494964748	 0.247701
H	 0.0946716426	 1.9262036214	-0.6589843136	 0.246385
H	-0.1783099487	-1.8065925488	 1.3181675565	 0.138869
H	-1.0667425828	-0.3159633176	 1.9080728425	 0.137902
H	-1.2685639486	-1.5809245077	-0.9175932874	 0.122434
H	-2.546960761	 0.9856276212	 0.2109046019	 0.154019
H	-2.7469329696	 0.4009258324	-1.4317223872	 0.134647
H	-5.5921770882	-1.9261527984	 0.6397988646	 0.198498
49.6901	99.431	139.3021	193.0245	225.5165	300.077	316.7657	342.484	403.448	435.5998	494.5795	581.1467	614.8968	621.215	644.7712	699.3162	840.5462	859.7596	873.7116	902.191	944.5968	961.539	1050.372	1076.8564	1093.8572	1151.0081	1215.9017	1251.3535	1278.5075	1308.6081	1327.7047	1414.5433	1472.1904	1485.5988	1664.4204	2240.8003	2337.9281	3025.749	3080.5389	3146.6229	3170.1225	3241.2699	3495.2874	3506.7455	3571.5098
NC1(CC1CC#C)C#N	N[C@]1(C[C@H]1CC#C)C#N	
InChI=1S/C7H8N2/c1-2-3-6-4-7(6,9)5-8/h1,6H,3-4,9H2	InChI=1S/C7H8N2/c1-2-3-6-4-7(6,9)5-8/h1,6H,3-4,9H2/t6-,7-/m1/s1
