15
gdb 32560	2.59838	1.50635	0.95919	2.2837	70.06	-0.2366	-0.0336	0.203	1143.9309	0.113359	-457.801997	-457.794075	-457.793131	-457.834827	29.021	
O	-0.0223250957	 1.4405276873	 0.0073015951	-0.428563
C	-0.0085608562	 0.0235152784	 0.0021345004	-0.151761
C	-1.4168791841	-0.4910241613	 0.0122620475	 0.034158
C	-2.4793047089	 0.332709131	 0.023554039	 0.006891
O	-3.7665446955	-0.0962790409	 0.0329444471	-0.189985
C	-3.991280984	-1.426959536	 0.0308759422	 0.070555
C	-3.0129534395	-2.3475910805	 0.0200224341	-0.254236
C	-1.606430604	-1.9486848607	 0.0093576983	 0.327683
O	-0.665755488	-2.7351976938	-0.0005204503	-0.382384
H	 0.887831547	 1.7480981115	 0.0015755084	 0.295469
H	 0.5049143439	-0.3821856762	-0.8832740217	 0.120255
H	 0.5198647548	-0.3885626382	 0.8757010591	 0.120286
H	-2.4139132796	 1.4113387236	 0.0263207824	 0.161947
H	-5.0523434252	-1.6438603061	 0.0390883668	 0.14517
H	-3.2572882849	-3.402601868	 0.0190002418	 0.124514
81.3251	140.9624	193.3124	210.4105	268.7388	335.7193	421.8547	490.2717	502.7723	555.7697	601.9415	764.0065	767.2488	860.8984	867.661	915.0093	968.8024	997.4156	1041.5437	1067.5835	1122.2212	1163.8365	1225.111	1236.3292	1243.3351	1341.8313	1399.8191	1429.474	1465.3922	1501.853	1626.5035	1691.861	1736.3128	2984.3663	3004.9301	3208.6769	3227.4695	3248.9507	3847.2019
OCC1=COC=CC1=O	OCc1coccc1=O	
InChI=1S/C6H6O3/c7-3-5-4-9-2-1-6(5)8/h1-2,4,7H,3H2	InChI=1S/C6H6O3/c7-3-5-4-9-2-1-6(5)8/h1-2,4,7H,3H2
