17
gdb 123479	4.95865	0.98495	0.88617	2.5447	75.47	-0.2441	-0.013	0.2311	1303.0845	0.136947	-417.965267	-417.957478	-417.956534	-417.999063	28.505	
C	-0.0462142832	 1.493741401	-0.3018816801	-0.280913
N	-0.1537314704	 0.0346272251	-0.2644487011	-0.067111
C	-0.1876357248	-0.5678079031	 1.0668194734	-0.211848
C	-1.4216900023	-0.4906263433	 0.2383967789	-0.223191
C	 1.3791284124	 1.9335021079	-0.2238154446	 0.455565
C	 2.2897648775	 2.3468910481	-1.1460139222	-0.33192
C	 3.4565708596	 2.5904551199	-0.3752100792	 0.035407
N	 3.2693701997	 2.3489673532	 0.898976977	-0.138512
O	 1.9453159238	 1.9317629584	 0.9985727893	-0.206432
H	-0.4696969639	 1.8432458368	-1.248613157	 0.124294
H	-0.6105075562	 1.9770378231	 0.5152285903	 0.107453
H	 0.3521553544	-1.5042218524	 1.1685698231	 0.123812
H	-0.1175848114	 0.0938052196	 1.9274094692	 0.125224
H	-2.1841141038	 0.2234575524	 0.5460516103	 0.111499
H	-1.801448944	-1.3683515191	-0.2758349983	 0.1217
H	 2.1511893701	 2.4547244084	-2.2085160107	 0.122348
H	 4.4264684226	 2.9361507239	-0.7043327184	 0.132626
33.1528	79.7502	119.7211	292.1305	310.7197	354.5838	413.9144	649.6754	658.9398	755.9033	777.1413	816.8427	838.592	906.1849	918.7135	922.1357	944.837	991.155	1007.9482	1034.5602	1042.0533	1054.3324	1112.2634	1120.5692	1168.1152	1176.6432	1214.1661	1239.8913	1287.3755	1314.5115	1377.4104	1387.126	1480.2195	1493.5328	1511.5282	1520.9702	1639.8786	2948.1904	3078.522	3097.7252	3109.493	3184.3831	3200.4417	3244.1798	3282.8022
C(N1CC1)C1=CC=NO1	C(N1CC1)c1ccno1	
InChI=1S/C6H8N2O/c1-2-7-9-6(1)5-8-3-4-8/h1-2H,3-5H2	InChI=1S/C6H8N2O/c1-2-7-9-6(1)5-8-3-4-8/h1-2H,3-5H2
