21
gdb 113654	3.46789	0.81827	0.74811	1.925	80.72	-0.2419	-0.0121	0.2297	1608.027	0.180289	-424.233751	-424.223286	-424.222342	-424.270223	37.077	
C	 0.149541923	 1.5340129531	 0.1404646863	-0.378502
C	-0.0428534033	 0.0275410659	-0.0039355034	-0.284711
C	-1.4859420899	-0.4266771632	 0.1734739124	 0.38642
O	-2.3761817189	 0.3630350284	 0.4212643886	-0.333204
C	-1.72074043	-1.8953925031	 0.0329962806	-0.141803
C	-2.8963096132	-2.5252074677	 0.7658306696	-0.276753
C	-2.9348223285	-2.4466413004	-0.7207718418	 0.021063
C	-3.9168217754	-1.5541300169	-1.4372798284	-0.115547
O	-5.1122853352	-2.3105771791	-1.6052102293	-0.425001
H	 1.2008324848	 1.8049519227	 0.0086854429	 0.108314
H	-0.4438937976	 2.0757164629	-0.6004897832	 0.129686
H	-0.17622543	 1.8749261017	 1.1263935513	 0.13196
H	 0.2994059772	-0.3288248189	-0.9860035295	 0.122472
H	 0.5694393429	-0.5243822159	 0.7235134675	 0.123252
H	-0.8182171205	-2.4910581634	-0.0568594595	 0.086137
H	-2.7350702018	-3.4834365668	 1.2459596932	 0.117086
H	-3.5196467692	-1.8256460668	 1.3123600245	 0.139032
H	-2.7310749136	-3.3701949225	-1.2561246059	 0.099657
H	-4.0883381043	-0.6425246488	-0.8546996205	 0.124426
H	-3.5013958267	-1.2563954612	-2.4142695554	 0.080046
H	-5.7718502898	-1.7321834699	-1.99908871	 0.285968
42.4435	76.4671	84.4348	134.8065	184.6941	204.3242	233.2273	241.8015	298.8708	351.904	399.6959	477.1211	583.5542	651.2901	775.9486	804.4629	819.2599	866.1724	900.1371	959.1889	972.1988	1018.6001	1041.5011	1066.7572	1075.2208	1094.5413	1114.5679	1133.5856	1139.7248	1172.4208	1223.9288	1265.7237	1276.9866	1280.925	1354.5452	1387.885	1413.1082	1420.3642	1450.7205	1466.5915	1487.1638	1492.3296	1497.485	1530.6404	1780.7222	2964.6947	3012.589	3038.7174	3051.2934	3065.5279	3122.1251	3127.3996	3137.7403	3145.2721	3162.5248	3231.4001	3830.241
CCC(=O)C1CC1CO	CCC(=O)[C@H]1C[C@H]1CO	
InChI=1S/C7H12O2/c1-2-7(9)6-3-5(6)4-8/h5-6,8H,2-4H2,1H3	InChI=1S/C7H12O2/c1-2-7(9)6-3-5(6)4-8/h5-6,8H,2-4H2,1H3/t5-,6-/m0/s1
