17
gdb 84601	2.54709	1.59548	1.22593	3.1866	78.34	-0.2557	-0.0126	0.2432	1051.2205	0.137247	-380.869654	-380.861789	-380.860845	-380.901871	30.323	
C	-0.1040270482	 1.5617237074	 0.0633512861	-0.403212
C	 0.0129361985	 0.0335372417	-0.0103723814	-0.092287
C	 0.8310926362	-0.4770049697	-1.183264341	-0.081348
C	 1.8253307796	-1.2892995063	-0.8222077193	-0.059593
C	 1.8893577575	-1.419432994	 0.6628043904	-0.135754
N	 2.1595857232	-0.1276895466	 1.3370205734	-0.35511
C	 0.7541707048	-0.5878438992	 1.1869617612	 0.190457
C	 0.0214082125	-0.9613076417	 2.3616680382	 0.202385
N	-0.5781496857	-1.2401826633	 3.3117785762	-0.345161
H	 0.8849902801	 2.0107509888	 0.1804026837	 0.144547
H	-0.5632218352	 1.9579079399	-0.8473674978	 0.118053
H	-0.7270392504	 1.8622239981	 0.9112929165	 0.128955
H	-0.9978224024	-0.3949864026	-0.0526348219	 0.102807
H	 0.6127570356	-0.1665604132	-2.1990889271	 0.108558
H	 2.5307250174	-1.7727275609	-1.4861206411	 0.112528
H	 2.1978541612	-2.3377189473	 1.1503044142	 0.117119
H	 2.4531534954	-0.3027004111	 2.2976968597	 0.247056
112.527	155.8783	201.7518	231.2338	262.8004	384.4223	432.6583	504.9755	551.1315	576.2852	613.2741	698.2622	763.6066	788.6024	860.1633	876.7859	908.6227	945.9278	963.693	1024.924	1045.6044	1064.8272	1097.3407	1118.3461	1134.496	1174.0362	1254.4001	1267.4362	1313.2373	1348.1534	1362.0983	1407.5703	1412.3047	1493.9614	1504.8914	1669.0416	2345.8196	3014.8489	3043.159	3109.8447	3132.8502	3178.7298	3193.3509	3222.1612	3478.2823
CC1C=CC2NC12C#N	C[C@H]1C=C[C@H]2N[C@@]12C#N	
InChI=1S/C7H8N2/c1-5-2-3-6-7(5,4-8)9-6/h2-3,5-6,9H,1H3	InChI=1S/C7H8N2/c1-5-2-3-6-7(5,4-8)9-6/h2-3,5-6,9H,1H3/t5-,6+,7-/m0/s1
