27
gdb 100935	2.18915	0.9695	0.7477	1.3327	92.2	-0.2615	0.0755	0.337	1665.7052	0.250016	-390.69546	-390.683388	-390.682444	-390.733071	43.954	
C	-0.3977929857	 1.5507505798	 0.0626643405	-0.39408
C	-0.035283922	 0.0640517804	-0.0344051623	-0.178841
C	 0.7964487999	-0.4879725411	 1.1458952416	 0.031661
C	 0.1190669826	-0.2116639673	 2.5107459186	-0.202637
C	-1.2160068719	-0.9273603235	 2.7537630448	-0.379246
C	 1.1661235901	-1.9804540762	 0.918978362	 0.039883
C	 1.9399587184	-2.2060820711	-0.391945838	-0.408262
C	 1.9768592643	-2.5553381599	 2.0875230137	-0.092903
O	 2.2239265546	-3.9331906265	 1.8295649222	-0.422821
H	 0.4941740196	 2.1666094978	 0.2267944485	 0.111738
H	-0.8677575177	 1.8924605741	-0.8650991999	 0.109574
H	-1.0981598416	 1.7592336328	 0.8768101466	 0.118411
H	-0.9523267578	-0.5292554692	-0.1468006429	 0.093926
H	 0.5292409637	-0.0849367033	-0.9592059948	 0.099754
H	 1.7435620932	 0.0749708955	 1.1555232103	 0.060997
H	 0.8132575072	-0.4647199012	 3.3194011604	 0.092561
H	-0.0369717184	 0.8686289205	 2.6026152836	 0.09385
H	-1.6273504437	-0.650969693	 3.7298271457	 0.110163
H	-1.9636082198	-0.6642490424	 1.9985158488	 0.117819
H	-1.106938317	-2.0165825593	 2.7413860774	 0.120381
H	 0.2379826095	-2.5658881991	 0.865730057	 0.079353
H	 2.8047890665	-1.5332432711	-0.4561353207	 0.10186
H	 2.3086303973	-3.2325245716	-0.4322747831	 0.13493
H	 1.3184065166	-2.0371507813	-1.2740317201	 0.111399
H	 2.9228484386	-1.9951962074	 2.1868850583	 0.079159
H	 1.4276750716	-2.4440716583	 3.0314947333	 0.086704
H	 2.7431940021	-4.2841723682	 2.5582596384	 0.284666
51.883	68.8562	78.7506	129.1933	178.2631	203.2714	221.4378	236.4867	247.5069	270.9415	317.3253	343.2355	345.3884	394.1931	424.5868	526.1938	563.4797	744.7588	777.0953	829.1513	856.5717	909.679	929.3975	941.2764	1014.3023	1022.8076	1026.3201	1054.1169	1064.8477	1077.6718	1151.5148	1157.8896	1170.8728	1180.722	1237.7471	1270.3434	1285.1346	1296.9539	1303.6805	1348.8625	1354.9655	1367.9083	1386.1377	1392.9658	1403.8603	1409.1509	1412.9531	1454.1969	1486.6862	1493.6163	1496.2131	1499.7625	1504.1135	1506.7966	1514.1131	1517.7076	1525.8362	2953.4612	2972.8477	3010.4801	3024.4628	3026.339	3030.8003	3031.2776	3037.0432	3045.8797	3065.1423	3077.7339	3094.7903	3100.7499	3103.5091	3106.5856	3111.1183	3137.0835	3835.3506
CCC(CC)C(C)CO	CCC(CC)[C@@H](C)CO	
InChI=1S/C8H18O/c1-4-8(5-2)7(3)6-9/h7-9H,4-6H2,1-3H3	InChI=1S/C8H18O/c1-4-8(5-2)7(3)6-9/h7-9H,4-6H2,1-3H3/t7-/m0/s1
