18
gdb 11602	6.12173	0.9056	0.81774	3.6192	69.73	-0.2402	0.0604	0.3006	1382.9077	0.154546	-381.149345	-381.140592	-381.139648	-381.184028	31.692	
N	-0.0668319999	 1.284329619	-0.3523906048	-0.566055
C	 0.000664381	-0.0136587217	 0.1524366478	 0.4513
O	 0.9140667248	-0.3932914514	 0.8616814043	-0.391545
N	-1.0444308748	-0.81668052	-0.2430050565	-0.34081
C	-1.0371368418	-2.244470892	 0.0372149411	-0.156817
C	-2.4414565364	-2.7806965886	 0.1800816981	 0.017753
C	-3.2290546898	-3.1780069061	-1.0481459367	-0.267463
C	-2.7202246442	-4.2333203683	-0.0976090503	-0.269371
H	 0.5670781796	 1.9057734894	 0.1277004952	 0.258273
H	-0.9864657251	 1.6775442427	-0.4904079677	 0.244031
H	-1.5977791254	-0.5170511641	-1.0306804776	 0.236795
H	-0.509353316	-2.8042770283	-0.7510769335	 0.09547
H	-0.4611611132	-2.3768960494	 0.9560481237	 0.144844
H	-3.0102903198	-2.3233397796	 0.9848758154	 0.089286
H	-4.2934863218	-2.9727479642	-1.0704079917	 0.113148
H	-2.7404618792	-3.0972113548	-2.0145189611	 0.109142
H	-1.8934928047	-4.8540144029	-0.4273367669	 0.116105
H	-3.4353849733	-4.7480917097	 0.5336832311	 0.115913
25.0234	74.248	100.7661	213.9115	258.582	336.2554	379.9513	394.164	454.2083	543.145	577.7708	656.9215	778.4264	779.1891	815.166	835.4151	907.5961	920.0117	981.0357	1048.9782	1058.5458	1081.9185	1094.4629	1140.6252	1153.6408	1180.0928	1199.5293	1225.5316	1270.0448	1312.5034	1362.3521	1431.574	1468.9306	1500.9207	1511.9594	1536.8239	1627.5345	1802.9248	2979.912	3106.9608	3126.4405	3136.0034	3147.8536	3207.3544	3223.6808	3567.3134	3621.5796	3680.1879
NC(=O)NCC1CC1	NC(=O)NCC1CC1	
InChI=1S/C5H10N2O/c6-5(8)7-3-4-1-2-4/h4H,1-3H2,(H3,6,7,8)	InChI=1S/C5H10N2O/c6-5(8)7-3-4-1-2-4/h4H,1-3H2,(H3,6,7,8)
