18
gdb 5379	4.55219	1.45847	1.21069	0.2938	81.44	-0.2365	0.0044	0.241	1039.8799	0.156336	-310.746321	-310.738992	-310.738048	-310.778386	27.987	
C	-0.0440864823	 1.5610419892	 0.0541704338	-0.363347
C	 0.0020553628	 0.0239859545	 0.0014917535	-0.291478
C	 0.7042409609	-0.4974438111	-1.2320428995	 0.330089
C	-0.0041352447	-0.736676473	-2.4136145837	-0.188809
C	 0.64494449	-1.1846482913	-3.5610813377	-0.091028
C	 2.0205581498	-1.4031634546	-3.5459739062	-0.12083
C	 2.7388657706	-1.1705313925	-2.3754646092	-0.090991
C	 2.0842050565	-0.7226223227	-1.2310939853	-0.189046
H	 0.9661369486	 1.9825954877	 0.0534716981	 0.120224
H	-0.5719005347	 1.9662997648	-0.8150022229	 0.120208
H	-0.5574451759	 1.9078192508	 0.956716761	 0.111168
H	 0.5090348168	-0.3521115623	 0.8976275391	 0.101895
H	-1.0209592624	-0.3684146906	 0.0336642473	 0.101968
H	-1.0783645632	-0.5740749398	-2.4316962705	 0.086102
H	 0.074892493	-1.3681762862	-4.4662705856	 0.092363
H	 2.5279613549	-1.7554566575	-4.4378958808	 0.093041
H	 3.8101715932	-1.3429466971	-2.3512570116	 0.092362
H	 2.6506371162	-0.5489408981	-0.3202073296	 0.086109
46.4679	138.3007	222.5243	310.2949	356.3832	415.5284	500.3213	566.4042	631.8219	720.702	769.8589	787.5618	792.3187	867.0957	920.6822	952.7718	973.9007	986.6981	1014.5422	1052.0379	1056.0738	1082.6227	1121.2014	1181.1485	1203.6012	1228.0595	1273.4451	1344.3387	1352.6539	1354.1471	1409.8239	1482.9708	1487.0962	1496.7971	1508.3133	1528.1606	1623.8224	1645.2258	3030.8633	3033.9086	3066.187	3105.9569	3109.5209	3158.7623	3159.7923	3173.9585	3182.8232	3196.1996
CCC1=CC=CC=C1	CCc1ccccc1	
InChI=1S/C8H10/c1-2-8-6-4-3-5-7-8/h3-7H,2H2,1H3	InChI=1S/C8H10/c1-2-8-6-4-3-5-7-8/h3-7H,2H2,1H3
