14
gdb 98950	3.29045	0.99039	0.84493	3.0227	67.11	-0.2789	-0.0612	0.2176	1328.4515	0.097303	-473.806543	-473.797094	-473.79615	-473.842215	32.275	
O	 0.4822164404	 0.6754832228	-0.6332129266	-0.417183
C	-0.127674981	-0.0226703595	 0.4129158885	-0.143218
C	-1.4364712172	-0.6361134573	-0.0375677918	 0.414335
O	-1.8716780431	-0.5335789149	-1.1534957443	-0.348119
O	-2.0514570641	-1.2933068877	 0.9771514054	-0.215738
C	-3.221530984	-2.0016699263	 0.7077375497	 0.260026
N	-4.2366664894	-1.6985586869	 1.3919501731	-0.445053
C	-3.0953051855	-3.0582775664	-0.2465533516	 0.330861
C	-3.0223013668	-3.9777480393	-1.017834869	-0.482336
H	-0.1014381767	 0.5781248521	-1.399277288	 0.299909
H	 0.5157148305	-0.8336051814	 0.7873392125	 0.131934
H	-0.3356790864	 0.6344362638	 1.2702764897	 0.137986
H	-5.012692834	-2.3224636495	 1.1718336478	 0.250911
H	-2.9560931626	-4.7818438196	-1.7099742454	 0.225684
44.0725	63.0524	86.91	128.0681	193.8481	266.7976	309.3955	310.6161	390.9318	483.1797	564.2092	612.3467	655.2881	676.3269	686.403	762.1114	828.5676	903.4528	960.9222	1035.1311	1041.0967	1130.0101	1217.3458	1244.4462	1300.6199	1323.6979	1461.987	1494.0812	1718.8231	1829.6185	2232.6546	2997.5288	3020.8495	3495.4723	3505.8404	3735.3875
OCC(=O)OC(=N)C#C	OCC(=O)O[C]([NH])C#C	
InChI=1S/C5H5NO3/c1-2-4(6)9-5(8)3-7/h1,6-7H,3H2	InChI=1S/C5H5NO3/c1-2-4(6)9-5(8)3-7/h1,6-7H,3H2
