16
gdb 71856	3.43941	1.67822	1.38197	1.806	67.24	-0.2393	0.0178	0.2571	920.742	0.126298	-437.855806	-437.849019	-437.848075	-437.886648	27.481	
O	-0.14963408	 1.4401225596	-0.048812845	-0.455923
C	 0.0023031926	 0.0677728322	-0.0555059633	 0.344984
C	 0.7647029387	-0.7244930136	-1.1159443829	-0.312461
C	-0.2789612059	-1.8876037099	-0.9381600841	 0.001462
N	 0.2508983429	-3.0781688523	-0.2872205064	-0.262823
C	 0.6178873554	-2.9250842688	 0.9140050452	 0.12415
O	 0.5534534437	-1.7996273756	 1.6725605108	-0.230985
C	-0.2732249052	-0.7593451623	 1.175867304	 0.032212
C	-1.1260883176	-0.9711592443	-0.0281453821	-0.189986
H	 0.6223448471	 1.8323853471	 0.3754682682	 0.290121
H	 0.675417377	-0.2483871851	-2.0955309727	 0.115627
H	 1.8112327462	-0.9751359823	-0.9214187308	 0.104903
H	-0.7681238257	-2.1740759243	-1.8677296353	 0.090912
H	 1.0603613604	-3.7382187026	 1.4848842807	 0.126139
H	-0.7049431852	-0.2060884133	 2.0014125008	 0.11755
H	-2.2034593145	-0.8736284446	-0.0316975072	 0.104117
172.8426	230.5003	287.0349	317.263	386.3216	459.5635	513.6454	558.9596	631.8116	639.16	757.7011	796.2208	852.0761	900.2677	922.4887	947.5822	962.5428	983.5372	997.049	1036.1393	1043.7401	1107.1523	1137.2615	1164.855	1204.7762	1217.4275	1234.8623	1298.999	1314.5342	1330.0616	1335.6965	1401.465	1448.94	1497.5825	1708.3025	3056.2522	3110.4148	3121.4508	3168.5771	3191.4175	3205.6966	3786.2732
OC12CC3N=COC1C23	O[C@@]12C[C@H]3N=CO[C@@H]1[C@@H]23	
InChI=1S/C6H7NO2/c8-6-1-3-4(6)5(6)9-2-7-3/h2-5,8H,1H2	InChI=1S/C6H7NO2/c8-6-1-3-4(6)5(6)9-2-7-3/h2-5,8H,1H2/t3-,4+,5-,6-/m1/s1
