18
gdb 45620	3.77242	1.07087	0.89807	3.8506	80.47	-0.206	0.004	0.21	1300.2843	0.148475	-401.987601	-401.979444	-401.978499	-402.020658	31.248	
O	 0.0053664615	 0.0027882703	-0.1550553371	-0.369911
C	-0.0466295557	 1.2072531805	-0.0680955382	 0.405164
C	-1.2608798842	 2.1071117997	 0.2130523986	-0.382817
C	-0.6813887826	 3.4952687781	 0.1956659555	-0.252585
C	 0.635913355	 3.4243041395	-0.0512015807	 0.409697
N	 1.0222228852	 2.0766660551	-0.2088384307	-0.396627
C	 1.6154007036	 4.5157572688	-0.1612551678	-0.083115
C	 3.0423724138	 4.3569690175	 0.3308727103	-0.278041
C	 2.7712047919	 4.451694882	-1.1429249595	-0.278037
H	-2.0265009945	 1.9307830768	-0.5521761085	 0.142118
H	-1.7094129717	 1.8200093712	 1.1718182138	 0.142116
H	-1.2363911167	 4.4069603078	 0.3563313407	 0.098685
H	 1.9524525236	 1.7450506411	-0.4012397456	 0.255977
H	 1.1675721311	 5.49268293	-0.0160654897	 0.098115
H	 3.4947585305	 5.2055009276	 0.8311386997	 0.125392
H	 3.3317533045	 3.3969342525	 0.7442808138	 0.119238
H	 2.8732611692	 3.5570856349	-1.7475511288	 0.11924
H	 3.0360666856	 5.3657311566	-1.6618766158	 0.125392
81.4956	114.1499	159.2379	179.4948	335.2773	382.5531	414.2826	492.1473	565.9096	581.4871	673.6432	681.1097	722.3125	785.1836	824.86	855.0839	903.3033	910.4233	951.6275	975.927	998.7528	1055.9213	1062.3199	1076.1061	1127.9999	1143.6356	1185.305	1199.9878	1205.7353	1233.9829	1274.0707	1319.3287	1396.6238	1428.4842	1442.901	1474.5587	1504.4958	1702.3087	1838.6715	3038.1717	3067.1202	3137.4708	3141.6951	3171.4836	3215.6607	3231.1685	3244.2734	3665.2538
O=C1CC=C(N1)C1CC1	O=C1CC=C(N1)C1CC1	
InChI=1S/C7H9NO/c9-7-4-3-6(8-7)5-1-2-5/h3,5H,1-2,4H2,(H,8,9)	InChI=1S/C7H9NO/c9-7-4-3-6(8-7)5-1-2-5/h3,5H,1-2,4H2,(H,8,9)
