21
gdb 91335	2.74085	1.59527	1.23953	1.3633	78.55	-0.2396	0.0884	0.3281	1099.6126	0.182416	-424.223143	-424.214845	-424.213901	-424.255316	33.585	
C	 0.182833169	 1.5127477096	 0.0622987779	-0.401498
C	 0.079227021	 0.0037634077	 0.0121480054	 0.231685
O	 0.6951051736	-0.4564564008	-1.1799466367	-0.291652
C	 1.1197365374	-1.8148653722	-1.0791415832	 0.112986
C	 0.2425876811	-2.6042250301	-0.0690312833	-0.310702
C	 1.1173096693	-1.8998402825	 1.0144277825	 0.425892
C	 1.3038947158	-2.4887176797	 2.3910012446	-0.467065
C	 2.2673651204	-1.8973218223	-0.0380413929	-0.259943
O	 0.6896196546	-0.5364488301	 1.1728301249	-0.327713
H	 1.2341329332	 1.8098981189	 0.0753301671	 0.128016
H	-0.3011870201	 1.9466159051	-0.8162223493	 0.124982
H	-0.3077529259	 1.8895252535	 0.9631346365	 0.124165
H	-0.9795136256	-0.3041872474	-0.0011635075	 0.065428
H	 1.2626217089	-2.1842455323	-2.0954402116	 0.078136
H	-0.8398197439	-2.4642687296	-0.0651725634	 0.106696
H	 0.4699205101	-3.6715940654	-0.1113731359	 0.104077
H	 1.6913724643	-3.5093558874	 2.3218633944	 0.111338
H	 2.0117374254	-1.8859132902	 2.9684068626	 0.128237
H	 0.354138824	-2.509206163	 2.9345642284	 0.122505
H	 2.8007533783	-2.851355164	-0.0762494843	 0.093037
H	 2.9646153692	-1.0584910479	-0.0044792963	 0.101391
145.1921	206.5063	215.1162	233.0604	255.42	354.7782	389.2115	450.2944	456.006	473.2341	531.9858	606.0559	670.3078	812.3782	821.6489	850.8996	859.1548	904.0971	919.6748	951.4906	972.4103	992.4648	1004.384	1057.2744	1113.1302	1128.4945	1143.597	1161.6597	1184.8906	1200.7895	1231.7719	1244.1549	1262.8301	1317.8636	1364.2803	1393.8591	1395.2233	1409.8326	1430.4023	1461.6052	1479.7259	1482.2569	1487.0578	1493.0529	1501.5801	2953.5597	3037.9726	3054.4185	3059.9055	3075.6623	3104.5703	3110.0601	3115.9157	3130.6858	3133.4124	3135.4214	3138.7502
CC1OC2CC(C)(C2)O1	C[C@H]1O[C@@H]2C[C@@](C)(C2)O1	
InChI=1S/C7H12O2/c1-5-8-6-3-7(2,4-6)9-5/h5-6H,3-4H2,1-2H3	InChI=1S/C7H12O2/c1-5-8-6-3-7(2,4-6)9-5/h5-6H,3-4H2,1-2H3/t5-,6-,7+/m0/s1
