18
gdb 79217	2.71233	1.65694	1.33318	1.0049	82.63	-0.213	0.0284	0.2414	1018.1683	0.146788	-364.704336	-364.696459	-364.695515	-364.736278	31.605	
C	-0.0424232008	 1.5111973704	 0.0547824003	-0.339094
N	 0.1033999769	 0.0634572875	-0.0125089041	-0.117186
C	 0.7878708561	-0.5413801653	-1.1459004885	-0.014082
C	 2.3165315668	-0.5859621336	-0.8672468848	-0.109275
C	 2.512615807	 0.015979953	 0.5185726028	-0.286167
C	 1.1152639037	-0.6129014922	 0.8653416073	 0.221974
C	 0.7424429847	-0.8940040762	 2.2222517093	 0.099264
C	 0.4485966346	-1.1258811882	 3.3652216042	-0.335343
C	 1.3693568482	-1.6392527901	-0.325587489	-0.162526
H	 0.868246663	 2.0800980007	-0.1873960863	 0.102202
H	-0.8254840073	 1.8157435042	-0.6475587322	 0.12131
H	-0.3700328325	 1.7863835179	 1.0622230888	 0.129265
H	 0.3684307206	-0.568163168	-2.1438469541	 0.098627
H	 3.0462494751	-0.6986437128	-1.6584953492	 0.090414
H	 3.2971733241	-0.5063468712	 1.0700734198	 0.114734
H	 2.6307427289	 1.0968411554	 0.641999828	 0.097074
H	 0.1805381713	-1.332915119	 4.3716649125	 0.183115
H	 1.3218900395	-2.7160661426	-0.3847104245	 0.105694
127.9362	156.9234	187.7009	245.5826	315.3042	422.2056	487.984	507.9328	570.8857	603.0955	621.3562	659.3703	682.181	757.263	793.4899	801.409	840.6184	924.4494	947.8976	953.7369	976.2759	1007.8578	1028.459	1065.0803	1083.7164	1133.2295	1157.7074	1159.486	1178.0473	1226.9328	1230.4889	1285.1223	1308.3093	1351.8325	1442.1497	1482.4901	1494.4088	1516.7071	2237.5537	2984.2898	3054.1995	3068.1202	3105.4337	3116.7239	3192.4577	3202.1899	3234.1564	3501.795
CN1C2C3CC1(C#C)C23	CN1[C@H]2[C@H]3C[C@]1(C#C)[C@@H]23	
InChI=1S/C8H9N/c1-3-8-4-5-6(8)7(5)9(8)2/h1,5-7H,4H2,2H3	InChI=1S/C8H9N/c1-3-8-4-5-6(8)7(5)9(8)2/h1,5-7H,4H2,2H3/t5-,6+,7-,8+/m0/s1
