20
gdb 100588	3.9596	0.77688	0.7046	1.15	79.07	-0.2728	-0.0219	0.251	1659.0908	0.16841	-440.329987	-440.319412	-440.318467	-440.366773	36.533	
C	-0.1393271905	 1.6057427849	 0.2264566643	-0.398338
C	-0.051171315	 0.0785270397	 0.1630310926	-0.167627
C	-1.40432415	-0.6092543049	-0.0769123477	-0.103513
C	-2.0155472163	-0.3032643181	-1.4613519549	-0.405843
C	-1.2713146419	-2.1101383901	 0.0877636315	 0.469017
O	-0.2505690859	-2.7404702287	 0.1318330006	-0.339889
O	-2.5225024564	-2.685414099	 0.1737208102	-0.21367
C	-2.6022181683	-4.0491967309	 0.2964298434	 0.114118
N	-3.7459629701	-4.5688230999	 0.3627672077	-0.421411
H	 0.839420805	 2.0370246248	 0.4563280323	 0.119421
H	-0.4729975375	 2.0401146922	-0.7208029726	 0.120517
H	-0.836359214	 1.9325506864	 1.0065473579	 0.116077
H	 0.647047768	-0.2280784138	-0.6240043705	 0.111684
H	 0.3719200997	-0.301470947	 1.0990501197	 0.109801
H	-2.1249434122	-0.2805974943	 0.6836186332	 0.108959
H	-2.9632957267	-0.8290284285	-1.5949758217	 0.143592
H	-2.2034924261	 0.767621361	-1.5667087374	 0.128609
H	-1.3329051658	-0.6085749121	-2.2615932832	 0.127148
H	-1.6246462904	-4.5309683836	 0.3232688333	 0.142333
H	-3.6586216156	-5.5802370681	 0.4528545214	 0.239014
38.6567	73.4245	105.829	110.1409	136.5026	211.2801	226.1557	256.8403	296.829	332.9197	358.3337	443.4766	542.0503	694.1918	751.7244	781.7805	843.6993	853.6648	921.9087	974.2553	987.1827	1016.0916	1043.3686	1073.5412	1109.0669	1139.0344	1150.8158	1200.6022	1266.9407	1290.0291	1325.4587	1339.5882	1386.6867	1396.746	1406.6636	1418.2331	1482.5356	1495.8699	1501.1371	1508.2235	1512.5857	1745.309	1837.4842	3025.9706	3034.174	3043.5511	3046.6851	3075.1412	3102.6642	3109.8647	3119.0797	3135.7718	3138.6802	3505.0604
CCC(C)C(=O)OC=N	CC[C@@H](C)C(=O)O[CH][NH]	
InChI=1S/C6H11NO2/c1-3-5(2)6(8)9-4-7/h4-5,7H,3H2,1-2H3	InChI=1S/C6H11NO2/c1-3-5(2)6(8)9-4-7/h4-5,7H,3H2,1-2H3/t5-/m1/s1
