17
gdb 126787	4.54158	1.0659	0.93861	3.0297	84.93	-0.2164	-0.0416	0.1748	1267.5127	0.137451	-414.171341	-414.163135	-414.16219	-414.205041	30.118	
C	-0.0673121119	 1.5916918415	 0.027368099	-0.379962
C	-0.0296648786	 0.06427332	-0.0044634127	-0.122934
N	-1.3654550504	-0.5302187228	 0.0035059209	 0.110259
N	-1.9430422892	-0.7115295304	 1.2011494954	-0.206191
C	-3.1617800248	-1.153949003	 1.2198708905	 0.028867
C	-3.9431563729	-1.4533706603	 0.0272181412	 0.205062
N	-5.1454786406	-1.9064647094	 0.11762095	-0.540582
C	-3.1774341842	-1.1638851529	-1.1792581849	-0.043246
N	-1.9571065855	-0.7206487829	-1.1788307083	-0.195121
H	 0.9512418764	 1.9912247725	 0.0237041539	 0.125686
H	-0.5943852442	 1.9835404875	-0.8471781947	 0.136443
H	-0.5733564686	 1.9460826494	 0.9297369991	 0.139073
H	 0.4652494386	-0.2974707109	-0.9077383946	 0.135902
H	 0.493292742	-0.3321844171	 0.8681901809	 0.136447
H	-3.6092320701	-1.3048936731	 2.1973027059	 0.138872
H	-5.5396505618	-2.0566652435	-0.8143584586	 0.207779
H	-3.6231192041	-1.3172451946	-2.1593800131	 0.123647
45.8671	74.9669	144.3268	223.2241	345.1488	379.9302	436.8656	462.2179	464.6121	513.8748	666.3279	740.8307	750.9362	795.3254	826.2499	846.379	920.8617	962.2317	977.0837	1006.4579	1057.3887	1100.0949	1153.2834	1223.2463	1309.7963	1324.24	1355.2026	1369.2753	1393.1338	1408.5842	1431.2863	1471.8369	1489.4374	1503.7814	1579.7934	1607.1556	1684.1971	3044.6056	3080.8869	3117.6301	3120.873	3143.5789	3159.0414	3188.2017	3433.9549
CCN1N=CC(=N)C=N1	CCn1ncc([NH])cn1	
InChI=1S/C5H8N4/c1-2-9-7-3-5(6)4-8-9/h3-4,6H,2H2,1H3	InChI=1S/C5H13N4/c1-2-9-7-3-5(6)4-8-9/h5-8H,2-4H2,1H3
