19
gdb 100501	2.38739	0.9025	0.68736	4.2755	83.9	-0.263	-0.0601	0.2029	1667.3809	0.155459	-423.026015	-423.015101	-423.014157	-423.064171	37.227	
C	-0.1204239105	 1.5300051325	-0.0184619001	-0.381762
C	-0.1432936729	 0.0057739302	-0.1473006908	-0.185881
C	 0.8384833205	-0.4923042393	-1.2259507008	 0.038015
O	 2.1520823414	-0.094217245	-0.9394065094	-0.438542
C	 0.79251882	-2.0161279735	-1.3586687389	 0.184951
O	 1.7933930749	-2.6714275933	-1.1277457483	-0.326356
C	-0.4524801307	-2.6120839935	-1.7652070508	 0.026618
C	-1.4984566089	-3.0954144563	-2.1256837119	 0.137283
C	-2.7521256696	-3.6919366487	-2.5511853175	-0.505878
H	 0.8902331155	 1.8778640967	 0.2081911774	 0.142252
H	-0.4421532183	 2.0096856852	-0.94969711	 0.112006
H	-0.7894753713	 1.8641777451	 0.7801175098	 0.110334
H	 0.136733857	-0.4557395598	 0.8075602713	 0.105124
H	-1.1518295377	-0.3442742392	-0.3946763716	 0.101671
H	 0.5238732071	-0.0750354132	-2.1985929222	 0.08958
H	 2.6529791315	-0.9211427672	-0.8424068661	 0.292703
H	-2.5806511145	-4.6182412869	-3.1087341259	 0.167002
H	-3.3709371933	-3.9354622716	-1.6802543372	 0.167887
H	-3.3237852502	-3.0064207823	-3.185149777	 0.162992
20.3322	52.2934	70.5655	106.4426	135.4201	197.9819	232.7143	280.1124	334.4656	355.52	396.6269	410.3339	447.7151	490.8867	588.3096	682.2722	776.4022	846.3656	904.4924	977.0522	1003.3406	1043.8503	1053.411	1075.5894	1117.9734	1162.2441	1217.745	1272.2316	1287.5932	1340.118	1373.4088	1406.2513	1408.772	1438.8088	1467.8847	1472.3794	1477.1114	1494.712	1509.0729	1739.1024	2339.1348	2955.4304	3031.3797	3033.8961	3036.849	3074.825	3096.9911	3102.7683	3104.8031	3128.6474	3666.0154
CCC(O)C(=O)C#CC	CC[C@@H](O)C(=O)C#CC	
InChI=1S/C7H10O2/c1-3-5-7(9)6(8)4-2/h6,8H,4H2,1-2H3	InChI=1S/C7H10O2/c1-3-5-7(9)6(8)4-2/h6,8H,4H2,1-2H3/t6-/m1/s1
