21
gdb 59300	2.61549	1.35708	0.98064	2.5272	79.92	-0.2393	0.0234	0.2626	1246.9885	0.182652	-424.237176	-424.228056	-424.227112	-424.270955	35.309	
C	 0.0594321874	 1.5572925305	 0.1188001664	-0.409038
C	-0.0014690253	 0.0411257832	-0.0429906901	 0.120535
O	 0.7854545382	-0.6033256498	 0.9755253925	-0.441775
C	-1.4368603901	-0.5172472548	-0.055119853	-0.08736
C	-2.2441350022	-0.1354896456	-1.2765032057	-0.075632
C	-2.8683218167	-1.1784400522	-1.8187618156	-0.070083
C	-2.6190375351	-2.4548290367	-1.0596951429	-0.261591
C	-1.4947325972	-2.088850492	-0.0625449631	 0.105597
O	-0.2968856976	-2.6792298566	-0.5350755883	-0.440818
H	 1.1008265707	 1.8872952158	 0.1639961351	 0.126583
H	-0.4274687261	 2.0696999626	-0.7159538086	 0.124978
H	-0.4417519681	 1.8733254739	 1.0424767579	 0.106519
H	 0.4891362255	-0.249697614	-0.9762892451	 0.108421
H	 0.3921380311	-0.3924571729	 1.8301773139	 0.28088
H	-1.9381223679	-0.1430472333	 0.8540644067	 0.060855
H	-2.3036237077	 0.8831457525	-1.6442311219	 0.090901
H	-3.5110878971	-1.1334102918	-2.6914270102	 0.091979
H	-3.5272848925	-2.7907972222	-0.542183395	 0.101508
H	-2.2902996325	-3.2836810709	-1.6954006999	 0.122301
H	-1.7244249468	-2.4626737348	 0.945185437	 0.054315
H	 0.4011290698	-2.3754835808	 0.0620812799	 0.290923
65.6777	107.5083	195.4939	216.6932	243.7559	315.0247	328.5785	362.8572	428.7358	447.3617	477.9852	539.7938	650.3667	715.422	767.906	802.7582	825.263	872.496	902.5323	960.5701	967.1811	979.2944	1017.0929	1032.0811	1059.5388	1072.4599	1121.9038	1134.7804	1160.3957	1206.0892	1225.669	1247.1346	1290.3707	1312.859	1321.9787	1342.196	1371.7593	1388.461	1405.376	1423.0406	1442.2367	1474.8849	1491.5677	1494.9242	1690.0367	2949.0323	2989.5422	3023.9576	3027.1599	3074.0745	3075.0376	3102.4619	3121.8685	3177.7149	3203.0664	3736.7544	3794.2802
CC(O)C1C=CCC1O	C[C@@H](O)[C@H]1C=CC[C@H]1O	
InChI=1S/C7H12O2/c1-5(8)6-3-2-4-7(6)9/h2-3,5-9H,4H2,1H3	InChI=1S/C7H12O2/c1-5(8)6-3-2-4-7(6)9/h2-3,5-9H,4H2,1H3/t5-,6-,7-/m1/s1
