21
gdb 113551	3.30185	0.96882	0.8859	1.9289	79.33	-0.2495	0.0789	0.3284	1433.0541	0.180133	-424.196956	-424.187229	-424.186285	-424.232025	35.378	
C	 0.0802112717	 1.4784621273	-0.5212372725	-0.375601
C	 0.0008406167	 0.2045657869	 0.328426289	-0.212108
C	-1.3783824576	-0.4072471733	 0.3139027065	-0.020255
O	-1.7709621374	-1.0896673599	-0.8992691151	-0.287206
C	-1.6119248931	-1.8501642299	 0.2776737568	 0.331603
C	-0.6700437343	-3.0367119193	 0.4457589469	-0.155105
O	-1.6941789729	-3.7511115652	 1.1707880577	-0.298747
C	-2.6933727864	-2.7259571258	 0.9149410959	 0.076445
C	-3.3907396612	-2.2590493196	 2.175754283	-0.407576
H	 1.08893638	 1.900888494	-0.5040236679	 0.116088
H	-0.1828362938	 1.2624747945	-1.5608269597	 0.136155
H	-0.6102405412	 2.2446139937	-0.1521418905	 0.116793
H	 0.7231129838	-0.5340370651	-0.0366568393	 0.105498
H	 0.2708637286	 0.4274377654	 1.3690442858	 0.104003
H	-2.1708632716	 0.2219787585	 0.7258401642	 0.091212
H	-0.4016822864	-3.5284466062	-0.4983553614	 0.111576
H	 0.2338600729	-2.8834574125	 1.0474978145	 0.107799
H	-3.4234727028	-3.074408934	 0.170053685	 0.087103
H	-2.6687637571	-1.8728085526	 2.9011653973	 0.119207
H	-4.1150545551	-1.4710899833	 1.942721569	 0.121456
H	-3.9323210629	-3.0905041337	 2.6372360949	 0.131661
60.7012	92.2339	127.8179	132.5654	208.1547	220.3715	255.7984	299.8302	393.6314	450.7295	456.105	526.6179	597.8967	758.3885	788.016	843.9487	875.4919	896.6356	941.1773	985.4342	1012.3911	1033.4154	1057.049	1088.3088	1106.4516	1124.5184	1144.9955	1154.0973	1161.5501	1199.5845	1276.369	1290.1847	1320.2074	1342.7219	1378.9247	1382.5649	1404.2154	1408.8742	1471.6457	1482.9511	1491.6637	1497.9605	1506.2781	1512.1968	1533.8505	3001.0131	3013.3061	3025.569	3035.8333	3037.7268	3058.0569	3065.8382	3087.0502	3107.0078	3108.0897	3116.9789	3118.1754
CCC1OC11COC1C	CC[C@H]1O[C@]21CO[C@H]2C	
InChI=1S/C7H12O2/c1-3-6-7(9-6)4-8-5(7)2/h5-6H,3-4H2,1-2H3	InChI=1S/C7H12O2/c1-3-6-7(9-6)4-8-5(7)2/h5-6H,3-4H2,1-2H3/t5-,6+,7+/m0/s1
