18
gdb 20896	4.59035	1.39299	1.16112	1.8752	75.56	-0.2278	0.0311	0.2589	1084.7639	0.154703	-344.021287	-344.01299	-344.012046	-344.054842	29.718	
C	 0.1710276185	 1.5182657257	 0.0853478772	-0.371091
C	-0.0934930069	 0.0274547367	-0.128832815	-0.139876
N	 0.6660315262	-0.5219698836	-1.238338653	 0.061533
C	 1.7561236069	-1.3256844846	-1.1922188931	-0.020639
C	 2.1570637244	-1.5332317076	-2.4944017986	-0.310854
C	 1.2344149398	-0.7998855674	-3.2770388235	 0.357894
C	 1.1731440474	-0.6650644961	-4.7664687486	-0.489942
N	 0.3357592774	-0.1882663258	-2.5040665154	-0.328691
H	 1.2228182884	 1.6984467318	 0.326933025	 0.123122
H	-0.0757839546	 2.0763697439	-0.820730782	 0.148562
H	-0.4431126939	 1.8965100544	 0.908357592	 0.116688
H	 0.1721719587	-0.5498268676	 0.7615378405	 0.115493
H	-1.1545933482	-0.1443587743	-0.3334713159	 0.129656
H	 2.1495657801	-1.6831085183	-0.253050811	 0.124144
H	 2.9872215105	-2.1324318432	-2.8328992145	 0.096354
H	 1.0343999458	-1.6371804726	-5.2526249777	 0.125868
H	 0.3387697589	-0.0188427891	-5.0472439348	 0.136397
H	 2.0956575608	-0.2315798324	-5.1683143315	 0.125382
44.7879	83.4767	116.7463	211.813	268.4831	290.885	389.4637	426.7734	617.3844	643.6892	689.9241	714.4592	766.2354	794.7302	826.8502	961.1095	982.7482	1021.4878	1039.2384	1064.7624	1070.7379	1104.4896	1122.3277	1229.0929	1269.2082	1347.6221	1386.2133	1401.0097	1406.1425	1410.72	1448.387	1478.7466	1484.411	1488.6373	1492.6674	1508.0554	1514.5988	1572.7091	3033.5071	3044.3458	3055.7391	3083.6618	3098.2028	3117.2434	3130.3889	3136.8763	3247.8197	3268.3592
CCN1C=CC(C)=N1	CCn1ccc(C)n1	
InChI=1S/C6H10N2/c1-3-8-5-4-6(2)7-8/h4-5H,3H2,1-2H3	InChI=1S/C6H10N2/c1-3-8-5-4-6(2)7-8/h4-5H,3H2,1-2H3
