18
gdb 27551	4.99433	0.92966	0.82403	1.0249	79.02	-0.1795	0.0626	0.2421	1383.6402	0.148558	-401.967021	-401.958509	-401.957565	-402.000643	32.457	
O	 0.7141851875	 1.1928716521	 0.3039261746	-0.436599
C	 0.2550517288	-0.0618168852	 0.0574144683	 0.400036
C	 0.4129488769	-0.9391815858	-0.98607614	-0.415291
C	-0.3257932245	-2.1250283192	-0.6460341048	 0.299375
C	-0.8975184429	-1.908072411	 0.5830664356	-0.196972
N	-0.5328123688	-0.6407362806	 1.0072337687	-0.299576
C	-0.4504647015	-3.3381314892	-1.4893705701	-0.113554
C	 0.6125652717	-4.4192799424	-1.4631581452	-0.249519
C	-0.7528970819	-4.6858854052	-0.8834369445	-0.267367
H	 1.2529448624	 1.4665260261	-0.4441250918	 0.306635
H	 0.9901609872	-0.7727302293	-1.8829287343	 0.082712
H	-1.5412943464	-2.5286943059	 1.1833270526	 0.113642
H	-0.7934134838	-0.1985381803	 1.87081257	 0.263096
H	-0.8885649434	-3.1637610024	-2.4699539521	 0.084445
H	 0.8809035732	-4.8992796131	-2.3981623774	 0.103614
H	 1.4356573417	-4.2885182319	-0.7695843574	 0.111973
H	-0.8327776965	-4.7498647473	 0.1958763131	 0.108272
H	-1.4226652299	-5.3496133296	-1.4188796452	 0.105078
40.574	127.8063	169.657	225.966	268.9158	343.7196	374.2821	444.8954	478.2074	573.6174	640.9428	676.1154	687.6979	718.2911	751.3866	795.0422	827.8498	896.0231	925.9817	982.5964	1011.5145	1055.8537	1079.1452	1090.2515	1119.4058	1132.1415	1157.6578	1180.3363	1198.6596	1227.1888	1285.5502	1298.7707	1395.163	1427.0874	1465.3006	1500.4902	1539.0717	1582.0123	1638.091	3117.5013	3130.8071	3137.7056	3211.5205	3226.3656	3239.8311	3272.5567	3689.369	3850.7175
OC1=CC(=CN1)C1CC1	Oc1cc(c[nH]1)C1CC1	
InChI=1S/C7H9NO/c9-7-3-6(4-8-7)5-1-2-5/h3-5,8-9H,1-2H2	InChI=1S/C7H9NO/c9-7-3-6(4-8-7)5-1-2-5/h3-5,8-9H,1-2H2
