15
gdb 12157	3.62613	1.59665	1.25117	3.3284	69.19	-0.2493	0.023	0.2723	963.6559	0.117416	-362.649983	-362.641772	-362.640828	-362.682939	29.062	
C	-0.0460550045	 1.4140921726	 0.1086219341	-0.348679
N	-0.0001423703	-0.0221937132	 0.0226689563	-0.054678
C	-1.0621312998	-1.0407513419	 0.0710791695	-0.162881
C	 0.0769198215	-2.1148024839	-0.0057816784	-0.392572
C	 1.045258136	-0.9114817552	-0.0458056981	 0.414112
O	 2.2346662274	-0.7498037744	-0.1139588796	-0.367493
C	-1.8824534642	-1.0252518184	 1.2731350901	 0.337313
C	-2.5619800283	-0.9949740974	 2.2642135842	-0.454902
H	 0.9850478903	 1.7747150326	 0.1263553272	 0.163913
H	-0.5609194165	 1.8554545417	-0.7534246152	 0.129021
H	-0.5543781134	 1.7367064333	 1.0243897558	 0.139426
H	-1.7029134555	-1.0234453525	-0.8196171178	 0.110219
H	 0.1707629326	-2.7406622928	 0.8818753495	 0.144074
H	 0.0709247247	-2.732969138	-0.9046009319	 0.136542
H	-3.16091854	-0.9768300024	 3.1412415842	 0.206585
74.3709	106.3858	144.9151	189.9949	244.2636	256.4415	423.624	503.2556	547.5293	581.2084	631.6715	663.636	711.1214	781.3098	820.796	974.9649	996.896	1050.2478	1073.0314	1117.089	1152.6257	1186.0825	1227.2578	1283.7202	1361.4701	1406.1574	1443.2183	1462.0569	1481.2449	1516.9076	1884.2628	2236.2504	3019.1084	3023.2025	3075.4087	3094.7813	3132.8154	3158.3141	3501.8609
CN1C(CC1=O)C#C	CN1[C@@H](CC1=O)C#C	
InChI=1S/C6H7NO/c1-3-5-4-6(8)7(5)2/h1,5H,4H2,2H3	InChI=1S/C6H7NO/c1-3-5-4-6(8)7(5)2/h1,5H,4H2,2H3/t5-/m1/s1
