17
gdb 32215	2.8161	1.46075	1.0365	1.8105	77.07	-0.2543	-0.0264	0.2279	1146.9349	0.138354	-418.084851	-418.076904	-418.07596	-418.117615	29.792	
C	 0.069942603	 1.5750720331	 0.0120561408	-0.376041
C	 0.0171224371	 0.0388475088	 0.0883802545	-0.294211
C	-1.3847099236	-0.5108389908	 0.0576053606	 0.161119
C	-2.0313913095	-1.0220360257	 1.1727481432	-0.047196
N	-3.2836298836	-1.5049535315	 1.1697082461	-0.2681
C	-3.8993018332	-1.4730544978	-0.0050631994	 0.069592
N	-3.3991898928	-1.0179274859	-1.1578464954	-0.34776
C	-2.1605544983	-0.5454155461	-1.1137545426	 0.377389
O	-1.6305664224	-0.0842338447	-2.2612536083	-0.407308
H	 1.1061463332	 1.9256000163	 0.0369191594	 0.116729
H	-0.3883856813	 1.9340401851	-0.9131557516	 0.135772
H	-0.4626963028	 2.0279512567	 0.8541056525	 0.119937
H	 0.5871999227	-0.3807768278	-0.7481602668	 0.120652
H	 0.5065224824	-0.3007289232	 1.008064855	 0.105687
H	-1.5091656834	-1.0484945464	 2.1279768883	 0.111845
H	-4.9156725716	-1.8573562388	-0.0418938903	 0.119617
H	-2.3117860157	-0.2030734914	-2.9391784259	 0.302277
75.3072	129.1981	204.3259	216.6835	299.8312	345.8324	446.6295	473.1167	548.5169	587.2266	612.2231	635.2959	755.8573	789.1538	827.8465	906.3035	961.8409	974.9785	1010.5858	1072.3724	1088.2483	1126.6394	1186.8042	1246.8139	1276.8478	1314.3204	1347.6421	1355.2714	1370.6407	1406.1414	1440.9312	1477.0663	1495.0699	1502.2301	1510.038	1616.0037	1644.7833	3035.4762	3041.6357	3073.5088	3111.1413	3124.9727	3143.3742	3167.5234	3754.1369
CCC1=CN=CN=C1O	CCc1cncnc1O	
InChI=1S/C6H8N2O/c1-2-5-3-7-4-8-6(5)9/h3-4H,2H2,1H3,(H,7,8,9)	InChI=1S/C6H8N2O/c1-2-5-3-7-4-8-6(5)9/h3-4H,2H2,1H3,(H,7,8,9)
