17
gdb 67000	2.56528	2.06159	1.40366	4.463	71.11	-0.2567	0.0114	0.2682	938.217	0.137302	-421.846434	-421.839309	-421.838364	-421.877761	28.306	
C	 0.0117370211	 1.4598564584	-0.0297519734	-0.48848
C	 0.0050986234	-0.0465619475	 0.0106200883	 0.158059
C	-0.3647620203	-0.8229725424	-1.2704597715	-0.104569
C	-0.036120692	-2.3093398631	-1.1573445641	-0.25776
C	-0.597005664	-2.247460642	 0.2933639742	 0.063858
O	 0.483670773	-1.9928229189	 1.2032600502	-0.232047
C	 0.9386098643	-0.7220087459	 0.9760098771	 0.411534
O	 1.9005771694	-0.2662912458	 1.5250232928	-0.353167
C	-1.2478269733	-0.8765375073	-0.0427764744	-0.129575
H	 1.0056445304	 1.8260028324	-0.3021293849	 0.14482
H	-0.7093366794	 1.8389814333	-0.7596390669	 0.117504
H	-0.2377668133	 1.8799289798	 0.9491375057	 0.135778
H	-0.5102915705	-0.25792988	-2.1832192003	 0.100261
H	-0.6839702528	-2.902355405	-1.8083503491	 0.114013
H	 1.0011725451	-2.64227451	-1.2578833038	 0.115233
H	-1.1883144613	-3.073195443	 0.680051632	 0.101865
H	-2.2521522797	-0.5242746331	 0.150691888	 0.102674
144.2336	168.9041	250.853	271.4605	355.9176	442.513	483.4831	586.5749	665.8611	678.4769	734.6294	822.8866	839.8088	865.6514	886.7385	898.6462	930.2294	971.7383	997.8083	1019.0376	1071.7589	1076.5779	1096.9532	1117.4799	1127.9624	1182.257	1211.2912	1255.9114	1282.3654	1316.9617	1352.5671	1401.1212	1421.4421	1484.2535	1488.9989	1499.7068	1875.7229	3043.4574	3053.3374	3111.4272	3112.174	3118.3862	3156.9366	3187.2808	3206.9394
CC12C3CC(OC1=O)C23	C[C@@]12[C@H]3C[C@@H](OC1=O)[C@@H]23	
InChI=1S/C7H8O2/c1-7-3-2-4(5(3)7)9-6(7)8/h3-5H,2H2,1H3	InChI=1S/C7H8O2/c1-7-3-2-4(5(3)7)9-6(7)8/h3-5H,2H2,1H3/t3-,4+,5-,7-/m0/s1
