20
gdb 118452	2.17402	1.10167	0.80671	5.4889	71.7	-0.249	0.0242	0.2732	1446.1282	0.170463	-477.443345	-477.433253	-477.432308	-477.479329	35.676	
C	-0.0917473879	 0.805840091	 0.9208385444	-0.240749
O	-1.3554561328	 0.3287587522	 0.5156676182	-0.236363
C	-1.3332958357	-0.4129190535	-0.6920023167	-0.083421
C	-0.9965663009	-1.8964977172	-0.4670506074	-0.170436
C	-2.037901007	-2.5670456813	 0.4454393316	-0.182042
N	-1.6146289666	-3.9380627541	 0.7983910781	-0.528595
H	-0.8655799989	-3.9137370598	 1.4843911626	 0.245253
H	-2.3807541664	-4.4574516562	 1.2137349408	 0.249597
H	-1.0765999448	-4.2311886341	-0.8492559	 0.313681
C	-0.8174156243	-2.6109963274	-1.8198968733	 0.420632
O	-0.8686174725	-3.9460114604	-1.7794009139	-0.381669
O	-0.6254686346	-2.011408156	-2.8478713699	-0.338885
H	-0.2467620658	 1.4043721531	 1.8219981727	 0.128846
H	 0.6134904485	-0.0050880769	 1.1603686584	 0.100109
H	 0.3670109864	 1.4391219755	 0.1468174896	 0.115219
H	-2.3363533885	-0.3279836986	-1.124219751	 0.113452
H	-0.6286669918	 0.0147861094	-1.4134240258	 0.122517
H	-0.0203238614	-1.9571901671	 0.0386273827	 0.100561
H	-2.2007251493	-1.9247431542	 1.3184705192	 0.126607
H	-2.9923767158	-2.6448695344	-0.0875784202	 0.125685
53.7991	69.846	100.0303	139.6962	185.5441	228.2366	264.3209	301.7682	336.4595	368.9663	429.5455	455.6186	550.6357	622.0866	730.8567	811.4034	876.5247	910.6931	948.6631	989.9456	1037.8772	1049.1851	1071.0379	1104.3748	1124.2567	1178.9545	1190.3742	1228.388	1242.5752	1285.3659	1311.1661	1338.7095	1354.5538	1403.55	1416.9585	1478.1261	1489.6024	1495.5947	1502.952	1508.8791	1517.4476	1649.0519	1842.3227	2976.2975	2994.2101	3024.7326	3032.7518	3039.6256	3078.41	3088.202	3113.0006	3200.8399	3499.2264	3581.1865
COCC(C[NH3+])C([O-])=O	COC[C@@H](CN)C(=O)O	
InChI=1S/C5H11NO3/c1-9-3-4(2-6)5(7)8/h4H,2-3,6H2,1H3,(H,7,8)	InChI=1S/C5H11NO3/c1-9-3-4(2-6)5(7)8/h4H,2-3,6H2,1H3,(H,7,8)/t4-/m1/s1
