21
gdb 114032	2.79884	1.13864	0.96755	1.7411	78.94	-0.2376	0.0677	0.3053	1305.5749	0.181573	-424.189838	-424.18026	-424.179316	-424.223844	36.355	
C	-0.0445957249	 1.5342554223	 0.0957129216	-0.496285
C	 0.0037365021	 0.0345785187	 0.0185721585	 0.31519
C	-1.2453096301	-0.8583664036	-0.0864803573	-0.322726
C	-0.6200474091	-1.8520464197	 0.9477105012	 0.026648
C	-0.5519742984	-3.3378131119	 0.6133511373	-0.096163
O	-1.8306095041	-3.9576884255	 0.6837632708	-0.421205
C	 0.6667917619	-1.0154109138	 0.9649154559	-0.208783
C	 1.2015270809	-0.7311433217	-0.4143621126	 0.064136
O	 1.1228764113	-1.6164623658	-1.5003918621	-0.42359
H	 0.9392113068	 1.9557644231	 0.326127366	 0.116769
H	-0.3749079193	 1.9656062026	-0.8574565666	 0.124341
H	-0.7432852661	 1.8713182847	 0.8699634347	 0.117289
H	-2.1486227777	-0.3695487944	 0.284983147	 0.100057
H	-1.4393823496	-1.2566141011	-1.0872957222	 0.103448
H	-1.1408263685	-1.751377596	 1.9050888855	 0.081203
H	-0.0937414101	-3.48414839	-0.3734255011	 0.087914
H	 0.0696212312	-3.8563956471	 1.3530305275	 0.100387
H	-2.3748573559	-3.5720101029	-0.0102186174	 0.283546
H	 1.283129151	-0.8512742316	 1.8434539859	 0.078341
H	 2.1191945105	-0.1398946334	-0.3980442911	 0.084012
H	 1.7794132581	-2.308450353	-1.3670457114	 0.285471
91.8448	131.3738	164.918	196.8864	224.8541	259.4588	307.3331	321.402	325.1994	376.2131	429.3192	505.5679	557.2849	640.009	766.7705	796.543	846.63	888.9927	903.2403	962.8097	978.2545	996.0029	1036.7648	1047.321	1077.8793	1087.5864	1127.7881	1144.8743	1168.8274	1231.1207	1239.6421	1244.6831	1268.6652	1298.1752	1303.5806	1344.6033	1358.374	1398.1061	1416.2543	1418.4978	1469.2565	1484.7612	1492.6729	1504.818	1511.6576	3017.2189	3019.4484	3050.9974	3052.7811	3069.6586	3077.8207	3084.2207	3096.7356	3109.2508	3156.0743	3804.463	3815.8861
CC12CC(CO)C1C2O	C[C@]12C[C@@H](CO)[C@H]1[C@H]2O	
InChI=1S/C7H12O2/c1-7-2-4(3-8)5(7)6(7)9/h4-6,8-9H,2-3H2,1H3	InChI=1S/C7H12O2/c1-7-2-4(3-8)5(7)6(7)9/h4-6,8-9H,2-3H2,1H3/t4-,5-,6+,7-/m0/s1
