15
gdb 123552	4.08372	1.63207	1.41616	5.1427	70.36	-0.2745	-0.0276	0.2468	897.8615	0.115907	-416.728864	-416.723087	-416.722143	-416.758865	24.132	
C	-0.034923186	 1.5666639514	-0.0750471139	-0.22575
C	 1.5314377195	 1.386726143	-0.0129949474	-0.161151
C	 1.2076281196	 0.1647453753	 0.9312651997	-0.22575
C	-0.050623631	-0.0095748525	-0.0047532874	-0.161151
C	 0.6602179148	-0.307879783	-1.2980157087	 0.385395
N	 0.701235318	-1.0345954079	-2.3609717487	-0.252269
O	 1.8157525512	-0.5478340756	-3.0591316567	-0.180849
N	 2.4412293812	 0.5012131437	-2.3700846219	-0.252268
C	 1.7315215903	 0.6376668413	-1.3036095317	 0.385395
H	-0.4286513804	 2.0181666772	 0.8384047706	 0.117953
H	-0.4610350054	 2.044244875	-0.9594079554	 0.124621
H	 2.2048341113	 2.1891568274	 0.2734031463	 0.101625
H	 1.9295170243	-0.6529135633	 0.9766422547	 0.124621
H	 0.9254469621	 0.4903893182	 1.9350584293	 0.117952
H	-0.9288053796	-0.5765469802	 0.289731011	 0.101625
181.6103	306.1214	442.101	472.3359	550.0462	593.4097	678.779	680.7883	750.1509	781.2177	812.6432	842.5331	850.4008	868.2431	899.2921	989.7114	999.1092	1044.5119	1049.6815	1068.0263	1068.279	1091.5013	1180.3768	1216.6087	1225.8505	1233.5649	1269.6566	1296.1508	1364.7791	1484.3074	1515.4882	1616.9666	1700.2262	3067.4782	3072.6695	3136.2643	3139.323	3168.5611	3168.5696
C1C2CC1C1=NON=C21	C1[C@H]2C[C@@H]1c1nonc21	
InChI=1S/C6H6N2O/c1-3-2-4(1)6-5(3)7-9-8-6/h3-4H,1-2H2	InChI=1S/C6H6N2O/c1-3-2-4(1)6-5(3)7-9-8-6/h3-4H,1-2H2/t3-,4+
