18
gdb 98803	3.0116	1.24697	0.89711	2.5965	76.94	-0.2212	-0.0053	0.2159	1284.0009	0.147922	-435.303879	-435.294393	-435.293449	-435.339267	33.125	
C	-0.0246590372	 1.3875099207	 0.081316117	-0.306417
N	-0.0269591557	-0.0479295842	-0.1002452628	-0.329253
C	 0.6368787304	-0.6218100166	-1.1391068234	 0.453461
N	 1.2229353431	 0.05968696	-2.0508898984	-0.582658
N	 0.5916161593	-2.0308879758	-1.0946363058	-0.15917
C	 1.1368339895	-3.0448430559	-2.0061443826	-0.17957
C	 0.5721846666	-4.1249093837	-1.035553327	-0.375908
C	 0.0763369	-2.9408700038	-0.1885194513	 0.43075
O	-0.5163191208	-2.7833265608	 0.8499098254	-0.378455
H	 0.9818587992	 1.7761254113	 0.2799626383	 0.130118
H	-0.3996736801	 1.8882685801	-0.8160479169	 0.144537
H	-0.6738337699	 1.6322495643	 0.924443892	 0.121055
H	-0.3754472656	-0.6555597009	 0.6257386871	 0.271698
H	 1.6422077498	-0.5429004465	-2.7540191127	 0.210136
H	 0.6860574267	-3.0251482885	-3.0021565177	 0.130455
H	 2.2268098534	-3.0157558362	-2.0904650477	 0.130084
H	-0.2240657504	-4.7517547503	-1.4399199732	 0.144698
H	 1.3164646718	-4.7506119531	-0.5406418403	 0.144439
44.6263	78.7996	103.4398	150.9544	157.12	196.7017	289.5433	376.181	413.8685	427.7403	555.1008	590.0743	723.8238	754.1905	778.8168	798.8322	822.9265	932.8399	1001.509	1050.7722	1053.5773	1147.8695	1154.5118	1162.4882	1186.6014	1187.5748	1197.0938	1233.2971	1254.8388	1353.6854	1374.7041	1455.8426	1461.5209	1474.0556	1517.0862	1525.8837	1587.5657	1717.925	1856.9957	3024.8376	3054.4634	3086.0233	3093.0883	3104.3668	3132.1261	3150.8081	3526.6223	3607.0159
CNC(=N)N1CCC1=O	CNC(=N)N1CCC1=O	
InChI=1S/C5H9N3O/c1-7-5(6)8-3-2-4(8)9/h2-3H2,1H3,(H2,6,7)	InChI=1S/C5H9N3O/c1-7-5(6)8-3-2-4(8)9/h2-3H2,1H3,(H2,6,7)
