18
gdb 84484	3.10264	1.51954	1.11597	2.9093	80.4	-0.2021	-0.0015	0.2006	1104.4671	0.148195	-401.987506	-401.97916	-401.978215	-402.02037	31.484	
C	-0.0137809456	 1.4414203224	 0.0334039495	-0.351206
N	 0.0112923688	-0.0016637696	-0.0288418182	-0.107432
C	 0.0480604621	-0.782161196	-1.1973284897	-0.04236
C	 0.0643739751	-2.0922247666	-0.9122785966	-0.284336
C	 0.0366847557	-2.2243189862	 0.5602605797	 0.216433
C	-0.7062164299	-3.2962649975	 1.3483101481	-0.289496
C	 0.7823427847	-3.2714222773	 1.3785099166	-0.289501
C	 0.0024636857	-0.8169081391	 1.0918393763	 0.372174
O	-0.0272326347	-0.4462799609	 2.2500740163	-0.412513
H	 0.8800917406	 1.8774731441	-0.4271287301	 0.129565
H	-0.9004955536	 1.8480447282	-0.4661848025	 0.129554
H	-0.0414202684	 1.7161179693	 1.0895662914	 0.168177
H	 0.0591118505	-0.2874570539	-2.1579896433	 0.126855
H	 0.092317458	-2.9052129846	-1.6209973086	 0.110325
H	-1.2361212511	-2.9415727053	 2.2256764997	 0.141198
H	-1.207351951	-4.0666164063	 0.7733906317	 0.120686
H	 1.3317948375	-4.0242397974	 0.8249047175	 0.12068
H	 1.2641145257	-2.8998321032	 2.2763929621	 0.141196
95.8967	131.1999	164.5231	230.3598	244.3881	295.8377	298.9651	481.1028	527.7481	577.6358	681.5559	710.7118	748.5604	755.4769	793.3209	855.1511	889.0179	932.1198	970.3029	978.7215	1003.0297	1062.3898	1079.8725	1090.7096	1118.0984	1155.7299	1205.5927	1245.5029	1297.7515	1327.4623	1359.6551	1420.9754	1453.1472	1460.6929	1485.8436	1494.7985	1512.3075	1647.6067	1799.1243	3022.8162	3076.2587	3135.9008	3137.1087	3141.3447	3223.7146	3233.2553	3238.7223	3258.0179
CN1C=CC2(CC2)C1=O	CN1C=CC2(CC2)C1=O	
InChI=1S/C7H9NO/c1-8-5-4-7(2-3-7)6(8)9/h4-5H,2-3H2,1H3	InChI=1S/C7H9NO/c1-8-5-4-7(2-3-7)6(8)9/h4-5H,2-3H2,1H3
