16
gdb 115266	5.08946	0.85969	0.78126	1.7143	74.97	-0.2592	-0.0593	0.1999	1397.6377	0.124536	-437.89709	-437.888612	-437.887668	-437.93097	30.323	
O	 0.0565239173	 1.3587482284	-0.2313664823	-0.415344
C	 0.0598920925	-0.0389233856	-0.0546768126	-0.056588
C	-1.3614309665	-0.5525952234	 0.2186169885	 0.063295
O	-2.2041600741	-0.1540926309	-0.8743991307	-0.290394
C	-2.7883373792	-1.2850863779	-1.50872114	-0.165582
C	-2.2823992261	-2.4701635653	-0.7116085471	 0.181782
C	-1.4880724415	-2.043787496	 0.2737804858	-0.214155
C	-2.6403377193	-3.8091244321	-1.0123871631	 0.210255
N	-2.9546501978	-4.8895338978	-1.2869607956	-0.322906
H	-0.601664661	 1.5415466087	-0.9129444748	 0.294414
H	 0.4654691615	-0.5657377194	-0.9333169921	 0.091733
H	 0.7078987138	-0.2560052641	 0.8014480067	 0.112595
H	-1.729123539	-0.0707925284	 1.1375719412	 0.108541
H	-3.8842685434	-1.2094684237	-1.480447035	 0.13194
H	-2.4842757654	-1.3390370255	-2.5634573717	 0.129739
H	-0.9897605019	-2.664587997	 1.0062414326	 0.140677
63.286	109.3017	111.9913	169.3307	236.787	321.3392	415.922	456.9216	492.2225	534.5617	561.9604	583.3736	760.3215	835.8138	887.0266	909.2987	988.4741	1021.7081	1041.3064	1077.4901	1083.5818	1106.8091	1195.8617	1196.4268	1224.5633	1267.7021	1308.8466	1345.1294	1381.8633	1390.0502	1430.0812	1497.557	1524.3142	1687.1883	2343.0976	2975.8766	2995.4573	3002.174	3029.5438	3075.4241	3233.9778	3790.9295
OCC1OCC(=C1)C#N	OC[C@H]1OCC(=C1)C#N	
InChI=1S/C6H7NO2/c7-2-5-1-6(3-8)9-4-5/h1,6,8H,3-4H2	InChI=1S/C6H7NO2/c7-2-5-1-6(3-8)9-4-5/h1,6,8H,3-4H2/t6-/m0/s1
