18
gdb 93552	3.24611	1.26767	0.973	3.3821	77.19	-0.2233	-0.0116	0.2117	1207.6868	0.148786	-439.120978	-439.112645	-439.1117	-439.154165	31.575	
C	 0.2068816769	 1.5709238003	-0.0673011331	-0.39592
C	-0.0634600464	 0.0663774948	-0.0243131879	 0.066966
O	 0.511764126	-0.4748915988	-1.2037448673	-0.247561
C	 0.2338631772	-1.8336367525	-1.4470197684	-0.201587
C	 1.2725225954	-2.7908290507	-0.8673616142	 0.38788
O	 1.7080631808	-3.7321074812	-1.4987391884	-0.351046
N	 1.6925005789	-2.5519947858	 0.4246644781	-0.331545
C	 1.24080836	-1.6376810092	 1.3794345379	-0.001307
C	 0.4756307032	-0.5524440377	 1.2377070362	-0.096133
H	 1.2835657182	 1.7606140123	-0.0506083963	 0.131956
H	-0.2119067497	 1.9997607947	-0.9810315796	 0.125881
H	-0.2487727637	 2.0666780508	 0.794501357	 0.115976
H	-1.158675387	-0.087517918	-0.0608789132	 0.076121
H	-0.7610423143	-2.1172128983	-1.0673434557	 0.115451
H	 0.2444452381	-1.9940549925	-2.5272997384	 0.140379
H	 2.3562692372	-3.2446989658	 0.7404588246	 0.254756
H	 1.5763240058	-1.9072107434	 2.3757648381	 0.114359
H	 0.2242379334	-0.025531289	 2.1534612206	 0.095375
57.6607	123.7674	225.7549	248.5325	289.0811	321.8674	364.4085	394.9916	506.425	521.3333	605.9463	630.8088	703.748	738.103	780.7606	831.2674	878.8662	920.1014	962.9306	1021.7759	1039.8175	1081.85	1116.1141	1143.9654	1181.4146	1250.9208	1298.1124	1331.3672	1357.4226	1378.5807	1394.3543	1404.3373	1452.8564	1470.1396	1484.689	1490.5794	1498.1301	1741.9961	1792.8374	2914.4527	2982.8415	3047.4416	3112.009	3124.3567	3129.9697	3165.2345	3186.773	3608.6468
CC1OCC(=O)NC=C1	C[C@H]1OCC(=O)NC=C1	
InChI=1S/C6H9NO2/c1-5-2-3-7-6(8)4-9-5/h2-3,5H,4H2,1H3,(H,7,8)	InChI=1S/C6H9NO2/c1-5-2-3-7-6(8)4-9-5/h2-3,5H,4H2,1H3,(H,7,8)/t5-/m1/s1
