20
gdb 56658	2.35421	1.26327	1.04944	1.9736	81.13	-0.2269	0.0309	0.2578	1251.8882	0.167073	-403.07641	-403.065909	-403.064965	-403.111585	38.541	
C	-0.3129861308	 1.4344137378	 0.0916003311	-0.315872
N	-0.0274318247	 0.0116800938	 0.186749912	-0.103603
C	 1.2755750133	-0.4711978912	-0.2594932852	-0.300003
C	 0.90961807	-0.4977412088	 1.1866445854	 0.326331
C	 1.6313169585	 0.4033180427	 2.1674965612	-0.490915
C	 0.4467644103	-1.8411863974	 1.7691969896	-0.082841
O	 1.5516915383	-2.6338748296	 2.202981248	-0.424991
C	-0.5339815114	-1.6537962098	 2.8416845737	 0.296512
C	-1.2958909335	-1.4909809737	 3.757818384	-0.461444
H	 0.566979844	 2.088614696	 0.1902876473	 0.099391
H	-0.7679052378	 1.6328854994	-0.8841148465	 0.125719
H	-1.0369310851	 1.7107173695	 0.8645269986	 0.127368
H	 1.2756171332	-1.3806742165	-0.8559754916	 0.114799
H	 2.0171964504	 0.2676934042	-0.5627929575	 0.102968
H	 2.0057777652	 1.3129637814	 1.6952748	 0.121809
H	 0.9746895816	 0.6879140662	 2.9964065133	 0.131039
H	 2.4933733206	-0.127713725	 2.5833569485	 0.124563
H	-0.0268521358	-2.3970168417	 0.9527559453	 0.119465
H	 1.6994992769	-2.4477574714	 3.1355078529	 0.288956
H	-1.9875170432	-1.3594835859	 4.5532023701	 0.200746
55.5237	114.7613	164.9206	188.0227	197.7822	207.4851	218.5591	283.6501	301.552	346.1609	358.6038	446.6131	517.2518	538.4646	598.0276	631.523	670.7936	759.5985	785.3925	864.2704	925.1286	962.3052	1009.2806	1055.2225	1064.5516	1098.3341	1115.3363	1153.6947	1171.3436	1209.6277	1254.5363	1279.2466	1315.9946	1393.8395	1399.0302	1417.8342	1453.6074	1485.43	1490.413	1501.5617	1515.3438	1518.965	2229.2454	2982.265	3042.7226	3054.2431	3068.9241	3082.9828	3103.0311	3104.9607	3133.6007	3167.0167	3501.7264	3826.0777
CN1CC1(C)C(O)C#C	CN1C[C@]1(C)[C@@H](O)C#C	
InChI=1S/C7H11NO/c1-4-6(9)7(2)5-8(7)3/h1,6,9H,5H2,2-3H3	InChI=1S/C7H11NO/c1-4-6(9)7(2)5-8(7)3/h1,6,9H,5H2,2-3H3/t6-,7+,8?/m0/s1
