18
gdb 114406	3.27701	1.14457	1.13452	2.9816	73.43	-0.2602	0.0039	0.2641	1185.8099	0.147493	-439.058157	-439.049954	-439.04901	-439.091409	30.665	
C	 0.0307805236	 1.250948835	-0.4906414741	-0.384119
C	-0.0180775458	-0.2219762079	-0.070598165	-0.199191
C	-1.4342176434	-0.6930522924	 0.1905871846	 0.126622
O	-2.3177817859	-0.5841438297	-0.9714356465	-0.310729
C	-2.7301284489	-1.9604253408	-0.8524218864	-0.015473
C	-1.7403088574	-2.196526649	 0.3031060742	 0.021525
O	-0.9171033964	-3.0281785431	-0.5660602262	-0.270333
C	-1.8182944943	-2.9017025241	-1.6222740459	 0.443828
N	-1.8161301193	-3.412303609	-2.7633973288	-0.542415
H	 1.0581369857	 1.5628887894	-0.6983873801	 0.116832
H	-0.5645008376	 1.4110475144	-1.3937177199	 0.142511
H	-0.3661012581	 1.9036553154	 0.2946512781	 0.113819
H	 0.4294414237	-0.853914855	-0.8434694805	 0.119321
H	 0.5653134392	-0.3776455262	 0.8465042009	 0.101849
H	-1.8827579015	-0.1403796001	 1.0291243413	 0.084893
H	-3.8094918086	-2.106753045	-0.8689712343	 0.111535
H	-1.926985085	-2.669254119	 1.2646899554	 0.106127
H	-0.9897709201	-3.9933114828	-2.9172129168	 0.233396
71.0817	104.8363	170.0805	208.8163	247.4473	304.049	410.1205	448.5675	549.6038	633.5747	724.0635	766.1179	812.0228	827.9047	873.6581	911.6227	913.5023	954.5504	965.7401	996.6286	1011.0165	1036.6253	1076.2648	1114.4371	1157.0798	1179.4494	1218.4751	1243.8706	1279.8729	1284.4911	1299.0318	1333.9732	1347.3442	1404.9959	1410.3018	1478.4532	1499.0791	1509.0434	1829.7471	3000.2932	3029.8518	3038.4324	3086.6971	3109.2697	3123.3256	3126.5469	3146.4057	3473.5522
CCC1OC2C1OC2=N	CC[C@H]1O[C@@H]2[C@H]1O[C]2[NH]	
InChI=1S/C6H9NO2/c1-2-3-4-5(8-3)6(7)9-4/h3-5,7H,2H2,1H3	InChI=1S/C6H9NO2/c1-2-3-4-5(8-3)6(7)9-4/h3-5,7H,2H2,1H3/t3-,4+,5-/m1/s1
