16
gdb 133772	2.10599	1.63232	1.24954	2.0333	57.85	-0.2716	0.0879	0.3594	1038.1602	0.11898	-569.369839	-569.360964	-569.36002	-569.403862	32.244	
C	-1.5367801975	-0.6190354243	-0.2308652299	-0.257207
O	-0.1695285226	-0.243404551	-0.0952569966	-0.288372
C	 0.6976001219	-0.7352801663	-1.0608888769	 0.273095
C	 2.0353086118	-1.1975584962	-0.56649187	-0.313258
C	 1.0359987985	-2.2052459243	-1.0883682797	-0.330951
C	 0.6520317965	 0.0191626202	-2.3727258019	 0.23572
F	 0.8523875522	 1.3284977368	-2.1927834692	-0.064592
F	 1.5894996843	-0.4274658991	-3.2266754705	-0.078983
F	-0.5391401853	-0.1170716864	-2.986830096	-0.08219
H	-2.0177180946	-0.1187336351	-1.0771631243	 0.129957
H	-1.6427765402	-1.7045242118	-0.3542973142	 0.112346
H	-2.0282747369	-0.3143324283	 0.6953808042	 0.131026
H	 2.9095538951	-0.980564883	-1.1673380407	 0.135065
H	 2.1753992963	-1.1355302282	 0.5057138655	 0.134399
H	 0.5236803651	-2.8266974434	-0.3633488164	 0.128483
H	 1.2286503553	-2.6749271697	-2.0453769934	 0.13546
55.5175	99.982	182.7733	219.4152	227.9287	275.0411	311.2522	364.5907	412.7708	498.0239	529.8094	577.6528	621.32	745.586	776.2958	869.9928	929.2566	970.6388	1007.414	1058.3736	1089.2869	1097.5852	1157.4198	1175.4783	1182.1365	1195.4508	1209.5083	1227.5867	1316.2337	1390.1588	1450.9823	1475.6053	1491.5005	1495.9549	1510.7691	3017.4274	3089.0604	3129.971	3148.663	3154.5265	3236.0676	3251.0356
COC1(CC1)C(F)(F)F	COC1(CC1)C(F)(F)F	
InChI=1S/C5H7F3O/c1-9-4(2-3-4)5(6,7)8/h2-3H2,1H3	InChI=1S/C5H7F3O/c1-9-4(2-3-4)5(6,7)8/h2-3H2,1H3
