19
gdb 40520	3.1786	1.33196	1.14619	1.7057	74.71	-0.2448	0.0659	0.3108	1116.3996	0.159483	-422.964244	-422.956337	-422.955393	-422.997125	30.13	
C	 0.331472774	 1.4814562064	 0.0837301851	-0.185069
O	 1.262326253	 0.4206276352	-0.1337398792	-0.232911
C	-0.1192913019	 0.0826644399	 0.0260375155	-0.050032
C	-0.5042137883	-0.6894761427	 1.2459597245	 0.314502
C	 0.3155643027	-0.5077186017	 2.5551080139	-0.309068
C	 0.458170514	-2.0569447753	 2.6881624513	-0.231078
C	-0.3853563312	-2.2414673552	 1.4092641133	 0.067751
O	-1.7971612404	-2.3605024107	 1.6790066216	-0.291533
C	-2.008139965	-0.9468517318	 1.4764736694	-0.131592
H	 0.4110429302	 1.9786057742	 1.0493226288	 0.115308
H	 0.1625564269	 2.1391978854	-0.7673618726	 0.119494
H	-0.5969847603	-0.2518285279	-0.8974460053	 0.095411
H	 1.2694276138	-0.0086574891	 2.3754786753	 0.124948
H	-0.2095251329	 0.0034144028	 3.3662673159	 0.097264
H	 1.4892664556	-2.4048224109	 2.5864392384	 0.108382
H	 0.010636295	-2.5150448069	 3.5724324316	 0.111791
H	-0.04735534	-2.9401839964	 0.6389670251	 0.07795
H	-2.4563388041	-0.456095309	 2.349792801	 0.10072
H	-2.6425077911	-0.7597164763	 0.5986605164	 0.097763
82.2486	92.4651	175.6579	221.7176	313.8917	342.8562	416.8685	479.6509	631.997	679.5739	743.1672	839.8366	860.6739	883.3112	897.031	910.762	942.1523	954.3487	1004.3613	1023.3297	1039.8571	1073.8933	1103.1666	1114.5905	1153.1142	1156.6194	1172.1818	1191.3463	1197.1767	1236.3767	1250.6634	1270.5128	1282.422	1306.0161	1329.4429	1372.1715	1438.8551	1460.6234	1480.2132	1521.2251	1525.536	2995.1866	3042.9813	3061.0076	3063.2722	3074.9627	3084.4019	3088.8639	3115.5873	3132.7007	3173.9799
C1OC1C12CCC1OC2	C1O[C@H]1[C@]12CC[C@H]1OC2	
InChI=1S/C7H10O2/c1-2-7(6-3-8-6)4-9-5(1)7/h5-6H,1-4H2	InChI=1S/C7H10O2/c1-2-7(6-3-8-6)4-9-5(1)7/h5-6H,1-4H2/t5-,6-,7+/m1/s1
