20
gdb 69988	2.96726	1.74414	1.6232	0.6346	77.15	-0.223	0.0915	0.3146	944.3997	0.173651	-403.121946	-403.114886	-403.113942	-403.152844	29.824	
C	 0.1021489362	 1.4965392819	 0.0042517552	-0.479717
C	-0.0720496045	-0.0022128671	 0.0041478546	 0.340223
C	-0.9071727817	-0.7085200347	 1.0007055259	-0.304533
N	 0.5680580212	-0.8105892593	 1.0899540641	-0.159547
C	 1.2405584665	-1.9297303739	 0.3500072229	-0.007154
C	 0.2500688196	-2.8867659131	-0.3118334163	-0.098613
O	-0.3869572732	-2.0553032614	-1.3058888658	-0.279753
C	 0.2956344277	-0.7915724706	-1.2689167412	 0.037242
C	 1.7403188582	-1.1905421266	-0.9113832736	-0.230322
H	 1.0503899838	 1.7928088387	-0.4584807528	 0.115862
H	-0.7084350015	 1.9841834265	-0.5492269369	 0.119391
H	 0.0977678197	 1.8781156251	 1.0287196686	 0.130168
H	-1.3426465073	-0.1394336963	 1.8183587227	 0.109539
H	-1.5056754575	-1.5486491098	 0.6706990126	 0.13308
H	 1.9885192011	-2.4089992969	 0.9819554605	 0.08002
H	 0.7602493954	-3.7311990588	-0.7947317555	 0.098464
H	-0.5014910046	-3.2892590382	 0.3753747058	 0.105908
H	 0.115458654	-0.2742180989	-2.211299752	 0.076437
H	 2.3847766455	-0.3434212636	-0.6709283981	 0.112197
H	 2.2166071715	-1.8335951531	-1.6557630506	 0.101109
183.0055	213.879	273.4911	329.0551	400.6159	462.996	478.1504	528.4238	571.0414	702.8001	749.6847	756.3852	801.6684	876.4548	899.0547	907.1002	929.5208	939.7864	958.9348	965.016	995.6269	1026.7487	1064.8787	1075.9589	1107.018	1123.6351	1140.5237	1150.2903	1188.8881	1207.434	1250.9871	1279.9697	1281.7586	1308.4049	1326.6112	1369.7351	1384.5424	1415.5472	1483.1569	1487.8763	1494.9798	1506.0874	1535.2972	3010.7474	3027.9498	3063.58	3072.4477	3088.0975	3115.3669	3115.6123	3120.3385	3123.831	3135.5024	3217.2709
CC12CN1C1COC2C1	C[C@]12CN1[C@H]1CO[C@@H]2C1	
InChI=1S/C7H11NO/c1-7-4-8(7)5-2-6(7)9-3-5/h5-6H,2-4H2,1H3	InChI=1S/C7H11NO/c1-7-4-8(7)5-2-6(7)9-3-5/h5-6H,2-4H2,1H3/t5-,6-,7-,8?/m1/s1
