16
gdb 127896	2.45424	1.60232	0.98108	1.7423	81.46	-0.2328	-0.0757	0.1571	1166.6746	0.121571	-434.022724	-434.013804	-434.01286	-434.056555	31.902	
C	-0.1301780716	 1.4131393956	-0.0087684962	-0.335698
N	-0.1255089173	-0.0324782419	-0.0820029945	-0.290021
C	 0.5696734619	-0.6595028789	-0.9442808679	 0.348479
N	 1.3951998968	 0.0465359422	-1.900134732	-0.126448
N	 2.093775177	-0.4386373286	-2.7599091569	 0.028725
O	 2.1324046364	-1.9433052673	-2.8769890973	-0.263721
C	 1.383534607	-2.6368835704	-2.0119994599	 0.042982
C	 0.6034470709	-2.1021574217	-1.052159544	 0.125201
C	-0.2129904339	-2.9321541626	-0.1123842022	-0.477791
H	 0.50518895	 1.9142643708	-0.7463235544	 0.134908
H	-1.1617404826	 1.7655042894	-0.1270821622	 0.133263
H	 0.185360214	 1.7128784927	 0.9976451464	 0.133261
H	 1.4745529552	-3.7090902382	-2.1712421236	 0.138187
H	-0.08603353	-3.9990109168	-0.3163313365	 0.117694
H	 0.0704974369	-2.7322593668	 0.9263498883	 0.145466
H	-1.2749894907	-2.6779421574	-0.1947153673	 0.145511
67.7526	113.901	171.6513	191.4903	214.0231	287.1582	307.0425	339.2446	429.2737	485.5314	506.5507	533.3305	600.1183	733.3887	776.23	860.6655	905.8163	1004.1319	1058.0267	1069.2237	1073.1109	1127.1382	1163.8766	1172.077	1293.2477	1407.5666	1420.8988	1433.4374	1465.3292	1486.5184	1489.2916	1489.4729	1644.5057	1714.3206	1733.5198	3017.7207	3035.8351	3072.5172	3093.117	3096.2384	3118.1522	3160.8864
CN=C1N=NOC=C1C	C[N]C1=N[N]OC=C1C	
InChI=1S/C5H7N3O/c1-4-3-9-8-7-5(4)6-2/h3H,1-2H3	InChI=1S/C5H7N3O/c1-4-3-9-8-7-5(4)6-2/h3H,1-2H3
