17
gdb 33935	3.26987	1.41456	1.25371	1.6286	78.25	-0.2378	0.0413	0.2791	1039.2209	0.136084	-384.634108	-384.626712	-384.625768	-384.66564	30.002	
C	 0.0523704276	-1.2078000301	 0.0121022405	-0.390807
C	 0.0489138293	-0.004264908	 0.0207565437	 0.163141
C	 0.0266776164	 1.4242029195	 0.0547460631	 0.177428
C	 0.2997363918	 2.2538275509	-1.1942815412	-0.319543
C	 1.2941135604	 2.2871122614	-0.0729783707	-0.095776
C	 1.2382370051	 3.3971545778	 0.9795454671	-0.265204
C	-0.1217762409	 3.274001394	 1.6520334709	 0.042654
O	-1.243589029	 3.4381282902	 0.7702533353	-0.252691
C	-0.8358254776	 2.1088429278	 1.1082044203	-0.051688
H	 0.0589511661	-2.2692228529	-0.0031259066	 0.18571
H	 0.5780976463	 1.7000541507	-2.0834016259	 0.123094
H	-0.34580868	 3.1086070252	-1.3518466481	 0.141955
H	 2.2449774286	 1.7937607037	-0.2372901254	 0.104265
H	 2.0209966444	 3.238772974	 1.7297656486	 0.112551
H	 1.3901283033	 4.3951777482	 0.5539897388	 0.12088
H	-0.2710657795	 3.6566360332	 2.6591397951	 0.100012
H	-1.5558170023	 1.5157450345	 1.6632966544	 0.104019
132.2201	146.9818	269.8434	315.636	398.7319	470.771	481.8959	506.0842	562.3098	595.5177	656.0435	702.4894	736.143	801.8311	824.176	859.5256	889.1677	901.267	943.0376	970.726	1010.5954	1059.7542	1079.8282	1092.2778	1104.2227	1118.0213	1211.2259	1228.6576	1251.6861	1269.7058	1299.6355	1330.9236	1397.0032	1421.8397	1470.9577	1479.0294	2234.2202	3042.7736	3081.9785	3139.5246	3147.6575	3169.9449	3179.471	3244.7544	3503.6656
C#CC12CC1CC1OC21	C#C[C@]12C[C@H]1C[C@H]1O[C@@H]21	
InChI=1S/C8H8O/c1-2-8-4-5(8)3-6-7(8)9-6/h1,5-7H,3-4H2	InChI=1S/C8H8O/c1-2-8-4-5(8)3-6-7(8)9-6/h1,5-7H,3-4H2/t5-,6-,7-,8+/m1/s1
