19
gdb 113112	5.70207	0.64424	0.6237	4.8595	74.42	-0.2755	0.0108	0.2863	1755.9996	0.157623	-460.166904	-460.157374	-460.15643	-460.202699	33.569	
O	 0.3346183832	 0.9006439864	-0.9125142119	-0.419108
C	 0.0620602647	-0.322669658	-0.2488661036	-0.079519
C	-1.3412951944	-0.2337685825	 0.3268668321	 0.012411
C	-2.4695463254	-0.2296954953	-0.7465583023	-0.256619
C	-2.6952784035	-1.730685294	-0.4626074941	 0.150455
C	-1.8937087617	-1.5928827066	 0.8514163164	-0.282076
O	-4.0548911111	-2.1303459938	-0.3110535749	-0.186393
C	-4.5055340787	-3.1829077638	-1.0176334672	 0.161854
O	-5.6284418921	-3.5819489123	-0.943170143	-0.276306
H	 1.2210928533	 0.8562578737	-1.2825650864	 0.289238
H	 0.1337848525	-1.1767917222	-0.9443182722	 0.080141
H	 0.7803574518	-0.5086431131	 0.5662259721	 0.090094
H	-1.3763879111	 0.5951764183	 1.0367676717	 0.087615
H	-3.3381881697	 0.3511584234	-0.4286777994	 0.122391
H	-2.1922432217	 0.0626283656	-1.7610298513	 0.11568
H	-2.2046061486	-2.3829029297	-1.1937419307	 0.086501
H	-1.1748745814	-2.3822687366	 1.0885014502	 0.102584
H	-2.5706720112	-1.4615907469	 1.6982702989	 0.125981
H	-3.7253357848	-3.6286563727	-1.6664796544	 0.075077
38.1982	57.427	113.3109	144.9044	217.2793	240.005	269.8825	313.3116	373.6893	440.3777	478.2343	564.7566	769.5576	811.0045	835.358	902.8444	938.1714	957.6568	989.3697	1041.1907	1043.8886	1077.8766	1099.9983	1105.0175	1155.768	1179.7612	1204.6526	1231.1625	1242.2379	1265.3364	1278.2974	1287.6206	1290.967	1366.206	1388.0598	1442.148	1461.6053	1469.377	1494.2967	1520.1136	1865.9604	2937.342	2950.6208	2982.6628	3038.6692	3061.836	3075.1398	3087.5418	3123.8007	3134.2973	3829.9134
OCC1CC(C1)OC=O	OC[C@H]1C[C@@H](C1)OC=O	
InChI=1S/C6H10O3/c7-3-5-1-6(2-5)9-4-8/h4-7H,1-3H2	InChI=1S/C6H10O3/c7-3-5-1-6(2-5)9-4-8/h4-7H,1-3H2/t5-,6-
