15
gdb 132367	1.97987	1.8206	0.95436	3.5168	71.93	-0.239	-0.0131	0.2259	1152.2096	0.113053	-458.176959	-458.168862	-458.167918	-458.21011	30.041	
C	-0.020801417	 1.4667918012	 0.0227828246	-0.457231
C	 0.0206803364	-0.0354633103	 0.0139711396	 0.351667
N	 0.0625454983	-0.6254573596	-1.1915752473	-0.35326
C	 0.0992026458	-1.9408393582	-1.1688106449	 0.346121
F	 0.1382451156	-2.5446642015	-2.3504462933	-0.067419
C	 0.0988125675	-2.7217370766	-0.0297331336	-0.368918
C	 0.0541030564	-2.0031012261	 1.1728718959	 0.417892
N	 0.0872139523	-2.6190432958	 2.3895515488	-0.566052
N	 0.0113898273	-0.6579986807	 1.1904339806	-0.351284
H	 0.8754073785	 1.8684249989	-0.460856958	 0.143029
H	-0.8790423514	 1.8226169177	-0.5553934193	 0.142001
H	-0.0828730151	 1.8416012274	 1.0443026406	 0.132369
H	 0.1350366623	-3.8018498119	-0.0771326439	 0.106288
H	-0.1434328651	-3.5956835894	 2.4540823877	 0.260555
H	-0.1429475919	-2.0407341651	 3.1814743624	 0.264243
47.6603	184.2352	201.9763	234.7935	298.3444	338.6531	356.9206	481.4637	516.5822	559.2519	572.6599	625.2402	629.2194	712.8575	783.1814	840.4833	972.2575	994.4023	1014.7049	1063.5752	1083.2781	1109.5067	1212.425	1308.3131	1386.7474	1437.7272	1452.5059	1472.5664	1478.3744	1500.4054	1607.7679	1632.549	1652.7963	3049.4168	3107.1354	3158.0292	3216.5678	3602.4048	3727.3428
CC1=NC(F)=CC(N)=N1	Cc1nc(F)cc(N)n1	
InChI=1S/C5H6FN3/c1-3-8-4(6)2-5(7)9-3/h2H,1H3,(H2,7,8,9)	InChI=1S/C5H6FN3/c1-3-8-4(6)2-5(7)9-3/h2H,1H3,(H2,7,8,9)
