19
gdb 106651	2.80475	1.22455	1.01444	3.4264	77.49	-0.2335	-0.0073	0.2262	1237.4262	0.157194	-423.020338	-423.011053	-423.010109	-423.054436	34.55	
C	 0.1360131592	 1.4462497586	 0.2464594682	-0.378309
C	-0.1420694488	-0.0209065798	-0.1092157623	-0.287195
C	 0.5972666792	-0.4808093707	-1.3340792795	 0.303229
C	 2.0202574528	-0.9401249659	-1.3374473044	-0.394353
C	 0.9449116518	-1.9445585859	-1.7479319901	 0.224646
O	 0.7249809764	-3.1039721866	-1.0427166036	-0.450776
C	 0.4572541398	-1.636920912	-3.1339811829	 0.362867
O	 0.1502139336	-2.315917646	-4.0723206971	-0.324165
C	 0.2146762255	-0.1392636522	-2.7860935961	-0.414989
H	 1.2006508618	 1.6087561395	 0.4432156483	 0.119317
H	-0.1571991747	 2.1148040685	-0.5697216004	 0.12155
H	-0.4226477588	 1.7435324257	 1.1389760466	 0.117293
H	 0.1332509219	-0.6670954425	 0.732833122	 0.110829
H	-1.2188710739	-0.1625935977	-0.2667230638	 0.106716
H	 2.7397519564	-0.5539882948	-2.0550694908	 0.117179
H	 2.4356611902	-1.1760758066	-0.3612598377	 0.122843
H	 1.4973085119	-3.6740058377	-1.1256482756	 0.297648
H	-0.8429061336	 0.1074161833	-2.9234142322	 0.129372
H	 0.8314305093	 0.6032303528	-3.3005183288	 0.116299
78.8771	96.828	141.5795	204.4626	223.9899	252.1556	285.4912	354.3071	402.4126	469.8183	515.9593	577.787	646.1533	676.7345	731.8796	786.531	790.5889	870.9046	959.6505	975.631	996.0087	1013.9577	1041.7919	1076.4565	1091.935	1104.3668	1142.5822	1201.8123	1223.9526	1264.7008	1326.9585	1343.6475	1383.4813	1408.4521	1414.6231	1459.5319	1482.0062	1498.4972	1505.1299	1508.2262	1877.7485	3024.8078	3035.4226	3051.9882	3060.8894	3104.8779	3105.7312	3106.7996	3109.3908	3194.208	3798.636
CCC12CC1(O)C(=O)C2	CC[C@@]12C[C@]1(O)C(=O)C2	
InChI=1S/C7H10O2/c1-2-6-3-5(8)7(6,9)4-6/h9H,2-4H2,1H3	InChI=1S/C7H10O2/c1-2-6-3-5(8)7(6,9)4-6/h9H,2-4H2,1H3/t6-,7+/m1/s1
