13
gdb 21697	3.54498	1.91772	1.31543	3.627	55.94	-0.245	-0.0325	0.2125	865.3387	0.096463	-431.873263	-431.866169	-431.865225	-431.904649	26.181	
N	 0.1463981421	 1.3434458802	-0.1075353243	-0.592426
C	 0.1012445933	-0.0290169629	-0.0676988244	 0.297526
N	-0.9899685187	-0.7503755428	-0.047725171	-0.175017
O	-0.5522205684	-2.061729531	 0.0566795652	-0.162608
N	 0.8055029855	-2.1307156616	 0.0762416332	-0.14664
C	 1.2364129336	-0.9035617388	 0.0145643642	 0.273006
C	 2.6781760696	-0.5059238629	 0.0075960056	-0.191383
O	 2.942347527	 0.4481244197	-1.0212138536	-0.41203
H	 0.9700147889	 1.6996981082	-0.5738699904	 0.269372
H	-0.7139107671	 1.7880707489	-0.3932384174	 0.265569
H	 2.9341561016	 0.0027327687	 0.9428812563	 0.142777
H	 3.3115848151	-1.3966991461	-0.0755696937	 0.135341
H	 2.8384830176	 0.0018783305	-1.8688715197	 0.296511
101.2688	170.291	236.3625	311.1054	375.3367	404.4418	457.6463	476.0316	609.1401	636.0493	707.9184	747.6708	783.3619	907.988	941.3371	972.0666	1026.8362	1065.0644	1162.0318	1197.6266	1291.5565	1366.2563	1413.9827	1474.0203	1491.9796	1559.1995	1630.7502	1669.5129	3039.5657	3087.046	3554.8357	3665.4869	3808.6976
NC1=NON=C1CO	Nc1nonc1CO	
InChI=1S/C3H5N3O2/c4-3-2(1-7)5-8-6-3/h7H,1H2,(H2,4,6)	InChI=1S/C3H5N3O2/c4-3-2(1-7)5-8-6-3/h7H,1H2,(H2,4,6)
