17
gdb 72514	2.79725	1.7745	1.74838	2.2454	71.27	-0.2326	-0.0123	0.2204	881.3908	0.136878	-421.814082	-421.807077	-421.806132	-421.844762	29.538	
O	-0.0517665201	 1.3962811633	 0.0020074439	-0.510478
C	 0.0747198269	-0.0070045641	 0.0012969066	 0.289532
C	-1.3749974869	-0.6215046476	 0.0085385204	-0.059431
O	-1.2958494627	-2.0327103537	 0.0080195293	-0.273349
C	 0.0934039775	-2.5086663567	 0.0010028615	-0.006376
C	 0.7411896131	-1.9297332486	-1.2420604794	-0.07557
C	 0.7144252895	-0.5987178797	-1.2435409108	-0.134941
C	 0.7536497571	-1.9299212991	 1.2375817181	-0.075556
C	 0.7268783449	-0.5989052596	 1.2395562307	-0.134997
H	 0.8326871591	 1.7764478038	-0.0015958645	 0.280617
H	-1.9021975445	-0.2741394559	 0.9050173739	 0.10463
H	-1.9112019867	-0.2739923453	-0.8825271184	 0.104637
H	 0.0254004115	-3.595152923	 0.0012651024	 0.077533
H	 1.0930528187	-2.5570579258	-2.0515190233	 0.106121
H	 1.010285417	 0.052000168	-2.0585805403	 0.100756
H	 1.1136385569	-2.5573649295	 2.0433664922	 0.106125
H	 1.0308905487	 0.0516475934	 2.0517276477	 0.100746
231.8526	247.066	309.265	342.7345	413.5222	413.6417	475.8718	496.5312	562.5419	638.8617	686.6586	696.8706	718.0557	740.821	829.8658	896.1947	933.8269	949.9237	957.7281	970.2352	989.4146	1002.0664	1057.6923	1088.4189	1125.8007	1161.7766	1216.8597	1228.8844	1289.7613	1307.7988	1336.8283	1337.3594	1354.6411	1386.1675	1519.3691	1640.3017	1690.8575	3018.7243	3064.5023	3131.859	3187.574	3188.9246	3212.9199	3215.7304	3816.086
OC12COC(C=C1)C=C2	O[C@@]12CO[C@@H](C=C1)C=C2	
InChI=1S/C7H8O2/c8-7-3-1-6(2-4-7)9-5-7/h1-4,6,8H,5H2	InChI=1S/C7H8O2/c8-7-3-1-6(2-4-7)9-5-7/h1-4,6,8H,5H2/t6-,7-
