17
gdb 23450	3.76859	1.12069	0.92324	1.2503	82.22	-0.2088	-0.0323	0.1765	1258.8999	0.136015	-417.955343	-417.947248	-417.946304	-417.98778	31.091	
C	-0.036530963	 1.4789786106	-0.016817436	-0.419313
C	 0.0351977451	-0.0238860313	-0.0513731475	 0.018976
C	 0.6986978997	-0.7451834167	-1.1850882711	-0.13769
N	 1.374414812	-0.6472244197	 0.1314295744	-0.130248
C	 1.2854936032	-1.9652678984	 0.6644442197	-0.04265
C	 0.7729560115	-2.8778990056	-0.1793304277	-0.198452
C	 0.392066728	-2.1894766236	-1.4129694496	 0.40992
N	-0.0590006072	-2.6269581058	-2.5290820412	-0.267724
O	-0.2195235692	-4.0240513916	-2.4927091186	-0.393204
H	 0.8328252769	 1.9210816247	-0.5101678593	 0.132484
H	-0.9417416411	 1.8295932834	-0.5238159869	 0.128067
H	-0.0633619431	 1.8427482454	 1.0155708741	 0.128754
H	-0.782974461	-0.554287386	 0.4319539037	 0.102367
H	 1.1172546086	-0.1582192073	-1.9956734514	 0.112891
H	 1.6274839074	-2.1190604801	 1.6806224428	 0.122119
H	 0.6420539945	-3.9336050429	-0.000573394	 0.127354
H	-0.538165052	-4.2132535349	-3.3812201712	 0.306348
121.572	187.2119	195.1148	225.3828	278.8308	310.9176	395.8195	404.3136	448.846	512.5621	680.2741	723.312	773.5163	792.7502	830.856	844.0158	913.0058	940.9268	952.42	995.9179	1031.1031	1051.5466	1072.2949	1135.8931	1142.4115	1173.3085	1233.3977	1241.5932	1308.4082	1358.4957	1394.6422	1412.5782	1434.3493	1485.7675	1494.4014	1611.4029	1722.0614	3037.8467	3102.4466	3118.6152	3138.28	3172.796	3212.1062	3266.3881	3824.0245
CC1C2N1C=CC2=NO	C[C@H]1[C@H]2N1C=CC2=NO	
InChI=1S/C6H8N2O/c1-4-6-5(7-9)2-3-8(4)6/h2-4,6,9H,1H3	InChI=1S/C6H8N2O/c1-4-6-5(7-9)2-3-8(4)6/h2-4,6,9H,1H3/t4-,6+,8?/m0/s1
