18
gdb 70068	2.76825	1.62907	1.19504	4.0133	81.21	-0.2331	-0.034	0.199	1067.0142	0.148424	-401.959271	-401.951418	-401.950474	-401.99148	31.041	
C	-0.0310391291	 1.4120251876	-0.1403549676	-0.445221
C	-0.10229597	-0.0709542928	 0.1170786142	 0.41827
C	-0.7811479878	-0.6022016305	 1.3401582735	-0.336733
C	 0.7440747108	-0.7146534185	 1.1923485582	-0.15562
C	 1.3158933055	-2.0275454349	 0.8553792491	-0.068191
C	 0.9932794901	-2.6443299945	-0.2865744851	-0.171861
C	 0.1238654905	-2.0343954625	-1.3018929605	 0.365948
N	-0.2675006504	-2.5783524956	-2.3849702399	-0.503938
O	-0.2698197126	-0.7432285374	-1.1121694222	-0.274606
H	 0.8261273836	 1.6509275195	-0.7768161287	 0.132346
H	-0.9389835725	 1.7510417094	-0.6482827555	 0.138215
H	 0.0665535744	 1.9617639581	 0.7994287368	 0.116991
H	-1.1693411391	 0.1097938749	 2.0603891964	 0.121559
H	-1.3403141509	-1.5269732593	 1.2528271947	 0.131992
H	 1.3468390531	-0.0659446277	 1.8196900239	 0.099142
H	 2.0010745288	-2.490501845	 1.5598800122	 0.110038
H	 1.3857496307	-3.6255360793	-0.5297179183	 0.103684
H	 0.109474425	-3.5226226315	-2.448294941	 0.217984
83.1329	164.2986	220.0658	287.6636	321.6805	407.9773	410.4271	477.5431	523.4637	543.8628	659.8307	693.2589	784.9881	804.6249	812.1045	856.4885	876.9009	885.7962	934.0213	988.6395	1004.6552	1023.618	1050.2726	1088.8507	1106.3796	1121.396	1134.4665	1196.1615	1258.1434	1290.5814	1379.0192	1397.4345	1417.925	1442.0283	1474.3919	1478.9886	1503.5438	1666.7212	1715.1766	3042.992	3113.7694	3123.4527	3133.3198	3155.8204	3168.3872	3195.4285	3228.9276	3501.8703
CC12CC1C=CC(=N)O2	C[C@]12C[C@H]1[CH]C=C([NH])O2	
InChI=1S/C7H9NO/c1-7-4-5(7)2-3-6(8)9-7/h2-3,5,8H,4H2,1H3	InChI=1S/C7H9NO/c1-7-4-5(7)2-3-6(8)9-7/h2-3,5,8H,4H2,1H3/t5-,7+/m1/s1
