16
gdb 44234	4.03074	1.22244	1.13963	2.242	68.98	-0.2512	0.0187	0.2699	1073.4945	0.124741	-437.86322	-437.855917	-437.854973	-437.895217	28.282	
O	-0.0261106412	 0.050718928	-0.0918015249	-0.349947
C	-0.0016306147	 1.2458189318	 0.0096017568	 0.415315
N	-1.0068965713	 2.198359109	 0.086687575	-0.315898
C	-0.1076876455	 3.3537403033	 0.0275880179	-0.101123
C	 1.0890695835	 2.3393527681	 0.0407358721	-0.19155
C	 1.5045337348	 2.8065156631	-1.3907953319	-0.335713
C	 0.3107630041	 3.7737066079	-1.3930446157	 0.447598
C	-0.5040604477	 4.3129430643	-2.4809177016	-0.262759
O	 0.4406923987	 5.1301972503	-1.772975864	-0.26294
H	-1.9721752686	 2.1171511431	-0.2048942323	 0.248595
H	-0.2772708611	 4.136094956	 0.7678329108	 0.101698
H	 1.8455325767	 2.2949246809	 0.8199593411	 0.108207
H	 2.4509218986	 3.3521089605	-1.3985522016	 0.132358
H	 1.5321833256	 2.0300718266	-2.1581303238	 0.127012
H	-0.2417857585	 4.0858322431	-3.5132514157	 0.123929
H	-1.5522413933	 4.557127494	-2.3103621622	 0.115218
71.6961	174.6769	227.5092	325.8044	339.7404	445.2261	468.5252	502.5185	562.1025	701.4715	754.9315	789.2226	849.2491	864.675	884.3846	906.0526	954.1937	987.9719	1008.3531	1048.0276	1113.0409	1127.174	1136.0298	1142.1518	1160.5292	1183.9566	1225.223	1234.8157	1272.7443	1302.8142	1358.1251	1431.6016	1474.2334	1533.6487	1894.2541	3071.5974	3080.204	3115.4197	3126.5654	3156.1828	3167.5652	3580.9329
O=C1NC2C1CC21CO1	O=C1N[C@H]2[C@@H]1C[C@]12CO1	
InChI=1S/C6H7NO2/c8-5-3-1-6(2-9-6)4(3)7-5/h3-4H,1-2H2,(H,7,8)	InChI=1S/C6H7NO2/c8-5-3-1-6(2-9-6)4(3)7-5/h3-4H,1-2H2,(H,7,8)/t3-,4-,6+/m0/s1
