17
gdb 56958	2.301	1.2329	1.02887	2.6626	75.22	-0.2623	-0.0477	0.2146	1230.3663	0.132136	-421.776119	-421.766607	-421.765663	-421.810979	33.918	
C	 0.24956086	 1.265574077	 0.2367277529	-0.399548
C	-0.1844722206	-0.1941074229	-0.0152824863	-0.194871
C	-1.6384730018	-0.3387334396	-0.0315938134	 0.320883
C	-2.8345607918	-0.4513383651	-0.0727233801	-0.474526
C	 0.3929310008	-0.6833109091	-1.3357352836	 0.072805
O	 1.7788796722	-0.9606546774	-1.3634072993	-0.228526
C	 0.8968597492	-2.0659458705	-1.5573678335	-0.052066
C	 0.8307919073	-3.107025821	-0.4835040701	 0.148404
O	 1.2080275221	-2.9538250981	 0.6503625829	-0.246431
H	 1.3407806448	 1.3276572322	 0.2493615301	 0.138787
H	-0.1331227212	 1.9286471393	-0.5450262684	 0.124744
H	-0.1349400138	 1.6150404236	 1.1975868947	 0.132234
H	 0.2342308711	-0.8215713207	 0.7783286695	 0.147599
H	-3.8913408786	-0.5555411591	-0.0900769323	 0.200078
H	 0.0126849439	-0.1655292747	-2.2187695575	 0.112618
H	 0.8629874146	-2.4591427654	-2.5742498766	 0.109507
H	 0.3780614419	-4.0648406384	-0.822813849	 0.088308
47.321	114.2286	119.6572	186.4478	202.6964	229.9587	266.5519	269.0678	422.131	439.5557	505.9437	556.122	633.6814	651.0947	754.0844	789.7474	857.0248	886.29	936.4696	961.098	992.6605	1071.587	1087.5618	1104.1241	1147.3744	1176.4418	1271.437	1291.5576	1342.0676	1385.8271	1402.9392	1422.8305	1457.4852	1495.1286	1497.8991	1823.9139	2236.1414	2890.7636	3045.9308	3064.5713	3093.3286	3111.4453	3122.7583	3133.3348	3502.8981
CC(C#C)C1OC1C=O	C[C@@H](C#C)[C@H]1O[C@H]1C=O	
InChI=1S/C7H8O2/c1-3-5(2)7-6(4-8)9-7/h1,4-7H,2H3	InChI=1S/C7H8O2/c1-3-5(2)7-6(4-8)9-7/h1,4-7H,2H3/t5-,6-,7+/m0/s1
