22
gdb 8000	3.08943	1.58953	1.15887	0.3106	85.04	-0.2244	0.0337	0.2581	1133.7956	0.199929	-313.102562	-313.093549	-313.092605	-313.135703	34.209	
C	-0.1224533364	 1.5837849153	-0.0038476243	-0.394114
C	 0.0081249486	 0.0566396541	 0.0161793184	-0.005974
C	 0.8163555324	-0.5228664092	-1.1726526992	-0.226492
C	 1.5934229956	-1.7424523417	-0.6170719649	-0.060066
C	 2.965062168	-1.9453777122	-1.2715292288	-0.40086
C	 1.6218989527	-1.4642953416	 0.8805917953	 0.328227
C	 2.4724496935	-2.2605329539	 1.8212707528	-0.496418
C	 0.7611403034	-0.4972915275	 1.2046258709	-0.178011
H	 0.86475631	 2.058893888	 0.0147334248	 0.111976
H	-0.6437301517	 1.9235310804	-0.9054629325	 0.109548
H	-0.6859241686	 1.9470128635	 0.8625538767	 0.108637
H	-1.0102453712	-0.3643789887	 0.0117182313	 0.071782
H	 0.191049389	-0.7723913826	-2.0350155904	 0.089444
H	 1.5398980334	 0.2317577395	-1.5075369201	 0.092351
H	 1.0092524832	-2.6626485652	-0.7824271574	 0.071454
H	 3.6087883942	-1.073049249	-1.1099827634	 0.112699
H	 3.4812716858	-2.8242199388	-0.8715535812	 0.111077
H	 2.8615007477	-2.0878885168	-2.3524760085	 0.112041
H	 3.5399709753	-2.1515808786	 1.5940902731	 0.125666
H	 2.3158930172	-1.9545011441	 2.8592792218	 0.119916
H	 2.248825668	-3.3333064961	 1.747190608	 0.12097
H	 0.5717024099	-0.1562729447	 2.2187332976	 0.076146
78.7992	145.3896	185.463	223.4638	232.949	248.882	288.5738	338.6668	404.7311	440.0432	544.6295	584.9171	612.2974	763.9326	851.8305	863.3904	892.594	916.0712	951.5818	1005.2676	1009.6309	1034.7667	1059.4246	1073.1812	1120.8745	1122.0586	1164.3904	1192.641	1237.3609	1273.4607	1306.2819	1318.663	1336.1441	1352.7499	1373.5938	1405.0649	1407.8592	1411.3763	1477.9881	1486.3344	1488.6944	1496.9671	1498.6143	1499.7657	1501.9611	1718.8539	2962.9656	2966.0317	3013.8983	3022.252	3024.7953	3027.8777	3060.4176	3082.6178	3093.6426	3093.9366	3095.7279	3096.9968	3107.8793	3167.266
CC1CC(C)C(C)=C1	C[C@H]1C[C@@H](C)C(=C1)C	
InChI=1S/C8H14/c1-6-4-7(2)8(3)5-6/h4,6,8H,5H2,1-3H3	InChI=1S/C8H14/c1-6-4-7(2)8(3)5-6/h4,6,8H,5H2,1-3H3/t6-,8-/m1/s1
