21
gdb 119116	2.3412	1.14581	0.91051	2.8008	79.13	-0.2361	0.0286	0.2648	1386.9528	0.182339	-420.428476	-420.418459	-420.417515	-420.463817	36.981	
C	-0.3741108543	 1.793527402	 0.1204685857	-0.381399
C	-0.1566570192	 0.2924618265	-0.0849152432	-0.17075
C	-1.4108738712	-0.5335276294	 0.2351856441	-0.266019
C	-1.2291829616	-2.0231429608	 0.0207356498	 0.222606
C	-2.3809442241	-2.8383004314	-0.4687910774	-0.267767
N	-1.2302230794	-2.587283559	-1.3469887382	-0.368583
C	-0.2589069544	-2.6891351674	 0.9823913537	 0.366218
N	 0.3400789391	-3.8057368573	 0.4902131627	-0.533599
O	-0.0801130497	-2.2560922781	 2.1072911288	-0.38
H	 0.5335343537	 2.361428944	-0.1056227586	 0.11265
H	-1.1740181554	 2.1737515079	-0.5254003158	 0.108655
H	-0.6544527053	 2.0117616509	 1.1566304865	 0.121554
H	 0.1548308137	 0.1032858056	-1.12087851	 0.087366
H	 0.6623902553	-0.0519346188	 0.5556301307	 0.123572
H	-1.6890539517	-0.3750549589	 1.2821318311	 0.129522
H	-2.2519653508	-0.1867513725	-0.3801942438	 0.07971
H	-2.4913489716	-3.8688237853	-0.1448095383	 0.129043
H	-3.3133800298	-2.3158150864	-0.665792928	 0.119971
H	-1.4479277648	-1.8592301118	-2.0227327791	 0.236452
H	 0.2809290513	-3.9873298996	-0.4998092815	 0.273181
H	 1.0435078302	-4.2543967403	 1.0524779008	 0.257617
65.1569	78.2974	90.6075	153.7413	237.1614	250.464	288.0567	325.4111	348.2176	373.012	444.5809	513.2257	529.7458	652.1474	712.1254	739.3826	762.9169	838.1129	887.6134	896.9877	912.6715	968.1477	983.0194	1040.8704	1066.8253	1090.5244	1117.4544	1126.2456	1144.436	1245.9478	1255.3299	1280.2258	1309.4669	1332.2762	1355.322	1400.1758	1413.0082	1419.6441	1469.211	1491.9659	1500.396	1504.9397	1508.0225	1587.4127	1788.4346	3016.6946	3019.8594	3029.1285	3067.7306	3085.1741	3099.7985	3104.4008	3110.8337	3200.6688	3501.5351	3579.1461	3723.7972
CCCC1(CN1)C(N)=O	CCC[C@]1(CN1)C(=O)N	
InChI=1S/C6H12N2O/c1-2-3-6(4-8-6)5(7)9/h8H,2-4H2,1H3,(H2,7,9)	InChI=1S/C6H12N2O/c1-2-3-6(4-8-6)5(7)9/h8H,2-4H2,1H3,(H2,7,9)/t6-/m0/s1
