20
gdb 91560	2.70579	1.25688	1.02096	3.9551	82.75	-0.2667	0.0327	0.2993	1229.6753	0.171001	-366.007443	-365.998553	-365.997609	-366.041339	33.551	
C	-0.1617086585	 1.5359064927	-0.0879033651	-0.414908
C	 0.0741667691	 0.0305759478	-0.0895393026	-0.031448
C	 1.2674444835	-0.5661202924	-0.9168136268	-0.246104
C	 1.783724123	-1.2583130236	 0.350324073	-0.121297
C	 2.0743763277	-0.2288314724	 1.4087343216	-0.321171
C	 0.6487893557	-0.6453593887	 1.1724534755	 0.375487
C	-0.196654901	-1.2804266882	 2.253226836	-0.46043
C	-0.8658495111	-0.2860156667	 3.0984129459	 0.272109
N	-1.3913982563	 0.5129345503	 3.7473959468	-0.315722
H	 0.7442818561	 2.0871759873	 0.1834961442	 0.1169
H	-0.4730113623	 1.8799871538	-1.0802622576	 0.115044
H	-0.9449446794	 1.8114207889	 0.6255987319	 0.136667
H	-0.8511299685	-0.4808328881	-0.3779075352	 0.074441
H	 0.9380302226	-1.2550180197	-1.6972334889	 0.104863
H	 1.9539324702	 0.1624311384	-1.3613172197	 0.099882
H	 2.1940752929	-2.2600794998	 0.4023325079	 0.089375
H	 2.5175133193	-0.6116331486	 2.3231235821	 0.114201
H	 2.4246338247	 0.7624137228	 1.1332206501	 0.114307
H	-0.9671964245	-1.9256167016	 1.8123004484	 0.148297
H	 0.4200255569	-1.9200772322	 2.8954206827	 0.149506
53.5595	94.8133	178.0557	215.2662	243.6818	292.7924	344.254	392.7434	419.3608	467.4352	502.3187	665.8753	712.5884	807.5485	842.1643	875.4864	897.8739	924.0191	937.5066	951.5918	977.928	1031.7461	1032.8934	1080.3968	1094.221	1112.386	1137.8536	1183.6851	1185.2995	1238.8827	1252.8097	1270.4472	1312.6134	1329.3222	1368.0839	1399.6306	1416.9787	1457.1293	1483.5825	1494.2236	1496.9195	1507.7473	2358.8206	3028.9429	3032.1957	3037.1265	3045.6238	3070.0147	3098.4227	3105.2562	3109.726	3115.0904	3177.3913	3198.6353
CC1CC2CC12CC#N	C[C@H]1C[C@H]2C[C@@]12CC#N	
InChI=1S/C8H11N/c1-6-4-7-5-8(6,7)2-3-9/h6-7H,2,4-5H2,1H3	InChI=1S/C8H11N/c1-6-4-7-5-8(6,7)2-3-9/h6-7H,2,4-5H2,1H3/t6-,7-,8-/m0/s1
