16
gdb 8766	3.32076	1.31783	1.20275	3.5925	67.08	-0.2672	0.0031	0.2703	1051.982	0.129224	-379.957201	-379.948227	-379.947283	-379.991262	30.751	
C	-0.0496136894	 1.5869136295	-0.025779775	-0.391601
C	 0.0625728327	 0.0520241224	 0.0269087943	-0.139572
C	 0.7060232559	-0.458618834	-1.203333219	 0.286046
N	 1.2222228778	-0.8442782548	-2.1622367489	-0.315975
N	 0.7469437594	-0.4405347112	 1.2110002256	-0.030293
C	 2.1442628507	-0.0947559243	 1.4356343218	-0.361313
C	 0.1022898353	-1.2784232337	 2.0842202997	 0.162412
O	 0.5838332389	-1.7421863454	 3.0915138606	-0.327736
H	 0.9346805609	 2.0550812073	-0.0922479431	 0.147485
H	-0.6294403853	 1.8902075035	-0.9009450194	 0.147307
H	-0.5526103622	 1.9430220426	 0.8766052102	 0.139043
H	-0.950333182	-0.3668956122	 0.0524277661	 0.142417
H	 2.263075096	 0.9693795789	 1.6646478083	 0.13332
H	 2.4878003904	-0.6812997743	 2.2872724406	 0.177126
H	 2.7452065588	-0.3387667465	 0.5534924438	 0.150449
H	-0.9378526178	-1.4847151077	 1.7628631744	 0.080885
49.0596	103.4672	146.2814	195.7349	207.4759	243.6273	319.4783	325.9226	357.5996	413.933	509.0179	580.0744	703.7493	829.657	866.7925	988.5585	1024.7587	1078.376	1097.575	1117.2049	1161.422	1268.725	1307.6895	1317.6536	1409.1339	1427.9692	1442.971	1448.9807	1487.3424	1493.8131	1504.2564	1518.0632	1807.1991	2357.5746	2935.3324	3036.3536	3047.0554	3056.2603	3095.4435	3136.4514	3141.8184	3162.7616
CC(C#N)N(C)C=O	C[C@@H](C#N)N(C)C=O	
InChI=1S/C5H8N2O/c1-5(3-6)7(2)4-8/h4-5H,1-2H3	InChI=1S/C5H8N2O/c1-5(3-6)7(2)4-8/h4-5H,1-2H3/t5-/m0/s1
