16
gdb 35444	2.44768	1.41245	1.10031	4.2037	80.52	-0.2728	0.0086	0.2814	1124.9863	0.12407	-363.566415	-363.558319	-363.557374	-363.599157	30.79	
C	 0.0250537843	-1.2376245045	-0.0885950439	-0.453761
C	 0.0143630226	-0.0365488779	-0.0339721861	 0.332154
C	 0.0106184796	 1.4098741093	 0.0630845265	-0.255602
C	-0.2191671089	 2.0678452226	 1.4776838139	-0.242849
C	 1.1343444578	 2.7725725724	 1.3685101033	-0.098832
C	 2.2360349984	 1.7799534111	 1.1791803524	-0.325787
C	 1.3822136626	 2.135453126	-0.0162261099	 0.226564
C	 1.9116162115	 2.7197992778	-1.2022926285	 0.192937
N	 2.3219742772	 3.1983464642	-2.1736453175	-0.349185
H	 0.0306970473	-2.2977656121	-0.1534743324	 0.204805
H	-0.6819524648	 1.8374513236	-0.6658825175	 0.126744
H	-1.0705993945	 2.7493152152	 1.4672789217	 0.1237
H	-0.3242830778	 1.3708080357	 2.3120897765	 0.120693
H	 1.3334627628	 3.7980299837	 1.6514051405	 0.11902
H	 3.2401408789	 2.1881185825	 1.1548624339	 0.142659
H	 2.1589744529	 0.7766607705	 1.5893042171	 0.136739
89.9412	129.4257	163.9297	209.4383	299.1171	398.0991	456.72	485.1714	540.0948	567.5604	632.7153	642.8234	648.5011	714.4578	806.9148	847.5166	868.4824	947.2973	974.3335	1028.7971	1037.6104	1056.346	1084.8488	1096.5723	1155.3353	1197.2789	1209.8854	1264.5118	1280.0603	1340.0702	1385.4834	1480.2728	1498.7126	2235.2203	2343.5316	3074.9024	3080.3268	3125.1142	3134.973	3203.2802	3223.0106	3501.6887
C#CC1CC2CC12C#N	C#C[C@H]1C[C@H]2C[C@@]12C#N	
InChI=1S/C8H7N/c1-2-6-3-7-4-8(6,7)5-9/h1,6-7H,3-4H2	InChI=1S/C8H7N/c1-2-6-3-7-4-8(6,7)5-9/h1,6-7H,3-4H2/t6-,7-,8+/m0/s1
