17
gdb 90208	3.11558	1.77995	1.55733	2.2532	72.02	-0.2232	0.0374	0.2606	912.8007	0.13459	-421.648765	-421.641768	-421.640824	-421.679728	28.616	
C	-0.5050731285	 1.3709197291	-0.0691930152	-0.401987
C	 0.0699911408	-0.025095517	 0.0212393826	 0.048713
O	 1.2239286015	-0.2297343832	-0.8977947525	-0.334274
C	 2.0852782689	-0.3302471	 0.2301583482	 0.320152
C	 2.8349681283	 0.7709881793	 0.9996200025	-0.323405
C	 2.2178838023	-0.1233773927	 2.1029104244	-0.15033
C	 2.4196472498	-1.4617652483	 1.2600349244	 0.027929
O	 1.0616023935	-1.9135621248	 1.3834425303	-0.334498
C	 0.9431551259	-0.4506442889	 1.234559608	 0.218093
H	 0.2389061555	 2.1368973084	 0.1597897635	 0.129654
H	-0.8786850282	 1.5498629638	-1.0818450562	 0.137483
H	-1.3398190262	 1.4732524519	 0.631809552	 0.130119
H	-0.6866066873	-0.7901426037	-0.1740892368	 0.118953
H	 3.925521222	 0.7880029508	 0.930898629	 0.108241
H	 2.4289558105	 1.7817451387	 0.9264865801	 0.111948
H	 2.2986387772	-0.0285865821	 3.1870284769	 0.097198
H	 3.227445274	-2.1962565513	 1.3347936688	 0.096012
164.1274	215.0161	233.3233	358.0278	394.6545	436.3329	496.6406	519.9952	588.6064	719.4554	767.8554	786.2728	820.3669	856.3192	890.4804	898.5443	950.4115	960.2653	996.6604	1009.5761	1048.0873	1077.1153	1092.7947	1122.2465	1132.2627	1140.0107	1154.7902	1205.2371	1239.7996	1248.5647	1263.6223	1307.3976	1352.7542	1407.5047	1480.7063	1491.2358	1516.4421	3044.6632	3064.0085	3067.4398	3076.1039	3109.0399	3115.1963	3123.0469	3135.133
CC1OC23CC4C2OC134	C[C@H]1O[C@]23C[C@@H]4[C@H]2O[C@]134	
InChI=1S/C7H8O2/c1-3-7-4-2-6(7,8-3)5(4)9-7/h3-5H,2H2,1H3	InChI=1S/C7H8O2/c1-3-7-4-2-6(7,8-3)5(4)9-7/h3-5H,2H2,1H3/t3-,4-,5-,6-,7+/m1/s1
