17
gdb 48475	2.23306	1.54088	1.18955	2.6239	75.3	-0.2391	-0.0469	0.1921	1090.7688	0.13421	-421.853785	-421.84504	-421.844096	-421.888382	30.985	
O	-0.1739280652	 0.2393827922	-0.9187997989	-0.258882
C	 0.0595900833	 1.0279811401	-0.0394474537	 0.101163
C	 1.2883886346	 1.9348094702	-0.0298246905	 0.088394
C	 1.3848609507	 2.8954987247	 1.1751501145	-0.298663
C	 2.8359984588	 2.7738073439	 1.7137696622	-0.260226
C	 3.3720218568	 1.5454095828	 1.0252429009	-0.058558
C	 2.5519362467	 1.0809543688	 0.086058002	-0.115362
C	 1.3505655364	 2.6537440748	-1.3887444843	 0.135509
O	 1.5369593207	 3.8335613759	-1.5177249594	-0.245592
H	-0.6162431023	 1.1402435143	 0.8381180953	 0.091455
H	 1.1391982246	 3.9153265811	 0.8754874397	 0.134296
H	 0.6674667696	 2.5884018592	 1.9437218473	 0.1039
H	 3.4399130002	 3.6534399577	 1.4575337587	 0.127115
H	 2.8690476091	 2.6873583092	 2.805564605	 0.113172
H	 4.3359465826	 1.1107907064	 1.2666194127	 0.108618
H	 2.7089110266	 0.2240863514	-0.5571031996	 0.121552
H	 1.2243391668	 1.9751707272	-2.2562277219	 0.112109
46.1624	64.349	103.0569	195.1375	224.6401	282.2762	305.4697	432.7261	449.8873	595.5776	683.2699	737.2166	776.7655	798.3725	830.0387	902.2418	936.2743	972.558	975.286	1002.4243	1017.1431	1102.5373	1109.8119	1125.663	1191.9149	1207.786	1265.423	1309.6985	1316.583	1364.3334	1402.5584	1409.3018	1473.1793	1493.2549	1677.1178	1803.5972	1834.2663	2875.5025	2936.4906	3030.1105	3046.7538	3064.9447	3124.0217	3191.5523	3223.8951
O=CC1(CCC=C1)C=O	O=CC1(CCC=C1)C=O	
InChI=1S/C7H8O2/c8-5-7(6-9)3-1-2-4-7/h1,3,5-6H,2,4H2	InChI=1S/C7H8O2/c8-5-7(6-9)3-1-2-4-7/h1,3,5-6H,2,4H2
