14
gdb 16271	3.54952	1.87482	1.39322	2.9174	64.09	-0.2478	-0.0423	0.2055	862.2983	0.106128	-382.541961	-382.534863	-382.533919	-382.573513	25.885	
O	-0.9611936716	 1.2379750396	-0.1955042735	-0.269909
C	 0.1534563637	 0.8848048467	 0.1152107668	 0.05729
C	 1.3443806475	 1.7516533445	 0.0350541122	 0.111671
C	 1.1990087247	 3.2808811265	 0.0184587526	-0.310056
C	 1.8026973196	 2.6750477089	-1.1737900125	-0.076337
C	 3.2743156659	 2.3172589999	-0.9169588548	-0.357232
C	 2.7823203345	 1.3624549466	 0.2039042267	 0.345538
O	 3.3171588756	 0.4855609333	 0.8213489116	-0.305585
H	 0.360211727	-0.1459114026	 0.470032687	 0.102065
H	 0.1570021002	 3.575323523	-0.0549752001	 0.161007
H	 1.8040313614	 3.8625787628	 0.7080292753	 0.133745
H	 1.3116560426	 2.6581821802	-2.1372870974	 0.133413
H	 3.7519115277	 1.7461567194	-1.7172111066	 0.142855
H	 3.9264025512	 3.1456734811	-0.6258930273	 0.131536
103.965	136.6916	184.1478	245.0743	365.3062	412.3499	546.0068	598.3634	626.7753	705.1671	759.5906	851.9056	889.4702	939.747	979.3774	998.1184	1029.6193	1054.2557	1080.1459	1101.2242	1153.7517	1211.1329	1259.7718	1285.168	1362.1666	1426.4257	1453.8582	1488.3221	1792.9539	1876.0528	2923.1519	3062.6198	3120.4301	3122.8288	3215.1525	3223.6025
O=CC12CC1CC2=O	O=C[C@]12C[C@H]1CC2=O	
InChI=1S/C6H6O2/c7-3-6-2-4(6)1-5(6)8/h3-4H,1-2H2	InChI=1S/C6H6O2/c7-3-6-2-4(6)1-5(6)8/h3-4H,1-2H2/t4-,6-/m1/s1
