16
gdb 42692	3.01122	1.97023	1.71662	3.0645	70.48	-0.2423	-0.0244	0.2179	837.8137	0.127916	-400.751448	-400.745581	-400.744637	-400.781529	24.765	
O	 0.0102121433	 0.0005625447	-0.0494081709	-0.339849
C	-0.0177640698	 1.2057047988	-0.0074570642	 0.457626
C	-1.2276353536	 2.088331515	-0.0222119862	-0.205169
C	-1.2165187898	 3.2383324975	 0.9941420166	-0.072736
C	-0.0209424855	 3.3323339825	 1.9246529961	-0.261854
C	 1.1574036446	 3.2418344212	 0.9717012507	-0.032906
C	 1.172335678	 2.1257356927	-0.0288790468	-0.18222
N	 0.740893008	 3.4889692948	-0.4232781842	-0.122992
C	-0.7457989244	 3.4702224828	-0.4072445305	-0.029165
H	-2.1767675429	 1.6732222012	-0.3344288911	 0.112976
H	-2.1854363642	 3.590923048	 1.3270736924	 0.105266
H	-0.0171067673	 4.3045692825	 2.4296209954	 0.118762
H	-0.0026020327	 2.5557875958	 2.696020549	 0.126125
H	 2.1091152543	 3.6727740652	 1.2680158942	 0.105653
H	 2.1077392405	 1.7496060281	-0.4281821159	 0.112514
H	-1.2374426985	 4.1032915895	-1.1334413445	 0.10797
143.2183	362.3656	381.0253	457.5794	580.6957	631.6146	680.2138	705.1471	741.2209	783.8735	803.1004	828.8949	859.8617	877.5113	910.7685	957.7448	990.8706	1008.3954	1024.3328	1050.4673	1077.4245	1088.7499	1102.8551	1118.0323	1186.406	1201.6034	1218.328	1279.4885	1300.1319	1315.297	1325.7346	1374.2032	1390.2193	1489.107	1835.591	3046.4112	3086.8388	3155.3074	3179.6777	3184.442	3202.609	3211.3573
O=C1C2C3CC4C1N4C23	O=C1[C@H]2[C@H]3C[C@H]4[C@@H]1N4[C@@H]23	
InChI=1S/C7H7NO/c9-7-4-2-1-3-6(7)8(3)5(2)4/h2-6H,1H2	InChI=1S/C7H7NO/c9-7-4-2-1-3-6(7)8(3)5(2)4/h2-6H,1H2/t2-,3+,4+,5-,6+,8?/m1/s1
