18
gdb 40376	4.09541	1.24444	1.14199	3.33	74.89	-0.2187	0.0591	0.2778	1113.9053	0.147168	-401.826322	-401.818783	-401.817839	-401.858711	29.94	
C	-0.1259093869	 1.5120116081	-0.1059437024	-0.259194
C	 1.2669155413	 0.9417950469	-0.082582542	-0.263064
C	 0.0674504533	 0.0283277327	 0.0637916513	-0.131873
C	-0.205962222	-0.6189518553	 1.361631209	 0.456706
O	-1.5342035343	-0.6538897799	 1.8986575585	-0.261439
C	-0.4886679447	-0.1273357567	 2.7140156032	-0.074248
C	 0.3254032784	-1.3188109777	 3.3368621085	-0.094043
N	-0.3023165009	-2.582308009	 2.8819262368	-0.310329
C	 0.6008984121	-1.8318288029	 1.9781672159	-0.154958
H	-0.459844481	 2.0775033612	 0.7564920246	 0.119244
H	-0.5265789916	 1.8622280366	-1.0500824415	 0.117604
H	 1.8274623122	 0.9001512374	-1.0096365054	 0.114877
H	 1.8720424911	 1.1226566495	 0.7990268899	 0.114235
H	-0.1672485687	-0.5923308284	-0.7976534337	 0.096175
H	-0.6076896837	 0.8712363628	 3.1188455308	 0.105407
H	 0.9638503823	-1.2685306281	 4.2085838754	 0.097308
H	 0.25681342	-3.3377449445	 3.2811941944	 0.230356
H	 1.5021076133	-2.2646339327	 1.5644874966	 0.097234
58.2974	141.0675	168.0305	305.8153	390.8985	433.8717	506.6592	572.6131	664.1439	754.6178	780.5296	792.6923	805.6639	819.7448	841.0127	887.9737	897.8865	917.0398	932.2902	940.5682	990.3549	1015.3924	1060.3985	1068.6022	1080.6515	1095.4884	1105.9885	1129.3806	1137.0377	1196.1812	1210.4792	1222.5132	1277.9556	1291.7021	1341.7849	1388.0968	1468.6993	1489.8623	1506.391	3133.2459	3136.1548	3144.0166	3179.8327	3198.6785	3211.8281	3216.3189	3231.5868	3459.2085
C1CC1C12OC1C1NC21	C1CC1[C@]12O[C@H]1[C@H]1N[C@@H]21	
InChI=1S/C7H9NO/c1-2-3(1)7-5-4(8-5)6(7)9-7/h3-6,8H,1-2H2	InChI=1S/C7H9NO/c1-2-3(1)7-5-4(8-5)6(7)9-7/h3-6,8H,1-2H2/t4-,5+,6-,7+/m0/s1
