21
gdb 89636	4.19632	1.02399	0.95801	1.8137	83.18	-0.236	0.0862	0.3222	1332.6077	0.181938	-387.045974	-387.037281	-387.036337	-387.079481	33.681	
C	-0.0311049096	 1.6187048493	 0.1787053126	-0.403098
C	 0.028109627	 0.1092747552	-0.0059522542	 0.011377
C	 1.0978531085	-0.4820843615	-1.0012616421	-0.331257
C	 1.685115228	-1.2873804226	 0.1738636251	 0.457352
O	 2.077374767	-0.3112979181	 1.160449746	-0.300421
C	 0.6999408844	-0.7127102957	 1.1087388632	-0.070368
C	 2.4104765713	-2.5756986307	 0.1612829555	-0.10945
C	 2.1460141845	-3.6117961955	-0.9058921395	-0.277669
C	 3.4487994192	-2.8579883515	-0.9019510184	-0.265141
H	 0.9519441439	 2.000613641	 0.4677453212	 0.133661
H	-0.3357967763	 2.1187444585	-0.7468303066	 0.111858
H	-0.7491722115	 1.8949802086	 0.9588590141	 0.111546
H	-0.9617909139	-0.2976244821	-0.2370581069	 0.073814
H	 0.647760744	-1.0935081048	-1.7867941066	 0.104072
H	 1.7902776189	 0.2362944169	-1.4480018855	 0.105304
H	 0.2689743311	-1.1081306634	 2.0230533138	 0.092019
H	 2.627417072	-2.9491301294	 1.1572778138	 0.091127
H	 2.1473581792	-4.6532519335	-0.6046800637	 0.115557
H	 1.426044801	-3.3767912688	-1.6821288468	 0.114515
H	 3.5985344537	-2.1059831883	-1.6691281964	 0.118704
H	 4.3523132177	-3.3782436836	-0.6052161185	 0.1165
65.6043	111.931	149.4082	225.0303	239.4976	289.1798	383.6081	419.5477	462.3925	562.2629	621.7201	707.2609	782.3385	793.8837	828.2701	862.8636	889.9625	900.8793	914.3806	941.4068	952.5531	1010.824	1022.9103	1058.6902	1063.5025	1080.0119	1107.2895	1111.3086	1133.3274	1186.8386	1199.339	1215.3174	1222.2562	1223.3077	1257.1962	1299.6223	1346.3932	1361.4928	1403.7379	1464.0227	1469.4446	1487.4386	1493.4295	1504.5116	1515.954	3031.4853	3053.0759	3062.1412	3093.2793	3116.9123	3120.5951	3135.2706	3139.1219	3157.0558	3168.2041	3213.5728	3228.6879
CC1CC2(OC12)C1CC1	C[C@H]1C[C@]2(O[C@@H]12)C1CC1	
InChI=1S/C8H12O/c1-5-4-8(6-2-3-6)7(5)9-8/h5-7H,2-4H2,1H3	InChI=1S/C8H12O/c1-5-4-8(6-2-3-6)7(5)9-8/h5-7H,2-4H2,1H3/t5-,7-,8-/m0/s1
