16
gdb 97616	2.45755	0.79379	0.62453	4.0396	80.6	-0.2694	-0.0571	0.2124	1753.0111	0.121165	-400.738754	-400.728522	-400.727578	-400.777213	33.813	
C	 0.0551064106	 1.5296747292	 0.0556021748	-0.368908
C	-0.0331262014	-0.002221523	-0.0772653305	-0.318856
C	-1.4042452035	-0.4976045459	-0.0359031005	 0.113358
C	-2.5510614162	-0.8625664673	-0.0011890165	 0.048486
C	-3.9092879303	-1.3975324254	 0.0369521125	-0.381458
C	-3.8188093667	-2.952949589	 0.0619546483	 0.181289
O	-4.2368173413	-3.6393316819	-0.8223919582	-0.21812
C	-4.656655594	-0.9423709984	 1.216907406	 0.283477
N	-5.2538902202	-0.6260541319	 2.1537191717	-0.307431
H	 1.1001248029	 1.8498430009	 0.0223991428	 0.123396
H	-0.4833558905	 2.0223676671	-0.7580205483	 0.13417
H	-0.3794061523	 1.8635986096	 1.0012158378	 0.137684
H	 0.4346242991	-0.3215901265	-1.0168036531	 0.140606
H	 0.5427237492	-0.477839499	 0.7263009233	 0.140778
H	-4.4718503335	-1.1326577528	-0.865810755	 0.17046
H	-3.3061738219	-3.3520312958	 0.9591108551	 0.121067
8.6584	54.2417	78.2597	101.9107	168.8604	192.659	209.539	287.2535	389.3659	419.803	444.5025	490.8492	517.3509	572.3712	778.4354	786.1973	928.1184	959.9041	991.8491	1040.6258	1080.2385	1105.2181	1167.2153	1214.0332	1285.0375	1306.5834	1347.9095	1402.9682	1410.9561	1472.8854	1495.2955	1504.9701	1850.6223	2360.3202	2368.188	2946.9506	3028.4586	3049.6931	3053.309	3058.2965	3125.1157	3130.0797
CCC#CC(C=O)C#N	CCC#C[C@@H](C=O)C#N	
InChI=1S/C7H7NO/c1-2-3-4-7(5-8)6-9/h6-7H,2H2,1H3	InChI=1S/C7H7NO/c1-2-3-4-7(5-8)6-9/h6-7H,2H2,1H3/t7-/m1/s1
