21
gdb 81848	2.70948	1.40868	1.06405	1.4932	84.72	-0.2232	0.017	0.2402	1209.6889	0.181785	-387.097351	-387.088134	-387.08719	-387.1306	35.764	
C	 0.0075400207	 1.5174769497	 0.0812740437	-0.485066
C	-0.0399661838	 0.026829447	-0.0068464244	 0.273409
C	-0.081397423	-0.7460128428	-1.0955710855	-0.258863
C	-0.0393315335	-2.2112870751	-0.7724374104	 0.337528
C	-0.8548658712	-3.1867715525	-1.5872584799	-0.484877
C	 1.26763332	-2.6316732905	-0.1248724017	-0.337108
C	 0.0758757298	-2.2551286793	 0.735376689	-0.114458
C	-0.0059170811	-0.8246651607	 1.2635244907	 0.029583
O	 1.0277557581	-0.4516358728	 2.1707772999	-0.431499
H	 0.877707347	 1.839863335	 0.6640642969	 0.133635
H	 0.0521100477	 1.9844141539	-0.9061844318	 0.117578
H	-0.8740823112	 1.9084589958	 0.6063259104	 0.124285
H	-0.1078293554	-0.3834543002	-2.1192264568	 0.086201
H	-0.5220680738	-3.2041551548	-2.6318438277	 0.117532
H	-0.7621894128	-4.2040798258	-1.1946347766	 0.115284
H	-1.9173089905	-2.9187702776	-1.5817063993	 0.119906
H	 1.5297093046	-3.6854119103	-0.1435022819	 0.108926
H	 2.1160028415	-1.958335898	-0.2067908717	 0.099952
H	-0.3920120216	-3.0475088338	 1.3079159232	 0.084357
H	-0.9279049645	-0.6813041783	 1.8431557762	 0.087025
H	 1.8623659628	-0.7328587887	 1.7787396377	 0.276674
125.7262	159.2874	175.7522	207.999	234.7619	248.4317	304.5774	314.1229	384.3417	445.8019	496.6965	553.9931	578.813	662.508	743.5527	826.4503	847.4914	883.1427	894.4719	944.4093	976.5478	981.7032	1016.276	1056.5872	1058.7813	1066.5214	1091.0752	1103.7355	1112.0427	1172.7145	1252.7402	1258.5348	1279.7604	1327.3288	1332.0973	1395.1255	1406.7928	1417.2195	1424.2576	1472.911	1480.9253	1488.2149	1491.8947	1501.119	1715.586	3015.6566	3019.7804	3023.8251	3071.8285	3083.1048	3100.5604	3112.1836	3114.2542	3169.8395	3175.7403	3199.2562	3795.7123
CC1=CC2(C)CC2C1O	CC1=C[C@@]2(C)C[C@H]2[C@H]1O	
InChI=1S/C8H12O/c1-5-3-8(2)4-6(8)7(5)9/h3,6-7,9H,4H2,1-2H3	InChI=1S/C8H12O/c1-5-3-8(2)4-6(8)7(5)9/h3,6-7,9H,4H2,1-2H3/t6-,7-,8-/m0/s1
