20
gdb 98563	4.06026	0.93064	0.77366	4.2749	86.64	-0.1993	-0.0216	0.1777	1493.2343	0.171314	-403.187728	-403.178356	-403.177412	-403.222636	33.896	
C	-0.0994963579	 1.5618103895	-0.0209404596	-0.376698
C	 0.0098028176	 0.0410630204	 0.0438022002	-0.284051
C	 0.7477910593	-0.4589115433	 1.2853997809	 0.26377
O	 1.1753001429	 0.3254273344	 2.1216959854	-0.359477
C	 0.9033833078	-1.9037512842	 1.420726563	 0.181646
C	 1.5661005684	-2.4929573637	 2.4435433208	-0.057837
N	 1.6561473843	-3.8553384291	 2.3232599948	-0.284603
C	 0.7111103663	-4.292219469	 1.2791741135	-0.165841
C	 0.4697127672	-2.9995721356	 0.4537147981	-0.335501
H	 0.8915553447	 2.0226065439	-0.0238277323	 0.128023
H	-0.6332746281	 1.876507328	-0.9225802694	 0.099072
H	-0.6299888708	 1.9501848547	 0.8520590909	 0.128135
H	-0.9855426514	-0.4254088256	 0.0260479464	 0.111228
H	 0.5237846871	-0.3559226424	-0.8433422626	 0.11157
H	 2.0362880459	-1.9816213864	 3.273189388	 0.14343
H	 1.7573320022	-4.4182376159	 3.1539396664	 0.247705
H	 1.1308209316	-5.1097630531	 0.6876300008	 0.115895
H	-0.225170044	-4.6452818092	 1.7339340515	 0.108294
H	-0.5711964691	-2.9219834395	 0.126840361	 0.112004
H	 1.0881214259	-2.998630564	-0.4542868578	 0.113235
56.0939	79.6939	130.4212	142.2117	180.7448	243.0605	284.5091	357.4718	460.3375	483.2297	516.7696	580.1117	683.5983	744.9416	810.4143	852.7599	872.8505	945.5158	960.7683	976.2701	1002.5961	1026.6788	1066.3516	1088.2216	1098.6305	1147.9697	1195.839	1226.7883	1273.7744	1278.7499	1306.2638	1323.6195	1339.8308	1391.2489	1409.7827	1453.9627	1470.2422	1488.5746	1495.8726	1496.6506	1522.777	1635.8165	1736.6583	3000.625	3007.2435	3009.3652	3034.0034	3048.4022	3073.4267	3089.4002	3118.1971	3126.1371	3235.3264	3617.4674
CCC(=O)C1=CNCC1	CCC(=O)C1=CNCC1	
InChI=1S/C7H11NO/c1-2-7(9)6-3-4-8-5-6/h5,8H,2-4H2,1H3	InChI=1S/C7H11NO/c1-2-7(9)6-3-4-8-5-6/h5,8H,2-4H2,1H3
