17
gdb 80774	3.47566	1.06595	0.94532	4.2613	69.94	-0.2602	0.0005	0.2607	1244.7695	0.135051	-458.947129	-458.93871	-458.937766	-458.981118	30.783	
O	 0.010255286	 1.4288493626	 0.1679999993	-0.435782
C	-0.0865053474	 0.0395430708	 0.0800422109	 0.134871
C	-0.4355623872	-0.8127781686	 1.2596353027	-0.097991
C	-1.4576177927	-0.0661539	 2.1251657304	-0.268271
C	-2.4278124856	-0.0584044866	 0.9077907358	 0.107994
O	-2.8619231905	 1.2322287154	 0.4397042532	-0.204203
C	-4.1735221236	 1.5384222881	 0.4842108977	 0.167658
O	-4.604305796	 2.5925748349	 0.1283756947	-0.270811
C	-1.3823929945	-0.7157821839	 0.0264018901	-0.155161
H	-0.8328553397	 1.8136015101	-0.0959231765	 0.304439
H	 0.6803450077	-0.3895047765	-0.5626307183	 0.103111
H	 0.1636022428	-1.6552090858	 1.5797735248	 0.099176
H	-1.8484165323	-0.6382568331	 2.9678317271	 0.110921
H	-1.134056135	 0.9207444752	 2.4619595903	 0.129102
H	-3.3046013447	-0.6919012682	 1.0724167345	 0.099809
H	-4.7903300148	 0.7073234706	 0.8784007149	 0.080523
H	-1.6012414125	-1.4350634552	-0.7538688715	 0.094613
40.4945	101.8567	146.504	215.2625	277.035	299.5412	367.7585	388.0069	479.5709	587.4233	686.2066	753.0292	759.1068	818.278	887.2368	937.1493	977.7563	989.2464	1013.5835	1035.2505	1044.6523	1059.6197	1079.5853	1112.4493	1156.8417	1190.8591	1205.3576	1243.0781	1263.768	1307.4884	1341.3798	1372.6288	1377.426	1432.6267	1442.1142	1480.1427	1867.8362	2948.9295	3060.412	3078.3807	3127.267	3136.2948	3180.1509	3202.7282	3808.4416
OC1C2CC(OC=O)C12	O[C@H]1[C@H]2C[C@@H](OC=O)[C@@H]12	
InChI=1S/C6H8O3/c7-2-9-4-1-3-5(4)6(3)8/h2-6,8H,1H2	InChI=1S/C6H8O3/c7-2-9-4-1-3-5(4)6(3)8/h2-6,8H,1H2/t3-,4+,5-,6-/m0/s1
