13
gdb 18948	6.81525	1.51544	1.46054	3.0874	61.7	-0.2567	0.0196	0.2763	825.222	0.09607	-361.373817	-361.367942	-361.366998	-361.40391	22.616	
N	-0.0718249136	-1.2275188763	-0.0927679171	-0.324474
C	-0.0687294143	-0.0714203219	-0.0681946945	 0.269284
C	-0.0542071675	 1.382461594	-0.0274089187	-0.202753
C	-0.0229591043	 2.0638561729	 1.3676131378	-0.086466
C	 1.5154964946	 1.8442293867	 1.5230499171	 0.094156
O	 1.799079887	 3.2400428699	 1.8270990797	-0.317631
C	 0.762087519	 3.2916316335	 0.8093373008	 0.076121
C	 1.3284879027	 2.0889624562	-0.0080857848	-0.086456
H	-0.7821524209	 1.7883393053	-0.735117563	 0.125851
H	-0.779131074	 2.0537512228	 2.150284832	 0.108623
H	 2.0633139606	 1.0638528527	 2.0469686268	 0.123295
H	 0.397991062	 4.2598767025	 0.4693300549	 0.111824
H	 2.0975131288	 2.1071918317	-0.7779827309	 0.108626
127.8082	171.0859	375.6786	492.5879	525.2945	587.8155	756.7827	783.0528	799.7322	841.0352	853.8928	901.9442	908.2522	941.2766	977.4262	1024.5976	1036.2439	1088.514	1127.8091	1144.1731	1162.1416	1168.9829	1182.7673	1217.3693	1270.3451	1327.076	1366.165	2353.5987	3078.3549	3132.2971	3143.2213	3144.6192	3158.1195
N#CC1C2C3OC2C13	N#C[C@H]1[C@H]2[C@@H]3O[C@H]2[C@H]13	
InChI=1S/C6H5NO/c7-1-2-3-5-4(2)6(3)8-5/h2-6H	InChI=1S/C6H5NO/c7-1-2-3-5-4(2)6(3)8-5/h2-6H/t2-,3-,4+,5-,6+
