17
gdb 43789	2.48999	1.67826	1.18195	3.3556	75.56	-0.2325	0.0095	0.242	1062.1837	0.13531	-417.950434	-417.942404	-417.94146	-417.982826	31.1	
N	-0.0440785486	 1.0833048542	-0.6896258247	-0.542514
C	-0.0168379895	-0.0237893045	-0.086114904	 0.334405
N	 0.9395767823	-0.8011627269	 0.5968462502	-0.448969
C	 0.0415238052	-1.9541533407	 0.7253115499	 0.336412
C	 0.3192110012	-3.3738944879	 0.3537784888	-0.319363
C	 0.0459423043	-2.9859302048	 1.8011801167	-0.329777
C	-1.0775805169	-1.0746594425	 0.1868431532	 0.284238
C	-2.4890490784	-0.9386276929	 0.5388245093	-0.262602
O	-2.0678347296	-1.4928991197	-0.7188987681	-0.262845
H	 0.8754993174	 1.5272378464	-0.7181962595	 0.214731
H	 1.9102878084	-0.867057454	 0.3213549893	 0.24083
H	-0.4512748957	-3.902097734	-0.1982529398	 0.135929
H	 1.3353092556	-3.6482291931	 0.0884670807	 0.116851
H	 0.8839775642	-2.9913991378	 2.4904169253	 0.121851
H	-0.9010686067	-3.2749642836	 2.2457951577	 0.121411
H	-2.9415429017	-1.6460218588	 1.2319232903	 0.119683
H	-2.9562763915	 0.0421685306	 0.4798862646	 0.13973
101.3975	176.5734	193.2925	231.7518	257.8479	323.9194	418.2107	497.9851	530.0059	567.8126	622.7864	700.1986	762.8925	804.9282	846.2129	877.9669	890.822	924.0081	953.2513	985.7985	1015.8599	1038.1076	1056.1697	1072.6471	1110.6039	1123.797	1163.6892	1184.9693	1210.9417	1263.1622	1308.8719	1403.5666	1454.5688	1460.3069	1505.714	1540.7777	1806.2109	3089.8076	3126.1877	3128.7927	3185.2383	3207.0245	3221.5313	3461.9911	3586.0613
N=C1NC2(CC2)C11CO1	[NH][C]1NC2(CC2)[C@]21CO2	
InChI=1S/C6H8N2O/c7-4-6(3-9-6)5(8-4)1-2-5/h1-3H2,(H2,7,8)	InChI=1S/C6H8N2O/c7-4-6(3-9-6)5(8-4)1-2-5/h1-3H2,(H2,7,8)/t6-/m1/s1
