21
gdb 94349	2.63901	1.11428	0.97831	3.4819	85.09	-0.2421	-0.0151	0.2271	1317.9607	0.181243	-387.084271	-387.075062	-387.074118	-387.118447	34.644	
C	-0.6130251122	 1.2166479762	 0.0274557254	-0.417956
C	 0.1439133729	-0.092490365	-0.1383223935	-0.029977
C	 1.5575000678	-0.0406583759	-0.7954949418	-0.228979
C	 2.0863796454	-1.0322093909	 0.2796916185	-0.297568
C	 0.8132950347	-0.7552298779	 1.0884103388	 0.340218
C	 0.7659557257	-0.280059167	 2.4934706233	-0.359092
C	 0.2211124074	-1.668265877	 2.1531928603	-0.169374
C	-1.2380302587	-1.8819830481	 2.2038419588	 0.16478
O	-1.7753566272	-2.9302051256	 2.4693917703	-0.27548
H	-0.0115246833	 1.9542707227	 0.5695787698	 0.117021
H	-0.8616258668	 1.6422271453	-0.9508225302	 0.120239
H	-1.552848892	 1.0815185699	 0.5741395021	 0.120065
H	-0.4848027788	-0.8219390282	-0.6620118998	 0.082811
H	 1.6289081804	-0.3553330493	-1.8386138065	 0.102497
H	 2.0097292178	 0.9505882826	-0.6973690991	 0.103897
H	 2.1324163369	-2.0622167833	-0.0861572316	 0.111202
H	 3.0377975678	-0.7885762573	 0.7595122255	 0.103945
H	 1.6829232919	-0.2448031525	 3.0723995574	 0.124255
H	 0.0365290223	 0.4801922697	 2.7589432146	 0.122756
H	 0.8122376903	-2.5320765114	 2.4412070843	 0.102305
H	-1.8422799322	-0.9725556669	 1.9722357836	 0.062437
72.8973	94.0352	139.5124	198.9347	235.9167	247.8713	326.4501	368.9072	390.7341	443.7745	510.3257	573.0755	690.8065	782.5099	851.2702	872.9411	888.9873	894.4318	920.3742	951.9745	957.6879	1031.1316	1049.0895	1069.3875	1074.9691	1096.4681	1143.6196	1170.324	1181.894	1191.929	1214.0194	1257.2793	1270.7029	1286.0608	1303.8844	1369.609	1383.9834	1410.093	1444.3529	1477.7786	1484.166	1495.3137	1497.367	1500.7584	1813.3924	2845.5611	3027.1158	3035.0109	3052.4842	3058.9259	3093.375	3098.3684	3099.9874	3119.1518	3121.2376	3165.7963	3208.4378
CC1CCC11CC1C=O	C[C@H]1CC[C@]21C[C@H]2C=O	
InChI=1S/C8H12O/c1-6-2-3-8(6)4-7(8)5-9/h5-7H,2-4H2,1H3	InChI=1S/C8H12O/c1-6-2-3-8(6)4-7(8)5-9/h5-7H,2-4H2,1H3/t6-,7-,8+/m0/s1
