14
gdb 25100	3.21406	1.43439	1.05889	4.1556	76.39	-0.2379	-0.0792	0.1587	1068.1205	0.103308	-432.896569	-432.889278	-432.888333	-432.928792	27.408	
N	 0.0523227787	 1.3476026858	-0.1520060779	-0.505812
C	 0.0279151684	 0.0917024129	 0.0850225679	 0.332726
N	-1.1959445585	-0.4762166299	 0.4104932808	-0.330897
C	-1.5039511497	-1.7294431969	 0.8772000157	 0.036772
C	-0.6789511773	-2.7093687268	 1.2913634779	-0.208194
C	 0.7771656486	-2.6043743699	 1.4402195039	 0.341195
O	 1.379335708	-3.1537829378	 2.3348579833	-0.312247
N	 1.5213844518	-1.9064056436	 0.4492863632	-0.222049
C	 1.2108563119	-0.804521658	-0.0916534746	-0.031047
H	 0.9811899751	 1.6443019043	-0.4473822641	 0.234068
H	-1.9547958872	 0.1863411132	 0.3287136812	 0.270353
H	-2.5759877018	-1.8867285126	 0.9400058095	 0.135429
H	-1.1242477613	-3.6035998248	 1.7098423376	 0.125689
H	 1.9174252633	-0.3965043358	-0.8221894244	 0.134015
66.8132	122.1785	277.4645	316.333	377.9653	430.0609	449.0904	538.2737	599.3664	654.9162	705.7644	728.8344	781.9593	799.5959	839.6187	869.9869	889.8877	971.018	982.3246	1059.1332	1139.7652	1227.0641	1284.4119	1403.0726	1428.6246	1445.0408	1506.8685	1679.451	1689.6567	1731.1854	1778.9537	3072.2126	3184.6072	3213.2285	3501.451	3600.8833
N=C1NC=CC(=O)N=C1	[NH][C]1NC=CC(=O)N=C1	
InChI=1S/C5H5N3O/c6-4-3-8-5(9)1-2-7-4/h1-3H,(H2,6,7)	InChI=1S/C5H5N3O/c6-4-3-8-5(9)1-2-7-4/h1-3H,(H2,6,7)
