17
gdb 19595	4.2812	1.9883	1.85956	1.2752	66.82	-0.2223	0.0712	0.2935	773.5918	0.144625	-363.790474	-363.784295	-363.783351	-363.820249	25.963	
O	-0.0965540386	 1.4977866201	 0.0065783216	-0.451041
C	 0.0440438335	 0.090688071	 0.042370601	 0.132835
C	-1.3299227603	-0.6061486691	-0.1156261375	-0.063695
C	-1.2047196444	-0.2435878788	-1.6432620768	-0.210631
C	 0.2890889727	-0.5816122418	-1.3484687395	-0.043137
N	 0.1859461349	-2.0641173121	-1.1669757056	-0.115369
C	 0.3841850284	-2.5790663976	 0.2033195449	-0.252938
C	-0.9606171122	-2.0913599373	-0.2028416385	-0.028802
H	 0.7763017699	 1.8757780894	-0.140755913	 0.284302
H	 0.6780122601	-0.1908389484	 0.8868292117	 0.060823
H	-2.1853649529	-0.3186279571	 0.4943592939	 0.073041
H	-1.7102114195	-0.8972608073	-2.3565637051	 0.100257
H	-1.3869369211	 0.8080575728	-1.8518395081	 0.116811
H	 1.1120720778	-0.290955323	-2.0029044787	 0.066015
H	 0.5394543426	-3.6549153875	 0.2174656995	 0.115807
H	 0.9935642493	-2.0497821599	 0.92525307	 0.11935
H	-1.7572149202	-2.8040798234	-0.4019494099	 0.096372
262.0482	300.3684	309.9657	348.6109	420.1718	530.776	560.0422	637.0621	751.6445	781.0592	838.9343	852.5906	891.1476	907.8611	913.6597	991.4299	1000.958	1031.3937	1052.6526	1089.4	1098.543	1104.0019	1112.9045	1120.892	1166.1138	1197.5065	1226.096	1237.7546	1250.9773	1256.6667	1279.3286	1324.6949	1366.7624	1432.4702	1485.3825	1515.5087	3056.5407	3086.4485	3108.0824	3123.7489	3125.6979	3137.813	3173.0552	3209.3576	3815.1286
OC1C2CC1N1CC21	O[C@H]1[C@H]2C[C@@H]1N1C[C@@H]21	
InChI=1S/C6H9NO/c8-6-3-1-4(6)7-2-5(3)7/h3-6,8H,1-2H2	InChI=1S/C6H9NO/c8-6-3-1-4(6)7-2-5(3)7/h3-6,8H,1-2H2/t3-,4-,5-,6-,7?/m0/s1
