20
gdb 100552	3.21465	0.92722	0.8014	1.6445	77.92	-0.2634	-0.0384	0.225	1488.9978	0.169786	-440.280233	-440.270426	-440.269482	-440.315661	35.358	
C	-0.0150122233	 1.435990411	 0.4032203784	-0.384594
C	-0.0646491938	-0.0433297071	 0.0154002394	-0.188997
C	 0.7332604292	-0.3204510622	-1.2795270156	 0.044033
O	 2.0723576621	 0.0783766791	-1.1426059976	-0.43727
C	 0.6741629787	-1.8009307608	-1.6396228358	 0.363988
O	 1.6791493436	-2.4840559295	-1.5368588479	-0.367319
C	-0.6110909212	-2.3844951499	-2.1108042298	-0.101201
C	-0.5254133263	-3.2623428534	-3.3270898039	-0.219592
N	-0.7745427514	-3.8450099479	-2.0192638197	-0.301305
H	 1.0212322372	 1.7635486894	 0.513090513	 0.14394
H	-0.4886718382	 2.0609188771	-0.3620766672	 0.113325
H	-0.5371807368	 1.6088240818	 1.3487997542	 0.113622
H	 0.3658696948	-0.6568669455	 0.8161209435	 0.109805
H	-1.104636882	-0.3658819365	-0.1135488313	 0.101301
H	 0.2672986196	 0.2474745346	-2.1023246566	 0.090148
H	 2.5844339593	-0.7460607397	-1.1310988568	 0.292981
H	-1.5115230857	-1.8009830411	-1.9506903617	 0.106437
H	-1.3659555316	-3.2730892543	-4.014660113	 0.131967
H	 0.4568846097	-3.3818714557	-3.7750196745	 0.137574
H	 0.103740486	-4.2185524496	-1.6574432473	 0.251159
63.9715	68.0231	91.6629	168.1497	217.5081	240.0351	270.7197	301.008	367.5626	384.5462	433.0781	497.0447	669.3639	741.0022	778.2273	829.3747	867.6793	888.3283	922.6641	972.1546	1000.1805	1007.687	1073.8063	1077.1822	1117.276	1122.8234	1137.0184	1176.4331	1186.3342	1263.4705	1285.3248	1289.7981	1315.9217	1343.4166	1369.8386	1401.8287	1406.5185	1446.5246	1476.679	1495.2307	1497.7926	1509.4871	1760.4805	2969.7396	3029.2255	3038.4055	3069.7727	3104.8223	3115.8398	3132.852	3169.2016	3211.0087	3467.0617	3686.3388
CCC(O)C(=O)C1CN1	CC[C@@H](O)C(=O)[C@H]1CN1	
InChI=1S/C6H11NO2/c1-2-5(8)6(9)4-3-7-4/h4-5,7-8H,2-3H2,1H3	InChI=1S/C6H11NO2/c1-2-5(8)6(9)4-3-7-4/h4-5,7-8H,2-3H2,1H3/t4-,5-/m1/s1
