20
gdb 104135	3.51235	1.05831	1.01829	4.3313	75.48	-0.2402	0.0352	0.2754	1261.8655	0.170457	-440.325945	-440.316649	-440.315705	-440.359902	34.817	
C	-0.2473002701	 1.5923451217	-0.202405329	-0.253588
O	-0.218353204	 0.1862568838	-0.0750465672	-0.285943
C	 0.6398039313	-0.5183920921	-0.9610767576	 0.400644
C	 0.2799182958	-0.287464771	-2.4336444623	-0.441808
C	 2.1485559011	-0.2018677841	-0.6975483935	-0.221095
N	 2.7857422653	-1.4888169242	-0.8930772202	-0.304047
C	 1.9509906726	-2.5714782351	-0.7825479638	 0.406038
O	 2.287686905	-3.7334750891	-0.8170279198	-0.380064
C	 0.540549756	-2.0108006017	-0.6007530391	-0.386417
H	 0.7509417886	 2.0441808702	-0.1050624681	 0.107084
H	-0.6863376997	 1.9222433537	-1.1534558035	 0.112933
H	-0.8723223981	 1.9640606552	 0.6130367256	 0.13279
H	 0.4412629248	 0.7501169406	-2.7394444898	 0.116286
H	 0.9023240149	-0.9205186046	-3.0731391647	 0.13308
H	-0.7688322731	-0.5442176299	-2.6093125654	 0.128086
H	 2.5497327685	 0.5481303906	-1.3870164846	 0.108038
H	 2.2686479792	 0.1712485073	 0.3292461644	 0.111643
H	 3.7851840474	-1.6199043355	-0.8984492407	 0.25013
H	 0.2552253454	-2.1122347853	 0.4513669691	 0.139489
H	-0.1816156308	-2.5662954805	-1.2014769998	 0.126721
79.7381	106.1969	151.7678	191.3062	228.7649	288.6103	343.7433	349.6578	379.2679	435.3158	489.8924	523.4155	581.6759	620.8453	684.2522	782.0786	872.543	909.8376	918.1188	952.4806	987.6889	1075.5694	1094.7938	1105.5441	1163.6383	1181.4831	1195.3907	1217.9162	1241.0794	1257.3041	1291.7777	1303.1069	1347.8102	1400.7434	1446.191	1462.4713	1478.2684	1488.1256	1490.8226	1506.9025	1511.4378	1530.3187	1836.6721	2990.1397	3002.4577	3039.2693	3046.7369	3063.8734	3066.4884	3112.534	3116.0414	3119.2503	3125.4392	3635.1398
COC1(C)CNC(=O)C1	CO[C@@]1(C)CNC(=O)C1	
InChI=1S/C6H11NO2/c1-6(9-2)3-5(8)7-4-6/h3-4H2,1-2H3,(H,7,8)	InChI=1S/C6H11NO2/c1-6(9-2)3-5(8)7-4-6/h3-4H2,1-2H3,(H,7,8)/t6-/m1/s1
