18
gdb 18582	3.5698	2.06803	1.6753	1.4905	72.41	-0.2413	0.0184	0.2596	842.3902	0.155195	-347.805771	-347.798826	-347.797882	-347.83676	27.244	
C	-0.7840970507	 1.3520821666	 0.0253626408	-0.404872
C	-0.0163494088	 0.0492715096	-0.0314479112	 0.160585
O	 1.1576099321	 0.1270445297	-0.8784595652	-0.314063
C	 1.9858536603	-0.523512267	 0.1111401731	 0.130503
C	 3.1591331736	 0.3521843573	 0.5774290298	-0.273088
C	 2.5876433264	 1.075611291	 1.7758595193	-0.060877
C	 1.3626897353	 0.6567910746	 2.0997299932	-0.075209
C	 0.8584951057	-0.4141132205	 1.1721846571	-0.144907
H	-0.1550510409	 2.1569305342	 0.4140974901	 0.124711
H	-1.1225611477	 1.6296174803	-0.9780619146	 0.125415
H	-1.6674185461	 1.251134182	 0.6657724101	 0.111471
H	-0.6741299996	-0.7620436779	-0.3778031503	 0.06718
H	 2.2830227434	-1.5258162084	-0.2165106821	 0.069222
H	 4.0440202693	-0.2412906008	 0.8437847753	 0.101423
H	 3.4598125573	 1.0321001956	-0.2287100713	 0.121143
H	 3.1398174035	 1.8435363795	 2.3074070538	 0.09392
H	 0.7764150478	 1.0373558538	 2.929100779	 0.09341
H	 0.511939499	-1.3167253497	 1.6818272029	 0.074032
104.8555	192.5305	211.8159	313.8394	385.9751	423.0315	520.6822	637.5008	739.0476	763.3978	810.6993	842.2741	858.9265	904.0659	922.9099	953.7143	975.0026	983.6323	1018.1483	1046.3649	1091.875	1103.0518	1131.6689	1149.5004	1179.6853	1218.5884	1252.6244	1283.8085	1308.8326	1326.8244	1346.6653	1371.8422	1396.0195	1415.8508	1465.0644	1482.1234	1493.1026	1674.2572	2984.5594	3016.065	3035.1695	3043.1515	3061.2394	3075.4493	3103.2401	3122.6065	3178.1751	3203.1255
CC1OC2CC=CC12	C[C@H]1O[C@H]2CC=C[C@@H]12	
InChI=1S/C7H10O/c1-5-6-3-2-4-7(6)8-5/h2-3,5-7H,4H2,1H3	InChI=1S/C7H10O/c1-5-6-3-2-4-7(6)8-5/h2-3,5-7H,4H2,1H3/t5-,6+,7+/m1/s1
