18
gdb 113337	2.18772	1.24999	1.08779	3.9097	73.48	-0.2736	0.0098	0.2835	1220.0858	0.1459	-439.06493	-439.055271	-439.054327	-439.099775	34.507	
C	 0.2034399763	 1.0250164545	 0.1599687557	-0.26355
O	-0.0865818016	-0.3544380629	 0.3661478535	-0.285621
C	-1.3823003941	-0.732810177	 0.0185627792	 0.27115
C	-1.7082087052	-1.0208998269	-1.4393883334	-0.352913
C	-1.5269542041	-2.1584501248	-0.4680490191	-0.096039
C	-0.2688998753	-3.0090112233	-0.504301082	-0.07147
O	 0.1829590974	-3.3481295451	 0.790671852	-0.421506
C	-2.4216926785	-0.1688706569	 0.8555429392	 0.254752
N	-3.2386738436	 0.3019276588	 1.5255899312	-0.347712
H	 1.2462633852	 1.1682284765	 0.4471339055	 0.140818
H	 0.0714111921	 1.3033106921	-0.893352397	 0.120974
H	-0.4364546183	 1.6618370619	 0.7828216207	 0.143054
H	-2.7008219751	-0.7810649912	-1.8013975562	 0.141501
H	-0.901328247	-0.832296466	-2.1398658445	 0.134398
H	-2.42128842	-2.6717926965	-0.1304783189	 0.124635
H	-0.4861846643	-3.9522415822	-1.015942916	 0.117704
H	 0.509668816	-2.4915302724	-1.0813028281	 0.093957
H	 0.44889089	-2.5217261486	 1.2107971183	 0.295869
75.4205	102.97	106.431	159.5859	185.2302	208.3501	260.8727	356.6817	366.708	453.1692	476.1908	517.9435	584.2182	613.7546	685.9919	807.3664	898.1548	929.4862	957.4802	1001.6954	1055.2478	1074.8869	1081.8534	1106.6726	1150.7677	1183.9322	1207.4242	1226.6323	1262.0205	1283.233	1372.6661	1413.357	1431.1879	1467.2401	1479.1491	1488.5051	1499.0884	1507.2488	2346.6783	3008.7804	3012.4619	3076.94	3078.4855	3138.115	3140.2289	3171.6554	3232.7514	3797.9249
COC1(CC1CO)C#N	CO[C@]1(C[C@H]1CO)C#N	
InChI=1S/C6H9NO2/c1-9-6(4-7)2-5(6)3-8/h5,8H,2-3H2,1H3	InChI=1S/C6H9NO2/c1-9-6(4-7)2-5(6)3-8/h5,8H,2-3H2,1H3/t5-,6+/m0/s1
