18
gdb 24344	3.51696	1.48596	1.08349	2.8015	78.1	-0.2	0.0418	0.2418	1086.0736	0.151692	-401.989094	-401.981947	-401.981003	-402.02052	28.766	
C	-0.0235434974	 1.4045677769	 0.0282968647	-0.075527
C	 1.4142569406	 1.9472578813	 0.0140443792	-0.33364
C	 2.1708512454	 1.2539500011	-1.0816630625	 0.221787
C	 3.3558191262	 1.5608082515	-1.7104389745	-0.210506
N	 3.6051453645	 0.5739334717	-2.6322237891	-0.241227
C	 2.6008198515	-0.3624931056	-2.6034119345	-0.201824
C	 1.6948108309	 0.0344753357	-1.6477562371	 0.193927
C	 0.3906667808	-0.5682613455	-1.2083716958	-0.197302
O	-0.0427133008	-0.0140946208	 0.0270365601	-0.24699
H	-0.5523857861	 1.7148466024	 0.9340999123	 0.101383
H	-0.5798714368	 1.7930063641	-0.8415403646	 0.085257
H	 1.3980224552	 3.0357428657	-0.1194849243	 0.097611
H	 1.8741058552	 1.7530107285	 0.9919049142	 0.111155
H	 4.038495059	 2.385463316	-1.5798048095	 0.115449
H	 4.4096611862	 0.5362661345	-3.2323264875	 0.259647
H	 2.6181966776	-1.2165913185	-3.2616936034	 0.116248
H	-0.3904932579	-0.4134755204	-1.9744679781	 0.091942
H	 0.4708412159	-1.6475267786	-1.0407569695	 0.11261
109.4805	204.1736	289.6417	336.082	373.6829	458.5377	459.8837	516.3883	632.6958	648.5472	678.8241	700.8933	734.2474	752.4153	864.4717	921.8621	943.7159	983.2865	1025.9796	1081.3573	1086.161	1112.7953	1130.5646	1200.765	1210.1203	1236.532	1257.9525	1306.706	1323.5147	1364.16	1367.5237	1406.6206	1429.3958	1471.0151	1477.3695	1491.6627	1500.748	1559.6791	1618.6929	2934.8873	2963.9304	3015.1856	3054.7635	3061.3713	3084.032	3255.4325	3258.3267	3689.1643
C1CC2=CNC=C2CO1	C1Cc2c[nH]cc2CO1	
InChI=1S/C7H9NO/c1-2-9-5-7-4-8-3-6(1)7/h3-4,8H,1-2,5H2	InChI=1S/C7H9NO/c1-2-9-5-7-4-8-3-6(1)7/h3-4,8H,1-2,5H2
