21
gdb 118626	2.57596	0.76248	0.62338	3.4095	81.13	-0.2568	-0.0382	0.2186	1808.7632	0.178281	-424.250224	-424.239179	-424.238234	-424.288465	37.302	
C	-0.020136714	 1.6649292204	-0.0064909238	-0.382926
C	-0.0184043297	 0.1345561607	 0.0296066817	-0.18166
C	 0.6702968858	-0.4836403974	-1.1933119975	-0.190139
C	 0.6671839651	-2.0268590513	-1.1996741374	-0.08373
C	 1.2457907634	-2.5701635621	-2.5281609938	-0.307227
C	 1.0313506548	-4.0589667648	-2.7102758005	 0.156046
O	 0.6058321708	-4.5610195349	-3.7179002528	-0.236529
C	 1.4982700468	-2.539095307	-0.0363722942	 0.166714
O	 1.1036490711	-3.2455033249	 0.8536296809	-0.248755
H	 1.0004122524	 2.0630046795	-0.026662336	 0.11674
H	-0.5386588548	 2.0396945203	-0.8959154026	 0.117576
H	-0.5221818847	 2.0810728678	 0.871849901	 0.11973
H	 0.4731886013	-0.2107302529	 0.947784775	 0.111808
H	-1.0500206978	-0.235486567	 0.0849538612	 0.107597
H	 0.1756220605	-0.1348573343	-2.1080761899	 0.10822
H	 1.7081154104	-0.1257420866	-1.256142195	 0.101491
H	-0.3556594306	-2.3943520586	-1.059720184	 0.104754
H	 0.8085472003	-2.0526308148	-3.3865389655	 0.129805
H	 2.3311698345	-2.3847229859	-2.5510252698	 0.125525
H	 1.3015438381	-4.6845428973	-1.8292902097	 0.091939
H	 2.5606572164	-2.1906872389	-0.0663125073	 0.073021
50.1136	54.2495	59.277	81.7623	117.6478	120.688	243.3509	252.3358	301.3756	328.221	338.156	410.8335	517.9387	570.8654	738.065	784.2399	841.4461	900.7562	917.4335	973.5129	1005.4231	1021.8141	1054.0668	1062.1055	1115.2307	1138.8116	1160.5473	1213.9282	1245.6024	1267.4406	1317.894	1322.3881	1349.2589	1356.155	1393.7612	1415.2667	1422.169	1436.9197	1458.0606	1483.5238	1492.1056	1500.7978	1509.7176	1834.0369	1835.9905	2827.2981	2878.9957	3001.0433	3007.8151	3025.1052	3032.0255	3043.4249	3055.1122	3067.1298	3096.689	3098.6231	3107.8368
CCCC(CC=O)C=O	CCC[C@@H](CC=O)C=O	
InChI=1S/C7H12O2/c1-2-3-7(6-9)4-5-8/h5-7H,2-4H2,1H3	InChI=1S/C7H12O2/c1-2-3-7(6-9)4-5-8/h5-7H,2-4H2,1H3/t7-/m0/s1
