18
gdb 104835	2.07615	1.50304	1.38583	1.594	68.99	-0.2464	0.0059	0.2523	1069.6799	0.146467	-476.19682	-476.187588	-476.186644	-476.230875	33.422	
C	-1.1974061499	 0.0442678285	-0.0794619965	-0.261518
O	-0.4407415067	-1.0657431353	 0.4043128659	-0.297506
C	 0.5646863941	-0.7975465362	 1.3445794487	 0.240801
C	 0.065903269	-0.2755829019	 2.698706068	-0.120867
O	-0.3589898377	 1.0690345612	 2.6288493242	-0.420066
C	 1.5787159696	-1.9642622763	 1.3702148819	-0.132406
O	 2.6395703008	-1.0632108827	 0.8991223847	-0.251546
C	 1.7758586511	-0.0023218944	 0.8522018089	 0.402177
N	 1.9601128415	 1.2125897529	 0.5818076836	-0.562434
H	-0.5427408201	 0.8214398568	-0.4894820734	 0.135561
H	-1.8278310088	-0.3563498201	-0.8765376205	 0.122618
H	-1.8219142583	 0.4854407685	 0.7020213725	 0.137315
H	-0.7961799533	-0.8713950396	 3.0175738398	 0.118694
H	 0.8655851518	-0.4091753948	 3.4464053943	 0.091362
H	 0.3444705058	 1.5741031389	 2.19497577	 0.301815
H	 1.8363503453	-2.3852949553	 2.3438133796	 0.124743
H	 1.36679974	-2.741827668	 0.6362656996	 0.137535
H	 2.930280836	 1.409035798	 0.3272486588	 0.233719
90.6779	109.7788	136.6217	174.1547	192.4594	240.2269	309.7061	333.0241	382.3094	441.1035	514.544	530.3611	689.5965	734.5158	771.9222	868.5358	896.2307	931.4438	953.9423	1026.6103	1061.8384	1085.1982	1098.3217	1151.6347	1187.0899	1188.9928	1208.7533	1240.9369	1248.7277	1272.9807	1373.7545	1386.89	1447.9154	1482.7471	1488.768	1495.4	1501.5313	1515.3778	1802.491	2963.938	3032.0147	3072.654	3079.6126	3106.378	3129.105	3153.3517	3465.3652	3722.2151
COC1(CO)COC1=N	CO[C@@]1(CO)CO[C]1[NH]	
InChI=1S/C5H9NO3/c1-8-5(2-7)3-9-4(5)6/h6-7H,2-3H2,1H3	InChI=1S/C5H9NO3/c1-8-5(2-7)3-9-4(5)6/h6-7H,2-3H2,1H3/t5-/m0/s1
