18
gdb 104492	2.74208	1.45687	1.13716	2.065	73.89	-0.2284	-0.0273	0.2011	1100.31	0.146603	-439.030497	-439.021864	-439.02092	-439.063835	31.906	
C	-0.5916953727	 1.07672079	-0.0131902403	-0.33413
N	 0.3016914657	-0.0801646281	 0.1159308077	-0.340346
C	 0.8324517842	-0.5493628772	-1.1228740832	 0.201809
C	 2.0308683374	 0.1369106542	-1.6721207605	 0.120735
O	 2.6009983582	 1.0407538176	-1.1072709764	-0.282081
C	 0.8221897693	-2.0564427453	-1.4671264407	-0.206793
C	-0.4677076608	-2.6453993862	-0.9056147225	-0.093311
O	-1.2670747121	-1.6618476267	-1.62780285	-0.277885
C	-0.0897866838	-1.1215972394	-2.1989562195	 0.062003
H	-0.1319581336	 1.9404133638	-0.5154615456	 0.112861
H	-1.4828988191	 0.7734930571	-0.568386144	 0.141185
H	-0.9072527422	 1.3889177798	 0.9862042437	 0.117931
H	 1.0833754827	 0.1660457362	 0.7154578381	 0.229561
H	 2.3964496069	-0.2511316767	-2.651343866	 0.068616
H	 1.7053300319	-2.5970916472	-1.7786538811	 0.11262
H	-0.6834740176	-3.6510100744	-1.2786046106	 0.118165
H	-0.6135974644	-2.5767087885	 0.1745950512	 0.131148
H	-0.1364009101	-0.752468029	-3.2177440404	 0.117912
86.4397	122.7019	178.6249	203.7531	218.9935	280.9097	300.0777	368.9115	419.7171	521.1716	602.6386	758.4388	774.4362	803.7189	840.3546	889.4976	942.0889	968.677	991.3811	1020.9156	1049.4781	1066.9293	1070.3151	1100.2139	1146.8329	1164.5302	1166.899	1202.3911	1249.0834	1291.6011	1327.6556	1392.0594	1431.9093	1456.3198	1487.2893	1491.5641	1498.8325	1520.5052	1803.3069	2857.7469	2996.4644	3054.7417	3085.3825	3122.1534	3124.3424	3172.4762	3207.6071	3519.1821
CNC1(C=O)C2COC12	CN[C@@]1(C=O)[C@H]2CO[C@@H]12	
InChI=1S/C6H9NO2/c1-7-6(3-8)4-2-9-5(4)6/h3-5,7H,2H2,1H3	InChI=1S/C6H9NO2/c1-7-6(3-8)4-2-9-5(4)6/h3-5,7H,2H2,1H3/t4-,5+,6-/m0/s1
