19
gdb 104007	2.66764	1.34431	1.21234	2.3375	71.2	-0.2234	0.0543	0.2777	1111.7087	0.157906	-460.122753	-460.113813	-460.112869	-460.155892	34.958	
O	-0.1135945242	 1.4651795137	 0.0721721799	-0.436793
C	 0.0564265865	 0.0466860717	 0.0469730943	-0.158033
C	-1.3385754562	-0.5514847996	-0.060470097	 0.345594
O	-2.1518977474	-0.0202865262	 0.976175882	-0.505267
C	-2.0813853823	-0.5561677528	-1.4440627525	-0.281984
C	-2.3103839588	-2.0674627571	-1.3013553548	-0.138846
C	-0.9702443946	-2.7690995893	-1.2005019373	-0.341156
C	-1.4956404735	-2.0716183541	 0.0046398245	 0.393453
O	-1.6500946191	-2.7248496656	 1.2046626844	-0.465826
H	 0.7121601681	 1.8712814265	 0.3495473329	 0.296288
H	 0.6792149061	-0.2631860515	-0.8024831048	 0.095129
H	 0.5267149739	-0.3112898802	 0.9741575341	 0.102334
H	-1.8942617201	 0.9074069938	 1.0603392382	 0.289999
H	-2.9946027929	 0.0371666983	-1.381092067	 0.110218
H	-1.4970628814	-0.2396187001	-2.3152419224	 0.088822
H	-3.2116097161	-2.6045034557	-1.5680655551	 0.089181
H	-1.0344108458	-3.8502730612	-1.123354076	 0.122529
H	-0.1030785817	-2.4142645393	-1.7553307517	 0.099266
H	-2.1683490905	-2.1247320813	 1.7587578984	 0.295091
92.2327	147.8416	174.6866	252.5809	267.2524	313.3421	360.8909	399.1919	435.7687	450.864	478.1413	513.7406	534.072	632.4931	732.7544	800.6211	856.3127	891.799	910.3968	942.572	972.9765	1001.1986	1020.7298	1032.7856	1075.6958	1102.3804	1123.5302	1158.8754	1187.2074	1209.624	1247.863	1261.0286	1274.3803	1280.5909	1337.5782	1415.9534	1436.8955	1451.4976	1473.7711	1508.4857	1514.0688	2996.2147	3037.5677	3042.3145	3092.9269	3123.0728	3189.918	3198.4323	3755.4125	3762.3478	3840.0282
OCC1(O)CC2CC12O	OC[C@@]1(O)C[C@H]2C[C@@]12O	
InChI=1S/C6H10O3/c7-3-5(8)1-4-2-6(4,5)9/h4,7-9H,1-3H2	InChI=1S/C6H10O3/c7-3-5(8)1-4-2-6(4,5)9/h4,7-9H,1-3H2/t4-,5-,6-/m0/s1
