16
gdb 82653	2.43685	1.75608	1.36978	3.2151	63.82	-0.2156	0.0597	0.2754	961.6403	0.124139	-474.928224	-474.920441	-474.919497	-474.959965	30.996	
O	 0.0798653823	 1.4496442068	 0.0660506108	-0.453708
C	 0.0429901996	 0.0539857581	 0.0223591449	 0.125147
C	 0.2741852687	-0.7111301234	 1.3600714369	-0.193636
N	-0.7398706506	-0.0340439239	 2.2403617409	-0.332329
C	-1.7616873305	-0.7738250112	 1.4655174122	-0.225016
C	-1.2968096369	-0.6822994199	-0.0215175347	 0.297566
O	-2.178088434	-0.8212230003	-1.0664538541	-0.46244
C	-0.8034626593	-1.7875493265	 0.8712551621	 0.307482
O	-0.7935101432	-3.1324229908	 0.6354975598	-0.438704
H	-0.2930421798	 1.6743409263	 0.9330446608	 0.284682
H	 0.7111862868	-0.29421341	-0.7696820331	 0.097053
H	 1.271376468	-0.8733729872	 1.7626807735	 0.081901
H	-0.6803992127	-0.4294405778	 3.1769551552	 0.220089
H	-2.8135169847	-0.8236616678	 1.7163503038	 0.10359
H	-2.6095007625	 0.0289923507	-1.2094235827	 0.294674
H	-0.8031317812	-3.5973327832	 1.4800046837	 0.293649
166.33	198.0538	232.6108	285.8116	320.5741	342.068	387.8326	412.6413	548.8466	557.4726	620.5043	655.727	689.1395	744.6608	817.2884	833.6293	903.9079	931.6715	959.1129	989.8226	1010.7424	1051.0638	1086.8336	1122.6297	1144.2504	1198.4731	1210.9335	1254.1347	1285.2757	1307.7612	1322.8352	1340.7083	1377.4257	1447.9287	1534.8768	3090.3067	3148.4276	3205.7686	3471.2842	3700.7773	3786.0567	3794.4954
OC1C2NC3C1(O)C23O	O[C@H]1[C@H]2N[C@H]3[C@]1(O)[C@@]23O	
InChI=1S/C5H7NO3/c7-2-1-4(8)3(6-1)5(2,4)9/h1-3,6-9H	InChI=1S/C5H7NO3/c7-2-1-4(8)3(6-1)5(2,4)9/h1-3,6-9H/t1-,2+,3-,4-,5+/m1/s1
