21
gdb 71199	2.59463	1.94784	1.42168	0.3644	86.39	-0.2223	0.0256	0.2479	998.3149	0.184845	-349.948512	-349.941149	-349.940205	-349.979541	31.393	
C	-0.0248604475	 1.4845011076	 0.0392184865	-0.466433
C	-0.0067004445	-0.0380769847	 0.0220741679	 0.316842
C	 0.2133294744	-0.6476910265	-1.4144531166	-0.282104
C	-1.1575285225	-1.3145117058	-1.3259900766	-0.064268
C	-1.2704584732	-2.1602838128	-0.0570536992	-0.077543
C	-0.1164795285	-2.8184768145	 0.6056410818	-0.053854
C	 0.884124535	-2.1207992669	 1.146441286	-0.08735
C	 0.9402075365	-0.6142264158	 1.0843407404	-0.296523
C	-1.4237252377	-0.6693521544	 0.0246898103	-0.113828
H	 0.9732975084	 1.8930536136	-0.1576527534	 0.110146
H	-0.7067357845	 1.8796043982	-0.7214983473	 0.112166
H	-0.3556861171	 1.8647899782	 1.013116456	 0.110315
H	 0.2520282465	 0.1305660191	-2.1810093181	 0.095555
H	 1.0748865238	-1.31149415	-1.5366935416	 0.095321
H	-1.843554825	-1.4693792497	-2.1507561824	 0.080162
H	-2.2061026212	-2.7114892065	-0.0164951659	 0.083021
H	-0.1146645533	-3.9044691099	 0.649291653	 0.081123
H	 1.7025949138	-2.6333426691	 1.6451623689	 0.082656
H	 1.967232022	-0.293090295	 0.8586145501	 0.09931
H	 0.7117661906	-0.1858223885	 2.0729504784	 0.100596
H	-2.3195742759	-0.1884667165	 0.4012495218	 0.074689
193.5989	252.2154	265.3767	289.8868	362.2065	374.0824	476.0702	503.6697	548.1707	618.3909	703.1599	766.3765	773.7407	827.8629	842.0718	880.1134	911.5827	924.4499	960.4626	976.6039	988.4575	988.9399	1003.9515	1014.0106	1024.6942	1070.6928	1116.6512	1140.0717	1149.255	1178.6219	1209.8234	1248.1265	1253.227	1258.682	1299.5847	1325.9715	1369.6332	1402.4794	1412.3903	1431.3283	1468.7936	1482.1755	1493.0301	1498.4152	1709.5294	2985.0438	3016.9525	3018.4035	3046.995	3082.3112	3091.4125	3101.0078	3141.6524	3150.1323	3164.6093	3171.1505	3179.2444
CC12CC3C(C=CC1)C23	C[C@@]12C[C@H]3[C@@H](C=CC1)[C@@H]23	
InChI=1S/C9H12/c1-9-4-2-3-6-7(5-9)8(6)9/h2-3,6-8H,4-5H2,1H3	InChI=1S/C9H12/c1-9-4-2-3-6-7(5-9)8(6)9/h2-3,6-8H,4-5H2,1H3/t6-,7+,8-,9+/m1/s1
