18
gdb 53962	2.40818	1.3183	1.2529	2.3311	67.47	-0.2447	0.0289	0.2735	1113.0239	0.145529	-476.237385	-476.227827	-476.226882	-476.271793	35.525	
C	-0.1794196007	 1.5213315778	 0.0818756794	-0.423841
C	 0.0417926494	 0.0076770098	-0.0423154919	 0.226838
O	 0.8084745179	-0.4844710178	 1.0482597442	-0.492219
C	-1.3062315091	-0.718969424	-0.0813173454	 0.064721
C	-1.4316681143	-2.1258327435	 0.3030994082	-0.185745
O	-1.8080130138	-1.0740061778	 1.2131577243	-0.260411
C	 0.7657935725	-0.3009942001	-1.3668085749	 0.390814
N	 1.9018113648	-1.0251362253	-1.2371448226	-0.526968
O	 0.3020820052	 0.0765893617	-2.427975156	-0.390553
H	 0.7807448638	 2.0247488207	 0.2207732313	 0.126579
H	-0.6545714831	 1.9080106379	-0.8220401783	 0.14437
H	-0.8147053181	 1.7382936077	 0.946299851	 0.120722
H	 0.1725756376	-0.651199498	 1.7598636231	 0.29389
H	-2.039025227	-0.2908537193	-0.7608027887	 0.118851
H	-2.2598471744	-2.71647876	-0.0814736211	 0.12869
H	-0.5432666398	-2.6825340148	 0.5903146749	 0.125318
H	 2.2385755848	-1.265129283	-0.3203820208	 0.2773
H	 2.4374297544	-1.241495822	-2.0609190469	 0.261643
54.5619	87.2349	167.9668	233.1303	248.6314	258.1698	309.3688	324.8181	374.7795	399.6565	473.8928	509.7418	537.6437	612.2273	639.6898	716.1955	768.221	842.2733	875.4761	919.9443	969.8608	1002.9256	1092.8134	1095.1183	1127.1962	1147.5789	1158.7506	1173.3421	1220.6531	1278.6505	1320.0511	1390.0835	1413.4731	1423.3133	1487.9172	1498.5337	1515.1252	1591.0313	1792.1481	3045.4522	3104.7268	3119.8925	3141.4555	3152.5063	3198.034	3600.9993	3721.5517	3742.985
CC(O)(C1CO1)C(N)=O	C[C@@](O)([C@H]1CO1)C(=O)N	
InChI=1S/C5H9NO3/c1-5(8,4(6)7)3-2-9-3/h3,8H,2H2,1H3,(H2,6,7)	InChI=1S/C5H9NO3/c1-5(8,4(6)7)3-2-9-3/h3,8H,2H2,1H3,(H2,6,7)/t3-,5-/m1/s1
