18
gdb 114961	3.80238	0.97231	0.84065	3.5234	69.92	-0.2635	0.0184	0.2819	1382.9397	0.147004	-476.232112	-476.222925	-476.221981	-476.266769	32.371	
C	-0.0693300108	 1.4428033737	-0.0916560388	-0.247196
O	 0.0021687287	 0.0283317478	 0.0176667773	-0.22413
C	-1.2238627097	-0.596305317	 0.1462786235	 0.183102
C	-1.0222487826	-2.1248424785	 0.2065247402	-0.209954
N	-1.291149664	-2.4869320659	 1.6017952622	-0.336945
C	-1.7160750773	-1.432390104	 2.1661817184	 0.385527
C	-2.1176271912	-1.363140447	 3.6075818106	-0.131465
O	-2.0041603486	-2.6132266998	 4.2329997439	-0.420912
O	-1.8285961746	-0.2941795706	 1.4354867365	-0.262509
H	 0.9493592353	 1.7984339186	-0.2553280835	 0.136968
H	-0.6973699881	 1.7421850073	-0.9432275638	 0.11339
H	-0.4712334197	 1.8939636379	 0.8222662072	 0.132878
H	-1.9330601507	-0.2382438622	-0.611135633	 0.084066
H	-1.7067914821	-2.6588743431	-0.4602447627	 0.122078
H	 0.0029477266	-2.3753565002	-0.078025026	 0.135604
H	-1.4872081278	-0.6090157239	 4.1052438239	 0.119959
H	-3.1516169307	-0.9896644022	 3.6643090331	 0.12102
H	-1.6363990726	-3.2133569108	 3.5680118912	 0.298519
59.254	98.1933	129.0047	179.9541	197.6383	222.9451	271.7889	306.876	414.2888	439.7441	544.4068	616.5073	713.5046	784.4067	856.8462	937.3305	958.7629	1017.718	1040.1304	1053.6716	1080.6196	1111.0412	1148.8491	1179.9387	1199.4436	1227.7113	1244.0726	1263.0542	1316.0546	1342.6595	1359.5762	1405.4168	1478.3335	1483.552	1484.6536	1488.4004	1505.2852	1510.4058	1741.131	2985.2487	3000.5453	3005.0236	3026.4424	3056.5989	3075.3202	3105.7662	3136.013	3723.2473
COC1CN=C(CO)O1	CO[C@H]1CN=C(CO)O1	
InChI=1S/C5H9NO3/c1-8-5-2-6-4(3-7)9-5/h5,7H,2-3H2,1H3	InChI=1S/C5H9NO3/c1-8-5-2-6-4(3-7)9-5/h5,7H,2-3H2,1H3/t5-/m1/s1
