20
gdb 89848	2.88908	1.32638	1.1687	3.0869	74.09	-0.246	0.0645	0.3105	1128.5829	0.172556	-440.264464	-440.256171	-440.255227	-440.297249	33.172	
O	-0.2710203784	 1.479607007	-0.4295995746	-0.455554
C	-0.0587227549	 0.1177210595	-0.0462215502	 0.083691
C	-1.3655500026	-0.6790240229	 0.0203927118	-0.320578
C	-1.6908038151	-0.8500738716	-1.4587737667	 0.327751
C	-2.9898225117	-1.3089305166	-1.9819983389	-0.313471
N	-2.6211658085	 0.1230753682	-2.0937734184	-0.362453
C	-0.3542145164	-1.0728018551	-2.1722696565	-0.306891
C	 0.7420172813	-0.6079475794	-1.1582124024	 0.136585
O	 1.7485891371	 0.2079152364	-1.7054766651	-0.443994
H	-0.8838606695	 1.487192468	-1.1771741977	 0.299496
H	 0.4840054733	 0.1641196383	 0.9002970776	 0.085609
H	-1.1764310297	-1.6502393262	 0.4953400771	 0.111305
H	-2.1517098125	-0.1722391479	 0.5885595146	 0.102584
H	-3.0303892434	-1.8422510238	-2.9279455055	 0.122827
H	-3.7707096719	-1.582755131	-1.2767155254	 0.113636
H	-3.1247337755	 0.6322358395	-1.3690015006	 0.228401
H	-0.2178400136	-2.1245263242	-2.4411865491	 0.105712
H	-0.3000982393	-0.4860468818	-3.0919909063	 0.122034
H	 1.2389722996	-1.48528577	-0.728008726	 0.08158
H	 1.4303654719	 1.1152608835	-1.590987858	 0.281728
69.0029	127.7475	258.3531	283.1436	340.6332	372.8335	409.7002	423.7509	427.8785	482.3103	573.8769	605.9168	720.4222	756.9949	819.3709	824.6886	868.7398	918.7378	932.3917	954.1938	969.5073	996.1224	1041.8988	1073.2418	1075.741	1115.5923	1140.819	1164.1622	1204.1595	1226.8175	1241.5522	1283.142	1287.1207	1301.1043	1317.4804	1331.9012	1364.8862	1406.2251	1432.8718	1449.9677	1475.0804	1486.9384	1512.3924	3028.6278	3036.2616	3059.9449	3086.6725	3097.4028	3104.5475	3114.2023	3189.072	3470.1877	3724.6565	3762.4826
OC1CC2(CN2)CC1O	O[C@H]1C[C@]2(CN2)C[C@H]1O	
InChI=1S/C6H11NO2/c8-4-1-6(3-7-6)2-5(4)9/h4-5,7-9H,1-3H2	InChI=1S/C6H11NO2/c8-4-1-6(3-7-6)2-5(4)9/h4-5,7-9H,1-3H2/t4-,5+,6+
