20
gdb 22057	4.12573	0.62195	0.61539	2.5814	80.24	-0.2376	-0.0124	0.2252	1873.2052	0.166321	-440.276039	-440.264921	-440.263977	-440.314193	38.166	
C	-0.0526869299	 1.4898618892	-0.152098357	-0.473792
C	 0.0693378639	-0.0116466438	 0.0397549794	 0.38251
O	 1.1336199244	-0.5462025471	 0.2494868072	-0.288935
C	-1.2301964403	-0.805903472	-0.044029782	-0.303984
C	-1.0108081559	-2.3247584535	-0.0826665299	-0.269383
C	-2.3003426303	-3.098333969	-0.0127065677	 0.350523
C	-3.112918469	-3.099471655	 1.2558308593	-0.469972
N	-2.639890538	-3.7296918503	-1.071790739	-0.165568
O	-3.8624302249	-4.404711089	-0.9012423573	-0.402171
H	 0.9014411146	 1.9714809458	 0.0647813453	 0.144095
H	-0.3402139106	 1.7070383265	-1.187586301	 0.143789
H	-0.838034905	 1.9054021808	 0.4884039203	 0.134502
H	-1.8405060057	-0.5150017378	 0.8235224747	 0.124921
H	-1.8001997094	-0.4712860355	-0.9201532581	 0.126296
H	-0.4840727764	-2.5954320823	-1.0005165562	 0.125333
H	-0.3616154581	-2.6038808977	 0.7549597723	 0.124572
H	-4.0772401707	-2.6032555603	 1.1014630294	 0.144392
H	-3.3403539864	-4.1270321766	 1.5547879929	 0.151025
H	-2.5853361298	-2.5984426923	 2.0702339081	 0.116709
H	-3.9659437024	-4.8482474503	-1.7494459608	 0.305138
33.4735	52.0555	77.7087	88.5169	117.1093	131.2597	215.3249	286.8263	324.1015	361.1517	390.0971	442.5378	483.3529	552.4358	572.3527	654.117	746.6556	809.0914	843.5876	915.5551	945.243	983.838	1011.9744	1028.4788	1069.0788	1092.1233	1173.4185	1183.6563	1265.8038	1298.9432	1310.6976	1374.7356	1384.3275	1400.4605	1401.2676	1449.1228	1464.4123	1474.389	1476.9998	1477.956	1485.6441	1728.1421	1813.0698	3013.9687	3036.7756	3041.7177	3048.305	3057.0665	3097.6328	3100.5747	3114.1606	3130.2142	3152.3867	3822.7136
CC(=O)CCC(C)=NO	CC(=O)CCC(=NO)C	
InChI=1S/C6H11NO2/c1-5(7-9)3-4-6(2)8/h9H,3-4H2,1-2H3	InChI=1S/C6H11NO2/c1-5(7-9)3-4-6(2)8/h9H,3-4H2,1-2H3
