19
gdb 86482	2.19215	1.34876	0.9793	2.141	83.09	-0.2501	-0.0295	0.2206	1267.6224	0.156275	-385.860856	-385.851301	-385.850357	-385.895411	35.326	
C	 0.008404943	 1.4997920658	-0.1267836817	-0.413455
C	 0.0907350063	-0.0169213427	-0.0690062916	 0.050916
C	 1.1951558761	-0.7318309867	-0.8953613295	-0.277092
C	 1.4685803511	-1.6838189073	 0.3097622098	 0.052771
C	 0.6645016682	-0.6675473743	 1.2184019703	-0.281838
C	 0.6791901933	-2.9871857192	 0.223978337	 0.110987
O	-0.1250110864	-3.2430199923	-0.6327598062	-0.248122
C	 2.83731979	-1.9653611171	 0.6913930604	 0.211677
C	 3.9683558489	-2.2219768776	 1.0112881788	-0.405369
H	 0.977866716	 1.9562497099	 0.1039808397	 0.113532
H	-0.2922762112	 1.8407226881	-1.1235356464	 0.120962
H	-0.7230349499	 1.8866235619	 0.5914412195	 0.1176
H	-0.8828918201	-0.4562353787	-0.3051842715	 0.093586
H	 0.8890613734	-1.2305149616	-1.8157008438	 0.126437
H	 2.0554419646	-0.0866030626	-1.086639765	 0.108612
H	 1.3589942951	-0.0109898875	 1.7481641123	 0.118326
H	-0.0341846927	-1.100848015	 1.9393858838	 0.112023
H	 0.8880034304	-3.6909166778	 1.0588619352	 0.092664
H	 4.9709731939	-2.4353596555	 1.288891529	 0.195785
67.0256	80.0037	158.4174	172.7654	228.3722	238.3511	267.6158	338.7045	411.7557	489.2403	501.9456	532.6206	596.6175	620.1603	642.4688	749.1677	830.0318	861.522	899.6362	909.2498	934.8901	970.483	1048.4957	1080.0474	1092.6705	1147.8458	1178.4329	1208.1882	1237.703	1264.8551	1275.5674	1296.2365	1375.4209	1410.8915	1415.0176	1465.0171	1488.7299	1495.9896	1496.8259	1825.6089	2228.8391	2899.1442	3024.1429	3056.8072	3060.5284	3075.456	3093.5166	3094.9132	3117.0608	3140.8102	3500.9378
CC1CC(C1)(C=O)C#C	C[C@H]1C[C@@](C1)(C=O)C#C	
InChI=1S/C8H10O/c1-3-8(6-9)4-7(2)5-8/h1,6-7H,4-5H2,2H3	InChI=1S/C8H10O/c1-3-8(6-9)4-7(2)5-8/h1,6-7H,4-5H2,2H3/t7-,8-
