20
gdb 63313	2.47822	1.60768	1.29707	3.3901	80.33	-0.2487	0.0294	0.2782	1079.4854	0.171057	-403.173506	-403.165032	-403.164088	-403.206038	33.615	
C	 0.1098879037	 1.4972149515	-0.1076376179	-0.418414
C	-0.0541103102	-0.0108746456	 0.0551354278	 0.334213
C	-1.5303572401	-0.4121820084	 0.1165520064	-0.416896
O	 0.5345680907	-0.6431974895	-1.1201934021	-0.278682
C	 1.2000187184	-1.7961252807	-0.7882116124	 0.40275
N	 1.5284773886	-2.70038038	-1.6075444362	-0.55816
C	 1.4755348735	-1.7968671856	 0.6714758086	-0.107716
C	 2.2133064246	-0.5667755806	 1.1683334199	-0.312964
C	 0.7176826185	-0.6140836258	 1.2286338532	-0.064112
H	 1.1644653374	 1.7726826028	-0.1780895646	 0.123855
H	-0.3972279274	 1.8403201151	-1.0139372414	 0.127003
H	-0.3269814054	 2.019274958	 0.7491407881	 0.118746
H	-2.0450730159	-0.1036363398	-0.7973909529	 0.126859
H	-1.6316849419	-1.4963898719	 0.2209922763	 0.126913
H	-2.0245110055	 0.0640854071	 0.9696338968	 0.116571
H	 1.1885720549	-2.4697219559	-2.5427521254	 0.218587
H	 1.5929765318	-2.746024328	 1.1747384637	 0.114007
H	 2.7508315678	-0.6749397157	 2.1033737874	 0.122044
H	 2.7016061679	 0.0684858484	 0.4372089104	 0.129859
H	 0.2192126387	-0.6608712053	 2.1894156745	 0.095536
103.1406	189.2765	206.0774	246.4035	252.4196	333.721	339.0993	378.9619	460.5055	496.5855	593.6061	627.0614	718.5087	764.7999	797.9609	843.9041	881.6021	909.3508	922.0299	938.3499	967.7711	985.7815	1002.9847	1029.2618	1057.9439	1075.6237	1102.4007	1110.4241	1183.5161	1199.2661	1214.9139	1250.9196	1316.7763	1358.4657	1375.5064	1402.9421	1421.317	1474.5821	1481.0339	1487.1634	1498.182	1505.7375	1774.85	3038.606	3047.3888	3110.8231	3117.0015	3122.4724	3129.9412	3136.7908	3183.4707	3218.5101	3227.5092	3472.2401
CC1(C)OC(=N)C2CC12	CC1(C)O[C]([NH])[C@H]2C[C@@H]12	
InChI=1S/C7H11NO/c1-7(2)5-3-4(5)6(8)9-7/h4-5,8H,3H2,1-2H3	InChI=1S/C7H11NO/c1-7(2)5-3-4(5)6(8)9-7/h4-5,8H,3H2,1-2H3/t4-,5+/m0/s1
