16
gdb 13272	8.04149	0.73593	0.72121	2.076	70.74	-0.2493	0.0251	0.2744	1536.3691	0.129322	-383.672493	-383.663749	-383.662805	-383.708058	29.261	
O	 0.072605284	 1.3631369759	 0.65678107	-0.408254
C	 0.020136605	 0.1955542033	-0.1543057259	-0.214962
C	-1.3312735167	-0.3490215555	-0.1442356947	 0.089688
C	-2.4436636114	-0.8107280716	-0.1454708356	 0.087327
C	-3.775748597	-1.3732773487	-0.1537805758	-0.213802
C	-4.4389981018	-1.7290543899	-1.5151621733	-0.073753
O	-4.7572309687	-3.0558609004	-1.0574378671	-0.268304
C	-3.9580475673	-2.8921898481	 0.1281913253	-0.073753
H	 0.976547511	 1.6928768843	 0.625607875	 0.290051
H	 0.3090158012	 0.4193385882	-1.1944873236	 0.117224
H	 0.7200076621	-0.5746104289	 0.2097483688	 0.117224
H	-4.4438781348	-0.7708708565	 0.4681286356	 0.115981
H	-5.3325693506	-1.1577631341	-1.7879250647	 0.110446
H	-3.7362015745	-1.7372546193	-2.3576102168	 0.107221
H	-3.0224778742	-3.4633298221	 0.0811011838	 0.107221
H	-4.5053410564	-3.1583392365	 1.0386182689	 0.110446
16.593	70.2919	108.0418	123.8619	217.4194	227.6472	293.8772	471.5068	503.1291	524.2455	649.3005	839.7526	890.0501	910.7383	1000.9958	1013.1796	1027.452	1039.7178	1057.839	1107.5867	1158.411	1170.0347	1184.2102	1236.9585	1247.1999	1258.1052	1303.813	1344.9829	1381.4744	1460.3575	1502.6255	1509.9661	1535.7124	2367.8742	2960.7195	2978.2587	3014.4721	3024.8077	3059.4326	3073.2174	3082.7965	3817.2444
OCC#CC1COC1	OCC#CC1COC1	
InChI=1S/C6H8O2/c7-3-1-2-6-4-8-5-6/h6-7H,3-5H2	InChI=1S/C6H8O2/c7-3-1-2-6-4-8-5-6/h6-7H,3-5H2
