17
gdb 42732	2.63679	1.82336	1.41893	2.9617	72.51	-0.2307	-0.0186	0.2121	954.6931	0.136909	-421.801586	-421.794471	-421.793527	-421.833051	28.254	
O	 0.0384901029	 0.0622686278	 0.0349302981	-0.345081
C	-0.0074934903	 1.2625791381	 0.0263409578	 0.39606
C	-1.2148440549	 2.2258637503	 0.0135550971	-0.050174
C	-0.8136907884	 3.2528286406	 1.1032362915	-0.247341
C	 0.252665092	 3.535009579	 0.0162093425	-0.035263
O	-0.7548885953	 3.183733996	-0.9981202016	-0.293209
C	 1.1129690386	 2.27820116	 0.0181194407	 0.278511
C	 2.4137546448	 2.0410001995	 0.7409617548	-0.326395
C	 2.3814365762	 2.0601671197	-0.7607561416	-0.320071
H	-2.21536582	 1.8266161242	-0.136080585	 0.101211
H	-1.5496739031	 4.0539724418	 1.1818237015	 0.122794
H	-0.4898213592	 2.8982980938	 2.0849338574	 0.113045
H	 0.7240423776	 4.5057151738	-0.133633237	 0.088894
H	 2.8640474581	 2.8822553525	 1.2579591825	 0.120154
H	 2.5260927529	 1.0823338998	 1.2369813251	 0.135654
H	 2.4708256583	 1.1135893456	-1.2832687564	 0.138261
H	 2.80668424	 2.9140601675	-1.2776171273	 0.12295
120.9769	199.232	211.2889	232.5902	411.2931	458.8912	530.3949	581.6158	678.7478	751.5616	778.8268	807.9852	849.5952	865.4378	874.7321	919.0911	944.286	957.8643	974.7958	1015.4699	1021.084	1062.6559	1071.0003	1088.7148	1134.3967	1173.9686	1194.0808	1219.9174	1248.1264	1254.1117	1281.7017	1283.3367	1397.7749	1457.718	1481.6522	1494.2025	1872.1946	3069.4638	3126.7072	3128.1418	3131.1804	3144.4066	3158.0911	3210.8844	3225.7179
O=C1C2CC(O2)C11CC1	O=C1[C@H]2C[C@H](O2)C21CC2	
InChI=1S/C7H8O2/c8-6-4-3-5(9-4)7(6)1-2-7/h4-5H,1-3H2	InChI=1S/C7H8O2/c8-6-4-3-5(9-4)7(6)1-2-7/h4-5H,1-3H2/t4-,5+/m1/s1
