12
gdb 123537	4.20147	1.84206	1.2806	3.0137	69.46	-0.2766	-0.0918	0.1848	867.2421	0.081758	-427.845423	-427.839924	-427.83898	-427.875304	21.504	
C	 0.0647941806	 1.2841546678	 0.0088166803	 0.048422
N	 1.3123069939	 1.756205978	-0.000728275	-0.221989
N	 2.0268811918	 0.6192777325	-0.0137873309	 0.028909
N	 3.3702862951	 0.6053802582	-0.0268445137	-0.054322
N	 3.9244350068	-0.5535695269	-0.0385641725	-0.185647
C	 3.180955233	-1.7019886768	-0.0376908242	 0.056488
C	 1.8114935246	-1.7334578171	-0.0246389829	-0.263669
C	 1.1755399685	-0.4848402447	-0.0116379267	 0.493548
N	-0.081942765	-0.0625460045	 0.0028503119	-0.350158
H	-0.7767718599	 1.9615169852	 0.0206373111	 0.148152
H	 3.773800737	-2.6085506659	-0.0483902086	 0.14753
H	 1.2398963336	-2.6526803457	-0.0241599189	 0.152736
230.4748	241.7522	414.8409	457.4426	593.1931	641.7189	647.6969	674.8966	791.6138	799.147	869.0731	918.0676	945.9356	962.7611	997.2081	1041.8507	1178.8744	1196.8289	1201.2738	1264.3088	1307.1135	1313.47	1372.545	1441.9394	1478.7568	1549.5792	1656.6274	3210.086	3228.1176	3260.5164
C1=NN2N=NC=CC2=N1	c1nn2nnccc2n1	
InChI=1S/C4H3N5/c1-2-6-8-9-4(1)5-3-7-9/h1-3H	InChI=1S/C4H3N5/c1-2-6-8-9-4(1)5-3-7-9/h1-3H
