15
gdb 55484	2.00029	0.95721	0.65078	2.4587	83.88	-0.1777	-0.0055	0.1721	1610.4124	0.108602	-453.971495	-453.960369	-453.959425	-454.010784	36.591	
N	 0.2686195765	 0.9068536212	 0.2005334899	-0.539972
C	-0.3132528493	-0.3431190831	-0.0308965156	 0.055688
N	 0.6288313633	-1.3305197148	-0.3037225141	-0.552175
H	 0.2432317617	-2.2640521239	-0.3331483661	 0.274453
H	 1.4479912283	-1.2757915514	 0.2894752336	 0.248849
C	-1.6297158263	-0.5502595046	 0.002697481	 0.147088
C	-2.882714144	-0.6757800338	 0.0501358979	 0.080905
C	-4.1943311165	-0.810034768	 0.0972197793	-0.487278
C	-2.2055495588	-4.1054857163	 0.0327673354	 0.598329
O	-1.0445593304	-4.0721405841	-0.0599988182	-0.300259
O	-3.3602363386	-4.1687415399	 0.1256304924	-0.279654
H	 1.0002530326	 1.1312968223	-0.464343814	 0.249492
H	-0.4108362385	 1.6510107199	 0.2688194017	 0.256456
H	-4.6641687287	-1.7867738163	 0.075977905	 0.129823
H	-4.8448327413	 0.0559272829	 0.1614208818	 0.118255
24.1747	41.831	59.67	72.9733	101.5904	119.4467	140.4013	345.2026	364.437	389.8521	426.1453	496.3479	514.0455	551.7754	604.3943	677.5211	684.2757	715.947	742.6066	749.644	758.0399	1018.9929	1066.5949	1136.0785	1289.7214	1379.2331	1382.5697	1455.6393	1629.8671	1639.7201	1722.8957	2209.6792	2432.7786	3145.7165	3223.8761	3525.2484	3534.656	3647.2659	3649.9121
NC(=[NH2+])C#CCC([O-])=O	NC(=[NH2])C#C[CH2].C(=O)=O	
InChI=1S/C5H6N2O2/c6-4(7)2-1-3-5(8)9/h3H2,(H3,6,7)(H,8,9)	InChI=1S/C4H6N2.CO2/c1-2-3-4(5)6;2-1-3/h1,5-6H2;
