19
gdb 117738	2.32767	1.07637	0.94573	3.2527	78.87	-0.2459	-0.0228	0.2231	1361.7442	0.154067	-422.985863	-422.974958	-422.974014	-423.022496	37.777	
C	 0.1179186552	 1.449222817	 0.1443558923	-0.231934
O	 0.1024270257	 0.0393772901	 0.1174517242	-0.24428
C	 0.6362022695	-0.4932045921	-1.0724198243	-0.082041
C	 0.5640787519	-2.0410417982	-1.0084281174	-0.105303
C	 1.3143397697	-2.5573686614	 0.2458531284	-0.421217
C	-0.9121662787	-2.4545699056	-0.8622672119	 0.161626
O	-1.4987923047	-3.2060083844	-1.5916772276	-0.246345
C	 1.1514835762	-2.583005467	-2.228930686	 0.331965
C	 1.6644442517	-3.0021838801	-3.2307853666	-0.443135
H	 1.1422963854	 1.8439125043	 0.0629181035	 0.111038
H	-0.4829847458	 1.8775340537	-0.67222437	 0.112858
H	-0.3080993502	 1.7609277649	 1.1005038189	 0.133538
H	 0.0774616357	-0.1325200543	-1.950656673	 0.109149
H	 1.6883002469	-0.1925512841	-1.2025520862	 0.105317
H	 0.8694233468	-2.1385446746	 1.1508093545	 0.140174
H	 1.2764475341	-3.6483302155	 0.2923089653	 0.136635
H	 2.3628835451	-2.2505996086	 0.2009243396	 0.131608
H	-1.400860268	-1.9869071155	 0.0171047415	 0.102806
H	 2.1012341438	-3.3876580285	-4.1188033351	 0.197542
42.84	84.3236	106.5471	121.6307	150.5169	214.4366	216.236	229.021	308.642	325.3474	345.5152	391.0701	459.6649	546.6704	639.8267	651.4674	675.125	740.4692	889.5541	962.5524	967.0582	986.3728	1027.9076	1142.9318	1159.7027	1180.2144	1194.2767	1210.5237	1248.3121	1281.2664	1389.603	1410.4475	1420.3604	1479.654	1484.8903	1489.601	1495.7926	1503.0871	1526.4775	1837.8617	2242.4715	2927.6231	2965.9192	2980.95	3004.1361	3026.9848	3050.6653	3121.8454	3125.8484	3141.2492	3501.9479
COCC(C)(C=O)C#C	COC[C@@](C)(C=O)C#C	
InChI=1S/C7H10O2/c1-4-7(2,5-8)6-9-3/h1,5H,6H2,2-3H3	InChI=1S/C7H10O2/c1-4-7(2,5-8)6-9-3/h1,5H,6H2,2-3H3/t7-/m1/s1
