20
gdb 7553	2.82873	1.57781	1.20911	2.7805	72.28	-0.221	0.0741	0.295	1088.7799	0.175082	-386.113658	-386.104378	-386.103433	-386.14723	34.159	
C	-0.9194821851	 1.3634395507	 0.4106285616	-0.233278
O	-1.1725083891	-0.0156428137	 0.5723314399	-0.248574
C	-0.6953976147	-0.8004044523	-0.5126063409	-0.124521
C	-0.9746276575	-2.2740454538	-0.2863890175	 0.245073
C	-0.3963186505	-3.1471006371	-1.3825892398	-0.462126
C	-0.9824085558	-2.8018376368	 1.1421916288	-0.368085
C	-2.273794927	-2.6922707236	 0.3639128482	 0.117593
O	-3.2814562965	-1.7926679026	 0.7037999903	-0.438067
H	-1.3105318517	 1.8733377832	 1.2937264837	 0.134416
H	 0.1593536268	 1.5619891694	 0.3295176494	 0.114847
H	-1.415100801	 1.7645777316	-0.4858865383	 0.114733
H	-1.1752503648	-0.4672751704	-1.4491138966	 0.096515
H	 0.3899006515	-0.6378014795	-0.629471788	 0.095263
H	 0.6979453472	-3.0738925947	-1.418519726	 0.113634
H	-0.649621706	-4.1983422402	-1.2177412912	 0.120304
H	-0.7838590293	-2.8639099481	-2.3688743616	 0.116532
H	-0.5571119321	-3.7819264199	 1.335735469	 0.102288
H	-0.8308148175	-2.0744959363	 1.9321686086	 0.120222
H	-2.7160320197	-3.6188562651	 0.0084913972	 0.094429
H	-2.8501555871	-0.9449526209	 0.8811809236	 0.288804
90.5312	113.8411	174.9826	202.0423	231.8219	238.5204	269.4408	311.1624	380.3538	436.1707	472.5361	503.5409	537.6563	732.477	806.6499	877.0052	913.8757	957.5412	1000.9245	1025.8541	1036.2504	1058.361	1110.634	1138.7933	1145.278	1175.9477	1190.8288	1217.6309	1252.0912	1278.5769	1341.4817	1362.3535	1416.2044	1427.0733	1455.6215	1482.0531	1485.6414	1490.5241	1495.6905	1499.6547	1507.8164	1526.733	2947.5276	2974.9131	2985.6539	3016.824	3035.7117	3073.0351	3102.8849	3123.3177	3124.2491	3148.5605	3217.8401	3729.249
COCC1(C)CC1O	COC[C@@]1(C)C[C@H]1O	
InChI=1S/C6H12O2/c1-6(4-8-2)3-5(6)7/h5,7H,3-4H2,1-2H3	InChI=1S/C6H12O2/c1-6(4-8-2)3-5(6)7/h5,7H,3-4H2,1-2H3/t5-,6-/m1/s1
