13
gdb 20528	5.02633	1.74393	1.30507	1.7348	60.52	-0.2855	-0.0589	0.2265	867.877	0.096796	-394.833777	-394.826921	-394.825977	-394.865315	24.025	
C	-0.0239135925	 1.5064826865	-0.047025809	-0.486688
C	-0.0255655997	 0.0066791708	 0.0600507578	 0.43266
O	-0.042618794	-0.6298966722	 1.0810355918	-0.29927
N	-0.0032970107	-0.6862140539	-1.184214486	-0.036783
C	 0.0012127676	-2.0377552121	-1.3781621923	 0.050413
N	 0.0239518541	-2.3129577504	-2.6585683044	-0.273815
C	 0.0331411448	-1.0675426102	-3.2355233929	 0.049625
N	 0.0177381339	-0.0557059444	-2.3962499467	-0.243142
H	 0.8640593587	 1.8480237202	-0.5855060144	 0.167908
H	-0.8884485524	 1.8478901388	-0.6223086861	 0.167917
H	-0.0447081102	 1.9223005855	 0.9595433668	 0.151263
H	-0.0127597519	-2.7337662332	-0.5551121808	 0.178155
H	 0.0518472322	-0.9178301254	-4.3048966037	 0.141759
93.6464	130.4269	168.2727	218.8203	387.6965	524.6891	577.1809	647.1536	660.4992	687.3735	899.0541	925.9346	958.3851	964.1126	1021.651	1060.3689	1115.1169	1163.292	1236.896	1269.8735	1312.1024	1387.1404	1408.5698	1430.944	1458.0015	1467.1768	1564.0742	1835.1673	3063.3788	3129.6709	3173.4093	3262.0561	3286.4629
CC(=O)N1C=NC=N1	CC(=O)n1cncn1	
InChI=1S/C4H5N3O/c1-4(8)7-3-5-2-6-7/h2-3H,1H3	InChI=1S/C4H5N3O/c1-4(8)7-3-5-2-6-7/h2-3H,1H3
