16
gdb 8827	3.06665	1.51743	1.15349	1.492	67.17	-0.2593	0.0044	0.2637	1066.2938	0.127246	-383.740214	-383.730833	-383.729889	-383.775237	32.097	
C	 0.7998434632	 1.376183125	-0.0169236785	-0.24135
O	 0.8831524635	-0.048581498	-0.1594011185	-0.228651
C	 0.0234652277	-0.5896279256	-1.0383064817	 0.451176
O	-0.8000612503	 0.0341739704	-1.6543236962	-0.35196
C	 0.2384937452	-2.1078713686	-1.1377362568	-0.251994
C	-0.9807295838	-2.7899279128	-1.7793665849	-0.384946
C	 1.4714244247	-2.3732552799	-1.8777824123	 0.336946
C	 2.4680496211	-2.5963395025	-2.5106756766	-0.480449
H	 1.0055326406	 1.8695484213	-0.9700498818	 0.14451
H	-0.1955306763	 1.6708501009	 0.3246501826	 0.142049
H	 1.5538308134	 1.6440196448	 0.7229055457	 0.136297
H	 0.3726163865	-2.4714404676	-0.1112000282	 0.130271
H	-1.8753888592	-2.6092808032	-1.1781960339	 0.124689
H	-1.1552704915	-2.388957825	-2.7790475166	 0.147406
H	-0.8116001832	-3.8664600221	-1.8516266038	 0.12484
H	 3.3544891283	-2.7942084769	-3.0608385984	 0.201165
26.7004	100.281	120.3366	173.0312	200.5148	210.4131	240.4433	324.39	407.2043	421.8685	547.7625	619.4492	638.0399	646.1947	781.1703	840.5655	896.5731	1005.1867	1037.7283	1112.7357	1121.4439	1179.1139	1201.6826	1226.167	1312.7309	1330.0029	1409.8628	1472.6395	1482.3778	1488.9684	1492.1945	1496.5002	1828.6003	2237.7474	3033.712	3053.4343	3058.1406	3128.8289	3133.3634	3148.9233	3162.2645	3505.117
COC(=O)C(C)C#C	COC(=O)[C@@H](C)C#C	
InChI=1S/C6H8O2/c1-4-5(2)6(7)8-3/h1,5H,2-3H3	InChI=1S/C6H8O2/c1-4-5(2)6(7)8-3/h1,5H,2-3H3/t5-/m0/s1
