21
gdb 89491	2.72078	1.50026	1.32533	1.4917	76.56	-0.2457	0.0704	0.316	1058.4886	0.184777	-424.245993	-424.237907	-424.236963	-424.277999	33.297	
O	 0.0113194677	 1.4259899319	-0.1166139855	-0.439623
C	 0.0219236444	 0.0133999389	 0.0123139536	 0.139482
C	 0.6566167254	-0.5206378173	 1.3380273028	-0.309378
C	-0.4924449737	-1.3428111509	 1.9738196273	 0.432581
O	-0.0860950949	-2.3422846868	 2.8803693684	-0.502259
C	-1.5600486198	-0.3600841644	 2.5071946195	-0.267588
C	-2.1851000724	 0.2225025021	 1.2021016737	-0.2126
C	-1.4227491744	-0.526597151	 0.0818454997	-0.033613
C	-1.1884502006	-1.9089068419	 0.7206099478	-0.257488
H	 0.9228784166	 1.7278504055	-0.1709496079	 0.282111
H	 0.5313162236	-0.4342154929	-0.8533367895	 0.064525
H	 1.5153675788	-1.171826292	 1.1499557641	 0.096116
H	 0.9827791029	 0.3092300034	 1.9744770428	 0.084493
H	 0.2694467919	-1.9088524482	 3.6631803391	 0.273478
H	-2.2938738762	-0.9137691769	 3.1007497923	 0.097909
H	-1.1238013688	 0.4117927622	 3.1503274191	 0.085761
H	-3.2547978937	 0.0027893762	 1.1458602574	 0.092547
H	-2.0599569389	 1.3022531872	 1.1152780466	 0.119876
H	-1.9294468241	-0.5109195108	-0.8842148081	 0.061531
H	-0.5364307972	-2.5661838436	 0.1372767594	 0.094693
H	-2.1125858266	-2.4435828206	 0.9574144276	 0.097449
110.5008	251.5997	258.9384	271.6279	286.9175	347.3148	421.8925	424.5174	470.7768	491.6465	537.6509	617.5863	737.6235	789.3543	819.3573	839.3985	885.2068	931.5275	949.0113	955.0337	975.0008	1002.774	1008.3972	1051.6277	1061.0639	1120.7888	1143.2143	1162.5997	1189.0478	1202.9518	1232.467	1250.6021	1257.3098	1267.3413	1289.6479	1309.9771	1330.8765	1345.5855	1363.9015	1397.1302	1424.1759	1480.1933	1491.4142	1496.1847	1522.2622	2984.628	3037.8629	3041.6306	3054.5543	3064.0246	3084.8939	3092.8843	3102.7797	3105.6959	3128.8356	3809.6137	3826.4434
OC1CC2(O)CCC1C2	O[C@H]1C[C@@]2(O)CC[C@@H]1C2	
InChI=1S/C7H12O2/c8-6-4-7(9)2-1-5(6)3-7/h5-6,8-9H,1-4H2	InChI=1S/C7H12O2/c8-6-4-7(9)2-1-5(6)3-7/h5-6,8-9H,1-4H2/t5-,6+,7-/m1/s1
