16
gdb 51856	3.51578	1.0921	0.87222	5.1867	66.54	-0.2408	-0.0487	0.1921	1266.4375	0.124065	-475.050003	-475.041628	-475.040684	-475.083929	29.735	
O	-0.2234691922	 0.0796526073	-0.0313652908	-0.269761
C	-0.124089496	 1.2668912448	-0.0679940668	 0.181688
O	 1.0475039269	 1.8976133304	 0.1960462152	-0.186015
C	 1.0815618056	 3.3057603884	 0.0367707895	 0.000569
C	 2.3432914212	 3.9365749415	 0.6391745567	-0.220435
N	 2.5843619053	 5.1622803047	-0.1423702369	-0.294286
C	 2.1993050063	 4.8554508142	-1.5259455353	-0.284934
C	 1.179323759	 3.7165272656	-1.4505687335	 0.379981
O	 0.5808619383	 3.1882713738	-2.3477080741	-0.2952
H	-0.9504753307	 1.9649789102	-0.2891741144	 0.090164
H	 0.178510997	 3.7687527336	 0.4621434891	 0.11031
H	 2.2555545435	 4.1670731	 1.7016452674	 0.124879
H	 3.181386956	 3.2413209696	 0.5103733274	 0.138582
H	 1.9984838317	 5.9087696473	 0.2154343236	 0.230284
H	 1.8010319655	 5.7249777119	-2.0545748467	 0.142822
H	 3.0647191225	 4.4973319268	-2.1015134804	 0.151352
71.6813	76.2097	137.2784	175.2097	244.9222	297.8959	376.7297	424.6851	532.9049	571.5193	660.7454	700.7739	758.2925	793.1511	910.7755	977.0337	986.13	1026.6949	1073.9045	1084.8176	1102.1285	1140.0991	1167.6028	1202.3484	1260.9388	1287.8735	1302.9937	1332.9618	1376.3511	1436.796	1458.166	1465.4299	1500.7003	1858.0914	1874.7429	2983.4795	3000.5342	3016.6076	3047.4581	3104.9781	3127.0393	3529.6883
O=COC1CNCC1=O	O=CO[C@H]1CNCC1=O	
InChI=1S/C5H7NO3/c7-3-9-5-2-6-1-4(5)8/h3,5-6H,1-2H2	InChI=1S/C5H7NO3/c7-3-9-5-2-6-1-4(5)8/h3,5-6H,1-2H2/t5-/m0/s1
