17
gdb 55563	3.21178	0.89189	0.8131	1.9534	76.17	-0.2544	-0.0481	0.2062	1449.5348	0.131011	-421.829821	-421.819629	-421.818685	-421.8666	35.292	
C	 0.280914533	 0.86106296	-0.18218745	-0.476807
C	-0.6634147999	 0.012665955	 0.6369130336	 0.378751
O	-0.4827532756	-0.2550869221	 1.801133238	-0.291145
C	-1.8702146996	-0.5663264077	-0.1214294186	-0.384487
C	-1.4754326122	-1.970818266	-0.5957760618	 0.378265
O	-0.9641278556	-2.1540331216	-1.6696025318	-0.27731
C	-1.7343506953	-3.074936866	 0.4349958001	-0.484813
C	-1.2010833176	-4.3777344298	 0.0815120382	 0.320208
C	-0.7615292846	-5.4570466404	-0.2063385934	-0.422319
H	 1.1681035276	 1.1121143153	 0.3996439423	 0.146691
H	 0.5582257468	 0.321669906	-1.0950496744	 0.165381
H	-0.2262404149	 1.7797177172	-0.4996366495	 0.146362
H	-2.7155033132	-0.6094925014	 0.5688067707	 0.133863
H	-2.1136421347	 0.0340476544	-0.9992582167	 0.13106
H	-1.3322708742	-2.7177255267	 1.3937943772	 0.180046
H	-2.8225792965	-3.1252910265	 0.5857727735	 0.155737
H	-0.3692706138	-6.4093949297	-0.4643781274	 0.200518
36.1611	46.0984	76.0875	139.1039	147.5354	175.3865	297.2436	333.5089	378.6829	423.7246	487.0384	503.4758	571.1172	626.7527	647.5061	666.0388	783.0176	816.5839	903.3718	938.466	951.1452	1013.7142	1051.0025	1089.485	1160.6312	1207.8783	1245.8637	1262.2878	1341.3227	1385.07	1440.2003	1460.7189	1471.9395	1473.5241	1802.1397	1830.6755	2251.1292	3011.5341	3035.7741	3040.9808	3075.5638	3097.1787	3145.9437	3157.6053	3507.1544
CC(=O)CC(=O)CC#C	CC(=O)CC(=O)CC#C	
InChI=1S/C7H8O2/c1-3-4-7(9)5-6(2)8/h1H,4-5H2,2H3	InChI=1S/C7H8O2/c1-3-4-7(9)5-6(2)8/h1H,4-5H2,2H3
