15
gdb 132552	3.17868	1.38749	0.97208	5.1491	71.1	-0.2368	-0.0215	0.2153	1129.4917	0.113796	-458.174521	-458.166728	-458.165783	-458.206638	29.569	
C	-0.0115490182	 1.5266660215	-0.0158439293	-0.524424
C	 0.0001279466	 0.0242427446	-0.0103673774	 0.211402
C	-0.0571440782	-0.734467151	-1.16412677	-0.054936
N	-0.0377660953	-2.0771457133	-1.1933508444	-0.335721
C	 0.0414070927	-2.6328275114	-0.0031054975	 0.337042
F	 0.0626133637	-3.9553361968	 0.0118112562	-0.063225
N	 0.0983828915	-2.064394337	 1.185587155	-0.380881
C	 0.0811053267	-0.7250557145	 1.1883591195	 0.334153
N	 0.182835465	-0.1207188672	 2.4064379667	-0.56634
H	 0.8852586432	 1.9414369091	 0.4609115681	 0.136764
H	-0.0508926546	 1.9102936793	-1.0385965968	 0.13674
H	-0.8810567084	 1.9344105493	 0.5173798998	 0.127283
H	-0.1214807884	-0.2399363333	-2.131701328	 0.112196
H	 0.0657018213	-0.7186323068	 3.2089152364	 0.267627
H	-0.0940310777	 0.8401101277	 2.5075554017	 0.26232
125.9821	181.3292	228.8821	283.7922	320.4738	349.8849	357.1177	465.7839	494.5374	525.2406	561.7883	589.4701	744.1833	766.1451	787.3145	819.5887	977.3312	988.6937	1024.8808	1070.3866	1124.5877	1222.9475	1306.777	1335.3596	1371.6827	1415.0442	1472.5904	1483.4946	1485.3023	1507.9387	1611.0684	1632.0417	1655.6781	3010.2286	3058.7095	3112.3124	3147.6035	3603.8679	3730.4695
CC1=CN=C(F)N=C1N	Cc1cnc(F)nc1N	
InChI=1S/C5H6FN3/c1-3-2-8-5(6)9-4(3)7/h2H,1H3,(H2,7,8,9)	InChI=1S/C5H6FN3/c1-3-2-8-5(6)9-4(3)7/h2H,1H3,(H2,7,8,9)
