16
gdb 22970	2.12956	1.39362	0.96016	1.4147	76.24	-0.2455	-0.04	0.2055	1213.1769	0.122315	-437.777744	-437.768754	-437.76781	-437.812883	32.078	
O	-1.6469486651	-1.5611401661	 2.0693911046	-0.381003
N	-0.6991194116	-1.4129932857	 1.0631976939	-0.180549
C	-1.1267413256	-0.6962953553	 0.0801634208	 0.18647
C	-0.2028147556	-0.5024787621	-0.9912035767	 0.289943
C	 0.5244664649	-0.2986169841	-1.9286533561	-0.41634
C	-2.4864680903	-0.0632420566	-0.0273414813	-0.147303
C	-2.563088565	 1.4369693502	-0.4170087341	-0.085512
O	-3.4316948067	 1.1542049709	-1.5294126606	-0.270956
C	-3.2822510305	-0.265387839	-1.3442523848	-0.085493
H	-1.1788843324	-2.1080048346	 2.7098681989	 0.316129
H	 1.1803548704	-0.129537122	-2.7470037972	 0.207372
H	-3.0669184697	-0.3012818438	 0.8598611241	 0.121504
H	-3.0339373785	 2.0952773612	 0.3215846181	 0.109229
H	-1.6094629837	 1.8723372948	-0.7395069914	 0.113639
H	-2.708095763	-0.7283314918	-2.1560348796	 0.113632
H	-4.2466369375	-0.7753776262	-1.2420206185	 0.109238
27.9797	63.9498	152.7536	169.0597	231.3926	246.4919	350.0102	410.1018	475.2853	559.2469	594.1448	620.3218	653.0578	673.1776	677.0211	844.4776	891.1708	951.08	1012.7685	1013.0865	1033.9996	1047.1113	1104.9616	1164.6886	1168.8842	1263.4642	1273.3265	1311.1538	1327.447	1375.8894	1422.6265	1505.3453	1532.6863	1664.4845	2226.0584	3015.8009	3026.149	3068.3421	3068.8157	3155.924	3500.4959	3815.6507
ON=C(C#C)C1COC1	ON=C(C#C)C1COC1	
InChI=1S/C6H7NO2/c1-2-6(7-8)5-3-9-4-5/h1,5,8H,3-4H2	InChI=1S/C6H7NO2/c1-2-6(7-8)5-3-9-4-5/h1,5,8H,3-4H2
