19
gdb 75319	2.37406	1.61479	1.12431	2.8376	82.38	-0.2292	-0.0216	0.2076	1127.1611	0.158784	-385.911218	-385.902719	-385.901774	-385.94418	32.295	
C	-0.0089091157	 1.5400785877	-0.1455103925	-0.504008
C	-0.0182707262	 0.0436416145	-0.0654002905	 0.230698
C	-0.0336206519	-0.8170980354	-1.0894873991	-0.175113
C	-0.0419430883	-2.2658695709	-0.6538566125	-0.282672
C	 0.1090761903	-2.190969186	 0.8635288956	-0.063054
C	 1.3148663132	-1.5413045493	 1.4380589185	-0.309858
C	 0.0568368425	-0.689518771	 1.2426612301	 0.173379
C	-0.6833848044	-0.2729042671	 2.4515832094	 0.061513
O	-0.6228785506	-0.8392894303	 3.5200324806	-0.279346
H	 0.8762655653	 1.9586495053	 0.3493839819	 0.131413
H	-0.0140596842	 1.8796708499	-1.1845089154	 0.128106
H	-0.8817467534	 1.9797464623	 0.3523575398	 0.131939
H	-0.0178013869	-0.5268378094	-2.134660271	 0.091417
H	-0.9770859731	-2.7667848053	-0.9371336536	 0.113297
H	 0.768989649	-2.8434301456	-1.1166366921	 0.114687
H	-0.4299847743	-2.8866887756	 1.4953717104	 0.111858
H	 1.552399673	-1.7769275303	 2.4696593456	 0.140305
H	 2.1541995147	-1.3070681236	 0.7916707294	 0.118205
H	-1.3390583192	 0.6167444802	 2.3213281253	 0.067235
101.6541	140.7065	186.2022	197.026	242.173	284.4276	304.6749	403.1773	509.0198	568.5501	598.4169	694.4915	736.5074	786.0161	816.2611	851.2125	897.4945	950.0931	965.0965	1000.6089	1030.9139	1053.0367	1067.3713	1080.5651	1085.3976	1101.0637	1148.3267	1189.8382	1241.7233	1267.8243	1319.9012	1347.0937	1383.9781	1413.0211	1441.8888	1461.694	1480.2856	1483.5204	1489.8346	1704.7311	1795.2721	2878.6837	3016.1705	3021.7373	3042.4484	3068.7595	3113.6937	3129.6615	3187.5968	3189.3609	3229.0494
CC1=CCC2CC12C=O	CC1=CC[C@H]2C[C@@]12C=O	
InChI=1S/C8H10O/c1-6-2-3-7-4-8(6,7)5-9/h2,5,7H,3-4H2,1H3	InChI=1S/C8H10O/c1-6-2-3-7-4-8(6,7)5-9/h2,5,7H,3-4H2,1H3/t7-,8+/m0/s1
