16
gdb 32241	2.69279	1.59036	1.00693	1.6145	78.02	-0.2002	-0.0205	0.1797	1132.2538	0.12627	-434.129932	-434.121738	-434.120793	-434.162881	30.281	
C	-0.0906178322	 1.4794908615	-0.010935147	-0.313444
N	 0.1207337982	 0.0469564982	 0.0236730341	-0.356003
C	 0.6574892857	-0.6270683971	-1.0340694507	 0.3408
N	 1.1709584507	 0.0333139593	-2.0616112416	-0.340887
C	 1.7196204315	-0.698876415	-3.0513126418	-0.034521
C	 1.7449880884	-2.0749305903	-3.0247325942	-0.058478
N	 1.2100513698	-2.7596263997	-1.9857071987	-0.334624
C	 0.6857687982	-2.0546650183	-1.0230369621	 0.364095
O	 0.1279664389	-2.6768619983	 0.046377838	-0.435488
H	 0.8478117431	 1.9916001758	-0.237448876	 0.149619
H	-0.8233103133	 1.7796319505	-0.7723622453	 0.126379
H	-0.4441715046	 1.8046316249	 0.9697255621	 0.121626
H	-0.4133329236	-0.5059111462	 0.6722048415	 0.260076
H	 2.1417577776	-0.1458806556	-3.8851344834	 0.104632
H	 2.1843246636	-2.6594352352	-3.8254172999	 0.106409
H	 0.2222507779	-3.6264501646	-0.112034395	 0.299809
98.979	106.9347	166.9207	196.1063	328.0875	337.2255	395.2977	455.3796	531.7858	545.2162	576.9017	603.0942	612.6727	796.2894	811.722	850.0567	909.0131	946.1759	1071.9017	1113.7281	1127.5629	1155.3704	1175.4409	1254.2528	1275.6911	1326.0924	1403.8474	1452.9335	1466.9423	1477.6598	1492.4797	1515.914	1566.108	1599.6873	1651.068	3012.5227	3090.7413	3134.4594	3168.4043	3194.0414	3664.8121	3766.7663
CNC1=NC=CN=C1O	CNc1nccnc1O	
InChI=1S/C5H7N3O/c1-6-4-5(9)8-3-2-7-4/h2-3H,1H3,(H,6,7)(H,8,9)	InChI=1S/C5H7N3O/c1-6-4-5(9)8-3-2-7-4/h2-3H,1H3,(H,6,7)(H,8,9)
