20
gdb 69455	3.549	1.18515	1.04906	2.8838	79.17	-0.2442	-0.0251	0.2191	1203.9522	0.171432	-403.155789	-403.147149	-403.146204	-403.189426	32.646	
C	 0.0449894677	 1.4250513683	-0.2826552218	-0.465809
C	-0.0345113802	-0.0500353339	 0.0205160349	 0.343982
C	-1.3472465032	-0.7842969717	-0.2303605962	-0.279517
C	-1.2349725512	-2.1197863913	 0.5363612608	-0.261295
C	-0.2225851143	-1.8684552845	 1.6774778544	-0.104924
C	 0.6570451059	-3.0595539319	 2.0032493253	 0.153925
O	 0.7997208026	-4.0214524377	 1.2903238247	-0.246953
C	 0.6425051594	-0.7005626539	 1.1797046728	-0.082344
N	 1.2099274203	-0.8150270993	-0.17103567	-0.366779
H	 1.0321416855	 1.8173077494	-0.0271134606	 0.129706
H	-0.1226806509	 1.611066567	-1.3497306171	 0.121368
H	-0.7129685768	 1.98378733	 0.2775858137	 0.112992
H	-2.1691324518	-0.1748423498	 0.1650542653	 0.102576
H	-1.5481592813	-0.9301363309	-1.2980137105	 0.104862
H	-2.199074641	-2.4607519296	 0.9204281843	 0.109155
H	-0.8563379752	-2.9225261198	-0.1009618967	 0.132596
H	-0.7150590399	-1.5485838874	 2.6056434452	 0.087506
H	 1.2250637392	-2.9714556363	 2.9569960517	 0.08182
H	 1.2483922633	-0.153712267	 1.8971146271	 0.091578
H	 1.045420142	-1.7391221098	-0.5649079474	 0.235556
46.7775	129.8328	190.0445	209.4845	214.5057	296.1605	338.94	396.1461	468.2981	563.0328	627.2817	688.0765	703.2264	805.342	829.6693	862.2885	922.218	938.6642	970.6698	999.9703	1010.7366	1033.747	1063.9562	1080.0275	1110.1173	1120.8607	1164.0371	1197.4129	1251.7751	1272.1865	1277.5955	1301.6128	1313.0886	1342.6306	1362.2462	1407.7252	1423.6528	1442.0965	1486.2322	1490.8071	1500.8477	1515.5659	1820.7158	2875.6244	3020.9826	3027.174	3032.2869	3063.7605	3077.1646	3089.6265	3115.2726	3123.3042	3144.451	3489.9476
CC12CCC(C=O)C1N2	C[C@]12CC[C@@H](C=O)[C@H]1N2	
InChI=1S/C7H11NO/c1-7-3-2-5(4-9)6(7)8-7/h4-6,8H,2-3H2,1H3	InChI=1S/C7H11NO/c1-7-3-2-5(4-9)6(7)8-7/h4-6,8H,2-3H2,1H3/t5-,6+,7-/m0/s1
