15
gdb 20787	5.01312	1.79314	1.42876	5.3682	67.4	-0.2505	0.0097	0.2602	859.8868	0.121095	-358.807952	-358.801375	-358.800431	-358.838798	24.441	
C	-0.2149064817	 1.5760714287	 0.0366262932	-0.398186
C	-0.022131768	 0.0652589032	 0.0060435463	-0.154087
C	 0.717051014	-0.5333360062	-1.2622253304	-0.186646
N	 1.737792029	-1.0023457878	-0.3007471554	 0.091998
N	 2.8845263975	-1.6565374272	-0.0651397971	-0.181193
N	 3.0359308645	-1.5780204429	 1.2390348575	-0.181347
C	 2.0017301209	-0.890281532	 1.8219377936	-0.220186
C	 1.1530493098	-0.5168797191	 0.8027008545	 0.318856
H	 0.72274221	 2.0981406202	-0.1771476825	 0.132345
H	-0.9605630644	 1.8875738848	-0.7017790489	 0.125989
H	-0.5627913651	 1.8990947215	 1.0223456211	 0.134579
H	-0.9665894032	-0.4489908691	 0.2047880197	 0.109564
H	 0.204720147	-1.3436902265	-1.7841636486	 0.143456
H	 1.0977836786	 0.2021204399	-1.9742140882	 0.141753
H	 1.9684873812	-0.7347417774	 2.8866990053	 0.123105
118.1571	152.2101	236.0508	283.5934	428.0595	459.8385	665.893	697.1203	722.0678	752.0619	829.0271	856.5936	916.5511	982.7601	1026.2523	1086.6199	1096.1121	1114.4185	1131.5443	1171.2814	1207.5813	1227.6908	1253.7703	1282.383	1318.0128	1369.4027	1413.9597	1475.5995	1494.309	1498.0213	1516.9814	1536.4702	3038.6707	3070.5757	3075.5663	3110.622	3116.0053	3138.2074	3284.5073
CC1CN2N=NC=C12	C[C@H]1Cn2nncc12	
InChI=1S/C5H7N3/c1-4-3-8-5(4)2-6-7-8/h2,4H,3H2,1H3	InChI=1S/C5H7N3/c1-4-3-8-5(4)2-6-7-8/h2,4H,3H2,1H3/t4-/m0/s1
