17
gdb 51047	2.11352	1.39233	0.99348	4.1624	69.22	-0.2529	-0.0484	0.2045	1207.113	0.132453	-458.955777	-458.946463	-458.945519	-458.991335	31.892	
O	 0.2924064007	-0.3366489073	 0.1466841386	-0.239491
C	 0.1117467859	 0.807577987	-0.1748310235	 0.176183
C	 1.0934198815	 1.9305153431	 0.1096033773	-0.348035
C	 1.2716808456	 2.8625451798	-1.0841203201	 0.31317
C	 2.6089325708	 3.6617675106	-1.1547005555	-0.339717
C	 2.895153433	 2.7977734897	-2.3980057903	-0.069273
O	 1.6020758273	 2.1568099377	-2.3032274819	-0.315716
C	 0.0610677925	 3.7595469222	-1.3139863616	 0.122984
O	-0.7159201537	 4.0904783185	-0.456606097	-0.250568
H	-0.8212051997	 1.1193762906	-0.694751832	 0.086706
H	 0.6875510295	 2.5243137094	 0.9398587537	 0.149921
H	 2.0429542495	 1.4884114505	 0.4204301906	 0.121211
H	 2.498127631	 4.7303057776	-1.349273074	 0.127024
H	 3.2663310479	 3.5197460749	-0.2967173434	 0.131755
H	 3.0110757715	 3.3404542935	-3.3420310188	 0.117239
H	 3.7134389528	 2.076168306	-2.2970528622	 0.119281
H	-0.0267753962	 4.1092831262	-2.3666610998	 0.097327
54.9958	75.7068	86.6005	94.7776	164.1621	250.9427	276.7856	373.4404	416.1081	470.8374	535.5092	708.1139	780.2377	835.5179	862.0469	909.409	938.1994	971.7574	1012.9538	1028.948	1030.4516	1106.8807	1143.4116	1161.3085	1204.6544	1229.7397	1258.9357	1289.5405	1301.4281	1351.4796	1394.9302	1434.5572	1438.3766	1487.0845	1531.5199	1826.2638	1839.9165	2887.2127	2894.6185	3033.3816	3034.9649	3076.6601	3082.749	3111.6039	3141.6071
O=CCC1(CCO1)C=O	O=CC[C@]1(CCO1)C=O	
InChI=1S/C6H8O3/c7-3-1-6(5-8)2-4-9-6/h3,5H,1-2,4H2	InChI=1S/C6H8O3/c7-3-1-6(5-8)2-4-9-6/h3,5H,1-2,4H2/t6-/m0/s1
