16
gdb 49456	3.18733	1.54419	1.48404	4.0849	72.8	-0.2244	-0.0289	0.1956	940.246	0.125828	-400.7379	-400.731135	-400.73019	-400.769182	27.222	
O	 0.0626502239	 0.0357045336	 0.3607451099	-0.337936
C	 0.0850097709	 1.2297331331	 0.1460448469	 0.1417
N	 1.1679585472	 1.9241899702	-0.2899249163	 0.007337
C	 2.5707869544	 1.4742521466	-0.1741046235	-0.132644
C	 3.1710652935	 2.3811121409	-1.2754879278	-0.065689
C	 2.494463094	 3.5257174225	-1.2268157749	-0.062081
C	 1.4539237918	 3.3604886678	-0.0921203625	-0.153001
C	 2.2558169058	 3.2776107429	 1.2388301473	-0.071047
C	 2.9309516172	 2.1324505973	 1.188612958	-0.061368
H	-0.8104519061	 1.8803024289	 0.2234096438	 0.06789
H	 2.6978621765	 0.3995079885	-0.262407556	 0.11088
H	 4.0097242181	 2.1081557111	-1.8989470265	 0.117718
H	 2.6374558479	 4.432566975	-1.7958944931	 0.116649
H	 0.5792293917	 4.0084081252	-0.1127943336	 0.087936
H	 2.2733723765	 4.0515290819	 1.9926032625	 0.115464
H	 3.6447334768	 1.7274773145	 1.8911247357	 0.118191
75.6678	204.9154	295.6304	404.16	444.8475	501.9324	560.3366	625.8099	688.5735	728.4672	741.9419	765.1344	847.6501	871.1839	885.3526	897.84	906.3943	911.2779	932.736	955.1986	1027.9381	1068.0427	1137.5842	1140.8414	1207.3732	1228.5922	1237.8398	1249.9044	1273.6853	1312.8757	1400.7543	1436.8698	1614.9877	1654.9604	1789.0031	2920.0178	3139.1924	3177.8103	3227.7524	3230.8407	3253.6826	3256.5665
O=CN1C2C=CC1C=C2	O=CN1[C@H]2C=C[C@@H]1C=C2	
InChI=1S/C7H7NO/c9-5-8-6-1-2-7(8)4-3-6/h1-7H	InChI=1S/C7H7NO/c9-5-8-6-1-2-7(8)4-3-6/h1-7H/t6-,7+
