19
gdb 127592	2.95601	1.27142	0.9365	2.4809	79.87	-0.2215	0.0265	0.248	1263.7183	0.159331	-419.229119	-419.219456	-419.218511	-419.264177	34.041	
C	-0.1041704984	 1.3990725182	 0.0432303734	-0.327503
N	 0.1260753226	-0.0288905114	 0.0184446289	-0.008067
N	 0.4605090449	-0.628711336	-1.1471536751	-0.281831
C	 0.5700621664	-1.9155074915	-0.8354141171	-0.089227
C	 0.3138072079	-2.1578256365	 0.5292479541	 0.130758
C	 0.3670236963	-3.4624378094	 1.2543465542	-0.21866
O	-0.852662332	-3.657040843	 1.975181939	-0.413261
C	 0.0257163438	-0.9049206216	 1.0543297051	 0.294689
C	-0.338562179	-0.4870961001	 2.44116326	-0.512748
H	 0.5537635133	 1.8916739756	 0.7662798961	 0.13529
H	 0.1097935072	 1.7764151122	-0.9558524694	 0.161884
H	-1.1435749134	 1.6294004276	 0.300886661	 0.137422
H	 0.8325999005	-2.6325215901	-1.6008345284	 0.104312
H	 0.5277672227	-4.2706845947	 0.5246463004	 0.09624
H	 1.2213796817	-3.4863306724	 1.9506796641	 0.091385
H	-0.7589292475	-4.4620091636	 2.4947842135	 0.284934
H	 0.4685682703	 0.0737915041	 2.9291993981	 0.127546
H	-1.2297578165	 0.1506818982	 2.4516603469	 0.130208
H	-0.5574959809	-1.3745509854	 3.036001795	 0.15663
68.1253	70.7071	126.5561	137.5609	197.4077	255.1955	259.8754	278.8508	317.8991	414.0152	478.0687	613.2509	658.4638	694.3798	711.1782	792.3404	877.0267	959.2153	1012.3927	1035.8739	1045.1456	1064.4743	1139.0246	1149.4059	1207.1254	1208.671	1247.1565	1271.4661	1334.2196	1384.6044	1412.4405	1421.0669	1455.5577	1470.1095	1481.8833	1488.7214	1496.4066	1503.5243	1518.7137	1529.4754	1613.8432	2959.1988	2995.7462	3022.2474	3035.4729	3072.39	3091.9021	3146.9684	3166.0616	3233.2832	3813.331
CN1N=CC(CO)=C1C	Cn1ncc(CO)c1C	
InChI=1S/C6H10N2O/c1-5-6(4-9)3-7-8(5)2/h3,9H,4H2,1-2H3	InChI=1S/C6H10N2O/c1-5-6(4-9)3-7-8(5)2/h3,9H,4H2,1-2H3
