15
gdb 13573	3.85202	1.54376	1.25017	3.4754	70.06	-0.256	-0.039	0.217	975.8224	0.116767	-362.624385	-362.616126	-362.615181	-362.65722	29.521	
C	 0.3132917071	 1.3859332751	 0.2084597874	-0.403544
C	 0.0137483413	-0.0620104814	-0.0961300143	 0.015368
C	 0.7840499815	-0.8103022947	-1.153878483	-0.255104
N	 0.9588833179	-1.1022502124	 0.2531461089	-0.083278
C	 2.1043129346	-0.9495645719	 1.0133537952	 0.246005
O	 2.1313668839	-0.3699432855	 2.0794311675	-0.335111
C	 3.2672872213	-1.6258538761	 0.458504882	 0.267078
C	 4.252863802	-2.1567193408	 0.0189449138	-0.437084
H	 1.3430873204	 1.6442353023	-0.0534140174	 0.128034
H	-0.3611676779	 2.0323392358	-0.3618553418	 0.122329
H	 0.1799662103	 1.5936753304	 1.2731959153	 0.153497
H	-1.0234233372	-0.3581912048	 0.0537978891	 0.107451
H	 0.3002353075	-1.5840782571	-1.7438827982	 0.128997
H	 1.585880005	-0.2777741087	-1.6604914955	 0.133016
H	 5.1292053022	-2.6258703803	-0.3573642491	 0.212348
70.5844	126.7594	157.7981	193.8683	251.8508	282.3184	373.0945	408.3289	537.735	578.0552	655.2571	694.9667	705.6289	771.8723	837.6252	906.9431	908.896	1042.3993	1064.8145	1117.8088	1129.3527	1160.9854	1189.9626	1193.6999	1380.5632	1412.8738	1435.8818	1483.7173	1491.902	1514.1588	1750.6888	2222.8244	3044.9484	3104.5149	3109.757	3121.8019	3130.9531	3193.8911	3495.6369
CC1CN1C(=O)C#C	C[C@H]1CN1C(=O)C#C	
InChI=1S/C6H7NO/c1-3-6(8)7-4-5(7)2/h1,5H,4H2,2H3	InChI=1S/C6H7NO/c1-3-6(8)7-4-5(7)2/h1,5H,4H2,2H3/t5-,7?/m0/s1
