20
gdb 105751	2.27684	1.38204	1.10547	3.0276	78.59	-0.2717	0.0343	0.3059	1196.8681	0.171699	-403.17359	-403.164417	-403.163472	-403.208113	33.594	
C	-0.1927176767	 1.4472780723	 0.1158291798	-0.408093
C	-0.0675847534	-0.0510586121	-0.1664031167	-0.225585
C	 0.9018167807	-0.4340287865	-1.3160276377	 0.146625
C	 0.9964680089	-1.9929140927	-1.4620951829	-0.29642
C	 0.2304585167	-2.2880192464	-2.7726454349	-0.077561
O	-0.5168094336	-1.1137838889	-3.0609123436	-0.239705
C	 0.3188707267	-0.0347848264	-2.70709527	-0.124221
C	 2.2179507818	 0.1670284609	-1.0992039611	 0.251756
N	 3.2549559784	 0.6509838278	-0.9325452914	-0.356785
H	 0.7729038085	 1.8808504806	 0.3924364476	 0.146269
H	-0.5736092287	 2.0001530098	-0.7486114977	 0.122433
H	-0.8878424671	 1.6175785082	 0.9430387564	 0.122755
H	 0.2638721151	-0.5653783289	 0.7425645491	 0.113015
H	-1.0431214405	-0.4742042502	-0.4318748593	 0.119211
H	 2.0316988657	-2.3338978005	-1.5115725074	 0.130181
H	 0.5278569106	-2.4724951323	-0.6000370206	 0.121612
H	 0.9335533765	-2.5014233027	-3.5920337872	 0.103191
H	-0.4708658786	-3.1213064161	-2.6924271857	 0.118654
H	-0.283743132	 0.8742931605	-2.6792316238	 0.124694
H	 1.1333146411	 0.0991873235	-3.4356215929	 0.107975
40.8368	108.9585	156.2483	172.2169	207.374	260.8191	269.1366	366.9058	407.8397	508.3929	559.2815	599.2296	674.6382	751.4811	791.953	829.5228	916.6709	950.7225	968.1791	994.1819	1006.6274	1030.1968	1059.8799	1109.1884	1142.3747	1168.5224	1186.3524	1238.068	1266.1144	1285.4929	1311.744	1324.2067	1358.29	1368.245	1400.0241	1419.0612	1482.9802	1495.5561	1497.547	1503.4948	1510.0239	1524.2362	2349.4219	2987.2247	2992.6963	3036.5229	3042.3949	3075.9105	3076.9436	3104.0501	3109.1571	3117.7299	3123.0842	3129.3629
CCC1(CCOC1)C#N	CC[C@]1(CCOC1)C#N	
InChI=1S/C7H11NO/c1-2-7(5-8)3-4-9-6-7/h2-4,6H2,1H3	InChI=1S/C7H11NO/c1-2-7(5-8)3-4-9-6-7/h2-4,6H2,1H3/t7-/m0/s1
