13
gdb 27139	2.87265	1.34553	1.07592	3.1801	61.81	-0.2308	-0.0079	0.2229	1082.2126	0.089856	-489.927843	-489.920028	-489.919084	-489.961474	27.613	
O	 0.7111513366	 1.1201283075	-0.3230599314	-0.424145
C	 0.2258147014	-0.1184080328	-0.150776793	 0.289275
C	-0.3765570686	-0.9109222258	-1.0764029299	 0.289001
N	-0.6711899428	-0.7812549771	-2.4218341211	-0.420296
C	 0.1492709155	-1.2534877705	-3.4276394826	 0.137873
O	 1.1899982233	-1.8333071442	-3.2586204191	-0.282522
O	-0.7124210219	-2.0900473743	-0.4198389252	-0.154401
C	-0.286173939	-1.9101061252	 0.8328689576	 0.092826
N	 0.2751098234	-0.7617736943	 1.0659601777	-0.339407
H	 1.1001368009	 1.3884342564	 0.5184674983	 0.310791
H	-1.5295579368	-0.3267007296	-2.7005582017	 0.260092
H	-0.2785274629	-1.0283502488	-4.4247016451	 0.082326
H	-0.4419196092	-2.7196772612	 1.5288938956	 0.158588
30.1248	106.153	177.392	262.6085	333.7946	366.3987	375.2734	475.4176	520.6282	635.044	640.4514	732.2031	746.4814	845.288	887.1924	956.5177	1036.5123	1065.2994	1110.8763	1179.4431	1206.7146	1323.0788	1350.5885	1416.405	1437.099	1491.3919	1547.5867	1749.8289	1838.1947	2942.5175	3272.6942	3577.4374	3805.4129
OC1=C(NC=O)OC=N1	Oc1c(NC=O)ocn1	
InChI=1S/C4H4N2O3/c7-1-5-4-3(8)6-2-9-4/h1-2,8H,(H,5,7)	InChI=1S/C4H4N2O3/c7-1-5-4-3(8)6-2-9-4/h1-2,8H,(H,5,7)
