19
gdb 120708	2.60114	1.17698	0.91393	6.5688	73.54	-0.239	0.0211	0.2602	1309.9033	0.160197	-456.346054	-456.337085	-456.336141	-456.380193	32.787	
C	-0.4468525456	 1.3736609214	-0.173279062	-0.323272
N	-0.888994069	 0.0262691543	 0.1773828257	-0.29208
H	-0.2596590479	-0.4066249186	 0.8469421984	 0.250369
H	-2.3722174669	-0.2290369544	 0.946528847	 0.324748
C	-1.022017424	-0.8701668978	-0.9696127224	-0.17366
C	-1.4246494645	-2.2726072838	-0.5379210817	-0.047344
N	-1.1857664909	-2.6218451833	 0.8601538731	-0.346559
C	-2.57579992	-2.6274421195	 0.3538356748	-0.141987
C	-3.6278847174	-1.713248703	 0.9557014865	 0.412275
O	-4.7370201434	-2.1528635741	 1.1434960374	-0.346784
O	-3.2990874886	-0.4634872119	 1.253655154	-0.393132
H	-0.3104745751	 1.9597422409	 0.7387672093	 0.136727
H	 0.4957109176	 1.3838458524	-0.7425796549	 0.112178
H	-1.2146891771	 1.8641422766	-0.7796147473	 0.139625
H	-1.7758395964	-0.4569426234	-1.6513086043	 0.129689
H	-0.0811166148	-0.9376166091	-1.5427892127	 0.100887
H	-1.205282566	-3.0233924328	-1.2954666815	 0.10007
H	-0.8426991306	-3.5714028698	 0.9673436	 0.246048
H	-3.0213670498	-3.5995073943	 0.1624766205	 0.1122
72.0526	108.0984	137.5527	188.343	238.1791	259.4312	303.7768	336.4341	381.5831	477.0665	596.5203	675.0694	733.3635	801.8994	818.8606	834.9362	908.855	962.7262	965.9114	1011.3686	1031.6411	1053.2549	1092.3124	1137.3602	1160.3486	1180.0588	1190.3389	1223.5368	1256.4778	1286.8757	1336.3889	1389.6377	1397.175	1452.2023	1461.909	1472.2781	1492.8487	1504.8859	1514.6532	1517.5752	1833.6576	2949.9231	2979.2072	3019.3717	3049.2552	3079.5182	3119.7219	3123.4262	3156.4895	3521.1182	3522.9918
C[NH2+]CC1NC1C([O-])=O	CNC[C@H]1N[C@H]1C(=O)O	
InChI=1S/C5H10N2O2/c1-6-2-3-4(7-3)5(8)9/h3-4,6-7H,2H2,1H3,(H,8,9)	InChI=1S/C5H10N2O2/c1-6-2-3-4(7-3)5(8)9/h3-4,6-7H,2H2,1H3,(H,8,9)/t3-,4-/m1/s1
