15
gdb 45944	2.23429	1.97067	1.14621	2.9293	66.31	-0.2441	-0.0696	0.1745	1018.7099	0.111252	-457.7813	-457.773409	-457.772465	-457.814459	28.717	
O	 0.0444766224	 0.0424694968	-0.4016773401	-0.302228
C	 0.0129958351	 1.2117061306	-0.1219863419	 0.317185
C	-1.232091155	 2.0404668274	 0.2132806541	-0.348417
C	-0.8172818333	 3.5213451811	 0.0871627994	-0.346193
C	 0.7145398991	 3.5502619041	 0.0994480182	 0.328173
O	 1.4122943145	 4.5267509377	 0.1820863227	-0.303971
C	 1.2054943069	 2.1278442686	-0.0160240699	 0.225395
C	 2.4730711459	 1.6870566917	 0.6241510888	-0.20877
O	 2.3841896631	 1.8540218887	-0.76981772	-0.243563
H	-2.063401931	 1.7468513293	-0.4310017814	 0.146982
H	-1.5252170846	 1.7929079401	 1.2408038111	 0.146888
H	-1.1395958938	 3.9477899363	-0.8703574916	 0.153476
H	-1.216450117	 4.1708350488	 0.8694730997	 0.144332
H	 3.0538669384	 2.4392646685	 1.1553048164	 0.146206
H	 2.5290405793	 0.6580247002	 0.9753698844	 0.144506
59.6123	80.5817	220.9584	227.4032	253.7421	337.2638	504.439	538.3378	565.3013	574.0168	636.6063	663.0736	789.7168	858.0722	895.7785	915.5161	986.716	996.7093	1050.9107	1092.1377	1141.3257	1144.3301	1177.8551	1211.0175	1239.1018	1272.0332	1303.6225	1396.3013	1445.9729	1460.9292	1495.6487	1832.5247	1865.5128	3046.6768	3049.5572	3086.7734	3107.5064	3117.0575	3193.4541
O=C1CCC(=O)C11CO1	O=C1CCC(=O)C21CO2	
InChI=1S/C6H6O3/c7-4-1-2-5(8)6(4)3-9-6/h1-3H2	InChI=1S/C6H6O3/c7-4-1-2-5(8)6(4)3-9-6/h1-3H2
