16
gdb 12580	3.10464	2.09697	1.27284	4.7764	72.02	-0.2079	0.0026	0.2105	928.3518	0.131364	-379.958511	-379.950534	-379.949589	-379.990802	29.424	
C	 0.0313066912	 1.5363693398	 0.0238650317	-0.509935
C	-0.0086625591	 0.0426730538	 0.0219473283	 0.139058
C	-1.0677021022	-0.7899329532	-0.0017577635	 0.218086
N	-2.415639625	-0.5146666707	 0.0409632624	-0.588613
C	-0.5767345179	-2.2136399433	 0.0146292021	-0.163564
O	 0.8409762252	-2.1123895333	 0.033396723	-0.253492
C	 1.2008176884	-0.7757161324	 0.0460429031	 0.356229
N	 2.3994798703	-0.3629084996	 0.0638849704	-0.56344
H	 0.902124001	 1.8847738298	-0.5378223153	 0.155945
H	-0.8684837094	 1.9714306918	-0.4265444937	 0.100007
H	 0.12251525	 1.9417568351	 1.0387230182	 0.136669
H	-2.6742394022	 0.4392885472	-0.1665820401	 0.258146
H	-3.0215817135	-1.1835180671	-0.41197001	 0.254369
H	-0.9229253449	-2.7602492807	 0.9023666137	 0.128782
H	-0.8925858533	-2.779068262	-0.874411761	 0.115771
H	 3.0503350914	-1.1484910152	 0.0636804606	 0.215983
75.9733	142.1415	216.6819	247.4363	262.9813	311.4537	349.9463	514.8621	529.465	577.0147	610.1759	674.8152	722.5607	748.8106	841.8558	914.5338	992.6726	1027.2886	1037.1623	1062.4257	1086.7141	1197.5433	1199.6615	1225.5282	1291.3636	1391.7419	1399.8859	1438.0304	1476.0168	1494.9957	1508.58	1649.7182	1733.4521	1760.8004	2997.9239	3022.8166	3031.4957	3073.7597	3114.9575	3488.7147	3558.4814	3659.4869
CC1=C(N)COC1=N	CC1=C(OC[C]1N)[NH]	
InChI=1S/C5H8N2O/c1-3-4(6)2-8-5(3)7/h7H,2,6H2,1H3	InChI=1S/C5H8N2O/c1-3-4(6)2-8-5(3)7/h7H,2,6H2,1H3
