21
gdb 72252	2.3127	1.75747	1.46339	1.6824	81.92	-0.2155	0.0891	0.3046	1048.4087	0.182881	-387.078366	-387.069962	-387.069018	-387.110762	33.117	
C	-0.0229544952	 1.4638462299	-0.0266012049	-0.500994
C	-0.0408013352	-0.0283415896	 0.017690436	 0.4335
O	 0.8438297433	-0.7302015763	-0.8683096571	-0.351749
C	-0.0557090652	-1.8878196396	-0.8225816345	 0.052766
C	 0.536815961	-2.8978949914	 0.1530610045	-0.212303
C	 0.6199781716	-2.0835393809	 1.4762985704	-0.229146
C	-0.317451022	-0.8974867044	 1.2383950236	-0.175993
C	-1.1173636103	-1.0727495554	-0.0463939272	 0.211161
C	-2.603286321	-1.0443720211	-0.232747635	-0.519661
H	 0.9489127687	 1.8484928392	 0.3028189915	 0.130428
H	-0.2051337834	 1.8271566948	-1.0431714814	 0.126606
H	-0.7907693444	 1.8768725291	 0.63438837	 0.120566
H	-0.2941419197	-2.2487457313	-1.8258699682	 0.072242
H	-0.1339070515	-3.7600032091	 0.2537477177	 0.093934
H	 1.5104479308	-3.2642200948	-0.1843734072	 0.10502
H	 0.2988684664	-2.6741858303	 2.339127491	 0.09533
H	 1.6441058021	-1.7516659235	 1.6711327538	 0.108687
H	-0.799130963	-0.4057619319	 2.0780302178	 0.077836
H	-3.059290829	-0.2645149806	 0.3861856597	 0.120879
H	-2.8780573257	-0.8434983244	-1.2746118416	 0.121276
H	-3.0632504483	-1.9978239483	 0.055009671	 0.119616
164.0224	178.7053	186.624	207.1046	215.1827	284.2842	288.2445	430.3269	535.6629	583.09	608.0308	725.705	741.1336	750.4962	831.7169	860.6162	898.0662	900.1477	916.3207	948.2063	973.0349	1002.4299	1034.5864	1057.9874	1104.217	1109.677	1158.696	1165.5559	1193.3484	1216.9644	1257.1229	1265.0057	1288.1415	1318.0904	1330.5764	1338.0263	1408.9534	1415.3998	1472.1802	1474.0613	1485.4844	1490.7317	1496.2812	1499.4533	1518.4946	3018.3776	3031.1442	3033.6718	3053.6637	3075.5239	3083.5211	3088.2477	3092.8125	3094.6563	3101.347	3111.9671	3162.3373
CC12OC3CCC1C23C	C[C@@]12O[C@H]3CC[C@@H]1[C@@]23C	
InChI=1S/C8H12O/c1-7-5-3-4-6(7)9-8(5,7)2/h5-6H,3-4H2,1-2H3	InChI=1S/C8H12O/c1-7-5-3-4-6(7)9-8(5,7)2/h5-6H,3-4H2,1-2H3/t5-,6+,7-,8-/m1/s1
