21
gdb 101900	4.14637	0.60553	0.55336	2.4126	76.66	-0.2497	-0.0336	0.2161	1991.7939	0.178305	-461.356907	-461.345868	-461.344924	-461.394729	38.096	
C	-0.15456503	 1.270019128	 0.5126278153	-0.382244
C	-0.4154937853	-0.2263291571	 0.3267564805	-0.186211
C	-1.6697098853	-0.5170650287	-0.5000221012	 0.111301
O	-1.5950978624	 0.0230253218	-1.8150953182	-0.430257
C	-1.9847118738	-2.0124726627	-0.5882465255	-0.094264
O	-2.2341075949	-2.5091065763	 0.7164150144	-0.240534
C	-2.5476264384	-3.8785111538	 0.7491439804	-0.151886
C	-3.9836378387	-4.1624694416	 0.3197017827	 0.130098
O	-4.388416588	-5.2469264671	-0.0039369106	-0.226658
H	 0.7786577686	 1.4448314792	 1.0558996747	 0.111353
H	-0.090148852	 1.7765018483	-0.4543245506	 0.12477
H	-0.9646517573	 1.7414189147	 1.0795914048	 0.117981
H	 0.444646147	-0.7004361924	-0.1713298556	 0.080065
H	-0.5207210081	-0.7259217471	 1.2952877329	 0.119125
H	-2.5305376083	-0.0192157551	-0.037132653	 0.098271
H	-0.7797684538	-0.2962064349	-2.2184667717	 0.279925
H	-2.8551053245	-2.1543083766	-1.2461995402	 0.105952
H	-1.134427831	-2.55192724	-1.04295909	 0.082175
H	-1.8594621542	-4.4883584046	 0.1448528745	 0.120792
H	-2.4499540467	-4.2051190163	 1.7929670099	 0.140339
H	-4.6450913328	-3.2661273375	 0.3665559764	 0.089909
32.7019	49.3543	93.5024	102.481	159.3906	182.1739	226.3885	250.2339	296.9084	309.0928	354.3578	401.9218	474.331	508.6675	592.8148	726.1056	780.4317	832.6687	977.765	988.8167	1004.2685	1031.1553	1045.6983	1085.7461	1112.7719	1142.7514	1159.9697	1168.2915	1235.0407	1258.2446	1274.8901	1329.5675	1333.0434	1346.2391	1388.7714	1398.7533	1407.3905	1414.7719	1425.1708	1456.2609	1485.9217	1497.3445	1509.5565	1514.266	1841.6653	2869.7478	2946.6982	2992.8598	2999.1731	3009.4763	3038.9505	3048.5334	3055.2949	3079.2795	3104.84	3120.3001	3794.066
CCC(O)COCC=O	CC[C@@H](O)COCC=O	
InChI=1S/C6H12O3/c1-2-6(8)5-9-4-3-7/h3,6,8H,2,4-5H2,1H3	InChI=1S/C6H12O3/c1-2-6(8)5-9-4-3-7/h3,6,8H,2,4-5H2,1H3/t6-/m1/s1
