15
gdb 10168	3.1831	1.45871	1.14047	6.3917	60.17	-0.2464	-0.0307	0.2157	1031.9512	0.116862	-436.963547	-436.954776	-436.953832	-436.997634	29.507	
O	-0.1061894502	 1.4804211788	 0.0821104724	-0.40976
C	 0.0379094204	 0.0762312483	-0.020394209	-0.06046
C	-1.364182245	-0.5240810574	-0.0707528835	-0.203431
N	-2.1063811681	-0.1419611529	-1.271843023	-0.083767
C	-2.0820082798	-1.0091257782	-2.3705551267	 0.165209
O	-2.5904045538	-0.8300601589	-3.4412470614	-0.263491
C	-2.7665682186	 1.1024831836	-1.2765291614	 0.170434
O	-3.337311121	 1.5924799231	-2.2091936783	-0.267303
H	 0.7306976697	 1.8995383102	-0.1366164446	 0.300008
H	 0.5896852487	-0.2111913945	-0.9276522047	 0.104327
H	 0.572953369	-0.342020907	 0.8468744767	 0.100021
H	-1.2985316458	-1.6146608232	-0.0282111016	 0.128429
H	-1.9240641254	-0.1976166837	 0.810851478	 0.139254
H	-1.5180694316	-1.9314539069	-2.1180482553	 0.078212
H	-2.6959181883	 1.5784057788	-0.2828298975	 0.102317
53.9756	91.2466	153.1255	165.4704	231.9171	239.1828	263.0543	320.5471	409.2617	501.3867	529.4239	657.1325	883.0299	947.3446	960.4581	1012.3351	1035.4324	1073.0383	1101.5923	1178.476	1205.2397	1269.0125	1290.2259	1377.1387	1394.2124	1451.4617	1453.7414	1458.6368	1499.3584	1513.6151	1797.7659	1877.6702	2907.443	2977.6601	2982.9669	3016.7819	3063.9577	3109.4122	3842.9109
OCCN(C=O)C=O	OCCN(C=O)C=O	
InChI=1S/C4H7NO3/c6-2-1-5(3-7)4-8/h3-4,6H,1-2H2	InChI=1S/C4H7NO3/c6-2-1-5(3-7)4-8/h3-4,6H,1-2H2
