17
gdb 30956	2.41031	1.42449	0.94568	3.7823	73.93	-0.2106	0.0239	0.2345	1240.6133	0.135264	-455.164283	-455.155277	-455.154333	-455.198381	32.493	
C	 0.3958786493	 1.2369463663	 0.3457182013	-0.333181
N	-0.3401804272	 0.1154626539	-0.2572983121	-0.393214
C	 0.3741691677	-0.6712737103	-1.1391827945	 0.197223
C	 0.7161328807	-1.9587324037	-1.10660152	 0.290159
C	 0.4588820327	-3.0465144411	-0.1378611344	-0.495117
O	 1.453210676	-2.2522884898	-2.2465067431	-0.256154
C	 1.5560109307	-1.0899522483	-2.9797343255	 0.492396
N	 2.1454604177	-0.9243225864	-4.0781263726	-0.585077
O	 0.9006510203	-0.1035623197	-2.3213208998	-0.226388
H	 1.2523296422	 0.8407759423	 0.8978644869	 0.135741
H	 0.7629442532	 1.9662579622	-0.3882876906	 0.133099
H	-0.2621192472	 1.7473313828	 1.0536557211	 0.126452
H	-1.2138480288	 0.4357169969	-0.662628419	 0.242253
H	-0.0907602463	-3.8710895103	-0.6053919276	 0.143908
H	 1.3958016394	-3.4565767486	 0.2552507987	 0.143873
H	-0.1317430192	-2.65288927	 0.6913243716	 0.152761
H	 2.565712919	-1.7969092262	-4.3878204503	 0.231266
64.8183	123.8375	160.5594	182.1069	198.5574	250.0666	257.4279	343.5021	436.7458	557.0472	617.6804	621.586	643.432	737.143	755.6129	777.3063	821.2245	941.3476	955.0097	1012.8328	1046.4871	1071.4619	1094.3483	1149.1861	1170.715	1230.0315	1315.4747	1340.4881	1420.8265	1453.4442	1472.1563	1473.8051	1488.5273	1491.9388	1519.8629	1781.8091	1842.7176	3016.177	3034.6417	3086.5511	3091.6277	3125.4557	3142.7073	3514.2463	3541.4499
CNC1=C(C)OC(=N)O1	CNC1=C(C)O[C@@H]([NH])O1	
InChI=1S/C5H8N2O2/c1-3-4(7-2)9-5(6)8-3/h6-7H,1-2H3	InChI=1S/C5H9N2O2/c1-3-4(7-2)9-5(6)8-3/h5-7H,1-2H3/t5-/m1/s1
