18
gdb 124943	2.91458	1.24642	0.93356	2.3809	75.41	-0.2424	-0.0053	0.2371	1263.1971	0.14636	-439.093415	-439.083879	-439.082934	-439.128239	33.658	
C	 0.0551289553	 1.4712201621	 0.025347758	-0.493504
C	-0.0729124101	-0.0104488838	 0.0528809877	 0.357967
C	-1.1293131773	-0.8659423565	-0.0429784157	 0.000444
C	-2.5865701575	-0.5763099089	-0.2216644378	-0.519903
C	-0.5132346935	-2.1531210557	 0.0658941028	 0.293956
C	-1.172953924	-3.498507573	-0.0074509705	-0.175851
O	-1.855426322	-3.6921569866	-1.2425437591	-0.410567
N	 0.7875509164	-2.0677968452	 0.2053938823	-0.212736
O	 1.0745225789	-0.7080343475	 0.2038857326	-0.219552
H	 0.7512972535	 1.7900484665	-0.7572168701	 0.149584
H	-0.9155818085	 1.933484194	-0.1642920162	 0.139259
H	 0.4360026473	 1.8519151106	 0.9791566611	 0.150244
H	-3.0147980426	-1.2357368415	-0.9814901538	 0.152646
H	-3.1496437684	-0.7423149301	 0.7048207589	 0.132425
H	-2.7566087674	 0.4598817485	-0.5264609562	 0.123284
H	-0.4196335289	-4.2755849514	 0.1757140529	 0.120749
H	-1.9428324261	-3.5873319242	 0.7660561675	 0.121903
H	-1.1976300751	-3.6385392172	-1.9441624143	 0.289652
76.6691	87.9173	120.6858	122.1452	204.6989	251.5033	266.762	295.9247	377.3966	422.03	470.4366	598.8108	643.6	688.6565	720.8224	799.8333	932.1714	956.7214	985.7678	1010.7783	1058.5951	1062.954	1073.7699	1133.7698	1199.8648	1220.3396	1291.0224	1368.0496	1407.9573	1417.5171	1423.6451	1462.2701	1473.5625	1481.659	1487.6058	1496.253	1507.4341	1532.9101	1680.7398	3025.4126	3030.7398	3040.8969	3080.3828	3089.941	3096.3844	3121.9573	3135.086	3810.7083
CC1=C(C)C(CO)=NO1	Cc1c(C)c(CO)no1	
InChI=1S/C6H9NO2/c1-4-5(2)9-7-6(4)3-8/h8H,3H2,1-2H3	InChI=1S/C6H9NO2/c1-4-5(2)9-7-6(4)3-8/h8H,3H2,1-2H3
