18
gdb 14143	3.99629	1.60908	1.395	1.2313	74.61	-0.2174	0.0282	0.2456	944.8899	0.154438	-347.797559	-347.790005	-347.789061	-347.829416	29.211	
O	-0.3125334226	 1.4268477805	-0.2453803506	-0.41778
C	-0.1297597936	 0.0450816269	-0.1363994558	 0.053497
C	-0.2727861122	-0.625110511	 1.2041888003	-0.389221
C	-1.3629049229	-0.7795613065	 0.1569659168	 0.333312
C	-2.7422479852	-0.1219147634	 0.3182375117	-0.300923
C	-3.6950737325	-0.9486927339	-0.592217366	-0.263318
C	-2.8767797548	-2.163816044	-0.9624979413	-0.077722
C	-1.6115061731	-2.0598251075	-0.5569131718	-0.135298
H	 0.4263562131	 1.8611898947	 0.1934190112	 0.287733
H	 0.5930903571	-0.3731584658	-0.8380889737	 0.081676
H	 0.3598876376	-1.4768436343	 1.4347426918	 0.107566
H	-0.5008500792	 0.0175254913	 2.0495513255	 0.11058
H	-3.0677639953	-0.1875765757	 1.3613467095	 0.100368
H	-2.7126060677	 0.9360461039	 0.0521869674	 0.122721
H	-4.6290890208	-1.2121469717	-0.0822120395	 0.101418
H	-3.9884515563	-0.3904109718	-1.4916697674	 0.108186
H	-3.2861976204	-2.9971068774	-1.5227400017	 0.089567
H	-0.8288564911	-2.7913273044	-0.7284961065	 0.087638
67.2107	176.2025	214.888	263.2075	294.342	413.445	465.6906	513.8003	535.1067	725.708	756.6605	799.2052	814.6747	853.9475	894.1703	909.9714	941.7813	965.8161	986.9608	1027.0932	1035.9985	1063.501	1095.2532	1125.6881	1169.59	1180.1407	1227.145	1257.5862	1284.152	1300.6	1307.2544	1331.6241	1390.1023	1423.9072	1479.8922	1484.415	1504.3084	1680.8271	3014.1628	3042.2834	3058.1715	3088.4672	3116.2848	3117.4608	3177.9428	3203.9308	3206.7887	3803.178
OC1CC11CCC=C1	O[C@H]1C[C@]21CCC=C2	
InChI=1S/C7H10O/c8-6-5-7(6)3-1-2-4-7/h1,3,6,8H,2,4-5H2	InChI=1S/C7H10O/c8-6-5-7(6)3-1-2-4-7/h1,3,6,8H,2,4-5H2/t6-,7+/m0/s1
