23
gdb 102552	1.98121	1.30438	1.01295	2.4624	81.9	-0.2453	0.0814	0.3267	1348.3166	0.202458	-425.402678	-425.391873	-425.390929	-425.438613	39.172	
C	 0.7373152054	 0.7172307037	-0.9766909698	-0.393036
C	 0.0899019337	-0.6155498995	-0.5975076359	-0.17327
C	-1.2650887829	-0.4509997261	 0.0973101372	 0.05088
O	-2.143193357	 0.17662873	-0.826039575	-0.239902
C	-3.1713723529	 0.9292000198	-0.2226241939	-0.242347
C	-1.7950237701	-1.8031103588	 0.6025310296	 0.390905
C	-1.3730466689	-2.1835596396	 2.0058256805	-0.467609
C	-3.011251029	-2.3937996253	 0.0218767959	-0.218532
O	-1.7194701911	-2.8727531459	-0.3548483014	-0.274471
H	 1.6816589258	 0.5570297086	-1.5056274273	 0.110871
H	 0.0750606393	 1.2941366184	-1.6269990944	 0.13074
H	 0.9526100751	 1.3243916245	-0.0895953241	 0.104927
H	-0.0721236089	-1.2350859975	-1.4847755808	 0.125555
H	 0.753904702	-1.1862086994	 0.062649933	 0.095686
H	-1.142142287	 0.2053335926	 0.975636325	 0.054796
H	-3.7687881786	 1.3649508706	-1.027539533	 0.127753
H	-3.8283909075	 0.3119379902	 0.407970267	 0.104675
H	-2.7644975565	 1.7422581258	 0.398172269	 0.108143
H	-1.803558036	-1.4969850494	 2.742907947	 0.120146
H	-1.7012469255	-3.1992631925	 2.238821147	 0.129346
H	-0.2833538563	-2.1472536927	 2.1127266585	 0.127388
H	-3.60923156	-3.0807736348	 0.621386389	 0.102636
H	-3.5453271531	-1.8619341927	-0.760861393	 0.124717
51.6772	94.4655	129.2965	174.1135	184.6352	201.6822	204.9202	268.8516	297.5614	306.2299	349.6643	389.5003	456.0995	525.9379	554.8176	749.6592	768.5664	850.6184	876.7319	927.0385	952.8492	954.8165	1022.2548	1057.7706	1081.5984	1122.1939	1133.4199	1139.5619	1160.2045	1178.5764	1187.2144	1223.6847	1237.4863	1296.4945	1323.3905	1379.494	1387.8493	1401.8704	1406.6356	1416.9375	1475.179	1480.3292	1484.4224	1487.6228	1494.846	1497.0962	1508.7722	1511.3028	1520.888	2955.9868	2978.9412	3025.6645	3033.0933	3034.0567	3042.4388	3082.0211	3085.7391	3095.994	3103.5447	3111.7889	3123.9846	3124.8007	3184.0675
CCC(OC)C1(C)CO1	CC[C@@H](OC)[C@@]1(C)CO1	
InChI=1S/C7H14O2/c1-4-6(8-3)7(2)5-9-7/h6H,4-5H2,1-3H3	InChI=1S/C7H14O2/c1-4-6(8-3)7(2)5-9-7/h6H,4-5H2,1-3H3/t6-,7-/m1/s1
