23
gdb 114739	2.7046	1.25938	0.98508	1.8073	84.36	-0.253	0.078	0.331	1302.3556	0.206383	-388.29111	-388.281966	-388.281022	-388.325062	35.318	
C	 0.0231142425	 1.5750360889	 0.0926061692	-0.388301
C	 0.0964719769	 0.0438333594	 0.0785085039	-0.192153
C	 0.7331543624	-0.5218933586	-1.1947097757	 0.040124
C	 2.2150158563	-0.0990548385	-1.4186606975	-0.252949
C	 2.8366907198	-1.2455348258	-2.1966561843	 0.033133
O	 3.1366504571	-2.3773872864	-1.3693427771	-0.253511
C	 1.9397725166	-2.4094262868	-2.1598688995	 0.036184
C	 0.6783562002	-2.0842505263	-1.3616579734	-0.051556
C	 0.6090862367	-2.9045951231	-0.0658952641	-0.390244
H	 1.0191879877	 2.0273304999	 0.0492475237	 0.11937
H	-0.5488039199	 1.9517758258	-0.7631925325	 0.111928
H	-0.4641575174	 1.9376376797	 1.0029704672	 0.111704
H	 0.6576849306	-0.3010383579	 0.9558847113	 0.101786
H	-0.9178149891	-0.3618161083	 0.1846760444	 0.094006
H	 0.1693436971	-0.1155116973	-2.0457565308	 0.07034
H	 2.2869660681	 0.8458872457	-1.9652868673	 0.099042
H	 2.7509098431	 0.02969713	-0.470793093	 0.110691
H	 3.5446475774	-1.0633901117	-3.0019744943	 0.090774
H	 1.9235186409	-3.1747519821	-2.9333741041	 0.087977
H	-0.1963659423	-2.3392807177	-1.9720369032	 0.069221
H	 1.4871497386	-2.7246313925	 0.5586473073	 0.133633
H	-0.2880588118	-2.6686642894	 0.5127760843	 0.110069
H	 0.5822221987	-3.9748667969	-0.2968546645	 0.108731
55.7745	118.7529	182.608	218.9103	246.4452	247.4407	297.7902	373.3007	396.0383	465.9886	509.4793	667.2346	686.5961	753.3288	790.377	811.4332	855.5516	891.1849	935.6359	953.9731	963.9474	996.0698	1030.6788	1041.6806	1048.2804	1097.5642	1110.8318	1119.6989	1158.4712	1165.7865	1215.3361	1260.038	1285.3134	1307.8103	1313.0863	1321.3529	1333.4178	1357.5255	1373.6896	1395.1862	1404.9077	1412.9756	1435.363	1481.2457	1486.3987	1499.0711	1501.1455	1504.976	1508.1452	2995.8962	3019.4355	3030.0491	3031.0606	3037.9057	3042.4156	3056.0212	3086.3695	3097.0256	3103.8089	3104.4778	3126.9063	3129.7231	3142.526
CCC1CC2OC2C1C	CC[C@H]1C[C@H]2O[C@H]2[C@H]1C	
InChI=1S/C8H14O/c1-3-6-4-7-8(9-7)5(6)2/h5-8H,3-4H2,1-2H3	InChI=1S/C8H14O/c1-3-6-4-7-8(9-7)5(6)2/h5-8H,3-4H2,1-2H3/t5-,6-,7+,8-/m0/s1
