23
gdb 118156	4.02358	0.77515	0.73403	1.0704	82.99	-0.244	0.0839	0.3279	1660.6859	0.204227	-425.398385	-425.387935	-425.386991	-425.434882	36.889	
C	 0.0969906529	 1.3902937347	-0.0042979325	-0.22816
O	 0.052457975	-0.0150731527	-0.0267276646	-0.234831
C	 0.6637698959	-0.6022054954	 1.1031449513	-0.054822
C	 0.6256478013	-2.1265488773	 0.9568239096	-0.023244
C	 1.3992557537	-2.5766945816	-0.2882132512	-0.407193
C	 1.126689636	-2.7630343254	 2.2526403405	 0.159523
C	 1.3037903609	-4.2956093127	 2.3552873819	-0.311818
C	 2.7596653717	-3.9568177303	 2.7305343989	-0.055569
O	 2.5457269919	-2.5525861331	 2.4788279991	-0.296142
H	 1.1320713761	 1.7672229194	 0.0118632904	 0.104465
H	-0.3955741182	 1.7494142068	-0.9114779696	 0.124353
H	-0.4288690691	 1.8028988773	 0.8718373442	 0.101481
H	 1.7081951155	-0.2618683354	 1.2001931737	 0.103186
H	 0.1344282589	-0.2944635278	 2.0219293042	 0.078642
H	-0.4307978496	-2.4131526176	 0.8513630339	 0.080955
H	 1.0705543456	-2.0013523109	-1.1557457598	 0.132851
H	 2.4715220331	-2.411188327	-0.1467212437	 0.126974
H	 1.241572116	-3.6371233841	-0.5065117725	 0.105446
H	 0.550417241	-2.3544630434	 3.0970088241	 0.067346
H	 0.7080617009	-4.7922420131	 3.1224020325	 0.108218
H	 1.1925732933	-4.8318428268	 1.4120349382	 0.113752
H	 3.0229166928	-4.1458678973	 3.7793934846	 0.099807
H	 3.5439229643	-4.3730534164	 2.0879137268	 0.10478
54.2439	67.3165	91.9332	106.019	152.9492	217.7595	236.4698	270.0532	285.1216	328.9984	367.8906	506.6993	607.8023	726.097	804.773	853.8002	904.3228	927.686	935.887	974.9547	994.014	1014.547	1034.0705	1069.8444	1117.1903	1150.5388	1165.3361	1172.0284	1177.0324	1196.8698	1216.3393	1225.8748	1256.6246	1266.8144	1281.7817	1312.6806	1351.1287	1374.7869	1383.4921	1409.3545	1424.5921	1480.2301	1484.856	1486.2431	1501.2954	1505.148	1511.0247	1529.1724	1531.029	2945.2925	2968.3197	2978.4423	2984.3958	3010.4244	3012.504	3015.6443	3046.7774	3057.0265	3084.636	3110.5431	3112.4967	3135.2127	3138.8525
COCC(C)C1CCO1	COC[C@@H](C)[C@H]1CCO1	
InChI=1S/C7H14O2/c1-6(5-8-2)7-3-4-9-7/h6-7H,3-5H2,1-2H3	InChI=1S/C7H14O2/c1-6(5-8-2)7-3-4-9-7/h6-7H,3-5H2,1-2H3/t6-,7-/m1/s1
