22
gdb 123199	10.6224	0.40051	0.39159	3.9539	85.52	-0.2599	0.0352	0.2951	2714.8762	0.192299	-404.36692	-404.355831	-404.354887	-404.404793	37.659	
C	-0.108929213	 1.5412153919	 0.0122835768	-0.384689
C	-0.0237930083	 0.0245617695	 0.002619445	-0.030135
O	-1.3361260197	-0.5013332676	 0.0123685635	-0.243941
C	-1.3741309126	-1.9091628937	 0.0046213719	-0.054842
C	-2.8318829597	-2.3523711695	 0.0161900398	-0.202107
C	-2.9802938789	-3.8754993103	 0.0088771653	-0.184143
C	-4.4601699473	-4.3069779752	 0.0206741726	-0.341281
C	-4.6235177797	-5.7592405368	 0.0139295684	 0.256701
N	-4.7330870244	-6.9096121078	 0.0083705541	-0.3041
H	 0.8935607088	 1.9792390145	 0.004999038	 0.11599
H	-0.6517418961	 1.9006800676	-0.8664962713	 0.12694
H	-0.634363181	 1.8903730411	 0.9056602948	 0.126939
H	 0.5194928125	-0.3275988735	-0.890910322	 0.086048
H	 0.5367964623	-0.3379218194	 0.8812067172	 0.086047
H	-0.8604607673	-2.3058760773	-0.8890339357	 0.086353
H	-0.8432896415	-2.3160930999	 0.8835262759	 0.086354
H	-3.3186316032	-1.9281641099	 0.9028484884	 0.110983
H	-3.3356660451	-1.9180562649	-0.8559409374	 0.110981
H	-2.4935094303	-4.3003462557	-0.8763491656	 0.122602
H	-2.4765736151	-4.3104347189	 0.8796118452	 0.122603
H	-4.9654010111	-3.9048958903	 0.9067144921	 0.153349
H	-4.9823574494	-3.8947989036	-0.8507767668	 0.15335
40.9657	68.1476	70.659	97.3544	131.0928	152.9883	157.6494	246.3679	260.8507	291.1861	400.9173	442.7109	488.0025	568.063	741.6558	798.638	822.8489	895.7555	926.5519	936.0536	1012.2876	1045.2454	1062.8274	1082.743	1133.7983	1150.3743	1169.0888	1183.9155	1219.1923	1260.6457	1282.366	1297.0493	1315.6388	1327.3719	1338.6266	1388.3476	1397.5788	1411.9331	1456.7668	1469.0065	1483.7647	1489.7786	1499.3123	1503.848	1519.15	1539.9554	2362.7093	2939.7266	2956.7963	2966.1007	2977.7849	3028.9704	3036.0927	3045.4584	3046.3575	3060.4595	3073.7983	3094.3049	3120.0369	3121.8771
CCOCCCCC#N	CCOCCCCC#N	
InChI=1S/C7H13NO/c1-2-9-7-5-3-4-6-8/h2-5,7H2,1H3	InChI=1S/C7H13NO/c1-2-9-7-5-3-4-6-8/h2-5,7H2,1H3
