20
gdb 13980	5.19066	1.19489	1.10792	0.812	76.06	-0.2401	0.0981	0.3382	1164.3412	0.176417	-348.970338	-348.961992	-348.961048	-349.003521	31.195	
C	 0.0887927001	 1.5252927651	-0.0205700646	-0.38613
C	 0.1911500249	 0.0116461797	 0.0457600957	-0.058305
O	 0.4426117395	-0.4759289303	-1.2685132531	-0.289699
C	 0.579217499	-1.8445637091	-1.3389957874	 0.464672
C	 1.8427702148	-2.5463775098	-0.9186879638	-0.333065
C	 1.3770032694	-2.6386973225	-2.3578007679	-0.135227
C	 0.2429316641	-3.6666926786	-2.4610146411	-0.217098
C	-0.5941071335	-2.8314585199	-1.432709299	-0.298182
H	 1.0185000238	 1.9559882183	-0.4034027592	 0.125809
H	-0.7261636452	 1.8269824688	-0.6846669788	 0.126553
H	-0.1025063889	 1.938511764	 0.9743572099	 0.113888
H	 1.0045309028	-0.2988256446	 0.7190150238	 0.09211
H	-0.7414902882	-0.4222961442	 0.4381284641	 0.092365
H	 2.6844988651	-1.8790709963	-0.7625527982	 0.112162
H	 1.8286683481	-3.4230628748	-0.2733891844	 0.098659
H	 1.9935792108	-2.2845979042	-3.1745559575	 0.091735
H	-0.2254355447	-3.7028287067	-3.4467006736	 0.105038
H	 0.5025492748	-4.6862547323	-2.1580152056	 0.095687
H	-0.8996322131	-3.3308885449	-0.5075178011	 0.090892
H	-1.4705875936	-2.3746817577	-1.8982801283	 0.108134
64.7572	82.0876	140.855	239.6493	253.7624	338.7683	376.7822	417.3076	448.6934	662.6162	715.5086	788.4155	819.248	845.2993	906.074	911.3025	924.5321	961.5277	966.0788	1017.7298	1025.9605	1068.6524	1085.5554	1104.4804	1144.7712	1154.7555	1186.8746	1216.8745	1222.2007	1230.397	1265.1516	1293.6449	1303.3542	1372.0343	1402.5201	1431.3449	1477.2582	1479.7264	1483.1444	1500.0356	1510.5728	1528.2067	2979.6034	3010.4388	3042.6931	3044.3185	3051.4411	3096.5779	3098.6125	3116.8099	3118.5364	3121.1069	3188.8642	3200.7509
CCOC12CC1CC2	CCO[C@]12C[C@H]1CC2	
InChI=1S/C7H12O/c1-2-8-7-4-3-6(7)5-7/h6H,2-5H2,1H3	InChI=1S/C7H12O/c1-2-8-7-4-3-6(7)5-7/h6H,2-5H2,1H3/t6-,7-/m1/s1
