15
gdb 113639	3.77583	0.86695	0.82986	3.6996	69.16	-0.2744	-0.0968	0.1777	1374.5495	0.111523	-453.921379	-453.912317	-453.911373	-453.956518	31.335	
O	-0.1573506091	 1.5237947228	-0.6407445847	-0.415738
C	 0.0395615745	 0.3416992352	 0.1167626812	-0.086407
C	-1.264386862	-0.4164875647	 0.234848797	-0.022803
N	-1.6662165647	-1.1693798593	-0.9448132364	-0.316154
C	-1.3667914954	-1.9243167933	 0.2815406186	-0.170427
C	-0.1593890114	-2.8016562762	 0.2601433791	 0.335935
O	 0.7710554063	-2.7165982607	-0.5009422463	-0.273279
C	-0.1643671605	-3.8368811655	 1.319874801	 0.214529
N	-0.1800677086	-4.6434448921	 2.148410089	-0.296151
H	-0.3495570958	 1.2461167198	-1.5434316896	 0.294411
H	 0.8095935307	-0.3012128844	-0.3227653373	 0.131328
H	 0.3759886917	 0.6615310044	 1.1081330174	 0.118009
H	-2.0413184865	 0.1055744509	 0.7916862129	 0.11388
H	-2.6725253587	-1.1400137527	-1.0862154041	 0.251882
H	-2.1910037805	-2.3230144042	 0.8679117421	 0.120986
35.8607	73.8278	122.7019	160.1024	212.517	283.2809	287.7263	379.5195	425.2731	448.6375	528.0754	596.2366	749.5803	794.4969	847.0215	887.8276	930.3227	974.6036	1010.7717	1068.6978	1079.97	1120.099	1176.0452	1197.4987	1243.4717	1271.8111	1372.7774	1407.7068	1434.22	1470.9184	1499.7954	1792.0523	2336.5463	3047.2677	3096.1561	3126.3886	3145.7194	3511.5264	3805.7416
OCC1NC1C(=O)C#N	OC[C@H]1N[C@H]1C(=O)C#N	
InChI=1S/C5H6N2O2/c6-1-4(9)5-3(2-8)7-5/h3,5,7-8H,2H2	InChI=1S/C5H6N2O2/c6-1-4(9)5-3(2-8)7-5/h3,5,7-8H,2H2/t3-,5-/m1/s1
