21
gdb 92476	2.55233	1.58903	1.58033	2.2833	76.34	-0.2455	0.0733	0.3188	1011.6917	0.185769	-424.244137	-424.236434	-424.23549	-424.276396	30.803	
C	-0.2198119562	 1.5482882292	 0.0080174047	-0.424452
C	 0.0337527411	 0.0392084955	-0.0027296764	 0.052035
C	 0.8429758171	-0.4344679296	-1.245623744	-0.254573
C	 1.945155507	-1.3849787153	-0.7633010465	 0.203629
O	 2.8901117821	-0.68511357	 0.0213214271	-0.268665
C	 2.2748770381	-0.0610422251	 1.1568691383	-0.069853
C	 0.8023553627	-0.4836199114	 1.2326617662	-0.078409
C	 0.7837129771	-2.0165446345	 1.1821645533	-0.066404
O	 1.3813700116	-2.4636301422	-0.041512755	-0.271778
H	 0.715433432	 2.118234772	 0.0090233061	 0.12141
H	-0.7826399138	 1.8496075765	-0.8817316678	 0.11835
H	-0.7988868341	 1.849781682	 0.887815961	 0.110902
H	-0.9422745819	-0.4608906887	-0.0066430485	 0.073981
H	 0.2056745711	-0.9479486091	-1.9708803845	 0.105798
H	 1.3140669422	 0.4115367052	-1.757774792	 0.103034
H	 2.5066534168	-1.8313637295	-1.5860467275	 0.08513
H	 2.8155336396	-0.3849080257	 2.0556934003	 0.102234
H	 2.3850900689	 1.0286106432	 1.0771507932	 0.096897
H	 0.3513180968	-0.1293178876	 2.1652048862	 0.068252
H	 1.3445068909	-2.4409591379	 2.0267567565	 0.096246
H	-0.2434034991	-2.4020749068	 1.2285002893	 0.096235
56.2298	221.5206	241.6858	279.7253	322.3225	379.2389	395.1272	472.4064	554.5148	593.937	683.883	777.175	840.1291	855.1897	867.4567	921.7897	946.3862	965.2293	979.4494	1004.4916	1015.2178	1054.2552	1077.2035	1101.4597	1127.8422	1163.769	1165.2004	1220.3211	1225.0011	1241.7718	1287.9631	1305.5638	1340.1655	1349.1957	1360.2703	1377.7722	1383.0818	1406.6115	1412.5468	1420.3984	1482.7907	1495.2416	1498.2881	1520.1931	1532.3033	2996.825	3005.0305	3020.6453	3028.242	3033.0957	3037.7064	3045.2133	3060.586	3092.7553	3096.9714	3100.3126	3103.4868
CC1CC2OCC1CO2	C[C@H]1C[C@H]2OC[C@@H]1CO2	
InChI=1S/C7H12O2/c1-5-2-7-8-3-6(5)4-9-7/h5-7H,2-4H2,1H3	InChI=1S/C7H12O2/c1-5-2-7-8-3-6(5)4-9-7/h5-7H,2-4H2,1H3/t5-,6-,7+/m0/s1
