17
gdb 31396	3.56445	1.14057	0.91828	1.7443	80.93	-0.2327	-0.0507	0.182	1274.315	0.137043	-418.053074	-418.044895	-418.043951	-418.086315	30.329	
C	 0.0900610134	 1.5643633147	-0.1046350624	-0.375073
C	-0.0859840491	 0.0471104142	 0.0757135946	-0.267821
C	 0.607037022	-0.4670303154	 1.3041986834	 0.309998
C	-0.0357147843	-1.0102985427	 2.3604935535	-0.215476
C	 0.6914390021	-1.4787319025	 3.5182522952	 0.390404
N	 0.1765532202	-1.9983577843	 4.5512415721	-0.53537
O	 2.0896286397	-1.3133723149	 3.4242927594	-0.220946
C	 2.6223534094	-0.7589434327	 2.321059808	 0.132611
N	 2.003399155	-0.337317184	 1.2910352301	-0.322375
H	 1.1509608032	 1.8246543555	-0.1385433203	 0.140953
H	-0.3774945103	 1.8963389757	-1.0358712241	 0.118047
H	-0.3703011348	 2.1130850846	 0.7229165737	 0.120853
H	-1.1480569968	-0.2120308523	 0.1210079457	 0.108433
H	 0.3412472926	-0.4670418423	-0.794358811	 0.122409
H	-1.1119716294	-1.1207923625	 2.3902453382	 0.123143
H	 0.8923610343	-2.2489649121	 5.2331177469	 0.22534
H	 3.7047016529	-0.7031097887	 2.3987043368	 0.14487
65.4997	124.791	152.182	208.7732	271.8007	329.234	430.8672	445.1009	523.2719	572.9148	668.1374	751.2268	771.4794	795.777	841.5349	848.0218	902.6109	949.5959	965.4791	973.9858	1063.6365	1080.728	1106.2761	1143.6525	1201.8128	1274.3821	1294.0104	1352.2283	1365.4717	1403.4255	1421.1539	1474.9813	1495.6628	1509.4751	1632.9481	1678.7254	1757.4457	3032.3788	3043.6173	3085.2957	3114.1648	3129.1824	3184.9577	3220.5632	3496.6467
CCC1=CC(=N)OC=N1	CC[C@@H]1C=C([NH])OC=N1	
InChI=1S/C6H8N2O/c1-2-5-3-6(7)9-4-8-5/h3-4,7H,2H2,1H3	InChI=1S/C6H9N2O/c1-2-5-3-6(7)9-4-8-5/h3-5,7H,2H2,1H3/t5-/m1/s1
