20
gdb 58612	2.04118	1.56347	1.20971	6.0381	74.93	-0.2499	0.0286	0.2784	1138.4502	0.171157	-440.317664	-440.308515	-440.307571	-440.351278	35.086	
C	 0.1279795684	 1.4131077277	-0.3794297345	-0.390822
C	 0.0236931049	-0.0540701642	 0.0484446735	-0.088363
N	 0.5678639392	-0.1927919182	 1.4186435266	-0.52728
H	-0.9175498747	 0.4397031386	 2.11214861	 0.313206
H	 0.6696991407	-1.1731361091	 1.6648378759	 0.24599
H	 1.4832741429	 0.2396128062	 1.4909728769	 0.241798
C	-1.4133853708	-0.5659748611	 0.0328257112	 0.202773
C	-1.9890070659	-1.0108438313	-1.2901228103	-0.295387
C	-1.6496073743	-2.0457661445	-0.2638064294	-0.309179
C	-2.4155111132	 0.0306684981	 1.0070439306	 0.376667
O	-3.606544834	-0.0322379399	 0.8271713111	-0.352081
O	-1.8977436893	 0.607035709	 2.0990834585	-0.387714
H	 1.1729882457	 1.7420472543	-0.3937339418	 0.110529
H	-0.28007357	 1.5446220167	-1.3844812503	 0.133523
H	-0.4262998276	 2.0607842685	 0.3056411801	 0.143398
H	 0.5940994999	-0.6623500534	-0.6703648015	 0.074513
H	-3.0362227523	-0.7835759769	-1.4442044298	 0.15028
H	-1.3516848736	-0.9253140675	-2.1638244126	 0.109279
H	-0.7739040873	-2.6673940684	-0.4237969368	 0.108182
H	-2.4673450287	-2.5270250247	 0.2592237326	 0.14069
74.7868	125.0421	189.7705	238.1628	256.7234	289.7536	295.9671	328.8927	400.5139	451.2066	487.8901	516.9715	590.4179	738.0487	761.7295	793.2705	865.7023	886.3257	910.4354	949.9837	964.8917	982.0852	993.7109	1017.8961	1061.9181	1079.6148	1094.7292	1127.8133	1199.6101	1205.2654	1253.0231	1286.8911	1330.8032	1371.4861	1410.2145	1412.7842	1453.438	1486.3605	1493.394	1502.9658	1504.0762	1640.6793	1837.2781	2974.3678	3038.922	3108.1816	3128.3872	3130.782	3140.2246	3205.1336	3223.1892	3242.1286	3495.7001	3579.8997
CC([NH3+])C1(CC1)C([O-])=O	C[C@@H](N)C1(CC1)C(=O)O	
InChI=1S/C6H11NO2/c1-4(7)6(2-3-6)5(8)9/h4H,2-3,7H2,1H3,(H,8,9)	InChI=1S/C6H11NO2/c1-4(7)6(2-3-6)5(8)9/h4H,2-3,7H2,1H3,(H,8,9)/t4-/m1/s1
