15
gdb 56102	4.33724	0.876	0.86069	2.7302	70.21	-0.2579	-0.0438	0.2141	1377.3829	0.108142	-457.76925	-457.759542	-457.758598	-457.805283	33.018	
C	-0.2634363215	 1.2543312751	-0.0976537851	-0.486065
C	-0.0566843488	-0.2450706547	-0.1587937454	 0.383779
O	-0.5776579114	-1.0206565514	 0.6008521137	-0.27592
C	 0.8739225361	-0.7238516953	-1.2790835486	-0.188083
O	 0.9636045014	-2.1409682705	-1.3282742243	-0.216053
C	-0.1042686229	-2.75866403	-1.8784428764	 0.3185
O	-1.041410807	-2.1892296636	-2.3773364923	-0.36059
C	 0.0459951951	-4.1933498426	-1.814865644	 0.232133
C	 0.1187309343	-5.391997593	-1.7918002867	-0.3606
H	 0.6860078433	 1.7943664822	-0.1783218715	 0.136116
H	-0.8863379279	 1.5673184732	-0.9439209636	 0.158105
H	-0.7672521996	 1.5184458912	 0.8325510979	 0.153572
H	 0.5312523453	-0.3196432611	-2.2373021214	 0.148419
H	 1.8898733675	-0.3655895667	-1.0872976806	 0.142222
H	 0.1820789561	-6.4527114129	-1.7673599917	 0.214464
42.243	62.7641	81.0248	101.3846	165.3151	238.5373	308.8131	316.8516	377.402	458.5905	534.1567	598.1557	651.9054	661.6908	704.065	769.3036	806.8139	827.0489	910.3313	960.0311	1078.5466	1102.5283	1183.1802	1249.0278	1296.2313	1380.3914	1388.7671	1447.8238	1463.8648	1475.285	1795.1577	1838.4443	2241.0308	3036.7027	3055.3342	3097.7555	3108.69	3155.6563	3497.9436
CC(=O)COC(=O)C#C	CC(=O)COC(=O)C#C	
InChI=1S/C6H6O3/c1-3-6(8)9-4-5(2)7/h1H,4H2,2H3	InChI=1S/C6H6O3/c1-3-6(8)9-4-5(2)7/h1H,4H2,2H3
