19
gdb 54541	3.31606	1.33103	1.27507	2.5618	78.96	-0.2379	-0.0109	0.227	1081.1401	0.15873	-385.860517	-385.852292	-385.851348	-385.894434	31.184	
C	-0.0591052672	 1.477756046	 0.0183151426	-0.491671
C	 0.0819632877	-0.0352310754	-0.007584486	 0.240562
O	 1.1636419684	-0.5815222643	-0.0326328259	-0.299062
C	-1.1920081603	-0.8186534365	 0.0013354263	 0.264161
C	-2.1318640054	-0.8180811372	 1.2541691352	-0.282443
C	-2.5810339035	-2.1931216357	 0.7702976765	-0.066294
C	-2.6252265426	-2.1480219473	-0.7645019975	-0.066516
C	-2.2030857944	-0.7456626713	-1.1919381753	-0.283781
C	-1.3223966545	-2.389682733	-0.0405351857	-0.127972
H	 0.9288705726	 1.9397057745	 0.0192768986	 0.141066
H	-0.6270638413	 1.8228326799	-0.8529379305	 0.141612
H	-0.6166455388	 1.795286796	 0.9066066017	 0.141066
H	-1.5581155815	-0.8914535294	 2.1823334421	 0.110923
H	-2.8659809871	-0.0073770917	 1.3314762706	 0.091575
H	-3.1333270501	-2.9422101085	 1.3224116478	 0.09011
H	-3.2092089548	-2.8645407262	-1.3271695687	 0.090107
H	-2.9398699957	 0.0661107376	-1.1783821604	 0.09165
H	-1.6853244948	-0.7627750534	-2.1552357957	 0.110273
H	-0.5908984569	-3.1813468641	-0.0845934158	 0.104634
25.3491	98.357	157.2769	168.1144	330.2783	385.2856	426.0582	515.3654	591.3913	603.187	726.1041	743.1714	791.7539	800.8074	883.8791	909.5277	910.5004	958.364	986.562	990.4299	1005.5214	1012.6653	1028.3555	1041.3623	1093.0312	1097.0007	1122.6684	1155.0938	1166.2909	1171.7485	1243.4868	1248.6166	1290.3134	1343.2436	1361.071	1384.0347	1462.6347	1473.8422	1488.5209	1506.2145	1795.9201	3025.9799	3032.8832	3036.3718	3094.2918	3096.8618	3097.2173	3151.0324	3197.0185	3204.8585	3244.3694
CC(=O)C12CC3C(C1)C23	CC(=O)[C@@]12C[C@H]3[C@@H](C1)[C@@H]23	
InChI=1S/C8H10O/c1-4(9)8-2-5-6(3-8)7(5)8/h5-7H,2-3H2,1H3	InChI=1S/C8H10O/c1-4(9)8-2-5-6(3-8)7(5)8/h5-7H,2-3H2,1H3/t5-,6+,7-,8+
