20
gdb 59686	2.15754	1.38516	1.00341	3.63	79.14	-0.2724	0.0345	0.3068	1252.6554	0.17012	-403.156979	-403.147279	-403.146334	-403.191829	35.346	
C	-0.0127470812	 1.578290301	-0.0202819552	-0.406453
C	 0.0333589536	 0.050308778	 0.0343138438	 0.093985
O	 0.619216539	-0.4137540495	 1.2490713621	-0.441382
C	-1.3518782257	-0.5691558936	-0.0070525158	 0.058618
C	-2.222074965	-0.44343036	-1.2847013791	-0.246259
C	-2.6821084869	-1.9108141553	-1.0854558828	-0.229906
C	-1.4783964176	-2.1330970872	-0.1068899854	-0.182223
C	-0.339717259	-2.7869545216	-0.734081252	 0.289814
N	 0.5569100738	-3.2996597811	-1.255225579	-0.347435
H	 0.9997157015	 1.9942755469	 0.015763747	 0.111069
H	-0.4835536872	 1.9295529734	-0.9444482999	 0.12022
H	-0.5734411851	 1.9744947843	 0.8322826177	 0.123411
H	 0.6075043362	-0.3245500894	-0.82722016	 0.086635
H	 1.5639935435	-0.2355739187	 1.2165331842	 0.288024
H	-1.9072482786	-0.2437971743	 0.8785620412	 0.091053
H	-2.9922144621	 0.3299286308	-1.2946108759	 0.107923
H	-1.6045926138	-0.334176867	-2.1816424658	 0.117484
H	-3.6292033702	-1.982295977	-0.5463097461	 0.115807
H	-2.723112729	-2.554653805	-1.9645151493	 0.124649
H	-1.7038106461	-2.6466952546	 0.8296517803	 0.124966
61.0179	102.6103	110.3247	185.0327	216.2981	226.2216	236.4118	318.9297	351.7981	422.8196	479.2329	525.7252	609.7077	694.9964	764.3186	798.9601	889.1002	902.4685	944.1252	964.8252	976.4626	1023.1966	1071.4286	1084.2573	1115.0032	1132.0305	1137.7011	1188.4256	1231.6653	1253.6341	1264.7769	1271.2972	1295.7516	1334.0091	1350.2075	1380.7837	1402.8866	1434.8448	1481.8651	1489.942	1497.9137	1500.1222	2348.0109	2985.695	3031.3222	3056.6775	3062.3635	3076.3997	3095.0174	3099.9748	3111.7795	3116.4101	3139.6333	3827.7812
CC(O)C1CCC1C#N	C[C@@H](O)[C@H]1CC[C@H]1C#N	
InChI=1S/C7H11NO/c1-5(9)7-3-2-6(7)4-8/h5-7,9H,2-3H2,1H3	InChI=1S/C7H11NO/c1-5(9)7-3-2-6(7)4-8/h5-7,9H,2-3H2,1H3/t5-,6+,7-/m1/s1
