18
gdb 94752	3.91447	1.16151	1.02278	3.3955	78.11	-0.2298	0.0148	0.2446	1186.9803	0.149433	-398.119454	-398.111265	-398.110321	-398.152014	31.4	
C	 0.1138656561	 1.5625751449	-0.0335183224	-0.392661
C	 0.0596550474	 0.0378299985	 0.0330570996	 0.055092
N	 0.7857071766	-0.5672629594	-1.0939722296	-0.319363
C	 1.2613560279	-1.9016678288	-0.7272286038	-0.219256
C	 1.4890974465	-1.7801926384	 0.7736367024	 0.218881
N	 2.2214393417	-0.54571808	 1.163044007	-0.344523
C	 0.7543485613	-0.5682469901	 1.2428469983	-0.096352
C	 1.6129020388	-2.9602432974	 1.5786498111	 0.187426
N	 1.7292698709	-3.913699618	 2.2241204266	-0.339851
H	 1.1537129149	 1.8965691666	-0.0088715862	 0.143797
H	-0.3423827976	 1.9234450831	-0.9608567703	 0.114359
H	-0.4308091895	 2.0124620098	 0.8032380529	 0.110359
H	-0.9956351049	-0.2879129754	 0.0889014725	 0.065822
H	 0.2480484282	-0.5655170902	-1.9505819615	 0.22703
H	 0.5332747368	-2.7132964551	-0.8934209416	 0.10335
H	 2.1793537144	-2.1492649091	-1.2714593016	 0.124216
H	 2.6099154023	-0.6774636739	 2.0951876746	 0.249097
H	 0.2683122182	-0.540428787	 2.211671372	 0.112579
112.2381	145.3858	172.1073	243.5242	266.2893	327.2657	397.1667	453.9641	537.2504	560.0932	564.8981	593.0516	662.8618	797.6749	846.1229	851.6445	948.5759	960.3915	1002.3248	1036.7224	1048.4651	1077.2048	1094.911	1123.2897	1138.6592	1169.319	1222.1269	1264.9276	1284.1985	1328.9457	1369.2534	1391.6679	1405.4301	1412.2178	1454.3527	1495.1647	1498.9603	1512.6004	2349.8071	2924.3863	2963.7764	3038.4059	3058.8667	3102.6929	3132.9808	3182.1727	3496.0458	3573.3003
CC1NCC2(NC12)C#N	C[C@H]1NC[C@]2(N[C@@H]12)C#N	
InChI=1S/C6H9N3/c1-4-5-6(2-7,9-5)3-8-4/h4-5,8-9H,3H2,1H3	InChI=1S/C6H9N3/c1-4-5-6(2-7,9-5)3-8-4/h4-5,8-9H,3H2,1H3/t4-,5+,6-/m1/s1
