17
gdb 51355	6.65348	0.88021	0.86155	4.1001	75.21	-0.2749	0.0106	0.2855	1336.4401	0.135954	-421.768947	-421.761552	-421.760607	-421.801984	27.732	
O	-0.113846164	-0.0487392356	-0.0444968859	-0.279735
C	-0.0815224424	 1.1453497718	-0.0442512839	 0.166557
O	 1.0441637693	 1.8455846096	 0.1775722754	-0.209296
C	 0.9822708646	 3.2708005012	 0.1578845373	 0.149021
C	 1.7469853208	 3.9819607972	 1.2775911762	-0.088798
C	 3.1354871695	 3.7246232711	 0.5862271319	-0.029264
C	 3.5227946834	 5.2143530968	 0.6560179412	-0.26739
C	 2.0111674854	 5.2236476774	 0.3536903858	-0.04634
C	 2.1201974291	 3.9724536483	-0.5885000521	-0.088802
H	-0.9622623625	 1.7929377358	-0.2241362433	 0.075698
H	-0.0420841961	 3.6042393122	-0.0486620855	 0.083801
H	 1.5442884548	 3.9986325631	 2.3483840743	 0.082579
H	 3.7567914137	 2.8401478112	 0.7149961781	 0.093528
H	 3.8308814256	 5.5991113313	 1.6330849943	 0.09912
H	 4.1837024176	 5.5900714556	-0.131166378	 0.099126
H	 1.3357742855	 6.068649688	 0.2143184863	 0.077618
H	 2.3449522758	 3.978204495	-1.6549961622	 0.082577
35.1936	121.7163	147.4929	319.9554	333.0044	416.6526	455.9188	717.1568	725.5418	792.1014	844.4058	851.2219	875.2729	914.0068	924.4906	956.9822	970.4904	1015.2596	1029.6723	1045.0015	1064.3796	1069.5872	1132.8142	1139.078	1144.304	1156.6245	1170.6023	1193.0335	1206.5515	1243.1384	1244.0316	1293.9392	1314.0671	1391.2948	1445.1539	1513.1792	1864.0568	2942.6025	3033.0635	3043.0905	3100.6862	3103.6197	3118.15	3120.9116	3137.2786
O=COC1C2C3CC2C13	O=CO[C@H]1[C@H]2[C@@H]3C[C@H]2[C@H]13	
InChI=1S/C7H8O2/c8-2-9-7-5-3-1-4(5)6(3)7/h2-7H,1H2	InChI=1S/C7H8O2/c8-2-9-7-5-3-1-4(5)6(3)7/h2-7H,1H2/t3-,4+,5-,6+,7-
