21
gdb 120305	3.16938	1.01034	0.91083	1.2116	79.47	-0.2357	0.0825	0.3182	1392.5532	0.180825	-424.185813	-424.176217	-424.175273	-424.220549	35.584	
C	-0.2380350004	 1.4780932779	 0.0694553151	-0.387813
C	-0.3050103092	-0.0173862875	 0.325013068	-0.032713
O	-1.2943124354	-0.5750295376	-0.528594875	-0.254292
C	-1.4581732927	-1.947179624	-0.356987824	 0.055623
C	-2.2944584827	-2.5511558843	 0.7509591509	-0.168821
C	-3.4881351712	-1.6378335274	 1.0585233682	-0.219084
C	-3.9469528121	-1.7327287554	-0.4317700534	-0.285659
C	-2.7326362279	-2.620224179	-0.727243535	 0.332399
O	-2.7719176972	-3.7341370963	-1.5498175661	-0.461651
H	 0.5195871069	 1.9407713568	 0.7090156252	 0.114992
H	 0.0191417731	 1.6787790661	-0.9745549473	 0.126158
H	-1.203519944	 1.9472153042	 0.2796847697	 0.126572
H	 0.6710803096	-0.4890530107	 0.1243112141	 0.086711
H	-0.5543835822	-0.2264231495	 1.3766213229	 0.094662
H	-0.5725479753	-2.5405709839	-0.5971117083	 0.082847
H	-1.9032644512	-3.328669899	 1.3964881902	 0.08918
H	-4.2029860378	-2.0901042917	 1.748315583	 0.103594
H	-3.2358384708	-0.6358339988	 1.4148634821	 0.10187
H	-4.8773433426	-2.2942140559	-0.538976152	 0.107323
H	-4.0151776149	-0.7978691866	-0.9941019576	 0.102356
H	-2.488597672	-3.4687875073	-2.4319157408	 0.285747
62.8094	89.9476	125.3069	193.6276	223.1657	244.3551	263.8421	308.3831	351.9298	400.543	506.8365	592.0699	634.7572	774.6051	795.9423	820.603	836.4858	891.5699	918.7736	939.4884	961.9792	1002.8129	1031.2026	1062.61	1086.6261	1133.1182	1147.8543	1165.5335	1187.7455	1211.9144	1224.9031	1232.6171	1249.9617	1293.3173	1296.9756	1321.306	1334.7561	1397.2522	1418.6437	1466.6638	1473.7955	1483.6522	1499.6893	1509.7268	1529.0109	2968.2787	3002.2492	3044.3078	3060.4447	3067.3264	3080.4227	3109.3833	3118.7399	3120.3016	3127.4779	3182.3389	3792.858
CCOC1C2CCC12O	CCO[C@H]1[C@H]2CC[C@@]12O	
InChI=1S/C7H12O2/c1-2-9-6-5-3-4-7(5,6)8/h5-6,8H,2-4H2,1H3	InChI=1S/C7H12O2/c1-2-9-6-5-3-4-7(5,6)8/h5-6,8H,2-4H2,1H3/t5-,6+,7+/m1/s1
