18
gdb 9751	3.49628	1.61947	1.49307	2.2533	68.15	-0.2356	0.0291	0.2647	925.1977	0.153709	-384.946682	-384.938661	-384.937717	-384.978944	30.736	
O	-0.0162615949	 1.3080180915	-0.2180902593	-0.436654
C	-0.0791088072	-0.1158634831	-0.1628051735	-0.133241
C	-1.5387356039	-0.4840259828	 0.1138252962	 0.433067
O	-1.9371606705	 0.1381455498	 1.3263265027	-0.489934
C	-2.4434997371	-0.0941024008	-1.0993048725	-0.317235
C	-2.7024014294	-1.4068754141	-1.7920261024	-0.059566
C	-2.2999204263	-2.4469495258	-1.0631585623	-0.064691
C	-1.6942594804	-2.0199621624	 0.2494840887	-0.314421
H	 0.9058888076	 1.5775830839	-0.2060505579	 0.294104
H	 0.2552605781	-0.5711844383	-1.1066545969	 0.096341
H	 0.545019239	-0.5020482273	 0.6554815804	 0.094351
H	-1.5977643006	 1.0413407986	 1.2806258078	 0.282355
H	-3.3733612442	 0.3502719769	-0.7221471329	 0.111012
H	-1.9712081492	 0.6575785553	-1.7405521368	 0.109918
H	-3.1897064049	-1.4726123523	-2.7589808857	 0.088618
H	-2.409383261	-3.4892262387	-1.3419889919	 0.089128
H	-0.7396310257	-2.5160788858	 0.4668496059	 0.093822
H	-2.3561260093	-2.2374610745	 1.0972386704	 0.123027
68.1219	148.3354	224.8812	240.6186	336.8986	364.1326	389.047	426.1661	466.6161	504.2264	645.0764	698.0807	770.0855	794.8261	898.9955	940.6538	961.1269	974.6603	979.3617	989.0702	1050.3977	1090.5517	1100.8943	1128.6828	1150.9087	1157.421	1219.2595	1269.1821	1285.471	1291.1373	1325.7034	1369.484	1409.9993	1443.6858	1480.5203	1490.482	1509.4003	1689.3652	2987.383	3019.5125	3027.9648	3031.78	3050.5854	3071.2197	3178.1724	3203.9429	3771.1806	3845.1585
OCC1(O)CC=CC1	OC[C@@]1(O)CC=CC1	
InChI=1S/C6H10O2/c7-5-6(8)3-1-2-4-6/h1-2,7-8H,3-5H2	InChI=1S/C6H10O2/c7-5-6(8)3-1-2-4-6/h1-2,7-8H,3-5H2
