25
gdb 118228	3.61647	0.62269	0.60901	2.3004	86.98	-0.2508	0.0706	0.3214	2000.1452	0.225509	-426.623314	-426.611381	-426.610436	-426.661404	42.297	
C	-0.0536737867	 1.3997562766	-0.0417259006	-0.226012
O	 0.0005650025	-0.0044118541	-0.0156972073	-0.232653
C	-1.2762257162	-0.6060466251	 0.0211080174	-0.05795
C	-1.1166151992	-2.1253538963	 0.0841252355	 0.017958
C	-0.3546026466	-2.5402971429	 1.349579317	-0.398088
C	-2.4945319548	-2.7987544463	-0.0300334156	-0.205623
C	-2.4503082222	-4.3181792441	-0.2495042044	 0.12631
C	-3.851682515	-4.9227809654	-0.3480599012	-0.400084
O	-1.6612034719	-4.6613817234	-1.3879091638	-0.42538
H	 0.9747273424	 1.768684164	-0.0706228017	 0.125314
H	-0.5892465094	 1.7731979272	-0.9297109139	 0.100361
H	-0.5525923075	 1.8080715306	 0.8521239223	 0.101357
H	-1.8428922883	-0.2435787819	 0.8988848972	 0.076787
H	-1.8545294301	-0.3189550979	-0.8748467384	 0.075733
H	-0.5257905735	-2.4252890932	-0.7893348125	 0.092948
H	-0.1115409867	-3.6063477091	 1.3442583702	 0.117768
H	 0.5799290283	-1.9803313843	 1.4258131598	 0.132022
H	-0.9475227662	-2.333161786	 2.249671252	 0.101274
H	-3.0878462817	-2.5900402925	 0.871152651	 0.091969
H	-3.0505242846	-2.3535552181	-0.8699374165	 0.076602
H	-1.9249353655	-4.7893294971	 0.5890702953	 0.092713
H	-4.4126333746	-4.4715640884	-1.1766469035	 0.103927
H	-3.7885007723	-5.9997553168	-0.525447198	 0.123156
H	-4.4234035463	-4.7534254212	 0.5702830788	 0.114942
H	-2.099788894	-4.2976501342	-2.165549489	 0.274649
34.6933	67.7097	88.3736	116.6148	135.0373	217.1833	222.8689	241.7408	242.58	285.8824	298.8449	323.6005	377.9483	433.0023	451.5571	486.0187	562.3596	832.0085	842.8674	890.6621	933.5882	935.5287	973.5446	996.5748	1025.4769	1066.7191	1109.9646	1136.2136	1160.9434	1163.1221	1177.8951	1193.3598	1222.4499	1234.2648	1272.2799	1287.746	1328.153	1345.3841	1387.3664	1392.2804	1402.2936	1407.7496	1421.5979	1424.4864	1473.7285	1480.7552	1485.1648	1491.9659	1493.9484	1496.9462	1502.8365	1508.568	1526.5084	2930.0074	2959.7556	2965.731	2986.5377	3006.4466	3022.2915	3026.426	3028.8465	3049.271	3055.6624	3093.1403	3100.8873	3110.3352	3117.8025	3129.7048	3793.2236
COCC(C)CC(C)O	COC[C@@H](C)C[C@@H](C)O	
InChI=1S/C7H16O2/c1-6(5-9-3)4-7(2)8/h6-8H,4-5H2,1-3H3	InChI=1S/C7H16O2/c1-6(5-9-3)4-7(2)8/h6-8H,4-5H2,1-3H3/t6-,7+/m0/s1
