17
gdb 89189	2.53978	1.58515	1.2297	3.3318	67.64	-0.2721	0.0018	0.2738	1046.5639	0.135436	-458.976402	-458.968229	-458.967285	-459.009063	30.983	
C	-0.0888258556	 1.5526246078	 0.1646564866	-0.499502
C	 0.036637825	 0.0577731138	-0.0012769008	 0.12266
C	-1.2416377646	-0.8541555965	 0.0799217884	-0.339921
C	-0.5114911833	-1.7864525157	 1.1064063502	 0.159616
O	-0.4181926561	-3.155565428	 0.8515058162	-0.43261
C	 0.7765460984	-0.9534870849	 0.9253838823	 0.014616
O	 1.5328345172	-1.4544504535	-0.2266716222	-0.281458
C	 0.9701825805	-0.5044886754	-1.0680772696	 0.43756
O	 1.2258237127	-0.3192883878	-2.212300549	-0.323398
H	 0.8896870449	 2.0314844044	 0.2687744504	 0.133911
H	-0.5818765575	 1.9874509254	-0.7108431977	 0.14634
H	-0.6884901078	 1.8006627482	 1.0459921242	 0.125585
H	-2.1097778235	-0.3362031451	 0.4935528077	 0.117548
H	-1.5322960541	-1.3330614037	-0.8573232028	 0.125339
H	-0.9261810868	-1.6700357912	 2.1117859353	 0.101291
H	 0.2087613028	-3.2658814004	 0.1248301499	 0.294313
H	 1.4395807778	-0.7126675374	 1.755265371	 0.09811
91.504	168.9162	191.3991	241.1523	252.8158	279.8951	407.8304	417.9536	459.746	604.3944	628.2658	678.8195	751.7694	805.5847	822.8311	867.5641	905.4241	942.9086	956.7251	1002.0052	1055.8199	1087.496	1134.5441	1147.6902	1181.4235	1209.2073	1218.6528	1269.3835	1309.5952	1327.2391	1348.3958	1416.0418	1440.0051	1480.1628	1490.5667	1492.7182	1937.1679	3036.549	3069.1024	3074.6615	3107.3936	3108.7351	3128.1132	3129.9369	3771.333
CC12CC(O)C1OC2=O	C[C@]12C[C@@H](O)[C@H]1OC2=O	
InChI=1S/C6H8O3/c1-6-2-3(7)4(6)9-5(6)8/h3-4,7H,2H2,1H3	InChI=1S/C6H8O3/c1-6-2-3(7)4(6)9-5(6)8/h3-4,7H,2H2,1H3/t3-,4-,6+/m1/s1
