17
gdb 36281	4.28555	1.07264	1.00943	1.6919	77.43	-0.2396	-0.0036	0.2361	1199.853	0.13537	-384.601605	-384.593947	-384.593003	-384.634035	30.196	
C	 0.015815026	-1.1745143925	-0.2493369866	-0.446411
C	-0.0059856464	 0.0061915342	-0.0239778681	 0.295647
C	 0.0084843393	 1.4405171898	 0.2398119932	-0.388413
C	 1.4173279931	 2.0343216913	 0.1332412052	 0.026695
C	 1.9557184219	 2.2666474943	-1.3206692516	 0.013249
O	 1.0892067	 3.4498103318	-1.3895322832	-0.287731
C	 1.4916549011	 3.5967216055	 0.0128456692	-0.002723
C	 3.0082526765	 3.8152319927	-0.1165049807	-0.086393
C	 3.3269087479	 2.9004996646	-1.0354228285	-0.078295
H	 0.0176571232	-2.2178294593	-0.4459149523	 0.194928
H	-0.6477068762	 1.9614785481	-0.4654141472	 0.149205
H	-0.3877032773	 1.631055327	 1.2461068142	 0.127392
H	 2.1064255238	 1.5617350615	 0.8363716991	 0.085344
H	 1.824995953	 1.554913863	-2.1340193455	 0.09024
H	 0.877485647	 4.2842386395	 0.5939409123	 0.080023
H	 3.6162411326	 4.5241197555	 0.4252919616	 0.113344
H	 4.2760682446	 2.632741363	-1.474835171	 0.1139
68.844	107.6703	258.1108	279.0806	350.991	410.9827	520.7479	562.5919	616.0339	629.4074	641.7644	705.9106	751.8195	799.6724	857.4963	870.8695	884.5904	909.5257	914.5828	945.4897	977.2559	988.01	1038.6795	1071.2071	1148.3386	1151.3824	1178.0291	1210.9705	1237.5646	1248.8557	1295.3182	1299.2953	1320.8945	1379.1799	1473.8481	1613.5232	2237.1961	3021.8106	3073.4098	3094.5025	3128.4241	3143.5266	3234.8892	3261.8477	3506.5797
C#CCC1C2OC1C=C2	C#CC[C@H]1[C@H]2O[C@@H]1C=C2	
InChI=1S/C8H8O/c1-2-3-6-7-4-5-8(6)9-7/h1,4-8H,3H2	InChI=1S/C8H8O/c1-2-3-6-7-4-5-8(6)9-7/h1,4-8H,3H2/t6-,7-,8+
