13
gdb 132656	3.19389	1.42451	0.98559	2.5083	65.05	-0.2208	-0.0247	0.1961	1076.4498	0.09077	-494.099873	-494.092628	-494.091684	-494.131438	27.968	
N	 0.0435655937	 1.3245488437	 0.1266857734	-0.555364
C	 0.0171919429	-0.0399554669	 0.0406237196	 0.430314
N	-1.1820224707	-0.6316754909	 0.0834001158	-0.322567
C	-1.1687276365	-1.9683708086	 0.051099912	-0.097154
C	-0.00565042	-2.7029004897	-0.0255536613	 0.138188
F	-0.0096408743	-4.0378838493	-0.0583008007	-0.066523
C	 1.1940847787	-1.983013751	-0.0772454881	 0.316728
O	 2.3572715761	-2.6412652526	-0.1639351182	-0.400834
N	 1.2081118316	-0.6615413987	-0.0462962723	-0.399848
H	 0.8888076392	 1.7826524315	-0.1693623312	 0.261173
H	-0.827113517	 1.7957050831	-0.0539928771	 0.264576
H	-2.1261934213	-2.4824435427	 0.084760639	 0.12802
H	 3.0490851174	-1.9643671678	-0.1828621708	 0.303291
130.3086	232.5931	283.5822	340.7048	372.52	411.9347	454.9606	476.562	492.9664	557.9855	561.0024	596.1011	735.0503	786.0291	797.0691	812.9404	974.4122	996.1428	1085.2155	1212.4226	1271.3138	1301.1246	1351.7771	1392.9271	1494.2016	1516.6442	1624.4062	1630.9419	1679.8137	3165.7816	3608.9998	3735.5984	3759.5645
NC1=NC=C(F)C(O)=N1	Nc1ncc(F)c(O)n1	
InChI=1S/C4H4FN3O/c5-2-1-7-4(6)8-3(2)9/h1H,(H3,6,7,8,9)	InChI=1S/C4H4FN3O/c5-2-1-7-4(6)8-3(2)9/h1H,(H3,6,7,8,9)
