21
gdb 109793	2.9101	1.00168	0.86798	1.3438	80.32	-0.2194	0.0667	0.2862	1407.5046	0.182075	-420.328122	-420.318276	-420.317332	-420.363439	35.739	
C	 1.1320739919	 0.739178906	-1.5946340771	-0.308932
N	 0.7914423308	-0.2580019661	-0.5864671959	-0.10367
C	 1.5792769799	-0.3783181844	 0.6382672792	-0.057746
C	 2.7803300381	 0.491223002	 0.9397770682	-0.083782
O	 3.8942850037	 0.1720417782	 0.1141284151	-0.4176
C	 0.1654410798	 0.1269105568	 0.6763442655	-0.043646
C	-0.1934313131	 1.5355182536	 1.038304278	 0.012756
C	-1.6287888911	 1.9154222412	 1.1038914417	-0.2492
N	-0.8381351931	 1.7932007196	 2.3399926155	-0.323202
H	 1.4520689042	 1.7174929065	-1.212691808	 0.105234
H	 1.9449523882	 0.342877723	-2.2085494523	 0.134393
H	 0.2583226856	 0.8972282847	-2.2343685984	 0.121434
H	 1.7388074026	-1.4190536024	 0.9332450133	 0.079988
H	 2.5813461289	 1.5492166311	 0.7600248163	 0.112135
H	 3.0308134952	 0.3900123248	 2.0076780304	 0.097057
H	 4.0873003569	-0.7644694963	 0.2288520577	 0.282791
H	-0.6026884806	-0.5793959025	 1.0029027747	 0.079452
H	 0.5158274598	 2.3090503912	 0.763292593	 0.095778
H	-1.9379379708	 2.9266466961	 0.8555740287	 0.121325
H	-2.3631270009	 1.1468639885	 0.8749312338	 0.11473
H	-1.0500643461	 0.9078100082	 2.7962686405	 0.230705
56.9338	83.6637	125.8328	133.9977	187.61	251.0422	273.9452	316.9851	319.8089	353.7076	498.0023	553.5504	586.3113	736.8783	803.9909	820.6347	868.1609	901.5944	959.3006	980.5005	1009.1035	1053.5516	1068.6176	1093.6725	1112.0109	1129.0329	1147.5118	1154.5962	1167.2344	1173.2343	1225.3853	1236.1775	1256.6584	1296.8489	1330.9978	1349.8618	1361.1737	1404.2204	1430.4318	1452.6432	1472.5271	1486.6699	1499.617	1511.9045	1514.3487	2982.4215	3009.81	3054.1622	3064.6179	3077.5109	3106.8147	3111.6318	3116.5889	3160.9328	3193.8819	3483.821	3809.0023
CN1C(CO)C1C1CN1	CN1[C@@H](CO)[C@H]1[C@H]1CN1	
InChI=1S/C6H12N2O/c1-8-5(3-9)6(8)4-2-7-4/h4-7,9H,2-3H2,1H3	InChI=1S/C6H12N2O/c1-8-5(3-9)6(8)4-2-7-4/h4-7,9H,2-3H2,1H3/t4-,5+,6-,8?/m1/s1
