23
gdb 73844	2.44643	1.53368	1.0895	0.169	92.51	-0.2152	0.0366	0.2518	1221.9423	0.206443	-351.177084	-351.168028	-351.167084	-351.210585	35.072	
C	 0.0246527686	 1.4967523971	 0.2246114111	-0.494819
C	-0.0934458158	 0.0098117479	 0.0884397468	 0.222257
C	 0.0222185963	-0.7351157618	-1.0226673983	 0.223158
C	 0.2986332848	-0.276720437	-2.4225450463	-0.501137
C	-0.1808094026	-2.2061130844	-0.7444951196	-0.098226
C	 1.1132285478	-3.0770451058	-0.7089368142	-0.223446
C	 1.1706246074	-2.8849651591	 0.8325375749	-0.219514
C	-0.2636959792	-2.2747649305	 0.813616003	-0.001881
C	-0.4123821451	-0.829859575	 1.3127949139	-0.316372
H	 0.8278382153	 1.7654441398	 0.923354073	 0.121745
H	 0.2278410795	 1.9958879801	-0.7258476001	 0.119674
H	-0.8977915802	 1.9260123714	 0.6380069728	 0.121818
H	 0.455705335	 0.8022118408	-2.4934109857	 0.119656
H	 1.1890494289	-0.7711460428	-2.8314449875	 0.124078
H	-0.5326718576	-0.5390567326	-3.0904162336	 0.121619
H	-1.0052117319	-2.6241008635	-1.3349474255	 0.058948
H	 0.9249637214	-4.1146984168	-0.9985792272	 0.09425
H	 1.9678784172	-2.710278447	-1.2846193451	 0.091698
H	 1.3009657939	-3.7932225919	 1.4260062142	 0.093676
H	 1.9272957464	-2.1607403778	 1.1479560512	 0.096793
H	-1.0193533311	-2.9525488243	 1.2151108544	 0.059151
H	 0.2653209955	-0.611815183	 2.1506310084	 0.093285
H	-1.4257809843	-0.6103959637	 1.6808917794	 0.093587
101.0759	129.4327	141.3998	173.424	211.6858	296.584	322.6646	361.5914	402.2059	545.2797	565.9221	625.5848	692.4297	740.8454	774.0088	859.9587	869.9243	895.3359	948.6769	958.9626	968.0447	993.4662	1008.5695	1052.1007	1059.0633	1089.8413	1095.6584	1123.1576	1184.4692	1193.3804	1206.5792	1229.4984	1239.4181	1254.7162	1269.3445	1281.3689	1319.1383	1332.8946	1351.3398	1408.5235	1420.4108	1475.9723	1478.688	1482.163	1483.5169	1488.4381	1493.0401	1495.4976	1730.443	2990.0986	3012.8626	3015.1535	3017.3768	3023.0574	3048.0671	3054.118	3056.1414	3057.37	3083.1029	3093.022	3111.3286	3112.7283	3117.8998
CC1=C(C)C2CCC2C1	CC1=C(C)[C@H]2CC[C@H]2C1	
InChI=1S/C9H14/c1-6-5-8-3-4-9(8)7(6)2/h8-9H,3-5H2,1-2H3	InChI=1S/C9H14/c1-6-5-8-3-4-9(8)7(6)2/h8-9H,3-5H2,1-2H3/t8-,9+/m0/s1
