17
gdb 83806	2.66599	1.84112	1.54748	3.7757	66.91	-0.2299	0.0691	0.299	912.031	0.137324	-458.916336	-458.909317	-458.908373	-458.947438	28.476	
O	 0.2190092936	 1.3439607426	-0.0816361321	-0.424271
C	 0.0331916477	-0.0226651694	-0.0164291078	 0.118176
C	-0.4558878112	-0.6957827023	 1.2416364698	 0.002993
O	-0.8041732696	 0.1782319733	 2.2776970937	-0.251646
C	-2.1761069825	 0.188964864	 2.633358506	-0.114991
C	-3.0601075429	 0.5444312164	 1.4549809989	 0.034454
O	-2.5152680691	 1.508656835	 0.5474026989	-0.264355
C	-2.6102783015	 0.1303012511	 0.118920346	 0.03996
C	-1.3466859254	-0.6667723253	 0.0030388626	-0.169297
H	-0.5044499836	 1.752908858	 0.4154748479	 0.30124
H	 0.7939863513	-0.5437794484	-0.5890219929	 0.109359
H	-0.0234201137	-1.6372211042	 1.5771272706	 0.090625
H	-2.5014433013	-0.7819344917	 3.0417163637	 0.100901
H	-2.2680268705	 0.938159633	 3.4259591436	 0.125451
H	-4.1221529403	 0.6590324777	 1.6680770341	 0.101042
H	-3.3475034285	-0.0247278647	-0.6659911845	 0.106825
H	-1.4663910825	-1.5913673752	-0.5534976485	 0.093531
168.178	184.0179	285.3417	336.5895	365.2659	421.6035	476.9705	540.6246	643.4713	696.2259	727.7277	753.6358	778.2945	824.5893	861.5789	903.9433	941.9068	994.8426	1036.2902	1050.3928	1067.1289	1097.1508	1110.9151	1121.0514	1151.6157	1170.8627	1239.1387	1261.4348	1295.9879	1334.2908	1354.0468	1378.6809	1381.3893	1407.1351	1463.0403	1486.6864	1490.1028	2978.9347	3080.9948	3107.5134	3121.9614	3133.7678	3153.4746	3166.1485	3733.2071
OC1C2OCC3OC3C12	O[C@H]1[C@H]2OC[C@H]3O[C@H]3[C@@H]12	
InChI=1S/C6H8O3/c7-4-3-5-2(9-5)1-8-6(3)4/h2-7H,1H2	InChI=1S/C6H8O3/c7-4-3-5-2(9-5)1-8-6(3)4/h2-7H,1H2/t2-,3-,4-,5-,6+/m1/s1
