18
gdb 56774	2.9403	1.31879	1.05015	4.0297	75.83	-0.2456	0.0211	0.2667	1162.1449	0.148855	-398.084741	-398.076174	-398.07523	-398.118222	32.053	
N	 0.0231536993	 1.4650119247	-0.0444543229	-0.498765
C	 0.0081372974	 0.0009605404	 0.0350579186	-0.256839
C	 0.498336689	-0.6597767327	-1.1946258922	 0.279377
N	 0.8916839831	-1.1092416006	-2.1845383774	-0.334177
C	 0.7915880974	-0.4303904802	 1.2579723153	 0.394677
C	 2.1943710719	-0.8966766137	 1.2486401777	-0.296375
N	 1.1304327629	-1.8712001812	 1.568628598	-0.16184
C	 0.7577529446	-1.5960163979	 3.0056183336	-0.153828
C	 0.316303169	-0.1444282393	 2.6812700571	-0.309808
H	 0.9682531488	 1.7861428674	-0.2355717349	 0.243593
H	-0.5548473905	 1.7795440508	-0.8179799719	 0.247084
H	-1.0354181524	-0.3089979926	 0.1737985013	 0.132515
H	 2.6607811326	-1.0892035176	 0.2877648448	 0.145074
H	 2.8748947215	-0.5789151041	 2.036452135	 0.111946
H	-0.0577055597	-2.2529037747	 3.3125731586	 0.118056
H	 1.59611042	-1.7194578325	 3.6982042742	 0.110535
H	 0.8069662016	 0.6798565373	 3.2040461757	 0.111522
H	-0.7644758263	-0.0046473734	 2.7468650794	 0.117253
56.3071	126.3131	166.8655	216.4718	271.2037	284.8081	345.6814	396.7564	469.543	510.7567	591.5642	723.7817	749.6937	777.5992	828.5536	848.016	879.3921	937.1529	959.9544	983.0624	1003.3865	1077.7478	1090.095	1108.8436	1135.847	1190.9044	1194.933	1216.853	1219.8708	1267.0155	1303.8724	1354.7557	1378.0558	1396.3907	1486.7307	1492.0633	1516.9036	1659.7639	2347.4377	3034.8124	3054.7526	3070.3019	3101.4018	3111.1568	3129.0586	3202.7551	3494.4369	3576.259
NC(C#N)C12CN1CC2	N[C@@H](C#N)[C@]12CN1CC2	
InChI=1S/C6H9N3/c7-3-5(8)6-1-2-9(6)4-6/h5H,1-2,4,8H2	InChI=1S/C6H9N3/c7-3-5(8)6-1-2-9(6)4-6/h5H,1-2,4,8H2/t5-,6-,9?/m0/s1
