19
gdb 33965	2.28691	1.71145	1.20286	0.7049	87.48	-0.2271	0.0374	0.2645	1094.3191	0.158405	-348.680244	-348.671989	-348.671045	-348.712685	33.076	
C	 0.0214494185	-1.2174539623	-0.031133965	-0.430689
C	 0.0252131944	-0.0131621964	-0.0037366487	 0.192341
C	-0.0029119567	 1.4067585589	 0.0573058987	 0.145784
C	 0.23878675	 2.2997853446	-1.1447851211	-0.324285
C	 1.1561640927	 2.4367336143	 0.0295358371	-0.109182
C	 0.491518669	 3.2451170656	 1.1521690938	-0.316473
C	-0.6712362887	 2.2313084108	 1.1556101643	 0.314828
C	-2.1419760501	 2.4664968145	 1.3391142952	-0.325915
C	-1.3548059172	 1.6700066459	 2.3598470946	-0.340562
H	 0.0282381219	-2.278530535	-0.0604514279	 0.183192
H	 0.6542093689	 1.7943725217	-2.0099036807	 0.125119
H	-0.4831199537	 3.0799026358	-1.375272408	 0.112325
H	 2.2142601846	 2.2206222016	-0.0451759024	 0.10299
H	 1.0607444091	 3.2252992954	 2.0850788593	 0.10884
H	 0.2466835519	 4.2843084252	 0.9065221425	 0.098859
H	-2.4687484779	 3.4648524948	 1.612385847	 0.110751
H	-2.8306697638	 1.9294926524	 0.6947237523	 0.117049
H	-1.5072108049	 0.5959465735	 2.3922702556	 0.125367
H	-1.1516846382	 2.1264511487	 3.3235692232	 0.109661
105.3231	134.526	177.1538	273.2021	289.9301	387.1234	445.3418	463.4698	538.9664	556.5835	567.9712	610.1225	648.5193	773.027	797.4548	826.1388	854.2043	875.9372	906.1035	940.3301	952.7407	990.6856	1023.775	1032.7311	1052.6221	1077.8034	1084.9891	1098.6406	1155.9991	1177.6089	1189.0343	1238.8243	1267.9675	1276.5725	1368.2159	1383.5951	1461.5624	1477.5078	1494.6557	1504.8687	2226.6432	3039.1789	3096.6881	3109.6814	3122.6367	3125.7437	3194.8528	3202.3468	3211.5246	3216.5643	3503.8602
C#CC12CC1CC21CC1	C#C[C@]12C[C@H]1CC12CC1	
InChI=1S/C9H10/c1-2-9-6-7(9)5-8(9)3-4-8/h1,7H,3-6H2	InChI=1S/C9H10/c1-2-9-6-7(9)5-8(9)3-4-8/h1,7H,3-6H2/t7-,9+/m1/s1
