13
gdb 46246	2.95085	1.37257	1.07657	3.6635	65.49	-0.278	-0.0282	0.2497	1075.7703	0.087024	-456.514578	-456.506753	-456.505809	-456.547336	28.358	
O	-0.1303797581	 0.0738067997	-0.2104218621	-0.3186
C	-0.0365205077	 1.2313069573	 0.0192715096	 0.422687
O	-0.9957215529	 2.089873575	 0.5219263065	-0.245905
C	-0.0824054596	 3.2320092045	 0.5630193975	-0.158589
C	 0.9932204051	 2.3532754797	-0.069237854	 0.225564
O	 2.3461112996	 2.2791845895	 0.268087303	-0.246834
C	 2.0189648387	 2.6240032717	-1.0969526894	-0.279239
C	 2.3431591443	 1.678703871	-2.1254463802	 0.357676
C	 2.6242070735	 0.9174869311	-3.0107925153	-0.389105
H	-0.4636465661	 4.0622390254	-0.0342554765	 0.137759
H	 0.119723543	 3.5413788895	 1.5905841588	 0.144968
H	 2.2061682209	 3.6704622306	-1.3355479709	 0.134432
H	 2.8617337591	 0.2284299452	-3.784065367	 0.215186
91.5472	106.5048	180.2452	244.6339	257.0966	327.6442	470.9231	499.8185	553.6807	644.8888	668.8191	690.6561	746.6232	779.9725	849.609	907.0705	943.2106	1013.7151	1042.6278	1086.1415	1095.037	1148.8757	1166.943	1306.3579	1349.7927	1481.2842	1508.3711	1954.4471	2248.2711	3075.1981	3119.6256	3139.459	3499.875
O=C1OCC11OC1C#C	O=C1OC[C@]21O[C@H]2C#C	
InChI=1S/C6H4O3/c1-2-4-6(9-4)3-8-5(6)7/h1,4H,3H2	InChI=1S/C6H4O3/c1-2-4-6(9-4)3-8-5(6)7/h1,4H,3H2/t4-,6-/m0/s1
