14
gdb 124123	3.69622	0.96409	0.76832	3.5147	79.66	-0.2172	-0.025	0.1921	1415.1331	0.10125	-432.848375	-432.839863	-432.838919	-432.883267	29.769	
C	-0.1208065308	 1.5212965008	-0.0109992322	-0.508983
C	-0.0445157207	 0.070108465	-0.0056367027	 0.14931
C	 0.0317912473	-1.1345649963	-0.0005401072	 0.015561
C	 0.1169087325	-2.5339934808	 0.0053644938	 0.176656
C	 1.1778176864	-3.4282550896	 0.0580790619	 0.200684
O	 2.4849838546	-3.13500609	 0.1211761935	-0.424524
N	 0.7122067467	-4.6948850926	 0.0371517329	-0.26884
N	-0.5987092708	-4.6658179308	-0.0264881004	-0.117213
N	-0.9583874976	-3.3845038078	-0.0459049382	-0.286497
H	 0.8821385505	 1.9607348424	-0.0373461398	 0.161432
H	-0.6683237924	 1.8895576206	-0.8857983571	 0.154522
H	-0.6264898819	 1.8995612163	 0.8845499295	 0.154608
H	 2.958804231	-3.9765591234	 0.145325543	 0.30927
H	-1.9342968348	-3.136694444	-0.0936652169	 0.284013
20.875	84.1376	109.8638	263.257	272.0041	340.2735	386.3646	396.6475	487.7266	491.6074	559.7222	564.327	712.0608	740.5897	753.8199	990.0095	1009.3723	1049.8213	1050.3546	1135.1769	1173.1619	1225.5459	1293.3031	1372.9777	1398.6717	1413.918	1472.1231	1475.7137	1530.7924	1662.7163	2356.5503	3026.8896	3086.1031	3094.2115	3652.6922	3790.2612
CC#CC1=C(O)N=NN1	CC#Cc1c(O)nn[nH]1	
InChI=1S/C5H5N3O/c1-2-3-4-5(9)7-8-6-4/h1H3,(H2,6,7,8,9)	InChI=1S/C5H5N3O/c1-2-3-4-5(9)7-8-6-4/h1H3,(H2,6,7,8,9)
