17
gdb 133634	3.6887	0.84105	0.82109	2.7275	61.75	-0.2291	0.0707	0.2998	1413.1205	0.132295	-549.489683	-549.48081	-549.479866	-549.524593	32.282	
F	 0.8926757888	 0.9989430348	-0.2312560443	-0.07154
C	-0.216328589	 1.5734053549	 0.2432516869	 0.301417
F	 0.1032807464	 2.8278828793	 0.6077364714	-0.083243
F	-1.0960525792	 1.6627520671	-0.7694765986	-0.082431
C	-0.8257513904	 0.7873269763	 1.3969318132	-0.298306
N	 0.0819484003	 0.6997193153	 2.5242002675	-0.300724
C	 0.0396455109	 1.7948465398	 3.4590377544	 0.056518
C	-1.1505228173	 2.028459542	 4.3705211211	-0.269035
C	 0.1611893231	 1.5131539028	 4.9241695339	-0.288258
H	-1.7889041878	 1.265183935	 1.6364625753	 0.114916
H	-1.0314564572	-0.2141572741	 1.0092455741	 0.126938
H	-0.0178230447	-0.1879430465	 2.9960308514	 0.22792
H	 0.5416079408	 2.6840630924	 3.0923819728	 0.109593
H	-1.4455897427	 3.0475180553	 4.5955733933	 0.116471
H	-1.9745921753	 1.3244258961	 4.3135311944	 0.107919
H	 0.1981862633	 0.4738517666	 5.2375303708	 0.110838
H	 0.7726547701	 2.1733971832	 5.5285240624	 0.121007
48.9986	61.0051	106.0659	202.0301	224.6599	324.5667	358.293	432.794	489.5533	534.2104	557.1063	584.0756	710.3081	756.1966	813.3385	822.4239	859.4406	925.5157	966.085	1004.464	1045.4481	1078.1644	1107.6138	1138.7621	1170.411	1185.1534	1194.0455	1221.3487	1262.6343	1287.2354	1338.2759	1379.1165	1415.3351	1463.495	1468.3085	1496.6422	1517.2768	2986.5432	3100.1755	3126.2498	3131.6674	3164.1669	3207.0823	3222.6419	3581.9348
FC(F)(F)CNC1CC1	FC(F)(F)CNC1CC1	
InChI=1S/C5H8F3N/c6-5(7,8)3-9-4-1-2-4/h4,9H,1-3H2	InChI=1S/C5H8F3N/c6-5(7,8)3-9-4-1-2-4/h4,9H,1-3H2
