12
gdb 132939	3.21093	1.43002	0.98939	2.9779	60.95	-0.2543	-0.0549	0.1993	1055.8846	0.078017	-513.95313	-513.946025	-513.945081	-513.98509	26.385	
F	 0.0075110822	 0.0520152288	-0.3970549533	-0.044776
C	-0.024032416	 1.3335479945	-0.063581379	 0.072471
C	-1.1731302126	 1.9737586984	 0.1637846402	-0.039951
O	-1.237238245	 3.2886000302	 0.5075717478	-0.22319
C	-0.0906772824	 4.0443072214	 0.6416850702	 0.48057
N	-0.1087196576	 5.2645043059	 0.9584361317	-0.554261
N	 1.0922828538	 3.3680059428	 0.4031865635	-0.403484
C	 1.2637972025	 2.0330838769	 0.0484809684	 0.370926
O	 2.3517189932	 1.5416459918	-0.137249976	-0.350579
H	-2.150066216	 1.5137249456	 0.097087495	 0.165019
H	-1.0607212116	 5.5949182866	 1.0950079924	 0.239727
H	 1.9340670194	 3.9198760471	 0.500819859	 0.287529
89.0654	143.7406	296.2885	352.5754	366.1543	377.6176	442.5109	547.2479	616.8761	642.8352	710.6996	733.3979	773.0924	805.7658	807.278	894.4216	905.7772	1086.3385	1179.8874	1263.6082	1283.5013	1363.081	1409.1276	1437.2554	1723.5116	1785.8559	1821.4296	3232.7804	3541.7525	3611.9856
FC1=COC(=N)NC1=O	FC1=CO[C]([NH])NC1=O	
InChI=1S/C4H3FN2O2/c5-2-1-9-4(6)7-3(2)8/h1H,(H2,6,7,8)	InChI=1S/C4H3FN2O2/c5-2-1-9-4(6)7-3(2)8/h1H,(H2,6,7,8)
