20
gdb 116641	2.89747	0.84544	0.78576	3.1061	86.6	-0.2474	0.0153	0.2626	1582.521	0.166097	-403.105778	-403.094738	-403.093794	-403.142669	39.19	
C	 0.142711269	 1.2318006101	-0.3218638058	-0.251486
O	-0.3571467256	 0.1149409576	 0.4030094109	-0.192218
C	 0.5684697803	-0.6089489912	 1.0661874291	 0.12616
N	 0.2116493049	-1.6119302716	 1.7349010599	-0.232703
C	 1.1954994145	-2.4163807443	 2.4761989938	 0.074318
C	 2.6395971398	-1.865698221	 2.5126918946	-0.424645
C	 0.6535906969	-2.5370638229	 3.9189894165	-0.381938
C	 1.2196436823	-3.752811297	 1.8575553237	 0.400974
C	 1.2671232053	-4.8479764466	 1.3653496277	-0.523247
H	 0.846442236	 0.9221736257	-1.1042577523	 0.127777
H	-0.7213512362	 1.7063745135	-0.7882236686	 0.147407
H	 0.6341796596	 1.9553389571	 0.3402827691	 0.125642
H	 1.5922117675	-0.231473108	 0.9520502694	 0.077452
H	 2.6617506778	-0.8700964475	 2.9682133769	 0.113582
H	 3.2667767819	-2.52960656	 3.1122636039	 0.127761
H	 3.0793486553	-1.8109431401	 1.513075006	 0.124371
H	-0.3663517665	-2.9245070247	 3.899711718	 0.138177
H	 1.2812429368	-3.2070671688	 4.5126439491	 0.116305
H	 0.6419078048	-1.5488566778	 4.3891706737	 0.11164
H	 1.2932218357	-5.8136580024	 0.9245503345	 0.19467
32.1811	58.8113	139.1318	146.1151	177.2098	188.9943	227.6778	254.1525	312.4861	346.3311	354.146	409.7855	469.7676	479.174	570.2075	605.2844	624.0487	644.001	749.3012	904.0116	927.1545	960.5108	998.6876	1022.6176	1060.414	1154.7692	1175.6564	1177.6625	1205.5426	1238.1231	1286.2404	1385.384	1405.8255	1417.2814	1478.199	1482.5607	1484.0881	1494.1553	1495.151	1500.4587	1508.7885	1766.9066	2234.872	3010.7347	3034.7334	3042.8955	3045.9452	3075.1135	3111.4522	3118.1584	3124.9901	3143.1867	3144.7195	3502.2266
COC=NC(C)(C)C#C	COC=NC(C)(C)C#C	
InChI=1S/C7H11NO/c1-5-7(2,3)8-6-9-4/h1,6H,2-4H3	InChI=1S/C7H11NO/c1-5-7(2,3)8-6-9-4/h1,6H,2-4H3
