14
gdb 50487	3.93928	0.99733	0.93595	3.2706	72.62	-0.2559	-0.0725	0.1834	1225.0945	0.100093	-436.701623	-436.693571	-436.692627	-436.735252	28.079	
O	 0.2649084922	-0.0786387316	-0.292671015	-0.21695
C	 0.0981455925	 1.080395875	-0.03996229	 0.148278
C	 1.2454514186	 2.08679528	 0.160601289	-0.012811
O	 2.4997369433	 1.4519010367	 0.2620970281	-0.246093
C	 3.2608489966	 1.658465362	-0.9215969652	-0.164503
C	 2.4997671886	 2.7343529377	-1.6719553378	 0.194088
C	 1.3507880844	 2.9919806227	-1.0410495055	-0.221515
C	 2.9758293353	 3.331908388	-2.8659729209	 0.211195
N	 3.3971209124	 3.8009968909	-3.83747688	-0.319379
H	-0.9164096871	 1.531184301	 0.0601295772	 0.083862
H	 1.0345873803	 2.6460536177	 1.086965808	 0.1203
H	 4.2761141567	 1.9712408466	-0.6496497213	 0.136307
H	 3.3326634474	 0.7342078943	-1.511914561	 0.141452
H	 0.5899119487	 3.6976994988	-1.3442153855	 0.145769
53.181	108.8932	146.514	163.8489	262.5572	291.3888	420.0123	522.3635	560.2897	564.2903	693.7438	764.8744	838.2974	874.2592	904.8323	959.7057	998.3086	1030.8091	1050.6387	1126.0539	1201.7054	1205.4711	1250.2744	1283.7083	1332.8707	1376.7726	1410.5702	1516.4478	1680.3067	1851.6804	2343.4777	2865.382	2978.2817	3009.9021	3053.8047	3240.4359
O=CC1OCC(=C1)C#N	O=C[C@H]1OCC(=C1)C#N	
InChI=1S/C6H5NO2/c7-2-5-1-6(3-8)9-4-5/h1,3,6H,4H2	InChI=1S/C6H5NO2/c7-2-5-1-6(3-8)9-4-5/h1,3,6H,4H2/t6-/m0/s1
