15
gdb 16131	4.07752	1.8365	1.49643	3.0701	66.76	-0.2431	-0.0278	0.2153	839.4951	0.119889	-362.657709	-362.651093	-362.650149	-362.68845	25.416	
O	-0.4958965732	 0.6985208754	 0.7093240225	-0.269089
C	 0.2346070202	 0.9718757883	-0.2118384311	 0.116734
C	 1.3732048743	 1.9198978964	-0.1170316244	 0.211785
C	 1.8095010231	 2.4585800725	 1.2413953502	-0.35043
C	 2.2856856875	 3.8609820308	 0.9373120569	-0.082252
C	 2.089632838	 4.1926713789	-0.3423942346	-0.080743
C	 1.5346996145	 3.0486431318	-1.1246321898	-0.098082
N	 2.3486669124	 1.8334943901	-1.2173007694	-0.361358
H	 0.1039866875	 0.5336101374	-1.2245804113	 0.086268
H	 0.9554533264	 2.4466468472	 1.9287497158	 0.145907
H	 2.5872577171	 1.8382912654	 1.7049838445	 0.120382
H	 2.7461327118	 4.4946564758	 1.6866724062	 0.108297
H	 2.3154149574	 5.1502535606	-0.7960919853	 0.109256
H	 0.8514775915	 3.2090446399	-1.9527746688	 0.107426
H	 3.2871641215	 2.0138454296	-0.8648038013	 0.235898
114.3296	208.0298	239.0591	354.7764	376.2831	504.8779	520.1706	664.5944	734.2375	748.8097	763.2986	846.1661	910.7444	941.6485	954.6093	979.2611	1010.9306	1038.8105	1068.4917	1106.4379	1130.8028	1153.8575	1175.9995	1277.053	1293.4787	1322.3117	1359.3222	1395.2954	1422.7596	1471.509	1660.1317	1812.5186	2908.7642	3032.616	3068.191	3163.0559	3192.7456	3217.4819	3481.9446
O=CC12CC=CC1N2	O=C[C@]12CC=C[C@H]1N2	
InChI=1S/C6H7NO/c8-4-6-3-1-2-5(6)7-6/h1-2,4-5,7H,3H2	InChI=1S/C6H7NO/c8-4-6-3-1-2-5(6)7-6/h1-2,4-5,7H,3H2/t5-,6-/m1/s1
