19
gdb 102086	2.0247	1.31467	1.01402	1.453	71.2	-0.2496	-0.0295	0.2202	1250.9394	0.155672	-460.143329	-460.133254	-460.13231	-460.178766	35.759	
C	 0.1432943474	 1.3138005686	-0.6573814186	-0.482106
C	-0.0394775333	-0.0928329666	-0.1311843098	 0.434058
C	 1.0859154186	-1.0347604742	-0.1751078928	-0.223529
O	 0.7184551099	-0.4002210569	 1.0543029208	-0.294935
C	-1.4524132869	-0.6575597803	-0.0865349861	-0.187791
C	-2.3999964204	 0.1622829356	 0.8236385301	-0.101191
O	-3.6285766281	-0.5034665851	 1.0594684236	-0.41425
C	-2.0762477229	-0.857771033	-1.4559205745	 0.156035
O	-1.5046689122	-0.6953114955	-2.5057890497	-0.253698
H	 1.1956432117	 1.6005770886	-0.5964829743	 0.128339
H	-0.1811807228	 1.3718846859	-1.699238051	 0.151286
H	-0.4338463231	 2.0366264546	-0.0711575533	 0.124313
H	 0.8986255445	-2.1067384136	-0.2248156176	 0.109659
H	 2.0351225428	-0.7140501011	-0.6013298241	 0.117437
H	-1.3934264087	-1.6585373642	 0.3687148914	 0.096056
H	-1.8711664439	 0.3935476772	 1.7579137364	 0.122913
H	-2.6643941897	 1.1119127276	 0.3482642628	 0.125052
H	-3.4570827669	-1.2476592966	 1.6456615588	 0.288512
H	-3.1389672559	-1.1769389914	-1.4198036821	 0.103842
56.5676	97.867	110.9889	163.3114	186.0121	200.1914	254.9685	315.7963	335.2356	358.0642	390.2063	472.1803	487.6582	644.4621	753.5277	826.7797	862.0888	900.868	925.8747	968.7345	1039.8202	1050.5992	1062.5141	1103.7059	1118.7477	1134.2764	1164.3098	1186.9378	1267.884	1285.2532	1324.8668	1391.4975	1402.4684	1411.9895	1412.2524	1430.0986	1489.3667	1500.0034	1510.762	1533.8658	1819.2817	2920.0122	2994.4354	3016.9644	3045.2827	3082.6563	3086.3884	3113.7088	3137.288	3168.5542	3814.9167
CC1(CO1)C(CO)C=O	C[C@]1(CO1)[C@@H](CO)C=O	
InChI=1S/C6H10O3/c1-6(4-9-6)5(2-7)3-8/h2,5,8H,3-4H2,1H3	InChI=1S/C6H10O3/c1-6(4-9-6)5(2-7)3-8/h2,5,8H,3-4H2,1H3/t5-,6+/m1/s1
