13
gdb 45128	2.89761	1.76053	1.18	5.812	59.09	-0.28	-0.0728	0.2072	963.6675	0.089022	-493.72403	-493.71691	-493.715966	-493.756639	26.077	
O	-0.0722167895	 0.1937484315	-0.7694426528	-0.26724
C	-0.0527318159	 1.2103700192	-0.1474731926	 0.2962
O	-1.1785363149	 1.6822588409	 0.4338363914	-0.210308
C	-1.1959079123	 2.9477247113	 1.051284649	 0.067344
C	-0.6159057787	 3.1026136415	 2.4348431662	-0.338745
C	 0.0829168388	 3.6902979375	 1.2344689158	 0.067347
O	 1.287430959	 3.1141876029	 0.7870546576	-0.210308
C	 1.281137024	 1.9849162294	 0.0435822085	 0.296201
O	 2.2911940778	 1.5661010048	-0.4308908492	-0.26724
H	-2.0970142465	 3.4848245484	 0.7790464947	 0.137114
H	-1.1036254618	 3.7695588592	 3.1360533885	 0.141886
H	-0.1643144109	 2.2175000723	 2.8702185256	 0.150635
H	 0.1072226509	 4.7647689912	 1.0948088473	 0.137113
51.8669	71.4207	303.3694	355.7717	419.4819	446.9002	485.5581	508.77	555.8167	698.0983	740.8346	808.4236	817.1751	838.0746	936.672	1021.1146	1055.5918	1070.8204	1096.2861	1132.1162	1153.2579	1198.0837	1229.2313	1328.641	1379.1878	1416.1099	1476.9574	1863.0058	1873.2231	3142.7984	3177.7847	3185.548	3238.0705
O=C1OC2CC2OC1=O	O=C1O[C@H]2C[C@H]2OC1=O	
InChI=1S/C5H4O4/c6-4-5(7)9-3-1-2(3)8-4/h2-3H,1H2	InChI=1S/C5H4O4/c6-4-5(7)9-3-1-2(3)8-4/h2-3H,1H2/t2-,3+
