20
gdb 67642	3.16956	1.78066	1.57753	1.5575	81.27	-0.2031	0.0818	0.2848	947.0354	0.173956	-365.962457	-365.955625	-365.954681	-365.993197	28.857	
C	-0.0127064731	 1.5370036845	 0.0604890002	-0.52117
C	-0.0032612261	 0.0398335471	-0.0045602286	 0.334225
C	 1.0867132065	-0.8574626624	-0.5352589327	-0.109401
C	 0.5443098541	-1.7729223944	-1.6215892951	-0.234377
C	-0.8709678525	-2.0962467592	-1.1145409537	-0.063139
C	-0.7627217558	-2.9852907576	 0.1453733327	-0.167528
N	-0.6967462005	-1.7653718764	 1.0189092125	-0.131537
C	 0.5841311564	-1.0276870235	 0.9007949654	-0.091659
C	-1.2115046463	-0.9131402564	-0.1256199958	-0.058907
H	 0.9777201414	 1.9231611097	 0.323103385	 0.120321
H	-0.2920293708	 1.9778835103	-0.9043011716	 0.118357
H	-0.7219493927	 1.9035582662	 0.8110249816	 0.124094
H	 2.0855438387	-0.440984621	-0.6242312899	 0.079541
H	 0.5196486671	-1.2373491593	-2.5793332204	 0.093221
H	 1.1340153326	-2.6851368955	-1.7681997936	 0.096631
H	-1.5802092497	-2.3772698839	-1.8951154032	 0.062654
H	-1.6731653914	-3.5466184541	 0.3773499522	 0.099461
H	 0.0999696222	-3.6568357441	 0.212378391	 0.096459
H	 1.2514350729	-0.9415628269	 1.7524285893	 0.084841
H	-2.2331172133	-0.5371685131	-0.0500439452	 0.067913
191.366	204.2039	247.4727	327.5164	405.2763	515.871	541.558	631.7266	678.6788	713.8838	831.1871	838.6107	842.9152	858.996	885.1333	904.663	937.5057	955.8811	957.7156	973.2065	1017.033	1056.1851	1059.8167	1081.5412	1098.6446	1126.5537	1150.9138	1173.8754	1187.0038	1210.2298	1219.1127	1254.0528	1267.773	1287.3443	1292.639	1328.1639	1343.2359	1415.2501	1462.5364	1487.0391	1491.4357	1499.8709	1503.8276	3017.6361	3020.7332	3034.8571	3062.2075	3078.6824	3083.932	3090.0586	3095.4221	3099.4505	3152.8362	3164.409
CC12C3CC4CN(C13)C24	C[C@@]12[C@@H]3C[C@H]4CN([C@H]13)[C@@H]24	
InChI=1S/C8H11N/c1-8-5-2-4-3-9(6(4)8)7(5)8/h4-7H,2-3H2,1H3	InChI=1S/C8H11N/c1-8-5-2-4-3-9(6(4)8)7(5)8/h4-7H,2-3H2,1H3/t4-,5+,6+,7-,8-/m0/s1
