21
gdb 101625	2.59089	0.87511	0.79334	5.0519	80.12	-0.2337	0.0308	0.2645	1544.0993	0.180695	-420.405802	-420.394969	-420.394024	-420.442544	38.711	
C	 0.153682027	 1.8105699715	 0.3782063091	-0.385394
C	-0.0322053514	 0.3508859957	-0.0616156694	 0.030954
C	 0.7025256162	-0.6175436466	 0.8872228545	-0.076379
O	 0.0565647295	-0.7176639189	 2.1503946112	-0.417904
N	-1.4653133735	 0.0451384611	-0.1480192299	-0.294948
C	-1.928130899	-0.7013773317	-1.310394932	-0.100427
C	-1.5018478019	-2.183644642	-1.4152559579	-0.394167
C	-3.400366784	-0.6113964778	-1.3628539999	 0.275738
N	-4.5543060376	-0.5712335144	-1.4016698119	-0.321642
H	 1.2139305638	 2.0826997706	 0.4283814074	 0.108045
H	-0.3491164399	 2.4833259084	-0.3199173677	 0.129829
H	-0.2948883881	 1.9794824477	 1.3638948176	 0.111353
H	 0.4114715653	 0.2330284903	-1.0592984543	 0.077461
H	 0.6921629194	-1.6311180023	 0.4764794589	 0.1115
H	 1.7540047108	-0.3130578659	 0.9975035477	 0.093779
H	 0.2033176803	 0.1030969869	 2.6310399382	 0.291536
H	-1.7701489098	-0.3895933266	 0.7176861139	 0.232725
H	-1.5564657261	-0.174579864	-2.1994838464	 0.130248
H	-1.9338603514	-2.6506527728	-2.3053639738	 0.135962
H	-0.4135191257	-2.2556767091	-1.4853198836	 0.124206
H	-1.8358395438	-2.7417725502	-0.5359515119	 0.137526
34.9547	63.4812	106.9888	138.755	202.7619	236.386	255.4877	269.934	313.8779	320.3067	337.064	377.9545	461.4351	552.2528	565.7481	639.4734	730.9106	809.6616	860.2208	899.0865	921.4188	955.534	1025.5391	1068.0699	1075.8194	1104.5391	1119.9604	1157.7698	1187.8684	1235.7579	1289.6169	1329.9184	1340.2624	1370.9841	1392.0843	1401.75	1404.6948	1418.9645	1476.0474	1486.0963	1491.1465	1496.8707	1504.0005	1507.9687	2360.8247	2995.5585	3019.0676	3027.2901	3029.4385	3042.9392	3090.5906	3094.1297	3119.9678	3125.4904	3127.5086	3520.4478	3823.0426
CC(CO)NC(C)C#N	C[C@@H](CO)N[C@@H](C)C#N	
InChI=1S/C6H12N2O/c1-5(3-7)8-6(2)4-9/h5-6,8-9H,4H2,1-2H3	InChI=1S/C6H12N2O/c1-5(3-7)8-6(2)4-9/h5-6,8-9H,4H2,1-2H3/t5-,6-/m0/s1
