22
gdb 63058	3.07149	1.66552	1.41025	1.4906	85.14	-0.2225	0.0873	0.3098	1029.7079	0.196206	-367.165491	-367.157785	-367.156841	-367.196958	32.308	
C	-0.1610972984	 1.6064544146	 0.0202802529	-0.477304
C	-0.0044797874	 0.0878283796	 0.0024461438	 0.340366
C	-1.3741415777	-0.5789487406	-0.1797696094	-0.448689
C	 1.0923356781	-0.5934982003	-0.8817296456	-0.034118
C	 2.3778540116	 0.1794197837	-0.5381980427	-0.23944
C	 2.371409579	-0.2733338465	 0.9413768823	-0.072245
C	 2.5105118544	-1.7897141054	 0.7231152591	-0.164701
N	 1.1238636085	-1.7599843437	 0.1480631516	-0.160973
C	 0.8244734421	-0.5979061891	 1.0986904706	-0.024893
H	 0.743236508	 2.1339228543	 0.331529545	 0.115865
H	-0.4497872885	 1.9831588981	-0.9680830833	 0.115585
H	-0.9563105777	 1.8894612483	 0.7189502775	 0.114579
H	-1.8402601444	-0.2375127998	-1.1114267082	 0.106081
H	-1.285649095	-1.6656934222	-0.2149184365	 0.143222
H	-2.0486703898	-0.3108534653	 0.6415004698	 0.105354
H	 0.8984188045	-0.872945781	-1.9177542532	 0.06558
H	 3.2633511399	-0.1797465222	-1.0704039099	 0.094251
H	 2.2964888507	 1.2535546957	-0.7049709134	 0.098422
H	 2.9558091821	 0.291115861	 1.6695680447	 0.059397
H	 3.3074464414	-2.1566969565	 0.0673104504	 0.093965
H	 2.4826744761	-2.3847001465	 1.640778752	 0.103267
H	 0.4445539427	-0.8374025061	 2.0946849424	 0.066429
170.6494	189.9457	235.5595	267.7571	316.2013	375.1276	457.3585	507.1052	512.152	586.5842	703.3707	728.8377	796.4674	840.7598	872.1451	882.7262	923.5193	930.674	944.5632	952.8181	975.9964	984.5097	1000.2336	1016.3027	1023.5206	1050.9987	1107.0753	1152.6798	1156.3513	1177.1951	1202.2155	1212.8705	1233.691	1244.7181	1252.9578	1259.1724	1290.5371	1300.3848	1352.279	1395.5986	1417.6973	1483.411	1487.7447	1499.9287	1504.3152	1513.2289	1530.1764	3025.4484	3031.1269	3036.9814	3064.6118	3081.3662	3085.3781	3088.2047	3096.0368	3101.9265	3110.644	3111.8362	3130.8976	3139.7677
CC1(C)C2CC3CN2C13	CC1(C)[C@H]2C[C@@H]3CN2[C@H]13	
InChI=1S/C8H13N/c1-8(2)6-3-5-4-9(6)7(5)8/h5-7H,3-4H2,1-2H3	InChI=1S/C8H13N/c1-8(2)6-3-5-4-9(6)7(5)8/h5-7H,3-4H2,1-2H3/t5-,6-,7+/m1/s1
