18
gdb 125954	2.85683	1.61832	1.08465	3.3388	77.32	-0.25	-0.0081	0.2419	1102.3831	0.149995	-401.958447	-401.951001	-401.950057	-401.990341	29.04	
C	-0.0722076097	 1.5847339485	 0.0007696739	-0.39661
C	 0.0448859731	 0.0600354794	 0.0299492534	-0.107415
C	 0.7893005324	-0.5576134081	-1.1988874245	-0.21415
C	 1.4807007538	-1.8736848864	-0.7162926101	-0.365819
C	 1.6650667205	-1.5989536236	 0.7470753139	 0.154758
C	 2.2987957372	-1.9641336689	 1.8851534782	-0.09012
O	 1.908653153	-1.1626805632	 2.9032211293	-0.17696
N	 0.9760755076	-0.2245729397	 2.4300622539	-0.259747
C	 0.85600514	-0.5089440488	 1.1628693136	 0.383089
H	 0.917904406	 2.0499615971	-0.0405317652	 0.122327
H	-0.6406416099	 1.913494413	-0.8750181629	 0.113935
H	-0.5793506128	 1.9550023222	 0.8959239087	 0.136195
H	-0.9655094565	-0.3692071035	 0.086766415	 0.100001
H	 0.1218450077	-0.72117289	-2.0488544922	 0.103437
H	 1.5616832692	 0.1492843791	-1.5231582732	 0.111387
H	 0.8270400205	-2.7406306614	-0.8744702464	 0.119337
H	 2.4092683271	-2.0727514056	-1.2583974397	 0.117814
H	 3.024375891	-2.7178132999	 2.1490414945	 0.14854
117.0462	167.6162	217.9424	247.1509	289.5214	431.498	496.7849	553.2169	594.231	633.811	705.641	740.5267	819.9407	833.0919	881.2652	909.4992	947.6853	957.2652	973.4418	1039.0202	1102.9583	1109.7428	1117.7304	1138.857	1194.7241	1217.69	1275.0681	1305.4837	1310.8696	1328.4735	1355.4655	1412.2972	1425.7579	1485.8977	1494.4106	1495.7389	1500.9576	1551.2237	1668.8517	3004.6202	3029.0116	3037.8221	3044.6261	3084.8071	3102.0724	3107.8762	3117.5577	3263.259
CC1CCC2=CON=C12	C[C@H]1CCc2conc12	
InChI=1S/C7H9NO/c1-5-2-3-6-4-9-8-7(5)6/h4-5H,2-3H2,1H3	InChI=1S/C7H9NO/c1-5-2-3-6-4-9-8-7(5)6/h4-5H,2-3H2,1H3/t5-/m0/s1
