21
gdb 40091	3.09947	1.4851	1.25985	1.3795	81.64	-0.2403	0.0785	0.3188	1083.8681	0.184817	-387.074721	-387.067068	-387.066124	-387.106905	30.927	
C	-0.4952754212	 1.2714047756	 0.0318917241	-0.309186
C	 0.9866198485	 1.009852806	-0.0804897807	-0.347275
C	 0.0244057483	-0.1361964949	 0.0302442527	 0.371783
C	-0.0837904651	-1.188346542	 1.1432851735	-0.334642
C	-0.4490492405	-2.2579936134	 0.0666302581	-0.029926
C	-1.9286016917	-2.650453542	-0.0520201375	-0.230982
C	-2.5374031363	-1.4781672184	-0.8420188232	-0.086915
O	-1.5131546975	-1.0515583628	-1.7360375842	-0.251491
C	-0.2772888263	-1.1820871846	-1.0580139716	 0.021343
H	-0.8738887444	 1.6738662679	 0.9665424793	 0.107605
H	-1.0299035116	 1.6015153099	-0.8527735512	 0.124243
H	 1.467735703	 1.1793327903	-1.0392933545	 0.111939
H	 1.611950327	 1.2343903351	 0.7782697385	 0.108773
H	 0.8556115047	-1.393974043	 1.6645166109	 0.10061
H	-0.8598904952	-1.0049992833	 1.894168463	 0.093209
H	 0.2191884339	-3.1188925103	 0.0311640983	 0.07132
H	-2.0240140029	-3.5761263127	-0.6280658356	 0.105544
H	-2.4145745129	-2.8018117585	 0.9161894493	 0.099604
H	-3.4095559572	-1.7534307221	-1.4406418332	 0.106019
H	-2.8278333061	-0.6596747917	-0.1661988992	 0.096
H	 0.5003512736	-1.3233761152	-1.8131271569	 0.072425
68.2713	176.7695	233.1782	259.0142	315.0238	372.1562	473.0156	532.8488	641.8686	705.6146	776.1797	784.383	843.6439	851.4275	867.3641	895.658	905.6722	945.4832	956.8556	969.5555	980.2036	1003.436	1047.552	1064.378	1073.8573	1102.2309	1124.8729	1159.2103	1176.2003	1191.4091	1222.0572	1233.0675	1241.6629	1257.7546	1277.7632	1306.4065	1330.5265	1346.1964	1378.3105	1390.9575	1464.1265	1480.4379	1487.8441	1500.6731	1520.5428	2991.8792	3036.8421	3050.445	3074.2781	3085.2928	3091.5126	3099.2587	3107.9975	3117.5665	3123.8607	3196.8048	3213.8963
C1CC11CC2CCOC12	C1CC21C[C@H]1CCO[C@@H]21	
InChI=1S/C8H12O/c1-4-9-7-6(1)5-8(7)2-3-8/h6-7H,1-5H2	InChI=1S/C8H12O/c1-4-9-7-6(1)5-8(7)2-3-8/h6-7H,1-5H2/t6-,7-/m1/s1
