18
gdb 95653	2.02015	1.87048	1.21831	4.8635	67.3	-0.2401	0.0169	0.257	1058.2922	0.148989	-476.251583	-476.242892	-476.241948	-476.285062	32.513	
N	 0.46866424	 0.2071048257	 1.1320967014	-0.533044
C	-0.1170791522	-0.4086875339	-0.0423761116	-0.123922
C	-1.63389292	-0.1628118018	-0.08900103	 0.101197
O	-1.793579785	 1.2534407014	-0.0571431578	-0.426515
C	-2.2507994953	-0.7741030116	-1.3736530517	-0.245028
C	-1.1834519738	-1.3373220136	-2.3119312977	-0.081373
O	-0.0914364703	-0.4244514174	-2.4916140137	-0.222586
C	 0.5125756743	 0.0427026606	-1.3700128037	 0.421646
O	 1.4812921241	 0.7453644466	-1.4518845342	-0.335231
H	 1.4739869065	 0.2689149084	 0.9929993709	 0.24002
H	 0.1411751261	 1.1693172184	 1.1629439169	 0.244051
H	 0.0257964023	-1.4980263897	 0.0185300764	 0.105129
H	-2.0750385051	-0.6076928463	 0.8117206553	 0.088068
H	-2.7134064953	 1.454848014	 0.1376547134	 0.291725
H	-2.9643450183	-1.5697933448	-1.1355803262	 0.109698
H	-2.7990595438	 0.0211520953	-1.8872676411	 0.121447
H	-0.7969347026	-2.2947308029	-1.9397932426	 0.116987
H	-1.5833291917	-1.5099299182	-3.3130845039	 0.127733
59.8506	112.8945	226.6719	243.4993	257.739	282.3352	304.4733	384.823	448.6565	501.057	535.4401	567.2215	618.465	715.1103	834.383	858.8381	928.5916	936.2797	987.0717	1009.3168	1057.6189	1097.6715	1103.5636	1153.1378	1172.6871	1214.1247	1239.4077	1253.8553	1284.7009	1333.6738	1354.2589	1357.3068	1403.6862	1417.9905	1434.4259	1472.7258	1517.4361	1664.6724	1855.2027	2998.0267	3021.4343	3026.0824	3051.0337	3097.802	3112.0335	3493.9305	3562.0011	3835.3992
NC1C(O)CCOC1=O	N[C@H]1[C@@H](O)CCOC1=O	
InChI=1S/C5H9NO3/c6-4-3(7)1-2-9-5(4)8/h3-4,7H,1-2,6H2	InChI=1S/C5H9NO3/c6-4-3(7)1-2-9-5(4)8/h3-4,7H,1-2,6H2/t3-,4-/m0/s1
