19
gdb 114058	2.48154	1.3317	1.09979	2.9563	72.	-0.2321	0.0636	0.2957	1180.4822	0.157039	-460.116106	-460.106813	-460.105868	-460.14988	35.064	
C	-0.2380809197	 1.4017687351	 0.0647523707	-0.489674
C	-0.0399115865	-0.0741186494	 0.1517672297	 0.41056
C	 1.1525369461	-0.860777517	-0.3426940135	-0.407267
C	 0.6814070724	-1.0093542669	 1.0897594615	 0.252137
O	 1.4541157461	-0.721895544	 2.1977846415	-0.454113
C	-0.6157467499	-1.815234408	 1.1209814491	 0.030151
C	-1.4293457195	-1.7135074597	 2.4005656867	-0.062388
O	-2.7788465599	-2.0525299517	 2.1488518162	-0.425234
O	-1.2034133317	-0.9223680654	 0.1163034301	-0.348448
H	 0.7104845284	 1.9203928233	 0.2287555059	 0.132758
H	-0.6148766763	 1.6853369547	-0.9242305522	 0.133226
H	-0.9563118766	 1.7432090203	 0.8163005993	 0.131082
H	 1.0219417618	-1.6588219692	-1.0691150819	 0.113889
H	 2.0638358248	-0.2775656438	-0.4412573906	 0.11706
H	 2.2090758411	-1.3207909128	 2.2093245315	 0.292114
H	-0.5907727228	-2.8485838536	 0.7536886749	 0.080378
H	-1.0510599599	-2.417416936	 3.1491707785	 0.108107
H	-1.3315464925	-0.6986390563	 2.8156082335	 0.09399
H	-3.0487255757	-1.5052735498	 1.4006911192	 0.291672
92.1502	143.5816	167.3178	172.7166	191.4663	296.9181	300.914	360.3551	440.2965	462.8272	470.29	487.1055	539.7084	616.0821	735.979	812.7915	837.0913	891.3612	923.1757	947.1895	978.137	1021.927	1044.6782	1081.3599	1099.5462	1113.5647	1156.2975	1215.2366	1215.45	1265.8491	1276.7362	1335.9115	1340.0006	1395.187	1407.2835	1426.9224	1436.0871	1472.61	1494.164	1497.7248	1521.3838	2990.434	3035.7022	3036.3492	3079.2856	3100.5197	3107.7609	3121.3466	3204.3694	3780.3749	3790.8107
CC12CC1(O)C(CO)O2	C[C@@]12C[C@]1(O)[C@@H](CO)O2	
InChI=1S/C6H10O3/c1-5-3-6(5,8)4(2-7)9-5/h4,7-8H,2-3H2,1H3	InChI=1S/C6H10O3/c1-5-3-6(5,8)4(2-7)9-5/h4,7-8H,2-3H2,1H3/t4-,5-,6+/m1/s1
