12
gdb 20458	6.6061	1.43948	1.28804	3.7589	56.43	-0.277	-0.0723	0.2047	890.3891	0.084555	-410.749908	-410.743584	-410.74264	-410.78161	22.263	
C	 0.3224697421	 1.5741299219	 0.1343646441	-0.228668
N	 1.1839937997	 0.4651882112	-0.2759514456	-0.294996
C	-0.2169233378	 0.1863122491	 0.1077787846	-0.128561
C	-0.4262081985	-0.5933349421	 1.3387664766	 0.467245
N	 0.120567	-0.3693360343	 2.5005439606	-0.155211
O	-0.3731627941	-1.3390555378	 3.3030855669	-0.134702
N	-1.2410855264	-2.1381585141	 2.5658100348	 0.045694
N	-1.2716963114	-1.6902654721	 1.3922086494	-0.214608
H	 0.5785303696	 2.0152070805	 1.0926060484	 0.150669
H	-0.0508383997	 2.2684617629	-0.6134670993	 0.12705
H	 1.2673855469	 0.4317672649	-1.2889636659	 0.246205
H	-0.9240865203	-0.0723605802	-0.6738784646	 0.119881
32.951	178.7422	184.9465	410.1051	441.5898	666.9712	682.8503	701.0948	774.5161	859.4317	897.047	916.956	964.2844	981.254	1063.7988	1081.4792	1129.3472	1132.3304	1198.3935	1230.7532	1257.5682	1289.9278	1423.7164	1496.6439	1519.4809	1597.9138	3116.7626	3167.9049	3210.4336	3506.0644
C1NC1C1=NON=N1	C1N[C@H]1c1nonn1	
InChI=1S/C3H4N4O/c1-2(4-1)3-5-7-8-6-3/h2,4H,1H2	InChI=1S/C3H4N4O/c1-2(4-1)3-5-7-8-6-3/h2,4H,1H2/t2-/m1/s1
