17
gdb 77638	2.08103	1.67224	1.29921	5.9336	74.61	-0.2457	0.0181	0.2638	1050.2932	0.136563	-417.986169	-417.977706	-417.976762	-418.018913	32.384	
N	-0.185320874	 1.4189102684	-0.2915202333	-0.594383
C	-0.0509479106	 0.0219567237	-0.0653234197	 0.193494
C	 0.7247362757	-0.7341385425	 1.0206960549	-0.287376
C	-0.4229063733	-1.7939262142	 1.0967149116	-0.292904
C	-1.2233627707	-1.0053950289	 0.0472236536	 0.106422
C	-2.6239678195	-0.768596242	 0.0567422517	 0.203227
N	-3.7648902499	-0.570615139	 0.0886944937	-0.35761
C	-0.3852645477	-0.8712072614	-1.2271673472	 0.084338
O	-0.9579634206	-0.2690816854	-2.3263850186	-0.423636
H	-0.5357395561	 1.9143493034	 0.5212759381	 0.251413
H	 0.698013065	 1.8389675839	-0.5663211289	 0.247639
H	 1.7191340119	-1.0940601643	 0.7381253116	 0.107049
H	 0.8074640201	-0.1591861065	 1.946568888	 0.112036
H	-0.1610697728	-2.8124206731	 0.7965169906	 0.116244
H	-0.9097462281	-1.8262227869	 2.0717987517	 0.130915
H	 0.257145405	-1.708579461	-1.4971896063	 0.106596
H	-1.0669086943	 0.668493306	-2.0959816515	 0.296535
111.542	130.6431	209.2367	239.0806	265.1526	290.3458	369.4296	388.8655	494.9941	539.9107	594.5379	605.9721	647.5591	670.2914	720.7055	783.8203	808.242	865.5946	947.1393	992.1298	1067.493	1069.9771	1112.61	1153.4251	1202.3014	1211.5848	1237.2778	1245.3296	1261.0147	1322.181	1346.9729	1394.7379	1456.5049	1480.8293	1505.3977	1651.1361	2339.2068	3048.7703	3065.1826	3100.9761	3115.3671	3132.3275	3496.5117	3578.0407	3673.913
NC12CCC1(C#N)C2O	N[C@@]12CC[C@]1(C#N)[C@H]2O	
InChI=1S/C6H8N2O/c7-3-5-1-2-6(5,8)4(5)9/h4,9H,1-2,8H2	InChI=1S/C6H8N2O/c7-3-5-1-2-6(5,8)4(5)9/h4,9H,1-2,8H2/t4-,5+,6-/m1/s1
