16
gdb 32482	6.45622	0.85108	0.759	3.7747	76.8	-0.2564	-0.0738	0.1826	1455.9981	0.12394	-437.934535	-437.926136	-437.925192	-437.968539	29.655	
C	 0.3723465745	 0.807575853	 0.8660265024	-0.391893
C	-0.350181453	 0.3754881282	-0.4123726416	-0.289199
C	 0.5635943157	-0.1154773175	-1.4902516317	 0.250016
C	 1.9237605005	-0.2368108977	-1.5047877832	-0.097551
O	 2.3084126417	-0.731217922	-2.7079400804	-0.14691
C	 1.1489137753	-0.893297648	-3.3890889234	 0.27865
C	 1.1692261796	-1.4203361433	-4.7593975383	 0.081669
O	 2.168013508	-1.7354545206	-5.3592156165	-0.257226
N	 0.0887796472	-0.5448715267	-2.715926981	-0.32634
H	 0.9360935529	-0.0220567529	 1.3053600423	 0.124165
H	 1.073428164	 1.6257695665	 0.6707342048	 0.124209
H	-0.34465976	 1.1553308863	 1.6140034558	 0.124801
H	-1.07617431	-0.4155122727	-0.1871929007	 0.128894
H	-0.9410517104	 1.2085883256	-0.8126529747	 0.128913
H	 2.7084795079	-0.0322010062	-0.7969957786	 0.158866
H	 0.150908696	-1.4978460019	-5.1884865352	 0.108936
39.1055	105.7954	140.5906	220.1487	237.4248	273.8782	330.3084	367.3219	561.8635	650.0992	660.0316	707.5563	780.3554	784.1913	814.2062	964.2459	975.8145	1026.0565	1035.6808	1079.2634	1113.3249	1146.0358	1232.1623	1272.1627	1281.838	1367.1343	1379.9291	1394.1652	1414.5012	1478.3151	1500.2209	1508.7654	1561.6502	1606.4929	1801.1435	2948.382	3031.2169	3038.6041	3056.4465	3104.1254	3118.4053	3294.5952
CCC1=COC(C=O)=N1	CCc1coc(C=O)n1	
InChI=1S/C6H7NO2/c1-2-5-4-9-6(3-8)7-5/h3-4H,2H2,1H3	InChI=1S/C6H7NO2/c1-2-5-4-9-6(3-8)7-5/h3-4H,2H2,1H3
