19
gdb 41501	3.07834	1.57834	1.10076	0.6698	92.24	-0.2013	-0.0327	0.1686	1109.3338	0.16182	-348.763534	-348.7562	-348.755256	-348.795323	29.634	
C	 0.0268083413	 1.6251887395	 0.1406475504	-0.23639
C	 1.5707583677	 1.5696000589	-0.0975632021	-0.328088
C	 1.4857207431	 0.0620867095	 0.0069636458	 0.347184
C	 2.3515083817	-0.9498307763	 0.1326948434	-0.242673
C	 1.968424242	-2.3262266324	 0.3653301929	-0.081703
C	 0.8203652349	-2.7611117081	 0.942057787	-0.116065
C	-0.2572847403	-1.9585367938	 1.4886265621	-0.065421
C	-0.6212456142	-0.70892278	 1.1483560187	-0.099371
C	-0.0345381646	 0.0668533957	 0.0060152149	-0.134303
H	-0.2343882358	 1.9638301648	 1.1464921993	 0.10551
H	-0.5505696743	 2.1986607282	-0.5867560993	 0.100574
H	 1.8496666533	 1.909286164	-1.1022612906	 0.116237
H	 2.2097200712	 2.0904348841	 0.6219015733	 0.113174
H	 3.4184971743	-0.7398271435	 0.0765007888	 0.083802
H	 2.719072406	-3.0765475792	 0.1269414078	 0.088097
H	 0.7337044092	-3.8315539153	 1.1151148372	 0.085699
H	-0.825111374	-2.4401512258	 2.2832845607	 0.087244
H	-1.403703566	-0.218104199	 1.7248304523	 0.089498
H	-0.4641050656	-0.2507587113	-0.9552640426	 0.086995
74.4247	179.6589	306.6797	311.8223	371.9622	392.6676	453.1305	566.5047	601.7476	711.6472	723.059	764.4131	794.3624	821.8552	881.6577	904.9013	919.2403	940.4704	952.878	982.3445	998.9835	1024.0834	1058.9433	1083.414	1120.9567	1127.3733	1208.8255	1221.3537	1233.0691	1249.9046	1263.6335	1271.9268	1309.4485	1360.031	1414.5465	1462.2672	1469.1064	1487.1781	1611.0027	1678.1537	1727.639	2982.2468	3031.7425	3065.6474	3079.5739	3123.0828	3124.9395	3132.5211	3141.2293	3149.5824	3163.1313
C1CC2=CC=CC=CC12	C1CC2=CC=CC=C[C@@H]12	
InChI=1S/C9H10/c1-2-4-8-6-7-9(8)5-3-1/h1-5,8H,6-7H2	InChI=1S/C9H10/c1-2-4-8-6-7-9(8)5-3-1/h1-5,8H,6-7H2/t8-/m0/s1
