18
gdb 23077	4.5293	1.05795	0.89811	1.8978	86.51	-0.2111	-0.0217	0.1894	1281.1376	0.148578	-401.898817	-401.891004	-401.89006	-401.931169	30.639	
O	-0.1821357875	 1.3700900854	 0.0939787413	-0.398856
N	 0.0135372475	-0.0236411799	-0.0063097526	-0.240753
C	-1.1019289013	-0.6469583219	-0.0237622232	 0.386049
C	-1.1520847654	-2.1802801351	-0.1047014289	-0.334981
C	-2.6348418462	-2.4488779418	-0.4298410185	-0.044453
C	-3.7264908298	-3.0688660406	 0.5171640166	-0.24131
C	-4.6122459432	-1.7857879552	 0.2686339426	-0.313762
C	-3.3169677766	-1.1401349067	-0.1539618914	 0.299554
C	-2.4769616752	-0.1342885975	 0.1155777661	-0.320533
H	 0.7229309709	 1.6963158329	 0.1217456531	 0.302893
H	-0.4489878182	-2.5776895599	-0.8395417151	 0.120133
H	-0.8803903625	-2.6031345189	 0.8699259336	 0.12312
H	-2.7819022221	-2.8135564319	-1.4526426457	 0.088083
H	-4.1562287075	-4.029445171	 0.2244952984	 0.105691
H	-3.3847269815	-3.1173925448	 1.5537959113	 0.114937
H	-5.3095392723	-1.9468375012	-0.5601060348	 0.119541
H	-5.1528218625	-1.3474052363	 1.1099948919	 0.117751
H	-2.7019961966	 0.8587649643	 0.4770449651	 0.116895
77.0625	194.4445	209.4965	263.7523	307.7057	363.2957	386.5464	486.7801	579.6443	618.1425	677.5668	693.3644	790.2687	816.4766	842.4229	876.6258	899.8051	910.1155	941.5536	969.8715	1034.5193	1067.3027	1077.5443	1105.9945	1174.4627	1181.4789	1207.8135	1226.752	1233.1432	1249.4802	1258.5814	1310.0675	1334.2312	1395.5462	1469.2864	1473.2285	1484.7319	1688.743	1727.0587	3038.8465	3041.0485	3051.956	3064.3363	3109.2328	3111.3468	3129.7662	3240.5669	3826.0209
ON=C1CC2CCC2=C1	ON=C1C[C@H]2CC[C]2[CH]1	
InChI=1S/C7H9NO/c9-8-7-3-5-1-2-6(5)4-7/h3,6,9H,1-2,4H2	InChI=1S/C7H9NO/c9-8-7-3-5-1-2-6(5)4-7/h3,6,9H,1-2,4H2/t6-/m1/s1
