21
gdb 108333	2.5562	1.60743	1.2799	1.9629	80.72	-0.243	0.0676	0.3106	1090.7871	0.182975	-387.03194	-387.023796	-387.022852	-387.064414	32.441	
C	 0.0674489162	 1.5290221873	 0.2120271672	-0.382815
C	-0.1193739291	 0.037580494	-0.0933651585	-0.294159
C	 0.670592291	-0.4732052718	-1.2841809625	 0.319173
C	 0.9269361095	-1.9938759818	-1.4033537423	-0.158255
O	 2.348624507	-1.7798395162	-1.6042986484	-0.301313
C	 2.2041371619	-0.3491729346	-1.4225305018	 0.064632
C	 2.051063895	 0.4993609926	-2.7030163357	-0.057934
C	 1.3109430767	-0.2732776853	-3.7531949133	-0.306468
C	 0.5251891034	 0.3169298276	-2.6156055618	-0.113222
H	 1.1177903912	 1.7637070883	 0.4146374988	 0.118671
H	-0.2581670143	 2.1607509847	-0.6195186615	 0.121155
H	-0.5123360668	 1.816603	 1.0941023477	 0.115105
H	 0.1649989623	-0.5471951519	 0.790670477	 0.099611
H	-1.1859133611	-0.168264402	-0.2636773121	 0.09967
H	 0.7401293159	-2.5517874665	-0.4764034907	 0.095326
H	 0.461144865	-2.5237867399	-2.2423719704	 0.099242
H	 2.8604797421	 0.0477937585	-0.643581204	 0.072844
H	 2.6297659345	 1.3862761908	-2.9321563808	 0.083307
H	 1.1886877951	 0.2460206196	-4.6984687675	 0.110188
H	 1.472690882	-1.3410660159	-3.8495459902	 0.130596
H	-0.2544360674	 1.0475901425	-2.7972758292	 0.084646
93.7833	154.8142	192.0302	239.2466	278.3479	334.0976	385.8611	461.9375	516.226	617.4674	690.0564	761.5004	768.3761	819.2315	856.8654	899.2389	922.4998	940.469	961.9969	981.1578	987.6985	997.6828	1026.6788	1043.2118	1054.913	1056.6346	1085.5851	1145.4634	1152.7705	1182.6804	1186.1544	1212.6712	1245.4296	1291.2386	1295.6524	1322.7011	1340.6298	1372.3557	1385.0454	1413.6709	1482.2105	1488.2542	1500.6472	1505.337	1521.5341	3003.7152	3009.3274	3039.2662	3043.4216	3058.5335	3073.3905	3104.9119	3112.1132	3132.3714	3171.3281	3181.775	3214.6925
CCC12COC1C1CC21	CC[C@]12CO[C@H]1[C@H]1C[C@@H]21	
InChI=1S/C8H12O/c1-2-8-4-9-7(8)5-3-6(5)8/h5-7H,2-4H2,1H3	InChI=1S/C8H12O/c1-2-8-4-9-7(8)5-3-6(5)8/h5-7H,2-4H2,1H3/t5-,6+,7-,8+/m0/s1
