22
gdb 57783	3.45282	0.69668	0.61688	1.2958	94.28	-0.2311	0.0434	0.2745	1906.6899	0.19239	-367.171758	-367.161003	-367.160059	-367.209458	38.543	
C	-0.0862629321	 1.5914439665	 0.0421329865	-0.373135
C	 0.0268641589	 0.0559246131	-0.0394932047	-0.12659
C	 0.7184378953	-0.3862747725	-1.3447613019	-0.372975
C	 0.7130019116	-0.4861524486	 1.1338740798	 0.134842
C	 1.2813481442	-0.9242247408	 2.1029639363	 0.087115
C	 1.9916660651	-1.4340995365	 3.243951877	-0.255969
N	 1.2024692199	-2.0949360986	 4.3173154273	-0.323825
C	 2.1387919596	-2.8998265351	 3.5260379893	 0.020651
C	 1.5441912343	-3.9598755714	 2.6350624009	-0.395456
H	 0.907036767	 2.0511949248	 0.0415246292	 0.121525
H	-0.6431473737	 1.9772399209	-0.8179277129	 0.110429
H	-0.6014307639	 1.8993275219	 0.9556166508	 0.124996
H	-0.9930350357	-0.3539573314	-0.0462706299	 0.106143
H	 1.7402717931	 0.0032658071	-1.3900582411	 0.121938
H	 0.7686893707	-1.4760668631	-1.4136959895	 0.122304
H	 0.1685630386	-0.0086745264	-2.2129403514	 0.110559
H	 2.8239606869	-0.8111069231	 3.5671969123	 0.101027
H	 1.6059480561	-1.8595391661	 5.2205963123	 0.231407
H	 3.0781989058	-3.1763608902	 4.0044465361	 0.083333
H	 0.6321836052	-3.591938581	 2.1604332788	 0.138269
H	 2.2525022383	-4.2483451242	 1.8510886363	 0.115494
H	 1.295001155	-4.8544373254	 3.2155361585	 0.117919
11.6993	70.9667	97.5209	147.6986	177.7895	214.0184	226.2051	265.7566	312.8049	350.7675	389.6737	486.5088	513.3353	532.0207	589.1815	709.9244	772.7352	834.2893	880.9729	921.2595	930.449	962.4068	979.528	1005.9127	1050.3943	1088.6896	1120.2256	1135.6017	1152.9379	1190.6288	1213.4865	1250.1024	1265.2319	1323.91	1349.187	1392.5004	1394.4115	1416.6146	1421.369	1453.6266	1485.2502	1487.5632	1488.7856	1495.9596	1498.0836	1509.902	2358.2634	3004.2326	3034.7568	3037.5895	3038.5377	3099.2957	3101.8486	3104.9025	3110.4256	3116.362	3118.4902	3120.7221	3136.6184	3499.5511
CC(C)C#CC1NC1C	CC(C)C#C[C@H]1N[C@H]1C	
InChI=1S/C8H13N/c1-6(2)4-5-8-7(3)9-8/h6-9H,1-3H3	InChI=1S/C8H13N/c1-6(2)4-5-8-7(3)9-8/h6-9H,1-3H3/t7-,8+/m0/s1
