17
gdb 46748	2.91194	1.76252	1.40241	2.5539	70.5	-0.228	0.0232	0.2512	939.1274	0.139362	-417.996321	-417.989479	-417.988535	-418.02755	27.387	
O	-0.0555929065	-0.0356983024	-0.0491760231	-0.378715
C	-0.0252896674	 1.1743489621	-0.0156106719	 0.391051
N	-1.1233153315	 2.0017150811	 0.0325460496	-0.303968
C	-0.8735041385	 3.4324552692	 0.149293358	-0.200398
C	 0.6611076691	 3.5324030602	 0.0347858359	 0.02131
C	 1.195969018	 2.0904361551	-0.0335727026	-0.160732
C	 1.7736986881	 2.4658929018	-1.4096542989	-0.021054
C	 0.7423846312	 2.9781369271	-2.326707596	-0.254263
N	 1.2755955685	 3.9021937504	-1.3029293426	-0.148406
H	-2.0457315001	 1.5991167538	 0.0961125871	 0.252173
H	-1.3697295176	 4.0031720189	-0.6455284583	 0.123788
H	-1.2282875414	 3.8220328668	 1.1116569787	 0.114798
H	 1.0923084343	 4.1797980722	 0.7971634545	 0.096443
H	 1.9382535697	 1.7873179204	 0.7030584119	 0.105346
H	 2.7843842119	 2.2372798729	-1.7291463486	 0.104638
H	 1.0661735307	 3.2570957322	-3.3245780909	 0.127286
H	-0.2815481485	 2.6206634982	-2.2718980127	 0.130702
113.8028	177.7331	251.9721	337.6446	457.9912	488.576	561.1743	599.1845	700.4288	714.246	730.7073	770.3035	805.8373	846.8459	910.8672	934.1403	992.4912	1001.2016	1025.121	1061.5156	1082.2816	1085.3788	1121.3858	1153.1526	1205.2821	1216.798	1219.3749	1251.0445	1271.4619	1283.2758	1317.2798	1354.8582	1372.8277	1447.5846	1504.7829	1529.0354	1827.6764	3015.8271	3048.2323	3115.3936	3122.9273	3132.0081	3173.937	3207.5148	3631.9107
O=C1NCC2C1C1CN21	O=C1NC[C@H]2[C@@H]1[C@H]1CN21	
InChI=1S/C6H8N2O/c9-6-5-3(1-7-6)8-2-4(5)8/h3-5H,1-2H2,(H,7,9)	InChI=1S/C6H8N2O/c9-6-5-3(1-7-6)8-2-4(5)8/h3-5H,1-2H2,(H,7,9)/t3-,4+,5+,8?/m0/s1
