20
gdb 28425	3.02903	1.29329	0.91751	1.4985	92.58	-0.1939	0.0146	0.2085	1302.9116	0.171792	-366.096298	-366.087092	-366.086148	-366.130523	35.041	
C	-0.0058356586	 1.5305644514	 0.020429425	-0.491644
C	-0.0103498029	 0.0212400563	-0.0041667427	 0.32163
C	-0.0633561288	-0.6791509479	-1.2103701937	-0.224569
C	-0.0350286412	-2.0707734229	-1.2097515951	-0.176674
C	 0.0438594667	-2.8084998526	-0.031093785	 0.251224
C	 0.0858839903	-4.3146210325	-0.045729315	-0.515807
C	 0.0896940643	-2.1054538544	 1.1896537281	 0.235822
N	 0.2245688604	-2.8015350025	 2.3969673419	-0.590091
C	 0.0589428139	-0.7069825076	 1.1828027288	-0.26821
H	 1.0177041642	 1.9260015254	 0.0219321306	 0.130659
H	-0.5117466843	 1.9444259324	-0.8566969519	 0.121832
H	-0.502988642	 1.9201652962	 0.9141603358	 0.119636
H	-0.126140458	-0.1380901705	-2.1491450442	 0.07856
H	-0.0770989587	-2.6058479445	-2.1547013475	 0.081436
H	 0.9741560777	-4.6992396734	 0.4706616674	 0.132937
H	-0.7882760559	-4.7596509134	 0.4515343056	 0.11642
H	 0.1006075536	-4.6956254102	-1.0697894137	 0.123727
H	-0.203454281	-3.715954112	 2.4106025261	 0.243665
H	-0.0389929604	-2.2668689542	 3.2123827608	 0.241678
H	 0.0918993707	-0.1779162031	 2.1328283488	 0.067769
31.6824	132.9823	174.1351	219.3167	283.1225	291.8369	309.1425	344.5777	444.2829	455.805	487.5927	567.9081	586.5193	650.1016	729.2923	745.154	764.8752	811.1295	867.5876	924.5635	949.0109	1012.6488	1025.4346	1056.6526	1060.5163	1099.4995	1173.4516	1186.6061	1231.2878	1315.402	1323.605	1350.1544	1409.7701	1411.3859	1453.789	1482.8869	1488.4559	1490.0999	1506.9968	1547.267	1617.2147	1650.2902	1665.2113	3000.4499	3025.1172	3052.2151	3082.0804	3109.9928	3113.0058	3144.7732	3156.889	3179.6945	3558.8859	3655.8264
CC1=CC=C(C)C(N)=C1	Cc1ccc(C)c(N)c1	
InChI=1S/C8H11N/c1-6-3-4-7(2)8(9)5-6/h3-5H,9H2,1-2H3	InChI=1S/C8H11N/c1-6-3-4-7(2)8(9)5-6/h3-5H,9H2,1-2H3
