19
gdb 40214	2.86123	1.51939	1.16337	2.6833	76.56	-0.2408	0.017	0.2578	1084.9056	0.16187	-419.182613	-419.174706	-419.173762	-419.215337	30.416	
C	 0.1438137086	 1.4838445194	-0.0321333068	-0.295481
N	 1.2890490115	 0.5595718936	 0.0071842874	-0.343914
C	-0.0803108366	 0.0148283239	 0.0268210031	 0.334107
C	-0.4814419429	-0.6641833799	 1.3175649768	-0.279333
C	 0.1981431743	-2.0278279925	 1.4959684694	-0.151547
N	-0.1060558993	-3.0885804457	 0.5492770129	-0.241542
C	-0.1404793195	-2.9796627727	-0.7034068751	 0.116371
O	-0.0108315306	-1.9083674838	-1.5454078832	-0.231436
C	-0.6077296943	-0.6473285114	-1.2218316079	-0.152871
H	 0.0065785396	 2.0813109489	 0.864925251	 0.121408
H	-0.0779055713	 2.00740976	-0.9591148925	 0.111712
H	 1.6956208886	 0.4587953297	-0.9201393993	 0.235131
H	-0.1972063781	-0.0329598528	 2.1659288736	 0.106113
H	-1.5723015078	-0.781818193	 1.3474310585	 0.099997
H	 1.2848679277	-1.8667811338	 1.4783601646	 0.13272
H	-0.043911437	-2.4100978663	 2.4930010805	 0.104825
H	-0.2425304112	-3.8820795831	-1.3086028177	 0.11582
H	-1.6944530202	-0.7862584922	-1.1351874062	 0.110819
H	-0.4110140016	-0.0259268581	-2.1001900391	 0.107102
59.6281	147.6405	181.4503	282.4181	318.7069	350.875	421.4474	448.1485	515.4443	568.1535	709.1531	776.905	826.4426	865.4503	897.0258	920.4049	951.5539	965.5431	972.3559	992.1485	1020.6966	1045.2251	1095.5911	1096.8819	1142.1104	1155.2447	1204.3782	1261.0205	1276.4149	1289.6806	1344.8044	1367.9351	1376.9027	1406.7443	1431.0725	1436.3336	1471.4681	1487.0347	1491.8578	1516.0579	1761.6043	3009.1341	3019.3431	3027.9006	3066.047	3080.2473	3089.1342	3104.6774	3122.7238	3188.8435	3494.8412
C1NC11CCN=COC1	C1N[C@]21CCN=COC2	
InChI=1S/C6H10N2O/c1-2-7-5-9-4-6(1)3-8-6/h5,8H,1-4H2	InChI=1S/C6H10N2O/c1-2-7-5-9-4-6(1)3-8-6/h5,8H,1-4H2/t6-/m0/s1
