21
gdb 68062	2.06655	1.72269	1.15483	2.4718	84.42	-0.2433	-0.0258	0.2176	1156.2037	0.180812	-387.064615	-387.055458	-387.054514	-387.098086	34.992	
C	 0.1341852966	 1.4870983414	 0.1040717481	-0.512952
C	 0.0719531107	-0.0154083024	 0.0473813096	 0.313701
C	 0.649006277	-0.9495989765	-1.058434668	-0.295037
C	-0.0351469891	-1.9113852713	-0.0378794597	 0.332209
C	-0.1243002592	-3.4123012998	-0.0917953812	-0.518447
C	 0.6229725694	-1.0399545769	 1.0813189704	-0.302697
C	-1.2342130967	-0.9123849584	-0.0407238284	-0.13735
C	-2.2386367386	-0.8915670817	 1.0714025657	 0.115509
O	-2.226119039	-1.5990862437	 2.0512916713	-0.255117
H	 1.1756819132	 1.8270908236	 0.1169486877	 0.124824
H	-0.35422856	 1.9384332225	-0.7665288915	 0.119805
H	-0.35320255	 1.8745856515	 1.0051785373	 0.123975
H	 0.1973372591	-0.8763851202	-2.0529505911	 0.084611
H	 1.7404127168	-1.0036923637	-1.116860592	 0.088173
H	 0.873529848	-3.8639460714	-0.0710440035	 0.117229
H	-0.6900994622	-3.7910324405	 0.7646143375	 0.141488
H	-0.6249999856	-3.7470668166	-1.0072067566	 0.114034
H	 1.7137058365	-1.0984699788	 1.1492720067	 0.084507
H	 0.1592303296	-1.0684262361	 2.0668273328	 0.118426
H	-1.7636328234	-0.797367489	-0.9967116334	 0.070563
H	-3.0569738631	-0.145959252	 0.9293561581	 0.072544
87.9458	157.266	204.0122	209.3247	213.7437	220.5959	264.7341	360.0968	385.6765	450.5955	553.293	579.4552	636.1063	715.7203	752.9114	777.2797	855.9526	913.8857	921.0797	989.0638	1011.1987	1017.9724	1031.5377	1053.0718	1085.1284	1107.9755	1129.8262	1145.9935	1177.911	1190.2667	1204.0579	1214.3371	1296.5831	1335.9624	1391.0648	1409.467	1416.4417	1429.2872	1487.8024	1488.8217	1490.5827	1496.3142	1500.9604	1546.8826	1808.5649	2845.2969	3015.6012	3026.6489	3028.9766	3037.5788	3055.8274	3092.5818	3094.2342	3096.1744	3102.4023	3110.3108	3145.0749
CC12CC(C)(C1)C2C=O	C[C@@]12C[C@@](C)(C1)[C@H]2C=O	
InChI=1S/C8H12O/c1-7-4-8(2,5-7)6(7)3-9/h3,6H,4-5H2,1-2H3	InChI=1S/C8H12O/c1-7-4-8(2,5-7)6(7)3-9/h3,6H,4-5H2,1-2H3/t6-,7-,8+
