18
gdb 64820	3.54148	1.05222	1.0048	2.6805	72.18	-0.2427	-0.031	0.2117	1229.826	0.145798	-439.057653	-439.048883	-439.047939	-439.091625	33.09	
O	-0.3543802921	 1.5171404	 0.3137937483	-0.489157
C	 0.0384067585	 0.1690799509	 0.1777950372	 0.364259
C	 0.9705878124	-0.1671414469	-1.0408939413	-0.417134
C	 1.9052560524	-0.8930859479	-0.0608233636	 0.416569
O	 2.8288595839	-1.6405229024	-0.1975661814	-0.286411
C	 1.1466497585	-0.3512101282	 1.1598161833	-0.405493
C	-1.2159301564	-0.6770816368	 0.2104564009	 0.004647
C	-2.3831058196	-0.2829080873	 1.0329724468	-0.249709
N	-2.4424995879	-0.2083556863	-0.4423554056	-0.333347
H	 0.416012704	 2.0817990309	 0.2017658493	 0.285147
H	 0.5517085153	-0.7589284532	-1.8583877552	 0.145746
H	 1.4460223978	 0.7246325243	-1.4671019775	 0.123202
H	 1.6868325272	 0.4682737996	 1.6476767475	 0.12645
H	 0.8544711207	-1.0773703933	 1.9225681605	 0.138202
H	-1.0171238367	-1.7380711184	 0.0664012922	 0.093513
H	-3.0122610789	-1.0474888454	 1.4794058082	 0.116348
H	-2.3153130463	 0.6474675701	 1.5870823771	 0.127118
H	-2.3024157828	 0.7634118604	-0.7128666168	 0.24005
45.2614	79.9499	211.8838	232.0325	261.0653	334.6582	339.6779	394.0381	431.7658	452.0625	551.2673	658.2278	674.7122	722.1264	804.0814	864.3902	902.4185	932.3158	943.554	979.647	985.1296	1019.5608	1060.9458	1109.968	1128.7589	1132.9878	1152.0139	1172.7482	1183.4114	1216.2509	1261.7049	1284.1591	1310.6434	1362.0126	1417.6525	1437.0095	1451.7472	1504.3085	1896.9178	3041.9778	3049.9228	3111.7257	3114.3525	3117.278	3121.5367	3211.6054	3494.2447	3832.0005
OC1(CC(=O)C1)C1CN1	OC1(CC(=O)C1)[C@H]1CN1	
InChI=1S/C6H9NO2/c8-4-1-6(9,2-4)5-3-7-5/h5,7,9H,1-3H2	InChI=1S/C6H9NO2/c8-4-1-6(9,2-4)5-3-7-5/h5,7,9H,1-3H2/t5-/m1/s1
