14
gdb 12176	3.67377	1.4849	1.15156	2.1447	59.	-0.2748	-0.053	0.2218	991.7656	0.105195	-419.710748	-419.70291	-419.701966	-419.743648	27.001	
C	-0.5177829911	 1.1259928738	 0.1118863016	-0.41324
C	 0.1373074732	-0.2477416003	 0.1526319585	-0.207365
C	 1.0241108992	-0.6965547491	-1.0436001368	 0.04186
O	 2.1705157413	-0.835352376	-0.1475360814	-0.255426
C	 1.4463543794	-0.3885229444	 0.9374809841	 0.456656
O	 1.8332783356	-0.2071606071	 2.0433917824	-0.307259
C	 0.6475487763	-2.0139590284	-1.6796650527	 0.135868
O	 0.1010896735	-2.1005991349	-2.7468819072	-0.231477
H	 0.1938320963	 1.896313736	-0.1993227249	 0.136923
H	-1.3601280753	 1.1328180529	-0.585368476	 0.141081
H	-0.8922769568	 1.3903640659	 1.104569391	 0.150258
H	-0.5811936706	-1.0159454994	 0.4582979237	 0.127618
H	 1.1989686504	 0.0698323585	-1.8015782925	 0.124295
H	 0.8942742687	-2.9024973975	-1.05651191	 0.10021
76.1861	87.0372	187.2009	214.4397	234.6246	274.3524	414.8823	451.2578	523.1392	691.8347	756.0109	829.4222	862.3248	966.7712	993.0451	1064.7706	1074.2195	1107.1882	1127.5697	1146.4888	1230.6445	1253.4538	1305.5487	1353.1444	1409.4478	1413.8756	1494.2701	1496.5966	1836.6198	1949.2923	2893.0317	3046.0975	3061.0887	3103.5603	3120.8206	3124.8327
CC1C(OC1=O)C=O	C[C@H]1[C@@H](OC1=O)C=O	
InChI=1S/C5H6O3/c1-3-4(2-6)8-5(3)7/h2-4H,1H3	InChI=1S/C5H6O3/c1-3-4(2-6)8-5(3)7/h2-4H,1H3/t3-,4-/m0/s1
