17
gdb 31856	5.02298	1.05824	0.88373	2.2739	79.61	-0.2394	-0.0346	0.2048	1307.7502	0.136827	-418.071549	-418.062984	-418.06204	-418.106242	30.283	
C	 0.0094072288	 1.3955820967	 0.0290507681	-0.225224
O	-0.0276015778	-0.0278983382	-0.0539158966	-0.240661
C	-1.2307212911	-0.6136697514	-0.0269762392	 0.468112
N	-2.3201381549	 0.1440204968	 0.0741912352	-0.347468
C	-3.484557347	-0.5110571131	 0.0950176798	-0.057913
C	-3.5900644069	-1.8942525062	 0.0180208513	 0.22869
C	-4.9082747473	-2.619453197	 0.04264375	-0.500497
C	-2.3625576498	-2.5607752529	-0.0848405029	-0.045007
N	-1.1864972853	-1.9483104923	-0.1088131699	-0.303223
H	 1.0670161061	 1.6596880228	-0.0095837501	 0.130455
H	-0.5272811423	 1.8541764555	-0.8062584987	 0.133966
H	-0.4362935989	 1.7486728936	 0.9632688098	 0.133965
H	-4.3782267673	 0.1063299735	 0.1777420709	 0.109602
H	-5.0624196385	-3.2086311896	-0.8681538017	 0.136993
H	-4.9728661247	-3.3117667343	 0.8893955295	 0.137008
H	-5.7407520858	-1.9152065974	 0.1264040857	 0.129072
H	-2.3343952772	-3.6482210368	-0.1511382211	 0.112128
18.9617	93.393	150.9571	190.9039	223.5684	328.354	335.4342	427.806	469.5974	544.8883	573.6507	666.6438	759.5035	829.9141	871.3626	951.28	1006.2653	1007.5304	1053.5385	1074.3255	1083.4843	1179.4578	1200.7464	1248.512	1279.6232	1313.691	1374.4363	1416.7488	1418.1181	1449.181	1480.7254	1484.0954	1494.0641	1498.0917	1520.1178	1589.6196	1650.1806	3031.3227	3042.784	3085.4733	3110.6161	3113.8981	3132.2552	3137.1122	3148.095
COC1=NC=C(C)C=N1	COc1ncc(C)cn1	
InChI=1S/C6H8N2O/c1-5-3-7-6(9-2)8-4-5/h3-4H,1-2H3	InChI=1S/C6H8N2O/c1-5-3-7-6(9-2)8-4-5/h3-4H,1-2H3
