20
gdb 70540	2.58768	1.49725	1.15072	3.8212	79.44	-0.2317	0.0362	0.2679	1131.9294	0.172687	-403.192877	-403.184594	-403.183649	-403.225531	32.764	
C	-0.0121202179	 1.4913303806	-0.0180498978	-0.445826
C	-0.0216401801	-0.0226353701	 0.0386923365	 0.334803
C	-0.8675662324	-0.7259303166	 1.0811586281	-0.330855
C	 0.6424576528	-0.7497589446	 1.1806327316	-0.048504
C	 1.4443733156	-1.9986231242	 0.8338953338	-0.245348
C	 2.1654985122	-1.8005002018	-0.5097401911	-0.313076
C	 1.1820530062	-1.4618899159	-1.6244104181	 0.385815
O	 1.2872265382	-1.879175574	-2.7619706773	-0.376094
N	 0.1320513053	-0.6676705124	-1.2371291962	-0.345309
H	 0.9229321599	 1.8614872978	-0.4516716917	 0.124661
H	-0.8390142624	 1.8671595669	-0.6326190195	 0.118082
H	-0.1226709374	 1.9201808823	 0.982196238	 0.119265
H	-1.4241647426	-0.1169406183	 1.7856154859	 0.111969
H	-1.3610226779	-1.6447795029	 0.7826187473	 0.1166
H	 1.0828960468	-0.1087111593	 1.9383457113	 0.091182
H	 2.1665154849	-2.2193831544	 1.6258560582	 0.105951
H	 0.785453509	-2.8708474126	 0.7630520731	 0.112492
H	 2.8909634765	-0.981056915	-0.4251727173	 0.119757
H	 2.7145077928	-2.6894165592	-0.826574302	 0.125601
H	-0.5350249795	-0.4649234565	-1.9695153527	 0.238834
83.5093	150.1535	206.9994	233.346	312.7671	399.6562	428.9121	441.2206	464.6144	505.5313	552.2089	594.1605	676.3628	759.2993	784.2714	825.0677	884.3724	932.9775	943.7466	953.5288	995.6504	1018.5827	1054.2161	1072.3678	1114.1356	1121.535	1135.2898	1204.9587	1226.018	1257.8483	1310.0938	1333.638	1349.9086	1378.0725	1403.1353	1418.0349	1449.2131	1470.0363	1484.3591	1490.1825	1496.6918	1504.8579	1795.1718	3025.6085	3033.2366	3043.2361	3082.3353	3087.6505	3110.238	3116.379	3128.7902	3151.2657	3219.2548	3585.9692
CC12CC1CCC(=O)N2	C[C@]12C[C@H]1CCC(=O)N2	
InChI=1S/C7H11NO/c1-7-4-5(7)2-3-6(9)8-7/h5H,2-4H2,1H3,(H,8,9)	InChI=1S/C7H11NO/c1-7-4-5(7)2-3-6(9)8-7/h5H,2-4H2,1H3,(H,8,9)/t5-,7+/m1/s1
