17
gdb 14068	3.6503	1.6316	1.37327	2.7398	70.61	-0.2538	0.0271	0.2809	953.8669	0.142272	-363.851389	-363.843703	-363.842759	-363.88332	28.744	
C	-0.0837821845	 1.4903775998	-0.0745839049	-0.409637
C	 0.041722296	-0.0154013644	-0.0195266182	-0.052214
C	 1.3782773561	-0.6843199013	-0.1951480766	-0.346169
C	 0.7141067088	-0.6782068301	 1.1550937205	 0.194896
C	 1.1699818136	-0.1161345712	 2.4977000604	-0.154481
O	 0.6453768628	-1.3194078568	 3.1499850653	-0.268465
C	 0.2321245159	-1.8487521013	 1.9373616032	 0.394104
N	-0.3399134927	-2.9304925545	 1.6624948277	-0.564848
H	 0.8043799047	 1.9799434146	 0.3391144244	 0.115157
H	-0.1982025187	 1.8335529949	-1.1081595285	 0.127718
H	-0.9534646094	 1.8405894185	 0.4916630697	 0.12581
H	-0.8119952155	-0.5668289579	-0.4046558343	 0.113923
H	 1.4239873509	-1.6365502982	-0.7120150298	 0.138738
H	 2.2511735819	-0.0503464938	-0.3199329456	 0.116482
H	 2.2484894953	-0.0277191989	 2.6545018554	 0.120597
H	 0.6551194622	 0.7784188914	 2.8590986256	 0.12062
H	-0.5142362776	-3.4886243507	 2.4988406959	 0.227771
123.0747	138.8535	175.5019	215.759	263.5307	347.0094	417.3219	514.0163	591.1583	671.3289	769.1568	798.6822	844.7262	874.527	909.2853	918.2356	964.2547	997.9683	1022.7928	1051.6403	1083.8048	1115.816	1129.6627	1147.9876	1182.0735	1194.0047	1255.0124	1315.4436	1365.3248	1415.1102	1438.1535	1488.2385	1491.7362	1507.7855	1516.7405	1825.4808	3030.1203	3052.3743	3096.1512	3097.2969	3108.4805	3126.471	3150.1772	3218.8958	3488.8167
CC1CC11COC1=N	C[C@H]1C[C@]21CO[C]2[NH]	
InChI=1S/C6H9NO/c1-4-2-6(4)3-8-5(6)7/h4,7H,2-3H2,1H3	InChI=1S/C6H9NO/c1-4-2-6(4)3-8-5(6)7/h4,7H,2-3H2,1H3/t4-,6+/m0/s1
