14
gdb 20504	8.91276	1.00602	0.90911	1.8433	76.64	-0.2189	0.0032	0.2222	1233.5156	0.108502	-341.586904	-341.579277	-341.578332	-341.621764	26.48	
C	 0.015103739	 1.4477217318	 0.0102325016	-0.508699
C	 0.0134533617	-0.006404282	 0.0025042853	 0.205628
C	 0.0237951361	-1.2119653612	-0.0039795537	-0.061543
C	-0.0059273963	-2.6294136513	-0.0113329715	 0.200474
N	 1.1206076251	-3.3584827769	-0.022472396	-0.292674
N	 0.6908926255	-4.6296650044	-0.026469692	-0.187474
C	-0.6602905615	-4.74724081	-0.0183891423	-0.028628
C	-1.1557645193	-3.4650675346	-0.0083717073	-0.299844
H	 1.0379810753	 1.8397905782	 0.0041735414	 0.153021
H	-0.5007620468	 1.852588854	-0.8678985843	 0.148662
H	-0.4866777228	 1.8431833168	 0.9007253663	 0.148664
H	 1.3734698928	-5.3684345638	-0.034799844	 0.277587
H	-1.1472879425	-5.7094073885	-0.020372411	 0.134933
H	-2.1876467964	-3.1569312884	-0.0000821926	 0.109893
4.6924	99.0343	110.7822	288.0431	313.4048	475.9911	481.2001	522.5835	535.0227	662.0965	731.1755	772.5128	849.5734	933.2326	948.0068	1040.7703	1051.7785	1052.565	1079.5876	1118.8763	1211.5252	1309.0727	1369.0988	1412.4749	1474.2138	1475.6051	1476.9915	1486.362	1559.1306	2366.9196	3024.1565	3082.0076	3088.8208	3260.4768	3284.4031	3674.7759	4.7354	99.0346	110.7823	288.0425	313.4042	475.9911	481.1994	522.5839	535.0231	662.0965	731.1755	772.5127	849.5731	933.2325	948.007	1040.7701	1051.7782	1052.5647	1079.5875	1118.876	1211.5251	1309.0726	1369.0986	1412.4746	1474.2138	1475.6046	1476.991	1486.362	1559.1307	2366.9194	3024.1565	3082.0076	3088.8208	3260.4767	3284.403	3674.7756
CC#CC1=NNC=C1	CC#Cc1n[nH]cc1	
InChI=1S/C6H6N2/c1-2-3-6-4-5-7-8-6/h4-5H,1H3,(H,7,8)	InChI=1S/C6H6N2/c1-2-3-6-4-5-7-8-6/h4-5H,1H3,(H,7,8)
