17
gdb 34110	3.48315	1.47346	1.36672	1.6331	78.55	-0.2349	0.0415	0.2765	982.9417	0.136995	-384.614622	-384.607792	-384.606848	-384.645589	28.507	
C	 0.0289032985	-1.1702013115	-0.0653258064	-0.329033
C	 0.0104713062	 0.0325386824	-0.0237122817	 0.018696
C	-0.0341450307	 1.4650861549	 0.0140272581	 0.21582
C	-0.8834215733	 2.2501279915	 1.0627811214	-0.290666
C	-0.8553356714	 3.3832899986	 0.0295190937	-0.098733
C	 0.6216814498	 3.5579354899	-0.5089134754	 0.058634
C	 1.2851367917	 2.2817026768	 0.0360575496	-0.253668
O	 0.2041390493	 3.1113055814	-1.8372492101	-0.286648
C	-0.775939384	 2.3681220742	-1.1259949582	 0.074544
H	 0.0513270314	-2.2310215225	-0.0993445452	 0.178029
H	-1.8903775831	 1.8386277116	 1.1678025185	 0.113893
H	-0.4369799576	 2.3994220706	 2.0494110496	 0.104005
H	-1.5134003056	 4.2492108955	 0.0301971891	 0.085119
H	 1.1621095662	 4.5028598039	-0.5110278553	 0.087531
H	 1.6994572934	 2.3676193399	 1.0434339359	 0.103897
H	 2.0455169211	 1.9136527635	-0.6538463673	 0.121
H	-1.5862655018	 1.9367222993	-1.7103919065	 0.097579
141.3217	155.645	377.7499	413.3757	469.4537	514.1988	548.0643	574.4079	616.4736	629.6683	673.7967	717.0701	807.8707	833.502	852.1573	888.6672	917.6495	932.352	966.3066	988.199	1023.6898	1043.6074	1055.7197	1104.1328	1120.791	1154.7688	1195.396	1214.0311	1218.5237	1235.2791	1266.8324	1283.6189	1325.3123	1335.3082	1478.1567	1503.7492	2231.9395	3059.4238	3074.3419	3117.8145	3136.8025	3137.837	3142.2481	3152.8742	3503.6182
C#CC12CC3C(C1)OC23	C#C[C@@]12C[C@H]3[C@@H](C1)O[C@@H]23	
InChI=1S/C8H8O/c1-2-8-3-5-6(4-8)9-7(5)8/h1,5-7H,3-4H2	InChI=1S/C8H8O/c1-2-8-3-5-6(4-8)9-7(5)8/h1,5-7H,3-4H2/t5-,6+,7+,8+/m0/s1
