20
gdb 96830	3.71466	1.04066	0.99272	3.52	87.56	-0.2287	-0.0274	0.2012	1327.0197	0.169216	-403.179072	-403.169612	-403.168668	-403.213047	35.317	
C	 0.1049773775	 1.4044568172	 0.0730425035	-0.32518
N	-0.0325469727	-0.0330266111	 0.1074038633	-0.294971
C	-1.1753259527	-0.5679487798	 0.0515713411	 0.377375
O	-1.2715121876	-1.935791785	 0.0862024416	-0.264365
C	-2.6496932022	-2.3561582698	 0.0122714953	 0.297521
C	-2.8223890404	-3.2194549153	-1.2442257358	-0.409153
C	-2.9810952325	-3.1442187028	 1.286252434	-0.409154
C	-3.4038103811	-1.0530182739	-0.0737569619	-0.104171
C	-2.5498445146	-0.0319837509	-0.0505828839	-0.206442
H	 0.7380321451	 1.6894449633	-0.7761888835	 0.125686
H	-0.834283818	 1.9721626091	-0.0036448222	 0.094008
H	 0.6268841629	 1.7421434289	 0.976779544	 0.125673
H	-2.1804386416	-4.102435771	-1.180888933	 0.132438
H	-3.8604395419	-3.5518334648	-1.3441320573	 0.115441
H	-2.5486965427	-2.6531964638	-2.1378530228	 0.128967
H	-2.8190178643	-2.5250497814	 2.1719653557	 0.128968
H	-4.0247179559	-3.4739714888	 1.2752800788	 0.115441
H	-2.3395261489	-4.0269994163	 1.3559249311	 0.132438
H	-4.4836658836	-1.0083232394	-0.142768066	 0.116077
H	-2.7876771748	 1.0199547156	-0.0967290519	 0.123403
78.8684	108.5168	207.2585	211.7869	223.8904	233.7069	261.0452	312.0152	355.0834	368.9412	509.4177	527.064	626.3352	677.4235	700.7546	817.5391	838.7376	892.0166	920.2207	932.2161	962.7655	969.5398	1016.3893	1088.8353	1116.6734	1132.3766	1143.0615	1184.6	1197.4846	1233.4079	1292.658	1361.7241	1393.0334	1413.7338	1451.2134	1475.1993	1481.5586	1482.7629	1494.8835	1503.8438	1504.5811	1662.4475	1773.0538	2986.379	3039.6824	3044.4134	3051.5838	3063.0894	3113.5532	3119.5725	3126.6836	3128.8214	3210.9349	3253.6965
CN=C1OC(C)(C)C=C1	CN=C1OC(C)(C)C=C1	
InChI=1S/C7H11NO/c1-7(2)5-4-6(8-3)9-7/h4-5H,1-3H3	InChI=1S/C7H11NO/c1-7(2)5-4-6(8-3)9-7/h4-5H,1-3H3
