16
gdb 47621	2.87185	1.41796	0.9736	5.7872	83.65	-0.2044	-0.0366	0.1679	1163.5494	0.125026	-400.75701	-400.748812	-400.747868	-400.789689	31.174	
O	-0.0790195969	-0.0892763758	 0.1033090318	-0.326839
C	-0.0378763684	 1.1225209647	 0.0530909327	 0.294708
C	-1.3216131252	 1.9568141129	-0.0516328359	-0.304727
C	-1.1925904996	 3.3190481464	 0.6260859034	-0.185015
N	 0.0049593214	 3.9911890251	 0.133967814	-0.282468
C	 1.1478866727	 3.2755547211	 0.0013358594	-0.037871
C	 1.2113308594	 1.9062862551	 0.0002043553	-0.060378
C	 2.4627618068	 1.2454298722	-0.1074638066	 0.241674
C	 3.5249845741	 0.6839604662	-0.195411508	-0.415886
H	-1.5324954441	 2.0950860457	-1.1206685106	 0.132671
H	-2.1451860099	 1.3820755253	 0.3763774034	 0.130575
H	-2.0624790597	 3.9482457234	 0.4195688309	 0.120319
H	-1.1241834051	 3.1850942241	 1.7175942022	 0.119584
H	 0.0981456042	 4.9752954494	 0.3250860672	 0.258259
H	 2.05389945	 3.8603277677	-0.1224112778	 0.131158
H	 4.4537990203	 0.1764583464	-0.2735616915	 0.184235
92.7841	140.3312	168.8558	244.1906	353.4985	383.5973	424.1935	458.5996	484.8926	523.998	538.1355	579.7884	633.123	654.6229	699.57	772.021	886.0226	914.689	959.4733	1034.9653	1069.2907	1105.395	1194.4538	1226.7168	1257.6456	1292.2777	1345.4455	1359.7187	1395.3439	1455.779	1498.3338	1529.9512	1653.0356	1772.4983	2224.7568	2979.2081	3030.0186	3087.4867	3119.6106	3188.023	3505.8796	3641.7945
O=C1CCNC=C1C#C	O=C1CCNC=C1C#C	
InChI=1S/C7H7NO/c1-2-6-5-8-4-3-7(6)9/h1,5,8H,3-4H2	InChI=1S/C7H7NO/c1-2-6-5-8-4-3-7(6)9/h1,5,8H,3-4H2
