19
gdb 6772	7.40822	0.71263	0.66089	2.4258	69.23	-0.2637	0.0598	0.3235	1694.0018	0.164357	-402.255561	-402.245782	-402.244838	-402.291434	33.762	
C	 0.0123453223	 1.5543744182	-0.0330272641	-0.38063
C	 0.0296475144	 0.0235601553	-0.0283992593	-0.166069
C	 0.71002199	-0.5668548865	-1.2683956084	-0.186073
C	 0.7202443721	-2.086616784	-1.2506879389	-0.052571
O	 1.3758615714	-2.5335895131	-2.4490369484	-0.262325
C	 1.4646461857	-3.8782955906	-2.5887431578	 0.490394
N	 2.0538884548	-4.1830493383	-3.7857561924	-0.563164
O	 1.0542629976	-4.6850052878	-1.7875488527	-0.397743
H	 1.0290313683	 1.9614542603	-0.0633009762	 0.115432
H	-0.5241975088	 1.94125891	-0.9063374694	 0.115931
H	-0.4783619785	 1.9495459376	 0.8616288031	 0.113997
H	 0.5423581999	-0.3345370497	 0.8739015567	 0.100177
H	-0.9989298934	-0.3544320696	 0.0374044124	 0.100759
H	 0.197560262	-0.223798165	-2.1757536378	 0.104316
H	 1.7429260333	-0.2032292565	-1.3372453013	 0.102253
H	 1.2561131969	-2.4779445513	-0.3791327781	 0.117257
H	-0.2944706485	-2.4979472158	-1.220967142	 0.118768
H	 2.5630752771	-3.4628456979	-4.2692459906	 0.262335
H	 2.3670909936	-5.1323665155	-3.8928738647	 0.266957
31.8555	72.1006	102.194	115.885	172.4847	242.5361	249.7358	311.2891	355.696	425.1224	487.6497	533.8845	672.6638	743.5623	783.8809	806.989	891.7472	947.0402	948.658	1027.5478	1071.0025	1096.2752	1118.4213	1147.0975	1194.0174	1253.5039	1292.4005	1306.4873	1326.1843	1349.3486	1390.3223	1413.1158	1432.6559	1488.0615	1495.8062	1500.0582	1509.2904	1523.8289	1612.1477	1833.1381	3015.4609	3025.7085	3031.4086	3041.2757	3042.7884	3062.4859	3090.2736	3098.7947	3104.0888	3613.5539	3742.7451
CCCCOC(N)=O	CCCCOC(=O)N	
InChI=1S/C5H11NO2/c1-2-3-4-8-5(6)7/h2-4H2,1H3,(H2,6,7)	InChI=1S/C5H11NO2/c1-2-3-4-8-5(6)7/h2-4H2,1H3,(H2,6,7)
