16
gdb 54125	3.46507	1.31341	1.10633	4.4497	64.74	-0.2531	0.0121	0.2651	1076.9269	0.124965	-475.006861	-474.99911	-474.998166	-475.039159	29.756	
N	-0.1777426684	 0.9782076099	-0.0850801796	-0.611895
H	 0.0560615138	-0.0093212999	-0.0326716254	 0.25857
H	 0.8903369523	 2.5744598293	 0.2733028253	 0.30512
H	-0.7793100384	 1.1127604041	-0.8918745906	 0.246812
C	-0.8096985897	 1.4040552768	 1.1392571796	 0.086956
C	-2.2400772879	 1.0574526351	 1.5604889727	-0.161331
C	-2.5579561966	-0.3509119441	 1.0770238615	-0.116725
O	-1.3469852822	-0.8762885342	 1.7023337781	-0.290298
C	-1.078921968	 0.4071841434	 2.2536632875	 0.083851
C	-0.3314463267	 2.7369174773	 1.6608615228	 0.430076
O	 0.7013352373	 3.2369276915	 0.9708418107	-0.380373
O	-0.8137018517	 3.2860592178	 2.6195488892	-0.358693
H	-2.9259829332	 1.8145325327	 1.9103754677	 0.134362
H	-3.4431895693	-0.7832589664	 1.5520292154	 0.131793
H	-2.5818724614	-0.5375927686	-0.0025638688	 0.10412
H	-0.6637020799	 0.4820652152	 3.2505187738	 0.137657
90.2287	172.0412	196.7822	289.3194	308.3611	346.5892	384.1759	476.2319	506.9593	650.3119	737.4038	745.0197	783.3538	830.2007	851.577	879.7971	922.3306	939.6188	971.7896	990.2709	1032.8801	1072.3457	1090.9736	1117.4253	1158.9899	1221.0604	1232.3006	1251.9715	1298.8107	1313.9233	1392.1371	1424.6285	1508.4493	1657.7904	1848.988	3037.091	3096.2451	3205.2281	3233.8797	3490.6739	3527.4353	3567.7563
[NH3+]C1(C2COC12)C([O-])=O	N[C@]1([C@H]2CO[C@@H]12)C(=O)O	
InChI=1S/C5H7NO3/c6-5(4(7)8)2-1-9-3(2)5/h2-3H,1,6H2,(H,7,8)	InChI=1S/C5H7NO3/c6-5(4(7)8)2-1-9-3(2)5/h2-3H,1,6H2,(H,7,8)/t2-,3+,5-/m0/s1
