19
gdb 120216	4.70949	0.87061	0.84968	2.6915	75.41	-0.2357	0.0005	0.2362	1400.1068	0.159256	-422.964254	-422.955991	-422.955046	-422.997673	31.521	
O	-0.0458589958	 1.4375111769	-0.0346588385	-0.418551
C	 0.0161406015	 0.0284547519	 0.1230330491	-0.073339
C	-1.3784218964	-0.5302383362	-0.1401223398	-0.209639
C	-1.4291267677	-2.0491231238	-0.0715509961	 0.015387
C	-1.4906231006	-2.7045068473	 1.3588920999	 0.007538
O	-2.9064707918	-2.3312204852	 1.4060488499	-0.284822
C	-2.8581337012	-2.6959831602	-0.0131991227	-0.000791
C	-2.5145695099	-4.1932181445	 0.0598048793	-0.083168
C	-1.5713116277	-4.198877709	 1.0046530932	-0.082075
H	 0.823955949	 1.8005934133	 0.1554094755	 0.285129
H	 0.7375599435	-0.4194241605	-0.5810563875	 0.081672
H	 0.3445525841	-0.2437486439	 1.1394432529	 0.084862
H	-2.082413927	-0.1015230734	 0.5782061043	 0.12518
H	-1.6905555391	-0.1999409971	-1.1390523808	 0.10372
H	-0.7292651018	-2.5140928389	-0.7726733258	 0.069698
H	-0.9042360313	-2.3700453395	 2.2141762027	 0.078834
H	-3.7057996175	-2.3468083768	-0.6021663446	 0.079518
H	-2.9385674788	-4.9926371925	-0.529329409	 0.110932
H	-0.9882573713	-5.0048681135	 1.4246854679	 0.109915
81.5934	86.1719	124.0414	262.0026	278.6158	330.3048	346.6824	527.9585	553.032	640.63	703.8117	746.507	782.5777	853.9497	858.8549	871.785	893.2873	908.6407	917.6124	953.4925	1003.5373	1021.4397	1075.9528	1080.9629	1107.925	1154.8889	1157.956	1184.1574	1218.3957	1234.1154	1246.0804	1252.8201	1299.3326	1299.5723	1311.4802	1326.7906	1392.7516	1461.1113	1493.2229	1527.9953	1613.5918	2955.4119	2981.2987	3034.5402	3061.3146	3104.6353	3127.8094	3131.2886	3232.712	3259.9505	3830.6068
OCCC1C2OC1C=C2	OCC[C@H]1[C@H]2O[C@@H]1C=C2	
InChI=1S/C7H10O2/c8-4-3-5-6-1-2-7(5)9-6/h1-2,5-8H,3-4H2	InChI=1S/C7H10O2/c8-4-3-5-6-1-2-7(5)9-6/h1-2,5-8H,3-4H2/t5-,6-,7+
