21
gdb 119955	1.94786	1.15674	0.87668	3.0913	81.71	-0.238	-0.0163	0.2217	1441.6136	0.179523	-424.219545	-424.209152	-424.208207	-424.255643	36.745	
C	-0.1900990464	 1.4445812724	-0.1551182843	-0.387269
C	-0.3437817306	-0.0342041714	-0.4606422308	-0.045146
O	-1.2808168475	-0.586169569	 0.459244014	-0.24304
C	-1.4562160823	-1.9526677827	 0.3266074418	 0.097959
C	-2.7317264781	-2.5255871846	 0.8205984846	-0.076094
C	-3.7875993024	-1.6657539239	 1.4842260622	-0.411349
C	-2.4687596975	-2.4977275125	-0.6999008738	-0.169312
C	-3.2020840612	-1.5736982599	-1.5879581371	 0.160551
O	-3.5493288669	-1.857824102	-2.7119132721	-0.282434
H	 0.5276759162	 1.8996877424	-0.8437061272	 0.121547
H	-1.1477253326	 1.9618541368	-0.2625018737	 0.129952
H	 0.1672066001	 1.5914135133	 0.86790334	 0.129515
H	-0.6966516177	-0.1894746365	-1.4914473927	 0.105868
H	 0.6206342304	-0.5569106549	-0.3630947929	 0.095628
H	-0.5401422268	-2.536453566	 0.4322067379	 0.096683
H	-2.6522882735	-3.5270304385	 1.2345284183	 0.103322
H	-3.7248689744	-0.6247128567	 1.165270194	 0.140457
H	-4.7934855387	-2.0391755255	 1.2693004615	 0.126142
H	-3.6480706614	-1.6834481449	 2.5700220252	 0.125282
H	-2.2328791055	-3.4461992903	-1.171199716	 0.102988
H	-3.4188377632	-0.5712757653	-1.1635134489	 0.078751
59.815	79.4488	114.1978	116.9846	178.1732	203.9958	224.0444	250.2521	279.2794	372.9352	419.5921	463.4289	571.8982	601.2496	720.0129	819.4155	854.0702	888.2513	919.2881	971.3931	997.0841	1020.989	1050.6109	1088.7508	1099.2221	1144.9174	1149.7697	1178.4947	1185.3346	1202.9625	1259.5742	1296.9999	1331.5823	1363.7112	1398.1752	1412.9884	1415.5819	1444.06	1459.0814	1483.9081	1494.4962	1498.647	1507.0066	1526.0886	1798.766	2910.1267	2979.3267	3012.1383	3044.5086	3046.9346	3084.4236	3102.0247	3122.124	3124.0305	3136.616	3151.7383	3171.0201
CCOC1C(C)C1C=O	CCO[C@H]1[C@@H](C)[C@H]1C=O	
InChI=1S/C7H12O2/c1-3-9-7-5(2)6(7)4-8/h4-7H,3H2,1-2H3	InChI=1S/C7H12O2/c1-3-9-7-5(2)6(7)4-8/h4-7H,3H2,1-2H3/t5-,6+,7-/m0/s1
