18
gdb 81983	2.46652	1.4425	1.31553	4.6931	76.15	-0.2405	0.0368	0.2773	1064.6569	0.148402	-398.09316	-398.08449	-398.083546	-398.126024	33.177	
C	-0.0962142438	 1.575569785	-0.1136361817	-0.44589
C	-0.0093223401	 0.0510675759	-0.0417592089	 0.148664
C	-1.3159251138	-0.5428230605	 0.2178091703	 0.233506
N	-2.3483574501	-1.022720708	 0.4227944025	-0.348097
C	 0.7109032253	-0.6817351479	-1.1981696237	-0.083669
N	 2.1010632162	-0.1763884107	-1.1970280258	-0.354488
C	 1.714721794	-1.2798354048	-0.2843636339	-0.056211
C	 1.0996503175	-0.584326906	 0.9452800426	-0.031186
N	 1.8741067169	 0.3590574596	 1.707654573	-0.5092
H	 0.8648826514	 1.9792322818	-0.4352845733	 0.139388
H	-0.8661992534	 1.8861531096	-0.8257872309	 0.125862
H	-0.3387351328	 1.9885875845	 0.8680280421	 0.144189
H	 0.2512677993	-1.0810967699	-2.0928729542	 0.112429
H	 2.5758461044	-0.5846998266	-2.0002860192	 0.239101
H	 2.2134362386	-2.2404905793	-0.3287601467	 0.099674
H	 0.6217313881	-1.2965889044	 1.6193389311	 0.106144
H	 2.3733229835	-0.1012703717	 2.4601312279	 0.234339
H	 2.5558192787	 0.8082999933	 1.1034447588	 0.245445
119.183	156.2927	184.9214	203.7844	245.5874	279.2626	284.3136	414.5902	469.0904	508.0676	563.3706	613.8869	644.7579	747.2793	798.8453	839.6989	850.1918	867.4076	928.002	942.6606	971.0805	1026.6665	1083.3277	1099.4173	1113.7374	1146.8404	1164.9694	1180.9247	1222.1911	1261.7124	1297.2476	1316.2376	1370.4733	1404.7893	1426.2407	1483.4899	1498.1307	1652.3848	2346.1684	3053.9005	3106.6649	3127.4792	3147.9826	3185.7707	3206.3738	3492.1623	3502.0925	3591.4294
CC1(C#N)C2NC2C1N	C[C@@]1(C#N)[C@H]2N[C@H]2[C@H]1N	
InChI=1S/C6H9N3/c1-6(2-7)4(8)3-5(6)9-3/h3-5,9H,8H2,1H3	InChI=1S/C6H9N3/c1-6(2-7)4(8)3-5(6)9-3/h3-5,9H,8H2,1H3/t3-,4+,5-,6-/m0/s1
