20
gdb 39743	3.12014	1.66352	1.49079	1.4087	81.63	-0.2294	0.0949	0.3242	977.0195	0.173631	-365.961209	-365.954259	-365.953315	-365.9922	29.254	
C	-0.0224819795	 1.4711588184	 0.0028496696	-0.357364
C	 1.3207930842	 0.7658928783	 0.0237413168	-0.334157
C	 0.0455841474	-0.0236795249	 0.0003705272	 0.418438
C	-0.5660633394	-0.9072791822	 1.0688659928	-0.137647
C	-1.3607461543	-1.6420142923	 0.0368254675	-0.054484
C	-0.520847038	-0.964609302	-1.0909418544	-0.158974
C	 0.5171309514	-2.029980097	-1.4552307858	-0.216262
C	 0.8051217839	-2.675443124	-0.0738718775	-0.156797
N	-0.3422348999	-2.3418227661	 0.8044280587	-0.104674
H	-0.3517899275	 1.9691279716	 0.9099526558	 0.11237
H	-0.318936309	 1.9755999688	-0.9115363724	 0.111231
H	 1.9230645916	 0.8014364307	-0.8790313815	 0.110902
H	 1.8973580646	 0.7922169277	 0.943282281	 0.111959
H	-0.8178145933	-0.6163693765	 2.0839641869	 0.086779
H	-2.3892670274	-1.9811912539	 0.0153142384	 0.089415
H	-1.0384550902	-0.4906122967	-1.9253233637	 0.069104
H	 0.0957273258	-2.7599835396	-2.1555126133	 0.097188
H	 1.4152536875	-1.604694465	-1.913245649	 0.098937
H	 0.8827156093	-3.764531563	-0.1360148709	 0.103967
H	 1.730153223	-2.3000500423	 0.3725740338	 0.110067
145.0383	218.0875	242.4186	292.3801	410.4865	498.7644	565.0683	656.3267	725.9525	768.7448	777.1498	827.9882	846.2166	857.5445	887.38	906.6085	918.0963	930.51	949.5823	977.2419	981.555	1014.8447	1036.8333	1050.7307	1063.967	1076.5888	1098.967	1163.7949	1185.742	1195.6392	1214.6249	1221.7168	1235.1583	1257.1381	1272.8684	1314.7862	1325.7607	1359.3731	1399.9836	1463.6041	1487.4375	1504.121	1507.35	3038.6072	3057.9297	3083.7026	3103.9724	3111.3367	3117.84	3121.4543	3156.8352	3185.5044	3194.6217	3209.3277
C1CC11C2C3C1CCN23	C1CC21[C@H]1[C@H]3[C@@H]2CCN13	
InChI=1S/C8H11N/c1-4-9-6-5(1)8(2-3-8)7(6)9/h5-7H,1-4H2	InChI=1S/C8H11N/c1-4-9-6-5(1)8(2-3-8)7(6)9/h5-7H,1-4H2/t5-,6+,7+,9?/m0/s1
