16
gdb 41323	3.40875	1.77145	1.38772	0.7942	67.64	-0.2492	0.0052	0.2545	909.2987	0.126435	-437.856711	-437.850234	-437.84929	-437.887583	25.75	
C	-0.0179743594	 1.4923397493	-0.0157068556	-0.159641
O	 1.4250914295	 1.4884879042	 0.1439130379	-0.292421
C	 1.5277089557	 0.0651653895	-0.1191916318	 0.043259
C	 1.6761665963	-0.7848546097	 1.1680534923	-0.247896
C	 0.1228697549	-0.8309112747	 1.2982190484	-0.064599
N	-0.5072783437	-2.1183540215	 0.9672932994	-0.258328
C	-1.0089548403	-1.9761601411	-0.1886220541	 0.090068
O	-0.8670847733	-0.7898350642	-0.8595858818	-0.257426
C	-0.0177467754	-0.02508994	-0.0246483339	 0.361875
H	-0.5319748183	 1.9969309572	 0.8101958028	 0.112116
H	-0.3184610668	 1.943178289	-0.9703099285	 0.115266
H	 2.1378063572	-0.1552982597	-0.9985690541	 0.086589
H	 2.1076633947	-1.7744245483	 0.9986823443	 0.118077
H	 2.2101984243	-0.2816046677	 1.9764993736	 0.118431
H	-0.3025938721	-0.4282023865	 2.2218892358	 0.089614
H	-1.5738651333	-2.7257242357	-0.7308518546	 0.145017
112.6269	250.0854	288.6574	333.4038	438.3242	473.4176	567.6864	677.0918	725.9823	800.8023	835.6184	878.1957	906.8796	927.8432	959.4886	985.6028	988.9342	1031.454	1055.3034	1085.4812	1106.6581	1120.9068	1149.3252	1177.5754	1195.3865	1241.4426	1262.52	1286.648	1298.535	1319.9703	1334.5864	1369.2082	1453.799	1519.0503	1682.0569	3015.8895	3064.5684	3068.5662	3070.0533	3083.4555	3133.102	3222.2297
C1OC2CC3N=COC123	C1O[C@H]2C[C@@H]3N=CO[C@]123	
InChI=1S/C6H7NO2/c1-4-6(9-3-7-4)2-8-5(1)6/h3-5H,1-2H2	InChI=1S/C6H7NO2/c1-4-6(9-3-7-4)2-8-5(1)6/h3-5H,1-2H2/t4-,5-,6-/m0/s1
