15
gdb 125087	3.19332	1.18473	0.90377	1.4083	68.96	-0.247	-0.0191	0.2279	1222.1888	0.112548	-453.98296	-453.974435	-453.973491	-454.017341	29.484	
C	 0.186269121	 1.3965600407	-0.3882215366	-0.521671
C	 0.0559322173	-0.074823444	-0.1433735932	 0.09562
C	-0.3003367121	-1.0601319422	-1.0401280928	 0.344906
N	-0.3132060533	-2.2449107927	-0.3809781366	-0.253858
N	 0.0061570483	-2.1040499229	 0.9201689611	-0.220019
C	 0.235874738	-0.8028355283	 1.0605086743	-0.062579
O	-0.6593527019	-1.0093049759	-2.3586003345	-0.217427
C	 0.3237665318	-0.6962902988	-3.2650108782	 0.156634
O	 0.0912536462	-0.5859402116	-4.4241980337	-0.244682
H	 1.23151676	 1.7256289726	-0.3830570114	 0.136257
H	-0.244561603	 1.6754135727	-1.3542714088	 0.135361
H	-0.3373982708	 1.9711647281	 0.3822287002	 0.141039
H	-0.5737546434	-3.1451547136	-0.7481027523	 0.284205
H	 0.5192111098	-0.4137536135	 2.0283207446	 0.117803
H	 1.3058646522	-0.5706252306	-2.777350512	 0.108411
47.5739	80.236	128.5964	152.9915	248.6028	256.4153	397.3041	424.9822	493.1775	512.445	673.6771	691.8308	700.693	851.7001	883.2866	947.2375	1001.2661	1041.4952	1066.0952	1097.2933	1131.7398	1209.444	1244.7365	1298.1978	1378.971	1400.7345	1422.9757	1447.3871	1487.197	1497.9295	1518.9368	1644.4065	1885.5876	2998.0412	3033.2534	3088.4176	3110.3221	3238.754	3668.8163
CC1=C(NN=C1)OC=O	Cc1c([nH]nc1)OC=O	
InChI=1S/C5H6N2O2/c1-4-2-6-7-5(4)9-3-8/h2-3H,1H3,(H,6,7)	InChI=1S/C5H6N2O2/c1-4-2-6-7-5(4)9-3-8/h2-3H,1H3,(H,6,7)
