20
gdb 109173	4.16158	0.97751	0.82179	4.1235	77.09	-0.2533	0.0222	0.2755	1415.9736	0.171566	-440.307971	-440.298908	-440.297963	-440.341841	33.629	
C	-0.0164029054	 1.5063855062	 0.0158141609	-0.40782
C	 0.0432614742	-0.0215915687	 0.01924315	-0.020442
C	 0.7560378379	-0.5579190706	-1.2186946781	-0.075887
O	 0.8373844446	-1.9920651973	-1.2029770932	-0.255631
C	 1.0583676936	-2.5572765614	 0.0042592571	 0.378836
C	 1.3171825518	-4.0432469746	-0.1041218477	-0.115575
O	 1.485247377	-4.6283421473	 1.1554944934	-0.423919
N	 1.0688739864	-2.0040238619	 1.1444222613	-0.344986
C	 0.7640065975	-0.5828609482	 1.2529890199	-0.160318
H	 0.989725303	 1.9408270388	-0.0055749394	 0.121022
H	-0.5639305403	 1.8845608485	-0.8537933887	 0.119603
H	-0.5192339591	 1.8787910139	 0.9137286857	 0.125668
H	-0.9789402884	-0.4222985153	 0.0094777578	 0.09303
H	 0.2290922963	-0.3031012361	-2.1415654473	 0.120129
H	 1.7754488964	-0.1524513305	-1.2811776063	 0.111456
H	 0.4740154423	-4.4993906014	-0.6458265037	 0.112768
H	 2.2076756369	-4.1896072992	-0.7363900383	 0.110126
H	 1.4249460465	-3.8869340527	 1.7810862985	 0.288905
H	 1.7005959292	-0.0326155252	 1.4252221606	 0.109521
H	 0.1544009695	-0.4311829968	 2.1510694374	 0.113514
75.9292	118.648	176.6668	196.4576	216.5053	252.1693	297.3056	394.2458	418.0409	420.3478	515.1493	540.9173	605.4698	721.3763	818.153	891.6006	907.927	946.9127	972.5544	1031.4336	1039.9	1076.409	1126.6979	1144.0829	1169.2929	1180.7361	1232.021	1239.8843	1244.1843	1301.5574	1321.1151	1332.8117	1363.4578	1378.3136	1409.5363	1425.6248	1482.7254	1488.5309	1498.1583	1499.9508	1507.3097	1510.587	1755.4386	2980.9256	3000.4134	3001.7173	3011.7023	3026.2497	3031.9381	3055.441	3094.9171	3100.8532	3104.6994	3653.8474
CC1COC(CO)=NC1	C[C@H]1COC(=NC1)CO	
InChI=1S/C6H11NO2/c1-5-2-7-6(3-8)9-4-5/h5,8H,2-4H2,1H3	InChI=1S/C6H11NO2/c1-5-2-7-6(3-8)9-4-5/h5,8H,2-4H2,1H3/t5-/m1/s1
