12
gdb 15289	5.07617	1.15707	1.01812	3.7937	59.73	-0.3219	-0.0264	0.2955	1064.8895	0.083101	-377.516597	-377.509108	-377.508164	-377.549334	25.568	
N	 0.0056559761	-1.0490561416	-0.5818127239	-0.286479
C	-0.0041064907	 0.039283631	-0.1959188201	 0.267655
C	 0.002915136	 1.413159181	 0.3050885513	-0.380722
C	 1.387459622	 2.0319699733	 0.2234832788	 0.075791
O	 1.7718543206	 2.5979669993	-1.0200246206	-0.212374
C	 1.5791654735	 3.491118627	 0.0791638169	-0.103785
C	 0.4452714992	 4.3873432374	 0.0004353284	 0.30405
N	-0.4584404076	 5.1066233751	-0.0387380711	-0.314761
H	-0.7092967661	 2.015553333	-0.2667363512	 0.186343
H	-0.3331093729	 1.4100062769	 1.3487945071	 0.172772
H	 2.1762529121	 1.4794470536	 0.7331667031	 0.13704
H	 2.4854656877	 3.9448916839	 0.4747112814	 0.154469
54.5466	98.3109	163.999	226.0299	347.5683	382.1291	383.5707	532.0689	580.3125	610.8155	814.706	822.336	919.2276	962.483	999.063	1032.979	1120.0907	1141.8033	1242.6461	1279.2211	1322.381	1379.1705	1446.4551	1458.7055	2362.5865	2370.8379	3051.096	3101.9592	3126.8159	3143.4129
N#CCC1OC1C#N	N#CC[C@H]1O[C@H]1C#N	
InChI=1S/C5H4N2O/c6-2-1-4-5(3-7)8-4/h4-5H,1H2	InChI=1S/C5H4N2O/c6-2-1-4-5(3-7)8-4/h4-5H,1H2/t4-,5+/m1/s1
