18
gdb 15726	2.7118	2.05175	1.36739	1.2763	63.75	-0.2555	0.0863	0.3418	943.6497	0.154073	-422.076789	-422.068542	-422.067598	-422.10974	29.833	
C	 0.3740539559	 1.0907907666	 0.3590818944	-0.244791
O	 0.4232245302	-0.2971693832	 0.082152846	-0.267535
C	 0.4697422253	-0.6095074484	-1.294330742	 0.191293
O	 1.6686068408	-0.2160586524	-1.9002073546	-0.264746
C	 2.6200039817	-1.3033849154	-1.8767367167	-0.079533
C	 1.9245404678	-2.479863678	-1.1846215804	-0.265104
C	 0.4305842981	-2.1461478501	-1.3778043186	 0.10731
O	-0.454330747	-2.7442059181	-0.46819904	-0.441658
H	 1.2613983178	 1.6030834557	-0.029763482	 0.130268
H	-0.5224039308	 1.5519693072	-0.0810410066	 0.111147
H	 0.3357720354	 1.2025942863	 1.4447209626	 0.127651
H	-0.347567599	-0.0941332932	-1.8171253862	 0.074613
H	 2.8866813713	-1.5347369768	-2.9147698282	 0.106859
H	 3.5264670306	-0.9739084474	-1.358959001	 0.109748
H	 2.2016523037	-3.4474421095	-1.6066476548	 0.108332
H	 2.1416518065	-2.4932142472	-0.1127809868	 0.114275
H	 0.1063522628	-2.4345816006	-2.383571301	 0.093233
H	-0.4115199211	-2.2015626756	 0.3304910762	 0.288638
86.7813	110.8377	142.8981	180.7927	217.3782	319.145	393.7381	435.2952	506.7467	567.1816	628.6535	740.2022	834.3832	900.3638	934.2173	935.3558	999.2122	1057.7277	1085.8865	1112.4509	1132.9912	1147.273	1182.3391	1199.1902	1208.0214	1228.5126	1279.0559	1306.5773	1332.3532	1361.8968	1390.9447	1400.2906	1449.2076	1479.0497	1484.3078	1487.462	1512.9961	1530.2953	2996.2519	3018.5537	3031.4663	3055.5426	3064.6409	3069.8492	3075.93	3126.2651	3126.3032	3763.3265
COC1OCCC1O	CO[C@H]1OCC[C@H]1O	
InChI=1S/C5H10O3/c1-7-5-4(6)2-3-8-5/h4-6H,2-3H2,1H3	InChI=1S/C5H10O3/c1-7-5-4(6)2-3-8-5/h4-6H,2-3H2,1H3/t4-,5+/m1/s1
