15
gdb 54904	2.20831	1.17363	0.92099	1.2605	65.54	-0.1897	0.0403	0.23	1267.1025	0.111684	-454.03326	-454.023428	-454.022484	-454.072167	32.076	
O	-0.155914168	-0.568181607	-0.1422101345	-0.307938
C	 0.3451296524	 0.1993577031	 0.5771078141	 0.592366
O	 0.8731483507	 0.9468905225	 1.2911516	-0.286444
C	-2.5702268342	 3.2042259266	-0.2865312138	-0.102231
N	-2.9658931391	 1.9901382932	-0.7974700775	-0.240989
C	-2.9936992288	 1.0447984325	 0.1972383054	 0.267248
N	-3.4051233158	-0.2685925552	-0.1194805305	-0.618434
H	-3.8100748546	-0.7194318939	 0.6923249145	 0.243393
H	-2.6198813302	-0.8386879207	-0.4233771543	 0.252617
C	-2.6107758014	 1.6674843672	 1.368302259	-0.210094
C	-2.3498813308	 3.0353278306	 1.0586644219	-0.134192
H	-2.4792583482	 4.0715724495	-0.919771747	 0.112416
H	-3.2614725672	 1.8057239618	-1.740579718	 0.259242
H	-2.5308213211	 1.1938384361	 2.3353844469	 0.081391
H	-2.0268109737	 3.8010727336	 1.7470360639	 0.091649
15.9764	24.8982	49.5054	63.7409	99.7439	166.1017	272.3179	389.8299	503.9276	633.4238	648.0361	671.6328	680.1976	687.348	701.6609	778.5637	836.8712	851.3882	894.33	986.9767	1049.851	1106.0735	1143.4539	1181.0641	1279.0956	1301.2487	1377.7452	1429.9278	1470.1895	1507.4572	1612.7961	1658.8674	2432.273	3236.4175	3250.7788	3272.5307	3491.2423	3586.7761	3679.3644
[O-]C(=O)C1NC(=[NH2+])C=C1	O=C=O.c1[nH]c(N)cc1	
InChI=1S/C5H6N2O2/c6-4-2-1-3(7-4)5(8)9/h1-3H,(H2,6,7)(H,8,9)	InChI=1S/C4H6N2.CO2/c5-4-2-1-3-6-4;2-1-3/h1-3,6H,5H2;
