16
gdb 55271	3.50599	1.16689	0.92789	6.4243	66.56	-0.2245	0.0265	0.2509	1203.931	0.126475	-471.262788	-471.254459	-471.253514	-471.296377	30.735	
N	 0.116061938	 1.3923451124	-0.1564106099	-0.575648
C	 0.0419689497	 0.0264426208	-0.1296115907	 0.445029
N	-1.0551404844	-0.6325691246	 0.0330653059	-0.368557
H	-2.2843676011	-1.2771421324	 1.3522616835	 0.306657
C	-0.7058106317	-2.0545432875	-0.0610374588	-0.109848
C	 0.8482184124	-2.1221504717	-0.0882046501	-0.191841
N	 1.1776832227	-0.7222245958	-0.3935823785	-0.344356
C	-1.3209266096	-2.8447569533	 1.0984825067	 0.418183
O	-2.2789161252	-2.1731277721	 1.7512868035	-0.369091
O	-0.9837019405	-3.9622411764	 1.3888278604	-0.346768
H	 0.9956258043	 1.8243502517	 0.0759507556	 0.256162
H	-0.6959967065	 1.8610678838	 0.2131507631	 0.270243
H	-1.1204251948	-2.4871130475	-0.9825423017	 0.116288
H	 1.251079963	-2.4441857919	 0.8794002545	 0.125239
H	 1.2284905363	-2.79526247	-0.8585191036	 0.127143
H	 2.0725341873	-0.3642163357	-0.0931147599	 0.241164
60.89	76.2715	183.7332	229.4616	294.0455	345.5938	390.6631	471.7622	497.5449	518.2278	564.4454	697.2825	718.1198	728.8357	775.9544	787.4808	869.7321	979.5206	1005.142	1050.0115	1057.8993	1086.9912	1157.9801	1202.7014	1229.106	1282.6892	1299.9534	1330.7666	1373.3208	1425.3071	1508.183	1538.3168	1631.3993	1711.6312	1865.9076	3003.4151	3037.3839	3106.2638	3515.7633	3595.549	3603.0776	3707.8479
NC1=[NH+]C(CN1)C([O-])=O	N[C]1[N][C@@H](CN1)C(=O)O	
InChI=1S/C4H7N3O2/c5-4-6-1-2(7-4)3(8)9/h2H,1H2,(H,8,9)(H3,5,6,7)	InChI=1S/C4H7N3O2/c5-4-6-1-2(7-4)3(8)9/h2H,1H2,(H,8,9)(H3,5,6,7)/t2-/m0/s1
