14
gdb 25060	3.91193	1.01504	0.85647	4.1438	69.53	-0.2099	-0.0003	0.2096	1273.3876	0.1017	-432.900555	-432.892536	-432.891591	-432.933973	29.078	
N	-0.1537080003	 1.2570053781	 0.2186619447	-0.594919
C	-0.0354571911	 0.0103200366	 0.0538928377	 0.474033
N	-1.0361189012	-0.9389828898	 0.1740375722	-0.391905
C	-0.4920305746	-2.2136905998	-0.0001219978	 0.318761
C	-1.3111525739	-3.462170293	 0.0646994216	-0.45324
C	-2.0316725418	-3.6047929669	 1.3356134661	 0.258791
N	-2.611796856	-3.6908889615	 2.3305705514	-0.2929
C	 0.8006691733	-2.0391402911	-0.2949282589	-0.131306
O	 1.1092355515	-0.6932773099	-0.2901550765	-0.211829
H	 0.7342050301	 1.7304165039	 0.0774418504	 0.230924
H	-1.9053820566	-0.7257350169	 0.6333934085	 0.285832
H	-2.0520304849	-3.484173546	-0.7458454706	 0.174971
H	-0.659174657	-4.3294536455	-0.0761346997	 0.175746
H	 1.5918858626	-2.7230400382	-0.546935509	 0.157043
52.0322	90.2012	171.0136	276.391	294.5357	380.2131	385.5903	470.4976	481.8115	593.9335	694.7917	712.912	724.018	754.6452	777.8602	906.9087	931.6351	936.6782	1019.7035	1059.8054	1102.1071	1212.9831	1230.9172	1266.0613	1331.9176	1365.3472	1436.8755	1449.7358	1718.6229	1801.8504	2366.9309	3025.0483	3095.0546	3297.794	3548.3916	3676.4731
N=C1NC(CC#N)=CO1	[NH][C@H]1NC(=CO1)CC#N	
InChI=1S/C5H5N3O/c6-2-1-4-3-9-5(7)8-4/h3H,1H2,(H2,7,8)	InChI=1S/C5H6N3O/c6-2-1-4-3-9-5(7)8-4/h3,5,7-8H,1H2/t5-/m0/s1
