15
gdb 46617	3.24009	1.50138	1.04617	4.027	68.01	-0.2574	-0.0447	0.2127	1066.1458	0.114371	-457.801139	-457.794017	-457.793073	-457.833126	26.181	
O	-0.0452145092	-0.0232844437	 0.0265351349	-0.341464
C	 0.0424120301	 1.1701131982	 0.0186396214	 0.386573
O	-1.0713071899	 1.9944975681	 0.0635531078	-0.24325
C	-0.6860056947	 3.3753963189	 0.0422484759	-0.199404
C	 0.8045955648	 3.33086947	-0.0215343749	 0.192589
C	 1.2106254141	 2.0656192649	-0.0345739074	 0.059141
C	 2.7003620382	 1.989021063	-0.098166213	-0.188612
O	 3.1062239795	 3.3701949105	-0.1204051103	-0.277027
C	 1.9787359094	 4.2518624474	-0.0750369256	-0.176061
H	-1.145557134	 3.8601630958	-0.8278753955	 0.142178
H	-1.0695035108	 3.8662995509	 0.9451577942	 0.142178
H	 3.1437627224	 1.4869168688	 0.7722848999	 0.128905
H	 3.0678195858	 1.480721827	-0.9998310835	 0.12891
H	 1.9727225273	 4.9007022488	-0.9640798079	 0.122674
H	 2.0486604571	 4.9067251914	 0.8068351039	 0.12267
108.1776	145.1646	198.482	248.8815	282.7324	460.7424	505.1341	596.601	645.3202	756.5613	763.4125	848.2638	901.9687	952.6916	999.9431	1023.0636	1029.9562	1052.4377	1077.2485	1077.78	1160.3722	1199.6575	1220.2635	1233.5183	1291.963	1367.5332	1398.1881	1410.2508	1490.8575	1511.7499	1522.6846	1720.9128	1875.7811	2984.3593	3004.0942	3009.1952	3029.4656	3035.0764	3062.7742
O=C1OCC2=C1COC2	O=C1OCC2=C1COC2	
InChI=1S/C6H6O3/c7-6-5-3-8-1-4(5)2-9-6/h1-3H2	InChI=1S/C6H6O3/c7-6-5-3-8-1-4(5)2-9-6/h1-3H2
