21
gdb 107841	3.35856	1.41651	1.33328	1.352	81.8	-0.2372	0.0876	0.3249	1079.1586	0.183857	-387.059142	-387.051487	-387.050543	-387.091146	31.276	
C	-0.0277752601	 1.5135979633	 0.0406567254	-0.380831
C	-0.0399723903	-0.0194903749	 0.0791162702	-0.299228
C	-1.4216176034	-0.6040333154	-0.0519806179	 0.441202
C	-2.3409568479	-0.4562447822	-1.2953637959	-0.277762
C	-3.096515691	-1.6111843959	-0.6294033024	-0.071134
C	-3.2742806921	-1.2090973436	 0.8966231765	 0.085338
C	-2.4526913637	-2.4540547607	 1.2999311187	-0.244701
C	-1.7520799869	-2.165202067	-0.034929219	-0.111978
O	-2.3050551464	-0.1573208038	 1.0018728575	-0.308072
H	 0.9881425906	 1.8988814058	 0.1681825333	 0.108859
H	-0.4108097852	 1.8894911303	-0.9137559627	 0.115904
H	-0.6540030467	 1.9228484951	 0.837465768	 0.138231
H	 0.5840060181	-0.4235421095	-0.7271749902	 0.09562
H	 0.3958473359	-0.3718918867	 1.0222291186	 0.104146
H	-2.8329781212	 0.5090644429	-1.4391558233	 0.097772
H	-1.8545854013	-0.7877027196	-2.2177335428	 0.095591
H	-3.8540437397	-2.2294743758	-1.1072449186	 0.07135
H	-4.2194709609	-0.9220986507	 1.355122298	 0.075469
H	-1.8971508962	-2.3959082918	 2.2394882715	 0.097891
H	-3.0318556499	-3.3804180281	 1.2458618657	 0.097202
H	-1.0842191918	-2.8468703417	-0.5590553905	 0.069132
85.0288	166.7572	195.7299	291.7902	345.2641	426.0643	460.1723	537.8435	614.6013	658.6583	736.886	776.3403	800.4607	835.4976	864.8813	874.9815	928.325	941.9335	945.0941	974.7822	985.7402	1003.2582	1018.9418	1042.7967	1055.2626	1079.3389	1111.4268	1123.7454	1172.7698	1188.0828	1190.953	1210.3494	1244.7852	1258.8366	1273.7828	1288.8503	1319.9069	1331.9126	1392.7358	1408.3513	1475.9253	1480.1262	1481.4753	1496.9382	1509.0936	3027.627	3041.0302	3052.4756	3054.218	3063.2512	3106.015	3114.2379	3115.4912	3125.2027	3127.7255	3130.0379	3140.0977
CCC12CC3C(CC13)O2	CC[C@@]12C[C@@H]3[C@@H](C[C@H]13)O2	
InChI=1S/C8H12O/c1-2-8-4-5-6(8)3-7(5)9-8/h5-7H,2-4H2,1H3	InChI=1S/C8H12O/c1-2-8-4-5-6(8)3-7(5)9-8/h5-7H,2-4H2,1H3/t5-,6-,7+,8+/m0/s1
