17
gdb 9094	4.65742	0.955	0.82445	1.12	67.93	-0.263	-0.0325	0.2305	1344.3075	0.139434	-401.005747	-400.996353	-400.995408	-401.041345	31.25	
C	 0.1710049372	 1.6676259458	-0.0314426226	-0.407363
C	-0.0906566598	 0.1503736468	-0.0097773245	-0.101852
C	 0.5281206716	-0.5796871282	-1.1956717497	-0.070932
O	-0.0814139465	-0.0630989043	-2.380732371	-0.192575
C	 0.376716582	-0.5537912618	-3.5486005959	 0.128772
N	-0.1177356508	-0.1520306398	-4.637788431	-0.438286
C	 0.3849561975	-0.4445327817	 1.2985300751	 0.152606
O	 1.1588618367	-1.363400641	 1.3965558049	-0.245735
H	 1.2447705627	 1.8799480972	 0.0089563265	 0.127774
H	-0.229745121	 2.099464193	-0.9500885514	 0.157838
H	-0.3051661049	 2.1617920998	 0.8208868848	 0.123642
H	-1.1807095853	-0.0006164538	-0.0403090774	 0.117651
H	 1.613067791	-0.4154447525	-1.2199561786	 0.118531
H	 0.3537220905	-1.6584233524	-1.1136825818	 0.124467
H	 1.179404644	-1.2948526596	-3.4290903945	 0.089199
H	 0.3386983953	-0.6186240566	-5.4187703226	 0.230343
H	-0.0376639601	 0.0489365991	 2.2036154598	 0.085921
40.8453	65.8864	109.7588	120.2165	144.3674	219.1025	243.0153	306.8251	387.7626	442.9579	580.6115	709.0585	823.7438	824.4865	918.2758	923.839	948.0658	1009.1653	1045.7949	1104.177	1143.7128	1151.743	1178.5109	1269.3999	1287.389	1310.9196	1333.15	1403.9232	1405.5392	1426.7599	1437.7531	1492.5817	1507.5804	1509.6914	1749.748	1824.5893	2874.0812	3003.1543	3015.7727	3029.2901	3041.3035	3072.1805	3107.4703	3140.9268	3519.1372
CC(COC=N)C=O	C[C@@H](CO[CH][NH])C=O	
InChI=1S/C5H9NO2/c1-5(2-7)3-8-4-6/h2,4-6H,3H2,1H3	InChI=1S/C5H9NO2/c1-5(2-7)3-8-4-6/h2,4-6H,3H2,1H3/t5-/m1/s1
