21
gdb 93871	2.08145	1.55675	1.12075	1.5264	82.98	-0.2523	0.0403	0.2925	1187.3534	0.182099	-387.075422	-387.065943	-387.064999	-387.109484	36.278	
C	-0.4520671103	 1.4812294342	 0.0232785596	-0.415732
C	-0.0227768058	 0.0173914803	 0.0397800242	 0.036208
C	 0.8036620127	-0.4255567114	-1.1949096526	-0.217408
C	 1.6789614176	-1.6162682589	-0.7260142066	-0.236907
C	 1.3566802096	-1.8215820086	 0.7750424944	 0.140429
O	 2.399138522	-2.3711189207	 1.5414075474	-0.440577
C	 0.8497777757	-0.4221328241	 1.2448820393	-0.221211
C	 1.9847814924	 0.4584682619	 1.5005820581	 0.326423
C	 2.9622095622	 1.1327875127	 1.701024367	-0.483373
H	 0.4190624846	 2.1437716517	 0.0178281253	 0.127751
H	-1.0481536154	 1.6975769272	-0.8696049381	 0.11297
H	-1.060448192	 1.7322484589	 0.8986731226	 0.11254
H	-0.9246429814	-0.6073617717	 0.0900512946	 0.07728
H	 0.1500721719	-0.6827800217	-2.0330770027	 0.098148
H	 1.4345429916	 0.4039550666	-1.5303049105	 0.106595
H	 1.5015453906	-2.5323194171	-1.2947447605	 0.103007
H	 2.7438024914	-1.3831449432	-0.8250293969	 0.102731
H	 0.519779447	-2.5200303066	 0.8836586895	 0.090071
H	 3.0872250405	-1.696343933	 1.6101955699	 0.278908
H	 0.2565034538	-0.5114162784	 2.1614521753	 0.101304
H	 3.8015146613	 1.7558510318	 1.8899520307	 0.200843
79.0718	103.7506	135.7303	177.2014	232.1496	270.4662	365.5485	387.2785	408.1529	418.687	470.7046	570.5025	616.8413	629.8346	647.7054	658.329	796.902	842.3018	848.3408	900.6378	955.3501	983.9338	1004.0254	1029.1496	1057.3222	1119.6466	1134.651	1160.9347	1180.9136	1206.229	1247.2731	1277.2429	1302.997	1308.1157	1321.9237	1355.3125	1371.3675	1384.6238	1413.415	1444.1808	1484.4627	1495.8686	1500.0269	1506.6346	2218.3422	3010.5263	3031.8301	3043.9907	3046.6001	3056.7678	3059.4666	3084.3779	3097.1403	3106.7434	3109.6847	3500.7832	3760.0167
CC1CCC(O)C1C#C	C[C@H]1CC[C@@H](O)[C@H]1C#C	
InChI=1S/C8H12O/c1-3-7-6(2)4-5-8(7)9/h1,6-9H,4-5H2,2H3	InChI=1S/C8H12O/c1-3-7-6(2)4-5-8(7)9/h1,6-9H,4-5H2,2H3/t6-,7-,8+/m0/s1
