13
gdb 130691	3.4469	1.61561	1.10768	3.3192	64.74	-0.2629	-0.0329	0.2301	984.068	0.091793	-452.76714	-452.760437	-452.759493	-452.798719	24.842	
O	-0.0808197412	-0.081184502	 0.0050892734	-0.365528
C	 0.0070377037	 1.1238169263	 0.0097492075	 0.339787
N	-1.0648302015	 2.0166557721	 0.0284165805	-0.355224
C	-0.7178679772	 3.4349818845	 0.0301638525	-0.291633
C	 0.7699698555	 3.3027764408	 0.0090516027	 0.392254
C	 1.1929631795	 2.0174811008	-0.0026862132	 0.040452
C	 2.6056562203	 2.1477284016	-0.0217967405	-0.127739
N	 2.9725345735	 3.4085529014	-0.0208764826	-0.129318
O	 1.7684134281	 4.1685711252	-0.0007226847	-0.22412
H	-2.0127199657	 1.6793508327	 0.0396367008	 0.261738
H	-1.1048224449	 3.9648061554	-0.850094696	 0.150563
H	-1.0803865741	 3.9566382351	 0.9255709634	 0.150559
H	 3.3746796242	 1.3888403861	-0.0359812437	 0.158208
77.2461	190.4883	237.1961	306.4888	394.708	527.1581	630.4577	632.9041	643.593	653.6739	773.2719	780.0826	827.65	921.7544	972.612	1015.9638	1047.9874	1101.3098	1160.9177	1176.4893	1198.4737	1302.8002	1376.3952	1427.5889	1437.7557	1498.183	1525.0468	1629.7657	1837.5588	3017.9588	3047.9329	3252.9405	3668.0059
O=C1NCC2=C1C=NO2	O=C1NCc2c1cno2	
InChI=1S/C5H4N2O2/c8-5-3-1-7-9-4(3)2-6-5/h1H,2H2,(H,6,8)	InChI=1S/C5H4N2O2/c8-5-3-1-7-9-4(3)2-6-5/h1H,2H2,(H,6,8)
