14
gdb 28692	3.82054	1.02874	0.88015	2.6164	69.31	-0.2209	0.0048	0.2257	1262.1951	0.102402	-432.916694	-432.908709	-432.907765	-432.950007	28.875	
N	 0.1953715823	 1.280887143	-0.0423645089	-0.587317
C	-0.0235841638	-0.0677187909	 0.0138189761	 0.463135
N	-1.1373224465	-0.6899485506	 0.2569042024	-0.332863
C	-0.7639945186	-2.0305607112	 0.2696482781	-0.187962
C	 0.5588793018	-2.1470838215	 0.0290955624	 0.32807
C	 1.5204438036	-3.2790279444	-0.079034729	-0.454045
C	 2.105374222	-3.4240015762	-1.4194224236	 0.266751
N	 2.5679195814	-3.5309155504	-2.4722817425	-0.302468
O	 1.0592536943	-0.8641825301	-0.1373432338	-0.210668
H	 0.9648090201	 1.5691736228	-0.6282469861	 0.271285
H	-0.6490331754	 1.816137643	-0.1777235825	 0.276264
H	-1.4830181604	-2.8153553811	 0.4465940519	 0.128194
H	 2.3423984713	-3.1712836713	 0.6406391215	 0.168952
H	 0.9950425479	-4.204794161	 0.1761068539	 0.172671
53.4114	89.2504	218.2448	260.2093	316.26	339.3791	380.2382	445.2255	479.4744	576.9963	623.1231	714.3216	751.7137	790.9304	865.4778	910.4996	927.7284	990.3594	1005.4815	1086.5298	1194.7937	1205.9327	1251.4132	1282.4492	1341.4926	1441.068	1443.1297	1601.6017	1659.4965	1683.6429	2365.8467	3029.1367	3091.8133	3259.7838	3581.4138	3691.2488
NC1=NC=C(CC#N)O1	Nc1ncc(CC#N)o1	
InChI=1S/C5H5N3O/c6-2-1-4-3-8-5(7)9-4/h3H,1H2,(H2,7,8)	InChI=1S/C5H5N3O/c6-2-1-4-3-8-5(7)9-4/h3H,1H2,(H2,7,8)
