21
gdb 111154	2.82141	1.3625	1.08662	1.4396	84.2	-0.2165	0.0761	0.2926	1199.6749	0.182803	-383.157606	-383.14918	-383.148236	-383.190705	33.14	
C	 0.1868286769	 1.684050659	 0.0083538401	-0.372001
C	 0.1793946058	 0.1604359508	 0.1251693143	-0.131415
N	 0.6477331773	-0.4399021267	-1.1277202201	-0.098022
C	-0.3459679288	-0.6448748002	-2.2644490803	-0.136165
C	 0.6753691249	-1.6782066973	-2.8207537531	-0.21515
C	 0.5377552709	-1.9469784808	-1.2968962378	-0.105857
C	-0.9882966725	-1.8193120494	-1.4953202474	 0.440587
C	-2.2041999978	-2.0157892336	-0.696159625	-0.351542
N	-1.9340404714	-2.8399331936	-1.9069731779	-0.404026
H	 1.1766436853	 2.0409852962	-0.2894195749	 0.124803
H	-0.5335270986	 2.0262928908	-0.7428081384	 0.11073
H	-0.0823582514	 2.148042592	 0.9623224228	 0.109469
H	 0.88838384	-0.1506261326	 0.9027963383	 0.098126
H	-0.8145598258	-0.1814746421	 0.4466084271	 0.091031
H	-0.821212917	 0.1896796659	-2.7834869656	 0.079391
H	 0.2908422683	-2.446286312	-3.4920789669	 0.105543
H	 1.6319579901	-1.2563231759	-3.1287141783	 0.102843
H	 1.1000553468	-2.6424304036	-0.6726208701	 0.083068
H	-2.1720683647	-2.5662205703	 0.2406040054	 0.123569
H	-2.985872098	-1.2608050458	-0.7451518435	 0.114281
H	-2.5029789003	-2.513748671	-2.6852275586	 0.230737
58.7357	160.68	186.1541	230.6595	270.1335	327.2658	336.7111	414.7147	489.4816	586.5296	661.571	732.1951	785.6432	801.7334	816.9952	880.997	897.3215	912.666	933.3254	963.0372	969.3446	1008.0164	1034.4743	1058.9607	1086.7289	1102.9096	1122.1631	1133.9089	1166.9733	1172.5235	1181.7476	1194.9048	1231.028	1249.8095	1254.7773	1260.6011	1305.0026	1380.0293	1406.9219	1436.3585	1482.9866	1489.4111	1493.4486	1510.4703	1526.2073	3001.7142	3035.2397	3043.6213	3083.6154	3098.2813	3099.6489	3102.5349	3114.0993	3119.0336	3166.8819	3181.4565	3488.8986
CCN1C2CC1C21CN1	CCN1[C@H]2C[C@@H]1[C@]12CN1	
InChI=1S/C7H12N2/c1-2-9-5-3-6(9)7(5)4-8-7/h5-6,8H,2-4H2,1H3	InChI=1S/C7H12N2/c1-2-9-5-3-6(9)7(5)4-8-7/h5-6,8H,2-4H2,1H3/t5-,6+,7+
