17
gdb 73759	2.32852	1.65118	0.9786	6.4997	81.11	-0.221	-0.0691	0.1518	1179.9798	0.134928	-418.058953	-418.049621	-418.048677	-418.093479	33.269	
C	 0.1073377063	 1.5124338152	 0.0577836618	-0.502871
C	-0.0422970063	 0.0323030275	-0.0226519092	 0.253506
C	-1.1597279605	-0.7378179639	 0.0193974792	 0.077557
C	-2.5961565562	-0.3412329015	 0.1262520956	-0.502094
C	-0.7331905777	-2.1367320774	-0.0864050509	 0.291442
O	-1.4111474485	-3.138728856	-0.110614712	-0.311685
C	 0.8067115764	-2.0949661333	-0.1684852634	 0.284021
N	 1.5606090673	-3.1135135248	-0.1883395464	-0.487765
N	 1.1186901252	-0.7357959417	-0.2046676283	-0.409226
H	 0.763379019	 1.7917587913	 0.8918838049	 0.1413
H	 0.5650202858	 1.9043002501	-0.8582525307	 0.150257
H	-0.8552112348	 2.0031113204	 0.2022598127	 0.150817
H	-3.1627138384	-0.6870598146	-0.7457022852	 0.141963
H	-3.0627958971	-0.80482446	 1.0023295238	 0.142385
H	-2.7250736294	 0.7411191714	 0.2059631542	 0.115663
H	 2.5495310181	-2.8539377937	-0.2418198135	 0.215103
H	 2.0332696809	-0.3825217092	 0.0277124974	 0.249628
50.2866	107.9913	132.2885	149.875	253.8908	265.7089	293.6092	323.3055	346.0067	441.7371	546.6924	586.6158	600.5898	621.7982	710.6833	817.9466	879.7123	903.0949	993.1509	1008.6056	1049.6282	1067.5621	1081.8194	1134.2282	1205.1873	1295.8615	1354.7792	1403.38	1422.7216	1451.0629	1472.8374	1476.9223	1482.5486	1492.9716	1691.012	1754.1353	1806.5243	3027.0129	3033.2515	3076.8412	3082.7957	3115.3847	3150.1289	3430.8873	3633.6882
CC1=C(C)C(=O)C(=N)N1	CC1=C(C)C(=O)[C]([NH])N1	
InChI=1S/C6H8N2O/c1-3-4(2)8-6(7)5(3)9/h1-2H3,(H2,7,8,9)	InChI=1S/C6H8N2O/c1-3-4(2)8-6(7)5(3)9/h1-2H3,(H2,7,8,9)
