18
gdb 82881	2.77682	1.77209	1.40737	2.0032	70.68	-0.223	0.0634	0.2864	954.1456	0.149359	-439.016153	-439.008951	-439.008006	-439.047233	29.908	
O	 0.0769417489	 1.4790217153	-0.0476450125	-0.440318
C	 0.0136392935	 0.0793459682	 0.0335261115	 0.148719
C	 0.1226081701	-0.6547381757	 1.4079632674	-0.159466
C	-0.9946971551	 0.0643518025	 2.1725927558	-0.157265
N	-2.1419038972	-0.352220163	 1.2942290094	-0.151252
C	-2.0864412154	-1.8520579709	 1.5164840838	-0.247643
C	-0.7630851995	-1.8042281834	 0.7629181437	 0.381871
O	-0.0440465579	-2.8755710526	 0.2526569236	-0.481563
C	-1.3538548381	-0.5788059842	-0.0271253434	-0.102136
H	 1.0027285152	 1.7426640841	-0.0425915756	 0.284512
H	 0.6595754484	-0.4070376697	-0.7090045466	 0.08323
H	 1.0811284712	-0.8707452525	 1.8778230473	 0.069783
H	-1.1564255084	-0.2827878195	 3.1950367558	 0.096667
H	-0.8783742547	 1.1493716663	 2.1673173724	 0.116685
H	-2.1345729698	-2.1726747854	 2.5619996654	 0.100903
H	-2.8787096015	-2.3430239683	 0.9409885307	 0.096753
H	-0.6388070671	-3.4168990425	-0.2776903553	 0.28404
H	-1.9932339027	-0.6194188688	-0.9071104733	 0.076478
187.0297	269.5854	281.0356	294.1139	326.5312	364.8905	494.9572	522.9734	570.3951	603.2807	686.6377	729.6805	783.9807	846.7187	856.3806	903.6618	923.3013	968.3194	980.7351	1011.6952	1022.4868	1049.936	1088.8064	1110.6687	1150.621	1164.1098	1167.0825	1185.0226	1223.2863	1227.2882	1247.3127	1279.0957	1297.3304	1323.8978	1335.2888	1374.8831	1443.5956	1498.3627	1523.1526	3027.3273	3035.6235	3075.3829	3091.8446	3127.1884	3130.5136	3135.7105	3804.0301	3815.2009
OC1C2CN3CC2(O)C13	O[C@H]1[C@H]2CN3C[C@@]2(O)[C@H]13	
InChI=1S/C6H9NO2/c8-4-3-1-7-2-6(3,9)5(4)7/h3-5,8-9H,1-2H2	InChI=1S/C6H9NO2/c8-4-3-1-7-2-6(3,9)5(4)7/h3-5,8-9H,1-2H2/t3-,4+,5+,6+/m1/s1
