14
gdb 27387	2.0244	1.87391	0.97469	7.1172	68.01	-0.223	-0.0019	0.2211	1111.8986	0.103277	-470.079943	-470.072285	-470.071341	-470.111972	29.463	
N	 0.1214732857	 1.3842883683	 0.1563875002	-0.590153
C	-0.008668305	 0.0077311468	 0.037474907	 0.419467
C	-1.1610422319	-0.6995384968	 0.0124542092	-0.311279
C	-1.1527096447	-2.1632056898	-0.0225992005	 0.379344
O	-2.1661227603	-2.8327496123	-0.0396455597	-0.374326
N	 0.1248081456	-2.7835404266	-0.0523950526	-0.420098
C	 1.1686971148	-2.047551552	-0.027586576	 0.503066
O	 2.4082809832	-2.5678113038	-0.0266592695	-0.412479
N	 1.1932466973	-0.6796682498	-0.0015220646	-0.405387
H	 0.8134315557	 1.7981627943	-0.4564073248	 0.255499
H	-0.7609906309	 1.8707215397	 0.0823025219	 0.267194
H	-2.1201989272	-0.1986191623	 0.0070327297	 0.100097
H	 2.2835360565	-3.5276437178	-0.0350397453	 0.316942
H	 2.0651063513	-0.2084079077	 0.183178855	 0.272114
134.3526	177.3897	221.7686	299.4605	323.816	373.8053	451.3252	505.4864	535.7052	552.6631	606.4229	617.1035	644.0253	699.3475	746.0206	770.4864	845.7289	928.204	1021.0714	1055.856	1137.0968	1204.9042	1219.0791	1270.9427	1342.1824	1463.0927	1546.4368	1639.2572	1665.1284	1738.0101	1781.8839	3218.1898	3541.0489	3637.1689	3645.9253	3772.933
NC1=CC(=O)N=C(O)N1	Nc1cc(=O)nc(O)[nH]1	
InChI=1S/C4H5N3O2/c5-2-1-3(8)7-4(9)6-2/h1H,(H4,5,6,7,8,9)	InChI=1S/C4H5N3O2/c5-2-1-3(8)7-4(9)6-2/h1H,(H4,5,6,7,8,9)
