15
gdb 48489	2.45279	1.53087	1.2098	3.7261	67.53	-0.2593	-0.0407	0.2186	1053.519	0.109672	-457.719497	-457.710797	-457.709853	-457.753888	30.631	
O	-0.8241850285	 1.0140798346	 0.5155601243	-0.230764
C	 0.0965121868	 1.1199912176	-0.2393467674	 0.15574
C	 1.3634086295	 1.9714295333	 0.0044581337	 0.10016
O	 2.4621096735	 1.1200988183	-0.2290229844	-0.263637
C	 3.470983371	 1.9445590718	-0.8115151292	-0.116112
C	 2.6527244392	 2.9014937434	-1.6833999062	-0.092858
O	 1.3795449054	 2.9521971337	-1.0295176461	-0.287204
C	 1.4096701449	 2.6020450554	 1.3264483267	 0.378669
C	 1.4583873862	 3.1111038985	 2.4125417105	-0.437997
H	 0.1416920886	 0.6251082627	-1.2321962341	 0.095736
H	 4.0264675556	 2.4803131741	-0.0313894258	 0.121699
H	 4.1519590131	 1.3019075023	-1.3714944081	 0.129152
H	 3.0758805295	 3.9091888484	-1.7280464965	 0.123795
H	 2.5216351305	 2.5195301537	-2.7023125246	 0.117404
H	 1.4895832746	 3.5594336824	 3.3753788673	 0.206216
48.055	69.1351	132.4834	157.6036	212.7936	310.2916	333.5273	437.0438	514.1065	553.0109	662.9931	672.9248	676.6206	728.4075	797.5112	886.4796	910.1656	956.3351	1025.3737	1035.8401	1056.147	1141.85	1170.5981	1194.1009	1221.895	1250.6379	1367.9915	1379.7083	1392.863	1509.8512	1524.9793	1862.4689	2241.6493	2922.3667	3029.2039	3036.5871	3091.3159	3126.9051	3498.456
O=CC1(OCCO1)C#C	O=CC1(OCCO1)C#C	
InChI=1S/C6H6O3/c1-2-6(5-7)8-3-4-9-6/h1,5H,3-4H2	InChI=1S/C6H6O3/c1-2-6(5-7)8-3-4-9-6/h1,5H,3-4H2
