15
gdb 48927	4.04808	1.56372	1.37889	1.7682	68.05	-0.2382	-0.0431	0.1951	910.5108	0.113701	-416.701658	-416.695263	-416.694319	-416.732606	25.325	
O	 0.032184817	-0.0142441803	 0.2536353295	-0.256281
C	 0.1138670228	 1.1280743114	-0.1273233374	 0.029556
C	 1.3693442346	 1.9183050279	-0.0842109732	 0.237941
N	 2.6606951511	 1.2657691699	 0.2654182014	-0.355839
C	 3.0648074716	 2.629481442	 0.7256435893	-0.053416
C	 2.9868668149	 3.5169287525	-0.5380896725	-0.02081
C	 1.7220776128	 3.0072675289	-1.1276940097	-0.08541
N	 1.6827832688	 4.1740497805	-0.1820967868	-0.181893
C	 1.5987588253	 3.1212059235	 0.9223428347	-0.049696
H	-0.7736920808	 1.6844130898	-0.5015969008	 0.090619
H	 2.4954978611	 0.6603943981	 1.070522162	 0.229872
H	 3.8868885192	 2.731175134	 1.4303263531	 0.091172
H	 3.7657445035	 4.0300609449	-1.0858861091	 0.111905
H	 1.4292444121	 3.0860196758	-2.1663273577	 0.112237
H	 1.0589470258	 3.307217091	 1.8492505574	 0.100043
100.2669	178.2648	264.1219	412.3618	524.6753	560.926	690.6133	764.6797	779.499	807.5537	821.3813	848.5945	853.3146	872.6914	893.6063	932.5035	957.7169	980.7664	1007.9171	1033.4675	1062.8472	1107.2226	1128.6476	1139.1034	1196.3849	1211.8737	1243.9573	1253.8666	1290.2894	1331.2424	1363.433	1427.3631	1810.1227	2891.0017	3133.9192	3151.2946	3201.713	3214.0736	3465.6007
O=CC12NC3C4C1N4C23	O=C[C@@]12N[C@H]3[C@H]4[C@@H]1N4[C@@H]23	
InChI=1S/C6H6N2O/c9-1-6-4-2(7-6)3-5(6)8(3)4/h1-5,7H	InChI=1S/C6H6N2O/c9-1-6-4-2(7-6)3-5(6)8(3)4/h1-5,7H/t2-,3-,4+,5-,6-,8?/m0/s1
