19
gdb 35522	3.09834	1.44087	1.34825	3.4755	78.	-0.2409	0.0309	0.2719	1023.1196	0.164144	-382.089629	-382.082549	-382.081604	-382.121173	28.557	
N	-0.1537323426	-1.1823595564	-0.1916603106	-0.339713
C	-0.0771478607	-0.030822959	-0.1095850223	 0.267472
C	 0.0086624496	 1.4170295054	 0.012803909	-0.154423
C	-0.5737750746	 1.9869344823	 1.3784090119	-0.195655
N	 0.5138380098	 2.784000319	 1.971645043	-0.074152
C	 1.5605776454	 1.8447241147	 2.4548388474	-0.175747
C	 2.2448671563	 1.2671031116	 1.166840134	-0.240903
C	 1.4546054776	 1.9911658878	 0.0590877067	-0.028127
C	 1.1604633355	 3.3387420544	 0.7611949118	-0.190701
H	-0.5333889789	 1.8521557849	-0.8329704221	 0.12168
H	-1.4301575227	 2.6332696204	 1.1713777294	 0.117761
H	-0.8950373733	 1.1975972417	 2.0592757393	 0.130788
H	 2.2729595395	 2.4042891766	 3.0668879622	 0.110589
H	 1.1084188718	 1.0772004184	 3.0862956697	 0.115621
H	 3.3042538744	 1.5339849973	 1.122341559	 0.103611
H	 2.1720855428	 0.1800174665	 1.0923243238	 0.132759
H	 1.9436929404	 2.0235247922	-0.9144883613	 0.082636
H	 0.4747785843	 3.9915874112	 0.2130015957	 0.105861
H	 2.0626951855	 3.9003121909	 1.0176949533	 0.110642
98.1212	159.4888	241.2801	357.5947	433.6707	466.5316	505.6043	559.6676	608.313	762.663	772.7712	804.7444	823.2877	846.916	886.4279	929.1843	951.9545	953.2148	988.2105	1010.9762	1019.1794	1051.3953	1074.3144	1128.2135	1144.0599	1199.3125	1213.7881	1254.296	1281.3853	1292.1952	1296.9745	1308.9025	1313.2149	1339.1906	1341.697	1363.771	1489.4545	1500.8415	1501.3618	1524.4822	2346.8325	3055.1193	3057.2226	3060.1179	3068.3818	3072.4308	3105.6661	3111.8718	3120.0353	3123.3679	3131.0424
N#CC1CN2CCC1C2	N#C[C@H]1CN2CC[C@@H]1C2	
InChI=1S/C7H10N2/c8-3-7-5-9-2-1-6(7)4-9/h6-7H,1-2,4-5H2	InChI=1S/C7H10N2/c8-3-7-5-9-2-1-6(7)4-9/h6-7H,1-2,4-5H2/t6-,7+/m1/s1
