21
gdb 122640	3.82626	0.74617	0.66431	2.7	76.68	-0.2431	0.0578	0.301	1745.3883	0.179983	-461.325895	-461.315474	-461.31453	-461.362982	36.012	
C	 0.0025768767	 1.4673345599	-0.0792983371	-0.384499
C	 0.1703797704	-0.0393409219	 0.0219664359	-0.024306
O	 0.5895199539	-0.5305223211	-1.2339250056	-0.248577
C	 0.7720183802	-1.9277346369	-1.2519853731	-0.054989
C	 1.2866271104	-2.3124216005	-2.6253631661	 0.097428
O	 2.6907524017	-2.0162304737	-2.8225102044	-0.286078
C	 3.026366732	-3.4122422896	-2.9405680812	-0.097518
C	 1.5365872061	-3.8174648286	-2.8707499375	 0.042266
O	 1.1256028955	-4.6344701763	-1.7997074202	-0.422982
H	 0.9476961946	 1.9385262148	-0.3633457408	 0.129414
H	-0.7463144788	 1.7201077163	-0.83534762	 0.12441
H	-0.3190096635	 1.8814075073	 0.8810963984	 0.11183
H	 0.912852272	-0.2948585171	 0.7970928287	 0.085843
H	-0.7795538627	-0.5164206969	 0.3199117117	 0.081701
H	 1.4878858909	-2.2461299512	-0.4791586682	 0.095805
H	-0.1771479297	-2.4556376707	-1.0592693602	 0.093869
H	 0.674538526	-1.8091232337	-3.3834778207	 0.086705
H	 3.5596722461	-3.6318662097	-3.8735230495	 0.098086
H	 3.6125219944	-3.7772014301	-2.0865619573	 0.100171
H	 1.1308170434	-4.1756167281	-3.8246738783	 0.080627
H	 1.3068131407	-5.551933932	-2.0246754645	 0.290794
45.1465	54.1441	78.1278	106.8588	139.7827	204.3912	219.6738	245.9172	313.3583	401.2873	431.6695	469.0863	562.7803	755.5017	822.1548	862.5668	886.706	910.0768	919.9425	1024.4405	1039.0322	1063.2661	1073.7138	1118.1755	1139.03	1155.7529	1169.4356	1183.1578	1189.145	1208.9845	1251.4455	1286.4788	1296.3932	1316.5443	1330.0996	1363.4866	1393.9533	1410.2447	1437.2846	1453.2867	1483.2117	1495.3199	1501.0544	1513.4792	1532.6852	2948.6462	2968.8559	2975.0761	3005.9362	3009.3251	3021.511	3043.6303	3044.6613	3059.7374	3118.4388	3122.1294	3827.3185
CCOCC1OCC1O	CCOC[C@H]1OC[C@H]1O	
InChI=1S/C6H12O3/c1-2-8-4-6-5(7)3-9-6/h5-7H,2-4H2,1H3	InChI=1S/C6H12O3/c1-2-8-4-6-5(7)3-9-6/h5-7H,2-4H2,1H3/t5-,6-/m1/s1
