21
gdb 93577	4.32777	0.90159	0.81845	1.7926	87.2	-0.2314	0.0119	0.2433	1472.8799	0.182913	-387.088896	-387.080087	-387.079143	-387.122723	33.316	
C	 0.039937553	 1.6335786062	-0.0945122763	-0.396838
C	 0.025049257	 0.1059085876	 0.0256635875	-0.000569
C	 0.7452626869	-0.6272671952	-1.138405912	-0.223877
C	 1.3779578666	-1.8908012634	-0.509523722	-0.323433
C	 1.486308062	-1.5181865252	 0.9566055476	 0.358321
C	 0.7521345625	-0.4373501315	 1.2355410093	-0.193962
C	 2.280877307	-2.2889273724	 1.9290263652	-0.034877
C	 2.5259796815	-3.7380285652	 1.796046235	-0.186523
O	 3.5501932587	-2.803828897	 1.4782191543	-0.235094
H	 1.0676082184	 2.0120736233	-0.1236238672	 0.116523
H	-0.4659070508	 1.9599494175	-1.0094766329	 0.11331
H	-0.4685030151	 2.105903185	 0.7528728623	 0.110944
H	-1.0279816625	-0.2159832647	 0.0705634193	 0.076784
H	 0.078525454	-0.8531518747	-1.9749007586	 0.094144
H	 1.5401782207	 0.0221910151	-1.5227817355	 0.103294
H	 0.7291587991	-2.7697538462	-0.6341131776	 0.100806
H	 2.347211702	-2.1525721834	-0.9443857288	 0.119628
H	 0.650733118	 0.0031049672	 2.2231332133	 0.08417
H	 2.3134325361	-1.8718988724	 2.9358614871	 0.08828
H	 2.6903996983	-4.3333801762	 2.693828176	 0.114834
H	 2.1066514065	-4.2806425246	 0.9503368638	 0.114135
65.5872	125.1679	139.02	171.3091	242.2068	274.3559	326.0931	400.7398	497.9934	540.7277	594.9486	627.2317	809.1931	819.469	846.4495	874.8267	884.2498	926.1981	930.7065	966.9475	984.4215	999.2935	1058.6363	1097.6089	1105.4519	1125.1663	1151.074	1168.72	1187.2832	1204.8043	1245.3384	1268.7691	1290.2047	1310.5729	1322.0468	1350.8325	1371.0856	1407.8806	1419.3462	1485.8007	1497.7417	1499.0323	1502.5885	1523.1935	1710.0736	2967.0814	3003.4022	3026.8658	3040.3958	3078.3038	3081.094	3094.0993	3096.7875	3099.6501	3108.4332	3168.47	3174.5476
CC1CCC(=C1)C1CO1	C[C@H]1CCC(=C1)[C@H]1CO1	
InChI=1S/C8H12O/c1-6-2-3-7(4-6)8-5-9-8/h4,6,8H,2-3,5H2,1H3	InChI=1S/C8H12O/c1-6-2-3-7(4-6)8-5-9-8/h4,6,8H,2-3,5H2,1H3/t6-,8+/m0/s1
