20
gdb 120338	3.56356	1.03332	1.00413	2.5845	75.41	-0.2354	0.082	0.3174	1271.1402	0.172356	-440.247516	-440.239144	-440.2382	-440.281131	31.655	
O	-0.0404499444	 1.5629721715	-0.203765441	-0.42287
C	-0.0386102601	 0.2134554483	 0.2104152234	-0.045363
C	-1.4606331961	-0.3150523174	 0.3988701074	-0.168958
N	-2.1856592223	-0.0994147612	-0.8572239935	-0.109448
C	-2.3989331544	-1.1446292298	-1.8518457525	-0.054188
C	-2.3142500828	-2.5969871788	-1.4217437517	-0.110153
O	-3.1028245506	-2.7126005842	-0.2406117638	-0.251677
C	-4.0917617146	-1.6860545506	-0.2336547542	-0.106809
C	-3.5440418475	-0.5589883464	-1.0902616664	-0.054503
H	-0.7488429614	 1.6172057312	-0.8599064527	 0.282889
H	 0.4935790368	-0.4281619451	-0.5138115962	 0.078237
H	 0.5077967723	 0.1578662861	 1.1582900788	 0.102725
H	-1.4503052373	-1.3578478802	 0.7382604757	 0.116753
H	-1.9623281322	 0.2865231219	 1.1654734545	 0.109801
H	-2.1711978749	-0.892743018	-2.8835786671	 0.099271
H	-2.7001977769	-3.236229513	-2.2320061652	 0.102556
H	-1.3026751947	-2.9373373864	-1.1731339795	 0.116048
H	-5.0432208745	-2.0378643731	-0.6641767092	 0.100596
H	-4.2710923814	-1.4125376415	 0.8118290214	 0.116344
H	-4.240811843	 0.1621893568	-1.5089812383	 0.09875
49.6854	125.7308	163.5644	207.4435	232.3218	286.5329	437.1361	480.8365	502.42	544.0202	694.0676	736.3315	775.5595	828.5985	881.4296	905.728	924.7327	942.0484	987.5806	1025.8791	1032.7154	1039.8127	1095.6453	1112.6576	1127.0537	1132.1632	1145.0277	1222.4809	1231.1196	1244.033	1274.5754	1305.379	1315.2907	1351.1823	1366.8273	1376.3191	1382.6295	1434.7629	1446.3427	1499.0081	1508.8932	1510.83	1519.8826	2949.7375	2975.9508	2982.6199	3027.2263	3059.1127	3065.7135	3067.0189	3076.9184	3144.1494	3155.4279	3745.4074
OCCN1C2COCC12	OCCN1[C@H]2COC[C@@H]12	
InChI=1S/C6H11NO2/c8-2-1-7-5-3-9-4-6(5)7/h5-6,8H,1-4H2	InChI=1S/C6H11NO2/c8-2-1-7-5-3-9-4-6(5)7/h5-6,8H,1-4H2/t5-,6+,7?
