16
gdb 52991	3.24673	1.01266	0.83947	3.8244	82.59	-0.2303	-0.0198	0.2104	1387.5281	0.122531	-400.696846	-400.687945	-400.687001	-400.732184	31.548	
C	 0.0047844696	 1.5080654515	-0.0585528296	-0.511151
C	-0.0297876696	 0.0553043551	-0.013633763	 0.237557
C	-0.0548248152	-1.1498414694	 0.0237720252	-0.212736
C	-0.0419395524	-2.5632993675	 0.1089630942	 0.134287
N	-0.364546691	-3.4481951144	-1.0866469003	-0.363719
C	-1.1574165872	-3.5964475811	 0.1288183878	-0.123753
C	-0.3616709752	-4.5524235351	 1.0239231906	-0.338879
C	 0.7653981947	-3.4784642782	 1.0289572503	 0.363682
O	 1.7685157392	-3.3373423403	 1.6575979624	-0.289045
H	 0.9064294128	 1.8899507466	 0.43253239	 0.160804
H	 0.0086873978	 1.8744838838	-1.090987531	 0.15353
H	-0.8617387179	 1.9455986132	 0.4494915795	 0.152353
H	-0.8708284685	-2.836180115	-1.7284183308	 0.24442
H	-2.2194018345	-3.3920151357	 0.1601069098	 0.121105
H	-0.7651123345	-4.6723947499	 2.0332820583	 0.134492
H	-0.1243220482	-5.5257822437	 0.5905471064	 0.137053
21.6449	79.1885	102.4619	146.0352	267.9509	296.7202	382.2778	418.0194	466.1713	508.2792	572.1093	595.0542	656.222	787.0185	823.0515	864.4376	951.518	973.6204	991.3212	1024.9711	1050.1468	1053.4716	1079.2757	1109.9513	1175.0219	1211.9703	1258.7989	1338.257	1405.4131	1423.5494	1448.0027	1474.1093	1475.8645	1901.8049	2360.751	3028.1912	3070.9774	3089.2768	3093.0799	3133.3641	3211.7663	3463.6679
CC#CC12NC1CC2=O	CC#C[C@]12N[C@H]1CC2=O	
InChI=1S/C7H7NO/c1-2-3-7-5(8-7)4-6(7)9/h5,8H,4H2,1H3	InChI=1S/C7H7NO/c1-2-3-7-5(8-7)4-6(7)9/h5,8H,4H2,1H3/t5-,7-/m0/s1
