18
gdb 37409	3.60075	1.81626	1.6949	1.5541	72.79	-0.2287	0.0853	0.3141	856.6364	0.151869	-401.882723	-401.876962	-401.876018	-401.912494	25.586	
C	 0.0077630217	 1.4657481712	-0.1508765248	-0.26288
C	 1.2955139304	 0.7463010323	-0.0438337891	-0.036891
C	 1.9587861089	 0.3974786107	 1.2677103849	-0.046054
C	 1.2969313725	 0.621079497	 2.6833149378	 0.038627
C	-0.2179598392	 0.4042028652	 2.4771138969	-0.22836
C	-0.0741301145	-0.6120274612	 1.3193390817	-0.027403
C	 1.4302502704	-1.0086878505	 1.628805469	 0.093333
O	 1.6703066862	-0.7526354931	 3.0276239089	-0.295265
N	 0.0032691266	-0.0055991624	-0.0455411455	-0.118753
H	-0.3278425303	 2.089585547	 0.6677195851	 0.115808
H	-0.3065019043	 1.824449301	-1.1277132503	 0.118189
H	 1.9176727212	 0.6366553498	-0.930273347	 0.093749
H	 3.0413573813	 0.5065565018	 1.3032016166	 0.084927
H	 1.6496176241	 1.3681304194	 3.3942847168	 0.08329
H	-0.6181748265	-0.0677965924	 3.3772856752	 0.112483
H	-0.823657575	 1.2801473215	 2.2533580074	 0.104526
H	-0.8014090648	-1.4225031062	 1.3122624635	 0.08097
H	 1.8246787111	-1.951555481	 1.252376563	 0.089704
214.9912	369.1058	468.1812	501.6492	557.3148	579.4409	652.3857	733.8365	755.7162	773.6297	815.5877	857.786	868.9721	889.6928	921.8762	930.9639	952.198	971.6859	1002.3769	1037.9771	1052.7678	1062.4268	1085.6563	1113.9871	1121.6065	1152.8766	1158.6662	1189.7941	1206.9941	1235.9307	1257.1139	1274.9086	1301.4493	1307.6716	1325.3221	1351.8251	1398.1773	1478.5079	1523.6468	3084.0796	3114.9952	3120.821	3122.7026	3125.4259	3133.3891	3143.5572	3148.7222	3214.5228
C1C2C3C4CC(C3O4)N12	C1[C@H]2[C@H]3[C@H]4C[C@H]([C@@H]3O4)N12	
InChI=1S/C7H9NO/c1-3-7-6(5(1)9-7)4-2-8(3)4/h3-7H,1-2H2	InChI=1S/C7H9NO/c1-3-7-6(5(1)9-7)4-2-8(3)4/h3-7H,1-2H2/t3-,4+,5-,6+,7+,8?/m1/s1
