16
gdb 9078	4.96611	0.87346	0.76846	2.9258	66.88	-0.2589	-0.0399	0.219	1394.8284	0.12839	-379.926544	-379.91742	-379.916476	-379.961405	30.901	
C	 0.1457619369	 1.4994079745	 0.2008578319	-0.395089
C	 0.0194762108	-0.0205938572	-0.0346064043	-0.09818
N	-1.3367740035	-0.5663967617	 0.0118994453	-0.301577
C	-1.9873793464	-0.5280488008	 1.3118093698	-0.234546
C	-3.1764295781	-1.4804979648	 1.3356068792	 0.151512
O	-4.1707616309	-1.2977700544	 1.9851917102	-0.230031
C	 0.6226353445	-0.3781564888	-1.3308817933	 0.278976
N	 1.0946192376	-0.6271565327	-2.3552664674	-0.311867
H	 1.1918880969	 1.8143822	 0.1569501516	 0.144168
H	-0.4109344559	 2.0527112614	-0.5612798501	 0.136016
H	-0.252160995	 1.7598534969	 1.1848607751	 0.132805
H	 0.5973699701	-0.5437442722	 0.7388323523	 0.136094
H	-1.9118702734	-0.1209625092	-0.6959135587	 0.235847
H	-1.2761713593	-0.9088668532	 2.0605588737	 0.137327
H	-2.324615984	 0.4591475653	 1.6611596728	 0.122273
H	-3.0355461005	-2.3801805431	 0.696725332	 0.09627
61.2608	69.9616	88.5165	151.8912	201.7733	232.5949	299.8024	326.3459	407.5195	497.6789	563.1487	599.3393	714.3045	778.629	846.9683	920.0557	1021.6497	1065.7448	1072.0372	1099.756	1145.0848	1181.5142	1250.6437	1316.7677	1327.0419	1366.176	1400.8887	1408.0055	1471.3324	1489.2023	1491.5111	1510.0331	1841.954	2363.8798	2899.0806	2989.1827	3029.244	3031.244	3046.8658	3124.2172	3129.7795	3524.1963
CC(NCC=O)C#N	C[C@@H](NCC=O)C#N	
InChI=1S/C5H8N2O/c1-5(4-6)7-2-3-8/h3,5,7H,2H2,1H3	InChI=1S/C5H8N2O/c1-5(4-6)7-2-3-8/h3,5,7H,2H2,1H3/t5-/m1/s1
