19
gdb 113338	2.15449	1.1946	0.99563	2.0833	79.39	-0.236	0.0398	0.2759	1299.1132	0.155902	-422.958319	-422.948122	-422.947178	-422.993703	36.842	
C	-0.3368700133	 1.0678545479	-0.1625413789	-0.241481
O	 0.5143063235	-0.0334090221	 0.1070435625	-0.23073
C	 0.9632357418	-0.6688807555	-1.0392148051	 0.08417
C	 1.4982779997	-2.0460541264	-0.8852027469	-0.348646
C	 0.1678779369	-1.8513983923	-1.6191397323	 0.05673
C	-1.0931446169	-2.3239006299	-0.9057981427	-0.130942
O	-1.2461184707	-3.7306031801	-0.9464972813	-0.41803
C	 0.1475175361	-2.0218103167	-3.0445633528	 0.266338
C	 0.0955321574	-2.1869261692	-4.2365851682	-0.461211
H	 0.1711315306	 1.8230613125	-0.7795385246	 0.114864
H	-1.2545269096	 0.7551939141	-0.6791208137	 0.117519
H	-0.5986932709	 1.5114494467	 0.8001849712	 0.133502
H	 1.4301286956	-0.010117904	-1.7723823282	 0.098212
H	 2.3674826953	-2.3352444122	-1.4631134039	 0.127798
H	 1.4240671933	-2.4929717161	 0.0998055927	 0.139412
H	-1.0344673913	-2.047100564	 0.1491730801	 0.120185
H	-1.9672356765	-1.8169257937	-1.3423552721	 0.090266
H	-1.2455355703	-3.9906373238	-1.8747638861	 0.28719
H	 0.0612053494	-2.3192796349	-5.2895573395	 0.194855
69.4226	90.6518	111.6714	148.0851	162.8478	209.0754	248.8562	329.6931	347.2381	400.0519	476.6718	481.7986	541.6488	576.384	615.6285	655.1813	707.3366	808.9491	895.0053	932.7356	958.8273	1031.2272	1050.0528	1064.545	1078.2295	1127.7028	1164.0613	1182.8664	1194.6207	1251.0979	1282.7775	1302.2203	1379.173	1405.6255	1422.175	1468.9982	1486.7638	1491.2955	1504.4219	1512.6737	2223.0844	2985.2102	2993.1315	3047.9766	3097.6991	3107.1889	3127.6738	3145.4207	3239.2353	3501.9341	3796.2828
COC1CC1(CO)C#C	CO[C@H]1C[C@]1(CO)C#C	
InChI=1S/C7H10O2/c1-3-7(5-8)4-6(7)9-2/h1,6,8H,4-5H2,2H3	InChI=1S/C7H10O2/c1-3-7(5-8)4-6(7)9-2/h1,6,8H,4-5H2,2H3/t6-,7-/m0/s1
