20
gdb 17653	3.3238	1.67902	1.45634	1.6602	74.16	-0.2622	0.0854	0.3476	966.2785	0.176858	-348.975712	-348.967615	-348.966671	-349.007976	31.004	
C	 0.0233716726	 1.6517624085	 0.2210936512	-0.450646
C	-0.0352393822	 0.1377951094	 0.0061010184	 0.328884
C	 0.8870189239	-0.3542937349	-1.1529084991	-0.265114
C	 1.9649610317	-0.7390173594	-0.1049788485	-0.215334
C	 0.8817798424	-0.6492745063	 1.0017744108	-0.257944
C	-1.4754815012	-0.314972525	-0.0291190919	 0.020694
C	-2.2351246834	-0.4913656111	-1.2726823052	-0.186215
O	-1.7490677036	-1.621414036	-0.5412747708	-0.24287
H	 1.058773421	 2.0001035005	 0.2908095864	 0.117314
H	-0.4556498452	 2.1873112394	-0.6062861101	 0.114429
H	-0.4851526194	 1.9402327963	 1.1486761236	 0.113296
H	 0.4651578837	-1.2375091768	-1.6381886542	 0.117927
H	 1.1587827771	 0.3828707778	-1.9134066817	 0.088102
H	 2.4588540663	-1.704007544	-0.2363613506	 0.099674
H	 2.736512931	 0.0279094847	 0.0029213371	 0.10032
H	 1.1470039238	-0.1414798877	 1.9332334483	 0.090964
H	 0.4601916481	-1.6292220579	 1.2405694062	 0.11344
H	-2.0444098709	-0.0764646136	 0.8735497513	 0.085623
H	-3.3168921058	-0.3662554754	-1.27473322	 0.114468
H	-1.7454111698	-0.3140246584	-2.2291997513	 0.11299
94.2519	133.8	202.2062	240.6515	254.9456	304.12	342.3563	458.008	509.1408	608.4026	707.0142	796.886	843.4834	874.1325	883.0637	910.0673	929.7246	945.528	955.6659	996.4271	1007.8522	1077.849	1097.1043	1155.7489	1168.6048	1172.6608	1194.6896	1210.711	1241.9305	1266.7045	1273.6971	1277.8772	1300.1555	1325.6078	1409.0429	1430.7421	1472.1535	1482.4164	1496.6094	1498.4616	1506.3079	1527.8384	3022.5513	3053.1065	3055.5726	3064.7528	3072.0776	3084.9406	3087.3663	3098.4014	3099.8523	3112.8416	3125.5191	3170.0151
CC1(CCC1)C1CO1	CC1(CCC1)[C@H]1CO1	
InChI=1S/C7H12O/c1-7(3-2-4-7)6-5-8-6/h6H,2-5H2,1H3	InChI=1S/C7H12O/c1-7(3-2-4-7)6-5-8-6/h6H,2-5H2,1H3/t6-/m1/s1
