20
gdb 104574	2.28035	1.24184	1.05293	2.606	76.14	-0.2505	0.0235	0.274	1269.652	0.168603	-440.274584	-440.264527	-440.263583	-440.309998	36.54	
C	 1.85253691	 0.8005094474	-2.2782050806	-0.458944
C	 1.5701935924	-0.6762334731	-2.1607724765	 0.369689
N	 2.2224837408	-1.6482678277	-2.6476872602	-0.502826
O	 0.4490565478	-0.8625889546	-1.4156774012	-0.301092
C	-0.0259270988	-2.1916977792	-1.2061911297	 0.438557
C	 0.7455093967	-2.9272869817	-0.1370451188	-0.131412
O	 0.6501461741	-2.2873294304	 1.1272181333	-0.424518
C	-1.5190021776	-2.3020757183	-1.2768833119	-0.317898
C	-0.6521223647	-2.9004837032	-2.3657454009	-0.301867
H	 2.7492668583	 0.9811593496	-2.872805568	 0.128345
H	 1.0032168935	 1.3106548755	-2.7427783406	 0.14773
H	 1.987135811	 1.2406360762	-1.2852842423	 0.144464
H	 3.0229966688	-1.3074284669	-3.1755455861	 0.220784
H	 0.3178506224	-3.9269006802	-0.0115777126	 0.104422
H	 1.7896547375	-3.0431394835	-0.4547401674	 0.115993
H	 0.9100189964	-1.369705091	 0.9935856868	 0.2827
H	-2.0091034899	-2.9590716206	-0.5673336765	 0.122193
H	-2.0665516247	-1.397783609	-1.5158217355	 0.119992
H	-0.6246634512	-2.3964247468	-3.3239096182	 0.12356
H	-0.5401478128	-3.9776704225	-2.423211403	 0.120126
66.8036	76.5144	116.9536	120.8373	181.55	210.1144	293.4998	315.1403	360.1285	403.8356	410.5938	530.6583	576.3568	627.5093	753.6983	766.2134	856.1482	869.3267	910.8463	914.411	962.3091	999.7379	1039.534	1051.856	1062.3823	1067.76	1069.6513	1079.0771	1098.0054	1182.611	1184.7982	1286.4909	1348.847	1367.3361	1369.2394	1411.1711	1432.8464	1458.671	1470.6243	1481.2576	1497.7156	1507.3167	1729.5325	3027.1223	3048.2386	3085.8311	3110.8949	3140.5435	3144.3735	3145.077	3223.8931	3237.3932	3511.1759	3813.6051
CC(=N)OC1(CO)CC1	C[C]([NH])OC1(CO)CC1	
InChI=1S/C6H11NO2/c1-5(7)9-6(4-8)2-3-6/h7-8H,2-4H2,1H3	InChI=1S/C6H11NO2/c1-5(7)9-6(4-8)2-3-6/h7-8H,2-4H2,1H3
