18
gdb 25999	3.57762	1.00837	0.92067	3.1544	78.84	-0.207	-0.0013	0.2057	1309.9872	0.147702	-402.00756	-401.998617	-401.997673	-402.043147	32.301	
C	 0.412063374	 0.5576041427	 0.7326614947	-0.474444
C	-0.2183834948	 0.0910041825	-0.5669045998	 0.392808
O	 0.2341074622	 0.3876289475	-1.6485490794	-0.311381
C	-1.4525452728	-0.8064872395	-0.4375099005	-0.398648
C	-1.0419696105	-2.209822607	-0.0688764606	 0.258895
C	-0.269207483	-3.056708088	-0.8377584138	-0.165493
N	-0.1060508563	-4.2265498547	-0.1427613119	-0.227912
C	-0.7549461484	-4.1495868915	 1.0620342943	-0.072961
C	-1.3429946085	-2.9085064476	 1.1376383848	-0.255411
H	 1.375042767	 1.0298443368	 0.5348527063	 0.136896
H	-0.2517092346	 1.2829427303	 1.2190958983	 0.135606
H	 0.5333857597	-0.2812922093	 1.4247578438	 0.145658
H	-2.1226574408	-0.41080513	 0.3334622281	 0.104962
H	-1.9771124692	-0.7800840177	-1.3969043176	 0.122226
H	 0.1718361439	-2.9138709405	-1.8112293482	 0.132939
H	 0.4116026509	-5.0228183806	-0.470663293	 0.263953
H	-0.7492821636	-4.9777039311	 1.7520610188	 0.120335
H	-1.9363068651	-2.5363553721	 1.9595980758	 0.091973
24.9486	45.6748	100.1467	131.3485	275.6574	306.8199	383.088	493.6667	501.3561	548.6643	643.0212	647.7811	690.2191	722.2889	773.5659	799.6038	830.3639	879.7671	904.784	970.0674	1015.1195	1040.3975	1082.5323	1094.5995	1149.2493	1165.6912	1239.6974	1270.7444	1299.2856	1314.6305	1377.5312	1414.3192	1461.9733	1463.835	1473.6029	1477.2929	1520.1987	1597.1127	1811.3726	3034.5608	3043.7897	3097.035	3101.1988	3152.5352	3240.6362	3264.8674	3271.4805	3685.4375
CC(=O)CC1=CNC=C1	CC(=O)Cc1c[nH]cc1	
InChI=1S/C7H9NO/c1-6(9)4-7-2-3-8-5-7/h2-3,5,8H,4H2,1H3	InChI=1S/C7H9NO/c1-6(9)4-7-2-3-8-5-7/h2-3,5,8H,4H2,1H3
