14
gdb 127522	3.24631	1.32202	0.94505	2.9852	74.65	-0.2309	-0.0352	0.1957	1159.2325	0.101147	-432.865158	-432.856933	-432.855989	-432.898081	29.912	
C	-0.0112947477	 1.4116922173	-0.0164323723	-0.328477
N	 0.0396557841	-0.0334670349	 0.0089826751	-0.027906
N	 0.1263840346	-0.7371553662	-1.148101884	-0.30057
C	 0.1479985394	-1.986184799	-0.7038443224	 0.40155
O	 0.2306292983	-3.0184606178	-1.5504654932	-0.415223
N	 0.0826014227	-2.1425651938	 0.636350239	-0.412075
C	 0.0142308984	-0.8804874283	 1.0665795259	 0.222804
C	-0.0724886963	-0.4506415505	 2.4098334665	 0.270684
C	-0.1465965821	-0.0699390865	 3.5489743552	-0.399545
H	 0.890987628	 1.8074878011	-0.489281975	 0.15678
H	-0.8848355474	 1.7431134482	-0.583405051	 0.156781
H	-0.0788460791	 1.7723689469	 1.0100967785	 0.156822
H	 0.2309600327	-3.8183920508	-1.0107308366	 0.312745
H	-0.2117997155	 0.2534493945	 4.5588748743	 0.20563
98.8971	145.5513	146.2944	180.6504	303.1868	343.3499	416.7511	422.4046	469.9324	578.4108	600.503	601.9107	668.3166	690.9364	716.4891	771.0673	843.3294	1048.0103	1090.1221	1154.4581	1183.4195	1226.2227	1328.042	1412.8791	1450.0776	1472.8294	1476.1591	1507.3391	1542.6186	1616.4536	2239.1722	3056.175	3124.1523	3162.1224	3498.1399	3812.2376
CN1N=C(O)N=C1C#C	Cn1nc(O)nc1C#C	
InChI=1S/C5H5N3O/c1-3-4-6-5(9)7-8(4)2/h1H,2H3,(H,7,9)	InChI=1S/C5H5N3O/c1-3-4-6-5(9)7-8(4)2/h1H,2H3,(H,7,9)
