20
gdb 56532	2.26156	1.29553	1.09411	2.9953	79.08	-0.2676	-0.0388	0.2289	1212.2376	0.167551	-403.18503	-403.174536	-403.173592	-403.220135	37.89	
C	 0.0640056502	 1.4905727899	 0.1249704874	-0.419967
C	 0.0825089655	-0.0431341404	-0.0499655315	-0.146865
C	-1.2699683405	-0.5770474344	 0.1418867118	 0.277193
N	-2.3434486871	-0.9841905522	 0.2788133842	-0.339824
C	 0.6789887932	-0.5436911888	-1.4011402013	 0.141812
C	 0.5981855959	-2.0873731428	-1.4930522559	-0.434716
C	-0.0096979599	 0.0768625189	-2.6304019701	-0.440022
C	 2.1690444712	-0.2225268216	-1.4491240419	 0.151235
O	 2.8404480644	 0.1456844864	-0.5201996454	-0.260486
H	 1.0726604978	 1.8887086181	 0.0085426943	 0.148329
H	-0.6009577743	 1.9696301365	-0.5972322042	 0.134875
H	-0.2928818067	 1.7455420144	 1.1257427001	 0.139372
H	 0.7153452595	-0.4598505463	 0.7419677634	 0.14049
H	-0.4448132231	-2.4078225043	-1.5590901483	 0.156156
H	 1.1210328886	-2.4505612754	-2.3836660714	 0.123434
H	 1.0499874318	-2.5614009098	-0.6162128739	 0.134488
H	 0.0910778202	 1.1651724007	-2.6571626449	 0.130768
H	 0.4247602848	-0.3213014632	-3.5528533776	 0.125443
H	-1.0757497369	-0.1686141741	-2.6307434926	 0.148926
H	 2.6251016756	-0.3987512218	-2.4509727723	 0.089356
68.348	103.4414	147.1817	201.5638	210.5903	219.5928	244.5434	278.0169	282.3451	329.8909	349.4948	373.6116	426.9581	543.6894	580.2381	628.9777	717.1471	880.8411	890.7942	933.1875	952.9552	969.1483	1018.7732	1051.6011	1086.3182	1110.5211	1190.7243	1216.307	1257.0949	1322.398	1333.4123	1396.9944	1407.5365	1410.5824	1430.9821	1483.8996	1486.6971	1497.7993	1503.3732	1506.1601	1515.9048	1826.5185	2351.9745	2865.6582	3037.2377	3041.8506	3052.3247	3062.429	3107.554	3110.9409	3120.0713	3123.188	3131.8805	3155.0862
CC(C#N)C(C)(C)C=O	C[C@@H](C#N)C(C)(C)C=O	
InChI=1S/C7H11NO/c1-6(4-8)7(2,3)5-9/h5-6H,1-3H3	InChI=1S/C7H11NO/c1-6(4-8)7(2,3)5-9/h5-6H,1-3H3/t6-/m0/s1
