17
gdb 37019	3.36054	1.79665	1.48323	1.9113	76.26	-0.2369	-0.0109	0.226	914.9558	0.137615	-384.681842	-384.675314	-384.67437	-384.71225	27.56	
C	-0.0376919388	 1.5786903134	 0.0508265085	-0.366928
C	 1.4145472724	 2.0187744742	 0.1961047666	-0.065407
C	 2.282621726	 1.0183573199	 0.0024729726	-0.173646
C	 1.536055481	-0.2441640786	-0.2532781313	 0.319781
O	 0.6886314397	-0.6414046277	 0.8755624231	-0.335012
C	 0.0996697633	 0.0835025849	-0.2061221288	 0.348882
C	-0.6207173766	-0.7939595078	-1.2217901695	-0.366928
C	 0.5125815959	-1.6518164108	-1.7726912921	-0.065407
C	 1.7054670125	-1.3303999298	-1.2573304638	-0.173647
H	-0.6216711311	 1.7942542035	 0.9533151852	 0.124819
H	-0.5354402563	 2.0901493385	-0.7830207137	 0.112183
H	 1.6838175424	 3.0331890475	 0.4707223229	 0.100488
H	 3.3614697664	 1.0936893037	 0.0546835282	 0.101666
H	-1.407437068	-1.4034743381	-0.7618448003	 0.12482
H	-1.0972882896	-0.1963013986	-2.0094001046	 0.112182
H	 0.334215773	-2.4590779036	-2.4751676732	 0.100488
H	 2.6499958677	-1.8016858106	-1.4983053497	 0.101666
215.6772	221.4928	336.6562	379.8935	446.9471	507.9465	564.6504	623.9664	630.0192	710.5119	732.1717	788.2029	833.289	837.3742	892.8605	922.5791	926.715	933.7838	950.3232	955.89	977.682	1030.8709	1116.9404	1128.1688	1148.0112	1185.5012	1209.6472	1232.4508	1287.6057	1332.7735	1345.5724	1395.0663	1397.5032	1456.6244	1464.1794	1638.497	1653.6852	3025.8363	3029.7486	3063.9032	3066.9505	3186.0531	3186.0837	3216.9955	3218.8289
C1C=CC23OC12CC=C3	C1C=C[C@@]23O[C@@]12CC=C3	
InChI=1S/C8H8O/c1-3-7-5-2-6-8(7,4-1)9-7/h1-3,5H,4,6H2	InChI=1S/C8H8O/c1-3-7-5-2-6-8(7,4-1)9-7/h1-3,5H,4,6H2/t7-,8+
