21
gdb 116070	2.59066	1.21009	0.86456	4.2819	80.01	-0.2335	0.0597	0.2933	1368.9996	0.18505	-420.471915	-420.462737	-420.461793	-420.506152	34.448	
C	-0.0599965992	 1.5484074168	-0.0921425513	-0.4019
C	-0.0296277395	 0.0194448873	 0.0010818887	-0.180223
C	 0.7356788811	-0.5260393691	 1.2142309293	 0.063627
C	 0.6459741303	-2.0514258854	 1.3076755897	-0.201783
C	 1.5250850777	-2.5702166525	 2.4436288898	-0.173333
N	 2.8765064788	-2.0660168281	 2.2710922327	-0.336378
C	 3.17696377	-0.8087588009	 1.7914108569	 0.433471
O	 4.2926469831	-0.3246812821	 1.8831417878	-0.418395
N	 2.1452379885	-0.1593151	 1.1431986661	-0.348599
H	 0.9372412532	 1.9732752985	-0.2491948386	 0.121847
H	-0.6782861372	 1.8727193565	-0.934273525	 0.122329
H	-0.4761642183	 1.9950394218	 0.817698566	 0.119601
H	-1.0584835396	-0.3565951572	 0.0594939203	 0.098443
H	 0.4131620872	-0.4025503149	-0.9092796552	 0.107021
H	 0.2729464128	-0.099290389	 2.1227230502	 0.07144
H	-0.3929825991	-2.3506089862	 1.4745397411	 0.103133
H	 0.9781232086	-2.4902115291	 0.3599676238	 0.115204
H	 1.0957266987	-2.2676513556	 3.4127377886	 0.100905
H	 1.5517279912	-3.6650638814	 2.4333842219	 0.110577
H	 3.6180460771	-2.453658126	 2.8319092911	 0.247991
H	 2.3809225146	 0.7962580966	 0.9276706861	 0.245021
78.2173	89.4572	132.0932	182.147	219.2309	270.2706	358.1039	428.5055	455.6379	463.85	500.3252	558.5477	565.6982	672.7344	762.8741	778.1489	849.7276	898.3636	932.564	973.3898	997.8209	1026.9503	1066.4604	1092.0854	1150.9793	1160.0772	1187.3475	1210.3148	1253.6956	1293.4974	1318.8424	1347.2439	1370.8864	1388.928	1392.7383	1416.0043	1432.3857	1455.5747	1472.5169	1479.4106	1487.1933	1500.8878	1510.2779	1530.292	1801.3168	2928.0833	2966.9074	3025.5983	3032.505	3043.2811	3061.4396	3064.2412	3096.9686	3100.2646	3106.7717	3642.0635	3645.9235
CCC1CCNC(=O)N1	CC[C@H]1CCNC(=O)N1	
InChI=1S/C6H12N2O/c1-2-5-3-4-7-6(9)8-5/h5H,2-4H2,1H3,(H2,7,8,9)	InChI=1S/C6H12N2O/c1-2-5-3-4-7-6(9)8-5/h5H,2-4H2,1H3,(H2,7,8,9)/t5-/m0/s1
