16
gdb 49722	2.39296	1.72624	1.22414	2.2788	69.86	-0.2485	-0.042	0.2065	1017.9983	0.124178	-437.878163	-437.870403	-437.869459	-437.910985	28.332	
O	-0.4401478197	 0.446614576	-0.5864831951	-0.241327
C	 0.2859423226	 0.8385098386	 0.2916729061	 0.151274
C	 1.3419502868	 1.8978089415	 0.1249388765	-0.263217
C	 1.4068096922	 2.8128762163	-1.1165193866	 0.010081
C	 0.1003271313	 3.3201113221	-1.7927676965	-0.25321
C	 0.2386859745	 4.6257300953	-0.9527810432	-0.187885
N	 1.4057654755	 4.0259191129	-0.2154414218	-0.138803
C	 1.0952051152	 3.2324933821	 0.9095003796	 0.369719
O	 0.6863862538	 3.5115500863	 1.9968038412	-0.311184
H	 0.2160185001	 0.438702243	 1.3259972443	 0.105632
H	 2.3105876129	 1.458054684	 0.3932124298	 0.136133
H	 2.2752381416	 2.6936861034	-1.7656164776	 0.095626
H	 0.1677071716	 3.4474248172	-2.874045206	 0.118685
H	-0.778281183	 2.7188361154	-1.5620400539	 0.145039
H	 0.5455941594	 5.5056536036	-1.521956948	 0.126094
H	-0.5898727048	 4.8939486521	-0.2935227987	 0.137345
84.0081	110.7533	169.3425	199.8636	227.0939	345.3765	472.4319	603.3458	633.0688	732.1583	735.1972	785.8795	797.2988	866.1206	901.9193	944.961	976.4103	994.8769	1010.0423	1058.5101	1088.9443	1134.9685	1161.1302	1181.7789	1213.1964	1235.6996	1257.0473	1303.2094	1312.9241	1344.048	1421.0092	1489.6129	1509.8588	1814.8449	1885.8944	2906.9989	3049.0948	3070.7102	3093.2531	3102.7284	3123.6854	3158.5277
O=CC1C2CCN2C1=O	O=C[C@H]1[C@H]2CCN2C1=O	
InChI=1S/C6H7NO2/c8-3-4-5-1-2-7(5)6(4)9/h3-5H,1-2H2	InChI=1S/C6H7NO2/c8-3-4-5-1-2-7(5)6(4)9/h3-5H,1-2H2/t4-,5+/m0/s1
