13
gdb 25518	5.32365	0.98962	0.85621	1.3441	68.04	-0.2679	-0.0632	0.2047	1238.1403	0.090563	-452.806583	-452.799462	-452.798518	-452.838965	25.297	
O	 2.4715419564	 0.0923542746	 0.0010097176	-0.242345
C	 2.260031596	 1.2281685751	 0.2773908213	 0.158069
O	 1.2830118368	 1.9531437199	-0.3501008605	-0.223586
C	 1.1653230695	 3.2930070073	-0.0543921489	 0.28111
C	-0.0830053232	 3.8057228906	 0.2858615094	-0.039105
N	-0.2591423041	 5.1004976154	 0.5377694734	-0.238153
C	 0.8274607165	 5.8727803516	 0.4533556853	 0.08177
N	 2.0607899564	 5.4867143448	 0.1282225897	-0.233466
C	 2.2253147779	 4.1900310333	-0.1368819301	-0.058696
H	 2.7873490184	 1.8164277107	 1.0486120257	 0.105252
H	-0.9465932092	 3.1479091479	 0.3459363401	 0.141871
H	 0.6896086163	 6.9288884898	 0.6675189409	 0.132543
H	 3.2188210023	 3.859776439	-0.432903614	 0.134738
72.1088	130.0761	162.8101	281.5953	397.628	430.4579	451.4247	542.9138	627.2742	716.6487	751.1891	886.4469	940.5881	988.0785	1012.2869	1040.5586	1052.2108	1102.7098	1149.3637	1212.7368	1241.3672	1272.3301	1363.3024	1414.0924	1451.2407	1468.0615	1596.4188	1616.3346	1883.0477	2991.8955	3155.5554	3168.9114	3181.0556
O=COC1=CN=CN=C1	O=COc1cncnc1	
InChI=1S/C5H4N2O2/c8-4-9-5-1-6-3-7-2-5/h1-4H	InChI=1S/C5H4N2O2/c8-4-9-5-1-6-3-7-2-5/h1-4H
