19
gdb 106647	2.70697	1.30268	1.04982	1.8704	78.4	-0.2372	0.0229	0.2601	1217.5694	0.158872	-419.184232	-419.175106	-419.174162	-419.218074	34.388	
C	 0.0042354221	 1.5067371543	-0.0924119179	-0.37932
C	-0.0407107781	-0.0022437023	 0.1867768345	-0.288746
C	-1.4069612658	-0.5822903474	 0.0361360006	 0.448371
C	-2.1377397901	-0.9994315566	-1.1922478151	-0.3646
C	-1.9574423727	-2.0019216866	-0.0440115237	 0.099606
N	-1.3075732446	-3.2416362253	-0.2541949299	-0.598065
C	-2.8471926811	-1.5642865422	 1.0807710048	 0.385013
N	-3.632150036	-2.1464428938	 1.866464615	-0.564742
O	-2.4099663373	-0.24086845	 1.0502514834	-0.314439
H	 1.0169528869	 1.8962271406	 0.0459524655	 0.115646
H	-0.3078888381	 1.7263730132	-1.1181772388	 0.120972
H	-0.6632483658	 2.0467291871	 0.585351981	 0.135893
H	 0.6263342538	-0.5382631582	-0.4980710154	 0.119691
H	 0.3165696863	-0.2055641927	 1.2033410657	 0.112645
H	-3.1145252935	-0.5841910978	-1.4194240783	 0.124759
H	-1.5141433699	-1.2388305555	-2.0485466984	 0.130424
H	-1.0616767845	-3.672860786	 0.6314288043	 0.244633
H	-1.9154223829	-3.8908124064	-0.7443807836	 0.244016
H	-4.0064968286	-1.5004275343	 2.5635914065	 0.228243
74.3643	113.6332	143.8894	206.4106	247.4677	272.5769	289.634	372.2652	405.7098	468.7741	538.891	635.512	667.1948	735.4753	751.4133	782.4252	817.9179	865.8917	876.9934	921.0671	963.8117	980.059	999.3611	1018.4002	1076.7515	1096.1842	1107.7422	1172.9079	1238.7803	1274.9653	1307.8118	1343.2807	1391.7106	1410.9535	1423.8023	1471.6367	1496.4978	1503.7215	1514.3492	1666.5752	1824.0362	3034.2257	3041.5858	3073.7386	3113.097	3118.5916	3122.412	3217.3594	3475.667	3497.7984	3571.4052
CCC12CC1(N)C(=N)O2	CC[C@@]12C[C@]1(N)[C]([NH])O2	
InChI=1S/C6H10N2O/c1-2-5-3-6(5,8)4(7)9-5/h7H,2-3,8H2,1H3	InChI=1S/C6H10N2O/c1-2-5-3-6(5,8)4(7)9-5/h7H,2-3,8H2,1H3/t5-,6+/m1/s1
