15
gdb 47579	2.9427	1.7527	1.26157	4.3571	61.36	-0.2818	0.0149	0.2967	957.5387	0.113196	-494.904199	-494.897106	-494.896162	-494.936022	26.913	
O	-0.2096140703	 0.4871714047	 0.9070029875	-0.339191
C	 0.0131170582	 1.1549485649	-0.0524260282	 0.475306
O	-0.921458487	 1.454763063	-1.007866592	-0.248236
C	-1.4309158049	 2.7848796096	-1.0206834137	-0.008654
O	-0.4225999253	 3.7485985346	-0.9087200229	-0.232875
C	 0.6225829088	 3.5238358179	-1.8092802677	 0.076805
C	 2.0072556616	 3.763320521	-1.2848259007	-0.339037
C	 1.5150259696	 2.3550521008	-1.4912439024	 0.092885
O	 1.2559805641	 1.6239753917	-0.3131020393	-0.238668
H	-1.9757077571	 2.8559726955	-1.9698831747	 0.119411
H	-2.1003670105	 2.9491373003	-0.1707322978	 0.137107
H	 0.3894053206	 3.7360940021	-2.8517248617	 0.104938
H	 2.7586007321	 4.1583216886	-1.9581680128	 0.130216
H	 2.0773202844	 4.0925515289	-0.2546956921	 0.151253
H	 1.9193862358	 1.7418020263	-2.2897290315	 0.118742
82.3705	180.9084	214.5122	313.9347	342.6398	434.2505	474.1568	553.2498	676.9617	732.9123	788.7119	802.689	813.2217	841.8005	922.7571	1005.001	1027.3778	1059.029	1085.7176	1102.297	1117.3732	1145.0313	1164.8842	1173.3071	1182.7429	1252.9821	1296.4758	1369.7858	1395.361	1445.8909	1474.4185	1521.6028	1891.4895	3031.4633	3096.8646	3115.1548	3148.7641	3164.5668	3244.4786
O=C1OCOC2CC2O1	O=C1OCO[C@H]2C[C@H]2O1	
InChI=1S/C5H6O4/c6-5-8-2-7-3-1-4(3)9-5/h3-4H,1-2H2	InChI=1S/C5H6O4/c6-5-8-2-7-3-1-4(3)9-5/h3-4H,1-2H2/t3-,4+/m0/s1
