15
gdb 109529	1.94922	1.52853	1.17435	6.7142	71.33	-0.285	-0.0107	0.2743	1111.7483	0.111423	-416.799981	-416.791016	-416.790072	-416.834241	31.025	
C	 0.0693385026	 1.126405147	-0.3981947399	-0.24889
O	-0.140235857	 0.0146367454	 0.4689173771	-0.217876
C	-1.337667248	-0.6189834239	 0.2774499704	 0.120559
C	-1.4485742296	-1.7228491592	-0.7739049287	-0.249669
C	-0.3237648697	-2.0222824707	-1.6103785442	 0.328153
N	 0.5626821902	-2.2476780619	-2.3178715076	-0.328786
C	-1.412170124	-2.050223033	 0.7334213469	-0.251622
C	-0.2604259816	-2.6808654341	 1.3150465651	 0.331227
N	 0.638135159	-3.2120551053	 1.8105113789	-0.321202
H	 1.032518384	 1.5549490012	-0.1198616744	 0.153086
H	 0.1005079879	 0.8108769484	-1.4473233181	 0.140483
H	-0.7176866322	 1.8813190141	-0.2656778558	 0.118168
H	-2.2317294859	-0.0090654669	 0.4175975718	 0.118543
H	-2.4130708292	-1.8622832952	-1.250750819	 0.151691
H	-2.3567442165	-2.3835555958	 1.1498395172	 0.156134
91.9796	96.0197	105.337	143.8284	196.371	245.6127	283.7251	385.1277	410.4314	464.825	653.3209	655.8451	671.8134	755.1413	785.3705	857.8418	976.0721	1019.2969	1062.5383	1081.87	1126.0404	1155.6315	1180.3187	1214.2101	1269.3604	1354.6364	1368.1919	1414.3323	1485.2339	1490.2484	1501.1267	2360.4252	2369.3763	3007.544	3078.4372	3094.4799	3149.8787	3169.5909	3177.5495
COC1C(C#N)C1C#N	CO[C@H]1[C@@H](C#N)[C@H]1C#N	
InChI=1S/C6H6N2O/c1-9-6-4(2-7)5(6)3-8/h4-6H,1H3	InChI=1S/C6H6N2O/c1-9-6-4(2-7)5(6)3-8/h4-6H,1H3/t4-,5+,6-
