12
gdb 133427	3.13017	1.36929	0.95258	1.1723	62.59	-0.2235	-0.0624	0.1611	1073.3254	0.077468	-518.05717	-518.050191	-518.049247	-518.088823	26.468	
F	 0.0204524898	 0.0306337024	 0.0035795629	-0.027916
C	-0.0376727584	 1.3434979584	 0.0110694357	 0.332725
C	-1.2156188102	 1.9982197478	 0.0299048684	-0.400662
C	-1.1623398194	 3.4282465252	 0.0365385996	 0.36415
F	-2.3175219098	 4.0807688532	 0.0550177209	-0.062964
N	-0.0917584205	 4.1325540149	 0.0260653154	-0.253862
N	 1.0686398764	 3.4292381973	 0.0072126835	-0.323134
C	 1.2469002548	 2.045726201	-0.002210554	 0.293527
N	 2.3551268223	 1.4050425357	-0.020058313	-0.551102
H	-2.1628861438	 1.4754885131	 0.0396697833	 0.147455
H	 1.8898583524	 4.0145279662	-0.0005952692	 0.272842
H	 3.1589073664	 2.0344990247	-0.0274002935	 0.20894
103.723	211.7688	317.589	356.7404	358.4391	419.2233	465.6201	524.3446	545.51	594.3392	662.0576	730.6123	751.1537	800.1447	818.8648	889.3391	979.2548	1091.272	1189.8557	1243.7554	1273.5011	1393.6688	1453.7811	1466.6377	1634.8836	1685.8533	1718.6753	3226.7911	3468.2269	3628.9983
FC1=CC(F)=NNC1=N	FC1=C(NN=C(C1)F)[NH]	
InChI=1S/C4H3F2N3/c5-2-1-3(6)8-9-4(2)7/h1H,(H2,7,9)	InChI=1S/C4H4F2N3/c5-2-1-3(6)8-9-4(2)7/h7,9H,1H2
