14
gdb 18207	4.45911	1.73574	1.4265	5.7085	61.33	-0.2492	0.024	0.2732	847.2622	0.108777	-378.70299	-378.696377	-378.695433	-378.733926	24.689	
N	-0.0277762697	-1.1260849548	-0.2552860601	-0.320007
C	-0.0080383448	 0.0241312266	-0.1530460663	 0.301209
C	 0.0029167344	 1.4928558687	-0.0734472633	-0.154475
N	-0.6230009547	 1.9645668098	 1.164825162	-0.302946
C	-0.0380173641	 3.2567874267	 1.5410044301	-0.195535
C	 1.3616346212	 3.187133559	 0.9681791407	 0.048166
O	 2.0421130146	 1.9581758683	 1.2457893264	-0.227817
C	 1.4032474633	 2.1028713111	-0.0154373588	 0.042797
H	-0.469076216	 1.8712746124	-0.9982847959	 0.111567
H	-1.6325541217	 1.9682857314	 1.1192710898	 0.239511
H	-0.5448438955	 4.1317725995	 1.0995692818	 0.097778
H	-0.0482341321	 3.3727752617	 2.6304847695	 0.128419
H	 1.9817326601	 4.0761755006	 0.9062260804	 0.111473
H	 2.0360010751	 2.0796265289	-0.8969806764	 0.11986
104.279	158.0728	257.0799	342.6439	404.2567	499.187	521.8349	598.9944	682.2337	839.2605	844.7585	872.8761	884.2693	957.6037	994.3725	1005.2639	1052.6669	1081.2873	1116.3169	1125.1024	1216.7006	1249.3624	1265.2841	1310.5739	1349.5305	1362.1569	1442.0958	1447.2186	1509.1026	2364.7174	2937.6371	2962.6122	3059.8418	3163.8926	3176.4005	3587.9513
N#CC1NCC2OC12	N#C[C@H]1NC[C@H]2O[C@@H]12	
InChI=1S/C5H6N2O/c6-1-3-5-4(8-5)2-7-3/h3-5,7H,2H2	InChI=1S/C5H6N2O/c6-1-3-5-4(8-5)2-7-3/h3-5,7H,2H2/t3-,4-,5+/m1/s1
