20
gdb 112096	2.5215	1.41554	1.05474	2.8708	82.88	-0.2495	0.0127	0.2622	1209.9296	0.171609	-403.16983	-403.160807	-403.159862	-403.204427	33.176	
C	 0.0794072197	 1.5562941744	-0.1126164265	-0.383402
C	-0.0018249978	 0.0384027151	 0.0562883266	-0.17724
C	-1.4523268745	-0.5274125129	 0.0813362881	-0.093561
C	-1.4330868748	-2.0199282817	-0.0984058776	-0.086277
C	-1.6712432125	-2.85753139	 0.9030555331	-0.08264
C	-2.0109755654	-2.3849050752	 2.2779745475	-0.116268
O	-2.0675460037	-0.9645359757	 2.4335532695	-0.261471
C	-2.1675004888	-0.1302411998	 1.3550337484	 0.364426
N	-2.7515326238	 0.9901596799	 1.4547681895	-0.50052
H	 1.1213321648	 1.8907244626	-0.0847963618	 0.1063
H	-0.3468951054	 1.8668632208	-1.0727249092	 0.113481
H	-0.4752041823	 2.0729701784	 0.6739343607	 0.146073
H	 0.5309573762	-0.4549595836	-0.7663426927	 0.094692
H	 0.5053856369	-0.2750163304	 0.9769388178	 0.104347
H	-2.005006757	-0.061227486	-0.7414981257	 0.108479
H	-1.1784789695	-2.3932560095	-1.0866713829	 0.099487
H	-1.6354559176	-3.9350383181	 0.7696266651	 0.100789
H	-2.9838344721	-2.7932481489	 2.5916231288	 0.122016
H	-1.271967237	-2.7464498193	 3.0051527316	 0.126236
H	-3.1460118754	 1.0914766097	 2.3928751898	 0.215054
44.0724	82.5045	107.9747	189.6414	214.0886	255.7615	353.6662	425.888	453.1124	528.5012	562.4978	681.0327	706.1212	736.7669	816.3085	879.2924	898.984	927.8771	948.7254	988.6203	999.3672	1030.0126	1036.1068	1062.9453	1105.6006	1131.5223	1136.7725	1216.2741	1254.1992	1271.2353	1303.1989	1309.1434	1350.7849	1370.7565	1413.7927	1415.9078	1431.3379	1485.3822	1493.3274	1503.6712	1506.4351	1737.2545	1744.203	2991.3201	3022.5743	3030.5997	3037.2016	3048.1105	3063.593	3100.7495	3130.6158	3157.1162	3180.1874	3455.0619
CCC1C=CCOC1=N	CC[C@H]1C=CCO[C]1[NH]	
InChI=1S/C7H11NO/c1-2-6-4-3-5-9-7(6)8/h3-4,6,8H,2,5H2,1H3	InChI=1S/C7H11NO/c1-2-6-4-3-5-9-7(6)8/h3-4,6,8H,2,5H2,1H3/t6-/m0/s1
