21
gdb 36951	5.03853	0.71044	0.70694	0.0153	78.04	-0.2466	0.0667	0.3133	1643.1972	0.182952	-424.175562	-424.166484	-424.16554	-424.211808	31.794	
C	-0.0472437442	 1.5458126412	 0.0110541249	-0.2424
C	-0.0755918374	 0.0264448765	-0.1141135114	-0.022267
C	 0.2201048152	-0.8045127735	 1.1581787706	-0.075989
O	-1.0790562928	-1.4263070987	 1.112848735	-0.270193
C	-1.4570616921	-0.6642090987	-0.0509254709	-0.090784
C	 1.3634435198	 2.1146676837	 0.117428024	-0.022268
C	 2.2215535358	 2.1522548261	-1.1705503493	-0.075989
O	 2.3381029665	 3.5872281518	-1.1091416179	-0.270193
C	 1.5128301061	 3.6525175621	 0.0709911466	-0.090784
H	-0.5518029248	 1.9925741887	-0.857044608	 0.102687
H	-0.6288462445	 1.8459083163	 0.893920076	 0.102688
H	 0.5180347903	-0.2929217762	-0.9758124197	 0.082209
H	 1.0299491912	-1.540518634	 1.0840004706	 0.101682
H	 0.3610591629	-0.2160868644	 2.0759049445	 0.095519
H	-2.3014159352	 0.0083389833	 0.1542636497	 0.097322
H	-1.7171834649	-1.3099929345	-0.898479348	 0.101015
H	 1.8899056735	 1.6638477094	 0.9638981314	 0.082209
H	 3.1998193779	 1.6587326335	-1.1206829651	 0.101682
H	 1.7056729312	 1.8216315754	-2.083178383	 0.095519
H	 0.5790441781	 4.2026401387	-0.1100241382	 0.097322
H	 2.0383288272	 4.1158249833	 0.914937188	 0.101015
37.6948	41.8765	79.4638	101.4258	135.4692	295.1053	328.2006	416.503	435.2486	752.8166	767.1861	861.717	867.0909	886.4122	895.8533	897.5149	973.4575	988.2104	1000.619	1014.5422	1043.8384	1045.1137	1092.2033	1118.7633	1141.2594	1154.1773	1160.3095	1165.2448	1165.6564	1196.424	1252.9442	1256.2411	1293.4333	1309.7701	1312.6587	1319.1072	1362.8063	1381.7552	1400.485	1407.0323	1486.0865	1511.8467	1513.3564	1537.7061	1538.0648	2994.3655	2994.4681	3000.9817	3006.5292	3010.5445	3035.3232	3042.1795	3042.438	3046.3851	3046.691	3070.4816	3073.5655
C(C1COC1)C1COC1	C(C1COC1)C1COC1	
InChI=1S/C7H12O2/c1(6-2-8-3-6)7-4-9-5-7/h6-7H,1-5H2	InChI=1S/C7H12O2/c1(6-2-8-3-6)7-4-9-5-7/h6-7H,1-5H2
