20
gdb 89544	4.41947	1.02586	0.98282	1.3376	79.08	-0.2301	0.0744	0.3045	1266.8158	0.171504	-403.085465	-403.077386	-403.076442	-403.11803	32.08	
O	 0.6888567477	 0.5878969256	-0.7980937261	-0.432362
C	-0.010853813	-0.2684541673	 0.065151734	 0.16611
C	 0.1130786079	-0.076120312	 1.6076229633	-0.359983
C	-1.3868031173	-0.3902054892	 1.6918179289	 0.390463
C	-1.5568384583	-0.1447818829	 0.1911539615	-0.365648
C	-2.0784113551	-1.4412238108	 2.4573863574	-0.111585
C	-1.4994329346	-1.5969564096	 3.8598880735	-0.252359
C	-1.7242515531	-0.0710508311	 4.0185524801	-0.154698
N	-2.3873394348	 0.0440135908	 2.6680541289	-0.195111
H	 0.426117262	 1.4928722363	-0.5985627232	 0.277321
H	 0.2819366089	-1.280999277	-0.2246647224	 0.097491
H	 0.8212851725	-0.7107570239	 2.1456210083	 0.107346
H	 0.3190196669	 0.9731057612	 1.8537027147	 0.099836
H	-1.8932627413	 0.8803500083	-0.0024096872	 0.102905
H	-2.177483745	-0.8354782397	-0.3841815175	 0.10714
H	-2.7981098545	-2.1097516094	 1.9928193155	 0.092479
H	-2.1360355606	-2.1856648423	 4.5227378684	 0.113339
H	-0.4754958499	-1.977936445	 3.9276301997	 0.102613
H	-2.4344031103	 0.1932164679	 4.8040541267	 0.111189
H	-0.8325327879	 0.5561750603	 4.1216177754	 0.103513
75.2679	172.1599	201.8381	263.3564	301.1537	362.1986	386.6999	446.1946	477.7044	552.2391	700.0277	757.2537	781.8053	801.8906	835.6696	853.1614	931.6489	942.0052	966.521	974.9391	996.5739	1033.44	1047.0393	1058.5857	1103.322	1120.1833	1130.5107	1177.7188	1203.7812	1211.4986	1219.5545	1243.1234	1265.2858	1275.6313	1287.9639	1311.8613	1332.103	1430.5422	1452.1763	1464.987	1485.5274	1492.5836	1509.5798	3030.6589	3043.1396	3046.5582	3054.6686	3077.0801	3102.3727	3104.7898	3110.1289	3122.4079	3147.8199	3804.7479
OC1CC2(C1)C1CCN21	O[C@H]1C[C@@]2(C1)[C@H]1CCN21	
InChI=1S/C7H11NO/c9-5-3-7(4-5)6-1-2-8(6)7/h5-6,9H,1-4H2	InChI=1S/C7H11NO/c9-5-3-7(4-5)6-1-2-8(6)7/h5-6,9H,1-4H2/t5-,6-,7+,8?/m1/s1
