21
gdb 91459	2.43317	1.92051	1.41668	1.4887	81.46	-0.2417	0.0146	0.2562	1016.4943	0.183657	-387.102185	-387.094217	-387.093273	-387.13393	32.902	
C	-0.0927952766	 1.5360431708	-0.0238851603	-0.420896
C	-0.0001209172	 0.0088967716	-0.0116174339	 0.020164
C	 0.9150914705	-0.5395834156	-1.1506586799	-0.235904
C	 1.9883687331	-1.3195650696	-0.3307580082	 0.01173
O	 2.1193133411	-0.4824661725	 0.8226989822	-0.277665
C	 0.7485433675	-0.5715260919	 1.2569757199	 0.346916
C	 0.5456913463	 0.1182954686	 2.5864923021	-0.495511
C	 0.5153335183	-2.0839822404	 1.2160459924	-0.119151
C	 1.294137245	-2.5506411276	 0.2426586244	-0.087604
H	 0.8989224639	 1.9836685396	 0.0985857438	 0.126862
H	-0.5042448083	 1.8894932254	-0.9752399897	 0.111183
H	-0.7402396441	 1.9122922671	 0.7745874417	 0.110497
H	-1.0075112517	-0.4137980676	-0.0740201639	 0.06597
H	 0.3894252563	-1.1706482082	-1.871101258	 0.095981
H	 1.3865058431	 0.2830177043	-1.6956856957	 0.099909
H	 2.9528329264	-1.4618177228	-0.8174025272	 0.07521
H	 0.8496408492	 1.1665931187	 2.5390175683	 0.128779
H	-0.50758717	 0.0787342473	 2.8824631621	 0.115891
H	 1.1390302019	-0.3753358372	 3.3610921193	 0.127879
H	-0.2169406798	-2.6103760015	 1.8142063732	 0.09858
H	 1.3548936752	-3.5531968586	-0.1591041525	 0.10118
133.1154	206.7413	256.1453	285.6428	318.853	333.8983	380.0697	406.1413	515.6594	611.9336	629.9966	684.6025	728.5684	779.473	821.5216	849.6913	873.6261	880.7742	901.2384	931.1558	936.6562	956.3673	1005.9371	1036.6923	1079.2799	1082.0843	1105.6707	1146.7792	1162.7706	1203.5859	1222.8996	1258.4765	1291.1066	1318.9311	1326.724	1341.2315	1362.3672	1402.1896	1413.1684	1479.8127	1490.6408	1494.8092	1502.7215	1508.7417	1649.0042	3030.5751	3044.7706	3052.6762	3060.3881	3095.6934	3105.2522	3110.5561	3113.813	3124.7917	3126.7781	3208.124	3235.0839
CC1CC2OC1(C)C=C2	C[C@H]1C[C@H]2O[C@]1(C)C=C2	
InChI=1S/C8H12O/c1-6-5-7-3-4-8(6,2)9-7/h3-4,6-7H,5H2,1-2H3	InChI=1S/C8H12O/c1-6-5-7-3-4-8(6,2)9-7/h3-4,6-7H,5H2,1-2H3/t6-,7-,8+/m0/s1
