14
gdb 82023	2.65259	1.4825	1.33219	2.7539	61.71	-0.2711	-0.0002	0.2709	979.1231	0.098892	-473.776723	-473.768527	-473.767583	-473.809394	30.25	
O	 0.0068575969	 1.4112946339	 0.0682902413	-0.414074
C	 0.0116421292	 0.0195978236	 0.0263482596	 0.014313
C	-1.3783277098	-0.6037104674	-0.0101055659	 0.02354
O	-2.0125492994	-0.1652469798	-1.2220621965	-0.247526
C	-1.1256333709	-1.2773526671	-1.2973412581	-0.041029
C	 0.2784763294	-0.6300841915	-1.4284650858	 0.221373
O	 0.44209728	 0.2912592408	-2.4595485972	-0.465393
C	 1.3765808552	-1.5886735327	-1.4333295149	 0.258691
N	 2.2210727539	-2.3754637402	-1.3779925263	-0.323854
H	 0.9141445824	 1.7238373928	-0.0208473885	 0.302246
H	 0.652389787	-0.4431471929	 0.7868130889	 0.104968
H	-2.0229672599	-0.8830636918	 0.8131454735	 0.127822
H	-1.4928117304	-2.2105479312	-1.7060573854	 0.133508
H	-0.3043054938	 0.9017800835	-2.3709863948	 0.305415
110.6726	150.5632	184.228	206.4409	236.652	287.8222	424.3735	444.0542	500.6485	513.584	569.5606	643.721	693.9412	796.5194	867.9403	876.3217	923.6494	945.5287	1015.9473	1047.4398	1064.7821	1145.5558	1173.7683	1206.5689	1243.0557	1247.2228	1284.1302	1371.4997	1416.7805	1435.6087	2360.9673	3039.2935	3200.4245	3216.2136	3751.645	3811.3118
OC1C2OC2C1(O)C#N	O[C@H]1[C@H]2O[C@H]2[C@]1(O)C#N	
InChI=1S/C5H5NO3/c6-1-5(8)3(7)2-4(5)9-2/h2-4,7-8H	InChI=1S/C5H5NO3/c6-1-5(8)3(7)2-4(5)9-2/h2-4,7-8H/t2-,3+,4-,5+/m1/s1
