14
gdb 5184	5.86768	1.4763	1.17953	0.8967	67.07	-0.1912	0.0266	0.2178	951.3085	0.110724	-374.944808	-374.937976	-374.937032	-374.975964	25.593	
N	 0.2500610856	 1.2619286378	 0.0037487494	-0.466644
C	 0.0515182533	-0.001646965	 0.0014122289	 0.074665
N	-1.193432278	-0.560477953	 0.0109520051	-0.371951
C	-2.4083977215	 0.1158978331	 0.0253457203	 0.361091
C	-2.6768049823	 1.4628206559	 0.0321842621	-0.171187
N	-4.0596139645	 1.5288411344	 0.0463350202	-0.236377
C	-4.537762795	 0.2589439647	 0.0470816514	 0.018192
N	-3.5643084689	-0.6259899747	 0.034674326	-0.331188
H	 1.2486533407	 1.4543367062	-0.0048961217	 0.218009
H	 0.8364569978	-0.7667815189	-0.0084401276	 0.088332
H	-1.2763451799	-1.5636175176	 0.009293122	 0.258528
H	-2.0321902581	 2.3201048157	 0.0284694279	 0.161845
H	-4.6055902656	 2.3732095171	 0.0545196081	 0.266824
H	-5.5932306036	 0.0336523543	 0.0569345879	 0.129862
89.2526	190.6714	205.0099	367.3943	370.3829	490.7837	506.648	608.3279	657.0919	698.1949	743.464	797.7817	809.6969	825.0956	949.3205	989.9435	1032.9531	1071.3724	1139.9529	1147.0162	1217.041	1259.6174	1279.0722	1365.117	1408.0191	1466.4858	1504.1903	1579.5339	1626.4287	1716.0058	3051.0714	3256.5449	3332.8438	3516.074	3658.5103	3675.2397
N=CNC1=CNC=N1	N=CNc1c[nH]cn1	
InChI=1S/C4H6N4/c5-2-7-4-1-6-3-8-4/h1-3H,(H2,5,7)(H,6,8)	InChI=1S/C4H6N4/c5-2-7-4-1-6-3-8-4/h1-3H,(H2,5,7)(H,6,8)
