16
gdb 44393	3.75353	1.59229	1.43863	4.4708	67.63	-0.2462	0.0261	0.2723	913.0817	0.127074	-437.876482	-437.870135	-437.869191	-437.907112	25.986	
O	-0.0608682815	 0.0095165317	 0.0783885836	-0.357973
C	-0.0228306195	 1.2064924873	 0.032638009	 0.432352
N	-1.0106966448	 2.1741740628	-0.0494266441	-0.321661
C	-0.1052158304	 3.3160102875	 0.0612897976	 0.013818
C	 0.1541036437	 3.8918078143	 1.4777005322	 0.040407
C	 1.6763476382	 4.1772067454	 1.4378840463	-0.228676
C	 1.6474361646	 2.625965722	 1.4403096626	 0.066067
O	 0.4382182679	 2.6973712891	 2.2593189674	-0.284672
C	 1.0850301389	 2.2942038891	 0.0428290773	-0.215013
H	-1.9802898666	 2.0946288936	 0.224714593	 0.248088
H	-0.2012968026	 4.0641793884	-0.7273814274	 0.091892
H	-0.5791289764	 4.5594806254	 1.929864939	 0.087467
H	 2.1010788708	 4.7004945393	 0.5765451384	 0.102455
H	 2.0438099069	 4.5876668811	 2.3787796102	 0.120914
H	 2.4325842617	 1.9998523609	 1.8600907421	 0.100152
H	 1.803124659	 2.299550412	-0.7755274172	 0.104384
133.1636	231.6976	328.9918	430.0272	462.1462	506.323	610.9933	656.4739	720.9564	789.9059	823.296	852.6427	874.4296	875.4942	889.0265	947.4446	963.7647	992.4699	1026.2232	1037.8585	1075.7909	1081.5796	1147.8813	1159.2398	1179.9006	1220.1065	1237.5947	1252.4085	1269.5497	1280.0245	1318.1955	1342.506	1364.4352	1486.8131	1900.603	3064.3488	3097.57	3125.8518	3135.6111	3143.6703	3148.4585	3593.7808
O=C1NC2C3CC(O3)C12	O=C1N[C@H]2[C@@H]3C[C@@H](O3)[C@@H]12	
InChI=1S/C6H7NO2/c8-6-4-2-1-3(9-2)5(4)7-6/h2-5H,1H2,(H,7,8)	InChI=1S/C6H7NO2/c8-6-4-2-1-3(9-2)5(4)7-6/h2-5H,1H2,(H,7,8)/t2-,3+,4-,5+/m1/s1
