13
gdb 8966	5.79183	0.91515	0.79794	2.9117	65.56	-0.2789	-0.0926	0.1862	1307.2666	0.092567	-361.449128	-361.440623	-361.439679	-361.483089	28.894	
O	-0.1095430297	-0.0879669859	 0.0018857651	-0.262911
C	-0.0272232049	 1.1139519432	 0.0058337746	 0.28934
C	 1.2623912512	 1.8986297944	-0.0018552035	-0.301566
C	 2.5033381551	 0.9914083805	-0.0163674692	-0.369551
C	 3.7381338931	 1.7641390325	-0.0234499613	 0.27833
C	 4.7412355157	 2.4252703882	-0.0292569911	-0.414294
C	-1.2529165604	 1.9446656761	 0.0192269274	 0.233918
N	-2.2004002494	 2.6072403229	 0.0296803707	-0.288902
H	 1.249647012	 2.5700482093	-0.8702662295	 0.162314
H	 1.2645326022	 2.5623959567	 0.8725261765	 0.162336
H	 2.4759630626	 0.3268360175	 0.8543523468	 0.154317
H	 2.461145155	 0.3344874559	-0.8922965994	 0.154306
H	 5.6380158574	 2.9940519987	-0.0347146971	 0.202362
62.146	79.0906	93.1906	187.8207	245.3328	274.5813	343.2212	442.4529	502.3964	571.8569	615.7722	631.8866	657.4538	781.7923	821.9325	972.6484	1027.6286	1030.8593	1094.1695	1178.7887	1299.8019	1301.1335	1389.1727	1440.3373	1471.016	1799.1248	2244.6922	2338.375	3034.404	3047.7366	3061.7459	3083.7643	3505.9691
O=C(CCC#C)C#N	O=C(CCC#C)C#N	
InChI=1S/C6H5NO/c1-2-3-4-6(8)5-7/h1H,3-4H2	InChI=1S/C6H5NO/c1-2-3-4-6(8)5-7/h1H,3-4H2
