22
gdb 60115	3.71451	0.91798	0.81607	1.2016	84.11	-0.2382	0.0283	0.2665	1511.8279	0.194328	-404.382006	-404.372164	-404.371219	-404.418106	35.319	
C	 0.9273935946	 1.531145667	 0.3180225353	-0.381966
C	 0.1191671539	 0.2663559427	 0.0011425193	 0.043171
C	 0.5578395321	-0.3429155283	-1.3365048438	-0.391928
C	 0.220746988	-0.7988225194	 1.1216255559	-0.284323
C	-0.4296528448	-0.3907514654	 2.4057856839	 0.399572
N	-1.6132187892	-0.681672745	 2.7656993807	-0.307264
C	-1.8300218912	-0.0443816311	 4.0715424156	-0.184939
C	-0.4898231638	 0.6692417519	 4.388732535	-0.112699
O	 0.3341166398	 0.379467535	 3.2382258562	-0.250966
H	 1.9970929233	 1.3000003404	 0.3903840148	 0.111353
H	 0.801719542	 2.2778136954	-0.4730146949	 0.107827
H	 0.6249668385	 1.981524226	 1.266111967	 0.124477
H	-0.9403111115	 0.5424373861	-0.0808263681	 0.088305
H	 1.6055984694	-0.6646181367	-1.2969008184	 0.112725
H	-0.0499215127	-1.2148575086	-1.5995435863	 0.113515
H	 0.4669941315	 0.3876365917	-2.1468357488	 0.111938
H	-0.2747843216	-1.7148982802	 0.7911041601	 0.125244
H	 1.2752893109	-1.0296305096	 1.3126925629	 0.112437
H	-2.6720346662	 0.6539547944	 4.0127813518	 0.114447
H	-2.090435948	-0.8005013968	 4.8199363805	 0.114968
H	-0.5815344961	 1.7550108973	 4.4820864248	 0.116843
H	 0.0146907811	 0.2804915035	 5.2779762564	 0.117264
29.511	72.1988	86.2338	123.3413	226.2856	247.6929	272.8903	309.5767	338.5635	405.7754	418.9085	640.8778	754.5739	771.9042	824.6951	836.4474	879.5308	920.0387	934.0559	952.4256	968.968	975.1021	1010.7822	1014.3883	1118.1291	1125.6928	1142.7889	1191.0639	1215.5942	1222.0024	1246.5402	1282.0147	1310.6513	1342.3418	1366.4547	1372.5073	1391.6109	1402.4968	1424.2078	1472.5328	1487.6243	1494.2033	1503.7079	1504.5855	1509.5322	1527.5045	1735.7582	3018.498	3024.1802	3031.1984	3037.4914	3046.8552	3053.712	3064.0001	3088.4994	3094.5083	3100.1503	3101.5173	3110.1967	3125.1792
CC(C)CC1=NCCO1	CC(C)CC1=NCCO1	
InChI=1S/C7H13NO/c1-6(2)5-7-8-3-4-9-7/h6H,3-5H2,1-2H3	InChI=1S/C7H13NO/c1-6(2)5-7-8-3-4-9-7/h6H,3-5H2,1-2H3
