21
gdb 100918	2.30085	1.0067	0.74267	2.6807	75.8	-0.2559	-0.0315	0.2244	1539.8424	0.179209	-461.36615	-461.355225	-461.354281	-461.403132	38.523	
C	 0.1088182424	 1.5198047735	 0.1472774475	-0.394249
C	-0.0039870747	 0.0028047663	-0.0278071753	-0.19497
C	-1.4614665507	-0.5119067463	-0.011944934	-0.098478
C	-2.1627985455	-0.0437871457	-1.2731073786	 0.162406
O	-3.0861765961	 0.7270440688	-1.3150869547	-0.2533
C	-1.5185436439	-2.0505954784	 0.0842875274	 0.077678
O	-0.7908300686	-2.5443406779	 1.2127794107	-0.437407
C	-2.9445509115	-2.6065345202	 0.137065155	-0.072073
O	-2.9327033187	-4.0113088734	 0.248771124	-0.421281
H	 1.15528153	 1.8368456096	 0.1150199069	 0.11985
H	-0.4301984483	 2.0616248129	-0.6364333188	 0.13153
H	-0.3074832944	 1.8378594704	 1.1091284998	 0.120239
H	 0.4676843095	-0.3024197198	-0.9719187883	 0.103131
H	 0.5434675995	-0.516350881	 0.7639470501	 0.11925
H	-2.0022237374	-0.076019577	 0.8388876099	 0.084044
H	-1.7259333335	-0.4662256163	-2.2104311053	 0.077814
H	-1.0067425402	-2.492494921	-0.7795699159	 0.10347
H	-1.1561035884	-2.1263183297	 2.0027446122	 0.285153
H	-3.4815545136	-2.1334129117	 0.9805126637	 0.081412
H	-3.4956060595	-2.3535313122	-0.7755356499	 0.120035
H	-2.2293156763	-4.2158771109	 0.8783498237	 0.285746
51.0033	61.4071	80.0511	128.5348	142.6983	217.0726	241.0395	284.9366	323.2963	345.3828	354.2786	407.0969	467.0719	496.8551	512.3282	620.7477	774.0574	864.1913	890.0162	966.7674	973.9456	1027.8079	1048.7815	1070.1761	1100.8503	1111.6471	1138.7964	1156.1311	1206.12	1229.4831	1260.4978	1301.0629	1330.0814	1353.3196	1369.4684	1382.0875	1417.2722	1419.7836	1433.7564	1445.4737	1492.2455	1499.7525	1503.075	1506.0669	1830.9669	2840.1569	2934.6138	3018.9026	3027.974	3037.1086	3048.328	3068.9815	3084.0125	3106.189	3112.4219	3769.7531	3777.8402
CCC(C=O)C(O)CO	CC[C@@H](C=O)[C@@H](O)CO	
InChI=1S/C6H12O3/c1-2-5(3-7)6(9)4-8/h3,5-6,8-9H,2,4H2,1H3	InChI=1S/C6H12O3/c1-2-5(3-7)6(9)4-8/h3,5-6,8-9H,2,4H2,1H3/t5-,6-/m0/s1
