18
gdb 72211	3.3911	1.7631	1.40765	2.4687	76.8	-0.205	-0.0133	0.1917	934.0196	0.148881	-401.868805	-401.861811	-401.860867	-401.899584	29.244	
O	 0.0757293814	 1.3563091185	 0.1179484201	-0.475161
C	 0.0126813831	-0.0339058538	 0.0216918977	 0.391059
C	 0.2226353318	-0.6728506175	-1.4028877129	-0.246915
N	-1.1845120374	-1.2513290615	-1.4232808505	-0.114914
C	-1.2126255634	-2.7327062731	-1.2773535332	-0.205114
C	-0.5581721558	-2.9860034566	 0.0913197846	-0.167453
C	-0.6259135838	-1.849858589	 0.7885555928	 0.148379
C	 0.4387497428	-0.8908010755	 1.2888134073	-0.364093
C	-1.3375964845	-0.7720008139	-0.0264755008	-0.079018
H	 1.0009801683	 1.6227418437	 0.0778335163	 0.281545
H	 0.3274705214	 0.1011095734	-2.167230874	 0.112428
H	 1.0292462227	-1.4054221173	-1.5069972491	 0.098258
H	-2.2513431753	-3.0777480756	-1.3630997591	 0.114187
H	-0.6451776687	-3.2136236493	-2.081963516	 0.110204
H	 0.0887858777	-3.8323969964	 0.292059507	 0.096466
H	 1.4568115164	-1.278945193	 1.379209127	 0.101982
H	 0.1774505806	-0.3072074411	 2.1780621945	 0.117943
H	-2.2925816274	-0.355605482	 0.2994675682	 0.080218
221.6769	237.7675	265.3959	345.7882	360.0074	382.9515	446.8316	573.1065	631.5571	697.5275	721.5423	792.9358	799.1118	824.8075	886.2191	898.3491	905.7622	944.9709	974.4545	987.9963	1018.8488	1041.3888	1082.591	1097.2356	1129.725	1159.1502	1175.4084	1195.3143	1226.2021	1230.0575	1255.1408	1273.7669	1289.3774	1307.0172	1382.8694	1474.8589	1480.8702	1484.9696	1670.6245	3021.8433	3041.575	3043.5829	3070.3098	3096.0925	3104.9908	3106.0924	3194.3494	3798.014
OC12CN3CC=C(C1)C23	O[C@@]12CN3C[CH][C](C1)[C@@H]23	
InChI=1S/C7H9NO/c9-7-3-5-1-2-8(4-7)6(5)7/h1,6,9H,2-4H2	InChI=1S/C7H9NO/c9-7-3-5-1-2-8(4-7)6(5)7/h1,6,9H,2-4H2/t6-,7+/m0/s1
