17
gdb 91223	2.07332	1.6932	1.58118	1.3622	69.04	-0.2491	0.0095	0.2586	979.9618	0.136114	-455.116884	-455.108394	-455.10745	-455.149997	31.993	
N	-0.0714873124	 1.4728221967	-0.1401692829	-0.61076
C	-0.0678200326	 0.0471411963	-0.0389208884	 0.185829
C	 0.369569562	-0.7414985955	-1.3129925537	 0.091608
O	 1.683108283	-1.2117208175	-1.3941348511	-0.429963
C	-0.8398938127	-1.7254706403	-1.1401152924	-0.282359
C	-1.3033600258	-0.917373698	 0.083280873	 0.061218
O	-0.7240744014	-1.4865618791	 1.30668891	-0.266385
C	 0.3786807342	-0.667454497	 1.2287424005	 0.343582
N	 1.3916413854	-0.5772897413	 1.9680835362	-0.551144
H	-0.0472372655	 1.9108967871	 0.7752280931	 0.242499
H	 0.7543266354	 1.7867025492	-0.6406767757	 0.246801
H	 0.2127970072	-0.1046825495	-2.1889358509	 0.106594
H	 1.9613844209	-1.5064198571	-0.517920236	 0.29399
H	-1.5282840279	-1.7160268826	-1.9873807328	 0.116005
H	-0.574854334	-2.7573336628	-0.9008523958	 0.120382
H	-2.3388065287	-0.6155489199	 0.2246639454	 0.1008
H	 1.3439742429	-1.2296335888	 2.7535817416	 0.231304
91.7442	103.1709	144.0366	249.9243	258.8519	334.2679	366.8588	411.1484	444.4193	520.9936	604.2532	692.9079	727.9691	767.3656	809.4093	839.9502	877.6866	902.1137	953.4506	960.4939	1012.9957	1018.4814	1078.1232	1105.1783	1157.543	1165.5803	1200.2009	1241.9344	1257.9337	1302.1164	1316.1467	1336.359	1385.8874	1438.524	1462.7927	1663.0524	1799.5831	3066.0947	3076.1902	3134.1542	3147.4862	3466.7863	3501.1418	3577.7394	3774.1179
NC12C(O)CC1OC2=N	N[C@]12[C@@H](O)C[C@H]1O[C]2[NH]	
InChI=1S/C5H8N2O2/c6-4-5(7)2(8)1-3(5)9-4/h2-3,6,8H,1,7H2	InChI=1S/C5H8N2O2/c6-4-5(7)2(8)1-3(5)9-4/h2-3,6,8H,1,7H2/t2-,3+,5+/m0/s1
