23
gdb 119077	1.97713	1.2509	0.9048	2.9656	82.33	-0.2362	0.0722	0.3084	1419.5004	0.204255	-425.394518	-425.384156	-425.383211	-425.430311	37.148	
C	-0.1770288952	 1.5658124129	-0.0487161024	-0.394778
C	 0.1209917968	 0.0612300119	-0.0433322854	-0.25263
C	 0.7766472727	-0.4759322772	 1.2356405365	 0.270857
C	 2.1292266753	 0.17232174	 1.5020556922	-0.135012
O	 2.7140725819	-0.4101701458	 2.6466312452	-0.232128
C	 3.9633412438	 0.1471484783	 2.9757260703	-0.225706
C	-0.1834809579	-0.5674144203	 2.4514768493	-0.107155
O	-0.269494427	-2.000666024	 2.3339067546	-0.276479
C	 0.7512372731	-2.0251960854	 1.3166625867	-0.114084
H	 0.7365836652	 2.1677668159	-0.0376214931	 0.11964
H	-0.7390059172	 1.8427286366	-0.9457187681	 0.117576
H	-0.7783156395	 1.8574849467	 0.8194015159	 0.120753
H	-0.8154366306	-0.4900049946	-0.191759401	 0.109635
H	 0.7593560727	-0.1891774917	-0.9017739329	 0.095536
H	 2.7880762432	 0.0384579526	 0.6247784187	 0.084963
H	 2.0129436037	 1.2584623874	 1.653200716	 0.089268
H	 4.6965522219	 0.0141829144	 2.1644809905	 0.104496
H	 3.885962286	 1.2242603168	 3.1931602968	 0.104381
H	 4.326380383	-0.3683598573	 3.8680196631	 0.13065
H	 0.2638387429	-0.2627122459	 3.4045750953	 0.104903
H	-1.163065595	-0.0863989963	 2.3346696682	 0.090051
H	 0.4180181398	-2.5462073863	 0.4098708841	 0.088649
H	 1.6805178604	-2.4756533985	 1.6818911695	 0.106617
78.7339	84.0072	107.1183	120.3107	168.8092	212.3969	239.47	269.269	317.3989	349.3138	370.0918	424.4052	519.3312	689.1172	788.2098	837.0201	890.8953	896.7384	973.9477	989.0894	999.0848	1015.5375	1042.6202	1058.6521	1076.7442	1157.5286	1163.9537	1167.4904	1173.9049	1191.7047	1212.0446	1245.2289	1261.45	1291.2322	1318.5199	1333.2098	1375.0659	1393.1503	1413.5298	1424.5317	1480.1776	1485.1072	1486.1978	1499.9461	1502.8243	1504.6051	1508.1678	1522.1444	1532.9699	2939.003	2970.4829	2978.464	3007.7218	3012.5309	3014.6123	3019.9352	3037.4696	3052.943	3063.411	3069.9109	3102.8218	3109.119	3116.2613
CCC1(COC)COC1	CCC1(COC)COC1	
InChI=1S/C7H14O2/c1-3-7(4-8-2)5-9-6-7/h3-6H2,1-2H3	InChI=1S/C7H14O2/c1-3-7(4-8-2)5-9-6-7/h3-6H2,1-2H3
