15
gdb 24093	7.39248	0.77418	0.70388	0.679	73.95	-0.2154	0.02	0.2354	1503.0448	0.111534	-420.594664	-420.586529	-420.585584	-420.628113	29.84	
C	 0.0129460506	-1.1970485749	-0.0055336809	-0.391448
C	 0.0362198723	 0.0030326671	 0.0019450159	 0.285196
C	 0.022696723	 1.4567654241	 0.0115241846	-0.251412
O	 1.3591228322	 1.9486081694	-0.0010300201	-0.261009
C	 1.4581879934	 3.2984511448	 0.0061212267	 0.337308
C	 0.4860365801	 4.2579394464	 0.0238283302	-0.143328
O	 1.0715861653	 5.4953245428	 0.0244167502	-0.154807
C	 2.4115333124	 5.3039999052	 0.0070274223	 0.022825
C	 2.7178199703	 3.982189336	-0.0048485575	-0.311203
H	-0.0003726135	-2.2590371986	-0.0122289529	 0.204693
H	-0.520590375	 1.8396973608	-0.8661595265	 0.135319
H	-0.4997189614	 1.8281854848	 0.906656482	 0.135318
H	-0.5887379217	 4.2436057034	 0.0367252628	 0.132646
H	 3.0131999957	 6.1979319895	 0.0052825026	 0.138905
H	 3.6952560364	 3.5285443591	-0.0194705994	 0.120996
54.5551	110.9364	112.1455	228.7536	322.9412	351.7254	412.558	503.2328	609.1923	614.2078	643.0662	686.8049	690.3867	742.2948	767.2451	827.2856	884.022	981.7844	1002.9057	1035.4287	1040.1163	1079.9059	1093.4656	1217.3043	1249.7701	1267.3663	1316.1032	1392.5446	1436.6385	1500.4324	1547.241	1642.9322	2252.3191	2979.5334	3006.5847	3264.8248	3286.3251	3297.4485	3505.554
C#CCOC1=COC=C1	C#CCOc1cocc1	
InChI=1S/C7H6O2/c1-2-4-9-7-3-5-8-6-7/h1,3,5-6H,4H2	InChI=1S/C7H6O2/c1-2-4-9-7-3-5-8-6-7/h1,3,5-6H,4H2
