16
gdb 75660	2.77	1.29527	1.10919	2.493	75.37	-0.2622	-0.0413	0.2209	1123.6474	0.123675	-400.758517	-400.750251	-400.749307	-400.791468	30.627	
C	-0.0943696425	 1.6132681828	 0.043385969	-0.422808
C	 0.0640419343	 0.0998083656	 0.0323631544	-0.178206
C	 1.1212883121	-0.5905173576	-0.8754761998	 0.42355
O	 1.2758680199	-0.6206895499	-2.0604992816	-0.303975
C	 1.7656219256	-1.3145359793	 0.2788576607	-0.225559
C	 2.1849801274	-0.2921373074	 1.3158966071	-0.323704
C	 0.7281978285	-0.6359429764	 1.2263212044	 0.202472
C	 0.0108679676	-1.2520236196	 2.2933777315	 0.194108
N	-0.5879632877	-1.7404635698	 3.1550184323	-0.339477
H	 0.8340428051	 2.1230086549	 0.3159327968	 0.124479
H	-0.3847834461	 1.9596109361	-0.952873776	 0.146469
H	-0.8709698062	 1.920886244	 0.7499087627	 0.138177
H	-0.8948034468	-0.3797259641	-0.1993631986	 0.129147
H	 2.143763811	-2.3286021657	 0.296138432	 0.138938
H	 2.7185425063	-0.7088646025	 2.1628887272	 0.155287
H	 2.5236116914	 0.6933597289	 1.013736628	 0.141101
89.7718	137.9426	191.7283	196.6339	228.3822	276.2753	424.7505	472.3895	505.9963	559.5961	596.1659	648.3517	700.2504	764.1025	805.3947	896.5263	923.1133	976.31	1006.6765	1059.8371	1086.5112	1102.921	1105.1694	1127.7099	1194.1826	1220.2704	1238.6724	1330.6467	1381.8566	1411.2896	1487.111	1495.0778	1501.5531	1896.4108	2350.1694	3043.9192	3048.1657	3115.4273	3117.7774	3136.3096	3209.2755	3226.2444
CC1C(=O)C2CC12C#N	C[C@H]1C(=O)[C@H]2C[C@@]12C#N	
InChI=1S/C7H7NO/c1-4-6(9)5-2-7(4,5)3-8/h4-5H,2H2,1H3	InChI=1S/C7H7NO/c1-4-6(9)5-2-7(4,5)3-8/h4-5H,2H2,1H3/t4-,5+,7+/m0/s1
