20
gdb 113402	4.13918	1.06196	0.97088	1.6709	80.59	-0.2345	0.0816	0.3161	1289.3391	0.169871	-403.037213	-403.028827	-403.027883	-403.070344	32.36	
C	 0.3169062981	 1.5474607756	 0.1661717596	-0.374986
C	-0.2259434772	 0.1564118777	-0.1459244881	-0.122087
N	 0.5035731124	-0.4475588299	-1.2619042786	-0.162521
C	 1.7327130092	-1.2055902458	-0.9150723577	-0.36319
C	 0.5104022372	-1.8741405019	-1.3737379009	 0.461101
C	-0.3640596521	-3.0127151853	-0.8058662433	-0.049268
C	-1.3283014312	-2.8239943098	-2.0065166226	-0.225953
C	 0.1281309067	-2.8068584147	-2.5350055404	-0.050007
O	 0.428604814	-3.9502160627	-1.6356006964	-0.308049
H	 1.3658574791	 1.4965196674	 0.4756497017	 0.12016
H	 0.2565977971	 2.1895328259	-0.71701221	 0.128402
H	-0.2530471834	 2.0124612984	 0.9763559294	 0.112818
H	-0.1828665897	-0.4749356213	 0.7592161037	 0.082838
H	-1.2810301517	 0.22415129	-0.4373700158	 0.103896
H	 2.5814410605	-1.0582727282	-1.5769822436	 0.12158
H	 1.986089074	-1.2952313711	 0.1410081927	 0.11245
H	-0.5777122965	-3.3072251668	 0.2212306501	 0.098387
H	-1.8989393354	-3.7144141145	-2.2736824689	 0.107852
H	-1.908226995	-1.8998585245	-2.0678716739	 0.106406
H	 0.5027731438	-2.8512442384	-3.5567632971	 0.100171
80.2419	118.4982	159.3351	216.4216	247.2915	331.1402	384.3053	432.6816	491.4115	636.1569	670.9445	742.47	802.5803	807.6316	820.2792	864.9485	870.8011	912.2649	952.4041	998.0386	1013.175	1037.727	1059.81	1089.7808	1099.6855	1120.9079	1133.6847	1145.1226	1169.2232	1173.4918	1200.7167	1217.3002	1240.6465	1264.5511	1308.6651	1385.4185	1410.3398	1451.4215	1478.6276	1487.8008	1491.513	1509.3506	1533.4774	2944.9419	3039.8338	3045.5108	3065.224	3090.2458	3109.3712	3119.7143	3124.1776	3133.907	3149.416	3180.1255
CCN1CC11C2CC1O2	CCN1C[C@]21[C@H]1C[C@@H]2O1	
InChI=1S/C7H11NO/c1-2-8-4-7(8)5-3-6(7)9-5/h5-6H,2-4H2,1H3	InChI=1S/C7H11NO/c1-2-8-4-7(8)5-3-6(7)9-5/h5-6H,2-4H2,1H3/t5-,6+,7+,8?
