19
gdb 53622	4.82937	0.72483	0.65867	1.1284	80.82	-0.2392	0.0614	0.3006	1730.6762	0.158129	-423.004534	-422.994682	-422.993738	-423.042345	33.191	
C	 0.0237994103	 1.4936755341	 0.1651433229	-0.496456
C	 0.0486437197	 0.0469818659	 0.0043144702	 0.073449
C	 0.0705640781	-1.1480786292	-0.1355493713	 0.055579
C	 0.0869818489	-2.5961364627	-0.2933816519	-0.372784
C	-1.2923433268	-3.2316432872	-0.1262976962	 0.228679
O	-2.1492139078	-2.866758006	-1.1925619319	-0.260774
C	-2.9407856727	-4.0018131755	-1.5306884568	-0.086515
C	-2.4411639178	-5.1045691413	-0.5758317958	-0.112144
O	-1.164478577	-4.6328926679	-0.1759594857	-0.246799
H	 0.9400451521	 1.858544556	 0.6426929547	 0.145366
H	-0.0708077542	 2.0009373086	-0.8013909752	 0.147426
H	-0.8208781285	 1.8095016351	 0.7874797566	 0.14677
H	 0.4603553985	-2.8818482857	-1.2834141707	 0.134908
H	 0.7505738939	-3.0563658354	 0.4487623048	 0.135652
H	-1.7480710029	-2.92424715	 0.8328663008	 0.06987
H	-4.0061413842	-3.7833333257	-1.391605009	 0.105849
H	-2.7690925571	-4.2546884548	-2.5833665648	 0.110659
H	-3.1073973504	-5.2104666419	 0.2933271553	 0.101201
H	-2.3195944422	-6.0802834164	-1.050673706	 0.120062
23.5111	31.8204	54.9679	78.5561	177.6448	208.0487	261.3942	327.2785	390.0549	421.8409	518.6979	695.1156	727.2036	781.6926	837.0927	877.3744	950.6611	1016.5866	1025.3416	1053.2624	1054.8303	1065.6736	1075.698	1150.2793	1169.5391	1172.0198	1224.2365	1232.4449	1246.3634	1313.8615	1344.2946	1377.9274	1401.5806	1414.7887	1426.7704	1457.8734	1478.5696	1479.635	1516.0992	1533.9482	2379.698	2935.5083	2994.3815	3025.5167	3026.1929	3033.3226	3062.9653	3075.3415	3085.8018	3086.7632	3110.4423
CC#CCC1OCCO1	CC#CCC1OCCO1	
InChI=1S/C7H10O2/c1-2-3-4-7-8-5-6-9-7/h7H,4-6H2,1H3	InChI=1S/C7H10O2/c1-2-3-4-7-8-5-6-9-7/h7H,4-6H2,1H3
