18
gdb 66108	2.6447	1.52755	1.35807	3.9505	75.16	-0.2791	0.0244	0.3035	1030.7943	0.148059	-401.959287	-401.951173	-401.950229	-401.991659	31.346	
C	 0.0192295992	 1.5248797312	-0.0467374685	-0.427382
C	 0.0340747459	-0.00196077	 0.0212513514	 0.201549
O	 0.7672501641	-0.4903949223	-1.100523343	-0.277825
C	 1.2760836872	-1.7931823701	-0.7879900462	-0.112305
C	 1.5408496303	-1.7719657628	 0.7061639099	-0.04773
C	 2.2426234786	-0.5431978142	 1.222197593	-0.313832
C	 0.7368207278	-0.6108043281	 1.2379284435	-0.057333
C	-1.3606928348	-0.5205804929	-0.0275683799	 0.264111
N	-2.4402256448	-0.9314335513	-0.0657854945	-0.341207
H	 1.042131847	 1.8991660325	 0.0287272325	 0.13226
H	-0.4128489897	 1.8564779378	-0.9935610141	 0.145888
H	-0.5743185676	 1.9371620691	 0.7731251459	 0.13537
H	 0.5390598794	-2.5696709254	-1.0376944584	 0.117891
H	 2.165920827	-1.9381785731	-1.4076298544	 0.118746
H	 1.6095263908	-2.7111016937	 1.2408441569	 0.101801
H	 2.7420529106	-0.6156074897	 2.1813946296	 0.120917
H	 2.729317115	 0.1089535807	 0.5041654551	 0.128275
H	 0.196431634	-0.6571592576	 2.174720191	 0.110805
115.1928	146.0586	215.7207	217.1651	270.3083	334.5706	374.0908	443.1671	486.8972	573.7499	635.5995	694.9163	745.8808	814.153	836.9668	884.0476	899.7792	921.4904	980.2006	1013.7995	1054.2431	1074.0479	1081.4511	1101.5993	1119.0684	1152.804	1175.1557	1190.8618	1206.7307	1245.0216	1333.7294	1361.2353	1393.6763	1408.3082	1475.8062	1481.586	1489.6728	1513.3192	2349.3364	3008.5458	3056.6553	3085.9409	3133.8204	3136.1058	3142.9424	3191.1737	3199.3399	3224.3067
CC1(OCC2CC12)C#N	C[C@]1(OC[C@H]2C[C@@H]12)C#N	
InChI=1S/C7H9NO/c1-7(4-8)6-2-5(6)3-9-7/h5-6H,2-3H2,1H3	InChI=1S/C7H9NO/c1-7(4-8)6-2-5(6)3-9-7/h5-6H,2-3H2,1H3/t5-,6-,7+/m1/s1
