18
gdb 63195	3.27606	1.57837	1.48108	3.5262	76.46	-0.2154	-0.0534	0.1619	966.0021	0.144942	-401.817725	-401.809843	-401.808899	-401.849439	31.783	
C	 0.0121617517	 1.5193714071	-0.0760201867	-0.394492
C	-0.0308343553	-0.0059908762	 0.002797462	 0.275168
C	-1.4615572438	-0.5419546917	-0.0458346981	-0.414662
N	 0.8492035	-0.48162601	-1.1623473824	-0.266843
C	 1.5921102078	-1.3130228843	-0.569204181	 0.260629
O	 2.921460629	-1.0163817745	-0.2235309057	-0.268558
C	 2.3088141413	-0.9980674934	 1.1433269533	 0.060371
C	 1.2239065209	-1.9180696942	 0.8286620344	-0.208758
C	 0.7541542342	-0.5647917326	 1.2360693597	-0.112229
H	 1.0450795899	 1.8707584942	-0.1216471244	 0.132941
H	-0.5129542534	 1.8765371494	-0.9656587615	 0.125937
H	-0.4690251278	 1.9475337843	 0.8117220696	 0.106291
H	-1.9255629455	-0.2558528982	-0.9941242584	 0.131777
H	-1.4766113914	-1.6329720392	 0.0270051422	 0.118924
H	-2.067835882	-0.1342988336	 0.7708210871	 0.11213
H	 3.0174312888	-0.9259743171	 1.9592596197	 0.130371
H	 0.9817870099	-2.9294449594	 1.1229065181	 0.117075
H	 0.4041007256	-0.3557624707	 2.2453559521	 0.093927
126.1475	214.8258	228.16	252.3335	304.0028	359.5228	396.5354	482.411	552.1508	568.9142	626.3965	691.5098	724.4225	770.2164	778.6606	812.322	861.792	894.664	935.9777	943.1041	979.7412	1002.7949	1022.8623	1036.6508	1084.1112	1131.8243	1174.7931	1180.3067	1199.4522	1213.6985	1276.199	1349.4587	1393.0753	1410.9129	1471.3084	1479.287	1491.3503	1501.0039	1622.9499	3029.5181	3035.4289	3102.677	3108.4095	3118.4827	3133.8406	3136.7678	3197.7081	3213.6111
CC1(C)N=C2OC3C2C13	CC1(C)[N][C]2O[C@@H]3[C@H]2[C@H]13	
InChI=1S/C7H9NO/c1-7(2)4-3-5(4)9-6(3)8-7/h3-5H,1-2H3	InChI=1S/C7H9NO/c1-7(2)4-3-5(4)9-6(3)8-7/h3-5H,1-2H3/t3-,4+,5-/m1/s1
