21
gdb 83337	2.07843	1.62486	1.51541	2.2713	77.37	-0.2444	0.067	0.3115	1056.5534	0.183119	-424.21823	-424.209534	-424.20859	-424.250675	34.914	
C	-0.1732008537	 1.6307531062	 0.0164906093	-0.445116
C	 0.0234800962	 0.1237288033	 0.0286112386	-0.015207
C	 1.1361528519	-0.5892381092	-0.8027841184	-0.101936
C	 2.4369610837	 0.065658065	-0.2871587413	-0.226356
C	 2.1356405585	 0.0603441498	 1.2492254782	-0.257961
C	 0.7592455724	-0.6107688617	 1.2108356764	 0.409585
O	 0.1737653068	-0.8394659904	 2.4479858615	-0.499592
C	 1.0092229818	-1.7717426831	 0.2054093218	 0.078767
O	-0.149335031	-2.5779178808	 0.1254076555	-0.459298
H	 0.7573057107	 2.1885217726	 0.1550250851	 0.114392
H	-0.6155337311	 1.9593907839	-0.9306706778	 0.111708
H	-0.8567994385	 1.929521936	 0.8189911111	 0.121986
H	-0.9296591508	-0.3783342782	-0.1489576399	 0.078926
H	 1.0382526377	-0.7453718772	-1.8779911198	 0.053385
H	 3.3218032462	-0.5259490341	-0.5400190691	 0.095509
H	 2.5867134285	 1.0712061065	-0.6873052209	 0.10253
H	 2.8516381825	-0.53206991	 1.8252302087	 0.100648
H	 2.0965522069	 1.0597502405	 1.6887725445	 0.10511
H	-0.5552389176	-1.4545331871	 2.301967072	 0.288243
H	 1.9069790827	-2.3867261844	 0.3618506229	 0.05712
H	-0.0719399536	-3.1553136578	-0.6397104086	 0.287556
167.9189	189.2063	219.9446	235.622	253.1005	291.2485	310.8131	387.4988	398.2629	460.3228	495.7291	618.5171	635.9596	689.5097	753.4451	798.2453	834.9881	891.5131	925.2042	952.3734	968.8067	1003.7889	1032.5033	1054.6985	1093.1457	1121.9377	1147.3621	1149.5344	1175.8066	1183.4686	1216.4619	1240.4534	1247.5879	1265.8361	1294.959	1312.7945	1338.6304	1384.7573	1407.1407	1422.5502	1431.8547	1485.4057	1497.1754	1507.5679	1518.6858	2998.8655	3031.7757	3055.3591	3065.9034	3086.4555	3089.7582	3094.1373	3104.7347	3109.8491	3114.7943	3788.6044	3827.2503
CC1C2CCC1(O)C2O	C[C@H]1[C@H]2CC[C@]1(O)[C@H]2O	
InChI=1S/C7H12O2/c1-4-5-2-3-7(4,9)6(5)8/h4-6,8-9H,2-3H2,1H3	InChI=1S/C7H12O2/c1-4-5-2-3-7(4,9)6(5)8/h4-6,8-9H,2-3H2,1H3/t4-,5+,6-,7+/m0/s1
