23
gdb 120555	5.31251	0.61179	0.59565	1.6788	83.79	-0.2461	0.0732	0.3193	1954.4878	0.204307	-425.408107	-425.39769	-425.396746	-425.444538	37.612	
C	-0.2608603177	 1.539557091	 0.0443953882	-0.384696
C	-0.2034406663	 0.0327052269	 0.2299760618	-0.041209
O	-1.3944128407	-0.5302748657	-0.2892545425	-0.25228
C	-1.4455226534	-1.9264615688	-0.1972695383	 0.172794
C	-1.7553234281	-2.5876219823	 1.1779796293	-0.287131
C	-2.7207973636	-3.5528038386	 0.4329823094	 0.019479
C	-4.0449426919	-3.8964731211	 1.0942098754	-0.079435
O	-4.8804294	-4.6959438797	 0.2706220499	-0.420776
C	-2.7341310745	-2.5525684354	-0.7625674381	-0.292964
H	 0.6490531946	 2.0074743883	 0.4319587504	 0.113892
H	-0.3580183006	 1.7914819659	-1.0154706152	 0.126362
H	-1.1202527755	 1.9588853433	 0.5753148308	 0.125812
H	 0.6717962583	-0.3894440671	-0.2926754448	 0.085179
H	-0.0932910022	-0.219869419	 1.2970166483	 0.090032
H	-0.5460720928	-2.3742093548	-0.6492966699	 0.063293
H	-0.932809138	-3.0224647372	 1.7499229695	 0.09737
H	-2.3075938075	-1.8863733159	 1.8131535268	 0.104041
H	-2.2119728047	-4.4806367306	 0.1529797881	 0.079107
H	-3.8732727112	-4.484656088	 2.0030672534	 0.108467
H	-4.5552851504	-2.967276824	 1.3997758751	 0.080932
H	-5.0718124107	-4.1898602099	-0.5257187611	 0.284732
H	-3.55604969	-1.8335677683	-0.6717738274	 0.106336
H	-2.7075930631	-2.9448195588	-1.7814324892	 0.100662
47.4292	71.3155	80.3456	120.9002	181.1576	211.7183	247.2431	313.5577	326.4131	385.8348	425.3902	449.7946	476.6959	645.829	786.3684	814.231	821.8441	888.185	903.6444	947.3827	961.7634	1034.1304	1050.7367	1057.7978	1068.8543	1109.6805	1123.6587	1155.4191	1172.4814	1187.8301	1214.7699	1219.7425	1248.3169	1266.5922	1271.4071	1297.1878	1305.5526	1351.4253	1373.4214	1392.7311	1404.5158	1422.3065	1442.5844	1469.4864	1483.5817	1495.0846	1499.8948	1507.6344	1529.3855	2957.224	2961.55	2973.2813	2987.2785	3044.4791	3044.7948	3049.3588	3055.2891	3067.0384	3109.953	3114.1049	3119.0169	3121.0119	3812.7055
CCOC1CC(CO)C1	CCO[C@H]1C[C@@H](CO)C1	
InChI=1S/C7H14O2/c1-2-9-7-3-6(4-7)5-8/h6-8H,2-5H2,1H3	InChI=1S/C7H14O2/c1-2-9-7-3-6(4-7)5-8/h6-8H,2-5H2,1H3/t6-,7+
