15
gdb 129576	4.08803	0.99519	0.85679	2.1554	62.83	-0.272	-0.0782	0.1938	1277.9679	0.11269	-487.193865	-487.185597	-487.184653	-487.227718	29.551	
N	-0.2743811432	 1.4638168552	 0.0710173586	-0.516384
C	-0.0523064756	 0.0237203359	-0.0394587428	-0.119179
C	-1.4132183869	-0.6820983547	 0.1661986874	-0.044573
O	-1.9704203354	-0.3013493413	 1.395598947	-0.416294
C	 0.5938510179	-0.4193687212	-1.3193644361	 0.408098
N	 0.7726909925	 0.3241692589	-2.3730109608	-0.161971
O	 1.3571049771	-0.4946005452	-3.2801226728	-0.137349
N	 1.5146469428	-1.7541435907	-2.7095374178	 0.051537
N	 1.0581606954	-1.708190563	-1.5406029278	-0.20345
H	 0.6006171224	 1.958178379	 0.209061313	 0.249116
H	-0.6771348067	 1.8239358138	-0.7902600477	 0.251189
H	 0.5932277512	-0.286234672	 0.789843342	 0.127991
H	-2.0698032697	-0.4301609788	-0.6856581485	 0.088915
H	-1.2776895452	-1.7674940257	 0.1737429766	 0.13171
H	-1.8380923266	 0.6567286097	 1.4467928598	 0.290641
43.6194	120.5892	126.2114	230.1778	276.2499	300.6206	365.0929	430.4841	510.849	546.1807	673.5318	696.1843	741.2844	810.2304	892.1984	923.607	963.9993	1006.8254	1062.1467	1100.315	1105.4706	1133.7239	1180.4629	1236.0961	1289.5553	1315.3656	1376.6851	1409.9905	1444.7237	1479.7265	1511.9409	1585.853	1664.6542	2949.8057	3060.4315	3091.9115	3500.6532	3580.7389	3726.9118
NC(CO)C1=NON=N1	N[C@@H](CO)c1nonn1	
InChI=1S/C3H6N4O2/c4-2(1-8)3-5-7-9-6-3/h2,8H,1,4H2	InChI=1S/C3H6N4O2/c4-2(1-8)3-5-7-9-6-3/h2,8H,1,4H2/t2-/m0/s1
