18
gdb 7423	3.27421	1.49242	1.20347	1.8839	70.25	-0.2469	-0.0511	0.1957	1062.7372	0.152449	-381.158056	-381.148673	-381.147728	-381.192191	33.893	
C	-0.096213645	 1.5434860124	-0.0719153276	-0.395526
C	-0.0188139743	 0.0035414685	 0.0392262447	-0.061033
C	 0.7291587358	-0.4389224692	 1.2990339578	-0.392022
C	-1.4298751359	-0.5532690638	 0.0181746596	 0.383296
O	-2.0294098413	-0.8915372429	 1.0181726611	-0.337007
C	-2.1325441643	-0.6794887363	-1.3345657651	 0.26125
N	-3.4495947116	-1.0082193324	-1.1974545154	-0.533054
N	-1.4549103475	-0.4619493307	-2.4002056148	-0.508525
H	 0.9145113122	 1.9624287734	-0.0776852147	 0.119954
H	-0.597483137	 1.8466518792	-0.9936512456	 0.138323
H	-0.6346464128	 1.9698794233	 0.781326649	 0.121509
H	 0.4838562159	-0.3609844185	-0.8610070564	 0.119149
H	 0.2089062737	-0.1030945292	 2.2001584488	 0.129477
H	 0.8115908188	-1.5285047687	 1.3530731663	 0.11648
H	 1.7396090592	-0.0194323274	 1.3043683177	 0.108918
H	-3.7332283289	-1.3074005435	-0.276101518	 0.27079
H	-3.9675500089	-1.3482276602	-1.9895453947	 0.252135
H	-2.0229935681	-0.5879777841	-3.2412254129	 0.205886
53.9906	74.2595	193.7254	203.4103	214.9802	255.0538	306.931	333.9831	364.9821	420.2206	479.1107	526.9235	557.1124	609.502	732.1833	812.0452	880.2479	885.3014	935.7685	972.6342	1045.5591	1099.0992	1114.3518	1128.9942	1147.4367	1196.5193	1320.8909	1363.7785	1392.8088	1415.9137	1432.38	1487.3586	1488.7116	1500.2403	1512.4645	1597.9519	1714.8009	1784.9086	3037.1297	3043.194	3077.5196	3106.9538	3111.2344	3122.7168	3131.4574	3439.4513	3578.2725	3712.9893
CC(C)C(=O)C(N)=N	CC(C)C(=O)C(=N)N	
InChI=1S/C5H10N2O/c1-3(2)4(8)5(6)7/h3H,1-2H3,(H3,6,7)	InChI=1S/C5H10N2O/c1-3(2)4(8)5(6)7/h3H,1-2H3,(H3,6,7)
