19
gdb 103104	2.25593	1.20462	1.16435	0.399	78.47	-0.2415	0.0343	0.2758	1216.0604	0.154982	-422.974819	-422.964405	-422.963461	-423.009949	38.308	
C	 0.2030861134	 1.5668627483	 0.1925696403	-0.402025
C	-0.1695203516	 0.1074801414	-0.0961541936	-0.222589
C	 0.6159920425	-0.4694801713	-1.2533494614	 0.345517
O	 0.412630083	 0.1471917829	-2.4980284121	-0.466736
C	 1.9779021312	-1.0744940642	-1.0326177622	 0.037906
O	 2.5031015376	-1.1511012712	 0.2518956187	-0.423711
C	 0.7948110158	-1.9774183417	-1.4137293504	-0.332736
C	 0.3306391864	-2.9070515545	-0.4324471188	 0.300476
C	 0.0180419313	-3.6927310649	 0.4259586299	-0.425939
H	 1.2614886963	 1.6536939182	 0.4581694928	 0.13247
H	 0.0086328557	 2.2103598631	-0.6727988241	 0.107514
H	-0.3864577273	 1.9608486303	 1.0252709916	 0.118077
H	 0.0113041386	-0.5001877855	 0.7931867097	 0.114313
H	-1.2373659338	 0.0286591015	-0.3311022411	 0.106281
H	 0.8547038249	 1.0035015351	-2.4784964751	 0.286838
H	 2.7198772826	-0.9152193315	-1.8133239785	 0.102306
H	 2.3110676008	-2.0296107536	 0.6058564451	 0.293931
H	 0.7773625448	-2.3169114627	-2.4443243215	 0.127752
H	-0.3055766424	-4.3858551696	 1.1626481407	 0.200356
63.3405	106.2087	114.0762	187.4543	210.7361	245.6653	248.1045	278.8267	315.9672	371.5726	395.2187	413.7778	516.9139	592.1473	612.7173	641.4809	663.1811	706.3604	781.6781	823.8577	878.3611	937.9487	999.9724	1039.351	1065.0549	1086.9482	1111.0352	1153.6592	1210.166	1286.7258	1301.5158	1308.8697	1333.1317	1368.228	1380.3925	1403.5494	1438.1515	1470.6053	1502.8484	1508.5841	2224.05	3033.4118	3044.8608	3092.4299	3112.1118	3117.7519	3120.2088	3165.6042	3501.5156	3747.3127	3795.6663
CCC1(O)C(O)C1C#C	CC[C@@]1(O)[C@@H](O)[C@H]1C#C	
InChI=1S/C7H10O2/c1-3-5-6(8)7(5,9)4-2/h1,5-6,8-9H,4H2,2H3	InChI=1S/C7H10O2/c1-3-5-6(8)7(5,9)4-2/h1,5-6,8-9H,4H2,2H3/t5-,6+,7+/m1/s1
