16
gdb 8306	6.05418	0.94795	0.88751	2.8556	61.37	-0.2745	0.0082	0.2827	1259.9685	0.129845	-420.900122	-420.892022	-420.891078	-420.933428	28.669	
O	 0.3322942383	 1.3579140517	 0.261687615	-0.415179
C	 0.1222681332	-0.0100153348	-0.0426688004	-0.067124
C	-1.3070734331	-0.4654213491	 0.2731399752	-0.221196
C	-1.5293136845	-1.939008408	 0.0055011348	 0.133638
C	-2.9737611294	-2.4728479441	-0.0135528505	-0.438896
C	-2.6837211823	-2.7455194113	-1.4900811703	 0.449814
O	-3.2471795929	-3.1962325326	-2.433366148	-0.312666
O	-1.4001436563	-2.2625244067	-1.4310984665	-0.252909
H	-0.155271251	 1.8833023616	-0.3804827938	 0.285044
H	 0.359424681	-0.2369628078	-1.0915942183	 0.115513
H	 0.8338205051	-0.5661036933	 0.5783047099	 0.113803
H	-1.5235889183	-0.2588747439	 1.3282708092	 0.118642
H	-2.0210694916	 0.1174651236	-0.3243173885	 0.098527
H	-0.8276068972	-2.5628473934	 0.5674822793	 0.102171
H	-3.1739720589	-3.367866802	 0.577305474	 0.146766
H	-3.7583001721	-1.7339033398	 0.160786909	 0.144052
67.4215	100.7907	122.7927	173.394	296.3456	338.3752	365.651	483.2032	521.6664	529.7736	725.4462	793.8955	846.2426	887.6294	939.8958	993.2092	1050.9427	1058.6775	1075.8368	1105.1775	1119.3347	1139.2992	1213.1192	1225.5716	1266.9146	1319.1066	1331.4728	1387.3676	1415.1551	1422.941	1457.596	1473.3598	1513.012	1941.8544	3009.3456	3019.9503	3058.6947	3066.5019	3084.5292	3088.7055	3146.5074	3818.8491
OCCC1CC(=O)O1	OCC[C@H]1CC(=O)O1	
InChI=1S/C5H8O3/c6-2-1-4-3-5(7)8-4/h4,6H,1-3H2	InChI=1S/C5H8O3/c6-2-1-4-3-5(7)8-4/h4,6H,1-3H2/t4-/m0/s1
