14
gdb 97530	2.33464	0.61354	0.4871	8.2587	98.13	-0.2689	-0.1176	0.1513	2153.9335	0.094878	-395.699441	-395.687513	-395.686569	-395.74092	37.449	
N	-1.6116916228	-0.0088684885	 0.0504644938	-0.697734
H	-1.6009466986	-0.8035847905	 0.6843337887	 0.250086
H	-1.6386440665	-0.3973073394	-0.8886140918	 0.250087
H	-2.5083765098	 0.449710529	 0.1904009208	 0.253561
C	 0.7243066673	 2.2903419374	 0.5883012855	-0.40618
C	 0.3308074051	 3.5025533136	 0.9106911039	 0.18106
C	-0.0628841695	 4.655406212	 1.2177593962	 0.084862
C	-0.4873296183	 5.8773958567	 1.5434133251	-0.150658
C	-1.8848922691	 6.1673657278	 1.6516728517	 0.24606
N	-3.0168580897	 6.3947622821	 1.7374306213	-0.322495
C	 0.4349608204	 6.9421160145	 1.7962848543	 0.246554
N	 1.183209246	 7.8016376393	 2.0003330798	-0.320263
H	 0.0016946676	 1.4888831124	 0.3986321409	 0.221277
H	 1.7838294378	 2.0620318535	 0.50403856	 0.163782
12.24	23.7441	36.9969	74.1444	133.6653	134.534	154.4634	218.7309	221.9815	279.2486	305.4011	379.1624	412.0544	535.5771	569.0657	575.184	611.7816	630.7216	686.5346	1006.1727	1043.9719	1088.1817	1120.311	1179.9334	1460.8737	1663.1283	1677.6477	1678.8462	2195.9384	2332.7517	2350.3495	3029.7982	3185.5231	3468.2875	3584.1523	3585.6575	12.2398	23.7441	36.997	74.1444	133.6653	134.534	154.4634	218.7309	221.9815	279.2488	305.4011	379.1622	412.0543	535.5766	569.0656	575.184	611.7815	630.7215	686.5347	1006.1727	1043.9719	1088.1817	1120.3111	1179.9334	1460.8737	1663.1283	1677.6478	1678.8462	2195.9382	2332.7515	2350.3493	3029.7982	3185.5231	3468.2875	3584.1523	3585.6575
[NH3+]CC#C[C-](C#N)C#N	N.[CH2]C#C[C](C#N)C#N	
InChI=1S/C6H4N3/c7-3-1-2-6(4-8)5-9/h3,7H2/q-1/p+1	InChI=1S/C6H2N2.H3N/c1-2-3-6(4-7)5-8;/h1H2;1H3
