19
gdb 113691	3.56421	0.82018	0.74848	2.0629	73.98	-0.2631	-0.0285	0.2346	1538.7204	0.15725	-460.157689	-460.147818	-460.146874	-460.19334	35.185	
O	-0.1530147994	 1.399238326	-0.3706481454	-0.423205
C	 0.0070668214	 0.0770873797	 0.1310650989	-0.116115
C	-1.3508183461	-0.5763364968	 0.0625907193	 0.019918
C	-1.8192154368	-1.2718986799	-1.1659371571	-0.275118
C	-1.5322279162	-2.0984035682	 0.0826868047	-0.147059
C	-0.3766992844	-3.0243544016	 0.0812894082	 0.35997
O	 0.6295396272	-2.8716878308	-0.5901877361	-0.35523
C	-0.4751492241	-4.2542170788	 0.9757425571	-0.134357
O	 0.6697878378	-5.043716991	 0.8842154888	-0.421645
H	 0.7124027245	 1.818631347	-0.377102779	 0.288361
H	 0.7315864594	-0.4980687628	-0.4563575012	 0.123382
H	 0.3573065248	 0.0916744802	 1.1760556863	 0.085992
H	-2.1083092865	-0.0455827804	 0.6327371623	 0.106427
H	-2.8543335735	-1.1772885407	-1.4724391155	 0.124342
H	-1.1020367223	-1.3936222109	-1.9704785815	 0.143132
H	-2.3870478139	-2.4532238242	 0.6496450884	 0.09557
H	-0.6486227862	-3.9115805066	 2.0103080894	 0.116456
H	-1.3798910142	-4.8153309305	 0.6841570618	 0.115862
H	 1.2337371485	-4.5856722498	 0.2390771006	 0.293317
45.7646	81.74	114.5752	139.6352	200.2253	237.3618	247.4316	311.6417	372.3072	392.3843	441.2556	486.4623	591.1674	687.4997	801.6992	824.3989	871.0623	900.8972	951.2844	992.2843	1027.9977	1062.419	1070.6882	1093.1288	1120.495	1136.2625	1154.863	1174.7833	1223.61	1244.0776	1264.7065	1282.5655	1307.015	1387.393	1420.469	1455.3327	1468.3747	1488.0176	1494.5899	1530.5638	1767.8072	2963.0198	2969.8492	2978.0793	3061.1792	3140.1846	3149.4986	3162.2202	3234.0131	3670.0155	3830.3685
OCC1CC1C(=O)CO	OC[C@H]1C[C@H]1C(=O)CO	
InChI=1S/C6H10O3/c7-2-4-1-5(4)6(9)3-8/h4-5,7-8H,1-3H2	InChI=1S/C6H10O3/c7-2-4-1-5(4)6(9)3-8/h4-5,7-8H,1-3H2/t4-,5-/m1/s1
