21
gdb 89543	4.33768	0.99756	0.95819	1.5473	82.79	-0.2455	0.0782	0.3237	1309.506	0.183099	-387.04453	-387.036274	-387.03533	-387.077308	32.933	
O	 0.741102862	 0.4866692303	-0.8104036698	-0.433854
C	-0.0012276515	-0.2885907347	 0.0943886284	 0.176078
C	 0.1022856825	-0.0104761198	 1.6225821822	-0.356191
C	-1.4090203056	-0.2841957732	 1.7026963623	 0.388414
C	-1.5448002031	-0.1117870079	 0.1826077161	-0.363042
C	-2.1169317577	-1.3826852101	 2.4397303583	-0.119299
C	-1.5597638513	-1.5336701757	 3.8600735042	-0.231967
C	-1.8824119894	-0.0269845054	 4.1334620165	-0.230551
C	-2.4431809409	 0.0975051101	 2.7102726728	-0.138564
H	 0.5448243924	 1.413697409	-0.637588488	 0.275181
H	 0.2576762169	-1.3272348166	-0.1285147644	 0.095903
H	 0.7825877935	-0.6372501411	 2.204411352	 0.103258
H	 0.3417084025	 1.0426930809	 1.8171211149	 0.089463
H	-1.8394343606	 0.9088833298	-0.0928125468	 0.089137
H	-2.1720684325	-0.8170810192	-0.3692343158	 0.102744
H	-2.7031436929	-2.1263682382	 1.9106493835	 0.080187
H	-2.1598623188	-2.2005065368	 4.4830718605	 0.103286
H	-0.5111175875	-1.8398440694	 3.9386499406	 0.094449
H	-2.6429162234	 0.0972811841	 4.9073504344	 0.1022
H	-1.035577395	 0.6253214964	 4.3721855644	 0.094748
H	-3.3212416496	 0.6676293675	 2.4264391838	 0.078421
73.0555	155.8261	186.8442	257.5633	296.1345	349.4223	384.8543	439.89	466.9568	543.7976	699.8851	723.4768	781.8184	818.7064	841.0572	857.6097	915.1893	926.7265	960.9247	977.4667	979.9298	1003.977	1025.2391	1054.6854	1065.915	1083.15	1099.0275	1115.2448	1182.8516	1187.7399	1211.8263	1223.3035	1230.6064	1247.0075	1253.3203	1278.863	1288.0305	1289.3211	1332.0268	1428.0563	1447.8424	1467.8178	1480.4058	1494.4889	1502.168	3022.289	3028.3658	3039.7557	3047.7774	3072.1069	3092.2823	3093.6446	3100.1308	3111.9443	3159.1291	3170.2116	3803.4875
OC1CC2(C1)C1CCC21	O[C@H]1C[C@@]2(C1)[C@H]1CC[C@@H]21	
InChI=1S/C8H12O/c9-5-3-8(4-5)6-1-2-7(6)8/h5-7,9H,1-4H2	InChI=1S/C8H12O/c9-5-3-8(4-5)6-1-2-7(6)8/h5-7,9H,1-4H2/t5-,6-,7+,8-/m1/s1
