14
gdb 129848	3.27351	1.40623	0.98385	2.0695	69.76	-0.2067	-0.0314	0.1752	1099.7561	0.103258	-470.06221	-470.054566	-470.053621	-470.094056	29.614	
N	 0.026322398	 1.3721524616	 0.0856361337	-0.577023
C	-0.0836466364	 0.0267705418	 0.0317873705	 0.292295
C	-1.2302603042	-0.7186711178	 0.0201818269	-0.33126
C	-1.1126815835	-2.1348009291	-0.0039307886	 0.466369
O	-2.2649429362	-2.8436726274	-0.0085971381	-0.421957
N	 0.0058616822	-2.798230342	-0.0210035247	-0.346555
N	 1.1295639467	-2.0218115126	-0.017680281	-0.297563
C	 1.2258523236	-0.6610022146	 0.0017620049	 0.413995
O	 2.2948387701	-0.0553613635	-0.0111022391	-0.421752
H	 0.9621985607	 1.733027331	-0.0324142082	 0.278879
H	-0.7634168878	 1.9731623258	-0.0662922135	 0.263781
H	-2.2175289607	-0.2723152142	 0.0340734267	 0.106663
H	-2.0151159625	-3.7775108116	-0.0248928426	 0.302315
H	 1.99747435	-2.5374828375	-0.0412616671	 0.271815
132.7844	194.5063	234.1492	314.0485	375.287	377.1485	435.4234	474.4253	495.5194	527.2092	569.1831	606.5966	656.4201	708.219	742.3806	789.9611	818.7486	861.629	988.4486	1079.554	1166.0137	1240.2071	1300.8757	1310.8614	1415.3084	1450.8855	1502.0759	1587.6009	1634.6232	1680.447	1754.67	3197.0704	3576.9621	3618.5849	3730.2751	3776.9559
NC1=CC(O)=NNC1=O	Nc1cc(O)n[nH]c1=O	
InChI=1S/C4H5N3O2/c5-2-1-3(8)6-7-4(2)9/h1H,(H,7,9)(H3,5,6,8)	InChI=1S/C4H5N3O2/c5-2-1-3(8)6-7-4(2)9/h1H,(H,7,9)(H3,5,6,8)
