25
gdb 91331	2.62017	1.41325	1.11753	0.1191	92.13	-0.2707	0.0782	0.3489	1241.9081	0.231099	-352.372594	-352.363862	-352.362918	-352.405129	36.097	
C	 0.1192274108	 1.5859507288	 0.0184575319	-0.410373
C	 0.0310789997	 0.0583621817	-0.0083658253	 0.048253
C	 0.6456731775	-0.5451210477	-1.2953289123	-0.208296
C	 1.0426501775	-2.0149813827	-1.0864141578	-0.017277
C	 0.1163240498	-2.7043370843	-0.0420783698	-0.263876
C	 1.0297228436	-2.06149282	 1.0518317593	 0.342427
C	 1.2438388122	-2.8021354621	 2.3607910631	-0.477953
C	 2.1629073704	-2.0963645251	-0.0167005191	-0.241447
C	 0.6277621435	-0.5867956217	 1.2673731936	-0.242086
H	 1.164260813	 1.9175757347	 0.0313782566	 0.110891
H	-0.3586707719	 2.0278363807	-0.8629241993	 0.108294
H	-0.3717017446	 1.9990048123	 0.9066467489	 0.108251
H	-1.0340063469	-0.2040451935	-0.0197207951	 0.075451
H	-0.0754597177	-0.4480375515	-2.1161461618	 0.087839
H	 1.5359722268	 0.022998058	-1.5983526905	 0.088863
H	 1.2116464672	-2.5272117739	-2.0368362391	 0.054731
H	-0.9525324083	-2.4719615582	-0.0436119565	 0.086005
H	 0.2405415904	-3.7913121953	-0.0604251995	 0.087367
H	 1.574368824	-3.831614386	 2.1846391801	 0.105484
H	 2.0055818622	-2.3072407533	 2.9756317412	 0.110312
H	 0.3204784511	-2.8422236528	 2.9510113116	 0.109532
H	 2.670970759	-3.0658887204	-0.0298722544	 0.084871
H	 2.9120028132	-1.2972320302	 0.0039277554	 0.079833
H	 1.5149068568	-0.0292567997	 1.5994602564	 0.087846
H	-0.1045089892	-0.5078837677	 2.0814641825	 0.085061
118.6252	207.9452	229.6043	241.1181	264.6498	333.8036	374.3352	407.7073	411.7892	430.2107	448.4065	546.1845	645.3415	788.2012	834.2106	855.282	861.6819	866.0037	904.864	917.1666	931.4268	975.8863	981.6421	1011.0834	1023.1286	1064.4893	1067.0212	1091.6758	1100.8548	1131.9366	1186.0535	1213.5809	1216.0834	1229.633	1253.0865	1266.8778	1288.0251	1305.7782	1321.664	1349.4617	1353.3741	1377.3192	1391.2878	1411.4795	1412.5665	1481.4188	1486.4661	1491.5813	1493.9036	1495.1373	1498.6205	1500.4556	1515.9629	3001.312	3007.5565	3010.7729	3016.4695	3021.891	3032.2546	3040.8391	3047.1379	3051.0415	3071.8291	3079.5081	3085.9189	3088.4836	3090.3382	3091.4648	3097.7071
CC1CC2CC(C)(C2)C1	C[C@H]1C[C@@H]2C[C@@](C)(C2)C1	
InChI=1S/C9H16/c1-7-3-8-5-9(2,4-7)6-8/h7-8H,3-6H2,1-2H3	InChI=1S/C9H16/c1-7-3-8-5-9(2,4-7)6-8/h7-8H,3-6H2,1-2H3/t7-,8-,9+/m0/s1
