14
gdb 43653	2.88152	1.28424	1.06196	3.7081	68.62	-0.2629	-0.0799	0.183	1108.6939	0.102245	-432.906756	-432.898926	-432.897982	-432.93989	28.523	
N	-0.1346600165	 1.2689669008	 0.109578547	-0.522582
C	-0.0408196192	 0.0081672464	-0.0011410299	 0.285291
N	-1.0821486555	-0.8632100511	-0.2379958643	-0.300493
C	-0.7469348466	-2.267445529	-0.0283503481	-0.144332
C	 0.8019068741	-2.2958207724	-0.133016805	-0.353161
C	 1.2163587183	-0.8415094828	 0.067222785	 0.361554
O	 2.3231918813	-0.4108865535	 0.2412712829	-0.291384
C	-1.222606675	-2.7716656426	 1.2758501093	 0.272345
N	-1.6157612012	-3.1607430333	 2.2903243959	-0.301936
H	 0.804276156	 1.6519280848	 0.2408853864	 0.241889
H	-2.03318178	-0.5443751228	-0.1294883937	 0.272212
H	-1.2073088797	-2.8885344566	-0.8035283858	 0.146652
H	 1.2762677256	-2.9569002416	 0.5924960113	 0.171021
H	 1.1091338185	-2.6130502265	-1.1343214912	 0.162925
53.1015	94.321	198.5456	261.1256	310.4731	380.3455	460.7442	494.4875	531.8826	602.0564	632.4684	661.6378	752.8718	771.7514	820.6696	876.0002	976.3558	1003.4329	1057.1744	1097.689	1164.7359	1182.876	1232.0457	1298.4544	1360.7221	1399.5723	1427.3715	1446.9637	1749.1422	1862.7494	2355.7372	3054.5781	3074.4907	3143.2714	3462.3886	3628.3166
N=C1NC(CC1=O)C#N	[NH][C]1N[C@@H](CC1=O)C#N	
InChI=1S/C5H5N3O/c6-2-3-1-4(9)5(7)8-3/h3H,1H2,(H2,7,8)	InChI=1S/C5H5N3O/c6-2-3-1-4(9)5(7)8-3/h3H,1H2,(H2,7,8)/t3-/m0/s1
