14
gdb 25078	3.44064	1.72505	1.15728	5.1576	71.62	-0.2057	-0.0359	0.1698	968.9134	0.103625	-436.74599	-436.739512	-436.738568	-436.776944	25.195	
O	 0.053812235	-0.0138517332	 0.001355525	-0.410454
C	 0.0487948522	 1.1866145218	 0.0085907408	 0.489622
O	-1.1034392258	 1.9743868983	 0.029338981	-0.228194
C	-0.7447229854	 3.310856783	 0.0317207674	-0.178388
C	 0.5959778887	 3.4001538347	 0.0132518311	 0.333308
C	 1.7522640315	 4.2707832318	 0.000839355	-0.2166
C	 2.8613404149	 3.5091169496	-0.01981043	-0.091028
C	 2.52737242	 2.0291741247	-0.0228891003	-0.232303
N	 1.077117135	 2.0877302739	-0.000686553	-0.165851
H	-1.5425504409	 4.0310345683	 0.0470283633	 0.155916
H	 1.7107283427	 5.3501218479	 0.0073174998	 0.128307
H	 3.8814582042	 3.8678703039	-0.0330350809	 0.123513
H	 2.9004065324	 1.5099241959	-0.9158162787	 0.146082
H	 2.9271093255	 1.5002436094	 0.8526249995	 0.14607
130.3948	192.1869	304.7951	307.685	465.32	586.835	639.2035	666.6832	670.0355	676.732	742.5276	767.2388	806.1485	863.3142	942.7889	951.0754	992.4487	1011.2459	1081.6683	1098.3766	1156.1587	1187.4555	1262.7894	1287.2951	1360.7746	1371.094	1413.2241	1502.615	1612.6508	1704.6832	1891.0814	3014.6802	3039.4434	3229.666	3253.0686	3302.9311
O=C1OC=C2C=CCN12	O=c1occ2C=CCn12	
InChI=1S/C6H5NO2/c8-6-7-3-1-2-5(7)4-9-6/h1-2,4H,3H2	InChI=1S/C6H5NO2/c8-6-7-3-1-2-5(7)4-9-6/h1-2,4H,3H2
