19
gdb 113404	4.11128	1.07312	0.98131	2.3002	77.43	-0.2299	0.079	0.3089	1260.9311	0.157657	-422.911403	-422.903073	-422.902129	-422.944571	31.636	
C	-0.3400072344	 1.3096457496	 0.1131834766	-0.230311
O	 0.5935491616	 0.2777239804	-0.1407397944	-0.245305
C	 1.0397969774	-0.3490048626	 1.0195403774	 0.005042
C	 0.2018133535	-1.4705061551	 1.6402126095	-0.42429
C	 1.4604517289	-1.7611791905	 0.895439997	 0.430504
C	 1.7583160295	-2.6687356808	-0.303268235	-0.0279
C	 3.245227512	-2.2410432769	-0.2280070014	-0.218368
C	 2.7352036968	-2.5598559205	 1.2010649437	-0.057127
O	 2.0640526723	-3.7660917288	 0.6544856152	-0.312605
H	 0.0967425338	 2.1047909688	 0.7362186504	 0.106854
H	-0.6231415271	 1.7324175024	-0.8534636609	 0.128494
H	-1.2384337221	 0.9281431111	 0.6187734754	 0.111355
H	 1.5807109306	 0.305398654	 1.7076477652	 0.084941
H	 0.1838450644	-1.5662301145	 2.7213980304	 0.115728
H	-0.7334069165	-1.7123132965	 1.1447869885	 0.123807
H	 1.1381240313	-2.9040913564	-1.1669996634	 0.100702
H	 3.9505645383	-2.968552931	-0.6312667575	 0.105399
H	 3.4932875284	-1.2055032043	-0.4712884005	 0.107702
H	 3.2861097211	-2.6659356985	 2.1357636738	 0.095378
88.4089	107.1504	157.6773	212.6305	226.4387	320.8131	379.445	448.6632	507.016	645.7444	695.0318	729.849	809.2575	822.5808	870.0478	878.052	920.7342	963.0614	990.5996	1014.6075	1032.9459	1044.936	1069.8639	1107.5221	1117.4161	1127.3464	1162.077	1169.7875	1176.5575	1183.7738	1213.0466	1237.3022	1245.4325	1262.5206	1350.5259	1428.3034	1472.3084	1480.3887	1485.5037	1505.6899	1522.2992	2984.229	3036.5878	3068.3103	3069.2456	3119.7868	3119.9804	3123.558	3134.0001	3152.7327	3211.5687
COC1CC11C2CC1O2	CO[C@H]1C[C@]21[C@H]1C[C@@H]2O1	
InChI=1S/C7H10O2/c1-8-6-3-7(6)4-2-5(7)9-4/h4-6H,2-3H2,1H3	InChI=1S/C7H10O2/c1-8-6-3-7(6)4-2-5(7)9-4/h4-6H,2-3H2,1H3/t4-,5+,6-,7+/m0/s1
