20
gdb 64333	2.50072	1.49027	1.19107	4.7883	76.99	-0.239	0.0507	0.2897	1131.6644	0.17048	-440.314345	-440.305296	-440.304352	-440.348294	34.294	
C	 0.0353249476	 1.4794475919	 0.1199243724	-0.418838
C	-0.0757646872	-0.0329731292	-0.0550494488	 0.353117
C	-1.5463827648	-0.462031689	-0.1409994075	-0.418844
C	 0.7644942945	-0.5218816119	-1.2384213156	-0.242082
C	 0.8928934774	-2.0330314144	-1.1872294271	-0.09143
O	 1.3272496576	-2.4822954848	 0.0999374293	-0.267896
C	 0.9314100557	-1.8517260321	 1.2417118627	 0.457941
N	 1.049421857	-2.3836011251	 2.3814841355	-0.547492
O	 0.4908753396	-0.5804336888	 1.1624218345	-0.273354
H	 1.0816270769	 1.7763754246	 0.2294337269	 0.127404
H	-0.3874745053	 1.995174227	-0.7474626915	 0.116194
H	-0.5071446704	 1.7978906634	 1.013929987	 0.13394
H	-2.0277596862	-0.0158644057	-1.0169110343	 0.117989
H	-1.6537643879	-1.5480657625	-0.207276698	 0.126339
H	-2.0780103814	-0.1306828969	 0.7544089278	 0.139181
H	 0.3087195807	-0.2174531961	-2.1859010688	 0.110998
H	 1.7582355535	-0.0652180745	-1.1809862234	 0.117354
H	-0.0588987109	-2.5223760596	-1.4302718428	 0.114715
H	 1.6431289316	-2.397990006	-1.8931158161	 0.122775
H	 1.4506980219	-3.3134259504	 2.2768438978	 0.221987
60.2791	73.6565	193.2381	231.4823	263.9794	286.8291	331.6311	367.4873	443.9678	471.3833	499.9856	525.8115	667.2815	698.6693	746.1652	818.3204	827.7458	890.9867	931.3168	939.2054	971.2479	1004.6188	1016.761	1066.8275	1107.2055	1121.1433	1190.9166	1222.4213	1243.2675	1280.3587	1291.1682	1326.4426	1380.7053	1402.0645	1419.7869	1435.7923	1468.4931	1478.9476	1486.2784	1494.8385	1505.2776	1525.3127	1752.3829	3024.4109	3043.0399	3044.9839	3050.7336	3092.4822	3099.751	3116.0301	3122.1602	3125.4933	3129.0673	3522.0365
CC1(C)CCOC(=N)O1	CC1(C)CCO[C]([NH])O1	
InChI=1S/C6H11NO2/c1-6(2)3-4-8-5(7)9-6/h7H,3-4H2,1-2H3	InChI=1S/C6H11NO2/c1-6(2)3-4-8-5(7)9-6/h7H,3-4H2,1-2H3
