18
gdb 80496	2.20352	1.46058	1.21477	3.1923	77.9	-0.2604	0.0108	0.2712	1125.2577	0.146807	-401.928455	-401.919709	-401.918765	-401.961583	32.736	
C	 0.1537572701	 1.6322897962	-0.4072325258	-0.429806
C	 0.2457764693	 0.1314054578	-0.2429468909	-0.079546
C	 1.5053205713	-0.6489124382	-0.3708151822	 0.042623
O	 2.6249614981	 0.0590062856	 0.1427794026	-0.295126
C	 2.1098573092	-0.0407580455	 1.5046020015	 0.1048
C	 2.1773414448	 1.2308664526	 2.3208686441	-0.4231
C	 0.7820697091	-0.6225402037	 0.9856021761	 0.075035
C	 0.0257360238	-1.6224163897	 1.6558723629	 0.197699
N	-0.5880366715	-2.4282187385	 2.2178872165	-0.351835
H	 1.1311123823	 2.1005912756	-0.2831958286	 0.144507
H	-0.2034768565	 1.8665013354	-1.415241315	 0.127351
H	-0.5470657531	 2.0759431276	 0.3062404861	 0.130112
H	-0.6030866182	-0.4200659356	-0.6432469612	 0.117845
H	 1.6893392246	-1.4706872115	-1.0536995081	 0.127752
H	 2.6619944918	-0.8403246822	 2.0140187492	 0.106251
H	 1.5894586054	 2.040779644	 1.8885171962	 0.131345
H	 1.8058839577	 1.0318014027	 3.3314730665	 0.136795
H	 3.2182002019	 1.5594936576	 2.4035165401	 0.1373
129.2832	140.1271	166.5891	197.9274	230.0133	256.5142	295.2337	359.1747	488.282	521.906	543.9821	576.4421	647.4998	701.8865	775.0718	860.4583	914.1015	919.1642	974.5723	1010.9544	1081.6215	1090.5015	1095.9093	1110.2153	1127.1508	1157.0169	1236.279	1246.679	1295.0354	1338.0548	1394.7407	1409.2671	1411.6852	1457.6698	1483.3299	1492.3535	1500.7937	1508.0628	2340.722	3029.0147	3044.4507	3048.6511	3104.0256	3111.4288	3132.0634	3145.5246	3155.3537	3184.1968
CC1C2OC(C)C12C#N	C[C@H]1[C@H]2O[C@@H](C)[C@@]12C#N	
InChI=1S/C7H9NO/c1-4-6-7(4,3-8)5(2)9-6/h4-6H,1-2H3	InChI=1S/C7H9NO/c1-4-6-7(4,3-8)5(2)9-6/h4-6H,1-2H3/t4-,5-,6+,7+/m0/s1
