17
gdb 49721	2.19692	1.74555	1.17726	2.5336	73.48	-0.2451	-0.0369	0.2082	1060.1398	0.135004	-421.824013	-421.815955	-421.815011	-421.857433	29.601	
O	-0.2495008178	 0.1744154766	-0.7527708197	-0.243223
C	 0.3711935667	 0.7297961765	 0.1189384837	 0.14352
C	 1.2527557536	 1.9326813945	-0.0731889792	-0.218798
C	 1.2766949372	 2.793286632	-1.3653640838	-0.056906
C	-0.0857338788	 3.0144071901	-2.0799311945	-0.228488
C	-0.3526467818	 4.28315327	-1.2177948394	-0.235318
C	 1.0282667697	 4.0961535775	-0.507666403	-0.147987
C	 0.9268115192	 3.2265128327	 0.7420845766	 0.376857
O	 0.6989075875	 3.4292776979	 1.8969820991	-0.289917
H	 0.3216766089	 0.3821807901	 1.174557732	 0.098958
H	 2.2686048205	 1.637640068	 0.2297711964	 0.136372
H	 2.1569113282	 2.6669107531	-1.9934322576	 0.08183
H	 0.0364834279	 3.2436201087	-3.1405884322	 0.108962
H	-0.7990227549	 2.1971340171	-1.9866472579	 0.138184
H	-0.4005058502	 5.2086554986	-1.7945305336	 0.117587
H	-1.2201511675	 4.2532706177	-0.5543538255	 0.120266
H	 1.6964445518	 4.9562903989	-0.4536801915	 0.098101
54.4973	96.0765	174.5247	188.7808	217.7605	340.7951	458.5417	550.8552	587.7415	672.0877	716.71	788.9033	823.5286	844.0385	845.5874	917.386	944.4888	960.974	999.3503	1032.5127	1055.0709	1077.2697	1119.7846	1126.4201	1169.4535	1193.4982	1215.7563	1245.3337	1266.2637	1282.2306	1306.6373	1315.2871	1421.1695	1485.5052	1501.2383	1811.6673	1886.2668	2889.9526	3016.0591	3069.9493	3082.2714	3107.5315	3120.2059	3125.654	3154.269
O=CC1C2CCC2C1=O	O=C[C@H]1[C@H]2CC[C@H]2C1=O	
InChI=1S/C7H8O2/c8-3-6-4-1-2-5(4)7(6)9/h3-6H,1-2H2	InChI=1S/C7H8O2/c8-3-6-4-1-2-5(4)7(6)9/h3-6H,1-2H2/t4-,5+,6-/m0/s1
