20
gdb 68914	2.33683	1.85304	1.26388	2.2586	79.17	-0.2377	0.0303	0.268	1061.1033	0.171066	-403.157753	-403.149178	-403.148234	-403.190396	33.395	
C	-0.1224110707	 1.503515911	 0.0071325588	-0.469084
C	 0.0466012503	-0.0025156558	-0.0187392602	 0.23118
C	 1.4305672257	-0.5839748028	-0.2680139332	-0.383956
C	 0.7780155551	-0.7212581571	 1.0853811081	 0.391364
C	 1.3265781871	-0.0562365776	 2.3198806922	-0.456068
O	 0.3351839943	-2.0280652077	 1.4396765535	-0.261351
C	-0.6206042533	-2.6124916317	 0.6811569545	 0.114493
N	-1.3054000766	-2.1385474943	-0.2677024595	-0.272573
C	-1.142772802	-0.739194157	-0.6278905185	-0.216114
H	 0.7739168421	 2.0175599745	 0.3633256791	 0.11656
H	-0.3299111324	 1.874615873	-1.0037221329	 0.123415
H	-0.9606761889	 1.8013624051	 0.6473654377	 0.121574
H	 1.5044203112	-1.4805822128	-0.8754329623	 0.125352
H	 2.2674881854	 0.1001823566	-0.3649893144	 0.111546
H	 1.7695125302	 0.9134476526	 2.0860475562	 0.121777
H	 0.5394395507	 0.0925119104	 3.0661705765	 0.126851
H	 2.102414547	-0.6860941555	 2.7664618867	 0.132053
H	-0.7554372337	-3.6444931999	 1.0005251451	 0.120631
H	-2.0644245399	-0.2194999987	-0.3300635386	 0.113064
H	-1.1054903116	-0.6694289724	-1.7240135587	 0.109286
112.6786	166.7354	188.4466	206.057	276.0746	332.8985	360.5586	395.5652	432.1409	492.5479	520.4109	539.5581	664.0936	705.4375	869.5155	881.2513	913.454	928.0697	940.0359	955.9226	971.1263	1018.4228	1021.082	1048.7837	1118.5156	1130.9425	1176.5515	1192.1136	1228.0425	1258.9506	1290.9009	1368.8022	1402.5699	1413.7415	1418.4945	1427.5842	1477.7761	1479.1485	1490.6016	1492.8801	1499.4616	1516.2253	1741.999	3001.3219	3023.2657	3025.7172	3042.9375	3082.9614	3104.5185	3110.0319	3124.1935	3138.8391	3156.0352	3213.1095
CC12CC1(C)OC=NC2	C[C@@]12C[C@]1(C)OC=NC2	
InChI=1S/C7H11NO/c1-6-3-7(6,2)9-5-8-4-6/h5H,3-4H2,1-2H3	InChI=1S/C7H11NO/c1-6-3-7(6,2)9-5-8-4-6/h5H,3-4H2,1-2H3/t6-,7-/m0/s1
