16
gdb 84309	2.35149	1.71849	1.06314	6.5874	73.17	-0.2477	-0.0555	0.1922	1095.5606	0.124173	-437.95297	-437.94478	-437.943836	-437.985942	29.91	
C	-0.0319588048	 1.5855240628	 0.0072669819	-0.394405
C	 0.0163644964	 0.0495989596	 0.0358275243	-0.042771
C	 0.7597922482	-0.5250224977	-1.1404349656	-0.075367
C	 1.8095043346	-1.2449662231	-0.7482599185	-0.1903
C	 1.8872514727	-1.2696651611	 0.7354699879	 0.415798
O	 2.6908854598	-1.8236643294	 1.4361586639	-0.329959
N	 0.7758342416	-0.488149672	 1.1710569947	-0.139863
C	 0.3425378669	-0.3349173167	 2.4797843603	 0.161084
O	 0.8896497419	-0.7487767829	 3.4659535388	-0.272732
H	 0.9803624541	 1.9983854666	-0.0009192007	 0.140978
H	-0.5570713119	 1.9260888459	-0.8903375323	 0.13003
H	-0.5630307215	 1.9808652428	 0.8770186875	 0.135453
H	-1.0117842343	-0.339958475	 0.0587649078	 0.116995
H	 0.4477560552	-0.3212203855	-2.1569791767	 0.129841
H	 2.5344749304	-1.7656406855	-1.3571259389	 0.137459
H	-0.6104314593	 0.2327073815	 2.5133090757	 0.077759
80.184	143.0262	208.394	214.6531	241.293	255.8708	339.2706	482.2617	496.7014	511.8864	684.2497	713.2189	751.2226	788.5554	840.994	905.5559	982.7371	997.8902	1031.5733	1083.3102	1086.2063	1112.8401	1145.9765	1208.5936	1261.2125	1333.0031	1362.4527	1370.8226	1409.0127	1456.2922	1493.1525	1496.2203	1665.1461	1798.2357	1872.7431	2913.133	3004.2267	3045.7025	3119.7259	3130.2268	3215.7592	3252.18
CC1C=CC(=O)N1C=O	C[C@H]1C=CC(=O)N1C=O	
InChI=1S/C6H7NO2/c1-5-2-3-6(9)7(5)4-8/h2-5H,1H3	InChI=1S/C6H7NO2/c1-5-2-3-6(9)7(5)4-8/h2-5H,1H3/t5-/m0/s1
