17
gdb 62486	2.22856	1.75463	1.25736	1.5286	67.92	-0.2578	-0.0466	0.2113	1034.6492	0.134116	-459.031269	-459.022287	-459.021343	-459.065779	32.295	
C	-0.0405510328	 1.5586944007	 0.0001225867	-0.417055
C	-0.0300012056	 0.0181991047	-0.0029980921	-0.057455
C	-1.4647408647	-0.542893121	-0.0055403735	-0.417054
C	 0.7651422267	-0.5175503492	-1.1862693873	 0.379324
O	 0.5324300941	-0.3564913899	-2.3541826958	-0.309088
C	 1.9398837203	-1.3155276271	-0.6212598522	-0.201797
O	 1.8296176803	-1.2446408507	 0.7999747342	-0.225267
C	 0.7468221481	-0.5115418005	 1.2011327503	 0.450584
O	 0.4965123583	-0.3448732054	 2.3577997665	-0.341651
H	 0.972475494	 1.9723403885	 0.0008274328	 0.127879
H	-0.558655474	 1.9213968059	-0.8912990575	 0.141366
H	-0.555893427	 1.9182763626	 0.8940890691	 0.146804
H	-1.9913483672	-0.1928642045	-0.8970461494	 0.141371
H	-1.4735260936	-1.637077653	-0.0088083061	 0.127882
H	-1.9919662027	-0.2007212508	 0.8883307384	 0.146807
H	 1.8985978763	-2.360428106	-0.9470356838	 0.153676
H	 2.8960717695	-0.8891192842	-0.9430294203	 0.153676
22.1788	162.5724	188.5339	203.2641	218.9634	232.8573	283.2208	293.7281	400.7828	552.2801	581.9998	600.1108	647.6259	709.6195	753.6874	826.551	941.1068	959.1391	972.3581	1041.6832	1070.2327	1089.5028	1136.9116	1156.1125	1211.204	1234.6848	1286.6287	1355.4289	1389.31	1416.2701	1480.0163	1482.1784	1483.9526	1498.5998	1508.2442	1851.351	1894.2582	3043.6715	3045.0231	3046.9072	3091.4293	3116.8592	3118.7538	3133.6487	3136.5769
CC1(C)C(=O)COC1=O	CC1(C)C(=O)COC1=O	
InChI=1S/C6H8O3/c1-6(2)4(7)3-9-5(6)8/h3H2,1-2H3	InChI=1S/C6H8O3/c1-6(2)4(7)3-9-5(6)8/h3H2,1-2H3
