14
gdb 24463	3.70106	1.66257	1.18427	1.2701	62.38	-0.2192	0.0073	0.2264	954.4316	0.104187	-473.840351	-473.834033	-473.833089	-473.87119	24.387	
C	 0.0254605766	 1.37600078	 0.0162099216	 0.0027
O	 1.3010485014	 1.9201433872	-0.0067736484	-0.234728
C	 2.0803725244	 1.6446111891	 1.1744318319	-0.195846
C	 1.8724783788	 0.2032942652	 1.5047235179	 0.091152
C	 0.9184156864	-0.4988588128	 0.8553280066	 0.399328
O	 0.9375778311	-1.7856203996	 1.2631117391	-0.186969
C	 1.9564084173	-1.7978053203	 2.1865187792	 0.039275
N	 2.5364277356	-0.6587710329	 2.3704137161	-0.315226
O	 0.0266231305	-0.0765736692	-0.0408479765	-0.261536
H	-0.5228934683	 1.6579439164	 0.9276254153	 0.109579
H	-0.4936170145	 1.7024088604	-0.8838215657	 0.13963
H	 3.1148591257	 1.8716205471	 0.9022580792	 0.141761
H	 1.7874284149	 2.3212514671	 1.991203503	 0.117341
H	 2.1640224602	-2.7485113678	 2.6485721005	 0.153539
124.9804	234.2244	315.1855	379.8539	414.5869	479.8613	589.8527	655.7283	706.5307	733.3105	779.0729	783.6729	932.9454	936.8027	950.1893	1036.6586	1079.1878	1102.8545	1123.1264	1197.6982	1229.9929	1280.309	1305.4982	1316.4336	1368.2383	1425.8788	1471.3694	1499.3125	1512.1763	1544.5794	1702.3476	2990.7262	2996.7246	3088.7481	3152.1458	3291.8185
C1OCC2=C(OC=N2)O1	C1OCc2c(ocn2)O1	
InChI=1S/C5H5NO3/c1-4-5(8-2-6-4)9-3-7-1/h2H,1,3H2	InChI=1S/C5H5NO3/c1-4-5(8-2-6-4)9-3-7-1/h2H,1,3H2
