19
gdb 12918	3.00019	1.68279	1.37449	2.283	71.08	-0.228	0.0628	0.2908	986.9694	0.1654	-365.011525	-365.003223	-365.002279	-365.04414	31.214	
C	 0.1932612466	 1.3035898622	 0.2884735543	-0.483942
C	 0.0512671468	-0.176836171	 0.0857186137	 0.328507
C	-0.6589859472	-0.8146378016	-1.1149048231	-0.311191
C	-1.3487963102	-1.7530090168	-0.0972825566	-0.148507
N	-0.6871087478	-1.0797080889	 1.0793253459	-0.19701
C	 0.7771412038	-1.1897786429	 0.8912760793	-0.06181
C	 1.5152644363	-2.4004931674	 0.3606009739	-0.100608
O	 2.8862563561	-2.0959140771	 0.1354281237	-0.414327
H	 0.9550925207	 1.7194506563	-0.38237965	 0.116956
H	-0.7497440601	 1.8227183775	 0.0844914716	 0.121871
H	 0.489374276	 1.5295497172	 1.3167563149	 0.131673
H	-1.3587483433	-0.129126847	-1.59759964	 0.110667
H	-0.0273453472	-1.2604613234	-1.8900450695	 0.097732
H	-2.4277899055	-1.6018272818	-0.029652304	 0.111789
H	-1.1554689209	-2.8267603409	-0.1772903842	 0.106983
H	 1.2882959535	-0.7738226184	 1.7584551225	 0.098111
H	 1.5090098005	-3.1954833617	 1.1142021527	 0.119935
H	 1.0486607687	-2.8076144935	-0.5453291598	 0.090939
H	 2.9206031732	-1.382349851	-0.5101841951	 0.282232
74.7966	152.5727	177.6599	245.8747	262.5041	313.7186	326.4428	382.0742	477.0051	518.4604	620.6948	742.0125	775.7411	789.73	863.8306	925.6724	970.355	991.8657	1001.4166	1053.4159	1063.251	1088.125	1118.4478	1153.1054	1170.0595	1217.0603	1220.6217	1243.5975	1283.553	1311.0297	1328.7159	1373.0804	1412.761	1414.5129	1468.141	1481.1041	1491.1289	1493.5979	1512.8051	1521.3678	3021.5362	3024.2949	3046.4467	3059.3168	3071.6821	3083.5802	3099.269	3111.7547	3117.7719	3123.1184	3811.5049
CC12CCN1C2CO	C[C@]12CCN1[C@H]2CO	
InChI=1S/C6H11NO/c1-6-2-3-7(6)5(6)4-8/h5,8H,2-4H2,1H3	InChI=1S/C6H11NO/c1-6-2-3-7(6)5(6)4-8/h5,8H,2-4H2,1H3/t5-,6+,7?/m0/s1
