18
gdb 45145	2.86737	1.65092	1.22308	3.4407	76.23	-0.2314	-0.003	0.2284	1038.4599	0.148019	-401.924016	-401.916472	-401.915528	-401.956078	29.801	
O	-0.0962067161	 0.0268911552	 0.412644685	-0.313704
C	-0.0906855061	 1.1893322208	 0.1343289025	 0.385242
C	-1.1576456173	 2.2783399197	-0.1198705942	-0.381887
C	 0.024254704	 3.2682464954	-0.0201261631	 0.027646
C	 0.5117548907	 3.7334626532	 1.381408388	-0.341511
C	 1.5545329615	 2.6033059939	 1.3075202449	 0.355604
C	 3.0214628857	 2.6606631508	 1.5899097321	-0.329805
C	 2.1205938421	 1.7201745227	 2.3690955447	-0.319697
N	 0.9973401552	 2.1090496158	 0.0187809895	-0.182925
H	-1.6401096517	 2.2297538043	-1.0995189656	 0.137636
H	-1.9266988953	 2.334291927	 0.6538550166	 0.136391
H	 0.1512994794	 3.9783731332	-0.8380511892	 0.09082
H	 0.9181600845	 4.7465894658	 1.417478876	 0.115465
H	-0.2298915409	 3.6197382325	 2.1779996256	 0.113178
H	 3.6859517005	 2.2278057105	 0.8505684938	 0.129447
H	 3.4072738971	 3.5408080814	 2.0942975995	 0.114033
H	 1.8917962603	 1.9597821791	 3.4025544012	 0.11776
H	 2.1780366065	 0.6598601486	 2.1524806228	 0.146307
85.6522	134.3429	239.1968	293.7291	350.3378	395.7409	481.0418	491.3519	554.3494	698.9184	745.4457	768.5599	828.7784	844.4292	870.2623	897.2389	918.1873	971.0927	972.4867	995.2258	1042.1033	1053.726	1073.8212	1077.7721	1110.1341	1117.3101	1181.463	1187.5466	1210.2264	1224.3574	1247.9202	1255.4663	1332.1016	1373.3055	1440.7365	1456.3365	1482.8861	1498.2957	1888.0993	3053.7555	3071.1149	3099.0235	3114.4245	3129.1802	3130.6812	3136.5225	3217.2416	3231.0011
O=C1CC2CC3(CC3)N12	O=C1C[C@H]2CC3(CC3)N12	
InChI=1S/C7H9NO/c9-6-3-5-4-7(1-2-7)8(5)6/h5H,1-4H2	InChI=1S/C7H9NO/c9-6-3-5-4-7(1-2-7)8(5)6/h5H,1-4H2/t5-/m0/s1
