21
gdb 95941	2.00464	1.52889	1.25858	2.8852	77.92	-0.251	-0.0265	0.2245	1147.9891	0.181008	-424.254683	-424.244889	-424.243945	-424.289751	36.03	
C	-0.754681871	 1.0965368757	 0.0876680099	-0.416192
C	 0.1693972033	-0.1115501863	-0.0377213846	 0.012618
C	 1.3090630608	 0.0306026255	-1.0597718354	-0.236648
C	 2.2477459404	-1.1534638359	-0.7496791632	-0.221657
C	 2.0328043168	-1.47123503	 0.7589566166	-0.270502
C	 0.9339631319	-0.4969800515	 1.2638175797	 0.296767
O	 1.4734700995	 0.6374139114	 1.9381327106	-0.488674
C	 0.0063288731	-1.1429573417	 2.2810115647	 0.132234
O	-0.5876881697	-2.1721572521	 2.0851939281	-0.270357
H	-0.2088278548	 1.9717592802	 0.4513095312	 0.118298
H	-1.1967946888	 1.346283612	-0.881923722	 0.113618
H	-1.5756167529	 0.9036145461	 0.7860459519	 0.121561
H	-0.4209850302	-0.997926668	-0.3050549642	 0.096174
H	 0.9480906983	 0.0329637234	-2.0922100381	 0.102095
H	 1.823547393	 0.9907936089	-0.9099645569	 0.084452
H	 1.969676443	-2.0199014218	-1.3568097349	 0.111708
H	 3.2918700329	-0.9294401521	-0.9834750334	 0.100299
H	 1.6951794405	-2.5009863348	 0.896790906	 0.127546
H	 2.9348127599	-1.3368190553	 1.3620782876	 0.10777
H	 2.1284430536	 1.0512662416	 1.3679998063	 0.283929
H	-0.0869327194	-0.5743351353	 3.2313751702	 0.09496
46.9701	65.1256	157.403	206.5555	223.0419	237.2325	247.6905	269.4212	346.2774	403.0765	501.5274	536.7098	608.849	673.1936	722.4018	783.1983	855.8845	876.1222	901.9127	959.7914	967.9877	1002.9961	1026.4383	1059.0218	1073.0707	1090.5199	1149.1491	1170.871	1201.2627	1223.9018	1263.2474	1296.229	1315.9929	1319.8776	1334.3609	1369.5359	1383.0674	1406.0273	1415.7915	1480.7519	1493.6706	1498.4491	1500.1586	1513.8496	1830.9613	2906.1103	3003.8569	3030.5681	3037.8153	3054.6767	3066.2467	3083.1877	3094.0897	3101.9133	3114.9786	3118.4518	3832.0135
CC1CCCC1(O)C=O	C[C@H]1CCC[C@]1(O)C=O	
InChI=1S/C7H12O2/c1-6-3-2-4-7(6,9)5-8/h5-6,9H,2-4H2,1H3	InChI=1S/C7H12O2/c1-6-3-2-4-7(6,9)5-8/h5-6,9H,2-4H2,1H3/t6-,7-/m0/s1
