17
gdb 31529	3.17617	1.08899	0.86697	1.5702	72.79	-0.1728	0.0405	0.2132	1334.499	0.135344	-455.185774	-455.176189	-455.175245	-455.220789	34.229	
C	 0.1224057598	 1.3538232818	-0.4890492279	-0.369812
C	-0.1018655785	 0.0682707411	 0.3289058716	-0.28931
C	-1.4889634013	-0.4757211709	 0.2247250427	 0.330484
N	-2.4492840955	-0.3397131827	 1.1208107209	-0.375113
C	-3.5518681506	-0.9520702475	 0.5955724914	 0.200985
O	-4.7484581632	-1.023511258	 1.2441111911	-0.461736
C	-3.2749954766	-1.4717005259	-0.636804096	 0.282155
O	-3.983355549	-2.1675168572	-1.5650412403	-0.448429
N	-1.9516780401	-1.1619082628	-0.868694633	-0.33985
H	 1.1469141988	 1.7188583054	-0.366114962	 0.114445
H	-0.0467470356	 1.182176574	-1.5572395478	 0.109806
H	-0.5646428678	 2.1405769958	-0.1648103368	 0.132748
H	 0.6245385657	-0.6940416592	 0.0177077977	 0.101316
H	 0.0826299149	 0.2674576175	 1.3879505353	 0.130979
H	-4.6253048008	-0.5716569941	 2.0865264374	 0.299804
H	-4.8707794121	-2.2952038032	-1.2130187014	 0.313986
H	-1.4381494382	-1.4148914539	-1.6961814632	 0.267542
32.1621	115.8645	159.7257	198.8693	225.6154	253.1401	276.0145	290.2722	308.5355	401.1482	470.9928	526.5234	606.1611	661.6821	671.3822	729.2502	785.2536	826.7105	960.0832	1030.6976	1067.2625	1082.7702	1139.9339	1156.5857	1236.7635	1281.6847	1326.4234	1351.611	1377.2197	1405.7686	1467.4818	1475.4937	1495.896	1503.7026	1526.7548	1565.5499	1726.0653	3021.7251	3035.5833	3090.8123	3108.6989	3119.088	3665.8143	3818.5102	3831.8732
CCC1=NC(O)=C(O)N1	CCc1nc(O)c(O)[nH]1	
InChI=1S/C5H8N2O2/c1-2-3-6-4(8)5(9)7-3/h8-9H,2H2,1H3,(H,6,7)	InChI=1S/C5H8N2O2/c1-2-3-6-4(8)5(9)7-3/h8-9H,2H2,1H3,(H,6,7)
