20
gdb 88694	3.22746	0.99066	0.83199	4.2692	84.83	-0.2646	0.0317	0.2963	1419.1944	0.170707	-366.006645	-365.997415	-365.99647	-366.041507	34.211	
C	-0.1112307345	 1.5530820549	-0.0980463424	-0.404497
C	 0.0079484025	 0.0482128017	 0.0104401533	-0.006588
C	 1.3268361161	-0.6482976222	-0.2197395818	-0.304682
C	 0.7129341178	-0.6405500527	 1.1621021931	-0.007902
C	 1.3486863252	 0.1240475244	 2.2778242944	-0.009609
C	 0.7375053969	 0.1486996536	 3.6471340827	-0.298383
C	 2.0405759821	-0.6092973591	 3.4292149495	-0.183195
C	 2.0396883741	-2.0435880491	 3.4761615756	 0.292444
N	 2.0380190976	-3.2005034098	 3.5109896463	-0.348288
H	 0.8049409864	 2.0614259876	 0.2170721868	 0.112616
H	-0.3047184244	 1.8499278469	-1.1345041231	 0.121096
H	-0.9330130219	 1.9367780975	 0.5167544166	 0.119395
H	-0.8676914931	-0.4832838851	-0.3536956294	 0.089188
H	 1.3496237517	-1.5812702948	-0.77140064	 0.119379
H	 2.1975929779	-0.0186314468	-0.3789970217	 0.108934
H	 0.2694333334	-1.5791526649	 1.4826322569	 0.102652
H	 1.8725085916	 1.0267542039	 1.9800252007	 0.098453
H	 0.791365212	 1.0549048214	 4.2393568578	 0.127761
H	-0.151458042	-0.4497940101	 3.8116299946	 0.139677
H	 2.9452068705	-0.1591137574	 3.8234902703	 0.131549
32.8275	93.456	145.2128	196.197	200.9312	241.7821	326.9027	353.8197	413.6972	493.2537	564.1335	628.9493	754.5008	775.6664	789.6293	841.1528	860.4483	891.4919	912.4685	965.5418	989.5397	1025.9499	1041.9992	1071.3537	1079.5988	1108.5917	1119.1183	1139.1163	1149.9752	1194.8254	1199.6841	1220.3012	1262.5353	1319.7639	1373.9952	1397.8198	1420.9972	1453.9183	1486.13	1493.2199	1494.4921	1508.2042	2350.0427	3030.5509	3090.6232	3099.6793	3126.3636	3136.013	3141.2578	3146.8731	3160.5769	3170.9022	3213.2109	3232.5185
CC1CC1C1CC1C#N	C[C@H]1C[C@H]1[C@H]1C[C@H]1C#N	
InChI=1S/C8H11N/c1-5-2-7(5)8-3-6(8)4-9/h5-8H,2-3H2,1H3	InChI=1S/C8H11N/c1-5-2-7(5)8-3-6(8)4-9/h5-8H,2-3H2,1H3/t5-,6-,7+,8-/m0/s1
