17
gdb 20037	4.37171	1.29333	1.17003	2.0307	64.15	-0.2504	0.0637	0.3141	1050.9724	0.142378	-400.937147	-400.92913	-400.928186	-400.970111	29.042	
O	 0.0280124228	 1.1099316289	-0.7705757707	-0.417183
C	 0.0797375138	 0.0000179884	 0.1118945393	-0.106494
C	-1.2940496314	-0.5849850972	 0.3266411238	 0.04051
O	-1.840777182	-1.3555078686	-0.7673175019	-0.270421
C	-1.583629722	-2.0213125326	 0.4731877503	 0.021312
C	-0.5421692959	-3.1031480464	 0.449373334	-0.03352
C	-0.7220125705	-4.2596504358	-0.4638303491	-0.240009
N	 0.3300724285	-3.2589683991	-0.7201145899	-0.312349
H	-0.3290416271	 0.7895433264	-1.6062154772	 0.291118
H	 0.7789644298	-0.7702830446	-0.2364681217	 0.120533
H	 0.4580068091	 0.3871239275	 1.0646307671	 0.116763
H	-2.0145317789	 0.1186470841	 0.7463883659	 0.103777
H	-2.4862660713	-2.2799934992	 1.0310283151	 0.101246
H	-0.0491575093	-3.2693060621	 1.4055562727	 0.102024
H	-0.3651234212	-5.2433960036	-0.1736932738	 0.121819
H	-1.5958156476	-4.2588134427	-1.1103108398	 0.122899
H	-0.0111987268	-2.6245611835	-1.4409102942	 0.237975
65.7386	108.3653	138.7627	206.8455	268.7431	320.5391	387.0807	481.8806	561.2101	628.6402	745.8794	805.9478	862.4873	876.2623	937.9692	961.2228	997.9915	1009.2506	1068.6272	1091.5857	1112.4664	1135.4208	1149.6733	1160.8859	1193.8085	1230.8287	1276.5812	1294.4164	1312.8485	1357.4106	1384.3794	1413.4526	1430.6363	1481.0817	1501.7683	1509.534	3031.3833	3076.7242	3084.279	3109.7861	3111.0545	3125.0407	3199.3772	3481.9006	3806.7805
OCC1OC1C1CN1	OC[C@H]1O[C@H]1[C@H]1CN1	
InChI=1S/C5H9NO2/c7-2-4-5(8-4)3-1-6-3/h3-7H,1-2H2	InChI=1S/C5H9NO2/c7-2-4-5(8-4)3-1-6-3/h3-7H,1-2H2/t3-,4-,5+/m1/s1
