14
gdb 123770	4.87331	1.09076	1.00159	3.341	62.69	-0.2722	-0.0772	0.195	1146.8424	0.101098	-469.920471	-469.913199	-469.912255	-469.953994	25.385	
C	-0.0753318494	 1.1816617678	-0.1693868241	-0.060383
C	 1.4298150687	 1.5013907226	-0.0715114866	-0.303366
C	 1.5080449095	 0.1995172284	 0.7565312596	 0.049008
O	 0.0919096095	-0.0408389284	 0.5901211468	-0.284614
C	 2.3295503488	-0.9205727724	 0.2054337811	 0.418834
N	 2.7365508199	-1.0323093354	-1.0267857088	-0.139326
O	 3.401309235	-2.2035433255	-1.0703837826	-0.138343
N	 3.3734700815	-2.783407615	 0.2035550728	 0.047063
N	 2.734665463	-2.0119508218	 0.9581102139	-0.201162
H	-0.7449925243	 1.8819169504	 0.341708885	 0.113935
H	-0.4590194099	 0.9839182916	-1.1758137884	 0.120315
H	 1.9743608797	 1.4735359965	-1.0144551053	 0.144766
H	 1.6906656868	 2.4056030677	 0.4782295564	 0.124147
H	 1.7649042612	 0.3213334935	 1.8148891703	 0.109123
33.6678	68.1036	156.5345	211.1873	378.2872	432.3614	657.1333	665.9589	683.5984	789.4985	803.799	837.6365	945.1475	956.0111	974.3137	1025.2169	1032.1692	1060.6283	1086.0631	1127.6507	1164.1502	1215.1367	1243.256	1271.2274	1283.2182	1356.7239	1400.584	1487.643	1493.5487	1531.104	1584.7091	3034.206	3047.0045	3079.9233	3099.5052	3160.0579
C1CC(O1)C1=NON=N1	C1C[C@@H](O1)c1nonn1	
InChI=1S/C4H5N3O2/c1-2-8-3(1)4-5-7-9-6-4/h3H,1-2H2	InChI=1S/C4H5N3O2/c1-2-8-3(1)4-5-7-9-6-4/h3H,1-2H2/t3-/m1/s1
