21
gdb 103743	2.08466	1.3898	0.97994	0.9858	75.41	-0.2361	0.0653	0.3014	1271.1893	0.179721	-461.335666	-461.325113	-461.324169	-461.370598	39.388	
C	-0.2193115102	 1.7969842463	 0.3197981009	-0.453973
C	-0.1436760454	 0.297524853	 0.0858146573	 0.212049
C	-1.4195486246	-0.2341426194	-0.5700409626	-0.146141
O	-1.3370745637	-1.5346343741	-1.1341569886	-0.407143
C	 1.2039199634	-0.2989432601	-0.2952237157	-0.400934
C	 0.6253737205	-0.5197032439	 1.0898923918	 0.431506
O	 1.1914950887	 0.2002374557	 2.1528319065	-0.480866
C	 0.2036538022	-1.901555919	 1.5267944659	-0.174149
O	 1.3766326735	-2.5031916993	 2.0910134596	-0.438052
H	 0.6471532752	 2.1535581085	 0.8767208141	 0.142867
H	-0.2721221258	 2.3334007453	-0.6344605806	 0.10843
H	-1.1136351216	 2.0571678256	 0.8987369075	 0.115042
H	-2.2243173363	-0.2845796543	 0.1728393211	 0.1143
H	-1.7371479315	 0.4928558931	-1.3339689688	 0.092497
H	-0.7546922503	-1.4835963811	-1.8984972441	 0.286191
H	 1.2325110627	-1.1493716819	-0.9688331302	 0.096818
H	 2.0475802523	 0.3778837698	-0.3742112083	 0.112797
H	 1.8008146057	-0.4211877287	 2.5730841095	 0.287517
H	-0.5842822787	-1.8145503114	 2.289874259	 0.090393
H	-0.1854807026	-2.4801136792	 0.6843034948	 0.119583
H	 1.1047279466	-3.2658776448	 2.6085223009	 0.291267
94.5565	106.3121	151.7728	185.0653	194.5302	240.6523	252.6017	293.8207	325.9615	337.6741	365.7294	405.6813	435.9525	481.61	521.4672	583.6823	697.7219	775.6958	890.237	914.577	918.9366	968.5783	991.8761	1013.5568	1039.1128	1048.4121	1080.7274	1109.0276	1140.7758	1207.3259	1225.2305	1236.0627	1273.1411	1294.3501	1332.5178	1392.5043	1406.0867	1412.3609	1422.8758	1451.9241	1488.4364	1496.1763	1500.1941	1516.2975	1520.6268	2978.9325	2991.9976	3027.2639	3056.1665	3080.8688	3089.8231	3126.4122	3148.6775	3217.5726	3763.5035	3822.0056	3842.5578
CC1(CO)CC1(O)CO	C[C@@]1(CO)C[C@]1(O)CO	
InChI=1S/C6H12O3/c1-5(3-7)2-6(5,9)4-8/h7-9H,2-4H2,1H3	InChI=1S/C6H12O3/c1-5(3-7)2-6(5,9)4-8/h7-9H,2-4H2,1H3/t5-,6-/m0/s1
