17
gdb 125371	2.43387	1.7761	1.03565	3.3314	82.83	-0.1876	-0.0149	0.1727	1116.8761	0.138625	-414.209534	-414.201258	-414.200314	-414.241955	32.204	
C	 0.0434666332	 1.5073605939	 0.019026281	-0.474651
C	 0.0081383248	 0.0094469712	 0.0096369125	 0.244698
C	-0.0567482079	-0.7143490254	-1.1387697746	-0.069573
N	-0.1036458638	-2.0703093685	-1.1241585252	-0.247652
N	-0.0238893327	-2.8178762474	-0.0016554448	-0.291301
C	 0.0076521581	-2.1732771478	 1.1294649104	 0.323454
N	 0.020368069	-2.9323414123	 2.2908641103	-0.557775
C	-0.0065539431	-0.699753276	 1.2745821118	 0.148893
N	-0.0267737214	-0.054297546	 2.3963295137	-0.5592
H	 0.9414259372	 1.8701559549	 0.5310003498	 0.138587
H	 0.023485746	 1.9173489676	-0.9947836858	 0.102417
H	-0.804980229	 1.9073911956	 0.5844188259	 0.143221
H	-0.0858192783	-0.2597752317	-2.1228243458	 0.12228
H	-0.1276456728	-2.6069047586	-1.9734255575	 0.272358
H	 0.1847706221	-3.9137846629	 2.1101562917	 0.253662
H	 0.631285318	-2.5692885058	 3.0108251323	 0.250588
H	-0.1155965895	-0.6914651507	 3.1872992944	 0.199993
96.1431	172.4843	254.7523	283.445	309.8218	351.8048	368.589	383.8117	477.5372	521.1742	532.8686	559.8007	562.8868	699.6486	711.7529	782.6996	842.7374	880.7512	887.1045	962.3405	1001.2628	1064.8041	1067.6056	1165.0368	1226.3064	1293.4832	1342.4379	1376.6139	1415.8732	1441.8842	1464.2324	1488.4901	1538.165	1603.623	1616.7839	1664.296	1673.226	3032.6613	3087.3764	3113.4573	3194.7858	3476.5718	3540.1098	3644.3594	3673.8192
CC1=CNN=C(N)C1=N	CC1=C(C(=NNC1)N)[NH]	
InChI=1S/C5H8N4/c1-3-2-8-9-5(7)4(3)6/h2H,1H3,(H2,6,8)(H2,7,9)	InChI=1S/C5H9N4/c1-3-2-8-9-5(7)4(3)6/h6,8H,2H2,1H3,(H2,7,9)
