21
gdb 110860	2.18928	1.30082	1.13605	0.9721	78.74	-0.246	0.0726	0.3186	1234.6621	0.181096	-424.192601	-424.182954	-424.18201	-424.226766	36.64	
C	 0.2784453203	 1.4601122917	 0.1543447841	-0.370795
C	-0.2270578715	 0.038497227	-0.1174323872	-0.213494
C	 0.5250828525	-0.631120434	-1.253677783	-0.063379
C	 1.915812313	-1.2283682152	-1.1734009112	-0.130536
C	 2.1177423454	-1.9687940938	 0.1530295893	-0.283698
C	 0.9379049603	-2.9263144719	-0.2441271626	 0.045444
O	-0.183934577	-3.0679519576	 0.6050018486	-0.43421
C	 0.6994386165	-2.1050598642	-1.5027373927	 0.345604
O	 0.3839552025	-2.6899493817	-2.7197574457	-0.464235
H	 1.3341272253	 1.4531604063	 0.4464672152	 0.116737
H	 0.1901052435	 2.0911643775	-0.7374005138	 0.109852
H	-0.290720699	 1.937972575	 0.9580072424	 0.107866
H	-0.1657728441	-0.56796801	 0.7889225024	 0.116505
H	-1.2935382556	 0.0712068667	-0.3760034777	 0.091258
H	 0.3950814719	-0.1240434853	-2.2105673446	 0.083361
H	 2.7095015666	-0.9145732036	-1.8395651342	 0.091084
H	 3.0765168309	-2.4863702523	 0.2310727009	 0.099942
H	 1.9569552366	-1.3821198741	 1.0617431357	 0.100206
H	 1.334960625	-3.9076983655	-0.5354809757	 0.081387
H	 0.0500111065	-3.6705053943	 1.3181263323	 0.283478
H	-0.5692687595	-2.6285515708	-2.8437529923	 0.287622
71.6452	129.093	174.4385	208.3601	241.0578	244.609	284.3507	296.6644	313.0123	413.2273	427.6257	530.2127	579.7259	650.0499	728.4095	766.1923	820.8717	838.5294	899.8034	934.134	945.6973	1001.834	1022.2886	1057.1607	1073.2968	1100.6017	1117.3954	1146.0541	1163.1067	1192.1733	1225.177	1237.6009	1257.1984	1290.3608	1314.6033	1323.7047	1341.0786	1365.7875	1409.1218	1430.6688	1468.7107	1490.532	1497.1173	1505.7127	1512.084	3016.9023	3026.1693	3028.4313	3057.5453	3085.0929	3100.6971	3101.9656	3109.2843	3116.5743	3193.3798	3799.8034	3814.8361
CCC1C2CC(O)C12O	CC[C@H]1[C@H]2C[C@@H](O)[C@@]12O	
InChI=1S/C7H12O2/c1-2-4-5-3-6(8)7(4,5)9/h4-6,8-9H,2-3H2,1H3	InChI=1S/C7H12O2/c1-2-4-5-3-6(8)7(4,5)9/h4-6,8-9H,2-3H2,1H3/t4-,5+,6+,7+/m0/s1
