19
gdb 77594	2.71609	1.42547	1.21386	1.3233	76.13	-0.2295	0.071	0.3005	1099.599	0.15771	-422.971111	-422.962316	-422.961372	-423.004088	34.203	
O	 0.0162172611	 1.3772568839	-0.0980945265	-0.433824
C	 0.0062654692	-0.0298525154	 0.0267144958	-0.052812
C	 0.28246263	-0.6781863432	 1.3921813943	 0.370022
O	 1.5081771903	-1.2271660415	 1.7359462419	-0.468812
C	-0.7678980341	-0.3270470913	 2.4047134057	-0.352138
C	-1.0815686093	-1.3702157442	 1.3515083105	-0.219346
C	-1.3983500418	-0.6591044837	 0.0524658808	 0.400377
C	-2.6711012399	 0.0226129773	-0.3501706977	-0.313928
C	-2.1582572352	-1.1686009488	-1.1319552561	-0.354475
H	 0.9268761164	 1.6641620029	-0.2173847871	 0.283053
H	 0.6405005467	-0.5044259835	-0.7356153133	 0.075303
H	 1.9291851666	-0.6492749369	 2.3806249383	 0.286211
H	-0.5717453924	-0.7292142208	 3.394424387	 0.107569
H	-1.2643747508	 0.6392799575	 2.385711782	 0.121081
H	-1.3288410213	-2.3942403287	 1.6014062134	 0.095392
H	-3.5469371578	-0.1141608374	 0.2759316677	 0.10883
H	-2.5823558926	 1.0047303757	-0.8015857132	 0.125322
H	-1.7427549723	-0.9950298419	-2.1199556118	 0.111616
H	-2.6870684927	-2.1111629399	-1.0312005413	 0.11056
93.0408	190.364	207.0338	216.599	245.0993	254.5754	277.7747	377.9645	459.4559	481.7389	523.9428	601.6451	720.0101	751.7115	779.6534	839.7473	879.2262	918.6252	933.7972	954.5122	984.2775	992.9941	1006.7204	1050.61	1070.2895	1075.2625	1079.0612	1121.844	1177.136	1187.997	1200.1281	1208.6449	1272.8183	1281.2478	1316.561	1383.1814	1402.5502	1435.9317	1462.3562	1485.8801	1508.9434	3004.3357	3112.3484	3120.9088	3130.0523	3194.3506	3201.1397	3204.8992	3220.9695	3805.3333	3821.4053
OC1C2(O)CC2C11CC1	O[C@H]1[C@@]2(O)C[C@H]2C21CC2	
InChI=1S/C7H10O2/c8-5-6(1-2-6)4-3-7(4,5)9/h4-5,8-9H,1-3H2	InChI=1S/C7H10O2/c8-5-6(1-2-6)4-3-7(4,5)9/h4-5,8-9H,1-3H2/t4-,5+,7+/m0/s1
