21
gdb 79291	2.49251	1.73241	1.46883	1.2362	80.32	-0.2525	0.0778	0.3303	1015.5903	0.185347	-387.103229	-387.09565	-387.094705	-387.134667	31.616	
C	-0.1249081975	 1.5912114062	-0.0302419156	-0.425245
C	 0.0179083705	 0.0701291298	-0.0080307212	 0.053119
C	 0.9043825628	-0.5221454244	-1.1052323565	-0.057502
C	 2.3094777912	-0.6446047568	-0.5441299081	-0.064578
C	 2.2692649632	-0.1370276665	 0.8958955726	-0.235561
C	 0.8045835761	-0.5368914019	 1.1854507215	-0.11355
C	 0.8368701502	-2.0426801903	 0.7949256536	 0.134642
O	-0.4264849271	-2.6837969802	 0.7330581126	-0.444308
C	 1.4050127658	-1.8605610859	-0.6030046173	-0.073706
H	 0.8433585453	 2.100757605	-0.0346374812	 0.115397
H	-0.6651548126	 1.9130583469	-0.9273109976	 0.111957
H	-0.6899362006	 1.9474760332	 0.8384164316	 0.10754
H	-0.9769344672	-0.3857570006	-0.0426145341	 0.080201
H	 0.7252503547	-0.3431860545	-2.1577186227	 0.076126
H	 3.1866531755	-0.559463393	-1.1720908525	 0.079143
H	 2.9771048943	-0.659451852	 1.5490817752	 0.09218
H	 2.4562947473	 0.9366797216	 0.9872260569	 0.096407
H	 0.4240732163	-0.3110104281	 2.183203342	 0.048799
H	 1.5200782989	-2.6072826907	 1.4479294094	 0.056516
H	-0.7567980895	-2.7729706604	 1.6327922039	 0.278878
H	 1.5922916823	-2.7000161775	-1.2589138427	 0.083548
180.7031	204.6485	242.7718	279.9624	303.2997	336.6667	436.7284	529.8175	547.3826	685.6345	691.2605	757.7671	814.9781	821.5223	873.3158	893.6072	913.7676	925.9592	940.8658	981.4764	989.7693	1014.3499	1035.4226	1063.5236	1073.7655	1086.6363	1104.4844	1112.4071	1129.6174	1153.9175	1207.3593	1215.0579	1245.2532	1280.7805	1291.8047	1300.2518	1325.5922	1340.5629	1379.0956	1397.5822	1411.1873	1432.4432	1493.5232	1495.9696	1512.3768	2979.2281	3029.3161	3043.8217	3055.5979	3085.9924	3089.8321	3100.2086	3106.6978	3191.4769	3196.97	3210.4484	3813.2991
CC1C2C3CC1C(O)C23	C[C@H]1[C@H]2[C@H]3C[C@@H]1[C@@H](O)[C@@H]23	
InChI=1S/C8H12O/c1-3-4-2-5-6(3)7(5)8(4)9/h3-9H,2H2,1H3	InChI=1S/C8H12O/c1-3-4-2-5-6(3)7(5)8(4)9/h3-9H,2H2,1H3/t3-,4+,5-,6+,7-,8-/m1/s1
