16
gdb 15467	2.72924	2.04356	1.45473	2.7981	70.06	-0.2372	-0.0248	0.2125	898.7169	0.130123	-346.604398	-346.596788	-346.595844	-346.636606	28.516	
O	 0.0246891749	 0.0513213684	-0.3825448149	-0.301986
C	 0.0078313798	 1.2148606883	-0.0941933282	 0.404761
C	-1.2287500116	 2.0594361304	 0.2288564715	-0.309137
C	-0.6893368187	 3.4330749801	 0.6544511591	-0.214854
C	 0.6512108113	 3.5614624359	-0.1000965199	-0.22306
C	 1.2634159591	 2.1428928446	-0.0226957449	-0.264753
C	 1.958034717	 1.9017828833	 1.2350405503	 0.338013
C	 2.4997303675	 1.710573631	 2.2915067014	-0.476317
H	-1.8216446655	 2.1259553507	-0.69247768	 0.135032
H	-1.8530766912	 1.5544668971	 0.9699645353	 0.136177
H	-1.3756083955	 4.2518854633	 0.4274452572	 0.106176
H	-0.5029482856	 3.446543198	 1.7331283394	 0.122478
H	 0.4692127283	 3.8115577872	-1.1517013418	 0.105346
H	 1.3087230489	 4.3247691984	 0.3192470973	 0.117674
H	 1.92366374	 1.9077571281	-0.8629967545	 0.122821
H	 2.9942984215	 1.5320884153	 3.2140825827	 0.20163
62.0056	134.2591	154.7022	259.4172	377.9145	440.2071	494.519	535.0919	605.3103	623.4193	633.8299	644.9534	784.407	823.7786	835.557	901.9416	943.3456	988.4803	1036.801	1057.3672	1113.6818	1157.279	1161.2529	1231.8324	1254.1599	1297.6896	1306.5664	1337.6695	1349.9847	1445.5479	1488.3587	1502.0775	1858.3253	2229.766	3038.6095	3042.6283	3058.8178	3067.7504	3103.2806	3111.3252	3119.5495	3503.8213
O=C1CCCC1C#C	O=C1CCC[C@H]1C#C	
InChI=1S/C7H8O/c1-2-6-4-3-5-7(6)8/h1,6H,3-5H2	InChI=1S/C7H8O/c1-2-6-4-3-5-7(6)8/h1,6H,3-5H2/t6-/m1/s1
