19
gdb 22215	2.03899	1.24653	1.00283	3.6026	78.42	-0.2639	-0.0124	0.2515	1278.6556	0.157106	-419.188432	-419.178265	-419.177321	-419.223635	36.742	
C	-0.0256044697	 1.5545885323	 0.4729981584	-0.428804
C	-0.0336356784	 0.100567994	-0.020359372	-0.049503
C	 1.0561183102	-0.7417446385	 0.6787006594	-0.401614
C	-1.3851296955	-0.5727833883	 0.1160772579	 0.365468
C	-2.3816280463	-0.1647847987	 1.1889474832	-0.411562
C	-1.8754616373	-0.3450174841	 2.5519689785	 0.279341
N	-1.471876961	-0.4818499572	 3.6262626528	-0.320607
N	-1.8136274822	-1.5197529136	-0.6290830136	-0.169643
O	-0.8923690052	-1.8820441989	-1.6165321015	-0.39101
H	 0.9506991578	 2.004717476	 0.2699805007	 0.124048
H	-0.7805280729	 2.1631781355	-0.0359299309	 0.115833
H	-0.1962721916	 1.6226569188	 1.5521865621	 0.137572
H	 0.1904875548	 0.0978942449	-1.091994647	 0.112071
H	 0.8824354695	-0.7980100594	 1.7571733129	 0.144823
H	 1.0766150427	-1.7567340156	 0.2754781877	 0.13487
H	 2.038589259	-0.2870307702	 0.5162380202	 0.115167
H	-2.6644874579	 0.8878991394	 1.0712579753	 0.161055
H	-3.2845192127	-0.7679205206	 1.0617612833	 0.170257
H	-1.3671813235	-2.5703525857	-2.0948259374	 0.312239
66.0242	76.5593	119.1389	206.4554	231.5095	247.2849	278.801	285.8301	324.0882	373.6578	395.3153	429.7858	467.4198	484.7352	618.7985	674.558	761.2337	900.1821	927.9679	936.6415	939.9326	973.1694	1022.0131	1078.7283	1127.893	1190.8538	1214.4351	1274.0553	1314.9258	1339.1801	1346.9117	1399.1742	1412.0848	1424.3035	1449.0684	1491.5348	1495.2359	1507.2519	1514.9062	1718.8094	2359.5805	3034.3961	3042.7678	3045.4729	3056.14	3102.9246	3105.8981	3109.1392	3114.9101	3131.9579	3818.1142
CC(C)C(CC#N)=NO	CC(C)C(=NO)CC#N	
InChI=1S/C6H10N2O/c1-5(2)6(8-9)3-4-7/h5,9H,3H2,1-2H3	InChI=1S/C6H10N2O/c1-5(2)6(8-9)3-4-7/h5,9H,3H2,1-2H3
