16
gdb 13200	5.20301	1.28088	1.1702	1.2326	61.6	-0.2481	-0.0043	0.2439	1053.882	0.129663	-420.881447	-420.873073	-420.872129	-420.916176	27.987	
C	-0.4662717185	 1.4408969584	-0.5254469505	-0.242026
O	-0.2932363552	 0.0167553397	-0.5270339736	-0.229227
C	-0.8718060658	-0.6357548889	 0.4936512556	 0.447035
O	-1.4659365691	-0.0976599756	 1.3942183673	-0.361533
C	-0.7156077765	-2.1428457247	 0.3218427985	 0.039357
C	-1.1041792457	-2.9893445428	 1.54656639	-0.291905
C	-2.270038772	-3.4781736565	 0.6645123634	-0.059728
O	-1.8303317451	-2.6585687619	-0.4467945628	-0.292836
H	 0.0526634448	 1.8040207	-1.4122148171	 0.136319
H	-1.5276407704	 1.6971344634	-0.5694897968	 0.145208
H	-0.0355401085	 1.8787381481	 0.3785310158	 0.14189
H	 0.2414242758	-2.3670434673	-0.1611353142	 0.093779
H	-0.3763777656	-3.7488847363	 1.8323244153	 0.11312
H	-1.3927213218	-2.3947337362	 2.4124638656	 0.138438
H	-2.261574637	-4.5422094882	 0.4022741448	 0.106692
H	-3.2734970094	-3.1977355711	 1.0027621188	 0.115415
24.8725	62.1446	111.4572	143.2571	208.7732	288.5942	325.9112	405.9788	639.0741	776.3284	788.6903	826.926	870.6414	945.1933	958.3351	1015.0857	1028.5868	1059.8221	1108.3863	1163.9016	1177.7357	1204.2491	1221.3732	1234.8656	1267.5023	1278.3778	1355.3172	1391.9564	1473.6175	1480.6492	1481.5844	1494.9513	1525.9997	1820.6977	3028.7508	3050.8914	3053.4765	3073.6748	3096.352	3128.9135	3159.6967	3162.7258
COC(=O)C1CCO1	COC(=O)[C@H]1CCO1	
InChI=1S/C5H8O3/c1-7-5(6)4-2-3-8-4/h4H,2-3H2,1H3	InChI=1S/C5H8O3/c1-7-5(6)4-2-3-8-4/h4H,2-3H2,1H3/t4-/m1/s1
