22
gdb 30682	3.5836	0.94857	0.81537	1.7589	88.79	-0.1989	0.0516	0.2504	1487.686	0.195078	-367.258927	-367.249385	-367.248441	-367.293829	36.09	
C	-0.100504404	 1.5989643187	 0.267067809	-0.390563
C	-0.1188700622	 0.0682579034	 0.2099883123	-0.154362
C	-1.4858339488	-0.5523813123	-0.1689677545	-0.08243
C	-1.9210731259	-0.1624041157	-1.5888686617	-0.399777
C	-1.4600409439	-2.0486230004	 0.0290891409	 0.285338
C	-1.4275398047	-3.0277999661	-0.9413950649	-0.185809
N	-1.3830170747	-4.2513844328	-0.3183987422	-0.242158
C	-1.3888893218	-4.0784584588	 1.0411744512	-0.075996
C	-1.4347943326	-2.7275381409	 1.286959729	-0.247988
H	 0.8721754354	 1.9641502054	 0.6121970397	 0.108859
H	-0.2899219252	 2.0518272093	-0.7111414593	 0.115166
H	-0.8607041109	 1.9779331153	 0.9602343926	 0.110173
H	 0.6354542543	-0.2896674061	-0.5033347861	 0.091128
H	 0.1796389227	-0.3301793399	 1.1864988513	 0.096315
H	-2.2278818891	-0.1393737888	 0.5308250023	 0.070523
H	-2.0390725473	 0.9199099083	-1.6882111364	 0.109689
H	-1.1787174265	-0.4821917108	-2.3298110974	 0.109768
H	-2.8765923263	-0.6286661052	-1.8470446394	 0.113259
H	-1.4388450796	-2.9585296906	-2.0167617765	 0.111452
H	-1.36261897	-5.1379913172	-0.789658414	 0.257713
H	-1.3656033235	-4.9234471441	 1.7105354414	 0.114411
H	-1.4560732755	-2.2642724205	 2.2624752527	 0.085289
36.1463	94.5723	127.3369	202.5262	231.8898	279.3277	288.4366	347.5299	400.1571	455.407	464.6519	638.5907	651.0814	683.122	708.9561	772.3121	780.8845	826.2942	843.8454	905.1902	946.3635	968.9907	992.2661	1033.1912	1078.5088	1093.4992	1098.8659	1132.4196	1165.5297	1177.5333	1246.9744	1287.0966	1294.8186	1324.0124	1361.3512	1373.2388	1402.8645	1412.7034	1415.259	1466.9093	1482.8429	1494.22	1503.5749	1506.4284	1511.7763	1521.1541	1606.196	2985.5059	3021.3043	3029.7561	3031.5878	3058.884	3094.0207	3096.4701	3103.4388	3114.5464	3235.8313	3264.3938	3267.4555	3689.1779
CCC(C)C1=CNC=C1	CC[C@@H](C)c1c[nH]cc1	
InChI=1S/C8H13N/c1-3-7(2)8-4-5-9-6-8/h4-7,9H,3H2,1-2H3	InChI=1S/C8H13N/c1-3-7(2)8-4-5-9-6-8/h4-7,9H,3H2,1-2H3/t7-/m1/s1
