17
gdb 14231	4.90677	1.73664	1.53736	0.9614	67.66	-0.2218	0.0671	0.2889	862.5357	0.142391	-363.780518	-363.773588	-363.772644	-363.811044	27.912	
C	-0.0893596086	 1.4735308078	 0.0063105017	-0.399526
C	 0.0401727721	-0.0377514795	-0.0240284954	 0.054494
C	 0.8420190223	-0.6166042763	-1.1773584616	-0.112282
C	 2.079827977	-0.5727516818	-0.3154149247	-0.125376
N	 1.1474685127	-0.5193188883	 0.9156453512	-0.176059
C	 1.0020126046	-2.0277786206	 0.8074268457	-0.24051
C	 1.4668378569	-1.910690771	-0.6335889002	 0.35933
O	 1.8618485934	-2.8852905891	-1.5231749972	-0.46021
H	 0.8728635299	 1.9540271164	-0.1965671979	 0.118656
H	-0.8079199338	 1.8159581146	-0.746107772	 0.111532
H	-0.4358448228	 1.803124828	 0.990457689	 0.122658
H	-0.9277751192	-0.5048645699	 0.1987900092	 0.068277
H	 0.7633714878	-0.4608862176	-2.2468661233	 0.09326
H	 3.0609024453	-0.1282207048	-0.3990072121	 0.099175
H	 1.7418464727	-2.5110642662	 1.4539222443	 0.097369
H	 0.0016851095	-2.412364964	 1.0372887556	 0.100605
H	 2.6373312603	-3.3294830975	-1.1622345524	 0.288607
194.7298	232.6916	248.3699	316.4323	358.8232	395.6885	469.4322	505.8801	626.1866	753.0714	782.0662	802.1721	831.6421	874.0699	905.6272	921.5943	943.1708	1008.6636	1016.6223	1063.3675	1078.3671	1083.6638	1123.1937	1129.6114	1172.8548	1198.1153	1244.4038	1286.0462	1288.1462	1326.4646	1384.8135	1411.2836	1437.2693	1488.7439	1493.9737	1516.4185	3018.5601	3032.4754	3035.084	3085.3848	3104.7259	3113.1099	3185.5166	3221.5565	3792.5168
CC1C2C3N1CC23O	C[C@H]1[C@H]2[C@H]3N1C[C@@]23O	
InChI=1S/C6H9NO/c1-3-4-5-6(4,8)2-7(3)5/h3-5,8H,2H2,1H3	InChI=1S/C6H9NO/c1-3-4-5-6(4,8)2-7(3)5/h3-5,8H,2H2,1H3/t3-,4-,5+,6+/m0/s1
