18
gdb 63242	2.2785	1.72998	1.27491	1.3365	72.89	-0.2364	-0.0339	0.2025	1047.8166	0.146526	-439.11649	-439.107556	-439.106611	-439.150722	32.734	
C	-0.3307722169	 1.5697956435	-0.0465186525	-0.391743
C	 0.0715430386	 0.0874419987	-0.0005266874	 0.138745
C	-1.1892911618	-0.8059234392	 0.039704322	-0.395144
N	 0.8089263431	-0.2241674613	-1.2305664759	-0.285936
C	 1.9417369699	-0.7763632721	-1.1899296059	 0.120489
O	 2.667152589	-1.2068751774	-0.129840717	-0.222109
C	 2.0247980982	-1.1812712636	 1.1466373722	-0.17539
C	 0.8730222778	-0.1899530433	 1.2710105258	 0.336618
O	 0.6022537327	 0.2818470738	 2.3495030677	-0.315216
H	 0.5538782674	 2.2074921462	-0.1279790157	 0.119519
H	-0.961132864	 1.7478975783	-0.9209713714	 0.124317
H	-0.8723620216	 1.8424724642	 0.8613255034	 0.134892
H	-1.7510404603	-0.664986603	-0.8874081628	 0.13593
H	-0.9249235974	-1.8654885621	 0.1146815023	 0.114716
H	-1.8195575789	-0.5392907126	 0.89188105	 0.134434
H	 2.4985398167	-0.9672706364	-2.1055513086	 0.132123
H	 1.6311585301	-2.1855822093	 1.3628982173	 0.142666
H	 2.7822440273	-0.9457795643	 1.8964761564	 0.15109
36.9274	76.243	202.6147	228.5018	249.8449	292.4011	316.4401	336.5044	463.2902	476.5537	515.9397	580.4472	623.3854	661.8815	818.9113	872.3167	935.6695	955.0051	959.5944	977.202	1000.1861	1035.5394	1114.3097	1172.9995	1181.0848	1241.3841	1249.413	1281.5947	1364.6023	1386.4292	1404.8883	1416.3562	1472.3754	1476.7761	1482.3349	1493.6119	1507.4046	1745.1119	1817.9585	3006.2714	3040.5858	3051.6009	3113.4173	3118.9274	3124.3302	3132.3091	3144.8132	3161.1632
CC1(C)N=COCC1=O	CC1(C)N=COCC1=O	
InChI=1S/C6H9NO2/c1-6(2)5(8)3-9-4-7-6/h4H,3H2,1-2H3	InChI=1S/C6H9NO2/c1-6(2)5(8)3-9-4-7-6/h4H,3H2,1-2H3
