17
gdb 6785	5.53393	0.87583	0.79365	2.6367	62.59	-0.2588	0.0583	0.3171	1424.5088	0.140591	-438.166812	-438.15742	-438.156476	-438.202632	31.831	
C	-0.1074306927	 1.3474009772	 0.0190276984	-0.225474
O	-0.0190781806	-0.0566712664	 0.0345902875	-0.227045
C	 0.5456660874	-0.5819562199	-1.1430591578	-0.068892
C	 0.5715134719	-2.0909735641	-1.0542776389	-0.063409
O	-0.778457678	-2.5636577742	-1.1344597956	-0.255494
C	-0.9130204342	-3.9122028842	-1.1284286388	 0.498185
N	-2.2360970835	-4.2460428601	-1.2301070135	-0.562968
O	 0.0053443627	-4.6963915418	-1.0770300446	-0.39865
H	 0.8832673799	 1.8194172459	-0.0817908643	 0.103442
H	-0.7429438078	 1.7086652636	-0.8051743436	 0.104941
H	-0.5504692237	 1.6578381555	 0.9682739041	 0.128815
H	-0.0314927147	-0.2702583622	-2.0294993295	 0.095714
H	 1.5800768576	-0.220634306	-1.2777580787	 0.08941
H	 1.1605269246	-2.5131814481	-1.8742764065	 0.120889
H	 1.0205022302	-2.4125622374	-0.1097193779	 0.128561
H	-2.9240160362	-3.5426069051	-1.0196774071	 0.264585
H	-2.4635475029	-5.2017217325	-1.0154908232	 0.267391
21.8031	69.6617	92.4714	161.6948	203.3966	235.0159	280.8664	319.0525	376.4232	466.7397	516.8395	527.8329	672.7166	785.0357	849.5245	874.0077	1009.2752	1057.9912	1101.958	1119.4944	1136.4234	1172.7128	1188.0871	1228.8671	1262.9955	1301.0536	1343.5184	1411.8685	1436.7193	1480.1901	1485.8626	1498.0971	1501.4751	1522.1211	1612.7334	1834.2059	2953.3546	2970.0181	2988.8603	3011.4416	3057.4024	3105.1374	3115.6964	3611.5823	3740.1498
COCCOC(N)=O	COCCOC(=O)N	
InChI=1S/C4H9NO3/c1-7-2-3-8-4(5)6/h2-3H2,1H3,(H2,5,6)	InChI=1S/C4H9NO3/c1-7-2-3-8-4(5)6/h2-3H2,1H3,(H2,5,6)
