19
gdb 70060	3.09712	1.60524	1.28328	1.5441	81.12	-0.2328	0.0022	0.235	1038.7735	0.159913	-385.857465	-385.849917	-385.848973	-385.889041	30.522	
C	 0.0220075274	 1.5891599457	 0.1615544842	-0.490345
C	 0.1432977199	 0.0999626248	-0.0199359709	 0.391561
O	-0.6009161787	-0.7093292139	 0.8910193634	-0.301428
C	 0.8530292708	-0.8159317142	 0.9172634569	-0.052285
C	 1.3129633336	-2.0178078581	 0.152572514	-0.233045
C	 1.0278895893	-1.8200948947	-1.1381622899	 0.247594
C	 0.3808840424	-2.5319444741	-2.3033966513	-0.305874
C	-0.7154681954	-1.4064518817	-2.1844150705	-0.244306
C	 0.3200661337	-0.5138882042	-1.4047679831	-0.11169
H	 0.8375319248	 2.1109608843	-0.3502638787	 0.12034
H	-0.9231410342	 1.9514578894	-0.258472658	 0.126939
H	 0.0448903172	 1.8555964425	 1.2210558777	 0.127896
H	 1.3043045249	-0.4813280809	 1.8472029015	 0.09157
H	 1.6006570621	-2.9492729741	 0.6249930778	 0.09933
H	 0.9372445111	-2.4389360809	-3.2417419653	 0.111435
H	 0.0769274135	-3.5711956982	-2.1635723668	 0.113323
H	-1.1073419813	-1.0016823624	-3.1197176525	 0.102951
H	-1.5299961713	-1.714712522	-1.5275723833	 0.130938
H	 0.8418159204	 0.1674436524	-2.0857919152	 0.075098
160.5781	185.0887	208.5477	249.2245	315.6067	368.8444	498.9495	526.5819	579.589	675.2674	693.2423	747.2109	779.8821	810.7273	851.1841	854.3881	892.3862	929.1834	968.6416	984.0493	1006.9325	1026.7081	1063.9221	1077.9905	1113.263	1121.8986	1172.1851	1211.7335	1229.3001	1235.3965	1252.0796	1266.5455	1306.6889	1326.8229	1407.1098	1430.9666	1471.2462	1483.5848	1485.6813	1494.9586	1692.7867	3032.964	3045.7752	3051.8002	3072.9118	3094.7808	3113.3212	3122.2936	3145.8858	3153.0266	3203.8431
CC12OC1C=C1CCC21	C[C@]12O[C@H]1[CH][C]1CC[C@@H]21	
InChI=1S/C8H10O/c1-8-6-3-2-5(6)4-7(8)9-8/h4,6-7H,2-3H2,1H3	InChI=1S/C8H10O/c1-8-6-3-2-5(6)4-7(8)9-8/h4,6-7H,2-3H2,1H3/t6-,7+,8-/m1/s1
