21
gdb 108535	2.71712	1.73923	1.28976	1.137	82.02	-0.2457	0.0938	0.3394	1055.3378	0.184217	-387.048521	-387.040731	-387.039786	-387.080719	31.189	
C	-0.1604938186	 1.3294978683	-0.0204702347	-0.259746
O	 0.1673099797	-0.0443542619	 0.0341428547	-0.308092
C	 0.7483472299	-0.5546099556	-1.122725024	 0.498754
C	 2.1401739585	-0.0486409769	-1.5323952008	-0.304515
C	 2.3868184268	-0.9544250227	-2.7665155286	-0.247594
C	 1.0826832854	-1.7568401681	-2.7663028624	-0.002945
C	 0.6894021224	-2.1016017278	-1.2954544105	-0.114509
C	-0.8047172951	-1.9898696395	-1.6866181002	-0.249665
C	-0.1122867736	-0.8151223886	-2.4198313922	-0.127412
H	 0.7317513256	 1.966446441	-0.0966318713	 0.110819
H	-0.8236616788	 1.5563860321	-0.8675569495	 0.108754
H	-0.6818788813	 1.5693719468	 0.909151263	 0.126639
H	 2.1421213882	 1.0159544432	-1.7844803005	 0.095681
H	 2.8684537385	-0.200760548	-0.7297852639	 0.102104
H	 2.5194512317	-0.3835263385	-3.6909255003	 0.096477
H	 3.2648692393	-1.5970476544	-2.6485236982	 0.098995
H	 0.9314059378	-2.5183870753	-3.5322300282	 0.064477
H	 1.165298738	-2.83782147	-0.6443778098	 0.064849
H	-1.2041718742	-2.7887831865	-2.3174448594	 0.083884
H	-1.4962952215	-1.7274421385	-0.8846627765	 0.102679
H	-0.5616550086	-0.0699176992	-3.0799012968	 0.060368
81.5405	170.8976	197.0286	254.6481	338.7293	344.0609	433.7708	483.5247	616.6606	674.9812	707.3094	746.6482	822.1449	852.5723	893.8447	906.6714	916.4113	955.1302	997.2693	1013.6431	1024.3023	1049.3343	1054.2833	1087.9945	1110.7291	1113.148	1165.1481	1174.6495	1181.6397	1187.3398	1206.3666	1229.0668	1238.8986	1250.5225	1266.2166	1270.044	1278.1092	1325.6465	1356.6723	1480.8354	1487.3256	1491.4266	1506.7704	1507.4616	1511.9531	2990.9759	3040.6432	3045.0075	3054.9838	3057.5323	3078.0473	3084.1467	3091.4042	3098.3318	3112.5828	3116.1296	3128.7943
COC12CCC3C1CC23	CO[C@@]12CC[C@H]3[C@@H]1C[C@@H]23	
InChI=1S/C8H12O/c1-9-8-3-2-5-6(8)4-7(5)8/h5-7H,2-4H2,1H3	InChI=1S/C8H12O/c1-9-8-3-2-5-6(8)4-7(5)8/h5-7H,2-4H2,1H3/t5-,6-,7+,8-
