16
gdb 89628	3.96956	1.16503	0.9989	16.9659	68.21	-0.1689	-0.0297	0.1391	1156.3311	0.123727	-474.932115	-474.924014	-474.923069	-474.965468	30.069	
N	 0.1755163884	 0.8002032224	 0.190104316	-0.405715
H	 0.5237644908	 0.0872714141	 0.8869488414	 0.334211
H	 0.9336047832	 1.4261450014	-0.084850132	 0.317412
H	-0.2092569603	 0.3444744616	-0.6372536249	 0.318189
C	-0.8812346804	 1.4697858206	 1.0505610334	-0.097091
C	-1.960380552	 0.4298892042	 1.4743670307	-0.302589
C	-1.3104987934	 0.3746988848	 2.8659459007	 0.336714
O	 0.1300191009	 0.1062183928	 2.6289857216	-0.308334
C	-0.3450213669	 1.4424906744	 2.502312764	-0.053659
C	-2.007196479	 0.0584471896	 4.2262538565	 0.263325
O	-3.2076634162	-0.2014524513	 4.0404781878	-0.476167
O	-1.2709670415	 0.1674832695	 5.2085360534	-0.466924
H	-1.1940366639	 2.4068982618	 0.5934489048	 0.125923
H	-2.9514041513	 0.8753537757	 1.5504244938	 0.171363
H	-2.022155007	-0.5002148175	 0.8993532851	 0.105907
H	 0.1252931286	 2.2255168958	 3.0841667679	 0.137436
49.7104	111.7758	140.9309	251.8248	334.9002	356.1811	422.0138	437.5023	482.5891	618.6305	653.7267	764.651	767.3146	788.9783	815.8055	863.5992	928.8237	944.4946	971.4479	993.6293	1053.5299	1073.7291	1115.409	1176.5898	1193.9983	1214.5896	1271.0959	1313.2852	1341.6025	1342.5433	1413.9542	1470.6895	1623.5584	1669.5572	1820.6973	2962.9824	3054.7803	3140.9488	3159.8313	3204.454	3459.2516	3534.1098
[NH3+]C1CC2(OC12)C([O-])=O	[NH3][C@H]1C[C@]2(O[C@@H]12)C(=O)[O]	
InChI=1S/C5H7NO3/c6-2-1-5(4(7)8)3(2)9-5/h2-3H,1,6H2,(H,7,8)	InChI=1S/C5H7NO3/c6-2-1-5(4(7)8)3(2)9-5/h2-3H,1H2,6H3/t2-,3-,5+/m0/s1
