20
gdb 124460	3.10474	1.33127	1.17435	0.6422	80.86	-0.2537	0.0045	0.2582	1147.57	0.171244	-399.350094	-399.341104	-399.340159	-399.384379	33.865	
C	-0.0085333415	 1.5322780856	-0.0176854991	-0.396356
C	-0.0161965265	-0.0051941373	 0.011690704	 0.262374
C	 0.7627943828	-0.5275148904	 1.2302084118	-0.396393
C	-1.4511177113	-0.5394930724	 0.0167583495	-0.397795
N	 0.672909093	-0.488629726	-1.2122560008	 0.124337
N	 0.0936204842	-1.2524796336	-2.1308270387	-0.223313
C	 1.0535473982	-1.4430161958	-3.0398080399	-0.071773
C	 2.2035872932	-0.7680265507	-2.6181110325	-0.0615
N	 1.9396396735	-0.1691183452	-1.4549604878	-0.226023
H	 1.0142523105	 1.9110280145	-0.0689842282	 0.141865
H	-0.5614371802	 1.905385366	-0.884742987	 0.122898
H	-0.4832331152	 1.9222207367	 0.887385777	 0.116853
H	 0.2975908641	-0.1629417886	 2.1506400657	 0.116746
H	 0.7590392244	-1.6212238119	 1.2521452347	 0.122785
H	 1.7989575044	-0.1846121907	 1.2004945599	 0.142116
H	-2.0095716156	-0.1923751124	-0.8547055044	 0.132774
H	-1.4705870771	-1.6310730746	 0.0154152036	 0.13253
H	-1.9519422247	-0.1806116929	 0.9205147395	 0.111994
H	 0.8720358244	-2.0373375532	-3.9208421491	 0.122894
H	 3.1758738695	-0.685628357	-3.0770679082	 0.122987
21.7048	140.0517	213.7962	230.9518	269.9977	279.0509	334.5762	337.458	352.7894	451.0532	491.0187	599.6736	679.8857	713.8508	827.8337	843.0211	888.1088	929.4263	938.0672	969.3125	980.834	991.2854	1047.803	1054.7387	1101.5361	1179.6338	1219.4158	1251.6633	1258.4254	1299.6328	1323.1426	1348.6996	1396.0878	1401.288	1432.3986	1448.6488	1470.07	1482.5456	1487.2566	1496.679	1496.7571	1503.0489	1520.8629	3043.6824	3046.5238	3055.7238	3115.1238	3117.6641	3128.9835	3134.4964	3139.0563	3140.7974	3261.7557	3279.7522
CC(C)(C)N1N=CC=N1	CC(C)(C)n1nccn1	
InChI=1S/C6H11N3/c1-6(2,3)9-7-4-5-8-9/h4-5H,1-3H3	InChI=1S/C6H11N3/c1-6(2,3)9-7-4-5-8-9/h4-5H,1-3H3
