18
gdb 13463	3.72997	1.15565	1.07071	2.3748	65.16	-0.2341	0.0505	0.2846	1174.8336	0.151811	-422.029071	-422.019987	-422.019042	-422.063317	32.318	
C	-0.2433031799	 1.3914901865	-0.4018622775	-0.224154
O	-0.2617411524	-0.0136950689	-0.4401913195	-0.233849
C	-1.0398601078	-0.5740086719	 0.5988211485	-0.057549
C	-0.9956579736	-2.072113285	 0.4451742371	-0.110119
C	-1.8915732401	-2.9782084969	 1.2510539762	 0.008335
O	-2.8343912668	-2.3367053924	 2.0800285752	-0.425073
C	-2.1275866318	-2.8284420065	-0.2337524071	 0.091265
O	-3.2803651546	-2.1501488371	-0.6250011139	-0.427693
H	 0.3795829657	 1.7341771261	-1.231894716	 0.124539
H	-1.252661186	 1.8184337373	-0.5159201171	 0.103798
H	 0.1821709956	 1.7714302935	 0.5415636698	 0.099239
H	-0.6377520456	-0.2725951811	 1.5810693736	 0.087161
H	-2.0748823846	-0.2073517702	 0.544074724	 0.089608
H	 0.0068615176	-2.4525911624	 0.2710396279	 0.098532
H	-1.4742251502	-3.894965378	 1.6622877873	 0.093918
H	-3.4971711665	-2.9901944689	 2.3298187453	 0.297645
H	-1.8832389628	-3.6413789787	-0.9103380476	 0.100959
H	-3.7217584662	-1.8781416954	 0.1917919238	 0.283438
57.7278	86.1254	119.5401	203.2646	233.7924	247.6824	288.7859	307.0501	406.7393	502.9909	531.1133	620.5136	653.3287	764.2528	805.7111	930.0428	970.8527	998.1041	1061.698	1071.752	1120.0203	1145.5444	1153.9107	1162.8593	1186.8065	1221.1972	1235.0127	1256.3109	1285.1781	1327.3301	1347.5088	1412.552	1433.4208	1473.9413	1481.6755	1484.0493	1501.1694	1522.8123	2955.8693	2967.2839	3005.907	3015.3939	3111.2076	3118.9294	3150.3218	3161.8629	3736.9549	3801.4096
COCC1C(O)C1O	COC[C@H]1[C@@H](O)[C@H]1O	
InChI=1S/C5H10O3/c1-8-2-3-4(6)5(3)7/h3-7H,2H2,1H3	InChI=1S/C5H10O3/c1-8-2-3-4(6)5(3)7/h3-7H,2H2,1H3/t3-,4+,5-
