16
gdb 16971	3.37099	2.30932	2.05194	1.8733	58.24	-0.2534	0.0798	0.3332	730.117	0.133444	-420.880033	-420.873954	-420.87301	-420.910082	24.64	
O	 0.1258113218	 1.3969658689	 0.1420069456	-0.44139
C	 0.0198072081	-0.0019400067	 0.0487124942	 0.128542
C	-1.4379943725	-0.5611401273	-0.1055328446	-0.262759
C	-1.3430281075	-1.2469963796	-1.4806434448	 0.041128
C	-1.1734328425	-0.1829004456	-2.5790694885	-0.091817
O	 0.1647627087	 0.2947262288	-2.319195623	-0.293658
C	 0.6388961867	-0.5552208529	-1.2591779809	 0.14657
O	-0.001379802	-1.7866390553	-1.4559094794	-0.2458
H	 0.0735449613	 1.7211829737	-0.7682912677	 0.286781
H	 0.5144405592	-0.4224212394	 0.9279497893	 0.09314
H	-1.6760726185	-1.2914328142	 0.670536467	 0.1111
H	-2.1704260225	 0.2479396262	-0.0637944996	 0.110902
H	-2.06072725	-2.0370249054	-1.694695697	 0.093028
H	-1.2170521414	-0.6119881247	-3.5856974529	 0.115595
H	-1.8889478971	 0.6413106567	-2.5002825671	 0.109753
H	 1.7226475282	-0.6436003133	-1.3172560305	 0.098885
133.5369	295.0486	341.9519	425.7284	501.3872	528.304	572.4901	650.7451	785.1654	811.5536	833.0031	860.9025	900.9399	938.4165	959.835	975.7896	1022.1672	1048.1617	1058.2299	1100.0198	1119.1923	1165.0693	1198.0414	1234.7073	1259.6127	1286.6396	1300.2745	1323.9578	1334.3146	1355.6875	1373.0617	1445.3021	1481.6775	1520.1682	3040.2465	3070.9631	3081.4715	3090.0808	3126.8149	3140.1002	3146.199	3738.3948
OC1CC2COC1O2	O[C@H]1C[C@H]2CO[C@@H]1O2	
InChI=1S/C5H8O3/c6-4-1-3-2-7-5(4)8-3/h3-6H,1-2H2	InChI=1S/C5H8O3/c6-4-1-3-2-7-5(4)8-3/h3-6H,1-2H2/t3-,4-,5+/m0/s1
