18
gdb 48366	3.38596	1.13627	0.97441	2.3521	72.07	-0.2484	-0.0447	0.2037	1217.1473	0.147407	-439.039511	-439.030968	-439.030024	-439.07353	30.732	
O	-0.3792365124	 0.410441115	 0.9113988283	-0.27012
C	-0.173530394	 1.4166855098	 0.2743516449	 0.099319
C	 1.1970553658	 1.9011041776	-0.0817257369	 0.214131
C	 2.1254734497	 1.9971144493	 1.0996624689	-0.260244
N	 2.2829445874	 0.9326067204	 0.1202810778	-0.3315
C	 1.2932962472	 2.8426101107	-1.2565228432	-0.132986
C	 2.6791462594	 3.3548143877	-1.7090500205	-0.095573
O	 2.4385933324	 2.9310973661	-3.0659487669	-0.26963
C	 1.2328321931	 2.2437674319	-2.6846541655	-0.080026
H	-1.0116743853	 2.0501422909	-0.0882376401	 0.085949
H	 2.8962925273	 2.7632652411	 1.0886789835	 0.130372
H	 1.7186081413	 1.7532678738	 2.0768916196	 0.13697
H	 1.8643454171	 0.0776621114	 0.4887806712	 0.251536
H	 0.576540551	 3.6591248648	-1.124085441	 0.08684
H	 2.8507838027	 4.4346954736	-1.6386558615	 0.10236
H	 3.522359628	 2.8149257763	-1.2619304366	 0.12045
H	 1.3566965504	 1.1530662773	-2.7135306514	 0.108655
H	 0.3783302991	 2.5303321424	-3.3081847007	 0.103496
57.8987	94.7516	124.3425	186.811	241.7814	268.3136	327.2107	398.7746	453.3337	594.9199	746.937	808.7039	854.7085	889.6178	894.0138	929.1667	975.3876	996.703	1008.7289	1040.8889	1044.4681	1078.1293	1120.9064	1124.5323	1142.342	1169.7246	1184.7212	1252.864	1267.9359	1299.7909	1316.9587	1355.4726	1374.4851	1406.6943	1433.1813	1499.5717	1502.7465	1530.7148	1802.4281	2901.117	3009.2526	3024.5459	3051.1156	3065.0861	3076.6496	3109.8361	3203.2415	3462.5438
O=CC1(CN1)C1COC1	O=C[C@]1(CN1)C1COC1	
InChI=1S/C6H9NO2/c8-4-6(3-7-6)5-1-9-2-5/h4-5,7H,1-3H2	InChI=1S/C6H9NO2/c8-4-6(3-7-6)5-1-9-2-5/h4-5,7H,1-3H2/t6-/m1/s1
