20
gdb 22633	3.67452	1.07814	0.97612	1.2115	83.79	-0.2255	0.0182	0.2437	1280.6777	0.171142	-403.121688	-403.113064	-403.11212	-403.154542	33.926	
C	-0.0494521149	 1.4928162158	 0.0077358316	-0.479581
C	 0.0218406804	-0.0148399461	 0.0109321071	 0.349658
C	-0.7630562226	-0.8013946595	 1.0205618925	-0.336719
C	 0.7603655194	-0.7922962866	 1.0951817819	-0.153772
C	 1.4355222349	-1.9334104329	 0.4380650907	 0.441905
C	 0.8918847054	-2.1069200251	-0.9666754207	-0.329648
C	 0.2882914218	-0.7256234399	-1.318940105	-0.276372
N	 2.3722059867	-2.5783183216	 1.0133140514	-0.257977
O	 2.8868961836	-3.5890819044	 0.1728028578	-0.398352
H	 0.8610880249	 1.9321660747	-0.41582643	 0.118234
H	-0.8977602233	 1.8459301092	-0.5908978109	 0.118867
H	-0.1740181705	 1.8886540255	 1.0205962344	 0.116423
H	-1.2778512047	-0.241833595	 1.7946007771	 0.113913
H	-1.2671731923	-1.7168822454	 0.7272330375	 0.113214
H	 1.2394101458	-0.3130512141	 1.9397658	 0.094403
H	 1.6787079289	-2.4252924473	-1.6526971408	 0.133664
H	 0.1349714742	-2.8999207575	-0.9771614463	 0.124531
H	-0.6129183053	-0.8066465537	-1.9362476877	 0.099539
H	 1.0158542421	-0.1376817038	-1.8906669419	 0.104548
H	 3.5994630255	-3.9495064326	 0.7104174813	 0.303521
93.4658	172.3381	208.6368	223.8913	274.8546	337.8238	355.7643	370.6527	430.1082	462.0576	558.5096	582.4478	672.5591	698.2965	800.9333	814.3486	867.3193	924.8783	931.7406	947.8154	978.2575	999.5245	1031.39	1046.8035	1064.4652	1072.9467	1108.4403	1179.3419	1223.7403	1238.0135	1248.3971	1293.5986	1310.9045	1331.7003	1390.8541	1415.9574	1426.8834	1475.8381	1487.5546	1489.7228	1498.4487	1509.9926	1749.5237	3020.8024	3034.1877	3045.0443	3073.1007	3080.6462	3097.583	3116.0891	3126.0378	3193.1405	3211.2338	3823.9184
CC12CC1C(CC2)=NO	C[C@]12C[C@H]1C(=NO)CC2	
InChI=1S/C7H11NO/c1-7-3-2-6(8-9)5(7)4-7/h5,9H,2-4H2,1H3	InChI=1S/C7H11NO/c1-7-3-2-6(8-9)5(7)4-7/h5,9H,2-4H2,1H3/t5-,7-/m0/s1
