16
gdb 28470	3.18097	1.35461	0.95566	0.2217	76.26	-0.213	-0.0128	0.2002	1181.5503	0.12527	-437.965595	-437.957488	-437.956544	-437.998182	30.912	
C	-0.0776600102	 1.5201465037	-0.0288135308	-0.495527
C	-0.0060909097	 0.0149939263	 0.0033977489	 0.27661
C	-0.0012953725	-0.7366411076	-1.1642161862	-0.098643
N	 0.061686327	-2.0793738317	-1.185449523	-0.35736
C	 0.1217640551	-2.7085067778	-0.035519839	 0.312939
O	 0.1865792471	-4.0691020636	-0.0157518657	-0.448013
C	 0.1241554139	-2.0649818763	 1.2155429774	 0.291431
O	 0.1880998356	-2.7734563555	 2.3721237524	-0.443172
C	 0.0588981477	-0.6851887479	 1.2189279001	-0.248911
H	 0.7988778783	 1.9745777	 0.4467789706	 0.1319
H	-0.1274921846	 1.888472772	-1.0569508162	 0.125907
H	-0.9608654961	 1.8920854218	 0.5027201548	 0.131793
H	-0.0499926363	-0.2478965213	-2.1334582988	 0.100906
H	 0.1753256297	-4.3573797189	-0.9380189103	 0.30204
H	 0.2251820181	-3.7096918035	 2.1388498591	 0.310789
H	 0.059003537	-0.1622333197	 2.1700079365	 0.107312
85.2995	146.7646	219.6267	285.6868	306.9754	372.3497	407.1534	461.2227	474.466	503.8797	508.567	597.557	613.2786	725.4934	778.6722	807.687	902.012	933.957	992.1052	1018.2161	1066.2096	1147.2688	1183.3291	1215.4495	1291.0626	1324.7728	1358.3427	1388.1983	1416.8286	1482.311	1484.0821	1507.6981	1526.1868	1644.0759	1663.485	3029.4828	3081.7987	3113.6921	3162.6756	3185.082	3783.4953	3790.5153
CC1=CN=C(O)C(O)=C1	Cc1cnc(O)c(O)c1	
InChI=1S/C6H7NO2/c1-4-2-5(8)6(9)7-3-4/h2-3,8H,1H3,(H,7,9)	InChI=1S/C6H7NO2/c1-4-2-5(8)6(9)7-3-4/h2-3,8H,1H3,(H,7,9)
