18
gdb 105551	1.9204	1.51587	1.28715	4.6883	76.89	-0.2615	-0.0474	0.2141	1126.4766	0.146008	-401.977348	-401.967966	-401.967022	-402.01276	33.507	
C	 0.0060917018	 1.662368605	 0.0293208674	-0.401283
C	-0.0780001499	 0.1349151619	 0.0535411044	-0.234127
C	 0.6910421787	-0.5155687171	 1.2276562074	 0.030023
C	 0.8170122062	-2.0831307403	 1.1513543192	-0.286041
C	 2.3476262973	-1.9842093851	 0.8879098976	-0.337786
C	 2.2490464078	-0.4622131776	 1.0186023215	 0.380891
O	 3.023535226	 0.4411380253	 0.9560083649	-0.271279
C	 0.2492417542	-0.0095223129	 2.5171926683	 0.262048
N	-0.0920959601	 0.3773894988	 3.5526694764	-0.344362
H	 1.0450912614	 1.9986007159	-0.0204529943	 0.148588
H	-0.5256513661	 2.0564317173	-0.8413854649	 0.120117
H	-0.4457388715	 2.0947693991	 0.9266948909	 0.145695
H	-1.1221821014	-0.1934260168	 0.1132803504	 0.121808
H	 0.3285841472	-0.2816113322	-0.8762023338	 0.10735
H	 0.5555441336	-2.5870486781	 2.0812382717	 0.137534
H	 0.2351894539	-2.5141087986	 0.3355704708	 0.123669
H	 2.9917167204	-2.4380036998	 1.6462292235	 0.152172
H	 2.6926571707	-2.3192142049	-0.0944113913	 0.144983
19.4462	109.0417	122.2462	166.896	182.5689	253.4606	272.5453	371.2285	404.2538	495.3286	540.0998	579.6949	642.2142	714.2139	749.651	793.11	871.2575	918.4374	942.1734	1005.1692	1033.9949	1049.3616	1069.6058	1112.6056	1165.6689	1201.4018	1223.4394	1239.6459	1268.0666	1315.4161	1356.5586	1420.8057	1435.6922	1486.6106	1488.238	1498.042	1510.0153	1899.2775	2344.53	3028.066	3048.3875	3065.799	3067.0512	3093.0338	3114.3328	3118.9983	3129.0575	3153.1911
CCC1(CCC1=O)C#N	CC[C@]1(CCC1=O)C#N	
InChI=1S/C7H9NO/c1-2-7(5-8)4-3-6(7)9/h2-4H2,1H3	InChI=1S/C7H9NO/c1-2-7(5-8)4-3-6(7)9/h2-4H2,1H3/t7-/m0/s1
