13
gdb 133528	2.1732	1.5068	1.33666	2.384	51.35	-0.3256	0.0001	0.3257	983.3466	0.083269	-584.26219	-584.253246	-584.252302	-584.295917	31.915	
C	-0.0173372472	 1.5520803692	 0.0707108542	-0.420155
C	-0.0192438078	 0.0229859076	 0.0272800171	 0.071185
O	 0.6602814609	-0.4416542117	 1.1694000487	-0.433645
C	-1.4085004472	-0.496214295	-0.0065127133	 0.25746
N	-2.4867246794	-0.9088828418	 0.0060491412	-0.318098
C	 0.7105499567	-0.4904655554	-1.2403907691	 0.278882
F	 1.9412466528	 0.0125121581	-1.3133683531	-0.062101
F	 0.8119514872	-1.8281941539	-1.191944409	-0.082982
F	 0.0498190687	-0.1591845959	-2.3506233252	-0.061426
H	 1.0156081058	 1.9011071215	 0.111392427	 0.155501
H	-0.5095263219	 1.9618213891	-0.8129401277	 0.15368
H	-0.5455178675	 1.8851901335	 0.9651128332	 0.157023
H	 0.6852578588	-1.4065583553	 1.1419528661	 0.304677
68.5416	138.1066	186.067	206.6188	231.3077	271.7702	334.2024	382.5533	400.9105	423.8742	451.7706	549.5911	561.2567	615.4284	648.8266	751.2728	892.9268	963.0014	1073.6662	1142.9615	1199.0225	1217.6613	1237.981	1297.0148	1380.1397	1409.0226	1482.8109	1491.0817	2362.8883	3070.3749	3158.2748	3159.6566	3790.0982
CC(O)(C#N)C(F)(F)F	C[C@@](O)(C#N)C(F)(F)F	
InChI=1S/C4H4F3NO/c1-3(9,2-8)4(5,6)7/h9H,1H3	InChI=1S/C4H4F3NO/c1-3(9,2-8)4(5,6)7/h9H,1H3/t3-/m1/s1
