23
gdb 93829	2.29771	1.33823	1.01149	0.2715	81.22	-0.2393	0.0724	0.3117	1283.548	0.206121	-425.439655	-425.430145	-425.429201	-425.473209	37.165	
C	-0.0456794089	 1.5412414123	-0.0602416873	-0.413778
C	 0.0708112898	 0.0142400667	-0.0278360024	 0.011126
C	 0.6922866916	-0.546778506	-1.3177648187	-0.204827
C	 0.7835660546	-2.0672613194	-1.2525840907	 0.092583
O	 1.4858409974	-2.5162783618	-2.4038631349	-0.432776
C	 1.5069927335	-2.4800598579	 0.0352976563	-0.106906
O	 0.8829389016	-1.9422153421	 1.1870944718	-0.26506
C	 0.8215609859	-0.5114516724	 1.2171575535	 0.127765
C	 2.2016487117	 0.110397247	 1.4644519756	-0.41306
H	 0.9278027789	 2.0186054042	-0.2122543614	 0.119077
H	-0.698730629	 1.8591824229	-0.8794063389	 0.115089
H	-0.4689034156	 1.930531462	 0.8723961283	 0.11171
H	-0.9442603304	-0.3991025187	 0.0506641652	 0.078104
H	 0.1009854725	-0.2465480553	-2.189823867	 0.09912
H	 1.7023933479	-0.1453399008	-1.4711298984	 0.103505
H	-0.2360485614	-2.4851549587	-1.2284909517	 0.067927
H	 1.4710865869	-3.4788456209	-2.4082214584	 0.282562
H	 1.4846387103	-3.5684865034	 0.1639778981	 0.091711
H	 2.5624331831	-2.1769221146	-0.0458566461	 0.093361
H	 0.2018354623	-0.3024323384	 2.097048509	 0.07901
H	 2.8633806167	 0.043634399	 0.596320907	 0.120962
H	 2.1046279909	 1.1674371365	 1.7268549011	 0.118736
H	 2.6836714195	-0.4046837902	 2.30004968	 0.124059
110.1744	155.2809	207.9348	244.3455	258.3608	270.6941	282.9661	289.4846	372.591	411.4426	427.3163	456.3812	488.2168	533.9991	630.2236	778.1847	861.9543	893.5131	905.7643	940.7786	981.7419	1021.4361	1034.851	1052.299	1071.5513	1090.2387	1120.9462	1153.3989	1170.3753	1194.3502	1213.4278	1259.699	1292.5166	1315.907	1338.4134	1350.9454	1354.3514	1383.3085	1395.8673	1403.297	1408.7098	1414.044	1441.6669	1485.3541	1487.3443	1498.5535	1505.905	1508.7914	1514.0989	2967.7566	2990.4303	3005.5378	3028.1929	3031.7102	3037.6942	3048.5138	3059.0541	3072.6026	3096.0716	3101.5116	3119.7216	3121.0471	3813.6394
CC1CC(O)COC1C	C[C@H]1C[C@@H](O)CO[C@H]1C	
InChI=1S/C7H14O2/c1-5-3-7(8)4-9-6(5)2/h5-8H,3-4H2,1-2H3	InChI=1S/C7H14O2/c1-5-3-7(8)4-9-6(5)2/h5-8H,3-4H2,1-2H3/t5-,6-,7+/m0/s1
