21
gdb 84363	2.53019	1.42486	1.17926	1.1494	79.66	-0.2525	0.0064	0.2589	1152.4002	0.181631	-424.237212	-424.227697	-424.226753	-424.271304	36.71	
C	 0.1260680391	 1.5610678751	-0.0178354123	-0.412745
C	 0.0263660767	 0.0275444011	 0.0019165339	 0.226313
C	-1.4583284318	-0.3932214975	-0.0482537099	-0.419929
C	 0.7724388581	-0.6043995852	-1.1581116966	-0.07422
C	 1.559992467	-1.6156430318	-0.8016226163	-0.152434
C	 1.5413593668	-1.847025097	 0.6853231443	 0.073297
O	 2.8408195959	-1.938396402	 1.272569287	-0.443705
C	 0.7253532544	-0.6221565041	 1.2418549509	 0.048219
O	 1.6052077255	 0.302299374	 1.851158226	-0.440326
H	 1.1656289871	 1.8906690255	 0.0067069143	 0.126483
H	-0.3472584376	 1.9553052211	-0.9240358374	 0.100303
H	-0.3830528136	 1.9980881446	 0.8466575907	 0.117718
H	-1.9264649294	-0.0621000657	-0.9814234058	 0.111862
H	-1.5688632202	-1.480925388	 0.0108508243	 0.113471
H	-2.0143624644	 0.0536987731	 0.7829952065	 0.117054
H	 0.6155050433	-0.2653851889	-2.1781546291	 0.095167
H	 2.1510886544	-2.2335510674	-1.4692247272	 0.099677
H	 1.0563094517	-2.7939555006	 0.9485170627	 0.094035
H	 3.3797563485	-1.2593054281	 0.8495809563	 0.282718
H	-0.0265975173	-0.9568606302	 1.971388364	 0.05577
H	 2.2337099757	-0.2346380379	 2.3519132638	 0.281272
40.264	170.7719	205.4493	210.1695	244.9856	264.3177	321.8554	336.8897	349.3969	363.6328	473.4916	512.4634	574.3088	630.4292	661.7552	759.0376	812.6618	832.3455	838.9163	915.4551	944.9225	958.8817	984.1442	1017.7414	1024.708	1071.2313	1114.2288	1128.8294	1174.989	1216.666	1238.0614	1260.1209	1275.9674	1315.5317	1345.3523	1373.4814	1396.9355	1404.818	1423.9109	1439.5696	1481.4566	1483.7995	1501.7295	1506.4919	1686.8447	2983.4628	3026.257	3036.4559	3044.198	3096.2054	3099.8049	3101.6571	3138.2327	3168.313	3197.9326	3753.9529	3791.211
CC1(C)C=CC(O)C1O	CC1(C)C=C[C@@H](O)[C@H]1O	
InChI=1S/C7H12O2/c1-7(2)4-3-5(8)6(7)9/h3-6,8-9H,1-2H3	InChI=1S/C7H12O2/c1-7(2)4-3-5(8)6(7)9/h3-6,8-9H,1-2H3/t5-,6-/m1/s1
