17
gdb 26825	3.49491	1.11153	0.84863	4.6277	86.37	-0.1907	-0.0271	0.1636	1317.3664	0.136497	-418.071773	-418.062764	-418.06182	-418.105574	32.903	
C	-0.0516337839	 1.5513286437	-0.0122175899	-0.51958
C	-0.0213641214	 0.0529597696	 0.0234730099	 0.238832
C	 0.0101536456	-0.7905909552	-1.0948446594	 0.275263
N	-0.0441942886	-0.4614538776	-2.442096884	-0.600704
N	 0.0269585712	-2.0754470742	-0.66864008	-0.347819
C	 0.0093905333	-2.1117602431	 0.7191384698	 0.218832
C	 0.03093274	-3.368998497	 1.4046700973	 0.060356
O	 0.0645315403	-4.4540070477	 0.8395580702	-0.346953
C	-0.0238033142	-0.7918934868	 1.1514128422	-0.308764
H	 0.7128092487	 1.9649839416	-0.683611022	 0.113896
H	-1.0200643536	 1.9460993199	-0.3454308234	 0.130404
H	 0.1410857979	 1.9638772764	 0.981657916	 0.132292
H	 0.172938683	 0.509867183	-2.6169155737	 0.258696
H	 0.5030067531	-1.0603666517	-3.0468992763	 0.25419
H	 0.0164977216	-2.9170515746	-1.2225590034	 0.271507
H	 0.0130291603	-3.2913484317	 2.5123146894	 0.063728
H	-0.0352159834	-0.4746959347	 2.1845112173	 0.105825
84.3742	110.7655	156.1269	207.878	224.4038	247.8169	282.196	384.2057	408.3809	513.8187	544.7072	622.7297	643.1753	656.746	716.2156	735.8183	820.5013	837.331	992.5225	1016.3044	1021.9942	1062.1326	1089.4535	1171.7606	1227.6904	1262.8517	1378.9255	1392.387	1417.9112	1425.1737	1486.2313	1498.176	1522.6553	1579.4501	1622.7106	1658.7251	1735.9457	2905.1029	3009.1009	3051.1643	3108.5188	3237.2027	3545.5845	3643.9866	3654.1951
CC1=C(N)NC(C=O)=C1	Cc1c(N)[nH]c(C=O)c1	
InChI=1S/C6H8N2O/c1-4-2-5(3-9)8-6(4)7/h2-3,8H,7H2,1H3	InChI=1S/C6H8N2O/c1-4-2-5(3-9)8-6(4)7/h2-3,8H,7H2,1H3
