18
gdb 59322	2.64668	1.2396	1.08478	0.374	68.91	-0.2671	0.008	0.2751	1176.7916	0.1458	-476.211639	-476.202074	-476.20113	-476.246423	34.652	
C	 0.2020048476	 0.4245303059	-0.8791615413	-0.426108
C	 0.0082141008	-0.1851499045	 0.5080226248	 0.128657
O	-0.0684057218	 0.8229529025	 1.512318176	-0.433879
C	-1.1999457778	-1.1090974533	 0.6457348008	 0.067196
O	-2.433048551	-0.5160727866	 0.0757028002	-0.274989
C	-2.5452596744	-1.5325205149	-0.8438455347	 0.406364
N	-3.3090341204	-1.7006922632	-1.8228692125	-0.554941
C	-1.3870567384	-2.3356931293	-0.2836498429	-0.022759
O	-0.3337158592	-2.6518277114	-1.1569170473	-0.419991
H	 1.0703373261	 1.0874447246	-0.8599706963	 0.124812
H	 0.3592524485	-0.3536480208	-1.6279478255	 0.137622
H	-0.6758936183	 1.012244945	-1.1672703928	 0.118704
H	 0.888702604	-0.7834910186	 0.7714465862	 0.108746
H	-0.8052340955	 1.4005570313	 1.2814802402	 0.285419
H	-1.3620208416	-1.3174676244	 1.7057634778	 0.105635
H	-3.9599738944	-0.9232747124	-1.9438344011	 0.233354
H	-1.7236214014	-3.221976064	 0.2709957312	 0.110122
H	-0.7307125826	-2.935834686	-1.9888680928	 0.306036
57.9765	73.6945	138.6716	187.4394	248.6297	267.9715	272.2033	308.333	343.6257	406.4472	441.2157	545.9943	605.35	668.8614	779.2514	806.7532	868.063	896.2268	909.0264	955.5372	998.7126	1023.9056	1055.0789	1113.4791	1141.9582	1167.73	1202.5193	1235.0681	1278.6382	1316.2138	1344.9885	1360.5679	1380.823	1395.7311	1406.0624	1420.1432	1493.1912	1506.692	1827.6721	3015.3424	3045.4136	3050.7425	3093.3145	3119.457	3147.1757	3480.7391	3795.6422	3800.6643
CC(O)C1OC(=N)C1O	C[C@@H](O)[C@H]1O[C]([NH])[C@H]1O	
InChI=1S/C5H9NO3/c1-2(7)4-3(8)5(6)9-4/h2-4,6-8H,1H3	InChI=1S/C5H9NO3/c1-2(7)4-3(8)5(6)9-4/h2-4,6-8H,1H3/t2-,3+,4-/m1/s1
