18
gdb 76608	2.27951	1.50771	1.05698	2.753	75.04	-0.2468	-0.0757	0.1711	1167.2066	0.144807	-439.094657	-439.084968	-439.084024	-439.129353	34.171	
C	 0.0610610735	 1.1963770354	 0.5540827258	-0.419194
C	 0.0040463102	-0.2426973769	 0.1039787183	-0.006234
C	 0.6876451692	-0.7583096154	-1.14937673	-0.018686
C	 1.5219882877	 0.1006537178	-2.0703480867	-0.409079
N	 1.1604590084	-1.113993817	 0.1687081806	-0.077135
C	 2.4014622615	-1.0057105975	 0.7175086987	 0.272853
O	 3.4521845019	-1.2111080979	 0.1375605454	-0.348557
C	 2.4334519268	-0.7160279874	 2.2224985522	 0.103315
O	 1.4830866705	-0.4133509788	 2.8941325218	-0.237146
H	 0.9959434211	 1.6845613768	 0.2682206388	 0.123753
H	-0.7683451472	 1.755457791	 0.1085827589	 0.127216
H	-0.0289364042	 1.2510839852	 1.6414421297	 0.157018
H	-0.9210640145	-0.7492517145	 0.3774581299	 0.107983
H	 0.1800907426	-1.5806176771	-1.6537154399	 0.105873
H	 1.9704159663	 0.9518488792	-1.5547436018	 0.129013
H	 2.3365640856	-0.4885911421	-2.4992007553	 0.152715
H	 0.9000316362	 0.4791759429	-2.8877685152	 0.123691
H	 3.4632151143	-0.8041305036	 2.6260370389	 0.112601
79.1183	121.7754	140.3783	140.8837	168.8151	208.1654	223.7132	269.3879	380.3056	452.2863	478.3259	517.5466	604.1632	637.3184	704.3947	790.3205	869.929	961.422	1008.2624	1026.5459	1035.3671	1082.0802	1133.8438	1144.6242	1168.7643	1200.1189	1229.9367	1369.2922	1379.4665	1410.9115	1414.9077	1419.435	1473.1822	1478.4994	1487.0605	1496.8015	1514.8029	1754.9183	1826.2982	2936.9623	3046.2466	3050.7971	3100.7553	3110.7643	3118.4922	3120.8943	3133.266	3141.284
CC1C(C)N1C(=O)C=O	C[C@H]1[C@@H](C)N1C(=O)C=O	
InChI=1S/C6H9NO2/c1-4-5(2)7(4)6(9)3-8/h3-5H,1-2H3	InChI=1S/C6H9NO2/c1-4-5(2)7(4)6(9)3-8/h3-5H,1-2H3/t4-,5+,7?
