23
gdb 61396	2.7582	0.91801	0.82774	2.0685	88.32	-0.2537	0.0572	0.3108	1526.2893	0.201292	-388.267849	-388.256481	-388.255537	-388.304124	42.611	
C	-0.3711704742	 1.7115728907	 0.2080869429	-0.381365
C	-0.1134760621	 0.1964744995	 0.0665342383	-0.181204
C	 0.8693925162	-0.3754863166	 1.1228293701	-0.175055
C	 2.3585642852	 0.0088233953	 1.0111835896	 0.331812
C	 3.147063831	-0.7638467744	 2.0814896333	-0.412916
C	 2.940319664	-0.2771387349	-0.3816316269	-0.420383
O	 2.4427610596	 1.4132616438	 1.2931323777	-0.451875
C	-1.3767144482	-0.5404332994	 0.1384737824	 0.324428
C	-2.4157015251	-1.140443208	 0.2214173574	-0.470668
H	 0.5618256088	 2.2668386229	 0.1143529453	 0.135348
H	-1.0785331508	 2.0485831949	-0.5546424874	 0.112869
H	-0.8016190872	 1.9322892772	 1.1896764369	 0.120293
H	 0.3091267744	 0.0147113783	-0.930466543	 0.101946
H	 0.5190507132	-0.0808346886	 2.1185134578	 0.110244
H	 0.8101107081	-1.4678058385	 1.0802099618	 0.10525
H	 3.1082364427	-1.8441467536	 1.9091102601	 0.115717
H	 4.2015396506	-0.4632454176	 2.0705190133	 0.099998
H	 2.7443155252	-0.5545357401	 3.0765081921	 0.123328
H	 2.4738146903	 0.3539821562	-1.1419265133	 0.127529
H	 4.0172157115	-0.0711824186	-0.3924818492	 0.102515
H	 2.8020933559	-1.3252412966	-0.6662596451	 0.118538
H	 3.3706047613	 1.6670541915	 1.2423223353	 0.274384
H	-3.3336595003	-1.6703480234	 0.2812530107	 0.189269
33.003	105.4192	131.1214	195.0324	222.0655	238.9613	253.0979	272.0116	288.1794	299.1891	340.574	364.5074	399.6731	442.1106	518.1833	538.1162	546.7116	619.8244	631.1088	768.9362	828.8317	867.1433	908.0461	922.0031	956.0013	968.9017	1005.2839	1064.5111	1073.7353	1133.6456	1159.2897	1192.5384	1206.7592	1286.1456	1312.4662	1347.828	1362.0309	1394.8479	1397.4721	1411.8153	1417.1702	1467.4704	1481.4926	1484.424	1494.5925	1500.1143	1502.698	1510.5655	2231.5561	3016.3815	3024.4694	3031.2092	3043.5323	3049.2259	3086.868	3089.5681	3097.3591	3114.5302	3116.7285	3121.5792	3158.3922	3505.9371	3803.802
CC(CC(C)(C)O)C#C	C[C@@H](CC(C)(C)O)C#C	
InChI=1S/C8H14O/c1-5-7(2)6-8(3,4)9/h1,7,9H,6H2,2-4H3	InChI=1S/C8H14O/c1-5-7(2)6-8(3,4)9/h1,7,9H,6H2,2-4H3/t7-/m1/s1
