16
gdb 35883	2.13049	1.66281	1.02021	2.9825	73.89	-0.2732	0.0174	0.2906	1129.6071	0.124601	-400.726221	-400.717827	-400.716883	-400.760401	30.546	
C	-0.2391704938	-1.2581245399	-0.217926554	-0.446011
C	-0.1247449663	-0.0704554378	-0.0791855927	 0.331666
C	-0.0049829199	 1.3617289157	 0.114461934	-0.202375
C	-0.4742362531	 1.8494336988	 1.5115550831	-0.097612
O	 0.2030272015	 3.0738012329	 1.7104343012	-0.230759
C	 1.5403770029	 2.8402401046	 1.3239624898	-0.096442
C	 1.4563887238	 1.9627928373	 0.032844453	-0.192477
C	 2.5323027736	 0.9833136332	-0.0374750439	 0.285936
N	 3.4128078018	 0.2360015693	-0.077658589	-0.323223
H	-0.3257968414	-2.3088905079	-0.3466485704	 0.207825
H	-0.6017424931	 1.8786696378	-0.6432952641	 0.126237
H	-1.5484177643	 2.034621445	 1.559101872	 0.130457
H	-0.1994936435	 1.1088473035	 2.2773717291	 0.114533
H	 2.0253100559	 3.8023718701	 1.1508915913	 0.131425
H	 2.090820727	 2.2964373584	 2.1050022056	 0.121048
H	 1.5241930189	 2.5960722292	-0.855060795	 0.139773
24.4891	111.9118	173.3683	190.1036	268.4208	302.3173	446.2169	472.4676	512.9141	561.5288	609.6779	646.4093	661.5642	688.6777	766.1128	919.6662	959.4853	1014.4797	1017.1531	1056.7701	1073.5166	1090.2946	1125.9044	1219.5984	1246.3796	1288.8021	1299.9707	1317.2309	1338.5193	1369.6652	1397.9936	1504.2297	1518.7138	2244.1955	2361.3825	2999.5893	3007.2099	3055.8022	3083.082	3119.8151	3124.4984	3503.2416
C#CC1COCC1C#N	C#C[C@H]1COC[C@H]1C#N	
InChI=1S/C7H7NO/c1-2-6-4-9-5-7(6)3-8/h1,6-7H,4-5H2	InChI=1S/C7H7NO/c1-2-6-4-9-5-7(6)3-8/h1,6-7H,4-5H2/t6-,7+/m0/s1
