17
gdb 8733	2.41447	1.86566	1.11072	4.1232	74.01	-0.2733	0.0294	0.3027	1063.8191	0.139788	-326.714429	-326.705193	-326.704249	-326.748199	33.165	
C	 0.0406833411	 1.5627783433	 0.0129815402	-0.40691
C	 0.020457723	 0.0211613612	 0.0238477616	-0.153123
C	 0.7255609217	-0.4877006286	 1.1983327282	 0.322479
C	 1.2896775674	-0.881059759	 2.1835341147	-0.446579
C	-1.4349713239	-0.5480307974	-0.0283435159	-0.130577
C	-2.2441554999	-0.0535986704	-1.2433657722	-0.408723
C	-1.4063459232	-2.0153912868	-0.025696151	 0.279093
N	-1.4020439914	-3.1704715084	-0.0592871223	-0.324001
H	 1.0677871576	 1.9186171774	 0.1196225602	 0.13841
H	-0.3617539194	 1.9611089622	-0.9211221817	 0.124703
H	-0.5424115009	 1.9647861087	 0.8474720727	 0.130071
H	 0.5389048157	-0.338747335	-0.8748876493	 0.123867
H	 1.7945466457	-1.2493696101	 3.042315383	 0.20346
H	-1.9432826792	-0.2340616623	 0.8917211046	 0.135116
H	-1.7231372209	-0.2827530809	-2.177763749	 0.137647
H	-3.2203582584	-0.5429955755	-1.2723390747	 0.143011
H	-2.4058978648	 1.0244913316	-1.1875965191	 0.132054
59.4051	117.6632	190.4303	200.0023	207.7613	214.7502	303.1198	316.4499	366.484	479.4491	513.6013	562.9178	597.1629	641.7479	655.6724	793.8725	849.9057	920.592	973.2174	1041.2477	1082.174	1106.2451	1135.3874	1153.6498	1272.6474	1319.7747	1339.9098	1350.2474	1404.5997	1415.6685	1489.8777	1492.2811	1498.0438	1508.4317	2239.7188	2359.0346	3017.981	3042.7631	3048.2144	3053.2753	3122.2575	3126.5585	3131.1951	3140.4898	3504.0061
CC(C#C)C(C)C#N	C[C@@H](C#C)[C@@H](C)C#N	
InChI=1S/C7H9N/c1-4-6(2)7(3)5-8/h1,6-7H,2-3H3	InChI=1S/C7H9N/c1-4-6(2)7(3)5-8/h1,6-7H,2-3H3/t6-,7-/m0/s1
