16
gdb 131861	5.91187	0.78679	0.70967	2.5004	68.26	-0.2193	-0.0133	0.206	1512.2689	0.126226	-467.358004	-467.349529	-467.348585	-467.392314	29.889	
O	 0.020858074	 1.3472528228	-0.2797134758	-0.423579
C	-0.057877792	-0.0362782091	 0.0470535343	-0.094145
C	-1.5317499532	-0.3980827168	 0.1064727201	-0.123745
N	-2.141863881	-0.1173684368	-1.1845074451	-0.386022
C	-3.4258400694	-0.5038421062	-1.4333348079	 0.507635
N	-4.1765497662	-0.0083875571	-2.4200849237	-0.324635
N	-5.2820952669	-0.7431064062	-2.2687112358	-0.066948
N	-5.2474762394	-1.6136883815	-1.2839888456	-0.105907
N	-4.0667582825	-1.4803874587	-0.7279436832	-0.283971
H	 0.9360250548	 1.564718575	-0.477062371	 0.294518
H	 0.4401072491	-0.651487468	-0.7160858486	 0.102166
H	 0.4078439406	-0.2465667175	 1.0210477204	 0.097037
H	-1.6454884045	-1.4611924398	 0.3324170554	 0.138551
H	-2.0125477102	 0.1653054533	 0.9207153091	 0.112121
H	-1.8838392205	 0.7804873204	-1.5681919949	 0.259521
H	-6.0892725427	-0.6354373938	-2.8630615979	 0.297404
44.6949	85.7147	119.3952	186.2968	260.7453	294.0762	344.3363	463.8799	486.6194	527.3595	615.4396	717.6145	783.0516	785.0428	900.5795	931.0137	1020.6159	1061.9928	1093.5245	1098.1964	1146.1095	1163.3979	1183.9287	1210.2604	1257.8117	1274.2009	1300.5408	1354.817	1386.0383	1456.1349	1461.6999	1503.3097	1512.2422	1515.6773	1633.608	2989.5993	2991.1952	3031.4761	3104.2622	3611.4709	3658.9376	3839.979
OCCNC1=NNN=N1	OCCNc1n[nH]nn1	
InChI=1S/C3H7N5O/c9-2-1-4-3-5-7-8-6-3/h9H,1-2H2,(H2,4,5,6,7,8)	InChI=1S/C3H7N5O/c9-2-1-4-3-5-7-8-6-3/h9H,1-2H2,(H2,4,5,6,7,8)
