19
gdb 80997	2.75686	1.5188	1.20403	3.2783	75.36	-0.2293	-0.0155	0.2138	1088.1886	0.158197	-423.033136	-423.024781	-423.023837	-423.065589	32.646	
C	-0.1164804685	 1.525180133	-0.0343511297	-0.431112
C	-0.0399139345	 0.0061839619	-0.0254185142	-0.030936
C	 1.2240376777	-0.5886220884	-0.7074398478	-0.050587
O	 1.9732295349	-0.3507373803	 0.5246518086	-0.333653
C	 0.6894359831	-0.6438450714	 1.1952100125	 0.400198
C	 0.5896839145	-0.1428954302	 2.6075010874	-0.496873
C	 0.5698318246	-2.1592457671	 0.9188437545	-0.384806
C	 0.9667311492	-2.0959340537	-0.5739016818	 0.447898
O	 1.0431596967	-2.9698004931	-1.3905004082	-0.325062
H	 0.8533852394	 1.9654342915	 0.2102507685	 0.138782
H	-0.4212217293	 1.8897560472	-1.0204245903	 0.122074
H	-0.8527687513	 1.8846118308	 0.6923835562	 0.12028
H	-0.9992834296	-0.4451998481	-0.302942751	 0.0785
H	 1.6788946062	-0.1999962026	-1.6165772193	 0.094632
H	 0.7268342955	 0.940435252	 2.6540948978	 0.132465
H	-0.3898555747	-0.3899485026	 3.0296540434	 0.126071
H	 1.3567301548	-0.613453973	 3.230744924	 0.13505
H	 1.2886314946	-2.7396034944	 1.5034065334	 0.13361
H	-0.4287476032	-2.5837853714	 1.056900596	 0.123469
125.3233	182.8267	212.3727	231.0081	242.5409	283.4472	357.5239	411.7244	481.5212	545.1727	584.5054	629.4928	674.2409	775.5716	791.6286	824.6342	861.6054	898.2325	955.0903	970.696	1022.9641	1056.3433	1068.2275	1078.9962	1130.5664	1173.5448	1186.1987	1206.3781	1225.9314	1236.9192	1260.9044	1333.0947	1385.6104	1404.175	1416.8	1452.494	1477.7918	1488.8864	1498.3964	1504.3454	1882.8587	3037.0436	3040.8326	3044.2629	3064.4653	3099.4511	3109.5929	3116.4813	3122.5119	3125.8283	3149.3989
CC1C2OC1(C)CC2=O	C[C@H]1[C@H]2O[C@]1(C)CC2=O	
InChI=1S/C7H10O2/c1-4-6-5(8)3-7(4,2)9-6/h4,6H,3H2,1-2H3	InChI=1S/C7H10O2/c1-4-6-5(8)3-7(4,2)9-6/h4,6H,3H2,1-2H3/t4-,6+,7+/m0/s1
