14
gdb 6620	9.55961	0.64175	0.60591	4.1715	89.78	-0.2485	-0.0683	0.1802	1786.8499	0.103729	-345.383555	-345.375042	-345.374098	-345.417569	28.597	
C	-0.0321233166	 1.4666726323	-0.055891275	-0.51945
C	-0.0080056583	 0.0167643305	-0.05570435	 0.25495
C	 0.0153984034	-1.1941530182	-0.0559284118	-0.182209
C	 0.0429280951	-2.5495266264	-0.0563524269	-0.280056
C	 0.0649430482	-3.7637795194	-0.0563968139	 0.353435
C	 0.103666986	-5.2121873986	-0.0580270692	 0.18635
C	-1.23559038	-5.8997489285	 0.1130346604	-0.478363
O	 1.1473043545	-5.8175716943	-0.1887519869	-0.268519
H	 0.5780009645	 1.8676720983	 0.7611695909	 0.165679
H	 0.3674965394	 1.8640479418	-0.9955869766	 0.165666
H	-1.0516988066	 1.8485359108	 0.0655326783	 0.162484
H	-1.6975613287	-5.594714559	 1.0581883455	 0.148048
H	-1.9186486348	-5.5986555808	-0.6885592157	 0.148048
H	-1.093843476	-6.9814148283	 0.0975342808	 0.143938
-2.0226	63.6452	73.8888	117.7851	160.9853	206.9426	323.2549	363.4077	376.7852	508.606	557.2259	564.0272	629.804	634.3144	839.8887	972.4642	1042.7512	1043.8608	1047.7676	1158.709	1309.3682	1382.2633	1411.5021	1460.2263	1467.3495	1468.0976	1469.4208	1756.8688	2254.9933	2362.5658	3026.9417	3038.8135	3091.186	3092.1872	3103.4312	3150.6573	-1.979	63.6456	73.8895	117.7851	160.9849	206.9425	323.2541	363.4075	376.7844	508.6056	557.225	564.0268	629.8037	634.3145	839.8887	972.4643	1042.7512	1043.8605	1047.7673	1158.709	1309.3682	1382.2633	1411.5019	1460.2264	1467.3492	1468.0977	1469.4205	1756.8685	2254.9932	2362.5658	3026.9417	3038.8135	3091.186	3092.1872	3103.4312	3150.6573
CC#CC#CC(C)=O	CC#CC#CC(=O)C	
InChI=1S/C7H6O/c1-3-4-5-6-7(2)8/h1-2H3	InChI=1S/C7H6O/c1-3-4-5-6-7(2)8/h1-2H3
