15
gdb 6659	6.95694	0.83686	0.76524	4.379	65.09	-0.2501	0.0171	0.2672	1409.2802	0.115495	-399.77244	-399.763124	-399.76218	-399.807993	31.594	
N	-0.0996940985	 1.3094006136	-0.17155675	-0.524764
C	 0.038743194	-0.0004481843	 0.2032533963	 0.375249
O	 1.0748858138	-0.4681902338	 0.6137891386	-0.324672
C	-1.2726340957	-0.7937143694	 0.1372211901	-0.144985
O	-0.9719464946	-2.1529918066	-0.0027375764	-0.219575
C	-2.1264859548	-2.9675008936	 0.0776989227	-0.202114
C	-1.7600767475	-4.3673942285	-0.0843757098	 0.281984
C	-1.4910773792	-5.5298419616	-0.2160263837	-0.407961
H	 0.7350396088	 1.8734667213	-0.1884857983	 0.264123
H	-0.8908099054	 1.6265269046	-0.7050283526	 0.257096
H	-1.8297191383	-0.5973132453	 1.0708471609	 0.117058
H	-1.9058815093	-0.4341489098	-0.6933790949	 0.088037
H	-2.6304144728	-2.8233375252	 1.0491112069	 0.121205
H	-2.8564227153	-2.6841663057	-0.7007028913	 0.116767
H	-1.2410126552	-6.5555278155	-0.3311021485	 0.20255
24.8232	77.0652	93.1207	106.6329	222.9259	257.5842	326.7381	333.6359	404.5307	498.6441	554.4195	608.5119	611.496	678.6861	686.7257	854.3616	984.6234	1009.1066	1035.3778	1050.0664	1101.4653	1177.1096	1250.0789	1262.3171	1300.4703	1392.9978	1444.4565	1487.8317	1511.5467	1618.9051	1829.214	2250.4808	2938.1439	2950.951	2963.4389	2969.5302	3506.4782	3595.1083	3727.0229
NC(=O)COCC#C	NC(=O)COCC#C	
InChI=1S/C5H7NO2/c1-2-3-8-4-5(6)7/h1H,3-4H2,(H2,6,7)	InChI=1S/C5H7NO2/c1-2-3-8-4-5(6)7/h1H,3-4H2,(H2,6,7)
