16
gdb 34157	3.83776	1.61758	1.41245	2.038	78.46	-0.2309	0.029	0.2599	926.2884	0.124868	-363.487322	-363.480756	-363.479812	-363.517985	27.392	
C	 0.0137800399	-1.1653028058	 0.0429322468	-0.332146
C	 0.0248187201	 0.0367810828	 0.0044988501	 0.087415
C	 0.0600604255	 1.4671900321	-0.067589314	 0.269494
C	-0.4387994984	 2.2771583909	-1.2859243022	-0.287414
C	 0.3853985117	 3.4225670434	-0.6581764714	-0.098005
C	-0.189652973	 3.6154571687	 0.7587684693	-0.049302
C	 0.8753175262	 2.8321745137	 1.4274267637	-0.055608
C	 1.3457209695	 2.3706724786	 0.0291092911	-0.128455
N	-0.4571747414	 2.1990166633	 1.1864855116	-0.181213
H	-0.0040271684	-2.2261883245	 0.0833101744	 0.1829
H	 0.0124997456	 1.9020492902	-2.2087453496	 0.114541
H	-1.5178148391	 2.4007659626	-1.4076731329	 0.112561
H	 0.736364891	 4.2877566047	-1.2156804005	 0.081298
H	-0.8521855749	 4.3835140689	 1.1371639049	 0.100002
H	 1.335150759	 2.8920027768	 2.4058431044	 0.098746
H	 2.3360464068	 2.1016363137	-0.3261889755	 0.085186
146.6852	159.1935	390.9668	447.1566	506.489	523.3396	565.445	627.4854	648.0587	730.5612	754.7662	796.8801	814.2918	834.7254	858.969	881.8125	909.0949	947.7068	954.2427	1002.9901	1027.6852	1031.1888	1046.0464	1084.0688	1120.0033	1157.3467	1178.7778	1199.2534	1212.3389	1248.3952	1281.7857	1293.5493	1332.5622	1480.5201	2236.2029	3059.3873	3122.5709	3145.9508	3162.7281	3186.471	3200.0936	3502.739
C#CC12CC3C4C(C13)N24	C#C[C@]12C[C@H]3[C@@H]4[C@H]([C@@H]13)N24	
InChI=1S/C8H7N/c1-2-8-3-4-5(8)7-6(4)9(7)8/h1,4-7H,3H2	InChI=1S/C8H7N/c1-2-8-3-4-5(8)7-6(4)9(7)8/h1,4-7H,3H2/t4-,5+,6-,7+,8+,9?/m1/s1
