17
gdb 26281	3.58175	1.21962	0.99083	1.5224	77.38	-0.2567	-0.0575	0.1992	1188.9751	0.137389	-418.057376	-418.049354	-418.048409	-418.090653	29.994	
C	 0.1459560716	 1.3808822639	-0.4260074729	-0.390857
C	 0.0247980189	 0.0009943095	 0.2427792463	 0.060435
O	 0.4300367517	 0.0688530682	 1.5885662974	-0.440842
C	-1.3937463631	-0.5375200732	 0.1313503285	 0.297314
N	-2.1009706411	-0.5827491496	 1.2605400425	-0.32117
C	-3.3559040437	-1.0322791457	 1.1834445792	-0.018874
C	-3.9073241366	-1.4421450818	-0.0241690385	-0.016928
N	-3.2079500446	-1.41070255	-1.1634284779	-0.235049
C	-1.959805339	-0.9590792574	-1.07767495	-0.04659
H	 1.1684305883	 1.747904524	-0.306267977	 0.13156
H	-0.0860784037	 1.3342505079	-1.4950621935	 0.111578
H	-0.5354419738	 2.0924235802	 0.0503434975	 0.123
H	 0.6929623967	-0.6976223876	-0.284199154	 0.090311
H	-0.3789017005	-0.0384668461	 2.1132831114	 0.289584
H	-3.9277008294	-1.0685763418	 2.1066466761	 0.12456
H	-4.9284391993	-1.8086389108	-0.0783019071	 0.122791
H	-1.3807031325	-0.9357106996	-1.9979921581	 0.119177
36.0383	132.7115	218.2608	256.8866	294.3177	380.6823	398.1214	438.6226	475.2043	556.5858	626.7264	668.7981	793.3356	807.907	870.8817	918.2114	970.9333	991.6091	1033.5608	1037.5583	1083.9021	1095.9133	1139.1415	1199.1307	1224.087	1260.3489	1293.4928	1329.8731	1360.4133	1398.0536	1426.0634	1451.6235	1490.3938	1495.7556	1507.1033	1583.2276	1619.5715	2984.4015	3037.743	3112.6718	3126.1942	3155.4019	3162.6342	3181.6231	3681.2613
CC(O)C1=NC=CN=C1	C[C@@H](O)c1nccnc1	
InChI=1S/C6H8N2O/c1-5(9)6-4-7-2-3-8-6/h2-5,9H,1H3	InChI=1S/C6H8N2O/c1-5(9)6-4-7-2-3-8-6/h2-5,9H,1H3/t5-/m1/s1
