21
gdb 79630	2.12194	1.83964	1.51023	1.7828	80.91	-0.2516	0.0744	0.3261	1030.8238	0.18345	-387.065812	-387.057555	-387.056611	-387.098134	32.832	
C	-1.1972297384	 0.3546970262	 0.3987875874	-0.429296
C	-0.3611682237	-0.8885286591	 0.6358311181	 0.003993
C	 0.9836627993	-1.2382495229	 0.0249234106	-0.097549
C	 1.9495660421	-0.164820612	-0.4233916007	 0.028809
O	 1.5509330417	 1.1979768878	-0.1900524142	-0.254853
C	 2.4444929594	 0.5818575986	 0.7440473739	 0.026685
C	 1.7897654511	 0.0345754203	 2.0118838595	-0.020312
C	 1.1781703163	 1.1039671764	 2.9260946988	-0.397589
C	 0.8405917484	-1.0837888788	 1.5366294428	-0.096082
H	-1.7433637462	 0.2587874462	-0.5468393468	 0.109591
H	-1.9430779697	 0.4578657435	 1.1955239253	 0.105835
H	-0.6024674779	 1.2617690905	 0.3460794961	 0.155258
H	-0.9962769605	-1.7735872296	 0.6793013667	 0.084123
H	 1.1057546715	-2.2087925785	-0.4444822709	 0.079684
H	 2.5379030124	-0.3175440247	-1.3242902617	 0.094168
H	 3.4299324841	 1.0414747845	 0.799879503	 0.089902
H	 2.5942783511	-0.4660886622	 2.5691807602	 0.077662
H	 0.4123138407	 1.6800655778	 2.4029184899	 0.13438
H	 0.7153893653	 0.6444699379	 3.8049321587	 0.113922
H	 1.9443826167	 1.8025424978	 3.2791266316	 0.110518
H	 0.8105638463	-1.9619577296	 2.1745357217	 0.081154
132.0336	163.5258	201.6706	219.5834	254.3695	290.4572	338.3915	468.5651	532.5677	612.6235	673.4112	697.0506	718.1456	769.3235	817.9008	848.8425	877.0309	899.4979	954.8558	976.3802	1013.986	1034.0668	1046.6663	1051.4059	1094.0159	1100.3345	1114.2669	1139.2878	1151.8663	1155.5937	1250.8877	1268.0871	1299.8615	1325.5936	1342.0785	1359.1977	1380.2663	1404.3575	1409.6206	1425.3762	1450.8542	1492.848	1495.207	1503.3716	1514.5963	3005.7595	3030.4771	3039.5104	3078.9534	3095.5376	3100.1212	3123.7483	3133.3885	3143.6898	3147.2553	3165.5754	3191.2297
CC1C2C3OC3C(C)C12	C[C@H]1[C@H]2[C@H]3O[C@H]3[C@@H](C)[C@@H]12	
InChI=1S/C8H12O/c1-3-5-4(2)7-8(9-7)6(3)5/h3-8H,1-2H3	InChI=1S/C8H12O/c1-3-5-4(2)7-8(9-7)6(3)5/h3-8H,1-2H3/t3-,4+,5-,6-,7+,8-/m1/s1
