23
gdb 95825	2.82089	1.14343	0.87431	0.6109	81.69	-0.2411	0.0737	0.3148	1383.53	0.206814	-425.429101	-425.419696	-425.418752	-425.463279	36.257	
C	 0.170254552	 1.626810093	 0.0338265466	-0.399828
C	-0.0192359025	 0.103010979	 0.0047134259	 0.015291
C	 0.5455451389	-0.4863409465	-1.3034790829	-0.207129
C	 0.0286754381	-1.8720899773	-1.7314529952	-0.210979
C	-0.0947749945	-2.9509459023	-0.641777679	 0.116301
O	 0.1232458102	-4.1953417077	-1.3032859764	-0.435304
C	 0.8648057073	-2.7901329336	 0.5497131556	-0.10648
O	 0.3748674517	-1.8658872951	 1.500761555	-0.2474
C	 0.6544221619	-0.5040149907	 1.2483876878	-0.064926
H	 1.2321279631	 1.8931029246	-0.0339686613	 0.115427
H	-0.3423589148	 2.1011295985	-0.8085211579	 0.115687
H	-0.2237460441	 2.0644741913	 0.9570090572	 0.112577
H	-1.094315038	-0.1145453482	 0.0685037186	 0.077393
H	 0.3330667487	 0.2069374358	-2.125828777	 0.092807
H	 1.6406030601	-0.5086537007	-1.2186271091	 0.094772
H	-0.9468748242	-1.7660769879	-2.2188351178	 0.101554
H	 0.7053022885	-2.2750182044	-2.4931820319	 0.113305
H	-1.1063632429	-2.9200591582	-0.2085359975	 0.072928
H	-0.1169638898	-4.9022074388	-0.6952783389	 0.280782
H	 0.9278319803	-3.7536069503	 1.0707909171	 0.087928
H	 1.8815002859	-2.5296890839	 0.2171295564	 0.092446
H	 1.745539071	-0.3486287183	 1.1705725668	 0.08184
H	 0.3115636631	 0.0233779514	 2.145002508	 0.101007
46.1295	165.8006	171.4758	213.6332	281.2994	294.8577	323.6777	331.7918	346.6433	413.8213	432.4799	474.6927	538.5473	566.4437	783.9904	812.1157	885.4986	912.55	935.9773	954.697	980.7293	1027.9441	1046.0285	1074.4075	1090.3384	1121.7419	1133.9218	1154.6377	1175.2101	1232.2639	1248.8322	1263.852	1298.6866	1325.3881	1331.2241	1347.518	1356.285	1370.4985	1390.5679	1404.1467	1411.8537	1430.5102	1442.577	1482.5128	1487.9314	1490.1106	1499.1253	1502.1891	1508.9796	2946.4949	2976.9062	2990.2584	3010.4398	3019.5063	3027.2546	3035.8531	3048.3101	3054.4985	3067.5541	3080.0229	3091.4708	3104.0797	3811.8793
CC1CCC(O)COC1	C[C@H]1CC[C@@H](O)COC1	
InChI=1S/C7H14O2/c1-6-2-3-7(8)5-9-4-6/h6-8H,2-5H2,1H3	InChI=1S/C7H14O2/c1-6-2-3-7(8)5-9-4-6/h6-8H,2-5H2,1H3/t6-,7+/m0/s1
