20
gdb 59882	2.76904	0.95138	0.86771	2.4559	77.03	-0.2455	0.0181	0.2636	1458.1328	0.169254	-440.303306	-440.29331	-440.292366	-440.339659	35.711	
C	 0.3890822898	 1.5796125525	-0.2575707091	-0.381672
C	-0.0788284748	 0.1471599632	 0.0282986538	 0.051468
C	 0.2818669093	-0.3044884077	 1.4472426974	-0.385749
N	-1.5142745513	 0.0118341168	-0.1968198927	-0.324766
C	-2.0454172535	-0.6357987475	-1.2639527609	 0.380688
O	-1.4119073861	-1.2046784331	-2.1367359941	-0.388392
C	-3.5576619997	-0.6344671206	-1.2906517808	-0.020121
C	-4.3284879108	-1.2656734134	-0.2065130852	-0.167375
O	-4.2402990466	 0.1561455	-0.3109761411	-0.238651
H	 1.4721564312	 1.6648044419	-0.1245761801	 0.118887
H	 0.144367916	 1.8690402286	-1.2829832992	 0.130128
H	-0.0889821417	 2.2934878696	 0.4237079687	 0.110566
H	 0.3826275207	-0.528398374	-0.697341277	 0.123959
H	-0.2020756381	 0.3318657235	 2.1980234981	 0.111013
H	-0.0335257956	-1.3369766248	 1.6211209052	 0.122385
H	 1.3624972489	-0.2423843607	 1.607657501	 0.121252
H	-2.163239869	 0.5240229444	 0.3846040896	 0.25453
H	-3.9784715411	-0.6154930882	-2.2930917102	 0.12422
H	-5.3071213066	-1.6892382126	-0.4233058293	 0.13117
H	-3.797320391	-1.7060831678	 0.635090796	 0.126461
22.7579	70.8362	104.5055	144.1864	227.8123	237.5722	258.8188	273.7635	360.8754	435.5105	445.4892	497.2258	598.7523	605.2144	745.7061	847.2744	854.8344	887.7073	923.7334	932.4143	948.8228	974.6724	1055.9618	1094.7651	1147.4675	1154.0185	1165.7929	1183.6348	1192.5548	1251.4031	1269.2133	1360.46	1372.0277	1398.2452	1399.2037	1418.4005	1484.693	1487.7819	1496.6526	1506.2554	1517.2589	1549.8254	1780.1478	3027.8553	3031.8599	3078.2849	3094.0014	3094.6485	3108.5414	3117.2317	3120.7112	3152.2363	3187.4601	3596.9095
CC(C)NC(=O)C1CO1	CC(C)NC(=O)[C@H]1CO1	
InChI=1S/C6H11NO2/c1-4(2)7-6(8)5-3-9-5/h4-5H,3H2,1-2H3,(H,7,8)	InChI=1S/C6H11NO2/c1-4(2)7-6(8)5-3-9-5/h4-5H,3H2,1-2H3,(H,7,8)/t5-/m1/s1
