18
gdb 61632	3.0965	0.88328	0.81679	4.8278	72.98	-0.2694	0.0174	0.2868	1440.7178	0.146107	-439.070786	-439.061156	-439.060211	-439.106086	34.811	
O	-0.97853213	 0.5843181061	 0.0650315377	-0.413182
C	 0.1562255491	-0.2250297383	-0.1963876252	-0.013486
C	 1.1076857346	 0.3837330584	-1.2451458957	-0.233878
C	 0.3964478729	 0.6298402638	-2.5575152717	-0.021318
C	 1.1796374723	 0.6129277544	-3.8561293617	-0.349272
C	 0.2203941755	-0.5040487386	-3.5273997916	 0.10647
O	 0.7187408294	-1.7464366539	-3.1185712499	-0.419926
C	 0.8856793217	-0.5253512045	 1.0532841665	 0.254571
N	 1.4648354165	-0.7195384574	 2.0343943998	-0.319294
H	-0.676740161	 1.3966204242	 0.4883671066	 0.293047
H	-0.2392261205	-1.1650048017	-0.5939785107	 0.158624
H	 1.5248038319	 1.3194183937	-0.851094933	 0.104446
H	 1.9423636671	-0.3071544705	-1.3897053972	 0.13121
H	-0.4318858741	 1.3274516064	-2.4946883797	 0.10183
H	 0.9184414213	 1.3172059656	-4.6383868096	 0.116556
H	 2.2376528809	 0.3803539676	-3.7873518757	 0.117914
H	-0.7152212316	-0.5501509703	-4.0835215599	 0.092488
H	 1.0850163939	-2.1949357649	-3.8875368287	 0.2932
46.3081	66.2819	117.9197	195.6089	231.6397	276.8483	292.5854	316.7079	345.4992	419.8382	444.3896	558.3188	578.9501	603.4819	782.5646	815.5849	855.6899	863.4135	934.0304	999.5608	1019.0214	1028.2271	1065.4769	1099.9669	1134.5391	1141.9909	1171.6819	1224.1198	1236.5421	1282.5814	1294.2431	1319.8063	1356.595	1399.8436	1422.4133	1430.3135	1470.6983	1491.9057	2353.387	3029.8408	3079.4264	3103.7117	3105.9959	3130.2076	3168.6429	3219.3205	3796.5612	3811.1417
OC(CC1CC1O)C#N	O[C@@H](C[C@H]1C[C@H]1O)C#N	
InChI=1S/C6H9NO2/c7-3-5(8)1-4-2-6(4)9/h4-6,8-9H,1-2H2	InChI=1S/C6H9NO2/c7-3-5(8)1-4-2-6(4)9/h4-6,8-9H,1-2H2/t4-,5-,6+/m0/s1
