15
gdb 35304	5.87895	0.95568	0.89991	2.957	78.62	-0.2577	-0.002	0.2558	1246.5646	0.112404	-379.601014	-379.593019	-379.592075	-379.633664	30.091	
C	 0.0281162674	-1.2497333063	-0.1483576088	-0.453058
C	 0.0285863006	-0.0527990138	-0.0411926096	 0.34141
C	 0.0146501856	 1.3903156549	 0.0814617438	-0.176209
C	-0.2549175286	 2.0409936691	 1.4985593239	-0.296057
C	 1.0741265153	 2.7972824465	 1.3556662293	 0.236892
N	 2.1257690532	 1.7505158681	 1.2278095663	-0.341743
C	 1.3638455768	 2.1394326178	 0.0379613663	-0.112811
C	 1.378220935	 4.1183491426	 1.7909366457	 0.171014
N	 1.6141638167	 5.1934117781	 2.1503984575	-0.340129
H	 0.0364121954	-2.3078868293	-0.2385429754	 0.202394
H	-0.6702428674	 1.827604571	-0.6509342594	 0.120536
H	-1.1319868755	 2.688021554	 1.4967688594	 0.133117
H	-0.2868333057	 1.3501915783	 2.3408229195	 0.136717
H	 3.0312141034	 2.2186747481	 1.1853010405	 0.252586
H	 1.8515062478	 2.5469846009	-0.8386151191	 0.125342
83.3944	110.6146	187.1582	209.8132	312.7083	409.9571	457.5606	506.149	560.2614	580.8081	629.5644	639.6123	647.4162	692.9364	800.8015	871.4657	908.258	969.3924	977.6072	1004.9748	1053.2581	1082.6274	1122.9009	1149.937	1214.0513	1236.1434	1271.6628	1314.264	1359.7932	1402.0351	1474.8027	2240.7393	2345.5873	3067.0957	3095.2101	3162.5826	3202.0465	3481.1846	3503.116
C#CC1CC2(NC12)C#N	C#C[C@H]1C[C@]2(N[C@@H]12)C#N	
InChI=1S/C7H6N2/c1-2-5-3-7(4-8)6(5)9-7/h1,5-6,9H,3H2	InChI=1S/C7H6N2/c1-2-5-3-7(4-8)6(5)9-7/h1,5-6,9H,3H2/t5-,6-,7-/m0/s1
