21
gdb 52303	5.46478	0.65026	0.60697	2.9289	86.18	-0.2436	-0.019	0.2247	1819.0295	0.182191	-387.115381	-387.106056	-387.105112	-387.15106	33.55	
O	-0.0958965967	-0.1554708014	-0.2785209673	-0.238322
C	-0.0068351227	 1.0375566999	-0.1433117976	 0.160341
C	 1.2874594573	 1.8156316128	-0.1014815834	-0.28069
C	 1.335626242	 2.8948780048	-1.198628323	-0.206244
C	 2.6037351069	 3.7644416106	-1.1611320853	-0.009306
C	 2.697300076	 4.7489591341	-2.3604703926	-0.231383
C	 3.3372887058	 6.0448105422	-1.8024742939	-0.255384
C	 3.1054690911	 5.9197136774	-0.3155441255	-0.068323
C	 2.7171782064	 4.6940083959	 0.0306016012	-0.062224
H	-0.92125844	 1.6706731641	-0.0457208216	 0.068806
H	 1.349611187	 2.2940158415	 0.8862785617	 0.11854
H	 2.1208930683	 1.1126194827	-0.1927085748	 0.120701
H	 1.2713839648	 2.4053159529	-2.1786794743	 0.109956
H	 0.4541070088	 3.5448086574	-1.1165835395	 0.101453
H	 3.4694587967	 3.0830834262	-1.167278156	 0.078583
H	 3.2491400517	 4.3282720537	-3.2049307693	 0.098914
H	 1.6840680416	 4.9695050333	-2.7154233872	 0.101891
H	 4.4134395779	 6.0963365066	-2.0207134443	 0.107522
H	 2.8961960643	 6.9515254849	-2.2315858984	 0.103864
H	 3.2836114854	 6.7367868252	 0.3753888895	 0.092302
H	 2.5384077875	 4.3664684053	 1.0492009916	 0.089004
53.2675	55.3129	80.419	128.8684	157.5044	269.4248	321.3732	347.2967	496.1023	529.7245	620.0178	737.7197	757.3256	778.5921	834.0413	851.2686	887.3542	927.4878	967.9948	977.8191	980.8376	1014.4813	1053.5769	1070.899	1107.4454	1114.1181	1145.3503	1177.0575	1196.463	1229.606	1259.9948	1290.1442	1306.0392	1316.5189	1336.5773	1348.0235	1377.7834	1392.5584	1431.1018	1464.37	1482.4763	1492.5003	1500.106	1686.2612	1836.1629	2845.9954	2971.6526	3008.0162	3012.4313	3019.396	3039.2163	3054.5588	3057.8747	3096.681	3098.0562	3176.646	3202.4967
O=CCCC1CCC=C1	O=CCC[C@H]1CCC=C1	
InChI=1S/C8H12O/c9-7-3-6-8-4-1-2-5-8/h1,4,7-8H,2-3,5-6H2	InChI=1S/C8H12O/c9-7-3-6-8-4-1-2-5-8/h1,4,7-8H,2-3,5-6H2/t8-/m1/s1
