14
gdb 44268	3.25051	1.50164	1.19646	4.765	61.41	-0.2607	-0.0114	0.2492	986.2709	0.10326	-473.883568	-473.876608	-473.875664	-473.915439	25.87	
O	-0.3754998513	 0.2915307258	-0.5024166703	-0.311595
C	-0.1145916696	 1.3579798869	-0.0532701249	 0.458026
O	-0.9416467945	 2.2132629173	 0.6334232476	-0.244222
C	 0.1244197466	 3.2208035837	 0.7528557175	 0.005214
C	 1.1024174892	 2.2930492327	 0.0182769072	-0.240927
C	 1.4775725985	 2.9957919836	-1.3022958751	-0.189015
N	 0.5610495852	 4.1240666158	-1.3436160283	-0.313227
C	-0.1348717584	 4.3986924547	-0.1959163085	 0.408707
O	-0.8296516341	 5.363636164	 0.0174048289	-0.359813
H	 0.2764833927	 3.5109351138	 1.7903819856	 0.125729
H	 1.9524574075	 1.882879675	 0.560426947	 0.128204
H	 2.5230400234	 3.3272903618	-1.2852426268	 0.12549
H	 1.3476766189	 2.331832294	-2.1633204754	 0.144277
H	 0.533475626	 4.7740281708	-2.1138834846	 0.263151
93.3708	128.5212	224.1206	259.0743	437.0226	475.5704	542.7124	598.3599	665.1685	722.4935	756.6782	800.743	847.2371	900.768	930.4329	960.6848	1011.8307	1056.3772	1091.2578	1114.2819	1190.7378	1237.4966	1247.9127	1265.9603	1295.5123	1307.9702	1367.2942	1451.7041	1533.9392	1843.2878	1945.7897	3024.5203	3070.6311	3138.4103	3150.1421	3638.0516
O=C1OC2C1CNC2=O	O=C1O[C@H]2[C@@H]1CNC2=O	
InChI=1S/C5H5NO3/c7-4-3-2(1-6-4)5(8)9-3/h2-3H,1H2,(H,6,7)	InChI=1S/C5H5NO3/c7-4-3-2(1-6-4)5(8)9-3/h2-3H,1H2,(H,6,7)/t2-,3-/m0/s1
