17
gdb 51840	3.41655	1.03117	0.83127	4.7801	68.72	-0.2489	-0.0245	0.2244	1330.0308	0.135721	-459.018934	-459.010406	-459.009462	-459.053389	30.093	
O	-0.7872595216	 1.0289760953	 0.9330402489	-0.240957
C	-0.1048724899	 1.0728738896	-0.0592047312	 0.140475
C	 1.274249528	 1.7130557598	-0.0927289304	-0.295275
C	 1.4381297148	 2.7591408718	-1.2069030303	-0.155561
C	 2.7187530834	 3.6030345133	-1.1489578724	-0.253458
C	 2.9108396435	 3.9864425362	-2.6216168451	-0.088834
O	 2.3602330434	 2.8905501389	-3.3765474103	-0.214911
C	 1.5139223911	 2.1552257663	-2.6126997377	 0.448496
O	 0.9475932452	 1.1859417701	-3.0326694275	-0.338496
H	-0.4420879368	 0.6415625019	-1.0221706939	 0.118637
H	 1.4554208839	 2.1654897291	 0.8865057215	 0.123803
H	 2.0129442134	 0.9136539962	-0.2417410403	 0.131063
H	 0.5665933344	 3.4296936057	-1.2071971936	 0.122192
H	 2.6428653393	 4.4730999719	-0.4941216511	 0.123562
H	 3.5575126759	 2.9886123947	-0.8042015043	 0.123414
H	 2.3651104789	 4.9002437227	-2.8844186823	 0.122886
H	 3.9544711032	 4.1027177165	-2.9193390401	 0.132963
48.8352	83.2334	109.9254	186.3958	205.5333	290.2022	341.4279	450.1433	529.2019	597.2338	670.5453	709.4252	782.9488	824.0685	880.8766	952.4257	976.211	1011.6732	1053.2011	1063.9648	1120.5046	1134.2609	1173.0288	1205.4713	1214.0422	1237.185	1280.5301	1327.0213	1334.6338	1363.2966	1402.87	1419.2395	1460.1068	1495.1422	1524.0202	1826.9384	1869.0056	2953.1351	3009.2706	3026.7896	3041.03	3055.0711	3098.5148	3113.2371	3122.6724
O=CCC1CCOC1=O	O=CC[C@H]1CCOC1=O	
InChI=1S/C6H8O3/c7-3-1-5-2-4-9-6(5)8/h3,5H,1-2,4H2	InChI=1S/C6H8O3/c7-3-1-5-2-4-9-6(5)8/h3,5H,1-2,4H2/t5-/m0/s1
