18
gdb 56780	2.67138	1.47631	1.11488	2.391	76.49	-0.2444	0.0328	0.2772	1115.5255	0.14696	-401.859179	-401.850711	-401.849767	-401.892249	32.766	
O	 0.5271790591	 1.5174564556	-0.0369966605	-0.412775
C	 0.1196255244	 0.1594144913	-0.0248390882	-0.158394
C	 0.5571966266	-0.5532183128	-1.2351177075	 0.31908
C	 0.9257513062	-1.1288420943	-2.2240314584	-0.457887
C	 0.6378423888	-0.511064358	 1.2430782799	 0.316507
C	 0.7062471728	 0.2242403306	 2.5198304241	-0.279011
N	 1.9721163203	-0.0451823122	 1.8007807637	-0.179345
C	 2.2987518458	-1.4904243694	 2.0871825866	-0.147863
C	 0.9786668644	-1.9887974418	 1.4431724291	-0.324268
H	 1.4704308885	 1.5055522593	 0.1869422131	 0.297426
H	-0.9780084078	 0.1759579995	-0.0073939433	 0.121526
H	 1.2432150284	-1.6255059624	-3.1077269094	 0.200233
H	 0.4334343755	 1.2731633273	 2.5058694495	 0.135223
H	 0.5163899631	-0.2979450458	 3.4555936364	 0.110395
H	 3.1959716281	-1.784958654	 1.540600384	 0.118363
H	 2.444902049	-1.6937174018	 3.1528063376	 0.107909
H	 0.2866005852	-2.5649487092	 2.0629601133	 0.103333
H	 1.1415968816	-2.5141525119	 0.5020040098	 0.129549
68.043	127.2511	180.8219	247.9712	252.5825	337.7698	431.6122	460.8635	507.7906	520.4103	589.4708	631.6496	664.0258	691.1868	747.4323	781.9587	831.7059	874.0134	931.175	949.1336	982.563	1017.0377	1060.5632	1092.4684	1103.3295	1131.0313	1197.8306	1219.7119	1228.1667	1264.091	1277.6244	1317.3948	1319.3541	1373.932	1436.5019	1484.8325	1488.165	1511.8993	2230.8351	3026.6607	3051.5785	3066.8507	3105.6012	3116.0031	3139.2369	3216.5193	3501.2499	3719.8952
OC(C#C)C12CN1CC2	O[C@@H](C#C)[C@]12CN1CC2	
InChI=1S/C7H9NO/c1-2-6(9)7-3-4-8(7)5-7/h1,6,9H,3-5H2	InChI=1S/C7H9NO/c1-2-6(9)7-3-4-8(7)5-7/h1,6,9H,3-5H2/t6-,7-,8?/m0/s1
