22
gdb 84035	2.65287	1.41075	1.13224	1.6377	81.84	-0.2148	0.0763	0.2911	1174.9189	0.196393	-404.31427	-404.305889	-404.304945	-404.346855	33.23	
C	-0.2613964537	 1.5091743916	 0.219113336	-0.31687
N	 0.0443486291	 0.1001642379	 0.0395113358	-0.112133
C	 0.5387857219	-0.427498357	-1.2318621903	-0.004248
C	 0.8682109418	 0.4098581546	-2.4604883581	-0.241201
C	 2.2337443826	 0.0337537309	-3.0636125092	-0.192376
C	 3.4392421966	 0.5791009792	-2.2858672377	-0.063007
O	 3.6221118709	 0.062005043	-0.9802350471	-0.240483
C	 2.6595966198	 0.4944161209	-0.0296889324	-0.10849
C	 1.4243052508	-0.3927922975	-0.0277009524	-0.027818
H	 0.3837540011	 2.2230904729	-0.313644162	 0.103446
H	-1.2909009296	 1.6852299621	-0.1100245048	 0.123686
H	-0.2066733779	 1.7447456613	 1.2870763558	 0.123932
H	 0.096574505	-1.3919049646	-1.4829522546	 0.088146
H	 0.0805506789	 0.2594078792	-3.2073797384	 0.100739
H	 0.8610361123	 1.480712212	-2.2296103786	 0.097042
H	 2.319605952	-1.0569387305	-3.1434978369	 0.106388
H	 2.3050351613	 0.4311714871	-4.0846778444	 0.09294
H	 4.3594973961	 0.3305687633	-2.8251955105	 0.105251
H	 3.370535707	 1.6807222548	-2.2420278551	 0.08123
H	 3.1542916657	 0.4362018551	 0.9455854347	 0.107131
H	 2.4049301357	 1.5489941316	-0.2027433223	 0.087503
H	 1.5694973225	-1.3245064177	 0.5178285725	 0.089193
110.5345	158.7524	215.3677	265.4931	283.1712	322.2338	339.0417	394.1291	479.2239	484.9101	545.3585	591.0747	729.2723	766.8965	842.0948	859.3224	912.732	921.4	963.8123	1023.1025	1029.977	1060.2452	1086.3838	1112.9694	1141.0975	1148.5095	1164.7131	1179.9426	1187.8283	1227.1522	1255.1784	1281.6626	1334.4829	1348.2144	1353.6395	1379.2717	1387.1938	1406.2651	1421.2921	1441.9301	1458.1498	1477.1759	1482.7193	1489.7297	1492.799	1507.1351	1508.94	2947.3425	2985.4259	3010.1372	3018.5325	3037.1333	3060.6549	3062.0412	3066.9163	3068.2475	3074.5232	3095.7966	3097.0352	3110.0553
CN1C2CCCOCC12	CN1[C@H]2CCCOC[C@@H]12	
InChI=1S/C7H13NO/c1-8-6-3-2-4-9-5-7(6)8/h6-7H,2-5H2,1H3	InChI=1S/C7H13NO/c1-8-6-3-2-4-9-5-7(6)8/h6-7H,2-5H2,1H3/t6-,7+,8?/m0/s1
