18
gdb 83929	2.60388	1.46562	1.22561	2.5697	73.31	-0.2353	-0.0314	0.2039	1076.9148	0.147329	-439.064359	-439.056002	-439.055057	-439.097265	30.971	
C	-0.2987641416	 1.4662694664	-0.0049000887	-0.337897
N	 0.048195841	 0.0484006995	 0.0787354864	-0.13693
C	 1.3410062995	-0.4640827977	-0.2977193064	-0.097249
C	 2.5488268328	 0.4575970967	-0.3392201374	-0.105502
O	 2.533473157	 1.2047977668	 0.8700785547	-0.255468
C	 1.8524194008	 0.4585269446	 1.8776864396	-0.160432
C	 0.8995166328	-0.4734324177	 1.1503388126	 0.186477
C	 0.4140329163	-1.7101120839	 1.8167971691	 0.106511
O	 0.8088238003	-2.1036717162	 2.8871624701	-0.266432
H	 0.5164970534	 2.1531014756	 0.2460627584	 0.141603
H	-0.6350134796	 1.6702572182	-1.025929515	 0.129492
H	-1.1423549745	 1.6521899982	 0.6659760993	 0.130847
H	 1.3505523742	-1.358140226	-0.9169028799	 0.106762
H	 3.4620234055	-0.151685682	-0.4326661418	 0.10767
H	 2.5296572889	 1.1719755537	-1.1699713439	 0.118712
H	 2.5417269544	-0.1428255569	 2.4856768162	 0.125553
H	 1.3530028397	 1.1772704145	 2.5354684484	 0.119739
H	-0.3613350409	-2.2498703439	 1.2313603684	 0.086544
96.8215	177.9331	193.6966	216.2267	225.2388	249.8388	268.6341	424.4038	494.7367	500.5436	668.1325	702.6525	745.1789	802.5018	879.8972	937.5757	991.7643	995.3328	1022.2615	1083.8388	1091.1822	1112.4689	1119.4759	1155.5778	1180.1752	1218.0616	1237.7381	1280.3984	1311.1705	1354.3036	1365.5633	1400.7004	1423.5629	1464.4785	1492.1025	1505.5421	1519.4158	1520.5988	1811.9439	2905.7487	2981.1519	3021.0927	3030.9405	3061.4521	3076.0605	3102.0691	3111.2374	3138.524
CN1C2COCC12C=O	CN1[C@H]2COC[C@@]12C=O	
InChI=1S/C6H9NO2/c1-7-5-2-9-4-6(5,7)3-8/h3,5H,2,4H2,1H3	InChI=1S/C6H9NO2/c1-7-5-2-9-4-6(5,7)3-8/h3,5H,2,4H2,1H3/t5-,6+,7?/m0/s1
