17
gdb 56937	2.17296	1.27983	0.97198	3.0443	79.08	-0.2575	0.0241	0.2816	1249.7546	0.135118	-380.827188	-380.817813	-380.816869	-380.86188	34.287	
N	-0.397313815	 1.2504098786	 0.1352312518	-0.496365
C	 0.1257156019	-0.09175647	-0.1409145814	-0.15883
C	 1.0074912596	-0.1334443671	-1.3311912419	 0.259835
N	 1.6926807312	-0.1048495455	-2.2621785191	-0.325128
C	 0.8611593366	-0.6417701472	 1.0684483225	 0.02123
C	 0.0801204043	-1.0964870337	 2.2617392789	-0.302431
C	 0.7968270356	-2.1286426607	 1.4035453024	-0.191643
C	 0.0429955755	-3.0359836546	 0.5881149648	 0.322379
C	-0.5862349935	-3.7984835629	-0.0975754372	-0.454389
H	 0.3735878348	 1.8937488557	 0.2951220857	 0.239577
H	-0.8931999207	 1.5994505115	-0.6802808262	 0.2447
H	-0.7276272163	-0.7459855234	-0.3504408997	 0.14035
H	 1.8223470533	-0.171672978	 1.2553101972	 0.108166
H	 0.4787173686	-0.8968576374	 3.2494857234	 0.126211
H	-1.0007599449	-1.0639172808	 2.1918748817	 0.139534
H	 1.7095115259	-2.5457490468	 1.8182289	 0.123597
H	-1.134832957	-4.4770306177	-0.7027809129	 0.203207
40.1765	103.8438	138.0739	200.966	226.8151	250.0307	277.0826	341.5543	414.5713	518.6805	534.0081	570.0424	595.5557	646.0769	663.1078	775.5868	816.8534	844.3151	872.1203	946.8074	970.4802	1023.2861	1061.0268	1073.9408	1122.9698	1130.0201	1152.9171	1211.352	1247.9466	1311.7579	1371.749	1386.517	1426.9194	1488.5046	1663.9071	2236.522	2345.3325	3060.7443	3145.6435	3148.7954	3157.6505	3236.9912	3487.9873	3503.6326	3566.928
NC(C#N)C1CC1C#C	N[C@@H](C#N)[C@H]1C[C@H]1C#C	
InChI=1S/C7H8N2/c1-2-5-3-6(5)7(9)4-8/h1,5-7H,3,9H2	InChI=1S/C7H8N2/c1-2-5-3-6(5)7(9)4-8/h1,5-7H,3,9H2/t5-,6+,7+/m1/s1
