21
gdb 122342	2.54722	0.98663	0.97375	2.509	75.33	-0.24	0.0507	0.2907	1377.209	0.180124	-461.324487	-461.31396	-461.313016	-461.360665	37.596	
C	-0.3113813155	 1.3781983311	 0.6316464876	-0.405236
C	 0.005826118	-0.0509129074	 0.24928886	-0.081445
C	 1.3847489665	-0.4223226593	-0.267401465	 0.07562
O	 2.3791702001	 0.5568505252	-0.3069381601	-0.426829
C	 0.9414563203	-0.9194444036	 1.079375237	 0.040008
O	 1.6534382874	-0.3575102319	 2.1402014028	-0.280098
C	 0.9569969963	-0.3462002191	 3.3837585798	-0.068622
C	 1.7704516587	 0.5087401906	 4.3410027091	-0.069803
O	 1.8848530125	 1.844412758	 3.8880762892	-0.41548
H	 0.456330146	 1.8038009712	 1.2794686227	 0.124437
H	-0.3842113884	 2.0112758748	-0.2583499489	 0.12465
H	-1.2658611311	 1.4358164098	 1.164716516	 0.114197
H	-0.8136208952	-0.5945950654	-0.2149050235	 0.085833
H	 1.4557741915	-1.1363352997	-1.0849049389	 0.093411
H	 2.8659698185	 0.4924684352	 0.5229124061	 0.292665
H	 0.7033993018	-1.9743968028	 1.215715769	 0.088239
H	-0.0442666262	 0.0827706185	 3.2494635901	 0.111717
H	 0.851499016	-1.3717554203	 3.7702830543	 0.094574
H	 1.2693011621	 0.5435908359	 5.3135574622	 0.1141
H	 2.7593987298	 0.0467781423	 4.4877403655	 0.096685
H	 2.274322041	 1.800883997	 3.0081619449	 0.291376
51.0723	72.3977	121.5323	140.8468	156.0121	194.1724	243.8764	266.0118	300.992	322.0679	401.2919	485.041	535.1971	621.4709	647.9012	764.6639	779.3889	861.9326	902.3148	918.2897	991.9915	1013.3191	1061.4685	1084.9655	1101.7659	1120.8755	1135.0821	1141.06	1162.935	1184.6042	1235.5604	1253.8647	1262.554	1346.5023	1351.6604	1378.2817	1389.5613	1408.8965	1417.0293	1429.4308	1453.5463	1491.9777	1495.5101	1501.0264	1509.0442	2984.3265	2991.3382	3042.6023	3051.1235	3085.3083	3095.9157	3098.7315	3122.9282	3133.0297	3145.456	3789.5879	3816.0349
CC1C(O)C1OCCO	C[C@H]1[C@@H](O)[C@H]1OCCO	
InChI=1S/C6H12O3/c1-4-5(8)6(4)9-3-2-7/h4-8H,2-3H2,1H3	InChI=1S/C6H12O3/c1-4-5(8)6(4)9-3-2-7/h4-8H,2-3H2,1H3/t4-,5+,6-/m0/s1
