23
gdb 110698	2.44098	1.31756	1.1489	0.2063	90.39	-0.2217	0.0203	0.242	1245.4725	0.206575	-351.158753	-351.14968	-351.148736	-351.192351	35.418	
C	 0.4659430678	 1.6626497976	 0.4319617268	-0.377449
C	 0.0151532865	 0.2115371682	 0.2214247066	-0.203216
C	 0.7025134688	-0.427275503	-0.9685861192	 0.017888
C	 2.0715157612	-1.0954673173	-0.9107985538	-0.109846
C	 2.4940669306	-1.6329849279	 0.4152919611	-0.084688
C	 1.7028260708	-2.6271334074	 0.8255181756	-0.084632
C	 0.6461157124	-2.9873417488	-0.2051893635	-0.019944
C	-0.7773815305	-3.1597158878	 0.3480146989	-0.399455
C	 0.8306256278	-1.9038641128	-1.2771412876	-0.107448
H	 1.5417833674	 1.7129532878	 0.6302381835	 0.116823
H	 0.2647188351	 2.2744058003	-0.454738997	 0.110203
H	-0.0546089944	 2.1217953177	 1.2783447476	 0.107393
H	 0.2130981509	-0.3639289248	 1.1297454902	 0.104188
H	-1.0713056865	 0.1861976483	 0.066219432	 0.092822
H	 0.5722899149	 0.1603899846	-1.877126429	 0.077791
H	 2.8235745281	-0.8104858786	-1.6393447514	 0.079392
H	 3.3292723581	-1.2256079454	 0.974875309	 0.0901
H	 1.7769847598	-3.139949257	 1.7790674071	 0.087349
H	 0.925929317	-3.9517810722	-0.6582383035	 0.080823
H	-1.1375217075	-2.2526458981	 0.8391416805	 0.123033
H	-1.4775578466	-3.4072168197	-0.4563866468	 0.112951
H	-0.8121410046	-3.9745181551	 1.0795299995	 0.108756
H	 0.6532363331	-2.1963615985	-2.3064367767	 0.077166
74.9055	131.1677	176.7237	206.7381	225.0227	241.6339	303.2478	348.0491	443.9804	547.4279	572.067	696.4597	729.9921	748.4952	764.5396	801.3562	815.1609	868.6778	895.5432	941.5036	966.0656	977.3178	996.2254	1030.1915	1042.9766	1059.4999	1094.4553	1104.1889	1118.6748	1125.5305	1137.2731	1151.5569	1234.7573	1288.5748	1305.1751	1312.7971	1331.6174	1343.7765	1370.1846	1385.0682	1405.257	1412.3894	1439.0276	1487.1652	1497.6062	1498.8758	1501.025	1505.5858	1665.7273	2969.2566	3022.7803	3029.1003	3035.9348	3078.1323	3096.0742	3097.4351	3102.839	3108.4963	3123.6681	3152.7166	3163.9956	3174.5097	3199.9237
CCC1C2C=CC(C)C12	CC[C@H]1[C@H]2C=C[C@@H](C)[C@@H]12	
InChI=1S/C9H14/c1-3-7-8-5-4-6(2)9(7)8/h4-9H,3H2,1-2H3	InChI=1S/C9H14/c1-3-7-8-5-4-6(2)9(7)8/h4-9H,3H2,1-2H3/t6-,7+,8-,9+/m1/s1
