20
gdb 77752	1.92684	1.59526	1.41436	4.0908	79.34	-0.2371	-0.0047	0.2324	1109.8587	0.16893	-403.145543	-403.136018	-403.135074	-403.17932	35.413	
C	 0.9499194499	 1.8193305515	-0.7812368502	-0.427744
C	 0.7226355448	 0.3430102829	-0.5459609774	-0.028918
N	 1.8510967179	-0.648950394	-0.5154268916	-0.234518
C	 2.8915206709	-0.0226602685	 0.2807840194	 0.385304
O	 4.0124212849	 0.2486559947	-0.0234865313	-0.309873
C	 2.0632287326	 0.0312392009	 1.5743999288	-0.172903
C	 2.0034586515	 1.265542204	 2.4662266474	-0.426675
C	 0.8974435864	-0.4439618853	 0.6931214797	 0.297355
C	-0.0599856146	-1.5212402213	 1.1115824178	-0.487521
H	 1.8019488866	 2.2206495433	-0.2308458549	 0.142155
H	 1.1371095102	 1.9942741014	-1.8455920903	 0.138951
H	 0.0568186181	 2.3871864483	-0.499604371	 0.125947
H	-0.0683064341	-0.0550855671	-1.1805358992	 0.104569
H	 2.3974112483	-0.8262561497	 2.1744469134	 0.115473
H	 1.6133271255	 2.1414557137	 1.9439729536	 0.12606
H	 1.3647790241	 1.0836951402	 3.3366292209	 0.122901
H	 3.0057047915	 1.5089723393	 2.8322372772	 0.139473
H	-0.7855631081	-1.132549696	 1.8356993696	 0.127433
H	-0.6160150974	-1.9095207302	 0.2536677712	 0.133609
H	 0.468789851	-2.356916998	 1.5821305267	 0.128922
115.1825	157.9404	170.6941	172.487	191.9609	210.6622	257.5208	299.9812	316.9629	411.4296	536.2299	564.1708	618.0887	639.4108	696.5139	698.3575	812.5397	869.2906	897.6055	996.2688	1020.16	1054.4991	1064.7264	1088.6046	1111.2027	1132.9045	1152.7849	1164.5338	1221.4858	1285.516	1339.0574	1362.1495	1407.7953	1415.411	1418.2114	1459.0788	1484.4019	1486.7564	1490.4889	1496.2598	1503.3041	1508.5689	1906.0297	3023.4245	3030.6641	3042.6248	3044.4815	3092.3138	3102.8646	3106.6793	3111.2789	3115.3001	3129.7409	3144.8812
CC1N2C(=O)C(C)C12C	C[C@H]1N2C(=O)[C@@H](C)[C@@]12C	
InChI=1S/C7H11NO/c1-4-6(9)8-5(2)7(4,8)3/h4-5H,1-3H3	InChI=1S/C7H11NO/c1-4-6(9)8-5(2)7(4,8)3/h4-5H,1-3H3/t4-,5-,7+,8?/m1/s1
