20
gdb 107184	3.30521	1.17114	1.02077	2.9201	79.67	-0.2083	0.0587	0.267	1268.4803	0.168432	-403.045377	-403.036531	-403.035587	-403.078798	33.976	
C	-0.1198252676	 1.5141440735	 0.2551851879	-0.383975
C	 0.1036516315	 0.0121812835	 0.0355311018	-0.306859
C	 0.7395112876	-0.3083699559	-1.2805822929	 0.427659
O	 1.4068452847	-1.5600943325	-1.4495997729	-0.26582
C	 2.1278419813	-0.3629747715	-1.7542776151	-0.089523
C	 1.6888081563	 0.1512764055	-3.1710065714	-0.076503
C	 0.2790303127	 0.1997945017	-2.7085971277	-0.139186
N	 0.69465596	-0.7834514181	-3.7222958108	-0.075716
C	 0.2630221537	-0.426661264	-5.0721296564	-0.318426
H	 0.8261392513	 2.0638420144	 0.2197366106	 0.120655
H	-0.7818290552	 1.9388286888	-0.5062540958	 0.120429
H	-0.5801727029	 1.6968500077	 1.2302666182	 0.119814
H	 0.7431934366	-0.3984891471	 0.8243930969	 0.116315
H	-0.8551957333	-0.5193185486	 0.1031995109	 0.111757
H	 3.0762982705	-0.1977077519	-1.256073197	 0.104369
H	 2.2345890952	 0.8412618422	-3.8014909578	 0.09422
H	-0.4887096796	 0.9346184608	-2.9154601945	 0.092965
H	 0.2364295569	 0.6588251589	-5.2705747123	 0.093802
H	 0.9428461602	-0.8898935029	-5.7938933556	 0.127215
H	-0.74050518	-0.8299052146	-5.2397154561	 0.126808
73.1393	137.5895	170.7045	232.0623	240.8061	259.2937	322.3343	397.6105	415.3179	502.3325	547.0513	663.412	767.7128	788.3792	795.9031	820.8874	850.3358	853.5757	902.6244	928.0677	956.3997	991.7982	1009.9707	1064.0725	1104.0033	1123.3926	1133.9211	1142.2383	1173.8393	1202.3436	1251.3061	1270.598	1295.6673	1327.0601	1352.7514	1411.0418	1449.4601	1470.5716	1481.5271	1491.5436	1499.8354	1500.3384	1509.1705	2952.0082	3020.8326	3038.7997	3067.4084	3069.9169	3106.2145	3107.9241	3112.4619	3180.0688	3190.8104	3204.5001
CCC12OC1C1C2N1C	CC[C@]12O[C@H]1[C@@H]1[C@H]2N1C	
InChI=1S/C7H11NO/c1-3-7-5-4(8(5)2)6(7)9-7/h4-6H,3H2,1-2H3	InChI=1S/C7H11NO/c1-3-7-5-4(8(5)2)6(7)9-7/h4-6H,3H2,1-2H3/t4-,5+,6-,7+,8?/m0/s1
