19
gdb 97154	3.52347	1.34231	1.15524	3.3412	78.72	-0.233	0.0282	0.2612	1122.9058	0.161529	-419.186628	-419.178586	-419.177642	-419.220312	30.258	
C	 0.0687084708	 1.4213560188	-0.0604590086	-0.322851
N	 0.1689591297	-0.0307920505	-0.0884035263	-0.330972
C	 0.4936582926	-0.6408051292	 0.9667659229	 0.497981
O	 0.7930423494	 0.0011893102	 2.1390551781	-0.281392
C	 1.0117896884	-0.7876380248	 3.3230846586	-0.051613
C	 1.0979774993	-2.2723614618	 3.0063406065	-0.023972
C	 1.9548495796	-2.5023621174	 1.7394292764	-0.237705
C	 0.6287214178	-2.1378348288	 1.0215310539	-0.116814
N	-0.156902454	-2.5927615588	 2.2354974826	-0.33273
H	 1.0515583832	 1.875771182	-0.2424007494	 0.120096
H	-0.5958722815	 1.7453313522	-0.8660488546	 0.116875
H	-0.3045143327	 1.8134103684	 0.8928857083	 0.120333
H	 1.9394144623	-0.424121475	 3.7789998978	 0.111209
H	 0.1785241495	-0.6026989386	 4.009747058	 0.121747
H	 1.2800590216	-2.8554147553	 3.912590151	 0.07881
H	 2.8402131656	-1.8821485673	 1.5696130866	 0.109643
H	 2.2050949037	-3.5574416401	 1.6047038719	 0.104262
H	 0.3639912963	-2.578452302	 0.0625708191	 0.09595
H	-0.2347882315	-3.607426112	 2.1751743472	 0.221142
26.3897	103.423	178.4407	231.1518	314.1656	383.0221	413.9667	432.9299	564.0709	652.8236	721.0614	764.8416	845.0903	860.8459	888.5009	908.4094	946.0904	969.3665	1014.2087	1026.1761	1039.9613	1080.4869	1090.6582	1118.3428	1140.5996	1165.2257	1183.5506	1214.4459	1246.676	1252.9249	1259.9616	1314.87	1368.7698	1405.0103	1416.7201	1438.8061	1487.2619	1493.5203	1498.5545	1502.6626	1786.236	3011.3133	3035.4821	3050.9403	3066.9146	3082.3952	3084.0828	3100.2055	3113.7739	3144.4973	3463.2119
CN=C1OCC2CC1N2	CN=C1OC[C@@H]2C[C@H]1N2	
InChI=1S/C6H10N2O/c1-7-6-5-2-4(8-5)3-9-6/h4-5,8H,2-3H2,1H3	InChI=1S/C6H10N2O/c1-7-6-5-2-4(8-5)3-9-6/h4-5,8H,2-3H2,1H3/t4-,5+/m0/s1
