18
gdb 97754	4.28227	0.66086	0.63739	3.2338	84.72	-0.2583	0.0169	0.2752	1818.9559	0.146505	-401.925757	-401.916315	-401.915371	-401.962797	33.229	
C	-0.5064535943	 1.454411964	 0.1554111821	-0.367163
C	 0.6303865289	 0.4834071732	-0.2119409063	-0.316925
C	 1.0667976219	-0.3432035226	 0.9072704774	 0.079393
C	 1.4087409924	-1.0212613619	 1.8427371756	 0.090426
C	 1.8347245847	-1.8249364542	 2.9655198552	-0.062781
C	 1.4023396919	-1.384891223	 4.3915370398	-0.365163
C	 0.6700931	-2.7079830659	 4.4104032884	 0.441253
N	-0.0312639383	-3.3153257904	 5.2521161773	-0.537696
O	 1.0468123785	-3.0659385143	 3.1318185457	-0.25195
H	-0.1923266986	 2.1396799864	 0.9472446672	 0.129272
H	-0.7965910764	 2.0461098886	-0.717562462	 0.118986
H	-1.3844844856	 0.908020532	 0.509595881	 0.133581
H	 0.3076407466	-0.1705374334	-1.0320837755	 0.138764
H	 1.4892241873	 1.0471121904	-0.5980913891	 0.135035
H	 2.8932136583	-2.0901877266	 2.8866923273	 0.119033
H	 2.2061941516	-1.2863392982	 5.1218813877	 0.140586
H	 0.7577651589	-0.5064508587	 4.4240970688	 0.146212
H	-0.3568872576	-4.2120300455	 4.8870200495	 0.229137
10.0798	54.4542	93.9468	133.5944	210.5833	241.5565	337.9798	385.3786	432.0749	492.6218	536.7501	550.0917	691.7461	757.1804	782.7955	864.3531	877.4216	907.6806	954.7759	994.3287	1022.6432	1024.6202	1080.9749	1102.2712	1122.3788	1183.3479	1219.4738	1234.1574	1285.3447	1310.0927	1349.5056	1369.4357	1409.8856	1461.7747	1470.0278	1495.1282	1505.0052	1829.8283	2363.6605	3023.0129	3046.2564	3051.2806	3063.1477	3095.9963	3120.4343	3125.8817	3155.4365	3477.6985
CCC#CC1CC(=N)O1	CCC#C[C@H]1C[C]([NH])O1	
InChI=1S/C7H9NO/c1-2-3-4-6-5-7(8)9-6/h6,8H,2,5H2,1H3	InChI=1S/C7H9NO/c1-2-3-4-6-5-7(8)9-6/h6,8H,2,5H2,1H3/t6-/m0/s1
