15
gdb 32298	2.80768	1.52538	0.99513	2.6581	74.24	-0.2098	-0.0443	0.1655	1126.0029	0.113593	-454.001446	-453.993362	-453.992418	-454.034508	29.205	
C	 0.0746124469	 1.4412909201	 0.0685678138	-0.325663
N	-0.0569368837	 0.0126768416	-0.0719157849	-0.357134
C	-1.2529255524	-0.633229516	-0.0187503776	 0.159739
C	-2.4989329444	-0.0699344115	 0.0227014459	-0.117942
N	-3.6511283707	-0.8286599803	 0.040775211	-0.256319
C	-3.5225381062	-2.0955376547	 0.0303493637	 0.107694
O	-2.3415775583	-2.7725816411	 0.0085280373	-0.19508
C	-1.1443799727	-2.0963721361	-0.0114391989	 0.421673
O	-0.1071275338	-2.7114197963	-0.0147469886	-0.365126
H	 1.1309663322	 1.7091417227	 0.0158598378	 0.138496
H	-0.4491862466	 1.9665116312	-0.7404472838	 0.136953
H	-0.3301574419	 1.8062386334	 1.0243320539	 0.129188
H	 0.7479860975	-0.5846389798	 0.0331939129	 0.26639
H	-2.6407244719	 1.0041567663	 0.0369261765	 0.111133
H	-4.364186124	-2.7773036295	 0.039689421	 0.145997
76.8699	120.5278	172.4339	192.7189	265.4695	359.1821	406.5185	459.2962	515.5536	579.5287	591.1776	612.6699	770.2814	796.2912	869.1824	892.2968	912.0697	1032.8453	1082.7371	1140.8104	1159.0763	1196.6132	1215.1568	1313.8334	1389.077	1409.1067	1465.3975	1479.6424	1516.7349	1540.7051	1619.8751	1666.8388	1818.4959	2992.0737	3043.9869	3134.2125	3198.6536	3220.0357	3633.6484
CNC1=CN=COC1=O	CNc1cncoc1=O	
InChI=1S/C5H6N2O2/c1-6-4-2-7-3-9-5(4)8/h2-3,6H,1H3	InChI=1S/C5H6N2O2/c1-6-4-2-7-3-9-5(4)8/h2-3,6H,1H3
