19
gdb 123744	4.87854	1.01676	0.97088	2.3586	82.35	-0.2365	0.0238	0.2603	1275.4294	0.162527	-382.081662	-382.074073	-382.073129	-382.114609	29.129	
C	-0.1217641415	 1.4953054774	 0.0543685734	-0.212168
C	 1.403609494	 1.4958112844	-0.2409600677	-0.242181
C	 1.4883248219	 0.1319700557	 0.4960088534	 0.101674
C	-0.0392557118	-0.0399293929	 0.2784878195	-0.24218
N	 2.403163695	-0.8847509924	 0.0312072108	 0.030503
C	 2.5181150081	-1.4139723864	-1.2142916077	-0.033595
C	 3.5308319071	-2.3485567663	-1.1649330844	-0.235105
C	 3.9729813238	-2.3120351649	 0.1728164076	-0.005241
N	 3.2910792415	-1.4270751394	 0.8944390879	-0.263909
H	-0.356772379	 2.0288593535	 0.979032997	 0.111234
H	-0.7866991437	 1.8536891797	-0.7330613738	 0.104891
H	 1.6035864284	 1.3793483096	-1.3099573088	 0.108877
H	 2.0148305418	 2.3143278334	 0.144607429	 0.110076
H	 1.7244628861	 0.267150074	 1.551581074	 0.110158
H	-0.615767592	-0.4855967568	 1.0916529478	 0.110077
H	-0.2466749295	-0.5900177617	-0.6438404441	 0.108878
H	 1.8847743425	-1.0934094252	-2.0260422842	 0.126308
H	 3.8922790509	-2.9617160655	-1.9744345627	 0.101972
H	 4.7566931463	-2.8905731565	 0.639839713	 0.109729
47.0509	122.6589	129.2099	261.7023	379.183	401.1232	560.9171	637.0433	676.7025	726.9242	765.4721	785.3558	829.8522	869.0926	886.7671	912.9841	925.974	934.8525	949.095	981.6639	1030.2518	1043.3688	1067.5135	1114.8568	1133.3196	1200.4917	1215.2943	1245.0244	1249.5404	1258.7779	1259.4264	1280.1198	1291.1775	1360.0076	1408.0527	1428.613	1476.6907	1483.639	1488.9128	1510.1972	1558.0432	3061.5812	3064.9226	3069.5838	3107.0219	3119.1846	3120.9169	3135.7295	3241.8481	3256.466	3276.8774
C1CC(C1)N1C=CC=N1	C1CC(C1)n1cccn1	
InChI=1S/C7H10N2/c1-3-7(4-1)9-6-2-5-8-9/h2,5-7H,1,3-4H2	InChI=1S/C7H10N2/c1-3-7(4-1)9-6-2-5-8-9/h2,5-7H,1,3-4H2
