22
gdb 116635	3.71175	0.96003	0.83031	2.6551	86.77	-0.2378	0.0243	0.2621	1484.7512	0.195503	-404.375226	-404.365959	-404.365015	-404.410625	34.379	
C	-0.0523721569	 1.5309236315	-0.2624973746	-0.362194
C	-0.0133287645	 0.0422160765	 0.0994373763	-0.134436
N	-1.3566903806	-0.5220243121	 0.0894436891	-0.287961
C	-1.7391260712	-1.2419144612	-0.8766061567	 0.386386
C	-3.1525489666	-1.7775113771	-0.9364052622	-0.271757
C	-3.2346166271	-3.1924583984	-1.5258880728	-0.211693
C	-2.461104612	-3.2308195186	-2.8463843545	-0.204434
C	-1.0290929763	-2.7720432853	-2.6042152251	-0.066719
O	-0.9481370509	-1.4854141101	-1.9740333705	-0.264055
H	 0.9417740136	 1.9784689128	-0.1626611495	 0.106297
H	-0.3875617966	 1.6690373205	-1.2952132057	 0.118215
H	-0.7432222344	 2.068694494	 0.3934245487	 0.122066
H	 0.6701133112	-0.484979667	-0.5771554823	 0.097005
H	 0.3739839615	-0.0651612127	 1.1198732976	 0.095484
H	-3.5771642111	-1.7168813443	 0.0665651254	 0.125051
H	-3.7319869794	-1.0973624841	-1.5768364927	 0.118347
H	-2.7985131476	-3.9154554677	-0.8241208389	 0.104625
H	-4.2802512285	-3.4813781745	-1.6704446607	 0.101494
H	-2.4442477242	-4.2387399182	-3.2754674066	 0.101924
H	-2.9386080453	-2.5702604862	-3.5807317433	 0.107286
H	-0.5016644493	-3.505077007	-1.9760652641	 0.103983
H	-0.4713620738	-2.6678628707	-3.5384675568	 0.115085
21.0037	75.8944	142.9374	171.1841	219.6926	292.9775	309.5313	383.0615	435.5913	489.8137	528.5584	583.0543	677.4515	767.3714	819.3826	834.9461	865.9708	902.6717	933.6584	936.9141	989.7595	1052.5842	1059.4632	1097.5293	1107.6416	1129.893	1152.2946	1198.4342	1200.8471	1246.1958	1279.9012	1300.7875	1308.5348	1357.7022	1368.2026	1374.1341	1381.0541	1401.3506	1421.4721	1469.1986	1483.5211	1489.3407	1495.5705	1497.0452	1511.1737	1513.1963	1759.538	2998.7723	3012.8342	3017.956	3025.7184	3032.0386	3036.4104	3054.8575	3076.2472	3081.7101	3094.8475	3107.8811	3115.7541	3122.9463
CCN=C1CCCCO1	CCN=C1CCCCO1	
InChI=1S/C7H13NO/c1-2-8-7-5-3-4-6-9-7/h2-6H2,1H3	InChI=1S/C7H13NO/c1-2-8-7-5-3-4-6-9-7/h2-6H2,1H3
