17
gdb 117423	2.27282	1.22399	0.92136	2.7791	70.4	-0.266	0.0021	0.268	1296.5408	0.134571	-455.160437	-455.150812	-455.149867	-455.19633	33.271	
C	 0.6360288079	 0.7523089816	-1.0334684118	-0.389757
C	-0.397700941	-0.3609867752	-1.0330112841	-0.045899
O	 0.1608655744	-1.6023275156	-1.526349338	-0.25715
C	 0.8550261681	-2.3451803996	-0.6606576149	 0.507569
N	 1.0050406052	-2.0802782333	 0.563965873	-0.578715
O	 1.3809942709	-3.4539852712	-1.2575019148	-0.25799
C	 1.1911315122	-3.6461398405	-2.6559271587	-0.191359
C	 2.0232442173	-2.7516654956	-3.4729410013	 0.269841
N	 2.6818011663	-2.065224006	-4.1276011796	-0.300288
H	 1.4353724236	 0.5322910979	-0.3230875817	 0.151908
H	 1.0666831762	 0.8825788693	-2.0301365648	 0.1373
H	 0.1588351454	 1.6917450198	-0.7367590189	 0.122138
H	-0.7969580102	-0.5382635487	-0.0323332489	 0.143601
H	-1.2169496284	-0.1495096488	-1.7239059407	 0.116947
H	 1.5652389457	-2.7954876707	 1.0200010129	 0.235448
H	 1.4879268098	-4.6804000558	-2.8462472183	 0.166356
H	 0.1433270066	-3.5191807576	-2.9387237993	 0.17005
42.4096	54.6639	104.3494	120.9449	209.4123	236.5759	262.9911	338.3564	374.4069	423.5355	477.4876	607.0435	646.9737	734.0313	797.139	805.7511	873.7659	907.7651	934.0617	1010.072	1043.077	1088.8302	1115.0465	1128.3435	1201.7664	1292.219	1324.1916	1333.7487	1395.7203	1410.0242	1430.5523	1470.6618	1483.6047	1490.2291	1509.1632	1764.6592	2366.6791	3048.9554	3074.8789	3075.0813	3117.3389	3123.7374	3128.1212	3148.5611	3542.9303
CCOC(=N)OCC#N	CCO[C]([NH])OCC#N	
InChI=1S/C5H8N2O2/c1-2-8-5(7)9-4-3-6/h7H,2,4H2,1H3	InChI=1S/C5H8N2O2/c1-2-8-5(7)9-4-3-6/h7H,2,4H2,1H3
