17
gdb 71274	2.61674	2.0063	1.42768	2.6558	70.85	-0.2482	-0.0226	0.2256	922.6877	0.136977	-421.826689	-421.819678	-421.818734	-421.857774	28.852	
O	 0.0548683443	 1.3988581908	 0.016751772	-0.499287
C	-0.0275995932	 0.0209985325	-0.0074746075	 0.336115
C	 0.2654102401	-0.7191557522	-1.3666372658	-0.300485
C	-0.9312269432	-1.6288733563	-1.0873839003	-0.064365
C	-0.9207428693	-2.1281656646	 0.347640241	-0.051991
C	 0.3682255716	-2.1091218455	 1.16080703	-0.360099
C	 0.8062244682	-0.6485576489	 1.0726032391	 0.364182
O	 1.6249967877	-0.0611894795	 1.7370643989	-0.348253
C	-1.400104943	-0.7270346065	 0.0396376963	-0.1508
H	 0.7344637314	 1.6087424004	 0.6779003387	 0.290253
H	 0.0508234475	-0.0164183509	-2.1747089353	 0.127107
H	 1.2550831083	-1.1643280337	-1.5228204374	 0.097112
H	-1.5275779015	-2.1304805089	-1.8398380709	 0.091685
H	-1.6664233032	-2.8788317621	 0.5816462407	 0.096582
H	 0.1932452931	-2.371751532	 2.2090739728	 0.137301
H	 1.1578765929	-2.7721443843	 0.7896775113	 0.13457
H	-2.3674629417	-0.3042386985	 0.2731613165	 0.100372
114.7611	261.3056	307.7561	347.8936	384.6525	443.8613	496.2994	510.2539	634.1404	646.0464	702.3804	725.2535	772.6315	812.6794	886.1433	904.6914	959.483	966.5102	978.2414	1015.7194	1031.6208	1061.3531	1063.3141	1082.0479	1135.8166	1158.0445	1181.5577	1206.609	1248.	1275.3461	1317.4762	1356.9584	1389.3749	1419.3542	1452.2778	1493.2755	1834.9807	3032.7693	3048.0597	3089.4921	3114.2995	3178.9684	3186.7974	3214.8285	3682.7667
OC12CC3C(CC1=O)C23	O[C@@]12C[C@H]3[C@@H](CC1=O)[C@@H]23	
InChI=1S/C7H8O2/c8-5-1-3-4-2-7(5,9)6(3)4/h3-4,6,9H,1-2H2	InChI=1S/C7H8O2/c8-5-1-3-4-2-7(5,9)6(3)4/h3-4,6,9H,1-2H2/t3-,4+,6-,7+/m1/s1
