16
gdb 102071	2.00941	1.33292	1.00361	3.7786	66.03	-0.275	-0.0541	0.2208	1213.7879	0.120674	-475.016637	-475.006648	-475.005704	-475.052487	33.749	
C	-0.717089561	 0.9614550711	 0.3882508787	-0.262127
O	 0.2537689488	-0.0820585461	 0.4337182806	-0.267194
C	 0.7956214471	-0.4685776683	-0.8085141213	-0.01998
C	 2.2932245158	-0.7293178383	-0.606802292	 0.151684
O	 2.9682185463	-1.3311395606	-1.3959899842	-0.236637
C	 0.1107807599	-1.7577683511	-1.3241230684	-0.023233
O	 0.0169236233	-2.70087734	-0.2861271799	-0.409133
C	-1.2145636819	-1.4574395558	-1.910465534	 0.272445
N	-2.2522748906	-1.2073776116	-2.3539107092	-0.325017
H	-0.2890912546	 1.872047845	-0.0511130751	 0.125089
H	-1.60504247	 0.6698369227	-0.1825495411	 0.153843
H	-1.0017907261	 1.1644600505	 1.4223196393	 0.143463
H	 0.7044232652	 0.3322474463	-1.55806974	 0.125338
H	 2.6964056808	-0.2892486368	 0.3292318886	 0.10922
H	 0.7507185596	-2.1843140025	-2.1034928147	 0.162808
H	-0.2830118424	-2.2124351344	 0.4938947128	 0.29943
55.3604	80.346	99.8617	141.3927	164.4116	183.5596	239.0648	265.8613	317.5327	406.7335	476.3643	487.4619	581.6271	610.338	703.6553	800.1081	959.935	969.7454	1003.5489	1076.2695	1099.2775	1144.7654	1182.3147	1216.8571	1254.9584	1269.0449	1341.4265	1347.336	1389.4411	1432.2151	1483.1797	1493.028	1510.1522	1841.724	2350.6394	2924.0682	3002.4052	3014.1774	3077.9892	3087.3663	3136.7432	3747.3176
COC(C=O)C(O)C#N	CO[C@@H](C=O)[C@@H](O)C#N	
InChI=1S/C5H7NO3/c1-9-5(3-7)4(8)2-6/h3-5,8H,1H3	InChI=1S/C5H7NO3/c1-9-5(3-7)4(8)2-6/h3-5,8H,1H3/t4-,5-/m0/s1
