25
gdb 104402	1.95497	1.42603	1.18118	1.6456	87.65	-0.2387	0.0737	0.3124	1267.9591	0.228651	-389.506269	-389.495962	-389.495018	-389.541049	39.05	
C	 0.1161699149	 1.5942521815	 0.2151627867	-0.401406
C	 0.2576674805	 0.070613703	 0.1039518083	-0.204213
C	 0.7253049031	-0.4699905166	-1.2697425171	 0.267729
C	-0.200373162	-0.0117622448	-2.4016081248	-0.459416
C	 2.1964706541	-0.0951917159	-1.5323411257	-0.096137
O	 2.9826336547	-0.9860254005	-0.7517885962	-0.267278
C	 2.2715867224	-2.2134328072	-0.5968448746	-0.087088
C	 0.887570057	-2.0224957799	-1.2476278072	-0.007235
C	-0.2210674685	-2.8500615759	-0.5987581093	-0.42958
H	 1.0501052136	 2.1160020779	-0.0171155816	 0.119272
H	-0.6581891587	 1.9846957146	-0.4518691145	 0.11717
H	-0.1638389036	 1.8729437277	 1.235952275	 0.113626
H	 0.9601470357	-0.273544987	 0.8718903455	 0.107308
H	-0.7107213543	-0.3812744321	 0.3478682537	 0.093434
H	-0.1888162217	 1.0756282136	-2.5230776714	 0.118082
H	 0.1018460445	-0.4525765331	-3.3575481921	 0.111163
H	-1.2378826702	-0.3078489915	-2.2101207803	 0.11399
H	 2.4293176831	-0.2046476098	-2.6052800904	 0.076822
H	 2.4571819078	 0.9254483351	-1.2377322518	 0.101919
H	 2.832735874	-3.0342350432	-1.063625982	 0.093215
H	 2.1888688847	-2.4368940078	 0.4759393645	 0.093802
H	 0.9654037214	-2.3340058609	-2.2976854299	 0.071104
H	-0.3133050798	-2.6423513406	 0.4714497767	 0.121405
H	-1.1924325086	-2.6576496585	-1.0665263714	 0.116748
H	-0.0137781241	-3.9200984181	-0.7078042202	 0.115565
85.3254	99.4537	141.5327	198.279	210.9076	224.9073	256.5759	280.6424	318.6565	344.7741	357.6204	462.9855	498.0314	575.9822	649.1359	725.5848	793.8768	834.6909	906.4488	925.9587	951.1585	963.5499	1004.9823	1010.7935	1033.6246	1045.0426	1079.7545	1090.8344	1134.186	1157.5106	1200.568	1202.1332	1218.9523	1238.3053	1275.3178	1328.7708	1336.5497	1368.1431	1371.8087	1381.0489	1405.4879	1408.2567	1414.1403	1422.8426	1479.2026	1494.4687	1496.4298	1499.1619	1502.8981	1506.3822	1513.406	1522.597	1534.2096	2956.713	2998.9258	3004.6978	3027.751	3030.7247	3033.3305	3035.0457	3039.0074	3067.0444	3081.1062	3091.9747	3094.9303	3098.8846	3103.3751	3107.4609	3111.3683
CCC1(C)COCC1C	CC[C@@]1(C)COC[C@H]1C	
InChI=1S/C8H16O/c1-4-8(3)6-9-5-7(8)2/h7H,4-6H2,1-3H3	InChI=1S/C8H16O/c1-4-8(3)6-9-5-7(8)2/h7H,4-6H2,1-3H3/t7-,8+/m1/s1
