19
gdb 38471	3.48187	1.69054	1.53113	1.6746	78.86	-0.2504	0.0876	0.338	928.8173	0.16224	-385.80665	-385.80041	-385.799466	-385.836795	27.355	
C	-0.0469686348	 1.5742177923	 0.1785541722	-0.246188
C	 1.4711160771	 1.2933087769	 0.0812052617	-0.100746
C	 1.2085323937	 0.0428409338	 1.0051549231	-0.302302
C	 0.0829384414	 0.030264596	-0.0755797002	 0.324465
C	-0.9728633039	-0.85060196	-0.7327722491	-0.398568
C	-0.8134756466	-0.4469675222	-2.2111122814	 0.062584
O	-0.8742606893	 0.9624895346	-2.4559032179	-0.244148
C	 0.4232771787	 0.3599148569	-2.4310610245	-0.035442
C	 1.1831259484	 0.3232468121	-1.1184609084	 0.009064
H	-0.4125530687	 1.8559569702	 1.170875079	 0.079271
H	-0.5014609357	 2.1723291322	-0.6049559985	 0.125593
H	 2.2892386957	 2.0073003361	 0.1850258409	 0.070966
H	 1.9419178313	-0.7677052377	 0.9647154491	 0.089845
H	 0.9110905784	 0.2687851299	 2.0326711166	 0.092199
H	-0.754403922	-1.9202030369	-0.6279151393	 0.10721
H	-1.9894912005	-0.674387294	-0.3679241785	 0.114681
H	-1.2560546711	-1.0629338096	-2.9913417887	 0.093427
H	 0.9430389232	 0.3601249167	-3.3867351669	 0.09186
H	 1.9405035748	-0.4661080175	-1.2216501695	 0.066229
253.6566	260.2853	378.328	402.6262	431.9998	538.6079	589.5913	709.8026	723.7178	776.5499	814.302	831.8796	844.3788	885.8883	896.3102	909.0129	948.7591	959.7409	989.2557	1019.649	1035.5416	1044.6743	1078.6229	1098.5372	1115.4239	1135.0859	1148.4058	1154.8451	1198.1789	1208.5552	1219.9908	1246.3865	1255.4206	1268.5233	1291.4711	1337.4349	1375.6321	1410.0544	1469.5046	1500.6793	1542.4212	3008.3841	3038.9232	3046.8773	3056.6403	3089.4868	3102.0314	3115.1106	3129.8715	3141.7815	3186.2671
C1C2CC11CC3OC3C21	C1[C@H]2C[C@]31C[C@H]1O[C@H]1[C@@H]23	
InChI=1S/C8H10O/c1-4-2-8(1)3-5-7(9-5)6(4)8/h4-7H,1-3H2	InChI=1S/C8H10O/c1-4-2-8(1)3-5-7(9-5)6(4)8/h4-7H,1-3H2/t4-,5-,6-,7-,8+/m1/s1
