21
gdb 74493	2.74111	1.32607	0.99043	2.0693	86.98	-0.2317	0.0147	0.2464	1260.8589	0.183199	-387.101399	-387.092893	-387.091949	-387.134292	33.426	
C	-0.0299948694	 1.5237732948	 0.0457805667	-0.473174
C	 0.0063330032	 0.0219588801	-0.0144946262	 0.290374
C	-0.0366168254	-0.646331464	-1.1728030479	-0.190687
C	-0.0437960325	-2.1255410739	-1.2640044863	 0.415162
C	-0.4170128911	-2.7844439152	-2.5261165563	-0.243634
O	 0.9557962154	-2.6794784342	-2.163235374	-0.284142
C	-0.2242085449	-2.8603145567	 0.0503755607	-0.284905
C	 0.5532013827	-2.1561323616	 1.167414782	-0.22168
C	 0.0884560013	-0.7014685638	 1.3119418506	-0.288198
H	 0.876329341	 1.921198145	 0.5204226909	 0.125485
H	-0.1200393749	 1.9691403095	-0.9483949243	 0.12189
H	-0.8753666745	 1.871843746	 0.65385397	 0.123483
H	-0.0616422003	-0.1050976927	-2.1157025024	 0.079072
H	-0.8375736625	-3.7904472265	-2.4978628383	 0.105252
H	-0.7264861925	-2.1829171595	-3.3813234134	 0.106651
H	-1.2929586144	-2.8796028242	 0.3041728205	 0.099046
H	 0.1038388337	-3.8963451146	-0.0747702196	 0.106455
H	 0.4330827017	-2.6892140514	 2.1160508289	 0.092569
H	 1.6219766279	-2.1723114613	 0.9224869836	 0.112582
H	 0.7634263108	-0.1531160296	 1.9814473894	 0.101832
H	-0.8972641352	-0.6660341061	 1.8018253754	 0.106567
92.6149	144.7535	199.3754	229.5525	273.2752	361.3713	385.817	406.2549	459.2451	467.1118	515.3347	579.7064	723.1119	791.2455	819.9096	862.5268	889.8877	902.7945	940.0717	968.3154	982.4955	1035.6253	1044.6888	1060.1135	1098.3035	1131.2909	1151.9758	1173.9361	1179.3007	1217.3693	1276.8229	1305.2978	1315.6443	1361.6786	1373.1076	1389.4898	1413.903	1423.8267	1468.3353	1476.2685	1480.1598	1490.5893	1494.4046	1526.845	1728.266	2989.0037	3014.8694	3016.8757	3030.8749	3044.0067	3060.9334	3065.0957	3079.7178	3088.5417	3112.5524	3147.7048	3152.9433
CC1=CC2(CO2)CCC1	CC1=C[C@]2(CO2)CCC1	
InChI=1S/C8H12O/c1-7-3-2-4-8(5-7)6-9-8/h5H,2-4,6H2,1H3	InChI=1S/C8H12O/c1-7-3-2-4-8(5-7)6-9-8/h5H,2-4,6H2,1H3/t8-/m0/s1
