21
gdb 96828	2.47302	1.22367	1.01746	1.3376	82.3	-0.2372	0.0274	0.2646	1307.6172	0.180408	-420.411086	-420.400434	-420.39949	-420.446738	38.179	
C	-0.1930165089	 1.4147738173	-0.4118585424	-0.337573
N	-0.176815692	-0.0402874923	-0.4848489917	-0.34174
C	-1.1044393934	-0.6855914838	 0.0551960921	 0.432301
O	-2.2234319304	-0.2563558034	 0.7440292626	-0.309896
C	-2.7959612159	-1.6238632717	 0.7715859847	 0.42039
C	-3.0786861473	-2.0464570049	 2.2012516808	-0.440165
C	-4.0190135205	-1.6965881689	-0.1256254992	-0.425744
C	-1.4677622205	-2.1601750924	 0.1412493261	-0.189955
N	-1.5370811124	-2.9956538496	-1.0373032147	-0.515915
H	 0.616637107	 1.7552663333	 0.2443929395	 0.126152
H	 0.0101434289	 1.8251458573	-1.4067330208	 0.121405
H	-1.1370663201	 1.8315340161	-0.040860559	 0.124167
H	-3.8724442085	-1.4328723528	 2.6388238679	 0.127087
H	-3.4015562136	-3.0924223065	 2.2282504079	 0.127669
H	-2.1840590242	-1.9432214745	 2.8219519974	 0.123109
H	-3.8068019162	-1.2965036273	-1.1208541739	 0.117143
H	-4.3427480223	-2.7349792881	-0.2378787243	 0.135215
H	-4.8405356788	-1.1153987635	 0.3039056532	 0.124043
H	-0.8666801288	-2.6742262737	 0.8970185495	 0.102532
H	-1.7547026823	-2.4369083596	-1.8566304557	 0.236823
H	-0.6302427497	-3.413009331	-1.21660219	 0.242952
68.4714	83.4495	138.9262	167.356	180.3802	188.1792	222.4132	243.4417	269.3339	335.3508	361.6088	416.405	496.0535	573.1328	618.0486	715.4189	775.0971	822.6709	852.7102	925.3391	939.9522	984.2233	1003.9522	1047.1446	1090.0681	1129.2337	1138.8499	1170.5905	1184.6373	1205.3336	1251.0957	1279.7799	1293.1074	1402.915	1413.1008	1430.4005	1440.3516	1471.5527	1482.4285	1491.7411	1493.7831	1498.1435	1505.1599	1670.5975	1835.3223	3013.7526	3036.11	3044.8476	3070.7336	3076.2106	3086.1587	3108.248	3114.506	3116.303	3124.8298	3507.8551	3583.1054
CN=C1OC(C)(C)C1N	CN=C1OC(C)(C)[C@H]1N	
InChI=1S/C6H12N2O/c1-6(2)4(7)5(8-3)9-6/h4H,7H2,1-3H3	InChI=1S/C6H12N2O/c1-6(2)4(7)5(8-3)9-6/h4H,7H2,1-3H3/t4-/m0/s1
