21
gdb 105756	2.32921	1.37952	1.17553	4.3387	81.63	-0.2355	0.0306	0.2661	1190.8601	0.183833	-383.289382	-383.279893	-383.278949	-383.324224	34.883	
C	 0.0049541241	 1.5067216549	 0.1460354233	-0.338571
N	-0.0353856159	 0.0463328289	 0.1224147925	-0.331566
C	-1.3506984576	-0.5557823515	-0.0672946953	 0.135395
C	-2.1315836402	-0.205354304	-1.3715606989	-0.234933
C	-3.1787292561	-1.3260085927	-1.5192754596	-0.216218
C	-2.5859898168	-2.5652031644	-0.7802973927	-0.215337
C	-1.24670273	-2.0995967429	-0.1736096776	-0.23995
C	-2.1916701681	-0.2084043589	 1.0984847273	 0.30853
N	-2.8770142619	 0.0593001724	 1.9899317431	-0.356387
H	 1.0389603808	 1.8262356491	 0.3011460658	 0.125097
H	-0.3720264492	 1.9927349951	-0.7682462	 0.102527
H	-0.5861723568	 1.8723249795	 0.9911645991	 0.150535
H	 0.5803444498	-0.3088166874	-0.6015213378	 0.219933
H	-2.5699812616	 0.794447005	-1.3555048619	 0.116084
H	-1.4038865562	-0.2374289205	-2.1918494622	 0.095882
H	-4.1205003915	-1.0246555542	-1.0530890666	 0.12367
H	-3.3980592526	-1.5324229049	-2.5696751135	 0.104324
H	-3.2665608103	-2.8998158448	 0.0065956123	 0.122251
H	-2.4386789213	-3.4144177725	-1.4519080027	 0.105183
H	-0.416359714	-2.3148723634	-0.857121407	 0.097642
H	-1.0090487346	-2.5627594428	 0.7853919425	 0.125911
42.6593	100.9314	121.4127	178.2544	187.8207	209.5883	268.3403	391.2733	408.5153	476.1932	559.3198	623.4858	653.2185	678.6515	737.0945	803.5846	812.7756	888.3022	918.8963	966.065	997.8483	1023.7749	1048.7971	1061.9933	1099.7154	1145.6059	1166.5011	1176.3288	1218.2035	1229.1222	1263.2142	1283.1037	1303.933	1335.6866	1344.1223	1352.3744	1458.627	1478.8234	1479.5431	1492.1431	1495.0379	1496.5396	1515.9085	1521.3799	2352.2128	2973.7289	3030.3084	3036.9269	3060.1015	3070.212	3075.8853	3091.6533	3107.925	3114.6387	3116.5693	3122.6479	3525.8759
CNC1(CCCC1)C#N	CNC1(CCCC1)C#N	
InChI=1S/C7H12N2/c1-9-7(6-8)4-2-3-5-7/h9H,2-5H2,1H3	InChI=1S/C7H12N2/c1-9-7(6-8)4-2-3-5-7/h9H,2-5H2,1H3
