17
gdb 57112	3.53751	1.12908	1.05494	2.0163	70.07	-0.2509	0.0336	0.2846	1181.2431	0.134882	-458.917153	-458.90839	-458.907446	-458.951086	32.035	
O	 0.1038839904	 1.4322757062	 0.2511617865	-0.41463
C	 0.0519117238	 0.0283409902	 0.0737943628	-0.105011
C	 0.5861184141	-0.3982027515	-1.2236255613	 0.321273
C	 1.0501113592	-0.7469823962	-2.2759476765	-0.454826
C	 0.7894794779	-0.6869080484	 1.2324729504	 0.221091
O	 2.0697177631	-0.0921911401	 1.3669534362	-0.282138
C	 2.2595352694	 0.2151768831	 2.7468714015	-0.090979
C	 0.8298398708	 0.4183951878	 3.2406423574	-0.102358
O	 0.1061847317	-0.524973591	 2.4560059158	-0.264614
H	 1.0442379906	 1.6524683471	 0.2719069503	 0.288204
H	-1.004647636	-0.2500535125	 0.1498333884	 0.128826
H	 1.4504284426	-1.0511883783	-3.2115542382	 0.200468
H	 0.8720753997	-1.7634306575	 1.0261174689	 0.094596
H	 2.7497908012	-0.6211090009	 3.2639410045	 0.109373
H	 2.8897803313	 1.1046167435	 2.8199103056	 0.118888
H	 0.6882316078	 0.1717037125	 4.2955764574	 0.115655
H	 0.4760680324	 1.438322926	 3.0470747503	 0.116182
67.3106	81.9756	136.3473	203.1384	251.0943	268.6978	324.7865	416.7938	454.499	561.6994	634.0688	652.5913	678.0771	702.4684	768.3809	870.5984	907.293	952.7336	960.8772	979.3834	1027.9126	1065.9499	1090.0151	1145.9674	1179.1265	1227.4916	1245.6809	1263.1527	1285.4238	1329.2034	1382.5487	1385.9132	1396.8252	1430.072	1509.8376	1519.2442	2233.8316	3008.4201	3014.1836	3033.4178	3065.82	3102.3163	3110.8457	3502.6425	3777.6664
OC(C#C)C1OCCO1	O[C@@H](C#C)C1OCCO1	
InChI=1S/C6H8O3/c1-2-5(7)6-8-3-4-9-6/h1,5-7H,3-4H2	InChI=1S/C6H8O3/c1-2-5(7)6-8-3-4-9-6/h1,5-7H,3-4H2/t5-/m0/s1
