18
gdb 90824	3.3461	1.76739	1.57077	1.6695	72.38	-0.2345	0.0702	0.3047	894.0509	0.150502	-401.886882	-401.88032	-401.879376	-401.917732	27.411	
O	 0.0863807596	 1.4271602285	-0.1081915459	-0.441517
C	 0.0595037763	 0.0120937912	-0.0207067905	 0.132022
C	 0.736839242	-0.5773166174	 1.2596545624	-0.271227
C	-0.3525878499	-1.4270352399	 1.900773507	 0.039503
C	-1.3229687614	-1.9305892428	 0.8067654562	-0.116777
C	-2.4811137683	-1.4271072275	 1.7278825363	-0.055833
C	-2.169073747	-0.0637203509	 1.2475634575	-0.072262
C	-1.3627508442	-0.5679651184	 0.0420937558	-0.05741
N	-1.4891805224	-0.6105396417	 2.4849721761	-0.161385
H	-0.3292400451	 1.7761928728	 0.6883580088	 0.283721
H	 0.5771206574	-0.3284134552	-0.9230903839	 0.085887
H	 1.6125495232	-1.1842867226	 1.0080823637	 0.103386
H	 1.0756856833	 0.223514796	 1.9248764515	 0.110187
H	-0.0237385696	-2.1559088065	 2.6427414572	 0.075699
H	-1.225097579	-2.8834499293	 0.2914143021	 0.072676
H	-3.3636812601	-1.8702748967	 2.1683388128	 0.099864
H	-2.7265945323	 0.8559978771	 1.3702617057	 0.098257
H	-1.9245455527	-0.5567067268	-0.8924212229	 0.075209
91.4369	264.5092	315.092	379.701	468.8502	495.7753	648.6491	664.7328	735.5688	748.1042	818.0588	838.1625	849.3127	885.6834	888.9649	922.3267	940.4228	976.5274	982.9461	1005.6046	1020.1704	1040.7541	1074.6926	1088.7081	1142.3141	1149.824	1164.3393	1198.1773	1213.7659	1231.3853	1241.6248	1266.1833	1303.9203	1318.6963	1324.8087	1341.7469	1355.6401	1434.5138	1473.8684	3045.3567	3058.3839	3092.5362	3103.6842	3112.8299	3140.3642	3193.1441	3212.6711	3798.1715
OC1CC2C3C4C(C13)N24	O[C@H]1C[C@@H]2[C@H]3[C@@H]4[C@H]([C@@H]13)N24	
InChI=1S/C7H9NO/c9-3-1-2-4-5(3)7-6(4)8(2)7/h2-7,9H,1H2	InChI=1S/C7H9NO/c9-3-1-2-4-5(3)7-6(4)8(2)7/h2-7,9H,1H2/t2-,3+,4-,5+,6-,7+,8?/m1/s1
