17
gdb 36663	2.94822	0.89943	0.73642	4.3637	80.02	-0.2402	0.0228	0.263	1492.9367	0.134707	-380.818426	-380.809161	-380.808217	-380.853416	33.499	
C	 0.0954728263	-1.1894649649	 0.2732319996	-0.443284
C	 0.030564655	 0.0089503807	 0.1821108825	 0.307303
C	-0.0158799996	 1.4364680169	 0.0601756199	-0.209522
C	 0.7009772441	 2.3020633879	 1.0933621636	-0.312187
C	 1.2438852074	 2.1953937566	-0.3142825802	 0.039045
N	 2.4283870615	 1.4591515771	-0.6415127109	-0.308111
C	 3.6521571004	 2.0526019399	-0.1182395461	-0.258342
C	 4.8257265177	 1.2655376298	-0.506778611	 0.256493
N	 5.7519218035	 0.6372354044	-0.7914984667	-0.297342
H	 0.1348738986	-2.2474140262	 0.3580129611	 0.206297
H	-0.9423379635	 1.8316251966	-0.3443812899	 0.123718
H	 0.2136369536	 3.2197070654	 1.403862513	 0.124335
H	 1.2240074657	 1.7705361686	 1.8804655967	 0.130155
H	 1.0865690365	 3.0614632464	-0.9535172307	 0.109425
H	 2.341102476	 0.4866730805	-0.3646827754	 0.242063
H	 3.7631440967	 3.0616479832	-0.5348433641	 0.155868
H	 3.6654464102	 2.1677156073	 0.9800958685	 0.134087
51.5223	75.5581	111.933	162.6044	199.3399	260.5382	355.1788	390.5627	431.4198	528.6324	545.7849	596.8685	633.5205	662.7386	714.6341	758.6904	829.8151	875.9396	946.9518	974.3195	1004.0508	1011.8855	1054.8066	1116.9025	1128.8744	1132.1315	1175.2804	1237.5333	1280.4273	1348.4565	1369.692	1404.7995	1470.6957	1491.948	1513.2732	2233.1492	2369.6212	2950.4169	3046.3737	3127.7293	3137.0781	3158.1698	3230.3938	3501.9967	3527.1857
C#CC1CC1NCC#N	C#C[C@H]1C[C@H]1NCC#N	
InChI=1S/C7H8N2/c1-2-6-5-7(6)9-4-3-8/h1,6-7,9H,4-5H2	InChI=1S/C7H8N2/c1-2-6-5-7(6)9-4-3-8/h1,6-7,9H,4-5H2/t6-,7+/m0/s1
