17
gdb 55659	2.52954	1.08494	0.78784	5.001	76.84	-0.2457	-0.0305	0.2152	1414.5866	0.130536	-421.819373	-421.809064	-421.80812	-421.855751	35.494	
C	 0.2474899904	 1.5727905795	-0.0551656996	-0.481232
C	-0.0600144163	 0.0936714361	 0.0473669363	 0.379706
O	-0.3727605617	-0.4329254499	 1.0916212494	-0.278157
C	 0.0240178008	-0.7139486805	-1.2407095969	-0.326458
C	 0.0790317677	-2.2325367145	-0.9891799057	-0.243201
C	-1.1422805428	-2.7366608469	-0.1895653805	 0.188316
O	-1.1003874182	-3.6535724485	 0.579176517	-0.24419
C	 0.1118144264	-2.9592217728	-2.2546838202	 0.293468
C	 0.0923432137	-3.5444865543	-3.3045537558	-0.427356
H	 1.31198071	 1.7117688081	-0.2781988317	 0.149244
H	-0.3108406806	 2.0308338052	-0.8787291805	 0.141709
H	 0.0071411901	 2.0702986778	 0.884835921	 0.151391
H	-0.8604443784	-0.4673947483	-1.8454872329	 0.144231
H	 0.8824993818	-0.3935718368	-1.8398557012	 0.136089
H	 0.960005379	-2.4851354901	-0.3893752992	 0.135234
H	-2.091462698	-2.2126034308	-0.4395607994	 0.078565
H	 0.0943539759	-4.0773973535	-4.2232164001	 0.20264
43.4997	80.6687	108.8916	114.0071	125.6465	180.4909	233.9986	283.2877	349.9631	436.1022	462.0279	490.8851	557.8116	624.9179	640.5064	645.001	791.6161	843.3125	912.6774	951.3713	964.7439	1051.7147	1079.8963	1091.0659	1183.6475	1196.4075	1261.7489	1310.4025	1361.6643	1386.6472	1414.2313	1450.069	1461.9115	1475.238	1806.4178	1848.6146	2232.8635	2881.9031	3024.0169	3037.4207	3060.6866	3082.3808	3098.1367	3156.0965	3504.136
CC(=O)CC(C=O)C#C	CC(=O)C[C@@H](C=O)C#C	
InChI=1S/C7H8O2/c1-3-7(5-8)4-6(2)9/h1,5,7H,4H2,2H3	InChI=1S/C7H8O2/c1-3-7(5-8)4-6(2)9/h1,5,7H,4H2,2H3/t7-/m0/s1
