19
gdb 79942	2.02154	1.79584	1.47447	3.3977	81.43	-0.235	-0.0507	0.1843	1035.356	0.158987	-385.919361	-385.910796	-385.909852	-385.952105	32.8	
C	-0.1002112182	 1.5592097352	 0.0139083317	-0.423818
C	 0.0625087362	 0.0568382611	 0.0523502397	-0.032906
C	 1.3619600765	-0.7014817026	-0.2246721367	-0.158063
C	 2.6314155723	 0.0680017082	-0.0887492261	-0.06443
C	 2.8289486626	 0.5075019012	 1.1635499801	-0.197005
C	 1.7142337432	 0.049707024	 2.036081206	 0.338375
O	 1.588221641	 0.2314325094	 3.2266034563	-0.342536
C	 0.7500051397	-0.7383793274	 1.1570497571	 0.183287
C	 0.0742668525	-1.9332136666	 1.7843847477	-0.48086
H	 0.8034393598	 2.0871025947	 0.324518751	 0.129742
H	-0.3535153613	 1.8902478134	-0.9991522861	 0.118496
H	-0.9135151326	 1.8696346287	 0.6782498519	 0.129596
H	-0.810077567	-0.4701314699	-0.3316817649	 0.093954
H	 1.3243098896	-1.5528206162	-0.8958247852	 0.095815
H	 3.2791723972	 0.2716742433	-0.9347217549	 0.116278
H	 3.6409813576	 1.1241931326	 1.5258589389	 0.116257
H	-0.4771006824	-1.6248308065	 2.6778909191	 0.141985
H	-0.626620593	-2.4054615731	 1.089559317	 0.111268
H	 0.8066239363	-2.6866718994	 2.0933607175	 0.124565
114.1505	162.8378	193.0826	212.5532	221.6508	260.2054	307.9764	417.9496	480.1785	518.5841	599.4422	664.1586	713.8192	767.9994	783.3691	836.1947	870.4296	876.5392	948.7082	980.2428	1021.8968	1029.6105	1071.4548	1084.9725	1114.8749	1123.64	1127.8914	1147.111	1243.4847	1297.3564	1343.4585	1368.4166	1411.9469	1413.8351	1438.7021	1483.8693	1494.4668	1498.7659	1501.4456	1627.748	1802.3527	3034.4622	3037.4721	3094.5177	3099.7102	3110.5384	3113.3657	3132.935	3167.266	3190.507	3229.2789
CC1C2C=CC(=O)C12C	C[C@H]1[C@H]2C=CC(=O)[C@@]12C	
InChI=1S/C8H10O/c1-5-6-3-4-7(9)8(5,6)2/h3-6H,1-2H3	InChI=1S/C8H10O/c1-5-6-3-4-7(9)8(5,6)2/h3-6H,1-2H3/t5-,6+,8-/m0/s1
