14
gdb 129277	3.46774	1.72502	1.16023	3.8865	71.69	-0.2159	-0.0255	0.1904	974.4005	0.102997	-432.863808	-432.857178	-432.856234	-432.894902	25.832	
N	-0.1197473557	 1.3242146547	 0.0100017358	-0.605197
C	-0.0342372944	 0.0636868399	 0.0029069108	 0.478287
O	 1.0957541774	-0.7291283765	-0.0062566078	-0.260292
N	 0.743601578	-2.1284965724	-0.0124066246	-0.241749
C	-0.5420509024	-2.1109192421	-0.00671404	 0.440677
C	-1.6702811776	-3.1080270964	-0.0076533248	-0.40573
C	-2.8752394246	-2.1712675377	 0.0021751089	-0.14571
C	-2.4761429879	-0.8932727037	 0.0077721848	-0.00784
N	-1.073744224	-0.8464363178	 0.0026343423	-0.105724
H	 0.8023305613	 1.7529428379	 0.0082074552	 0.237062
H	-1.6399916795	-3.7549437495	-0.8915332524	 0.161691
H	-1.6331069535	-3.7643954126	 0.8689768451	 0.161685
H	-3.8992752591	-2.5112797636	 0.0043246925	 0.126254
H	-3.039726928	 0.0264284498	 0.0151267542	 0.166585
130.1272	162.0268	293.9482	319.6102	445.4401	557.7371	633.8128	645.0694	663.9979	712.5816	719.3927	755.5758	787.4538	867.3803	889.9674	919.7257	939.2391	953.5464	1014.1461	1065.5093	1154.3528	1174.3093	1211.084	1266.8656	1300.3274	1415.4816	1432.8885	1452.6526	1645.5162	1694.2404	1785.628	3048.0214	3078.2206	3255.1852	3279.4851	3539.8921
N=C1ON=C2CC=CN12	[NH][C@H]1ON=C2CC=CN12	
InChI=1S/C5H5N3O/c6-5-8-3-1-2-4(8)7-9-5/h1,3,6H,2H2	InChI=1S/C5H6N3O/c6-5-8-3-1-2-4(8)7-9-5/h1,3,5-6H,2H2/t5-/m1/s1
