14
gdb 27965	3.95395	1.1384	0.88391	1.8272	74.	-0.2497	-0.0799	0.1698	1204.504	0.102602	-436.767901	-436.760718	-436.759774	-436.799781	27.028	
O	 0.0765048601	 1.3436205303	-0.0868175264	-0.414203
C	 0.0657425452	-0.0027569999	-0.0500158772	 0.462074
C	 0.037695998	-0.7080937367	-1.2600348151	-0.315115
C	 0.0270946471	-2.094161569	-1.1966708502	 0.230352
C	-0.0025669272	-2.8895007089	-2.4534066138	 0.104379
O	-0.0134131533	-4.0952459511	-2.4937331361	-0.254032
C	 0.0445062511	-2.7280182427	 0.0530955959	-0.214155
C	 0.0718734243	-1.9277889923	 1.1819628813	 0.007878
N	 0.0824976318	-0.5868650936	 1.1407717302	-0.362261
H	 0.0958016662	 1.6378457953	 0.834972426	 0.302003
H	 0.0249821725	-0.1756762288	-2.204483399	 0.120067
H	-0.014292347	-2.2791787839	-3.3832985763	 0.081567
H	 0.0364426883	-3.8086416408	 0.1133536871	 0.128921
H	 0.0862336929	-2.3686653079	 2.1749495436	 0.122525
103.4272	197.088	220.6916	242.2242	385.7385	453.3002	455.8144	533.6748	570.0376	616.4225	684.3901	767.5772	813.7681	863.8041	898.3336	961.8777	994.8491	1007.7013	1042.4979	1106.1244	1162.1997	1211.8504	1316.6158	1325.8104	1357.4841	1421.536	1484.8564	1516.1457	1614.7377	1653.3099	1809.3355	2891.6981	3168.6804	3196.4232	3223.8375	3763.2449
OC1=CC(C=O)=CC=N1	Oc1cc(C=O)ccn1	
InChI=1S/C6H5NO2/c8-4-5-1-2-7-6(9)3-5/h1-4H,(H,7,9)	InChI=1S/C6H5NO2/c8-4-5-1-2-7-6(9)3-5/h1-4H,(H,7,9)
