21
gdb 101416	2.84139	1.07843	0.83628	1.9777	80.29	-0.2414	-0.0204	0.2209	1418.1593	0.179878	-424.229552	-424.219505	-424.218561	-424.265204	36.084	
C	 0.0880762389	 1.3884464698	 0.2181692656	-0.236754
O	-0.0673621925	 0.0098719154	-0.0286791265	-0.251354
C	 0.6011597683	-0.4663961654	-1.190103574	 0.131531
C	 2.1178846178	-0.5611144163	-1.0115501987	-0.418701
C	-0.0127705014	-1.8280153404	-1.4938232266	-0.098435
C	-1.5245429104	-1.9232625303	-1.8639306252	-0.250704
C	-1.1829949897	-2.8234688218	-3.0908271536	-0.33651
C	 0.2933468791	-2.467992899	-2.8626480684	 0.383084
O	 1.282890167	-2.5473914962	-3.5342050729	-0.300144
H	 1.1210048009	 1.6597527348	 0.4789325829	 0.109463
H	-0.2176476686	 1.9935893276	-0.6501443978	 0.102541
H	-0.5579797546	 1.6373220359	 1.0639255489	 0.127032
H	 0.3802601685	 0.2144384698	-2.0318557882	 0.061485
H	 2.5690654926	 0.4245143488	-0.8669831023	 0.112581
H	 2.3552888239	-1.1799145143	-0.1399468785	 0.11885
H	 2.5657967199	-1.0179422822	-1.8982500794	 0.150987
H	 0.2450154718	-2.5251110984	-0.6863156645	 0.105828
H	-2.1731699125	-2.3638226169	-1.1073044706	 0.112975
H	-1.9341743105	-0.9538080641	-2.1560129941	 0.114287
H	-1.3709099961	-3.8888578305	-2.9206608684	 0.132912
H	-1.5940421821	-2.5533593363	-4.0667904578	 0.129048
63.7339	72.0242	93.7952	130.4822	195.4062	229.9317	263.7693	279.7084	355.3145	378.7083	477.0834	491.9671	559.2242	684.5045	732.0467	784.2541	863.054	907.6707	932.9156	973.0459	1001.3206	1026.8773	1084.377	1096.3426	1118.3066	1142.3935	1181.1491	1187.158	1197.5007	1209.6733	1230.3989	1239.8642	1263.082	1292.7654	1369.2663	1389.0321	1403.7625	1440.4334	1476.3385	1485.8656	1493.0396	1495.0665	1507.0841	1513.1907	1877.1575	2940.798	2976.607	3028.5447	3036.8336	3041.84	3056.8029	3081.7849	3109.9873	3111.477	3113.0922	3127.2635	3142.0596
COC(C)C1CCC1=O	CO[C@@H](C)[C@H]1CCC1=O	
InChI=1S/C7H12O2/c1-5(9-2)6-3-4-7(6)8/h5-6H,3-4H2,1-2H3	InChI=1S/C7H12O2/c1-5(9-2)6-3-4-7(6)8/h5-6H,3-4H2,1-2H3/t5-,6+/m0/s1
