14
gdb 124268	2.84216	1.51681	0.99512	4.9289	65.63	-0.2654	-0.07	0.1954	1101.7371	0.100369	-473.846679	-473.838853	-473.837909	-473.879604	28.308	
C	-0.0260548501	 1.4325029857	 0.1006852227	-0.494938
C	 0.0158167459	-0.0736512549	-0.0048443913	 0.334887
O	 0.0473188053	-0.7865618591	 0.9946146643	-0.364361
C	 0.0202319612	-0.7015813149	-1.3194871899	-0.065853
C	-0.0069534976	-0.2289678848	-2.5997466713	 0.007127
O	 0.0130810694	-1.2282097754	-3.4684006861	-0.163371
N	 0.0563142964	-2.4662003315	-2.7810038996	-0.225882
C	 0.0597483125	-2.1307238383	-1.5139981121	 0.423044
O	 0.095989343	-3.0325161265	-0.5434900279	-0.397769
H	 0.8411858011	 1.8735534064	-0.4025310834	 0.150052
H	-0.9233589087	 1.8242184141	-0.3904042679	 0.149785
H	-0.0267680746	 1.7242990308	 1.1510679636	 0.155898
H	-0.0402998644	 0.7653695465	-3.0208121868	 0.167813
H	 0.0894824906	-2.5164332281	 0.2913208956	 0.323567
74.8974	114.6596	177.738	193.5683	326.8639	330.3349	461.8276	528.0734	577.532	595.8474	643.3812	726.9094	742.1445	762.8626	868.8445	896.6515	917.1596	958.995	1047.219	1104.7765	1188.6747	1291.9097	1330.5295	1355.6157	1395.8051	1464.4239	1474.2996	1500.7057	1548.6132	1671.3296	1733.6931	3041.6256	3104.1397	3158.8791	3251.4898	3494.7964
CC(=O)C1=CON=C1O	CC(=O)c1conc1O	
InChI=1S/C5H5NO3/c1-3(7)4-2-9-6-5(4)8/h2H,1H3,(H,6,8)	InChI=1S/C5H5NO3/c1-3(7)4-2-9-6-5(4)8/h2H,1H3,(H,6,8)
