18
gdb 115989	2.23267	1.51466	0.94045	4.8105	80.5	-0.2615	-0.0479	0.2136	1220.1411	0.148796	-401.97954	-401.970914	-401.969969	-402.013102	31.912	
O	 0.1370681556	 1.4324305008	-0.1899636838	-0.422287
C	 0.0479681253	 0.0293764493	-0.0602520397	-0.081364
C	-1.3969947848	-0.4873164949	 0.0390974125	-0.107539
C	-1.5051293356	-2.03049661	-0.066352305	-0.238347
C	-2.6464643992	-2.4504364478	 0.8926275667	-0.2602
C	-2.7526769734	-1.2812136574	 1.8328150427	-0.162206
C	-2.0826256465	-0.2150627986	 1.3750090611	 0.211905
C	-2.0086063161	 1.0496119664	 2.0194013374	 0.209904
N	-1.894604559	 2.0931766451	 2.5125773604	-0.353669
H	-0.1113210398	 1.8404177606	 0.6470342226	 0.29952
H	 0.5041579722	-0.3876486918	-0.9651761628	 0.112594
H	 0.6295527009	-0.3445493991	 0.7981739454	 0.090689
H	-1.9649085587	 0.0077843036	-0.7597761614	 0.103783
H	-1.668208882	-2.3636829846	-1.0933784173	 0.113589
H	-0.5636606791	-2.4766211626	 0.2750575509	 0.113108
H	-3.5993391767	-2.5920333721	 0.3632062365	 0.126627
H	-2.4446882734	-3.3922280944	 1.4138129745	 0.121068
H	-3.3303263996	-1.2986235024	 2.7496824791	 0.122826
73.8956	129.6327	155.8853	176.0296	238.4805	292.0593	380.1857	394.5255	448.2628	544.2596	560.5639	641.383	657.274	779.4808	837.2244	893.517	925.8406	940.8315	998.3646	1014.3416	1060.5288	1089.4139	1094.7835	1156.8422	1189.9984	1210.4499	1236.7678	1267.5743	1298.8692	1324.3708	1339.5665	1361.4699	1396.4904	1423.101	1476.355	1495.3738	1503.0795	1673.4956	2325.1924	2973.8153	3013.7171	3021.9607	3041.9656	3064.9106	3069.0142	3109.4678	3208.0963	3804.9711
OCC1CCC=C1C#N	OC[C@H]1CCC=C1C#N	
InChI=1S/C7H9NO/c8-4-6-2-1-3-7(6)5-9/h2,7,9H,1,3,5H2	InChI=1S/C7H9NO/c8-4-6-2-1-3-7(6)5-9/h2,7,9H,1,3,5H2/t7-/m1/s1
