24
gdb 6498	3.30269	1.23795	1.09358	0.0583	85.22	-0.2591	0.0794	0.3385	1248.1553	0.221944	-314.270249	-314.260353	-314.259409	-314.304856	37.472	
C	-0.9845734436	 0.5415536465	 0.0915032876	-0.384957
C	 0.5464730598	 0.5670791913	-0.0294094257	 0.054018
C	 1.1944204885	 0.2243244847	 1.3186662717	-0.382705
C	 0.9906841176	-0.3444399975	-1.1946011339	-0.270586
C	 2.4806938303	-0.3794402202	-1.5416660742	 0.384553
C	 3.323569639	-1.3988359001	-0.7916131794	-0.46285
C	 2.8635107958	-0.1532448938	-2.9889206987	-0.307571
C	 3.1459135787	 0.9133230296	-1.9591819377	-0.29534
H	-1.4671798903	 0.8228409214	-0.8506566455	 0.107059
H	-1.3400610837	-0.4609423718	 0.3592878356	 0.110257
H	-1.3320148192	 1.2329290572	 0.8664109504	 0.106968
H	 0.8425724686	 1.5939728019	-0.2850402523	 0.070959
H	 1.0069961707	-0.8202436254	 1.5957923085	 0.108216
H	 2.2758410284	 0.3813743512	 1.3024033933	 0.119486
H	 0.7835588253	 0.8546941797	 2.1148915205	 0.10544
H	 0.6544363401	-1.371109201	-0.9895389018	 0.088286
H	 0.4328149356	-0.0227412676	-2.0829301916	 0.088558
H	 2.9490616557	-2.4144667478	-0.9682592393	 0.112041
H	 4.3650236365	-1.3683562744	-1.1279730129	 0.107862
H	 3.3219506222	-1.2318514491	 0.2891174765	 0.116993
H	 3.7024986056	-0.7132788025	-3.3891512734	 0.104505
H	 2.0721345387	 0.0314168005	-3.7080597801	 0.105232
H	 2.5449443715	 1.8163201317	-1.9891830455	 0.107806
H	 4.1758429985	 1.0818435455	-1.661839082	 0.105772
35.7591	103.338	175.6621	206.5992	230.0718	264.2145	289.7004	318.0761	336.0848	376.8784	392.1158	423.1853	496.3057	724.6205	783.6221	813.4797	864.8074	874.2119	923.5018	928.6634	944.4319	953.9229	963.4848	992.9727	1034.6391	1060.2476	1078.2011	1109.9307	1123.8923	1156.8172	1187.7532	1193.963	1247.2613	1312.6372	1326.0648	1355.2653	1379.1863	1384.3289	1398.3626	1418.0076	1420.1847	1468.8368	1474.1874	1486.1307	1490.4058	1494.1601	1501.3375	1504.9454	1510.5476	1515.4397	2999.4798	3008.0601	3021.1714	3025.8784	3028.5438	3045.2975	3084.1457	3087.567	3090.091	3096.6925	3106.259	3116.734	3122.5231	3127.7496	3199.2701	3214.2311
CC(C)CC1(C)CC1	CC(C)CC1(C)CC1	
InChI=1S/C8H16/c1-7(2)6-8(3)4-5-8/h7H,4-6H2,1-3H3	InChI=1S/C8H16/c1-7(2)6-8(3)4-5-8/h7H,4-6H2,1-3H3
