17
gdb 67510	2.35945	1.7483	1.32544	4.4011	72.61	-0.2281	-0.0019	0.2262	1010.9195	0.133643	-421.752534	-421.744524	-421.74358	-421.785073	30.56	
C	 0.0503665676	 1.5382384557	 0.0118918088	-0.502225
C	 0.0422514248	 0.0387950128	 0.0363455287	 0.299475
C	-1.2797591065	-0.7963661201	-0.0036093774	-0.032849
O	-0.9756816542	-2.1598407424	-0.3379509938	-0.232294
C	-0.7724709126	-1.7115410259	 1.0127407345	 0.024541
C	 0.5801847867	-0.9451676776	 1.0883774258	-0.184189
C	 1.2265103263	-0.842810534	-0.268785011	-0.162832
C	 1.2742862966	-1.9277147673	-1.3197271832	 0.148427
O	 1.3136295046	-1.6862208368	-2.4994621593	-0.273331
H	 1.0292338707	 1.9293415213	 0.3051262204	 0.126737
H	-0.1735579543	 1.9164334211	-0.9924218999	 0.137303
H	-0.6948493162	 1.9539730981	 0.7000239204	 0.122246
H	-2.2743020658	-0.4333822579	-0.2333537787	 0.115845
H	-1.2638726933	-2.264595252	 1.8033184607	 0.118187
H	 1.0946495426	-0.724560641	 2.014648252	 0.097975
H	 2.1574391483	-0.277108424	-0.245626572	 0.118795
H	 1.3600986147	-2.9625288302	-0.9293016459	 0.078191
90.7303	133.1303	204.4028	227.3458	286.4305	298.4504	408.746	473.5152	561.8131	592.9884	700.0862	754.5802	774.8502	820.6185	836.9651	880.1425	907.7409	933.5812	955.6017	983.1087	1017.5557	1039.0056	1054.8986	1105.7204	1128.2525	1184.8163	1214.3793	1239.4718	1280.7483	1296.6998	1365.595	1412.293	1416.6966	1449.1881	1484.1413	1497.3017	1810.6895	2910.7353	3024.0615	3082.5757	3104.5437	3125.9982	3187.7222	3198.0319	3206.5038
CC12C3OC3C1C2C=O	C[C@]12[C@H]3O[C@H]3[C@H]1[C@H]2C=O	
InChI=1S/C7H8O2/c1-7-3(2-8)4(7)5-6(7)9-5/h2-6H,1H3	InChI=1S/C7H8O2/c1-7-3(2-8)4(7)5-6(7)9-5/h2-6H,1H3/t3-,4-,5+,6+,7-/m1/s1
