21
gdb 40557	3.63927	1.057	0.89979	1.2855	85.39	-0.2308	0.0239	0.2547	1353.552	0.18418	-387.083817	-387.075463	-387.074519	-387.117151	32.329	
C	 0.9340744963	 1.3796971442	 0.3236410771	-0.250906
C	 0.9445830832	 0.2720091436	-0.6969289945	-0.274774
C	-0.2350249161	 0.4135025207	 0.228279789	-0.078862
C	-0.5142420719	-0.5437580854	 1.3331060945	 0.260615
C	-0.0636267778	-1.7985194451	 1.3893525169	-0.162914
C	-0.325644467	-2.6946998482	 2.5707384334	-0.250843
C	-0.8173905182	-1.865478826	 3.7582305741	-0.079049
O	-1.8408909402	-0.9710842609	 3.3583489691	-0.24546
C	-1.3736395525	 0.0062977117	 2.4511560582	-0.149252
H	 1.5956665362	 1.2767501312	 1.1769439347	 0.114368
H	 0.7875243557	 2.4002728655	-0.0124830791	 0.11149
H	 0.8024599778	 0.5287601458	-1.7406616247	 0.112484
H	 1.628499846	-0.5523238059	-0.5322524724	 0.11531
H	-1.1301148406	 0.843153768	-0.2190259616	 0.088369
H	 0.5145170826	-2.2056479248	 0.5640538431	 0.080805
H	-1.0703203461	-3.4601648873	 2.3114920357	 0.113659
H	 0.5865644164	-3.2378298143	 2.8509821731	 0.099581
H	-1.2487350794	-2.4965798117	 4.5403047846	 0.103916
H	 0.0266540797	-1.3076707535	 4.1981320482	 0.085312
H	-0.8163285557	 0.7982117139	 2.9859794033	 0.095191
H	-2.2689295084	 0.4834213185	 2.0331976073	 0.110962
65.1606	103.5759	189.7278	199.2615	288.9618	336.6735	392.0762	467.9004	488.494	548.5418	639.7517	787.0989	788.7846	828.6036	866.1653	882.0314	913.1573	919.2078	940.9531	992.4594	1027.1675	1040.9093	1057.6162	1080.6452	1087.6155	1097.9395	1132.3632	1138.0548	1176.377	1199.5448	1224.3267	1239.5435	1258.7623	1310.9548	1333.6281	1362.9718	1385.88	1411.299	1420.4771	1466.7082	1471.2501	1483.4467	1500.403	1501.0695	1736.9472	2929.936	2963.5185	3008.9811	3041.4119	3042.4803	3086.4444	3112.2538	3132.7041	3142.2308	3157.5086	3214.3163	3229.6007
C1CC1C1=CCCOC1	C1CC1C1=CCCOC1	
InChI=1S/C8H12O/c1-2-8(6-9-5-1)7-3-4-7/h2,7H,1,3-6H2	InChI=1S/C8H12O/c1-2-8(6-9-5-1)7-3-4-7/h2,7H,1,3-6H2
