18
gdb 80917	2.85426	1.44566	1.26447	1.4723	72.4	-0.2461	0.0754	0.3215	1056.1387	0.147014	-438.989387	-438.98127	-438.980326	-439.021663	31.769	
C	 0.0422448841	 1.4441525671	-0.0106822526	-0.525981
C	-0.0101668403	-0.0491599273	 0.0822996919	 0.146197
N	 0.6339906729	-0.9714187383	-0.9730896826	-0.402346
C	 0.0132942903	-1.9275038124	 0.0465645085	-0.21106
C	 0.6658373511	-1.007691205	 1.1264054106	 0.199619
O	 2.049321498	-0.9849461597	 1.2288372324	-0.461387
C	-1.2068219455	-1.0103703958	 0.1141258462	 0.518419
C	-2.559475558	-1.032574468	 0.6524043815	-0.311662
O	-2.2958069231	-1.0003950257	-0.774649711	-0.297629
H	 1.0811045656	 1.785945795	-0.044649855	 0.13864
H	-0.4729682436	 1.803682847	-0.9073866024	 0.132704
H	-0.4371852656	 1.8988183346	 0.8624363233	 0.128015
H	 0.0700262325	-0.9639406716	-1.8267700897	 0.228433
H	 0.0725753138	-3.0093682546	-0.0665713681	 0.091558
H	 0.2356884174	-1.0319366961	 2.1287909645	 0.08877
H	 2.3639231595	-0.9773168002	 0.3113919673	 0.29034
H	-2.9901035285	-1.9636190698	 1.0171499404	 0.124667
H	-3.0055457707	-0.1246633793	 1.0553383047	 0.122703
151.6993	163.2079	187.4411	222.7886	264.1628	335.8397	350.6212	480.0671	516.1863	596.1024	615.9467	647.478	728.857	742.4661	795.457	859.051	884.0741	906.1413	936.828	1017.6046	1051.276	1087.5668	1096.579	1110.3922	1144.1154	1155.3195	1178.813	1185.6961	1198.2888	1237.2609	1264.0996	1334.0004	1340.8029	1410.3339	1444.8596	1474.1312	1483.492	1487.5793	1555.1269	3035.7649	3087.2541	3104.7302	3111.662	3112.9125	3130.4626	3174.5608	3420.8579	3711.8751
CC12NC(C1O)C21CO1	C[C@@]12N[C@@H]([C@H]1O)[C@]12CO1	
InChI=1S/C6H9NO2/c1-5-4(8)3(7-5)6(5)2-9-6/h3-4,7-8H,2H2,1H3	InChI=1S/C6H9NO2/c1-5-4(8)3(7-5)6(5)2-9-6/h3-4,7-8H,2H2,1H3/t3-,4+,5+,6-/m0/s1
