20
gdb 82394	2.46732	1.67839	1.13458	1.4028	80.58	-0.2258	0.0157	0.2415	1115.4059	0.171833	-403.130478	-403.122011	-403.121066	-403.163244	33.149	
C	 0.7497419649	 1.2023607832	 0.029548826	-0.465698
C	 0.1007750372	-0.1529761075	-0.0435898432	 0.257889
C	-0.0651128008	-0.8193228121	-1.1885184842	-0.160526
C	-0.7474337575	-2.1556375668	-1.2959852652	-0.206648
N	-0.8546533034	-2.9329528508	-0.0567807221	-0.107029
C	 0.3756199141	-3.1281933278	 0.7049074043	-0.264368
C	-0.6930448296	-2.2141497414	 1.2074275857	-0.027424
C	-0.4327133853	-0.7170369485	 1.2580338686	 0.017619
O	 0.3951007031	-0.3982212814	 2.3796171305	-0.426746
H	 1.621423487	 1.1943394391	 0.690912276	 0.127757
H	 1.061168236	 1.5438074216	-0.9610083674	 0.114801
H	 0.0590261878	 1.9446119195	 0.4494183329	 0.126695
H	 0.2826413163	-0.3792693058	-2.1218403421	 0.082373
H	-1.7682641047	-2.0185696841	-1.6816205876	 0.119461
H	-0.2333797751	-2.7836233424	-2.0349595095	 0.112764
H	 0.5026364282	-4.1156028139	 1.1402733883	 0.115917
H	 1.2887078759	-2.6725908504	 0.3251037379	 0.108982
H	-1.3360224942	-2.5735388617	 2.008140572	 0.095533
H	-1.3789797463	-0.2064837732	 1.4866578247	 0.100505
H	 1.1819034363	-0.9515102356	 2.3141315144	 0.278143
78.7588	166.0631	206.6817	279.9912	284.0823	327.5661	351.5401	389.7388	396.0648	506.1524	534.4829	629.0271	707.3539	756.2463	794.4789	846.3163	899.5276	928.8957	936.0669	1006.6046	1035.9265	1055.7729	1072.6016	1081.0041	1085.2185	1120.8094	1145.3491	1167.731	1201.0342	1258.1495	1272.8418	1314.9428	1320.998	1359.2444	1376.8087	1407.4137	1412.615	1420.993	1473.031	1480.6714	1488.8877	1503.5736	1735.4828	2999.2402	3007.3034	3027.3875	3038.6141	3083.994	3095.3498	3118.8673	3125.1952	3136.2565	3181.6589	3795.3867
CC1=CCN2CC2C1O	CC1=CCN2C[C@H]2[C@H]1O	
InChI=1S/C7H11NO/c1-5-2-3-8-4-6(8)7(5)9/h2,6-7,9H,3-4H2,1H3	InChI=1S/C7H11NO/c1-5-2-3-8-4-6(8)7(5)9/h2,6-7,9H,3-4H2,1H3/t6-,7-,8?/m0/s1
