17
gdb 67018	2.19038	1.75569	1.57909	3.726	72.41	-0.2232	0.0016	0.2249	977.6242	0.13377	-421.788974	-421.780632	-421.779687	-421.82168	31.381	
C	-0.144872427	 1.5657946363	-0.0505236254	-0.522656
C	 0.0295054473	 0.0842300332	-0.014958884	 0.223667
C	 0.1202277463	-1.0344661468	-0.9734865907	 0.046797
O	 1.2424472973	-1.6746853484	-0.3667467295	-0.325619
C	 0.9265786703	-0.9144976368	 0.8415335993	 0.225402
C	 2.0694159553	-0.6462773488	 1.761559824	-0.517983
C	-0.4317433936	-1.5193262747	 1.2879642742	 0.444727
O	-0.8450569521	-1.9188465767	 2.3407659377	-0.344165
C	-1.0543269191	-1.0658286668	 0.010234205	-0.304371
H	 0.8001296839	 2.067284712	-0.2851503527	 0.138187
H	-0.8755889776	 1.8510313608	-0.8137155205	 0.136208
H	-0.5018877427	 1.9475113509	 0.9117277094	 0.140049
H	-0.0094661543	-1.092406228	-2.0470027717	 0.122214
H	 2.8423377434	-0.0460677715	 1.273837878	 0.131667
H	 1.7193220932	-0.1254686346	 2.6573965704	 0.139716
H	 2.5149081987	-1.5955994116	 2.0749041955	 0.151212
H	-2.0939091394	-1.0055155486	-0.2802383689	 0.11495
114.1781	152.9025	172.5816	178.5597	216.4867	291.7544	366.5785	460.2889	521.2859	596.5402	639.9445	672.9905	723.3413	762.7801	798.1976	848.2365	874.2265	897.9911	948.5478	992.9812	1021.0283	1071.3511	1102.9561	1110.2675	1150.096	1164.7763	1201.7165	1283.3439	1343.7976	1412.3053	1416.7427	1452.5561	1474.2706	1484.2575	1485.6464	1493.3624	1875.5978	3032.0323	3044.7966	3096.4071	3105.6324	3117.4651	3123.9493	3198.8926	3224.4291
CC12C3OC1(C)C(=O)C23	C[C@@]12[C@H]3O[C@]1(C)C(=O)[C@@H]23	
InChI=1S/C7H8O2/c1-6-3-4(8)7(6,2)9-5(3)6/h3,5H,1-2H3	InChI=1S/C7H8O2/c1-6-3-4(8)7(6,2)9-5(3)6/h3,5H,1-2H3/t3-,5+,6-,7-/m1/s1
