17
gdb 85026	2.24975	1.66648	1.05372	1.9402	68.62	-0.258	-0.0468	0.2112	1132.51	0.134172	-459.036218	-459.02726	-459.026316	-459.070456	32.023	
C	-0.3107506554	 1.5484370689	-0.1214023699	-0.39437
C	 0.0189295194	 0.0691404221	-0.0011361797	 0.003755
O	 0.7510874743	-0.3912112246	-1.153408943	-0.229464
C	 1.8992520724	-1.0499069292	-0.8223865973	 0.433855
O	 2.6735709166	-1.4301841226	-1.6494039471	-0.328665
C	 1.9968889942	-1.2031887953	 0.6906166666	-0.283506
C	 3.3935156912	-0.9928596292	 1.2727451656	-0.395789
C	 0.9156593686	-0.2656935418	 1.1974248302	 0.380721
O	 0.7800762327	 0.1704691346	 2.3090431667	-0.305734
H	 0.602319409	 2.1376872083	-0.2429669097	 0.134076
H	-0.96045606	 1.7281874618	-0.9806941809	 0.138546
H	-0.8185105675	 1.876466989	 0.7889536733	 0.148539
H	-0.9033697421	-0.523287902	 0.0724378649	 0.125605
H	 1.6537360719	-2.2250456926	 0.9160071004	 0.150083
H	 3.7560762801	 0.0168922358	 1.0618839455	 0.133583
H	 3.3706515001	-1.1276666243	 2.3561642265	 0.141584
H	 4.0930416345	-1.7052575288	 0.8311971079	 0.147181
49.4389	108.6664	152.2249	201.285	205.5822	235.2151	275.0414	380.0999	438.8702	527.5057	591.639	610.3056	656.1189	686.4506	810.5798	833.9447	925.8059	988.7068	1019.2599	1044.6417	1095.5607	1115.1811	1132.0864	1152.0332	1217.2899	1239.9808	1308.3601	1331.306	1354.9056	1404.1325	1407.2125	1483.8052	1491.3753	1494.7829	1496.3233	1850.7507	1895.7569	3003.9566	3020.4128	3053.549	3056.9225	3129.9442	3131.7018	3140.6772	3145.3147
CC1OC(=O)C(C)C1=O	C[C@H]1OC(=O)[C@@H](C)C1=O	
InChI=1S/C6H8O3/c1-3-5(7)4(2)9-6(3)8/h3-4H,1-2H3	InChI=1S/C6H8O3/c1-3-5(7)4(2)9-6(3)8/h3-4H,1-2H3/t3-,4+/m0/s1
