19
gdb 6043	3.03093	1.51046	1.3526	2.5699	67.41	-0.233	0.033	0.2659	1023.8937	0.16332	-402.245033	-402.235337	-402.234393	-402.27898	35.815	
C	 0.0707154396	 1.5473357249	-0.124315426	-0.400175
C	-0.0387918805	 0.022257971	-0.0515810635	-0.204294
C	-1.47637775	-0.5191203075	 0.0674036016	 0.253548
C	-2.2266237638	 0.0185976168	 1.2906528785	-0.398398
O	-2.2631033793	-0.1448823807	-1.0740251016	-0.471813
C	-1.4055112301	-2.0603639601	 0.2130268087	 0.362684
N	-2.2380112857	-2.7413635158	-0.6188048187	-0.527893
O	-0.6639334554	-2.5934535273	 1.01795072	-0.383396
H	 1.0996613169	 1.844805522	-0.3469459906	 0.115171
H	-0.5767197162	 1.9545856231	-0.9071042914	 0.11799
H	-0.2097693773	 2.0215770535	 0.8205017905	 0.123793
H	 0.4087078191	-0.4204649941	-0.9541129015	 0.088568
H	 0.5367456004	-0.3775684253	 0.7870871577	 0.133669
H	-2.2986428008	 1.1073088077	 1.2494445387	 0.124293
H	-3.2421647472	-0.3872449672	 1.3143164286	 0.121145
H	-1.7107571706	-0.2810839723	 2.2052045875	 0.140316
H	-1.7078377674	-0.2408055012	-1.8560490113	 0.281195
H	-2.9160852095	-2.2280181959	-1.156517873	 0.264455
H	-2.3356404324	-3.7348732915	-0.4896514845	 0.259141
61.5752	106.8899	183.1868	209.7225	229.9467	277.7314	293.0998	314.3617	353.7868	374.9861	419.9127	448.4169	515.0411	589.7679	665.075	698.3872	777.2249	789.7123	883.7783	935.6949	1004.6225	1011.1322	1067.1245	1095.0162	1132.5505	1171.5423	1208.5673	1282.0827	1354.2778	1368.0564	1371.8092	1403.2791	1412.1881	1482.896	1486.1013	1496.5589	1505.6768	1513.1604	1584.2049	1791.1315	3000.9645	3042.4787	3053.1163	3096.4628	3110.7248	3117.5021	3124.9478	3145.288	3594.1305	3733.9315	3799.4652
CCC(C)(O)C(N)=O	CC[C@@](C)(O)C(=O)N	
InChI=1S/C5H11NO2/c1-3-5(2,8)4(6)7/h8H,3H2,1-2H3,(H2,6,7)	InChI=1S/C5H11NO2/c1-3-5(2,8)4(6)7/h8H,3H2,1-2H3,(H2,6,7)/t5-/m1/s1
