15
gdb 130642	3.2482	1.69227	1.12821	1.9306	74.54	-0.2554	-0.052	0.2034	1006.2064	0.116352	-416.860889	-416.854179	-416.853235	-416.892446	25.411	
O	-0.0555860153	-0.0393318088	 0.0030683675	-0.318582
C	-0.0004003177	 1.1659086768	 0.008980537	 0.2898
C	-1.2234909119	 2.1201363577	 0.0319751924	-0.3396
C	-0.6632845845	 3.5611919187	 0.0320302878	-0.185154
N	 0.7765795719	 3.3300278404	 0.009794989	 0.047785
N	 1.7703972836	 4.2036776086	 0.0002776063	-0.278276
C	 2.8754053943	 3.4297423657	-0.0201948314	 0.016884
C	 2.5680872264	 2.0600321379	-0.0232828533	-0.375387
C	 1.1791515113	 2.0326128859	-0.0032960289	 0.305052
H	-1.8498564019	 1.914773513	-0.8397739989	 0.148996
H	-1.824570559	 1.9048560294	 0.9189960006	 0.148992
H	-0.9619038027	 4.1403055522	-0.8457657249	 0.143082
H	-0.9361770784	 4.1302135705	 0.9246777487	 0.143082
H	 3.8479044121	 3.8994323659	-0.0317389007	 0.123303
H	 3.2421313919	 1.2201388661	-0.0377423713	 0.130024
84.1662	168.028	204.9913	313.8065	526.8163	539.5336	603.5341	649.5102	664.0314	680.0165	757.485	813.0267	841.9716	904.7767	952.5453	994.1173	1023.151	1041.3067	1073.591	1127.8308	1195.8662	1209.9885	1233.9393	1266.5825	1320.9684	1328.6872	1364.2857	1442.0932	1457.2667	1473.8288	1524.9226	1564.6931	1825.7002	3063.6813	3077.5526	3101.4963	3123.5838	3249.6083	3283.4825
O=C1CCN2N=CC=C12	O=C1CCn2nccc12	
InChI=1S/C6H6N2O/c9-6-2-4-8-5(6)1-3-7-8/h1,3H,2,4H2	InChI=1S/C6H6N2O/c9-6-2-4-8-5(6)1-3-7-8/h1,3H,2,4H2
