16
gdb 67322	3.31086	1.42901	1.21642	1.6997	74.95	-0.2348	0.0455	0.2803	1030.1546	0.123501	-400.613065	-400.605523	-400.604579	-400.644832	30.087	
O	 0.1449114341	 1.3206067483	-0.0871974289	-0.46716
C	 0.0832956564	-0.0447999884	-0.0560461038	 0.441652
C	 0.4113579889	-1.0203792489	 1.1312868037	-0.118188
N	-0.9855541008	-0.8955487592	 1.6654492783	-0.367768
C	-1.1623074513	-0.9735354597	 0.1763440575	-0.102221
C	 0.0414296178	-1.9388940813	-0.0754272095	-0.06542
C	 0.709146914	-0.9811085901	-1.1098074743	-0.264308
C	 0.1834797631	-0.9579992275	-2.460135974	 0.305493
C	-0.2603882865	-0.9496189259	-3.5777765666	-0.439168
H	-0.3481955352	 1.6497148287	 0.6755967662	 0.298887
H	 1.3018401827	-1.0511180768	 1.7600803428	 0.086093
H	-1.2794539474	-1.7707898483	 2.1069752091	 0.210402
H	-2.1308455033	-0.9521380307	-0.3214506348	 0.095183
H	 0.0141904619	-3.0264041649	-0.0900825805	 0.089388
H	 1.8043917361	-0.9983687894	-1.1051610553	 0.102853
H	-0.6487903704	-0.9343214359	-4.5658440902	 0.19428
123.5286	130.378	268.4064	314.7161	350.2515	408.9125	429.8133	522.6444	589.3378	619.399	641.9983	677.9033	758.3544	816.6955	842.8446	875.0405	896.0311	900.219	942.0065	960.6365	1031.0884	1052.1537	1065.3862	1101.7096	1117.19	1138.6257	1158.8311	1211.4489	1216.6726	1275.8791	1283.6354	1337.2835	1358.9462	1426.9473	2234.6037	3051.2006	3112.5589	3128.9655	3148.7324	3406.2792	3504.5963	3778.7862
OC12C3NC1C3C2C#C	O[C@@]12[C@H]3N[C@@H]1[C@H]3[C@H]2C#C	
InChI=1S/C7H7NO/c1-2-3-4-5-7(3,9)6(4)8-5/h1,3-6,8-9H	InChI=1S/C7H7NO/c1-2-3-4-5-7(3,9)6(4)8-5/h1,3-6,8-9H/t3-,4-,5-,6+,7-/m1/s1
