15
gdb 27069	3.17315	1.35004	1.00619	1.3636	69.54	-0.2038	-0.0338	0.17	1116.0083	0.112683	-453.983335	-453.975105	-453.97416	-454.016578	29.752	
N	-0.189503574	 1.3036567831	-0.4451092607	-0.6026
C	-0.1217896744	-0.0314762707	-0.1346872064	 0.306274
C	-1.0490916108	-1.0259589313	 0.0144473945	 0.1593
C	-2.5464377916	-0.9058076662	 0.0013810711	-0.384513
C	-2.9650342608	-0.2897988337	-1.3209985841	 0.147108
O	-2.9922551116	 0.9033398257	-1.5166288212	-0.254075
N	-0.3746012276	-2.2321687051	 0.2019501747	-0.297393
C	 0.8733202844	-1.9173599918	 0.187302018	 0.049074
O	 1.115955035	-0.5880369162	-0.0211723666	-0.167392
H	 0.422649624	 1.9082210734	 0.0848743259	 0.259473
H	-1.1375824393	 1.6482597047	-0.530208204	 0.275771
H	-2.9771299222	-1.9026920205	 0.121317199	 0.135131
H	-2.9074592081	-0.2584629171	 0.809940679	 0.125938
H	-3.1955785216	-1.0036874565	-2.1396945255	 0.09952
H	 1.7366776585	-2.5464788078	 0.3284969562	 0.148383
75.9728	108.4752	145.3317	238.7635	272.868	306.5493	337.7858	447.5759	513.4902	597.2508	650.4735	672.6888	729.9564	750.5652	779.2814	905.7592	949.9148	969.1748	1044.0339	1050.2473	1109.4869	1161.0405	1241.3191	1269.5819	1299.3019	1319.0087	1416.4147	1439.8348	1463.8786	1566.2922	1614.0558	1687.2987	1802.813	2912.9555	3030.594	3115.7087	3285.809	3535.4756	3644.961
NC1=C(CC=O)N=CO1	Nc1c(CC=O)nco1	
InChI=1S/C5H6N2O2/c6-5-4(1-2-8)7-3-9-5/h2-3H,1,6H2	InChI=1S/C5H6N2O2/c6-5-4(1-2-8)7-3-9-5/h2-3H,1,6H2
