14
gdb 131911	4.25425	1.13698	0.89813	6.6619	76.85	-0.2119	-0.0626	0.1494	1195.2083	0.102199	-469.964532	-469.956814	-469.95587	-469.996854	28.885	
N	 0.1330013274	 1.340550704	 0.1468832016	-0.599411
C	 0.0096306534	-0.0334929084	 0.039062562	 0.369126
C	-1.1334586895	-0.8362595542	 0.0116148291	-0.216528
C	-0.7089663949	-2.1788525351	-0.0150948036	-0.178702
C	 0.6701814431	-2.1594328155	-0.0067941293	 0.423355
N	 1.097189451	-0.8465037968	 0.0272982373	-0.358934
N	 1.6185233513	-3.1949689509	-0.0338651437	 0.325317
O	 2.813915483	-2.8589933948	-0.021693139	-0.426059
O	 1.213356387	-4.3566298451	-0.0655505765	-0.390553
H	 0.9090449054	 1.7443357329	-0.3606369783	 0.259565
H	-0.7244657913	 1.8341494693	-0.055021537	 0.265386
H	-2.1500007582	-0.475211479	 0.0064095712	 0.10564
H	-1.3166281756	-3.0677707938	-0.0489393794	 0.139233
H	 2.0733675177	-0.6040551127	 0.0841703355	 0.282566
112.2278	154.5976	190.0541	220.4902	314.5995	381.1191	440.6234	514.2359	564.8183	601.7746	625.917	691.8041	714.6213	762.8912	773.3051	813.8531	886.3203	996.7355	1010.0477	1061.8666	1091.403	1179.4893	1272.7841	1324.6926	1413.9123	1417.4092	1498.9072	1555.725	1585.5447	1615.8268	1661.9713	3254.535	3283.846	3555.9132	3655.6944	3660.8322
NC1=CC=C(N1)N(=O)=O	Nc1ccc([nH]1)N(=O)=O	
InChI=1S/C4H5N3O2/c5-3-1-2-4(6-3)7(8)9/h1-2,6H,5H2	InChI=1S/C4H5N3O2/c5-3-1-2-4(6-3)7(8)9/h1-2,6H,5H2
