19
gdb 81977	2.46024	1.42252	1.2946	0.6026	81.28	-0.2417	0.0527	0.2944	1096.2382	0.15716	-385.824914	-385.815802	-385.814858	-385.858104	35.353	
C	-0.1027168161	 1.5917968349	-0.0699716929	-0.448316
C	 0.0004664644	 0.0628355273	-0.0511578471	 0.062123
C	-1.2955761103	-0.5401131224	 0.2185180472	 0.279497
C	-2.3647192135	-1.039722491	 0.4538473338	-0.454133
C	 0.7143765317	-0.6275175567	-1.2383325481	-0.069828
C	 2.1494488777	-0.2018552512	-1.3400040866	-0.306913
C	 1.7728960856	-1.230592731	-0.3118680062	-0.04029
C	 1.132317068	-0.5705700639	 0.8973663681	 0.053364
O	 1.9878678499	 0.3137577895	 1.5792152997	-0.421286
H	 0.8790474004	 2.0527136766	-0.1906962399	 0.127516
H	-0.7497781211	 1.9202764216	-0.8886631504	 0.124841
H	-0.5366152494	 1.9585598256	 0.8658022245	 0.114124
H	-3.3109086934	-1.4772054154	 0.6554660819	 0.189863
H	 0.1881700252	-1.105377019	-2.0547141979	 0.09485
H	 2.6781770562	-0.595053697	-2.2023233974	 0.112931
H	 2.4750208065	 0.7862422757	-1.0338682199	 0.124561
H	 2.1944936713	-2.2276029486	-0.3143237031	 0.087528
H	 0.6796695802	-1.2993324207	 1.5781849118	 0.08257
H	 1.5277093166	 0.6413804157	 2.3588037024	 0.286998
115.9589	146.2246	168.058	180.5207	228.9196	289.7976	312.1414	388.8431	450.638	481.4133	535.6342	582.0324	612.3445	621.4609	627.4546	750.6803	800.6861	832.2068	876.1016	935.3105	955.4326	993.4992	1010.8769	1026.5831	1067.0783	1083.4838	1120.325	1126.2965	1157.7254	1195.4952	1209.8946	1233.6069	1267.8516	1328.5464	1359.0331	1404.4315	1429.9401	1483.2302	1485.2445	1501.3764	2226.7138	3043.257	3045.0903	3107.5997	3130.5539	3137.4968	3188.0905	3197.0331	3214.7374	3502.1466	3816.156
CC1(C#C)C2CC2C1O	C[C@@]1(C#C)[C@H]2C[C@H]2[C@H]1O	
InChI=1S/C8H10O/c1-3-8(2)6-4-5(6)7(8)9/h1,5-7,9H,4H2,2H3	InChI=1S/C8H10O/c1-3-8(2)6-4-5(6)7(8)9/h1,5-7,9H,4H2,2H3/t5-,6+,7-,8-/m1/s1
