20
gdb 81937	2.12441	1.83265	1.1181	2.4796	81.42	-0.2228	0.0158	0.2386	1137.9804	0.171099	-403.140502	-403.131574	-403.13063	-403.173735	34.229	
C	-0.0125729443	 1.5273589746	 0.1502781031	-0.505923
C	-0.0441742616	 0.0388871031	 0.0005712133	 0.249261
C	-0.0797177186	-0.7005357116	-1.1186223398	 0.164303
C	-0.0587178629	-0.2588764851	-2.5463630444	-0.494257
C	-0.036184094	-2.2011003903	-0.8125700693	 0.057521
O	 1.0850858265	-2.8420776758	-1.4044386026	-0.437306
C	 0.0003739085	-2.2484830476	 0.7153202111	-0.079154
N	 1.274637043	-1.687131421	 1.2253190043	-0.355229
C	 0.0269820758	-0.856895027	 1.2025339253	-0.133744
H	 0.9102005053	 1.8500628832	 0.6494331447	 0.132465
H	-0.0747173155	 2.0428897537	-0.810791648	 0.126009
H	-0.8447532657	 1.88050449	 0.7729284497	 0.122931
H	 0.0510063492	 0.8226971895	-2.6551231964	 0.117227
H	 0.7678352327	-0.7485956412	-3.0731682083	 0.14232
H	-0.9792573964	-0.5597924711	-3.0643368073	 0.122179
H	-0.9163325496	-2.72076942	-1.21175401	 0.079605
H	 1.8416291237	-2.5327987445	-0.8854321127	 0.286479
H	-0.4714909834	-3.0604754	 1.2562935058	 0.089002
H	 1.424922691	-2.038510702	 2.1698920008	 0.229755
H	-0.4055006335	-0.5576500572	 2.1521114207	 0.086557
109.8989	143.8288	167.0476	190.4393	230.2603	268.5324	281.8571	388.5514	487.106	517.6021	531.91	584.1049	623.1824	695.2569	774.5434	807.5349	862.1678	899.306	916.9653	956.0494	998.4305	1032.0332	1063.083	1068.1446	1079.1026	1114.3279	1130.7219	1169.7446	1187.9879	1238.4483	1257.0209	1292.1193	1334.8378	1362.5606	1400.2669	1416.4283	1419.0089	1443.4263	1474.5924	1480.7809	1487.4513	1494.1251	1732.164	3016.6382	3018.9659	3031.7854	3060.4915	3073.853	3116.6444	3121.7238	3160.6787	3179.1258	3475.2531	3735.6059
CC1=C(C)C(O)C2NC12	CC1=C(C)[C@@H](O)[C@H]2N[C@@H]12	
InChI=1S/C7H11NO/c1-3-4(2)7(9)6-5(3)8-6/h5-9H,1-2H3	InChI=1S/C7H11NO/c1-3-4(2)7(9)6-5(3)8-6/h5-9H,1-2H3/t5-,6-,7+/m0/s1
