21
gdb 83369	2.11203	1.94456	1.53358	2.5793	76.32	-0.2463	0.0721	0.3184	1007.4555	0.183892	-424.242919	-424.234717	-424.233773	-424.275053	32.618	
C	-0.1115623385	 1.5441093817	-0.0434239344	-0.437888
C	 0.0404926228	 0.0280519632	 0.0042339952	-0.037713
C	 1.0869403767	-0.584891333	-0.9369465874	 0.204193
O	 2.3192725985	-0.0565237383	-0.4697923604	-0.270994
C	 2.2083584051	-0.071457605	 0.9665493302	-0.106935
C	 0.7772759318	-0.5972909054	 1.226719805	 0.226052
C	 0.2331085796	-0.3648317685	 2.6226418052	-0.496643
C	 0.7922918945	-2.0670198921	 0.7555947234	-0.103799
O	 1.0172032864	-1.9737549639	-0.6655795348	-0.273609
H	 0.8551126416	 2.0526428952	-0.0236010512	 0.135819
H	-0.623811689	 1.8470712124	-0.9624805381	 0.120287
H	-0.7103438859	 1.9082778091	 0.7979168656	 0.116723
H	-0.9308175966	-0.4556354115	-0.1438738852	 0.077651
H	 1.0215337341	-0.4272846175	-2.0124879285	 0.087738
H	 2.9752690201	-0.7296119207	 1.3931802469	 0.102221
H	 2.3636644606	 0.9413181789	 1.3588561021	 0.096361
H	 0.205028644	 0.7020632218	 2.8666318716	 0.123704
H	-0.7835879558	-0.7598682364	 2.7209907621	 0.121191
H	 0.8545615515	-0.8588394861	 3.3782749475	 0.121064
H	 1.595449685	-2.6529496679	 1.2188893766	 0.10082
H	-0.1650716264	-2.5707365762	 0.9472057787	 0.093756
153.278	204.4383	212.4511	221.311	243.9913	317.1725	327.0152	420.84	495.5704	552.6247	602.9138	630.1267	764.9113	770.3066	861.5875	919.1898	933.4592	937.3575	960.5783	989.0625	992.2644	1038.8794	1053.3575	1071.8508	1090.4604	1131.7592	1178.5422	1186.4903	1209.118	1252.6194	1256.4625	1273.7049	1305.8705	1319.4687	1368.5467	1383.4455	1409.9655	1411.36	1419.5868	1491.6887	1493.7975	1497.8911	1504.2374	1520.7963	1536.1849	3003.7272	3015.0448	3028.6056	3039.3146	3047.7101	3054.5167	3055.8015	3091.0048	3096.5232	3100.2703	3126.483	3143.8865
CC1C2OCC1(C)CO2	C[C@H]1[C@H]2OC[C@]1(C)CO2	
InChI=1S/C7H12O2/c1-5-6-8-3-7(5,2)4-9-6/h5-6H,3-4H2,1-2H3	InChI=1S/C7H12O2/c1-5-6-8-3-7(5,2)4-9-6/h5-6H,3-4H2,1-2H3/t5-,6-,7+/m0/s1
