19
gdb 89944	2.9077	1.30671	1.06821	1.3885	81.92	-0.2466	0.0385	0.285	1168.4761	0.158378	-385.829052	-385.820419	-385.819475	-385.862144	33.773	
O	 0.5811509807	 0.6275671634	-0.8440154199	-0.43026
C	-0.0294941175	-0.3245499753	-0.0139418703	 0.15776
C	 0.0400738548	-0.1717068183	 1.5329007339	-0.340813
C	-1.4675403245	-0.5948054874	 1.6361522657	 0.205641
C	-2.4274513713	 0.6181523377	 1.800562692	-0.275457
C	-2.3373074455	 0.8975337481	 0.2733505569	-0.249366
C	-1.5699547079	-0.4353777415	 0.0544443371	-0.103451
C	-1.7585675412	-1.8154616785	 2.337298258	 0.168967
C	-2.0110887931	-2.8380807289	 2.9203569596	-0.405812
H	 0.2567798272	 1.4998189298	-0.5963265662	 0.279843
H	 0.3929362729	-1.2867084522	-0.3177484613	 0.100983
H	 0.7506827833	-0.8212423364	 2.0452465117	 0.119376
H	 0.2073047186	 0.8588098646	 1.8636759137	 0.09422
H	-3.4274243582	 0.3007432936	 2.1032306328	 0.117023
H	-2.0877750304	 1.4034007459	 2.4819485534	 0.100506
H	-3.2997794296	 0.9534401526	-0.2374215007	 0.11506
H	-1.7752631782	 1.7973668837	 0.0007700738	 0.084084
H	-2.0579211636	-1.1734802755	-0.5818230691	 0.07594
H	-2.2324770263	-3.7394133454	 3.4357913091	 0.185757
74.2483	144.1006	165.9808	229.3178	263.1319	342.7366	389.1796	437.0335	507.4335	549.3718	582.3979	596.9954	607.9159	619.9294	754.3227	776.	846.3123	879.9923	903.1115	953.0287	956.1894	1007.266	1032.5666	1062.5339	1108.2228	1123.719	1145.1812	1159.6782	1213.6369	1236.2019	1244.9388	1257.9605	1281.8431	1303.2851	1321.7258	1327.154	1432.2401	1475.5828	1483.1465	1499.3483	2226.7324	3042.2309	3050.1833	3057.8223	3070.538	3102.5192	3113.7083	3123.3931	3128.2982	3502.8953	3806.7784
OC1CC2(CCC12)C#C	O[C@H]1C[C@]2(CC[C@@H]12)C#C	
InChI=1S/C8H10O/c1-2-8-4-3-6(8)7(9)5-8/h1,6-7,9H,3-5H2	InChI=1S/C8H10O/c1-2-8-4-3-6(8)7(9)5-8/h1,6-7,9H,3-5H2/t6-,7-,8+/m0/s1
