16
gdb 105128	2.51186	1.21947	0.95457	3.911	77.28	-0.2838	-0.0181	0.2657	1246.7274	0.121153	-400.706016	-400.696645	-400.6957	-400.740419	33.603	
C	 0.0605081044	 1.4666859294	-0.3836077878	-0.392693
C	-0.0347148666	 0.1386810477	 0.3758869325	-0.269189
C	-1.3957772309	-0.5116970327	 0.2270052381	 0.240853
O	-1.7069108924	-1.0794623019	-1.0464005809	-0.25441
C	-1.5759814831	-1.9848165658	 0.0596653633	-0.224499
C	-0.4626979939	-2.8919128963	 0.0655196146	 0.328661
C	 0.442562295	-3.6819252823	 0.0867515791	-0.38392
C	-2.5007400091	 0.2086156435	 0.8463647505	 0.270683
N	-3.3561742259	 0.7916342619	 1.3602223554	-0.331671
H	 1.0585230684	 1.8979798697	-0.270519909	 0.125098
H	-0.1278468621	 1.3151720341	-1.4502398962	 0.139628
H	-0.6659595075	 2.194034364	-0.0084180046	 0.141485
H	 0.7124965504	-0.5699919373	 0.0095745114	 0.13124
H	 0.1577928573	 0.2917606195	 1.4440557507	 0.124197
H	-2.5222895328	-2.4072836847	 0.3945870143	 0.140982
H	 1.2450602287	-4.3784597891	 0.1011326588	 0.213554
74.711	109.1119	121.8198	156.6109	211.9384	251.4753	262.5173	350.3777	406.5114	474.5873	543.1078	594.6677	628.4156	650.3635	672.1499	682.3446	783.6559	852.6416	922.0519	976.522	1000.6612	1052.4279	1097.2072	1122.918	1221.8098	1288.9876	1320.0432	1369.0958	1413.505	1420.7198	1474.8675	1499.4538	1507.6255	2242.7582	2356.2327	3045.4633	3049.0744	3100.46	3121.8481	3125.1341	3125.6029	3498.5769
CCC1(OC1C#C)C#N	CC[C@]1(O[C@H]1C#C)C#N	
InChI=1S/C7H7NO/c1-3-6-7(4-2,5-8)9-6/h1,6H,4H2,2H3	InChI=1S/C7H7NO/c1-3-6-7(4-2,5-8)9-6/h1,6H,4H2,2H3/t6-,7-/m0/s1
