23
gdb 91820	3.19421	1.22039	1.03676	0.2944	91.82	-0.2266	0.0236	0.2502	1282.9258	0.206729	-351.168197	-351.159296	-351.158351	-351.201206	35.614	
C	 0.1227974254	 1.6106319616	-0.0241318003	-0.399361
C	-0.0165858322	 0.0831958299	-0.0132121342	-0.023565
C	 0.6103912922	-0.5448796512	-1.2761166607	-0.22523
C	 0.6997787222	-2.0688249356	-1.2108405736	-0.082979
C	 2.0203468406	-2.7390761389	-0.8945194724	-0.326845
C	 0.9076660524	-2.7215312055	 0.1369514142	 0.335278
C	 0.2062080563	-4.0324985059	 0.4439867769	-0.464097
C	 1.024176171	-1.7849102145	 1.2887122408	-0.16304
C	 0.5906346955	-0.5254568498	 1.2335533645	-0.042906
H	 1.1780330355	 1.906944357	-0.0098087097	 0.115122
H	-0.3337259184	 2.0421310503	-0.9211669878	 0.109383
H	-0.3619304037	 2.0606105966	 0.8488033057	 0.110392
H	-1.0927524084	-0.1519504299	-0.0148866289	 0.082056
H	 0.0354312464	-0.2432583543	-2.1590329315	 0.092306
H	 1.6125397226	-0.1169007128	-1.404398499	 0.096157
H	 0.0504748326	-2.6041063053	-1.8977215525	 0.077127
H	 2.2514681661	-3.6848253944	-1.3752639216	 0.102327
H	 2.8781463192	-2.0951629336	-0.728587664	 0.107379
H	 0.1507139542	-4.6675101846	-0.4462203288	 0.110918
H	 0.7405304796	-4.5937841095	 1.2200566974	 0.113585
H	-0.8153112261	-3.8619612569	 0.8019255745	 0.11721
H	 1.4533884779	-2.180211159	 2.2080404501	 0.079266
H	 0.6690153591	 0.1140297161	 2.1105202112	 0.079518
84.4677	172.6111	216.0173	236.6041	249.8617	280.868	348.6934	392.8433	399.3378	456.0011	519.363	571.9886	649.2986	730.1565	761.9807	815.4803	856.126	897.1422	905.2182	932.8593	943.4746	979.9142	999.5931	1009.4824	1050.48	1063.7916	1092.2649	1112.6559	1126.6039	1135.3556	1158.7859	1209.8896	1236.6274	1265.2369	1304.8063	1320.762	1347.8111	1362.8223	1405.0158	1407.4355	1413.5678	1427.6198	1481.2383	1488.2116	1491.7438	1498.8152	1500.1455	1503.7715	1708.1327	2973.2071	3020.0954	3020.8227	3026.7019	3061.0176	3081.557	3094.0579	3096.2346	3097.7411	3118.6445	3127.8497	3142.0214	3153.2783	3207.357
CC1CC2CC2(C)C=C1	C[C@H]1C[C@H]2C[C@@]2(C)C=C1	
InChI=1S/C9H14/c1-7-3-4-9(2)6-8(9)5-7/h3-4,7-8H,5-6H2,1-2H3	InChI=1S/C9H14/c1-7-3-4-9(2)6-8(9)5-7/h3-4,7-8H,5-6H2,1-2H3/t7-,8+,9-/m1/s1
