16
gdb 66276	2.07604	1.64461	1.44493	3.1027	69.94	-0.2467	-0.0062	0.2405	1009.7497	0.124051	-437.883482	-437.874902	-437.873958	-437.916539	31.965	
N	 0.1230537997	 1.6008751704	 0.2874788292	-0.547921
C	-0.0439828542	 0.1810770055	-0.0052045249	-0.049851
C	-1.5113665179	-0.2195337087	-0.2596302996	-0.249913
C	-1.3583060154	-1.4391155214	-1.1719312172	-0.091986
O	-0.1720973629	-1.1870367971	-1.9556537417	-0.219192
C	 0.6146080823	-0.2691373526	-1.3480008678	 0.412613
O	 1.6344868574	 0.1429815171	-1.8156437707	-0.345524
C	 0.547599867	-0.628176266	 1.0617817874	 0.371634
C	 1.0373942924	-1.3186382493	 1.9144173478	-0.486297
H	 1.1182435559	 1.7952256854	 0.3705198545	 0.249248
H	-0.1970018451	 2.1401214275	-0.5140580519	 0.233765
H	-2.063064938	-0.4310373542	 0.6560344162	 0.134413
H	-2.0121303675	 0.5965901628	-0.7912050795	 0.116689
H	-1.208989671	-2.3607838293	-0.600119945	 0.132742
H	-2.1871754504	-1.5787332448	-1.8676174867	 0.130427
H	 1.4779648077	-1.9168561952	 2.6738640901	 0.209153
96.0667	133.864	170.7972	211.1487	232.0845	270.612	347.4442	422.3627	476.1339	575.0028	627.04	631.3452	661.9377	671.0913	708.8665	762.062	823.3809	909.4943	959.0207	978.8802	1032.2215	1049.0179	1084.1377	1168.5124	1199.7098	1236.1782	1246.0739	1327.3335	1349.0403	1402.14	1483.6652	1519.0255	1657.6675	1882.2991	2235.9895	3055.1043	3059.5188	3122.5382	3141.1059	3477.2205	3499.3808	3555.6156
NC1(CCOC1=O)C#C	N[C@]1(CCOC1=O)C#C	
InChI=1S/C6H7NO2/c1-2-6(7)3-4-9-5(6)8/h1H,3-4,7H2	InChI=1S/C6H7NO2/c1-2-6(7)3-4-9-5(6)8/h1H,3-4,7H2/t6-/m0/s1
