19
gdb 124643	4.11312	0.98174	0.86121	2.928	78.13	-0.2287	0.0296	0.2584	1379.3458	0.159483	-419.22633	-419.2173	-419.216356	-419.261238	33.134	
C	 0.8366910334	 1.4098203303	 0.3864721648	-0.388617
C	 0.0674712298	 0.1460321605	 0.0186605742	 0.123272
C	 0.4344897767	-0.3997775912	-1.352786533	-0.390006
O	 0.3534489126	-0.9273152859	 0.9583582916	-0.293543
C	-0.2131251088	-0.8332583401	 2.1777996494	 0.431432
C	 0.2127011633	-0.282465034	 3.3708619298	-0.324639
C	-0.8224629823	-0.5876917583	 4.2813383514	 0.002592
N	-1.8125410718	-1.2715561688	 3.7150694133	-0.232194
N	-1.422423414	-1.4049184558	 2.4292266388	-0.248646
H	 1.9145969848	 1.2212551053	 0.3603547615	 0.124718
H	 0.6067521683	 2.210653499	-0.3233965274	 0.118779
H	 0.5656271827	 1.7554905018	 1.3871801812	 0.132438
H	-1.0119165781	 0.348021714	 0.0620368409	 0.082249
H	 1.5010714195	-0.6416776384	-1.3924210486	 0.13058
H	-0.1318232595	-1.3085354481	-1.5724253806	 0.121923
H	 0.2191938995	 0.3421339557	-2.1270062077	 0.120359
H	 1.1362397416	 0.242627209	 3.5471637868	 0.107156
H	-0.8826765454	-0.3372095539	 5.3306758324	 0.110064
H	-1.9832254824	-1.9365003411	 1.7845184012	 0.272087
30.4495	65.1882	126.4069	213.956	253.3966	312.7357	327.8709	394.066	430.9888	472.8604	514.143	662.877	689.9993	757.4928	802.6741	842.6397	893.4318	925.4674	931.8985	936.0338	947.2184	1044.844	1066.4186	1125.725	1134.0107	1157.9484	1200.8551	1258.1837	1283.5363	1361.9744	1369.4907	1375.67	1402.3225	1417.1119	1430.8081	1479.5492	1486.3378	1491.5279	1498.5985	1511.1988	1613.2443	3007.8492	3040.3437	3045.9575	3111.5847	3120.6497	3124.6507	3126.0386	3240.212	3277.4866	3668.8555
CC(C)OC1=CC=NN1	CC(C)Oc1ccn[nH]1	
InChI=1S/C6H10N2O/c1-5(2)9-6-3-4-7-8-6/h3-5H,1-2H3,(H,7,8)	InChI=1S/C6H10N2O/c1-5(2)9-6-3-4-7-8-6/h3-5H,1-2H3,(H,7,8)
