18
gdb 92040	2.32657	2.04398	1.48958	2.0802	70.44	-0.2258	0.0617	0.2876	935.1293	0.149416	-439.029028	-439.021734	-439.02079	-439.060399	29.455	
O	 0.0238632828	 1.432064045	-0.2073517535	-0.411437
C	 0.01753658	 0.0213940134	-0.0284356606	 0.055816
C	 0.803913361	-0.4389692788	 1.222862259	-0.182299
N	 0.1833310958	-0.3221125664	 2.5352547757	-0.103016
C	-0.6290526293	 0.8499443464	 2.8526224793	-0.26109
C	-1.2812961161	-0.4693213308	 2.6000039551	-0.042582
C	-2.0691265918	-0.6753523647	 1.3379771309	 0.044618
O	-2.3919515607	 0.4723126053	 0.5505292355	-0.226535
C	-1.4375529645	-0.4402286784	 0.0223297111	 0.02433
H	 0.9438158379	 1.7154195219	-0.2372067246	 0.283857
H	 0.4886888815	-0.4697664248	-0.8949569766	 0.071473
H	 1.0509150858	-1.5001947088	 1.0845753261	 0.107092
H	 1.7588801649	 0.1022180022	 1.2542000641	 0.097499
H	-0.5334806687	 1.2082500654	 3.8743235494	 0.111023
H	-0.771188945	 1.610347525	 2.0919053242	 0.156975
H	-1.6239455338	-1.0627656455	 3.4442738552	 0.086995
H	-2.8713272596	-1.4087032658	 1.4066040873	 0.090312
H	-1.78914748	-1.0007755205	-0.8424064673	 0.096969
131.6404	217.386	281.2919	295.627	350.2839	363.9512	446.0652	511.3794	561.2887	660.4957	710.6472	760.1963	789.3061	839.1508	881.0194	902.6149	948.5069	962.2718	990.603	1047.0531	1081.3147	1088.2568	1097.0865	1125.8965	1139.0232	1159.68	1177.2619	1238.048	1280.0358	1291.9529	1323.4572	1342.5099	1374.8359	1389.8123	1400.7258	1441.7713	1457.6261	1473.8296	1515.5866	2964.8193	3012.2969	3048.6869	3111.4797	3112.3343	3121.3121	3137.6775	3216.5946	3811.2909
OC1CN2CC2C2OC12	O[C@H]1CN2C[C@H]2[C@H]2O[C@@H]12	
InChI=1S/C6H9NO2/c8-4-2-7-1-3(7)5-6(4)9-5/h3-6,8H,1-2H2	InChI=1S/C6H9NO2/c8-4-2-7-1-3(7)5-6(4)9-5/h3-6,8H,1-2H2/t3-,4-,5+,6-,7?/m0/s1
