16
gdb 28685	3.52107	1.03673	0.87409	1.4752	78.81	-0.184	0.0311	0.2151	1316.0374	0.123615	-400.741518	-400.732787	-400.731843	-400.775477	32.386	
N	 0.2578217215	 1.2869515074	-0.1345417607	-0.596113
C	-0.0414435642	-0.064648915	-0.0358357776	 0.364885
C	-1.1746723637	-0.7629623016	 0.2576003194	-0.257006
C	-0.7741445454	-2.1433613604	 0.2984117492	-0.24986
C	 0.5523610437	-2.1829430432	 0.027083372	 0.354984
C	 1.5564984277	-3.2835099493	-0.0862780253	-0.465189
C	 2.1087736194	-3.4534372332	-1.4322521165	 0.317679
C	 2.5642072202	-3.5886731274	-2.535660001	-0.461564
O	 1.0157271789	-0.8994871697	-0.17655806	-0.203532
H	 1.0003015073	 1.4723052506	-0.7974955446	 0.256966
H	-0.5548240987	 1.8503187699	-0.3430489073	 0.255409
H	-2.1594131613	-0.3567224539	 0.4221711501	 0.09535
H	-1.4058076398	-2.9959313749	 0.4959133738	 0.104584
H	 2.3825957886	-3.1172903616	 0.6196802945	 0.143523
H	 1.0671559979	-4.2118374955	 0.2298675353	 0.144889
H	 2.9630806979	-3.7078295322	-3.5122609514	 0.194996
47.0709	88.2656	177.6548	218.127	261.484	310.029	333.8998	428.8248	453.6139	613.8052	617.4906	640.2297	645.9512	685.8256	720.6934	745.7997	773.9899	824.4598	910.5177	941.6365	984.6873	1011.5108	1034.0928	1103.3288	1193.1308	1239.0571	1273.354	1301.004	1338.081	1443.2243	1449.1207	1609.4547	1645.355	1672.9018	2240.3424	3006.0068	3065.4444	3248.9261	3265.9193	3507.2217	3543.7638	3645.3028
NC1=CC=C(CC#C)O1	Nc1ccc(CC#C)o1	
InChI=1S/C7H7NO/c1-2-3-6-4-5-7(8)9-6/h1,4-5H,3,8H2	InChI=1S/C7H7NO/c1-2-3-6-4-5-7(8)9-6/h1,4-5H,3,8H2
