17
gdb 87091	4.16742	0.68695	0.65472	3.3438	83.82	-0.2687	-0.0665	0.2022	1725.4902	0.131632	-421.79029	-421.780129	-421.779185	-421.826588	34.628	
C	-0.0400714174	 1.5188527532	-0.1169712691	-0.428612
C	 0.0014138908	 0.0263955165	 0.0807547354	 0.049128
O	 1.2419121702	-0.6480155622	-0.1105969064	-0.271931
C	 0.6798923048	-0.6575690035	 1.218021863	 0.153905
C	 1.4608097027	 0.0781558608	 2.2880791749	-0.473428
C	 0.1342188022	-1.9272993132	 1.6349335824	 0.08457
C	-0.3208000641	-2.9754837881	 2.0296221071	 0.069402
C	-0.859150664	-4.2423693228	 2.4506051862	 0.014003
O	-1.2214941157	-4.4922791657	 3.5776819425	-0.229735
H	 0.8168732929	 2.0208363253	 0.3339715562	 0.133133
H	-0.0394513055	 1.745369306	-1.1883009223	 0.140223
H	-0.9591314386	 1.9315236177	 0.3117341434	 0.133171
H	-0.8492795148	-0.5076201013	-0.3467402647	 0.101959
H	 1.8642839518	 1.015381351	 1.9040988991	 0.134821
H	 0.8209411547	 0.2875248476	 3.1502073641	 0.140849
H	 2.296003544	-0.540331512	 2.6287810524	 0.145184
H	-0.9196932739	-4.9974077392	 1.6407309156	 0.10336
44.2764	74.6666	94.1042	143.1026	158.6683	197.4949	222.3224	275.1077	332.6275	351.0562	464.7523	530.1715	563.2183	588.1874	707.5031	772.1949	851.3802	915.7395	987.0605	1020.1419	1055.0765	1062.9737	1098.8878	1133.2843	1180.7221	1272.365	1328.9108	1400.1245	1415.9191	1420.7557	1443.5216	1472.2241	1483.5668	1490.7285	1508.919	1764.9015	2318.5652	2921.7671	3044.1691	3053.5641	3093.3971	3105.7098	3119.5194	3142.0451	3154.33
CC1OC1(C)C#CC=O	C[C@H]1O[C@]1(C)C#CC=O	
InChI=1S/C7H8O2/c1-6-7(2,9-6)4-3-5-8/h5-6H,1-2H3	InChI=1S/C7H8O2/c1-6-7(2,9-6)4-3-5-8/h5-6H,1-2H3/t6-,7-/m1/s1
