17
gdb 57937	3.38616	0.97794	0.80223	5.0175	66.73	-0.2595	-0.0036	0.2558	1395.3289	0.133651	-492.335366	-492.325228	-492.324284	-492.371454	35.489	
C	 0.2397530348	 0.8240263814	-0.055221536	-0.390365
C	-0.1157843147	-0.2961791582	 0.9331856497	 0.088267
O	 0.0768455598	 0.1345338898	 2.2549739305	-0.439765
C	-1.5476781435	-0.7677502632	 0.7511504309	 0.396
N	-2.392769741	-0.637093736	 1.6724342261	-0.533056
O	-1.7032299837	-1.3185994478	-0.5131245671	-0.279801
C	-2.9077258183	-1.8248270904	-0.9520834371	 0.512114
N	-2.7449834744	-2.2765194093	-2.2178808932	-0.553229
O	-3.9367910354	-1.8517582802	-0.3223302968	-0.378547
H	 1.2674084504	 1.146415258	 0.1287515666	 0.130948
H	 0.1559235229	 0.4843740602	-1.0910165477	 0.111175
H	-0.4218724654	 1.6821562665	 0.0956195845	 0.126396
H	 0.535143068	-1.1620228243	 0.7275860183	 0.089237
H	-0.7943945184	 0.0719733799	 2.6795903656	 0.295614
H	-3.3130663051	-0.9920156152	 1.421242694	 0.267125
H	-1.8370612378	-2.2943521522	-2.6466089562	 0.276912
H	-3.5185185681	-2.7460159092	-2.6537924821	 0.280976
44.1919	63.1619	98.2609	141.242	166.5184	228.1723	258.5637	343.9406	356.6177	397.7488	437.4283	456.3815	546.7275	591.7367	656.5948	736.305	774.1074	841.8983	896.9893	942.3471	953.8913	1055.2069	1071.1266	1106.5397	1108.1642	1173.2588	1260.6986	1315.4942	1357.257	1376.0456	1399.8867	1451.6126	1491.9106	1499.5518	1605.8839	1746.1746	1853.9338	2970.7676	3046.2733	3124.5688	3130.7436	3522.5864	3629.6555	3669.4165	3766.546
CC(O)C(=N)OC(N)=O	C[C@@H](O)[C]([NH])OC(=O)N	
InChI=1S/C4H8N2O3/c1-2(7)3(5)9-4(6)8/h2,5,7H,1H3,(H2,6,8)	InChI=1S/C4H8N2O3/c1-2(7)3(5)9-4(6)8/h2,5,7H,1H3,(H2,6,8)/t2-/m1/s1
