16
gdb 50682	2.14287	1.59235	1.10354	4.658	68.87	-0.2641	-0.0435	0.2206	1103.1008	0.123944	-437.905397	-437.896868	-437.895923	-437.939841	29.671	
O	-0.7228069235	 0.9502408106	 0.7608630345	-0.238864
C	 0.2535678292	 0.7643529027	 0.0866312166	 0.142072
C	 1.4130343366	 1.7531185253	 0.0090462538	 0.043308
O	 2.6111139416	 1.0475627738	-0.242987017	-0.270973
C	 3.4419842674	 1.7605039201	-1.1688583842	-0.068962
C	 2.7695659909	 3.120879146	-1.3890130753	-0.249264
C	 1.2779984038	 2.7930755275	-1.1412728416	-0.19987
C	 0.6471305309	 2.234774222	-2.3404073677	 0.285229
N	 0.1653124063	 1.7954451926	-3.2947075895	-0.321597
H	 0.3969528261	-0.1400107916	-0.5408422996	 0.110811
H	 1.4590745982	 2.2987113937	 0.9620892405	 0.108328
H	 4.4477257319	 1.8531134951	-0.747748837	 0.12099
H	 3.5070171161	 1.187558609	-2.1018524897	 0.12743
H	 3.0967619265	 3.8459174186	-0.6388376038	 0.127084
H	 2.9552615978	 3.5361732319	-2.3805715604	 0.138281
H	 0.7000519801	 3.6610826826	-0.8163735596	 0.145997
52.7726	67.7192	115.5918	144.4408	244.6493	269.8348	378.0093	421.8513	505.7768	567.7619	681.0544	758.272	829.2293	850.929	904.9625	939.6842	963.5325	1019.5548	1040.9157	1101.692	1109.9164	1129.3161	1182.6651	1214.9111	1256.2476	1284.3929	1316.2982	1324.1952	1364.6804	1389.3173	1403.5121	1489.8295	1528.9116	1840.847	2356.6434	2925.9977	3010.7455	3032.0653	3068.2969	3084.2683	3098.6809	3135.2441
O=CC1OCCC1C#N	O=C[C@H]1OCC[C@H]1C#N	
InChI=1S/C6H7NO2/c7-3-5-1-2-9-6(5)4-8/h4-6H,1-2H2	InChI=1S/C6H7NO2/c7-3-5-1-2-9-6(5)4-8/h4-6H,1-2H2/t5-,6+/m0/s1
