20
gdb 96915	4.93244	0.91634	0.89049	2.4182	83.15	-0.2431	0.0351	0.2782	1403.4213	0.170531	-403.141979	-403.133098	-403.132154	-403.176141	32.912	
C	-0.1129460384	 1.4776134436	-0.4450846205	-0.339615
N	-0.0700822854	 0.0219482928	-0.4639503372	-0.331321
C	-0.9982334112	-0.6198322144	 0.0730686519	 0.448153
C	-1.3183836549	-2.0842954053	 0.263271782	-0.456747
C	-2.5751973519	-1.5489378079	 0.9848305534	 0.457588
C	-3.9912043546	-1.967404246	 0.5493737749	-0.286822
C	-4.0903685651	-2.7960247815	 1.8622746115	-0.215564
C	-2.9079705556	-1.9598918604	 2.4305798805	-0.286822
O	-2.1410699223	-0.1800928037	 0.7293864103	-0.294766
H	 0.7883065128	 1.8561443296	 0.0499585571	 0.125301
H	-0.0897828479	 1.8500523211	-1.4753081181	 0.1253
H	-0.9924126249	 1.8946420802	 0.0595577758	 0.124268
H	-1.4987975152	-2.6385656364	-0.6599609387	 0.132372
H	-0.6085635205	-2.632386335	 0.8860679866	 0.132372
H	-4.6611992401	-1.1033599026	 0.564010133	 0.120329
H	-4.096510296	-2.4843024297	-0.4075031623	 0.103572
H	-5.0351106678	-2.7560004198	 2.4061150284	 0.108392
H	-3.8183130816	-3.8433350484	 1.7098021816	 0.110107
H	-2.1314806141	-2.4706747181	 3.005080357	 0.103572
H	-3.2599474052	-1.0936418882	 2.9975042628	 0.120329
67.623	80.8362	104.0645	199.9031	206.0818	293.3571	358.7467	409.5079	459.2699	535.5004	560.5523	697.7138	783.1815	787.2047	852.0412	883.8706	912.3838	925.0724	946.8089	961.0379	1033.0671	1041.5539	1067.7295	1088.5844	1134.4016	1165.3272	1170.4131	1173.0324	1204.4909	1215.2104	1247.119	1250.972	1276.377	1286.6177	1315.9682	1439.5908	1465.9237	1469.4482	1485.4298	1494.7686	1497.71	1505.534	1850.3681	3015.7781	3060.2236	3064.3232	3072.7009	3077.8664	3080.446	3085.3927	3111.4563	3116.8227	3131.6817	3133.1649
CN=C1CC2(CCC2)O1	CN=C1CC2(CCC2)O1	
InChI=1S/C7H11NO/c1-8-6-5-7(9-6)3-2-4-7/h2-5H2,1H3	InChI=1S/C7H11NO/c1-8-6-5-7(9-6)3-2-4-7/h2-5H2,1H3
