23
gdb 80425	2.44389	1.67498	1.25019	1.2021	85.	-0.2561	0.0699	0.3261	1119.6212	0.206434	-388.291104	-388.282145	-388.281201	-388.323813	36.07	
C	-0.1654457344	 1.5342091842	-0.030149798	-0.421018
C	 0.0583797966	 0.0235167825	-0.0436501054	-0.002211
C	 0.9842209839	-0.507882016	-1.1599974051	-0.023839
C	 1.1978517171	-1.9767519434	-0.7005638463	-0.279856
C	 1.9854763149	-1.2997648647	 0.4631796688	 0.352866
C	 2.9813776733	-2.041600329	 1.323641148	-0.505427
C	 2.4081421227	-0.2347983086	-0.5985431007	-0.264354
C	 0.8509713119	-0.554007189	 1.1930804518	 0.077871
O	 1.4240859314	 0.4208124902	 2.0518814171	-0.436177
H	 0.7728038432	 2.0879213685	 0.0518853342	 0.129577
H	-0.67083881	 1.8521751069	-0.9481430905	 0.111526
H	-0.8027229261	 1.8384728383	 0.8088737646	 0.097972
H	-0.9185604335	-0.4702561663	-0.1150350863	 0.061171
H	 0.712997805	-0.2596112269	-2.187451545	 0.052843
H	 0.3137153261	-2.5747812956	-0.4521684226	 0.081115
H	 1.8581194245	-2.5423006278	-1.3630603642	 0.092352
H	 3.7678538049	-2.5018818325	 0.7165531624	 0.106748
H	 3.4531187508	-1.3615392096	 2.0393631252	 0.131968
H	 2.4909421862	-2.8387904942	 1.8954258163	 0.108152
H	 3.19349282	-0.6100874015	-1.259674565	 0.088311
H	 2.6589887029	 0.7669283702	-0.2446575811	 0.103449
H	 0.2337366577	-1.2510835331	 1.779217039	 0.054243
H	 0.7132307208	 0.8715476173	 2.5167565428	 0.282718
127.994	205.95	211.7451	235.9219	253.6711	273.1246	295.5665	310.3423	420.2217	481.5974	483.7419	549.6023	637.3024	701.9678	785.4468	826.3656	851.4584	867.9995	882.4138	921.2928	968.7733	978.7003	1011.1848	1030.687	1038.6277	1073.033	1087.8618	1112.1763	1146.7812	1149.8466	1168.8456	1204.1281	1226.3104	1252.6817	1264.6653	1267.3085	1291.3008	1322.8823	1355.7503	1373.6683	1408.2155	1412.5761	1426.4758	1485.6006	1490.7705	1496.0975	1498.017	1502.8328	1522.7156	2980.3797	3022.038	3025.561	3030.1077	3037.0425	3065.3176	3085.0996	3087.3673	3097.4784	3104.9173	3108.2252	3120.3337	3127.046	3830.851
CC1C2CC(C)(C2)C1O	C[C@H]1[C@@H]2C[C@@](C)(C2)[C@H]1O	
InChI=1S/C8H14O/c1-5-6-3-8(2,4-6)7(5)9/h5-7,9H,3-4H2,1-2H3	InChI=1S/C8H14O/c1-5-6-3-8(2,4-6)7(5)9/h5-7,9H,3-4H2,1-2H3/t5-,6-,7-,8+/m0/s1
