21
gdb 102090	2.10893	1.21694	0.97882	1.5502	79.17	-0.2429	-0.0252	0.2177	1334.3879	0.178963	-424.221022	-424.210535	-424.209591	-424.257451	37.739	
C	-0.1362003532	 1.5251325386	-0.068333837	-0.397249
C	-0.1291703202	-0.0038145037	-0.1528365032	-0.189206
C	 0.7582852564	-0.5553164934	-1.2875595586	-0.112694
C	 2.2133123298	-0.1985711748	-1.0521007423	 0.154688
O	 2.9041771364	 0.4448788716	-1.7998306194	-0.254424
C	 0.6229789572	-2.076107395	-1.4098077673	 0.38999
O	 0.8633317616	-2.7850901824	-0.2177623047	-0.469139
C	-0.4758398218	-2.6418426306	-2.2597369231	-0.300648
C	 0.9689778171	-2.7582868195	-2.707829514	-0.334363
H	 0.8658839446	 1.9276546206	 0.1144571018	 0.125805
H	-0.5016441165	 1.973130952	-0.9987838503	 0.120283
H	-0.7840451563	 1.8668070471	 0.7444247884	 0.116776
H	 0.2035170264	-0.4392098727	 0.7958271098	 0.114558
H	-1.1478385921	-0.3754131617	-0.3127726119	 0.107428
H	 0.4741270696	-0.1019717387	-2.2436806888	 0.088922
H	 2.6298587554	-0.5946700992	-0.0938527235	 0.065922
H	 1.8113711295	-2.934074952	-0.1391506058	 0.285999
H	-0.9534740361	-3.5401058682	-1.8867468577	 0.127181
H	-1.1294878744	-1.9575843944	-2.7892632436	 0.11748
H	 1.3078183353	-2.1500130167	-3.5394031919	 0.126508
H	 1.4288735414	-3.738353837	-2.6427129569	 0.116182
38.5414	58.1799	85.4495	154.9871	188.8679	227.8872	273.1354	291.3084	312.4878	353.7401	408.0022	451.3709	500.8381	522.6996	767.1379	770.577	789.301	886.1384	910.0861	922.0405	929.7832	975.9361	986.1748	1027.0699	1051.8796	1074.5698	1080.1521	1121.8907	1161.1635	1188.6794	1233.1072	1260.66	1275.9762	1311.0852	1329.5462	1354.6504	1383.7569	1418.5167	1425.6613	1453.8433	1489.4964	1495.1223	1499.9376	1505.2391	1830.3632	2831.7118	3033.5372	3039.763	3054.9288	3075.0036	3102.7091	3107.2339	3133.5012	3139.4805	3218.862	3234.4887	3807.2756
CCC(C=O)C1(O)CC1	CC[C@@H](C=O)C1(O)CC1	
InChI=1S/C7H12O2/c1-2-6(5-8)7(9)3-4-7/h5-6,9H,2-4H2,1H3	InChI=1S/C7H12O2/c1-2-6(5-8)7(9)3-4-7/h5-6,9H,2-4H2,1H3/t6-/m0/s1
