18
gdb 64738	3.00439	1.12216	1.05433	2.1532	78.42	-0.2401	-0.0288	0.2113	1214.0144	0.144687	-401.91107	-401.901565	-401.90062	-401.945574	34.881	
C	-0.1890806788	 1.6991054819	 0.2441467893	-0.429932
C	 0.02992686	 0.20058976	 0.0800948379	 0.18725
C	-1.2940406597	-0.5546195521	-0.2259848561	-0.4016
C	-1.8044780153	-0.2536192162	-1.5571157454	 0.300104
C	-2.1824415313	-0.0028081624	-2.6707864967	-0.438129
N	 1.1637769	-0.1637120903	-0.8211290474	-0.349303
C	 1.7939894848	-1.0632350695	 0.1783766847	-0.288471
C	 0.7985611091	-0.5178920373	 1.2131773105	 0.36062
O	 0.6641418721	-0.5935218111	 2.3970971416	-0.297183
H	 0.7657094935	 2.2053174953	 0.4024996285	 0.127048
H	-0.6557734706	 2.1165740544	-0.6532683108	 0.135075
H	-0.8402212356	 1.8980262005	 1.1014536149	 0.126668
H	-1.1318564627	-1.6368140581	-0.1374355762	 0.131227
H	-2.0362919927	-0.2920341831	 0.5370225012	 0.147952
H	-2.5383918426	 0.2175313682	-3.6468480564	 0.202272
H	 0.8732836153	-0.6126228053	-1.682781757	 0.226953
H	 1.6732174888	-2.1427065966	 0.0096796537	 0.124145
H	 2.8523712454	-0.8601313785	 0.3746487837	 0.135303
58.7188	98.9221	132.7294	174.8289	191.0977	256.017	323.9311	355.3166	365.6593	452.5539	526.7703	581.928	630.6048	637.1152	649.3786	738.6197	758.8875	882.15	911.4649	952.7681	963.4912	979.6433	1007.8909	1051.4951	1122.3468	1144.9923	1167.7179	1188.0998	1259.1433	1307.2414	1331.3014	1360.1025	1402.9063	1462.3056	1476.1767	1483.3075	1493.6804	1910.2851	2233.5651	3007.756	3021.2541	3040.8161	3061.8546	3067.5956	3113.5018	3128.9752	3504.4703	3538.7733
CC1(CC#C)NCC1=O	C[C@@]1(CC#C)NCC1=O	
InChI=1S/C7H9NO/c1-3-4-7(2)6(9)5-8-7/h1,8H,4-5H2,2H3	InChI=1S/C7H9NO/c1-3-4-7(2)6(9)5-8-7/h1,8H,4-5H2,2H3/t7-/m0/s1
