16
gdb 91259	2.48572	0.87004	0.66131	2.4618	79.63	-0.2258	-0.0477	0.1782	1646.2963	0.118892	-437.884613	-437.873395	-437.872451	-437.923468	36.695	
N	-0.4329386655	 0.0898896508	-1.4668744392	-0.737071
H	-0.5686924761	-0.4941322934	-0.6423650685	 0.259803
H	 0.4817052183	-0.1586222534	-1.8355910883	 0.22944
H	-1.1024718884	-0.2388419796	-2.1581274472	 0.229162
C	-1.1859434228	 2.1093051304	 2.8374367479	-0.217783
C	-1.4190300742	 1.6310610744	 1.4052081329	-0.368516
C	-0.9410028821	 0.2748337872	 1.9971555107	 0.335395
O	-0.751023464	-0.8329058762	 1.5669591568	-0.338651
C	 0.0002770175	-0.8843906688	 4.7660404961	 0.500568
O	 0.3126869087	-1.9832054972	 4.9545442069	-0.201422
C	-0.3477370377	 0.3822916785	 4.6018604507	-0.564754
C	-0.7822228141	 0.9123925577	 3.3352437848	 0.323174
H	-1.3032771169	 3.0849258322	 3.2913776473	 0.1206
H	-2.4553464756	 1.6353003116	 1.0487604924	 0.122899
H	-0.7773057771	 2.0324872542	 0.6155492164	 0.152113
H	-0.2835985502	 1.0046197016	 5.4879590401	 0.155042
17.8066	57.2902	86.8816	92.5784	120.2687	131.0703	188.5354	203.6054	270.1393	307.4487	327.4265	494.6728	541.9465	567.9703	571.1227	694.7237	742.1215	793.5407	854.0583	929.2861	1010.714	1028.8773	1090.4559	1110.6531	1130.2023	1201.2387	1217.6798	1290.3372	1381.3151	1479.293	1659.8268	1679.1075	1702.1592	1853.697	2231.6649	3043.646	3098.2317	3187.1132	3220.7339	3445.852	3557.6558	3574.6509
[NH3+]C1C[C-]2OC(=O)C=C12	N.[CH]1CC(=O)C1=C[C][O]	
InChI=1S/C6H6NO2/c7-4-2-5-3(4)1-6(8)9-5/h1,4H,2,7H2/q-1/p+1	InChI=1S/C6H4O2.H3N/c7-4-3-5-1-2-6(5)8;/h1,3H,2H2;1H3
