17
gdb 31984	3.27282	1.11825	0.88756	1.1763	73.32	-0.1905	0.0345	0.225	1312.5921	0.134366	-458.96656	-458.957363	-458.956418	-459.001857	31.913	
C	 0.1510909286	 1.3108176005	 0.3140342296	-0.252618
O	-0.2127634436	 0.2709261403	-0.600129615	-0.265978
C	-1.2557923529	-0.481753735	-0.2327551762	 0.414036
C	-1.4165625491	-1.8237859238	-0.1469981795	-0.291504
C	-2.8067482254	-2.0410213449	 0.1702095982	-0.291509
C	-3.3658012242	-0.8116059934	 0.271447052	 0.414039
O	-4.586997437	-0.4141019798	 0.6457294855	-0.265981
C	-5.2500399264	 0.4776728772	-0.2568034942	-0.252612
O	-2.4370110369	 0.168148673	 0.0242506469	-0.227758
H	 1.028099399	 1.7987296782	-0.1136014758	 0.135931
H	-0.6579954832	 2.0391715401	 0.4247188167	 0.136709
H	 0.4011010641	 0.8915121	 1.2957977182	 0.125073
H	-0.6490434806	-2.5640345003	-0.3012161772	 0.112232
H	-3.3140982831	-2.9805291847	 0.3142815876	 0.112232
H	-4.6995960668	 1.4180571227	-0.3571334082	 0.136702
H	-5.3629171329	 0.0141175357	-1.243998019	 0.125074
H	-6.2329349597	 0.6720603443	 0.1747184105	 0.135931
47.7052	57.0835	136.1468	142.6996	171.0169	173.5515	349.8584	375.8518	440.2212	533.7945	600.4496	666.6669	678.3139	734.4158	784.1029	805.1659	964.3734	967.2559	1023.0303	1038.8129	1056.46	1169.6047	1174.5904	1189.9481	1199.0268	1219.8645	1279.476	1280.4548	1374.6925	1470.4352	1473.33	1485.5005	1487.1332	1504.1773	1504.3161	1660.9313	1682.7719	3024.102	3024.8505	3098.7978	3099.0143	3143.679	3143.795	3265.2874	3277.2703
COC1=CC=C(OC)O1	COc1ccc(OC)o1	
InChI=1S/C6H8O3/c1-7-5-3-4-6(8-2)9-5/h3-4H,1-2H3	InChI=1S/C6H8O3/c1-7-5-3-4-6(8-2)9-5/h3-4H,1-2H3
