21
gdb 88527	3.21014	1.30253	1.15659	1.6659	83.28	-0.2326	0.0822	0.3148	1163.3267	0.182527	-387.013603	-387.005345	-387.0044	-387.046434	32.849	
C	 0.0131044208	 1.5611983235	-0.2166711656	-0.424224
C	 0.0547237693	 0.0634765204	 0.0006740813	 0.006558
C	 1.3511450533	-0.7050999116	-0.0717241274	-0.301342
C	 0.6273613162	-0.5756914839	 1.2499759385	-0.179045
C	 1.2446390795	 0.1975526875	 2.3590117554	 0.442299
C	 0.6081345532	 1.1665164058	 3.4017662651	-0.261947
C	 2.1442861177	 1.2347012763	 3.5224208145	 0.047338
C	 2.2202798395	-0.3056321485	 3.4635289207	-0.255355
O	 2.2401699244	 1.268859827	 2.0435044231	-0.33876
H	 0.8810855846	 2.050902611	 0.2292709855	 0.149383
H	-0.0045432899	 1.7925126668	-1.2876946938	 0.109747
H	-0.8868761434	 1.9996985312	 0.2298235998	 0.108589
H	-0.8090128449	-0.4634078475	-0.398758758	 0.080372
H	 1.3708378155	-1.6718857604	-0.5625687981	 0.106714
H	 2.2625962962	-0.1249268574	-0.1702480429	 0.132054
H	 0.1085555105	-1.4599647349	 1.6121191755	 0.085274
H	 0.1299012843	 2.0525609316	 2.9833048219	 0.10771
H	 0.0456106455	 0.7274216249	 4.2298910577	 0.092293
H	 2.7659601605	 1.93857747	 4.074575799	 0.094503
H	 1.8016972243	-0.8759778823	 4.2970628635	 0.091389
H	 3.1629091529	-0.7120570295	 3.0950956344	 0.106449
68.5847	145.564	178.4541	236.55	272.3841	352.06	404.7197	486.5878	525.3397	602.7601	642.1398	733.982	772.3112	800.3501	851.2671	872.3873	902.7759	908.7897	941.4204	954.1423	982.9339	987.8625	1026.9316	1069.2467	1072.5647	1093.6194	1099.7219	1112.3528	1140.747	1152.1369	1158.4171	1203.9769	1210.5521	1228.1165	1241.7712	1242.4589	1292.6102	1396.3874	1425.8455	1434.0201	1468.273	1490.0709	1504.2771	1507.8703	1518.7179	3028.2546	3057.0657	3066.4461	3081.7072	3119.9442	3125.934	3132.0101	3136.0586	3142.2215	3144.6221	3149.4566	3222.1039
CC1CC1C12CC(C1)O2	C[C@H]1C[C@H]1[C@@]12C[C@@H](C1)O2	
InChI=1S/C8H12O/c1-5-2-7(5)8-3-6(4-8)9-8/h5-7H,2-4H2,1H3	InChI=1S/C8H12O/c1-5-2-7(5)8-3-6(4-8)9-8/h5-7H,2-4H2,1H3/t5-,6-,7+,8+/m0/s1
