13
gdb 132709	5.20971	1.00801	0.84459	3.4893	70.24	-0.2646	-0.0742	0.1904	1218.5223	0.089964	-460.786803	-460.779851	-460.778907	-460.818597	25.634	
F	 0.0091901036	 0.0464518678	 0.0028183431	-0.058742
C	-0.0085570581	 1.3710695075	 0.0104933489	 0.356309
N	-1.2009486567	 1.9318001336	 0.0295073115	-0.312675
C	-1.237147389	 3.2640748592	 0.037423864	-0.036267
C	-0.0919245117	 4.0672822646	 0.0266513346	 0.143983
C	-0.1988094194	 5.5410293991	 0.0363294619	 0.092015
O	-1.2398504223	 6.1541337166	 0.0533393514	-0.262417
C	 1.1538440855	 3.430939583	 0.0064791134	-0.14389
C	 1.2106375512	 2.0478448948	-0.0019976865	-0.263286
H	-2.2161005413	 3.7337042104	 0.0531130204	 0.152218
H	 0.7810653772	 6.070098625	 0.0259107533	 0.075974
H	 2.0662470085	 4.0205353348	-0.0023986223	 0.126744
H	 2.1422037925	 1.4968841736	-0.0175036437	 0.130032
100.2025	180.266	194.6976	331.1815	393.1232	432.8559	469.7534	538.8948	615.7567	649.5153	777.6052	802.609	857.5749	887.1853	980.1548	996.176	1032.4877	1046.5625	1143.5486	1226.8908	1302.5269	1315.934	1334.3792	1405.8338	1446.8902	1516.7762	1614.498	1634.1998	1802.8069	2875.8764	3176.3968	3186.875	3219.5201
FC1=NC=C(C=O)C=C1	Fc1ncc(C=O)cc1	
InChI=1S/C6H4FNO/c7-6-2-1-5(4-9)3-8-6/h1-4H	InChI=1S/C6H4FNO/c7-6-2-1-5(4-9)3-8-6/h1-4H
