14
gdb 26562	2.44231	1.90425	1.07263	6.801	69.09	-0.2066	-0.0216	0.1849	1024.8999	0.103516	-470.067082	-470.059494	-470.058549	-470.098939	28.981	
N	 0.0927216635	 1.4371055487	 0.1486983352	-0.594099
C	-0.0078319667	 0.0487872737	 0.0405552263	 0.262464
C	-1.1558308274	-0.672493598	 0.0184294601	 0.207014
O	-2.3771867684	-0.0932103656	 0.0247954178	-0.454948
C	-1.1327784868	-2.1299330612	-0.0200517933	 0.330604
O	-2.2063761087	-2.7283782618	-0.0435247141	-0.415267
N	 0.1079318909	-2.7647857265	-0.0515095059	-0.322789
C	 1.1679187519	-2.0273659187	-0.0239126758	 0.088015
N	 1.1776492476	-0.6681581979	 0.0208744313	-0.341419
H	 0.6176021198	 1.8657022322	-0.6071145974	 0.254061
H	-0.8296343668	 1.853664896	 0.1940104618	 0.27615
H	-2.9782991468	-0.8658428599	 0.0026600909	 0.305112
H	 2.1523967035	-2.489843538	-0.0371501508	 0.135679
H	 2.0456290343	-0.170326073	 0.1481807039	 0.269423
126.497	205.1681	232.4948	278.279	316.6335	337.8618	475.5266	513.8652	538.6669	575.8268	593.442	597.685	647.6488	728.2666	799.2029	802.044	896.1672	939.3496	1030.9382	1103.5235	1183.1953	1244.6359	1314.668	1338.2645	1426.4947	1436.7304	1546.1364	1630.64	1647.7933	1708.0533	1754.5061	3158.9214	3508.9704	3562.0069	3610.4762	3627.7922
NC1=C(O)C(=O)N=CN1	Nc1c(O)c(=O)nc[nH]1	
InChI=1S/C4H5N3O2/c5-3-2(8)4(9)7-1-6-3/h1,8H,(H3,5,6,7,9)	InChI=1S/C4H5N3O2/c5-3-2(8)4(9)7-1-6-3/h1,8H,(H3,5,6,7,9)
