17
gdb 38147	2.86504	1.98638	1.43403	1.4321	71.94	-0.2318	0.0004	0.2322	913.975	0.138222	-421.812294	-421.80565	-421.804706	-421.843153	27.024	
C	-0.0808693132	 1.4507318148	 0.0715083579	-0.366695
C	 1.2915172152	 0.7670006807	-0.0651267991	-0.167905
C	 2.0440171912	 0.4093288796	 1.1724337227	-0.07151
C	 1.4094046781	-0.5129010879	 1.9060667514	-0.120409
C	 0.0737165488	-0.8773344122	 1.2954874556	 0.010417
O	-0.0641554999	-2.2133769061	 0.7835174909	-0.278387
C	-0.0586486871	-2.1201888812	-0.628622146	 0.004942
O	-0.5332872031	-0.8296436604	-0.9743535942	-0.278801
C	 0.0022957405	-0.0248127563	 0.028780259	 0.407971
H	-0.3427134858	 1.9395303007	 1.0053717131	 0.118545
H	-0.4445686321	 1.9450133775	-0.8235788706	 0.129725
H	 1.8120869882	 0.9054065414	-1.0059661429	 0.100945
H	 2.9968070546	 0.8597596554	 1.4305302347	 0.103966
H	 1.7461206022	-0.914127382	 2.8541925888	 0.103698
H	-0.7547330555	-0.7127614569	 1.9948485622	 0.093116
H	 0.9617077295	-2.2640691119	-1.0225037606	 0.090935
H	-0.7395208716	-2.8681040352	-1.0434682529	 0.119445
150.1867	182.4366	297.788	357.7462	416.9398	498.8391	580.6285	615.1947	730.165	748.0909	774.8926	811.1878	855.3882	889.1866	938.8071	964.7058	969.213	986.9926	992.8352	1037.538	1055.4588	1076.9865	1081.9755	1095.9163	1139.1861	1164.6334	1213.1022	1253.2339	1265.1129	1323.1845	1344.3182	1370.4296	1385.1782	1431.5779	1482.4843	1539.9998	1650.7009	2958.4059	3034.4077	3095.1193	3120.4662	3176.1602	3185.5552	3213.9682	3216.2508
C1C2C=CC3OCOC123	C1[C@H]2C=C[C@@H]3OCO[C@]123	
InChI=1S/C7H8O2/c1-2-6-7(3-5(1)7)9-4-8-6/h1-2,5-6H,3-4H2	InChI=1S/C7H8O2/c1-2-6-7(3-5(1)7)9-4-8-6/h1-2,5-6H,3-4H2/t5-,6+,7-/m1/s1
