16
gdb 53740	3.88024	0.73607	0.6525	5.8698	78.33	-0.2455	-0.0349	0.2106	1666.9659	0.122887	-437.862624	-437.853194	-437.85225	-437.898297	33.516	
N	 0.0687483146	 0.9324796716	 0.0797543609	-0.564986
H	-0.5980849962	 0.6240768217	-0.6222266105	 0.236238
H	 0.662727422	 0.1392439349	 0.2960490537	 0.23375
H	-1.5536925764	 5.1627393232	-0.7804113211	 0.310386
C	-0.6266945536	 1.3794654369	 1.2690178902	 0.10067
C	-1.3330432522	 0.3950073776	 2.2105392919	-0.288894
C	-0.0331336114	 1.0241061616	 2.6198844039	-0.282259
C	-1.2266470635	 2.6777710116	 1.1385349729	 0.138579
C	-1.7558106962	 3.7585513918	 1.0341934759	-0.084593
C	-2.3861853944	 5.0546815432	 0.9326858832	 0.333129
O	-3.0764958856	 5.5489905746	 1.7814210796	-0.300157
O	-2.1376762069	 5.7039064233	-0.2332964204	-0.360513
H	-2.2413809047	 0.7193945057	 2.7043393056	 0.139124
H	-1.3240533063	-0.6430215287	 1.8960272717	 0.119363
H	 0.8669957582	 0.4180922043	 2.5998268538	 0.125621
H	-0.0440764876	 1.7846272367	 3.3906878587	 0.144544
33.925	70.128	97.1889	169.7691	194.5739	252.0351	296.777	376.944	469.3236	511.1899	521.8961	570.4962	615.5914	673.31	762.9737	775.7124	807.8735	847.4404	869.2345	951.3967	980.0295	1011.6623	1053.7721	1086.3385	1167.9063	1192.5578	1201.3234	1302.6341	1312.1925	1384.9865	1462.0635	1490.4606	1651.849	1843.0239	2328.0999	3136.557	3141.3979	3225.4044	3239.6203	3493.2721	3581.3145	3787.0598
[NH3+]C1(CC1)C#CC([O-])=O	NC1(CC1)C#CC(=O)O	
InChI=1S/C6H7NO2/c7-6(3-4-6)2-1-5(8)9/h3-4,7H2,(H,8,9)	InChI=1S/C6H7NO2/c7-6(3-4-6)2-1-5(8)9/h3-4,7H2,(H,8,9)
