12
gdb 130889	2.88004	1.56858	1.0155	3.2459	66.52	-0.256	-0.1251	0.1308	1045.1636	0.078619	-468.829668	-468.822514	-468.82157	-468.861952	25.387	
O	-0.0405592436	-0.0190501454	-0.0028768508	-0.230529
C	-0.0039393175	 1.1839596512	 0.0061113798	 0.112533
C	 1.284966981	 1.9642407236	-0.0015917717	 0.106145
N	 2.4202761415	 1.3296447319	-0.0188889306	-0.261108
C	 3.5653473287	 2.0692811413	-0.0252305876	 0.074173
N	 3.637904976	 3.3733776467	-0.0153340935	-0.15691
N	 2.4671834708	 4.0111466818	 0.0022344222	-0.248343
C	 1.1944578948	 3.4359428526	 0.0107349564	 0.397813
O	 0.1830011886	 4.109464613	 0.027999886	-0.364376
H	-0.9116102899	 1.8134790654	 0.0203047504	 0.128275
H	 4.5064251547	 1.5343904996	-0.0395233755	 0.153357
H	 2.5180431748	 5.0236393784	 0.0101449649	 0.288972
85.7587	115.6079	202.8451	254.3819	356.1886	435.5897	517.4136	563.8669	587.2952	620.6426	762.9885	800.2047	823.3759	905.1181	930.0072	1036.0799	1082.7127	1161.2475	1240.512	1263.9616	1399.6949	1410.4394	1426.5108	1529.3426	1614.87	1791.3505	1813.5128	2984.7619	3225.1856	3568.1512
O=CC1=NC=NNC1=O	O=Cc1ncn[nH]c1=O	
InChI=1S/C4H3N3O2/c8-1-3-4(9)7-6-2-5-3/h1-2H,(H,7,9)	InChI=1S/C4H3N3O2/c8-1-3-4(9)7-6-2-5-3/h1-2H,(H,7,9)
