23
gdb 117555	1.89917	1.11334	0.73699	0.7391	92.22	-0.2557	0.0572	0.313	1609.4459	0.203729	-351.114579	-351.104044	-351.1031	-351.150477	38.98	
C	-0.1251549399	 1.5335829163	 0.0148124511	-0.384376
C	-0.0049255486	 0.0066870404	 0.020546567	-0.172781
C	 0.7347684993	-0.5242676573	-1.2116700365	-0.169309
C	 0.8310580215	-2.0689627312	-1.2939720446	-0.222689
C	 1.3899489506	-2.4661208887	-2.5888268011	 0.328157
C	 1.866691748	-2.7708015556	-3.6498685371	-0.449534
C	 1.641850356	-2.6791982409	-0.1529792866	 0.046562
C	 0.9702582037	-3.1258856679	 1.1223116745	-0.272792
C	 1.522213372	-4.1464923317	 0.1588948372	-0.272275
H	 0.8623721717	 2.0082509399	 0.0043137297	 0.114779
H	-0.6687654799	 1.8857663055	-0.8689042481	 0.114561
H	-0.6580299533	 1.8946435489	 0.8999751508	 0.111192
H	 0.5096327455	-0.3173578201	 0.9315171873	 0.108146
H	-1.0082660647	-0.4385972829	 0.0615418755	 0.091408
H	 0.2345159014	-0.1658901082	-2.1191456005	 0.102712
H	 1.7511932498	-0.1109321937	-1.2429414373	 0.101871
H	-0.1902438733	-2.473937004	-1.2302555349	 0.095505
H	 2.2791890647	-3.0505331785	-4.5872862592	 0.189234
H	 2.6355128707	-2.24996948	-0.0529265523	 0.088038
H	 1.4879290129	-2.9648462611	 2.0617087824	 0.111327
H	-0.1079510469	-3.0255510428	 1.1896959423	 0.111961
H	 0.8163196416	-4.7282663363	-0.424878713	 0.115927
H	 2.4194337371	-4.6885922102	 0.4352782434	 0.112376
80.3798	90.3931	99.3325	116.6099	139.7906	241.1519	251.0185	267.1399	319.4543	352.2215	446.2633	508.6408	561.5181	625.7869	629.6611	737.144	768.4883	813.2931	831.6803	897.3694	903.2267	923.0694	943.5561	1009.5877	1029.1008	1054.0487	1061.6964	1079.9445	1093.6367	1124.8819	1138.3324	1197.0669	1198.3143	1226.7367	1252.3642	1286.5231	1304.5811	1333.0935	1338.7073	1388.659	1409.8828	1414.2889	1472.4249	1484.1661	1494.3821	1499.6171	1507.9863	1511.9555	2232.0688	2991.2093	3015.4952	3025.9953	3030.6538	3055.045	3074.2714	3098.5043	3102.4824	3130.1434	3134.5548	3140.421	3207.7071	3223.1459	3505.7907
CCCC(C#C)C1CC1	CCC[C@@H](C#C)C1CC1	
InChI=1S/C9H14/c1-3-5-8(4-2)9-6-7-9/h2,8-9H,3,5-7H2,1H3	InChI=1S/C9H14/c1-3-5-8(4-2)9-6-7-9/h2,8-9H,3,5-7H2,1H3/t8-/m1/s1
