19
gdb 53436	2.94744	1.00711	0.82984	2.4132	79.89	-0.2474	0.038	0.2853	1428.7307	0.158522	-423.001689	-422.991959	-422.991015	-423.038956	34.135	
C	-0.1152680645	 1.4934127691	 0.0120333188	-0.500243
C	-0.0684786454	 0.0374467445	 0.0273660723	 0.063761
C	 0.0072621635	-1.1665932683	 0.0295855063	 0.068175
C	 0.0416256824	-2.6202467934	 0.0567400017	-0.248761
C	 0.6094914567	-3.1960353678	 1.3919801536	-0.088246
O	-0.226732992	-4.2847570485	 1.7437987412	-0.23837
C	-1.5395674269	-3.8934111962	 1.387471728	-0.107928
C	-1.4034379302	-3.2611515255	-0.0111886232	 0.121348
O	-2.4473910978	-2.3890139759	-0.3556762483	-0.431259
H	 0.8944029588	 1.9170555666	-0.0202468778	 0.154707
H	-0.6586729319	 1.8649524026	-0.8633958356	 0.154365
H	-0.611719237	 1.8876635282	 0.9052447792	 0.151462
H	 0.6339721448	-2.9838838367	-0.787798336	 0.110727
H	 1.6319779194	-3.5679715104	 1.2975582461	 0.114545
H	 0.5860282709	-2.4182207731	 2.1693047054	 0.099682
H	-2.1796949109	-4.7778070034	 1.4085719964	 0.113611
H	-1.946615089	-3.1414722012	 2.0851922224	 0.087029
H	-1.3941193705	-4.0533353306	-0.7658454345	 0.095608
H	-2.1886306305	-1.49898505	-0.079925856	 0.279787
12.05	35.4361	90.9071	132.0474	255.1484	272.2766	297.7028	313.0966	375.6073	437.6515	458.4696	550.2507	599.4649	668.7442	737.466	871.8681	956.6766	962.1179	1007.1583	1040.8017	1051.472	1055.051	1080.9055	1123.554	1140.5888	1176.5635	1211.1404	1234.4207	1275.8138	1294.9882	1320.9437	1344.0818	1376.5816	1389.9302	1414.7075	1436.3997	1477.2849	1478.6447	1502.0885	1518.2722	2357.054	2964.0645	2997.4943	3030.1092	3052.0776	3068.3804	3092.1998	3092.8533	3104.8164	3111.5929	3734.0166
CC#CC1COCC1O	CC#C[C@H]1COC[C@H]1O	
InChI=1S/C7H10O2/c1-2-3-6-4-9-5-7(6)8/h6-8H,4-5H2,1H3	InChI=1S/C7H10O2/c1-2-3-6-4-9-5-7(6)8/h6-8H,4-5H2,1H3/t6-,7+/m0/s1
