20
gdb 113007	3.04897	0.95414	0.84147	1.4153	76.93	-0.2337	-0.0319	0.2018	1413.3898	0.168979	-440.262428	-440.252543	-440.251599	-440.298238	35.111	
C	-0.332496702	 1.6437861001	 0.0997957077	-0.33803
N	-0.1824018906	 0.1991819304	 0.1258352786	-0.116521
C	-0.9516832853	-0.5746363066	 1.1322477539	 0.05955
C	-2.1778627659	-1.2684351204	 0.5520914099	-0.076877
O	-3.0470407078	-0.3448955551	-0.0819382255	-0.418383
C	 0.3104776733	-1.4281178715	 1.4109377111	-0.303812
C	 1.0994010667	-0.3389925018	 0.6210988949	-0.03111
C	 2.0309728087	-0.8521574399	-0.4544712828	 0.155947
O	 3.2318310746	-0.8586779886	-0.3753992335	-0.244589
H	 0.3119457532	 2.0732996947	-0.6744597687	 0.126007
H	-1.3695253199	 1.8999631333	-0.1327584316	 0.129079
H	-0.0748419591	 2.1188753636	 1.0636081238	 0.102237
H	-1.2416655397	 0.0435152234	 1.9955235011	 0.071376
H	-1.8527709045	-2.0507708207	-0.1512060698	 0.084853
H	-2.7552568975	-1.7517932368	 1.3479595808	 0.110162
H	-2.5751100151	-0.0230711679	-0.8579740004	 0.290744
H	 0.608462881	-1.5687222339	 2.4486990386	 0.125929
H	 0.2906629563	-2.3977857815	 0.9058979116	 0.114612
H	 1.6512618707	 0.3409710247	 1.2854966183	 0.083653
H	 1.4920444828	-1.2606285954	-1.3409507781	 0.075173
43.8199	62.5272	97.5043	186.218	200.8828	215.3669	263.7571	296.3197	380.3431	417.2549	432.9993	486.2943	509.0759	684.5601	780.6019	869.4485	904.408	928.2563	1010.5208	1021.2732	1046.7797	1071.2309	1096.8764	1121.4561	1151.6677	1163.0219	1198.5299	1213.4228	1236.2897	1261.8596	1273.7883	1298.1371	1317.1514	1365.432	1398.3284	1407.3188	1425.2398	1451.0937	1483.2478	1491.5077	1497.1971	1504.8342	1832.5923	2868.8869	2945.6384	2979.957	2991.5091	3010.1458	3065.4346	3070.2147	3073.0264	3115.4985	3147.8045	3806.6459
CN1C(CO)CC1C=O	CN1[C@@H](CO)C[C@H]1C=O	
InChI=1S/C6H11NO2/c1-7-5(3-8)2-6(7)4-9/h3,5-6,9H,2,4H2,1H3	InChI=1S/C6H11NO2/c1-7-5(3-8)2-6(7)4-9/h3,5-6,9H,2,4H2,1H3/t5-,6+/m0/s1
