15
gdb 101977	1.73197	1.49132	1.221	4.1677	68.42	-0.2524	-0.0607	0.1917	1122.9989	0.106836	-457.720953	-457.710663	-457.709719	-457.757283	34.667	
O	-0.012074537	 1.6615938604	 0.0135562699	-0.4242
C	 0.1083305268	 0.2502353436	 0.0042982753	-0.118444
C	-1.3291341498	-0.3597239272	 0.0125056363	-0.230634
C	-2.0610026735	 0.1736476784	 1.2679642538	 0.151395
O	-2.5313804079	-0.5236506863	 2.1219262843	-0.229641
C	-2.0811958077	 0.1873671451	-1.2250349691	 0.151418
O	-2.5644843673	-0.5005644462	-2.0793845844	-0.229623
C	-1.2384843981	-1.8086014249	 0.0038048263	 0.337227
C	-1.1219888521	-3.0027626882	-0.0036817717	-0.397379
H	 0.8692103727	 2.0463007724	 0.009357985	 0.303288
H	 0.6298211677	-0.1137846955	-0.891380953	 0.125664
H	 0.6443906178	-0.1241182116	 0.8870307271	 0.125662
H	-2.1022032908	 1.2787719717	 1.3163053518	 0.116642
H	-2.1238601393	 1.2929214923	-1.2601445969	 0.11663
H	-1.0410106316	-4.0618742438	-0.0100785246	 0.201995
41.8714	55.5248	125.2535	139.0395	139.5828	195.3833	227.7584	284.3752	291.4301	378.4001	404.142	479.1334	575.7424	652.0956	663.9918	730.0888	733.1104	848.2293	943.5112	954.8225	1072.9027	1103.304	1132.2308	1189.3513	1257.1551	1277.9239	1397.3619	1428.7102	1442.2041	1525.6436	1817.5908	1853.4207	2251.4704	2944.8699	2958.3561	2999.0425	3040.9017	3501.8166	3837.66
OCC(C=O)(C=O)C#C	OCC(C=O)(C=O)C#C	
InChI=1S/C6H6O3/c1-2-6(3-7,4-8)5-9/h1,3-4,9H,5H2	InChI=1S/C6H6O3/c1-2-6(3-7,4-8)5-9/h1,3-4,9H,5H2
