19
gdb 118385	3.09465	0.78788	0.66016	1.1824	83.2	-0.2573	0.0449	0.3022	1673.6621	0.155266	-385.815411	-385.804667	-385.803723	-385.851763	38.285	
O	-0.1319568158	 1.4874407345	 0.0883045911	-0.421362
C	 0.0228910139	 0.0816248718	-0.0376356361	-0.090966
C	-1.3695869146	-0.5337624234	 0.0138901665	-0.171857
C	-1.3663066848	-2.0759371376	-0.0427091841	-0.173315
C	-2.8134200183	-2.6213550618	 0.1330415386	-0.367951
C	-2.8806013571	-4.0701213722	 0.2628983513	 0.30406
C	-2.921486912	-5.2645957495	 0.3864881669	-0.433233
C	-0.7658446509	-2.5733904016	-1.2791488944	 0.361267
C	-0.2897500942	-2.9633785941	-2.3118238771	-0.486561
H	 0.7329156971	 1.8944592341	-0.0148523923	 0.287105
H	 0.5132353071	-0.1879770184	-0.9836957601	 0.104665
H	 0.639276727	-0.3265970327	 0.7809946297	 0.083891
H	-1.8547534627	-0.2151287453	 0.9436198552	 0.107684
H	-1.9645915794	-0.1341528805	-0.8148958349	 0.115189
H	-0.7742181724	-2.4521618309	 0.8024968334	 0.116753
H	-3.2476199456	-2.153011696	 1.0249394085	 0.131578
H	-3.4192160619	-2.2933194637	-0.7201200488	 0.139688
H	-2.9630667091	-6.3207950966	 0.4857660388	 0.195091
H	 0.1358389937	-3.3227521061	-3.2158955523	 0.198273
57.8445	87.0797	96.4473	110.8717	159.7433	216.6277	234.165	254.2222	339.2561	345.9283	389.6091	461.5378	537.4573	618.621	626.6766	632.1816	639.9581	645.6002	783.3273	831.0868	939.1385	953.3349	1020.1127	1049.7724	1072.3713	1095.068	1109.5044	1207.39	1225.8928	1243.9091	1292.402	1314.0504	1345.9741	1352.5991	1370.7043	1464.9251	1468.7502	1491.0744	1529.8705	2234.3258	2242.1401	2961.627	3016.1052	3018.462	3027.5344	3040.2706	3065.5786	3088.1685	3504.1054	3507.6801	3832.8992
OCCC(CC#C)C#C	OCC[C@@H](CC#C)C#C	
InChI=1S/C8H10O/c1-3-5-8(4-2)6-7-9/h1-2,8-9H,5-7H2	InChI=1S/C8H10O/c1-3-5-8(4-2)6-7-9/h1-2,8-9H,5-7H2/t8-/m1/s1
