21
gdb 110512	2.57636	1.52691	1.23378	1.0815	82.6	-0.238	0.0927	0.3307	1128.1662	0.182062	-387.03805	-387.029428	-387.028484	-387.071184	33.337	
C	-0.3222251873	 1.2255337124	 0.0601618254	-0.23862
O	 0.3163398891	-0.0135550039	-0.1419171899	-0.253838
C	 0.7849805881	-0.603100289	 1.0438725994	 0.141938
C	-0.1676632312	-1.2642468083	 2.0374162442	-0.119556
C	-0.4209607725	-2.6899689959	 1.5399955557	-0.065745
C	 0.3285109795	-2.8511955316	 0.2194139424	-0.263454
C	 1.4531649918	-1.9891920619	 0.86724889	 0.263294
C	 2.8866222009	-2.1029900333	 0.4212420324	-0.512919
C	 0.8464291554	-2.3628989579	 2.2876899228	-0.140228
H	 0.3502183012	 1.9577349496	 0.5355198071	 0.100654
H	-0.6184458121	 1.6061487595	-0.9204856626	 0.124585
H	-1.2213925586	 1.1281669798	 0.6870186652	 0.106705
H	 1.4615248981	 0.087051228	 1.5741654707	 0.055953
H	-0.8132266535	-0.7964828794	 2.7693127589	 0.081071
H	-1.2726195181	-3.2529458865	 1.9000753373	 0.082565
H	 0.66410119	-3.88317304	 0.0785863035	 0.089228
H	-0.1244887209	-2.4688212539	-0.6998364726	 0.103202
H	 2.9964311708	-1.7392218433	-0.6068097627	 0.128979
H	 3.5528600653	-1.5107555602	 1.0583673388	 0.113273
H	 3.2320535299	-3.1420682362	 0.4477339248	 0.114942
H	 1.278260774	-2.7324301582	 3.2057861792	 0.087972
73.7501	164.5653	174.2715	213.3492	225.4316	271.4253	312.8171	380.0704	516.1527	570.736	617.878	738.7804	765.1979	795.8669	820.5915	833.3301	929.6272	932.2978	944.2786	981.8935	999.5642	1006.4365	1030.871	1041.1621	1074.8619	1133.1119	1136.0697	1153.5569	1168.7226	1183.5999	1185.4906	1222.4777	1234.8118	1251.6057	1309.7494	1334.4835	1369.3598	1396.1258	1413.6299	1480.9052	1487.5807	1489.5949	1492.3107	1494.5803	1509.4895	2966.95	2975.4536	3019.1572	3024.4804	3047.6611	3090.898	3093.0682	3104.3632	3111.1191	3191.4975	3199.6033	3229.1846
COC1C2C3CC1(C)C23	CO[C@H]1[C@H]2[C@H]3C[C@]1(C)[C@@H]23	
InChI=1S/C8H12O/c1-8-3-4-5(6(4)8)7(8)9-2/h4-7H,3H2,1-2H3	InChI=1S/C8H12O/c1-8-3-4-5(6(4)8)7(8)9-2/h4-7H,3H2,1-2H3/t4-,5+,6-,7+,8-/m1/s1
