16
gdb 124208	4.96092	0.96414	0.81134	5.5331	73.82	-0.2153	-0.0038	0.2116	1353.6269	0.124918	-434.065911	-434.057477	-434.056533	-434.099802	30.435	
C	-0.0060944299	 1.5160705758	-0.1156812336	-0.493531
C	-0.0094439362	 0.0222857791	 0.1342285704	 0.361057
N	-0.0423252779	-0.5651963145	 1.2698056292	-0.512405
N	 0.0279767362	-0.7220954735	-1.0257568777	-0.43105
C	 0.0348577931	-2.110349683	-1.1052769559	 0.208928
C	 0.0074115444	-3.0666805576	-0.1315310437	 0.025844
O	 0.0291814727	-4.2887131733	-0.7026654457	-0.169847
N	 0.0717741543	-4.1605383532	-2.0768791481	-0.127684
C	 0.0749695737	-2.8713381802	-2.3086038324	-0.056858
H	 0.8944488748	 1.8209530895	-0.6604479722	 0.142248
H	-0.8735512321	 1.8158693019	-0.7143065016	 0.142244
H	-0.0364647557	 2.0601915136	 0.8290235207	 0.139558
H	-0.067022008	 0.1187870461	 2.0217822119	 0.216269
H	 0.0529412402	-0.2231489813	-1.8980661734	 0.253143
H	-0.0262290285	-3.0149468773	 0.9401106157	 0.180206
H	 0.1058472588	-2.5162076421	-3.3298209335	 0.121878
68.0117	78.4771	106.9967	174.2287	339.8387	353.4093	354.9497	366.8894	566.1732	573.7501	612.6569	667.7433	783.8609	819.4251	835.2485	880.6772	924.6526	936.5086	945.6881	1003.7432	1052.5124	1060.9599	1128.736	1143.1976	1217.8009	1277.3292	1326.2724	1389.1965	1412.1332	1479.284	1480.1979	1485.4985	1582.1241	1671.0576	1710.0333	3035.511	3094.3973	3143.3656	3232.5274	3334.4725	3517.2988	3665.8275
CC(=N)NC1=CON=C1	CC(=N)Nc1conc1	
InChI=1S/C5H7N3O/c1-4(6)8-5-2-7-9-3-5/h2-3H,1H3,(H2,6,8)	InChI=1S/C5H7N3O/c1-4(6)8-5-2-7-9-3-5/h2-3H,1H3,(H2,6,8)
