17
gdb 35384	4.00226	1.36419	1.22274	4.8129	76.36	-0.2568	0.0246	0.2814	1028.5573	0.138754	-380.824708	-380.817995	-380.817051	-380.855938	26.911	
N	-0.0536294265	-1.161159591	-0.0675986286	-0.32615
C	-0.025059703	-0.0063876044	-0.0356442169	 0.290158
C	-0.005179606	 1.4547810578	 0.0345696899	-0.120197
C	-0.5569435853	 2.0232039368	 1.3852587007	-0.284858
C	 0.6953338714	 2.7801107693	 1.8004600718	-0.005221
C	 1.3307366374	 3.3963458905	 0.5154179912	-0.027281
C	 2.7420178103	 3.1886060452	 1.0924228206	-0.23346
C	 1.9344060305	 1.9163055415	 1.405824653	-0.027574
N	 1.3928869517	 1.9663908874	-0.0275627205	-0.126161
H	-0.5540774153	 1.845811642	-0.8279631361	 0.127842
H	-1.4229403465	 2.6731140151	 1.2339343558	 0.115482
H	-0.8361727931	 1.2372906316	 2.0909645612	 0.129835
H	 0.6828311247	 3.3387763465	 2.7382882465	 0.078755
H	 0.9504043701	 4.2136497424	-0.1010319443	 0.086085
H	 3.5464469626	 3.0786007302	 0.3649572642	 0.117874
H	 3.0220601478	 3.8140328844	 1.9409054039	 0.103493
H	 2.2702460995	 0.9757182048	 1.8446437475	 0.101377
99.7359	163.0077	298.3166	366.3533	427.1096	496.7145	558.7036	697.3103	713.5864	782.7505	810.2193	831.178	839.0559	895.481	924.7224	954.0727	987.6176	1000.0768	1020.2834	1040.5381	1051.7538	1065.5333	1103.7481	1123.235	1138.3184	1177.4418	1206.0553	1232.5614	1238.3218	1253.0038	1277.4335	1295.0895	1333.199	1350.7641	1497.9163	1499.9009	2360.8961	3062.0069	3067.869	3082.1238	3093.4151	3101.9475	3114.1566	3115.2733	3157.3479
N#CC1CC2C3CC2N13	N#C[C@H]1C[C@@H]2[C@H]3C[C@@H]2N13	
InChI=1S/C7H8N2/c8-3-4-1-5-6-2-7(5)9(4)6/h4-7H,1-2H2	InChI=1S/C7H8N2/c8-3-4-1-5-6-2-7(5)9(4)6/h4-7H,1-2H2/t4-,5-,6-,7+/m1/s1
