17
gdb 88707	3.52573	0.98014	0.84154	3.0195	74.39	-0.2656	-0.0042	0.2614	1362.7453	0.135166	-417.96726	-417.958416	-417.957472	-418.001761	31.756	
C	-0.108761225	 1.5549954487	-0.0922674773	-0.39812
C	 0.0169475978	 0.0565863962	 0.0420417101	 0.005833
N	 1.3305865158	-0.5445464571	-0.2210869188	-0.342104
C	 0.76032943	-0.6395433434	 1.1336770942	-0.077692
C	 1.5153773525	 0.0912266537	 2.1909989567	 0.089455
O	 0.8887067746	 0.2217180266	 3.4685832021	-0.235125
C	 2.0627778611	-0.5871951726	 3.3901708515	-0.11463
C	 1.8839353164	-2.0092329681	 3.5921029611	 0.313427
N	 1.7610027693	-3.1476038704	 3.750785055	-0.33445
H	 0.8013020307	 2.0656936369	 0.2300747635	 0.126262
H	-0.287132039	 1.8273271417	-1.1376244756	 0.126527
H	-0.9479971509	 1.9286758722	 0.5033290941	 0.128481
H	-0.8514749504	-0.495153121	-0.3168168847	 0.094552
H	 1.2471248457	-1.4339969066	-0.7043350299	 0.24289
H	 0.3571812945	-1.5956665448	 1.4596871205	 0.113455
H	 2.0576477066	 0.9743322792	 1.8575974032	 0.118935
H	 2.9461938702	-0.1752863512	 3.8745022843	 0.142303
39.3246	98.1517	142.4118	183.9994	217.0651	258.3384	335.7732	396.8927	432.1004	530.0538	583.5578	622.964	772.4627	804.8349	861.3803	869.6562	933.4651	968.2586	986.537	1012.5413	1038.6556	1070.7235	1108.496	1138.9645	1156.7769	1224.0024	1251.5726	1267.692	1280.8239	1332.3384	1394.9653	1412.1736	1445.0514	1483.2141	1493.0842	1511.7782	2359.344	3041.5007	3103.5941	3107.0288	3127.082	3132.273	3136.7234	3144.7376	3518.8612
CC1NC1C1OC1C#N	C[C@H]1N[C@H]1[C@H]1O[C@H]1C#N	
InChI=1S/C6H8N2O/c1-3-5(8-3)6-4(2-7)9-6/h3-6,8H,1H3	InChI=1S/C6H8N2O/c1-3-5(8-3)6-4(2-7)9-6/h3-6,8H,1H3/t3-,4+,5-,6+/m1/s1
