17
gdb 15388	2.93844	1.52921	1.11892	4.1159	69.98	-0.2609	0.0293	0.2901	1087.0421	0.141103	-363.858013	-363.849493	-363.848549	-363.891659	30.233	
C	-0.3064213307	 1.4608920953	 0.008429504	-0.388105
C	-0.3755796903	-0.0123643351	-0.3470176656	-0.048839
O	-1.261303503	-0.6492662093	 0.5764423418	-0.236528
C	-1.4150288611	-1.9991306539	 0.3601980043	 0.141335
C	-2.6626573038	-2.6171619447	 0.8754076267	-0.319383
C	-2.4777045973	-2.4877139729	-0.6375189546	-0.219344
C	-3.2541375264	-1.5243482802	-1.359869225	 0.297922
N	-3.869180948	-0.748316343	-1.959190943	-0.344711
H	 0.3751093536	 1.9807627874	-0.6710572686	 0.120166
H	-1.2955131788	 1.9190670901	-0.0740854761	 0.141246
H	 0.0537207569	 1.5943601265	 1.0324095927	 0.127478
H	-0.7465572726	-0.1523319127	-1.3712772699	 0.114895
H	 0.6188438973	-0.4813570389	-0.2813365362	 0.091884
H	-0.4945091907	-2.5851090834	 0.3771370315	 0.100347
H	-2.6277036067	-3.6154046245	 1.2947787512	 0.13282
H	-3.3778064067	-1.9425882707	 1.3303953959	 0.154838
H	-2.2585191316	-3.3944575398	-1.191215439	 0.13398
55.0313	99.7715	152.6994	167.4584	234.9241	251.8507	352.0072	428.6484	446.7414	561.2229	672.8222	770.4136	777.6511	822.5817	835.7795	910.5784	985.8557	1030.198	1066.1323	1082.2287	1118.7223	1128.6099	1142.7957	1185.75	1191.2122	1250.5247	1298.9551	1366.5483	1381.8933	1407.7066	1441.4863	1482.5139	1483.8088	1499.8338	1524.8515	2350.6326	2981.7457	3034.5688	3048.3848	3090.9393	3122.7498	3128.5728	3151.8538	3170.029	3247.7638
CCOC1CC1C#N	CCO[C@H]1C[C@H]1C#N	
InChI=1S/C6H9NO/c1-2-8-6-3-5(6)4-7/h5-6H,2-3H2,1H3	InChI=1S/C6H9NO/c1-2-8-6-3-5(6)4-7/h5-6H,2-3H2,1H3/t5-,6-/m0/s1
