19
gdb 126505	3.08192	0.99561	0.79646	4.2126	79.19	-0.2539	-0.0286	0.2253	1471.0137	0.157764	-419.209235	-419.199694	-419.19875	-419.244974	33.451	
C	 0.1485598118	 1.6488774691	 0.1943948531	-0.385017
C	 0.1093552563	 0.1198022072	 0.1790979563	-0.16242
C	 0.5096846031	-0.4617697115	-1.1918581026	-0.305488
C	 0.4963659854	-1.9509471637	-1.2254189377	 0.34139
C	-0.2545899062	-2.8776918005	-1.8889483921	 0.153995
C	-1.367727418	-2.7323673352	-2.8702602564	-0.496129
N	 0.2094531323	-4.113380957	-1.4836163011	-0.16533
N	 1.1470881375	-3.9977298106	-0.6558794755	-0.021238
O	 1.3742417602	-2.6017538907	-0.45218094	-0.222111
H	 1.1532980244	 2.0221548976	-0.0319434677	 0.120436
H	-0.5377139534	 2.0728813316	-0.5471221462	 0.116722
H	-0.138712904	 2.0392300902	 1.1750050901	 0.121279
H	 0.7832715991	-0.2824879946	 0.9429628286	 0.123875
H	-0.8962694399	-0.2331284772	 0.4362355401	 0.107453
H	-0.1672077476	-0.0889177952	-1.9677754107	 0.117657
H	 1.5150842131	-0.1088322839	-1.4542390327	 0.13075
H	-1.1280934267	-3.232571843	-3.8138381897	 0.147743
H	-2.29192372	-3.1786386156	-2.4891254522	 0.14672
H	-1.5643047975	-1.6792074273	-3.0849429636	 0.129714
41.3575	79.1904	80.2969	116.795	237.0783	252.4043	257.3211	314.5065	348.7688	428.1535	652.2806	667.3742	685.6479	709.3823	749.8978	788.1905	875.9224	899.8315	988.1736	1023.903	1045.0171	1068.1786	1083.9613	1111.0056	1196.2988	1222.6816	1274.7537	1310.4677	1329.9441	1378.5844	1390.7604	1414.0141	1421.409	1466.2086	1476.0742	1477.9277	1492.6152	1494.2085	1499.2896	1509.4553	1655.5735	3028.5774	3031.721	3042.2001	3042.9026	3066.7845	3085.0375	3099.5811	3104.0189	3109.5412	3125.1225
CCCC1=C(C)N=NO1	CCCc1c(C)nno1	
InChI=1S/C6H10N2O/c1-3-4-6-5(2)7-8-9-6/h3-4H2,1-2H3	InChI=1S/C6H10N2O/c1-3-4-6-5(2)7-8-9-6/h3-4H2,1-2H3
