21
gdb 86310	2.13803	1.5268	1.16077	0.3326	77.93	-0.2487	0.0632	0.3119	1171.8807	0.181103	-424.193613	-424.184372	-424.183428	-424.228048	34.211	
C	-0.2788742961	 1.2787814299	-1.3430636497	-0.409142
C	 0.2814245536	-0.0592174195	-0.9046745188	 0.105257
O	 1.6771658139	-0.2127773304	-1.2537909859	-0.31998
C	 2.0293715684	-0.5855062013	 0.0991985331	 0.105257
C	 3.179646764	 0.2374567762	 0.6432205174	-0.409142
C	 0.5890804706	-0.3137141661	 0.587870066	 0.185427
C	 0.2431633142	 0.6825607551	 1.7124845751	-0.135019
O	-0.4816971843	-0.3246169584	 2.4465739317	-0.274541
C	-0.2027588961	-1.3177403313	 1.4402506192	-0.139116
H	 0.2833583644	 2.1072368912	-0.9018481187	 0.120016
H	-0.2148541758	 1.366871398	-2.4320486188	 0.130636
H	-1.3314661295	 1.3744062395	-1.0551806232	 0.1203
H	-0.3151182783	-0.8755938961	-1.3410982023	 0.071218
H	 2.2795565783	-1.6568233673	 0.1490634204	 0.071218
H	 2.9447056925	 1.3059331276	 0.6266032335	 0.120016
H	 3.4168111421	-0.055249398	 1.6718344278	 0.1203
H	 4.0714433792	 0.0763105615	 0.0296430657	 0.130636
H	 1.0957197033	 1.0716412049	 2.2828809303	 0.102885
H	-0.4009269877	 1.5222763729	 1.4233253004	 0.102885
H	-1.119857775	-1.708232927	 0.9781125226	 0.100444
H	 0.3795376283	-2.1596780914	 1.8392472343	 0.100444
53.184	74.7651	190.264	209.4225	229.5025	235.1416	256.5513	345.6941	420.7937	468.2614	496.4842	505.3571	743.6758	806.0936	854.0542	876.3613	911.378	948.801	968.617	990.9171	1033.9833	1042.5152	1077.4176	1108.4724	1118.2884	1121.1205	1153.5846	1161.8139	1180.4504	1222.2071	1253.6878	1274.9785	1306.7444	1341.3932	1361.2373	1384.6226	1398.0746	1399.3613	1417.8485	1478.4628	1483.3834	1491.6693	1495.8482	1506.3196	1531.8826	2972.7807	2979.3992	2994.6025	3014.5971	3033.9095	3035.2434	3037.587	3053.803	3106.9639	3107.539	3113.0889	3114.867
CC1OC(C)C11COC1	C[C@H]1O[C@@H](C)C21COC2	
InChI=1S/C7H12O2/c1-5-7(3-8-4-7)6(2)9-5/h5-6H,3-4H2,1-2H3	InChI=1S/C7H12O2/c1-5-7(3-8-4-7)6(2)9-5/h5-6H,3-4H2,1-2H3/t5-,6+
