16
gdb 43743	4.61554	1.00453	0.94878	2.6251	76.12	-0.2618	0.018	0.2798	1240.3808	0.122832	-400.686191	-400.678008	-400.677064	-400.71929	31.068	
N	-1.2510691491	 0.8077176294	-0.3957504404	-0.554487
C	-0.5185505052	-0.171600595	-0.1281131581	 0.444907
O	 0.8616486504	-0.3384770395	-0.3012306103	-0.309158
C	 0.7375068537	-1.7382700683	 0.0865761965	 0.457772
C	 1.517674368	-2.7218021968	-0.7411169708	-0.465698
C	 1.2116141473	-4.1067818536	-0.4054686927	 0.292312
C	 0.945015338	-5.2423564987	-0.1183985669	-0.434326
C	 0.2993440586	-1.8072153929	 1.5015758427	-0.329921
C	-0.7328652662	-1.5533305425	 0.3893015691	-0.245223
H	-0.7073991495	 1.5817410508	-0.7810224864	 0.230937
H	 1.3071289007	-2.5325938664	-1.8010986808	 0.15181
H	 2.5900852936	-2.5300528338	-0.5993582934	 0.151524
H	 0.7186419312	-6.2514209206	 0.1236834681	 0.205424
H	 0.2389637303	-2.8039102442	 1.9263154948	 0.142322
H	 0.5669682282	-1.0128321418	 2.1908024974	 0.131459
H	-1.5887212102	-2.1896662561	 0.2220915213	 0.130345
57.192	116.1852	152.0917	283.381	332.5582	344.7601	409.3906	440.3567	509.9765	631.1666	641.8281	658.9947	687.2348	737.2689	824.8484	863.8531	891.0959	917.5656	962.2569	972.4217	988.2403	995.4436	1030.4151	1070.8349	1089.7194	1127.0532	1211.4585	1238.0535	1282.3231	1354.3177	1403.4148	1471.5428	1491.8154	1835.0241	2245.1425	3017.9877	3053.7613	3129.3402	3225.1546	3237.9218	3480.0052	3503.6355
N=C1OC2(CC#C)CC12	[NH][C]1O[C@@]2(CC#C)C[C@@H]12	
InChI=1S/C7H7NO/c1-2-3-7-4-5(7)6(8)9-7/h1,5,8H,3-4H2	InChI=1S/C7H7NO/c1-2-3-7-4-5(7)6(8)9-7/h1,5,8H,3-4H2/t5-,7-/m0/s1
