22
gdb 110303	2.26605	1.39305	1.28416	1.7185	82.49	-0.2234	0.0717	0.2951	1173.2159	0.193124	-404.290178	-404.280486	-404.279541	-404.324329	36.137	
C	 0.1500144697	 1.1135981276	 0.0164023237	-0.244039
O	 0.0717180714	-0.2554776548	-0.3221691292	-0.239085
C	-1.1858734582	-0.8300893794	-0.0568279966	 0.097867
C	-1.3927433223	-2.2241655728	-0.6272292088	-0.102099
C	-0.5440763593	-3.2610838891	-0.0048712557	 0.03243
C	 0.9184508817	-3.1481456195	 0.3748611172	-0.435254
N	-1.731679259	-2.810564637	 0.7528328352	-0.172151
C	-1.5128425038	-1.4395815014	 1.3491540256	 0.035232
C	-0.5873722029	-1.3035791748	 2.5477784575	-0.415156
H	 1.1458690404	 1.4609933955	-0.2685448553	 0.129262
H	-0.6026376989	 1.7047463754	-0.5278849603	 0.107905
H	 0.0106424151	 1.285620223	 1.093160622	 0.111052
H	-1.977296305	-0.1381217499	-0.3769852968	 0.07357
H	-2.0107016214	-2.4272191474	-1.4965663219	 0.090353
H	-0.7796240036	-4.2523787314	-0.3929353428	 0.095837
H	 1.2455264767	-2.1184547053	 0.5003159478	 0.150523
H	 1.1279385829	-3.7153736397	 1.2882128324	 0.117162
H	 1.5191829301	-3.5878930388	-0.4290932899	 0.116236
H	-2.5106121075	-1.1023538543	 1.6481967209	 0.08294
H	 0.4687707934	-1.3850679511	 2.2918672821	 0.127084
H	-0.7424991281	-0.335890969	 3.0369988821	 0.112873
H	-0.8228046312	-2.0848618958	 3.2786323709	 0.127458
107.3119	117.7372	156.6055	162.3762	202.778	224.7828	269.0076	280.9552	313.1516	377.8971	482.4354	547.084	644.7941	684.4474	740.413	778.5775	809.8426	896.2481	925.0494	964.7904	1010.0185	1027.4918	1075.5181	1095.3178	1105.2882	1125.7711	1136.9588	1163.6314	1179.8959	1186.1893	1230.3575	1258.9563	1277.7254	1306.2871	1365.5251	1383.5156	1400.0056	1403.3155	1412.8204	1448.0368	1480.5946	1483.75	1488.773	1491.9668	1503.8055	1510.9372	1512.8086	2980.5074	3000.1465	3032.9876	3036.8383	3038.0135	3048.6092	3089.9095	3096.1651	3102.6362	3117.1778	3149.0485	3155.2641	3172.6829
COC1C2C(C)N2C1C	CO[C@H]1[C@H]2[C@@H](C)N2[C@H]1C	
InChI=1S/C7H13NO/c1-4-6-7(9-3)5(2)8(4)6/h4-7H,1-3H3	InChI=1S/C7H13NO/c1-4-6-7(9-3)5(2)8(4)6/h4-7H,1-3H3/t4-,5+,6-,7-,8?/m1/s1
