23
gdb 64414	2.33242	1.6449	1.30356	1.2456	84.68	-0.2415	0.0803	0.3218	1119.7671	0.206547	-388.294709	-388.285859	-388.284915	-388.327563	35.66	
C	-0.0200109605	 1.5277857758	-0.0233402953	-0.406882
C	-0.0000115767	-0.0019709726	 0.0248700707	 0.340329
C	-1.4441405416	-0.5380964338	 0.0420982061	-0.424478
O	 0.6738599893	-0.3910641302	-1.1837755184	-0.28977
C	 0.9505800823	-1.7776274296	-1.2964828915	-0.076208
C	 2.0101012485	-2.2348657369	-0.2888474968	-0.230312
C	 1.7515848724	-1.6497477641	 1.0977912021	-0.041379
C	 2.2358951439	-0.2524141165	 1.4011689313	-0.304336
C	 0.761930552	-0.5090373781	 1.2473965775	-0.017538
H	 0.9970201738	 1.9203086509	-0.0936330283	 0.119364
H	-0.5828626271	 1.87212154	-0.8961512573	 0.114951
H	-0.4884725204	 1.9358155718	 0.8774474347	 0.107294
H	-1.9520862569	-0.27411218	-0.889955196	 0.118163
H	-1.4836521237	-1.6239793098	 0.1643226185	 0.114641
H	-1.9999840186	-0.0958336988	 0.8747172648	 0.11226
H	 0.0323877641	-2.3685109147	-1.1699742256	 0.086913
H	 1.2958448478	-1.9295289919	-2.323703893	 0.101126
H	 2.0061349701	-3.3295425809	-0.2439122205	 0.095189
H	 3.004480608	-1.9388402105	-0.6420223635	 0.103807
H	 1.7916136055	-2.3588612673	 1.9184247592	 0.081067
H	 2.6232157498	-0.0319122741	 2.3899156282	 0.10339
H	 2.7382344268	 0.2697200203	 0.5925786859	 0.116896
H	 0.1735725513	-0.4979561989	 2.1606307073	 0.075511
82.0073	193.4268	203.5997	245.0163	289.9403	320.1242	330.974	376.9913	393.1866	476.0246	489.9055	529.1002	662.5105	707.87	778.2046	824.6215	851.1128	868.9308	909.4175	930.1074	946.1279	965.7294	1011.7165	1038.8491	1061.6495	1074.058	1086.3003	1117.5893	1134.5818	1150.8925	1195.6923	1210.0995	1228.4061	1252.6364	1263.6867	1298.9458	1361.2271	1372.9022	1390.8243	1402.3647	1412.689	1415.6196	1474.481	1478.0077	1483.7954	1491.0045	1495.872	1503.5951	1515.4519	3000.9925	3031.6354	3039.7452	3044.171	3068.803	3080.9777	3108.4016	3113.8924	3119.4521	3125.1476	3127.1066	3140.0687	3152.858	3212.4153
CC1(C)OCCC2CC12	CC1(C)OCC[C@H]2C[C@@H]12	
InChI=1S/C8H14O/c1-8(2)7-5-6(7)3-4-9-8/h6-7H,3-5H2,1-2H3	InChI=1S/C8H14O/c1-8(2)7-5-6(7)3-4-9-8/h6-7H,3-5H2,1-2H3/t6-,7+/m0/s1
