19
gdb 94115	4.75464	0.82038	0.75343	3.884	73.21	-0.2496	-0.0205	0.2291	1519.3971	0.157206	-460.17822	-460.168787	-460.167842	-460.214128	32.808	
C	-0.297084094	 1.5844762767	 0.1087627408	-0.414808
C	 0.2333766359	 0.1669843301	 0.0246105504	 0.114956
C	 1.0861980055	-0.1555130085	-1.2190994627	-0.095991
O	 2.1103836698	-1.0186148008	-0.733834299	-0.271242
C	 1.9364702588	-1.1550622499	 0.6683816639	 0.215603
C	 3.2857958151	-1.1403968427	 1.3687403409	-0.307064
C	 4.1553070396	-2.3110411051	 0.9623223599	 0.17248
O	 5.3338576897	-2.2378021864	 0.7353266315	-0.238267
O	 1.1541155836	-0.0707772311	 1.089952896	-0.26533
H	 0.5264586909	 2.3026734306	 0.0579393457	 0.131572
H	-0.9863920717	 1.7817467265	-0.7181282147	 0.124142
H	-0.8363960728	 1.7392840897	 1.0468746511	 0.133902
H	-0.5962048998	-0.554819128	 0.0985909923	 0.076662
H	 0.5083395934	-0.6558843712	-2.0041815252	 0.108508
H	 1.5436377957	 0.7494753527	-1.638907619	 0.106334
H	 1.4032508827	-2.1051882995	 0.8697637533	 0.064214
H	 3.8090879714	-0.2032594654	 1.1682166734	 0.134682
H	 3.1032543248	-1.2186719448	 2.4494729454	 0.134971
H	 3.6208714013	-3.2881142829	 0.9072180559	 0.074676
46.0016	58.7151	72.9429	108.882	196.602	231.8907	283.6659	379.6018	411.8148	472.94	565.954	634.6847	708.913	769.3736	867.1001	900.3213	918.1599	954.0607	1013.2331	1049.411	1086.8214	1111.1016	1113.3616	1146.7622	1162.274	1183.8696	1211.8353	1229.2377	1275.4815	1333.7129	1363.6783	1379.1971	1405.974	1413.143	1435.3673	1440.0396	1450.5722	1485.6014	1498.7293	1527.2354	1841.3838	2858.1731	2906.1868	2970.4293	3018.8768	3032.224	3044.6355	3066.0577	3118.177	3125.3577	3125.6036
CC1COC(CC=O)O1	C[C@H]1CO[C@@H](CC=O)O1	
InChI=1S/C6H10O3/c1-5-4-8-6(9-5)2-3-7/h3,5-6H,2,4H2,1H3	InChI=1S/C6H10O3/c1-5-4-8-6(9-5)2-3-7/h3,5-6H,2,4H2,1H3/t5-,6+/m0/s1
