17
gdb 51119	3.74244	1.07831	0.97117	3.2458	72.93	-0.2095	-0.029	0.1805	1218.8647	0.134631	-417.896003	-417.888004	-417.887059	-417.929583	30.134	
O	-0.6095642077	 0.5759342095	 0.5813323779	-0.235139
C	 0.1688381979	 0.928676024	-0.2653595507	 0.164674
C	 1.2699505884	 1.9556644644	-0.0436877197	-0.411253
C	 1.2584225569	 3.027357251	-1.093037062	 0.339676
N	 1.7754031892	 2.8346302025	-2.4721476949	-0.344308
C	 2.3159840691	 3.9219814698	-1.6178182212	-0.138303
C	 1.3104263992	 5.1178651089	-1.6286247714	-0.053772
N	 0.1612601141	 4.7669166225	-2.496415111	-0.305299
C	 0.244116345	 4.2296975955	-1.1189387763	-0.113019
H	 0.1292969435	 0.5145262279	-1.2976794104	 0.092962
H	 1.1537429775	 2.3703368863	 0.9632764306	 0.126957
H	 2.2323105341	 1.4239151556	-0.0810713357	 0.119787
H	 2.4560439636	 2.0743734674	-2.4228104121	 0.224019
H	 3.3677739995	 3.9800371169	-1.3682391705	 0.098544
H	 1.5495437775	 6.1419630405	-1.3755042454	 0.099258
H	-0.4808577194	 5.559564832	-2.4551729672	 0.231541
H	-0.5275775484	 4.4069670354	-0.38094085	 0.103676
45.6841	76.657	139.1765	288.0224	305.3671	408.0333	430.206	476.001	603.0676	661.5576	740.2785	790.9891	803.367	824.4497	831.9825	870.1075	907.6201	914.214	948.601	978.3571	1011.5893	1050.3343	1074.7409	1086.3943	1105.4036	1145.4334	1185.3758	1230.6254	1250.7806	1271.1637	1318.7636	1336.6788	1360.4024	1424.5833	1429.3563	1448.0936	1834.9719	2886.595	3007.8061	3081.0888	3192.8785	3197.4613	3210.3535	3449.5573	3461.8157
O=CCC12NC1C1NC21	O=CC[C@]12N[C@H]1[C@H]1N[C@@H]21	
InChI=1S/C6H8N2O/c9-2-1-6-4-3(7-4)5(6)8-6/h2-5,7-8H,1H2	InChI=1S/C6H8N2O/c9-2-1-6-4-3(7-4)5(6)8-6/h2-5,7-8H,1H2/t3-,4+,5-,6+/m0/s1
