16
gdb 52343	11.09611	0.43868	0.43428	1.7235	72.58	-0.2513	-0.0479	0.2034	2345.2128	0.119051	-475.018436	-475.008234	-475.007289	-475.056834	32.683	
O	-0.1897380009	 0.397298085	 0.8919439481	-0.224419
C	 0.0576174759	 1.2487911016	 0.0829501618	 0.140573
C	 1.4766509988	 1.7015669336	-0.2332886341	-0.166709
O	 1.4423153967	 2.5292442184	-1.3841589231	-0.201368
C	 2.30496059	 3.5643634814	-1.4353360607	 0.137706
N	 2.402886301	 4.258116873	-2.4785511956	-0.219977
C	 3.3287174234	 5.3675331128	-2.4641154979	-0.238709
C	 4.2894013397	 5.278864148	-3.6450580918	 0.156632
O	 5.3834454889	 5.7768765162	-3.653952446	-0.233906
H	-0.7252820898	 1.7848146201	-0.4957012201	 0.10993
H	 1.8720687618	 2.23942988	 0.6403866426	 0.142105
H	 2.1097801202	 0.8222636447	-0.4030175976	 0.153069
H	 2.8704504561	 3.7312029856	-0.5054905763	 0.090242
H	 2.7651553617	 6.3034807803	-2.6033804552	 0.142034
H	 3.9160608377	 5.476176131	-1.5391351548	 0.115147
H	 3.8807052489	 4.7210355683	-4.5153830991	 0.097649
20.449	38.7356	65.6725	72.1908	117.2537	169.5951	221.551	289.4496	338.6034	408.9102	475.9103	521.6069	672.5586	728.9923	753.6395	984.8888	1026.4342	1044.2748	1058.0595	1084.2411	1106.9704	1132.5349	1222.2026	1236.792	1283.1794	1326.2434	1344.7029	1398.3799	1404.5184	1418.3592	1459.1194	1470.2836	1777.4634	1840.843	1848.069	2906.7202	2912.8187	2978.2255	2999.2807	3011.3593	3020.3635	3065.8071
O=CCOC=NCC=O	O=CCOC=NCC=O	
InChI=1S/C5H7NO3/c7-2-1-6-5-9-4-3-8/h2-3,5H,1,4H2	InChI=1S/C5H7NO3/c7-2-1-6-5-9-4-3-8/h2-3,5H,1,4H2
