19
gdb 75583	2.49919	1.5009	0.98011	2.5705	80.36	-0.2422	-0.0499	0.1924	1204.3389	0.159479	-423.050636	-423.042019	-423.041074	-423.08433	32.213	
C	-0.4522184428	 1.409024123	 0.0223962852	-0.458865
C	 0.0822490823	-0.0056043019	 0.0442520628	 0.171467
C	-0.0318322463	-0.780352431	-1.0478018507	-0.12753
C	 0.3576641477	-2.1935505942	-1.3734919339	-0.138423
O	 1.2272206898	-2.8806598813	-0.5167639095	-0.235364
C	 0.8026014197	-2.9471551712	 0.8315652162	-0.109941
C	 1.3048007786	-1.7499731025	 1.6300732377	-0.295117
C	 0.6644639639	-0.3920916194	 1.3672985933	 0.307971
O	 0.6344366755	 0.4185969878	 2.2757902788	-0.311968
H	 0.3412281022	 2.1268338076	 0.2519516816	 0.138729
H	-0.8792654426	 1.654360947	-0.952753745	 0.108233
H	-1.2170842266	 1.549104608	 0.7920162343	 0.139083
H	-0.5414726919	-0.3287967443	-1.9006679321	 0.100046
H	-0.5832842053	-2.7627913252	-1.5118360948	 0.107463
H	 0.8502913011	-2.1911754146	-2.3542781015	 0.128764
H	-0.291935607	-3.0451712409	 0.8940825958	 0.098334
H	 1.2391779366	-3.8619927643	 1.2452270757	 0.115702
H	 1.203338017	-1.9301509271	 2.7048555508	 0.123638
H	 2.3791510181	-1.6456585756	 1.4287590255	 0.137777
45.5784	122.4918	174.9854	248.3149	272.9012	328.0254	363.9479	365.3427	392.2681	509.0483	532.0979	635.7082	707.4055	738.8435	828.2	863.5966	907.5399	930.5603	1017.508	1032.9851	1070.1021	1079.5466	1090.223	1102.082	1202.9249	1222.8615	1256.3868	1287.3366	1322.3478	1365.4546	1386.4375	1402.4943	1415.1225	1423.6005	1441.4304	1470.4414	1470.9788	1487.7197	1503.1452	1706.4433	1745.2597	2911.3189	2993.0717	3033.2339	3041.808	3044.7487	3074.1584	3091.5749	3103.9777	3112.6494	3127.1035
CC1=CCOCCC1=O	CC1=CCOCCC1=O	
InChI=1S/C7H10O2/c1-6-2-4-9-5-3-7(6)8/h2H,3-5H2,1H3	InChI=1S/C7H10O2/c1-6-2-4-9-5-3-7(6)8/h2H,3-5H2,1H3
