20
gdb 75898	2.36046	1.5173	1.16638	4.178	74.87	-0.2396	0.0349	0.2745	1127.5048	0.170328	-440.340023	-440.330618	-440.329674	-440.373605	35.945	
C	-0.7950089101	 1.164020508	-0.001233826	-0.418681
C	 0.0706460776	-0.0901636628	-0.0199579081	-0.122755
C	 1.1920350866	-0.0401726799	-1.0653235221	 0.412513
O	 1.1606295919	 0.506445379	-2.1461215569	-0.389152
N	 2.2459599799	-0.7467047997	-0.5483376232	-0.314318
C	 1.9713973421	-1.3684169396	 0.7330930725	-0.222083
C	 0.7886915729	-0.5142449809	 1.2821578134	 0.363698
C	 1.3111668624	 0.6653320322	 2.1056420519	-0.442562
O	-0.1173225087	-1.2969174317	 2.0477799044	-0.472998
H	-0.2182578987	 2.0539154127	 0.2660795568	 0.119765
H	-1.2072103521	 1.3319148758	-0.9991598607	 0.138972
H	-1.6202524291	 1.0573503489	 0.7083452144	 0.120473
H	-0.5580228655	-0.9480899658	-0.2985431086	 0.114392
H	 3.0458433482	-0.9652704512	-1.1213118274	 0.250187
H	 1.6422348451	-2.4120174354	 0.6357482819	 0.110901
H	 2.8488473022	-1.3405841855	 1.388569543	 0.101334
H	 2.0012279874	 1.2829772733	 1.5229653436	 0.13455
H	 0.4878904992	 1.2940496164	 2.4521055857	 0.133185
H	 1.8567081424	 0.2992503519	 2.9842722401	 0.105231
H	 0.2508416862	-1.4109159557	 2.9304213853	 0.277348
80.1994	160.4636	198.2201	226.7247	251.7035	269.6467	293.2071	318.2237	360.6771	382.9902	482.6588	524.6434	540.3522	556.669	665.1945	701.2444	761.8606	829.7748	909.0152	942.0726	980.4691	1039.7431	1058.5929	1078.9475	1103.6337	1149.7942	1174.1779	1184.1788	1227.8444	1254.169	1314.1791	1322.3711	1359.5052	1388.0094	1405.1726	1408.1368	1443.4776	1487.5942	1490.3285	1498.0984	1507.8908	1531.3307	1830.6296	3007.616	3014.1649	3027.597	3047.9218	3061.22	3096.5109	3118.2642	3127.3759	3130.5822	3635.2448	3805.1916
CC1C(=O)NCC1(C)O	C[C@H]1C(=O)NC[C@]1(C)O	
InChI=1S/C6H11NO2/c1-4-5(8)7-3-6(4,2)9/h4,9H,3H2,1-2H3,(H,7,8)	InChI=1S/C6H11NO2/c1-4-5(8)7-3-6(4,2)9/h4,9H,3H2,1-2H3,(H,7,8)/t4-,6-/m0/s1
