17
gdb 95187	2.4562	1.75914	1.21397	2.7681	68.77	-0.243	-0.0405	0.2024	1034.4146	0.135477	-458.960394	-458.952462	-458.951517	-458.993167	29.897	
C	 0.2020535228	 1.5441624626	-0.0637929717	-0.404669
C	 0.061432111	 0.0277600279	-0.031895549	 0.03333
O	 0.6453194138	-0.4903460922	-1.2162680144	-0.249305
C	 0.6780737491	-1.8961240874	-1.2949566369	-0.126889
C	 1.4959355288	-2.4908703738	-0.1653831557	 0.029176
O	 2.6138417893	-1.7168608793	 0.2306040091	-0.227547
C	 1.4993911164	-1.7892401744	 1.1351312911	-0.053887
C	 0.6337598505	-0.5691310862	 1.2628704495	 0.357633
O	 0.3142150621	-0.1391933006	 2.3473934094	-0.314477
H	 1.2574797724	 1.8196604801	-0.1387276555	 0.137272
H	-0.3267920828	 1.9515153711	-0.9282869362	 0.12654
H	-0.2132915082	 1.9683318957	 0.8520072013	 0.144164
H	-1.0127680508	-0.2387010618	-0.004139915	 0.098404
H	-0.3354201743	-2.334275157	-1.2801366313	 0.098744
H	 1.1345198012	-2.1359673873	-2.2604131723	 0.128553
H	 1.6457460277	-3.5706676664	-0.176799106	 0.109298
H	 1.687748361	-2.3161068108	 2.0682422136	 0.113659
52.4325	170.9716	216.9225	272.5277	281.9092	335.4615	404.5415	436.8201	474.8305	556.1745	629.343	741.0703	792.6484	821.6285	876.3158	896.7778	949.6318	998.3893	1028.7729	1088.2065	1107.9817	1127.4578	1138.9329	1170.2407	1242.1744	1253.6455	1288.578	1333.7293	1335.9897	1357.9269	1397.5623	1398.9834	1446.5123	1485.9558	1486.9548	1499.0167	1806.4491	2922.8533	2959.6139	3056.5669	3081.0345	3116.1115	3132.1607	3145.2399	3150.5081
CC1OCC2OC2C1=O	C[C@H]1OC[C@H]2O[C@H]2C1=O	
InChI=1S/C6H8O3/c1-3-5(7)6-4(9-6)2-8-3/h3-4,6H,2H2,1H3	InChI=1S/C6H8O3/c1-3-5(7)6-4(9-6)2-8-3/h3-4,6H,2H2,1H3/t3-,4-,6-/m1/s1
