16
gdb 52287	3.94191	0.81226	0.71516	4.4672	66.26	-0.256	-0.0328	0.2232	1501.8548	0.123071	-475.029747	-475.020921	-475.019977	-475.064909	30.204	
O	-0.1880026254	 0.2360058252	 0.4984090514	-0.232774
C	 0.0263845327	 1.2785567799	-0.0608364583	 0.149674
C	 1.3831281266	 1.9597846406	-0.1111138983	-0.239132
N	 1.5657730231	 2.6323727681	-1.3966761647	-0.327106
C	 2.6614702302	 3.5821941498	-1.4123665321	-0.158755
C	 2.707465402	 4.5435215711	-2.6143524267	-0.10382
O	 2.4803491899	 5.6860320027	-1.7236603197	-0.231438
C	 2.3703511345	 4.8749187312	-0.628762998	 0.486146
O	 2.112812694	 5.1807968339	 0.4910381132	-0.321275
H	-0.7726759555	 1.8451336468	-0.5889882469	 0.090125
H	 1.3794327287	 2.7293619791	 0.6728100272	 0.172391
H	 2.1637667567	 1.2282832774	 0.1484135482	 0.114291
H	 1.7087715628	 1.9432010231	-2.1286229676	 0.233266
H	 3.6453931533	 3.1595321591	-1.1509409088	 0.102487
H	 3.6624364233	 4.6413165182	-3.1327013364	 0.130589
H	 1.8790219732	 4.4335751938	-3.3161102225	 0.135332
53.6569	69.2282	99.8149	132.2482	164.6878	270.4163	347.1589	374.9662	495.4685	545.8775	714.5383	745.1441	756.3705	822.3326	853.6147	937.4748	968.6034	1040.7355	1057.1661	1095.4025	1127.8735	1140.9859	1162.2915	1191.3494	1220.6534	1270.9014	1328.7182	1347.8527	1382.1128	1409.7798	1472.4235	1495.6842	1506.7097	1841.0297	1933.2408	2892.498	2969.1209	2990.8437	3055.4422	3080.6547	3148.0332	3508.8811
O=CCNC1COC1=O	O=CCN[C@H]1COC1=O	
InChI=1S/C5H7NO3/c7-2-1-6-4-3-9-5(4)8/h2,4,6H,1,3H2	InChI=1S/C5H7NO3/c7-2-1-6-4-3-9-5(4)8/h2,4,6H,1,3H2/t4-/m0/s1
