23
gdb 64410	2.29056	1.64564	1.28871	1.2226	84.36	-0.2438	0.0761	0.3199	1122.2979	0.206846	-388.289108	-388.280346	-388.279401	-388.321718	35.367	
C	-0.014278261	 1.5401785414	-0.0239196581	-0.416806
C	 0.0064572784	 0.0047548979	 0.0041576076	 0.241744
C	-1.4322102508	-0.5435078469	 0.0468113546	-0.414705
C	 0.6952404633	-0.5247625124	-1.2723945834	-0.110202
O	 0.8753407912	-1.9260078218	-1.2315208922	-0.244734
C	 1.8693863933	-2.3102584175	-0.2938662554	-0.097277
C	 1.6746561564	-1.7070487198	 1.0958104675	-0.062653
C	 2.2451318222	-0.3414040091	 1.4030148583	-0.318564
C	 0.7585115217	-0.5090566267	 1.2316313714	-0.002365
H	 0.9990511968	 1.9540981686	-0.0447550757	 0.111445
H	-0.5502834663	 1.911715846	-0.9051544052	 0.108043
H	-0.5182487284	 1.939459669	 0.8628582226	 0.111487
H	-2.0190073253	-0.1689081809	-0.7994237837	 0.104534
H	-1.4274711727	-1.6354828609	-0.0010354611	 0.127612
H	-1.9424229234	-0.2385505532	 0.9667976272	 0.104312
H	 0.066813077	-0.3179876874	-2.1450287844	 0.102439
H	 1.6618264716	-0.0166755716	-1.4339631958	 0.079348
H	 1.8153570961	-3.4011425308	-0.2410022415	 0.108295
H	 2.8646259195	-2.0457980232	-0.6898681121	 0.087839
H	 1.667932974	-2.4266087546	 1.9081002334	 0.086171
H	 2.6262577761	-0.1492830995	 2.400122635	 0.108223
H	 2.8090409831	 0.148848758	 0.6145623293	 0.108569
H	 0.1757811873	-0.4589438546	 2.1482202817	 0.077246
112.9617	194.3134	229.7955	254.7506	264.4839	307.4875	321.5363	367.6708	409.244	465.3724	481.1531	511.3739	670.9583	724.4416	812.1123	838.8742	865.5374	915.993	924.764	948.3489	959.3158	983.5038	1008.7901	1035.4749	1048.695	1066.7948	1099.0521	1113.1112	1133.6717	1176.3271	1204.478	1222.2972	1225.0317	1267.199	1301.1941	1332.5841	1364.3978	1382.1378	1395.1455	1404.6044	1414.1794	1430.3804	1484.0545	1486.6502	1489.1339	1496.1157	1504.4522	1506.2562	1511.4141	2950.9566	2958.2006	3023.572	3030.5526	3068.7924	3082.7641	3088.1976	3093.5863	3099.3241	3120.2947	3122.4575	3128.1553	3154.32	3206.0778
CC1(C)COCC2CC12	CC1(C)COC[C@H]2C[C@@H]12	
InChI=1S/C8H14O/c1-8(2)5-9-4-6-3-7(6)8/h6-7H,3-5H2,1-2H3	InChI=1S/C8H14O/c1-8(2)5-9-4-6-3-7(6)8/h6-7H,3-5H2,1-2H3/t6-,7-/m1/s1
