14
gdb 12978	2.85625	2.7565	1.63811	3.2044	62.38	-0.2431	-0.0715	0.1716	776.8125	0.106626	-382.54594	-382.539057	-382.538112	-382.576818	25.857	
C	-0.0780278056	 1.5311940799	 0.0292803403	-0.492759
C	 0.1339901425	 0.0483815937	 0.0228530989	 0.280526
O	-0.7318810549	-0.7715368914	 0.8394821079	-0.284267
C	 0.6912035395	-0.7929972909	 1.086807837	-0.074458
C	 1.3659900926	-1.9667468854	 0.4335849796	-0.066867
C	 1.2104748124	-1.9219032386	-0.8960923627	-0.191265
C	 0.4794333288	-0.6797855483	-1.2859382466	 0.363139
O	 0.2268339649	-0.2867327852	-2.3983226287	-0.316485
H	 0.8314840054	 2.0530121321	-0.2841651848	 0.133534
H	-0.8716687345	 1.7971822906	-0.6751155738	 0.1503
H	-0.3594947118	 1.8730821014	 1.0277741325	 0.132003
H	 1.0074887939	-0.4104178562	 2.0519044561	 0.109519
H	 1.8627698302	-2.7499691392	 0.9936163283	 0.128397
H	 1.5346645866	-2.6561416523	-1.6219556339	 0.128682
136.3261	168.0623	248.5602	283.9863	324.7617	468.3438	490.5444	593.9502	666.2204	718.056	752.9127	814.0385	852.6027	875.5667	955.3332	983.1702	1002.0734	1039.3373	1095.5679	1110.7492	1127.1301	1266.6591	1281.5843	1354.7349	1405.3804	1450.8556	1479.5953	1492.8165	1634.4379	1827.0226	3046.5414	3113.6511	3133.8051	3171.2225	3205.1747	3232.452
CC12OC1C=CC2=O	C[C@]12O[C@H]1C=CC2=O	
InChI=1S/C6H6O2/c1-6-4(7)2-3-5(6)8-6/h2-3,5H,1H3	InChI=1S/C6H6O2/c1-6-4(7)2-3-5(6)8-6/h2-3,5H,1H3/t5-,6+/m0/s1
