20
gdb 89020	3.33663	0.89236	0.85853	5.2484	75.66	-0.2465	0.0211	0.2676	1437.6025	0.170748	-440.301198	-440.29172	-440.290776	-440.336597	34.607	
C	-0.1511798846	 1.5124090839	 0.0790954092	-0.410152
C	 0.3935360669	 0.1028920095	 0.0004324727	-0.0132
C	 1.8263864019	-0.2047065729	 0.3650893723	-0.296006
C	 0.6989881343	-0.7201524307	 1.229111797	 0.018099
N	 0.5108932168	-0.1483351284	 2.5432014477	-0.324413
H	 1.7213636535	 1.3201865	 2.9481713983	 0.303257
H	-0.472566579	-0.1514874471	 2.7867281044	 0.237039
C	 1.306057627	-0.7844132943	 3.5985182952	-0.311676
C	 2.6028677435	-0.0104265378	 3.8853187194	 0.426972
O	 2.5802640348	 1.2482753957	 3.4170354988	-0.363724
O	 3.5256459323	-0.4700049593	 4.4991608002	-0.32965
H	 0.2633794122	 2.0609584947	 0.9283395557	 0.122374
H	 0.0955682792	 2.0702506617	-0.8302107098	 0.125744
H	-1.2424178102	 1.5140687218	 0.1818534975	 0.11533
H	-0.0081560714	-0.4769696766	-0.8265570571	 0.091474
H	 2.3839201106	-0.9180540205	-0.2309853383	 0.119561
H	 2.4238035733	 0.6046564017	 0.769884405	 0.130495
H	 0.4907423015	-1.7896784838	 1.1561581545	 0.085676
H	 0.7355956158	-0.788528365	 4.533681835	 0.138002
H	 1.5726781715	-1.8249654026	 3.3792508622	 0.134799
45.3104	60.0719	108.612	161.4799	191.7637	260.4702	310.3847	345.8532	450.4206	477.2962	554.1665	574.9629	660.6297	747.6766	778.5088	822.3589	845.5651	868.2837	882.2504	926.0159	966.5336	1002.5341	1066.8902	1084.4112	1099.6974	1119.1778	1154.8553	1172.3424	1196.8818	1211.0487	1250.3416	1288.9542	1332.9237	1383.5643	1407.6052	1420.0223	1424.8459	1463.1719	1468.5032	1491.7242	1494.2193	1507.8425	1881.3271	3033.6197	3037.5275	3070.1716	3086.2134	3091.1739	3116.2932	3141.3477	3143.9326	3229.4304	3501.5062	3537.1754
CC1CC1[NH2+]CC([O-])=O	C[C@H]1C[C@H]1NCC(=O)O	
InChI=1S/C6H11NO2/c1-4-2-5(4)7-3-6(8)9/h4-5,7H,2-3H2,1H3,(H,8,9)	InChI=1S/C6H11NO2/c1-4-2-5(4)7-3-6(8)9/h4-5,7H,2-3H2,1H3,(H,8,9)/t4-,5+/m0/s1
