17
gdb 24649	4.36054	1.23661	1.00621	1.7922	84.44	-0.2171	-0.0152	0.2019	1164.1571	0.138965	-380.903658	-380.896443	-380.895499	-380.935807	27.761	
C	-0.1701276911	 1.2363531098	-0.3737158663	-0.233302
C	 1.2520512226	 1.0328132757	 0.0391979863	-0.210364
N	 0.2963118228	-0.0510470278	 0.128836514	-0.115123
C	-0.1128546519	-0.5363483013	 1.3777971656	 0.353877
N	 0.8186070498	-0.6668665	 2.3243173295	-0.316874
C	 0.446809394	-1.2023514435	 3.4919935558	 0.001247
C	-0.8461617751	-1.6180380405	 3.779431718	-0.137271
C	-1.8137828573	-1.4681814111	 2.7843309348	-0.066473
C	-1.4494668729	-0.9247471921	 1.5647118361	-0.180296
H	-0.8000357944	 1.8332265713	 0.2824865046	 0.122263
H	-0.4440192646	 1.2632263902	-1.4246034472	 0.121775
H	 2.0261787365	 0.9152517305	-0.7134298018	 0.121523
H	 1.5792104321	 1.4799868267	 0.9732708129	 0.134019
H	 1.2329404461	-1.2970290892	 4.2380182097	 0.104742
H	-1.0881279987	-2.04144251	 4.7469968869	 0.096816
H	-2.8397755037	-1.7756781461	 2.9597064316	 0.104499
H	-2.1638841641	-0.8007473027	 0.7590289195	 0.098941
63.3646	136.8214	206.5372	289.4149	421.9133	467.209	519.5247	560.0695	631.4442	748.6329	767.6867	801.0595	823.1104	895.4903	938.8579	943.247	980.0404	998.6687	1001.1541	1036.955	1066.5032	1117.6598	1122.4125	1129.7585	1166.5669	1171.2031	1174.7224	1214.5895	1308.4861	1324.1684	1394.0531	1465.0862	1494.8861	1505.6613	1522.527	1606.2906	1634.3252	3103.006	3118.2355	3149.2887	3177.0889	3188.5635	3197.535	3206.5251	3208.1668
C1CN1C1=NC=CC=C1	C1CN1c1ncccc1	
InChI=1S/C7H8N2/c1-2-4-8-7(3-1)9-5-6-9/h1-4H,5-6H2	InChI=1S/C7H8N2/c1-2-4-8-7(3-1)9-5-6-9/h1-4H,5-6H2
