22
gdb 96446	2.42284	1.57313	1.09472	2.2772	82.32	-0.242	0.0686	0.3106	1179.4934	0.196588	-404.328772	-404.320357	-404.319413	-404.361536	33.285	
C	 0.4771837437	 1.6307306783	 0.0254116938	-0.399409
C	-0.0059395017	 0.1722324978	-0.0513819352	 0.007635
C	 0.4811289796	-0.4816268178	-1.3524762481	-0.191054
C	-0.0360933675	-1.8951278263	-1.6257381535	-0.089735
O	 0.637231379	-2.9033453483	-0.8952849059	-0.224065
C	 0.1858675522	-3.1168706468	 0.415807119	-0.097613
C	 0.4873792776	-2.0259163669	 1.4296727215	-0.043221
N	 1.7089838602	-1.2257156936	 1.2793016789	-0.330216
C	 0.3962521789	-0.5562905144	 1.2223775004	-0.00228
H	 1.5712316565	 1.6701855024	 0.0659984256	 0.125352
H	 0.1512404243	 2.2020875179	-0.8495278231	 0.109434
H	 0.0896243596	 2.1347544987	 0.9172792563	 0.105498
H	-1.1069737473	 0.1834564661	-0.0709371231	 0.069736
H	 0.168329686	 0.1579900294	-2.1882220863	 0.085193
H	 1.5755229769	-0.5148655645	-1.3619211031	 0.125095
H	-1.1239638013	-1.9534087782	-1.4466474851	 0.078
H	 0.1351447104	-2.1413608832	-2.6793926479	 0.101885
H	-0.903164066	-3.3067324744	 0.4293132189	 0.082573
H	 0.6791591784	-4.0386533203	 0.7470029625	 0.107902
H	 0.2308653606	-2.3579641843	 2.4381169923	 0.077126
H	 2.1611147784	-1.0739700452	 2.1757960535	 0.229356
H	 0.1014080914	-0.0023118564	 2.1155435986	 0.072805
83.1994	186.6417	213.8469	244.7588	269.8375	300.683	349.5168	400.4051	439.3361	534.6274	566.5273	656.2897	741.3994	771.7484	834.8301	868.492	895.7809	947.06	980.4391	983.9612	998.8336	1039.2814	1050.811	1078.688	1098.8127	1126.6327	1164.0334	1176.9744	1199.9838	1225.403	1263.2058	1272.0506	1303.4267	1325.9767	1345.6998	1366.626	1392.7781	1400.7881	1405.4902	1418.8705	1430.3684	1462.8609	1482.0087	1488.0521	1496.9558	1498.0874	1504.1933	2940.3639	2956.3269	2983.8759	3021.815	3029.0606	3049.9221	3062.684	3075.0941	3086.6293	3087.4883	3097.1952	3102.7893	3512.6186
CC1CCOCC2NC12	C[C@H]1CCOC[C@H]2N[C@@H]12	
InChI=1S/C7H13NO/c1-5-2-3-9-4-6-7(5)8-6/h5-8H,2-4H2,1H3	InChI=1S/C7H13NO/c1-5-2-3-9-4-6-7(5)8-6/h5-8H,2-4H2,1H3/t5-,6+,7-/m0/s1
