19
gdb 119318	2.37366	1.21678	0.95388	2.7387	72.81	-0.2391	-0.0246	0.2145	1307.1647	0.156172	-460.134461	-460.124603	-460.123658	-460.17059	33.815	
C	 0.1014654826	 1.507685585	 0.0131901827	-0.226601
O	 0.044511523	 0.1015382133	-0.0578026542	-0.241637
C	-1.2639884527	-0.4058460252	 0.0527872975	-0.110863
C	-1.2054264738	-1.9225167593	-0.039219085	 0.322431
C	-2.5595119042	-2.6564220768	 0.0303227598	-0.343994
C	-2.1784921148	-3.1882705203	-1.3656684153	-0.068043
O	-0.9577388102	-2.4092634084	-1.3824447847	-0.32294
C	-0.1229596957	-2.4675900609	 0.8892112527	 0.123083
O	-0.3311644754	-2.831877963	 2.0173753985	-0.260617
H	 1.1505639244	 1.7961473865	-0.0815751296	 0.13405
H	-0.4729127604	 1.9773532248	-0.8001511402	 0.109427
H	-0.2877497177	 1.8825090698	 0.9726058127	 0.109165
H	-1.7165037686	-0.129634672	 1.0215183137	 0.102736
H	-1.9125422321	-0.0192770205	-0.7507319568	 0.095896
H	-2.6363199773	-3.3853586928	 0.8369335416	 0.136226
H	-3.4295575906	-1.9971587555	 0.0500963027	 0.113101
H	-1.9732599651	-4.2635460223	-1.4228211907	 0.112091
H	-2.8471014452	-2.9075736204	-2.1864289386	 0.110598
H	 0.877192214	-2.5253386322	 0.4135529631	 0.105891
42.9958	64.7551	106.2775	111.1	157.5397	226.1563	230.6805	317.6552	339.2327	386.2811	410.2811	601.3201	731.1423	790.5838	864.6849	883.8505	956.2932	972.7069	996.431	1006.4416	1017.7513	1114.7772	1157.5047	1162.4908	1183.5519	1191.0699	1205.0388	1226.9284	1242.5999	1263.079	1292.0794	1345.8788	1397.8503	1408.6827	1474.9799	1486.057	1490.5984	1493.5495	1516.6286	1529.5999	1828.3437	2932.6833	2950.3863	2976.7599	2991.8145	3023.2692	3028.4633	3071.8937	3083.5309	3121.9949	3145.3234
COCC1(CCO1)C=O	COC[C@]1(CCO1)C=O	
InChI=1S/C6H10O3/c1-8-5-6(4-7)2-3-9-6/h4H,2-3,5H2,1H3	InChI=1S/C6H10O3/c1-8-5-6(4-7)2-3-9-6/h4H,2-3,5H2,1H3/t6-/m0/s1
