23
gdb 116192	2.19545	1.35264	1.09264	1.7847	81.02	-0.2403	0.0673	0.3076	1264.563	0.204702	-425.435817	-425.42575	-425.424806	-425.470553	37.904	
C	 0.0908862629	 1.5683708689	 0.219542747	-0.388633
C	 0.2504238395	 0.043964089	 0.1963494654	-0.19871
C	 0.6021900743	-0.5075076439	-1.1943140457	-0.011901
C	 2.0466848969	-0.1914805576	-1.6126277792	-0.083794
O	 2.8517619749	-1.1935748649	-0.9890876321	-0.267647
C	 2.0733098893	-2.3684349062	-0.8141346047	-0.089737
C	 0.6392270339	-2.0538306231	-1.2965343252	 0.343806
C	-0.4394685776	-2.8305932229	-0.5456208886	-0.463594
O	 0.523247664	-2.3088870833	-2.7042749381	-0.477716
H	 1.0116201134	 2.0822224798	-0.0736590979	 0.120699
H	-0.7006303119	 1.8912912296	-0.466040987	 0.115448
H	-0.1740505091	 1.9177056301	 1.2221778727	 0.113209
H	 1.0235371411	-0.2559126089	 0.9152724398	 0.107338
H	-0.6868048225	-0.4060763372	 0.540902659	 0.096928
H	-0.114818059	-0.131456391	-1.9311170075	 0.080927
H	 2.1492472141	-0.2386184024	-2.7045042983	 0.102019
H	 2.4072846221	 0.7817220414	-1.2678750668	 0.099042
H	 2.4972128038	-3.2003230422	-1.3962503889	 0.080778
H	 2.0933010406	-2.6558187141	 0.2457666977	 0.092583
H	-0.4015043334	-2.6585628908	 0.5328605137	 0.12249
H	-1.4321265057	-2.5553179737	-0.9131294996	 0.126921
H	-0.3093753233	-3.9073374082	-0.7106579226	 0.105035
H	 0.6928516018	-3.2456900884	-2.8505300629	 0.274509
81.6196	86.1178	136.2005	189.5355	238.0473	250.9163	283.8475	302.0517	327.8015	341.3654	379.496	469.5807	491.2184	608.939	700.8348	788.6581	835.8238	856.3043	902.6713	933.1907	938.4997	964.0985	987.9807	1014.7216	1050.6446	1082.4967	1104.4019	1118.6267	1172.4041	1183.3159	1190.5635	1230.3561	1253.5575	1283.1437	1306.5313	1347.6378	1350.7649	1368.348	1387.6538	1402.9215	1411.1374	1418.3363	1484.259	1493.2493	1496.6588	1499.2072	1506.6548	1510.0751	1520.7264	2985.9005	3018.4193	3024.1061	3027.1361	3030.263	3033.6527	3058.9473	3071.9079	3085.4538	3095.0291	3101.2324	3108.4071	3125.4071	3804.7407
CCC1COCC1(C)O	CC[C@H]1COC[C@]1(C)O	
InChI=1S/C7H14O2/c1-3-6-4-9-5-7(6,2)8/h6,8H,3-5H2,1-2H3	InChI=1S/C7H14O2/c1-3-6-4-9-5-7(6,2)8/h6,8H,3-5H2,1-2H3/t6-,7-/m0/s1
