18
gdb 82726	2.65826	1.92072	1.39062	2.4289	74.86	-0.2177	-0.0142	0.2035	959.8053	0.149107	-401.927679	-401.920422	-401.919478	-401.959164	29.029	
C	-0.1680855412	 1.5875357335	 0.0071531156	-0.411598
C	 0.0512763457	 0.0839546677	-0.0161540465	-0.064874
N	 0.7784468741	-0.4524781453	-1.1907817874	-0.135742
C	 2.2386094403	-0.036833995	-1.1534515339	-0.198013
C	 2.5894888421	-1.3632529705	-0.508463808	-0.078837
C	 1.1974280179	-1.8311498368	-0.7806005976	-0.048966
C	 1.6161056152	-1.6335896084	 0.6591247093	-0.16665
C	 0.8144632588	-0.4882035438	 1.2006586872	 0.391538
O	 0.7346272321	-0.113592384	 2.3443394037	-0.337276
H	 0.7727752713	 2.1420770518	-0.0517038727	 0.122116
H	-0.8033651032	 1.901725659	-0.8246734812	 0.125377
H	-0.6510252052	 1.8603814252	 0.9492824129	 0.141732
H	-0.9287689677	-0.4165897601	-0.0134465336	 0.107641
H	 2.6171380571	 0.0560311178	-2.1748155092	 0.118784
H	 2.4603208596	 0.8812382255	-0.6012424778	 0.114693
H	 3.5223038964	-1.9107821479	-0.5686204066	 0.103395
H	 0.7812088778	-2.7295087851	-1.2177818527	 0.104789
H	 1.8679498589	-2.4661899536	 1.3036547485	 0.111891
119.5238	184.4617	231.4804	258.5429	356.964	458.6306	498.4709	565.1747	627.7095	687.6834	732.1362	783.9161	816.0388	835.0129	860.4163	926.2262	942.9402	971.1527	1006.0076	1030.8748	1034.4857	1055.2018	1081.6771	1100.0853	1131.2109	1136.5283	1184.3839	1204.4621	1230.7252	1288.6698	1303.9573	1308.9666	1350.1954	1360.3054	1407.1301	1489.9114	1497.2824	1514.9774	1833.0049	2996.5733	3049.0248	3054.501	3102.7082	3121.721	3129.9714	3183.8816	3196.7335	3208.6625
CC1N2CC3C2C3C1=O	C[C@H]1N2C[C@@H]3[C@H]2[C@@H]3C1=O	
InChI=1S/C7H9NO/c1-3-7(9)5-4-2-8(3)6(4)5/h3-6H,2H2,1H3	InChI=1S/C7H9NO/c1-3-7(9)5-4-2-8(3)6(4)5/h3-6H,2H2,1H3/t3-,4+,5-,6+/m1/s1
