18
gdb 42818	3.13792	1.45216	1.30806	1.8658	76.42	-0.2346	-0.0009	0.2337	1030.4942	0.149561	-401.918107	-401.910894	-401.90995	-401.949675	29.117	
O	 0.0045022599	-0.0134494732	-0.1855186895	-0.332084
C	-0.0071240477	 1.1590132422	 0.0466741586	 0.424754
C	-1.0521088858	 2.3000958072	 0.051888562	-0.133194
C	-0.7995217904	 3.0071890874	 1.3945925431	-0.29227
C	 0.7490460243	 3.0077346771	 1.3625916445	 0.440145
C	 1.5947064049	 4.1327987598	 1.8775533913	-0.329955
C	 1.6223973189	 2.7829079438	 2.5630023586	-0.33609
C	 1.0032462372	 2.3309352769	 0.0252610669	-0.231018
N	-0.0477662796	 3.0198806749	-0.8343730233	-0.316819
H	-2.0719590878	 2.1850988676	-0.3100078788	 0.092259
H	-1.2158144452	 4.0181245885	 1.3897355848	 0.116435
H	-1.2165599603	 2.4517323199	 2.2393604234	 0.111896
H	 2.4624629433	 4.4322977779	 1.2990465189	 0.115297
H	 1.0918724877	 4.9514708823	 2.3826320856	 0.114737
H	 1.1416480708	 2.6895660242	 3.5313492147	 0.115809
H	 2.5102725514	 2.1691294534	 2.4485985195	 0.11799
H	 2.0212994432	 2.2538979318	-0.3522104936	 0.087399
H	-0.054457975	 2.5772211183	-1.7546945668	 0.23471
103.9652	177.5075	256.34	287.7928	402.6338	452.5505	480.6375	527.6669	638.2869	739.3717	763.6327	777.6852	824.8432	860.7441	887.3788	904.3234	944.4209	949.3882	976.3101	1005.0176	1040.8595	1056.7822	1059.2441	1079.1904	1083.9987	1133.6865	1148.1904	1171.1484	1186.2884	1237.219	1260.5384	1273.7797	1298.7104	1333.561	1397.9824	1467.4323	1486.5156	1507.4155	1886.2867	3056.3601	3105.6713	3124.2871	3127.9377	3145.2191	3148.0062	3202.5814	3217.0761	3453.3265
O=C1C2CC3(CC3)C1N2	O=C1[C@H]2CC3(CC3)[C@@H]1N2	
InChI=1S/C7H9NO/c9-5-4-3-7(1-2-7)6(5)8-4/h4,6,8H,1-3H2	InChI=1S/C7H9NO/c9-5-4-3-7(1-2-7)6(5)8-4/h4,6,8H,1-3H2/t4-,6-/m1/s1
