17
gdb 8357	6.35895	1.03127	1.03123	2.301	79.17	-0.2371	0.0435	0.2806	1210.7614	0.142673	-326.623617	-326.615867	-326.614923	-326.657678	28.108	
C	-0.0185590364	 1.4626078621	 0.0091474645	-0.515863
C	-0.0011237854	 0.0077284665	-0.0026862409	 0.399229
C	 0.013563055	-1.1975794682	-0.0127535251	-0.483409
C	 0.0316569363	-2.6362879507	-0.0251405272	 0.284643
C	 0.6949290622	-3.6284106993	 0.9711940436	-0.198674
N	 0.0561783211	-4.5905726645	-0.0421642355	-0.166995
C	-1.1512028575	-3.643232832	 0.0274884832	-0.198568
C	 0.5886336421	-3.6116960366	-1.0998724102	-0.198644
H	 0.9977361147	 1.8719382542	 0.0081060225	 0.15097
H	-0.5376037125	 1.8606872675	-0.869800858	 0.150968
H	-0.5300653544	 1.846473262	 0.8987623798	 0.150963
H	 1.7869674518	-3.6728748663	 0.9927375986	 0.104231
H	 0.2691206984	-3.7005285131	 1.9754172587	 0.104259
H	-1.7151373911	-3.7165602394	 0.9610391689	 0.104213
H	-1.8073957922	-3.7018907739	-0.8447765704	 0.1042
H	 0.0626179305	-3.6680998126	-2.0564697954	 0.104253
H	 1.6726771875	-3.6548537156	-1.2334717871	 0.104223
12.9749	102.8449	103.8388	307.4864	307.739	444.2392	499.9808	500.4115	596.3711	599.4631	792.6645	793.7828	846.4673	940.7099	974.4711	988.693	989.3805	1022.4893	1031.0531	1054.0788	1054.0887	1135.1042	1135.5654	1166.2344	1167.2416	1198.3695	1199.0922	1285.6176	1332.7343	1413.7737	1476.7854	1476.9488	1509.6769	1510.6418	1563.1171	2361.7223	3026.9609	3049.5001	3050.4839	3059.5164	3088.5157	3088.5652	3118.0868	3124.3514	3124.552
CC#CC12CN(C1)C2	CC#C[C@@]12CN(C1)C2	
InChI=1S/C7H9N/c1-2-3-7-4-8(5-7)6-7/h4-6H2,1H3	InChI=1S/C7H9N/c1-2-3-7-4-8(5-7)6-7/h4-6H2,1H3
