22
gdb 89424	2.57168	1.50276	1.24081	1.5637	87.71	-0.2246	0.0181	0.2427	1142.8313	0.1957	-367.213418	-367.20481	-367.203866	-367.245886	34.64	
C	-0.5289636625	 1.4489917869	 0.1565173349	-0.38747
C	-0.0059440851	 0.0041476971	 0.0114118733	-0.036306
C	 0.6791063405	-0.2454828708	-1.3550744599	-0.268895
C	 2.1610141074	 0.094564513	-1.4256480366	 0.327387
C	 2.8377171561	-0.2760973366	-2.7278219681	-0.472405
N	 2.5756833163	 1.3366929106	-0.7533616417	-0.361947
C	 2.9316432977	 0.0111496275	-0.1517644475	-0.123128
C	 2.2226645333	-0.3654073695	 1.0934077964	-0.019697
C	 0.8909708752	-0.3704466001	 1.1658700191	-0.089535
H	 0.2964171962	 2.1581909618	 0.0730858701	 0.151544
H	-1.2652104708	 1.6676334604	-0.6257867907	 0.099397
H	-1.0176955143	 1.5926155206	 1.1261278293	 0.102071
H	-0.8841744582	-0.6548937052	 0.0497695643	 0.07183
H	 0.5880447308	-1.3109075545	-1.6030102769	 0.096171
H	 0.1390089285	 0.30155403	-2.1385168616	 0.093766
H	 2.4186149698	 0.2977134975	-3.5632892847	 0.121132
H	 3.9135835063	-0.0745906316	-2.686229065	 0.109492
H	 2.7040251562	-1.3388444951	-2.9577882536	 0.123262
H	 3.3938363144	 1.7181625428	-1.2254623113	 0.221204
H	 3.9767929667	-0.280782389	-0.2191545658	 0.074729
H	 2.8267824976	-0.6337532606	 1.9555861739	 0.08263
H	 0.4020054478	-0.6275694854	 2.102571882	 0.084769
141.6277	158.0931	222.2053	240.7619	281.4259	299.0792	348.1046	378.394	414.6281	468.9008	575.7557	589.2027	677.0764	747.7794	783.686	804.3528	853.4346	889.9595	920.3901	942.3186	972.0432	989.8376	999.8621	1037.9216	1045.7758	1061.0072	1107.6185	1138.16	1150.9186	1173.5318	1202.5433	1253.6384	1287.0554	1331.526	1342.2384	1347.2341	1393.3261	1395.6816	1416.3063	1425.6322	1454.4923	1479.5711	1486.5178	1492.4288	1505.0989	1511.558	1711.5915	2998.4951	3016.6646	3022.2304	3027.9559	3050.6527	3084.5206	3089.2274	3095.2384	3133.0448	3142.1743	3147.2743	3172.5417	3472.2367
CC1CC2(C)NC2C=C1	C[C@H]1C[C@@]2(C)N[C@H]2C=C1	
InChI=1S/C8H13N/c1-6-3-4-7-8(2,5-6)9-7/h3-4,6-7,9H,5H2,1-2H3	InChI=1S/C8H13N/c1-6-3-4-7-8(2,5-6)9-7/h3-4,6-7,9H,5H2,1-2H3/t6-,7+,8-/m1/s1
