18
gdb 67806	2.37203	1.93557	1.58366	1.9301	75.98	-0.2096	0.0131	0.2228	941.3249	0.148087	-401.890227	-401.882555	-401.881611	-401.921667	31.277	
C	-0.0853039416	 1.4601817578	 0.0427441285	-0.496697
C	-0.036817135	-0.0442596173	-0.0615379423	 0.274957
C	 0.951984973	-0.7427067348	-0.9330442825	-0.134802
C	 0.5534595805	-1.9985064207	-1.1667482419	-0.056976
C	-0.6664823108	-2.2603685182	-0.323364065	-0.179326
N	-0.1424481252	-2.2525763734	 1.1248144427	-0.31557
C	-0.5369879779	-0.8409015531	 1.2126535735	-0.174759
C	-1.3098944349	-0.8358901695	-0.0770883236	 0.311896
O	-2.5075721611	-0.3163554868	-0.5138626251	-0.453618
H	 0.8404888627	 1.8590126183	 0.4711399394	 0.118172
H	-0.2254901363	 1.9149901616	-0.943482746	 0.127694
H	-0.9178578869	 1.7865218924	 0.6730283795	 0.119638
H	 1.8754855597	-0.2848572018	-1.2682537176	 0.094993
H	 1.092744698	-2.7623655878	-1.7113429403	 0.098995
H	-1.2937404258	-3.117549789	-0.5663918446	 0.069238
H	-0.816137697	-2.7775637184	 1.6815364537	 0.213865
H	-0.6377978786	-0.3249190296	 2.1610006441	 0.095917
H	-3.2238596627	-0.7310740798	-0.0200984525	 0.28638
174.9269	205.1062	219.0447	293.045	346.7177	363.108	394.8555	455.4977	538.8911	608.129	642.7427	692.0741	745.1859	767.9548	823.5453	839.4306	896.3813	918.8608	925.6011	941.898	994.345	1022.6406	1048.3027	1072.5483	1104.1796	1117.7523	1147.7845	1189.0169	1234.5932	1253.1313	1278.065	1312.7577	1350.3373	1380.4171	1418.2997	1460.3419	1487.1875	1504.4274	1639.7776	3032.4027	3094.1309	3107.1376	3119.9104	3177.905	3192.5931	3224.906	3455.9453	3788.8375
CC12C=CC3NC1C23O	C[C@@]12C=C[C@H]3N[C@@H]1[C@@]23O	
InChI=1S/C7H9NO/c1-6-3-2-4-7(6,9)5(6)8-4/h2-5,8-9H,1H3	InChI=1S/C7H9NO/c1-6-3-2-4-7(6,9)5(6)8-4/h2-5,8-9H,1H3/t4-,5+,6-,7-/m1/s1
