29
gdb 118570	1.52871	0.86407	0.58897	0.0659	100.63	-0.2928	0.0911	0.384	2082.6845	0.273328	-354.779166	-354.766692	-354.765748	-354.818016	44.72	
C	 0.5871750186	 1.2243335374	 0.6851717536	-0.378839
C	 0.4723985937	-0.2761879105	 0.4004336402	-0.171266
C	 0.9360457808	-0.6522194816	-1.0125982648	-0.176153
C	 0.8264370403	-2.1522550735	-1.3582934422	 0.042472
C	-0.6408986777	-2.5574437013	-1.6150174464	-0.182575
C	-0.9104691245	-4.0643187947	-1.5440940716	-0.387721
C	 1.7220725332	-2.5128657689	-2.5619169449	-0.177677
C	 3.2231271796	-2.5848659791	-2.2533482384	-0.171666
C	 4.0689557299	-2.9231558628	-3.4844642782	-0.378245
H	 1.6213412735	 1.5702885645	 0.5765218649	 0.112175
H	-0.0285689482	 1.8069910034	-0.0092060331	 0.112621
H	 0.2608098517	 1.465674221	 1.701779378	 0.109127
H	 1.0708691884	-0.8339648209	 1.1331122904	 0.093191
H	-0.5661737541	-0.592840829	 0.5561363484	 0.097531
H	 0.360058274	-0.0769439625	-1.7525158658	 0.08708
H	 1.9767899887	-0.324374775	-1.1268708341	 0.088843
H	 1.184803721	-2.7258363594	-0.4890023645	 0.059197
H	-1.2888647385	-2.0571600652	-0.8861082701	 0.09212
H	-0.9442207445	-2.1728583134	-2.5989254911	 0.090338
H	-0.3253494948	-4.6249316379	-2.2800162056	 0.117021
H	-0.6607006939	-4.4609619437	-0.5535154143	 0.112741
H	-1.9663939537	-4.2835863078	-1.7321960462	 0.109971
H	 1.4137835318	-3.4824567668	-2.9724118664	 0.088275
H	 1.547598055	-1.7804889621	-3.3639384829	 0.086996
H	 3.569376641	-1.6341641485	-1.8296655757	 0.097445
H	 3.3914192337	-3.3410598832	-1.4749183094	 0.093151
H	 3.7741228909	-3.8864729062	-3.9158165695	 0.11215
H	 3.9518354146	-2.1638973705	-4.2658744508	 0.112645
H	 5.1332262495	-2.9822615918	-3.2353019794	 0.109052
64.9423	70.5004	75.0054	79.5099	91.2255	165.6081	197.8881	237.6134	244.979	251.8383	263.2226	310.6177	341.6534	424.7955	479.6233	503.717	736.214	739.0244	771.088	827.204	852.9755	895.3727	907.8613	912.287	978.3391	1001.5259	1036.6272	1045.3203	1053.0065	1060.4704	1085.8043	1090.3758	1168.1222	1173.5446	1189.508	1250.1063	1261.3083	1294.062	1300.9753	1318.2455	1327.7901	1333.631	1346.9171	1367.5074	1385.288	1396.2231	1400.8931	1412.1808	1413.2249	1413.7665	1479.4854	1484.1098	1487.3492	1492.2906	1493.8575	1499.5708	1499.6656	1501.9627	1506.8611	1510.5922	1511.6737	2978.2327	2999.6663	3003.5299	3014.6287	3018.3121	3019.3928	3027.6933	3028.1069	3031.4797	3035.9965	3040.0662	3054.0097	3058.5955	3062.6338	3094.3747	3094.8985	3096.9123	3099.4013	3099.4629	3102.9603
CCCC(CC)CCC	CCCC(CC)CCC	
InChI=1S/C9H20/c1-4-7-9(6-3)8-5-2/h9H,4-8H2,1-3H3	InChI=1S/C9H20/c1-4-7-9(6-3)8-5-2/h9H,4-8H2,1-3H3
