19
gdb 119816	5.60163	0.75328	0.67511	3.1837	79.31	-0.2398	-0.0148	0.225	1642.1821	0.157472	-423.048403	-423.039125	-423.038181	-423.08353	33.022	
C	-0.0627720982	 1.4056365948	 0.0115857201	-0.22528
O	 0.0119630079	 0.0002172102	 0.0035423668	-0.228044
C	-1.2518856457	-0.6153251004	 0.0100862438	-0.149453
C	-1.108762167	-2.1022545612	 0.0016738562	 0.274585
C	 0.0335517247	-2.7948727476	-0.0095495708	-0.158869
C	-0.1850195388	-4.2821184924	-0.0154450849	-0.370585
C	-1.7163743297	-4.4165698169	-0.0056195914	 0.398433
O	-2.3391373375	-5.4446268676	-0.0063924691	-0.301962
C	-2.3196143768	-3.0005047441	 0.0054505007	-0.424894
H	 0.960989151	 1.7867186528	 0.0055802326	 0.130411
H	-0.5917927592	 1.791925854	-0.8741004036	 0.106169
H	-0.5778151241	 1.7824621011	 0.909503382	 0.106171
H	-1.8341997175	-0.3013534886	 0.8978409698	 0.094667
H	-1.8476222967	-0.2926279857	-0.8655453358	 0.094651
H	 1.0137439572	-2.3367231435	-0.0140095187	 0.113172
H	 0.2280814396	-4.7897116067	-0.8972311376	 0.136253
H	 0.2400848848	-4.7984258996	 0.8555090563	 0.136251
H	-2.9621184901	-2.8750776356	 0.8875220056	 0.134158
H	-2.9739306137	-2.8664074329	-0.8666088221	 0.134166
48.081	75.2407	107.4986	131.6931	220.5281	237.6867	331.9367	353.9431	424.2612	477.1364	497.7146	627.3707	708.994	784.7857	811.3941	834.5076	904.7404	985.9829	997.1279	1013.0684	1045.1231	1115.3162	1129.5278	1154.048	1177.3444	1180.6682	1188.3234	1228.4088	1259.0582	1274.0453	1288.2297	1325.5369	1430.5243	1443.0274	1447.5604	1479.0594	1484.9791	1496.5066	1520.1214	1718.2003	1854.995	2917.4875	2927.283	2970.6311	3014.4021	3018.2878	3023.4099	3045.7079	3048.3979	3117.6301	3224.8614
COCC1=CCC(=O)C1	COCC1=CCC(=O)C1	
InChI=1S/C7H10O2/c1-9-5-6-2-3-7(8)4-6/h2H,3-5H2,1H3	InChI=1S/C7H10O2/c1-9-5-6-2-3-7(8)4-6/h2H,3-5H2,1H3
