19
gdb 88478	3.15537	1.15628	1.09769	1.7051	71.29	-0.2306	0.0471	0.2778	1180.1952	0.15806	-460.112197	-460.103418	-460.102473	-460.145923	33.547	
O	 0.2543292663	 1.3611640949	 0.1050434557	-0.434333
C	 0.0410949938	-0.0127791733	 0.0251433901	 0.132904
C	-0.4628556114	-0.8275553809	 1.1895362936	-0.356021
C	-1.3402873215	-0.6235905402	-0.0373443814	-0.082247
C	-2.5857196785	 0.225758817	 0.0268916579	 0.306788
O	-2.3789200405	 1.267697142	 0.9665482824	-0.481285
C	-3.1546312701	 0.6264399482	-1.3622289427	-0.122529
O	-4.2183101318	-0.3372958267	-1.237359219	-0.269068
C	-3.9128457569	-0.5688756185	 0.1511442141	-0.12059
H	-0.5196125604	 1.7436450522	 0.5407851422	 0.290515
H	 0.8015239829	-0.4649881873	-0.6040732618	 0.103294
H	-0.0463168521	-1.8117819331	 1.3754090702	 0.110044
H	-0.7441451175	-0.275205772	 2.0793855188	 0.127403
H	-1.4655413591	-1.4731856469	-0.7032135298	 0.096962
H	-3.1505137162	 1.8439468582	 0.9652569359	 0.289868
H	-3.5307024622	 1.660636166	-1.3986141923	 0.087806
H	-2.5215403127	 0.443226565	-2.2363362386	 0.11872
H	-3.842339015	-1.634213315	 0.3944402703	 0.113972
H	-4.640415437	-0.0901874796	 0.8244194241	 0.087798
62.4137	81.965	182.8039	239.4747	283.8676	319.0663	355.1008	411.5909	425.1811	479.5164	503.4456	589.978	712.8126	775.3112	799.7022	835.6516	883.4538	940.8476	977.6605	999.1531	1024.0807	1033.3312	1045.5186	1068.1652	1087.4482	1111.4972	1131.7635	1144.1994	1147.5423	1160.636	1220.9206	1240.773	1292.1838	1330.8786	1358.4201	1373.9878	1433.0508	1461.4647	1497.9852	1501.294	1528.3912	2977.7706	2989.4671	3070.9247	3074.9685	3132.217	3142.5001	3160.227	3224.4062	3741.9376	3813.5365
OC1CC1C1(O)COC1	O[C@H]1C[C@H]1C1(O)COC1	
InChI=1S/C6H10O3/c7-5-1-4(5)6(8)2-9-3-6/h4-5,7-8H,1-3H2	InChI=1S/C6H10O3/c7-5-1-4(5)6(8)2-9-3-6/h4-5,7-8H,1-3H2/t4-,5+/m1/s1
