18
gdb 8529	3.35371	2.20806	1.61612	1.7167	71.86	-0.2505	0.0629	0.3133	840.5906	0.153399	-347.730213	-347.722819	-347.721874	-347.761538	28.892	
C	-0.0320695733	 1.503315192	-0.0843473996	-0.525807
C	-0.0023810006	-0.0040221104	-0.0494269257	 0.342875
C	 0.5588736367	-0.9217138143	-1.1585075958	-0.304338
C	 0.0691415136	-1.8960878893	-0.0768723663	-0.039416
C	 0.5369089222	-0.9617440962	 1.0908426223	-0.139411
C	-0.8435719675	-1.0839314522	 1.7703621489	 0.146986
O	-1.3091735897	-0.1180290856	 2.6772930707	-0.445713
C	-1.1803338631	-1.0146910647	 0.2656401677	-0.139427
H	 0.9822070616	 1.9075172857	-0.1784082691	 0.126725
H	-0.6112863453	 1.8583903737	-0.9442386831	 0.126723
H	-0.4766049158	 1.950385045	 0.8119497274	 0.105791
H	 0.0181806213	-0.9267317474	-2.1115034519	 0.088637
H	 1.6397829772	-0.8767371759	-1.3322550312	 0.088639
H	 0.0952683603	-2.985816101	-0.0613303811	 0.072292
H	 1.5351728613	-0.9376645092	 1.5328969092	 0.067357
H	-1.0412505793	-2.05127731	 2.2438134544	 0.080945
H	-1.157264944	 0.7551853201	 2.3046367033	 0.279785
H	-2.1488874255	-1.0512557604	-0.2374413103	 0.067356
99.8912	198.5807	207.936	276.5685	317.054	350.7935	457.5038	524.7529	638.8536	705.0985	774.8897	845.0465	846.4183	870.4535	907.9704	915.4163	944.8597	990.3443	1013.6265	1061.0588	1061.4589	1089.8406	1124.8097	1136.4544	1150.5875	1153.1694	1187.4732	1223.6718	1238.0965	1257.1431	1284.41	1293.6842	1340.8342	1412.0849	1451.7296	1476.1337	1493.6036	1509.5631	3022.1041	3026.8288	3060.6414	3081.7901	3083.2936	3090.8004	3091.3856	3094.5469	3114.7238	3836.3422
CC12CC3C1C(O)C23	C[C@@]12C[C@H]3[C@@H]1[C@@H](O)[C@@H]23	
InChI=1S/C7H10O/c1-7-2-3-4(7)6(8)5(3)7/h3-6,8H,2H2,1H3	InChI=1S/C7H10O/c1-7-2-3-4(7)6(8)5(3)7/h3-6,8H,2H2,1H3/t3-,4+,5-,6+,7+
