16
gdb 16493	2.86036	2.61844	1.78468	0.7939	62.96	-0.2192	0.0693	0.2884	777.379	0.129645	-383.66465	-383.657654	-383.65671	-383.695365	27.556	
C	 0.0277268861	 1.604367042	-0.0834089332	-0.429914
C	 0.054693079	 0.0866056766	 0.0009984901	-0.041146
C	 1.1320493248	-0.7033044639	-0.8030024546	 0.047851
O	 2.401673008	-0.1125915589	-0.3871470478	-0.289544
C	 2.17827294	-0.7515663629	 0.8692864805	 0.009652
C	 1.2048686456	-1.7640576996	 0.3547611415	-0.191025
C	 0.6754566563	-0.6274565379	 1.2106067385	 0.318177
O	 0.1732283084	-0.7483314972	 2.4877078229	-0.457502
H	 1.0392550205	 2.0082358397	 0.0074202815	 0.132906
H	-0.3915145934	 1.9418203559	-1.0376196111	 0.114584
H	-0.5916367837	 2.0289388894	 0.7145379595	 0.111094
H	-0.928170293	-0.3544902493	-0.1979474332	 0.080777
H	 1.0611956208	-0.8774956874	-1.8742958375	 0.086213
H	 2.9773566982	-0.8094061769	 1.5971817765	 0.109794
H	 1.1295660006	-2.8402727775	 0.4123803998	 0.106752
H	 0.4440463617	 0.0229959378	 2.9980483766	 0.291331
186.6885	208.9817	216.9708	271.7949	342.145	374.4311	552.274	584.7143	639.6263	714.4078	762.4326	799.8338	832.9744	858.6562	908.1179	940.385	948.3529	980.8758	1030.2272	1062.5039	1106.1828	1123.1572	1132.8812	1142.7132	1194.4809	1218.0323	1278.2028	1297.5009	1311.9931	1375.5406	1402.2422	1443.5872	1493.2521	1503.4422	3031.9567	3055.558	3091.0398	3123.4639	3146.2875	3203.0346	3223.0959	3793.5502
CC1C2OC3C2C13O	C[C@H]1[C@H]2O[C@@H]3[C@H]2[C@]13O	
InChI=1S/C6H8O2/c1-2-4-3-5(8-4)6(2,3)7/h2-5,7H,1H3	InChI=1S/C6H8O2/c1-2-4-3-5(8-4)6(2,3)7/h2-5,7H,1H3/t2-,3-,4+,5+,6+/m0/s1
