18
gdb 103580	2.77456	1.30966	1.13405	3.9099	76.7	-0.2469	-0.0387	0.2082	1143.6362	0.147486	-439.108863	-439.100281	-439.099337	-439.141934	32.829	
C	-0.0547324445	 1.5798526438	 0.0193015951	-0.418625
C	-0.0236974147	 0.0516235368	 0.0798344394	 0.265709
C	-1.4446292405	-0.5517988763	 0.0254435645	-0.071942
O	-2.1168070818	-0.1873227154	-1.1582900806	-0.416277
O	 0.6650550906	-0.4461654353	-1.092943532	-0.259019
C	 1.7310298896	-1.2249421933	-0.7312101186	 0.370549
N	 2.4413344734	-1.7754232611	-1.6242347797	-0.525996
C	 1.793118485	-1.2296050486	 0.7437007414	-0.196338
C	 0.7895930471	-0.4951776323	 1.2209847523	-0.117162
H	 0.9577092367	 1.978071738	-0.0781498142	 0.128952
H	-0.6545485887	 1.8993724726	-0.8350596894	 0.146765
H	-0.5068174867	 1.9852749269	 0.929966296	 0.117974
H	-1.3626648578	-1.643973683	 0.1291059649	 0.096723
H	-2.0411583148	-0.1731396248	 0.862135463	 0.109781
H	-1.5611610002	-0.4855962676	-1.8890104144	 0.298564
H	 3.1904627364	-2.312019324	-1.1911326488	 0.221841
H	 2.5540974361	-1.7607201889	 1.2987544884	 0.123687
H	 0.5515433948	-0.2943765676	 2.2578388328	 0.124815
91.2998	129.4009	182.6735	230.2271	258.5244	315.6587	350.5401	415.7435	468.1038	490.6161	525.6205	640.1018	701.1725	735.161	793.6992	837.8424	853.5943	899.8615	932.6545	959.8557	964.3224	978.3766	1064.2881	1075.2927	1094.9983	1146.4223	1195.1963	1207.398	1257.7995	1333.4772	1370.3101	1386.0602	1404.8607	1428.5479	1481.8834	1494.0903	1497.9211	1656.6494	1744.5982	2994.8701	3048.5019	3078.9019	3123.0937	3145.0617	3213.6292	3240.5439	3511.0749	3788.486
CC1(CO)OC(=N)C=C1	C[C@@]1(CO)OC(=C[CH]1)[NH]	
InChI=1S/C6H9NO2/c1-6(4-8)3-2-5(7)9-6/h2-3,7-8H,4H2,1H3	InChI=1S/C6H9NO2/c1-6(4-8)3-2-5(7)9-6/h2-3,7-8H,4H2,1H3/t6-/m1/s1
