15
gdb 124253	2.84496	1.53059	1.00136	0.8541	69.93	-0.2344	-0.0374	0.197	1109.9976	0.113453	-454.00424	-453.996286	-453.995342	-454.037232	29.02	
C	 0.1217006349	 1.4715633696	 0.0068395656	-0.489503
C	 0.0230072044	-0.0355880278	 0.0368741953	 0.327076
O	 1.0439273592	-0.7365657614	 0.0733212294	-0.404379
C	-1.2717304701	-0.670509234	 0.0252107001	-0.033589
C	-1.3658919822	-2.0688091503	 0.0555788581	 0.449064
O	-0.3923762444	-2.9580140622	 0.0953652183	-0.405964
N	-2.6702767434	-2.3761866301	 0.0368621698	-0.288551
N	-3.4737329842	-1.2583389492	-0.0051972778	-0.225645
C	-2.6304234811	-0.245841928	-0.0118957764	-0.101528
H	 1.1702211689	 1.7705380852	-0.0001679148	 0.146058
H	-0.382008738	 1.8700907263	-0.8803332494	 0.14509
H	-0.3768947903	 1.9017076254	 0.8823517824	 0.146192
H	 0.4270399822	-2.3925486012	 0.0982150342	 0.329908
H	-3.0875206237	-3.2916806548	 0.0495852045	 0.283954
H	-3.0160080222	 0.7632715725	-0.0429084093	 0.121814
69.1478	121.337	181.2849	192.3699	306.8752	324.1338	475.3713	508.5541	524.0579	587.1251	650.9686	667.773	742.4725	748.8075	846.773	894.4637	939.1524	964.1264	1046.3306	1061.7431	1112.1972	1224.0702	1278.4886	1318.5674	1356.1292	1381.7428	1455.1958	1467.0524	1474.7116	1499.0148	1594.4363	1617.5199	1705.0878	3040.716	3102.1259	3155.6344	3240.3327	3249.2058	3674.8861
CC(=O)C1=C(O)NN=C1	CC(=O)c1c(O)[nH]nc1	
InChI=1S/C5H6N2O2/c1-3(8)4-2-6-7-5(4)9/h2H,1H3,(H2,6,7,9)	InChI=1S/C5H6N2O2/c1-3(8)4-2-6-7-5(4)9/h2H,1H3,(H2,6,7,9)
