17
gdb 41123	3.8543	1.98042	1.5644	1.4294	74.85	-0.2131	0.0004	0.2135	849.6897	0.138529	-384.622755	-384.616995	-384.616051	-384.652409	25.503	
C	-0.0180087998	 1.5517356292	-0.0338145924	-0.115514
O	 1.4078676889	 1.8448127228	-0.0300721663	-0.349545
C	 1.9360406709	 0.5551819121	 0.022117534	 0.480111
C	 3.3751869327	 0.1009252266	 0.0531403902	-0.21985
C	 3.2420811303	-1.2316672449	 0.100241909	-0.088661
C	 1.7232042493	-1.4822042338	 0.0939964417	-0.127745
C	 1.1161408443	-0.3617044791	 0.9969672578	-0.085647
C	-0.0337597885	 0.0086015858	 0.0220924979	-0.122809
C	 1.1352901139	-0.4306264269	-0.899958206	-0.085647
H	-0.4868730028	 2.0240477886	 0.8372862529	 0.107704
H	-0.4688726738	 1.9592508571	-0.9461642079	 0.107704
H	 4.260274157	 0.7184499022	 0.0396296644	 0.114373
H	 4.0152877712	-1.9863442993	 0.1354826887	 0.105695
H	 1.345155281	-2.502599226	 0.1272537426	 0.066563
H	 1.122322117	-0.3080001575	 2.0885212885	 0.071191
H	-1.0008509139	-0.4936600147	 0.0305806502	 0.070886
H	 1.1635197623	-0.4562678721	-1.9921844853	 0.071191
262.1642	392.4712	413.5499	414.8446	534.4439	658.8658	672.8642	721.806	736.9602	791.2677	796.814	835.1684	893.8315	896.8925	898.6327	922.4442	935.708	952.8944	978.3704	1005.5496	1022.1229	1065.7778	1072.653	1106.6283	1144.9178	1160.8648	1181.7685	1198.1391	1212.5049	1228.9119	1257.2593	1291.7863	1300.3835	1339.974	1380.6607	1512.6718	1606.2514	3027.3226	3070.2128	3083.6324	3086.8118	3122.8387	3132.681	3226.4264	3258.4271
C1OC23C=CC4C2C1C34	C1O[C@@]23C=C[C@H]4[C@@H]2[C@@H]1[C@@H]34	
InChI=1S/C8H8O/c1-2-8-6-4(1)7(8)5(6)3-9-8/h1-2,4-7H,3H2	InChI=1S/C8H8O/c1-2-8-6-4(1)7(8)5(6)3-9-8/h1-2,4-7H,3H2/t4-,5+,6+,7-,8-
