17
gdb 127836	3.8917	1.13567	0.8888	4.9263	86.71	-0.2089	-0.0481	0.1609	1300.1104	0.135461	-414.167366	-414.158389	-414.157444	-414.201643	32.057	
C	 0.0274614322	 1.4380511144	 0.0489866603	-0.327771
N	 0.0998311394	-0.0099363043	 0.0475235934	-0.310457
C	 0.5864592711	-0.6392226175	-0.9522814328	 0.41105
C	 0.6632111225	-2.0893147235	-0.9628775852	-0.31096
C	 1.1810014094	-2.724574475	-2.0300721562	 0.447698
C	 1.3306787234	-4.2049528614	-2.1966103985	-0.492591
N	 1.6192009147	-1.9367760252	-3.0775884212	-0.312751
N	 1.5632543131	-0.5795936198	-3.1025997591	-0.042751
N	 1.0847400381	 0.0396989025	-2.1197659081	-0.260362
H	 0.5778034188	 1.8178214678	 0.919345711	 0.117922
H	 0.4141240044	 1.9212175234	-0.853598902	 0.130385
H	-1.0181673388	 1.7387603576	 0.1933731448	 0.117915
H	 0.2979666723	-2.634183711	-0.1020074339	 0.117934
H	 0.7760913962	-4.5624412427	-3.0722601805	 0.144462
H	 2.3821361927	-4.4828891376	-2.3356526389	 0.144595
H	 0.9517913784	-4.7233854907	-1.3144816988	 0.153178
H	 2.0198404322	-2.327996607	-3.9143779244	 0.272504
64.4349	79.0009	130.6504	155.8563	224.5958	285.0891	328.7135	388.9299	465.0637	507.7419	517.5481	586.921	621.1092	733.8607	779.0314	883.1252	887.6012	970.6421	1014.49	1064.0892	1066.4059	1080.6747	1127.5155	1137.0267	1221.4266	1252.2019	1362.1339	1413.823	1423.2297	1430.0662	1475.7594	1486.7318	1491.3381	1496.0456	1601.4939	1690.6445	1728.935	3009.9128	3029.1422	3055.3668	3082.228	3096.0847	3140.7121	3218.6309	3654.6829
CN=C1C=C(C)NN=N1	C[N]c1cc(C)[nH]nn1	
InChI=1S/C5H8N4/c1-4-3-5(6-2)8-9-7-4/h3H,1-2H3,(H,6,7,8)	InChI=1S/C5H13N4/c1-4-3-5(6-2)8-9-7-4/h4-5,7-9H,3H2,1-2H3
