19
gdb 74140	2.4921	1.44505	1.14266	5.867	79.44	-0.2183	0.0023	0.2206	1138.9674	0.159278	-419.27143	-419.262211	-419.261266	-419.304559	35.849	
C	-0.0807289526	 1.566142727	 0.0907260204	-0.408872
C	 0.0011457063	 0.029077954	 0.0212561597	 0.174323
C	-1.4056015467	-0.5920049276	-0.0849360603	-0.404306
N	 0.8605156895	-0.3897984712	-1.0772667763	-0.366843
C	 1.8631780112	-1.27339324	-0.6743755593	 0.416325
O	 2.6023173189	-1.8760509647	-1.4258147218	-0.399808
C	 1.8126059074	-1.2852334352	 0.7976524023	-0.372484
C	 0.7611958402	-0.5532993617	 1.2136355335	 0.368663
N	 0.288252871	-0.3463716806	 2.4840842087	-0.588251
H	 0.9190965307	 1.9981291736	 0.1775876793	 0.134313
H	-0.5454627191	 1.9574150516	-0.8194005012	 0.122866
H	-0.6895436799	 1.9054687299	 0.9369400244	 0.102829
H	-1.9240942631	-0.2101529701	-0.970849603	 0.116374
H	-1.3360277505	-1.679957684	-0.1613368848	 0.136072
H	-2.0126326281	-0.3472144682	 0.7919690596	 0.116422
H	 0.5076825172	-0.4535849264	-2.0192348215	 0.238083
H	 2.5240195462	-1.8276271964	 1.4030359452	 0.098552
H	 0.9176353396	-0.5618939328	 3.242023941	 0.260908
H	-0.2564383183	 0.4869035828	 2.6424309642	 0.254833
101.0965	177.1414	217.7726	232.2963	261.8483	281.4962	322.5324	361.4938	374.538	425.1554	449.0004	507.4476	558.7082	589.4564	623.4866	681.3217	733.8203	747.2448	831.5488	930.9563	937.9629	949.1561	998.4455	1021.2331	1086.1289	1176.3171	1181.3709	1219.607	1244.1072	1312.1338	1367.4483	1396.3561	1400.3446	1428.337	1477.2251	1485.397	1501.4038	1504.8101	1641.6294	1696.3412	1814.5713	3030.248	3037.8387	3096.0875	3106.8409	3125.3596	3127.248	3240.5924	3580.6239	3637.7387	3683.7931
CC1(C)NC(=O)C=C1N	CC1(C)NC(=O)C=C1N	
InChI=1S/C6H10N2O/c1-6(2)4(7)3-5(9)8-6/h3H,7H2,1-2H3,(H,8,9)	InChI=1S/C6H10N2O/c1-6(2)4(7)3-5(9)8-6/h3H,7H2,1-2H3,(H,8,9)
