21
gdb 87403	2.09909	1.49268	1.12346	1.9552	78.74	-0.2474	0.0759	0.3233	1212.7418	0.179632	-424.203538	-424.193773	-424.192829	-424.237966	36.221	
C	 0.0214168007	 1.5247073359	-0.3303301084	-0.417796
C	 0.0154445399	 0.0392155601	-0.0786540861	-0.013959
O	 1.2901927045	-0.6333639582	-0.1378661703	-0.290097
C	 0.6049284951	-0.6073229268	 1.0969110816	 0.309212
C	 1.1809947866	-0.0850578086	 2.4186166466	 0.076512
C	 0.6932645094	 1.2139231239	 3.0306928597	-0.406181
O	 0.6312131807	-1.2424481828	 3.1007108014	-0.322185
C	 0.1896717448	-1.8621491575	 1.8654630608	 0.084735
C	-1.268125152	-2.2745225882	 1.9042840181	-0.40794
H	 0.8634840969	 2.0059139184	 0.1711634442	 0.129768
H	 0.1037471554	 1.7244027282	-1.4037597196	 0.130444
H	-0.9081522565	 1.9814020985	 0.025559677	 0.124774
H	-0.7810948086	-0.5074220875	-0.5883787182	 0.092267
H	 2.280144446	-0.1216440411	 2.4145579538	 0.08662
H	-0.3940222725	 1.3036762885	 2.9534204258	 0.117728
H	 0.963745283	 1.2382169845	 4.091016935	 0.131264
H	 1.1562058455	 2.0781529417	 2.5447306167	 0.119972
H	 0.8291377989	-2.7190940392	 1.6083336361	 0.08624
H	-1.9125932136	-1.4160070134	 2.1146494908	 0.117579
H	-1.5670388488	-2.7154533508	 0.9471636033	 0.120322
H	-1.4272161654	-3.0239650655	 2.6857965416	 0.130722
68.6132	127.4433	155.955	189.7391	213.6371	233.1261	249.0002	275.7872	356.9011	406.8493	454.9577	495.0455	540.693	580.7472	738.3005	802.4294	872.9618	874.3016	918.5329	942.8679	1023.3472	1027.4338	1065.9448	1095.9732	1107.4186	1126.7001	1131.0304	1152.6239	1161.3431	1198.7778	1268.0354	1307.7404	1352.6853	1366.4717	1398.9517	1400.7094	1407.8887	1414.0242	1469.9005	1480.4481	1486.0076	1491.0433	1492.6803	1498.8096	1532.7456	2997.3574	3003.5534	3035.5732	3038.8895	3041.325	3083.6193	3101.9939	3107.3872	3111.7823	3116.1012	3119.2232	3135.8349
CC1OC11C(C)OC1C	C[C@H]1O[C@]21[C@@H](C)O[C@H]2C	
InChI=1S/C7H12O2/c1-4-7(5(2)8-4)6(3)9-7/h4-6H,1-3H3	InChI=1S/C7H12O2/c1-4-7(5(2)8-4)6(3)9-7/h4-6H,1-3H3/t4-,5+,6-,7-/m1/s1
