19
gdb 54683	3.32257	1.20743	0.92013	2.2142	79.05	-0.2207	-0.0454	0.1753	1278.2964	0.160224	-419.254414	-419.245395	-419.244451	-419.288954	32.742	
C	 0.0281978693	 1.44903878	 0.0614559756	-0.471198
C	 0.0077518784	-0.0545412955	 0.1621997717	 0.360975
O	 1.014039484	-0.7306844551	 0.2332547498	-0.323626
C	-1.3464540538	-0.7354479488	 0.1705634526	 0.260028
N	-2.4070106811	-0.0153616773	 0.0871634446	-0.316113
C	-3.6747624379	-0.7405936792	 0.0875631949	-0.155718
C	-3.5715370435	-2.1645645156	-0.4803351246	-0.216802
C	-2.4470761915	-2.9302913782	 0.2254788302	-0.153435
N	-1.2657622845	-2.0900250812	 0.2698709854	-0.330774
H	 1.0603365662	 1.7992435111	 0.0934967538	 0.130977
H	-0.4569003587	 1.767608425	-0.865574978	 0.154649
H	-0.5569301231	 1.8880661967	 0.8738316728	 0.155429
H	-4.0593480315	-0.7769567259	 1.1183093669	 0.106858
H	-4.4037248585	-0.1569602182	-0.4853303844	 0.105682
H	-4.5193198424	-2.6989684438	-0.3665489483	 0.102112
H	-3.3511915029	-2.1081616452	-1.5523431327	 0.112535
H	-2.7623177364	-3.2136604964	 1.2406493605	 0.108848
H	-2.2121478053	-3.857792608	-0.307733526	 0.111579
H	-0.3338664266	-2.4736774044	 0.2976084054	 0.257992
55.6735	76.2808	101.9629	176.8171	209.9081	291.4144	353.1484	453.7085	467.66	513.0433	527.7104	562.8719	630.7797	719.2543	823.6157	865.1564	884.1235	938.0341	964.1003	992.7268	1039.3102	1088.6138	1095.2909	1131.869	1196.405	1217.4348	1236.6437	1293.799	1299.7381	1349.0221	1361.4529	1386.26	1399.3958	1452.3787	1459.2314	1481.6148	1484.9685	1508.9606	1544.6803	1704.3828	1786.5294	2987.5323	2994.5696	3039.8386	3056.1649	3057.7839	3063.0723	3094.1177	3123.3644	3161.0395	3626.8238
CC(=O)C1=NCCCN1	CC(=O)C1=NCCCN1	
InChI=1S/C6H10N2O/c1-5(9)6-7-3-2-4-8-6/h2-4H2,1H3,(H,7,8)	InChI=1S/C6H10N2O/c1-5(9)6-7-3-2-4-8-6/h2-4H2,1H3,(H,7,8)
