13
gdb 131284	3.06389	1.30462	1.04605	3.728	63.3	-0.2594	-0.0033	0.256	1091.2885	0.091204	-448.956813	-448.949158	-448.948214	-448.990333	26.938	
O	 0.0261964733	 1.336636952	 0.0979384023	-0.418262
C	 0.0410066249	 0.0076134609	-0.0218503221	 0.477113
N	 0.05444872	-0.7051570905	-1.1230220211	-0.371223
C	 0.0643260064	-1.9830950443	-0.6321369644	 0.046523
N	 0.0541700042	-2.094135846	 0.6791258272	-0.253124
N	 0.0307288438	-0.7791016057	 1.0750715164	-0.024659
C	 0.0571632118	-0.4095910422	 2.4707633082	-0.289767
C	 1.4183047728	-0.3279243404	 3.0225929598	 0.279128
N	 2.4812901216	-0.2511550207	 3.4659812147	-0.28824
H	 0.0307225541	 1.7047868251	-0.7951878358	 0.328489
H	 0.0740965268	-2.8523684314	-1.2723041478	 0.138808
H	-0.4327026813	 0.5612534343	 2.5862257789	 0.186064
H	-0.5150205083	-1.1551186809	 3.0285461835	 0.18915
31.2162	85.4494	237.6331	256.783	323.7348	364.2292	411.9235	452.1209	527.9293	669.571	717.2685	742.7497	809.3281	910.716	930.1118	944.8282	981.9195	1113.9854	1181.8122	1230.0154	1289.0901	1325.7572	1337.9806	1385.7219	1444.4558	1471.6939	1594.577	1622.4644	2371.8287	3075.3388	3125.2767	3264.3532	3802.2382
OC1=NC=NN1CC#N	Oc1ncnn1CC#N	
InChI=1S/C4H4N4O/c5-1-2-8-4(9)6-3-7-8/h3H,2H2,(H,6,7,9)	InChI=1S/C4H4N4O/c5-1-2-8-4(9)6-3-7-8/h3H,2H2,(H,6,7,9)
