14
gdb 25270	3.25729	1.77294	1.15872	3.8871	69.4	-0.2103	-0.0401	0.1702	965.9137	0.104613	-432.923379	-432.916811	-432.915867	-432.954465	25.294	
O	-0.0150521162	-0.032608344	-0.0206961033	-0.331657
C	-0.0356988842	 1.1663919535	-0.0173926923	 0.418411
C	-1.2575289009	 2.1037896639	 0.0126818967	-0.301417
N	-0.7180498532	 3.462973848	-0.1375050463	-0.423235
C	 0.6702644432	 3.366428611	-0.0397219288	 0.347158
C	 1.8171807075	 4.10110185	 0.0042013747	-0.199282
N	 2.9117829604	 3.2326858301	 0.0321345037	-0.25454
C	 2.4458760836	 2.0182145719	-0.0004430691	 0.000687
N	 1.0576972837	 2.0358229421	-0.0401443958	-0.09546
H	-1.9419094653	 1.8390472213	-0.7993469417	 0.158921
H	-1.7870692114	 1.9543644913	 0.9613359105	 0.152379
H	-1.1504896367	 4.1729805321	 0.4354113568	 0.257194
H	 1.947304461	 5.170205773	 0.0216624187	 0.114537
H	 3.0091000587	 1.0995356359	-0.0057236639	 0.156304
139.6191	154.9904	285.494	307.8256	532.4242	553.1223	568.7853	639.435	663.3041	679.3821	700.0327	782.6867	789.1914	798.5168	944.637	988.9075	1052.0801	1068.1686	1098.579	1166.8128	1196.7706	1244.5373	1265.9227	1297.9686	1373.8232	1395.8141	1440.4206	1479.5846	1521.9542	1642.6609	1868.6485	3040.706	3085.7052	3272.2687	3279.6944	3599.4659
O=C1CNC2=CN=CN12	O=C1CNc2cncn12	
InChI=1S/C5H5N3O/c9-5-2-7-4-1-6-3-8(4)5/h1,3,7H,2H2	InChI=1S/C5H5N3O/c9-5-2-7-4-1-6-3-8(4)5/h1,3,7H,2H2
