19
gdb 113906	2.78896	1.03232	0.92019	2.3798	73.43	-0.2506	0.02	0.2706	1380.3332	0.155726	-460.165657	-460.155537	-460.154593	-460.202226	34.918	
C	-0.1965648049	 1.066365939	-0.0366960413	-0.230361
O	-0.5497077537	-0.1540890672	-0.6577565162	-0.232596
C	 0.4859101952	-0.7124077036	-1.3894296292	 0.099074
C	 1.5141659784	-1.5735647171	-0.67345528	-0.369785
C	 0.4646061091	-2.2016917725	-1.5446386165	 0.102035
O	-0.5309310559	-2.9201883459	-0.8530494595	-0.24014
C	-1.6841711785	-3.1286316311	-1.541903475	 0.441356
C	-2.6965121708	-3.8213618215	-0.6643391896	-0.482031
O	-1.8430744858	-2.8053268465	-2.6888098201	-0.348315
H	 0.6309076636	 0.9345839163	 0.6750628854	 0.109975
H	 0.0991075237	 1.8250399868	-0.7766239901	 0.109426
H	-1.0798896725	 1.4200114642	 0.4996632937	 0.129767
H	 0.8156851772	-0.1211438434	-2.2451895218	 0.092937
H	 2.5462409856	-1.5766970481	-1.005342566	 0.118608
H	 1.3649982995	-1.6945663006	 0.393912835	 0.132603
H	 0.7250487836	-2.6282711866	-2.5063835465	 0.118482
H	-2.9769143507	-3.160469201	 0.1611854932	 0.154976
H	-3.5781664738	-4.0695940055	-1.2537936361	 0.146773
H	-2.2661075492	-4.7259669958	-0.2267348294	 0.147215
40.9899	60.6896	88.9035	102.4394	161.3626	197.3042	205.5843	309.3601	342.2219	413.8389	471.5348	584.3489	613.9935	690.7716	770.37	817.3973	850.8526	930.6398	993.6061	1029.5211	1044.54	1059.3092	1066.0947	1103.902	1119.1808	1160.6321	1164.2346	1182.0441	1222.7494	1251.9498	1268.7087	1371.5848	1393.461	1405.4393	1467.825	1469.9763	1476.1988	1485.1259	1490.9967	1508.033	1836.6951	2985.3695	3037.215	3057.8255	3089.4409	3121.7224	3123.5566	3137.4866	3169.7463	3177.0804	3231.8104
COC1CC1OC(C)=O	CO[C@H]1C[C@H]1OC(=O)C	
InChI=1S/C6H10O3/c1-4(7)9-6-3-5(6)8-2/h5-6H,3H2,1-2H3	InChI=1S/C6H10O3/c1-4(7)9-6-3-5(6)8-2/h5-6H,3H2,1-2H3/t5-,6+/m0/s1
