25
gdb 122139	2.58925	0.71254	0.6062	2.0677	86.4	-0.249	0.0743	0.3232	1968.0588	0.2267	-426.622671	-426.610996	-426.610052	-426.660525	41.22	
C	-0.1114631457	 1.5769787087	 0.0355542471	-0.379432
C	 0.0091698895	 0.0506953861	 0.0318176693	-0.163615
C	 0.7050701693	-0.493646112	-1.2202535462	-0.165379
C	 0.8225704372	-2.0202628935	-1.2270936366	-0.1847
C	 1.5039499859	-2.58137	-2.4753958573	 0.077236
C	 1.6063973483	-4.1128660809	-2.4524182697	-0.06639
O	 0.3241230231	-4.708715763	-2.4811944038	-0.4218
O	 0.7145337781	-2.1963083719	-3.6077198382	-0.255671
C	 1.4317146904	-2.0792895504	-4.8187998009	-0.240118
H	 0.8750973069	 2.0522486723	-0.0068319188	 0.111133
H	-0.6836390774	 1.929715658	-0.8297952231	 0.113338
H	-0.6155914777	 1.9376047442	 0.9377092441	 0.109778
H	 0.5580707098	-0.276213597	 0.9252007039	 0.091379
H	-0.9903533731	-0.3967944025	 0.1118262926	 0.095974
H	 0.158143692	-0.1755196141	-2.1149219183	 0.107338
H	 1.7077107194	-0.0485377399	-1.29875807	 0.082181
H	 1.3945468383	-2.3552801558	-0.3519729184	 0.091968
H	-0.1686930648	-2.4796044128	-1.1421754581	 0.11074
H	 2.5142649025	-2.1506998476	-2.5706148194	 0.062011
H	 2.2232190763	-4.4570151622	-3.2990271321	 0.080971
H	 2.1031537763	-4.4442382441	-1.5340650952	 0.104818
H	-0.1699663	-4.2154776987	-3.1488637665	 0.285824
H	 0.7191356139	-1.763029434	-5.5848239633	 0.129445
H	 2.2275760428	-1.323961252	-4.741014835	 0.111628
H	 1.8872286386	-3.0281290267	-5.136667776	 0.111343
66.8251	71.7176	76.1812	96.0877	143.1729	148.359	194.432	241.0622	254.5631	285.4349	323.2343	330.2863	434.0618	473.8891	521.9009	676.4783	737.6717	779.0331	848.2383	899.4454	919.9208	924.8044	990.2734	1031.1294	1069.6387	1078.5434	1092.3082	1122.2466	1143.5129	1162.7475	1185.3797	1222.3292	1229.8713	1252.5636	1264.6176	1315.7205	1324.0558	1331.6792	1368.8762	1373.5552	1397.2236	1408.6327	1415.8542	1433.2138	1479.0714	1482.33	1487.9092	1488.4178	1499.5612	1501.0671	1509.3755	1514.3073	1516.399	2961.1815	2974.5005	2989.1248	3003.3766	3013.8903	3027.29	3028.4171	3036.6437	3040.8514	3064.5824	3070.0658	3083.3773	3095.3339	3100.3052	3112.5992	3768.8423
CCCCC(CO)OC	CCCC[C@@H](CO)OC	
InChI=1S/C7H16O2/c1-3-4-5-7(6-8)9-2/h7-8H,3-6H2,1-2H3	InChI=1S/C7H16O2/c1-3-4-5-7(6-8)9-2/h7-8H,3-6H2,1-2H3/t7-/m0/s1
