18
gdb 54477	3.24343	1.39852	1.12016	2.5697	77.3	-0.2343	-0.0177	0.2166	1107.3383	0.147693	-401.957935	-401.949736	-401.948791	-401.990961	31.194	
C	 0.6970351006	 0.2678423137	-0.9518733496	-0.479108
C	-0.1429072563	 0.286101536	 0.3074920924	 0.330478
O	 0.198547815	 0.8849652515	 1.3057227416	-0.314037
C	-1.4404234713	-0.4700431307	 0.2928342418	 0.203239
C	-2.4404686036	-0.2196018839	 1.4214166787	-0.34376
C	-3.1128029438	-1.557674895	 1.6189941158	-0.083758
C	-2.5727362658	-2.509709251	 0.8518737511	-0.084236
C	-1.5203827855	-1.9490815219	-0.0443690919	-0.098904
N	-1.9396595253	-0.9278189604	-1.0137778461	-0.365561
H	 1.6249258273	 0.8111031505	-0.7710106181	 0.13428
H	 0.9174292006	-0.7571756114	-1.2662565088	 0.139458
H	 0.1395736365	 0.724212453	-1.7753036213	 0.153819
H	-1.8983476499	 0.1123088083	 2.3137628341	 0.147591
H	-3.1516343644	 0.5798582567	 1.1758077856	 0.115341
H	-3.9457737768	-1.6963160621	 2.2988189857	 0.105654
H	-2.8540227483	-3.5558912507	 0.8372856824	 0.106104
H	-0.6594034395	-2.5402088996	-0.3402758926	 0.101404
H	-2.9567643594	-0.873751893	-1.0376846007	 0.231996
66.2528	118.0592	156.3727	207.5623	334.7515	343.1643	397.7754	495.5487	517.7021	583.5234	620.5419	722.7023	745.8094	758.9096	857.1532	888.7782	932.4042	947.8211	953.9867	985.7856	1013.5268	1015.2489	1052.0416	1098.9214	1131.565	1141.2471	1171.0296	1192.7684	1285.2778	1299.0356	1324.485	1366.4047	1381.5811	1411.8511	1453.5196	1468.4828	1471.1266	1659.5638	1788.4683	3030.696	3049.8718	3074.7935	3111.8362	3158.0152	3161.3834	3191.6761	3216.3603	3474.3386
CC(=O)C12CC=CC1N2	CC(=O)[C@]12CC=C[C@H]1N2	
InChI=1S/C7H9NO/c1-5(9)7-4-2-3-6(7)8-7/h2-3,6,8H,4H2,1H3	InChI=1S/C7H9NO/c1-5(9)7-4-2-3-6(7)8-7/h2-3,6,8H,4H2,1H3/t6-,7-/m1/s1
