17
gdb 126328	1.94907	1.75014	0.98736	2.6893	83.25	-0.2284	-0.0039	0.2245	1192.4076	0.136464	-380.868875	-380.860182	-380.859238	-380.902642	32.263	
C	 0.0233363218	 1.5576245653	 0.1171598427	-0.369706
C	-0.0568145404	 0.027133025	-0.021336879	-0.318271
C	 0.6482912205	-0.4935958282	-1.2373641391	 0.125644
C	 0.1080525277	-0.9089367364	-2.4345672983	-0.119224
N	 1.1473644627	-1.2704759003	-3.2305659197	-0.194232
N	 2.3431282062	-1.1267027992	-2.646840419	-0.292892
C	 2.0539820031	-0.650957553	-1.4269804189	 0.148785
C	 3.0699586287	-0.3666123942	-0.4797544819	 0.280983
C	 3.8949912286	-0.1122415188	 0.3594432898	-0.442611
H	 1.0648491447	 1.8856782543	 0.1788707399	 0.134347
H	-0.4354753245	 2.0538813154	-0.7438090901	 0.114459
H	-0.4940938263	 1.8935857767	 1.0213627301	 0.110285
H	 0.381043508	-0.4338906442	 0.8716825102	 0.117285
H	-1.1068275459	-0.2849415415	-0.0491806431	 0.099717
H	-0.9152236544	-0.9767908908	-2.7696501352	 0.136541
H	 1.1093132393	-1.6274485507	-4.170320323	 0.278133
H	 4.6355981001	 0.1067206603	 1.0880299546	 0.190757
50.7236	127.0494	157.5898	176.4949	227.3383	322.9631	382.1598	486.221	522.8599	542.3973	574.0062	594.5575	664.5518	667.5631	686.4504	760.7947	785.2274	800.7888	954.0669	967.4452	1061.3135	1083.0044	1095.556	1155.3989	1238.8752	1281.3383	1320.1732	1359.4779	1380.5609	1407.1718	1453.1841	1482.6436	1494.8353	1498.2649	1508.1328	1595.2647	2234.9585	3033.1853	3037.2855	3068.6801	3107.3632	3118.6635	3257.8078	3503.7983	3672.6217
CCC1=CNN=C1C#C	CCc1c[nH]nc1C#C	
InChI=1S/C7H8N2/c1-3-6-5-8-9-7(6)4-2/h2,5H,3H2,1H3,(H,8,9)	InChI=1S/C7H8N2/c1-3-6-5-8-9-7(6)4-2/h2,5H,3H2,1H3,(H,8,9)
