14
gdb 31373	4.15234	1.18272	0.92594	6.7959	68.23	-0.2459	-0.0373	0.2086	1180.0764	0.100971	-473.862679	-473.854804	-473.85386	-473.895927	27.841	
C	-0.0679345443	 1.4502434593	 0.0095899282	-0.249431
O	-0.0312364568	 0.0172376563	 0.0045814789	-0.255202
C	-1.1707663095	-0.6636017859	 0.0118729973	 0.515668
C	-1.2352196026	-2.0107945466	 0.009148177	-0.402763
C	-2.5257830935	-2.679519968	 0.0173979565	 0.39819
O	-2.6831376594	-3.8787321339	 0.0156686467	-0.34581
N	-3.6697815447	-1.8039081676	 0.0283559212	-0.288991
C	-3.488411058	-0.5572493696	 0.0300293478	 0.121088
O	-2.2846173279	 0.1089194975	 0.0223403685	-0.223516
H	 0.9766520223	 1.7594646927	 0.0023191833	 0.153429
H	-0.5774432348	 1.8344070739	-0.8779524346	 0.145777
H	-0.5632716461	 1.8285234625	 0.9076250567	 0.145766
H	-0.3259369477	-2.5945817377	 0.0007726797	 0.131816
H	-4.297768807	 0.1669287371	 0.0380403427	 0.153982
55.0344	123.7862	153.6326	205.458	225.5295	405.1638	433.0745	474.534	573.5399	610.4494	690.1203	775.736	776.9142	859.083	873.5467	944.8427	956.2421	1021.7566	1068.0349	1173.2441	1195.4046	1222.2894	1307.0568	1356.837	1412.5428	1488.8115	1489.8879	1497.7349	1648.6824	1731.9542	1801.7186	3049.1003	3124.7031	3164.6313	3189.6978	3240.2656
COC1=CC(=O)N=CO1	COc1cc(=O)nco1	
InChI=1S/C5H5NO3/c1-8-5-2-4(7)6-3-9-5/h2-3H,1H3	InChI=1S/C5H5NO3/c1-8-5-2-4(7)6-3-9-5/h2-3H,1H3
