23
gdb 86184	2.19668	1.46498	1.30831	2.477	81.3	-0.2359	0.0653	0.3012	1167.6296	0.203967	-425.447486	-425.437431	-425.436487	-425.481851	38.767	
C	 0.522494189	 1.4083771259	-0.3799185964	-0.393469
C	 0.0614368624	 0.0159469946	 0.0440928432	 0.153397
C	 0.1843857548	-1.0530305614	-1.0639941694	-0.290841
C	 1.5136964026	-1.7483317251	-0.7402258441	 0.093848
O	 2.6300224572	-1.0343416885	-1.2614237822	-0.436858
C	 1.5503976326	-1.6767549249	 0.8036581613	 0.37477
C	 0.7678731681	-2.8483278427	 1.4201235511	-0.422229
C	 2.958628891	-1.6049047354	 1.3905238852	-0.416676
O	 0.8839308939	-0.4429913494	 1.1230660429	-0.318484
H	 1.5337685977	 1.3580757668	-0.7917516953	 0.128078
H	-0.1512545883	 1.8271169875	-1.1359453512	 0.10024
H	 0.5296221632	 2.0803041956	 0.4829972909	 0.120366
H	-0.9744339961	 0.0743466174	 0.4052763495	 0.068005
H	-0.6404502873	-1.7696175331	-1.0142394256	 0.104853
H	 0.1821242641	-0.6215150452	-2.0695484925	 0.091107
H	 1.5353801515	-2.7910072905	-1.0862993403	 0.061921
H	 2.537051796	-1.0029819465	-2.2183917264	 0.282443
H	 1.2916839375	-3.7980623868	 1.2698844787	 0.110279
H	 0.6556638611	-2.6820343782	 2.4949133532	 0.124514
H	-0.2337821996	-2.9386933609	 0.9890732159	 0.108456
H	 3.5031004134	-0.758610062	 0.9729047696	 0.136387
H	 2.8957555387	-1.4863658944	 2.4761346161	 0.113273
H	 3.5174433464	-2.520850193	 1.1751786557	 0.106622
51.825	136.1775	191.3526	229.934	251.3096	266.0431	287.5279	296.7889	333.1423	360.549	398.839	423.2968	436.5658	518.2362	621.9403	730.4329	793.48	830.9319	859.7119	896.3296	921.3485	938.3047	964.2757	1003.5159	1007.1727	1045.9833	1074.9466	1128.9555	1136.1869	1154.8356	1198.8264	1237.1208	1242.8102	1255.5282	1300.1566	1345.112	1359.1636	1388.7692	1395.6553	1404.2175	1409.2875	1427.3778	1475.1156	1481.0035	1484.612	1492.2537	1498.5175	1502.1878	1507.2146	3000.1001	3003.5611	3035.5495	3036.1353	3048.548	3058.7334	3097.038	3106.3459	3107.2285	3112.3453	3119.8181	3130.1858	3156.0531	3824.8245
CC1CC(O)C(C)(C)O1	C[C@H]1C[C@@H](O)C(C)(C)O1	
InChI=1S/C7H14O2/c1-5-4-6(8)7(2,3)9-5/h5-6,8H,4H2,1-3H3	InChI=1S/C7H14O2/c1-5-4-6(8)7(2,3)9-5/h5-6,8H,4H2,1-3H3/t5-,6+/m0/s1
