23
gdb 93655	2.34851	1.42933	1.14489	2.5171	85.07	-0.2312	-0.0122	0.219	1223.04	0.204703	-388.344277	-388.334379	-388.333435	-388.378599	37.761	
C	 0.0323612499	 1.6170456107	 0.0288765019	-0.405907
C	 0.085208682	 0.0937524644	-0.0474955663	-0.074293
C	 0.8257426336	-0.5360771013	-1.2385834234	-0.235323
C	 1.1673706146	-1.9614589559	-0.7560554342	-0.256053
C	 1.5424199349	-1.807542535	 0.7362621805	 0.193215
C	 1.1695483018	-3.0132919231	 1.606363774	-0.433647
C	 3.0409002954	-1.4769300687	 0.9103957006	-0.42014
C	 0.7468055179	-0.5580089106	 1.1732251024	 0.395079
O	 0.6738538037	-0.1517470509	 2.3066593949	-0.346803
H	 1.0379515486	 2.0462596439	-0.037246191	 0.116535
H	-0.567290553	 2.0360760968	-0.7845893229	 0.11226
H	-0.4015668129	 1.9307095955	 0.9819952699	 0.137805
H	-0.945419577	-0.2980579395	-0.042229184	 0.101773
H	 0.2350972079	-0.5330198363	-2.1584463187	 0.100205
H	 1.742636106	 0.0302228915	-1.4442396018	 0.102891
H	 0.2818156601	-2.6017499862	-0.850089067	 0.09549
H	 1.9647246899	-2.4274978549	-1.3423544024	 0.097152
H	 1.7713868798	-3.8880628539	 1.3374711139	 0.110632
H	 1.3408855912	-2.7850793289	 2.6622248546	 0.134486
H	 0.1143784111	-3.2808518047	 1.4862428458	 0.110405
H	 3.3518160989	-0.6355729279	 0.2822732158	 0.114705
H	 3.2536377951	-1.2158859645	 1.950791521	 0.135013
H	 3.6508115706	-2.3440199104	 0.6354421366	 0.114518
51.3572	169.5462	195.3509	206.6707	220.6714	233.7986	261.8459	292.8294	337.162	354.462	388.4165	505.9744	531.9746	577.4722	670.3758	733.0012	800.3384	864.0584	906.2931	936.1495	958.1438	958.6109	979.1659	1003.3418	1015.4024	1066.4643	1094.805	1126.6551	1161.4463	1202.7662	1238.6455	1243.404	1270.5138	1304.1025	1311.8903	1339.7428	1357.7456	1390.7768	1407.5649	1415.0434	1479.2912	1486.1095	1493.8243	1496.9301	1498.3344	1500.6965	1503.9368	1511.1963	1830.2348	2977.1731	3028.0243	3028.7116	3033.8301	3035.2067	3038.4907	3083.8326	3092.532	3096.2224	3098.5584	3104.1419	3113.4834	3117.6379	3121.9529
CC1CCC(C)(C)C1=O	C[C@H]1CCC(C)(C)C1=O	
InChI=1S/C8H14O/c1-6-4-5-8(2,3)7(6)9/h6H,4-5H2,1-3H3	InChI=1S/C8H14O/c1-6-4-5-8(2,3)7(6)9/h6H,4-5H2,1-3H3/t6-/m0/s1
