16
gdb 50181	2.09271	1.89602	1.30887	5.5622	72.38	-0.2538	-0.0286	0.2253	996.8545	0.124014	-400.737029	-400.729037	-400.728093	-400.770039	29.21	
O	-0.3740852466	 0.4840215249	 0.8221185102	-0.239528
C	 0.0351264822	 1.0483078893	-0.15863442	 0.15347
C	 1.180959694	 2.0334939956	-0.1414520443	-0.102227
C	 1.0923524832	 3.4099396648	-0.8972861947	-0.283432
C	 1.4904762008	 4.1048643367	 0.4132355235	-0.063517
C	 0.4621547065	 3.8228057965	 1.4878476259	-0.169422
C	-0.9390554449	 3.7052681326	 1.1796796527	 0.3054
N	-2.0591478921	 3.6395092959	 0.8974165306	-0.349454
C	 1.506402868	 2.7734866934	 1.15622561	-0.06912
H	-0.3915519938	 0.845672411	-1.1676191678	 0.082649
H	 2.0604337277	 1.4878272433	-0.5061040989	 0.119073
H	 1.8419097771	 3.5070621368	-1.6831373509	 0.119286
H	 0.1136583329	 3.6865216209	-1.2987334812	 0.13562
H	 2.1580628694	 4.9523633834	 0.5020582631	 0.110134
H	 0.6561132629	 4.3284940286	 2.4288587887	 0.139181
H	 2.1711691125	 2.4237651861	 1.9352616631	 0.111888
83.8592	104.7579	137.3738	178.6747	265.1678	379.2038	388.0229	529.5302	588.9494	682.9317	705.0804	766.5242	782.9252	833.0234	913.4204	926.8354	965.071	988.6485	1007.4827	1027.1129	1066.6588	1074.8313	1103.5666	1157.8234	1170.7489	1221.7556	1256.7716	1290.9646	1321.8107	1341.7267	1410.6641	1415.5025	1494.5304	1828.7041	2350.9193	2872.3103	3036.1642	3070.9095	3131.9859	3164.7033	3193.255	3205.1284
O=CC1CC2C(C#N)C12	O=C[C@H]1C[C@H]2[C@@H](C#N)[C@@H]12	
InChI=1S/C7H7NO/c8-2-6-5-1-4(3-9)7(5)6/h3-7H,1H2	InChI=1S/C7H7NO/c8-2-6-5-1-4(3-9)7(5)6/h3-7H,1H2/t4-,5+,6-,7+/m1/s1
