18
gdb 45550	3.1493	1.47586	1.28085	3.1738	72.34	-0.2551	0.0276	0.2827	1031.0469	0.150454	-439.118548	-439.111235	-439.110291	-439.1509	28.275	
N	-0.0137469102	 1.3177948471	-0.0421758063	-0.538422
C	-0.01424887	 0.0568977147	-0.0740666031	 0.404592
C	-1.2306717578	-0.8318711598	-0.201370417	-0.317177
C	-0.6609953183	-2.2076327622	-0.5541533297	 0.091634
O	-0.6282430914	-2.4518383458	-1.9591854848	-0.274572
C	 0.7132814379	-2.3773069542	-2.4429937336	-0.082952
C	 1.5945297043	-2.7413591151	-1.2441473202	-0.240755
C	 0.8115495109	-2.1237379399	-0.0899276282	 0.074569
O	 1.1115787577	-0.7204162427	 0.0174765392	-0.25776
H	 0.9373554627	 1.6740761515	 0.0671768247	 0.220906
H	-1.7561495454	-0.8591512538	 0.7593487177	 0.131545
H	-1.9258823021	-0.462336362	-0.9551720331	 0.149921
H	-1.2144442892	-3.0252646682	-0.0829824041	 0.088376
H	 0.8067061363	-3.0694407012	-3.2839866715	 0.113671
H	 0.9406356497	-1.3634248453	-2.8025955595	 0.109709
H	 1.6403195344	-3.8273266245	-1.1135022532	 0.113058
H	 2.6116201223	-2.350013084	-1.3070008107	 0.122104
H	 1.0025099581	-2.5928441547	 0.8790489034	 0.091554
77.9683	84.8554	203.5436	339.5886	370.984	465.3995	518.3077	585.3334	655.8307	675.939	810.5439	842.3198	848.7101	880.9583	890.5591	899.226	926.1039	983.2149	987.2616	1029.9237	1035.9819	1088.8295	1100.2618	1128.1424	1182.1676	1217.4954	1229.604	1259.7125	1274.3166	1309.0103	1324.2306	1340.3909	1364.3443	1385.149	1401.3197	1454.4125	1473.0649	1526.102	1779.0691	3003.0882	3054.1641	3057.8302	3065.8669	3079.2712	3093.201	3126.8336	3139.8179	3471.5731
N=C1CC2OCCC2O1	[NH][C]1C[C@H]2OCC[C@H]2O1	
InChI=1S/C6H9NO2/c7-6-3-5-4(9-6)1-2-8-5/h4-5,7H,1-3H2	InChI=1S/C6H9NO2/c7-6-3-5-4(9-6)1-2-8-5/h4-5,7H,1-3H2/t4-,5-/m1/s1
