25
gdb 58249	2.42347	1.06423	0.90084	1.5259	88.73	-0.2539	0.0728	0.3267	1462.2177	0.226855	-389.485705	-389.474642	-389.473697	-389.521631	41.507	
C	-2.7913715415	 3.2166810228	-0.5454495566	-0.417306
C	-1.8642683514	 2.0466937949	-0.8747425541	 0.146299
O	-0.5650752862	 2.2537111924	-0.3182096306	-0.439139
C	-2.430156174	 0.6523091166	-0.4982599825	-0.003367
C	-1.5531124586	-0.4452918231	-1.1220164422	-0.402389
C	-2.5396220639	 0.4579549771	 1.0065337872	 0.009248
C	-3.7383177386	 0.9142859995	 1.8107250089	-0.309729
C	-3.4592342338	-0.5594308868	 1.6520281123	-0.010719
C	-4.4031444561	-1.4464735282	 0.8684821886	-0.40613
H	-2.3438364886	 4.1538008913	-0.8886863951	 0.119991
H	-3.7656466372	 3.1011592335	-1.0319404386	 0.111453
H	-2.9654059894	 3.294445708	 0.5329730353	 0.119092
H	-1.6909133455	 2.0398568452	-1.9584373995	 0.078785
H	-0.6807043989	 2.4583759746	 0.615649594	 0.279208
H	-3.4333589105	 0.5930379663	-0.9398789652	 0.06291
H	-1.9218381205	-1.4427672004	-0.8682088188	 0.110424
H	-1.5306262634	-0.3589352054	-2.2138795279	 0.104954
H	-0.524335732	-0.3551890116	-0.7607732078	 0.129028
H	-1.5791527157	 0.5559420694	 1.5093267426	 0.074389
H	-3.58291992	 1.3850341639	 2.7760478357	 0.104204
H	-4.5834469327	 1.3142338214	 1.2582049196	 0.107594
H	-3.0407458976	-1.0471774434	 2.5292070659	 0.080773
H	-4.825093645	-0.9317839325	 0.0005055323	 0.116834
H	-3.9011795046	-2.3508434518	 0.5070216402	 0.118282
H	-5.2423949145	-1.7642999036	 1.4973689065	 0.11531
50.6338	86.2124	142.274	193.3177	205.5443	220.5731	246.7381	260.8155	280.5965	305.5597	328.3779	378.7108	407.3269	493.7659	531.0687	602.5427	754.6989	785.4252	838.1542	857.6656	910.6218	926.5494	949.4951	987.74	1015.3763	1025.8238	1043.9676	1068.1507	1082.0913	1100.5823	1115.3277	1158.2837	1169.7276	1199.1065	1205.3969	1249.2237	1275.8773	1306.6342	1330.094	1361.3063	1395.686	1403.5026	1406.598	1417.8913	1423.7756	1435.8287	1490.6705	1491.868	1492.3379	1495.74	1496.9944	1502.2607	1510.3043	3020.607	3026.8998	3030.4551	3034.8858	3037.2682	3085.8143	3102.0332	3103.0595	3104.7698	3113.2603	3115.0197	3120.2928	3121.146	3134.8616	3203.2527	3809.2351
CC(O)C(C)C1CC1C	C[C@@H](O)[C@@H](C)[C@H]1C[C@H]1C	
InChI=1S/C8H16O/c1-5-4-8(5)6(2)7(3)9/h5-9H,4H2,1-3H3	InChI=1S/C8H16O/c1-5-4-8(5)6(2)7(3)9/h5-9H,4H2,1-3H3/t5-,6-,7-,8+/m1/s1
