13
gdb 129051	2.72606	1.67523	1.0376	3.7833	72.73	-0.2653	-0.1007	0.1646	1042.4816	0.089439	-452.696087	-452.688743	-452.687799	-452.730103	26.569	
N	-0.0801527888	 1.2104873747	 0.754437321	-0.454347
C	-0.0044982092	 0.1326975473	 0.0703938788	 0.169798
C	 1.2341483541	-0.5009785451	-0.3504154359	-0.19136
C	 1.4862241274	-1.612048221	-1.0581968328	 0.080316
O	 0.7148847651	-2.556502994	-1.6440778375	-0.23316
N	-0.661234304	-2.6242029399	-1.6656271813	-0.054063
C	-1.4275935617	-1.7626002011	-1.1080740962	-0.022294
C	-1.3287696485	-0.4969889686	-0.3080710002	 0.314697
O	-2.3788587924	 0.0002799251	 0.0230189808	-0.265628
H	 0.8550742005	 1.5682392865	 0.9665947078	 0.227411
H	 2.1355583682	 0.0184003303	-0.0356568557	 0.11511
H	 2.5158344373	-1.8948072931	-1.2535563927	 0.149287
H	-2.474666768	-2.023279761	-1.2570025361	 0.164234
11.0874	83.947	343.4109	345.1933	361.6988	376.6868	430.0727	521.9331	575.2219	635.8428	765.077	809.9813	833.5471	837.6073	903.6595	938.8959	958.9758	977.3028	982.9975	1136.6352	1207.0739	1324.3648	1342.0545	1397.7902	1441.1218	1643.5434	1651.4841	1691.4704	1780.5865	3155.0345	3161.2389	3196.1922	3437.2591
N=C1C=CON=CC1=O	[NH]C1=C[CH]ON=CC1=O	
InChI=1S/C5H4N2O2/c6-4-1-2-9-7-3-5(4)8/h1-3,6H	InChI=1S/C5H4N2O2/c6-4-1-2-9-7-3-5(4)8/h1-3,6H
