21
gdb 42389	4.97235	0.74822	0.7259	2.4246	84.34	-0.2395	-0.0069	0.2326	1653.7813	0.181699	-387.087743	-387.078387	-387.077442	-387.123307	34.396	
O	-0.0133679177	-0.100204077	-0.3370450797	-0.332272
C	-0.0062984353	 1.0907894665	-0.1021890329	 0.385179
C	 1.2828722571	 1.8590536088	 0.1680985543	-0.340479
C	 2.5355563709	 1.0376671872	-0.0111077279	 0.050972
C	 3.2443404719	 1.0104381812	-1.339711307	-0.248584
C	 3.8728539508	 1.7164014935	-0.1624807148	-0.287632
C	-1.2691001278	 1.8856047985	-0.042526725	-0.103117
C	-2.3876283744	 1.4851127414	-0.9952316627	-0.247018
C	-2.5198462651	 1.1758350687	 0.4553093962	-0.247141
H	 1.297603501	 2.7474567927	-0.4788663068	 0.114962
H	 1.209183359	 2.2566785931	 1.1926355286	 0.123432
H	 2.5250643262	 0.1001916554	 0.53462878	 0.098074
H	 3.6752654883	 0.0732295202	-1.6727891114	 0.115393
H	 2.844177462	 1.6221455707	-2.1421423302	 0.106371
H	 3.8958634104	 2.8016408604	-0.1752380228	 0.105271
H	 4.7369735513	 1.2633969742	 0.3109100401	 0.11143
H	-1.1663589227	 2.9398371824	 0.1899681318	 0.0851
H	-2.9845447558	 2.2834517978	-1.4208872599	 0.116858
H	-2.1581967028	 0.6615170916	-1.6615026473	 0.13831
H	-2.3790296844	 0.1451455427	 0.7598092474	 0.138199
H	-3.2109836129	 1.7550545201	 1.0567133001	 0.116693
41.0582	52.7939	93.6195	126.6366	253.5524	259.121	294.3811	353.693	396.1308	579.0209	656.4313	773.4139	782.1295	805.2533	815.9415	830.8679	850.4346	869.0388	907.675	920.8382	968.2495	1005.7891	1053.8643	1059.7646	1078.8942	1085.3908	1095.4392	1110.0914	1129.2269	1132.0229	1154.7394	1196.3624	1210.8465	1221.6397	1231.9105	1253.8331	1321.3185	1401.7051	1420.6216	1449.772	1452.9581	1472.6006	1484.1228	1509.3302	1787.4481	2995.6072	3033.2672	3127.5367	3133.4801	3140.4023	3141.931	3166.7852	3169.7592	3205.6826	3221.8504	3227.9989	3242.4915
O=C(CC1CC1)C1CC1	O=C(CC1CC1)C1CC1	
InChI=1S/C8H12O/c9-8(7-3-4-7)5-6-1-2-6/h6-7H,1-5H2	InChI=1S/C8H12O/c9-8(7-3-4-7)5-6-1-2-6/h6-7H,1-5H2
