23
gdb 115718	2.57085	1.20169	0.98313	2.3791	82.33	-0.2485	0.0717	0.3202	1337.271	0.204953	-425.410452	-425.400446	-425.399501	-425.445219	37.428	
C	-0.1939662888	 1.4906493339	-0.1937043108	-0.242754
O	-0.2457147062	 0.2691666076	 0.5141326898	-0.253319
C	-1.2874458154	-0.5868347333	 0.0825279177	 0.126596
C	-1.0980016616	-1.3470657743	-1.2581471981	-0.244821
C	-1.4969341623	-2.6618427476	-0.5327845954	-0.2281
C	-1.3547085976	-1.9424754948	 0.8439873688	-0.061414
C	-0.0977498029	-2.2912899603	 1.6559059534	 0.128998
C	-0.1374918757	-3.7152283505	 2.199450481	-0.388321
O	 1.0891297392	-2.1662916247	 0.8796611787	-0.446345
H	 0.6252540347	 2.0779683079	 0.2274121146	 0.130386
H	-0.0078023412	 1.3360176065	-1.2660956585	 0.115547
H	-1.1325198572	 2.0540916918	-0.0821238126	 0.110768
H	-2.2411119522	-0.0397445419	 0.1188506525	 0.069023
H	-1.7104189227	-1.0296524758	-2.105461977	 0.091897
H	-0.0465483424	-1.3563901435	-1.5550126451	 0.111643
H	-2.5203826415	-2.9800116366	-0.7435425867	 0.096652
H	-0.8254863564	-3.5063352245	-0.6946325942	 0.114399
H	-2.222697233	-2.03094723	 1.5052609509	 0.066718
H	-0.0557435944	-1.5942218914	 2.5080190888	 0.068723
H	-0.1982137981	-4.4437640202	 1.3850926111	 0.120647
H	 0.7736684712	-3.9206076923	 2.7675122002	 0.121253
H	-0.9998324789	-3.8585854454	 2.8577017676	 0.107126
H	 1.1563946832	-1.2263392304	 0.6664640634	 0.284696
90.4307	109.0712	128.2236	153.7755	199.8464	217.8546	249.9414	277.6866	324.3887	415.698	449.5776	537.1306	573.7168	609.3761	727.7513	749.2773	776.9996	887.023	915.2015	952.5204	960.7143	993.8776	1031.9699	1043.9109	1063.0996	1091.5401	1126.9306	1156.3151	1169.6493	1185.6272	1214.0255	1224.9127	1252.3518	1265.2025	1276.4066	1297.6272	1314.795	1335.8594	1377.9189	1383.5509	1402.0471	1451.6799	1468.1767	1481.2348	1484.936	1486.6888	1493.1536	1502.3133	1510.3091	2971.4391	2983.339	2989.9601	3037.7398	3041.7607	3052.0866	3062.3001	3074.0482	3112.7336	3115.7352	3118.6019	3120.5699	3132.0727	3759.2846
COC1CCC1C(C)O	CO[C@H]1CC[C@H]1[C@@H](C)O	
InChI=1S/C7H14O2/c1-5(8)6-3-4-7(6)9-2/h5-8H,3-4H2,1-2H3	InChI=1S/C7H14O2/c1-5(8)6-3-4-7(6)9-2/h5-8H,3-4H2,1-2H3/t5-,6+,7+/m1/s1
