20
gdb 126193	1.92592	1.76069	0.99888	4.6554	82.38	-0.2324	0.0091	0.2415	1240.3055	0.170502	-399.34975	-399.339829	-399.338885	-399.38545	34.6	
C	 0.0531565858	 1.6176973547	-0.1279116997	-0.373059
C	 0.0239261178	 0.081951516	-0.0113663674	-0.303071
C	-1.3557410414	-0.4903335017	 0.0594818242	 0.237199
C	-2.158129463	-0.8391016227	 1.130330684	 0.225678
C	-1.881936865	-0.7648575283	 2.5971973929	-0.498798
N	-3.3453020098	-1.3017853939	 0.6458519417	-0.254342
N	-3.3283018154	-1.259608293	-0.6550412447	-0.164217
N	-2.1280576497	-0.7666710214	-1.026941646	 0.006588
C	-1.8195804169	-0.6337595156	-2.4347421502	-0.338443
H	 1.0841561804	 1.9830073268	-0.1574911587	 0.119617
H	-0.4515782999	 1.9598600931	-1.0367417741	 0.122326
H	-0.4506324927	 2.081750572	 0.7247470986	 0.13144
H	 0.5705366366	-0.3591635299	-0.8538214198	 0.11022
H	 0.5644285278	-0.2198533439	 0.8920651644	 0.121471
H	-2.0162414756	 0.2492081556	 2.9918754087	 0.130085
H	-2.5729524194	-1.4215753336	 3.1304923292	 0.14761
H	-0.8589397948	-1.0752733111	 2.8342533631	 0.122321
H	-1.63470525	 0.4107985565	-2.7015323118	 0.143593
H	-0.9419561558	-1.2305045181	-2.700998161	 0.143595
H	-2.6853491888	-1.0000556115	-2.9861504235	 0.170188
52.8652	61.079	113.1594	143.6251	173.115	185.2841	263.0997	283.0667	309.5362	403.9863	479.6858	590.4571	674.5288	706.9243	739.6364	757.8101	816.3849	970.3119	993.4639	1025.6514	1041.7502	1063.7115	1083.0432	1149.8381	1154.1954	1224.6418	1275.9001	1295.3134	1308.7775	1357.0915	1379.2858	1409.4407	1420.4855	1442.1239	1479.7846	1482.8206	1485.2611	1489.2832	1496.424	1500.484	1505.2652	1517.9968	1608.823	3030.2527	3031.3971	3040.2521	3044.7469	3071.4871	3082.4628	3106.0843	3111.3763	3118.1378	3127.7971	3162.2448
CCC1=C(C)N=NN1C	CCc1c(C)nnn1C	
InChI=1S/C6H11N3/c1-4-6-5(2)7-8-9(6)3/h4H2,1-3H3	InChI=1S/C6H11N3/c1-4-6-5(2)7-8-9(6)3/h4H2,1-3H3
