20
gdb 115234	3.73014	0.97687	0.82044	1.2026	75.71	-0.226	-0.024	0.2019	1383.9248	0.172617	-440.303545	-440.294865	-440.293921	-440.337181	33.027	
O	 0.0516140561	 1.4256445449	 0.0923880612	-0.424519
C	 0.0800259231	 0.0214076972	-0.0263097777	-0.070895
C	-1.3342830832	-0.5629522866	-0.0254309306	 0.024838
C	-1.3745386596	-2.0894810191	-0.1619355603	-0.221063
C	-2.8271701876	-2.6045349553	-0.1056971673	-0.309233
C	-3.6216632526	-2.0061757487	 1.0499569331	 0.382547
O	-4.3630244195	-2.6600370735	 1.7452006757	-0.300583
C	-3.4171287207	-0.5025028287	 1.2604748991	-0.267935
N	-2.0076751926	-0.0955864521	 1.1980570996	-0.308503
H	-0.6618301598	 1.6085561031	 0.7204972382	 0.284739
H	 0.5893783927	-0.2249198539	-0.964209471	 0.107525
H	 0.6618866389	-0.4438246391	 0.7916541649	 0.075964
H	-1.8786448759	-0.1110202143	-0.867514014	 0.089243
H	-0.8999561444	-2.4091275812	-1.0972301425	 0.107028
H	-0.7928636794	-2.537022214	 0.6554820869	 0.103629
H	-3.3451580973	-2.3056813088	-1.0292432314	 0.124322
H	-2.8826727972	-3.6937804461	-0.0400599414	 0.123942
H	-3.9655870413	 0.035206018	 0.4738230863	 0.126957
H	-3.8522009109	-0.2185549172	 2.2215996065	 0.129011
H	-1.5207184489	-0.4854658445	 2.0035228045	 0.222985
66.0003	121.7489	165.2384	200.7528	239.2623	347.4986	411.7444	424.9609	473.3998	484.4621	519.7858	539.4791	684.6224	757.0675	774.1304	843.4703	907.8302	928.3083	948.3861	990.0452	1066.6368	1074.9797	1101.4313	1126.1266	1143.5525	1147.6217	1199.0675	1221.3917	1252.56	1298.3901	1300.5635	1326.6327	1342.918	1363.3328	1383.3529	1388.3376	1451.5149	1457.9362	1466.8419	1482.4674	1492.6337	1517.3564	1819.6124	2927.5666	3005.1047	3008.4076	3015.2945	3019.8608	3060.2487	3070.135	3103.8086	3109.1015	3468.4787	3728.55
OCC1CCC(=O)CN1	OC[C@H]1CCC(=O)CN1	
InChI=1S/C6H11NO2/c8-4-5-1-2-6(9)3-7-5/h5,7-8H,1-4H2	InChI=1S/C6H11NO2/c8-4-5-1-2-6(9)3-7-5/h5,7-8H,1-4H2/t5-/m1/s1
