18
gdb 35936	2.3159	1.52359	1.29078	3.3812	76.74	-0.2521	0.0011	0.2533	1070.1772	0.149092	-401.960346	-401.952171	-401.951227	-401.99326	30.81	
N	 0.0768113396	-1.1566131539	-0.4087014347	-0.329945
C	 0.0448326626	-0.0181022916	-0.2139168084	 0.263506
C	-0.0064667851	 1.4448458312	 0.018902175	-0.014968
C	-0.8925699142	 1.7855399921	 1.2338753	-0.271504
C	-0.460739005	 1.2091897265	 2.5612105097	-0.056908
C	 0.7670857407	 1.2573965828	 3.0774654891	-0.050018
C	 1.9837145741	 1.8745987191	 2.4298680364	-0.255681
C	 2.2230364438	 1.475518594	 0.9719692745	-0.086735
O	 1.2798615327	 2.0231960458	 0.0523579057	-0.248942
H	-0.4780844806	 1.8859625316	-0.8671792703	 0.135126
H	-0.9227080072	 2.8823676443	 1.2867544082	 0.129227
H	-1.9106269294	 1.4570783679	 1.0004615036	 0.122546
H	-1.2474161998	 0.7438267926	 3.1487448472	 0.097892
H	 0.918109859	 0.8276698149	 4.0646257771	 0.095987
H	 1.9224701828	 2.9713896919	 2.4806556061	 0.122116
H	 2.8789996689	 1.5937826695	 2.9959372997	 0.109975
H	 3.1859959385	 1.8724185182	 0.6379428668	 0.114951
H	 2.2535358086	 0.3818565331	 0.8763597941	 0.123376
88.9541	99.579	173.9235	239.4795	323.0973	329.2901	366.6823	440.2434	487.9329	579.6967	619.9795	706.5155	752.2469	789.7845	841.4641	879.6603	919.2682	968.6091	1000.0519	1022.4699	1044.6468	1068.7074	1085.8816	1136.0099	1229.0635	1238.8874	1262.7616	1310.5515	1319.1918	1365.7417	1370.5819	1381.4037	1409.6498	1430.6984	1461.9856	1467.081	1493.8735	1726.2063	2353.4104	3008.4222	3020.2242	3022.9344	3048.0662	3067.3527	3078.5804	3091.3041	3148.9007	3172.6018
N#CC1CC=CCCO1	N#C[C@H]1CC=CCCO1	
InChI=1S/C7H9NO/c8-6-7-4-2-1-3-5-9-7/h1-2,7H,3-5H2	InChI=1S/C7H9NO/c8-6-7-4-2-1-3-5-9-7/h1-2,7H,3-5H2/t7-/m1/s1
