27
gdb 102584	2.36579	0.98405	0.75215	0.1095	96.37	-0.2788	0.0868	0.3656	1661.2268	0.25184	-353.556585	-353.545743	-353.544798	-353.592885	40.441	
C	 0.8349656476	 0.8195613747	-0.8888397629	-0.384129
C	 0.2542253709	-0.4387092209	-0.2311910915	-0.183285
C	 0.8410881296	-0.7762711616	 1.163998866	 0.023704
C	-0.0070238403	-0.2321451594	 2.3312956537	-0.172303
C	-0.1852232813	 1.2887129762	 2.380359876	-0.39209
C	 1.0297493332	-2.2866163097	 1.3231363327	 0.061242
C	 2.0527616009	-3.0281951513	 0.4118888974	-0.236477
C	 2.451992335	-3.900357809	 1.6319824587	-0.221075
C	 1.8049216157	-2.8363311547	 2.5570463034	-0.232617
H	 1.9143642105	 0.7127686825	-1.0444061524	 0.11229
H	 0.3766716488	 1.0005712724	-1.8668953485	 0.107934
H	 0.6805603014	 1.7139676818	-0.2790094606	 0.118085
H	-0.8371445647	-0.3466679556	-0.1523958514	 0.090074
H	 0.4312958308	-1.2842567234	-0.9064458857	 0.096652
H	 1.8405229716	-0.3175026719	 1.2316875231	 0.055679
H	-0.9965318222	-0.7094958348	 2.2940014872	 0.089532
H	 0.4492334521	-0.5613651498	 3.273144106	 0.095874
H	-0.7457037298	 1.6641230278	 1.5187767213	 0.118947
H	-0.7349105644	 1.5846848252	 3.2799071271	 0.10834
H	 0.7819067111	 1.8036538197	 2.3993965101	 0.111875
H	 0.0522464254	-2.7827618465	 1.2534810709	 0.062856
H	 1.6766117201	-3.5391020892	-0.4780268544	 0.092479
H	 2.8671704033	-2.3608968535	 0.1093951311	 0.095322
H	 1.8993660149	-4.8441960033	 1.652232399	 0.099663
H	 3.5129431432	-4.1194991442	 1.7738382971	 0.09365
H	 2.5443070935	-2.1095841704	 2.9120789236	 0.095095
H	 1.2269172331	-3.1878548211	 3.4152645128	 0.092683
57.6211	84.5867	101.7217	135.5997	154.8186	201.0819	220.7517	268.0644	312.2624	339.3549	396.2486	417.1665	478.9068	656.4629	760.8043	764.3091	785.4461	797.1753	862.802	896.0278	919.6212	936.8306	957.9579	978.2896	1023.6314	1028.9615	1041.7223	1050.8204	1059.6837	1095.9239	1151.2067	1180.7405	1187.883	1202.9562	1232.4826	1255.4032	1262.9721	1271.9047	1277.3913	1294.3886	1303.5521	1317.7021	1340.136	1375.7076	1379.7871	1401.7277	1410.1219	1414.2824	1479.0083	1483.7441	1486.1357	1489.9262	1497.7451	1502.6533	1508.9122	1511.1673	1513.4963	2973.6611	3006.7955	3013.6092	3021.0611	3030.6367	3032.9712	3039.0138	3044.3183	3046.9226	3052.3866	3055.9391	3092.2575	3094.0374	3094.8096	3096.9468	3104.3141	3113.5663	3113.7865
CCC(CC)C1CCC1	CCC(CC)C1CCC1	
InChI=1S/C9H18/c1-3-8(4-2)9-6-5-7-9/h8-9H,3-7H2,1-2H3	InChI=1S/C9H18/c1-3-8(4-2)9-6-5-7-9/h8-9H,3-7H2,1-2H3
