16
gdb 48926	3.92933	1.53693	1.35789	2.8422	72.16	-0.229	-0.0305	0.1984	937.0753	0.125117	-400.654369	-400.647796	-400.646851	-400.685557	26.137	
O	-0.0724680602	-0.0224633424	-0.007334773	-0.256325
C	 0.0491380446	 1.1731230988	-0.1327621676	 0.026815
C	 1.3418071143	 1.8966957331	-0.0679864799	 0.238353
C	 2.6925053122	 1.298706815	 0.3564838369	-0.228254
N	 3.1140849879	 2.696128805	 0.7551749326	-0.155961
C	 2.9839048567	 3.4944031891	-0.5019384787	-0.0228
C	 1.6817079419	 4.1386258571	-0.1365187796	-0.114538
C	 1.6807825275	 2.9839309028	-1.1266195534	-0.142237
C	 1.6385474056	 3.0647426639	 0.9684317002	-0.062342
H	-0.8400645193	 1.8276965677	-0.2863508072	 0.072784
H	 2.6178019752	 0.6678862946	 1.2454813106	 0.125084
H	 3.3214511771	 0.8206476056	-0.3982552019	 0.112171
H	 3.8302380559	 3.8619211907	-1.0662726483	 0.103792
H	 1.3293207079	 5.1576846591	-0.2038088091	 0.105527
H	 1.4751201744	 2.9810200955	-2.1879604971	 0.103607
H	 1.2437477184	 3.1203452245	 1.9804943254	 0.094324
85.1979	163.4965	274.1168	404.1826	436.7463	561.7946	692.8833	748.2104	776.6146	792.3495	806.4983	831.7901	854.0076	875.4564	888.1989	902.7115	978.5487	1003.4397	1021.3067	1030.6581	1038.4224	1055.2673	1108.6722	1117.6085	1130.0829	1176.3596	1187.5729	1228.5188	1245.4868	1262.6699	1314.48	1352.4469	1426.5537	1497.006	1806.0953	2860.704	3067.0064	3130.0601	3141.9906	3206.2179	3212.1459	3226.3919
O=CC12CN3C4C(C14)C23	O=C[C@@]12CN3[C@@H]4[C@@H]([C@H]14)[C@@H]23	
InChI=1S/C7H7NO/c9-2-7-1-8-5-3(4(5)7)6(7)8/h2-6H,1H2	InChI=1S/C7H7NO/c9-2-7-1-8-5-3(4(5)7)6(7)8/h2-6H,1H2/t3-,4+,5-,6+,7+/m1/s1
