20
gdb 121051	3.49289	0.90112	0.85538	3.9835	77.81	-0.2519	0.0325	0.2845	1459.8389	0.170795	-440.302649	-440.293491	-440.292547	-440.337592	33.288	
C	-0.5844086678	 1.4832537993	 0.2138964912	-0.383951
C	-0.2146576524	 0.0098195191	 0.2054620517	-0.043664
O	-1.3682221704	-0.7358659738	-0.1412873882	-0.255039
C	-1.1634876825	-2.1300614972	-0.2407478819	 0.1037
C	-1.1868258522	-2.8293207483	 1.1328164033	-0.102237
O	-2.5663401491	-3.0971959398	 1.4119911692	-0.237011
C	-3.3073135885	-3.0639432243	 0.2607736922	 0.427602
N	-4.5477335426	-3.2830863097	 0.1989473939	-0.544838
C	-2.4000567945	-2.73784242	-0.9051043492	-0.323645
H	 0.2874653107	 2.0925601028	 0.4695311351	 0.116844
H	-0.9499320964	 1.7915643492	-0.7694320934	 0.130228
H	-1.3715901973	 1.6764183379	 0.9478466632	 0.132406
H	 0.5891355596	-0.1868059925	-0.523895542	 0.089732
H	 0.167465135	-0.2920205667	 1.1939476312	 0.088336
H	-0.231559291	-2.3413571822	-0.7836087738	 0.071901
H	-0.6282757283	-3.7741225155	 1.1097265053	 0.108261
H	-0.7921502769	-2.2052320771	 1.9376931891	 0.121698
H	-4.9195797439	-3.4956944337	 1.1263643742	 0.2208
H	-2.8726622275	-2.0546691062	-1.6095868445	 0.148586
H	-2.1437952337	-3.6615998115	-1.4343760166	 0.130292
56.9646	65.244	106.7428	168.3768	208.296	253.3505	332.8719	389.3416	435.2395	485.4502	522.9211	684.7125	781.7099	820.5026	829.0905	872.066	874.378	896.1203	928.1077	988.8076	995.2327	1052.8263	1083.9235	1112.7422	1122.7587	1152.97	1187.5837	1196.6983	1253.2426	1267.1879	1278.5309	1300.2739	1325.9321	1369.415	1402.9591	1406.2323	1439.1852	1454.0917	1483.9378	1498.7191	1506.3215	1528.5589	1782.9744	2960.3818	2988.6915	3004.4075	3026.8814	3047.2267	3064.952	3106.3099	3122.135	3125.5493	3149.8559	3471.3458
CCOC1COC(=N)C1	CCO[C@H]1CO[C]([NH])C1	
InChI=1S/C6H11NO2/c1-2-8-5-3-6(7)9-4-5/h5,7H,2-4H2,1H3	InChI=1S/C6H11NO2/c1-2-8-5-3-6(7)9-4-5/h5,7H,2-4H2,1H3/t5-/m1/s1
