18
gdb 37244	3.53808	1.53864	1.38403	0.4976	74.82	-0.2243	0.0599	0.2841	977.543	0.148616	-401.84497	-401.838065	-401.837121	-401.876086	28.325	
C	 0.0736039153	 1.5353794417	-0.1104454927	-0.305923
C	 1.3773729411	 0.7947190054	 0.0144975219	-0.067761
C	 0.0500007081	 0.0361343686	 0.0264515904	-0.011827
N	 0.40353146	-0.7277992062	-1.1965319035	-0.128489
C	-0.0519388418	-0.1520577093	-2.5100232917	-0.278034
C	 1.2853491534	 0.5957470936	-2.6409780206	 0.425097
C	 2.0759348129	 0.9420525623	-3.8210098085	-0.270389
O	 1.4194452144	 1.9480661276	-3.034646129	-0.260877
C	 1.7065320745	 0.0311702367	-1.2747760091	-0.088449
H	-0.2268208596	 2.0556169577	 0.7940688069	 0.114525
H	-0.1978249018	 2.0527898355	-1.0240234259	 0.135549
H	 2.0788361079	 0.9754378077	 0.818335777	 0.093359
H	-0.4713943251	-0.4623800648	 0.8358070027	 0.094376
H	-0.2212725471	-0.9346341831	-3.2556111229	 0.112074
H	-0.9363899588	 0.4896415602	-2.4561676913	 0.119529
H	 3.1639987049	 0.9439766579	-3.7649291703	 0.118505
H	 1.6607303967	 0.7834558211	-4.8157203902	 0.118383
H	 2.6201398249	-0.5690936825	-1.2417998733	 0.080355
115.4226	219.371	268.7902	331.0987	382.2377	476.3735	520.1048	600.6491	709.7734	752.9163	775.3877	840.4473	849.6171	882.6629	899.5741	923.8017	944.3373	981.9861	1003.6238	1008.9653	1025.8888	1064.3633	1076.0287	1102.2151	1112.932	1126.6396	1164.3	1177.7412	1181.1866	1194.9132	1197.8242	1268.7081	1286.645	1295.0207	1347.8984	1437.6256	1485.757	1503.6326	1534.7063	3047.0454	3065.6018	3078.6138	3098.816	3130.5919	3165.6142	3169.2089	3196.0433	3212.3835
C1C2C1N1CC3(CO3)C21	C1[C@H]2[C@@H]1N1C[C@]3(CO3)[C@@H]21	
InChI=1S/C7H9NO/c1-4-5(1)8-2-7(3-9-7)6(4)8/h4-6H,1-3H2	InChI=1S/C7H9NO/c1-4-5(1)8-2-7(3-9-7)6(4)8/h4-6H,1-3H2/t4-,5+,6+,7-/m0/s1
