17
gdb 7602	3.34129	1.62073	1.32258	14.7207	67.26	-0.1671	-0.0318	0.1353	960.794	0.141353	-400.944569	-400.935845	-400.934901	-400.977944	31.314	
C	 0.0181220534	 1.5435641647	-0.0769002595	-0.490082
C	 0.0264257419	 0.0342605612	-0.0289428425	 0.184703
C	 1.3272276359	-0.7274517428	-0.2017544088	-0.319631
C	 0.6267784592	-0.7179215777	 1.1187043858	-0.091729
N	 1.2708855665	 0.0810084245	 2.2208423945	-0.421561
H	 1.5589274464	 0.9924065911	 1.8495042884	 0.319422
H	 0.6008064125	 0.2568622816	 2.9735063122	 0.332772
H	 2.0903663658	-0.384012968	 2.620803098	 0.323903
C	-1.2627008996	-0.7035704968	-0.589227368	 0.341153
O	-2.0336264468	 0.033605664	-1.2122359672	-0.463463
O	-1.2832348767	-1.9184658841	-0.3063732851	-0.488851
H	 0.9871019367	 2.017575984	 0.1625112913	 0.057728
H	-0.2542511411	 1.8438063721	-1.09065102	 0.176731
H	-0.7527302849	 1.9595254507	 0.5808021026	 0.123705
H	 1.2883904048	-1.6653147737	-0.7433163067	 0.161968
H	 2.2541717144	-0.1630002513	-0.2956485513	 0.090567
H	 0.1038500715	-1.5956270895	 1.4808685263	 0.162667
62.1995	127.208	165.4974	174.7474	213.7908	268.1493	313.9317	373.0144	428.7493	491.5213	567.1524	724.3127	772.0879	797.0727	830.6129	862.6922	916.2542	936.8556	988.0287	1048.9374	1069.9203	1089.0557	1121.6545	1166.8072	1203.3274	1279.4918	1319.1135	1376.6399	1408.2174	1446.7974	1461.3289	1475.1299	1494.5989	1642.5218	1654.5827	1792.4681	2937.3945	3072.8465	3097.7055	3132.5923	3197.3575	3216.9573	3379.0355	3461.1069	3487.1906
CC1(CC1[NH3+])C([O-])=O	C[C@]1(C[C@H]1[NH3])C(=O)[O]	
InChI=1S/C5H9NO2/c1-5(4(7)8)2-3(5)6/h3H,2,6H2,1H3,(H,7,8)	InChI=1S/C5H9NO2/c1-5(4(7)8)2-3(5)6/h3H,2H2,1,6H3/t3-,5-/m1/s1
