19
gdb 56323	3.15277	0.8761	0.71085	4.6037	75.12	-0.2315	0.0046	0.2361	1559.7673	0.158337	-456.383652	-456.373469	-456.372525	-456.421066	34.853	
C	-0.6742856026	 1.4630905518	-0.143310617	-0.481365
C	-0.3412819014	-0.0125771727	 0.0208830964	 0.40403
O	 0.7068292951	-0.3875228188	 0.5221378185	-0.384885
N	-1.2898225074	-0.8712339414	-0.4444817843	-0.321621
C	-1.1397957963	-2.3056317354	-0.3125841845	-0.152266
C	-2.4408299947	-3.0159311614	 0.0546581074	-0.088172
O	-3.2563139925	-3.392281325	-1.0806033491	-0.201778
C	-4.0472208101	-2.4852505304	-1.6511045009	 0.144911
N	-4.0601306435	-1.2483243852	-1.3662837776	-0.47444
H	 0.0075963477	 1.9001268316	-0.8789778499	 0.146365
H	-1.7029526606	 1.6449306921	-0.4647445953	 0.11545
H	-0.4956745937	 1.9702096815	 0.8077385628	 0.146399
H	-2.1827728788	-0.5423351259	-0.7909705486	 0.266421
H	-0.7385754869	-2.7633267986	-1.2281386693	 0.114616
H	-0.40042845	-2.4753161844	 0.4761513444	 0.145743
H	-2.2125752258	-3.975866529	 0.5218806369	 0.127398
H	-3.0381680348	-2.4078976416	 0.7404985682	 0.134186
H	-4.6767335336	-2.97939601	-2.3968022129	 0.121351
H	-4.75842606	-0.7611389574	-1.9218134653	 0.237656
29.2023	45.392	63.154	108.1547	149.8663	212.0454	250.353	280.1178	343.6837	434.8852	483.3653	571.4256	617.4224	679.5198	716.8036	812.2772	827.0955	891.4032	957.9269	1009.2479	1035.8652	1049.5296	1051.9812	1085.1802	1111.89	1162.967	1257.529	1277.5177	1315.0729	1332.467	1387.5431	1397.8172	1408.6938	1418.8252	1471.663	1477.7572	1486.2571	1497.5663	1552.0534	1712.4959	1770.8371	3007.5713	3048.2409	3063.7741	3090.1677	3095.0201	3120.5069	3126.5312	3134.5946	3529.3529	3541.5124
CC(=O)NCCOC=N	CC(=O)NCCO[CH][NH]	
InChI=1S/C5H10N2O2/c1-5(8)7-2-3-9-4-6/h4,6H,2-3H2,1H3,(H,7,8)	InChI=1S/C5H10N2O2/c1-5(8)7-2-3-9-4-6/h4,6H,2-3H2,1H3,(H,7,8)
