20
gdb 46045	3.61608	1.02334	0.90336	3.7933	79.12	-0.2359	0.0385	0.2744	1333.9284	0.173013	-403.185665	-403.177286	-403.176342	-403.219246	31.988	
O	-0.4072952004	 0.2804967066	-0.7645939	-0.380363
C	-0.2349153964	 1.3717148257	-0.2683697124	 0.40244
C	-1.1792152253	 2.1354766292	 0.6660558011	-0.345244
C	-0.6157834543	 3.5714593176	 0.7175657235	-0.022679
C	 0.8882144554	 3.3668975118	 0.3832868871	-0.182442
N	 0.8726863705	 2.1640565037	-0.4293298967	-0.296122
C	-1.2897120276	 4.4837078145	-0.2891500718	 0.043391
C	-2.5617603411	 5.2059599648	 0.0700459255	-0.276751
C	-1.2745107364	 5.9786146998	-0.0979167807	-0.279148
H	-2.20835051	 2.0805555103	 0.3065522775	 0.131242
H	-1.14579647	 1.644468496	 1.6453234822	 0.123521
H	-0.7221636243	 4.0107834793	 1.7140413005	 0.072457
H	 1.2979821612	 4.2193133168	-0.1677661159	 0.11481
H	 1.487970647	 3.2342693568	 1.2955782202	 0.100598
H	 1.6860680557	 1.800886984	-0.9004297329	 0.249268
H	-1.2154738725	 4.1347408676	-1.3167817526	 0.093071
H	-3.3306112516	 5.311295989	-0.687062622	 0.115883
H	-2.9472814593	 5.0830282282	 1.0773105915	 0.112264
H	-0.803038583	 6.3713043394	 0.7976814657	 0.109809
H	-1.1631234776	 6.6132095589	-0.9700569299	 0.113996
71.7112	82.0501	141.7957	207.3047	291.478	321.2894	419.5565	491.4669	502.5772	593.9716	675.6722	736.8345	759.9921	813.8617	832.0373	875.0546	903.8729	921.2117	945.5376	981.4129	1013.4434	1049.0167	1059.2855	1080.8403	1092.0079	1141.1981	1144.8976	1197.6752	1198.9582	1226.0533	1235.1934	1258.3976	1265.5478	1296.0534	1319.9808	1362.677	1428.1239	1444.9485	1466.1211	1470.5437	1507.2905	1534.1137	1832.0438	2991.5495	3048.3631	3062.3651	3068.0954	3119.5569	3127.4606	3131.2617	3134.4764	3205.9671	3221.015	3640.9368
O=C1CC(CN1)C1CC1	O=C1C[C@@H](CN1)C1CC1	
InChI=1S/C7H11NO/c9-7-3-6(4-8-7)5-1-2-5/h5-6H,1-4H2,(H,8,9)	InChI=1S/C7H11NO/c9-7-3-6(4-8-7)5-1-2-5/h5-6H,1-4H2,(H,8,9)/t6-/m0/s1
