14
gdb 125393	3.34202	1.82473	1.18901	3.8443	68.11	-0.2414	-0.0047	0.2367	962.3866	0.103905	-432.894711	-432.888004	-432.88706	-432.925892	25.258	
C	-0.0172128754	 1.51018812	 0.096016822	-0.489959
C	-0.0096148884	 0.0278770069	 0.0039944976	 0.273446
C	-0.0337287661	-0.819932167	-1.0512801138	-0.14594
O	-0.0127709667	-2.1522960296	-0.6454585216	-0.218118
C	 0.0251290625	-2.1035888486	 0.6941783019	 0.503419
N	 0.0593578791	-2.957606886	 1.6895305507	-0.392295
C	 0.0836416822	-2.0846086843	 2.7476321348	 0.034857
N	 0.0663549245	-0.7789924003	 2.4688260741	-0.286764
N	 0.0279870776	-0.821699937	 1.1098939121	-0.034915
H	 0.8795179876	 1.8736354892	 0.6084305386	 0.158192
H	-0.0527414666	 1.9513936815	-0.9020066325	 0.142875
H	-0.8840028664	 1.8607874354	 0.6656506545	 0.158273
H	-0.0653226477	-0.652843863	-2.1129318472	 0.164327
H	 0.1151622039	-2.4283433272	 3.7707577589	 0.132603
148.1425	175.8096	234.0217	245.5772	391.16	550.6808	597.7227	621.1041	658.6353	718.181	730.4323	769.1986	798.5712	898.5399	980.0734	1012.8646	1068.8931	1083.322	1131.5344	1197.4837	1226.4073	1256.891	1276.016	1408.1678	1419.1812	1430.0423	1471.2321	1472.5998	1496.9208	1616.2757	1670.7796	3043.0543	3099.8582	3137.5178	3262.9566	3309.2375
CC1=COC2=NC=NN12	Cc1coc2ncnn12	
InChI=1S/C5H5N3O/c1-4-2-9-5-6-3-7-8(4)5/h2-3H,1H3	InChI=1S/C5H5N3O/c1-4-2-9-5-6-3-7-8(4)5/h2-3H,1H3
