18
gdb 22306	3.26615	1.10183	0.86617	1.6416	77.27	-0.2437	0.0072	0.251	1302.8992	0.147459	-439.056223	-439.047577	-439.046633	-439.089597	32.978	
O	-0.0296589097	 1.3460939492	-0.0979430685	-0.39766
N	 0.0663219667	-0.0559614435	-0.0479849743	-0.198671
C	-1.0774635635	-0.6116224882	 0.0723276161	 0.362906
C	-2.3906932181	 0.1225322845	 0.1890250142	-0.343236
C	-3.4399026002	-0.6854607294	 0.9062669277	-0.062011
C	-3.2299747285	-1.9010844947	 1.4062787833	-0.092595
C	-1.9197930713	-2.6423287288	 1.2823326252	 0.081584
O	-2.1180772558	-4.0342935701	 1.0477938293	-0.436028
C	-1.1104610539	-2.1141656703	 0.0930137549	-0.281487
H	 0.8954933817	 1.6070841342	-0.1511492916	 0.306559
H	-2.2237961199	 1.0778672395	 0.6988719493	 0.144059
H	-2.7463081144	 0.3992317199	-0.8153197873	 0.133274
H	-4.4092729176	-0.2085836572	 1.0294569042	 0.093392
H	-4.0255973944	-2.41662972	 1.9409839496	 0.081067
H	-1.332478779	-2.5023434871	 2.206186839	 0.082107
H	-2.5631398318	-4.4064984343	 1.8157641426	 0.281674
H	-1.6138483051	-2.4805233795	-0.8119058409	 0.122924
H	-0.0946431853	-2.5128617141	 0.0987923474	 0.122142
76.3235	100.0844	232.7131	247.4767	302.8315	326.4662	352.6253	379.4036	421.252	452.1975	516.1434	560.1199	648.0611	710.3027	744.2237	837.9716	916.7842	936.1992	955.6317	990.2006	999.9329	1028.4101	1064.1072	1087.0147	1154.505	1191.9243	1212.4923	1264.9375	1268.0818	1318.4814	1341.5892	1350.1394	1406.3225	1411.0059	1426.8782	1454.7568	1477.5852	1724.0353	1736.8809	2946.4592	3000.7228	3026.1957	3062.926	3120.6758	3137.5052	3163.8116	3818.18	3824.249
ON=C1CC=CC(O)C1	ON=C1CC=C[C@@H](O)C1	
InChI=1S/C6H9NO2/c8-6-3-1-2-5(4-6)7-9/h1,3,6,8-9H,2,4H2	InChI=1S/C6H9NO2/c8-6-3-1-2-5(4-6)7-9/h1,3,6,8-9H,2,4H2/t6-/m1/s1
