17
gdb 41043	3.59237	1.8598	1.53434	1.3544	75.01	-0.227	0.0661	0.2931	878.0897	0.137409	-384.551975	-384.545687	-384.544743	-384.58237	26.287	
C	-0.0288639523	 1.4991424359	 0.1005849589	-0.219646
O	 1.0125499684	 1.9163971356	-0.8033340398	-0.266088
C	 2.0795645885	 0.949076181	-0.8418554747	-0.219646
C	 1.3887215478	-0.3599983443	-0.5724138963	 0.300854
C	 0.792907928	-1.5942246062	-1.2168765487	-0.16037
C	-0.5969759306	-1.2316189588	-0.5956160898	-0.16037
C	 0.0152529799	-1.3059841446	 0.8167957995	-0.176904
C	 1.40466396	-1.6684664616	 0.1957466459	-0.176904
C	 0.0213152836	-0.0032568833	 0.0387992786	 0.300854
H	 0.1737233121	 1.8653079347	 1.1189525547	 0.098914
H	-0.9575176518	 1.9530451425	-0.2551648135	 0.117005
H	 2.5517848778	 1.037506056	-1.8237777734	 0.117005
H	 2.8313266276	 1.171967786	-0.068961881	 0.098914
H	 1.0901775963	-2.1422620288	-2.1022275585	 0.086511
H	-1.6184430802	-1.4356123778	-0.8915083541	 0.086511
H	-0.4727488479	-1.5738154579	 1.7456421984	 0.08668
H	 2.2311757467	-2.2792400093	 0.5370221519	 0.08668
164.207	205.3013	292.2167	412.0356	558.2057	614.757	664.225	757.1984	763.804	800.3601	822.3246	828.1777	853.3806	863.6251	882.3066	884.0182	898.6894	977.4978	990.4986	1002.6185	1020.6251	1054.9623	1065.5802	1090.992	1165.7033	1173.5902	1175.8782	1180.9408	1205.75	1227.2922	1258.9563	1327.1056	1369.5533	1423.7076	1434.571	1502.3803	1511.0501	2978.0474	2983.4582	3085.6639	3088.1753	3177.3106	3189.5879	3190.1185	3199.2496
C1OCC23C4C5C(C24)C135	C1OC[C@@]23[C@@H]4[C@H]5[C@@H]([C@H]24)[C@@]135	
InChI=1S/C8H8O/c1-7-3-4(7)6-5(3)8(6,7)2-9-1/h3-6H,1-2H2	InChI=1S/C8H8O/c1-7-3-4(7)6-5(3)8(6,7)2-9-1/h3-6H,1-2H2/t3-,4+,5-,6+,7+,8-
