16
gdb 41706	4.03606	1.53415	1.28624	1.081	67.29	-0.2225	0.0086	0.2311	958.3987	0.126739	-437.873233	-437.866676	-437.865732	-437.904101	26.024	
C	 0.1687287103	 1.2468887539	 0.3379443475	-0.08468
C	 1.4171587768	 1.9427106376	-0.2432550432	-0.345621
C	 2.1098934882	 0.8045315402	-0.9473757372	 0.317707
N	 3.1778151644	 0.9602723215	-1.8951765094	-0.325962
C	 3.7995054952	-0.1496934623	-1.8923118694	 0.087932
O	 3.3952769849	-1.1332256855	-1.0419087061	-0.215583
C	 2.2819689949	-0.598298359	-0.3349881742	-0.040708
C	 1.0704979884	-0.2721213159	-1.1631982073	 0.018815
O	-0.0865190493	 0.0751776857	-0.4571214583	-0.262109
H	 0.3412195057	 0.9466884316	 1.3799453712	 0.106298
H	-0.7279070581	 1.8715339663	 0.309914	 0.119201
H	 1.1544045077	 2.7053730943	-0.9831220428	 0.127719
H	 2.0181881325	 2.4172962295	 0.5371471747	 0.11506
H	 4.6506997759	-0.4075323621	-2.5094048851	 0.148239
H	 2.2377838602	-0.9003301776	 0.7052015101	 0.119168
H	 0.8853857324	-0.7510835382	-2.1192768205	 0.114524
146.5192	223.1149	252.4196	337.7923	382.4999	491.6296	597.7793	657.8404	703.893	759.6896	861.9138	865.3908	896.9101	931.9478	948.2558	964.3796	974.4501	1001.3244	1037.308	1044.4017	1107.6996	1118.6788	1155.3288	1196.9791	1208.5761	1245.1121	1264.8283	1274.6576	1319.4227	1344.2537	1386.4249	1404.0266	1495.0966	1526.413	1661.7436	3014.4252	3055.3769	3088.5107	3104.6873	3165.6834	3176.2564	3238.1618
C1CC23N=COC2C3O1	C1C[C@@]23N=CO[C@@H]2[C@H]3O1	
InChI=1S/C6H7NO2/c1-2-8-4-5-6(1,4)7-3-9-5/h3-5H,1-2H2	InChI=1S/C6H7NO2/c1-2-8-4-5-6(1,4)7-3-9-5/h3-5H,1-2H2/t4-,5-,6+/m1/s1
