21
gdb 107242	2.82255	1.4057	1.09177	2.0191	81.75	-0.2201	0.0721	0.2923	1191.2719	0.180755	-387.025628	-387.016668	-387.015723	-387.058935	34.906	
C	 0.185002196	-2.9320557184	 0.9644981096	-0.388924
C	 1.0033640018	-1.6756612481	 0.6493181249	-0.285862
C	 1.2668677657	-1.436056475	-0.8159310941	 0.282241
C	 0.3725266561	-1.8280091246	-1.9623552392	-0.34097
C	 1.7751763206	-2.3846364754	-1.8978429124	-0.147876
C	 2.8236055264	-1.3133813115	-2.3169430031	-0.056997
O	 2.1429410476	-0.1041631478	-2.6959422105	-0.285864
C	 2.3469287746	-0.3822991731	-1.2987172677	 0.360814
C	 3.0096795361	 0.6614520068	-0.4612576302	-0.509399
H	-0.8293637365	-2.8649917935	 0.5599998257	 0.123197
H	 0.6554789022	-3.8288189238	 0.5474010018	 0.118549
H	 0.100707706	-3.0730876349	 2.0461031665	 0.114062
H	 0.491228072	-0.7988143242	 1.070469863	 0.101529
H	 1.9652884577	-1.7403343175	 1.1765788021	 0.096699
H	-0.4035386501	-2.545543852	-1.7171658359	 0.107996
H	 0.1101330831	-1.1099185958	-2.7287612331	 0.131348
H	 1.9902792462	-3.4428295533	-1.8240586102	 0.088072
H	 3.807750225	-1.4837626759	-2.7385832158	 0.10071
H	 2.3119263568	 1.4721144884	-0.22111694	 0.130519
H	 3.3714156464	 0.2402673243	 0.4818153548	 0.126288
H	 3.8580271964	 1.0914156354	-1.0003489361	 0.133869
82.7293	147.9496	176.1091	194.5746	237.283	287.7286	315.6872	397.1071	446.4799	473.5164	548.6997	620.4237	640.1842	765.3298	773.9415	810.2679	840.4101	870.9754	906.5556	927.9406	959.0113	982.1679	1009.2	1032.9197	1039.0688	1087.7476	1098.2303	1100.1864	1139.3079	1148.7366	1224.6747	1234.7349	1266.0595	1303.5879	1356.535	1383.0178	1404.249	1409.832	1458.7499	1473.249	1485.8463	1491.6687	1498.7119	1501.0656	1510.5876	3000.5503	3026.3975	3033.0084	3037.2392	3095.7368	3104.3705	3109.6307	3120.6539	3143.2107	3178.5214	3197.861	3232.047
CCC12CC1C1OC21C	CC[C@]12C[C@H]1[C@H]1O[C@@]21C	
InChI=1S/C8H12O/c1-3-8-4-5(8)6-7(8,2)9-6/h5-6H,3-4H2,1-2H3	InChI=1S/C8H12O/c1-3-8-4-5(8)6-7(8,2)9-6/h5-6H,3-4H2,1-2H3/t5-,6+,7+,8-/m0/s1
