12
gdb 19221	3.25546	2.10665	1.49045	3.5716	60.09	-0.2727	-0.0531	0.2197	801.3284	0.083977	-377.494337	-377.487818	-377.486874	-377.525243	23.766	
O	-0.0788163458	 0.0206199218	-0.054455884	-0.277277
C	-0.1014016591	 1.2032400251	 0.0711704648	 0.41747
C	-1.1307478758	 2.275433243	-0.0564371659	-0.152081
C	-0.9343189737	 3.2850719557	 1.0279888208	-0.242451
N	-0.0443065743	 3.3591722298	-0.1239947062	-0.107984
C	 1.0198307857	 2.3102415683	 0.1122880921	-0.247859
C	 1.8468199205	 2.474232866	 1.2918597343	 0.306462
N	 2.4794276755	 2.593198201	 2.2525458695	-0.318705
H	-2.0024317273	 2.2631454778	-0.6994240864	 0.141925
H	-1.6636050585	 4.0880112407	 1.0592961177	 0.154598
H	-0.539331901	 2.9854346157	 1.9949975014	 0.158927
H	 1.6420195937	 2.2128020552	-0.7821994882	 0.166974
126.9103	143.66	205.91	387.301	410.9097	503.2178	558.6156	623.0882	717.1951	738.5775	817.0885	848.5116	949.0751	974.9966	1037.4926	1050.3817	1097.2744	1118.3371	1133.9387	1182.6357	1213.9197	1307.9346	1315.0685	1505.262	1915.8021	2351.6871	3085.8145	3122.8511	3201.1233	3217.0991
O=C1C2CN2C1C#N	O=C1[C@H]2CN2[C@H]1C#N	
InChI=1S/C5H4N2O/c6-1-3-5(8)4-2-7(3)4/h3-4H,2H2	InChI=1S/C5H4N2O/c6-1-3-5(8)4-2-7(3)4/h3-4H,2H2/t3-,4+,7?/m0/s1
