17
gdb 123603	3.97593	1.61837	1.26355	3.0214	78.05	-0.2237	0.0252	0.2489	977.3447	0.140826	-380.88825	-380.881897	-380.880953	-380.918877	25.969	
C	-0.010498798	 1.4801280002	 0.0912301498	-0.284548
C	 1.3077459904	 0.7544926189	 0.0521981548	-0.042593
C	 1.9916299285	 0.4073906712	 1.3770010991	-0.188461
N	 1.0099807893	-0.4694414909	 1.9990781798	 0.044083
N	 1.0147845458	-1.0517113648	 3.2070361781	-0.298789
C	-0.1189726753	-1.7593300686	 3.2089901426	 0.010703
C	-0.8516028894	-1.6204420128	 2.0051909598	-0.401444
C	-0.0773189101	-0.7671089849	 1.2436704332	 0.432077
C	-0.0021102108	-0.0317103487	-0.036347299	-0.193234
H	-0.3503056172	 1.9060537427	 1.03002405	 0.127608
H	-0.2812391497	 2.0522060909	-0.789783686	 0.119079
H	 1.9377010553	 0.872964895	-0.8201484307	 0.101535
H	 2.938595794	-0.1214432413	 1.2218339821	 0.127869
H	 2.1864916687	 1.2808818891	 2.0072493613	 0.132279
H	-0.3754281604	-2.348088704	 4.0781020398	 0.107162
H	-1.7978806515	-2.0669818526	 1.7481695322	 0.101743
H	-0.3321102195	-0.4948632493	-0.957531737	 0.10493
149.2447	187.9766	322.5167	418.0609	435.5059	607.8318	661.1665	703.6301	712.9251	783.7646	788.4577	803.2134	823.5188	880.7179	890.2445	955.8794	970.2799	997.6829	1041.8901	1060.0058	1074.4865	1097.3344	1112.1048	1157.3246	1191.6202	1205.3746	1213.3134	1296.7263	1313.4886	1342.4796	1348.697	1378.3484	1443.4485	1473.3499	1491.6713	1522.2977	1593.0647	3041.2292	3081.4585	3127.712	3189.8607	3195.3104	3218.4814	3239.5739	3272.3406
C1C2CN3N=CC=C3C12	C1[C@H]2Cn3nccc3[C@@H]12	
InChI=1S/C7H8N2/c1-2-8-9-4-5-3-6(5)7(1)9/h1-2,5-6H,3-4H2	InChI=1S/C7H8N2/c1-2-8-9-4-5-3-6(5)7(1)9/h1-2,5-6H,3-4H2/t5-,6-/m0/s1
