23
gdb 122172	3.35821	0.78097	0.71536	1.9152	84.12	-0.239	0.0819	0.321	1721.9414	0.20286	-425.409181	-425.398313	-425.397368	-425.445711	39.433	
C	-0.1831381112	 1.5486646608	-0.2608280296	-0.386321
C	-0.063701807	 0.0689360122	 0.0615718374	-0.024849
O	-1.3288080828	-0.5369796734	-0.118343568	-0.262661
C	-1.3449382534	-1.9238721035	 0.1805466612	-0.135877
C	-2.7860666547	-2.3614386439	 0.119336927	 0.417417
O	-3.5960558437	-1.6288297767	 0.9992741855	-0.47792
C	-3.397113844	-2.8046799787	-1.1926036068	-0.348192
C	-3.1938212568	-3.7925429805	-0.0562323027	-0.046068
C	-2.2175306101	-4.9436679413	-0.1635743805	-0.414598
H	 0.7832216957	 2.0454292632	-0.1334001208	 0.117057
H	-0.5139914818	 1.6914848454	-1.2933862655	 0.128431
H	-0.9091812095	 2.0290723927	 0.4015078675	 0.124747
H	 0.6809324985	-0.4110917403	-0.5953054215	 0.087608
H	 0.2819210873	-0.0766091077	 1.0987709199	 0.089262
H	-0.7182088031	-2.4804154525	-0.5317327204	 0.086176
H	-0.94291186	-2.0927354553	 1.1933010224	 0.091768
H	-3.3972010332	-0.7011237051	 0.8190440102	 0.284305
H	-4.4065742603	-2.4705912906	-1.4022873229	 0.113404
H	-2.7495229872	-2.8860105913	-2.0605196604	 0.104397
H	-4.100772062	-4.0250561219	 0.4959171499	 0.098653
H	-1.3364013803	-4.6805894954	-0.7564762055	 0.113994
H	-1.8708705393	-5.2714540218	 0.8228865641	 0.119579
H	-2.6905130812	-5.8031149144	-0.6512283605	 0.119687
47.5851	71.9301	97.2225	153.2133	180.2294	207.0699	222.413	246.9443	297.4842	379.5114	413.8558	425.496	443.3662	473.2893	550.2047	744.8808	812.5021	820.2075	878.4936	906.8062	932.793	936.901	999.4705	1021.9474	1038.8463	1049.0007	1113.8977	1131.8495	1136.6921	1161.1166	1182.9858	1189.9479	1227.6823	1286.4651	1292.7803	1298.1287	1357.2321	1393.0721	1404.7858	1416.4659	1429.515	1452.7384	1483.5895	1490.3506	1496.0156	1498.5415	1505.1267	1515.9986	1533.3181	2955.8707	2969.4483	2983.8617	3013.7386	3029.5051	3044.7571	3088.4887	3099.9438	3118.8416	3121.5678	3126.508	3146.7944	3221.0272	3774.7978
CCOCC1(O)CC1C	CCOC[C@@]1(O)C[C@H]1C	
InChI=1S/C7H14O2/c1-3-9-5-7(8)4-6(7)2/h6,8H,3-5H2,1-2H3	InChI=1S/C7H14O2/c1-3-9-5-7(8)4-6(7)2/h6,8H,3-5H2,1-2H3/t6-,7+/m1/s1
