18
gdb 86647	2.85868	1.32055	1.04052	6.5371	75.77	-0.2357	-0.0006	0.2351	1177.2748	0.14895	-435.307958	-435.299336	-435.298391	-435.341542	31.89	
C	 0.2590874987	 1.4849157309	-0.0046631979	-0.399368
C	-0.0678901369	-0.0114467219	-0.0404915735	 0.017081
C	 0.6251870775	-0.7614945286	-1.1933013609	-0.183072
N	 1.8700511241	-1.2215815962	-0.576684438	-0.103128
C	 2.9595170286	-1.5993256406	-1.3394099135	 0.157427
O	 4.0115196064	-2.0270966175	-0.9472193483	-0.274001
C	 1.7437294427	-1.2584527759	 0.8310999602	 0.429546
N	 2.6328893575	-1.6984988299	 1.6202060965	-0.539697
N	 0.4655907506	-0.7550618857	 1.1022686747	-0.353802
H	 1.3413135667	 1.6497661609	-0.0161619953	 0.138769
H	-0.1797564836	 1.998403793	-0.8664772533	 0.124318
H	-0.1467800775	 1.948277061	 0.9006689129	 0.120426
H	-1.1522578843	-0.1491179911	-0.0996695566	 0.094647
H	 0.0158623423	-1.6103423744	-1.5263978754	 0.125808
H	 0.8249302792	-0.1162224981	-2.0520775013	 0.126737
H	 2.7350715338	-1.4404725812	-2.4157084372	 0.069603
H	 2.3248430833	-1.6130623046	 2.5881236887	 0.20865
H	 0.3403175109	-0.3586607704	 2.0222028981	 0.240058
58.4474	117.2016	196.2247	225.7066	233.5939	260.6716	339.701	409.9194	468.5701	487.3938	540.1069	715.0739	725.5267	762.7145	798.8137	818.5647	846.3651	949.5526	983.3113	1025.8545	1048.8544	1081.8919	1138.5591	1152.6593	1198.4907	1210.2148	1271.5023	1332.1412	1338.1409	1381.0056	1410.8314	1421.6035	1438.6421	1463.9432	1495.3303	1496.5003	1518.6899	1742.9771	1845.2674	2902.1214	3026.0911	3032.8253	3053.5191	3098.4671	3104.7259	3113.3059	3489.9139	3609.9049
CC1CN(C=O)C(=N)N1	C[C@H]1CN(C=O)[C]([NH])N1	
InChI=1S/C5H9N3O/c1-4-2-8(3-9)5(6)7-4/h3-4H,2H2,1H3,(H2,6,7)	InChI=1S/C5H9N3O/c1-4-2-8(3-9)5(6)7-4/h3-4H,2H2,1H3,(H2,6,7)/t4-/m0/s1
