17
gdb 105300	2.55042	1.23043	0.9857	1.9151	71.85	-0.2685	-0.0704	0.198	1222.571	0.131847	-458.959041	-458.949515	-458.948571	-458.993925	33.18	
C	 0.3512043427	 0.1290173147	 1.3222474097	-0.391322
C	-0.2062454708	-0.6362924002	 0.1128197933	-0.27903
C	 0.7885728236	-0.6841301964	-1.0211106337	 0.279608
O	 1.975656376	-1.459315081	-0.844985189	-0.252641
C	 1.081447761	-1.9158844738	-1.8378599438	-0.101558
C	 0.3269016872	-3.1909188002	-1.6047267951	 0.142051
O	 0.2221205255	-3.7451882107	-0.5422294317	-0.23899
C	 1.0503292646	 0.5922264299	-1.7798112291	 0.131055
O	 0.339641253	 1.5613535894	-1.7367187279	-0.246445
H	 1.2658529942	-0.3450503205	 1.6897785061	 0.135926
H	 0.5757486703	 1.1683081224	 1.0671696196	 0.134596
H	-0.379297433	 0.1324291595	 2.1354950916	 0.122317
H	-0.4668025464	-1.6544582418	 0.4066423798	 0.140254
H	-1.1096042753	-0.1420282151	-0.2594749322	 0.123311
H	 1.4177456347	-1.7764286849	-2.8681271927	 0.111645
H	-0.1489682965	-3.5913422776	-2.5269353744	 0.09357
H	 1.9779331993	 0.5535507464	-2.3934266908	 0.095654
70.4206	89.3418	119.6802	169.0659	207.244	225.1206	232.5265	289.6533	310.6878	421.3443	507.4042	549.8151	725.0941	769.2232	789.7979	815.4347	910.6623	951.0404	965.487	1002.4327	1032.8714	1096.2968	1101.1295	1117.7513	1243.8703	1302.456	1327.222	1371.3625	1396.7821	1406.9789	1421.0835	1446.6695	1468.8536	1500.9896	1508.7202	1823.1617	1832.9695	2892.2643	2893.5711	3047.4932	3061.3556	3088.035	3114.1904	3121.4385	3135.1825
CCC1(OC1C=O)C=O	CC[C@]1(O[C@H]1C=O)C=O	
InChI=1S/C6H8O3/c1-2-6(4-8)5(3-7)9-6/h3-5H,2H2,1H3	InChI=1S/C6H8O3/c1-2-6(4-8)5(3-7)9-6/h3-5H,2H2,1H3/t5-,6-/m0/s1
