20
gdb 26660	2.24244	1.53536	0.9272	1.721	85.47	-0.1698	0.0522	0.2221	1289.9231	0.168429	-403.201269	-403.190236	-403.189291	-403.238208	38.074	
C	-0.0114916194	 1.4969601913	 0.1147544016	-0.507787
C	 0.0112438968	 0.0105569717	-0.0274349302	 0.225449
C	 0.0068291364	-0.7998595648	-1.1483928689	 0.092496
C	-0.0315954583	-0.3988618142	-2.5915705359	-0.5386
C	 0.0461468155	-2.1468251881	-0.6723346728	 0.179884
O	 0.0426602624	-3.2894224795	-1.4312695323	-0.456738
C	 0.0734486772	-2.1438173563	 0.7008158316	 0.220205
C	 0.113626503	-3.2697167875	 1.6755471826	-0.511878
N	 0.0484298652	-0.8099571298	 1.0733094189	-0.370939
H	 0.8964341508	 1.8830071003	 0.5967024691	 0.124081
H	-0.0856550795	 1.9744067626	-0.8646779108	 0.132989
H	-0.8667382747	 1.8417990351	 0.7102519312	 0.12326
H	 0.8631185395	-0.7266409341	-3.1394555833	 0.11768
H	-0.9009177094	-0.8210962431	-3.1138452088	 0.120926
H	-0.0894082676	 0.686691445	-2.7072995067	 0.125415
H	 0.133710196	-3.0383534666	-2.3546211058	 0.292326
H	 0.9830716374	-3.2146888565	 2.3441192019	 0.116592
H	-0.7822159099	-3.3136771849	 2.3096084316	 0.118406
H	 0.176410796	-4.2134619445	 1.1289522895	 0.148324
H	 0.0615485628	-0.487245906	 2.0247426176	 0.24791
35.6133	65.3919	102.3869	133.8849	147.9551	168.989	238.875	252.8936	282.219	286.7713	314.8978	409.1405	524.5453	573.6546	593.937	634.2791	690.1586	739.244	840.8608	968.3046	1003.218	1036.047	1051.2227	1060.7185	1064.7401	1141.8945	1224.0668	1242.2041	1292.321	1339.4554	1407.8053	1413.8778	1424.6139	1473.6778	1478.2329	1483.1784	1483.842	1484.8313	1497.7066	1503.329	1516.0323	1592.5219	1694.172	2999.8645	3003.8327	3010.122	3038.157	3042.5669	3050.4702	3104.942	3121.2594	3123.731	3679.6678	3843.6468
CC1=C(C)C(O)=C(C)N1	Cc1c(C)c(O)c(C)[nH]1	
InChI=1S/C7H11NO/c1-4-5(2)8-6(3)7(4)9/h8-9H,1-3H3	InChI=1S/C7H11NO/c1-4-5(2)8-6(3)7(4)9/h8-9H,1-3H3
