14
gdb 16129	4.18328	1.93215	1.55134	1.2084	64.35	-0.239	-0.0336	0.2054	799.7333	0.108386	-378.728373	-378.721868	-378.720924	-378.758914	24.864	
O	 0.0104469223	-0.0278134698	 0.1854503516	-0.290355
C	 0.0328215367	 1.1685605022	-0.0050375335	 0.077021
C	 1.2649460724	 1.9588599623	-0.0056229955	 0.252855
C	 1.3037028876	 3.4501416857	 0.241014466	-0.331135
C	 1.6964710423	 3.0039395754	-1.1302845867	-0.041646
N	 3.0668268148	 2.7203591669	-1.404973611	-0.230693
C	 3.4352907347	 1.761982941	-0.6306618113	 0.046636
N	 2.4922957772	 1.2651479691	 0.2485028921	-0.342541
H	-0.8942830739	 1.7507432728	-0.1947016222	 0.081385
H	 0.3392844522	 3.9407143918	 0.3274034056	 0.128319
H	 2.0708646037	 3.8116040863	 0.9178673777	 0.136488
H	 1.0670104787	 3.2649405059	-1.9742139613	 0.112619
H	 4.4417112447	 1.3577839986	-0.6194044867	 0.136661
H	 2.4147929468	 0.2724602118	 0.4303139652	 0.264388
129.9867	207.3915	263.2625	379.772	392.6033	505.0546	540.8364	571.7583	662.1883	721.4539	809.2651	877.1274	925.3705	928.6949	950.9461	1018.1332	1048.8506	1075.67	1094.5482	1128.7322	1141.2201	1247.8401	1298.248	1341.6221	1361.8743	1414.901	1443.0156	1464.167	1638.1448	1785.1061	2904.0527	3125.9268	3171.04	3206.0535	3219.6815	3581.327
O=CC12CC1N=CN2	O=C[C@]12C[C@H]1N=CN2	
InChI=1S/C5H6N2O/c8-2-5-1-4(5)6-3-7-5/h2-4H,1H2,(H,6,7)	InChI=1S/C5H6N2O/c8-2-5-1-4(5)6-3-7-5/h2-4H,1H2,(H,6,7)/t4-,5-/m1/s1
