23
gdb 119150	1.90373	1.32746	1.03252	2.8384	82.6	-0.2465	0.0705	0.317	1334.9186	0.203813	-425.404998	-425.394477	-425.393532	-425.44053	38.96	
C	-0.1150905633	 1.3775336803	-0.012140292	-0.229916
O	-0.1693494668	-0.0294538482	-0.0839819959	-0.244302
C	 0.7283771692	-0.5781377744	-1.0427093188	-0.149119
C	 0.6441946331	-2.0853627298	-0.9941113376	 0.339705
C	-0.3859314318	-2.7533090227	-1.8695136242	-0.299249
C	 1.0734534217	-2.8248027703	-2.2400050382	-0.323854
C	 0.9166152354	-2.736766827	 0.3622709074	 0.071717
C	 2.2577802918	-2.3225155808	 0.9790512328	-0.404969
O	-0.1528923284	-2.5117663379	 1.2717318522	-0.447225
H	 0.887841628	 1.7326414477	 0.2704085168	 0.109885
H	-0.3858419986	 1.8388256066	-0.9740148102	 0.110492
H	-0.8324819145	 1.6958352401	 0.7475210947	 0.133037
H	 0.4685875099	-0.2144019721	-2.0500861207	 0.086535
H	 1.7517104125	-0.2306249458	-0.8265246157	 0.093981
H	-0.8654515738	-3.6448208955	-1.4813083321	 0.123552
H	-1.0351873019	-2.1227265644	-2.4674922421	 0.110227
H	 1.4180313869	-2.2457357836	-3.0910253531	 0.10769
H	 1.5934900882	-3.7681777693	-2.1114380242	 0.114503
H	 0.9351801254	-3.8230324463	 0.2032957415	 0.070612
H	 2.2693383607	-1.2533550498	 1.214600099	 0.112946
H	 2.413942284	-2.8685259967	 1.9130313856	 0.120875
H	 3.0934371371	-2.5376163034	 0.3038911503	 0.106582
H	-0.3769675047	-1.5747574265	 1.1957808746	 0.286296
60.748	87.4963	117.1075	168.2646	213.8518	225.6529	257.7254	269.4818	321.3537	360.6778	383.0591	441.5528	471.3923	511.7027	537.9	747.3355	786.1256	869.2824	919.2803	938.8308	959.4371	961.4305	996.9235	1028.288	1053.8646	1068.7449	1083.3192	1110.9391	1126.3851	1145.5323	1184.2709	1185.9333	1224.0081	1248.3378	1281.7395	1336.9121	1346.9215	1378.1517	1400.1539	1431.8057	1456.818	1472.0126	1480.3967	1485.1882	1493.2247	1495.6162	1504.8301	1507.2248	1526.9368	2962.2231	2980.0009	2993.4517	3017.0256	3026.4478	3033.2535	3102.7727	3118.1206	3120.6773	3126.8283	3135.4079	3205.1564	3222.729	3755.1802
COCC1(CC1)C(C)O	COCC1(CC1)[C@@H](C)O	
InChI=1S/C7H14O2/c1-6(8)7(3-4-7)5-9-2/h6,8H,3-5H2,1-2H3	InChI=1S/C7H14O2/c1-6(8)7(3-4-7)5-9-2/h6,8H,3-5H2,1-2H3/t6-/m1/s1
