16
gdb 14538	4.55165	1.574	1.43805	3.3052	69.79	-0.269	0.0278	0.2969	898.9634	0.132081	-342.762839	-342.755559	-342.754615	-342.79399	28.036	
N	-0.1268122076	 1.4344271853	 0.0315772244	-0.5605
C	-0.0745105442	-0.0044732718	 0.030651618	 0.155111
C	 1.0091047823	-0.6062845047	-0.7250992369	 0.228751
N	 1.8910139974	-1.0331676799	-1.3416850044	-0.345165
C	-0.4675416878	-0.7989011509	 1.2663983846	-0.079142
C	-1.5587278145	-0.0557763163	 2.0466545206	-0.235201
C	-2.4641701178	-0.0880149078	 0.7740979469	-0.235189
C	-1.3515211449	-0.830236	 0.0238493402	-0.079155
H	 0.727798362	 1.8237032048	 0.4179437575	 0.24361
H	-0.2203585867	 1.7900970728	-0.9149543318	 0.243612
H	 0.2019471866	-1.5556052436	 1.6563029282	 0.108361
H	-1.9621402459	-0.6630681651	 2.8591889983	 0.110116
H	-1.288206322	 0.9298928496	 2.4292408247	 0.113156
H	-3.3492978712	-0.7124853432	 0.9095421732	 0.110126
H	-2.7603058749	 0.8774973567	 0.360366939	 0.113147
H	-1.4819523808	-1.615283076	-0.7106791425	 0.108361
148.2839	163.0042	241.3065	276.9332	277.0141	407.2497	450.6471	553.3108	579.4795	678.0255	727.8083	782.3127	824.601	869.5494	878.3191	940.3774	970.9134	1008.6685	1017.8282	1041.1394	1087.56	1098.4995	1178.3837	1225.8653	1250.0269	1250.9624	1269.7713	1282.5589	1290.2496	1388.1906	1467.9663	1490.2304	1659.1538	2337.6545	3072.7333	3078.7686	3120.9587	3137.0027	3185.9707	3196.7372	3496.3092	3574.3452
NC1(C#N)C2CCC12	N[C@@]1(C#N)[C@H]2CC[C@@H]12	
InChI=1S/C6H8N2/c7-3-6(8)4-1-2-5(4)6/h4-5H,1-2,8H2	InChI=1S/C6H8N2/c7-3-6(8)4-1-2-5(4)6/h4-5H,1-2,8H2/t4-,5+,6-
