18
gdb 57714	3.15815	0.81981	0.7624	3.6481	73.56	-0.2684	-0.0385	0.2299	1520.872	0.142608	-439.093481	-439.082878	-439.081934	-439.130659	36.221	
C	 0.0025183214	 1.584616826	 0.0365472787	-0.421235
C	 0.031192766	 0.0452126384	 0.0737078301	 0.214858
C	 0.9200789563	-0.4805308437	 1.2162669576	-0.421242
O	-1.2837563216	-0.5159137869	 0.1141160991	-0.287821
C	-2.086562346	-0.2309639574	 1.2378017206	-0.164464
C	-3.4171997315	-0.941152512	 1.0279688345	 0.143576
O	-4.3186826095	-0.891168432	 1.8198335607	-0.233882
C	 0.5814650002	-0.4440120676	-1.2107062281	 0.283961
N	 1.0484901527	-0.8036153332	-2.2034756048	-0.33022
H	 1.0034795303	 1.9741321303	-0.164012398	 0.145511
H	-0.6714045862	 1.9310930095	-0.7501450536	 0.147586
H	-0.3291915121	 1.9869029729	 0.9973092073	 0.129654
H	 0.588879392	-0.0792841619	 2.1776380272	 0.129659
H	 0.884870973	-1.5717071805	 1.2508804989	 0.147593
H	 1.9556638488	-0.1689717404	 1.0601758123	 0.14551
H	-1.6490265232	-0.5943838207	 2.1788862079	 0.131644
H	-2.2871996474	 0.8434927639	 1.3582049963	 0.131616
H	-3.4770124332	-1.5094502646	 0.0750557533	 0.107696
33.3006	51.83	85.8707	106.7452	184.9618	211.3526	239.3101	253.3587	300.0844	371.0667	393.7338	428.1165	512.8552	582.9958	614.4533	727.4902	747.572	873.9862	924.3154	963.0571	1015.2125	1052.7107	1113.4129	1119.0807	1181.1554	1196.1025	1239.3712	1258.8045	1354.6709	1393.5793	1401.6394	1416.9798	1476.9745	1479.9262	1482.7239	1496.573	1504.9037	1846.3692	2367.5839	2914.8019	2998.41	3035.4039	3051.9172	3055.2841	3126.415	3131.5612	3139.0049	3140.7312
CC(C)(OCC=O)C#N	CC(C)(OCC=O)C#N	
InChI=1S/C6H9NO2/c1-6(2,5-7)9-4-3-8/h3H,4H2,1-2H3	InChI=1S/C6H9NO2/c1-6(2,5-7)9-4-3-8/h3H,4H2,1-2H3
