19
gdb 88734	2.67532	1.23167	1.07617	4.9115	77.42	-0.2397	0.0223	0.262	1206.6347	0.158896	-419.170527	-419.161548	-419.160604	-419.204715	32.827	
C	 0.2399104622	 1.508422086	-0.123476461	-0.403488
C	 0.2533310844	 0.0110630717	 0.0683846029	 0.005625
N	 1.5609066349	-0.6639150311	 0.1161934989	-0.329305
C	 0.714440795	-0.6657732102	 1.313483335	-0.047975
C	 1.2140396812	 0.0624235069	 2.5329498134	-0.033643
C	 2.2917431274	-0.5594878483	 3.3819048421	-0.244192
N	 2.5440569353	 0.6362611639	 2.6207935713	-0.064893
C	 3.5359032457	 0.7382642949	 1.6518770428	 0.165238
O	 4.6197248334	 0.2170940379	 1.7457983999	-0.304074
H	 0.9932187763	 2.0013490189	 0.4952008011	 0.13545
H	 0.4401272265	 1.7653012438	-1.1686906751	 0.127595
H	-0.7404333265	 1.9183238627	 0.1423089836	 0.12027
H	-0.5384739121	-0.5127757091	-0.4662805396	 0.088195
H	 1.541832911	-1.5629650655	-0.3546788349	 0.239414
H	 0.1983721582	-1.5924261722	 1.5646370604	 0.09676
H	 0.4484829457	 0.6440764682	 3.0461545746	 0.105351
H	 2.2653380689	-0.4514590541	 4.4628606191	 0.122625
H	 2.7535452629	-1.4730914396	 3.0144799572	 0.134206
H	 3.2622733395	 1.4361746952	 0.8453684184	 0.086841
58.9306	98.078	142.7558	193.2724	213.491	259.6369	284.9127	387.3895	396.8193	508.613	561.2214	692.4975	754.6073	798.2248	829.4607	876.4093	934.1539	970.1273	1000.7493	1020.6851	1022.2162	1054.1062	1078.0355	1099.6115	1124.0601	1132.0212	1150.3565	1169.0458	1203.2919	1249.6672	1271.3163	1365.5694	1385.4573	1411.3491	1423.0023	1434.0103	1467.7328	1491.4003	1501.5027	1509.4435	1795.3745	3010.658	3039.7578	3099.3991	3101.2018	3105.4912	3107.7576	3111.6414	3132.0913	3194.7154	3523.889
CC1NC1C1CN1C=O	C[C@H]1N[C@H]1[C@H]1CN1C=O	
InChI=1S/C6H10N2O/c1-4-6(7-4)5-2-8(5)3-9/h3-7H,2H2,1H3	InChI=1S/C6H10N2O/c1-4-6(7-4)5-2-8(5)3-9/h3-7H,2H2,1H3/t4-,5-,6-,8?/m1/s1
