15
gdb 31908	6.57496	0.90328	0.79817	1.963	81.12	-0.2004	-0.0016	0.1988	1372.5658	0.112629	-416.813701	-416.805174	-416.80423	-416.847018	30.908	
C	-0.0367869425	 1.3383129609	 0.0579304198	-0.238841
O	 0.0231840613	-0.0889878213	-0.0308815186	-0.274999
C	 0.6405920951	-0.5592714916	-1.1151657166	 0.496026
N	 1.1885754688	 0.1250882469	-2.0920912816	-0.353983
C	 1.6822530786	-0.8289102307	-2.9513428706	-0.200062
C	 1.4293596504	-2.1000862923	-2.4891634506	 0.176136
N	 0.7458806055	-1.899759102	-1.2836517069	-0.418654
C	 1.7256156976	-3.3752150304	-2.9964869857	 0.25568
C	 1.9751447052	-4.4749973014	-3.4233854893	-0.450362
H	 0.9694464271	 1.7654692985	 0.0820736206	 0.144516
H	-0.5763126817	 1.7552287762	-0.7968085368	 0.144656
H	-0.5660873903	 1.5525256326	 0.9865252787	 0.133752
H	 2.1953803875	-0.5586651761	-3.860834674	 0.119944
H	 0.3997081549	-2.6122795588	-0.6637380236	 0.275148
H	 2.2003382924	-5.4380658003	-3.8089069847	 0.191043
78.8237	132.5129	136.1883	165.8291	245.5093	313.8731	435.5975	460.2459	478.3732	505.9361	544.9969	617.2396	663.6214	681.3218	725.5654	737.5285	849.7841	983.5471	1036.6929	1076.9098	1183.1372	1186.7646	1215.7348	1230.9794	1294.0006	1354.9221	1458.9211	1477.7358	1481.6405	1502.5934	1569.3913	1623.5283	2225.1189	3046.8575	3120.546	3157.2306	3262.0441	3503.4134	3673.954
COC1=NC=C(N1)C#C	COc1ncc([nH]1)C#C	
InChI=1S/C6H6N2O/c1-3-5-4-7-6(8-5)9-2/h1,4H,2H3,(H,7,8)	InChI=1S/C6H6N2O/c1-3-5-4-7-6(8-5)9-2/h1,4H,2H3,(H,7,8)
