18
gdb 75961	2.20232	1.91406	1.06315	1.842	75.04	-0.2463	0.0052	0.2515	1105.1656	0.150864	-435.332278	-435.324015	-435.323071	-435.365192	31.198	
C	-0.0224489955	 1.4194749811	 0.2022710297	-0.370864
N	-0.0195026152	-0.0271057978	 0.0186318066	-0.176307
C	-1.2463537357	-0.7025581082	-0.0330750067	 0.375152
N	-2.3924382572	-0.1810441844	 0.1660348951	-0.527467
C	-1.1613680434	-2.1643837833	-0.4054073612	-0.259666
C	 0.0715603402	-2.8174386866	 0.2050392371	-0.180793
N	 1.2246662249	-2.0172933805	-0.1664523695	-0.353324
C	 1.2412813121	-0.6498506063	-0.1009086155	 0.473147
O	 2.2746534073	-0.0092049951	-0.1491978167	-0.404169
H	 1.0081170238	 1.7601603114	 0.1371300704	 0.177942
H	-0.6189831737	 1.9033457749	-0.5780991561	 0.134803
H	-0.4345343739	 1.689379097	 1.1810894964	 0.132583
H	-2.3373630272	 0.8142708829	 0.3766152796	 0.214848
H	-2.0838655193	-2.6475507222	-0.0839215592	 0.137815
H	-1.0992895224	-2.2402959034	-1.4979747457	 0.132311
H	-0.036651225	-2.8942670802	 1.2978429744	 0.11576
H	 0.2062091509	-3.8298562389	-0.1849770286	 0.120611
H	 2.1478837092	-2.4156780904	-0.09891439	 0.257617
82.3417	127.2357	191.9763	221.1255	261.1348	376.748	400.6653	451.6168	479.6757	532.2129	569.0638	614.0556	690.6778	723.1021	765.2285	879.8968	897.5421	957.2366	962.6442	1085.8228	1097.1404	1110.2208	1158.7139	1214.7281	1216.652	1248.9202	1261.0747	1320.134	1358.2862	1405.9905	1415.9918	1449.7261	1466.067	1481.072	1504.728	1515.6966	1526.3644	1707.984	1795.7774	2987.2096	3030.7575	3042.6659	3086.4117	3086.6861	3139.8015	3182.6912	3499.1376	3641.0458
CN1C(=N)CCNC1=O	CN1[C]([NH])CCNC1=O	
InChI=1S/C5H9N3O/c1-8-4(6)2-3-7-5(8)9/h6H,2-3H2,1H3,(H,7,9)	InChI=1S/C5H9N3O/c1-8-4(6)2-3-7-5(8)9/h6H,2-3H2,1H3,(H,7,9)
