12
gdb 20608	3.53122	1.98923	1.28264	6.7017	62.91	-0.2735	-0.0324	0.2411	865.9625	0.085361	-373.723904	-373.716949	-373.716004	-373.755582	24.24	
C	-0.0042793251	 1.5435458844	 0.0810127937	-0.518577
C	 0.015702792	 0.0580360241	-0.0123358067	 0.254748
C	-0.0089033107	-0.8084588347	-1.0922984047	 0.159586
N	 0.0273500536	-2.1035679976	-0.6366019734	-0.248527
N	 0.0726697206	-2.0871749859	 0.6536482657	-0.098315
N	 0.0659903289	-0.7877023782	 1.0391428216	-0.222589
C	-0.0627542759	-0.46304775	-2.4658160326	 0.234709
N	-0.1069858916	-0.1377516962	-3.5758311331	-0.339629
H	 0.8926651669	 1.925230525	 0.5799045136	 0.155778
H	-0.0450790421	 1.9743998647	-0.9210375745	 0.176211
H	-0.8767561292	 1.8976094866	 0.6400519062	 0.155836
H	 0.0972891327	-0.5682421021	 2.0231708741	 0.29077
78.4483	141.8122	178.4692	263.5277	324.9788	527.3129	544.2353	600.8572	606.6853	701.8198	702.7014	751.6163	991.9908	1024.8756	1055.6295	1065.0016	1180.5241	1269.1768	1308.2658	1385.2764	1423.2795	1460.1059	1483.0926	1506.8702	1610.8665	2355.089	3041.7879	3098.9168	3140.3493	3645.6251
CC1=C(N=NN1)C#N	Cc1c(nn[nH]1)C#N	
InChI=1S/C4H4N4/c1-3-4(2-5)7-8-6-3/h1H3,(H,6,7,8)	InChI=1S/C4H4N4/c1-3-4(2-5)7-8-6-3/h1H3,(H,6,7,8)
