18
gdb 45778	2.86402	1.51503	1.0913	3.3885	81.64	-0.2327	0.0101	0.2429	1122.097	0.148336	-401.950213	-401.942297	-401.941353	-401.983532	30.632	
N	-0.0753052336	 1.3544819067	 0.2324367981	-0.481388
C	 0.0196246878	 0.1426674501	-0.1248511503	 0.354257
C	 1.305508436	-0.6699135562	-0.1801037232	-0.383117
C	 1.2003703286	-1.9499638648	-0.953483467	-0.106323
C	 0.0376676025	-2.3741097926	-1.4371256521	-0.105008
C	-1.2113531491	-1.6283015575	-1.2318449408	 0.421103
C	-2.2191330691	-1.4986265946	-2.3577282307	-0.317337
C	-2.5357726431	-2.3427843603	-1.1480857821	-0.317972
O	-1.1479082407	-0.5001435578	-0.3821020167	-0.272195
H	 0.8454858409	 1.7191953151	 0.4732344093	 0.217079
H	 2.0921269804	-0.0307193949	-0.5993391226	 0.131865
H	 1.6161240033	-0.8744073428	 0.8553343648	 0.141946
H	 2.1110189224	-2.5197712548	-1.110035764	 0.099457
H	-0.0403928818	-3.2919902628	-2.0113218562	 0.101082
H	-2.7104012904	-0.5362068453	-2.4373163767	 0.139761
H	-2.0007981126	-1.9876743928	-3.3005646737	 0.119033
H	-2.5401966657	-3.422853068	-1.2433497107	 0.119946
H	-3.2400163357	-1.9404748466	-0.4294434951	 0.137813
50.5949	54.2523	241.1385	273.4681	376.0711	433.9194	459.9528	505.8931	535.2067	576.5686	637.6488	729.7639	768.6287	832.8129	856.332	900.4851	908.9512	933.8169	941.1918	974.3702	982.1078	990.8804	1021.2085	1061.7686	1077.4722	1131.5973	1170.1732	1194.202	1215.0406	1293.3792	1308.8303	1342.9611	1378.8203	1439.6105	1452.5275	1459.2379	1488.2812	1729.4441	1737.3921	3002.7167	3045.6722	3138.9462	3140.937	3167.4471	3188.9614	3226.6737	3240.7883	3493.6824
N=C1CC=CC2(CC2)O1	[NH][C]1CC=CC2(CC2)O1	
InChI=1S/C7H9NO/c8-6-2-1-3-7(9-6)4-5-7/h1,3,8H,2,4-5H2	InChI=1S/C7H9NO/c8-6-2-1-3-7(9-6)4-5-7/h1,3,8H,2,4-5H2
