18
gdb 81578	3.2995	1.23498	1.0111	15.6361	75.09	-0.1584	-0.0322	0.1262	1176.161	0.148532	-438.980256	-438.972133	-438.971188	-439.01356	30.866	
N	 0.3112954468	 1.0780584569	 0.0621208076	-0.460025
H	 0.4505080659	 0.0648154871	 0.0158485953	 0.311761
H	 1.2253707909	 1.5297658816	 0.1227759913	 0.328046
H	-0.1344545396	 1.3852629259	-0.8040109728	 0.328046
C	-0.5566632923	 1.4793600494	 1.273057047	-0.010897
C	-1.8056172801	 0.6233304852	 1.5505434242	-0.071311
C	-0.8811912476	-0.5209158942	 2.06117739	-0.276439
C	-0.2460225092	 0.7890999522	 2.6134701306	-0.071308
C	-1.708380491	 1.2441837534	 2.9996011844	-0.083431
C	-2.0612922689	 2.7561011104	 3.281679534	 0.327943
O	-2.7610646258	 2.9081714458	 4.2850198615	-0.448321
O	-1.5986143255	 3.6049561869	 2.4702316095	-0.493613
H	-0.6948220863	 2.5731966607	 1.3051563795	 0.184554
H	-2.697029878	 0.5468330335	 0.9274852039	 0.087612
H	-1.3145342988	-1.1951501854	 2.8021583287	 0.123922
H	-0.3172145089	-1.1208157889	 1.3272321108	 0.049478
H	 0.6571003181	 0.9033400959	 3.2134613042	 0.087612
H	-2.1596019595	 0.6060058836	 3.7611993203	 0.086372
39.7954	169.7394	200.4834	204.0511	290.6165	313.5613	382.5772	398.4718	571.834	684.6334	718.1404	789.6448	790.9977	824.1617	852.9444	878.3989	887.7367	904.1919	956.4955	1002.2766	1023.4523	1031.6191	1074.2777	1095.5329	1103.9011	1154.3978	1181.4364	1202.5721	1233.1067	1242.6957	1268.5471	1278.541	1317.412	1358.9594	1415.256	1535.7868	1647.8195	1649.2377	1770.5323	2945.6578	2955.8973	3099.7622	3108.9523	3113.3445	3118.7202	3397.5107	3491.8057	3520.5048
[NH3+]C1C2CC1C2C([O-])=O	[NH3][C@H]1[C@H]2C[C@@H]1[C@H]2C(=O)[O]	
InChI=1S/C6H9NO2/c7-5-2-1-3(5)4(2)6(8)9/h2-5H,1,7H2,(H,8,9)	InChI=1S/C6H9NO2/c7-5-2-1-3(5)4(2)6(8)9/h2-5H,1H2,7H3/t2-,3+,4-,5-
