17
gdb 86473	2.30657	1.41159	1.01668	1.8191	81.4	-0.2575	-0.0004	0.2571	1210.2832	0.132005	-384.599768	-384.590399	-384.589454	-384.634196	34.92	
C	 0.493199212	 1.597350138	 0.0130128274	-0.401351
C	 0.0075484998	 0.1655125587	-0.0622329288	 0.163878
C	 0.4691135601	-0.7050484242	-1.2471114166	-0.346552
C	 1.0645544843	-1.651882237	-0.151356267	 0.066909
O	 0.6935738527	-0.6979363144	 0.8856902725	-0.315364
C	 0.3558918056	-2.9224830413	-0.0005535535	 0.315833
C	-0.2519972259	-3.9527414328	 0.1104934455	-0.461356
C	 2.508126127	-1.8618933898	-0.2139693815	 0.298672
C	 3.6977534181	-2.012113689	-0.2876675165	-0.439484
H	 1.5706721375	 1.651248038	-0.1692706445	 0.126869
H	-0.0221182222	 2.2147954241	-0.7311767167	 0.117791
H	 0.2901108021	 2.0165914619	 1.0033618356	 0.131766
H	-1.0759207372	 0.118197735	 0.1080049806	 0.084088
H	-0.3072551579	-1.1526252005	-1.865797939	 0.127009
H	 1.2360193666	-0.2478566544	-1.8728001024	 0.125938
H	-0.7782963137	-4.868967832	 0.2190919149	 0.202979
H	 4.748992141	-2.1544684805	-0.3414655799	 0.202375
38.5226	124.0657	155.6053	173.7264	235.1607	241.0263	328.7539	400.0556	456.7018	499.64	539.8589	570.3782	590.2919	633.4397	636.4845	665.6726	668.0119	773.3676	882.6532	901.2066	916.8174	968.886	977.631	1059.2273	1104.5038	1152.1287	1189.3214	1233.8526	1251.6323	1310.9753	1388.8888	1410.3233	1479.5704	1483.902	1496.0002	2236.0748	2237.9621	3017.0908	3034.3593	3094.0139	3106.1853	3117.272	3160.811	3500.5362	3501.0979
CC1CC(O1)(C#C)C#C	C[C@H]1CC(O1)(C#C)C#C	
InChI=1S/C8H8O/c1-4-8(5-2)6-7(3)9-8/h1-2,7H,6H2,3H3	InChI=1S/C8H8O/c1-4-8(5-2)6-7(3)9-8/h1-2,7H,6H2,3H3/t7-/m0/s1
