21
gdb 115162	3.07105	1.1336	0.91935	2.0441	78.83	-0.2371	-0.0229	0.2142	1331.5999	0.181472	-424.258987	-424.249482	-424.248538	-424.293441	35.127	
C	 0.0395633797	 1.6450157068	-0.0759222892	-0.38557
C	-0.0784876	 0.118369548	-0.0282207456	-0.200518
C	 0.6634967889	-0.5629758741	-1.1678346791	 0.127356
O	 2.0677368125	-0.2735612008	-1.0460608225	-0.265183
C	 2.7593004631	-1.1446102411	-1.9145406418	-0.182601
C	 1.9009041832	-2.4103851561	-2.0061581184	 0.368069
O	 2.2047516055	-3.4410501457	-2.545439285	-0.309671
C	 0.5948800647	-2.1013104796	-1.2622038212	-0.132188
C	 0.5955008218	-2.848723618	 0.0826875108	-0.403759
H	 1.0875129923	 1.9514090057	-0.0301224191	 0.138459
H	-0.3875745427	 2.0459316903	-1.0018340148	 0.112729
H	-0.4905051897	 2.1051991356	 0.7630005255	 0.112115
H	 0.3114519044	-0.2547281759	 0.924544538	 0.108898
H	-1.1331271069	-0.1796821235	-0.0803432596	 0.099182
H	 0.3022802811	-0.1443256694	-2.124913546	 0.066271
H	 2.8775258586	-0.7200207996	-2.9264757375	 0.11749
H	 3.7555137582	-1.3560485494	-1.5154272586	 0.13737
H	-0.2510091612	-2.4387899355	-1.8680175986	 0.099389
H	 1.4189961636	-2.5151457327	 0.7215705901	 0.13166
H	-0.3412568307	-2.6895854636	 0.6233963183	 0.123817
H	 0.7141253534	-3.9211835512	-0.0936639955	 0.136686
64.9086	106.6693	158.8111	177.1895	222.5524	232.6575	264.812	292.413	351.8839	472.4555	492.425	561.2517	639.5278	691.189	768.4947	774.6949	837.0274	923.8907	947.0906	952.7062	1015.4529	1034.2488	1072.2004	1091.1581	1112.7369	1134.4635	1166.8942	1189.51	1219.4604	1251.5559	1298.4075	1319.1777	1325.31	1340.5799	1374.7515	1403.1043	1410.7793	1421.255	1473.9229	1477.0025	1498.2061	1500.8329	1503.1821	1509.3704	1857.3952	2933.4762	2964.2434	3033.1805	3038.6582	3043.0719	3072.0437	3078.4149	3088.6789	3105.4726	3117.0366	3121.6238	3127.4171
CCC1OCC(=O)C1C	CC[C@H]1OCC(=O)[C@H]1C	
InChI=1S/C7H12O2/c1-3-7-5(2)6(8)4-9-7/h5,7H,3-4H2,1-2H3	InChI=1S/C7H12O2/c1-3-7-5(2)6(8)4-9-7/h5,7H,3-4H2,1-2H3/t5-,7-/m1/s1
