17
gdb 64863	3.84614	0.94144	0.86051	3.7044	73.88	-0.2551	-0.0445	0.2106	1333.1106	0.134717	-418.007205	-417.998199	-417.997255	-418.041489	32.495	
C	-0.1678578224	 1.6928143916	 0.0558384864	-0.461148
C	 0.0370347956	 0.1838163543	 0.0581735324	 0.222066
C	 0.7696592359	-0.3794289958	-1.2055817618	-0.294675
C	 2.0389979466	-0.4585395631	-0.309953851	-0.110474
N	 1.1706426087	-0.3269341681	 0.8776244428	-0.342398
C	 2.836544139	-1.6847963531	-0.3669336221	 0.292931
N	 3.4692528767	-2.6496791872	-0.430044697	-0.315606
C	-1.2489370068	-0.5683998264	 0.3798519334	 0.139111
O	-2.3515520482	-0.0902966007	 0.3338402737	-0.245855
H	 0.7391902622	 2.2152502312	-0.2632472948	 0.115424
H	-0.9863774236	 1.9632743004	-0.6158493439	 0.148951
H	-0.4388441614	 2.0447649229	 1.0565139932	 0.132673
H	 0.415201455	-1.3644916021	-1.5128847433	 0.140121
H	 0.8194002913	 0.2829938016	-2.0687707898	 0.134689
H	 2.7115921472	 0.3918846225	-0.4816936458	 0.120466
H	 1.5093064139	 0.293673127	 1.6053812813	 0.231564
H	-1.0709769595	-1.631051845	 0.6573982963	 0.09216
60.2902	73.6512	156.0665	227.1664	241.0834	263.2264	293.2978	371.0957	406.8554	434.375	548.1209	578.5736	656.2678	753.964	785.7539	892.8438	923.0935	941.2711	975.83	1005.6076	1022.3954	1068.1482	1104.4396	1179.6456	1187.8758	1231.1757	1259.2866	1288.6623	1362.4715	1389.5122	1409.1344	1419.9315	1479.7968	1486.9605	1492.9191	1833.4566	2358.8872	2897.6929	3017.1858	3040.3037	3091.4887	3108.7807	3127.4921	3158.003	3529.912
CC1(CC(N1)C#N)C=O	C[C@]1(C[C@@H](N1)C#N)C=O	
InChI=1S/C6H8N2O/c1-6(4-9)2-5(3-7)8-6/h4-5,8H,2H2,1H3	InChI=1S/C6H8N2O/c1-6(4-9)2-5(3-7)8-6/h4-5,8H,2H2,1H3/t5-,6+/m1/s1
