15
gdb 7407	2.85418	1.83153	1.27023	0.8927	58.7	-0.2515	-0.0349	0.2166	944.785	0.116994	-436.995806	-436.987258	-436.986314	-437.029095	30.763	
C	 0.810864699	 0.9871785022	 0.4019017212	-0.487852
C	 0.0960806256	-0.261166687	-0.0251606715	 0.36648
O	 0.6546915359	-1.263525958	-0.4208266029	-0.321263
C	-1.4453762789	-0.2780780061	-0.0008680654	-0.050772
O	-1.9049370566	-1.4565406156	-0.6039123952	-0.439598
C	-1.9648352436	-0.1134322355	 1.4519856131	 0.349314
N	-2.6319765581	-1.1980011404	 1.8997460122	-0.499929
O	-1.765634309	 0.9032330259	 2.0914987374	-0.366353
H	 1.8760899614	 0.7870370679	 0.5227497973	 0.142993
H	 0.675156884	 1.7517546594	-0.3731044349	 0.150394
H	 0.3604072083	 1.3832381434	 1.3156607572	 0.188716
H	-1.8069567483	 0.6077166841	-0.5427195456	 0.125791
H	-1.0913116258	-1.9591277907	-0.7980432112	 0.297597
H	-2.8205459324	-1.9482009256	 1.2546584473	 0.277926
H	-3.0674946614	-1.1654339141	 2.8060247511	 0.266556
68.0213	90.5635	145.4168	209.7999	298.0879	331.4742	369.0575	397.5765	459.7638	526.6273	550.3379	587.8852	633.6839	674.3967	712.6389	837.3095	902.6817	983.1387	1051.1498	1099.4558	1139.587	1200.915	1233.4942	1314.9541	1359.5305	1392.7094	1424.9084	1464.7661	1468.7438	1583.1488	1792.2423	1798.1704	3015.0935	3040.1018	3109.9144	3161.8301	3591.1338	3599.6653	3734.4538
CC(=O)C(O)C(N)=O	CC(=O)[C@@H](O)C(=O)N	
InChI=1S/C4H7NO3/c1-2(6)3(7)4(5)8/h3,7H,1H3,(H2,5,8)	InChI=1S/C4H7NO3/c1-2(6)3(7)4(5)8/h3,7H,1H3,(H2,5,8)/t3-/m1/s1
