16
gdb 112235	2.08196	1.45403	0.95399	0.9718	72.13	-0.267	0.0105	0.2775	1210.2383	0.122704	-437.839462	-437.830599	-437.829655	-437.873527	32.37	
O	-0.1348150204	 1.4335766313	-0.3023463249	-0.417072
C	 0.0088208051	 0.0345025134	-0.1608047174	-0.08032
C	-1.3005752872	-0.5964298048	 0.2652481278	 0.099323
O	-2.3188142978	-0.405307683	-0.7799907379	-0.277626
C	-2.4425465767	-1.763705691	-0.9842056792	 0.444108
N	-3.1289950839	-2.4172125943	-1.7977977572	-0.531976
C	-1.4718352682	-2.1408337561	 0.1374586348	-0.360813
C	-0.3233010946	-2.9593684871	-0.188511091	 0.349753
C	 0.6340683439	-3.6372256557	-0.4474738768	-0.448056
H	-0.8149504406	 1.5795000675	-0.9700906576	 0.294745
H	 0.3630824182	-0.4420931394	-1.0861383301	 0.108503
H	 0.7660068632	-0.1354460338	 0.6114053651	 0.125653
H	-1.6578766578	-0.1671528545	 1.2044200392	 0.108615
H	-3.6779717554	-1.8077642093	-2.4061746408	 0.23425
H	-2.0127719528	-2.5616146486	 0.9908467549	 0.143249
H	 1.4742463451	-4.2415863345	-0.686463389	 0.207664
75.243	105.7008	116.4295	144.5229	240.3432	348.3945	374.0381	409.5823	450.9821	476.8936	560.6615	636.8876	649.6377	658.6381	769.7885	819.1767	860.3131	873.754	939.4783	1001.064	1026.551	1082.1256	1091.6241	1128.899	1172.7548	1209.4142	1228.8025	1295.295	1324.5494	1356.4771	1399.5845	1431.3576	1490.8395	1831.0927	2244.1151	3008.5542	3064.8586	3082.4382	3096.5489	3482.0897	3501.9287	3799.2518
OCC1OC(=N)C1C#C	OC[C@H]1O[C]([NH])[C@H]1C#C	
InChI=1S/C6H7NO2/c1-2-4-5(3-8)9-6(4)7/h1,4-5,7-8H,3H2	InChI=1S/C6H7NO2/c1-2-4-5(3-8)9-6(4)7/h1,4-5,7-8H,3H2/t4-,5+/m0/s1
