16
gdb 127399	4.77104	1.24997	1.01561	4.4051	71.24	-0.234	-0.0453	0.1887	1124.1133	0.125551	-434.010527	-434.003287	-434.002343	-434.042249	27.456	
C	-0.0461580342	 1.4154488633	 0.0664914573	-0.318911
N	-0.0767384503	-0.0282520195	 0.1546962115	-0.087685
C	-1.4306430923	-0.6248729098	 0.1328876343	-0.287159
C	-1.166166311	-1.9510439912	 0.7661496899	 0.335921
N	-1.7319876528	-3.1057103138	 0.9257710212	-0.202688
O	-0.8207997064	-3.8276433783	 1.6793008945	-0.158957
N	 0.3111661416	-3.085210802	 1.9737591922	-0.202688
C	 0.0922082758	-1.9382601346	 1.4121109133	 0.335927
C	 0.7394315859	-0.602757093	 1.2470863933	-0.287164
H	 0.989159935	 1.7594170446	-0.0215773596	 0.129161
H	-0.5833649674	 1.7433967914	-0.8289483568	 0.129161
H	-0.5006277779	 1.9177320529	 0.9417043442	 0.099895
H	-2.1649877895	-0.0534473591	 0.7305810431	 0.115588
H	-1.810686511	-0.6823380205	-0.8921903044	 0.142004
H	 1.7946972916	-0.6456030417	 0.9588321596	 0.142001
H	 0.6725260129	-0.0245835188	 2.1874454663	 0.115594
98.4294	216.2961	263.8547	285.3624	294.5352	302.8602	480.3283	513.4662	616.9428	690.6714	727.7131	794.9997	825.8345	845.8063	893.1821	1012.1345	1016.3664	1052.7342	1059.2062	1138.2909	1176.8435	1192.5264	1206.1063	1212.0233	1237.0672	1348.9342	1366.6707	1421.1744	1461.4827	1486.3848	1499.6865	1503.9191	1515.9622	1581.0437	1680.4268	2926.0599	2927.6936	2936.0586	3063.1265	3064.5135	3067.045	3106.6556
CN1CC2=NON=C2C1	CN1Cc2nonc2C1	
InChI=1S/C5H7N3O/c1-8-2-4-5(3-8)7-9-6-4/h2-3H2,1H3	InChI=1S/C5H7N3O/c1-8-2-4-5(3-8)7-9-6-4/h2-3H2,1H3
