21
gdb 109072	3.39843	1.21061	1.16804	1.3565	83.71	-0.2307	0.0163	0.247	1191.3509	0.184701	-387.097531	-387.089557	-387.088613	-387.130187	31.607	
C	-0.3030330415	 1.5146594735	-0.0288671539	-0.374419
C	 0.1507189231	 0.0455309322	 0.0282415481	-0.316854
C	 0.8606690483	-0.4065207411	-1.2076806127	 0.377278
C	 2.0995725407	-0.8972464849	-1.3562497489	-0.213302
C	 2.2472701902	-1.3664447535	-2.793916845	-0.092183
C	 1.2710868471	-2.5742597277	-2.9354688347	-0.066644
O	-0.0267731457	-1.9869730498	-2.7786137266	-0.280156
C	 0.2062276264	-0.5599293665	-2.5818744147	 0.006961
C	 1.388097844	-0.2983764829	-3.5228502924	-0.221854
H	 0.5545752463	 2.1848542176	-0.1441743854	 0.119172
H	-0.9799287512	 1.6917123434	-0.8710474145	 0.119118
H	-0.8330093405	 1.7942028037	 0.8868193496	 0.114015
H	 0.800474115	-0.1052301227	 0.8981245649	 0.101045
H	-0.7304506731	-0.5925201714	 0.1846405419	 0.114814
H	 2.8302359607	-1.0684128519	-0.5741840547	 0.090392
H	 3.2566910001	-1.5509722453	-3.1602179484	 0.066132
H	 1.3435426957	-3.042144694	-3.9258809402	 0.094898
H	 1.4359348471	-3.3393956759	-2.1682298316	 0.0953
H	-0.737633871	-0.0460151516	-2.759116582	 0.068394
H	 1.8035328218	 0.7067089326	-3.4391750348	 0.100915
H	 1.1614609365	-0.5372070236	-4.566177474	 0.09698
73.3121	122.8587	196.6712	257.0354	285.527	390.1391	442.9075	484.0726	577.9659	624.0479	719.5377	789.9786	812.8995	839.469	857.389	865.2305	900.4164	921.8148	939.7701	962.8562	969.9548	995.1829	1026.5314	1058.0843	1072.0452	1090.4904	1130.8136	1161.7675	1202.5997	1229.5112	1245.4722	1274.7902	1281.6414	1289.9056	1300.7943	1349.432	1355.1683	1364.3248	1408.4457	1476.4991	1487.8051	1498.8348	1505.6632	1522.4816	1683.4606	3010.1249	3011.9153	3035.4846	3056.8089	3056.849	3062.2327	3105.0333	3109.2841	3121.27	3130.3678	3133.1668	3196.2495
CCC1=CC2COC1C2	CCC1=C[C@H]2CO[C@@H]1C2	
InChI=1S/C8H12O/c1-2-7-3-6-4-8(7)9-5-6/h3,6,8H,2,4-5H2,1H3	InChI=1S/C8H12O/c1-2-7-3-6-4-8(7)9-5-6/h3,6,8H,2,4-5H2,1H3/t6-,8-/m1/s1
