20
gdb 40865	3.79913	1.47508	1.35526	1.5569	81.65	-0.2336	0.0846	0.3182	1022.2443	0.172787	-365.935244	-365.928169	-365.927224	-365.9666	29.318	
C	 0.1788631967	 1.4011316608	-0.4816780019	-0.216867
C	 1.4922193242	 1.6164777727	 0.3201549514	-0.302335
C	 1.4010394018	 0.1480828597	 0.7906959375	 0.426077
C	-0.0798272816	 0.1130139767	 0.349648421	-0.29008
C	 2.3327924973	-0.9712406951	 0.2934112405	-0.159603
C	 3.7196078994	-0.5322287774	 0.8356894208	-0.25239
C	 3.1041142616	-0.7171639482	 2.2220735426	-0.040876
C	 2.0560589541	-1.6237260877	 1.7029595932	-0.052499
N	 1.6626677469	-0.2731533144	 2.2036877233	-0.19004
H	-0.5757213535	 2.1878549961	-0.4231310754	 0.100447
H	 0.3693707352	 1.1832616309	-1.5359150663	 0.100951
H	 2.3860720254	 1.9173686203	-0.2333230193	 0.093912
H	 1.3560443142	 2.3005723315	 1.1630629419	 0.112342
H	-0.7378240486	 0.2986194673	 1.2031131116	 0.112206
H	-0.4289523291	-0.7782144145	-0.178947987	 0.093672
H	 2.2267931804	-1.4243756096	-0.6912137853	 0.070715
H	 4.4860885842	-1.2894011995	 0.6500514251	 0.104255
H	 4.0946913988	 0.4543591965	 0.5440592683	 0.097315
H	 3.5873535639	-0.7100269632	 3.1901727381	 0.096549
H	 1.6303296387	-2.555043013	 2.0507097598	 0.096251
99.7969	183.6256	221.3882	330.3233	433.7912	460.4601	544.1416	691.1197	731.6007	780.394	784.4173	803.7829	834.2586	848.2078	885.8986	916.176	921.5505	934.2033	957.9441	971.2599	992.1696	1002.1371	1037.5526	1059.5192	1100.985	1130.4696	1143.727	1157.6818	1165.5931	1190.443	1202.5792	1214.5351	1242.0463	1249.1086	1268.3292	1275.9661	1284.2431	1324.2818	1335.1851	1467.5514	1481.2998	1496.958	1504.1904	3044.4426	3051.6742	3054.7785	3065.1469	3098.2707	3102.6844	3106.2208	3122.6604	3125.1048	3199.1742	3213.7341
C1CC2(C1)C1CC3C1N23	C1CC2(C1)[C@H]1C[C@@H]3[C@H]1N23	
InChI=1S/C8H11N/c1-2-8(3-1)5-4-6-7(5)9(6)8/h5-7H,1-4H2	InChI=1S/C8H11N/c1-2-8(3-1)5-4-6-7(5)9(6)8/h5-7H,1-4H2/t5-,6+,7-,9?/m0/s1
