23
gdb 96350	2.10725	1.61031	1.17837	0.5154	81.01	-0.2383	0.0707	0.309	1171.5296	0.2058	-425.443028	-425.433589	-425.432645	-425.476218	37.394	
C	-0.0445378022	 1.5771054178	-0.0327447588	-0.422987
C	 0.0612327741	 0.0496972573	 0.0096433265	 0.032414
C	 0.6682951921	-0.5300706569	-1.279875553	-0.219455
C	 0.7933865508	-2.0515255078	-1.2028651632	-0.080086
O	 1.5113815915	-2.46062602	-0.048592821	-0.24401
C	 0.8702935233	-2.029367456	 1.1365387215	-0.117217
C	 0.8090156675	-0.4910693076	 1.2524254625	 0.33847
C	 2.2168073813	 0.0844392693	 1.4344946596	-0.4389
O	-0.0168634759	-0.1555358032	 2.3717367303	-0.472857
H	 0.9216482261	 2.0462453381	-0.2471078059	 0.110876
H	-0.7388194514	 1.8891922842	-0.8199715166	 0.107145
H	-0.411767307	 1.9647252867	 0.9205686042	 0.131029
H	-0.9587698002	-0.3489932026	 0.1075341224	 0.078433
H	 0.0438272325	-0.2563741317	-2.1390806619	 0.09487
H	 1.6588370044	-0.0935606858	-1.4585446166	 0.10229
H	-0.2109796881	-2.5099579863	-1.1979766006	 0.085361
H	 1.3410699056	-2.4513429466	-2.0612167622	 0.103672
H	-0.1589847812	-2.420253585	 1.1925536978	 0.089886
H	 1.4413931058	-2.4526831617	 1.9710233912	 0.088619
H	 2.8742981724	-0.2109123349	 0.613293098	 0.132844
H	 2.1978187579	 1.174373015	 1.5045110534	 0.122715
H	 2.6616619895	-0.3065365536	 2.3584435346	 0.101269
H	 0.4832349213	-0.3344631988	 3.1750789179	 0.275619
126.607	187.8812	208.6786	235.6953	270.4119	275.5682	282.3106	327.3234	366.1254	392.242	434.7301	458.6739	501.5655	520.7383	629.002	699.5497	854.4615	867.2583	900.6315	947.9753	970.7921	980.3754	991.6545	1018.9779	1065.1004	1096.16	1120.8021	1134.8779	1183.5985	1186.3208	1224.1495	1235.2124	1263.4532	1311.8009	1336.0186	1360.3828	1374.4411	1384.6107	1393.863	1404.6279	1410.3901	1422.36	1478.5462	1484.9704	1493.105	1500.5671	1501.0346	1505.67	1513.7119	2955.6205	2972.7169	3003.1413	3026.3548	3028.0465	3036.9902	3060.336	3066.4704	3084.5657	3095.4416	3101.4128	3124.5341	3136.7391	3808.3996
CC1CCOCC1(C)O	C[C@H]1CCOC[C@]1(C)O	
InChI=1S/C7H14O2/c1-6-3-4-9-5-7(6,2)8/h6,8H,3-5H2,1-2H3	InChI=1S/C7H14O2/c1-6-3-4-9-5-7(6,2)8/h6,8H,3-5H2,1-2H3/t6-,7-/m0/s1
