23
gdb 103425	2.19425	1.36827	1.29621	1.7031	84.64	-0.2478	0.0863	0.3342	1198.2367	0.203902	-388.26312	-388.253329	-388.252385	-388.297218	37.554	
C	 0.7507282203	-0.9114379592	 1.3228243032	-0.395904
C	-0.0228591689	-0.3756337231	 0.1110189763	-0.226929
C	 0.6930640881	-0.5464905532	-1.2331668015	 0.289431
C	 2.0524928905	 0.1525806126	-1.2843935714	-0.460915
C	 0.7908075427	-2.001662947	-1.7463142652	-0.000309
O	-0.5392595987	-2.5057012377	-1.9144716048	-0.256713
C	 0.0197985962	-1.6923805992	-2.9567396029	 0.019875
C	-0.1632057516	-0.2239057797	-2.547346959	-0.07031
C	-1.5916827868	 0.2939105236	-2.4440304293	-0.414644
H	 1.0151833033	-1.9664090573	 1.1901464431	 0.118584
H	 1.6753739921	-0.355482731	 1.5048992432	 0.114964
H	 0.1417050453	-0.8381998521	 2.2290136675	 0.113487
H	-0.9847822473	-0.8928334709	 0.0533412308	 0.114175
H	-0.2476362495	 0.6884525464	 0.2629827749	 0.088715
H	 2.7350596636	-0.2297712093	-0.5188658879	 0.117199
H	 2.5360648327	 0.0046340687	-2.2561865999	 0.112711
H	 1.9418262389	 1.2313177078	-1.1262912936	 0.116121
H	 1.5788633887	-2.7290088585	-1.5801047153	 0.094346
H	 0.0579762076	-2.1288828756	-3.9489587456	 0.097126
H	 0.4268094788	 0.4296272462	-3.1988236198	 0.070549
H	-2.2268647721	-0.4078160023	-1.8983825162	 0.133974
H	-1.6321367654	 1.2626004276	-1.9352242025	 0.11378
H	-2.0216672386	 0.4289011135	-3.4428940545	 0.110686
76.9273	128.3	176.7179	217.4368	230.7244	236.6556	275.615	287.2599	320.4209	336.8019	460.9054	526.0469	564.6963	658.7259	734.286	786.3873	837.3087	859.2373	864.5829	877.2481	924.6816	985.4567	1004.6997	1018.7859	1032.9118	1054.6548	1058.8459	1083.1293	1131.0979	1161.6204	1189.4039	1222.2523	1242.6292	1271.4673	1272.8465	1336.5846	1368.6397	1372.8433	1384.7535	1404.6158	1409.4688	1416.2628	1479.6542	1490.8359	1495.8493	1496.9697	1504.2583	1507.866	1513.0121	3020.5586	3026.6541	3033.933	3034.9016	3049.3529	3081.2104	3091.7154	3093.0798	3098.4691	3100.4193	3110.4916	3125.3324	3163.7224	3180.5409
CCC1(C)C2OC2C1C	CC[C@@]1(C)[C@H]2O[C@H]2[C@H]1C	
InChI=1S/C8H14O/c1-4-8(3)5(2)6-7(8)9-6/h5-7H,4H2,1-3H3	InChI=1S/C8H14O/c1-4-8(3)5(2)6-7(8)9-6/h5-7H,4H2,1-3H3/t5-,6+,7+,8-/m1/s1
