21
gdb 118732	3.47684	0.8173	0.76942	3.3057	79.23	-0.2398	-0.0178	0.2221	1538.0835	0.179699	-424.233102	-424.223084	-424.22214	-424.268637	36.971	
C	-0.0777864011	 1.7087750569	 0.111963965	-0.450075
C	 0.0007070548	 0.1815624634	 0.0216358	 0.323001
C	-1.3572135993	-0.4727532168	-0.2458837943	-0.240265
C	-2.0241787908	-0.0622023106	-1.5550461268	-0.084005
O	-3.1827207662	-0.8687549386	-1.709288852	-0.417339
C	 1.1719890483	-0.2886659625	-0.9163091664	-0.388795
C	 1.9848513251	-0.6207615785	 0.3422845822	 0.410365
O	 3.1376192601	-0.8716751092	 0.5424207921	-0.291758
C	 0.7652407038	-0.4239599474	 1.2521852083	-0.395412
H	 0.8958481179	 2.13676217	 0.3753140181	 0.118589
H	-0.3834500616	 2.1576845335	-0.8384272721	 0.119767
H	-0.7958637121	 2.0201550264	 0.8787417184	 0.119084
H	-1.238380009	-1.5632909164	-0.2662258688	 0.103479
H	-2.043987586	-0.2513667558	 0.5809268528	 0.10606
H	-2.2880118164	 1.0059978362	-1.5342193109	 0.089116
H	-1.322891181	-0.2081805259	-2.3936012807	 0.087616
H	-3.6373056449	-0.5933042638	-2.5105630234	 0.286542
H	 0.9369054349	-1.1933177357	-1.4885095964	 0.127912
H	 1.6128574697	 0.4465597049	-1.5953168891	 0.123869
H	 0.9112026205	 0.218124328	 2.1253325293	 0.124594
H	 0.3571378835	-1.3830984182	 1.5900065047	 0.127656
41.1268	88.4232	100.4262	163.7975	258.4045	269.1981	315.2115	323.0133	331.7965	375.3013	410.9202	427.0467	511.3119	658.5699	685.3157	743.1062	799.7994	876.4413	882.7122	932.7763	972.4433	999.7375	1012.5178	1051.2965	1077.4489	1081.9752	1136.6172	1160.7228	1184.7599	1204.5289	1222.0529	1255.408	1281.523	1297.168	1332.8179	1350.8598	1416.2506	1424.7376	1445.3175	1463.0607	1487.2318	1498.6299	1503.8746	1529.1091	1892.4873	2961.3413	2996.8184	3022.324	3027.5837	3044.6156	3049.9072	3064.6844	3092.2482	3100.0121	3104.8717	3106.0707	3830.8131
CC1(CCO)CC(=O)C1	CC1(CCO)CC(=O)C1	
InChI=1S/C7H12O2/c1-7(2-3-8)4-6(9)5-7/h8H,2-5H2,1H3	InChI=1S/C7H12O2/c1-7(2-3-8)4-6(9)5-7/h8H,2-5H2,1H3
