21
gdb 96188	2.17772	1.77405	1.1215	2.7935	77.03	-0.2367	0.0668	0.3035	1124.9303	0.184866	-424.219467	-424.21127	-424.210326	-424.252322	32.105	
O	-0.0549911523	 1.4567443014	 0.064692164	-0.441577
C	 0.0417137929	 0.0361735667	 0.0320169183	 0.102815
C	 0.8544754433	-0.5315561555	 1.2004990245	-0.230858
C	 0.774003565	-2.0633730025	 1.2122077778	-0.2119
C	-0.6618378287	-2.5197917136	 1.5062612825	-0.212888
C	-1.7047732753	-1.9051329687	 0.5528227348	 0.102949
O	-2.8475667171	-1.3764848477	 1.2741660472	-0.293973
C	-2.4192178092	-0.0167072339	 1.0329244104	-0.086632
C	-1.3878226279	-0.4903599824	-0.0083400646	-0.030176
H	 0.8381057904	 1.8151196527	 0.0950421837	 0.2804
H	 0.5435169559	-0.2832028329	-0.8983068247	 0.062617
H	 1.8958128541	-0.1964337575	 1.1097524568	 0.082335
H	 0.4707837071	-0.1267621261	 2.1456796545	 0.105432
H	 1.109296927	-2.4554845097	 0.2417902155	 0.095321
H	 1.4549360357	-2.4780983532	 1.9626586912	 0.099229
H	-0.7311452899	-3.6122928178	 1.4850543392	 0.096198
H	-0.9334553563	-2.2083357369	 2.5211493123	 0.113475
H	-2.0273102652	-2.6357651564	-0.1973629364	 0.075005
H	-3.2348336128	 0.6146642645	 0.6676820121	 0.106609
H	-1.9877601584	 0.4460636163	 1.9300835827	 0.100493
H	-1.7891720384	-0.3697894868	-1.017008092	 0.085127
82.9213	106.8189	218.2398	276.4019	280.6348	354.6663	401.9307	417.5447	454.5628	563.6257	592.4599	703.9097	783.5893	868.577	887.2822	892.6095	913.4434	952.9405	994.5133	1008.6882	1030.164	1051.6012	1087.0739	1106.0494	1133.8557	1143.0585	1151.7927	1158.839	1198.5277	1249.3311	1265.237	1277.6617	1289.3088	1330.1778	1345.1054	1354.9688	1362.3983	1376.6665	1385.9154	1409.186	1441.3036	1486.6928	1491.5537	1499.2098	1526.7761	2938.6408	3013.2279	3014.3988	3018.707	3031.2915	3039.9111	3059.7897	3068.8866	3071.3877	3083.3433	3088.1667	3811.1964
OC1CCCC2OCC12	O[C@H]1CCC[C@H]2OC[C@@H]12	
InChI=1S/C7H12O2/c8-6-2-1-3-7-5(6)4-9-7/h5-8H,1-4H2	InChI=1S/C7H12O2/c8-6-2-1-3-7-5(6)4-9-7/h5-8H,1-4H2/t5-,6-,7+/m0/s1
