15
gdb 25222	3.30007	1.68644	1.12574	6.8217	75.09	-0.2171	0.0078	0.2249	1007.9809	0.117323	-413.027003	-413.020225	-413.019281	-413.058036	26.661	
N	-0.0664728641	 1.3221974511	 0.0935479967	-0.541169
C	-0.0559446597	 0.0520111514	 0.0012393321	 0.268355
N	 1.0582768932	-0.811954214	-0.1484622894	-0.36295
C	 0.7284407561	-2.2423718174	-0.0207373752	-0.290271
C	-0.7591278238	-2.1501414509	 0.0033006234	 0.306741
C	-1.203981489	-0.8615906638	 0.01033398	 0.257626
N	-2.5762274539	-0.8000586624	 0.0097589589	-0.329364
C	-2.9465450221	-2.0589835442	-0.0002151476	-0.009389
N	-1.8753723234	-2.9354061794	-0.010273908	-0.386743
H	 0.8813168434	 1.7025923714	 0.057547577	 0.198338
H	 1.9366608216	-0.4996904354	 0.2352879724	 0.236742
H	 1.1209071635	-2.8194455863	-0.8696984022	 0.125257
H	 1.1469278371	-2.6824763995	 0.896984853	 0.12125
H	-3.9649796404	-2.4186919565	 0.0020918333	 0.135417
H	-1.9303922285	-3.9401970442	-0.0146047246	 0.270159
170.0396	201.0246	247.4454	307.1015	404.3098	502.4533	533.7945	622.2831	636.0724	655.0822	662.3949	775.4356	781.1242	810.2922	846.2311	961.4374	1003.9008	1036.0994	1068.7294	1084.49	1118.3531	1179.7271	1223.2624	1280.8042	1311.6739	1375.2046	1405.313	1435.5763	1472.0792	1507.2273	1533.2864	1603.879	1749.4992	2986.1647	3012.8151	3251.9383	3450.724	3627.6752	3663.8239
N=C1NCC2=C1N=CN2	[NH][C]1NCc2c1nc[nH]2	
InChI=1S/C5H6N4/c6-5-4-3(1-7-5)8-2-9-4/h2H,1H2,(H2,6,7)(H,8,9)	InChI=1S/C5H6N4/c6-5-4-3(1-7-5)8-2-9-4/h2H,1H2,(H2,6,7)(H,8,9)
