21
gdb 94030	4.28037	0.83889	0.76656	0.5235	91.32	-0.2339	0.0217	0.2555	1554.6991	0.181645	-349.944116	-349.934613	-349.933668	-349.97888	35.701	
C	 0.0938439631	 1.6698555969	-0.2154788132	-0.395593
C	 0.0353059293	 0.1551419258	 0.0113380372	 0.00526
C	 0.687223132	-0.6785225141	-1.1265051793	-0.220745
C	 1.3522124242	-1.8916790651	-0.4337130691	-0.301496
C	 1.5043518896	-1.4267322207	 0.999615054	 0.334876
C	 2.3474388916	-2.1772894874	 2.000902802	-0.459024
C	 1.9290272173	-3.5684385296	 2.1747903496	 0.317415
C	 1.5738702348	-4.7094456461	 2.3031555002	-0.468126
C	 0.7868574125	-0.3278201878	 1.2324689993	-0.178136
H	 1.1312019009	 2.0106154827	-0.3076615561	 0.112985
H	-0.4360734608	 1.9511157047	-1.1319364839	 0.11225
H	-0.3662175852	 2.2161795061	 0.6150364016	 0.110408
H	-1.0245841053	-0.1259531696	 0.1166415621	 0.077404
H	-0.0275027916	-0.966628937	-1.9020357502	 0.094894
H	 1.4587690375	-0.0682123363	-1.6099451507	 0.098343
H	 0.722384805	-2.7904854906	-0.4736070244	 0.115941
H	 2.3084848364	-2.1712209674	-0.8925088985	 0.097795
H	 3.3985844476	-2.1677841755	 1.6754962867	 0.134371
H	 2.3202965932	-1.661586239	 2.9680834792	 0.133169
H	 1.2642606791	-5.717709502	 2.4241616746	 0.195485
H	 0.7051074588	 0.1651410219	 2.1968490388	 0.082523
44.9735	92.9558	115.991	183.2622	233.7125	267.3362	341.9646	350.7661	379.308	472.2716	501.419	600.823	617.2105	635.9563	682.6086	812.5821	846.1583	864.5262	880.9727	928.3294	946.0128	968.2698	974.505	999.2583	1048.8156	1105.0905	1124.8739	1173.43	1194.5399	1212.7958	1243.9751	1286.9219	1308.153	1320.2922	1323.6453	1345.9005	1377.0596	1409.602	1458.9283	1484.0772	1496.9986	1498.3984	1502.0722	1720.0012	2237.1564	2972.2499	2996.1585	3018.5848	3025.0847	3035.6043	3051.7728	3053.8248	3091.9822	3095.5005	3097.181	3173.7621	3507.1842
CC1CCC(CC#C)=C1	C[C@H]1CCC(=C1)CC#C	
InChI=1S/C9H12/c1-3-4-9-6-5-8(2)7-9/h1,7-8H,4-6H2,2H3	InChI=1S/C9H12/c1-3-4-9-6-5-8(2)7-9/h1,7-8H,4-6H2,2H3/t8-/m0/s1
