17
gdb 30946	2.34772	1.41141	0.93341	4.0292	73.36	-0.2109	0.0249	0.2358	1252.7184	0.135746	-455.171542	-455.162631	-455.161687	-455.205428	32.671	
C	-0.4021846222	 1.5402264092	-0.1635027728	-0.377243
C	 0.0299837703	 0.0741242727	 0.01124884	-0.298956
C	 0.8278174454	-0.4398260452	-1.1285848563	 0.345579
C	 2.0706934173	-0.9077145997	-1.2359202827	 0.124089
N	 3.0706526705	-1.0885039014	-0.2932756116	-0.596362
O	 2.2960932831	-1.2500915271	-2.5879657719	-0.240695
C	 1.1441659674	-0.9627888263	-3.2655489157	 0.486014
N	 0.8942013511	-1.1051115941	-4.4898883782	-0.581718
O	 0.2308011139	-0.4653009852	-2.3809116564	-0.239376
H	 0.4687304539	 2.1986636262	-0.2336582344	 0.122606
H	-0.9957587769	 1.665421984	-1.0728298645	 0.142012
H	-1.0076670538	 1.8626829339	 0.6881168156	 0.118878
H	 0.6379262172	-0.0463707892	 0.9124358042	 0.132304
H	-0.8612716562	-0.5547579815	 0.134787315	 0.12404
H	 3.9021700195	-0.5432717654	-0.5000756107	 0.253771
H	 3.3469430811	-2.0615993127	-0.2019009919	 0.25393
H	 1.7017487883	-1.4893055881	-4.9733573375	 0.231127
69.9827	119.6926	177.1498	190.5926	205.5917	279.2698	293.5932	339.1066	419.5215	558.384	611.3148	652.5693	668.6312	737.6834	775.4398	780.6501	798.147	823.0424	951.7024	952.4053	998.8652	1044.4812	1083.3028	1105.9561	1221.2792	1237.4711	1272.8313	1315.6171	1340.7937	1383.2879	1410.2343	1472.6179	1496.0979	1508.0049	1657.9147	1781.8728	1843.3218	3027.2859	3045.6534	3094.3023	3117.5922	3128.0108	3492.8859	3544.3683	3557.016
CCC1=C(N)OC(=N)O1	CCC1=C(N)O[C@@H]([NH])O1	
InChI=1S/C5H8N2O2/c1-2-3-4(6)9-5(7)8-3/h7H,2,6H2,1H3	InChI=1S/C5H9N2O2/c1-2-3-4(6)9-5(7)8-3/h5,7H,2,6H2,1H3/t5-/m0/s1
