19
gdb 37208	3.17018	1.93496	1.60779	0.4781	83.46	-0.2269	-0.0093	0.2176	899.3255	0.162758	-348.68146	-348.675266	-348.674321	-348.711517	27.374	
C	-0.2253922561	 1.399934409	-0.2083291179	-0.294779
C	 1.1663747803	 0.8323402846	-0.0712641033	-0.00735
C	-0.0472561153	-0.0939372888	 0.0174174449	-0.114199
C	 0.1747210668	-0.8528758808	-1.2733211387	 0.099145
C	-0.3861935555	-0.4434157938	-2.4223507153	-0.107835
C	 0.6561071337	-0.1327339633	-3.4759493495	-0.264451
C	 1.9377574748	-0.1978858558	-2.643863089	-0.055252
C	 2.125041388	 0.2950683025	-1.1600924829	-0.065234
C	 1.6738920598	-1.0973452666	-1.4789414422	-0.120886
H	-0.5744223332	 1.9933852821	 0.6329615192	 0.103141
H	-0.5866300247	 1.7476810517	-1.1676254075	 0.112057
H	 1.6924661518	 1.0941630222	 0.842634681	 0.085392
H	-0.3364680996	-0.5519723256	 0.9566970776	 0.085301
H	-1.3858297322	-0.0249483888	-2.4841346872	 0.096385
H	 0.7193958539	-0.839999804	-4.3160875667	 0.106387
H	 0.446610576	 0.8521599518	-3.9142397404	 0.106842
H	 2.883664171	-0.2623562867	-3.1770901835	 0.076724
H	 3.173166128	 0.4926823172	-0.9500737089	 0.079832
H	 2.1788359325	-2.0256072569	-1.2334281697	 0.078781
213.985	257.4168	378.2559	460.0553	523.3294	593.3365	641.1428	670.828	744.0366	762.4405	782.9204	787.9721	833.1962	860.0069	871.4033	910.7637	925.9136	954.357	981.8945	1008.0288	1019.2609	1046.2131	1061.9967	1080.1488	1086.8333	1098.9681	1102.2464	1113.2479	1144.141	1193.4459	1209.518	1248.7805	1292.0484	1298.653	1314.548	1335.7982	1353.6973	1392.6921	1475.5035	1483.7253	1640.9812	2997.4161	3034.2645	3123.0763	3127.6417	3136.7035	3146.8509	3160.0822	3166.1976	3177.236	3219.1107
C1C2C1C1=CCC3C2C13	C1[C@H]2[C@@H]1[C]1[CH]C[C@H]3[C@@H]2[C@@H]13	
InChI=1S/C9H10/c1-2-5-8-4(1)6-3-7(6)9(5)8/h1,5-9H,2-3H2	InChI=1S/C9H10/c1-2-5-8-4(1)6-3-7(6)9(5)8/h1,5-9H,2-3H2/t5-,6+,7+,8+,9+/m1/s1
