20
gdb 111095	3.59234	1.10002	1.05012	2.1295	81.73	-0.2082	0.0139	0.222	1263.2446	0.17108	-403.089965	-403.081337	-403.080393	-403.123304	32.694	
C	-0.1831159575	 1.339469327	 0.1664315999	-0.244631
O	 0.3576069427	 0.0608892387	-0.0869693675	-0.246098
C	 0.8180903373	-0.5804474303	 1.0537038173	 0.218282
C	-0.2116175568	-1.4427381657	 1.91047899	-0.107113
N	-0.1268707363	-2.4335315246	 0.7845566897	-0.288584
C	 1.3220805205	-2.0420786596	 0.7944154761	-0.154506
C	 1.8040948172	-2.3904676737	 2.2183901792	 0.330428
C	 3.1339271697	-2.9534931461	 2.5824509355	-0.514818
C	 0.7611057952	-1.9867194807	 2.9607653014	-0.211227
H	 0.5457224957	 1.9969327454	 0.6663208604	 0.103351
H	-0.4489875658	 1.7750615195	-0.7992197067	 0.129833
H	-1.0863156362	 1.2871050469	 0.7917487735	 0.10961
H	 1.4805802769	 0.0696523583	 1.6409277848	 0.061616
H	-1.1965379827	-1.0849367505	 2.2106751987	 0.06532
H	-0.2530059334	-3.3878859258	 1.1272418602	 0.196555
H	 1.9379353922	-2.302267866	-0.067323839	 0.067855
H	 3.9488094235	-2.2993514576	 2.2466880119	 0.131077
H	 3.2312193608	-3.0838139379	 3.6640438534	 0.12681
H	 3.3031080042	-3.9273628403	 2.1052923555	 0.128159
H	 0.6479183728	-1.9613422571	 4.0361431557	 0.09808
78.1831	153.742	162.9327	173.9877	209.6911	284.5454	347.9682	421.4235	487.905	547.6453	589.7463	639.6983	788.3352	806.5161	840.9892	892.4	918.9433	937.6738	950.6231	1008.203	1018.1479	1045.2281	1065.1748	1105.2448	1123.1639	1165.6833	1178.4007	1183.2907	1216.3567	1226.3431	1236.2882	1251.3079	1283.4111	1291.7844	1335.848	1393.9095	1414.7049	1478.3281	1482.8483	1486.0588	1489.8135	1508.0812	1672.1747	2975.8379	3015.0978	3017.5733	3027.1668	3059.8214	3106.0586	3114.4289	3117.9209	3120.1227	3221.966	3426.739
COC1C2NC1C(C)=C2	CO[C@H]1[C@H]2N[C@@H]1C(=C2)C	
InChI=1S/C7H11NO/c1-4-3-5-7(9-2)6(4)8-5/h3,5-8H,1-2H3	InChI=1S/C7H11NO/c1-4-3-5-7(9-2)6(4)8-5/h3,5-8H,1-2H3/t5-,6+,7-/m0/s1
