17
gdb 33885	3.3802	1.56687	1.35022	4.8408	76.48	-0.2596	0.0156	0.2753	969.7943	0.138817	-380.826345	-380.819679	-380.818735	-380.857253	27.47	
N	 0.1104254131	-1.0431310892	 0.1517416467	-0.342455
C	 0.045984494	 0.1085444532	 0.0664576739	 0.261093
C	-0.0917630247	 1.5382232757	-0.043641538	 0.146458
C	 0.3772691874	 2.2552291915	-1.2686757389	-0.286777
N	 1.1467390425	 2.3899918593	-0.0293364936	-0.130228
C	 0.6771639947	 3.4451538187	 0.9344805731	 0.01295
C	-0.8117405532	 3.7568850603	 0.6231349093	-0.258096
C	-0.9759379369	 2.2612853896	 0.9958224154	-0.095523
C	 0.1314616438	 2.5376309595	 2.0779365432	-0.213984
H	 0.8897837166	 1.6647243733	-2.0225337957	 0.142725
H	-0.2005408187	 3.08070022	-1.6667460774	 0.130059
H	 1.4307950041	 4.2155532677	 1.0871423366	 0.089254
H	-1.2445110963	 4.3995248776	 1.3907895575	 0.115166
H	-1.1193405048	 4.1203261266	-0.3571002552	 0.104514
H	-1.9375318801	 1.8081879295	 1.2283709847	 0.090362
H	 0.7624386439	 1.7018905761	 2.3858252557	 0.126276
H	-0.2394308353	 3.0929088807	 2.9408157627	 0.108207
137.1717	162.2875	349.8117	416.008	483.5752	533.9936	546.4096	573.4858	608.8008	696.0346	769.5914	803.57	841.0386	847.5819	886.0907	913.8884	931.7163	991.8098	999.8193	1037.6733	1053.6463	1088.0255	1100.1715	1115.809	1126.9909	1152.2972	1196.0956	1218.9164	1242.6192	1251.3109	1277.3804	1292.1668	1332.2088	1475.5691	1500.3658	1540.8464	2352.1932	3078.3862	3089.345	3130.7311	3137.9237	3140.3392	3142.39	3147.8531	3219.6748
N#CC12CN1C1CC2C1	N#C[C@]12CN1[C@H]1C[C@@H]2C1	
InChI=1S/C7H8N2/c8-3-7-4-9(7)6-1-5(7)2-6/h5-6H,1-2,4H2	InChI=1S/C7H8N2/c8-3-7-4-9(7)6-1-5(7)2-6/h5-6H,1-2,4H2/t5-,6+,7-,9?/m1/s1
