23
gdb 120273	2.85321	1.02587	0.87771	0.7751	86.14	-0.2483	0.085	0.3333	1449.7892	0.205163	-388.249606	-388.239935	-388.23899	-388.284429	36.07	
C	-0.4473240281	 1.2420888886	 1.5931921347	-0.223412
O	-0.5727441634	-0.1415005113	 1.3791699183	-0.233001
C	-0.769082324	-0.474027361	 0.0193403607	-0.07339
C	-0.9129706886	-1.9823398096	-0.074659628	-0.022368
C	-2.195644877	-2.6312447993	 0.4634495764	-0.042121
C	-3.3906842639	-2.2499335418	-0.3635324751	-0.284659
C	-2.4521949839	-3.2990504286	-0.8896235243	-0.055096
C	-1.1762394068	-2.6691278624	-1.4732765003	-0.011532
C	-1.2871523103	-1.8348367964	-2.746843152	-0.407739
H	-0.2998377291	 1.3976329959	 2.6650249884	 0.124142
H	 0.4146570458	 1.6651322309	 1.0518499758	 0.099795
H	-1.3493214363	 1.7903616937	 1.2762650345	 0.101084
H	-1.6612860643	 0.042501354	-0.3713078546	 0.080447
H	 0.0892026794	-0.1323025907	-0.5863741735	 0.079743
H	-0.0306325257	-2.4246122443	 0.3966826562	 0.079202
H	-2.304487193	-3.0485850658	 1.4566566951	 0.084667
H	-4.3392349459	-2.6280879134	 0.0046304795	 0.109197
H	-3.4681394497	-1.2723843422	-0.8324187279	 0.102224
H	-2.7907807906	-4.3079343786	-1.0954273012	 0.079335
H	-0.4170404406	-3.4420501829	-1.6277562578	 0.073848
H	-2.0490992404	-1.0534590299	-2.6678098275	 0.113771
H	-0.3356130889	-1.3496423766	-2.9908422671	 0.112445
H	-1.5591450244	-2.4718222482	-3.5958591503	 0.113419
67.1207	97.3327	122.8506	167.1203	213.6713	233.5442	253.9129	289.2614	366.1196	421.9577	523.5066	557.962	662.9776	772.1436	781.8762	833.9847	896.6348	926.2541	937.1549	983.609	994.9028	1020.8642	1035.4773	1066.1668	1075.9694	1081.4901	1103.5701	1138.6671	1149.6115	1168.3198	1182.7925	1191.6483	1219.9156	1239.3516	1256.8409	1278.2019	1309.1599	1356.5078	1368.6164	1374.6938	1411.2182	1426.8088	1480.1981	1485.4981	1487.6803	1498.1478	1499.4556	1504.8344	1526.5628	2943.352	2965.1171	2978.9841	3005.5596	3029.9561	3046.2379	3069.0796	3090.5038	3105.2598	3109.1784	3113.9793	3171.3502	3185.9734	3199.2528
COCC1C2CC2C1C	COC[C@H]1[C@H]2C[C@H]2[C@H]1C	
InChI=1S/C8H14O/c1-5-6-3-7(6)8(5)4-9-2/h5-8H,3-4H2,1-2H3	InChI=1S/C8H14O/c1-5-6-3-7(6)8(5)4-9-2/h5-8H,3-4H2,1-2H3/t5-,6+,7+,8-/m1/s1
