21
gdb 96393	2.01622	1.62552	1.16976	1.0367	83.32	-0.2411	0.0484	0.2895	1161.2302	0.182974	-387.070957	-387.062031	-387.061087	-387.104066	34.854	
C	-0.0472619756	 1.5505675161	-0.0580294065	-0.415345
C	 0.0430744975	 0.0252064069	-0.0042372384	 0.011634
C	 0.6732379353	-0.5560712903	-1.2758359459	-0.0777
O	 0.6942886019	-1.9738610827	-1.2655726681	-0.250554
C	 1.4535729073	-2.4913405096	-0.1856794935	-0.072151
C	 0.887749139	-2.0478644286	 1.1640853188	-0.223116
C	 0.8094976826	-0.5018052181	 1.2432142441	-0.176645
C	 2.142736139	 0.0871970934	 1.3748887184	 0.357953
C	 3.2449018234	 0.5559280271	 1.4886888783	-0.502678
H	 0.9463577802	 2.0030465221	-0.1303560569	 0.132106
H	-0.6352547074	 1.8761801582	-0.9224827321	 0.112921
H	-0.528486567	 1.9483457998	 0.8416854054	 0.114134
H	-0.9709168592	-0.3894919064	 0.0679014399	 0.080668
H	 0.0912614075	-0.2666962901	-2.1563532304	 0.10306
H	 1.6946436784	-0.157205193	-1.3974072119	 0.096209
H	 1.4203030454	-3.5803228137	-0.2829537901	 0.104819
H	 2.5055023402	-2.173389006	-0.2719189561	 0.099718
H	-0.1239034962	-2.4533049088	 1.2786179294	 0.10334
H	 1.5031266526	-2.4417776316	 1.9791055999	 0.105021
H	 0.2352468905	-0.2251578876	 2.1372326811	 0.099537
H	 4.2148517947	 0.9747442828	 1.5961292347	 0.19707
106.13	145.8429	175.6651	221.3574	266.3152	292.8063	345.5599	370.7939	428.7293	441.2047	548.1331	600.633	624.9041	634.5101	636.2832	792.8259	847.5618	870.0042	907.4643	942.9566	980.6393	1007.2948	1041.0243	1073.2732	1111.9527	1123.1986	1145.1273	1169.0304	1231.5438	1245.7486	1287.7144	1317.0298	1330.1413	1342.9697	1360.7613	1387.7932	1397.6357	1410.7964	1429.1392	1475.387	1490.4638	1496.137	1501.3288	1505.989	2226.0857	2968.6258	2979.3079	3012.0979	3024.1747	3033.9455	3042.0918	3078.4914	3085.5038	3091.2352	3098.5779	3111.7875	3502.6733
CC1COCCC1C#C	C[C@H]1COCC[C@H]1C#C	
InChI=1S/C8H12O/c1-3-8-4-5-9-6-7(8)2/h1,7-8H,4-6H2,2H3	InChI=1S/C8H12O/c1-3-8-4-5-9-6-7(8)2/h1,7-8H,4-6H2,2H3/t7-,8+/m0/s1
