18
gdb 81830	2.23963	1.67792	1.19617	4.6111	76.55	-0.218	0.0157	0.2337	1083.5789	0.147398	-398.083179	-398.074256	-398.073311	-398.116463	33.464	
C	-0.2674154246	 1.4915005816	-0.0491802813	-0.332477
N	 0.0634215661	 0.074451894	-0.0726233722	-0.086619
C	 0.7085869454	-0.4854293634	-1.2552308564	-0.060032
C	 2.1522649545	-0.0565280417	-1.4139964039	-0.343443
C	 1.8159635197	-1.1220228115	-0.4101520629	 0.315131
N	 2.4341709205	-2.3930143349	-0.3312955193	-0.611877
C	 1.1462445641	-0.4598576238	 0.8153837538	-0.149218
C	 1.9566335252	 0.5109332102	 1.5495767874	 0.280001
N	 2.5896126601	 1.3001422821	 2.1103495058	-0.342136
H	 0.5793973251	 2.1624996091	-0.2618889676	 0.116085
H	-1.0464360477	 1.6731766396	-0.7958723338	 0.125097
H	-0.6715212992	 1.7561086529	 0.9322027775	 0.133967
H	 0.1159012034	-0.8863986637	-2.0703799662	 0.099801
H	 2.6341926618	-0.4319291094	-2.312860884	 0.114992
H	 2.4989776498	 0.9242675406	-1.0999105996	 0.13426
H	 1.7710288221	-3.1595392931	-0.3497089128	 0.239858
H	 3.1230730253	-2.5359046204	-1.0572967226	 0.241795
H	 0.7428092881	-1.1912498082	 1.5245811082	 0.124814
110.5254	133.2421	173.9145	183.3023	202.6019	261.257	355.0275	378.2328	397.1636	489.9459	550.516	569.9665	630.7893	705.639	761.0566	834.8331	842.71	918.5431	959.7951	976.1445	1013.1269	1022.5273	1071.1843	1088.4973	1151.7847	1162.1923	1179.0804	1194.0062	1244.4882	1283.705	1326.613	1328.8028	1417.5536	1452.2165	1487.1855	1498.4842	1500.8091	1654.9342	2343.6258	2983.6891	3044.8677	3074.221	3113.4604	3114.0816	3170.4181	3198.5172	3523.8478	3621.0743
CN1C2CC2(N)C1C#N	CN1[C@H]2C[C@@]2(N)[C@H]1C#N	
InChI=1S/C6H9N3/c1-9-4-2-6(4,8)5(9)3-7/h4-5H,2,8H2,1H3	InChI=1S/C6H9N3/c1-9-4-2-6(4,8)5(9)3-7/h4-5H,2,8H2,1H3/t4-,5+,6-/m0/s1
