18
gdb 95109	2.41881	1.60226	1.19072	4.679	76.22	-0.2544	0.0148	0.2692	1077.1914	0.150042	-398.117638	-398.109516	-398.108572	-398.150193	31.261	
N	-0.0762905649	 1.5294113845	 0.1771348894	-0.518942
C	-0.0517246798	 0.075307928	 0.017592202	-0.052671
C	 0.6610952535	-0.6247246666	 1.1934624226	-0.258209
C	-0.09695242	-1.9572680976	 1.3627648688	-0.161725
N	-1.4808907781	-1.7661414519	 0.8753781976	-0.129795
C	-2.1368825541	-0.5675217106	 1.3950407179	-0.275986
C	-1.462918068	-0.5264311134	 0.0628497931	 0.213683
C	-2.2323841901	-0.4929255264	-1.155616407	 0.220736
N	-2.8255064452	-0.4121919194	-2.1452369163	-0.343579
H	 0.8732673873	 1.8898587566	 0.1384570354	 0.233543
H	-0.5655869041	 1.9528338905	-0.607542968	 0.241744
H	 0.4039713395	-0.2515931898	-0.9311714442	 0.080417
H	 1.7253783136	-0.7784751845	 0.9992007267	 0.111111
H	 0.578661221	 0.0085009556	 2.0811625567	 0.123195
H	 0.3492908058	-2.745410448	 0.7482104697	 0.122003
H	-0.1183673629	-2.3138178261	 2.3966195928	 0.119935
H	-3.2192333132	-0.6296221628	 1.4365930027	 0.139148
H	-1.6732853801	 0.003446882	 2.1941660502	 0.135391
101.2007	147.2852	179.7905	237.3602	263.9928	356.7176	404.7884	490.5778	502.025	564.5164	601.8462	652.3255	670.9501	813.1636	844.2693	877.0054	901.708	935.7686	953.1708	985.4722	1027.2365	1076.1532	1109.4524	1116.5624	1164.6793	1197.8855	1209.3192	1246.0449	1255.9183	1304.4826	1332.5919	1353.4792	1383.2554	1407.5754	1490.173	1499.2972	1520.47	1660.6531	2353.2691	2962.3183	3053.502	3064.5659	3095.6092	3113.3425	3124.469	3215.2987	3482.0718	3557.1082
NC1CCN2CC12C#N	N[C@H]1CCN2C[C@@]12C#N	
InChI=1S/C6H9N3/c7-3-6-4-9(6)2-1-5(6)8/h5H,1-2,4,8H2	InChI=1S/C6H9N3/c7-3-6-4-9(6)2-1-5(6)8/h5H,1-2,4,8H2/t5-,6-,9?/m0/s1
