21
gdb 64187	2.18455	1.46141	1.31091	3.0579	78.51	-0.2488	-0.0288	0.22	1132.5245	0.17878	-424.228739	-424.218586	-424.217642	-424.263902	37.339	
C	-0.2802489919	 1.5175199735	 0.0789392228	-0.427948
C	 0.0081852533	 0.0220298797	 0.0055598447	 0.378017
C	-1.2145746489	-0.7496467982	-0.4820439654	-0.440077
O	 1.141859085	-0.2338449459	-0.8626624188	-0.321265
C	 1.9499393123	-0.7484805606	 0.2135047545	-0.115624
C	 0.8073808961	-0.6033935997	 1.2322371074	 0.113024
C	 1.057045803	 0.2731753417	 2.4603125754	-0.48147
C	 0.2256276794	-1.9195823904	 1.7047699851	 0.113667
O	 0.6482365953	-3.0128016638	 1.4272595864	-0.250553
H	 0.61662603	 2.0893241565	 0.3256171217	 0.122019
H	-0.6340777046	 1.860729288	-0.8984301031	 0.128049
H	-1.0559923948	 1.7415263814	 0.8187196293	 0.115077
H	-1.4972084705	-0.3834159047	-1.4740572057	 0.1274
H	-1.0039468039	-1.8182029888	-0.5672911196	 0.140439
H	-2.0704889037	-0.6093468208	 0.1871658239	 0.113669
H	 2.2724176914	-1.7788001842	 0.0350182293	 0.12632
H	 2.8241716832	-0.1152422929	 0.4102379873	 0.094186
H	 1.4602248333	 1.248909165	 2.1829222165	 0.132335
H	 0.1361888559	 0.4369535887	 3.0312614727	 0.124267
H	 1.7804243043	-0.205850271	 3.129604339	 0.132131
H	-0.6607813142	-1.8060695033	 2.3722292167	 0.076336
40.1287	74.5014	188.9371	197.7478	230.6102	248.5271	281.3117	296.8195	315.023	340.7692	368.446	429.7727	466.2026	579.3016	621.5698	729.6991	848.9655	876.6923	925.4391	931.7914	958.168	986.1268	994.4294	1017.0975	1032.334	1146.4206	1158.3887	1174.0057	1189.9105	1239.234	1252.401	1285.7355	1350.9211	1396.9937	1404.8011	1413.3618	1429.8181	1470.277	1481.6237	1487.5178	1497.2469	1500.2918	1514.2087	1525.0081	1823.5308	2855.0124	3018.0869	3032.1666	3035.3484	3041.809	3084.5781	3092.4995	3101.989	3109.6049	3122.4457	3126.89	3132.9022
CC1(C)OCC1(C)C=O	CC1(C)OC[C@]1(C)C=O	
InChI=1S/C7H12O2/c1-6(2)7(3,4-8)5-9-6/h4H,5H2,1-3H3	InChI=1S/C7H12O2/c1-6(2)7(3,4-8)5-9-6/h4H,5H2,1-3H3/t7-/m0/s1
