15
gdb 7575	3.36956	1.80318	1.4454	4.5571	56.55	-0.2581	0.0042	0.2623	868.7804	0.119352	-436.939323	-436.931703	-436.930759	-436.971881	27.537	
N	 0.0051885796	 1.0619013254	-0.0440839213	-0.594432
H	-0.6519016766	 0.8443238068	-0.789128314	 0.249004
H	 0.586522122	 0.2407820449	 0.0876484863	 0.251226
H	 0.1702767125	 2.9767714765	-0.2063628432	 0.307868
C	-0.7035195641	 1.4126031312	 1.1857447739	 0.085239
C	-1.7960127071	 0.4539276663	 1.7251965319	-0.101635
O	-0.9459395458	 0.0114920821	 2.8037631197	-0.265625
C	 0.0486998896	 0.9926357178	 2.4792229321	-0.092624
C	-1.0901352879	 2.8984788479	 1.1573678061	 0.405462
O	-0.4065100388	 3.6188063589	 0.2585824419	-0.371007
O	-1.9043904394	 3.3763342506	 1.9011344183	-0.340104
H	-2.6907072541	 0.9671934436	 2.0895299401	 0.135271
H	-2.0701542922	-0.3661229742	 1.0503376423	 0.096047
H	 1.0417624539	 0.5545042063	 2.3133177888	 0.104758
H	 0.1186722283	 1.780341836	 3.2373640772	 0.130551
66.3184	73.5542	227.7931	281.7996	305.0176	380.3055	386.2846	457.1459	552.7101	727.5498	747.7136	837.9258	845.6719	871.4557	923.8621	972.1483	980.0079	1007.4565	1049.542	1137.0884	1161.0291	1167.3989	1209.8447	1260.3565	1311.1744	1320.5211	1376.8758	1418.4762	1496.0496	1523.0527	1655.1485	1866.6438	3010.0622	3025.9012	3071.4151	3095.2652	3490.5736	3524.0991	3574.4243
[NH3+]C1(COC1)C([O-])=O	NC1(COC1)C(=O)O	
InChI=1S/C4H7NO3/c5-4(3(6)7)1-8-2-4/h1-2,5H2,(H,6,7)	InChI=1S/C4H7NO3/c5-4(3(6)7)1-8-2-4/h1-2,5H2,(H,6,7)
