18
gdb 85876	2.07627	1.58481	1.19243	3.4094	72.39	-0.2751	0.019	0.294	1100.0134	0.145669	-439.091117	-439.081744	-439.0808	-439.124799	35.119	
C	 0.5108772224	 1.3810029097	-0.245741287	-0.465965
C	-0.0112466455	-0.0331886639	-0.0412348617	 0.395909
O	-1.4134778812	-0.0656469109	 0.1010732951	-0.472412
C	 0.6073847449	-1.089255609	-1.0147373422	-0.288365
C	 1.5941320993	-1.525164481	 0.0882809036	 0.095566
O	 2.82645896	-0.8718752451	-0.0980989603	-0.418643
C	 0.6576532014	-0.8219757417	 1.1379703013	-0.209887
C	 1.3055446788	-0.11314792	 2.2214964741	 0.270464
N	 1.8841888012	 0.4426735883	 3.0552638031	-0.343685
H	 1.600129368	 1.3869643819	-0.3173100101	 0.153464
H	 0.1087736302	 1.792593086	-1.1800555344	 0.109985
H	 0.2060299792	 2.0270606636	 0.5828946593	 0.138142
H	-1.7966328527	 0.5916815816	-0.4891178938	 0.28276
H	-0.1220135174	-1.8686542986	-1.2438545034	 0.115163
H	 1.0712660003	-0.7229531532	-1.9322007806	 0.116716
H	 1.7263633155	-2.6018969706	 0.2443588293	 0.0869
H	 3.3229008223	-0.9050068417	 0.72843957	 0.298982
H	-0.0763126068	-1.5299477654	 1.5313910476	 0.134908
100.2342	123.2635	160.1476	202.553	250.6209	277.3103	338.5352	362.7155	368.9486	390.9829	403.9631	449.7944	566.9759	577.4271	708.5158	803.8009	859.1956	864.0709	904.7549	950.6652	972.2625	1030.5828	1050.5507	1116.7934	1120.5729	1167.3259	1189.34	1212.0296	1248.0345	1278.457	1329.7684	1338.4554	1374.1212	1408.7017	1416.8091	1467.2986	1489.6915	1501.6459	2346.0694	3027.6683	3033.2728	3077.2107	3089.9832	3100.8147	3140.8647	3143.4609	3791.4162	3813.4286
CC1(O)CC(O)C1C#N	C[C@@]1(O)C[C@@H](O)[C@H]1C#N	
InChI=1S/C6H9NO2/c1-6(9)2-5(8)4(6)3-7/h4-5,8-9H,2H2,1H3	InChI=1S/C6H9NO2/c1-6(9)2-5(8)4(6)3-7/h4-5,8-9H,2H2,1H3/t4-,5-,6-/m1/s1
