13
gdb 15314	3.07656	1.65633	1.17731	6.0659	59.91	-0.2922	-0.0161	0.2762	962.6699	0.094326	-398.611403	-398.603763	-398.602819	-398.644291	26.216	
O	 0.2487898175	 0.0931430843	-0.2090526519	-0.250795
C	 0.3891505404	 1.2616015407	-0.3800626137	 0.184019
O	 0.9676617605	 2.0622482008	 0.5598626764	-0.186197
C	 0.9850131941	 3.4365433856	 0.294624502	 0.113171
C	 2.1210154319	 4.1916667363	 0.8830994122	-0.308425
C	 2.0564452597	 4.0117535115	-0.6307735688	-0.210244
C	 2.9778754639	 3.1296399368	-1.2855585065	 0.294313
N	 3.7077968116	 2.4168767674	-1.830510077	-0.321791
H	 0.077741174	 1.8184332026	-1.2822382027	 0.094258
H	 0.0034495335	 3.8999871111	 0.2516028015	 0.131195
H	 1.9451143656	 5.1857950686	 1.2749635558	 0.145069
H	 2.8635354148	 3.603314793	 1.4081885838	 0.168344
H	 1.7667994124	 4.8746253211	-1.2212296211	 0.147083
54.5267	121.366	161.8559	175.8412	243.1226	375.4149	432.4511	554.8406	583.4559	687.5998	776.409	800.6479	874.5119	999.1253	1021.9807	1041.1432	1077.2479	1119.2512	1122.9454	1142.8083	1174.4044	1239.5815	1369.6847	1393.2642	1426.3951	1477.9382	1883.7519	2358.9584	2980.3337	3150.8423	3156.9857	3172.3144	3253.2118
O=COC1CC1C#N	O=CO[C@H]1C[C@H]1C#N	
InChI=1S/C5H5NO2/c6-2-4-1-5(4)8-3-7/h3-5H,1H2	InChI=1S/C5H5NO2/c6-2-4-1-5(4)8-3-7/h3-5H,1H2/t4-,5-/m0/s1
