23
gdb 108861	2.57113	1.0992	0.8603	2.0363	88.45	-0.2354	0.019	0.2544	1444.1074	0.205341	-388.314398	-388.304393	-388.303449	-388.349424	37.668	
C	 0.1968521291	 1.48813659	-0.1971787168	-0.374987
C	-0.1279923809	 0.0149573281	 0.1111865538	-0.292979
C	 0.6181001629	-0.522444115	 1.2990219666	 0.345676
C	 0.0843312546	-0.8921919726	 2.4661481756	-0.255292
C	 1.1130433361	-1.3339167693	 3.4765081802	 0.116471
O	 0.7708566177	-2.5182418891	 4.1893094807	-0.436222
C	 2.3974274115	-1.4569337592	 2.6188503887	-0.255307
C	 2.1392817138	-0.6416989458	 1.3271608969	-0.06922
C	 2.7647995667	-1.26249352	 0.071567433	-0.403238
H	 1.2597277678	 1.6284928731	-0.417859945	 0.12076
H	-0.3717990515	 1.8369480553	-1.0645056043	 0.114622
H	-0.0540098395	 2.1286694781	 0.6541019144	 0.121861
H	-1.2044921057	-0.0911302135	 0.2845192279	 0.101954
H	 0.1049681059	-0.5895779699	-0.7756098268	 0.105516
H	-0.9729057118	-0.8580935452	 2.7110467451	 0.087012
H	 1.2333968121	-0.5817575783	 4.2673714984	 0.08924
H	 0.5507628523	-3.1888110553	 3.5327677207	 0.269643
H	 3.3003256328	-1.1473402642	 3.1514373764	 0.098643
H	 2.5244238062	-2.5161833987	 2.3613458803	 0.090961
H	 2.5638986885	 0.3664032484	 1.4462243049	 0.081616
H	 2.3472051557	-2.257005333	-0.1228813715	 0.112577
H	 2.5963380976	-0.6468873374	-0.8178852117	 0.115042
H	 3.8471165378	-1.3734898666	 0.1948549824	 0.115652
67.0619	78.5253	123.1878	198.5241	216.8937	246.0536	270.661	312.895	342.626	383.4876	450.5285	510.1632	547.5826	611.9978	642.6826	762.694	798.1458	874.7528	886.6524	910.1344	931.1705	953.3229	1032.8747	1043.7787	1055.8937	1069.5769	1086.1118	1124.3103	1129.4475	1177.1642	1222.2597	1254.0144	1261.4306	1290.3503	1306.0794	1323.0456	1341.1929	1351.5971	1367.1261	1405.7813	1408.2879	1429.1777	1480.5644	1486.5836	1496.1092	1499.0129	1500.7072	1508.4532	1708.3052	2985.2812	3016.8359	3017.6197	3026.6447	3031.3231	3036.8162	3062.4265	3093.304	3097.4541	3099.5512	3107.8084	3109.7473	3178.0566	3792.5945
CCC1=CC(O)CC1C	CCC1=C[C@@H](O)C[C@H]1C	
InChI=1S/C8H14O/c1-3-7-5-8(9)4-6(7)2/h5-6,8-9H,3-4H2,1-2H3	InChI=1S/C8H14O/c1-3-7-5-8(9)4-6(7)2/h5-6,8-9H,3-4H2,1-2H3/t6-,8+/m1/s1
