18
gdb 66438	2.51357	1.74183	1.40566	2.4092	75.87	-0.2014	0.0645	0.2658	1011.8435	0.145189	-401.835101	-401.826593	-401.825649	-401.867573	32.876	
C	 0.0620040616	 1.5260636775	 0.0857680288	-0.523653
C	-0.0220634714	 0.0463946993	-0.0726160574	 0.259625
C	 0.833754317	-0.954302841	-0.7709499531	-0.106873
C	-0.3065633583	-1.9936072519	-0.8128753098	-0.274116
C	-0.3452295609	-1.9196959504	 0.7096145594	 0.335584
C	-0.61942091	-2.9200768884	 1.7752525335	-0.520841
N	 0.8135116786	-0.9157334436	 0.7385466508	-0.244145
C	-1.2082756843	-0.9811281886	-0.0771713217	 0.271689
O	-2.5698789529	-0.856418427	-0.0454322767	-0.448217
H	 1.1093691404	 1.8314699819	 0.1745881475	 0.135537
H	-0.3755558348	 2.0467672539	-0.7733615883	 0.117881
H	-0.4641344688	 1.8552223768	 0.9884555443	 0.131918
H	 1.7507836796	-0.8379985719	-1.3390110767	 0.090816
H	-0.5758847779	-2.794994616	-1.4869202228	 0.092802
H	 0.2134624174	-3.6235796119	 1.8800504583	 0.128305
H	-0.772328532	-2.4255999846	 2.740917667	 0.131649
H	-1.5241649819	-3.4885192968	 1.5374677669	 0.130141
H	-2.8865282713	-0.6570102073	-0.9343620799	 0.291897
169.0059	175.5774	187.2126	188.9677	195.5125	307.3918	336.7166	389.6631	426.9603	556.6877	633.0497	660.5296	705.9096	750.7868	763.0621	820.8939	865.8148	872.6281	880.5297	936.5652	975.393	1015.1416	1034.5747	1086.2416	1107.8925	1143.7692	1170.7198	1222.1017	1235.5444	1290.2837	1341.4042	1391.2723	1408.8294	1430.3467	1472.4151	1477.4432	1487.4335	1491.0974	1522.5731	3027.4763	3028.7561	3091.3024	3093.2198	3106.6812	3107.2239	3160.2295	3212.3494	3775.2965
CC12C3C4C(C)(N13)C24O	C[C@@]12[C@@H]3[C@H]4[C@@](C)(N13)[C@@]24O	
InChI=1S/C7H9NO/c1-5-3-4-6(2,8(4)5)7(3,5)9/h3-4,9H,1-2H3	InChI=1S/C7H9NO/c1-5-3-4-6(2,8(4)5)7(3,5)9/h3-4,9H,1-2H3/t3-,4-,5+,6-,7+,8?/m0/s1
