18
gdb 24637	4.32504	1.11957	0.95654	2.4081	86.45	-0.2379	-0.0173	0.2206	1241.1231	0.150873	-364.859521	-364.852191	-364.851247	-364.891771	28.633	
C	-0.1453211505	 1.430212873	-0.2021873362	-0.266391
C	 1.2668742701	 1.0076997662	 0.0719028654	-0.266405
C	 0.1625263402	-0.033101863	 0.0567641893	-0.100616
C	-0.283278647	-0.7174996705	 1.2984052803	 0.303892
C	-0.3349275464	-0.0811246941	 2.5466849404	-0.082381
N	-0.7287795888	-0.662574642	 3.6793998721	-0.264299
C	-1.1007098216	-1.9444564353	 3.6181352162	-0.004771
C	-1.0925008876	-2.6812689628	 2.4386996699	-0.110181
C	-0.67845729	-2.0568479537	 1.2682702501	-0.178533
H	-0.6812528289	 1.9693935328	 0.571329156	 0.124159
H	-0.4147490164	 1.7157135415	-1.2129910876	 0.117744
H	 1.9751510213	 1.0006747218	-0.7491461842	 0.117743
H	 1.7017379509	 1.25646133	 1.0338166845	 0.12416
H	 0.1402992744	-0.6752127561	-0.8185236488	 0.083828
H	-0.0400270098	 0.9626568874	 2.6375854408	 0.098849
H	-1.4182571954	-2.3990060852	 4.5533933263	 0.105225
H	-1.4034250368	-3.7203528276	 2.4376759737	 0.098857
H	-0.6601153476	-2.6037183424	 0.3297906818	 0.099121
61.1148	153.0268	185.4485	332.4897	380.3944	417.1771	546.7247	547.1803	637.0306	738.7287	757.0521	800.6752	819.2077	830.6775	913.1735	926.1365	950.446	978.3306	996.5574	1035.3301	1054.8856	1060.2669	1077.6443	1079.5727	1131.6972	1144.1305	1202.5803	1202.6218	1231.2336	1253.1219	1296.5526	1367.0157	1405.8953	1461.7331	1471.7464	1499.8393	1519.3825	1609.7171	1633.6731	3133.4989	3135.5174	3139.426	3149.0469	3155.5073	3166.0733	3195.2232	3213.0291	3228.1727
C1CC1C1=CN=CC=C1	C1CC1c1cnccc1	
InChI=1S/C8H9N/c1-2-8(6-9-5-1)7-3-4-7/h1-2,5-7H,3-4H2	InChI=1S/C8H9N/c1-2-8(6-9-5-1)7-3-4-7/h1-2,5-7H,3-4H2
