17
gdb 24294	3.93914	1.65894	1.27804	2.8392	78.8	-0.1893	0.0407	0.23	968.3092	0.139984	-380.877323	-380.870835	-380.869891	-380.908033	26.632	
C	 0.0532754896	 1.4840426349	 0.0144220781	-0.248277
C	 1.2822465176	 0.6542342486	 0.0334917391	-0.03236
C	 1.9407059786	 0.3376792024	 1.3827799649	-0.211339
N	 0.8577946983	-0.3467014654	 2.0641470405	 0.001238
C	 0.6371501466	-0.9208376659	 3.2932349621	-0.145541
C	-0.6168726123	-1.4917035776	 3.2474068184	-0.135322
C	-1.1742946236	-1.2664445724	 1.9488521938	-0.312849
C	-0.2281552116	-0.5577241626	 1.2529020864	 0.358958
N	-0.0539010189	 0.00192022	-0.0394798216	-0.191198
H	-0.2577008301	 1.9692743886	 0.9358934618	 0.129553
H	-0.2341632752	 1.9918207291	-0.9011096888	 0.1241
H	 1.9002090483	 0.5826987468	-0.8550368123	 0.107624
H	 2.8119328035	-0.3149448781	 1.2492726287	 0.125838
H	 2.2650945554	 1.2335986024	 1.923918983	 0.126603
H	 1.3782473352	-0.8917064346	 4.0751861345	 0.112778
H	-1.0902253816	-2.0241720722	 4.0586671494	 0.092493
H	-2.1408539998	-1.5782999841	 1.5879950719	 0.0977
141.3116	178.6776	327.0916	431.1423	435.5882	609.5416	628.3645	670.6271	696.8472	713.8021	763.8452	774.169	792.7221	825.947	846.781	921.2101	927.7925	976.461	1033.337	1073.2436	1083.8909	1100.0749	1112.0235	1125.1765	1176.5323	1206.7606	1230.4048	1265.99	1303.2719	1334.0351	1376.6882	1422.1077	1445.8335	1497.5793	1504.5121	1532.2401	1607.003	3025.9533	3061.801	3112.1435	3168.7313	3206.3768	3241.0258	3265.0461	3272.0163
C1C2CN3C=CC=C3N12	C1[C@H]2Cn3cccc3N12	
InChI=1S/C7H8N2/c1-2-7-8(3-1)4-6-5-9(6)7/h1-3,6H,4-5H2	InChI=1S/C7H8N2/c1-2-7-8(3-1)4-6-5-9(6)7/h1-3,6H,4-5H2/t6-,9?/m1/s1
