20
gdb 83738	2.98602	1.3402	1.08181	2.5025	79.23	-0.233	0.0783	0.3113	1182.5729	0.171556	-403.115988	-403.107856	-403.106912	-403.148428	31.961	
C	 0.0088345054	 1.5325224933	-0.0282377136	-0.416872
C	-0.0103746623	 0.024049357	-0.0770964687	 0.011113
C	 0.6951672496	-0.7357986123	-1.1471260799	-0.128253
N	 1.2555646033	-0.6545164035	 0.2212640927	-0.118158
C	 1.0976164425	-1.9947531171	 0.8285667484	-0.157679
C	 0.126435739	-2.8209649315	-0.0525169257	-0.336796
C	 0.238385371	-2.1412061681	-1.4132237513	 0.461135
C	-0.4601635987	-2.571116708	-2.6268307851	-0.258194
O	 0.935282953	-2.8391518204	-2.4552631255	-0.278313
H	 0.9494509559	 1.9165592116	-0.4315154866	 0.129004
H	-0.8184112697	 1.9535553031	-0.6098111228	 0.115226
H	-0.0855408656	 1.888519742	 1.0032461349	 0.121572
H	-0.9205887384	-0.4304590276	 0.3151317966	 0.07884
H	 1.22680135	-0.2225450347	-1.9434838357	 0.096466
H	 2.0882990546	-2.4598038605	 0.841841268	 0.117289
H	 0.7600247738	-1.8980158557	 1.8647581156	 0.105585
H	 0.4055192058	-3.8739661638	-0.1220414307	 0.121584
H	-0.9016431979	-2.7724668017	 0.3196093662	 0.111822
H	-1.1129043985	-3.443224451	-2.5943971409	 0.111979
H	-0.7054801428	-1.8424690112	-3.3991423761	 0.112652
111.6058	181.986	194.7671	218.9599	303.7041	318.8271	380.5444	416.3751	454.367	543.2839	675.9428	764.5286	785.5968	798.0225	847.8462	874.0102	910.3646	943.824	978.336	989.0386	1036.4071	1043.4684	1067.8671	1097.1276	1127.5171	1148.6191	1163.1075	1174.3591	1195.2041	1219.5872	1255.7057	1257.5638	1296.1127	1310.5223	1354.3639	1408.2825	1420.5522	1460.7309	1482.3459	1489.4207	1496.0331	1506.118	1536.886	3034.0931	3050.2988	3056.553	3075.45	3092.6162	3097.4079	3099.9739	3120.8246	3124.3068	3153.8149	3159.2713
CC1C2N1CCC21CO1	C[C@H]1[C@H]2N1CC[C@]12CO1	
InChI=1S/C7H11NO/c1-5-6-7(4-9-7)2-3-8(5)6/h5-6H,2-4H2,1H3	InChI=1S/C7H11NO/c1-5-6-7(4-9-7)2-3-8(5)6/h5-6H,2-4H2,1H3/t5-,6+,7+,8?/m0/s1
