22
gdb 102696	2.29441	0.87809	0.67363	5.409	80.96	-0.2367	0.0457	0.2825	1699.0733	0.193042	-441.513018	-441.502071	-441.501127	-441.550454	38.375	
C	-0.2822772843	 1.4351688509	-0.085645571	-0.395207
C	 0.0978215879	-0.0480798435	-0.0121193205	-0.181462
C	 0.9076107774	-0.5799651764	-1.2120614983	 0.005776
C	 2.2827251333	 0.0894608541	-1.2857799886	-0.080013
O	 2.9583696051	-0.3386476723	-2.470583105	-0.424605
C	 1.0176624858	-2.1138303559	-1.1221842125	-0.157027
N	 1.5087873332	-2.7302355591	-2.3426785062	-0.279801
C	 0.8984495656	-3.7899542097	-2.9257191444	 0.149219
O	-0.0740529143	-4.3759016116	-2.4915541626	-0.335338
H	 0.5900195259	 2.0938860005	-0.0359694602	 0.117542
H	-0.816828655	 1.6599314571	-1.015122794	 0.120816
H	-0.9386181429	 1.7049956087	 0.7473424039	 0.118423
H	 0.6542382781	-0.2406325123	 0.9156392791	 0.09771
H	-0.8199539086	-0.6427204139	 0.0616063394	 0.109975
H	 0.3674677054	-0.3346831204	-2.1365156538	 0.09077
H	 2.1738909204	 1.1819353981	-1.2946455493	 0.096964
H	 2.8640091691	-0.1805311244	-0.388828312	 0.090805
H	 3.8347762988	 0.0563723095	-2.4803929989	 0.292779
H	 1.6629073588	-2.3801576908	-0.2709349687	 0.099695
H	 0.0366530633	-2.5555215195	-0.9306418643	 0.139477
H	 2.2846049257	-2.2765755613	-2.8013409194	 0.257105
H	 1.3985573913	-4.0776434376	-3.8726237926	 0.066396
36.9229	57.2596	76.1547	130.7022	164.911	224.6546	239.7701	262.631	279.07	299.2578	367.9986	389.6288	436.8142	520.524	642.5528	761.541	772.7279	889.4559	908.1059	923.8749	997.8265	1020.5993	1034.0425	1051.4878	1060.6454	1115.6035	1147.1028	1155.8342	1232.8965	1241.7954	1252.7556	1281.587	1297.1474	1324.1356	1368.6591	1382.6817	1402.6866	1418.8017	1428.7365	1457.7824	1485.92	1501.9776	1503.3041	1510.0601	1519.4553	1539.5786	1798.9505	2927.1574	2969.2733	2987.1352	3013.167	3022.7768	3032.898	3039.2357	3058.5526	3102.7444	3104.5652	3108.6485	3617.0562	3835.62
CCC(CO)CNC=O	CC[C@@H](CO)CNC=O	
InChI=1S/C6H13NO2/c1-2-6(4-8)3-7-5-9/h5-6,8H,2-4H2,1H3,(H,7,9)	InChI=1S/C6H13NO2/c1-2-6(4-8)3-7-5-9/h5-6,8H,2-4H2,1H3,(H,7,9)/t6-/m1/s1
