20
gdb 126141	3.69011	0.96846	0.83289	5.0031	80.71	-0.2481	0.0042	0.2523	1423.6395	0.171973	-399.340724	-399.331568	-399.330624	-399.375593	33.429	
C	-0.1527073534	 1.6123763597	 0.303565306	-0.393939
C	-0.1499273968	 0.0816506296	 0.2671361035	-0.162385
C	-1.4802617807	-0.5494270703	-0.2168645665	-0.104351
C	-1.8059235192	-0.1884358682	-1.6736099289	-0.398894
C	-1.454989357	-2.0398693496	-0.0317268735	 0.361183
C	-1.3411629838	-3.107802313	-0.8951566006	-0.160795
N	-1.3465263104	-4.2706843162	-0.1827115718	-0.189768
N	-1.4588306961	-3.9933094567	 1.0821098397	-0.119922
N	-1.5228465486	-2.6488485206	 1.1809034617	-0.249828
H	 0.7856692544	 1.9886286033	 0.7217534621	 0.120717
H	-0.2636052022	 2.0478671437	-0.6936895271	 0.124874
H	-0.9699265818	 1.9935408656	 0.9266354964	 0.115176
H	 0.6609663394	-0.2793952629	-0.3776686868	 0.109973
H	 0.0736571466	-0.298863077	 1.2712974499	 0.093092
H	-2.2836994646	-0.14692066	 0.4181054412	 0.084863
H	-2.7349838761	-0.6654627545	-1.99726209	 0.1284
H	-1.9227463613	 0.8909889501	-1.7933053587	 0.122104
H	-1.0048274353	-0.515565595	-2.3451544547	 0.125927
H	-1.2612143709	-3.1085783537	-1.9696653081	 0.118988
H	-1.6227076723	-2.2295564243	 2.0918285864	 0.274586
33.044	92.3621	126.2443	199.4037	226.0924	278.0358	286.3997	347.3861	402.4119	464.5577	578.8545	671.7645	729.1395	737.7345	782.7804	840.4157	855.8228	965.4967	983.8813	1000.734	1029.4697	1057.4755	1070.7064	1099.4209	1131.6697	1144.8376	1177.9895	1221.682	1285.4003	1314.4159	1334.5978	1350.2731	1368.6312	1397.3183	1412.0724	1417.4273	1434.2022	1483.3534	1494.5098	1502.2476	1506.9758	1512.0779	1602.1002	2990.6568	3026.1107	3035.1979	3043.0092	3060.5241	3101.9319	3110.7335	3112.8106	3127.5334	3275.0873	3652.2572
CCC(C)C1=CN=NN1	CC[C@@H](C)c1cnn[nH]1	
InChI=1S/C6H11N3/c1-3-5(2)6-4-7-9-8-6/h4-5H,3H2,1-2H3,(H,7,8,9)	InChI=1S/C6H11N3/c1-3-5(2)6-4-7-9-8-6/h4-5H,3H2,1-2H3,(H,7,8,9)/t5-/m1/s1
