16
gdb 21200	6.7668	1.31733	1.12543	1.9283	68.95	-0.1972	0.0223	0.2195	1058.0209	0.132545	-376.126867	-376.118825	-376.117881	-376.159596	28.028	
C	-0.011142807	 1.3668791322	 0.1463958406	-0.319011
N	-0.1338067144	 0.0105838924	-0.3606617009	-0.370754
C	-1.2923421284	-0.6928253962	-0.136018831	 0.4443
N	-1.3374384757	-2.0230570095	-0.1893427488	-0.369118
N	-2.6650018652	-2.2679616237	 0.0234983584	 0.060698
C	-3.1664408667	-3.6205829296	 0.0412751788	-0.316599
C	-3.3160524049	-1.108573672	 0.1973234698	 0.006276
N	-2.4887602725	-0.08090361	 0.1077351199	-0.341112
H	 0.9032261416	 1.8117938548	-0.254083927	 0.118071
H	-0.8640767289	 1.955744349	-0.1951241961	 0.156344
H	 0.0197450969	 1.4251773558	 1.2449207899	 0.11118
H	 0.6921014905	-0.5631911141	-0.280959306	 0.244745
H	-4.2402337282	-3.5953199115	 0.2368947715	 0.139145
H	-2.9853655956	-4.1058078539	-0.9219680603	 0.150701
H	-2.6693952043	-4.199172979	 0.8250413877	 0.149558
H	-4.3784418174	-1.0558888947	 0.3857847036	 0.135576
83.6314	119.4697	130.6002	185.0574	207.4204	320.0664	351.2201	485.6254	557.5697	626.7747	707.523	770.1578	777.1991	843.7315	1007.4034	1029.5813	1081.7846	1100.887	1153.9665	1156.5731	1177.4062	1235.8189	1326.4092	1355.0138	1434.2816	1449.0962	1454.5151	1470.141	1483.2431	1488.4688	1514.7819	1527.3033	1549.4141	1632.2668	2990.2286	3045.9538	3090.6199	3111.1565	3140.5118	3141.0443	3248.5028	3617.9159
CNC1=NN(C)C=N1	CNc1nn(C)cn1	
InChI=1S/C4H8N4/c1-5-4-6-3-8(2)7-4/h3H,1-2H3,(H,5,7)	InChI=1S/C4H8N4/c1-5-4-6-3-8(2)7-4/h3H,1-2H3,(H,5,7)
