21
gdb 118908	2.40837	1.06093	0.98889	1.6187	78.9	-0.2356	-0.0195	0.2161	1348.1939	0.180034	-424.234078	-424.223808	-424.222864	-424.270104	36.967	
C	-0.0484466628	 1.7117812777	-0.0127358842	-0.450443
C	 0.0203756083	 0.1828767998	-0.0307445807	 0.194481
C	-1.3496822923	-0.4861108939	 0.1855912991	-0.225553
C	-2.0339048069	-0.1408288222	 1.5056882994	-0.091637
O	-3.2059199796	-0.9418950502	 1.5851502082	-0.421759
C	 0.8177911945	-0.448080879	-1.2285457043	-0.286421
C	 1.8141311165	-1.1333229545	-0.2457308023	-0.339928
C	 1.1051325841	-0.4038580867	 0.903774923	 0.38016
O	 1.3204716928	-0.2896365908	 2.0775481493	-0.308827
H	 0.9228164252	 2.1527791621	-0.2592123232	 0.115289
H	-0.7787715973	 2.0750856634	-0.7445397064	 0.119005
H	-0.3372545053	 2.0849359371	 0.9738006344	 0.135868
H	-2.012992962	-0.2145061598	-0.6455870209	 0.106988
H	-1.2393219621	-1.5770878421	 0.1488976824	 0.105898
H	-1.3489340154	-0.3412369562	 2.3420348393	 0.113756
H	-2.2885969912	 0.9294046822	 1.5370609538	 0.085812
H	-3.6348426691	-0.7593272194	 2.4260823146	 0.286317
H	 0.238375728	-1.1312116895	-1.8519786379	 0.107857
H	 1.2877498404	 0.2991259706	-1.8713839064	 0.106616
H	 1.7242355369	-2.2219716416	-0.177415336	 0.135156
H	 2.8740082276	-0.8885006669	-0.3563675412	 0.131364
36.7636	80.1934	104.4396	155.0328	192.5888	213.7666	256.5345	280.126	317.8424	364.2391	418.404	499.3984	518.8642	699.4026	709.3783	741.7511	802.9553	873.8636	922.4807	937.1713	974.3405	1008.837	1019.9733	1056.9103	1069.6718	1087.389	1146.7442	1192.8913	1202.4202	1212.7028	1241.0642	1249.1257	1259.7036	1292.3752	1330.2259	1341.2821	1406.7236	1437.4356	1461.9393	1484.7259	1488.2758	1495.1548	1501.8903	1533.084	1876.3388	2982.4112	3017.893	3023.6819	3030.5955	3059.0777	3064.9779	3074.3222	3095.6264	3106.7479	3113.2741	3129.7688	3830.9449
CC1(CCO)CCC1=O	C[C@@]1(CCO)CCC1=O	
InChI=1S/C7H12O2/c1-7(4-5-8)3-2-6(7)9/h8H,2-5H2,1H3	InChI=1S/C7H12O2/c1-7(4-5-8)3-2-6(7)9/h8H,2-5H2,1H3/t7-/m0/s1
