17
gdb 71831	2.557	2.09884	1.41584	2.1811	72.9	-0.2207	-0.0015	0.2192	931.3229	0.135098	-421.779711	-421.772208	-421.771264	-421.81098	30.608	
C	-0.0224269018	 1.4654319028	-0.0283845735	-0.500482
C	-0.0750308038	-0.0241097269	-0.0170275163	 0.448614
O	 0.7397365682	-0.7345924968	-0.9224162508	-0.331576
C	-0.1164244544	-1.9430850527	-0.7224301705	 0.027774
C	 0.5873811409	-2.7566344656	 0.3352815108	-0.100081
C	 0.5129338111	-2.0713468298	 1.4857476724	-0.146428
C	-0.3383107977	-0.8720077729	 1.2929447812	 0.283131
O	-0.8460760169	-0.1383041732	 2.3577573633	-0.478417
C	-1.152487022	-1.0615964274	 0.0251874821	-0.290327
H	 1.0114960147	 1.8000035251	 0.1085824467	 0.136021
H	-0.386122513	 1.8650435973	-0.9803064601	 0.126121
H	-0.6272179984	 1.8673713741	 0.786725682	 0.143934
H	-0.3540749497	-2.4036992808	-1.6797050488	 0.084804
H	 1.2150804604	-3.6119779097	 0.1236937824	 0.105756
H	 1.053667903	-2.2675514649	 2.4036196941	 0.106882
H	-1.5437757975	-0.6554554317	 2.7764337833	 0.28618
H	-2.2328198532	-1.0281606169	-0.0547877184	 0.098094
189.4651	205.757	239.8043	303.0426	351.0435	382.0626	421.2862	433.0209	592.8098	608.2677	659.3675	702.7148	726.9732	778.4356	812.3967	834.665	884.8104	910.333	925.7086	946.9668	969.3183	980.1479	1079.1074	1092.3163	1165.7895	1167.9775	1193.8594	1242.7203	1256.2114	1303.7321	1325.0163	1380.9024	1397.4385	1435.7601	1481.4147	1493.7662	1624.0841	3039.7336	3101.0368	3131.1682	3139.2482	3178.0923	3203.0219	3229.8319	3780.5005
CC12OC3C=CC1(O)C23	C[C@@]12O[C@H]3C=C[C@]1(O)[C@@H]23	
InChI=1S/C7H8O2/c1-6-5-4(9-6)2-3-7(5,6)8/h2-5,8H,1H3	InChI=1S/C7H8O2/c1-6-5-4(9-6)2-3-7(5,6)8/h2-5,8H,1H3/t4-,5+,6-,7-/m0/s1
