18
gdb 24440	3.39999	1.57499	1.11728	2.7437	78.48	-0.1793	0.0479	0.2272	1068.0185	0.151586	-401.992789	-401.985612	-401.984668	-402.02415	28.992	
C	-0.0143069266	 1.5169782112	-0.0161601122	-0.212735
C	 1.4206998576	 2.054539794	 0.0448612271	-0.074844
O	 2.0924903206	 1.7067752988	 1.2551370283	-0.282337
C	 1.9416820639	 0.385680935	 1.5665694429	 0.33965
C	 0.9935771151	-0.4451257287	 1.0134619756	 0.198766
C	-0.0320633496	-0.0273499727	 0.013796079	-0.343976
N	 1.167647829	-1.6829290141	 1.5979649075	-0.342243
C	 2.1995106712	-1.6306526598	 2.5002783223	-0.071834
C	 2.7089666228	-0.3503540153	 2.507400641	-0.301306
H	-0.5698122603	 1.908699517	 0.8430914582	 0.115885
H	-0.4999537466	 1.8943484108	-0.921815379	 0.098724
H	 1.9980599834	 1.6693662097	-0.8102991258	 0.095827
H	 1.4317824213	 3.1466758029	 0.003488622	 0.107691
H	-1.0358699858	-0.3839541268	 0.2795919792	 0.102224
H	 0.1808648487	-0.427864989	-0.9885155681	 0.104391
H	 0.6223057302	-2.5005459058	 1.3910838958	 0.254867
H	 2.4925117092	-2.5042407745	 3.059647427	 0.114825
H	 3.526377906	 0.0172122372	 3.1065762693	 0.096424
119.3881	203.5369	294.4317	345.1438	385.2866	392.1302	456.308	516.8472	626.6954	673.8245	686.3114	699.8662	711.3004	804.2832	867.7654	886.0709	914.6049	928.4837	1000.5955	1061.9855	1090.0357	1096.5701	1122.2756	1179.9415	1209.2579	1216.6771	1268.3696	1300.0503	1309.4473	1357.9991	1368.2949	1412.9381	1445.0462	1474.9392	1484.1928	1498.8711	1504.5881	1534.1707	1643.1528	2983.8044	2988.441	3025.8855	3046.4211	3090.6646	3096.1221	3255.275	3273.9555	3686.4979
C1COC2=C(C1)NC=C2	C1COc2c(C1)[nH]cc2	
InChI=1S/C7H9NO/c1-2-6-7(9-5-1)3-4-8-6/h3-4,8H,1-2,5H2	InChI=1S/C7H9NO/c1-2-6-7(9-5-1)3-4-8-6/h3-4,8H,1-2,5H2
