21
gdb 43668	5.62126	0.68995	0.66586	2.9449	83.81	-0.239	-0.0159	0.2231	1712.427	0.181413	-387.088425	-387.079326	-387.078382	-387.123514	34.034	
O	 0.031924289	 0.0168951332	-0.0186797033	-0.290105
C	-0.0157166932	 1.2080956169	-0.1191601794	 0.4033
C	-1.1424461681	 2.2448130688	 0.0120573058	-0.371125
C	-0.192822257	 3.2869268468	-0.6614089853	 0.039175
C	-0.0513061448	 4.6459630061	 0.0181078991	-0.237963
C	 0.9728014629	 5.5439388307	-0.6443867328	 0.038036
C	 0.5868630313	 6.3898229111	-1.8333780167	-0.255474
C	 0.8865602488	 7.0416776428	-0.50504113	-0.277847
C	 1.001560932	 2.2843365825	-0.5301467041	-0.355281
H	-2.0851108334	 2.0001248597	-0.4841344957	 0.126707
H	-1.3539807196	 2.4753358249	 1.0632267653	 0.126751
H	-0.4574075798	 3.4265346088	-1.7137327223	 0.083686
H	-1.026195207	 5.1521800693	 0.0198607638	 0.094911
H	 0.2156247064	 4.4928798376	 1.0741109432	 0.092652
H	 1.9789063782	 5.1316229754	-0.6685147079	 0.084086
H	 1.3003685171	 6.5111486603	-2.6408355476	 0.111906
H	-0.4484640573	 6.3621161563	-2.1586084096	 0.10948
H	 0.052988607	 7.450455666	 0.0571345534	 0.110483
H	 1.8069066331	 7.6060782739	-0.4036132704	 0.112235
H	 1.6790998373	 2.5289906709	 0.2970278135	 0.126421
H	 1.603175847	 2.065969448	-1.4159390491	 0.127966
42.2887	66.4845	90.7425	138.9733	274.3825	307.5018	389.8682	411.1521	425.1045	489.5654	653.659	671.3259	757.0425	779.9391	804.0956	833.6016	869.523	917.8614	933.1002	938.7193	973.8472	996.9543	1051.9423	1061.3626	1078.7426	1091.5097	1125.6411	1136.4702	1151.311	1190.6327	1198.4992	1204.6126	1228.8344	1236.8333	1259.8662	1286.3351	1320.7179	1379.6611	1418.6259	1426.0908	1446.6382	1468.052	1482.7363	1506.469	1893.2475	2998.0133	3035.4134	3040.2597	3045.2992	3065.6183	3108.46	3110.0393	3127.0556	3130.5028	3134.1523	3205.324	3220.4891
O=C1CC(CC2CC2)C1	O=C1CC(CC2CC2)C1	
InChI=1S/C8H12O/c9-8-4-7(5-8)3-6-1-2-6/h6-7H,1-5H2	InChI=1S/C8H12O/c9-8-4-7(5-8)3-6-1-2-6/h6-7H,1-5H2
