20
gdb 108697	3.73029	1.29316	1.10649	1.4537	87.8	-0.2004	-0.0327	0.1677	1163.2533	0.171291	-365.896233	-365.888295	-365.887351	-365.928812	31.299	
C	 0.3162110821	 1.2985823858	 0.1844076575	-0.3783
C	-0.2715713612	-0.0352512842	-0.3141460518	-0.255862
C	-1.7602265388	-0.0971102643	-0.1531852396	 0.267375
C	-2.6208560523	-0.4392413643	-1.1482241453	-0.109042
C	-2.4094574606	-1.8795291505	-1.6448308475	-0.168118
N	-3.4499086191	-2.2868129472	-0.5963255005	-0.158269
C	-3.4948464747	-1.4145704539	 0.6944805189	-0.016843
C	-2.3870826152	-0.4673381749	 1.18742532	-0.318383
C	-3.9726255093	-0.8932137384	-0.5868915591	-0.066477
H	 1.4034065115	 1.3153688376	 0.0609119172	 0.113279
H	-0.1054351782	 2.1406057029	-0.3726909686	 0.124773
H	 0.0956836747	 1.4560509238	 1.2453603329	 0.118196
H	-0.0132864259	-0.1703540155	-1.3704695005	 0.104069
H	 0.2027036889	-0.8559739897	 0.2454453775	 0.099028
H	-2.8413382879	-2.1524181446	-2.6126107238	 0.114716
H	-1.410083918	-2.3128344524	-1.5400692895	 0.108808
H	-4.1578297849	-1.9030818069	 1.4027513493	 0.097898
H	-1.620204364	-0.9341257031	 1.817142385	 0.114504
H	-2.8495843184	 0.3267679393	 1.7912020332	 0.117784
H	-4.9745547986	-0.6325431494	-0.9096773951	 0.090866
64.4975	135.2833	209.9426	256.7339	281.2476	392.6779	417.4966	523.2179	567.3636	628.4451	720.028	750.5969	783.0675	800.726	835.9914	872.3857	923.8009	943.2411	966.3967	981.5015	1004.1429	1023.0424	1051.5677	1064.3416	1078.4743	1094.401	1127.7159	1162.815	1196.1088	1219.1551	1258.5381	1276.4487	1281.6865	1307.6118	1342.7392	1365.2023	1405.3686	1463.0893	1477.4305	1497.3581	1505.1912	1512.0941	1587.7369	2986.6145	3002.2745	3035.2244	3040.3848	3056.276	3061.1423	3098.9552	3105.8222	3112.5236	3159.2823	3172.6335
CCC1=C2CN3C(C1)C23	CC[C]1[C]2CN3[C@@H](C1)[C@@H]23	
InChI=1S/C8H11N/c1-2-5-3-7-8-6(5)4-9(7)8/h7-8H,2-4H2,1H3	InChI=1S/C8H11N/c1-2-5-3-7-8-6(5)4-9(7)8/h7-8H,2-4H2,1H3/t7-,8+,9?/m0/s1
