16
gdb 85735	2.0175	1.47116	1.1593	4.1496	69.49	-0.2586	-0.0451	0.2134	1111.7817	0.123075	-437.884881	-437.876113	-437.875169	-437.919075	31.351	
O	 0.2450798365	 1.2955904174	-0.3129307777	-0.424158
C	 0.0835610634	-0.0742498509	-0.0451238978	 0.124624
C	 0.2677682107	-0.4866352176	 1.4388286014	-0.262547
C	-1.2894624366	-0.4828487478	 1.611483072	-0.198154
C	-1.7773756905	 0.7711820811	 2.1690349714	 0.268182
N	-2.1227914915	 1.7922463842	 2.5906464421	-0.325451
C	-1.4097447106	-0.574522785	 0.0446804803	-0.117433
C	-2.4604463659	 0.2098370351	-0.7019624188	 0.156604
O	-3.0573205316	-0.2302261316	-1.6509699556	-0.248395
H	-0.1344773438	 1.8187088526	 0.4032153904	 0.298977
H	 0.6928573904	-0.5975043855	-0.7834749915	 0.112115
H	 0.6670717151	-1.4973088757	 1.5445828898	 0.12941
H	 0.8412593835	 0.197623038	 2.0667296911	 0.133345
H	-1.7250685905	-1.3179037654	 2.1630541285	 0.13644
H	-1.4760479635	-1.6210261473	-0.2588201381	 0.114254
H	-2.6434647252	 1.2399847885	-0.3333478876	 0.102189
61.0083	75.3202	129.6313	202.5746	221.14	307.109	363.3339	385.6211	458.1835	489.9516	506.7526	603.3993	776.4066	813.02	835.1121	867.1144	912.6283	980.8314	1016.375	1046.6327	1110.1798	1116.3102	1126.5694	1180.2568	1214.6984	1255.6625	1260.3597	1270.737	1333.3272	1343.4338	1436.3726	1439.151	1476.1842	1823.5655	2341.881	2924.5335	3077.4644	3096.6042	3102.512	3111.2084	3140.3553	3790.1062
OC1CC(C#N)C1C=O	O[C@H]1C[C@@H](C#N)[C@H]1C=O	
InChI=1S/C6H7NO2/c7-2-4-1-6(9)5(4)3-8/h3-6,9H,1H2	InChI=1S/C6H7NO2/c7-2-4-1-6(9)5(4)3-8/h3-6,9H,1H2/t4-,5+,6-/m0/s1
