17
gdb 97741	3.18052	0.79273	0.75074	1.813	75.05	-0.2359	0.0186	0.2546	1555.3499	0.133596	-458.897089	-458.887253	-458.886309	-458.933118	34.902	
O	 0.0742025738	 1.1600095337	-0.509050118	-0.400547
C	-0.06011996	-0.0363201861	 0.2439126493	-0.188265
C	-1.4202911388	-0.5745313657	 0.2475120018	 0.089413
C	-2.5641138142	-0.9574977376	 0.1769714274	 0.037927
C	-3.8908862543	-1.4768476313	 0.1008574747	-0.323258
C	-4.4508555041	-1.9971237964	-1.2431386555	 0.113523
O	-3.6876593056	-1.937112303	-2.3909778269	-0.41932
C	-4.0462133034	-2.9772202903	-0.1864669895	 0.036732
O	-2.8926532453	-3.7025519706	-0.4933997888	-0.426543
H	-0.3399705249	 1.0090711726	-1.3654345653	 0.290904
H	 0.6345522472	-0.8148078627	-0.1119519215	 0.115939
H	 0.2501064734	 0.2168795024	 1.2640565502	 0.141387
H	-4.6203336235	-1.0478802438	 0.7817812921	 0.118583
H	-5.5047388292	-1.8064050016	-1.4203672033	 0.113882
H	-3.0153413596	-2.6289738361	-2.2941921106	 0.29249
H	-4.7880872475	-3.5354439593	 0.3785919436	 0.109259
H	-2.1543707741	-3.3149963841	-0.0033766798	 0.297895
33.0737	72.0579	87.3044	156.0892	223.7057	262.8623	291.7061	303.6065	350.8519	409.623	499.9705	517.9018	596.9685	626.469	682.8465	732.7342	766.9302	848.4699	965.8165	990.1504	1005.7531	1027.9042	1056.476	1104.9259	1160.3811	1179.1801	1218.6474	1231.6942	1336.8353	1348.9564	1355.531	1371.672	1377.7996	1421.2153	1453.631	1491.2448	2338.1167	2969.8482	3059.441	3136.9118	3148.2219	3164.2152	3709.7192	3739.9518	3814.5014
OCC#CC1C(O)C1O	OCC#C[C@H]1[C@@H](O)[C@H]1O	
InChI=1S/C6H8O3/c7-3-1-2-4-5(8)6(4)9/h4-9H,3H2	InChI=1S/C6H8O3/c7-3-1-2-4-5(8)6(4)9/h4-9H,3H2/t4-,5+,6-
