16
gdb 30085	2.48735	1.85111	1.06831	4.9424	76.57	-0.1956	-0.0243	0.1714	1068.3208	0.126762	-434.123888	-434.115874	-434.11493	-434.156535	30.075	
C	-0.4427077978	 1.377435107	 0.0074024665	-0.328127
N	 0.0185112287	-0.0039201383	-0.0251292638	-0.121907
C	 0.2297243645	-0.6595123153	-1.2267815467	-0.02733
C	 0.6540173092	-1.9298079455	-1.2680086494	-0.084303
N	 0.8894449474	-2.6109694134	-0.0745961959	-0.374501
C	 0.714755418	-2.0637003198	 1.1683950706	 0.382035
O	 0.9262323437	-2.6757394954	 2.1985447843	-0.374582
C	 0.2344249738	-0.6264853448	 1.1956552943	 0.264184
N	 0.0330086575	-0.0026209797	 2.291949496	-0.537473
H	 0.2797004419	 2.0049557616	 0.5369922977	 0.153685
H	-0.5683323769	 1.7357112114	-1.0150985683	 0.12329
H	-1.3916510897	 1.4467943673	 0.5466996515	 0.153638
H	 0.0340033783	-0.0916657507	-2.123962422	 0.133007
H	 0.8274561556	-2.467501361	-2.1866158107	 0.135292
H	 1.2096769317	-3.5684334238	-0.0865708514	 0.263031
H	 0.252551814	-0.6442063795	 3.0557793973	 0.24006
93.5762	125.6966	166.9329	220.3235	335.8623	365.6162	471.7152	477.4874	535.945	538.0149	575.3891	647.4418	689.8455	716.7179	792.6767	840.8984	872.1064	897.0935	986.7516	1073.8619	1114.4251	1154.0844	1187.2572	1219.3826	1290.0874	1358.8323	1435.1261	1439.1974	1465.1246	1466.4013	1478.1894	1515.616	1683.466	1719.1184	1787.3906	3047.6336	3108.3182	3147.209	3242.5224	3263.637	3477.4144	3617.8316
CN1C=CNC(=O)C1=N	CN1C=CNC(=O)[C]1[NH]	
InChI=1S/C5H7N3O/c1-8-3-2-7-5(9)4(8)6/h2-3,6H,1H3,(H,7,9)	InChI=1S/C5H7N3O/c1-8-3-2-7-5(9)4(8)6/h2-3,6H,1H3,(H,7,9)
