18
gdb 47030	3.65462	1.33616	1.06228	1.6361	72.48	-0.2522	0.0248	0.277	1111.9771	0.150413	-439.080719	-439.07332	-439.072376	-439.113064	28.553	
N	-0.1682784008	 1.4213997741	 0.0320246828	-0.51689
C	-0.0178500191	 0.1702004133	 0.1464917054	 0.403922
C	-1.1342711345	-0.8080470208	-0.1293115822	-0.32118
C	-1.2450066929	-1.8105964453	 1.0259817955	-0.058567
C	-1.5995665916	-3.2756420987	 0.6898304334	-0.095619
O	-0.2594275025	-3.7216278243	 1.0072348373	-0.293122
C	 0.1303482045	-2.3955834378	 1.418514996	 0.116001
C	 1.2637757415	-1.809693106	 0.5766525497	-0.111962
O	 1.1676656577	-0.3787544578	 0.5587912004	-0.247931
H	 0.7046882434	 1.9018969098	 0.2620137043	 0.218806
H	-2.0515433771	-0.2415753534	-0.2893606546	 0.137971
H	-0.9127294326	-1.3436631273	-1.0616213867	 0.124231
H	-1.808270466	-1.3811534917	 1.8556667389	 0.096223
H	-2.3453661153	-3.7402926224	 1.3454510647	 0.109363
H	-1.8645336457	-3.4800935785	-0.354801427	 0.106811
H	 0.372625507	-2.357989519	 2.486970712	 0.088824
H	 2.2524069101	-2.0314034078	 0.9826600019	 0.125024
H	 1.2097352839	-2.2190843962	-0.4392900218	 0.118096
66.0949	121.2046	228.1776	320.8134	378.5153	419.8678	437.6166	512.1202	580.5712	687.641	790.0067	806.3348	837.8562	886.7457	916.3747	950.1425	977.4942	1013.2328	1024.7722	1051.6952	1069.9309	1112.3527	1122.9836	1139.665	1161.2931	1210.0544	1249.308	1261.239	1277.6904	1299.5903	1331.0376	1355.0771	1370.2878	1375.735	1408.9445	1478.8167	1518.5964	1524.0246	1757.206	3016.8664	3027.1769	3035.2013	3041.4302	3061.5701	3099.4177	3117.331	3135.5262	3458.0472
N=C1CC2COC2CO1	[NH][C]1C[C@H]2CO[C@H]2CO1	
InChI=1S/C6H9NO2/c7-6-1-4-2-8-5(4)3-9-6/h4-5,7H,1-3H2	InChI=1S/C6H9NO2/c7-6-1-4-2-8-5(4)3-9-6/h4-5,7H,1-3H2/t4-,5-/m0/s1
