18
gdb 15353	6.1886	0.8904	0.84103	1.4127	74.51	-0.2582	0.0541	0.3124	1353.7794	0.15186	-347.7464	-347.737334	-347.736389	-347.78057	32.731	
O	-0.1257176256	 1.3222472548	-0.7668635393	-0.420862
C	 0.0231834381	 0.1263208416	-0.011794891	-0.094788
C	-1.3353918382	-0.5139953571	 0.1025604733	-0.005247
C	-1.8669590949	-1.4024920504	-0.9963092578	-0.274183
C	-1.5387984312	-1.9919366396	 0.3503700603	-0.004275
C	-0.3837280683	-2.9729087937	 0.5221056835	-0.38378
C	-0.7905416446	-4.3552393142	 0.2843136605	 0.306514
C	-1.1451645755	-5.487695966	 0.0937986304	-0.442464
H	 0.7218764566	 1.7770281177	-0.774056478	 0.284522
H	 0.7338666604	-0.5584857562	-0.500074842	 0.079699
H	 0.4201476252	 0.3445179494	 0.9932869944	 0.08606
H	-2.0608217336	 0.13879559	 0.5806210567	 0.092252
H	-2.9055733326	-1.3091532959	-1.2921595145	 0.114252
H	-1.1914424208	-1.6287356767	-1.81597772	 0.114447
H	-2.3891135368	-2.2371418571	 0.9799995959	 0.096229
H	 0.4355328381	-2.7196726628	-0.1606107926	 0.128127
H	 0.0292902183	-2.889482419	 1.5365408232	 0.129827
H	-1.4508973746	-6.4896113946	-0.078558683	 0.19367
51.0942	94.891	105.4669	180.5052	247.2151	274.9941	332.3133	342.5994	413.099	473.6232	572.3145	615.7427	636.2352	792.6149	829.4908	867.5239	893.1182	928.4661	965.4746	1022.9391	1051.4393	1067.0504	1073.0705	1138.5324	1144.28	1181.5573	1236.2017	1255.6658	1258.4902	1284.5752	1323.2686	1382.3775	1422.6245	1468.8964	1474.0403	1498.2754	1521.6074	2238.8956	2961.6859	2990.8175	3017.0744	3059.0724	3129.1986	3141.1263	3152.713	3215.0795	3507.41	3824.0429
OCC1CC1CC#C	OC[C@H]1C[C@H]1CC#C	
InChI=1S/C7H10O/c1-2-3-6-4-7(6)5-8/h1,6-8H,3-5H2	InChI=1S/C7H10O/c1-2-3-6-4-7(6)5-8/h1,6-8H,3-5H2/t6-,7-/m1/s1
