17
gdb 38738	2.46025	2.45902	2.4387	2.4282	67.61	-0.2443	0.0795	0.3238	753.8768	0.141122	-421.837759	-421.832601	-421.831656	-421.866954	23.558	
C	-0.0214747755	 1.5496992575	 0.0017083507	-0.218016
C	 1.4913333542	 1.8506857662	-0.0236519459	 0.056362
O	 2.0038323254	 1.4205625403	-1.29760873	-0.257315
C	 1.9114048197	 0.0075373711	-1.2430197739	 0.145599
O	 0.5544199553	-0.397386489	-1.2959752669	-0.257316
C	 0.0220626392	 0.007826676	-0.0219998648	 0.056364
C	 1.1315230434	-0.3378768647	 0.9972853628	-0.089021
C	 2.0763759932	 0.8472252815	 0.9962224845	-0.08902
C	 2.388193895	-0.3713218924	 0.1741882811	-0.079187
H	-0.4746763741	 1.9118581675	 0.9312764838	 0.095663
H	-0.5488111153	 1.9693604651	-0.8575281738	 0.111513
H	 1.770230584	 2.8934933405	 0.1250489603	 0.07866
H	 2.4417765	-0.4160818911	-2.0940390418	 0.089434
H	-0.9322885668	-0.4961865394	 0.1280950737	 0.078659
H	 0.9595216822	-0.9751614727	 1.8547014336	 0.091115
H	 2.6600833045	 1.15780298	 1.8527886323	 0.091115
H	 3.2224548955	-1.0362972763	 0.3507732744	 0.095393
407.8101	410.5963	566.6489	581.2136	622.4873	640.6312	771.7652	782.6998	810.5233	814.5202	855.7566	865.8239	878.523	898.5281	917.0045	936.4699	954.6025	968.8627	994.2071	998.8994	1033.8042	1052.0343	1079.8164	1111.4632	1117.9706	1155.9206	1228.7106	1259.6569	1267.7653	1276.0507	1302.9546	1309.8224	1333.6984	1353.8285	1373.5602	1381.1645	1470.307	3048.5338	3118.7434	3119.4678	3122.6905	3144.0387	3194.2915	3199.0172	3212.4878
C1C2OC3OC1C1C2C31	C1[C@@H]2O[C@@H]3O[C@H]1[C@@H]1[C@H]2[C@H]31	
InChI=1S/C7H8O2/c1-2-4-5-3(1)9-7(8-2)6(4)5/h2-7H,1H2	InChI=1S/C7H8O2/c1-2-4-5-3(1)9-7(8-2)6(4)5/h2-7H,1H2/t2-,3+,4-,5+,6-,7+
