17
gdb 29640	2.3878	1.6676	0.99687	3.3378	74.42	-0.1804	0.0401	0.2205	1161.9786	0.134395	-455.170505	-455.160915	-455.15997	-455.20505	33.87	
C	 0.1500797309	 1.4208165585	 0.0129050785	-0.338793
N	 0.0418213024	-0.0180989438	 0.0432206409	-0.138919
C	-0.1571128099	-0.7955399697	-1.076151151	 0.454223
N	-0.3346341325	-0.3618264668	-2.2569527592	-0.61778
O	-0.1182008858	-2.1073448995	-0.6582576279	-0.257409
C	 0.0985773048	-2.1344210668	 0.7228111554	 0.234424
C	 0.1851871904	-3.4479072527	 1.3966958561	-0.497252
C	 0.1968476952	-0.8690285465	 1.148170386	 0.208984
O	 0.4880998675	-0.3860060548	 2.3800606055	-0.427385
H	 0.6597273127	 1.7535344421	 0.9195147518	 0.135483
H	 0.7280998929	 1.7180564623	-0.8654799292	 0.163264
H	-0.8330896919	 1.9024462299	-0.0502423143	 0.134002
H	-0.4367084548	-1.1340148645	-2.9099797762	 0.221495
H	 1.0108870958	-4.0514278225	 1.0011235031	 0.139542
H	 0.3546624263	-3.2938693167	 2.4649585852	 0.141309
H	-0.7356167969	-4.0298872	 1.2702747702	 0.135982
H	-0.2897171269	 0.0453792213	 2.7557426752	 0.30883
73.6168	99.2695	153.8554	169.1216	202.8779	227.9968	243.3397	271.9462	335.2574	363.2137	567.0963	605.557	622.4467	634.8528	715.8764	734.16	742.4755	924.7131	956.7753	1028.6623	1068.0612	1090.5846	1158.2617	1172.055	1221.9419	1262.4685	1311.8636	1381.9749	1420.3696	1430.6639	1467.2641	1469.7969	1489.7032	1496.1137	1522.3222	1758.2173	1811.2309	3022.6427	3027.9446	3069.5022	3097.865	3127.7911	3141.3511	3540.4056	3759.0376
CN1C(=N)OC(C)=C1O	CN1[C@@H]([NH])OC(=C1O)C	
InChI=1S/C5H8N2O2/c1-3-4(8)7(2)5(6)9-3/h6,8H,1-2H3	InChI=1S/C5H9N2O2/c1-3-4(8)7(2)5(6)9-3/h5-6,8H,1-2H3/t5-/m1/s1
