17
gdb 6787	3.61004	1.39541	1.09856	4.382	62.69	-0.2345	0.0046	0.2391	1075.7801	0.141637	-438.152682	-438.143822	-438.142878	-438.18704	31.354	
N	 0.2818037813	 0.7065123943	-0.1958791908	-0.50408
C	-0.032413994	-0.5917891268	 0.0305918427	 0.420919
O	 0.8220141536	-1.4630520855	 0.1056008093	-0.370476
C	-1.5297915192	-0.8857770095	 0.210001085	-0.181536
O	-1.9586395812	-1.8341255181	-0.7364407917	-0.245621
C	-2.396545144	-3.0945444657	-0.234809497	-0.077607
C	-1.2566053445	-4.0619268766	 0.0749529346	-0.067586
O	-0.4777605684	-3.6585016749	 1.177201414	-0.436914
H	 1.2492801158	 0.9497748831	-0.3382543465	 0.269092
H	-0.4216057454	 1.4024829232	-0.3694644278	 0.268161
H	-1.6673004013	-1.2423015881	 1.2379937787	 0.139444
H	-2.1192550713	 0.0340067584	 0.082624325	 0.090473
H	-3.0105864232	-2.9495112185	 0.6662526849	 0.095992
H	-3.0337962025	-3.5145949389	-1.0218564549	 0.100911
H	-1.6996163822	-5.0374336605	 0.3174707283	 0.094315
H	-0.6462208018	-4.1920119717	-0.8314375789	 0.09529
H	 0.1367058882	-2.9748765543	 0.8537152451	 0.309223
33.9454	90.2705	116.0068	199.9455	261.1244	292.9466	311.8055	355.9435	430.8008	512.6441	541.006	615.4093	726.5651	751.2584	835.1329	859.567	903.6245	996.5684	1013.3878	1087.7245	1112.0084	1132.3501	1161.3879	1248.3044	1289.9841	1313.038	1352.6486	1398.5573	1411.2793	1431.745	1469.2265	1472.8206	1482.9046	1488.0582	1621.9089	1775.0518	2988.5863	2991.6969	2998.5545	3044.8057	3059.1448	3068.5838	3586.0209	3600.8371	3736.4726
NC(=O)COCCO	NC(=O)COCCO	
InChI=1S/C4H9NO3/c5-4(7)3-8-2-1-6/h6H,1-3H2,(H2,5,7)	InChI=1S/C4H9NO3/c5-4(7)3-8-2-1-6/h6H,1-3H2,(H2,5,7)
