23
gdb 114540	3.41603	1.10717	0.99638	1.2413	84.76	-0.2617	0.078	0.3398	1291.6355	0.208747	-388.287441	-388.279085	-388.27814	-388.320304	33.536	
O	 0.0519031169	 1.3915716914	-0.1009054622	-0.425501
C	 0.0485464889	-0.0289224455	-0.0610815981	-0.104169
C	-1.3961405857	-0.5030996418	 0.0233615856	 0.055665
C	-2.2426252129	-0.0427891046	-1.191249406	-0.20297
C	-3.45946827	-0.957831555	-1.4029486733	-0.010289
C	-3.9588962142	-1.5470212478	-0.0490276619	-0.229779
C	-2.8240938926	-2.6024904132	-0.2129025295	-0.004947
C	-2.9706049137	-2.3918538009	-1.7442099823	-0.208651
C	-1.4736491714	-2.0337498468	 0.2524364516	-0.232222
H	 0.9611963381	 1.6886518736	-0.1964518398	 0.285479
H	 0.5208579344	-0.4527060075	-0.9637641873	 0.080615
H	 0.6134945894	-0.4025566427	 0.8092926755	 0.08036
H	-1.8225604238	-0.0203913119	 0.9105667024	 0.085845
H	-2.5529532912	 0.9946240277	-1.0345312328	 0.104513
H	-1.6326949221	-0.0453263916	-2.1048409476	 0.088572
H	-4.1963128715	-0.4982143115	-2.0666639879	 0.054623
H	-3.9618611304	-0.9066162195	 0.8374892842	 0.089095
H	-4.9444573042	-2.0078350385	-0.1571447129	 0.090908
H	-2.9919860571	-3.607034297	 0.1840799722	 0.054595
H	-3.7698260178	-3.008196696	-2.1656879056	 0.08842
H	-2.0721860415	-2.4919326016	-2.3628574416	 0.079233
H	-0.6685892969	-2.5484535663	-0.2909854981	 0.089192
H	-1.3113625506	-2.2457410329	 1.3161386253	 0.091411
81.439	131.4981	206.7092	263.7731	292.9548	347.0866	400.1617	418.4198	458.7677	483.7538	573.4391	768.7936	823.3836	826.2422	855.1268	866.1937	894.3747	928.4446	931.7621	964.1493	989.8229	1026.5821	1058.9481	1063.1115	1083.7389	1098.3056	1119.2999	1123.9446	1127.4794	1171.3434	1211.1001	1224.7332	1255.6885	1259.7851	1267.1566	1269.8204	1316.6377	1319.2899	1331.8874	1341.4638	1351.6159	1381.1639	1397.43	1459.2992	1481.7315	1489.6963	1494.2948	1515.0492	1520.593	2949.9305	2977.6704	3005.5349	3013.8239	3029.1355	3034.9039	3050.6056	3052.7025	3066.2551	3070.0592	3080.6789	3094.287	3104.5336	3831.8456
OCC1CC2CC(C2)C1	OC[C@H]1C[C@@H]2C[C@@H](C2)C1	
InChI=1S/C8H14O/c9-5-8-3-6-1-7(2-6)4-8/h6-9H,1-5H2	InChI=1S/C8H14O/c9-5-8-3-6-1-7(2-6)4-8/h6-9H,1-5H2/t6-,7+,8-
