18
gdb 47542	2.7317	1.66963	1.14028	4.0148	73.33	-0.253	0.0289	0.282	1067.0648	0.149264	-439.073487	-439.065839	-439.064895	-439.105904	29.671	
N	-0.1436221961	 1.3442875726	 0.2014490799	-0.504221
C	-0.031319157	 0.1123325657	-0.0430459442	 0.429666
O	 1.1671870467	-0.5233459551	-0.1395099599	-0.258747
C	 1.451972734	-1.5401046447	-1.1176581807	-0.062816
C	 0.4276585834	-2.6681006795	-1.233744677	-0.241671
C	-0.8251271495	-2.2170742398	-1.9632145384	-0.046196
C	-2.1967928718	-2.4628535716	-1.366934012	-0.328211
C	-1.5933532612	-1.0960237125	-1.3211211455	 0.10293
O	-1.1407519035	-0.6818768156	-0.0519564424	-0.236821
H	 0.7832315806	 1.7689457633	 0.2259553366	 0.227795
H	 1.5900621588	-1.0542645876	-2.0938230785	 0.107732
H	 2.4202811054	-1.9343839042	-0.7990496871	 0.120305
H	 0.8991402185	-3.4977414578	-1.7734764723	 0.108154
H	 0.1884024383	-3.0357674197	-0.2318001832	 0.123691
H	-0.7522175552	-2.2002929785	-3.0471433937	 0.094063
H	-3.0361339523	-2.6270362	-2.03281618	 0.121744
H	-2.2441853731	-3.0038737732	-0.4282923828	 0.132293
H	-2.0147472159	-0.290444812	-1.9166863889	 0.110311
72.9461	126.5009	230.9693	276.5075	312.851	386.6384	442.9401	534.1728	589.105	632.9061	726.3426	769.047	820.7696	835.8118	877.4338	905.5176	918.8164	967.2508	970.5387	1046.3981	1059.1283	1070.6933	1093.3786	1121.9533	1134.4087	1150.7667	1173.3402	1230.8618	1253.7383	1287.7631	1301.13	1353.9588	1382.7416	1415.093	1432.1737	1470.1036	1484.7751	1505.0873	1750.2363	3010.3392	3042.6977	3093.7356	3098.4734	3137.9791	3140.6564	3150.2129	3230.0735	3500.5649
N=C1OCCC2CC2O1	[NH][C]1OCC[C@H]2C[C@H]2O1	
InChI=1S/C6H9NO2/c7-6-8-2-1-4-3-5(4)9-6/h4-5,7H,1-3H2	InChI=1S/C6H9NO2/c7-6-8-2-1-4-3-5(4)9-6/h4-5,7H,1-3H2/t4-,5+/m0/s1
