17
gdb 73533	2.59775	2.12536	1.38549	2.3059	72.86	-0.2272	-0.0297	0.1976	920.1983	0.13688	-417.905679	-417.898694	-417.897749	-417.936479	29.201	
O	 0.0294488117	 1.3040756166	 0.0740639431	-0.469333
C	 0.029990886	-0.0966534031	-0.0065429541	 0.427555
C	 1.0763429477	-0.6905480425	-0.9775042871	-0.299259
C	 0.3779630853	-1.7548320849	-1.8840889049	-0.169225
N	-0.1188295936	-2.724041521	-0.9000294594	-0.151472
C	-0.9147043008	-2.1630233351	-0.0980777307	 0.16916
N	-0.6983071432	-2.2313779092	 1.3583429961	-0.361069
C	-0.6980231529	-0.7183308428	 1.241111524	-0.08238
C	-1.3426460762	-0.6812980752	-0.1085904048	-0.252488
H	 0.8416054135	 1.5751684447	 0.5163711618	 0.288497
H	 1.4644474119	 0.1378928708	-1.5801138338	 0.106499
H	 1.9154273853	-1.1641844235	-0.4598757865	 0.125644
H	-0.4068465393	-1.2701872515	-2.481173228	 0.109633
H	 1.0816575782	-2.2405961815	-2.5628603802	 0.109882
H	-1.5714278214	-2.445920263	 1.8477929692	 0.228608
H	-0.8710973081	-0.0997014027	 2.1142650598	 0.107017
H	-2.2312453941	-0.2015587962	-0.4983339045	 0.112731
188.4474	279.3657	312.5575	329.2201	382.7389	421.5295	463.8509	509.5214	541.162	626.5814	711.5343	747.7343	800.8011	840.2654	877.1162	903.4211	911.6755	913.2592	975.1878	1000.2144	1014.563	1068.9972	1074.952	1090.9967	1107.308	1170.342	1201.5203	1218.4011	1235.8171	1255.1634	1300.3985	1318.6229	1343.5842	1402.4293	1473.7294	1503.3304	1715.3928	3010.9076	3047.0045	3099.0592	3109.2955	3182.608	3195.9075	3409.9051	3797.1277
OC12CCN=C3NC1C23	O[C@@]12CC[N][C]3N[C@@H]1[C@@H]23	
InChI=1S/C6H8N2O/c9-6-1-2-7-5-3(6)4(6)8-5/h3-4,9H,1-2H2,(H,7,8)	InChI=1S/C6H8N2O/c9-6-1-2-7-5-3(6)4(6)8-5/h3-4,9H,1-2H2,(H,7,8)/t3-,4-,6-/m1/s1
