23
gdb 42040	2.74226	1.43135	1.04082	1.209	84.99	-0.2406	0.0798	0.3203	1217.587	0.209044	-388.288408	-388.280236	-388.279292	-388.321679	32.559	
C	-0.0422084027	 1.486700387	-0.3141817657	-0.241089
C	 1.4039735133	 1.6874853014	 0.2204247779	-0.241962
C	 1.4447294792	 0.1986447316	 0.6787341337	 0.005972
C	 1.5798013752	-0.0164086176	 2.180289511	-0.092373
O	 1.4766057893	-1.3814522802	 2.5487883768	-0.244588
C	 0.1617477512	-1.8408461969	 2.7967138877	-0.065915
C	-0.7460564174	-1.947703405	 1.5658899756	-0.199702
C	-1.0874639709	-0.5971365204	 0.9138041556	-0.221655
C	 0.0314918093	-0.0292915409	 0.0410179876	 0.038049
H	-0.8028392022	 2.0277372888	 0.2568402485	 0.095161
H	-0.1905063368	 1.7183289401	-1.3716200221	 0.09759
H	 2.1384774963	 1.9367497094	-0.5486994735	 0.100556
H	 1.5047213162	 2.419035402	 1.0282703974	 0.094822
H	 2.2263356937	-0.390570656	 0.1906027822	 0.072353
H	 2.5747822173	 0.3161145956	 2.5020342171	 0.100661
H	 0.8429681194	 0.5878628692	 2.7349984561	 0.080445
H	 0.2830098239	-2.8311840853	 3.2487553272	 0.10176
H	-0.3249842577	-1.1930291694	 3.5472335306	 0.08148
H	-0.2788001745	-2.614923256	 0.8304661956	 0.100418
H	-1.6712475749	-2.4401718109	 1.8931767044	 0.091057
H	-1.987919423	-0.7029323561	 0.2954949183	 0.092654
H	-1.3526553677	 0.1220467162	 1.70150422	 0.087684
H	 0.1169237336	-0.6494110564	-0.857690022	 0.066623
33.698	161.0667	214.5512	283.213	301.3219	360.2121	386.0745	415.1652	514.0319	553.3982	682.991	751.0321	758.5089	820.8278	858.9474	899.5081	923.4714	939.9592	959.8597	997.5728	1007.4909	1031.7749	1039.8228	1058.3395	1097.9734	1133.6514	1161.2335	1173.1692	1222.8289	1238.9138	1245.2998	1263.0987	1264.1899	1277.7563	1289.3189	1298.3151	1334.5373	1345.7395	1364.7101	1379.5576	1388.4606	1400.2233	1423.4474	1473.0872	1481.2617	1488.0955	1489.5027	1499.0444	1506.8191	2949.414	2967.9937	3007.2373	3016.1627	3030.52	3041.0104	3048.2112	3049.3677	3055.4183	3060.1326	3065.4455	3069.4448	3093.3408	3113.1471
C1CC2COCCCC12	C1C[C@H]2COCCC[C@@H]12	
InChI=1S/C8H14O/c1-2-7-3-4-8(7)6-9-5-1/h7-8H,1-6H2	InChI=1S/C8H14O/c1-2-7-3-4-8(7)6-9-5-1/h7-8H,1-6H2/t7-,8-/m0/s1
