19
gdb 99312	5.54305	0.66187	0.61754	1.4509	74.51	-0.2525	0.0571	0.3096	1808.1165	0.159074	-456.353123	-456.343152	-456.342208	-456.390109	34.135	
C	 0.1946899661	 1.1651766009	 0.1846711012	-0.231772
O	-0.1474159389	-0.1023139988	-0.3797919528	-0.267011
C	-1.3627806224	-0.5776380714	-0.0052288325	 0.524939
O	-2.1221657412	-0.003159356	 0.7438526105	-0.415812
N	-1.5887835666	-1.7800228091	-0.6028520924	-0.365878
C	-2.7796712752	-2.5648636896	-0.3414659527	-0.187968
C	-2.4563589798	-3.9472534344	 0.1756256608	 0.02799
C	-3.3869462968	-5.0719754454	-0.0737176609	-0.242759
N	-2.0820893038	-5.0265344511	-0.7594928237	-0.320061
H	 1.1814728537	 1.4074822958	-0.211337256	 0.129024
H	-0.5296931785	 1.9303307405	-0.1062921679	 0.138433
H	 0.2267853452	 1.1108959026	 1.2759904244	 0.138274
H	-0.8471895118	-2.1661008098	-1.1640761797	 0.255322
H	-3.3600359061	-1.9997307238	 0.3929067112	 0.154671
H	-3.3935625975	-2.6517463286	-1.2509800929	 0.096134
H	-1.8692902468	-3.9553128282	 1.0917414779	 0.102974
H	-3.4929045274	-5.8636275771	 0.6617600586	 0.125382
H	-4.2854899727	-4.8701677395	-0.6519959444	 0.11355
H	-2.2219358193	-4.7150557768	-1.7192858789	 0.224565
26.7022	65.1006	75.842	92.98	150.8137	206.5764	259.0227	300.8409	370.8348	437.88	468.2763	560.2866	697.4623	780.3703	797.4868	826.7961	913.1804	930.2719	960.131	1023.4513	1044.5551	1072.2373	1126.9262	1159.006	1173.3481	1183.2803	1208.0091	1216.7853	1245.8903	1260.4949	1287.1308	1311.8424	1360.5071	1436.6024	1468.5734	1480.884	1487.2835	1501.3305	1512.8838	1551.1115	1815.4663	2988.907	3049.0779	3103.6144	3109.7008	3122.3574	3133.6322	3152.1892	3195.7108	3473.9049	3647.9902
COC(=O)NCC1CN1	COC(=O)NC[C@H]1CN1	
InChI=1S/C5H10N2O2/c1-9-5(8)7-3-4-2-6-4/h4,6H,2-3H2,1H3,(H,7,8)	InChI=1S/C5H10N2O2/c1-9-5(8)7-3-4-2-6-4/h4,6H,2-3H2,1H3,(H,7,8)/t4-/m1/s1
