19
gdb 56594	2.40745	1.19069	1.03161	4.9266	76.08	-0.2533	0.025	0.2783	1252.4959	0.158128	-419.178524	-419.168942	-419.167998	-419.213984	34.794	
C	-0.0935077002	 1.5875528008	-0.2606158719	-0.431363
C	 0.0181215738	 0.0788024245	-0.0283309233	 0.050496
C	 0.7597671519	-0.5949993276	-1.2146607308	-0.023883
O	 2.1451981969	-0.346551317	-1.1579676051	-0.415042
C	 0.4731671886	-2.0474128237	-1.2458074982	 0.272496
N	 0.2420041568	-3.1790494207	-1.2761502368	-0.324129
N	 0.7411848153	-0.3543781379	 1.1808367074	-0.104186
C	 1.3359784744	 0.6027593779	 2.1155952102	-0.225601
C	 0.123356437	-0.1730737833	 2.4854196549	-0.217442
H	 0.8908012866	 2.0303136117	-0.4357432105	 0.143582
H	-0.7161722991	 1.7821290277	-1.1391291718	 0.125741
H	-0.562624852	 2.09357199	 0.5883289065	 0.123316
H	-0.987665838	-0.3528806198	 0.0259911444	 0.106018
H	 0.405817592	-0.169203568	-2.1596240728	 0.129237
H	 2.4220731602	-0.6554346487	-0.2832542138	 0.300055
H	 2.3098760247	 0.3206669166	 2.5059686138	 0.123597
H	 1.2148741883	 1.6666752885	 1.9353010828	 0.122559
H	-0.8164488054	 0.3755719822	 2.5288045347	 0.115498
H	 0.1841357883	-1.0221448532	 3.1603261903	 0.129053
30.2333	58.9913	143.0542	184.2235	232.9085	277.8765	292.5161	330.8503	351.67	410.8557	515.9044	536.3853	591.5845	669.7777	732.9077	817.1568	854.2166	899.255	946.6913	975.2907	1012.6094	1032.5214	1069.3107	1116.7281	1129.3002	1131.3229	1148.6529	1178.5715	1180.0034	1267.7322	1301.4186	1326.7863	1359.494	1370.0128	1401.2561	1431.5893	1487.8342	1498.1196	1503.8081	1526.0432	2355.981	3041.782	3046.4766	3065.8931	3095.5185	3109.4069	3116.1584	3124.3757	3181.3996	3201.9983	3745.6309
CC(C(O)C#N)N1CC1	C[C@@H]([C@@H](O)C#N)N1CC1	
InChI=1S/C6H10N2O/c1-5(6(9)4-7)8-2-3-8/h5-6,9H,2-3H2,1H3	InChI=1S/C6H10N2O/c1-5(6(9)4-7)8-2-3-8/h5-6,9H,2-3H2,1H3/t5-,6-/m0/s1
