16
gdb 116822	15.37124	0.38972	0.38278	6.6776	109.6	-0.2635	-0.0703	0.1931	2713.9068	0.12323	-363.593477	-363.583753	-363.582809	-363.629201	33.319	
C	-0.0226085477	 1.576286141	 0.0168654477	-0.383093
C	-0.0053988786	 0.0469862624	 0.0147803571	-0.164217
C	 0.7059349787	-0.5204239568	-1.2347676528	-0.378916
C	 0.7395465037	-1.9711157491	-1.2673503538	 0.173316
C	 0.7577762385	-3.1841241286	-1.2772510808	-0.130333
C	 0.7789580011	-4.5341636495	-1.2898349569	-0.210701
C	 0.7981158801	-5.7503827132	-1.3013816633	 0.448045
C	 0.8194408012	-7.1088592815	-1.3141287608	 0.073743
N	 0.8376725947	-8.2725625747	-1.3251338078	-0.330023
H	 0.9931587289	 1.9862829096	 0.0093839716	 0.121968
H	-0.54749161	 1.9701340531	-0.8602422326	 0.121969
H	-0.5293667034	 1.9581122485	 0.9075615548	 0.124213
H	 0.5009493435	-0.3284166392	 0.9103665818	 0.120213
H	-1.0277039375	-0.3444412882	 0.0474324964	 0.120214
H	 0.2063040334	-0.1536290012	-2.1418529891	 0.146802
H	 1.7347453734	-0.1375940227	-1.2790239916	 0.146799
48.8234	56.3783	103.0003	129.2602	211.6758	244.1843	250.7825	307.5822	367.5692	435.9812	530.9808	533.9848	601.7737	625.1175	629.8685	742.9229	869.6576	879.7167	960.1151	1042.4117	1103.9796	1117.9182	1255.6316	1285.2573	1321.7478	1329.1414	1378.6841	1416.0425	1461.6606	1491.8098	1499.5011	1507.8704	2214.8147	2340.467	2357.1899	3012.2402	3034.4319	3042.2937	3048.1862	3081.0282	3106.7887	3113.3516
CCCC#CC#CC#N	CCCC#CC#CC#N	
InChI=1S/C8H7N/c1-2-3-4-5-6-7-8-9/h2-3H2,1H3	InChI=1S/C8H7N/c1-2-3-4-5-6-7-8-9/h2-3H2,1H3
