18
gdb 45207	3.10029	1.80203	1.42307	3.1969	75.59	-0.2515	0.0263	0.2778	941.3332	0.1511	-401.946896	-401.940329	-401.939385	-401.977842	27.137	
N	-0.0660746089	 1.2940243363	-0.3273536958	-0.545502
C	-0.0326277284	 0.0618255924	-0.0526134231	 0.403914
O	 1.1135198886	-0.6419710871	 0.2166811047	-0.24673
C	 0.822621702	-2.0164593589	 0.4888834447	 0.087172
C	 0.4538199705	-2.3274003767	 1.9677190064	-0.25125
C	-1.044871878	-2.4310524467	 1.5797030266	-0.034211
C	-1.7769136862	-1.0672891018	 1.4921857676	-0.238122
C	-1.2286312156	-0.8508740141	 0.0378018855	-0.110998
C	-0.6462989732	-2.2873012094	 0.0662655008	-0.064222
H	 0.875336449	 1.6904626727	-0.3087320912	 0.219935
H	 1.6243466574	-2.6124461595	 0.0519541058	 0.091665
H	 0.8657616775	-3.288808796	 2.2862119054	 0.107815
H	 0.7345912134	-1.5632626302	 2.6976431685	 0.10945
H	-1.6058474275	-3.2731240571	 1.983611999	 0.072593
H	-2.862777478	-1.184551728	 1.4837313916	 0.1115
H	-1.5140664228	-0.3070559853	 2.2328161702	 0.111515
H	-1.9781812623	-0.5910226606	-0.7065356478	 0.102895
H	-0.8692445475	-2.9967452801	-0.7280419888	 0.07258
98.4908	219.2829	318.1949	388.9798	424.7681	582.2337	634.0731	673.1513	701.2589	749.5278	803.4109	825.8757	860.965	894.0475	900.7541	933.3551	941.984	953.7097	979.6902	1003.94	1053.3407	1054.9587	1105.5669	1112.5755	1142.2551	1169.3041	1193.7664	1219.7216	1240.7052	1253.5339	1265.5356	1280.9061	1297.3531	1313.5627	1327.9277	1383.0472	1465.5535	1485.8059	1772.2904	3056.294	3060.1712	3102.2444	3107.1819	3113.3962	3118.9139	3130.8893	3141.5709	3469.0276
N=C1OC2CC3CC1C23	[NH][C]1O[C@H]2C[C@H]3C[C@@H]1[C@@H]23	
InChI=1S/C7H9NO/c8-7-4-1-3-2-5(9-7)6(3)4/h3-6,8H,1-2H2	InChI=1S/C7H9NO/c8-7-4-1-3-2-5(9-7)6(3)4/h3-6,8H,1-2H2/t3-,4-,5+,6+/m1/s1
