17
gdb 48137	3.07775	1.2066	0.98658	1.9546	69.04	-0.2408	-0.097	0.1438	1201.2784	0.135085	-458.981263	-458.972586	-458.971641	-459.01616	30.298	
O	-0.8105751961	 1.3396137011	 0.1640696334	-0.219203
C	 0.3299240755	 0.9642805115	 0.2496885939	 0.084483
C	 1.5380116104	 1.9045760716	 0.1334780747	 0.266164
O	 2.6432698487	 1.4486929483	 0.2979688916	-0.274044
C	 1.2322922572	 3.3693503585	-0.1500008469	 0.029213
C	 0.7424114022	 4.0837599641	 1.1517206286	-0.263638
C	 1.6600327651	 5.3192467024	 1.2226009652	-0.211407
C	 2.9003328533	 4.8406028359	 0.4652602711	-0.08153
O	 2.3827680424	 4.0523009596	-0.6033386525	-0.243095
H	 0.6172391301	-0.0932473782	 0.4308971762	 0.112055
H	 0.4686493974	 3.4158290254	-0.9340365139	 0.111505
H	-0.3189849238	 4.3270025237	 1.0988742716	 0.130637
H	 0.890646551	 3.4454609613	 2.028502779	 0.11355
H	 1.2057511755	 6.1641771619	 0.6965198504	 0.115496
H	 1.8741607996	 5.6278610842	 2.2485235984	 0.109232
H	 3.4930024386	 5.6461880093	 0.0249069458	 0.113359
H	 3.553976343	 4.2349343295	 1.1097055934	 0.107222
42.2268	54.4081	124.3331	152.5565	222.3354	241.4358	317.6862	502.9907	537.3206	596.7762	632.2777	722.5964	782.2296	866.2795	905.424	927.2643	945.8162	971.5717	999.4291	1032.5257	1103.4245	1125.9709	1177.0749	1205.7676	1213.7548	1249.0758	1287.8479	1323.1688	1330.5423	1359.0636	1369.8572	1393.1141	1485.8263	1498.9333	1524.5192	1812.6265	1817.7577	2921.4771	3003.3056	3051.9925	3056.6776	3060.4638	3099.9842	3114.1567	3131.5256
O=CC(=O)C1CCCO1	O=CC(=O)[C@H]1CCCO1	
InChI=1S/C6H8O3/c7-4-5(8)6-2-1-3-9-6/h4,6H,1-3H2	InChI=1S/C6H8O3/c7-4-5(8)6-2-1-3-9-6/h4,6H,1-3H2/t6-/m1/s1
