17
gdb 27554	4.97913	0.99158	0.86103	1.3891	76.27	-0.1718	0.0662	0.238	1308.6856	0.136553	-418.000352	-417.99194	-417.990996	-418.033564	31.779	
O	 0.2837685501	 1.3483401681	 0.0987357646	-0.437602
C	 0.1297455709	 0.0033241843	-0.0073460119	 0.411713
C	 0.2745208557	-0.8792526843	-1.0507100958	-0.408206
C	-0.0189799042	-2.1785046243	-0.518716122	 0.297411
C	-0.3227093589	-2.0355480392	 0.8137893077	-0.188215
N	-0.2344013943	-0.6789456302	 1.1106652802	-0.301661
N	-0.0664128813	-3.3610737694	-1.2837770202	-0.14747
C	 1.1898060431	-3.9359185459	-1.7638214643	-0.223728
C	 0.4082606028	-4.5982643613	-0.6816582188	-0.224247
H	 0.5069957153	 1.694215459	-0.7703142843	 0.306846
H	 0.5464442131	-0.6444128226	-2.0677240947	 0.086214
H	-0.6293332341	-2.752335648	 1.5555406515	 0.11059
H	-0.3935321522	-0.2524645185	 2.0057583675	 0.263481
H	 1.1692056883	-4.3257025337	-2.7774687586	 0.113405
H	 2.1135942018	-3.439821385	-1.4746594246	 0.115734
H	 0.8199062294	-4.5433896891	 0.3241719266	 0.11183
H	-0.1854553554	-5.48348606	-0.8908252929	 0.113904
58.2374	141.8019	186.024	215.8194	254.9815	328.9879	376.8652	435.8816	504.3967	549.1337	605.8463	664.3747	679.2392	712.1413	742.2026	823.6029	890.9406	911.6908	988.7336	1015.0738	1035.5029	1107.8357	1112.0715	1127.4626	1153.1641	1168.7448	1176.5932	1187.7106	1257.8154	1305.4139	1360.8557	1426.3816	1488.3132	1514.4667	1549.6513	1583.8287	1636.5377	3099.5464	3104.1046	3182.1707	3196.7611	3250.3962	3281.9547	3695.0607	3851.6337
OC1=CC(=CN1)N1CC1	Oc1cc(c[nH]1)N1CC1	
InChI=1S/C6H8N2O/c9-6-3-5(4-7-6)8-1-2-8/h3-4,7,9H,1-2H2	InChI=1S/C6H8N2O/c9-6-3-5(4-7-6)8-1-2-8/h3-4,7,9H,1-2H2
