27
gdb 122008	4.96784	0.49451	0.46785	0.9742	94.73	-0.2502	0.0866	0.3368	2479.393	0.249641	-390.696382	-390.684206	-390.683261	-390.734817	42.833	
C	-0.0224648566	 1.5534423335	-0.1292507105	-0.380013
C	 0.0404446552	 0.0259684322	-0.0465301355	-0.161886
C	 0.6875290116	-0.4825078117	 1.2468887869	-0.170745
C	 0.7460290761	-2.0123327052	 1.3287575185	-0.184696
C	 1.4718478168	-2.5668169312	 2.5674556826	 0.005313
C	 0.7693811928	-2.213860048	 3.8854193776	-0.389973
C	 1.638534765	-4.0814425977	 2.4338661215	-0.053549
O	 2.4311340935	-4.5615557917	 3.4996641322	-0.233833
C	 2.6091260973	-5.9553530447	 3.4674643344	-0.226452
H	 0.9795749948	 1.9942142702	-0.080257263	 0.112956
H	-0.4864264969	 1.8855011764	-1.0633881115	 0.109845
H	-0.606095801	 1.9712545286	 0.6987831593	 0.11296
H	-0.9735471543	-0.3874981137	-0.1301164367	 0.093248
H	 0.5974836058	-0.3654538497	-0.9082603836	 0.092764
H	 1.705633123	-0.0758668289	 1.326605523	 0.091006
H	 0.1325575515	-0.080371196	 2.1037571712	 0.097031
H	-0.276835118	-2.4154733912	 1.2990200173	 0.089667
H	 1.2461345556	-2.3908725913	 0.4262512544	 0.087693
H	 2.4852265654	-2.1416490564	 2.5914381611	 0.078828
H	 1.2761791855	-2.6960589523	 4.7242268304	 0.130773
H	 0.7616458733	-1.1354128488	 4.0655747204	 0.111145
H	-0.2721994024	-2.5592722676	 3.8753035237	 0.103933
H	 0.6493482789	-4.5751515752	 2.4417011944	 0.078225
H	 2.1141012549	-4.3287773599	 1.4688615753	 0.078757
H	 3.1123420285	-6.2833047461	 2.5433702374	 0.100952
H	 3.2325343852	-6.2278750855	 4.322884596	 0.124563
H	 1.6502329484	-6.4935590381	 3.5410712733	 0.10149
50.1004	71.8105	82.1956	100.6307	121.2494	143.4725	198.0494	228.9863	244.5872	252.5882	283.1731	303.688	359.6936	411.8433	485.7527	540.235	737.0051	789.4408	855.1226	903.193	916.9376	930.914	954.2145	991.2006	1026.9949	1042.4262	1070.3491	1087.9192	1146.1393	1161.4416	1173.4152	1187.409	1200.694	1225.7173	1246.6239	1271.5332	1282.6156	1317.5065	1328.9006	1335.3679	1378.5362	1382.0842	1400.7024	1405.4755	1414.94	1425.0427	1479.1705	1482.9588	1485.458	1486.7034	1495.6502	1499.7848	1500.5303	1503.6692	1508.6745	1513.48	1527.2796	2934.4637	2964.346	2967.2532	2996.8752	3006.6912	3007.0464	3009.9462	3016.7483	3028.1668	3029.1803	3030.7887	3038.3537	3064.1251	3095.2273	3100.0731	3100.6786	3109.6974	3128.8917
CCCCC(C)COC	CCCC[C@@H](C)COC	
InChI=1S/C8H18O/c1-4-5-6-8(2)7-9-3/h8H,4-7H2,1-3H3	InChI=1S/C8H18O/c1-4-5-6-8(2)7-9-3/h8H,4-7H2,1-3H3/t8-/m1/s1
