17
gdb 10872	3.1657	1.96474	1.55896	2.0056	69.64	-0.2409	0.0065	0.2473	880.9878	0.1416	-363.819442	-363.811631	-363.810687	-363.851199	29.32	
C	-0.0902597423	 1.5592339932	 0.0023005516	-0.436716
C	-0.0141776871	 0.0404123713	-0.0041990679	 0.018019
C	 1.234084803	-0.6465615368	-0.6381744308	-0.165955
N	 2.0178744073	-0.1609376378	 0.5797100812	-0.34336
C	 0.7043377645	-0.6800395335	 1.1920294675	 0.180365
C	 0.4083223167	-0.6212751376	 2.6580781751	-0.523536
C	 0.9043126169	-1.8766384448	 0.2314508034	 0.408827
O	 0.9751804233	-3.0680044062	 0.2359812992	-0.334003
H	 0.8685138973	 2.0034515135	 0.2726181268	 0.144881
H	-0.3815988995	 1.9306379257	-0.9856330169	 0.11881
H	-0.8475236929	 1.9005448	 0.7164550552	 0.117263
H	-0.9678657055	-0.4141891022	-0.2877228004	 0.08308
H	 1.6290879403	-0.5559268771	-1.6480439747	 0.097435
H	 2.7960093957	-0.792776719	 0.7911048756	 0.227447
H	 0.4384476518	 0.40947366	 3.0244014884	 0.136495
H	-0.5870503279	-1.0301474669	 2.8579024082	 0.136563
H	 1.1329513786	-1.2114330118	 3.2281927283	 0.134385
150.2341	166.6834	186.1889	214.2155	235.1644	318.4938	344.8942	525.8756	546.346	649.5884	721.4333	760.1559	766.3561	809.038	823.9268	893.1552	1004.0421	1023.5109	1047.659	1066.9768	1104.8382	1127.2388	1164.3876	1186.606	1206.5618	1246.8605	1270.107	1344.865	1397.7598	1406.5815	1420.9576	1480.7916	1486.6507	1496.6146	1505.1398	1897.1929	3037.8906	3039.219	3070.8222	3095.0717	3108.2019	3112.3083	3145.7095	3145.7968	3403.1558
CC1C2NC1(C)C2=O	C[C@H]1[C@H]2N[C@]1(C)C2=O	
InChI=1S/C6H9NO/c1-3-4-5(8)6(3,2)7-4/h3-4,7H,1-2H3	InChI=1S/C6H9NO/c1-3-4-5(8)6(3,2)7-4/h3-4,7H,1-2H3/t3-,4+,6-/m0/s1
