19
gdb 115871	2.51877	1.45771	1.08738	3.0273	70.96	-0.2498	0.0834	0.3332	1151.5658	0.15858	-460.147732	-460.138999	-460.138055	-460.181105	32.79	
C	 0.025814323	 1.5253143105	 0.1404082694	-0.496168
C	 0.1155010097	 0.032351028	-0.0006763958	 0.375823
O	-0.7831503094	-0.7639289063	 0.7958400939	-0.291492
C	 0.6263683524	-0.9018274601	 1.0083339965	-0.041573
C	 1.2163430205	-2.0857492854	 0.2793603555	-0.109206
O	 0.7528923635	-1.9721489122	-1.0617951175	-0.29165
C	 0.3809966712	-0.6181205369	-1.3517930124	 0.050234
C	-0.8135297217	-0.6848896591	-2.2982369635	-0.070892
O	-0.5069457871	-1.4306338948	-3.4594942527	-0.426223
H	 0.9313513492	 2.0066762338	-0.242963402	 0.129581
H	-0.8275593836	 1.9202690471	-0.4209641582	 0.13743
H	-0.1028761646	 1.8023045551	 1.1892513323	 0.136099
H	 1.0044844088	-0.5932243258	 1.9797191296	 0.101407
H	 2.3163071858	-2.0462435151	 0.3334396066	 0.098503
H	 0.8817468218	-3.0517734978	 0.6716808438	 0.121208
H	 1.2166440939	-0.0970433657	-1.8474017174	 0.07485
H	-1.6655623276	-1.1106044268	-1.7489370664	 0.105924
H	-1.0852550841	 0.3228717955	-2.6310585745	 0.103066
H	-0.1645026417	-2.2760703141	-3.1462294874	 0.29308
94.3039	132.3645	169.9571	183.7552	233.3306	282.7419	317.2852	433.5895	443.9611	475.2358	526.0064	586.0273	707.1907	794.096	831.8473	880.0398	922.467	949.5693	977.6837	1023.6698	1050.3012	1075.315	1080.8322	1117.0061	1119.7742	1123.9797	1225.5677	1228.7622	1248.2617	1290.5678	1327.2936	1344.4757	1375.1853	1399.3669	1414.0272	1437.8772	1464.0302	1487.9954	1498.6983	1501.5407	1507.3215	2972.009	2981.228	3007.205	3039.8324	3071.7414	3074.4964	3102.2591	3127.8942	3150.5475	3797.9869
CC12OC1COC2CO	C[C@]12O[C@H]1CO[C@H]2CO	
InChI=1S/C6H10O3/c1-6-4(2-7)8-3-5(6)9-6/h4-5,7H,2-3H2,1H3	InChI=1S/C6H10O3/c1-6-4(2-7)8-3-5(6)9-6/h4-5,7H,2-3H2,1H3/t4-,5-,6+/m0/s1
