20
gdb 90834	3.07048	1.84848	1.42095	1.6209	82.05	-0.2141	0.0806	0.2947	973.5934	0.173056	-365.908699	-365.901773	-365.900829	-365.939592	29.156	
C	-0.2271883079	 1.507774967	-0.0729297666	-0.404827
C	 0.0509951802	 0.0116327386	 0.0648089334	-0.138841
C	 1.1059823232	-0.5577364107	-0.9953202704	-0.177177
N	 2.2342470451	-1.1586743951	-0.2068688289	-0.167338
C	 1.5070058089	-1.7948138103	 0.9541587906	-0.016236
C	 2.3850534348	-1.2296812169	 2.0974149587	-0.100228
C	 1.1475386986	-0.5606372974	 2.7870435181	-0.366889
C	 0.8644988706	-0.415369014	 1.2681554004	 0.332388
C	 2.3728194728	-0.1942132266	 0.945579371	-0.011523
H	 0.6974297159	 2.0906374386	 0.003869396	 0.112832
H	-0.6831476277	 1.7358244947	-1.0422519085	 0.115294
H	-0.9109629465	 1.8605660904	 0.7062896818	 0.116125
H	-0.8907432505	-0.5440966931	-0.006646613	 0.071491
H	 0.6661698833	-1.3248208407	-1.6391150745	 0.103461
H	 1.4956311594	 0.2415655874	-1.6339204518	 0.103096
H	 1.0025569669	-2.7611205237	 0.8857529536	 0.072872
H	 3.2514233612	-1.6942221407	 2.5674662641	 0.080164
H	 0.4864834868	-1.2231516492	 3.353778937	 0.100332
H	 1.3381961196	 0.3593294499	 3.3474423691	 0.100898
H	 2.9101056554	 0.7532451618	 0.87056337	 0.074106
161.8504	223.5308	229.7497	349.5262	411.8639	452.8119	483.9065	666.7905	690.117	770.5632	790.8259	825.8545	852.7888	856.4334	885.3531	895.5372	914.645	942.1659	981.6567	988.5667	1007.173	1047.1277	1065.3768	1078.565	1100.8375	1132.0418	1144.6954	1146.3437	1166.7226	1184.862	1199.3071	1225.4651	1241.0353	1263.6141	1285.8694	1318.085	1327.6438	1379.8516	1412.1	1490.949	1496.6747	1501.7605	1509.4409	3027.7829	3037.1213	3045.1754	3050.6514	3088.5418	3093.103	3095.6778	3096.7784	3102.6793	3104.306	3121.0084
CC1CN2C3C4CC13C24	C[C@H]1CN2[C@H]3[C@@H]4C[C@]13[C@H]24	
InChI=1S/C8H11N/c1-4-3-9-6-5-2-8(4,6)7(5)9/h4-7H,2-3H2,1H3	InChI=1S/C8H11N/c1-4-3-9-6-5-2-8(4,6)7(5)9/h4-7H,2-3H2,1H3/t4-,5-,6-,7+,8-/m0/s1
