16
gdb 39565	2.83509	2.23191	1.73439	1.8872	70.96	-0.2305	0.0026	0.2331	819.4997	0.128202	-400.744805	-400.738852	-400.737908	-400.774843	25.045	
O	 0.0112284971	 1.4059426612	-0.1028940075	-0.225659
C	 1.2053801741	 2.0460398125	 0.0537843575	 0.128772
N	 2.2027139009	 1.684836297	 0.7394894528	-0.26128
C	 2.0158474996	 0.4351139821	 1.511610738	-0.054773
C	 1.1471189114	 0.7381092255	 2.7270814535	-0.076339
C	-0.0478903877	 0.1562981497	 2.6387381969	-0.069914
C	-0.1663401336	-0.6772978799	 1.4076389505	-0.13042
C	 0.0303022417	 0.002998518	 0.0618908621	 0.099797
C	 1.2021069378	-0.6182986651	 0.7405807493	-0.13507
H	 1.2084583424	 2.9802375644	-0.5033965388	 0.126344
H	 3.0101649145	 0.0690802939	 1.7789000494	 0.087483
H	 1.462542642	 1.4470978687	 3.4824382407	 0.107127
H	-0.8655462163	 0.2802773768	 3.3388270681	 0.104063
H	-0.768700814	-1.5787045976	 1.405227765	 0.092356
H	-0.4056043766	-0.4825667146	-0.805315028	 0.109794
H	 1.7035849567	-1.4762416027	 0.3118845005	 0.097718
185.01	251.8156	402.5894	504.9961	512.6984	613.4228	627.9667	698.9842	743.7582	784.8332	794.7317	812.285	865.1112	926.9637	943.355	949.9153	969.6831	991.6143	1004.304	1025.762	1050.0265	1068.6718	1106.1723	1124.4822	1135.3821	1202.6005	1284.886	1289.3982	1313.0975	1346.9322	1369.8927	1390.7236	1413.1355	1672.6716	1711.7454	3070.3524	3157.4333	3167.7534	3174.9802	3193.7113	3197.1884	3223.1913
O1C=NC2C=CC3C1C23	O1C=N[C@H]2C=C[C@H]3[C@@H]1[C@@H]23	
InChI=1S/C7H7NO/c1-2-5-6-4(1)7(6)9-3-8-5/h1-7H	InChI=1S/C7H7NO/c1-2-5-6-4(1)7(6)9-3-8-5/h1-7H/t4-,5+,6-,7-/m1/s1
