21
gdb 119608	4.04751	0.92838	0.85301	1.0669	78.31	-0.2263	0.0875	0.3139	1445.1206	0.182059	-424.209513	-424.200502	-424.199558	-424.243644	33.77	
C	 0.0446546685	 1.5813485766	-0.1810999144	-0.3845
C	-0.0205586931	 0.0536746902	-0.119474241	-0.156959
C	-1.4437426974	-0.4715085321	 0.1178111165	-0.272311
C	-1.5172996545	-1.9702924792	 0.2004984821	 0.422627
C	-1.5869114621	-2.884852449	-1.0155086009	-0.395846
C	-2.7132960881	-2.8417228217	 0.0037785492	 0.015023
O	-2.7115647837	-3.7967780996	 1.0361245683	-0.257838
C	-1.4137122361	-3.7633051782	 1.6025509798	 0.009229
O	-0.8543622167	-2.4921370998	 1.3385853654	-0.297322
H	 1.0684545935	 1.9293871475	-0.3492725665	 0.112475
H	-0.5778956147	 1.974518846	-0.9930592743	 0.111006
H	-0.3101847708	 2.0311378607	 0.7529621901	 0.11537
H	 0.3678099871	-0.3736836604	-1.0525096757	 0.096289
H	 0.6289729522	-0.3163691168	 0.6814659923	 0.116275
H	-1.8432308572	-0.0510168358	 1.0496308562	 0.105984
H	-2.1034399832	-0.1346005245	-0.6915500119	 0.095667
H	-1.7821569209	-2.4082330995	-1.9708697436	 0.117064
H	-0.9517484948	-3.7617598761	-1.0730799639	 0.123175
H	-3.7102320418	-2.4992463432	-0.2439081311	 0.111672
H	-1.4858072018	-3.9129866762	 2.6848517292	 0.120124
H	-0.7870114044	-4.555177159	 1.1598423544	 0.092799
75.7056	92.501	114.8269	213.0579	243.9804	262.3099	311.3712	341.7605	411.4175	465.3708	692.383	732.3178	739.2865	752.8129	845.1615	857.4287	892.9281	901.5546	950.8224	973.0803	993.9567	1016.5295	1049.4752	1053.9565	1073.0488	1113.3976	1135.5909	1152.714	1165.1969	1218.8432	1230.8042	1268.6728	1283.4985	1319.2064	1335.0174	1383.3324	1411.5035	1415.5404	1436.5113	1472.6395	1477.9478	1493.8546	1500.2398	1510.4739	1551.9413	2958.4217	3019.3654	3027.5217	3031.9553	3054.2676	3068.9478	3073.6372	3097.5069	3102.4691	3132.0142	3192.9816	3221.4034
CCCC12CC1OCO2	CCC[C@]12C[C@H]1OCO2	
InChI=1S/C7H12O2/c1-2-3-7-4-6(7)8-5-9-7/h6H,2-5H2,1H3	InChI=1S/C7H12O2/c1-2-3-7-4-6(7)8-5-9-7/h6H,2-5H2,1H3/t6-,7+/m1/s1
