20
gdb 103153	1.97918	1.53687	1.1649	2.6592	75.62	-0.2398	0.0252	0.265	1181.5309	0.168892	-440.314735	-440.304628	-440.303684	-440.349424	37.006	
C	 0.0174016041	 1.6638421442	 0.0239435575	-0.410252
C	 0.0601040674	 0.1309986314	-0.0000533711	-0.226284
C	-1.3340437192	-0.4907743258	-0.0061128451	 0.232085
O	-2.1033155887	-0.0672309739	-1.118125441	-0.485474
C	-1.4512744151	-2.046464305	 0.1892404449	 0.037383
C	-0.2104070335	-2.9204221515	 0.2518849782	-0.411724
N	-2.0894681809	-1.7522878478	 1.4894167413	-0.355506
C	-2.1355582489	-0.39510557	 1.3237579533	 0.400705
O	-2.6526118537	 0.5041315986	 1.9385809922	-0.38307
H	 1.0279490975	 2.0792233282	 0.069213182	 0.114572
H	-0.4597237519	 2.0536564648	-0.8803196661	 0.118025
H	-0.5423706574	 2.0268359899	 0.8911308076	 0.145704
H	 0.5978817806	-0.215551659	-0.8914429904	 0.103392
H	 0.6136432333	-0.2355721994	 0.8717606801	 0.103148
H	-2.5100272552	 0.7742011072	-0.8807182196	 0.296266
H	-2.1660764234	-2.4401004247	-0.5411699753	 0.098799
H	 0.508767554	-2.5515792414	 0.9876567843	 0.124955
H	-0.478743461	-3.9457233019	 0.5280826436	 0.119179
H	 0.2785141333	-2.9604844656	-0.7266490544	 0.130543
H	-2.6105840513	-2.3474370182	 2.1183844981	 0.247554
88.1017	108.6349	131.3908	184.5479	221.9866	224.5446	238.9288	284.3731	307.3089	339.616	430.4595	445.1855	519.1504	571.1237	708.7961	730.12	754.8822	798.0587	872.811	895.1221	967.1083	1033.5388	1037.9524	1073.0253	1096.6844	1137.8283	1170.8398	1206.6835	1220.4114	1271.2566	1314.0004	1336.6625	1374.8265	1386.2781	1391.9397	1408.3846	1413.7395	1473.9292	1490.9213	1498.3046	1499.937	1516.4817	1878.0053	3026.8986	3038.8486	3042.8089	3052.346	3069.4065	3102.6874	3112.7381	3119.8293	3124.4599	3591.1417	3799.8881
CCC1(O)C(C)NC1=O	CC[C@@]1(O)[C@@H](C)NC1=O	
InChI=1S/C6H11NO2/c1-3-6(9)4(2)7-5(6)8/h4,9H,3H2,1-2H3,(H,7,8)	InChI=1S/C6H11NO2/c1-3-6(9)4(2)7-5(6)8/h4,9H,3H2,1-2H3,(H,7,8)/t4-,6-/m1/s1
