19
gdb 42468	4.61458	0.66349	0.60733	2.7295	83.53	-0.2613	-0.0548	0.2065	1814.8547	0.156469	-385.858302	-385.848503	-385.847559	-385.894508	35.028	
O	-0.1244049787	-0.0977106114	-0.2543222246	-0.288962
C	-0.0278600497	 1.0956970485	-0.0657042267	 0.226014
C	 1.2987017853	 1.8314621602	-0.0158478454	-0.298512
C	 2.5094203336	 0.9302794922	-0.2688787669	-0.209971
C	 3.8185864293	 1.6851249666	-0.1848058629	 0.022775
C	 4.4893135408	 1.9042427389	 1.1500011125	-0.257511
C	 5.0978129149	 0.959997695	 0.1411624443	-0.276473
C	-1.2063152713	 1.9279424191	 0.1342946929	 0.246575
C	-2.1678704221	 2.6329051351	 0.300359195	-0.390766
H	 1.2518524486	 2.6544131852	-0.7427900854	 0.129327
H	 1.3703796122	 2.325297963	 0.9632902719	 0.135551
H	 2.5049601473	 0.1107431394	 0.4585768586	 0.110803
H	 2.4054680163	 0.4557343119	-1.2515175844	 0.11349
H	 3.9104666748	 2.5039140884	-0.8953513002	 0.079486
H	 4.9850387072	 2.8506111995	 1.3359650094	 0.110446
H	 4.0221197348	 1.4693033194	 2.0281681781	 0.109655
H	 5.0370718923	-0.1042969188	 0.3440879124	 0.113662
H	 6.0078163667	 1.2628873731	-0.3647957047	 0.111255
H	-3.0288232624	 3.2395049246	 0.4448642761	 0.213156
35.6943	59.6395	91.7642	120.3874	178.9812	242.1987	251.4336	346.8022	396.9104	493.4652	568.2606	608.0188	643.1086	702.2516	765.5397	771.5759	812.5955	825.9423	859.8152	926.1471	954.8794	1026.7266	1045.8603	1058.6605	1079.1589	1103.4204	1132.2755	1143.058	1198.5307	1224.1279	1232.5778	1292.937	1313.9845	1379.5725	1418.8709	1446.1224	1468.9988	1485.7353	1508.1232	1768.6752	2210.4643	3017.7986	3039.9028	3044.3842	3077.9484	3126.6537	3127.4986	3133.867	3205.5541	3221.084	3494.0657
O=C(CCC1CC1)C#C	O=C(CCC1CC1)C#C	
InChI=1S/C8H10O/c1-2-8(9)6-5-7-3-4-7/h1,7H,3-6H2	InChI=1S/C8H10O/c1-2-8(9)6-5-7-3-4-7/h1,7H,3-6H2
