15
gdb 34772	2.18137	1.92764	1.26809	3.1912	74.77	-0.2569	-0.0006	0.2563	990.7023	0.112192	-379.591779	-379.583893	-379.582949	-379.62421	29.667	
C	-0.3491809553	-1.2152240911	-0.4658001105	-0.435087
C	-0.1882819588	-0.0497542312	-0.221449886	 0.358532
C	-0.0334457589	 1.3636975738	 0.0434285487	-0.151997
C	-0.2307966709	 1.9467551404	 1.4803083306	-0.289926
C	 1.1567004783	 2.5572713723	 1.3135581618	-0.026089
C	 2.1881270337	 1.5140854387	 1.0921093482	-0.149002
C	 2.1278340231	 0.2186837694	 1.7228757008	 0.306231
N	 2.1344060814	-0.7950682164	 2.2794392776	-0.339852
N	 1.365570323	 1.9623679912	-0.0626406543	-0.149915
H	-0.4692616026	-2.2529413423	-0.6587388258	 0.21048
H	-0.6342035356	 1.9316664903	-0.672256402	 0.130726
H	-1.0376452532	 2.6775725201	 1.5314654777	 0.126903
H	-0.3379330343	 1.2259122553	 2.2928441776	 0.144576
H	 1.4375036802	 3.5795386621	 1.5432383486	 0.116823
H	 3.2071993198	 1.8726405773	 0.975656277	 0.147598
107.3925	118.6875	166.2411	211.4587	310.5879	377.0836	488.29	498.8847	568.4786	599.858	632.526	677.3083	747.7994	757.7932	777.4273	846.8893	918.9083	948.3042	999.9392	1036.8745	1061.7339	1080.6678	1104.3857	1154.9503	1225.7462	1254.1178	1266.1699	1334.9958	1361.3966	1398.1572	1490.9517	2238.3404	2352.6911	3067.8146	3086.0031	3146.312	3154.5899	3175.1278	3501.8769
C#CC1CC2C(C#N)N12	C#C[C@H]1C[C@H]2[C@@H](C#N)N12	
InChI=1S/C7H6N2/c1-2-5-3-6-7(4-8)9(5)6/h1,5-7H,3H2	InChI=1S/C7H6N2/c1-2-5-3-6-7(4-8)9(5)6/h1,5-7H,3H2/t5-,6-,7+,9?/m0/s1
