20
gdb 26202	3.74661	1.02751	0.86402	1.428	84.85	-0.1586	0.0589	0.2175	1385.8418	0.171475	-399.34228	-399.332505	-399.33156	-399.376864	36.414	
C	 1.2855310879	 0.5316820431	 0.3421914541	-0.322055
N	-0.0489773271	 0.2714422165	-0.1704667819	-0.158512
C	-1.0243407516	 0.0657279333	 0.8995989104	-0.33065
C	-0.0946175783	-0.6733432801	-1.2080249247	 0.377553
C	 0.829020424	-1.5934943758	-1.6601086802	-0.312335
C	 0.2610714929	-2.2408548375	-2.8037754349	 0.26211
N	 0.8567842128	-3.3156608918	-3.4963558969	-0.606963
C	-0.9843996068	-1.7007055089	-3.0102889276	-0.177626
N	-1.202746551	-0.7578510756	-2.0096234987	-0.319888
H	 1.7051066802	-0.317736206	 0.9103006575	 0.102523
H	 1.9595120448	 0.7565186622	-0.4875933128	 0.130235
H	 1.2512293901	 1.3974497104	 1.0111578881	 0.11547
H	-1.0793043596	 0.966004131	 1.5202319785	 0.1164
H	-2.0135614772	-0.120223576	 0.4768559736	 0.119873
H	-0.7662753378	-0.7891982293	 1.5487716433	 0.106509
H	 1.7808009585	-1.8207571199	-1.2061743114	 0.080293
H	 1.8555359519	-3.1849989861	-3.603631225	 0.235498
H	 0.4527631915	-3.4463202496	-4.4157068003	 0.233315
H	-1.7447660324	-1.9277073837	-3.7392693873	 0.09722
H	-1.9184520829	-0.0532342463	-2.0350715437	 0.25103
44.34	132.902	169.6716	195.1752	211.0797	258.4499	279.2591	324.7626	353.3375	375.4648	458.1619	497.5841	571.3636	604.8029	649.8237	700.125	709.1572	755.9269	802.4052	933.5223	992.1715	1017.6551	1071.8362	1102.5491	1118.2939	1122.1378	1167.3331	1181.133	1221.7879	1281.8875	1299.0928	1352.0958	1440.9686	1449.5928	1464.0164	1476.8989	1486.2335	1493.9866	1502.3575	1511.7163	1577.8301	1639.8608	1659.3626	2946.5691	2955.9001	3064.8803	3068.6959	3121.052	3125.3291	3250.8117	3264.2125	3521.0394	3608.8142	3683.2553
CN(C)C1=CC(N)=CN1	CN(C)c1cc(N)c[nH]1	
InChI=1S/C6H11N3/c1-9(2)6-3-5(7)4-8-6/h3-4,8H,7H2,1-2H3	InChI=1S/C6H11N3/c1-9(2)6-3-5(7)4-8-6/h3-4,8H,7H2,1-2H3
