21
gdb 55756	3.31827	1.07041	0.93386	2.6007	83.25	-0.231	-0.0087	0.2224	1332.3435	0.181298	-387.086014	-387.076708	-387.075764	-387.121352	34.447	
C	 0.1451928869	 0.7186771497	-1.008493103	-0.478272
C	 0.0965613741	 0.0533132679	 0.3543124412	 0.390817
O	 1.0187150272	 0.113228078	 1.1346883704	-0.304066
C	-1.1676240409	-0.7416538854	 0.6882544359	-0.407634
C	-1.0233573754	-2.1687016837	 0.2108000677	 0.381918
C	-1.4376110077	-2.638178298	-1.1594728839	-0.315702
C	-2.0756783096	-3.2722102236	 0.0483577669	-0.115933
C	-1.1229970784	-4.3025625344	 0.6637104689	-0.22115
C	-0.0409667245	-3.1835077663	 0.8197387377	-0.278153
H	 1.1357890966	 1.1387776463	-1.1867577096	 0.13993
H	-0.1078163068	 0.0006745928	-1.7958593112	 0.144221
H	-0.6039048339	 1.5182995987	-1.0554619941	 0.13815
H	-1.2915845741	-0.7200235489	 1.7760202328	 0.117583
H	-2.0477822017	-0.2821726135	 0.2240594995	 0.098694
H	-2.0776846914	-1.9569863468	-1.7127445725	 0.106017
H	-0.7526850165	-3.2095097849	-1.7836246905	 0.104292
H	-3.1458886786	-3.2194408581	 0.2126691336	 0.084797
H	-1.4646759208	-4.6834771805	 1.6285243415	 0.104999
H	-0.8657870409	-5.1544094285	 0.0253415649	 0.096427
H	 0.9015091117	-3.3216794745	 0.2806391675	 0.098146
H	 0.1904502447	-2.9676473163	 1.8649306263	 0.114922
30.3351	62.649	114.5633	148.335	208.6696	292.1261	334.7944	396.6592	427.5057	507.9885	547.7917	678.0616	724.3571	783.1194	786.1825	847.8763	878.1737	892.5064	931.5796	949.7965	969.6905	979.8408	1023.6419	1036.0577	1049.6789	1085.3419	1102.363	1139.6105	1160.7588	1218.816	1223.0435	1242.5909	1266.2336	1269.4994	1304.2054	1321.8193	1378.5508	1389.9842	1461.1258	1470.3723	1476.1265	1482.4834	1486.1036	1511.901	1810.6201	3031.3131	3035.8926	3044.2996	3054.6529	3087.5754	3096.2948	3096.7469	3098.7515	3117.6993	3151.654	3173.3916	3188.9358
CC(=O)CC12CC1CC2	CC(=O)C[C@]12C[C@H]1CC2	
InChI=1S/C8H12O/c1-6(9)4-8-3-2-7(8)5-8/h7H,2-5H2,1H3	InChI=1S/C8H12O/c1-6(9)4-8-3-2-7(8)5-8/h7H,2-5H2,1H3/t7-,8-/m1/s1
