18
gdb 96710	3.00079	0.99076	0.7829	2.8863	82.87	-0.2403	-0.0378	0.2025	1459.7844	0.146708	-398.123206	-398.113535	-398.11259	-398.15843	34.223	
C	 0.2995788633	 1.3215885901	-0.2577239967	-0.341604
N	 0.1081588223	-0.1013920474	-0.0879921937	-0.284192
C	 0.483243752	-0.6922947476	 0.9744388657	 0.311775
N	 0.3820497809	-2.0560179794	 1.1450755932	-0.349432
C	-0.3301523427	-2.8560933915	 0.1933437087	 0.063812
C	 0.4211906349	-3.4245420559	-0.9806225987	-0.239808
C	-0.0092912061	-4.3238487373	 0.1522708496	-0.300168
C	 1.0862613262	-0.0215751998	 2.1244674641	 0.223267
N	 1.5491687105	 0.5268495551	 3.031210888	-0.332226
H	 0.7534229811	 1.8315693693	 0.6034907416	 0.128321
H	 0.9313173705	 1.4982911852	-1.1363071168	 0.133525
H	-0.668805135	 1.7899789275	-0.4680860049	 0.133159
H	 0.3983640752	-2.3820734128	 2.0996016676	 0.25838
H	-1.358356518	-2.5502770571	 0.0133823326	 0.105713
H	-0.1009311325	-3.4894606519	-1.9278716749	 0.12245
H	 1.4741933829	-3.1813056445	-1.0534252789	 0.125085
H	 0.7623057069	-4.6862814001	 0.8230579696	 0.119214
H	-0.8279022324	-5.0158737317	-0.0074874162	 0.12273
64.359	82.0584	119.4837	133.648	160.9498	232.5344	300.4802	330.1313	362.1255	436.475	442.3594	538.364	643.4712	719.2015	767.9498	798.9706	846.3522	852.5493	965.3309	1005.6662	1061.9445	1081.2007	1105.5192	1123.7731	1132.5819	1159.2624	1193.5305	1200.7723	1241.8826	1293.3557	1398.8978	1448.2953	1460.7456	1482.7475	1497.7228	1502.7955	1509.9139	1721.7274	2342.3917	2998.7359	3068.5718	3075.0245	3126.7878	3138.3535	3149.6267	3222.228	3241.6717	3614.9274
CN=C(NC1CC1)C#N	CN=C(NC1CC1)C#N	
InChI=1S/C6H9N3/c1-8-6(4-7)9-5-2-3-5/h5H,2-3H2,1H3,(H,8,9)	InChI=1S/C6H9N3/c1-8-6(4-7)9-5-2-3-5/h5H,2-3H2,1H3,(H,8,9)
