16
gdb 13547	3.77575	1.35611	1.10209	4.3352	65.76	-0.2675	0.0094	0.2769	1067.3968	0.129566	-379.899757	-379.891049	-379.890105	-379.933586	30.631	
C	 0.0428621484	 1.5543835428	-0.2438096086	-0.394522
C	 0.0049762739	 0.0678010158	 0.0158984128	-0.00261
N	 1.2786887734	-0.66923194	-0.0226937565	-0.328362
C	 0.5344961549	-0.5936719225	 1.239406385	-0.051488
C	 1.2031848285	 0.178772604	 2.3658190227	-0.00721
O	 0.275403038	 0.8048997205	 3.2331844981	-0.40887
C	 2.1137212556	-0.713269226	 3.1167281123	 0.2555
N	 2.7821309859	-1.4371673503	 3.7205585684	-0.317365
H	 0.9575499914	 2.008187516	 0.1433268365	 0.129981
H	 0.0093345785	 1.7500530565	-1.3204502058	 0.124818
H	-0.8149236258	 2.0507102903	 0.2206366321	 0.130228
H	-0.8594083178	-0.4347721642	-0.4176986329	 0.091773
H	 1.1751289595	-1.5837389978	-0.4519993049	 0.241566
H	 0.0117851177	-1.4875698351	 1.5793305395	 0.094141
H	 1.8043011621	 0.9828260303	 1.9346957638	 0.147649
H	-0.2351081344	 0.1199292795	 3.6801000477	 0.294772
42.1163	111.5301	161.0766	176.8316	236.2055	253.6386	309.8881	390.5004	425.2094	515.7547	545.2438	616.7419	791.5239	848.6624	881.8173	948.5062	972.175	1015.0112	1048.543	1070.3994	1098.6334	1153.3099	1194.0442	1244.48	1265.5209	1277.2729	1304.4929	1403.6359	1407.941	1428.3617	1467.4425	1489.5893	1503.3767	2354.3686	3043.3159	3094.1685	3104.0122	3107.012	3113.4583	3133.9902	3520.1167	3803.1291
CC1NC1C(O)C#N	C[C@H]1N[C@H]1[C@@H](O)C#N	
InChI=1S/C5H8N2O/c1-3-5(7-3)4(8)2-6/h3-5,7-8H,1H3	InChI=1S/C5H8N2O/c1-3-5(7-3)4(8)2-6/h3-5,7-8H,1H3/t3-,4+,5-/m1/s1
