19
gdb 99688	1.78753	0.91375	0.62551	1.3451	90.61	-0.2447	0.0224	0.2671	1835.4803	0.15452	-385.823291	-385.811564	-385.81062	-385.863782	38.145	
C	-0.1839150079	 1.3576490737	-0.1373335772	-0.229802
O	 0.194610256	 0.011394236	 0.0626554512	-0.227748
C	 0.699378044	-0.6097668437	-1.1168643022	-0.241997
C	 1.2887871974	-1.8965976077	-0.7415506277	 0.027803
C	 1.7930756324	-2.9496483438	-0.4538366399	 0.152683
C	 2.3930779092	-4.2258906642	-0.0958523093	-0.502024
C	-0.3332711384	-0.7722244575	-2.1553488089	 0.131973
C	-1.1802349971	-0.8845460037	-3.0034154213	 0.023702
C	-2.2028812791	-1.0386940646	-4.0274219905	-0.499597
H	 0.6648863042	 1.9693907741	-0.482597331	 0.101803
H	-0.9996536615	 1.4506193946	-0.8669350785	 0.116734
H	-0.5220468875	 1.7350556357	 0.8300908215	 0.128338
H	 1.4995677871	 0.0295805954	-1.5341002085	 0.111036
H	 3.4673769112	-4.2361290285	-0.3098450241	 0.148682
H	 2.2653112101	-4.4321595133	 0.9723865583	 0.153855
H	 1.9333276786	-5.0509147627	-0.65081172	 0.150388
H	-2.054399127	-1.9640735663	-4.5946672025	 0.152958
H	-3.2031520353	-1.0803700005	-3.5828441031	 0.152757
H	-2.1879148966	-0.205621763	-4.7385743963	 0.148454
15.391	23.4591	59.9744	87.3115	106.3963	129.8259	190.6438	216.4768	277.9479	294.5952	342.5833	377.9882	392.1866	478.4947	502.1812	572.5413	803.569	845.2027	954.1337	1051.564	1051.9838	1054.5065	1055.3239	1114.815	1137.0856	1179.0416	1186.9471	1211.9095	1331.1067	1346.8847	1412.5777	1414.454	1473.3171	1476.4413	1476.6807	1478.0434	1478.0954	1482.2477	1510.8607	2367.7852	2382.094	2922.4176	2977.0845	3028.3003	3028.6252	3040.596	3089.929	3090.0479	3091.226	3091.3008	3122.0823
COC(C#CC)C#CC	COC(C#CC)C#CC	
InChI=1S/C8H10O/c1-4-6-8(9-3)7-5-2/h8H,1-3H3	InChI=1S/C8H10O/c1-4-6-8(9-3)7-5-2/h8H,1-3H3
