20
gdb 95709	3.03846	1.26006	0.96677	3.6706	77.36	-0.2549	0.0213	0.2762	1249.4169	0.172151	-440.28779	-440.279089	-440.278145	-440.321294	32.895	
C	-0.0296344269	 1.610482031	 0.1559569586	-0.418443
C	 0.0541975698	 0.0821679729	 0.0548926309	-0.020364
C	 0.4463379532	-0.3423710628	-1.3734630112	-0.081121
O	 1.0949700413	-1.5985055066	-1.4268837874	-0.238785
C	 0.3637545787	-2.6580297842	-0.847143381	-0.168772
C	 0.6562444059	-2.8895156292	 0.6285766243	 0.369776
N	 0.7142887632	-4.0840785243	 1.0479927139	-0.497779
O	 0.7612787182	-1.8386967525	 1.4856923205	-0.256756
C	 1.0468119235	-0.4947037695	 1.069396144	-0.064096
H	 0.9589146857	 2.0681388361	 0.0341680569	 0.123744
H	-0.680320682	 2.0193861976	-0.6238736472	 0.124112
H	-0.4307709664	 1.923829926	 1.1242771552	 0.124391
H	-0.9299225714	-0.3332724174	 0.304702405	 0.091046
H	-0.4395346665	-0.3350482739	-2.0286030959	 0.097279
H	 1.1711069433	 0.3681071925	-1.7860195348	 0.109067
H	-0.7196105573	-2.5092305459	-0.9788618741	 0.110964
H	 0.6365941447	-3.5796225693	-1.3631835281	 0.144562
H	 0.8648045985	-4.0926435833	 2.0593314224	 0.217962
H	 2.0722398821	-0.4381865319	 0.6855468974	 0.120556
H	 0.9991390626	 0.0727622646	 2.0025328606	 0.112656
66.3939	111.4291	201.876	236.1829	286.7963	287.9807	325.354	379.7082	418.8574	464.1264	524.7043	574.5463	694.9738	789.0807	858.1843	910.6463	921.0593	938.4271	963.6899	988.5532	1015.3167	1041.9099	1105.1343	1143.5477	1155.6603	1180.6933	1185.0341	1259.0309	1289.6908	1318.8918	1331.3131	1341.7669	1375.9563	1383.2641	1405.5543	1411.8066	1440.5548	1480.7415	1495.4914	1498.4054	1502.8261	1504.6395	1735.3706	2978.5282	2985.5028	3028.1744	3030.3847	3040.4429	3069.2973	3096.6417	3098.0291	3110.0964	3123.8955	3459.1879
CC1COCC(=N)OC1	C[C@H]1COC[C]([NH])OC1	
InChI=1S/C6H11NO2/c1-5-2-8-4-6(7)9-3-5/h5,7H,2-4H2,1H3	InChI=1S/C6H11NO2/c1-5-2-8-4-6(7)9-3-5/h5,7H,2-4H2,1H3/t5-/m0/s1
