20
gdb 112179	2.47312	1.20063	0.99717	2.7692	76.21	-0.2394	0.0255	0.265	1292.4924	0.168783	-440.314535	-440.304411	-440.303467	-440.349381	37.	
C	 0.1220562176	 1.6234561674	 0.0331552483	-0.387763
C	-0.1349612557	 0.1144057203	-0.0458063004	-0.193935
C	 0.613054968	-0.5466182968	-1.1942990726	 0.055492
N	 2.0823036074	-0.6308864527	-1.0378371655	-0.358086
C	 2.1733305744	-1.9747888606	-1.2875123565	 0.401023
O	 3.0937589336	-2.7321843197	-1.458593882	-0.37913
C	 0.6246984425	-2.1088256248	-1.3498486391	 0.2033
C	-0.0222478814	-2.9607763783	-0.2705887012	-0.448832
O	 0.1827827074	-2.4760469287	-2.6444144629	-0.474882
H	 1.1823133533	 1.8365221899	 0.2083216267	 0.114942
H	-0.1714717886	 2.125646306	-0.8951626938	 0.120167
H	-0.4432839198	 2.0774075355	 0.8520959886	 0.120938
H	 0.1519577158	-0.3576002874	 0.9001237848	 0.102155
H	-1.2077105895	-0.0699823747	-0.1834254772	 0.108809
H	 0.3252840018	-0.0942548896	-2.1504759956	 0.095457
H	 2.7931595954	 0.084009006	-1.1046907761	 0.248945
H	 0.2946815756	-2.6626508917	 0.7325465218	 0.125156
H	-1.1124358741	-2.8945290625	-0.3346848158	 0.127273
H	 0.2671012955	-4.0072375281	-0.4125933921	 0.126703
H	 0.6516661508	-3.2840129094	-2.8858927196	 0.292268
85.9733	98.2165	145.5489	166.7105	213.7103	235.313	245.3949	281.8833	317.0114	335.8927	404.6425	448.4417	517.9209	609.609	685.7276	746.8047	757.8367	801.1221	855.0218	921.4974	966.3733	975.8564	1052.2308	1081.7792	1101.4766	1141.389	1169.5895	1208.6501	1228.9385	1280.7045	1300.8255	1335.369	1358.5836	1385.9082	1407.2587	1408.6391	1414.867	1474.9599	1489.5288	1490.9982	1501.8061	1506.3821	1886.8558	3030.9895	3032.8575	3039.3328	3040.9323	3073.7018	3101.5792	3108.4494	3109.3612	3121.9641	3594.8704	3789.8147
CCC1NC(=O)C1(C)O	CC[C@H]1NC(=O)[C@]1(C)O	
InChI=1S/C6H11NO2/c1-3-4-6(2,9)5(8)7-4/h4,9H,3H2,1-2H3,(H,7,8)	InChI=1S/C6H11NO2/c1-3-4-6(2,9)5(8)7-4/h4,9H,3H2,1-2H3,(H,7,8)/t4-,6-/m1/s1
