17
gdb 20816	6.01291	1.23634	1.11526	4.1448	71.75	-0.2437	0.0056	0.2493	1110.7899	0.142938	-360.054756	-360.046569	-360.045625	-360.088288	28.634	
C	-0.2581102159	 1.5572498688	 0.0910570405	-0.367843
C	 0.1304311897	 0.0740007816	-0.023064524	-0.282538
C	 0.7138631154	-0.4721095175	 1.2425988294	 0.315826
C	 0.1999971199	-1.3775689747	 2.1433587272	-0.201917
N	 1.1477226242	-1.4842376166	 3.1064790948	 0.083582
C	 1.1557519942	-2.2990170923	 4.3035479173	-0.330566
N	 2.1979528453	-0.6888873657	 2.823972067	-0.147656
N	 1.9381163082	-0.0791374328	 1.7032670109	-0.253776
H	 0.6113242455	 2.1578494408	 0.3712327047	 0.141388
H	-0.6458798848	 1.9329412826	-0.8608282364	 0.109546
H	-1.0281304845	 1.7038942328	 0.8552517956	 0.113341
H	-0.7446225092	-0.522607111	-0.3031004925	 0.098942
H	 0.8636907916	-0.0450561427	-0.8289915371	 0.121066
H	-0.7219237883	-1.93418079	 2.1751220523	 0.13758
H	 1.096094661	-3.3613076328	 4.0502502676	 0.146293
H	 2.0946817398	-2.1012528022	 4.8204938061	 0.170671
H	 0.3181448579	-2.0371132585	 4.9561526965	 0.146061
39.4708	93.508	129.0308	200.9243	227.4789	291.9376	390.8269	431.8343	605.324	670.9571	735.2246	750.5766	782.5101	798.4453	967.8299	1026.4717	1052.6719	1062.2169	1079.0168	1090.0524	1151.6115	1164.6589	1264.0901	1289.8477	1321.2032	1349.6994	1385.4867	1408.1332	1440.9782	1477.2873	1485.4283	1487.7412	1495.8615	1508.1499	1513.5542	1591.6796	3037.0959	3038.849	3048.4532	3073.6349	3107.9278	3112.7778	3123.9344	3162.9955	3275.1182
CCC1=CN(C)N=N1	CCc1cn(C)nn1	
InChI=1S/C5H9N3/c1-3-5-4-8(2)7-6-5/h4H,3H2,1-2H3	InChI=1S/C5H9N3/c1-3-5-4-8(2)7-6-5/h4H,3H2,1-2H3
