18
gdb 27295	3.16528	1.31129	0.93791	6.3826	83.99	-0.2087	-0.0065	0.2022	1245.1589	0.148369	-402.026941	-402.018153	-402.017209	-402.06026	32.787	
C	-0.0184610801	 1.5305611907	 0.0615006162	-0.49303
C	 0.003471001	 0.0321505259	-0.0322891042	 0.393318
C	 0.0153877328	-0.6711940123	-1.1938818772	-0.319905
C	 0.0366868814	-2.1292532373	-1.2338126275	 0.323312
O	 0.0475870706	-2.7781379906	-2.2793886984	-0.399381
C	 0.0442307493	-2.781000904	 0.0883662219	 0.128653
C	 0.0656926618	-4.2793755777	 0.1230647448	-0.473361
C	 0.0316743519	-2.0213336702	 1.2085819663	-0.067197
N	 0.011734126	-0.6482774972	 1.1594790854	-0.384955
H	 0.8600272049	 1.9085558004	 0.598201756	 0.137363
H	-0.0238267649	 1.9738335063	-0.9348373112	 0.151353
H	-0.9087544054	 1.8827893698	 0.5962724662	 0.137334
H	 0.0091115992	-0.1473470702	-2.1423849932	 0.101979
H	 0.9457423451	-4.6609815132	-0.4053296583	 0.14152
H	 0.069867067	-4.6658040029	 1.1462788417	 0.102011
H	-0.8015835458	-4.6861773773	-0.4076764045	 0.141516
H	 0.0363548223	-2.4456004846	 2.2067322266	 0.121367
H	 0.0026263829	-0.1280678257	 2.0208872591	 0.2581
113.7957	119.8812	134.025	188.4773	270.7473	311.7744	315.0676	423.1273	442.1428	486.8074	510.98	577.0838	600.679	735.495	753.8838	769.0274	877.6882	891.1649	939.2755	1019.619	1039.4935	1061.7923	1066.5438	1141.9464	1189.637	1226.2738	1269.8431	1374.8618	1397.7837	1412.506	1417.2464	1464.0202	1481.5986	1481.7475	1487.2245	1543.4647	1650.9576	1688.0751	1715.6011	3027.21	3034.5092	3078.1593	3091.3356	3113.4619	3145.0174	3187.0285	3204.8307	3653.3798
CC1=CC(=O)C(C)=CN1	Cc1cc(=O)c(C)c[nH]1	
InChI=1S/C7H9NO/c1-5-4-8-6(2)3-7(5)9/h3-4H,1-2H3,(H,8,9)	InChI=1S/C7H9NO/c1-5-4-8-6(2)3-7(5)9/h3-4H,1-2H3,(H,8,9)
