19
gdb 85091	1.87756	1.61202	1.17294	2.8769	82.47	-0.2356	-0.0241	0.2115	1164.5922	0.155759	-385.871222	-385.861458	-385.860514	-385.905543	36.408	
C	-0.6520046884	 1.2695019601	-0.0058853214	-0.417693
C	 0.1341389972	-0.026832743	-0.1215184568	-0.003758
C	 1.5226055677	 0.004846923	-0.8280953108	-0.375257
C	 2.0736043366	-0.8731013113	 0.2993023575	 0.387247
O	 3.061874093	-1.5245376887	 0.4489145764	-0.29195
C	 0.7995472391	-0.6495139236	 1.1799868505	-0.022854
C	 1.1093048341	 0.3563128117	 2.3065856388	-0.438679
C	 0.1679042799	-1.8466978662	 1.695309254	 0.285995
C	-0.3607031772	-2.8464053249	 2.1053692818	-0.446206
H	-0.0502527714	 2.0780372169	 0.4205849927	 0.117996
H	-0.9917417427	 1.5979157615	-0.9938479908	 0.123121
H	-1.5391100531	 1.1409788864	 0.6229254963	 0.127687
H	-0.4918427585	-0.7973490239	-0.5784418911	 0.095702
H	 1.5994612083	-0.4089565135	-1.8361230819	 0.134226
H	 1.9886575962	 0.9971229764	-0.8267506993	 0.131415
H	 1.6370335506	 1.2356494725	 1.9251358425	 0.118611
H	 0.1863573559	 0.6885682926	 2.789477298	 0.132899
H	 1.7421545332	-0.1204429202	 3.058768472	 0.145475
H	-0.8199670505	-3.7315478458	 2.4702710216	 0.196024
67.8217	111.366	154.8444	201.8743	221.1637	240.1928	268.4405	291.8753	384.8152	435.3225	484.8384	520.3632	591.0768	616.0106	618.7723	633.197	664.7472	803.8694	849.2643	875.2723	946.2958	984.7635	1036.5233	1058.436	1094.3701	1126.9095	1165.4602	1176.7689	1220.242	1229.9687	1291.5043	1372.3733	1401.1985	1413.4056	1444.3683	1484.3368	1489.699	1500.3104	1501.417	1897.1959	2229.2365	3033.6542	3043.2012	3049.582	3073.3013	3099.2393	3107.2061	3114.7152	3117.8868	3129.8992	3501.5395
CC1CC(=O)C1(C)C#C	C[C@H]1CC(=O)[C@]1(C)C#C	
InChI=1S/C8H10O/c1-4-8(3)6(2)5-7(8)9/h1,6H,5H2,2-3H3	InChI=1S/C8H10O/c1-4-8(3)6(2)5-7(8)9/h1,6H,5H2,2-3H3/t6-,8+/m0/s1
