17
gdb 34318	2.38688	1.81674	1.32462	1.6912	81.01	-0.237	-0.001	0.2361	1009.2768	0.135359	-384.621716	-384.613907	-384.612962	-384.653839	30.615	
C	-0.1736332674	-1.3069120959	 0.1340277325	-0.482713
C	-0.0916024987	-0.1111309405	 0.0384824874	 0.327666
C	-0.0023866606	 1.3423384027	-0.0536801999	 0.180979
C	-0.1735165592	 2.0450957984	 1.3553502627	-0.2766
C	 1.3975217995	 2.1200018318	 1.4591263584	-0.313115
C	 1.3777391821	 1.9555545357	-0.0422758439	 0.22106
C	 1.5997471617	 2.5888567842	-1.1846546755	-0.245327
C	 0.4046873122	 2.3308707377	-2.092472971	-0.126538
O	-0.6357085436	 1.8373382975	-1.223495361	-0.302789
H	-0.2449227387	-2.3641386884	 0.2052026906	 0.196877
H	-0.6186714131	 3.0323496984	 1.2232610246	 0.123036
H	-0.6997040662	 1.477842719	 2.1245651564	 0.114375
H	 1.8460759341	 3.031099225	 1.8572537642	 0.118366
H	 1.7980962151	 1.253338028	 1.9918330879	 0.128761
H	 2.3854946229	 3.2933806099	-1.4259693702	 0.108483
H	 0.0467843314	 3.2546763426	-2.56244136	 0.115452
H	 0.6057777485	 1.603063424	-2.8938599933	 0.11203
103.0432	139.7676	206.3919	249.5273	323.8851	360.4981	513.9823	542.9348	545.8041	610.2265	663.0794	677.7648	713.429	773.3302	787.8177	822.4473	886.9735	919.5732	924.1585	992.1664	1023.7082	1041.9312	1049.809	1105.2197	1124.9918	1169.0365	1199.1902	1221.4967	1227.1995	1251.106	1288.7113	1361.0432	1463.5248	1480.7249	1513.1828	1735.776	2229.0643	2983.6974	3049.1822	3067.9533	3078.3319	3126.9355	3152.3969	3214.639	3500.0153
C#CC12CCC1=CCO2	C#C[C@@]12CC[C]1[CH]CO2	
InChI=1S/C8H8O/c1-2-8-5-3-7(8)4-6-9-8/h1,4H,3,5-6H2	InChI=1S/C8H8O/c1-2-8-5-3-7(8)4-6-9-8/h1,4H,3,5-6H2/t8-/m1/s1
