19
gdb 85276	2.45515	1.51683	1.1317	4.0508	75.46	-0.2352	-0.0099	0.2253	1122.4203	0.158557	-423.049272	-423.040661	-423.039716	-423.082125	33.487	
C	 0.0306227916	 1.5970794416	-0.0222963734	-0.4149
C	 0.011073298	 0.0683101032	 0.0139950824	-0.029745
C	 0.6602238174	-0.6258254752	-1.2034121437	-0.366195
C	 1.2068316219	-1.9604040339	-0.6698936628	 0.423135
O	 1.36680716	-2.9647284071	-1.3178333253	-0.330805
C	 1.4294591055	-1.807360002	 0.799307405	-0.203591
C	 2.2136938423	-0.5578104614	 1.2261503627	-0.358789
C	 0.7210918196	-0.5395841216	 1.2301440886	 0.405957
O	 0.0335570776	-0.5326044859	 2.441882106	-0.473268
H	 1.0560981242	 1.9794482392	-0.0773113625	 0.115592
H	-0.5157450235	 1.9793578028	-0.8900555135	 0.122644
H	-0.4400376753	 2.0184526602	 0.8729080286	 0.1102
H	-1.030694244	-0.2681367045	 0.0875096763	 0.094375
H	-0.0260193996	-0.8031724957	-2.0336196613	 0.129914
H	 1.4961038493	-0.0350942226	-1.6011297674	 0.123764
H	 1.4879219295	-2.6881947643	 1.4251429911	 0.115549
H	 2.6960549355	-0.6474815496	 2.1931060623	 0.127131
H	 2.7791401937	-0.0032245035	 0.4843896389	 0.12086
H	 0.1817733962	 0.3181041804	 2.8684101178	 0.28817
107.0439	139.3669	223.1424	232.0893	247.1877	309.2513	329.5068	416.1259	474.0745	495.2922	539.3234	547.9579	661.1137	671.6194	781.0249	855.5941	883.5374	915.103	922.9426	959.3825	975.9809	1045.9994	1049.7435	1064.0228	1102.156	1129.1989	1169.6691	1200.1206	1221.3961	1258.6695	1292.6495	1313.1105	1328.9281	1373.1816	1398.9167	1410.1238	1461.302	1487.7544	1495.6441	1501.8182	1835.4911	3026.9313	3027.4346	3036.3433	3093.1627	3102.6407	3116.147	3131.8174	3207.9216	3222.8498	3806.4926
CC1CC(=O)C2CC12O	C[C@H]1CC(=O)[C@H]2C[C@@]12O	
InChI=1S/C7H10O2/c1-4-2-6(8)5-3-7(4,5)9/h4-5,9H,2-3H2,1H3	InChI=1S/C7H10O2/c1-4-2-6(8)5-3-7(4,5)9/h4-5,9H,2-3H2,1H3/t4-,5+,7+/m0/s1
