12
gdb 129298	2.41005	1.95479	1.32851	4.3468	65.58	-0.2786	-0.1113	0.1673	916.8313	0.076679	-468.757756	-468.750402	-468.749458	-468.790673	26.132	
N	 0.1481357973	 0.772288608	 1.1451987908	-0.469281
C	 0.029780735	 0.0719317645	 0.1136174496	 0.332862
O	 1.0734269103	-0.0349701739	-0.8135217591	-0.262035
N	 1.2298845346	-1.006523452	-1.7815742285	-0.035851
C	 0.6250729544	-2.1379967473	-1.7157737288	 0.022877
C	-0.3525915701	-2.6729330226	-0.7556460097	-0.010086
N	-1.2203664232	-2.0124174982	-0.0964425557	-0.201007
C	-1.27156377	-0.6196195642	-0.2597337939	 0.33835
O	-2.2519322193	-0.0247270964	-0.6090194295	-0.268893
H	 1.0906502326	 1.1574666687	 1.2370499119	 0.247387
H	 0.9429906037	-2.8133675098	-2.5082511877	 0.155185
H	-0.3384300953	-3.7578751866	-0.6349615793	 0.150491
35.9642	99.6816	231.3834	297.961	314.9099	391.6976	466.8313	556.9859	607.435	694.3411	757.2311	830.7839	857.9769	873.9062	913.9554	937.6804	953.2822	986.8578	1012.0573	1121.2714	1255.4948	1363.0494	1410.8336	1620.1686	1709.6729	1773.1181	1839.9184	3116.3494	3156.3408	3471.1867
N=C1ON=CC=NC1=O	[NH][C]1ON=CC=NC1=O	
InChI=1S/C4H3N3O2/c5-3-4(8)6-1-2-7-9-3/h1-2,5H	InChI=1S/C4H3N3O2/c5-3-4(8)6-1-2-7-9-3/h1-2,5H
