16
gdb 75292	2.8144	1.86675	1.28183	2.4054	69.28	-0.2378	0.0108	0.2486	956.5997	0.128311	-434.101451	-434.094496	-434.093552	-434.132899	27.261	
N	 0.0141320066	 1.3542879077	 0.3031839189	-0.570304
C	-0.0415871704	-0.0011130753	 0.0897471869	 0.356983
N	-1.1125994885	-0.6957610299	 0.0869711253	-0.273158
C	-0.781609247	-2.1089098186	-0.0947611394	-0.173763
C	 0.7374186155	-2.1978038928	-0.4108031447	-0.023632
N	 1.0326916075	-2.3776239022	-1.8448526527	-0.259243
C	 1.6598390998	-1.3413981842	-2.2133701017	 0.111081
O	 1.9363577628	-0.3565504363	-1.3144925414	-0.238007
C	 1.2543637047	-0.7730002809	-0.1026506289	-0.022657
H	 0.7793568663	 1.831449395	-0.1504613739	 0.260377
H	-0.8735453116	 1.8287402689	 0.2150351384	 0.258861
H	-1.0298003996	-2.6692114512	 0.8154116121	 0.105645
H	-1.3741029056	-2.5371828605	-0.9092161283	 0.123116
H	 1.2252414913	-2.9955398594	 0.1547819074	 0.091427
H	 2.0308892814	-1.1476980332	-3.2134383001	 0.144496
H	 1.9549410268	-0.6565037473	 0.7266348022	 0.108777
89.8667	218.7885	237.3003	327.5845	422.7663	432.2908	528.7409	569.8823	611.4592	680.3443	736.9916	788.0982	858.924	885.1941	907.7107	953.244	964.0749	982.4211	994.6394	1034.0024	1068.0549	1103.0144	1166.7865	1218.3448	1245.0055	1282.3695	1308.7521	1313.9214	1339.2671	1345.4703	1411.4307	1495.0249	1631.0168	1695.8298	1738.8062	3026.946	3074.0993	3081.0456	3097.8432	3219.0835	3563.0115	3672.4996
NC1=NCC2N=COC12	NC1=NC[C@H]2N=CO[C@@H]12	
InChI=1S/C5H7N3O/c6-5-4-3(1-7-5)8-2-9-4/h2-4H,1H2,(H2,6,7)	InChI=1S/C5H7N3O/c6-5-4-3(1-7-5)8-2-9-4/h2-4H,1H2,(H2,6,7)/t3-,4-/m1/s1
