16
gdb 23223	3.70415	1.34164	1.14871	1.8314	75.17	-0.2329	-0.043	0.1899	1057.9217	0.125854	-437.825422	-437.818402	-437.817458	-437.856719	28.2	
O	-0.0788125601	 1.335323746	 0.0082080516	-0.388567
N	 0.0336543323	-0.0598946451	 0.0144568243	-0.241539
C	-1.109290958	-0.6378071436	-0.0054504428	 0.413312
C	-2.4438051717	-0.0256992561	-0.0369118223	-0.139731
C	-3.4830543355	-0.8738369389	-0.0405084159	-0.072061
C	-3.1507321523	-2.3540460226	-0.0484755141	 0.035985
C	-2.1407663332	-2.6619598303	 1.0878937064	-0.251569
C	-1.1449488133	-2.1510689615	 0.0145990792	-0.010718
O	-2.0820265659	-2.5805026671	-1.0189866574	-0.29135
H	 0.8429492896	 1.6140169044	 0.0111194671	 0.310053
H	-2.5409142309	 1.0514546562	-0.048877145	 0.124376
H	-4.5149254067	-0.5397935887	-0.0312910983	 0.107813
H	-4.0095312424	-3.0067951496	-0.2134482322	 0.082883
H	-2.2325035471	-2.12043692	 2.0304006462	 0.111956
H	-2.0233472602	-3.7337296512	 1.254233618	 0.115662
H	-0.1540228347	-2.5962877919	-0.0793245748	 0.093495
115.9608	240.2772	280.9628	372.0016	399.6885	417.122	444.0654	472.4033	615.156	659.3417	722.8986	797.815	804.3671	854.8903	881.1321	925.6967	944.4599	962.1129	981.0412	989.0753	1032.0033	1084.984	1096.5346	1156.7798	1198.3059	1243.8098	1272.236	1292.8776	1309.3095	1340.3324	1384.3289	1413.7687	1484.5933	1651.4198	1717.0099	3078.1372	3101.2941	3117.5813	3146.7334	3188.7835	3231.8691	3820.4154
ON=C1C=CC2CC1O2	ON=C1C=C[C@@H]2C[C@H]1O2	
InChI=1S/C6H7NO2/c8-7-5-2-1-4-3-6(5)9-4/h1-2,4,6,8H,3H2	InChI=1S/C6H7NO2/c8-7-5-2-1-4-3-6(5)9-4/h1-2,4,6,8H,3H2/t4-,6-/m1/s1
