13
gdb 130259	3.28042	1.4787	1.01996	4.3988	65.16	-0.2448	-0.0554	0.1894	1057.7761	0.090524	-486.083713	-486.076144	-486.0752	-486.115823	28.619	
N	 0.07469281	 1.3691876551	-0.0369486079	-0.546342
C	-0.0046035622	 0.0145501989	 0.0280848018	 0.415717
N	-1.1583262036	-0.5620315619	 0.0906181643	-0.195828
O	-1.173480201	-1.9740800482	 0.2287327461	-0.258366
C	-0.058788862	-2.738822012	 0.2907411735	 0.513501
O	-0.1284667492	-3.9291721699	 0.4187064976	-0.365321
N	 1.1469876125	-2.0589354596	 0.1909984508	-0.452164
C	 1.2980347775	-0.6976245263	 0.0366936722	 0.368683
N	 2.3772651842	-0.03562077	-0.1016499568	-0.535529
H	 0.9680216817	 1.7375553249	-0.3258754185	 0.28414
H	-0.7625095195	 1.8788238454	-0.2659812211	 0.272346
H	 1.9622307476	-2.6553169338	 0.2209803527	 0.27263
H	 3.2106010942	-0.6238738625	-0.0933580147	 0.226532
99.2108	130.4159	270.0147	327.6299	372.9456	391.5594	446.1013	470.8324	508.7066	541.9294	612.5955	617.8936	710.303	748.7578	786.3957	824.5582	859.9217	926.8563	979.7371	1125.1631	1160.4745	1276.3238	1355.0343	1417.7193	1497.2337	1603.6718	1670.2657	1737.1295	1866.2064	3483.2501	3585.5644	3612.4534	3718.38
NC1=NOC(=O)NC1=N	NC1=NOC(=O)N[C]1[NH]	
InChI=1S/C3H4N4O2/c4-1-2(5)7-9-3(8)6-1/h(H2,5,7)(H2,4,6,8)	InChI=1S/C3H4N4O2/c4-1-2(5)7-9-3(8)6-1/h(H2,5,7)(H2,4,6,8)
