20
gdb 92125	2.86062	1.52982	1.22605	2.0671	79.2	-0.2279	0.0669	0.2948	1080.0911	0.171707	-403.082751	-403.074659	-403.073715	-403.115351	32.124	
O	 0.0001371724	 1.2865889895	-0.488730096	-0.419326
C	-0.0010090331	-0.0570112738	-0.0585987187	 0.112291
C	 0.2045223592	-0.2912187615	 1.4736728065	-0.266563
C	-1.2773233122	-0.7020863714	 1.6017018093	-0.007691
C	-2.2763299543	 0.4947206907	 1.7128772552	-0.338275
C	-2.582834769	 0.3283551846	 0.2151877126	 0.413916
C	-3.950966419	 0.2000372346	-0.3438596326	-0.319476
N	-3.0563024169	 1.2974793186	-0.7569423731	-0.351987
C	-1.4377175055	-0.6586799032	 0.0329267422	-0.1305
H	 0.9037431069	 1.6130978934	-0.4282789731	 0.281603
H	 0.6694124682	-0.6674214161	-0.6792805948	 0.065482
H	 0.8976135689	-1.1124519565	 1.6791308022	 0.095621
H	 0.5177647128	 0.5871832728	 2.0471081501	 0.090156
H	-1.5233461544	-1.5827716133	 2.1941230068	 0.065983
H	-3.124133037	 0.3487334504	 2.3878158336	 0.098245
H	-1.7842637678	 1.4395924224	 1.9647824507	 0.104007
H	-4.1655482591	-0.5284894099	-1.1223200457	 0.11287
H	-4.7878690734	 0.416056876	 0.3172979179	 0.104003
H	-3.3098410145	 2.1681099759	-0.2964901622	 0.227418
H	-1.6181927723	-1.5355400233	-0.5901490507	 0.062222
69.9895	131.0655	259.7758	273.7845	300.5433	321.6559	386.282	422.0619	482.0817	619.0155	707.7742	756.5658	804.5444	832.7831	851.4414	887.2048	901.5511	924.995	946.8307	968.3187	980.8677	1007.53	1031.6487	1066.9276	1106.2674	1120.8494	1127.9741	1144.1945	1191.5567	1197.2966	1219.9971	1246.7672	1251.5591	1265.6245	1272.4512	1294.1484	1311.4247	1329.1611	1413.5646	1421.4345	1467.143	1482.7855	1512.9759	2993.2787	3041.2779	3044.0172	3091.9545	3092.7667	3094.8024	3098.5059	3115.2922	3175.8517	3499.0821	3811.5048
OC1CC2CC3(CN3)C12	O[C@H]1C[C@H]2C[C@]3(CN3)[C@@H]12	
InChI=1S/C7H11NO/c9-5-1-4-2-7(3-8-7)6(4)5/h4-6,8-9H,1-3H2	InChI=1S/C7H11NO/c9-5-1-4-2-7(3-8-7)6(4)5/h4-6,8-9H,1-3H2/t4-,5-,6+,7-/m0/s1
