19
gdb 81773	2.17179	1.69727	1.30617	2.4238	71.04	-0.2363	0.0631	0.2994	1063.7562	0.155467	-460.126126	-460.116453	-460.115509	-460.159719	36.528	
C	-0.0291157361	 1.5248230339	 0.0739542001	-0.524023
C	 0.1223677152	 0.0423566462	-0.0138356498	 0.391882
O	-0.8032366105	-0.81443696	 0.6640845643	-0.287224
C	 0.5962523847	-0.9651001187	 0.9554153026	-0.082595
C	 1.2264267933	-1.8134069392	-0.1410672193	 0.088697
O	 0.8201535497	-3.155449668	-0.1602014979	-0.426989
C	 0.6593241206	-0.7956315491	-1.2107932743	 0.254354
C	-0.3698741223	-1.3295766457	-2.18808482	-0.455571
O	 1.7691741103	-0.1860253298	-1.8527880891	-0.478107
H	 0.8800297003	 2.0152938783	-0.2868805735	 0.131736
H	-0.8718452878	 1.8717975724	-0.5352662105	 0.127421
H	-0.209505743	 1.834231402	 1.106748249	 0.137163
H	 0.8941523511	-0.8669943727	 1.9933445417	 0.10175
H	 2.3190174915	-1.701452897	-0.1303825074	 0.086918
H	 1.3299584848	-3.6157930936	-0.8340964445	 0.288561
H	-1.192857296	-1.8015243045	-1.649812085	 0.155008
H	-0.777216196	-0.52099535	-2.8086706026	 0.100814
H	 0.0858211528	-2.0689011853	-2.8546596743	 0.111979
H	 1.4297958974	 0.4360688407	-2.5056404994	 0.278226
116.822	183.6637	193.1116	201.7192	217.7295	233.0002	277.2426	286.1281	299.5005	383.6864	393.2072	495.8119	535.6345	576.1836	670.2225	695.4848	772.298	858.3735	894.4981	942.5837	961.8544	997.4421	1025.791	1075.946	1105.0191	1127.747	1149.0192	1175.7593	1216.7354	1236.924	1277.2517	1308.0619	1363.1644	1394.8261	1398.9864	1432.2006	1467.8467	1482.0606	1487.9535	1491.6026	1497.5376	3020.9697	3023.8059	3033.6834	3089.2345	3098.2876	3122.6778	3146.8176	3181.6394	3801.1278	3823.0453
CC12OC1C(O)C2(C)O	C[C@]12O[C@H]1[C@@H](O)[C@]2(C)O	
InChI=1S/C6H10O3/c1-5(8)3(7)4-6(5,2)9-4/h3-4,7-8H,1-2H3	InChI=1S/C6H10O3/c1-5(8)3(7)4-6(5,2)9-4/h3-4,7-8H,1-2H3/t3-,4+,5+,6+/m1/s1
