18
gdb 47609	2.38939	1.97219	1.1723	5.3407	72.27	-0.2426	0.0526	0.2952	1036.7484	0.150798	-439.121024	-439.113671	-439.112727	-439.153028	28.367	
O	 0.1083676258	 0.0683098839	 0.2772784194	-0.388566
C	 0.0512475772	 1.2404573779	-0.0006634138	 0.439427
O	-1.1508793884	 1.8843058897	-0.0258264837	-0.250372
C	-1.2055992338	 3.3092519907	-0.1853342936	-0.06037
C	-0.0410744712	 4.0026860798	 0.5221079551	-0.260818
C	 1.2239621488	 3.4782277869	-0.1331684329	 0.06067
C	 2.5510701657	 3.2819048747	 0.6496470844	-0.27298
C	 2.4692858701	 1.7691316401	 0.2867372508	-0.164332
N	 1.1426272575	 2.0091012422	-0.3146656994	-0.150216
H	-1.2037735126	 3.5560638922	-1.2558386424	 0.11523
H	-2.1714062676	 3.6075393389	 0.2292640978	 0.125242
H	-0.1314576796	 5.0888400054	 0.4246914086	 0.112974
H	-0.0633519293	 3.7516629272	 1.5890189281	 0.117269
H	 1.3754255915	 3.9786379235	-1.098373833	 0.088161
H	 3.4148132143	 3.8267393235	 0.2669175844	 0.114407
H	 2.450771468	 3.4741082441	 1.7201669481	 0.116818
H	 3.209727709	 1.4271650566	-0.4423979555	 0.119275
H	 2.4363657546	 1.0623542828	 1.1187533475	 0.138178
96.4675	147.7085	221.8335	249.8819	339.6967	452.5227	474.9722	514.9756	627.1365	683.6349	737.8898	767.4488	810.6233	890.7907	922.9803	944.3689	985.2067	995.0703	1032.7143	1091.6801	1115.383	1145.3004	1154.5472	1195.7368	1211.1348	1231.7632	1256.4898	1272.9899	1294.3184	1322.9498	1325.3357	1355.4504	1404.4878	1432.9338	1479.6282	1487.8052	1513.2273	1523.5886	1827.838	3011.3181	3017.8722	3042.6097	3056.5542	3077.5947	3096.7784	3101.2661	3111.7653	3138.2148
O=C1OCCC2CCN12	O=C1OCC[C@H]2CCN12	
InChI=1S/C6H9NO2/c8-6-7-3-1-5(7)2-4-9-6/h5H,1-4H2	InChI=1S/C6H9NO2/c8-6-7-3-1-5(7)2-4-9-6/h5H,1-4H2/t5-/m1/s1
