22
gdb 114623	2.17813	1.31262	0.9577	1.6222	82.36	-0.2304	0.0636	0.2941	1329.6268	0.193986	-404.304086	-404.294489	-404.293544	-404.338649	36.071	
C	-0.1356914348	 1.573791894	 0.022185062	-0.382203
C	 0.2409965135	 0.0910556095	-0.0492328011	-0.199979
C	 0.7588756421	-0.4610821094	 1.2739188663	-0.002432
C	-0.2347835973	-0.6514119543	 2.4830038789	-0.241162
C	 0.1461742438	-2.1342302928	 2.5078877102	-0.122405
N	-0.22572298	-2.6753623591	 1.1754945424	-0.378261
C	 1.077227242	-1.9670074138	 1.3582713197	 0.305266
C	 2.366434562	-2.6318591509	 0.9995411468	-0.186337
O	 2.6118130002	-2.6143980286	-0.4023396681	-0.41145
H	 0.725687279	 2.1913884466	 0.3015411424	 0.109896
H	-0.5046363849	 1.9363370903	-0.9423707721	 0.110898
H	-0.9221079855	 1.7506359087	 0.7644397519	 0.115143
H	-0.6251440662	-0.5031192741	-0.3601490282	 0.111542
H	 1.015645153	-0.0600227707	-0.8118598222	 0.100712
H	 1.6325243304	 0.1126310622	 1.6046427557	 0.069117
H	 0.0698108699	-0.1032863338	 3.3768669285	 0.10087
H	-1.2909013681	-0.4584693604	 2.2767683222	 0.106675
H	 0.2125392658	-2.7946531976	 3.3647731449	 0.092837
H	-0.0224565623	-3.6761998304	 1.2037513528	 0.219898
H	 3.2105253714	-2.0979051865	 1.4499723826	 0.112848
H	 2.3785434369	-3.6605874051	 1.4001062429	 0.080172
H	 1.8220460493	-2.9546929436	-0.8364873787	 0.288352
81.4198	97.336	118.6125	164.2387	210.9253	261.4025	283.6163	342.4941	368.662	419.175	479.255	527.2268	670.1447	712.2103	776.6982	810.5238	884.3887	920.5571	923.0454	935.7558	964.0472	992.9833	1007.7661	1050.2731	1056.1389	1092.6195	1103.0193	1127.3604	1153.5686	1185.4383	1196.1513	1228.1367	1250.9264	1281.5018	1295.7321	1329.198	1349.0725	1363.4867	1388.4221	1411.4721	1415.5953	1448.33	1478.826	1493.921	1497.5883	1500.3471	1508.9049	2952.7068	3026.5022	3028.9112	3036.8274	3062.6165	3063.7056	3070.6797	3095.9905	3100.1254	3121.073	3180.5854	3443.301	3808.5144
CCC1CC2NC12CO	CC[C@H]1C[C@H]2N[C@@]12CO	
InChI=1S/C7H13NO/c1-2-5-3-6-7(5,4-9)8-6/h5-6,8-9H,2-4H2,1H3	InChI=1S/C7H13NO/c1-2-5-3-6-7(5,4-9)8-6/h5-6,8-9H,2-4H2,1H3/t5-,6+,7-/m0/s1
