13
gdb 33637	3.21919	1.56157	1.37483	3.7296	69.3	-0.2477	-0.0885	0.1593	923.2934	0.088494	-415.473541	-415.466793	-415.465849	-415.504701	26.003	
N	-0.1680885674	-1.2445842486	 0.0155116543	-0.347909
C	-0.1370161767	-0.0876814498	 0.031083096	 0.170867
C	-0.0963534479	 1.3269340357	 0.0592992911	 0.116238
C	-0.9075577587	 2.3826929812	 0.7504417564	-0.151732
C	 0.0667112092	 3.001085009	 1.7862763069	-0.176735
N	 1.3552801066	 3.1129015272	 1.0101272804	-0.210734
C	 1.1122012473	 2.3693897468	 0.0241395002	 0.244121
O	 0.7735891607	 2.8721091269	-1.2367651343	-0.245895
C	-0.5775417865	 2.3966973359	-0.8210178411	 0.027857
H	-1.9543262935	 2.2130665165	 0.9901050268	 0.127016
H	-0.1847730844	 4.0290195788	 2.0604921236	 0.151678
H	 0.1172844833	 2.3938860311	 2.7002027921	 0.136877
H	-1.327706982	 2.4102845592	-1.6016220823	 0.15835
130.595	154.3456	258.3389	390.107	428.1333	509.5016	531.0764	547.3455	626.32	663.5328	717.8375	770.5704	857.2047	910.7126	935.4079	944.2784	970.3053	1021.2985	1026.508	1064.1447	1084.9472	1175.1915	1187.6559	1258.9068	1293.2827	1430.2241	1478.2182	1637.9137	2350.3897	3017.7483	3098.4583	3160.9788	3213.0615
N#CC12C3CN=C1OC23	N#C[C@@]12[C@H]3C[N][C]1O[C@@H]23	
InChI=1S/C6H4N2O/c7-2-6-3-1-8-5(6)9-4(3)6/h3-4H,1H2	InChI=1S/C6H4N2O/c7-2-6-3-1-8-5(6)9-4(3)6/h3-4H,1H2/t3-,4+,6-/m0/s1
