17
gdb 81556	4.37509	1.18312	1.05049	0.3362	67.78	-0.2535	0.0565	0.3099	1124.1629	0.135522	-458.856017	-458.84853	-458.847586	-458.888293	28.912	
O	 0.0847027492	 1.4659381408	-0.1367336423	-0.450348
C	 0.0846513188	 0.0830325957	-0.0736586639	 0.196871
C	 0.0028190504	-0.5951170733	 1.3272942868	-0.099284
O	-1.397098675	-0.0809807028	 1.4298571514	-0.346106
C	-1.2832243209	-0.6531668099	 0.0535337678	-0.099276
C	-0.5619332347	-1.8627291893	 0.6678388761	 0.373617
C	 0.2026391654	-2.9837075027	-0.0530572749	-0.176463
O	-0.5044276712	-3.9833248553	 0.7062435406	-0.276141
C	-1.2663067626	-2.9885624474	 1.4302772634	-0.155031
H	-0.5738354857	 1.7487104529	 0.515266534	 0.290322
H	 0.81186613	-0.3053233732	-0.7901884298	 0.098626
H	 0.6406060391	-0.4871008777	 2.2053492693	 0.102862
H	-2.1707143864	-0.6140006042	-0.5791174187	 0.102863
H	 0.0174405152	-3.0744035397	-1.1314520892	 0.107794
H	 1.2855725241	-3.0172537794	 0.1246848403	 0.107791
H	-1.0758582387	-3.0281574245	 2.5093079219	 0.110948
H	-2.3440299671	-3.0853021299	 1.2533696971	 0.110953
73.0536	143.7553	221.4279	278.9591	314.7533	420.2927	428.8003	569.032	579.1241	735.2995	737.5928	785.556	856.56	861.9524	877.8785	910.3865	966.3155	973.051	1032.5472	1068.5341	1097.5246	1098.1586	1129.4436	1140.753	1153.5671	1167.6746	1172.359	1185.7561	1202.4404	1255.6737	1305.7314	1317.6798	1332.6838	1400.7268	1454.0838	1506.2244	1531.1981	3002.3937	3022.9637	3043.7488	3064.4311	3097.1357	3115.6242	3122.0391	3732.5554
OC1C2OC1C21COC1	O[C@H]1[C@H]2O[C@@H]1C12COC1	
InChI=1S/C6H8O3/c7-3-4-6(1-8-2-6)5(3)9-4/h3-5,7H,1-2H2	InChI=1S/C6H8O3/c7-3-4-6(1-8-2-6)5(3)9-4/h3-5,7H,1-2H2/t3-,4+,5-
