23
gdb 64407	2.33404	1.59268	1.2744	1.706	84.28	-0.2559	0.0782	0.3341	1134.5881	0.206625	-388.30199	-388.293135	-388.292191	-388.334797	35.478	
C	-0.0326259817	 1.5371606187	 0.0490864764	-0.424505
C	-0.0177363633	-0.0013721247	-0.0021594366	 0.245664
C	-1.4636753713	-0.5285340883	 0.0690570086	-0.421429
C	 0.6875466771	-0.4665075326	-1.299534065	-0.22232
C	 1.0080169227	-1.9665042237	-1.3103272757	-0.223204
C	 1.9729709608	-2.3629841964	-0.1790034608	-0.221482
C	 1.6847408379	-1.6497874124	 1.1298967176	 0.034403
O	 2.1549569158	-0.2948970421	 1.225045274	-0.271499
C	 0.7436807427	-0.5184706301	 1.210835127	 0.060729
H	 0.9873099777	 1.9318951418	 0.0692297428	 0.129378
H	-0.5441031613	 1.9503309415	-0.8272178402	 0.107451
H	-0.5545125885	 1.8999304726	 0.941838789	 0.106066
H	-2.0527685709	-0.148487545	-0.7722300893	 0.113718
H	-1.5082225174	-1.621445363	 0.0459138133	 0.114224
H	-1.9546020774	-0.198539317	 0.9912751847	 0.111914
H	 0.0531111539	-0.2103144359	-2.1561803303	 0.087683
H	 1.6185806159	 0.1001248857	-1.4145477695	 0.105887
H	 0.0790838368	-2.54047242	-1.2122306745	 0.098722
H	 1.4380661101	-2.2494980203	-2.277045697	 0.094482
H	 1.9335838429	-3.4455003934	-0.0142816133	 0.096428
H	 3.0069187357	-2.1293166401	-0.4609327811	 0.114912
H	 1.8647340827	-2.2275911503	 2.037385833	 0.086787
H	 0.257087909	-0.3222127051	 2.169828497	 0.075992
95.4475	189.2879	222.3271	244.9165	264.5001	308.2539	328.64	373.066	388.0799	455.6451	474.9051	529.8163	650.7383	715.4401	786.3641	828.4226	854.5278	889.7828	923.9748	943.1557	950.6835	978.1589	1006.1107	1014.2858	1033.6774	1088.4201	1099.9963	1138.9787	1171.5693	1195.1989	1227.4051	1247.7677	1281.4746	1298.2728	1312.6422	1355.2259	1373.3325	1383.2787	1396.0883	1397.2858	1422.5883	1461.3169	1476.9117	1479.8656	1486.4909	1492.2072	1499.2959	1504.4097	1516.5039	3024.6758	3028.8444	3029.3402	3031.8239	3036.6114	3063.3202	3069.0175	3071.0338	3080.3177	3089.204	3096.5228	3100.5837	3108.4525	3111.5952
CC1(C)CCCC2OC12	CC1(C)CCC[C@H]2O[C@@H]12	
InChI=1S/C8H14O/c1-8(2)5-3-4-6-7(8)9-6/h6-7H,3-5H2,1-2H3	InChI=1S/C8H14O/c1-8(2)5-3-4-6-7(8)9-6/h6-7H,3-5H2,1-2H3/t6-,7-/m1/s1
