18
gdb 30212	3.83846	1.31873	1.12395	0.5141	77.18	-0.2137	0.0166	0.2303	1103.4515	0.15038	-401.956075	-401.948672	-401.947728	-401.988163	28.914	
C	-0.3505433275	 1.3165072702	 0.6621543831	-0.324382
N	 0.0328666321	 0.1080406986	-0.0636085337	-0.072772
C	-1.1493071783	-0.7454044138	-0.3690461584	-0.317636
C	-1.1542975324	-1.7814948403	 0.7227573324	 0.233124
C	-1.8941172513	-2.738577433	 1.331360235	-0.174575
O	-1.1573895051	-3.3216432212	 2.3259071273	-0.153306
C	 0.0710596224	-2.719454847	 2.3376932172	-0.174575
C	 0.1177481588	-1.769116919	 1.374149859	 0.233124
C	 0.9846750459	-0.7246390823	 0.7237292196	-0.317636
H	 0.5381540876	 1.9263445736	 0.8505753511	 0.119314
H	-1.0321540468	 1.9110646663	 0.0464471222	 0.119314
H	-0.8451415636	 1.1213653209	 1.6317178996	 0.099045
H	-2.0531423553	-0.1319237851	-0.417095264	 0.113621
H	-1.021466736	-1.2131380512	-1.3547556042	 0.115948
H	-2.8946052835	-3.120216865	 1.2143517561	 0.135911
H	 0.7565416462	-3.0846885725	 3.0840407646	 0.135911
H	 1.7169180687	-1.1864912946	 0.0475238334	 0.115948
H	 1.5423838682	-0.0969364545	 1.4241116294	 0.113621
60.8803	206.4622	244.7895	250.0081	369.5349	379.7732	488.322	588.8095	605.6373	634.791	710.2811	732.6118	759.3107	782.9006	838.4295	932.3992	976.7605	994.5828	1012.3828	1054.4345	1097.1782	1112.5612	1142.4583	1155.8285	1181.002	1249.7597	1252.1542	1288.8357	1306.375	1317.4512	1327.3012	1406.9916	1457.4178	1492.5632	1493.361	1504.3601	1505.6397	1592.4302	1663.5393	2936.4405	3006.9225	3008.1128	3064.4201	3080.9841	3084.7457	3106.0646	3273.3252	3278.072
CN1CC2=COC=C2C1	CN1Cc2cocc2C1	
InChI=1S/C7H9NO/c1-8-2-6-4-9-5-7(6)3-8/h4-5H,2-3H2,1H3	InChI=1S/C7H9NO/c1-8-2-6-4-9-5-7(6)3-8/h4-5H,2-3H2,1H3
