19
gdb 90624	3.93143	1.17759	1.09961	2.4508	74.53	-0.2346	0.0733	0.3079	1143.9066	0.15867	-422.959326	-422.951203	-422.950259	-422.9915	32.66	
O	-0.0457043523	 1.4036658538	-0.0704806714	-0.441736
C	 0.0438058313	-0.006472862	-0.0142098582	 0.114437
C	 0.3260063943	-0.5954637047	 1.4132941827	-0.299279
C	-1.0995581854	-1.2206025884	 1.4290645706	-0.089948
C	-1.3835557511	-0.6217711133	 0.021229105	-0.014429
C	-1.6202105095	-2.0423542003	-0.5331471867	-0.128375
C	-0.425252376	-2.9517843492	-0.3091249976	-0.361635
C	-1.331470772	-2.6367974458	 0.8425094334	 0.394007
O	-2.0466199346	-3.6180097966	 1.5081054023	-0.464248
H	 0.8401874511	 1.763365497	 0.0426177602	 0.279897
H	 0.6961776023	-0.3878154081	-0.8116710362	 0.06367
H	 1.1688448775	-1.2870189278	 1.5048195605	 0.091211
H	 0.4430443282	 0.20812798	 2.1450517602	 0.100885
H	-1.7518547017	-1.0001373672	 2.2734307349	 0.077661
H	-2.1899036424	 0.0920445998	-0.1414467281	 0.081037
H	-2.3796207378	-2.3069882378	-1.2589180132	 0.092486
H	-0.5740027551	-3.9514761077	-0.706413499	 0.112595
H	 0.5999342684	-2.5993921086	-0.3770970434	 0.10833
H	-1.421242705	-4.2008824131	 1.952837734	 0.283436
115.6922	188.7393	243.2733	259.2187	298.6962	329.757	369.6182	412.5332	473.2731	507.6174	623.572	696.3409	754.8183	809.4061	843.8355	864.3437	903.1394	907.3649	931.5045	970.2629	987.1863	1005.8837	1037.5443	1047.6205	1075.8102	1116.9264	1129.9672	1160.069	1185.4628	1201.9332	1217.9998	1235.2414	1250.8879	1274.6209	1296.449	1314.0022	1325.8902	1401.1285	1421.5605	1460.9566	1501.176	2997.1348	3049.8574	3106.043	3117.0462	3117.5083	3126.4797	3183.2701	3200.0828	3789.7719	3809.6632
OC1CC2C1C1CC21O	O[C@H]1C[C@H]2[C@@H]1[C@H]1C[C@@]21O	
InChI=1S/C7H10O2/c8-5-1-3-6(5)4-2-7(3,4)9/h3-6,8-9H,1-2H2	InChI=1S/C7H10O2/c8-5-1-3-6(5)4-2-7(3,4)9/h3-6,8-9H,1-2H2/t3-,4+,5-,6+,7+/m0/s1
