23
gdb 60265	3.83119	0.78709	0.76595	1.4135	88.09	-0.2323	0.0297	0.262	1629.0605	0.205606	-388.307964	-388.298179	-388.297235	-388.343232	36.759	
C	-0.0068832253	 1.6197164657	 0.1346433099	-0.401271
C	 0.0309289259	 0.0936062993	 0.0435923984	 0.130197
O	 0.7662139157	-0.4674348105	 1.1317291858	-0.427385
C	-1.3741198719	-0.5160722416	-0.0592672451	-0.210718
C	-1.3939195402	-2.045107189	-0.2099863492	-0.003448
C	-2.8180609671	-2.6555302006	-0.0913047394	-0.233655
C	-2.8586292772	-3.8436195241	-1.0848116234	-0.253693
C	-1.7229513238	-3.5271602	-2.0296305349	-0.074124
C	-0.9334847265	-2.5645132909	-1.5573043832	-0.059847
H	 1.0057291793	 2.0197713494	 0.2347585458	 0.122429
H	-0.4701403942	 2.0594750974	-0.7545812349	 0.115736
H	-0.5904788808	 1.9417894555	 1.0066483496	 0.104326
H	 0.6122282031	-0.1903358847	-0.8421825346	 0.090222
H	 0.3189951924	-0.2097284983	 1.9459780476	 0.274345
H	-1.9338209776	-0.2374003291	 0.847037031	 0.078647
H	-1.9074330675	-0.0565814521	-0.9020306443	 0.092683
H	-0.7362735051	-2.4500994116	 0.5719877369	 0.087975
H	-3.0662533601	-2.9463706396	 0.933149705	 0.091918
H	-3.5530752676	-1.9026455065	-0.3996629041	 0.09682
H	-2.6830143643	-4.8045485091	-0.5800409549	 0.103906
H	-3.8266510704	-3.9379868166	-1.5901572438	 0.098967
H	-1.5655143688	-4.0670217127	-2.9573561152	 0.087134
H	-0.0324868381	-2.2072533702	-2.0446183927	 0.088838
50.1259	73.6595	111.6781	161.2379	236.4091	268.9776	292.5707	312.6217	344.0225	453.6813	481.1059	512.2756	630.2848	744.3105	762.2642	828.0849	843.9233	861.228	907.8665	927.281	940.1853	972.4713	983.0442	1005.5296	1057.7414	1071.6408	1082.8467	1111.0027	1143.81	1153.3464	1181.0134	1198.2174	1227.7951	1275.5423	1308.5247	1317.1668	1323.131	1339.5967	1357.7705	1388.6056	1391.7036	1401.9226	1419.6449	1474.8549	1483.5968	1492.0742	1495.5765	1500.1631	1685.1921	2989.4338	3003.8357	3005.7247	3022.1825	3032.8092	3036.5795	3048.2285	3053.8723	3090.9645	3092.9125	3117.7689	3175.4821	3201.4367	3791.9042
CC(O)CC1CCC=C1	C[C@@H](O)C[C@H]1CCC=C1	
InChI=1S/C8H14O/c1-7(9)6-8-4-2-3-5-8/h2,4,7-9H,3,5-6H2,1H3	InChI=1S/C8H14O/c1-7(9)6-8-4-2-3-5-8/h2,4,7-9H,3,5-6H2,1H3/t7-,8-/m1/s1
