18
gdb 37120	3.65619	1.6146	1.52416	1.9475	73.6	-0.1928	0.0724	0.2652	927.4004	0.149515	-401.844328	-401.83762	-401.836676	-401.874953	28.294	
C	-0.0015579355	 1.4559030391	-0.0944949154	-0.406903
C	 1.3588818762	 0.7815175684	 0.0107649643	 0.186398
C	 1.9801498007	 0.5038961827	 1.3615896976	-0.310714
C	 0.8079849386	-0.1142485092	 2.1808061986	-0.094444
O	-0.0922721322	-0.705746374	 1.2303156057	-0.287837
C	 0.0721113289	-0.0364926987	 0.0248330914	 0.370975
C	 0.5414311151	-0.8079620114	-1.2368971174	-0.133706
N	 0.738719511	 0.2009508124	-2.3045977552	-0.330527
C	 1.7836902509	 0.0007968178	-1.2720519514	-0.114449
H	-0.3344609594	 1.9822456184	 0.7938231028	 0.11614
H	-0.2920552748	 1.9089630924	-1.0331881335	 0.147385
H	 2.786772766	-0.2280597504	 1.2437266579	 0.1081
H	 2.4007565304	 1.3772435876	 1.8699193521	 0.108622
H	 1.1204398009	-0.894185879	 2.8813090857	 0.111465
H	 0.2849920245	 0.663976355	 2.7529314553	 0.104038
H	 0.3348131015	-1.8465330559	-1.4594463233	 0.099609
H	 1.0420166571	-0.3029903008	-3.1375079933	 0.232903
H	 2.79998914	-0.2494719842	-1.5515195118	 0.092946
178.5608	231.8825	311.1131	324.9672	434.5982	496.4963	538.6662	621.3577	660.3903	740.4801	797.1852	811.065	834.5654	850.3931	867.2005	891.7861	901.0684	932.5548	940.7863	975.7782	1013.6324	1032.2628	1081.6228	1091.1207	1102.0327	1159.3775	1197.612	1217.2122	1230.1111	1233.2157	1277.4406	1289.8395	1329.6313	1347.0271	1364.3973	1388.5906	1453.0921	1490.253	1523.4029	3010.7717	3042.6573	3078.1218	3090.9896	3146.0294	3178.7838	3202.8304	3240.8206	3475.529
C1C23CCOC12C1NC31	C1[C@@]23CCO[C@@]12[C@H]1N[C@@H]31	
InChI=1S/C7H9NO/c1-2-9-7-3-6(1,7)4-5(7)8-4/h4-5,8H,1-3H2	InChI=1S/C7H9NO/c1-2-9-7-3-6(1,7)4-5(7)8-4/h4-5,8H,1-3H2/t4-,5+,6-,7-/m1/s1
