14
gdb 129415	5.06086	1.04683	0.86895	2.0033	67.31	-0.2265	-0.0294	0.1971	1232.0959	0.103177	-466.198699	-466.190967	-466.190023	-466.231554	28.567	
N	 0.3819260931	 0.3437008777	-0.8749610921	-0.555973
C	 0.098843634	 0.0538271922	 0.4358271083	 0.420267
N	 0.9051376433	-0.1440408995	 1.4086633332	-0.562951
N	-1.264108773	-0.1028719292	 0.7352564187	-0.411224
C	-2.3619273483	 0.1645707801	-0.0183767227	 0.51835
N	-2.3548765991	 0.6186174867	-1.2557200405	-0.227878
O	-3.7263737718	 0.7187461201	-1.5647295777	-0.168878
C	-4.3762931446	 0.3161323112	-0.4787143996	 0.126455
N	-3.6237219662	-0.0392654219	 0.5104858201	-0.336325
H	 1.3077695758	 0.6896226125	-1.060839415	 0.254291
H	-0.3576637375	 0.6804841429	-1.4777612089	 0.280872
H	 1.8728005021	-0.0429441559	 1.1114578006	 0.20757
H	-1.4364521977	-0.3915582561	 1.6860320284	 0.28153
H	-5.45583302	 0.3220346394	-0.5206560429	 0.173894
74.1081	79.8289	192.0354	313.4763	370.3415	394.1097	426.9389	457.9714	576.9744	584.2221	604.8874	711.638	764.421	784.085	812.6162	914.1783	942.676	958.047	989.4664	1060.4678	1138.4971	1143.039	1168.2211	1274.8232	1328.2266	1453.1359	1483.1003	1594.389	1639.9612	1659.0968	1737.0599	3266.1891	3516.6894	3532.4986	3644.4791	3697.6758
NC(=N)NC1=NOC=N1	NC(=N)Nc1nocn1	
InChI=1S/C3H5N5O/c4-2(5)7-3-6-1-9-8-3/h1H,(H4,4,5,7,8)	InChI=1S/C3H5N5O/c4-2(5)7-3-6-1-9-8-3/h1H,(H4,4,5,7,8)
