20
gdb 109974	1.85543	1.52955	1.07432	4.2114	78.6	-0.2747	0.004	0.2787	1231.9563	0.169801	-403.151868	-403.142172	-403.141228	-403.187105	34.902	
C	 0.2041901626	 1.7794293447	 0.0073278952	-0.391622
C	 0.2201011197	 0.2491828011	 0.1012648587	-0.207022
C	 0.7767274411	-0.4131699131	-1.1527845655	-0.061283
C	 0.8275862403	-1.9641390542	-1.2750432657	 0.125176
C	 0.1249783904	-2.819267697	-0.2387748928	-0.402178
O	 0.0897900106	-1.916905205	-2.531917919	-0.291628
C	-0.0951360894	-0.4967806189	-2.4450075287	-0.016481
C	-1.5103402667	-0.126683981	-2.3102403641	 0.287207
N	-2.6203211752	 0.1748079297	-2.1935962027	-0.333303
H	 1.2108129547	 2.1767304255	-0.1638690101	 0.114671
H	-0.4378848208	 2.1218024474	-0.8103098494	 0.134234
H	-0.1779573602	 2.2221091733	 0.9314450623	 0.123103
H	 0.8379039382	-0.0595071285	 0.9538034028	 0.102425
H	-0.7925097064	-0.1146384375	 0.3044906161	 0.12354
H	 1.7466079672	 0.0295308208	-1.3961011537	 0.09254
H	 1.8382949398	-2.350184826	-1.4548602383	 0.08639
H	-0.8940949466	-2.4719410339	-0.0514594086	 0.135284
H	 0.0715349983	-3.8528107609	-0.5940682794	 0.133297
H	 0.6792518706	-2.8134239653	 0.7057856555	 0.120786
H	 0.312895692	 0.0226830988	-3.3199220324	 0.124861
36.3877	93.2334	139.9838	166.1185	214.2239	229.5044	245.6406	290.0758	376.8676	405.1456	476.1802	550.7462	584.8748	740.0732	784.0335	818.0584	861.6012	893.3912	963.4935	985.6836	1026.4856	1039.0126	1057.233	1082.4305	1114.3683	1160.3992	1185.4627	1223.7622	1267.6587	1291.5991	1316.123	1339.9007	1354.9008	1391.2665	1403.2403	1411.3772	1417.8153	1478.6039	1489.0891	1495.685	1501.0629	1506.3371	2349.7554	3026.4336	3030.997	3035.5576	3037.8055	3041.5476	3065.1547	3079.5817	3106.2592	3110.4657	3113.7238	3127.7662
CCC1C(C)OC1C#N	CC[C@H]1[C@@H](C)O[C@H]1C#N	
InChI=1S/C7H11NO/c1-3-6-5(2)9-7(6)4-8/h5-7H,3H2,1-2H3	InChI=1S/C7H11NO/c1-3-6-5(2)9-7(6)4-8/h5-7H,3H2,1-2H3/t5-,6+,7+/m1/s1
