17
gdb 16346	3.00971	1.85591	1.42266	1.1611	63.97	-0.2414	0.0486	0.2899	913.1026	0.141961	-400.939246	-400.931249	-400.930305	-400.971757	29.722	
O	 0.1228401678	 1.3933878691	 0.0545015151	-0.415393
C	 0.01457686	-0.0122851802	-0.1611591896	-0.192722
C	-1.4132951402	-0.4544091658	-0.0409879939	 0.299447
C	-2.0231989539	-0.9772355513	 1.2020512178	-0.293506
N	-1.8612792287	-1.9062014842	 0.0677070585	-0.176704
C	-3.006278653	-1.5768027506	-0.8613958825	-0.177022
C	-2.5051420807	-0.1317467216	-1.065184221	 0.049476
O	-3.4488808647	 0.8673742343	-0.756663343	-0.42921
H	-0.1595908151	 1.5663053793	 0.9591354623	 0.284483
H	 0.3868571572	-0.1809063191	-1.1774828551	 0.114947
H	 0.6532803249	-0.5886911209	 0.5241509002	 0.100508
H	-1.3539919444	-1.2008993724	 2.0283545113	 0.116887
H	-3.0233868641	-0.6616525545	 1.4892863499	 0.12604
H	-2.9650052609	-2.2008013035	-1.7553149154	 0.114483
H	-3.9913358862	-1.6648289685	-0.3939511001	 0.116238
H	-2.0754533464	 0.0199659191	-2.0646148566	 0.076578
H	-2.9990465519	 1.7183080608	-0.8049066479	 0.28547
71.8739	112.7695	186.5564	260.9038	314.0846	348.5896	372.3672	406.4665	492.1775	540.3179	702.8454	742.2518	809.1657	881.6222	893.2265	943.7396	971.9276	1007.1553	1038.3651	1059.8756	1106.4356	1120.7834	1133.411	1174.4372	1203.2395	1231.7379	1273.0873	1296.1738	1331.0346	1360.5538	1399.6609	1420.2145	1428.6092	1485.0819	1500.1636	1512.046	2998.9554	3010.0355	3061.9824	3071.3399	3106.0546	3127.8072	3195.9913	3802.6951	3805.9892
OCC12CN1CC2O	OC[C@]12CN1C[C@H]2O	
InChI=1S/C5H9NO2/c7-3-5-2-6(5)1-4(5)8/h4,7-8H,1-3H2	InChI=1S/C5H9NO2/c7-3-5-2-6(5)1-4(5)8/h4,7-8H,1-3H2/t4-,5+,6?/m1/s1
