18
gdb 98306	3.03976	1.06918	0.89574	2.4383	68.82	-0.2469	0.0085	0.2554	1331.6293	0.146349	-476.21905	-476.209285	-476.208341	-476.254692	33.903	
C	-0.2539309264	 1.3065259858	 0.1556874354	-0.240651
O	-0.1582181786	-0.1226163125	 0.2457950057	-0.232941
C	 0.7699700038	-0.5897596236	 1.1018773524	 0.430811
O	 1.4976538177	 0.1128494368	 1.7555639336	-0.361386
C	 0.8109264439	-2.1278844707	 1.098734659	-0.140826
N	 1.7831254311	-2.6738325535	 2.0276170706	-0.518538
C	-0.5738297842	-2.7051955725	 1.3660005849	 0.092611
C	-0.7542768291	-4.0432388563	 1.9347591037	-0.18252
O	-0.9264183103	-2.8661092208	 2.7408218859	-0.241203
H	 0.6947379929	 1.7335102994	-0.178650055	 0.14262
H	-1.0411123507	 1.5063127181	-0.5710755469	 0.13562
H	-0.510504709	 1.7354277108	 1.1272454483	 0.14612
H	 1.0810522934	-2.4150980835	 0.0715755144	 0.11752
H	 2.6343439559	-2.1226952045	 1.9746453859	 0.241518
H	 1.4214166268	-2.5330296539	 2.9682797132	 0.246323
H	-1.3617780592	-2.2882006673	 0.7426153907	 0.109699
H	-1.6695457621	-4.593687149	 1.7238544092	 0.11653
H	 0.1235483841	-4.6374931728	 2.1715916192	 0.138691
44.8078	75.8276	117.0614	141.2683	180.6975	226.4893	261.3616	278.2307	343.9133	364.9725	463.62	570.5663	649.5082	773.725	806.4326	881.0263	893.7435	943.4627	966.521	1022.1371	1047.0544	1098.3246	1142.3123	1169.2055	1178.4334	1181.8883	1201.9165	1213.43	1257.4071	1298.8869	1317.0532	1387.7069	1432.4077	1472.2692	1482.2329	1496.6755	1517.4802	1658.8268	1822.0261	3006.0214	3054.4493	3099.1378	3131.0242	3142.7236	3161.743	3201.441	3493.2707	3568.8973
COC(=O)C(N)C1CO1	COC(=O)[C@@H](N)[C@H]1CO1	
InChI=1S/C5H9NO3/c1-8-5(7)4(6)3-2-9-3/h3-4H,2,6H2,1H3	InChI=1S/C5H9NO3/c1-8-5(7)4(6)3-2-9-3/h3-4H,2,6H2,1H3/t3-,4+/m1/s1
