18
gdb 111909	2.34362	1.37581	0.91608	2.266	73.94	-0.2655	-0.0186	0.2469	1290.8161	0.146771	-439.157098	-439.14811	-439.147166	-439.191157	32.409	
C	 0.0097626453	 1.5857414077	-0.0238568272	-0.388904
C	 0.0371146641	 0.0570393571	-0.0247512408	-0.17247
C	 0.6975701116	-0.5225540795	 1.2365992198	-0.143535
N	-0.0546673321	-0.2557318736	 2.4628603424	-0.290075
C	-0.3011273601	-1.3864860113	 2.984303714	 0.406327
C	-1.0429987912	-1.6672700657	 4.2404743874	-0.477787
O	 0.1679083482	-2.5116276389	 2.3214905416	-0.234378
C	 0.8156192441	-2.0438810268	 1.1828306971	 0.423533
O	 1.3178678515	-2.7698898522	 0.3836693656	-0.325167
H	 1.0243344944	 1.9984371671	-0.0009976529	 0.116742
H	-0.4850959357	 1.9644350068	-0.9229032314	 0.116792
H	-0.5264337155	 1.9640652635	 0.8502599852	 0.141796
H	-0.9824939773	-0.3393542984	-0.0977956441	 0.107505
H	 0.5896982158	-0.3246664105	-0.8901515321	 0.125021
H	 1.7070805291	-0.0996196095	 1.3307838378	 0.127327
H	-1.9047353566	-2.3105354217	 4.0364080071	 0.154547
H	-0.4002677814	-2.1994327948	 4.9489436454	 0.155057
H	-1.3785402241	-0.7289745992	 4.681337365	 0.157669
84.1445	117.7794	159.7352	166.2004	173.0786	245.0619	292.5801	328.1963	417.226	559.7871	614.1961	628.0349	667.9781	728.2969	796.7898	874.9223	918.4325	928.3381	976.4336	1033.0894	1063.4541	1067.3235	1114.9031	1137.4662	1157.842	1257.2886	1268.6745	1290.9604	1329.8903	1370.3794	1412.5208	1414.3135	1472.9396	1473.6444	1483.5299	1495.9101	1508.7277	1741.3843	1913.3658	3021.9669	3037.8892	3040.7898	3051.0006	3080.2707	3106.7748	3109.8328	3126.0538	3165.4771
CCC1N=C(C)OC1=O	CC[C@H]1N=C(C)OC1=O	
InChI=1S/C6H9NO2/c1-3-5-6(8)9-4(2)7-5/h5H,3H2,1-2H3	InChI=1S/C6H9NO2/c1-3-5-6(8)9-4(2)7-5/h5H,3H2,1-2H3/t5-/m1/s1
