14
gdb 79672	2.89361	1.52179	1.22668	4.0144	66.75	-0.261	-0.009	0.252	990.5243	0.100583	-436.608992	-436.601868	-436.600924	-436.640481	27.851	
O	 0.1095043817	 1.4179591398	-0.0590434673	-0.412025
C	-0.0369583983	 0.0571689547	 0.04815218	 0.114291
C	-0.4231484861	-0.7508414078	 1.2515026464	-0.213498
C	-1.6140653987	-0.169409135	 2.0549573734	 0.029949
O	-2.0305345133	 1.0837367911	 1.4652171958	-0.263769
C	-2.4752091153	-0.1504377202	 0.8810528286	-0.033571
C	-1.3476712173	-0.7380474839	-0.0252272409	 0.069171
C	-1.5823816411	-1.7874574297	-0.951235865	 0.200171
N	-1.7850102348	-2.6416106141	-1.7079274716	-0.343422
H	-0.5947962231	 1.815676327	 0.4713527989	 0.304959
H	 0.7330410773	-0.4421511748	-0.5355426234	 0.141917
H	 0.1555533129	-1.5952955241	 1.6038435477	 0.128354
H	-1.8257431066	-0.3196993221	 3.1050350596	 0.137926
H	-3.5386034474	-0.2996501209	 0.7466778079	 0.139547
135.3211	158.1839	260.6809	288.0361	442.288	458.709	489.6027	532.5111	564.5198	627.2922	678.0925	759.1359	765.7365	812.9498	868.0281	887.4664	935.8362	966.6727	977.6942	1037.1063	1071.0477	1120.9353	1180.755	1216.2629	1241.6372	1268.9385	1299.0825	1342.4493	1423.7372	1481.1439	2334.325	3151.3941	3200.9936	3207.8123	3221.6927	3742.767
OC1C2C3OC3C12C#N	O[C@H]1[C@H]2[C@H]3O[C@H]3[C@@]12C#N	
InChI=1S/C6H5NO2/c7-1-6-2(4(6)8)3-5(6)9-3/h2-5,8H	InChI=1S/C6H5NO2/c7-1-6-2(4(6)8)3-5(6)9-3/h2-5,8H/t2-,3-,4+,5-,6-/m1/s1
