17
gdb 122622	3.72524	0.8512	0.7261	2.3706	65.4	-0.2631	-0.0095	0.2536	1501.1778	0.134791	-496.099519	-496.09047	-496.089526	-496.134895	31.476	
O	-0.0796046497	 1.3359911596	 0.3359655638	-0.418904
C	 0.0411854652	-0.0034395801	-0.0987264877	-0.065279
C	-1.3113138616	-0.6875517685	-0.1972661736	-0.089703
O	-2.0719297677	 0.0523372731	-1.1578934413	-0.26837
C	-3.3941595149	-0.3695707279	-1.2782921514	-0.044649
C	-4.1949188291	 0.3350394015	-2.383560175	-0.112429
O	-4.4380887665	-0.9505420922	-3.0430420697	-0.235462
C	-3.6562683573	-1.628817515	-2.1416184708	 0.432739
O	-3.3474298549	-2.7757672971	-2.1529625225	-0.316707
H	-0.7133652635	 1.7543094578	-0.2575344888	 0.288616
H	 0.5491627186	-0.0698862559	-1.073599542	 0.100858
H	 0.6587633213	-0.527689349	 0.6373995449	 0.11681
H	-1.2088372404	-1.7338060973	-0.5126131418	 0.126924
H	-1.8230255717	-0.6585550134	 0.7766654631	 0.104361
H	-3.9023571993	-0.4172908274	-0.304132416	 0.109258
H	-5.1333116121	 0.8098591974	-2.0945373468	 0.132587
H	-3.5921230866	 0.9903759645	-3.0143136143	 0.139351
44.6708	62.1537	105.1658	139.6635	206.2703	260.1013	333.2834	381.4684	416.0979	494.9378	532.7108	722.8198	757.1443	830.9806	901.0545	906.4161	940.2451	963.5444	1045.743	1090.6054	1099.1643	1122.1304	1136.4654	1156.7412	1195.9764	1236.9342	1243.0665	1268.8204	1326.0817	1372.3013	1389.1573	1421.7924	1440.8671	1497.3573	1506.4053	1510.1354	1936.7366	2986.2546	2995.9064	3006.142	3056.7467	3083.9321	3085.8288	3151.3088	3805.2588
OCCOC1COC1=O	OCCO[C@H]1COC1=O	
InChI=1S/C5H8O4/c6-1-2-8-4-3-9-5(4)7/h4,6H,1-3H2	InChI=1S/C5H8O4/c6-1-2-8-4-3-9-5(4)7/h4,6H,1-3H2/t4-/m0/s1
