21
gdb 88424	3.26433	1.10927	0.99304	2.8731	78.92	-0.2356	0.068	0.3036	1291.2879	0.180734	-424.192077	-424.182451	-424.181506	-424.226207	37.026	
C	-0.1283175943	 1.4603725214	-0.1714215074	-0.40513
C	 0.1060737452	-0.0276224501	-0.0383925503	-0.042888
C	 1.5094327742	-0.6040990119	-0.0532862158	-0.353427
C	 0.6865695805	-0.6190031045	 1.217322705	 0.42101
O	 1.0284224054	 0.3201436853	 2.203475356	-0.482555
C	 0.1092133518	-1.8909530548	 1.7865134779	-0.112616
C	 0.6545147105	-3.258773068	 1.4184515304	-0.331956
C	 0.9300418682	-2.6706288528	 2.7748431597	 0.08917
O	 2.1994420361	-2.1410206838	 3.0598476303	-0.423916
H	 0.6132184863	 2.0209475001	 0.4011645955	 0.133437
H	-0.0690728249	 1.7730014524	-1.2198342792	 0.107556
H	-1.1182483401	 1.7401748321	 0.205672188	 0.112701
H	-0.6450480685	-0.6497481384	-0.5202907407	 0.079427
H	 1.6893880728	-1.523754337	-0.5992128057	 0.099632
H	 2.3317179462	 0.1038215015	-0.0682224775	 0.108263
H	 1.7262047393	-0.0955567892	 2.726790007	 0.292142
H	-0.9529331594	-1.8382758617	 2.0113297461	 0.094891
H	-0.031665052	-4.0953152093	 1.3431212199	 0.112311
H	 1.4862197537	-3.285222091	 0.7230670629	 0.117426
H	 0.4227364444	-3.100015522	 3.6374448313	 0.090558
H	 2.8346767548	-2.8617843484	 3.1121455265	 0.293963
62.9114	134.5174	183.7795	188.9494	230.801	240.9027	271.7834	362.9488	388.4603	415.4969	455.5086	508.112	563.0615	606.9312	704.1626	791.955	824.3537	843.6923	885.6032	890.6774	932.8206	960.1531	1009.4867	1022.9166	1043.6805	1058.8353	1073.1318	1128.9866	1134.2114	1140.9517	1168.7561	1190.9153	1226.4875	1253.9408	1275.7597	1292.4797	1358.3343	1378.8611	1403.0256	1417.0075	1434.1022	1478.4446	1489.4352	1496.3524	1507.9472	3031.6207	3086.7062	3109.0319	3119.8098	3126.5302	3132.4013	3137.1832	3138.5591	3215.2485	3223.1562	3765.1708	3816.1344
CC1CC1(O)C1CC1O	C[C@H]1C[C@]1(O)[C@H]1C[C@H]1O	
InChI=1S/C7H12O2/c1-4-3-7(4,9)5-2-6(5)8/h4-6,8-9H,2-3H2,1H3	InChI=1S/C7H12O2/c1-4-3-7(4,9)5-2-6(5)8/h4-6,8-9H,2-3H2,1H3/t4-,5-,6+,7+/m0/s1
