16
gdb 6821	3.12566	1.73142	1.43641	2.5216	66.83	-0.248	0.0169	0.2648	917.6823	0.127526	-383.682268	-383.673843	-383.672899	-383.714866	31.249	
C	-0.1677664133	 1.5526715303	-0.0913579177	-0.457019
C	-0.0157905559	 0.0415315004	-0.0685477943	 0.3194
O	-1.1911181734	-0.6244399464	-0.4565848429	-0.460719
C	 1.2275263847	-0.5008241712	-0.7981953982	-0.094912
O	 1.9210777169	-0.7212146035	 0.4483583095	-0.285892
C	 0.7016955667	-0.5393307266	 1.2088993095	-0.093661
C	 0.8575248881	 0.277203629	 2.3953295305	 0.31613
C	 0.9553513746	 0.9622588558	 3.3789235013	-0.439076
H	 0.7717800851	 2.0444735603	 0.1719885039	 0.143462
H	-0.4725369969	 1.8799890876	-1.0902364513	 0.125072
H	-0.9222739278	 1.879325042	 0.6338324301	 0.119684
H	-1.9463133731	-0.1577344915	-0.0831898534	 0.283647
H	 1.0206069713	-1.4373178731	-1.3305604604	 0.109975
H	 1.7679008174	 0.1910915234	-1.452338101	 0.108348
H	 0.2552298704	-1.5095869706	 1.4683227902	 0.103944
H	 1.0534206853	 1.5608681942	 4.2508818244	 0.201619
75.9174	138.7293	196.9396	254.6014	270.0904	296.6056	353.1249	384.0981	421.3049	526.474	556.1016	620.7678	665.5165	675.9266	809.6065	917.7729	932.2712	956.2967	995.0083	1014.4575	1069.1602	1123.5597	1155.7106	1175.4963	1199.535	1276.7349	1330.7381	1360.0689	1400.2987	1412.5699	1487.1856	1491.2109	1517.44	2231.1161	3005.3185	3024.9896	3032.5827	3081.7437	3101.2175	3128.308	3501.5071	3809.32
CC1(O)COC1C#C	C[C@@]1(O)CO[C@H]1C#C	
InChI=1S/C6H8O2/c1-3-5-6(2,7)4-8-5/h1,5,7H,4H2,2H3	InChI=1S/C6H8O2/c1-3-5-6(2,7)4-8-5/h1,5,7H,4H2,2H3/t5-,6+/m0/s1
