15
gdb 54642	4.21876	1.23376	1.0278	3.2896	66.93	-0.2533	-0.0394	0.214	1120.0083	0.113591	-453.971542	-453.96388	-453.962936	-454.004177	28.814	
N	-0.0931185688	 1.282387293	-0.0153960903	-0.528625
C	 0.0269731056	-0.0686268241	-0.0170948143	 0.333274
O	 1.070624706	-0.6853385217	-0.0449235203	-0.344892
C	-1.3160332089	-0.7542613424	 0.023149916	 0.324061
N	-2.4469605982	-0.1571346347	 0.0488175786	-0.320277
C	-3.4501190907	-1.1914321956	 0.0475610422	-0.026442
C	-3.4525251903	-2.1032914026	-1.1653375587	-0.317503
C	-2.6640166895	-2.4989246692	 0.0444464097	 0.05939
O	-1.3008003933	-2.106534365	 0.0600925462	-0.222898
H	 0.740415432	 1.8447129803	-0.0079511758	 0.267591
H	-1.0055147356	 1.7057175366	 0.0287594205	 0.278803
H	-4.3622448893	-0.9968603494	 0.5974862996	 0.110752
H	-4.361488783	-2.6676723296	-1.3408511485	 0.129136
H	-2.9250980499	-1.7782323491	-2.0558029149	 0.134846
H	-2.8534320462	-3.3952693965	 0.6193614	 0.122785
54.6677	139.316	200.0658	257.7492	367.7002	377.5778	452.5863	493.9284	578.2631	651.4606	659.6766	743.0857	749.2242	809.3072	823.2729	919.5406	940.0118	985.4418	1027.9467	1047.2261	1080.6598	1098.5512	1127.9167	1134.9046	1181.2691	1228.3583	1313.4548	1362.4888	1411.3788	1460.3057	1599.2144	1665.6774	1814.342	3134.9515	3190.0079	3207.9473	3230.3793	3598.3576	3742.6481
NC(=O)C1=NC2CC2O1	NC(=O)C1=N[C@H]2C[C@H]2O1	
InChI=1S/C5H6N2O2/c6-4(8)5-7-2-1-3(2)9-5/h2-3H,1H2,(H2,6,8)	InChI=1S/C5H6N2O2/c6-4(8)5-7-2-1-3(2)9-5/h2-3H,1H2,(H2,6,8)/t2-,3+/m0/s1
