25
gdb 118779	2.71041	1.04825	0.88263	0.9265	90.62	-0.2407	0.0831	0.3238	1491.835	0.225261	-389.486104	-389.474743	-389.473799	-389.522202	42.111	
C	 0.2230568449	 1.5117748031	 0.151241186	-0.384197
C	 0.2960415544	 0.0060040854	-0.0435310168	-0.046326
O	 0.3153920352	-0.6020889313	 1.2388094882	-0.290792
C	 0.5630186905	-1.9860727919	 1.2539852702	 0.407305
C	-0.6063474609	-2.8085461141	 0.7520413338	-0.45651
C	 1.9907253923	-2.4244079206	 0.9934557197	-0.39221
C	 1.4315923806	-2.444494302	 2.4089975827	 0.272168
C	 1.9413749112	-1.3959196533	 3.3821169113	-0.439699
C	 1.1786618063	-3.7896688945	 3.0675218086	-0.4569
H	 1.0978372275	 1.8733971636	 0.6995279973	 0.12296
H	 0.18453317	 2.0201389323	-0.8170435444	 0.112375
H	-0.6711770604	 1.7815440377	 0.720361386	 0.12636
H	-0.5701621119	-0.3409356734	-0.6270189	 0.089066
H	 1.1996434331	-0.2705293007	-0.6079428104	 0.088193
H	-0.8315621612	-2.5721182202	-0.2932457323	 0.11689
H	-0.4033132152	-3.879517981	 0.8017506526	 0.117135
H	-1.5026273336	-2.5988473823	 1.3454959334	 0.12186
H	 2.1592191038	-3.3702347135	 0.4870378644	 0.101648
H	 2.713190049	-1.651475666	 0.7519095003	 0.107942
H	 2.0704517469	-0.4276449355	 2.8985705995	 0.124538
H	 1.2385098216	-1.2611935225	 4.2127184415	 0.110955
H	 2.902043983	-1.7079597771	 3.808249228	 0.105345
H	 2.0843140237	-4.1285062931	 3.5842140128	 0.114874
H	 0.3799246478	-3.7230620562	 3.8158020903	 0.115421
H	 0.9046595817	-4.5688887529	 2.3526013574	 0.111598
60.7881	101.9798	120.1995	174.1268	178.066	186.5618	214.2061	255.9832	289.7175	320.8747	334.1494	376.5736	409.8155	444.6378	465.5526	541.4804	698.7427	723.7333	821.6453	863.0962	908.1885	908.7925	930.7727	973.1514	980.1384	1019.1667	1037.2416	1043.2051	1090.2185	1109.0281	1151.7697	1159.8025	1187.802	1209.2175	1222.4779	1295.7462	1301.9151	1379.7496	1399.5979	1409.1166	1410.6453	1426.1084	1427.8972	1478.0558	1479.5412	1483.8174	1489.3291	1492.0666	1496.0852	1499.9676	1508.2096	1519.436	1530.0868	2980.2283	3009.1699	3023.3841	3028.7694	3040.0182	3042.9766	3077.9436	3081.7105	3096.432	3112.4859	3116.7527	3119.4577	3119.8052	3136.0565	3145.9708	3206.57
CCOC1(C)CC1(C)C	CCO[C@@]1(C)CC1(C)C	
InChI=1S/C8H16O/c1-5-9-8(4)6-7(8,2)3/h5-6H2,1-4H3	InChI=1S/C8H16O/c1-5-9-8(4)6-7(8,2)3/h5-6H2,1-4H3/t8-/m0/s1
