15
gdb 16513	3.86436	2.4648	1.79057	3.9289	65.45	-0.2171	-0.0546	0.1625	740.529	0.117209	-362.524239	-362.517672	-362.516728	-362.554409	26.084	
C	 0.0955800006	 1.4789353615	 0.0728565351	-0.492506
C	-0.0421191656	-0.0137303416	-0.0808771032	 0.262042
C	 0.8090608294	-0.7734122113	-1.1367758955	-0.209601
N	 0.4576980641	-2.2159275151	-0.902470515	-0.228329
C	-0.5814805659	-2.0888776684	-0.1911902322	 0.26391
O	-0.5623339723	-2.3252234998	 1.1928705728	-0.265002
C	-0.6684961227	-0.8299029185	 1.1917464019	 0.028885
C	-1.3514912115	-0.7320789594	-0.0932501241	-0.230794
H	 1.107801567	 1.7481469766	 0.3937048605	 0.13327
H	-0.097058542	 1.9851671386	-0.8805436357	 0.13007
H	-0.6089473958	 1.8810582461	 0.8073815315	 0.125075
H	 0.608064075	-0.3899646575	-2.1496165013	 0.108148
H	 1.8873701469	-0.7079526641	-0.9565010114	 0.131116
H	-0.8444505144	-0.3871212766	 2.165007162	 0.128456
H	-2.3570371827	-0.4694853806	-0.3951055253	 0.115261
197.427	238.2733	272.2871	282.002	406.44	486.4094	575.9095	596.7122	627.1734	720.8568	784.9059	816.3716	836.0845	889.0142	919.4988	952.0311	985.6217	1023.4578	1047.4567	1079.8431	1110.5165	1159.4453	1176.2991	1220.7308	1226.5619	1302.2366	1365.8827	1414.5768	1479.8568	1486.3184	1495.4033	1620.7455	2979.18	3026.5449	3068.8234	3087.3378	3102.6632	3188.0175	3200.07
CC12CN=C3OC1C23	C[C@@]12C[N][C]3O[C@@H]1[C@@H]23	
InChI=1S/C6H7NO/c1-6-2-7-5-3(6)4(6)8-5/h3-4H,2H2,1H3	InChI=1S/C6H7NO/c1-6-2-7-5-3(6)4(6)8-5/h3-4H,2H2,1H3/t3-,4-,6+/m1/s1
