16
gdb 9073	4.61004	1.06148	0.98633	4.8896	66.33	-0.2693	0.0111	0.2804	1170.8903	0.130041	-379.965648	-379.956752	-379.955807	-380.000072	30.479	
C	-0.6884937518	 1.4544844167	-0.2721148735	-0.382548
C	-0.1201545434	 0.0352783544	-0.0915042792	-0.142024
C	-1.2243706799	-1.0369760616	 0.1159828474	-0.165175
N	-1.9669490549	-0.850701886	 1.347137839	-0.279425
C	-3.2187113675	-0.3092254265	 1.3803660384	 0.154763
O	-3.8088039262	 0.132565637	 0.4193638273	-0.315654
C	 0.7093636135	-0.3497638576	-1.2375998561	 0.267492
N	 1.3521941097	-0.6669425155	-2.1442405442	-0.316626
H	 0.1185639359	 2.1800603956	-0.3974256551	 0.134419
H	-1.3412719639	 1.5019679123	-1.146795584	 0.152348
H	-1.2753224266	 1.7322081566	 0.6056158558	 0.13733
H	 0.5331366199	 0.0235155076	 0.7912203351	 0.121659
H	-1.9415049856	-0.9850321149	-0.7063111919	 0.164917
H	-0.7700774656	-2.0321116884	 0.1142242762	 0.13051
H	-1.5855549677	-1.2138707389	 2.2062641291	 0.253227
H	-3.6419735259	-0.3168003308	 2.4038060757	 0.084787
44.1185	65.1752	143.4287	199.1956	212.8206	262.2581	272.2495	333.1785	448.1806	520.4895	537.4986	564.2388	749.5146	826.8584	904.4624	940.0631	996.2569	1032.7946	1073.1429	1116.8493	1156.4811	1208.9773	1279.6854	1313.6307	1349.3122	1395.9556	1417.8046	1429.4744	1472.2777	1488.4247	1497.8926	1530.6546	1808.8669	2357.1614	2945.3489	3024.0373	3059.2066	3062.3627	3127.3872	3136.6444	3143.1956	3633.826
CC(CNC=O)C#N	C[C@@H](CNC=O)C#N	
InChI=1S/C5H8N2O/c1-5(2-6)3-7-4-8/h4-5H,3H2,1H3,(H,7,8)	InChI=1S/C5H8N2O/c1-5(2-6)3-7-4-8/h4-5H,3H2,1H3,(H,7,8)/t5-/m1/s1
