14
gdb 125564	3.57149	1.71593	1.16752	6.2435	68.39	-0.2348	-0.0138	0.221	976.1042	0.103077	-432.882088	-432.875313	-432.874368	-432.913293	25.713	
C	-0.0182619204	 1.5109952366	 0.0024185887	-0.498671
C	-0.0113633095	 0.0250115144	 0.0012337215	 0.333693
N	-0.040458807	-0.7543735842	-1.0591792051	-0.265405
N	-0.0217691383	-2.0933375536	-0.6739716473	-0.351345
C	 0.017673355	-2.043549708	 0.6223731939	 0.496654
O	 0.0529284909	-2.9430511763	 1.6310714427	-0.216873
C	 0.0846760454	-2.1884987041	 2.7884212841	-0.034919
C	 0.070240173	-0.8681548391	 2.5207194017	-0.14194
N	 0.027034677	-0.7726305778	 1.1266619716	-0.098129
H	 0.881007302	 1.9226793893	 0.474716774	 0.136539
H	-0.0533873002	 1.8526124428	-1.0330801455	 0.168002
H	-0.8888750113	 1.9143711046	 0.5320710416	 0.136465
H	 0.1156020032	-2.7398606332	 3.7118818265	 0.167623
H	 0.0865256502	-0.0205087415	 3.1824617517	 0.168307
144.6132	185.2225	226.1342	251.7221	386.4825	539.5827	581.0983	631.5012	656.9395	719.8444	721.2191	755.0444	798.7745	811.8006	931.7927	1011.0782	1044.9446	1055.7565	1066.8181	1110.0942	1179.006	1235.7697	1306.8581	1410.8053	1415.951	1437.0372	1480.1848	1489.6484	1547.826	1599.2687	1645.8025	3031.508	3082.3464	3148.1239	3291.8434	3313.0308
CC1=NN=C2OC=CN12	Cc1nnc2occn12	
InChI=1S/C5H5N3O/c1-4-6-7-5-8(4)2-3-9-5/h2-3H,1H3	InChI=1S/C5H5N3O/c1-4-6-7-5-8(4)2-3-9-5/h2-3H,1H3
