15
gdb 56714	2.85759	1.29081	1.04737	2.7658	71.7	-0.2724	0.0098	0.2822	1133.7373	0.110628	-416.744928	-416.735835	-416.734891	-416.778971	32.965	
N	 0.6747612807	 1.5422732241	-0.1021067935	-0.489237
C	 0.1682769708	 0.1784320366	 0.0121578404	-0.212456
C	 0.4153242648	-0.6422487571	-1.1941259244	 0.269921
N	 0.5993966909	-1.2358504319	-2.1690053671	-0.331524
C	 0.7795615804	-0.4592182539	 1.2677008098	 0.17895
C	 1.3280979213	-1.8307815336	 1.2578113489	-0.216736
O	 2.1914664603	-0.6975945788	 1.1621813562	-0.261736
C	 0.3154119143	 0.1144305891	 2.5077731842	 0.297509
C	-0.1027731466	 0.5739076749	 3.5355813819	-0.372754
H	 1.6821264371	 1.5147183862	-0.2332287743	 0.257304
H	 0.2740350896	 2.0032158482	-0.9124580989	 0.24903
H	-0.9170365984	 0.2267479981	 0.1575305831	 0.144681
H	 1.3728337207	-2.3702112113	 2.2012044616	 0.133549
H	 1.2470059552	-2.4357192903	 0.3579843833	 0.149643
H	-0.4596612711	 0.9890975696	 4.4460844888	 0.203856
48.8336	126.4501	164.7451	188.7383	229.215	265.8561	307.8727	360.2316	420.1247	491.6446	552.5035	560.9762	612.1852	631.3021	683.6731	743.8123	841.715	872.296	894.7765	966.7752	981.9019	1102.7494	1132.8128	1178.4589	1193.5561	1206.3753	1330.7247	1366.927	1389.5092	1516.5082	1657.3212	2245.519	2347.2571	3055.485	3102.0086	3200.3009	3500.0915	3501.9421	3586.9189
NC(C#N)C1(CO1)C#C	N[C@@H](C#N)[C@]1(CO1)C#C	
InChI=1S/C6H6N2O/c1-2-6(4-9-6)5(8)3-7/h1,5H,4,8H2	InChI=1S/C6H6N2O/c1-2-6(4-9-6)5(8)3-7/h1,5H,4,8H2/t5-,6+/m0/s1
