18
gdb 12223	2.58787	1.94767	1.72974	3.0606	67.59	-0.2509	-0.0379	0.213	882.6301	0.152987	-384.941757	-384.933536	-384.932592	-384.974339	30.44	
C	 0.9535772141	 1.3945824715	 0.1949121887	-0.411335
C	 0.134143006	 0.1165889515	 0.0470291979	-0.017132
C	 0.6704865356	-0.8987344944	-1.004920307	-0.255434
C	 1.2126105302	-1.8156104797	 0.1579918496	-0.152288
C	 2.703372666	-1.7259890407	 0.2771541777	 0.156858
O	 3.3110098069	-0.9675240163	 1.0029148483	-0.267897
C	 0.3688907462	-0.9631374787	 1.1597417984	 0.1419
O	 0.9193373222	-0.6010227946	 2.3900781704	-0.431127
H	 2.0223397152	 1.1871369886	 0.3014768413	 0.128946
H	 0.8227401398	 2.0379936315	-0.6816266686	 0.110803
H	 0.6352532302	 1.9538746756	 1.0796471476	 0.128675
H	-0.9203388812	 0.3759492295	-0.0863280999	 0.072536
H	-0.1097531862	-1.3983421285	-1.5819221113	 0.113318
H	 1.4221310928	-0.5139723237	-1.6996446248	 0.109861
H	 0.9422358579	-2.8724685967	 0.0643177416	 0.089712
H	 3.2646747329	-2.4098788676	-0.3977556111	 0.095927
H	-0.5692844712	-1.4828957243	 1.3794740625	 0.087937
H	 1.8549640727	-0.4067841829	 2.2346578785	 0.29874
90.1658	100.6671	210.1578	225.1783	250.7	275.9279	353.1947	398.2148	538.1941	569.4662	671.2696	758.2304	763.3254	816.691	869.869	897.2708	910.5438	984.0451	1024.4089	1049.3817	1093.6349	1130.4753	1160.8385	1176.4241	1212.5399	1239.5851	1262.9253	1275.0113	1324.5811	1356.6391	1371.8857	1411.6679	1426.1761	1464.3577	1487.1752	1497.6849	1505.355	1788.4453	2886.5171	3037.4822	3044.7396	3054.8939	3058.1328	3067.309	3104.9567	3115.9737	3120.659	3720.399
CC1CC(C=O)C1O	C[C@H]1C[C@@H](C=O)[C@H]1O	
InChI=1S/C6H10O2/c1-4-2-5(3-7)6(4)8/h3-6,8H,2H2,1H3	InChI=1S/C6H10O2/c1-4-2-5(3-7)6(4)8/h3-6,8H,2H2,1H3/t4-,5-,6-/m0/s1
