20
gdb 79406	2.39955	1.56793	1.47065	1.5156	79.67	-0.2372	0.0716	0.3088	1056.3874	0.169405	-403.067444	-403.058657	-403.057713	-403.100071	34.325	
C	-0.1304959451	 1.5639403962	-0.0488118046	-0.434086
C	-0.0195393455	 0.0554406839	 0.0575406958	-0.004092
N	 1.1805741764	-0.5857360242	-0.6452367832	-0.196783
C	 2.0946424085	-0.2858705821	 0.5653734035	-0.081843
C	 2.5806144783	-1.7339090164	 0.624009592	-0.317589
C	 1.0809940877	-1.8239233281	 0.3052247587	 0.34324
C	 0.2609940282	-3.0307608329	-0.0415327658	-0.522175
C	 0.7098202842	-0.6214676516	 1.2209495118	 0.298646
O	 0.3705768172	-0.7490490159	 2.5587527269	-0.471681
H	 0.784247032	 2.0704358188	 0.2741900664	 0.114772
H	-0.3292545855	 1.8591413848	-1.0841278715	 0.131463
H	-0.9578502226	 1.9334081134	 0.5673059486	 0.115886
H	-0.9583977867	-0.4211212068	-0.2493068706	 0.070249
H	 2.6698668342	 0.6388778931	 0.6100336269	 0.078318
H	 3.2611442837	-2.0470739246	-0.1727254218	 0.101611
H	 2.8952467946	-2.1087697524	 1.6004643789	 0.104665
H	 0.2447318558	-3.7295241488	 0.8013706018	 0.130911
H	-0.7737754906	-2.7638860817	-0.2774379615	 0.125625
H	 0.6865518443	-3.5466163891	-0.9080132994	 0.129847
H	 0.3364088506	 0.1285669044	 2.9555564872	 0.283014
182.5668	188.2495	191.9245	205.3478	218.8074	247.7376	303.2379	320.114	412.9091	503.9191	534.6011	624.0808	657.1745	727.0301	767.2165	844.5843	875.3125	884.4721	926.0905	941.6762	977.1153	1011.0031	1037.5233	1059.1949	1116.2155	1135.2824	1144.8763	1163.208	1189.7383	1217.2737	1225.7273	1240.1659	1277.0837	1318.0107	1373.3558	1404.7237	1410.5066	1422.7122	1483.894	1487.534	1492.4039	1494.8353	1495.9469	3032.2198	3034.5007	3039.1951	3058.0463	3098.0197	3105.9098	3106.5137	3109.1911	3116.3176	3124.7669	3800.2595
CC1N2C3CC2(C)C13O	C[C@H]1N2[C@@H]3C[C@@]2(C)[C@]13O	
InChI=1S/C7H11NO/c1-4-7(9)5-3-6(7,2)8(4)5/h4-5,9H,3H2,1-2H3	InChI=1S/C7H11NO/c1-4-7(9)5-3-6(7,2)8(4)5/h4-5,9H,3H2,1-2H3/t4-,5-,6+,7+/m1/s1
