16
gdb 33960	3.39927	1.43366	1.25146	2.8743	73.36	-0.2442	0.0022	0.2465	1009.3584	0.126878	-396.889033	-396.882075	-396.881131	-396.920309	27.615	
N	 0.0245593739	-1.1220359049	-0.0981901593	-0.335603
C	 0.0349837496	 0.0308694055	-0.0019582594	 0.183857
C	 0.0333727437	 1.4616587569	 0.1051374077	 0.223905
N	 0.3157942156	 2.2824084326	-1.102439433	-0.362612
C	 1.291682136	 2.2727301984	-0.0086459398	-0.089802
C	 1.1548953092	 3.4369410724	 0.9667525975	-0.171915
N	-0.1551075587	 3.3328721544	 1.648552872	-0.105098
C	-1.354622135	 3.4995004977	 0.8132926503	-0.245227
C	-0.8542898696	 2.1388343971	 1.1333821781	-0.096472
H	 0.6278697737	 1.6789198347	-1.8608842539	 0.253357
H	 2.2564621866	 1.7986552849	-0.162209901	 0.11928
H	 1.9372619154	 3.3617457078	 1.7290346821	 0.123222
H	 1.2568814775	 4.405479175	 0.4679411831	 0.127274
H	-2.2146479303	 3.8925372949	 1.3483134565	 0.119657
H	-1.2407411692	 3.8373489999	-0.2110744779	 0.146084
H	-1.3476171184	 1.4914140027	 1.851249227	 0.110092
138.9861	157.108	272.8335	322.1459	421.9636	467.8877	511.2103	549.8984	614.14	694.349	701.1655	786.5361	818.5246	858.4491	880.5189	931.7325	971.4134	1013.3118	1047.5424	1071.8151	1073.8304	1107.1523	1126.0562	1154.1583	1167.0832	1234.6327	1255.3333	1274.8502	1280.3752	1347.0519	1381.3852	1421.3088	1484.8864	1499.7744	2352.203	3050.2208	3095.2148	3117.6121	3162.589	3164.473	3215.4366	3495.8099
N#CC12NC1CN1CC21	N#C[C@]12N[C@H]1CN1C[C@@H]21	
InChI=1S/C6H7N3/c7-3-6-4(8-6)1-9-2-5(6)9/h4-5,8H,1-2H2	InChI=1S/C6H7N3/c7-3-6-4(8-6)1-9-2-5(6)9/h4-5,8H,1-2H2/t4-,5-,6-,9?/m0/s1
