16
gdb 75759	2.70699	1.27018	1.13521	4.1882	72.02	-0.2649	0.0034	0.2683	1122.4248	0.123022	-434.067623	-434.058461	-434.057517	-434.101407	33.386	
C	 0.28165567	 1.3697812941	-0.0946008675	-0.425612
C	-0.0784043311	-0.1118173159	-0.0094502497	 0.106702
N	 0.7357720321	-1.0143527868	-0.8524535912	-0.345924
C	 1.5207499314	-1.4692462222	 0.1959391449	 0.342264
N	 2.63419685	-2.0390780185	 0.3681720535	-0.552179
C	 0.5751856948	-0.8718078405	 1.2338582612	 0.026727
O	 1.163892036	-0.0944271917	 2.2251063789	-0.415667
C	-1.5200218129	-0.3221239524	-0.1781286711	 0.264606
N	-2.6582116165	-0.4789720944	-0.3024222962	-0.331748
H	 1.3494281018	 1.5015232581	 0.0908611523	 0.131542
H	 0.0326996042	 1.7710091802	-1.0812474575	 0.133031
H	-0.2697809339	 1.9371453068	 0.6589414814	 0.156853
H	 1.0130840894	-0.8454902877	-1.8100690807	 0.251208
H	 3.1182024809	-2.2457484329	-0.5061734171	 0.222669
H	-0.1273041196	-1.5937879029	 1.6628153275	 0.127789
H	 2.1122634533	-0.2750110134	 2.1982438212	 0.30774
71.1795	143.9838	184.3011	195.6627	214.6212	236.9636	272.6137	371.5585	407.9719	449.1908	474.7552	532.394	600.9135	647.5574	701.1503	809.7127	840.9211	891.3264	919.8408	948.0234	1050.3211	1117.2834	1128.4408	1153.0632	1205.0312	1240.7771	1318.2331	1344.189	1357.4854	1399.8741	1414.1525	1477.9439	1488.5048	1808.4617	2356.1843	3052.3789	3061.2353	3128.5434	3142.969	3476.4187	3587.0036	3777.357
CC1(NC(=N)C1O)C#N	C[C@]1(N[C]([NH])[C@H]1O)C#N	
InChI=1S/C5H7N3O/c1-5(2-6)3(9)4(7)8-5/h3,9H,1H3,(H2,7,8)	InChI=1S/C5H7N3O/c1-5(2-6)3(9)4(7)8-5/h3,9H,1H3,(H2,7,8)/t3-,5+/m1/s1
