14
gdb 22022	4.02335	1.13689	0.88705	2.7022	75.2	-0.1954	-0.0444	0.151	1210.4766	0.100661	-469.938455	-469.930406	-469.929461	-469.970915	30.394	
N	 0.0816952744	 1.3359447485	-0.1331703816	-0.56277
C	-0.0789934607	-0.0245617153	-0.0160168343	 0.468543
C	-1.2329295542	-0.7171758964	-0.1364673092	-0.331947
C	-1.1868306938	-2.1507270101	-0.0593690487	 0.343592
C	 0.1582292141	-2.6855464305	 0.1558750516	-0.004833
N	 1.2383381884	-2.0061291787	 0.2772679493	-0.081218
O	 1.1310966046	-0.610619534	 0.1930840573	-0.281655
N	-2.2585446891	-2.868133885	-0.1703040503	-0.259289
O	-1.9699354565	-4.2437535733	-0.0588267609	-0.4016
H	 0.905431663	 1.6998725805	 0.3238243677	 0.268124
H	-0.7490503361	 1.8839501527	 0.0291421364	 0.266314
H	-2.1728796094	-0.2068556733	-0.2982480871	 0.105889
H	 0.3026326668	-3.7566645607	 0.2284654221	 0.162966
H	-2.8414169917	-4.6372974743	-0.1620506524	 0.307886
106.0015	153.9484	230.4355	277.3034	283.9341	369.4244	379.0281	418.153	455.5983	529.2808	560.5984	637.0863	663.1786	712.1566	755.5064	815.3716	882.705	951.7778	962.0394	990.7399	998.9653	1112.3574	1260.655	1286.2413	1338.2009	1385.1421	1461.9034	1626.0425	1644.1756	1673.1998	1724.0485	3220.0032	3221.0949	3575.5362	3685.9107	3837.3657
NC1=CC(C=NO1)=NO	Nc1cc(=NO)cno1	
InChI=1S/C4H5N3O2/c5-4-1-3(7-8)2-6-9-4/h1-2,8H,5H2	InChI=1S/C4H5N3O2/c5-4-1-3(7-8)2-6-9-4/h1-2,8H,5H2
