21
gdb 115154	2.77032	1.22931	0.95176	3.9421	79.51	-0.2261	0.0678	0.2938	1301.882	0.183896	-420.466383	-420.456807	-420.455863	-420.500973	34.885	
C	 0.7729893787	-0.3296736369	-1.2981215767	-0.38635
C	 0.0378180206	-0.084065076	 0.0226301622	-0.190277
C	-1.466904443	-0.4050737557	-0.0494215494	 0.027338
C	-1.770339628	-1.926414282	-0.0581429428	-0.186775
N	-2.027537312	-2.1905718958	 1.3506376249	-0.359478
C	-2.4887929765	-1.0352918876	 1.9801743839	 0.443262
O	-3.0260418406	-0.9709064068	 3.0664901862	-0.427492
N	-2.2018565336	 0.0170711777	 1.13522638	-0.092162
C	-2.3965588051	 1.3884899842	 1.532046998	-0.347791
H	 1.8340067341	-0.0802140674	-1.206914966	 0.12138
H	 0.7098269412	-1.3761731043	-1.6149128079	 0.118842
H	 0.355415352	 0.2850200157	-2.1035946702	 0.117045
H	 0.484558977	-0.6784390648	 0.8286932057	 0.114706
H	 0.1579792259	 0.9674995008	 0.3070299531	 0.102242
H	-1.8875640327	 0.0751803124	-0.9430015836	 0.078058
H	-2.6422456594	-2.1463624052	-0.6904212089	 0.104284
H	-0.9230355659	-2.5091296707	-0.4301651344	 0.113306
H	-2.4838659854	-3.045161776	 1.6287201113	 0.249351
H	-2.9813380353	 1.3773140445	 2.4538131689	 0.16518
H	-1.4510418596	 1.912352186	 1.7254424925	 0.118857
H	-2.9461274123	 1.9447933677	 0.762717043	 0.116473
75.397	109.3881	121.53	172.9682	193.1912	226.1609	263.521	295.168	382.5824	402.7216	522.163	531.3002	673.3778	736.795	764.416	773.8697	839.3027	848.066	956.0736	988.9079	1028.9471	1058.4861	1088.3162	1120.3011	1150.1818	1163.2883	1186.1574	1237.5276	1267.7993	1290.404	1301.3089	1333.0971	1344.9529	1394.6026	1413.7542	1426.4639	1434.8639	1462.5341	1486.333	1494.1231	1501.4325	1505.9456	1524.4203	1531.8844	1829.0613	2993.4591	3005.9638	3013.9849	3032.1451	3035.7334	3053.906	3069.5468	3077.8996	3100.3995	3108.5913	3138.3186	3638.0261
CCC1CNC(=O)N1C	CC[C@H]1CNC(=O)N1C	
InChI=1S/C6H12N2O/c1-3-5-4-7-6(9)8(5)2/h5H,3-4H2,1-2H3,(H,7,9)	InChI=1S/C6H12N2O/c1-3-5-4-7-6(9)8(5)2/h5H,3-4H2,1-2H3,(H,7,9)/t5-/m0/s1
