18
gdb 54034	2.27079	1.33357	0.9125	1.6109	73.19	-0.2515	-0.0449	0.2067	1273.161	0.14617	-439.115205	-439.105884	-439.104939	-439.15027	33.728	
N	-0.2855076267	 1.3161608161	 0.160148385	-0.523985
C	-0.0766588633	-0.0285365898	 0.095461351	 0.390064
O	 1.0107012706	-0.5567924048	 0.1913047208	-0.344566
C	-1.3760724198	-0.866127613	-0.0507375502	-0.229911
C	-2.2064201478	-0.4217824862	-1.2519431143	 0.148255
O	-2.5307299408	 0.7201739889	-1.4771955477	-0.261402
C	-1.0873383803	-2.3482218075	-0.0706437929	 0.040028
C	-1.0602285562	-3.1374168281	 1.2073401474	-0.263673
C	-2.192304864	-3.3355161342	 0.230623503	-0.296344
H	 0.5374327375	 1.8976935456	 0.1152416874	 0.258405
H	-1.1505183133	 1.6821054287	-0.2151061063	 0.27259
H	-1.9937232509	-0.6171353553	 0.8250852972	 0.131865
H	-2.5196080077	-1.2443274399	-1.9282779008	 0.107343
H	-0.3608108721	-2.6414349571	-0.8213473941	 0.105913
H	-0.3166914763	-3.9195124697	 1.3045098666	 0.122905
H	-1.272252404	-2.6123818384	 2.1329323598	 0.11466
H	-3.169244636	-2.9472369806	 0.5015430187	 0.110198
H	-2.2279790789	-4.2555904244	-0.3416369104	 0.117654
53.2665	66.7922	104.7091	155.3811	217.8952	234.4459	336.0768	403.7835	424.1169	511.6017	548.7458	593.9413	619.799	726.8589	751.899	791.4216	828.675	897.2795	929.6054	971.5055	1031.1924	1058.9784	1062.1881	1081.9393	1127.4646	1135.2329	1185.5786	1194.3699	1213.7735	1232.8064	1265.3269	1330.7378	1411.7242	1425.0532	1471.5384	1507.786	1625.9764	1802.3454	1810.1602	2918.9533	3010.3652	3128.6231	3138.2174	3165.2326	3209.5755	3226.7035	3540.7438	3680.8423
NC(=O)C(C=O)C1CC1	NC(=O)[C@@H](C=O)C1CC1	
InChI=1S/C6H9NO2/c7-6(9)5(3-8)4-1-2-4/h3-5H,1-2H2,(H2,7,9)	InChI=1S/C6H9NO2/c7-6(9)5(3-8)4-1-2-4/h3-5H,1-2H2,(H2,7,9)/t5-/m0/s1
