16
gdb 49775	1.88622	1.81032	1.01208	5.1535	74.88	-0.2542	-0.0454	0.2087	1135.7646	0.124392	-400.779559	-400.771315	-400.770371	-400.813272	29.621	
O	-0.5155753343	 0.3770046392	-0.4599868694	-0.241273
C	-0.1802338584	 1.4979708677	-0.1881713536	 0.164132
C	 1.2623180754	 1.8976960431	 0.1197100106	-0.136931
C	 1.8292947554	 2.606067958	-1.0954183803	-0.087363
C	 1.9554785062	 3.9186808281	-0.9102369736	-0.064033
C	 1.5443978457	 4.3551600606	 0.4727564223	-0.268501
C	 1.4093045702	 2.9946024224	 1.2282046696	-0.172598
C	 0.3534085583	 2.9859968402	 2.2372794504	 0.266257
N	-0.484166454	 2.9868786169	 3.0339920191	-0.321318
H	-0.9039496491	 2.3428322782	-0.195014378	 0.094891
H	 1.8010910072	 0.9816394504	 0.3760626168	 0.113496
H	 2.0361265379	 2.0686717963	-2.0129229711	 0.123927
H	 2.2999861952	 4.6229605047	-1.658685455	 0.115868
H	 2.2752327272	 5.0094511923	 0.9580601147	 0.12993
H	 0.5961466307	 4.905593384	 0.4556786882	 0.13896
H	 2.3539001663	 2.7960619577	 1.7441330193	 0.144554
64.6197	76.3051	141.4603	191.0918	262.8564	324.3666	414.1724	468.3537	511.9349	558.7405	664.8135	746.7141	782.4326	838.7472	918.1711	963.8037	978.3611	983.3872	1029.4226	1039.9851	1055.8377	1093.577	1133.158	1169.4443	1255.3029	1258.3234	1299.8085	1317.0214	1341.8175	1354.8185	1423.6751	1493.7082	1681.6115	1834.2634	2356.6419	2890.1003	3040.3394	3059.4461	3079.0391	3085.1454	3196.9927	3221.8223
O=CC1C=CCC1C#N	O=C[C@H]1C=CC[C@H]1C#N	
InChI=1S/C7H7NO/c8-4-6-2-1-3-7(6)5-9/h1,3,5-7H,2H2	InChI=1S/C7H7NO/c8-4-6-2-1-3-7(6)5-9/h1,3,5-7H,2H2/t6-,7+/m0/s1
