16
gdb 33759	2.45157	1.67236	1.2798	2.8977	74.85	-0.2618	-0.0036	0.2582	1010.4573	0.125773	-396.830008	-396.82266	-396.821716	-396.861813	28.607	
N	 0.0441134618	-1.1042086924	-0.0593157659	-0.344053
C	 0.0317556615	 0.0513945748	-0.0213345956	 0.160039
C	-0.0312604869	 1.4908356697	 0.0077958372	 0.122872
C	-0.6861643941	 2.4200532845	 1.0811860459	-0.270601
C	 0.0015563437	 3.3355447049	 0.0270371052	-0.125918
N	 1.2016628292	 2.3875390501	-0.027379374	-0.342285
C	-0.6156325407	 2.4441633435	-1.0610742252	 0.45802
C	-0.6620028654	 2.4058273535	-2.5189246331	-0.336351
N	-1.9038475912	 2.5082945712	-1.6844912049	-0.400746
H	-1.7773113584	 2.4333887932	 1.1426275092	 0.125202
H	-0.2141187712	 2.3881892149	 2.0665497616	 0.111587
H	 0.1246622523	 4.416230912	 0.0367919855	 0.108429
H	 1.6347801969	 2.3626238957	 0.9021519003	 0.219504
H	-0.437984489	 3.2920065225	-3.1046634573	 0.134388
H	-0.4496292163	 1.4614997149	-3.0127828461	 0.134804
H	-2.3844978922	 1.611846127	-1.6506899329	 0.245109
111.3061	158.0835	211.8253	284.9079	324.4321	478.8411	513.7108	521.962	567.2819	630.3294	680.7777	767.9959	812.9624	886.5892	919.7437	924.154	949.1377	964.2083	981.3539	1036.952	1047.9722	1083.3109	1107.7884	1148.7879	1184.3279	1203.1274	1229.1677	1247.9021	1266.5778	1276.9806	1301.0474	1452.9805	1499.6691	1542.4737	2351.9762	3055.8253	3116.8692	3130.8367	3151.6537	3204.8666	3382.3574	3494.8984
N#CC12CC(N1)C21CN1	N#C[C@@]12C[C@@H](N1)[C@]12CN1	
InChI=1S/C6H7N3/c7-2-5-1-4(9-5)6(5)3-8-6/h4,8-9H,1,3H2	InChI=1S/C6H7N3/c7-2-5-1-4(9-5)6(5)3-8-6/h4,8-9H,1,3H2/t4-,5-,6+/m1/s1
