15
gdb 127468	3.11099	1.3205	0.93328	1.5207	80.61	-0.209	-0.0145	0.1946	1201.9452	0.112931	-412.965914	-412.957185	-412.956241	-412.999648	31.651	
C	-0.020442096	 1.3945302441	-0.0539094144	-0.310609
N	-0.001538129	-0.0510336118	-0.0221809822	 0.128233
N	 0.0059662585	-0.7756254162	-1.1523018407	-0.303099
C	 0.0032936232	-2.0321608766	-0.7121322375	 0.235935
N	-0.0502362246	-3.1253341425	-1.5497074597	-0.606702
C	 0.0001366203	-2.0171336509	 0.7074404523	 0.159497
N	-0.0047409143	-0.730181622	 1.1038523616	-0.30003
C	 0.0111451941	-3.1237330621	 1.5806457167	 0.246321
C	 0.0297099978	-4.1113204746	 2.2706410196	-0.428788
H	 0.839810152	 1.7659030563	-0.6165174807	 0.151348
H	-0.9380116314	 1.7496581589	-0.5310494305	 0.152009
H	 0.0245152746	 1.7441187285	 0.9762152769	 0.164822
H	 0.2947423484	-2.9473129215	-2.4817973311	 0.259419
H	 0.3270921302	-3.9707106249	-1.1465649137	 0.259798
H	 0.0355289261	-4.9694648848	 2.8957447833	 0.191847
53.0964	126.66	142.9678	194.1409	275.5123	313.8674	337.1449	401.2318	490.4633	543.4055	559.9571	601.8838	605.5312	655.0661	673.4974	681.1473	784.9752	846.5481	1020.0568	1068.8808	1138.1096	1149.2719	1255.9198	1326.7109	1380.226	1428.8157	1449.9776	1475.7638	1507.7823	1535.0354	1575.795	1648.79	2231.1726	3054.3487	3119.0864	3177.7236	3502.8356	3566.6581	3670.7582
CN1N=C(N)C(=N1)C#C	Cn1nc(N)c(n1)C#C	
InChI=1S/C5H6N4/c1-3-4-5(6)8-9(2)7-4/h1H,2H3,(H2,6,8)	InChI=1S/C5H6N4/c1-3-4-5(6)8-9(2)7-4/h1H,2H3,(H2,6,8)
