18
gdb 51117	3.39237	1.20779	1.04693	2.6522	75.37	-0.2267	-0.0238	0.2029	1169.8559	0.146423	-401.865545	-401.857477	-401.856533	-401.899006	30.679	
O	 0.0064536345	-0.0786605293	-0.1852324212	-0.244102
C	 0.0237249662	 1.1253917907	-0.1928172526	 0.160682
C	 1.2767323894	 1.9705206374	-0.0454036295	-0.375068
C	 1.4389470645	 2.9445641443	-1.1851442581	 0.306997
C	 1.8440902467	 4.3572302276	-1.0253943652	-0.298211
N	 0.447745363	 4.0593966045	-1.4148094681	-0.18099
C	 0.3848230226	 3.6257788887	-2.8695787189	 0.009706
C	 1.6672268248	 3.5541340526	-3.6463323016	-0.311036
C	 1.3370244935	 2.4715112626	-2.6553036112	-0.121895
H	-0.9085214902	 1.7194595245	-0.3131028728	 0.096352
H	 1.1850102089	 2.535448905	 0.891529942	 0.125825
H	 2.1429221017	 1.304683881	 0.0326175521	 0.124336
H	 1.9032685064	 4.7356779609	-0.0085333978	 0.122771
H	 2.5217268573	 4.8499550226	-1.7120507375	 0.123735
H	-0.5894141089	 3.6637541807	-3.3391970982	 0.108694
H	 1.5109029537	 3.2526381262	-4.6780901436	 0.12379
H	 2.4977382219	 4.240283001	-3.5267908261	 0.118322
H	 1.233965714	 1.4287782489	-2.9252293918	 0.110095
50.458	75.1508	151.3735	258.3633	305.2465	440.017	449.8642	474.7719	549.4855	610.9949	701.4658	727.277	774.7132	814.9015	864.5384	902.6008	932.5822	950.3406	971.9955	1001.1091	1024.5148	1058.5113	1067.174	1069.8356	1091.8555	1116.6844	1129.1396	1170.0334	1196.9496	1240.0144	1280.0489	1310.3987	1337.228	1383.4764	1417.7789	1446.936	1474.9907	1525.0775	1831.2802	2899.8479	3027.6345	3088.8443	3124.0002	3136.2043	3192.5549	3199.747	3207.8601	3216.4907
O=CCC12CN1C1CC21	O=CC[C@]12CN1[C@H]1C[C@@H]21	
InChI=1S/C7H9NO/c9-2-1-7-4-8(7)6-3-5(6)7/h2,5-6H,1,3-4H2	InChI=1S/C7H9NO/c9-2-1-7-4-8(7)6-3-5(6)7/h2,5-6H,1,3-4H2/t5-,6+,7-,8?/m1/s1
