12
gdb 19636	6.28586	1.74107	1.67406	3.377	62.63	-0.2434	-0.0038	0.2397	748.5763	0.084676	-340.268272	-340.262644	-340.2617	-340.297968	21.776	
N	-0.0874433017	-1.1325895684	 0.0045537036	-0.352258
C	-0.0499813306	 0.0256291964	 0.0092587056	 0.125148
C	 0.0083948273	 1.4365090826	 0.0122317313	 0.283866
C	-0.8795486891	 2.4564145233	 0.7753795375	-0.159594
C	 0.313660748	 3.4422489072	 0.7728509376	-0.044048
C	 1.1598332309	 2.4781176034	 0.0258476869	-0.125282
N	 0.3318404458	 3.476415762	-0.7341666733	-0.169008
C	-0.8233597986	 2.4816099395	-0.7191470904	-0.058012
H	-1.6831744849	 2.2367722288	 1.4627988769	 0.12841
H	 0.5632579354	 4.3029308532	 1.3793886478	 0.118446
H	 2.2305516711	 2.3819351462	-0.0986018068	 0.121224
H	-1.5688758236	 2.3679339257	-1.4949848668	 0.131107
162.657	169.7134	509.243	522.0829	525.7534	650.2199	740.2971	769.6139	786.3826	866.0574	873.637	888.1735	920.1162	923.5943	983.6328	996.7689	1011.3183	1021.7327	1115.9026	1127.6056	1194.9989	1241.048	1270.6847	1315.2212	1392.2501	2337.7801	3197.3962	3208.2513	3210.8187	3235.5824
N#CC12C3C4C1N4C23	N#C[C@@]12[C@H]3[C@H]4[C@@H]1N4[C@@H]23	
InChI=1S/C6H4N2/c7-1-6-2-3-5(6)8(3)4(2)6/h2-5H	InChI=1S/C6H4N2/c7-1-6-2-3-5(6)8(3)4(2)6/h2-5H/t2-,3-,4+,5-,6-,8?/m0/s1
