20
gdb 57267	2.18005	1.42512	1.29054	3.0745	78.64	-0.2902	0.0167	0.307	1132.0442	0.168391	-403.15289	-403.142934	-403.14199	-403.187087	37.685	
C	 0.2314607647	 1.4430914145	 0.2527253543	-0.403577
C	 0.0049223348	-0.0546369895	 0.0038482857	 0.133774
O	 0.4857167113	-0.7069221033	 1.1744892906	-0.443426
C	-1.4506595197	-0.3246667355	-0.1252785508	 0.251297
N	-2.5767704429	-0.5676146474	-0.2203864309	-0.344097
C	 0.7185618088	-0.5419453969	-1.2770494215	 0.359049
C	 0.2226461544	 0.0771924874	-2.5722055298	-0.486958
C	 2.1879992007	-0.8548272716	-1.1554396898	-0.309088
C	 1.190350762	-1.975036626	-1.3340436003	-0.320032
H	 1.3054891857	 1.6249502429	 0.3373047739	 0.136655
H	-0.1717164142	 2.0484630778	-0.5603049067	 0.136401
H	-0.2527028656	 1.7369885577	 1.1859152355	 0.14223
H	 0.1647746948	-1.6151134279	 1.1763953017	 0.296418
H	 0.3966643944	 1.1576478048	-2.6026116359	 0.123094
H	 0.7481485105	-0.3613276621	-3.4251535836	 0.121108
H	-0.8487088116	-0.0981763192	-2.715661378	 0.143926
H	 2.8311413807	-0.5907922268	-1.9877869775	 0.113897
H	 2.6424288402	-0.7608279651	-0.176366977	 0.129694
H	 1.0262445031	-2.6320649148	-0.4870915135	 0.100365
H	 1.1319810478	-2.479058349	-2.2923338765	 0.119268
63.7422	141.2992	184.2494	208.4122	222.0828	269.0434	285.291	310.0104	340.4755	367.4953	408.2819	438.0375	471.1224	538.4675	604.2093	656.0331	785.1098	813.284	885.4416	908.2894	928.818	951.3272	964.9253	1038.2479	1067.2591	1069.7844	1089.1611	1130.7801	1160.1518	1172.625	1188.6113	1298.5936	1335.8872	1355.6885	1406.8242	1423.1113	1460.1837	1481.7262	1489.1899	1496.7134	1503.4859	1509.6183	2348.1233	3036.7224	3062.8356	3101.7821	3110.2296	3135.8494	3139.8523	3143.043	3152.1494	3213.4297	3232.0542	3816.008
CC(O)(C#N)C1(C)CC1	C[C@@](O)(C#N)C1(C)CC1	
InChI=1S/C7H11NO/c1-6(3-4-6)7(2,9)5-8/h9H,3-4H2,1-2H3	InChI=1S/C7H11NO/c1-6(3-4-6)7(2,9)5-8/h9H,3-4H2,1-2H3/t7-/m1/s1
