19
gdb 83387	2.72692	1.72571	1.55859	2.6155	74.05	-0.2364	0.0722	0.3085	949.6657	0.161245	-422.9538	-422.946625	-422.94568	-422.98484	29.866	
O	-0.1256941612	 1.5375671404	 0.0221532894	-0.447061
C	 0.0031056399	 0.1374366813	 0.0393724681	 0.096372
C	 0.1613191005	-0.6091543075	 1.3825303008	-0.135932
C	-1.0557974384	 0.0195160763	 2.1585616797	-0.198765
C	-2.1977534902	 0.0178462147	 1.0509831761	-0.311159
C	-1.3394338267	-0.6771969508	 0.0118761553	 0.450156
O	-1.5933424075	-1.4373548966	-1.1699322982	-0.361436
C	-0.560895873	-2.3818096231	-0.7183174656	-0.160549
C	-0.5943564222	-1.8023224882	 0.7335837916	-0.082851
H	 0.7538591451	 1.9267741064	 0.030722499	 0.285478
H	 0.6931940643	-0.20710775	-0.7351932153	 0.070763
H	 1.1026848053	-0.6768853533	 1.9307670459	 0.058205
H	-1.3325331587	-0.5803656823	 3.0291754424	 0.097986
H	-0.8231132801	 1.032746476	 2.4882802345	 0.109604
H	-3.0671832393	-0.5744569186	 1.3440491486	 0.101858
H	-2.5126265479	 1.027752283	 0.7839961229	 0.120185
H	-0.9250205609	-3.4097700083	-0.7903812237	 0.113827
H	 0.3622240813	-2.2811720782	-1.2974870545	 0.11112
H	-1.1512589103	-2.4439620511	 1.417858373	 0.082196
202.7235	249.5629	269.9327	293.3869	307.6376	375.8332	461.4368	527.2528	594.3362	716.2716	755.3227	783.3021	811.411	847.1812	851.8033	887.7793	910.8135	924.6655	962.4456	1011.8162	1044.499	1067.6346	1073.8433	1109.0627	1138.4192	1158.1699	1162.7466	1179.3151	1195.1561	1227.7658	1247.1193	1261.4285	1274.7876	1303.4304	1324.8439	1335.6107	1352.6727	1442.6431	1476.8491	1506.2221	1514.9712	3043.6811	3068.0114	3071.1533	3077.3101	3087.2408	3097.1462	3106.8911	3122.4594	3137.4367	3825.0804
OC1C2CCC11OCC21	O[C@H]1[C@H]2CC[C@]31OC[C@@H]23	
InChI=1S/C7H10O2/c8-6-4-1-2-7(6)5(4)3-9-7/h4-6,8H,1-3H2	InChI=1S/C7H10O2/c8-6-4-1-2-7(6)5(4)3-9-7/h4-6,8H,1-3H2/t4-,5-,6-,7-/m0/s1
