19
gdb 93868	2.02629	1.80311	1.22512	2.7893	70.89	-0.2486	0.0549	0.3034	1076.7398	0.158693	-460.143011	-460.134274	-460.13333	-460.176503	33.495	
O	-0.1454933605	 1.5060210454	 0.2994150682	-0.435911
C	-0.03197884	 0.1061251384	 0.0485670939	 0.024113
C	 0.6807655322	-0.6274602047	 1.2030282468	-0.247643
C	-0.4409506364	-0.8561237695	 2.2290574225	-0.251389
C	-1.6246021491	-1.2979412977	 1.3486975702	 0.046575
O	-2.907176177	-1.0797802798	 1.9075230246	-0.434996
C	-1.4469555139	-0.4774203807	 0.0692079211	 0.445752
C	-2.5631486233	 0.164298815	-0.6258832357	-0.229366
O	-1.9636408564	-1.0320780906	-1.1417358848	-0.296735
H	 0.7450122609	 1.8715448423	 0.3240264592	 0.282884
H	 0.436791979	-0.0766122216	-0.9268420225	 0.075295
H	 1.0700152823	-1.5872136008	 0.8410548612	 0.104431
H	 1.5282093558	-0.057282832	 1.5957612499	 0.091308
H	-0.1868700265	-1.5835149222	 3.005155468	 0.088701
H	-0.7067738668	 0.0890842146	 2.7133721711	 0.12159
H	-1.503757298	-2.3579270438	 1.0729896961	 0.078367
H	-3.0529873221	-1.7428122359	 2.5888407181	 0.285531
H	-3.564359318	 0.0449341776	-0.2212175844	 0.130906
H	-2.3753674423	 1.069058766	-1.1995396734	 0.120587
43.0521	180.6206	224.7412	238.1698	267.7522	291.278	305.7989	357.6681	451.1048	468.8885	525.6297	552.9	613.6132	767.0174	827.5204	873.8657	887.0315	919.0849	959.7988	984.6299	1004.4976	1036.6792	1104.2656	1115.9527	1136.6056	1152.4381	1178.2398	1185.1983	1206.6195	1237.0604	1246.2382	1309.6542	1323.3101	1339.4569	1347.6319	1398.7035	1428.7566	1450.5558	1480.6678	1494.622	1523.7658	2973.2892	3018.3667	3037.33	3053.4565	3084.306	3105.1179	3105.4724	3202.3622	3809.2416	3827.9689
OC1CCC(O)C11CO1	O[C@H]1CC[C@@H](O)[C@]21CO2	
InChI=1S/C6H10O3/c7-4-1-2-5(8)6(4)3-9-6/h4-5,7-8H,1-3H2	InChI=1S/C6H10O3/c7-4-1-2-5(8)6(4)3-9-6/h4-5,7-8H,1-3H2/t4-,5+,6+
