15
gdb 75703	2.22001	2.11825	1.18525	2.365	66.8	-0.2631	-0.036	0.2271	993.5132	0.113779	-453.989505	-453.981653	-453.980709	-454.022792	28.304	
C	 0.0986853286	 1.4520653513	 0.0043786419	-0.349612
N	 0.0188150035	 0.0025935137	-0.000590646	-0.15634
C	-0.0062545783	-0.7504672223	-1.1762024215	 0.468172
O	-0.0466942197	-0.2923413458	-2.2900259045	-0.360103
C	 0.0023148998	-2.2011807724	-0.7547682373	-0.180831
N	 1.2259612874	-2.5105365676	 0.0258122384	-0.32643
C	-0.0479638706	-2.2093057601	 0.7247823874	-0.180126
C	-0.0860767957	-0.7643614119	 1.1637032571	 0.471355
O	-0.2030900016	-0.3267932971	 2.2803340154	-0.359815
H	 1.1014966865	 1.7860760271	-0.2774350819	 0.149248
H	-0.6193212521	 1.8613544805	-0.7091064655	 0.153791
H	-0.1311679607	 1.7920175607	 1.0144503449	 0.163756
H	-0.4550756192	-2.9452010089	-1.3933790832	 0.128265
H	 1.3575816399	-3.5216066296	 0.0253470698	 0.250091
H	-0.546434498	-2.9602299773	 1.3232982251	 0.12858
36.6597	127.4046	181.7601	212.4178	277.0912	366.4004	383.6676	514.224	600.5795	650.7065	705.4613	763.8487	790.6068	860.5929	873.7819	923.7953	928.2057	1012.9727	1063.7211	1112.0709	1152.6489	1156.0918	1160.508	1271.3748	1294.9848	1349.8922	1378.9281	1404.0487	1455.3031	1490.6696	1509.7456	1815.8398	1872.1927	3054.3102	3123.5344	3163.1185	3207.9452	3216.23	3479.7547
CN1C(=O)C2NC2C1=O	CN1C(=O)[C@H]2N[C@H]2C1=O	
InChI=1S/C5H6N2O2/c1-7-4(8)2-3(6-2)5(7)9/h2-3,6H,1H3	InChI=1S/C5H6N2O2/c1-7-4(8)2-3(6-2)5(7)9/h2-3,6H,1H3/t2-,3+
