18
gdb 34225	3.3804	1.59458	1.39179	1.6573	82.26	-0.2321	0.0251	0.2572	975.5468	0.149532	-364.726778	-364.719869	-364.718925	-364.757736	29.023	
C	 0.015698183	-1.1974663765	 0.0119971147	-0.352098
C	-0.0222333095	 0.0050850737	 0.0092670781	 0.144309
C	-0.0572920209	 1.4392631652	 0.0391092245	 0.220177
C	-1.1210488002	 2.2591973025	 0.7795847239	-0.291963
C	-0.6303467975	 3.3559224588	-0.1837900243	-0.020731
C	 0.7882302416	 3.6437354808	 0.3597602705	-0.229974
C	 1.3233269062	 2.2494807269	-0.0109042074	-0.100934
C	 1.0930733492	 2.2736124423	-1.5312119916	-0.171873
N	-0.3804975106	 2.2506321694	-1.2428354832	-0.174388
H	 0.0428683955	-2.2590155466	 0.0079726056	 0.184607
H	-2.1156957321	 1.8881403333	 0.5274816525	 0.123096
H	-1.0219988062	 2.4230588038	 1.8545486334	 0.100751
H	-1.2618169744	 4.1848039075	-0.4970167718	 0.080495
H	 1.3225521032	 4.4431531681	-0.1607505698	 0.100321
H	 0.7851298947	 3.8647579434	 1.4300578567	 0.100413
H	 2.2353593658	 1.8828936629	 0.4600507322	 0.071634
H	 1.458469225	 3.1333842338	-2.1018005427	 0.096844
H	 1.3571713773	 1.3441081606	-2.0411459013	 0.119313
144.3026	153.1252	362.2778	415.7494	475.8859	508.2772	515.2374	543.371	618.4195	654.4204	665.5585	717.327	785.0157	841.7712	867.0795	896.5902	907.1685	942.118	971.7273	987.2401	988.5855	1023.195	1054.5043	1080.8858	1111.0528	1129.3701	1171.592	1184.8309	1221.3661	1246.0731	1251.0959	1263.8715	1280.3545	1302.0665	1318.6448	1479.9121	1499.7134	1521.1629	2231.1862	3049.5461	3060.5142	3074.3789	3106.1458	3113.5476	3119.0071	3137.7172	3142.0545	3501.7401
C#CC12CC3CC1CN23	C#C[C@@]12C[C@H]3C[C@@H]1CN23	
InChI=1S/C8H9N/c1-2-8-4-7-3-6(8)5-9(7)8/h1,6-7H,3-5H2	InChI=1S/C8H9N/c1-2-8-4-7-3-6(8)5-9(7)8/h1,6-7H,3-5H2/t6-,7-,8-/m1/s1
