18
gdb 92612	4.04691	1.26943	1.05042	2.3337	73.14	-0.2547	0.0171	0.2719	1152.094	0.149588	-439.099376	-439.091855	-439.090911	-439.131384	29.052	
C	-0.0830894702	 1.5369511175	 0.0551913783	-0.383685
C	 0.0973654289	 0.0247425564	 0.0229174742	 0.052526
C	 0.8455081723	-0.4974363328	-1.259527099	-0.279936
C	 1.4882051762	-1.7649698139	-0.7120829707	 0.015394
O	 2.8380213157	-2.1033162907	-1.0393561886	-0.263722
C	 3.3357655004	-2.6670783067	 0.1514063367	 0.012733
O	 2.6925049479	-1.9974526767	 1.2659518829	-0.257965
C	 1.6366634388	-1.3625286646	 0.726194599	 0.41681
N	 0.9198979045	-0.4283536504	 1.1829137506	-0.324518
H	 0.889349442	 2.0395383351	 0.0368898288	 0.120343
H	-0.6652843523	 1.8764570663	-0.8081990936	 0.109774
H	-0.6044685383	 1.8418605153	 0.9663513952	 0.128917
H	-0.8932149705	-0.4483961023	 0.085597575	 0.083001
H	 0.1847019402	-0.65427112	-2.1144315279	 0.106319
H	 1.6275113046	 0.2157703614	-1.5402754537	 0.121054
H	 0.8393135705	-2.6477611819	-0.8331687206	 0.093606
H	 3.1047680456	-3.7404848061	 0.2255986657	 0.110878
H	 4.4118980239	-2.4934034759	 0.2130113278	 0.138471
105.4483	190.4073	204.6309	234.5202	298.227	402.1389	465.5473	473.3974	583.4305	644.5136	731.3286	740.2345	819.0988	855.6095	885.3712	941.532	975.6089	986.523	1056.49	1080.5172	1103.381	1119.8318	1136.1276	1151.3481	1190.3182	1225.4483	1256.5991	1267.7345	1304.1832	1335.3408	1366.3198	1378.0874	1407.4985	1440.8934	1483.3206	1487.756	1497.2753	1534.205	1777.949	2973.0956	2993.3034	2997.9722	3035.5697	3059.9459	3105.5151	3115.7153	3119.4838	3122.783
CC1CC2OCOC2=N1	C[C@H]1C[C@H]2OCO[C]2[N]1	
InChI=1S/C6H9NO2/c1-4-2-5-6(7-4)9-3-8-5/h4-5H,2-3H2,1H3	InChI=1S/C6H9NO2/c1-4-2-5-6(7-4)9-3-8-5/h4-5H,2-3H2,1H3/t4-,5+/m0/s1
