19
gdb 69094	2.55938	1.58409	1.1565	1.8285	82.08	-0.2468	0.0279	0.2747	1113.9736	0.158106	-385.867737	-385.859087	-385.858143	-385.900467	33.812	
C	-0.0269816029	 1.5199191804	-0.0487626202	-0.483627
C	-0.0901933825	 0.0254141367	 0.0918107099	 0.342583
C	-1.3203207726	-0.7498473556	-0.35668198	-0.276458
C	-1.082605155	-2.1883749841	 0.1558203124	-0.225419
C	-0.2082451976	-2.0336017397	 1.4213598737	-0.304601
C	 0.5733607008	-0.7506698754	 1.1708318987	 0.203108
O	 1.1281954635	-0.6926619495	-0.164523143	-0.335568
C	 1.351637631	-0.1616066211	 2.2224628979	 0.193545
C	 1.9863965149	 0.3064176918	 3.1303656574	-0.354301
H	 0.8763254214	 1.9138127278	 0.4216656137	 0.14055
H	-0.0193604077	 1.8026608011	-1.1069594251	 0.127546
H	-0.8999198079	 1.988070461	 0.4178729745	 0.12212
H	-2.2073806314	-0.2994675567	 0.1057083135	 0.103675
H	-1.4604012102	-0.7069642886	-1.4418076125	 0.10818
H	-2.0151196132	-2.7199250991	 0.3588315073	 0.099471
H	-0.5344482661	-2.7576692937	-0.5972205199	 0.12205
H	-0.8161290238	-1.9011892835	 2.3238015607	 0.112145
H	 0.4510442654	-2.889671103	 1.590606602	 0.115634
H	 2.555043484	 0.7232285911	 3.924523189	 0.189365
131.6599	144.1218	176.1378	207.0564	245.1861	310.8569	371.7747	429.1248	498.1471	541.8322	563.8877	609.1282	616.7334	665.2669	679.9935	701.8211	805.4415	885.5489	896.1539	934.2534	937.4355	1009.9225	1024.5351	1061.7118	1124.6385	1170.2675	1177.9475	1219.4637	1246.0185	1255.9257	1318.5577	1339.7141	1350.6639	1410.1285	1433.0816	1478.7138	1481.1014	1486.2274	1495.7873	1503.0119	2238.0142	3032.9104	3039.3443	3045.464	3073.289	3080.9645	3093.173	3100.3263	3123.4463	3132.8254	3501.8927
CC12CCCC1(O2)C#C	C[C@]12CCC[C@]1(O2)C#C	
InChI=1S/C8H10O/c1-3-8-6-4-5-7(8,2)9-8/h1H,4-6H2,2H3	InChI=1S/C8H10O/c1-3-8-6-4-5-7(8,2)9-8/h1H,4-6H2,2H3/t7-,8+/m0/s1
