16
gdb 124934	2.28117	1.84859	1.03425	3.3268	75.7	-0.2465	-0.0617	0.1848	1106.0652	0.122709	-437.896304	-437.887534	-437.88659	-437.930866	30.934	
C	 0.0967124002	 1.5214361246	 0.0340934121	-0.470489
C	-0.047010286	 0.0319922643	 0.0436541715	 0.34221
C	-1.2060100549	-0.670147185	-0.0310232585	 0.027267
C	-2.5691662984	-0.0382064342	-0.1384251403	-0.513522
C	-1.1165344432	-2.1231659321	-0.0050259174	 0.312676
O	-2.0654457592	-2.8936924045	-0.0635418737	-0.366905
C	 0.2677933695	-2.620531747	 0.1021101018	-0.05266
N	 1.3399364824	-1.9166652506	 0.1704623403	-0.052134
O	 1.17820712	-0.5425414167	 0.1402759294	-0.273315
H	 0.7214227486	 1.8351813756	-0.8085474933	 0.157573
H	-0.8739776335	 2.009392365	-0.0432622698	 0.146345
H	 0.5931814315	 1.8588526446	 0.949744195	 0.157574
H	-2.6688434014	 0.5739978107	-1.0406362457	 0.134011
H	-3.3121140563	-0.8365843033	-0.1815012278	 0.16438
H	-2.7967491262	 0.5978767471	 0.7231517505	 0.134006
H	 0.4254556769	-3.6955048685	 0.1279841359	 0.15298
43.8034	63.4897	109.2752	177.1536	275.1645	293.7384	328.932	467.9848	482.9487	513.3612	563.6138	565.2844	654.5333	774.1671	839.4551	901.3537	934.073	959.3632	1025.3794	1043.6397	1071.6252	1129.0556	1173.4146	1209.5452	1301.9028	1383.903	1406.3561	1420.4269	1470.2531	1472.8385	1492.7002	1504.3342	1633.3839	1669.1101	1739.4621	3038.1242	3047.8916	3093.5849	3103.7123	3139.5692	3163.6235	3181.5512
CC1=C(C)C(=O)C=NO1	Cc1c(C)c(=O)cno1	
InChI=1S/C6H7NO2/c1-4-5(2)9-7-3-6(4)8/h3H,1-2H3	InChI=1S/C6H7NO2/c1-4-5(2)9-7-3-6(4)8/h3H,1-2H3
