18
gdb 93542	3.42171	1.24024	0.94807	1.8389	75.7	-0.2412	-0.0011	0.24	1219.5871	0.150432	-435.323118	-435.314748	-435.313804	-435.356377	31.526	
C	 0.1718311082	 1.6206069953	 0.0254215028	-0.385274
C	-0.0891934145	 0.1105540527	-0.0188249273	 0.050313
C	 0.6153709539	-0.5216436444	-1.2305956628	-0.186899
N	 0.169138683	-1.8740823145	-1.5220908429	-0.335551
C	 0.3656178989	-2.9795503627	-0.7503056224	 0.440699
O	 0.2656268239	-4.1181887021	-1.1676199715	-0.397227
N	 0.6999915891	-2.7617063022	 0.5952191863	-0.354832
C	 0.6194992145	-1.662096274	 1.445918897	 0.095859
N	 0.3016832763	-0.4504332099	 1.2656286876	-0.250596
H	 1.2456947556	 1.8244628793	 0.0957509312	 0.118636
H	-0.2189365042	 2.1196624757	-0.8672455106	 0.104967
H	-0.3060084001	 2.0507041169	 0.908075113	 0.130332
H	-1.1685201284	-0.0539838814	-0.147685419	 0.096424
H	 0.3982864809	 0.0760889982	-2.119491593	 0.117112
H	 1.7025881404	-0.4826320339	-1.0724348093	 0.120628
H	-0.0137859565	-2.116006246	-2.4828234952	 0.257794
H	 0.8913678448	-3.6442979822	 1.0469050297	 0.262257
H	 0.8960433743	-1.9601007545	 2.4599292763	 0.115357
60.6911	110.6833	219.9324	224.5362	300.5392	338.5525	354.8223	404.7351	509.5069	520.0246	564.3637	653.039	666.8281	766.4158	773.5284	844.2188	904.2591	913.4697	942.1898	960.0523	1075.6492	1125.3715	1133.9601	1152.0739	1188.1199	1279.2558	1299.174	1334.6865	1372.2389	1407.1486	1423.1706	1456.0608	1467.4202	1482.7091	1486.2052	1497.471	1505.1344	1763.856	1809.3905	2999.1562	3012.0579	3037.333	3093.4239	3100.691	3106.0124	3131.0674	3616.2756	3644.6381
CC1CNC(=O)NC=N1	C[C@H]1CNC(=O)NC=N1	
InChI=1S/C5H9N3O/c1-4-2-6-5(9)8-3-7-4/h3-4H,2H2,1H3,(H2,6,7,8,9)	InChI=1S/C5H9N3O/c1-4-2-6-5(9)8-3-7-4/h3-4H,2H2,1H3,(H2,6,7,8,9)/t4-/m0/s1
