15
gdb 16293	3.31627	1.8028	1.46752	4.8828	66.81	-0.2716	0.0183	0.29	876.3107	0.119282	-362.647091	-362.639782	-362.638838	-362.678569	27.403	
O	-0.1046153546	 1.4383509798	-0.078485664	-0.426095
C	-0.0106198254	 0.0411641114	 0.0328666945	 0.039935
C	 0.2444092871	-0.5883541725	 1.4500705969	-0.266543
C	-1.1151065861	-1.2856362475	 1.3654467253	-0.100211
C	-2.2021648964	-0.2785729436	 1.1903964382	-0.315028
C	-1.3766134292	-0.6501949295	-0.0244279114	 0.239131
C	-1.9484374974	-1.2309708783	-1.1932466951	 0.175358
N	-2.3942134086	-1.7104456407	-2.1483650055	-0.353059
H	 0.7849637065	 1.8051470951	-0.1035983877	 0.291443
H	 0.6708883662	-0.3806174188	-0.7149879047	 0.09488
H	 1.0950428968	-1.2723462326	 1.4556699532	 0.113823
H	 0.3497601767	 0.1323087462	 2.2659679678	 0.109546
H	-1.3191015673	-2.310899803	 1.6445364931	 0.117287
H	-3.2140514085	-0.6674528999	 1.178612006	 0.140317
H	-2.0987938797	 0.724064144	 1.5933871533	 0.139216
118.1278	162.4529	190.3335	247.6997	339.9831	404.2049	482.1481	528.4108	567.5067	637.6166	703.1443	825.9519	847.6727	869.3133	939.8407	970.8258	1026.0299	1041.9421	1074.73	1090.1612	1125.2556	1169.445	1204.2614	1220.1062	1246.88	1281.7562	1309.7424	1373.7798	1430.3499	1475.334	1498.6958	2344.4663	3036.6943	3060.6324	3122.6511	3134.1796	3207.2717	3228.1054	3820.8285
OC1CC2CC12C#N	O[C@H]1C[C@H]2C[C@@]12C#N	
InChI=1S/C6H7NO/c7-3-6-2-4(6)1-5(6)8/h4-5,8H,1-2H2	InChI=1S/C6H7NO/c7-3-6-2-4(6)1-5(6)8/h4-5,8H,1-2H2/t4-,5-,6-/m0/s1
