25
gdb 88958	3.10036	0.87903	0.83942	0.2205	93.03	-0.2572	0.0846	0.3418	1571.8263	0.227945	-352.338251	-352.327982	-352.327038	-352.373993	39.212	
C	 0.0927928936	 1.5931488457	-0.1676090564	-0.402232
C	 0.1387170781	 0.0834236094	-0.0646296991	-0.006987
C	 1.4536956992	-0.6570759137	-0.00587783	-0.288583
C	 0.5382695025	-0.652205108	 1.1974856003	 0.016026
C	 0.9192318646	 0.0583044715	 2.4839029508	-0.300871
C	 1.7818085556	-0.7686166135	 3.4324590863	 0.405183
C	 1.1535842067	-2.0528697346	 3.9421968579	-0.462686
C	 3.2777048371	-0.756955422	 3.2243729993	-0.289703
C	 2.670572634	-0.0095310326	 4.3897409485	-0.31608
H	 0.9190811644	 2.067726779	 0.3693347231	 0.114914
H	 0.1619939039	 1.9107374133	-1.2141007319	 0.114247
H	-0.8417914315	 1.9960921788	 0.2393625941	 0.114346
H	-0.642590765	-0.4087101352	-0.6393355944	 0.078655
H	 1.5750906937	-1.57207346	-0.575703801	 0.104172
H	 2.355232601	-0.0545457965	 0.0549556468	 0.104312
H	-0.0093759585	-1.5770604655	 1.3598444873	 0.079691
H	 1.4521897399	 0.9864259536	 2.2498970908	 0.086502
H	 0.0035815725	 0.3588922747	 3.0143746373	 0.091864
H	 0.9639170789	-2.7630850649	 3.1300706197	 0.117596
H	 1.8085326522	-2.5499755516	 4.6647291597	 0.109605
H	 0.1975647424	-1.854631271	 4.4422780662	 0.110628
H	 3.8329196686	-1.6657105048	 3.4329461397	 0.1048
H	 3.6794255433	-0.1760823844	 2.4011249662	 0.105923
H	 2.6615475357	 1.0751696446	 4.3507548873	 0.104083
H	 2.8131692871	-0.4136043825	 5.3867797417	 0.104595
30.9206	81.92	125.0461	189.2843	211.3229	236.2056	283.8899	336.6586	346.5469	359.0114	400.5486	463.4492	494.7476	723.9285	758.9255	781.5056	824.6674	858.8834	866.2312	875.517	913.2979	938.544	949.2345	952.3723	1000.5153	1029.0544	1050.2106	1054.3835	1074.4413	1079.291	1110.9794	1122.3652	1140.628	1154.5268	1185.6333	1199.1889	1239.8145	1253.2618	1311.277	1340.482	1360.4699	1397.854	1417.5017	1419.9482	1432.0384	1467.2983	1476.0396	1489.891	1493.8745	1496.6796	1500.8204	1506.2816	1511.9629	2998.2168	3022.1693	3027.7548	3059.0122	3083.1831	3084.1358	3096.8088	3101.8124	3122.2576	3123.1679	3126.6707	3130.4592	3139.4975	3199.8837	3206.1542	3215.7268
CC1CC1CC1(C)CC1	C[C@H]1C[C@H]1CC1(C)CC1	
InChI=1S/C9H16/c1-7-5-8(7)6-9(2)3-4-9/h7-8H,3-6H2,1-2H3	InChI=1S/C9H16/c1-7-5-8(7)6-9(2)3-4-9/h7-8H,3-6H2,1-2H3/t7-,8-/m0/s1
