18
gdb 123747	5.00158	0.99648	0.95721	6.2623	76.68	-0.2468	0.018	0.2648	1263.6678	0.150669	-398.131635	-398.124129	-398.123185	-398.164639	28.173	
C	-0.0804623983	 1.5458119638	-0.0137746374	-0.212572
C	 1.4723155891	 1.5310931011	-0.0682542299	-0.241802
C	 1.4237174475	 0.1080630366	 0.5501728282	 0.065617
C	-0.0557415787	-0.004080638	 0.0936016876	-0.241802
N	 2.3833788661	-0.891522379	 0.1291100886	-0.017868
C	 2.6789026978	-1.3189744295	-1.1369454344	 0.015676
N	 3.6069555692	-2.2415467284	-1.119197394	-0.226555
N	 3.9522100042	-2.4455021942	 0.2027677773	-0.228631
C	 3.215757214	-1.6366428819	 0.918727416	 0.014909
H	-0.4520785859	 2.0122670581	 0.9021336089	 0.114436
H	-0.6069833468	 1.9802062602	-0.8644282941	 0.113386
H	 1.8379951157	 1.4996110076	-1.0981264422	 0.118764
H	 2.025650605	 2.2974301555	 0.4780250591	 0.114183
H	 1.4844362743	 0.1624826497	 1.6395469658	 0.101589
H	-0.754911789	-0.4960799079	 0.7725502593	 0.114184
H	-0.1286953453	-0.4762349391	-0.8898096166	 0.118766
H	 2.1973194192	-0.9327908869	-2.0212990038	 0.13833
H	 3.236337972	-1.5436243576	 1.9939483815	 0.139388
46.6442	118.9451	126.4928	248.8266	385.4265	387.787	555.3203	657.9005	696.7571	725.5875	784.5725	818.3375	847.5276	864.0903	915.8451	927.6117	949.7269	959.7572	1009.3654	1028.4241	1048.1613	1091.7057	1129.0802	1202.4241	1212.4732	1232.8148	1236.1281	1251.1106	1256.7442	1274.9204	1286.5905	1311.415	1385.8866	1438.7425	1476.7136	1488.4349	1497.6889	1513.6567	1546.0126	3066.5861	3069.4483	3073.3263	3083.5798	3118.8227	3123.5126	3137.1873	3259.6132	3268.2639
C1CC(C1)N1C=NN=C1	C1CC(C1)n1cnnc1	
InChI=1S/C6H9N3/c1-2-6(3-1)9-4-7-8-5-9/h4-6H,1-3H2	InChI=1S/C6H9N3/c1-2-6(3-1)9-4-7-8-5-9/h4-6H,1-3H2
