17
gdb 30023	3.10735	1.65819	1.10427	2.718	74.99	-0.1825	0.0438	0.2264	1071.9455	0.1384	-418.027657	-418.019633	-418.018689	-418.061351	28.694	
C	-0.0018066821	 1.4574083465	 0.0529407665	-0.343125
N	-0.0325534744	 0.0103440518	 0.0359306424	-0.139486
C	-0.0646194481	-0.8282781168	-1.0771613066	-0.039768
N	-0.0917746128	-2.105696406	-0.7636755435	-0.34993
C	-0.0826777346	-2.1151426031	 0.6106508095	 0.171414
C	-0.0453125196	-0.8516750404	 1.0898877087	 0.419277
O	-0.0043318182	-0.6585098219	 2.4241667247	-0.304378
C	-0.1302586444	-2.0296655025	 2.9581648342	-0.095145
C	-0.0466417414	-3.0636226903	 1.7736751105	-0.365055
H	 0.8927359533	 1.8241117734	 0.5653894859	 0.148319
H	 0.0116980417	 1.8191130452	-0.9767989758	 0.145157
H	-0.884478047	 1.8635373821	 0.5564737418	 0.147469
H	-0.0697127611	-0.4142619118	-2.0744557548	 0.120935
H	 0.6668956706	-2.154066162	 3.6931589996	 0.124533
H	-1.0961682172	-2.0797919768	 3.4680189508	 0.123609
H	-0.885953256	-3.7658855605	 1.8157750338	 0.118927
H	 0.8749461014	-3.656179737	 1.8239997122	 0.117247
55.5908	58.4964	136.236	228.2789	235.6506	303.555	502.8727	601.6768	636.1364	642.9538	685.8326	734.1809	775.3897	803.3494	833.3318	927.8825	948.9796	1054.375	1071.4237	1084.3159	1153.4023	1194.7544	1229.2259	1240.7366	1246.6348	1275.9645	1338.9397	1366.7178	1403.0923	1456.5616	1476.8628	1481.4304	1498.1861	1514.2255	1517.7946	1573.5393	1662.4105	3023.8753	3041.2512	3055.5812	3067.8106	3102.0672	3122.5191	3138.0731	3248.3024
CN1C=NC2=C1OCC2	Cn1cnc2c1OCC2	
InChI=1S/C6H8N2O/c1-8-4-7-5-2-3-9-6(5)8/h4H,2-3H2,1H3	InChI=1S/C6H8N2O/c1-8-4-7-5-2-3-9-6(5)8/h4H,2-3H2,1H3
