21
gdb 59490	2.48828	1.06074	0.81929	1.3043	84.05	-0.2609	0.0459	0.3068	1459.1908	0.179246	-387.045414	-387.035085	-387.034141	-387.081262	37.875	
C	-1.6082691763	 0.7910628806	-0.7745486232	-0.390462
C	-1.3298073234	-0.6454342864	-1.2408396872	-0.004953
C	-2.2510562871	-1.062988288	-2.3967356302	-0.39734
C	 0.1196079327	-0.7798150924	-1.6581369629	 0.089305
O	 1.1207251889	-0.8019110064	-0.6272577687	-0.272138
C	 0.9695514608	-1.9608306509	-1.4463235387	 0.053042
C	 0.516506598	-3.2340536114	-0.7466046419	-0.387632
C	 0.0500396673	-4.241012226	-1.6932868576	 0.310362
C	-0.3281829083	-5.0499624847	-2.4978510662	-0.458889
H	-0.9428153663	 1.0697295607	 0.0475924186	 0.130474
H	-1.4538068554	 1.5055259431	-1.5918958657	 0.112505
H	-2.642269602	 0.8965459511	-0.4313528453	 0.111726
H	-1.5078983994	-1.3141226972	-0.3913484969	 0.076967
H	-2.0892046685	-0.4290021998	-3.2766756229	 0.113783
H	-2.0730474872	-2.1014006807	-2.6921142371	 0.131102
H	-3.3022469767	-0.963915667	-2.1085579977	 0.1148
H	 0.3900791345	-0.1388624194	-2.5025371773	 0.085708
H	 1.7872733872	-2.1223515202	-2.1508905767	 0.099329
H	 1.3621355641	-3.6308460721	-0.1696852405	 0.140991
H	-0.2665179532	-3.0016737285	-0.0184908123	 0.141555
H	-0.6630021897	-5.7750263342	-3.1976374596	 0.199766
47.5277	54.1682	128.8667	174.3461	224.0449	228.358	254.1711	323.1459	343.0638	372.2516	381.2892	473.0058	507.6272	554.743	625.9956	649.6556	796.3053	820.5445	883.4141	931.8616	946.731	962.2925	968.8414	979.2226	1039.2936	1100.3897	1128.6944	1165.5847	1186.8237	1202.4981	1223.0376	1293.187	1312.578	1325.6511	1341.065	1399.0096	1406.7679	1422.4202	1472.3225	1489.9281	1491.2725	1492.5561	1504.6755	1516.7838	2238.7994	3027.6226	3028.4753	3030.5729	3039.9932	3065.3882	3078.7769	3093.0945	3098.3749	3101.39	3111.4088	3113.8404	3506.0057
CC(C)C1OC1CC#C	CC(C)[C@H]1O[C@H]1CC#C	
InChI=1S/C8H12O/c1-4-5-7-8(9-7)6(2)3/h1,6-8H,5H2,2-3H3	InChI=1S/C8H12O/c1-4-5-7-8(9-7)6(2)3/h1,6-8H,5H2,2-3H3/t7-,8+/m0/s1
