21
gdb 57108	3.11497	1.04111	0.9018	1.3147	83.69	-0.2628	0.0317	0.2945	1364.608	0.182422	-387.068385	-387.058801	-387.057856	-387.103855	35.664	
O	-0.2414957056	 1.3902247036	-0.0802960808	-0.418737
C	 0.0076709386	-0.0139823686	-0.0195603692	-0.087179
C	 0.7028228784	-0.4844056102	-1.2218916665	 0.298605
C	 1.3049885403	-0.8420489703	-2.1994750964	-0.44778
C	 0.7534161578	-0.4273249961	 1.2678751814	 0.046053
C	 2.1459845336	 0.2007655918	 1.453992623	-0.218473
C	 2.4331445706	-0.0313251249	 2.9440890825	-0.200192
C	 1.0753911572	 0.2328277124	 3.6377303735	-0.206775
C	-0.0111130799	-0.0399823668	 2.557757058	-0.232564
H	 0.5657026493	 1.8156137434	-0.3879446195	 0.288727
H	-0.9906455563	-0.4693522016	 0.0076554931	 0.115593
H	 1.8209399328	-1.1646607518	-3.0700364879	 0.198734
H	 0.872520228	-1.517671989	 1.225787098	 0.078035
H	 2.9011012877	-0.2256790556	 0.7887355939	 0.10287
H	 2.0940188477	 1.2795589662	 1.2537004186	 0.084783
H	 2.7399047888	-1.0731789117	 3.0967708559	 0.097145
H	 3.2382574709	 0.5995209287	 3.3315169482	 0.092072
H	 0.9445303406	-0.3906798389	 4.526343527	 0.095816
H	 1.0190163487	 1.2725887365	 3.9749113639	 0.100658
H	-0.5995503355	 0.8616093441	 2.367973109	 0.118929
H	-0.7099833235	-0.8259349714	 2.8583738142	 0.093678
24.959	78.0953	129.3395	171.834	208.8853	279.1248	282.8466	306.6393	430.3084	504.1313	573.7512	614.3564	623.7645	670.0339	706.3048	772.4921	810.0431	868.799	895.6367	906.6395	951.7154	964.4583	998.2728	1024.796	1039.1496	1082.1684	1114.4419	1181.9099	1205.8763	1224.5463	1259.8736	1281.1588	1285.0749	1312.6449	1315.9145	1327.6827	1345.8611	1361.9861	1387.2773	1420.3259	1486.4108	1490.2496	1496.649	1517.3622	2229.7367	3014.628	3023.4979	3030.6512	3034.4602	3047.7744	3059.3105	3080.5096	3090.5183	3097.9107	3109.1479	3502.6107	3819.4535
OC(C#C)C1CCCC1	O[C@@H](C#C)C1CCCC1	
InChI=1S/C8H12O/c1-2-8(9)7-5-3-4-6-7/h1,7-9H,3-6H2	InChI=1S/C8H12O/c1-2-8(9)7-5-3-4-6-7/h1,7-9H,3-6H2/t8-/m0/s1
