16
gdb 7916	3.48441	1.84237	1.28554	5.3457	71.53	-0.2121	0.0013	0.2135	937.5218	0.131638	-379.957341	-379.949711	-379.948766	-379.988923	29.259	
C	-0.0377499854	 1.5325909302	-0.0052510037	-0.402071
C	 0.0364167369	 0.0065128841	 0.0231421832	 0.044704
O	 0.7831907583	-0.4616981199	-1.100593149	-0.263498
C	 1.8450619601	-1.244860944	-0.6716416278	 0.415749
N	 2.6735001153	-1.8000956095	-1.4539646521	-0.568152
C	 1.8151024809	-1.2908164431	 0.7818568933	-0.31237
C	 0.7656930017	-0.5714752454	 1.2185597134	 0.347314
N	 0.2798532946	-0.3829985292	 2.4866208088	-0.591846
H	 0.9624989337	 1.9652548483	 0.0840674646	 0.134722
H	-0.4797287975	 1.8635705217	-0.9482489641	 0.140195
H	-0.6636903876	 1.914326439	 0.8089982091	 0.108973
H	-0.978988439	-0.4120605731	-0.0380005527	 0.105706
H	 2.4393769693	-1.5873683219	-2.4242815212	 0.213669
H	 2.5422993167	-1.835938906	 1.3639448406	 0.107759
H	 0.9021030098	-0.6079304027	 3.2478738853	 0.262339
H	-0.2617900278	 0.4514907314	 2.6502749224	 0.256808
117.7153	175.4308	233.3535	253.27	329.0582	364.148	410.2456	504.6589	519.1168	601.2057	634.202	689.0922	700.5564	805.4319	827.0236	859.4667	898.5128	956.3157	1053.6145	1078.89	1090.0815	1116.4732	1129.8777	1250.4879	1271.8222	1348.83	1371.0219	1400.75	1417.0673	1486.0292	1496.5346	1646.2309	1709.1672	1760.1364	2999.7383	3038.5669	3110.0975	3131.6921	3252.513	3483.1906	3579.0983	3681.5352
CC1OC(=N)C=C1N	C[C@H]1OC(=C[C]1N)[NH]	
InChI=1S/C5H8N2O/c1-3-4(6)2-5(7)8-3/h2-3,7H,6H2,1H3	InChI=1S/C5H8N2O/c1-3-4(6)2-5(7)8-3/h2-3,7H,6H2,1H3/t3-/m1/s1
