20
gdb 95486	2.22642	1.53312	1.00031	2.7282	81.69	-0.236	-0.0524	0.1837	1214.1289	0.172093	-403.165035	-403.156327	-403.155382	-403.198436	33.293	
C	-0.0703070831	 1.5339622069	-0.0560551145	-0.403369
C	 0.0354961212	 0.0039123456	-0.0446830307	 0.021771
C	 0.8080576594	-0.4881790863	-1.2949159929	-0.180214
N	 1.4224747257	-1.8192863701	-1.1539685298	-0.310098
C	 0.5355293376	-2.8377745179	-0.697483094	-0.047734
C	 0.1213534124	-2.9659322456	 0.5693481793	-0.137983
C	 0.3407295309	-1.9627117514	 1.6433662918	 0.358753
O	 0.1735900322	-2.2645657149	 2.8089911907	-0.324634
C	 0.6736280476	-0.5109716187	 1.2643874778	-0.328558
H	 0.9166749715	 1.9982921948	 0.0556207137	 0.115911
H	-0.4996900712	 1.8915665986	-0.9983039607	 0.116521
H	-0.7047319501	 1.896092077	 0.7586201731	 0.120755
H	-0.9820895574	-0.4025338222	-0.0927157466	 0.084958
H	 0.1436062758	-0.4922900592	-2.1663730811	 0.114004
H	 1.6246752231	 0.2075221522	-1.5213869912	 0.10604
H	 2.1848996793	-1.7377424575	-0.4904091135	 0.234274
H	 0.2219633998	-3.5546383336	-1.4555828209	 0.115161
H	-0.453509766	-3.8358392995	 0.8740260427	 0.109463
H	 1.7673916181	-0.3980205671	 1.225022621	 0.11013
H	 0.3453527231	 0.0904537088	 2.1170640558	 0.12485
64.8314	134.6528	218.3262	225.1341	259.7681	279.5349	337.5986	385.1356	406.062	501.7943	545.24	630.6225	683.3418	773.8932	813.3705	841.4973	861.6974	881.8216	941.222	955.1923	986.8472	1014.819	1054.6111	1118.9526	1123.4697	1161.8306	1200.2761	1224.74	1262.4034	1290.3592	1306.408	1336.1872	1376.2208	1384.0815	1408.3241	1413.3415	1459.6294	1470.5721	1488.1419	1498.4078	1499.8476	1670.9394	1761.7403	3004.2059	3024.739	3028.8886	3032.683	3076.0014	3088.5002	3092.3139	3104.1518	3131.2718	3179.7433	3524.6515
CC1CNC=CC(=O)C1	C[C@H]1CNC=CC(=O)C1	
InChI=1S/C7H11NO/c1-6-4-7(9)2-3-8-5-6/h2-3,6,8H,4-5H2,1H3	InChI=1S/C7H11NO/c1-6-4-7(9)2-3-8-5-6/h2-3,6,8H,4-5H2,1H3/t6-/m1/s1
