15
gdb 77337	3.03486	1.27877	0.94837	1.492	65.63	-0.2643	-0.0154	0.2489	1157.9024	0.114036	-453.990922	-453.98263	-453.981685	-454.02427	29.644	
N	 0.2003710021	 1.1423253923	 0.5973351508	-0.505587
C	 0.0421326152	-0.1052976057	-0.1159365354	-0.130469
C	-1.42093517	-0.5786592603	-0.2565963269	-0.173702
C	-1.3355566285	-1.490477061	-1.5029095733	-0.098481
O	-0.3098990822	-0.9124765421	-2.3223612285	-0.2147
C	 0.5095490885	-0.115914426	-1.5839328402	 0.415578
O	 1.4291483338	 0.4862539174	-2.0515965998	-0.330881
C	-1.9660521463	-1.2500934211	 0.9139666712	 0.282726
N	-2.3960742567	-1.8064745752	 1.8306648794	-0.31032
H	 1.1876973429	 1.315904129	 0.7588006703	 0.253877
H	-0.1264569123	 1.9171646528	 0.0255150322	 0.239791
H	 0.6150904948	-0.8798588026	 0.409201298	 0.139912
H	-2.0461531516	 0.2930797514	-0.4840265576	 0.140324
H	-1.0527322541	-2.5120632418	-1.2284496211	 0.142978
H	-2.2593125059	-1.5171425071	-2.0817310192	 0.148954
74.6274	136.8358	157.332	186.8664	238.4626	271.0157	368.4963	461.0078	487.7777	568.9442	594.6075	644.3126	718.9809	835.698	871.9399	935.187	1025.9798	1036.3608	1062.3116	1065.6973	1148.6965	1178.7487	1200.4249	1249.7249	1262.1693	1303.7773	1351.532	1393.9359	1425.5053	1521.5355	1671.9254	1890.3098	2365.5628	3037.9234	3051.0814	3060.3498	3132.9334	3494.5562	3573.0884
NC1C(COC1=O)C#N	N[C@H]1[C@@H](COC1=O)C#N	
InChI=1S/C5H6N2O2/c6-1-3-2-9-5(8)4(3)7/h3-4H,2,7H2	InChI=1S/C5H6N2O2/c6-1-3-2-9-5(8)4(3)7/h3-4H,2,7H2/t3-,4+/m1/s1
