21
gdb 53238	4.00175	0.7547	0.69802	0.1371	94.47	-0.2347	0.0229	0.2576	1724.3433	0.181678	-349.950621	-349.940674	-349.93973	-349.987731	35.709	
C	 0.0479818501	 1.564271792	-0.0890073874	-0.497558
C	 0.0162409593	 0.1087863567	-0.0500490416	 0.058999
C	-0.008808455	-1.0951867467	-0.0203189741	 0.069639
C	-0.0453883608	-2.5539154876	 0.0262751763	-0.204081
C	 0.60859659	-3.1717949493	 1.3004714094	-0.225246
C	-0.2041794616	-4.4544277473	 1.6129299094	-0.013635
C	-0.331852796	-4.7586969266	 3.1095951649	-0.399332
C	-1.5182647954	-4.1788700003	 0.912187791	-0.073119
C	-1.4444367143	-3.1551432898	 0.067114653	-0.072971
H	 1.027800352	 1.9500140409	 0.2144173899	 0.145357
H	-0.1561098166	 1.9415426793	-1.0974310885	 0.144991
H	-0.6999871245	 1.9990457923	 0.5835203079	 0.145265
H	 0.4701587414	-2.9349234259	-0.8698918479	 0.102459
H	 1.6778676683	-3.3570028541	 1.1717617142	 0.099078
H	 0.4919237887	-2.462420861	 2.1260664222	 0.110346
H	 0.2753158308	-5.3227434436	 1.1337109577	 0.07777
H	-0.8205839675	-3.931066251	 3.6351721669	 0.117707
H	-0.9243420075	-5.6636780594	 3.2820087967	 0.1111
H	 0.6519773599	-4.9136544681	 3.5651988495	 0.11328
H	-2.3998415571	-4.7905259362	 1.0762080168	 0.090367
H	-2.2417839543	-2.7849395442	-0.5664235162	 0.099582
11.5442	52.6929	90.8766	143.5641	220.5772	251.7204	275.1108	321.8682	346.486	432.318	493.8615	523.7248	578.8077	722.6123	765.9344	818.2649	849.9459	906.2053	926.8202	948.7497	972.6396	1018.4818	1053.3408	1053.8428	1057.9476	1108.3245	1121.5026	1152.4079	1183.1048	1196.504	1273.2716	1282.3487	1307.076	1332.6421	1344.5595	1381.7627	1409.5058	1415.1296	1479.3081	1479.8698	1487.8565	1496.6298	1498.9168	1685.3178	2369.3009	2967.7408	2973.316	3024.2727	3027.1061	3054.7994	3083.6292	3083.9096	3096.0965	3098.0903	3106.495	3177.2193	3211.2869
CC#CC1CC(C)C=C1	CC#C[C@H]1C[C@@H](C)C=C1	
InChI=1S/C9H12/c1-3-4-9-6-5-8(2)7-9/h5-6,8-9H,7H2,1-2H3	InChI=1S/C9H12/c1-3-4-9-6-5-8(2)7-9/h5-6,8-9H,7H2,1-2H3/t8-,9+/m0/s1
