21
gdb 84843	2.22675	1.82848	1.22023	1.6826	83.46	-0.2414	0.0271	0.2685	1108.4594	0.182602	-387.101985	-387.093284	-387.09234	-387.134892	34.052	
C	-0.8211295927	 1.090330735	 0.1160403695	-0.395262
C	 0.0937403382	-0.131744904	-0.1071220939	-0.102837
C	 0.98133347	 0.0934586582	-1.3049964619	-0.036279
C	 2.3019503393	-0.0580984747	-1.3335504491	-0.076871
C	 3.1245983822	-0.5111026282	-0.1616876365	-0.299027
C	 2.3341961319	-0.6239392646	 1.119046483	-0.002648
O	 1.7412809397	 0.5799522702	 1.6209047436	-0.302608
C	 0.8688727265	-0.4697371877	 1.1639673415	 0.397523
C	 0.0870967033	-1.1618713301	 2.2597386232	-0.474461
H	-0.2188699439	 1.9590802593	 0.3946291023	 0.139399
H	-1.3723453334	 1.3297328219	-0.7986577758	 0.11023
H	-1.5535665386	 0.9096958496	 0.9083721072	 0.112493
H	-0.5534323146	-0.9952679822	-0.326176789	 0.080168
H	 0.4647496192	 0.419696317	-2.2056658988	 0.082863
H	 2.8441092582	 0.1415971366	-2.2545888119	 0.086208
H	 3.5775471658	-1.4895991378	-0.3799448931	 0.111172
H	 3.9711301839	 0.1721560863	-0.002979802	 0.11934
H	 2.7997297161	-1.2351513205	 1.8948589477	 0.078279
H	-0.7870364512	-0.5736158657	 2.556665007	 0.126702
H	-0.2671010014	-2.1427280406	 1.9242481269	 0.119197
H	 0.7146034615	-1.3015923679	 3.1435191101	 0.126419
80.7512	172.2655	215.4899	234.5028	246.8859	278.7238	333.9321	394.3472	436.8202	506.4031	512.9346	609.6791	671.6239	733.5451	782.3619	820.757	886.5271	901.2154	925.4783	976.9392	996.8732	1005.3802	1022.3167	1060.9138	1072.1626	1107.2978	1125.9907	1142.1327	1209.7413	1219.4209	1251.8588	1309.9216	1331.2407	1376.705	1378.1279	1398.5361	1410.5479	1425.1812	1464.3171	1469.9888	1485.0312	1498.9178	1502.4291	1503.9876	1738.7599	2983.5132	3000.4247	3024.1339	3035.95	3041.2558	3085.8664	3099.6227	3107.3829	3120.8084	3125.5182	3136.6493	3163.1055
CC1C=CCC2OC12C	C[C@H]1C=CC[C@H]2O[C@@]12C	
InChI=1S/C8H12O/c1-6-4-3-5-7-8(6,2)9-7/h3-4,6-7H,5H2,1-2H3	InChI=1S/C8H12O/c1-6-4-3-5-7-8(6,2)9-7/h3-4,6-7H,5H2,1-2H3/t6-,7+,8-/m0/s1
