19
gdb 81124	2.64631	1.34641	1.07883	1.5702	80.37	-0.2368	0.0461	0.2829	1175.6115	0.156946	-385.791842	-385.782967	-385.782023	-385.825614	33.919	
C	 0.6640569191	 1.6558064948	 0.7463266972	-0.440464
C	 0.2117353143	 0.2584825896	 0.3574896444	 0.019321
C	 0.8101953562	-0.5397717354	-0.8351012487	 0.024119
C	 2.1102279238	-0.8049298769	-0.0426002331	-0.265232
C	 0.8881465662	-1.0487834674	 0.8796702768	 0.403804
C	 0.8168485737	-1.7037648904	 2.2401947449	-0.493809
C	 1.4917923231	-0.9228318199	 3.2696245295	 0.299965
C	 2.0552848835	-0.2666042001	 4.1037691596	-0.444638
O	 0.2396448147	-1.7737379671	-0.2411269745	-0.345453
H	 1.7487799509	 1.7825197762	 0.7159591677	 0.121395
H	 0.2216128736	 2.3976998203	 0.072522832	 0.119073
H	 0.3332693651	 1.8930367462	 1.7622859597	 0.131553
H	-0.8778312639	 0.1627015367	 0.3807678124	 0.080187
H	 0.6712365427	-0.3941555501	-1.9063962237	 0.093184
H	 2.6434322192	-1.7104572193	-0.3351749389	 0.105785
H	 2.7813656106	 0.0259918035	 0.1776519566	 0.102946
H	-0.2390044579	-1.8483075373	 2.5018229024	 0.144291
H	 1.2621446095	-2.7041898022	 2.1691376005	 0.145082
H	 2.5509199556	 0.3053440887	 4.8485612756	 0.198891
53.5449	96.2644	172.7044	206.9781	292.22	325.1892	343.4474	363.9255	438.9818	554.0741	591.2581	623.8217	644.3733	670.9816	751.9191	785.8452	808.2727	897.4255	905.5199	967.7022	982.5551	989.0996	1011.5455	1065.7038	1092.8026	1107.8416	1139.6032	1155.3729	1209.4322	1215.5562	1232.9251	1284.3842	1293.6457	1338.8797	1390.4806	1416.5607	1465.2944	1491.1743	1493.0019	1505.4794	2241.738	3024.4353	3039.0616	3059.9854	3070.8152	3079.243	3100.4357	3119.4585	3121.9267	3153.0932	3505.56
CC1C2CC1(CC#C)O2	C[C@H]1[C@H]2C[C@]1(CC#C)O2	
InChI=1S/C8H10O/c1-3-4-8-5-7(9-8)6(8)2/h1,6-7H,4-5H2,2H3	InChI=1S/C8H10O/c1-3-4-8-5-7(9-8)6(8)2/h1,6-7H,4-5H2,2H3/t6-,7+,8-/m0/s1
