17
gdb 51125	3.29452	1.38484	1.20135	1.9402	72.6	-0.2133	0.023	0.2363	1053.9859	0.136271	-417.937948	-417.930208	-417.929264	-417.970602	29.968	
O	 0.2190161211	 1.5516381401	-1.3716776981	-0.320389
C	 0.1012234761	 1.5169700085	-0.1667369154	 0.135698
N	 1.1138935719	 1.2536516946	 0.7090470833	-0.393503
C	 2.4309982397	 0.9419110855	 0.2892710613	 0.398583
C	 3.643686881	 1.4489941863	 1.0177817091	-0.351926
C	 3.4506239287	 1.8142038948	-0.4333107139	-0.100499
C	 3.7568305591	 0.6225491808	-1.3850807888	-0.03519
N	 4.2185582303	-0.5417390276	-0.5779356768	-0.347262
C	 2.7727993185	-0.2259973493	-0.6984528686	-0.102616
H	-0.8575019679	 1.7018270089	 0.3587703761	 0.07395
H	 0.8829762305	 1.1733526649	 1.6881658386	 0.247723
H	 3.4337240259	 2.2644280384	 1.7037817173	 0.108634
H	 4.426622543	 0.7666736115	 1.3223725185	 0.146864
H	 3.3353601563	 2.8346875952	-0.7706504615	 0.105363
H	 3.9863887415	 0.708490052	-2.4380831343	 0.100574
H	 4.4140698211	-1.3003060088	-1.2309054668	 0.231285
H	 2.0541339331	-0.9309467359	-1.0933384699	 0.102713
54.5571	118.1857	207.8195	277.6609	367.1193	415.5928	433.8565	522.2269	538.1902	618.1464	740.2207	774.2664	812.8816	830.7962	848.7656	865.6895	909.2821	929.3054	966.42	988.4931	1021.7835	1031.9625	1056.4558	1096.0176	1104.8307	1127.4247	1157.2341	1206.0739	1228.2725	1292.7962	1314.3611	1344.1545	1388.4714	1429.8976	1469.0349	1504.693	1807.4547	2930.3643	3136.3031	3204.5645	3214.3851	3220.3227	3234.3567	3472.5856	3602.6746
O=CNC12CC1C1NC21	O=CN[C@]12C[C@H]1[C@H]1N[C@@H]21	
InChI=1S/C6H8N2O/c9-2-7-6-1-3(6)4-5(6)8-4/h2-5,8H,1H2,(H,7,9)	InChI=1S/C6H8N2O/c9-2-7-6-1-3(6)4-5(6)8-4/h2-5,8H,1H2,(H,7,9)/t3-,4+,5+,6+/m0/s1
