21
gdb 111595	4.08539	1.25874	1.21793	0.9868	82.19	-0.2459	0.088	0.3339	1125.7875	0.185032	-387.049794	-387.042323	-387.041379	-387.081753	30.205	
C	-0.2555682685	 1.3646075234	 0.1416240476	-0.243075
O	 0.2716657437	 0.0903675838	-0.1561948575	-0.253427
C	 0.7807049317	-0.5753527491	 0.9669193746	 0.184601
C	-0.1705737719	-1.3073523178	 1.9668977587	-0.109018
C	-0.9923948492	-2.18937489	 1.0063463067	-0.203392
C	 0.2161007368	-3.0187255819	 0.5212236965	-0.036718
C	 0.6541857813	-3.7153266564	 1.8369863458	-0.234184
C	 1.0470184765	-2.2915603732	 2.2560249751	-0.031337
C	 1.3792102798	-1.9581269162	 0.7590850622	-0.091139
H	 0.5039858124	 2.0197290294	 0.5967479464	 0.104037
H	-0.5867509933	 1.8098895207	-0.7996172393	 0.125696
H	-1.1141484753	 1.3073129538	 0.8271447663	 0.107724
H	 1.4916285834	 0.0700907383	 1.5076476238	 0.058883
H	-0.684500056	-0.7783704028	 2.7686603308	 0.057302
H	-1.7455905324	-2.8053780511	 1.5054836152	 0.085489
H	-1.4691387524	-1.6030972278	 0.2186080925	 0.105809
H	 0.1259207808	-3.5653424966	-0.4162947932	 0.061979
H	-0.1036014114	-4.2638407547	 2.4066489325	 0.086398
H	 1.543272583	-4.340079259	 1.7088065118	 0.094897
H	 1.7091605746	-2.0552803687	 3.0876304007	 0.06416
H	 2.3476557164	-2.1412069343	 0.2962509327	 0.065317
89.383	157.8045	182.6019	293.3727	345.1845	456.0825	468.4252	557.2706	689.3541	721.7493	779.5825	823.4647	830.7559	835.5055	905.6653	921.9568	956.4136	968.6457	979.1088	1002.8418	1019.2771	1034.4874	1050.4926	1072.8548	1091.002	1132.682	1159.1659	1161.1726	1182.8067	1184.6796	1205.6825	1218.5557	1234.6013	1239.5252	1266.4881	1271.7631	1288.8603	1328.5584	1335.3468	1400.3099	1480.7627	1487.9237	1491.2154	1507.7771	1510.3768	2971.7557	2979.7316	3024.2163	3037.9766	3061.3472	3094.5571	3113.6762	3115.4411	3117.4256	3121.8044	3125.4763	3134.51
COC1C2CC3CC2C13	CO[C@H]1[C@H]2C[C@@H]3C[C@H]2[C@H]13	
InChI=1S/C8H12O/c1-9-8-6-3-4-2-5(6)7(4)8/h4-8H,2-3H2,1H3	InChI=1S/C8H12O/c1-9-8-6-3-4-2-5(6)7(4)8/h4-8H,2-3H2,1H3/t4-,5+,6-,7+,8-/m0/s1
