17
gdb 128769	3.39321	1.10849	0.85707	3.8288	72.7	-0.207	-0.0027	0.2043	1318.5738	0.136013	-455.117803	-455.108906	-455.107962	-455.152118	31.72	
C	-0.1862078963	 1.3707163006	 0.3833891092	-0.228742
O	-0.1933348301	-0.0361117854	 0.499393319	-0.238745
C	-1.1266961652	-0.6494742794	-0.3723954278	-0.194521
C	-1.1303649183	-2.1123633404	-0.0931184327	 0.366375
C	-0.9379404654	-2.8341590027	 1.0495687028	 0.072366
N	-0.7208350401	-2.3757818098	 2.3522392665	-0.618721
C	-1.1016034166	-4.1781320446	 0.6056479331	-0.012008
N	-1.3644353124	-4.2537953388	-0.6768896858	-0.144296
O	-1.3856749285	-2.9475978381	-1.1285109005	-0.223064
H	 0.5538383396	 1.7510335583	 1.0907136601	 0.133158
H	 0.0937571475	 1.6888751875	-0.6319410347	 0.115549
H	-1.1692968896	 1.8033891903	 0.6237932428	 0.113675
H	-2.1285983037	-0.211575511	-0.2149197607	 0.11231
H	-0.8618734668	-0.4756154808	-1.4272766337	 0.121421
H	-0.3458174835	-1.4349405277	 2.3447701281	 0.256752
H	-0.1178830157	-2.9860158751	 2.8884250329	 0.244825
H	-1.0338150549	-5.0881354829	 1.1861331216	 0.123666
53.4725	89.75	134.0526	225.2184	237.2784	287.5531	302.7128	335.1503	376.1178	431.3765	628.8402	667.1361	700.8555	773.3861	803.3674	891.8929	946.3046	960.5294	994.6985	1025.8336	1084.9927	1148.2227	1181.1973	1209.9514	1225.4635	1232.9756	1273.0959	1277.9965	1405.5981	1461.7829	1480.3553	1485.6933	1500.4452	1518.488	1528.7842	1648.3543	1702.2164	2943.2287	2981.3674	2996.7232	3031.0834	3123.3508	3236.5574	3533.428	3625.9171
COCC1=C(N)C=NO1	COCc1c(N)cno1	
InChI=1S/C5H8N2O2/c1-8-3-5-4(6)2-7-9-5/h2H,3,6H2,1H3	InChI=1S/C5H8N2O2/c1-8-3-5-4(6)2-7-9-5/h2H,3,6H2,1H3
