21
gdb 69961	2.42017	1.83903	1.34365	2.0605	81.37	-0.2374	0.0681	0.3054	1045.6504	0.182272	-387.038675	-387.030366	-387.029421	-387.070792	33.488	
C	-0.0583296597	 1.5557943075	 0.0770536505	-0.500118
C	 0.0405119806	 0.0563239523	 0.0074658788	 0.291131
C	-0.8582722331	-0.830161853	 0.8271052152	-0.34635
C	 0.6263097273	-0.9495744038	 1.0221614994	-0.111481
C	 1.2377424749	-1.7510054427	-0.1411859872	 0.070246
O	 0.4199521732	-2.8072581469	-0.7104605843	-0.301383
C	-0.0565621168	-1.9280791912	-1.762173931	-0.152384
C	 0.7169831362	-0.726715054	-1.1677156207	 0.254215
C	 1.638354987	 0.0641744319	-2.0689926564	-0.5001
H	 0.8842650626	 2.0471235603	-0.185390111	 0.116953
H	-0.8308912767	 1.9367607237	-0.6026473695	 0.119595
H	-0.3278171788	 1.8764808312	 1.0886469465	 0.119075
H	-1.3829818901	-0.3130444098	 1.6247890599	 0.10585
H	-1.4086886863	-1.6619026204	 0.4021050806	 0.128833
H	 1.1034348404	-0.7714036984	 1.9793376688	 0.080185
H	 2.2902571818	-2.0326281569	-0.0501222658	 0.071383
H	 0.3122073824	-2.2529126855	-2.7440570869	 0.094939
H	-1.1507915344	-1.8657352266	-1.7922771485	 0.098422
H	 1.0792885046	 0.7570985913	-2.7088716381	 0.12017
H	 2.3539558381	 0.6564394028	-1.4887984986	 0.121367
H	 2.2110790468	-0.6042800518	-2.7202758218	 0.11945
143.3318	199.6825	224.0395	248.8167	272.3854	293.605	359.5065	378.0237	452.0779	519.3832	589.6485	641.9018	747.9858	784.4437	851.1478	884.0333	891.9903	906.4961	936.122	977.1226	980.4769	993.1769	993.5777	1039.855	1065.1882	1089.62	1106.6809	1150.7769	1168.5877	1175.7207	1193.147	1245.6758	1270.3235	1293.4567	1308.596	1360.7374	1381.8171	1413.9035	1422.209	1483.2439	1489.3888	1496.2993	1500.6371	1503.0291	1518.5239	3006.6318	3020.6633	3026.1466	3055.221	3072.3806	3080.047	3088.7826	3096.3691	3100.6121	3130.9024	3171.4456	3212.4545
CC12CC1C1OCC21C	C[C@]12C[C@H]1[C@H]1OC[C@@]21C	
InChI=1S/C8H12O/c1-7-3-5(7)6-8(7,2)4-9-6/h5-6H,3-4H2,1-2H3	InChI=1S/C8H12O/c1-7-3-5(7)6-8(7,2)4-9-6/h5-6H,3-4H2,1-2H3/t5-,6+,7-,8+/m0/s1
