15
gdb 71427	4.81703	1.17196	1.06927	5.0145	69.44	-0.248	0.0109	0.2589	1085.2871	0.112966	-416.727073	-416.719836	-416.718892	-416.758638	28.214	
O	-0.0432179591	 1.3477122133	 0.0094301886	-0.45473
C	 0.0682968827	-0.0200175969	-0.025469702	 0.362646
C	 0.8422868693	-0.9069112735	-0.9873035516	-0.243683
N	-0.0567869911	-2.0553241789	-0.5571613263	-0.16364
C	-1.059000252	-0.9969502043	-0.037661313	-0.072112
C	-0.2317452382	-0.9057563226	 1.2174647791	-0.151128
C	 0.3900182514	-2.2548990706	 0.8913662752	-0.143293
C	-0.2836815742	-3.3963766167	 1.5055960907	 0.300834
N	-0.8088683045	-4.2861521562	 2.0227905016	-0.321606
H	 0.6801051359	 1.7085760234	 0.5347537446	 0.295275
H	 0.6347620302	-0.6666984415	-2.032594284	 0.12853
H	 1.9145626408	-1.0846050995	-0.847971283	 0.104748
H	-2.1140002739	-0.9587327833	-0.2628069257	 0.124012
H	-0.4937430778	-0.4699137189	 2.1727345331	 0.115336
H	 1.4729239805	-2.3786949938	 1.0061323224	 0.118811
124.2592	148.1572	272.0654	326.6628	357.6439	417.6869	453.7155	485.0981	542.6698	636.8142	763.1755	805.8107	838.7926	868.6934	895.2129	899.8026	933.8042	966.2631	1012.4624	1037.89	1054.5212	1088.9853	1119.8971	1157.1575	1192.1526	1230.9072	1253.2102	1280.5525	1305.9866	1356.321	1448.4708	1514.2558	2361.2224	3038.3549	3049.7347	3113.6211	3203.7444	3239.3226	3791.3019
OC12CN3C1C2C3C#N	O[C@]12CN3[C@H]1[C@H]2[C@H]3C#N	
InChI=1S/C6H6N2O/c7-1-3-4-5-6(4,9)2-8(3)5/h3-5,9H,2H2	InChI=1S/C6H6N2O/c7-1-3-4-5-6(4,9)2-8(3)5/h3-5,9H,2H2/t3-,4-,5+,6+/m1/s1
