19
gdb 36195	3.34547	1.15996	1.02833	1.4475	80.13	-0.2425	0.0439	0.2864	1211.2645	0.158299	-385.821223	-385.812641	-385.811697	-385.855004	32.466	
C	-0.0436338586	-1.2053255804	 0.0419763077	-0.449389
C	-0.0523109818	-0.0040807109	 0.0864499016	 0.306617
C	-0.0152972297	 1.4551386391	 0.1304183252	-0.475527
C	 1.3972911548	 1.9976711681	-0.0367409351	 0.324406
C	 2.4083971664	 1.827757026	 1.1348549082	-0.285072
C	 2.7383283625	 3.3533387825	 1.0773085899	-0.231015
C	 1.7763822542	 3.5087042038	-0.1211762765	 0.056835
O	 2.4260515967	 3.3123858987	-1.3922259337	-0.293367
C	 2.0534430369	 1.9142849812	-1.4280581821	-0.116563
H	-0.0508007911	-2.2664305043	 0.0048561694	 0.197971
H	-0.6621486937	 1.8628956537	-0.6578512901	 0.132778
H	-0.4348945786	 1.8037760745	 1.0834877286	 0.129261
H	 1.9342474365	 1.517571039	 2.0692557737	 0.107127
H	 3.238096928	 1.1459803548	 0.9332367426	 0.106457
H	 2.4173218492	 3.899824464	 1.9683972539	 0.101631
H	 3.7707344365	 3.6241191042	 0.847476059	 0.113247
H	 1.0717387444	 4.3458957729	-0.1379805922	 0.07095
H	 2.9211748915	 1.250557684	-1.5245615717	 0.103023
H	 1.3537461561	 1.7085541492	-2.2492958785	 0.10063
56.1943	91.5175	107.6605	243.2436	308.2748	360.784	369.3007	376.8353	453.6997	624.8494	639.9939	670.224	695.6889	738.1687	860.4962	883.437	905.9261	931.9596	941.3059	953.9074	971.2998	1005.1965	1033.3197	1086.8716	1109.5789	1134.2247	1157.8119	1193.355	1221.846	1247.0425	1266.7958	1284.5003	1302.0757	1320.757	1337.7402	1376.6628	1462.7812	1468.0513	1489.035	1525.6759	2236.6361	3004.25	3012.6586	3044.1997	3054.4334	3054.7002	3060.9136	3069.2334	3107.3115	3127.0844	3505.6541
C#CCC12CCC1OC2	C#CC[C@]12CC[C@H]1OC2	
InChI=1S/C8H10O/c1-2-4-8-5-3-7(8)9-6-8/h1,7H,3-6H2	InChI=1S/C8H10O/c1-2-4-8-5-3-7(8)9-6-8/h1,7H,3-6H2/t7-,8-/m1/s1
