16
gdb 46892	3.07816	1.57838	1.2457	3.6172	71.88	-0.253	-0.0487	0.2043	995.091	0.125782	-437.882212	-437.874974	-437.87403	-437.914103	27.878	
O	-0.1209411851	 0.2739475512	 1.1515608705	-0.327338
C	-0.1415738891	 1.2665468983	 0.4717385227	 0.381201
O	-1.3379879924	 1.8807604797	 0.2453734709	-0.227015
C	-1.4852364129	 2.7605011321	-0.8652771562	-0.123187
C	-0.8798156167	 4.1305896157	-0.6845890793	-0.002945
C	-0.3716824627	 4.6141915485	 0.614711813	-0.248108
N	 0.5739128196	 4.2891744472	-0.4823184469	-0.141295
C	 1.3866961923	 3.139028685	-0.3827313702	-0.023546
C	 1.1010182485	 1.8650854079	-0.0670690586	-0.192406
H	-1.0790002374	 2.2932244601	-1.771612552	 0.127934
H	-2.5654205131	 2.8648197259	-1.0003310607	 0.1365
H	-1.2772452237	 4.8602817058	-1.3892575833	 0.109204
H	-0.4219181337	 5.6690144553	 0.8667823091	 0.132056
H	-0.4126102312	 3.9298158299	 1.4563769124	 0.148246
H	 2.4238256325	 3.3645674444	-0.6248027326	 0.125172
H	 1.9263555151	 1.1615603929	-0.0503586887	 0.125526
71.2515	202.1169	236.6905	294.712	347.8936	398.6079	488.7104	507.7128	671.1972	707.2884	727.806	764.4868	778.2833	855.9573	862.731	918.9832	974.1257	999.1501	1014.2137	1045.103	1108.8292	1116.2918	1152.3028	1172.624	1218.5545	1264.3442	1317.2383	1352.6281	1402.594	1424.2565	1430.7206	1490.1284	1504.5436	1659.2285	1816.8226	3029.0199	3094.3814	3116.3827	3121.4722	3141.9811	3196.2532	3214.4659
O=C1OCC2CN2C=C1	O=C1OC[C@H]2CN2C=C1	
InChI=1S/C6H7NO2/c8-6-1-2-7-3-5(7)4-9-6/h1-2,5H,3-4H2	InChI=1S/C6H7NO2/c8-6-1-2-7-3-5(7)4-9-6/h1-2,5H,3-4H2/t5-,7?/m1/s1
