16
gdb 79730	2.58906	1.86488	1.52258	2.2787	67.63	-0.2388	-0.0173	0.2215	908.5369	0.124758	-437.830429	-437.82306	-437.822116	-437.862222	28.385	
O	 0.1645155614	 1.419974719	 0.3089343733	-0.419033
C	 0.0531891772	 0.0318269507	 0.1359259489	-0.022143
C	-1.3846495117	-0.5381172689	-0.0067211893	-0.009784
C	-2.5545791678	 0.2133220042	-0.6632980483	-0.065185
C	-2.1432781658	 1.0097478285	-1.8757644774	-0.290712
C	-2.2000184906	-0.4842622389	-1.9831733029	-0.024422
N	-1.0204423014	-1.1357820187	-1.3384037006	-0.150584
C	 0.2278748361	-0.4523142853	-1.3378711048	 0.338497
O	 1.0226424241	-0.2221049842	-2.2018109883	-0.320801
H	 1.0316594898	 1.6820699466	-0.0234964454	 0.300368
H	 0.6521535137	-0.530797337	 0.8670385163	 0.096353
H	-1.6945198836	-1.257046104	 0.7540150277	 0.090695
H	-3.5254950382	 0.3308422741	-0.2010668361	 0.102867
H	-2.9709700139	 1.5184294215	-2.3605078855	 0.121553
H	-1.2053104048	 1.5515791867	-1.9093903465	 0.140597
H	-2.8090594945	-1.0297919743	-2.691879341	 0.111734
112.6038	159.955	185.9689	271.6685	295.0473	400.486	517.0959	577.5145	652.9365	680.207	758.4634	781.8152	808.3876	867.2844	910.8716	927.3786	965.5991	1001.3878	1020.1091	1044.7652	1062.6425	1075.833	1078.7536	1148.3446	1169.8493	1175.7167	1194.6065	1223.8495	1273.7802	1307.7859	1329.234	1356.4613	1405.1217	1496.1837	1885.9099	2995.0898	3092.63	3135.9183	3195.5152	3205.4064	3222.7647	3791.403
OC1C2C3CC3N2C1=O	O[C@H]1[C@H]2[C@H]3C[C@H]3N2C1=O	
InChI=1S/C6H7NO2/c8-5-4-2-1-3(2)7(4)6(5)9/h2-5,8H,1H2	InChI=1S/C6H7NO2/c8-5-4-2-1-3(2)7(4)6(5)9/h2-5,8H,1H2/t2-,3+,4+,5-/m0/s1
