19
gdb 79435	2.82383	1.71146	1.32682	3.1873	78.97	-0.2285	-0.0008	0.2276	1014.2756	0.161126	-385.877448	-385.870296	-385.869351	-385.908724	29.283	
C	-0.1535038896	 1.5283122522	 0.0601382868	-0.421703
C	-0.0175664549	 0.0110143734	 0.0371075952	 0.010285
C	 0.7933368569	-0.5506474792	-1.1519943018	-0.033487
C	 2.1293137813	-0.3553728747	-0.3691447204	-0.039782
C	 2.6305960187	-1.7224190879	-0.8726061338	-0.251595
C	 1.1107103386	-2.0849896528	-0.8757020227	-0.169594
C	 0.879522929	-2.061850936	 0.6359308614	 0.45442
O	 0.5627340033	-2.9365634845	 1.3939055826	-0.349699
C	 1.1700740992	-0.5827858538	 0.8791284452	-0.16789
H	 0.8026393109	 2.0282939437	-0.122951231	 0.118725
H	-0.8578747247	 1.8630962761	-0.7096535607	 0.118702
H	-0.5308386061	 1.8719113558	 1.0287571096	 0.121892
H	-0.993450681	-0.452656784	 0.2287507064	 0.079513
H	 0.6444932996	-0.2442557634	-2.187742565	 0.072313
H	 2.7328881627	 0.5494089814	-0.3918989931	 0.078845
H	 3.038004003	-1.6460129829	-1.8844401847	 0.107505
H	 3.2976197704	-2.3258194032	-0.2485073229	 0.108922
H	 0.6975676109	-2.9111323726	-1.4496376204	 0.083062
H	 1.3932240218	-0.2569621676	 1.8930014692	 0.079566
148.2435	216.2224	231.9246	255.1978	374.4833	437.377	489.7089	565.22	700.1149	752.408	787.3359	795.6918	816.9835	834.4037	849.9828	904.4008	922.0832	939.4682	997.8263	1008.4418	1048.0948	1059.2632	1067.1714	1083.491	1104.5231	1139.2249	1150.137	1178.2433	1191.8601	1209.5559	1230.6326	1263.5755	1274.5446	1280.6366	1298.8143	1386.8727	1412.6585	1495.803	1497.947	1499.8815	1879.0107	3023.4897	3031.648	3045.6983	3095.2445	3104.374	3106.3783	3109.9382	3134.9227	3145.1736	3149.6984
CC1C2C3CC2C(=O)C13	C[C@H]1[C@H]2[C@@H]3C[C@H]2C(=O)[C@H]13	
InChI=1S/C8H10O/c1-3-6-4-2-5(6)8(9)7(3)4/h3-7H,2H2,1H3	InChI=1S/C8H10O/c1-3-6-4-2-5(6)8(9)7(3)4/h3-7H,2H2,1H3/t3-,4-,5+,6-,7+/m0/s1
