18
gdb 41312	3.09919	2.13211	1.76591	1.0387	73.3	-0.2147	0.0515	0.2663	833.9198	0.15123	-401.823181	-401.817229	-401.816285	-401.852969	26.366	
C	 0.0659256221	 1.513953669	-0.2449615082	-0.186287
O	 1.4593465938	 1.5520891959	 0.2273809551	-0.330923
C	 1.2607489314	 0.2537567674	 0.8217590149	 0.3503
C	 0.4832299084	 0.0986373864	 2.1523978804	-0.305928
C	-0.3878104731	-0.8597877322	 1.2830173298	-0.124333
C	 0.6574660931	-1.9908714729	 1.0177523424	-0.178822
C	 1.6302926887	-1.1250965399	 0.1666721183	-0.098326
N	 0.710440812	-0.8591726573	-0.9971661617	-0.370644
C	-0.0029041342	 0.0004382579	 0.0145085418	 0.214408
H	-0.585693435	 2.1353453566	 0.3789674933	 0.116972
H	-0.0176940827	 1.8329418546	-1.2889708648	 0.117703
H	 0.9727531514	-0.3211753998	 3.0340602364	 0.099926
H	-0.0146205006	 1.0334183949	 2.4163434483	 0.110808
H	-1.3971048159	-1.1623258216	 1.5588579236	 0.073839
H	 1.0842346006	-2.372494618	 1.9484257093	 0.097534
H	 0.2760014311	-2.8145151959	 0.4134492259	 0.117265
H	 2.6316068045	-1.5120068491	-0.027152399	 0.074003
H	 1.1815685045	-0.2215355559	-1.6377783657	 0.222504
312.2306	322.9892	354.8999	466.9777	508.4688	526.2419	561.354	686.541	749.9309	783.3713	843.7123	863.1856	869.1256	883.6563	906.6762	910.7312	927.2834	959.1434	982.838	1012.2121	1050.7643	1072.0673	1085.0039	1127.3733	1132.9529	1174.0019	1181.815	1192.424	1201.0926	1225.591	1239.9619	1264.191	1296.668	1300.4324	1325.7919	1362.5437	1479.2909	1500.3071	1516.8498	3031.6486	3067.8709	3071.7668	3085.2037	3106.0065	3119.4908	3129.1095	3136.1845	3474.4613
C1OC23CC4CC2NC134	C1O[C@]23C[C@@H]4C[C@H]2N[C@]134	
InChI=1S/C7H9NO/c1-4-2-7-5(1)8-6(4,7)3-9-7/h4-5,8H,1-3H2	InChI=1S/C7H9NO/c1-4-2-7-5(1)8-6(4,7)3-9-7/h4-5,8H,1-3H2/t4-,5+,6-,7+/m0/s1
