18
gdb 88792	2.87214	1.3399	1.09484	2.7233	72.16	-0.2358	0.0001	0.2359	1143.6342	0.147573	-439.075087	-439.066709	-439.065765	-439.108394	31.08	
C	 0.0624150627	 1.5725029637	-0.2839811852	-0.437935
C	-0.0817460668	 0.0935827023	-0.0044967714	 0.030551
C	 1.0663292336	-0.8433750829	-0.1822530602	-0.269069
N	 0.5390218016	-0.5546201371	 1.1546144695	-0.105087
C	 1.3135533698	 0.1984309075	 2.106463745	-0.138335
C	 2.1131726445	-0.618599133	 3.14544472	-0.09817
O	 3.3380322369	 0.1022328596	 2.7878179448	-0.231523
C	 2.7132738608	 0.7884360534	 1.7840309941	 0.435919
O	 3.2070188037	 1.5321723808	 0.994688283	-0.327783
H	 1.087180808	 1.9198728184	-0.1305714434	 0.163431
H	-0.2180427065	 1.7808002493	-1.3219031651	 0.124428
H	-0.6055199824	 2.1597929392	 0.356743649	 0.118372
H	-1.0776707129	-0.301893964	-0.2012486482	 0.09466
H	 0.9105427922	-1.8591895169	-0.535124341	 0.117386
H	 2.0182713988	-0.3995058575	-0.4652305292	 0.137819
H	 0.6777960495	 0.9566431764	 2.5745143516	 0.122586
H	 1.8687612827	-0.4705152545	 4.1983020081	 0.12796
H	 2.2036047439	-1.6792749148	 2.9056263187	 0.134792
71.319	133.1756	154.3835	195.0477	258.0042	276.8102	375.2365	431.3768	509.7647	512.2707	657.7217	737.1413	775.4186	810.2279	884.7887	916.8612	934.1189	962.6946	975.9647	1048.281	1087.4682	1118.2873	1125.0759	1125.842	1155.6825	1167.9685	1174.4387	1203.9019	1220.2587	1324.9657	1341.5278	1371.0902	1404.6645	1430.6161	1503.4381	1506.1473	1512.5356	1515.914	1911.164	3031.5422	3067.6595	3081.4549	3090.6319	3104.2301	3106.7986	3132.3005	3148.3599	3192.3027
CC1CN1C1COC1=O	C[C@H]1CN1[C@H]1COC1=O	
InChI=1S/C6H9NO2/c1-4-2-7(4)5-3-9-6(5)8/h4-5H,2-3H2,1H3	InChI=1S/C6H9NO2/c1-4-2-7(4)5-3-9-6(5)8/h4-5H,2-3H2,1H3/t4-,5-,7?/m0/s1
