20
gdb 110032	1.93382	1.71161	1.13489	4.0532	75.74	-0.2377	-0.0218	0.2158	1153.9099	0.170766	-440.300949	-440.291898	-440.290953	-440.334877	33.792	
C	 0.0573986329	 1.340528696	-0.1474218575	-0.328659
N	 0.0122524676	-0.0950569217	 0.0639968691	-0.081296
C	-1.3483543801	-0.6499672309	 0.0865901998	-0.163951
C	-1.1593170422	-2.0623217037	 0.6396255297	-0.336491
C	 0.0168051974	-1.8974624334	 1.5972186589	 0.422497
O	 0.3469765621	-2.6413306697	 2.480815832	-0.318168
C	 0.7214719061	-0.5753670735	 1.2522748645	-0.111998
C	 2.2117691021	-0.7971802059	 0.9599643319	-0.064808
O	 2.3713870208	-1.5635499407	-0.2133193311	-0.425921
H	 1.0939590366	 1.682916238	-0.2128262057	 0.130435
H	-0.439288329	 1.5900830217	-1.0904362158	 0.125079
H	-0.4405299993	 1.9052646473	 0.6620881904	 0.102455
H	-2.0127726074	-0.0667232629	 0.7508019402	 0.090131
H	-1.7822436413	-0.6231661904	-0.9176002824	 0.112369
H	-2.0326919951	-2.4851908914	 1.1381392645	 0.132573
H	-0.8443717746	-2.7562326059	-0.1491590738	 0.145662
H	 0.6080613674	 0.0979976108	 2.1229692427	 0.082079
H	 2.7292496231	 0.1735247756	 0.8862805903	 0.084038
H	 2.6524623549	-1.3526391935	 1.7935407792	 0.129145
H	 1.7114680181	-1.2092405556	-0.8276242365	 0.27483
65.438	112.8995	171.4585	177.4418	236.7584	263.0035	307.1109	359.4526	469.6345	512.7874	519.9444	549.0645	627.571	681.3777	746.1508	836.9158	860.0994	937.592	985.5217	1019.0439	1054.0515	1069.7482	1106.0869	1131.6956	1144.23	1189.7627	1194.2923	1211.9885	1220.1768	1282.6504	1291.2514	1295.5731	1328.6155	1379.9375	1383.4474	1438.1114	1444.9198	1463.9658	1491.6583	1502.3472	1510.4186	1524.7512	1860.0698	2924.7381	2933.9486	2944.1724	2967.501	3048.2034	3067.6094	3072.5893	3086.3503	3110.9928	3129.1412	3713.4184
CN1CCC(=O)C1CO	CN1CCC(=O)[C@H]1CO	
InChI=1S/C6H11NO2/c1-7-3-2-6(9)5(7)4-8/h5,8H,2-4H2,1H3	InChI=1S/C6H11NO2/c1-7-3-2-6(9)5(7)4-8/h5,8H,2-4H2,1H3/t5-/m1/s1
