17
gdb 113122	2.4585	1.18602	0.89103	1.7415	82.89	-0.2592	-0.0036	0.2555	1336.2104	0.131315	-384.599162	-384.589393	-384.588449	-384.633835	35.794	
C	 0.2817985582	 1.4794939795	 0.1997005706	-0.378893
C	-0.3234004291	 0.123510186	-0.1863175512	-0.229175
C	 0.3754041953	-0.4744054172	-1.3803555461	 0.041605
O	 1.6793954119	-1.0081324881	-1.1822078267	-0.276458
C	 0.6302362023	-1.9384401037	-1.5421353266	 0.063976
C	 0.2299741024	-2.8708755012	-0.5141050442	 0.291224
C	-0.1127602002	-3.6635507388	 0.3210954849	-0.452348
C	 0.7192286217	-2.4914868427	-2.8741449973	 0.260149
C	 0.7803361191	-2.9485757953	-3.9832897078	-0.432461
H	 1.3410795335	 1.3705766781	 0.4501175068	 0.137259
H	 0.2018598256	 2.2011425614	-0.6204320991	 0.11802
H	-0.2325264238	 1.9011842706	 1.0677712184	 0.118612
H	-0.2605812271	-0.5746214521	 0.6530212433	 0.121618
H	-1.3863589806	 0.239331702	-0.4326147583	 0.108451
H	 0.270016021	 0.079532169	-2.3157699122	 0.101652
H	-0.4090447044	-4.3653175284	 1.0614738912	 0.203758
H	 0.8409989342	-3.357133199	-4.9618778457	 0.203015
70.3418	118.6992	126.5794	138.7241	199.0998	238.0407	258.8944	351.1262	400.4682	477.4592	528.9388	567.9702	613.4113	624.7068	631.8405	662.0136	665.1846	669.3872	762.116	828.3864	921.3175	938.0049	1029.6631	1050.6584	1125.6904	1162.7055	1224.8343	1288.3695	1302.4088	1346.9063	1409.3738	1446.087	1477.4328	1499.4985	1508.1745	2241.075	2244.9805	3036.4044	3038.5951	3084.5814	3096.1246	3112.919	3119.7542	3500.1395	3501.4748
CCC1OC1(C#C)C#C	CC[C@H]1OC1(C#C)C#C	
InChI=1S/C8H8O/c1-4-7-8(5-2,6-3)9-7/h2-3,7H,4H2,1H3	InChI=1S/C8H8O/c1-4-7-8(5-2,6-3)9-7/h2-3,7H,4H2,1H3/t7-/m1/s1
