25
gdb 112727	2.33764	1.12085	0.94815	1.2806	89.03	-0.2465	0.0724	0.3189	1435.5607	0.226709	-389.497383	-389.486546	-389.485602	-389.532559	41.259	
C	 0.0311328833	 1.6207414302	 0.0050982263	-0.381308
C	-0.1113528932	 0.0945115184	-0.0179521315	-0.21034
C	 0.6688961867	-0.5520584226	-1.1554018001	 0.037095
C	 2.2224652444	-0.5831534231	-1.1234873637	-0.268513
C	 2.1732095439	-1.9727896599	-1.8136279906	 0.001959
C	 3.207131895	-3.0314828267	-1.4604602851	-0.424465
C	 0.6796230429	-2.0959833176	-1.3488711673	 0.354614
C	 0.4716210711	-2.9097108374	-0.074510233	-0.451681
O	-0.252968358	-2.4908252602	-2.3436293496	-0.480661
H	 1.0782029873	 1.919972583	 0.1234795441	 0.116826
H	-0.3356992876	 2.0651116675	-0.9268059302	 0.11475
H	-0.5360390979	 2.0615758906	 0.830931476	 0.108822
H	 0.2238328037	-0.313877163	 0.9439498473	 0.087939
H	-1.1723467461	-0.1710701772	-0.1130979632	 0.100841
H	 0.3394105799	-0.1255349286	-2.1101117872	 0.079593
H	 2.7607457302	 0.2173337992	-1.6357237795	 0.095239
H	 2.604438953	-0.654924658	-0.0981745646	 0.090325
H	 2.1436065135	-1.8308256281	-2.8994940722	 0.076997
H	 3.2746185234	-3.1918343464	-0.379333196	 0.111088
H	 2.9735203821	-3.9957657916	-1.92732522	 0.107295
H	 4.2022102721	-2.7340751166	-1.8098095366	 0.115667
H	 1.1407064657	-2.5973877489	 0.7324705908	 0.119906
H	-0.5592683324	-2.8053990849	 0.2757082531	 0.123953
H	 0.6630635994	-3.9740128324	-0.260711204	 0.103582
H	-0.2615310725	-3.4532494856	-2.3863281131	 0.270475
82.3298	102.4712	156.706	204.1164	209.5819	241.1464	246.5462	268.1998	290.8066	303.8938	324.496	397.7734	438.3336	484.2579	538.1711	591.8522	720.9426	776.7545	816.8395	874.0483	901.196	927.8519	949.111	963.9016	989.7664	1017.0698	1061.751	1076.3387	1121.2709	1149.9244	1163.0774	1169.0546	1195.8012	1205.6146	1246.5489	1257.2767	1291.9878	1311.3945	1339.933	1359.8549	1374.772	1401.0825	1408.868	1411.5037	1417.1092	1483.453	1488.2306	1491.0671	1498.3782	1499.6987	1502.3868	1503.1807	1508.4928	3015.4246	3022.064	3026.5747	3029.5744	3034.5916	3038.1196	3047.5202	3054.2939	3083.6354	3091.9236	3095.0335	3097.7213	3100.4973	3103.6734	3117.8696	3799.1264
CCC1CC(C)C1(C)O	CC[C@H]1C[C@@H](C)[C@]1(C)O	
InChI=1S/C8H16O/c1-4-7-5-6(2)8(7,3)9/h6-7,9H,4-5H2,1-3H3	InChI=1S/C8H16O/c1-4-7-5-6(2)8(7,3)9/h6-7,9H,4-5H2,1-3H3/t6-,7+,8+/m1/s1
