18
gdb 106174	3.04306	1.4581	1.33948	2.6558	70.96	-0.2049	0.0716	0.2765	1034.9034	0.148413	-439.013513	-439.005829	-439.004885	-439.045968	29.64	
C	 0.4647946201	 1.0241616578	-0.6939859519	-0.332796
N	-0.3126719875	 0.5585839976	 0.4484997381	-0.407572
C	-1.4368154951	-0.2518732492	 0.1722733297	 0.24184
C	-1.7985862111	-1.6631943534	-0.3087936357	-0.013355
O	-2.7354294596	-1.8869964494	 0.7418974256	-0.300851
C	-2.6509398511	-0.4782504092	 1.1164694743	 0.010172
C	-3.7978409843	 0.2413252258	 0.4259586886	-0.080193
O	-3.5590984198	 0.0120020713	-0.9714084409	-0.269383
C	-2.2226360916	-0.4184352113	-1.0883409567	 0.04661
H	 1.2941581365	 1.6370814798	-0.3307201604	 0.123838
H	 0.8853456917	 0.2185095326	-1.3195844479	 0.101595
H	-0.1624956097	 1.6534847283	-1.3316751244	 0.136855
H	 0.2903196042	 0.1169287555	 1.1339700396	 0.226503
H	-1.2535904536	-2.5135402998	-0.7040051125	 0.104223
H	-2.5421485771	-0.330548021	 2.1918722206	 0.087324
H	-4.77159285	-0.1823831941	 0.6879477898	 0.119823
H	-3.7923929334	 1.3193627717	 0.6503845568	 0.097528
H	-1.7871548886	-0.2400864328	-2.0647178228	 0.107839
60.4319	179.6639	201.4289	241.985	285.173	366.3224	438.4402	544.476	599.3424	684.8944	743.6056	780.0296	802.8713	861.9356	901.4959	910.4778	939.8833	986.0246	995.2503	1020.1002	1037.0368	1064.0168	1087.7544	1092.9239	1135.884	1153.575	1187.4622	1215.1023	1248.021	1256.7978	1281.7072	1313.7226	1369.1169	1448.5699	1479.9061	1488.2499	1495.4198	1498.0749	1521.05	2958.9934	2987.8763	3074.8941	3089.1597	3112.8281	3117.8401	3173.9263	3191.1362	3520.7202
CNC12C3OC1COC23	CN[C@@]12[C@H]3O[C@@H]1CO[C@@H]23	
InChI=1S/C6H9NO2/c1-7-6-3-2-8-4(6)5(6)9-3/h3-5,7H,2H2,1H3	InChI=1S/C6H9NO2/c1-7-6-3-2-8-4(6)5(6)9-3/h3-5,7H,2H2,1H3/t3-,4-,5+,6+/m1/s1
