15
gdb 74659	4.74566	1.43591	1.25378	2.6422	65.27	-0.2303	0.0329	0.2631	959.7499	0.114958	-453.893663	-453.887219	-453.886275	-453.9242	26.5	
N	 0.0496987193	 1.3457833088	 0.1174966838	-0.565159
C	-0.0573429952	-0.0181554084	 0.0482057714	 0.472352
N	-1.1697728525	-0.641746854	 0.0050259731	-0.376908
C	-1.0371405507	-2.0756136503	 0.0202847578	 0.023561
C	 0.0332384364	-2.7197255435	 0.9570719172	-0.006225
O	 0.11957974	-3.8807281221	 0.0590517749	-0.302232
C	 0.0829728142	-2.7267952951	-0.8501815474	-0.007031
C	 1.1085199583	-2.0273716601	 0.0804366425	 0.104361
O	 1.1702541457	-0.6088388428	 0.080747547	-0.270287
H	 0.9126710456	 1.7372229365	-0.225587341	 0.261895
H	-0.7888036255	 1.8369342843	-0.1492904004	 0.268332
H	-1.9974391747	-2.5900215841	-0.0040462446	 0.090491
H	 0.0165130367	-2.8944319728	 2.0317771179	 0.100358
H	 0.1254175596	-2.9095731104	-1.9230025056	 0.098645
H	 2.1235867128	-2.4181011159	 0.1097417733	 0.107847
156.441	296.1478	353.1541	417.0839	443.5295	457.0361	504.2219	541.6489	632.674	748.0147	774.2158	795.9223	866.5021	866.5316	897.3827	905.7139	908.3396	1011.1963	1016.9582	1032.9999	1106.6271	1144.2409	1159.1603	1176.8372	1214.3537	1236.1133	1254.9737	1258.3781	1290.061	1382.4672	1415.2242	1614.1126	1735.2855	3122.0124	3130.5757	3135.6157	3154.368	3593.3634	3711.3447
NC1=NC2C3OC2C3O1	N[C]1[N][C@@H]2[C@H]3O[C@@H]2[C@H]3O1	
InChI=1S/C5H6N2O2/c6-5-7-1-2-4(9-5)3(1)8-2/h1-4H,(H2,6,7)	InChI=1S/C5H6N2O2/c6-5-7-1-2-4(9-5)3(1)8-2/h1-4H,(H2,6,7)/t1-,2-,3+,4+
