17
gdb 16815	3.70001	1.88386	1.42981	4.1686	67.5	-0.2478	-0.0074	0.2404	891.2658	0.143081	-363.875586	-363.868399	-363.867455	-363.907011	27.562	
C	-0.2329674627	 1.5666368906	 0.0058022951	-0.401471
C	 0.0629123131	 0.0652897816	 0.0071144925	 0.011306
C	 0.9434360797	-0.4346494486	-1.1519139165	-0.363148
C	 1.8890122705	-1.4828628287	-0.5432544626	 0.38859
O	 2.6041684084	-2.2293789117	-1.1468045058	-0.305106
N	 1.808185746	-1.4575776644	 0.8962865969	-0.139647
C	 2.2416492968	-0.1278307313	 1.418010112	-0.255541
C	 0.8059631175	-0.4297596645	 1.2506278116	-0.024959
H	 0.6925747292	 2.1517452542	 0.0325721504	 0.118057
H	-0.7882868409	 1.8577930332	-0.8913691837	 0.122564
H	-0.8333873832	 1.8511507871	 0.8761793614	 0.120597
H	-0.8907378292	-0.4751099849	-0.0233568259	 0.09054
H	 0.3829672561	-0.871860002	-1.9804177632	 0.140112
H	 1.5618931033	 0.3628274698	-1.5810590662	 0.134131
H	 2.7029739932	-0.1685421574	 2.3992165434	 0.136003
H	 2.7230670245	 0.5538846882	 0.7210934824	 0.126302
H	 0.2160576377	-0.6539901211	 2.134672468	 0.10167
83.0247	185.6009	237.1353	257.171	336.5722	463.8964	492.0136	558.9675	610.5565	657.9743	741.2054	801.6241	840.808	899.6065	919.4753	947.9982	1003.8845	1029.4109	1075.6843	1103.413	1105.2489	1125.279	1155.2417	1175.8857	1207.115	1262.2291	1278.8137	1333.0092	1365.1981	1393.5257	1416.7672	1462.257	1497.2821	1498.8263	1511.2997	1868.0928	3030.6529	3032.4319	3049.3456	3101.2704	3104.0898	3114.5572	3115.731	3151.1492	3203.8431
CC1CC(=O)N2CC12	C[C@H]1CC(=O)N2C[C@@H]12	
InChI=1S/C6H9NO/c1-4-2-6(8)7-3-5(4)7/h4-5H,2-3H2,1H3	InChI=1S/C6H9NO/c1-4-2-6(8)7-3-5(4)7/h4-5H,2-3H2,1H3/t4-,5-,7?/m0/s1
