23
gdb 84009	2.05028	1.57178	1.32759	1.3266	85.06	-0.2435	0.0775	0.321	1151.5262	0.207019	-388.28687	-388.277824	-388.27688	-388.32006	35.367	
C	-0.3889323789	 1.4904354354	-0.07064052	-0.427401
C	-0.0603162035	 0.0153874966	 0.0088764094	-0.046839
C	 1.2897614581	-0.5883704328	-0.3495153846	-0.112817
C	 2.5184394645	 0.262735154	-0.6469688171	-0.107607
O	 3.358888936	 0.4491441382	 0.4834995002	-0.233685
C	 2.6653475357	 1.0799760486	 1.5389001386	-0.094019
C	 1.5532056659	 0.1840941663	 2.1185303702	-0.284406
C	 0.7831296899	-0.6360737183	 1.0821456145	 0.332786
C	 0.2997334528	-1.9717244221	 1.6183412966	-0.46316
H	 0.4403461844	 2.1370154506	 0.2201734645	 0.120575
H	-0.6757187887	 1.7686029042	-1.0913984076	 0.117659
H	-1.234109015	 1.7318014511	 0.5839495525	 0.117489
H	-0.8994200911	-0.6020904114	-0.3062505086	 0.076953
H	 1.25412387	-1.5249710956	-0.8985914428	 0.079868
H	 3.1405343269	-0.2349532921	-1.3951179493	 0.107324
H	 2.2370182448	 1.2468211263	-1.0576820583	 0.087387
H	 3.4082352543	 1.2943386524	 2.3130408653	 0.104865
H	 2.2645824738	 2.0486003177	 1.1990402416	 0.088909
H	 2.0284004035	-0.5280603659	 2.8028671371	 0.1034
H	 0.8728152498	 0.7915725281	 2.7294727573	 0.094654
H	-0.3793366776	-1.8342393169	 2.4690563445	 0.112256
H	-0.2390924854	-2.5393119038	 0.8529176629	 0.109959
H	 1.1398757197	-2.5868013906	 1.9618958031	 0.11585
119.2038	139.1515	184.7553	206.2695	225.4197	254.6876	338.0168	363.4389	446.1156	447.3068	490.5875	546.2151	619.7811	707.7687	777.5508	786.8069	871.2573	913.2857	945.8405	977.2296	993.729	1030.5525	1032.8161	1055.8337	1079.8233	1097.4805	1130.5689	1139.3728	1165.1055	1169.2865	1235.5876	1259.7147	1268.2269	1321.7022	1329.0714	1367.1341	1376.7388	1391.0871	1414.6121	1415.1356	1426.3906	1455.8194	1480.5425	1488.2111	1491.813	1497.9765	1500.9003	1507.5161	1517.2809	2961.5925	2975.6885	3015.5214	3021.3812	3031.9421	3056.5853	3076.0984	3079.496	3082.4325	3087.4533	3094.7668	3111.4639	3134.2727	3141.2312
CC1C2COCCC12C	C[C@H]1[C@H]2COCC[C@@]12C	
InChI=1S/C8H14O/c1-6-7-5-9-4-3-8(6,7)2/h6-7H,3-5H2,1-2H3	InChI=1S/C8H14O/c1-6-7-5-9-4-3-8(6,7)2/h6-7H,3-5H2,1-2H3/t6-,7+,8-/m0/s1
