21
gdb 59494	3.67781	0.80745	0.71467	1.9094	85.37	-0.2544	0.0582	0.3126	1619.9424	0.179646	-387.043057	-387.032645	-387.031701	-387.078873	38.397	
C	-0.02991482	 1.5322840638	-0.2958664784	-0.403691
C	 0.0264786183	 0.053184968	 0.0912229362	 0.126324
O	 0.7414842875	-0.133645397	 1.3154882896	-0.432964
C	-1.3565894424	-0.5667852118	 0.1494194911	-0.037995
C	-1.9292517632	-1.319580914	-1.0318160954	-0.296833
C	-1.566098591	-2.0596783734	 0.2287504727	-0.000661
C	-0.3952309647	-3.035247553	 0.2682977058	-0.375559
C	-0.7940795526	-4.396380789	-0.0775115572	 0.299257
C	-1.142280081	-5.5128722532	-0.3552837627	-0.442669
H	 0.9767919168	 1.957650288	-0.3201256655	 0.122917
H	-0.4935937157	 1.6639930628	-1.2786199856	 0.120796
H	-0.6240590797	 2.099517347	 0.4315719211	 0.105304
H	 0.6315137531	-0.4779594031	-0.6520094012	 0.084896
H	 0.2342014568	 0.2904358267	 2.0165658444	 0.275225
H	-2.0679339695	 0.0297073945	 0.7199128007	 0.074606
H	-2.9752997547	-1.1870400462	-1.2842962626	 0.113049
H	-1.2812669117	-1.4558607284	-1.8930722629	 0.113731
H	-2.4015091001	-2.3788034109	 0.8452489757	 0.093784
H	 0.3946119347	-2.7071319145	-0.4168634173	 0.128131
H	 0.0574756383	-3.0221286812	 1.2671321842	 0.14148
H	-1.4393706192	-6.5012152949	-0.6038042128	 0.190874
48.7103	74.4852	99.4096	160.2601	217.3019	248.3592	256.7263	310.4955	340.6368	368.7697	374.3428	479.3668	507.7637	596.5788	614.67	637.764	778.8924	819.5379	864.5215	878.9962	909.7369	955.416	988.2576	1017.6406	1029.0247	1065.871	1085.3104	1100.0886	1135.5943	1152.3972	1191.8312	1235.3746	1251.5572	1282.6633	1317.8956	1332.2074	1398.7883	1402.0764	1417.4867	1436.1447	1463.7999	1490.1241	1493.5227	1497.3458	2238.1847	3025.3446	3034.2923	3046.8082	3066.4939	3095.3796	3107.6628	3121.2099	3125.4852	3148.6304	3210.6312	3508.0839	3799.5426
CC(O)C1CC1CC#C	C[C@@H](O)[C@H]1C[C@H]1CC#C	
InChI=1S/C8H12O/c1-3-4-7-5-8(7)6(2)9/h1,6-9H,4-5H2,2H3	InChI=1S/C8H12O/c1-3-4-7-5-8(7)6(2)9/h1,6-9H,4-5H2,2H3/t6-,7-,8-/m1/s1
