19
gdb 74219	2.28765	1.53392	0.9578	5.8767	81.79	-0.2052	-0.0023	0.2029	1227.1745	0.161523	-419.25696	-419.248068	-419.247124	-419.29064	33.217	
C	-0.2149926936	 1.4930194217	 0.0899341689	-0.476903
C	-0.0146208127	-0.0025028423	 0.0150170721	 0.327023
C	-0.1344222476	-0.6369842669	-1.178899594	-0.238051
C	-0.0094382243	-2.0393632274	-1.6004296797	 0.358688
O	-0.0140888754	-2.3328282096	-2.7904497342	-0.397472
N	 0.122575724	-3.0434209252	-0.6607042959	-0.339073
C	-0.1270991942	-2.9560134095	 0.758948851	-0.157766
C	 0.7475677385	-1.9038070517	 1.4502769841	-0.159917
N	 0.2592827252	-0.5573070438	 1.2386315485	-0.351117
H	 0.7085972181	 1.9947420823	 0.4046213243	 0.130428
H	-0.5141833882	 1.9001898599	-0.8752464919	 0.144946
H	-0.9890848554	 1.7419341313	 0.8256023791	 0.13202
H	-0.3475713564	-0.0072541511	-2.0333318283	 0.094542
H	 0.1242636032	-3.9582690372	-1.0851746035	 0.239195
H	-1.1813042106	-2.7457060846	 0.9926767672	 0.11516
H	 0.1120197048	-3.9330057094	 1.1887105013	 0.1134
H	 0.7385466247	-2.0833347737	 2.5298860379	 0.107549
H	 1.7810326521	-2.027176082	 1.0938777427	 0.116417
H	 0.4523905779	 0.0977488692	 1.9776054803	 0.240931
94.5056	103.7103	127.6019	190.5031	271.9564	314.185	358.1866	384.5868	423.897	493.0321	516.8645	595.7087	604.7067	653.4063	741.9515	820.9922	846.5491	894.3677	946.3955	999.6743	1062.7877	1064.1807	1083.2334	1115.0018	1171.464	1211.9041	1272.1829	1306.1901	1341.7747	1390.0166	1395.9784	1408.0627	1420.3108	1459.6003	1480.6353	1485.2953	1490.8979	1501.1443	1559.0219	1679.1505	1739.2114	2989.3715	3001.2086	3025.5193	3075.9138	3076.146	3086.461	3152.6294	3207.411	3623.3959	3641.4296
CC1=CC(=O)NCCN1	CC1=CC(=O)NCCN1	
InChI=1S/C6H10N2O/c1-5-4-6(9)8-3-2-7-5/h4,7H,2-3H2,1H3,(H,8,9)	InChI=1S/C6H10N2O/c1-5-4-6(9)8-3-2-7-5/h4,7H,2-3H2,1H3,(H,8,9)
