21
gdb 110022	2.02552	1.58369	1.00252	4.2972	77.99	-0.2579	0.0139	0.2718	1249.362	0.182853	-424.28512	-424.27578	-424.274836	-424.319403	34.539	
C	-0.1151107486	 1.6285063562	 0.0218246014	-0.388923
C	-0.157016083	 0.0981384204	-0.0357936948	-0.193499
C	 0.7093747264	-0.4982365982	-1.1692610615	-0.154015
C	 0.756205436	-2.0420133273	-1.2428701822	-0.013465
C	 0.7101445699	-2.8252941251	 0.066764646	-0.422456
C	-0.4186999607	-2.3430948095	-2.1879742922	-0.087534
O	-0.5106475188	-1.2145981514	-3.0689258855	-0.219187
C	 0.1204108841	-0.1314828224	-2.534243206	 0.438118
O	 0.1475236231	 0.9245838486	-3.0992440046	-0.344227
H	 0.9045341151	 1.9830658839	 0.2082398644	 0.115519
H	-0.4512368455	 2.0737244432	-0.9170618779	 0.152709
H	-0.7512339256	 1.9994091216	 0.8311508526	 0.110234
H	 0.1997645048	-0.3097148162	 0.9161881374	 0.104415
H	-1.1954370665	-0.2409656397	-0.1443270845	 0.103923
H	 1.7106577105	-0.063279076	-1.1014596314	 0.100948
H	 1.6776994981	-2.3101404152	-1.7743821876	 0.091454
H	-0.2121917657	-2.6349627747	 0.6233182061	 0.125901
H	 0.7632024172	-3.901617794	-0.1289190765	 0.120467
H	 1.5543935036	-2.5675531536	 0.7137512458	 0.125669
H	-0.2703736172	-3.236580674	-2.7989903909	 0.122633
H	-1.3660595671	-2.4472660666	-1.6430689782	 0.111317
67.7604	101.2512	184.6408	190.3156	217.1889	231.5837	261.9547	300.3317	362.945	450.3387	524.8341	598.1922	687.1714	719.572	763.3532	840.5659	873.98	905.6297	955.7892	964.7735	1030.5493	1054.876	1065.9166	1093.1354	1105.9116	1165.6412	1176.0969	1189.9203	1231.8491	1259.0538	1290.1578	1339.4188	1350.2555	1363.5197	1374.7484	1406.3795	1416.5138	1420.0216	1487.2837	1498.0352	1499.7068	1503.0384	1509.3133	1523.2239	1869.3244	3017.6666	3023.9734	3030.1439	3036.8273	3039.5885	3061.4248	3075.8693	3099.788	3101.8114	3103.2206	3112.5826	3134.3122
CCC1C(C)COC1=O	CC[C@H]1[C@@H](C)COC1=O	
InChI=1S/C7H12O2/c1-3-6-5(2)4-9-7(6)8/h5-6H,3-4H2,1-2H3	InChI=1S/C7H12O2/c1-3-6-5(2)4-9-7(6)8/h5-6H,3-4H2,1-2H3/t5-,6-/m0/s1
