20
gdb 101647	2.90649	0.82715	0.76271	4.3904	76.93	-0.2652	0.0143	0.2794	1575.7178	0.167904	-440.287348	-440.276507	-440.275563	-440.324097	37.803	
C	 0.0169187727	 1.3903124227	 0.0684513284	-0.239831
O	-0.0918165147	-0.0070253589	-0.0915638144	-0.250915
C	 0.6669076747	-0.5474978887	-1.1675310308	 0.134396
C	 2.148582136	-0.6861233525	-0.8114557214	-0.408194
C	 0.0343687326	-1.903579304	-1.4882196143	-0.219804
C	-1.4285694298	-1.7559084848	-1.9399169341	-0.026612
O	-1.571122216	-0.987700696	-3.1237683633	-0.411823
C	-2.0638901106	-3.0798716995	-2.0924591926	 0.256901
N	-2.5367792268	-4.1236655606	-2.2428447504	-0.31979
H	 1.0289662002	 1.703282802	 0.3618994661	 0.109528
H	-0.2589795731	 1.9254937122	-0.8526512051	 0.113191
H	-0.6762025359	 1.6757557999	 0.8635063024	 0.131056
H	 0.5580369901	 0.1058608693	-2.0470932189	 0.08097
H	 2.5932953319	 0.2845101466	-0.5755451408	 0.121853
H	 2.272955342	-1.3407002846	 0.0568272778	 0.127342
H	 2.7087696901	-1.1108031144	-1.6506005888	 0.117806
H	 0.6100207762	-2.410568541	-2.2714295477	 0.104934
H	 0.0699537213	-2.5375180712	-0.5951372395	 0.129391
H	-1.9661466073	-1.2002454149	-1.1662295097	 0.156432
H	-1.1776410737	-1.4811022116	-3.8530076829	 0.293169
46.707	70.0802	93.8712	123.7455	184.9779	206.1713	230.813	259.487	291.0001	335.1583	342.3251	407.0827	465.368	520.8298	577.7415	596.8027	807.5233	857.5571	910.2085	934.4716	996.2136	1061.8685	1097.6866	1118.1199	1128.7027	1166.9981	1182.6759	1191.948	1248.6453	1270.6521	1315.8404	1342.9234	1389.2217	1394.1826	1406.6384	1426.0559	1465.0334	1479.6973	1483.5102	1493.5298	1502.4653	1512.2794	2353.7995	2983.2289	2990.8227	3034.5783	3038.5268	3043.3604	3082.1987	3095.6132	3112.2187	3114.8404	3118.3611	3797.1849
COC(C)CC(O)C#N	CO[C@@H](C)C[C@@H](O)C#N	
InChI=1S/C6H11NO2/c1-5(9-2)3-6(8)4-7/h5-6,8H,3H2,1-2H3	InChI=1S/C6H11NO2/c1-5(9-2)3-6(8)4-7/h5-6,8H,3H2,1-2H3/t5-,6+/m0/s1
