16
gdb 9213	6.28667	0.98248	0.88715	5.3679	65.71	-0.2459	0.0087	0.2546	1279.4143	0.129452	-417.078626	-417.069459	-417.068515	-417.114002	30.594	
C	 0.1212513517	 1.3184547178	-0.29409789	-0.335337
N	-0.1358388323	-0.1084787753	-0.2198946842	-0.310471
C	 0.6036827209	-1.0216877248	-0.9029289135	 0.419734
O	 1.5347079872	-0.7396329828	-1.6344878122	-0.364903
C	 0.2154704236	-2.485916695	-0.6459268174	-0.211915
O	 0.2373881625	-3.2480862207	-1.8326679554	-0.169906
C	 1.4563306611	-3.5862708335	-2.3225015452	 0.149885
N	 1.5258593439	-4.2037566773	-3.4188214988	-0.447092
H	 1.0088265584	 1.456438361	-0.9121278852	 0.176569
H	-0.7185351681	 1.8505256331	-0.7538359829	 0.134281
H	 0.3031787837	 1.7384746944	 0.7006431894	 0.13036
H	-0.9297882173	-0.4271350193	 0.3104804408	 0.250882
H	 0.912764716	-2.8905672574	 0.1024450483	 0.130242
H	-0.7977060436	-2.5798895324	-0.24575022	 0.119826
H	 2.2872018309	-3.2851912745	-1.6766247687	 0.099135
H	 2.4988099813	-4.4071164133	-3.6377225449	 0.22871
27.5658	76.4565	88.3961	146.167	164.1717	250.6989	294.1569	343.5581	401.9688	455.2695	596.7498	637.5511	765.5682	812.623	901.4045	954.5029	1016.2967	1027.6792	1074.1932	1154.2046	1168.9121	1173.2434	1227.3537	1273.8756	1326.6232	1404.145	1425.277	1441.4798	1479.0274	1493.8528	1499.8068	1566.1252	1745.7643	1790.4316	3003.7095	3034.0406	3072.1882	3089.1587	3093.5578	3158.4376	3519.6447	3646.8963
CNC(=O)COC=N	CNC(=O)CO[CH][NH]	
InChI=1S/C4H8N2O2/c1-6-4(7)2-8-3-5/h3,5H,2H2,1H3,(H,6,7)	InChI=1S/C4H8N2O2/c1-6-4(7)2-8-3-5/h3,5H,2H2,1H3,(H,6,7)
