17
gdb 47017	3.62438	1.31979	1.01491	2.1402	76.48	-0.2423	-0.0546	0.1876	1127.7829	0.137361	-421.834263	-421.826981	-421.826037	-421.866098	28.346	
O	 0.0078911354	-0.062602674	 0.0787681842	-0.328801
C	-0.0033601692	 1.1506775099	 0.0654625271	 0.40257
C	-1.3301558693	 1.9320887111	 0.1330707959	-0.324345
C	-1.2221209417	 3.3423982132	 0.7571268398	-0.263492
C	-0.1477671889	 4.0593818186	-0.0418881315	 0.100009
O	 0.5744433623	 5.1846584817	 0.5377953286	-0.306083
C	 1.8538637381	 4.5561749816	 0.2414221207	-0.166937
C	 1.1270805781	 3.2732413058	-0.0620268416	 0.283428
C	 1.2461387701	 1.9511429237	 0.0276919721	-0.347294
H	-1.7047934412	 2.0167186495	-0.8973206463	 0.128993
H	-2.0432596854	 1.3018146334	 0.6691824722	 0.132571
H	-2.1867509577	 3.8581721822	 0.729192161	 0.110658
H	-0.9035282588	 3.2747969914	 1.8027770701	 0.117631
H	-0.5257771139	 4.3334073473	-1.0392008598	 0.093795
H	 2.3531112761	 5.0349895764	-0.6120877815	 0.121813
H	 2.5329447079	 4.548158591	 1.1011267669	 0.133147
H	 2.185180348	 1.4216328871	 0.151311922	 0.112337
96.114	192.7276	208.685	321.2778	353.4271	428.2573	445.5531	515.6241	547.9626	659.9412	750.258	774.6614	833.0258	867.0889	904.1349	969.4487	971.705	988.9293	1017.8483	1058.8727	1092.7821	1097.965	1139.8517	1167.9402	1187.8313	1229.551	1276.1855	1304.1492	1316.4252	1330.7003	1355.3131	1380.5832	1459.6452	1498.629	1500.3569	1751.7388	1778.917	2980.5472	3009.6897	3017.5119	3048.6774	3069.0448	3096.8608	3108.6598	3189.4332
O=C1CCC2OCC2=C1	O=C1CC[C@H]2OC[C]2[CH]1	
InChI=1S/C7H8O2/c8-6-1-2-7-5(3-6)4-9-7/h3,7H,1-2,4H2	InChI=1S/C7H8O2/c8-6-1-2-7-5(3-6)4-9-7/h3,7H,1-2,4H2/t7-/m1/s1
