23
gdb 121829	3.99853	0.63071	0.62094	2.3261	78.37	-0.258	0.0593	0.3173	1874.7686	0.20273	-462.557421	-462.54594	-462.544996	-462.594296	41.55	
C	-0.1080879965	 1.5776293207	 0.1078808098	-0.436154
C	-0.0636847679	 0.0534903031	-0.0452992617	 0.30848
O	 0.5045673722	-0.5456972567	 1.1358079068	-0.478818
C	-1.492470865	-0.5218637415	-0.0769644547	-0.054596
O	-2.193325854	-0.2489352873	 1.1176166314	-0.429076
C	 0.7082650236	-0.4047045146	-1.2966498173	-0.207238
C	 2.1848897393	 0.0012653262	-1.3289475755	-0.190319
C	 2.9214964789	-0.5695234337	-2.5337698704	-0.07282
O	 4.2699468875	-0.1306082249	-2.4674555057	-0.422424
H	 0.8865877345	 1.9898339654	 0.3098555967	 0.107905
H	-0.4819563791	 2.0520227501	-0.8051175313	 0.118045
H	-0.7745541993	 1.8438569799	 0.9310999941	 0.135218
H	 1.2414171241	-0.0018926211	 1.4292703217	 0.286124
H	-2.0604253752	-0.0725344246	-0.8979955675	 0.102741
H	-1.4277634938	-1.606037607	-0.2618546461	 0.086665
H	-1.5864728096	-0.5060380237	 1.8239488496	 0.285882
H	 0.6373293729	-1.4985530879	-1.3471743614	 0.099923
H	 0.1961374303	-0.0131132792	-2.1858937429	 0.093859
H	 2.2932909225	 1.0914546957	-1.3513232546	 0.108441
H	 2.6901804918	-0.3538057643	-0.4229787329	 0.101473
H	 2.8583735669	-1.6700259353	-2.5210376133	 0.086851
H	 2.4360629419	-0.227676296	-3.4629948471	 0.084095
H	 4.7427363243	-0.4949162434	-3.2212729677	 0.285745
59.436	73.6648	107.1504	139.3268	152.7846	237.823	253.9209	262.7816	264.1693	284.187	329.4225	342.0127	393.4252	446.2281	496.5338	498.0305	636.5249	757.7627	775.8488	863.2336	902.0468	943.6711	960.2036	1017.3008	1042.403	1063.4807	1076.4551	1095.7852	1120.768	1176.2697	1196.9644	1219.0016	1234.5312	1259.6067	1310.3876	1313.4792	1330.5573	1362.894	1381.4217	1398.0703	1415.6236	1441.9935	1462.8596	1475.0825	1488.4459	1500.4179	1503.438	1504.9673	1529.001	2958.0242	2977.2885	2983.908	3014.5063	3033.7357	3037.7678	3051.4987	3078.3861	3085.1492	3099.8218	3131.5608	3771.6479	3831.374	3832.0382
CC(O)(CO)CCCO	C[C@@](O)(CO)CCCO	
InChI=1S/C6H14O3/c1-6(9,5-8)3-2-4-7/h7-9H,2-5H2,1H3	InChI=1S/C6H14O3/c1-6(9,5-8)3-2-4-7/h7-9H,2-5H2,1H3/t6-/m0/s1
