16
gdb 27179	3.09678	1.39849	1.02401	1.8429	72.19	-0.2001	0.0196	0.2196	1120.6191	0.127083	-434.07508	-434.067291	-434.066347	-434.108108	29.311	
O	 0.7372826224	 1.1870750609	-0.1839071696	-0.436698
C	 0.3005471247	-0.0925064261	-0.1121127035	 0.265613
C	-0.0139469932	-0.9178756571	-1.1705730792	 0.220007
N	-0.4052536854	-2.0999288367	-0.5415926198	-0.308474
C	-0.3056579406	-1.9209707977	 0.7952836908	 0.009327
N	 0.1239952201	-0.7084081403	 1.090578761	-0.336999
C	 0.0040769534	-0.7710571812	-2.6326099838	-0.138156
C	 0.7517461499	 0.3413353841	-3.2685812698	-0.237727
N	 1.2450718707	-1.0362022752	-3.419948343	-0.322786
H	 0.8579416006	 1.4792809259	 0.7279479824	 0.30141
H	-0.6975538626	-2.9389513191	-1.0144408233	 0.269616
H	-0.5565679203	-2.6907317781	 1.5087639445	 0.135521
H	-0.8834334879	-1.137646309	-3.1462852643	 0.09211
H	 0.3609911044	 0.7893208989	-4.1776912953	 0.116934
H	 1.2853123904	 1.0230358237	-2.6149373558	 0.141366
H	 2.0105425334	-1.1812118832	-2.7642627913	 0.228937
40.4247	139.454	178.8392	299.8492	365.1595	376.1962	408.2445	484.8362	510.3797	643.6665	685.8821	728.3269	740.2796	793.4222	811.7069	878.3605	956.892	963.3709	999.4017	1093.2774	1120.802	1143.6823	1150.0113	1186.2978	1195.123	1266.5311	1297.4718	1310.7195	1321.3274	1386.9246	1439.4447	1498.3562	1515.4463	1519.1418	1677.4076	3110.069	3122.4204	3214.6309	3258.4176	3487.0425	3662.9338	3801.0205
OC1=C(NC=N1)C1CN1	Oc1c([nH]cn1)[C@H]1CN1	
InChI=1S/C5H7N3O/c9-5-4(3-1-6-3)7-2-8-5/h2-3,6,9H,1H2,(H,7,8)	InChI=1S/C5H7N3O/c9-5-4(3-1-6-3)7-2-8-5/h2-3,6,9H,1H2,(H,7,8)/t3-/m1/s1
