18
gdb 78917	3.42154	1.79434	1.60697	1.6386	72.71	-0.235	0.0664	0.3014	882.4197	0.15148	-401.913465	-401.907233	-401.906289	-401.943742	26.691	
O	 0.1907565578	 1.4194549596	-0.1549661356	-0.441088
C	 0.0652176579	 0.0142437762	-0.0424087169	 0.124999
C	 0.521873748	-0.553730553	 1.2909501997	-0.091926
C	-0.6450472985	-0.5663142722	 2.2215492389	-0.054208
C	-1.9447431142	-0.2893867624	 1.455155474	-0.086091
C	-2.5591772476	-1.7196633738	 1.3561519309	-0.223694
C	-1.270825488	-1.9830369013	 0.546177887	-0.007388
C	-1.3575062903	-0.5273389639	 0.0146047354	-0.079753
N	-0.1771249036	-1.8290781142	 1.5792557424	-0.132996
H	-0.2243770257	 1.811513939	 0.6217093577	 0.282833
H	 0.6290629911	-0.4012601066	-0.8844503353	 0.094297
H	 1.5485284292	-0.4701656291	 1.6298453203	 0.093973
H	-0.5636410459	-0.4850083683	 3.2993300906	 0.09388
H	-2.5345534523	 0.5865755582	 1.7238016539	 0.068144
H	-2.7036908849	-2.2861544452	 2.2795605085	 0.104398
H	-3.4595327383	-1.7527196755	 0.737830762	 0.101239
H	-1.1242635696	-2.8554424003	-0.0889754012	 0.074028
H	-2.0230653852	-0.3316010872	-0.8226626722	 0.079352
173.9455	261.5733	324.019	435.4822	492.135	557.9096	658.2105	716.4007	760.94	777.2336	813.9039	862.4473	872.5852	882.2491	895.4243	930.0895	938.1226	977.6225	1012.1436	1035.1402	1041.5098	1050.1513	1078.2818	1098.3101	1104.2128	1116.6925	1175.1619	1187.9271	1227.8733	1237.2527	1255.8096	1257.1735	1279.5927	1281.3269	1289.7329	1336.2303	1367.9307	1431.805	1494.8644	3061.6868	3064.1508	3117.9929	3123.3404	3126.6213	3153.6575	3172.925	3183.9686	3798.2794
OC1C2C3C4CC(C14)N23	O[C@H]1[C@H]2[C@H]3[C@@H]4C[C@@H]([C@H]14)N23	
InChI=1S/C7H9NO/c9-7-4-2-1-3(4)8-5(2)6(7)8/h2-7,9H,1H2	InChI=1S/C7H9NO/c9-7-4-2-1-3(4)8-5(2)6(7)8/h2-7,9H,1H2/t2-,3+,4-,5-,6-,7-,8?/m1/s1
