19
gdb 5634	3.0606	1.91605	1.30655	2.0834	78.55	-0.1907	0.0482	0.2389	990.425	0.166287	-327.972849	-327.964552	-327.963608	-328.005598	30.901	
C	-0.0712105333	 1.5783682503	-0.0361175729	-0.371946
C	 0.0462444596	 0.0506856781	-0.0172386813	-0.158712
N	 0.7165087877	-0.4907926533	-1.1870326193	-0.02277
C	 0.0811467327	-0.8183157428	-2.3640573666	-0.109125
C	 1.0296447295	-1.2135855902	-3.2749130806	-0.165755
C	 2.2916981834	-1.1180244444	-2.6278508575	-0.231276
C	 2.0781987895	-0.6677450222	-1.3423971705	 0.291635
C	 3.0588790834	-0.4086674479	-0.2451487219	-0.506353
H	 0.9159729143	 2.0483157739	-0.0629281559	 0.130302
H	-0.6277503002	 1.9115814609	-0.9168198871	 0.130268
H	-0.5952701845	 1.930938444	 0.8580830536	 0.116854
H	 0.5878241789	-0.2761067934	 0.8755363212	 0.118331
H	-0.9494184871	-0.4014587243	 0.0349185048	 0.117684
H	-0.9924889792	-0.7439534907	-2.4414148519	 0.105519
H	 0.8392419194	-1.5448951463	-4.2841577703	 0.088544
H	 3.2564697336	-1.3626827215	-3.0469432021	 0.084439
H	 3.0628537083	 0.6370358392	 0.0879627426	 0.123583
H	 2.8734892411	-1.0289569444	 0.6413463618	 0.125194
H	 4.0654149229	-0.641708475	-0.600220196	 0.133585
73.6076	119.0572	161.1955	210.6341	240.1789	296.3638	387.6877	421.5759	621.7963	628.4214	648.7844	704.403	706.2495	768.0813	794.8169	829.2203	900.8341	960.9793	992.0745	1041.3865	1061.9051	1086.1659	1102.0016	1124.0954	1199.6676	1255.6525	1293.8524	1327.6512	1390.66	1409.3642	1418.4738	1423.8323	1458.1684	1480.5442	1485.3045	1489.6941	1491.9449	1506.516	1532.0213	1599.106	3012.182	3041.0661	3050.8335	3053.2232	3088.5369	3114.5462	3119.4379	3124.7935	3234.59	3245.1604	3263.0815
CCN1C=CC=C1C	CCn1cccc1C	
InChI=1S/C7H11N/c1-3-8-6-4-5-7(8)2/h4-6H,3H2,1-2H3	InChI=1S/C7H11N/c1-3-8-6-4-5-7(8)2/h4-6H,3H2,1-2H3
