17
gdb 42438	4.65273	0.73425	0.65256	4.6561	75.01	-0.2652	-0.0116	0.2536	1642.0785	0.13499	-418.023666	-418.014346	-418.013402	-418.059898	31.912	
O	-0.1598296494	 0.0039043648	-0.1285377886	-0.332489
C	-0.0991735385	 1.1822931123	 0.1467235098	 0.37741
C	 1.2076473705	 1.9655471876	 0.1581696125	-0.308536
C	 2.4068002867	 1.0416913948	-0.1060148341	-0.333482
C	 3.6659974906	 1.7798448761	-0.1540607142	 0.253455
N	 4.6536300649	 2.378585382	-0.1915256035	-0.304661
N	-1.2028806033	 1.9157381567	 0.5651552254	-0.080159
C	-1.7807802466	 3.0549910178	-0.1280341777	-0.236187
C	-2.5198303785	 1.7545494477	-0.0015821987	-0.217128
H	 1.1603553562	 2.7539197349	-0.6021847136	 0.143109
H	 1.3101944437	 2.4799528383	 1.1186766398	 0.153393
H	 2.4678309917	 0.2743236782	 0.6716545443	 0.16834
H	 2.2636438715	 0.5053287023	-1.0485466721	 0.16946
H	-2.0529716483	 3.9034931358	 0.4931036591	 0.136076
H	-1.3818337922	 3.3106443378	-1.1069368458	 0.133812
H	-2.6022746279	 1.124998607	-0.8832332414	 0.142665
H	-3.3344991209	 1.6664839461	 0.7107793188	 0.134922
25.6917	58.0769	89.6523	119.332	211.9852	214.0587	267.9231	392.4965	410.8333	526.8182	586.4807	616.286	778.7824	788.4059	817.2549	929.7121	955.557	980.0547	1034.2189	1042.4575	1059.8676	1123.8969	1134.438	1142.3194	1168.647	1178.0183	1182.2121	1284.3499	1302.0536	1367.6852	1414.9479	1456.1271	1467.0514	1497.9304	1524.684	1785.6639	2363.8548	3048.9196	3070.1707	3088.9776	3107.9066	3111.5738	3120.0597	3194.2539	3211.9972
O=C(CCC#N)N1CC1	O=C(CCC#N)N1CC1	
InChI=1S/C6H8N2O/c7-3-1-2-6(9)8-4-5-8/h1-2,4-5H2	InChI=1S/C6H8N2O/c7-3-1-2-6(9)8-4-5-8/h1-2,4-5H2
