13
gdb 27019	2.89155	1.37823	0.93881	4.8744	71.36	-0.2354	-0.0356	0.1997	1155.4365	0.087341	-456.590556	-456.582543	-456.581599	-456.623263	29.115	
C	 0.1787468701	 1.5180667474	 0.0440038528	-0.50261
C	-0.0067813751	 0.0521350432	 0.0449272844	 0.222495
C	-1.0902858387	-0.7390974734	-0.0202296713	 0.105661
O	-0.6640167706	-2.0694124796	 0.0209359215	-0.243976
C	 0.6941219139	-2.0618158484	 0.1119709248	 0.483764
O	 1.4036459696	-3.0109499878	 0.168545768	-0.362236
O	 1.1099164914	-0.749861584	 0.1274441935	-0.231402
C	-2.4585608553	-0.4555086813	-0.1148631786	 0.271921
C	-3.6346533895	-0.2100856487	-0.1962849563	-0.425606
H	 0.7981933671	 1.8326517586	-0.8029358758	 0.157913
H	-0.7926114577	 2.0108509802	-0.0259702423	 0.157547
H	 0.6793015105	 1.8486708391	 0.9605957034	 0.157924
H	-4.6726073557	 0.0045829546	-0.268236874	 0.208606
130.1587	133.1263	160.3593	196.0365	277.7353	303.8276	442.3369	465.1289	553.7805	569.4449	615.9627	652.7536	668.8725	711.0576	775.3108	815.4735	948.6062	968.1006	1038.4422	1064.5032	1198.0463	1264.2727	1327.7917	1420.4688	1467.4513	1481.753	1731.1352	1946.0514	2235.5142	3038.3614	3093.651	3143.7849	3499.0313
CC1=C(OC(=O)O1)C#C	Cc1c(oc(=O)o1)C#C	
InChI=1S/C6H4O3/c1-3-5-4(2)8-6(7)9-5/h1H,2H3	InChI=1S/C6H4O3/c1-3-5-4(2)8-6(7)9-5/h1H,2H3
