16
gdb 46205	3.1834	1.52892	1.21885	3.4594	70.38	-0.2417	0.0199	0.2616	1012.2164	0.124895	-437.822941	-437.815677	-437.814733	-437.854864	27.713	
N	-0.1001920987	 1.2344720309	-0.2578199244	-0.560177
C	-0.0756665198	 0.0023093481	-0.0286608744	 0.403411
O	 0.9684149259	-0.8247085234	 0.3660722899	-0.267513
C	 0.0855554729	-1.9878433098	 0.4456543344	-0.165979
C	-1.0692554246	-1.1090041201	-0.0253537881	 0.186361
C	-2.5094399429	-1.1642215297	 0.4276532794	-0.233327
C	-3.247475135	 0.0245882222	-0.1918224289	-0.084906
O	-2.8100568182	-0.3597084316	-1.530312291	-0.273281
C	-2.150454827	-1.4935601838	-0.9994737217	 0.03279
H	 0.8209091091	 1.6565550688	-0.1311097073	 0.229601
H	 0.4133275606	-2.7787819805	-0.2348507289	 0.124606
H	 0.0285325536	-2.3642253787	 1.4711210233	 0.123034
H	-2.8400124039	-1.7817628846	 1.2524502359	 0.109671
H	-4.3363044557	-0.0514098859	-0.1144933783	 0.115719
H	-2.9015353918	 1.0249674628	 0.0798746161	 0.145451
H	-2.1360544245	-2.4105404347	-1.579080896	 0.114541
119.5297	143.6355	154.1593	286.6173	353.6422	399.3982	450.8229	632.8555	691.2725	777.487	802.0328	830.9724	851.349	880.8317	939.3228	948.1007	963.8466	988.1636	1004.7286	1025.73	1062.9534	1069.0937	1111.2515	1147.0176	1154.1622	1173.057	1211.5843	1241.1161	1264.9993	1324.4408	1360.0814	1442.4983	1503.5052	1516.1859	1822.3385	3049.4028	3050.9245	3104.8705	3116.4935	3170.6645	3199.6375	3481.5972
N=C1OCC11C2COC12	[NH][C]1OC[C@]21[C@H]1CO[C@@H]21	
InChI=1S/C6H7NO2/c7-5-6(2-9-5)3-1-8-4(3)6/h3-4,7H,1-2H2	InChI=1S/C6H7NO2/c7-5-6(2-9-5)3-1-8-4(3)6/h3-4,7H,1-2H2/t3-,4+,6-/m0/s1
