17
gdb 7681	4.19938	1.6003	1.52648	2.8661	70.39	-0.2548	0.0193	0.274	909.0235	0.141198	-363.840774	-363.833067	-363.832123	-363.8723	29.55	
C	-0.0013675286	 1.5388132178	 0.0871654349	-0.458821
C	 0.053832962	 0.0258900994	 0.0525301802	 0.284416
C	-1.1755833814	-0.6431904902	-0.538380861	-0.456869
C	 1.3270154386	-0.7190322015	-0.1751175399	 0.039744
O	 2.4628144862	 0.0043037703	 0.3648121799	-0.273231
C	 1.9408283234	-0.1410202877	 1.6550954272	 0.440294
N	 2.4413106205	 0.1560934365	 2.7644651842	-0.55812
C	 0.6857161342	-0.8020059908	 1.1961421852	-0.245301
H	 0.9324198016	 1.9716397476	 0.4488609018	 0.142834
H	-0.1891604958	 1.9332760909	-0.9178139809	 0.118321
H	-0.8141407256	 1.8786607477	 0.7374145805	 0.123852
H	-1.3511864774	-0.2876573024	-1.5592648972	 0.126425
H	-1.070125292	-1.7322993189	-0.5727733226	 0.11993
H	-2.066569897	-0.4120210902	 0.0549679018	 0.130447
H	 1.5351334369	-1.4722441014	-0.9239952625	 0.119316
H	 3.3654703503	 0.5761341971	 2.6513486745	 0.229714
H	 0.1597854242	-1.6002909341	 1.6995029038	 0.117048
136.8694	182.9008	204.1635	234.4683	284.8815	342.0758	390.0597	456.9021	517.546	625.5622	713.9924	759.9709	828.5752	857.4728	867.8725	926.8987	958.412	973.1463	975.7431	1015.891	1032.7339	1042.7282	1079.1796	1147.1599	1189.0509	1193.1883	1290.0082	1300.6297	1394.1834	1411.1139	1427.3244	1480.7857	1488.1799	1501.0425	1511.828	1828.0569	3030.1555	3037.124	3094.1307	3098.5322	3102.8843	3139.7372	3201.0213	3226.1054	3478.5666
CC1(C)C2OC(=N)C12	CC1(C)[C@H]2O[C]([NH])[C@@H]12	
InChI=1S/C6H9NO/c1-6(2)3-4(6)8-5(3)7/h3-4,7H,1-2H3	InChI=1S/C6H9NO/c1-6(2)3-4(6)8-5(3)7/h3-4,7H,1-2H3/t3-,4-/m0/s1
