14
gdb 50969	2.2123	1.15797	0.79202	5.3567	64.59	-0.292	-0.0709	0.2211	1336.9301	0.097591	-473.853223	-473.844003	-473.843059	-473.888628	30.575	
O	-0.0936041764	-0.0165656694	-0.1958560562	-0.254509
C	-0.0235685164	 1.1696343341	-0.166973417	 0.191635
O	 1.1395570748	 1.8139833503	 0.1290390264	-0.179755
C	 1.152425298	 3.2224756757	 0.0305489888	 0.001445
C	 2.3988788252	 3.7312701758	 0.7734355002	-0.369249
C	 2.2991721913	 3.5415679355	 2.2177594984	 0.278075
N	 2.2058007523	 3.4067759331	 3.3607099075	-0.285488
C	 1.1502699518	 3.6804365735	-1.4311442314	 0.149344
O	 0.8763513398	 2.9538225928	-2.344176328	-0.210857
H	-0.8672458223	 1.8615640851	-0.3403850858	 0.091349
H	 0.2555745951	 3.6622235077	 0.497121092	 0.136779
H	 3.2787131485	 3.1993652465	 0.3964633426	 0.185304
H	 2.5412540207	 4.7977609897	 0.5663455736	 0.164135
H	 1.3890213475	 4.7570352996	-1.5787033109	 0.101794
57.0607	71.5428	102.4558	159.3727	164.5177	217.1515	273.1633	339.7885	385.0304	429.5555	528.7996	593.4128	730.3358	851.2037	903.3103	934.2598	1031.1774	1032.7181	1081.3546	1120.9519	1164.2404	1245.32	1280.1852	1354.389	1365.1089	1411.3082	1436.7403	1455.515	1848.4406	1887.1734	2373.0282	2892.9458	2976.1311	2988.142	3052.8162	3098.6653
O=COC(CC#N)C=O	O=CO[C@@H](CC#N)C=O	
InChI=1S/C5H5NO3/c6-2-1-5(3-7)9-4-8/h3-5H,1H2	InChI=1S/C5H5NO3/c6-2-1-5(3-7)9-4-8/h3-5H,1H2/t5-/m0/s1
