23
gdb 59666	2.65357	1.19026	1.08233	1.7107	85.28	-0.2232	0.0791	0.3024	1288.0002	0.204388	-388.261087	-388.251389	-388.250445	-388.295639	36.881	
C	-1.2552189198	-0.6312818428	-0.4805765782	-0.397222
C	 0.0293707778	 0.0556393115	 0.0062382938	 0.020674
C	-0.1839992296	 1.5698597275	 0.1512171037	-0.391644
C	 0.6002676739	-0.5320251657	 1.3070441081	-0.131264
C	-0.3668763453	-0.8098009702	 2.4854230434	-0.088898
O	-0.1543317549	-2.2367510308	 2.3833728487	-0.311925
C	 0.8470242602	-2.0407406404	 1.3840082526	 0.465321
C	 1.118770824	-3.0630946883	 0.331052871	-0.335564
C	 2.1407937991	-2.7886104054	 1.4270332037	-0.345288
H	-2.0992884221	-0.4225290586	 0.1854015445	 0.115384
H	-1.5293622658	-0.261213992	-1.4737654672	 0.10869
H	-1.139260508	-1.7158052348	-0.5429459281	 0.132478
H	 0.7996849497	-0.0995165597	-0.7636404967	 0.073525
H	-0.928638773	 1.7885230814	 0.926078073	 0.114736
H	 0.7435792306	 2.082892845	 0.4264561367	 0.11014
H	-0.546146972	 2.0078289428	-0.7844803994	 0.112424
H	 1.4759882968	 0.0541723934	 1.6025700856	 0.075139
H	-0.037003162	-0.4204245564	 3.4559796274	 0.099663
H	-1.4189348347	-0.5466526739	 2.3336900452	 0.102361
H	 0.5583476977	-3.9902473085	 0.3919874962	 0.1239
H	 1.3385630889	-2.7324579374	-0.6791553663	 0.114767
H	 3.054927677	-2.2651505793	 1.1639238114	 0.110374
H	 2.2505481814	-3.5370362872	 2.2045032705	 0.122226
66.6688	79.6345	147.2736	207.8406	239.5304	252.3429	271.6376	284.7534	372.8913	398.5396	478.7993	540.0184	592.1642	752.6479	759.962	858.2317	878.8212	885.7448	906.6802	930.4479	955.018	969.0491	973.3965	1003.4711	1029.3502	1047.2655	1056.383	1066.8127	1137.9223	1151.9161	1166.0681	1188.1141	1207.3024	1223.4452	1251.8071	1323.0508	1345.7996	1355.2576	1371.9507	1394.4715	1404.5063	1425.4261	1446.3323	1487.721	1490.0465	1497.0889	1504.8342	1510.2076	1532.687	2992.5053	3022.7567	3025.3268	3037.8268	3052.7987	3072.7869	3089.8996	3097.7617	3100.5802	3123.1979	3125.0557	3126.4774	3206.5934	3221.173
CC(C)C1COC11CC1	CC(C)[C@H]1COC21CC2	
InChI=1S/C8H14O/c1-6(2)7-5-9-8(7)3-4-8/h6-7H,3-5H2,1-2H3	InChI=1S/C8H14O/c1-6(2)7-5-9-8(7)3-4-8/h6-7H,3-5H2,1-2H3/t7-/m1/s1
