18
gdb 65235	2.57523	1.50725	1.17208	1.9389	72.2	-0.2416	-0.0267	0.2149	1096.1817	0.146263	-439.053468	-439.04483	-439.043885	-439.087004	32.064	
C	 0.1731703415	 1.5073219431	-0.5887790318	-0.479383
C	-0.0488404635	 0.0849987944	-0.1211932064	 0.293108
C	 1.0355258775	-0.9241077512	-0.2130198165	-0.272992
N	 0.6202041267	-0.3940453735	 1.1014931226	-0.351724
C	-1.4911477935	-0.3778292573	-0.2351506915	-0.044436
O	-1.6968560931	-1.7671836621	 0.0985945945	-0.288082
C	-2.4491962793	-1.4797492255	 1.2980481225	-0.184161
C	-2.3726130353	 0.0129716575	 0.9670682604	 0.363686
O	-2.7915503091	 1.0299597089	 1.4271247369	-0.284132
H	 1.2213693525	 1.7969760443	-0.4657156615	 0.116882
H	-0.0851931785	 1.621839	-1.6474093012	 0.127328
H	-0.4471424759	 2.2051989351	-0.0157849648	 0.148214
H	 0.7823184741	-1.9666758964	-0.3725370601	 0.137421
H	 1.9881466777	-0.603987274	-0.627697765	 0.110831
H	 1.2859666359	 0.3040967465	 1.4238403443	 0.230716
H	-1.9036248859	-0.1285756764	-1.2222934426	 0.101562
H	-3.4515439003	-1.9243769954	 1.2902431336	 0.128157
H	-1.9113302914	-1.7647406581	 2.2095258664	 0.147005
72.6405	113.2243	127.6673	217.7379	248.9684	320.338	346.8261	391.7954	425.9255	508.3692	567.1876	713.602	721.5683	824.4548	841.5867	912.8487	936.3698	966.5264	982.4115	1009.0268	1017.5526	1056.39	1068.358	1082.8054	1123.008	1142.6199	1155.0537	1235.7557	1268.1039	1280.4903	1302.585	1362.1042	1377.4564	1416.3698	1467.0827	1483.73	1497.5777	1508.0144	1922.4165	3018.9259	3028.2086	3030.4863	3083.1138	3095.4732	3106.1257	3113.8989	3210.7797	3498.6676
CC1(CN1)C1OCC1=O	C[C@]1(CN1)[C@H]1OCC1=O	
InChI=1S/C6H9NO2/c1-6(3-7-6)5-4(8)2-9-5/h5,7H,2-3H2,1H3	InChI=1S/C6H9NO2/c1-6(3-7-6)5-4(8)2-9-5/h5,7H,2-3H2,1H3/t5-,6-/m0/s1
