25
gdb 117156	3.53316	0.65615	0.64689	2.3163	90.14	-0.2355	-0.0058	0.2297	1962.3019	0.225704	-389.529884	-389.517998	-389.517054	-389.568887	41.673	
C	-0.0790124366	 1.5932176775	-0.0680507542	-0.38647
C	 0.1043304688	 0.079300444	 0.0609615329	-0.160186
C	 0.6252858863	-0.5662598378	-1.2220514112	-0.291489
C	 0.7897379191	-2.0769172929	-1.1422712545	 0.376269
O	 0.4290010621	-2.712031778	-0.1758784537	-0.323706
C	 1.4583067581	-2.7612383856	-2.3391680406	-0.061858
C	 2.9355523786	-3.012978232	-1.9738027233	-0.392215
C	 0.7016562816	-4.0521164315	-2.7053381487	-0.160111
C	 1.2379642211	-4.7680073892	-3.947804628	-0.397308
H	 0.8663705086	 2.092040244	-0.3104516685	 0.111481
H	-0.7943772543	 1.8429450236	-0.8600282373	 0.111988
H	-0.4526815145	 2.0269487671	 0.8645522841	 0.115164
H	 0.7957979231	-0.1484624647	 0.8798366634	 0.108724
H	-0.84273303	-0.3962775454	 0.3362502804	 0.114459
H	-0.0494982847	-0.3591937221	-2.0672587177	 0.119782
H	 1.5888085041	-0.1312943681	-1.525989126	 0.115648
H	 1.4284411972	-2.072044785	-3.1938250835	 0.069228
H	 3.483103861	-3.4421998783	-2.8166552644	 0.121222
H	 3.4417044854	-2.0835300568	-1.6919972509	 0.114487
H	 3.0027793395	-3.7031258107	-1.1270972127	 0.135366
H	 0.7225724998	-4.7201046593	-1.8380622208	 0.119279
H	-0.3546110059	-3.8018151281	-2.865245501	 0.094277
H	 1.2403434975	-4.1058802305	-4.8214741641	 0.110896
H	 2.2597430773	-5.1323883501	-3.8046950929	 0.119247
H	 0.6150197066	-5.6340753702	-4.1922178869	 0.115826
17.0823	64.2855	69.507	91.6045	130.4669	207.5339	215.0912	229.3831	250.9007	266.8265	299.0647	332.6482	361.177	459.6444	570.065	685.2598	746.4161	770.9015	821.2806	853.9032	877.5491	911.4542	966.1361	980.6635	1027.2021	1047.2921	1055.9508	1073.8696	1113.4976	1139.9673	1145.657	1195.5591	1247.5214	1286.0852	1304.6455	1319.8358	1337.7692	1351.9021	1383.3373	1394.3901	1405.1719	1414.5447	1415.4054	1446.8928	1483.4288	1486.7121	1494.3759	1500.3812	1501.2828	1505.6704	1507.6918	1511.4012	1800.7087	2997.9703	3015.7303	3025.5943	3027.4204	3029.0912	3031.301	3037.9194	3047.9815	3074.2227	3075.4779	3098.9971	3099.3213	3102.3077	3102.7523	3107.9087	3121.7648
CCCC(=O)C(C)CC	CCCC(=O)[C@@H](C)CC	
InChI=1S/C8H16O/c1-4-6-8(9)7(3)5-2/h7H,4-6H2,1-3H3	InChI=1S/C8H16O/c1-4-6-8(9)7(3)5-2/h7H,4-6H2,1-3H3/t7-/m0/s1
