17
gdb 43949	3.26922	1.59477	1.49427	3.4276	73.68	-0.2441	-0.0152	0.2288	934.7453	0.136773	-421.752669	-421.745982	-421.745038	-421.78352	27.669	
O	-0.1396911573	-0.0793577443	-0.4028724013	-0.276253
C	-0.0807751031	 1.0707687546	-0.1153424213	 0.355165
C	-1.1685649141	 2.1843724587	 0.2371589961	-0.418419
C	 0.0141654948	 2.8688584172	 0.9353019081	 0.397975
C	 1.0216606677	 4.0334666897	 1.1131879337	-0.330286
C	 2.0340382882	 2.7943005242	 1.11031405	-0.121354
C	 1.5881296559	 2.0870291851	 2.3798413086	-0.079983
O	 0.1600381336	 2.1247671711	 2.1795707182	-0.30694
C	 1.0311333119	 2.1742034376	 0.0508133137	-0.127887
H	-1.5012235133	 2.6885007057	-0.674022234	 0.128851
H	-2.0223707197	 1.8780488491	 0.8423532139	 0.137071
H	 1.1316474238	 4.6645872221	 0.2313763902	 0.11518
H	 0.9632816443	 4.6321458306	 2.0254077725	 0.110673
H	 3.0989195151	 2.9141787782	 0.9180579793	 0.087558
H	 1.9291700242	 1.0499459663	 2.4562713537	 0.118246
H	 1.8594757608	 2.6266974777	 3.2947121213	 0.104991
H	 1.1441715072	 2.6656062166	-0.9208201025	 0.10541
122.83	245.8528	343.3037	365.429	429.5932	467.039	537.8293	591.8997	640.2232	714.7894	755.3082	830.3326	839.0575	878.3179	902.1322	928.8245	946.5851	963.9962	986.8878	1011.4456	1032.3361	1051.989	1074.5322	1116.3254	1156.8963	1172.5769	1194.2277	1196.7006	1216.4923	1246.1786	1266.4651	1316.0248	1359.0487	1451.2123	1487.7473	1527.1015	1907.6886	3032.0567	3063.8333	3072.5517	3077.6587	3082.047	3136.935	3145.7625	3150.4084
O=C1CC23CC(CO2)C13	O=C1C[C@@]23C[C@@H](CO2)[C@@H]13	
InChI=1S/C7H8O2/c8-5-2-7-1-4(3-9-7)6(5)7/h4,6H,1-3H2	InChI=1S/C7H8O2/c8-5-2-7-1-4(3-9-7)6(5)7/h4,6H,1-3H2/t4-,6-,7+/m0/s1
