19
gdb 74616	2.58167	1.90003	1.40112	1.1981	79.69	-0.2153	0.0227	0.238	984.7412	0.159204	-385.865803	-385.857884	-385.85694	-385.897638	31.936	
C	-0.0247783731	 1.5180249782	 0.0415352193	-0.52181
C	-0.0767313853	 0.0277197932	-0.0336751052	 0.260287
C	 0.0105797601	-0.7790219783	-1.0981198153	-0.194347
C	-0.0046293036	-2.2048489511	-0.6607582624	-0.077021
C	 0.9209691801	-2.6410566827	 0.5076806058	-0.071195
C	 1.4145936835	-1.4474000956	 1.3175128745	-0.293169
C	-0.0471917991	-0.8456164557	 1.2145900528	 0.3132
O	-0.6449480685	-0.35143269	 2.3796229716	-0.497784
C	-0.5188657352	-2.2581078101	 0.7508345117	-0.113781
H	 0.87677993	 1.8681120697	 0.5650177152	 0.117598
H	-0.0234569236	 1.9709373522	-0.9533016012	 0.128132
H	-0.8840177569	 1.9130208453	 0.5972114511	 0.132315
H	 0.1329185183	-0.4664777197	-2.1285357343	 0.090613
H	-0.2654974299	-2.9981436459	-1.3519002718	 0.082717
H	 1.3697019089	-3.6273188335	 0.4984581573	 0.085832
H	 1.599760533	-1.7504752463	 2.3517773568	 0.104938
H	 2.2481733613	-0.8447641651	 0.9396560295	 0.083893
H	-0.1315824386	 0.4026484872	 2.6886933462	 0.278761
H	-1.3686293314	-2.8186945819	 1.1193722682	 0.090821
153.4663	165.2774	196.3808	238.994	323.9451	348.0975	415.7982	476.1975	562.6516	580.1436	640.4607	736.65	752.3859	778.3994	807.0132	829.2879	886.2226	927.6208	942.9942	966.747	989.7366	1014.0228	1024.3896	1044.0238	1066.1059	1071.7692	1098.6631	1143.3417	1188.5378	1221.8187	1240.6986	1256.2808	1299.766	1343.3237	1359.6576	1374.391	1408.7143	1478.0289	1480.6924	1492.1488	1696.2201	3003.1827	3031.8835	3055.3205	3101.5336	3111.8133	3174.1116	3179.373	3195.4142	3200.8349	3807.8738
CC1=CC2C3CC1(O)C23	CC1=C[C@H]2[C@H]3C[C@]1(O)[C@@H]23	
InChI=1S/C8H10O/c1-4-2-5-6-3-8(4,9)7(5)6/h2,5-7,9H,3H2,1H3	InChI=1S/C8H10O/c1-4-2-5-6-3-8(4,9)7(5)6/h2,5-7,9H,3H2,1H3/t5-,6+,7-,8+/m0/s1
