20
gdb 104807	2.04679	1.5829	1.18711	2.2528	74.04	-0.2511	0.0218	0.273	1147.804	0.171033	-440.302778	-440.293591	-440.292647	-440.336803	34.139	
C	-0.0779880699	 1.6026743549	-0.0573456276	-0.396795
C	-0.0564686071	 0.0721659216	 0.0187531383	-0.227809
C	 0.6734576969	-0.52714362	 1.2270510801	 0.341678
C	 0.0676423001	-0.1226287977	 2.5737291493	-0.115042
O	 0.7918911531	-0.6541023928	 3.6643631538	-0.419949
C	 0.8801528329	-2.0631064117	 1.0879764645	-0.229427
N	 2.3139813898	-2.2492422363	 0.8108826236	-0.255831
C	 2.8351449989	-1.1033479932	 0.9306219584	 0.098678
O	 2.0586870979	-0.0295861797	 1.2298226158	-0.271769
H	 0.9359044834	 2.0068877134	 0.0051889458	 0.134101
H	-0.5145904319	 1.9283690589	-1.0060235322	 0.117175
H	-0.6717108541	 2.0500458522	 0.7450994113	 0.120671
H	-1.0806711846	-0.3232788471	 0.0194543308	 0.104574
H	 0.4229202068	-0.3286281818	-0.8824974183	 0.1124
H	-0.0017929777	 0.9717866112	 2.6397224365	 0.100559
H	-0.9481963434	-0.5268265792	 2.643539974	 0.115598
H	 1.6877042934	-0.3051158425	 3.5940617301	 0.290307
H	 0.6225663015	-2.5906282926	 2.0118722138	 0.13185
H	 0.2809367118	-2.4835323448	 0.2743202955	 0.11121
H	 3.8896855821	-0.8746094625	 0.8178086666	 0.13782
83.3853	103.5364	123.4567	203.506	213.3651	271.5634	312.3878	357.6322	407.9473	429.8427	498.5601	590.4	636.7349	771.6762	777.9086	846.6221	900.2352	935.2388	959.147	971.4715	994.0952	1018.4545	1052.5258	1090.9172	1110.3693	1152.0633	1161.0677	1205.5084	1240.6992	1265.5155	1315.5959	1328.9076	1348.7436	1375.4666	1393.7693	1412.5055	1422.8967	1478.6435	1489.9552	1496.4731	1503.1648	1509.6938	1712.9197	3011.0974	3023.588	3046.2725	3047.0757	3059.7201	3077.2627	3087.2071	3111.1408	3124.0081	3209.2557	3803.5034
CCC1(CO)CN=CO1	CC[C@@]1(CO)CN=CO1	
InChI=1S/C6H11NO2/c1-2-6(4-8)3-7-5-9-6/h5,8H,2-4H2,1H3	InChI=1S/C6H11NO2/c1-2-6(4-8)3-7-5-9-6/h5,8H,2-4H2,1H3/t6-/m0/s1
