19
gdb 112597	3.91538	0.89696	0.86833	3.8681	76.67	-0.2623	0.0301	0.2924	1376.8051	0.159207	-419.19876	-419.189224	-419.18828	-419.233225	35.103	
N	-0.5799660711	 1.0290985749	 0.4679514171	-0.538328
C	-0.0093127447	-0.2246823313	-0.024192432	 0.153414
C	 0.4980587282	-1.113228237	 1.158790359	-0.272671
C	-0.8092477335	-1.9498787084	 1.0771485551	 0.029686
C	-1.8172360271	-1.6509401937	 2.1736133215	-0.09295
O	-3.0189562333	-2.3330412986	 1.8429243006	-0.425058
C	-1.1268068574	-1.2842314307	-0.290452229	-0.24618
C	 0.9506391981	-0.0229013188	-1.1185711547	 0.216346
N	 1.7024402332	 0.1658665314	-1.9777545915	-0.346866
H	 0.1637920868	 1.6558303562	 0.7658643969	 0.239968
H	-1.0735070379	 1.5023612537	-0.2849964705	 0.241
H	 1.3907848231	-1.6844187618	 0.8996252158	 0.122848
H	 0.679735471	-0.5614891855	 2.0847108316	 0.111242
H	-0.6584094994	-3.0304425474	 1.0241209816	 0.085845
H	-1.4142082175	-1.9940665657	 3.1413690311	 0.082928
H	-1.9747692722	-0.5650655235	 2.2408048344	 0.109305
H	-3.6964797796	-2.0734098431	 2.4736772994	 0.288418
H	-2.1296978841	-0.869178167	-0.4062710012	 0.120726
H	-0.8989460626	-1.9237812337	-1.1444291949	 0.120329
66.9447	100.4992	136.5957	188.4545	236.8488	249.7483	285.2323	316.5178	384.6486	392.9618	461.0017	557.6532	575.8739	609.2705	804.7688	827.563	845.8006	899.5538	904.6019	951.6919	969.7268	1004.1176	1058.2942	1075.871	1102.6097	1165.3509	1174.8416	1222.7304	1253.4171	1254.6936	1280.0829	1283.4962	1300.8291	1304.6561	1368.057	1456.91	1462.0486	1480.1221	1526.237	1655.0513	2336.6542	2961.0269	3021.0943	3067.0591	3078.3627	3085.0363	3130.9498	3140.1193	3477.0731	3557.2217	3833.6452
NC1(CC(CO)C1)C#N	N[C@]1(C[C@@H](CO)C1)C#N	
InChI=1S/C6H10N2O/c7-4-6(8)1-5(2-6)3-9/h5,9H,1-3,8H2	InChI=1S/C6H10N2O/c7-4-6(8)1-5(2-6)3-9/h5,9H,1-3,8H2/t5-,6+
