19
gdb 40407	3.54224	1.28587	1.13997	0.3316	79.82	-0.2238	0.0111	0.2349	1126.4245	0.161787	-382.024106	-382.016549	-382.015604	-382.056268	30.112	
C	-0.0510721961	 1.5026414987	-0.0331922347	-0.24474
N	 1.2302817679	 0.777206026	-0.0500486379	-0.321726
C	-0.0261356916	 0.0187460068	 0.0520210118	-0.079683
C	-0.2717834951	-0.7310734286	 1.3219756453	 0.361043
C	 0.2116110298	-0.1561403475	 2.6565653196	-0.362134
C	 0.4855047712	-1.3819642442	 3.5005361425	-0.089482
C	 0.3158135867	-2.512393552	 2.8085639162	-0.077378
C	-0.1728489687	-2.2262840334	 1.4278284187	-0.111039
N	-1.4905575566	-1.5530735033	 1.3216114678	-0.379132
H	-0.2223697545	 2.097997726	 0.859401923	 0.116485
H	-0.4148751632	 1.9546195611	-0.9521180318	 0.112391
H	 1.5989644881	 0.7267133987	-0.9951840209	 0.233872
H	-0.3723647603	-0.5165258054	-0.8293566195	 0.085129
H	 1.1212220633	 0.4362857968	 2.4984275958	 0.142658
H	-0.5290649445	 0.5112016746	 3.1169913886	 0.106859
H	 0.7646998884	-1.3178028334	 4.5461328368	 0.097871
H	 0.4725965637	-3.5174807015	 3.1823980904	 0.098314
H	 0.0791623861	-2.8751386123	 0.5947413165	 0.087933
H	-1.9360029744	-1.5372384272	 2.2376286017	 0.222759
76.4492	157.9729	190.3807	308.7623	361.5117	372.5893	493.2923	532.5887	592.2761	727.9643	747.7146	772.9527	851.0744	875.1658	876.7881	906.6398	926.3401	949.0446	955.2046	963.7524	991.9411	1000.9021	1052.6529	1081.5874	1115.9514	1116.7211	1133.746	1161.1043	1163.5009	1202.8713	1246.492	1280.16	1284.2471	1294.8401	1322.2109	1362.6345	1389.7216	1465.0351	1475.6515	1516.4038	1661.7433	3020.9435	3058.846	3108.4004	3133.2244	3156.3989	3188.128	3192.2605	3213.0865	3471.9293	3514.4227
C1NC1C12CC=CC1N2	C1N[C@H]1[C@]12CC=C[C@H]1N2	
InChI=1S/C7H10N2/c1-2-5-7(3-1,9-5)6-4-8-6/h1-2,5-6,8-9H,3-4H2	InChI=1S/C7H10N2/c1-2-5-7(3-1,9-5)6-4-8-6/h1-2,5-6,8-9H,3-4H2/t5-,6-,7+/m1/s1
