15
gdb 22713	4.53617	0.96624	0.87729	1.6077	79.87	-0.2307	-0.0074	0.2233	1284.645	0.110811	-416.678502	-416.670251	-416.669307	-416.711318	31.509	
O	-0.1018971404	 1.3004009801	-0.056635746	-0.387449
N	 0.0280918535	-0.0945359003	 0.047328716	-0.261813
C	-1.0994096896	-0.6617633988	-0.0352071257	 0.492895
C	-2.5627762104	-0.2220228513	-0.087214354	-0.37125
C	-2.9247799714	-1.715713529	 0.1122540186	 0.190937
N	-2.3341323477	-2.4252829813	-1.0513751961	-0.359809
C	-1.4563782893	-2.1013832308	 0.1082033924	-0.226457
C	-3.9966165094	-2.2499295486	 0.8721382204	 0.164414
C	-4.9194245981	-2.6856662975	 1.5103534907	-0.386691
H	 0.8105278326	 1.5967104895	 0.0305065343	 0.30963
H	-2.8248460571	 0.409096074	 0.7652151505	 0.142323
H	-2.9203289876	 0.226785198	-1.015650709	 0.135086
H	-2.5862072873	-3.4103518888	-0.9551549826	 0.242789
H	-0.9384933339	-2.8764371575	 0.6571829775	 0.121182
H	-5.7306012539	-3.0720133979	 2.076371643	 0.194213
78.243	136.9866	203.9025	219.9877	316.978	386.8637	444.6483	451.1696	511.0512	516.9419	566.9767	589.9708	617.0106	668.4885	698.2644	796.8235	834.629	944.536	952.9825	989.7965	992.9582	1035.2606	1104.5801	1124.906	1160.8628	1213.1044	1256.8531	1324.2554	1384.4884	1416.5956	1456.2451	1797.5057	2234.8965	3076.7748	3136.5749	3215.7785	3462.591	3502.4777	3817.2723
ON=C1CC2(NC12)C#C	ON=C1C[C@]2(N[C@@H]12)C#C	
InChI=1S/C6H6N2O/c1-2-6-3-4(8-9)5(6)7-6/h1,5,7,9H,3H2	InChI=1S/C6H6N2O/c1-2-6-3-4(8-9)5(6)7-6/h1,5,7,9H,3H2/t5-,6+/m0/s1
