13
gdb 128987	4.14466	1.70725	1.20917	2.1339	72.58	-0.248	-0.0668	0.1812	918.1903	0.095255	-411.829261	-411.823662	-411.822718	-411.859208	22.313	
N	 0.0179829529	 1.2563535506	 0.0092838115	-0.059934
N	 1.1971940231	 1.8618476914	 0.0010213901	-0.313231
C	 2.0470681403	 0.8120169652	-0.0133711333	 0.328286
C	 3.4540510231	 0.7320144998	-0.0277591457	-0.243673
C	 3.978737615	-0.537800766	-0.040235813	 0.012125
N	 3.2531790387	-1.698385125	-0.0397035954	-0.273937
C	 1.9421038692	-1.635142735	-0.0263600724	-0.062675
C	 1.2819188828	-0.3857985203	-0.0126611442	 0.245271
N	-0.030331271	-0.0608979834	 0.0022288882	-0.299678
H	-0.8335855967	 1.7995587511	 0.0208400178	 0.304597
H	 4.0835370112	 1.6132076291	-0.0289506705	 0.118484
H	 5.0555937785	-0.6783328894	-0.0517098915	 0.116166
H	 1.3828677228	-2.5676505682	-0.0261559017	 0.128201
227.446	264.6495	422.1159	443.9256	560.7132	620.0961	642.7981	656.6408	732.2741	811.2825	831.0168	846.3458	913.8635	962.4252	990.5602	996.071	1040.6547	1178.1922	1207.0119	1226.0048	1274.4816	1313.2984	1363.9068	1398.7246	1467.8313	1485.8853	1520.0725	1580.6706	1649.4067	3160.7137	3173.2949	3213.7916	3635.9244
N1N=C2C=CN=CC2=N1	[nH]1nc2ccncc2n1	
InChI=1S/C5H4N4/c1-2-6-3-5-4(1)7-9-8-5/h1-3H,(H,7,8,9)	InChI=1S/C5H4N4/c1-2-6-3-5-4(1)7-9-8-5/h1-3H,(H,7,8,9)
