21
gdb 37976	2.45677	1.92958	1.36563	1.4945	80.69	-0.2288	0.0824	0.3112	1015.9264	0.185937	-387.064481	-387.057234	-387.05629	-387.095852	30.072	
C	-0.0780466817	 1.5360991258	 0.0680084184	-0.18814
C	 1.2938272443	 2.2244995482	 0.0289509122	-0.183775
C	 1.9698933511	 2.2837412918	-1.3463236112	-0.226352
C	 2.1795358058	 0.9510930679	-2.0467861579	 0.143374
O	 2.701356891	-0.1206328607	-1.198874601	-0.306097
C	 1.7242433866	-1.0217795504	-1.7288141866	 0.079161
C	 0.3411396854	-0.6235471779	-1.3252740261	-0.035815
C	-0.0197333714	 0.0006203425	 0.020637133	-0.223311
C	 1.0142539633	 0.0694441811	-2.500664712	-0.183891
H	-0.5805034274	 1.824076495	 0.9996159694	 0.089196
H	-0.7106952806	 1.9084950294	-0.7490089764	 0.089815
H	 1.189821725	 3.2534104419	 0.3935974284	 0.087085
H	 1.9646067714	 1.7142101282	 0.7299988107	 0.109092
H	 1.3830964783	 2.9137048313	-2.0299229145	 0.098142
H	 2.9439253044	 2.7778302576	-1.237477966	 0.099709
H	 2.8734204533	 1.0872282366	-2.8877240596	 0.079101
H	 2.0545601366	-2.0193459218	-1.9965352926	 0.096905
H	-0.391713327	-1.3376793303	-1.697630545	 0.087074
H	 0.6922995155	-0.3455577412	 0.7797961579	 0.108094
H	-0.9985623134	-0.3920416904	 0.318049424	 0.090471
H	 0.5983568896	 0.0671198852	-3.4996133351	 0.090163
132.6863	180.4649	265.6339	332.871	347.5138	380.1427	522.0625	588.5107	622.4827	705.8955	747.109	784.8385	797.6894	843.0058	868.9196	900.9305	927.1689	962.4761	974.7733	991.564	1009.8617	1043.2116	1056.7546	1060.4953	1103.1648	1108.3515	1153.3671	1171.8826	1195.9234	1235.4342	1260.1083	1268.3185	1295.6546	1320.6239	1344.4928	1366.8817	1379.861	1384.341	1400.9468	1410.2869	1436.8172	1469.5382	1476.0765	1487.7818	1491.5511	2999.3743	3013.235	3015.4133	3024.5632	3027.4506	3047.8599	3055.449	3062.5368	3072.6366	3123.1122	3170.8469	3195.8587
C1CCC2OC3C(C1)C23	C1CC[C@H]2O[C@H]3[C@@H](C1)[C@@H]23	
InChI=1S/C8H12O/c1-2-4-6-7-5(3-1)8(7)9-6/h5-8H,1-4H2	InChI=1S/C8H12O/c1-2-4-6-7-5(3-1)8(7)9-6/h5-8H,1-4H2/t5-,6+,7-,8-/m0/s1
