18
gdb 42911	2.76605	1.5032	1.20848	3.7513	75.21	-0.2354	-0.0199	0.2154	1066.0552	0.148698	-401.905145	-401.897345	-401.896401	-401.937787	29.849	
O	 0.5735709809	 0.2863326526	-0.6280339405	-0.333887
C	 0.2579067718	 1.3804603416	-0.2447648497	 0.404933
C	-1.0430369651	 2.0546874715	 0.0549445272	-0.169775
C	-0.9415770242	 2.7661067649	 1.4044769606	-0.282877
C	-0.2720178515	 3.3913096363	 0.2370521816	-0.067886
C	 1.0718221698	 2.6923790286	-0.0638227779	-0.154314
C	 2.2290898893	 2.7320173324	 0.9045925204	-0.000343
C	 2.4068417499	 1.7038842415	 1.964602937	-0.246262
N	 3.2837092699	 1.7118072904	 0.7823404566	-0.326491
H	-2.0040725695	 1.8476001577	-0.3982035483	 0.114904
H	-1.8766419392	 3.2162949103	 1.7216465307	 0.13009
H	-0.3612479701	 2.3321386332	 2.2110615494	 0.133339
H	-0.5652739839	 4.3519689827	-0.1647006653	 0.107675
H	 1.4264054553	 2.9811573565	-1.0629944734	 0.112466
H	 2.618326385	 3.7307926523	 1.0991848041	 0.093051
H	 2.8920460378	 1.9695334521	 2.8997039473	 0.116946
H	 1.6690608798	 0.9103337173	 2.0473784776	 0.1204
H	 2.9689294939	 0.9881724182	 0.1369250125	 0.248031
94.6472	116.2221	139.0333	204.291	334.4678	385.2921	461.4944	535.6557	614.7461	699.5993	757.3968	809.446	824.9396	859.6941	878.4743	907.8786	949.539	960.9645	980.78	997.712	1028.5431	1052.4514	1073.1666	1090.7502	1120.6766	1126.0693	1155.1601	1163.9853	1195.2144	1241.4712	1275.8464	1290.4693	1313.5106	1335.244	1341.1977	1412.7503	1494.9584	1509.0707	1864.1557	3021.711	3107.0444	3110.8193	3135.0405	3193.7008	3199.2616	3206.8555	3220.4326	3479.2435
O=C1C2CC2C1C1CN1	O=C1[C@H]2C[C@H]2[C@H]1[C@H]1CN1	
InChI=1S/C7H9NO/c9-7-4-1-3(4)6(7)5-2-8-5/h3-6,8H,1-2H2	InChI=1S/C7H9NO/c9-7-4-1-3(4)6(7)5-2-8-5/h3-6,8H,1-2H2/t3-,4+,5-,6+/m1/s1
