17
gdb 74029	2.85337	1.62083	1.09956	3.5971	80.4	-0.2233	-0.027	0.1963	1084.6321	0.136875	-417.983536	-417.975596	-417.974652	-418.016136	29.998	
C	-0.0637501061	 1.4584751729	-0.0246785165	-0.494191
C	-0.0498079183	-0.0178440581	 0.1755627419	 0.136079
C	-1.0319704905	-0.9258855416	 0.2184631766	 0.11959
N	-2.270699353	-1.2250225779	-0.4628454254	-0.376637
C	-1.612663889	-2.5224307669	-0.8933055009	-0.209878
C	-0.4998736168	-2.3010171158	 0.2056513963	 0.04009
O	 0.8976182729	-2.1767063511	 0.0284569971	-0.264984
C	 1.2050087592	-0.8157070687	 0.1572793913	 0.342838
N	 2.3821036828	-0.3543127087	 0.1512875198	-0.538511
H	 0.6460661736	 1.7450320099	-0.8060201525	 0.147979
H	-1.0638599154	 1.8059685266	-0.2965641461	 0.127433
H	 0.2471567069	 1.9814328486	 0.8871147702	 0.142368
H	-3.065657428	-1.3817019548	 0.1508791632	 0.242589
H	-2.2279569665	-3.4195893436	-0.7906803802	 0.11771
H	-1.237704776	-2.4220716954	-1.9137770974	 0.139238
H	-0.7026572605	-2.9278803516	 1.0815518548	 0.104259
H	 3.0665538947	-1.1015617139	 0.0313097676	 0.224029
109.8513	124.9316	141.6563	229.3952	278.3405	346.5275	415.4672	536.8084	573.6757	659.0831	699.9947	718.2437	733.9256	769.7167	856.471	863.3314	908.9673	945.4344	987.4315	1029.6743	1060.8593	1096.5379	1109.82	1118.5332	1168.9307	1205.3101	1230.7102	1288.1872	1318.6582	1341.6487	1374.0734	1412.9951	1472.4358	1484.0238	1489.0177	1730.3461	1760.9491	3036.5061	3040.6338	3064.2517	3093.6544	3125.9598	3134.9739	3488.2319	3505.0743
CC1=C2NCC2OC1=N	CC1=C(O[C@H]2[C]1NC2)[NH]	
InChI=1S/C6H8N2O/c1-3-5-4(2-8-5)9-6(3)7/h4,7-8H,2H2,1H3	InChI=1S/C6H8N2O/c1-3-5-4(2-8-5)9-6(3)7/h4,7-8H,2H2,1H3/t4-/m1/s1
