13
gdb 19228	3.61776	1.97281	1.41303	5.9564	60.81	-0.2598	-0.0345	0.2253	837.4993	0.095258	-398.607084	-398.600326	-398.599381	-398.638409	24.373	
O	-0.1366643129	 0.0660328686	 0.2599181584	-0.271458
C	-0.0084615019	 1.2523509369	 0.1099765388	 0.145804
N	 1.1788734156	 1.8967521172	-0.1837270587	-0.132632
C	 1.4908209518	 3.3321509194	-0.1573834639	-0.012692
C	 2.1906517947	 3.6767178161	 1.1149111958	-0.288561
C	 2.9664498271	 2.9955881141	-0.0149734022	-0.21764
C	 2.5661777224	 1.5323490969	-0.0918448949	 0.446728
O	 3.1182745904	 0.4796579041	-0.115662224	-0.306502
H	-0.8465933655	 1.9776925911	 0.1664813329	 0.084381
H	 1.0214636961	 4.0189780176	-0.847562719	 0.135955
H	 2.4481232766	 4.7215506349	 1.2610095505	 0.13906
H	 1.9570264089	 3.1300773547	 2.0230544218	 0.142873
H	 3.8261705769	 3.4466422385	-0.4873093456	 0.134683
92.1642	164.1753	198.3786	231.4015	445.6642	464.8192	529.6103	683.7652	742.136	790.5477	825.2034	874.438	924.9664	951.9572	1010.8434	1033.27	1047.4189	1080.5906	1100.1038	1137.6524	1187.5559	1262.8687	1296.2715	1362.8456	1428.699	1481.6014	1812.2653	1928.7164	2919.7415	3126.1641	3215.3367	3221.919	3240.2473
O=CN1C2CC2C1=O	O=CN1[C@H]2C[C@H]2C1=O	
InChI=1S/C5H5NO2/c7-2-6-4-1-3(4)5(6)8/h2-4H,1H2	InChI=1S/C5H5NO2/c7-2-6-4-1-3(4)5(6)8/h2-4H,1H2/t3-,4+/m1/s1
