23
gdb 121846	2.9529	0.77845	0.72815	2.8815	79.19	-0.2564	0.0635	0.3198	1698.9148	0.202107	-462.556869	-462.545428	-462.544484	-462.593797	41.172	
C	-1.1261366056	 0.8230818839	-0.2710586633	-0.38674
C	 0.127257284	-0.0059507194	-0.049966886	-0.022319
O	 0.4154256317	-0.7164432795	-1.2383116426	-0.249718
C	 1.5634796565	-1.5293580548	-1.145063886	-0.085955
C	 1.7803325746	-2.2535401708	-2.4791552321	 0.283824
C	 2.0246318604	-1.2717563365	-3.6245849986	-0.435013
O	 2.8976092682	-3.1443511718	-2.3178912419	-0.47996
C	 0.5995649874	-3.189818549	-2.7879865345	-0.048496
O	 0.8517407497	-3.9767276907	-3.9337995305	-0.429426
H	-0.979000673	 1.5300808437	-1.0924765637	 0.126762
H	-1.9734663495	 0.1785316973	-0.5213701805	 0.128501
H	-1.3737753533	 1.3873419366	 0.6329287794	 0.116251
H	 0.9792765685	 0.6417042804	 0.2180170017	 0.086279
H	-0.0153117756	-0.7106412654	 0.7863801886	 0.0888
H	 2.4553748606	-0.9218730594	-0.9080084597	 0.073314
H	 1.4558163944	-2.2773387818	-0.3430889838	 0.093923
H	 2.9665663664	-0.7282816408	-3.4759225321	 0.09531
H	 2.0669128009	-1.8076295527	-4.5751716545	 0.133421
H	 1.2200631208	-0.5337516495	-3.6649383305	 0.139084
H	 3.7054411905	-2.6464897645	-2.4769966282	 0.282982
H	 0.4148199508	-3.8202336052	-1.9031905717	 0.083651
H	-0.3011263288	-2.6024184938	-2.9787082623	 0.120587
H	 1.7249927305	-4.3617716663	-3.7873714872	 0.284939
54.052	73.1516	101.2845	138.1431	160.5353	232.808	250.2179	251.2087	273.8426	304.1804	319.3191	351.2505	382.1238	457.242	491.029	513.5959	617.5095	770.6226	820.7579	896.5864	909.7591	936.3977	991.4927	996.0076	1044.2747	1082.1675	1131.3307	1144.6324	1158.4907	1165.2911	1191.6121	1229.7751	1246.366	1255.6476	1296.2528	1370.01	1381.0704	1387.0709	1404.3146	1407.5821	1433.9043	1448.468	1483.9462	1484.2033	1499.0127	1499.5467	1505.0975	1511.4552	1533.9627	2942.0997	2958.7697	2974.2911	2982.1574	2993.5531	3026.2485	3045.3378	3105.6931	3112.3812	3120.2041	3122.0041	3141.4704	3778.7599	3823.0678
CCOCC(C)(O)CO	CCOC[C@@](C)(O)CO	
InChI=1S/C6H14O3/c1-3-9-5-6(2,8)4-7/h7-8H,3-5H2,1-2H3	InChI=1S/C6H14O3/c1-3-9-5-6(2,8)4-7/h7-8H,3-5H2,1-2H3/t6-/m0/s1
