18
gdb 128420	4.76709	0.90044	0.83272	4.3117	74.17	-0.2109	0.03	0.2409	1412.6285	0.15022	-431.463559	-431.454486	-431.453542	-431.497923	32.953	
C	-1.0107329759	 0.7450666456	-0.9396976707	-0.310511
N	-0.0144608285	 0.3536666834	 0.0541543087	-0.265658
C	-0.5127610407	-0.5805316899	 1.0513881219	-0.276713
C	-0.8043835707	-1.9790483609	 0.5651762136	 0.345565
N	-0.2957625793	-2.4572613892	-0.5540540797	-0.286959
N	-0.778680503	-3.741965498	-0.5612281343	-0.249525
C	-1.5378015404	-3.9526493806	 0.5359418975	 0.409653
N	-2.2255400331	-5.1243210699	 0.782969686	-0.599593
N	-1.5739309245	-2.8619752573	 1.2780489632	-0.364196
H	-0.5471475918	 1.4213625772	-1.6643332767	 0.112254
H	-1.4597054107	-0.0955727537	-1.4913406316	 0.106723
H	-1.817753347	 1.29638401	-0.4431089741	 0.114802
H	 0.775305371	-0.0719655816	-0.4205574968	 0.226396
H	 0.2171811108	-0.6472783994	 1.8696329828	 0.1172
H	-1.4274461055	-0.1756298827	 1.4994684368	 0.123186
H	-0.6166253861	-4.3363372261	-1.3558878771	 0.27185
H	-1.7250644043	-5.9734018391	 0.5593322484	 0.255281
H	-2.5864930604	-5.1429901877	 1.726975942	 0.270246
40.8643	104.9869	158.4459	207.1785	239.1577	267.2455	316.2673	341.7774	408.2808	438.5629	496.6819	646.3141	689.4737	705.6959	749.0303	775.4144	812.2445	947.9837	996.1663	1019.4289	1064.3017	1111.4431	1132.7993	1152.8271	1160.8056	1197.1781	1288.7736	1315.3382	1352.0286	1409.7877	1452.6199	1469.4213	1485.4382	1487.679	1503.5668	1526.5756	1567.8926	1603.4409	1659.8158	2982.5434	3015.9288	3057.0823	3067.2015	3098.5546	3524.4974	3558.3061	3657.0205	3674.925
CNCC1=NNC(N)=N1	CNCc1n[nH]c(N)n1	
InChI=1S/C4H9N5/c1-6-2-3-7-4(5)9-8-3/h6H,2H2,1H3,(H3,5,7,8,9)	InChI=1S/C4H9N5/c1-6-2-3-7-4(5)9-8-3/h6H,2H2,1H3,(H3,5,7,8,9)
