18
gdb 70191	3.47958	1.33241	1.12885	3.6981	72.65	-0.2308	0.0222	0.253	1106.6997	0.148117	-439.10316	-439.095053	-439.094108	-439.135557	31.641	
C	-0.0273922961	 1.4779299407	-0.0545328021	-0.448411
C	-0.0532077694	-0.0245871381	 0.0567642457	 0.435961
C	-0.8391916167	-0.6846544431	 1.1725445961	-0.378394
C	 0.6891442071	-0.7231093231	 1.1561791887	-0.054994
N	 1.3654097771	-1.9349380959	 0.7931170334	-0.312051
C	 1.1170856223	-2.6419813329	-0.3461446291	 0.37428
O	 1.6070043005	-3.7307962952	-0.5777135523	-0.36996
C	 0.1314151049	-1.9905664419	-1.315081884	-0.210947
O	 0.0149658765	-0.5817891672	-1.2280459762	-0.291781
H	 0.8685789534	 1.8038083523	-0.5912391915	 0.132431
H	-0.9045400198	 1.8314339636	-0.6054541145	 0.13203
H	-0.031274745	 1.9425306986	 0.9348110769	 0.1177
H	-1.3408252334	-0.0425817594	 1.8888443159	 0.119398
H	-1.345815135	-1.6238636264	 0.9804011557	 0.124974
H	 1.2399276929	-0.1315728297	 1.879522373	 0.108121
H	 1.9070837707	-2.4248289048	 1.4911855456	 0.251506
H	 0.467821919	-2.2157652917	-2.3285482578	 0.147042
H	-0.8445610689	-2.4824123558	-1.1770297235	 0.123094
89.8546	184.1191	207.3115	238.8913	312.6826	381.4397	389.1773	454.0262	481.9806	516.828	564.4192	631.3382	671.7898	743.9857	812.9974	851.3951	889.0617	914.7197	948.3195	1018.975	1034.615	1037.4324	1100.111	1122.872	1129.9205	1155.4056	1257.9661	1267.6048	1287.7928	1376.6623	1381.0374	1407.6011	1429.8297	1454.5395	1478.3238	1486.6664	1488.8307	1511.0355	1798.8708	2986.2705	3041.987	3111.5599	3121.4391	3123.2506	3134.3264	3163.275	3224.1706	3599.1953
CC12CC1NC(=O)CO2	C[C@]12C[C@H]1NC(=O)CO2	
InChI=1S/C6H9NO2/c1-6-2-4(6)7-5(8)3-9-6/h4H,2-3H2,1H3,(H,7,8)	InChI=1S/C6H9NO2/c1-6-2-4(6)7-5(8)3-9-6/h4H,2-3H2,1H3,(H,7,8)/t4-,6+/m1/s1
