27
gdb 60453	4.49824	0.53573	0.50128	0.16	97.39	-0.2696	0.0861	0.3557	2328.8712	0.25094	-353.559055	-353.547819	-353.546875	-353.596498	41.406	
C	 0.0180664697	 1.5257787696	-0.0143577886	-0.38737
C	 0.0388663822	-0.004711845	 0.1007985294	 0.042645
C	 0.742443362	-0.4360505689	 1.3955363399	-0.379814
C	-1.3874375321	-0.5737549026	-0.0141197033	-0.16508
C	-1.4774830882	-2.1012918677	-0.1075415983	-0.181474
C	-2.9102832294	-2.6057983362	-0.3285513148	-0.204893
C	-3.0067982606	-4.1140118356	-0.4218702849	 0.036889
C	-3.1212097099	-4.9517429242	 0.8279895788	-0.254149
C	-4.2981875573	-4.8249426594	-0.1096942337	-0.277278
H	 1.030228963	 1.942127447	 0.0261811087	 0.106816
H	-0.4411835033	 1.8499319889	-0.9543017308	 0.107418
H	-0.5561301953	 1.9721949763	 0.806664155	 0.109741
H	 0.6214404804	-0.3968172666	-0.7461276173	 0.068172
H	 1.7482406225	-0.0068461409	 1.4552325428	 0.107695
H	 0.1839415693	-0.0923033027	 2.2750664078	 0.108502
H	 0.8432472427	-1.5226981791	 1.4686465011	 0.113823
H	-1.9802325091	-0.2252546459	 0.8447298615	 0.086325
H	-1.8648947449	-0.1393843108	-0.9033720427	 0.085963
H	-0.8410845053	-2.4524863097	-0.9322428735	 0.088483
H	-1.0777804008	-2.5640382162	 0.8026210134	 0.100164
H	-3.5508422133	-2.2553973702	 0.4927680491	 0.087885
H	-3.3176671567	-2.1535073448	-1.2437393255	 0.092186
H	-2.4135479449	-4.5485995007	-1.223655102	 0.077305
H	-2.5963168004	-5.8997415607	 0.8721421342	 0.107703
H	-3.1770291047	-4.4328144145	 1.7799030022	 0.107031
H	-5.1407859875	-4.2228880058	 0.2152678381	 0.107545
H	-4.5752556681	-5.6858710935	-0.7082665766	 0.107766
41.7449	53.7113	94.1869	124.7944	131.6475	220.3322	231.7287	249.5507	267.5173	360.4657	365.7818	412.2377	444.0537	492.6054	741.9073	772.8564	790.1215	824.7568	839.5633	852.3638	919.9941	928.1653	948.6947	959.2471	967.122	1019.5691	1036.9311	1054.7832	1059.0394	1074.8727	1085.3812	1137.9025	1148.6586	1193.5168	1197.471	1206.1535	1228.2181	1239.1264	1267.2922	1307.23	1328.3312	1336.8966	1368.4468	1373.5207	1396.1067	1401.6867	1418.8388	1423.7064	1467.601	1478.6343	1482.6579	1489.6344	1495.9717	1504.7964	1505.8081	1507.4311	1512.9685	2990.0243	2996.8542	3001.3721	3011.7653	3022.3065	3027.5863	3028.9793	3033.3918	3065.8532	3085.8885	3091.7376	3097.0631	3107.6243	3125.3009	3126.8011	3131.7072	3202.9595	3218.3969
CC(C)CCCC1CC1	CC(C)CCCC1CC1	
InChI=1S/C9H18/c1-8(2)4-3-5-9-6-7-9/h8-9H,3-7H2,1-2H3	InChI=1S/C9H18/c1-8(2)4-3-5-9-6-7-9/h8-9H,3-7H2,1-2H3
