15
gdb 18630	3.2682	2.16039	1.82804	3.7155	60.95	-0.2495	-0.0049	0.2446	774.8606	0.120091	-399.805369	-399.798636	-399.797692	-399.836189	25.351	
C	-0.1365219396	 1.4997187518	 0.1813660275	-0.336395
N	 0.0721420753	 0.0666421392	-0.0098768139	-0.087273
C	 0.5164221865	-0.4858077096	-1.2693232582	-0.052946
C	 1.1958031275	 0.4397298697	-2.2645181227	-0.116645
O	 2.3118592213	 1.0314363585	-1.579310095	-0.225161
C	 2.55513034	 0.4049064867	-0.3848820144	 0.439008
O	 3.540250433	 0.6189047404	 0.2582581152	-0.335163
C	 1.4116135213	-0.5217705687	-0.0714499914	-0.185084
H	 0.5652795497	 2.1534831511	-0.3527144022	 0.13343
H	-1.1536418764	 1.7391287738	-0.1429162418	 0.130634
H	-0.0626274894	 1.7155183164	 1.2505171624	 0.141445
H	-0.0186575099	-1.3534815892	-1.642992024	 0.112827
H	 1.5683162954	-0.1202698828	-3.1289231884	 0.130057
H	 0.5510525928	 1.248498735	-2.6225542812	 0.129171
H	 1.6107530628	-1.3800730023	 0.5596053581	 0.122095
133.8326	192.2231	230.2163	261.1591	390.8638	468.9248	485.3421	652.3851	701.4029	762.4653	793.0234	847.4481	866.8361	945.3886	984.3089	1021.9652	1075.5005	1091.0654	1114.2543	1167.6736	1175.1982	1182.1236	1236.0507	1281.2336	1313.3729	1371.9719	1406.4721	1459.4463	1496.6206	1503.269	1517.0848	1881.1308	3015.9098	3046.322	3088.931	3089.624	3118.0582	3158.533	3186.256
CN1C2COC(=O)C12	CN1[C@H]2COC(=O)[C@@H]12	
InChI=1S/C5H7NO2/c1-6-3-2-8-5(7)4(3)6/h3-4H,2H2,1H3	InChI=1S/C5H7NO2/c1-6-3-2-8-5(7)4(3)6/h3-4H,2H2,1H3/t3-,4-,6?/m0/s1
