22
gdb 95079	2.31124	1.84493	1.26758	0.1354	80.61	-0.2083	0.0676	0.2759	1075.2218	0.196072	-404.327355	-404.319077	-404.318133	-404.35947	34.005	
C	 0.0839777022	 1.5783572255	 0.0003350856	-0.407563
C	 0.0177258872	 0.0488122111	 0.0706607462	 0.016642
C	 0.5821836639	-0.5888557548	-1.2289717157	-0.229589
C	 1.219299916	-1.9860567193	-1.0054194841	-0.172572
N	 1.7373893902	-2.1860759256	 0.3638026276	-0.105687
C	 2.2391575906	-0.8713549409	 0.9003415623	-0.247364
C	 0.7719517876	-0.5243084526	 1.286978665	 0.390899
O	 0.4737900229	 0.2495292158	 2.4186470209	-0.492552
C	 0.5809877242	-2.0576619954	 1.3129416344	-0.233204
H	 1.1226029472	 1.9239893597	-0.0615682802	 0.109642
H	-0.4400227901	 1.9412923313	-0.890176787	 0.105516
H	-0.3691666301	 2.0351403992	 0.8817538	 0.132438
H	-1.0345159729	-0.2403155462	 0.194210166	 0.074017
H	-0.1955803986	-0.6381821114	-1.9978924523	 0.09779
H	 1.3480781014	 0.0863958151	-1.6269209751	 0.102438
H	 0.4962000136	-2.7872764049	-1.192425716	 0.10355
H	 2.0422586386	-2.1342275865	-1.7135493666	 0.100459
H	 2.8693523932	-1.0501892994	 1.7794253262	 0.091545
H	 2.7843004145	-0.2392482114	 0.1943507671	 0.103192
H	 0.9118438595	-0.1497553043	 3.1777179842	 0.27648
H	-0.367414167	-2.4786842846	 0.963562593	 0.097018
H	 0.8408360858	-2.5029058804	 2.2818898383	 0.086905
116.703	211.2465	244.5352	288.764	305.0334	356.9853	377.9595	420.0145	432.7033	470.1176	518.2696	583.9665	677.3512	754.0221	796.3006	833.8721	892.1412	915.5737	938.125	968.2365	984.1444	1004.1754	1018.1161	1032.0524	1080.0206	1091.5834	1114.8947	1170.7492	1176.1394	1203.202	1234.5535	1248.8139	1257.2955	1285.0183	1305.0821	1331.3232	1356.483	1365.0867	1371.7635	1398.8182	1414.6003	1483.714	1491.9662	1498.4822	1501.0943	1503.9466	1524.9403	3009.0901	3013.8057	3029.709	3031.0605	3032.744	3040.8712	3065.0217	3076.9959	3084.6994	3092.4555	3098.294	3134.9268	3806.0078
CC1CCN2CC1(O)C2	C[C@H]1CCN2C[C@]1(O)C2	
InChI=1S/C7H13NO/c1-6-2-3-8-4-7(6,9)5-8/h6,9H,2-5H2,1H3	InChI=1S/C7H13NO/c1-6-2-3-8-4-7(6,9)5-8/h6,9H,2-5H2,1H3/t6-/m0/s1
