19
gdb 113996	4.10719	0.64503	0.60341	1.5332	78.45	-0.2628	0.0515	0.3144	1830.5004	0.156578	-422.964808	-422.954762	-422.953818	-423.001123	35.748	
O	-0.1075037327	 1.2495257027	-0.8516669124	-0.417181
C	 0.015237954	 0.230501545	 0.1266413438	-0.086372
C	-1.2988472936	-0.485017322	 0.3187315327	 0.027598
O	-1.6870186134	-1.3661260203	-0.750867371	-0.273315
C	-1.4631745951	-1.9298986814	 0.5490369266	 0.055833
C	-0.3476509455	-2.9380500703	 0.6841124977	-0.225862
C	-0.7280517817	-4.2750792389	 0.0089808756	-0.345288
C	 0.312054368	-5.2869457983	 0.1373790891	 0.289212
C	 1.1878229298	-6.1010765912	 0.2592070916	-0.434038
H	-0.4102998908	 0.8224562396	-1.6611329578	 0.293447
H	 0.8098795243	-0.4806845514	-0.1345706287	 0.095955
H	 0.3040219723	 0.731745781	 1.0570695724	 0.114936
H	-2.1062671654	 0.1695756948	 0.6526450129	 0.099259
H	-2.3894849589	-2.2305603439	 1.0462412937	 0.091976
H	 0.575345543	-2.5644964526	 0.2360965642	 0.120827
H	-0.146724979	-3.1112071569	 1.7476770091	 0.117765
H	-1.6634750613	-4.6518777063	 0.4433685698	 0.130501
H	-0.9373052559	-4.0858748205	-1.0507544818	 0.149218
H	 1.9526190918	-6.830866939	 0.3578214726	 0.19553
47.5532	65.3934	84.5947	101.7682	181.5747	219.5159	283.2983	346.9648	398.3438	423.4947	489.0061	516.9016	574.7049	619.877	641.9105	751.7627	798.1801	845.8783	915.9915	961.223	995.5239	1024.048	1063.1573	1069.3634	1090.7201	1148.3727	1161.6246	1214.5075	1232.6315	1277.7178	1304.713	1313.0821	1354.5492	1373.9554	1401.752	1433.287	1469.3642	1482.9311	1493.8707	1496.7905	2240.4114	3017.2628	3021.5623	3048.3947	3061.7841	3068.4521	3074.2451	3099.7222	3119.1834	3507.2295	3801.7664
OCC1OC1CCC#C	OC[C@H]1O[C@H]1CCC#C	
InChI=1S/C7H10O2/c1-2-3-4-6-7(5-8)9-6/h1,6-8H,3-5H2	InChI=1S/C7H10O2/c1-2-3-4-6-7(5-8)9-6/h1,6-8H,3-5H2/t6-,7+/m0/s1
