18
gdb 60295	5.72879	0.61527	0.57377	5.0129	73.18	-0.2531	-0.0223	0.2308	1877.619	0.144213	-476.238136	-476.227849	-476.226905	-476.274443	35.296	
C	-0.0940182673	 1.2753769053	-0.3664505701	-0.401698
C	-0.1906789972	-0.1593047936	 0.1535763536	 0.102099
O	 0.8070162153	-0.4188011644	 1.1418006851	-0.422222
C	-1.6066390987	-0.4753357577	 0.6583824872	-0.13832
N	-1.9356826074	-1.8378769199	 1.0454164811	-0.2565
C	-1.0451697849	-2.7050155188	 1.2272918822	 0.130716
O	-1.3433730929	-3.9996294409	 1.5813779212	-0.195989
C	-2.6023137732	-4.4891043846	 1.3384385826	 0.181798
O	-2.9377380138	-5.5506517916	 1.7616111905	-0.255945
H	 0.9284100492	 1.4855813019	-0.6897452108	 0.132342
H	-0.7680611391	 1.4403577889	-1.2127034669	 0.123602
H	-0.359001699	 1.9949996784	 0.4182592147	 0.112471
H	 0.0515162674	-0.8524868666	-0.6618116203	 0.098444
H	 0.6431181329	 0.1660415984	 1.8904439798	 0.282599
H	-1.8355193506	 0.1739287697	 1.5175548496	 0.109599
H	-2.3232343746	-0.1841389164	-0.1200318263	 0.119121
H	 0.034951789	-2.5765798296	 1.182384868	 0.153667
H	-3.2042508253	-3.8113839686	 0.7197663889	 0.124216
40.5785	87.3359	98.4927	140.0913	176.2358	210.5543	227.2529	288.0432	294.789	338.8284	388.4068	453.4067	496.2413	574.9127	775.7046	838.1578	904.7127	932.5889	1007.1388	1017.4964	1044.3743	1069.6415	1088.3836	1105.6594	1155.3146	1191.8094	1237.1931	1321.735	1342.0057	1390.2415	1395.2406	1402.6737	1414.2008	1423.8734	1466.9017	1492.0672	1495.6693	1746.0837	1871.2432	2996.4061	3027.037	3037.8986	3047.4673	3071.8203	3098.8542	3125.5671	3155.595	3796.3967
CC(O)CN=COC=O	C[C@@H](O)CN=COC=O	
InChI=1S/C5H9NO3/c1-5(8)2-6-3-9-4-7/h3-5,8H,2H2,1H3	InChI=1S/C5H9NO3/c1-5(8)2-6-3-9-4-7/h3-5,8H,2H2,1H3/t5-/m1/s1
