21
gdb 74008	2.55571	1.53621	1.16819	1.7718	85.93	-0.224	0.0124	0.2365	1153.6385	0.182029	-387.074768	-387.065958	-387.065013	-387.10773	34.184	
C	-0.0340556217	 1.5231361154	 0.1707012041	-0.493291
C	-0.015204667	 0.0509539209	-0.0830694501	 0.184399
C	-1.0307229	-0.7843335658	-0.2881429867	 0.051737
C	-2.4041930834	-1.1552670182	 0.2114759024	-0.167137
O	-1.8670740332	-2.456915034	 0.5969267609	-0.346543
C	-0.6573823855	-2.233784623	-0.2331787167	 0.433181
C	-0.7410376415	-3.0905708455	-1.4876778398	-0.443533
C	 0.737745707	-2.1987921665	 0.4236145164	-0.286482
C	 1.2671747539	-0.7892672506	 0.0041314914	-0.295103
H	 0.5101354407	 2.0697108457	-0.6106196245	 0.129945
H	-1.0546340068	 1.914738831	 0.2001090662	 0.123455
H	 0.4592623559	 1.7677109883	 1.1201829658	 0.125346
H	-2.7922634905	-0.5864227175	 1.0636171196	 0.11217
H	-3.1948627358	-1.2629737195	-0.543053019	 0.102676
H	-1.6750221437	-2.9161447295	-2.0291707055	 0.116156
H	 0.0951404299	-2.8770134303	-2.1622553609	 0.114957
H	-0.6973208186	-4.1506157861	-1.2156884299	 0.124657
H	 0.6155533186	-2.2334346724	 1.5103135031	 0.114991
H	 1.3968143138	-3.0192676083	 0.1233829977	 0.08931
H	 1.8172601435	-0.827508466	-0.9463269134	 0.105923
H	 1.9607876244	-0.3711827382	 0.7425133688	 0.103184
113.1035	160.7454	171.108	234.0855	240.9274	267.7509	318.3302	352.69	413.4894	492.3469	562.2309	574.9704	700.7791	710.3727	802.5246	861.0114	908.9936	927.6295	937.544	951.1304	958.4665	1003.5389	1015.9255	1066.5234	1090.584	1123.9931	1140.8793	1171.0767	1189.4523	1206.6776	1252.4558	1283.5321	1300.1401	1327.4706	1334.7899	1402.2816	1412.0412	1475.2437	1478.5509	1484.706	1488.5187	1489.7096	1492.9646	1513.1979	1774.3135	3007.4691	3009.848	3015.289	3031.5358	3049.8803	3059.0897	3061.2329	3063.8937	3100.1598	3103.7375	3108.1878	3112.2053
CC1=C2COC2(C)CC1	C[C]1[C]2CO[C@]2(C)CC1	
InChI=1S/C8H12O/c1-6-3-4-8(2)7(6)5-9-8/h3-5H2,1-2H3	InChI=1S/C8H12O/c1-6-3-4-8(2)7(6)5-9-8/h3-5H2,1-2H3/t8-/m1/s1
