13
gdb 20317	5.86887	1.26851	1.12114	2.9233	64.05	-0.2614	-0.0148	0.2466	1004.9908	0.09527	-361.418006	-361.410974	-361.410029	-361.450327	25.31	
C	-0.0985622859	-1.1823644827	-0.4341047082	-0.44577
C	-0.0462394148	-0.0280685783	-0.106069594	 0.304726
C	 0.026404872	 1.3815041037	 0.2740676059	-0.478049
C	 1.406612817	 1.9662882304	 0.1314361973	 0.158199
C	 2.128597809	 2.6815127292	 1.0326843472	-0.011409
O	 3.3108511087	 3.0472012729	 0.5164178462	-0.162842
N	 3.4027323768	 2.5605987399	-0.7842062835	-0.129388
C	 2.2776924777	 1.9273083513	-0.9965807128	-0.028722
H	-0.1466823202	-2.2051467286	-0.7157246721	 0.2037
H	-0.6851129348	 1.9516214875	-0.3389893856	 0.151162
H	-0.3117619376	 1.5007717786	 1.3101475342	 0.144154
H	 1.9384040241	 2.9973564508	 2.0470701595	 0.152554
H	 2.1136789279	 1.4464118152	-1.9507414843	 0.141685
33.8876	106.5327	278.6436	303.5144	330.5326	457.6523	611.3689	628.8466	646.4358	655.0458	736.2301	844.1465	898.3247	908.7538	936.9608	941.225	956.6765	1026.2496	1151.7738	1196.3011	1220.5442	1278.6365	1339.968	1400.7816	1465.8554	1481.9172	1653.5962	2243.8305	3013.8694	3055.6974	3246.4788	3262.7223	3505.8523
C#CCC1=CON=C1	C#CCc1conc1	
InChI=1S/C6H5NO/c1-2-3-6-4-7-8-5-6/h1,4-5H,3H2	InChI=1S/C6H5NO/c1-2-3-6-4-7-8-5-6/h1,4-5H,3H2
