20
gdb 90892	2.43391	1.90884	1.40166	2.5411	76.6	-0.2188	0.0587	0.2774	996.0993	0.171799	-403.112323	-403.104386	-403.103442	-403.144118	32.228	
C	-0.0904291534	 1.5882381184	-0.0060211061	-0.434439
C	 0.0376608863	 0.0660465234	-0.0042562676	-0.001409
C	 0.8537122396	-0.5325847087	-1.1807992418	-0.269925
C	 1.5138579696	-1.7720783902	-0.5837359633	-0.020107
C	 1.0972816502	-1.9842532838	 0.8158633745	-0.099711
N	 2.5235430813	-1.6161800485	 0.5103297712	-0.150983
C	 2.2887160845	-0.2786177849	 1.1554643028	-0.220856
C	 0.7551477277	-0.5313564874	 1.2232657837	 0.38283
O	 0.1011177388	-0.3823885337	 2.4509741737	-0.50206
H	 0.8893436603	 2.0775948857	 0.0290282711	 0.120759
H	-0.6021103282	 1.938877795	-0.9077737855	 0.123947
H	-0.676924583	 1.9428924547	 0.8501757248	 0.106274
H	-0.9684420737	-0.3739546582	-0.0154349806	 0.079356
H	 0.2131506912	-0.8037639616	-2.0251988312	 0.105923
H	 1.5983082524	 0.175886664	-1.5635599784	 0.104951
H	 1.751115868	-2.6138403555	-1.2253633287	 0.09647
H	 0.805273977	-2.9035044659	 1.3088957645	 0.096185
H	 2.7392778921	-0.2956096211	 2.1505080873	 0.113425
H	 2.6681220795	 0.5836725292	 0.5951998308	 0.089431
H	-0.0310383103	 0.557604619	 2.6145638486	 0.279939
146.8019	204.8324	228.6719	242.7839	311.67	356.2225	372.1642	454.1566	510.9711	532.59	632.4027	698.8221	745.9004	782.5867	810.1613	873.0955	913.4858	930.1277	958.8122	967.3903	999.923	1021.7321	1040.4052	1063.5594	1117.9612	1124.746	1151.4018	1176.5986	1199.3705	1226.8043	1237.6465	1271.0037	1280.4515	1304.0776	1332.1309	1366.5862	1377.3616	1395.6101	1410.3286	1485.9744	1493.7589	1500.484	1509.0204	3016.5356	3022.6888	3030.9087	3039.4222	3081.3923	3085.8452	3100.4361	3107.5898	3169.0798	3189.9064	3806.7357
CC1CC2C3N2CC13O	C[C@H]1C[C@@H]2[C@H]3N2C[C@@]13O	
InChI=1S/C7H11NO/c1-4-2-5-6-7(4,9)3-8(5)6/h4-6,9H,2-3H2,1H3	InChI=1S/C7H11NO/c1-4-2-5-6-7(4,9)3-8(5)6/h4-6,9H,2-3H2,1H3/t4-,5+,6+,7+,8?/m0/s1
