21
gdb 122627	3.23638	0.87468	0.74167	1.2617	75.71	-0.251	0.068	0.319	1557.5582	0.180776	-461.329498	-461.319447	-461.318503	-461.366079	35.509	
C	-0.1752210073	 1.6039656727	 0.0437234412	-0.393164
C	 0.0808265197	 0.1114705317	-0.0049285119	 0.119953
O	 1.3238253515	-0.2230191127	-0.673523755	-0.29106
C	 1.8366600241	-0.9057423878	 0.4860704327	-0.097877
C	 0.5529782776	-0.5959233934	 1.2892540697	 0.069997
O	 0.6867025077	 0.2721044181	 2.3836417412	-0.265064
C	 1.1626955173	-0.3498533949	 3.56843761	-0.080438
C	 1.0713666124	 0.6900169219	 4.6739960751	-0.060219
O	-0.2579898681	 1.1305203591	 4.8601278966	-0.419817
H	 0.6219133016	 2.1212046507	 0.581065506	 0.12993
H	-0.2272137779	 1.995817219	-0.9765762163	 0.126571
H	-1.1273397626	 1.8157756064	 0.5412796973	 0.115152
H	-0.7595074144	-0.4047697767	-0.4886535231	 0.07689
H	 2.0387345396	-1.965509093	 0.2872379197	 0.100151
H	 2.7423410453	-0.4294493025	 0.8827442638	 0.104033
H	-0.034796538	-1.478987565	 1.5738408658	 0.076836
H	 0.5332065766	-1.2194410466	 3.8145146545	 0.099574
H	 2.2004576928	-0.6967970849	 3.4440771558	 0.093485
H	 1.4043527679	 0.2510870209	 5.6201271199	 0.110562
H	 1.7458125749	 1.5274521303	 4.4339568099	 0.095394
H	-0.5796897208	 1.3704000769	 3.983244487	 0.289111
36.4506	64.576	70.0409	129.6205	163.9426	216.4984	270.6944	305.5762	392.679	418.1084	443.7283	491.5837	560.7956	758.6951	832.3231	875.189	884.5609	911.752	923.1005	1007.7835	1029.3046	1056.9812	1080.1369	1096.2508	1101.4893	1136.3724	1159.2788	1166.0679	1206.2544	1237.5495	1259.0772	1273.8096	1293.4552	1347.6706	1376.5117	1381.6694	1387.5948	1405.348	1426.2892	1442.5447	1486.0573	1490.1089	1498.8145	1507.4127	1512.9002	2974.1866	2980.4671	3001.7478	3008.3594	3017.5037	3021.0981	3044.1334	3058.8865	3081.1068	3111.1463	3138.6242	3797.714
CC1OCC1OCCO	C[C@H]1OC[C@H]1OCCO	
InChI=1S/C6H12O3/c1-5-6(4-9-5)8-3-2-7/h5-7H,2-4H2,1H3	InChI=1S/C6H12O3/c1-5-6(4-9-5)8-3-2-7/h5-7H,2-4H2,1H3/t5-,6-/m1/s1
