25
gdb 112835	2.75012	1.13538	0.91432	0.2407	92.1	-0.2588	0.084	0.3428	1422.9862	0.230295	-352.37169	-352.362302	-352.361358	-352.405555	37.005	
C	-0.0622811717	 1.561220121	-0.0560516737	-0.382821
C	 0.0241530882	 0.031562556	-0.0374893184	-0.180235
C	 0.7070197112	-0.5376773773	 1.2128200666	 0.034743
C	-0.0273812938	-0.2443010786	 2.5447221504	-0.246051
C	 0.4041364916	-1.3608068634	 3.5260456636	 0.028214
C	-0.5962769747	-1.6193871374	 4.6545374013	-0.39781
C	 0.6839220941	-2.5596299748	 2.6227892137	-0.039318
C	-0.337127979	-2.8961182018	 1.5618351992	-0.293503
C	 0.8697494855	-2.0565379298	 1.2116491694	-0.049615
H	 0.9333000912	 2.0144435329	 0.0142255247	 0.110757
H	-0.525482224	 1.9210134885	-0.9802270069	 0.108976
H	-0.6571435139	 1.9409099423	 0.7811366981	 0.116551
H	-0.9835194082	-0.3968276469	-0.1194538344	 0.091874
H	 0.5715068115	-0.3099988493	-0.9256875799	 0.089151
H	 1.7166203729	-0.1039896065	 1.2738696381	 0.064118
H	 0.1924071135	 0.7522194113	 2.937188502	 0.095096
H	-1.1133315825	-0.2823853386	 2.3896982492	 0.093802
H	 1.3632049196	-1.0678810038	 3.9765354878	 0.068169
H	-1.5617636842	-1.9473457934	 4.2534181638	 0.112341
H	-0.2369771905	-2.3993816177	 5.3343822915	 0.108734
H	-0.7692702469	-0.7149672432	 5.2481698614	 0.107935
H	 1.2937593566	-3.366039652	 3.017421877	 0.07377
H	-0.3484727932	-3.9172523999	 1.1964301323	 0.105083
H	-1.319975124	-2.4368771261	 1.5954241756	 0.106123
H	 1.6167685907	-2.4888843816	 0.5536392677	 0.073915
92.5898	117.3755	157.8488	197.3794	229.4224	251.0592	297.7411	360.8204	403.64	455.9089	501.7743	583.6041	609.7793	764.4127	777.8191	819.3479	839.2099	880.862	909.1512	932.3433	949.5388	964.0291	991.3967	1019.5322	1037.9938	1064.9665	1068.065	1077.2137	1087.3101	1110.1757	1141.264	1147.292	1193.0308	1205.7636	1215.5366	1270.922	1303.113	1312.0685	1334.6926	1339.0599	1352.9073	1376.9392	1387.4184	1396.6167	1409.9814	1411.7612	1484.7744	1486.3899	1495.4391	1498.345	1501.0086	1507.4692	1511.4162	2986.1793	2998.1696	3014.5588	3024.8334	3028.9703	3030.0845	3047.0623	3086.6557	3092.7549	3095.3905	3095.5327	3102.6234	3129.2997	3150.5019	3160.3187	3209.1816
CCC1CC(C)C2CC12	CC[C@H]1C[C@@H](C)[C@H]2C[C@@H]12	
InChI=1S/C9H16/c1-3-7-4-6(2)8-5-9(7)8/h6-9H,3-5H2,1-2H3	InChI=1S/C9H16/c1-3-7-4-6(2)8-5-9(7)8/h6-9H,3-5H2,1-2H3/t6-,7+,8-,9+/m1/s1
