16
gdb 36052	2.19629	1.41891	1.03755	3.2506	74.18	-0.2707	0.0145	0.2852	1161.1786	0.12276	-400.700814	-400.691992	-400.691048	-400.734825	31.768	
C	 0.0862060456	-1.3228624872	-0.1490482846	-0.417649
C	 0.0499240289	-0.1241811854	-0.0711942825	 0.270261
C	 0.0170730855	 1.3213045707	 0.0191097553	 0.068416
C	-0.9153510862	 1.9530291105	-1.0422230856	-0.405419
C	-2.3162498615	 1.5769794374	-0.8647353475	 0.273982
N	-3.4237652439	 1.2886379217	-0.7072042023	-0.301595
C	-0.1753586264	 1.9605075702	 1.4271529299	-0.110101
O	 0.9484109681	 2.8368367185	 1.2169928665	-0.268513
C	 1.3815283958	 2.0713218125	 0.0806523966	-0.122308
H	 0.1084404386	-2.3830939168	-0.2129031847	 0.206774
H	-0.8354600697	 3.0438506572	-0.9767630543	 0.165243
H	-0.5899268027	 1.6565035587	-2.0447710203	 0.161487
H	-1.1100308779	 2.5055226554	 1.5935320157	 0.128676
H	-0.0044963736	 1.2550904172	 2.2482179766	 0.119666
H	 2.2238914599	 1.4108129777	 0.3176935084	 0.117236
H	 1.6354276997	 2.701461032	-0.779100957	 0.113842
68.8378	106.247	121.4547	171.8168	195.2887	325.052	351.2905	399.1655	470.9199	520.0128	529.851	648.8291	650.7577	673.0197	828.6093	898.5685	900.758	961.133	981.3511	997.2674	1032.9149	1062.3427	1149.3431	1154.6619	1170.0638	1229.4362	1298.2604	1304.2601	1335.2799	1373.7878	1462.6403	1509.1671	1533.3608	2239.8687	2365.4706	3021.2243	3034.6974	3048.1404	3076.5504	3089.7513	3094.3896	3499.5084
C#CC1(CC#N)COC1	C#CC1(CC#N)COC1	
InChI=1S/C7H7NO/c1-2-7(3-4-8)5-9-6-7/h1H,3,5-6H2	InChI=1S/C7H7NO/c1-2-7(3-4-8)5-9-6-7/h1H,3,5-6H2
