22
gdb 40234	2.68734	1.57998	1.20673	1.4024	85.68	-0.2116	0.0841	0.2957	1117.3056	0.19691	-367.182883	-367.175037	-367.174093	-367.214939	32.297	
C	-0.0122995457	 1.5283209126	-0.0149691261	-0.261225
C	 1.2727073108	 0.7793583002	-0.0336734443	-0.066367
N	-0.0145639319	 0.0656521169	-0.0082667018	-0.103638
C	-0.4839133841	-0.6160174483	-1.2310267179	-0.143357
C	 0.604916085	-0.8929394602	-2.2752721881	-0.199522
C	 1.4468021596	 0.3613764007	-2.5335624074	-0.297518
C	 2.1591020259	 0.7531122141	-1.2500760208	 0.392822
C	 3.3162196812	 1.7191245035	-1.3013435729	-0.324686
C	 3.5742455619	 0.2528507112	-1.052438335	-0.310776
H	-0.36250867	 2.0075850545	 0.8967606898	 0.106608
H	-0.3141729542	 2.0358129389	-0.9303192427	 0.10254
H	 1.8194409063	 0.7014950035	 0.9063754822	 0.080658
H	-0.9450271684	-1.5615911697	-0.9229287518	 0.102684
H	-1.2808282797	-0.0151418434	-1.6886452635	 0.09616
H	 1.2638442727	-1.6949984792	-1.9203538943	 0.104528
H	 0.1325249444	-1.2517596102	-3.1962783008	 0.092872
H	 2.183264141	 0.1845821354	-3.3246693518	 0.093217
H	 0.8015872299	 1.1775576715	-2.8871920317	 0.094343
H	 3.5902480478	 2.1316209177	-2.267268441	 0.108353
H	 3.4449883453	 2.4081396922	-0.4727923054	 0.11162
H	 3.8767682194	-0.0479268422	-0.0544739803	 0.112153
H	 4.0266035326	-0.3311660397	-1.8474350647	 0.108529
88.9277	194.2339	230.9972	280.0807	346.9086	383.1386	425.2592	453.6605	501.1174	607.4524	687.6119	735.9336	778.4002	841.4845	860.0154	881.5555	910.339	924.1106	940.6757	960.2869	985.1578	1022.2785	1048.2192	1055.8433	1067.5084	1079.3804	1094.669	1114.8815	1131.9952	1165.8974	1189.4296	1197.7657	1232.6092	1275.9447	1296.5522	1318.6126	1334.7806	1371.3552	1380.4575	1387.8834	1430.9878	1467.6796	1485.7066	1494.3767	1500.343	1505.9072	1519.8489	3010.7725	3012.2506	3027.718	3049.5482	3065.5312	3075.8651	3083.8892	3091.9369	3122.2709	3126.6182	3163.8424	3200.101	3214.9878
C1C2N1CCCC21CC1	C1[C@H]2N1CCCC12CC1	
InChI=1S/C8H13N/c1-2-8(3-4-8)7-6-9(7)5-1/h7H,1-6H2	InChI=1S/C8H13N/c1-2-8(3-4-8)7-6-9(7)5-1/h7H,1-6H2/t7-,9?/m1/s1
