20
gdb 120095	3.37347	1.18352	1.04862	2.2264	79.13	-0.1984	0.0667	0.2651	1234.2806	0.169922	-403.037175	-403.028567	-403.027623	-403.071259	32.634	
C	 0.1048880602	 1.4599556871	-0.0766799403	-0.386173
C	-0.1056058681	 0.0406381502	-0.5744992232	-0.023718
O	 1.166876454	-0.5646932428	-0.723948407	-0.23051
C	 1.1177370443	-1.8794302776	-1.1475470363	 0.12213
C	 0.5578986631	-2.4649272172	-2.4286422586	-0.134578
C	 0.8995732155	-1.7207477042	-3.7456254466	-0.05587
N	 1.583974853	-0.4411861629	-3.4358377958	-0.31957
C	 2.3349051105	-1.7286427304	-3.4212028184	-0.052113
C	 2.0770693727	-2.5062338431	-2.0996447841	-0.125377
H	 0.6242710926	 1.4594883654	 0.886134692	 0.120281
H	 0.7099817736	 2.0221479491	-0.7930415398	 0.133192
H	-0.8563124589	 1.9684215602	 0.0471223225	 0.107068
H	-0.7222848161	-0.5346641511	 0.137052005	 0.075562
H	-0.6286549334	 0.041800447	-1.5414776483	 0.095945
H	 0.8883994414	-2.5708903345	-0.3270593465	 0.083846
H	-0.1503228935	-3.2845473635	-2.4030269527	 0.088215
H	 0.3912465263	-1.8824668609	-4.6872784549	 0.092025
H	 1.7970763466	-0.0081366375	-4.3361264342	 0.225101
H	 3.1956238936	-1.8817202717	-4.0584267935	 0.0944
H	 2.6803222126	-3.3647774316	-1.8293923592	 0.090145
51.3542	64.2673	129.5623	229.4763	272.4723	280.4225	352.0632	453.8738	577.6976	665.5385	696.8581	712.3937	744.7014	816.8296	831.5291	848.8817	878.1194	892.0323	904.6263	984.4919	994.4554	1000.0879	1006.7474	1047.2511	1080.336	1088.8179	1129.4429	1143.0214	1159.6911	1184.4745	1231.8279	1258.2274	1274.755	1295.9801	1320.261	1353.6424	1375.1136	1394.4312	1412.5928	1464.6571	1482.0524	1500.0375	1523.0249	2958.2472	3014.6137	3021.2987	3043.278	3115.1247	3124.0883	3173.8609	3182.9697	3192.5495	3206.4178	3446.7521
CCOC1C2C3NC3C12	CCO[C@H]1[C@H]2[C@H]3N[C@H]3[C@@H]12	
InChI=1S/C7H11NO/c1-2-9-7-3-4(7)6-5(3)8-6/h3-8H,2H2,1H3	InChI=1S/C7H11NO/c1-2-9-7-3-4(7)6-5(3)8-6/h3-8H,2H2,1H3/t3-,4+,5-,6+,7+
