18
gdb 78982	2.70275	1.98393	1.50439	0.9159	73.9	-0.2238	0.0628	0.2865	921.5384	0.148215	-401.85717	-401.84995	-401.849006	-401.888281	29.538	
C	 0.0618467742	 1.5991599522	-0.0842188619	-0.541283
C	 0.0263740693	 0.102661721	-0.0666334434	 0.37199
C	 0.542012964	-0.9175541831	-1.1249117865	-0.129168
C	 0.833082124	-1.8558510164	-0.0175164094	-0.057427
C	 0.6040673953	-0.8224183678	 1.0939354787	-0.133839
C	-0.8267317523	-1.0926268811	 1.6014550496	 0.114823
O	-1.2217659658	-0.0580518342	 2.4822031792	-0.43894
C	-1.2176596498	-0.8295160518	 0.130319768	-0.093418
N	-0.5175891817	-1.8848123698	-0.7021940904	-0.159166
H	 1.0911849694	 1.9716096913	-0.1463678319	 0.118386
H	-0.4885391087	 2.000315799	-0.9436418738	 0.116989
H	-0.38913769	 1.9959050613	 0.8298287718	 0.139101
H	 0.9091394751	-0.8494856151	-2.1424179538	 0.092848
H	 1.4028909423	-2.7762095312	-0.0029451	 0.09642
H	 1.4171192699	-0.53672107	 1.7584542308	 0.078017
H	-1.0426794838	-2.089582865	 2.0099779955	 0.071163
H	-2.1781400531	-0.1025174186	 2.5836475085	 0.286638
H	-2.2388217483	-0.6203988208	-0.1920312711	 0.066866
172.4838	231.2457	250.7329	294.0566	318.1626	343.547	494.9026	529.7384	614.6199	741.6055	758.6732	792.1877	814.1835	855.9673	865.2719	908.2616	930.4714	954.6259	961.0967	983.7304	1008.4507	1037.8116	1083.2758	1102.4264	1135.3256	1151.0099	1169.5744	1180.6705	1206.1452	1210.3402	1244.0441	1258.8785	1313.486	1324.6237	1363.0438	1407.3716	1415.6585	1490.1914	1492.9513	3007.403	3022.1128	3079.5498	3103.795	3112.118	3141.3118	3174.9255	3195.2727	3811.5338
CC12C3C4C1C(O)C2N34	C[C@@]12[C@H]3[C@H]4[C@@H]1[C@@H](O)[C@@H]2N34	
InChI=1S/C7H9NO/c1-7-2-3-5(7)8(3)6(7)4(2)9/h2-6,9H,1H3	InChI=1S/C7H9NO/c1-7-2-3-5(7)8(3)6(7)4(2)9/h2-6,9H,1H3/t2-,3-,4-,5-,6+,7+,8?/m1/s1
