13
gdb 5136	5.84091	1.31609	1.19677	1.5673	64.52	-0.2454	-0.0018	0.2436	972.6386	0.095829	-361.456505	-361.449534	-361.44859	-361.488438	25.086	
C	 0.0126969155	-1.253997569	 0.2728980418	-0.445878
C	 0.0179328764	-0.0632314512	 0.1189629701	 0.310758
C	 0.0255561125	 1.3880721069	-0.064169211	-0.463733
C	 1.3962139227	 1.9787501385	-0.1387472168	 0.348833
C	 2.0950970704	 2.6463714169	-1.0880480609	-0.191371
N	 3.3504903412	 2.9814575572	-0.5918122312	-0.254823
C	 3.3456400307	 2.5067268255	 0.6089351834	 0.075339
O	 2.198645672	 1.8840410194	 0.9678139769	-0.169758
H	 0.0103109249	-2.3072283754	 0.4081681781	 0.203009
H	-0.4998955047	 1.6496740079	-0.9897000342	 0.15376
H	-0.5370183959	 1.8603008363	 0.7527247186	 0.153944
H	 1.7905405998	 2.9083855898	-2.0889082238	 0.127543
H	 4.1280009845	 2.5440288473	 1.350471839	 0.152377
52.5781	101.9939	268.1575	307.278	329.2005	453.182	627.1005	639.958	656.3589	668.8684	764.3283	839.6693	860.6881	915.1345	940.9557	951.0647	995.6451	1122.5132	1136.8816	1196.4701	1240.594	1272.3145	1339.3567	1361.7592	1452.503	1550.6708	1638.164	2245.7866	3017.5086	3067.9267	3264.8356	3278.8287	3505.8911
C#CCC1=CN=CO1	C#CCc1cnco1	
InChI=1S/C6H5NO/c1-2-3-6-4-7-5-8-6/h1,4-5H,3H2	InChI=1S/C6H5NO/c1-2-3-6-4-7-5-8-6/h1,4-5H,3H2
