16
gdb 29471	3.23128	1.58401	1.06997	1.8739	78.04	-0.1807	0.0083	0.189	1064.3719	0.126344	-400.780833	-400.773335	-400.77239	-400.812442	29.539	
O	 0.0867927683	 1.3690525689	-0.0867401746	-0.44888
C	 0.0581687645	 0.0047107112	-0.0021777319	 0.142862
C	 0.0190444596	-0.8290813712	-1.1017728639	-0.163497
N	-0.0020326262	-2.1445300933	-0.6451265503	-0.385391
C	 0.0241456575	-2.1349900877	 0.7108726942	 0.305071
C	 0.0616905184	-0.8252183994	 1.1536954725	 0.16898
C	 0.0887508848	-0.8535723215	 2.6153877024	-0.219242
C	 0.0682530916	-2.1347246627	 3.036012545	-0.089493
C	 0.024366586	-3.1005678972	 1.8551388765	-0.412913
H	 0.1116342797	 1.7258112174	 0.805040811	 0.296505
H	 0.0045052794	-0.595233716	-2.1525400284	 0.118491
H	-0.031329698	-2.9523319231	-1.2411916366	 0.258752
H	 0.1203202073	 0.0138717996	 3.2638690962	 0.08535
H	 0.0801862902	-2.4733954182	 4.0630627521	 0.092054
H	-0.8694903459	-3.7384234842	 1.8911261912	 0.125676
H	 0.8896627226	-3.7776172226	 1.8577782848	 0.125674
157.8556	184.0123	210.0149	268.8351	340.4815	387.7202	468.6689	516.3018	605.035	609.6353	656.1182	661.6758	678.8128	739.1775	782.5555	863.2968	920.4192	929.4569	940.2332	1023.2674	1094.7187	1129.1241	1135.1261	1155.571	1220.7055	1235.6098	1317.4279	1333.194	1372.7834	1437.5358	1480.5713	1529.0436	1542.6003	1588.6732	1639.6967	3016.0976	3041.464	3197.2172	3230.9011	3278.3086	3686.1272	3852.5536
OC1=CNC2=C1C=CC2	Oc1c[nH]c2c1C=CC2	
InChI=1S/C7H7NO/c9-7-4-8-6-3-1-2-5(6)7/h1-2,4,8-9H,3H2	InChI=1S/C7H7NO/c9-7-4-8-6-3-1-2-5(6)7/h1-2,4,8-9H,3H2
