17
gdb 25957	3.97086	1.00462	0.91566	2.5861	75.34	-0.219	-0.0136	0.2054	1284.9248	0.134906	-421.878011	-421.869356	-421.868412	-421.913056	30.991	
C	 0.5785226867	 0.1741904937	-0.7202741616	-0.475878
C	-0.2743405853	 0.2164739553	 0.5317288599	 0.387249
O	-0.1410497156	 1.0644199652	 1.3802729687	-0.290935
C	-1.3610786643	-0.8678452098	 0.6815472386	-0.409009
C	-0.9632701145	-2.2408606739	 0.2651443424	 0.339538
C	-0.4386537294	-3.3062647318	 0.9316066843	-0.266483
C	-0.2387926311	-4.3405333563	-0.0406242411	-0.166349
C	-0.6547644897	-3.8264173301	-1.2254656648	-0.022926
O	-1.1000224171	-2.5507287516	-1.0595075712	-0.175266
H	 1.2537861051	-0.6876135752	-0.6725371357	 0.154117
H	-0.0389315958	 0.0365716367	-1.6131621906	 0.14252
H	 1.1651643092	 1.0902135319	-0.7950983535	 0.139423
H	-1.6765300217	-0.8593776352	 1.7267485508	 0.140071
H	-2.2173160781	-0.5427347234	 0.0751858964	 0.140507
H	-0.2228074232	-3.3506230935	 1.9877728728	 0.114663
H	 0.1553030024	-5.3304520568	 0.1271138705	 0.114002
H	-0.7098666776	-4.2133911051	-2.2293876059	 0.134758
29.8072	55.2112	102.0004	151.3186	281.8124	308.5426	380.5083	467.6894	534.7041	614.4919	655.8251	738.6643	757.906	780.9679	811.0405	846.0814	854.5194	903.2904	950.3534	997.5942	1029.0922	1043.2797	1107.6424	1159.5248	1184.8471	1221.9068	1236.9596	1277.0984	1306.2518	1383.6108	1418.6944	1442.4374	1460.8877	1475.164	1536.8105	1634.0946	1818.8728	3029.4689	3043.5545	3106.3317	3119.4218	3156.7367	3251.794	3263.1275	3286.92
CC(=O)CC1=CC=CO1	CC(=O)Cc1ccco1	
InChI=1S/C7H8O2/c1-6(8)5-7-3-2-4-9-7/h2-4H,5H2,1H3	InChI=1S/C7H8O2/c1-6(8)5-7-3-2-4-9-7/h2-4H,5H2,1H3
