19
gdb 22150	4.32848	0.66914	0.6077	3.018	77.13	-0.2412	0.0083	0.2495	1778.0923	0.157075	-456.334792	-456.324193	-456.323249	-456.372541	36.373	
C	 0.4317216014	 1.5108052634	 0.0384548783	-0.476103
C	 0.0807800829	 0.0466329875	 0.0652968593	 0.356155
C	 0.2559545657	-0.7406126889	 1.3364407069	-0.273151
C	 1.7437313982	-0.9509143493	 1.6888037387	-0.165168
N	 1.9353938089	-1.5852305752	 2.9829554268	-0.267105
C	 1.990830543	-0.8655698706	 4.1345370078	 0.153095
O	 1.9372172278	 0.3454847327	 4.1962685455	-0.327037
N	-0.3638411798	-0.6018625032	-0.943589718	-0.167732
O	-0.474356136	 0.2211550424	-2.0772687434	-0.399014
H	 1.2353555724	 1.7038160432	-0.6799712748	 0.14619
H	-0.4291722687	 2.0966235958	-0.2991121885	 0.148948
H	 0.7416231742	 1.864578327	 1.0236652984	 0.137125
H	-0.2137982629	-0.2018391485	 2.167793278	 0.128997
H	-0.2412217015	-1.708600073	 1.2290007991	 0.109132
H	 2.2261570215	-1.5635273843	 0.9214301383	 0.118332
H	 2.2593470612	 0.011682793	 1.7286058972	 0.145232
H	 1.9123965557	-2.5902301545	 3.0465884918	 0.250245
H	 2.1055691063	-1.5141447681	 5.0257211209	 0.076412
H	-0.8350695903	-0.3854752093	-2.7321804824	 0.305447
32.7334	37.8978	67.8437	95.1264	148.294	208.2839	277.9722	296.4619	350.7595	382.0833	392.6177	423.2209	516.2565	553.2747	660.1713	728.4658	820.4141	830.7179	970.8515	979.2111	1011.3372	1015.7474	1032.888	1058.1093	1103.7635	1199.3316	1232.591	1275.2081	1309.6097	1335.728	1395.1373	1402.3952	1405.3462	1428.3711	1467.5487	1477.7697	1482.9137	1487.2494	1528.2919	1727.873	1800.5749	2937.0933	3039.1529	3043.2268	3062.3765	3096.1683	3099.5731	3121.6456	3136.7275	3639.3264	3822.2544
CC(CCNC=O)=NO	CC(=NO)CCNC=O	
InChI=1S/C5H10N2O2/c1-5(7-9)2-3-6-4-8/h4,9H,2-3H2,1H3,(H,6,8)	InChI=1S/C5H10N2O2/c1-5(7-9)2-3-6-4-8/h4,9H,2-3H2,1H3,(H,6,8)
