16
gdb 54334	2.39018	1.25136	1.00054	3.9055	65.57	-0.2524	-0.024	0.2284	1199.8721	0.121681	-475.042114	-475.032865	-475.031921	-475.077227	32.712	
N	 0.9284880188	-0.0081567711	 0.8841072851	-0.531089
C	 0.3293280908	-0.6423362251	-0.1559095564	 0.343436
O	 0.9100173115	-1.0805802925	-1.1314999118	-0.369405
C	-1.1756748541	-0.8067910131	-0.0001626843	 0.28761
C	-1.9560901969	-0.8509955862	-1.2967592181	-0.362839
C	-1.9615773232	 0.4794636065	-2.0291243951	 0.169412
O	-2.9381516734	 0.9580156035	-2.5422733115	-0.238714
C	-1.6751105493	-1.5026844443	 1.2015394864	-0.211123
O	-1.7637789727	-0.0808795356	 1.0918604914	-0.277322
H	 1.9122920772	 0.1937975381	 0.8166902699	 0.268556
H	 0.3588877036	 0.4812800843	 1.5552687856	 0.277594
H	-1.4562188563	-1.5784454798	-1.9488894457	 0.16071
H	-2.9888868245	-1.1642814441	-1.1319915041	 0.125381
H	-0.9734626773	 0.9878706081	-2.0814727134	 0.091773
H	-2.6230898492	-2.0342822693	 1.1454163662	 0.133755
H	-0.9669926049	-1.8709584695	 1.9410576559	 0.132265
55.9921	64.6328	78.0267	164.7909	248.8521	289.5723	330.9977	382.2691	428.6651	441.3537	505.4742	550.1271	632.3101	693.9494	762.0799	784.6208	849.2144	932.8945	945.3817	1033.6174	1063.9511	1096.5142	1133.8195	1165.3231	1194.05	1240.3217	1290.7681	1370.6393	1404.7409	1430.7174	1432.6864	1518.8661	1594.9701	1795.512	1838.8717	2891.8751	3045.8119	3093.9412	3124.1631	3188.2203	3592.0635	3729.1649
NC(=O)C1(CC=O)CO1	NC(=O)[C@@]1(CC=O)CO1	
InChI=1S/C5H7NO3/c6-4(8)5(1-2-7)3-9-5/h2H,1,3H2,(H2,6,8)	InChI=1S/C5H7NO3/c6-4(8)5(1-2-7)3-9-5/h2H,1,3H2,(H2,6,8)/t5-/m1/s1
