21
gdb 81433	3.27517	1.42169	1.30879	1.5592	81.46	-0.2405	0.0928	0.3332	1092.2251	0.183315	-387.045344	-387.037372	-387.036428	-387.077124	32.679	
C	 0.0209521132	 1.5895156402	 0.0181770344	-0.427168
C	-0.0524947702	 0.0683680522	-0.0057411935	 0.018499
C	 1.1210642625	-0.6383468173	-0.7327300528	 0.055547
O	 1.9468303674	-0.3572454624	 0.4595817552	-0.307798
C	 0.6803020764	-0.645361316	 1.158621662	-0.006709
C	 0.5527692388	-2.1701894371	 0.912254428	 0.358484
C	 1.2047545972	-3.0948044899	 1.9082929654	-0.480564
C	-0.4664282197	-2.6556045472	-0.0885698383	-0.363073
C	 0.8730376593	-2.1506560789	-0.5762510331	-0.08794
H	 1.0314487115	 1.9275168693	 0.255495326	 0.137485
H	-0.2664124672	 2.0056369685	-0.9537383829	 0.111323
H	-0.6677788275	 1.9980762454	 0.7659525456	 0.111127
H	-1.0679594195	-0.2506662786	-0.2451392897	 0.064076
H	 1.5562477736	-0.2706827735	-1.6626210515	 0.073485
H	 0.6584189246	-0.2879614799	 2.1895936352	 0.06911
H	 0.6270949973	-3.1594111388	 2.8383186368	 0.113803
H	 1.2954830162	-4.1091699543	 1.5064856172	 0.113459
H	 2.2107489843	-2.7403061008	 2.157081162	 0.131278
H	-0.5890786177	-3.7350737117	-0.1272337036	 0.107932
H	-1.3873514945	-2.1223909565	-0.2903859168	 0.115131
H	 1.5823646441	-2.8402925727	-1.0193958357	 0.092512
180.5066	211.9729	221.6153	229.3032	271.9646	327.5808	391.3961	435.6824	510.9512	604.0383	617.1926	741.4867	796.3658	815.2931	839.1327	850.2041	875.8718	895.7323	925.1597	962.8232	971.6655	1019.9401	1040.8429	1052.682	1072.883	1087.4336	1097.0254	1123.8002	1128.9314	1183.7506	1210.3526	1238.5176	1264.0411	1276.413	1289.1237	1301.4737	1376.3951	1403.1219	1417.1243	1422.3343	1489.4122	1493.684	1500.1064	1505.1038	1509.2183	3022.6972	3033.2407	3084.0779	3089.287	3089.5031	3100.9647	3107.6755	3116.3828	3125.0982	3136.1885	3176.4685	3204.949
CC1C2OC1C1(C)CC21	C[C@H]1[C@H]2O[C@@H]1[C@@]1(C)C[C@@H]21	
InChI=1S/C8H12O/c1-4-6-5-3-8(5,2)7(4)9-6/h4-7H,3H2,1-2H3	InChI=1S/C8H12O/c1-4-6-5-3-8(5,2)7(4)9-6/h4-7H,3H2,1-2H3/t4-,5-,6+,7-,8-/m0/s1
