19
gdb 51907	3.46044	0.76131	0.64892	1.7262	82.67	-0.2483	-0.0164	0.2319	1705.1192	0.159193	-419.220649	-419.211337	-419.210393	-419.255863	33.309	
O	-0.5209184691	 0.5830440463	 1.1328690551	-0.300499
C	-0.1804912272	 1.2165852301	 0.1612245112	 0.157522
N	 1.0657682506	 1.1680102796	-0.4137374807	-0.308807
C	 2.1122056517	 0.3746178906	 0.0520737938	 0.127666
N	 3.2283683228	 0.3980153904	-0.5418871661	-0.265718
C	 4.325521549	-0.430123574	-0.0573112555	-0.147493
C	 4.1118878689	-1.2529656302	 1.1954005712	 0.011717
C	 3.4403324542	-2.6044584566	 1.1189014673	-0.251601
C	 4.9183495315	-2.5106683284	 1.3974623566	-0.290175
H	-0.8492352921	 1.9149407493	-0.3769280454	 0.088222
H	 1.263197758	 1.7356198177	-1.2260568476	 0.261768
H	 1.837434321	-0.2167383193	 0.9251751885	 0.142702
H	 4.6125904137	-1.097351533	-0.8825664161	 0.107665
H	 5.186315603	 0.2382293229	 0.083229478	 0.113907
H	 3.9140158872	-0.671339918	 2.092586522	 0.091263
H	 2.7798515959	-2.9018268346	 1.9258551541	 0.118266
H	 3.1312801796	-2.9577805565	 0.1403216049	 0.116039
H	 5.6039660666	-2.8045439044	 0.6089508286	 0.112999
H	 5.2702752946	-2.7391545718	 2.3970982302	 0.114558
57.3811	75.7864	102.7375	173.8041	198.0885	225.8409	333.0753	333.9074	380.5976	400.0284	607.7298	657.7772	770.4657	789.0609	814.2663	844.2324	903.6085	945.6601	991.133	1029.2463	1033.8788	1046.3206	1060.156	1082.5278	1097.5433	1145.9166	1171.4315	1199.8396	1224.7362	1243.3276	1289.3632	1338.0734	1364.6639	1414.617	1438.2489	1468.1073	1474.0235	1502.9806	1507.4443	1753.0009	1816.9856	2955.5912	3005.5365	3028.7835	3129.3062	3131.8308	3135.632	3143.5309	3207.6816	3222.5956	3609.4172
O=CNC=NCC1CC1	O=CNC=NCC1CC1	
InChI=1S/C6H10N2O/c9-5-8-4-7-3-6-1-2-6/h4-6H,1-3H2,(H,7,8,9)	InChI=1S/C6H10N2O/c9-5-8-4-7-3-6-1-2-6/h4-6H,1-3H2,(H,7,8,9)
