18
gdb 54664	3.33651	1.27943	0.98873	3.6265	78.91	-0.2367	-0.0245	0.2122	1188.0937	0.149298	-401.986273	-401.978269	-401.977325	-402.018967	31.256	
N	-0.0685048556	 1.3367962855	 0.0619338472	-0.540435
C	 0.0322179496	-0.0321542951	-0.0061293258	 0.298989
O	 1.1068094124	-0.6007317803	-0.0847084639	-0.364061
C	-1.2710929617	-0.752715989	-0.0059576314	 0.25388
C	-1.3668875488	-2.0845206992	 0.1064974039	-0.151105
C	-2.7976043169	-2.5636602718	 0.0750796343	-0.278896
C	-3.6111916793	-1.2690990239	 0.0264753428	-0.040756
C	-3.4836648285	-0.2949168048	 1.1671421454	-0.284332
C	-2.6253968383	-0.1148260064	-0.0730795685	-0.178051
H	 0.7923433721	 1.8400706619	 0.2088806895	 0.257423
H	-0.9183610569	 1.7672650825	 0.386001402	 0.259026
H	-0.5118087978	-2.7382549342	 0.227333353	 0.123211
H	-2.9816471893	-3.1904707422	-0.8081979951	 0.117457
H	-3.0429273465	-3.1864495801	 0.9452646047	 0.117265
H	-4.5313280789	-1.2538334344	-0.5451655995	 0.091001
H	-4.3082069421	 0.3949240509	 1.3151936625	 0.111475
H	-2.9874440528	-0.6118827543	 2.0792694187	 0.115142
H	-2.7988401606	 0.7345425049	-0.7253919498	 0.092766
67.318	137.6057	193.3685	285.4965	355.4174	367.0673	392.2479	442.5086	526.1701	602.2971	644.4797	713.6851	770.5485	779.6505	813.1465	844.5461	867.2329	904.7892	956.1449	985.6869	1004.7055	1056.5106	1072.9003	1094.4393	1096.9299	1104.9565	1112.3655	1184.6634	1207.0643	1256.4449	1307.5691	1352.7358	1367.8846	1385.7211	1468.0623	1480.3421	1613.9882	1677.1305	1778.6222	3014.7434	3041.9612	3121.7024	3162.0005	3181.4869	3211.5278	3219.3017	3589.0855	3719.7864
NC(=O)C1=CCC2CC12	NC(=O)C1=CC[C@H]2C[C@@H]12	
InChI=1S/C7H9NO/c8-7(9)5-2-1-4-3-6(4)5/h2,4,6H,1,3H2,(H2,8,9)	InChI=1S/C7H9NO/c8-7(9)5-2-1-4-3-6(4)5/h2,4,6H,1,3H2,(H2,8,9)/t4-,6+/m0/s1
