21
gdb 120079	5.47429	0.8002	0.79457	1.3311	83.47	-0.2616	0.0812	0.3428	1511.4311	0.182961	-387.005666	-386.997314	-386.996369	-387.039211	32.129	
O	 0.0042099693	 1.4735105386	-0.0314449608	-0.421208
C	 0.0384599249	 0.0606632038	 0.1094926493	-0.067685
C	-1.3561174793	-0.4770322469	-0.1902052415	-0.210714
C	-1.435738585	-1.9950303831	-0.1025285342	-0.010425
C	-1.4994526369	-2.6935880156	 1.2781452696	-0.041822
C	-3.0313892237	-2.3954988827	 1.4599794511	-0.040448
C	-3.35576574	-3.8706562995	 1.7660632882	-0.266692
C	-2.256425281	-3.9336782758	 0.6892431069	-0.042677
C	-2.8185778487	-2.6827026986	-0.0700623052	-0.055831
H	 0.8794458218	 1.817086331	 0.1695776766	 0.283776
H	 0.7671049965	-0.3910244084	-0.5841423697	 0.081576
H	 0.3388682302	-0.2300750275	 1.1293076848	 0.085065
H	-2.0645904453	-0.0114814412	 0.5046874988	 0.102071
H	-1.6416971531	-0.1459509755	-1.1967616408	 0.101819
H	-0.7267876853	-2.4619053027	-0.8008449859	 0.056634
H	-0.7556493543	-2.7237340807	 2.0772994681	 0.063919
H	-3.4708248028	-1.4978504953	 1.8957759503	 0.0722
H	-3.0914519054	-4.2369170917	 2.7636905063	 0.089287
H	-4.3502965693	-4.2270359754	 1.477785963	 0.089831
H	-1.7881898469	-4.8031752264	 0.2243290293	 0.066043
H	-3.5987163058	-2.6939486362	-0.8342518942	 0.065282
71.2752	87.5376	127.5954	242.7611	267.0933	324.0833	346.9375	441.1189	575.8033	730.9721	742.836	806.5361	847.1917	851.5057	865.4047	887.3146	904.7667	925.7615	964.0687	1005.1757	1018.5184	1027.0192	1047.3432	1067.2298	1084.5544	1109.6643	1132.0592	1143.2431	1149.2337	1159.1018	1182.8313	1190.6543	1213.4852	1229.2959	1247.5731	1258.8193	1283.5217	1311.4475	1320.2742	1333.2224	1414.8977	1460.5372	1490.8922	1508.649	1526.9358	2957.9647	2983.7424	3005.1114	3029.7358	3033.4292	3074.2184	3084.1791	3086.5629	3089.6186	3098.3973	3111.7806	3828.8956
OCCC1C2C3CC2C13	OCC[C@H]1[C@H]2[C@@H]3C[C@H]2[C@H]13	
InChI=1S/C8H12O/c9-2-1-4-7-5-3-6(7)8(4)5/h4-9H,1-3H2	InChI=1S/C8H12O/c9-2-1-4-7-5-3-6(7)8(4)5/h4-9H,1-3H2/t4-,5-,6+,7-,8+
