20
gdb 16233	2.81698	2.23751	1.44492	0.1854	80.77	-0.218	0.0294	0.2475	933.1967	0.178132	-311.873653	-311.866038	-311.865094	-311.905279	30.395	
C	-0.6069495423	 1.2571638396	 0.0438912879	-0.412448
C	 0.1113335642	-0.0855947502	-0.0689570797	-0.04646
C	 1.2474914721	-0.1072610036	-1.131869832	-0.275775
C	 2.2821916676	-1.0299816157	-0.5328015321	-0.093388
C	 2.0277111703	-1.2881136258	 0.7497260366	-0.124632
C	 0.787692502	-0.6133957161	 1.2171518551	 0.350399
C	 0.7875548626	 0.1315439803	 2.5407798391	-0.313293
C	-0.009165321	-1.1367471272	 2.3869644784	-0.315007
H	 0.0870929068	 2.0559966666	 0.3262910562	 0.117692
H	-1.061579352	 1.5326631088	-0.9135859494	 0.111602
H	-1.4097358497	 1.2292737234	 0.7892310242	 0.111597
H	-0.6255010904	-0.8431296365	-0.3670087273	 0.07754
H	 0.8859600393	-0.4404918398	-2.1116239959	 0.099507
H	 1.6690478545	 0.8974541043	-1.2877967874	 0.100326
H	 3.1420780985	-1.3898830059	-1.0864126223	 0.088778
H	 2.6420162102	-1.8911998693	 1.4105746564	 0.088185
H	 1.6943487085	 0.1030969663	 3.1361088518	 0.107653
H	 0.2469503854	 1.0695456056	 2.6033037885	 0.112322
H	-1.0906834334	-1.0503851753	 2.3335334043	 0.107605
H	 0.3382024767	-2.0346936696	 2.8880930877	 0.107796
72.588	237.3767	251.0899	265.6402	282.5562	360.1034	446.496	494.792	545.486	667.8348	744.3906	770.2749	782.9713	864.7721	887.017	921.3522	939.2261	945.8749	961.5029	967.3236	993.7344	1050.1986	1066.3519	1077.6434	1102.2251	1121.3324	1142.6482	1191.3298	1199.6335	1269.1247	1307.9331	1309.8683	1323.7837	1369.7775	1396.9986	1412.7699	1466.1381	1487.1486	1494.6177	1499.8865	1506.7025	1680.6658	2990.8861	3009.3081	3027.2108	3051.1024	3091.4545	3098.8715	3117.0813	3131.3766	3175.6004	3197.3129	3203.3624	3218.3198
CC1CC=CC11CC1	C[C@H]1CC=CC21CC2	
InChI=1S/C8H12/c1-7-3-2-4-8(7)5-6-8/h2,4,7H,3,5-6H2,1H3	InChI=1S/C8H12/c1-7-3-2-4-8(7)5-6-8/h2,4,7H,3,5-6H2,1H3/t7-/m0/s1
