16
gdb 132003	2.29389	1.83588	1.02629	6.208	79.11	-0.1913	-0.005	0.1863	1102.2028	0.124934	-442.071014	-442.062828	-442.061884	-442.103683	30.866	
C	-0.0051091494	 1.512888032	-0.0238742096	-0.501058
C	-0.0189835898	 0.016353501	 0.0378220621	 0.240886
C	-1.1279404864	-0.7418347662	-0.1308003009	 0.162096
F	-2.291671046	-0.1318145233	-0.3676777247	-0.066806
C	-1.1464025883	-2.2017931996	-0.0717729394	 0.204598
N	-2.2556471158	-2.837708616	-0.2455756464	-0.561659
C	 0.1759178373	-2.7619763363	 0.1917122435	-0.220711
C	 1.2676294455	-1.9831762341	 0.3563315456	 0.015943
N	 1.1865329476	-0.6198066779	 0.2835101436	-0.397466
H	 0.6598338777	 1.8699125828	-0.8195780169	 0.136283
H	-1.008434332	 1.8878229314	-0.221139189	 0.164252
H	 0.3455625673	 1.9447501692	 0.9212779314	 0.136236
H	-2.0892196383	-3.8435167065	-0.1724730626	 0.198098
H	 0.2769398178	-3.8392954804	 0.2559787346	 0.100091
H	 2.2547371967	-2.3839748096	 0.5523094272	 0.128157
H	 2.0115613363	-0.0591895863	 0.4090363916	 0.261059
112.4396	121.7943	176.1675	292.3553	305.9852	321.9655	344.9544	488.8557	501.247	530.1043	540.0922	552.8415	680.067	728.028	796.7897	853.7283	864.0435	935.1552	958.9902	1028.1141	1063.4342	1121.8056	1157.768	1222.0379	1273.0511	1302.5021	1398.5383	1421.8535	1431.8967	1484.3722	1488.6602	1545.3665	1625.2756	1674.9777	1716.6944	3025.9671	3074.3961	3162.9277	3191.2247	3211.9105	3443.0414	3668.0729
CC1=C(F)C(=N)C=CN1	CC1=C(F)C(=CCN1)[NH]	
InChI=1S/C6H7FN2/c1-4-6(7)5(8)2-3-9-4/h2-3H,1H3,(H2,8,9)	InChI=1S/C6H8FN2/c1-4-6(7)5(8)2-3-9-4/h2,8-9H,3H2,1H3
