23
gdb 59114	2.00715	1.46166	0.98923	2.5411	81.61	-0.2371	0.0664	0.3035	1300.07	0.203541	-425.417294	-425.406788	-425.405844	-425.452758	39.006	
C	-0.1428838312	 1.2154238989	 0.5156594861	-0.413439
C	-0.1302095118	-0.2977037645	 0.2889381011	 0.104577
O	-1.4657843486	-0.8042371133	 0.2142402923	-0.439096
C	 0.5166660791	-0.6894067858	-1.0333066336	-0.054359
C	 2.0576014777	-0.6029885011	-1.2383194774	 0.135104
C	 2.9930761758	-0.2516284261	-0.0925673906	-0.40491
O	 2.1265366013	-2.009876081	-1.5591722871	-0.31322
C	 0.7008264335	-2.1954554255	-1.3699765054	 0.143632
C	 0.3993230941	-3.2587115554	-0.3303213319	-0.396292
H	 0.8693399311	 1.6240645216	 0.5802097071	 0.123346
H	-0.6722437958	 1.7164735738	-0.3009743756	 0.125246
H	-0.655675282	 1.4588889915	 1.4536924144	 0.104839
H	 0.3999794195	-0.7790047343	 1.1246364889	 0.066805
H	-1.9129311976	-0.5828913189	 1.0374126847	 0.280473
H	-0.0278074384	-0.1677364085	-1.8254713531	 0.079322
H	 2.3261549621	 0.0026569003	-2.1155996616	 0.071484
H	 2.7318551496	-0.7817041014	 0.8274187551	 0.11759
H	 4.0111961196	-0.5444514714	-0.3687892425	 0.127711
H	 2.9967745583	 0.8249289872	 0.1069777884	 0.113698
H	 0.2238244984	-2.4712895974	-2.3199828088	 0.073416
H	 0.8784208864	-3.0305704576	 0.6263811825	 0.108813
H	-0.6787967972	-3.3405469451	-0.1710305738	 0.128708
H	 0.7838100163	-4.224086616	-0.674703529	 0.11655
46.692	84.9621	159.4305	209.8238	220.6421	231.5391	247.8161	281.1222	287.4687	337.883	380.1916	397.7929	470.3002	497.8264	544.1271	742.1052	819.5111	831.6733	880.4555	899.5724	951.3403	993.0987	1014.4654	1030.5283	1068.2217	1089.4882	1105.7867	1110.9905	1151.8338	1167.6834	1180.4265	1250.5709	1267.0618	1283.6833	1337.2262	1347.4449	1372.9078	1375.7755	1400.1431	1401.2357	1407.0886	1416.3943	1440.8962	1479.3914	1487.1315	1490.9499	1496.9743	1498.899	1500.875	2983.9947	2991.8925	3006.0401	3029.8104	3037.6158	3041.4876	3067.7561	3096.3893	3105.2721	3108.7679	3118.4391	3121.8711	3129.6217	3815.7752
CC(O)C1C(C)OC1C	C[C@@H](O)[C@H]1[C@@H](C)O[C@H]1C	
InChI=1S/C7H14O2/c1-4(8)7-5(2)9-6(7)3/h4-8H,1-3H3	InChI=1S/C7H14O2/c1-4(8)7-5(2)9-6(7)3/h4-8H,1-3H3/t4-,5-,6+,7+/m1/s1
