14
gdb 25991	5.14559	1.09853	0.90531	2.9492	64.96	-0.2119	0.0207	0.2326	1196.8985	0.102517	-470.084873	-470.076885	-470.075941	-470.118273	28.725	
N	 0.0536537875	 1.2378685792	 0.2749281875	-0.559459
C	-0.3419498134	 0.0618065546	-0.2637067528	 0.514445
O	-0.7664386342	-0.0893695792	-1.388584207	-0.403817
O	-0.1970482578	-0.9219690435	 0.6731902162	-0.266996
C	-0.5404442326	-2.2173927034	 0.408293312	 0.460029
N	-0.3937344561	-3.154606424	 1.3008204569	-0.342809
C	-0.8441680961	-4.297009848	 0.6662053214	-0.087542
C	-1.2558817371	-4.0181450574	-0.6067999439	-0.117604
N	-1.0545328416	-2.6589202654	-0.7667483116	-0.290179
H	 0.0806049608	 2.0448595419	-0.3215342697	 0.280268
H	 0.4706991122	 1.2693074449	 1.1882179043	 0.282017
H	-0.8415611882	-5.2493827246	 1.1727194605	 0.110194
H	-1.6609448956	-4.6262509656	-1.3976986171	 0.128968
H	-1.225481628	-2.0590728494	-1.5590986168	 0.292485
59.5212	81.3983	134.3812	208.9174	315.9305	389.5536	405.6705	542.9352	606.4384	633.7597	672.1648	694.0022	740.8165	764.1106	767.6969	848.899	929.4072	961.6879	1056.6172	1084.3358	1108.771	1135.2146	1203.3123	1272.0112	1357.7152	1390.1421	1500.3623	1527.522	1593.2898	1611.0121	1826.9748	3255.5316	3285.5423	3631.3153	3634.0825	3768.9049
NC(=O)OC1=NC=CN1	NC(=O)Oc1ncc[nH]1	
InChI=1S/C4H5N3O2/c5-3(8)9-4-6-1-2-7-4/h1-2H,(H2,5,8)(H,6,7)	InChI=1S/C4H5N3O2/c5-3(8)9-4-6-1-2-7-4/h1-2H,(H2,5,8)(H,6,7)
