19
gdb 90511	3.25146	1.03898	0.95476	5.1079	79.48	-0.2442	0.0309	0.2751	1296.7399	0.159853	-382.034549	-382.025875	-382.024931	-382.068453	32.312	
C	-0.426804682	 1.6777416377	 0.4533243906	-0.42603
C	-0.1380415372	 0.1810762355	 0.3955787646	 0.02994
C	 0.5761761419	-0.4955443753	-0.8071786852	-0.201165
N	 1.511485982	-1.2624145763	 0.0963832888	-0.137145
C	 2.3350955052	-0.2871775853	 0.8271559268	 0.025608
C	 2.9625431714	 0.9644841758	 0.2256027547	-0.391548
C	 4.1726510794	 0.6559824173	-0.5395448308	 0.271714
N	 5.1295544014	 0.4117366101	-1.1388879478	-0.300653
C	 0.9371979604	-0.4628289386	 1.2751779844	-0.092363
H	 0.4584447339	 2.2950285015	 0.2789842956	 0.117153
H	-1.1743868372	 1.9535500138	-0.2981383685	 0.124898
H	-0.8290463052	 1.9539111376	 1.4341441004	 0.125005
H	-1.0758998947	-0.3534704669	 0.5750284757	 0.095848
H	-0.0491038305	-1.1977476766	-1.3600736019	 0.120378
H	 1.0787366711	 0.1550004826	-1.530136864	 0.108328
H	 3.0498690812	-0.8222903433	 1.4500516819	 0.117399
H	 2.275909617	 1.5078475289	-0.42456332	 0.154723
H	 3.2328783601	 1.6509367385	 1.0366381413	 0.158627
H	 0.728230332	-0.9426389272	 2.2277243434	 0.099285
46.177	113.0019	170.1598	185.5396	253.5374	301.2682	360.5111	392.4124	446.9188	531.1958	586.9815	685.9355	720.4582	769.4922	862.852	876.7132	914.3999	945.4311	954.7804	988.9032	1012.6347	1066.249	1089.7277	1116.3557	1137.5651	1171.1965	1194.4641	1237.5808	1257.2082	1275.5728	1299.0277	1314.8701	1370.3906	1389.0748	1413.5132	1453.6149	1458.8381	1496.4372	1497.4793	1515.604	2364.793	3036.8378	3051.1193	3054.4878	3055.4961	3097.3716	3113.7457	3117.8542	3121.334	3133.3147	3146.9277
CC1CN2C(CC#N)C12	C[C@H]1CN2[C@@H](CC#N)[C@@H]12	
InChI=1S/C7H10N2/c1-5-4-9-6(2-3-8)7(5)9/h5-7H,2,4H2,1H3	InChI=1S/C7H10N2/c1-5-4-9-6(2-3-8)7(5)9/h5-7H,2,4H2,1H3/t5-,6-,7+,9?/m0/s1
