19
gdb 70207	3.07071	1.37944	1.15826	4.2787	75.73	-0.2335	0.0266	0.2601	1110.6095	0.160734	-419.221649	-419.213471	-419.212526	-419.254151	31.979	
C	 0.0126420119	 1.519459121	 0.0302727168	-0.460488
C	-0.1053850072	 0.0113676425	 0.006199448	 0.349175
C	-0.8982699336	-0.7214631521	 1.0310472251	-0.294345
N	 0.5631493805	-0.6887620001	 1.1124158564	-0.1164
C	 1.3172741505	-1.8963724601	 0.7490395046	-0.279447
C	 2.1343948548	-1.7375752741	-0.5354244021	 0.398123
O	 3.2391231949	-2.2210251911	-0.6828334741	-0.371133
N	 1.4894453545	-1.0170818889	-1.5016823791	-0.300713
C	 0.0881052508	-0.6414914159	-1.3612997646	-0.259328
H	 0.9590670563	 1.8362110423	-0.4219809449	 0.127595
H	-0.8066915634	 1.9867476016	-0.5279136708	 0.113649
H	-0.0097445144	 1.8875540915	 1.0583880805	 0.130918
H	-1.4204811033	-0.1774236704	 1.8139363018	 0.117399
H	-1.3752471445	-1.6553274857	 0.7345274378	 0.107096
H	 2.0173847374	-2.1451877168	 1.5488250377	 0.140248
H	 0.6585508314	-2.7684096152	 0.6073419473	 0.114658
H	 1.9406549992	-0.981320389	-2.4030898237	 0.250475
H	-0.5707687929	-1.5131463052	-1.4770373502	 0.111419
H	-0.1654303628	 0.0600769358	-2.1597743164	 0.121098
86.5572	178.4882	199.6309	228.6181	342.3241	361.8194	423.2753	455.6539	474.1131	480.5816	512.7206	623.2474	675.6409	747.7044	816.9439	871.625	904.4696	924.2351	967.4472	999.3927	1004.051	1076.6851	1096.1404	1114.7257	1128.6776	1178.64	1222.7757	1238.7131	1291.6519	1322.7999	1334.9128	1377.9762	1395.4717	1416.3503	1460.5559	1481.3759	1485.6419	1495.8014	1509.4832	1520.4224	1807.5673	2978.7247	3001.218	3030.0201	3086.4332	3092.5741	3093.9338	3108.6764	3127.472	3175.1551	3625.0951
CC12CN1CC(=O)NC2	C[C@]12CN1CC(=O)NC2	
InChI=1S/C6H10N2O/c1-6-3-7-5(9)2-8(6)4-6/h2-4H2,1H3,(H,7,9)	InChI=1S/C6H10N2O/c1-6-3-7-5(9)2-8(6)4-6/h2-4H2,1H3,(H,7,9)/t6-,8?/m0/s1
