19
gdb 125984	4.5784	1.10224	0.94458	2.747	84.72	-0.2247	0.0376	0.2622	1293.5247	0.160465	-382.069964	-382.061385	-382.060441	-382.103727	31.505	
C	-0.2521499094	 1.5717129782	-0.0907541779	-0.396534
C	 0.0089907234	 0.0763871059	 0.0442416204	-0.152092
C	 1.1286342039	-0.5396367458	-0.9035440147	-0.186597
N	 1.8313928323	-0.8720569786	 0.3390863845	 0.087648
N	 2.8763996884	-1.4919488741	 0.9038373614	-0.363967
C	 2.5928211269	-1.3690708232	 2.2159361138	 0.365662
C	 3.5427530238	-1.9177084242	 3.2360409585	-0.486307
C	 1.3594711918	-0.6887300922	 2.4606312753	-0.496217
C	 0.9125909223	-0.3935403845	 1.1871018103	 0.408823
H	 0.6820756696	 2.1399889794	-0.0449136058	 0.128038
H	-0.747490959	 1.7976209721	-1.0408179517	 0.120332
H	-0.9000554617	 1.9247706985	 0.7174502451	 0.128929
H	-0.9287897074	-0.4840343826	-0.0226313196	 0.09962
H	 0.8246360478	-1.4096163124	-1.4922802638	 0.129683
H	 1.6552350467	 0.1790318846	-1.5384909791	 0.126826
H	 3.9604046408	-1.1241009294	 3.8659416643	 0.125433
H	 3.0472819666	-2.6327016631	 3.9020164662	 0.124229
H	 4.3687501302	-2.4275347289	 2.735799366	 0.138071
H	 0.913857363	-0.4736354898	 3.4177328669	 0.098418
56.8178	88.9815	136.4658	216.5268	248.4599	265.6175	332.8214	429.1612	509.5999	583.5523	676.7687	697.2597	752.8996	782.6927	792.8454	859.0411	918.2115	974.2479	1013.6461	1027.1553	1062.0609	1083.9763	1107.9631	1132.302	1161.7309	1167.9876	1224.1952	1267.1326	1321.0576	1351.7479	1377.8759	1402.0337	1411.4752	1459.737	1484.1984	1485.4351	1492.9412	1494.5305	1500.2356	1526.968	1570.8831	3032.5465	3035.4326	3051.1113	3059.2923	3082.5132	3105.7975	3107.0423	3113.4142	3131.4657	3268.2617
CC1CN2N=C(C)C=C12	C[C@H]1Cn2nc(C)cc12	
InChI=1S/C7H10N2/c1-5-4-9-7(5)3-6(2)8-9/h3,5H,4H2,1-2H3	InChI=1S/C7H10N2/c1-5-4-9-7(5)3-6(2)8-9/h3,5H,4H2,1-2H3/t5-/m0/s1
