15
gdb 43900	2.78136	1.43217	1.12366	2.9534	70.66	-0.2454	-0.0436	0.2018	1062.7349	0.112892	-416.791183	-416.783499	-416.782555	-416.823654	28.775	
O	 0.021146892	 0.0505453489	 0.5254289953	-0.283993
C	-0.0089968023	 1.1815491171	 0.1509639829	 0.464021
C	-1.1530328855	 2.1493630986	-0.2332784027	-0.414881
C	-0.085704271	 3.1846987554	-0.721245054	 0.174165
C	 0.3993519713	 4.193670245	 0.3562571722	-0.21057
N	 1.2256466982	 3.1342119211	 0.9755674147	-0.31447
C	 1.0701184482	 2.2325864053	-0.1892412683	-0.185354
C	-0.1863302688	 3.6339453358	-2.0855220671	 0.197992
N	-0.2604062968	 3.9991188715	-3.1808396033	-0.33674
H	-1.7880175089	 1.7525834699	-1.0295638909	 0.160049
H	-1.7862096928	 2.4847976825	 0.5914770444	 0.148808
H	 0.9727284308	 5.0138600069	-0.0903991233	 0.125987
H	-0.3746489784	 4.6101470682	 1.0093328235	 0.122814
H	 2.1787535604	 3.3885449086	 1.1977958427	 0.243092
H	 1.9623807238	 1.953522325	-0.7531486662	 0.109079
76.6706	154.4771	184.8558	224.2073	328.4343	417.2052	478.4484	514.4683	535.1834	573.0297	613.8555	674.7556	782.465	862.9564	877.4389	941.9206	984.848	1022.6915	1039.4991	1062.7885	1086.6472	1126.8312	1146.956	1175.8644	1213.4015	1234.564	1290.928	1346.2465	1380.8624	1432.2597	1516.8216	1911.6514	2350.0097	3029.9923	3072.7696	3080.4389	3100.7143	3131.1452	3575.5309
O=C1CC2(CNC12)C#N	O=C1C[C@]2(CN[C@@H]12)C#N	
InChI=1S/C6H6N2O/c7-2-6-1-4(9)5(6)8-3-6/h5,8H,1,3H2	InChI=1S/C6H6N2O/c7-2-6-1-4(9)5(6)8-3-6/h5,8H,1,3H2/t5-,6+/m0/s1
