19
gdb 46938	2.7502	1.76119	1.33776	3.4592	78.55	-0.2267	-0.008	0.2187	995.1684	0.162342	-385.897866	-385.890921	-385.889977	-385.929132	28.657	
O	 0.067408308	-0.0516730995	-0.001413675	-0.333235
C	-0.0288650077	 1.1569930378	-0.0391807152	 0.395448
C	-1.3884484811	 1.8391084817	-0.1598893046	-0.318306
C	-1.3541391107	 3.2009074208	-0.8785530433	-0.225793
C	-0.1695255019	 4.0503698383	-0.4164927415	-0.01983
C	 0.1319967553	 4.0640098588	 1.1249249232	-0.255534
C	 1.4097675227	 3.27270761	 0.8528202626	-0.067092
C	 1.2111873854	 3.3945003534	-0.6417248833	-0.093028
C	 1.1880655785	 2.0226481681	-0.0042109455	-0.119219
H	-2.0668664967	 1.1322385381	-0.6446983372	 0.120829
H	-1.7663554132	 1.9696146393	 0.8628106322	 0.128576
H	-1.2762724274	 3.046089185	-1.9623447239	 0.106498
H	-2.2985512247	 3.7301561345	-0.7062578684	 0.100273
H	-0.2281577194	 5.0577995311	-0.8333014944	 0.078804
H	 0.3614337073	 5.0744864505	 1.4715102519	 0.108209
H	-0.6081555748	 3.6296314137	 1.803066856	 0.099567
H	 2.3274083707	 3.3392240207	 1.4251085779	 0.096465
H	 1.9195978113	 3.6441006843	-1.4221313749	 0.09307
H	 2.0982418886	 1.4424714534	-0.1205410766	 0.104295
92.4129	232.2917	295.1769	338.7496	430.4908	471.9313	505.8283	568.9856	651.695	706.4325	768.3823	790.5058	811.2731	835.6782	893.5615	905.9817	964.1577	973.3448	989.1668	1013.7359	1046.0291	1057.688	1072.9688	1096.1016	1111.5932	1147.1581	1176.9154	1209.4522	1247.4973	1259.1258	1265.1339	1303.0622	1322.2424	1332.5654	1357.3983	1378.1901	1403.4511	1457.5303	1490.804	1504.3089	1788.9837	3022.5391	3027.6748	3057.1982	3062.0734	3083.5867	3097.9597	3106.9301	3165.1668	3177.7127	3191.2816
O=C1CCC2CC3C2C13	O=C1CC[C@H]2C[C@@H]3[C@H]2[C@H]13	
InChI=1S/C8H10O/c9-6-2-1-4-3-5-7(4)8(5)6/h4-5,7-8H,1-3H2	InChI=1S/C8H10O/c9-6-2-1-4-3-5-7(4)8(5)6/h4-5,7-8H,1-3H2/t4-,5+,7-,8-/m0/s1
