18
gdb 62262	2.20267	1.06157	0.85563	6.0503	71.	-0.2558	0.0001	0.2559	1387.0837	0.14553	-476.261852	-476.251805	-476.250861	-476.298864	33.599	
C	-0.3679304412	 1.28086473	-0.0175852678	-0.350688
N	-0.1188964346	-0.1508250558	-0.0499212386	-0.038438
C	 0.0781381828	-0.8580956091	 1.1973750585	-0.181156
C	-1.2162647325	-1.1316999837	 1.9667376658	-0.086764
O	-2.0097086414	-2.0895295165	 1.2677121537	-0.177153
C	-3.1476837797	-1.6721509457	 0.6718770931	 0.180739
O	-3.8519486973	-2.4042036122	 0.0488738934	-0.264986
C	 0.0182737478	-0.7865553008	-1.2569491319	 0.156662
O	-0.093948184	-0.2593740235	-2.3408941347	-0.332134
H	 0.4451067493	 1.8044512386	 0.5001663211	 0.127424
H	-0.4260007331	 1.6274145169	-1.0494014391	 0.177474
H	-1.3094677243	 1.5178732589	 0.4912755434	 0.121788
H	 0.5590321854	-1.8177238007	 0.9834221791	 0.138633
H	 0.7570274438	-0.28721273	 1.8455713213	 0.114713
H	-0.9818314357	-1.5603614658	 2.9457670532	 0.130789
H	-1.7862857232	-0.208053645	 2.1271806154	 0.116769
H	-3.3474532079	-0.5955727362	 0.8385373065	 0.0795
H	 0.2481366759	-1.8611654896	-1.1277879725	 0.086829
37.7588	47.5475	70.4761	121.634	156.2631	183.2066	263.1059	326.8308	342.1515	377.3257	416.6288	494.0336	626.4961	649.0345	853.2374	902.9045	965.7049	1026.0129	1037.7134	1049.7978	1079.9519	1098.104	1157.4149	1163.7368	1256.3123	1280.2666	1315.1988	1393.5833	1400.1876	1426.0527	1430.1475	1436.7172	1442.8995	1476.5568	1494.5999	1503.1717	1519.0667	1800.455	1874.7977	2947.1244	2954.521	3017.0584	3020.2499	3033.4094	3069.8902	3087.0692	3096.712	3157.3289
CN(CCOC=O)C=O	CN(CCOC=O)C=O	
InChI=1S/C5H9NO3/c1-6(4-7)2-3-9-5-8/h4-5H,2-3H2,1H3	InChI=1S/C5H9NO3/c1-6(4-7)2-3-9-5-8/h4-5H,2-3H2,1H3
