17
gdb 96817	3.17183	1.07355	0.91206	3.2248	79.05	-0.2312	0.0198	0.251	1307.8917	0.133128	-417.949424	-417.939493	-417.938549	-417.984806	35.035	
C	 0.088115661	 1.4300319351	 0.4824255631	-0.339639
N	 0.0587106367	-0.0246172794	 0.4584503666	-0.31664
C	-0.986124066	-0.5836664647	 0.0315045527	 0.354285
N	-2.2073276221	-0.1514570293	-0.4900774097	-0.324487
C	-2.7685060875	-1.4961807341	-0.6892201625	-0.248944
C	-3.0797086059	-1.8394144594	-2.0659184562	 0.341972
C	-3.3005750789	-2.1469422051	-3.2071612391	-0.427794
C	-1.3801046911	-2.0593184088	-0.1333204631	 0.041394
O	-0.6219084123	-2.9059423701	-0.9267463488	-0.405212
H	 1.1238004713	 1.7730229947	 0.4047974777	 0.127859
H	-0.4869134283	 1.8946254339	-0.3339319259	 0.100335
H	-0.3080939508	 1.8135876139	 1.4329097286	 0.119067
H	-2.7205809573	 0.6931094236	-0.2926709149	 0.251318
H	-3.6149309035	-1.7297483121	-0.0327557462	 0.106886
H	-3.5141704969	-2.4118255426	-4.2134669099	 0.204744
H	-1.5131458986	-2.5618303401	 0.827537361	 0.122884
H	-0.4785564199	-2.4816553055	-1.7809070335	 0.291973
51.0515	80.0347	118.6565	146.2165	190.3286	225.9272	263.4316	283.2871	340.2494	385.0886	499.6145	532.4021	625.6672	639.9742	659.7377	692.1982	771.1103	806.3402	925.5479	961.748	1036.7202	1070.902	1111.2301	1128.8213	1160.1636	1179.1994	1189.203	1263.0615	1297.3027	1341.4524	1374.305	1435.3504	1441.8022	1489.0567	1505.8662	1817.7661	2233.7394	2975.7059	3033.8684	3036.0923	3091.2805	3096.3114	3501.2283	3630.0912	3797.0931
CN=C1NC(C#C)C1O	CN=C1N[C@@H](C#C)[C@H]1O	
InChI=1S/C6H8N2O/c1-3-4-5(9)6(7-2)8-4/h1,4-5,9H,2H3,(H,7,8)	InChI=1S/C6H8N2O/c1-3-4-5(9)6(7-2)8-4/h1,4-5,9H,2H3,(H,7,8)/t4-,5+/m0/s1
