20
gdb 89752	2.48087	1.59431	1.16525	2.2865	79.99	-0.2043	0.0791	0.2834	1124.3638	0.169377	-403.078611	-403.069914	-403.06897	-403.11187	33.46	
C	-0.1479692963	 1.5558444274	 0.1020969866	-0.331446
N	 0.0106695104	 0.117871184	 0.1065312895	-0.136217
C	-1.2004608015	-0.704083282	 0.359119476	-0.259957
C	-0.3964838156	-1.524660694	 1.3701880748	 0.362166
C	-0.8127205269	-2.3689484498	 2.4851190314	-0.269276
O	-0.2238064311	-2.9275832667	 1.2985626682	-0.269877
C	 0.7293978947	-0.5290346009	 1.2152510015	 0.305874
C	 2.1970882681	-0.7882058122	 1.2976704339	-0.309773
C	 1.5298656069	 0.1292518801	 2.3056424292	-0.343766
H	 0.8267874315	 2.0416344698	-0.0120744144	 0.120983
H	-0.7612804131	 1.8486567975	-0.7562199204	 0.12303
H	-0.6252508728	 1.953483577	 1.0172107386	 0.09339
H	-2.0304796087	-0.1444891388	 0.8162610745	 0.094891
H	-1.5663912275	-1.2477097828	-0.5176812838	 0.117357
H	-0.198374075	-2.4299835797	 3.3829847852	 0.115112
H	-1.8692846291	-2.5908449877	 2.6330857305	 0.116222
H	 2.5089715157	-1.7777725417	 1.6152816959	 0.12407
H	 2.827574939	-0.332512247	 0.5412713438	 0.118452
H	 1.7254966677	 1.1932007301	 2.2205837178	 0.116202
H	 1.3982355336	-0.2166185524	 3.3262838812	 0.112565
59.8995	180.7661	201.3263	207.2814	236.9121	264.9926	329.6558	384.0119	457.5211	518.7065	564.1181	595.4523	731.2572	784.2635	831.5868	871.985	897.1593	939.1266	947.5382	962.947	985.6871	1047.4248	1063.0201	1065.1963	1120.4747	1129.4941	1134.1169	1163.3118	1165.8574	1187.0459	1191.645	1216.8779	1260.2074	1317.6974	1366.3457	1451.6409	1456.1451	1461.5052	1488.0071	1489.3379	1499.4366	1510.4315	1548.7135	2931.2363	2987.9791	3059.3369	3070.801	3076.0625	3098.6816	3123.0011	3129.268	3160.614	3203.6675	3221.2004
CN1CC2(CO2)C11CC1	CN1C[C@]2(CO2)C21CC2	
InChI=1S/C7H11NO/c1-8-4-7(5-9-7)6(8)2-3-6/h2-5H2,1H3	InChI=1S/C7H11NO/c1-8-4-7(5-9-7)6(8)2-3-6/h2-5H2,1H3/t7-/m0/s1
