19
gdb 68121	3.55558	1.25584	1.10661	2.8306	81.14	-0.2375	-0.0238	0.2137	1147.7682	0.158374	-385.871017	-385.862813	-385.861869	-385.903668	32.138	
C	 0.0544453921	 1.5358910006	 0.0075067191	-0.506954
C	 0.0203358895	 0.0257356331	 0.0461034971	 0.285672
C	 1.003615993	-0.8644483542	-0.8000351487	-0.283294
C	 0.5099104554	-1.9613434465	 0.227697032	 0.215249
C	 0.5192209525	-0.8107775939	 1.2824809262	-0.277526
C	 1.2661421949	-3.2345899537	 0.3973074823	 0.034205
O	 2.0133498365	-3.4711597132	 1.3145372092	-0.251391
C	-0.9847668331	-2.0018373378	-0.1499032184	-0.147685
C	-1.3013862854	-0.7098919813	-0.2497205275	-0.125472
H	 1.0572744259	 1.9152505353	 0.2275554518	 0.11866
H	-0.2381305751	 1.9145719769	-0.9783656545	 0.119508
H	-0.6330785029	 1.9638227641	 0.7457264981	 0.121926
H	 0.7644036127	-1.0250884255	-1.8533975486	 0.100277
H	 2.0567404048	-0.5975702179	-0.6646344683	 0.105608
H	 1.5265133407	-0.5439636985	 1.6144581286	 0.106753
H	-0.1604277571	-0.9112206191	 2.1310483049	 0.099239
H	 1.1109592178	-3.9791844792	-0.4194508163	 0.069155
H	-1.5903348096	-2.8889144496	-0.2703827456	 0.111126
H	-2.2501106126	-0.2425561397	-0.4760930715	 0.104943
73.5139	157.5139	205.5612	222.759	297.7178	327.7434	432.7144	466.8441	535.0755	539.4245	605.7896	695.137	713.2299	723.5555	828.2556	863.1421	874.3165	898.1243	900.0058	973.314	997.3487	1036.1941	1048.1452	1066.8196	1081.0921	1144.6056	1166.0675	1169.4329	1198.9673	1216.7644	1246.0076	1316.1221	1346.6367	1416.1226	1425.1088	1476.0937	1492.6672	1494.3828	1512.849	1626.1282	1819.75	2849.2146	3027.578	3045.5158	3062.2247	3091.0122	3100.787	3123.0911	3130.5744	3214.4977	3242.7447
CC12CC(C1)(C=O)C=C2	C[C@@]12C[C@](C1)(C=O)C=C2	
InChI=1S/C8H10O/c1-7-2-3-8(4-7,5-7)6-9/h2-3,6H,4-5H2,1H3	InChI=1S/C8H10O/c1-7-2-3-8(4-7,5-7)6-9/h2-3,6H,4-5H2,1H3/t7-,8-
