15
gdb 80207	2.22136	1.59964	1.22016	5.7141	74.27	-0.2473	-0.0086	0.2387	1047.6702	0.113998	-412.956574	-412.94851	-412.947566	-412.98914	30.352	
N	 0.0462708025	 1.4350619555	 0.1204267836	-0.513797
C	-0.0564252237	 0.0184337435	 0.0941807809	-0.021318
C	-0.5079774939	-0.8058704027	 1.2420743212	-0.067421
N	-1.62988712	-0.2153923954	 1.9720379731	-0.344703
C	-2.4395042645	-0.1435457384	 0.8061204805	 0.302342
N	-3.5863954088	 0.294882268	 0.5307357719	-0.528117
C	-1.3869683528	-0.8212535864	-0.0344435713	 0.082918
C	-1.5600107781	-1.829895268	-1.01720461	 0.199318
N	-1.6751591804	-2.6431471794	-1.8333900159	-0.348044
H	 0.0067235161	 1.8182985942	-0.818322862	 0.254518
H	-0.704561889	 1.8617714285	 0.6522134619	 0.239979
H	 0.7322378716	-0.4492048725	-0.490428329	 0.137198
H	 0.0458458281	-1.6323219751	 1.670159992	 0.137368
H	-1.4980289759	 0.5837914708	 2.5829667488	 0.244281
H	-4.0382642611	 0.7189379273	 1.3426795144	 0.225477
125.4443	137.1865	153.5136	218.6523	266.7368	377.9569	391.5282	496.5268	529.0149	582.4757	625.9178	635.8008	717.9939	752.5127	808.9902	833.3175	861.1997	896.8037	941.9895	1003.4138	1047.2293	1062.2173	1117.827	1203.5265	1221.5103	1277.1269	1312.8436	1332.9384	1360.4355	1471.7877	1662.0911	1801.9252	2346.0628	3155.2044	3197.557	3470.2328	3514.1147	3535.1358	3592.5453
NC1C2NC(=N)C12C#N	N[C@H]1[C@H]2N[C]([NH])[C@@]12C#N	
InChI=1S/C5H6N4/c6-1-5-2(7)3(5)9-4(5)8/h2-3H,7H2,(H2,8,9)	InChI=1S/C5H6N4/c6-1-5-2(7)3(5)9-4(5)8/h2-3H,7H2,(H2,8,9)/t2-,3+,5-/m0/s1
