21
gdb 86619	3.05285	1.10299	0.94195	0.5005	79.23	-0.2469	0.0531	0.3	1335.7572	0.181338	-424.194798	-424.185232	-424.184288	-424.23043	35.253	
C	 0.3392294855	 1.5487431032	-0.029831478	-0.399165
C	 0.0362847158	 0.0720994468	 0.1265959766	 0.114122
O	 0.7778537149	-0.7550952989	-0.802872967	-0.316817
C	 1.3219717166	-1.5837217174	 0.2550040889	 0.085936
C	 2.8171138435	-1.6767984338	 0.2223649065	 0.017261
C	 3.5064224985	-2.8408683636	 0.8927113698	-0.264481
C	 3.4779772549	-2.7505270811	-0.6090629494	-0.272327
C	 0.6414101406	-0.692829972	 1.3376005473	 0.04701
O	 1.4495945193	 0.0073264811	 2.2468251336	-0.419484
H	 1.4067842038	 1.7591015921	 0.0902627669	 0.100752
H	 0.0465747039	 1.8836413352	-1.0294838295	 0.130155
H	-0.2146199188	 2.135769825	 0.7094422497	 0.125821
H	-1.0438124301	-0.1001035999	 0.0165211458	 0.072488
H	 0.894734723	-2.5969214865	 0.2128395254	 0.065571
H	 3.3365503838	-0.7224001166	 0.254349297	 0.068308
H	 4.4407118957	-2.6499523422	 1.4078948362	 0.115627
H	 2.8832883381	-3.5889421593	 1.3715676781	 0.115534
H	 2.8333028856	-3.4340803412	-1.1511772384	 0.119444
H	 4.3948589528	-2.4973247109	-1.1289209903	 0.115394
H	-0.0946630077	-1.2170619376	 1.9499796418	 0.094305
H	 2.1568298602	 0.4470192075	 1.764540179	 0.284545
23.2183	61.6239	155.7717	183.5008	231.517	250.6007	265.1803	299.5334	387.5579	426.7015	534.1891	566.5076	761.0342	785.3834	806.6593	831.8043	859.7994	892.3682	922.6866	941.0294	992.4806	1014.5611	1031.8553	1062.9698	1080.6173	1095.5996	1125.2051	1137.5887	1170.9747	1193.4356	1197.6818	1228.1889	1245.3595	1265.2033	1277.1484	1323.2221	1327.9947	1381.858	1405.9103	1439.5793	1449.274	1472.1504	1479.9856	1495.9935	1506.433	2986.2024	2999.7725	3036.923	3095.2151	3106.8987	3116.6911	3131.9514	3134.8007	3139.7276	3212.9932	3227.562	3821.5807
CC1OC(C2CC2)C1O	C[C@H]1O[C@@H](C2CC2)[C@H]1O	
InChI=1S/C7H12O2/c1-4-6(8)7(9-4)5-2-3-5/h4-8H,2-3H2,1H3	InChI=1S/C7H12O2/c1-4-6(8)7(9-4)5-2-3-5/h4-8H,2-3H2,1H3/t4-,6+,7+/m1/s1
