17
gdb 45231	3.50892	1.7234	1.54907	3.5143	72.73	-0.2383	0.0071	0.2455	894.0802	0.140605	-417.98208	-417.976095	-417.975151	-418.012264	25.44	
N	-0.049287706	 1.3082863641	-0.2673080372	-0.55847
C	-0.0055266112	 0.072180963	-0.0182441025	 0.417447
O	 1.130987956	-0.6860147414	 0.1384312172	-0.25303
C	 0.674142152	-1.9867145246	 0.5813313565	 0.075169
C	-0.0344147655	-1.7575080414	 1.944946841	-0.189813
N	-1.4339436554	-1.5153582755	 1.4839036827	-0.139368
C	-1.638548297	-2.8048396888	 0.7078201006	-0.194737
C	-0.589977189	-2.2686624051	-0.2757931852	-0.062298
C	-1.1637472625	-0.8755821866	 0.0892824545	-0.072631
H	 0.8941643768	 1.6978077321	-0.3230528761	 0.224606
H	 1.5131283332	-2.6771886455	 0.5324720125	 0.094237
H	-0.0117855532	-2.6187582629	 2.6164975414	 0.111428
H	 0.3756270327	-0.8872417309	 2.4607811044	 0.127036
H	-1.445244521	-3.7193996545	 1.2751319542	 0.105686
H	-2.6451018731	-2.8324020217	 0.284353918	 0.120116
H	-0.4424326446	-2.6147391325	-1.2990596556	 0.084831
H	-2.0904243622	-0.5366143878	-0.3645572966	 0.10979
155.8065	311.7753	400.1708	452.6736	537.0692	587.2227	619.3352	665.5025	791.3805	822.352	840.207	860.055	882.4451	904.3146	908.5638	928.4792	946.7009	971.0351	984.4574	1023.0728	1056.9419	1075.1058	1089.981	1140.538	1168.8099	1214.1567	1233.253	1238.0791	1257.6538	1263.4582	1286.6992	1313.0119	1328.0603	1367.9884	1499.0616	1525.8232	1784.3183	3058.3947	3073.773	3115.5672	3119.7047	3129.4843	3150.3549	3170.3733	3465.0566
N=C1OC2CN3CC2C13	[NH][C]1O[C@H]2CN3C[C@H]2[C@H]13	
InChI=1S/C6H8N2O/c7-6-5-3-1-8(5)2-4(3)9-6/h3-5,7H,1-2H2	InChI=1S/C6H8N2O/c7-6-5-3-1-8(5)2-4(3)9-6/h3-5,7H,1-2H2/t3-,4+,5-/m1/s1
