20
gdb 46324	2.94087	1.28698	1.1683	2.5595	79.19	-0.2357	-0.021	0.2147	1155.2193	0.17221	-403.160594	-403.152262	-403.151318	-403.19466	31.696	
O	-0.3492223041	 0.0758128866	-0.1217104821	-0.302027
C	-0.1968780542	 1.2526270504	 0.0215233577	 0.340997
C	-1.1033611504	 2.4455289503	 0.3528029487	-0.28874
N	 0.1263826713	 3.270409643	 0.5004655043	-0.365204
C	 1.0177844011	 2.1907696739	-0.0430137648	 0.233148
C	 2.258794534	 1.8666561222	 0.8321214176	-0.262912
C	 3.4989377966	 2.0113124528	-0.0812731999	-0.201003
C	 3.0185023215	 2.9018712638	-1.2382315826	-0.205641
C	 1.5838940417	 2.4035662765	-1.4696417802	-0.268423
H	-1.7652314369	 2.7062744072	-0.4849068888	 0.121615
H	-1.7085565821	 2.362271526	 1.2621609375	 0.132037
H	 0.1190347084	 4.1107592575	-0.0680784666	 0.216811
H	 2.2731237933	 2.5852817305	 1.6556029748	 0.11853
H	 2.1840069987	 0.867104117	 1.269827631	 0.115498
H	 4.3632623508	 2.4220755474	 0.447369028	 0.098957
H	 3.7958174963	 1.0320869613	-0.4737649003	 0.105316
H	 3.0067916041	 3.9546484087	-0.9289410163	 0.099162
H	 3.6447399704	 2.8299108211	-2.1320380628	 0.098744
H	 1.6124952921	 1.4352250399	-1.9849515875	 0.120783
H	 0.9600967674	 3.0752372242	-2.0678526076	 0.092351
25.9076	97.569	147.9507	224.2555	266.2395	385.1709	404.9509	531.3862	548.1356	574.7857	668.222	722.7239	743.4807	829.4972	857.3912	888.265	911.6195	914.46	965.3253	990.4936	1000.1671	1024.2624	1047.0421	1051.1051	1108.6345	1132.9396	1150.5341	1209.0892	1217.6417	1246.7588	1254.6097	1283.1139	1311.9229	1328.7617	1338.2979	1350.7109	1363.6509	1474.7808	1478.0473	1479.4539	1490.6632	1507.6454	1905.9162	3010.2443	3027.3065	3031.0602	3041.6518	3061.074	3067.7071	3080.9881	3087.8298	3094.0721	3111.6707	3524.2016
O=C1CNC11CCCC1	O=C1CNC21CCCC2	
InChI=1S/C7H11NO/c9-6-5-8-7(6)3-1-2-4-7/h8H,1-5H2	InChI=1S/C7H11NO/c9-6-5-8-7(6)3-1-2-4-7/h8H,1-5H2
