23
gdb 93777	2.76354	1.25897	0.98277	1.1141	89.02	-0.2337	0.0281	0.2618	1322.0029	0.20525	-388.314636	-388.304977	-388.304033	-388.348474	37.082	
C	-0.090492638	 1.5128257869	-0.135878886	-0.413756
C	 0.0576744215	 0.0036686874	-0.0103462414	 0.123245
O	 0.7613737695	-0.4455918128	-1.1658242407	-0.261054
C	 0.7187013314	-1.8480645675	-1.3172500969	-0.152375
C	 0.989962994	-2.6126930289	-0.0436830811	 0.287039
C	 1.1974909388	-4.0931655982	-0.1954410382	-0.47859
C	 1.0203571576	-1.9726987043	 1.1258927468	-0.170128
C	 0.782015389	-0.4869303942	 1.259882356	-0.024689
C	 2.1001110551	 0.2558627587	 1.5467048886	-0.391417
H	 0.8849262099	 1.9951751646	-0.239391305	 0.128213
H	-0.6833036923	 1.7577487293	-1.0212208282	 0.11962
H	-0.5927992825	 1.9268864812	 0.7440810368	 0.111118
H	-0.9478920049	-0.4519832113	-0.009580712	 0.060826
H	-0.2588875444	-2.1634538032	-1.7312189414	 0.089972
H	 1.4718340605	-2.097656879	-2.0756722654	 0.109779
H	 0.3334634793	-4.5698507797	-0.67699294	 0.123098
H	 2.0664939805	-4.3125679234	-0.8293585899	 0.123723
H	 1.3518511273	-4.5758758596	 0.7730742234	 0.123297
H	 1.2403823215	-2.5247969325	 2.038155579	 0.075433
H	 0.1035103912	-0.3216223368	 2.109400038	 0.069791
H	 2.7496318751	 0.2223852455	 0.6671861697	 0.128298
H	 1.9279885926	 1.3030592733	 1.8132340776	 0.110487
H	 2.6341813473	-0.2156545853	 2.3777896604	 0.108072
100.1084	135.5903	183.8963	213.2933	233.0621	255.4305	272.2364	290.2776	355.362	381.1266	428.8558	476.2785	529.9678	606.0407	700.3221	751.4614	850.624	864.8826	898.9003	949.5335	980.6667	1001.075	1012.7957	1041.8312	1084.8009	1092.6345	1106.3002	1139.4855	1153.0274	1180.2157	1196.0086	1273.5814	1317.8047	1330.4811	1357.9783	1373.919	1388.7403	1402.3736	1408.7635	1413.3204	1415.0489	1478.2695	1481.8325	1484.5201	1491.2133	1494.785	1502.7935	1510.1673	1742.6748	2916.0522	2946.7973	2999.3692	3013.2386	3036.0773	3037.4291	3045.1705	3058.1248	3101.7453	3111.4859	3116.1009	3117.4433	3125.2399	3135.8925
CC1OCC(C)=CC1C	C[C@H]1OCC(=C[C@H]1C)C	
InChI=1S/C8H14O/c1-6-4-7(2)8(3)9-5-6/h4,7-8H,5H2,1-3H3	InChI=1S/C8H14O/c1-6-4-7(2)8(3)9-5-6/h4,7-8H,5H2,1-3H3/t7-,8-/m1/s1
