16
gdb 28911	2.39313	1.85013	1.04728	2.0141	76.54	-0.1972	0.0102	0.2074	1077.6743	0.127705	-434.140682	-434.132813	-434.131869	-434.172525	31.237	
N	-0.0517456724	 1.3946201596	 0.1667649649	-0.598374
C	-0.0047909386	 0.0104402501	 0.0539234217	 0.291232
C	-1.2113046588	-0.6940624173	-0.0417232167	 0.124784
N	-2.4387027309	 0.0076122035	-0.0905001849	-0.622528
C	-1.1294259	-2.0852831468	-0.1406861975	 0.380758
O	-2.2988787926	-2.7701214539	-0.2616706639	-0.441164
N	-0.0056543525	-2.7866010107	-0.1369735536	-0.388782
C	 1.1376580318	-2.097530629	-0.0173713679	-0.015767
C	 1.1939952641	-0.7187468552	 0.0781422868	-0.216962
H	 0.8141608411	 1.8655320472	-0.0525633201	 0.248618
H	-0.8420050458	 1.8036353221	-0.3176443213	 0.256494
H	-2.5717391674	 0.5920919732	 0.7296298973	 0.246559
H	-3.217720524	-0.6351445399	-0.1636988017	 0.258192
H	-2.0471433618	-3.7014702	-0.3207939763	 0.295253
H	 2.05077308	-2.6861172242	-0.0030896064	 0.1016
H	 2.1471415478	-0.2073426487	 0.1596232697	 0.080086
151.3873	206.1459	246.6718	292.386	310.989	324.8103	463.3342	492.5535	511.2005	531.9501	552.6993	568.9065	632.2291	701.1757	719.1825	779.3151	817.6192	842.4356	881.395	948.7783	1004.6112	1082.3883	1132.6491	1176.0085	1269.5847	1304.0253	1327.8198	1364.1109	1386.4235	1495.9086	1541.4034	1626.3714	1634.857	1652.5329	1673.1301	3161.6563	3187.0079	3497.7204	3532.5674	3606.4264	3645.9218	3777.6611
NC1=C(N)C(O)=NC=C1	Nc1c(N)c(O)ncc1	
InChI=1S/C5H7N3O/c6-3-1-2-8-5(9)4(3)7/h1-2H,7H2,(H3,6,8,9)	InChI=1S/C5H7N3O/c6-3-1-2-8-5(9)4(3)7/h1-2H,7H2,(H3,6,8,9)
