19
gdb 64610	2.77158	1.41651	1.32216	0.6633	86.25	-0.234	0.0102	0.2442	1078.7061	0.158696	-348.716796	-348.708444	-348.7075	-348.749138	33.468	
C	-0.1112216735	 1.6011974366	 0.0243799662	-0.419553
C	 0.0011707761	 0.0592311125	 0.0138744527	 0.054656
C	 0.8173212831	-0.4617928906	-1.1731865291	-0.115586
C	 1.8009719636	-1.2801070651	-0.7984622794	-0.085191
C	 1.8856273264	-1.4088368363	 0.6845257221	-0.074261
C	 2.2312833059	-0.1185822482	 1.4048298327	-0.303875
C	 0.7882364366	-0.5090963409	 1.2182238968	-0.0559
C	-1.347471005	-0.5190964855	-0.0226228812	 0.329245
C	-2.4554852218	-0.9858500163	-0.0523259128	-0.491766
H	 0.8814184678	 2.057598301	 0.0521310317	 0.116798
H	-0.631138805	 1.9547835238	-0.8706575183	 0.122284
H	-0.6764653447	 1.9374703897	 0.8979980137	 0.124993
H	 0.5830602362	-0.1605484237	-2.1874559804	 0.099271
H	 2.4960338817	-1.768875951	-1.472054653	 0.098907
H	 2.1387732452	-2.3587687275	 1.1415297954	 0.089573
H	 2.6216623304	-0.1925190463	 2.4148779897	 0.109575
H	 2.6547726875	 0.6869714016	 0.8148067265	 0.113907
H	 0.2175224979	-0.7846558358	 2.0960120281	 0.095361
H	-3.4310362085	-1.4038734381	-0.0822088316	 0.191561
119.8955	142.4119	213.4304	236.4626	257.4482	367.8617	410.5469	465.7933	499.0284	566.1343	611.3957	618.7667	633.7543	714.1931	771.0095	783.1014	809.3932	853.0853	904.2218	933.1623	952.7113	976.8721	997.7722	1038.8448	1068.9898	1076.3936	1101.6967	1112.3918	1133.5447	1189.0581	1198.1196	1211.4929	1301.8075	1363.5818	1376.1348	1407.6458	1474.9808	1487.2462	1496.8384	1667.7079	2227.6909	3043.1951	3116.6269	3123.2258	3126.1924	3170.8343	3187.234	3189.8696	3212.5513	3214.2193	3502.752
CC1(C=CC2CC12)C#C	C[C@]1(C=C[C@H]2C[C@@H]12)C#C	
InChI=1S/C9H10/c1-3-9(2)5-4-7-6-8(7)9/h1,4-5,7-8H,6H2,2H3	InChI=1S/C9H10/c1-3-9(2)5-4-7-6-8(7)9/h1,4-5,7-8H,6H2,2H3/t7-,8+,9+/m0/s1
