20
gdb 114020	5.28563	0.58773	0.55951	4.2266	79.9	-0.2586	0.0239	0.2825	1955.9129	0.169318	-440.253122	-440.242806	-440.241862	-440.29075	35.46	
O	-0.2351420837	 1.3944346588	-0.7193156724	-0.417243
C	 0.0073992916	 0.172209658	-0.0359583189	-0.100686
C	-1.3128399452	-0.5457292448	 0.0836195982	 0.001139
C	-1.8254438588	-1.4179826143	-1.0320221906	-0.274824
C	-1.4365813028	-2.0416337172	 0.2849745176	-0.023974
C	-0.2450863106	-2.9531811418	 0.385463107	-0.102613
O	-0.6636070713	-4.2686354749	-0.0003347489	-0.180039
C	 0.1112932397	-5.2915984147	 0.4013017198	 0.131895
N	-0.1280981354	-6.4651592119	 0.0016390504	-0.439676
H	 0.5832454843	 1.8998398985	-0.727959002	 0.286291
H	 0.7361262531	-0.4454757459	-0.5835538209	 0.081585
H	 0.4257033711	 0.3590805157	 0.9667329521	 0.086487
H	-2.0572694943	 0.0484209665	 0.6062049446	 0.097293
H	-2.8754427938	-1.3731828377	-1.2960183223	 0.12002
H	-1.1615445495	-1.5855003114	-1.874541262	 0.118904
H	-2.2546577913	-2.356356777	 0.926639003	 0.098039
H	 0.5678441117	-2.6273128639	-0.2750737765	 0.106625
H	 0.1442135214	-2.9790012752	 1.4132551019	 0.104608
H	 0.9171894796	-4.9905276167	 1.0867952497	 0.079134
H	 0.5356532744	-7.1142164802	 0.4190584203	 0.227034
22.3127	52.6266	83.0357	95.278	138.4437	202.0808	250.9673	276.5031	295.4235	391.9689	449.1762	530.3634	656.8263	796.5655	821.0358	842.2367	886.7647	905.1249	949.1803	991.7792	1044.06	1045.6712	1065.0386	1072.8581	1078.5998	1128.7099	1141.2927	1169.0591	1190.9276	1239.2036	1261.8656	1274.4413	1283.5316	1307.0313	1364.0772	1396.6862	1421.7267	1443.5559	1472.6389	1499.5235	1508.7672	1522.8281	1747.4566	2962.2083	2989.686	2995.1987	3011.9481	3048.7677	3133.9525	3144.7026	3154.6799	3220.9557	3516.7076	3825.8149
OCC1CC1COC=N	OC[C@H]1C[C@H]1CO[CH][NH]	
InChI=1S/C6H11NO2/c7-4-9-3-6-1-5(6)2-8/h4-8H,1-3H2	InChI=1S/C6H11NO2/c7-4-9-3-6-1-5(6)2-8/h4-8H,1-3H2/t5-,6+/m1/s1
