20
gdb 87282	2.18041	1.43438	1.00923	2.9363	80.12	-0.2418	-0.0232	0.2186	1247.6748	0.16948	-403.121488	-403.112127	-403.111183	-403.155893	34.677	
C	-0.1776328934	 1.3146415459	-0.2046329248	-0.407236
C	 0.1354471104	-0.1293459643	 0.1131226054	-0.017028
N	 1.5064309559	-0.5952453819	-0.0676528489	-0.371815
C	 0.9371191905	-0.6187265325	 1.296962738	 0.160593
C	 1.5524235649	 0.4030639323	 2.2045047195	 0.138674
O	 1.4690026395	 0.3733266205	 3.4071525196	-0.264206
C	 0.5441803338	-1.8982355423	 1.9802692726	-0.046224
C	 0.2320785643	-3.1617167976	 1.2246625728	-0.302462
C	 1.4941864395	-3.0684289644	 2.0466957866	-0.265574
H	 0.6703007442	 1.9688198225	 0.0058214142	 0.131606
H	-0.4218312882	 1.4181375553	-1.2673963798	 0.125326
H	-1.0403172876	 1.6624247442	 0.3729999577	 0.127118
H	-0.6550993196	-0.8275339971	-0.1613624013	 0.096663
H	 1.5340471326	-1.5337067025	-0.458791899	 0.236201
H	 2.1055664752	 1.2069245505	 1.6746272253	 0.085355
H	-0.0365242084	-1.718854839	 2.8786955711	 0.109291
H	-0.5821282242	-3.7794843542	 1.5864201011	 0.120056
H	 0.3315802763	-3.1714924946	 0.1427182187	 0.104818
H	 2.4344849904	-2.9867728951	 1.5110673505	 0.116726
H	 1.5576608941	-3.6274198758	 2.9729377706	 0.122119
64.337	100.4613	151.7693	172.901	195.9885	244.6541	283.8985	311.2529	444.1705	461.119	508.1903	587.7566	682.3028	764.4672	786.4608	828.8354	856.1008	911.2447	943.4733	963.7455	1007.5735	1044.2925	1059.0977	1062.0086	1076.0416	1081.7078	1115.9624	1134.3741	1156.4352	1194.6264	1226.2627	1231.0007	1284.7504	1314.8378	1407.3795	1411.3473	1419.8995	1456.3601	1472.6172	1488.4308	1501.1082	1511.0507	1817.3616	2912.4399	3039.8886	3099.6467	3107.5613	3123.4927	3135.3847	3138.3647	3169.0108	3203.4772	3223.8789	3502.1456
CC1NC1(C=O)C1CC1	C[C@H]1N[C@]1(C=O)C1CC1	
InChI=1S/C7H11NO/c1-5-7(4-9,8-5)6-2-3-6/h4-6,8H,2-3H2,1H3	InChI=1S/C7H11NO/c1-5-7(4-9,8-5)6-2-3-6/h4-6,8H,2-3H2,1H3/t5-,7+/m1/s1
