22
gdb 112546	2.71406	1.09235	0.99203	3.4302	84.68	-0.2378	0.0414	0.2792	1369.8284	0.192563	-404.389013	-404.378569	-404.377625	-404.424786	37.563	
C	-0.2551055615	 1.5502078604	-0.0405117006	-0.378169
C	 0.2103332503	 0.0931191818	 0.0326413743	-0.15584
N	 0.8089657522	-0.3796941234	-1.194313717	-0.077987
C	 0.2644159113	-0.6294145108	-2.5318379875	-0.224331
C	 1.6910263572	-1.1239465686	-2.9534081006	 0.161128
C	 1.7889854228	-2.60848224	-3.2981059682	-0.44058
C	 2.4090406823	-0.2424040403	-3.9731032537	-0.441014
C	 2.0797055087	-0.8085215479	-1.4827771481	 0.387044
O	 3.0786608485	-0.8933689871	-0.8128072016	-0.392615
H	 0.5843707812	 2.2150205593	-0.2636065079	 0.13047
H	-1.0149653281	 1.6866622921	-0.8168312058	 0.120068
H	-0.6942905813	 1.8569262364	 0.9137481704	 0.121262
H	 0.976310675	-0.027086633	 0.8052420979	 0.140464
H	-0.6332424936	-0.556745533	 0.3046987233	 0.10614
H	-0.5200116219	-1.395528622	-2.5550823095	 0.102632
H	-0.0893361044	 0.2688723722	-3.0500549688	 0.104996
H	 1.3677003931	-2.8102735501	-4.2891748617	 0.1143
H	 2.8359269887	-2.9273540778	-3.3029580144	 0.135111
H	 1.2558428545	-3.2264045015	-2.5685045307	 0.119008
H	 2.3112904839	 0.8192805302	-3.7245613997	 0.11861
H	 3.4764830722	-0.4827525272	-3.9968008933	 0.134981
H	 2.0039925788	-0.3958479396	-4.9796036668	 0.114323
52.8301	69.3392	118.6279	186.3038	199.1119	220.3917	224.0778	275.5782	289.0266	319.5704	374.0647	404.1076	565.6254	596.3663	741.4773	755.2194	777.1902	826.0204	903.6756	939.4682	966.7533	982.5739	1008.7674	1035.0215	1073.9152	1107.9341	1151.6564	1188.3934	1217.5562	1240.6752	1246.9618	1315.4588	1343.2314	1387.8481	1400.7381	1408.5765	1410.5653	1436.2886	1479.8305	1482.4288	1486.6688	1493.4083	1503.0423	1503.8726	1504.2135	1527.6816	1865.8412	3006.8272	3019.7226	3027.8717	3032.2608	3038.8441	3065.5875	3084.5535	3096.1125	3098.8455	3106.7236	3109.7105	3110.985	3119.541
CCN1CC(C)(C)C1=O	CCN1CC(C)(C)C1=O	
InChI=1S/C7H13NO/c1-4-8-5-7(2,3)6(8)9/h4-5H2,1-3H3	InChI=1S/C7H13NO/c1-4-8-5-7(2,3)6(8)9/h4-5H2,1-3H3
