14
gdb 132915	3.18947	1.42272	0.98513	4.9117	71.24	-0.191	-0.0446	0.1463	1099.0868	0.10257	-474.190983	-474.183156	-474.182212	-474.223638	29.242	
N	-0.0100785057	 1.4544690063	 0.1552090022	-0.603089
C	-0.0541321229	 0.0518622421	 0.0466392066	 0.084197
C	-1.1802586421	-0.7126729774	 0.0446851118	-0.015684
N	-1.0930384887	-2.0717678533	 0.0044745594	-0.321188
C	 0.116502395	-2.7809345318	-0.0233140408	 0.421708
N	 0.0675041114	-4.0570703474	-0.0490111989	-0.578734
N	 1.2673392389	-1.9941121995	-0.0243878848	-0.367693
C	 1.1534763904	-0.7225246913	 0.0074936187	 0.318515
F	 2.2786463565	-0.0026000408	-0.0053315253	-0.074491
H	 0.8802684324	 1.8216827303	-0.1530447053	 0.257262
H	-0.7607110624	 1.9190831776	-0.3391857469	 0.248652
H	-2.1786031551	-0.2934288572	 0.0733806132	 0.135162
H	-1.9253615437	-2.6408610378	-0.0017101031	 0.272238
H	 1.015710276	-4.4247931999	-0.0693315667	 0.223145
76.0262	113.6009	220.1042	298.3787	330.6101	369.0583	396.4148	487.3745	546.893	584.6269	592.6386	716.0172	730.9513	752.503	757.506	814.0086	822.3214	890.131	950.2227	1076.8846	1142.9621	1214.332	1256.9266	1285.5575	1385.5428	1431.1463	1502.8542	1611.0771	1646.78	1711.5139	1750.7845	3210.1364	3528.7827	3543.0399	3637.6671	3637.8106
NC1=CNC(=N)N=C1F	NC1=CN[C@@H]([NH])N=C1F	
InChI=1S/C4H5FN4/c5-3-2(6)1-8-4(7)9-3/h1H,6H2,(H2,7,8,9)	InChI=1S/C4H6FN4/c5-3-2(6)1-8-4(7)9-3/h1,4,7-8H,6H2/t4-/m1/s1
