17
gdb 87110	2.88827	1.22396	0.99028	0.5771	72.03	-0.2477	-0.1011	0.1466	1214.9401	0.132418	-458.968299	-458.958923	-458.957979	-459.002676	33.998	
C	 0.2052331451	 1.6021425024	-0.0721885344	-0.409957
C	 0.0941408171	 0.0958649153	-0.0197347761	-0.028311
C	 1.2942031413	-0.7825835863	-0.1813844479	-0.328399
C	 0.6166133213	-0.6482263464	 1.1969885088	 0.269674
O	 1.2343195079	 0.1275678642	 2.1718605989	-0.472318
C	-0.1481874403	-1.8426302338	 1.635752675	 0.234337
O	-0.8943512599	-2.4845292111	 0.9230147966	-0.304618
C	 0.0875806079	-2.4032006532	 3.0462279021	 0.100081
O	 1.0391607246	-2.1370189139	 3.7389879302	-0.245844
H	 1.125719846	 1.9467467552	 0.4029813672	 0.138845
H	 0.2005636435	 1.9450372303	-1.1120090355	 0.121497
H	-0.6358713071	 2.0759743964	 0.443404319	 0.125409
H	-0.8308828124	-0.3250357555	-0.4041450438	 0.114968
H	 1.1877709884	-1.7288083581	-0.6996080306	 0.131561
H	 2.2679455987	-0.3079745297	-0.2379266021	 0.128449
H	 1.6858904854	-0.4709325503	 2.7828373802	 0.299615
H	-0.6721605977	-3.1584635956	 3.3316685124	 0.125009
55.54	123.3225	154.8389	179.6602	184.0903	263.6379	286.9296	348.8701	410.8986	450.4202	486.0958	514.6825	589.5529	658.6017	678.2902	756.904	863.4617	894.162	930.0647	1008.4661	1020.7946	1034.0652	1052.3757	1131.46	1169.9126	1197.114	1260.796	1318.5121	1362.1315	1372.2976	1411.8844	1428.8506	1470.7268	1493.0577	1500.9112	1765.8853	1804.5164	2946.4072	3042.1013	3102.6937	3131.5107	3134.631	3155.5899	3235.2029	3742.9133
CC1CC1(O)C(=O)C=O	C[C@H]1C[C@]1(O)C(=O)C=O	
InChI=1S/C6H8O3/c1-4-2-6(4,9)5(8)3-7/h3-4,9H,2H2,1H3	InChI=1S/C6H8O3/c1-4-2-6(4,9)5(8)3-7/h3-4,9H,2H2,1H3/t4-,6+/m0/s1
