18
gdb 106227	2.6658	1.47943	1.21698	1.8535	71.16	-0.2449	0.0056	0.2505	1081.716	0.14785	-439.077941	-439.069471	-439.068526	-439.111158	31.567	
C	-0.0506839113	 1.5188848861	-0.0647995519	-0.418342
C	 0.0659646122	 0.0164568186	 0.0457368161	-0.10489
C	 1.3455757551	-0.7483904873	-0.1656414881	 0.007566
O	 2.5601156258	-0.0176649744	-0.018652797	-0.203922
C	 2.582564438	 0.376112716	 1.276919205	 0.084152
N	 1.624775549	 0.0327613409	 2.0418082685	-0.312647
C	 0.700490714	-0.7229182044	 1.2158114782	 0.277358
C	 0.013949523	-1.8584977761	 1.9304528279	-0.149054
O	 0.9366829034	-2.7182936763	 2.5704972144	-0.418183
H	 0.7957135452	 2.0336003409	 0.3942023149	 0.133515
H	-0.0991428139	 1.8246447246	-1.1149137715	 0.124691
H	-0.9596832564	 1.8703372055	 0.433183074	 0.12638
H	-0.7881201174	-0.5254693021	-0.3565773548	 0.096523
H	 1.4441282476	-1.5893258332	-0.8401926973	 0.117656
H	 3.4451475524	 0.9681426489	 1.558513722	 0.14731
H	-0.709970952	-1.4412555535	 2.6489098656	 0.097184
H	-0.5460661346	-2.4683703673	 1.214147637	 0.103987
H	 1.4988597701	-2.1516027166	 3.112597377	 0.290719
84.6	127.4031	146.1766	206.2232	236.3523	288.6341	366.5422	409.4371	481.2876	555.905	632.2899	691.6317	721.6003	798.9769	877.3846	906.8025	933.3373	948.9778	986.6748	999.2952	1023.4492	1074.311	1102.3233	1109.4635	1130.795	1149.1213	1208.6745	1272.4389	1273.9837	1317.4301	1354.3467	1374.7739	1417.9539	1427.7786	1450.2636	1490.4554	1496.9446	1500.8456	1661.7665	2977.1117	3042.6488	3074.7108	3102.6079	3120.6753	3135.2343	3195.2848	3226.6909	3786.8811
CC1C2OC=NC12CO	C[C@H]1[C@H]2OC=N[C@@]12CO	
InChI=1S/C6H9NO2/c1-4-5-6(4,2-8)7-3-9-5/h3-5,8H,2H2,1H3	InChI=1S/C6H9NO2/c1-4-5-6(4,2-8)7-3-9-5/h3-5,8H,2H2,1H3/t4-,5+,6-/m0/s1
