17
gdb 110734	2.53337	1.29309	1.08485	3.4447	68.58	-0.2685	-0.0026	0.266	1166.9349	0.134457	-458.955934	-458.947063	-458.946119	-458.989926	32.122	
C	 0.0296549851	 1.5859529995	-0.0562616455	-0.497781
C	 0.0439100147	 0.0876380746	 0.0185273194	 0.072265
C	-0.1398095956	-0.7372899482	 1.3114986768	-0.105696
C	-1.2100868478	-1.7869944234	 1.5350093701	-0.107891
O	-0.8373215855	-2.7003189479	 2.5532069111	-0.410683
C	 1.0623683437	-0.9429199539	 0.4575849587	 0.031934
O	 0.7333016716	-1.8174247558	-0.6579000583	-0.269821
C	-0.1499313171	-0.8560877508	-1.1472047097	 0.424189
O	-0.7330693946	-0.8742685699	-2.1808540875	-0.322791
H	 0.6180788147	 1.9460908508	-0.9056811478	 0.139904
H	-0.9928177208	 1.9583423391	-0.1756186016	 0.144998
H	 0.4408753357	 2.0263402606	 0.856593491	 0.129383
H	 0.0636231923	-0.1296137034	 2.1924721716	 0.111634
H	-2.1266368869	-1.3022472624	 1.8853579371	 0.120344
H	-1.4479595338	-2.302206731	 0.5959905529	 0.119478
H	-0.1066301055	-3.2283093429	 2.2143581084	 0.290134
H	 2.1078887798	-0.8519623249	 0.7173173732	 0.130402
63.6873	114.8502	150.8552	176.358	230.288	263.4014	306.2731	334.5585	425.2875	516.5658	595.148	667.743	740.2503	758.1482	818.8992	880.1919	912.4897	933.8407	946.7671	1037.9583	1049.4534	1063.2875	1072.6699	1111.5715	1132.2926	1207.2147	1244.8943	1278.9309	1332.8055	1397.7153	1415.3812	1419.9444	1464.2977	1485.6125	1496.5314	1497.6451	1939.1333	3028.7625	3039.4031	3085.3343	3105.2384	3113.918	3130.7928	3220.5992	3812.6609
CC12C(CO)C1OC2=O	C[C@]12[C@@H](CO)[C@H]1OC2=O	
InChI=1S/C6H8O3/c1-6-3(2-7)4(6)9-5(6)8/h3-4,7H,2H2,1H3	InChI=1S/C6H8O3/c1-6-3(2-7)4(6)9-5(6)8/h3-4,7H,2H2,1H3/t3-,4+,6-/m0/s1
