15
gdb 75132	3.18567	1.30621	0.98515	0.8973	74.52	-0.24	-0.0618	0.1782	1152.1103	0.112325	-416.809997	-416.80156	-416.800616	-416.843241	31.502	
N	 0.0096895334	 1.3569845615	 0.2845376314	-0.568345
C	-0.072118108	 0.0147649352	 0.1061666431	 0.292114
N	-1.1256979524	-0.7135777904	 0.1670889901	-0.281312
C	-0.772663558	-2.1144365696	-0.0791999773	-0.182362
C	 0.7813823743	-2.2230473061	-0.1359306759	-0.311214
C	 1.3245567534	-3.0332286082	-1.2076439138	 0.325612
C	 1.7567072771	-3.6998833725	-2.1089622697	-0.445614
C	 1.1978527531	-0.7405875142	-0.1812582229	 0.34405
O	 2.2769126253	-0.2530630879	-0.3894446377	-0.311641
H	 0.870041802	 1.7917865131	-0.0099930529	 0.272378
H	-0.8342562866	 1.9032531347	 0.233988957	 0.267016
H	-1.195166898	-2.745979134	 0.7085433405	 0.120827
H	-1.2158132605	-2.4428461444	-1.025381016	 0.132106
H	 1.1500699807	-2.5978852311	 0.8298572673	 0.144923
H	 2.1466686843	-4.289262126	-2.9014866132	 0.201463
52.7974	129.0271	199.543	247.243	280.3358	348.1143	395.7149	436.8263	475.1332	504.8058	575.6602	608.0599	634.3754	636.6313	679.8169	717.0886	829.2852	920.5578	973.9264	1023.8552	1034.1315	1101.8345	1163.6359	1195.5917	1224.2921	1289.0153	1342.7634	1416.24	1498.1592	1609.4262	1727.4677	1841.8141	2242.0101	3009.4816	3046.2533	3081.1812	3504.9816	3592.0424	3715.7737
NC1=NCC(C#C)C1=O	NC1=NC[C@@H](C#C)C1=O	
InChI=1S/C6H6N2O/c1-2-4-3-8-6(7)5(4)9/h1,4H,3H2,(H2,7,8)	InChI=1S/C6H6N2O/c1-2-4-3-8-6(7)5(4)9/h1,4H,3H2,(H2,7,8)/t4-/m1/s1
