17
gdb 82423	2.4331	1.85836	1.22407	4.744	67.89	-0.2456	0.016	0.2616	1010.8019	0.138588	-455.148381	-455.140608	-455.139664	-455.180788	29.687	
N	 0.0854262507	 1.3384546223	 0.3701228524	-0.514483
C	-0.037139554	-0.0529819271	-0.0429241851	-0.123164
C	-1.4830115383	-0.4844753277	-0.0337607077	-0.026683
N	-2.2053588075	-0.243307149	-1.3021747146	-0.334301
C	-1.8633793519	-1.6151698164	-0.8983115612	-0.060139
C	-0.7783053665	-2.3008480385	-1.6932517035	-0.077392
O	 0.2805785752	-1.4343690095	-2.1054920359	-0.225248
C	 0.6411373313	-0.3363455735	-1.4008861759	 0.407441
O	 1.5125719473	 0.3701752477	-1.829974942	-0.33377
H	 1.0487382922	 1.6270467378	 0.2158551651	 0.244036
H	-0.4603977182	 1.9036165609	-0.2778161264	 0.23638
H	 0.5007424752	-0.6735456695	 0.691157357	 0.113234
H	-2.0088330341	-0.3191727468	 0.9022151919	 0.103711
H	-3.1884159095	-0.0594201209	-1.1232118535	 0.240901
H	-2.6604452545	-2.2794046461	-0.5720006355	 0.100169
H	-0.3594437581	-3.124090994	-1.0983295419	 0.117705
H	-1.1767422893	-2.7250922699	-2.6199115132	 0.131605
75.615	148.3744	224.4615	278.0342	308.7999	329.6678	447.3992	462.1227	533.1603	565.2137	660.104	740.985	810.996	836.1662	881.4394	882.5061	961.4072	983.5816	992.1676	1055.1615	1078.4756	1127.9013	1151.0286	1155.4207	1165.0236	1212.5053	1235.2768	1260.3216	1289.2053	1332.7755	1374.8407	1420.086	1429.4799	1478.053	1510.284	1672.0365	1838.1291	2991.0696	3017.1832	3081.4037	3136.7483	3155.6091	3476.4836	3518.316	3547.9816
NC1C2NC2COC1=O	N[C@H]1[C@H]2N[C@H]2COC1=O	
InChI=1S/C5H8N2O2/c6-3-4-2(7-4)1-9-5(3)8/h2-4,7H,1,6H2	InChI=1S/C5H8N2O2/c6-3-4-2(7-4)1-9-5(3)8/h2-4,7H,1,6H2/t2-,3-,4-/m0/s1
