23
gdb 89539	4.22738	1.00182	0.96184	0.1641	90.47	-0.2394	0.0896	0.329	1367.2909	0.206494	-351.119895	-351.111287	-351.110342	-351.153152	34.193	
C	-0.9161842838	 1.0600925544	-0.127134054	-0.405177
C	 0.1677389847	 0.0009673634	-0.0028239317	 0.063645
C	 1.4676060365	 0.168102709	-0.8502454002	-0.325294
C	 2.2750501305	-0.2129616124	 0.4010545687	 0.397871
C	 1.0388066978	-0.0177002453	 1.2907917639	-0.33259
C	 3.212494901	-1.3686224869	 0.5920022858	-0.121359
C	 4.1585807312	-1.508268795	-0.6062037561	-0.23171
C	 4.6297434811	-0.0316719739	-0.3904292861	-0.229867
C	 3.6813498518	 0.0813427922	 0.8108194256	-0.138022
H	-0.5058978739	 2.062625996	 0.041447827	 0.110319
H	-1.3707880206	 1.0503637444	-1.1242893156	 0.112338
H	-1.7160774137	 0.9006751201	 0.6049804456	 0.111881
H	-0.2611946356	-0.9917685225	-0.1749105412	 0.07085
H	 1.5680812754	-0.4705897795	-1.732204334	 0.09546
H	 1.6283854178	 1.2088749898	-1.1550778272	 0.093444
H	 1.0359068709	 0.952813712	 1.8009870515	 0.092961
H	 0.8217738504	-0.7957435339	 2.028690335	 0.094879
H	 3.0087334189	-2.1407195675	 1.3264242925	 0.07675
H	 4.9638649919	-2.2254024534	-0.4317813058	 0.101115
H	 3.689780695	-1.7445224178	-1.5676599727	 0.092577
H	 5.6845540028	 0.0278167852	-0.1133339402	 0.100185
H	 4.4476051136	 0.6707883713	-1.2109760827	 0.093815
H	 3.8999353065	 0.5980703	 1.7393040519	 0.075928
56.342	153.7694	178.4068	231.9687	251.3965	311.0854	347.4695	420.0556	446.6678	543.1661	701.2901	723.0335	782.6733	815.5568	839.858	860.0018	891.7159	896.8374	926.8467	943.0388	969.4326	978.0113	992.4143	1023.6491	1057.9401	1067.1898	1087.1558	1099.7836	1136.4696	1166.973	1181.1534	1221.2321	1231.5647	1234.0498	1243.304	1251.2148	1253.6308	1285.5563	1290.0001	1296.033	1366.116	1410.5879	1441.4165	1472.3526	1481.664	1492.6895	1495.7272	1498.1327	1502.5168	3020.0685	3028.5825	3033.8323	3038.0844	3042.8877	3046.5714	3082.3863	3085.7159	3088.93	3092.1298	3094.2182	3110.6044	3158.0496	3169.3364
CC1CC2(C1)C1CCC21	C[C@H]1C[C@@]2(C1)[C@H]1CC[C@@H]21	
InChI=1S/C9H14/c1-6-4-9(5-6)7-2-3-8(7)9/h6-8H,2-5H2,1H3	InChI=1S/C9H14/c1-6-4-9(5-6)7-2-3-8(7)9/h6-8H,2-5H2,1H3/t6-,7-,8+,9-/m1/s1
