17
gdb 47546	2.88684	1.55758	1.10335	3.8138	68.31	-0.262	0.0064	0.2684	1067.8231	0.137257	-458.973879	-458.966312	-458.965368	-459.006394	28.784	
O	 0.0096843324	-0.0405414987	 0.487327444	-0.303995
C	-0.043196073	 1.079708183	 0.0618164751	 0.392283
C	-1.3376342918	 1.8814521508	-0.0168354605	-0.336257
C	-1.6906937576	 2.3852444737	-1.404938236	-0.060706
C	-2.1120448838	 3.8357808449	-1.5682141829	-0.331313
C	-0.7541434932	 3.3949307569	-2.0044562005	 0.10645
O	 0.3323598234	 3.7766859811	-1.1972760548	-0.23048
C	 1.322811309	 2.7999759363	-1.1598302663	 0.035029
O	 1.1268135813	 1.7092520062	-0.2529743127	-0.240836
H	-2.1248075429	 1.2367736843	 0.3777299598	 0.134524
H	-1.2249715513	 2.7311917621	 0.663706945	 0.135233
H	-2.1338420012	 1.6526674702	-2.0719336111	 0.105181
H	-2.8317348891	 4.0885898285	-2.3382458259	 0.124292
H	-2.1726917034	 4.4389775753	-0.6692349965	 0.133221
H	-0.5200509393	 3.3588865935	-3.0672744168	 0.099993
H	 1.4802218484	 2.3693204486	-2.159102897	 0.105416
H	 2.2365218123	 3.2820093934	-0.8081804527	 0.131966
75.1392	101.1764	238.4564	295.1517	333.094	371.6001	464.409	491.09	566.7539	660.7894	716.5234	785.512	812.8909	843.1768	874.9157	918.2774	993.9683	1043.0425	1047.8482	1069.6812	1082.2319	1124.17	1131.341	1142.3291	1174.58	1200.5706	1243.751	1278.8202	1321.6513	1327.5075	1375.6502	1411.2219	1465.7802	1468.2505	1487.0395	1513.3251	1839.6568	3001.3948	3061.5401	3115.3738	3120.0916	3124.221	3141.4578	3161.9038	3231.6064
O=C1CC2CC2OCO1	O=C1C[C@H]2C[C@H]2OCO1	
InChI=1S/C6H8O3/c7-6-2-4-1-5(4)8-3-9-6/h4-5H,1-3H2	InChI=1S/C6H8O3/c7-6-2-4-1-5(4)8-3-9-6/h4-5H,1-3H2/t4-,5-/m1/s1
