19
gdb 116124	2.52444	1.25632	0.8834	4.5816	72.67	-0.2137	0.0347	0.2484	1293.5294	0.16163	-456.370261	-456.361469	-456.360525	-456.404055	32.805	
O	-0.0911649439	 1.4293979787	 0.118530594	-0.425224
C	 0.0207746169	 0.0211685425	-0.0335784835	-0.085712
C	-1.3938820972	-0.5493006465	 0.0005905423	 0.039377
C	-1.41786693	-2.0733535638	-0.1686841811	-0.183292
N	-2.7234154805	-2.6546437928	 0.1220469915	-0.29187
C	-3.1358064824	-2.3627264377	 1.4943756167	-0.282951
C	-2.8953603512	-0.9356784292	 1.9996790049	 0.382192
O	-3.4179296789	-0.5209909328	 3.0180125037	-0.378418
N	-2.0285973543	-0.1845027558	 1.2596845048	-0.311557
H	 0.7846779036	 1.7942042002	 0.2729902508	 0.295805
H	 0.4986225099	-0.2431219164	-0.9897004094	 0.094143
H	 0.6096594115	-0.424058599	 0.7822190802	 0.098336
H	-1.9465426096	-0.0933740123	-0.8378292732	 0.085941
H	-1.1209362054	-2.3340452271	-1.1894954909	 0.109704
H	-0.6876814615	-2.5304155247	 0.5129768013	 0.110297
H	-3.4095953424	-2.2771613217	-0.5247417803	 0.221733
H	-4.1992131201	-2.5791685359	 1.6195059992	 0.134712
H	-2.6011008599	-3.0336957505	 2.1807387614	 0.134352
H	-1.8909046847	 0.7667459548	 1.5735772278	 0.252434
90.4165	104.783	125.9899	199.0946	251.317	293.7215	372.3721	437.3091	449.4925	489.5754	534.1969	547.6892	655.3877	684.2357	782.9421	848.3497	930.7768	936.6352	961.4425	1018.672	1058.5603	1083.8878	1117.0278	1159.4719	1172.9339	1196.9974	1249.9532	1264.8897	1323.303	1326.8007	1339.4893	1354.2279	1381.7372	1410.2266	1452.9276	1455.4514	1474.7987	1482.1176	1492.2237	1511.3939	1788.5425	2960.5204	2977.	3017.5834	3021.7033	3024.6949	3081.8652	3110.1519	3507.511	3596.7768	3838.101
OCC1CNCC(=O)N1	OC[C@H]1CNCC(=O)N1	
InChI=1S/C5H10N2O2/c8-3-4-1-6-2-5(9)7-4/h4,6,8H,1-3H2,(H,7,9)	InChI=1S/C5H10N2O2/c8-3-4-1-6-2-5(9)7-4/h4,6,8H,1-3H2,(H,7,9)/t4-/m1/s1
