15
gdb 42783	2.6123	1.70231	1.44967	3.9885	72.49	-0.2473	-0.063	0.1843	935.0069	0.114106	-420.659216	-420.652441	-420.651497	-420.6904	26.727	
O	-0.0319879424	 0.0275307963	 0.045519664	-0.294931
C	-0.0362258938	 1.2151289851	-0.005320224	 0.428447
C	-1.1250386835	 2.3265098796	 0.0892995578	-0.19237
C	-0.0136238248	 3.1471425195	 0.8173899503	-0.244312
C	 1.0458129076	 2.3245792303	 0.00774998	-0.250879
C	 1.1525746306	 2.9088400494	-1.4121566083	 0.409246
O	 2.2116378851	 3.0809585125	-1.9713550169	-0.33643
C	-0.1719279661	 3.1844512933	-2.0167766258	-0.182611
C	-1.2704779609	 2.8679028801	-1.312043649	-0.04737
H	-2.07106939	 2.1123424812	 0.5839954753	 0.098439
H	-0.0292923969	 4.2238981075	 0.6401751779	 0.124612
H	 0.0351529081	 2.9330698941	 1.8869775917	 0.127143
H	 2.0323723696	 2.1118837769	 0.4162136505	 0.111509
H	-0.1987783698	 3.5899163206	-3.0213600184	 0.121992
H	-2.2668557027	 2.9656366738	-1.7301134349	 0.127516
124.9203	155.1966	340.5303	359.166	434.6605	464.9197	493.7162	555.1258	643.7131	697.1377	749.7737	808.6036	830.5802	859.3453	914.9605	948.7831	954.9566	998.7055	1009.262	1069.6573	1087.2748	1126.1321	1149.6152	1199.1024	1201.6561	1239.4677	1274.1612	1302.7858	1380.2095	1490.1854	1641.257	1789.0082	1908.7636	3073.2274	3131.3525	3138.3498	3141.4121	3185.8705	3213.0665
O=C1C2CC1C(=O)C=C2	O=C1[C@H]2C[C@@H]1C(=O)C=C2	
InChI=1S/C7H6O2/c8-6-2-1-4-3-5(6)7(4)9/h1-2,4-5H,3H2	InChI=1S/C7H6O2/c8-6-2-1-4-3-5(6)7(4)9/h1-2,4-5H,3H2/t4-,5-/m1/s1
