19
gdb 111182	2.8556	1.22016	0.97709	0.86	83.	-0.2487	0.0432	0.2919	1254.9806	0.158317	-385.792215	-385.783645	-385.7827	-385.825541	32.762	
C	 0.1340987672	 1.3062632663	-0.2246927249	-0.246102
O	 0.0204975346	 0.0321391904	 0.3723424002	-0.256597
C	-1.2402625956	-0.5444402802	 0.2028382893	 0.180732
C	-1.5536222657	-1.3530342915	-1.1042114494	-0.103022
C	-0.5308524765	-2.4121024746	-0.5975518571	-0.243856
C	-1.3643881282	-2.0171427483	 0.6588951869	-0.097259
C	-2.6342477699	-2.1140147524	-0.259844123	-0.179312
C	-3.8721261122	-1.4606970152	 0.1166821502	 0.309369
C	-4.9210868668	-0.9529718679	 0.41605887	-0.446534
H	 1.1282878347	 1.689726956	 0.0159233596	 0.128063
H	 0.0260705415	 1.2595842066	-1.3183767865	 0.108967
H	-0.6212416914	 2.0047578729	 0.1666944894	 0.109467
H	-2.0313721521	 0.1383215537	 0.5366420684	 0.078718
H	-1.6868959077	-0.9776296048	-2.119271904	 0.077465
H	-0.6624251999	-3.4318127663	-0.9687296954	 0.089464
H	 0.5134713323	-2.1073037593	-0.5908465	 0.116793
H	-1.2735746749	-2.4014149236	 1.6750066318	 0.081967
H	-2.8270449055	-3.1284835225	-0.6200551948	 0.100127
H	-5.8432432941	-0.4996291591	 0.6835566592	 0.191548
82.3977	127.0956	154.7334	185.9545	227.6045	339.8332	404.3368	459.3194	498.1731	510.2962	616.7532	621.6431	639.2688	776.9942	841.9211	858.2104	888.2871	904.7264	938.6887	1019.9446	1021.9356	1046.6362	1075.6667	1088.8665	1103.2438	1118.7616	1166.7604	1183.5461	1195.7153	1213.4278	1224.1302	1234.1749	1248.47	1268.6807	1373.8702	1415.3229	1483.0112	1488.7887	1506.6595	1517.2385	2228.6247	2980.3078	3029.3343	3035.9176	3066.3353	3069.027	3109.8047	3117.2799	3117.7895	3164.0871	3503.5531
COC1C2CC1C2C#C	CO[C@H]1[C@H]2C[C@@H]1[C@H]2C#C	
InChI=1S/C8H10O/c1-3-5-6-4-7(5)8(6)9-2/h1,5-8H,4H2,2H3	InChI=1S/C8H10O/c1-3-5-6-4-7(5)8(6)9-2/h1,5-8H,4H2,2H3/t5-,6-,7+,8-
