21
gdb 111581	3.12039	1.45447	1.33046	1.029	81.55	-0.2399	0.0781	0.318	1073.1961	0.184203	-387.040674	-387.032898	-387.031953	-387.072984	30.844	
C	 0.171513322	 1.3370483768	 0.1044951993	-0.23933
O	-0.2796023351	 0.0392298505	-0.2133381751	-0.241125
C	 0.5141852176	-0.607810411	-1.172392373	 0.167351
C	 1.9174804566	-1.1519809349	-0.7784163608	-0.091856
C	 1.9139455202	-1.9093428489	 0.5708110737	-0.225892
C	 1.2401575571	-3.128693424	-0.1075449477	-0.031873
C	-0.2752309381	-2.9201805045	-0.3555635909	-0.221789
C	 0.0391248653	-2.0168050228	-1.5717746869	-0.096226
C	 1.5402784966	-2.4903505077	-1.5153467693	-0.042947
H	 1.1832904064	 1.3289637715	 0.5363275558	 0.109084
H	 0.1821584854	 1.9901280858	-0.782590458	 0.102976
H	-0.5210774987	 1.7530897571	 0.8402180332	 0.125377
H	 0.6145167128	 0.0206872644	-2.0731675208	 0.058224
H	 2.7836055163	-0.5339378489	-1.0179537916	 0.057487
H	 2.9353350532	-2.1463892663	 0.8830877159	 0.093404
H	 1.3857623601	-1.4426874137	 1.4081761194	 0.098423
H	 1.5685611777	-4.121867338	 0.2013125069	 0.060014
H	-0.7474158228	-3.8503522031	-0.6855243865	 0.093313
H	-0.8705021028	-2.4851000518	 0.4517810432	 0.105123
H	-0.6127039703	-2.0897199839	-2.4427310085	 0.061322
H	 2.0960628004	-2.9486512167	-2.3292035385	 0.058939
85.9601	146.5627	179.0659	230.6898	312.0578	366.8776	477.1357	556.9311	618.331	631.4334	759.3972	822.6342	835.5056	841.9061	853.7174	931.8751	939.2007	955.1943	991.9816	1002.9013	1044.9372	1058.2695	1072.4933	1106.0374	1115.2885	1121.2233	1155.4186	1167.4658	1182.3642	1185.2649	1210.2086	1233.4966	1240.5847	1252.2485	1286.5604	1291.6326	1297.6011	1339.8517	1345.655	1381.1135	1473.3322	1479.7259	1486.7876	1490.1689	1508.7349	2956.8658	2975.1455	3022.9997	3043.3766	3049.5602	3088.8807	3091.5541	3097.2144	3098.2168	3105.7827	3113.0567	3147.0903
COC1C2CC3CC1C23	CO[C@H]1[C@H]2C[C@H]3C[C@@H]1[C@@H]23	
InChI=1S/C8H12O/c1-9-8-5-2-4-3-6(8)7(4)5/h4-8H,2-3H2,1H3	InChI=1S/C8H12O/c1-9-8-5-2-4-3-6(8)7(4)5/h4-8H,2-3H2,1H3/t4-,5-,6+,7+,8-
