19
gdb 104799	2.65738	1.35537	1.12704	4.4749	70.65	-0.2455	0.0514	0.2969	1130.3312	0.158438	-460.106696	-460.09795	-460.097006	-460.13988	33.456	
O	 0.256837086	 1.2783952035	-0.3253431004	-0.431955
C	 0.085666423	-0.059531042	 0.1034183636	-0.112998
C	-1.3746967476	-0.5151022347	 0.0532701243	 0.27006
C	-2.216977994	 0.1119510077	 1.1555236914	-0.152152
O	-2.228165237	 1.5289413005	 0.9693316013	-0.423608
C	-2.0699198126	-0.4239449136	-1.3601832544	-0.299086
C	-2.2607420213	-1.9438333557	-1.3166429715	 0.035037
O	-0.9597571536	-2.5349750637	-1.18548624	-0.245506
C	-1.5997990733	-2.048033742	-0.0060988279	-0.042679
H	-0.4039842411	 1.8022784395	 0.1457402499	 0.288559
H	 0.6727973298	-0.6857813916	-0.5736515003	 0.119819
H	 0.4797735698	-0.2121760076	 1.1245939942	 0.069496
H	-3.2423663764	-0.2888653633	 1.1255614478	 0.092607
H	-1.785670321	-0.1459704087	 2.1356102305	 0.095429
H	-2.6682834965	 1.9365428196	 1.7209968791	 0.296011
H	-3.0030424504	 0.142456602	-1.3282185586	 0.111993
H	-1.4442892197	-0.0515271599	-2.1727155712	 0.126628
H	-3.0329659089	-2.5575794842	-1.7655556408	 0.104529
H	-1.7328456752	-2.747264936	 0.8130532331	 0.097815
103.5466	142.7057	166.4288	223.5821	231.7386	283.4513	357.0805	379.5456	423.068	467.437	546.4069	561.7918	695.2683	791.6379	838.4687	862.0174	910.2109	947.8667	958.7697	970.6866	995.8986	1032.9588	1040.3866	1069.4234	1091.0474	1119.5356	1159.1055	1213.7525	1222.2622	1233.6579	1245.5979	1269.8227	1304.278	1319.7567	1369.395	1390.8317	1457.7369	1465.9379	1477.396	1510.7496	1523.6941	2937.251	2969.1534	3002.9118	3079.8138	3092.2357	3138.1883	3166.6056	3190.3561	3762.4996	3832.3223
OCC1(CO)CC2OC12	OCC1(CO)C[C@H]2O[C@@H]12	
InChI=1S/C6H10O3/c7-2-6(3-8)1-4-5(6)9-4/h4-5,7-8H,1-3H2	InChI=1S/C6H10O3/c7-2-6(3-8)1-4-5(6)9-4/h4-5,7-8H,1-3H2/t4-,5-/m1/s1
