16
gdb 74132	2.0678	1.73196	0.96703	4.1699	75.32	-0.2732	-0.057	0.2162	1174.6548	0.124268	-437.952102	-437.943943	-437.942999	-437.985284	30.074	
C	 0.2626647908	 1.4845645951	 0.0840713228	-0.477155
C	-0.0184351508	 0.0182697462	-0.0330122138	 0.292869
C	 0.0731514166	-0.6592376006	-1.1830222121	-0.296365
C	-0.2624881082	-2.0823025615	-1.2979646071	 0.426773
O	-0.340903489	-2.6904697917	-2.32791186	-0.317541
O	-0.5019749395	-2.7717912235	-0.1168947851	-0.24227
C	-0.3514135944	-2.1960705878	 1.1278649092	 0.384081
N	-0.1759532108	-2.9047392357	 2.1549984152	-0.489355
C	-0.4662508925	-0.6962701958	 1.2114591427	-0.379749
H	 1.0798075292	 1.6641087337	 0.793368687	 0.146188
H	 0.5323033157	 1.9244213793	-0.8782468226	 0.139935
H	-0.6129242368	 2.0157030408	 0.4778641357	 0.143211
H	 0.3546940386	-0.1868524511	-2.1166500335	 0.123093
H	-0.1522276936	-3.8954420821	 1.9052786017	 0.234971
H	 0.0908497925	-0.3662657674	 2.092177133	 0.154668
H	-1.5170482077	-0.4343927078	 1.409141457	 0.156645
75.2841	124.9531	148.1733	199.2878	292.9595	377.1428	428.2877	456.976	483.611	555.3628	586.9259	615.956	724.7518	864.8945	880.0637	916.9165	931.0302	943.3224	965.3028	1030.3321	1062.5323	1114.0649	1150.0962	1197.9289	1220.3102	1307.9742	1351.9776	1381.0582	1412.7564	1448.2311	1476.0699	1481.086	1715.6471	1763.5064	1848.8073	3003.6897	3025.807	3075.7431	3098.2007	3130.0971	3207.2895	3473.1523
CC1=CC(=O)OC(=N)C1	CC1=CC(=O)O[C]([NH])C1	
InChI=1S/C6H7NO2/c1-4-2-5(7)9-6(8)3-4/h3,7H,2H2,1H3	InChI=1S/C6H7NO2/c1-4-2-5(7)9-6(8)3-4/h3,7H,2H2,1H3
