18
gdb 9614	3.19412	1.451	1.19198	1.7911	74.89	-0.2413	0.0465	0.2878	1069.9545	0.150859	-347.760515	-347.751471	-347.750526	-347.793719	33.914	
C	-0.2572335352	 1.5552086738	 0.09542757	-0.397922
C	 0.1787244427	 0.0971654505	-0.0900281182	-0.227737
C	 0.7988016693	-0.4950162452	 1.1587552997	 0.410458
O	 1.9936158834	 0.1173873642	 1.5726756943	-0.470917
C	-0.0635688359	-1.0906794136	 2.23722991	-0.348095
C	 0.8240562173	-1.9954106075	 1.3758722813	-0.256126
C	 0.2477985883	-2.9083929043	 0.4348121244	 0.334276
C	-0.2316094366	-3.6824569406	-0.3520826556	-0.457739
H	 0.5954621128	 2.1979292236	 0.3410816043	 0.111337
H	-0.7044364909	 1.9492785591	-0.8215354258	 0.120006
H	-0.9974283758	 1.6515082044	 0.8974793647	 0.116748
H	-0.676693654	-0.5168823439	-0.3874891934	 0.111484
H	 0.9123197576	 0.029170929	-0.902160399	 0.110855
H	 1.7699153363	 0.9719885862	 1.9573259452	 0.284968
H	 0.2468805297	-0.9531897374	 3.266753274	 0.117558
H	-1.1339152778	-1.1502255829	 2.0747273643	 0.123533
H	 1.7297887174	-2.340401798	 1.8651461509	 0.124051
H	-0.6500256185	-4.3660487775	-1.0481369814	 0.193262
92.0124	117.7815	147.7888	221.6812	243.8607	279.6075	337.9703	353.3316	423.402	438.6517	524.2809	580.9363	614.881	650.1611	697.4942	782.3309	808.1196	900.7549	906.3327	952.2194	1002.9525	1028.0961	1062.8366	1083.3888	1106.4894	1126.3849	1223.0876	1289.1632	1308.8361	1326.0519	1376.4915	1403.9924	1409.649	1475.3947	1479.8668	1501.5181	1510.9966	2234.8595	3030.6971	3040.621	3080.9358	3103.1892	3108.8794	3136.6323	3158.332	3232.0736	3505.3399	3798.9933
CCC1(O)CC1C#C	CC[C@@]1(O)C[C@H]1C#C	
InChI=1S/C7H10O/c1-3-6-5-7(6,8)4-2/h1,6,8H,4-5H2,2H3	InChI=1S/C7H10O/c1-3-6-5-7(6,8)4-2/h1,6,8H,4-5H2,2H3/t6-,7-/m1/s1
