16
gdb 33898	4.03326	1.31249	1.18466	2.8354	76.92	-0.2265	0.0192	0.2457	1049.946	0.124259	-400.62946	-400.622193	-400.621249	-400.660993	28.974	
C	-0.0018534454	-1.1973610934	-0.0942531718	-0.3886
C	 0.0303602043	 0.0040237077	-0.0165524163	 0.11462
C	 0.0413292795	 1.4161122998	 0.1093995757	 0.263325
N	 0.2536293562	 2.3172547506	-1.0586544292	-0.364489
C	 1.1840634882	 2.4071636222	 0.0721079233	-0.137945
C	 0.521224395	 3.2793905162	 1.1614251934	-0.095065
C	-0.5679711784	 4.2808642242	 0.7082291759	-0.084802
O	-1.5972003695	 3.2562485911	 0.7893604688	-0.281502
C	-0.6501781605	 2.2776889146	 1.2197514154	 0.034447
H	-0.0290981913	-2.2563493011	-0.1665443299	 0.188819
H	 0.6947935714	 1.7511417255	-1.7827712604	 0.242302
H	 2.2421637929	 2.213026747	-0.0529671967	 0.109979
H	 1.1327945861	 3.5164396024	 2.0290200672	 0.089474
H	-0.7647179343	 5.0871044749	 1.4238517942	 0.099851
H	-0.4688739608	 4.6808836181	-0.3037107887	 0.123255
H	-0.9515145234	 1.7162027901	 2.1068180491	 0.08633
126.6848	143.6958	241.1429	315.5625	386.7298	463.5742	525.0739	561.8204	578.9772	636.3722	665.8584	708.0593	803.7757	829.3982	850.1307	875.1381	927.6969	951.5215	989.1632	997.5912	1009.3658	1046.0271	1053.5946	1136.5215	1167.9054	1187.8635	1206.5121	1230.7785	1263.3261	1293.0342	1331.4406	1365.5585	1392.6462	1499.9918	2228.2621	3034.5187	3090.4638	3104.5044	3141.776	3194.7089	3484.3699	3502.1127
C#CC12NC1C1COC21	C#C[C@]12N[C@H]1[C@H]1CO[C@@H]21	
InChI=1S/C7H7NO/c1-2-7-5(8-7)4-3-9-6(4)7/h1,4-6,8H,3H2	InChI=1S/C7H7NO/c1-2-7-5(8-7)4-3-9-6(4)7/h1,4-6,8H,3H2/t4-,5+,6-,7+/m1/s1
