20
gdb 103813	2.56776	1.13517	0.95719	14.6887	79.1	-0.1656	-0.0297	0.1359	1311.2308	0.169813	-440.235519	-440.225634	-440.22469	-440.270465	36.131	
C	-0.430082898	 1.4616006198	 0.128142691	-0.403386
C	 0.2535130089	 0.1102722296	-0.1134588122	-0.269614
C	 0.8087529621	-0.5347737814	 1.1316632204	 0.258928
N	 1.9712715211	 0.2731302778	 1.6904877623	-0.43594
H	 1.697290882	 1.2387726734	 1.8972167058	 0.315554
H	 2.3219647115	-0.1640178644	 2.5454346874	 0.3205
H	 2.7366787424	 0.2956006029	 1.0104088412	 0.325736
C	-0.0051005516	-1.2031459751	 2.1962211162	-0.318551
C	 0.9670354142	-2.0126647744	 1.3616314049	-0.210537
C	 0.3962960796	-3.0010727687	 0.2671344246	 0.369635
O	-0.7506068397	-2.6946533414	-0.1258432021	-0.477951
O	 1.1776582894	-3.9042952858	-0.0378472292	-0.459201
H	 0.2538030595	 2.2392472756	 0.5019285867	 0.076568
H	-0.8492773561	 1.8486477409	-0.8042186948	 0.142431
H	-1.248306306	 1.3644220913	 0.8481303869	 0.139848
H	-0.4502029255	-0.6343576364	-0.5039664635	 0.205646
H	 1.050334783	 0.2086896719	-0.8658874684	 0.091696
H	 0.1996878742	-0.9876633285	 3.2426103	 0.089807
H	-1.0454735223	-1.3754263145	 1.9373744847	 0.167567
H	 1.8971806315	-2.3386597823	 1.8248975282	 0.071266
60.8617	105.4814	139.995	175.7791	203.4782	212.3579	244.8405	292.8755	371.7691	382.3048	413.626	506.3729	632.2845	651.6261	779.0611	789.7103	802.231	837.6889	889.5264	914.9603	939.5166	991.4485	1016.7235	1046.2465	1062.6565	1086.4595	1126.2781	1150.7852	1177.329	1250.3934	1282.0559	1324.5148	1356.112	1408.1362	1413.0406	1441.6786	1465.748	1489.1455	1498.5986	1507.0999	1633.5776	1649.091	1793.2998	2989.2334	2997.526	3062.5558	3083.5054	3100.7962	3118.6944	3122.3261	3206.8134	3379.311	3466.346	3495.6257
CCC1([NH3+])CC1C([O-])=O	CC[C@@]1([NH3])C[C@H]1C(=O)[O]	
InChI=1S/C6H11NO2/c1-2-6(7)3-4(6)5(8)9/h4H,2-3,7H2,1H3,(H,8,9)	InChI=1S/C6H11NO2/c1-2-6(7)3-4(6)5(8)9/h4H,2-3H2,1,7H3/t4-,6+/m0/s1
