20
gdb 40694	3.58825	0.96156	0.8724	2.5432	79.66	-0.2452	0.0716	0.3167	1389.6292	0.171265	-403.078879	-403.07025	-403.069306	-403.113068	32.369	
C	-0.1222039338	 1.0948091853	-0.4690259525	-0.257946
C	 1.2274531338	 0.892790751	 0.1698905532	-0.273235
C	 0.2913414158	-0.2794584209	-0.0092464787	 0.001928
C	-0.3222672959	-0.9248735995	 1.1978725281	-0.046203
N	-1.2279861684	-0.1182425085	 2.0267654307	-0.344232
C	-1.7632955169	-1.2967776748	 1.322658855	-0.044737
C	-2.7781159626	-1.0526768146	 0.2572511932	 0.095123
C	-3.4438471925	-2.1710369433	-0.422987942	-0.181775
O	-4.1249962741	-1.4225798014	 0.582940152	-0.239251
H	-0.8735020968	 1.6044116009	 0.1222084132	 0.136456
H	-0.166960052	 1.2831242457	-1.5360981541	 0.106182
H	 2.1140887812	 0.9455316242	-0.4521104524	 0.108948
H	 1.3588516259	 1.2738316021	 1.1771240525	 0.115285
H	 0.563422787	-0.9883513762	-0.7873394154	 0.085114
H	 0.360965915	-1.5903010091	 1.7271342779	 0.083883
H	-1.0981987493	-0.3172604727	 3.0140107152	 0.235734
H	-1.9854091724	-2.1799913183	 1.9202968852	 0.088205
H	-2.6883982229	-0.1050511965	-0.2683012658	 0.107586
H	-3.8133580296	-2.0430863363	-1.4396462803	 0.114363
H	-3.1883398415	-3.1952085473	-0.1510971753	 0.108571
59.9141	74.5908	115.3853	193.3759	255.5798	289.2404	336.9857	454.9712	541.3311	599.9025	729.3538	796.8709	814.2962	835.9686	857.1252	881.1233	898.9916	924.104	943.4802	975.4923	999.5407	1037.6389	1060.1502	1089.511	1098.311	1131.271	1133.2241	1145.3054	1156.7899	1171.4297	1188.9965	1204.6893	1230.8291	1244.7175	1269.9875	1288.2981	1348.3936	1393.6724	1438.2503	1460.8838	1492.8409	1502.333	1535.216	3078.0427	3091.7349	3118.1555	3132.1062	3135.4834	3141.5698	3146.9863	3164.5986	3215.4345	3234.1583	3518.1634
C1CC1C1NC1C1CO1	C1CC1[C@H]1N[C@H]1[C@H]1CO1	
InChI=1S/C7H11NO/c1-2-4(1)6-7(8-6)5-3-9-5/h4-8H,1-3H2	InChI=1S/C7H11NO/c1-2-4(1)6-7(8-6)5-3-9-5/h4-8H,1-3H2/t5-,6-,7+/m1/s1
