21
gdb 119781	4.442	0.72296	0.66864	2.2959	81.72	-0.2419	0.0142	0.2561	1697.3604	0.182205	-424.233593	-424.223711	-424.222767	-424.269527	35.744	
O	-0.0931524581	 1.4239979107	-0.1205304153	-0.417225
C	 0.0100979071	 0.0115927753	-0.2038053876	-0.065595
C	-1.3180169542	-0.5725837551	 0.2870358623	-0.29246
C	-1.3751149852	-2.0697301275	 0.2080177505	 0.324796
C	-1.3771169729	-2.9240241731	 1.2361915043	-0.227303
C	-1.5416738	-4.3608772733	 0.8097401561	 0.108604
O	-2.8084487914	-4.8928193684	 1.2085398696	-0.434142
C	-1.3358138322	-4.2953619986	-0.7286465122	-0.242983
C	-1.4721916698	-2.8033591019	-1.1175707466	-0.310319
H	 0.7422284926	 1.8046865479	-0.4065089311	 0.286822
H	 0.2070117707	-0.3124617157	-1.2377528552	 0.088055
H	 0.8308209006	-0.3714889272	 0.4224677186	 0.091917
H	-1.4787908864	-0.237356556	 1.3166573253	 0.112368
H	-2.1168585226	-0.1312889059	-0.3238479611	 0.111176
H	-1.3516531067	-2.6380727742	 2.2828039542	 0.089665
H	-0.8175739112	-5.0343502828	 1.2799687544	 0.083154
H	-3.474190313	-4.2306529125	 0.9914216156	 0.271341
H	-0.3340311866	-4.6562015106	-0.9806785474	 0.103306
H	-2.0525419784	-4.9466514271	-1.2345108431	 0.106349
H	-2.4277758419	-2.5736960232	-1.6096505287	 0.105836
H	-0.6949455505	-2.4919694608	-1.8246953327	 0.10664
44.4222	76.1518	89.7931	100.4359	208.5804	256.0306	307.5401	325.8111	340.4289	407.1511	493.2625	504.9349	661.2648	752.6068	774.1108	799.3241	863.4671	878.5018	905.2058	962.4793	989.7577	1008.2058	1052.2931	1066.4527	1068.8964	1082.14	1154.3779	1174.7879	1213.5196	1233.1965	1239.7918	1268.0328	1283.0165	1290.9957	1311.7307	1331.9061	1338.4446	1361.3512	1430.4359	1454.584	1476.9708	1484.608	1496.0938	1528.0936	1708.544	2970.9679	2998.7241	3011.5519	3024.4067	3046.6142	3053.3006	3066.5225	3083.3805	3109.7674	3185.8702	3796.9079	3831.1104
OCCC1=CC(O)CC1	OCCC1=C[C@@H](O)CC1	
InChI=1S/C7H12O2/c8-4-3-6-1-2-7(9)5-6/h5,7-9H,1-4H2	InChI=1S/C7H12O2/c8-4-3-6-1-2-7(9)5-6/h5,7-9H,1-4H2/t7-/m0/s1
