12
gdb 5657	5.44656	2.28515	1.60976	1.7223	61.5	-0.2026	0.0002	0.2027	714.2851	0.087839	-377.557247	-377.551846	-377.550902	-377.586527	21.32	
N	-0.0300050298	 1.3455501384	 0.010072761	-0.382429
C	 1.277576173	 1.8060845233	-0.0001085448	-0.054443
C	 2.170002867	 0.7453835413	-0.0148037097	-0.332369
C	 1.3408047533	-0.399060036	-0.0132018936	 0.320426
C	 0.0226910812	-0.0207239212	 0.0018069394	 0.312849
N	-0.8142976506	-1.1106489067	 0.003769252	-0.355427
C	 0.0317056695	-2.0997149251	-0.0100839097	 0.04019
O	 1.3630366261	-1.7669700391	-0.0211948904	-0.208326
H	-0.8529127775	 1.921126167	 0.0214088265	 0.27182
H	 1.4781276197	 2.8653653317	 0.003926759	 0.12667
H	 3.244274603	 0.8221630206	-0.0248497261	 0.113367
H	-0.190166705	-3.1547099343	-0.0139031037	 0.147672
209.4257	348.1409	410.7956	476.1181	605.2488	630.4729	692.7921	698.5428	753.8261	764.2998	793.7524	806.1161	917.1524	958.3825	1060.8526	1080.022	1096.6024	1173.3456	1269.69	1308.7514	1364.0448	1463.9143	1484.1877	1517.7136	1564.5801	1590.232	3262.1913	3279.4407	3283.7032	3692.3879
N1C=CC2=C1N=CO2	[nH]1ccc2c1nco2	
InChI=1S/C5H4N2O/c1-2-6-5-4(1)8-3-7-5/h1-3,6H	InChI=1S/C5H4N2O/c1-2-6-5-4(1)8-3-7-5/h1-3,6H
