18
gdb 51484	3.97139	1.07991	0.94395	3.5162	79.7	-0.2404	-0.0003	0.2402	1256.9716	0.148552	-401.936101	-401.92812	-401.927176	-401.969584	30.068	
N	-0.1648045992	 1.2931598166	-0.0569646652	-0.446285
C	-0.1529352309	 0.034622038	-0.1566265625	 0.135343
O	-0.8472124455	-0.7210958966	 0.7128370853	-0.193783
C	-0.9002982528	-2.1346809195	 0.4461706827	 0.065882
C	-1.2344060285	-2.8600978501	 1.7330563264	-0.110494
C	-2.3037728934	-3.6437310509	 1.5959992685	-0.072833
C	-2.898307392	-3.5375440711	 0.2290114508	-0.081767
C	-3.4316481083	-2.1640102427	-0.1233083942	-0.270245
C	-2.0233501791	-2.5440302731	-0.5078316897	-0.063618
H	 0.4309258851	 1.7022057604	-0.7738363821	 0.226325
H	 0.4005843645	-0.5526903258	-0.9041503905	 0.0787
H	 0.0802214323	-2.4409346394	 0.0522227178	 0.086366
H	-0.6665310284	-2.6913638096	 2.6394057909	 0.109257
H	-2.7360518974	-4.2571913156	 2.3783772928	 0.106068
H	-3.3120936628	-4.4111808321	-0.2609363946	 0.093206
H	-4.1523439828	-2.0959977876	-0.9312386817	 0.114312
H	-3.5705591791	-1.4485653838	 0.6792845831	 0.135836
H	-1.7907338416	-2.672797617	-1.5577206978	 0.087732
46.4176	102.3942	118.7926	235.2994	308.5705	397.1702	464.1387	472.5595	682.4155	693.1141	755.5079	779.1225	807.8229	817.6275	835.0191	921.953	941.4486	964.0363	986.188	1009.0471	1024.657	1044.3083	1061.9255	1071.1223	1093.9156	1103.9208	1116.4039	1143.764	1199.6727	1288.9235	1303.2913	1314.5652	1354.3965	1376.1249	1389.867	1426.0344	1480.1247	1678.0874	1745.1079	2985.9482	3008.3141	3134.3739	3176.091	3185.5389	3195.2789	3223.1219	3227.3185	3515.9436
N=COC1C=CC2CC12	[NH][CH]O[C@H]1C=C[C@H]2C[C@@H]12	
InChI=1S/C7H9NO/c8-4-9-7-2-1-5-3-6(5)7/h1-2,4-8H,3H2	InChI=1S/C7H9NO/c8-4-9-7-2-1-5-3-6(5)7/h1-2,4-8H,3H2/t5-,6+,7-/m0/s1
