20
gdb 62725	2.34368	1.76925	1.37517	1.8192	78.56	-0.2321	0.0186	0.2506	1044.4831	0.169849	-403.158267	-403.1492	-403.148256	-403.191452	34.377	
C	-0.0799638606	 1.5296441529	 0.0734508979	-0.455024
C	 0.0322534721	 0.0194227519	 0.0203972708	 0.224633
C	-1.1605724297	-0.6447838806	-0.6494020744	-0.454104
C	 1.3693872481	-0.6864165982	-0.2345036856	-0.118211
N	 2.5933239677	 0.0579831392	-0.0556953573	-0.255116
C	 2.5964968101	 0.4122199082	 1.1657228347	 0.072728
O	 1.574602014	 0.0210931409	 1.9679916223	-0.241389
C	 0.6960162111	-0.7574674892	 1.1373762401	 0.352651
C	 0.1314336994	-1.9304867697	 1.8868206759	-0.480198
H	 0.8086961046	 2.0113585544	 0.4821223991	 0.13297
H	-0.2401179163	 1.9309521093	-0.9331606863	 0.119293
H	-0.9347733657	 1.8261894539	 0.6917473446	 0.116551
H	-1.3110975887	-0.219682463	-1.6479451387	 0.123481
H	-1.0270602394	-1.7231256277	-0.7707688977	 0.11734
H	-2.0806791277	-0.4834636533	-0.0760004426	 0.119381
H	 1.4009819797	-1.5005821083	-0.9504725434	 0.093963
H	 3.3548280391	 1.011540996	 1.6553293831	 0.139936
H	-0.4932939258	-1.5956425531	 2.721977465	 0.131806
H	-0.4827604817	-2.5554169346	 1.2362880902	 0.128292
H	 0.9384987599	-2.5479185591	 2.2930935322	 0.131017
112.8968	146.373	179.5383	186.9391	233.673	254.2326	304.6094	341.2689	362.5504	442.6164	523.4374	595.1076	630.6704	702.9373	745.1423	871.5205	902.5256	912.435	940.7515	974.6369	982.0763	1011.142	1034.9703	1066.2291	1110.5234	1121.8374	1157.3335	1166.2478	1207.2365	1252.711	1297.7696	1332.3711	1399.2889	1412.6969	1427.1606	1431.3728	1475.6995	1481.8508	1487.7039	1495.7171	1504.1118	1513.6144	1666.8822	3026.7447	3035.1051	3040.428	3086.4878	3090.4183	3100.8088	3107.1745	3136.7202	3138.9279	3166.6961	3225.1758
CC1(C)C2N=COC12C	CC1(C)[C@H]2N=CO[C@@]12C	
InChI=1S/C7H11NO/c1-6(2)5-7(6,3)9-4-8-5/h4-5H,1-3H3	InChI=1S/C7H11NO/c1-6(2)5-7(6,3)9-4-8-5/h4-5H,1-3H3/t5-,7-/m1/s1
