19
gdb 86085	2.88073	1.35092	1.01585	2.3808	79.	-0.2429	0.0038	0.2467	1202.7577	0.15865	-423.025027	-423.016491	-423.015547	-423.058	33.022	
C	-0.161059562	 1.5800573293	 0.0460992281	-0.48814
C	-0.0413155984	 0.0911700484	 0.0061958355	 0.306825
C	-0.3774708142	-0.7172972119	-1.007628948	-0.259071
C	-0.0910869892	-2.1290698685	-0.6754299154	 0.370493
C	-0.4570760066	-3.3259898865	-1.4314523871	-0.247779
O	 0.895673285	-2.8435091948	-1.4729299171	-0.290969
C	 0.1739747768	-2.1645475359	 0.8401458793	 0.066913
O	 1.1321662602	-3.128633835	 1.1939881466	-0.445405
C	 0.5304471033	-0.6917559817	 1.1723799689	-0.345282
H	 0.8173923691	 2.0456671018	 0.2188779908	 0.133807
H	-0.5728518069	 1.9811045002	-0.8837759374	 0.12668
H	-0.8055735788	 1.8994668587	 0.8747711961	 0.131098
H	-0.7685117101	-0.4009907422	-1.9676534809	 0.098057
H	-0.5946538519	-4.2667438539	-0.8991173839	 0.120889
H	-1.0053676987	-3.2371022144	-2.3684805249	 0.116588
H	-0.762225725	-2.4212579929	 1.3524917508	 0.090779
H	 1.6328603108	-3.3041472615	 0.3826975112	 0.290611
H	 1.6201528186	-0.5707182774	 1.2295946994	 0.119061
H	 0.126128898	-0.3686749618	 2.1381040079	 0.104847
90.6726	134.3005	185.8945	250.876	277.8256	294.6744	400.411	446.2803	471.0318	480.0363	529.3617	539.908	628.1245	728.5592	823.9997	853.5824	878.7011	911.8398	959.2723	977.6138	1007.4204	1034.3703	1072.1597	1122.774	1126.1121	1149.7163	1173.5798	1183.6022	1241.0323	1242.4155	1298.9706	1335.0076	1361.5491	1412.6092	1425.5098	1447.8831	1477.3675	1481.255	1485.9076	1524.6663	1701.8911	3019.4644	3020.4905	3027.5155	3067.1395	3069.2458	3079.6088	3113.5677	3167.1417	3199.3978	3707.1279
CC1=CC2(CO2)C(O)C1	CC1=C[C@]2(CO2)[C@@H](O)C1	
InChI=1S/C7H10O2/c1-5-2-6(8)7(3-5)4-9-7/h3,6,8H,2,4H2,1H3	InChI=1S/C7H10O2/c1-5-2-6(8)7(3-5)4-9-7/h3,6,8H,2,4H2,1H3/t6-,7-/m0/s1
