23
gdb 116183	2.19851	1.32487	1.04465	2.013	81.33	-0.2369	0.0742	0.3111	1276.7355	0.20466	-425.436946	-425.426843	-425.425899	-425.471926	37.98	
C	 0.2136538225	 1.4684779374	-0.3580876429	-0.417791
C	-0.0143371802	-0.0056967987	 0.0070557468	 0.381762
C	-1.5025213561	-0.2742641277	 0.2436530623	-0.420171
O	 0.4074156729	-0.7939305199	-1.1272211896	-0.309478
C	 1.5178363384	-1.6222606998	-0.7956589433	-0.081375
C	 2.1216268706	-1.0314088614	 0.4769918175	-0.236563
C	 0.8662670924	-0.5060355859	 1.1868033791	-0.002462
C	 1.1326880952	 0.4951638136	 2.3004555398	-0.114389
O	 1.8405783829	-0.1926134987	 3.3243574457	-0.425465
H	 1.2763371411	 1.6859349484	-0.4987376258	 0.11189
H	-0.2976569125	 1.6857679318	-1.3000669377	 0.121842
H	-0.181696179	 2.1439625743	 0.4078937222	 0.107461
H	-2.0916015312	 0.0364525581	-0.6243610389	 0.118431
H	-1.675164088	-1.3414719669	 0.4092731452	 0.115863
H	-1.867309034	 0.2753969584	 1.1183845839	 0.107994
H	 1.1817843791	-2.6573304171	-0.6244352587	 0.087815
H	 2.2087205219	-1.6323377122	-1.645637611	 0.099949
H	 2.6743194098	-1.7580518736	 1.074890531	 0.113237
H	 2.8012600322	-0.2050796014	 0.236976962	 0.098291
H	 0.3538117624	-1.3603475842	 1.6476925453	 0.081828
H	 1.7198498806	 1.3440202847	 1.9188938828	 0.088553
H	 0.1803330764	 0.8978586167	 2.6828635712	 0.086466
H	 2.0457513926	 0.4362996143	 4.0222250031	 0.28631
46.6787	105.8038	169.0777	199.2052	226.0097	252.7278	271.0639	281.2847	319.5661	341.6147	402.0124	472.0273	498.2637	570.3025	641.8607	765.7634	846.9171	855.5074	914.1946	928.9223	963.6093	986.3659	1004.8979	1024.7113	1068.9397	1078.4537	1101.4704	1134.6949	1170.1103	1183.3407	1215.7102	1238.5126	1256.1343	1272.4461	1278.064	1318.0681	1343.5024	1376.2265	1393.9242	1399.9941	1417.8464	1463.1143	1475.1149	1486.1965	1491.7991	1496.693	1504.875	1520.7969	1530.0745	2963.8173	2974.9129	2999.4359	3025.0812	3032.5517	3038.7012	3041.3564	3062.2816	3102.9334	3109.102	3113.6803	3116.7078	3119.8459	3830.3245
CC1(C)OCCC1CO	CC1(C)OCC[C@H]1CO	
InChI=1S/C7H14O2/c1-7(2)6(5-8)3-4-9-7/h6,8H,3-5H2,1-2H3	InChI=1S/C7H14O2/c1-7(2)6(5-8)3-4-9-7/h6,8H,3-5H2,1-2H3/t6-/m0/s1
