19
gdb 88640	2.99914	1.25278	1.0869	3.7188	76.61	-0.2563	0.0329	0.2892	1174.1407	0.159915	-419.178901	-419.170343	-419.169399	-419.212656	32.218	
C	 1.2681435151	 0.8772116701	-0.5250841718	-0.398634
C	 0.0956045671	 0.2226377747	 0.1655320676	 0.015673
N	 0.1202758822	-1.2320037241	 0.3505946908	-0.333686
C	 0.104509781	-0.359314688	 1.5416840064	-0.054081
C	 1.2929737023	-0.4027523862	 2.4789652807	 0.124165
C	 2.5725895786	-1.1689763972	 2.0856388629	-0.380536
C	 3.2390087796	 0.182417946	 2.2155783954	 0.437013
N	 4.4129081447	 0.6086005515	 2.1034726402	-0.545594
O	 2.0704601691	 0.8526287979	 2.5231108554	-0.267969
H	 2.2153047247	 0.3926652715	-0.2853768582	 0.139011
H	 1.1330451694	 0.8277213067	-1.6110370366	 0.117209
H	 1.3427462288	 1.9301425692	-0.2381433381	 0.127966
H	-0.8648740498	 0.6559383873	-0.1148540228	 0.087509
H	-0.7948323647	-1.6453800605	 0.1970782727	 0.235133
H	-0.8444561794	-0.2795140762	 2.068725652	 0.086145
H	 0.9482270549	-0.6242747797	 3.4931671042	 0.09166
H	 2.9157827158	-1.9242124952	 2.7939393493	 0.133627
H	 2.5552989772	-1.5878036687	 1.0798351472	 0.160165
H	 4.4587991635	 1.613916151	 2.2797018926	 0.225226
55.0297	82.7771	173.3705	215.9415	231.8574	325.966	374.0002	441.1149	503.5259	525.3553	640.051	671.7066	773.3693	789.9001	856.8319	867.2279	913.466	938.0226	969.8265	982.4911	1010.5031	1023.5447	1037.0684	1063.2609	1098.603	1118.1084	1160.2027	1204.5122	1224.1966	1238.5996	1254.694	1293.3204	1330.3226	1390.0096	1410.5402	1432.3283	1467.4482	1470.8276	1489.9056	1504.4135	1823.8837	3044.2325	3060.7909	3096.149	3098.3346	3107.0033	3120.1547	3148.5452	3157.4715	3472.9144	3510.9782
CC1NC1C1CC(=N)O1	C[C@H]1N[C@H]1[C@H]1C[C]([NH])O1	
InChI=1S/C6H10N2O/c1-3-6(8-3)4-2-5(7)9-4/h3-4,6-8H,2H2,1H3	InChI=1S/C6H10N2O/c1-3-6(8-3)4-2-5(7)9-4/h3-4,6-8H,2H2,1H3/t3-,4-,6-/m1/s1
