19
gdb 81995	2.41324	1.43174	1.29906	3.7213	79.44	-0.2496	0.0349	0.2844	1095.1634	0.159097	-382.046514	-382.037696	-382.036752	-382.079511	33.668	
C	-0.4323162774	 1.509245709	 0.3748280123	-0.41649
C	-0.1401454157	 0.0261688807	 0.2130149599	-0.032582
C	 0.287769182	-0.4860214502	-1.16841027	-0.04449
N	 1.5879871671	 0.1559781869	-1.4766625297	-0.34358
C	 1.5480831378	-1.059128216	-0.6372729175	-0.082185
C	 1.2338435625	-0.5732976945	 0.8002474534	 0.138958
C	 2.243818901	 0.3840546184	 1.4384401316	-0.45252
C	 0.9564927736	-1.6998355231	 1.6854376658	 0.234445
N	 0.7384562311	-2.5938534963	 2.3862538599	-0.347941
H	 0.3532888464	 2.1171592245	-0.0789184539	 0.140958
H	-1.3797228167	 1.7586416058	-0.1153524945	 0.119752
H	-0.5252310609	 1.7849736393	 1.4301315156	 0.122645
H	-0.9691111415	-0.5734964723	 0.5961946838	 0.10301
H	-0.3556313817	-0.8472719614	-1.9608279873	 0.10113
H	 1.8625423491	-0.1343425502	-2.4139852594	 0.237225
H	 2.0861522927	-1.9589971628	-0.9068539399	 0.110899
H	 2.507214339	 1.1643144634	 0.7233615584	 0.149102
H	 1.830654666	 0.8457473171	 2.3394940861	 0.1311
H	 3.1532703257	-0.1537610184	 1.7223326754	 0.130565
119.3048	157.9041	191.8784	211.0906	218.3438	247.7185	284.823	366.3929	465.1979	502.75	557.5767	581.7089	634.7381	726.5247	826.6365	841.32	849.0004	884.4367	938.0799	938.437	1021.6325	1030.5875	1074.2175	1092.7978	1108.3425	1130.94	1148.7892	1167.7884	1213.9622	1243.2242	1298.0113	1322.193	1366.8382	1380.3836	1401.8316	1414.1077	1482.2184	1493.0984	1495.6781	1509.2116	2347.7606	3038.3107	3049.436	3082.8396	3098.602	3116.0613	3132.4007	3149.3506	3190.046	3203.6963	3487.1965
CC1C2NC2C1(C)C#N	C[C@H]1[C@H]2N[C@H]2[C@]1(C)C#N	
InChI=1S/C7H10N2/c1-4-5-6(9-5)7(4,2)3-8/h4-6,9H,1-2H3	InChI=1S/C7H10N2/c1-4-5-6(9-5)7(4,2)3-8/h4-6,9H,1-2H3/t4-,5+,6+,7+/m0/s1
