19
gdb 108185	3.17309	1.5574	1.38039	1.5772	74.86	-0.2489	0.0074	0.2563	1012.8882	0.160387	-423.021584	-423.013901	-423.012956	-423.05359	30.513	
C	-0.0687196349	 1.3789816128	-0.0264019497	-0.259674
O	-0.0368298806	-0.0417348301	-0.0945501468	-0.305088
C	 0.6720878716	-0.5523431298	-1.1504421617	 0.474176
C	 0.5798729045	-2.1055416035	-1.2347764787	-0.257217
C	 0.8834942347	-2.3401703237	-2.7399743136	-0.216703
C	 1.0944771326	-0.8641303671	-3.2243685371	 0.001805
O	 0.1249317179	-0.175331424	-2.4317411971	-0.286864
C	 2.4097761555	-0.3817267777	-2.6203695443	-0.077263
C	 2.1488815651	-0.1756225956	-1.3308125206	-0.167748
H	 0.9409020483	 1.8010647835	 0.0628513281	 0.111657
H	-0.5522648798	 1.8053565131	-0.9109930152	 0.136389
H	-0.6436555648	 1.6320642512	 0.8662799482	 0.12633
H	 1.2792965361	-2.6007377687	-0.5589401602	 0.102712
H	-0.4361209893	-2.4047579461	-0.9696594232	 0.11542
H	 1.7561929406	-2.9723012076	-2.9190980834	 0.099411
H	 0.0269566372	-2.7806732697	-3.2552850966	 0.108428
H	 0.9309328894	-0.6831622817	-4.2858670505	 0.0803
H	 3.3623247958	-0.3556482264	-3.1330745112	 0.105763
H	 2.8291086202	 0.0549892611	-0.5219611766	 0.108165
100.4304	156.0563	197.5474	245.8415	360.1139	410.1875	443.0671	489.551	603.6593	642.4481	713.7089	732.0254	792.0119	820.6299	835.4547	877.4856	910.9941	946.268	956.6232	992.1751	1009.4934	1044.3121	1052.3447	1081.0446	1102.2867	1176.0627	1180.9054	1204.1972	1222.3989	1229.431	1267.8476	1292.7101	1320.2124	1333.7002	1353.7871	1478.4335	1483.4202	1484.4701	1499.4509	1509.1385	1646.9779	3015.1358	3066.9687	3079.6496	3086.851	3111.8687	3128.7387	3132.9617	3134.0059	3210.1644	3236.7202
COC12CCC(O1)C=C2	CO[C@@]12CC[C@@H](O1)C=C2	
InChI=1S/C7H10O2/c1-8-7-4-2-6(9-7)3-5-7/h2,4,6H,3,5H2,1H3	InChI=1S/C7H10O2/c1-8-7-4-2-6(9-7)3-5-7/h2,4,6H,3,5H2,1H3/t6-,7+/m0/s1
