14
gdb 131567	7.32234	0.65192	0.60087	3.2688	80.04	-0.2401	-0.0403	0.1998	1738.2992	0.100406	-436.639582	-436.631147	-436.630202	-436.675279	28.841	
O	 0.0334097155	 1.4150828664	 0.0086990687	-0.406331
C	-0.0007746938	-0.0037024585	 0.0026666494	-0.23061
C	-1.3866185702	-0.4543889004	 0.0127205412	 0.307305
C	-2.5235140896	-0.8548259846	 0.0208513933	-0.111549
C	-3.8571170663	-1.3024597495	 0.030456454	 0.285451
C	-5.0549046682	-0.6429345473	 0.0414443195	-0.345797
C	-6.0074122353	-1.6901424838	 0.0467906754	 0.013296
N	-5.4445736694	-2.8747031446	 0.0394144571	-0.125289
O	-4.0788812528	-2.6397111034	 0.0290028272	-0.20829
H	 0.9585721802	 1.6810323386	 0.0012896552	 0.295869
H	 0.4986946151	-0.4183315262	-0.8884647435	 0.129131
H	 0.5140828389	-0.4262348016	 0.8812398892	 0.129143
H	-5.2167670143	 0.4210735745	 0.0451503554	 0.132352
H	-7.0861061198	-1.6218620996	 0.055617558	 0.13532
11.3971	73.6812	103.6291	201.6499	213.2266	279.302	419.4085	459.7346	516.6076	620.1452	641.3432	712.0324	821.5871	917.0916	918.9427	933.775	957.0154	1021.8446	1032.9268	1056.7872	1076.5507	1222.4096	1242.316	1244.4226	1267.7738	1361.1803	1458.6532	1499.3159	1503.6738	1614.2099	2363.9391	2964.1818	2983.1928	3245.7082	3291.383	3821.8883
OCC#CC1=CC=NO1	OCC#Cc1ccno1	
InChI=1S/C6H5NO2/c8-5-1-2-6-3-4-7-9-6/h3-4,8H,5H2	InChI=1S/C6H5NO2/c8-5-1-2-6-3-4-7-9-6/h3-4,8H,5H2
