17
gdb 43108	2.69743	1.93078	1.47932	2.7474	71.03	-0.2397	-0.0265	0.2132	913.4329	0.137746	-421.821118	-421.814273	-421.813329	-421.852929	26.798	
O	-0.0235287971	-0.0072509222	-0.0835488796	-0.305145
C	-0.0485872241	 1.1856102307	 0.0089604972	 0.415962
C	-1.1724496163	 2.2264231158	 0.0101674765	-0.17387
C	-1.5402450763	 2.7015836729	 1.4493044199	-0.249822
C	-0.3059463886	 3.6522096137	 1.4577737106	 0.109036
O	 0.7899115701	 3.1782735306	 2.2251739036	-0.269825
C	 1.7362716314	 2.4861858352	 1.4109221077	-0.091875
C	 1.0659873648	 2.2614362698	 0.0537773568	-0.18014
C	-0.0493325926	 3.3371696186	-0.040745785	-0.078741
H	-1.9798112445	 2.0925716483	-0.7096321715	 0.094267
H	-2.4802142508	 3.2590421158	 1.4420519587	 0.113058
H	-1.574202729	 1.9490287917	 2.2399568473	 0.119937
H	-0.5105847569	 4.6869788137	 1.7426630947	 0.086151
H	 2.6463078384	 3.093091187	 1.3010030113	 0.102489
H	 2.0101600033	 1.5456102279	 1.9017926713	 0.124059
H	 1.7769212963	 2.1785253894	-0.7712813889	 0.105453
H	 0.0103123019	 4.129388161	-0.7820596006	 0.079006
54.9166	149.5394	227.7522	375.1667	454.2191	517.3519	618.7241	674.4739	709.0077	757.4847	801.5215	835.0687	863.4227	907.6752	925.6432	948.2107	953.0214	989.6648	1014.1403	1055.6032	1074.7233	1097.9063	1118.8922	1134.334	1180.4423	1188.9025	1212.7784	1229.7259	1246.517	1264.0243	1277.9553	1291.3928	1342.5657	1391.5831	1471.2486	1526.1859	1885.1408	2999.4862	3062.3617	3063.4788	3078.1663	3096.4943	3117.0522	3126.0573	3153.4197
O=C1C2CC3OCC1C23	O=C1[C@H]2C[C@H]3OC[C@@H]1[C@@H]23	
InChI=1S/C7H8O2/c8-7-3-1-5-6(3)4(7)2-9-5/h3-6H,1-2H2	InChI=1S/C7H8O2/c8-7-3-1-5-6(3)4(7)2-9-5/h3-6H,1-2H2/t3-,4+,5+,6+/m0/s1
