21
gdb 37441	2.47168	1.88982	1.85864	1.5211	79.6	-0.2373	0.0793	0.3166	923.0226	0.187451	-387.092596	-387.085869	-387.084924	-387.123176	29.098	
C	-0.0502882126	 1.5144794696	-0.0993683781	-0.326059
C	 1.2968693135	 0.8403778602	 0.0329688344	-0.024844
C	 0.0280472789	 0.0163593059	 0.0121463693	-0.016025
C	-0.1614383143	-0.648487239	 1.3748387778	 0.083374
C	 1.0045774654	-1.6321831877	 1.6000942574	-0.208147
C	 2.3427827129	-0.8376557454	 1.5213068086	-0.203098
C	 2.0082622733	 0.6676662966	 1.3750284841	-0.043492
C	 1.0736961893	 1.037462661	 2.5291155306	-0.081053
O	-0.1659215876	 0.324891039	 2.4214199617	-0.278089
H	-0.4699431347	 2.0711351773	 0.728924619	 0.129311
H	-0.2865431834	 1.9210961574	-1.0767543504	 0.104501
H	 1.9413118336	 0.8407510743	-0.8411204165	 0.07944
H	-0.2170948193	-0.5930030868	-0.8525908042	 0.079382
H	-1.1280088647	-1.1539162619	 1.4513050936	 0.072254
H	 0.8826981858	-2.1046975232	 2.5792910723	 0.101254
H	 0.9666866048	-2.4287746473	 0.8497666021	 0.094753
H	 2.9455597711	-1.0026949059	 2.4204489843	 0.093496
H	 2.9463212692	-1.165305891	 0.6690537827	 0.09329
H	 2.9152266413	 1.2776446983	 1.4355132819	 0.062893
H	 1.5479424015	 0.7927538917	 3.4912323784	 0.089115
H	 0.8500785162	 2.1116458771	 2.5348819311	 0.097746
181.4613	289.8673	308.1142	330.4015	391.0965	505.6629	536.5901	581.3347	659.2711	734.3414	802.1368	813.8256	826.3778	869.9929	879.1636	883.9579	936.8414	965.6695	992.1285	1009.5906	1019.6731	1053.5332	1067.6534	1072.6192	1096.115	1112.9695	1127.3871	1133.1789	1193.1315	1212.7725	1217.6039	1254.9132	1264.3754	1298.4309	1336.4184	1345.7382	1353.9648	1363.6841	1368.1399	1403.0021	1416.7298	1482.3734	1488.1646	1501.9485	1531.0153	2988.5854	3031.9429	3035.9125	3047.265	3056.8316	3071.0866	3072.3639	3095.4804	3140.8817	3142.883	3154.7967	3230.0972
C1C2C1C1CCC2CO1	C1[C@@H]2[C@H]1[C@H]1CC[C@@H]2CO1	
InChI=1S/C8H12O/c1-2-8-7-3-6(7)5(1)4-9-8/h5-8H,1-4H2	InChI=1S/C8H12O/c1-2-8-7-3-6(7)5(1)4-9-8/h5-8H,1-4H2/t5-,6+,7+,8-/m1/s1
