20
gdb 68994	2.98171	1.34887	1.12761	2.2282	79.92	-0.2236	0.078	0.3016	1157.4336	0.169736	-403.070916	-403.062254	-403.06131	-403.104609	33.162	
C	-0.181707037	 1.4140068758	 0.2619895048	-0.486764
C	 0.0188657872	-0.0584588044	 0.1184422461	 0.414971
C	-0.800173539	-1.150670485	 0.7682796222	-0.397623
C	 0.718666221	-1.1364694289	 0.9149648949	 0.24162
C	 1.3223766515	-1.5474936616	-0.4236766856	-0.125607
O	 0.5464156951	-0.5390642713	-1.1268980111	-0.322912
N	 1.5096197353	-1.1206154377	 2.1006933998	-0.157882
C	 0.9068566717	-0.7322290834	 3.3717327605	-0.234465
C	 1.2494928403	-2.1544567139	 3.1092173669	-0.225502
H	 0.7462442044	 1.9554955355	 0.0550868831	 0.132494
H	-0.946115561	 1.7645002339	-0.4408453385	 0.132722
H	-0.513846387	 1.6625745603	 1.2738393158	 0.12216
H	-1.3593437679	-0.8385536254	 1.6448679373	 0.11174
H	-1.2968922355	-1.8960996516	 0.1514267151	 0.108658
H	 2.3932839988	-1.3266107304	-0.4812012245	 0.113775
H	 1.1226804227	-2.5604719297	-0.7927493144	 0.098801
H	 1.5383034642	-0.1201450107	 4.0092836838	 0.121115
H	-0.148696704	-0.4733459663	 3.4000510671	 0.114775
H	 0.4206989625	-2.8353175511	 2.9275710546	 0.11848
H	 2.1308099768	-2.6036572342	 3.5569211122	 0.119444
39.1517	131.8241	181.1459	216.9082	256.7517	292.0073	377.6215	394.9555	454.8922	520.798	571.1964	691.7204	745.621	809.4894	858.4746	881.6289	892.8126	923.6092	951.8667	968.1733	985.4897	1030.7905	1039.8764	1071.222	1104.8783	1110.0707	1119.9144	1138.6944	1159.9318	1175.11	1190.5891	1219.7884	1233.3898	1328.7031	1348.1949	1405.751	1425.1329	1472.6412	1483.5128	1491.2131	1505.2703	1512.6309	1522.5112	3025.9238	3034.3738	3083.3707	3099.0585	3103.9473	3106.1685	3109.1868	3118.5031	3184.362	3199.5482	3204.8943
CC12CC1(CO2)N1CC1	C[C@]12C[C@]1(CO2)N1CC1	
InChI=1S/C7H11NO/c1-6-4-7(6,5-9-6)8-2-3-8/h2-5H2,1H3	InChI=1S/C7H11NO/c1-6-4-7(6,5-9-6)8-2-3-8/h2-5H2,1H3/t6-,7+/m0/s1
