17
gdb 93475	2.8343	1.34477	0.98866	2.3667	69.51	-0.26	-0.0473	0.2127	1157.7689	0.135657	-459.016777	-459.008629	-459.007684	-459.049779	30.916	
O	 0.0519116899	 1.4183194065	 0.1237733067	-0.440314
C	 0.0141464989	 0.0259916561	 0.0164977359	 0.05824
C	-1.432125628	-0.505673137	 0.0100310485	-0.239461
C	-1.4771768977	-2.0377197247	-0.1199692347	-0.314354
C	-0.7386002633	-2.5159559621	-1.3619657813	 0.384991
O	-1.1971528994	-3.2985219733	-2.1538192403	-0.286034
C	 0.6689606492	-1.9224621109	-1.5465840197	-0.397285
C	 0.7125054875	-0.4350708594	-1.2594366812	 0.354743
O	 1.2277818615	 0.3737146969	-1.998647506	-0.320222
H	 0.5623902772	 1.7221447511	-0.6446359673	 0.294094
H	 0.5463473484	-0.4400473833	 0.8664991304	 0.08949
H	-1.9240269199	-0.1869783305	 0.932554532	 0.128862
H	-1.9714115126	-0.034286593	-0.8199908214	 0.124723
H	-0.9906949794	-2.4930350484	 0.7550011058	 0.124711
H	-2.5011560966	-2.413727929	-0.1618278934	 0.134665
H	 1.3152136683	-2.4198615857	-0.8083266221	 0.15118
H	 1.0479532259	-2.1395688133	-2.5454702219	 0.151971
75.6536	100.4247	199.6369	297.2241	339.1425	364.003	410.531	427.2989	449.1014	497.2098	580.8787	625.1934	722.3756	729.7104	793.1598	851.943	900.9196	955.2415	1039.316	1054.0424	1096.9911	1118.5488	1144.2267	1190.6543	1220.9895	1247.6631	1257.1982	1290.4536	1320.3401	1338.4715	1374.5694	1433.465	1443.5505	1463.587	1497.9803	1799.5562	1836.097	2935.881	3013.8171	3021.9087	3047.6469	3103.1211	3118.0061	3141.2259	3677.5591
OC1CCC(=O)CC1=O	O[C@H]1CCC(=O)CC1=O	
InChI=1S/C6H8O3/c7-4-1-2-5(8)6(9)3-4/h5,8H,1-3H2	InChI=1S/C6H8O3/c7-4-1-2-5(8)6(9)3-4/h5,8H,1-3H2/t5-/m0/s1
