18
gdb 75840	2.54121	1.74754	1.2269	4.8987	71.84	-0.2375	0.0537	0.2912	1045.2452	0.147442	-439.123267	-439.114771	-439.113827	-439.156194	31.8	
C	 0.0925820858	 1.4069613219	 0.0482374033	-0.350632
N	-0.1118409898	-0.0251343411	 0.0482762203	-0.168114
C	-0.0352777362	-0.7580431736	-1.1158124129	 0.470326
O	-0.002471699	-0.3529522063	-2.2456951607	-0.399521
O	 0.0168852355	-2.0950331738	-0.7903313267	-0.2445
C	 0.0739964921	-2.2271504553	 0.6124452304	 0.043301
C	 1.2759645969	-1.6555260974	 1.3258183794	-0.374227
C	-0.0199811941	-0.8578198846	 1.2165509459	 0.311165
C	-0.852872896	-0.4847589177	 2.4147992696	-0.476347
H	 1.0738345801	 1.6738575739	 0.4626216084	 0.123865
H	 0.0403192867	 1.7432780489	-0.9883095922	 0.169848
H	-0.6821905129	 1.9169880977	 0.6295395865	 0.129301
H	-0.4555115661	-3.0974660093	 0.978804377	 0.120021
H	 1.5146697799	-2.0909622163	 2.2903558678	 0.122977
H	 2.1281793195	-1.3471829571	 0.7298565672	 0.130827
H	-0.4884422498	 0.4340972288	 2.8868815332	 0.130119
H	-1.899498093	-0.3344074255	 2.1311032391	 0.133524
H	-0.8107776597	-1.277869783	 3.1663116945	 0.128068
109.4613	140.8844	159.3347	209.7344	247.0132	263.799	329.9252	403.9649	480.6911	521.5485	596.4951	692.563	717.0763	764.5	809.465	836.6331	910.7062	965.5286	990.6238	1017.2	1037.4153	1090.1298	1120.3199	1124.5436	1148.093	1164.1357	1199.9434	1273.5723	1343.475	1389.1818	1398.9363	1424.0362	1448.8166	1471.2669	1484.4054	1492.6826	1504.2803	1520.1798	1874.5377	3013.9658	3034.797	3077.5099	3098.8657	3116.6585	3131.1537	3147.6618	3195.2337	3226.538
CN1C(=O)OC2CC12C	CN1C(=O)O[C@H]2C[C@@]12C	
InChI=1S/C6H9NO2/c1-6-3-4(6)9-5(8)7(6)2/h4H,3H2,1-2H3	InChI=1S/C6H9NO2/c1-6-3-4(6)9-5(8)7(6)2/h4H,3H2,1-2H3/t4-,6+/m0/s1
