17
gdb 45343	2.35086	1.77081	1.16993	4.6191	73.13	-0.243	-0.0463	0.1967	1046.4451	0.136134	-421.867697	-421.860122	-421.859178	-421.900311	29.071	
O	 0.1310013618	 0.1060779687	-0.7413853287	-0.277445
C	 0.0614357004	 1.160577927	-0.1873722018	 0.406073
C	-1.0519070396	 1.9158908667	 0.550323702	-0.364394
C	-0.1167806261	 3.1671434105	 0.6038543687	-0.022478
C	 0.3577778509	 3.6188471976	 2.0016866683	-0.23574
C	 1.450625149	 2.618606178	 2.4115546106	-0.324649
C	 2.0748998218	 2.131498056	 1.0994054775	 0.401721
O	 3.1738111757	 1.6677072233	 0.9608461275	-0.300035
C	 1.0507998765	 2.3447167295	-0.0274671785	-0.258318
H	-1.9741765575	 2.0215924186	-0.0276568516	 0.138533
H	-1.3093856884	 1.4795423787	 1.5219087753	 0.131617
H	-0.4865454521	 3.995645541	-0.0001425568	 0.087689
H	 0.7872457225	 4.6240206012	 1.9331066216	 0.114197
H	-0.4672215915	 3.6689851563	 2.7181792049	 0.110529
H	 2.2164839323	 3.022530542	 3.0760674094	 0.13535
H	 1.0276793944	 1.7372649719	 2.9128951815	 0.136868
H	 1.5461800598	 2.6572862729	-0.9476740201	 0.120482
61.3351	114.213	167.6465	314.8952	413.8158	437.2234	466.5054	530.8077	559.072	643.252	711.4571	729.1858	791.1656	800.156	869.2072	922.7218	944.8068	963.5498	979.795	1039.1792	1065.4029	1108.5969	1136.9839	1143.1068	1163.6112	1197.1715	1213.4799	1235.5271	1271.747	1295.0962	1319.5018	1351.3638	1438.2882	1457.7314	1494.9243	1836.6211	1898.1963	3029.0045	3046.8877	3051.0089	3090.6313	3100.7431	3111.9714	3117.7701	3120.4645
O=C1CC2CCC(=O)C12	O=C1C[C@H]2CCC(=O)[C@@H]12	
InChI=1S/C7H8O2/c8-5-2-1-4-3-6(9)7(4)5/h4,7H,1-3H2	InChI=1S/C7H8O2/c8-5-2-1-4-3-6(9)7(4)5/h4,7H,1-3H2/t4-,7+/m1/s1
