16
gdb 9316	6.55907	0.86618	0.77627	3.6456	70.08	-0.2653	-0.0571	0.2082	1429.9283	0.126378	-383.705188	-383.695853	-383.694908	-383.74013	31.628	
C	-0.0141739185	 1.4731704042	 0.0100553961	-0.384729
C	-0.027232772	-0.045094068	 0.0023285901	-0.029988
O	-1.3761585503	-0.479327758	 0.012428705	-0.224949
C	-1.5078633618	-1.8630297075	 0.0064802093	-0.162212
C	-2.9796907714	-2.253593026	 0.0183171789	 0.228431
O	-3.8895206887	-1.4612955601	 0.0310118377	-0.256316
C	-3.1985092278	-3.6938018262	 0.0127615676	 0.248607
C	-3.3686207659	-4.8853150405	 0.0078104153	-0.429589
H	 1.015182295	 1.8436276821	 0.0026577804	 0.115736
H	-0.532823704	 1.8646117949	-0.8692397391	 0.133004
H	-0.5167883247	 1.855431434	 0.9026023444	 0.13301
H	 0.4885026603	-0.4354000874	-0.8911835764	 0.089357
H	 0.5047203529	-0.4445605727	 0.8821808678	 0.089359
H	-1.042807188	-2.3286278896	-0.8828678699	 0.116531
H	-1.0261934071	-2.337788206	 0.882034638	 0.116527
H	-3.5355814579	-5.9352545332	 0.0031297248	 0.21722
55.2561	74.3462	97.8434	137.4622	177.8543	240.657	252.8889	312.5724	383.7114	517.0916	580.501	607.4759	660.8213	706.9828	823.2544	839.3572	921.1453	1013.1376	1043.0181	1099.9508	1154.4965	1187.4713	1197.0896	1247.8095	1298.3751	1379.6118	1405.4462	1436.8125	1481.8689	1482.8139	1499.5782	1531.7339	1793.8239	2212.2833	2932.2782	2951.9265	2959.1163	2984.0032	3047.7939	3122.3024	3126.9256	3494.6303
CCOCC(=O)C#C	CCOCC(=O)C#C	
InChI=1S/C6H8O2/c1-3-6(7)5-8-4-2/h1H,4-5H2,2H3	InChI=1S/C6H8O2/c1-3-6(7)5-8-4-2/h1H,4-5H2,2H3
