12
gdb 9460	3.00526	1.816	1.69379	3.0663	56.17	-0.2958	-0.028	0.2678	811.8612	0.083088	-414.649984	-414.642585	-414.64164	-414.681834	26.15	
O	 0.0949032598	 1.4141589533	 0.0718707819	-0.438204
C	 0.0453674481	 0.0156426592	 0.0317536173	 0.132857
C	-1.3952999588	-0.5267658473	-0.144507152	-0.102329
O	-1.0329403075	-1.0845029085	-1.4470520201	-0.243888
C	 0.2501850462	-0.6078941769	-1.3569465785	 0.404091
N	 1.2221950604	-0.613489935	-2.1396968475	-0.534608
C	 0.8272814111	-0.6056052691	 1.1097924879	 0.243821
N	 1.4452537876	-1.0836567163	 1.9606715948	-0.320938
H	 0.9707677517	 1.6887929528	-0.2290080797	 0.311238
H	-1.7129991201	-1.306365242	 0.5478244938	 0.150728
H	-2.1368126896	 0.2672972796	-0.24036671	 0.151004
H	 1.0115442411	-1.0662626899	-3.029962198	 0.246229
104.3439	133.1147	192.5638	206.0915	321.6158	365.2001	420.9267	542.9874	588.3992	637.2494	711.148	775.2121	862.5315	932.091	954.3456	1001.084	1013.5678	1146.8147	1165.824	1212.5639	1226.8512	1350.3842	1376.3311	1500.029	1838.7218	2359.1941	3089.2499	3164.4199	3491.3533	3787.2257
OC1(COC1=N)C#N	O[C@]1(CO[C]1[NH])C#N	
InChI=1S/C4H4N2O2/c5-1-4(7)2-8-3(4)6/h6-7H,2H2	InChI=1S/C4H4N2O2/c5-1-4(7)2-8-3(4)6/h6-7H,2H2/t4-/m0/s1
