19
gdb 9905	5.27632	0.99136	0.90384	2.7137	78.72	-0.2255	0.0253	0.2508	1334.9848	0.16332	-365.044865	-365.035708	-365.034764	-365.079054	32.882	
C	-0.2278658103	 1.3069379471	-0.0174463157	-0.24813
O	 0.2479517756	-0.0249014607	 0.1086838054	-0.195669
C	 0.6023504931	-0.6261811559	-1.0504669537	 0.100672
N	 1.0347750353	-1.8073773799	-1.0329485198	-0.271396
C	 1.4189005382	-2.4759513743	-2.2345157134	 0.404206
C	 1.3097807838	-1.7623432128	-3.5686513453	-0.474281
C	 2.5628127296	-3.4546963884	-2.0420187666	-0.293578
C	 1.1593596288	-3.9710070266	-2.2033937255	-0.293579
H	 0.5346743473	 1.9709291878	-0.4442290213	 0.123411
H	-1.1332781964	 1.3568976993	-0.6356876257	 0.123415
H	-0.4681441954	 1.6450684304	 0.9914003794	 0.144076
H	 0.4725580901	 0.0045233366	-1.9391258127	 0.074116
H	 1.9317754045	-0.8595497775	-3.5965303916	 0.115849
H	 1.6436388634	-2.4171630051	-4.377757831	 0.115713
H	 0.2759612233	-1.4685845805	-3.7868559812	 0.115848
H	 3.2601217345	-3.5814353087	-2.8632162884	 0.107015
H	 3.0038621994	-3.4925921289	-1.0537526664	 0.122649
H	 0.6588058661	-4.3552892673	-1.3233911728	 0.122649
H	 0.8880539492	-4.4541013947	-3.1359600637	 0.107014
47.6111	104.7353	145.3137	159.4487	227.7585	277.7836	315.9016	335.5998	343.7203	472.0635	505.4305	527.5565	760.1518	785.0338	839.46	936.603	941.3322	960.2892	979.2786	1038.948	1056.8775	1072.6399	1078.506	1115.1522	1165.3269	1177.5454	1194.4926	1263.2052	1309.3134	1326.2846	1406.1802	1424.1047	1455.7839	1484.063	1489.3779	1491.4338	1494.4605	1502.4206	1507.3911	1770.2778	3005.4612	3018.8177	3038.3676	3067.5189	3077.0295	3109.2554	3136.6215	3140.9607	3141.0755	3225.9677	3239.4223
COC=NC1(C)CC1	COC=NC1(C)CC1	
InChI=1S/C6H11NO/c1-6(3-4-6)7-5-8-2/h5H,3-4H2,1-2H3	InChI=1S/C6H11NO/c1-6(3-4-6)7-5-8-2/h5H,3-4H2,1-2H3
