19
gdb 96935	3.18076	1.25326	1.18162	3.1129	78.24	-0.2132	0.0571	0.2704	1156.6372	0.159642	-419.20526	-419.196388	-419.195444	-419.23912	32.646	
C	-0.0356265606	 1.5019427686	-0.4426122254	-0.326073
N	-0.0600112581	 0.050846909	-0.421549543	-0.36792
C	-1.1107993742	-0.5433101923	-0.0634657124	 0.474999
N	-1.2677108424	-1.9256089111	-0.0021371963	-0.35453
C	-2.4757426067	-2.2704692609	 0.6846750598	-0.060801
C	-2.7173472988	-1.7064365418	 2.0861952451	-0.064936
C	-1.613169713	-1.2466510458	 3.0095476147	-0.428908
C	-3.1547903868	-0.9422554647	 0.8581479176	 0.057341
O	-2.2899494286	 0.048594387	 0.3403287809	-0.246014
H	 0.9430020972	 1.849787953	-0.0946166612	 0.114417
H	-0.1566370219	 1.8704382361	-1.4698413779	 0.118362
H	-0.8127751027	 1.9694927544	 0.1750576896	 0.11519
H	-0.4201072088	-2.4553454942	 0.1282308316	 0.256965
H	-2.9900023582	-3.1625450011	 0.3454351755	 0.108156
H	-3.556405164	-2.186831323	 2.5861079783	 0.09441
H	-0.7779162211	-0.7993155305	 2.4666735652	 0.14636
H	-1.9858829314	-0.4973195782	 3.7153267233	 0.128159
H	-1.2215370689	-2.0884965717	 3.5900107873	 0.121494
H	-4.194804131	-0.739468603	 0.636386367	 0.11333
76.6995	91.5566	144.612	177.4432	227.6864	234.7583	272.3007	471.8728	492.2824	515.8904	618.1605	695.9905	731.4779	756.4653	759.9519	798.3187	878.0595	913.6136	1010.749	1017.2472	1046.6132	1086.228	1094.0872	1130.8896	1134.4461	1141.1123	1153.2611	1171.5023	1217.5989	1244.9768	1358.9733	1372.8174	1393.5889	1424.9623	1432.0824	1445.7484	1494.1579	1495.5334	1502.7075	1503.4641	1812.2265	3003.9462	3040.3628	3056.7975	3078.2465	3098.5298	3120.9589	3135.953	3168.0696	3194.3579	3635.2586
CN=C1NC2C(C)C2O1	CN=C1N[C@H]2[C@@H](C)[C@H]2O1	
InChI=1S/C6H10N2O/c1-3-4-5(3)9-6(7-2)8-4/h3-5H,1-2H3,(H,7,8)	InChI=1S/C6H10N2O/c1-3-4-5(3)9-6(7-2)8-4/h3-5H,1-2H3,(H,7,8)/t3-,4+,5-/m1/s1
