14
gdb 50442	2.66972	1.56499	1.02544	1.9641	62.6	-0.2708	-0.0445	0.2264	1068.8483	0.100576	-473.868973	-473.861226	-473.860282	-473.902223	27.366	
O	-0.486089185	 0.7122427838	-0.7722295345	-0.233634
C	 0.1332446875	 0.9977668717	 0.2182471805	 0.159918
C	 1.3296732741	 1.9438749291	 0.1935087349	-0.295807
C	 1.5281797927	 2.6348712436	-1.1636197134	-0.174047
N	 2.5226671285	 3.6963219943	-1.1141921728	-0.234321
C	 2.6844844356	 4.2886241134	-0.0195973839	 0.129016
O	 2.0121443397	 4.0717456921	 1.1739748737	-0.213382
C	 1.2463928548	 2.9433383201	 1.3355209888	 0.447073
O	 0.610450171	 2.8052996692	 2.3378737952	-0.302185
H	-0.1196803057	 0.5876744822	 1.2141730757	 0.124917
H	 2.2168070165	 1.3287665599	 0.4191529559	 0.150904
H	 1.826233767	 1.9017156604	-1.9154354803	 0.143124
H	 0.5772069682	 3.0553109098	-1.5136278786	 0.147951
H	 3.3919086549	 5.1020417504	 0.1099575988	 0.150471
67.1295	83.589	145.6033	209.5633	302.2805	394.1006	471.8345	501.8567	555.6215	619.214	687.7068	758.5876	864.3681	890.214	947.6284	981.4272	1016.5005	1062.2107	1098.1817	1124.9424	1141.666	1220.4147	1258.0908	1311.6307	1375.2055	1406.126	1413.1879	1486.2517	1754.5125	1829.8032	1866.6959	2962.4081	2989.1115	3046.4787	3108.0195	3195.4031
O=CC1CN=COC1=O	O=C[C@H]1CN=COC1=O	
InChI=1S/C5H5NO3/c7-2-4-1-6-3-9-5(4)8/h2-4H,1H2	InChI=1S/C5H5NO3/c7-2-4-1-6-3-9-5(4)8/h2-4H,1H2/t4-/m1/s1
