19
gdb 54519	3.09702	1.33567	1.09159	3.0041	75.95	-0.2379	-0.0109	0.227	1147.7247	0.159161	-423.039399	-423.031004	-423.030059	-423.072636	31.958	
C	 0.3215846854	 1.4035644434	 0.1503126656	-0.49438
C	-0.400412445	 0.0939359986	-0.1124706831	 0.294284
O	-1.2497085184	-0.3193262912	 0.6528399039	-0.324728
C	-0.0189141801	-0.6875897219	-1.3240250586	 0.206432
C	-0.9782700328	-1.7956745949	-1.7652793281	-0.363892
C	 0.3179518071	-2.1766886371	-1.1439078218	 0.108254
O	 1.4086499898	-2.5169147804	-1.9419528206	-0.250142
C	 1.5391703407	-1.5254110547	-2.9614756311	-0.094898
C	 0.9767420222	-0.209274561	-2.3717074325	-0.337592
H	 1.3975824117	 1.2343360098	 0.2721594289	 0.141647
H	 0.2003533652	 2.0933872164	-0.6918868001	 0.137934
H	-0.0785756618	 1.8553870114	 1.0583556048	 0.142182
H	-1.8578431463	-1.892766318	-1.1395780795	 0.146332
H	-1.1317751686	-1.9467498631	-2.8279346308	 0.117666
H	 0.3517775132	-2.6344120217	-0.1628356808	 0.123419
H	 2.5955952888	-1.4659860053	-3.2343352291	 0.117473
H	 0.9749477587	-1.8233194699	-3.8553085147	 0.106252
H	 0.5302977384	 0.4149774145	-3.1519882539	 0.111501
H	 1.7742513816	 0.3695217948	-1.8967131886	 0.112255
57.3552	146.5682	173.5489	207.6845	255.2052	311.3683	391.6777	452.4377	472.8631	586.1013	612.7392	683.3894	695.0227	813.1945	837.4361	883.0236	914.2202	946.0419	964.5099	1005.5098	1015.5515	1036.6991	1048.2864	1080.5965	1107.5464	1156.9944	1177.1911	1221.0734	1241.7297	1267.9903	1290.6481	1333.5036	1364.4023	1385.1537	1407.1844	1460.209	1463.8556	1476.0956	1497.5151	1527.9068	1773.4685	3012.4676	3036.1299	3052.9107	3089.1343	3097.1842	3103.2048	3139.9673	3153.534	3198.3467	3237.2179
CC(=O)C12CC1OCC2	CC(=O)[C@]12C[C@H]1OCC2	
InChI=1S/C7H10O2/c1-5(8)7-2-3-9-6(7)4-7/h6H,2-4H2,1H3	InChI=1S/C7H10O2/c1-5(8)7-2-3-9-6(7)4-7/h6H,2-4H2,1H3/t6-,7+/m1/s1
