18
gdb 61025	3.68762	1.03862	0.90207	1.7242	72.34	-0.2411	-0.043	0.1981	1280.8035	0.146915	-439.035665	-439.027252	-439.026308	-439.069412	31.259	
O	 0.9234612585	-0.1201445374	-1.0811940757	-0.433933
C	-0.0224524278	-0.025729321	-0.0505152675	 0.023026
C	-1.2790543095	-0.7882824267	-0.4127304693	 0.133855
O	-1.3771893843	-1.3919487089	-1.4545571402	-0.26246
C	 0.5664348059	-0.5607883968	 1.2656103459	-0.008913
C	 1.7821198805	 0.1722161803	 1.8937505534	-0.189119
N	 1.1009404273	 0.2775628161	 3.236617433	-0.121431
C	-0.0848109773	 1.1146035203	 3.005361531	-0.235515
C	-0.1496595341	-0.3036852731	 2.5914314467	-0.070362
H	 0.5083169821	-0.6663253387	-1.7678597743	 0.295597
H	-0.3217716713	 1.0266869427	 0.0978542833	 0.090587
H	-2.1005111895	-0.7721298794	 0.3317529599	 0.104564
H	 0.7909017584	-1.6226468051	 1.1337799928	 0.096218
H	 2.6786848269	-0.4437723942	 1.9669248873	 0.122076
H	 2.0471223387	 1.1414319033	 1.4591946084	 0.114794
H	-0.6005432724	 1.3827574083	 3.9224597362	 0.125815
H	-0.0332222056	 1.913073029	 2.2679429702	 0.114443
H	-0.7700609464	-1.0240708589	 3.1156586489	 0.100757
54.6267	98.6145	145.3242	190.4176	297.6278	349.9475	392.4088	407.5229	459.0874	513.9565	719.2323	755.7841	768.7815	783.4711	830.9601	917.5499	946.3965	963.8741	990.1395	1010.441	1062.5377	1079.0995	1107.3202	1120.1965	1142.5282	1162.204	1198.99	1218.3989	1258.9435	1264.058	1293.3286	1302.6196	1371.4249	1377.1542	1392.8927	1435.6081	1493.2815	1510.8697	1809.1886	2932.0725	2959.2445	3055.6219	3073.8238	3103.0712	3129.2803	3156.0398	3195.3263	3686.9197
OC(C=O)C1CN2CC12	O[C@@H](C=O)[C@H]1CN2C[C@@H]12	
InChI=1S/C6H9NO2/c8-3-6(9)4-1-7-2-5(4)7/h3-6,9H,1-2H2	InChI=1S/C6H9NO2/c8-3-6(9)4-1-7-2-5(4)7/h3-6,9H,1-2H2/t4-,5-,6-,7?/m0/s1
