15
gdb 66396	2.28976	1.58003	1.31184	5.2871	70.64	-0.2641	-0.0204	0.2436	1023.5303	0.112362	-416.816513	-416.808353	-416.807409	-416.849337	29.893	
C	-0.0339719745	 1.6045153113	-0.030500041	-0.50318
C	 0.0738568337	 0.1103053443	-0.0307529065	 0.143992
C	 0.6939045276	-0.884639355	-0.9898964882	-0.053231
N	 1.2673499029	-1.6296610046	 0.1250211489	-0.341845
C	 0.6623953077	-0.7776663318	 1.0759473584	 0.379584
O	 0.6584721533	-0.776308219	 2.2692544006	-0.317433
C	-0.8171216587	-0.804700841	-0.9028652193	-0.244802
C	-1.6011137681	-1.8911487043	-0.3785059705	 0.304138
N	-2.2148521604	-2.7810217073	 0.0328632631	-0.334588
H	 0.9225448615	 2.060721156	 0.2418077042	 0.146014
H	-0.3274101799	 1.9859260866	-1.0129928912	 0.129759
H	-0.7817806485	 1.9329667582	 0.6978663793	 0.154568
H	 1.2487444417	-0.7112400762	-1.9024255571	 0.132401
H	 1.237405347	-2.6410584602	 0.1982098315	 0.260996
H	-1.2978927153	-0.2656357469	-1.7159901621	 0.143627
105.5319	128.8247	159.8494	195.3156	244.9849	300.8805	392.0579	478.235	526.1131	574.8143	645.1595	684.9721	744.2251	766.1656	827.0884	875.0878	904.4488	963.8806	1001.2736	1048.7365	1086.5267	1102.1862	1135.6365	1237.5976	1257.0976	1322.0582	1336.579	1416.9132	1440.8432	1483.2523	1494.1204	1914.007	2354.3318	3041.0481	3111.3472	3113.375	3147.4328	3210.426	3548.6723
CC12C(NC1=O)C2C#N	C[C@@]12[C@@H](NC1=O)[C@H]2C#N	
InChI=1S/C6H6N2O/c1-6-3(2-7)4(6)8-5(6)9/h3-4H,1H3,(H,8,9)	InChI=1S/C6H6N2O/c1-6-3(2-7)4(6)8-5(6)9/h3-4H,1H3,(H,8,9)/t3-,4+,6-/m1/s1
