15
gdb 130949	6.35783	0.68801	0.64818	1.256	68.01	-0.2666	-0.0523	0.2143	1609.3827	0.111486	-453.913118	-453.90482	-453.903876	-453.948253	28.157	
O	-0.2975467418	 0.0173733313	-0.3862720905	-0.226037
C	 0.0044476267	 1.1253695249	-0.0299698698	 0.157296
C	 1.3564863622	 1.7672655344	-0.2619759186	-0.274498
C	 1.21978111	 3.1131159589	-1.009725663	-0.331253
C	 2.5302099236	 3.8184279716	-1.1593662446	 0.339077
N	 2.8357817094	 4.8809663877	-0.4610673977	-0.141887
O	 4.0985507344	 5.236214088	-0.8422817708	-0.145095
N	 4.5888140511	 4.3869124388	-1.7917663195	-0.054086
C	 3.6440652363	 3.5132552254	-1.9969492778	-0.107183
H	-0.7228700283	 1.7740848049	 0.512398085	 0.080789
H	 1.8134765326	 1.954620473	 0.7190442244	 0.14082
H	 1.9893726154	 1.0617682881	-0.8069976912	 0.1297
H	 0.7865816564	 2.9365811078	-2.0006283489	 0.137246
H	 0.5352463031	 3.7729494835	-0.4682528648	 0.143002
H	 3.7708823089	 2.7166881815	-2.7139400622	 0.152108
39.8374	62.24	69.4618	118.7215	281.7117	325.2824	357.8047	518.1702	651.4929	683.3938	756.8019	766.7067	856.7665	896.807	899.5989	936.3012	990.6244	1028.14	1041.6797	1077.284	1097.575	1189.0286	1209.8408	1269.8505	1304.5605	1365.1461	1426.7799	1432.5419	1463.8739	1465.0009	1489.7696	1612.9493	1840.5875	2860.6378	3028.7862	3048.5606	3092.6201	3112.6402	3266.9264
O=CCCC1=NON=C1	O=CCCc1nonc1	
InChI=1S/C5H6N2O2/c8-3-1-2-5-4-6-9-7-5/h3-4H,1-2H2	InChI=1S/C5H6N2O2/c8-3-1-2-5-4-6-9-7-5/h3-4H,1-2H2
