20
gdb 86937	2.54585	1.11197	1.03423	3.9625	78.02	-0.2555	0.0136	0.269	1288.2758	0.169754	-440.26934	-440.25979	-440.258846	-440.304348	34.929	
C	-0.7169214537	 1.2322848127	-0.1678187171	-0.407395
C	-0.0370511178	-0.1254455874	-0.1633240928	-0.021184
C	 1.416825508	-0.2812563377	-0.7287988805	 0.132663
O	 2.2224095	 0.8681601272	-0.6216288313	-0.434699
C	 1.6671449538	-1.3494516603	 0.3789186216	-0.277608
C	 0.4740246149	-0.7466293969	 1.1633796153	 0.078876
O	 0.9116049423	 0.3138042113	 2.0256342853	-0.205991
C	 1.2160748323	-0.0115123207	 3.2988183999	 0.129624
N	 1.8043035579	 0.8236904228	 4.0385476656	-0.440742
H	-0.0821570917	 1.9994827481	 0.2789842639	 0.133376
H	-0.944321283	 1.5390835097	-1.1935919305	 0.120381
H	-1.6572679804	 1.2037938988	 0.3925449118	 0.114125
H	-0.674053903	-0.8739848287	-0.6484072368	 0.081193
H	 1.5020771719	-0.6127819702	-1.7661516847	 0.082411
H	 2.2030744784	 1.1612398646	 0.2982623621	 0.295
H	 1.4563240897	-2.3663629532	 0.036618407	 0.107783
H	 2.6431814175	-1.323345634	 0.8690848417	 0.11364
H	-0.1921105489	-1.4183980498	 1.7158935861	 0.077365
H	 0.8847222633	-1.0205462653	 3.5802259049	 0.089245
H	 1.9244867484	 0.4381854691	 4.9729006788	 0.231938
49.6421	102.3509	109.1337	168.6497	173.6343	229.1964	295.3923	364.7342	411.9881	459.8232	487.9368	561.9119	613.8545	708.2903	818.5273	829.9302	857.93	891.6884	928.0461	958.7745	1004.5718	1021.7991	1046.534	1065.065	1092.4334	1150.5547	1158.1511	1164.7147	1190.7684	1251.038	1257.0642	1278.1445	1294.5	1330.705	1366.6139	1370.4971	1414.579	1423.5623	1446.5277	1464.6237	1493.7162	1494.6806	1744.6669	3023.4388	3038.8846	3042.1359	3049.0402	3064.0959	3088.0737	3103.3305	3124.0139	3136.4905	3519.0297	3777.9947
CC1C(O)CC1OC=N	C[C@H]1[C@@H](O)C[C@H]1O[CH][NH]	
InChI=1S/C6H11NO2/c1-4-5(8)2-6(4)9-3-7/h3-8H,2H2,1H3	InChI=1S/C6H11NO2/c1-4-5(8)2-6(4)9-3-7/h3-8H,2H2,1H3/t4-,5-,6+/m0/s1
