20
gdb 84664	2.39617	1.66962	1.36077	1.3136	86.1	-0.2218	0.0093	0.231	1058.3942	0.173423	-365.989647	-365.981628	-365.980684	-366.021985	31.913	
C	-0.1158826413	 1.6114890894	-0.0114003933	-0.386478
C	 0.0157423613	 0.0671437079	-0.0021236236	-0.077456
C	 0.5554860537	-0.454314606	-1.316754213	-0.093268
C	 1.8169422147	-0.6450086894	-1.708078863	-0.018614
C	 3.0681560908	-0.3795606306	-0.9602766795	-0.078939
N	 3.2080110672	 0.8998038221	-0.2320839192	-0.325845
C	 3.1714750161	-0.3617572345	 0.5384548594	-0.078939
C	 2.0351297013	-0.607411057	 1.4569220988	-0.018615
C	 0.7316034027	-0.4239621484	 1.2379784332	-0.093267
H	 0.8757547749	 2.0616374757	-0.0851103954	 0.155465
H	-0.7219214045	 1.9402396286	-0.8627183278	 0.10364
H	-0.5999235344	 1.9612696954	 0.9070004243	 0.10364
H	-1.0062721272	-0.3271109759	 0.0730161215	 0.076646
H	-0.2171747789	-0.6850920861	-2.0481741646	 0.087505
H	 1.9738475794	-1.0402291005	-2.7095924417	 0.081095
H	 3.9601588427	-0.7381314006	-1.4699317059	 0.081247
H	 4.1663315333	 1.2329486434	-0.3021144421	 0.232333
H	 4.1255517023	-0.7096329454	 0.9292366488	 0.081247
H	 2.3286069314	-0.9790943365	 2.4364989106	 0.081096
H	 0.0669814345	-0.6361153518	 2.0737456526	 0.087505
75.6743	193.3668	215.8882	251.4926	292.9725	325.9484	379.7837	495.7198	581.059	596.5613	702.3858	712.2057	731.7787	793.6902	794.9229	831.5515	862.3026	922.1603	922.347	965.6828	993.7386	998.3313	1010.4826	1010.8804	1090.0689	1105.9374	1163.6227	1165.8368	1219.3797	1237.9551	1285.3661	1300.0713	1323.0724	1391.6971	1394.2953	1404.5953	1442.7491	1448.4226	1467.2704	1488.863	1508.2935	1727.758	1733.3006	3007.2832	3028.3085	3093.84	3112.5514	3120.4686	3128.0421	3131.2683	3141.1287	3152.6182	3155.7667	3493.2381
CC1C=CC2NC2C=C1	C[C@H]1C=C[C@H]2N[C@H]2C=C1	
InChI=1S/C8H11N/c1-6-2-4-7-8(9-7)5-3-6/h2-9H,1H3	InChI=1S/C8H11N/c1-6-2-4-7-8(9-7)5-3-6/h2-9H,1H3/t6-,7+,8-
