14
gdb 8724	2.59169	1.85341	1.19675	2.4321	70.12	-0.2588	-0.0639	0.1949	988.8969	0.102875	-345.346996	-345.338099	-345.337154	-345.380864	31.358	
C	 0.001251017	 1.7402157342	 0.8379620004	-0.391796
C	-0.1316079356	 0.4274893699	 0.0512052818	-0.244278
C	 0.6207024317	-0.6687078228	 0.6562897261	 0.328299
C	 1.2257185864	-1.5619795102	 1.1855484011	-0.472425
C	-1.6128571326	 0.016885092	-0.1063031671	 0.22988
O	-2.5146276874	 0.6434649442	 0.3980652471	-0.28182
C	-1.8545818099	-1.1548881996	-0.9266218161	 0.277193
C	-2.0575405773	-2.1062404737	-1.6350248454	-0.397468
H	 1.0521486573	 2.0306481787	 0.9015251413	 0.124448
H	-0.5626919718	 2.534996367	 0.3449127829	 0.13133
H	-0.3933076006	 1.6213469177	 1.8487708589	 0.143925
H	 0.2449751953	 0.5734177952	-0.972566083	 0.132082
H	 1.7656350773	-2.3535933731	 1.6434179353	 0.203605
H	-2.2454275798	-2.9504471295	-2.2532540933	 0.217024
38.5333	113.0757	161.2935	200.1558	208.7506	259.0934	280.0512	427.3593	444.0168	544.3487	580.2594	627.2186	647.8291	649.0789	694.1947	709.7212	796.8203	876.988	1023.8404	1053.1046	1117.583	1150.6804	1282.3697	1312.6158	1409.369	1486.1695	1491.5087	1778.6906	2214.1712	2235.6187	2999.0427	3060.3937	3139.0893	3144.719	3495.0037	3504.2797
CC(C#C)C(=O)C#C	C[C@@H](C#C)C(=O)C#C	
InChI=1S/C7H6O/c1-4-6(3)7(8)5-2/h1-2,6H,3H3	InChI=1S/C7H6O/c1-4-6(3)7(8)5-2/h1-2,6H,3H3/t6-/m0/s1
