20
gdb 66623	2.67388	1.95256	1.49161	1.5752	81.98	-0.2112	0.0904	0.3016	974.9287	0.17126	-365.9334	-365.92566	-365.924716	-365.964993	31.396	
C	 0.0909650418	 1.5564477205	-0.0192393787	-0.528467
C	-0.0130512947	 0.0655265944	-0.0190505549	 0.277281
C	 0.7165792964	-1.0237102053	-0.7937031246	-0.141367
C	 0.7092455373	-1.0046412988	 0.7433104128	-0.078353
N	-0.5034031397	-1.7971116675	 1.1035088146	-0.188493
C	-0.5015772742	-2.9422044542	 0.1176161054	-0.188612
C	-0.5422832758	-1.8923177741	-1.0069509678	-0.126259
C	-1.2159793448	-0.9237257892	 0.0351551383	 0.325331
C	-2.6715892481	-0.617042961	 0.1894192475	-0.526126
H	 1.1409756789	 1.8689644001	-0.028339445	 0.123709
H	-0.3902699039	 1.9960245369	-0.9005700211	 0.119875
H	-0.3757761438	 1.992469871	 0.871402659	 0.125016
H	 1.6171347334	-0.9536138267	-1.3894210303	 0.083418
H	 1.5951283307	-0.9591409283	 1.3646067638	 0.085053
H	 0.3584738708	-3.6150804905	 0.1873987671	 0.097479
H	-1.4301437929	-3.5117629283	 0.218868838	 0.101697
H	-0.9059683256	-2.0745237554	-2.0185725243	 0.062918
H	-3.2616550294	-1.5382858658	 0.2439710562	 0.125957
H	-2.8515388323	-0.0480401252	 1.1076351606	 0.129925
H	-3.0391078739	-0.0284774327	-0.6585267867	 0.12002
186.1414	191.4154	201.2648	220.0355	285.8116	292.2108	470.2219	565.4841	580.5752	613.493	726.3764	791.3398	806.031	820.3891	844.8872	861.8523	866.6996	894.1165	925.8588	961.8098	988.382	1018.8151	1033.5522	1042.8143	1103.8193	1115.6473	1138.4479	1147.5103	1178.4032	1197.1107	1218.9232	1225.2124	1248.3056	1289.3888	1329.2136	1409.4516	1410.701	1455.233	1480.974	1485.7764	1487.3042	1495.4565	1497.543	3021.1723	3027.9188	3047.5537	3081.6456	3090.7672	3096.5334	3099.5959	3105.1281	3110.5855	3186.3703	3203.2048
CC12C3C1N1CC3C21C	C[C@@]12[C@H]3[C@@H]1N1C[C@H]3[C@]21C	
InChI=1S/C8H11N/c1-7-5-4-3-9(6(5)7)8(4,7)2/h4-6H,3H2,1-2H3	InChI=1S/C8H11N/c1-7-5-4-3-9(6(5)7)8(4,7)2/h4-6H,3H2,1-2H3/t4-,5-,6+,7-,8-/m1/s1
