15
gdb 20222	4.43207	2.8026	2.43429	1.66	66.76	-0.2311	0.0009	0.2321	627.0168	0.122201	-325.457935	-325.453017	-325.452073	-325.486501	21.551	
C	-0.0332287413	 1.5528380616	-0.0081626218	-0.085016
C	 1.2223954324	 2.0230348862	-0.047347218	-0.077538
C	 2.1506474642	 0.849187025	-0.0905269604	-0.013022
C	 1.3689646676	-0.3141786676	-0.7379216781	-0.089133
C	 1.7882472382	-1.212163836	 0.4680074735	-0.063815
C	 0.748300179	-0.5235630392	 1.2548499835	-0.04836
C	 0.0292649256	 0.0517178202	-0.0132679188	-0.083599
N	 2.1390838926	 0.0178286005	 1.2312358666	-0.15612
H	-0.9394429824	 2.1342383974	 0.1127881841	 0.101634
H	 1.5333648532	 3.0566553763	 0.0386894414	 0.101199
H	 3.1856982452	 1.0128785569	-0.3858464069	 0.074663
H	 1.3919315884	-0.5313681852	-1.8049924876	 0.072701
H	 2.3025918592	-2.1578098687	 0.5683027296	 0.096369
H	 0.3197274757	-0.7459114093	 2.2230183011	 0.097422
H	-0.8583259277	-0.5079877582	-0.3055525581	 0.072614
373.7585	407.0068	547.1888	668.2152	712.6794	728.3015	768.589	811.6731	834.5404	839.7434	858.475	882.199	923.1333	928.108	951.9748	956.0519	989.5428	1001.9538	1015.9096	1035.3922	1124.9174	1135.2805	1145.8283	1185.5295	1216.3559	1231.1376	1235.9979	1282.4913	1307.5011	1333.7495	1365.4845	1630.0711	3120.2016	3125.9737	3133.4477	3195.7361	3199.0569	3215.7166	3221.24
C1=CC2C3C4C(C13)N24	C1=C[C@@H]2[C@H]3[C@@H]4[C@H]([C@@H]13)N24	
InChI=1S/C7H7N/c1-2-4-5-3(1)6-7(5)8(4)6/h1-7H	InChI=1S/C7H7N/c1-2-4-5-3(1)6-7(5)8(4)6/h1-7H/t3-,4+,5-,6-,7+,8?/m0/s1
