20
gdb 82328	2.56561	1.72376	1.28043	2.3908	77.59	-0.2382	0.0727	0.3109	1042.9166	0.173183	-403.119104	-403.111332	-403.110387	-403.15126	31.679	
O	 0.5317440618	 0.6752776938	-0.7368863709	-0.436362
C	 0.1622354962	-0.4678152082	 0.0099428518	 0.065011
C	 0.5967375183	-0.3840446286	 1.4645022338	-0.072405
N	-0.1877668641	 0.657289473	 2.1734510485	-0.352195
C	-0.5244081412	-0.775976348	 2.3449850672	-0.035707
C	-1.6997606043	-1.2274994976	 1.497323942	-0.294225
C	-1.3662163518	-0.718297545	 0.0914353166	 0.330244
C	-2.3064995937	 0.2123051623	-0.6308696638	-0.294258
C	-2.1242950359	-1.2025262567	-1.1150317836	-0.32972
H	 0.2218516219	 1.428252869	-0.2164390352	 0.287895
H	 0.662575374	-1.3103829164	-0.4818407284	 0.084396
H	 1.6383854711	-0.5330739952	 1.7281056125	 0.087089
H	 0.3385585016	 0.9718768548	 2.9847139507	 0.232249
H	-0.3504211811	-1.2321299763	 3.3143697604	 0.085812
H	-1.7525251373	-2.3237472937	 1.5222127476	 0.099431
H	-2.6570289057	-0.8430736656	 1.8647982676	 0.104435
H	-3.2347780335	 0.4756279194	-0.1349069874	 0.105736
H	-1.8672655752	 1.0021540682	-1.2289570632	 0.116059
H	-1.5665047322	-1.3512584108	-2.0347731963	 0.113122
H	-2.9307090089	-1.9131602185	-0.9617567199	 0.103393
67.6112	193.815	250.262	286.663	365.9251	367.6434	436.7276	475.8256	534.8077	615.3902	633.6661	779.4576	787.1618	801.6053	866.1493	874.9901	900.1729	926.2681	947.3107	961.0766	989.9594	999.4665	1047.2479	1060.1696	1087.4797	1087.7009	1096.0366	1131.4764	1163.9845	1193.6872	1200.0173	1246.3342	1267.9855	1295.5258	1303.3273	1316.5288	1363.5804	1370.386	1428.9815	1442.4513	1459.1108	1486.1834	1499.9655	3022.3199	3042.2983	3069.5246	3117.7118	3132.5722	3158.3417	3172.1567	3198.9933	3224.503	3502.7989	3767.3975
OC1C2NC2CC11CC1	O[C@H]1[C@H]2N[C@H]2CC21CC2	
InChI=1S/C7H11NO/c9-6-5-4(8-5)3-7(6)1-2-7/h4-6,8-9H,1-3H2	InChI=1S/C7H11NO/c9-6-5-4(8-5)3-7(6)1-2-7/h4-6,8-9H,1-3H2/t4-,5-,6-/m0/s1
