23
gdb 101343	2.43049	1.03633	0.8967	1.7631	82.8	-0.2523	0.0775	0.3298	1471.3938	0.202784	-425.398651	-425.387734	-425.38679	-425.435372	38.825	
C	-0.752801153	 1.336545623	-1.0775608258	-0.382114
C	-0.1037653919	 0.1417476863	-0.3683597973	-0.20302
C	-1.0616929425	-0.5156901439	 0.5956780984	 0.097803
O	-2.1400709067	-1.2866561029	 0.0474808013	-0.258624
C	-1.1740018022	-1.9596349464	 0.8628450692	 0.013134
C	-0.2980525053	-3.0398734139	 0.2242373838	 0.097216
C	-0.7311130801	-3.3994200836	-1.1989640078	-0.401761
O	 1.0526528378	-2.5911478795	 0.3043543093	-0.245417
C	 2.0194363342	-3.6075280604	 0.1728817522	-0.233814
H	-0.0501107457	 1.8146986373	-1.7664304968	 0.111102
H	-1.6280434532	 1.0159527782	-1.6508632774	 0.130324
H	-1.0844095024	 2.0948065286	-0.3592710361	 0.11226
H	 0.2594157495	-0.5868712748	-1.0949673675	 0.112203
H	 0.7749955038	 0.4695085847	 0.2003767309	 0.103674
H	-1.3852783379	 0.143039039	 1.4071334773	 0.081595
H	-1.5650954835	-2.2372671231	 1.8428557155	 0.086845
H	-0.392280012	-3.9435746472	 0.8494937333	 0.066482
H	-0.1118868988	-4.2064168728	-1.6000582304	 0.109808
H	-1.7707662185	-3.7385697735	-1.1965059084	 0.128698
H	-0.6653781125	-2.537121872	-1.8647812208	 0.133957
H	 2.9926897926	-3.1505151349	 0.3691255822	 0.127521
H	 1.8560908051	-4.4182477855	 0.9007752294	 0.102909
H	 2.0399252031	-4.0492784925	-0.8336737146	 0.109218
45.035	76.4912	90.5891	127.2906	181.6431	197.7802	223.7976	228.2904	279.0158	306.6647	381.9839	431.4575	465.7214	518.8948	687.6032	755.1306	764.3894	827.757	853.9582	936.8807	956.0975	1017.4988	1031.831	1062.8355	1085.3257	1111.9765	1130.0638	1147.074	1179.4518	1182.7933	1191.0087	1222.398	1287.2561	1319.1537	1341.2805	1372.1209	1386.4499	1400.178	1407.2037	1417.9966	1470.3986	1475.4833	1482.3063	1486.3056	1490.252	1498.3881	1502.6944	1510.4246	1512.7527	2956.0507	2976.2686	3028.4109	3033.6599	3042.9129	3055.593	3060.477	3092.4557	3094.3983	3110.5961	3112.2944	3121.7038	3124.1341	3143.3796
CCC1OC1C(C)OC	CC[C@H]1O[C@H]1[C@@H](C)OC	
InChI=1S/C7H14O2/c1-4-6-7(9-6)5(2)8-3/h5-7H,4H2,1-3H3	InChI=1S/C7H14O2/c1-4-6-7(9-6)5(2)8-3/h5-7H,4H2,1-3H3/t5-,6-,7+/m1/s1
