25
gdb 109927	1.96786	1.31857	1.03315	1.2382	88.57	-0.2492	0.074	0.3231	1355.1862	0.226991	-389.493975	-389.483271	-389.482326	-389.528788	41.11	
C	 1.0957117727	 0.968067264	 0.2873483787	-0.385173
C	 1.0904821539	-0.5584689047	 0.1406640982	-0.207351
C	 1.572361464	-1.0237885501	-1.2289780506	 0.018473
C	 3.0899777952	-0.9839421869	-1.6257838659	 0.002247
C	 4.1181344144	-0.9942117641	-0.4960916342	-0.407186
C	 2.8930908333	-2.3539518795	-2.3422174914	-0.292959
C	 1.5153422491	-2.5268309138	-1.6290022591	 0.383535
C	 1.5183832326	-3.544802163	-0.4920750323	-0.456319
O	 0.401502683	-2.7562103076	-2.4816943482	-0.479561
H	 2.1004147076	 1.3815852606	 0.1495602145	 0.117434
H	 0.4439336566	 1.4355986464	-0.4590296542	 0.115906
H	 0.7437372356	 1.2748849695	 1.2773524669	 0.109136
H	 1.7013225399	-1.0038430277	 0.9350446525	 0.090301
H	 0.0695735034	-0.930394767	 0.2971885583	 0.100411
H	 1.0025193292	-0.4917614637	-1.9990117988	 0.079881
H	 3.3335880615	-0.1636942662	-2.3069055137	 0.067926
H	 3.9526177741	-1.8097050602	 0.2156171301	 0.115384
H	 5.1266683103	-1.1219823207	-0.9050359197	 0.112573
H	 4.1082156978	-0.056902069	 0.0703449798	 0.116207
H	 2.7565064135	-2.2541662403	-3.4214225304	 0.098875
H	 3.6506740854	-3.1197539403	-2.1456508899	 0.084137
H	 2.3412013503	-3.3836477264	 0.2091270896	 0.121333
H	 0.576960238	-3.5075992758	 0.0642833263	 0.123265
H	 1.6352338504	-4.5580120346	-0.8987914782	 0.101787
H	 0.3773656781	-3.6948581386	-2.6983244182	 0.269739
101.4031	112.8403	160.6909	201.0646	236.4254	239.6423	263.8456	267.5803	290.3659	295.7828	347.4036	368.8895	422.9037	514.1365	526.8225	643.3966	735.1638	794.7937	827.0563	849.0971	899.0172	910.9578	948.3385	971.0913	981.6834	1030.0276	1048.7788	1067.5663	1094.2225	1119.9387	1168.1631	1187.8103	1201.7063	1205.3931	1236.2319	1277.3652	1283.9971	1311.9389	1342.152	1364.5905	1379.1114	1401.7041	1406.0633	1412.7004	1415.4334	1475.9752	1483.0766	1489.4995	1495.7558	1498.3622	1501.7078	1501.8511	1509.9452	3020.4078	3023.1262	3029.618	3031.113	3037.821	3044.2526	3054.8176	3060.9373	3090.2849	3091.7152	3099.0644	3099.5255	3102.317	3110.9589	3124.083	3796.0205
CCC1C(C)CC1(C)O	CC[C@H]1[C@@H](C)C[C@]1(C)O	
InChI=1S/C8H16O/c1-4-7-6(2)5-8(7,3)9/h6-7,9H,4-5H2,1-3H3	InChI=1S/C8H16O/c1-4-7-6(2)5-8(7,3)9/h6-7,9H,4-5H2,1-3H3/t6-,7-,8-/m0/s1
