16
gdb 20970	4.71304	1.62527	1.23693	3.965	68.08	-0.1945	0.0068	0.2013	955.738	0.131723	-376.088443	-376.080629	-376.079685	-376.120788	28.035	
C	-0.043249965	 1.3956836813	 0.039663287	-0.3299
N	 0.2744123591	-0.0163091906	 0.0196845353	-0.150271
C	-0.1323503803	-0.7792203747	 1.1908574729	-0.336568
C	 0.1761686235	-0.645949407	-1.20718096	 0.413297
C	 0.0640689967	-0.1024030537	-2.4753589848	-0.202044
N	 0.0749911934	-1.1968120854	-3.2857256838	-0.156776
N	 0.1678490357	-2.3322949574	-2.5926746098	-0.111828
N	 0.2277837972	-2.0066751426	-1.3285342235	-0.28773
H	 0.5651519043	 1.9291584371	-0.6982111281	 0.125825
H	-1.1061078418	 1.6069022412	-0.1726938649	 0.106392
H	 0.1954383976	 1.8034678944	 1.025319061	 0.126556
H	-1.227804063	-0.8377530581	 1.3020554701	 0.106548
H	 0.2565969027	-1.7940147576	 1.1128260673	 0.164356
H	 0.2811696447	-0.304471329	 2.085459548	 0.115972
H	-0.0195565336	 0.9003762339	-2.8527149385	 0.136704
H	 0.0152770089	-1.2358811119	-4.2902404382	 0.279467
69.6421	147.1733	188.4826	195.9433	247.0693	368.5038	374.8929	504.7278	538.8342	619.1469	669.4531	697.9682	750.8379	948.5791	990.3377	1041.7696	1074.0317	1084.9698	1129.4366	1143.2662	1175.5589	1230.7255	1249.9209	1294.9233	1366.5158	1373.996	1444.6157	1467.8878	1485.4205	1493.4873	1498.1728	1508.6284	1520.3338	1630.1786	2951.9537	2970.3138	3061.965	3079.3216	3112.4508	3155.7496	3300.6565	3662.0105
CN(C)C1=CNN=N1	CN(C)c1c[nH]nn1	
InChI=1S/C4H8N4/c1-8(2)4-3-5-7-6-4/h3H,1-2H3,(H,5,6,7)	InChI=1S/C4H8N4/c1-8(2)4-3-5-7-6-4/h3H,1-2H3,(H,5,6,7)
