13
gdb 130649	5.16444	1.37349	1.09245	0.4855	64.09	-0.2454	-0.0276	0.2179	996.0947	0.093135	-448.983421	-448.976968	-448.976024	-449.014535	24.218	
O	-0.025599385	 0.0301485235	 0.0050257565	-0.332785
C	-0.0329732919	 1.2305087274	 0.0105462397	 0.413266
C	-1.2838823229	 2.1596210314	 0.0322421559	-0.310678
N	-0.6575590564	 3.4578627358	 0.0298416189	 0.0215
N	-1.059026701	 4.761037075	 0.0416391982	-0.264348
C	 0.110447915	 5.3816403224	 0.0286583174	 0.031516
N	 1.2359012042	 4.5833836497	 0.0095457323	-0.386466
C	 0.6821906581	 3.3963351967	 0.0113231615	 0.51873
N	 1.0792149679	 2.0708388446	-0.0003499937	-0.457885
H	-1.9034704321	 1.9792949951	-0.8508343718	 0.171754
H	-1.878973329	 1.9707834389	 0.9302639568	 0.171773
H	 0.1725697482	 6.4591949494	 0.0330090529	 0.134182
H	 2.0296686549	 1.7394693503	-0.0148973547	 0.289442
102.4505	166.4878	306.3186	359.5107	454.8655	543.08	569.8596	579.2805	660.6077	753.0252	761.2268	847.2848	864.9138	892.8391	983.4021	1003.4239	1117.1517	1177.5017	1182.7811	1229.5203	1265.7327	1298.1437	1309.1641	1347.7775	1449.7924	1480.7349	1543.3381	1641.4599	1873.0211	3065.8954	3112.1829	3268.0753	3670.4896
O=C1CN2N=CN=C2N1	O=C1Cn2ncnc2N1	
InChI=1S/C4H4N4O/c9-3-1-8-4(7-3)5-2-6-8/h2H,1H2,(H,5,6,7,9)	InChI=1S/C4H4N4O/c9-3-1-8-4(7-3)5-2-6-8/h2H,1H2,(H,5,6,7,9)
