19
gdb 42394	4.97826	0.75379	0.73641	2.7335	77.	-0.2446	-0.0285	0.216	1580.0856	0.159536	-419.166521	-419.157518	-419.156573	-419.201808	32.28	
O	 0.0748677144	 0.232337019	-0.8565621071	-0.331224
C	 0.0313157382	 1.2319085537	-0.1686912653	 0.389894
C	 1.1969445066	 1.6828157186	 0.6987127841	-0.357426
C	 2.4622950534	 0.8914766173	 0.473277617	 0.047985
C	 3.5085568128	 1.3921993754	-0.4488226227	-0.231529
N	 3.7434142069	 1.3778595903	 1.0084316059	-0.331941
C	-1.2031076683	 2.0785209526	-0.1249233304	-0.10261
C	-1.8054098125	 2.4337334414	-1.452606036	-0.217253
N	-2.4581896561	 1.4666027362	-0.5839982695	-0.301785
H	 1.3650400853	 2.7562516692	 0.5316120954	 0.118283
H	 0.8666360322	 1.6003969823	 1.7461210246	 0.138023
H	 2.3353115013	-0.1834836149	 0.5601638662	 0.111803
H	 4.114225581	 0.6939320026	-1.0184665101	 0.125989
H	 3.339777541	 2.3477397142	-0.9401774486	 0.106496
H	 3.6303374847	 2.3180988595	 1.3817543111	 0.225921
H	-1.2940843753	 2.7789422222	 0.7002972044	 0.098629
H	-2.3115880697	 3.3891011107	-1.556634695	 0.127906
H	-1.2854841163	 2.0738582693	-2.3361219567	 0.133296
H	-2.2202048096	 0.5282363303	-0.909341127	 0.249543
41.064	54.2113	105.0098	133.1476	260.4288	273.008	310.5634	368.5612	410.9638	586.757	682.621	796.2504	821.1712	849.887	865.746	891.3725	902.477	957.6264	966.7302	973.3188	1006.2257	1048.7539	1079.6167	1118.6387	1120.2797	1135.7442	1159.8085	1181.335	1185.1209	1239.4552	1267.2514	1290.1139	1300.4807	1320.8574	1338.4679	1403.4119	1427.1514	1454.1425	1494.3443	1514.8757	1784.1841	2997.9217	3034.4664	3107.639	3112.0804	3153.1894	3157.1739	3194.9989	3206.1202	3458.5195	3485.1373
O=C(CC1CN1)C1CN1	O=C(C[C@H]1CN1)[C@H]1CN1	
InChI=1S/C6H10N2O/c9-6(5-3-8-5)1-4-2-7-4/h4-5,7-8H,1-3H2	InChI=1S/C6H10N2O/c9-6(5-3-8-5)1-4-2-7-4/h4-5,7-8H,1-3H2/t4-,5+/m0/s1
