21
gdb 92231	2.68179	1.69374	1.31955	1.2747	80.55	-0.2462	0.0705	0.3166	1039.0481	0.185134	-387.072361	-387.064729	-387.063785	-387.104079	31.551	
O	 0.0883799676	 1.4309430443	-0.1562337954	-0.42523
C	 0.0471711443	 0.0279300103	-0.0243056357	 0.13534
C	 0.3714375059	-0.614552828	 1.3573865123	-0.295707
C	-0.9273071515	-1.4687972843	 1.2380055727	 0.000863
C	-2.0184626911	-1.3829827673	 2.3279632076	-0.246111
C	-2.9507819388	-0.2457985102	 1.9172989477	-0.031688
C	-2.3708695139	 1.1328889179	 1.7581864025	-0.282714
C	-2.5414898934	 0.2584104429	 0.539815608	-0.023597
C	-1.3815628778	-0.582683297	 0.0280249346	-0.059682
H	 1.0115957056	 1.7002897661	-0.1956331121	 0.280666
H	 0.6349179414	-0.452324543	-0.8202416608	 0.061977
H	 1.3125578374	-1.1672794996	 1.4271359809	 0.088002
H	 0.3382742354	 0.1136610061	 2.1717658362	 0.104275
H	-0.7023201832	-2.5044938198	 0.9749419202	 0.067238
H	-2.5864102542	-2.3196435907	 2.3634449173	 0.095172
H	-1.5866616405	-1.2376914535	 3.325811346	 0.096419
H	-3.9983413962	-0.3296148073	 2.1872210063	 0.075601
H	-3.0549794708	 1.9707198939	 1.8464780899	 0.104167
H	-1.3761287434	 1.3511750314	 2.123726177	 0.115763
H	-3.2913687319	 0.5617041768	-0.1819883532	 0.078272
H	-1.679992271	-1.1047533491	-0.8848057319	 0.060974
118.8086	184.8135	248.6047	261.2601	352.9815	373.4699	416.3213	541.2126	614.6626	646.1625	711.5157	746.2668	794.2932	813.7888	839.8607	867.814	913.4922	922.3571	957.1923	975.3541	1011.5393	1036.9223	1053.2815	1067.0393	1078.8969	1106.8258	1111.6143	1138.0746	1148.7602	1193.0994	1206.6571	1216.4919	1225.1708	1249.3789	1262.6478	1302.6681	1320.5192	1334.3259	1345.2676	1362.2633	1392.7678	1428.9218	1479.2136	1489.1871	1507.503	2983.3464	3026.7032	3054.8755	3059.353	3064.4018	3081.6627	3112.8819	3140.4368	3156.8174	3169.6286	3230.6356	3814.2149
OC1CC2CC3CC3C12	O[C@H]1C[C@H]2C[C@H]3C[C@H]3[C@@H]12	
InChI=1S/C8H12O/c9-7-3-5-1-4-2-6(4)8(5)7/h4-9H,1-3H2	InChI=1S/C8H12O/c9-7-3-5-1-4-2-6(4)8(5)7/h4-9H,1-3H2/t4-,5+,6+,7-,8-/m0/s1
