18
gdb 59319	2.70711	1.18155	1.0381	1.3529	68.41	-0.251	0.0169	0.2679	1203.6249	0.145506	-476.231783	-476.221887	-476.220943	-476.266949	35.388	
C	 0.4905247522	 0.4531819898	-0.6821422712	-0.426694
C	-0.0221312371	-0.1170665518	 0.6362129882	 0.130576
O	-0.2786586394	 0.9210754642	 1.5854035034	-0.436004
C	-1.2660156035	-1.0125533703	 0.5282553046	-0.001071
N	-2.3369740033	-0.5574166066	-0.3791699944	-0.336333
C	-2.2653444427	-1.6172628852	-1.2455778847	 0.397088
O	-2.8075073824	-1.8855608186	-2.2853551375	-0.370047
C	-1.2037544393	-2.3068049567	-0.3488160764	-0.047928
O	 0.0351193954	-2.619163889	-0.9320510179	-0.421251
H	 1.3634156003	 1.0829565749	-0.49100622	 0.12385
H	 0.7702466355	-0.3482983839	-1.367472419	 0.142931
H	-0.2784613382	 1.0642719771	-1.1694920632	 0.106466
H	 0.761656019	-0.7322911697	 1.0938150609	 0.106506
H	-0.7111198988	 1.6438931196	 1.1187336155	 0.276203
H	-1.624388235	-1.1978346898	 1.5459112673	 0.096435
H	-2.9677983086	 0.2303365452	-0.3434519552	 0.250951
H	-1.6281835637	-3.1720083372	 0.1792994866	 0.104155
H	-0.1465277904	-3.025309422	-1.7876387371	 0.304166
55.9854	69.5887	144.9885	189.3087	225.0369	242.9436	257.0592	274.7832	306.3632	380.8375	415.9207	509.7918	550.7655	613.9834	712.2117	784.8437	808.2425	906.3371	926.6489	943.3648	992.7123	1054.4029	1110.8868	1125.4251	1154.7045	1187.7827	1200.3882	1259.9143	1293.4615	1331.0784	1349.0331	1365.8801	1390.3398	1400.9676	1402.9841	1424.4489	1489.167	1503.7073	1891.2453	3009.6946	3035.8504	3048.4939	3061.8109	3108.7466	3148.4091	3601.2529	3799.9406	3808.1663
CC(O)C1NC(=O)C1O	C[C@@H](O)[C@H]1NC(=O)[C@H]1O	
InChI=1S/C5H9NO3/c1-2(7)3-4(8)5(9)6-3/h2-4,7-8H,1H3,(H,6,9)	InChI=1S/C5H9NO3/c1-2(7)3-4(8)5(9)6-3/h2-4,7-8H,1H3,(H,6,9)/t2-,3-,4+/m1/s1
