21
gdb 64153	3.47487	0.97079	0.9167	3.4969	88.39	-0.2464	-0.0526	0.1937	1381.7792	0.181491	-387.13121	-387.121831	-387.120887	-387.165223	35.348	
C	 0.2605935626	 1.3991724233	 0.0094704476	-0.418045
C	-0.1167059546	-0.0994044695	-0.0015782734	 0.268432
C	-1.6465834808	-0.2460394081	 0.0214059066	-0.43132
C	 0.5340620482	-0.8439499454	-1.2112951019	-0.261508
C	 1.8384639913	-1.4876261262	-0.6785590606	-0.319312
C	 1.602741114	-1.5333495593	 0.8145027787	 0.227902
C	 2.4525480618	-2.2680310074	 1.75302422	 0.070853
O	 3.4282636993	-2.9109817325	 1.4310010871	-0.272432
C	 0.54504654	-0.7912389259	 1.1711556663	-0.173065
H	 1.3442341235	 1.5366164235	-0.0569656242	 0.120355
H	-0.201691027	 1.9140856378	-0.8398589327	 0.117525
H	-0.08432715	 1.8888767487	 0.9265281306	 0.114093
H	-2.0883254839	 0.1952347315	-0.878792552	 0.118262
H	-1.9434453125	-1.2988225113	 0.0613552081	 0.117129
H	-2.0828860557	 0.2623151612	 0.8884109739	 0.11276
H	-0.1458294094	-1.6312219969	-1.553113591	 0.102428
H	 0.7044839412	-0.1757782648	-2.0599440376	 0.099006
H	 2.031819174	-2.4787958546	-1.0982819821	 0.122597
H	 2.7269876914	-0.8846044995	-0.9037727864	 0.117832
H	 2.1348331873	-2.1994642589	 2.8181783244	 0.063867
H	 0.2063771093	-0.6511959055	 2.1945147284	 0.10264
74.4855	115.1409	174.6657	196.6206	231.9358	263.7271	305.2337	333.8066	365.3796	399.1571	489.5306	503.8003	588.2918	719.0168	751.5899	841.7678	891.3943	895.3482	921.6302	938.5407	958.4282	978.3714	1008.3393	1030.4772	1048.504	1123.9883	1156.2589	1196.3373	1225.0939	1253.3771	1280.9646	1291.8146	1330.666	1369.4751	1395.4975	1414.9393	1424.6325	1479.9886	1484.1402	1489.3371	1500.0912	1501.2569	1508.5682	1681.4107	1782.3638	2872.546	3024.1632	3027.8674	3032.9063	3046.9586	3083.5244	3091.4447	3096.2344	3097.551	3102.4498	3104.9355	3169.4372
CC1(C)CCC(C=O)=C1	CC1(C)CCC(=C1)C=O	
InChI=1S/C8H12O/c1-8(2)4-3-7(5-8)6-9/h5-6H,3-4H2,1-2H3	InChI=1S/C8H12O/c1-8(2)4-3-7(5-8)6-9/h5-6H,3-4H2,1-2H3
