16
gdb 99573	2.27971	1.21444	0.83895	2.8116	71.09	-0.279	0.0037	0.2827	1314.4964	0.121259	-437.847598	-437.837544	-437.836599	-437.883015	35.396	
O	 0.0989907043	 1.4393679563	 0.0221542372	-0.418315
C	 0.0549763781	 0.0332057235	 0.0502699945	-0.070585
C	-1.3974415216	-0.5085240866	 0.0360848316	-0.182399
C	-2.0682615012	-0.0524739663	-1.1813300035	 0.266544
N	-2.5374211054	 0.3379123383	-2.1633272405	-0.324434
C	-1.4272449592	-2.063749316	 0.1541908319	-0.047484
O	-0.6983854823	-2.4800149059	 1.2994324734	-0.414244
C	-2.7961398333	-2.5751512356	 0.1598237465	 0.275227
C	-3.9271498787	-2.9758574191	 0.2222863018	-0.412125
H	-0.2335066477	 1.7366746515	-0.8326897089	 0.299067
H	 0.6141002486	-0.4182707732	-0.7832551736	 0.105974
H	 0.5238621865	-0.2853758672	 0.9822345037	 0.139868
H	-1.9298400839	-0.085024062	 0.8958590871	 0.136212
H	-0.8851931291	-2.477020469	-0.7050391343	 0.138489
H	-1.2937290294	-2.4485051177	 2.0568011008	 0.294655
H	-4.9254084058	-3.3388270811	 0.2536574923	 0.213551
55.6838	93.8601	112.1361	150.5168	208.7251	214.6397	265.042	297.1959	350.5986	389.8394	422.6612	480.1876	533.5327	591.606	622.9578	652.0434	690.2362	840.7142	918.1913	1036.4473	1042.3916	1053.201	1082.9799	1099.7451	1194.1129	1223.6462	1275.5681	1326.0399	1356.475	1392.1319	1411.9189	1417.4865	1507.2197	2238.4599	2352.2461	2994.2117	3039.3711	3058.158	3129.0183	3499.9983	3797.2713	3807.9208
OCC(C#N)C(O)C#C	OC[C@@H](C#N)[C@@H](O)C#C	
InChI=1S/C6H7NO2/c1-2-6(9)5(3-7)4-8/h1,5-6,8-9H,4H2	InChI=1S/C6H7NO2/c1-2-6(9)5(3-7)4-8/h1,5-6,8-9H,4H2/t5-,6+/m1/s1
