18
gdb 79474	2.75358	1.82642	1.48713	2.1796	70.41	-0.222	0.0508	0.2728	930.7801	0.14929	-439.012976	-439.00578	-439.004836	-439.04404	29.844	
O	-0.1938546597	 1.3924939246	-0.1000415671	-0.453275
C	-0.0146551101	-0.0114682282	-0.0668938516	 0.050301
C	 0.1525283713	-0.5609795576	 1.3577215429	-0.039673
C	-1.360109153	-0.3785600526	 1.638804892	-0.115559
C	-1.3050579174	-1.7285963404	 2.3381819182	-0.190335
N	-0.1835280069	-2.0864019593	 1.375476346	-0.162167
C	-0.9784507679	-2.1473712412	 0.1020585841	-0.208882
C	-1.4044343255	-0.6781779589	 0.0519297701	 0.392235
O	-2.4466486586	-0.3335106746	-0.7870546183	-0.49408
H	 0.6560633936	 1.8198346694	 0.0440324243	 0.291541
H	 0.6551366284	-0.3529273971	-0.8676528038	 0.068082
H	 0.9624100671	-0.2867529118	 2.0319133403	 0.076276
H	-1.8295818639	 0.5312850602	 2.0073647446	 0.074343
H	-0.9141819843	-1.6665992089	 3.3582812947	 0.10487
H	-2.1616583076	-2.4100049218	 2.314232735	 0.101464
H	-0.3533409697	-2.4417305413	-0.7451977827	 0.101712
H	-1.804998847	-2.855211992	 0.1931139063	 0.110254
H	-2.4162922888	 0.6248873418	-0.897528255	 0.292891
191.5479	225.9251	269.5218	294.7444	376.1886	402.4831	472.885	513.4258	538.3388	654.8474	667.4345	750.8617	822.2559	837.0146	856.0028	889.4029	917.7357	958.8625	980.1258	1010.761	1018.4894	1059.2823	1095.5948	1116.8979	1140.275	1146.2248	1180.1881	1181.0176	1213.2839	1242.8589	1253.2799	1266.4956	1281.808	1305.5414	1331.8689	1406.3378	1429.3602	1505.1612	1531.2704	3011.3396	3041.0558	3064.2048	3094.9215	3115.7416	3126.1116	3137.1514	3782.4001	3822.0129
OC1C2C3CN2CC13O	O[C@H]1[C@H]2[C@@H]3CN2C[C@]13O	
InChI=1S/C6H9NO2/c8-5-4-3-1-7(4)2-6(3,5)9/h3-5,8-9H,1-2H2	InChI=1S/C6H9NO2/c8-5-4-3-1-7(4)2-6(3,5)9/h3-5,8-9H,1-2H2/t3-,4+,5-,6+/m0/s1
