17
gdb 28580	3.92145	1.11769	0.93332	1.6354	77.35	-0.2212	-0.0013	0.2199	1257.8642	0.137281	-418.022496	-418.01435	-418.013406	-418.055963	29.595	
C	 0.2378799269	 1.3722638508	 0.1896562291	-0.490168
C	 0.0456106174	-0.0837918934	-0.0306024405	 0.380741
N	-0.4029341877	-0.6936218454	-1.0797310831	-0.295947
C	-0.3818303952	-2.0424108581	-0.7408827086	-0.217844
C	 0.0944805077	-2.1868917985	 0.5198760642	 0.349212
O	 0.3732297779	-0.9260895325	 0.9924241625	-0.224062
C	 0.3379396604	-3.3281241194	 1.4045940071	-0.111495
C	 1.4322058094	-3.2953924426	 2.4162608179	-0.239676
N	 0.0296888783	-3.2440839172	 2.8497029283	-0.3216
H	 1.2851218903	 1.6049123721	 0.4095218608	 0.145208
H	-0.0638524238	 1.9064652112	-0.7114096048	 0.159964
H	-0.3628643208	 1.7277312193	 1.0335048931	 0.145163
H	-0.7090380071	-2.8067704827	-1.4275040698	 0.124301
H	 0.0732257991	-4.2801712588	 0.9534924411	 0.105512
H	 1.9573659899	-4.2134705717	 2.6641360457	 0.125065
H	 2.0301541494	-2.3906885756	 2.4739061128	 0.125102
H	-0.2174003523	-2.2830315475	 3.0764004842	 0.240525
66.7046	110.8181	139.036	149.173	254.3647	335.289	432.4729	443.4866	622.4795	687.882	703.249	723.3038	811.3285	848.9098	877.2648	961.399	963.1446	978.8546	1005.9945	1035.352	1065.5534	1099.051	1135.3767	1153.5027	1171.2825	1236.373	1246.8438	1271.2328	1298.6827	1353.8405	1399.4703	1414.1895	1475.3974	1481.2202	1504.3127	1620.7323	1649.2069	3042.4824	3095.9074	3114.0265	3153.8159	3158.3145	3204.5156	3265.3407	3498.1285
CC1=NC=C(O1)C1CN1	Cc1ncc(o1)[C@H]1CN1	
InChI=1S/C6H8N2O/c1-4-7-3-6(9-4)5-2-8-5/h3,5,8H,2H2,1H3	InChI=1S/C6H8N2O/c1-4-7-3-6(9-4)5-2-8-5/h3,5,8H,2H2,1H3/t5-/m1/s1
