18
gdb 47834	2.60498	1.57232	1.08624	2.6689	75.24	-0.262	-0.0134	0.2486	1106.8198	0.149563	-439.081915	-439.074072	-439.073128	-439.11447	30.239	
N	 0.0045231842	 1.2551556088	 0.3784370464	-0.49271
C	-0.0061543333	 0.0525343785	-0.0160909245	 0.393261
C	-1.3055001283	-0.7299397308	-0.0474571155	-0.343739
C	-1.3499498348	-1.7465375382	 1.0695350556	-0.043958
C	-0.8249751607	-2.9686438575	 1.0022843017	-0.054231
C	-0.1326639179	-3.5233994793	-0.2182227888	-0.136364
O	 1.163599486	-2.9596633601	-0.4597538051	-0.222111
C	 1.2145956263	-1.7605990499	-1.1523595356	 0.013653
O	 1.1598010625	-0.5876721474	-0.3397700165	-0.245351
H	 0.9606740363	 1.61736615	 0.3602070974	 0.220435
H	-2.1051424417	 0.0021813179	 0.0641948689	 0.139598
H	-1.4342070765	-1.2181609466	-1.0196681254	 0.113737
H	-1.7935860347	-1.4040151935	 2.0003652155	 0.111718
H	-0.8614339707	-3.6111944965	 1.8774733467	 0.100272
H	 0.0444742157	-4.5947210257	-0.0989513523	 0.118947
H	-0.7543272089	-3.3912561459	-1.1167983024	 0.104274
H	 2.2070298282	-1.7129914639	-1.6052833381	 0.127464
H	 0.4445662483	-1.7123189298	-1.9354550179	 0.095107
72.5734	153.2618	199.8802	270.9204	305.189	405.1892	450.6752	465.469	494.328	586.4229	613.1518	703.0422	733.4071	837.7618	896.2401	920.204	944.4437	971.3943	1000.7276	1004.9375	1010.7794	1060.4173	1074.5531	1147.6984	1190.395	1210.841	1264.4324	1290.5665	1309.3859	1339.9382	1344.4667	1393.6623	1418.0427	1453.2235	1474.1944	1489.0711	1510.1534	1716.0634	1742.8674	2987.2961	3001.8699	3049.3276	3098.7789	3111.8077	3132.5324	3158.7963	3180.8236	3459.2013
N=C1CC=CCOCO1	[NH][C]1CC=CCOCO1	
InChI=1S/C6H9NO2/c7-6-3-1-2-4-8-5-9-6/h1-2,7H,3-5H2/b2-1-,7-6?	InChI=1S/C6H9NO2/c7-6-3-1-2-4-8-5-9-6/h1-2,7H,3-5H2/b2-1-,7-6?
