16
gdb 62488	2.24839	1.78688	1.28812	2.7756	66.15	-0.2567	-0.0465	0.2102	1004.998	0.122578	-475.050596	-475.041907	-475.040963	-475.084017	31.995	
C	 0.0739116771	 1.5338648997	 0.0647511566	-0.430136
C	-0.1044577247	 0.0037443669	-0.0258127235	 0.183924
O	-1.4602220561	-0.3510092176	-0.0936332766	-0.46036
C	 0.6944875048	-0.5590018792	-1.1862296913	 0.379429
N	 0.255130502	-0.5779839979	-2.3665303477	-0.551246
O	 1.9030966064	-1.0340664546	-0.771029238	-0.241722
C	 1.9645136819	-1.1172529522	 0.6605014979	-0.203714
C	 0.6034270609	-0.6396577825	 1.1749546266	 0.35839
O	 0.2014050384	-0.7414853672	 2.2982733889	-0.290564
H	 1.1257077188	 1.8260465371	 0.1548049379	 0.121325
H	-0.3353699865	 1.9884611771	-0.8410620617	 0.143687
H	-0.4729400623	 1.8971495049	 0.9380974957	 0.149572
H	-1.6588926754	-0.4438581371	-1.0367274407	 0.299338
H	 0.9039871076	-1.0220386328	-3.016459619	 0.234543
H	 2.1584935973	-2.1512161832	 0.9608110984	 0.156265
H	 2.7752895798	-0.4826989015	 1.0348822963	 0.151269
56.2426	149.0853	190.0351	226.0276	241.6433	277.5896	315.1288	368.6874	415.4233	549.8166	584.0035	587.7234	650.8578	697.2346	708.9495	864.6254	884.8841	936.6873	986.8652	995.6262	1071.2106	1096.5703	1111.2957	1141.335	1204.3706	1217.1533	1309.3394	1373.3277	1394.9998	1402.6098	1481.5991	1484.4266	1486.5229	1784.5609	1884.554	3038.3074	3049.1121	3100.1441	3115.2176	3138.7316	3492.9889	3740.0778
CC1(O)C(=N)OCC1=O	C[C@@]1(O)[C]([NH])OCC1=O	
InChI=1S/C5H7NO3/c1-5(8)3(7)2-9-4(5)6/h6,8H,2H2,1H3	InChI=1S/C5H7NO3/c1-5(8)3(7)2-9-4(5)6/h6,8H,2H2,1H3/t5-/m0/s1
