16
gdb 70399	2.47038	1.53538	1.35197	1.8648	69.05	-0.2691	0.0038	0.2729	1013.4801	0.121795	-437.857262	-437.848556	-437.847612	-437.890279	32.331	
C	-0.1744336629	 1.5206996234	 0.0702495093	-0.52006
C	 0.1133443707	 0.0568860829	 0.0368741675	 0.398848
O	-0.7314052184	-0.8375213248	 0.7562932685	-0.279419
C	 0.6789861795	-0.9131176845	 0.9948295904	-0.024812
C	 1.2456119754	-1.8114197622	-0.1065673482	-0.325421
C	 0.6790359644	-0.7666866043	-1.1580809073	 0.212315
O	-0.3105636623	-1.1695201116	-2.0630493646	-0.456752
C	 1.7718437964	-0.055455265	-1.8393026228	 0.225044
N	 2.6268279268	 0.4920557187	-2.392793432	-0.340239
H	 0.6771954723	 2.0937472271	-0.3069729605	 0.149102
H	-1.0452172446	 1.7509941382	-0.5524525483	 0.148369
H	-0.3908661977	 1.8359337607	 1.0938470103	 0.14042
H	 1.0293160151	-0.7684477384	 2.0094542029	 0.116307
H	 2.3333426317	-1.8937880967	-0.1272950127	 0.13183
H	 0.7789324669	-2.7961644588	-0.1718173417	 0.12759
H	 0.0980952267	-1.6882362447	-2.765294221	 0.296878
115.8968	130.1446	188.8025	205.2689	231.9119	267.6986	316.4623	376.1941	457.8798	483.9867	543.3142	556.4254	670.7219	683.6881	780.8602	868.6507	884.6603	936.5915	945.1486	982.4311	1045.0441	1104.983	1112.0693	1117.812	1193.0775	1226.5036	1243.8001	1267.1001	1350.7517	1406.5925	1451.0993	1471.361	1485.3105	1494.9976	2345.9559	3044.4966	3078.5304	3112.6485	3131.4133	3146.27	3200.3747	3805.0896
CC12OC1CC2(O)C#N	C[C@]12O[C@H]1C[C@]2(O)C#N	
InChI=1S/C6H7NO2/c1-5-4(9-5)2-6(5,8)3-7/h4,8H,2H2,1H3	InChI=1S/C6H7NO2/c1-5-4(9-5)2-6(5,8)3-7/h4,8H,2H2,1H3/t4-,5-,6-/m0/s1
