18
gdb 39992	4.23285	1.41186	1.31547	1.8359	75.73	-0.2326	0.0885	0.3211	1002.3113	0.14952	-401.862154	-401.855592	-401.854647	-401.892956	27.292	
C	 0.0352092896	 1.50716719	 0.0046418867	-0.272923
O	 1.1904341584	 0.6560528913	-0.008098372	-0.285671
C	-0.1030733726	 0.0508426875	-0.0077068408	 0.448626
C	-0.533050019	-0.8535588663	 1.1535717356	-0.269806
N	-1.0859520906	-2.0396850871	 0.4592925227	-0.132885
C	-0.2021865152	-2.2800178682	-0.770224638	-0.019767
C	-1.450083369	-2.7756588706	-1.5211255812	-0.237511
C	-1.8555891161	-1.503842889	-0.7559197394	-0.027441
C	-0.5239004893	-0.8024713368	-1.1727072253	-0.112759
H	-0.1277009505	 2.0581810694	 0.9307815046	 0.113731
H	-0.1315543342	 2.081452692	-0.906571627	 0.111907
H	 0.3201323615	-1.1373526879	 1.7766192179	 0.1223
H	-1.3025359971	-0.4096844008	 1.7926579402	 0.109444
H	 0.7799096824	-2.7468165086	-0.6772421766	 0.088852
H	-1.4293883083	-2.7119715041	-2.6100263214	 0.098297
H	-1.8860616144	-3.7076366822	-1.1588373021	 0.110378
H	-2.8441619226	-1.0535680527	-0.6423449213	 0.080818
H	-0.3577877332	-0.4336981157	-2.1859739726	 0.07441
117.9506	267.5356	291.1361	374.523	463.5994	484.2723	519.7291	693.8315	739.2316	805.038	819.1822	836.6448	856.3444	887.2553	916.982	924.5932	962.302	965.5785	1020.2778	1034.7381	1074.7591	1076.5783	1114.3176	1119.4133	1124.6788	1138.7411	1163.6531	1175.1109	1217.1645	1221.9548	1232.4527	1244.1999	1254.466	1299.9791	1304.9247	1446.9124	1486.7977	1497.4636	1538.738	3053.081	3073.7308	3076.0909	3090.9671	3100.9105	3102.8569	3112.7382	3150.4919	3157.6241
C1OC11CN2C3CC2C13	C1O[C@]21CN1[C@H]3C[C@@H]1[C@@H]23	
InChI=1S/C7H9NO/c1-4-6-5(1)8(4)2-7(6)3-9-7/h4-6H,1-3H2	InChI=1S/C7H9NO/c1-4-6-5(1)8(4)2-7(6)3-9-7/h4-6H,1-3H2/t4-,5+,6-,7-/m0/s1
