19
gdb 39989	4.06208	1.39911	1.29699	1.8017	79.33	-0.254	0.0962	0.3502	1029.3257	0.161452	-385.832545	-385.825899	-385.824954	-385.863422	27.92	
C	 0.0308481528	 1.5032295008	 0.001141122	-0.270427
O	 1.1903928235	 0.6598700064	 0.0043068105	-0.288706
C	-0.1000128553	 0.0451879079	 0.0079927728	 0.461036
C	-0.5262387085	-0.8238030278	 1.198898358	-0.343654
C	-1.0855746418	-2.015914753	 0.4217024942	-0.007286
C	-0.1766334797	-2.2991767307	-0.8216204669	-0.05204
C	-1.4269955255	-2.7441973283	-1.615105181	-0.245136
C	-1.8727135464	-1.4901209773	-0.8275534697	-0.05901
C	-0.5063325429	-0.8070251739	-1.1691342631	-0.084793
H	-0.1397680269	 2.0654758081	 0.9191335315	 0.109878
H	-0.1364878	 2.0637737103	-0.9187261017	 0.108529
H	 0.3354912894	-1.08016332	 1.8229275375	 0.115403
H	-1.2778370703	-0.3424268023	 1.8332342091	 0.101965
H	-1.4911215052	-2.8633466879	 0.9770424768	 0.064804
H	 0.8148630601	-2.7549628602	-0.813532744	 0.075541
H	-1.3787835403	-2.6513488749	-2.7036832458	 0.090779
H	-1.8829485552	-3.6945520427	-1.3219185392	 0.089763
H	-2.853721895	-1.0102647176	-0.8244704834	 0.067659
H	-0.3187811129	-0.4293122268	-2.1749876474	 0.065695
113.1597	266.3564	290.5124	369.7241	450.2129	485.4498	516.6038	670.292	761.8027	807.2278	822.0449	834.9045	877.577	886.7638	914.221	920.575	956.1714	960.2	993.6886	998.1026	1014.565	1060.4412	1087.5243	1104.0332	1116.3069	1132.5561	1140.2319	1162.0101	1188.3682	1207.7839	1216.447	1230.1087	1249.8371	1251.7895	1275.4651	1282.673	1347.3813	1442.2355	1485.865	1518.8344	1537.3432	3045.437	3046.092	3071.7828	3086.6885	3091.9018	3096.3567	3104.6404	3106.6704	3116.5784	3155.563
C1OC11CC2C3CC2C13	C1O[C@]21C[C@@H]1[C@H]3C[C@@H]1[C@@H]23	
InChI=1S/C8H10O/c1-4-6-2-8(3-9-8)7(4)5(1)6/h4-7H,1-3H2	InChI=1S/C8H10O/c1-4-6-2-8(3-9-8)7(4)5(1)6/h4-7H,1-3H2/t4-,5+,6-,7+,8-/m0/s1
