22
gdb 105089	2.55431	1.16016	1.07266	1.3367	82.16	-0.2224	0.0642	0.2866	1273.1834	0.193291	-404.287706	-404.277982	-404.277038	-404.322236	36.844	
O	 1.1480241832	 1.0934356471	-0.333459766	-0.413279
C	 0.8392943577	-0.2906280203	-0.2856601412	-0.166121
C	-0.6604542899	-0.5933190262	-0.2420721246	 0.330603
C	-1.5510987931	 0.3700666238	 0.5132727619	-0.28127
C	-1.5791323267	 0.3503941304	-0.9908228487	-0.327392
C	-1.0661993163	-2.0525207163	-0.266066581	-0.084603
C	-0.0979753552	-3.1795495035	-0.0919572708	-0.261904
N	-1.1182382503	-2.9286540265	 0.9145587389	-0.08334
C	-0.674949776	-2.4268483045	 2.2061521014	-0.314917
H	 1.0030012972	 1.4007458193	-1.232790754	 0.287654
H	 1.2919187626	-0.8270517827	-1.1330892389	 0.095137
H	 1.3264739538	-0.6607686067	 0.6229544061	 0.113932
H	-2.4027373479	-0.0350444549	 1.0478039483	 0.115301
H	-1.0653745861	 1.2157943773	 0.9860609535	 0.126743
H	-1.1474329552	 1.1991919834	-1.5094657986	 0.093125
H	-2.4422136388	-0.07897495	-1.488617698	 0.113425
H	-1.908815439	-2.2440735158	-0.9285039738	 0.089417
H	-0.2038631633	-4.0939618137	-0.6712856724	 0.110497
H	 0.9318471086	-2.9291410322	 0.1576191368	 0.106362
H	 0.1757931493	-1.7297579141	 2.1648383906	 0.105536
H	-1.5049719624	-1.9162754283	 2.7035381133	 0.123312
H	-0.3831515923	-3.2798446453	 2.8273175373	 0.121782
53.4022	110.6545	174.3383	187.1961	213.5603	268.9597	298.2287	333.2808	350.229	363.8073	415.1888	479.9922	596.0233	688.8272	761.159	785.6078	844.5441	851.1455	915.6835	957.0391	989.6988	1012.0929	1033.4525	1040.835	1061.0359	1085.8077	1090.4314	1108.3896	1135.0194	1144.3172	1168.3443	1193.8445	1206.778	1232.0894	1275.355	1303.2286	1354.3504	1396.1974	1406.3263	1417.3466	1452.0333	1457.2251	1490.9891	1491.1461	1499.1685	1505.8686	1516.2376	2988.1256	2990.5471	3061.61	3070.8063	3091.2753	3103.322	3105.6117	3130.3017	3140.0593	3169.6097	3209.5959	3232.7068	3834.6779
OCC1(CC1)C1CN1C	OCC1(CC1)[C@H]1CN1C	
InChI=1S/C7H13NO/c1-8-4-6(8)7(5-9)2-3-7/h6,9H,2-5H2,1H3	InChI=1S/C7H13NO/c1-8-4-6(8)7(5-9)2-3-7/h6,9H,2-5H2,1H3/t6-,8?/m1/s1
