15
gdb 5917	3.56991	1.38376	1.26328	1.9866	61.61	-0.2745	-0.0477	0.2268	982.735	0.115311	-399.824114	-399.815133	-399.814189	-399.857926	31.32	
C	 0.2087433086	 1.5660895428	 0.2273662643	-0.442532
C	 0.0749348948	 0.0439717458	 0.0528747542	 0.243614
O	 0.6863302692	-0.6570057597	 1.1193873311	-0.463906
C	-1.4001995358	-0.3952174648	-0.1371551387	-0.352217
C	-2.1996882541	-0.0670075888	 1.0379381212	 0.246759
N	-2.7810675886	 0.2052079608	 1.9994447183	-0.3108
C	 0.8734661837	-0.3554547832	-1.1905998535	 0.156344
O	 0.4127472399	-0.4036637967	-2.2994533235	-0.25324
H	 1.2614085069	 1.8387318613	 0.3420116474	 0.138451
H	-0.2028592562	 2.0992158156	-0.634214881	 0.142665
H	-0.3317933036	 1.8890867663	 1.1233718729	 0.147648
H	 0.3154915017	-0.33683789	 1.9500294935	 0.301022
H	-1.8180491024	 0.0788837506	-1.0293703252	 0.170276
H	-1.4311098492	-1.4772478839	-0.2973513647	 0.165105
H	 1.9392868051	-0.5766274262	-0.9699963064	 0.110812
62.4168	83.9381	135.1998	221.9797	248.1748	286.3329	313.8576	346.9068	392.8285	406.9342	421.2722	550.031	637.2178	765.4766	890.6041	911.6331	953.4807	979.2867	1002.5072	1106.8548	1134.3619	1206.3384	1261.7998	1302.3038	1376.0937	1393.2509	1409.0501	1450.283	1490.6301	1495.5999	1840.1264	2357.2542	2919.7692	3038.8825	3068.14	3113.1764	3116.0184	3127.2995	3798.153
CC(O)(CC#N)C=O	C[C@@](O)(CC#N)C=O	
InChI=1S/C5H7NO2/c1-5(8,4-7)2-3-6/h4,8H,2H2,1H3	InChI=1S/C5H7NO2/c1-5(8,4-7)2-3-6/h4,8H,2H2,1H3/t5-/m1/s1
