21
gdb 89799	3.03684	1.34961	1.10709	2.0406	81.9	-0.2516	0.0797	0.3313	1174.6086	0.183479	-387.076186	-387.068076	-387.067132	-387.108543	32.644	
C	 0.0654550204	 1.5963312759	-0.0194190462	-0.398273
C	 0.0447357223	 0.0677429241	 0.0301706784	 0.026156
C	 0.6853440761	-0.6164999572	-1.2018947921	-0.341871
C	 1.1770748937	-1.9691937822	-0.69060624	 0.488904
C	 0.7635857282	-3.2502075698	-1.2769788368	-0.263523
O	 2.0708960686	-2.7181272426	-1.5184077992	-0.291832
C	 1.4679141002	-1.8159865676	 0.775373055	-0.125978
C	 2.2855920848	-0.6068189468	 1.1711771282	-0.299994
C	 0.7819173021	-0.5434023973	 1.224971036	-0.036448
H	 1.0930251301	 1.9733246437	-0.0650477714	 0.116145
H	-0.4694501325	 1.9725049947	-0.8980949305	 0.112262
H	-0.4085468636	 2.0273533826	 0.8688280176	 0.111608
H	-1.0010015166	-0.2618882148	 0.0967461135	 0.074106
H	-0.0060199887	-0.710144647	-2.0427822904	 0.103249
H	 1.5452968121	-0.038915387	-1.5611303878	 0.113775
H	 0.7318473249	-4.1476880193	-0.6588983579	 0.108894
H	 0.0954341518	-3.2616459238	-2.1382360816	 0.107757
H	 1.5076839419	-2.7047545202	 1.3944087431	 0.084083
H	 2.811352688	-0.6666235568	 2.1175837835	 0.112481
H	 2.8246555304	-0.0604369257	 0.4043456694	 0.117002
H	 0.3085657756	-0.4823823627	 2.1992194891	 0.081497
97.0254	169.7586	235.7058	239.4764	297.503	364.0354	390.9451	423.6119	508.1419	540.3639	592.5203	744.2694	786.3308	830.3071	849.5935	869.7413	910.4493	922.9626	940.4962	970.8747	985.4293	1006.2538	1050.7615	1068.2971	1070.3473	1106.4192	1124.2951	1134.903	1157.1727	1160.0495	1200.8755	1205.414	1253.678	1287.4086	1316.9161	1331.7129	1361.622	1384.54	1409.95	1442.0354	1483.8757	1495.0601	1497.5211	1503.8358	1533.2877	3007.9242	3027.9355	3041.8845	3069.7756	3095.7785	3096.4137	3100.2894	3133.8932	3153.9056	3160.9212	3177.1515	3216.3907
CC1CC2(CO2)C2CC12	C[C@H]1C[C@]2(CO2)[C@H]2C[C@@H]12	
InChI=1S/C8H12O/c1-5-3-8(4-9-8)7-2-6(5)7/h5-7H,2-4H2,1H3	InChI=1S/C8H12O/c1-5-3-8(4-9-8)7-2-6(5)7/h5-7H,2-4H2,1H3/t5-,6-,7-,8-/m0/s1
