18
gdb 82387	2.35549	2.03036	1.35223	3.3915	70.19	-0.2404	0.0639	0.3043	968.9559	0.150136	-439.046307	-439.038978	-439.038034	-439.077907	29.372	
O	 0.4785398718	 0.6520892787	 0.9113798841	-0.440558
C	 0.0126399338	-0.3312273316	-0.0000704621	 0.115182
C	-1.5060687526	-0.3179136888	-0.0657680195	-0.071445
N	-2.1011000495	 0.9495644166	-0.5306823491	-0.332696
C	-2.2471210193	-0.2634489776	-1.3530174401	-0.026918
C	-1.5315743027	-0.3092773671	-2.6889317473	-0.257568
C	-0.0313145829	-0.1266645411	-2.6168954433	 0.057677
O	 0.4699721608	 1.0715575444	-2.0225562628	-0.248066
C	 0.7038315013	-0.1680079317	-1.3430371229	 0.004834
H	 0.158857325	 1.4917695928	 0.5541744545	 0.298092
H	 0.329311729	-1.2951298094	 0.4171912147	 0.084829
H	-1.9871421027	-0.8129524168	 0.77464613	 0.088183
H	-2.9633138277	 1.1345011575	-0.0255838133	 0.232551
H	-3.2319239602	-0.7273798032	-1.3650588372	 0.085458
H	-1.7237375468	-1.2864422187	-3.1512999198	 0.106924
H	-1.955017316	 0.4446303859	-3.3642939452	 0.121239
H	 0.5033970414	-0.4203437125	-3.522079666	 0.088092
H	 1.7490955774	-0.4790321675	-1.3468337548	 0.09419
104.3686	209.9292	229.2459	336.4171	350.9839	432.0564	462.388	469.9808	520.9254	703.7763	728.4833	782.3413	812.0191	852.5839	859.4587	876.2805	930.2035	960.6104	983.0594	1032.5379	1056.3361	1071.1322	1112.4021	1135.5472	1161.7552	1173.3666	1206.9128	1260.9717	1276.4544	1284.0517	1300.2005	1362.1168	1376.0449	1383.0289	1405.5011	1445.4236	1454.3076	1467.1201	1496.0746	3022.2797	3038.5608	3058.8337	3088.7617	3107.0387	3115.7895	3133.4819	3504.5801	3766.4755
OC1C2NC2CC2OC12	O[C@H]1[C@H]2N[C@H]2C[C@H]2O[C@@H]12	
InChI=1S/C6H9NO2/c8-5-4-2(7-4)1-3-6(5)9-3/h2-8H,1H2	InChI=1S/C6H9NO2/c8-5-4-2(7-4)1-3-6(5)9-3/h2-8H,1H2/t2-,3+,4-,5-,6+/m0/s1
