16
gdb 69154	2.66322	1.66795	1.31614	3.1811	68.61	-0.2298	-0.0263	0.2035	976.9029	0.124924	-437.8565	-437.849241	-437.848297	-437.887907	29.236	
O	-0.0803681475	 1.3781984808	 0.0329057083	-0.461763
C	 0.0026600915	-0.007383911	 0.0349150297	 0.412619
C	-0.5368907202	-0.7540098169	 1.1941243215	-0.315471
C	 0.9752185445	-0.7967920991	 0.9072151618	-0.253538
C	 1.5838016646	-1.8742653582	 0.053342361	 0.441553
O	 2.567176452	-2.5212889966	 0.3219228511	-0.329774
C	 0.9012188626	-1.867975776	-1.3059380269	-0.162146
N	-0.5711203137	-2.0949903739	-1.2520908451	-0.330548
C	-0.0464583281	-0.724227096	-1.3216700535	-0.136365
H	 0.7192291415	 1.7317623098	-0.3732176645	 0.28748
H	-0.790437038	-0.1570373566	 2.062982928	 0.128484
H	-1.1391051267	-1.6354162261	 1.0226989447	 0.154833
H	 1.6215786023	-0.3304759712	 1.6409749196	 0.11253
H	 1.465001825	-2.2197739437	-2.1623519967	 0.109221
H	-0.8809086465	-2.3924229876	-2.1750862735	 0.242923
H	-0.2268888733	-0.1169523876	-2.2021970255	 0.099964
127.2991	207.6474	301.453	326.8927	356.3616	391.6536	448.1461	511.6719	565.9517	594.6911	681.6759	752.2971	774.7361	849.9568	864.1845	896.6431	913.298	949.6267	954.0047	972.1556	1050.388	1067.4637	1091.156	1126.7958	1133.621	1183.369	1233.4147	1237.446	1268.8468	1297.2933	1353.1544	1392.0081	1416.6085	1478.525	1823.4616	3151.9288	3173.018	3186.519	3192.8175	3254.7235	3490.9065	3791.4926
OC12CC1C(=O)C1NC21	O[C@]12C[C@H]1C(=O)[C@H]1N[C@@H]21	
InChI=1S/C6H7NO2/c8-4-2-1-6(2,9)5-3(4)7-5/h2-3,5,7,9H,1H2	InChI=1S/C6H7NO2/c8-4-2-1-6(2,9)5-3(4)7-5/h2-3,5,7,9H,1H2/t2-,3+,5+,6+/m0/s1
