14
gdb 42200	3.00053	1.37893	1.03144	3.2467	69.56	-0.2731	-0.0907	0.1824	1089.9247	0.099999	-436.655994	-436.64819	-436.647246	-436.688952	28.185	
O	 0.1461751802	 0.2451989043	 1.041871368	-0.300593
C	-0.0172351414	 1.228717197	 0.3535606893	 0.223324
C	 1.1061500018	 1.767809623	-0.4479798545	 0.219523
N	 1.9788892963	 2.2025457731	-1.0697147172	-0.317976
C	-1.2753229042	 1.9587432009	 0.2115284481	 0.13859
C	-2.4684762043	 1.6773576292	 1.1146244539	-0.343906
C	-2.6247159225	 1.3902365408	-0.3247506914	 0.095343
O	-2.8780578727	 2.5455403019	-1.0944494628	-0.264155
C	-1.6027054374	 3.1326407561	-0.7093909552	-0.159074
H	-2.3180215315	 0.8144755375	 1.7543907791	 0.159504
H	-2.9944628211	 2.5208196942	 1.5523277271	 0.137279
H	-2.8341657367	 0.4194766407	-0.759805146	 0.140909
H	-1.7218942648	 4.1153658301	-0.242236622	 0.126761
H	-0.9417798117	 3.2031742613	-1.5783346863	 0.14447
61.1765	124.3051	163.3548	246.3348	294.8681	341.9637	438.3049	471.2862	501.266	655.4958	699.9741	756.4395	807.1604	860.6878	933.9155	966.9629	985.207	996.22	1067.6714	1076.7	1101.8093	1119.8321	1165.6577	1234.0665	1310.2259	1336.4891	1401.8571	1465.9297	1516.4368	1755.9299	2337.4755	3046.4216	3104.6306	3126.6171	3190.4405	3231.3791
O=C(C#N)C12CC1OC2	O=C(C#N)[C@]12C[C@H]1OC2	
InChI=1S/C6H5NO2/c7-2-4(8)6-1-5(6)9-3-6/h5H,1,3H2	InChI=1S/C6H5NO2/c7-2-4(8)6-1-5(6)9-3-6/h5H,1,3H2/t5-,6-/m1/s1
