19
gdb 121185	2.52133	1.0518	0.80677	4.2568	76.56	-0.2382	0.0009	0.239	1446.3754	0.158925	-419.184892	-419.175389	-419.174445	-419.220273	33.51	
C	-0.0378650398	 1.5214100462	 0.2084710044	-0.390817
C	-0.2687788233	 0.0505286615	-0.1240020494	-0.115326
N	 0.8748645673	-0.5015587953	-0.8477310191	-0.293022
C	 0.7837604891	-1.8906734786	-1.1682377694	 0.000406
C	-0.071850544	-2.450869577	-2.3465205851	-0.102415
O	 1.0650547212	-3.198555177	-2.8448881114	-0.26825
C	 1.971395499	-2.532757388	-1.951811145	-0.053009
C	 2.8340936229	-1.5690671136	-2.6482239258	 0.290288
N	 3.490091793	-0.7922839015	-3.1982084115	-0.328361
H	 0.8773799251	 1.6438753418	 0.7939241903	 0.133368
H	 0.061607254	 2.1199639785	-0.7040592244	 0.120406
H	-0.8786308163	 1.9250429772	 0.7797535703	 0.119616
H	-0.3845239686	-0.5271214277	 0.8022903377	 0.10737
H	-1.2184402018	-0.0583659284	-0.6785703333	 0.086511
H	 1.0785408304	 0.0530418545	-1.6739408399	 0.231361
H	 0.5955706326	-2.4523709519	-0.2486549017	 0.10705
H	-0.9108597378	-3.110089825	-2.1040260399	 0.115653
H	-0.3978646903	-1.6835354429	-3.0614580135	 0.108682
H	 2.5987699074	-3.2376960229	-1.396537663	 0.130491
67.273	83.9871	92.0367	107.0346	193.9603	243.9426	261.3653	342.252	370.2248	448.9761	542.0917	604.3774	726.535	800.3297	818.713	832.462	888.1784	923.6717	987.1567	1018.7248	1032.9214	1057.1001	1073.4021	1141.9223	1158.4585	1169.1683	1217.3122	1250.8403	1261.2642	1301.323	1326.1436	1348.8186	1358.9989	1404.941	1421.5726	1488.1777	1498.2183	1516.1467	1521.2796	1523.2359	2350.9438	2935.3614	3014.355	3033.5192	3039.5348	3057.6198	3069.7961	3088.5397	3105.5309	3125.0449	3515.2253
CCNC1COC1C#N	CCN[C@H]1CO[C@H]1C#N	
InChI=1S/C6H10N2O/c1-2-8-5-4-9-6(5)3-7/h5-6,8H,2,4H2,1H3	InChI=1S/C6H10N2O/c1-2-8-5-4-9-6(5)3-7/h5-6,8H,2,4H2,1H3/t5-,6-/m0/s1
