17
gdb 30323	3.01485	1.71862	1.13305	2.5856	75.87	-0.1856	0.017	0.2026	1047.4764	0.138598	-418.020268	-418.01282	-418.011876	-418.052174	28.263	
C	-0.0843399485	 1.5323161167	-0.0110408952	-0.339844
N	 0.0755224099	 0.0885891097	 0.0569774852	-0.183818
C	 0.6864738393	-0.5647419225	-1.1469944535	-0.164917
C	 1.400967825	-1.8790648266	-0.6612708768	-0.355772
C	 1.5563280637	-1.5534417907	 0.7951019218	 0.174219
C	 0.80661609	-0.4736496491	 1.0846674898	 0.408028
O	 0.8111180509	-0.2397748353	 2.4112113985	-0.215229
C	 1.6194554712	-1.2691822171	 2.8837650163	 0.018346
N	 2.066863485	-2.073732856	 1.973814531	-0.327909
H	 0.8637624802	 2.0568540036	-0.2198992945	 0.10982
H	-0.7989726723	 1.782080216	-0.8001005782	 0.129216
H	-0.4836986224	 1.8975419682	 0.938142338	 0.142794
H	-0.0830611494	-0.7503212188	-1.8998614238	 0.117048
H	 1.4322644618	 0.1195846491	-1.5783095856	 0.105093
H	 0.7626124994	-2.757170122	-0.822097728	 0.119487
H	 2.3308960064	-2.0470386687	-1.2121671991	 0.119448
H	 1.8041518697	-1.2667907865	 3.9449792641	 0.14399
127.7107	160.785	208.1829	229.7863	269.8044	367.8675	484.7884	582.7499	640.202	648.4786	708.5839	733.5588	749.6454	834.4569	923.5634	930.4502	978.0085	1029.7019	1064.4523	1082.4939	1145.3044	1168.7098	1197.9432	1218.3146	1240.1786	1274.6469	1300.0952	1360.2662	1376.5711	1447.5011	1480.1353	1491.9255	1496.1888	1507.0459	1518.6613	1534.3018	1677.8551	2960.2651	2992.169	3021.7802	3076.0349	3081.5451	3097.7776	3126.5693	3290.3855
CN1CCC2=C1OC=N2	CN1CCc2c1ocn2	
InChI=1S/C6H8N2O/c1-8-3-2-5-6(8)9-4-7-5/h4H,2-3H2,1H3	InChI=1S/C6H8N2O/c1-8-3-2-5-6(8)9-4-7-5/h4H,2-3H2,1H3
