19
gdb 70285	3.96491	1.05934	0.93416	3.7206	85.84	-0.2414	-0.0526	0.1887	1288.2667	0.159195	-385.913137	-385.904803	-385.903859	-385.945915	32.047	
C	-0.0608318618	 1.5583945255	 0.0337867821	-0.486846
C	 0.0586754464	 0.0530754948	-0.001568247	 0.328798
C	-0.803922841	-0.8141291068	 0.9089907179	-0.311808
C	 0.686311392	-0.801116271	 1.1049122943	-0.093556
C	 1.4981174208	-1.9148104353	 0.4455214904	-0.330729
C	 1.2019283676	-1.7339886578	-1.031039982	 0.21771
C	 1.6853658123	-2.6361141673	-2.0716555887	 0.075369
O	 2.3440190088	-3.6331683125	-1.8622761014	-0.279704
C	 0.4510813955	-0.6398317378	-1.2559950063	-0.226039
H	 0.8666680588	 2.0425596977	-0.2910071838	 0.123581
H	-0.868186865	 1.9095862109	-0.6194799579	 0.122041
H	-0.2824854948	 1.9070768529	 1.0468233687	 0.121582
H	-1.4035845352	-0.2888470231	 1.6459373833	 0.114113
H	-1.2759562616	-1.6966918063	 0.488976024	 0.116564
H	 1.0742701086	-0.3269075477	 1.9992289088	 0.090201
H	 2.5725049533	-1.8132837699	 0.6398447745	 0.121248
H	 1.216580173	-2.9136762383	 0.7968932512	 0.127839
H	 1.4096618259	-2.3364392675	-3.1083641706	 0.062113
H	 0.1438375162	-0.2949847006	-2.2392602175	 0.107524
93.2848	170.5937	191.5189	218.7279	240.2457	309.3713	398.592	400.9957	482.5409	491.204	598.1105	716.4338	750.2623	804.1413	859.3141	881.9873	887.4268	934.0506	956.3592	974.836	1012.4788	1048.9345	1061.4876	1090.064	1096.8609	1113.6473	1180.5789	1188.0954	1260.8611	1274.4872	1333.3243	1352.0955	1387.3539	1418.8225	1424.9043	1473.6451	1487.3802	1489.8965	1501.8718	1663.5232	1777.0422	2869.9504	3026.5051	3038.5304	3071.0298	3085.9892	3105.7235	3121.316	3174.4869	3177.6335	3209.9119
CC12CC1CC(C=O)=C2	C[C@]12C[C@H]1CC(=C2)C=O	
InChI=1S/C8H10O/c1-8-3-6(5-9)2-7(8)4-8/h3,5,7H,2,4H2,1H3	InChI=1S/C8H10O/c1-8-3-6(5-9)2-7(8)4-8/h3,5,7H,2,4H2,1H3/t7-,8+/m1/s1
