18
gdb 96541	2.06541	1.7646	1.42027	2.3821	69.	-0.2565	-0.0017	0.2549	1011.9994	0.148365	-476.209398	-476.20091	-476.199966	-476.242547	31.705	
O	 0.0887724622	 1.4413795102	 0.1002693654	-0.442278
C	 0.0074144273	 0.0188344619	 0.0566572598	 0.049705
C	-1.4662758014	-0.4221237425	 0.1110675285	-0.085153
O	-2.1165701436	-0.5153397865	-1.1458857307	-0.259558
C	-1.9034290247	 0.5647799716	-2.0378486159	-0.098989
C	-0.7117902932	 0.2924962238	-2.9506600754	-0.0877
O	 0.5737304271	 0.2666939934	-2.2993415631	-0.27497
C	 0.7074961657	-0.5280572646	-1.1752794999	 0.343138
N	 1.4356104523	-1.5554987828	-1.1307353416	-0.479869
H	 0.5666625788	 1.7293479354	-0.6854723885	 0.292617
H	 0.5163202958	-0.3965731146	 0.933543674	 0.108537
H	-1.5296904966	-1.4257446397	 0.5407709924	 0.124033
H	-1.9894022088	 0.2822831095	 0.7741290916	 0.109296
H	-2.7939517821	 0.6333776973	-2.6749499707	 0.112593
H	-1.7858913864	 1.5135146328	-1.502059467	 0.122223
H	-0.8655523324	-0.6727622007	-3.4494259531	 0.120178
H	-0.6279246458	 1.0744534491	-3.7107323316	 0.118942
H	 1.8133192558	-1.7604480836	-2.0588566142	 0.227255
84.9764	117.5321	175.3753	208.8511	258.5961	336.8691	358.4468	377.3727	441.9268	488.5715	574.4268	672.5477	710.8882	813.0697	844.8769	883.6832	930.8702	961.4947	969.275	1022.9757	1050.6062	1095.3595	1124.2798	1141.0341	1165.4741	1236.2572	1282.8525	1295.6715	1311.7287	1327.4958	1355.2155	1388.3464	1402.2867	1415.2237	1424.766	1478.6129	1486.5155	1491.4388	1763.8645	3005.1788	3026.6519	3029.8715	3050.5926	3080.8505	3096.864	3101.9741	3459.4212	3803.5547
OC1COCCOC1=N	O[C@H]1COCCO[C]1[NH]	
InChI=1S/C5H9NO3/c6-5-4(7)3-8-1-2-9-5/h4,6-7H,1-3H2	InChI=1S/C5H9NO3/c6-5-4(7)3-8-1-2-9-5/h4,6-7H,1-3H2/t4-/m0/s1
