19
gdb 81466	2.31302	1.94429	1.66976	1.8205	73.19	-0.2394	0.0593	0.2987	927.9874	0.161793	-422.992252	-422.984992	-422.984048	-423.023495	29.824	
O	 0.0302556873	 1.4953854022	-0.087495185	-0.419522
C	 0.0257009581	 0.0945537963	 0.0172743169	 0.095354
C	 0.2570046032	-0.6387177906	 1.3567746657	 0.039588
C	-0.410742039	 0.0652533736	 2.5500700217	-0.239857
C	-1.9119312644	 0.2619419926	 2.3152563776	-0.017382
C	-2.4693846002	 1.3168996492	 1.3921076146	-0.309722
C	-2.4097137337	-0.1247188179	 0.9382728041	-0.024754
C	-1.3119362529	-0.6843702067	 0.0560059108	 0.030963
O	-0.5973678322	-1.6993314504	 0.8454447606	-0.296826
H	 0.9225170042	 1.780379465	-0.3046361663	 0.290885
H	 0.6571374944	-0.3612691909	-0.7537294017	 0.088996
H	 1.2613195588	-1.0011889429	 1.5960982412	 0.067317
H	-0.2692330945	-0.5633105336	 3.4351091142	 0.104569
H	 0.1054575179	 1.0136882659	 2.7442703013	 0.100444
H	-2.5404797557	-0.0117072836	 3.1557993257	 0.083671
H	-3.4550949887	 1.7021040044	 1.6326512819	 0.10066
H	-1.7979105635	 2.0346154547	 0.945305365	 0.146547
H	-3.3470240319	-0.6676105895	 0.8681848147	 0.084462
H	-1.6858734171	-1.094408178	-0.8850180632	 0.074607
173.7489	192.8756	236.3232	270.6627	377.8446	417.6943	452.0248	578.0374	619.8588	622.8256	728.3792	782.3736	825.6972	855.4294	867.4844	886.7086	894.7521	936.581	977.6752	1025.1424	1050.717	1066.1797	1082.0419	1103.5822	1118.175	1128.1601	1185.4345	1188.9061	1206.4723	1227.4474	1248.592	1271.1331	1321.7658	1323.3284	1350.6648	1373.0956	1387.7782	1406.1514	1451.0402	1471.2372	1493.7868	3030.7724	3037.0644	3064.1655	3076.7937	3082.8831	3142.3879	3150.6413	3163.0256	3261.3955	3831.8731
OC1C2CC3CC3C1O2	O[C@H]1[C@H]2C[C@H]3C[C@H]3[C@@H]1O2	
InChI=1S/C7H10O2/c8-6-5-2-3-1-4(3)7(6)9-5/h3-8H,1-2H2	InChI=1S/C7H10O2/c8-6-5-2-3-1-4(3)7(6)9-5/h3-8H,1-2H2/t3-,4-,5-,6+,7+/m1/s1
