25
gdb 94938	2.56955	1.26645	1.13439	0.0855	92.44	-0.2508	0.0802	0.331	1284.9654	0.229441	-352.370117	-352.360368	-352.359424	-352.40411	38.02	
C	 0.5282846069	 1.5171081048	-0.1832119122	-0.397668
C	-0.006811691	 0.0934375645	 0.0277450831	 0.015229
C	 0.3613484609	-0.8526115125	-1.1561518096	-0.235905
C	 1.4897238568	-1.7995275968	-0.6612920671	-0.23145
C	 1.5328588351	-1.6730123603	 0.8560749227	-0.077545
C	 0.6202539787	-0.5333682925	 1.2723946482	-0.069305
C	 0.3012423052	-1.9549324745	 1.6942110655	 0.314603
C	-0.8971074796	-2.7256656846	 1.1704586179	-0.466537
C	 0.5812952426	-2.2620282749	 3.1584228867	-0.445671
H	 1.6188526439	 1.5138209827	-0.2945669389	 0.113568
H	 0.1008604841	 1.968135602	-1.0849107614	 0.10749
H	 0.2827775779	 2.1656391872	 0.6646868707	 0.109424
H	-1.0981250494	 0.1548894378	 0.1262183469	 0.068219
H	-0.5113853267	-1.423426907	-1.4829321379	 0.102745
H	 0.6840587399	-0.2749340743	-2.0282207327	 0.09199
H	 1.3310607346	-2.8295217536	-1.0006322594	 0.095251
H	 2.458576562	-1.4868983842	-1.0658682467	 0.097922
H	 2.4953528355	-1.819370579	 1.3373010839	 0.070079
H	 0.914223335	 0.1524834081	 2.0624777028	 0.067019
H	-1.1212988028	-2.5306408601	 0.1218527497	 0.117369
H	-0.7323699725	-3.8048991833	 1.2757056863	 0.111534
H	-1.7947349499	-2.4782421454	 1.7501331064	 0.11212
H	-0.2781305343	-2.0004403859	 3.7876406647	 0.109847
H	 0.7850380194	-3.3297766633	 3.3046186003	 0.109977
H	 1.4469651078	-1.7043516449	 3.5289540502	 0.109695
83.5925	143.4742	154.4843	204.9147	211.9094	251.9469	273.1981	302.8612	367.4473	377.2185	441.1368	493.6772	656.8095	686.0558	710.4461	783.613	821.0555	832.9215	881.6005	943.8082	955.7469	969.0571	978.2739	989.9273	1018.1115	1043.6012	1046.8038	1083.5795	1096.8728	1132.7377	1154.0063	1162.6596	1210.1988	1217.0868	1234.0739	1288.0848	1305.6096	1320.1712	1331.3253	1342.8543	1370.7129	1406.5613	1410.0882	1419.0073	1438.0334	1482.1711	1487.7276	1493.6833	1497.1499	1499.9595	1503.279	1510.8742	1518.2649	3013.6863	3016.1907	3023.507	3025.271	3031.9954	3053.4429	3059.9641	3071.5884	3075.8182	3089.0192	3093.8262	3096.042	3096.6312	3133.9633	3144.1639	3147.5888
CC1CCC2C1C2(C)C	C[C@H]1CC[C@H]2[C@@H]1C2(C)C	
InChI=1S/C9H16/c1-6-4-5-7-8(6)9(7,2)3/h6-8H,4-5H2,1-3H3	InChI=1S/C9H16/c1-6-4-5-7-8(6)9(7,2)3/h6-8H,4-5H2,1-3H3/t6-,7-,8+/m0/s1
