18
gdb 99581	2.36798	1.11856	0.81233	1.9975	73.37	-0.2882	-0.0553	0.2329	1396.6421	0.145077	-439.111678	-439.10172	-439.100776	-439.147159	34.998	
C	-0.0376930727	 1.6036708096	 0.0450339031	-0.403641
C	-0.0246002361	 0.075673145	-0.0146834393	-0.183022
C	 0.7219769705	-0.48158639	-1.2485688971	-0.163521
C	 2.1388657289	-0.1076590743	-1.2249688906	 0.276962
N	 3.2626512836	 0.1625021495	-1.1927169339	-0.330448
C	 0.5713476763	-2.031628695	-1.3410538761	 0.032464
O	-0.7795607872	-2.3781129267	-1.3745100012	-0.426907
C	 1.2808798541	-2.5886153522	-2.5676264454	 0.126309
O	 0.6709647791	-3.2229521011	-3.3941476968	-0.258571
H	 0.976248669	 2.0124689846	 0.0948686581	 0.141761
H	-0.530538747	 2.0311533091	-0.8348930019	 0.121932
H	-0.5815891696	 1.9461958799	 0.9297394937	 0.126488
H	 0.4405060185	-0.3357875992	 0.8887915479	 0.115078
H	-1.0427802456	-0.3183513923	-0.0611050946	 0.139212
H	 0.272917904	-0.0536410741	-2.1543486841	 0.134092
H	 1.0667477773	-2.4653676604	-0.4545576948	 0.114445
H	-0.8980589555	-2.8822030537	-2.1974397912	 0.300148
H	 2.3637096724	-2.3871239388	-2.6595637762	 0.137218
61.4062	89.4825	111.1022	140.0292	177.7968	221.5512	274.3914	317.9144	334.0415	363.7832	440.8465	506.6096	524.5532	576.3276	763.4312	775.9714	836.627	879.0032	947.2018	996.3847	1030.4955	1069.5017	1123.8074	1124.8582	1161.288	1249.4621	1269.3417	1284.089	1342.3774	1355.2232	1367.4419	1396.808	1417.4261	1440.3414	1490.7691	1499.5057	1507.1539	1811.0189	2351.1175	2958.2943	2983.0609	3031.7801	3037.8194	3048.2543	3097.5629	3112.6587	3121.1256	3660.5816
CCC(C#N)C(O)C=O	CC[C@@H](C#N)[C@@H](O)C=O	
InChI=1S/C6H9NO2/c1-2-5(3-7)6(9)4-8/h4-6,9H,2H2,1H3	InChI=1S/C6H9NO2/c1-2-5(3-7)6(9)4-8/h4-6,9H,2H2,1H3/t5-,6-/m0/s1
