17
gdb 45377	3.02903	1.65515	1.45481	5.8186	67.19	-0.2766	0.0457	0.3223	942.9745	0.13911	-459.028594	-459.021842	-459.020898	-459.059946	26.849	
O	 0.0118249343	 0.090637838	 0.7442904381	-0.362957
C	-0.0110447327	 1.1231581323	 0.1455602674	 0.46559
O	-1.1845108933	 1.7141698194	-0.1845206957	-0.273363
C	-1.2013947384	 2.9577583793	-0.9254982257	 0.124884
C	-0.8494003942	 2.6965260764	-2.4002556693	-0.231052
C	 0.7099734116	 2.7180637316	-2.4227035017	-0.231051
C	 1.0969128438	 2.9894867767	-0.958579684	 0.124884
C	-0.0566120533	 3.8322128181	-0.4222872274	-0.266127
O	 1.1356791102	 1.7461893905	-0.2179295327	-0.273364
H	-2.2039295845	 3.3562456426	-0.769988467	 0.09725
H	-1.2746836456	 1.7478639232	-2.7329275887	 0.129822
H	-1.2688541042	 3.4861394218	-3.0304097893	 0.111286
H	 1.1515377496	 1.7813739023	-2.7678540628	 0.129822
H	 1.0891564072	 3.5187072657	-3.0643538973	 0.111286
H	 2.092127624	 3.4155494806	-0.831814313	 0.097251
H	-0.0770527846	 4.8173750551	-0.8977255869	 0.116953
H	-0.0426808098	 3.9543640665	 0.6627361958	 0.128886
112.7138	121.2033	345.8038	388.0719	427.053	465.8748	527.2404	604.2028	755.7338	760.0874	772.6312	811.2446	855.4208	859.3512	896.3053	935.3156	961.1682	976.2021	1017.2578	1052.8173	1067.383	1105.2299	1143.434	1177.2803	1209.1053	1247.1284	1257.3863	1269.16	1307.3248	1346.3002	1356.7193	1383.3765	1407.723	1476.1448	1476.7275	1499.5068	1882.5196	3060.801	3065.9605	3071.3253	3112.1875	3117.8535	3120.9771	3125.6109	3129.5505
O=C1OC2CCC(C2)O1	O=C1O[C@@H]2CC[C@@H](C2)O1	
InChI=1S/C6H8O3/c7-6-8-4-1-2-5(3-4)9-6/h4-5H,1-3H2	InChI=1S/C6H8O3/c7-6-8-4-1-2-5(3-4)9-6/h4-5H,1-3H2/t4-,5+
