23
gdb 100137	2.25205	1.10548	0.94374	1.1025	87.33	-0.2559	0.0369	0.2929	1409.4389	0.201188	-388.254598	-388.24335	-388.242406	-388.290834	41.675	
C	 0.0329956002	 1.4209652546	-0.5081306898	-0.394539
C	-0.1134582037	 0.0338643953	 0.1233633759	-0.176996
C	-1.5182357019	-0.5933556702	 0.0155112429	 0.358186
C	-1.496567422	-1.9934080948	 0.649631125	-0.413664
C	-2.582969068	 0.2836049126	 0.6904763371	-0.422229
O	-1.725844396	-0.7067583741	-1.4094272268	-0.271632
C	-2.9925641528	-1.1178292452	-1.8847816593	-0.244292
C	-3.9090400104	-0.0095701631	-2.1740628626	 0.332876
C	-4.6595549602	 0.8907270317	-2.440599944	-0.469964
H	 1.0798720578	 1.7393662566	-0.4897647898	 0.106724
H	-0.3029990579	 1.4053805316	-1.5475336733	 0.135659
H	-0.5485126814	 2.1790099557	 0.0255638842	 0.111895
H	 0.586982199	-0.6572808448	-0.3598559098	 0.099051
H	 0.1631321543	 0.0703362953	 1.1839456368	 0.089248
H	-1.2372107467	-1.9286597554	 1.7110208374	 0.115099
H	-2.4710236763	-2.4877861318	 0.5850977053	 0.109593
H	-0.7563106551	-2.6250144749	 0.1501945272	 0.11892
H	-2.6707365321	 1.2538604562	 0.1989058411	 0.134843
H	-3.5682032027	-0.191060833	 0.6712409396	 0.115066
H	-2.315980422	 0.4461792598	 1.7397719552	 0.110575
H	-2.802519801	-1.6667162208	-2.8154100038	 0.136386
H	-3.479840759	-1.8263304454	-1.2013322125	 0.120073
H	-5.3237640323	 1.6871135744	-2.6694469059	 0.199121
44.6751	85.6844	104.1602	193.5735	202.8539	230.373	244.8671	274.7673	284.0719	327.1676	349.0172	363.1933	403.3329	449.3583	520.3627	598.1716	614.6642	670.4498	713.0508	777.6489	846.052	917.7627	923.9605	933.7835	997.1366	1009.1302	1032.3012	1071.3968	1076.7651	1099.9727	1201.9478	1216.1225	1261.0112	1297.761	1326.9176	1375.4977	1387.4803	1398.578	1406.8528	1419.2699	1471.093	1475.798	1479.7441	1489.6182	1498.9497	1503.1917	1508.0376	1514.5839	2232.9409	3011.0343	3028.6498	3037.058	3043.6851	3046.2546	3048.5497	3066.4849	3100.785	3105.2097	3108.1388	3116.3677	3130.3232	3139.3431	3504.5353
CCC(C)(C)OCC#C	CCC(C)(C)OCC#C	
InChI=1S/C8H14O/c1-5-7-9-8(3,4)6-2/h1H,6-7H2,2-4H3	InChI=1S/C8H14O/c1-5-7-9-8(3,4)6-2/h1H,6-7H2,2-4H3
