18
gdb 60517	2.5893	1.03732	0.98282	1.018	72.88	-0.2441	-0.101	0.1431	1304.28	0.145228	-439.07247	-439.06279	-439.061846	-439.10844	33.625	
C	 0.1427064647	 1.2657441114	 0.347828709	-0.409347
C	 0.0430096998	-0.1960102654	-0.1497802032	-0.138154
C	-1.3853273068	-0.7005660054	-0.1439507458	 0.04258
C	-1.6768991758	-2.1314767842	 0.1113583627	-0.248924
N	-2.0146427369	-1.1083123803	 1.1204055208	-0.328813
C	 0.640720352	-0.2697755615	-1.542665062	 0.297244
O	 0.0165936662	-0.1627072383	-2.5729387109	-0.284908
C	 2.1622994427	-0.4675003118	-1.6504902642	 0.093507
O	 2.8847301668	-0.6256782763	-0.7018724385	-0.219507
H	 1.1810683721	 1.6075967076	 0.3715105615	 0.134932
H	-0.4306762966	 1.933386933	-0.302431753	 0.137218
H	-0.2647130176	 1.3411879597	 1.3595749441	 0.135308
H	 0.6633942252	-0.818139469	 0.5070306382	 0.100423
H	-2.0525075539	-0.1532438896	-0.804550684	 0.109888
H	-2.5298097122	-2.6083871077	-0.3620470748	 0.126089
H	-0.8385072871	-2.7960555694	 0.3068643449	 0.111033
H	-1.3208068709	-1.1243006038	 1.8655128095	 0.228921
H	 2.5206856784	-0.4581256092	-2.7014897644	 0.11251
27.0167	77.1864	123.6181	144.0944	180.6512	219.7256	226.4715	293.1719	370.0888	441.1837	515.8277	605.7565	620.7174	782.7288	805.5505	870.7578	914.0055	960.6915	974.116	987.8497	1030.422	1090.2999	1097.7427	1137.8884	1139.8825	1164.6543	1234.8464	1256.4597	1289.6269	1311.992	1344.1507	1361.6483	1401.8759	1431.4624	1494.9796	1499.7672	1513.0702	1800.5635	1821.8367	2926.1511	3040.078	3043.2923	3107.353	3120.0288	3121.9605	3147.3231	3194.6242	3482.3998
CC(C1CN1)C(=O)C=O	C[C@@H]([C@H]1CN1)C(=O)C=O	
InChI=1S/C6H9NO2/c1-4(5-2-7-5)6(9)3-8/h3-5,7H,2H2,1H3	InChI=1S/C6H9NO2/c1-4(5-2-7-5)6(9)3-8/h3-5,7H,2H2,1H3/t4-,5+/m0/s1
