23
gdb 87680	3.21526	1.05352	0.95877	1.8258	86.39	-0.2526	0.0777	0.3303	1376.3028	0.203106	-388.279823	-388.269945	-388.269001	-388.314115	38.095	
C	 0.1119122881	 1.5096348316	-0.2964737513	-0.415473
C	 0.0427004152	 0.02435563	-0.0577154934	-0.027449
O	 1.2915499686	-0.6909297431	-0.0586547383	-0.300961
C	 0.5589620076	-0.6228562622	 1.1536463271	 0.46376
C	 1.0653580735	 0.0067112066	 2.4516470309	-0.361516
C	 0.1863168255	-1.0296603045	 3.2368868664	 0.349196
C	 0.889576954	-1.7692903955	 4.3700960712	-0.45039
C	-1.1329777115	-0.4151494865	 3.7091382123	-0.4365
C	 0.0122313436	-1.8370061984	 1.9027724088	-0.362876
H	 0.9110441896	 1.9644297457	 0.2942705463	 0.127647
H	 0.3064326587	 1.720706848	-1.3532898851	 0.129016
H	-0.8375220514	 1.9869798633	-0.0289364877	 0.118393
H	-0.7534338644	-0.4957866547	-0.5956757634	 0.085349
H	 2.1375867125	-0.1650948611	 2.5885268792	 0.106668
H	 0.8534563605	 1.0665038824	 2.6203450534	 0.097648
H	 1.1139102022	-1.0936657397	 5.2039652219	 0.112355
H	 0.262959106	-2.5800175128	 4.7601052857	 0.112682
H	 1.8338430508	-2.2089371722	 4.0323477144	 0.111776
H	-1.6404721317	 0.1158541156	 2.896551947	 0.112118
H	-1.8158658933	-1.1877763459	 4.0804977628	 0.112487
H	-0.9641612959	 0.3013319721	 4.5211913071	 0.112173
H	-0.9965121371	-2.1773428846	 1.6514643395	 0.097311
H	 0.6993459491	-2.6865661543	 1.8381071854	 0.106587
56.504	149.4948	189.3271	198.3232	228.4292	263.0232	306.8605	318.6724	320.7562	376.9954	426.8068	461.4539	484.2431	523.8175	692.4317	776.2419	824.2106	855.4584	868.3829	920.6718	940.888	960.6798	972.9193	987.9123	1015.0829	1036.6183	1085.6355	1120.699	1139.9753	1169.447	1173.5289	1209.7374	1225.9325	1240.1214	1293.1135	1306.2098	1354.507	1401.7318	1408.8007	1419.3537	1464.7047	1469.6401	1483.1236	1483.6029	1491.5664	1494.086	1502.6463	1505.0953	1523.9892	3017.7159	3022.8576	3034.4343	3044.6715	3050.3079	3079.1016	3082.6466	3089.4432	3090.6216	3094.377	3097.27	3099.9313	3101.3587	3124.9396
CC1OC11CC(C)(C)C1	C[C@H]1OC21CC(C)(C)C2	
InChI=1S/C8H14O/c1-6-8(9-6)4-7(2,3)5-8/h6H,4-5H2,1-3H3	InChI=1S/C8H14O/c1-6-8(9-6)4-7(2,3)5-8/h6H,4-5H2,1-3H3/t6-/m1/s1
