16
gdb 27235	2.18051	1.96175	1.05708	5.4732	73.52	-0.2023	0.0247	0.2269	1098.3579	0.125068	-437.910184	-437.902317	-437.901373	-437.94305	28.811	
C	 0.0812942207	 1.5113673223	 0.1827263112	-0.491928
C	-0.0710993096	 0.0438705078	 0.0571624439	 0.17924
C	-1.0877544943	-0.8142184726	-0.0895417803	 0.214947
C	-2.4855195401	-1.2912579217	-0.4503500709	-0.377886
C	-1.8147671949	-2.7064832241	-0.6575163969	-0.167629
N	-0.5633013117	-2.0994706115	-0.1616713406	-0.129465
C	 0.8076640987	-2.0795247055	-0.1582845506	 0.46237
O	 1.6349872011	-2.9392163436	-0.2798180228	-0.404372
O	 1.0986678241	-0.7282903197	 0.0761516063	-0.261593
H	 0.7188232187	 1.9146402438	-0.6122198136	 0.143998
H	-0.8976415216	 1.9928515964	 0.1198543767	 0.132029
H	 0.5385614389	 1.7876177987	 1.1398751693	 0.144712
H	-3.2163469029	-1.2597130679	 0.3603855938	 0.137513
H	-2.9223391457	-0.8491940091	-1.3472167987	 0.138197
H	-2.1909709205	-3.5175902232	-0.0314088739	 0.138297
H	-1.755023661	-3.0338679801	-1.6983365829	 0.141571
64.8616	156.3902	178.4755	222.469	247.3652	319.22	361.2384	595.128	613.0913	643.0195	694.2538	716.5188	738.3717	790.2433	896.5683	920.3538	985.6804	986.8137	1055.6664	1066.1458	1144.1105	1166.9771	1191.8831	1229.3301	1254.5604	1277.2157	1334.2445	1370.6817	1421.4132	1467.1017	1480.2452	1492.5423	1515.9177	1766.8509	1891.802	3029.1898	3069.5352	3079.9433	3080.0372	3121.7195	3124.5459	3136.8436
CC1=C2CCN2C(=O)O1	C[C]1[C]2CCN2C(=O)O1	
InChI=1S/C6H7NO2/c1-4-5-2-3-7(5)6(8)9-4/h2-3H2,1H3	InChI=1S/C6H7NO2/c1-4-5-2-3-7(5)6(8)9-4/h2-3H2,1H3
