18
gdb 16914	3.69904	1.78344	1.38227	2.5348	66.75	-0.2603	0.0741	0.3345	913.2889	0.155459	-384.937954	-384.930784	-384.929839	-384.96913	28.236	
O	-0.1608156233	 1.4513425709	 0.1312133983	-0.441659
C	 0.0230062379	 0.0451797085	 0.0346436488	 0.137294
C	 0.7856087905	-0.5313946423	 1.231963608	-0.232391
C	 1.0285167726	-2.03624815	 1.046962387	-0.248294
C	-0.2527736067	-2.7752721094	 0.7292558921	 0.070634
O	-1.3797998497	-2.4607087066	 1.5491304395	-0.254975
C	-1.4130333571	-2.0587624888	 0.1702092721	 0.031153
C	-1.3772110553	-0.5644289635	-0.0922571958	-0.220013
H	 0.7073383509	 1.859951777	 0.2082756675	 0.278246
H	 0.5930063265	-0.1982087035	-0.8796651153	 0.059286
H	 1.746214698	-0.012882918	 1.3418949381	 0.080729
H	 0.2094113302	-0.3508171361	 2.1449272189	 0.12249
H	 1.7362050345	-2.2089632989	 0.2246069712	 0.1016
H	 1.4854437593	-2.4658672175	 1.9462034447	 0.1093
H	-0.1436547283	-3.8385076803	 0.5085270684	 0.08437
H	-2.1279452271	-2.6277742737	-0.4242830563	 0.090441
H	-2.0343021023	-0.0643725903	 0.6286307835	 0.127536
H	-1.7788424606	-0.3523023874	-1.0881474609	 0.104252
107.6575	211.6584	289.5917	335.9625	355.716	358.984	416.8741	484.0042	552.2059	670.8011	777.7995	801.8303	834.7437	892.9209	917.8098	946.4161	1012.5421	1038.6865	1052.5944	1070.3529	1093.033	1122.6217	1165.8957	1180.9793	1234.9329	1244.3551	1290.7035	1295.9921	1336.2201	1344.1725	1370.9255	1381.031	1404.2173	1439.822	1463.3822	1477.9121	1486.8457	1493.0844	2937.2383	3018.0423	3030.4965	3044.326	3059.0069	3086.042	3090.8344	3092.2172	3110.1616	3815.0189
OC1CCC2OC2C1	O[C@H]1CC[C@H]2O[C@H]2C1	
InChI=1S/C6H10O2/c7-4-1-2-5-6(3-4)8-5/h4-7H,1-3H2	InChI=1S/C6H10O2/c7-4-1-2-5-6(3-4)8-5/h4-7H,1-3H2/t4-,5+,6-/m0/s1
