24
gdb 89002	3.73091	0.80144	0.76516	1.1849	90.43	-0.2197	0.0819	0.3016	1634.3653	0.217623	-368.369943	-368.36035	-368.359406	-368.405124	36.164	
C	-0.5586590066	 1.1403231975	 0.1444169684	-0.312482
N	 0.0820280177	-0.1652118335	 0.1608749033	-0.0785
C	 1.4630593394	-0.2415159309	-0.3016498013	-0.265616
C	 1.1366229848	-0.4653103776	 1.1362237529	 0.031818
C	 1.5989782096	 0.4940385842	 2.2162459138	-0.258033
C	 0.7377885891	 0.4443148214	 3.4753448263	 0.069084
C	 0.748093484	-0.8404637308	 4.3563222301	-0.217452
C	 0.7067945297	 0.0689212039	 5.613725667	-0.21085
C	 1.19008719	 1.2481345299	 4.727305691	-0.237919
H	 0.1121393905	 1.9904057735	 0.3458487734	 0.098583
H	-1.0011658561	 1.2963409516	-0.8450398098	 0.122253
H	-1.3687259703	 1.1602001814	 0.8810469828	 0.121241
H	 1.7068160309	-1.0704980713	-0.9618659427	 0.109583
H	 1.967052854	 0.6940758046	-0.5473001643	 0.099591
H	 1.088433451	-1.4997570217	 1.4776502154	 0.089022
H	 2.6329170274	 0.2322713085	 2.4828498858	 0.093961
H	 1.6387313451	 1.5202665549	 1.8332345487	 0.094712
H	-0.2972686833	 0.7050109407	 3.2255143668	 0.073252
H	-0.0584163794	-1.564756726	 4.2194969086	 0.097785
H	 1.7051426159	-1.3676686771	 4.274085702	 0.095298
H	-0.3166432963	 0.2223318331	 5.968096997	 0.101411
H	 1.328083382	-0.2141832367	 6.4665932058	 0.094822
H	 2.280371481	 1.3519084006	 4.7558489811	 0.095531
H	 0.7451488198	 2.2329616498	 4.8915555177	 0.092905
52.9973	71.6274	114.7739	146.2288	202.4215	272.6542	303.9605	345.8626	389.3537	442.5552	518.4398	637.3751	743.4415	761.1358	780.8368	793.5424	880.8284	905.5133	928.3385	934.3572	958.9977	977.9477	1013.1095	1038.7325	1086.3624	1103.1132	1117.8575	1122.9181	1134.048	1166.602	1186.916	1200.7227	1206.7008	1226.8587	1256.2931	1258.8889	1269.774	1274.2453	1299.4746	1321.1757	1339.4063	1383.9708	1425.7351	1448.0285	1475.1194	1479.4289	1486.6624	1490.3191	1504.6997	1510.8184	1514.5219	2973.4931	3007.9377	3034.1225	3040.0784	3045.9729	3056.4634	3058.0631	3063.1779	3077.1255	3093.4232	3095.3707	3097.4333	3098.767	3114.7439	3163.6502
CN1CC1CC1CCC1	CN1C[C@H]1CC1CCC1	
InChI=1S/C8H15N/c1-9-6-8(9)5-7-3-2-4-7/h7-8H,2-6H2,1H3	InChI=1S/C8H15N/c1-9-6-8(9)5-7-3-2-4-7/h7-8H,2-6H2,1H3/t8-,9?/m1/s1
