13
gdb 26614	2.47034	1.92699	1.08304	3.3296	66.38	-0.2082	-0.0413	0.1669	1002.5467	0.090451	-489.952097	-489.944581	-489.943637	-489.983862	28.616	
N	 0.0407530342	 1.3836266282	 0.1473183111	-0.565485
C	-0.0101882321	 0.0244569491	 0.0658304996	 0.300357
C	-1.1879502474	-0.6768720334	 0.0763664032	 0.135884
O	-2.3930901228	-0.0410856531	 0.1227754127	-0.45582
C	-1.1900379263	-2.1003912054	 0.0324306871	 0.36084
O	-2.17192645	-2.8084162248	 0.0313238072	-0.389696
O	 0.0851482641	-2.6884241348	-0.0180252015	-0.193764
C	 1.1746061297	-1.9094902637	-0.0314889361	 0.127559
N	 1.203722908	-0.6313489333	 0.0055555667	-0.32713
H	 0.9088752634	 1.817175235	-0.1211252621	 0.268025
H	-0.8081601272	 1.8922838409	-0.0384563398	 0.277058
H	-3.0596201785	-0.7452430946	 0.1059393964	 0.309927
H	 2.0867354149	-2.4946693702	-0.0801211344	 0.152242
126.1888	198.0084	261.7438	302.7524	331.293	399.6771	457.5456	463.1675	516.9598	534.9696	542.6463	574.8002	697.1076	705.2976	762.2423	889.5415	933.5344	973.8919	1061.6263	1157.3256	1203.7504	1329.6869	1380.7572	1414.9995	1455.6597	1617.3201	1635.0038	1715.1744	1809.2059	3204.2464	3599.6697	3723.0289	3724.5936
NC1=C(O)C(=O)OC=N1	Nc1c(O)c(=O)ocn1	
InChI=1S/C4H4N2O3/c5-3-2(7)4(8)9-1-6-3/h1,7H,5H2	InChI=1S/C4H4N2O3/c5-3-2(7)4(8)9-1-6-3/h1,7H,5H2
