21
gdb 114265	4.20403	1.125	1.08439	1.4598	84.26	-0.2386	0.0634	0.3019	1229.5437	0.182726	-386.954704	-386.946684	-386.94574	-386.987139	32.285	
C	-0.121033666	 1.6675440009	-0.1214142486	-0.377633
C	 0.1213581826	 0.1725678674	 0.1198058216	-0.202299
C	-1.1842285437	-0.5980389353	 0.2057660734	 0.077294
O	-1.9730295818	-0.5776748723	-1.0717879826	-0.366408
C	-1.7666589806	-1.9879384469	-1.1341495475	 0.42331
C	-2.3545467302	-3.4301545543	-1.1611516732	-0.299169
C	-0.9048491993	-3.4641719383	-0.4629008257	-0.095457
C	-0.4086111798	-2.5841944548	-1.6207870871	-0.268186
C	-1.3774623785	-2.170014484	 0.3114392176	-0.1173
H	 0.8246357497	 2.2140377092	-0.1839242715	 0.111248
H	-0.6678436645	 1.8178191938	-1.0563854292	 0.13953
H	-0.7117083109	 2.1099241971	 0.6884346135	 0.11341
H	 0.7626359217	-0.2230105518	-0.6704746474	 0.108935
H	 0.6535713266	 0.0207661684	 1.0678760006	 0.103761
H	-1.8084209825	-0.1443528549	 0.9835573548	 0.091868
H	-3.2096775432	-3.6214977385	-0.5100701455	 0.105854
H	-2.4329480096	-3.9582717051	-2.1166211337	 0.098622
H	-0.4301357456	-4.3630311536	-0.0668318909	 0.08453
H	-0.402737162	-3.0366522822	-2.6150386098	 0.092388
H	 0.4944134577	-2.0058862537	-1.4402540463	 0.098754
H	-2.2044103401	-2.3686454411	 0.9962024773	 0.076949
84.2265	154.3311	182.1491	251.4445	303.602	387.3836	453.7523	472.4944	547.9887	617.27	688.1894	735.7946	747.1179	797.0937	836.9306	856.9058	887.5373	932.2113	952.2007	982.5319	993.7401	1016.708	1023.9233	1072.319	1080.9705	1091.7423	1109.7984	1134.8332	1147.1415	1161.7902	1189.7969	1199.8914	1221.0415	1235.9631	1275.392	1294.9965	1339.2546	1376.4088	1405.8998	1416.7204	1473.3791	1492.4939	1496.8153	1509.0374	1535.7064	3033.4074	3035.7789	3039.9931	3048.3124	3074.5553	3077.6572	3094.1141	3102.2929	3112.935	3122.0624	3132.0163	3167.385
CCC1OC23CC(C2)C13	CC[C@H]1O[C@@]23C[C@@H](C2)[C@@H]13	
InChI=1S/C8H12O/c1-2-6-7-5-3-8(7,4-5)9-6/h5-7H,2-4H2,1H3	InChI=1S/C8H12O/c1-2-6-7-5-3-8(7,4-5)9-6/h5-7H,2-4H2,1H3/t5-,6-,7+,8-/m1/s1
