21
gdb 79879	2.36562	1.7068	1.38038	1.7108	82.14	-0.2345	0.0665	0.301	1064.8663	0.182719	-387.027778	-387.019399	-387.018455	-387.060141	33.155	
C	-0.2611392299	 1.5605214199	 0.0041136298	-0.442248
C	 0.078163893	 0.0764111676	 0.0458105787	-0.0519
C	 1.3260927518	-0.6744599745	-0.3599300653	-0.15201
C	 2.6795263065	-0.1050230147	 0.114562444	-0.066044
C	 2.8931910727	 1.4120581171	 0.2897477968	-0.113625
O	 2.2766750905	 1.3801333224	 1.6080549687	-0.299127
C	 2.1434305938	-0.0654534621	 1.5486891676	 0.058892
C	 0.7968496153	-0.704615682	 1.1090229405	 0.308542
C	 0.154900717	-1.8130726202	 1.8974542681	-0.501227
H	 0.4170466996	 2.1655684434	 0.5996158644	 0.157189
H	-0.271155786	 1.9300716474	-1.0276426542	 0.109235
H	-1.26958292	 1.705311274	 0.4078737546	 0.108506
H	-0.7752196219	-0.5134362557	-0.2951810094	 0.08532
H	 1.2605117637	-1.4587242265	-1.1071353348	 0.082063
H	 3.5419002266	-0.7113972795	-0.1583386329	 0.077936
H	 3.9469684855	 1.7068310971	 0.3647451381	 0.101588
H	 2.3769667894	 2.0864490449	-0.4004146184	 0.105435
H	 2.6274395033	-0.5616496932	 2.3950379108	 0.075736
H	-0.3559800014	-1.4220636108	 2.7864710419	 0.123973
H	-0.5907815138	-2.3435907675	 1.2961453514	 0.11739
H	 0.8921068443	-2.5494550471	 2.2389924396	 0.114374
148.4418	185.9595	189.6433	216.814	266.1268	277.3399	329.8894	343.2874	504.2363	566.67	643.3123	677.9623	726.4624	809.2424	862.412	873.7574	900.6939	927.5889	929.7023	970.0384	981.7211	1025.9487	1036.3183	1051.2169	1101.0755	1104.5961	1129.8304	1157.9765	1166.7211	1198.2604	1217.5704	1242.9857	1274.8204	1306.1037	1316.6046	1351.8066	1365.8929	1405.5757	1414.2077	1472.5239	1484.9425	1495.6417	1500.7058	1512.711	1530.3495	3015.2078	3023.8009	3032.3501	3063.5912	3072.0043	3077.7565	3080.3302	3085.1987	3093.7119	3120.8487	3158.9764	3185.0074
CC1C2C3COC3C12C	C[C@H]1[C@H]2[C@H]3CO[C@H]3[C@@]12C	
InChI=1S/C8H12O/c1-4-6-5-3-9-7(5)8(4,6)2/h4-7H,3H2,1-2H3	InChI=1S/C8H12O/c1-4-6-5-3-9-7(5)8(4,6)2/h4-7H,3H2,1-2H3/t4-,5+,6-,7+,8-/m0/s1
