15
gdb 128109	2.31022	1.54144	0.93143	3.6349	79.53	-0.2038	0.0062	0.21	1198.2872	0.111765	-416.772556	-416.763817	-416.762873	-416.80632	31.404	
C	-0.0618996635	 1.4443026729	 0.0863833648	-0.335139
N	-0.0548190081	 0.0063725418	-0.1254698029	-0.405414
C	-1.1730322881	-0.7453508768	-0.0492548449	 0.466934
C	-1.3425791005	-2.1219277894	-0.0015078646	-0.065116
C	-2.760476001	-2.2491525021	 0.0179434443	-0.045981
N	-3.3915482847	-1.1066301362	-0.0081348349	-0.164018
O	-2.35383225	-0.1276236205	-0.0477369425	-0.224916
C	-0.3286366989	-3.095609858	 0.0214172067	 0.183501
C	 0.5649545234	-3.9057113873	 0.0449526324	-0.436328
H	 0.906971101	 1.8457939723	-0.2158519465	 0.137365
H	-0.8357338988	 1.9030479969	-0.5325995141	 0.162647
H	-0.2498775198	 1.7188166839	 1.1327763212	 0.136743
H	 0.8012232607	-0.4973681487	 0.0457799415	 0.266222
H	-3.3361157487	-3.1637511323	 0.0515398005	 0.138126
H	 1.3406816068	-4.6300757066	 0.0589084191	 0.185374
86.7454	108.0393	118.7115	173.2375	223.7964	283.5933	398.4505	444.5361	463.8811	513.8684	550.3013	615.2622	618.8346	678.2546	734.8101	743.1644	874.7148	919.375	937.5869	1067.3537	1137.033	1155.7642	1198.4993	1215.9772	1324.3543	1427.2746	1442.7751	1478.1248	1487.749	1515.366	1585.431	1667.151	2223.2577	3018.0091	3103.3681	3144.0069	3243.5757	3503.4293	3633.375
CNC1=C(C=NO1)C#C	CNc1c(cno1)C#C	
InChI=1S/C6H6N2O/c1-3-5-4-8-9-6(5)7-2/h1,4,7H,2H3	InChI=1S/C6H6N2O/c1-3-5-4-8-9-6(5)7-2/h1,4,7H,2H3
