19
gdb 115459	2.47924	1.2428	0.93578	4.1968	71.93	-0.246	-0.0266	0.2195	1275.2328	0.158674	-460.171749	-460.162641	-460.161696	-460.206814	32.583	
O	-0.0402621333	 1.4270917408	 0.1301931577	-0.423173
C	-0.0687750694	 0.0420922529	-0.1425196207	-0.065744
C	-1.456320721	-0.5438329257	 0.0576739959	 0.102363
C	-1.589668137	-2.0562640435	-0.1480073367	-0.226575
C	-2.7624085173	-2.4397879722	 0.7818140848	-0.277618
C	-2.8439765981	-1.2289517402	 1.7696324968	 0.025794
O	-1.7930137612	-0.3515459463	 1.4387610045	-0.266358
C	-4.2093262229	-0.5618700889	 1.6671329149	 0.145451
O	-4.4108141885	 0.521393286	 1.1883017921	-0.23505
H	-0.4674012268	 1.5436783398	 0.9868420503	 0.295351
H	 0.2415603222	-0.0856438608	-1.1852104103	 0.107456
H	 0.6405360648	-0.5136603635	 0.4934947778	 0.08527
H	-2.1754579553	 0.0046269857	-0.5676947336	 0.095178
H	-1.7753239997	-2.325216763	-1.190113359	 0.113469
H	-0.6690751295	-2.5545857545	 0.1733930167	 0.110335
H	-3.6945791534	-2.5524485481	 0.2194693505	 0.118176
H	-2.5864948862	-3.3791020794	 1.3085476415	 0.121025
H	-2.7088557588	-1.5490468504	 2.8112121792	 0.100964
H	-5.0414624486	-1.1915391185	 2.0654714276	 0.073686
46.7799	76.2937	115.4518	119.671	211.6751	265.8926	332.515	405.7404	429.1431	464.8432	603.2316	661.8828	740.1172	811.0985	837.2141	882.4828	927.5913	944.4536	979.0144	1002.4654	1050.0452	1087.9705	1110.8413	1122.183	1150.3978	1181.8371	1221.4325	1239.7143	1284.3914	1294.1881	1313.1149	1348.9947	1360.3215	1375.0424	1401.2667	1416.8756	1444.8953	1485.9738	1495.9535	1507.326	1843.4592	2842.0868	2966.3861	3009.6993	3025.7948	3052.8458	3056.9614	3073.7059	3107.8104	3119.9636	3800.5983
OCC1CCC(O1)C=O	OC[C@H]1CC[C@@H](O1)C=O	
InChI=1S/C6H10O3/c7-3-5-1-2-6(4-8)9-5/h3,5-6,8H,1-2,4H2	InChI=1S/C6H10O3/c7-3-5-1-2-6(4-8)9-5/h3,5-6,8H,1-2,4H2/t5-,6-/m1/s1
