19
gdb 120811	4.59098	0.63451	0.60552	1.4129	78.77	-0.2601	0.0507	0.3109	1836.5073	0.156121	-422.962348	-422.952139	-422.951195	-422.998885	36.011	
O	 0.0025779377	 1.3365114661	 0.447856339	-0.421911
C	-0.1150095851	-0.0764929597	 0.4918161511	-0.069103
C	-1.2792806941	-0.4685616883	-0.4142935178	-0.214816
C	-1.4548029536	-1.9655906016	-0.479076617	 0.047684
O	-1.9943912376	-2.6224030075	 0.6798883936	-0.255693
C	-2.7444893907	-2.6721801126	-0.532263822	 0.06336
C	-4.0976145173	-1.97733875	-0.55141708	-0.384835
C	-5.1636730227	-2.8305080698	-0.0364243279	 0.296267
C	-6.0292735294	-3.5520829631	 0.3799699421	-0.434291
H	 0.6918747407	 1.6004824129	 1.0640197366	 0.287705
H	 0.8091636058	-0.5668470664	 0.1435883412	 0.084813
H	-0.3146542531	-0.4367079945	 1.5118605924	 0.10788
H	-2.1838888332	 0.0225281294	-0.0467331372	 0.113303
H	-1.0851884714	-0.0836787259	-1.4231805491	 0.112578
H	-0.6010486601	-2.4950734321	-0.9102071439	 0.089803
H	-2.7560325494	-3.6559269498	-1.0044939387	 0.100356
H	-4.0463482561	-1.0549471714	 0.0348201982	 0.143125
H	-4.3287093209	-1.685986337	-1.5851443657	 0.136115
H	-6.7975024297	-4.1809520285	 0.756258175	 0.197658
38.0584	70.0371	81.3974	117.8633	152.6604	242.3347	260.8227	333.4616	338.5445	369.163	492.2811	506.3531	557.9726	620.1088	645.1839	768.5275	821.4876	851.7705	904.112	969.501	997.2863	1024.3314	1052.5426	1084.8944	1105.925	1154.7743	1172.5073	1230.6453	1240.1317	1247.1628	1299.3255	1314.8648	1316.9092	1335.7271	1408.9844	1452.9325	1460.6812	1478.458	1496.2962	1528.9813	2242.5581	2964.366	3009.4896	3022.0108	3042.2763	3069.6999	3082.6912	3100.2468	3110.3185	3507.4891	3832.9694
OCCC1OC1CC#C	OCC[C@H]1O[C@H]1CC#C	
InChI=1S/C7H10O2/c1-2-3-6-7(9-6)4-5-8/h1,6-8H,3-5H2	InChI=1S/C7H10O2/c1-2-3-6-7(9-6)4-5-8/h1,6-8H,3-5H2/t6-,7+/m0/s1
