15
gdb 74563	2.58942	1.69541	1.33706	3.9869	69.48	-0.26	-0.0026	0.2574	979.9776	0.113218	-416.825833	-416.818193	-416.817249	-416.858243	28.209	
C	-0.077091347	 1.4368543247	 0.0569276874	-0.483494
C	 0.0186134829	-0.0390393209	-0.0733341273	 0.397825
N	 0.0488621949	-0.7253903178	-1.1504536194	-0.286173
C	 0.0667461254	-2.1038723417	-0.7532852774	-0.043616
C	 0.0777007749	-2.0947291182	 0.7551797317	 0.044869
O	 0.0699030662	-0.7354045014	 1.1109754205	-0.226742
C	-1.1578037533	-2.6128284976	 0.0315903978	-0.26108
C	-2.3889983267	-1.8814268803	 0.0548070956	 0.325611
N	-3.3775870136	-1.2814685148	 0.0849431393	-0.343422
H	 0.6989258657	 1.8118121677	 0.730406417	 0.148803
H	 0.0260039762	 1.8950518806	-0.9260003162	 0.160876
H	-1.0478185559	 1.7104339563	 0.4821566551	 0.169011
H	 0.587960682	-2.8066190599	-1.390707018	 0.12217
H	 0.6333810406	-2.7238413558	 1.4375570917	 0.132156
H	-1.2645235423	-3.6923282108	 0.0523744722	 0.143205
91.2737	132.4898	155.7129	211.1344	334.6673	383.9622	402.0697	585.5311	646.6346	655.3095	689.8526	776.0074	779.5405	793.8423	902.3291	944.8596	975.558	1007.3679	1028.8116	1069.4038	1082.9591	1093.1856	1140.6795	1172.7791	1241.1123	1325.4881	1352.4593	1383.1669	1414.1775	1470.6951	1476.7518	1705.8374	2354.7665	3054.6916	3115.6493	3168.504	3172.1003	3195.7943	3209.6579
CC1=NC2C(O1)C2C#N	CC1=N[C@H]2[C@@H](O1)[C@H]2C#N	
InChI=1S/C6H6N2O/c1-3-8-5-4(2-7)6(5)9-3/h4-6H,1H3	InChI=1S/C6H6N2O/c1-3-8-5-4(2-7)6(5)9-3/h4-6H,1H3/t4-,5+,6-/m0/s1
