18
gdb 32414	2.7326	1.30472	0.97052	13.7415	88.61	-0.1192	-0.022	0.0972	1218.9144	0.146196	-439.048303	-439.038942	-439.037997	-439.082517	34.311	
C	-0.0409827236	 1.5202948636	 0.0959239671	-0.541447
C	 0.0587641168	 0.0319614006	 0.0616445179	-0.05707
C	-0.0232160861	-0.7305255848	-1.120987984	 0.325825
O	-0.1437201282	-0.4974497719	-2.3073635949	-0.433525
O	 0.0538828239	-2.1369714967	-0.6778131809	-0.221654
C	 0.1343047639	-2.1591754384	 0.6590380049	-0.143279
C	 0.1700216984	-0.8812287197	 1.1572919912	 0.186224
C	 0.1327413652	-0.5311906162	 2.5714117727	-0.353983
N	-1.3198116975	 0.0496653239	 2.8345946463	-0.403137
H	-1.4382058598	 0.8492052403	 2.2000379991	 0.327203
H	-1.9845129101	-0.6725684077	 2.5416472358	 0.30628
H	-1.5093051644	 0.3432575494	 3.7971596483	 0.299198
H	 0.8196170875	 2.02935307	 0.5562194944	 0.101688
H	-0.1244844965	 1.8868692149	-0.9318123227	 0.160428
H	-0.9417331216	 1.9241625712	 0.6214250236	 0.046691
H	 0.2526038657	-3.1178415928	 1.1447938428	 0.103725
H	 0.239464066	-1.3756620617	 3.2545889079	 0.149297
H	 0.7832501404	 0.2935440558	 2.8800643105	 0.147536
68.2029	104.8927	168.9978	187.0069	217.5592	242.8638	267.8479	312.6191	418.388	510.774	556.3528	573.4314	588.9451	629.2775	669.2411	723.138	732.4279	827.4375	846.9	942.9106	993.4456	1046.7857	1056.2458	1167.7392	1170.9651	1251.9725	1291.9371	1333.9346	1374.6797	1404.7782	1411.4033	1472.7413	1474.3258	1484.7755	1491.9688	1584.7807	1613.1739	1643.1839	1826.0369	2758.8471	2980.7479	3053.8897	3099.3323	3132.3923	3222.068	3328.161	3434.8588	3478.1857
CC1=C([O-])OC=C1C[NH3+]	C[C]1C(=O)OC=C1C[NH3]	
InChI=1S/C6H9NO2/c1-4-5(2-7)3-9-6(4)8/h3,8H,2,7H2,1H3	InChI=1S/C6H9NO2/c1-4-5(2-7)3-9-6(4)8/h3H,2H2,1,7H3
