16
gdb 9899	4.82854	0.89774	0.8226	0.9042	70.83	-0.2562	0.0197	0.2758	1389.0234	0.127787	-383.681887	-383.672827	-383.671882	-383.717077	31.357	
C	-0.1483308437	 1.4815866957	-0.1863495867	-0.46735
C	-0.0218926334	-0.0184237609	-0.0168699938	 0.223269
C	 0.8630243498	-0.7961076879	-0.9097879872	-0.208527
O	 1.2766923794	-0.4777167241	 0.4139668645	-0.258266
C	-1.1501171095	-0.6790763759	 0.5972287585	 0.001967
C	-2.1186080787	-1.1798335712	 1.1113341902	 0.119497
C	-3.2610038661	-1.8521475024	 1.7294265789	-0.201309
O	-3.6876658399	-3.0117548579	 1.0291963998	-0.399664
H	 0.757284178	 1.8842200722	-0.6464650936	 0.129209
H	-1.0094332143	 1.725457845	-0.815550624	 0.13349
H	-0.2900262166	 1.9627847184	 0.7856495689	 0.137857
H	 0.6464960529	-1.8463562648	-1.0964675836	 0.118292
H	 1.3898109955	-0.2754635521	-1.709244331	 0.116166
H	-3.0184493058	-2.0818609377	 2.7793627923	 0.123573
H	-4.1257041317	-1.1795123655	 1.7465248277	 0.14315
H	-2.9214713961	-3.5863886909	 0.9292207691	 0.288646
20.2526	84.0236	116.0754	193.1055	210.589	284.1856	330.1635	345.0248	367.1838	479.7894	551.5844	576.3392	645.0931	789.7496	862.8077	923.9677	980.636	1017.9237	1037.1926	1076.6646	1097.9713	1136.507	1166.2023	1215.3699	1285.2403	1360.7362	1368.7085	1409.4815	1417.3905	1478.46	1488.206	1494.2619	1521.0357	2355.5107	2978.2426	3045.3168	3064.5521	3080.0701	3117.49	3130.2192	3172.2134	3816.6775
CC1(CO1)C#CCO	C[C@]1(CO1)C#CCO	
InChI=1S/C6H8O2/c1-6(5-8-6)3-2-4-7/h7H,4-5H2,1H3	InChI=1S/C6H8O2/c1-6(5-8-6)3-2-4-7/h7H,4-5H2,1H3/t6-/m1/s1
