16
gdb 34897	2.02062	1.89472	1.21337	1.1926	79.35	-0.2408	0.0193	0.2602	1044.7668	0.122543	-363.488187	-363.479903	-363.478959	-363.520988	31.752	
C	-0.2442474999	-1.2724780039	 0.036966848	-0.446151
C	-0.1404231543	-0.0747202751	 0.0444654709	 0.34288
C	-0.000889302	 1.3657656733	 0.0607399136	-0.235264
C	-0.2196092888	 2.1094522499	 1.3838665384	-0.030581
C	 0.8328547133	 1.7980467796	 2.3642278247	-0.244039
N	 1.1242298256	 2.8094825752	 1.3281568211	-0.129829
C	 1.4391162802	 2.0359776766	 0.0622978276	-0.201973
C	 2.6135214581	 1.1927472006	 0.092354461	 0.392563
C	 3.5859753281	 0.4863835612	 0.119106925	-0.456234
H	-0.3373344939	-2.3302553254	 0.0301330125	 0.198425
H	-0.5921526517	 1.8093907369	-0.7445448994	 0.117151
H	-1.1302398665	 2.6416337121	 1.6362873553	 0.105816
H	 0.739063291	 2.2369121063	 3.352146463	 0.127045
H	 1.3476269548	 0.8419475102	 2.3306991442	 0.139225
H	 1.515392556	 2.7552433602	-0.7563898224	 0.118148
H	 4.4485525101	-0.1329997077	 0.1386118067	 0.20282
98.2665	104.1698	167.6251	198.5261	301.3825	391.8337	414.5158	507.3218	574.4158	604.3196	624.7171	628.6434	642.8053	659.8697	758.7675	762.246	788.872	806.4065	944.1596	971.0418	1020.9003	1041.5009	1072.3989	1092.6938	1113.3225	1138.3745	1189.5739	1224.7402	1255.7416	1333.8417	1349.7795	1369.2082	1502.0421	2233.403	2235.9577	3068.9013	3083.4931	3122.7806	3171.6709	3213.728	3502.5908	3503.4116
C#CC1C2CN2C1C#C	C#C[C@H]1[C@H]2CN2[C@H]1C#C	
InChI=1S/C8H7N/c1-3-6-7(4-2)9-5-8(6)9/h1-2,6-8H,5H2	InChI=1S/C8H7N/c1-3-6-7(4-2)9-5-8(6)9/h1-2,6-8H,5H2/t6-,7+,8-,9?/m1/s1
