17
gdb 72427	2.92652	1.64057	1.36232	3.4973	67.3	-0.2356	-0.0235	0.2121	976.9999	0.136293	-458.990245	-458.982807	-458.981863	-459.021925	29.229	
C	 0.0070714266	 1.4688404081	 0.0558079136	-0.484318
C	-0.0288679075	-0.0352651638	-0.0444392918	 0.340989
C	 0.7975197787	-0.6844673576	-1.1751345519	-0.10323
O	 1.049535971	-2.0012801786	-0.6587863459	-0.27261
C	 0.5143017031	-1.97827099	 0.6691401578	 0.043538
O	 0.6321050478	-0.6493880539	 1.1009429581	-0.272413
C	-1.0093429615	-2.1273642578	 0.4901885584	 0.446294
O	-1.7028258352	-3.0866550661	 0.678201008	-0.315156
C	-1.4110008707	-0.7238974883	-0.0049922212	-0.391864
H	 1.0388494755	 1.8235360244	 0.1303779551	 0.136678
H	-0.4535934824	 1.9209196952	-0.8277975973	 0.129914
H	-0.5410156048	 1.8080322357	 0.9389608698	 0.136282
H	 0.254187884	-0.7506071445	-2.123241793	 0.111803
H	 1.7473246856	-0.1616974341	-1.3335587497	 0.110828
H	 1.0312873599	-2.6866825125	 1.3127003875	 0.111557
H	-2.0659070185	-0.2449003185	 0.7291065266	 0.138186
H	-1.9354545215	-0.7695132777	-0.962324864	 0.133523
117.3699	198.981	240.448	279.2991	300.9647	394.3532	450.7748	548.1566	561.7721	607.9715	630.9313	755.7273	797.7069	830.2859	893.9272	903.3166	909.9308	958.3136	1006.5717	1020.4142	1089.052	1106.9736	1118.6593	1173.0707	1191.6851	1218.7136	1263.9904	1275.4937	1286.4687	1317.9591	1379.1866	1417.6812	1449.3732	1483.7506	1494.1081	1522.3904	1877.157	3034.0873	3045.8356	3065.1561	3084.1648	3118.2787	3120.3226	3124.0717	3161.0758
CC12COC(O1)C(=O)C2	C[C@@]12CO[C@@H](O1)C(=O)C2	
InChI=1S/C6H8O3/c1-6-2-4(7)5(9-6)8-3-6/h5H,2-3H2,1H3	InChI=1S/C6H8O3/c1-6-2-4(7)5(9-6)8-3-6/h5H,2-3H2,1H3/t5-,6+/m0/s1
