13
gdb 21725	3.84591	1.08834	0.99753	6.6285	74.74	-0.2525	-0.1124	0.1401	1189.2835	0.088345	-431.873123	-431.865586	-431.864642	-431.905188	28.55	
N	 2.9560219666	-0.9038744319	-0.7803197077	-0.687084
H	 2.6591820347	-1.917390891	-0.8656210081	 0.252206
H	 4.0133795466	-0.977297551	-0.7657683295	 0.245951
H	 2.7675580486	-0.5308957126	-1.7537452656	 0.253137
C	 1.546758665	 0.4638979437	 0.885369622	-0.313107
C	 0.2484405567	 0.4489516882	 0.487045936	 0.440124
N	-0.3361109	 1.4530811818	-0.458824187	-0.180998
N	-1.6164787755	 1.1454821106	-0.6658893116	-0.201116
C	-1.9283657319	-0.1401851003	 0.1803243658	 0.471007
O	-2.998658999	-0.7602563767	 0.275371227	-0.335052
O	-0.7080534676	-0.5242689698	 0.8774255756	-0.267444
H	 1.9347497153	-0.257393056	 1.614381565	 0.159631
H	 2.1976963407	 1.285745165	 0.5654875182	 0.162744
91.515	162.106	201.9023	288.4759	338.4849	453.3414	457.4065	576.2911	582.1271	638.9448	642.8871	650.5934	674.0271	701.9838	719.6218	804.2337	846.3594	892.0485	954.6083	998.6217	1086.4424	1209.0083	1345.2698	1409.2078	1547.1239	1603.8667	1715.11	1719.1583	3025.5568	3061.8497	3109.579	3115.8691	3155.2122
[NH3+]CC1=N[N-]C(=O)O1	N.C=C1N=NC(=O)O1	
InChI=1S/C3H5N3O2/c4-1-2-5-6-3(7)8-2/h1,4H2,(H,6,7)	InChI=1S/C3H2N2O2.H3N/c1-2-4-5-3(6)7-2;/h1H2;1H3
