17
gdb 5525	3.10394	1.8364	1.23493	1.5641	71.79	-0.1857	0.0298	0.2155	994.317	0.142767	-363.892451	-363.884258	-363.883313	-363.925551	30.025	
C	-0.3267317909	 1.5857165472	-0.1201378866	-0.365942
C	 0.1142871133	 0.1188002468	 0.0284887139	-0.300681
C	 0.8839850507	-0.3980168582	-1.1367362707	 0.320061
C	 2.1461020944	-0.900285367	-1.2923950439	 0.111436
N	 3.1175049936	-1.1449449836	-0.305072352	-0.608872
C	 2.2822437211	-1.2349577567	-2.6840190051	-0.229155
C	 1.099920299	-0.9114236643	-3.2654925128	-0.016591
O	 0.237010394	-0.4094826375	-2.3527123904	-0.190585
H	 0.5391751092	 2.247441551	-0.2208636617	 0.114869
H	-0.9476884169	 1.7106030664	-1.0113490046	 0.132218
H	-0.9079571306	 1.9090600312	 0.7491244147	 0.108606
H	 0.7334919684	 0.0055019478	 0.926200122	 0.099082
H	-0.7730249941	-0.506706587	 0.1990197116	 0.116039
H	 2.9566817942	-0.6120641353	 0.5402872055	 0.238707
H	 4.0545315232	-0.9507101096	-0.6357896675	 0.24226
H	 3.1462247932	-1.6652640166	-3.1669199015	 0.101264
H	 0.7327269882	-0.9765712448	-4.2766553008	 0.127285
40.499	134.4926	181.4458	201.4084	279.4792	288.5495	359.8152	460.3726	614.1609	625.258	675.869	715.1212	736.337	778.3442	779.9939	806.47	902.1783	968.5453	1010.6526	1066.3634	1078.7572	1086.4442	1188.7975	1214.2911	1255.1079	1294.959	1320.8437	1359.1863	1405.0092	1465.805	1475.5667	1495.4874	1507.9207	1550.2044	1649.1512	1688.8662	3008.747	3038.6671	3056.0831	3108.2901	3120.4606	3247.4078	3279.2958	3529.6298	3616.9969
CCC1=C(N)C=CO1	CCc1c(N)cco1	
InChI=1S/C6H9NO/c1-2-6-5(7)3-4-8-6/h3-4H,2,7H2,1H3	InChI=1S/C6H9NO/c1-2-6-5(7)3-4-8-6/h3-4H,2,7H2,1H3
