17
gdb 54848	3.24902	1.35592	1.24422	3.1684	69.62	-0.2318	-0.0143	0.2176	1067.7045	0.134925	-458.95153	-458.943216	-458.942271	-458.985075	30.083	
C	 0.1373786157	 1.3746316926	-0.3114306944	-0.483498
C	 0.2163924716	-0.1433323813	-0.300369189	 0.402655
O	 1.2798944343	-0.7208195681	-0.3885606444	-0.319664
C	-1.0929102855	-0.841833253	-0.1747932527	-0.234652
C	-1.4224969368	-2.1843083219	-0.8686048425	 0.048458
O	-0.3802159622	-2.9523688424	-1.3733981314	-0.252323
C	 0.3880162707	-3.4442074875	-0.2769690511	 0.043774
O	-0.1739155602	-2.9252827308	 0.9269796629	-0.252346
C	-1.2908200526	-2.1668928198	 0.5977542682	 0.048527
H	 1.1397522848	 1.7935812228	-0.405077237	 0.141549
H	-0.4864222722	 1.7180408898	-1.1447675037	 0.138658
H	-0.3313246598	 1.7390357072	 0.6100017895	 0.138598
H	-1.9573272445	-0.1868009196	-0.1046922036	 0.093613
H	-2.3477410049	-2.2755036226	-1.4250413007	 0.120647
H	 0.3403591557	-4.5423789148	-0.2597565728	 0.103017
H	 1.4129063757	-3.0821080692	-0.373243864	 0.142361
H	-2.1021138601	-2.2428974014	 1.3119466663	 0.120626
62.5418	124.4471	131.0336	159.1537	197.756	311.5322	385.4452	448.9115	633.4522	655.28	718.4789	731.156	784.5168	789.764	917.3784	943.4556	964.2433	977.9214	1001.836	1034.4193	1051.0062	1097.6156	1111.4655	1134.2186	1141.4363	1179.8348	1209.4052	1228.6005	1309.1267	1374.4453	1383.571	1413.522	1450.5112	1464.1969	1475.7941	1528.3843	1788.5943	3001.5545	3032.5855	3093.1178	3117.8221	3145.4908	3153.1682	3178.5309	3188.5442
CC(=O)C1C2OCOC12	CC(=O)[C@H]1[C@H]2OCO[C@@H]12	
InChI=1S/C6H8O3/c1-3(7)4-5-6(4)9-2-8-5/h4-6H,2H2,1H3	InChI=1S/C6H8O3/c1-3(7)4-5-6(4)9-2-8-5/h4-6H,2H2,1H3/t4-,5+,6-
