18
gdb 110253	3.24433	1.2062	1.02663	2.0889	74.61	-0.2439	-0.0023	0.2415	1209.4317	0.14542	-439.002909	-438.994092	-438.993148	-439.036524	32.321	
C	 0.1095661905	 1.2277519899	-0.3134170507	-0.244228
O	-0.0791949909	 0.0188197035	 0.3930450971	-0.244737
C	-1.3299571512	-0.540825612	 0.1953388364	 0.191351
C	-1.6062752284	-1.3902384032	-1.0997541258	-0.202782
N	-0.6629433544	-2.4237163583	-0.5030102421	-0.080462
C	-0.7512566664	-3.8116598317	-0.961372599	-0.340693
C	-1.4861618783	-1.9931484696	 0.7052894177	-0.197037
C	-2.6898020133	-2.1160239593	-0.2664829393	 0.40526
O	-3.7030341932	-2.7296344069	-0.4046549161	-0.321621
H	 1.0921247584	 1.6122761938	-0.0326626318	 0.135072
H	 0.0849663989	 1.0727299965	-1.4015787035	 0.112446
H	-0.6551640002	 1.9748788106	-0.050396482	 0.108628
H	-2.1397951276	 0.1504400629	 0.4665095881	 0.082856
H	-1.5725422263	-1.1094941112	-2.1505981253	 0.099145
H	-0.2894435162	-3.8726524885	-1.9512507431	 0.130323
H	-0.1650582065	-4.4332737192	-0.2782440015	 0.132161
H	-1.77069259	-4.2215451631	-1.0233842486	 0.129779
H	-1.3092375648	-2.3903861442	 1.7025821594	 0.104538
79.1135	137.8138	166.7054	181.8061	198.7707	262.1123	298.4497	382.94	406.0385	520.2906	557.7106	665.9623	727.7992	767.3201	807.1448	818.0678	920.1145	989.0083	1028.9522	1057.0248	1100.448	1105.7541	1147.609	1159.4944	1168.8023	1181.204	1188.0511	1201.3588	1222.3762	1238.4726	1273.743	1411.488	1450.175	1483.814	1489.536	1493.0623	1502.4083	1507.4653	1894.6641	2980.6294	2990.5026	3015.5768	3033.659	3081.1271	3113.8851	3125.6616	3145.5386	3152.2931
COC1C2N(C)C1C2=O	CO[C@H]1[C@H]2N(C)[C@@H]1C2=O	
InChI=1S/C6H9NO2/c1-7-3-5(8)4(7)6(3)9-2/h3-4,6H,1-2H3	InChI=1S/C6H9NO2/c1-7-3-5(8)4(7)6(3)9-2/h3-4,6H,1-2H3/t3-,4+,6-
