13
gdb 132663	3.22058	1.41012	0.98143	2.3836	66.1	-0.2109	-0.0361	0.1748	1074.7931	0.090403	-494.096076	-494.088878	-494.087934	-494.127562	28.063	
N	-0.0619283485	 1.4030528586	-0.1343905056	-0.568058
C	-0.037706195	 0.0267120222	-0.0513663576	 0.304937
N	-1.1717770584	-0.6505510114	 0.030213189	-0.301564
C	-1.1124791006	-1.992182374	 0.0428563398	-0.168216
C	 0.1057076943	-2.6359853516	-0.0156964641	 0.278924
F	 0.1739966717	-3.9644140335	-0.0007953718	-0.071881
N	 1.2609318993	-1.9856988172	-0.0823235343	-0.383805
C	 1.1958211663	-0.6745723534	-0.1018838413	 0.380892
O	 2.3337878874	 0.0525622436	-0.1600716669	-0.426444
H	 0.7767746498	 1.8764372477	 0.1635357486	 0.265264
H	-0.9244189828	 1.8213016488	 0.1807049913	 0.259191
H	-2.0420715014	-2.546113293	 0.1061688486	 0.124372
H	 3.0695420578	-0.5749066268	-0.1739370157	 0.306387
131.6231	248.7155	298.8925	346.4536	384.7865	410.2495	460.1016	500.1967	517.7736	545.7564	567.4108	597.2111	669.4048	732.5405	801.4772	826.1942	894.9015	1032.5627	1075.3104	1175.0268	1284.189	1294.3568	1354.5836	1384.7842	1487.3158	1522.924	1600.2203	1634.3672	1658.9314	3195.9061	3578.2585	3695.7987	3774.1366
NC1=NC=C(F)N=C1O	Nc1ncc(F)nc1O	
InChI=1S/C4H4FN3O/c5-2-1-7-3(6)4(9)8-2/h1H,(H2,6,7)(H,8,9)	InChI=1S/C4H4FN3O/c5-2-1-7-3(6)4(9)8-2/h1H,(H2,6,7)(H,8,9)
