23
gdb 83531	2.11526	1.88028	1.29288	1.3706	84.94	-0.2499	0.0759	0.3258	1099.3417	0.20684	-388.276493	-388.267733	-388.266789	-388.308899	35.92	
C	-0.0912937959	 1.6122358059	-0.0814411222	-0.461844
C	-0.0345288036	 0.0817602314	 0.0061215355	 0.355106
C	-1.446988127	-0.4287711663	-0.3120470834	-0.469197
C	 1.1406183579	-0.6677984738	-0.731414541	-0.108983
C	 2.3972731431	 0.0654663237	-0.2169053069	-0.230614
C	 2.0261266429	 0.1439485208	 1.3115183695	-0.230953
C	 0.660404876	-0.5734044437	 1.2636802288	-0.073322
C	 1.0578626911	-1.7817358467	 0.3687939748	 0.157989
O	 0.0856356395	-2.7983633799	 0.2711901657	-0.444296
H	 0.8562564618	 2.1160257003	 0.1110658655	 0.109818
H	-0.4284551592	 1.9185596546	-1.0786669593	 0.109769
H	-0.8220607783	 2.0021446141	 0.6368315922	 0.111221
H	-1.7433636114	-0.101145453	-1.3162658319	 0.098804
H	-1.5330290794	-1.510128487	-0.2600686798	 0.141105
H	-2.1669530847	 0.0074145607	 0.3910336224	 0.102738
H	 1.092839552	-0.9038429363	-1.7974205779	 0.046659
H	 3.3072053119	-0.5162366352	-0.3921173748	 0.092626
H	 2.5414804136	 1.045705251	-0.6757012696	 0.100694
H	 2.7435359646	-0.3902788588	 1.9408382758	 0.095437
H	 1.9590355934	 1.1675977657	 1.6848692635	 0.100855
H	 0.1279803664	-0.7198686628	 2.2048690369	 0.059133
H	 2.0287553126	-2.2340812785	 0.6207818307	 0.056217
H	 0.3318057929	-3.3690140762	-0.4639331745	 0.281036
148.8676	180.9091	216.8043	270.6913	292.2388	327.24	334.8167	373.2227	403.2569	416.1768	451.0285	579.0013	633.2905	669.3073	795.1392	832.8835	880.1792	895.8616	920.1612	929.2072	946.0005	959.287	981.7953	1012.2282	1015.9911	1030.5224	1067.3116	1127.5454	1132.1026	1182.9053	1194.4399	1202.4689	1219.6363	1232.4347	1255.9684	1257.5193	1290.4907	1303.3485	1326.6953	1343.2547	1402.6544	1421.8984	1453.4983	1482.9493	1485.0604	1503.7315	1509.6782	1525.616	1529.1566	2976.9063	3021.8379	3032.0088	3054.6546	3064.5157	3070.6078	3082.868	3083.6007	3097.9141	3104.5513	3113.1602	3142.507	3187.7815	3812.7025
CC1(C)C2CCC1C2O	CC1(C)[C@H]2CC[C@@H]1[C@H]2O	
InChI=1S/C8H14O/c1-8(2)5-3-4-6(8)7(5)9/h5-7,9H,3-4H2,1-2H3	InChI=1S/C8H14O/c1-8(2)5-3-4-6(8)7(5)9/h5-7,9H,3-4H2,1-2H3/t5-,6+,7-
