19
gdb 61900	3.48248	0.76265	0.68704	5.9411	77.42	-0.2427	-0.028	0.2147	1647.8499	0.156599	-419.228073	-419.217549	-419.216605	-419.264687	36.392	
C	 0.0881806708	 1.4475853765	 0.1571084145	-0.409917
C	 0.0348425351	-0.0987481701	 0.076505002	-0.049485
N	-1.2895039657	-0.6947628074	 0.1577749832	-0.298751
C	-2.119966536	-0.2663404958	 1.2683088742	-0.278545
C	-3.3427776549	-1.0746005864	 1.3440318044	 0.269777
N	-4.3184101844	-1.6896996546	 1.4021720813	-0.297276
C	 0.6396082594	-0.5148216461	-1.2733152892	 0.403031
C	 2.13858859	-0.7065633608	-1.3283453237	-0.483712
O	-0.072384422	-0.6580253685	-2.2402648273	-0.309273
H	 1.1139790511	 1.8156503282	 0.0559664769	 0.125047
H	-0.5153508679	 1.8904171176	-0.6415723077	 0.136904
H	-0.2899905826	 1.8038458779	 1.1192591518	 0.127378
H	 0.6557796242	-0.5074111217	 0.8857365119	 0.089287
H	-1.7574592511	-0.5942581118	-0.7372087568	 0.244455
H	-1.5641720086	-0.4096605107	 2.2043673774	 0.151523
H	-2.4264930204	 0.7940187966	 1.2500190241	 0.135598
H	 2.6666623486	 0.0973970409	-0.8061207211	 0.138879
H	 2.3932500697	-1.6408414685	-0.8129582661	 0.155542
H	 2.4721552944	-0.7681206255	-2.3647356398	 0.149539
47.1939	71.1203	99.4817	117.2626	132.8374	222.3611	239.1111	262.4164	317.8104	333.6352	391.3705	461.439	548.7462	599.9384	626.8104	725.7655	794.2126	890.4316	947.9089	953.996	982.9805	998.9616	1071.2347	1092.1618	1131.1348	1178.9593	1198.3811	1262.1804	1325.0796	1342.0974	1383.8526	1397.4813	1398.4939	1460.5133	1473.5716	1483.7254	1491.5092	1498.2208	1506.5014	1814.0882	2369.0776	2950.6371	3011.8652	3036.9305	3038.3692	3039.2677	3099.5043	3110.1212	3118.2468	3155.1394	3534.783
CC(NCC#N)C(C)=O	C[C@@H](NCC#N)C(=O)C	
InChI=1S/C6H10N2O/c1-5(6(2)9)8-4-3-7/h5,8H,4H2,1-2H3	InChI=1S/C6H10N2O/c1-5(6(2)9)8-4-3-7/h5,8H,4H2,1-2H3/t5-/m1/s1
