17
gdb 75629	2.07336	1.84247	1.23814	3.7275	70.46	-0.2438	-0.0119	0.2319	1043.2539	0.133276	-458.946379	-458.937236	-458.936292	-458.979902	33.889	
C	-0.0161961326	 1.51464056	 0.1761439633	-0.489161
C	-0.0292407123	 0.0254269969	 0.030812096	 0.23929
C	 1.1262050096	-0.8309531879	-0.3534245641	-0.402162
C	 0.5880777011	-1.0465321611	 1.047110714	 0.249009
O	 1.3427382299	-0.8284248668	 2.1698041012	-0.444231
C	-0.7498781681	-1.6831819713	 1.0391127148	 0.294236
O	-1.3903811362	-2.2642047221	 1.8789270698	-0.347295
C	-1.2992303479	-0.8301017983	-0.1432259431	 0.004164
O	-2.5071315767	-0.2164023075	 0.2154532667	-0.444347
H	 0.887685521	 1.8479211883	 0.6949105356	 0.129749
H	-0.048843352	 2.0050031782	-0.8034666016	 0.130525
H	-0.8901712214	 1.841311506	 0.744948982	 0.147486
H	 1.0253955718	-1.5985842441	-1.1182187384	 0.121783
H	 2.0915323982	-0.3314355299	-0.3462293301	 0.128461
H	 2.1609282906	-1.3327084077	 2.1073424204	 0.299123
H	-1.380141403	-1.3115991112	-1.1268356761	 0.083467
H	-2.8697890121	-0.7322328314	 0.9492819996	 0.299901
81.2739	160.5745	177.8555	213.3072	225.6	244.1454	269.0978	348.1136	396.	464.3818	496.8254	534.7998	554.6274	671.3761	719.2189	733.401	863.3007	909.1848	960.902	984.8559	989.0752	1069.8328	1098.1581	1118.9287	1158.4083	1190.0736	1241.4413	1287.6919	1346.6915	1365.1653	1387.9691	1411.0651	1418.3446	1479.4075	1495.0544	1498.4466	1838.2729	3009.4614	3034.4453	3097.3061	3098.3431	3126.5232	3187.4632	3741.0851	3803.7575
CC12CC1(O)C(=O)C2O	C[C@@]12C[C@]1(O)C(=O)[C@H]2O	
InChI=1S/C6H8O3/c1-5-2-6(5,9)4(8)3(5)7/h3,7,9H,2H2,1H3	InChI=1S/C6H8O3/c1-5-2-6(5,9)4(8)3(5)7/h3,7,9H,2H2,1H3/t3-,5+,6+/m1/s1
