16
gdb 7967	3.76144	1.64991	1.19787	3.7679	68.96	-0.2417	-0.0485	0.1932	984.6653	0.130106	-383.783498	-383.775755	-383.774811	-383.815613	28.657	
C	-0.1129406121	 1.4766430714	 0.0525975072	-0.486238
C	-0.0013709307	-0.0090181643	-0.0230576248	 0.318726
C	-0.0568431924	-0.770779807	-1.1325143958	-0.282705
C	 0.1353598005	-2.1819763946	-0.7792978887	 0.353297
O	 0.390741671	-3.1341382285	-1.48644213	-0.35786
C	 0.0315649875	-2.2850683588	 0.7520136673	 0.054037
O	 0.9618160164	-3.2000958579	 1.2717655031	-0.441038
C	 0.2295450278	-0.8378739671	 1.2268404086	-0.33035
H	 0.7866398203	 1.9088233821	 0.5080853341	 0.143897
H	-0.2578470259	 1.9294990322	-0.9307476422	 0.136296
H	-0.9525827975	 1.7647590284	 0.6976238666	 0.142076
H	-0.160012292	-0.4155634271	-2.1502712027	 0.11379
H	-1.0021858972	-2.6000418662	 0.9809611441	 0.091655
H	 1.1047209598	-3.8470819129	 0.5649301267	 0.291507
H	 1.2571425657	-0.7097766349	 1.5886378412	 0.138778
H	-0.4373180413	-0.5432990548	 2.0441455054	 0.114131
90.0678	140.0582	176.2698	259.8599	288.1299	407.2326	429.7045	457.7728	512.7533	546.7946	622.8888	728.4463	820.1897	865.2325	874.3351	958.1063	997.8652	1028.4783	1062.3362	1129.7363	1154.4702	1178.3846	1204.5238	1236.4207	1291.9647	1337.1514	1366.8426	1409.1355	1418.1961	1472.006	1475.2376	1477.6528	1666.0867	1805.3785	2943.8481	3023.9469	3038.9047	3072.8686	3078.0326	3125.1898	3214.4454	3722.8939
CC1=CC(=O)C(O)C1	CC1=CC(=O)[C@@H](O)C1	
InChI=1S/C6H8O2/c1-4-2-5(7)6(8)3-4/h2,6,8H,3H2,1H3	InChI=1S/C6H8O2/c1-4-2-5(7)6(8)3-4/h2,6,8H,3H2,1H3/t6-/m0/s1
