17
gdb 5255	7.11309	1.07854	0.94947	1.7774	71.19	-0.1891	0.0318	0.2208	1212.4474	0.143138	-363.881051	-363.873243	-363.872298	-363.913566	28.873	
C	-0.0064263303	 1.5305634252	-0.0009757917	-0.400812
C	-0.0469636425	 0.0079420017	 0.0656342589	-0.110075
N	-1.4037239791	-0.4852016681	-0.1178494337	-0.396091
C	-1.6083612104	-1.8604581261	-0.0352695879	 0.27861
C	-0.6810289149	-2.8645835606	-0.0584814097	-0.095789
O	-1.3059024292	-4.0861495312	-0.0246088811	-0.153007
C	-2.6339798975	-3.8463795386	 0.0351225714	 0.018499
C	-2.8896895901	-2.5135141793	 0.0296547978	-0.293734
H	 1.0193906669	 1.8936742159	 0.1062417126	 0.121877
H	-0.4043947178	 1.888321951	-0.9549838083	 0.130267
H	-0.6009896513	 1.9771216404	 0.8047199565	 0.114834
H	 0.5720413816	-0.4138943705	-0.7366537332	 0.112812
H	 0.3926631533	-0.3433645315	 1.0159461296	 0.090908
H	-2.0838076137	 0.0412940666	 0.4145955869	 0.22734
H	 0.3927701521	-2.8886174751	-0.1084537806	 0.121775
H	-3.2689429926	-4.7164780359	 0.0741244636	 0.131115
H	-3.8584253045	-2.0388261641	 0.0592014792	 0.101471
76.404	104.0122	142.7708	249.1094	325.9217	343.7586	425.3356	571.9816	606.8195	635.693	693.1037	750.5442	763.3466	809.8201	823.3004	887.8467	924.2337	1002.3528	1058.7782	1080.7327	1097.9241	1153.4643	1164.2171	1221.7559	1265.4314	1291.436	1309.3134	1373.7296	1404.2976	1421.8162	1487.2549	1499.1316	1506.0199	1528.2032	1550.4001	1657.3866	2945.5453	3030.2441	3036.4756	3101.2575	3121.9076	3247.671	3278.3728	3296.6466	3564.4582
CCNC1=COC=C1	CCNc1cocc1	
InChI=1S/C6H9NO/c1-2-7-6-3-4-8-5-6/h3-5,7H,2H2,1H3	InChI=1S/C6H9NO/c1-2-7-6-3-4-8-5-6/h3-5,7H,2H2,1H3
