16
gdb 10845	4.82586	1.48886	1.18243	3.8102	61.16	-0.2385	0.0532	0.2916	965.61	0.133012	-417.103899	-417.09621	-417.095266	-417.13594	28.471	
O	-0.1222953055	 1.4590050209	 0.095092484	-0.421898
C	 0.0147072749	 0.053254436	 0.0068062883	 0.10141
C	 0.7517047641	-0.5228224611	 1.2211804432	-0.184688
N	 0.7023420145	-1.9717688739	 1.1692540581	-0.345448
C	-0.3966988807	-2.694205495	 0.746775273	 0.442418
O	-0.5020060542	-3.8931507676	 0.9382075304	-0.416934
N	-1.3309858857	-1.9731303314	 0.034915172	-0.348974
C	-1.3971450663	-0.5250939785	-0.0381323328	-0.155568
H	 0.7473835816	 1.856377288	-0.0112888109	 0.290312
H	 0.5483635204	-0.2451887284	-0.9073540341	 0.089819
H	 1.8000414879	-0.2012359131	 1.2114202782	 0.101127
H	 0.2894455119	-0.1079827331	 2.1306883747	 0.111213
H	 1.3068067458	-2.5035234915	 1.7744720958	 0.251321
H	-2.1532100441	-2.5097440735	-0.1878104627	 0.25244
H	-1.9741043351	-0.0835507249	 0.7890546329	 0.113799
H	-1.8851695795	-0.2282413428	-0.9714226802	 0.11965
99.2084	110.3064	220.7801	256.8906	328.4391	407.2884	417.9636	469.0532	475.3941	553.1522	586.8272	742.5684	760.6664	837.6375	917.6032	963.0004	1031.8453	1110.9076	1118.6653	1147.5648	1166.5855	1213.386	1235.5344	1282.0633	1300.5204	1347.9051	1388.2879	1416.1417	1441.9743	1473.3797	1479.5319	1527.5232	1530.7634	1806.5006	2979.0035	2984.9195	3005.6988	3048.0161	3076.1002	3645.7658	3652.9992	3827.0718
OC1CNC(=O)NC1	OC1CNC(=O)NC1	
InChI=1S/C4H8N2O2/c7-3-1-5-4(8)6-2-3/h3,7H,1-2H2,(H2,5,6,8)	InChI=1S/C4H8N2O2/c7-3-1-5-4(8)6-2-3/h3,7H,1-2H2,(H2,5,6,8)
