23
gdb 58567	2.078	1.44527	1.18553	0.9543	80.96	-0.2354	0.0695	0.305	1217.3549	0.203091	-425.417845	-425.407217	-425.406272	-425.453164	39.556	
C	 0.3413409978	 1.4966892815	 0.1931806006	-0.427427
C	 0.091078756	 0.0023480918	-0.0014856578	 0.093411
O	-1.2799627036	-0.3456168733	 0.1908214023	-0.439231
C	 0.6095957823	-0.5259907631	-1.3549350386	 0.424729
C	-0.1152712202	 0.075179126	-2.5516364816	-0.467041
O	 2.0459198129	-0.2865469935	-1.438264976	-0.330229
C	 2.3396833038	-1.6974658762	-1.3928268963	-0.084146
C	 0.8435367826	-2.0703455649	-1.4401596925	-0.082418
C	 0.2945618011	-3.016945807	-0.3821800668	-0.412353
H	 1.3940910953	 1.7292114787	 0.0149637569	 0.143776
H	-0.2613770755	 2.0991844877	-0.4966708728	 0.105609
H	 0.0783306572	 1.7900928799	 1.2131080168	 0.120086
H	 0.6300714768	-0.5333693713	 0.7869406203	 0.085979
H	-1.8153366905	 0.2905915131	-0.2945693011	 0.280779
H	-0.0163134696	 1.1644851415	-2.5760770135	 0.123464
H	 0.3060495802	-0.3176400205	-3.4807366788	 0.121758
H	-1.1798784047	-0.1815806387	-2.5267326333	 0.114119
H	 2.9579600803	-2.0146980153	-2.2408343457	 0.098755
H	 2.8507612488	-1.9775679295	-0.4610394475	 0.094278
H	 0.5545853868	-2.4335152933	-2.431063735	 0.074461
H	 0.6334054885	-2.7516863148	 0.6237736077	 0.118266
H	-0.7982095454	-3.0096208912	-0.3746945127	 0.134714
H	 0.6313578491	-4.0402583878	-0.5814015145	 0.108659
53.0686	86.1395	172.8157	198.4122	213.8663	237.991	256.8756	269.6338	296.583	309.1728	358.5542	387.3376	455.4758	494.6085	539.7379	680.5812	723.0964	872.9395	880.9696	906.2131	921.4411	936.3524	1018.9293	1028.1317	1035.4931	1080.6935	1105.712	1122.6175	1132.801	1150.1959	1177.0463	1209.1736	1241.1103	1297.8596	1299.3047	1343.9856	1371.625	1389.6818	1396.6626	1402.7373	1409.8495	1417.4169	1486.4751	1488.0982	1490.9072	1497.9222	1501.6051	1505.2581	1528.0466	3001.0557	3030.9004	3036.6206	3038.3957	3043.1242	3055.2534	3060.7476	3099.3492	3103.0427	3109.4301	3117.3552	3123.6772	3132.8565	3813.7017
CC(O)C1(C)OCC1C	C[C@@H](O)[C@@]1(C)OC[C@H]1C	
InChI=1S/C7H14O2/c1-5-4-9-7(5,3)6(2)8/h5-6,8H,4H2,1-3H3	InChI=1S/C7H14O2/c1-5-4-9-7(5,3)6(2)8/h5-6,8H,4H2,1-3H3/t5-,6-,7+/m1/s1
