20
gdb 113165	3.10227	0.98402	0.86174	5.4626	75.87	-0.2457	0.0234	0.2692	1413.2927	0.170555	-440.316629	-440.306969	-440.306025	-440.351385	35.839	
C	-0.0585571014	 1.576422919	-0.2882858079	-0.374804
C	-0.0510798135	 0.1344966479	 0.2348039532	-0.216001
C	-1.4100652409	-0.5219922638	 0.1203172796	 0.007324
C	-1.8322457947	-1.2251443265	-1.1317650052	-0.310786
C	-1.5602911322	-2.0405873421	 0.1220656759	 0.094767
N	-0.4208184666	-2.9324580863	 0.211248236	-0.610588
H	-0.0802888585	-3.2256236612	-0.6961185926	 0.247465
H	 0.3521521192	-2.5305035415	 0.7289575252	 0.24931
H	-1.6791697963	-4.003436267	 1.1883822165	 0.302075
C	-2.7905677321	-2.567467043	 0.8300988947	 0.432272
O	-2.6085460609	-3.7672373123	 1.3971735086	-0.381845
O	-3.8351559646	-1.9681418756	 0.882096127	-0.362966
H	 0.9299370911	 2.0354809502	-0.1922517179	 0.114662
H	-0.3478498759	 1.6093339007	-1.3434642109	 0.122739
H	-0.7704580504	 2.1929460132	 0.270011494	 0.125102
H	 0.6929700322	-0.4491743311	-0.3213668342	 0.08551
H	 0.2719455011	 0.1313317013	 1.284684693	 0.103406
H	-2.212572496	-0.0220661037	 0.6553356575	 0.119504
H	-2.8664447157	-1.1534114084	-1.4462715028	 0.144802
H	-1.1018374037	-1.3175189697	-1.9307388296	 0.108054
64.1968	92.4304	142.5171	151.0318	242.6921	270.7634	284.1685	296.8362	375.8618	412.6965	448.9719	541.6056	603.0937	741.2042	760.3679	791.9714	817.2129	829.9307	850.3541	893.9921	938.0496	955.2203	981.6115	1063.2264	1065.4701	1087.2663	1131.8194	1186.6618	1197.9462	1232.2554	1260.7341	1294.5471	1325.6134	1348.193	1407.7796	1415.4867	1432.717	1470.1685	1490.4989	1498.2594	1508.0982	1651.3338	1851.8168	3012.5878	3037.5231	3048.4014	3107.9534	3110.154	3125.0119	3158.3505	3227.9712	3500.4132	3525.5092	3604.5415
CCC1CC1([NH3+])C([O-])=O	CC[C@H]1C[C@]1(N)C(=O)O	
InChI=1S/C6H11NO2/c1-2-4-3-6(4,7)5(8)9/h4H,2-3,7H2,1H3,(H,8,9)	InChI=1S/C6H11NO2/c1-2-4-3-6(4,7)5(8)9/h4H,2-3,7H2,1H3,(H,8,9)/t4-,6+/m0/s1
