13
gdb 129338	5.89269	0.99727	0.85292	4.5372	65.74	-0.2403	-0.0229	0.2174	1252.4606	0.089532	-486.04465	-486.036913	-486.035969	-486.077566	27.736	
N	 0.3204845192	 1.1892732148	 0.0026569163	-0.391338
C	 0.0422590027	-0.0437023242	 0.0011079574	 0.073361
N	-1.2654376631	-0.5163544555	 0.0118115409	-0.408494
C	-2.4157844004	 0.2190606428	 0.0261693262	 0.568951
N	-2.5867044296	 1.4940700583	 0.0319853794	-0.194939
O	-4.02387944	 1.6146574253	 0.0471862058	-0.245909
C	-4.5818284504	 0.3797453097	 0.0490976638	 0.519195
N	-5.7834495372	 0.0258683104	 0.0602696032	-0.579507
O	-3.5460343821	-0.5316438625	 0.0354596059	-0.221701
H	 1.3283648128	 1.3294228482	-0.0064902828	 0.240058
H	 0.7509915868	-0.8789222185	-0.0085844499	 0.111933
H	-1.4093981846	-1.5134676829	 0.0105416426	 0.281497
H	-6.398963024	 0.8352162241	 0.0690988614	 0.246893
58.1285	151.5949	157.0767	203.2978	300.01	339.8032	451.7511	501.	590.7009	683.4007	735.7762	747.3553	782.074	813.5865	827.2835	895.5016	966.0975	983.4707	1044.79	1052.5583	1116.4828	1236.819	1263.249	1339.655	1420.4829	1582.9413	1701.9914	1751.7889	1818.1188	3063.6547	3519.5169	3547.3575	3652.7275
N=CNC1=NOC(=N)O1	N=CNC1=NO[C@@H]([NH])O1	
InChI=1S/C3H4N4O2/c4-1-6-3-7-9-2(5)8-3/h1,5H,(H2,4,6,7)	InChI=1S/C3H5N4O2/c4-1-6-3-7-9-2(5)8-3/h1-2,5H,(H2,4,6,7)/t2-/m0/s1
