13
gdb 133272	2.59345	1.55575	0.97826	3.599	69.28	-0.2631	-0.0824	0.1807	1105.2288	0.086899	-493.94468	-493.93686	-493.935916	-493.977944	27.741	
C	 0.1004381086	 1.4299861784	 0.1483412596	-0.343345
N	-0.0105354141	-0.0110751436	 0.156748918	-0.287968
C	-1.1291238292	-0.6003875244	-0.0216413367	 0.121226
C	-2.4651818296	-0.0498050526	-0.2584016338	 0.005315
N	-3.5307686818	-0.7470247992	-0.4257270091	-0.042293
O	-3.4425633158	-2.1143336751	-0.384911408	-0.220546
N	-2.2380515707	-2.7764739903	-0.1683787607	-0.146785
C	-1.1930792917	-2.061022615	-0.0049498685	 0.368935
F	-0.0727318042	-2.7165982845	 0.1975442603	-0.02206
H	 0.8232673337	 1.7152536434	-0.6247211264	 0.150707
H	-0.82540639	 1.9946803542	-0.0191803742	 0.114198
H	 0.5301626613	 1.7479145194	 1.1052858087	 0.150707
H	-2.6318112866	 1.0199123693	-0.3068473394	 0.151909
58.1392	86.7629	205.6355	221.1021	311.739	349.9539	438.8257	491.3365	557.1296	564.4498	599.3215	728.8719	759.9539	834.5427	920.0142	921.3086	957.8608	1071.8113	1115.1612	1145.8069	1230.9239	1336.9682	1433.6997	1438.325	1475.5167	1498.2761	1631.6388	1666.7753	1717.6487	3009.5928	3077.3734	3081.8363	3205.8122
CN=C1C=NON=C1F	CN=c1cnonc1F	
InChI=1S/C4H4FN3O/c1-6-3-2-7-9-8-4(3)5/h2H,1H3	InChI=1S/C4H4FN3O/c1-6-3-2-7-9-8-4(3)5/h2H,1H3
