19
gdb 63805	2.97672	1.67275	1.50896	1.5601	73.05	-0.2277	0.0728	0.3005	957.9812	0.159396	-422.993021	-422.985351	-422.984407	-423.02456	31.399	
C	-0.0508975138	 1.5559272121	 0.0309450454	-0.462892
C	 0.0300876837	 0.0331279565	-0.0181917526	 0.407427
O	-1.2687223886	-0.5578988369	 0.0274179258	-0.485446
C	 0.8597092111	-0.5192032947	-1.2229280238	-0.27755
C	 1.6366583305	-1.6984069858	-0.6446645993	-0.089082
C	 2.5187756903	-1.3960496252	 0.5502587367	 0.093389
O	 2.1623398923	-0.1293334261	 1.11588559	-0.312866
C	 0.7701302856	-0.5771253514	 1.178653593	 0.071112
C	 1.1700768172	-2.0057944451	 0.7670620255	-0.147352
H	 0.9474878696	 1.9877679748	 0.1343469644	 0.140764
H	-0.5015337821	 1.9530548362	-0.8867713547	 0.103682
H	-0.6659668958	 1.8757999166	 0.8776086411	 0.119047
H	-1.7896886076	-0.1844942045	-0.691113017	 0.276101
H	 0.1802244092	-0.8448274337	-2.0166391382	 0.092223
H	 1.5228901136	 0.2456659198	-1.6382871242	 0.104029
H	 1.9419453596	-2.5229520283	-1.2792935465	 0.087001
H	 3.5317680455	-1.7509962738	 0.6986486822	 0.10104
H	 0.3207041472	-0.3908012243	 2.1548727149	 0.081413
H	 0.8359944328	-2.9526240662	 1.1645262072	 0.09796
133.2931	234.8873	249.8253	256.4542	338.9832	356.2915	396.0368	476.7012	518.5624	594.7131	722.3599	743.0903	801.1448	802.8126	823.9785	903.3418	910.7974	934.1668	941.2151	971.3026	995.6665	1007.5816	1028.9879	1044.3661	1068.4672	1098.6492	1117.8834	1148.2393	1180.0384	1214.9476	1238.8668	1260.0188	1277.2501	1295.9041	1326.301	1385.2885	1397.6533	1407.3883	1476.1486	1491.9649	1500.0286	3028.1288	3047.4969	3091.4139	3095.4601	3110.2247	3128.7367	3175.514	3185.5579	3223.1748	3809.4293
CC1(O)CC2C3OC1C23	C[C@@]1(O)C[C@H]2[C@H]3O[C@@H]1[C@@H]23	
InChI=1S/C7H10O2/c1-7(8)2-3-4-5(3)9-6(4)7/h3-6,8H,2H2,1H3	InChI=1S/C7H10O2/c1-7(8)2-3-4-5(3)9-6(4)7/h3-6,8H,2H2,1H3/t3-,4+,5-,6-,7-/m1/s1
