15
gdb 66529	2.92045	1.69989	1.2688	5.0411	73.99	-0.2384	-0.007	0.2314	977.9826	0.112138	-379.563524	-379.556213	-379.555269	-379.595221	28.02	
C	 0.0239296211	 1.5303709581	-0.0135262574	-0.52498
C	-0.0057305484	 0.0408827639	-0.0016258659	 0.272348
C	 0.5759836132	-0.9880812253	-0.9847350694	-0.170865
C	 0.9784618742	-0.9968728184	 0.4714310923	-0.061881
N	-0.1192918336	-2.0020061695	 0.8317511015	-0.202165
C	-0.545491076	-1.9783426221	-0.6006245608	-0.110083
C	-1.1339836643	-0.9801205673	 0.3483449746	 0.252893
C	-2.4390172318	-0.8335517986	 0.8883353731	 0.130305
N	-3.5077106738	-0.6736839029	 1.3040851363	-0.348914
H	 1.018144176	 1.8880306712	-0.3012833756	 0.133398
H	-0.6987938064	 1.9397747579	-0.7275015721	 0.13851
H	-0.207192026	 1.9406846455	 0.9754623624	 0.142163
H	 1.1459141555	-0.8228123956	-1.8871824958	 0.110897
H	 1.932346283	-0.9272792241	 0.9776284143	 0.115539
H	-1.0109318226	-2.8269820727	-1.0867428374	 0.122836
122.9426	153.6914	208.6442	254.015	282.2855	509.5799	511.6672	535.8452	623.3179	662.205	754.3764	782.9517	839.6623	858.5904	867.664	890.5305	909.3213	933.9709	996.3942	1015.9989	1051.9814	1100.7364	1104.8252	1176.1923	1188.0083	1250.1622	1255.7707	1359.1991	1408.5577	1446.2365	1478.5277	1496.8902	2342.2851	3029.4239	3094.3542	3101.8098	3193.4058	3201.6583	3229.339
CC12C3C1N1C3C21C#N	C[C@@]12[C@H]3[C@@H]1N1[C@H]3[C@]21C#N	
InChI=1S/C7H6N2/c1-6-3-4(6)9-5(3)7(6,9)2-8/h3-5H,1H3	InChI=1S/C7H6N2/c1-6-3-4(6)9-5(3)7(6,9)2-8/h3-5H,1H3/t3-,4-,5+,6+,7+,9?/m0/s1
