19
gdb 19197	3.02815	2.15595	1.73347	1.6986	71.34	-0.1953	0.0739	0.2692	852.327	0.166714	-365.018993	-365.011595	-365.010651	-365.049977	29.534	
C	 0.0078557236	 1.469023572	-0.0987086555	-0.33252
N	 0.0134819843	 0.0127686057	-0.0178801297	-0.102445
C	-1.1687790385	-0.6680863137	 0.6224429043	-0.053881
C	-0.8384515812	-2.1336231767	 0.275144701	-0.21074
C	 0.6855864785	-2.1067073593	 0.6638409488	-0.209954
C	 0.7593985664	-0.6364399527	 1.1217964613	-0.020403
C	-0.4964089433	-0.5343019956	 2.0258561341	 0.161268
O	-0.5962896028	 0.7044321193	 2.6887696452	-0.439748
H	 0.9978590667	 1.7988594026	-0.434186592	 0.111537
H	-0.7095209668	 1.7673817516	-0.8723011494	 0.107646
H	-0.2364868516	 1.9966281334	 0.8305456607	 0.117506
H	-2.1680169818	-0.2861889096	 0.4032465829	 0.058565
H	-1.4173587949	-2.8518555424	 0.8625912817	 0.091584
H	-0.9963058714	-2.3372707736	-0.7848131059	 0.107939
H	 0.9385975217	-2.8141455297	 1.4580888711	 0.094001
H	 1.3370887605	-2.2878912629	-0.1918906133	 0.108098
H	 1.7217133011	-0.2182996648	 1.4183601303	 0.070439
H	-0.6675673087	-1.365029388	 2.7299135549	 0.058567
H	-1.5037170416	 0.8067817243	 2.9937369893	 0.282542
177.4064	252.4542	259.1034	270.0491	298.6714	331.6922	337.5194	443.1461	586.5033	669.6871	738.0471	832.0982	833.9678	890.2297	900.3583	917.7116	943.5406	960.8516	1026.4825	1034.8863	1061.6244	1130.2911	1150.1982	1171.4859	1182.7071	1185.9049	1202.5633	1237.5303	1246.1481	1253.5957	1292.9523	1310.7064	1313.8933	1332.2651	1429.5303	1451.0785	1481.0321	1485.1491	1501.1668	1520.9506	2957.834	3012.4687	3060.9057	3071.009	3076.5573	3080.0252	3098.635	3115.1624	3120.1254	3131.5266	3809.4824
CN1C2CCC1C2O	CN1[C@H]2CC[C@@H]1[C@H]2O	
InChI=1S/C6H11NO/c1-7-4-2-3-5(7)6(4)8/h4-6,8H,2-3H2,1H3	InChI=1S/C6H11NO/c1-7-4-2-3-5(7)6(4)8/h4-6,8H,2-3H2,1H3/t4-,5+,6-
