20
gdb 123210	12.39729	0.41822	0.40978	4.221	78.63	-0.2635	0.0318	0.2953	2561.8186	0.168401	-440.276943	-440.26601	-440.265065	-440.315006	35.953	
C	-0.6863252478	 1.6142968793	-0.5332874338	-0.22686
O	-0.4784569481	 0.2297431045	-0.6820966773	-0.23239
C	-0.5476250858	-0.4698689787	 0.5365825733	-0.068443
C	-0.3069909148	-1.9401203006	 0.2303313433	-0.07559
O	-0.3750640957	-2.6496210798	 1.4511487021	-0.250537
C	-0.167077096	-4.031380507	 1.3035039712	-0.048
C	-0.2715874382	-4.6466594073	 2.7046274552	-0.340478
C	-0.0726287846	-6.0920611686	 2.6859674845	 0.247569
N	 0.0873619209	-7.2357523193	 2.6524422264	-0.300829
H	-0.6136015695	 2.0640327811	-1.5262367127	 0.130141
H	-1.6806391511	 1.8348328927	-0.1140777464	 0.106735
H	 0.0712343549	 2.0724795154	 0.1218506026	 0.106734
H	 0.2118088237	-0.1097972919	 1.2498698692	 0.096357
H	-1.533028768	-0.3463347612	 1.0149907892	 0.096362
H	-1.0668841476	-2.3017815632	-0.479429343	 0.104295
H	 0.6783660939	-2.0649699792	-0.2445226177	 0.104293
H	-0.9202669131	-4.4792727226	 0.6365075546	 0.112508
H	 0.8234940948	-4.2418400022	 0.8707642765	 0.112507
H	 0.474628899	-4.1849993017	 3.359559997	 0.162808
H	-1.2560207267	-4.4202239294	 3.1271612558	 0.162818
34.3772	61.1203	68.5029	91.9681	132.1857	142.8709	157.0941	234.7299	261.1574	314.4891	399.5439	446.01	502.1344	564.0313	794.8823	835.0657	949.0103	990.6716	1038.8249	1052.3867	1092.3805	1110.2297	1161.6168	1171.0358	1177.1876	1190.3883	1225.1562	1234.2297	1240.9563	1292.6717	1299.1702	1301.033	1358.9747	1417.1177	1457.6333	1470.9305	1483.8681	1485.8441	1504.616	1515.9474	1533.6475	1539.661	2367.0248	2962.6682	2973.7066	2976.4098	2985.7039	2992.0381	3009.4814	3017.4133	3025.4944	3056.6714	3099.7592	3117.6179
COCCOCCC#N	COCCOCCC#N	
InChI=1S/C6H11NO2/c1-8-5-6-9-4-2-3-7/h2,4-6H2,1H3	InChI=1S/C6H11NO2/c1-8-5-6-9-4-2-3-7/h2,4-6H2,1H3
