16
gdb 124732	3.1359	0.62434	0.59403	7.1473	80.29	-0.263	-0.1082	0.1547	1934.9477	0.118937	-471.207719	-471.196434	-471.19549	-471.248979	35.807	
C	-0.3402885989	 1.1133437778	 0.1808116096	-0.480663
C	-1.0725512771	 0.069267361	-0.5800516124	-0.123697
N	 2.5484783696	-0.3647634613	 1.4966255395	-0.698032
H	 2.5083033034	-0.2808401888	 2.509052652	 0.247246
H	 2.6183343494	-1.3603407151	 1.3026043535	 0.246396
H	 3.4397556607	 0.0375113336	 1.2184811189	 0.245545
C	-2.2876419338	-0.4150405461	-0.2911774641	 0.425772
N	-2.9284101287	-1.4141966844	-1.0328134849	-0.171969
N	-4.0569060603	-1.6613892864	-0.5192920633	-0.220166
C	-4.2307258101	-0.8037519199	 0.638484363	 0.445204
O	-5.156379273	-0.7431730201	 1.3789194479	-0.316603
O	-3.0839400916	-0.0306985687	 0.7437585604	-0.226867
H	 0.5912037177	 0.6922725899	 0.5921820036	 0.204482
H	-0.0452506602	 1.9313654714	-0.4882115933	 0.141134
H	-0.9427929429	 1.5204743733	 0.9945835377	 0.143015
H	-0.6051079942	-0.3784306261	-1.451973128	 0.139205
10.1795	19.0075	29.3603	99.8931	140.2702	158.3336	168.6572	177.6954	218.2515	262.9187	423.3584	443.556	537.0277	678.4023	679.3228	792.0019	797.5329	852.1782	874.7369	930.4541	1025.5374	1064.6138	1101.617	1108.5905	1123.1962	1221.0148	1364.6227	1420.7653	1477.7514	1489.8007	1503.8423	1679.2756	1680.4848	1742.6583	1916.1454	2979.064	3055.5198	3134.9929	3190.3931	3466.7533	3583.4974	3584.038
CC([NH3+])C1=N[N-]C(=O)O1	CC=C1N=NC(=O)O1.N	
InChI=1S/C4H7N3O2/c1-2(5)3-6-7-4(8)9-3/h2H,5H2,1H3,(H,7,8)	InChI=1S/C4H4N2O2.H3N/c1-2-3-5-6-4(7)8-3;/h2H,1H3;1H3
