23
gdb 101630	2.87737	0.74391	0.71014	3.0406	87.25	-0.268	0.0286	0.2966	1737.1678	0.204795	-384.490441	-384.479222	-384.478277	-384.528068	40.102	
C	-0.2524221036	 1.7229447973	 0.2028448056	-0.389617
C	-0.1803635973	 0.1930865554	 0.1459504243	-0.170653
C	-1.5478403957	-0.5103840254	 0.0425503238	 0.044508
C	-2.2671102329	-0.1755318809	-1.2725638999	-0.407124
C	-1.4111249883	-2.0399935874	 0.1735917517	-0.18352
C	-1.0308619047	-2.5339279195	 1.5852096841	-0.148072
N	-2.0579582324	-2.1614241103	 2.5617393948	-0.48952
C	-0.7702048597	-3.9907679796	 1.554248286	 0.256989
N	-0.6020748699	-5.1350818216	 1.5568008812	-0.32515
H	 0.7431969493	 2.1539852815	 0.3468511426	 0.113481
H	-0.6626445234	 2.1499452443	-0.7169569852	 0.119839
H	-0.8821252359	 2.0567068293	 1.0351145839	 0.11788
H	 0.444199003	-0.1153559206	-0.7043955333	 0.093987
H	 0.3413645754	-0.155532257	 1.045585053	 0.09295
H	-2.1711224882	-0.1641634443	 0.8762158069	 0.095493
H	-1.681396399	-0.5077419043	-2.1385007785	 0.113275
H	-3.2434657149	-0.6686090538	-1.3237606925	 0.111628
H	-2.4368854631	 0.8991307612	-1.3788651292	 0.118333
H	-2.3603236828	-2.5184827341	-0.0996038709	 0.10268
H	-0.6658299887	-2.4124674472	-0.5395063647	 0.11465
H	-0.0964569213	-2.0535171594	 1.8959502568	 0.133168
H	-2.9222846848	-2.6548847013	 2.3539988236	 0.240247
H	-1.7781078711	-2.4512512624	 3.4939302059	 0.244548
21.1699	63.4895	98.1198	127.8322	195.4951	216.3528	237.2987	252.1072	279.6195	302.3141	346.8368	388.3786	421.4683	483.7188	576.8092	588.7785	768.4311	796.3381	840.5084	884.3686	937.9773	944.8013	971.2578	987.7996	1003.5063	1046.806	1089.1139	1126.7639	1158.8625	1173.9777	1209.3926	1284.6526	1290.0038	1314.5713	1343.5211	1354.9401	1390.9249	1391.8005	1396.2822	1408.835	1416.2596	1477.2894	1483.0419	1495.5049	1500.9974	1506.1814	1512.391	1661.8557	2342.5102	3008.6446	3022.8082	3027.0903	3035.5344	3036.261	3046.8486	3057.2498	3070.4545	3092.5484	3100.4852	3107.0753	3115.5403	3491.1425	3571.7907
CCC(C)CC(N)C#N	CC[C@@H](C)C[C@@H](N)C#N	
InChI=1S/C7H14N2/c1-3-6(2)4-7(9)5-8/h6-7H,3-4,9H2,1-2H3	InChI=1S/C7H14N2/c1-3-6(2)4-7(9)5-8/h6-7H,3-4,9H2,1-2H3/t6-,7-/m1/s1
