18
gdb 35731	2.85774	1.3426	1.1598	2.3013	76.52	-0.248	0.036	0.284	1117.9842	0.14768	-401.883227	-401.874896	-401.873952	-401.91687	31.667	
C	 0.3332262026	-1.1119591136	 0.1243682571	-0.482526
C	 0.0972207761	 0.0657039349	 0.0773048271	 0.355328
C	-0.1889340452	 1.5049204878	 0.0247033705	-0.084522
C	-0.7873600457	 2.0399825574	 1.3431006819	-0.310453
C	 0.4695347988	 2.3167320875	 2.1598893685	 0.312215
C	 0.4353864736	 2.9584987503	 3.4928419398	-0.301199
N	 0.8170355894	 1.5394923894	 3.3560558523	-0.343432
C	 1.5812719948	 2.5223639177	 1.1256831933	-0.126056
O	 0.9909503491	 2.2867088696	-0.1549855799	-0.252799
H	 0.5481768765	-2.1515549607	 0.1584064162	 0.201699
H	-0.8328317118	 1.7128053925	-0.8355909785	 0.111543
H	-1.3258880478	 2.9694213422	 1.1312514558	 0.115438
H	-1.4722546598	 1.3393107136	 1.8257147067	 0.112869
H	 1.2405976205	 3.6199496049	 3.8033364347	 0.119815
H	-0.5357145987	 3.2054564037	 3.9168352188	 0.111291
H	 0.0436248128	 0.9378418429	 3.6289010359	 0.230612
H	 1.9792454758	 3.5420956009	 1.1156315709	 0.109345
H	 2.4004084489	 1.8199013689	 1.3223593688	 0.120834
36.6053	94.5767	175.2382	260.6279	285.5888	372.8615	404.0012	433.8072	516.8406	563.0228	631.7603	668.061	756.0984	774.7868	825.3767	847.5838	917.2979	932.3345	946.2757	958.9057	986.4623	1021.3391	1064.8264	1082.6166	1099.7287	1136.0961	1189.83	1232.8767	1248.8902	1266.3276	1295.7976	1320.0265	1346.5943	1366.0658	1418.9926	1475.5513	1514.6111	1517.1553	2231.4376	3028.1912	3049.0588	3064.7026	3078.1619	3096.7609	3112.4842	3179.3668	3495.8298	3502.6418
C#CC1CC2(CN2)CO1	C#C[C@H]1C[C@]2(CN2)CO1	
InChI=1S/C7H9NO/c1-2-6-3-7(4-8-7)5-9-6/h1,6,8H,3-5H2	InChI=1S/C7H9NO/c1-2-6-3-7(4-8-7)5-9-6/h1,6,8H,3-5H2/t6-,7-/m0/s1
