18
gdb 19158	3.88265	1.54792	1.29544	1.5545	67.7	-0.236	0.081	0.3171	991.1215	0.151951	-384.882035	-384.873708	-384.872764	-384.915249	30.487	
C	 0.2936497646	 1.4971454223	 0.2646546645	-0.248994
O	-0.0356344526	 0.1468832849	 0.0344048638	-0.29101
C	 0.4959672796	-0.4823734126	-1.1025566424	 0.407769
C	 0.1934044068	-0.011911055	-2.4972328238	-0.325191
C	 1.6037064809	 0.0999746785	-1.9414037924	-0.338635
C	 0.5254868819	-1.9580234373	-0.821680394	 0.029964
C	-0.5583698953	-2.8536966917	-1.2392955003	-0.173104
O	 0.6908777138	-2.822789087	-1.9413607992	-0.23689
H	 1.3677770119	 1.6363460786	 0.4480771768	 0.113889
H	-0.0096477909	 2.1549514332	-0.5629293746	 0.110031
H	-0.2566556035	 1.7978498927	 1.1593759204	 0.130076
H	 0.0049541099	-0.7645983898	-3.25370807	 0.132016
H	-0.373281516	 0.9064851577	-2.6052039287	 0.112565
H	 1.9761011912	 1.0916179657	-1.71473432	 0.115256
H	 2.3539521193	-0.5866170425	-2.3181028606	 0.129912
H	 1.109992661	-2.2314715713	 0.0577050258	 0.096091
H	-0.7526287975	-3.7668345966	-0.6797803894	 0.117848
H	-1.4058076249	-2.4426506298	-1.784259966	 0.118407
52.9053	83.836	196.6093	227.0473	239.8097	297.4995	356.3518	410.975	492.2902	563.4792	666.4393	774.5953	838.2169	874.5378	892.6298	919.9824	950.1733	986.8766	1049.2164	1062.7988	1078.574	1094.1587	1122.3773	1152.9514	1171.2808	1177.0279	1194.7322	1214.8027	1266.7296	1286.2984	1341.8297	1442.5492	1447.5382	1482.912	1490.2576	1496.3824	1511.4109	1525.1646	2988.808	3042.4222	3091.7008	3104.7242	3115.563	3138.1471	3142.5584	3183.1944	3223.0788	3235.3492
COC1(CC1)C1CO1	COC1(CC1)[C@H]1CO1	
InChI=1S/C6H10O2/c1-7-6(2-3-6)5-4-8-5/h5H,2-4H2,1H3	InChI=1S/C6H10O2/c1-7-6(2-3-6)5-4-8-5/h5H,2-4H2,1H3/t5-/m1/s1
