19
gdb 41677	3.66552	1.61555	1.47145	1.2113	78.79	-0.2222	0.0159	0.238	949.4887	0.162993	-385.862659	-385.856251	-385.855307	-385.892995	27.585	
C	 0.0251190712	 1.3554102086	 0.0946483674	-0.065754
C	 1.4560876707	 1.8947467005	-0.0057038428	-0.260861
C	 2.233813341	 1.0910059747	-1.0533699785	 0.008303
C	 1.3323296148	 0.4464966024	-2.1728400148	-0.13033
C	 2.3278852052	-0.4516329477	-2.8916473561	-0.105979
C	 3.0321479448	-1.0088291206	-1.896945981	-0.101979
C	 2.411888975	-0.4140346544	-0.646306894	-0.101708
C	 0.8766454566	-0.5469608652	-1.0191405831	 0.168161
O	-0.0271031814	-0.0588466702	-0.06895076	-0.280684
H	-0.4339325413	 1.5738892148	 1.0625642889	 0.107081
H	-0.5963392823	 1.8265972365	-0.6812940457	 0.096749
H	 1.4198540575	 2.9568315	-0.2740008815	 0.100297
H	 1.9753635638	 1.8269206416	 0.9584708918	 0.104358
H	 3.1381155947	 1.60238093	-1.3956312579	 0.063044
H	 0.6216046716	 1.0236799006	-2.7645676966	 0.061866
H	 2.3887241686	-0.6104415955	-3.9590019127	 0.099456
H	 3.8220465903	-1.7454353371	-1.9366774382	 0.099715
H	 2.7827755871	-0.7012104743	 0.3380283955	 0.058425
H	 0.5332156922	-1.5389415349	-1.3222394406	 0.079841
211.6532	262.5002	328.808	373.5427	469.555	519.3145	545.9847	662.917	682.6356	718.675	806.1702	860.0115	881.0791	906.6083	913.3855	918.7066	939.744	954.3279	956.3838	989.8859	1043.7792	1064.9516	1083.3932	1098.3753	1129.8871	1146.7003	1194.6927	1206.8859	1217.5913	1230.9977	1242.3167	1264.0833	1269.5257	1327.1739	1333.8931	1353.6454	1384.9522	1417.3119	1486.2909	1514.8389	1616.1434	2991.2056	3024.6006	3062.4759	3070.2581	3087.2719	3089.7333	3113.5212	3116.5216	3217.3002	3243.3895
C1CC2C3C=CC2C3O1	C1C[C@@H]2[C@H]3C=C[C@@H]2[C@H]3O1	
InChI=1S/C8H10O/c1-2-7-5-3-4-9-8(7)6(1)5/h1-2,5-8H,3-4H2	InChI=1S/C8H10O/c1-2-7-5-3-4-9-8(7)6(1)5/h1-2,5-8H,3-4H2/t5-,6-,7+,8+
