19
gdb 99482	2.55408	1.05275	0.84099	1.4337	78.33	-0.2588	0.0049	0.2637	1444.8254	0.155661	-423.028853	-423.018133	-423.017189	-423.065852	36.989	
C	 0.2454286556	 1.6598907067	 0.3103754842	-0.396327
C	 0.2487934693	 0.132985432	 0.3812789938	-0.169933
C	 0.4373058579	-0.5349523969	-0.9977323016	-0.263616
C	 1.71906909	-0.1987871488	-1.6163119093	 0.348308
C	 2.7856782732	 0.0741905835	-2.098192494	-0.484806
C	 0.3241488252	-2.0625055509	-0.8833743212	 0.446644
O	 0.4393906218	-2.6918170719	 0.1353555104	-0.352899
O	 0.0730379301	-2.6075698579	-2.0854788544	-0.230499
C	-0.0075184211	-4.0394395008	-2.105694353	-0.242161
H	 1.1870831975	 2.0382991514	-0.0977345821	 0.132678
H	-0.5673919683	 2.0288883657	-0.3254624164	 0.112724
H	 0.1098845743	 2.0908177652	 1.3065802501	 0.116919
H	 1.0399301071	-0.222968098	 1.0468249991	 0.125959
H	-0.6947361583	-0.2308527995	 0.8015445788	 0.107361
H	-0.3637466038	-0.2098047988	-1.6748236332	 0.126363
H	 3.7227726611	 0.3166389633	-2.5349455176	 0.200996
H	 0.9336644767	-4.4811363602	-1.7691572527	 0.144396
H	-0.813094281	-4.3888531264	-1.4550897541	 0.141801
H	-0.2079528171	-4.3097431976	-3.1422235267	 0.136092
26.2613	89.5804	103.644	117.0099	153.6723	167.7646	212.5359	258.7444	298.2381	339.7796	399.0576	425.3116	544.977	623.2952	640.4815	675.853	771.8057	790.5191	870.8817	921.0744	968.6585	1028.0763	1057.1786	1125.4173	1130.9781	1178.4299	1198.2224	1219.5831	1268.5484	1312.5042	1339.0879	1368.8367	1415.2923	1472.2686	1481.6356	1484.4596	1496.5291	1498.7668	1508.3626	1826.9036	2234.6353	3024.4057	3035.4044	3053.3172	3054.3151	3090.9603	3109.8426	3119.1811	3128.6348	3162.0569	3504.2058
CCC(C#C)C(=O)OC	CC[C@@H](C#C)C(=O)OC	
InChI=1S/C7H10O2/c1-4-6(5-2)7(8)9-3/h1,6H,5H2,2-3H3	InChI=1S/C7H10O2/c1-4-6(5-2)7(8)9-3/h1,6H,5H2,2-3H3/t6-/m1/s1
