23
gdb 109431	2.10631	1.3196	1.02057	2.7881	86.15	-0.2339	-0.0137	0.2203	1326.1181	0.203051	-388.316834	-388.306509	-388.305565	-388.351858	38.783	
C	 0.1094429793	 1.5993039087	 0.12448796	-0.388583
C	-0.0921080103	 0.0810395214	 0.0429014105	-0.205964
C	 0.6894923852	-0.5447140904	-1.1084577744	-0.108458
C	 2.2192323976	-0.6274961746	-1.0313984279	 0.391423
O	 3.0607771099	 0.0587003752	-0.521411849	-0.307186
C	 2.2351284896	-2.0086328568	-1.697073486	-0.378993
C	 0.6975350814	-2.100140142	-1.3991131275	 0.287108
C	 0.4261564934	-2.9439196803	-0.1505926875	-0.437463
C	-0.1805321304	-2.5429589783	-2.5655581758	-0.453866
H	 1.1689355216	 1.8388781392	 0.2464235438	 0.148382
H	-0.2454914099	 2.0945800263	-0.7864190415	 0.110037
H	-0.4403995848	 2.0231974341	 0.9703087508	 0.109683
H	 0.2170707329	-0.3768986709	 0.9891360003	 0.103475
H	-1.1585917253	-0.1492037246	-0.0784337491	 0.096816
H	 0.4372399137	-0.0256885683	-2.0452165392	 0.092294
H	 2.4587001934	-1.9324982705	-2.7669844613	 0.121823
H	 2.8934576806	-2.7599405312	-1.2529402276	 0.121788
H	 1.0760457443	-2.6600528882	 0.68399874	 0.120787
H	-0.6112682018	-2.8406515822	 0.1842876286	 0.11789
H	 0.604994041	-4.0040634285	-0.3611555561	 0.114886
H	-0.0147179988	-3.5989008793	-2.8080793976	 0.116467
H	-1.2438113776	-2.4231014817	-2.3272914469	 0.116931
H	 0.028113425	-1.9560481273	-3.4666145066	 0.110723
63.4708	92.6044	149.3465	182.8587	226.4801	258.1857	263.401	297.0096	308.6189	336.1801	378.587	424.2715	489.6643	573.0352	615.2823	729.833	777.22	796.6172	852.7669	879.9327	953.7204	958.8562	983.1322	997.6142	1029.5166	1044.9553	1084.9259	1123.6029	1146.6285	1170.543	1192.1057	1224.0566	1269.7338	1273.8241	1307.957	1334.7952	1372.89	1405.504	1411.9917	1422.1903	1443.3943	1483.1881	1485.8048	1493.6695	1499.3808	1505.1883	1505.77	1513.4239	1875.4758	3000.4703	3020.4493	3020.6576	3028.2117	3034.6117	3047.7206	3062.7257	3086.1408	3091.506	3094.5988	3098.3275	3100.2889	3108.3382	3125.985
CCC1C(=O)CC1(C)C	CC[C@H]1C(=O)CC1(C)C	
InChI=1S/C8H14O/c1-4-6-7(9)5-8(6,2)3/h6H,4-5H2,1-3H3	InChI=1S/C8H14O/c1-4-6-7(9)5-8(6,2)3/h6H,4-5H2,1-3H3/t6-/m0/s1
