19
gdb 54847	2.62631	1.49469	1.4009	3.4539	74.87	-0.2369	-0.0089	0.228	1041.5682	0.15913	-423.033924	-423.025456	-423.024511	-423.067714	31.44	
C	-1.2704549516	 0.5751608601	 0.5177408692	-0.479926
C	 0.0616016319	 0.1184165976	-0.0449706439	 0.390533
O	 1.1159918156	 0.5209183981	 0.3899352841	-0.310013
C	 0.006892774	-0.8115936134	-1.241437314	-0.141617
C	 0.9361645436	-1.9813626592	-1.3870830949	-0.082909
C	 1.5465979657	-2.5011787477	-0.0949164673	-0.094417
O	 0.4603712546	-2.5940271245	 0.8298304137	-0.25344
C	-0.7167492003	-2.9106899274	 0.0989584365	-0.101338
C	-0.5569349353	-2.2173389785	-1.2403689394	-0.07805
H	-1.1149684545	 1.3828994322	 1.234267683	 0.140853
H	-1.9404320496	 0.9038444557	-0.2843892309	 0.129424
H	-1.7642247359	-0.2633587497	 1.0211647256	 0.149133
H	-0.1990693391	-0.2596579919	-2.1572813977	 0.112385
H	 1.4587626566	-2.1532137734	-2.3203597228	 0.093935
H	 2.0034639159	-3.4883630833	-0.2661134635	 0.091514
H	 2.2850324136	-1.8297805556	 0.3478927784	 0.137668
H	-0.8153182357	-3.9975145502	-0.0605509036	 0.095361
H	-1.5715989873	-2.5789481041	 0.6975721937	 0.109091
H	-1.1707386424	-2.5431933048	-2.0722027361	 0.091813
43.0231	105.9256	145.3775	160.9869	269.0285	304.0993	394.6336	437.1764	529.3857	613.8088	690.9855	718.3988	772.8648	790.8901	872.9215	925.8586	936.3842	959.9995	975.8886	993.4543	1029.2929	1059.1702	1079.562	1102.2535	1111.4909	1123.5825	1139.2343	1204.0149	1220.2244	1259.6198	1322.5618	1348.8056	1354.6196	1366.843	1382.006	1435.4632	1458.5058	1474.0242	1504.9526	1522.3864	1801.6529	2967.0897	2985.7472	3037.6845	3066.1025	3099.8478	3113.2384	3123.9189	3149.4366	3177.0486	3188.3121
CC(=O)C1C2COCC12	CC(=O)[C@H]1[C@H]2COC[C@@H]12	
InChI=1S/C7H10O2/c1-4(8)7-5-2-9-3-6(5)7/h5-7H,2-3H2,1H3	InChI=1S/C7H10O2/c1-4(8)7-5-2-9-3-6(5)7/h5-7H,2-3H2,1H3/t5-,6+,7-
