16
gdb 27215	3.40241	1.61581	1.10307	3.8475	79.3	-0.174	0.0172	0.1913	1048.8996	0.127317	-396.978137	-396.970392	-396.969447	-397.01092	29.134	
C	-0.0179871213	 1.5366471585	 0.0945361297	-0.508101
C	 0.0072261371	 0.0511257124	-0.0432504212	 0.165183
C	-0.0011857428	-0.8055596809	-1.1216251702	 0.259379
N	-0.0342522342	-0.9012852284	-2.5035571583	-0.439734
C	-0.0129193519	-2.2565831461	-2.7897588478	-0.001696
N	 0.0307781359	-3.0385659507	-1.7461628878	-0.35441
C	 0.0394132271	-2.1576222228	-0.6702921753	 0.261286
C	 0.0739593647	-2.131210847	 0.7098726602	-0.219902
N	 0.0533664056	-0.7968845286	 1.0560217596	-0.295345
H	 0.8857564632	 1.9316203889	 0.5774692415	 0.127112
H	-0.0846994359	 2.0026044454	-0.8920595647	 0.124135
H	-0.879432672	 1.8898307802	 0.6765036491	 0.126651
H	-0.0661340581	-0.1591376136	-3.1788534843	 0.257719
H	-0.031863639	-2.5975473343	-3.8163351009	 0.121881
H	 0.1087655	-2.9046466989	 1.4578309906	 0.120337
H	 0.0695947016	-0.4661111141	 2.0053436399	 0.255504
35.6725	171.8276	247.2288	257.6108	267.8674	373.5266	447.4712	534.4131	594.8165	606.4166	640.4234	668.7856	711.4487	767.5769	811.6468	850.1285	946.2519	966.1437	1056.6137	1067.881	1108.3315	1113.5474	1197.6552	1258.8719	1315.5384	1323.6627	1378.3029	1418.652	1430.3369	1477.2388	1483.2942	1503.2618	1535.0971	1575.4836	1705.4083	3005.8359	3046.0621	3110.3362	3231.3713	3278.1433	3675.3146	3690.3002
CC1=C2NC=NC2=CN1	Cc1c2[nH]cnc2c[nH]1	
InChI=1S/C6H7N3/c1-4-6-5(2-7-4)8-3-9-6/h2-3,7H,1H3,(H,8,9)	InChI=1S/C6H7N3/c1-4-6-5(2-7-4)8-3-9-6/h2-3,7H,1H3,(H,8,9)
