21
gdb 82236	2.34797	1.90988	1.36708	1.9183	79.93	-0.2418	0.0719	0.3137	1026.335	0.18489	-387.069981	-387.06231	-387.061366	-387.101942	31.034	
C	-0.6849318703	 1.4147055547	-0.1176333782	-0.397473
C	-0.0458193337	 0.0228903945	-0.0517245603	-0.008531
C	 0.8571679068	-0.3226358752	-1.2402255833	-0.041121
C	 2.1707650092	 0.3887164992	-1.4123390522	-0.288158
C	 2.1417743469	-0.9655864373	-0.7474788991	-0.054706
C	 2.1190016222	-0.9533273543	 0.7724905153	 0.10626
O	 2.9160269368	 0.0851412225	 1.4029066524	-0.292089
C	 1.7376911151	 0.7950061491	 1.8360510364	-0.092917
C	 0.7996202691	-0.2655150504	 1.2162853321	-0.08905
H	 0.0703923864	 2.2038445258	-0.1782240294	 0.119324
H	-1.3230128175	 1.5046066299	-1.0026945177	 0.114469
H	-1.3075667193	 1.6097831808	 0.7622135868	 0.110957
H	-0.8615408905	-0.7117134537	-0.0569443122	 0.074426
H	 0.3707529281	-0.6928405599	-2.1372740787	 0.0797
H	 2.5783868324	 0.439111837	-2.4160178114	 0.108587
H	 2.4176167838	 1.2444426641	-0.7945763122	 0.125748
H	 2.5859233982	-1.8127117192	-1.2572796577	 0.079736
H	 2.3572867795	-1.9350976261	 1.1947062541	 0.071869
H	 1.6898602592	 0.8660052348	 2.9297441393	 0.098062
H	 1.6876964898	 1.8085204018	 1.4190060231	 0.096755
H	 0.2139807878	-0.7985203182	 1.9670465527	 0.078154
98.4649	174.7806	221.2028	256.6832	279.2547	396.7173	492.7913	513.6923	620.3927	638.7479	728.3792	780.5813	817.0397	835.0127	885.3851	908.0211	936.127	963.1814	983.923	1002.0557	1022.6518	1032.6364	1043.7059	1048.6667	1067.5858	1097.4109	1111.8507	1145.6292	1165.9049	1173.9129	1208.0739	1224.2844	1258.6346	1306.2515	1330.5389	1339.3539	1344.4848	1364.7546	1374.8994	1396.0504	1411.6434	1492.1965	1497.7983	1499.8867	1528.5344	3011.0629	3012.3006	3033.3006	3048.3782	3049.7149	3092.3161	3097.7297	3107.7495	3137.7058	3152.9783	3173.9877	3220.5336
CC1C2CC2C2OCC12	C[C@H]1[C@H]2C[C@H]2[C@H]2OC[C@@H]12	
InChI=1S/C8H12O/c1-4-5-2-6(5)8-7(4)3-9-8/h4-8H,2-3H2,1H3	InChI=1S/C8H12O/c1-4-5-2-6(5)8-7(4)3-9-8/h4-8H,2-3H2,1H3/t4-,5+,6+,7-,8+/m0/s1
