21
gdb 99692	1.70297	1.17408	0.74562	2.7752	88.08	-0.2336	-0.012	0.2216	1595.3544	0.178006	-387.098015	-387.086328	-387.085384	-387.137787	39.374	
C	 0.2865810401	 1.6079409964	-0.2799915412	-0.394922
C	 0.2620850257	 0.0801176232	-0.2286970405	-0.161267
C	-1.1428568997	-0.495751083	 0.0425813251	-0.257732
C	-2.1009398348	-0.180931282	-1.0157651321	 0.096932
C	-2.865155872	 0.074075733	-1.9118852446	 0.027862
C	-3.7958359556	 0.386893287	-2.9876338623	-0.498524
C	-1.0922520283	-2.0195315458	 0.327810344	 0.382903
C	-2.4220248608	-2.7350716282	 0.454942333	-0.475459
O	-0.0383551036	-2.5905619624	 0.4682778951	-0.291504
H	 1.2988608713	 1.9724246418	-0.4790024079	 0.114269
H	-0.3716598042	 1.9897628836	-1.0661928602	 0.125582
H	-0.041911304	 2.0436477999	 0.670771812	 0.109869
H	 0.6323219158	-0.3380328561	-1.1705492114	 0.109651
H	 0.9293081969	-0.2911944011	 0.5537968099	 0.115408
H	-1.5194394983	-0.0542463765	 0.9818166672	 0.117456
H	-4.6295618107	-0.3236503486	-3.0115830444	 0.14809
H	-4.2199969921	 1.3900016006	-2.8686851078	 0.149834
H	-3.3018874222	 0.3494011337	-3.9647371384	 0.150844
H	-3.109260363	-2.1765521911	 1.0988095113	 0.135118
H	-2.8970501762	-2.7997651891	-0.5288617634	 0.156852
H	-2.2603076645	-3.7379063355	 0.8517143866	 0.138738
15.8027	27.1878	75.0172	96.9622	117.4083	134.0549	183.2754	237.0629	268.7619	309.9273	346.8252	385.7022	429.6336	507.978	537.2649	606.7625	709.1517	798.4651	846.7289	903.2576	972.4179	1019.9055	1045.231	1052.7964	1055.0091	1095.2996	1121.2918	1179.1112	1193.9851	1264.3345	1267.3447	1335.1559	1363.4677	1381.1969	1412.527	1415.4105	1460.4751	1471.6943	1477.8013	1479.1557	1483.2456	1498.0992	1508.0971	1816.4633	2362.8275	2958.4409	3026.7198	3031.5638	3046.1146	3055.174	3086.8908	3088.5458	3088.6773	3103.7978	3110.5579	3115.6382	3154.0217	15.804	27.1894	75.0168	96.9611	117.4082	134.0545	183.2753	237.0622	268.7618	309.927	346.8252	385.7021	429.6333	507.9781	537.2647	606.7625	709.1516	798.4651	846.7289	903.2575	972.418	1019.9056	1045.231	1052.7962	1055.009	1095.2997	1121.2919	1179.1113	1193.9851	1264.3348	1267.3451	1335.1564	1363.4681	1381.1971	1412.5272	1415.4104	1460.4752	1471.6943	1477.8012	1479.1555	1483.2463	1498.0997	1508.0976	1816.4635	2362.8274	2958.4409	3026.7198	3031.5638	3046.1147	3055.174	3086.8908	3088.5458	3088.6772	3103.7978	3110.5578	3115.6382	3154.0217
CCC(C#CC)C(C)=O	CC[C@@H](C#CC)C(=O)C	
InChI=1S/C8H12O/c1-4-6-8(5-2)7(3)9/h8H,5H2,1-3H3	InChI=1S/C8H12O/c1-4-6-8(5-2)7(3)9/h8H,5H2,1-3H3/t8-/m0/s1
