22
gdb 121866	3.45556	0.62246	0.59418	2.9009	79.61	-0.2407	0.0362	0.2769	1928.2279	0.19196	-441.521496	-441.509848	-441.508904	-441.560203	40.091	
C	 0.2109744932	 1.8417384606	 0.0206244216	-0.388503
C	 0.0665716414	 0.3128012306	 0.0488839408	-0.092934
C	 0.6542330812	-0.3722321931	-1.204824409	-0.173742
C	-0.0614697412	-0.0238554348	-2.5129433167	-0.183193
C	 0.5026793301	-0.7891819646	-3.7035255495	-0.074209
O	-0.219281425	-0.3921790283	-4.860048318	-0.422155
C	 0.8061325263	-0.2317207031	 1.2749454616	 0.409682
N	 0.0642269934	-1.0138313516	 2.1128256755	-0.52694
O	 1.9843053788	-0.0021233566	 1.4755746036	-0.378479
H	 1.2701998944	 2.1114198824	 0.0020361703	 0.141988
H	-0.281724895	 2.2730280563	-0.8540720795	 0.116907
H	-0.2344802663	 2.2943336323	 0.9123172042	 0.11379
H	-0.9986224443	 0.0533583603	 0.1178063803	 0.060182
H	 1.7169713801	-0.1100087895	-1.2666458792	 0.120321
H	 0.6162010487	-1.4600513143	-1.0564921746	 0.09414
H	-1.1327576861	-0.2490550333	-2.4335234856	 0.099881
H	 0.0183582665	 1.046207284	-2.7317482379	 0.112422
H	 1.577842639	-0.5698873255	-3.8087570437	 0.087538
H	 0.4090771333	-1.8738397401	-3.5282842703	 0.082578
H	 0.1467532196	-0.8578029751	-5.6174591549	 0.285125
H	-0.9212189518	-1.1576425329	 1.9847526583	 0.257085
H	 0.5056975939	-1.3785744037	 2.9414008028	 0.258518
24.3476	56.0637	80.6118	104.8265	141.1315	142.5417	209.5437	225.3418	262.1799	281.1332	306.7903	340.7948	453.5313	506.3833	595.839	626.8907	757.3224	776.7111	800.0135	860.3205	910.7494	1000.5976	1010.2287	1049.7098	1052.5579	1074.0153	1100.9372	1126.2196	1183.1617	1216.5398	1235.3536	1269.293	1299.6315	1314.1445	1320.44	1352.9733	1384.0179	1405.159	1407.7165	1463.3807	1485.3548	1495.8896	1501.0051	1506.2342	1529.1886	1614.7895	1791.3927	2958.3681	2984.2473	3008.98	3015.2384	3030.5418	3044.3841	3063.2558	3086.8474	3111.1008	3131.519	3601.1046	3741.6337	3830.6694
CC(CCCO)C(N)=O	C[C@@H](CCCO)C(=O)N	
InChI=1S/C6H13NO2/c1-5(6(7)9)3-2-4-8/h5,8H,2-4H2,1H3,(H2,7,9)	InChI=1S/C6H13NO2/c1-5(6(7)9)3-2-4-8/h5,8H,2-4H2,1H3,(H2,7,9)/t5-/m0/s1
