19
gdb 121281	4.04986	0.90849	0.81974	2.4233	71.52	-0.2558	0.0824	0.3382	1412.4685	0.159121	-460.137115	-460.128482	-460.127538	-460.171086	31.791	
O	 0.0377328482	 1.4157402654	-0.0216563698	-0.419874
C	 0.0163899203	-0.0038665789	 0.0003771784	-0.065592
C	-1.4067260704	-0.565016882	-0.04255146	-0.217285
C	-1.4497580239	-2.0883727533	-0.0919733929	 0.098409
O	-0.798620826	-2.6069548249	 1.0744446328	-0.274013
C	-1.418376523	-3.8166680106	 1.494212679	-0.107023
C	-2.8226103639	-3.7674153113	 0.9347618015	 0.025581
O	-3.4877595451	-2.5285459459	 1.2084439443	-0.249083
C	-2.8405846521	-2.6945311735	-0.0586721633	 0.003144
H	-0.3571080342	 1.7255778435	 0.7995786518	 0.281144
H	 0.5707401036	-0.3204603135	-0.8907880676	 0.105081
H	 0.5468780603	-0.4050031264	 0.8742499477	 0.110803
H	-1.9653246643	-0.2412742098	 0.8438458858	 0.108853
H	-1.9194906842	-0.161527156	-0.9239242583	 0.102281
H	-0.9415266912	-2.4515635546	-1.003366094	 0.070965
H	-0.8964531706	-4.7030401275	 1.0976661603	 0.096626
H	-1.3819248713	-3.8509726813	 2.5880740549	 0.120542
H	-3.4461950337	-4.655573686	 0.885876571	 0.105107
H	-3.4790146386	-2.6843591233	-0.9377480918	 0.104335
75.3852	98.9501	115.3321	173.2678	266.8058	304.2672	352.1771	365.6348	422.0199	568.7613	691.8881	767.0256	794.2611	838.9837	874.8779	885.1906	928.3904	961.3221	1015.6975	1031.2473	1038.8125	1075.3452	1084.5872	1109.8188	1115.5104	1121.1894	1190.9919	1228.4338	1258.3024	1276.2365	1309.6684	1314.0581	1337.1975	1373.5972	1380.2144	1409.3677	1421.0893	1445.9086	1478.3031	1506.6708	1514.9313	2943.6297	2976.4666	3016.5259	3033.492	3059.0732	3072.6083	3087.0542	3152.9692	3165.801	3816.7191
OCCC1OCC2OC12	OCC[C@H]1OC[C@H]2O[C@@H]12	
InChI=1S/C6H10O3/c7-2-1-4-6-5(9-6)3-8-4/h4-7H,1-3H2	InChI=1S/C6H10O3/c7-2-1-4-6-5(9-6)3-8-4/h4-7H,1-3H2/t4-,5-,6+/m1/s1
