15
gdb 16137	4.16291	1.83156	1.49612	3.0572	67.07	-0.2331	-0.0274	0.2057	843.4486	0.119217	-362.64923	-362.642539	-362.641594	-362.68009	25.527	
O	-0.147021652	 0.019410168	 0.1872592	-0.26058
C	 0.0226978187	 1.1496091402	-0.1979949991	 0.090384
C	 1.2948061613	 1.8995352116	-0.0386748923	 0.210254
C	 1.2496425873	 3.3712263912	 0.2871658344	-0.266696
N	 1.6178238056	 2.9549175629	-1.0524524947	-0.138278
C	 3.0791836453	 2.8461880696	-1.2905502831	-0.214735
C	 3.5785505359	 1.7601107831	-0.361982224	-0.092718
C	 2.5695385985	 1.215486444	 0.3157073329	-0.142107
H	-0.7823429934	 1.731431566	-0.6987306421	 0.081901
H	 0.2941000454	 3.8863820116	 0.3529167823	 0.125184
H	 2.017941673	 3.7216020148	 0.9732906078	 0.125455
H	 3.247584931	 2.5909203471	-2.3445815536	 0.125093
H	 3.5575372125	 3.8181878359	-1.1172831984	 0.121473
H	 4.6243600741	 1.4895279314	-0.2791997565	 0.109727
H	 2.6144894968	 0.3966961925	 1.0200285463	 0.125642
104.1973	196.9299	248.0806	302.9807	429.6379	450.5268	520.9371	677.6661	738.8552	750.3382	778.2918	794.3535	914.7399	935.6597	955.883	961.2698	997.5937	1034.994	1053.6498	1113.9364	1118.1459	1155.2376	1217.4467	1268.0644	1304.4354	1340.4027	1379.3466	1422.2753	1483.5951	1497.2865	1671.7765	1816.8664	2893.7914	3021.0294	3053.3819	3093.2331	3184.5144	3205.4593	3243.461
O=CC12CN1CC=C2	O=C[C@]12CN1CC=C2	
InChI=1S/C6H7NO/c8-5-6-2-1-3-7(6)4-6/h1-2,5H,3-4H2	InChI=1S/C6H7NO/c8-5-6-2-1-3-7(6)4-6/h1-2,5H,3-4H2/t6-,7?/m0/s1
