25
gdb 101823	2.96294	0.7223	0.60926	1.9268	86.78	-0.2515	0.0737	0.3252	1938.8861	0.225252	-426.631053	-426.619146	-426.618202	-426.669212	42.56	
C	-0.634574172	 1.3757396424	 0.6643682028	-0.381433
C	-0.7593555953	-0.1416749471	 0.5113399231	-0.182521
C	-1.4749421338	-0.5589140164	-0.7747698102	 0.111944
O	-0.7960745316	-0.109477016	-1.944634186	-0.432952
C	-1.6957571083	-2.0723286085	-0.8641056688	-0.086415
O	-2.519142874	-2.4759564951	 0.2067238596	-0.25972
C	-2.671949126	-3.8825345029	 0.3726370178	 0.166549
C	-3.2377820959	-4.090414807	 1.7731553471	-0.388877
C	-3.5700923365	-4.4940224445	-0.7067302261	-0.393394
H	-0.0688233127	 1.6398953027	 1.5628694797	 0.107555
H	-0.1297712645	 1.8133258616	-0.2014440865	 0.122897
H	-1.6220533123	 1.8438672664	 0.7422419648	 0.115733
H	 0.2400362894	-0.6044357016	 0.5166783129	 0.075779
H	-1.3019719642	-0.5756480211	 1.357168149	 0.116686
H	-2.4574458651	-0.0728176696	-0.8140851855	 0.09544
H	 0.1071121676	-0.4439477237	-1.9029267194	 0.276899
H	-2.1449399848	-2.2994466784	-1.8416135585	 0.097439
H	-0.7201278378	-2.5923562642	-0.8195645108	 0.067154
H	-1.6751743336	-4.353140734	 0.3138427878	 0.062178
H	-4.2208007867	-3.6163505563	 1.8584652858	 0.123129
H	-3.3479854881	-5.1566118647	 1.9919365389	 0.11187
H	-2.5776836391	-3.6456858804	 2.5224920206	 0.119316
H	-3.1542418446	-4.356172522	-1.7086149786	 0.118462
H	-3.6849955355	-5.569998176	-0.5411480888	 0.11398
H	-4.5622401945	-4.0318287736	-0.6794303207	 0.122301
29.1461	63.6038	82.0839	146.4639	148.3667	210.1349	214.5444	241.6844	252.4427	274.6356	302.2316	328.7593	411.3744	433.6725	453.9388	523.936	548.1681	778.4889	824.3095	841.4238	925.162	934.0156	947.0102	983.9872	990.0988	1045.7039	1087.9596	1115.7802	1129.4735	1151.7202	1162.9862	1176.1074	1199.1845	1239.6855	1257.3295	1326.1301	1329.2294	1362.938	1370.402	1390.1073	1396.8387	1404.7947	1411.4792	1417.4318	1429.6618	1480.5188	1485.1327	1485.7292	1494.8496	1496.5971	1508.1028	1509.1462	1520.1161	2928.2526	2951.6728	2990.553	3010.0562	3036.6265	3037.1748	3042.753	3048.113	3080.9126	3101.814	3107.9064	3113.4197	3116.8256	3117.6581	3121.8245	3793.6911
CCC(O)COC(C)C	CC[C@@H](O)COC(C)C	
InChI=1S/C7H16O2/c1-4-7(8)5-9-6(2)3/h6-8H,4-5H2,1-3H3	InChI=1S/C7H16O2/c1-4-7(8)5-9-6(2)3/h6-8H,4-5H2,1-3H3/t7-/m1/s1
