17
gdb 17856	4.99353	1.62214	1.52636	2.2675	67.61	-0.237	0.0678	0.3048	875.5635	0.143299	-363.784492	-363.777709	-363.776765	-363.815511	25.946	
C	-0.0679737994	 1.4904342489	-0.1262016461	-0.254009
C	 1.4774653173	 1.46589804	 0.0112598879	-0.157804
N	 1.506960045	-0.0287955103	 0.2225559629	-0.185356
C	-0.0090075258	-0.0291452386	-0.004798793	-0.107077
C	 0.9195398692	-0.6115246217	-0.9809789721	 0.311259
C	 1.1878777976	-0.308299654	-2.4542908866	-0.150095
O	 1.2718557166	-1.7207023678	-2.7406587584	-0.277864
C	 1.1009970104	-2.0783241115	-1.3496348002	-0.159341
H	-0.5564938162	 1.9697568655	 0.7236424598	 0.117476
H	-0.4991870119	 1.8906680985	-1.0491945129	 0.10671
H	 2.0632703921	 1.7980599514	-0.8520752851	 0.107034
H	 1.8500547426	 1.9714839464	 0.9033347839	 0.117398
H	-0.6740734487	-0.6448434183	 0.594106934	 0.097949
H	 0.3799885762	 0.1798630302	-3.0139651721	 0.106993
H	 2.134520823	 0.2093137442	-2.6606325136	 0.10647
H	 1.9976474926	-2.544570373	-0.9238809714	 0.114889
H	 0.2354811294	-2.7345734699	-1.197529627	 0.10537
104.0884	177.1351	210.669	272.3506	401.339	455.4447	557.8925	749.9759	780.2094	810.1765	832.331	878.6342	938.7194	954.0142	975.2443	991.6995	1005.6703	1027.322	1032.2555	1094.8183	1130.3202	1132.1683	1149.6794	1171.9121	1210.5396	1219.084	1266.3628	1270.6284	1302.6963	1309.2932	1362.9555	1472.0366	1488.6383	1501.9135	1510.479	1527.9661	3000.7502	3019.2991	3045.283	3049.1292	3056.696	3064.9272	3109.1679	3126.4098	3152.8436
C1CN2C1C21COC1	C1CN2[C@@H]1C12COC1	
InChI=1S/C6H9NO/c1-2-7-5(1)6(7)3-8-4-6/h5H,1-4H2	InChI=1S/C6H9NO/c1-2-7-5(1)6(7)3-8-4-6/h5H,1-4H2/t5-,7?/m0/s1
