17
gdb 40880	3.59277	1.50195	1.32833	1.7357	70.83	-0.2464	-0.0121	0.2342	976.2597	0.136593	-421.743599	-421.736634	-421.73569	-421.775255	27.49	
C	 0.0629336301	 1.5109551713	-0.0662737958	-0.153549
O	 1.4320257362	 1.5405605316	 0.3932559706	-0.278296
C	 1.5076278067	 0.0993985712	 0.4493950659	-0.164588
C	 0.0575980972	-0.0243905803	-0.0351957567	 0.351322
C	-1.1016719896	-0.8297142275	 0.6170199353	-0.058356
O	-1.8207910011	-0.6722688233	-0.6524458304	-0.292496
C	-0.4833213573	-0.8691510371	-1.2233069468	-0.058366
C	-0.1446051483	-2.2969875624	-0.759130886	-0.084043
C	-0.569966008	-2.2698655309	 0.5067654079	-0.08404
H	-0.6207406065	 2.0053610841	 0.6351879722	 0.106261
H	-0.0521070406	 1.9691118897	-1.0566068793	 0.106254
H	 2.2731197133	-0.3023301823	-0.2266064814	 0.102886
H	 1.7046860295	-0.2662525993	 1.4651728652	 0.102891
H	-1.64974966	-0.5015636563	 1.4995006534	 0.085613
H	-0.3833561141	-0.5823354312	-2.2695327136	 0.085612
H	 0.3205491346	-3.0821369582	-1.3361292954	 0.116448
H	-0.5575818719	-3.0261444989	 1.2772484049	 0.116448
73.3465	171.2932	221.4918	323.7719	409.1729	537.6441	540.8718	620.9348	726.4015	759.0853	821.9501	856.3921	868.4729	869.1167	907.1891	912.5889	936.8928	964.6974	973.4644	1001.3116	1026.9175	1104.1083	1136.3946	1139.4297	1150.2644	1157.9806	1198.9502	1202.4093	1227.7421	1283.2379	1301.6532	1302.4075	1308.4791	1387.2716	1503.4001	1528.3365	1611.2006	3004.9584	3016.9656	3050.9547	3054.157	3131.7674	3135.0828	3235.2721	3262.1077
C1OCC11C2OC1C=C2	C1OCC21[C@H]1O[C@@H]2C=C1	
InChI=1S/C7H8O2/c1-2-6-7(3-8-4-7)5(1)9-6/h1-2,5-6H,3-4H2	InChI=1S/C7H8O2/c1-2-6-7(3-8-4-7)5(1)9-6/h1-2,5-6H,3-4H2/t5-,6+
