14
gdb 126456	4.55383	0.97014	0.8375	3.4985	71.76	-0.3089	-0.0875	0.2214	1324.6747	0.101156	-432.881302	-432.873274	-432.87233	-432.914784	28.064	
C	-0.0588450204	 1.5471929899	-0.1158028619	-0.384363
C	-0.0191997975	 0.0280393151	 0.1149883612	-0.302409
C	-1.3788987271	-0.5865534952	 0.0807904031	 0.354336
N	-1.9097657383	-1.2016270194	 1.1095296937	-0.142307
O	-3.1639785165	-1.6081025139	 0.6578719588	-0.187179
C	-3.2469139093	-1.1839306789	-0.6107863719	 0.33807
N	-2.1957718398	-0.5517864386	-1.0321567483	-0.328966
C	-4.4405780772	-1.4660647503	-1.3322896961	 0.271278
N	-5.4119670937	-1.697406633	-1.9138546741	-0.303709
H	 0.9560543983	 1.952893451	-0.121464239	 0.12848
H	-0.5294726468	 1.7821812634	-1.0738560021	 0.146863
H	-0.6228318085	 2.0496072631	 0.6753657767	 0.132923
H	 0.5866227051	-0.4476886931	-0.6645304646	 0.13795
H	 0.4382788617	-0.2103595801	 1.0786054445	 0.139033
57.5014	109.9923	147.0753	204.1372	219.719	341.8969	404.5501	492.8945	552.3483	565.5769	690.3292	736.6707	771.8769	805.9641	929.3798	975.0571	1020.2288	1057.2903	1081.5533	1103.8715	1268.0335	1286.0933	1344.1015	1376.0231	1412.3624	1474.601	1497.3988	1504.0574	1539.0027	1600.6107	2371.2021	3048.2097	3051.6531	3104.05	3124.1693	3132.9367
CCC1=NOC(=N1)C#N	CCc1noc(n1)C#N	
InChI=1S/C5H5N3O/c1-2-4-7-5(3-6)9-8-4/h2H2,1H3	InChI=1S/C5H5N3O/c1-2-4-7-5(3-6)9-8-4/h2H2,1H3
