17
gdb 70591	2.61282	1.7826	1.42697	2.9119	67.11	-0.2486	0.0632	0.3118	949.6027	0.135985	-458.917048	-458.909673	-458.908729	-458.948434	29.637	
O	-0.0311708916	 1.3659778359	 0.0255916567	-0.454837
C	 0.0156626802	-0.0335090605	 0.030532388	 0.33044
C	-0.275186707	-0.6951842681	 1.3444253924	-0.328574
C	 1.1258686304	-0.7317850939	 0.7781747453	 0.006778
O	 1.5860975531	-1.9604096429	 0.2952326593	-0.247077
C	 1.755423382	-2.0385460808	-1.1093837769	-0.113021
C	 0.4975546017	-1.6657107615	-1.8715812924	 0.033298
O	-0.7369202872	-2.057834626	-1.267568209	-0.243042
C	-0.4004317271	-0.6691280212	-1.2718897701	-0.038834
H	 0.6819719492	 1.6915163584	-0.5355904107	 0.283125
H	-0.4596709988	-0.0362015915	 2.1846715202	 0.12311
H	-0.8292401664	-1.6256132889	 1.3203749326	 0.143798
H	 1.8891932294	-0.1127280353	 1.2474643482	 0.093515
H	 2.5808355953	-1.3946412512	-1.4595591711	 0.090779
H	 2.0342239614	-3.077330191	-1.3121582864	 0.124758
H	 0.5477787052	-1.7828840802	-2.9542808157	 0.096734
H	-1.0314337998	-0.0382195214	-1.8970478704	 0.099049
162.383	196.4085	282.4171	310.6285	338.5172	362.5961	444.5605	481.4473	509.2671	542.9788	676.4393	783.1686	793.1767	852.4398	884.0457	921.5599	947.453	968.6322	992.2058	1018.6483	1051.7374	1072.0585	1097.4079	1114.2501	1140.3844	1189.5068	1230.8633	1255.5334	1281.6245	1299.6973	1319.5138	1371.3551	1387.0039	1409.5454	1461.8069	1474.458	1491.8649	2960.7086	3079.4541	3109.9039	3114.4013	3122.9658	3148.1325	3249.569	3787.8161
OC12CC1OCC1OC21	O[C@]12C[C@H]1OC[C@H]1O[C@@H]21	
InChI=1S/C6H8O3/c7-6-1-4(6)8-2-3-5(6)9-3/h3-5,7H,1-2H2	InChI=1S/C6H8O3/c7-6-1-4(6)8-2-3-5(6)9-3/h3-5,7H,1-2H2/t3-,4-,5-,6-/m1/s1
