22
gdb 113849	3.79183	0.86087	0.76035	2.8525	83.32	-0.2303	0.0779	0.3082	1565.5598	0.193576	-404.292214	-404.282621	-404.281677	-404.328061	34.601	
C	 0.1736753782	 0.5139425519	-1.8625685857	-0.381258
C	-0.3433195905	 0.843920151	-0.4568327972	-0.204022
C	-1.5708134801	 0.0233514359	-0.1090236481	 0.029904
C	-1.4584356256	-1.2906079253	 0.5854430253	-0.258542
N	-2.0867725658	-0.1505142301	 1.2543724714	-0.10006
C	-1.3904517728	 0.439125466	 2.3769791764	 0.010378
C	-1.8839449234	 1.8381860564	 2.8033276452	-0.081444
O	-2.1958320183	 1.3722720122	 4.1316646001	-0.273314
C	-1.9149911549	 0.00537115	 3.7640187029	-0.08489
H	 1.0404987918	 1.130286133	-2.1185571428	 0.115926
H	 0.4718546494	-0.5369661106	-1.9355209087	 0.121212
H	-0.5977769956	 0.6928204507	-2.6193354321	 0.119756
H	 0.4543533973	 0.6717889586	 0.2726423332	 0.101907
H	-0.592653979	 1.9118995101	-0.401699131	 0.105139
H	-2.3765438219	 0.1316279723	-0.8356474704	 0.089984
H	-2.114995076	-2.1206617428	 0.33865363	 0.115313
H	-0.4623909813	-1.5848632517	 0.9171857673	 0.105384
H	-0.2960102303	 0.3747931005	 2.307559049	 0.065415
H	-1.1417545715	 2.6450092632	 2.8135684241	 0.097117
H	-2.7775334813	 2.1653402855	 2.2568730419	 0.103597
H	-2.8243153047	-0.6056349253	 3.7081278054	 0.105616
H	-1.1941928537	-0.4625832215	 4.4445013336	 0.096881
39.6338	65.2187	83.6776	137.2601	187.6566	231.6864	285.9697	337.961	376.8038	450.1221	570.8603	681.1816	770.5523	808.2973	848.2	886.7405	910.995	935.4406	958.7134	989.1419	1024.6366	1036.9177	1044.9322	1078.3903	1091.4185	1114.5245	1119.6903	1151.2732	1162.4396	1168.6164	1190.5124	1207.3465	1267.9851	1289.3745	1307.4037	1329.9778	1345.1231	1357.4647	1401.6498	1409.5409	1427.4049	1485.9098	1497.7184	1501.7528	1507.4189	1509.6237	1529.0268	2994.1693	3010.3911	3021.4165	3022.9412	3034.5853	3063.2047	3068.0359	3070.924	3083.5169	3096.6915	3107.2924	3109.5499	3173.0582
CCC1CN1C1COC1	CC[C@H]1CN1C1COC1	
InChI=1S/C7H13NO/c1-2-6-3-8(6)7-4-9-5-7/h6-7H,2-5H2,1H3	InChI=1S/C7H13NO/c1-2-6-3-8(6)7-4-9-5-7/h6-7H,2-5H2,1H3/t6-,8?/m0/s1
