17
gdb 25923	2.69292	1.62179	1.02501	3.1339	76.43	-0.233	-0.0395	0.1935	1128.9407	0.136138	-418.083545	-418.075087	-418.074142	-418.116783	31.186	
C	-0.0362607823	 1.5350036381	-0.0257326451	-0.502094
C	 0.0793606617	 0.0253232159	-0.0195475637	 0.416041
O	 1.1400230686	-0.5508191016	-0.0366474646	-0.315327
N	-1.1394935514	-0.6838804897	 0.0075011346	-0.12533
C	-2.4287406442	-0.1424576126	 0.0272626246	-0.114777
C	-3.2742273798	-1.2019553804	 0.0494517918	-0.100167
N	-2.5692468623	-2.393997894	 0.0447646998	-0.301269
C	-1.3025821505	-2.0763576673	 0.0197202836	 0.360448
C	-0.1861962184	-3.0624919491	 0.0062575425	-0.469506
H	 0.9718681826	 1.9470656972	-0.0438284159	 0.156685
H	-0.5887611065	 1.8835963204	-0.9035548607	 0.154923
H	-0.5616166453	 1.8936281947	 0.8645348836	 0.154799
H	-2.6027370246	 0.918354244	 0.0230610678	 0.135482
H	-4.3532725033	-1.190564641	 0.068782183	 0.117773
H	 0.4414497871	-2.9508198013	-0.8819623861	 0.145857
H	 0.4739421684	-2.9379736002	 0.8688535547	 0.145795
H	-0.6287426899	-4.0595859432	 0.0218011502	 0.140668
67.5915	142.0625	184.6985	207.6903	228.4824	271.692	338.3116	423.7099	509.0535	577.0646	636.9193	647.0103	688.6456	707.8765	731.1459	871.9911	911.7894	959.2774	1003.2632	1056.2579	1065.9382	1072.808	1143.3354	1168.3398	1221.5073	1307.4354	1327.5468	1387.9575	1407.1443	1423.7311	1464.3944	1472.3211	1474.2098	1481.2386	1551.6237	1599.9153	1813.5418	3050.6984	3054.9363	3113.109	3116.7872	3151.1286	3167.2184	3253.2954	3302.8675
CC(=O)N1C=CN=C1C	CC(=O)n1ccnc1C	
InChI=1S/C6H8N2O/c1-5-7-3-4-8(5)6(2)9/h3-4H,1-2H3	InChI=1S/C6H8N2O/c1-5-7-3-4-8(5)6(2)9/h3-4H,1-2H3
