18
gdb 18357	3.3705	2.1297	1.58123	1.3674	73.95	-0.2319	0.0152	0.2471	853.29	0.15544	-347.784399	-347.777483	-347.776539	-347.815191	27.867	
O	 0.1315173343	 1.4124531691	-0.0164444183	-0.427767
C	 0.0741030392	-0.0042967233	-0.0214714784	 0.092807
C	 0.5822731843	-0.5948955687	 1.3369977552	-0.269449
C	-0.6889668164	-0.6536899614	 2.1857287776	-0.264958
C	-1.7376659714	-0.7163170361	 1.3688454669	 0.318028
C	-3.1804283867	-0.3183362614	 1.1504389217	-0.324335
C	-2.685074526	 0.2884544431	-0.2182523393	-0.248922
C	-1.374252142	-0.5604843738	-0.0824351488	-0.046927
H	-0.3019716864	 1.7119381473	 0.7915119749	 0.278328
H	 0.6917164182	-0.3118988516	-0.8697045092	 0.079848
H	 1.0345044965	-1.5862894653	 1.1943810798	 0.105997
H	 1.358824703	 0.0499727223	 1.7625265325	 0.105793
H	-0.6915561324	-0.576410152	 3.2668423058	 0.091593
H	-3.8464623094	-1.1725919775	 0.9883391738	 0.113718
H	-3.6433275268	 0.3505846406	 1.8807117224	 0.109196
H	-3.3111594612	 0.100744013	-1.0929526418	 0.102074
H	-2.4788328707	 1.3582429853	-0.145586757	 0.110465
H	-1.426149316	-1.4842394496	-0.6705868278	 0.074511
117.0538	225.471	256.8417	339.5956	383.5938	405.4951	500.0882	647.1091	677.3845	728.0427	776.3414	816.4609	826.1472	854.8476	898.6954	927.4276	937.9165	975.2652	989.9226	1038.1235	1085.8603	1087.2386	1123.87	1163.2296	1184.9229	1203.509	1222.4634	1230.4056	1252.4949	1278.7237	1290.7127	1319.4976	1341.7799	1431.6072	1475.696	1477.2278	1490.4845	1723.3004	3010.9738	3034.3441	3045.3563	3070.2383	3072.5132	3080.2541	3096.7701	3133.7307	3196.3348	3784.9777
OC1CC=C2CCC12	O[C@H]1C[CH][C]2CC[C@@H]12	
InChI=1S/C7H10O/c8-7-4-2-5-1-3-6(5)7/h2,6-8H,1,3-4H2	InChI=1S/C7H10O/c8-7-4-2-5-1-3-6(5)7/h2,6-8H,1,3-4H2/t6-,7+/m1/s1
