20
gdb 118928	2.44464	1.177	1.06487	2.5539	76.61	-0.2294	0.0291	0.2585	1278.5476	0.168958	-440.303752	-440.293728	-440.292784	-440.339143	35.915	
C	 0.1536727957	 1.5226771718	-0.0360044001	-0.382397
C	 0.0000798287	 0.0125057422	 0.0199603026	-0.0656
O	 0.4684260484	-0.5146582042	-1.223423436	-0.301963
C	 0.6294024734	-1.911752626	-1.2774365566	 0.27105
C	-0.6707163019	-2.6928505026	-1.1340089616	-0.460668
C	 1.5232426047	-2.2917726654	-2.4995479219	-0.206949
N	 2.4977034149	-2.8252178902	-1.5421084056	-0.329627
C	 1.8227256705	-2.4510175657	-0.4105001896	 0.390444
O	 2.0830548704	-2.5101245854	 0.7637507527	-0.373306
H	 1.204656879	 1.7989153203	-0.1586880611	 0.126186
H	-0.4103444743	 1.9363049388	-0.8772321731	 0.122991
H	-0.2196466512	 1.975072732	 0.8876313826	 0.116239
H	 0.578968128	-0.4125842604	 0.8485932262	 0.13024
H	-1.0555366187	-0.255864179	 0.1734489419	 0.090258
H	-1.4119768613	-2.3261992892	-1.8513120555	 0.125481
H	-0.500319906	-3.757812046	-1.3173726215	 0.125268
H	-1.0801165959	-2.5928152824	-0.125328988	 0.138088
H	 1.1065667223	-3.0387282005	-3.181745969	 0.109377
H	 1.8664790803	-1.4143714277	-3.0534991468	 0.123707
H	 3.4318956728	-3.1858523804	-1.6686865295	 0.251182
50.4114	90.6044	111.489	173.306	194.9576	225.1416	246.5122	293.5044	328.459	358.2708	417.0313	494.4242	554.7733	715.771	748.0612	768.2166	824.2548	875.5664	891.108	954.243	984.4278	999.4327	1085.4677	1121.3993	1152.2166	1155.2629	1181.4548	1189.0989	1227.5341	1254.8885	1299.1277	1305.052	1389.3695	1401.029	1404.2011	1429.1167	1483.3342	1483.717	1495.1736	1501.522	1519.3958	1530.4449	1879.7325	2994.2631	3039.9625	3043.8115	3049.4981	3058.3008	3106.8993	3114.3747	3118.3086	3120.1961	3121.9872	3607.9511
CCOC1(C)CNC1=O	CCO[C@@]1(C)CNC1=O	
InChI=1S/C6H11NO2/c1-3-9-6(2)4-7-5(6)8/h3-4H2,1-2H3,(H,7,8)	InChI=1S/C6H11NO2/c1-3-9-6(2)4-7-5(6)8/h3-4H2,1-2H3,(H,7,8)/t6-/m0/s1
