17
gdb 74499	3.49254	1.20917	1.02282	5.3598	79.94	-0.2421	-0.0101	0.232	1186.0208	0.136381	-380.870411	-380.862378	-380.861433	-380.902868	30.615	
C	 0.0096595118	 1.4875978908	 0.0553339952	-0.491937
C	-0.0054961767	-0.0044721582	-0.0209801295	 0.302581
C	 0.0133157428	-0.7760554313	-1.1098975363	-0.25568
C	 0.0529416713	-2.2200388225	-0.7245162539	 0.175082
C	 1.2580043489	-2.6419231583	 0.0654963923	-0.261258
N	 0.0312214794	-2.2805324463	 0.7662332065	-0.130487
C	-0.0368137671	-0.8745359647	 1.2228601787	-0.258694
C	-0.719299869	-3.1835384927	-1.471494641	 0.223
N	-1.3186218388	-3.942487308	-2.1049680907	-0.338762
H	 0.9084323299	 1.8491890054	 0.5701547138	 0.134477
H	-0.0183419999	 1.9421234291	-0.9378033045	 0.135521
H	-0.8491677309	 1.8592583693	 0.6279574032	 0.136676
H	 0.0115384334	-0.4462174988	-2.140464999	 0.118774
H	 1.5176598801	-3.694501441	 0.1324268593	 0.138814
H	 2.0950351088	-1.9467040696	 0.0597908635	 0.122891
H	 0.7943946069	-0.6647720622	 1.9080539296	 0.122053
H	-0.963872951	-0.7271274611	 1.7923126928	 0.126948
116.4942	150.1168	179.8379	196.4609	310.8895	359.9017	411.9899	475.4929	498.9306	551.3367	593.0185	623.794	757.8765	819.0077	845.1322	876.6807	903.4417	949.6992	978.3372	1017.5877	1038.7401	1087.8542	1125.5425	1150.3857	1166.4753	1215.8246	1243.3577	1309.135	1331.276	1347.7961	1416.2014	1479.4463	1481.7	1486.1565	1495.7996	1711.563	2358.0214	3016.6841	3023.9978	3051.0636	3070.5268	3099.4916	3120.6821	3197.3017	3223.305
CC1=CC2(CN2C1)C#N	CC1=C[C@]2(CN2C1)C#N	
InChI=1S/C7H8N2/c1-6-2-7(4-8)5-9(7)3-6/h2H,3,5H2,1H3	InChI=1S/C7H8N2/c1-6-2-7(4-8)5-9(7)3-6/h2H,3,5H2,1H3/t7-,9?/m1/s1
