20
gdb 91296	2.47804	1.54857	1.13657	4.1283	82.2	-0.2848	0.0284	0.3131	1126.9282	0.172248	-366.004754	-365.996374	-365.99543	-366.038333	32.157	
C	 0.3467231431	 1.4032104542	-0.5887156395	-0.410307
C	-0.0114952724	 0.052971787	 0.0173837664	 0.034374
C	 0.3041241242	-1.2306979955	-0.8196129429	-0.253159
C	 1.1324503051	-1.7981653598	 0.3563461232	-0.008357
C	 2.6285377018	-1.3730572062	 0.353771395	-0.255674
C	 2.3076371341	-0.2658021956	 1.4125028926	-0.131053
C	 2.8779625375	 1.0626767223	 1.2526566029	 0.271452
N	 3.3547754351	 2.1100981316	 1.1351891823	-0.341396
C	 0.7817171604	-0.5408296013	 1.2310545198	-0.071144
H	 1.3795832771	 1.4394240217	-0.9452217692	 0.131044
H	-0.3045069653	 1.6063127654	-1.4462838539	 0.111842
H	 0.2190012864	 2.2185052048	 0.1301207782	 0.127989
H	-1.0709665456	 0.0685325603	 0.292343779	 0.082091
H	-0.5818684156	-1.8193643239	-1.0699258063	 0.102265
H	 0.8717475387	-1.0631459755	-1.7406562326	 0.099031
H	 0.9266518019	-2.8168981863	 0.6850211416	 0.071823
H	 3.3450923958	-2.1196007511	 0.700562903	 0.116488
H	 2.9737118749	-0.9818113883	-0.6059612562	 0.119616
H	 2.5981487845	-0.6201878587	 2.4066497451	 0.127414
H	 0.2215650484	-0.5908354351	 2.1654053716	 0.075662
32.7518	130.7344	187.6436	246.3616	268.4691	321.6862	380.1719	428.8535	522.5948	557.1572	633.1926	692.6594	745.7276	811.752	845.949	871.4388	898.5473	921.9144	966.9482	1003.5726	1015.3794	1060.8913	1063.0517	1115.0534	1122.1248	1146.4694	1159.458	1193.393	1226.3936	1230.5106	1256.9078	1280.6973	1294.9674	1297.9425	1331.573	1343.9792	1368.2585	1418.2493	1479.986	1489.7993	1496.2754	1500.3879	2346.7689	3034.8124	3043.3666	3048.2501	3056.1776	3070.3194	3094.5402	3098.5215	3099.3761	3109.1184	3118.3897	3128.6637
CC1CC2CC(C#N)C12	C[C@H]1C[C@H]2C[C@@H](C#N)[C@@H]12	
InChI=1S/C8H11N/c1-5-2-6-3-7(4-9)8(5)6/h5-8H,2-3H2,1H3	InChI=1S/C8H11N/c1-5-2-6-3-7(4-9)8(5)6/h5-8H,2-3H2,1H3/t5-,6-,7-,8-/m0/s1
