16
gdb 9298	3.53316	1.15886	0.92349	1.8828	69.63	-0.2674	0.0023	0.2697	1247.6632	0.128396	-379.928964	-379.91963	-379.918686	-379.963988	31.102	
C	 0.2146321474	 0.9843065324	 0.4878371602	-0.255742
O	-0.5234390546	 0.2543664901	-0.4906786797	-0.194395
C	-1.2203797137	-0.7928502243	-0.0271480417	 0.137512
N	-1.8995804427	-1.4946202899	-0.8264898805	-0.242093
C	-2.6508251206	-2.6413704528	-0.3454592387	-0.063708
C	-2.2134676687	-3.9056998774	-1.107623493	-0.374423
C	-2.5747539732	-2.8718781949	 1.1146620433	 0.244212
N	-2.4828471276	-3.0162943729	 2.2582899565	-0.333378
H	 0.714934457	 1.7908469523	-0.0484364249	 0.150746
H	-0.4474880459	 1.4125669633	 1.2489137109	 0.136333
H	 0.9667393869	 0.3519084752	 0.9731160935	 0.135811
H	-1.141803865	-0.9602860018	 1.0553076854	 0.110679
H	-3.7082628721	-2.4563439284	-0.5770639791	 0.138481
H	-2.3049397451	-3.7158805823	-2.1789180465	 0.141609
H	-1.1707443894	-4.1426238565	-0.882315551	 0.136621
H	-2.8376973128	-4.760172252	-0.8341702048	 0.131737
44.9652	82.863	115.0909	153.9004	195.5849	219.9552	229.1664	280.3438	392.1025	435.2293	512.9106	572.6821	671.3061	800.9762	933.0804	1007.9851	1049.6803	1061.1212	1099.4368	1134.5989	1176.4513	1185.5699	1288.8753	1316.8414	1339.9028	1403.7527	1425.6878	1484.7103	1487.6756	1494.9729	1495.2498	1499.3057	1766.9856	2343.726	3021.3499	3021.769	3039.6225	3053.8311	3090.6839	3133.8566	3143.4945	3151.9436
COC=NC(C)C#N	COC=N[C@@H](C)C#N	
InChI=1S/C5H8N2O/c1-5(3-6)7-4-8-2/h4-5H,1-2H3	InChI=1S/C5H8N2O/c1-5(3-6)7-4-8-2/h4-5H,1-2H3/t5-/m0/s1
