18
gdb 14325	3.82612	1.7757	1.53575	2.8858	70.39	-0.2355	-0.0135	0.222	884.2096	0.155311	-347.830013	-347.823028	-347.822084	-347.861999	27.008	
O	-0.3424939414	 0.0169800228	 0.2882532877	-0.306282
C	-0.1969701045	 1.196812256	 0.102380169	 0.38526
C	-1.2818365957	 2.1780898916	-0.3596820231	-0.330851
C	-0.8177140355	 3.5415059331	 0.1426376135	-0.005196
C	-1.0243762755	 3.8293994255	 1.6600545386	-0.229229
C	 0.5096402703	 4.0017899871	 1.8365415966	-0.21953
C	 0.7396374783	 3.4612511176	 0.3970749956	-0.02148
C	 1.1146734746	 1.9763276454	 0.2846472786	-0.328709
H	-1.3057857696	 2.1435806219	-1.4579694816	 0.123113
H	-2.2664761292	 1.8644003085	-0.0034325465	 0.125397
H	-1.1324968855	 4.3667428831	-0.4977770616	 0.070057
H	-1.6401888972	 4.6980204862	 1.9035837661	 0.102528
H	-1.4298047521	 2.9686925908	 2.2011932129	 0.106152
H	 0.8094823986	 5.0475183173	 1.9413588022	 0.102826
H	 0.9764380415	 3.4320780604	 2.6451408295	 0.099989
H	 1.3695720645	 4.0893113167	-0.2351193817	 0.069896
H	 1.6701304539	 1.5819626561	 1.1402778758	 0.12729
H	 1.7294129545	 1.78243951	-0.6035219016	 0.128768
45.9034	82.8503	332.0382	344.3089	439.6841	463.3764	581.593	630.6167	708.3115	735.4995	773.6685	793.3425	834.5305	886.0782	895.3423	953.8612	980.052	988.325	1049.2173	1082.336	1122.5857	1132.2155	1167.9645	1170.258	1218.1317	1231.2156	1257.3116	1264.8027	1275.1467	1286.3597	1303.0542	1340.799	1347.175	1443.4286	1451.6283	1480.5927	1497.8355	1844.2952	3020.2675	3034.7609	3049.9531	3055.6606	3078.0415	3090.6613	3094.006	3098.2597	3100.5318	3115.9473
O=C1CC2CCC2C1	O=C1C[C@H]2CC[C@H]2C1	
InChI=1S/C7H10O/c8-7-3-5-1-2-6(5)4-7/h5-6H,1-4H2	InChI=1S/C7H10O/c8-7-3-5-1-2-6(5)4-7/h5-6H,1-4H2/t5-,6+
