17
gdb 32580	2.03555	1.85831	1.04835	1.8798	70.09	-0.1814	0.0597	0.241	1125.3858	0.136046	-455.184024	-455.174877	-455.173933	-455.218712	33.095	
C	-0.0757808361	 1.6069750388	-0.0603442873	-0.379299
C	-0.0446109225	 0.079581447	 0.0216209862	-0.157377
N	 0.6799182388	-0.4118856347	 1.1851527772	-0.105945
C	 2.0523690728	-0.5666532624	 1.3133853221	 0.323899
O	 2.8167659626	-0.2479210137	 0.2358976492	-0.445283
C	 2.2885104321	-1.0308814012	 2.571020687	-0.235155
N	 1.0746952911	-1.1696569112	 3.2510750007	-0.37351
C	 0.1734436278	-0.7909839224	 2.3970481397	 0.432547
O	-1.1613364188	-0.7441448158	 2.5893636554	-0.434185
H	 0.938154354	 2.0103298153	-0.1278810706	 0.137376
H	-0.6322667442	 1.9246061248	-0.9476060062	 0.118739
H	-0.5620938419	 2.03272662	 0.8219087391	 0.132975
H	-1.0572537723	-0.325706761	 0.0821014268	 0.136092
H	 0.4325894625	-0.3404528398	-0.8682906903	 0.13014
H	 3.7318432037	-0.4619490835	 0.4413520331	 0.30979
H	 3.2303388566	-1.2745136849	 3.0360810224	 0.098015
H	-1.3091653162	-1.0723710055	 3.4850498256	 0.31118
27.3938	99.8019	183.6414	202.3005	208.3551	292.3491	315.0106	361.3486	390.9462	421.8495	547.0864	606.4928	645.708	714.7074	725.5302	736.1594	758.6699	797.713	972.9455	1007.8784	1103.5137	1117.8004	1153.2654	1196.3581	1239.8182	1276.7445	1296.6104	1346.6703	1391.5469	1410.3825	1471.5967	1487.0699	1492.3784	1504.943	1567.5578	1619.3616	1646.2838	3043.9237	3066.5818	3109.5949	3117.6793	3133.9505	3254.0862	3807.0824	3846.8168
CCN1C(O)=CN=C1O	CCn1c(O)cnc1O	
InChI=1S/C5H8N2O2/c1-2-7-4(8)3-6-5(7)9/h3,8H,2H2,1H3,(H,6,9)	InChI=1S/C5H8N2O2/c1-2-7-4(8)3-6-5(7)9/h3,8H,2H2,1H3,(H,6,9)
