17
gdb 30755	3.04952	1.27156	0.9514	1.9141	72.9	-0.1712	0.0501	0.2213	1221.6426	0.135206	-455.14646	-455.13669	-455.135746	-455.181175	35.121	
C	-0.6009627536	 0.9822628093	-0.0562011643	-0.250265
O	 0.5813089136	 0.1889966572	 0.0980186497	-0.278313
C	 0.9359611451	-0.5125180491	-1.0118145668	 0.224276
C	 0.7128479044	-1.8335757854	-1.3046075871	 0.182833
O	 0.0038436869	-2.760035127	-0.5858510938	-0.473028
C	 1.3438756632	-2.1191822182	-2.5527509613	 0.193978
N	 1.2449970594	-3.3558326416	-3.216492533	-0.615226
C	 1.9381496297	-0.9517352964	-2.976038984	-0.176116
N	 1.6530708785	 0.0449252946	-2.0499726917	-0.323646
H	-0.46220891	 1.7523438196	-0.8241848439	 0.120599
H	-1.4590956333	 0.358197018	-0.3322480036	 0.12577
H	-0.7860428663	 1.4601399669	 0.9084201368	 0.127826
H	-0.1200474126	-2.4059929072	 0.3016060476	 0.296184
H	 1.0565472209	-4.1034034305	-2.5596248303	 0.247876
H	 2.0777830531	-3.582342163	-3.7453798261	 0.237053
H	 2.5022204384	-0.7377488343	-3.8684256729	 0.104448
H	 2.2020748025	 0.8803201572	-1.9388753954	 0.25575
48.9046	121.7855	146.7927	181.0183	232.2517	239.8294	263.5206	302.7352	323.9287	380.7722	428.6994	551.94	567.5353	609.6567	656.8888	695.3165	747.1288	761.4893	794.9085	981.3121	1054.2924	1092.2743	1122.7909	1173.2605	1207.3483	1227.673	1278.1658	1298.9425	1359.4759	1447.6954	1467.8969	1484.5498	1503.1242	1527.1686	1610.4124	1647.7273	1693.1145	3014.4295	3081.154	3127.3745	3268.5893	3527.124	3617.94	3667.1679	3812.3447
COC1=C(O)C(N)=CN1	COc1c(O)c(N)c[nH]1	
InChI=1S/C5H8N2O2/c1-9-5-4(8)3(6)2-7-5/h2,7-8H,6H2,1H3	InChI=1S/C5H8N2O2/c1-9-5-4(8)3(6)2-7-5/h2,7-8H,6H2,1H3
