20
gdb 53290	2.65755	0.96188	0.77296	1.4914	90.48	-0.2208	0.0423	0.2632	1547.6516	0.169201	-365.941483	-365.931707	-365.930763	-365.977812	35.018	
C	 0.2739340193	 1.5628320817	 0.0639281376	-0.498984
C	 0.1552723839	 0.1122501895	 0.0501873858	 0.041792
C	 0.0615466308	-1.0895512375	 0.0462916689	 0.111796
C	-0.0279026272	-2.5233880229	-0.0072580095	-0.1809
C	-0.5066384481	-3.2973738744	 1.1877478677	-0.245404
N	-1.3291609926	-3.2270540309	-0.0078089984	-0.095839
C	-2.5310097189	-2.440628173	 0.0595849734	 0.087824
C	-3.3953101105	-2.4119359839	-1.1696483475	-0.272524
C	-3.8306111989	-3.1983491373	 0.0452333156	-0.281893
H	 1.3218339263	 1.8727134676	-0.0163383204	 0.150801
H	-0.2698971785	 2.0176585197	-0.7716084448	 0.149297
H	-0.125606429	 1.9878008288	 0.9914410309	 0.148018
H	 0.7056851069	-2.9990828952	-0.6547194293	 0.110301
H	-0.0700994839	-4.2668309693	 1.4140896964	 0.115873
H	-0.8081021277	-2.711566188	 2.0539657249	 0.116896
H	-2.4873725756	-1.5302426771	 0.6577914703	 0.084865
H	-3.9140567418	-1.4908273987	-1.4098691766	 0.109668
H	-3.0418794255	-2.9755709737	-2.0250639916	 0.119923
H	-3.7652711588	-4.2786012121	-0.0120637233	 0.119617
H	-4.6504792602	-2.8204533933	 0.6458599	 0.108873
32.7203	51.3457	81.1385	129.3859	198.4737	239.1248	304.6761	314.9231	385.631	446.0098	518.243	590.5753	700.4248	724.4459	782.3961	824.7628	873.44	906.148	958.4372	983.1987	1017.1083	1051.7454	1053.0997	1056.6159	1071.5027	1073.2752	1114.6519	1123.8419	1127.4752	1174.0942	1195.6145	1212.8524	1230.3277	1322.8139	1379.1611	1398.7043	1414.6149	1456.1169	1476.4165	1479.2292	1494.3031	1503.5537	2363.6944	3025.8216	3085.5322	3087.6774	3093.7651	3096.5008	3123.0245	3137.6758	3142.6225	3183.8465	3222.1041	3235.935
CC#CC1CN1C1CC1	CC#C[C@H]1CN1C1CC1	
InChI=1S/C8H11N/c1-2-3-8-6-9(8)7-4-5-7/h7-8H,4-6H2,1H3	InChI=1S/C8H11N/c1-2-3-8-6-9(8)7-4-5-7/h7-8H,4-6H2,1H3/t8-,9?/m0/s1
