25
gdb 103747	2.94609	0.98856	0.86505	1.3495	89.83	-0.255	0.0743	0.3293	1488.7679	0.226095	-389.48145	-389.469974	-389.46903	-389.517816	42.351	
C	 0.0388838694	 1.4553210683	-0.4692644992	-0.378161
C	-0.0707615761	 0.10344203	 0.2504568005	-0.242456
C	-1.4657424766	-0.519853496	 0.2042989578	 0.297377
C	-2.4881173339	 0.2836808504	 0.9975638292	-0.466458
C	-1.9139925151	-1.1776467373	-1.0843913865	-0.357713
C	-1.5914012427	-2.0435786356	 0.115598223	 0.307505
C	-0.3532390164	-2.9287950556	 0.0715587223	-0.468876
C	-2.742696368	-2.7442606472	 0.8112468042	-0.149821
O	-3.0715745953	-3.9102441586	 0.0577658343	-0.419993
H	 1.0715968135	 1.8178171802	-0.451696121	 0.108855
H	-0.26812761	 1.3668782605	-1.5168100966	 0.117117
H	-0.5840168078	 2.2254652029	-0.004827726	 0.115901
H	 0.6594702248	-0.5779683407	-0.1919759256	 0.095748
H	 0.2297611921	 0.2265025444	 1.3003151669	 0.090187
H	-2.4818833556	 1.3318612574	 0.6815006204	 0.117107
H	-3.5097482419	-0.0757878421	 0.8623444712	 0.115197
H	-2.2636898529	 0.2656438829	 2.071302658	 0.110382
H	-2.9540499347	-1.0775482728	-1.3793473398	 0.104619
H	-1.2218717562	-1.2000358589	-1.9209738304	 0.102004
H	 0.3987935166	-2.5721528492	-0.6346512292	 0.112797
H	 0.1201878346	-3.0056722456	 1.0583918441	 0.105276
H	-0.6464450176	-3.9349243479	-0.2394059211	 0.136749
H	-2.4392967914	-3.0187279689	 1.8355439825	 0.081136
H	-3.6183274155	-2.0896189013	 0.893089595	 0.081258
H	-3.7127594533	-4.4179567393	 0.5634171064	 0.284264
58.7488	80.5646	126.315	145.8105	165.4377	220.5728	232.3162	239.948	289.4203	329.1243	339.3524	366.8578	383.3347	398.6282	440.4563	605.7238	681.4559	722.3517	784.7712	869.1821	908.8063	926.3319	945.1955	971.1881	994.0355	1014.8027	1045.0185	1058.7323	1068.2501	1071.4536	1108.7	1129.0736	1198.0781	1218.4493	1247.7649	1262.4057	1314.9042	1324.2488	1363.7502	1398.6062	1406.1939	1411.31	1418.6154	1456.1609	1474.9826	1488.2774	1490.5673	1494.2109	1499.3375	1508.2864	1513.2253	1516.0833	1519.8103	2961.2404	3014.0624	3027.2573	3029.353	3036.0791	3039.5224	3084.7683	3089.0983	3101.956	3102.1343	3112.6015	3115.8157	3125.1428	3129.7751	3198.0419	3830.0087
CCC1(C)CC1(C)CO	CC[C@@]1(C)C[C@]1(C)CO	
InChI=1S/C8H16O/c1-4-7(2)5-8(7,3)6-9/h9H,4-6H2,1-3H3	InChI=1S/C8H16O/c1-4-7(2)5-8(7,3)6-9/h9H,4-6H2,1-3H3/t7-,8+/m0/s1
