19
gdb 85523	2.49643	1.57812	1.08315	4.4301	75.1	-0.2566	0.013	0.2697	1133.4684	0.160271	-423.059307	-423.051295	-423.050351	-423.091809	31.312	
C	-0.0861737225	 1.5852362378	 0.0106234608	-0.394158
C	 0.0195093551	 0.0574829411	 0.0806308861	-0.002947
C	 0.5958230328	-0.5237206267	-1.2216844825	-0.367402
C	 0.9207506841	-2.0074704628	-1.1807148283	 0.405614
O	 0.789259409	-2.742423341	-2.1204910551	-0.323054
O	 1.426255591	-2.5081135209	-0.0224393162	-0.225409
C	 1.521207303	-1.7374476024	 1.1590753708	 0.116168
C	 2.3469261038	-0.4829122763	 1.2183335581	-0.326736
C	 0.828074762	-0.4165488194	 1.2746299136	-0.058065
H	 0.9052561697	 2.0397022279	-0.0923366388	 0.119335
H	-0.6934848566	 1.8992461419	-0.8445652817	 0.118884
H	-0.547414314	 1.9894372741	 0.917328228	 0.117116
H	-0.9942682414	-0.3490076977	 0.2021237136	 0.090791
H	-0.0878522065	-0.3751181289	-2.0596945336	 0.1369
H	 1.5238420334	 0.0008714099	-1.4849946972	 0.133702
H	 1.5404688061	-2.4153010123	 2.0038345306	 0.116373
H	 2.9082617841	-0.2873362242	 2.1250586045	 0.122298
H	 2.8477367144	-0.1656656441	 0.3107574836	 0.125023
H	 0.3898296623	-0.1845711959	 2.2412507836	 0.095566
99.9882	131.0011	224.9948	252.8229	287.2893	363.3272	412.21	474.8931	498.9412	548.4582	622.0438	684.9608	744.7999	810.2525	827.1958	889.9072	910.3277	939.5293	998.4046	1010.4494	1042.9461	1061.3982	1076.397	1111.6233	1128.1498	1164.2593	1179.0469	1193.4336	1249.9614	1264.9766	1303.5931	1356.0326	1368.4765	1391.0395	1411.5983	1419.1102	1469.9384	1490.0034	1497.3914	1499.9995	1846.6069	3005.2046	3030.7803	3035.6201	3102.0379	3104.1922	3116.4474	3141.4129	3145.3548	3184.5929	3227.2427
CC1CC(=O)OC2CC12	C[C@H]1CC(=O)O[C@H]2C[C@@H]12	
InChI=1S/C7H10O2/c1-4-2-7(8)9-6-3-5(4)6/h4-6H,2-3H2,1H3	InChI=1S/C7H10O2/c1-4-2-7(8)9-6-3-5(4)6/h4-6H,2-3H2,1H3/t4-,5-,6-/m0/s1
