18
gdb 72970	2.64026	1.50458	1.22672	5.3202	77.09	-0.2386	0.0275	0.2661	1071.2285	0.148219	-398.090998	-398.082326	-398.081382	-398.123694	33.423	
C	-0.0826771028	 1.5273106547	 0.0318511481	-0.515749
C	 0.0504615324	 0.0392417376	 0.1103322981	 0.326832
N	-1.111527466	-0.8544283824	-0.0902826718	-0.375265
C	-0.6079797893	-1.7449470812	 1.0118420605	-0.201578
C	 0.6773202547	-0.9273106064	 1.101782638	-0.179875
C	 1.2681923247	-0.7702889121	-0.3216066264	 0.121756
N	 1.1752199436	-1.7263406932	-1.386323464	-0.581098
C	 2.5101839	-0.0259067811	-0.308900518	 0.273679
N	 3.5044502535	 0.5648628779	-0.2730889062	-0.354061
H	 0.8821041447	 2.014286933	 0.1904012786	 0.160995
H	-0.4540825958	 1.8244971471	-0.9554975554	 0.140563
H	-0.7848234908	 1.8976534327	 0.7871280256	 0.121437
H	-1.9763114503	-0.3919573519	 0.1687382673	 0.230287
H	-1.2051308161	-1.6700230839	 1.9245639569	 0.119058
H	-0.5203603519	-2.7977789314	 0.7223848483	 0.106055
H	 1.2847327284	-0.7600866218	 1.9819470288	 0.115583
H	 1.5791543702	-2.6201025772	-1.1279631823	 0.236969
H	 0.1934450709	-1.8607088705	-1.6133227961	 0.254411
131.2245	153.775	199.9205	228.987	245.9328	304.6746	322.0849	349.762	454.7393	478.6209	549.5275	561.2035	669.4536	701.553	749.1499	786.4352	849.626	872.8687	949.2437	960.4274	969.7082	1001.2419	1050.6013	1068.7717	1122.18	1148.3517	1209.0645	1234.8467	1260.3833	1283.5284	1321.0201	1343.2883	1412.0376	1453.2416	1484.4993	1496.4364	1505.6229	1646.0608	2346.9814	3031.4556	3040.594	3091.5307	3094.8813	3130.0125	3195.8012	3488.4557	3534.2143	3576.6591
CC12NCC1C2(N)C#N	C[C@]12NC[C@H]1[C@]2(N)C#N	
InChI=1S/C6H9N3/c1-5-4(2-9-5)6(5,8)3-7/h4,9H,2,8H2,1H3	InChI=1S/C6H9N3/c1-5-4(2-9-5)6(5,8)3-7/h4,9H,2,8H2,1H3/t4-,5+,6-/m1/s1
