20
gdb 120834	2.4807	0.89479	0.73271	4.1197	76.67	-0.2464	0.0278	0.2742	1571.4888	0.169838	-440.287207	-440.277087	-440.276142	-440.323827	35.592	
O	-0.2717661968	 1.3685833134	-0.2890720425	-0.420518
C	-0.1499650215	-0.018816766	-0.0151454618	-0.070091
C	-1.4872535562	-0.6761489702	-0.3391888099	-0.195571
C	-1.4795611201	-2.1622699628	-0.0634312002	 0.009449
C	-1.7838652202	-2.6961392582	 1.3194667312	-0.340045
C	-2.7561169609	-2.9286643921	 0.1947939389	 0.028953
N	-4.0174191335	-2.2476272724	 0.2333526158	-0.278353
C	-4.7223939624	-1.9615812938	-0.8977911378	 0.151819
O	-4.3265077494	-2.1484847157	-2.0269310959	-0.318093
H	 0.5776726939	 1.7849935156	-0.1175507756	 0.285058
H	 0.6471392029	-0.4773607328	-0.6233194507	 0.08373
H	 0.1055622129	-0.1979035571	 1.042137182	 0.083206
H	-2.2679809994	-0.1849538456	 0.2508590535	 0.09956
H	-1.7287310256	-0.4940210526	-1.3921280357	 0.128361
H	-0.7405925405	-2.7221412059	-0.631246708	 0.090803
H	-1.2315161591	-3.5453722619	 1.7052613958	 0.11895
H	-2.0684079087	-1.9681997697	 2.0739308844	 0.113299
H	-2.8064606325	-3.9286523421	-0.2279467878	 0.108908
H	-4.4914402927	-2.1576216581	 1.1186337737	 0.248271
H	-5.7142082301	-1.5236422719	-0.6635348893	 0.072305
31.8566	76.1694	88.6304	118.7705	162.4714	232.4137	261.9899	285.4659	328.0447	388.8222	462.2747	492.3793	589.654	758.077	794.7785	827.6346	852.1467	875.959	945.2434	1013.3484	1032.5144	1048.0478	1053.1247	1080.7368	1086.5827	1135.4904	1147.6971	1178.8383	1204.0851	1237.7861	1245.2604	1275.3086	1306.3781	1322.2071	1394.4748	1422.988	1430.6126	1461.836	1486.3054	1495.6312	1503.3647	1527.8576	1811.6145	2926.5258	2959.006	2984.6513	3047.8911	3090.2888	3126.3294	3131.6766	3142.9354	3214.5366	3619.7993	3831.5777
OCCC1CC1NC=O	OCC[C@H]1C[C@H]1NC=O	
InChI=1S/C6H11NO2/c8-2-1-5-3-6(5)7-4-9/h4-6,8H,1-3H2,(H,7,9)	InChI=1S/C6H11NO2/c8-2-1-5-3-6(5)7-4-9/h4-6,8H,1-3H2,(H,7,9)/t5-,6+/m0/s1
