13
gdb 9021	4.5676	0.93015	0.79896	4.9254	77.78	-0.2834	-0.0447	0.2387	1340.6409	0.093524	-324.278258	-324.2698	-324.268856	-324.311601	29.535	
C	-0.0165246756	 1.5540047731	-0.001195391	-0.382512
C	-0.0181373407	 0.0035813293	 0.0520872665	-0.352415
C	 0.7275441047	-0.4986705237	 1.2100868755	 0.338643
C	 1.3515047985	-0.8864704422	 2.1593234468	-0.446269
C	-1.3852323608	-0.5213720666	 0.0422025522	 0.178822
C	-2.5187990411	-0.9362067106	 0.01978311	-0.009706
C	-3.8008386769	-1.4057415515	-0.0034645084	 0.21268
N	-4.8919996202	-1.8034433366	-0.0255269902	-0.33432
H	 1.013997522	 1.913997432	-0.0341916005	 0.140716
H	-0.5472264105	 1.8991243301	-0.8914705017	 0.137872
H	-0.5047266502	 1.9642286782	 0.8848750945	 0.148737
H	 0.4765541632	-0.3640024852	-0.8590052221	 0.156219
H	 1.8998053975	-1.2390991663	 2.9981369485	 0.211533
71.3769	102.4504	172.0311	211.3324	238.8863	242.918	354.7665	446.8448	505.1874	543.1151	577.462	593.5941	645.9754	663.5986	716.6035	856.7655	997.8496	1067.4842	1087.4883	1184.6561	1290.1791	1323.1579	1405.5404	1488.8503	1496.0966	2246.173	2268.2755	2405.1086	3003.11	3057.2032	3140.5731	3146.3353	3501.3727
CC(C#C)C#CC#N	C[C@@H](C#C)C#CC#N	
InChI=1S/C7H5N/c1-3-7(2)5-4-6-8/h1,7H,2H3	InChI=1S/C7H5N/c1-3-7(2)5-4-6-8/h1,7H,2H3/t7-/m0/s1
