21
gdb 102700	3.26915	0.68873	0.59616	2.1015	76.94	-0.2484	-0.0213	0.227	1831.7431	0.179068	-461.35542	-461.344346	-461.343402	-461.393259	37.721	
C	 0.7826508864	 1.016463222	 0.5851940227	-0.250531
O	 0.1283150322	-0.0922715886	-0.0064837417	-0.26711
C	 0.7146481121	-0.553416783	-1.2271384217	 0.096252
C	 1.3168032997	-1.9398720674	-0.9685890967	-0.069898
O	 2.187706909	-1.9331822463	 0.1444910062	-0.421721
C	-0.3553224837	-0.595549416	-2.3203236192	-0.209318
C	-0.9633222077	 0.7836939953	-2.6196247461	-0.279521
C	-2.1256187059	 0.6939370593	-3.579425128	 0.158816
O	-2.2245893722	 1.3102022605	-4.6088537138	-0.238357
H	 1.8336486286	 0.7939279509	 0.8118336261	 0.122087
H	 0.7452973614	 1.9054151709	-0.0605275631	 0.112907
H	 0.2544777765	 1.2384236019	 1.5163902662	 0.129095
H	 1.5222507297	 0.1308541473	-1.5227514123	 0.080067
H	 0.5000709995	-2.6670823866	-0.8324099352	 0.090469
H	 1.9068019927	-2.2589381939	-1.8339304278	 0.111871
H	 1.6464777938	-1.6657192392	 0.8959620627	 0.288845
H	 0.0849893277	-1.0186835134	-3.2315703662	 0.113274
H	-1.1484631502	-1.2833084227	-2.0000347815	 0.111862
H	-1.3436055449	 1.1965361869	-1.6751452114	 0.133183
H	-0.2234530609	 1.4771442289	-3.0304997036	 0.117354
H	-2.9251859236	-0.0165650167	-3.2596382958	 0.070372
51.0109	56.6512	78.0616	96.1301	129.9109	141.6842	186.8385	258.4596	292.1175	316.4763	359.1252	461.0306	486.5336	536.6006	572.1918	757.7082	815.0172	855.7327	969.7356	1004.4831	1027.7289	1062.5238	1081.7906	1107.7665	1127.5311	1154.9681	1181.4232	1194.6535	1204.1571	1242.1834	1259.1567	1311.8867	1318.6881	1385.1195	1394.0435	1405.2101	1426.539	1431.7914	1464.2104	1478.7859	1483.5062	1489.1895	1497.4713	1516.3612	1836.7109	2847.6891	2976.5596	2991.4972	3011.842	3022.1761	3029.2843	3051.0305	3065.4651	3082.0199	3100.1021	3112.3937	3802.8784
COC(CO)CCC=O	CO[C@@H](CO)CCC=O	
InChI=1S/C6H12O3/c1-9-6(5-8)3-2-4-7/h4,6,8H,2-3,5H2,1H3	InChI=1S/C6H12O3/c1-9-6(5-8)3-2-4-7/h4,6,8H,2-3,5H2,1H3/t6-/m1/s1
