18
gdb 12119	3.13915	1.96656	1.46921	0.001	67.07	-0.2598	0.079	0.3387	906.5489	0.151443	-384.902586	-384.894262	-384.893318	-384.935329	31.358	
C	-0.0104430543	 1.5183346027	 0.0084613117	-0.484921
C	-0.0095621363	 0.0058816638	-0.0418532349	 0.36706
C	 1.1293854128	-0.6827882125	-0.6766921956	-0.229991
O	 1.0150107677	-0.6229149699	 0.7470267857	-0.276781
C	-1.3580955637	-0.6897197364	 0.0284987525	 0.366942
C	-1.357207822	-2.2022105505	-0.0209723203	-0.48487
C	-2.4972803411	-0.0007983143	 0.6626358962	-0.229992
O	-2.3824206603	-0.0613454538	-0.7610296087	-0.27678
H	 0.9865584722	 1.9050597633	-0.2122758234	 0.123429
H	-0.7190165902	 1.9212518689	-0.7195203627	 0.144601
H	-0.2924173779	 1.8747698428	 1.0039165737	 0.128147
H	 1.0145454903	-1.671952674	-1.1130911247	 0.114546
H	 1.9300428563	-0.0821471385	-1.1064046071	 0.113951
H	-0.6492905849	-2.6047556437	 0.7078454163	 0.1446
H	-2.3544505795	-2.5887152121	 0.1990573331	 0.123434
H	-1.0743724204	-2.5592730508	-1.0159565913	 0.128134
H	-3.2980465451	-0.6012723906	 1.0923727418	 0.113947
H	-2.3826086833	 0.9885805756	 1.0985897976	 0.114544
41.2286	200.7601	203.3925	246.7106	290.7167	328.4371	382.5423	387.6845	414.3616	431.7692	542.9603	623.1198	795.7541	822.213	845.9932	924.8492	929.9345	936.2568	998.2791	1040.6853	1088.6994	1117.9216	1135.1723	1139.1229	1164.1169	1170.2755	1177.3335	1331.4732	1352.6394	1397.0575	1405.5402	1420.9288	1483.9719	1485.3304	1495.8196	1510.8189	1529.993	1534.4031	3048.9984	3049.096	3090.4206	3091.2779	3116.55	3117.6253	3136.8823	3137.5635	3179.3783	3179.5848
CC1(CO1)C1(C)CO1	C[C@]1(CO1)[C@@]1(C)CO1	
InChI=1S/C6H10O2/c1-5(3-7-5)6(2)4-8-6/h3-4H2,1-2H3	InChI=1S/C6H10O2/c1-5(3-7-5)6(2)4-8-6/h3-4H2,1-2H3/t5-,6+
