20
gdb 12923	3.51715	1.54375	1.3246	1.5065	75.22	-0.2271	0.0821	0.3092	1037.8378	0.176211	-348.972243	-348.963786	-348.962841	-349.004974	31.793	
C	 0.106663929	 1.3717565146	-0.3907921334	-0.370443
C	-0.0131554235	 0.0023503646	 0.2877845941	-0.214413
C	-1.4036175291	-0.5900734108	 0.1860876523	-0.055508
C	-2.0072537688	-1.179180813	-1.0849031138	-0.20057
C	-0.968999404	-2.0308863707	-1.8013365849	-0.096504
O	-0.6568451177	-2.7546452862	-0.5821986713	-0.318359
C	-1.7052755824	-2.058578003	 0.1185565824	 0.433708
C	-2.5323826602	-2.8617391945	 1.0684929995	-0.486505
H	 1.1205827997	 1.773643684	-0.2980482225	 0.110375
H	-0.1329291435	 1.3045337378	-1.4573480982	 0.115955
H	-0.5815985593	 2.0986183763	 0.0549835449	 0.110593
H	 0.7090970313	-0.6991730466	-0.1410634705	 0.115799
H	 0.2524151895	 0.0936716939	 1.3488579334	 0.094243
H	-2.162742937	-0.0492856243	 0.7512281984	 0.081629
H	-2.9521259664	-0.8528548247	-1.4996686897	 0.091889
H	-1.4008518205	-2.7077761881	-2.5474726028	 0.106588
H	-0.0899537083	-1.5318799565	-2.2269135801	 0.102036
H	-1.9194590631	-3.2151566081	 1.9057961396	 0.131424
H	-3.3443163187	-2.254166691	 1.4784771756	 0.121932
H	-2.963862457	-3.7371185135	 0.572833057	 0.126129
78.3086	152.4291	193.1952	205.9429	234.9981	275.9664	313.6652	336.733	526.6068	548.2003	664.692	725.322	792.3092	814.2876	878.6626	914.9174	941.507	964.5778	993.5028	994.157	1010.5303	1066.3696	1100.2933	1115.6457	1124.4602	1155.6965	1180.2888	1202.1365	1257.4983	1291.8235	1325.0769	1339.4649	1363.9503	1409.4244	1411.4551	1473.7302	1480.6561	1489.7456	1498.3348	1501.3285	1509.228	1523.1278	3020.2593	3027.0714	3029.9349	3031.3832	3064.8313	3074.3137	3093.9241	3099.0868	3102.5597	3112.8078	3118.0977	3193.1912
CCC1C2COC12C	CC[C@H]1[C@H]2CO[C@@]12C	
InChI=1S/C7H12O/c1-3-5-6-4-8-7(5,6)2/h5-6H,3-4H2,1-2H3	InChI=1S/C7H12O/c1-3-5-6-4-8-7(5,6)2/h5-6H,3-4H2,1-2H3/t5-,6+,7-/m0/s1
