23
gdb 112927	3.07099	1.03972	0.82134	1.0467	88.84	-0.2384	0.0235	0.262	1481.6255	0.205893	-388.303283	-388.293718	-388.292774	-388.337675	36.15	
C	 0.030768831	 1.3942876012	 0.0757590347	-0.238656
O	-0.0038749723	-0.0021904645	-0.0919126752	-0.24708
C	-1.3078285487	-0.5750067215	-0.0054504801	 0.08315
C	-1.271433518	-1.9038439171	-0.7595978917	-0.216047
C	-2.5388857099	-2.7314091861	-0.5052011661	 0.020737
C	-2.5767162213	-3.9987263566	-1.3632243175	-0.404298
C	-2.6591125668	-3.0572948798	 0.9938596485	-0.240688
C	-2.3230197656	-1.8822930028	 1.8736495731	-0.07004
C	-1.7327973195	-0.7734004516	 1.4307263573	-0.062676
H	 1.0680318174	 1.7105643346	-0.0625896734	 0.125398
H	-0.5987059633	 1.9090412511	-0.6680647008	 0.101282
H	-0.2964574858	 1.7141777288	 1.0767047477	 0.103899
H	-2.0192673897	 0.1073332493	-0.5058373422	 0.065198
H	-1.1365214913	-1.7119891071	-1.8294200195	 0.092298
H	-0.3881221687	-2.4593856506	-0.4194786564	 0.105795
H	-3.4043772483	-2.1091546755	-0.7768696761	 0.072765
H	-1.7147357797	-4.6417338136	-1.1490633692	 0.113902
H	-3.4830951805	-4.5827790843	-1.1693010987	 0.109152
H	-2.5551748724	-3.7574032888	-2.4310777487	 0.110915
H	-3.6716300213	-3.4171150508	 1.2205462997	 0.099784
H	-1.991736245	-3.8974230143	 1.2434882039	 0.105814
H	-2.5811334219	-1.9694399239	 2.9271521099	 0.084733
H	-1.5232512385	 0.0424196641	 2.1176949409	 0.084665
76.3928	102.086	142.8876	179.2238	235.0184	259.0159	302.3078	320.6139	385.5067	427.1213	435.2983	499.1154	566.9687	684.3151	746.307	845.6897	885.9953	916.6318	929.3402	965.6295	988.4613	1000.905	1010.7296	1081.7673	1100.8423	1120.0816	1138.9882	1153.5702	1180.2363	1188.149	1225.0016	1232.6051	1273.1532	1299.784	1327.6769	1351.6012	1374.4921	1379.677	1396.079	1409.6851	1419.9332	1474.1708	1477.7995	1491.0656	1492.3765	1497.5378	1499.6321	1509.4641	1720.814	2925.8015	2969.8841	2984.0426	2995.9251	3015.3013	3023.4032	3030.0597	3032.2387	3076.2504	3090.2614	3097.4756	3107.5843	3139.1674	3167.2252
COC1CC(C)CC=C1	CO[C@H]1C[C@@H](C)CC=C1	
InChI=1S/C8H14O/c1-7-4-3-5-8(6-7)9-2/h3,5,7-8H,4,6H2,1-2H3	InChI=1S/C8H14O/c1-7-4-3-5-8(6-7)9-2/h3,5,7-8H,4,6H2,1-2H3/t7-,8+/m0/s1
