20
gdb 88546	3.37235	1.19935	1.11368	2.5704	79.23	-0.2139	0.0795	0.2934	1180.2974	0.170047	-403.063062	-403.054564	-403.05362	-403.096619	32.698	
C	 0.2377894335	 1.5170514245	-0.4926192089	-0.416116
C	 0.0146288415	 0.074191305	-0.0993507036	 0.018625
C	 1.1393354651	-0.8989711805	-0.0763799908	-0.263468
N	 0.5060645418	-0.4861580908	 1.1746488995	-0.172526
C	 1.2007587118	 0.3546416935	 2.0932978715	 0.30837
C	 2.6384522402	 0.85691042	 2.0572510633	-0.347969
C	 2.1504902271	 0.0354952696	 3.221285264	 0.030967
O	 1.4493063156	 0.8537451855	 4.1601604361	-0.285652
C	 0.4376845825	 1.1429499007	 3.157645855	-0.121197
H	 1.2511844132	 1.8518387674	-0.2605397364	 0.132883
H	 0.0776469017	 1.6399893171	-1.5691209436	 0.122682
H	-0.4664828413	 2.1800492132	 0.0220798046	 0.124285
H	-0.9724030428	-0.3083219747	-0.3547371812	 0.092508
H	 0.9911069837	-1.9397078467	-0.3521118933	 0.117081
H	 2.1263798882	-0.5052070998	-0.3105670747	 0.111906
H	 3.2924092318	 0.3214234024	 1.3758990396	 0.114251
H	 2.8825594653	 1.9075141853	 2.2004385494	 0.109164
H	 2.6035288807	-0.8823355834	 3.5777284789	 0.108749
H	 0.2972834535	 2.2192302201	 3.0018476045	 0.099958
H	-0.5143332433	 0.6691767116	 3.4190224961	 0.115498
38.947	133.1799	183.4899	228.9536	253.7459	358.6876	371.9401	405.6985	458.9295	500.423	614.1195	739.3355	781.7618	821.2987	867.21	903.1443	919.8174	924.7037	984.6469	996.7405	998.9146	1022.0222	1046.2064	1065.1004	1078.826	1097.9005	1118.9045	1138.4252	1157.4834	1167.697	1188.1086	1227.7003	1247.4238	1292.7671	1339.9243	1398.9664	1410.8772	1422.6234	1480.0153	1489.6259	1497.3406	1506.6984	1513.8163	3025.2543	3035.9401	3082.8227	3092.6069	3098.5275	3103.6565	3109.477	3132.5466	3181.007	3182.5146	3203.4456
CC1CN1C12CC1OC2	C[C@H]1CN1[C@]12C[C@H]1OC2	
InChI=1S/C7H11NO/c1-5-3-8(5)7-2-6(7)9-4-7/h5-6H,2-4H2,1H3	InChI=1S/C7H11NO/c1-5-3-8(5)7-2-6(7)9-4-7/h5-6H,2-4H2,1H3/t5-,6+,7-,8?/m0/s1
