21
gdb 109692	2.42359	1.14628	0.96531	2.8988	75.6	-0.2385	0.0636	0.3021	1339.0821	0.179686	-461.329101	-461.318487	-461.317542	-461.364641	38.323	
C	 0.1138696942	 1.1355810772	-0.3151240576	-0.236753
O	-0.1849221175	 0.0403100169	 0.5331153218	-0.257859
C	-1.4213203932	-0.55554419	 0.2795117953	 0.015863
C	-1.5105119621	-1.7020878155	-0.7270591495	-0.125032
C	-0.3317652397	-2.108696832	-1.5829740055	-0.407546
C	-1.5084536276	-1.9699522616	 0.7683232849	 0.341249
O	-0.3477053965	-2.4934314312	 1.3640209242	-0.48247
C	-2.736440093	-2.492110207	 1.473392484	-0.10863
O	-2.700828085	-2.2054608695	 2.8572548265	-0.421789
H	 1.0940088124	 1.5144589573	-0.0171035504	 0.131832
H	 0.1456568697	 0.8341364853	-1.3697602725	 0.119881
H	-0.6292901707	 1.9370701029	-0.1997770696	 0.116697
H	-2.2746156215	 0.1123666679	 0.4028825059	 0.093151
H	-2.4809657619	-1.8002119103	-1.2096392212	 0.08374
H	 0.6131299899	-1.9362583838	-1.0647052617	 0.122618
H	-0.3824275933	-3.1746164938	-1.8275669481	 0.124189
H	-0.3135476728	-1.5503398805	-2.5247849675	 0.113325
H	 0.2790244069	-1.7602347698	 1.4329694346	 0.30066
H	-3.6351960273	-2.0191765647	 1.0643071331	 0.100114
H	-2.8178245657	-3.5767591804	 1.2902475638	 0.09096
H	-1.8174235555	-2.4662978575	 3.1458003495	 0.285798
79.0935	109.9028	140.9404	144.8099	163.7109	176.9164	210.0474	266.1907	312.0241	340.3793	381.1878	427.2106	492.0097	563.0521	582.2315	635.1609	740.0927	837.8312	876.7143	952.9412	998.7547	1007.095	1043.0276	1074.4939	1098.9231	1111.7349	1141.8613	1166.0295	1182.9337	1197.8995	1214.2383	1244.7495	1313.633	1355.3938	1370.3794	1374.1874	1416.4262	1433.0552	1470.3493	1485.9218	1488.3874	1493.7153	1498.753	1504.2003	1509.0848	2966.777	2999.7863	3038.888	3059.0421	3073.7453	3094.4038	3094.8486	3122.185	3124.0093	3137.549	3750.712	3783.5081
COC1C(C)C1(O)CO	CO[C@H]1[C@@H](C)[C@]1(O)CO	
InChI=1S/C6H12O3/c1-4-5(9-2)6(4,8)3-7/h4-5,7-8H,3H2,1-2H3	InChI=1S/C6H12O3/c1-4-5(9-2)6(4,8)3-7/h4-5,7-8H,3H2,1-2H3/t4-,5+,6-/m1/s1
