16
gdb 48286	3.34645	0.97428	0.81311	6.7155	68.	-0.2518	-0.0374	0.2143	1364.6479	0.122207	-475.02741	-475.01838	-475.017436	-475.062565	30.822	
O	-0.3913524466	 0.2554599429	 0.1294362388	-0.259041
C	-0.0743361606	 1.4105312469	 0.137197772	 0.165955
N	 1.2391457622	 1.9092396214	 0.0180158751	-0.0948
C	 1.4192841768	 3.3633025394	 0.0601134002	-0.24382
C	 1.2999732019	 3.9311885334	 1.4562695163	 0.097855
C	 0.7361663965	 5.2656556568	 1.6886220879	-0.177382
O	-0.0305798985	 4.0883359744	 1.9512991098	-0.222435
C	 2.3679839245	 1.0929451948	-0.1396123881	 0.164978
O	 2.3884260359	-0.1044082154	-0.1639837194	-0.259146
H	-0.7929856978	 2.2436979523	 0.2422567409	 0.111015
H	 2.4080911878	 3.593148339	-0.348752981	 0.134652
H	 0.6789445713	 3.8413471291	-0.5888777053	 0.134877
H	 2.0033115068	 3.5263155925	 2.1852069998	 0.112266
H	 1.0405458973	 5.8321083191	 2.566415531	 0.130551
H	 0.3993786738	 5.8634473031	 0.8426948115	 0.122871
H	 3.2801897589	 1.7159153003	-0.2473971196	 0.081602
43.0138	75.4917	111.0267	148.2539	231.193	243.6769	302.7158	317.851	399.6893	468.9765	526.8356	725.9404	798.4406	866.3728	945.547	956.2683	960.9084	1016.6428	1039.2852	1096.1144	1116.7036	1160.7757	1166.1919	1198.7319	1226.6834	1292.8101	1351.5032	1377.2352	1448.0251	1450.7876	1458.7227	1494.507	1530.2453	1800.4796	1878.909	2910.9335	2973.3324	3053.2189	3090.2066	3095.5681	3113.2055	3179.7085
O=CN(CC1CO1)C=O	O=CN(C[C@H]1CO1)C=O	
InChI=1S/C5H7NO3/c7-3-6(4-8)1-5-2-9-5/h3-5H,1-2H2	InChI=1S/C5H7NO3/c7-3-6(4-8)1-5-2-9-5/h3-5H,1-2H2/t5-/m0/s1
