21
gdb 106175	2.62472	1.5625	1.39562	1.0777	81.17	-0.2287	0.0821	0.3108	1062.425	0.184233	-387.060879	-387.052901	-387.051957	-387.093297	31.623	
C	 0.10296771	 1.3177282565	 0.2107416916	-0.258569
O	-0.1628152493	-0.0357470705	-0.116373577	-0.285268
C	 0.5658915261	-0.4999389581	-1.1841320306	 0.438115
C	 0.9512239469	-1.9167355697	-1.5057436412	-0.151064
C	 0.4345669451	-1.7730095726	-2.937575081	-0.230952
C	 0.3320217639	-0.2266579877	-2.7089022426	-0.110879
C	 1.6009204806	 0.4885153867	-3.1939822822	-0.210255
C	 2.7465473674	-0.1953956692	-2.3909836631	-0.232138
C	 2.0268604894	-0.8508338892	-1.2136956988	-0.117572
H	 1.1647241633	 1.4715143054	 0.4488124335	 0.10995
H	-0.1744165268	 1.9964051124	-0.6082717404	 0.111667
H	-0.5018807621	 1.5593729849	 1.0876942738	 0.126245
H	 0.880352585	-2.7977648137	-0.8785910759	 0.086271
H	 1.0832137232	-2.1052777926	-3.7563220152	 0.087118
H	-0.548907004	-2.234929395	-3.0553460106	 0.102932
H	-0.6089478246	 0.2380429784	-3.0038088239	 0.068592
H	 1.7409327688	 0.406712634	-4.276804339	 0.094096
H	 1.547517906	 1.5562001164	-2.9504015558	 0.092699
H	 3.2814631365	-0.9317169202	-3.0008724123	 0.100548
H	 3.490928228	 0.5301389739	-2.0486872595	 0.095416
H	 2.5361015866	-0.9891380099	-0.2661317095	 0.083049
85.9161	154.5169	178.5042	226.5907	330.1438	358.6061	399.8855	475.2678	576.8479	628.3005	691.8427	725.8519	811.3297	846.5506	863.902	887.5006	918.1	955.7938	986.1464	1005.9124	1026.6363	1039.5427	1063.1578	1066.2803	1103.799	1127.1938	1143.1422	1163.8279	1177.8595	1204.0337	1223.4158	1226.8164	1257.8272	1278.5935	1286.2294	1298.3313	1327.8503	1342.4338	1434.3045	1485.5682	1487.3153	1489.6777	1502.9612	1505.3032	1514.6741	2991.212	3031.4103	3033.5031	3042.2317	3044.7523	3070.2117	3086.3522	3095.1588	3113.6643	3119.5947	3173.3037	3183.3183
COC12C3CC1CCC23	CO[C@@]12[C@H]3C[C@@H]1CC[C@@H]23	
InChI=1S/C8H12O/c1-9-8-5-2-3-6(8)7(8)4-5/h5-7H,2-4H2,1H3	InChI=1S/C8H12O/c1-9-8-5-2-3-6(8)7(8)4-5/h5-7H,2-4H2,1H3/t5-,6+,7-,8-/m0/s1
