24
gdb 61762	2.23682	1.14863	1.00151	3.5349	86.3	-0.2486	0.0327	0.2813	1367.6732	0.214742	-405.591099	-405.579814	-405.578869	-405.627501	41.693	
C	-0.1397787266	 1.8187826777	 0.0683889231	-0.421086
C	-0.019384658	 0.2888806196	 0.082079637	 0.034982
N	 0.7999556528	-0.1096035993	 1.2278486685	-0.281283
C	 1.9365613956	-0.8480788627	 1.1235407269	 0.153856
O	 2.373054231	-1.3313716575	 0.0996197916	-0.328712
C	-1.3756174248	-0.4880697124	 0.0305682773	 0.267822
C	-2.148601175	-0.0821726924	-1.2392955752	-0.413989
C	-1.0811877144	-1.9986728287	-0.0404535218	-0.404226
C	-2.2416280766	-0.2014101231	 1.2709848529	-0.419002
H	 0.8578032762	 2.2666591619	 0.0600541773	 0.126112
H	-0.6739971055	 2.1728555481	-0.8156589764	 0.128121
H	-0.668046867	 2.1950072541	 0.9514748555	 0.113187
H	 0.5606334942	-0.0233185381	-0.7914815912	 0.117966
H	 0.5772244336	 0.2766667794	 2.1320732523	 0.24271
H	 2.4359134173	-0.9695558355	 2.1062459401	 0.070813
H	-1.531070098	-0.2044980914	-2.1362668489	 0.115226
H	-3.0342258834	-0.7145739804	-1.3602031299	 0.112111
H	-2.4924426211	 0.9555478741	-1.2029907091	 0.111435
H	-0.5675842791	-2.3499990242	 0.8581872345	 0.115198
H	-2.0147089992	-2.5633685794	-0.1350657073	 0.10293
H	-0.4472974871	-2.2407505016	-0.899015421	 0.126583
H	-2.5174069288	 0.8551858416	 1.3481578641	 0.110738
H	-3.1715503774	-0.7776804098	 1.225162544	 0.116524
H	-1.7289043286	-0.4904574001	 2.1949517656	 0.101985
46.1797	48.8866	182.4458	185.7928	200.411	234.3807	241.684	261.8714	283.2563	303.4018	345.633	375.6561	381.5046	433.5888	499.3637	527.8183	540.8925	697.512	793.6212	866.5642	905.9232	936.0408	938.3058	960.1479	1007.667	1023.5195	1030.0384	1074.0733	1107.9065	1137.2607	1206.9414	1233.9473	1245.2876	1271.5896	1350.5581	1369.7662	1398.5322	1401.8692	1409.7606	1431.4282	1436.2452	1477.4596	1484.6082	1485.9026	1494.9295	1499.4276	1509.9298	1511.854	1520.7669	1525.0828	1801.3598	2925.8588	3028.2804	3030.4824	3037.9446	3042.1981	3074.7244	3094.0521	3095.2491	3098.7243	3104.6368	3106.5932	3109.7909	3117.4009	3131.6884	3624.7818
CC(NC=O)C(C)(C)C	C[C@@H](NC=O)C(C)(C)C	
InChI=1S/C7H15NO/c1-6(8-5-9)7(2,3)4/h5-6H,1-4H3,(H,8,9)	InChI=1S/C7H15NO/c1-6(8-5-9)7(2,3)4/h5-6H,1-4H3,(H,8,9)/t6-/m1/s1
