19
gdb 96058	3.32789	0.99304	0.8485	5.1285	72.68	-0.2389	-0.0117	0.2272	1366.2247	0.158059	-460.171766	-460.162461	-460.161516	-460.207129	33.025	
O	-0.1533079746	 1.4988346262	 0.5769542962	-0.43168
C	 0.0004138644	 0.174041542	 0.0885828615	 0.082327
C	 0.6665762332	-0.7435544707	 1.123954978	-0.263313
C	-0.4979898314	-1.0223578921	 2.0802230814	-0.055448
O	-1.6731313462	-1.0294889261	 1.2678980758	-0.285373
C	-1.3919935993	-0.4698647968	-0.0195781531	 0.122499
C	-2.5188178965	 0.4844051026	-0.4257034367	-0.285218
C	-3.8670052767	-0.2020328997	-0.4400807096	 0.149017
O	-4.613902124	-0.2129184967	-1.3865126673	-0.248412
H	 0.7226135063	 1.8751640069	 0.7054621555	 0.288692
H	 0.5139740719	 0.1695571834	-0.8820491083	 0.073583
H	 1.0080988615	-1.665922509	 0.6421451457	 0.111977
H	 1.5260104849	-0.2748617674	 1.6115267702	 0.098321
H	-0.4161885732	-1.9870700396	 2.5908526739	 0.106797
H	-0.5790306361	-0.2324758008	 2.8386120959	 0.104516
H	-1.3297661033	-1.2887120325	-0.7535821669	 0.081976
H	-2.549140274	 1.2999721781	 0.3054075461	 0.140033
H	-2.3287472832	 0.9074757968	-1.4162043276	 0.114551
H	-4.1340010636	-0.7080484345	 0.5117503296	 0.095155
47.8395	75.7047	78.5269	167.5762	176.3951	264.0022	280.953	377.9186	420.7516	445.1854	546.4127	669.5316	770.3406	811.9546	836.5112	866.3223	907.7018	928.7755	993.4142	1007.3274	1043.9793	1058.9112	1109.8775	1114.0246	1149.7126	1197.8433	1206.0571	1216.5571	1251.3371	1282.8417	1312.8303	1330.7486	1365.2734	1393.4443	1398.951	1421.8818	1424.8368	1451.5928	1480.8314	1522.7724	1827.7094	2915.1359	2975.4519	3014.8729	3017.7328	3051.3424	3052.2687	3074.2665	3103.1998	3113.1625	3827.2641
OC1CCOC1CC=O	O[C@H]1CCO[C@H]1CC=O	
InChI=1S/C6H10O3/c7-3-1-6-5(8)2-4-9-6/h3,5-6,8H,1-2,4H2	InChI=1S/C6H10O3/c7-3-1-6-5(8)2-4-9-6/h3,5-6,8H,1-2,4H2/t5-,6-/m0/s1
