19
gdb 111992	4.23607	1.10787	0.97646	2.7241	77.36	-0.2449	-0.0051	0.2398	1266.7606	0.157599	-422.999343	-422.9905	-422.989556	-423.032892	32.947	
C	 0.0219347219	 1.3797643042	 0.1072035216	-0.232148
O	-0.1645794605	-0.0058234274	-0.0671546244	-0.241742
C	 0.5883346026	-0.5590064327	-1.1276555438	 0.089025
C	 2.066382845	-0.7885355696	-0.8217386548	-0.121425
C	 2.4280124417	-2.0520475229	-1.0405441299	-0.123506
C	 1.2445052201	-2.880708958	-1.4632358059	 0.379707
C	 1.3928592774	-4.1145032696	-2.3058233841	-0.494183
O	 0.2458369473	-2.9223682051	-0.4128657208	-0.28529
C	 0.0944255364	-1.9646205195	-1.4628636777	-0.068974
H	 1.0491609388	 1.6332214594	 0.4089481959	 0.106405
H	-0.2148409356	 1.9412100456	-0.810952135	 0.102386
H	-0.6594543089	 1.6972121029	 0.9001359214	 0.131358
H	 0.4811483381	 0.0799283129	-2.0234798042	 0.06867
H	 2.709350515	-0.0037589884	-0.4409196694	 0.105226
H	 3.4195514329	-2.4683779726	-0.9022918075	 0.10222
H	 1.9857642483	-4.8711791333	-1.7800616238	 0.129684
H	 0.4145340756	-4.5454794906	-2.5306732239	 0.133992
H	 1.9029931637	-3.8838820359	-3.2471549962	 0.125341
H	-0.78072475	-2.0938951994	-2.0939523474	 0.093253
78.6962	112.2856	170.6077	190.3703	233.8091	260.7273	323.0168	367.595	430.0007	521.9061	552.4684	626.9666	725.9344	751.3995	840.1748	850.4881	909.4069	925.8435	956.6349	992.1431	1012.7437	1048.8948	1074.9092	1097.8743	1130.6757	1160.523	1181.8947	1219.5534	1244.6525	1292.4773	1320.7549	1356.3186	1373.865	1410.3898	1453.64	1478.2881	1484.8318	1490.6442	1495.2878	1508.6829	1673.0494	2933.0532	2971.9655	3020.1353	3035.1944	3096.0055	3115.2279	3127.0186	3149.796	3186.7297	3212.4751
COC1C=CC2(C)OC12	CO[C@H]1C=C[C@@]2(C)O[C@@H]12	
InChI=1S/C7H10O2/c1-7-4-3-5(8-2)6(7)9-7/h3-6H,1-2H3	InChI=1S/C7H10O2/c1-7-4-3-5(8-2)6(7)9-7/h3-6H,1-2H3/t5-,6-,7+/m0/s1
