18
gdb 38167	2.62246	2.00642	1.37189	2.1579	76.09	-0.2308	0.0242	0.2551	957.0733	0.150308	-401.935731	-401.92877	-401.927825	-401.96701	28.129	
C	 0.1825233521	 1.5036542627	 0.0361959704	-0.381426
C	 1.3760330639	 0.567635515	-0.0345060918	-0.030781
N	 2.2083282999	 0.3606845182	 1.1138711714	-0.267396
C	 1.7924672396	-0.4183403655	 2.0220064953	 0.121448
O	 0.6245673058	-1.100382077	 2.1288981214	-0.237551
C	-0.363442142	-0.9141332555	 1.1168428687	 0.081498
C	-0.5515694811	-2.0433366502	 0.0679154558	-0.241257
C	-0.6428932905	-0.9469248377	-1.0388695781	-0.324308
C	-0.0205226483	 0.0229125237	-0.032201252	 0.29044
H	-0.0110594701	 2.006341099	 0.9793806498	 0.119375
H	-0.0369106476	 2.0952290358	-0.8472003901	 0.117294
H	 1.934976372	 0.5774820157	-0.9660573228	 0.097387
H	 2.4095796755	-0.6266601269	 2.8935061371	 0.123836
H	-1.2948074867	-0.6692838669	 1.6393989203	 0.089281
H	 0.3594533011	-2.6392826305	-0.0208140685	 0.120233
H	-1.4075311324	-2.7064352479	 0.202802909	 0.106008
H	-0.0929254914	-1.1260700963	-1.9656657807	 0.108267
H	-1.6781571798	-0.6935742858	-1.2876853552	 0.107653
103.6136	189.6462	281.1639	324.0772	412.43	499.0965	534.6072	547.3291	591.4987	701.3215	778.6902	816.662	856.944	891.1307	908.3029	928.3827	942.3991	963.9021	1015.3223	1036.6985	1047.5332	1082.2556	1104.7709	1127.9342	1134.8751	1173.2017	1191.0803	1225.0076	1242.2993	1273.0728	1279.3049	1341.251	1387.4395	1406.1358	1424.2133	1474.6333	1484.6967	1498.4616	1712.6803	3040.9136	3052.5816	3075.5782	3102.5843	3118.9539	3136.4475	3143.6993	3164.5409	3208.1399
C1C2N=COC3CCC123	C1[C@H]2N=CO[C@@H]3CC[C@]123	
InChI=1S/C7H9NO/c1-2-7-3-5(7)8-4-9-6(1)7/h4-6H,1-3H2	InChI=1S/C7H9NO/c1-2-7-3-5(7)8-4-9-6(1)7/h4-6H,1-3H2/t5-,6-,7+/m1/s1
