22
gdb 62836	2.52478	1.74971	1.47252	1.8173	87.33	-0.2036	0.0532	0.2569	1034.7758	0.194198	-367.053399	-367.045214	-367.04427	-367.085186	34.29	
C	-0.0942803119	 1.479836913	 0.0361718644	-0.480219
C	 0.0422042288	-0.0496853879	 0.0475257089	 0.370383
C	-1.2565062151	-0.6116084363	-0.5437078994	-0.473541
N	 1.2889518769	-0.6441010012	-0.6576493072	-0.216118
C	 2.1021636058	-0.0691330422	 0.5393969432	-0.262253
C	 0.8508874284	-0.6917686132	 1.2445987842	 0.211296
C	 0.1680941819	-1.5593198608	 2.3341113054	-0.337012
C	-0.0370056975	-2.6373066813	 1.1778216613	-0.274123
C	 1.0987481017	-1.8742943722	 0.37229012	 0.020149
H	 0.5795823636	 2.0008979299	 0.7172643242	 0.116111
H	 0.0769375674	 1.8617882304	-0.9770580629	 0.128564
H	-1.1150122717	 1.7544935597	 0.3205272576	 0.115478
H	-1.5771949722	 0.0445454289	-1.3596104281	 0.116606
H	-1.1398135168	-1.6092876784	-0.9641377355	 0.132387
H	-2.0653629689	-0.6259395654	 0.1953651393	 0.114806
H	 3.0498674633	-0.5853141354	 0.7065199298	 0.102444
H	 2.2551149978	 1.0073679467	 0.4711358426	 0.103483
H	 0.8561760887	-1.9191775874	 3.1039822263	 0.110402
H	-0.7301079282	-1.161991287	 2.8157785331	 0.101069
H	 0.2610823521	-3.656865877	 1.4339649007	 0.105872
H	-1.049168136	-2.6637507758	 0.7847722885	 0.119153
H	 2.0494584717	-2.4054499171	 0.4496804435	 0.075063
172.7601	180.5593	213.2838	267.4205	346.9242	353.682	393.7041	458.3784	461.1144	538.8676	599.4909	629.2914	662.7085	706.2735	785.2101	790.2319	814.1893	871.7812	899.8547	937.9689	962.409	972.5381	998.8512	1006.6703	1027.0517	1069.7992	1112.8277	1143.8321	1148.4015	1170.3134	1184.3783	1212.955	1215.8897	1226.0762	1227.537	1251.3249	1286.3341	1368.8829	1401.7589	1413.66	1468.1676	1477.7809	1485.9347	1494.7358	1507.8941	1522.6409	1545.9899	3033.683	3038.8353	3051.1583	3070.4171	3077.3457	3086.4108	3091.2633	3096.3697	3108.4142	3126.8766	3147.6722	3149.9731	3176.4888
CC1(C)N2CC11CCC21	CC1(C)N2C[C@]31CC[C@@H]23	
InChI=1S/C8H13N/c1-7(2)8-4-3-6(8)9(7)5-8/h6H,3-5H2,1-2H3	InChI=1S/C8H13N/c1-7(2)8-4-3-6(8)9(7)5-8/h6H,3-5H2,1-2H3/t6-,8-/m1/s1
