17
gdb 70486	3.2268	1.0474	0.90881	5.0629	70.72	-0.2612	0.0056	0.2668	1294.7167	0.133459	-458.947795	-458.939073	-458.938129	-458.982182	31.238	
C	-0.0903571812	 1.4502983941	-0.0533891222	-0.51321
C	 0.146070207	-0.0228296781	 0.0050815583	 0.399429
O	-0.7355709479	-0.8273127993	 0.7964132692	-0.274422
C	 0.6687960694	-0.9405726771	 1.0421954054	-0.047067
C	 1.1968795658	-1.9392875283	 0.0051399384	-0.288322
C	 0.7141425432	-0.9370271104	-1.0946411734	 0.072827
O	-0.2300731246	-1.4216773479	-2.0378256205	-0.186697
C	 0.0691367374	-1.3397434109	-3.3493550933	 0.169145
O	-0.6661335143	-1.7231033648	-4.206986353	-0.271473
H	 0.7898531778	 1.9750165536	-0.4387826089	 0.125039
H	-0.9361339456	 1.6770391046	-0.7117509604	 0.145234
H	-0.3221320759	 1.8363639854	 0.9423080652	 0.141981
H	 1.0261762256	-0.7305987174	 2.0430534107	 0.112946
H	 2.2789292228	-2.0862852262	 0.002821558	 0.112553
H	 0.6819398364	-2.9013578194	 0.009841381	 0.133389
H	 1.5586941387	-0.4663029455	-1.612262716	 0.093404
H	 1.0611203753	-0.8806383223	-3.5343678685	 0.075243
40.5343	106.6786	137.7314	188.7995	218.5158	272.1486	332.9843	383.5805	437.191	527.9355	629.453	700.301	751.7082	853.1296	880.934	912.0822	925.7701	972.2507	1043.1972	1044.6569	1058.0241	1094.2252	1100.1062	1157.2631	1193.3214	1204.8143	1212.6048	1263.7719	1284.155	1375.7119	1405.6191	1439.0727	1455.2537	1475.5395	1486.6678	1494.2372	1870.2252	2934.8701	3035.5022	3039.0445	3077.6837	3100.5246	3125.8188	3140.6934	3197.3889
CC12OC1CC2OC=O	C[C@]12O[C@H]1C[C@H]2OC=O	
InChI=1S/C6H8O3/c1-6-4(8-3-7)2-5(6)9-6/h3-5H,2H2,1H3	InChI=1S/C6H8O3/c1-6-4(8-3-7)2-5(6)9-6/h3-5H,2H2,1H3/t4-,5+,6-/m1/s1
