16
gdb 76710	3.25884	0.9422	0.90519	3.9775	65.72	-0.2519	-0.002	0.2499	1312.0296	0.122615	-474.981839	-474.972872	-474.971927	-475.01625	32.271	
O	-0.5324031482	 1.2565069435	-0.3752348602	-0.420653
C	-0.2304490156	-0.0752383645	-0.1161480338	 0.049473
C	-0.4360476577	-0.5434456071	 1.3097358091	 0.024099
O	-0.926348302	 0.4436286128	 2.1694457024	-0.428512
C	-1.3692208661	-1.0321966144	 0.2266239187	 0.00574
O	-2.6641288385	-0.5235763405	 0.3487443763	-0.26521
C	-3.2347381445	-0.1306500062	-0.8946458848	-0.190894
C	-4.5722250951	 0.4084102655	-0.6414340123	 0.259282
N	-5.6283908943	 0.8398271106	-0.4648128045	-0.290022
H	-0.6500715564	 1.6711031658	 0.4945720468	 0.296806
H	 0.6023957372	-0.4597431772	-0.6981601992	 0.110119
H	 0.2582877171	-1.2325391203	 1.7803308413	 0.112986
H	-1.8920579269	 0.3982488994	 2.131067043	 0.309216
H	-1.3104671786	-2.0690264484	-0.1031884807	 0.103233
H	-2.614133966	 0.6339738004	-1.3752599354	 0.178867
H	-3.3224961842	-0.9913813793	-1.5730120066	 0.14547
48.9755	97.1816	145.832	198.9456	229.4497	296.819	316.9939	339.7462	385.4673	502.9186	565.5396	612.9556	674.9893	719.5973	756.3035	791.9462	946.9868	962.6198	1027.2801	1035.9719	1064.9593	1084.2796	1107.7665	1157.532	1164.5417	1236.7995	1255.2905	1327.9637	1335.7755	1367.0458	1392.0966	1420.2057	1446.8305	1493.0166	2373.5157	3010.6912	3075.8813	3107.3115	3148.4241	3159.6869	3686.4597	3749.0363
OC1C(O)C1OCC#N	O[C@H]1[C@@H](O)[C@H]1OCC#N	
InChI=1S/C5H7NO3/c6-1-2-9-5-3(7)4(5)8/h3-5,7-8H,2H2	InChI=1S/C5H7NO3/c6-1-2-9-5-3(7)4(5)8/h3-5,7-8H,2H2/t3-,4+,5-
