21
gdb 115518	4.48361	0.79123	0.72917	3.671	74.82	-0.2444	0.0675	0.3119	1569.8158	0.18283	-461.358621	-461.349035	-461.348091	-461.394077	34.969	
O	-0.063744273	 1.3484043226	-0.3595656215	-0.423613
C	-0.0257852514	-0.0157789024	 0.0341269828	-0.09784
C	-1.4495393543	-0.5438204707	 0.0026640076	 0.026954
C	-2.1031311191	-0.5063812034	-1.3834122925	-0.08156
O	-3.1859237445	-1.4279308453	-1.3092402712	-0.285939
C	-2.8551426127	-2.4815761034	-0.3850068084	 0.112762
C	-2.6980979273	-3.7781366737	-1.1762790735	-0.059328
O	-3.8499684446	-4.0490775038	-1.9447187444	-0.42446
C	-1.5829603154	-2.0352107146	 0.3630318233	-0.296332
H	 0.8335565375	 1.6938639103	-0.3478994058	 0.289471
H	 0.6009657389	-0.6116229215	-0.6510013214	 0.085215
H	 0.3949410293	-0.1294536201	 1.04584419	 0.090652
H	-2.0573832839	 0.0569736171	 0.6887967367	 0.091167
H	-2.5061861941	 0.4715486969	-1.6537072696	 0.123296
H	-1.3773063948	-0.8052285875	-2.158266823	 0.084905
H	-3.7133207546	-2.5847660306	 0.290386012	 0.084147
H	-1.7969333572	-3.7026674348	-1.8101907743	 0.076533
H	-2.5526766032	-4.6238361516	-0.4940584184	 0.103299
H	-4.0572940585	-3.2188393619	-2.3922253856	 0.28859
H	-0.7117732323	-2.5918718156	-0.0064457821	 0.099995
H	-1.6523206846	-2.2090100261	 1.4389602793	 0.112089
29.662	105.1809	124.3958	142.077	215.0914	248.1725	275.8282	332.6772	414.3304	454.4608	484.2841	506.3938	599.638	687.078	820.6734	868.3569	888.6826	942.4845	992.6144	1007.6595	1048.4276	1062.96	1079.1956	1085.3793	1116.5959	1124.7508	1151.6693	1199.1607	1226.9835	1232.955	1247.94	1280.4178	1286.1694	1330.402	1338.4769	1346.6522	1367.115	1394.6455	1406.1164	1439.3851	1463.2873	1492.792	1499.3609	1516.2872	1525.1585	2948.5192	2956.0966	2965.2135	2990.011	3023.5827	3032.0734	3050.1538	3063.1601	3104.6729	3110.1289	3776.5161	3830.8635
OCC1COC(CO)C1	OC[C@H]1CO[C@@H](CO)C1	
InChI=1S/C6H12O3/c7-2-5-1-6(3-8)9-4-5/h5-8H,1-4H2	InChI=1S/C6H12O3/c7-2-5-1-6(3-8)9-4-5/h5-8H,1-4H2/t5-,6+/m0/s1
