12
gdb 130112	3.63806	1.79166	1.2026	4.523	61.11	-0.2264	-0.0341	0.1923	912.6896	0.080672	-464.965375	-464.958956	-464.958011	-464.996171	24.294	
N	 0.0836775558	 1.3879121603	 0.1779602146	-0.593819
C	 0.0391254121	 0.0177446424	 0.0284676035	 0.406501
N	-1.0311889291	-0.7427864616	-0.0508543827	-0.287936
N	-0.6508749476	-2.1034772464	-0.0838272572	-0.350488
C	 0.6362333684	-2.0545475509	-0.0351886862	 0.490711
O	 1.6999069743	-2.9104643086	-0.0446639307	-0.203444
C	 2.7783751965	-2.071975496	 0.0266655829	 0.093559
N	 2.5272095575	-0.8066733959	 0.079171529	-0.232573
N	 1.145815997	-0.7950594094	 0.0424717526	-0.047413
H	 0.7870501102	 1.8453883688	-0.3881287082	 0.266238
H	-0.8317797386	 1.7936300038	 0.0315666657	 0.272958
H	 3.7556931634	-2.5262833465	 0.0332914467	 0.185705
175.2356	226.646	233.0473	296.7434	417.6592	562.5355	617.6554	652.5052	665.6351	702.9577	718.3416	752.5377	826.763	855.7729	944.8233	1004.4422	1094.0671	1113.3295	1147.1233	1267.9929	1296.0582	1405.9901	1458.7389	1580.5785	1600.3929	1645.9356	1666.7051	3296.5826	3542.2947	3641.9584
NC1=NN=C2OC=NN12	Nc1nnc2ocnn12	
InChI=1S/C3H3N5O/c4-2-6-7-3-8(2)5-1-9-3/h1H,(H2,4,6)	InChI=1S/C3H3N5O/c4-2-6-7-3-8(2)5-1-9-3/h1H,(H2,4,6)
