14
gdb 47955	4.99017	0.65041	0.61167	1.445	78.24	-0.2728	-0.0874	0.1853	1736.7334	0.099074	-436.640806	-436.631824	-436.630879	-436.676426	29.826	
O	-0.60481202	 0.3713053514	-0.2674896495	-0.211566
C	-0.022362393	 1.1003936469	 0.4984061271	 0.022084
C	 1.1977731784	 1.801777409	 0.1700672303	 0.093103
C	 2.2144976283	 2.4077497608	-0.0822653903	 0.040591
C	 3.433368646	 3.1272229266	-0.3963181699	 0.232907
O	 3.4065434013	 4.2776714337	-0.7911764697	-0.314562
C	 4.707241023	 2.3733219199	-0.210590879	-0.116059
C	 5.6638555777	 2.4171038515	-1.3694240688	-0.215564
N	 5.9430451478	 3.1636375448	-0.1537533691	-0.297004
H	-0.3860257693	 1.2884884069	 1.5278395712	 0.117998
H	 4.668225547	 1.4900907555	 0.4185095929	 0.115816
H	 6.2949701392	 1.5514674212	-1.5462231036	 0.137136
H	 5.3380264151	 2.9572433856	-2.2537839682	 0.141066
H	 5.6806195885	 4.1396104463	-0.2987697333	 0.254054
47.272	55.6581	89.5882	119.5802	240.6881	245.0789	285.4867	309.2633	396.8739	568.2082	675.3115	754.3926	782.5145	844.5238	880.5873	952.4466	993.7782	1015.4082	1018.0739	1117.3988	1127.4012	1167.5871	1182.31	1285.5935	1314.3306	1395.3123	1416.5451	1498.2398	1738.7803	1772.9076	2296.5349	2936.6025	3117.318	3169.621	3213.0012	3464.3544
O=CC#CC(=O)C1CN1	O=CC#CC(=O)[C@H]1CN1	
InChI=1S/C6H5NO2/c8-3-1-2-6(9)5-4-7-5/h3,5,7H,4H2	InChI=1S/C6H5NO2/c8-3-1-2-6(9)5-4-7-5/h3,5,7H,4H2/t5-/m1/s1
