18
gdb 71997	1.89796	1.83269	1.71305	0.6623	71.97	-0.2072	0.0558	0.2631	976.209	0.146665	-439.002944	-438.994376	-438.993432	-439.035425	33.313	
C	-0.052017989	 1.4285913196	 0.003948084	-0.525102
C	-0.0063447801	-0.0632523945	-0.0382096472	 0.21199
N	 0.9800869399	-0.8486737886	-0.8157185875	-0.349429
C	 0.1378896088	-2.0510095683	-0.4812132943	-0.122136
C	 0.4468363178	-2.2538074944	 1.0259743715	-0.273855
C	-0.3163071277	-0.9475641007	 1.2195236067	 0.258096
O	-0.8072330765	-0.3989064403	 2.3860540831	-0.463701
C	-1.092255496	-1.1042442693	-0.0713597078	 0.26309
O	-2.4225199059	-1.0280563364	-0.3859065049	-0.453431
H	 0.9223895136	 1.8384634931	 0.2941924382	 0.124599
H	-0.3182716851	 1.8529412168	-0.970455149	 0.124219
H	-0.7986689339	 1.7623797814	 0.7302080172	 0.135692
H	 0.8265357891	-0.6307251152	-1.80130093	 0.211279
H	 0.1429454173	-2.883061987	-1.1812022069	 0.079402
H	-0.0992501025	-3.1005360356	 1.4518364046	 0.09629
H	 1.5074359426	-2.3008620914	 1.2898228013	 0.098256
H	-0.0993978538	 0.0913861601	 2.8198568902	 0.289965
H	-2.9242018889	-1.5520386393	 0.2499220908	 0.294775
148.9809	170.0506	180.8455	241.2551	264.8364	298.6143	311.1707	386.507	425.5308	483.3988	575.8181	625.8733	634.8502	687.0548	715.311	817.7819	853.9978	901.6168	927.8514	975.4245	1021.8299	1041.676	1057.8157	1106.3677	1131.0913	1157.8584	1179.0667	1226.3215	1266.7918	1277.6483	1289.0667	1314.0408	1349.1822	1393.13	1420.2447	1482.2169	1486.3223	1494.5145	1529.8937	3026.8855	3048.5022	3084.408	3108.9827	3113.9073	3148.3429	3437.2954	3773.6362	3784.52
CC12NC3CC1(O)C23O	C[C@@]12N[C@H]3C[C@]1(O)[C@@]23O	
InChI=1S/C6H9NO2/c1-4-5(8)2-3(7-4)6(4,5)9/h3,7-9H,2H2,1H3	InChI=1S/C6H9NO2/c1-4-5(8)2-3(7-4)6(4,5)9/h3,7-9H,2H2,1H3/t3-,4+,5+,6-/m0/s1
