17
gdb 17388	4.99564	1.66644	1.56859	2.8747	67.47	-0.2305	0.0723	0.3028	862.6768	0.143042	-363.791605	-363.784828	-363.783884	-363.822755	26.139	
C	-0.0907348753	 1.3863543894	-0.0922052493	-0.242802
C	 1.2124922913	 0.7061258154	 0.0647218619	-0.105243
N	-0.090135311	-0.0772969675	 0.0569044092	-0.12416
C	 0.2998654127	-0.6088633221	-1.2994575248	-0.238101
C	 1.6665527966	 0.1141034596	-1.2635649608	 0.45608
C	 2.3156547432	 0.9266267152	-2.4024171915	-0.358751
C	 3.5058309529	-0.0324852056	-2.2209082628	-0.074885
O	 2.8066764763	-0.7638000559	-1.1896731259	-0.316111
H	-0.4933917803	 1.9055429364	 0.7722706459	 0.124668
H	-0.3666832406	 1.8228474223	-1.0511682798	 0.109412
H	 1.8336957145	 0.790362598	 0.9505876128	 0.103713
H	 0.4350567251	-1.6914650899	-1.2566291758	 0.12832
H	-0.4027516706	-0.3494199494	-2.0995797677	 0.098604
H	 1.8027714908	 0.8555780422	-3.3635619076	 0.113235
H	 2.5044347395	 1.9767287739	-2.1715158079	 0.114107
H	 3.7477949845	-0.6701229954	-3.0787560456	 0.106428
H	 4.4299394803	 0.4208274435	-1.8430275402	 0.105487
80.5718	140.4767	238.5571	378.9414	424.3479	451.6526	516.4384	744.6549	778.3023	789.0664	838.0712	858.3945	883.851	911.9321	964.2911	981.366	1002.1096	1025.4761	1051.48	1098.0207	1110.1328	1147.3248	1159.2627	1179.7313	1185.7869	1206.8704	1226.6518	1240.6918	1266.2035	1288.6275	1354.1033	1364.6634	1476.044	1485.0916	1501.559	1532.4455	3022.7635	3037.7881	3063.8343	3075.1212	3094.0581	3120.8526	3130.2013	3167.9865	3192.3137
C1C2N1CC21CCO1	C1[C@H]2N1C[C@]12CCO1	
InChI=1S/C6H9NO/c1-2-8-6(1)4-7-3-5(6)7/h5H,1-4H2	InChI=1S/C6H9NO/c1-2-8-6(1)4-7-3-5(6)7/h5H,1-4H2/t5-,6+,7?/m1/s1
