14
gdb 129008	4.02562	1.6784	1.18454	3.898	76.82	-0.2419	-0.0432	0.1986	950.6081	0.105892	-395.786807	-395.780897	-395.779953	-395.816904	24.101	
N	 0.0221086101	 1.335761636	 0.0093721459	-0.332451
N	 1.3077412762	 1.7836451723	-0.0006673417	-0.095456
N	 2.1008913723	 0.7682357407	-0.0139354576	-0.27637
C	 1.3421512204	-0.3841466652	-0.012821328	 0.298325
C	-0.0199081798	-0.0251229653	 0.0023745964	 0.365137
C	-1.0433686431	-0.9789646612	 0.0071328701	-0.252498
C	-0.6451131356	-2.3050073286	-0.0039555948	-0.092504
C	 0.7176925256	-2.6783880129	-0.0192374889	-0.108989
C	 1.7252899051	-1.7309875843	-0.0238769	-0.215869
H	-0.7260888769	 2.0086299773	 0.0203100329	 0.27889
H	-2.0910225118	-0.7019818105	 0.0188238326	 0.104908
H	-1.4018219797	-3.0824792518	-0.0008315665	 0.10456
H	 0.9715758235	-3.7326187563	-0.0274457146	 0.103082
H	 2.7732340839	-2.0059939401	-0.0355656958	 0.119235
224.9782	265.3701	411.2252	439.3108	475.7591	543.0435	590.1451	636.5975	701.2823	768.7905	794.7355	800.0944	874.754	906.8495	940.067	978.235	1002.8772	1026.8987	1032.7186	1142.1528	1170.1105	1249.4661	1283.4272	1292.8824	1337.0716	1414.9438	1415.8726	1489.0666	1530.3962	1626.4311	1660.2936	3178.683	3191.6632	3201.6045	3211.4061	3671.9855
N1N=NC2=C1C=CC=C2	[nH]1nnc2c1cccc2	
InChI=1S/C6H5N3/c1-2-4-6-5(3-1)7-9-8-6/h1-4H,(H,7,8,9)	InChI=1S/C6H5N3/c1-2-4-6-5(3-1)7-9-8-6/h1-4H,(H,7,8,9)
