23
gdb 123079	7.09511	0.40259	0.38647	0.7648	93.59	-0.2408	0.0636	0.3044	2857.9427	0.202275	-388.268642	-388.256604	-388.25566	-388.309235	39.968	
C	 0.00456618	 1.5259037727	 0.0583336119	-0.384263
C	 0.0108142621	 0.0070280825	 0.0149274974	-0.028885
O	 0.6893830124	-0.4729298509	 1.1566555509	-0.244421
C	 0.7556136049	-1.8791103899	 1.2205888759	-0.050503
C	 1.5058409084	-2.2722773159	 2.4861549704	-0.185022
C	 1.6263404096	-3.8007825591	 2.6381547559	-0.35752
C	 2.3423744614	-4.1998743795	 3.8451049847	 0.022863
C	 2.9363794971	-4.5041065613	 4.8472920007	 0.112449
C	 3.6536325426	-4.8825981134	 6.0569194954	-0.496995
H	 1.0274242809	 1.912998881	 0.0652594096	 0.126397
H	-0.5152064516	 1.9312749147	-0.8149828989	 0.113126
H	-0.5015135553	 1.881121677	 0.9604586424	 0.126392
H	-1.0212642489	-0.3836092053	-0.0075237619	 0.083285
H	 0.5078995377	-0.3517446543	-0.9029372735	 0.083291
H	-0.2604976299	-2.3132646014	 1.2253947208	 0.081422
H	 1.2686098067	-2.2820199364	 0.3286864935	 0.081413
H	 2.5039411403	-1.8231074126	 2.4658317036	 0.116389
H	 0.9876084739	-1.8542019578	 3.3550746267	 0.116383
H	 0.6222951303	-4.2472949022	 2.6428147437	 0.12409
H	 2.1337172233	-4.2162613174	 1.7564209163	 0.124088
H	 3.6988715153	-5.9717174512	 6.1692354074	 0.145348
H	 4.6838988113	-4.5095978866	 6.0440831233	 0.145303
H	 3.1680031374	-4.4788877726	 6.9524108938	 0.145369
15.0733	45.9182	55.5711	56.628	113.1158	140.6638	143.4873	218.0908	246.7079	268.6235	272.0045	386.3998	390.6088	477.3103	530.9682	755.0292	770.3433	819.4546	868.6889	895.6249	1020.2682	1051.8669	1054.0853	1054.4192	1070.5287	1116.5771	1146.6276	1169.1361	1172.3315	1184.8033	1225.2492	1275.8196	1294.3057	1301.2395	1309.9057	1370.6845	1391.0622	1407.1343	1415.5826	1453.943	1477.0293	1479.3651	1480.1526	1482.8847	1496.8756	1500.127	1517.2326	1538.6069	2375.1186	2933.2936	2951.9329	2958.622	2972.5097	3005.0292	3024.9134	3030.7998	3044.5454	3054.2639	3084.4581	3084.58	3099.5977	3118.9774	3121.4741
CCOCCCC#CC	CCOCCCC#CC	
InChI=1S/C8H14O/c1-3-5-6-7-8-9-4-2/h4,6-8H2,1-2H3	InChI=1S/C8H14O/c1-3-5-6-7-8-9-4-2/h4,6-8H2,1-2H3
