14
gdb 128562	4.09396	1.18624	0.92513	3.2059	72.69	-0.2405	-0.0942	0.1463	1189.9362	0.099433	-469.952215	-469.944132	-469.943188	-469.985421	28.915	
C	 0.0019046634	 1.4359438206	-0.0211329247	-0.240903
O	 0.0110573971	 0.0021490971	-0.0177584697	-0.262292
C	 0.5884521682	-0.6475482143	-1.029259385	 0.502541
C	 0.628490928	-1.9933976927	-1.0814358774	-0.303213
C	 1.2683570847	-2.6286572706	-2.2036969569	 0.441551
N	 1.3674794826	-3.8817304539	-2.3615241225	-0.533031
O	 1.799276417	-1.7470722093	-3.1542949904	-0.278605
N	 1.7157999165	-0.3416389926	-3.026063084	 0.044523
N	 1.1530953364	 0.143205902	-2.0381619244	-0.190158
H	 1.0179258652	 1.8383046282	-0.0132443072	 0.147752
H	-0.5322750608	 1.8263687587	-0.8908797885	 0.147768
H	-0.518894444	 1.7142610624	 0.8950123622	 0.145506
H	 0.1969868976	-2.6159125036	-0.310123348	 0.147604
H	 1.8587850581	-4.106361862	-3.2268138535	 0.230957
69.932	122.007	154.243	191.9795	228.3188	377.1664	420.8526	435.2596	531.0756	600.3402	662.4925	741.7514	748.7582	777.7105	837.9096	880.0632	895.0833	984.1616	1024.081	1096.0458	1173.856	1197.9516	1259.8224	1315.9974	1346.7959	1484.1504	1487.0833	1495.2695	1588.3581	1689.0756	1754.1488	3050.7637	3127.9619	3159.2679	3240.2049	3496.1131
COC1=CC(=N)ON=N1	COC1=N[N]OC(=C1)[NH]	
InChI=1S/C4H5N3O2/c1-8-4-2-3(5)9-7-6-4/h2,5H,1H3	InChI=1S/C4H5N3O2/c1-8-4-2-3(5)9-7-6-4/h2,5H,1H3
