18
gdb 92188	2.66874	1.95428	1.75404	3.0499	68.97	-0.2304	0.0587	0.2891	867.3366	0.151523	-439.037597	-439.031288	-439.030344	-439.067889	27.261	
O	 0.060225468	 1.3845051244	-0.1304375857	-0.444068
C	 0.0122631743	-0.0232439551	-0.0007110932	 0.122861
C	 0.6965543259	-0.5478934527	 1.2936428908	-0.223031
C	-0.3801866636	-0.6159051759	 2.3746833739	-0.06663
N	-1.1910196473	 0.6646732148	 2.2672083132	-0.348984
C	-2.1318060228	-0.092971858	 1.3970689051	-0.061636
C	-1.6073289049	-1.4634160034	 1.8282365553	 0.115432
O	-1.4193384467	-1.9207074812	 0.4855195684	-0.302299
C	-1.4410654527	-0.5207938109	 0.0514511856	 0.063515
H	-0.294747246	 1.7197920994	 0.7086454122	 0.287396
H	 0.5087496634	-0.4341866314	-0.8848075414	 0.084956
H	 1.1250128541	-1.5405973322	 1.1303577423	 0.113216
H	 1.4994873722	 0.1382522145	 1.5768181598	 0.107847
H	-0.0039514258	-0.8393122823	 3.3745406846	 0.074833
H	-1.6503128236	 0.8593840194	 3.1531486179	 0.225112
H	-3.1714360664	 0.2315573342	 1.3552285638	 0.083876
H	-2.0826787219	-2.1930449779	 2.4865081959	 0.081497
H	-1.9932987063	-0.3825842357	-0.8795113286	 0.086107
199.8073	280.5999	378.1954	439.5778	445.6931	484.0343	599.2661	640.5951	715.087	741.5408	768.5372	802.7623	822.8877	842.4632	898.6801	908.1036	956.4395	976.4634	994.2458	1017.0893	1045.5609	1079.6117	1087.9617	1092.2203	1107.0914	1161.4248	1197.1157	1213.1458	1235.346	1265.9656	1293.3476	1314.4283	1319.8454	1331.9905	1353.5841	1367.2503	1388.542	1459.8483	1469.6643	3056.864	3067.6263	3088.7744	3098.9475	3100.3598	3112.4736	3118.0763	3497.3829	3674.4896
OC1CC2NC3C2OC13	O[C@H]1C[C@H]2N[C@@H]3[C@H]2O[C@H]13	
InChI=1S/C6H9NO2/c8-3-1-2-5-4(7-2)6(3)9-5/h2-8H,1H2	InChI=1S/C6H9NO2/c8-3-1-2-5-4(7-2)6(3)9-5/h2-8H,1H2/t2-,3+,4-,5+,6-/m1/s1
