18
gdb 68465	2.44799	2.02145	1.34853	3.1671	72.77	-0.2582	0.024	0.2823	965.9251	0.149839	-439.096818	-439.089508	-439.088564	-439.12823	29.826	
O	 0.0317733543	 1.3946529229	-0.0269784266	-0.491029
C	 0.0025803545	 0.0142376225	 0.0214544416	 0.361365
C	 0.297945105	-0.7260509415	 1.3619241102	-0.283082
C	-0.62887233	-1.8385071074	 0.8048550089	-0.052334
C	-1.3626308247	-0.7392100419	-0.0075642707	-0.28312
C	 0.1640012747	-2.7227559247	-0.1480584278	-0.079166
O	 0.9394760152	-1.9531161887	-1.0953349596	-0.259228
C	 0.8863217291	-0.6018680044	-1.0444489225	 0.379483
N	 1.5293180307	 0.1529550546	-1.8319548471	-0.573157
H	 0.632652181	 1.618304597	-0.7589694654	 0.292521
H	 1.3344301834	-0.9744772711	 1.6058600025	 0.104205
H	-0.1641123029	-0.1867207527	 2.1912453141	 0.115819
H	-1.2011848215	-2.4499302603	 1.504683963	 0.081794
H	-2.0939107718	-0.2020036614	 0.5997140931	 0.115811
H	-1.7969999481	-0.9992947337	-0.9766896011	 0.104195
H	 0.8726891937	-3.358119617	 0.3951699633	 0.119054
H	-0.4982358007	-3.3686994169	-0.7356248005	 0.119046
H	 2.086610438	-0.3744492553	-2.5028363156	 0.227822
126.26	174.9758	326.7685	356.4745	383.222	408.0337	448.3052	485.659	502.5029	615.0516	677.255	704.2515	825.5689	838.5605	866.4218	875.9983	884.5478	952.3923	962.5341	1011.9191	1026.8967	1032.0636	1077.7123	1104.2654	1158.4164	1174.9248	1179.6806	1226.5543	1238.1696	1267.1967	1287.662	1341.5379	1358.7789	1430.2918	1456.5353	1478.1361	1512.812	1518.6094	1749.8072	3032.7642	3059.1387	3063.1402	3074.3447	3097.5575	3125.5985	3128.3174	3501.2451	3643.0332
OC12CC(C1)COC2=N	O[C@@]12C[C@@H](C1)CO[C]2[NH]	
InChI=1S/C6H9NO2/c7-5-6(8)1-4(2-6)3-9-5/h4,7-8H,1-3H2	InChI=1S/C6H9NO2/c7-5-6(8)1-4(2-6)3-9-5/h4,7-8H,1-3H2/t4-,6-
