20
gdb 16752	5.21971	1.31057	1.18358	0.2527	81.05	-0.2156	0.0279	0.2435	1095.6208	0.178376	-311.877009	-311.869275	-311.868331	-311.909136	30.062	
C	 0.0918673465	 1.4771161175	 0.2783810473	-0.372812
C	-0.0563236061	 0.0042659635	-0.1424021746	-0.28633
C	-1.4735831013	-0.4886691894	-0.1226330755	 0.3283
C	-2.1697914083	-0.9760037764	-1.1570208705	-0.191545
C	-3.5191681492	-1.468079014	-0.7591622055	-0.061199
C	-3.5154323385	-2.6296136839	 0.2170048701	-0.275631
C	-3.599179533	-1.2185511546	 0.7390283411	-0.035579
C	-2.3077410376	-0.5161564724	 1.1526047427	-0.317095
H	 1.1403248616	 1.7886194324	 0.241092771	 0.1114
H	-0.4810859777	 2.1323534226	-0.3854557593	 0.119356
H	-0.2667251968	 1.6408045554	 1.2995148845	 0.118628
H	 0.3585726825	-0.1323511408	-1.1475449529	 0.099728
H	 0.5562310871	-0.6140894141	 0.5298655311	 0.100192
H	-1.7903938051	-1.0577912764	-2.1704959922	 0.0825
H	-4.3694221296	-1.3384990151	-1.4200679041	 0.081039
H	-4.4164578377	-3.2307299437	 0.2887928795	 0.10486
H	-2.589837671	-3.1844443057	 0.3371874419	 0.106526
H	-4.5297395131	-0.9083157	 1.1994465402	 0.081037
H	-1.7860047698	-1.036339422	 1.9678211115	 0.1027
H	-2.5083210228	 0.499574607	 1.5195236338	 0.103924
66.7757	131.7903	211.4769	239.8743	332.7891	351.1253	480.0014	488.3617	603.7008	691.3886	778.2625	792.9039	810.1458	849.6783	864.5001	897.6734	933.6237	965.4982	986.1749	1017.1206	1039.5814	1063.3699	1072.858	1088.1559	1102.9438	1106.3858	1187.2136	1193.0468	1219.4317	1265.9325	1299.7457	1325.6279	1352.9442	1361.6141	1381.7899	1406.903	1472.5182	1478.1174	1484.687	1497.7385	1507.0149	1700.1539	3000.8598	3008.9072	3032.157	3036.5692	3057.0246	3106.3016	3108.0237	3118.0165	3162.3021	3176.1911	3183.825	3207.1908
CCC1=CC2CC2C1	CCC1=C[C@H]2C[C@H]2C1	
InChI=1S/C8H12/c1-2-6-3-7-5-8(7)4-6/h3,7-8H,2,4-5H2,1H3	InChI=1S/C8H12/c1-2-6-3-7-5-8(7)4-6/h3,7-8H,2,4-5H2,1H3/t7-,8+/m0/s1
