16
gdb 126849	2.13488	1.60463	0.98388	4.0419	74.17	-0.2733	-0.0756	0.1977	1172.6453	0.124686	-434.07877	-434.070458	-434.069514	-434.112398	29.331	
C	-0.0086880419	 1.5417772452	-0.105210697	-0.384141
C	-0.0292363549	 0.01998973	 0.0410118137	-0.158015
N	-1.3790278064	-0.5342648042	-0.033091034	-0.018621
N	-2.0408602297	-0.7890823767	 1.099816164	-0.129111
N	-3.2395612659	-1.224936574	 0.7863222966	-0.187863
C	-3.3522373275	-1.2463494002	-0.5579810892	-0.113458
C	-2.1655717563	-0.8024701936	-1.1187628044	 0.221688
C	-1.7687867174	-0.6507538207	-2.5162478375	 0.078602
O	-2.5036102777	-0.891107592	-3.4466214618	-0.255314
H	 1.0173258263	 1.9067327619	-0.00463402	 0.135483
H	-0.3881817262	 1.8566773745	-1.0814534691	 0.13394
H	-0.6208846221	 2.0077318612	 0.670973907	 0.152154
H	 0.5826234269	-0.4622584394	-0.7261948736	 0.135098
H	 0.3551734085	-0.2822855855	 1.0168299413	 0.156353
H	-4.2467322062	-1.5756912838	-1.0609127257	 0.15588
H	-0.7287604396	-0.2964286626	-2.6836984403	 0.077324
66.4257	120.3467	159.0914	182.0697	229.1768	240.4758	343.3562	405.504	528.0046	641.4229	683.1446	715.263	794.7197	809.0305	892.55	977.4873	987.7938	1023.5458	1073.5057	1103.8036	1147.7169	1188.602	1233.8168	1268.9217	1338.6968	1358.4268	1386.5148	1412.4135	1420.4752	1481.0304	1488.5296	1490.9985	1504.8842	1559.8119	1789.4042	2892.7521	3049.5183	3073.6719	3116.9847	3129.1728	3141.2551	3280.5129
CCN1N=NC=C1C=O	CCn1nncc1C=O	
InChI=1S/C5H7N3O/c1-2-8-5(4-9)3-6-7-8/h3-4H,2H2,1H3	InChI=1S/C5H7N3O/c1-2-8-5(4-9)3-6-7-8/h3-4H,2H2,1H3
