18
gdb 116669	2.24368	0.91804	0.68314	5.4733	78.27	-0.2505	-0.0049	0.2456	1633.4333	0.146258	-435.258637	-435.248164	-435.24722	-435.295668	35.32	
C	 0.030491951	 1.4059144715	 0.0289640005	-0.255094
O	-0.0424942116	-0.0182507705	-0.0172977879	-0.188911
C	 0.5799870583	-0.6669800342	 0.9735597011	 0.149985
N	 0.5912114256	-1.9293838704	 1.0025105928	-0.223731
C	 1.259490605	-2.5448319745	 2.1390949739	-0.11339
C	 0.2693177554	-3.4638129964	 2.8870801804	-0.150579
N	-0.8169106276	-2.6457212961	 3.4181142709	-0.523596
C	 2.418468014	-3.3247842762	 1.6726906549	 0.292954
N	 3.3351582914	-3.9409716099	 1.3343876317	-0.326811
H	 1.0649542199	 1.7534547207	-0.0701789777	 0.137539
H	-0.5525149268	 1.767400712	-0.8181061545	 0.154145
H	-0.4005549508	 1.7969298937	 0.9576611315	 0.134862
H	 1.0552789659	-0.020091767	 1.7263990197	 0.090782
H	 1.6285040297	-1.7997530202	 2.8633739828	 0.113192
H	-0.0444009051	-4.2594435852	 2.1951076745	 0.114174
H	 0.7992981096	-3.934978689	 3.7207957996	 0.12012
H	-1.4170334269	-2.3528073403	 2.652790439	 0.239673
H	-1.3929892472	-3.202433608	 4.0407921369	 0.234686
36.9707	56.4322	123.6389	138.7817	141.2951	166.4382	210.1925	269.9072	293.4677	345.7911	425.2232	462.2986	493.8136	558.3012	647.1039	869.8124	873.9415	969.7085	1010.3825	1034.6785	1052.2338	1085.1754	1113.0834	1176.6396	1179.952	1205.6087	1266.7892	1290.2025	1343.4083	1357.3551	1419.0279	1423.9503	1486.5389	1495.7699	1498.8353	1499.4575	1651.9271	1758.3874	2362.0336	2967.0935	2996.2709	3005.5447	3025.6278	3083.1045	3091.8712	3153.8227	3501.6361	3580.1846
COC=NC(CN)C#N	COC=N[C@@H](CN)C#N	
InChI=1S/C5H9N3O/c1-9-4-8-5(2-6)3-7/h4-5H,2,6H2,1H3	InChI=1S/C5H9N3O/c1-9-4-8-5(2-6)3-7/h4-5H,2,6H2,1H3/t5-/m0/s1
