17
gdb 75128	2.95982	1.33894	1.00655	3.8157	71.89	-0.2241	-0.0236	0.2006	1156.1631	0.136838	-455.152382	-455.144049	-455.143105	-455.185737	31.21	
N	 0.0594470102	 1.3810091589	 0.3093603206	-0.53581
C	 0.0098531347	 0.0296877677	 0.0405776173	 0.364466
N	-1.1203184035	-0.5552787831	-0.0453727764	-0.279589
C	-1.1980288139	-2.0065129712	-0.1384152765	-0.270319
C	-0.5155811789	-2.6601938837	-1.3441055519	 0.367405
O	-1.1366527318	-3.3283302175	-2.1366070544	-0.28449
C	 1.0095375096	-2.5485929445	-1.4720778836	-0.177244
O	 1.5547054838	-1.2508121168	-1.3382956589	-0.227421
C	 1.3765714518	-0.641991888	-0.078119773	-0.176576
H	 0.8252668422	 1.9035862753	-0.0874987891	 0.254644
H	-0.8371319872	 1.8444178249	 0.2534362784	 0.25751
H	-0.7779417149	-2.4835987946	 0.7647888246	 0.108102
H	-2.2500390769	-2.2943528455	-0.1939207356	 0.129323
H	 1.4495213843	-3.2284681622	-0.7187850412	 0.106627
H	 1.2905114456	-2.9083468016	-2.4634142617	 0.137058
H	 2.1764308231	 0.0969846522	 0.0281055735	 0.113405
H	 1.4934960019	-1.3734559404	 0.738567908	 0.11291
59.1167	86.6392	227.1044	269.0037	312.0619	337.878	397.7855	434.5259	449.9243	485.8888	542.0222	598.232	655.3983	721.5824	837.0699	845.3761	871.0422	958.0581	1002.1906	1016.3265	1062.6796	1158.6161	1167.0991	1226.4104	1257.066	1273.1323	1315.3413	1332.7352	1351.3028	1379.7238	1420.5381	1467.5511	1474.9057	1486.372	1628.7569	1741.2275	1809.6071	2938.0212	2952.6067	2973.1244	3078.8439	3101.1563	3122.0413	3560.8978	3677.9952
NC1=NCC(=O)COC1	NC1=NCC(=O)COC1	
InChI=1S/C5H8N2O2/c6-5-3-9-2-4(8)1-7-5/h1-3H2,(H2,6,7)	InChI=1S/C5H8N2O2/c6-5-3-9-2-4(8)1-7-5/h1-3H2,(H2,6,7)
