19
gdb 78694	5.31565	1.08809	1.08325	1.9137	80.52	-0.2538	0.0938	0.3476	1188.0846	0.159059	-385.78962	-385.782162	-385.781218	-385.821261	30.054	
C	-0.1893064572	 1.600908642	 0.0130084567	-0.42
C	-0.0407638568	 0.087709463	 0.0285290002	-0.012128
C	 1.1634906407	-0.573298335	-0.6811534856	-0.041818
C	 2.1516459451	-0.2464249885	 0.5024592177	-0.181157
C	 0.759861189	-0.5937878575	 1.161273066	-0.03753
C	 1.1034834521	-1.8354528043	 0.2557757478	-0.17668
C	 2.5842325138	-1.7022529574	 0.5693318147	 0.520518
C	 3.7926623706	-2.4486081923	 0.2475684343	-0.304021
O	 3.3009012784	-2.3344688338	 1.6048915324	-0.295725
H	 0.7583476661	 2.1049626137	 0.229234454	 0.114513
H	-0.5383529274	 1.951589827	-0.9646644455	 0.115442
H	-0.9200968045	 1.9302800499	 0.7599392566	 0.116886
H	-1.0008849432	-0.3982939453	-0.1878133748	 0.06445
H	 1.4243741335	-0.5825402809	-1.7409143966	 0.070127
H	 2.7383016339	 0.660305086	 0.6403555886	 0.080389
H	 0.5552764561	-0.626576937	 2.2320060138	 0.080222
H	 0.4855090527	-2.72106729	 0.1098408429	 0.077105
H	 3.7240462327	-3.4462827846	-0.1845304935	 0.114824
H	 4.7270285044	-1.9241583049	 0.0507961604	 0.114584
134.0582	172.6865	213.8385	268.002	321.2581	367.1936	473.5735	576.5294	598.2162	738.2428	767.4482	828.4314	833.4182	843.9269	858.2114	879.7316	892.0786	962.5571	991.5596	1012.9734	1046.5123	1047.365	1100.4872	1110.4522	1111.9908	1124.4318	1126.4048	1142.3299	1157.5066	1164.9887	1174.7891	1215.4	1239.8786	1242.8618	1306.2178	1397.9381	1413.7488	1467.3284	1493.6959	1498.5338	1558.1156	3021.6782	3028.5256	3079.5717	3090.2773	3095.6136	3100.5894	3107.044	3123.0224	3133.8617	3163.8873
CC1C2C3C1C2C31CO1	C[C@H]1[C@H]2[C@H]3[C@@H]1[C@@H]2[C@]13CO1	
InChI=1S/C8H10O/c1-3-4-6-5(3)7(4)8(6)2-9-8/h3-7H,2H2,1H3	InChI=1S/C8H10O/c1-3-4-6-5(3)7(4)8(6)2-9-8/h3-7H,2H2,1H3/t3-,4-,5+,6-,7+,8-/m1/s1
