19
gdb 41708	3.77185	1.48466	1.25837	1.3756	79.81	-0.2081	0.0176	0.2257	1037.5779	0.161999	-385.889354	-385.882433	-385.881489	-385.920321	28.707	
C	 0.2002281225	 1.2612925254	-0.3711816189	-0.102335
C	 1.4703110209	 1.885301528	 0.264824331	-0.255828
C	 2.0909876053	 0.7234781012	 1.0261852455	-0.117184
C	 2.3205281139	-0.558347963	 0.2441522598	-0.146608
C	 3.0290133474	-1.7145887319	 0.9519611807	-0.297517
C	 2.0843571566	-2.1017813273	 2.077001367	-0.073153
C	 0.9700389223	-1.3663976178	 2.0787815579	-0.185551
C	 1.0181159451	-0.3389249596	 1.0142591959	 0.474841
O	-0.1558001217	 0.130095189	 0.4248928398	-0.30864
H	-0.6561347658	 1.9401864639	-0.3952900636	 0.109664
H	 0.4064034222	 0.9373690832	-1.4006214484	 0.100685
H	 2.1206362897	 2.324957244	-0.4982494045	 0.103836
H	 1.2044707267	 2.6765953321	 0.9730582044	 0.109615
H	 2.6749074742	 0.9276255818	 1.9183168242	 0.084407
H	 2.3642304115	-0.5026431476	-0.8381608569	 0.085203
H	 3.2033073597	-2.5560385481	 0.2689706409	 0.110488
H	 4.0158132991	-1.4261095828	 1.3389243931	 0.110685
H	 2.3338232923	-2.8618049088	 2.8083414901	 0.095769
H	 0.1443015778	-1.4428559221	 2.775369512	 0.101623
182.1336	200.7041	264.8502	289.2783	378.2529	482.9398	496.4305	655.0328	710.1066	715.8712	741.424	786.5804	860.414	888.4374	889.4852	909.794	929.8638	945.6761	972.579	996.5358	1019.3453	1030.7554	1058.1953	1083.2178	1105.5499	1128.712	1177.7738	1220.0139	1228.7442	1234.8868	1264.2204	1271.3381	1303.1732	1318.9428	1380.933	1400.2607	1409.6265	1473.9908	1494.1579	1524.0513	1667.0918	3006.0166	3014.5498	3040.8338	3045.4581	3081.6569	3096.1219	3153.6601	3165.48	3194.0111	3220.0939
C1CC2C3CC=CC23O1	C1C[C@@H]2[C@H]3CC=C[C@@]23O1	
InChI=1S/C8H10O/c1-2-6-7-3-5-9-8(6,7)4-1/h1,4,6-7H,2-3,5H2	InChI=1S/C8H10O/c1-2-6-7-3-5-9-8(6,7)4-1/h1,4,6-7H,2-3,5H2/t6-,7-,8+/m1/s1
