12
gdb 45716	2.51855	1.83999	1.06322	6.3535	65.4	-0.2511	-0.1277	0.1234	1006.259	0.07829	-472.681467	-472.674259	-472.673314	-472.713727	26.354	
O	-0.0214892402	-0.0608104196	 0.0036196582	-0.295053
C	-0.0221781013	 1.1432097016	 0.0107273299	 0.364239
N	-1.1953239448	 1.8855872447	 0.0295647503	-0.379057
C	-1.2557762095	 3.262716324	 0.0370935092	 0.054808
C	-0.1802921929	 4.0766282239	 0.0270800407	-0.251115
C	 1.1738468886	 3.544049928	 0.0067520775	 0.305713
O	 2.1871918185	 4.2086367684	-0.0036830404	-0.29554
C	 1.2837297323	 1.9907166933	-0.0022835276	 0.165139
O	 2.3421984061	 1.4302693647	-0.0195314058	-0.228283
H	-2.0496551509	 1.3454271658	 0.037666895	 0.272847
H	-2.2646538525	 3.6596317378	 0.0521158241	 0.153647
H	-0.3083495235	 5.1510329175	 0.0339692889	 0.132655
56.1181	144.1959	298.0379	336.0884	349.491	439.043	457.9781	478.1528	564.2034	591.3133	661.2558	670.9767	795.3926	864.2054	875.2422	987.9959	993.0001	1076.4433	1157.6299	1241.3543	1302.2826	1417.9553	1486.8537	1671.0911	1763.711	1813.0742	1841.2102	3200.8971	3227.1242	3603.2314
O=C1NC=CC(=O)C1=O	O=C1NC=CC(=O)C1=O	
InChI=1S/C5H3NO3/c7-3-1-2-6-5(9)4(3)8/h1-2H,(H,6,9)	InChI=1S/C5H3NO3/c7-3-1-2-6-5(9)4(3)8/h1-2H,(H,6,9)
