17
gdb 26763	3.50423	1.12534	0.86091	3.6099	89.91	-0.2047	-0.0105	0.1941	1326.3177	0.134938	-380.896683	-380.887364	-380.88642	-380.931114	33.63	
C	 0.1998553576	 1.5039986178	 0.1391664105	-0.516399
C	 0.0822773977	 0.0265672398	-0.0264028433	 0.23828
C	-0.0639044906	-0.7877826248	-1.1332468895	 0.199475
C	-0.1519803521	-0.4008816699	-2.5749389828	-0.501109
N	-0.1267697524	-2.1061525145	-0.7552840665	-0.351912
C	-0.0218099236	-2.1135850828	 0.562143835	 0.169126
N	 0.1071587334	-0.83594799	 1.045383502	-0.345958
C	-0.0328892619	-3.2388247866	 1.416327338	 0.263793
C	-0.0386194322	-4.1765771218	 2.1718263222	-0.414159
H	 1.1471347781	 1.790889324	 0.612320515	 0.133383
H	 0.1567349348	 1.9973556903	-0.8336912459	 0.144532
H	-0.6110390907	 1.9149981334	 0.7532017738	 0.133383
H	-0.0863097603	 0.6820612878	-2.7082672598	 0.113923
H	 0.6547306705	-0.8633003976	-3.153549077	 0.136546
H	-1.0965919957	-0.73980453	-3.0134043356	 0.136548
H	 0.202598989	-0.5847401987	 2.0155342841	 0.266296
H	-0.0456035317	-5.0148287565	 2.8235230698	 0.194252
59.9255	108.0537	121.6587	138.3665	221.1774	267.0043	298.3842	373.516	459.8928	534.7919	545.1048	556.1127	572.051	634.7497	676.8707	681.6185	732.4	772.5947	987.5597	1013.429	1042.056	1057.2958	1065.8413	1188.8477	1203.9794	1293.5693	1390.9908	1416.561	1425.324	1446.5045	1474.6528	1481.331	1491.4884	1493.2662	1524.7254	1624.723	2232.5085	3020.1921	3036.7327	3064.9342	3090.8061	3116.7577	3131.0475	3502.5546	3659.1901
CC1=C(C)N=C(N1)C#C	Cc1c(C)nc([nH]1)C#C	
InChI=1S/C7H8N2/c1-4-7-8-5(2)6(3)9-7/h1H,2-3H3,(H,8,9)	InChI=1S/C7H8N2/c1-4-7-8-5(2)6(3)9-7/h1H,2-3H3,(H,8,9)
