16
gdb 45741	2.93523	1.67696	1.28354	1.759	68.89	-0.2701	-0.032	0.238	982.3678	0.12578	-437.925312	-437.918057	-437.917113	-437.957268	27.562	
O	-0.0009171184	-0.0250450036	 0.0070789863	-0.323516
C	 0.0189876648	 1.1661085108	 0.0116275814	 0.407853
O	-1.1482213699	 1.9358802514	 0.0308274578	-0.211455
C	-0.715509541	 3.2403508337	 0.0302449739	 0.095457
N	 0.5306866038	 3.4687536968	 0.0140896594	-0.297332
C	 1.1684074051	 2.160416247	-0.0000808112	 0.167913
C	 2.2683015261	 1.8575397428	 1.0674389238	-0.257815
C	 3.1085984559	 1.1571403225	-0.0309119813	-0.209558
C	 2.2385013288	 1.8665085618	-1.0999154906	-0.257819
H	-1.5094533661	 3.977310325	 0.0441361799	 0.157019
H	 2.7086319238	 2.798851995	 1.4023095743	 0.126793
H	 1.9580924053	 1.2690007537	 1.9327323521	 0.11885
H	 4.180193558	 1.361329516	-0.0447944091	 0.10692
H	 2.9482315822	 0.0776463805	-0.0331811025	 0.131048
H	 1.9045612176	 1.2850991315	-1.9611863888	 0.118849
H	 2.6695539039	 2.8106123349	-1.4389676553	 0.126794
103.6393	120.8342	204.7012	282.3849	304.2315	458.8403	532.2844	581.9482	680.2277	730.4294	744.7106	800.6684	821.6097	867.5635	902.7953	942.7623	945.2473	967.7768	1010.0519	1044.0227	1066.6264	1128.541	1190.0264	1199.0894	1218.2766	1254.814	1280.5294	1284.1041	1294.9777	1343.0616	1467.0103	1479.3638	1498.6966	1685.4797	1907.1778	3073.902	3076.3433	3082.4921	3124.7953	3135.7036	3147.0573	3226.0995
O=C1OC=NC11CCC1	O=C1OC=NC21CCC2	
InChI=1S/C6H7NO2/c8-5-6(2-1-3-6)7-4-9-5/h4H,1-3H2	InChI=1S/C6H7NO2/c8-5-6(2-1-3-6)7-4-9-5/h4H,1-3H2
