14
gdb 11372	6.27615	1.25984	1.06308	4.179	59.74	-0.2437	-0.0084	0.2353	1034.7266	0.107236	-415.897206	-415.889538	-415.888594	-415.929859	27.035	
O	 0.0210313475	 1.4257607612	 0.0096860503	-0.385244
C	-0.021428313	 0.0243370279	 0.0019936053	-0.173895
C	-1.4490605637	-0.4420406376	 0.0123469957	 0.380819
N	-2.491090448	 0.293797777	 0.0222149109	-0.271342
C	-3.6347858803	-0.6201539066	 0.0294871518	-0.300392
C	-3.06680829	-2.0454890971	 0.0209454716	 0.40217
O	-3.6211729759	-3.1155744725	 0.0240249729	-0.358377
N	-1.6928547254	-1.8201891927	 0.0112705548	-0.378489
H	 0.9442649183	 1.6942590017	-0.0026582876	 0.296613
H	 0.4673185326	-0.4076597556	-0.8896306614	 0.110766
H	 0.4836180491	-0.4178236834	 0.8794887692	 0.110528
H	-4.2596370923	-0.4615194801	 0.9153438684	 0.151441
H	-4.2742885262	-0.4570768877	-0.8450295311	 0.151325
H	-1.0081949227	-2.5591243545	 0.0051377792	 0.264076
45.671	137.6816	194.6791	216.7215	247.6455	380.0272	441.3029	505.7291	547.6931	634.6376	675.7774	700.3981	887.6814	963.951	974.3519	1040.735	1047.7338	1109.6339	1168.8142	1179.3581	1220.7939	1256.7434	1257.5319	1286.9478	1405.762	1439.1914	1488.0576	1509.1509	1719.0553	1856.6828	2943.5251	2960.395	3052.536	3086.9163	3648.9641	3838.7329
OCC1=NCC(=O)N1	OCC1=NCC(=O)N1	
InChI=1S/C4H6N2O2/c7-2-3-5-1-4(8)6-3/h7H,1-2H2,(H,5,6,8)	InChI=1S/C4H6N2O2/c7-2-3-5-1-4(8)6-3/h7H,1-2H2,(H,5,6,8)
