21
gdb 29686	2.40791	1.50634	0.94774	1.077	88.63	-0.1806	0.0565	0.2371	1286.3598	0.181865	-383.315939	-383.305403	-383.304459	-383.351622	37.667	
C	-0.0818499828	 1.435806758	-0.0213721152	-0.343484
N	-0.0180014902	-0.0093405266	-0.0244464503	-0.056731
C	 0.04357267	-0.8085773771	-1.1436445566	 0.30111
C	 0.0505220366	-0.2434510815	-2.5254054278	-0.500895
C	 0.0918150366	-2.1181235868	-0.7190683943	-0.34739
C	 0.0592212234	-2.1307119096	 0.7042099704	 0.264916
C	 0.0914719788	-3.3292851513	 1.602755703	-0.503568
C	-0.008722559	-0.8122922093	 1.1087782088	 0.116729
N	-0.0653297739	-0.2075897905	 2.3885153935	-0.614079
H	 0.7987878728	 1.8737655849	-0.5046166657	 0.125153
H	-0.9751025149	 1.7955688325	-0.5443999183	 0.125136
H	-0.1196839824	 1.7641747255	 1.0173427987	 0.157714
H	 0.9081442988	 0.4177644947	-2.7061200831	 0.121827
H	 0.1038766283	-1.0574889835	-3.2522274781	 0.130491
H	-0.85333903	 0.3389908142	-2.7471701918	 0.121838
H	 0.1451728063	-2.9804961897	-1.368410621	 0.080065
H	 1.0028931346	-3.9235357169	 1.4634666804	 0.120461
H	 0.0533722767	-3.0312505235	 2.6556758043	 0.09734
H	-0.7559441978	-4.0019159382	 1.4220046322	 0.120464
H	-0.883844669	-0.4968462579	 2.9130953584	 0.24145
H	 0.7500721572	-0.4248283874	 2.9513141725	 0.241451
47.406	98.3885	124.3582	155.6346	184.1855	195.595	254.0112	258.2733	273.7604	319.2736	329.0997	543.3472	583.0227	590.4614	640.3666	654.3715	741.2213	765.8349	771.3084	875.4531	991.1536	1011.8784	1057.6511	1061.2182	1084.3433	1155.0478	1170.3777	1197.4231	1201.4519	1240.211	1373.8182	1410.0256	1414.726	1425.6213	1439.0776	1470.8248	1479.3107	1486.5602	1495.2048	1501.5324	1509.6079	1514.1443	1553.4918	1625.4777	1662.1052	3009.4383	3016.1581	3024.9643	3049.7182	3062.087	3074.5904	3089.936	3118.2195	3152.0226	3228.4608	3501.449	3564.876
CN1C(C)=CC(C)=C1N	Cn1c(C)cc(C)c1N	
InChI=1S/C7H12N2/c1-5-4-6(2)9(3)7(5)8/h4H,8H2,1-3H3	InChI=1S/C7H12N2/c1-5-4-6(2)9(3)7(5)8/h4H,8H2,1-3H3
