23
gdb 99279	4.35791	0.62229	0.56542	1.5753	83.55	-0.2673	0.0193	0.2866	2033.8625	0.202722	-425.475811	-425.464374	-425.463429	-425.514493	39.559	
C	 0.0927002981	 1.395109611	 0.0144663373	-0.238874
O	-0.0376921102	-0.0261101534	-0.1064677073	-0.234526
C	-1.2871210195	-0.5083252838	 0.0693998423	 0.450065
O	-2.2410641676	 0.1913846632	 0.3010939309	-0.356739
C	-1.2996701829	-2.018546807	-0.0545114135	-0.345741
C	-2.7137695827	-2.6016906144	-0.0641510864	-0.157707
C	-2.7675866852	-4.1391081374	-0.0309098949	 0.036514
C	-4.215872198	-4.6148793852	 0.1465301104	-0.390056
C	-2.1395544168	-4.7789587495	-1.2776413134	-0.382565
H	 1.1480521034	 1.6122972566	-0.151599569	 0.131066
H	-0.5241715594	 1.9049274126	-0.7300858991	 0.139314
H	-0.2142961054	 1.7291891105	 1.0090010828	 0.13868
H	-0.732215694	-2.284855576	-0.9519845985	 0.131029
H	-0.7187886012	-2.4185207765	 0.7878033358	 0.129516
H	-3.2575673918	-2.1989709794	 0.7968671098	 0.111703
H	-3.2498106467	-2.236640614	-0.9499020814	 0.101556
H	-2.1940035701	-4.4749324109	 0.8461060768	 0.068663
H	-4.8361971298	-4.3034474846	-0.702484356	 0.113118
H	-4.2697163476	-5.7065294531	 0.2130424819	 0.108248
H	-4.6642284749	-4.199027461	 1.0547686306	 0.111822
H	-2.659962348	-4.4523926644	-2.1863505713	 0.112092
H	-1.0818595978	-4.5213519807	-1.3884305508	 0.111673
H	-2.2074061717	-5.8708992026	-1.232576157	 0.111149
15.8604	54.2348	98.6202	110.7483	118.9089	173.2631	222.8902	242.1797	247.4489	277.0773	344.6223	407.9079	415.1557	493.2035	589.2086	698.1715	780.8621	825.8817	904.9923	927.235	944.2688	964.1956	979.4626	1019.2794	1073.1628	1135.8455	1144.9285	1179.2708	1193.0639	1199.388	1215.3998	1228.8769	1301.2368	1315.8464	1360.2319	1371.3279	1399.5561	1402.0893	1423.4573	1459.3048	1473.0554	1481.5303	1484.2048	1489.6728	1496.6196	1498.4696	1505.4959	1511.3562	1819.3123	2988.926	3022.7283	3023.2615	3028.2929	3034.9334	3049.6377	3068.0619	3086.9478	3088.6151	3094.1827	3099.6024	3102.4672	3122.9577	3155.7522
COC(=O)CCC(C)C	COC(=O)CCC(C)C	
InChI=1S/C7H14O2/c1-6(2)4-5-7(8)9-3/h6H,4-5H2,1-3H3	InChI=1S/C7H14O2/c1-6(2)4-5-7(8)9-3/h6H,4-5H2,1-3H3
