25
gdb 122012	2.97184	0.59688	0.51765	1.779	87.3	-0.2566	0.073	0.3296	2236.4748	0.225926	-426.622292	-426.610334	-426.60939	-426.660709	41.713	
C	 0.3099762924	 1.3454118644	-0.2311408932	-0.37872
C	 0.4967333369	-0.1647586784	-0.0623369448	-0.165809
C	 0.7059688733	-0.5853418052	 1.3959397135	-0.157924
C	 0.8966400275	-2.09468501	 1.5717047776	-0.200251
C	 1.0349237024	-2.5258249359	 3.0328668675	 0.087838
O	-0.1158913554	-2.2013802006	 3.8088032868	-0.431797
C	 1.3407314027	-4.0184598039	 3.1801546836	-0.074495
O	 2.5682918338	-4.3043861928	 2.5488702446	-0.231288
C	 2.9351361597	-5.6594280668	 2.6438764945	-0.223204
H	 1.184867564	 1.8955600983	 0.1329558591	 0.11355
H	 0.1600547861	 1.6163561462	-1.2810435385	 0.108856
H	-0.5596178526	 1.7015964231	 0.3325364231	 0.113107
H	-0.3786937549	-0.6894605183	-0.4686025982	 0.08967
H	 1.3529760001	-0.4987636358	-0.663533602	 0.093636
H	 1.582954008	-0.0624177075	 1.8024176131	 0.092345
H	-0.1473323415	-0.2579660415	 2.0023349511	 0.100825
H	 0.0420674632	-2.6327396022	 1.1297455527	 0.073896
H	 1.7848378453	-2.4369425984	 1.028944014	 0.116769
H	 1.8560787156	-1.9670886871	 3.4980600273	 0.096473
H	-0.8813259426	-2.5915431062	 3.371575321	 0.277289
H	 1.3769552447	-4.2724417584	 4.2515077963	 0.094628
H	 0.5235645974	-4.6129773076	 2.7289165192	 0.068874
H	 3.0467384406	-5.9793629065	 3.6918873154	 0.105541
H	 2.1944264232	-6.3179622428	 2.1626935655	 0.10322
H	 3.8949392799	-5.7763818059	 2.1346836909	 0.126971
55.8378	60.8087	77.9201	110.7487	131.3332	138.3483	188.8733	233.2759	243.345	286.5176	295.326	304.5962	391.0369	446.9134	489.0047	546.3979	737.0877	792.6817	867.4045	902.6528	924.9706	996.9464	1005.6972	1029.3395	1069.8106	1075.472	1096.9562	1131.6679	1153.5199	1171.5981	1184.731	1223.1755	1232.5179	1240.1984	1275.5997	1292.6046	1324.9472	1334.7527	1343.8324	1383.4816	1400.0317	1410.3695	1414.2519	1421.7076	1480.7252	1481.3314	1485.3177	1487.4316	1499.095	1500.8405	1502.2087	1513.971	1524.3782	2925.8199	2969.9385	2979.5083	2993.2018	3007.8211	3014.1323	3016.7623	3028.7646	3034.9496	3048.4839	3057.5945	3078.3815	3095.0594	3099.9432	3113.0439	3793.1626
CCCCC(O)COC	CCCC[C@@H](O)COC	
InChI=1S/C7H16O2/c1-3-4-5-7(8)6-9-2/h7-8H,3-6H2,1-2H3	InChI=1S/C7H16O2/c1-3-4-5-7(8)6-9-2/h7-8H,3-6H2,1-2H3/t7-/m1/s1
