23
gdb 74959	2.30333	1.76972	1.3911	0.3047	89.95	-0.2207	0.032	0.2528	1084.8017	0.207734	-351.184536	-351.17616	-351.175216	-351.216641	34.441	
C	 0.0013711762	 1.496031048	 0.0290965434	-0.512264
C	-0.0729592695	 0.0045649771	-0.0173320595	 0.318592
C	-0.0823160443	-0.79825202	-1.0887061771	-0.194898
C	 0.006771152	-2.2349463442	-0.6052560138	-0.058082
C	 1.4570179673	-2.4223041868	-0.0439408738	-0.205739
C	 1.4570893875	-1.4921326355	 1.2055471052	-0.230275
C	 0.0024885453	-0.8973131942	 1.2242357299	 0.241637
C	-0.420864382	-0.2890318127	 2.5508294706	-0.493395
C	-0.7910638261	-2.1256310244	 0.7113680734	-0.234951
H	 0.9216187456	 1.835851809	 0.5231680353	 0.123604
H	-0.0160080038	 1.9252681043	-0.9768030166	 0.120885
H	-0.8308766714	 1.9289644706	 0.5977564391	 0.124183
H	-0.0272541534	-0.4903220249	-2.1268369058	 0.080812
H	-0.3021672003	-3.0033357807	-1.3151742681	 0.052513
H	 1.630502368	-3.4659148908	 0.2378614508	 0.091237
H	 2.2164918859	-2.1486185829	-0.7802250263	 0.092911
H	 1.6406642818	-2.0597230833	 2.1242435989	 0.089391
H	 2.2140365014	-0.7045181828	 1.1531619779	 0.091538
H	 0.2163943728	 0.5578082766	 2.8293405999	 0.112045
H	-1.4547334893	 0.0718068261	 2.5149642985	 0.112521
H	-0.3540481859	-1.0281587683	 3.3567222067	 0.110826
H	-1.8500594438	-1.9042857192	 0.5518964125	 0.087674
H	-0.691864914	-3.0028040909	 1.3619722691	 0.079236
153.6591	193.9976	226.6216	236.1159	248.1868	301.2402	387.9917	417.7594	478.2673	544.4484	573.3984	625.0183	714.3194	788.4741	821.3108	825.6586	847.7483	870.2762	896.9986	938.6931	952.5108	960.9136	1003.2707	1017.6997	1033.4769	1062.3654	1088.9667	1127.8128	1141.6149	1169.7743	1205.4073	1226.7652	1240.2503	1249.1619	1270.1633	1299.5685	1309.18	1331.3244	1356.6124	1410.1115	1416.9543	1477.1624	1483.0023	1487.5899	1489.4476	1497.2507	1501.6862	1512.1567	1692.6197	3012.3001	3024.1785	3033.1953	3038.8102	3052.8558	3058.1671	3081.2448	3088.7562	3091.1248	3096.47	3103.2843	3103.5194	3104.7462	3190.973
CC1=CC2CCC1(C)C2	CC1=C[C@H]2CC[C@]1(C)C2	
InChI=1S/C9H14/c1-7-5-8-3-4-9(7,2)6-8/h5,8H,3-4,6H2,1-2H3	InChI=1S/C9H14/c1-7-5-8-3-4-9(7,2)6-8/h5,8H,3-4,6H2,1-2H3/t8-,9-/m1/s1
