17
gdb 66952	2.55537	1.93237	1.41314	2.6349	71.56	-0.2251	0.0588	0.2839	946.0283	0.135219	-421.725527	-421.718244	-421.7173	-421.75684	29.672	
O	 0.0047954038	 1.3730175835	 0.1099760474	-0.455687
C	 0.0722543717	 0.0071182821	-0.0054629688	 0.239111
C	-0.9188945598	-0.9037605484	 0.7332664184	 0.051448
O	-1.0525677511	-2.113952657	-0.0107418527	-0.28859
C	 0.3912052561	-2.0286056412	-0.2263169697	-0.064439
C	 0.5460736141	-1.0530752042	 1.0028661897	-0.223069
C	 0.5374882367	-0.8331587833	-1.1757554606	 0.373066
C	 0.2930860783	-0.7283212065	-2.6404630071	-0.332825
C	 1.6940613343	-0.5363691904	-2.075773422	-0.354154
H	 0.9027951685	 1.7247023722	 0.095143152	 0.291403
H	-1.7423531513	-0.5464801091	 1.3377321791	 0.11602
H	 0.8754530895	-2.9877700865	-0.3969896871	 0.087104
H	 1.1598531131	-1.0365353274	 1.8924586388	 0.104661
H	 0.0861066349	-1.6368389416	-3.1966000998	 0.117905
H	-0.2265634644	 0.1507312806	-3.0080999839	 0.120536
H	 2.1056883143	 0.4693056717	-2.0765573594	 0.103115
H	 2.4302523112	-1.3138889746	-2.2553035841	 0.114395
165.5327	188.4118	218.2875	301.5868	352.5893	388.7083	509.2902	571.8168	622.8691	644.9823	755.3997	777.4094	792.371	821.6923	853.1725	906.4381	924.1807	936.5585	948.5629	975.1	1002.491	1008.6806	1047.0796	1053.3246	1076.0184	1113.9763	1137.6062	1179.1475	1181.29	1214.0533	1244.2525	1289.0556	1320.5308	1407.6895	1454.4269	1460.5237	1512.8969	3113.475	3128.0495	3145.3948	3192.9605	3205.2787	3214.4896	3218.393	3778.3086
OC12C3OC(C13)C21CC1	O[C@]12[C@H]3O[C@H]([C@@H]13)C12CC1	
InChI=1S/C7H8O2/c8-7-3-4(9-5(3)7)6(7)1-2-6/h3-5,8H,1-2H2	InChI=1S/C7H8O2/c8-7-3-4(9-5(3)7)6(7)1-2-6/h3-5,8H,1-2H2/t3-,4-,5+,7+/m1/s1
