18
gdb 102251	1.85323	1.28492	0.88994	4.31	73.63	-0.2897	-0.0048	0.2849	1370.2338	0.1446	-439.14131	-439.130917	-439.129973	-439.178789	35.146	
C	-0.1113651913	 1.5084906637	 0.0183601059	-0.399085
C	-0.0398547671	-0.0189279144	 0.0544249361	-0.18927
C	 0.7551729525	-0.5386207878	 1.2573264246	-0.02202
O	 0.058105278	-0.1650028461	 2.4586374799	-0.249128
C	 0.8312571817	 0.1226333554	 3.5471120154	 0.442896
C	-0.0416510619	 0.4546260359	 4.7286982034	-0.484348
O	 2.0321166121	 0.1021621964	 3.532094319	-0.335872
C	 0.8968633087	-2.0033882989	 1.2191483945	 0.279839
N	 1.0001005847	-3.1523876208	 1.1630414391	-0.31475
H	 0.8879106419	 1.9522705356	-0.0448171927	 0.126269
H	-0.6816771315	 1.8426128515	-0.8524147784	 0.127326
H	-0.6009467	 1.9002571483	 0.9136211393	 0.132496
H	-1.0440071213	-0.4540098107	 0.0883759815	 0.129282
H	 0.4430357716	-0.4033170958	-0.8503005462	 0.127745
H	 1.7581783974	-0.1016198358	 1.2879039455	 0.156222
H	-0.765249755	 1.2294085671	 4.4629659105	 0.15313
H	-0.6081886785	-0.4335783739	 5.0241528158	 0.163352
H	 0.582563088	 0.7853087702	 5.5575548569	 0.155915
20.1893	61.4082	88.5456	103.1675	141.327	179.9345	250.1024	265.5146	319.7302	391.7478	429.9296	542.1434	571.0753	607.6969	651.5967	771.2881	881.412	900.1756	977.3839	984.2069	1026.9447	1064.3908	1065.2347	1119.9552	1158.2315	1236.7244	1283.9069	1317.1714	1365.0924	1391.8513	1398.7834	1413.6881	1467.669	1474.5193	1478.3489	1498.1611	1508.0397	1840.1139	2363.1959	3043.4889	3051.2455	3059.5011	3074.102	3092.2495	3115.138	3125.6725	3126.9713	3173.2063
CCC(OC(C)=O)C#N	CC[C@@H](OC(=O)C)C#N	
InChI=1S/C6H9NO2/c1-3-6(4-7)9-5(2)8/h6H,3H2,1-2H3	InChI=1S/C6H9NO2/c1-3-6(4-7)9-5(2)8/h6H,3H2,1-2H3/t6-/m1/s1
