21
gdb 116342	2.84014	1.26769	0.97132	2.5517	77.63	-0.2417	0.0735	0.3152	1248.4753	0.184414	-424.207514	-424.199001	-424.198057	-424.240658	32.975	
O	-0.0855282812	 1.4440410816	 0.0304021022	-0.424973
C	 0.0156189756	 0.025984051	 0.0138181819	-0.083783
C	-1.3971502587	-0.5499060795	-0.0179375811	-0.006077
C	-2.1723130395	-0.0925837685	-1.2645241051	-0.097105
O	-3.4399232332	-0.7151117063	-1.3319559463	-0.240308
C	-3.339429757	-2.0976693389	-1.6252660245	-0.094722
C	-2.4012424446	-2.8623609685	-0.6914041384	-0.061922
C	-0.9300974307	-2.9592514898	-1.0196224854	-0.29521
C	-1.3922120575	-2.0654238316	 0.1052941319	-0.027296
H	 0.8025515241	 1.8112656567	 0.0075547173	 0.28754
H	 0.5775065063	-0.3229105912	-0.8676045723	 0.08544
H	 0.5440762406	-0.3471253805	 0.9058892612	 0.084144
H	-1.9352975611	-0.1481556506	 0.8501957188	 0.089162
H	-2.3461265597	 0.9835720149	-1.2202528953	 0.125521
H	-1.5910871139	-0.2997063761	-2.1814448549	 0.07618
H	-4.3556570416	-2.4917504299	-1.5381100979	 0.107768
H	-3.0217010448	-2.2277545838	-2.6741952488	 0.085979
H	-2.8467012441	-3.7191526948	-0.1967406497	 0.087481
H	-0.3988817382	-3.8694764887	-0.7634400441	 0.108733
H	-0.5977112149	-2.5023140002	-1.9473461562	 0.109875
H	-1.1818026659	-2.4282079456	 1.1078351567	 0.083573
93.371	122.6052	168.7111	246.4316	275.6444	303.1846	372.5259	386.2228	444.8559	486.9342	570.2532	685.4705	755.499	827.3037	850.2145	895.7048	928.1809	951.7335	967.3573	1002.792	1043.961	1065.3429	1072.9259	1087.3621	1102.1262	1129.5482	1134.4217	1175.8643	1180.3113	1231.4892	1239.8995	1255.0246	1267.8414	1321.3771	1334.6629	1356.596	1373.6546	1383.883	1413.8863	1427.0925	1457.0681	1491.2401	1496.7903	1508.8053	1519.423	2942.3068	2953.2401	2964.4053	2991.1859	3031.1462	3083.2048	3117.8659	3124.5071	3134.5804	3157.9001	3207.8133	3834.4588
OCC1COCC2CC12	OC[C@H]1COC[C@H]2C[C@@H]12	
InChI=1S/C7H12O2/c8-2-6-4-9-3-5-1-7(5)6/h5-8H,1-4H2	InChI=1S/C7H12O2/c8-2-6-4-9-3-5-1-7(5)6/h5-8H,1-4H2/t5-,6+,7-/m1/s1
