19
gdb 40565	3.94444	1.10706	0.94109	2.0918	77.96	-0.2386	0.0207	0.2593	1280.4484	0.161801	-419.194101	-419.18599	-419.185046	-419.227661	30.351	
C	-0.3783037619	 0.9809301742	-0.6116667685	-0.226653
N	 0.5394127546	 1.5624607602	 0.3787049395	-0.308819
C	 0.4150207075	 0.0878145622	 0.2617823656	-0.108668
C	-0.2034369717	-0.6056166662	 1.429514522	 0.44279
N	-1.4075258429	-0.4110515106	 1.7695058337	-0.316607
C	-1.9460402445	-1.1272615013	 2.9190745517	-0.152534
C	-1.1380502841	-2.3785366591	 3.2757580365	-0.233641
C	 0.339286975	-2.0110594534	 3.2690923092	-0.070015
O	 0.7185237549	-1.4218831495	 2.0183147845	-0.27069
H	-1.4290190514	 1.1129102132	-0.3780204052	 0.142684
H	-0.1160379901	 1.0241325516	-1.6655496195	 0.107301
H	 1.4004694409	 1.8540871069	-0.0784582955	 0.231672
H	 1.2544581667	-0.4514028181	-0.1673506419	 0.096692
H	-1.9828894835	-0.4386823556	 3.7748477694	 0.112061
H	-2.9865738298	-1.3895103837	 2.6978022383	 0.108951
H	-1.4224156451	-2.7763138991	 4.2553546734	 0.103231
H	-1.3181164072	-3.1645279533	 2.5335518012	 0.113763
H	 0.5632221929	-1.2938866889	 4.0701156355	 0.113395
H	 0.9890894095	-2.8803862795	 3.3965332402	 0.115087
39.9401	116.7859	172.1135	193.484	269.5522	358.2534	406.7189	504.3451	520.3114	634.2906	734.4937	816.5202	853.8994	865.3947	881.2062	906.8818	913.0561	949.1437	963.0644	978.1645	1071.1489	1097.8854	1127.1684	1133.4907	1151.1153	1184.1901	1205.8586	1232.3017	1256.4006	1262.0898	1289.8667	1302.7426	1365.956	1367.7382	1413.031	1452.3858	1479.3357	1490.5874	1501.5853	1513.9847	1752.4355	3010.7849	3020.0769	3039.3944	3057.3458	3088.6284	3098.4114	3116.1411	3155.1776	3217.3609	3490.0043
C1NC1C1=NCCCO1	C1N[C@H]1C1=NCCCO1	
InChI=1S/C6H10N2O/c1-2-7-6(9-3-1)5-4-8-5/h5,8H,1-4H2	InChI=1S/C6H10N2O/c1-2-7-6(9-3-1)5-4-8-5/h5,8H,1-4H2/t5-/m1/s1
