21
gdb 49907	5.23196	0.72471	0.70044	3.1613	84.62	-0.244	-0.0175	0.2265	1648.0326	0.181874	-387.075827	-387.066715	-387.065771	-387.11079	33.642	
O	-0.0842105563	-0.0951288544	-0.2207822372	-0.259517
C	-0.0568922838	 1.0833257544	 0.0280965115	 0.173095
C	 1.1732189829	 1.9454571926	 0.0058762881	-0.086151
C	 0.9674481734	 3.2709869888	-0.8010372664	-0.264905
C	 0.7311957283	 4.0400398563	 0.5310398991	 0.047335
C	 1.3214193389	 2.8199730983	 1.2957359545	-0.264905
C	 1.3767827261	 5.3849503935	 0.7113426845	 0.013097
C	 0.6449497778	 6.6476708654	 0.3248151068	-0.271858
C	 0.8905121691	 6.3347860959	 1.7794246708	-0.271858
H	-0.9937864957	 1.6273904426	 0.3032943464	 0.064696
H	 2.0277278109	 1.3264218228	-0.2715339309	 0.089303
H	 1.8957218663	 3.5748487237	-1.2923119612	 0.110828
H	 0.1643980807	 3.2852755403	-1.5429510798	 0.107515
H	-0.3431879184	 4.1267337433	 0.7310620319	 0.068625
H	 0.7949923462	 2.4818007223	 2.1924208733	 0.107515
H	 2.3753284202	 2.9637557833	 1.5486727749	 0.110827
H	 2.4500370016	 5.3868343418	 0.5305646434	 0.077015
H	 1.2099276979	 7.4521985083	-0.1325243854	 0.113266
H	-0.3687133439	 6.55001703	-0.0502778318	 0.111407
H	 0.0418418397	 6.0269056187	 2.3816805853	 0.111407
H	 1.6235626481	 6.9251630322	 2.317677632	 0.113266
53.0512	66.4368	87.6756	163.0841	250.0475	279.6409	308.8141	369.6115	445.3564	483.2554	658.9719	783.2255	806.2454	827.7743	854.4659	880.2128	890.647	912.1651	924.501	980.1048	982.1655	1012.5461	1054.8196	1057.4711	1079.0571	1101.179	1105.0816	1137.1117	1197.6466	1198.27	1211.8016	1223.9987	1246.973	1257.6088	1274.5309	1277.8765	1308.6149	1333.4193	1434.0583	1436.6688	1470.3797	1471.8103	1493.5721	1505.935	1829.2689	2830.629	3032.413	3054.066	3056.706	3098.4951	3107.5558	3111.7816	3122.4987	3128.9359	3134.1086	3206.9907	3222.0095
O=CC1CC(C1)C1CC1	O=C[C@H]1C[C@@H](C1)C1CC1	
InChI=1S/C8H12O/c9-5-6-3-8(4-6)7-1-2-7/h5-8H,1-4H2	InChI=1S/C8H12O/c9-5-6-3-8(4-6)7-1-2-7/h5-8H,1-4H2/t6-,8-
