20
gdb 36347	5.0175	0.79638	0.75957	4.3774	84.42	-0.2772	0.0382	0.3155	1525.8465	0.171127	-366.006057	-365.997123	-365.996179	-366.040588	33.099	
N	-0.0395737335	-0.9951245927	-1.0498565658	-0.308128
C	-0.0092421445	 0.0007563185	-0.4645030068	 0.267271
C	 0.0471742105	 1.2614382828	 0.278629908	-0.367775
C	 1.4231355799	 1.9085775964	 0.2334913953	-0.074439
C	 1.8219002632	 2.759168846	-0.9506480232	-0.339416
C	 1.5513316649	 3.3965616057	 0.3837027521	 0.356769
C	 0.4578577868	 4.4396166997	 0.6702744092	-0.29275
C	 1.5727643103	 5.3861281047	 1.2069044397	-0.207271
C	 2.5663717494	 4.1867573513	 1.2222945613	-0.294219
H	-0.7037634469	 1.9415084681	-0.1391199962	 0.150385
H	-0.2547978404	 1.0627849696	 1.3143421233	 0.150667
H	 2.2086928631	 1.3061288377	 0.6819024737	 0.101032
H	 2.8473556978	 2.6969546855	-1.3003671768	 0.118621
H	 1.0898736435	 2.9001737112	-1.7411597629	 0.116375
H	-0.1247584115	 4.7970788195	-0.1829841992	 0.103042
H	-0.2366648095	 4.1247868758	 1.4566560862	 0.100825
H	 1.854273439	 6.1471086538	 0.4755755434	 0.109934
H	 1.3799098192	 5.8768667967	 2.1627120159	 0.102638
H	 2.7056555095	 3.7672886283	 2.2239365958	 0.102795
H	 3.5504622992	 4.3531212013	 0.776172537	 0.103644
48.3935	78.9595	106.9384	179.2322	216.5772	327.1425	390.9645	395.1409	406.2814	502.5284	616.9156	706.8581	787.4833	826.8851	859.3814	876.8439	902.1484	906.9566	934.4177	937.9347	956.6649	1013.4389	1061.0053	1076.8784	1093.4072	1135.6595	1150.6705	1190.7527	1216.8776	1228.182	1251.5436	1257.0504	1274.6057	1281.6808	1316.2563	1342.4554	1427.424	1461.422	1476.7258	1480.3825	1494.7274	1507.0784	2361.3696	3035.5334	3040.6504	3047.2178	3070.5207	3075.2292	3091.1047	3096.2325	3119.09	3126.6473	3144.5315	3204.9456
N#CCC1CC11CCC1	N#CC[C@H]1CC21CCC2	
InChI=1S/C8H11N/c9-5-2-7-6-8(7)3-1-4-8/h7H,1-4,6H2	InChI=1S/C8H11N/c9-5-2-7-6-8(7)3-1-4-8/h7H,1-4,6H2/t7-/m0/s1
