19
gdb 41495	3.40387	1.63691	1.3971	2.0207	80.36	-0.2243	0.0078	0.2321	977.019	0.162286	-385.849867	-385.84327	-385.842326	-385.880477	28.047	
C	 0.0502353687	 1.5524307606	-0.094823419	-0.26368
C	 1.6135330454	 1.3889434148	 0.0087507406	-0.308521
C	 1.3149233946	 0.0547071765	 0.6516578158	 0.306902
C	 1.6005638814	-0.619805279	 1.7605074358	-0.243343
C	 0.444960294	-1.4831641283	 2.2529329496	 0.063459
C	-0.770195094	-0.5414119322	 2.4874779108	-0.243481
C	-0.9924825636	-0.8045119822	 0.9797861638	 0.035462
O	-0.278177238	-2.0766014427	 1.1325569395	-0.293499
C	-0.0766828991	-0.0013544623	 0.0515585484	-0.017571
H	-0.3473361344	 2.0817949395	 0.7746546622	 0.109785
H	-0.3453440906	 2.0025037893	-1.0079618023	 0.10239
H	 2.0609937273	 1.3002144772	-0.9873609227	 0.112966
H	 2.1760815631	 2.1259344394	 0.5869187355	 0.107911
H	 2.4637248914	-0.4405588156	 2.3938859498	 0.086449
H	 0.7128491434	-2.2244040636	 3.0083143518	 0.076939
H	-1.5546492727	-1.0190758446	 3.0774612822	 0.108274
H	-0.5801107936	 0.4736927202	 2.8410012484	 0.096727
H	-2.0165129372	-0.9378137975	 0.620815488	 0.072659
H	-0.0898356362	-0.4694160196	-0.9397142283	 0.090172
184.3115	207.2283	343.9856	397.6056	418.9577	468.2338	571.2377	623.7865	686.5224	770.9952	785.8108	831.0737	855.5131	875.6999	893.2908	897.3615	915.8438	945.519	966.3822	1001.5951	1035.9584	1064.5178	1082.0617	1091.7293	1098.8607	1140.1297	1183.6707	1200.1921	1225.7016	1234.4512	1251.0255	1254.9265	1275.0305	1312.7206	1326.0778	1342.4892	1373.1653	1474.2814	1482.0108	1488.8468	1739.3068	3036.2893	3043.3667	3063.941	3067.0404	3076.7133	3092.959	3101.6202	3124.9654	3134.6196	3175.5867
C1CC2=CC3CC(O3)C12	C1C[C]2[CH][C@H]3C[C@H](O3)[C@@H]12	
InChI=1S/C8H10O/c1-2-7-5(1)3-6-4-8(7)9-6/h3,6-8H,1-2,4H2	InChI=1S/C8H10O/c1-2-7-5(1)3-6-4-8(7)9-6/h3,6-8H,1-2,4H2/t6-,7-,8-/m0/s1
