21
gdb 88013	2.68513	1.38248	1.17256	2.0261	83.8	-0.2309	0.0728	0.3038	1167.3624	0.182603	-383.200218	-383.191452	-383.190508	-383.233514	33.883	
C	-0.1165194372	 1.2064599547	-0.3144175733	-0.316042
N	 0.2785740273	-0.1713521868	-0.0587894822	-0.132185
C	 1.70883807	-0.4402746225	 0.1016633259	-0.3231
C	 0.7757218325	-0.5055300948	 1.2583247806	 0.311025
C	 0.8529338984	 0.3381572772	 2.5472585928	-0.325092
C	 0.7375594762	-0.9879903258	 3.3674536072	-0.310884
C	 0.352274371	-1.7128107524	 2.0713117743	 0.305442
C	-0.8216040655	-2.5637055193	 1.7812034183	-0.301255
N	 0.5481944004	-3.1232419285	 1.7776832105	-0.3773
H	 0.5152540253	 1.9512686534	 0.1959209344	 0.103387
H	-0.0694798528	 1.3990353001	-1.3907857775	 0.12461
H	-1.1511495479	 1.3540633887	 0.0115772776	 0.124004
H	 2.0791683451	-1.3435101472	-0.378464897	 0.10886
H	 2.3972773791	 0.4047671087	 0.0711042883	 0.105824
H	 1.7578921794	 0.929470923	 2.6997941481	 0.10581
H	-0.0178761377	 0.9875421353	 2.6757407052	 0.109643
H	 1.7000647149	-1.3280721751	 3.7579280557	 0.113906
H	 0.0017768335	-0.9997804889	 4.1740234637	 0.105414
H	-1.4551262284	-2.9177526527	 2.5905507272	 0.113514
H	-1.3221140505	-2.4062330832	 0.8295092308	 0.123213
H	 0.8717976868	-3.2378295939	 0.8188212493	 0.231206
77.0134	133.8503	179.2542	199.4	241.5166	280.9333	329.6151	417.5099	463.1754	505.8313	557.2912	613.8235	752.561	789.4193	834.2444	886.3047	889.4549	916.9226	925.9768	947.5483	979.3905	1034.833	1044.7125	1083.9895	1101.2688	1111.4277	1125.7881	1135.2406	1161.3421	1191.1004	1201.534	1211.4068	1243.1533	1256.3194	1262.6773	1286.0747	1392.51	1432.6689	1449.1702	1475.5821	1492.1429	1493.2265	1496.2527	1509.6668	1516.8087	2973.6112	3059.2289	3067.3184	3068.1986	3077.7696	3102.7469	3103.6082	3108.6764	3125.2615	3163.268	3194.152	3479.7141
CN1CC11CCC11CN1	CN1C[C@]21CC[C@]12CN1	
InChI=1S/C7H12N2/c1-9-5-7(9)3-2-6(7)4-8-6/h8H,2-5H2,1H3	InChI=1S/C7H12N2/c1-9-5-7(9)3-2-6(7)4-8-6/h8H,2-5H2,1H3/t6-,7-,9?/m1/s1
