15
gdb 20436	4.79151	2.16306	1.54088	3.7191	65.55	-0.2483	0.0194	0.2677	790.6695	0.124049	-358.883099	-358.877178	-358.876233	-358.913257	22.43	
C	 0.0466975468	 1.5103434857	-0.0478351926	-0.220078
C	 1.5526223847	 1.8962803638	 0.0452848337	-0.173144
N	 2.1051790919	 0.6999654348	 0.6502973488	 0.066704
N	 3.3219205113	 0.402661548	 1.1505709962	-0.27826
C	 3.1615880724	-0.8837075582	 1.4522191838	 0.017819
N	 1.9360544124	-1.4181632651	 1.1669849624	-0.365813
C	 1.3029158255	-0.3768923081	 0.6567964926	 0.393608
C	-0.0196602525	-0.048619381	 0.0406652837	-0.352832
H	-0.4878555272	 1.9453036844	 0.8003477407	 0.128462
H	-0.412516879	 1.8965083814	-0.9591050753	 0.120322
H	 2.0069253418	 2.0722163666	-0.9362569869	 0.130782
H	 1.7323283702	 2.7748750311	 0.6688868582	 0.137572
H	 3.9594207373	-1.4573459806	 1.9006567965	 0.122434
H	-0.8666377094	-0.3964586965	 0.636123561	 0.137799
H	-0.1089930462	-0.5103576563	-0.9492723126	 0.134626
128.2027	197.1664	251.0588	447.3193	587.7417	672.369	692.6184	738.9993	748.2739	853.6779	901.1404	904.9767	914.3616	992.7492	1005.4877	1092.2252	1124.0782	1185.359	1195.5069	1224.6297	1231.669	1285.489	1296.5348	1309.1865	1329.0784	1363.6617	1431.5519	1480.7395	1497.9014	1504.9382	1537.1328	1570.8589	3043.825	3046.6114	3073.1798	3103.1041	3103.2972	3128.8084	3255.8365
C1CN2N=CN=C2C1	C1Cn2ncnc2C1	
InChI=1S/C5H7N3/c1-2-5-6-4-7-8(5)3-1/h4H,1-3H2	InChI=1S/C5H7N3/c1-2-5-6-4-7-8(5)3-1/h4H,1-3H2
