19
gdb 5520	2.94394	1.81574	1.22674	1.6904	79.08	-0.1895	0.0508	0.2403	1038.4708	0.166038	-327.977758	-327.969081	-327.968137	-328.011558	31.686	
C	 0.2153421406	 1.6211272018	-0.1496557146	-0.361709
C	-0.0275541946	 0.111728197	 0.0393853533	-0.301511
C	 0.6181840338	-0.4603693335	 1.2629452368	 0.214925
C	 0.1077291518	-0.7918830291	 2.5049950129	 0.205957
C	-1.3164898493	-0.6695388457	 2.9606461677	-0.507534
C	 1.1991599085	-1.268066448	 3.2944224653	-0.224639
C	 2.3333508825	-1.2130142618	 2.5236116474	-0.092988
N	 1.9726071412	-0.7196852717	 1.2957794256	-0.289281
H	 1.2847930306	 1.8444819886	-0.2248662791	 0.109236
H	-0.2692751756	 1.9866508686	-1.0610404367	 0.109115
H	-0.1790644923	 2.1865188444	 0.6998496515	 0.124298
H	-1.1047229306	-0.0759840879	 0.0907672033	 0.113119
H	 0.3261732992	-0.4240350274	-0.852667836	 0.096672
H	-1.6668765761	-1.5947676147	 3.4323417242	 0.121036
H	-1.444056083	 0.1316400841	 3.6994414231	 0.121488
H	-1.9927294731	-0.4512719722	 2.128734836	 0.11469
H	 1.1438206577	-1.6152019925	 4.3156890145	 0.083947
H	 3.3541740888	-1.4869652938	 2.7367041026	 0.110632
H	 2.5964781699	-0.591355466	 0.5184670122	 0.252549
40.9225	78.8222	146.4723	205.5414	246.0622	285.1269	363.9087	414.2588	456.8475	612.3294	637.6895	675.6532	697.1585	724.36	779.8094	819.7347	914.9363	962.5613	985.2803	1032.6297	1059.5137	1078.8175	1091.605	1127.6177	1187.8005	1250.3967	1279.6867	1322.618	1352.705	1405.7745	1417.5796	1433.438	1476.1286	1483.2785	1488.6549	1495.1867	1501.0232	1506.8634	1515.0934	1631.5395	3008.7768	3020.0117	3032.9262	3066.8834	3071.7677	3099.6947	3102.381	3112.4941	3236.8358	3266.5274	3678.6654
CCC1=C(C)C=CN1	CCc1c(C)cc[nH]1	
InChI=1S/C7H11N/c1-3-7-6(2)4-5-8-7/h4-5,8H,3H2,1-2H3	InChI=1S/C7H11N/c1-3-7-6(2)4-5-8-7/h4-5,8H,3H2,1-2H3
