16
gdb 80224	2.25898	1.59223	1.23241	4.8099	71.86	-0.2391	-0.0408	0.1983	1060.268	0.121906	-437.857319	-437.848794	-437.84785	-437.89075	30.782	
C	-0.1053922681	 1.5136247477	-0.0051974383	-0.330384
N	 0.1096777488	 0.0739201534	 0.1317441951	-0.116671
C	 1.3540505538	-0.5736086259	-0.1090700695	-0.082115
C	 2.5782902467	 0.2567690316	 0.3139821341	-0.37553
C	 1.9613771014	 0.3201330179	 1.7355452701	 0.356472
O	 2.3526282099	 0.7470497276	 2.778833365	-0.279473
C	 0.7454841894	-0.5052794282	 1.3190898736	 0.091554
C	 0.0122231009	-1.5584256688	 2.0607536819	 0.0757
O	 0.2773786453	-1.9138144124	 3.180249173	-0.244747
H	 0.7393346454	 2.1459260665	 0.2946882518	 0.128094
H	-0.3415408696	 1.7210722981	-1.052709141	 0.138402
H	-0.9714271195	 1.7868721651	 0.6024549212	 0.145793
H	 1.3728686858	-1.4543847871	-0.7414818869	 0.125641
H	 3.5060944268	-0.3221359546	 0.3410455776	 0.146965
H	 2.757707465	 1.1936808576	-0.2186400121	 0.134128
H	-0.815584432	-2.0072947684	 1.4683942743	 0.086173
85.8871	115.3147	154.1449	160.4839	231.181	278.6453	364.5065	445.7894	471.3863	506.5381	614.5468	651.5426	708.313	734.8622	852.8289	952.8289	955.6353	988.3242	1019.9202	1026.4854	1060.3425	1120.0681	1159.3066	1176.7178	1208.1334	1262.8674	1283.9046	1379.1527	1414.8135	1446.9098	1463.6852	1496.3224	1500.2579	1813.3306	1899.3523	2892.0706	3023.3031	3067.5527	3095.952	3120.4505	3126.628	3180.3182
CN1C2CC(=O)C12C=O	CN1[C@H]2CC(=O)[C@@]12C=O	
InChI=1S/C6H7NO2/c1-7-4-2-5(9)6(4,7)3-8/h3-4H,2H2,1H3	InChI=1S/C6H7NO2/c1-7-4-2-5(9)6(4,7)3-8/h3-4H,2H2,1H3/t4-,6-,7?/m0/s1
