16
gdb 69802	2.65721	1.92216	1.31325	3.3762	68.4	-0.2327	-0.038	0.1947	945.9387	0.124992	-437.857972	-437.850705	-437.849761	-437.889415	29.095	
O	 0.0967191574	 1.3832407497	-0.1481480623	-0.471854
C	-0.0171775363	 0.004594994	-0.0771015551	 0.327834
C	-0.4815244779	-0.7544609365	-1.2961924587	-0.343748
C	-1.3288715025	-0.7693462767	-0.04530415	-0.123153
C	-1.1254093478	-1.9660014158	 0.8853051491	-0.044899
N	-0.1090410545	-2.9162255542	 0.4131640391	-0.331914
C	 0.2524990929	-1.9194223704	 1.4567144942	-0.16425
C	 0.8744813665	-0.6419724768	 0.9523607551	 0.362774
O	 1.8015144773	-0.0520092459	 1.4612330192	-0.347636
H	 0.8456096646	 1.6045518156	 0.4260000947	 0.294911
H	-0.8202346411	-0.0974744132	-2.090327839	 0.127882
H	 0.0119270579	-1.6656448685	-1.6060714098	 0.149631
H	-2.2817599022	-0.2551657687	-0.0332547401	 0.105458
H	-1.9639721999	-2.3312421545	 1.4671623296	 0.102203
H	-0.2356732588	-3.8158047982	 0.8716945682	 0.243704
H	 0.5180356144	-2.25168854	 2.4531456256	 0.113057
109.7249	221.8132	278.7117	313.4937	334.737	401.7006	468.4764	534.234	586.109	606.0312	679.4795	774.439	798.3524	848.8864	860.7629	888.4471	905.8013	937.3817	978.423	997.5843	1028.058	1056.702	1086.8767	1096.3136	1138.8444	1173.6328	1205.9302	1250.9414	1288.3758	1355.5312	1376.0517	1395.073	1425.8473	1476.1045	1810.2792	3146.1466	3176.0155	3191.7246	3197.6192	3248.7502	3497.9507	3717.6892
OC12CC1C1NC1C2=O	O[C@]12C[C@H]1[C@H]1N[C@H]1C2=O	
InChI=1S/C6H7NO2/c8-5-4-3(7-4)2-1-6(2,5)9/h2-4,7,9H,1H2	InChI=1S/C6H7NO2/c8-5-4-3(7-4)2-1-6(2,5)9/h2-4,7,9H,1H2/t2-,3+,4+,6+/m0/s1
