19
gdb 70800	2.84763	1.67903	1.43595	1.2176	74.3	-0.2425	0.0768	0.3194	970.667	0.160251	-422.991252	-422.983805	-422.98286	-423.022378	31.422	
O	-0.115249972	 1.3601234118	-0.040658023	-0.489344
C	-0.0334711333	-0.0289601493	 0.0074240885	 0.406429
C	 0.399024259	-0.8019267635	 1.2953942144	-0.3808
C	-0.442360703	-1.9122354122	 0.65563466	 0.439661
O	-0.8463085572	-3.0784815096	 1.2893738744	-0.488188
C	-0.0178481727	-2.1187669854	-0.8608566858	-0.070811
C	-1.4615782275	-1.709986748	-1.268798787	-0.247994
C	-1.3901011985	-0.8457259787	-0.0031683709	-0.139184
C	 0.747294896	-0.7973412341	-1.083708895	-0.280953
H	 0.7799490142	 1.716393893	-0.036112645	 0.277814
H	 1.4665589446	-0.9536039495	 1.4885123812	 0.086145
H	-0.097492553	-0.3980567774	 2.1845155	 0.09035
H	-1.2817400942	-2.8404639175	 2.1148545361	 0.280194
H	 0.436639926	-3.0530959364	-1.1886278351	 0.069027
H	-1.601806507	-1.237630144	-2.2458318463	 0.08972
H	-2.1745648007	-2.5278649738	-1.1404715711	 0.10682
H	-2.2394825499	-0.3880873314	 0.5034058216	 0.067671
H	 0.6005347736	-0.3909066307	-2.0886670765	 0.097659
H	 1.8199422555	-0.8529491432	-0.8722839703	 0.085783
223.6109	247.1233	276.0304	282.4406	342.5416	396.0332	441.4408	483.0168	510.6218	589.5759	592.1913	678.1869	707.9715	813.7226	860.4731	877.3194	905.4271	943.1542	952.5131	993.0635	1001.1233	1007.2659	1054.7781	1087.7666	1103.0317	1121.5489	1129.3784	1153.278	1170.7936	1192.0204	1216.7304	1254.4585	1259.0472	1277.3407	1318.7169	1332.905	1371.9679	1387.4032	1486.2171	1495.4142	1522.3329	3031.3103	3045.4049	3052.2066	3090.9922	3096.9462	3113.6563	3121.4353	3123.8808	3800.3837	3805.8708
OC12CC3(O)C(CC13)C2	O[C@@]12C[C@]3(O)[C@@H](C[C@H]13)C2	
InChI=1S/C7H10O2/c8-6-2-4-1-5(6)7(4,9)3-6/h4-5,8-9H,1-3H2	InChI=1S/C7H10O2/c8-6-2-4-1-5(6)7(4,9)3-6/h4-5,8-9H,1-3H2/t4-,5+,6-,7-/m0/s1
