17
gdb 78977	3.08894	2.03545	1.76452	0.6921	68.54	-0.2405	0.0679	0.3085	824.9458	0.139163	-421.79105	-421.785054	-421.78411	-421.821052	25.966	
O	-0.0063499022	 1.4415472922	 0.0372621519	-0.440632
C	 0.0217848674	 0.0319706124	 0.0021431449	 0.14892
C	-1.3757705598	-0.5246103608	-0.2830500656	-0.115574
C	-1.7242111534	 0.0118542707	-1.6872205373	-0.06589
C	-1.4559080301	-1.3304299323	-2.3224870631	-0.090591
C	-0.3958778671	-0.248132653	-2.3765269695	-0.060793
C	 0.6356957413	-0.6144045477	-1.2734088547	-0.025676
O	 0.3891623252	-2.0007947534	-0.9911228896	-0.252756
C	-1.0371182813	-1.9241289716	-0.9652969456	 0.056711
H	 0.8954438795	 1.7549116643	 0.1565617031	 0.284837
H	 0.4828913513	-0.3968764722	 0.9011918334	 0.072685
H	-2.1239177514	-0.4935494408	 0.5050157955	 0.072902
H	-2.4187327946	 0.7951556039	-1.9565438342	 0.089643
H	-1.8872953191	-1.8246906759	-3.1832165563	 0.088247
H	-0.1312715055	 0.2343546965	-3.3063600839	 0.090285
H	 1.6904076977	-0.4470370716	-1.4879161205	 0.066756
H	-1.4748731278	-2.8454807008	-0.5892891584	 0.080926
214.2135	292.6916	309.0623	517.8282	530.6367	596.0149	688.2349	740.1058	772.8579	799.5207	821.8581	829.0649	845.7685	895.5536	906.5905	916.127	953.512	961.3917	986.3031	1002.5859	1028.1967	1039.3652	1054.0609	1084.1438	1136.4081	1152.8918	1170.0985	1199.7556	1230.4216	1238.7957	1253.6184	1276.1143	1282.7213	1318.2073	1336.1709	1366.5964	1421.6752	3026.2169	3133.0155	3148.719	3157.1228	3193.9489	3211.1798	3225.4448	3820.6232
OC1C2C3C4C3C1OC24	O[C@H]1[C@H]2[C@@H]3[C@H]4[C@@H]3[C@@H]1O[C@@H]24	
InChI=1S/C7H8O2/c8-5-4-1-2-3(1)7(5)9-6(2)4/h1-8H	InChI=1S/C7H8O2/c8-5-4-1-2-3(1)7(5)9-6(2)4/h1-8H/t1-,2+,3-,4-,5+,6-,7+/m1/s1
