21
gdb 80489	2.0832	1.43612	1.21483	0.8594	90.99	-0.226	0.0398	0.2657	1193.9921	0.181038	-349.901529	-349.892084	-349.89114	-349.935081	36.583	
C	 0.1142741827	 1.617343663	-0.37217093	-0.423575
C	 0.2531126669	 0.116914477	-0.2125611165	-0.04726
C	 1.4985187261	-0.6831690286	-0.4318678177	-0.12923
C	 2.7418572449	 0.0222227724	 0.1219857796	-0.268849
C	 2.1243198976	-0.0202939488	 1.5594798942	-0.021176
C	 2.0570966304	 1.2215712476	 2.4405302843	-0.42253
C	 0.8307937733	-0.6396403127	 0.9762496775	 0.147983
C	 0.0744896379	-1.6390432369	 1.6520008155	 0.201891
C	-0.5519287137	-2.4759321802	 2.2511857509	-0.423416
H	 1.0368148762	 2.1583878689	-0.1561497549	 0.123997
H	-0.1674353932	 1.8540550999	-1.4044823323	 0.117177
H	-0.6681982326	 2.0127323379	 0.2839963771	 0.123768
H	-0.6224427736	-0.4164958956	-0.5783791268	 0.096952
H	 1.5213639491	-1.5274766669	-1.1105634862	 0.096627
H	 3.6521633167	-0.5739990495	 0.0378167566	 0.105668
H	 2.9458143126	 1.0147566301	-0.292256254	 0.099302
H	 2.6310047314	-0.8125731003	 2.1188768313	 0.085311
H	 1.5813392948	 2.0690254574	 1.9418455564	 0.117661
H	 1.4879766715	 1.0103188233	 3.3523922529	 0.124536
H	 3.0633940971	 1.5330018751	 2.7427008651	 0.113334
H	-1.108557126	-3.213949593	 2.7729110971	 0.18183
117.6248	137.2182	150.6257	196.0643	238.0047	239.4512	290.127	331.9388	419.0832	499.0222	517.0048	530.0599	557.1835	632.7291	639.8393	669.1859	753.6906	825.4013	863.4964	888.5035	946.0979	967.3758	990.5792	1045.433	1082.7772	1093.6248	1118.4333	1122.7346	1143.8836	1175.1498	1228.047	1239.4948	1261.8247	1295.6552	1338.8643	1381.1581	1406.4636	1415.0656	1455.0061	1487.8093	1493.8259	1499.3807	1505.7445	1508.0284	2223.13	3033.8363	3035.6952	3053.0043	3054.3931	3091.0683	3093.505	3111.0092	3119.4637	3125.6229	3139.7059	3183.7978	3503.5419
CC1C2CC(C)C12C#C	C[C@H]1[C@H]2C[C@@H](C)[C@@]12C#C	
InChI=1S/C9H12/c1-4-9-6(2)5-8(9)7(9)3/h1,6-8H,5H2,2-3H3	InChI=1S/C9H12/c1-4-9-6(2)5-8(9)7(9)3/h1,6-8H,5H2,2-3H3/t6-,7+,8-,9+/m1/s1
