15
gdb 46975	3.12255	1.74601	1.20497	3.998	65.43	-0.2575	-0.0073	0.2501	966.5303	0.116202	-453.998983	-453.992236	-453.991292	-454.030653	25.155	
O	 0.1251563044	 0.0060294087	 0.1897082662	-0.368438
C	 0.0526362849	 1.1717759765	-0.0593303398	 0.477849
O	-1.104570003	 1.8921576227	-0.0526322035	-0.237445
C	-0.8179581746	 3.3040228628	-0.0706475567	-0.110704
C	 0.6200605928	 3.4070480042	-0.611592273	-0.01324
C	 1.6854569983	 4.2457399226	 0.1502713248	-0.197538
N	 2.6935825118	 3.2842298718	 0.6414257867	-0.226514
C	 2.2989605812	 2.1186147944	 0.3292488901	 0.049876
N	 1.1033976076	 2.0351766498	-0.4100790042	-0.163629
H	-1.5581563908	 3.7916047045	-0.7062341162	 0.136305
H	-0.9066011489	 3.6928261538	 0.9512145404	 0.125446
H	 0.6108845611	 3.6448472409	-1.6793146461	 0.108839
H	 2.1630383806	 4.9789343761	-0.5043475587	 0.131797
H	 1.2702245025	 4.7950518241	 1.0045919873	 0.122603
H	 2.807402522	 1.1980753371	 0.5915894727	 0.164793
92.3104	144.5423	187.4668	313.1389	434.9942	525.6458	607.5342	657.298	681.4491	769.9158	779.1041	880.9986	921.1964	942.2961	963.2356	974.8486	1044.6393	1062.2312	1091.2846	1116.4799	1202.5926	1212.7202	1245.2672	1247.7014	1309.5983	1313.1137	1339.0984	1384.0651	1396.7139	1491.8348	1520.1528	1695.9503	1894.0339	3031.707	3035.4634	3053.2511	3096.2644	3125.5069	3221.2115
O=C1OCC2CN=CN12	O=C1OC[C@H]2CN=CN12	
InChI=1S/C5H6N2O2/c8-5-7-3-6-1-4(7)2-9-5/h3-4H,1-2H2	InChI=1S/C5H6N2O2/c8-5-7-3-6-1-4(7)2-9-5/h3-4H,1-2H2/t4-/m1/s1
