19
gdb 11030	4.13776	1.7565	1.44831	1.5789	76.55	-0.2263	0.0178	0.2441	936.4632	0.166127	-327.917504	-327.909806	-327.908862	-327.948877	30.28	
C	-0.0693708621	 1.5910711168	 0.0528152697	-0.391466
C	 0.0148300211	 0.0580816873	 0.0093538709	-0.028715
C	 0.7771032054	-0.4805055988	-1.1912281545	-0.078608
C	 1.7709898687	-1.2998825271	-0.8469821499	-0.114892
C	 1.8674238596	-1.4315075528	 0.6444905994	 0.30783
C	 2.3415474301	-2.7111338016	 1.2816522335	-0.497221
N	 2.2010767985	-0.1145157381	 1.2687907009	-0.366322
C	 0.7881723837	-0.5572928453	 1.1782968115	-0.105509
H	 0.9335046757	 2.0176890903	 0.1321616739	 0.140775
H	-0.5474000439	 1.9855182304	-0.8498374083	 0.107028
H	-0.6564796712	 1.9254481384	 0.9145837287	 0.107383
H	-1.0087732923	-0.3455057474	 0.006458264	 0.075684
H	 0.5364408975	-0.1767874227	-2.2048643782	 0.09129
H	 2.4529875198	-1.7962395319	-1.5282541624	 0.091443
H	 3.4013467104	-2.8914206651	 1.0663499405	 0.124716
H	 2.2219809846	-2.6779076803	 2.3697647136	 0.112973
H	 1.7758825483	-3.5711413891	 0.9070617663	 0.12644
H	 2.5195369827	-0.2823024547	 2.2230160453	 0.218813
H	 0.2659565934	-0.7984030281	 2.0991725351	 0.078357
145.7856	206.5832	209.479	227.629	271.7141	346.6104	408.4149	496.5206	535.6126	625.8561	699.5391	759.206	799.4187	831.0806	848.2802	917.2604	922.71	956.9161	971.8644	1006.911	1048.9411	1064.7146	1091.4834	1116.8167	1119.8369	1141.6949	1165.0517	1284.0583	1301.8501	1324.3458	1342.7033	1374.6647	1397.5147	1414.6126	1438.3892	1484.4522	1493.6523	1500.7902	1504.8923	1671.9615	2991.0213	3023.8496	3035.0104	3086.1363	3097.2951	3097.5368	3127.1263	3153.002	3177.5612	3203.8948	3458.963
CC1C=CC2(C)NC12	C[C@H]1C=C[C@@]2(C)N[C@@H]12	
InChI=1S/C7H11N/c1-5-3-4-7(2)6(5)8-7/h3-6,8H,1-2H3	InChI=1S/C7H11N/c1-5-3-4-7(2)6(5)8-7/h3-6,8H,1-2H3/t5-,6-,7+/m0/s1
