23
gdb 77667	2.14562	1.56138	1.30866	1.2903	85.27	-0.2334	0.0729	0.3063	1148.4291	0.205573	-388.301029	-388.291473	-388.290528	-388.334357	37.382	
C	-0.1233669822	 1.6009999571	 0.0971290676	-0.492098
C	 0.13484801	 0.1143674989	 0.0357116502	 0.251814
C	 0.5890297018	-0.4716832082	-1.2987404531	-0.262161
C	 1.1795876592	-1.8604706371	-0.9678490383	-0.232618
C	 1.6966469846	-1.7397406112	 0.4825843934	-0.262021
C	 0.826307471	-0.6771195686	 1.1499513942	 0.271371
C	 1.3402898907	-0.0618561356	 2.430337206	-0.47998
C	-0.659206469	-0.8287321513	 0.9269172919	 0.006796
O	-1.4849668571	-0.2900685037	 1.9243052695	-0.431167
H	 0.7878902036	 2.1699678224	-0.121077754	 0.11457
H	-0.8752779988	 1.8990124488	-0.644846677	 0.107832
H	-0.4871606881	 1.9084001688	 1.0799836799	 0.125614
H	-0.2195802361	-0.5281028506	-2.0378663237	 0.088239
H	 1.361217339	 0.182790558	-1.7243687072	 0.094392
H	 0.4013536867	-2.6275966357	-1.0300301433	 0.104025
H	 1.9646889637	-2.1579091796	-1.6681070235	 0.095242
H	 1.6773734758	-2.6986659396	 1.0138727892	 0.093468
H	 2.7378520184	-1.3919355874	 0.4914176464	 0.094559
H	 2.2873110987	 0.4635213678	 2.2597124732	 0.106704
H	 0.6241714815	 0.6410089213	 2.8583158844	 0.133146
H	 1.5259849076	-0.8376017264	 3.1826996472	 0.114468
H	-1.0362045816	-1.7625905734	 0.5059921057	 0.071695
H	-2.2731551392	 0.0628340452	 1.4983373912	 0.28611
160.0637	164.0911	185.2966	204.0111	220.2276	247.6718	280.3212	308.1535	315.7538	370.8179	456.9494	508.9892	578.4473	621.0688	677.6551	690.2137	816.549	886.4433	892.4414	925.08	930.6439	986.1465	1018.7885	1021.8553	1037.2088	1080.1107	1117.6889	1134.7979	1150.8642	1197.0886	1216.9313	1247.5242	1260.7951	1263.7412	1292.168	1308.7475	1341.5595	1357.1268	1378.0014	1406.842	1417.9119	1456.3905	1486.1054	1487.9458	1491.9752	1497.7788	1500.9873	1509.3647	1519.1143	3012.9698	3017.7416	3019.4763	3026.4965	3041.8004	3052.9704	3061.3876	3070.086	3073.8673	3076.6495	3096.0472	3120.5889	3136.3688	3803.1195
CC12CCCC1(C)C2O	C[C@@]12CCC[C@]1(C)[C@H]2O	
InChI=1S/C8H14O/c1-7-4-3-5-8(7,2)6(7)9/h6,9H,3-5H2,1-2H3	InChI=1S/C8H14O/c1-7-4-3-5-8(7,2)6(7)9/h6,9H,3-5H2,1-2H3/t6-,7-,8+
