14
gdb 84333	3.13992	1.4674	1.02536	1.5852	67.47	-0.2767	-0.0632	0.2135	1074.9033	0.101115	-473.867803	-473.860253	-473.859309	-473.900187	28.324	
O	 0.375181385	 0.995442966	 0.6674385617	-0.428282
C	-0.049029716	-0.1614427838	-0.0034661522	-0.050969
C	-1.533982888	-0.15581693	-0.2145462159	-0.095718
C	-2.0712866134	-0.7468301528	-1.2802358592	-0.114587
C	-1.2428279774	-1.3609113572	-2.3160455343	 0.395856
N	-1.7154486239	-2.0845306151	-3.2360931199	-0.492706
O	 0.1298927482	-1.0802158366	-2.2898541479	-0.241047
C	 0.6998324102	-0.3121916292	-1.324055196	 0.400434
O	 1.7773484359	 0.182533053	-1.5019447989	-0.323058
H	 1.2625820129	 1.1885014452	 0.3315599043	 0.303498
H	 0.209211082	-1.0662122691	 0.5836181756	 0.126022
H	-2.1344498662	 0.3056721771	 0.5616730571	 0.139314
H	-3.1388541931	-0.8250173847	-1.441404104	 0.139783
H	-0.9767698362	-2.4080197429	-3.8629770206	 0.241458
71.5759	127.173	264.6969	296.852	373.4046	401.3936	437.2103	444.8537	508.2472	578.3813	651.1458	682.8487	768.8202	807.3118	910.2522	916.2883	934.8386	999.6546	1015.2443	1098.9669	1140.0115	1148.8917	1205.0623	1248.945	1314.9192	1354.9928	1394.923	1436.686	1698.5412	1751.5547	1852.7809	2898.132	3198.9061	3227.2522	3484.1513	3739.5523
OC1C=CC(=N)OC1=O	O[C@H]1[CH]C=C([NH])OC1=O	
InChI=1S/C5H5NO3/c6-4-2-1-3(7)5(8)9-4/h1-3,6-7H	InChI=1S/C5H5NO3/c6-4-2-1-3(7)5(8)9-4/h1-3,6-7H/t3-/m0/s1
