20
gdb 107836	3.2319	1.43027	1.23577	2.3367	77.24	-0.2205	0.0673	0.2878	1071.274	0.172969	-403.10589	-403.098116	-403.097172	-403.137994	31.054	
O	-0.0764630851	 1.4134355618	 0.1333863413	-0.424963
C	-0.0162619943	 0.006936351	-0.0665508508	-0.192882
C	-1.4280895983	-0.5232796502	-0.0241228732	 0.334973
C	-2.1649433148	-0.5163062297	 1.3410008805	-0.187799
N	-2.5830204108	-1.9523844555	 1.1904176835	-0.155203
C	-3.1239518583	-2.1179607101	-0.1940325739	-0.011351
C	-3.6362937392	-0.9005356794	-0.9565003014	-0.256278
C	-2.3811183528	-0.0009042769	-1.1116178984	-0.245471
C	-1.6632794251	-2.0590609624	 0.0017918349	-0.119901
H	 0.8212400429	 1.7578369358	 0.1328822219	 0.289792
H	 0.4432174763	-0.2384804713	-1.0392333365	 0.084
H	 0.5884317966	-0.480575738	 0.7152398057	 0.087259
H	-1.4871577611	-0.4438937885	 2.1951988585	 0.106976
H	-2.9845915143	 0.1979247225	 1.4760704606	 0.097456
H	-3.6230187245	-3.0742133437	-0.3110481687	 0.092994
H	-4.0487267699	-1.2023448202	-1.9237938324	 0.102834
H	-4.4440757345	-0.3981718448	-0.4131077729	 0.108605
H	-2.5935112852	 1.0638944426	-0.9859545618	 0.112625
H	-1.928497255	-0.1384665323	-2.1012293524	 0.091702
H	-0.9438763626	-2.8612898906	-0.1220523448	 0.084631
93.01	167.526	229.9122	260.3012	326.0834	367.9509	404.6021	439.1281	586.9727	669.1091	701.9024	754.1214	788.5656	826.5957	867.703	910.1987	939.25	955.7371	967.6152	985.2022	1015.7593	1042.2283	1053.1243	1067.9311	1110.3381	1152.3423	1173.5285	1195.3346	1201.3784	1214.7716	1243.0521	1272.0882	1277.9473	1290.8212	1300.889	1321.5113	1369.5899	1391.6013	1465.3854	1485.7585	1493.3156	1511.356	1523.6627	2954.1479	2985.4874	3031.7286	3038.6586	3047.1111	3082.1787	3098.7193	3103.4637	3161.8374	3173.7264	3832.3489
OCC12CN3C(CC1)C23	OC[C@@]12CN3[C@@H](CC1)[C@@H]23	
InChI=1S/C7H11NO/c9-4-7-2-1-5-6(7)8(5)3-7/h5-6,9H,1-4H2	InChI=1S/C7H11NO/c9-4-7-2-1-5-6(7)8(5)3-7/h5-6,9H,1-4H2/t5-,6-,7-,8?/m0/s1
