19
gdb 78194	3.02601	1.23838	1.04834	1.6239	81.91	-0.2508	0.0369	0.2877	1204.1076	0.157706	-385.822411	-385.813439	-385.812494	-385.855652	34.643	
C	-0.0204383369	 1.5473419461	 0.0166456252	-0.419165
C	 0.1015334127	 0.0371251636	 0.0553617785	-0.021554
C	 1.3534871781	-0.7575252349	-0.215989894	-0.110898
C	 0.7042194194	-0.7733615553	 1.170347254	-0.069546
C	 1.9420228925	-0.0794745585	 1.7889396169	-0.260756
C	 2.6678203479	-0.9210430276	 2.7168551987	 0.283277
C	 3.2877990416	-1.6576897298	 3.4398170751	-0.4187
C	 2.605337075	-0.0548226441	 0.3381162839	 0.13732
O	 3.80953393	-0.750296363	 0.1985609097	-0.428079
H	 0.8420274864	 2.0567970983	 0.4536380702	 0.123845
H	-0.1187191881	 1.9003485383	-1.0154774467	 0.121188
H	-0.9084688024	 1.8764712864	 0.5668919241	 0.119932
H	-0.7757294275	-0.4622878898	-0.3534471737	 0.090508
H	 1.3976335467	-1.5383184373	-0.9663509201	 0.089343
H	 0.1639662396	-1.5685771941	 1.669503703	 0.094528
H	 1.7599049909	 0.903115733	 2.2381847439	 0.099118
H	 3.8229133915	-2.2844498112	 4.1099315559	 0.199758
H	 2.7889808207	 0.9508166743	-0.0516742605	 0.088432
H	 3.8076813719	-1.4883241744	 0.8227287857	 0.281448
100.2684	140.927	173.1587	196.0617	233.3324	301.1276	330.1575	375.6843	434.6845	478.7721	560.0539	593.5428	623.9154	649.4292	725.3147	775.6616	803.2726	876.6351	896.3325	921.6886	978.8239	1001.0545	1040.9338	1068.3533	1075.6766	1100.9454	1126.0289	1151.1901	1171.4214	1208.2666	1235.4172	1274.3398	1302.5915	1336.155	1348.5397	1416.0194	1437.2545	1449.5101	1495.97	1506.0298	2224.5311	3036.3129	3041.1203	3063.5478	3093.5655	3109.633	3127.1382	3176.6993	3188.0297	3500.9899	3748.7029
CC1C2C1C(C#C)C2O	C[C@H]1[C@@H]2[C@H]1[C@@H](C#C)[C@H]2O	
InChI=1S/C8H10O/c1-3-5-6-4(2)7(6)8(5)9/h1,4-9H,2H3	InChI=1S/C8H10O/c1-3-5-6-4(2)7(6)8(5)9/h1,4-9H,2H3/t4-,5-,6-,7-,8-/m1/s1
