21
gdb 41820	2.26183	1.98038	1.47799	2.5797	76.64	-0.2483	0.0734	0.3217	991.5092	0.186769	-424.24596	-424.238697	-424.237752	-424.277334	29.914	
C	-0.0492797292	 1.3883941199	-0.3947630405	-0.078365
O	 0.9188901628	 2.0318910979	 0.4338477557	-0.267157
C	 1.8272483574	 1.0846958797	 0.989065131	 0.226322
C	 1.5182476722	-0.2367554422	 0.2693159546	-0.284155
C	 0.0178624865	-0.1055252599	-0.0492232257	-0.019023
C	-0.8840575248	-0.4824988508	 1.1391815545	-0.212469
C	-0.6709350381	 0.3418952044	 2.4205274889	-0.213932
C	 0.7412860794	 0.2563065716	 3.0113315269	-0.063722
O	 1.7387471802	 1.0565847819	 2.3880042474	-0.253378
H	-1.0315691608	 1.8324517742	-0.1964916956	 0.102187
H	 0.1944274846	 1.5623313818	-1.4530530324	 0.092007
H	 2.8411348391	 1.4511193127	 0.8004295046	 0.084947
H	 2.1004392668	-0.2793190544	-0.6565560218	 0.105541
H	 1.7774608883	-1.1128345596	 0.8679644438	 0.109619
H	-0.2616302274	-0.7175679209	-0.9118197194	 0.071022
H	-1.9323669866	-0.3914025135	 0.8287650886	 0.096027
H	-0.7259694329	-1.5440247218	 1.3733779078	 0.093009
H	-0.9180548136	 1.3958498421	 2.2553149068	 0.123493
H	-1.365949384	-0.0296026876	 3.1834870788	 0.094331
H	 0.7251582377	 0.6096966438	 4.0467292236	 0.108692
H	 1.0628251226	-0.7983481692	 3.0378459327	 0.085002
140.6961	188.4929	276.8448	312.5347	382.4413	398.5592	438.8002	484.5798	568.5139	743.6923	748.8755	802.4612	826.5156	844.3764	875.7425	911.738	937.6274	958.8707	997.5311	1005.7771	1029.1837	1039.7804	1063.8839	1108.3597	1130.2638	1161.1645	1196.447	1212.9484	1220.2579	1254.7132	1291.9615	1314.8286	1323.2105	1339.9427	1366.8633	1375.9091	1392.7994	1403.9031	1412.8987	1429.8413	1477.2654	1485.8095	1491.0227	1513.7225	1528.8926	2966.4939	2993.2561	3012.1031	3032.5212	3049.2543	3052.3856	3056.0221	3062.3922	3072.0675	3077.1137	3085.7216	3112.4204
C1OC2CC1CCCO2	C1O[C@@H]2C[C@H]1CCCO2	
InChI=1S/C7H12O2/c1-2-6-4-7(8-3-1)9-5-6/h6-7H,1-5H2	InChI=1S/C7H12O2/c1-2-6-4-7(8-3-1)9-5-6/h6-7H,1-5H2/t6-,7-/m1/s1
