19
gdb 75285	2.96276	1.70559	1.31639	1.623	79.68	-0.2163	0.0146	0.2308	1019.7017	0.160787	-385.862872	-385.855529	-385.854585	-385.894364	29.723	
C	-0.1378215356	 1.5321953404	 0.0985367916	-0.500466
C	-0.0116667948	 0.0428768756	-0.0469857338	 0.363408
C	-0.0478742457	-0.6046583089	-1.2135950308	-0.157844
C	 0.0990176826	-2.1007026014	-1.3354259048	-0.284239
C	-0.1295537	-2.8546453767	-0.0259834136	-0.070883
C	 0.7852604769	-2.7512391098	 1.1678065918	 0.087233
O	 1.4754434563	-1.5033573041	 1.1921169012	-0.303299
C	 0.1858477876	-0.7876344156	 1.1961227656	-0.008273
C	-0.5768817573	-2.1220617243	 1.220173651	-0.164647
H	 0.757566422	 1.9601876244	 0.5676453884	 0.13089
H	-0.2796225194	 2.0205114664	-0.8695152822	 0.120745
H	-0.9856198644	 1.8031231366	 0.7413829429	 0.121638
H	-0.1788117511	-0.0511341056	-2.1409530535	 0.082442
H	-0.6104718607	-2.4651274408	-2.0896547594	 0.104291
H	 1.0961702186	-2.3399343734	-1.7311718876	 0.122584
H	-0.5754056344	-3.8407435123	-0.1307904814	 0.08845
H	 1.2350531248	-3.5890027113	 1.6879737168	 0.098477
H	 0.1025941393	-0.2026986285	 2.1163742068	 0.07545
H	-1.4686137049	-2.3392675605	 1.7918000211	 0.094045
125.2824	185.4218	240.7188	294.9604	305.169	418.5239	516.868	544.0917	590.6964	697.5831	730.2843	793.107	814.4269	830.0724	876.5468	921.1237	935.6864	952.4913	987.6269	1001.0115	1029.3024	1048.9173	1061.2347	1070.4197	1074.7753	1105.9868	1144.4803	1183.0599	1229.3717	1242.8833	1269.5417	1294.2142	1336.2082	1360.4971	1381.0011	1414.3897	1428.3825	1471.2696	1479.4318	1491.3667	1734.6865	3006.9777	3012.8462	3034.4087	3058.8148	3067.2829	3108.7736	3142.4759	3148.9458	3179.421	3204.1499
CC1=CCC2C3OC1C23	CC1=CC[C@H]2[C@H]3O[C@@H]1[C@@H]23	
InChI=1S/C8H10O/c1-4-2-3-5-6-7(4)9-8(5)6/h2,5-8H,3H2,1H3	InChI=1S/C8H10O/c1-4-2-3-5-6-7(4)9-8(5)6/h2,5-8H,3H2,1H3/t5-,6-,7+,8-/m1/s1
