22
gdb 93503	2.74488	1.26822	1.03666	3.9548	82.01	-0.2328	0.0356	0.2684	1246.9454	0.195843	-404.409159	-404.399926	-404.398982	-404.442885	35.427	
C	-0.0101139305	 1.5796585132	-0.0533089332	-0.416323
C	 0.0456986833	 0.0507266286	 0.0103943686	 0.027871
C	 0.648255041	-0.5263381609	-1.275443138	-0.156547
N	 0.8395624984	-1.9670309732	-1.1854643027	-0.307922
C	 0.959525022	-2.7251850269	-0.0517267701	 0.389957
O	 1.2721778609	-3.901111701	-0.1020242641	-0.379562
C	 0.6139575586	-2.0302958448	 1.2620152251	-0.326623
C	 0.7897094102	-0.5028328394	 1.2465971638	 0.001897
C	 2.2750112309	-0.1147681551	 1.3184910661	-0.402581
H	 0.9858572101	 2.0202175679	-0.1645991841	 0.121825
H	-0.6153812982	 1.9153530614	-0.9020876317	 0.115534
H	-0.4578072615	 1.9903509736	 0.8571831074	 0.117768
H	-0.986703408	-0.3193202173	 0.0793092508	 0.080074
H	-0.0152532844	-0.3095288713	-2.1212847856	 0.108181
H	 1.60419595	-0.0243166235	-1.4904287084	 0.104777
H	 1.0954695054	-2.4645293421	-2.0267104253	 0.241875
H	-0.4312260427	-2.284510133	 1.480656205	 0.122329
H	 1.217188938	-2.5059376237	 2.0396057156	 0.122479
H	 0.2971133384	-0.0949320741	 2.1387188371	 0.072135
H	 2.8490939664	-0.5339591499	 0.4851712604	 0.126232
H	 2.416514622	 0.9697452476	 1.3137272002	 0.115754
H	 2.7194839098	-0.4997711961	 2.2415230732	 0.120869
79.1405	116.7244	176.2972	223.9232	244.3651	266.6564	302.1536	356.6671	405.5718	448.6602	515.9201	536.7718	574.934	661.7924	716.95	744.7321	838.4414	880.9897	918.1485	954.2297	958.6736	1029.8786	1033.8232	1081.5657	1100.4722	1117.15	1150.4331	1178.0063	1243.379	1260.449	1286.0018	1311.4519	1338.7804	1354.0046	1386.9942	1392.3294	1402.7621	1411.269	1417.7627	1462.6973	1487.4926	1494.3627	1498.1888	1501.0031	1511.236	1533.6133	1787.1034	2980.589	3006.1232	3014.8692	3033.5409	3036.5563	3038.3559	3041.8226	3098.8892	3100.1065	3102.6432	3105.2138	3111.8904	3600.3722
CC1CNC(=O)CC1C	C[C@H]1CNC(=O)C[C@H]1C	
InChI=1S/C7H13NO/c1-5-3-7(9)8-4-6(5)2/h5-6H,3-4H2,1-2H3,(H,8,9)	InChI=1S/C7H13NO/c1-5-3-7(9)8-4-6(5)2/h5-6H,3-4H2,1-2H3,(H,8,9)/t5-,6+/m1/s1
