16
gdb 46603	2.88984	1.79271	1.41038	3.754	68.17	-0.2504	-0.0086	0.2418	929.7766	0.126538	-437.864571	-437.857734	-437.85679	-437.895716	27.044	
O	-0.1205854207	 0.0401319882	 0.3945882509	-0.332639
C	-0.0127067068	 1.1523884758	-0.0283308988	 0.387266
O	-1.0323275641	 1.7637934945	-0.7480938162	-0.242639
C	-0.8802474698	 3.2027322357	-0.7757841697	-0.166986
C	 0.5575250634	 3.4464495506	-0.3855006527	 0.200027
C	 1.2354259024	 4.1725235478	 0.7959424641	-0.269035
C	 1.8228620913	 2.7916642178	 1.274375327	-0.280125
C	 1.0998114273	 2.1338817048	 0.0885560265	 0.079204
N	 1.5871160032	 2.7634416431	-1.1571016397	-0.376478
H	-1.1512401611	 3.5421739028	-1.7800950263	 0.128925
H	-1.574432267	 3.6480353794	-0.0542935847	 0.127545
H	 1.9531373452	 4.944385403	 0.5135199274	 0.122668
H	 0.5120153739	 4.5840780682	 1.5024617499	 0.116439
H	 2.9086129003	 2.6884701974	 1.2618558659	 0.125879
H	 1.4328834029	 2.4744836381	 2.2422440902	 0.128257
H	 1.1639097498	 2.2948699129	-1.956601064	 0.25169
134.5234	199.7703	241.074	310.884	392.8671	467.5949	572.6934	622.3343	659.4603	722.5787	762.4535	767.3749	787.4236	843.3816	926.7762	948.2608	981.228	997.3155	1011.7038	1058.1373	1108.2601	1115.3692	1132.3196	1203.8081	1227.2621	1237.0467	1250.8252	1327.5961	1349.1928	1373.9044	1395.6218	1465.9888	1483.5406	1515.0657	1878.9909	3041.3993	3076.4417	3087.6277	3088.1974	3131.9789	3151.0317	3494.6693
O=C1OCC23CCC12N3	O=C1OC[C@@]23CC[C@@]12N3	
InChI=1S/C6H7NO2/c8-4-6-2-1-5(6,7-6)3-9-4/h7H,1-3H2	InChI=1S/C6H7NO2/c8-4-6-2-1-5(6,7-6)3-9-4/h7H,1-3H2/t5-,6+/m0/s1
