20
gdb 59347	2.87543	1.17836	1.04472	2.5338	77.03	-0.2442	0.0305	0.2747	1257.3418	0.169921	-440.312554	-440.302669	-440.301725	-440.347568	35.473	
C	-0.0230379434	 1.5900365208	 0.040253693	-0.416842
C	-0.0042401208	 0.0609892457	 0.0702205823	 0.110961
O	-1.3161833682	-0.4798823402	 0.2086425403	-0.438622
C	 0.6862923515	-0.5143023298	-1.170463083	-0.153806
C	 0.694547926	-2.0626738463	-1.3451457809	-0.205326
N	-0.0686661732	-1.86566512	-2.5829259858	-0.060813
C	-0.7235268721	-2.7939841584	-3.4672087097	-0.345465
C	-0.1988214835	-0.5117703068	-2.4422838588	 0.392634
O	-0.8353374234	 0.3127133257	-3.0560245645	-0.396108
H	 0.9929852232	 1.9976127117	 0.0593560297	 0.114531
H	-0.5103536608	 1.9447010143	-0.8742573523	 0.146636
H	-0.5673918309	 1.9746482399	 0.9068741728	 0.121957
H	 0.5307816205	-0.2822934909	 0.9642327932	 0.090323
H	-1.8642353867	-0.0777795889	-0.4766730363	 0.291738
H	 1.6643118536	-0.0511925748	-1.3265008483	 0.09833
H	 1.6735981793	-2.5307454313	-1.4905613157	 0.104955
H	 0.1294993434	-2.5935876202	-0.57192595	 0.124143
H	-1.4205689693	-3.4438695053	-2.9230574819	 0.130974
H	-1.2848874787	-2.2132422041	-4.2031221236	 0.160226
H	 0.0017679134	-3.4260446511	-3.9926657205	 0.129574
72.3466	83.1714	132.8544	145.0167	181.9962	250.9312	257.1295	263.3732	337.105	405.4712	455.1583	507.6162	554.4068	642.6153	767.8719	804.609	820.8535	909.3514	971.322	1005.3473	1021.4065	1036.0955	1081.2224	1105.0471	1129.5843	1160.3692	1180.9096	1196.8447	1257.1261	1270.8793	1307.5657	1342.8601	1354.0285	1405.3608	1418.6069	1430.6621	1449.5461	1482.715	1493.2551	1503.5766	1505.4004	1527.2617	1852.3539	3015.3572	3034.1328	3036.0724	3037.5728	3068.5483	3080.1765	3092.1184	3108.455	3121.734	3129.3048	3782.093
CC(O)C1CN(C)C1=O	C[C@@H](O)[C@H]1CN(C)C1=O	
InChI=1S/C6H11NO2/c1-4(8)5-3-7(2)6(5)9/h4-5,8H,3H2,1-2H3	InChI=1S/C6H11NO2/c1-4(8)5-3-7(2)6(5)9/h4-5,8H,3H2,1-2H3/t4-,5-/m1/s1
