21
gdb 114868	2.93172	1.27865	1.20186	1.1046	77.58	-0.244	0.0768	0.3209	1174.0744	0.182907	-424.225621	-424.216998	-424.216054	-424.259613	32.542	
C	-0.334305516	 1.3671471613	 0.2287409759	-0.384219
C	-0.2002171249	-0.1534570775	 0.3358675709	-0.1962
C	 0.9830949422	-0.5692980928	 1.2100716424	 0.208037
O	 0.8525870774	-0.1071614638	 2.5477508431	-0.273149
C	 0.5657179734	-1.1974134857	 3.398857103	 0.092828
C	-0.9357661209	-1.5645004386	 3.5936643606	-0.252651
C	-0.7332323176	-2.8389451194	 2.7182647478	-0.250903
C	 0.7660292714	-2.4624580405	 2.5246503079	 0.088682
O	 1.1414048652	-1.9795634928	 1.2514748616	-0.273734
H	 0.5649927598	 1.8137682401	-0.2104664749	 0.115463
H	-1.1842362992	 1.644630743	-0.4011471577	 0.113008
H	-0.4777887277	 1.8114612955	 1.2173536047	 0.132267
H	-1.1168624777	-0.5922464969	 0.7456176892	 0.098072
H	-0.0478681762	-0.5992034714	-0.6539653548	 0.104763
H	 1.9109430168	-0.1399268342	 0.8035883697	 0.085022
H	 1.1559346406	-1.0873680396	 4.3117888059	 0.082654
H	-1.2107529065	-1.7665500401	 4.6316304529	 0.103287
H	-1.6189410735	-0.8126999529	 3.1940573154	 0.110478
H	-0.8872050078	-3.7812807026	 3.2493142387	 0.103069
H	-1.294410036	-2.8711753957	 1.7825342626	 0.111198
H	 1.4952069472	-3.2127292253	 2.8399525251	 0.082028
64.9821	70.2323	109.882	206.1534	228.6483	361.5959	391.6864	421.5777	460.2096	646.989	721.7695	734.7019	753.0908	787.7343	853.988	868.7079	902.8522	915.8388	948.4491	955.7296	1008.5871	1013.006	1066.9983	1093.1495	1124.645	1135.0171	1148.2545	1181.2944	1201.5893	1225.2763	1249.6919	1272.1725	1280.9924	1287.7694	1326.486	1344.6315	1358.6987	1383.8608	1406.8113	1420.2867	1463.7888	1476.9601	1484.5756	1496.9831	1509.1051	2994.7153	3036.8981	3039.9183	3065.281	3070.2226	3072.2784	3079.0248	3085.2538	3104.1775	3117.1484	3122.4271	3134.1237
CCC1OC2CCC2O1	CC[C@H]1O[C@H]2CC[C@H]2O1	
InChI=1S/C7H12O2/c1-2-7-8-5-3-4-6(5)9-7/h5-7H,2-4H2,1H3	InChI=1S/C7H12O2/c1-2-7-8-5-3-4-6(5)9-7/h5-7H,2-4H2,1H3/t5-,6+,7-
