21
gdb 97589	2.88416	0.73345	0.6299	1.954	88.64	-0.2478	0.0417	0.2895	1859.1854	0.180363	-387.048915	-387.038205	-387.037261	-387.087395	37.756	
C	-0.53845834	 1.3189702854	-0.1678610869	-0.364033
C	 0.5785944031	 0.2811874063	 0.0448940983	-0.315575
C	 0.9919616186	-0.3823111974	-1.1872845835	 0.072633
C	 1.3350771662	-0.917478531	-2.211425988	 0.056258
C	 1.6956255155	-1.5872787263	-3.4661107512	-0.080958
O	 1.1807263127	-2.9190173164	-3.5153253571	-0.417463
C	 1.2741595457	-0.7654604838	-4.6733895146	 0.032429
C	 2.2073131691	 0.2775328162	-5.2323588238	-0.260151
C	 1.9525419195	-0.9986738446	-5.9954737583	-0.276016
H	-0.2146731381	 2.1019000986	-0.8589244666	 0.12891
H	-1.4319414466	 0.8482145847	-0.5870990633	 0.125433
H	-0.8100107774	 1.787871972	 0.7825979584	 0.114977
H	 1.4498952826	 0.7684172566	 0.5012796857	 0.131333
H	 0.2457789424	-0.4739525029	 0.7686931523	 0.130541
H	 2.7854353184	-1.7159622446	-3.5063882514	 0.105513
H	 0.2458727582	-2.8712274251	-3.2876250236	 0.279167
H	 0.2130648355	-0.5308214958	-4.6941281352	 0.080949
H	 1.7798601453	 1.2015229607	-5.6048525	 0.111917
H	 3.17343934	 0.399833866	-4.7532595809	 0.114371
H	 2.7438215747	-1.7402308531	-6.0292768503	 0.11858
H	 1.3507476745	-0.9521178056	-6.89610458	 0.111186
8.6287	57.0228	72.7352	123.3162	176.1261	217.8019	238.4001	256.9243	300.5724	363.4694	405.596	456.8065	553.7239	573.7257	746.9464	783.8124	784.9281	833.8425	864.113	934.9121	947.3166	983.7592	1035.6311	1061.059	1076.9153	1081.1461	1103.2052	1131.4843	1141.6933	1173.1803	1194.8711	1223.7733	1263.8907	1286.0367	1300.1418	1350.2418	1408.548	1410.4809	1416.1242	1471.6196	1473.2298	1494.7359	1505.2679	1506.2438	2358.3101	3019.494	3021.4218	3043.6418	3046.5305	3116.9243	3122.6301	3131.0445	3134.4656	3140.9927	3208.7717	3223.5462	3808.6091
CCC#CC(O)C1CC1	CCC#C[C@@H](O)C1CC1	
InChI=1S/C8H12O/c1-2-3-4-8(9)7-5-6-7/h7-9H,2,5-6H2,1H3	InChI=1S/C8H12O/c1-2-3-4-8(9)7-5-6-7/h7-9H,2,5-6H2,1H3/t8-/m1/s1
