16
gdb 17417	4.28554	1.716	1.60298	2.7909	64.65	-0.2371	0.0613	0.2984	847.6713	0.129547	-383.664529	-383.657508	-383.656564	-383.695494	27.606	
O	-0.0497364168	 1.3264219802	-0.0966627561	-0.438257
C	 0.0409770844	-0.0616357821	-0.000296121	 0.05932
C	-0.4463135726	-0.760624726	 1.2674835944	-0.402791
C	-1.2372118853	-0.830485184	-0.0002250989	 0.426051
O	-2.4598587778	-0.0711952957	-0.1255976694	-0.331266
C	-3.0483480317	-1.1682727412	-0.8481179937	 0.108344
C	-2.3104532181	-1.45063637	-2.1174022578	-0.302572
C	-1.7813217603	-1.9878160989	-0.7987252339	-0.226625
H	-0.9641184867	 1.5264890213	-0.3386163064	 0.296398
H	 0.9131538596	-0.4702267196	-0.5048602755	 0.100562
H	 0.0757534553	-1.6530465463	 1.5989668916	 0.116158
H	-0.8419857104	-0.1278540545	 2.0551757893	 0.130479
H	-4.0860973245	-1.397612403	-0.6412254316	 0.113373
H	-2.765665892	-2.1966859907	-2.7615899867	 0.119073
H	-1.7922496235	-0.646484513	-2.6317979401	 0.123218
H	-1.6260026197	-3.0364271766	-0.587515484	 0.108534
124.4986	183.7313	214.7233	338.9556	406.3433	430.117	480.993	509.5608	639.8522	755.7971	800.3339	806.0971	866.364	903.1379	921.8264	958.4581	971.1317	1002.484	1023.8198	1047.1233	1053.0048	1069.78	1087.3913	1091.4577	1150.0726	1174.6613	1190.722	1271.196	1312.6419	1340.3196	1387.7482	1415.8491	1469.0921	1495.4382	3119.4846	3124.0016	3136.0143	3192.619	3208.5373	3217.3375	3220.8699	3750.8889
OC1CC11OC2CC12	O[C@H]1C[C@]21O[C@H]1C[C@@H]21	
InChI=1S/C6H8O2/c7-5-2-6(5)3-1-4(3)8-6/h3-5,7H,1-2H2	InChI=1S/C6H8O2/c7-5-2-6(5)3-1-4(3)8-6/h3-5,7H,1-2H2/t3-,4+,5+,6+/m1/s1
