20
gdb 78104	2.79636	1.15221	0.95989	2.6973	81.83	-0.2427	-0.0231	0.2196	1293.226	0.168821	-403.114896	-403.105595	-403.104651	-403.149062	34.428	
C	-0.1339582592	 1.5141370212	 0.0324831289	-0.324571
N	 0.0856550123	 0.0791269025	 0.1206599613	-0.111293
C	 1.3422442477	-0.5586031292	-0.1884892625	-0.114621
C	 2.5709864327	 0.2691547544	 0.286574527	-0.098789
C	 1.9631879417	 0.24406019	 1.7310030673	-0.328838
C	 0.7643673444	-0.5802858834	 1.2142661749	 0.337483
C	 0.0593569392	-1.6526347968	 1.991136742	-0.485587
C	 3.8564233561	-0.5038840816	 0.1933027117	 0.158748
O	 4.8375286388	-0.1463994967	-0.4071197203	-0.258839
H	 0.6973076632	 2.1382805765	 0.3880151382	 0.110708
H	-0.3303823433	 1.774020408	-1.0120475446	 0.129903
H	-1.0235173432	 1.7679049258	 0.6169720824	 0.126254
H	 1.3655280291	-1.3200528676	-0.9619220164	 0.100056
H	 2.7096034636	 1.2427235488	-0.1891400334	 0.091701
H	 2.5860948043	-0.3288848554	 2.4242918209	 0.113026
H	 1.7464945509	 1.2148474828	 2.1849125752	 0.10909
H	-0.5427939716	-1.2191849607	 2.7988031358	 0.123389
H	-0.6111574826	-2.2158744829	 1.3374717652	 0.134866
H	 0.7747014794	-2.3460036966	 2.4462269864	 0.118153
H	 3.8406956066	-1.4801773391	 0.7352389199	 0.069162
77.6338	95.2076	162.2972	193.0847	222.6033	250.7453	305.2764	321.651	364.8455	446.88	462.2167	563.026	648.0119	725.6778	800.073	846.1712	899.6518	927.827	940.8167	987.6818	1001.923	1036.1483	1067.2249	1128.9193	1150.8904	1151.427	1175.4224	1192.3091	1216.0833	1228.0429	1246.6605	1270.7307	1301.6055	1401.3022	1430.4977	1437.8321	1458.7165	1480.4634	1484.1872	1493.7864	1498.5642	1504.799	1827.1679	2841.9265	3008.0422	3028.1257	3053.9904	3078.3873	3085.6385	3087.1402	3103.6457	3109.0326	3123.2349	3158.729
CN1C2C(CC12C)C=O	CN1[C@H]2[C@@H](C[C@@]12C)C=O	
InChI=1S/C7H11NO/c1-7-3-5(4-9)6(7)8(7)2/h4-6H,3H2,1-2H3	InChI=1S/C7H11NO/c1-7-3-5(4-9)6(7)8(7)2/h4-6H,3H2,1-2H3/t5-,6-,7+,8?/m0/s1
