18
gdb 71800	3.75222	1.72038	1.56881	2.6377	73.45	-0.2193	0.0737	0.293	891.1973	0.150865	-401.902234	-401.895992	-401.895048	-401.93231	27.308	
O	-0.0115435289	 1.3498697794	 0.1561236876	-0.478348
C	 0.0084483519	-0.0238966037	-0.0234748629	 0.380172
C	-0.5361085559	-0.705093519	-1.2664548205	-0.312588
C	-0.3434497991	-2.1198954447	-0.7683784465	-0.000697
C	 1.0594099817	-2.2905637486	-0.1013768291	-0.07446
C	 0.2782122787	-3.1382091738	 0.9346423254	-0.168978
N	-0.8873839845	-2.2016362599	 0.6716599467	-0.144093
C	-0.3213223976	-0.9106596994	 1.1398123478	-0.065463
C	 1.1010677	-0.9120204364	 0.5753732101	-0.159924
H	 0.6613605827	 1.736603068	-0.4148190706	 0.284219
H	-1.5865026911	-0.4572693578	-1.4474227375	 0.117089
H	 0.0481161392	-0.4962664633	-2.1702733034	 0.093664
H	-0.704914207	-2.9449816449	-1.3798721714	 0.080533
H	 1.9437138322	-2.6404963065	-0.6366739009	 0.061306
H	 0.0300643775	-4.146215171	 0.5904463558	 0.102089
H	 0.626586928	-3.1623267782	 1.9705130156	 0.100205
H	-0.6008285219	-0.5350662973	 2.1141519968	 0.097097
H	 1.9537309043	-0.5111285029	 1.1062153269	 0.088177
258.9172	300.6758	338.0669	387.6794	475.3049	525.7415	572.3147	682.7303	694.469	758.3812	803.6185	813.8287	840.9273	871.9948	910.9706	929.4186	933.8292	946.3364	986.4613	1008.1446	1020.7608	1034.7156	1053.421	1071.7399	1122.0311	1141.7771	1175.1076	1185.9474	1214.3801	1230.889	1237.9208	1267.2238	1281.2068	1290.4221	1315.1581	1349.4604	1435.1852	1485.6692	1508.8514	3039.8732	3055.0209	3095.8577	3098.2628	3116.5414	3133.1315	3207.0037	3217.1539	3797.6794
OC12CC3C4CN3C1C24	O[C@]12C[C@H]3[C@@H]4CN3[C@H]1[C@H]24	
InChI=1S/C7H9NO/c9-7-1-4-3-2-8(4)6(7)5(3)7/h3-6,9H,1-2H2	InChI=1S/C7H9NO/c9-7-1-4-3-2-8(4)6(7)5(3)7/h3-6,9H,1-2H2/t3-,4-,5+,6-,7-/m0/s1
