18
gdb 89875	3.49156	0.97725	0.85886	3.4636	77.53	-0.2717	0.0251	0.2968	1343.1675	0.147272	-401.936957	-401.928347	-401.927402	-401.970604	32.522	
O	 0.6887041644	 0.5982585485	-0.9210829421	-0.428763
C	-0.0006925104	-0.2532550937	-0.0494801718	 0.174173
C	 0.167179147	-0.087400722	 1.4911220889	-0.343885
C	-1.3323821346	-0.3777904683	 1.6146230179	 0.359092
C	-1.945237082	-1.4762543084	 2.4155456806	-0.339011
C	-2.2624063001	-0.0228607081	 2.7589135561	-0.250346
C	-1.7153462683	 0.5669024956	 3.9467508239	 0.291877
N	-1.2550677188	 1.053072127	 4.8910016016	-0.343326
C	-1.5441053846	-0.1037481877	 0.121521601	-0.350081
H	 0.5225115126	 1.5080069722	-0.6511227452	 0.280087
H	 0.2570271064	-1.2683800767	-0.362479108	 0.102938
H	 0.865276494	-0.7516014028	 2.0048869563	 0.117237
H	 0.4054691925	 0.9484754817	 1.7590994955	 0.113418
H	-2.7557115057	-2.0538807168	 1.98351075	 0.129345
H	-1.3142141732	-2.0206447047	 3.1095925054	 0.140631
H	-3.2515497602	 0.3379891484	 2.4948633043	 0.131227
H	-1.8627712209	 0.9279150852	-0.0668625762	 0.103855
H	-2.1893588379	-0.7831367593	-0.440750618	 0.111531
58.1016	112.1961	147.1346	262.347	292.5545	326.544	347.9893	415.4516	429.0927	474.2038	549.3534	625.2435	721.9465	788.1565	824.1381	866.8728	898.8684	908.3913	958.1697	1005.9933	1029.826	1060.4221	1073.0244	1082.5232	1116.9973	1129.2157	1179.1458	1206.3339	1218.9027	1247.5181	1279.7717	1325.1626	1335.0761	1410.1337	1438.5255	1466.4913	1486.0789	1490.8722	2349.4283	3039.3392	3045.0877	3079.8576	3106.2021	3113.9169	3133.0386	3160.9264	3224.6513	3803.5715
OC1CC2(CC2C#N)C1	O[C@H]1C[C@]2(C[C@H]2C#N)C1	
InChI=1S/C7H9NO/c8-4-5-1-7(5)2-6(9)3-7/h5-6,9H,1-3H2	InChI=1S/C7H9NO/c8-4-5-1-7(5)2-6(9)3-7/h5-6,9H,1-3H2/t5-,6-,7+/m0/s1
