13
gdb 50390	3.26061	1.21704	0.99864	5.7565	65.96	-0.276	-0.0677	0.2083	1131.7425	0.08879	-452.762129	-452.754302	-452.753358	-452.795579	26.967	
O	-0.2535215416	 0.0804415861	-0.0756383685	-0.214495
C	-0.0264211967	 1.2508690193	-0.1994589852	 0.147965
C	 1.3412315392	 1.890002032	-0.006857253	-0.03308
C	 1.4323185147	 2.6497612612	 1.3587839179	-0.21467
N	 2.331179297	 1.8211353471	 2.1702243931	-0.291079
C	 2.7645463616	 0.9171296228	 1.3922271869	 0.338144
O	 2.3558564139	 0.8775752888	 0.0989404614	-0.228882
C	 3.7074943949	-0.0971018848	 1.7700860094	 0.291011
N	 4.4724376306	-0.9083788219	 2.0698991138	-0.304242
H	-0.8238508832	 1.992813273	-0.4349314849	 0.092058
H	 1.5723852648	 2.5282895577	-0.8648035448	 0.128023
H	 1.8544312247	 3.6541496909	 1.2545552288	 0.145537
H	 0.4612632201	 2.7492003076	 1.8539980552	 0.143709
55.5068	98.3039	158.0794	175.1915	258.8486	331.8611	420.593	544.6036	567.2326	697.6284	714.1102	753.6985	837.7399	903.0827	946.5844	981.2056	1019.6708	1068.1864	1094.3046	1194.6807	1240.606	1280.4247	1331.3408	1367.9818	1414.0789	1494.6593	1706.3403	1850.8859	2377.7287	2873.4853	3050.9835	3073.7741	3090.7564
O=CC1CN=C(O1)C#N	O=C[C@H]1CN=C(O1)C#N	
InChI=1S/C5H4N2O2/c6-1-5-7-2-4(3-8)9-5/h3-4H,2H2	InChI=1S/C5H4N2O2/c6-1-5-7-2-4(3-8)9-5/h3-4H,2H2/t4-/m1/s1
