17
gdb 30153	3.70956	1.24722	1.0579	3.5701	73.35	-0.2301	0.019	0.249	1131.1191	0.137441	-418.013041	-418.005145	-418.004201	-418.046037	29.705	
O	-0.0556238119	 1.1458039349	 1.2882043779	-0.420992
C	 0.0362949731	 0.1050717721	 0.3725041167	 0.142379
C	-0.5836365801	-1.2422887259	 0.6214383092	-0.351652
C	-1.151667951	-0.3338288192	-0.4572885108	-0.054687
N	-2.4091388976	 0.3060420001	-0.2084842209	-0.000382
C	-3.6014804538	-0.2952692426	 0.1510581234	-0.124573
C	-4.5284871114	 0.710510438	 0.1825925393	-0.091043
N	-3.9510878929	 1.9152126424	-0.1506449322	-0.268892
C	-2.6898861994	 1.638609262	-0.3838088817	-0.012049
H	-0.979662595	 1.2637020376	 1.5381100346	 0.297316
H	 0.9960704758	 0.1369670173	-0.1315895901	 0.120165
H	-0.0597465891	-2.1391999283	 0.3110455741	 0.127659
H	-1.1747969443	-1.3491622106	 1.5248082697	 0.131677
H	-0.982061308	-0.6053025915	-1.4952784926	 0.118862
H	-3.658915145	-1.353972431	 0.3404633337	 0.131489
H	-5.5767440136	 0.6394493206	 0.4303280375	 0.111557
H	-1.9241276459	 2.3402431839	-0.6795570878	 0.143165
58.7344	111.0149	169.5945	229.209	274.2457	366.2812	449.3315	567.4509	628.8539	676.1127	699.1716	744.2646	798.6306	816.5161	820.3684	862.3071	913.9681	941.9269	1029.1452	1029.4985	1064.2432	1076.7113	1109.7434	1126.6692	1130.3253	1141.7617	1221.8024	1267.4176	1306.2237	1326.9853	1344.036	1364.4779	1415.3614	1435.38	1483.0363	1522.4149	1545.7632	3136.4793	3140.8568	3176.4161	3227.7884	3248.0595	3253.9163	3283.0343	3794.2579
OC1CC1N1C=CN=C1	O[C@H]1C[C@H]1n1ccnc1	
InChI=1S/C6H8N2O/c9-6-3-5(6)8-2-1-7-4-8/h1-2,4-6,9H,3H2	InChI=1S/C6H8N2O/c9-6-3-5(6)8-2-1-7-4-8/h1-2,4-6,9H,3H2/t5-,6+/m1/s1
