18
gdb 77034	2.52493	1.15231	0.91656	3.4891	79.48	-0.2472	0.0066	0.2538	1306.3589	0.144894	-401.909608	-401.899904	-401.89896	-401.944656	34.596	
C	 0.16836863	 1.4490740836	 0.4550841027	-0.409208
C	-0.1308952806	 0.0300951271	 0.0290416205	-0.020786
C	 0.3653557329	-0.5946307278	-1.258809929	-0.025947
C	 1.2195630038	 0.1639316084	-2.2671952792	-0.379945
C	 2.0805904728	-0.7242868753	-3.0426680794	 0.298344
C	 2.7805014199	-1.4732793106	-3.6695196727	-0.435093
N	 0.8935063089	-0.9911588668	 0.0275805388	-0.061785
C	 2.1800045957	-0.9196303062	 0.5131833802	 0.13222
O	 2.489314857	-0.4306543982	 1.5752958513	-0.308502
H	 1.1191976575	 1.8165979518	 0.064961038	 0.130246
H	-0.6301712569	 2.1163296254	 0.1149607639	 0.12239
H	 0.2254220834	 1.5049394937	 1.5451200987	 0.153135
H	-1.0967704929	-0.334954342	 0.3784901473	 0.10518
H	-0.2748346022	-1.3431299166	-1.7242454143	 0.112062
H	 0.5512844883	 0.7104673883	-2.9455968234	 0.14342
H	 1.8325812096	 0.9170734356	-1.7610690036	 0.142394
H	 3.4052540838	-2.1269692244	-4.2264666531	 0.203874
H	 2.897827169	-1.432880076	-0.1540724567	 0.098001
55.6572	105.9635	125.421	142.7557	171.1917	229.5945	258.6192	338.6882	355.9503	450.9639	487.9919	536.3774	626.4612	634.5255	650.357	800.618	820.7279	888.2075	947.1525	984.3218	1032.8606	1052.0745	1073.0075	1105.465	1160.3251	1173.6725	1188.7521	1237.4282	1319.1582	1384.082	1393.4939	1419.1063	1422.8815	1458.0211	1463.7521	1485.7939	1498.5521	1786.0956	2241.206	2961.2416	3026.1147	3049.3076	3073.6128	3101.9094	3117.3291	3119.3255	3139.3888	3505.7471
CC1C(CC#C)N1C=O	C[C@H]1[C@@H](CC#C)N1C=O	
InChI=1S/C7H9NO/c1-3-4-7-6(2)8(7)5-9/h1,5-7H,4H2,2H3	InChI=1S/C7H9NO/c1-3-4-7-6(2)8(7)5-9/h1,5-7H,4H2,2H3/t6-,7+,8?/m0/s1
