15
gdb 21202	7.14114	1.32818	1.14078	2.3499	65.44	-0.217	-0.0105	0.2064	1032.8168	0.120298	-392.147985	-392.140063	-392.139119	-392.180619	27.193	
C	-0.1115177694	 1.3769174319	 0.0922246346	-0.321138
N	 0.2319518207	-0.0297934619	-0.0455003503	-0.368456
C	 0.7322606113	-0.71020935	 1.0291255017	 0.492355
N	 0.7734850287	-2.0424755202	 1.1095094765	-0.365148
N	 1.3860056869	-2.2031386484	 2.2873916954	 0.157525
C	 1.6802183042	-3.5029663613	 2.849169694	-0.314387
N	 1.6960064398	-1.0767525403	 2.8951733182	-0.130639
N	 1.2853568785	-0.1036065111	 2.1127087577	-0.290528
H	 0.7524540428	 1.9243168268	 0.4736973466	 0.160803
H	-0.3673402637	 1.7722028872	-0.8932891467	 0.124261
H	-0.952972881	 1.5546217549	 0.7769907235	 0.121107
H	-0.3789440752	-0.5838871338	-0.6251795199	 0.25211
H	 2.3403407254	-4.0576723901	 2.1781864391	 0.157212
H	 2.1698473118	-3.3385070664	 3.8081758263	 0.168938
H	 0.7542828689	-4.0657876271	 2.9891894834	 0.155984
88.7124	117.972	127.9732	189.674	203.6953	329.7259	366.4538	473.1565	540.9998	676.4827	706.3514	779.5918	788.2888	1031.1259	1053.3763	1061.0804	1123.4629	1151.4134	1159.4591	1172.7147	1247.1654	1331.1633	1405.6813	1422.1757	1447.8156	1449.9744	1474.38	1486.9191	1494.9505	1516.3997	1516.9931	1634.9725	3003.7574	3060.1118	3097.1977	3129.2307	3140.8097	3175.1877	3627.9874
CNC1=NN(C)N=N1	CNc1nn(C)nn1	
InChI=1S/C3H7N5/c1-4-3-5-7-8(2)6-3/h1-2H3,(H,4,6)	InChI=1S/C3H7N5/c1-4-3-5-7-8(2)6-3/h1-2H3,(H,4,6)
