18
gdb 48965	3.98573	1.30039	1.18097	3.3824	76.55	-0.2427	-0.0295	0.2132	1073.9195	0.149403	-401.934728	-401.927432	-401.926488	-401.966543	28.512	
O	-0.1994550028	 0.1202900106	 0.3922734066	-0.261978
C	 0.0031508662	 1.2297335959	-0.0395294125	 0.060065
C	 1.3357820947	 1.8586737045	-0.0924788664	 0.257677
C	 2.5557080607	 1.4120337521	 0.6930641552	-0.319827
C	 2.9160936266	 2.9166522382	 0.7989768288	 0.016722
C	 3.8871134314	 3.359529789	-0.2903550529	-0.206785
C	 3.108367516	 3.03659293	-1.5929970051	-0.250832
C	 1.6706268979	 2.92218433	-1.0990492014	-0.063708
N	 1.5218010971	 3.333255889	 0.2995311841	-0.184486
H	-0.8214846526	 1.867906137	-0.4304906015	 0.076113
H	 2.2606862682	 0.9743017622	 1.6478460689	 0.130118
H	 3.2736823109	 0.7481117615	 0.2023822241	 0.103847
H	 3.1237315456	 3.3031242033	 1.7957528753	 0.087504
H	 4.0772819709	 4.4345586128	-0.2118263341	 0.113408
H	 4.8473143554	 2.8403134607	-0.2239908695	 0.109171
H	 3.1996254729	 3.8330412103	-2.3357353947	 0.115229
H	 3.4503093099	 2.1111077715	-2.0658610082	 0.11776
H	 0.8584998109	 3.2427687116	-1.7451405969	 0.100002
97.9267	166.7469	205.1174	259.9189	369.5893	395.568	466.4469	635.2826	693.1176	719.78	759.3764	804.4636	827.4925	847.0549	867.2931	926.6317	950.3535	986.5165	1022.3379	1024.4053	1040.817	1069.2245	1108.0922	1133.8269	1169.2152	1222.7563	1233.7539	1252.3482	1258.378	1284.4809	1331.2993	1332.0928	1345.4808	1396.6506	1430.6838	1481.1924	1493.2865	1507.1744	1806.9505	2877.5251	3052.3534	3055.2181	3060.6107	3093.3561	3108.9802	3120.5166	3130.4997	3158.2981
O=CC12CC3CCC1N23	O=C[C@@]12C[C@H]3CC[C@@H]1N23	
InChI=1S/C7H9NO/c9-4-7-3-5-1-2-6(7)8(5)7/h4-6H,1-3H2	InChI=1S/C7H9NO/c9-4-7-3-5-1-2-6(7)8(5)7/h4-6H,1-3H2/t5-,6+,7+,8?/m1/s1
