17
gdb 55497	3.56425	0.60548	0.55889	2.2507	79.08	-0.2439	-0.0356	0.2083	1928.8781	0.130988	-421.828268	-421.817673	-421.816729	-421.867544	34.9	
C	 0.9239341214	-0.376296382	-0.5681396036	-0.472996
C	 0.060218517	-0.0253302686	 0.6229052063	 0.393673
O	 0.445847202	 0.6616209275	 1.5356306347	-0.28428
C	-1.3949561591	-0.5461302768	 0.620320106	-0.442922
C	-1.5866845944	-1.8833901882	 0.0789197967	 0.079217
C	-1.7479079858	-2.9897633746	-0.3693463169	 0.034875
C	-1.8949509024	-4.344920894	-0.8802599624	-0.412179
C	-0.8118308532	-5.2857356302	-0.3451215137	 0.169816
O	-0.2738767145	-6.1272192917	-1.0105678405	-0.227146
H	 1.8714938823	 0.1590330886	-0.5054717973	 0.144322
H	 1.1051836735	-1.4557243097	-0.5883974216	 0.155783
H	 0.4097910532	-0.130330833	-1.5037916697	 0.140949
H	-1.7619363635	-0.4712074621	 1.648506474	 0.156558
H	-1.9760802174	 0.1774486454	 0.028659876	 0.15559
H	-2.8622775618	-4.7641169033	-0.5626005805	 0.15793
H	-1.8737463966	-4.3856121167	-1.9741136424	 0.155084
H	-0.5668033209	-5.1341511607	 0.7284879049	 0.095726
16.5109	30.4194	43.5272	89.5323	137.8332	139.0394	240.3722	305.4271	365.4128	403.9153	451.379	476.0061	517.3337	570.5107	724.5499	760.0422	831.7874	852.5956	1003.0733	1033.6274	1041.6678	1049.3593	1160.6504	1190.0772	1211.2016	1230.4176	1288.8889	1302.0699	1383.1751	1414.709	1441.2026	1442.2705	1458.5335	1472.0165	1824.8111	1842.036	2365.9603	2901.6726	3001.7778	3006.5694	3044.3049	3080.7446	3084.1783	3106.3395	3159.3492
CC(=O)CC#CCC=O	CC(=O)CC#CCC=O	
InChI=1S/C7H8O2/c1-7(9)5-3-2-4-6-8/h6H,4-5H2,1H3	InChI=1S/C7H8O2/c1-7(9)5-3-2-4-6-8/h6H,4-5H2,1H3
