19
gdb 100176	2.05977	1.48356	1.09315	3.4687	72.41	-0.2464	-0.0333	0.2131	1190.6868	0.153308	-460.177468	-460.16643	-460.165486	-460.214347	37.774	
C	-0.1918674061	 1.3082279087	 0.1600734249	-0.256514
O	-0.0009960894	-0.0953260989	 0.0492874418	-0.291091
C	 0.671738843	-0.5651700718	-1.1180785494	 0.184442
C	 0.0929862096	-0.043772386	-2.437050634	-0.448628
C	 2.1579458785	-0.1788387509	-0.9616032036	 0.150024
O	 2.6917091789	 0.7038708396	-1.5786455736	-0.251621
C	 0.5832701244	-2.0999336632	-1.0985981592	 0.35109
C	-0.6054651363	-2.7383843731	-0.4240555368	-0.481338
O	 1.4660612074	-2.7321690633	-1.6340001698	-0.306748
H	 0.7468469126	 1.865560568	 0.0512729923	 0.132533
H	-0.9112049448	 1.6837735379	-0.5778173679	 0.12095
H	-0.5924906228	 1.4800807267	 1.1613785104	 0.13523
H	 0.3344109947	 1.0120481781	-2.5727000887	 0.145614
H	 0.5384264769	-0.5932058662	-3.2697550032	 0.150852
H	-0.9919571975	-0.1785779556	-2.4620243809	 0.12382
H	 2.6844575128	-0.7346931411	-0.1585854603	 0.097889
H	-1.5404645443	-2.2995122953	-0.7859687829	 0.142655
H	-0.5912422712	-3.8137543395	-0.6044061565	 0.140403
H	-0.5671387765	-2.5335940842	 0.6503909674	 0.160437
39.9309	56.3713	115.2842	136.239	172.501	187.6077	211.116	245.7287	266.1692	292.207	344.3978	368.287	425.2315	544.5265	587.5764	600.6512	744.692	839.6279	909.9582	969.9998	980.0543	1024.0125	1084.9554	1124.3272	1151.1531	1182.2055	1199.6009	1217.179	1289.6849	1380.8993	1390.9237	1419.5545	1453.7631	1463.6689	1474.5973	1483.2098	1490.894	1497.2754	1515.2633	1801.4594	1832.5036	2922.9786	3012.9184	3048.6863	3053.0281	3073.7612	3112.3593	3125.3889	3131.993	3140.4301	3157.7546
COC(C)(C=O)C(C)=O	CO[C@@](C)(C=O)C(=O)C	
InChI=1S/C6H10O3/c1-5(8)6(2,4-7)9-3/h4H,1-3H3	InChI=1S/C6H10O3/c1-5(8)6(2,4-7)9-3/h4H,1-3H3/t6-/m0/s1
