17
gdb 85215	2.50446	1.28455	0.92811	2.4712	72.43	-0.2646	0.0005	0.2651	1253.0245	0.13494	-455.137415	-455.128372	-455.127428	-455.172104	31.87	
C	-0.2809639479	 1.5290194893	 0.020496348	-0.396507
C	 0.0827902647	 0.0654338473	-0.0512971489	 0.096498
O	 1.4028877289	-0.1557608566	-0.6786937923	-0.262601
C	 1.9210601268	-0.6904077681	 0.4738485467	 0.424572
N	 3.0735968908	-1.0826842073	 0.7713599727	-0.54778
C	 0.6038945295	-0.6207864338	 1.2348638807	-0.040018
O	 0.5478932907	 0.1968689432	 2.3811126317	-0.194993
C	 1.2842848495	-0.2103704079	 3.4494558561	 0.120472
N	 1.2001223672	 0.4371041528	 4.5268615805	-0.436059
H	 0.4693975797	 2.0940625508	 0.5765452553	 0.147021
H	-0.3662499502	 1.9400999585	-0.9892118958	 0.132604
H	-1.2429730805	 1.6481038467	 0.5277584503	 0.13934
H	-0.6669427694	-0.5189917156	-0.5909430336	 0.103403
H	 3.7312592602	-0.9591901789	-0.0005166285	 0.235607
H	 0.1613323305	-1.6037400146	 1.4304508533	 0.117105
H	 1.9103253084	-1.0844230367	 3.243659698	 0.127136
H	 1.8129807911	 0.0228729712	 5.2264093159	 0.234202
70.2053	91.2754	98.4705	131.9999	204.2914	237.9956	314.3405	375.193	448.3807	480.0124	588.3682	708.8751	755.8376	827.3546	849.6524	869.6666	897.7452	920.1576	1013.6604	1029.0496	1046.2748	1063.8737	1071.1499	1159.0775	1191.4649	1239.1554	1245.1199	1288.9583	1338.1222	1376.8003	1381.7159	1416.7646	1431.3686	1484.1835	1488.5076	1746.2946	1825.3035	3047.3726	3052.1667	3080.7574	3082.5214	3123.3919	3144.9844	3476.3015	3517.8594
CC1OC(=N)C1OC=N	C[C@H]1O[C]([NH])[C@H]1O[CH][NH]	
InChI=1S/C5H8N2O2/c1-3-4(8-2-6)5(7)9-3/h2-4,6-7H,1H3	InChI=1S/C5H8N2O2/c1-3-4(8-2-6)5(7)9-3/h2-4,6-7H,1H3/t3-,4+/m1/s1
