16
gdb 65415	3.80006	0.85844	0.77955	3.1539	75.34	-0.2887	-0.0034	0.2852	1427.3712	0.123678	-396.933791	-396.924618	-396.923674	-396.968429	32.358	
C	 0.0309079177	 1.5441576137	-0.1911240898	-0.455044
C	-0.0085883115	 0.045371479	 0.0408816661	 0.144334
N	 1.2809506125	-0.6768009426	-0.0115245595	-0.338209
C	 0.5576620022	-0.6395245103	 1.2539456991	-0.042174
C	 1.2001110051	 0.1262744988	 2.4012328125	-0.353412
C	 2.1062477369	-0.7303278664	 3.1668254638	 0.264884
N	 2.8105260521	-1.4232011086	 3.7652445588	-0.293416
C	-1.1568351572	-0.617001101	-0.5468763259	 0.24256
N	-2.066803986	-1.1406794509	-1.0322528012	-0.327439
H	 0.9488076406	 1.9705997212	 0.2151950851	 0.140297
H	 0.0093385407	 1.7558334663	-1.263620222	 0.151761
H	-0.831124002	 2.0334270704	 0.2713085945	 0.142861
H	 1.1894383107	-1.5791358182	-0.4707736003	 0.26097
H	 0.0383371365	-1.5423130199	 1.5669797113	 0.132173
H	 1.7659426058	 0.9804055237	 2.0213658818	 0.165444
H	 0.4268817259	 0.510799835	 3.0761935656	 0.164411
49.7271	98.1234	147.8647	167.724	195.1576	233.1701	333.3121	383.1211	392.3905	437.4189	496.9806	585.6191	612.6384	686.6677	828.118	855.3835	926.5303	949.9846	991.7845	1032.7799	1084.3635	1097.2929	1112.8784	1205.5219	1259.7001	1283.9013	1321.0313	1337.6526	1419.7071	1448.7697	1457.5517	1485.2207	1499.5129	2350.2901	2367.1049	3052.5388	3055.5227	3111.254	3122.2475	3144.0027	3148.3016	3519.4981
CC1(NC1CC#N)C#N	C[C@]1(N[C@H]1CC#N)C#N	
InChI=1S/C6H7N3/c1-6(4-8)5(9-6)2-3-7/h5,9H,2H2,1H3	InChI=1S/C6H7N3/c1-6(4-8)5(9-6)2-3-7/h5,9H,2H2,1H3/t5-,6-/m0/s1
