21
gdb 59147	3.11888	1.25817	1.1214	2.0156	81.27	-0.2137	0.066	0.2798	1188.6234	0.182104	-387.00452	-386.995758	-386.994813	-387.037886	34.432	
C	-0.1007149549	 1.5538420861	 0.7017898201	-0.40444
C	 0.0823830986	 0.1529889719	 0.1233671968	 0.121182
O	 0.9605258795	-0.5587377505	 0.995856203	-0.448732
C	-1.2670871772	-0.5507454844	-0.0386693627	-0.036582
C	-1.9156481838	-1.0999165753	-1.2748758906	-0.089019
C	-1.0434172592	-2.0014828744	-2.1975711531	-0.057184
C	 0.3647701849	-2.294993206	-1.7337600432	-0.317637
C	-0.7914012546	-2.9559906555	-1.0434962723	-0.055917
C	-1.6170014987	-2.0326716135	-0.1021384602	-0.132934
H	 0.8715831178	 2.0378990095	 0.8274916169	 0.122048
H	-0.7124248785	 2.1701235131	 0.0350272121	 0.111439
H	-0.5866197896	 1.5029726839	 1.6817222737	 0.117088
H	 0.5554672302	 0.2594769512	-0.8621379847	 0.076295
H	 0.6647982433	-1.4740975281	 1.0158600323	 0.290788
H	-2.0273343088	-0.0718121352	 0.5801349338	 0.092592
H	-2.886877775	-0.7547744246	-1.6083194666	 0.088679
H	-1.3604743491	-2.2474849762	-3.2026308551	 0.090855
H	 0.8950459636	-2.9571431924	-2.413583767	 0.111607
H	 1.0145797515	-1.5881600241	-1.2383325321	 0.138486
H	-0.920863576	-4.0304748673	-1.0235174346	 0.090129
H	-2.326443364	-2.4476504883	 0.6031830335	 0.091256
62.8876	126.7075	174.1219	220.6579	260.7953	304.5979	343.1849	391.2349	465.1282	567.0083	632.8325	689.7919	702.0949	712.7957	771.7465	862.1566	883.5313	894.5514	907.791	935.3223	942.4952	1001.0855	1021.0905	1033.7881	1046.7728	1058.7604	1077.7531	1091.7037	1103.3915	1115.2342	1139.8114	1187.3382	1239.9077	1265.0745	1289.97	1295.8896	1327.4143	1349.6354	1379.8888	1396.5318	1412.8353	1454.0291	1486.5689	1497.8858	1506.818	2999.8287	3035.2204	3095.1034	3109.4971	3118.668	3134.956	3173.5616	3183.5313	3188.6595	3199.2909	3240.3341	3825.0606
CC(O)C1C2C3CC3C12	C[C@@H](O)[C@H]1[C@H]2[C@H]3C[C@H]3[C@@H]12	
InChI=1S/C8H12O/c1-3(9)6-7-4-2-5(4)8(6)7/h3-9H,2H2,1H3	InChI=1S/C8H12O/c1-3(9)6-7-4-2-5(4)8(6)7/h3-9H,2H2,1H3/t3-,4-,5+,6-,7+,8-/m1/s1
