20
gdb 33536	2.24393	1.49009	1.14023	3.9749	82.85	-0.2827	0.032	0.3147	1169.9312	0.171631	-366.006171	-365.997452	-365.996508	-366.039755	33.06	
N	-0.3076837359	-1.343173915	-0.1244997427	-0.368633
C	-0.188229798	-0.1960371264	-0.0340091332	 0.228684
C	-0.0235564223	 1.2467019675	 0.0942029529	 0.167999
C	-0.0741548478	 1.7941372982	 1.5677847402	-0.251955
C	 1.2083960911	 2.6190817779	 1.2837749527	-0.217053
C	 1.4625472352	 1.7562866979	 0.0200010895	-0.251958
C	-0.9494581144	 2.0076611516	-0.8436798931	-0.025551
C	-1.282306935	 1.5107574465	-2.2263257332	-0.285124
C	-2.3463092682	 1.5369847775	-1.1546168613	-0.285123
H	-0.985529142	 2.3351637793	 1.8299281697	 0.114537
H	 0.0912440867	 1.0017884027	 2.3002406119	 0.123458
H	 0.991529899	 3.6626339599	 1.0429422092	 0.111503
H	 1.9823751298	 2.5996230212	 2.0526886877	 0.11085
H	 2.1766309623	 0.9504224966	 0.1998123495	 0.123457
H	 1.7310089706	 2.2682535437	-0.9062009786	 0.114536
H	-0.8231294854	 3.0826228303	-0.7445726553	 0.088883
H	-1.3339007863	 2.2363641082	-3.0301746932	 0.114139
H	-0.9026682632	 0.5386612926	-2.5216730729	 0.136606
H	-2.6624849516	 0.5820368945	-0.7491116818	 0.136606
H	-3.1325335248	 2.2806976154	-1.2185115281	 0.114139
79.1244	110.6636	144.2894	182.9169	201.2837	287.7514	341.2732	441.38	537.4501	567.8486	618.7804	687.5293	786.2923	791.544	822.4233	832.6776	877.394	933.696	948.7475	957.8747	962.7734	1018.1929	1062.0852	1074.1773	1081.6431	1091.9863	1119.2819	1140.5211	1199.176	1212.9566	1215.5441	1236.1113	1258.1195	1273.6553	1275.7844	1321.282	1395.4909	1468.3205	1474.0434	1484.7642	1503.7289	1507.4092	2345.2439	3070.2431	3071.5355	3076.4679	3114.3505	3130.0364	3135.3915	3136.535	3139.271	3142.8335	3217.0618	3230.5461
N#CC1(CCC1)C1CC1	N#CC1(CCC1)C1CC1	
InChI=1S/C8H11N/c9-6-8(4-1-5-8)7-2-3-7/h7H,1-5H2	InChI=1S/C8H11N/c9-6-8(4-1-5-8)7-2-3-7/h7H,1-5H2
