18
gdb 48713	3.60829	1.34563	1.14996	3.3051	76.51	-0.2427	-0.0129	0.2298	1075.5579	0.149357	-401.933222	-401.925945	-401.925	-401.964858	29.193	
O	-0.1741880781	 0.0941361593	 0.2957828845	-0.276704
C	 0.0110196089	 1.2565382646	 0.02193581	 0.088699
C	 1.3247662848	 1.9242399017	-0.0083708548	 0.239768
C	 1.3454843571	 3.4352966469	 0.1812578842	-0.335595
C	 1.6262854936	 2.8966331939	-1.1778150091	-0.073493
C	 3.0665190857	 2.6486141501	-1.5681727458	-0.047944
N	 4.0480415116	 2.9891562419	-0.5160569688	-0.338178
C	 3.6415500662	 1.5820751715	-0.7031169496	-0.031834
C	 2.5794835819	 1.0988441081	 0.2781687779	-0.30942
H	-0.8410122825	 1.9254333816	-0.2476910705	 0.061705
H	 0.3849299783	 3.9147336423	 0.3443401426	 0.114237
H	 2.1776081308	 3.8449138658	 0.7401048109	 0.151905
H	 0.9002400244	 3.034978143	-1.9708299769	 0.096137
H	 3.3466674298	 2.7642498091	-2.6092184965	 0.090258
H	 4.9604132352	 3.1404296387	-0.9388491387	 0.233227
H	 4.3798024238	 0.8774452255	-1.0735341844	 0.09162
H	 2.9137801472	 1.1901523306	 1.3162224484	 0.116788
H	 2.3418661912	 0.0459692955	 0.0993120565	 0.128823
104.0832	200.9838	223.8763	316.7004	330.9957	416.212	483.9114	567.4442	659.9829	673.5871	730.1443	787.6501	823.6755	845.1492	872.9828	889.1689	945.1375	957.2232	972.5293	1006.9119	1049.8998	1063.2951	1077.5302	1086.353	1094.4431	1138.161	1175.4323	1196.1439	1227.71	1260.1801	1291.2141	1340.708	1362.5565	1389.5219	1417.8116	1437.5923	1468.0966	1485.7381	1804.8101	2844.9177	3057.6215	3101.6519	3132.6194	3155.6451	3170.9547	3183.5246	3234.8468	3502.8832
O=CC12CC1C1NC1C2	O=C[C@]12C[C@H]1[C@H]1N[C@H]1C2	
InChI=1S/C7H9NO/c9-3-7-1-4(7)6-5(2-7)8-6/h3-6,8H,1-2H2	InChI=1S/C7H9NO/c9-3-7-1-4(7)6-5(2-7)8-6/h3-6,8H,1-2H2/t4-,5-,6+,7+/m0/s1
