18
gdb 10306	2.32669	1.93804	1.25463	4.7357	69.03	-0.2497	0.022	0.2716	1013.7067	0.152666	-381.108212	-381.099011	-381.098067	-381.142312	32.682	
C	-0.1012375909	 1.4869535479	 0.2203523131	-0.330026
N	-0.0635873761	 0.0602792586	-0.0979997145	-0.087237
C	 0.8515144446	-0.6393814658	 0.8038374511	-0.336304
C	-1.4206400865	-0.5110310721	-0.1560697086	-0.133226
C	-2.1162508725	-0.0446118774	-1.4616018968	-0.057247
O	-1.3069295803	-0.3069058712	-2.5759451147	-0.412325
C	-1.3869054987	-1.9808882014	-0.1407609819	 0.295796
N	-1.4105634044	-3.1355468872	-0.1186363886	-0.328048
H	 0.9157229236	 1.8854078224	 0.1832744781	 0.133672
H	-0.7001274758	 2.0361333247	-0.5086849439	 0.13517
H	-0.511438192	 1.6858306094	 1.2268751109	 0.107431
H	 0.5393027133	-0.580974807	 1.8612344226	 0.106204
H	 0.9318775575	-1.690603017	 0.5244510222	 0.15991
H	 1.8419459962	-0.1843714185	 0.7175234635	 0.127449
H	-2.0340691801	-0.1985436483	 0.7101220531	 0.107031
H	-3.0577685389	-0.5881856613	-1.5835271634	 0.129501
H	-2.3635532926	 1.0240735506	-1.366566432	 0.095615
H	-0.4005026363	-0.1300255067	-2.2829321801	 0.286633
45.8503	102.8705	159.4111	190.3544	225.5271	239.062	316.9163	359.4877	378.6623	431.7532	459.7979	510.3248	572.7686	678.7252	839.4025	861.61	961.2861	1022.5668	1064.2522	1091.2283	1109.1339	1122.3818	1172.8541	1217.8742	1242.7696	1288.512	1295.0665	1347.2847	1384.7975	1440.0821	1446.1038	1480.7027	1485.8698	1493.8753	1502.3786	1512.3814	1524.1526	2362.453	2927.1249	2948.8811	2960.1498	2986.5769	3085.6653	3086.05	3089.3553	3131.7212	3142.3793	3714.1732
CN(C)C(CO)C#N	CN(C)[C@@H](CO)C#N	
InChI=1S/C5H10N2O/c1-7(2)5(3-6)4-8/h5,8H,4H2,1-2H3	InChI=1S/C5H10N2O/c1-7(2)5(3-6)4-8/h5,8H,4H2,1-2H3/t5-/m1/s1
