16
gdb 17600	4.33584	1.38689	1.149	1.5367	68.04	-0.2404	-0.0559	0.1845	1039.0545	0.130991	-379.935939	-379.927879	-379.926935	-379.969017	29.757	
N	-0.0595795393	 1.2726062307	-0.3107115948	-0.509167
C	 0.1077750967	-0.0621746295	-0.0874018647	 0.255413
N	 1.2659915281	-0.5959624448	 0.0329868119	-0.514968
C	-1.2341542829	-0.7909845737	 0.0125460653	 0.357284
O	-2.2448318654	-0.1429395491	 0.2157453834	-0.349368
C	-1.2583282392	-2.2674388027	-0.1194210134	-0.125542
C	-2.1899331201	-3.0340491355	 0.8180207209	-0.245983
C	-2.5581290716	-2.8883491199	-0.6146616484	-0.250581
H	 0.7389490942	 1.8655920006	-0.1542813046	 0.259951
H	-0.9760525304	 1.6405884833	-0.1091180009	 0.269195
H	 1.1944295109	-1.6003070538	 0.1715104155	 0.218783
H	-0.3394367017	-2.7563650919	-0.4138193944	 0.099729
H	-1.8363887219	-3.992256304	 1.180421138	 0.125767
H	-2.7284489043	-2.4298808595	 1.5389725754	 0.141046
H	-3.3438158044	-2.1834566301	-0.860144878	 0.144004
H	-2.4680522188	-3.7453321501	-1.2716727313	 0.124438
56.1597	63.5728	202.3599	247.5468	312.2688	366.4044	410.7261	495.7657	522.2951	552.299	622.8066	747.8738	790.4254	808.0435	820.8574	832.6011	903.1131	913.2997	1056.979	1081.0459	1097.943	1103.2911	1121.9475	1138.6652	1160.168	1209.838	1227.682	1386.062	1444.5785	1454.0421	1485.2026	1593.5098	1711.7718	1759.875	3143.1347	3145.4254	3199.1595	3231.3515	3246.4661	3526.4637	3588.9208	3716.3638
NC(=N)C(=O)C1CC1	NC(=N)C(=O)C1CC1	
InChI=1S/C5H8N2O/c6-5(7)4(8)3-1-2-3/h3H,1-2H2,(H3,6,7)	InChI=1S/C5H8N2O/c6-5(7)4(8)3-1-2-3/h3H,1-2H2,(H3,6,7)
