16
gdb 15416	4.70016	0.9173	0.82005	1.3704	62.82	-0.2637	-0.0448	0.2188	1338.8491	0.127914	-420.851937	-420.843234	-420.84229	-420.886272	29.923	
O	 0.2084716838	 1.3386564867	-0.1862808508	-0.414685
C	 0.0303830904	-0.0490241164	 0.0298951404	-0.059039
C	-1.3897536426	-0.5194410996	-0.3151619412	-0.24731
C	-1.5226899825	-2.0175135415	-0.1832914106	 0.068711
O	-1.6768624609	-2.5643138698	 1.1210034022	-0.243778
C	-2.7610011361	-2.7422310905	 0.2014276993	-0.055025
C	-4.0280035604	-2.0221899332	 0.5310771841	 0.141606
O	-5.1039617275	-2.3568805886	 0.1059109166	-0.242123
H	-0.3162535763	 1.8120082458	 0.4670452337	 0.285105
H	 0.7548039033	-0.5479986106	-0.6237016336	 0.115929
H	 0.2739657285	-0.3366487728	 1.0634409809	 0.109372
H	-2.1093720892	-0.0145796133	 0.3376734135	 0.09909
H	-1.6181255337	-0.2239697833	-1.3459189709	 0.124364
H	-0.8375884818	-2.5896782672	-0.8138897884	 0.108235
H	-2.9050661702	-3.7533340627	-0.1771663252	 0.11904
H	-3.902666265	-1.1568834831	 1.2167402599	 0.090507
63.2992	76.6512	100.8152	149.0953	259.8427	290.6448	306.6027	376.1133	437.4383	496.394	532.0528	776.259	829.8297	866.7892	957.6702	1002.5354	1023.6764	1069.2687	1079.6888	1092.5651	1123.7688	1171.8647	1199.119	1265.0195	1295.7384	1319.0984	1341.1304	1396.4624	1412.5986	1421.0769	1465.0453	1477.0221	1511.3073	1824.8082	2904.5809	2998.0377	3043.0274	3063.346	3078.1132	3098.2479	3132.4454	3818.7649
OCCC1OC1C=O	OCC[C@H]1O[C@H]1C=O	
InChI=1S/C5H8O3/c6-2-1-4-5(3-7)8-4/h3-6H,1-2H2	InChI=1S/C5H8O3/c6-2-1-4-5(3-7)8-4/h3-6H,1-2H2/t4-,5+/m1/s1
