19
gdb 104244	3.04662	1.14132	0.9999	3.7245	75.83	-0.2391	0.0242	0.2633	1229.1195	0.158951	-419.195758	-419.186331	-419.185387	-419.229947	34.709	
C	-0.4545960942	 1.6188450457	 0.1389299492	-0.452983
C	-0.0661150223	 0.1480261841	 0.0880275391	 0.297697
C	-1.2344746924	-0.740390542	-0.373114746	-0.114923
O	-1.5264296687	-0.557281757	-1.7484186433	-0.418972
N	 1.1800792542	-0.1108636456	-0.67690198	-0.329991
C	 1.69677515	-1.0244916136	 0.3617412826	-0.169989
C	 0.6196028177	-0.4888198269	 1.3569005811	-0.235738
C	 1.1088077045	 0.4424659973	 2.3570630482	 0.295201
N	 1.4938753621	 1.1848924055	 3.1557465729	-0.336204
H	 0.3851221055	 2.2293307327	 0.4753259832	 0.151925
H	-0.7324228694	 1.9686426283	-0.8618528243	 0.10989
H	-1.301998793	 1.7859272331	 0.8129675963	 0.12002
H	-0.9612425539	-1.7967843957	-0.2730904576	 0.108026
H	-2.1172670088	-0.5645810921	 0.2611510814	 0.09873
H	-1.9335657027	 0.3075394893	-1.8603859491	 0.292465
H	 1.0117162592	-0.5216928347	-1.5902249337	 0.227487
H	 1.5640536104	-2.0951372371	 0.1629499558	 0.107166
H	 2.7380677226	-0.8437524024	 0.641050477	 0.127859
H	 0.0221335091	-1.257138179	 1.8539925272	 0.122334
74.8177	109.3308	141.3719	207.5711	209.9759	252.654	315.9936	332.5292	361.3113	385.137	453.2697	519.5285	616.4061	670.054	761.21	814.4773	865.8401	935.9905	940.9835	972.826	999.3624	1055.3782	1071.4887	1095.8984	1136.5956	1151.7935	1168.6126	1178.198	1218.8258	1293.8436	1324.1372	1342.6971	1377.2581	1379.3749	1410.8117	1424.2602	1479.5669	1493.2821	1500.5098	1523.6535	2353.8025	2986.4097	3021.9659	3031.7528	3065.4589	3079.6671	3089.9285	3095.354	3136.2409	3520.1447	3823.9421
CC1(CO)NCC1C#N	C[C@@]1(CO)NC[C@H]1C#N	
InChI=1S/C6H10N2O/c1-6(4-9)5(2-7)3-8-6/h5,8-9H,3-4H2,1H3	InChI=1S/C6H10N2O/c1-6(4-9)5(2-7)3-8-6/h5,8-9H,3-4H2,1H3/t5-,6+/m1/s1
