15
gdb 36570	2.80458	1.08827	0.81254	4.2443	76.16	-0.262	-0.0062	0.2558	1334.4722	0.109603	-379.582984	-379.573251	-379.572307	-379.619029	34.238	
C	 0.863517637	-0.2469672768	 1.4532206476	-0.452661
C	 0.3564044883	 0.4462777822	 0.6125807861	 0.317294
C	-0.26251165	 1.2794651795	-0.4246538196	-0.33183
N	 0.6033919169	 2.2321877527	-1.1231514529	-0.25914
C	 1.1547224752	 3.3194105205	-0.3087454888	-0.298106
C	 2.4144904351	 3.0250180255	 0.3912871603	 0.350118
C	 3.4632712749	 2.7805788025	 0.9218556521	-0.440694
C	 1.3381764295	 4.5142324655	-1.1654193256	 0.313149
N	 1.4771701321	 5.4474108659	-1.8308718282	-0.317294
H	 1.3163959136	-0.8520010125	 2.1995325015	 0.205402
H	-0.7035002553	 0.6317693173	-1.190962561	 0.149539
H	-1.0984188949	 1.8429802426	 0.0083943093	 0.146978
H	 1.354001095	 1.7521518746	-1.6072604888	 0.243325
H	 0.3905258413	 3.5838721514	 0.4345347561	 0.161455
H	 4.3841276614	 2.5585581291	 1.4030457121	 0.212465
17.642	77.7187	131.6493	157.6386	176.5283	231.847	312.9604	341.6058	365.6183	472.8745	559.2595	584.0139	595.8682	629.8031	652.9861	667.3015	670.5169	712.4646	878.2045	926.7299	971.1702	1013.3845	1091.8049	1131.3942	1256.6649	1290.2592	1348.3162	1367.1896	1461.3024	1500.3848	2232.6837	2239.8522	2366.9736	3027.7108	3031.3955	3067.3067	3500.8171	3503.6181	3544.5934
C#CCNC(C#C)C#N	C#CCN[C@@H](C#C)C#N	
InChI=1S/C7H6N2/c1-3-5-9-7(4-2)6-8/h1-2,7,9H,5H2	InChI=1S/C7H6N2/c1-3-5-9-7(4-2)6-8/h1-2,7,9H,5H2/t7-/m0/s1
