22
gdb 111893	2.71703	1.22621	0.94541	1.4504	88.79	-0.2233	0.0216	0.245	1345.2546	0.194835	-367.205962	-367.196872	-367.195928	-367.239679	34.93	
C	-0.0054687105	 1.5692661923	-0.1306289424	-0.386223
C	 0.0857041194	 0.0419444994	-0.0755031488	-0.167929
C	 0.7091026325	-0.5038227752	 1.2239237036	-0.024163
C	-0.083181677	-0.2197751276	 2.4901677496	-0.188916
C	-0.3636616597	-1.3168174878	 3.2024174253	 0.362127
C	-1.1258569277	-1.4127627674	 4.4852973791	-0.500604
C	 0.1705716827	-2.5236829579	 2.4921604771	-0.155732
N	-0.486852034	-2.7309158471	 1.1668539193	-0.333437
C	 0.8161973575	-2.0308192601	 1.2508249866	-0.06446
H	 0.9791372222	 2.0337059248	-0.0014994606	 0.108746
H	-0.4044986382	 1.9027030207	-1.0938472548	 0.110444
H	-0.6629145961	 1.9645527529	 0.6504012958	 0.116922
H	-0.9065513951	-0.4049482435	-0.1930918818	 0.118066
H	 0.6895681042	-0.3122290158	-0.9213990951	 0.086455
H	 1.7202386139	-0.0765593769	 1.3174760787	 0.070742
H	-0.4086407364	 0.7800122484	 2.7577642364	 0.086376
H	-1.4208936312	-0.4260844941	 4.8526362636	 0.122249
H	-2.0336163849	-2.0164807086	 4.3595169553	 0.132206
H	-0.5311910114	-1.9011687794	 5.2680763813	 0.120778
H	 0.5191250126	-3.3931465123	 3.0412174253	 0.081139
H	-0.3075312802	-3.6874087077	 0.8638174783	 0.224073
H	 1.6882501172	-2.5145862071	 0.8231095884	 0.081141
86.1486	129.1211	158.2161	191.2986	211.0643	253.0965	312.9295	343.2224	448.5558	483.8393	588.9891	595.9294	720.8794	796.7928	809.1221	838.8749	849.8325	871.9191	902.9006	919.3487	957.9031	988.8205	1026.1516	1057.6761	1062.3483	1073.6931	1116.9883	1121.9452	1139.4878	1168.7551	1199.5919	1250.5278	1269.1219	1287.372	1307.1727	1341.5747	1372.4115	1386.8348	1411.1885	1414.0099	1416.0688	1479.6322	1489.4812	1490.8718	1501.3212	1508.4258	1706.8937	2975.1994	3015.9995	3020.8271	3029.692	3062.1664	3076.4658	3098.5478	3104.0513	3109.3474	3152.693	3163.6826	3186.8383	3468.8625
CCC1C=C(C)C2NC12	CC[C@H]1C=C(C)[C@H]2N[C@@H]12	
InChI=1S/C8H13N/c1-3-6-4-5(2)7-8(6)9-7/h4,6-9H,3H2,1-2H3	InChI=1S/C8H13N/c1-3-6-4-5(2)7-8(6)9-7/h4,6-9H,3H2,1-2H3/t6-,7+,8-/m0/s1
