19
gdb 74322	5.15491	0.84927	0.76877	2.4747	85.24	-0.2295	0.0159	0.2454	1500.3336	0.157148	-385.866427	-385.857019	-385.856075	-385.901146	34.349	
C	 0.0609986822	 1.4947574448	 0.0635144499	-0.4932
C	 0.02230931	 0.0048099146	-0.0313425966	 0.298355
C	-0.139302931	-0.7691465222	-1.1014450884	-0.222861
C	-0.1054723274	-2.222329177	-0.7139483762	 0.095274
C	 1.0301645036	-3.0141315131	-1.4051573602	-0.358717
C	 1.0465183139	-4.4265735139	-1.0499053025	 0.311423
C	 1.0418384555	-5.5929103958	-0.760646725	-0.444412
O	 0.0873274222	-2.2156249815	 0.7002852122	-0.271001
C	 0.1617462383	-0.8800188112	 1.1819994177	-0.150328
H	 1.0110096711	 1.8388137003	 0.4912365405	 0.132197
H	-0.0612560928	 1.9645387036	-0.9155284454	 0.130128
H	-0.7316253934	 1.8696154821	 0.7231405036	 0.13243
H	-0.2758919885	-0.4352949617	-2.1230370782	 0.098781
H	-1.0557739007	-2.7313157991	-0.9414758251	 0.091362
H	 0.9124031391	-2.9093821502	-2.491995952	 0.123057
H	 1.9853876714	-2.544061207	-1.1426147514	 0.129438
H	 1.0447218711	-6.6216017879	-0.4985906835	 0.19225
H	 1.1168143777	-0.7194304793	 1.7078663742	 0.103096
H	-0.6411038125	-0.6992298353	 1.9157773462	 0.102726
55.1334	78.162	121.4797	167.8925	192.1645	276.4354	342.5726	353.6314	377.3175	453.287	531.5708	612.5163	613.3078	635.7574	764.068	832.2229	839.9636	905.3835	956.2179	985.9599	994.725	1001.3084	1031.1075	1054.7771	1094.8003	1108.0436	1196.8172	1212.3334	1234.3751	1272.2557	1305.7599	1350.7967	1374.5405	1390.9824	1415.3815	1456.4479	1479.8348	1489.2768	1522.6623	1733.951	2240.6143	2964.7592	2972.8279	2982.3413	3019.848	3021.6894	3062.7846	3068.0617	3117.3047	3206.7483	3507.6698
CC1=CC(CC#C)OC1	CC1=C[C@@H](CC#C)OC1	
InChI=1S/C8H10O/c1-3-4-8-5-7(2)6-9-8/h1,5,8H,4,6H2,2H3	InChI=1S/C8H10O/c1-3-4-8-5-7(2)6-9-8/h1,5,8H,4,6H2,2H3/t8-/m1/s1
