22
gdb 114049	2.74965	1.16063	0.97601	1.6818	83.99	-0.2286	0.0865	0.3151	1339.2615	0.192048	-404.293541	-404.283716	-404.282771	-404.327918	36.605	
C	 0.1055761514	 1.305165918	 0.1660862774	-0.237891
O	-0.251140445	-0.0141361354	-0.1787858795	-0.248559
C	 0.5145465133	-0.5416584821	-1.2334360923	 0.139177
C	 1.915655352	-1.0923474188	-0.8054104983	-0.332689
C	 1.4157584597	-2.5255687459	-1.1029243715	 0.330833
C	 1.8009096384	-3.7509659849	-0.3278984594	-0.484814
C	 0.0651660596	-1.9823742647	-1.5220146408	-0.135703
N	 0.9287963856	-2.662045681	-2.4616155678	-0.118767
C	 1.5262438467	-2.0124853678	-3.6186085984	-0.32074
H	 1.1419833394	 1.3736266903	 0.5298603135	 0.106215
H	-0.0034158397	 1.9902089735	-0.6895168299	 0.104701
H	-0.5680476652	 1.6257813049	 0.9644438123	 0.127093
H	 0.5075152576	 0.1536848758	-2.0875567472	 0.058672
H	 2.8029333104	-0.7488024047	-1.3469135963	 0.089965
H	 2.0647744477	-0.9320855967	 0.265184374	 0.111991
H	 1.6937912964	-3.5851372613	 0.7493575443	 0.118084
H	 1.1722083237	-4.5962746282	-0.6193516306	 0.130624
H	 2.8453204079	-4.025851643	-0.520475089	 0.116955
H	-0.9396715302	-2.3543577366	-1.3475919348	 0.092687
H	 1.9266220405	-1.003631631	-3.4440747065	 0.105893
H	 2.344643056	-2.6389763496	-3.9871660604	 0.121962
H	 0.772863334	-1.9445742308	-4.409683089	 0.12431
90.995	127.4522	162.4746	176.4167	194.2417	218.139	249.6893	301.017	321.2274	387.2338	440.2476	480.1625	565.6859	628.5055	723.6766	770.7227	862.3859	911.9993	944.1345	973.9932	987.527	1012.0325	1044.9678	1102.72	1133.0828	1148.2366	1153.6396	1174.7901	1183.0392	1193.4041	1215.434	1225.1407	1242.3297	1255.8133	1285.8523	1387.2145	1401.6117	1435.4634	1452.1697	1472.3408	1481.0245	1484.8755	1486.2267	1493.4338	1499.4518	1501.5839	1509.5755	2968.5338	2977.0232	2998.2503	3021.144	3025.7184	3048.0757	3070.8107	3085.3082	3102.9851	3110.5277	3114.1929	3120.0939	3163.4153
COC1CC2(C)C1N2C	CO[C@H]1C[C@@]2(C)[C@@H]1N2C	
InChI=1S/C7H13NO/c1-7-4-5(9-3)6(7)8(7)2/h5-6H,4H2,1-3H3	InChI=1S/C7H13NO/c1-7-4-5(9-3)6(7)8(7)2/h5-6H,4H2,1-3H3/t5-,6+,7-,8?/m0/s1
