20
gdb 26178	4.00446	0.92395	0.89855	1.4804	83.26	-0.1873	0.0331	0.2205	1415.9444	0.170822	-403.183061	-403.173544	-403.172599	-403.217492	35.651	
C	-0.0618600162	 1.5467948569	 0.0227359619	-0.382703
C	-0.0127421183	 0.0069862533	 0.0461841023	-0.085646
C	 0.7242724643	-0.5045900093	 1.2987904144	-0.382861
C	-1.3820142424	-0.585953451	-0.0621176735	 0.416036
C	-1.9773866966	-1.3893615486	-0.9857889324	-0.372022
C	-3.3222592377	-1.6205510105	-0.5318668509	 0.232357
N	-4.2574545888	-2.4620071677	-1.1535404242	-0.605458
C	-3.4398413883	-0.9341265623	 0.6389944665	-0.104936
O	-2.2573232307	-0.3031755713	 0.9376997439	-0.200528
H	 0.9484715113	 1.9654904123	 0.0733778156	 0.107963
H	-0.5401574114	 1.9126117137	-0.890631729	 0.115306
H	-0.6311785364	 1.9265031371	 0.8765283845	 0.128457
H	 0.5361663013	-0.3339013478	-0.8399260083	 0.083961
H	 0.8055096456	-1.5954135107	 1.2906939783	 0.117826
H	 1.7338553105	-0.0841875578	 1.350387289	 0.107584
H	 0.1871306705	-0.2134854985	 2.2064861242	 0.128618
H	-1.5207035168	-1.7829964879	-1.8814471778	 0.097224
H	-4.226064452	-2.3950007507	-2.1629482754	 0.243137
H	-5.2051686821	-2.2927039898	-0.8418567574	 0.24123
H	-4.2388159559	-0.8044915893	 1.3491789781	 0.114456
45.4462	118.0432	172.6962	216.4807	219.6	255.9726	287.483	290.9082	378.903	416.7744	488.6909	614.9415	624.1437	661.0599	708.9976	717.0923	760.1413	798.1656	874.7612	929.5523	960.6077	961.7985	1002.6874	1057.752	1106.8863	1119.8808	1148.6994	1164.3563	1203.8107	1264.7474	1329.806	1332.7893	1352.8922	1393.3419	1415.3164	1450.8327	1485.7405	1491.428	1499.295	1510.6525	1586.2352	1651.3416	1680.0605	3033.8252	3036.2065	3037.9181	3104.2607	3108.7069	3113.1936	3117.5221	3244.4242	3278.8687	3533.9774	3622.69
CC(C)C1=CC(N)=CO1	CC(C)c1cc(N)co1	
InChI=1S/C7H11NO/c1-5(2)7-3-6(8)4-9-7/h3-5H,8H2,1-2H3	InChI=1S/C7H11NO/c1-5(2)7-3-6(8)4-9-7/h3-5H,8H2,1-2H3
