20
gdb 102829	1.98039	1.38075	0.923	0.4002	76.04	-0.245	-0.0254	0.2196	1297.5737	0.169082	-440.255948	-440.246313	-440.245369	-440.291004	34.77	
O	-0.0852295534	 1.4647052488	 0.0880792321	-0.425837
C	-0.0823168218	 0.0553613545	 0.2027686632	-0.070831
C	-1.5059551079	-0.5125817126	 0.1504281211	 0.013201
C	-2.3682215672	 0.0417498041	 1.2922781281	-0.282607
C	-3.5166158828	-0.8305193749	 1.7372670838	 0.151809
O	-3.7839428054	-1.9245306738	 1.3047874472	-0.242586
N	-2.0685864125	-0.0979204801	-1.1419761178	-0.093696
C	-1.8294871642	-0.9883558817	-2.2773834706	-0.228078
C	-3.1892454651	-0.8655995972	-1.6879889402	-0.236683
H	-0.6762396871	 1.6549928397	-0.6530875975	 0.287498
H	 0.5184536441	-0.4123910715	-0.5943014242	 0.087805
H	 0.3903786618	-0.1917511391	 1.159568305	 0.102682
H	-1.4618977866	-1.6102822679	 0.241522288	 0.079557
H	-1.7581558955	 0.2225095699	 2.1893175119	 0.132944
H	-2.7677810873	 1.0289707121	 1.0287712773	 0.139084
H	-4.1278289036	-0.3848854688	 2.5550748643	 0.084619
H	-1.5876720001	-0.5016978371	-3.2176566912	 0.118115
H	-1.2879474964	-1.9138777611	-2.0909744145	 0.117407
H	-3.5580735298	-1.6991498544	-1.0987493527	 0.149794
H	-3.9508434591	-0.2790927988	-2.1943436432	 0.115803
65.5911	105.8726	117.2918	141.3472	170.1946	221.2279	244.7133	331.0537	340.1467	472.1449	503.3453	623.3093	654.5411	719.4504	787.1742	843.8179	891.9639	905.4851	941.9013	989.3608	998.0601	1038.4214	1070.4273	1114.204	1116.0075	1123.7034	1133.3478	1174.985	1183.5795	1237.308	1245.7568	1279.1481	1313.2418	1360.2795	1374.7582	1399.1751	1417.6077	1436.8307	1440.6349	1494.1343	1508.2317	1520.2059	1823.859	2873.5234	2967.2462	2979.7701	3021.5906	3062.6824	3068.6998	3101.4491	3116.5978	3186.8956	3212.8719	3753.2589
OCC(CC=O)N1CC1	OC[C@@H](CC=O)N1CC1	
InChI=1S/C6H11NO2/c8-4-1-6(5-9)7-2-3-7/h4,6,9H,1-3,5H2	InChI=1S/C6H11NO2/c8-4-1-6(5-9)7-2-3-7/h4,6,9H,1-3,5H2/t6-/m1/s1
