19
gdb 56824	2.49108	1.20308	0.9466	2.1603	77.95	-0.2524	0.0358	0.2882	1287.4365	0.155931	-422.962407	-422.952106	-422.951162	-422.997808	37.614	
C	-0.0371391462	 1.5779795321	-0.1282823316	-0.411188
C	 0.0411150817	 0.0703760433	-0.0051089034	-0.078298
C	 1.3598295286	-0.6633366574	-0.1258033261	 0.074055
O	 2.5498542005	 0.0675930813	-0.219767917	-0.412169
C	 0.6545434743	-0.6152131771	 1.2049919922	-0.068515
C	 1.2290268425	 0.1959932191	 2.3584618844	-0.072557
O	 0.2232918744	 0.9380329533	 3.0528148762	-0.420972
C	 1.9738293072	-0.6731545424	 3.2762648311	 0.305029
C	 2.5367354377	-1.4079973253	 4.0435056982	-0.447216
H	 0.9219700837	 2.0507138597	 0.0953069297	 0.125244
H	-0.3192456281	 1.8648842335	-1.1473330408	 0.105226
H	-0.7780783757	 1.9907173535	 0.5611443714	 0.136926
H	-0.8142298978	-0.4533558893	-0.4250737002	 0.084135
H	 1.3775495159	-1.617568238	-0.6517767046	 0.087602
H	 2.5941152249	 0.4549658057	-1.1003033126	 0.292201
H	 0.182601807	-1.5409736623	 1.5230944563	 0.088411
H	 1.9112240977	 0.9497140948	 1.9585340313	 0.134525
H	-0.3266839945	 0.3036631215	 3.5259186344	 0.281275
H	 3.0557687463	-2.0424179159	 4.7187350514	 0.196286
44.1282	105.5995	149.5426	159.8447	188.7345	217.9899	259.8802	288.2688	305.8238	330.7076	488.7086	506.5519	533.1636	579.5994	628.4232	641.6942	663.2348	776.3539	807.4798	885.9657	942.2477	990.9947	1014.1317	1044.0117	1061.8578	1118.7017	1148.8353	1151.8066	1178.4205	1245.7087	1254.7938	1288.4322	1304.2763	1380.3455	1394.1366	1412.1232	1417.4918	1454.9429	1496.0984	1504.1991	2232.0806	3038.8931	3092.8288	3097.4059	3104.4943	3122.3323	3133.4081	3145.9654	3503.0139	3804.0927	3805.9687
CC1C(O)C1C(O)C#C	C[C@H]1[C@@H](O)[C@H]1[C@@H](O)C#C	
InChI=1S/C7H10O2/c1-3-5(8)6-4(2)7(6)9/h1,4-9H,2H3	InChI=1S/C7H10O2/c1-3-5(8)6-4(2)7(6)9/h1,4-9H,2H3/t4-,5+,6-,7-/m1/s1
