20
gdb 120055	4.39292	0.95233	0.91837	2.5329	78.64	-0.2412	0.0814	0.3226	1358.2141	0.171782	-403.072001	-403.063758	-403.062814	-403.105605	30.848	
C	-0.32910008	 1.426037005	-0.5730447151	-0.224512
O	-0.2578562884	 0.0267356519	-0.7010650526	-0.234318
C	 0.9875339622	-0.5012542118	-0.2936033834	-0.097096
C	 0.9415858943	-2.0040379873	-0.4983656383	 0.020046
C	 1.0393546486	-2.6290442427	-1.8790658535	-0.052602
C	 2.4784270305	-2.8809326275	-2.2023839976	-0.037233
C	 3.3395074572	-2.4234562968	-1.0403399854	-0.241334
C	 2.1538896467	-2.9077499791	-0.1818748703	-0.04723
N	 1.7200579278	-3.8620085394	-1.3479071417	-0.167012
H	-0.1907596435	 1.748797989	 0.4713769456	 0.103028
H	 0.4300400992	 1.9333612811	-1.1898049988	 0.103147
H	-1.3213979804	 1.7363281341	-0.9095044352	 0.127753
H	 1.8028368954	-0.0428375241	-0.8761357003	 0.085656
H	 1.1772109572	-0.2683274129	 0.7700099008	 0.083299
H	 0.0565509378	-2.4038102281	 0.0072761361	 0.095321
H	 0.262819521	-2.7014533651	-2.6315718962	 0.097063
H	 2.7974595729	-3.145931763	-3.2043032825	 0.094556
H	 4.1986812866	-3.087948116	-0.9170989293	 0.113379
H	 3.6689058211	-1.3817698094	-0.9709893946	 0.096347
H	 2.3060588237	-3.314589818	 0.8161104422	 0.081743
60.4652	91.7534	135.2047	213.7652	241.2632	332.4273	364.7848	477.1694	590.0166	721.677	757.7958	777.8892	810.8309	832.9598	909.9507	929.6361	963.0148	998.457	1010.8427	1022.4736	1039.899	1068.4514	1095.8578	1115.3244	1135.6706	1145.6264	1168.1754	1185.2718	1190.5139	1216.986	1235.8059	1255.4353	1267.1216	1283.0873	1339.434	1375.5237	1384.3493	1433.7901	1479.9792	1484.7287	1499.7169	1503.2028	1526.4173	2939.6405	2967.8734	2983.9864	3010.5803	3046.9713	3064.9815	3102.9039	3113.3901	3135.1228	3175.6415	3189.7322
COCC1C2C3CC1N23	COC[C@H]1[C@H]2[C@H]3C[C@@H]1N23	
InChI=1S/C7H11NO/c1-9-3-4-5-2-6-7(4)8(5)6/h4-7H,2-3H2,1H3	InChI=1S/C7H11NO/c1-9-3-4-5-2-6-7(4)8(5)6/h4-7H,2-3H2,1H3/t4-,5+,6-,7+,8?/m1/s1
