19
gdb 82633	2.02768	1.74769	1.55988	1.7109	75.06	-0.2227	0.0546	0.2773	1013.0847	0.15855	-422.970747	-422.962251	-422.961307	-423.003213	33.37	
C	-0.1180416309	 1.5424713523	-0.0469099655	-0.533576
C	-0.0018462345	 0.0573042777	 0.0500719605	 0.227462
C	 0.03639487	-1.0241989462	-1.0272080562	-0.159779
C	 1.324602362	-1.6273174614	-0.4680820829	-0.240038
C	 0.9248131427	-0.9507871718	 0.8698434766	-0.162502
C	-0.3638996686	-1.7090061198	 1.3018598768	 0.079629
O	-0.9563753936	-1.255588475	 2.508159259	-0.456932
C	-1.0119163921	-1.0911744694	 0.0724348148	 0.338865
O	-2.3519958354	-1.0958276203	-0.2417068641	-0.467829
H	 0.7893479842	 2.0025186078	-0.4559879814	 0.124576
H	-0.9515777464	 1.8106456782	-0.7055689	 0.133598
H	-0.3085459003	 2.0081123031	 0.9282893498	 0.110105
H	-0.2759108744	-0.9203786892	-2.0596195443	 0.092498
H	 1.4437018638	-2.7173537571	-0.4636842983	 0.09181
H	 2.2095358531	-1.1652445648	-0.9148411869	 0.101402
H	 1.6586884157	-0.6805114151	 1.6277277943	 0.073537
H	-0.3100284053	-2.7994447204	 1.3914386247	 0.080587
H	-0.9123540929	-0.2913789222	 2.5059485777	 0.277939
H	-2.8302687671	-0.9260528164	 0.5794411352	 0.288649
145.4778	167.8443	189.3216	200.5198	297.716	318.239	339.8999	386.5497	429.9423	497.8007	553.5298	622.2062	676.9199	720.4255	812.8441	827.1282	903.3066	908.4283	940.2159	949.219	985.0287	1031.7246	1060.6902	1086.6407	1114.3489	1135.8736	1147.7769	1160.225	1211.7008	1228.0902	1242.5869	1271.8636	1283.4964	1349.0487	1367.9499	1413.9952	1434.1513	1476.5245	1486.541	1498.8606	1507.2972	3012.4367	3028.4539	3056.5762	3065.0529	3088.1391	3091.1028	3128.8575	3188.5148	3775.5398	3778.6345
CC12C3CC1C(O)C23O	C[C@@]12[C@H]3C[C@@H]1[C@@H](O)[C@@]23O	
InChI=1S/C7H10O2/c1-6-3-2-4(6)7(6,9)5(3)8/h3-5,8-9H,2H2,1H3	InChI=1S/C7H10O2/c1-6-3-2-4(6)7(6,9)5(3)8/h3-5,8-9H,2H2,1H3/t3-,4-,5-,6+,7-/m1/s1
