14
gdb 19326	5.21585	1.67986	1.51212	1.9033	68.41	-0.2304	0.0105	0.2409	838.213	0.105664	-345.286036	-345.279471	-345.278527	-345.316429	26.266	
C	 0.0025456358	-1.1806528565	-0.115847879	-0.361697
C	 0.0411576684	 0.0185116637	-0.0302584823	 0.176761
C	 0.0557530981	 1.4283163522	 0.1258477888	 0.276842
O	 0.2080188219	 2.2800075004	-1.0324769233	-0.282682
C	 1.1246601918	 2.436801385	 0.0502179883	-0.066452
C	 0.4668729848	 3.2780419333	 1.1854080713	-0.089523
C	-0.9501542792	 3.6526433651	 0.8356056583	-0.288051
C	-0.6476851116	 2.2452501806	 1.2678149539	-0.138118
H	-0.0233852589	-2.2385989005	-0.2043178799	 0.191903
H	 2.181257293	 2.3305432311	-0.1639879313	 0.120104
H	 1.0262799112	 3.7281539612	 1.9935665255	 0.09975
H	-1.4551282412	 4.2529741829	 1.5856117987	 0.116485
H	-1.2224810581	 3.8647291537	-0.1902394954	 0.141842
H	-1.0675847359	 1.7723605179	 2.1444244564	 0.102835
149.9536	155.3148	366.9011	404.7531	471.2341	513.6618	569.8636	600.2281	617.4096	674.0173	732.5458	761.4398	801.9063	842.5988	899.4507	916.3651	939.4983	1003.0074	1010.4643	1050.1683	1052.7985	1099.2683	1125.4989	1169.2426	1256.0209	1266.4381	1299.3921	1422.1286	1464.4295	2239.3814	3142.9136	3194.0283	3210.5508	3219.3503	3236.628	3502.1499
C#CC12OC1C1CC21	C#C[C@]12O[C@H]1[C@H]1C[C@@H]21	
InChI=1S/C7H6O/c1-2-7-5-3-4(5)6(7)8-7/h1,4-6H,3H2	InChI=1S/C7H6O/c1-2-7-5-3-4(5)6(7)8-7/h1,4-6H,3H2/t4-,5+,6-,7+/m0/s1
