19
gdb 32823	2.84278	1.25906	0.95297	0.8507	79.03	-0.1747	0.0598	0.2345	1246.4438	0.160944	-419.236766	-419.227637	-419.226693	-419.270658	34.452	
N	-0.3384780461	 1.4428324619	-0.0939941413	-0.624957
C	-0.2314635026	 0.0385225933	-0.0391615376	 0.177977
C	-1.1748469274	-0.9745717209	-0.031766613	 0.243703
C	-2.6685549232	-0.8132240059	-0.0006815617	-0.325619
C	-3.2947342946	-0.3400005339	-1.31438918	-0.067028
O	-2.9587239474	 1.0355725289	-1.5099008592	-0.40648
C	-0.4512826371	-2.2074274348	-0.0390850435	-0.249033
C	 0.8906085862	-1.9157178681	-0.0380212585	-0.096687
N	 1.0108898906	-0.5463146741	-0.0424157644	-0.254217
H	-0.2879571935	 1.8712304037	 0.82628699	 0.231709
H	-1.2285637267	 1.6878420623	-0.5181889233	 0.25601
H	-3.1287859133	-1.7727261159	 0.2612084729	 0.100264
H	-2.9726099591	-0.1007188924	 0.7783051835	 0.101932
H	-2.9207294918	-0.9542382086	-2.1450829116	 0.09634
H	-4.3890486592	-0.4539495681	-1.2692459207	 0.082848
H	-3.1206905277	 1.2637245471	-2.4292708457	 0.290073
H	-0.8830200057	-3.1978213706	-0.0235288847	 0.080303
H	 1.7595530698	-2.553089056	-0.0258003454	 0.108778
H	 1.8649300889	-0.0219570178	-0.120643746	 0.254082
54.6199	152.897	161.2313	220.8477	235.3476	260.8796	305.0783	338.5075	436.1452	475.478	496.1279	623.9262	638.8264	668.8214	711.6991	730.0507	814.2512	862.9815	887.4041	915.1907	949.3111	1039.8918	1070.7714	1080.9316	1100.1504	1154.3719	1186.0112	1239.4391	1262.8786	1271.6072	1306.8624	1334.1038	1376.923	1424.9531	1442.4344	1465.7996	1506.7866	1509.9966	1516.1	1616.6602	1661.1547	2976.4777	3010.9656	3031.6993	3068.6312	3231.2649	3269.0137	3472.0767	3557.1823	3680.0659	3841.5188
NC1=C(CCO)C=CN1	Nc1c(CCO)cc[nH]1	
InChI=1S/C6H10N2O/c7-6-5(2-4-9)1-3-8-6/h1,3,8-9H,2,4,7H2	InChI=1S/C6H10N2O/c7-6-5(2-4-9)1-3-8-6/h1,3,8-9H,2,4,7H2
