14
gdb 125562	3.55642	1.712	1.16409	3.9048	68.69	-0.2244	-0.0189	0.2055	974.8993	0.103786	-429.053846	-429.046825	-429.04588	-429.085257	26.192	
C	-0.0325781679	 1.5102388265	 0.0099511544	-0.498522
C	-0.004615119	 0.0248059527	-0.0090304303	 0.331589
N	-0.0218656913	-0.7474106194	-1.0708079057	-0.259573
N	 0.0151001832	-2.0881680368	-0.7036162927	-0.357833
C	 0.0540775546	-2.061405618	 0.6036617924	 0.514904
N	 0.1025445497	-2.8793165832	 1.6934003911	-0.364094
N	 0.1238771658	-2.1532114369	 2.8535869475	-0.189448
C	 0.0889368035	-0.9012503203	 2.4933724382	 0.011071
N	 0.0450899018	-0.7837406279	 1.1173595162	-0.092127
H	 0.8598754529	 1.9293966758	 0.4889750596	 0.136792
H	-0.0709387227	 1.8644334471	-1.0211262483	 0.167673
H	-0.9094832845	 1.8954247731	 0.5431427584	 0.136778
H	 0.123901267	-3.882116305	 1.7278369336	 0.294931
H	 0.0938469568	-0.0732947376	 3.1814760556	 0.16786
148.7563	186.3445	209.4293	248.7166	313.9595	392.5568	531.6117	637.12	652.5661	658.5988	715.2741	755.4548	804.4084	841.1302	975.1013	1011.3886	1052.4139	1066.9027	1090.7287	1136.4953	1254.1945	1303.427	1356.6122	1394.8765	1401.6672	1414.96	1479.6701	1487.2427	1551.1472	1572.3325	1649.0977	3029.6444	3079.4172	3148.4094	3293.2435	3711.6976
CC1=NN=C2NN=CN12	Cc1nnc2[nH]ncn12	
InChI=1S/C4H5N5/c1-3-6-8-4-7-5-2-9(3)4/h2H,1H3,(H,7,8)	InChI=1S/C4H5N5/c1-3-6-8-4-7-5-2-9(3)4/h2H,1H3,(H,7,8)
