19
gdb 95334	3.44273	1.32557	1.08099	1.8294	78.25	-0.2406	0.007	0.2476	1147.2395	0.160148	-422.997883	-422.990013	-422.989069	-423.030152	30.699	
C	-0.119312335	 1.540856786	-0.0012653363	-0.392092
C	 0.0153925512	 0.0117682079	-0.0085861618	 0.105216
O	 0.6105885531	-0.4292913839	-1.238958326	-0.274624
C	 2.0290919669	-0.573334011	-1.2621980784	-0.130236
C	 2.3424048927	-1.6969442184	-0.2805347138	 0.086246
O	 3.6579642021	-1.7822141579	 0.33648458	-0.306922
C	 3.072622757	-1.722831086	 1.6720646121	-0.156612
C	 1.7615886461	-1.3187040595	 1.0478232146	 0.220313
C	 0.7570343388	-0.4759038293	 1.2181007827	-0.24072
H	 0.8630280476	 2.0229658837	 0.0149705092	 0.122331
H	-0.654940277	 1.8688634227	-0.8954826113	 0.127206
H	-0.6752762427	 1.8752724541	 0.880915276	 0.114571
H	-0.9933757463	-0.4214162392	-0.0373218733	 0.100169
H	 2.2847775651	-0.8002825207	-2.3003227892	 0.11001
H	 2.556655555	 0.3406170733	-0.9553699937	 0.099132
H	 2.0416607815	-2.6690859563	-0.6926034135	 0.088647
H	 3.0934081811	-2.7077955319	 2.1588176977	 0.109716
H	 3.5692707639	-0.9899532851	 2.3179841367	 0.11951
H	 0.5029223387	-0.0302294188	 2.1756099982	 0.098141
95.7854	181.7115	222.9338	232.8424	308.2221	352.3786	399.2878	463.8773	473.8049	537.3608	694.0947	777.0159	808.7662	832.9371	859.9501	923.9253	959.6381	975.4318	987.1536	1017.8375	1055.4619	1065.8076	1097.3737	1123.9485	1137.1902	1138.6621	1165.4069	1238.8335	1255.7364	1297.8987	1326.0034	1338.5529	1355.3549	1376.4779	1387.9814	1399.8538	1486.4952	1494.2178	1503.1847	1510.6227	1788.1675	3002.4277	3007.8954	3014.744	3021.1871	3038.8482	3061.7099	3098.018	3108.7925	3126.0795	3168.8444
CC1OCC2OCC2=C1	C[C@H]1OC[C@H]2OC[C]2[CH]1	
InChI=1S/C7H10O2/c1-5-2-6-3-9-7(6)4-8-5/h2,5,7H,3-4H2,1H3	InChI=1S/C7H10O2/c1-5-2-6-3-9-7(6)4-8-5/h2,5,7H,3-4H2,1H3/t5-,7-/m1/s1
