17
gdb 83751	2.79677	1.61427	1.37963	3.1528	67.4	-0.2392	0.0698	0.309	978.5764	0.135819	-458.909286	-458.901717	-458.900772	-458.941465	29.479	
O	 0.0050866415	 1.4305608496	 0.0436292033	-0.42088
C	-0.0469024276	 0.0495075756	-0.0315427742	 0.120083
C	-0.4688736352	-0.7365365729	 1.1723400085	 0.009246
O	-1.0466160237	 0.0888347685	 2.1664846172	-0.278042
C	-2.4471861027	 0.2277859154	 1.893203095	-0.158126
C	-2.6084325948	 0.0089669201	 0.3903064979	 0.41927
C	-3.9123911223	-0.0872565246	-0.2700687406	-0.255348
O	-3.1118331592	 1.0899736319	-0.3979651253	-0.262834
C	-1.3695833784	-0.7247008631	-0.0453214285	-0.247945
H	-0.2130529523	 1.6594608512	 0.9583971836	 0.295101
H	 0.7333043753	-0.3631979106	-0.665200775	 0.106359
H	 0.0555315998	-1.6065180713	 1.5545238595	 0.102512
H	-3.0082216138	-0.5260713743	 2.4635529716	 0.109462
H	-2.7703447052	 1.2263266203	 2.1982861978	 0.129413
H	-4.017429138	-0.6870585194	-1.1736289672	 0.117772
H	-4.8257700623	 0.0257783249	 0.3147422332	 0.113853
H	-1.4607270809	-1.5812075615	-0.7024738167	 0.100103
79.9187	127.4729	257.2034	292.4353	340.2531	379.8215	431.8037	503.6863	590.297	666.9684	698.8081	756.5693	787.0264	808.8827	879.6559	905.2457	946.3742	975.0909	1023.087	1034.3724	1067.703	1082.4807	1093.3161	1121.1588	1128.6332	1167.1083	1208.3721	1230.0876	1232.5294	1299.1982	1317.5789	1338.5657	1369.78	1437.8285	1440.4073	1504.7445	1534.2608	3004.3349	3072.4485	3102.1611	3147.1228	3156.4237	3158.0608	3183.1159	3735.0884
OC1C2OCC3(CO3)C12	O[C@H]1[C@H]2OC[C@]3(CO3)[C@@H]12	
InChI=1S/C6H8O3/c7-4-3-5(4)8-1-6(3)2-9-6/h3-5,7H,1-2H2	InChI=1S/C6H8O3/c7-4-3-5(4)8-1-6(3)2-9-6/h3-5,7H,1-2H2/t3-,4+,5-,6-/m0/s1
