20
gdb 95180	2.07393	1.82254	1.29681	2.8355	78.2	-0.2096	-0.014	0.1956	1067.8888	0.173071	-403.154361	-403.146086	-403.145142	-403.187057	32.382	
C	-0.2306131672	 1.5237867693	 0.0049075354	-0.395897
C	 0.0232107101	 0.0093725234	-0.0360628733	-0.081136
N	 0.6750360269	-0.4083127848	-1.2855852789	-0.289032
C	 2.0891521465	-0.0403406853	-1.3797102854	-0.202152
C	 2.9542101211	-0.420696691	-0.1679439123	-0.047928
C	 3.1340467221	 0.559104046	 0.9483395406	-0.292606
C	 2.2344585448	-0.6577090014	 1.1512723265	-0.115062
C	 0.752634689	-0.4984617486	 1.2228841316	 0.378299
O	 0.1287296642	-0.8259744984	 2.2107682773	-0.338704
H	 0.6922604876	 2.1093905801	-0.0266030716	 0.118452
H	-0.8390798722	 1.8139907106	-0.8558840231	 0.12858
H	-0.763851212	 1.78529174	 0.9227118089	 0.136045
H	-0.9546286655	-0.4822367879	-0.0012438702	 0.103789
H	 0.5973219461	-1.4176072137	-1.3626703104	 0.219743
H	 2.4922130846	-0.5214007616	-2.2756207886	 0.110821
H	 2.1548430644	 1.0389599904	-1.558133596	 0.115025
H	 3.7905995224	-1.0821838203	-0.372604657	 0.094007
H	 4.0641781338	 0.5634749727	 1.5053570912	 0.125346
H	 2.6676242483	 1.5334445209	 0.8563681378	 0.126542
H	 2.6121554651	-1.4131599204	 1.8316534874	 0.105869
77.7299	179.7282	191.6189	222.27	260.1615	361.6629	386.6864	435.7795	460.1676	530.7021	638.4433	735.3528	748.7972	767.6418	810.0708	848.5257	867.0588	913.7322	938.6009	951.5751	1026.1705	1039.217	1057.621	1069.9749	1123.8682	1125.2632	1158.7785	1174.0283	1203.536	1257.8121	1273.759	1307.2043	1354.687	1368.9737	1381.4657	1390.3529	1399.2521	1479.4696	1483.8482	1495.3542	1504.7083	1506.2275	1787.0245	3038.6965	3048.802	3057.2344	3084.4311	3118.3509	3127.5368	3140.0882	3149.6649	3172.7786	3225.591	3511.3629
CC1NCC2CC2C1=O	C[C@H]1NC[C@H]2C[C@H]2C1=O	
InChI=1S/C7H11NO/c1-4-7(9)6-2-5(6)3-8-4/h4-6,8H,2-3H2,1H3	InChI=1S/C7H11NO/c1-4-7(9)6-2-5(6)3-8-4/h4-6,8H,2-3H2,1H3/t4-,5-,6-/m1/s1
