16
gdb 45496	3.099	1.79347	1.57254	3.9065	67.01	-0.2548	-0.0082	0.2466	880.6068	0.127702	-437.907838	-437.901603	-437.900658	-437.938442	25.316	
O	 0.0442152499	 0.0155735665	-0.525359228	-0.341973
C	 0.0461578661	 1.1383121776	-0.1125445435	 0.442637
O	-1.0907854603	 1.7764521946	 0.2913009845	-0.238182
C	-0.8034319558	 3.1167250866	 0.7571867688	 0.06572
C	-0.7126744994	 3.0598625866	 2.2827945413	-0.216868
C	 0.641545811	 2.3409613759	 2.4836815965	-0.177569
N	 1.4869056093	 2.7316004246	 1.3210947202	-0.107515
C	 0.6435131193	 3.4126507463	 0.3399167461	-0.073024
C	 1.21079739	 2.082895262	 0.0146521509	-0.1812
H	-1.5631940882	 3.7826295076	 0.3483249348	 0.101519
H	-0.6722144689	 4.0763672047	 2.6882759148	 0.113791
H	-1.5610648963	 2.5379920437	 2.7301837731	 0.125575
H	 1.1528868375	 2.6614431727	 3.3938563457	 0.121006
H	 0.5257294844	 1.2541441219	 2.5327184668	 0.133014
H	 0.9573805943	 4.3594501596	-0.0845758129	 0.109627
H	 2.0760055773	 1.8953412291	-0.6096915292	 0.123442
134.0391	203.675	377.1389	396.5411	474.2587	593.7179	633.8051	700.8609	727.4856	775.3953	838.8339	851.4609	867.7943	875.6594	917.5825	936.0534	961.654	1008.1505	1014.282	1050.271	1081.3585	1108.884	1180.4383	1193.5848	1214.0133	1247.6188	1285.5551	1292.1466	1324.5021	1335.0776	1359.6788	1381.3566	1477.2482	1514.4123	1878.1567	3056.6198	3062.145	3106.7214	3122.4551	3124.4053	3176.0784	3193.3922
O=C1OC2CCN3C2C13	O=C1O[C@H]2CCN3[C@H]2[C@H]13	
InChI=1S/C6H7NO2/c8-6-5-4-3(9-6)1-2-7(4)5/h3-5H,1-2H2	InChI=1S/C6H7NO2/c8-6-5-4-3(9-6)1-2-7(4)5/h3-5H,1-2H2/t3-,4+,5+,7?/m0/s1
