18
gdb 39143	3.48778	1.37764	1.23366	2.8313	70.88	-0.2253	0.0712	0.2965	1047.0227	0.148837	-439.0341	-439.026643	-439.025699	-439.066218	28.938	
C	-0.0015792053	 1.485840922	-0.0639509559	-0.11808
O	 1.4365530202	 1.556640936	 0.0544277859	-0.272189
C	 1.5236215227	 0.1638031868	 0.397098507	-0.132163
C	 0.0328906709	-0.0590408266	-0.0061418097	 0.269845
N	-0.9154197041	-0.7265949774	 0.8651415813	-0.372218
C	-1.149388151	-2.1056035991	 0.4187433424	-0.202722
C	-0.8390246583	-2.0458866559	-1.0625889853	 0.040218
O	-1.4745037555	-0.9579915202	-1.7417056035	-0.253652
C	-0.1161745753	-0.7975999233	-1.3193451232	 0.001503
H	-0.5117785986	 1.9355550954	 0.7984703123	 0.097354
H	-0.3707334165	 1.9472378185	-0.9859056164	 0.115103
H	 2.2984473725	-0.3604384108	-0.1767854053	 0.100175
H	 1.7084122477	 0.0085228218	 1.471232699	 0.086264
H	-0.6916903191	-0.6462927175	 1.8476472041	 0.223529
H	-0.4830793945	-2.8532295618	 0.8814655442	 0.092233
H	-2.1836879561	-2.4072161694	 0.6230382682	 0.116927
H	-0.7030385754	-2.9562990924	-1.638962405	 0.101387
H	 0.6189555859	-0.659720126	-2.10727833	 0.106487
93.5736	123.015	207.4946	311.8443	341.8458	383.0261	453.9542	521.4718	560.4549	718.9263	835.6402	842.1532	851.4179	881.6232	917.0387	941.807	961.8332	997.6317	1009.1982	1026.1899	1042.705	1058.9126	1099.8137	1121.0708	1144.5866	1160.6136	1192.8795	1214.4285	1258.1522	1265.3799	1291.105	1303.4351	1367.1431	1372.1318	1432.9341	1463.5526	1504.8489	1512.4051	1531.8243	2961.5405	2979.3493	3011.9027	3041.169	3046.2565	3074.9169	3153.7088	3166.1812	3578.9427
C1OCC11NCC2OC12	C1OCC21NC[C@H]1O[C@@H]21	
InChI=1S/C6H9NO2/c1-4-5(9-4)6(7-1)2-8-3-6/h4-5,7H,1-3H2	InChI=1S/C6H9NO2/c1-4-5(9-4)6(7-1)2-8-3-6/h4-5,7H,1-3H2/t4-,5-/m1/s1
