25
gdb 81774	2.05113	1.62913	1.25678	0.2605	92.29	-0.2412	0.0803	0.3215	1200.1811	0.227387	-352.345321	-352.335191	-352.334247	-352.379002	40.085	
C	-0.435630374	 1.5277949239	 0.3726602687	-0.411966
C	-0.1065006201	 0.0487914263	 0.1958515863	-0.014657
C	 0.3235602658	-0.4511640782	-1.1886980387	-0.112678
C	 1.6639305323	 0.1172217464	-1.5687174731	-0.346645
C	 1.6125142259	-1.0491123349	-0.6177523166	 0.35035
C	 2.2964466845	-2.3514649962	-0.9354979893	-0.50379
C	 1.2230172419	-0.5673736369	 0.8076446209	 0.256502
C	 2.2032642007	 0.3808535696	 1.5010238906	-0.449561
C	 0.8919408802	-1.7350803578	 1.7415641814	-0.447629
H	 0.3567607409	 2.1806499787	-0.0050583306	 0.111942
H	-1.3543189728	 1.7812600171	-0.1683067319	 0.111833
H	-0.5955498658	 1.776487037	 1.4277677731	 0.110312
H	-0.9560831473	-0.5392296788	 0.5590280925	 0.064152
H	-0.3445210341	-0.868561114	-1.9346461009	 0.074696
H	 2.0017774901	-0.1313017955	-2.5706501864	 0.103552
H	 1.9649872812	 1.1107181808	-1.2484806449	 0.100097
H	 2.263951951	-2.5527909022	-2.0115284324	 0.114034
H	 3.3532240117	-2.3322846993	-0.6405721365	 0.115955
H	 1.8276739676	-3.2000493511	-0.4262876992	 0.115363
H	 2.4791266042	 1.2347368384	 0.8773309862	 0.110354
H	 1.7782673877	 0.775055798	 2.4314353382	 0.10915
H	 3.1274250378	-0.1477988449	 1.7623600361	 0.109287
H	 1.7943949802	-2.2827723077	 2.0367107476	 0.108738
H	 0.4123788169	-1.3688309513	 2.6565291433	 0.108437
H	 0.2074700135	-2.4474034377	 1.2690351656	 0.11217
130.679	190.9261	202.0649	204.0663	212.7136	231.4349	252.858	282.9433	322.6865	361.8153	376.8585	443.8597	480.1748	537.1241	603.2203	643.1161	733.2715	799.2611	851.1536	878.5456	946.2843	958.0115	969.4641	983.2904	1006.1903	1011.7494	1020.8153	1052.8992	1074.1929	1110.3166	1114.0896	1121.9559	1178.7081	1214.3648	1225.3137	1254.9558	1289.7776	1312.2178	1374.6538	1384.0961	1400.1781	1410.1439	1415.5172	1426.3057	1481.8143	1483.3298	1489.2277	1491.7075	1497.337	1497.699	1504.2844	1510.4392	1515.4371	3018.6503	3020.8171	3026.7051	3029.5067	3040.8105	3077.3919	3081.8374	3087.0974	3089.5959	3092.9928	3095.5766	3102.3923	3111.0994	3117.6927	3160.8606	3192.6424
CC1C2CC2(C)C1(C)C	C[C@H]1[C@H]2C[C@@]2(C)C1(C)C	
InChI=1S/C9H16/c1-6-7-5-9(7,4)8(6,2)3/h6-7H,5H2,1-4H3	InChI=1S/C9H16/c1-6-7-5-9(7,4)8(6,2)3/h6-7H,5H2,1-4H3/t6-,7+,9+/m0/s1
