17
gdb 76214	2.36999	1.56169	0.99863	5.7403	77.74	-0.2271	-0.0864	0.1408	1172.1498	0.134516	-421.881508	-421.872661	-421.871717	-421.915297	32.165	
C	-0.0609022595	 1.5980269308	 0.00473627	-0.401772
C	 0.029632633	 0.0635891299	-0.0257312287	-0.209774
C	 0.7828229888	-0.5284604172	-1.2051333729	 0.309429
C	 0.3670521176	-0.2342777824	-2.6074845589	-0.489215
C	 1.8084127034	-1.3210430266	-0.8314001349	-0.28809
C	 1.9318326409	-1.4025245972	 0.6277118474	 0.294922
O	 2.7177993647	-2.0209634491	 1.3045306032	-0.308094
C	 0.7994417894	-0.4888574168	 1.1782887715	 0.306135
O	 0.5940769958	-0.2450177636	 2.3354711231	-0.286506
H	 0.9308896745	 2.0524957895	-0.0849502685	 0.128264
H	-0.6883988563	 1.9788801353	-0.8054858867	 0.122737
H	-0.4947122296	 1.9135398657	 0.9568445131	 0.150307
H	-0.9924545893	-0.3421031663	 0.002979843	 0.118773
H	 0.4351730055	 0.8400516604	-2.8167361502	 0.149205
H	 0.982878183	-0.7685172051	-3.3343123266	 0.139069
H	-0.6829790431	-0.5126649842	-2.7633297653	 0.14355
H	 2.4701356013	-1.8508604831	-1.5060690887	 0.121059
54.4858	136.2876	180.3597	216.4757	239.1331	247.8237	298.3925	315.5629	444.0153	517.7533	563.6276	587.2335	641.4354	714.4882	793.9947	821.2239	895.6324	963.8842	1008.3061	1029.5758	1073.3798	1078.0214	1121.9113	1164.9773	1207.9695	1264.4254	1302.633	1343.2896	1404.3683	1408.9998	1473.624	1475.0641	1499.1414	1500.3364	1655.8851	1815.2968	1859.4951	3004.5757	3025.3991	3043.1836	3075.7459	3114.9086	3126.4006	3128.9507	3208.0675
CC1C(C)=CC(=O)C1=O	C[C@H]1C(=CC(=O)C1=O)C	
InChI=1S/C7H8O2/c1-4-3-6(8)7(9)5(4)2/h3,5H,1-2H3	InChI=1S/C7H8O2/c1-4-3-6(8)7(9)5(4)2/h3,5H,1-2H3/t5-/m0/s1
