19
gdb 122606	3.82355	0.76191	0.665	3.2935	72.61	-0.2583	0.0071	0.2654	1673.972	0.158196	-460.175979	-460.166464	-460.16552	-460.211684	32.822	
C	-0.0752772456	 1.4159843228	-0.0590097804	-0.230953
O	 0.0766606636	 0.01864637	 0.0230885156	-0.232269
C	 0.6236017123	-0.5420762318	-1.1483880251	-0.055419
C	 0.7018292225	-2.0532894225	-0.952604171	-0.233884
C	 1.3040399241	-2.7625555539	-2.1628897725	-0.192749
C	 1.2230598494	-4.300120771	-2.243851585	-0.106789
O	 0.4202156789	-4.2056100041	-3.4655865572	-0.237163
C	 0.4353791879	-2.8343714984	-3.4260759608	 0.462086
O	-0.1014075311	-2.0781902862	-4.1709143288	-0.323422
H	 0.8908322862	 1.9241305584	-0.2084394274	 0.10355
H	-0.7451931035	 1.7063074298	-0.8833581741	 0.109749
H	-0.5088829058	 1.7537690017	 0.8853097409	 0.127638
H	 0.0041959932	-0.3036297897	-2.027412376	 0.119057
H	 1.6305151057	-0.1297754499	-1.341219884	 0.082983
H	 1.3061387636	-2.2655945989	-0.0632881871	 0.116617
H	-0.3056040521	-2.4363435336	-0.7531234667	 0.119157
H	 2.3010990804	-2.3717545956	-2.389950961	 0.115608
H	 2.1557513401	-4.8340977768	-2.4342261534	 0.127379
H	 0.6544411204	-4.7873705103	-1.448498986	 0.128825
57.1095	81.3276	93.4748	120.7453	175.1423	215.1413	236.1179	311.7434	363.1233	455.4198	521.9742	707.8144	762.5475	796.8063	851.7077	911.733	955.2598	984.8829	1024.8967	1080.6199	1101.3422	1121.4346	1145.812	1162.0964	1169.7676	1181.2902	1214.6595	1229.2488	1252.7916	1296.8535	1314.8372	1347.136	1373.9601	1431.7948	1482.0855	1485.6429	1494.6339	1506.4423	1516.8383	1535.2855	1929.4103	2943.3518	2971.6282	3000.1266	3016.0937	3037.5375	3064.3298	3071.8691	3084.9646	3115.3017	3133.655
COCCC1COC1=O	COCC[C@H]1COC1=O	
InChI=1S/C6H10O3/c1-8-3-2-5-4-9-6(5)7/h5H,2-4H2,1H3	InChI=1S/C6H10O3/c1-8-3-2-5-4-9-6(5)7/h5H,2-4H2,1H3/t5-/m0/s1
