17
gdb 31272	2.02419	1.72693	1.02248	3.3673	71.3	-0.2111	0.0305	0.2416	1153.16	0.136726	-455.161209	-455.152297	-455.151353	-455.195341	31.91	
C	-0.6681720006	 0.6427492361	 0.1418544693	-0.270809
O	 0.726985834	 0.3827815875	-0.0920165852	-0.275971
C	 0.9882404096	-0.4900312924	-1.085318521	 0.307969
C	 0.7842104933	-1.842741242	-1.2336820247	 0.124863
C	 0.1071717964	-2.785590769	-0.2944381237	-0.18529
O	-1.3235887949	-2.6768610759	-0.3033595924	-0.412711
N	 1.2846271424	-2.2496451401	-2.4573491736	-0.304546
C	 1.7879888795	-1.1789343364	-3.0213951103	-0.001738
N	 1.6273050896	-0.0738295738	-2.232342584	-0.299885
H	-1.084753449	 1.2524899529	-0.6700051919	 0.113707
H	-1.2288543561	-0.2927797778	 0.2205100255	 0.162148
H	-0.720933216	 1.2008560457	 1.0781328447	 0.132583
H	 0.4232713533	-3.8072598273	-0.5413314744	 0.112538
H	 0.3973142804	-2.578487721	 0.7401338029	 0.115163
H	-1.6047627671	-2.8020654904	-1.2163499778	 0.282554
H	 2.2846980127	-1.1365857595	-3.9789909666	 0.129816
H	 1.9403800826	 0.8663584832	-2.4106074868	 0.26961
76.6865	82.5444	157.7965	173.9626	184.9317	252.1043	348.2856	383.1218	444.6515	498.8743	545.9684	641.6084	687.9371	729.0974	775.3674	804.9101	940.9199	950.423	1015.5191	1022.8426	1097.6703	1147.1075	1183.9925	1198.9821	1227.1934	1285.3066	1297.0981	1365.5635	1386.5001	1420.5742	1450.3437	1485.0826	1490.2509	1494.1051	1518.1116	1524.1312	1634.8565	3015.8558	3025.4732	3086.6509	3100.9566	3145.7203	3251.0243	3658.7692	3806.9179
COC1=C(CO)N=CN1	COc1c(CO)nc[nH]1	
InChI=1S/C5H8N2O2/c1-9-5-4(2-8)6-3-7-5/h3,8H,2H2,1H3,(H,6,7)	InChI=1S/C5H8N2O2/c1-9-5-4(2-8)6-3-7-5/h3,8H,2H2,1H3,(H,6,7)
