18
gdb 93399	2.47003	1.45245	1.05622	2.9897	76.	-0.2444	-0.0369	0.2075	1158.8725	0.148801	-439.136773	-439.128161	-439.127217	-439.169859	32.553	
C	 0.0366597851	 1.5149770876	 0.0538324622	-0.48715
C	-0.0486414551	 0.0199065597	-0.0083571618	 0.27493
C	-0.0422860093	-0.6814897623	-1.1501040472	-0.242875
C	-0.0178765356	-2.1640113016	-1.2020808582	 0.381673
O	 0.1256733392	-2.7845310927	-2.2412691398	-0.376644
N	-0.1059589071	-2.7900378644	 0.0245036595	-0.34857
C	-0.6644845164	-2.1060414956	 1.1814768103	-0.200599
C	-0.036140316	-0.7192879337	 1.3196419726	 0.045818
O	 1.2921057715	-0.7691424943	 1.8351730181	-0.431336
H	 0.8943465506	 1.8125792729	 0.6683394425	 0.150753
H	 0.1412190721	 1.9608825288	-0.9378435568	 0.130274
H	-0.8554435944	 1.9381953177	 0.5327582506	 0.132703
H	 0.0073832394	-0.1999091671	-2.1212451941	 0.109748
H	-0.2140690133	-3.7922606434	-0.0389894612	 0.247535
H	-1.7578641833	-1.9985668773	 1.10332052	 0.108275
H	-0.4444602994	-2.6856665753	 2.0820225181	 0.121911
H	-0.6052989062	-0.1557108519	 2.0663664194	 0.094272
H	 1.812642828	-1.2918891771	 1.2129836958	 0.289284
95.9016	158.6737	177.3376	202.3387	250.0219	299.1734	360.9221	395.1003	456.1513	488.1116	545.1639	571.683	640.8171	715.9352	749.0439	867.2233	899.8357	910.7485	917.3113	1015.7416	1035.3253	1063.6214	1094.6941	1125.9391	1170.9788	1248.3457	1270.6692	1298.65	1332.8722	1370.4217	1400.411	1405.5179	1424.4989	1461.8346	1476.1109	1485.2599	1504.7066	1702.1083	1782.6899	2980.4558	3024.1036	3061.6938	3078.1559	3090.6103	3124.5834	3189.5758	3606.4725	3788.7234
CC1=CC(=O)NCC1O	CC1=CC(=O)NC[C@H]1O	
InChI=1S/C6H9NO2/c1-4-2-6(9)7-3-5(4)8/h2,5,8H,3H2,1H3,(H,7,9)	InChI=1S/C6H9NO2/c1-4-2-6(9)7-3-5(4)8/h2,5,8H,3H2,1H3,(H,7,9)/t5-/m1/s1
