20
gdb 114788	3.09543	1.39441	1.24628	2.0489	76.54	-0.2281	0.0724	0.3005	1078.9148	0.173651	-403.100995	-403.093374	-403.092429	-403.133189	30.453	
O	 0.587530148	-0.1598747183	 1.3942011139	-0.423873
C	-0.0170280036	 0.236087098	 0.1731833466	-0.084815
C	-1.3876883541	-0.4222042764	-0.0400507365	-0.013072
C	-2.0907090178	-0.0657254376	-1.3856748219	-0.252597
C	-2.0894263672	-1.3827051202	-2.1768807781	-0.053569
C	-0.6420751464	-1.8867070665	-2.3686229549	-0.156966
N	-0.711335099	-2.7413724353	-1.1305058216	-0.163912
C	-2.2033230357	-2.5076981829	-1.1136920024	-0.056184
C	-1.368255635	-1.9498414827	-0.0380858173	-0.042453
H	 0.8538535822	-1.0802106209	 1.3008546043	 0.291293
H	-0.1421505048	 1.322477352	 0.2385865933	 0.109063
H	 0.6492391388	 0.0389680238	-0.6787959965	 0.093691
H	-2.0110005468	-0.1103947522	 0.8064106826	 0.084208
H	-3.1145162233	 0.277313399	-1.204597852	 0.102427
H	-1.5718301553	 0.7308572468	-1.9319010001	 0.098628
H	-2.7464070701	-1.3995833528	-3.0462505526	 0.070687
H	-0.5312990151	-2.5584974218	-3.2236894056	 0.110916
H	 0.1650141372	-1.1464978822	-2.3941998472	 0.096006
H	-2.9258531157	-3.311916732	-1.0390775047	 0.093264
H	-1.2951248662	-2.470248608	 0.9113987206	 0.097259
76.3217	168.5482	188.1412	325.3145	340.2847	386.5384	394.1009	552.0589	620.2317	655.3546	762.2145	786.9726	823.5586	842.9522	865.4365	895.2551	921.0638	965.2297	989.0417	999.4854	1036.0952	1048.5403	1060.6045	1077.3506	1079.1534	1120.8199	1169.0673	1183.9261	1206.6249	1213.3003	1252.4715	1273.2616	1281.4138	1304.1433	1307.766	1342.4415	1366.4859	1391.4435	1394.874	1416.319	1490.7059	1500.5827	1514.555	3000.217	3029.933	3037.6545	3044.0305	3070.6133	3079.0656	3096.4031	3114.3464	3162.7456	3181.5464	3817.5439
OCC1CC2CN3C2C13	OC[C@H]1C[C@H]2CN3[C@H]2[C@H]13	
InChI=1S/C7H11NO/c9-3-5-1-4-2-8-6(4)7(5)8/h4-7,9H,1-3H2	InChI=1S/C7H11NO/c9-3-5-1-4-2-8-6(4)7(5)8/h4-7,9H,1-3H2/t4-,5+,6+,7-,8?/m0/s1
