20
gdb 6283	2.89227	1.21633	1.05545	1.2033	77.16	-0.2547	0.0592	0.3138	1234.9121	0.17376	-348.979657	-348.969612	-348.968668	-349.014385	36.641	
C	-0.1134337877	 1.5987897464	 0.0412493269	-0.401036
C	-0.0538242555	 0.0712096463	 0.0276996574	 0.116941
O	 0.7859546045	-0.4009700249	-1.0281823827	-0.434973
C	 0.5278404032	-0.4967613631	 1.320414947	-0.167758
C	 0.5190143665	-2.0414876765	 1.3790345132	-0.133957
C	 1.3136018855	-2.5597770986	 2.5934402539	-0.398171
C	-0.8470579231	-2.5652087793	 1.3908240539	 0.344778
C	-1.9726591361	-2.9883842601	 1.4249838408	-0.506729
H	 0.8869904422	 2.0210433443	 0.1809018514	 0.121904
H	-0.5132775936	 1.9801002553	-0.9053178821	 0.10309
H	-0.7622377033	 1.961220827	 0.8454965672	 0.11553
H	-1.0719119229	-0.3287000719	-0.0983213979	 0.080897
H	 0.3814779913	-0.1522838461	-1.8647076311	 0.282061
H	 1.5657413766	-0.1532889288	 1.4097992801	 0.099928
H	-0.0276012076	-0.0954330117	 2.1753046181	 0.099344
H	 1.0093314273	-2.3959927744	 0.4644248221	 0.125519
H	 0.8716799638	-2.2023784111	 3.5288971621	 0.121951
H	 1.3199098637	-3.6525062112	 2.6193748147	 0.123921
H	 2.3490195555	-2.2083648264	 2.5453525084	 0.114404
H	-2.9623874603	-3.3722119952	 1.4446233368	 0.192359
53.7994	97.9408	140.774	201.2559	218.987	242.0337	260.4573	271.3198	323.119	355.8067	462.6847	473.6775	536.6446	573.2332	618.2757	632.0336	788.3127	842.0802	897.0741	925.5383	972.8239	1021.9833	1054.0495	1087.861	1117.3518	1133.967	1170.9745	1203.2047	1288.8707	1309.3539	1341.8811	1366.9601	1389.3813	1404.9679	1408.1487	1429.0708	1468.3197	1492.6697	1493.5319	1498.4966	1501.9231	2229.1143	2986.1589	3026.5105	3032.1299	3037.7401	3042.6977	3082.3363	3094.1379	3109.8891	3110.948	3119.6961	3504.1433	3825.2808
CC(O)CC(C)C#C	C[C@@H](O)C[C@@H](C)C#C	
InChI=1S/C7H12O/c1-4-6(2)5-7(3)8/h1,6-8H,5H2,2-3H3	InChI=1S/C7H12O/c1-4-6(2)5-7(3)8/h1,6-8H,5H2,2-3H3/t6-,7+/m0/s1
