19
gdb 12092	3.64791	1.50883	1.42639	2.5515	72.19	-0.227	0.0666	0.2936	985.6611	0.165134	-365.023825	-365.015646	-365.014702	-365.056097	31.799	
C	-0.3314277056	 1.493737128	-0.0063803861	-0.410625
C	 0.0824578113	 0.0421294448	 0.037657847	 0.016096
N	 1.5157208453	-0.2838503251	-0.1167622754	-0.365112
C	 0.8358435024	-0.5981637101	 1.1537445373	-0.111735
C	 1.387991576	 0.136225224	 2.3470582768	 0.459728
O	 2.0749447872	 1.3096911642	 2.0217884194	-0.471764
C	 0.6321392926	 0.1612669991	 3.6386551688	-0.311169
C	 1.8988802091	-0.6679294624	 3.5227907424	-0.325972
H	-0.359087647	 1.8531262079	-1.0408900003	 0.113859
H	-1.3355700654	 1.6106167103	 0.4155675113	 0.115536
H	 0.3567964434	 2.1149188047	 0.5670466272	 0.148819
H	-0.6036314302	-0.6292995243	-0.4791596171	 0.08257
H	 1.6572468768	-1.112258049	-0.6859250094	 0.235379
H	 0.5975016946	-1.6412787928	 1.3537051194	 0.081084
H	 2.4879629758	 1.1233364838	 1.1638358336	 0.287872
H	 0.68747274	 1.0804348235	 4.210867475	 0.124436
H	-0.3229371358	-0.3508819327	 3.693660369	 0.108893
H	 1.8113595997	-1.7498033943	 3.5047172548	 0.103302
H	 2.7870020896	-0.2866762396	 4.0131296963	 0.118802
74.7628	180.1048	200.3523	237.231	288.4095	330.0397	381.2927	421.1398	501.9913	543.274	582.819	732.8541	767.3783	792.8417	837.1302	888.986	912.2128	939.0469	968.1414	988.5325	1008.3439	1022.4584	1049.3481	1072.7406	1081.7313	1137.9353	1171.4183	1189.7973	1224.1123	1258.0379	1269.5061	1331.0798	1377.4294	1411.7271	1447.4207	1450.9842	1463.7565	1499.083	1504.5106	1518.029	3036.7554	3094.1141	3098.1476	3123.2398	3127.1824	3132.4406	3154.7978	3214.44	3228.8663	3521.7522	3695.5186
CC1NC1C1(O)CC1	C[C@H]1N[C@H]1C1(O)CC1	
InChI=1S/C6H11NO/c1-4-5(7-4)6(8)2-3-6/h4-5,7-8H,2-3H2,1H3	InChI=1S/C6H11NO/c1-4-5(7-4)6(8)2-3-6/h4-5,7-8H,2-3H2,1H3/t4-,5-/m1/s1
