17
gdb 87357	2.13003	1.30335	0.97414	1.1353	71.01	-0.2537	-0.0351	0.2186	1224.0682	0.132135	-458.960077	-458.950425	-458.94948	-458.996048	33.6	
O	-0.206264683	 1.299166194	 0.0684033323	-0.40381
C	-0.1549449722	-0.0808960952	 0.1371907907	 0.117496
C	-0.7812735789	-0.8443857322	 1.2333727668	-0.375124
C	-1.4612092934	-0.905403153	-0.1374189863	 0.179013
C	-2.7407478439	-0.1167636321	-0.3913265973	-0.382474
C	-3.7791938482	-0.414107025	 0.6708042519	 0.161374
O	-3.9229911492	 0.2493811827	 1.6674776599	-0.245759
C	-1.2254017396	-2.1383374772	-0.9215759738	 0.083191
O	-0.3117496068	-2.906136301	-0.7217030862	-0.275497
H	-0.471906509	 1.6510866334	 0.9238402495	 0.304536
H	 0.728250938	-0.4939131967	-0.3402277358	 0.13489
H	-0.2985483202	-1.760560301	 1.5558173177	 0.151748
H	-1.3208972738	-0.2942750059	 1.9992766772	 0.141728
H	-2.5192639283	 0.9543581934	-0.37928044	 0.135426
H	-3.1341258562	-0.3830030559	-1.3798656621	 0.115335
H	-4.3894496348	-1.3303319763	 0.5030182233	 0.083969
H	-1.9436811604	-2.306040572	-1.755805338	 0.073958
33.0364	45.2784	124.4868	187.0183	212.0678	225.9886	238.3404	294.7499	355.8165	463.4615	490.3619	536.7279	626.2962	714.6205	740.543	882.1808	892.6042	948.6285	965.1895	1017.3141	1055.7132	1069.0899	1089.5713	1129.4407	1166.8926	1207.0086	1274.5029	1302.0577	1323.0681	1343.7254	1408.7015	1426.2859	1427.1204	1461.4939	1477.3578	1793.3861	1821.6977	2873.7135	2877.6862	3035.924	3100.307	3124.6663	3166.7478	3223.6305	3826.2419
OC1CC1(CC=O)C=O	O[C@H]1C[C@]1(CC=O)C=O	
InChI=1S/C6H8O3/c7-2-1-6(4-8)3-5(6)9/h2,4-5,9H,1,3H2	InChI=1S/C6H8O3/c7-2-1-6(4-8)3-5(6)9/h2,4-5,9H,1,3H2/t5-,6+/m0/s1
