20
gdb 120018	2.3478	1.02542	0.75509	2.7362	77.2	-0.2333	-0.0255	0.2078	1501.6235	0.16861	-440.267876	-440.257929	-440.256984	-440.303466	35.483	
C	-0.1944021839	 1.5302440295	 0.1114452586	-0.331098
N	-0.040786557	 0.0897582017	 0.0557834993	-0.090218
C	-1.2473927739	-0.7198980401	 0.347364255	-0.288591
C	-0.373303065	-1.5967587557	 1.2513280361	 0.38425
O	-0.4947668892	-2.6533274413	 1.7936032914	-0.290676
C	 0.7624058092	-0.5674804125	 1.1249343203	-0.092588
C	 2.1458099858	-1.082298667	 0.7448518495	-0.204505
C	 3.1707930734	 0.0302600293	 0.5137388084	-0.067333
O	 4.4706527994	-0.4715474119	 0.2522019155	-0.41585
H	 0.7736061851	 2.0175419834	-0.0381588775	 0.128444
H	-0.8615144825	 1.8624079858	-0.6903346122	 0.127721
H	-0.6126354454	 1.8851912101	 1.0728389457	 0.095856
H	-2.0215433169	-0.1912354374	 0.9288544031	 0.116034
H	-1.7194437258	-1.195693355	-0.5186937548	 0.133141
H	 0.8180779265	 0.0416308336	 2.0462707916	 0.087049
H	 2.5056660573	-1.7395919259	 1.5448668903	 0.123429
H	 2.0561142451	-1.6917153306	-0.1634303457	 0.094656
H	 2.8284167923	 0.6926035239	-0.2962713019	 0.097897
H	 3.2669905589	 0.6436679486	 1.4172017643	 0.109522
H	 4.4360107566	-0.9621823085	-0.575235077	 0.282861
65.8964	86.7652	103.9145	115.6597	220.142	249.6759	276.5467	280.856	308.7079	378.1007	417.2222	536.109	576.8792	630.8333	752.88	821.733	830.0997	940.1133	969.6379	1032.3734	1065.1145	1073.19	1080.1494	1113.0012	1120.1692	1151.0538	1181.5121	1192.7563	1210.0376	1257.5807	1285.7732	1308.5997	1319.0366	1364.9084	1402.9594	1420.9617	1453.1426	1473.8479	1475.1171	1495.3116	1497.5523	1512.7596	1915.6396	2925.8159	2937.5179	2971.005	2985.9994	3026.686	3058.3201	3065.309	3068.3517	3084.4911	3107.5705	3815.9028
CN1CC(=O)C1CCO	CN1CC(=O)[C@H]1CCO	
InChI=1S/C6H11NO2/c1-7-4-6(9)5(7)2-3-8/h5,8H,2-4H2,1H3	InChI=1S/C6H11NO2/c1-7-4-6(9)5(7)2-3-8/h5,8H,2-4H2,1H3/t5-/m1/s1
