18
gdb 74765	3.98748	1.1336	1.05753	4.3115	82.43	-0.2374	-0.0094	0.2281	1183.8361	0.148869	-364.803073	-364.795285	-364.794341	-364.835239	30.375	
C	 0.0220281155	 1.4463660683	 0.06084652	-0.518629
C	-0.0039502363	-0.0407808435	 0.0012302697	 0.335701
C	-0.0229548083	-0.8980823215	-1.0261356771	-0.208727
C	-0.0404931497	-2.276749479	-0.3539151405	-0.065503
C	-1.0857488609	-2.0272202588	 0.7839391608	-0.228795
C	-0.011205848	-0.9783517323	 1.2255287624	-0.117372
C	 1.0686627817	-2.033636597	 0.7502944262	-0.132672
C	 1.3278814381	-3.140481141	 1.6601079638	 0.260667
N	 1.54740474	-4.0188402558	 2.3803513614	-0.333075
H	 0.911534867	 1.8113195466	 0.5900251162	 0.132033
H	 0.020105631	 1.8835268019	-0.9414597952	 0.130823
H	-0.84588672	 1.8398764796	 0.6052714875	 0.132689
H	-0.019554898	-0.7053114386	-2.089549309	 0.10553
H	-0.0376264725	-3.1748049954	-0.9685924086	 0.082793
H	-2.060342622	-1.6403367787	 0.4823851661	 0.102761
H	-1.1906364045	-2.8650590742	 1.4786209089	 0.126229
H	 0.0206599882	-0.5459422661	 2.224667628	 0.080339
H	 2.0133928885	-1.6205076544	 0.3908507496	 0.115209
125.3559	146.408	182.5347	212.2852	302.6818	422.174	474.111	505.9248	536.3626	584.2502	615.938	781.4064	793.1436	850.7616	861.5776	890.5601	912.3807	936.5226	991.9753	1007.1466	1023.816	1058.7596	1069.0747	1079.8965	1109.7113	1182.2431	1191.8991	1226.812	1232.6436	1241.4039	1251.538	1308.3517	1332.7525	1414.8016	1476.5857	1485.7849	1502.0272	1691.5292	2345.2799	3016.5255	3061.8345	3066.0103	3094.1083	3110.3047	3130.7908	3135.7499	3140.4281	3231.892
CC1=CC2CC1C2C#N	CC1=C[C@@H]2C[C@H]1[C@H]2C#N	
InChI=1S/C8H9N/c1-5-2-6-3-7(5)8(6)4-9/h2,6-8H,3H2,1H3	InChI=1S/C8H9N/c1-5-2-6-3-7(5)8(6)4-9/h2,6-8H,3H2,1H3/t6-,7-,8+/m1/s1
