16
gdb 21050	3.83874	1.74421	1.21787	2.5897	68.23	-0.2081	0.0295	0.2376	969.1429	0.13089	-379.953492	-379.945313	-379.944369	-379.98634	29.264	
C	-0.0000191779	 1.36193632	-0.0662447116	-0.321449
N	 0.0715601489	-0.0762288268	 0.0355369612	-0.02242
N	 0.031915948	-0.8198550266	-1.1077652555	-0.38459
C	 0.0156825459	-2.0719178028	-0.6790392266	 0.444786
O	-0.0066907303	-3.1137325722	-1.5382356745	-0.43236
C	 0.033259638	-2.1649765216	 0.726318413	-0.4196
C	 0.0630777083	-0.8490859849	 1.153547381	 0.398556
C	 0.0848855464	-0.2878778361	 2.5381415039	-0.50432
H	 0.4585145793	 1.819417338	 0.8127137062	 0.134987
H	 0.5458733139	 1.6739907693	-0.9580146689	 0.153413
H	-1.0359137461	 1.7133851826	-0.1483395573	 0.13518
H	-0.0110021321	-2.7404995505	-2.4285655048	 0.300048
H	 0.0371936259	-3.0536825078	 1.3347557679	 0.104721
H	 0.9728923901	 0.3291547923	 2.7187787031	 0.136019
H	-0.7939738419	 0.3331806989	 2.7465862111	 0.135481
H	 0.0954229537	-1.1030914317	 3.2643064519	 0.141549
61.1654	123.774	157.6894	201.7409	277.7841	310.2063	372.054	417.4682	515.5124	605.5976	628.4928	661.9571	715.2577	769.6979	818.0332	990.384	1032.5007	1060.8067	1076.1947	1145.937	1165.0141	1192.5419	1253.6743	1324.9613	1415.8173	1434.045	1457.2532	1480.4607	1488.0522	1496.6529	1503.1327	1544.0671	1564.5004	1608.2227	3026.5782	3028.3843	3076.7043	3106.2789	3129.5726	3148.1496	3273.1753	3794.3822
CN1N=C(O)C=C1C	Cn1nc(O)cc1C	
InChI=1S/C5H8N2O/c1-4-3-5(8)6-7(4)2/h3H,1-2H3,(H,6,8)	InChI=1S/C5H8N2O/c1-4-3-5(8)6-7(4)2/h3H,1-2H3,(H,6,8)
