21
gdb 82028	2.18026	1.4518	1.36177	2.3243	82.41	-0.2484	-0.0207	0.2277	1122.6722	0.180817	-387.076433	-387.067169	-387.066224	-387.110114	35.257	
C	-0.3438565464	 1.5344920233	 0.5399997418	-0.416726
C	-0.0210575916	 0.0551200141	 0.3669650097	-0.036985
C	 0.2041675539	-0.4949840057	-1.0504610515	-0.043754
C	 1.4538837327	 0.0666995387	-1.6679736644	-0.304218
C	 1.5746355437	-1.0382345324	-0.6561437755	-0.081525
C	 1.3922039559	-0.5009213272	 0.7884782692	 0.193176
C	 2.4678059778	 0.4461900704	 1.3230589601	-0.4684
C	 1.2823486845	-1.6940411616	 1.7225548556	 0.117962
O	 0.2655091777	-2.1793458863	 2.1468866997	-0.25072
H	 0.3724599489	 2.1845555881	 0.0283814139	 0.110153
H	-1.3363610076	 1.7540313311	 0.1317023366	 0.118521
H	-0.3541841857	 1.8165468898	 1.5983829972	 0.117023
H	-0.7721666583	-0.5459006804	 0.8852769358	 0.105049
H	-0.557321195	-0.9767209941	-1.6520048582	 0.087379
H	 1.6418884493	-0.237938957	-2.6929860511	 0.115302
H	 1.7897724486	 1.0759581077	-1.4474282294	 0.107932
H	 2.027097192	-1.9923038948	-0.9029804413	 0.087903
H	 2.6889400638	 1.2453754804	 0.6121899444	 0.124638
H	 2.1572184496	 0.9118283422	 2.2648272298	 0.125483
H	 3.4027573067	-0.0947338513	 1.5106014131	 0.118613
H	 2.2727905496	-2.1331491348	 1.9914818243	 0.073195
71.8588	154.8397	190.6976	201.8521	217.6184	237.1679	268.1692	323.0784	378.6201	428.2964	531.5454	584.5721	663.9773	711.8006	785.5829	799.3529	883.1996	915.5748	931.0618	943.0669	988.2757	1011.2857	1020.0884	1043.6291	1066.7686	1083.6507	1102.2375	1128.7134	1161.1508	1173.0478	1210.4198	1230.3157	1266.3349	1299.9475	1360.5552	1379.4558	1404.3466	1412.6277	1429.0209	1485.2474	1490.5025	1491.0138	1503.3715	1508.6945	1826.3111	2846.7022	3029.8997	3033.3216	3079.5463	3090.6742	3095.6284	3106.3102	3117.8717	3122.5189	3166.2121	3180.9976	3200.6525
CC1C2CC2C1(C)C=O	C[C@H]1[C@H]2C[C@H]2[C@]1(C)C=O	
InChI=1S/C8H12O/c1-5-6-3-7(6)8(5,2)4-9/h4-7H,3H2,1-2H3	InChI=1S/C8H12O/c1-5-6-3-7(6)8(5,2)4-9/h4-7H,3H2,1-2H3/t5-,6+,7+,8+/m0/s1
