21
gdb 89038	3.17717	0.94198	0.85184	2.8289	80.51	-0.2249	0.0326	0.2575	1453.8878	0.181095	-420.408369	-420.39792	-420.396976	-420.445557	36.77	
C	-0.1227727182	 1.617319259	 0.5656610334	-0.320319
N	 0.0320082581	 0.1909365641	 0.3046928231	-0.073385
C	 1.3182608566	-0.2846277359	-0.1820717301	-0.251814
C	 0.8404202152	-0.649086986	 1.1841534199	 0.007192
C	 1.58844201	-0.1421348949	 2.402998041	-0.197869
N	 0.7354131823	 0.0631310242	 3.56383922	-0.310366
C	 0.5459142111	 1.2924156346	 4.1298194423	 0.417372
C	-0.4162046979	 1.3195473461	 5.3075984335	-0.481075
O	 1.0965137102	 2.3011885377	 3.7227116653	-0.379271
H	 0.7471986103	 2.1067601097	 1.0235584422	 0.129669
H	-0.3411659733	 2.1152354311	-0.384370342	 0.118487
H	-0.9786389999	 1.7689576672	 1.2305484136	 0.120943
H	 1.2926131565	-1.0035073331	-0.9973547895	 0.112459
H	 2.1408280196	 0.4297542935	-0.2337764583	 0.107032
H	 0.4107903871	-1.6426191008	 1.3237274211	 0.081014
H	 2.3746013179	-0.8687573963	 2.6487026899	 0.110193
H	 2.076901715	 0.8151138358	 2.218098232	 0.149821
H	 0.2305471422	-0.7248559297	 3.9346892023	 0.242618
H	-0.6934356072	 0.327084129	 5.6727764944	 0.110863
H	 0.0419880316	 1.8877806248	 6.1199098246	 0.153633
H	-1.3251895573	 1.8502333199	 5.0088091516	 0.152802
35.2966	41.3394	72.4553	90.0361	170.4134	217.8947	281.0841	323.7395	334.7413	384.9811	437.2422	467.7644	548.172	618.4533	640.5078	746.2795	789.1702	889.3262	915.0078	990.762	1009.3	1035.1558	1051.4086	1085.0639	1107.7902	1119.9181	1127.0006	1159.995	1189.3382	1201.0058	1253.9116	1282.098	1343.9236	1365.2457	1396.4194	1424.6734	1454.3532	1469.2225	1476.7455	1486.9619	1491.2116	1502.9603	1515.8746	1543.5034	1773.293	3010.8973	3017.7184	3048.9767	3078.8772	3080.3957	3082.6729	3103.9438	3120.8521	3135.4176	3137.6975	3167.0196	3646.0251
CN1CC1CNC(C)=O	CN1C[C@H]1CNC(=O)C	
InChI=1S/C6H12N2O/c1-5(9)7-3-6-4-8(6)2/h6H,3-4H2,1-2H3,(H,7,9)	InChI=1S/C6H12N2O/c1-5(9)7-3-6-4-8(6)2/h6H,3-4H2,1-2H3,(H,7,9)/t6-,8?/m1/s1
