17
gdb 70118	2.74633	1.57171	1.14684	3.7809	75.49	-0.2413	-0.0286	0.2127	1068.0007	0.136662	-418.032349	-418.024463	-418.023519	-418.064684	29.923	
C	-0.0399179939	 1.5367083807	-0.018094816	-0.486414
C	 0.0249204054	 0.0329265806	 0.0113985093	 0.314464
C	-0.8227622206	-0.8089017005	 0.9368752294	-0.336253
C	 0.6831384088	-0.8243233024	 1.093846332	-0.042397
N	 1.3977717937	-1.9005857439	 0.4487396867	-0.252929
C	 1.2080273823	-1.7723955721	-0.807627153	 0.057379
N	 0.4438108068	-0.6646157344	-1.1960615012	-0.110452
C	 0.1496697351	-0.3386807873	-2.4998633251	 0.147319
O	 0.5302631079	-0.9673563315	-3.4604910541	-0.312885
H	 0.8754173742	 1.9636022868	-0.4404484715	 0.136066
H	-0.8930428023	 1.9036946949	-0.5993776139	 0.132819
H	-0.1538545466	 1.9188158781	 1.0000831108	 0.134434
H	-1.3838355297	-0.2723415137	 1.6940655942	 0.124318
H	-1.3051419837	-1.6993922804	 0.5480741964	 0.128246
H	 1.1323442053	-0.4118190952	 1.9898419304	 0.107378
H	 1.5798768406	-2.4370651898	-1.5757805191	 0.16867
H	-0.4792273433	 0.5661080003	-2.5745931453	 0.090236
96.6126	195.1753	206.3781	221.8822	276.4457	313.6955	393.8472	433.1144	515.6945	609.2457	633.7972	761.6601	810.2334	825.4427	862.159	923.2435	950.3981	968.5673	1027.4984	1029.2971	1049.0976	1080.8683	1114.7222	1130.6876	1175.81	1258.6428	1275.4684	1292.7008	1370.7162	1401.0908	1420.7648	1443.3134	1470.0922	1486.3839	1501.4867	1660.4006	1797.2475	2977.9406	3033.2366	3096.0081	3116.8903	3131.7176	3178.4455	3225.2411	3244.461
CC12CC1N=CN2C=O	C[C@]12C[C@H]1N=CN2C=O	
InChI=1S/C6H8N2O/c1-6-2-5(6)7-3-8(6)4-9/h3-5H,2H2,1H3	InChI=1S/C6H8N2O/c1-6-2-5(6)7-3-8(6)4-9/h3-5H,2H2,1H3/t5-,6+/m1/s1
