22
gdb 96499	2.11697	1.54265	1.15233	3.7238	82.09	-0.2316	0.0337	0.2653	1183.1709	0.197045	-404.401863	-404.392942	-404.391998	-404.435294	34.545	
C	-0.1656065888	 1.5198370134	 0.0578874787	-0.412802
C	 0.0038566675	-0.0107042877	 0.0014201981	-0.057247
C	 0.4971440318	-0.5368418327	-1.3637648283	-0.218253
C	 1.8137740803	 0.0281325983	-1.9130339659	-0.192912
C	 3.0593466664	-0.3193345047	-1.0913141928	-0.179603
C	 3.0573412658	 0.2574426295	 0.3284044483	-0.162112
N	 2.1415980525	-0.394848764	 1.2542374345	-0.291546
C	 0.7783515292	-0.5249901558	 1.2204015238	 0.357326
O	 0.1912559857	-1.0406988463	 2.1577716884	-0.376648
H	 0.7810420458	 2.0598696058	-0.0306955231	 0.119556
H	-0.8146298651	 1.8576668486	-0.7571464052	 0.116439
H	-0.629923309	 1.8138360938	 1.0034597601	 0.133389
H	-0.9873959781	-0.4444000862	 0.1612536566	 0.104137
H	 0.5711220326	-1.6307827635	-1.3084408929	 0.103352
H	-0.2946393087	-0.3241717773	-2.0929047077	 0.098051
H	 1.9489305249	-0.3514682007	-2.9326446754	 0.097794
H	 1.7403103926	 1.1193458709	-2.0082431186	 0.097601
H	 3.1800141188	-1.4081773153	-1.0278676422	 0.102491
H	 3.9453609639	 0.0694982696	-1.6081034897	 0.096564
H	 4.0546400268	 0.1383099048	 0.7612589969	 0.11123
H	 2.8719928932	 1.340580768	 0.2837211301	 0.110751
H	 2.528538152	-0.7364166785	 2.1215116163	 0.242442
69.935	137.7739	205.4946	224.6678	243.8734	298.1921	336.7964	371.6469	389.5886	476.8518	544.8038	558.3042	660.2073	697.7476	754.6207	811.5655	847.3485	872.3848	902.2575	950.1763	995.9584	1009.9373	1037.7963	1087.8663	1117.2652	1151.2376	1155.8327	1217.1926	1235.6789	1281.8018	1304.2027	1344.7511	1351.7556	1359.2237	1387.8109	1393.4895	1401.2524	1409.581	1419.881	1468.5075	1477.6341	1480.7222	1493.8507	1495.1733	1507.5107	1515.3853	1767.7755	3000.8519	3016.1144	3020.1446	3022.9134	3039.1956	3053.3964	3058.9292	3067.5438	3070.1388	3082.5069	3105.761	3118.783	3613.1372
CC1CCCCNC1=O	C[C@H]1CCCCNC1=O	
InChI=1S/C7H13NO/c1-6-4-2-3-5-8-7(6)9/h6H,2-5H2,1H3,(H,8,9)	InChI=1S/C7H13NO/c1-6-4-2-3-5-8-7(6)9/h6H,2-5H2,1H3,(H,8,9)/t6-/m0/s1
