19
gdb 114900	2.90627	1.51311	1.23408	1.548	70.56	-0.2377	0.0626	0.3004	1064.0275	0.160008	-460.135573	-460.127531	-460.126587	-460.168418	30.306	
C	 0.0598407367	 0.5539214327	-0.5709888932	-0.242144
O	-0.4715945651	-0.2094480163	 0.4958685781	-0.229711
C	 0.4765791911	-0.5375026758	 1.4723452933	 0.081804
C	-0.1203828355	-1.4364920439	 2.5830607167	-0.28818
C	 0.8832411979	-2.5705931377	 2.2259147602	 0.070325
O	 0.3522988653	-3.6934986559	 1.5468097268	-0.252753
C	 0.183007608	-3.303195575	 0.2007661812	 0.011089
O	 1.2204975567	-2.3846089528	-0.0978648635	-0.249995
C	 1.492466219	-1.6852193987	 1.0966929393	 0.06125
H	 0.8232268769	-0.0045472534	-1.1259720194	 0.127986
H	-0.7707597403	 0.7875952356	-1.2411877298	 0.126557
H	 0.4978782124	 1.4965578926	-0.2072988401	 0.102062
H	 0.9844707849	 0.3663272916	 1.8434681379	 0.06137
H	-0.0232729503	-1.0429437162	 3.5969565398	 0.107236
H	-1.1637175518	-1.7015813983	 2.4001059738	 0.120245
H	 1.5252434926	-2.931922479	 3.0299471163	 0.087912
H	 0.2906947629	-4.1826126412	-0.440153718	 0.118336
H	-0.7966979919	-2.8260384591	 0.0484530988	 0.104312
H	 2.5537546204	-1.4314005789	 1.1221418719	 0.0823
77.3064	135.9372	176.7329	224.8505	260.6921	287.464	398.3599	434.9075	596.7993	651.9978	725.8754	745.6462	795.3026	859.5436	906.0795	941.7277	954.2285	997.9698	1033.6708	1047.3591	1108.0022	1125.3916	1138.3592	1163.0265	1178.034	1185.0181	1197.7218	1221.3223	1246.4773	1248.482	1275.1471	1292.9408	1335.9715	1349.4729	1373.9451	1428.3618	1460.2023	1480.4118	1487.4514	1511.0359	1541.5624	2974.8135	2985.5372	2992.5295	3059.9754	3073.4994	3091.4207	3093.9997	3108.6397	3119.5665	3134.4447
COC1CC2OCOC12	CO[C@H]1C[C@H]2OCO[C@@H]12	
InChI=1S/C6H10O3/c1-7-4-2-5-6(4)9-3-8-5/h4-6H,2-3H2,1H3	InChI=1S/C6H10O3/c1-7-4-2-5-6(4)9-3-8-5/h4-6H,2-3H2,1H3/t4-,5+,6-/m0/s1
