18
gdb 55872	3.19772	0.90359	0.75176	1.8759	77.12	-0.2554	-0.0204	0.235	1489.5412	0.145463	-401.97678	-401.967114	-401.96617	-402.01308	33.792	
C	-0.067770765	 1.4813252728	 0.179102249	-0.475323
C	 0.0662891633	-0.0281969235	 0.1174322984	 0.380571
O	 1.1181170444	-0.5922682866	 0.311228736	-0.287438
C	-1.2093708483	-0.8003894493	-0.2171015236	-0.343291
C	-1.0377498604	-2.2938370656	-0.084741629	 0.025046
C	-1.3641166556	-2.9964904751	 1.1949250373	-0.276433
C	-2.2508538751	-3.2161607183	-0.0251622774	-0.202299
C	-3.5756183	-2.6631610037	-0.0440104642	 0.285774
N	-4.6384748077	-2.2051293414	-0.0628927407	-0.344418
H	 0.9153338473	 1.9372137083	 0.3006845593	 0.146164
H	-0.5520301062	 1.8683636401	-0.7239407981	 0.140489
H	-0.7058334951	 1.7627024995	 1.0251158246	 0.146146
H	-2.0305327812	-0.4340200335	 0.4108217808	 0.137188
H	-1.4966968333	-0.5303120146	-1.243755902	 0.138396
H	-0.1992172846	-2.6943277232	-0.6434073205	 0.120316
H	-0.7489694613	-3.8304451046	 1.51074698	 0.136105
H	-1.7867203263	-2.4115298682	 2.0042240793	 0.137258
H	-2.1658949249	-4.1707936031	-0.5328805292	 0.135747
28.7108	65.8751	89.6789	109.9844	170.422	211.7639	322.2633	347.6186	405.5596	473.4385	550.9991	575.5794	622.1778	772.8451	807.9367	825.5746	835.7828	876.8348	951.4139	967.1397	975.2682	1062.9034	1077.7549	1117.2732	1123.0681	1153.0601	1184.7292	1230.4901	1251.6273	1335.7192	1372.6588	1385.1119	1420.9012	1452.5182	1465.3448	1476.0136	1490.1785	1813.6473	2349.6638	3017.0957	3037.3707	3062.7447	3097.9506	3145.4489	3154.043	3169.8292	3180.7721	3236.2477
CC(=O)CC1CC1C#N	CC(=O)C[C@H]1C[C@H]1C#N	
InChI=1S/C7H9NO/c1-5(9)2-6-3-7(6)4-8/h6-7H,2-3H2,1H3	InChI=1S/C7H9NO/c1-5(9)2-6-3-7(6)4-8/h6-7H,2-3H2,1H3/t6-,7-/m0/s1
