14
gdb 132757	2.44024	1.83497	1.05419	0.3668	67.41	-0.2553	-0.0314	0.2239	1046.9295	0.101098	-478.039063	-478.031266	-478.030322	-478.073003	28.141	
C	-0.0739268686	 1.5100923443	 0.0490254591	-0.487031
C	-0.015940947	 0.010428687	 0.0065299484	 0.210122
C	 0.0483459776	-0.666263519	-1.1995966484	 0.127386
F	 0.0605329979	-0.0041823988	-2.3576938786	-0.057938
C	 0.1004494585	-2.0619777309	-1.1806011431	 0.334827
O	 0.1630929999	-2.7403597274	-2.333599781	-0.399953
N	 0.0888802248	-2.7298112547	-0.0346832693	-0.346225
C	 0.0253967231	-1.9965014358	 1.0800186177	 0.058017
N	-0.0273394866	-0.6740372125	 1.1664547776	-0.308547
H	 0.8053691945	 1.9502698144	-0.4328559895	 0.145469
H	-0.9504818612	 1.884035176	-0.4903547567	 0.145457
H	-0.1203426213	 1.8407768218	 1.0867040553	 0.147765
H	 0.1908086637	-3.6779797085	-2.0936718628	 0.307162
H	 0.0161753849	-2.5489292559	 2.0159209311	 0.12349
14.9771	127.9398	237.696	266.3571	300.8301	319.5008	518.6397	530.5216	538.7363	557.0028	574.5906	638.4212	711.6887	801.5955	885.79	966.1008	981.2695	1060.4116	1061.3623	1167.6289	1259.759	1315.0101	1330.903	1356.6208	1407.3856	1464.4702	1480.3513	1484.3102	1514.7043	1611.5053	1659.6652	3044.5457	3099.0882	3156.0458	3172.3354	3758.9394
CC1=C(F)C(O)=NC=N1	Cc1c(F)c(O)ncn1	
InChI=1S/C5H5FN2O/c1-3-4(6)5(9)8-2-7-3/h2H,1H3,(H,7,8,9)	InChI=1S/C5H5FN2O/c1-3-4(6)5(9)8-2-7-3/h2H,1H3,(H,7,8,9)
