20
gdb 114979	3.25048	1.1032	0.87228	3.7857	83.44	-0.2204	-0.0489	0.1715	1352.5673	0.171232	-403.1699	-403.161106	-403.160162	-403.20361	32.983	
C	-0.0932820673	 1.5493991966	-0.0587379416	-0.399669
C	 0.0082070751	 0.0260097149	 0.0182476282	-0.100749
N	 0.7023713546	-0.4557697078	 1.2101084271	-0.090168
C	 0.0037807951	-0.1478619105	 2.4475801064	-0.192624
C	 0.691705836	-0.7192999255	 3.6505802943	-0.058446
C	 1.5938556742	-1.7028150683	 3.5739400826	-0.147463
C	 1.8792003269	-2.3548196789	 2.2842470745	 0.367082
O	 2.6728523946	-3.2654505943	 2.164968699	-0.327236
C	 1.0384635532	-1.8700256454	 1.105688904	-0.263699
H	 0.8936291528	 2.0057464245	 0.0620024349	 0.129127
H	-0.4945268164	 1.8446672714	-1.0328367537	 0.119135
H	-0.7592632203	 1.9638026202	 0.7037315977	 0.11989
H	-1.0036915722	-0.4193556188	-0.0663007849	 0.076641
H	 0.5762876647	-0.3338787334	-0.8467554536	 0.106133
H	-0.0608512477	 0.9393571111	 2.5649662016	 0.122248
H	-1.0497533613	-0.5108981138	 2.4403432357	 0.093531
H	 0.4189093096	-0.2887579513	 4.6107747182	 0.113743
H	 2.1096450456	-2.0949227297	 4.4443381327	 0.109077
H	 0.1396154324	-2.5229624653	 1.0539482545	 0.095369
H	 1.6103646703	-2.0459013659	 0.1909378223	 0.128077
71.9559	120.7242	129.509	227.6678	251.0067	313.9736	338.258	368.2857	445.8456	482.548	524.6044	599.4493	701.7929	762.0879	807.1901	832.517	921.4353	946.5852	987.7924	994.2596	1023.7084	1044.6205	1085.921	1133.3254	1147.4928	1170.702	1210.8922	1257.0322	1268.601	1280.5877	1330.0328	1350.7883	1394.2019	1406.6323	1417.2867	1425.7616	1470.1907	1482.1302	1493.8078	1498.677	1516.5028	1689.9177	1786.6512	2842.4252	2868.0067	2901.7118	3043.1028	3054.1073	3058.298	3091.8733	3112.541	3119.3049	3162.6718	3195.0261
CCN1CC=CC(=O)C1	CCN1CC=CC(=O)C1	
InChI=1S/C7H11NO/c1-2-8-5-3-4-7(9)6-8/h3-4H,2,5-6H2,1H3	InChI=1S/C7H11NO/c1-2-8-5-3-4-7(9)6-8/h3-4H,2,5-6H2,1H3
