16
gdb 93456	2.88363	1.47232	1.0263	2.1028	67.87	-0.2735	-0.0264	0.2471	1122.4546	0.123939	-475.063939	-475.055748	-475.054803	-475.097352	30.025	
C	 0.0088706558	 1.5388037784	-0.0838346802	-0.40256
C	 0.0526544094	 0.0186391655	-0.0171232365	-0.024006
O	 0.7099350993	-0.4667884466	-1.1707505051	-0.240067
C	 0.8376388501	-1.8714104357	-1.1439860065	-0.175466
C	 1.6902706957	-2.3064829868	 0.0190870921	 0.397076
N	 2.4703476247	-3.2907017652	-0.0322668377	-0.486233
O	 1.5512158579	-1.5570861398	 1.1784618169	-0.229636
C	 0.7270771209	-0.4571398878	 1.2716012683	 0.407189
O	 0.5737097103	 0.0560026861	 2.3391349207	-0.297196
H	 1.0223470337	 1.9429791812	-0.1483806836	 0.139736
H	-0.5493115721	 1.8485930828	-0.9697708668	 0.132726
H	-0.4726890509	 1.9358223346	 0.8105262051	 0.151152
H	-0.9779046473	-0.380994957	 0.0205199592	 0.109907
H	-0.1513208751	-2.3565425911	-1.0768983713	 0.120889
H	 1.3165982827	-2.1895119977	-2.0695905718	 0.157746
H	 2.9326350149	-3.4397247212	 0.8669488172	 0.238743
45.4642	113.9142	204.1625	229.2272	280.697	361.7321	374.1693	436.5652	483.5013	533.7951	561.1295	663.4378	722.5821	796.996	889.9392	910.9379	940.1608	1028.065	1044.4728	1090.0824	1115.3829	1124.0345	1159.6476	1198.8536	1277.6482	1328.6941	1346.0194	1355.984	1390.2732	1405.1989	1478.27	1484.4366	1497.2049	1779.2562	1872.6658	2937.7209	2966.0681	3061.6407	3137.3498	3143.8508	3158.1219	3473.5318
CC1OCC(=N)OC1=O	C[C@H]1OC[C]([NH])OC1=O	
InChI=1S/C5H7NO3/c1-3-5(7)9-4(6)2-8-3/h3,6H,2H2,1H3	InChI=1S/C5H7NO3/c1-3-5(7)9-4(6)2-8-3/h3,6H,2H2,1H3/t3-/m1/s1
