17
gdb 51853	3.45778	1.09149	0.86957	5.7663	70.2	-0.2546	-0.0432	0.2115	1293.2188	0.135258	-459.016264	-459.007804	-459.00686	-459.050229	30.405	
O	-0.3019479973	 0.1133816841	-0.0215837544	-0.272978
C	-0.164990326	 1.2975238819	-0.0527663709	 0.179128
O	 1.0278963575	 1.8893093316	 0.1988117033	-0.188897
C	 1.1071997834	 3.2957282992	 0.0327345676	 0.02163
C	 2.3707227253	 3.8839234311	 0.6550667158	-0.252873
C	 2.5727896283	 5.2005017401	-0.1290807393	-0.226901
C	 2.189778976	 4.8501507117	-1.5802443075	-0.319234
C	 1.1914504422	 3.7022812627	-1.456506417	 0.393098
O	 0.578312255	 3.1586912198	-2.3357354902	-0.301898
H	-0.9729102021	 2.0220320232	-0.2572217346	 0.088129
H	 0.2122276131	 3.7823447446	 0.4520671377	 0.111544
H	 2.2903254787	 4.0312704623	 1.733575921	 0.118631
H	 3.2012196805	 3.1934098	 0.4704743876	 0.130561
H	 1.9022087379	 5.9737656957	 0.2620993306	 0.114531
H	 3.591314491	 5.5824828068	-0.0384979732	 0.118459
H	 1.7761485708	 5.6762552514	-2.1637544172	 0.13887
H	 3.0510058656	 4.4666163236	-2.1419391992	 0.148201
69.0065	77.2649	140.4227	171.5183	242.8877	301.1379	380.8083	424.4706	533.185	557.3414	613.9048	684.9885	750.1021	826.8591	908.9474	918.5441	958.2383	1012.685	1025.2784	1052.0243	1099.3478	1149.4404	1161.1704	1180.8306	1205.4214	1227.6856	1296.4632	1305.4417	1316.8653	1339.635	1372.6277	1437.9546	1444.8012	1495.0539	1506.6561	1853.3076	1872.7662	2978.5145	2990.6401	3042.4392	3048.7807	3057.2363	3105.4247	3113.0034	3120.0793
O=COC1CCCC1=O	O=CO[C@H]1CCCC1=O	
InChI=1S/C6H8O3/c7-4-9-6-3-1-2-5(6)8/h4,6H,1-3H2	InChI=1S/C6H8O3/c7-4-9-6-3-1-2-5(6)8/h4,6H,1-3H2/t6-/m0/s1
