21
gdb 64256	3.20234	1.14902	1.10525	1.9639	78.16	-0.2542	0.064	0.3182	1219.9975	0.181528	-424.226707	-424.217766	-424.216821	-424.260432	35.205	
C	-0.3363180386	 1.5198244893	-0.0306323128	-0.447987
C	 0.0985897056	 0.0572569892	 0.0128138294	 0.377789
O	-1.0472872152	-0.794209562	 0.168097121	-0.474176
C	 0.9188967174	-0.3962708906	-1.2169234081	-0.252169
C	 1.5623617111	-1.7124305444	-0.7547122548	-0.284351
C	 1.9095628587	-1.4381921482	 0.7072316588	 0.447668
C	 2.5368394503	-2.4275107955	 1.5857232007	-0.255143
O	 3.303328459	-1.3477970826	 1.0433690931	-0.279525
C	 1.0195532851	-0.2928044853	 1.1999267419	-0.303099
H	 0.5252373192	 2.1902182202	-0.1083928175	 0.117149
H	-0.9827449128	 1.7062914953	-0.8970203404	 0.102963
H	-0.8990751471	 1.7775030301	 0.8714213699	 0.124504
H	-1.6166232375	-0.6599747585	-0.5975148021	 0.273472
H	 0.2930768444	-0.5002468521	-2.1098700809	 0.082848
H	 1.6907227073	 0.3498236124	-1.4402936854	 0.104187
H	 0.8282917564	-2.5218984262	-0.8138900685	 0.112751
H	 2.448951392	-2.0028691846	-1.3223355595	 0.108041
H	 2.3624128447	-2.3852319328	 2.6608095452	 0.10852
H	 2.7833341416	-3.4172463246	 1.2002081177	 0.106925
H	 1.6565629967	 0.5563183913	 1.4639546646	 0.1136
H	 0.4202180117	-0.5566663603	 2.0743301377	 0.116035
32.8692	170.9242	235.5138	258.4856	308.0341	326.6134	330.6419	381.559	399.8897	406.6545	452.1927	521.3848	597.5148	715.706	785.678	804.2137	851.7005	897.4838	914.9588	938.2364	953.8214	974.1126	990.3924	1031.1963	1076.0639	1118.4092	1130.0257	1153.1832	1170.0546	1184.6314	1218.822	1251.0052	1266.3503	1287.6294	1322.7129	1340.2693	1383.554	1409.0183	1425.3678	1464.6231	1468.6587	1487.0506	1493.7043	1494.941	1533.4576	3025.0798	3035.1777	3057.1271	3062.9619	3070.2922	3079.2281	3092.3324	3112.5923	3115.9483	3117.5863	3153.3164	3800.8273
CC1(O)CCC2(CO2)C1	C[C@@]1(O)CC[C@]2(CO2)C1	
InChI=1S/C7H12O2/c1-6(8)2-3-7(4-6)5-9-7/h8H,2-5H2,1H3	InChI=1S/C7H12O2/c1-6(8)2-3-7(4-6)5-9-7/h8H,2-5H2,1H3/t6-,7-/m1/s1
