18
gdb 30309	3.03476	1.59915	1.09358	3.526	78.64	-0.1749	0.0326	0.2075	1093.0244	0.151625	-398.158659	-398.151074	-398.150129	-398.190619	29.624	
C	-0.2427532521	 1.5762891649	-0.0562297239	-0.396777
C	 0.02596354	 0.0716247249	 0.0422428829	-0.113332
C	 0.9660115177	-0.4592437594	-1.1042922533	-0.168948
N	 1.7283842709	-1.6116454204	-0.5475658157	-0.401565
C	 1.7410317222	-1.3559250865	 0.8352607619	 0.312779
C	 0.8239773083	-0.4208870163	 1.2084382583	 0.261125
N	 0.8411651975	-0.445982226	 2.5891223204	-0.379109
C	 1.8082988812	-1.350390728	 2.9420310345	-0.013162
N	 2.3707068092	-1.936423848	 1.8952815368	-0.352177
H	 0.6906851613	 2.1446682835	 0.0089480834	 0.118088
H	-0.7309675857	 1.8258621304	-1.0045492846	 0.116868
H	-0.9026749013	 1.9145222498	 0.7498818587	 0.108579
H	-0.9401952463	-0.4549250534	-0.0146288969	 0.085762
H	 0.4011035503	-0.7615473727	-1.990016754	 0.106879
H	 1.6443486608	 0.3585979788	-1.3916989718	 0.095374
H	 2.6446791293	-1.7210469103	-0.9660640847	 0.232788
H	 0.3184597465	 0.1323300442	 3.2242018146	 0.262496
H	 2.0727535003	-1.5264192056	 3.9739277133	 0.124332
110.1278	159.733	221.4752	262.6847	305.4744	425.2617	472.9768	485.0073	569.9457	638.4293	663.4741	703.2671	746.1075	770.6627	807.0283	904.2786	942.8384	963.7738	1004.0487	1048.3045	1095.2029	1106.9113	1125.5627	1147.9991	1223.3851	1247.086	1306.2702	1307.9609	1337.6808	1365.617	1380.1216	1407.5135	1434.5571	1463.7117	1495.2499	1499.122	1507.1036	1535.1137	1635.807	2963.0815	2984.7702	3028.2179	3085.8461	3094.4933	3104.302	3251.8353	3542.7168	3673.5619
CC1CNC2=C1NC=N2	C[C@H]1CNc2c1[nH]cn2	
InChI=1S/C6H9N3/c1-4-2-7-6-5(4)8-3-9-6/h3-4,7H,2H2,1H3,(H,8,9)	InChI=1S/C6H9N3/c1-4-2-7-6-5(4)8-3-9-6/h3-4,7H,2H2,1H3,(H,8,9)/t4-/m0/s1
