16
gdb 26998	3.29951	1.18142	0.89066	2.4898	77.14	-0.1891	0.0351	0.2243	1248.6582	0.125143	-396.931893	-396.923157	-396.922212	-396.965953	32.095	
N	 0.0804421672	 1.0523123961	 1.3661380524	-0.602461
C	 0.0457837349	-0.0252021203	 0.4644034134	 0.184616
C	-0.9631783684	-0.3527935053	-0.4113306209	 0.276701
C	-2.2719184845	 0.3150833365	-0.7173673994	-0.477756
C	-3.2657018584	-0.5993547679	-1.2753042034	 0.283677
C	-4.0499062154	-1.3700634955	-1.7615233266	-0.439126
N	-0.5251339797	-1.5102323134	-1.0308776251	-0.298704
C	 0.6757898024	-1.8340862396	-0.4904397936	 0.000642
N	 1.0586681789	-0.9506566852	 0.4089937903	-0.309027
H	 0.9482127191	 1.021124288	 1.8887134116	 0.246631
H	 0.0142305468	 1.9531302052	 0.9066035094	 0.239464
H	-2.6539966474	 0.7619748362	 0.2100053531	 0.159113
H	-2.1418927202	 1.1538792199	-1.4192611866	 0.140748
H	-4.7683545879	-2.0353300665	-2.1727775447	 0.201513
H	-1.0647039792	-2.0416820787	-1.6946895677	 0.26695
H	 1.2252718218	-2.7156485395	-0.7834781421	 0.127019
36.2513	112.8702	161.7258	222.786	238.77	303.8861	332.4578	400.9598	519.1697	528.3741	621.3638	648.5652	657.0641	670.2391	710.2475	785.2276	788.7513	826.9752	949.4753	952.2699	966.1736	1067.7321	1127.8893	1183.8285	1231.4767	1260.4805	1319.9297	1352.5404	1393.4272	1471.5123	1489.9552	1516.7622	1644.1574	1651.3704	2237.1718	2976.916	3034.0246	3254.7901	3504.2293	3518.4056	3606.144	3655.0505
NC1=C(CC#C)NC=N1	Nc1c(CC#C)[nH]cn1	
InChI=1S/C6H7N3/c1-2-3-5-6(7)9-4-8-5/h1,4H,3,7H2,(H,8,9)	InChI=1S/C6H7N3/c1-2-3-5-6(7)9-4-8-5/h1,4H,3,7H2,(H,8,9)
