23
gdb 112836	2.88986	1.14924	0.93513	1.744	85.01	-0.253	0.0877	0.3407	1370.1286	0.20618	-388.299757	-388.290566	-388.289622	-388.333613	35.393	
C	 0.0945170343	 1.5306043549	-0.025252424	-0.38468
C	 0.016951936	 0.0019021933	 0.0307423259	-0.183793
C	-1.4151204932	-0.547527374	 0.0250637091	 0.003728
C	-2.2288560422	-0.2325384515	-1.2584177873	-0.239539
C	-3.2537815062	-1.3842328878	-1.4316234487	-0.002941
C	-3.649721018	-1.6506250074	-2.8852020635	-0.402562
C	-2.5708087004	-2.5559578824	-0.7462212385	 0.039337
O	-1.1965009781	-2.7237660288	-1.1333794842	-0.269475
C	-1.4903357062	-2.063364162	 0.1101980077	 0.027671
H	 1.1331302515	 1.874063887	 0.0063221071	 0.112097
H	-0.3552748093	 1.9226457764	-0.9431583207	 0.119185
H	-0.4317331676	 1.9855642892	 0.8218686185	 0.110786
H	 0.5577584667	-0.4320204964	-0.8194228128	 0.109822
H	 0.5300751179	-0.3526773954	 0.9344254801	 0.08998
H	-1.9483252422	-0.1505751995	 0.9025303597	 0.067599
H	-2.7159619736	 0.7447603536	-1.218007827	 0.096578
H	-1.552096355	-0.2232563816	-2.1189309365	 0.109867
H	-4.1580631004	-1.1572745979	-0.8485480848	 0.071505
H	-2.7726163992	-1.9498972334	-3.4680228887	 0.129875
H	-4.3935935341	-2.4513012241	-2.957712629	 0.110067
H	-4.0771946795	-0.7557606855	-3.3491856691	 0.112442
H	-3.1113213583	-3.4793318062	-0.5478289225	 0.086241
H	-1.1530969824	-2.5880289005	 1.0019307593	 0.08621
90.1525	108.4498	151.9825	194.8244	241.5819	254.3798	297.7574	351.9412	407.9189	464.2587	536.0907	620.4462	658.8502	783.0302	826.8284	836.1822	856.1547	888.1293	924.9523	936.9972	964.2925	992.8219	1020.3493	1038.7846	1071.2941	1078.1058	1102.3845	1139.1474	1148.3195	1184.6312	1206.8021	1258.156	1271.8301	1301.023	1309.8465	1325.6385	1334.9309	1349.4552	1376.7514	1387.8164	1407.7723	1411.8138	1440.4828	1485.8518	1492.0905	1498.1273	1502.3961	1502.7621	1508.0701	2990.5347	3002.9392	3017.2791	3030.8675	3030.9835	3053.3851	3055.8623	3097.0369	3097.2457	3101.205	3105.8062	3107.9805	3127.7649	3141.029
CCC1CC(C)C2OC12	CC[C@H]1C[C@@H](C)[C@H]2O[C@@H]12	
InChI=1S/C8H14O/c1-3-6-4-5(2)7-8(6)9-7/h5-8H,3-4H2,1-2H3	InChI=1S/C8H14O/c1-3-6-4-5(2)7-8(6)9-7/h5-8H,3-4H2,1-2H3/t5-,6+,7-,8+/m1/s1
