20
gdb 64165	2.16935	1.50775	1.33602	4.2513	78.69	-0.2738	0.0123	0.2862	1108.9408	0.168416	-403.154709	-403.144893	-403.143949	-403.188916	36.532	
C	-0.1851476038	 1.5280665077	 0.0220040099	-0.447656
C	-0.0356709165	 0.0074370963	-0.0362540615	 0.224819
C	-1.3583888028	-0.657487852	-0.4000480694	-0.467151
C	 1.2125589635	-0.4314307617	-0.8407446338	-0.110994
O	 1.9613150605	-0.689021025	 0.3695852482	-0.302408
C	 0.7766087768	-0.5910358844	 1.1872988711	 0.216752
C	 1.0091201331	 0.2303211844	 2.4491034799	-0.446543
C	 0.317518751	-1.9435545372	 1.5714571749	 0.277622
N	-0.0423806082	-2.9987692782	 1.8771632832	-0.351366
H	 0.7696021747	 2.0292560791	 0.2013674508	 0.129373
H	-0.5743939327	 1.8924648563	-0.9346587362	 0.123739
H	-0.8879840641	 1.8342706277	 0.8035912192	 0.124007
H	-1.7006438775	-0.2988651111	-1.3768409163	 0.119209
H	-1.2720503756	-1.7454113934	-0.4481109697	 0.144534
H	-2.1369451226	-0.4146808286	 0.3312784492	 0.125875
H	 1.0729417398	-1.3462194843	-1.4302090671	 0.111582
H	 1.6966430717	 0.3318766945	-1.4585946801	 0.109914
H	 1.3797519366	 1.2239515266	 2.19578874	 0.132091
H	 0.0839465001	 0.3244428462	 3.0253305698	 0.13742
H	 1.753238586	-0.2683333329	 3.0762046679	 0.14918
59.6935	150.6065	180.6172	194.366	211.8341	246.0058	280.2992	311.8381	351.3361	358.9162	403.81	439.7425	546.3762	572.6351	640.902	663.0321	862.5302	880.4903	898.3241	935.101	964.4443	994.0936	1017.8251	1035.8825	1126.0405	1147.1722	1171.269	1176.1405	1212.6042	1268.4661	1281.1403	1352.0234	1399.9544	1407.8501	1427.791	1471.9924	1480.9083	1486.3086	1493.112	1503.8613	1511.1821	1525.8226	2345.9966	3021.052	3032.8631	3038.2377	3052.7717	3077.8451	3095.8004	3102.2	3115.6998	3123.3347	3124.8837	3150.9168
CC1(C)COC1(C)C#N	CC1(C)CO[C@]1(C)C#N	
InChI=1S/C7H11NO/c1-6(2)5-9-7(6,3)4-8/h5H2,1-3H3	InChI=1S/C7H11NO/c1-6(2)5-9-7(6,3)4-8/h5H2,1-3H3/t7-/m1/s1
