18
gdb 75593	2.40749	1.60718	1.03272	0.7933	75.94	-0.2211	-0.057	0.1642	1143.5576	0.149971	-435.278561	-435.270162	-435.269217	-435.311903	32.027	
N	-0.0158601042	 1.3308959004	 0.2601185183	-0.518796
C	-0.0269670383	-0.0261649753	 0.0190752856	 0.248324
N	-1.1253193989	-0.6703173935	 0.0568265026	-0.293318
C	-1.3082260867	-2.089421429	-0.1628019618	-0.150544
C	-0.502640763	-2.7999220547	-1.2600349556	-0.173661
N	 0.9369298165	-2.8971749488	-1.0589388043	-0.274761
C	 1.6778131616	-1.662288009	-1.2247999828	-0.269586
C	 1.4076679265	-0.5189843109	-0.2483548489	 0.32416
O	 2.3229031308	 0.051896993	 0.3071410255	-0.308676
H	 0.860454081	 1.69151266	 0.6074393772	 0.265354
H	-0.8536001886	 1.6886673141	 0.6936995175	 0.251978
H	-1.1433640652	-2.6167631721	 0.7918663606	 0.098194
H	-2.3718827916	-2.2389595693	-0.3910682635	 0.106804
H	-0.9019728082	-3.8174105646	-1.3594437562	 0.103208
H	-0.6718832202	-2.2977398725	-2.2212652219	 0.110359
H	 1.1467823273	-3.322610917	-0.1616643012	 0.222116
H	 2.7520136794	-1.8623118161	-1.1693463588	 0.127633
H	 1.468348092	-1.2701520847	-2.2313020723	 0.131214
46.6151	119.7981	209.9708	281.7689	323.5538	339.2247	375.6628	412.0421	497.1051	511.6127	564.2783	601.7201	624.6673	672.7451	741.2194	782.9612	837.0208	896.6939	972.0039	1003.6244	1031.7446	1089.1705	1163.2067	1182.5605	1211.7744	1232.9231	1305.2916	1339.5387	1350.4728	1361.2655	1380.2013	1400.8892	1450.4014	1474.6107	1481.8504	1503.7864	1598.7295	1735.1714	1772.0318	2968.6326	3004.9267	3013.8051	3031.4903	3061.6494	3090.6669	3519.6972	3568.6163	3690.3233
NC1=NCCNCC1=O	NC1=NCCNCC1=O	
InChI=1S/C5H9N3O/c6-5-4(9)3-7-1-2-8-5/h7H,1-3H2,(H2,6,8)	InChI=1S/C5H9N3O/c6-5-4(9)3-7-1-2-8-5/h7H,1-3H2,(H2,6,8)
