15
gdb 46826	2.59711	1.6621	1.19476	6.8177	70.48	-0.2626	0.0004	0.263	1015.2334	0.114845	-416.853478	-416.845979	-416.845035	-416.885555	28.261	
O	-0.0238941523	-0.0256768225	-0.0873933773	-0.355144
C	-0.0035920274	 1.1766470523	 0.0042433532	 0.374875
N	-1.0785027483	 2.0054990193	 0.2067664524	-0.329195
C	-0.8290067134	 3.4256885917	 0.0262289101	-0.182767
C	 0.6935142413	 3.5160098677	 0.0153088864	-0.092306
C	 1.4232438145	 2.9446827029	 1.1845977963	-0.305889
C	 1.2190895793	 2.0844071929	-0.0630258273	 0.071466
C	 2.3407243438	 1.6907060348	-0.8591026615	 0.219807
N	 3.2557379258	 1.3966103673	-1.5018256148	-0.340416
H	-2.004922843	 1.6128507469	 0.2552392191	 0.262982
H	-1.2442312285	 3.7935105293	-0.9211717989	 0.126644
H	-1.2660272653	 4.0165974839	 0.839986066	 0.126508
H	 1.1597285701	 4.3003680834	-0.566158445	 0.128895
H	 2.4351325614	 3.2907794662	 1.3581755861	 0.151329
H	 0.871853032	 2.657772244	 2.0737055952	 0.143212
111.3422	144.3688	174.1756	253.3345	370.7141	401.4977	478.1044	512.4806	561.543	604.0882	663.3033	718.5102	770.0652	832.229	875.3583	916.8485	959.6006	1027.1757	1065.9851	1079.5443	1085.0493	1116.7643	1187.5087	1219.7046	1259.4839	1309.9111	1337.848	1402.3891	1447.5529	1486.996	1528.6836	1843.5352	2361.5389	3015.5515	3052.8467	3140.9059	3207.7206	3236.8152	3649.8362
O=C1NCC2CC12C#N	O=C1NC[C@H]2C[C@@]12C#N	
InChI=1S/C6H6N2O/c7-3-6-1-4(6)2-8-5(6)9/h4H,1-2H2,(H,8,9)	InChI=1S/C6H6N2O/c7-3-6-1-4(6)2-8-5(6)9/h4H,1-2H2,(H,8,9)/t4-,6+/m1/s1
