18
gdb 82330	2.63816	1.72002	1.26763	3.377	70.17	-0.2395	0.0605	0.3	1010.0091	0.149122	-439.043508	-439.035969	-439.035025	-439.075566	30.101	
O	 0.4977253453	 0.8503884845	-0.6688267102	-0.430493
C	 0.1009495788	-0.3494289568	-0.0357198497	 0.054312
C	 0.584227941	-0.4513381423	 1.399610479	-0.077927
N	-0.1013565168	 0.5662050694	 2.2345760434	-0.355962
C	-0.5372170105	-0.8495647315	 2.2822365796	-0.03909
C	-1.7742318793	-1.1212161684	 1.4498284311	-0.309022
C	-1.4325773613	-0.5332994287	 0.079239463	 0.410989
C	-2.3549978222	 0.2991226537	-0.6988537718	-0.238957
O	-2.1095275867	-1.0662432186	-1.0573876065	-0.289677
H	 0.2722336918	 1.5549862184	-0.046881187	 0.28754
H	 0.5077467713	-1.1628311386	-0.6461797916	 0.101779
H	 1.6181892127	-0.7011201545	 1.6099512103	 0.093827
H	 0.4689401029	 0.7693775099	 3.0513473644	 0.236266
H	-0.3651225621	-1.4105061417	 3.1948560396	 0.093192
H	-1.9303630813	-2.2020552176	 1.353728999	 0.118155
H	-2.6820054786	-0.6869257948	 1.8786786037	 0.112679
H	-3.3490097695	 0.5076380507	-0.3040560969	 0.107788
H	-1.9495443554	 1.0371022467	-1.3868614694	 0.124601
66.2577	197.5046	273.751	298.0853	368.8165	383.1215	442.9295	475.525	542.4912	623.2522	634.595	782.4875	802.5441	856.8165	871.2851	897.5132	920.0761	941.0259	968.523	993.4109	1043.1255	1079.1294	1095.9536	1125.7555	1133.7981	1159.7431	1169.1517	1188.6616	1227.2261	1246.9794	1292.7986	1299.101	1325.1383	1364.2713	1413.2995	1428.384	1442.1549	1479.2872	1521.8262	3043.5229	3062.8029	3085.6769	3090.6372	3164.5782	3178.4141	3183.1963	3507.973	3764.4642
OC1C2NC2CC11CO1	O[C@H]1[C@H]2N[C@H]2C[C@]21CO2	
InChI=1S/C6H9NO2/c8-5-4-3(7-4)1-6(5)2-9-6/h3-5,7-8H,1-2H2	InChI=1S/C6H9NO2/c8-5-4-3(7-4)1-6(5)2-9-6/h3-5,7-8H,1-2H2/t3-,4-,5-,6+/m0/s1
