15
gdb 45718	2.61792	1.4606	1.15692	3.6588	72.39	-0.2756	-0.0291	0.2464	1067.4013	0.113464	-416.828171	-416.820299	-416.819355	-416.861779	28.69	
N	-0.1569610975	 1.0701919545	-0.8815424437	-0.501196
C	-0.0302878845	 0.0926733235	-0.0937891967	 0.403039
C	-1.2366746375	-0.5934088579	 0.5061150825	-0.349261
C	-0.9893235546	-2.0403307115	 0.8250902039	-0.064362
C	 0.2293046095	-2.4590407707	 1.1402673697	-0.077021
C	 1.3729757948	-1.4738712545	 1.1486156039	-0.067936
O	 1.2144413535	-0.3935918232	 0.2263478709	-0.251759
C	 1.5929232707	-0.9407371946	 2.5117662136	 0.272218
N	 1.7583990349	-0.5382037728	 3.5820748681	-0.30942
H	 0.7577203765	 1.4168798245	-1.1765886541	 0.228058
H	-1.5145882829	-0.0600883723	 1.4275205469	 0.162426
H	-2.0691831892	-0.4542051077	-0.1853636131	 0.154971
H	-1.8316445051	-2.7242305474	 0.8099856237	 0.121571
H	 0.4589298866	-3.4823038755	 1.412574917	 0.126213
H	 2.3007979946	-1.9676677644	 0.8403907373	 0.152458
41.9176	61.4626	168.1155	247.572	385.7345	427.0143	447.5056	486.9293	537.1956	593.5459	622.2051	705.5628	778.8962	864.1901	906.0718	928.6785	960.5235	971.7739	998.3544	1006.2266	1072.9468	1109.5334	1200.837	1202.4306	1287.1085	1316.0373	1335.5808	1383.0252	1400.1428	1457.4081	1730.0496	1762.2528	2354.7536	3008.8152	3059.422	3118.9956	3183.2396	3209.9936	3473.055
N=C1CC=CC(O1)C#N	[NH][C]1CC=C[C@@H](O1)C#N	
InChI=1S/C6H6N2O/c7-4-5-2-1-3-6(8)9-5/h1-2,5,8H,3H2	InChI=1S/C6H6N2O/c7-4-5-2-1-3-6(8)9-5/h1-2,5,8H,3H2/t5-/m1/s1
