20
gdb 15011	4.03327	1.3553	1.08711	2.5846	71.11	-0.2407	0.0736	0.3143	1110.1891	0.17873	-386.145735	-386.137667	-386.136723	-386.178098	30.636	
O	-0.0566233761	 1.4412515632	 0.0403749632	-0.424562
C	 0.0170880187	 0.023071291	-0.0140026128	-0.094768
C	-1.4017072413	-0.5326942956	 0.0107853528	 0.0254
C	-1.4181412114	-2.0609384658	-0.1506154995	-0.2154
C	-2.8475282312	-2.6005563208	-0.0048258549	-0.210083
C	-3.4794483243	-2.0761007883	 1.2866319517	-0.061545
O	-3.4524313229	-0.6613964224	 1.3469944689	-0.246326
C	-2.1336096086	-0.1453881613	 1.3042898103	-0.071508
H	 0.8384200352	 1.7904520765	 0.0733373278	 0.287582
H	 0.5275645547	-0.3144852915	-0.9306864833	 0.084701
H	 0.5864035476	-0.3778167527	 0.8419120133	 0.08291
H	-1.9515010206	-0.0819097146	-0.8261686524	 0.087248
H	-0.9901525965	-2.3514562164	-1.1171090353	 0.093069
H	-0.7804285012	-2.5122898297	 0.623851646	 0.091336
H	-3.457173831	-2.2713438478	-0.8550507333	 0.104088
H	-2.8537194866	-3.6966774085	-0.0032306312	 0.091518
H	-4.531912866	-2.3657823652	 1.3610265351	 0.102457
H	-2.9500236064	-2.5009385199	 2.1587491687	 0.078834
H	-1.5550940208	-0.5116233028	 2.1732397976	 0.072281
H	-2.2183062813	 0.9393034625	 1.3887941973	 0.122768
99.2273	142.7333	208.227	239.5554	256.4661	344.7283	377.4218	432.5769	451.9297	496.137	585.1014	813.9835	865.5485	870.6219	908.1234	923.8467	986.4205	1003.3139	1042.3248	1073.1019	1088.7609	1120.8382	1147.5841	1177.7124	1194.6455	1227.6852	1249.6595	1268.2262	1303.4118	1318.0948	1331.0991	1348.3547	1376.5748	1379.7065	1403.0524	1420.1851	1457.95	1478.5067	1488.4145	1492.3179	1505.4506	1520.2339	2930.8528	2945.2641	2954.1667	2982.1251	3001.8289	3028.1015	3028.4	3057.1795	3074.0069	3080.8486	3116.9864	3833.8693
OCC1CCCOC1	OC[C@H]1CCCOC1	
InChI=1S/C6H12O2/c7-4-6-2-1-3-8-5-6/h6-7H,1-5H2	InChI=1S/C6H12O2/c7-4-6-2-1-3-8-5-6/h6-7H,1-5H2/t6-/m1/s1
