19
gdb 74624	2.98362	1.44636	1.40155	1.5635	80.76	-0.2157	0.0101	0.2258	1057.6119	0.158936	-385.85768	-385.849692	-385.848748	-385.889749	31.559	
C	 0.0150213978	 1.5204680501	 0.0372168603	-0.503371
C	-0.0856276835	 0.0311264443	-0.0258310198	 0.313338
C	-0.0203222808	-0.7793623131	-1.0964867787	-0.1622
C	-0.0377192927	-2.1967783082	-0.6680344162	-0.183879
C	 0.8815791753	-2.5561396393	 0.5654393634	 0.051803
O	 1.3534187959	-1.4033921663	 1.2209031262	-0.300776
C	-0.037214197	-0.8593778107	 1.1937666217	-0.067525
C	-0.5643275635	-2.2635695702	 0.7517167167	 0.263564
C	-1.746240115	-3.0309355485	 1.2571703461	-0.51993
H	 0.9331387962	 1.8361135792	 0.5488194318	 0.135884
H	 0.0209081069	 1.9612979294	-0.9635739055	 0.12353
H	-0.8224996866	 1.9584586671	 0.5954385365	 0.119994
H	 0.1265196404	-0.4604173595	-2.1221045389	 0.094673
H	-0.2513189913	-3.0116157374	-1.3507471984	 0.081053
H	 1.4918773662	-3.4511951618	 0.6041914754	 0.106947
H	-0.3030742408	-0.4445711807	 2.1668396303	 0.072899
H	-2.6863474036	-2.5351015656	 0.9885604329	 0.125752
H	-1.7668849183	-4.0352926857	 0.8216723418	 0.124044
H	-1.7200189655	-3.140314263	 2.3471361746	 0.124201
137.1912	173.866	197.5741	233.3667	244.9249	325.4593	411.2579	504.5802	545.7473	619.1761	622.3947	705.8811	772.2203	816.2949	855.5422	860.3711	878.2306	907.2202	938.001	953.027	993.6634	1039.9131	1050.2574	1062.097	1075.3067	1135.3715	1177.2709	1196.6644	1206.7305	1228.3222	1266.1741	1315.5252	1337.3221	1411.6649	1413.0877	1464.6903	1479.4169	1485.2153	1490.589	1497.3887	1677.8744	3014.8597	3023.5726	3060.3312	3084.797	3097.8834	3107.3537	3110.3379	3176.165	3184.9337	3197.6609
CC1=CC2C3OC1C23C	CC1=C[C@H]2[C@H]3O[C@@H]1[C@@]23C	
InChI=1S/C8H10O/c1-4-3-5-7-8(5,2)6(4)9-7/h3,5-7H,1-2H3	InChI=1S/C8H10O/c1-4-3-5-7-8(5,2)6(4)9-7/h3,5-7H,1-2H3/t5-,6-,7+,8+/m0/s1
