20
gdb 62960	2.08451	1.87111	1.4214	2.6707	78.81	-0.2344	0.0659	0.3003	1032.1017	0.170152	-403.088333	-403.07975	-403.078806	-403.120757	34.332	
C	-0.0964267203	 1.5708100094	-0.0858687342	-0.455579
C	 0.0565428776	 0.0583167546	-0.0014807908	 0.307401
O	-1.2171683701	-0.5735326485	-0.0600166844	-0.477301
C	 1.0907027509	-0.6300620182	-0.9238451439	-0.101323
C	 2.500881544	-0.2504014936	-0.5620829376	-0.306237
C	 1.7863658423	-1.2681859345	 0.2824427251	-0.129258
C	 0.8100464561	-0.5681148354	 1.2034594117	 0.358432
C	 0.9478370376	-0.0342156935	 2.5775905767	-0.318313
N	 0.135468146	-1.2366127977	 2.2983339189	-0.368887
H	 0.8654399625	 2.0832600945	-0.0072874175	 0.123546
H	-0.54805487	 1.8587378121	-1.0440703161	 0.106227
H	-0.7479302396	 1.9336895062	 0.7157641648	 0.12131
H	-1.6854159983	-0.2270130737	-0.8271900512	 0.277285
H	 0.8348047275	-1.0820744012	-1.8748672947	 0.08394
H	 3.2650662635	-0.6457299865	-1.2240579407	 0.114434
H	 2.7342929189	 0.731852821	-0.1588123329	 0.106553
H	 2.1362210445	-2.2837363378	 0.4156865321	 0.096787
H	 1.853390902	-0.2185756275	 3.1500364025	 0.114617
H	 0.4415989016	 0.8979007123	 2.8196154029	 0.105385
H	-0.8569525166	-1.0133620019	 2.2651122392	 0.240982
119.2589	215.3348	226.6372	245.8359	255.2296	285.4341	308.4608	374.9559	429.7731	498.4679	558.7102	587.0972	653.0308	780.005	791.7331	867.7181	905.5418	921.5544	933.8713	949.1559	961.4279	973.9085	1002.6404	1025.3715	1061.3115	1074.0529	1088.5989	1096.2859	1130.3338	1159.6715	1180.9156	1207.6283	1253.2631	1262.4033	1290.8298	1311.5132	1371.2701	1405.6972	1433.1088	1483.2948	1489.6609	1496.1482	1517.1554	3022.4663	3088.7018	3098.2082	3111.2134	3121.4174	3179.4039	3181.7251	3193.5152	3203.8548	3498.7551	3804.6933
CC1(O)C2CC2C11CN1	C[C@@]1(O)[C@H]2C[C@H]2[C@]21CN2	
InChI=1S/C7H11NO/c1-6(9)4-2-5(4)7(6)3-8-7/h4-5,8-9H,2-3H2,1H3	InChI=1S/C7H11NO/c1-6(9)4-2-5(4)7(6)3-8-7/h4-5,8-9H,2-3H2,1H3/t4-,5+,6+,7-/m0/s1
