20
gdb 9252	5.8419	0.75222	0.70919	1.1779	80.34	-0.2407	0.0599	0.3006	1629.6648	0.174117	-348.983783	-348.97321	-348.972265	-349.020566	36.107	
C	 0.0572145137	 1.4937645262	 0.0184079782	-0.497992
C	 0.0353868835	 0.0378256017	-0.0124999458	 0.106936
C	 0.0272170886	-1.1662371195	-0.0384462935	 0.029149
C	-0.0038159934	-2.6246843274	-0.060504818	-0.363716
C	-1.4330744543	-3.2169536672	-0.038964993	 0.044424
C	-2.242578253	-2.8110374192	-1.2740456016	-0.386289
C	-1.3535208	-4.7371349857	 0.1028271611	-0.079686
O	-2.6718785122	-5.2435486473	 0.246760533	-0.424373
H	 0.9144166922	 1.8677588507	 0.589541314	 0.145275
H	 0.124407059	 1.9148145673	-0.9910235714	 0.145089
H	-0.8492435106	 1.8966595184	 0.4839237875	 0.145971
H	 0.5209675841	-2.9891706982	-0.9554781807	 0.119946
H	 0.5608558262	-3.0111785574	 0.7990138205	 0.119094
H	-1.9418169105	-2.8357864865	 0.8553376249	 0.0918
H	-1.7562566968	-3.1687759048	-2.1905044566	 0.102472
H	-3.2440037012	-3.2441165034	-1.2326258843	 0.131058
H	-2.3280684702	-1.7234705437	-1.3426210155	 0.122398
H	-0.8583333178	-5.1631396539	-0.7867501668	 0.081126
H	-0.7348103499	-4.995531986	 0.9779044196	 0.080979
H	-2.6251413073	-6.2032689542	 0.2746635085	 0.286339
27.8991	57.2879	82.316	122.2877	210.1995	233.2843	239.293	242.2652	279.2805	332.5341	385.5709	416.2294	418.8054	550.1751	771.2001	837.0282	891.2306	931.6038	947.8127	1053.4489	1053.8681	1073.5012	1093.9312	1125.4487	1168.6701	1170.6332	1223.9838	1254.6871	1278.1366	1309.9837	1363.0391	1381.6376	1404.1659	1415.7835	1459.9655	1472.7554	1479.4619	1480.0432	1495.8027	1503.4527	1521.3497	2372.3481	2950.629	2979.4803	2999.9914	3024.399	3024.8978	3029.5007	3044.6763	3084.2902	3084.6036	3103.4863	3135.3908	3834.653
CC#CCC(C)CO	CC#CC[C@@H](C)CO	
InChI=1S/C7H12O/c1-3-4-5-7(2)6-8/h7-8H,5-6H2,1-2H3	InChI=1S/C7H12O/c1-3-4-5-7(2)6-8/h7-8H,5-6H2,1-2H3/t7-/m1/s1
