17
gdb 84752	2.57485	1.56588	1.19872	1.411	69.46	-0.2521	-0.0307	0.2214	1060.1375	0.136902	-455.182366	-455.173956	-455.173012	-455.215302	31.384	
C	-0.1166511889	 1.5820984748	-0.0151799456	-0.392212
C	 0.0991078448	 0.0705903525	-0.0493031963	 0.031352
N	 0.8550342768	-0.308041407	-1.2505389625	-0.246676
C	 1.4559998153	-1.4126223957	-1.2305762013	 0.118698
O	 1.5011297714	-2.3366970882	-0.2065775204	-0.217793
C	 1.0335521677	-1.9713130896	 1.0483143626	 0.418816
O	 0.951994464	-2.8077591333	 1.8970669221	-0.311595
C	 0.7739255575	-0.4787985423	 1.2195197769	-0.121683
N	 2.0195445883	 0.2361621526	 1.5192195667	-0.514412
H	 0.8342643985	 2.1087288516	 0.082936317	 0.137941
H	-0.6033475424	 1.9029536591	-0.9391958587	 0.126457
H	-0.7495537842	 1.8605209721	 0.8328658175	 0.115062
H	-0.8836270534	-0.4181607267	-0.1312038513	 0.105292
H	 2.018849177	-1.7849708889	-2.0824387369	 0.143858
H	 0.1078905444	-0.3711295898	 2.0795814785	 0.115672
H	 2.4781389731	-0.1812195311	 2.3230568285	 0.248273
H	 2.6659198301	 0.18151735	 0.7373069632	 0.242949
96.0963	123.3119	210.1085	232.6836	257.7406	287.1354	319.5431	417.9005	432.2298	510.035	569.9222	688.8668	745.194	756.1767	830.8247	874.3235	905.5359	917.9175	956.8955	1014.5362	1054.9742	1103.3603	1120.5212	1164.0292	1189.1623	1204.2984	1290.3881	1342.6149	1357.3381	1401.9972	1403.4786	1413.0629	1486.0991	1494.2278	1650.8998	1735.8074	1875.8125	2993.5624	3052.1893	3083.5228	3124.3995	3143.9777	3181.3595	3497.1412	3581.7703
CC1N=COC(=O)C1N	C[C@H]1N=COC(=O)[C@H]1N	
InChI=1S/C5H8N2O2/c1-3-4(6)5(8)9-2-7-3/h2-4H,6H2,1H3	InChI=1S/C5H8N2O2/c1-3-4(6)5(8)9-2-7-3/h2-4H,6H2,1H3/t3-,4+/m1/s1
