13
gdb 50028	3.4489	1.05544	0.97307	2.8288	60.97	-0.2845	-0.0707	0.2138	1181.4091	0.087043	-493.694318	-493.686545	-493.6856	-493.727404	27.278	
O	-0.6545359493	 0.7458840773	 0.7968422204	-0.231055
C	 0.1800648353	 0.9501085376	-0.0435720106	 0.156934
C	 1.2412934759	 1.9971642466	 0.0877402888	-0.141096
O	 2.4159392635	 1.7743449932	-0.7141913764	-0.246061
C	 1.5795904204	 2.8217397061	-1.0905806133	 0.203251
C	 0.9148036667	 3.0570466159	-2.4460433308	-0.16154
O	 1.2793715338	 4.4710205355	-2.3408726229	-0.24144
C	 1.94537418	 4.3028073267	-1.1455909789	 0.429663
O	 2.534432163	 5.1029131741	-0.5022225787	-0.315209
H	 0.2352592923	 0.374816698	-0.9940992032	 0.097812
H	 1.4114182845	 2.4073600965	 1.080797646	 0.152419
H	 1.4138572039	 2.5814168263	-3.292467974	 0.150049
H	-0.1682359601	 2.9373072661	-2.5031318966	 0.146274
81.7682	108.4924	166.8225	200.6039	267.6967	339.8874	388.0722	494.2259	550.8649	634.7506	730.291	785.7344	875.9312	928.8583	959.7306	977.2637	1045.6949	1078.4513	1101.5843	1110.6879	1151.7945	1163.7611	1277.0746	1323.0359	1397.3764	1489.68	1507.9308	1833.6081	1956.7065	2896.7857	3079.7001	3145.1104	3157.5892
O=CC1OC11COC1=O	O=C[C@H]1O[C@]21COC2=O	
InChI=1S/C5H4O4/c6-1-3-5(9-3)2-8-4(5)7/h1,3H,2H2	InChI=1S/C5H4O4/c6-1-3-5(9-3)2-8-4(5)7/h1,3H,2H2/t3-,5+/m1/s1
