15
gdb 6732	6.4966	0.73016	0.69436	2.1294	67.02	-0.24	0.0261	0.2661	1572.6991	0.116335	-399.790563	-399.780833	-399.779889	-399.828119	32.1	
N	-0.1948925802	 1.2897342377	 0.4115801511	-0.524487
C	 0.1088693705	 0.0200980308	 0.0047100133	 0.422101
O	 1.2414970094	-0.4016270279	-0.0493063679	-0.337397
C	-1.1210731944	-0.7905752835	-0.4542808371	-0.484742
C	-0.9461838493	-2.2280314288	-0.3356363515	 0.090814
C	-0.8211037622	-3.4187161534	-0.2276874446	 0.121515
C	-0.6311206369	-4.8581483942	-0.11198177	-0.217434
O	-1.6029773774	-5.4013794331	 0.775409559	-0.4114
H	 0.5591013197	 1.858554598	 0.7616028956	 0.263552
H	-1.137310962	 1.576922004	 0.6092967077	 0.258718
H	-2.0139566204	-0.4744621083	 0.0998449476	 0.132938
H	-1.3043937265	-0.5139908636	-1.5021150762	 0.159869
H	-0.7078785642	-5.314645325	-1.1124923722	 0.114504
H	 0.3918721359	-5.0525737981	 0.2487244932	 0.122586
H	-1.430331872	-6.3459831346	 0.8428834021	 0.288862
14.171	20.7007	83.7242	134.6592	216.4411	219.7838	250.7409	328.5739	364.7316	427.9463	498.5668	545.6711	605.2411	666.5964	808.1187	836.0491	943.0125	1027.6728	1048.068	1090.3849	1162.1137	1219.829	1245.8257	1255.6509	1280.088	1376.7407	1445.9196	1460.6465	1503.3979	1619.0213	1819.6982	2385.1476	2963.3405	2983.2942	3013.6711	3047.6488	3600.2033	3734.1719	3817.8897
NC(=O)CC#CCO	NC(=O)CC#CCO	
InChI=1S/C5H7NO2/c6-5(8)3-1-2-4-7/h7H,3-4H2,(H2,6,8)	InChI=1S/C5H7NO2/c6-5(8)3-1-2-4-7/h7H,3-4H2,(H2,6,8)
