20
gdb 96373	2.3394	1.74384	1.14864	1.7236	74.53	-0.2443	0.0674	0.3117	1101.4593	0.172462	-440.258261	-440.250086	-440.249142	-440.29075	32.04	
C	-0.0779967895	 1.5251449366	-0.1361763449	-0.427873
C	 0.0723723674	 0.0201061085	 0.020505028	 0.035723
O	 0.7540847759	-0.4493138024	-1.1463783747	-0.245976
C	 0.9118324229	-1.8435732473	-1.1478726857	 0.019778
O	 1.6874747253	-2.3027985854	-0.0759124882	-0.23098
C	 1.0732318188	-1.972023562	 1.1623989285	-0.143783
C	 0.8216735314	-0.4763435864	 1.2569228223	 0.312473
C	 1.761415194	 0.3852223584	 2.011166027	-0.273007
N	 0.4719569022	-0.0253778434	 2.6087235566	-0.365747
H	 0.8977871025	 1.9963147086	-0.2773742272	 0.137311
H	-0.6875160916	 1.738654839	-1.0175322221	 0.132977
H	-0.5706934462	 1.9762339449	 0.7304929698	 0.11367
H	-0.9326266355	-0.4416534601	 0.0448022533	 0.069651
H	-0.0830020613	-2.331238157	-1.1273915158	 0.072842
H	 1.4421686777	-2.103099579	-2.0660848102	 0.117924
H	 0.1142032057	-2.5086885212	 1.265485039	 0.091232
H	 1.7391934186	-2.3091808033	 1.9592021317	 0.117996
H	 2.6397619591	-0.0554384855	 2.4749195744	 0.120893
H	 1.8839757209	 1.4201053287	 1.7079672439	 0.115455
H	-0.1883432685	 0.7478969782	 2.5702710942	 0.22944
94.904	181.7342	207.5702	278.4735	287.7952	338.3516	366.4951	417.7546	440.5755	497.833	538.4126	660.8231	751.4461	845.3242	885.0053	919.4417	928.9321	970.0038	978.2109	1026.6762	1044.6665	1061.0857	1074.7452	1101.7933	1109.3724	1139.5866	1160.96	1209.8593	1252.113	1260.5864	1316.143	1321.4689	1358.56	1381.8608	1388.1835	1401.9929	1427.4423	1443.39	1480.9764	1489.6194	1498.5836	1508.2621	1520.2999	2908.0996	2926.9562	2962.4693	3048.9598	3108.5972	3114.9116	3116.5409	3120.4788	3131.2575	3202.3098	3494.1563
CC1OCOCC11CN1	C[C@H]1OCOC[C@]21CN2	
InChI=1S/C6H11NO2/c1-5-6(2-7-6)3-8-4-9-5/h5,7H,2-4H2,1H3	InChI=1S/C6H11NO2/c1-5-6(2-7-6)3-8-4-9-5/h5,7H,2-4H2,1H3/t5-,6+/m1/s1
