18
gdb 65430	4.2878	0.79581	0.75139	1.7875	81.39	-0.2596	-0.0336	0.2261	1517.4296	0.144402	-401.903831	-401.894037	-401.893093	-401.939085	35.154	
C	 0.0692664372	 1.5792177599	-0.1950344575	-0.457538
C	 0.0020162275	 0.0866125382	 0.0200935404	 0.20631
N	 1.2746334398	-0.677196709	 0.0043067683	-0.346874
C	 0.5246142373	-0.6154393288	 1.2452521874	-0.050879
C	 1.1451453194	 0.137430271	 2.4148624788	-0.362014
C	 1.9407944989	-0.7438333868	 3.2630095866	 0.293889
C	 2.5805817885	-1.4925792183	 3.9512677281	-0.434298
C	-1.1624433794	-0.6090318053	-0.6015243287	 0.119799
O	-2.0579961487	-0.0620123495	-1.192389159	-0.256538
H	 0.9981780575	 1.9938369193	 0.1980821414	 0.128037
H	 0.0184816415	 1.8033283576	-1.2640577993	 0.138425
H	-0.7790145977	 2.076076736	 0.2842349218	 0.13363
H	 1.160057616	-1.5790786286	-0.4561788997	 0.238454
H	-0.0170095919	-1.5112051973	 1.5483539294	 0.102442
H	 1.7722692997	 0.9484148483	 2.0332736099	 0.145656
H	 0.3474263395	 0.6002080441	 3.0100834147	 0.139622
H	 3.1562661544	-2.1417400921	 4.563357642	 0.199789
H	-1.1329790595	-1.7210045886	-0.4860737445	 0.062089
49.4092	98.201	105.5789	127.6684	214.7715	261.9876	281.1436	335.0286	359.2272	431.887	442.999	512.6523	601.1174	621.8718	649.7547	757.9926	811.439	867.7473	941.3408	960.7212	988.7058	1000.8161	1058.6109	1082.0379	1106.5885	1130.237	1206.6538	1260.7387	1276.1869	1322.5568	1360.3848	1412.3184	1431.3135	1453.9083	1461.6569	1483.0187	1495.2033	1822.1012	2241.5204	2827.2697	3030.492	3055.3502	3086.0193	3113.4485	3119.0312	3148.0979	3472.4028	3505.8306
CC1(NC1CC#C)C=O	C[C@]1(N[C@H]1CC#C)C=O	
InChI=1S/C7H9NO/c1-3-4-6-7(2,5-9)8-6/h1,5-6,8H,4H2,2H3	InChI=1S/C7H9NO/c1-3-4-6-7(2,5-9)8-6/h1,5-6,8H,4H2,2H3/t6-,7-/m0/s1
