18
gdb 39908	4.04405	1.48291	1.36484	1.199	84.96	-0.2035	-0.0379	0.1656	986.8076	0.148565	-364.671369	-364.664553	-364.663609	-364.702235	28.536	
C	-0.1273069306	 1.455375691	 0.1178397992	-0.315217
C	 1.2633993124	 0.904148298	-0.0201754558	-0.313796
C	 0.0748769667	-0.0415947855	 0.0304312737	 0.350908
C	-0.3741138198	-0.9402151055	 1.1378911226	-0.203736
C	-0.6260226698	-2.1693154181	 0.620726361	-0.00914
C	-2.0515014856	-2.3475654123	 0.0843565361	-0.165231
N	-1.4833823312	-1.8803311895	-1.2624913444	-0.163951
C	-0.1197893616	-2.2809973797	-0.824331659	-0.081523
C	-0.2869724437	-0.8745930045	-1.1905540187	-0.094172
H	-0.4285844763	 1.8698827982	 1.0741200906	 0.119247
H	-0.5727979178	 1.9441169438	-0.7424059652	 0.121847
H	 1.7739215745	 1.0241815471	-0.9703147071	 0.117303
H	 1.9149558506	 0.9209779907	 0.8457819004	 0.124243
H	-0.975996295	-0.5333073389	 1.9473256289	 0.09602
H	-2.4070976601	-3.3687111299	-0.0835835023	 0.116789
H	-2.8396733956	-1.7304499255	 0.5247157097	 0.110225
H	 0.4531211938	-3.0712952535	-1.2966112111	 0.093214
H	-0.0969837509	-0.5033599759	-2.1937299086	 0.096971
121.6962	239.6898	283.2975	344.3064	458.6508	483.096	550.2137	608.6109	713.2603	731.5032	761.3237	776.1083	839.8799	858.3755	866.6845	897.2553	909.9983	942.0551	967.8632	993.5286	1012.3799	1022.9776	1050.6735	1055.902	1073.1604	1078.4573	1123.6611	1180.1706	1192.098	1238.4224	1254.0862	1265.6099	1277.9401	1316.3995	1385.5986	1464.6131	1494.4459	1505.9002	1549.3573	3042.9941	3106.8024	3128.6269	3133.5084	3144.7585	3157.7055	3171.586	3210.2763	3226.7924
C1CC11C=C2CN3C2C13	C1CC21[CH][C]1CN3[C@H]1[C@H]23	
InChI=1S/C8H9N/c1-2-8(1)3-5-4-9-6(5)7(8)9/h3,6-7H,1-2,4H2	InChI=1S/C8H9N/c1-2-8(1)3-5-4-9-6(5)7(8)9/h3,6-7H,1-2,4H2/t6-,7-,9?/m1/s1
