18
gdb 125887	3.63544	1.20089	1.04972	6.1409	75.96	-0.246	0.0165	0.2625	1172.6318	0.149416	-398.129384	-398.121381	-398.120437	-398.162645	29.785	
C	-0.5075302144	 1.362766439	 0.128353842	-0.415996
C	-0.0486424524	-0.076341628	 0.0638732684	-0.000675
C	 1.364200267	-0.4113266187	-0.3435051615	-0.313747
C	 0.9176858672	-0.658043381	 1.0751901587	-0.004296
N	 1.4487820428	 0.1574566865	 2.1300511252	-0.007796
C	 2.7456919582	 0.5431086351	 2.3407198813	 0.019101
N	 2.8610955254	 1.2204743605	 3.4526477475	-0.225919
N	 1.6022941083	 1.2867203734	 4.0212956738	-0.224918
C	 0.7866063982	 0.6485873079	 3.2236337104	 0.018774
H	 0.2848827947	 2.0235080335	 0.4897699573	 0.138099
H	-0.8066940554	 1.7115176825	-0.8652326001	 0.128777
H	-1.3686225807	 1.478400012	 0.795028458	 0.125783
H	-0.8111986059	-0.7783832253	-0.2619923155	 0.099726
H	 1.5551578186	-1.274651144	-0.9700508052	 0.128194
H	 2.0346648376	 0.4244197402	-0.5127316612	 0.131906
H	 0.7593383918	-1.6906017194	 1.3714349264	 0.119849
H	 3.5442066379	 0.3024421805	 1.6569227253	 0.142567
H	-0.2726470892	 0.5110985355	 3.3754897992	 0.140568
53.5917	103.1423	165.8984	212.5348	257.8502	349.0377	414.907	526.2853	632.9638	688.8344	698.634	786.6445	826.2733	843.1293	855.08	893.0817	938.8843	957.383	1016.435	1032.5339	1071.8133	1081.5261	1097.5493	1124.519	1151.6414	1197.022	1201.3021	1229.3611	1251.3515	1319.9524	1376.3672	1394.8141	1422.4662	1427.4468	1486.8205	1491.3275	1498.1387	1503.3744	1548.7546	3038.2879	3099.7788	3115.6192	3140.58	3143.3967	3152.9873	3228.244	3266.2684	3272.2782
CC1CC1N1C=NN=C1	C[C@H]1C[C@H]1n1cnnc1	
InChI=1S/C6H9N3/c1-5-2-6(5)9-3-7-8-4-9/h3-6H,2H2,1H3	InChI=1S/C6H9N3/c1-5-2-6(5)9-3-7-8-4-9/h3-6H,2H2,1H3/t5-,6+/m0/s1
