13
gdb 27141	3.40743	1.18386	0.91948	3.094	63.33	-0.2275	-0.01	0.2175	1185.2349	0.089094	-489.893271	-489.885393	-489.884448	-489.927099	27.718	
O	 0.4249346809	 1.159921164	-0.4267052545	-0.425153
C	 0.1410315427	-0.1357199742	-0.2064489963	 0.225391
C	-0.3396056385	-1.0481245813	-1.0897501479	 0.273046
O	-0.7539253176	-1.0086042735	-2.3677511066	-0.204328
C	 0.2146491558	-1.0876933095	-3.3423629095	 0.12404
N	-0.1354164745	-1.0506240017	-4.5453328371	-0.417522
O	-0.4689430016	-2.2429837639	-0.4165472262	-0.15423
C	-0.0566251421	-1.9662262819	 0.8322597082	 0.086351
N	 0.320832612	-0.7394633637	 1.0207086701	-0.331679
H	 0.7287563015	 1.5273823338	 0.4121557516	 0.311406
H	 1.2220949274	-1.1693738305	-2.9193672265	 0.108986
H	 0.678961919	-1.1115919401	-5.1527690951	 0.242526
H	-0.0805209148	-2.7722746675	 1.5479347899	 0.161165
29.7542	119.4599	129.0507	275.7431	296.6321	335.2097	433.4915	444.1696	535.2396	647.3239	707.6028	721.9098	818.3092	825.2199	841.1519	953.4524	1013.2647	1046.6576	1081.3351	1168.9151	1197.5211	1247.3134	1322.1871	1354.0834	1396.0766	1423.9125	1549.4511	1741.315	1772.5981	3063.6789	3280.5827	3526.8283	3808.3621
OC1=C(OC=N)OC=N1	Oc1c(O[CH][NH])ocn1	
InChI=1S/C4H4N2O3/c5-1-8-4-3(7)6-2-9-4/h1-2,5,7H	InChI=1S/C4H4N2O3/c5-1-8-4-3(7)6-2-9-4/h1-2,5,7H
