17
gdb 127251	3.2334	1.3896	0.97863	3.6446	87.16	-0.1784	-0.0171	0.1614	1175.0979	0.138099	-414.198714	-414.190311	-414.189367	-414.232159	31.722	
C	 0.0424866691	 1.4414682989	 0.2447563596	-0.323156
N	 0.0164576419	 0.0147649096	-0.0313182913	 0.014695
C	-1.1768489966	-0.6720747251	-0.0598624962	-0.086796
C	-1.2198187234	-2.011894895	-0.3080338246	 0.262612
N	-2.3523624405	-2.7865041779	-0.3049683127	-0.587466
C	 0.0357556338	-2.7145073545	-0.5644129999	 0.230005
N	-0.0102140769	-3.9821292273	-0.8320765769	-0.591335
C	 1.1947859954	-1.8531492864	-0.4914898903	-0.075758
N	 1.1920722502	-0.5692312675	-0.2414373817	-0.21837
H	 1.0822159071	 1.7609119054	 0.2038602496	 0.162227
H	-0.5391148266	 1.9934192177	-0.5019554365	 0.136576
H	-0.3663041826	 1.6547722818	 1.2387379446	 0.138318
H	-2.0612785035	-0.0773329864	 0.1329648509	 0.11117
H	-3.2325577602	-2.3508041506	-0.5271705178	 0.244206
H	-2.1849208275	-3.6957628126	-0.7205366399	 0.271304
H	 0.925024337	-4.3531584975	-1.0022724497	 0.20244
H	 2.1786945333	-2.2808699926	-0.664295637	 0.109327
38.4606	124.527	180.557	304.2845	320.9661	343.1578	397.4276	417.7435	448.6125	537.6119	559.0294	571.8226	605.8836	761.2902	769.4885	807.4027	819.064	829.6116	902.8806	971.5365	1072.1126	1131.1787	1139.6527	1148.6681	1213.6342	1322.3816	1332.0182	1387.4926	1416.6027	1449.1846	1484.089	1491.2984	1516.2913	1551.7343	1603.6077	1645.2428	1682.457	3027.5667	3082.5365	3166.2542	3172.9424	3201.7767	3463.1584	3528.5186	3676.8128
CN1C=C(N)C(=N)C=N1	Cn1cc(N)c([NH])cn1	
InChI=1S/C5H8N4/c1-9-3-5(7)4(6)2-8-9/h2-3,6H,7H2,1H3	InChI=1S/C5H13N4/c1-9-3-5(7)4(6)2-8-9/h4-6,8H,2-3,7H2,1H3
