19
gdb 115959	2.74331	1.54715	1.22339	1.5251	70.56	-0.2461	0.0687	0.3148	1077.387	0.160202	-460.133427	-460.125255	-460.12431	-460.166817	30.091	
C	 0.0404837893	 1.0674361265	-0.5171756027	-0.242442
O	-0.1543698029	-0.3261549688	-0.3514181414	-0.225716
C	-1.3862641005	-0.648743568	 0.2159328607	 0.17337
O	-2.4767351303	-0.3456544222	-0.6330642879	-0.260793
C	-2.5941642772	-1.3986475423	-1.6003383058	-0.108766
C	-2.1985720098	-2.6808044683	-0.8543430062	-0.094953
C	-0.8502726171	-3.3706885038	-1.166577472	-0.082841
O	-0.2776199465	-2.9277643083	 0.083217138	-0.273201
C	-1.4618601358	-2.1870826864	 0.4081867041	 0.090363
H	 1.0301398724	 1.1996586927	-0.9592614702	 0.1278
H	-0.7175610356	 1.5060835527	-1.1765604977	 0.123999
H	 0.008273539	 1.5907403968	 0.4504532351	 0.107085
H	-1.5560571035	-0.071991912	 1.1359934885	 0.068851
H	-3.628938843	-1.3972567314	-1.9503450452	 0.110026
H	-1.9345061874	-1.2104221099	-2.4575830405	 0.103017
H	-3.0360126518	-3.3594909112	-0.695952598	 0.088515
H	-0.8791347425	-4.4640938642	-1.2281689018	 0.104308
H	-0.3084534357	-2.9696944663	-2.0323022627	 0.107234
H	-1.8545909712	-2.4475119557	 1.3956482456	 0.084145
62.9774	112.9535	140.2148	197.4084	215.8331	336.0931	366.7853	499.2713	554.3622	678.4504	723.7607	786.8725	869.0626	911.4231	917.6979	940.0286	958.6431	1005.8179	1029.4398	1050.3848	1068.4809	1099.0216	1133.447	1153.202	1167.1455	1180.5958	1203.8226	1224.5141	1243.1859	1261.2235	1322.1213	1336.2751	1344.4179	1365.0155	1385.5312	1395.3807	1476.1197	1484.3105	1510.7239	1511.8048	1522.0978	2991.3159	3011.5706	3015.289	3019.9748	3063.1381	3063.9032	3067.9219	3095.6823	3119.3936	3126.4163
COC1OCC2COC12	CO[C@H]1OC[C@H]2CO[C@@H]12	
InChI=1S/C6H10O3/c1-7-6-5-4(2-8-5)3-9-6/h4-6H,2-3H2,1H3	InChI=1S/C6H10O3/c1-7-6-5-4(2-8-5)3-9-6/h4-6H,2-3H2,1H3/t4-,5-,6+/m1/s1
