21
gdb 6016	2.52563	1.70063	1.37297	3.9474	78.12	-0.3089	0.0436	0.3525	1042.4395	0.186539	-329.159039	-329.149098	-329.148154	-329.192994	36.795	
C	-0.0343202899	 1.5583717984	 0.0764753253	-0.416256
C	-0.0416715294	 0.025639884	-0.0208661576	 0.038073
C	-1.4744472046	-0.5103362195	 0.1151035193	-0.418646
C	 0.6957787236	-0.5085056561	-1.3013597091	 0.094637
C	 0.7693481738	-2.0541357155	-1.300100398	-0.417729
C	 0.0513655679	-0.022533821	-2.6200828151	-0.413678
C	 2.0828181429	-0.0089787441	-1.2579957441	 0.277098
N	 3.173617042	 0.3732276944	-1.2231283318	-0.356091
H	 0.9734142402	 1.9674565012	-0.0352130945	 0.142786
H	-0.6757494322	 2.0152738054	-0.6845217829	 0.117467
H	-0.4166485417	 1.8714418615	 1.052803095	 0.11763
H	 0.5373825186	-0.3602863291	 0.8283685382	 0.090728
H	-2.1169561132	-0.1661030967	-0.7019648698	 0.120544
H	-1.5157999504	-1.6019929623	 0.1441064048	 0.119117
H	-1.9139686085	-0.1427039343	 1.0474932301	 0.121807
H	-0.2241490819	-2.4834241618	-1.4497433694	 0.125286
H	 1.4141792399	-2.4069785899	-2.1091485526	 0.133614
H	 1.1729425699	-2.4290996846	-0.3553456593	 0.130717
H	 0.0378648923	 1.0671530966	-2.6875821771	 0.135676
H	 0.6105012757	-0.4048618053	-3.4782192502	 0.133106
H	-0.975375685	-0.3898845313	-2.6956175116	 0.124114
59.3596	154.5123	184.2619	204.7642	245.572	250.9944	259.9057	282.5364	313.1273	345.6089	389.653	411.7444	481.4225	571.0227	597.4697	671.8044	826.6113	911.262	929.4737	943.7121	946.1937	971.8272	1021.8776	1078.5498	1122.4702	1173.4907	1201.6138	1231.1579	1238.6268	1353.7773	1365.7343	1397.4925	1402.6129	1418.1891	1430.0976	1481.4498	1483.9775	1488.0607	1498.2453	1504.3515	1509.2047	1514.0298	1515.567	2347.522	3017.7336	3037.4049	3041.6519	3047.2819	3053.5909	3099.8072	3106.2866	3115.8841	3119.3096	3121.6271	3124.0882	3130.3688	3135.014
CC(C)C(C)(C)C#N	CC(C)C(C)(C)C#N	
InChI=1S/C7H13N/c1-6(2)7(3,4)5-8/h6H,1-4H3	InChI=1S/C7H13N/c1-6(2)7(3,4)5-8/h6H,1-4H3
