16
gdb 123453	5.4114	0.92646	0.81692	2.9421	71.05	-0.2528	-0.0091	0.2437	1343.7451	0.12477	-437.856334	-437.84863	-437.847686	-437.890109	27.805	
C	 0.0611721325	 1.4412080664	 0.4967172978	-0.358523
C	-0.0529329322	-0.0244830242	 0.1378322153	 0.09559
C	-1.3129708163	-0.6132293906	-0.3282441484	-0.181022
O	-0.2551154525	-0.3217725257	-1.2451605568	-0.231374
C	 1.3785434809	 2.0196440932	 0.0893925454	 0.425228
C	 2.1738597176	 1.8576544579	-1.0041328947	-0.319636
C	 3.2707822078	 2.7194152257	-0.742657993	 0.033833
N	 3.1529418526	 3.3456919589	 0.4023588565	-0.14327
O	 1.9456952386	 2.8985176839	 0.9363680959	-0.209288
H	-0.7533274402	 1.9922050941	 0.0109775458	 0.134515
H	-0.060697688	 1.5705872643	 1.5776250453	 0.135757
H	 0.6699546079	-0.6775383961	 0.6280458517	 0.106413
H	-1.5099561827	-1.6709405134	-0.1624119782	 0.122052
H	-2.1977735599	 0.0152107615	-0.4212476373	 0.119167
H	 1.9941267176	 1.2252251027	-1.8565841482	 0.138964
H	 4.1451358463	 2.9047251814	-1.350910917	 0.131593
34.8501	75.182	130.1443	276.8747	299.7372	356.401	453.0963	649.0249	658.4485	744.2345	794.272	830.3813	868.9589	916.8119	923.1102	936.685	949.2024	960.2065	1021.4888	1053.3181	1094.2267	1105.3309	1160.6282	1166.4302	1204.8101	1221.365	1264.7157	1295.9319	1329.6971	1388.5337	1445.441	1461.118	1510.5869	1531.3012	1630.8931	3035.116	3082.5055	3086.9811	3110.5901	3174.6325	3243.2209	3291.0877
C(C1CO1)C1=CC=NO1	C([C@H]1CO1)c1ccno1	
InChI=1S/C6H7NO2/c1-2-7-9-5(1)3-6-4-8-6/h1-2,6H,3-4H2	InChI=1S/C6H7NO2/c1-2-7-9-5(1)3-6-4-8-6/h1-2,6H,3-4H2/t6-/m0/s1
