20
gdb 83713	2.62643	1.63799	1.16751	3.6515	79.49	-0.2333	0.0374	0.2708	1099.2656	0.172981	-403.19267	-403.184451	-403.183507	-403.225606	31.329	
C	 0.0403629987	 1.2887806662	-0.3876181644	-0.350244
N	 0.0199563183	-0.1206588541	-0.0717078172	-0.058647
C	-1.2074146727	-0.8434156771	 0.1752037916	-0.003039
C	-2.0215217465	-1.2257039738	-1.0935993769	-0.230097
C	-1.2928938555	-2.5987867837	-1.1215603395	-0.229766
C	-0.7304206924	-2.3258351017	 0.3071935795	-0.013015
C	 0.784673991	-2.2784438974	 0.476024798	-0.359618
C	 1.1756701533	-0.851321251	 0.0757667941	 0.399725
O	 2.3007763389	-0.4219560059	-0.0752655966	-0.391068
H	 1.0835168439	 1.5806954351	-0.5213836531	 0.165044
H	-0.5150405385	 1.4997603105	-1.3091673817	 0.122818
H	-0.401902392	 1.882674214	 0.4227431561	 0.120304
H	-1.7739447603	-0.3897760844	 0.9975497823	 0.070559
H	-3.0887911251	-1.3180176009	-0.8754298569	 0.104685
H	-1.8987101044	-0.5761999938	-1.963552612	 0.104937
H	-1.927152861	-3.4811007709	-1.2281393016	 0.104764
H	-0.503453661	-2.6519751695	-1.8761601977	 0.109569
H	-1.2441202492	-2.8926601864	 1.0840304345	 0.077442
H	 1.1072759536	-2.4439359006	 1.5098012865	 0.126721
H	 1.3213770109	-2.9980120843	-0.148164645	 0.128924
101.4492	110.0977	155.5566	169.4684	290.3493	343.6898	380.0767	483.7916	579.2354	602.3694	660.7578	695.3185	750.6456	781.0201	876.3826	884.3984	932.5464	960.4949	963.755	1012.9921	1067.1804	1071.5433	1098.9543	1135.7261	1157.9386	1185.3906	1200.6863	1228.7244	1252.6519	1265.9953	1275.6549	1297.1702	1309.7631	1337.1397	1344.5753	1417.5098	1446.4288	1465.8972	1473.2673	1494.3782	1496.177	1518.674	1803.2435	3012.5824	3021.7649	3051.9297	3060.4775	3063.3243	3065.9952	3097.5112	3100.8236	3110.0292	3125.2706	3141.2969
CN1C2CCC2CC1=O	CN1[C@H]2CC[C@H]2CC1=O	
InChI=1S/C7H11NO/c1-8-6-3-2-5(6)4-7(8)9/h5-6H,2-4H2,1H3	InChI=1S/C7H11NO/c1-8-6-3-2-5(6)4-7(8)9/h5-6H,2-4H2,1H3/t5-,6-/m0/s1
