18
gdb 71108	2.518	2.03728	1.58079	3.6965	74.05	-0.2199	-0.0081	0.2118	914.4398	0.149916	-401.964924	-401.957776	-401.956831	-401.996137	29.129	
C	 0.0006997418	 1.4958918737	 0.0696663445	-0.485705
C	 0.0499954285	-0.0083772816	 0.0157806396	 0.137612
C	 0.6645583527	-0.7166891437	-1.2305015064	-0.268648
C	 0.471428375	-2.1501478412	-0.7346433102	-0.086842
C	 0.5288730276	-2.0669608321	 0.7663498234	-0.015204
N	 0.7038040053	-0.6716898382	 1.1779180303	-0.330239
C	-0.8294980344	-2.1717653595	 0.0963180222	-0.199826
C	-1.3116617771	-0.7580030292	 0.0632227972	 0.477007
O	-2.4202501038	-0.2976831903	 0.0437560844	-0.348808
H	 1.0019206683	 1.9321537631	-0.0125028512	 0.109386
H	-0.6102740953	 1.8838407736	-0.7499820897	 0.132033
H	-0.4458437981	 1.8266531737	 1.0106972473	 0.13961
H	 0.1115998568	-0.4957386212	-2.1489885191	 0.114478
H	 1.7193029153	-0.4581541167	-1.3809447137	 0.09603
H	 0.7815424746	-3.0235084826	-1.2926569258	 0.098959
H	 0.9095921411	-2.8489803642	 1.4089942267	 0.105417
H	 1.6973345449	-0.4422719168	 1.1875274493	 0.216312
H	-1.4760310333	-3.0329701968	 0.1747252712	 0.108428
140.311	178.8357	235.1599	313.6497	383.2296	468.449	499.1891	617.8933	626.166	662.1343	732.1515	785.3874	806.1719	826.3859	842.2065	882.4415	903.9609	942.0315	957.1461	1011.5426	1022.4171	1033.8352	1060.3909	1086.4813	1114.2466	1133.6465	1151.0598	1199.4952	1228.5463	1277.5684	1303.9135	1324.9084	1368.8613	1412.0155	1420.3462	1484.3184	1492.5221	1492.9463	1875.5952	3034.1078	3041.7826	3088.4269	3109.5537	3127.6114	3204.3454	3213.8336	3235.2105	3452.9869
CC12CC3C(N1)C3C2=O	C[C@@]12C[C@H]3[C@@H](N1)[C@H]3C2=O	
InChI=1S/C7H9NO/c1-7-2-3-4(6(7)9)5(3)8-7/h3-5,8H,2H2,1H3	InChI=1S/C7H9NO/c1-7-2-3-4(6(7)9)5(3)8-7/h3-5,8H,2H2,1H3/t3-,4+,5-,7+/m1/s1
