21
gdb 87257	4.5014	0.69002	0.6521	3.2623	80.95	-0.2488	-0.0198	0.229	1753.2156	0.178488	-424.229099	-424.218445	-424.217501	-424.265951	37.305	
C	 0.0461032202	 1.4001114133	-0.3409771648	-0.427227
C	-0.0045573212	-0.0179108311	 0.1669723544	 0.029161
O	 1.2195649611	-0.7677244924	 0.1711102549	-0.300628
C	 0.5773699749	-0.5097804168	 1.433204231	 0.390624
C	 1.3289420635	 0.4018442501	 2.3796961862	-0.46781
C	-0.0252697237	-1.7584396967	 2.0642169685	-0.275862
C	 1.0459346365	-2.7885840109	 2.4747699819	-0.269693
C	 0.4246743641	-4.1085602412	 2.8644984431	 0.155942
O	 0.5802816896	-4.6637669569	 3.9212654601	-0.23731
H	 0.8957124137	 1.9547265192	 0.0604504122	 0.128465
H	 0.1297736528	 1.4009987064	-1.4328910572	 0.133218
H	-0.8753202423	 1.9307253553	-0.0772381963	 0.123693
H	-0.854301765	-0.5878057852	-0.2178116197	 0.082477
H	 1.7876843789	 1.2389112716	 1.8527461694	 0.130877
H	 0.6556484558	 0.7983292818	 3.147415862	 0.123375
H	 2.128646033	-0.145202056	 2.8888367036	 0.132291
H	-0.6273446421	-1.477032455	 2.9366746716	 0.112295
H	-0.7053714739	-2.2246246211	 1.3422393809	 0.106106
H	 1.6921113798	-2.96440622	 1.6033603973	 0.138944
H	 1.6649240992	-2.4402148021	 3.3051924229	 0.121051
H	-0.2241921449	-4.5565403322	 2.073950818	 0.07001
47.6488	60.7971	84.594	132.0537	139.0629	163.5386	254.9232	273.4528	287.301	359.3556	410.8805	479.1405	520.7008	558.6728	716.3195	768.5342	789.1392	849.7281	895.2247	955.6827	985.5671	999.0699	1033.8366	1061.3891	1104.887	1119.2223	1137.1223	1177.0931	1199.9962	1255.2561	1262.63	1310.7689	1355.8867	1385.3872	1410.8752	1419.6914	1430.4447	1460.048	1463.2358	1475.6257	1485.5975	1486.8766	1500.7743	1520.0511	1836.2447	2845.6686	3022.1542	3031.8914	3039.8123	3044.1912	3069.514	3073.3944	3099.6587	3102.0172	3110.6474	3135.8134	3148.0752
CC1OC1(C)CCC=O	C[C@H]1O[C@]1(C)CCC=O	
InChI=1S/C7H12O2/c1-6-7(2,9-6)4-3-5-8/h5-6H,3-4H2,1-2H3	InChI=1S/C7H12O2/c1-6-7(2,9-6)4-3-5-8/h5-6H,3-4H2,1-2H3/t6-,7-/m1/s1
