17
gdb 13692	6.15125	0.88223	0.82637	3.3116	67.95	-0.254	0.0273	0.2813	1363.4885	0.140902	-400.968902	-400.960057	-400.959113	-401.004085	30.559	
O	-0.0397358647	 1.448119157	 0.2301956036	-0.41818
C	-0.0098748852	 0.0539533787	 0.1065313466	 0.090451
C	-0.629944324	-0.8048615531	 1.1760319776	-0.313557
C	-1.3191672725	-0.6339085686	-0.1642838514	-0.034973
C	-2.5826913964	 0.1735788605	-0.2455030285	-0.091618
O	-3.6656605207	-0.6443438184	 0.2217809345	-0.184744
C	-4.9025482739	-0.1584099301	 0.0224884247	 0.131954
N	-5.9093900472	-0.7815985322	 0.4628983829	-0.441871
H	 0.5674289905	 1.6961109778	 0.9349708877	 0.291781
H	 0.8656889178	-0.3344594451	-0.4130255505	 0.092689
H	-0.180210963	-1.7619590106	 1.4143638982	 0.118754
H	-1.0788104481	-0.2889054514	 2.018437239	 0.123132
H	-1.2863031281	-1.4823109615	-0.8406572381	 0.100191
H	-2.4980476713	 1.0758942075	 0.3687330841	 0.120822
H	-2.7767640427	 0.4837446726	-1.2812255585	 0.108289
H	-4.920394235	 0.7852173576	-0.5421338546	 0.081052
H	-6.7599598254	-0.2818328007	 0.2120240626	 0.225828
27.9928	54.7892	108.985	137.5772	232.2916	284.5074	299.781	394.2605	479.7625	522.2802	660.8087	776.2897	821.9841	837.7999	905.3496	923.6469	985.6918	1016.1313	1045.8337	1053.8595	1075.8715	1131.3399	1134.4775	1177.8108	1183.4456	1240.2939	1271.5738	1299.6798	1307.8705	1365.4613	1416.6253	1426.5394	1442.1782	1490.7962	1515.8376	1747.7392	3004.7155	3019.2145	3077.1632	3102.5735	3136.1616	3161.0923	3225.6828	3515.5721	3809.3969
OC1CC1COC=N	O[C@H]1C[C@H]1CO[CH][NH]	
InChI=1S/C5H9NO2/c6-3-8-2-4-1-5(4)7/h3-7H,1-2H2	InChI=1S/C5H9NO2/c6-3-8-2-4-1-5(4)7/h3-7H,1-2H2/t4-,5-/m0/s1
