15
gdb 129813	3.30434	1.40907	0.9892	3.1266	75.95	-0.209	-0.0212	0.1878	1122.5499	0.113899	-450.12087	-450.112771	-450.111827	-450.153077	31.586	
N	 0.0216909037	 1.3807084387	 0.1808112834	-0.563722
C	-0.0474742283	 0.0134246688	 0.0795790397	 0.473004
C	-1.1917794538	-0.7253760272	 0.0670145995	-0.348895
C	-1.1032638041	-2.1484008825	 0.0208377772	 0.283506
N	-2.0300840454	-3.0445646596	-0.0345957272	-0.577968
C	 0.3005803406	-2.6498147506	 0.0306404909	 0.404344
N	 0.4319017766	-3.9978916005	 0.068985252	-0.547827
N	 1.3740706331	-1.9180301551	 0.0166361938	-0.221416
O	 1.1780453206	-0.5172938589	 0.0351313275	-0.273004
H	 0.8969647157	 1.7832276154	-0.1203808194	 0.268583
H	-0.7950942089	 1.8872416993	-0.121837765	 0.265805
H	-2.1548297277	-0.2300733443	 0.0947320844	 0.089737
H	-2.9550830374	-2.6134560567	-0.0449118226	 0.208239
H	-0.4209788996	-4.5039874293	-0.1235433951	 0.278635
H	 1.325977895	-4.4071526974	-0.140751119	 0.260979
107.9623	169.469	277.1835	311.0007	330.9312	358.8194	362.7464	462.3154	470.1806	509.5796	527.6712	553.7151	590.9006	688.1111	720.8622	756.7111	803.9136	816.5149	864.807	911.9848	1021.2114	1106.4396	1136.5762	1171.7598	1283.652	1330.4418	1431.2904	1491.2479	1586.2028	1620.8191	1639.9678	1669.5745	1686.0876	3197.7849	3463.8552	3566.3183	3582.8885	3695.9124	3718.2685
NC1=CC(=N)C(N)=NO1	N[C]1C=C([NH])C(=NO1)N	
InChI=1S/C4H6N4O/c5-2-1-3(6)9-8-4(2)7/h1,5H,6H2,(H2,7,8)	InChI=1S/C4H6N4O/c5-2-1-3(6)9-8-4(2)7/h1,5H,6H2,(H2,7,8)
