18
gdb 41937	3.39153	1.51628	1.10453	0.7967	71.69	-0.2451	0.0165	0.2616	1067.1147	0.151194	-439.091437	-439.084253	-439.083309	-439.123349	27.718	
C	-0.0152084077	 1.4306574341	 0.0472146248	-0.077723
C	 1.454953905	 1.9333402433	-0.0022827366	-0.296472
C	 2.2052719953	 0.6730404504	 0.4330057498	 0.066668
N	 3.6083474966	 0.5028539413	 0.0930738348	-0.295888
C	 3.9503536908	-0.7148283872	-0.0135516439	 0.13618
O	 3.2115167698	-1.8473793012	 0.1234331884	-0.242279
C	 1.7775682819	-1.743128838	 0.3163507521	-0.111383
C	 1.3377252335	-0.396367139	-0.2152314807	 0.115424
O	 0.0164371155	-0.0171032097	 0.0871685239	-0.287026
H	-0.5412675487	 1.7699254116	 0.9452905405	 0.111876
H	-0.5885290904	 1.7578932033	-0.828005061	 0.107076
H	 1.7486684957	 2.2127233975	-1.0184529563	 0.116361
H	 1.6237003793	 2.7931160144	 0.6491253564	 0.111944
H	 2.0944569926	 0.5741060177	 1.5233008235	 0.091449
H	 4.9772638131	-0.9886058905	-0.2465288254	 0.128122
H	 1.3416094037	-2.5912158034	-0.216950976	 0.125598
H	 1.5503952779	-1.8390973991	 1.383635628	 0.123598
H	 1.5146548263	-0.3805490659	-1.3057498923	 0.076475
95.0287	141.7122	199.8115	321.2685	361.8726	446.3809	506.9869	551.9563	590.9705	679.3777	809.7841	844.5109	878.8722	913.3567	934.045	967.7059	976.4979	992.6988	1064.7105	1106.7301	1132.216	1146.4042	1165.2898	1187.7469	1195.3867	1219.6861	1243.9106	1285.5885	1295.8695	1347.7997	1371.1416	1377.1215	1396.2669	1403.4396	1429.377	1500.0613	1518.3196	1525.3929	1694.1039	2941.4899	2991.309	3030.9175	3049.7784	3063.9529	3073.7652	3107.6262	3120.1435	3168.148
C1CC2N=COCC2O1	C1C[C@@H]2[N][CH]OC[C@H]2O1	
InChI=1S/C6H9NO2/c1-2-9-6-3-8-4-7-5(1)6/h4-6H,1-3H2	InChI=1S/C6H9NO2/c1-2-9-6-3-8-4-7-5(1)6/h4-6H,1-3H2/t5-,6+/m0/s1
