16
gdb 94523	3.12193	1.21524	0.98938	3.5532	72.45	-0.2333	-0.0709	0.1623	1183.451	0.123026	-437.825134	-437.816387	-437.815442	-437.859283	31.925	
O	 0.5816509521	 1.4497495774	 0.5301595133	-0.430956
C	 0.2495257512	 0.103793515	 0.4335138864	 0.141193
C	-0.5173081146	-0.6340760096	 1.5668671471	-0.217403
N	-1.3930387832	-1.3096231388	 0.5552203221	-0.32234
C	-0.892003395	-0.3851293472	-0.5134923125	-0.1786
C	-2.0121698607	 0.6159725226	-0.773194009	 0.280942
O	-2.0617696834	 1.714589685	-0.2498031595	-0.322924
C	-3.0665287864	 0.1452715371	-1.6473533487	 0.266684
C	-3.9084113319	-0.2610382287	-2.4056264716	-0.379906
H	-0.253275429	 1.9408052584	 0.5134529095	 0.298926
H	 1.1710650217	-0.4360301108	 0.1924151742	 0.092192
H	 0.0596397731	-1.3063993558	 2.2078093663	 0.108028
H	-1.103601071	 0.0423250445	 2.1977581527	 0.120533
H	-1.0902924326	-2.2600846181	 0.3738753716	 0.231211
H	-0.6029523873	-0.8643166589	-1.4542263842	 0.093552
H	-4.6662684531	-0.6056006921	-3.0669292076	 0.218869
41.9615	105.3757	131.2395	207.3386	240.9681	269.5507	342.2783	423.581	523.3811	589.7649	620.8367	649.0375	666.4924	708.1735	735.2694	759.7826	843.374	871.2928	973.9917	984.6713	998.7402	1071.736	1094.7957	1139.6086	1179.0142	1241.0783	1262.3841	1298.3569	1325.1756	1358.3529	1404.807	1473.7764	1502.8017	1744.1887	2212.8026	3043.8392	3051.3578	3063.7928	3100.5471	3494.229	3537.9151	3714.5699
OC1CNC1C(=O)C#C	O[C@H]1CN[C@H]1C(=O)C#C	
InChI=1S/C6H7NO2/c1-2-4(8)6-5(9)3-7-6/h1,5-7,9H,3H2	InChI=1S/C6H7NO2/c1-2-4(8)6-5(9)3-7-6/h1,5-7,9H,3H2/t5-,6-/m0/s1
