16
gdb 66783	3.41538	2.05238	1.76669	2.6176	68.42	-0.2224	0.0577	0.2801	801.5231	0.126421	-400.661331	-400.65552	-400.654576	-400.691035	25.521	
O	-0.0489292934	 1.3060257578	-0.0760276224	-0.480478
C	 0.0427703961	-0.0744852323	-0.0216741031	 0.408041
C	 1.0776289231	-0.8505649291	-0.816392699	-0.170748
C	-0.4032608771	-0.8772960867	-1.214572747	-0.115207
C	-0.5525070397	-2.2639205927	-0.5707053396	-0.020371
C	 0.9537785544	-2.2553312615	-0.1786896266	-0.091226
C	 0.4692634209	-2.1139484439	 1.2869953906	-0.052616
C	-0.3083288716	-0.857576307	 1.2430109409	-0.147618
N	-0.9870719669	-2.135254134	 0.8923137449	-0.155397
H	 0.7244460197	 1.6783470977	 0.3614070648	 0.287984
H	 1.9200508896	-0.3934407995	-1.3221229005	 0.089843
H	-0.9112923148	-0.4451241464	-2.0672382762	 0.098893
H	-1.0321168256	-3.0812456695	-1.1030445658	 0.082105
H	 1.6388637878	-3.0491286196	-0.463616466	 0.078319
H	 0.8371042784	-2.6188217997	 2.173866912	 0.092503
H	-0.6767343808	-0.3461045936	 2.1238941729	 0.095974
270.4009	317.0602	350.4279	553.3774	571.9897	582.2611	687.6531	721.5448	767.3627	782.181	796.1747	810.1538	856.6156	884.7649	893.2702	904.2873	914.5736	950.441	959.0022	992.5386	1012.2665	1047.3142	1056.589	1117.6213	1158.8048	1166.6646	1185.8098	1210.9232	1225.9802	1234.8926	1282.3674	1304.9628	1307.0763	1341.9298	1436.0547	3146.91	3153.9687	3166.1555	3179.6939	3193.5707	3199.4687	3797.0943
OC12C3C1C1C3C3C2N13	O[C@]12[C@@H]3[C@H]1[C@H]1[C@@H]3[C@H]3[C@@H]2N13	
InChI=1S/C7H7NO/c9-7-2-1-4(3(2)7)8-5(1)6(7)8/h1-6,9H	InChI=1S/C7H7NO/c9-7-2-1-4(3(2)7)8-5(1)6(7)8/h1-6,9H/t1-,2+,3+,4-,5+,6+,7-,8?/m1/s1
