16
gdb 14495	3.67018	2.07908	1.58066	4.2104	69.44	-0.2508	0.0093	0.2602	824.9967	0.131391	-342.712921	-342.705881	-342.704937	-342.743921	27.06	
C	-0.1520567339	 1.5568483639	 0.0553272893	-0.480768
C	 0.0100340469	 0.0389955231	-0.0229116919	 0.216309
C	-1.2890883818	-0.5583381601	 0.311273639	 0.246365
N	-2.3400907409	-0.9731652328	 0.5563725851	-0.345074
C	 0.8342722174	-0.6700198859	-1.1470832458	-0.090703
C	 2.0752862747	-0.1189946239	-0.4171628823	-0.186087
N	 1.2028872281	-0.6036572875	 0.7618950216	-0.16523
C	 0.9633294638	-1.8345783687	-0.1427677711	-0.1885
H	 0.7266015791	 2.0996084909	-0.2911236305	 0.131052
H	-1.0045877114	 1.8663381022	-0.5555637282	 0.146097
H	-0.3552356531	 1.8500156885	 1.0892386737	 0.154377
H	 0.6085209076	-0.696736552	-2.2179343541	 0.083627
H	 2.9990634852	-0.692514522	-0.5117951504	 0.114606
H	 2.2866473938	 0.9485024054	-0.4230944998	 0.111562
H	 0.0743076295	-2.4105701581	 0.1162670381	 0.14166
H	 1.8440646751	-2.4735542231	-0.2244930327	 0.110707
145.2071	159.2861	184.9691	288.0959	370.3305	504.1235	527.4992	550.9237	626.8071	661.78	754.1726	787.4686	823.9503	903.0935	909.2115	930.5055	1014.1066	1055.1689	1065.3736	1093.8144	1109.0338	1160.0069	1194.5973	1199.1484	1218.4401	1231.8194	1243.3845	1274.7871	1412.628	1483.6463	1488.816	1526.7592	1562.7343	2347.3388	3053.7979	3057.0419	3080.1572	3091.5354	3122.3893	3146.4646	3149.6569	3163.9811
CC1(C#N)C2CN1C2	C[C@@]1(C#N)[C@H]2CN1C2	
InChI=1S/C6H8N2/c1-6(4-7)5-2-8(6)3-5/h5H,2-3H2,1H3	InChI=1S/C6H8N2/c1-6(4-7)5-2-8(6)3-5/h5H,2-3H2,1H3/t6-/m1/s1
