19
gdb 40889	3.4058	1.43671	1.29258	1.674	73.62	-0.2487	0.0667	0.3154	1033.2336	0.161067	-422.977834	-422.970568	-422.969623	-423.009784	28.619	
C	 0.0899014474	 1.5960398662	-0.0696516158	-0.17261
O	 1.4485046444	 1.5456921523	 0.4099803262	-0.277213
C	 1.4412079148	 0.100448838	 0.4488447676	-0.15473
C	-0.0070480265	 0.0652008436	-0.0599686265	 0.35808
C	-1.0642835584	-0.8174336152	 0.6288035589	 0.000173
C	-2.388117535	-0.4197420061	-0.054799767	-0.227279
C	-1.8688418581	-0.4619379087	-1.5298454066	-0.22728
C	-0.4159406497	-0.8701193266	-1.2128722563	 0.00018
O	-0.5999405729	-1.9233379664	-0.2118049156	-0.308677
H	-0.5760917193	 2.1225638633	 0.6275631517	 0.101522
H	 0.0164325995	 2.0744087684	-1.0558795855	 0.101525
H	 2.1950891999	-0.3330594961	-0.2201098651	 0.105304
H	 1.602423888	-0.2847911002	 1.4634231737	 0.1053
H	-1.0543647957	-1.0321012165	 1.697955881	 0.082176
H	-3.172159283	-1.153632792	 0.1404938778	 0.11289
H	-2.748303229	 0.5657831258	 0.2534441649	 0.102787
H	-2.3709916604	-1.218736278	-2.135286194	 0.11289
H	-1.939048212	 0.5000228155	-2.0453164688	 0.102787
H	 0.2572259861	-1.1386819273	-2.0277268807	 0.082177
78.2796	165.8045	204.5429	275.6133	362.7729	395.361	530.3208	582.2597	718.4178	809.8983	832.6274	857.7971	872.9895	881.7313	921.0723	940.7153	944.7556	972.9697	982.2939	1011.8785	1032.497	1033.863	1070.6988	1143.5801	1154.7755	1165.1809	1192.4241	1211.5065	1214.5669	1238.4657	1241.1236	1253.2587	1301.0421	1304.9503	1320.4253	1356.0453	1397.6169	1480.1798	1499.0739	1505.8555	1531.3304	2994.4785	3014.4373	3034.8029	3054.4671	3062.7317	3071.2196	3111.1057	3117.523	3120.8456	3128.0279
C1OCC11C2CCC1O2	C1OCC21[C@H]1CC[C@@H]2O1	
InChI=1S/C7H10O2/c1-2-6-7(3-8-4-7)5(1)9-6/h5-6H,1-4H2	InChI=1S/C7H10O2/c1-2-6-7(3-8-4-7)5(1)9-6/h5-6H,1-4H2/t5-,6+
