20
gdb 89122	5.02682	0.60533	0.5721	3.1969	78.27	-0.2358	0.0067	0.2425	1908.2479	0.169261	-440.269387	-440.259522	-440.258578	-440.30572	34.522	
C	-0.1895992067	 1.4182191677	-0.0525443797	-0.318788
N	 0.0678076599	-0.0056302716	 0.1013667395	-0.074677
C	 1.4419682693	-0.4639307628	-0.0521771672	-0.261377
C	 0.7739965533	-0.5156645701	 1.2804005207	 0.016329
C	 1.250259401	 0.348995255	 2.4307961039	-0.230088
C	 0.1374695028	 0.6237729272	 3.4408909328	-0.084607
O	 0.6306439269	 1.4296870493	 4.5183622351	-0.174553
C	 0.7654760336	 0.8603019633	 5.7300931841	 0.170216
O	 1.1974510702	 1.4452748612	 6.6766295471	-0.272825
H	 0.6226898052	 2.078136816	 0.2901618955	 0.104196
H	-0.3566720312	 1.6249951171	-1.1143289839	 0.130482
H	-1.1042361858	 1.6855403691	 0.4871463892	 0.12352
H	 1.5886998386	-1.3658269273	-0.6409398541	 0.117775
H	 2.2182111072	 0.2912503864	-0.1793109623	 0.107674
H	 0.3833600282	-1.4816603895	 1.6031082397	 0.090618
H	 2.0702422582	-0.1692017924	 2.9438061071	 0.114653
H	 1.6586026106	 1.3003245319	 2.0796878461	 0.120957
H	-0.6832261761	 1.1828116153	 2.9827757174	 0.132138
H	-0.2738177058	-0.3164451664	 3.8322687887	 0.112668
H	 0.4277766807	-0.1954602591	 5.7469447902	 0.075688
37.7579	63.107	89.9856	128.0745	176.6402	226.0977	282.3969	327.0265	353.3405	379.5701	453.9882	521.6594	671.9368	740.9988	783.4378	820.548	922.9035	1020.1335	1033.733	1043.6637	1047.1899	1061.8074	1098.3146	1117.8836	1134.9752	1142.5255	1168.6992	1204.7805	1210.0235	1271.1692	1302.8622	1331.2971	1345.4628	1405.6293	1426.9759	1435.9958	1453.6419	1483.5261	1490.7006	1506.9477	1510.6125	1518.9144	1868.1397	2937.4166	2979.1847	3020.6666	3036.9994	3065.6975	3082.2847	3085.5224	3092.2374	3100.1978	3110.3983	3171.2224
CN1CC1CCOC=O	CN1C[C@H]1CCOC=O	
InChI=1S/C6H11NO2/c1-7-4-6(7)2-3-9-5-8/h5-6H,2-4H2,1H3	InChI=1S/C6H11NO2/c1-7-4-6(7)2-3-9-5-8/h5-6H,2-4H2,1H3/t6-,7?/m1/s1
