12
gdb 21675	5.74864	1.6796	1.30376	5.1377	62.41	-0.2364	-0.0891	0.1473	856.7624	0.084654	-410.808936	-410.802226	-410.801282	-410.840368	24.859	
N	-0.0101047644	 1.3388190373	 0.0972291694	-0.562768
C	-0.0136514113	-0.0410941945	 0.0462068891	 0.376602
N	-1.1372846686	-0.6736980381	 0.083638893	-0.162458
O	-1.0434547985	-2.0715513367	 0.1435956195	-0.270991
C	 0.1595844016	-2.747359912	-0.0060087165	 0.457129
N	 0.1768137923	-4.0079212724	-0.1194750466	-0.502934
N	 1.3520376629	-2.0200924412	 0.0020731447	-0.228191
C	 1.2654180973	-0.7471337737	 0.0329286468	-0.011414
H	 0.7048827351	 1.7934389661	-0.4526188135	 0.264719
H	-0.9241011988	 1.7550927751	-0.0229245089	 0.270716
H	-0.7764968234	-4.3731001968	-0.1211097866	 0.23402
H	 2.1866554957	-0.1626454129	 0.0566561896	 0.13557
38.8406	279.6622	295.4583	334.7951	379.7836	469.5803	511.8299	547.3205	631.3096	661.9304	767.9344	782.6282	836.4422	873.3341	931.1395	971.0948	1001.3605	1043.65	1166.5636	1277.5482	1358.7891	1464.5868	1619.5184	1647.2728	1717.5985	1722.3588	3118.9084	3492.0655	3555.0283	3660.674
NC1=NOC(=N)N=C1	NC1=NOC(=N[CH]1)[NH]	
InChI=1S/C3H4N4O/c4-2-1-6-3(5)8-7-2/h1,5H,(H2,4,7)	InChI=1S/C3H4N4O/c4-2-1-6-3(5)8-7-2/h1,5H,(H2,4,7)
