17
gdb 53639	3.87271	0.59807	0.52302	1.1821	78.88	-0.2453	-0.0976	0.1477	2028.6015	0.131434	-421.825244	-421.814592	-421.813648	-421.864248	34.747	
C	-0.1716742549	 1.4170130038	 0.3147502047	-0.497836
C	-0.0831303112	-0.0173371277	 0.0801456413	 0.129059
C	 0.0025307801	-1.2018737932	-0.1173518941	 0.007355
C	 0.0748968162	-2.6398481522	-0.3475631152	-0.36789
C	-1.2564601842	-3.3457230492	-0.0474015019	-0.293963
C	-1.1972158913	-4.834205105	-0.280961152	 0.282476
O	-0.2214891803	-5.438711849	-0.6634918285	-0.275836
C	-2.4786005799	-5.6379593026	-0.0100686597	 0.095202
O	-3.5060891383	-5.1444122212	 0.3719580591	-0.216455
H	 0.5539239472	 1.743269495	 1.0680580036	 0.148129
H	 0.0255690724	 1.9838668815	-0.6018626285	 0.148097
H	-1.1680002818	 1.7014510734	 0.6709728093	 0.147782
H	 0.3643450074	-2.8466766061	-1.3846815409	 0.14115
H	 0.8641588295	-3.0862463869	 0.2688518017	 0.141149
H	-1.5756362391	-3.1732297483	 0.9881252049	 0.151227
H	-2.0723977505	-2.9351249166	-0.6553469019	 0.151232
H	-2.3514025713	-6.7238180157	-0.2058015119	 0.109121
15.6071	42.7736	66.2704	68.8488	132.8429	171.7228	212.2625	239.3925	303.034	387.4741	460.6676	486.8816	508.2185	629.1421	739.7888	755.479	854.5406	934.2301	1040.8057	1048.6778	1054.9157	1063.0782	1151.1622	1172.4156	1172.8347	1294.7589	1311.475	1363.6975	1390.8774	1415.5667	1435.7225	1472.756	1478.7161	1479.2233	1801.1489	1825.6365	2376.3396	2923.3087	3026.2903	3033.0302	3044.4096	3056.363	3076.7368	3086.7067	3086.8999
CC#CCCC(=O)C=O	CC#CCCC(=O)C=O	
InChI=1S/C7H8O2/c1-2-3-4-5-7(9)6-8/h6H,4-5H2,1H3	InChI=1S/C7H8O2/c1-2-3-4-5-7(9)6-8/h6H,4-5H2,1H3
