17
gdb 26238	3.4399	1.05586	0.96433	2.3345	71.83	-0.208	0.0216	0.2296	1270.0482	0.136143	-455.180456	-455.171495	-455.170551	-455.214404	33.02	
C	-0.108637505	 1.5738052701	 0.3176785513	-0.400616
C	-0.0600935775	 0.0676867934	 0.0311387937	-0.002723
O	 0.732656858	-0.6135729181	 1.0073562154	-0.425624
C	-1.4155082037	-0.5355645228	-0.1059311292	 0.336337
C	-2.088933785	-1.223817142	-1.0511925272	-0.210378
N	-3.3628556227	-1.5631765032	-0.595431152	-0.337761
C	-3.3969916394	-1.0635249905	 0.6003232577	 0.451234
N	-4.4494428366	-1.050165881	 1.4807784201	-0.587377
O	-2.2722304291	-0.4215742169	 0.9898403921	-0.234548
H	 0.9077873709	 1.9607189957	 0.4262628246	 0.124096
H	-0.6107464541	 2.1104055717	-0.4930121457	 0.122882
H	-0.6591649252	 1.7717019689	 1.2434056005	 0.119306
H	 0.4579496298	-0.1034104428	-0.9184257267	 0.106221
H	 0.2690260836	-0.5456150837	 1.849372607	 0.281324
H	-1.7498135699	-1.5082421411	-2.03503384	 0.121969
H	-5.1488135351	-1.7443344267	 1.262250754	 0.27251
H	-4.188499409	-1.034272421	 2.4557326044	 0.26315
54.0524	115.3548	155.7382	252.0748	260.0126	281.959	299.829	346.816	421.077	440.8606	515.8891	600.5448	651.2041	695.0634	744.8652	775.937	864.6591	896.9131	972.3996	986.1173	1014.0789	1075.8628	1086.2207	1093.9576	1196.9286	1237.7149	1248.1744	1291.2622	1343.2824	1398.8665	1409.6388	1441.5322	1489.8668	1494.6287	1602.3701	1658.2013	1681.3964	3038.3636	3063.8191	3111.8151	3125.306	3259.9785	3575.9295	3684.0889	3805.2529
CC(O)C1=CN=C(N)O1	C[C@@H](O)c1cnc(N)o1	
InChI=1S/C5H8N2O2/c1-3(8)4-2-7-5(6)9-4/h2-3,8H,1H3,(H2,6,7)	InChI=1S/C5H8N2O2/c1-3(8)4-2-7-5(6)9-4/h2-3,8H,1H3,(H2,6,7)/t3-/m1/s1
