17
gdb 28047	4.79734	0.80614	0.7525	2.964	77.33	-0.219	-0.0204	0.1985	1507.9226	0.134393	-421.872394	-421.863435	-421.862491	-421.907792	31.367	
C	 0.0141516986	 1.5064774103	-0.0329028656	-0.488437
C	-0.0891518554	 0.0245586504	 0.0104841041	 0.382973
C	-1.1202329856	-0.8498921155	-0.1415226122	-0.384442
C	-0.5778706718	-2.1727578288	 0.0236116148	 0.233858
C	-1.3030040973	-3.4817529019	-0.0878383337	-0.394868
C	-1.4793047317	-3.9066540718	-1.540022094	 0.16757
O	-1.2485478124	-5.0094543762	-1.9599620001	-0.235041
C	 0.7493605059	-1.9895028217	 0.2579355196	-0.10957
O	 1.0612860038	-0.6655196248	 0.2573844409	-0.175717
H	 0.7042922183	 1.8377701543	-0.8170015065	 0.141531
H	-0.9671731065	 1.9410978542	-0.2346907497	 0.136819
H	 0.3803901016	 1.9112976298	 0.917254617	 0.14106
H	-2.1499718107	-0.5903452309	-0.3363213467	 0.107305
H	-0.7861901139	-4.287259511	 0.4399866105	 0.129055
H	-2.3088126196	-3.3903823076	 0.3464686292	 0.129649
H	-1.8458744549	-3.0959852999	-2.2105058211	 0.079088
H	 1.5660832216	-2.6671274388	 0.4461153536	 0.139168
32.3033	55.5243	112.2529	133.6714	221.3077	257.7448	371.8956	390.6708	443.6338	611.5111	637.8235	670.4856	719.9537	749.2686	807.8585	811.0703	943.6669	987.9507	1012.7409	1029.8674	1052.8768	1064.6871	1162.1818	1174.8992	1187.4745	1252.1567	1276.6857	1313.1354	1405.6593	1417.3245	1424.6441	1455.3206	1472.9689	1489.5187	1585.6535	1656.0878	1836.2222	2872.9339	3015.9844	3032.7036	3083.6728	3104.8087	3131.4339	3246.7606	3274.6086
CC1=CC(CC=O)=CO1	Cc1cc(CC=O)co1	
InChI=1S/C7H8O2/c1-6-4-7(2-3-8)5-9-6/h3-5H,2H2,1H3	InChI=1S/C7H8O2/c1-6-4-7(2-3-8)5-9-6/h3-5H,2H2,1H3
