16
gdb 11729	5.38504	1.3295	1.21541	3.3004	65.7	-0.2427	-0.0262	0.2164	1010.2301	0.128671	-383.722332	-383.71461	-383.713665	-383.754662	28.409	
C	 0.1737899415	 1.5000996323	 0.1806328448	-0.382335
C	-0.1056107966	 0.0064267312	-0.0392552209	-0.300744
C	 0.486261467	-0.5028514433	-1.3163194785	 0.432247
C	 0.0730307138	-0.1864558628	-2.7699914878	-0.418072
C	 0.5470005501	-1.6322402843	-3.1133910265	 0.433337
O	 0.4324176387	-2.3325957832	-4.0735749323	-0.296922
C	 0.9945014508	-1.8590604749	-1.6743436095	-0.188289
O	 1.8885795401	-0.7597900805	-1.3815333747	-0.276644
H	 1.2501097219	 1.6911111253	 0.2188854536	 0.13745
H	-0.2484759468	 2.1063007135	-0.6273666119	 0.123836
H	-0.2672901298	 1.8409496189	 1.1213462838	 0.120967
H	 0.3067880578	-0.5787160323	 0.7896509688	 0.118048
H	-1.1872320666	-0.1747178007	-0.0561635377	 0.111102
H	-1.0041613428	-0.091414521	-2.9388601181	 0.131596
H	 0.6028485485	 0.6432634696	-3.2413713007	 0.135292
H	 1.1094431624	-2.7674079977	-1.0941005425	 0.119131
76.7147	100.1046	187.8512	219.803	328.1825	401.5065	429.7435	473.6901	576.5801	632.5745	686.5518	760.127	792.6023	856.5205	947.5765	960.8627	976.0174	1004.1694	1047.3974	1060.1541	1084.5604	1140.3301	1187.4454	1214.6823	1227.7284	1317.5456	1344.2784	1409.9749	1424.5255	1455.5567	1471.2195	1499.1762	1508.5969	1900.3128	3034.5111	3041.653	3065.3091	3077.2111	3112.672	3121.0683	3130.4363	3192.3852
CCC12CC(=O)C1O2	CC[C@]12CC(=O)[C@H]1O2	
InChI=1S/C6H8O2/c1-2-6-3-4(7)5(6)8-6/h5H,2-3H2,1H3	InChI=1S/C6H8O2/c1-2-6-3-4(7)5(6)8-6/h5H,2-3H2,1H3/t5-,6+/m1/s1
