16
gdb 34980	4.3108	1.38194	1.32099	5.1004	72.4	-0.2644	0.0238	0.2882	973.4367	0.126839	-400.717318	-400.710898	-400.709954	-400.748181	25.931	
N	-0.1694062985	-1.2186643395	-0.104962835	-0.329192
C	-0.0957031742	-0.0667918873	-0.0422960648	 0.278704
C	-0.0005470459	 1.382325882	 0.0180258646	-0.167645
C	-0.0612219991	 2.0919786651	 1.4083111528	 0.062315
O	 0.952469319	 1.4134320471	 2.1438293678	-0.252849
C	 2.0755918355	 1.8435133318	 1.3537881788	 0.078056
C	 2.0738922614	 3.3687999432	 1.598616759	-0.245028
C	 0.7724303046	 3.2922504101	 0.7875374657	-0.075655
C	 1.3651932239	 2.0956270745	-0.0431853709	-0.079029
H	-0.6916616421	 1.8416583884	-0.694115969	 0.125282
H	-0.9802404302	 2.1931845928	 1.9809365226	 0.099967
H	 2.932163694	 1.1904301298	 1.5015355599	 0.09926
H	 2.0537200309	 3.6999687498	 2.6389950851	 0.113166
H	 2.8525653758	 3.8896023258	 1.0353598659	 0.110841
H	 0.2436487877	 4.1377966542	 0.3531600755	 0.086614
H	 1.9622246572	 2.1971542823	-0.9458871181	 0.095192
125.4492	151.1986	379.7403	397.3381	474.7488	520.2321	603.7078	702.0804	760.1635	775.6763	821.374	837.0471	872.8203	917.2981	931.5191	956.4766	966.6869	994.1692	1020.2147	1052.2642	1059.9203	1064.9408	1100.0629	1142.6682	1174.2062	1192.3575	1208.5917	1240.6209	1251.7519	1268.2013	1280.827	1341.0738	1358.3505	1481.1287	2357.2493	3066.3676	3083.8007	3130.0645	3143.4244	3153.3644	3154.7482	3162.0416
N#CC1C2OC3CC2C13	N#C[C@H]1[C@H]2O[C@@H]3C[C@H]2[C@H]13	
InChI=1S/C7H7NO/c8-2-4-6-3-1-5(6)9-7(3)4/h3-7H,1H2	InChI=1S/C7H7NO/c8-2-4-6-3-1-5(6)9-7(3)4/h3-7H,1H2/t3-,4+,5+,6+,7-/m0/s1
