16
gdb 51227	4.30589	1.22116	1.1402	2.2986	68.67	-0.2323	0.0169	0.2492	1067.9691	0.124561	-437.832641	-437.825282	-437.824338	-437.86515	28.073	
O	 0.2459278745	 1.3781163577	 1.4652010496	-0.311205
C	 0.091385039	 1.5446017122	 0.2771480542	 0.133837
N	 1.0473611472	 1.3250030165	-0.6775630926	-0.422066
C	 2.3259626269	 0.8036370997	-0.3780530753	 0.360799
C	 2.7195597659	-0.5983120184	 0.0978751941	-0.286797
C	 4.1042422007	 0.0442872731	 0.3612613723	 0.067965
O	 4.6004366685	 0.359231646	-0.9785075231	-0.29586
C	 3.6145095695	 1.3816588736	-1.0066639445	 0.028953
C	 3.4198187116	 1.4573584374	 0.4660565737	-0.159318
H	-0.8548921783	 1.9094445859	-0.1705492322	 0.077954
H	 0.7720738833	 1.4185026762	-1.6440674503	 0.249433
H	 2.202333594	-0.8421857941	 1.0277873717	 0.131187
H	 2.6949054842	-1.4357064851	-0.6064846334	 0.099227
H	 4.8545246928	-0.3918732943	 1.0150652017	 0.096795
H	 3.6340919986	 2.1287956444	-1.7900497178	 0.111832
H	 3.3923421914	 2.2483384692	 1.2001214919	 0.117264
46.7671	125.8185	210.8845	292.4771	387.7185	449.43	528.4242	532.5223	587.4503	752.3976	774.6857	803.8762	818.054	872.6926	897.4455	915.7971	968.8993	976.7242	1020.0672	1030.9566	1045.3709	1057.188	1130.1151	1136.1395	1152.3618	1158.1465	1199.5471	1249.615	1283.9426	1310.2227	1401.021	1434.3333	1484.1256	1507.9779	1812.7949	2934.0393	3053.3736	3131.4349	3161.9364	3200.3247	3235.6533	3603.0555
O=CNC12CC3OC1C23	O=CN[C@@]12C[C@H]3O[C@@H]1[C@@H]23	
InChI=1S/C6H7NO2/c8-2-7-6-1-3-4(6)5(6)9-3/h2-5H,1H2,(H,7,8)	InChI=1S/C6H7NO2/c8-2-7-6-1-3-4(6)5(6)9-3/h2-5H,1H2,(H,7,8)/t3-,4+,5-,6-/m1/s1
