15
gdb 27661	3.17459	1.22133	0.88679	5.8528	77.42	-0.1912	0.0122	0.2034	1229.5526	0.114884	-413.039929	-413.031227	-413.030283	-413.07316	32.042	
N	 0.1367483692	 1.4088166523	 0.1163171313	-0.612393
C	-0.0196862625	 0.0134926436	 0.0234373065	 0.296903
C	-1.1035581408	-0.8178434223	 0.017975699	-0.336557
C	-0.6065075196	-2.1703210863	-0.0041458657	 0.139003
C	-1.3349302793	-3.377009426	 0.0079969143	 0.173729
N	-1.904040147	-4.3890808052	 0.0186733069	-0.376151
C	 0.7810137814	-2.1017900732	-0.0368503289	 0.246334
N	 1.7386477445	-3.1035123229	-0.159166643	-0.614804
N	 1.1212728495	-0.7817380189	-0.013084019	-0.311712
H	 0.2891642464	 1.8464327753	-0.7882899951	 0.248158
H	-0.6813348564	 1.8368649803	 0.5318200487	 0.252438
H	-2.1405917149	-0.5235021481	 0.0294800125	 0.107284
H	 1.306075883	-4.018654378	-0.1995439092	 0.27042
H	 2.4366588854	-3.0958834723	 0.5766522687	 0.252984
H	 2.0599320409	-0.4192044683	-0.0195608569	 0.264363
122.9843	129.0143	140.8013	216.6343	222.282	282.0416	336.7756	420.2603	482.5476	519.9559	534.2843	601.6217	639.8945	662.299	690.0469	765.1409	783.3739	810.6493	824.7647	1023.211	1104.9976	1154.4966	1187.1535	1199.1232	1272.6753	1357.927	1419.8705	1519.8697	1584.3436	1631.6427	1658.9494	1664.9634	2322.6278	3264.8195	3488.5056	3513.8001	3595.7869	3607.76	3670.2682
NC1=CC(C#N)=C(N)N1	Nc1cc(C#N)c(N)[nH]1	
InChI=1S/C5H6N4/c6-2-3-1-4(7)9-5(3)8/h1,9H,7-8H2	InChI=1S/C5H6N4/c6-2-3-1-4(7)9-5(3)8/h1,9H,7-8H2
