20
gdb 36802	8.19924	0.50514	0.49372	4.0725	81.68	-0.2706	0.0339	0.3045	2178.5614	0.169893	-403.141709	-403.131803	-403.130859	-403.178287	34.441	
N	-0.0769587086	-1.063863199	 0.0964377299	-0.302588
C	-0.0026347178	 0.0872152156	 0.1626963446	 0.246873
C	 0.1148494633	 1.5395800902	 0.2401801678	-0.339063
C	 1.5316692013	 2.0245877693	-0.0929862338	-0.047853
O	 1.516528202	 3.4238972588	 0.0182191448	-0.247731
C	 2.7703871953	 4.0224914503	-0.2725682711	-0.07381
C	 2.6357641251	 5.5156553455	-0.1776780331	 0.008737
C	 2.7282102404	 6.1951595518	 1.1637987124	-0.247586
C	 3.8461192458	 6.3482677331	 0.1645570033	-0.272026
H	-0.5971601076	 2.0000447595	-0.4525283661	 0.162222
H	-0.1537835488	 1.8735397313	 1.2477014141	 0.162662
H	 2.2574109695	 1.5739641671	 0.603030145	 0.108071
H	 1.8107707634	 1.7046581572	-1.1097799112	 0.108749
H	 3.5349174372	 3.6637352042	 0.4376127532	 0.086383
H	 3.0998686093	 3.7236388881	-1.2819429123	 0.092966
H	 1.9369002218	 5.9418353999	-0.8913085854	 0.09219
H	 2.0831888199	 7.0456930025	 1.3523452604	 0.11618
H	 2.9054019982	 5.5707363331	 2.0331208022	 0.11478
H	 4.7799854597	 5.8324232761	 0.3633240457	 0.113861
H	 3.9673520206	 7.3011423354	-0.3377477503	 0.116981
37.8364	58.2372	83.53	112.2258	146.0646	177.1926	288.0103	314.5031	399.378	414.3317	477.1002	562.981	775.0045	796.6654	818.1663	845.6114	921.2254	938.7316	962.1157	1024.4003	1033.7028	1060.9222	1079.5622	1087.142	1095.8698	1133.6267	1156.9738	1196.3633	1199.3491	1227.6944	1231.5567	1283.4852	1300.9106	1302.125	1368.7309	1412.8785	1459.7723	1470.6803	1471.7675	1504.5159	1513.1731	1533.8238	2366.2457	2952.1115	2972.3627	2983.0416	3001.3617	3057.4986	3100.41	3133.2925	3137.7778	3154.3037	3211.5646	3226.4739
N#CCCOCC1CC1	N#CCCOCC1CC1	
InChI=1S/C7H11NO/c8-4-1-5-9-6-7-2-3-7/h7H,1-3,5-6H2	InChI=1S/C7H11NO/c8-4-1-5-9-6-7-2-3-7/h7H,1-3,5-6H2
