23
gdb 58510	2.5934	1.31022	1.20146	1.1355	84.67	-0.2417	0.0691	0.3107	1203.9755	0.204342	-388.2669	-388.257301	-388.256357	-388.300554	37.812	
C	 0.0535705448	 1.535626534	-0.0669849604	-0.420011
C	 0.0569770272	 0.0065144199	 0.0853916652	-0.001489
C	 0.7477859686	-0.4235480064	 1.3859854431	-0.394164
C	-1.3648881347	-0.5732403854	-0.0032232202	 0.424504
O	-2.190921777	-0.0848638166	 1.0479970355	-0.494754
C	-2.10667663	-0.5138910437	-1.3920585531	-0.307429
C	-2.301525082	-2.0339149379	-1.3288693988	-0.042398
C	-0.9680931007	-2.7189027369	-1.2610739303	-0.294845
C	-1.531848283	-2.0998520648	-0.0111932776	-0.072093
H	 1.0760344784	 1.923783084	-0.107068878	 0.116848
H	-0.4580633544	 1.8542259797	-0.981835836	 0.115042
H	-0.4357596341	 2.0224223377	 0.7853750264	 0.108695
H	 0.6236685245	-0.4052063182	-0.7594295255	 0.068381
H	 1.7577856496	-0.0063880421	 1.4519658482	 0.102714
H	 0.1761086766	-0.0812761729	 2.2537656107	 0.123399
H	 0.8297587772	-1.5132145172	 1.4481363469	 0.116898
H	-2.296463516	 0.8644625482	 0.9247859146	 0.275074
H	-3.0391658484	 0.0469448756	-1.299084181	 0.100142
H	-1.5408167433	-0.138884875	-2.2523547156	 0.085138
H	-3.2034429025	-2.5614878944	-1.6128429469	 0.083976
H	-0.9972646956	-3.8038054182	-1.2804744129	 0.111739
H	-0.1014613608	-2.2954993919	-1.7632386739	 0.104866
H	-1.7449516544	-2.6764297176	 0.8802724496	 0.089766
82.1992	157.1136	186.2601	215.6463	245.1254	281.9095	293.9403	318.9805	325.9298	428.8355	436.0333	478.9719	509.8522	653.9219	750.6171	790.3372	826.4602	886.7614	905.1362	924.4013	939.9238	947.0793	969.2034	974.3301	1009.0206	1050.5094	1061.9304	1070.5265	1085.6668	1093.724	1139.7429	1150.8487	1194.1709	1203.2382	1241.6378	1258.0135	1278.7327	1332.2215	1346.5784	1357.4668	1389.7121	1398.6244	1415.1236	1468.2927	1488.3812	1491.8428	1493.4114	1509.0212	1515.1208	3021.4459	3024.9577	3034.9604	3036.3648	3086.694	3099.9418	3103.0194	3108.2495	3110.6489	3113.936	3182.7019	3189.3069	3202.0198	3809.192
CC(C)C1(O)CC2CC12	CC(C)[C@@]1(O)C[C@H]2C[C@@H]12	
InChI=1S/C8H14O/c1-5(2)8(9)4-6-3-7(6)8/h5-7,9H,3-4H2,1-2H3	InChI=1S/C8H14O/c1-5(2)8(9)4-6-3-7(6)8/h5-7,9H,3-4H2,1-2H3/t6-,7-,8+/m1/s1
