15
gdb 27080	3.2866	1.13099	0.86848	4.6025	70.05	-0.2001	0.0049	0.205	1255.1123	0.113092	-453.988829	-453.980272	-453.979328	-454.022822	30.579	
N	-0.0868128595	 1.3374088914	 0.2239541413	-0.613065
C	-0.0695581264	-0.0556501362	 0.0417538326	 0.19899
C	-1.0607315617	-0.9706274003	-0.240614003	 0.261943
O	-2.3684605175	-0.6051434518	-0.5169694808	-0.228227
C	-3.3422104696	-1.1406590225	 0.2636438564	 0.147512
O	-4.4997152413	-0.9306333899	 0.0692232195	-0.267457
C	-0.4913478023	-2.274145511	-0.2639669317	-0.253375
C	 0.8475204616	-2.1168829507	 0.0045378023	-0.08144
N	 1.0887938242	-0.7763373696	 0.1900171454	-0.264952
H	 0.2511578878	 1.8368238503	-0.5948435034	 0.249905
H	-1.0356301905	 1.65176203	 0.3940676761	 0.256448
H	-2.928283022	-1.7719537402	 1.0705684059	 0.092004
H	-1.0010237149	-3.1995406902	-0.4805810912	 0.109151
H	 1.642556978	-2.8403059611	 0.0729129006	 0.125936
H	 1.963820884	-0.3650498582	 0.46555357	 0.266627
50.0285	131.3184	133.962	153.2992	250.3661	272.67	391.2937	465.7521	478.2866	514.4575	634.0295	669.7959	697.7245	707.5484	812.0408	837.8274	848.8655	922.2475	1050.0576	1069.5158	1092.5575	1146.7668	1164.7241	1215.9679	1277.5049	1345.4376	1408.8896	1431.0157	1506.7727	1517.2147	1640.2451	1670.6336	1869.0836	2981.7337	3256.0744	3279.9314	3483.8362	3582.0209	3680.1903
NC1=C(OC=O)C=CN1	Nc1c(OC=O)cc[nH]1	
InChI=1S/C5H6N2O2/c6-5-4(9-3-8)1-2-7-5/h1-3,7H,6H2	InChI=1S/C5H6N2O2/c6-5-4(9-3-8)1-2-7-5/h1-3,7H,6H2
