18
gdb 100232	2.65693	1.13774	0.9726	3.8062	77.85	-0.2478	0.0212	0.269	1269.5452	0.146261	-398.092835	-398.082601	-398.081657	-398.127753	37.396	
N	 0.2037236231	 1.4429107021	-0.0123410007	-0.507827
C	 0.0311210309	 0.0050594776	-0.0109763912	-0.157623
C	-1.4437022942	-0.5102249795	-0.0375232388	 0.037394
N	-2.0812368096	 0.0107909233	-1.2491120436	-0.520764
C	-1.4466117283	-2.0706767371	 0.0695806934	-0.389395
C	-2.7739819371	-2.6471989778	-0.0821109916	 0.290213
C	-3.8850098585	-3.083678831	-0.2227040354	-0.416134
C	-2.1492448312	 0.0516632749	 1.1294045302	 0.31695
N	-2.6579388885	 0.4938240843	 2.0678482881	-0.339619
H	-0.3803956983	 1.8458276527	-0.7403310536	 0.242722
H	-0.1241501282	 1.8333412483	 0.8665850759	 0.243656
H	 0.5191811759	-0.415458616	-0.901048367	 0.106483
H	 0.5380919319	-0.4188923142	 0.8617664256	 0.120664
H	-1.6229346706	-0.3971767381	-2.0607839936	 0.234932
H	-3.0524194042	-0.2876924539	-1.2838955797	 0.251329
H	-0.7806472118	-2.4521600013	-0.7156149292	 0.132465
H	-1.0088417002	-2.3732304431	 1.028405804	 0.148325
H	-4.862022281	-3.4872478013	-0.3268110926	 0.206227
68.4123	108.338	129.2123	169.3176	195.3681	248.489	283.3871	320.8063	338.1447	356.4727	403.6115	411.559	476.5847	590.5639	632.8288	658.3364	671.446	716.4116	856.9301	876.3978	909.7208	920.702	953.8625	1011.4214	1060.5342	1114.3246	1153.6552	1196.8166	1245.2404	1323.2333	1346.1234	1385.0089	1408.3243	1461.91	1481.2361	1656.6522	1675.1869	2238.8663	2358.0336	3014.4613	3022.3988	3062.2214	3083.9632	3478.7652	3491.9836	3504.0877	3561.366	3568.2667
NCC(N)(CC#C)C#N	NC[C@@](N)(CC#C)C#N	
InChI=1S/C6H9N3/c1-2-3-6(9,4-7)5-8/h1H,3-4,7,9H2	InChI=1S/C6H9N3/c1-2-3-6(9,4-7)5-8/h1H,3-4,7,9H2/t6-/m0/s1
