18
gdb 54594	2.72701	1.52389	1.16578	2.586	71.75	-0.2461	0.0144	0.2605	1076.2537	0.147772	-439.081915	-439.073258	-439.072314	-439.116622	31.755	
N	 0.3251318443	 1.0214456843	-0.4948721637	-0.539901
C	-0.1474211579	 0.1580383202	 0.449529145	 0.29971
O	 0.425034712	-0.0129181367	 1.511758988	-0.368188
C	-1.3935619929	-0.6225863485	 0.1041587441	 0.197901
C	-2.3107098774	-0.9864102869	 1.3139156423	-0.275947
C	-2.1671709752	-2.5055023389	 0.9952698858	-0.228522
C	-1.3436718477	-2.1517873361	-0.2542391166	 0.095249
O	-2.1602278709	-1.9275607728	-1.4221033363	-0.28862
C	-2.1563043832	-0.4992249044	-1.2276482147	-0.152067
H	 1.1419689488	 1.5627330198	-0.2625098781	 0.262404
H	-0.1834295839	 1.2511484163	-1.3290367401	 0.257689
H	-1.8570990088	-0.6950695335	 2.2605783911	 0.137326
H	-3.3210076825	-0.5750000333	 1.2486310891	 0.098289
H	-1.5891034992	-3.0440449123	 1.7502398898	 0.114857
H	-3.0829237306	-3.0590644884	 0.7782171414	 0.1104
H	-0.431988328	-2.7097083511	-0.4827334041	 0.086187
H	-3.1677935257	-0.0779221141	-1.1684913082	 0.106204
H	-1.6181773812	-0.0017440736	-2.0479273247	 0.087029
19.3259	87.9501	154.5274	169.6182	254.6549	339.9519	357.9903	430.9892	477.3551	572.2485	648.6649	676.8724	727.2106	756.6862	850.3446	877.9057	916.9988	946.9215	962.4472	1010.7589	1032.9424	1055.6731	1078.4364	1111.4154	1150.0474	1192.7451	1208.9273	1213.8756	1248.3512	1267.8474	1280.0937	1321.5284	1367.8927	1390.7889	1458.2197	1475.7155	1515.8237	1614.7044	1775.9694	2985.9996	3039.1006	3065.5774	3069.557	3081.0201	3123.6147	3148.9395	3606.5485	3743.766
NC(=O)C12CCC1OC2	NC(=O)[C@]12CC[C@H]1OC2	
InChI=1S/C6H9NO2/c7-5(8)6-2-1-4(6)9-3-6/h4H,1-3H2,(H2,7,8)	InChI=1S/C6H9NO2/c7-5(8)6-2-1-4(6)9-3-6/h4H,1-3H2,(H2,7,8)/t4-,6+/m1/s1
