16
gdb 35397	3.18306	1.60359	1.33993	0.4449	73.41	-0.2358	0.009	0.2449	963.8477	0.12404	-400.620114	-400.612946	-400.612002	-400.651576	28.575	
C	-0.3935891304	-1.2348765111	-0.4045854018	-0.413218
C	-0.1942522991	-0.0736428926	-0.1653254865	 0.330486
C	 0.0139680745	 1.3417437742	 0.0714458193	-0.100095
O	-0.1498625576	 1.7826370906	 1.4573862906	-0.305996
C	 1.0759019772	 2.555858124	 1.3937745533	 0.092286
C	 2.3344625227	 1.8635837964	 1.9377954436	-0.037836
C	 2.2980168542	 0.4161548702	 1.6918710926	-0.246603
N	 2.6544923302	 1.2849081402	 0.5484586687	-0.162706
C	 1.42319895	 1.9904839947	 0.020126788	-0.037835
H	-0.5579670973	-2.2643265294	-0.6091507735	 0.205206
H	-0.6746674003	 1.9115831052	-0.5693345043	 0.112044
H	 0.9309185851	 3.6111034449	 1.6291124463	 0.089409
H	 3.0992325634	 2.3539574332	 2.5314641	 0.098474
H	 3.1554624234	-0.1598318202	 2.0264533174	 0.124876
H	 1.3543117455	-0.1141786707	 1.7158471447	 0.149913
H	 1.6715670483	 2.5804141204	-0.8597155384	 0.101596
124.6859	139.1349	249.3908	307.6506	392.691	502.4527	527.4339	596.6527	617.8945	685.9924	692.9781	704.6822	727.2818	831.7206	882.5476	905.441	930.6217	961.6343	983.2819	1002.4981	1030.307	1054.0501	1089.0033	1110.3659	1142.3122	1197.344	1217.361	1234.8639	1276.1456	1294.8924	1318.4671	1352.9746	1367.1551	1499.4599	2232.3916	2994.4441	3101.9626	3134.536	3135.9459	3165.322	3230.513	3500.6456
C#CC1OC2C3CN3C12	C#C[C@H]1O[C@H]2[C@H]3CN3[C@@H]12	
InChI=1S/C7H7NO/c1-2-5-6-7(9-5)4-3-8(4)6/h1,4-7H,3H2	InChI=1S/C7H7NO/c1-2-5-6-7(9-5)4-3-8(4)6/h1,4-7H,3H2/t4-,5-,6+,7+,8?/m1/s1
