20
gdb 23149	3.43312	0.88107	0.7513	5.3123	81.84	-0.2014	-0.0171	0.1843	1554.3947	0.171746	-436.369881	-436.36036	-436.359416	-436.40481	34.339	
C	 0.4354104744	 1.4401859731	 0.72060047	-0.317568
N	 0.467907439	 0.044201931	 0.2940127488	-0.301431
H	 1.0844363389	-0.4831912953	 0.9044846214	 0.231105
H	-0.7263374896	-1.7073236278	-0.1246331274	 0.258744
C	 0.8917243249	-0.142968491	-1.0892887394	-0.222534
C	 0.5631374032	-1.5296057924	-1.5909667943	 0.270984
N	-0.3454165702	-2.2047981598	-0.9428486464	 0.022505
O	-0.8002390984	-3.3729519758	-1.204375718	-0.513927
C	 1.2058674293	-2.0331714656	-2.8166738487	-0.07952
C	 1.634367535	-3.46017586	-2.9725334448	-0.241831
N	 0.5109917548	-2.9448475494	-3.754485953	-0.323135
H	 1.3918540767	 1.971596768	 0.5843280319	 0.1066
H	-0.3308616507	 1.97708518	 0.1520529103	 0.134702
H	 0.1636808252	 1.4885670318	 1.7783558126	 0.129839
H	 0.3674100177	 0.6047511865	-1.7032779844	 0.132926
H	 1.9682645114	 0.0483755512	-1.2495934038	 0.107206
H	 1.8065972498	-1.2771667282	-3.3178626682	 0.089705
H	 2.5453178152	-3.6595175807	-3.5298094951	 0.115966
H	 1.4083118256	-4.1423988522	-2.1601584511	 0.140274
H	-0.3359066323	-3.2659152634	-3.2815870105	 0.259389
59.2722	101.8516	120.858	163.0197	239.5505	242.3408	252.2727	328.7981	341.9713	372.9859	449.2858	574.9692	722.943	792.6099	803.909	828.412	906.127	952.1905	973.1197	989.5385	1013.4318	1016.0841	1116.5208	1136.3651	1142.8299	1153.0266	1175.8989	1189.9257	1211.3198	1276.8907	1302.9402	1313.7372	1335.0175	1384.722	1418.2487	1460.1907	1479.112	1484.5958	1490.9702	1505.2369	1516.3337	1526.0245	1688.1892	2937.9726	2969.1857	3003.025	3070.6917	3116.0073	3118.0245	3127.4877	3217.9518	3313.4214	3446.678	3513.8861
C[NH2+]CC(=N[O-])C1CN1	CNC[C](N[O])[C@H]1CN1	
InChI=1S/C5H11N3O/c1-6-2-5(8-9)4-3-7-4/h4,6-7,9H,2-3H2,1H3	InChI=1S/C5H11N3O/c1-6-2-5(8-9)4-3-7-4/h4,6-8H,2-3H2,1H3/t4-/m1/s1
