18
gdb 16468	3.16821	2.71754	1.81272	1.4198	70.92	-0.2521	0.077	0.3291	774.3957	0.156062	-347.770819	-347.764451	-347.763507	-347.800761	26.707	
O	-0.0626949535	 1.3809578445	 0.0630274389	-0.491435
C	 0.0060779929	-0.0126506887	 0.0302131148	 0.461045
C	 0.9331669312	-0.7105771226	 1.0305900335	-0.301506
C	 0.6134233504	-2.1894131295	 0.6909658803	-0.24528
C	-0.4195798056	-1.9801448874	-0.4214633082	 0.000516
C	-1.3466587296	-0.7777463668	-0.0484659721	-0.090172
C	-1.4501250897	-0.4144344222	-1.5511115429	-0.248097
C	 0.0331669455	-0.7996488063	-1.3348733589	-0.124652
H	 0.8303228548	 1.7288925023	-0.0307482002	 0.279734
H	 1.9849183607	-0.4503360826	 0.8616200478	 0.085982
H	 0.6863463192	-0.4372449788	 2.0610472014	 0.103281
H	 1.4894545496	-2.7440823719	 0.3404115011	 0.096796
H	 0.1975169995	-2.7361410089	 1.5429048074	 0.099199
H	-0.8737766725	-2.8527512907	-0.8921046646	 0.064233
H	-2.1363638636	-0.769034611	 0.7056300902	 0.064472
H	-2.0426587091	-1.0882586838	-2.1760578351	 0.083348
H	-1.6531198225	 0.63213457	-1.782901932	 0.104981
H	 0.8426822721	-0.8164983857	-2.0687390013	 0.057554
217.2799	267.1038	329.9532	343.2196	404.1148	446.5493	639.9114	676.9681	708.0235	729.3892	822.2119	843.2294	896.1994	901.5602	914.7755	953.3014	994.1245	1012.6213	1028.6505	1042.8132	1065.6333	1099.5009	1111.9713	1139.8203	1174.6117	1194.0205	1203.6534	1226.2031	1239.5854	1254.0136	1267.2907	1274.991	1321.1198	1330.4928	1392.0687	1487.1093	1508.097	1510.8603	3032.1373	3049.4394	3057.6437	3075.0833	3079.4956	3091.0828	3094.1455	3113.2208	3130.2058	3807.6776
OC12CCC3C1CC23	O[C@@]12CC[C@H]3[C@@H]1C[C@@H]23	
InChI=1S/C7H10O/c8-7-2-1-4-5(7)3-6(4)7/h4-6,8H,1-3H2	InChI=1S/C7H10O/c8-7-2-1-4-5(7)3-6(4)7/h4-6,8H,1-3H2/t4-,5-,6+,7-
