16
gdb 79619	2.27904	2.00379	1.58913	3.4196	67.84	-0.2487	-0.0131	0.2356	901.6853	0.125569	-437.859822	-437.852671	-437.851727	-437.89133	28.228	
O	 0.1922228571	 1.3597257714	 0.0024665072	-0.407529
C	 0.0214875616	-0.0260806862	-0.0046036221	 0.081827
C	-1.3417274141	-0.644683965	 0.069306253	-0.098376
C	-2.6050298321	 0.1020023136	-0.3307982072	-0.034849
C	-2.6475036358	 1.543076111	-0.7148914337	-0.262747
N	-2.5192057599	 0.4796832931	-1.740321888	-0.125567
C	-1.2137396136	 0.1416021295	-2.217229731	 0.38219
O	-0.7607712208	 0.4988878934	-3.2712423556	-0.326407
C	-0.5202292932	-0.7637066378	-1.2103907056	-0.224965
H	 0.8789900787	 1.577994337	-0.6381564592	 0.302253
H	 0.7917445501	-0.5663009834	 0.5462632498	 0.106082
H	-1.473985722	-1.4800807672	 0.7460086455	 0.102275
H	-3.5315764842	-0.3828016753	-0.0344558724	 0.103908
H	-3.6053045889	 2.0555480765	-0.730962429	 0.125446
H	-1.7806222916	 2.1564898375	-0.515371149	 0.16178
H	-0.0154210315	-1.6509139983	-1.5734971228	 0.114678
95.9902	192.1371	257.2247	312.2996	354.6741	418.0878	501.6598	600.7131	632.6102	671.4061	719.8034	752.9035	795.0217	840.5784	866.5461	878.046	982.658	1000.4239	1032.8367	1044.7053	1053.734	1095.8453	1113.6308	1127.9435	1154.236	1166.4381	1227.9689	1281.3926	1297.6746	1316.7293	1363.7258	1383.2908	1450.2147	1497.499	1841.6776	3098.9636	3130.1451	3139.748	3182.2532	3189.8034	3258.1416	3797.0376
OC1C2C3CN3C(=O)C12	O[C@H]1[C@H]2[C@H]3CN3C(=O)[C@@H]12	
InChI=1S/C6H7NO2/c8-5-3-2-1-7(2)6(9)4(3)5/h2-5,8H,1H2	InChI=1S/C6H7NO2/c8-5-3-2-1-7(2)6(9)4(3)5/h2-5,8H,1H2/t2-,3+,4-,5+,7?/m1/s1
