18
gdb 31574	3.21095	1.1831	0.87877	0.4131	76.63	-0.2048	0.034	0.2388	1332.3273	0.146525	-439.132977	-439.123531	-439.122587	-439.167363	33.222	
C	-0.099669674	 1.3147344982	 0.0174676851	-0.234376
O	-0.0253178785	-0.1118123782	 0.103838283	-0.250327
C	 0.6438078716	-0.5661655869	 1.1532535364	 0.483486
N	 1.2321197713	 0.0882617446	 2.0988676617	-0.436758
C	 1.7616741506	-0.9255907944	 2.9153836736	 0.170012
C	 2.5338400713	-0.5882375814	 4.1452626206	-0.492193
C	 1.4475533438	-2.1341412906	 2.3920059616	 0.252767
C	 1.6952393975	-3.5506824932	 2.7535846396	-0.494865
O	 0.711289369	-1.9042593577	 1.2312578607	-0.224679
H	 0.9019619321	 1.7479070039	-0.0528916543	 0.143368
H	-0.6729946364	 1.525315326	-0.8851993113	 0.136634
H	-0.6015467214	 1.727079263	 0.8972076158	 0.143374
H	 1.9232532358	-0.0025661457	 4.8412616887	 0.135509
H	 2.8736213022	-1.4884911206	 4.6633705494	 0.119974
H	 3.4127574257	 0.0182019677	 3.9003956095	 0.135513
H	 0.7591956425	-4.0984631727	 2.9144603452	 0.137939
H	 2.2529634012	-4.0781250345	 1.9707238459	 0.13794
H	 2.2785630156	-3.6009477676	 3.6757891787	 0.13668
94.8923	127.5948	143.8765	151.0579	195.0222	213.1051	228.0862	256.1744	365.4839	379.5249	536.8533	631.5702	655.1952	665.2686	750.5789	792.9331	970.7521	986.9906	1027.8532	1063.4995	1068.6307	1100.1229	1149.786	1183.7226	1223.3151	1236.9452	1326.7313	1401.4113	1423.701	1425.5621	1469.6138	1473.1943	1474.0281	1478.684	1492.4335	1494.6573	1501.9856	1655.7596	1708.5323	3025.7617	3034.2329	3046.1343	3073.0987	3086.5845	3119.0464	3119.7609	3127.8684	3159.2642
COC1=NC(C)=C(C)O1	COc1nc(C)c(C)o1	
InChI=1S/C6H9NO2/c1-4-5(2)9-6(7-4)8-3/h1-3H3	InChI=1S/C6H9NO2/c1-4-5(2)9-6(7-4)8-3/h1-3H3
