20
gdb 82140	3.0727	1.13769	0.96775	4.0724	79.37	-0.2327	-0.0175	0.2152	1261.8036	0.169989	-403.111539	-403.102519	-403.101575	-403.146117	33.323	
C	-0.161108245	 1.6402999224	 0.0953553948	-0.418315
C	-0.0563679893	 0.1221667075	 0.0290575032	 0.007699
C	 0.4489613052	-0.4982383569	-1.2829102534	-0.053676
N	 1.8459827267	-0.0305654411	-1.4593942643	-0.332137
C	 1.5617853924	-1.1971725791	-0.5892404488	-0.076328
C	 1.1310378082	-0.6377148589	 0.7707756189	-0.020375
C	 2.1714118649	 0.1542323458	 1.5723499859	-0.284622
C	 1.6386699853	 0.5656557512	 2.9247141986	 0.160608
O	 1.5141457878	 1.6982843865	 3.315054835	-0.240412
H	 0.7343503914	 2.1088131641	-0.3195574165	 0.139519
H	-1.0233531371	 1.9866021209	-0.4854181742	 0.107962
H	-0.286428641	 1.9925878622	 1.1233969694	 0.132294
H	-1.0047149598	-0.3370191786	 0.32417114	 0.074685
H	-0.139218143	-0.8114110579	-2.1371607807	 0.091577
H	 2.1755362447	-0.3953907416	-2.3522626941	 0.229691
H	 2.0164495209	-2.1605691806	-0.7883258122	 0.090728
H	 0.7166056183	-1.4380817959	 1.3934587422	 0.075828
H	 3.0360754593	-0.5023104341	 1.7518429791	 0.11056
H	 2.5148008399	 1.0326163403	 1.0242233613	 0.139093
H	 1.3405098902	-0.293947986	 3.5736766357	 0.065621
46.6844	71.0453	134.8043	203.8462	224.6151	248.0303	290.5804	395.4635	465.8222	564.9435	584.8574	669.1755	730.094	812.2352	838.2355	848.2404	881.0014	915.7789	946.0433	1010.7253	1022.8033	1037.4361	1063.7039	1076.5328	1104.9668	1116.7351	1143.0168	1151.1939	1186.7909	1209.6465	1255.247	1281.3336	1292.996	1327.1946	1363.0218	1382.1196	1386.7363	1411.7475	1431.0161	1467.0685	1491.1121	1508.6771	1832.254	2833.0153	3007.267	3037.9056	3041.1597	3062.4879	3103.7132	3127.8144	3132.9324	3175.9841	3190.477	3478.3235
CC1C2NC2C1CC=O	C[C@H]1[C@H]2N[C@H]2[C@H]1CC=O	
InChI=1S/C7H11NO/c1-4-5(2-3-9)7-6(4)8-7/h3-8H,2H2,1H3	InChI=1S/C7H11NO/c1-4-5(2-3-9)7-6(4)8-7/h3-8H,2H2,1H3/t4-,5+,6-,7+/m1/s1
