17
gdb 6001	2.72969	1.76164	1.43216	5.7915	68.46	-0.2635	-0.0324	0.2311	956.7517	0.138816	-363.901158	-363.891724	-363.890779	-363.935253	33.366	
C	 0.2004365973	 1.5062432338	 0.0366013671	-0.492597
C	-0.1067108184	 0.0203485834	 0.0485402693	 0.393768
O	-0.4427759428	-0.5526639283	 1.0532706693	-0.2801
C	-0.0088459132	-0.7408262073	-1.3057206101	-0.043053
C	-1.3337849403	-0.4919416027	-2.076051992	-0.412312
C	 1.2031993762	-0.2959755397	-2.1552202787	-0.42354
C	 0.1092997784	-2.1802714049	-1.0298101474	 0.301201
N	 0.2222578907	-3.3192326033	-0.8751010389	-0.336344
H	 1.2818521901	 1.6599417378	-0.0493844536	 0.155547
H	-0.2657405934	 2.0201585752	-0.8088669989	 0.140398
H	-0.1439304282	 1.9423281744	 0.9746488892	 0.154649
H	-1.4476473873	 0.5719268578	-2.3015446403	 0.126993
H	-1.3253969542	-1.043539674	-3.0195569938	 0.144925
H	-2.1926091965	-0.822734387	-1.4878261263	 0.154519
H	 2.142696509	-0.4431587064	-1.6160619128	 0.143097
H	 1.2468243335	-0.8823174716	-3.0764680551	 0.145515
H	 1.1148825492	 0.7584431628	-2.427542057	 0.127334
39.1746	153.4341	161.1189	191.762	213.956	241.4269	264.8643	289.3399	331.8549	407.4152	449.5579	553.0691	600.3692	620.6337	654.1822	826.7313	930.3852	950.1706	977.7857	1009.3939	1053.4731	1138.9473	1150.3132	1219.9637	1270.6741	1382.2411	1396.4621	1420.9418	1459.2923	1474.9244	1484.4154	1487.9676	1500.5175	1509.4793	1819.9637	2363.4754	3044.6144	3048.7909	3052.1159	3108.9484	3125.2788	3127.0612	3132.2802	3136.9386	3157.6699
CC(=O)C(C)(C)C#N	CC(=O)C(C)(C)C#N	
InChI=1S/C6H9NO/c1-5(8)6(2,3)4-7/h1-3H3	InChI=1S/C6H9NO/c1-5(8)6(2,3)4-7/h1-3H3
