17
gdb 67841	2.35236	2.23879	1.63129	2.9073	70.8	-0.2369	0.0279	0.2648	887.2233	0.137557	-417.971327	-417.964333	-417.963389	-418.002306	28.242	
C	-0.0486793705	 1.5226825973	-0.0139065484	-0.46909
C	-0.0089262307	 0.0072808273	 0.0090889847	 0.301997
N	-1.258542988	-0.6101435595	-0.4356224543	-0.299424
C	-1.5378583808	-1.483154207	 0.4425491087	 0.125244
O	-0.7609005691	-1.6304912863	 1.5549935542	-0.228056
C	 0.3252015143	-0.7151128878	 1.3616153101	 0.034822
C	 1.6046404831	-1.2798776059	 0.7309264382	-0.07838
N	 1.1870862294	-2.0747613647	-0.4418456305	-0.327132
C	 1.2921221199	-0.612515697	-0.5756111193	-0.083098
H	 0.8981562558	 1.945539571	 0.3389576471	 0.111668
H	-0.2285914906	 1.8798256957	-1.0325349826	 0.132836
H	-0.8553344533	 1.8963584081	 0.6235107678	 0.125515
H	-2.3936670974	-2.148611059	 0.4178877333	 0.135564
H	 0.464390481	-0.1119072042	 2.2600163677	 0.089537
H	 2.555200438	-1.4551101388	 1.2192046433	 0.096085
H	 2.028667311	-2.4828545133	-0.8460061968	 0.236256
H	 1.957103588	-0.159371956	-1.3013981734	 0.095657
195.4019	220.7629	238.3993	263.9612	312.47	464.5509	502.9111	605.8462	649.6885	673.1479	804.8887	826.1071	834.0442	861.2559	917.1163	921.3387	927.5547	956.3459	973.1372	1001.0032	1025.6746	1071.8651	1092.3918	1101.4088	1160.1219	1177.3207	1192.9512	1241.2035	1280.0477	1316.0458	1335.8144	1358.8364	1379.4022	1407.2646	1486.0486	1492.9529	1674.5176	3034.4976	3103.3057	3106.3791	3114.4008	3181.0367	3195.0913	3215.7692	3486.3778
CC12N=COC1C1NC21	C[C@]12N=CO[C@H]1[C@H]1N[C@@H]21	
InChI=1S/C6H8N2O/c1-6-4-3(8-4)5(6)9-2-7-6/h2-5,8H,1H3	InChI=1S/C6H8N2O/c1-6-4-3(8-4)5(6)9-2-7-6/h2-5,8H,1H3/t3-,4+,5-,6+/m0/s1
