21
gdb 70566	2.4938	1.6874	1.38888	1.7725	81.01	-0.2488	0.0891	0.3379	1049.1697	0.184259	-387.081717	-387.073835	-387.072891	-387.113513	32.203	
C	 0.0264688928	 1.502750975	-0.020660866	-0.478932
C	-0.0114368717	-0.0122503825	 0.0217037577	 0.34345
C	-0.8913977278	-0.6976023797	 1.037922493	-0.332042
C	 0.612161193	-0.7386836969	 1.1981966324	-0.070797
C	 1.3950918063	-2.0258017945	 0.9442696364	-0.232408
C	 2.1632673269	-2.0056156223	-0.3904942957	-0.242955
C	 1.2628668955	-1.6241468548	-1.545612448	 0.059807
O	-0.1040399334	-2.057750014	-1.4529732035	-0.265095
C	 0.1735668693	-0.6587258618	-1.3264548166	-0.021684
H	 0.9668274885	 1.8708542397	-0.4484356296	 0.115951
H	-0.7942178125	 1.9044491585	-0.6272853076	 0.117688
H	-0.0672030208	 1.9234050973	 0.9847923571	 0.116929
H	-1.4676925422	-0.0711721169	 1.7109362894	 0.102787
H	-1.3803609271	-1.6163686621	 0.7330882343	 0.126578
H	 1.0234869049	-0.0940771605	 1.9697942352	 0.077752
H	 2.1024432306	-2.1931253447	 1.7621970684	 0.09506
H	 0.716694933	-2.8835259197	 0.9374174516	 0.116863
H	 2.9924912372	-1.2857082416	-0.3529922512	 0.101407
H	 2.6113955765	-2.9888399035	-0.5769248341	 0.103502
H	 1.6909128075	-1.7135862779	-2.5445061934	 0.08474
H	-0.1757586863	-0.065192267	-2.17298648	 0.0814
149.7139	188.0387	228.2433	263.7613	316.5086	337.2147	424.607	473.6234	490.3699	531.4067	626.7055	730.7713	774.5168	803.548	840.7866	880.5296	910.6339	942.6077	950.5409	959.9122	969.4571	1027.3454	1052.9569	1071.3168	1102.3574	1104.7025	1121.6075	1143.2916	1151.9469	1224.6521	1242.6	1261.7468	1280.895	1328.0776	1359.7636	1376.4886	1389.6001	1412.443	1416.5459	1462.9488	1473.1542	1486.3768	1491.0904	1496.3648	1503.5127	3016.9715	3019.6071	3049.1882	3060.5151	3076.8712	3089.1189	3091.9741	3102.9489	3108.0543	3128.4523	3141.5845	3219.753
CC12CC1CCC1OC21	C[C@]12C[C@H]1CC[C@H]1O[C@@H]21	
InChI=1S/C8H12O/c1-8-4-5(8)2-3-6-7(8)9-6/h5-7H,2-4H2,1H3	InChI=1S/C8H12O/c1-8-4-5(8)2-3-6-7(8)9-6/h5-7H,2-4H2,1H3/t5-,6-,7-,8+/m1/s1
