17
gdb 18192	4.21177	1.7309	1.41814	1.7662	73.12	-0.2336	0.0447	0.2783	900.5973	0.143344	-326.67385	-326.66677	-326.665826	-326.704933	27.916	
C	-0.4670278022	-1.13418668	-0.7805062855	-0.457018
C	-0.2250558816	-0.0346645374	-0.3598629197	 0.344317
C	 0.056647191	 1.2894852487	 0.1793219761	-0.143031
C	-0.3471717056	 1.4523519301	 1.6760114726	-0.245604
C	 0.6324503702	 2.5210648487	 2.1971001468	-0.234706
C	 1.8522506992	 2.366712788	 1.3016981552	-0.005271
C	 2.3591089688	 0.9962669101	 1.0365210089	-0.246612
N	 1.4913219308	 1.6628510779	 0.0527705228	-0.095157
H	-0.6776789727	-2.1010422433	-1.1657723037	 0.196171
H	-0.4884336606	 2.0330444003	-0.4158512611	 0.110966
H	-1.3947731365	 1.7421094545	 1.7794175183	 0.112292
H	-0.2221501768	 0.50515032	 2.205389463	 0.119492
H	 0.216939928	 3.5271527941	 2.0711046637	 0.108673
H	 0.8626163745	 2.3952981976	 3.2595355797	 0.108952
H	 2.5194414677	 3.2171043412	 1.1920684742	 0.091148
H	 3.3817875915	 0.8532794057	 0.7010606112	 0.117792
H	 1.9591700344	 0.1664034039	 1.6130148276	 0.117596
110.1611	155.1037	252.092	306.7096	396.3772	504.2005	510.9922	612.7274	627.3749	648.6276	654.5878	744.326	834.2271	852.707	865.0909	939.2181	959.9514	990.1939	1023.5379	1051.4033	1089.4771	1106.4205	1108.9549	1166.461	1180.0033	1213.0536	1266.1053	1292.7278	1323.9268	1331.1731	1359.6297	1388.3116	1488.8548	1495.8398	1520.9758	2238.8341	3022.4808	3042.8463	3074.1563	3086.2291	3114.3632	3122.2374	3146.4581	3197.3977	3504.3794
C#CC1CCC2CN12	C#C[C@H]1CC[C@H]2CN12	
InChI=1S/C7H9N/c1-2-6-3-4-7-5-8(6)7/h1,6-7H,3-5H2	InChI=1S/C7H9N/c1-2-6-3-4-7-5-8(6)7/h1,6-7H,3-5H2/t6-,7-,8?/m0/s1
