16
gdb 50631	3.05561	1.23268	0.91016	3.233	66.99	-0.2701	-0.0449	0.2251	1208.9764	0.124044	-475.035996	-475.027855	-475.026911	-475.069597	29.269	
N	-0.2520713829	 1.3466551955	-0.2460180698	-0.492127
C	-0.1061058746	 0.0935534977	-0.2013998051	 0.360015
C	-1.2834748695	-0.8523450644	-0.261546641	-0.264325
C	-0.9027338989	-2.166664222	-0.9456393146	-0.001395
O	 0.3079526423	-2.6669535535	-0.3939511783	-0.241189
C	 1.3469547431	-1.7625419795	-0.5925387336	 0.012462
O	 1.1174277854	-0.4942058579	 0.015712743	-0.247706
C	-1.9478956576	-3.2612294933	-0.7947195575	 0.136304
O	-3.1290190861	-3.0508421716	-0.7334555604	-0.233742
H	 0.6539247891	 1.8102762996	-0.1473236291	 0.224658
H	-1.5903235734	-1.0760636732	 0.766881411	 0.145138
H	-2.1207723002	-0.3647576095	-0.7592998211	 0.153306
H	-0.7676193116	-2.0012628148	-2.0319170756	 0.107597
H	 2.2400087239	-2.1707612378	-0.118178923	 0.136473
H	 1.5183344504	-1.6061748642	-1.671046903	 0.100493
H	-1.5154811295	-4.2845158109	-0.7578687519	 0.104038
63.4266	102.2859	136.6716	175.1175	277.1091	383.8431	411.9551	463.0352	487.7397	583.0585	605.8462	731.7566	815.2822	861.0644	898.1603	929.8462	1004.3432	1038.3262	1063.2862	1078.64	1103.805	1149.5804	1197.1562	1225.7162	1274.9247	1295.2414	1323.002	1347.1734	1375.8493	1405.9964	1457.	1459.8394	1516.4904	1763.173	1844.1855	2909.1564	2929.1426	2963.2745	3053.558	3130.413	3150.6797	3462.9755
N=C1CC(OCO1)C=O	[NH][C]1C[C@@H](OCO1)C=O	
InChI=1S/C5H7NO3/c6-5-1-4(2-7)8-3-9-5/h2,4,6H,1,3H2	InChI=1S/C5H7NO3/c6-5-1-4(2-7)8-3-9-5/h2,4,6H,1,3H2/t4-/m1/s1
