21
gdb 53568	4.30122	0.74461	0.72201	0.3398	91.2	-0.2343	0.0672	0.3014	1685.148	0.182112	-349.901726	-349.892186	-349.891242	-349.938072	34.579	
C	-0.0197855119	 1.2962376527	-0.3935825744	-0.495697
C	-0.0251739282	-0.1263203975	-0.0819489108	 0.059428
C	-0.0197143877	-1.3023881669	 0.1767893991	 0.075188
C	-0.0447196288	-2.7296682646	 0.4878573104	-0.392267
C	-1.4020104341	-3.3693017743	 0.2111306074	 0.018818
C	-1.8887411677	-3.832458928	-1.1326351356	-0.050752
C	-0.7656365862	-4.4695796784	-1.9614688923	-0.230261
C	-0.5143348546	-5.4960701	-0.8095769253	-0.228975
C	-1.6385825653	-4.840501599	 0.0044904625	-0.088146
H	 0.7591938198	 1.5428143523	-1.1238776457	 0.144251
H	-0.9792422019	 1.616141512	-0.8155322577	 0.144505
H	 0.164333614	 1.9014520489	 0.5012801192	 0.143989
H	 0.7427344912	-3.2394293498	-0.078468224	 0.125698
H	 0.2084194261	-2.879563748	 1.5463734167	 0.122335
H	-2.1985059385	-2.9045249595	 0.7884285544	 0.091084
H	-2.8314053432	-3.4830790509	-1.5372970106	 0.0805
H	-1.1365914299	-4.9561667728	-2.8659253853	 0.102119
H	 0.0646047303	-3.8135775647	-2.2430275006	 0.101053
H	-0.7609848697	-6.515791235	-1.1128883051	 0.10191
H	 0.4811231724	-5.5089163772	-0.3530984002	 0.094925
H	-2.3591845761	-5.3820618692	 0.6067539583	 0.080293
28.7481	33.0062	82.0687	186.9614	208.6594	253.2843	280.8531	377.9267	386.6149	472.9536	536.2532	704.5388	745.3325	783.7369	792.1408	806.8474	889.2556	925.6835	958.895	972.1314	1000.993	1020.89	1028.157	1053.9754	1054.8827	1078.8099	1123.1649	1138.4904	1166.1148	1184.2118	1221.4348	1238.828	1255.6997	1263.8823	1305.6916	1318.4714	1357.3945	1415.5902	1446.3169	1467.094	1479.8323	1480.0385	1487.2919	1506.5909	2373.05	3014.5471	3023.9476	3041.8663	3050.3582	3059.4694	3083.0452	3083.2007	3094.315	3112.7784	3133.5401	3167.3936	3180.686
CC#CCC1C2CCC12	CC#CC[C@H]1[C@H]2CC[C@@H]12	
InChI=1S/C9H12/c1-2-3-4-7-8-5-6-9(7)8/h7-9H,4-6H2,1H3	InChI=1S/C9H12/c1-2-3-4-7-8-5-6-9(7)8/h7-9H,4-6H2,1H3/t7-,8+,9-
