18
gdb 98992	3.58392	0.8568	0.7296	3.2061	71.38	-0.2455	-0.0037	0.2418	1558.7728	0.145831	-476.291757	-476.281389	-476.280445	-476.32888	34.657	
C	 0.0363974116	 1.3499504796	 0.8091005334	-0.333141
N	 0.2187259412	-0.0601373346	 1.0891729687	-0.303145
C	 0.9524748187	-0.8671771556	 0.2865546357	 0.395609
O	 1.4944906444	-0.5159675203	-0.7460149468	-0.37595
C	 1.0239411124	-2.3453470505	 0.7197188683	-0.429777
C	 1.0461748702	-2.6252414881	 2.2058386449	 0.444056
O	 0.3433871761	-2.0877444444	 3.0348340952	-0.373173
O	 1.9401764912	-3.575705358	 2.5094646236	-0.218283
C	 2.0153957586	-3.9375532562	 3.897577484	-0.243043
H	 0.500204935	 1.5596734282	-0.1552537596	 0.167148
H	-1.027499055	 1.6061472474	 0.7604728511	 0.12499
H	 0.5090250867	 1.974784835	 1.57574331	 0.126122
H	-0.1251964425	-0.4575411715	 1.9536090311	 0.268508
H	 0.1303510615	-2.8400110437	 0.3171744413	 0.161794
H	 1.8897187422	-2.7892269399	 0.2313664618	 0.156038
H	 2.2955656024	-3.0726489567	 4.5032208553	 0.146294
H	 1.0528015872	-4.3176955612	 4.2476752128	 0.144995
H	 2.7792225881	-4.7120826696	 3.9576993591	 0.140958
36.0942	64.7549	74.0315	122.211	136.8503	162.7032	210.1786	262.5428	320.2278	382.2483	397.0282	531.3178	622.7041	681.6305	700.2032	769.9782	873.0694	917.57	968.1086	1027.1373	1101.4989	1151.6118	1172.8473	1178.0151	1182.6153	1210.187	1244.6697	1273.2401	1349.1112	1437.9057	1447.7781	1475.4572	1482.6775	1495.3374	1498.9555	1500.9929	1590.6434	1779.9242	1795.3556	3027.5386	3044.3419	3056.8536	3078.8881	3133.8792	3153.4443	3155.1347	3166.9322	3565.7712
CNC(=O)CC(=O)OC	CNC(=O)CC(=O)OC	
InChI=1S/C5H9NO3/c1-6-4(7)3-5(8)9-2/h3H2,1-2H3,(H,6,7)	InChI=1S/C5H9NO3/c1-6-4(7)3-5(8)9-2/h3H2,1-2H3,(H,6,7)
