18
gdb 82465	3.29432	1.61933	1.4126	3.1211	70.12	-0.2276	0.0634	0.291	962.4606	0.149272	-439.027813	-439.020724	-439.01978	-439.058874	29.39	
C	-0.1051316482	 1.4939325595	 0.064697598	-0.514247
C	-0.0164447543	-0.0004246431	 0.0684639151	 0.470449
O	-1.2572915629	-0.7178013408	 0.1867301211	-0.325244
C	-0.4207708297	-1.8773420434	 0.4756690987	 0.009043
C	 0.7113304184	-0.9408481002	 1.0534792419	-0.116451
N	 1.9049156007	-1.1121974417	 0.1758893714	-0.35268
C	 0.9347729519	-0.8088396448	-0.9391424571	-0.173831
C	 0.1738282323	-2.1589607547	-0.9311077593	 0.205007
O	 0.9960118027	-3.2820697617	-1.0590029799	-0.452301
H	 0.8954090346	 1.9386932573	 0.0623930288	 0.120264
H	-0.633332953	 1.8437765296	-0.8283891828	 0.138011
H	-0.6452177274	 1.8511659282	 0.9461748066	 0.135283
H	-0.9148054011	-2.6714996708	 1.0310405977	 0.087829
H	 0.8308772091	-0.8065960619	 2.1274181576	 0.085308
H	 2.5262296826	-0.3182175637	 0.3170290261	 0.225284
H	 1.3342156817	-0.4177501696	-1.8733776454	 0.07612
H	-0.6268562391	-2.2178425849	-1.6697631716	 0.094276
H	 1.8065478617	-3.0466651734	-0.5785116867	 0.28788
183.6775	210.259	246.4762	303.8814	352.8988	493.2716	517.9452	546.9528	601.2896	677.2189	710.0722	764.3663	802.5809	845.1137	856.3475	888.0936	906.7467	937.064	950.676	983.6092	999.7143	1031.7112	1098.728	1125.0151	1144.8958	1147.7399	1152.5832	1170.9042	1227.5737	1260.9263	1267.5407	1289.5783	1325.1942	1336.2063	1372.9278	1417.3751	1449.1223	1475.2204	1493.5752	3036.7153	3105.6031	3110.923	3115.3056	3132.7993	3138.1135	3154.1261	3487.7738	3676.3957
CC12OC3C1NC2C3O	C[C@]12O[C@@H]3[C@H]1N[C@H]2[C@H]3O	
InChI=1S/C6H9NO2/c1-6-4-2(8)3(9-6)5(6)7-4/h2-5,7-8H,1H3	InChI=1S/C6H9NO2/c1-6-4-2(8)3(9-6)5(6)7-4/h2-5,7-8H,1H3/t2-,3-,4-,5+,6+/m0/s1
