20
gdb 86725	3.07697	1.09852	0.84514	4.1979	87.32	-0.2034	0.0026	0.206	1384.2268	0.17073	-403.198085	-403.188704	-403.18776	-403.232672	34.162	
C	-0.1969434126	 1.5375707002	 0.0190524551	-0.40096
C	 0.0634704695	 0.0262699221	 0.0123857837	-0.084232
C	 0.9526823739	-0.4250292982	-1.1823842214	-0.19306
N	 1.9314624341	-1.3438988503	-0.5828848422	-0.056578
C	 2.8261616929	-2.1090904567	-1.2656561018	 0.140746
O	 3.6551771337	-2.8347364872	-0.7540728696	-0.336236
C	 1.8414659584	-1.2675482798	 0.8156367374	-0.103332
C	 0.828343349	-0.4987034129	 1.2225733932	 0.238337
C	 0.4177370333	-0.2203016121	 2.6307238857	-0.49227
H	 0.742685579	 2.0956648486	 0.0941385048	 0.12093
H	-0.7054543986	 1.8511186849	-0.8988122404	 0.118552
H	-0.8312343525	 1.8263716514	 0.8623690945	 0.122191
H	-0.9120157116	-0.4809312114	-0.036358023	 0.085939
H	 0.3856047504	-0.9211536638	-1.9741453055	 0.123096
H	 1.4668742967	 0.4386177597	-1.6231865888	 0.116512
H	 2.7087090553	-1.9971275391	-2.3616041665	 0.068183
H	 2.5608513417	-1.827735944	 1.3943708438	 0.14975
H	 1.0648437662	-0.7393467005	 3.3428097068	 0.130216
H	 0.4546630512	 0.8511405504	 2.8645961922	 0.128016
H	-0.6155084999	-0.5439669211	 2.8165469719	 0.124198
43.6799	119.7882	183.35	186.5041	218.7054	241.1023	248.4805	323.9275	362.2413	403.2647	495.7897	571.1321	586.8567	743.714	783.0166	895.2374	909.7082	926.0622	947.4938	1016.2416	1018.4979	1035.9176	1072.2073	1116.9118	1135.4226	1178.7594	1228.7388	1252.2196	1280.9524	1317.95	1335.8237	1362.3308	1408.1286	1412.9197	1440.0899	1450.7139	1475.9617	1490.2933	1497.9003	1501.0908	1515.6481	1724.7704	1785.5901	2936.8259	2980.5744	3010.5815	3019.2386	3031.6787	3053.3858	3088.5133	3099.9955	3108.4555	3111.2394	3256.2342
CC1CN(C=O)C=C1C	C[C@H]1CN(C=O)C=C1C	
InChI=1S/C7H11NO/c1-6-3-8(5-9)4-7(6)2/h3,5,7H,4H2,1-2H3	InChI=1S/C7H11NO/c1-6-3-8(5-9)4-7(6)2/h3,5,7H,4H2,1-2H3/t7-/m0/s1
