18
gdb 37711	3.57013	1.96747	1.5146	1.5913	80.43	-0.2247	0.0045	0.2293	889.6534	0.150427	-364.724387	-364.718274	-364.717329	-364.754355	26.616	
C	-0.0835592658	 1.5852384236	 0.0278849325	-0.339409
C	 1.4181419924	 1.2299353999	 0.0212339764	-0.016046
C	 1.2572520661	 0.05767371	 1.0175237738	-0.089809
C	 1.8726666771	-0.9306717586	 0.0255623531	 0.004052
C	 1.2505169374	-2.3313902486	-0.036781343	-0.287655
C	-0.2642762113	-2.2942058514	 0.0086029491	-0.073215
C	-0.9040671964	-1.1236553455	 0.0667623031	-0.191996
C	-0.0119311575	 0.0580160191	 0.097957707	 0.346865
N	 1.1715481802	 0.0384896523	-0.9321588335	-0.185468
H	-0.4660741401	 2.1044301898	 0.9108551284	 0.09856
H	-0.4818885736	 2.0105959362	-0.8976060551	 0.109361
H	 2.2808039225	 1.8828837419	-0.121060696	 0.078745
H	 1.2719396125	 0.0796307419	 2.1131941517	 0.059924
H	 2.9626100376	-0.9537494157	-0.0867404568	 0.062215
H	 1.5754551765	-2.8300481815	-0.9604120438	 0.122189
H	 1.6376673799	-2.9498840295	 0.7853973103	 0.110155
H	-0.7991636398	-3.2391157246	-0.0208074382	 0.094923
H	-1.9841529375	-1.0299086193	 0.0914923713	 0.096609
229.2042	288.5662	395.8698	426.8358	482.4283	539.1251	608.0421	652.1033	741.8634	745.9932	822.71	851.2555	857.4319	875.1266	902.5407	934.2031	936.2742	962.4729	985.9295	1022.4183	1035.8774	1053.8582	1098.139	1111.536	1139.1727	1158.9757	1170.3302	1184.7809	1211.5908	1224.1543	1276.0039	1284.7745	1296.5	1330.8348	1381.5069	1419.1012	1457.6325	1495.5718	1683.1002	3008.2378	3033.3572	3035.5227	3045.6442	3052.7305	3102.922	3117.7423	3165.533	3194.1559
C1C2C3C4CC=CC13N24	C1[C@H]2[C@@H]3[C@H]4CC=C[C@@]13N24	
InChI=1S/C8H9N/c1-2-5-7-6-4-8(7,3-1)9(5)6/h1,3,5-7H,2,4H2	InChI=1S/C8H9N/c1-2-5-7-6-4-8(7,3-1)9(5)6/h1,3,5-7H,2,4H2/t5-,6+,7+,8-/m1/s1
