21
gdb 94648	3.6312	0.79494	0.72406	4.2744	80.13	-0.2748	0.0114	0.2862	1605.5017	0.181518	-424.240314	-424.230615	-424.229671	-424.276406	34.618	
C	-0.1258843583	 1.4889352501	-0.1595404477	-0.398274
C	 0.0567060122	-0.0243200059	-0.0454521117	-0.008044
C	 1.3710446873	-0.5442685726	-0.7028277304	-0.21968
C	 2.0260394565	-0.6150120033	 0.7032241502	-0.233094
C	 0.6041495975	-0.5547481773	 1.3239576561	 0.036668
C	 0.3757936506	 0.2535509411	 2.5861401109	-0.121476
O	 0.9820766341	-0.4120468612	 3.7067189387	-0.176329
C	 2.0261248853	 0.1766529834	 4.3148039868	 0.173356
O	 2.6053408962	-0.3183610392	 5.2344892458	-0.277284
H	 0.7801167161	 2.034446297	 0.1277669772	 0.115108
H	-0.3537501686	 1.7633814974	-1.1949221192	 0.120003
H	-0.9488207183	 1.851634615	 0.4661067809	 0.115271
H	-0.8587519932	-0.5207470242	-0.3807609214	 0.071802
H	 1.246893202	-1.5347493698	-1.1482328078	 0.104896
H	 1.8396090252	 0.1113156688	-1.4416575396	 0.097538
H	 2.6376809167	-1.4886168606	 0.9359633974	 0.110875
H	 2.6106405177	 0.2828263403	 0.9296110493	 0.097173
H	 0.2310641384	-1.5687815298	 1.4993988196	 0.0904
H	 0.7855043218	 1.2675426863	 2.4951126635	 0.106308
H	-0.6918124978	 0.3397721099	 2.8149185012	 0.121885
H	 2.2792943387	 1.1618129245	 3.8742271802	 0.072899
35.5801	52.7265	109.4549	134.7791	185.5562	259.9208	263.0356	342.1104	382.5981	398.744	459.2027	659.667	694.8839	764.6426	816.4524	881.953	891.9574	918.2988	955.6472	992.0157	1021.2756	1035.3892	1045.7128	1084.5562	1126.5795	1141.9279	1167.4205	1206.3392	1219.7588	1258.5267	1264.0664	1279.7878	1286.8646	1308.989	1366.4105	1370.9786	1403.4346	1412.2887	1434.486	1481.6781	1495.991	1497.7324	1501.5174	1507.9463	1864.9449	2936.183	3021.495	3028.0167	3045.4603	3050.8664	3057.4103	3063.0888	3078.608	3093.4539	3095.6789	3103.8442	3119.3655
CC1CCC1COC=O	C[C@H]1CC[C@H]1COC=O	
InChI=1S/C7H12O2/c1-6-2-3-7(6)4-9-5-8/h5-7H,2-4H2,1H3	InChI=1S/C7H12O2/c1-6-2-3-7(6)4-9-5-8/h5-7H,2-4H2,1H3/t6-,7-/m0/s1
