21
gdb 41697	2.9555	1.74581	1.47965	1.626	80.4	-0.2386	0.0856	0.3241	976.5987	0.186758	-387.074334	-387.067528	-387.066584	-387.105192	28.856	
C	 0.0593790182	 1.5910520943	 0.0399428669	-0.103109
O	 1.4423113533	 1.5288942172	-0.3701589579	-0.293385
C	 1.3468501269	 0.1003464001	-0.6179342525	 0.133186
C	 2.4910943178	-0.7069719412	 0.0085056084	-0.233221
C	 2.1232230817	-1.214040669	 1.4099984336	-0.005904
C	 1.3939209775	-0.1046095711	 2.2186635227	-0.23499
C	 0.090970834	-0.56761698	 1.4975912896	-0.025706
C	 0.7610699664	-1.9659588674	 1.3628793773	-0.226564
C	-0.0293346413	 0.0550330406	 0.1068415439	-0.048442
H	-0.0670779037	 2.1387321485	 0.9815620134	 0.100547
H	-0.5723699755	 2.0522259896	-0.7311642027	 0.095109
H	 1.2818550717	-0.0819895582	-1.6988933543	 0.067688
H	 2.7404153402	-1.559808422	-0.6350314072	 0.092481
H	 3.3758484378	-0.0601880646	 0.0432223543	 0.111579
H	 2.9677981589	-1.7229025002	 1.8807481649	 0.057804
H	 1.3552600565	-0.3436162404	 3.284759565	 0.092035
H	 1.7297261342	 0.9255518314	 2.0857121196	 0.113189
H	-0.8504327079	-0.4938966889	 2.0494964432	 0.058431
H	 0.5306748048	-2.5614928485	 0.4725977152	 0.084401
H	 0.6048458745	-2.5783563316	 2.2546930568	 0.095611
H	-0.849825196	-0.4027664086	-0.4522513702	 0.06926
149.5773	220.4978	312.6722	360.3932	409.8012	436.3378	480.1978	619.1355	758.91	777.2259	822.0354	846.8953	853.3178	858.6689	906.8622	930.3405	942.1743	946.9848	990.9991	1010.7935	1019.873	1079.2611	1090.2605	1098.7104	1102.0878	1108.8759	1132.9558	1153.4762	1173.3571	1220.5717	1250.143	1254.1652	1272.6829	1279.4952	1300.1851	1316.9437	1338.7925	1353.9698	1361.9983	1383.0703	1389.1653	1469.5794	1479.9429	1509.0905	1519.7183	2999.0271	3006.4407	3027.2154	3038.3528	3051.0469	3055.716	3064.0434	3068.1543	3073.0497	3077.4483	3101.5645	3122.9643
C1OC2CC3CC(C3)C12	C1O[C@H]2C[C@H]3C[C@H](C3)[C@@H]12	
InChI=1S/C8H12O/c1-5-2-6(1)7-4-9-8(7)3-5/h5-8H,1-4H2	InChI=1S/C8H12O/c1-5-2-6(1)7-4-9-8(7)3-5/h5-8H,1-4H2/t5-,6+,7-,8+/m1/s1
