15
gdb 131528	3.78085	1.32518	1.03123	0.6229	69.57	-0.2019	-0.0021	0.1999	1097.4748	0.114314	-450.08511	-450.077311	-450.076367	-450.117746	28.954	
O	 0.4642035009	 1.2330587114	 0.3710229604	-0.41073
C	 0.0743561384	-0.055520105	 0.0142450854	 0.019654
C	-1.4860710573	-0.386040475	-0.0536039581	-0.207593
N	-1.2876994861	-0.6416500581	-1.4920602033	-0.072128
C	 0.0675787315	-0.4751423789	-1.4589010693	 0.324192
N	 0.6959979841	-0.9088034896	-2.4977541141	-0.3208
N	-0.3781793325	-1.3596581213	-3.2866734179	-0.322548
C	-1.6254984908	-1.3777021256	-2.6258528049	 0.399115
N	-2.7696212463	-1.8511718541	-2.9254737771	-0.59463
H	 0.1139325639	 1.8555081472	-0.2764191232	 0.295862
H	 0.6277630009	-0.7392631998	 0.6608620314	 0.134181
H	-1.7965522295	-1.2674216252	 0.512795105	 0.14315
H	-2.1449524677	 0.4579930787	 0.1629410047	 0.133165
H	-0.1516455148	-1.9637936829	-4.0583907966	 0.2687
H	-2.7480889447	-2.343037002	-3.8156350026	 0.21041
78.9608	109.8168	204.9899	253.4636	317.9322	363.2923	395.9056	463.3362	575.4813	653.2773	696.8691	713.2955	720.2802	776.885	794.9892	873.1741	982.4409	1004.5257	1040.1459	1072.5273	1137.7024	1160.7954	1208.0652	1222.696	1248.8454	1299.7995	1359.9939	1372.2541	1413.422	1438.4614	1508.4867	1670.3534	1750.2152	3066.0748	3106.0074	3128.1909	3518.5167	3674.362	3802.0052
OC1CN2C1=NNC2=N	O[C@H]1CN2[C]1[N]N[C]2[NH]	
InChI=1S/C4H6N4O/c5-4-7-6-3-2(9)1-8(3)4/h2,9H,1H2,(H2,5,7)	InChI=1S/C4H6N4O/c5-4-7-6-3-2(9)1-8(3)4/h2,9H,1H2,(H2,5,7)/t2-/m0/s1
