24
gdb 119144	2.2111	1.00742	0.86839	2.3011	85.19	-0.2375	0.0747	0.3121	1524.4878	0.215816	-405.526894	-405.515944	-405.515	-405.563074	40.351	
C	-3.0203675766	 1.4500204621	-0.6653003876	-0.383116
C	-2.982194529	-0.0800367573	-0.602100007	-0.18911
C	-1.7459096285	-0.5992880426	 0.1423628808	-0.271551
C	-1.5182133269	-2.1062664463	 0.1572270929	 0.321854
C	-2.620711106	-3.0573618375	-0.1331711741	-0.283995
N	-1.516736116	-2.8775520602	-1.0998480051	-0.354154
C	-0.4215461846	-2.5897572556	 1.1119113446	 0.10024
C	 0.9705664667	-2.0872737364	 0.7319597499	-0.427338
O	-0.7463793622	-2.2850887909	 2.4674948007	-0.438695
H	-3.915233278	 1.8041050648	-1.1859785631	 0.114312
H	-3.0249633234	 1.8859695166	 0.3397632622	 0.117011
H	-2.1467667473	 1.8473381941	-1.1937018596	 0.115919
H	-3.8898325006	-0.4445868502	-0.1080818013	 0.108889
H	-3.0060591791	-0.4791733063	-1.6252430147	 0.092184
H	-0.8546611891	-0.1174722127	-0.2841036738	 0.099669
H	-1.8053820008	-0.2607506279	 1.1849443634	 0.096565
H	-2.6417325072	-4.023890591	 0.3635194183	 0.115154
H	-3.5994802447	-2.6672680063	-0.3928995253	 0.109011
H	-1.8332150077	-2.2954470938	-1.8719052964	 0.224641
H	-0.4179238772	-3.6836569696	 1.0540303595	 0.090337
H	 1.0437000957	-0.996358258	 0.8220171394	 0.104603
H	 1.7238336358	-2.5308943172	 1.3890763955	 0.121268
H	 1.2018498928	-2.3586188413	-0.3016790995	 0.137479
H	-0.4110644359	-1.4047181366	 2.6632322305	 0.278823
62.3273	79.7373	98.0447	147.3476	217.8124	228.3744	244.1949	269.8333	272.3229	312.6917	344.3758	359.7692	478.1043	520.098	548.0335	716.5076	751.9437	837.1208	856.507	901.4309	916.9847	928.9116	963.4138	985.0047	1016.8336	1050.5261	1054.1388	1082.4854	1115.7669	1122.5085	1132.0846	1157.5566	1256.4835	1269.9075	1289.3337	1299.612	1320.634	1338.5746	1349.9667	1396.6772	1405.8234	1408.7378	1412.75	1422.5625	1482.5586	1491.2945	1497.082	1498.6916	1499.9054	1508.6851	1520.2193	3004.1606	3014.7226	3029.3879	3031.2539	3039.9044	3051.5363	3063.2651	3098.9227	3100.2797	3104.9801	3115.0563	3124.9218	3199.9114	3492.0893	3819.6275
CCCC1(CN1)C(C)O	CCC[C@]1(CN1)[C@@H](C)O	
InChI=1S/C7H15NO/c1-3-4-7(5-8-7)6(2)9/h6,8-9H,3-5H2,1-2H3	InChI=1S/C7H15NO/c1-3-4-7(5-8-7)6(2)9/h6,8-9H,3-5H2,1-2H3/t6-,7+/m1/s1
