17
gdb 109491	2.16903	1.68699	0.986	1.8015	70.78	-0.2332	-0.0469	0.1863	1166.9882	0.135723	-455.158918	-455.150279	-455.149335	-455.192792	31.311	
C	 0.1297220266	 1.6144691623	-0.030832611	-0.32591
N	 0.0645983168	 0.158346778	 0.0591189774	-0.294595
C	 0.5280693455	-0.5347431786	-1.1156934124	-0.176263
C	 0.8784358482	-1.9880384477	-0.8205725689	 0.371237
O	 1.3782883827	-2.4113650571	 0.1857021169	-0.300778
C	 0.4381999261	-2.7987929543	-2.0340536177	-0.193543
O	-0.3661154476	-1.9190172141	-2.8193837978	-0.244341
C	-0.4582312367	-0.6625670461	-2.2629596602	 0.432932
N	-1.2245678378	 0.2407041042	-2.6862487847	-0.521959
H	 1.1412913402	 1.9974962816	-0.2566912637	 0.091371
H	-0.5475938216	 1.9550998691	-0.8164463069	 0.164591
H	-0.1965196022	 2.0433401174	 0.9204157008	 0.119605
H	 0.6081779679	-0.1813244861	 0.8470517085	 0.23398
H	 1.4537786933	-0.0972335128	-1.5559206834	 0.113245
H	 1.3023760359	-3.1406996441	-2.6163066021	 0.148274
H	-0.145381408	-3.673100585	-1.7281770169	 0.153861
H	-1.7917087293	-0.0968543669	-3.466137968	 0.228294
55.2525	125.9576	143.7388	187.0133	214.4685	296.9516	325.4082	410.1717	494.6884	546.9962	590.592	648.311	686.5888	765.5618	801.7569	893.3652	920.8481	973.1956	1006.5708	1035.4428	1098.5861	1144.3557	1146.5665	1165.767	1200.0296	1216.2874	1260.5637	1269.3912	1341.5343	1379.8908	1458.0033	1483.3065	1483.9038	1501.859	1523.8816	1788.6058	1871.5009	2839.1076	2944.7206	3037.9192	3085.3603	3087.9943	3137.9336	3471.8006	3513.7056
CNC1C(=O)COC1=N	CN[C@H]1C(=O)CO[C]1[NH]	
InChI=1S/C5H8N2O2/c1-7-4-3(8)2-9-5(4)6/h4,6-7H,2H2,1H3	InChI=1S/C5H8N2O2/c1-7-4-3(8)2-9-5(4)6/h4,6-7H,2H2,1H3/t4-/m0/s1
