19
gdb 122729	9.50881	0.41272	0.39949	1.9514	96.18	-0.241	-0.0095	0.2315	2630.5453	0.155742	-385.828272	-385.817486	-385.816542	-385.865499	37.018	
C	-0.0036555847	 1.404131972	 0.0092370754	-0.230364
O	 0.0121605152	-0.0030730591	 0.0012896761	-0.231682
C	-1.2782598588	-0.5674315422	 0.0111453563	-0.049326
C	-1.1390105876	-2.0841163151	 0.0014216362	-0.189251
C	-2.5131193707	-2.7849853897	 0.0113608109	-0.397864
C	-2.4117696058	-4.2356826031	 0.0023945946	 0.337614
C	-2.311750421	-5.4417975499	-0.0050322816	-0.189645
C	-2.1982941994	-6.7978768227	-0.0135391901	 0.289281
C	-2.0977112308	-8.0013260113	-0.0211522006	-0.557568
H	 1.034983996	 1.7430876797	 0.0006204472	 0.129119
H	-0.518461799	 1.8128536959	-0.8750298744	 0.103811
H	-0.5004485191	 1.8029850064	 0.9081925988	 0.103811
H	-1.8374588599	-0.2377632033	 0.9053790672	 0.084477
H	-1.8552553766	-0.2280206838	-0.86801047	 0.084478
H	-0.5749735151	-2.3882948818	-0.885580675	 0.124339
H	-0.5573124469	-2.3979406534	 0.8735326981	 0.12434
H	-3.082363978	-2.4682696647	 0.8961766242	 0.137795
H	-3.0999603278	-2.4586775831	-0.8583418604	 0.137789
H	-2.00794646	-9.0589819507	-0.0277739229	 0.188846
43.4413	52.037	88.293	116.9319	152.1921	163.4576	227.2147	228.114	344.0188	356.0661	403.452	502.6248	534.4554	543.2781	590.1854	595.1607	737.1309	753.4361	865.1369	977.8907	1036.8956	1068.4361	1112.8832	1165.1309	1179.6812	1180.0919	1221.6107	1223.8457	1279.2391	1295.7304	1308.0025	1365.5949	1428.0662	1468.6416	1480.6165	1484.5753	1496.5606	1505.8989	1532.163	2182.5871	2365.8458	2935.0147	2959.901	2968.7482	3007.5859	3010.8718	3036.3427	3059.3061	3106.1354	3115.5054	3506.7481
COCCCC#CC#C	COCCCC#CC#C	
InChI=1S/C8H10O/c1-3-4-5-6-7-8-9-2/h1H,6-8H2,2H3	InChI=1S/C8H10O/c1-3-4-5-6-7-8-9-2/h1H,6-8H2,2H3
