18
gdb 53459	3.54082	0.57684	0.51574	2.0111	90.48	-0.2314	0.0347	0.2661	2131.8588	0.145907	-364.729119	-364.718755	-364.717811	-364.768307	34.786	
C	-0.1412702299	 1.3037486821	-0.7132601613	-0.49592
C	-0.1099281868	-0.0611986479	-0.2078595681	 0.065042
C	-0.0865345135	-1.1885755278	 0.210555451	 0.084276
C	-0.0490779654	-2.5614340229	 0.7206848852	-0.498747
C	-1.2939491953	-3.3048316051	 0.5116494778	 0.078126
C	-2.3194739166	-3.914532957	 0.3444788867	 0.092889
C	-3.5278830035	-4.6625319195	 0.1403619961	-0.157731
C	-4.5643986381	-4.1579575783	-0.8101685276	-0.225873
N	-3.7737689537	-5.3426882458	-1.1568730649	-0.308399
H	 0.6212176497	 1.4614072957	-1.48396213	 0.148157
H	-1.1147325164	 1.5387945986	-1.1574917115	 0.149906
H	 0.041067957	 2.0292384463	 0.0871116095	 0.148671
H	 0.7833661132	-3.1049955924	 0.2513660362	 0.156508
H	 0.1824340727	-2.5481923232	 1.7952183734	 0.158753
H	-3.8641404773	-5.2463705227	 0.9934973547	 0.115516
H	-5.6125407368	-4.3507824199	-0.5995871062	 0.124124
H	-4.3595115881	-3.2192976	-1.3160364089	 0.12521
H	-3.0342551914	-5.0800270402	-1.8044362221	 0.239494
14.9492	18.7061	48.9566	124.7359	143.7553	196.6733	246.6842	301.0049	351.2277	373.4908	437.9219	524.8946	562.7961	723.5543	766.3137	813.1739	877.8363	928.9945	961.2593	994.3867	1052.9758	1054.1793	1079.6163	1119.2699	1150.7543	1166.8756	1216.9184	1231.0446	1257.4706	1299.3205	1338.3899	1397.4229	1414.7597	1452.7045	1478.2788	1478.7877	1505.5293	2365.8599	2382.3525	3001.4878	3023.8032	3027.9271	3088.8186	3089.305	3114.7679	3137.3322	3205.7176	3502.8657
CC#CCC#CC1CN1	CC#CCC#C[C@H]1CN1	
InChI=1S/C8H9N/c1-2-3-4-5-6-8-7-9-8/h8-9H,4,7H2,1H3	InChI=1S/C8H9N/c1-2-3-4-5-6-8-7-9-8/h8-9H,4,7H2,1H3/t8-/m0/s1
