15
gdb 29058	2.74098	1.76164	1.0724	1.6473	87.51	-0.212	-0.0679	0.144	1048.1124	0.115524	-413.011587	-413.004217	-413.003273	-413.043669	28.426	
N	 0.0093260319	 1.3291006342	 0.0085452647	-0.489045
C	-0.0183752742	-0.0098453334	 0.0005978755	 0.376033
N	-1.1922180176	-0.5903136441	 0.0041188245	-0.369304
C	-1.4357164915	-1.9165108841	-0.0016493611	 0.007807
C	-0.6005812239	-3.0059353067	-0.0118271027	-0.031934
N	 0.7547477796	-3.0588769689	-0.0192143704	-0.246827
C	 1.5673019951	-2.053947103	-0.018519876	-0.046583
C	 1.3578009543	-0.6101862387	-0.0103448677	 0.241276
N	 2.327415265	 0.2421781598	-0.0124060989	-0.538008
H	 0.9140987008	 1.7781828868	 0.0057073779	 0.288762
H	-0.8588611155	 1.8362780707	 0.0161061156	 0.269012
H	-2.5004035142	-2.1501903125	 0.0028403634	 0.109057
H	-1.0816693121	-3.9808243091	-0.0143614482	 0.104201
H	 2.630205423	-2.3154494053	-0.0256341239	 0.101156
H	 3.2328689592	-0.2301879156	-0.0202875528	 0.224398
62.1491	151.9643	344.1273	356.3766	387.963	397.3726	435.7702	467.6485	498.0188	640.5657	677.641	690.0334	759.7699	779.2345	847.3109	871.7222	884.5783	950.6776	959.4978	982.3885	1067.4375	1119.1898	1253.0994	1326.0759	1369.8888	1435.0174	1450.4072	1474.4785	1518.2427	1569.5687	1596.0188	1636.4829	1648.1571	3072.3243	3123.8879	3159.9837	3458.026	3559.7948	3726.1682
NC1=NC=CN=CC1=N	NC1=NC=C[N]C=C1[NH]	
InChI=1S/C5H6N4/c6-4-3-8-1-2-9-5(4)7/h1-3H,(H3,6,7,9)	InChI=1S/C5H6N4/c6-4-3-8-1-2-9-5(4)7/h1-3H,(H3,6,7,9)
