21
gdb 97597	4.46569	0.57241	0.53451	0.8092	95.58	-0.2438	0.0452	0.289	2121.7795	0.179162	-349.907594	-349.896397	-349.895452	-349.945762	39.452	
C	 0.2409330659	 1.4674827646	 0.3272551482	-0.362992
C	-0.3069977204	 0.1369744424	-0.2206759106	-0.314447
C	 0.4510123913	-0.3685812401	-1.3613542666	 0.095191
C	 1.101890553	-0.7635453498	-2.2956934183	 0.038861
C	 1.861295578	-1.263413428	-3.440987385	-0.159511
C	 2.2530479709	-2.7412190185	-3.2578242102	-0.383014
C	 1.051114022	-1.0393617949	-4.7533743897	-0.345886
C	 1.8030179019	-1.3734426257	-5.9561605478	 0.303504
C	 2.4446923078	-1.6452976098	-6.9360309975	-0.449058
H	 1.2772780623	 1.3540353492	 0.6567479086	 0.127708
H	 0.2156278277	 2.2441030471	-0.4419747097	 0.126969
H	-0.3571654617	 1.8053843051	 1.1788981371	 0.113438
H	-0.3070566397	-0.6152460958	 0.5787866156	 0.127868
H	-1.3580576439	 0.2659252204	-0.5099627396	 0.127144
H	 2.7840267679	-0.6752048928	-3.5317819123	 0.112566
H	 2.8263654392	-3.0902721204	-4.1206672703	 0.130029
H	 2.8584187173	-2.8691855542	-2.3570229262	 0.122629
H	 1.3598292067	-3.3657587139	-3.1566101884	 0.120904
H	 0.1330073005	-1.6379319174	-4.7058351631	 0.135585
H	 0.7338351858	 0.0085006668	-4.7962656942	 0.137823
H	 2.9987762372	-1.8834381042	-7.8098321	 0.194689
15.9804	58.1646	79.3039	118.04	162.8386	201.6507	215.1854	251.9101	318.8663	335.6171	354.7237	459.676	489.1288	527.1545	535.6939	615.7004	644.517	734.7385	785.8571	850.576	893.2378	946.7369	976.0356	1028.4328	1077.0281	1093.1525	1102.7037	1109.8906	1179.7539	1240.9774	1286.0056	1289.2196	1336.7383	1349.1666	1363.1419	1406.5445	1408.1208	1469.3983	1476.5953	1494.3746	1496.2932	1498.1777	1505.9245	2235.6242	2362.2824	3016.34	3018.3416	3033.375	3043.6469	3043.9252	3044.7844	3070.3271	3116.8756	3116.941	3123.2968	3127.9592	3506.3495
CCC#CC(C)CC#C	CCC#C[C@@H](C)CC#C	
InChI=1S/C9H12/c1-4-6-8-9(3)7-5-2/h2,9H,4,7H2,1,3H3	InChI=1S/C9H12/c1-4-6-8-9(3)7-5-2/h2,9H,4,7H2,1,3H3/t9-/m0/s1
