14
gdb 130235	3.2694	1.42603	0.99414	2.5385	71.26	-0.2224	-0.0508	0.1716	1100.5539	0.102133	-470.002859	-469.995352	-469.994408	-470.034672	29.209	
N	 0.0895078648	 1.4133384347	 0.1546754096	-0.56083
C	 0.0291100851	 0.0413295366	-0.0358168325	 0.41983
N	-1.1622614038	-0.4666874525	-0.154140715	-0.209875
O	-1.2176112911	-1.8510373558	-0.4682897715	-0.273613
C	-0.1238413245	-2.6286084494	-0.5590968086	 0.367267
N	-0.1493950311	-3.8812344322	-0.80519863	-0.587083
C	 1.1935480305	-2.0070755862	-0.3787021681	 0.36186
O	 2.2277206505	-2.8328672601	-0.4926908769	-0.405228
C	 1.2702963112	-0.685457535	-0.1328668548	-0.307657
H	 0.8180122223	 1.7234273302	 0.781666247	 0.257746
H	-0.8103371216	 1.8231807231	 0.3678910506	 0.263373
H	-1.0924497158	-4.2449944309	-0.9234555562	 0.238287
H	 1.8217489719	-3.7066157862	-0.6827338343	 0.315233
H	 2.2184665316	-0.1741765464	-0.0255183394	 0.120688
113.4917	188.7025	294.7058	324.4739	343.4942	376.2738	416.9525	471.3239	511.1743	596.6747	619.891	701.9788	709.9231	722.767	772.4377	823.7799	827.1162	867.2248	920.3015	1025.3814	1095.2571	1160.9149	1226.4532	1254.7129	1361.5941	1451.7883	1500.4707	1606.0117	1643.8208	1693.7233	1745.3979	3212.4839	3509.5209	3525.4779	3554.682	3661.0253
NC1=NOC(=N)C(O)=C1	NC1=NOC(=C(O)[CH]1)[NH]	
InChI=1S/C4H5N3O2/c5-3-1-2(8)4(6)9-7-3/h1,6,8H,(H2,5,7)	InChI=1S/C4H5N3O2/c5-3-1-2(8)4(6)9-7-3/h1,6,8H,(H2,5,7)
