20
gdb 22937	2.49483	1.48858	1.0656	0.9197	82.77	-0.2269	0.0182	0.2451	1176.5695	0.17119	-403.121722	-403.113055	-403.112111	-403.154603	33.937	
C	-0.2885443914	 1.4671177013	-0.0657666765	-0.481065
C	-0.0042775634	-0.0134936519	-0.021255932	 0.276238
C	-0.7174518665	-0.8999291543	 0.9948172409	-0.328782
C	 0.7689930283	-0.7129996203	 1.0909422503	-0.074556
C	 1.647455947	-1.8002339876	 0.4815980261	-0.228798
C	 1.1119239253	-2.0079392288	-0.9570205882	-0.327655
C	 0.366959844	-0.7268423075	-1.2739936802	 0.372577
N	 0.1180608967	-0.2209512849	-2.416825781	-0.254654
O	 0.5919386098	-1.0460156378	-3.4582881922	-0.396922
H	 0.5562088651	 2.0177064773	-0.4919159146	 0.122287
H	-1.1632050551	 1.6764237	-0.6891883365	 0.132377
H	-0.4828978572	 1.856868191	 0.9380725375	 0.106656
H	-1.3355500994	-0.3803542879	 1.7191957031	 0.114012
H	-1.1166126132	-1.8591029497	 0.6804336186	 0.112812
H	 1.1611156329	-0.1346422001	 1.9207200447	 0.085527
H	 2.6848742437	-1.4502121613	 0.4465772841	 0.107189
H	 1.6396781655	-2.7260695807	 1.066193809	 0.101437
H	 1.899006556	-2.1898758837	-1.6911533937	 0.133422
H	 0.429028952	-2.8631152661	-1.0223244117	 0.124442
H	 0.3810201598	-0.5226789768	-4.238368768	 0.303457
101.0797	184.8182	194.0561	223.4742	227.6319	302.9815	359.0038	404.9369	428.6021	482.3598	536.7545	604.4903	649.0191	732.5595	808.2381	816.1768	846.5846	886.3462	938.7282	960.4035	974.4886	1005.504	1051.2637	1058.7825	1074.345	1101.2691	1117.5436	1145.4486	1184.8471	1229.1954	1271.9288	1295.9269	1329.0494	1338.5273	1389.353	1417.0556	1425.0844	1473.6388	1482.177	1490.0118	1500.8209	1505.3975	1744.6507	3035.9763	3040.8622	3044.6876	3078.1991	3102.824	3108.4998	3113.7968	3125.8264	3165.7713	3210.5796	3821.9333
CC12CC1CCC2=NO	C[C@]12C[C@H]1CCC2=NO	
InChI=1S/C7H11NO/c1-7-4-5(7)2-3-6(7)8-9/h5,9H,2-4H2,1H3	InChI=1S/C7H11NO/c1-7-4-5(7)2-3-6(7)8-9/h5,9H,2-4H2,1H3/t5-,7+/m1/s1
