22
gdb 95226	3.09511	1.30769	1.03241	1.5683	87.36	-0.2354	0.0147	0.2501	1230.4255	0.196728	-367.199784	-367.191488	-367.190544	-367.232166	33.544	
C	 0.1521898983	 1.6749108201	-0.0182499066	-0.410221
C	-0.0301425344	 0.1540831794	 0.0504729559	-0.004143
C	 0.3843438273	-0.5093843877	-1.2919956382	-0.196364
C	 0.5687447754	-2.038390363	-1.2317258519	-0.211013
C	-0.4887457967	-2.7607592628	-0.4187479643	-0.022401
N	 0.0085331549	-3.8350816431	 0.465550677	-0.343762
C	-0.5218495218	-2.586302239	 1.0593028889	-0.076253
C	 0.4541968161	-1.6691393121	 1.7143684338	-0.075446
C	 0.6836869971	-0.4392487033	 1.2517395127	-0.038619
H	 1.2110677617	 1.936228502	-0.1315760991	 0.114369
H	-0.3876936623	 2.0997159943	-0.870834623	 0.109725
H	-0.2165600333	 2.1618380702	 0.8904723131	 0.112684
H	-1.1011079662	-0.0456641978	 0.1808032376	 0.084432
H	-0.3737189033	-0.2443674646	-2.0399224517	 0.092391
H	 1.3233661498	-0.0636351858	-1.6438487371	 0.094876
H	 0.6016555859	-2.4451765015	-2.249461023	 0.090362
H	 1.5334317282	-2.2714475707	-0.7745578875	 0.119424
H	-1.4461718023	-2.9246785996	-0.9112754719	 0.075099
H	-0.6899526601	-4.5697791956	 0.5485964717	 0.226529
H	-1.4949905206	-2.6630028267	 1.5461719944	 0.086899
H	 0.9865739955	-2.0431943221	 2.5858838739	 0.089958
H	 1.4182314307	 0.1906921296	 1.7508574054	 0.081474
107.3425	195.2769	236.042	249.1493	301.5202	310.9224	346.3056	393.7996	443.2034	562.5173	581.2799	691.2339	739.7569	799.1301	826.1978	830.5446	865.1935	913.3874	927.7292	971.9662	982.7214	991.8121	1002.1851	1043.3443	1075.1674	1107.076	1128.2248	1151.1566	1169.7269	1197.0567	1229.9165	1247.4408	1263.5529	1285.0022	1326.8311	1332.2067	1354.1728	1364.0853	1395.6589	1409.5263	1425.5039	1460.2342	1485.0105	1494.4097	1499.0076	1500.1994	1705.4395	3014.5756	3015.9746	3025.447	3040.9149	3053.5025	3086.6526	3092.2058	3098.7517	3100.725	3118.0532	3132.9478	3159.7613	3495.1215
CC1CCC2NC2C=C1	C[C@H]1CC[C@H]2N[C@H]2C=C1	
InChI=1S/C8H13N/c1-6-2-4-7-8(9-7)5-3-6/h2,4,6-9H,3,5H2,1H3	InChI=1S/C8H13N/c1-6-2-4-7-8(9-7)5-3-6/h2,4,6-9H,3,5H2,1H3/t6-,7+,8-/m1/s1
