16
gdb 124928	2.32487	1.84861	1.04298	3.0379	77.55	-0.2507	-0.0871	0.1636	1102.2	0.121887	-434.041286	-434.03228	-434.031336	-434.076749	31.744	
C	 0.0684131199	 1.5180950426	-0.0081125633	-0.490162
C	-0.0393078436	 0.0189415833	-0.0373032053	 0.254622
C	-1.1830299413	-0.6961041638	 0.0189876142	 0.149799
C	-2.5530623285	-0.1050275561	 0.1257588114	-0.482673
C	-1.0947586346	-2.1562983246	-0.0241427475	 0.379025
N	-2.1285311799	-2.8946589092	 0.0210229426	-0.526832
O	 0.1644185734	-2.6913792466	-0.1168515879	-0.289681
N	 1.3548109844	-1.8493150669	-0.1649584838	 0.034173
N	 1.2065960731	-0.6342038837	-0.126367654	-0.153039
H	 1.1001580117	 1.8118987936	-0.2057793692	 0.153083
H	-0.5774687023	 1.9832222377	-0.7581670759	 0.145904
H	-0.2194694224	 1.9208655887	 0.9691586436	 0.148233
H	-3.1684652086	-0.4329273962	-0.7180619581	 0.161749
H	-3.0528366022	-0.4855056184	 1.0222442055	 0.162332
H	-2.5317713466	 0.9843435149	 0.1592314209	 0.123388
H	-1.8694681124	-3.8813087753	-0.0209336932	 0.230077
14.6085	96.2542	113.7289	126.352	269.988	306.2812	313.925	429.7335	461.047	509.1657	525.1584	612.9042	628.0519	740.7176	755.3523	869.9397	870.6746	914.9715	992.6151	1039.1308	1051.7918	1069.5889	1150.8285	1170.4857	1249.9423	1374.0028	1414.2615	1417.7102	1465.0266	1466.902	1489.0492	1492.1896	1614.5852	1681.3282	1720.8386	3043.7769	3051.2205	3101.8014	3103.5093	3146.0541	3153.029	3483.8744
CC1=C(C)C(=N)ON=N1	CC1=N[N]OC(=C1C)[NH]	
InChI=1S/C5H7N3O/c1-3-4(2)7-8-9-5(3)6/h6H,1-2H3	InChI=1S/C5H7N3O/c1-3-4(2)7-8-9-5(3)6/h6H,1-2H3
