25
gdb 93694	3.04168	1.09995	1.00262	1.2889	88.7	-0.2584	0.0657	0.3241	1361.4682	0.229225	-389.529674	-389.51992	-389.518976	-389.563204	39.129	
C	-0.0554933292	 1.5778977061	 0.011209067	-0.403952
C	 0.0112483845	 0.0479907254	 0.0031448844	 0.053295
C	 0.7088325764	-0.4843861396	-1.259234574	-0.194963
C	 0.7993005676	-2.01612886	-1.2699546873	-0.208425
C	 1.4912470373	-2.5730348218	-0.0154843736	 0.368419
C	 1.4983119085	-4.1047670017	-0.024623898	-0.431784
O	 2.8422052594	-2.0885535048	-0.0820521014	-0.465192
C	 0.7960797895	-2.0282932219	 1.2486401178	-0.235884
C	 0.716072425	-0.4965351302	 1.2562161182	-0.187237
H	 0.9510341174	 2.0129973281	 0.0103183317	 0.112495
H	-0.5816503704	 1.9588377637	-0.8708498144	 0.106717
H	-0.5773149284	 1.9506079718	 0.8994679087	 0.105417
H	-1.020757552	-0.337711831	 0.0053881924	 0.060064
H	 0.1782641803	-0.13926382	-2.1547836807	 0.081468
H	 1.7222456697	-0.0686967427	-1.3100611674	 0.109625
H	-0.2077063374	-2.4485331393	-1.328292601	 0.087023
H	 1.3476672776	-2.359282511	-2.1541467295	 0.09576
H	 2.0242002876	-4.4761699903	-0.9091579777	 0.119059
H	 2.0086525679	-4.4963643283	 0.8640621452	 0.098285
H	 0.4814367999	-4.5107780952	-0.0277822095	 0.111714
H	 3.3041663477	-2.4020684374	 0.7029445584	 0.273044
H	-0.2144590151	-2.4544382975	 1.3062249082	 0.09087
H	 1.3312060498	-2.3890993003	 2.1380355994	 0.074539
H	 1.7330123436	-0.0867203297	 1.2973022721	 0.097668
H	 0.198095023	-0.1544296527	 2.160162411	 0.081977
97.3358	201.3869	237.2701	238.4766	241.5988	258.7543	289.9517	314.0156	319.5287	403.1378	436.2462	445.5362	463.5484	501.4273	608.3515	722.2987	778.0352	794.4766	880.651	915.0919	939.792	946.2324	963.5562	965.1806	1023.6312	1034.9117	1043.0031	1090.9129	1105.1823	1122.9257	1164.0789	1192.3286	1202.4491	1243.7976	1288.6536	1295.4055	1336.8648	1338.1881	1347.6545	1375.2036	1382.5619	1395.1884	1401.5246	1406.6469	1415.4947	1468.342	1479.0314	1482.8871	1492.3569	1494.8659	1496.043	1499.3829	1500.3907	2975.1543	3003.6784	3020.4996	3021.0439	3024.0764	3025.6397	3031.0975	3041.9313	3064.4047	3066.4185	3076.1415	3088.6347	3089.5605	3092.8269	3111.7889	3803.4352
CC1CCC(C)(O)CC1	C[C@H]1CC[C@@](C)(O)CC1	
InChI=1S/C8H16O/c1-7-3-5-8(2,9)6-4-7/h7,9H,3-6H2,1-2H3	InChI=1S/C8H16O/c1-7-3-5-8(2,9)6-4-7/h7,9H,3-6H2,1-2H3/t7-,8+
