25
gdb 58107	2.46684	1.14829	1.05273	1.3943	88.3	-0.256	0.0741	0.3301	1351.8618	0.22662	-389.482526	-389.47158	-389.470636	-389.518119	41.942	
C	-0.0549880886	 1.5493292919	-0.0517972427	-0.419233
C	-0.0192338033	 0.0131923901	 0.0216615043	 0.042336
C	 0.5342083361	-0.5325638009	-1.3047756503	-0.409239
C	 0.7841603304	-0.5126375429	 1.2583424976	 0.369451
C	 0.9596072	-2.0335300051	 1.1850482645	-0.439215
O	 2.1251461427	 0.0102554093	 1.2181454089	-0.472393
C	 0.1057569144	-0.0650656701	 2.554613477	-0.035433
C	-0.8060416634	-0.9414825159	 3.3786012959	-0.273409
C	 0.5488994866	-0.5529452972	 3.9118626946	-0.282652
H	 0.959059922	 1.9546081566	-0.1381502763	 0.115358
H	-0.6110736175	 1.8703093775	-0.9378839906	 0.112455
H	-0.5374603306	 2.0133213475	 0.8128071017	 0.111308
H	-1.0499944586	-0.3473857434	 0.1449894277	 0.069617
H	 1.6003815463	-0.3012664683	-1.3942753992	 0.129443
H	 0.4111932679	-1.6143272209	-1.3963778416	 0.110245
H	 0.0157957721	-0.0717799962	-2.1516307085	 0.102533
H	 1.6688280808	-2.280348557	 0.3934874421	 0.130705
H	 1.366791782	-2.4318331136	 2.1175024931	 0.115456
H	 0.0132651932	-2.5381741297	 0.9719907126	 0.113195
H	 2.1206271003	 0.8703368475	 1.6487307401	 0.2775
H	-0.1837487988	 0.9814707632	 2.539539915	 0.078323
H	-1.6888456851	-0.4891103759	 3.8170792249	 0.108556
H	-0.945004095	-1.9714122754	 3.0713216186	 0.11503
H	 1.3158056931	-1.3174854822	 3.959079134	 0.122171
H	 0.6005040531	 0.1704867011	 4.7183288065	 0.107894
51.5515	67.8843	184.5645	199.8102	231.3631	248.9804	256.8859	274.1547	287.5694	325.5423	374.3339	384.8684	427.4964	455.594	493.6656	590.4242	688.2569	786.2231	819.6094	844.3276	903.1401	924.5424	931.8295	948.083	951.3804	967.3885	1017.9752	1056.7919	1067.2953	1078.7173	1104.1301	1143.876	1151.6383	1173.1418	1190.8468	1199.4815	1212.9725	1243.5185	1339.6798	1343.4863	1368.1248	1392.6242	1399.0276	1414.4894	1426.176	1467.7	1490.0607	1491.9052	1499.7471	1500.8033	1513.2976	1513.5963	1524.3905	3009.7944	3036.0447	3041.6108	3054.0699	3099.4854	3106.1089	3107.4698	3119.291	3123.6198	3136.3624	3137.6866	3139.4565	3148.9433	3213.3884	3227.6612	3828.5268
CC(C)C(C)(O)C1CC1	CC(C)[C@@](C)(O)C1CC1	
InChI=1S/C8H16O/c1-6(2)8(3,9)7-4-5-7/h6-7,9H,4-5H2,1-3H3	InChI=1S/C8H16O/c1-6(2)8(3,9)7-4-5-7/h6-7,9H,4-5H2,1-3H3/t8-/m1/s1
