27
gdb 58556	2.12494	1.31651	1.12135	0.0912	94.94	-0.2718	0.0747	0.3466	1330.6237	0.250778	-353.560713	-353.549913	-353.548969	-353.59537	42.167	
C	-0.2006376516	 1.4931403215	-0.9559438702	-0.402576
C	-0.1148607995	 0.0958924418	-0.3189269104	-0.018509
C	 0.6653297538	 0.1614053853	 1.0044861071	-0.404235
C	-1.4997126129	-0.5713464858	-0.1804428132	 0.368599
C	-2.3863417762	 0.1168719682	 0.8668646441	-0.454838
C	-2.2884602412	-0.7813290507	-1.5123848625	-0.263373
C	-2.6866060553	-2.200891158	-1.0364711049	-0.233765
C	-1.5540532525	-2.1399257998	 0.0308667459	-0.011043
C	-0.3272269499	-2.95818409	-0.3676479223	-0.416179
H	 0.8020476694	 1.888647963	-1.1498627261	 0.107553
H	-0.7388404817	 1.4714415749	-1.9086496796	 0.113679
H	-0.7098526049	 2.2072355569	-0.2997908341	 0.113442
H	 0.4656900691	-0.5286026603	-1.0100920876	 0.065842
H	 0.2143194457	 0.8757543666	 1.7011227243	 0.114264
H	 0.7059421471	-0.8098719918	 1.5071759604	 0.112929
H	 1.6957881384	 0.4874115274	 0.8271168434	 0.108068
H	-2.5368027281	 1.1773438241	 0.6389081219	 0.110667
H	-3.3760943995	-0.3493014366	 0.9061911154	 0.110036
H	-1.9546866566	 0.044895456	 1.8703411496	 0.112568
H	-3.0951863498	-0.0746057584	-1.7266963188	 0.089376
H	-1.6231074188	-0.8136811011	-2.3808626353	 0.092682
H	-3.6871325918	-2.2362687252	-0.5989624829	 0.097833
H	-2.6085627457	-3.0068799992	-1.7714111456	 0.089617
H	-1.8599673585	-2.4281407525	 1.0425530093	 0.0576
H	-0.0074909138	-2.7443876578	-1.3934579425	 0.114726
H	 0.5280089785	-2.7811064349	 0.291706158	 0.115131
H	-0.5649294636	-4.0269426437	-0.3202604834	 0.109904
102.2447	118.2247	169.7953	209.2339	229.0644	253.9934	259.7134	265.1045	295.505	317.7066	338.0576	362.4999	426.8038	462.9654	495.2618	627.1632	714.7728	786.216	858.0726	884.2062	901.694	907.5098	928.5867	940.222	965.4272	968.0969	975.7818	1030.7817	1067.4148	1088.7801	1116.5059	1162.6546	1173.3773	1187.7805	1204.0973	1224.3141	1239.6791	1274.7529	1289.6037	1295.3202	1353.9722	1362.4038	1376.086	1396.1643	1405.5121	1411.6812	1420.638	1478.0132	1484.5055	1487.6249	1494.5274	1496.2787	1499.1306	1502.2955	1504.2016	1508.8857	1514.8519	3018.339	3027.5157	3028.8126	3030.4431	3033.6744	3036.2528	3044.6924	3059.5869	3087.8563	3089.4573	3089.8355	3094.9243	3098.2502	3098.9159	3101.7381	3104.0694	3106.723	3111.7789
CC(C)C1(C)CCC1C	CC(C)[C@@]1(C)CC[C@H]1C	
InChI=1S/C9H18/c1-7(2)9(4)6-5-8(9)3/h7-8H,5-6H2,1-4H3	InChI=1S/C9H18/c1-7(2)9(4)6-5-8(9)3/h7-8H,5-6H2,1-4H3/t8-,9-/m1/s1
