19
gdb 120570	4.21753	0.73911	0.69123	0.8956	79.67	-0.2592	0.0273	0.2865	1647.1008	0.155182	-422.968131	-422.957712	-422.956768	-423.004031	37.211	
C	 0.1200888265	 1.4914348162	-0.190739737	-0.47114
C	-0.0487897839	 0.0180677121	 0.1192374853	 0.176206
O	 1.1637130369	-0.761985014	 0.1793114378	-0.283194
C	 0.4096535538	-0.6069186415	 1.3859265836	 0.019065
C	 1.0560183843	 0.1263002591	 2.5338634492	-0.226956
C	 2.1470125153	-0.7163871383	 3.191040615	-0.06514
O	 2.6629121295	 0.0310425918	 4.2806900437	-0.421428
C	-1.145110809	-0.6181596834	-0.5809133853	 0.289976
C	-2.06731086	-1.1160942615	-1.1696217036	-0.42982
H	 0.9862505528	 1.9064364463	 0.3254528946	 0.133522
H	 0.2630241215	 1.6266816053	-1.2666899021	 0.139168
H	-0.7746964408	 2.0480384985	 0.1036992452	 0.133677
H	-0.1212277363	-1.5166883868	 1.6755173021	 0.096014
H	 1.4973141857	 1.0705926993	 2.2070147782	 0.11504
H	 0.2925698893	 0.3627168131	 3.2850449051	 0.115271
H	 1.7242130322	-1.6771474978	 3.5282017566	 0.086543
H	 2.9264061645	-0.9422517117	 2.4480616483	 0.107001
H	 3.3857243362	-0.4677238311	 4.6722651556	 0.287594
H	-2.8777772284	-1.5666114159	-1.6874799224	 0.198601
57.3056	86.9487	98.2051	150.5233	159.7087	203.7398	258.3307	269.0938	339.6149	361.2327	409.8226	501.9759	554.1057	600.3123	622.8579	660.8325	687.5849	787.4123	830.5422	897.3226	954.4687	1010.467	1055.4847	1076.734	1102.659	1127.0706	1139.4276	1226.4947	1241.2797	1249.3462	1311.4552	1328.3944	1335.753	1410.889	1456.9725	1460.8973	1475.7984	1485.6595	1500.2324	1529.6367	2237.0513	2966.0783	3007.8142	3045.0611	3051.01	3082.5997	3112.1521	3116.0787	3149.4189	3501.6715	3831.4422
CC1(OC1CCO)C#C	C[C@]1(O[C@H]1CCO)C#C	
InChI=1S/C7H10O2/c1-3-7(2)6(9-7)4-5-8/h1,6,8H,4-5H2,2H3	InChI=1S/C7H10O2/c1-3-7(2)6(9-7)4-5-8/h1,6,8H,4-5H2,2H3/t6-,7-/m0/s1
