19
gdb 117317	3.10064	0.83338	0.7387	2.0184	74.83	-0.2507	-0.0425	0.2082	1599.7546	0.154571	-460.184357	-460.173657	-460.172713	-460.222079	36.046	
C	-0.5073972105	 0.7695165357	 0.1574209627	-0.228602
O	 0.4179593961	-0.2933395431	 0.1068083443	-0.212657
C	 0.4400973294	-0.931435343	-1.1297654514	-0.157378
C	 1.4395773743	-2.0755719387	-1.1287103028	 0.348605
O	 2.161743311	-2.3374144106	-0.2012085141	-0.280639
C	 1.4100316572	-2.9286899755	-2.4038239134	-0.392406
C	 0.4913455896	-4.1309549567	-2.129055752	 0.383952
C	 1.1578364445	-5.3290551617	-1.4938334097	-0.479202
O	-0.6901366274	-4.0711894425	-2.3726410592	-0.293562
H	-0.269853807	 1.5529535788	-0.5794277262	 0.106505
H	-1.5364701729	 0.4240704686	-0.0268120021	 0.110942
H	-0.4506344446	 1.1976643486	 1.1603887905	 0.13595
H	-0.5436238788	-1.3532663506	-1.4104490033	 0.131652
H	 0.7180683766	-0.2419841616	-1.9505743443	 0.108994
H	 0.9976003665	-2.3689115014	-3.2459120143	 0.129047
H	 2.4301801744	-3.2546239488	-2.617031828	 0.133257
H	 1.7591616531	-5.0020659734	-0.6385290416	 0.168309
H	 0.4104959524	-6.0608386592	-1.1858835358	 0.143539
H	 1.8489957258	-5.7884027548	-2.2105394193	 0.143694
28.5112	52.8795	84.5458	100.0315	156.5893	169.5501	177.8551	241.1269	316.6314	376.3418	415.5352	491.769	501.7492	565.2384	670.0096	787.138	849.6858	901.2192	955.0545	985.3426	1039.2806	1065.7267	1095.0031	1162.9549	1177.247	1183.6446	1233.8549	1239.8619	1257.1301	1271.6057	1383.3298	1407.039	1460.0211	1466.0683	1471.7966	1473.6218	1487.475	1491.7221	1515.734	1804.5943	1833.7441	2925.9836	2951.747	2974.135	3020.4087	3035.9371	3072.2385	3099.161	3123.476	3140.6792	3156.8762
COCC(=O)CC(C)=O	COCC(=O)CC(=O)C	
InChI=1S/C6H10O3/c1-5(7)3-6(8)4-9-2/h3-4H2,1-2H3	InChI=1S/C6H10O3/c1-5(7)3-6(8)4-9-2/h3-4H2,1-2H3
