21
gdb 106972	3.86775	1.04762	0.9362	1.7043	84.51	-0.221	0.0262	0.2472	1326.6875	0.182694	-387.093549	-387.084584	-387.08364	-387.126969	34.637	
C	 0.1061902281	 1.4876955993	 0.1298209614	-0.496279
C	 0.0110538518	-0.0006247023	 0.0076563377	 0.341686
C	-0.0163274112	-0.729073959	-1.1143152097	-0.18921
C	-0.1423673088	-2.2124407616	-0.8485547758	-0.323991
C	-0.1029398081	-2.3129121394	 0.6814297157	 0.325726
C	-0.9237368095	-3.3803690951	 1.3563736568	-0.154542
O	-0.4907107696	-4.6943500669	 1.025288561	-0.416923
C	 1.158394499	-1.8255724505	 1.3611241191	-0.333846
C	-0.0272907899	-0.8910411029	 1.2125339287	-0.188701
H	 1.0053918492	 1.7852375884	 0.6840182554	 0.12648
H	 0.1325097776	 1.9706836951	-0.8506509594	 0.123094
H	-0.7490513839	 1.8943026516	 0.6847630329	 0.124363
H	 0.0605912365	-0.3211180405	-2.1167317736	 0.084016
H	-1.0863379949	-2.6171010891	-1.2402685535	 0.107394
H	 0.655449567	-2.7947720529	-1.3260703592	 0.107475
H	-0.919808051	-3.2206553056	 2.4472330371	 0.079407
H	-1.966679659	-3.328789842	 1.0230932039	 0.107886
H	 0.4459839604	-4.7467864786	 1.2436870847	 0.280268
H	 1.3638455153	-2.2145554406	 2.3549485484	 0.103558
H	 2.0397648821	-1.6223438087	 0.7608995113	 0.111116
H	-0.5585520009	-0.5772802289	 2.1062926969	 0.081025
84.2386	120.7091	183.1561	216.8773	256.7831	292.5077	328.3689	373.6623	391.7233	404.8537	563.4931	616.8957	672.5284	751.9051	808.4406	825.2587	889.1818	928.7695	941.9821	968.1376	972.7916	1009.7205	1029.5797	1034.03	1057.5542	1066.0823	1072.2889	1102.9239	1165.8513	1185.6278	1202.0535	1248.0882	1271.9976	1322.2911	1338.4348	1380.9598	1403.0034	1414.0956	1427.6943	1472.4539	1478.602	1485.6143	1490.0262	1506.8432	1708.8486	2967.2714	3008.6505	3016.788	3043.2835	3060.0194	3062.1632	3111.1612	3111.521	3152.2616	3186.1559	3201.3402	3805.9461
CC1=CCC2(CO)CC12	CC1=CC[C@@]2(CO)C[C@@H]12	
InChI=1S/C8H12O/c1-6-2-3-8(5-9)4-7(6)8/h2,7,9H,3-5H2,1H3	InChI=1S/C8H12O/c1-6-2-3-8(5-9)4-7(6)8/h2,7,9H,3-5H2,1H3/t7-,8-/m0/s1
