15
gdb 30539	4.80112	0.92506	0.7766	4.0669	81.86	-0.1761	-0.0054	0.1707	1392.6545	0.114276	-450.170586	-450.162312	-450.161368	-450.203474	30.898	
N	-0.0256353702	 1.3158199703	 0.2140997304	-0.498726
C	 0.0688947696	-0.0490800379	 0.2347494851	 0.074886
N	 1.0494593102	-0.6618976284	-0.3161297343	-0.346234
C	 1.1838441491	-2.0090994019	-0.2296325228	 0.389723
C	 2.1027026154	-2.8756654341	-0.7247023368	-0.195044
N	 1.7983544091	-4.1815786141	-0.3441812733	-0.338391
C	 0.7127836489	-4.0515091882	 0.3512053585	 0.44821
N	-0.0584373869	-5.0470774839	 0.9042235319	-0.586427
O	 0.2544716379	-2.7872957062	 0.4864839979	-0.229955
H	 0.5851559181	 1.7916547612	-0.4337499949	 0.262487
H	-0.9359935934	 1.7267154928	 0.3385049919	 0.259097
H	-0.7268620574	-0.5480332852	 0.7939118904	 0.116234
H	 2.966411185	-2.6413649225	-1.3251103276	 0.116434
H	 0.4466390004	-5.9179135318	 0.9848894827	 0.268304
H	-0.532397756	-4.7849265702	 1.756858551	 0.259402
111.6131	131.1809	150.5956	253.8975	289.4256	361.5673	402.8668	407.4575	436.7814	519.3027	572.8889	624.5853	672.3716	705.5819	756.1408	799.881	840.6148	942.6904	980.9545	1001.4829	1080.407	1087.1184	1194.341	1224.5331	1287.0825	1299.9961	1398.1145	1438.622	1599.6812	1618.9871	1669.6368	1675.3787	1733.963	3095.3723	3272.2619	3565.7133	3579.5083	3673.2011	3705.5858
NC=NC1=CN=C(N)O1	NC=Nc1cnc(N)o1	
InChI=1S/C4H6N4O/c5-2-8-3-1-7-4(6)9-3/h1-2H,(H2,5,8)(H2,6,7)	InChI=1S/C4H6N4O/c5-2-8-3-1-7-4(6)9-3/h1-2H,(H2,5,8)(H2,6,7)
