16
gdb 11739	4.88928	1.33327	1.20318	3.1957	65.9	-0.2439	-0.012	0.2319	996.8107	0.129942	-383.725009	-383.717436	-383.716492	-383.757101	28.312	
O	 0.1882793505	 1.3485365868	 0.1079048832	-0.407465
C	 0.0579879708	-0.0478762338	-0.1163093893	-0.173966
C	-1.3713623802	-0.5024227541	-0.0745277333	 0.327007
C	-2.0711277607	-0.943155337	 1.1654185956	-0.333085
C	-1.9044451447	-1.9601323123	 0.0397696555	-0.22712
C	-2.880143393	-1.6499239364	-1.0567118938	 0.429047
O	-3.5956180541	-2.3259212651	-1.7392618583	-0.314909
C	-2.430568754	-0.1664835532	-1.1419028935	-0.411975
H	-0.1856445929	 1.5407372517	 0.9744020837	 0.284025
H	 0.4837620616	-0.2233868071	-1.1101687066	 0.118312
H	 0.6530373655	-0.632254268	 0.603921656	 0.090498
H	-1.44512376	-1.1540911365	 2.0280107475	 0.124615
H	-3.0578768772	-0.5623448394	 1.4146147203	 0.125805
H	-1.3797890123	-2.8938298447	 0.2028684278	 0.112274
H	-3.1598676494	 0.6092751501	-0.8932282997	 0.120938
H	-2.0113102598	 0.0412652892	-2.1309796052	 0.135999
82.7981	106.1829	200.5444	295.6903	370.1222	387.6925	397.46	463.5695	551.4173	629.4407	715.1462	782.5454	845.6987	916.4701	934.1178	960.3775	986.9781	996.2569	1045.7952	1065.4883	1091.3913	1102.519	1116.8892	1186.467	1207.5422	1238.1709	1297.0102	1368.5555	1395.6496	1427.9933	1456.3165	1494.8947	1505.8067	1884.5199	2975.534	3059.2336	3070.0251	3112.3539	3112.9932	3191.6664	3199.3073	3809.5085
OCC12CC1C(=O)C2	OC[C@]12C[C@H]1C(=O)C2	
InChI=1S/C6H8O2/c7-3-6-1-4(6)5(8)2-6/h4,7H,1-3H2	InChI=1S/C6H8O2/c7-3-6-1-4(6)5(8)2-6/h4,7H,1-3H2/t4-,6+/m0/s1
