23
gdb 65472	2.77544	1.22783	1.07274	1.0546	85.75	-0.2354	0.0877	0.323	1273.5319	0.203145	-388.258817	-388.249036	-388.248092	-388.292994	38.329	
C	 1.0114394277	 1.5372254775	-1.3288286269	-0.460238
C	 0.0958469678	 1.0056289963	-0.2485534203	 0.443325
C	 0.6448070225	 0.7626317756	 1.1245378117	-0.317342
C	-0.3196284874	 1.9095521681	 0.8925762703	-0.311283
O	-0.8234283025	 0.0132019137	-0.6367574952	-0.337288
C	-1.7029754203	 0.2820480118	-1.7076922217	 0.424206
C	-1.2605286788	-0.3491636334	-3.0108169834	-0.440262
C	-3.1636081954	 0.2562172989	-1.3481005961	-0.30319
C	-2.4954971781	 1.5643282178	-1.7193656803	-0.320685
H	 1.7295495597	 2.243283035	-0.9020781739	 0.113379
H	 1.5727779508	 0.7210810611	-1.7958728969	 0.122768
H	 0.451606059	 2.0626102209	-2.1087488542	 0.12468
H	 0.2640831079	-0.1057436844	 1.6492970473	 0.122131
H	 1.6895397975	 0.9872639914	 1.3093554422	 0.108938
H	 0.0600779026	 2.9257311092	 0.9212055476	 0.107798
H	-1.3235959216	 1.7884450268	 1.2822922692	 0.113977
H	-1.0862493007	-1.4203560377	-2.8663931807	 0.124471
H	-2.0283552861	-0.2279973987	-3.7809183352	 0.110282
H	-0.333764154	 0.0964979061	-3.3845412638	 0.115836
H	-3.8645194276	-0.189881813	-2.0455726061	 0.106763
H	-3.3981897068	 0.0980243585	-0.3018263179	 0.11649
H	-2.3206403572	 2.283095742	-0.9293281154	 0.12521
H	-2.7239960992	 2.0062485665	-2.6838369502	 0.110035
63.6167	102.7755	179.9536	218.9282	272.0706	295.5829	306.6799	315.6696	347.6238	368.0635	418.1618	466.1346	525.6236	696.5696	735.0439	774.7385	780.7905	848.9948	859.2248	889.2451	924.2825	932.62	934.8485	977.0584	1021.9947	1037.1424	1046.8699	1061.4342	1065.5953	1075.4159	1076.4975	1124.1422	1139.3357	1190.2695	1191.769	1270.2901	1296.0249	1332.0217	1341.6192	1414.2947	1417.2536	1452.8851	1458.7934	1481.2789	1484.356	1494.7303	1494.7764	1506.9937	1511.2679	3034.4773	3037.4521	3102.7485	3105.3636	3110.0821	3113.0057	3130.2689	3133.685	3137.9449	3139.8265	3216.3604	3220.2521	3231.6917	3236.0128
CC1(CC1)OC1(C)CC1	CC1(CC1)OC1(C)CC1	
InChI=1S/C8H14O/c1-7(3-4-7)9-8(2)5-6-8/h3-6H2,1-2H3	InChI=1S/C8H14O/c1-7(3-4-7)9-8(2)5-6-8/h3-6H2,1-2H3
