13
gdb 132038	2.36774	1.83028	1.0323	6.6606	64.95	-0.2103	-0.0171	0.1932	1029.3013	0.089315	-497.891378	-497.883818	-497.882874	-497.923262	28.602	
O	-0.0436115676	 1.3809610616	 0.010970106	-0.417471
C	 0.0041124839	 0.0253841626	 0.0035943466	 0.072895
C	 1.165434951	-0.6695990988	-0.0070656263	 0.257554
F	 2.3581272151	-0.0611173193	-0.0109687479	-0.075044
N	 1.2320671804	-2.0347373706	-0.0147358575	-0.391379
C	 0.0749029218	-2.7661269743	-0.0118786567	 0.016607
C	-1.1314665724	-2.1521827585	-0.0014171619	-0.249731
C	-1.2822610024	-0.696922562	 0.0077723908	 0.333259
O	-2.3581751322	-0.1141981908	 0.0162482455	-0.385073
H	 0.8572979512	 1.7254666539	 0.0071858837	 0.30071
H	 2.1393767531	-2.4704760679	-0.0223926357	 0.27733
H	 0.2039800722	-3.8406021802	-0.0185834551	 0.141586
H	-2.0398345841	-2.7409464957	 0.0005407987	 0.118755
126.1693	207.4177	281.0891	292.318	322.7586	336.5861	384.8755	481.4203	512.6892	540.2429	576.4856	582.5572	699.0894	731.9255	830.9743	862.9248	939.4999	1018.5106	1082.0318	1202.2698	1224.3975	1276.2024	1306.6782	1407.9808	1425.6811	1558.5114	1636.4432	1714.5908	1734.6722	3212.1016	3228.8472	3663.2277	3803.702
OC1=C(F)NC=CC1=O	Oc1c(F)[nH]ccc1=O	
InChI=1S/C5H4FNO2/c6-5-4(9)3(8)1-2-7-5/h1-2,9H,(H,7,8)	InChI=1S/C5H4FNO2/c6-5-4(9)3(8)1-2-7-5/h1-2,9H,(H,7,8)
