18
gdb 93199	2.82577	1.34932	0.954	4.8154	73.54	-0.2325	-0.0816	0.1509	1212.6065	0.147043	-439.104974	-439.096364	-439.09542	-439.138803	31.711	
C	-0.0231434023	 1.4723914398	 0.0089218517	-0.319437
N	 0.0134869329	 0.0178508963	-0.0210390196	-0.077009
C	 0.6761074404	-0.5015931339	-1.2108830477	-0.164457
C	 0.3947891403	-2.0016721027	-1.3576040278	-0.317058
C	 0.7672585136	-2.7889578826	-0.1176831705	 0.30501
O	 1.1715329464	-3.9229114125	-0.1313590477	-0.270971
C	 0.5972932686	-2.0449043354	 1.2411587603	 0.299188
O	 0.5223229909	-2.6644436894	 2.269782693	-0.26643
C	 0.601250717	-0.5219497578	 1.1980428346	-0.259659
H	 0.9829504255	 1.930870235	 0.0487452271	 0.099513
H	-0.5340560391	 1.8468655935	-0.8828986225	 0.125182
H	-0.5814266018	 1.8086416918	 0.8877937495	 0.127781
H	 0.2859442097	 0.0273048687	-2.0854368534	 0.11366
H	 1.7695255931	-0.3189550063	-1.1886144178	 0.08855
H	-0.6865873951	-2.1343968462	-1.4998879493	 0.143849
H	 0.9025605895	-2.4388399575	-2.2214912532	 0.129653
H	 1.6629028438	-0.2105972219	 1.3244863889	 0.106836
H	 0.0591427265	-0.1572121389	 2.0750841443	 0.135799
45.124	94.7907	193.5736	244.556	318.9513	331.0876	342.6004	361.7106	399.9281	439.5225	548.6264	630.1119	657.8311	695.528	808.1655	921.1758	944.7029	991.41	1063.3666	1075.7809	1102.3683	1144.8997	1161.8621	1166.8403	1200.3897	1259.6938	1281.8923	1316.7441	1343.6767	1363.7259	1403.467	1442.1397	1455.6655	1472.0995	1488.1391	1503.7163	1511.2537	1816.0614	1834.746	2855.8927	2902.9764	2934.0024	3026.8418	3066.8136	3076.8062	3087.3507	3103.8765	3111.8333
CN1CCC(=O)C(=O)C1	CN1CCC(=O)C(=O)C1	
InChI=1S/C6H9NO2/c1-7-3-2-5(8)6(9)4-7/h2-4H2,1H3	InChI=1S/C6H9NO2/c1-7-3-2-5(8)6(9)4-7/h2-4H2,1H3
