17
gdb 11421	3.77541	1.55797	1.22897	2.1648	65.64	-0.2667	0.0221	0.2888	1008.9037	0.142384	-401.021643	-401.013723	-401.012779	-401.054538	28.523	
C	-0.2966529388	 1.3592987956	-0.0005819043	-0.387066
C	 0.0636910524	-0.1198232168	-0.1591003626	-0.199783
C	 1.0158783401	-0.3738783677	-1.3217003139	 0.210156
O	 1.3762618207	-1.7338551568	-1.4441299806	-0.259849
C	 0.5816707163	-2.3067129188	-2.4691921897	-0.174617
C	 0.0918204154	-1.1213697987	-3.2714734409	 0.38196
N	-0.4986891399	-1.168256637	-4.3827995934	-0.534918
O	 0.4094185994	 0.0012664364	-2.5670429679	-0.236705
H	 0.5977366067	 1.9684631582	 0.1714299062	 0.119557
H	-0.7925038359	 1.7388371898	-0.8980505272	 0.135021
H	-0.9680226596	 1.5081120144	 0.8493551103	 0.121391
H	 0.5530277062	-0.4988248598	 0.7451615117	 0.114903
H	-0.8390074582	-0.7236091821	-0.3121030227	 0.105275
H	 1.935210348	 0.2149149969	-1.2140933832	 0.101036
H	 1.1933123888	-2.9801856992	-3.0740239579	 0.146231
H	-0.2677211374	-2.8749387576	-2.0648750567	 0.129717
H	-0.7396765742	-0.2318694169	-4.7099665171	 0.227688
72.4652	108.0233	114.6836	215.2272	239.5185	402.6287	445.5057	473.8035	527.2594	663.3906	744.5683	804.6246	874.5693	884.9409	890.5954	958.0023	995.3366	1033.6112	1055.7753	1066.4375	1098.623	1154.617	1178.5938	1206.341	1277.4408	1295.3262	1330.3491	1354.7286	1392.83	1409.3212	1418.5184	1477.1505	1498.8851	1507.049	1508.7778	1796.5228	3011.8595	3033.2944	3038.6667	3042.4541	3079.4746	3101.9416	3108.2064	3124.2286	3483.1201
CCC1OCC(=N)O1	CC[C@H]1OC[C]([NH])O1	
InChI=1S/C5H9NO2/c1-2-5-7-3-4(6)8-5/h5-6H,2-3H2,1H3	InChI=1S/C5H9NO2/c1-2-5-7-3-4(6)8-5/h5-6H,2-3H2,1H3/t5-/m0/s1
