15
gdb 32311	2.78603	1.61162	1.0276	2.1371	74.22	-0.2178	-0.047	0.1708	1100.1517	0.113362	-453.963265	-453.955447	-453.954503	-453.995897	28.738	
C	-0.0923794648	 1.3597181599	 0.0329017293	-0.234128
O	-0.0531363332	-0.068237029	 0.094922953	-0.222715
C	 0.6525017263	-0.5988599065	 1.0890297166	 0.387874
N	 1.2706460883	 0.1238803742	 1.954136579	-0.361005
C	 1.975778269	-0.5413131399	 2.9480835548	-0.09043
C	 2.0189022996	-1.8764019852	 3.0150323669	 0.02378
O	 1.3685977392	-2.6578198106	 2.1050217154	-0.227477
C	 0.6434403103	-2.0832769505	 1.083398337	 0.323736
N	 0.0274865847	-2.7738189589	 0.2211097984	-0.506838
H	 0.9143520003	 1.7696804321	-0.0856638733	 0.140012
H	-0.7089094672	 1.5943676539	-0.8346004625	 0.138464
H	-0.5323950472	 1.7746350942	 0.9438715259	 0.140011
H	 2.4947376192	 0.0709102685	 3.6743531707	 0.121079
H	 2.5438753004	-2.4634442032	 3.7554620529	 0.138864
H	 0.1552194151	-3.7704371389	 0.4053149059	 0.228774
88.866	138.9603	171.4176	224.9105	269.6884	361.0329	465.9295	507.9844	545.6799	571.9721	585.549	777.6991	790.4625	796.6759	879.7964	897.6713	913.8215	977.2659	1048.0632	1070.7234	1177.5186	1181.7551	1220.3529	1267.5935	1287.401	1375.1548	1417.7103	1478.2256	1479.1608	1495.2568	1632.7282	1667.9168	1737.5725	3046.9292	3119.2284	3160.1649	3211.1055	3242.796	3477.544
COC1=NC=COC1=N	COC1=C(OC=C[N]1)[NH]	
InChI=1S/C5H6N2O2/c1-8-5-4(6)9-3-2-7-5/h2-3,6H,1H3	InChI=1S/C5H6N2O2/c1-8-5-4(6)9-3-2-7-5/h2-3,6H,1H3
