18
gdb 126189	2.9517	1.21864	0.92331	2.1129	75.5	-0.24	0.006	0.246	1283.2261	0.146661	-439.102543	-439.093209	-439.092265	-439.137459	33.41	
C	 0.2840109201	 1.658638473	-0.1347195132	-0.373204
C	-0.0579504652	 0.1724161352	 0.072935448	-0.294668
C	 0.5514675687	-0.4000335673	 1.3077607774	 0.382964
C	 0.0345302662	-0.8696670603	 2.4784243656	-0.037953
C	-1.3806514594	-0.9926768557	 2.9420862376	-0.510914
C	 1.2084594924	-1.2386148782	 3.200631483	 0.411239
O	 1.199492322	-1.7652602827	 4.4373249684	-0.419223
N	 2.3187011223	-1.0174923813	 2.5446314708	-0.268
O	 1.9000845245	-0.4772598894	 1.323296117	-0.234216
H	 1.3658020141	 1.8007414199	-0.1974210947	 0.14152
H	-0.1662752477	 2.029467241	-1.0599144625	 0.117532
H	-0.0889929394	 2.2657748556	 0.6954546209	 0.124334
H	-1.1425225435	 0.0379630563	 0.1279852343	 0.116351
H	 0.2884450175	-0.4058706942	-0.792256957	 0.128907
H	-1.6273512381	-2.0287121543	 3.1982321596	 0.139684
H	-1.5618692499	-0.3903855001	 3.8391518674	 0.139065
H	-2.0812171362	-0.6621211609	 2.1710305943	 0.126242
H	 2.1175500316	-1.9254551869	 4.6936653131	 0.310341
40.9892	84.8625	116.6089	197.1829	227.2435	240.3441	298.0103	321.9907	409.4722	462.2307	520.7885	572.53	665.7046	703.7105	749.4931	771.6705	792.9462	939.6021	976.4732	986.6194	1058.6652	1067.1415	1085.4774	1149.4515	1212.5642	1227.258	1296.2496	1327.2189	1359.1915	1408.4666	1423.7971	1474.9333	1480.0524	1489.8573	1496.3334	1506.0442	1538.9742	1567.6719	1698.3877	3034.4324	3037.1727	3045.2196	3084.8522	3085.5173	3116.4154	3116.6817	3128.8184	3781.5201
CCC1=C(C)C(O)=NO1	CCc1c(C)c(O)no1	
InChI=1S/C6H9NO2/c1-3-5-4(2)6(8)7-9-5/h3H2,1-2H3,(H,7,8)	InChI=1S/C6H9NO2/c1-3-5-4(2)6(8)7-9-5/h3H2,1-2H3,(H,7,8)
