22
gdb 89987	3.21179	1.21085	1.0476	2.3325	82.74	-0.2026	0.0774	0.28	1254.9477	0.193071	-404.305881	-404.296495	-404.29555	-404.34016	35.147	
C	-0.2545587416	 1.48676879	 0.1402741665	-0.41402
C	 0.0678747471	-0.0045647826	 0.0584836603	-0.017788
N	 1.1679257229	-0.4139598174	-0.8511429512	-0.073133
C	 1.5614770081	 0.3821727317	-1.9882891912	-0.325639
C	 2.1010317497	-0.6063803384	 0.2652716942	-0.231206
C	 0.9047471228	-0.5744243043	 1.239891759	 0.440798
C	 0.9645177873	 0.0158864815	 2.659028386	-0.363296
C	 0.5083121273	-1.3841226592	 3.1100892535	-0.07223
O	 0.4687625332	-1.8512838591	 1.746254746	-0.316237
H	 0.6234578066	 2.0869985339	 0.4023027654	 0.11652
H	-0.6419871401	 1.8574817827	-0.8140823018	 0.120743
H	-1.0247465679	 1.6668135034	 0.8975495404	 0.117959
H	-0.8525199002	-0.5754457872	-0.120155299	 0.080602
H	 1.9032791711	 1.4036314515	-1.735691038	 0.087465
H	 2.382618774	-0.1192567343	-2.5126876555	 0.120519
H	 0.7274014882	 0.4690464219	-2.6930847163	 0.118966
H	 2.6740242758	-1.5405156051	 0.2392251626	 0.105865
H	 2.7955686249	 0.2369822951	 0.4297092019	 0.0757
H	 1.9610028734	 0.3172988283	 2.9885008424	 0.11109
H	 0.2629964926	 0.8275446273	 2.8592728672	 0.11209
H	 1.2272587066	-1.9485420088	 3.716024627	 0.102755
H	-0.4769209018	-1.436663141	 3.5887221405	 0.102479
65.9709	74.7349	190.8732	213.9873	232.3767	250.5915	279.6769	305.2105	345.4277	447.6827	475.0051	514.8522	709.0833	779.6337	808.8326	856.2239	878.8427	904.2549	976.7908	980.0931	1006.3793	1029.6043	1064.3792	1082.7332	1119.2422	1153.8796	1157.278	1166.0098	1180.4609	1190.0915	1219.8093	1235.8396	1252.9483	1293.0765	1305.047	1345.3061	1353.4989	1363.9506	1399.471	1451.6007	1483.3153	1484.7794	1492.6373	1495.1566	1504.4382	1510.9399	1531.8798	2925.6718	2940.3593	3016.7617	3018.1156	3030.9144	3049.0177	3050.0332	3057.3164	3075.1594	3090.8652	3100.2416	3101.7399	3128.4394
CC1N(C)CC11CCO1	C[C@H]1N(C)C[C@]21CCO2	
InChI=1S/C7H13NO/c1-6-7(3-4-9-7)5-8(6)2/h6H,3-5H2,1-2H3	InChI=1S/C7H13NO/c1-6-7(3-4-9-7)5-8(6)2/h6H,3-5H2,1-2H3/t6-,7+/m1/s1
