19
gdb 69379	3.59191	1.11983	1.01569	2.5675	75.59	-0.2506	0.0831	0.3337	1222.6655	0.158495	-422.964389	-422.956075	-422.955131	-422.997462	32.113	
O	 0.1442142706	 1.4016937925	 0.1456884428	-0.459641
C	 0.05960658	 0.0221623336	 0.1033515647	 0.419116
C	-0.3356326774	-0.7204316909	-1.1423125201	-0.354193
C	-1.2030614972	-0.8213127176	 0.0951377077	-0.111006
C	-0.5601162795	-1.8146347527	 1.0805471181	-0.016749
C	 0.7142486319	-0.9057959321	 1.1328397058	-0.332784
C	-1.2990444532	-1.9978710462	 2.3831679348	 0.064154
C	-0.62453835	-2.2098458575	 3.6685962491	-0.185508
O	-1.231210932	-0.9531665405	 3.356401301	-0.225155
H	 0.8764584412	 1.6780126032	-0.4161623537	 0.284234
H	-0.7422393917	-0.0848608134	-1.9228819563	 0.112834
H	 0.2233561679	-1.5836093009	-1.5003812981	 0.098831
H	-2.2413802985	-0.5122940708	 0.0966796633	 0.095682
H	-0.3956963794	-2.8086157941	 0.6441136957	 0.073511
H	 1.6742309341	-1.3606217266	 0.8671234767	 0.083223
H	 0.7874717178	-0.4063535343	 2.1009659432	 0.132387
H	-2.3003173061	-2.4205011934	 2.2712758687	 0.091147
H	-1.1159414096	-2.7851911859	 4.4517512468	 0.115835
H	 0.4637956911	-2.2018618724	 3.7118485997	 0.114081
76.8255	106.3269	190.2907	240.6435	286.1322	354.7581	383.8534	417.2159	439.7449	562.8676	642.4655	731.9906	767.9555	850.5002	855.3469	891.0701	902.3693	943.9525	956.6327	1000.5368	1009.5298	1042.9462	1063.7283	1079.8802	1096.1789	1116.3928	1144.9321	1161.7131	1173.7431	1224.7713	1231.5487	1250.2594	1280.0211	1290.4303	1308.2485	1371.067	1401.535	1429.2308	1469.3369	1500.3168	1529.1654	3017.5761	3044.2467	3080.6131	3085.6931	3093.1328	3124.4065	3169.5532	3186.1811	3198.5792	3794.6855
OC12CC1C(C2)C1CO1	O[C@]12C[C@H]1[C@@H](C2)[C@H]1CO1	
InChI=1S/C7H10O2/c8-7-1-4(5(7)2-7)6-3-9-6/h4-6,8H,1-3H2	InChI=1S/C7H10O2/c8-7-1-4(5(7)2-7)6-3-9-6/h4-6,8H,1-3H2/t4-,5+,6-,7-/m1/s1
