21
gdb 76753	2.18312	1.64621	1.30664	0.7377	77.7	-0.2413	0.0616	0.3029	1099.0964	0.181359	-424.195141	-424.185983	-424.185039	-424.228733	35.224	
C	-1.4344300418	 0.8189396922	-0.1541094049	-0.404028
C	-0.4053367748	-0.3024488912	-0.1172279228	-0.008041
C	 0.6850929313	-0.4054936399	-1.2562174949	-0.02905
C	 0.6801948874	 0.5789354188	-2.4183324997	-0.425357
C	 1.808821403	-0.3204471742	-0.1897821785	 0.338306
O	 2.7768518317	-1.3087606829	-0.3423266167	-0.475015
C	 2.2342072919	 1.0910125584	 0.2534170963	-0.140862
O	 1.1331047907	 1.1776017537	 1.1825583064	-0.28547
C	 0.7244311196	-0.1875015688	 0.9362429732	 0.013624
H	-0.9537486246	 1.7996520099	-0.1404143807	 0.129661
H	-2.0630521507	 0.7503718183	-1.0479852764	 0.109903
H	-2.0925982576	 0.7650175699	 0.7199394991	 0.114115
H	-0.9155127793	-1.2654453459	-0.0093669225	 0.07312
H	 0.703421874	-1.4242342517	-1.6543681294	 0.087391
H	 0.6257415596	 1.6203739824	-2.0872998837	 0.121135
H	 1.5860215379	 0.4656111719	-3.0237877534	 0.121171
H	-0.1786034631	 0.4011866088	-3.0741130346	 0.117471
H	 3.4151262918	-1.2315056198	 0.3757031028	 0.280664
H	 3.203716205	 1.1008365211	 0.7766644851	 0.085168
H	 2.2299078433	 1.897578811	-0.4884473735	 0.106855
H	 0.6652171148	-0.7770707419	 1.8556844987	 0.069239
54.7759	196.3719	207.6883	229.5445	242.0992	245.6877	268.2912	331.7314	371.6761	451.4189	505.1477	534.9367	617.8319	673.8807	759.6187	820.809	865.0584	907.91	958.1848	994.5635	1002.289	1010.5457	1023.6449	1060.3248	1088.4034	1121.9243	1152.8852	1160.0503	1172.531	1194.7928	1203.643	1269.8546	1288.877	1321.3173	1345.2318	1352.5847	1374.9205	1400.268	1407.3924	1414.7828	1486.4321	1491.8912	1500.2928	1508.0903	1521.6095	2974.6929	3032.3441	3036.2089	3041.5506	3057.5389	3062.3161	3071.1725	3094.4757	3097.5906	3105.5194	3126.9124	3795.427
CC1C(C)C2(O)COC12	C[C@H]1[C@@H](C)[C@@]2(O)CO[C@@H]12	
InChI=1S/C7H12O2/c1-4-5(2)7(8)3-9-6(4)7/h4-6,8H,3H2,1-2H3	InChI=1S/C7H12O2/c1-4-5(2)7(8)3-9-6(4)7/h4-6,8H,3H2,1-2H3/t4-,5+,6-,7-/m0/s1
