15
gdb 15320	5.3454	0.96312	0.87227	1.6267	64.77	-0.2547	-0.0461	0.2086	1248.0716	0.115861	-399.773507	-399.765257	-399.764313	-399.807382	28.203	
O	-0.6385499721	 0.5800571619	 0.7741055838	-0.231645
C	-0.156643692	 1.1599703063	-0.1614526018	 0.160046
C	 1.2960662096	 1.6194504027	-0.2150113234	-0.244659
N	 1.4074707845	 2.7591224541	-1.1172298025	-0.086129
C	 1.5261905717	 4.0836386976	-0.5607929623	-0.253882
C	 2.6828112574	 3.4641502629	-1.3024529706	-0.086617
C	 3.9007337613	 3.1182565135	-0.520876904	 0.158705
O	 5.0195474101	 3.2369602216	-0.9536422961	-0.2567
H	-0.734348649	 1.3962594965	-1.0818134158	 0.095983
H	 1.6405053255	 1.7891378706	 0.814339158	 0.127047
H	 1.8794581835	 0.7847698291	-0.6283410931	 0.147679
H	 0.9573162135	 4.8725354736	-1.0443056967	 0.141019
H	 1.6266866993	 4.1808842061	 0.5205215652	 0.128583
H	 2.8886306701	 3.77213961	-2.3240867821	 0.121727
H	 3.7172755068	 2.7498731334	 0.5127281015	 0.078843
56.3591	84.9749	98.1503	170.2405	271.8052	288.0362	392.2349	417.9079	504.4829	548.6016	730.9885	799.7555	869.4174	914.4772	1011.4297	1025.7914	1053.6225	1078.7262	1104.768	1118.606	1156.3166	1181.831	1254.1489	1309.2989	1330.3069	1347.4546	1402.1541	1440.9397	1455.3242	1503.4947	1818.1918	1842.8136	2885.4799	2902.8049	3003.4977	3051.7626	3088.3497	3154.8208	3187.5158
O=CCN1CC1C=O	O=CCN1C[C@H]1C=O	
InChI=1S/C5H7NO2/c7-2-1-6-3-5(6)4-8/h2,4-5H,1,3H2	InChI=1S/C5H7NO2/c7-2-1-6-3-5(6)4-8/h2,4-5H,1,3H2/t5-,6?/m0/s1
