21
gdb 115606	2.8577	1.06877	0.942	2.3217	75.77	-0.239	0.0609	0.2999	1350.1854	0.180134	-461.330029	-461.319847	-461.318903	-461.365204	37.252	
C	-0.0119197498	 1.3616742291	-0.2557568221	-0.236247
O	-0.0636222629	 0.0868824422	 0.3425830827	-0.23578
C	-1.280970313	-0.5632358509	 0.144262221	 0.129438
C	-1.6507209328	-1.173920513	-1.235967609	-0.272515
C	-2.2722859752	-2.3715439066	-0.4631048589	-0.267995
C	-1.3940636735	-1.9771201494	 0.7686895004	 0.38631
O	-0.1344163043	-2.6138601768	 0.7325232914	-0.480708
C	-1.9834808671	-2.0885822251	 2.1648983348	-0.16153
O	-2.0185219026	-3.4800524062	 2.4817140802	-0.436404
H	 0.964838215	 1.7913396358	-0.0210481859	 0.127267
H	-0.1214647854	 1.3093448742	-1.3492686157	 0.10907
H	-0.7976616262	 2.0283206224	 0.1360645435	 0.098586
H	-2.1166263682	 0.0618528494	 0.5068121259	 0.055512
H	-2.2964251077	-0.5968280671	-1.9009524924	 0.090334
H	-0.745569533	-1.4764790824	-1.7671708308	 0.123144
H	-3.3419063473	-2.2426179371	-0.2754534994	 0.095669
H	-2.0925519771	-3.3704277433	-0.862066608	 0.106287
H	-0.2651976338	-3.4474124033	 1.2033077587	 0.283681
H	-1.338984562	-1.5384280445	 2.8653073947	 0.105549
H	-2.9914690295	-1.6495185098	 2.1969376239	 0.085352
H	-2.1145846537	-3.5781257277	 3.4326570751	 0.29498
70.8109	94.3555	123.8762	175.6753	189.3642	215.7356	244.3446	315.8741	330.1208	367.8967	403.0347	458.707	486.3104	578.7919	673.4793	755.8831	790.9191	913.2781	929.0213	949.3855	973.7046	1025.0055	1054.1646	1077.9123	1107.7618	1139.8486	1170.8825	1179.4584	1184.3675	1218.0007	1228.7402	1242.0856	1254.6976	1268.1001	1282.9452	1323.8296	1381.485	1422.8214	1451.2175	1467.8858	1480.2529	1486.5858	1496.5718	1507.6807	1510.3799	2939.4341	2968.8951	2986.9887	3018.7962	3030.5433	3063.9219	3070.5953	3114.402	3123.7342	3137.0117	3767.2667	3844.9013
COC1CCC1(O)CO	CO[C@H]1CC[C@]1(O)CO	
InChI=1S/C6H12O3/c1-9-5-2-3-6(5,8)4-7/h5,7-8H,2-4H2,1H3	InChI=1S/C6H12O3/c1-9-5-2-3-6(5,8)4-7/h5,7-8H,2-4H2,1H3/t5-,6-/m0/s1
