18
gdb 51166	4.01386	1.13358	1.05613	3.617	78.44	-0.2365	0.0109	0.2474	1177.4668	0.148743	-401.969616	-401.961649	-401.960705	-402.002716	30.554	
O	-0.0104373068	 0.5899466794	 1.3345975727	-0.3135
C	 0.0174753182	 1.4322820986	 0.4664447189	 0.136566
N	 1.0998155631	 1.7603105287	-0.3001889136	-0.379698
C	 2.3667322821	 1.0996428138	-0.2511306473	 0.36632
C	 3.0806971147	 0.9525440554	 1.0692351418	-0.280569
C	 3.6734851679	 1.8502782554	 0.0147407279	-0.113725
C	 4.7289465518	 1.2802426202	-0.9304840437	-0.278463
C	 4.0018252425	 0.1569380445	-1.6440509672	-0.076559
C	 2.7186255653	 0.0784904148	-1.2875344566	-0.139985
H	-0.8590065339	 2.0607285865	 0.2038728862	 0.069055
H	 0.948476088	 2.4295167447	-1.0406150817	 0.243926
H	 2.6250451404	 1.4360760723	 1.9248383737	 0.131365
H	 3.5412851893	-0.0066005506	 1.2798961384	 0.119309
H	 3.6483280341	 2.9175265788	 0.2011669089	 0.08984
H	 5.096559813	 2.0351222944	-1.6383987994	 0.107649
H	 5.6102831669	 0.9131801092	-0.3888069394	 0.116369
H	 4.5032641599	-0.5139895058	-2.3322647461	 0.098436
H	 1.9937483735	-0.6403605903	-1.6514751735	 0.103663
38.528	139.7843	197.3589	248.926	290.217	401.0453	429.5521	480.7982	549.4595	586.9735	722.4372	742.1308	769.5595	791.8087	852.5803	919.8292	931.3867	953.6995	971.2604	984.6654	1029.053	1033.9151	1055.1016	1074.4824	1088.7434	1131.2002	1168.4589	1190.3507	1248.2401	1278.8243	1316.16	1349.348	1400.835	1437.6304	1472.1032	1483.9413	1512.4542	1668.6637	1815.8479	2915.7897	3015.8662	3044.4382	3139.7027	3179.8386	3189.5791	3214.3729	3232.4133	3601.1132
O=CNC12CC1CC=C2	O=CN[C@]12C[C@H]1CC=C2	
InChI=1S/C7H9NO/c9-5-8-7-3-1-2-6(7)4-7/h1,3,5-6H,2,4H2,(H,8,9)	InChI=1S/C7H9NO/c9-5-8-7-3-1-2-6(7)4-7/h1,3,5-6H,2,4H2,(H,8,9)/t6-,7-/m1/s1
