20
gdb 30710	3.05157	1.16092	0.86801	1.9292	84.53	-0.188	0.0448	0.2328	1357.5837	0.170358	-403.191839	-403.181847	-403.180903	-403.226855	36.144	
C	-0.0374391369	 1.5025898822	-0.0136941328	-0.502498
C	 0.0280301917	 0.0057577107	 0.0158877476	 0.212427
C	 0.101461491	-0.8342063167	-1.0716791381	-0.186048
N	 0.1664079387	-2.1241902974	-0.6134747673	-0.296037
C	 0.1012609305	-2.1320094479	 0.7575974664	 0.252046
C	 0.1860348111	-3.4267073071	 1.4922305667	-0.203175
O	-0.4996990035	-4.4180855569	 0.7235632267	-0.426118
C	 0.0244970769	-0.8219725292	 1.187347603	 0.093605
C	-0.0335880503	-0.3327355719	 2.6033933968	-0.512046
H	 0.8225547018	 1.9633562021	 0.4887298541	 0.118169
H	-0.0543365367	 1.8759161161	-1.0420097237	 0.11557
H	-0.9356565515	 1.8835854115	 0.4884198854	 0.119265
H	 0.1022873057	-0.6140666967	-2.1278758431	 0.10846
H	 0.1015718593	-2.9624604232	-1.1645013674	 0.261676
H	 1.2365096572	-3.731715696	 1.638565807	 0.096827
H	-0.256779613	-3.3128947651	 2.4924935083	 0.102957
H	-0.2858779496	-5.2794653457	 1.0943583873	 0.288783
H	 0.9043275965	 0.1437225229	 2.9178301901	 0.120558
H	-0.8250908838	 0.4142602805	 2.7363160993	 0.121699
H	-0.2319940349	-1.1470785122	 3.3070436537	 0.113877
63.2988	105.959	131.6318	136.611	206.9435	238.5592	261.555	281.7193	304.2035	356.3468	497.9725	517.3469	585.149	648.4066	673.5943	722.4369	725.9496	753.4372	942.7372	1003.6229	1013.8689	1037.4363	1050.3864	1073.2765	1104.3377	1122.1304	1206.4269	1215.3715	1243.2693	1275.7458	1346.2043	1406.81	1416.2556	1424.5791	1454.2727	1478.2796	1483.8895	1488.2942	1495.3843	1508.0226	1515.4109	1565.0463	1642.9343	2945.609	3003.6284	3013.5745	3015.0928	3057.1292	3060.0138	3096.1623	3099.8614	3253.1436	3682.9612	3826.1323
CC1=CNC(CO)=C1C	Cc1c[nH]c(CO)c1C	
InChI=1S/C7H11NO/c1-5-3-8-7(4-9)6(5)2/h3,8-9H,4H2,1-2H3	InChI=1S/C7H11NO/c1-5-3-8-7(4-9)6(5)2/h3,8-9H,4H2,1-2H3
