16
gdb 27271	3.27036	1.51537	1.0527	2.1273	71.44	-0.1736	0.0605	0.2341	1076.4368	0.126238	-437.905934	-437.898094	-437.89715	-437.938134	29.692	
O	 0.1218109087	 1.3464699141	 0.2383619791	-0.43097
C	 0.0697995545	 0.0089359933	 0.0013455977	 0.244898
C	 0.0956879519	-0.7639446666	-1.1311980747	 0.045736
C	 0.0734085003	-0.7602210843	-2.631445575	-0.401203
C	 0.3175091316	-2.2803781459	-2.9015000232	-0.081805
O	-0.0281021878	-3.0156043301	-1.7045867871	-0.289579
C	 0.0141212322	-2.1087623835	-0.687249513	 0.350742
C	-0.0472784332	-2.1643238945	 0.6737502659	-0.264292
N	-0.0284330321	-0.8196619815	 1.083739837	-0.300492
H	 0.223659596	 1.7977287307	-0.6044643375	 0.306844
H	-0.8914345393	-0.4343519562	-3.0421460614	 0.112405
H	 0.8520648729	-0.1581915741	-3.1119348915	 0.10584
H	-0.2848860081	-2.6792283687	-3.7206877999	 0.113075
H	 1.3775064421	-2.4598836808	-3.1219186445	 0.107915
H	-0.1252102642	-2.9680286229	 1.3831304105	 0.118834
H	 0.0627458445	-0.5017227789	 2.0323870376	 0.262053
128.9379	162.4216	203.9274	235.0796	267.7017	283.7358	427.4287	545.4052	589.3662	595.74	631.9155	638.369	687.2325	758.1322	798.1939	861.4662	937.1313	1006.7611	1052.1174	1064.8276	1082.6752	1151.3772	1199.1454	1212.1504	1244.795	1282.9878	1305.7687	1353.637	1373.7831	1438.0739	1496.8968	1513.3241	1543.7855	1623.4728	1687.1503	3009.4058	3019.9411	3058.5662	3104.9391	3292.2028	3689.1508	3853.1236
OC1=C2CCOC2=CN1	Oc1c2CCOc2c[nH]1	
InChI=1S/C6H7NO2/c8-6-4-1-2-9-5(4)3-7-6/h3,7-8H,1-2H2	InChI=1S/C6H7NO2/c8-6-4-1-2-9-5(4)3-7-6/h3,7-8H,1-2H2
