20
gdb 84885	2.27996	1.75288	1.29102	2.0584	79.12	-0.2427	0.0303	0.273	1064.925	0.172511	-403.152724	-403.144517	-403.143573	-403.185225	32.073	
C	 0.0124132792	 1.5684643304	-0.0426350952	-0.385493
C	 0.0406532416	 0.0354589658	 0.0355014438	-0.035771
N	 0.6474429525	-0.5073902783	-1.1847889218	-0.275037
C	 1.8032207783	-1.0162920751	-1.118653388	 0.126737
O	 2.6473194701	-1.1272006138	-0.0636787276	-0.225432
C	 2.2315998238	-0.4424110313	 1.1306006713	-0.147999
C	 0.7338602489	-0.5015731377	 1.2824996728	 0.338972
C	 0.1266852782	-0.3303305497	 2.6475469345	-0.328614
C	 0.1464387651	-1.693300232	 1.9979220486	-0.313468
H	 1.0230666526	 1.988001985	-0.011892938	 0.113898
H	-0.4484928963	 1.8829176165	-0.9825818893	 0.12951
H	-0.5608182711	 1.9896111915	 0.7887707063	 0.111718
H	-1.0011904185	-0.3106100396	 0.039384547	 0.08173
H	 2.2639286533	-1.4608701382	-1.9996025551	 0.121278
H	 2.7505341141	-0.9334432279	 1.9576470579	 0.11325
H	 2.5878681316	 0.594568551	 1.0685608593	 0.112724
H	 0.7867658194	-0.1513650154	 3.4906750683	 0.110944
H	-0.8235463952	 0.1894037318	 2.7155857242	 0.116742
H	-0.7901232359	-2.0962272607	 1.6273320102	 0.119241
H	 0.8255564382	-2.4406609923	 2.3951518808	 0.115069
102.4632	149.4299	223.9846	229.049	273.9725	303.244	370.5898	442.9132	497.8199	526.0646	602.2237	708.0403	780.7859	850.3522	855.2858	894.1047	932.8902	952.7151	961.967	971.1114	997.4172	1026.6113	1056.6727	1082.7118	1087.1056	1100.6176	1125.4225	1178.2238	1187.1779	1255.1653	1297.8236	1330.7988	1335.06	1374.753	1400.1676	1411.7181	1429.4146	1469.8847	1487.5062	1493.5307	1505.3473	1513.1712	1727.1309	3013.0434	3017.997	3039.2965	3094.3646	3109.314	3122.2899	3123.8832	3129.7938	3152.5327	3201.4202	3217.1234
CC1N=COCC11CC1	C[C@H]1N=COCC21CC2	
InChI=1S/C7H11NO/c1-6-7(2-3-7)4-9-5-8-6/h5-6H,2-4H2,1H3	InChI=1S/C7H11NO/c1-6-7(2-3-7)4-9-5-8-6/h5-6H,2-4H2,1H3/t6-/m1/s1
