23
gdb 118700	3.10773	1.05915	0.92279	1.3072	85.95	-0.2618	0.08	0.3419	1366.7637	0.206132	-388.226887	-388.21767	-388.216726	-388.260871	35.84	
C	 0.0141462906	 1.6360319895	-0.1708543739	-0.481466
C	 0.0067015032	 0.1065274527	-0.0482171812	 0.385892
C	-1.4215207915	-0.3882736814	-0.3641098411	-0.271079
C	-2.349554563	-0.3957935342	 0.8469462595	-0.067473
O	-3.6554150601	-0.718427573	 0.3894360898	-0.42031
C	 1.2050486079	-0.709289232	-0.669176426	-0.088596
C	 2.1229026649	-0.1543243089	 0.4577845463	-0.241005
C	 0.7892017952	-0.5537299659	 1.1568695278	-0.079069
C	 0.8691819405	-1.8653623979	 0.3226954001	-0.228349
H	-0.1388507377	 1.930999433	-1.2154710211	 0.117634
H	-0.8120495343	 2.0672504734	 0.4051499121	 0.115564
H	 0.9299052036	 2.1145193509	 0.1770914416	 0.114346
H	-1.8656182753	 0.2709073068	-1.1187823888	 0.099406
H	-1.4299989704	-1.388551987	-0.803131236	 0.104608
H	-1.9946571259	-1.1342928749	 1.58343351	 0.086403
H	-2.3368331838	 0.5874791859	 1.344273272	 0.084125
H	-4.2403687959	-0.7538240357	 1.1517662407	 0.283572
H	 1.4480420681	-0.8029331347	-1.7302345396	 0.064049
H	 2.9871053538	-0.7742935333	 0.7098957646	 0.087451
H	 2.4053385093	 0.8964601049	 0.4273916424	 0.091008
H	 0.5569570913	-0.4652745872	 2.2207492514	 0.062079
H	-0.0464850705	-2.4344483266	 0.1687816859	 0.094799
H	 1.6998298199	-2.5320236645	 0.5676818033	 0.086409
83.9478	97.5582	141.0564	181.2608	254.4387	266.7301	323.8426	399.978	421.8842	429.9116	554.0676	600.1653	696.0472	772.861	798.4575	800.6941	862.6309	896.5059	899.8623	958.0376	989.5108	1007.0624	1019.5672	1022.0747	1026.8278	1067.8941	1086.9819	1096.169	1111.355	1127.6356	1182.0472	1192.7533	1194.9749	1210.3431	1232.6918	1240.3604	1253.6791	1255.9757	1297.2142	1329.6512	1344.9334	1416.2008	1462.5629	1485.9899	1498.1472	1502.6098	1522.8772	1531.6818	1556.9908	2966.694	2991.3637	3033.3515	3047.642	3066.1696	3067.158	3079.5613	3085.4761	3090.5822	3096.4505	3128.13	3143.1531	3150.4487	3828.7247
CC1(CCO)C2CC1C2	C[C@@]1(CCO)[C@H]2C[C@@H]1C2	
InChI=1S/C8H14O/c1-8(2-3-9)6-4-7(8)5-6/h6-7,9H,2-5H2,1H3	InChI=1S/C8H14O/c1-8(2-3-9)6-4-7(8)5-6/h6-7,9H,2-5H2,1H3/t6-,7+,8-
