19
gdb 40496	4.23907	1.25595	1.21514	1.5374	79.26	-0.2213	0.0809	0.3022	1101.0855	0.160017	-385.807894	-385.800589	-385.799645	-385.8399	29.487	
C	 0.649560565	 1.4797387625	 0.2887004631	-0.267038
C	 1.0960331248	 0.2367652563	-0.4395931435	-0.267152
C	-0.2703361824	 0.2846272962	 0.1995488432	-0.137286
C	-0.5424038073	-0.5073709199	 1.4166232073	 0.513429
O	 0.4953934811	-0.6422841556	 2.3968708283	-0.334125
C	-0.3202939297	-1.6895384851	 2.9983353541	 0.065968
C	-1.5099264537	-0.909650963	 3.614657628	-0.233009
C	-1.8895469267	-0.6142229282	 2.1634901044	-0.165873
C	-1.139906777	-1.8543456509	 1.6673334151	-0.209988
H	 1.1015748379	 1.6804976705	 1.2529833788	 0.132021
H	 0.3974358286	 2.3617174586	-0.2892888135	 0.108932
H	 1.1547253816	 0.2610095047	-1.5220508499	 0.107074
H	 1.8422046852	-0.3809200883	 0.0466043242	 0.12721
H	-1.125396587	 0.3700282668	-0.4644137108	 0.086027
H	 0.259872422	-2.433452075	 3.5398514846	 0.085717
H	-2.232031112	-1.580608496	 4.0876875994	 0.102686
H	-1.253909265	-0.0816497561	 4.2832488964	 0.099858
H	-2.804124502	-0.1862150704	 1.772449193	 0.088895
H	-1.4159947832	-2.6874436369	 1.0361102877	 0.096653
68.5609	153.8051	170.9708	360.9898	373.59	462.1097	569.0091	615.5591	773.7033	779.7126	790.2226	801.9902	811.9715	829.8503	864.7186	904.9386	919.9066	942.9085	954.7619	959.5652	995.6888	1006.4498	1064.2624	1067.332	1073.4558	1085.7648	1094.7859	1124.0663	1146.8696	1161.8929	1185.8016	1203.2292	1218.8923	1250.3836	1269.5425	1306.8181	1342.0669	1460.6998	1475.9374	1485.6604	1512.9204	3047.0077	3109.4516	3137.6401	3140.8335	3146.3266	3153.2722	3193.9404	3211.2334	3221.9662	3236.2056
C1CC1C12OC3CC1C23	C1CC1[C@@]12O[C@H]3C[C@@H]1[C@@H]23	
InChI=1S/C8H10O/c1-2-4(1)8-5-3-6(9-8)7(5)8/h4-7H,1-3H2	InChI=1S/C8H10O/c1-2-4(1)8-5-3-6(9-8)7(5)8/h4-7H,1-3H2/t5-,6+,7-,8-/m1/s1
