14
gdb 18853	3.81481	2.34184	1.94001	3.9343	60.54	-0.2287	-0.0087	0.22	709.326	0.108866	-382.5244	-382.518619	-382.517675	-382.554256	22.775	
O	-0.0007360037	 0.0321725799	-0.1874157087	-0.328798
C	-0.0306977804	 1.2117771509	 0.0234933247	 0.427974
C	-1.130433934	 2.2259789714	 0.0649675835	-0.207192
C	-0.7324517081	 3.3764216296	 0.9969577493	-0.079438
C	 0.3073822271	 3.0907000811	 2.076901193	-0.104642
O	 1.4745780544	 2.6556713258	 1.3731170612	-0.255364
C	 1.0632180602	 2.3291929303	 0.056281968	-0.047394
C	-0.0757052665	 3.3076687906	-0.3283793696	-0.084218
H	-2.1504414253	 2.1028765263	-0.2775237608	 0.114231
H	-1.5110578651	 4.106571541	 1.1834340604	 0.111973
H	 0.5605430547	 3.9936071257	 2.6438826314	 0.114907
H	-0.0275967407	 2.316575204	 2.779284446	 0.114652
H	 1.9361901663	 2.2000225347	-0.5810349401	 0.105831
H	-0.1174036287	 4.0181903885	-1.1401785283	 0.117476
133.8105	242.6351	362.1824	449.1688	563.6999	687.2218	715.266	758.4291	786.4202	840.0604	842.3159	880.2319	939.6806	947.1953	963.1276	1031.3904	1032.7001	1058.1873	1082.4218	1108.4893	1127.8356	1170.6999	1223.9261	1242.0204	1290.8398	1307.9723	1352.0976	1393.2076	1519.5876	1877.4188	3018.9278	3065.2889	3146.1782	3189.8166	3200.7332	3235.3445
O=C1C2C3COC1C23	O=C1[C@H]2[C@H]3CO[C@@H]1[C@@H]23	
InChI=1S/C6H6O2/c7-5-3-2-1-8-6(5)4(2)3/h2-4,6H,1H2	InChI=1S/C6H6O2/c7-5-3-2-1-8-6(5)4(2)3/h2-4,6H,1H2/t2-,3+,4-,6-/m1/s1
