22
gdb 122392	4.82476	0.62278	0.58572	2.8958	85.31	-0.2587	0.0311	0.2898	1965.0425	0.193526	-404.364253	-404.354356	-404.353412	-404.400259	35.834	
C	-0.0687692091	 1.6659096071	-0.0374982408	-0.380519
C	 0.2176029576	 0.1687467601	 0.104313609	-0.166833
C	 0.6551439837	-0.4852377895	-1.2104446204	-0.162253
C	 0.9395257894	-1.9851927505	-1.0738927707	-0.206597
C	 1.3442943301	-2.6367691941	-2.3800067997	 0.128924
C	 1.3542548557	-4.1790078422	-2.4614157606	-0.385676
C	 0.2482491498	-3.9787982074	-3.4754005527	 0.440618
N	-0.4522192434	-4.740628675	-4.1830057936	-0.540396
O	 0.25829879	-2.6027422602	-3.3777111822	-0.265006
H	 0.8195037127	 2.2084899806	-0.3797884553	 0.114031
H	-0.8669428568	 1.8483482927	-0.7654229345	 0.117045
H	-0.380151249	 2.1049483323	 0.9153643954	 0.112663
H	 0.9955613323	 0.0136497059	 0.8639542534	 0.093563
H	-0.6785440093	-0.3420762872	 0.480684396	 0.097663
H	-0.1216606531	-0.3415377938	-1.9714495187	 0.116146
H	 1.5532984148	 0.0224121133	-1.5892549492	 0.092317
H	 1.747505788	-2.1527061583	-0.3480981346	 0.102317
H	 0.0527789268	-2.500536759	-0.6820700177	 0.103556
H	 2.230968668	-2.1567666717	-2.8076044797	 0.091367
H	 2.2606330841	-4.6391119875	-2.85762328	 0.136338
H	 1.0494299745	-4.6981178566	-1.5504524697	 0.134504
H	-1.1052672267	-4.2092244389	-4.7616327638	 0.226227
50.2965	65.986	101.1654	118.7653	155.6645	241.0862	267.0273	301.9194	413.0386	461.4312	492.6044	508.1754	711.5213	738.3552	794.2165	832.7171	866.9793	891.1021	900.2921	941.8808	964.9892	1011.7414	1022.2808	1031.2741	1068.0082	1089.0696	1099.7774	1129.3092	1192.9051	1224.5993	1240.0107	1251.5618	1266.9883	1313.5875	1327.5212	1336.0847	1362.6777	1396.7066	1409.0478	1416.6776	1465.7603	1472.4605	1485.9926	1498.4076	1499.1737	1512.459	1824.6969	3008.2174	3010.8111	3018.1284	3030.4221	3038.1223	3043.2914	3058.7059	3073.3212	3084.6816	3097.1242	3103.1599	3139.9317	3474.1879
CCCCC1CC(=N)O1	CCCC[C@H]1C[C]([NH])O1	
InChI=1S/C7H13NO/c1-2-3-4-6-5-7(8)9-6/h6,8H,2-5H2,1H3	InChI=1S/C7H13NO/c1-2-3-4-6-5-7(8)9-6/h6,8H,2-5H2,1H3/t6-/m0/s1
