19
gdb 38319	3.32479	1.65888	1.50036	0.6525	72.85	-0.2401	0.0807	0.3208	936.1477	0.163354	-423.006039	-422.999596	-422.998651	-423.036686	26.947	
C	-0.0873282522	 1.6250878874	 0.051872807	-0.247151
C	 1.4379350193	 1.3843481133	 0.0240804196	 0.060183
O	 1.21677272	 0.1786632638	 0.8265436181	-0.299166
C	-0.0106426833	 0.082721742	 0.0323249906	 0.060182
C	 0.5617840182	-0.279574156	-1.3608450965	-0.02986
C	-0.2691736884	 0.0901795522	-2.5970439036	-0.116203
O	 0.0653835955	 1.4362833694	-2.9242955067	-0.244373
C	 1.4415034364	 1.6273201121	-2.606778901	-0.116203
C	 1.728400339	 0.768694021	-1.3674846959	-0.02986
H	-0.4085922322	 1.9888066453	 1.0281994057	 0.107911
H	-0.5686615517	 2.1555629687	-0.7690691781	 0.125488
H	 2.1649552755	 2.0767193749	 0.4490276978	 0.078653
H	-0.773839642	-0.5639505772	 0.4657552793	 0.078653
H	 0.8978034029	-1.3172486057	-1.3776838611	 0.082447
H	-0.0270983548	-0.5815879332	-3.4357146578	 0.09431
H	-1.3512221112	 0.0535413768	-2.4335695125	 0.109115
H	 2.078362542	 1.3102912139	-3.4476970975	 0.09431
H	 1.5942412684	 2.7002083258	-2.4503270327	 0.109115
H	 2.7242417286	 0.3239061353	-1.3880806947	 0.082448
157.4879	236.6718	282.9655	349.3569	472.2366	540.2428	593.6711	739.0863	774.8182	794.413	814.1826	860.6193	873.7457	878.9906	922.8033	930.6542	960.0732	1009.3116	1026.2664	1037.1313	1045.2255	1071.5162	1107.2085	1112.3501	1116.6897	1180.5491	1185.4285	1221.9649	1238.5437	1264.4463	1275.6835	1277.0881	1286.4962	1305.2358	1340.4055	1352.3484	1354.5658	1404.6021	1485.8779	1507.0938	1518.7639	2974.9564	2981.1171	3070.7939	3073.6984	3090.0849	3095.3396	3105.3463	3118.4097	3124.3161	3163.0341
C1C2OC1C1COCC21	C1[C@H]2O[C@@H]1[C@H]1COC[C@@H]21	
InChI=1S/C7H10O2/c1-6-4-2-8-3-5(4)7(1)9-6/h4-7H,1-3H2	InChI=1S/C7H10O2/c1-6-4-2-8-3-5(4)7(1)9-6/h4-7H,1-3H2/t4-,5+,6-,7+
