15
gdb 130090	5.20534	1.33463	1.07051	2.5763	74.97	-0.1999	-0.0333	0.1666	1062.0062	0.116705	-413.024796	-413.017961	-413.017017	-413.055887	26.796	
N	-0.0556048357	 1.2967885117	 0.1464127548	-0.582923
C	 0.0055007416	-0.0796211695	 0.0549122008	 0.381632
N	-1.0939088862	-0.8423142336	 0.0377313999	-0.357909
N	-0.5339854906	-2.0805582405	 0.0134991748	 0.051524
C	-1.0283364381	-3.4358176595	-0.013196727	-0.232254
C	 0.2817543755	-4.2058032738	-0.0365352433	-0.096747
C	 1.3312550836	-3.3633220647	-0.0226420767	-0.196146
C	 0.8087694203	-2.0037716653	 0.009383825	 0.387398
N	 1.2062268248	-0.7404521241	 0.033931068	-0.418243
H	 0.7591313749	 1.7510000284	-0.2394321234	 0.257609
H	-0.922460861	 1.6871959831	-0.1932907067	 0.255649
H	-1.6328546382	-3.6667225507	 0.8721308969	 0.149916
H	-1.6427645045	-3.6290836624	-0.9007553075	 0.148387
H	 0.3138092947	-5.2856804649	-0.0592157071	 0.122166
H	 2.3797316689	-3.6215269041	-0.0324416786	 0.129941
115.3655	252.3526	285.556	321.7317	340.3883	437.181	539.4695	585.3901	629.671	665.8414	761.7066	762.992	792.1345	821.3177	911.0584	938.2496	947.8937	979.2902	1024.3321	1094.9858	1106.6432	1173.7487	1189.1267	1270.2277	1329.3484	1356.7257	1415.4828	1444.9764	1486.9063	1550.1661	1575.918	1624.2884	1643.7518	3037.0451	3070.9747	3236.7513	3258.4391	3571.9243	3678.3705
NC1=NN2CC=CC2=N1	Nc1nn2CC=Cc2n1	
InChI=1S/C5H6N4/c6-5-7-4-2-1-3-9(4)8-5/h1-2H,3H2,(H2,6,8)	InChI=1S/C5H6N4/c6-5-7-4-2-1-3-9(4)8-5/h1-2H,3H2,(H2,6,8)
