20
gdb 89731	2.4797	1.44202	1.222	1.8156	75.24	-0.235	0.0688	0.3038	1115.2902	0.168973	-440.244336	-440.234762	-440.233818	-440.277994	36.562	
C	-0.0921490619	 1.5288746972	-0.0325450872	-0.447657
C	 0.0052046453	 0.0083122099	 0.0014926743	 0.299403
O	-1.266375285	-0.5987507442	-0.1271034856	-0.482687
C	 1.1467037496	-0.5683500163	-0.89156816	 0.082204
O	 1.5414740016	 0.2704373882	-1.9512794506	-0.440532
C	 2.0524395943	-0.6938838193	 0.3730294625	-0.360452
C	 0.7787294581	-0.553055333	 1.2082284761	 0.333675
C	 0.5223495169	-0.326908527	 2.6430464869	-0.317319
N	 0.263837889	-1.6452805494	 2.0263669326	-0.365351
H	 0.8814429177	 1.9965744862	 0.1309513408	 0.130906
H	-0.4517038017	 1.8691695778	-1.0101475194	 0.120326
H	-0.7820045542	 1.875043671	 0.742986151	 0.116253
H	-1.7841207237	-0.0977260038	-0.7653861454	 0.282127
H	 0.8403844491	-1.5613594504	-1.2460540592	 0.080524
H	 2.255069719	-0.1609978216	-2.4312762061	 0.286697
H	 2.611370108	-1.6224006764	 0.5017570463	 0.110405
H	 2.7246456221	 0.1642966661	 0.4681729039	 0.104132
H	 1.3478104387	-0.3066291756	 3.3499579213	 0.114697
H	-0.3262766526	 0.2951679879	 2.9196564256	 0.109406
H	-0.7320355002	-1.7444617973	 1.8344990921	 0.243242
85.9964	191.0594	207.6244	217.8468	230.1708	236.7829	250.935	280.6293	344.1951	401.8189	424.9453	496.1263	523.5875	598.6451	684.0656	781.6896	850.7271	875.5621	912.5857	934.4036	962.6585	985.6069	1020.9138	1062.9171	1071.6647	1121.0594	1125.2696	1145.4539	1156.0518	1187.8373	1224.7547	1247.5997	1276.5606	1289.0943	1304.3023	1365.7279	1402.231	1414.1254	1435.1316	1478.2375	1486.4437	1491.2973	1515.0354	3019.1067	3035.2642	3058.0794	3097.999	3103.3625	3124.1342	3128.1193	3181.6845	3484.3853	3817.9347	3821.1293
CC1(O)C(O)CC11CN1	C[C@@]1(O)[C@@H](O)C[C@]21CN2	
InChI=1S/C6H11NO2/c1-5(9)4(8)2-6(5)3-7-6/h4,7-9H,2-3H2,1H3	InChI=1S/C6H11NO2/c1-5(9)4(8)2-6(5)3-7-6/h4,7-9H,2-3H2,1H3/t4-,5+,6+/m0/s1
