21
gdb 95304	2.63571	1.70142	1.47727	1.5448	76.2	-0.2453	0.0774	0.3227	1010.5049	0.185717	-424.251735	-424.244107	-424.243162	-424.283435	30.874	
C	-0.1898652235	 1.5637924108	 0.0983670903	-0.402606
C	 0.0047893889	 0.0482136866	-0.0304576569	 0.003522
C	 0.7465422144	-0.3711747117	-1.3232751471	-0.226111
C	 2.2798234244	-0.23792828	-1.1951577579	-0.215068
C	 2.7505322017	-0.7387058726	 0.1757002495	 0.064147
C	 2.2463245686	-2.1513463951	 0.5200850432	-0.095892
O	 0.9457614874	-1.917616075	 1.0642233966	-0.280547
C	 0.7873406001	-0.5036303574	 1.173096331	 0.199057
O	 2.0948468119	 0.0305441145	 1.1935323546	-0.255821
H	 0.770099026	 2.0870876886	 0.1097379766	 0.128283
H	-0.7847015444	 1.9515875401	-0.7344765096	 0.110846
H	-0.7135101769	 1.8171304065	 1.0270295359	 0.112145
H	-0.9803030665	-0.4336009981	-0.0248239911	 0.077136
H	 0.496994748	-1.4146229513	-1.5411071645	 0.110034
H	 0.3862208148	 0.2172678414	-2.1735920707	 0.093269
H	 2.7790340928	-0.7941705725	-1.997173983	 0.095524
H	 2.5900357352	 0.8082486601	-1.2911641269	 0.108317
H	 3.8281979392	-0.6230614137	 0.3094697316	 0.083672
H	 2.1727339108	-2.8075169766	-0.3541942798	 0.103907
H	 2.8818346944	-2.6320933776	 1.2738098181	 0.103876
H	 0.3051659527	-0.2714962469	 2.1285214101	 0.082307
148.4099	189.0125	210.0607	250.1299	338.6939	356.849	454.3214	456.2532	515.5521	665.002	758.6031	773.8768	803.6742	820.1579	896.3607	914.632	934.0927	943.9548	962.7895	993.8807	1025.3816	1040.8906	1048.6807	1082.0009	1121.4156	1130.2232	1167.7253	1203.0152	1216.7465	1234.0165	1298.9587	1326.5422	1328.6342	1337.9147	1352.4483	1371.401	1383.292	1387.5174	1401.7289	1414.5725	1478.9288	1490.8172	1499.6658	1505.6893	1522.7845	3022.1516	3031.0669	3034.0809	3034.6703	3046.7353	3061.0126	3066.5931	3069.9994	3086.904	3094.9716	3096.9512	3117.9974
CC1CCC2COC1O2	C[C@H]1CC[C@@H]2CO[C@H]1O2	
InChI=1S/C7H12O2/c1-5-2-3-6-4-8-7(5)9-6/h5-7H,2-4H2,1H3	InChI=1S/C7H12O2/c1-5-2-3-6-4-8-7(5)9-6/h5-7H,2-4H2,1H3/t5-,6+,7-/m0/s1
