20
gdb 102627	2.32107	1.06231	0.80524	7.3962	72.35	-0.2415	0.0368	0.2783	1437.7602	0.170194	-477.44878	-477.438646	-477.437702	-477.484517	35.975	
C	-0.1556352519	 1.5366236926	-0.1516107698	-0.332295
N	 0.0888217308	 0.0961704524	-0.0569078774	-0.302733
H	 0.6246471497	-0.1081534736	 0.7830075664	 0.243621
H	-1.2796412919	-0.9788324149	-0.2558727336	 0.306378
C	 0.8189514059	-0.4956378283	-1.1974368041	 0.01877
C	 2.3183218737	-0.1790617435	-1.1503758169	-0.096044
O	 2.8047671103	-0.6701153659	 0.0919363311	-0.421586
C	 0.5771211289	-2.0176149164	-1.2281388354	-0.342505
C	-0.8848154127	-2.4510688926	-1.3833576054	 0.388808
O	-1.7738621173	-1.7239697443	-0.6952329911	-0.374463
O	-1.2095014795	-3.3953030097	-2.055657548	-0.336859
H	 0.7551301779	 2.1397010375	-0.2793704932	 0.113968
H	-0.8184747829	 1.7354528278	-0.99942563	 0.139727
H	-0.6613362682	 1.8738300659	 0.7569103071	 0.134628
H	 0.408591195	-0.0501132588	-2.1119670776	 0.096238
H	 2.8225858303	-0.6585316505	-2.0021968396	 0.102554
H	 2.4780380388	 0.9060989872	-1.2359586853	 0.094887
H	 3.7409428485	-0.4652429054	 0.1636375554	 0.298236
H	 1.1329142023	-2.4729931038	-2.0502443326	 0.127874
H	 0.9674043926	-2.4531451256	-0.3003807099	 0.140797
62.5689	94.2639	102.4193	129.7815	191.3841	231.062	248.3672	279.1445	303.024	363.7009	383.6619	514.2763	579.4906	649.9232	704.2566	781.7959	884.3962	893.9291	931.741	952.7093	1009.4764	1034.5947	1082.2204	1093.9884	1136.0676	1158.9996	1168.9522	1191.8638	1249.6072	1273.2134	1291.7887	1301.4517	1367.5968	1372.1032	1442.4124	1456.2589	1462.2183	1488.2803	1494.3135	1515.14	1519.6315	1523.7093	1857.0424	2984.0817	2997.8241	3019.99	3040.5929	3054.1291	3079.4141	3118.3063	3118.9344	3172.0101	3505.2413	3843.3992
C[NH2+]C(CO)CC([O-])=O	CN[C@@H](CO)CC(=O)O	
InChI=1S/C5H11NO3/c1-6-4(3-7)2-5(8)9/h4,6-7H,2-3H2,1H3,(H,8,9)	InChI=1S/C5H11NO3/c1-6-4(3-7)2-5(8)9/h4,6-7H,2-3H2,1H3,(H,8,9)/t4-/m1/s1
