23
gdb 116167	3.12066	1.05794	0.83744	1.5269	83.18	-0.2478	0.0891	0.3369	1453.3186	0.206106	-425.44158	-425.432113	-425.431169	-425.475632	35.89	
C	 0.0332296039	 1.388843756	-0.0185709641	-0.240552
O	 0.055854151	-0.0280952445	-0.0035894077	-0.237736
C	 0.7068392542	-0.5742675908	 1.0913162848	 0.217089
C	 0.5193012155	-2.0874756657	 1.0710160867	-0.216197
C	 1.31499854	-2.7564182232	 2.20511284	 0.022577
C	 1.2151676012	-4.2824336885	 2.1485138878	-0.402113
C	 2.7721911753	-2.2655741325	 2.163475171	-0.193301
C	 2.8257535084	-0.7379307753	 2.1140630524	-0.083888
O	 2.0832941623	-0.2315606399	 1.0170918727	-0.259932
H	 1.0421384811	 1.8073014367	-0.0963191834	 0.1296
H	-0.5533698573	 1.6860004129	-0.890486885	 0.124608
H	-0.4468523786	 1.788123694	 0.8879808892	 0.101617
H	 0.29842991	-0.1491369617	 2.0338960356	 0.041021
H	-0.5479413311	-2.3202972851	 1.1501361637	 0.098869
H	 0.8663426127	-2.4494462422	 0.0956791955	 0.109067
H	 0.8811246772	-2.4217305199	 3.1600368178	 0.068926
H	 1.6371693487	-4.6678517905	 1.2131303642	 0.11573
H	 1.7611874882	-4.7464869358	 2.9768450217	 0.109631
H	 0.1729509928	-4.6143350437	 2.2044863345	 0.111831
H	 3.3272901288	-2.62853512	 3.0369844632	 0.090749
H	 3.2693262616	-2.6668250483	 1.2708474335	 0.102168
H	 2.4404711389	-0.3175512549	 3.0600338521	 0.083597
H	 3.8494597449	-0.3761484672	 1.9826801238	 0.106639
96.3069	128.6263	160.2767	173.5574	235.246	249.621	297.9338	313.1512	382.0823	416.4085	448.9536	505.4889	553.063	608.244	800.4919	849.1104	898.6485	921.9362	970.1766	985.6616	1000.1955	1019.4439	1063.5106	1101.2749	1109.7638	1157.0875	1170.6192	1179.988	1192.3546	1206.537	1239.1766	1279.1742	1286.5751	1296.9773	1338.3224	1372.1263	1384.0516	1390.2193	1408.3445	1415.7397	1421.7633	1470.0861	1480.1551	1483.2691	1485.816	1497.5745	1499.4639	1501.7464	1513.423	2865.4171	2951.5595	2985.015	2990.7544	3021.6804	3026.3264	3038.596	3067.4573	3074.2834	3084.5427	3085.8032	3094.756	3097.3738	3126.722
COC1CC(C)CCO1	CO[C@H]1C[C@@H](C)CCO1	
InChI=1S/C7H14O2/c1-6-3-4-9-7(5-6)8-2/h6-7H,3-5H2,1-2H3	InChI=1S/C7H14O2/c1-6-3-4-9-7(5-6)8-2/h6-7H,3-5H2,1-2H3/t6-,7+/m0/s1
