14
gdb 23332	2.19976	1.61621	1.08589	2.9665	70.84	-0.2629	-0.0004	0.2624	1078.1024	0.100851	-432.739544	-432.731885	-432.730941	-432.772036	28.54	
O	-0.0875922096	 1.3666061744	-0.0529993816	-0.390328
N	 0.0556520575	-0.0309497899	-0.0545626653	-0.304639
C	-1.0564261527	-0.6099996568	-0.0280844431	 0.573605
C	-2.570034035	-0.4347166051	 0.0127789112	-0.134076
N	-2.5939033676	-1.5338272468	-1.0480378504	-0.321104
C	-1.5871774095	-2.0274406145	-0.0104249119	-0.123224
C	-2.5731574116	-1.5527284785	 1.1274214337	-0.166753
C	-2.0793404331	-1.2712918407	 2.4663274297	 0.267432
N	-1.6915543632	-1.0524403718	 3.5329657493	-0.311016
H	 0.8294005277	 1.6628155897	-0.0523732718	 0.314602
H	-3.1821477384	 0.4612416432	-0.0417881362	 0.125733
H	-3.4628180251	-2.0702985713	-0.9437831736	 0.221256
H	-1.0637333971	-2.9769368531	-0.0914823988	 0.121056
H	-3.5041630522	-2.1258657388	 1.1620029289	 0.127455
80.9529	161.2685	200.9555	206.3642	327.9659	405.0146	451.4416	511.4376	518.7584	551.7013	718.8638	743.3898	760.498	857.031	860.7152	907.0885	970.2689	987.7122	1036.3369	1093.6406	1102.9734	1132.009	1146.1761	1154.3336	1216.92	1273.7998	1295.4765	1363.6759	1424.719	1854.413	2356.1118	3077.4833	3161.855	3170.9601	3370.2726	3815.8737
ON=C1C2NC1C2C#N	ON=C1[C@H]2N[C@@H]1[C@H]2C#N	
InChI=1S/C5H5N3O/c6-1-2-3-5(8-9)4(2)7-3/h2-4,7,9H	InChI=1S/C5H5N3O/c6-1-2-3-5(8-9)4(2)7-3/h2-4,7,9H/t2-,3-,4+
