23
gdb 59502	2.26584	1.09308	0.80797	2.5351	86.8	-0.247	-0.0218	0.2252	1491.5184	0.203233	-388.295781	-388.28525	-388.284306	-388.332178	38.285	
C	 0.3910013391	 0.7818285368	 1.6996934131	-0.382605
C	-0.1346949167	-0.6576397056	 1.5847141336	 0.013236
C	-0.3594052141	-1.2766559048	 2.972345605	-0.401599
C	-1.4041441381	-0.6824479889	 0.7475207427	 0.03968
C	-1.341424817	-0.6462763636	-0.7611370756	-0.325398
C	-1.8780997142	-1.872130561	-0.0624147078	-0.032606
C	-1.1357432429	-3.1990707581	-0.1270280486	-0.299822
C	-1.6929628211	-4.1891450446	 0.8728608057	 0.167534
O	-1.064728839	-4.7175976303	 1.7541582619	-0.237641
H	 1.326085911	 0.8146322426	 2.2682412827	 0.109676
H	 0.5758716541	 1.2185878591	 0.7133474905	 0.11243
H	-0.3337792856	 1.421902544	 2.2169627774	 0.110592
H	 0.6342668269	-1.24800344	 1.068884917	 0.070253
H	-0.6376750157	-2.3314210991	 2.9037630771	 0.137835
H	 0.5486563849	-1.2089847177	 3.5807287893	 0.109143
H	-1.1561900577	-0.7479595407	 3.5094796151	 0.106871
H	-2.2093669437	-0.0990594766	 1.1919649336	 0.07971
H	-2.0297842919	-0.015189137	-1.3128596156	 0.111279
H	-0.3572267271	-0.7279510586	-1.2141164135	 0.11109
H	-2.958943096	-1.9915838196	-0.1064195491	 0.085363
H	-1.273602113	-3.6351332254	-1.1279699313	 0.118257
H	-0.0630379018	-3.0886870036	 0.0471160638	 0.123171
H	-2.7804603203	-4.4043296173	 0.741684133	 0.073551
41.4261	63.4696	87.7468	161.2742	192.7798	229.1416	243.0177	268.464	339.2835	342.7807	392.3371	468.3334	492.9776	548.3131	744.153	761.8061	848.1639	869.3503	894.9372	930.5087	951.2275	972.1649	982.0367	1026.6087	1039.193	1069.3249	1084.8585	1137.3848	1149.4811	1169.4824	1187.0714	1211.0748	1226.38	1250.3013	1288.5943	1316.3406	1340.5403	1399.9374	1403.3449	1422.6522	1430.9266	1434.7314	1466.8727	1488.2211	1492.4914	1493.8989	1506.4631	1512.1648	1832.056	2848.6979	3004.0167	3011.7905	3025.2422	3030.3355	3088.5247	3094.3701	3104.4446	3107.0873	3112.5998	3121.7361	3122.226	3126.1378	3205.8432
CC(C)C1CC1CC=O	CC(C)[C@H]1C[C@H]1CC=O	
InChI=1S/C8H14O/c1-6(2)8-5-7(8)3-4-9/h4,6-8H,3,5H2,1-2H3	InChI=1S/C8H14O/c1-6(2)8-5-7(8)3-4-9/h4,6-8H,3,5H2,1-2H3/t7-,8-/m1/s1
