17
gdb 72676	2.42727	1.50028	1.44145	1.5452	74.8	-0.2467	0.0074	0.2541	1025.6728	0.133389	-421.751998	-421.743472	-421.742528	-421.784944	32.198	
C	-0.1621281901	 1.567015918	-0.0367259349	-0.478481
C	 0.0204520423	 0.0786949492	 0.0268567708	 0.324674
C	-1.1795377851	-0.8777358306	 0.1344148589	-0.120581
O	-0.5179294778	-1.6642835862	 1.1592931296	-0.330329
C	 0.6237678504	-0.7791563544	 1.1917720669	 0.156891
C	 1.6893961564	-1.1771036616	 0.1502304307	-0.126416
O	 1.0184266247	-0.4232971604	-0.886654639	-0.326188
C	 1.0110093105	-0.3375967176	 2.5030421464	 0.266676
C	 1.3506944089	 0.0509654195	 3.5891665147	-0.417741
H	 0.7920123667	 2.0795873577	 0.1117055988	 0.134835
H	-0.5527494345	 1.8535197884	-1.01966973	 0.136034
H	-0.8674196651	 1.9059203114	 0.7274865795	 0.130694
H	-2.103332765	-0.4278521728	 0.5189662902	 0.106249
H	-1.3881128361	-1.4554254994	-0.7715429787	 0.114129
H	 2.6930508603	-0.7829819227	 0.3465354684	 0.111871
H	 1.7322794416	-2.2507598629	-0.058790414	 0.117772
H	 1.6453767419	 0.3870095043	 4.5528458318	 0.199912
108.1232	113.8532	171.8023	193.7442	258.1808	338.9807	369.2803	386.6745	512.9828	550.2573	555.4843	629.4291	668.8347	677.5899	715.0208	857.0921	888.0821	929.7551	964.0751	995.7954	1011.1344	1044.7225	1095.6142	1141.6446	1154.5313	1174.9239	1207.0518	1242.9829	1269.9823	1343.9098	1362.7719	1411.7149	1478.2511	1485.8895	1502.4203	1505.6377	2235.028	3020.6218	3028.9402	3038.6343	3086.116	3091.1514	3107.8317	3124.7855	3499.4706
CC12COC1(CO2)C#C	C[C@]12CO[C@]1(CO2)C#C	
InChI=1S/C7H8O2/c1-3-7-5-8-6(7,2)4-9-7/h1H,4-5H2,2H3	InChI=1S/C7H8O2/c1-3-7-5-8-6(7,2)4-9-7/h1H,4-5H2,2H3/t6-,7-/m0/s1
