20
gdb 117048	3.96588	0.78582	0.67849	1.8569	80.63	-0.2245	-0.0179	0.2066	1706.8762	0.170341	-436.509954	-436.499108	-436.498163	-436.54753	37.289	
C	-0.1190292827	 1.517830792	-0.2137279103	-0.403655
C	 0.0393855744	 0.0136203473	-0.0205238596	-0.096782
N	 0.6498949048	-0.5935828434	-1.1880722502	-0.295577
C	 0.7951640942	-1.9350854117	-1.3128815771	 0.260613
N	 0.263352256	-2.7652452975	-0.4879347303	-0.552888
C	 1.6495940678	-2.2707790012	-2.5399302393	 0.376623
O	 2.4403287197	-1.4576910756	-2.9948218465	-0.392207
N	 1.4469235528	-3.5067582433	-3.0579239459	-0.322471
C	 2.1550257264	-3.9897593596	-4.2277369717	-0.335426
H	 0.8517608488	 2.0030476708	-0.366035864	 0.121095
H	-0.7494473058	 1.7394372727	-1.0804515091	 0.126359
H	-0.5799870577	 1.9677703537	 0.6696358939	 0.124191
H	 0.6357015191	-0.2008761099	 0.8786130863	 0.110091
H	-0.9322563856	-0.4642771525	 0.141360955	 0.129473
H	 1.2808916177	-0.0510786369	-1.7609081602	 0.257833
H	 0.5111669022	-3.7246703159	-0.7169316994	 0.203431
H	 0.675375521	-4.0435550093	-2.6970214241	 0.251002
H	 1.4806337245	-4.1067987224	-5.0833844153	 0.13239
H	 2.9176064034	-3.2515294666	-4.477376334	 0.173561
H	 2.6350866491	-4.9524116507	-4.0242167281	 0.132346
27.3254	69.7195	76.1086	105.979	126.565	161.6718	237.2448	267.7061	323.7763	357.2641	392.7381	443.0517	534.976	550.7148	594.2734	752.0841	786.7528	812.8899	827.4814	894.5505	915.2379	1040.1002	1087.7891	1147.0406	1153.9362	1169.7117	1173.6739	1185.2805	1256.3921	1285.1658	1314.6143	1388.9831	1414.8658	1441.7141	1490.7782	1493.5381	1499.3761	1499.5944	1524.5662	1548.632	1574.5984	1693.7293	1764.803	2999.9397	3032.6637	3035.4995	3068.0143	3087.7957	3104.4176	3120.2149	3156.9712	3510.1265	3604.2783	3644.2451
CCNC(=N)C(=O)NC	CCNC(=N)C(=O)NC	
InChI=1S/C5H11N3O/c1-3-8-4(6)5(9)7-2/h3H2,1-2H3,(H2,6,8)(H,7,9)	InChI=1S/C5H11N3O/c1-3-8-4(6)5(9)7-2/h3H2,1-2H3,(H2,6,8)(H,7,9)
