17
gdb 77655	2.1362	1.55132	1.2384	3.8911	71.67	-0.2343	-0.0287	0.2056	1083.9813	0.133337	-458.920725	-458.911895	-458.91095	-458.954013	32.597	
C	-0.0607517158	 1.5824847949	 0.0315803456	-0.49539
C	-0.0005839412	 0.0843235692	 0.0289018145	 0.168688
C	 0.6528754666	-0.7855328681	-1.0421777141	-0.131747
O	 1.1318368112	-1.7437125703	-0.0596354171	-0.304554
C	 0.6559804599	-0.9330334933	 1.0010718796	 0.289963
C	 1.4100489386	-0.7418420744	 2.2398706708	 0.048026
O	 2.4785110638	-1.2516985946	 2.4842485049	-0.273273
C	-0.8677743324	-0.794711386	 0.8719313939	-0.022448
O	-1.5571308773	-0.1080814089	 1.8658862398	-0.414943
H	 0.9265130202	 2.0210383086	-0.1427596813	 0.130825
H	-0.7305244648	 1.933746636	-0.7626538297	 0.131093
H	-0.4500638652	 1.9551047617	 0.9806445278	 0.15119
H	-0.003765271	-1.2473995222	-1.7883940275	 0.112169
H	 1.495285404	-0.2914534742	-1.5396704892	 0.120843
H	 0.8962885849	-0.0708813293	 2.9623265198	 0.079266
H	-1.3800227097	-1.6495887977	 0.4246215978	 0.107338
H	-1.7367330216	-0.7178110613	 2.5894417345	 0.302955
95.8965	159.9251	184.0972	204.2603	236.0139	272.339	284.6909	366.3176	373.0829	451.0724	526.4672	550.1367	646.2052	739.5306	799.8516	815.9859	950.3063	990.6014	998.2143	1032.3311	1047.2154	1093.6726	1131.0679	1149.6155	1171.5868	1238.6887	1263.8005	1278.9461	1352.4257	1363.746	1414.0086	1430.0678	1464.9427	1491.0349	1496.7147	1517.1615	1796.8137	2892.693	3024.9949	3033.7587	3075.8023	3078.3219	3093.8379	3139.143	3810.8955
CC12COC1(C=O)C2O	C[C@@]12CO[C@]1(C=O)[C@H]2O	
InChI=1S/C6H8O3/c1-5-3-9-6(5,2-7)4(5)8/h2,4,8H,3H2,1H3	InChI=1S/C6H8O3/c1-5-3-9-6(5,2-7)4(5)8/h2,4,8H,3H2,1H3/t4-,5-,6+/m0/s1
