21
gdb 89508	2.47169	1.61844	1.2026	1.3019	84.68	-0.2326	0.0088	0.2415	1132.777	0.18209	-387.075537	-387.066841	-387.065896	-387.108347	34.067	
C	 0.1693900507	 1.5394687006	 0.1187715817	-0.402565
C	-0.0270273654	 0.0381883667	 0.0909277473	 0.070435
O	 0.8865806618	-0.652454464	-0.8297735382	-0.369579
C	 1.1423875775	-1.7159646506	 0.1682635421	 0.431675
C	 0.4048265611	-2.9847375606	-0.2333196493	-0.446485
C	 2.5720135283	-1.9501892885	 0.6990706534	-0.286969
C	 2.3953307783	-1.7669119078	 2.2440198987	-0.246523
C	 1.2501717586	-0.755070984	 2.3315288728	-0.209027
C	 0.5542453158	-0.804207277	 1.2019192248	 0.13425
H	 1.1999853744	 1.7853692311	 0.3864908875	 0.124011
H	-0.0506214736	 1.9675576747	-0.8641447391	 0.127779
H	-0.5065587961	 1.9972909569	 0.8489147587	 0.118676
H	-1.0655030691	-0.2093660507	-0.1721549718	 0.079175
H	 0.827862251	-3.3795548688	-1.1632349916	 0.125216
H	 0.5031332311	-3.7544843389	 0.539708572	 0.116092
H	-0.6594357991	-2.7944624785	-0.3976878	 0.116769
H	 2.9992090394	-2.9190213126	 0.4227633946	 0.090007
H	 3.2240009857	-1.1612264537	 0.3124012191	 0.11523
H	 2.1633431547	-2.7192343499	 2.7402694576	 0.108154
H	 3.3041162276	-1.3851852796	 2.7206074969	 0.106574
H	 1.1450622275	-0.046478115	 3.1447954628	 0.097105
121.3568	144.7066	206.8469	220.2418	243.8673	257.3605	335.8548	367.6273	433.7569	514.4044	603.2771	635.4253	698.7186	764.8348	818.1075	845.0047	860.6943	886.4343	897.4721	920.6765	955.1899	964.6396	1020.8827	1061.0417	1068.4866	1100.8329	1134.9336	1175.0599	1196.5333	1219.4121	1236.9246	1275.0397	1290.2546	1312.9762	1344.119	1383.0792	1401.3389	1405.6151	1475.7209	1481.6656	1485.2161	1489.1546	1491.5183	1492.6737	1737.7156	2994.8392	3013.4421	3031.927	3038.5954	3051.3791	3070.5758	3100.5819	3104.6672	3108.5291	3112.2467	3126.6877	3198.2484
CC1OC2(C)CCC=C12	C[C@H]1O[C@@]2(C)CC[CH][C]12	
InChI=1S/C8H12O/c1-6-7-4-3-5-8(7,2)9-6/h4,6H,3,5H2,1-2H3	InChI=1S/C8H12O/c1-6-7-4-3-5-8(7,2)9-6/h4,6H,3,5H2,1-2H3/t6-,8+/m1/s1
