18
gdb 11064	3.32091	2.31674	1.93038	1.8077	65.86	-0.2485	0.0785	0.3271	784.7173	0.155922	-384.960508	-384.953796	-384.952852	-384.990973	26.979	
C	-0.0657087864	 1.467447258	 0.0153844061	-0.487355
C	 0.0467944976	-0.0369927379	-0.0002395754	 0.359309
C	 0.6795971303	-0.6909552226	-1.2568784935	-0.25404
C	 0.0746570285	-2.1244466208	-1.1903121938	-0.235195
C	-0.7700548046	-1.9922768486	 0.0904428414	 0.184453
O	 0.1039558158	-2.0149551138	 1.2197360812	-0.276244
C	 0.676037524	-0.6996095822	 1.2475218944	-0.104414
O	-1.2543905111	-0.6681724538	 0.0337898328	-0.277134
H	 0.9293220844	 1.9236410883	 0.0121118464	 0.123066
H	-0.6064045358	 1.8215963762	-0.8668282509	 0.129772
H	-0.5981435674	 1.8074475808	 0.9081807043	 0.13061
H	 0.361156149	-0.15942683	-2.1569865368	 0.103947
H	 1.771886885	-0.680384478	-1.2242103923	 0.10214
H	-0.5559249184	-2.3435075563	-2.0557410764	 0.105023
H	 0.8219151644	-2.9139041995	-1.0926496047	 0.110646
H	-1.5795544763	-2.7059403293	 0.2417674269	 0.088326
H	 1.7694552769	-0.7558738495	 1.1975696912	 0.097979
H	 0.3831688443	-0.1878234111	 2.1725140891	 0.099112
168.281	202.6721	278.7196	320.2585	382.6726	416.2714	578.3795	608.9692	650.8969	784.1266	829.3367	836.0329	873.2197	891.4932	915.9218	934.6574	981.9233	1002.7595	1012.9991	1046.5494	1096.5923	1116.9616	1163.7242	1196.5557	1215.8008	1241.5448	1259.3749	1292.3313	1314.1847	1333.8842	1342.3131	1391.9718	1417.6811	1476.212	1485.3549	1495.4605	1499.0256	1525.6944	3019.1787	3042.4431	3061.3338	3064.8613	3072.0363	3106.3826	3113.9882	3119.7137	3128.4262	3132.6949
CC12CCC(OC1)O2	C[C@@]12CC[C@@H](OC1)O2	
InChI=1S/C6H10O2/c1-6-3-2-5(8-6)7-4-6/h5H,2-4H2,1H3	InChI=1S/C6H10O2/c1-6-3-2-5(8-6)7-4-6/h5H,2-4H2,1H3/t5-,6+/m0/s1
