18
gdb 81597	3.62985	1.16893	1.02289	1.8268	71.22	-0.2519	0.0552	0.307	1181.2582	0.148362	-438.970497	-438.962865	-438.961921	-439.002936	29.931	
O	-0.6111724035	 1.2591444328	-0.6853528167	-0.44252
C	-0.3084206881	-0.0612780492	-0.3999172326	 0.180646
C	 0.0567868138	-0.432207679	 1.06628312	-0.032052
O	-1.3558724255	-0.1221174975	 1.4318330316	-0.338322
C	-1.4405188964	-0.9591818839	 0.2037218555	-0.053467
C	-0.3767748016	-1.9021126098	 0.8247829837	 0.008778
C	 0.4464147831	-2.8777660011	 0.0189293269	-0.045388
C	-0.1792747086	-4.0998578992	-0.5467385591	-0.236734
N	 0.3206360192	-3.0425748912	-1.4420145578	-0.316385
H	-1.1462477608	 1.5624169654	 0.0630274448	 0.288534
H	 0.3118314107	-0.4622981577	-1.2009716317	 0.114486
H	 0.8367513859	-0.0360134424	 1.7177221737	 0.099674
H	-2.4412201446	-1.1787174852	-0.1724348226	 0.09916
H	-0.7390136272	-2.3460070725	 1.7557840442	 0.100988
H	 1.4778257607	-2.9649199103	 0.3575215672	 0.10188
H	 0.3739543743	-5.0340100812	-0.5793670104	 0.121851
H	-1.2546555434	-4.2147321793	-0.4325055957	 0.113593
H	-0.465229288	-2.5000866688	-1.7915035809	 0.235278
77.8129	151.2345	169.4644	287.1097	343.1326	388.892	429.0823	589.8124	599.7274	685.9904	756.693	795.1812	814.8446	837.4978	859.5139	893.0127	909.0005	916.1665	963.8588	995.9208	1045.0927	1077.3123	1115.4747	1131.1208	1137.857	1151.8025	1160.6461	1182.5815	1187.5539	1215.6589	1259.7263	1263.1166	1264.9185	1304.7513	1320.9984	1366.3239	1415.5912	1459.6926	1512.6028	3081.0279	3105.0318	3106.1747	3115.0684	3117.254	3134.6032	3191.9803	3502.066	3733.5559
OC1C2OC1C2C1CN1	O[C@H]1[C@H]2O[C@@H]1[C@H]2[C@H]1CN1	
InChI=1S/C6H9NO2/c8-4-5-3(2-1-7-2)6(4)9-5/h2-8H,1H2	InChI=1S/C6H9NO2/c8-4-5-3(2-1-7-2)6(4)9-5/h2-8H,1H2/t2-,3-,4-,5-,6+/m1/s1
