17
gdb 131856	5.65237	0.79071	0.71251	5.433	71.54	-0.211	0.0393	0.2503	1528.7056	0.138379	-451.338542	-451.329862	-451.328918	-451.372911	30.902	
O	 0.002688134	 1.3560462878	-0.3326446216	-0.417319
C	-0.0628798264	 0.0081962291	 0.1108731527	-0.090369
C	-1.5326119416	-0.3837262844	 0.1256492903	-0.145096
N	-2.0795961664	-0.2369637529	-1.2118219177	-0.395567
C	-3.3975114702	-0.5080054882	-1.4669886903	 0.489444
N	-4.090343119	-0.0554401397	-2.5013571178	-0.359469
C	-5.3039918108	-0.6531389628	-2.3289886291	 0.035874
N	-5.4237427292	-1.4325091029	-1.274042775	-0.232279
N	-4.1730922358	-1.3271721629	-0.7178637368	-0.270133
H	 0.9190655352	 1.5750666526	-0.5231327699	 0.298135
H	 0.4841513277	-0.6617273063	-0.5677343266	 0.107923
H	 0.3534288152	-0.1066696324	 1.1223583704	 0.100248
H	-1.6064991748	-1.4306297622	 0.4460870599	 0.10766
H	-2.065820377	 0.2339886372	 0.8661875372	 0.116169
H	-1.7564562998	 0.5971252003	-1.6836445837	 0.264904
H	-6.1276947157	-0.5008020134	-3.011056004	 0.118417
H	-3.9580044355	-1.8322767889	 0.1234060122	 0.271456
55.6781	72.4019	126.4957	176.6275	256.1715	291.8414	314.4427	433.2829	462.6418	488.4641	634.2291	678.9803	759.1455	782.4609	903.3572	912.9714	933.0934	976.8286	1044.3734	1082.5001	1096.8791	1106.3864	1155.2113	1208.9126	1235.4619	1269.029	1300.2749	1302.8227	1325.2564	1348.3398	1417.6736	1459.5236	1489.95	1505.7981	1514.1309	1555.1188	1642.9994	2975.8391	2990.9193	3031.4842	3044.7346	3254.5554	3596.2935	3687.3263	3840.6037
OCCNC1=NC=NN1	OCCNc1ncn[nH]1	
InChI=1S/C4H8N4O/c9-2-1-5-4-6-3-7-8-4/h3,9H,1-2H2,(H2,5,6,7,8)	InChI=1S/C4H8N4O/c9-2-1-5-4-6-3-7-8-4/h3,9H,1-2H2,(H2,5,6,7,8)
