18
gdb 53242	6.75774	0.6362	0.6292	4.4494	87.4	-0.2537	0.023	0.2767	1786.168	0.146942	-364.798138	-364.788548	-364.787604	-364.834992	33.274	
C	 0.5319231695	 1.4530941526	-0.6198152643	-0.498687
C	 0.230505941	 0.0791989789	-0.2445738201	 0.105783
C	-0.0132533375	-1.0608893505	 0.0598941372	 0.029916
C	-0.324015724	-2.4212235143	 0.4444841031	-0.144875
C	-0.229732447	-2.8189811483	 1.9525020223	-0.233436
C	-1.5365568715	-3.6631552361	 1.7869163598	-0.171506
C	-1.8184079568	-2.8768991949	 0.4639643255	-0.23344
C	-1.2941493658	-5.0835621248	 1.5834746449	 0.273462
N	-1.0940892727	-6.2100697354	 1.4138012284	-0.328513
H	 1.3190881567	 1.494508699	-1.380621029	 0.151116
H	-0.3510809385	 1.9563831776	-1.0289999055	 0.149611
H	 0.873974892	 2.0353450623	 0.242970455	 0.14939
H	 0.2614608961	-3.1285366879	-0.1528593364	 0.118405
H	 0.6678708508	-3.3453344115	 2.2775726345	 0.130255
H	-0.4081680921	-1.9611081337	 2.6030657246	 0.123343
H	-2.2810397951	-3.5438515119	 2.5768391367	 0.125576
H	-2.48894039	-2.036956384	 0.6534353752	 0.123351
H	-2.179822315	-3.4491536471	-0.390620362	 0.130249
14.1569	47.85	81.5177	133.8261	196.4855	240.4092	300.7814	320.3961	437.9261	502.9109	522.4229	569.1202	599.6574	793.0983	825.5106	841.5495	922.6297	930.2407	978.926	1012.7216	1052.2071	1052.5627	1087.3354	1104.446	1184.8352	1193.2787	1196.2311	1252.9653	1260.1826	1270.4014	1341.4043	1373.3668	1415.0175	1472.8988	1477.5576	1478.3585	1493.3791	2351.626	2368.2907	3026.8128	3046.5128	3082.1075	3082.3849	3087.3939	3088.4703	3092.1243	3147.1823	3148.823
CC#CC1CC(C1)C#N	CC#C[C@H]1C[C@@H](C1)C#N	
InChI=1S/C8H9N/c1-2-3-7-4-8(5-7)6-9/h7-8H,4-5H2,1H3	InChI=1S/C8H9N/c1-2-3-7-4-8(5-7)6-9/h7-8H,4-5H2,1H3/t7-,8-
