19
gdb 38047	3.56101	1.74037	1.49379	0.3188	83.97	-0.2182	0.0144	0.2326	931.3196	0.162407	-348.717689	-348.71139	-348.710446	-348.747755	27.976	
C	-0.060352653	 1.572560982	 0.2242175029	-0.239224
C	 1.4708750034	 1.3727496689	 0.0319989775	-0.125486
C	 1.7461512812	 0.422897105	 1.2198948103	-0.079557
C	 0.7340853127	-0.4561539614	 1.1830939518	-0.204656
C	-0.0622750957	 0.0123407047	-0.0334969529	 0.34802
C	-1.218406199	-0.5892773289	-0.8178018242	-0.413271
C	-0.9047891003	-0.0604404333	-2.2163820878	-0.040849
C	 0.3215108196	 0.4686260952	-2.329279233	-0.145532
C	 1.1015523789	 0.2835457207	-1.0541860986	-0.000882
H	-0.3954968848	 1.903962901	 1.2092511817	 0.087229
H	-0.5420133621	 2.1460583196	-0.5705054635	 0.098331
H	 2.1655586123	 2.1956365156	-0.1389613266	 0.054583
H	 2.5754473098	 0.490122455	 1.9101898189	 0.096114
H	 0.5185601446	-1.295402325	 1.8292183518	 0.099772
H	-1.2257986512	-1.6888430097	-0.8028504655	 0.106318
H	-2.2017397619	-0.2613778455	-0.4592147295	 0.10489
H	-1.6229687552	-0.1280162906	-3.0276992888	 0.091384
H	 0.7347265416	 0.8683492642	-3.249354174	 0.089037
H	 1.8644839191	-0.4963384875	-1.1624566803	 0.07378
247.8763	278.7343	390.2197	426.1211	473.3814	538.1058	566.2204	673.7983	678.0644	728.9706	737.4252	798.7561	849.8291	857.7174	886.8109	893.788	915.6005	925.0637	951.643	971.7344	997.2347	1041.11	1050.6261	1053.4566	1067.7347	1101.22	1142.8833	1151.6883	1206.0102	1211.197	1223.9119	1242.9229	1249.5712	1299.5818	1320.5591	1340.051	1369.2271	1479.3792	1492.8443	1600.5624	1643.0354	3003.8964	3032.6748	3048.6089	3064.6781	3108.4925	3130.3283	3171.2632	3195.9891	3215.7068	3242.1523
C1C2C=CC11CC=CC21	C1[C@H]2C=C[C@]31CC=C[C@@H]23	
InChI=1S/C9H10/c1-2-8-7-3-5-9(8,4-1)6-7/h1-3,5,7-8H,4,6H2	InChI=1S/C9H10/c1-2-8-7-3-5-9(8,4-1)6-7/h1-3,5,7-8H,4,6H2/t7-,8+,9+/m1/s1
