20
gdb 92297	2.30881	1.85525	1.18195	3.7326	79.19	-0.2334	0.0239	0.2573	1087.6609	0.172918	-403.184312	-403.176222	-403.175278	-403.217006	31.336	
C	-0.9090743504	 1.2095151876	-0.0327201764	-0.395919
C	-0.0973008365	-0.0734741774	-0.0353645896	 0.053167
C	 1.0971643623	-0.1965813464	-1.0361800945	-0.282658
C	 2.0067079377	-0.535313448	 0.1795782522	 0.048661
C	 3.1435973141	 0.3906071721	 0.6609663044	-0.248246
C	 2.7449682055	 0.6658203053	 2.1278305345	-0.320547
C	 1.2027438527	 0.6157736965	 2.0984263128	 0.374272
O	 0.4335528149	 1.2292851477	 2.8047946191	-0.377497
N	 0.8763548118	-0.2531335721	 1.079935847	-0.095584
H	-0.2613370277	 2.0913943242	-0.0443650689	 0.118934
H	-1.5465823237	 1.2383058522	-0.9227205162	 0.114134
H	-1.5401305646	 1.2722008514	 0.8564429365	 0.152772
H	-0.7692193297	-0.9376327424	-0.0878184941	 0.089916
H	 1.0072090825	-0.9674900298	-1.8032873851	 0.10905
H	 1.3488340919	 0.7563593295	-1.5103248354	 0.107897
H	 2.3095646895	-1.5893187982	 0.2096591408	 0.081148
H	 4.1349824104	-0.0550934439	 0.5531601996	 0.106709
H	 3.1345672104	 1.3261241081	 0.0905077367	 0.108161
H	 3.1233796074	-0.1122230405	 2.8010064094	 0.126524
H	 3.0752542914	 1.6302009041	 2.5157461173	 0.129105
80.3236	149.3453	165.96	209.2273	324.0891	348.2779	407.2027	457.313	554.3906	626.0966	627.2269	678.079	738.1212	810.9511	832.9328	908.0753	912.6602	966.9612	987.3474	990.7806	1034.8671	1084.9447	1103.5647	1120.658	1147.2003	1183.7389	1208.1053	1214.0959	1253.0329	1274.3462	1286.4502	1296.7561	1308.9502	1345.3452	1359.9728	1401.2915	1411.4372	1469.5823	1480.9996	1483.2764	1492.8414	1500.1445	1810.7554	3018.7267	3034.9059	3040.6604	3043.7758	3050.1459	3062.784	3104.9071	3108.9299	3126.4244	3129.2939	3133.9648
CC1CC2CCC(=O)N12	C[C@H]1C[C@H]2CCC(=O)N12	
InChI=1S/C7H11NO/c1-5-4-6-2-3-7(9)8(5)6/h5-6H,2-4H2,1H3	InChI=1S/C7H11NO/c1-5-4-6-2-3-7(9)8(5)6/h5-6H,2-4H2,1H3/t5-,6+/m0/s1
