15
gdb 132376	1.82905	1.77793	0.90226	1.4409	73.09	-0.2054	0.0178	0.2232	1185.1364	0.113143	-461.980425	-461.972702	-461.971758	-462.012257	30.793	
N	-0.0336772827	 1.4073997076	 0.222281603	-0.591629
C	-0.0042065734	 0.0230974438	 0.079228546	 0.375682
C	-1.2023976058	-0.7079684984	 0.06318282	-0.369844
C	-1.1338034324	-2.0867834327	-0.0190927028	 0.351755
F	-2.2772852812	-2.7833394187	-0.0358908861	-0.08545
C	 0.0626640668	-2.7859732623	-0.088669831	-0.455081
C	 1.2449540682	-2.0423399885	-0.0732861915	 0.443427
O	 2.4696898633	-2.6351331856	-0.1402509564	-0.443612
C	 1.2188860842	-0.6528476855	 0.0078135053	-0.298734
H	 0.7867695697	 1.8903258687	-0.1121584653	 0.249627
H	-0.8849271707	 1.8530799732	-0.0856625595	 0.249237
H	-2.1676001807	-0.2194466879	 0.1200537173	 0.093122
H	 0.0588857151	-3.8678570179	-0.1534965428	 0.092379
H	 2.3534761284	-3.5893258384	-0.1919808896	 0.298586
H	 2.1575002313	-0.1106357574	 0.0206625434	 0.090536
206.1063	234.96	242.7775	310.3897	326.4357	328.8284	368.5656	511.97	515.4627	544.8306	560.9264	604.1361	622.1628	640.6022	698.3196	776.4411	814.341	838.1277	1003.2854	1013.3711	1029.1497	1117.8506	1174.6381	1190.472	1213.333	1306.5867	1376.4466	1408.8387	1512.4903	1541.7311	1638.0137	1655.827	1676.7557	3192.4518	3193.8286	3202.3393	3571.8752	3672.4582	3826.7579
NC1=CC(F)=CC(O)=C1	Nc1cc(F)cc(O)c1	
InChI=1S/C6H6FNO/c7-4-1-5(8)3-6(9)2-4/h1-3,9H,8H2	InChI=1S/C6H6FNO/c7-4-1-5(8)3-6(9)2-4/h1-3,9H,8H2
