16
gdb 90799	2.41403	2.03484	1.38548	4.1716	67.86	-0.2414	-0.0165	0.2249	929.9382	0.125521	-437.862177	-437.855042	-437.854098	-437.893828	27.873	
O	-0.0279847724	 1.4507367147	-0.0449165233	-0.422485
C	 0.0340120941	 0.0429029911	 0.0222015082	 0.129465
C	 0.6375602431	-0.5331969381	 1.333165583	-0.304066
C	-0.3151764832	-1.667037484	 1.6762784456	-0.005974
C	-1.7634070882	-1.3900728415	 1.9624629832	-0.190822
N	-1.2818105744	-1.9358247387	 0.6034828419	-0.14345
C	-1.3876188113	-0.5223333564	 0.0350733521	-0.155077
C	-2.1935776756	-0.1280808086	 1.2884500935	 0.459061
O	-3.028312855	 0.6958484672	 1.5267126407	-0.319893
H	 0.8639970386	 1.7909508738	-0.1633118537	 0.291807
H	 0.5697447938	-0.3699124215	-0.8456436107	 0.085148
H	 1.6537937539	-0.9103534929	 1.1896813005	 0.110758
H	 0.6653360997	 0.2419309749	 2.1042350044	 0.127292
H	 0.0725025396	-2.5618337509	 2.1550117975	 0.108216
H	-2.3369278777	-1.9834251885	 2.6667388576	 0.120352
H	-1.924995995	-0.4627713706	-0.9102571904	 0.109667
98.1294	138.6637	259.2226	345.3989	377.3697	431.7137	512.5573	523.8824	635.8167	688.8021	713.9187	798.7966	832.3985	843.8129	884.0272	939.7875	964.3576	1033.8574	1043.3696	1053.4838	1071.2055	1112.9656	1127.3495	1151.9931	1182.2123	1211.5109	1225.4413	1272.5877	1303.9949	1315.6525	1346.5075	1394.6197	1428.4512	1492.9437	1890.7772	2986.481	3058.5282	3105.0873	3138.093	3154.591	3179.4171	3827.4666
OC1CC2C3N2C1C3=O	O[C@H]1C[C@H]2[C@@H]3N2[C@H]1C3=O	
InChI=1S/C6H7NO2/c8-3-1-2-4-6(9)5(3)7(2)4/h2-5,8H,1H2	InChI=1S/C6H7NO2/c8-3-1-2-4-6(9)5(3)7(2)4/h2-5,8H,1H2/t2-,3-,4-,5+,7?/m0/s1
