20
gdb 114011	2.7648	0.89562	0.79336	2.8416	77.7	-0.2324	0.0008	0.2331	1519.6058	0.169041	-440.270857	-440.260947	-440.260002	-440.307232	34.607	
C	 0.359006405	 1.7066021246	-0.132381176	-0.371761
C	-0.2491588177	 0.3149082208	-0.2855025826	-0.13823
N	 0.6045924842	-0.5103402066	-1.1429801873	-0.07874
C	 1.6650890655	-1.2901977622	-0.5121930361	-0.257811
C	 0.480990082	-1.9626825391	-1.1187184524	-0.006565
C	-0.5420033694	-2.7214673412	-0.2921643054	-0.132329
O	-0.4185464299	-2.5106371958	 1.1195379669	-0.169453
C	 0.0085208501	-3.5364436022	 1.883754045	 0.176809
O	 0.174815931	-3.4375995421	 3.0607485664	-0.270451
H	 1.3299793881	 1.6546330488	 0.370985164	 0.119585
H	 0.5098111166	 2.1715011615	-1.11068346	 0.124776
H	-0.2956357193	 2.3488071168	 0.4645227488	 0.113438
H	-0.418125343	-0.1316978657	 0.7047704007	 0.116541
H	-1.226411854	 0.3921103278	-0.7782946811	 0.099127
H	 2.6246487983	-1.301120208	-1.0227575353	 0.116532
H	 1.7234968738	-1.281135283	 0.5745420034	 0.130164
H	 0.5916627737	-2.4148113302	-2.1050086686	 0.097662
H	-1.5601509053	-2.4202423791	-0.5610642747	 0.133239
H	-0.4448510365	-3.7924146457	-0.5142776851	 0.116914
H	 0.1750386266	-4.4629129594	 1.2997026194	 0.080553
42.4878	55.2717	85.2532	135.0513	168.6987	219.8362	257.8675	284.4662	362.0711	410.4642	467.6523	575.2941	682.1872	731.7682	796.6279	817.7814	923.1117	959.4697	974.7711	1033.6615	1044.9185	1053.8862	1070.852	1106.9505	1121.4198	1140.4441	1157.7902	1186.1756	1201.8807	1315.0885	1319.6439	1341.5884	1388.2517	1392.3613	1410.4187	1416.661	1435.496	1489.1892	1494.3566	1497.7934	1504.4379	1519.553	1869.1038	2946.0283	3004.4016	3020.2165	3039.1504	3047.3903	3073.6293	3096.7938	3099.1291	3108.6023	3120.0614	3183.1077
CCN1CC1COC=O	CCN1C[C@H]1COC=O	
InChI=1S/C6H11NO2/c1-2-7-3-6(7)4-9-5-8/h5-6H,2-4H2,1H3	InChI=1S/C6H11NO2/c1-2-7-3-6(7)4-9-5-8/h5-6H,2-4H2,1H3/t6-,7?/m0/s1
