15
gdb 88150	2.67401	1.58624	1.18163	2.8211	62.11	-0.2547	-0.0062	0.2485	1020.9199	0.111877	-494.909472	-494.901577	-494.900633	-494.942177	29.023	
O	-0.0586045591	 1.3747227473	-0.0800054303	-0.424623
C	 0.0262960196	-0.0060923889	 0.0162888905	 0.083331
C	-0.3735396857	-0.719746721	 1.2838008468	-0.3762
C	-1.2826646773	-0.7785664951	 0.0899240397	 0.191768
O	-2.4730524859	-0.0265577954	 0.092832216	-0.301047
C	-3.2230310139	-0.5032000292	-1.0146858853	 0.018305
O	-2.7655943949	-1.817479859	-1.303907339	-0.231101
C	-1.54547827	-2.0017558073	-0.7099261435	 0.406095
O	-0.8725985511	-2.9778526682	-0.8561606332	-0.345551
H	-0.9931072038	 1.6113564258	-0.0049745338	 0.295914
H	 0.8340533169	-0.4200341324	-0.5786550058	 0.132051
H	 0.1346787135	-1.6419516127	 1.5452030693	 0.148743
H	-0.7136963228	-0.1057005848	 2.1108452382	 0.13814
H	-4.2794615352	-0.5383516818	-0.7385741935	 0.14153
H	-3.0708938405	 0.1299707328	-1.9002262662	 0.122644
90.0068	145.6748	177.8047	201.7943	249.6585	339.5281	412.9643	479.3226	560.4526	605.0982	714.0981	734.1639	752.8972	838.0158	887.0032	901.657	983.7712	1025.3181	1042.4656	1079.8494	1102.1819	1123.9953	1156.8498	1167.2805	1222.6307	1288.3185	1300.0433	1358.615	1415.5676	1442.0805	1463.146	1544.7084	1897.9867	3006.2389	3106.3335	3132.7622	3171.296	3233.2392	3753.3891
OC1CC11OCOC1=O	O[C@H]1C[C@]21OCOC2=O	
InChI=1S/C5H6O4/c6-3-1-5(3)4(7)8-2-9-5/h3,6H,1-2H2	InChI=1S/C5H6O4/c6-3-1-5(3)4(7)8-2-9-5/h3,6H,1-2H2/t3-,5+/m0/s1
