17
gdb 107093	3.15061	1.12772	0.96407	1.9208	74.74	-0.2485	0.0152	0.2637	1239.8822	0.133755	-421.736507	-421.72775	-421.726806	-421.770377	32.746	
O	-0.0237540344	 1.4402538905	 0.168362297	-0.411436
C	 0.0109578056	 0.0468914779	-0.0973495455	-0.176007
C	-1.3444203992	-0.5732919227	 0.0165966266	 0.459695
C	-2.0497812167	-1.0519249574	 1.2448756391	-0.341802
C	-1.8760854146	-1.9854181799	 0.0611726275	-0.195618
C	-2.8228831954	-1.5345709187	-1.0601384366	-0.092301
O	-2.3141182784	-0.1645991051	-0.9697820666	-0.335836
C	-2.5728199504	-2.1302481113	-2.3610661564	 0.340613
C	-2.3722938894	-2.644514784	-3.4284836776	-0.430334
H	-0.6343708021	 1.8315171715	-0.4664377917	 0.295997
H	 0.4212478433	-0.158917904	-1.0975440775	 0.102142
H	 0.6831461446	-0.3986957589	 0.6428818279	 0.113775
H	-1.4124613469	-1.2819560938	 2.093116291	 0.122269
H	-3.0284284549	-0.6525723974	 1.4959169185	 0.118598
H	-1.3684765608	-2.9387990607	 0.1023537031	 0.115609
H	-3.8937734886	-1.5681177583	-0.8235840541	 0.111005
H	-2.1983823815	-3.0915080779	-4.3762403748	 0.203631
57.2464	90.795	157.9797	188.1065	274.3473	348.3891	379.4848	419.5888	435.8373	483.3665	530.2274	629.4163	670.7887	733.2957	824.1178	838.5697	896.5175	917.707	933.0576	973.7082	988.9986	1024.1724	1051.302	1061.1591	1069.6628	1092.6709	1155.7916	1224.9393	1253.3566	1275.4307	1354.4687	1378.6878	1387.2735	1436.7382	1489.5217	1491.4858	2238.7959	2993.5469	3027.7176	3082.8011	3116.8052	3207.9288	3216.869	3502.285	3806.6091
OCC12CC1C(O2)C#C	OC[C@]12C[C@H]1[C@@H](O2)C#C	
InChI=1S/C7H8O2/c1-2-6-5-3-7(5,4-8)9-6/h1,5-6,8H,3-4H2	InChI=1S/C7H8O2/c1-2-6-5-3-7(5,4-8)9-6/h1,5-6,8H,3-4H2/t5-,6-,7+/m0/s1
