19
gdb 7632	4.26564	1.24154	1.19329	3.8666	72.09	-0.2458	0.0357	0.2815	1095.4964	0.164793	-365.095946	-365.087266	-365.086322	-365.129294	32.078	
C	-0.0295431778	 1.5701129798	 0.0745509359	-0.391805
C	 0.0614096061	 0.0371207197	 0.0209406867	 0.016004
C	 0.97355401	-0.4925969233	 1.1347986431	-0.3952
C	-1.3469271352	-0.5738243015	 0.0304868842	 0.07495
C	-1.521530078	-2.1228929583	 0.0772390515	-0.425583
C	-2.3207330092	-1.8854770178	 1.3812727021	 0.435102
O	-2.9431704335	-2.5613459199	 2.1546876942	-0.358553
N	-2.07084993	-0.5334523763	 1.3152589563	-0.325249
H	 0.9614933757	 2.0263489393	-0.0097588471	 0.118454
H	-0.6516551991	 1.9658354719	-0.7354048463	 0.112451
H	-0.4628746958	 1.9038858215	 1.0251385035	 0.111994
H	 0.5001433051	-0.2402254102	-0.9483825406	 0.080969
H	 0.555527649	-0.273144638	 2.1220551492	 0.125225
H	 1.1248404795	-1.5738309967	 1.0691883363	 0.117433
H	 1.958872979	-0.0204552356	 1.0743549423	 0.114832
H	-1.931063692	-0.1237247689	-0.7826895441	 0.079857
H	-2.1187743555	-2.5478107824	-0.7314275796	 0.130288
H	-0.6088659049	-2.7065538995	 0.2015397809	 0.131315
H	-2.4854802332	 0.2304929862	 1.8289958817	 0.247518
67.2118	76.9116	205.4583	223.7144	248.5866	275.3523	347.8409	393.9821	423.5917	495.2633	565.8984	583.0947	708.827	778.318	882.181	926.6946	936.2064	956.2984	969.7335	1001.6541	1049.4386	1083.9003	1115.3045	1156.1274	1181.1282	1193.5032	1209.4297	1276.671	1336.3242	1352.4439	1383.2279	1391.921	1404.0221	1428.1611	1457.9663	1487.6603	1496.0721	1507.1226	1512.1896	1895.6786	3003.7767	3017.4535	3025.8203	3042.2104	3090.3138	3091.219	3102.8956	3108.4154	3113.7112	3149.0257	3605.9158
CC(C)C1CC(=O)N1	CC(C)[C@H]1CC(=O)N1	
InChI=1S/C6H11NO/c1-4(2)5-3-6(8)7-5/h4-5H,3H2,1-2H3,(H,7,8)	InChI=1S/C6H11NO/c1-4(2)5-3-6(8)7-5/h4-5H,3H2,1-2H3,(H,7,8)/t5-/m1/s1
