21
gdb 92284	3.46214	1.22007	1.034	1.3741	82.83	-0.2335	0.0303	0.2638	1207.0365	0.18532	-387.116767	-387.108824	-387.10788	-387.149466	31.74	
O	 0.4393101033	 1.219856731	 0.5919377833	-0.437379
C	 0.055286381	-0.0443389898	 0.0787444043	 0.13868
C	-1.3951837651	 0.0028272935	-0.4032079949	-0.224487
C	-1.5507399466	-1.2614527521	-1.2667789693	-0.002176
C	-2.519956104	-1.1247615872	-2.4714424958	-0.28322
C	-1.6028110605	-1.0673215515	-3.6689584832	-0.060877
C	-0.3274919175	-1.2852207665	-3.3535409775	-0.073503
C	-0.1186502719	-1.5054945735	-1.8765461901	-0.043875
C	 0.8268491499	-0.4921203752	-1.1770464034	-0.263701
H	 1.3503832013	 1.1550652981	 0.8942288255	 0.279915
H	 0.1502352668	-0.817845767	 0.8600837894	 0.06022
H	-2.1151578687	 0.0625132388	 0.417420862	 0.096654
H	-1.5151829045	 0.905175584	-1.0160231821	 0.107074
H	-1.8431084305	-2.1020174523	-0.6314656919	 0.06741
H	-3.2080655584	-1.977380208	-2.5448973557	 0.101985
H	-3.1542559703	-0.23218922	-2.3906006174	 0.102177
H	-1.9720486678	-0.8802464829	-4.6721081343	 0.088057
H	 0.4954178503	-1.3016517162	-4.0611237891	 0.088066
H	 0.2282275363	-2.5285273238	-1.6848648115	 0.070849
H	 0.9795846153	 0.3923763628	-1.8061091396	 0.104633
H	 1.8118213917	-0.9115208221	-0.9477760087	 0.083499
59.6049	125.6986	257.0426	275.4178	297.2225	403.3367	445.9517	470.1511	504.6823	589.2245	685.5426	748.4548	778.2153	797.0389	885.0057	896.9398	900.8923	949.392	978.6005	985.05	1008.4069	1043.1732	1049.7848	1065.0147	1080.9195	1116.9418	1133.0362	1143.5196	1201.1815	1205.5867	1241.0057	1257.452	1285.6958	1302.2775	1306.1487	1317.7176	1334.4968	1348.8376	1373.1004	1382.9973	1435.1182	1485.9133	1486.7121	1503.6685	1687.6279	2950.1764	3011.5341	3014.3859	3032.5363	3034.9267	3038.9495	3062.1008	3083.7125	3097.6426	3171.4678	3197.5039	3821.2726
OC1CC2CC=CC2C1	O[C@H]1C[C@H]2CC=C[C@H]2C1	
InChI=1S/C8H12O/c9-8-4-6-2-1-3-7(6)5-8/h1-2,6-9H,3-5H2	InChI=1S/C8H12O/c9-8-4-6-2-1-3-7(6)5-8/h1-2,6-9H,3-5H2/t6-,7+,8+/m0/s1
