22
gdb 91952	2.27848	1.71638	1.31422	1.5012	84.94	-0.2211	0.0779	0.299	1093.2143	0.195751	-367.181578	-367.173297	-367.172353	-367.214044	33.424	
C	-0.4586782698	 1.4525667858	 0.0626696175	-0.39924
C	-0.0007392197	-0.0101106323	-0.0323626719	-0.107191
C	 0.8874300421	-0.3205737136	-1.2789816741	-0.170766
N	 2.2790947797	-0.5744297291	-0.8564095322	-0.098799
C	 2.8815848028	 0.5252882959	-0.0885098218	-0.263652
C	 2.2765972185	-0.6361231985	 0.61541847	-0.099001
C	 0.8703963922	-0.507616639	 1.1379223846	 0.396726
C	 0.604675924	-0.1539879962	 2.5795057712	-0.320316
C	 0.3643382214	-1.5615080932	 2.0947575602	-0.322469
H	 0.3777984873	 2.1520643235	 0.1485703303	 0.121049
H	-1.0317157136	 1.7293879434	-0.8289566374	 0.113456
H	-1.1073962565	 1.6105782437	 0.9304001751	 0.113657
H	-0.9064477177	-0.6237326442	-0.0887714369	 0.077792
H	 0.5351624258	-1.2297084779	-1.7768529974	 0.106268
H	 0.8629704704	 0.4871783607	-2.0183557825	 0.101443
H	 3.9619698383	 0.5974622999	-0.181896949	 0.11205
H	 2.3710801472	 1.4827704543	-0.0457248436	 0.10984
H	 2.9207860208	-1.3820296439	 1.0761392793	 0.084161
H	 1.4591737414	 0.029107387	 3.2229046361	 0.113179
H	-0.2585098816	 0.4612233586	 2.8103291827	 0.111101
H	-0.6633138808	-1.8935222646	 1.9860231721	 0.109613
H	 1.0519666878	-2.3397931503	 2.4111840178	 0.111099
86.7402	187.4127	206.744	247.7165	277.7829	330.8426	365.5845	417.6804	494.4863	539.6219	679.5632	722.4453	753.3048	785.6916	853.7928	865.4784	894.3262	915.0615	937.4038	944.8712	978.8518	1003.948	1028.3517	1060.076	1060.839	1080.6148	1094.2843	1102.6128	1117.8919	1137.6483	1178.5656	1191.0263	1244.3122	1251.9947	1277.8862	1296.6551	1307.4376	1350.6136	1365.9619	1406.8647	1422.3795	1467.9344	1488.4796	1492.8999	1500.7881	1505.706	1513.1706	3030.9374	3033.3279	3043.9821	3079.9834	3095.5256	3106.7946	3114.247	3120.4328	3125.497	3128.9727	3195.8387	3199.478	3215.5344
CC1CN2CC2C11CC1	C[C@H]1CN2C[C@H]2C21CC2	
InChI=1S/C8H13N/c1-6-4-9-5-7(9)8(6)2-3-8/h6-7H,2-5H2,1H3	InChI=1S/C8H13N/c1-6-4-9-5-7(9)8(6)2-3-8/h6-7H,2-5H2,1H3/t6-,7-,9?/m0/s1
