21
gdb 59881	3.93065	0.78386	0.76357	3.5963	82.16	-0.2493	0.0214	0.2707	1618.2482	0.182187	-420.425273	-420.415109	-420.414165	-420.462475	36.464	
C	 0.0041571601	 1.4037630797	-0.055257489	-0.381385
C	 0.0868717179	-0.1068790362	 0.1962766454	 0.04889
C	 0.8458376368	-0.4368152665	 1.4856015994	-0.386721
N	-1.2461260217	-0.7052414022	 0.2250029612	-0.33702
C	-1.7251283438	-1.5241163263	-0.7480417731	 0.447384
O	-1.0775756803	-1.8666045954	-1.7288305777	-0.407002
C	-3.1334861608	-2.0087188349	-0.5430214456	-0.128809
C	-4.0135259598	-2.0106978812	-1.7491934308	-0.221381
N	-3.4920993389	-3.2652675351	-1.2137310786	-0.305836
H	 1.0064376068	 1.8390414736	-0.1170939681	 0.120802
H	-0.5202253403	 1.612910806	-0.9914789053	 0.129101
H	-0.5297913826	 1.910597067	 0.7575529853	 0.107852
H	 0.5856046713	-0.5829205235	-0.6517268387	 0.128574
H	 0.9197466124	-1.5180536034	 1.6298248696	 0.128196
H	 1.8580088642	-0.0225777187	 1.4524132676	 0.122725
H	 0.342149844	-0.0084025861	 2.3609174622	 0.108724
H	-1.8572899762	-0.4619083513	 0.9893667384	 0.241582
H	-3.574907659	-1.866126389	 0.4405625135	 0.08473
H	-5.0815950066	-1.8572841701	-1.6243451022	 0.119466
H	-3.5805798139	-1.6218177164	-2.6660517381	 0.132179
H	-2.6776946597	-3.5303009999	-1.7700506453	 0.247949
10.5835	58.2774	103.0366	150.9838	227.8673	256.3971	273.155	281.3883	310.2523	430.3724	438.2165	461.7596	483.4277	694.8573	764.6853	829.2715	845.8689	889.3918	921.4809	931.6199	949.1223	973.9192	1000.7782	1025.0564	1118.0995	1135.1462	1146.203	1170.5804	1186.6752	1193.1639	1239.1057	1295.1342	1326.0584	1355.8426	1367.8188	1399.2541	1412.8857	1419.1856	1483.7995	1488.6156	1492.1009	1497.4755	1506.57	1547.7622	1754.0335	3027.1147	3031.069	3083.8722	3094.0701	3111.1163	3113.6694	3118.8528	3121.6517	3133.1879	3208.0794	3459.7673	3621.2658
CC(C)NC(=O)C1CN1	CC(C)NC(=O)[C@H]1CN1	
InChI=1S/C6H12N2O/c1-4(2)8-6(9)5-3-7-5/h4-5,7H,3H2,1-2H3,(H,8,9)	InChI=1S/C6H12N2O/c1-4(2)8-6(9)5-3-7-5/h4-5,7H,3H2,1-2H3,(H,8,9)/t5-/m1/s1
