19
gdb 109515	1.92467	1.47733	1.07295	0.7663	79.55	-0.2248	0.0477	0.2725	1219.6311	0.154788	-422.964735	-422.954413	-422.953469	-422.999488	37.907	
C	 0.0916647898	 1.1045674313	-0.4663698988	-0.2396
O	-0.0966261855	 0.0550602059	 0.4701804905	-0.238858
C	-1.3024851779	-0.5980997897	 0.3162177592	 0.095535
C	-1.4424522777	-1.7335575045	-0.7231564152	-0.37025
C	-0.3565388247	-2.0959986782	-1.5771466533	 0.357152
C	 0.5490561438	-2.410959241	-2.3058979074	-0.458023
C	-1.3995519414	-1.9987197119	 0.7990612012	 0.320211
C	-0.2071508816	-2.6864657094	 1.4152170818	-0.452512
O	-2.6354820236	-2.2895776244	 1.3902632277	-0.458858
H	 1.063502894	 1.5519908834	-0.2482345894	 0.129593
H	 0.0872132374	 0.7260825654	-1.4955948096	 0.128985
H	-0.6882244246	 1.8733155066	-0.3631292714	 0.107915
H	-2.1928111406	 0.0202854692	 0.4397196535	 0.101907
H	-2.4356302717	-1.8192043482	-1.1551594137	 0.112834
H	 1.347918708	-2.6897248463	-2.9469109551	 0.192363
H	 0.7217525032	-2.3432100869	 0.9598533844	 0.149886
H	-0.1747887453	-2.4727020832	 2.4876276838	 0.129062
H	-0.276604302	-3.7720945204	 1.2791972819	 0.110047
H	-2.8009211896	-3.2329189674	 1.27784692	 0.282611
99.7687	123.7284	133.0799	172.4602	178.7613	205.3565	252.2724	317.2094	324.8363	368.0999	391.3862	417.1353	521.3354	544.4928	565.7751	651.3082	664.0672	704.6665	826.6352	879.0164	946.4051	1002.1821	1023.9005	1074.2536	1090.03	1103.7283	1166.1371	1181.3683	1209.2402	1262.4431	1278.7913	1323.8082	1356.198	1414.3756	1451.1537	1480.6679	1484.9785	1487.4139	1504.3566	1516.3946	2226.6588	2994.8642	3036.1005	3064.4075	3095.8103	3102.037	3128.2053	3147.6069	3155.4513	3504.8041	3789.0649
COC1C(C#C)C1(C)O	CO[C@H]1[C@@H](C#C)[C@]1(C)O	
InChI=1S/C7H10O2/c1-4-5-6(9-3)7(5,2)8/h1,5-6,8H,2-3H3	InChI=1S/C7H10O2/c1-4-5-6(9-3)7(5,2)8/h1,5-6,8H,2-3H3/t5-,6+,7+/m1/s1
