14
gdb 25252	3.16553	1.69464	1.11894	2.3052	69.82	-0.2514	-0.0583	0.1931	999.011	0.103702	-436.742119	-436.735545	-436.734601	-436.773449	24.815	
O	-0.040069965	-0.075542257	 0.0039077191	-0.331085
C	 0.0029707556	 1.1300489802	 0.0092706033	 0.286973
C	-1.2215681711	 2.0917431572	 0.0314734666	-0.320069
C	-0.6983273369	 3.5642472677	 0.0317301932	-0.367175
C	 0.7810314004	 3.3566002975	 0.0098907251	 0.263627
C	 1.1358331506	 2.0489220758	-0.001814325	 0.209171
O	 2.4982189455	 1.969207983	-0.0211912988	-0.185315
C	 2.8745195729	 3.2730109594	-0.0199619551	 0.059467
N	 1.9106340662	 4.1489894869	-0.0018349278	-0.33718
H	-1.8471695489	 1.8733415971	-0.8385916136	 0.142733
H	-1.8225511193	 1.8642626657	 0.9164370002	 0.142745
H	-1.0473134342	 4.1286822643	-0.8391060684	 0.135929
H	-1.0226242973	 4.1195737199	 0.9178342878	 0.135935
H	 3.9373731214	 3.4621755722	-0.0338625966	 0.164244
105.1252	163.2086	260.1362	298.219	518.4216	539.7834	596.4056	633.0432	658.4166	687.165	737.4563	841.0588	873.6768	950.7818	963.9158	1009.9533	1023.4265	1080.0053	1119.7429	1157.3728	1222.3961	1248.0566	1269.0471	1296.885	1372.497	1396.3586	1453.7063	1486.1578	1516.6776	1629.1398	1824.1638	3050.7342	3069.7678	3082.1137	3113.1089	3271.9495
O=C1CCC2=C1OC=N2	O=C1CCc2c1ocn2	
InChI=1S/C6H5NO2/c8-5-2-1-4-6(5)9-3-7-4/h3H,1-2H2	InChI=1S/C6H5NO2/c8-5-2-1-4-6(5)9-3-7-4/h3H,1-2H2
