22
gdb 122541	4.45773	0.57017	0.55009	2.8103	80.49	-0.2486	0.0693	0.3179	2070.4903	0.193095	-441.438912	-441.428285	-441.427341	-441.476184	37.151	
C	-0.1060336777	 1.3364992641	-0.4660154878	-0.228363
O	-0.0727882306	 0.0467099533	 0.0934181949	-0.231043
C	-1.2871064193	-0.6526944341	-0.0638553635	-0.045081
C	-1.1260653597	-2.0417364486	 0.5448478449	-0.217303
C	-2.4039571596	-2.8426544167	 0.4435345791	-0.020063
N	-2.6894745109	-3.50954664	-0.8426419894	-0.349987
C	-2.4891227656	-4.3268094834	 0.3729134656	-0.046018
C	-1.3083807246	-5.2683954534	 0.3104232605	-0.064864
O	-1.542236655	-6.3019997855	-0.6321379338	-0.422563
H	 0.871866763	 1.7936713784	-0.2957011558	 0.126371
H	-0.3010218115	 1.308330674	-1.5501069293	 0.103474
H	-0.8788147902	 1.9673016271	 0.0026359125	 0.100924
H	-2.111319894	-0.1072016175	 0.4307629465	 0.076747
H	-1.5515196001	-0.7406677055	-1.1308898195	 0.098008
H	-0.3091847296	-2.5510661111	 0.0282844522	 0.117263
H	-0.8353204754	-1.9368265279	 1.5970481351	 0.108066
H	-3.2545444563	-2.3659908825	 0.9328423568	 0.083416
H	-3.6774508951	-3.44410272	-1.0696491404	 0.233097
H	-3.3810124428	-4.7754113524	 0.8082749105	 0.088975
H	-0.3882507346	-4.7174865222	 0.0735066929	 0.092741
H	-1.1630080717	-5.7589697263	 1.2787521651	 0.107928
H	-1.7419296288	-5.8549880897	-1.4634801772	 0.288274
40.3195	68.447	84.6496	102.3518	121.407	187.8157	238.9491	255.9776	299.556	400.9249	438.8513	469.4836	488.2901	581.4447	774.2678	824.4712	852.0045	900.7596	966.0881	987.5453	996.5588	1036.7738	1055.5863	1071.9563	1087.4717	1154.4362	1165.3349	1178.4238	1187.1805	1221.8518	1230.4365	1257.7375	1272.6327	1278.2182	1308.8794	1310.531	1363.5862	1404.3952	1422.2183	1443.1793	1478.3045	1482.0092	1484.8685	1486.3327	1500.4975	1504.7535	1533.1986	2937.9349	2966.8655	2981.0042	3008.7471	3012.6375	3044.6839	3074.4162	3089.6855	3110.8598	3112.2422	3120.7514	3510.249	3787.8642
COCCC1NC1CO	COCC[C@H]1N[C@H]1CO	
InChI=1S/C6H13NO2/c1-9-3-2-5-6(4-8)7-5/h5-8H,2-4H2,1H3	InChI=1S/C6H13NO2/c1-9-3-2-5-6(4-8)7-5/h5-8H,2-4H2,1H3/t5-,6+/m1/s1
