18
gdb 17283	5.50515	1.00298	0.93147	2.1394	68.64	-0.2569	0.0786	0.3355	1251.2655	0.15279	-384.893663	-384.885375	-384.884431	-384.927117	30.317	
O	-0.0073074713	 1.4409933832	 0.3147978717	-0.417499
C	-0.0555548695	 0.0766990987	 0.0040682805	 0.083619
C	-0.6146814826	-0.8942716752	 1.0147623378	-0.328303
C	-1.4143009314	-0.5169065596	-0.2211511109	-0.00297
C	-2.6635298148	 0.3327737768	-0.0965413856	-0.245342
C	-3.8717704051	-0.4904958162	 0.2793822554	 0.104458
C	-5.2116279543	-0.2097740711	-0.2483971031	-0.180508
O	-4.4401548044	-1.298962793	-0.7583180656	-0.240439
H	 0.6857130212	 1.5702185442	 0.9701954966	 0.288445
H	 0.7546784902	-0.2693348728	-0.6376347753	 0.086627
H	-0.1868406404	-1.8881851979	 1.0880190115	 0.112146
H	-0.9411022298	-0.4688987503	 1.9590410263	 0.109971
H	-1.4742885586	-1.2752319212	-0.9964594324	 0.101919
H	-2.5027003108	 1.1153808729	 0.6521795277	 0.112188
H	-2.8640610045	 0.8387926654	-1.0483521087	 0.10488
H	-3.8047554109	-1.0038147305	 1.2406904654	 0.089004
H	-6.0941353912	-0.4883805143	 0.3263530504	 0.110683
H	-5.3521746618	 0.6246760908	-0.9349390618	 0.111121
63.1325	75.7677	135.7331	205.6641	297.6149	310.7982	383.2405	441.1271	480.4716	568.6681	767.4312	791.6445	831.7975	862.9766	883.9241	903.2893	963.4643	988.1248	1019.6693	1052.1453	1089.876	1107.7948	1138.6419	1158.2234	1160.1603	1177.6168	1184.626	1237.0618	1255.7039	1294.2435	1301.9974	1311.1784	1394.9179	1425.8143	1448.0519	1471.0286	1490.3577	1531.6764	3038.2439	3078.1462	3081.7629	3096.831	3097.5686	3126.2775	3153.1629	3163.8892	3214.9962	3810.7004
OC1CC1CC1CO1	O[C@H]1C[C@H]1C[C@H]1CO1	
InChI=1S/C6H10O2/c7-6-2-4(6)1-5-3-8-5/h4-7H,1-3H2	InChI=1S/C6H10O2/c7-6-2-4(6)1-5-3-8-5/h4-7H,1-3H2/t4-,5+,6+/m1/s1
