19
gdb 36603	5.35028	0.75371	0.74081	2.297	80.68	-0.241	0.0318	0.2728	1535.6579	0.160588	-382.007951	-381.999662	-381.998718	-382.041851	30.915	
N	 0.006084153	-1.1912340378	 0.0006171847	-0.302244
C	-0.0145409071	-0.0358493539	-0.0050577935	 0.260476
C	-0.0160243074	 1.4247243851	-0.0117688339	-0.344059
C	 1.4081963378	 2.0197983878	 0.0112476323	-0.353032
C	 1.3919167594	 3.5321735404	 0.0039558754	 0.327185
C	 0.7743908595	 4.5241345174	 1.0251390946	-0.206189
N	 1.399201569	 5.4797753586	-0.0048027992	-0.138132
C	 2.5915855632	 4.5078915991	 0.0244064442	-0.221672
C	 0.8175290539	 4.5145964531	-1.0510035899	-0.206141
H	-0.5549300854	 1.7677647102	-0.9023558894	 0.156259
H	-0.5866178197	 1.7758029209	 0.8556506489	 0.156282
H	 1.9358991146	 1.660147705	 0.9018568606	 0.125716
H	 1.9676881448	 1.6520560262	-0.8563604306	 0.12572
H	-0.31511759	 4.6036216379	 1.0833778329	 0.101275
H	 1.2308029449	 4.5927166802	 2.0168052442	 0.104624
H	 3.1861310815	 4.5738468024	 0.9400316229	 0.104015
H	 3.2236197358	 4.5656552821	-0.8663269909	 0.104023
H	 1.3147696382	 4.5741092124	-2.0234324713	 0.104626
H	-0.2685975058	 4.593354923	-1.1552018519	 0.101269
60.9711	78.4195	103.3835	200.1289	302.4473	359.5027	401.5864	504.4653	586.4232	586.8914	682.9957	745.8938	796.6154	797.1429	897.3155	930.6425	934.3029	939.6429	976.5479	1001.2477	1025.7297	1035.6099	1048.2537	1139.3171	1150.5689	1168.2549	1168.8471	1201.8787	1203.4514	1239.9391	1264.3055	1295.6221	1321.9549	1328.6431	1382.3657	1467.7765	1486.5194	1511.3103	1511.5387	1565.0268	2362.9434	3036.2988	3041.7964	3044.2843	3046.9249	3053.9852	3070.6245	3091.8478	3107.8618	3113.474	3116.2837
N#CCCC12CN(C1)C2	N#CCC[C@@]12CN(C1)C2	
InChI=1S/C7H10N2/c8-3-1-2-7-4-9(5-7)6-7/h1-2,4-6H2	InChI=1S/C7H10N2/c8-3-1-2-7-4-9(5-7)6-7/h1-2,4-6H2
