19
gdb 85552	2.64236	1.38772	1.04533	2.9252	77.97	-0.2404	-0.0195	0.221	1181.5635	0.158671	-423.064404	-423.055452	-423.054508	-423.098163	33.684	
C	-0.0711913113	 1.5741046509	 0.0776557646	-0.480584
C	-0.0442959029	 0.0725618839	-0.0072557475	 0.28407
C	-0.0533186346	-0.5907732763	-1.1671095167	-0.159329
C	 0.0224774505	-2.0905596464	-1.3075919607	-0.352347
C	 0.3318297223	-2.7879185039	 0.0093554531	 0.363282
O	 1.054026471	-3.7544773553	 0.0799543605	-0.307371
C	-0.3234468635	-2.1433638478	 1.213820046	-0.319535
C	 0.0582759192	-0.6526861306	 1.3222865357	 0.031848
O	 1.3530497631	-0.4735435686	 1.8985520562	-0.428945
H	 0.7796278315	 1.9340300838	 0.6666588139	 0.142409
H	-0.0350533231	 2.0393091992	-0.9105900583	 0.119478
H	-0.9774798649	 1.9244121285	 0.5882962397	 0.124975
H	-0.1042879798	-0.030234059	-2.0986935695	 0.091831
H	-0.9366075896	-2.4833125317	-1.6822652106	 0.134379
H	 0.7762460906	-2.3898019266	-2.04348693	 0.13243
H	-1.4120668642	-2.2110525314	 1.0845948562	 0.118542
H	-0.0391275704	-2.6747328361	 2.1240164257	 0.127055
H	-0.6140157972	-0.1775020885	 2.0460372827	 0.092809
H	 2.0037138032	-0.8212481141	 1.2775980689	 0.285
63.9208	94.1388	186.6829	229.57	261.1388	301.8645	323.73	375.6054	399.2361	479.3873	513.2513	566.3711	610.6319	730.0782	745.4267	793.3218	863.0005	907.7131	949.655	968.6854	1046.3931	1052.9886	1065.8969	1072.6039	1140.6275	1172.6975	1206.6535	1217.4903	1261.0585	1288.0649	1327.0346	1364.0823	1390.5446	1407.6494	1426.9861	1446.7432	1458.5169	1476.8407	1495.4598	1735.4838	1821.5524	2989.1963	3022.1916	3026.4878	3044.3524	3072.4047	3078.354	3118.0451	3122.3571	3142.7088	3793.8535
CC1=CCC(=O)CC1O	CC1=CCC(=O)C[C@H]1O	
InChI=1S/C7H10O2/c1-5-2-3-6(8)4-7(5)9/h2,7,9H,3-4H2,1H3	InChI=1S/C7H10O2/c1-5-2-3-6(8)4-7(5)9/h2,7,9H,3-4H2,1H3/t7-/m1/s1
