15
gdb 47362	2.58803	1.43395	1.21513	3.4507	66.22	-0.2693	-0.0048	0.2646	1047.5438	0.112326	-457.756603	-457.748661	-457.747717	-457.789629	29.297	
O	 0.0695094166	 0.0105569738	 0.5355961742	-0.316448
C	 0.010626535	 1.12186591	 0.0909904471	 0.413078
C	-1.3025730974	 1.8740036877	-0.0836327378	-0.344527
C	-1.2135497778	 3.0487114365	-1.0723601084	-0.093149
O	-0.0156983551	 3.7746480005	-0.7775031335	-0.223858
C	 1.1201509451	 2.9999662033	-0.9738879484	 0.018885
O	 1.1515699815	 1.8013460587	-0.1839089666	-0.229241
C	-1.2801162486	 2.6136162204	-2.4707938414	 0.331354
C	-1.3380554226	 2.2408784527	-3.6117052441	-0.462992
H	-2.0750344982	 1.1560744283	-0.3621152565	 0.151014
H	-1.5570452799	 2.2734218137	 0.9044682057	 0.15062
H	-2.025508936	 3.75682331	-0.8832560162	 0.131268
H	 1.2239825761	 2.7025756627	-2.025561199	 0.12224
H	 1.976183494	 3.5950780935	-0.6538612783	 0.137155
H	-1.3954326927	 1.9172076882	-4.6223477467	 0.214602
63.6282	105.4041	175.6374	217.059	341.5057	399.3383	424.2497	487.1439	565.4982	589.6668	631.1482	648.4256	694.013	766.6593	799.0246	874.8535	929.9554	1020.4313	1029.1901	1042.135	1101.5013	1161.0481	1224.3952	1247.6283	1291.3052	1303.2755	1358.6307	1372.9477	1449.3637	1461.1584	1520.3262	1855.8294	2234.35	3025.5652	3057.3244	3072.3442	3130.3006	3135.0254	3497.9626
O=C1CC(OCO1)C#C	O=C1C[C@@H](OCO1)C#C	
InChI=1S/C6H6O3/c1-2-5-3-6(7)9-4-8-5/h1,5H,3-4H2	InChI=1S/C6H6O3/c1-2-5-3-6(7)9-4-8-5/h1,5H,3-4H2/t5-/m0/s1
