27
gdb 118576	1.58527	0.86043	0.59129	1.329	93.62	-0.261	0.0788	0.3398	2022.2227	0.249937	-390.701667	-390.689404	-390.68846	-390.740378	43.447	
C	 0.8315947161	 0.8766453546	-0.74267366	-0.379581
C	 0.4843358215	-0.6009591349	-0.5386928504	-0.170564
C	-0.9885043669	-0.8189277391	-0.1662636706	-0.182984
C	-1.4073694837	-2.2887095268	 0.0332036365	 0.030324
C	-0.8708174601	-2.8351202361	 1.3590511587	-0.091386
O	-1.1008733433	-4.2382328842	 1.395111204	-0.422642
C	-2.9355863555	-2.4763601142	-0.0402966574	-0.176717
C	-3.5225861387	-2.4012284478	-1.4546374222	-0.173904
C	-5.0430433099	-2.58401049	-1.4763083653	-0.378015
H	 1.883449439	 1.0071103182	-1.015901323	 0.110126
H	 0.2230707017	 1.3198107678	-1.5390636946	 0.113349
H	 0.65036108	 1.4558250401	 0.1697871873	 0.11224
H	 0.7070581829	-1.1594431537	-1.4573650727	 0.096795
H	 1.1388704715	-1.0203791309	 0.2349965394	 0.096681
H	-1.2229315884	-0.2525633512	 0.7475008279	 0.08686
H	-1.6091879529	-0.374853673	-0.9538432624	 0.09475
H	-0.9510012896	-2.8955625789	-0.7623887179	 0.074733
H	 0.2035115365	-2.6183941379	 1.4551438575	 0.082889
H	-1.3835644827	-2.327612735	 2.1939696497	 0.080354
H	-0.8270155969	-4.5658642897	 2.2562875194	 0.285209
H	-3.1815444296	-3.4524622351	 0.3913985892	 0.110226
H	-3.4191302414	-1.7219911065	 0.5984309316	 0.079427
H	-3.269717247	-1.4414790105	-1.9227704821	 0.09329
H	-3.0527230808	-3.1744796791	-2.0767379936	 0.095957
H	-5.4374424067	-2.5422590033	-2.4966389724	 0.10762
H	-5.3310332832	-3.5498598337	-1.0464362281	 0.114195
H	-5.5439914418	-1.8026222892	-0.8936758184	 0.110768
50.8135	70.3936	75.7225	92.7314	105.9524	181.5858	200.0695	240.4957	245.4656	252.6154	259.9469	308.6244	339.1258	437.293	479.2485	533.9435	736.2109	743.9143	833.3527	857.2614	874.2313	910.7232	929.6215	984.5659	1006.5427	1045.0792	1054.6757	1073.2195	1079.6525	1087.714	1137.1492	1160.7659	1178.1257	1235.8716	1248.4271	1267.3622	1290.2157	1305.0882	1313.8147	1331.6199	1333.9085	1362.4448	1371.2888	1396.779	1403.5873	1411.9779	1413.1667	1454.8321	1483.1787	1486.9527	1493.8943	1495.8029	1499.4782	1499.7779	1510.6444	1511.546	1518.5886	2956.1893	2993.0504	2997.2357	3000.255	3011.0843	3017.9431	3023.9083	3027.7172	3028.4064	3039.9696	3045.0597	3062.6392	3075.1737	3094.9074	3095.257	3099.1046	3100.3325	3834.3538
CCCC(CO)CCC	CCCC(CO)CCC	
InChI=1S/C8H18O/c1-3-5-8(7-9)6-4-2/h8-9H,3-7H2,1-2H3	InChI=1S/C8H18O/c1-3-5-8(7-9)6-4-2/h8-9H,3-7H2,1-2H3
