21
gdb 92325	2.26365	1.66682	1.07477	1.8207	86.13	-0.225	0.0145	0.2395	1188.6672	0.18242	-387.075959	-387.067158	-387.066214	-387.109179	33.738	
C	-0.0174594174	 1.4405109718	 0.229967983	-0.401975
C	-0.0444646894	-0.0641455747	 0.055514366	 0.085306
O	 1.0025538323	-0.559960231	-0.8503335686	-0.331847
C	 1.3053865782	-1.6687643595	 0.0652128071	 0.121932
C	 2.6961578339	-1.8639755859	 0.6889812294	-0.25024
C	 2.3653536485	-1.8799200013	 2.2182314359	-0.290519
C	 1.131464317	-0.9706001603	 2.3215012266	 0.17687
C	 0.8070958441	-0.2018370613	 3.5614298327	-0.495274
C	 0.5404249801	-0.9584657546	 1.1281446875	 0.072298
H	 0.9530766669	 1.7659493962	 0.6126808757	 0.122547
H	-0.1977392048	 1.9328258466	-0.7308110177	 0.128319
H	-0.8006242357	 1.7587644263	 0.9264042216	 0.117516
H	-1.0266170157	-0.3916634032	-0.3162498204	 0.07661
H	 0.880622029	-2.5976272664	-0.340536247	 0.071367
H	 3.2257892764	-2.7581115983	 0.3480338863	 0.092903
H	 3.310306855	-0.9880468721	 0.4570879561	 0.115162
H	 2.1672237831	-2.8998957281	 2.5758858043	 0.106804
H	 3.1926380364	-1.4971686394	 2.8270610312	 0.103007
H	 0.5567732089	-0.8763186021	 4.3908089633	 0.129292
H	 1.6671493205	 0.3923893295	 3.8957312847	 0.125483
H	-0.0411017772	 0.471371518	 3.4126129123	 0.124439
113.5993	130.3165	175.5149	180.6517	212.4577	293.2822	312.3546	408.6738	427.9813	508.0063	592.9425	611.6182	677.7461	748.2802	834.5114	851.9101	889.3107	921.193	933.5713	984.7714	1007.6021	1028.2869	1076.6866	1086.4861	1094.1291	1127.1877	1148.2511	1163.414	1194.4651	1239.6809	1265.3201	1276.5477	1312.1143	1328.6329	1347.6788	1390.5354	1404.2271	1412.5664	1475.3405	1479.779	1482.0722	1487.9987	1492.9068	1495.1212	1770.4339	2988.7356	3000.7329	3011.1303	3016.1632	3037.9107	3050.3884	3059.0533	3061.0945	3105.8604	3107.2421	3112.9466	3125.8234
CC1OC2CCC(C)=C12	C[C@H]1O[C@H]2CC[C](C)[C]12	
InChI=1S/C8H12O/c1-5-3-4-7-8(5)6(2)9-7/h6-7H,3-4H2,1-2H3	InChI=1S/C8H12O/c1-5-3-4-7-8(5)6(2)9-7/h6-7H,3-4H2,1-2H3/t6-,7+/m1/s1
