24
gdb 120556	4.84733	0.66376	0.64804	1.4254	88.75	-0.2066	0.0877	0.2942	1895.1014	0.215572	-405.519865	-405.509303	-405.508358	-405.556293	37.956	
C	-0.0789800004	 1.4896323932	-0.0371167576	-0.383957
C	-0.1934482325	-0.0182336862	-0.1843584641	-0.038145
O	 0.9053071304	-0.477443359	-0.948970648	-0.254716
C	 0.9273155201	-1.8690105542	-1.1269512164	 0.137778
C	 0.0171521938	-2.4234963947	-2.2607308213	-0.203571
N	 1.1869319021	-2.4427266188	-3.1579522425	-0.058308
C	 1.3508455852	-3.5689583035	-4.0522216476	-0.11971
C	 2.6006703869	-3.4287894306	-4.9185968994	-0.379025
C	 2.1128596867	-2.294670117	-2.0158450533	-0.196273
H	 0.8565947825	 1.7557405321	 0.4629376717	 0.126208
H	-0.0909982868	 1.9717804633	-1.0186187277	 0.128881
H	-0.9132872191	 1.880177733	 0.553215704	 0.113088
H	-0.1934639418	-0.506914599	 0.8052271084	 0.083838
H	-1.1441910813	-0.2849146195	-0.6737497137	 0.088617
H	 0.8361966967	-2.3806921174	-0.1593281507	 0.064717
H	-0.3764296076	-3.4256426185	-2.0220576689	 0.078696
H	-0.8089102567	-1.7863368132	-2.5965503091	 0.101725
H	 1.391952261	-4.5288980814	-3.4950533962	 0.064925
H	 0.4608366572	-3.6187857746	-4.6922048935	 0.099297
H	 2.698426207	-4.2809697912	-5.5980937401	 0.110513
H	 2.5567885532	-2.5102977963	-5.5108912225	 0.125131
H	 3.5057347117	-3.3895840622	-4.3029522564	 0.118267
H	 2.8988577334	-1.5442820328	-2.1446149336	 0.111691
H	 2.5637562182	-3.2447125415	-1.6845338514	 0.080332
49.5229	74.2833	96.1991	116.0315	174.8254	208.996	231.5901	249.1658	306.2706	349.941	426.9666	441.2179	479.8959	680.8963	807.8712	820.1457	837.2077	862.8142	903.7973	937.8627	970.5209	1017.0655	1038.1923	1045.3996	1086.4791	1113.0872	1134.7197	1151.6848	1161.939	1188.8108	1196.9875	1225.3982	1244.0706	1267.6143	1281.5772	1296.4043	1314.0921	1340.9526	1376.8771	1393.1501	1403.2222	1412.5193	1442.7874	1482.4862	1486.3313	1487.3723	1490.4281	1499.8191	1505.4224	1519.0924	1529.4545	2877.2395	2955.4543	2959.5496	2967.8392	2985.7152	3010.8673	3036.0252	3038.797	3044.9782	3052.6413	3074.1608	3103.613	3117.4102	3119.3055	3122.1436
CCOC1CN(CC)C1	CCOC1CN(CC)C1	
InChI=1S/C7H15NO/c1-3-8-5-7(6-8)9-4-2/h7H,3-6H2,1-2H3	InChI=1S/C7H15NO/c1-3-8-5-7(6-8)9-4-2/h7H,3-6H2,1-2H3
