16
gdb 79683	2.76105	1.55481	1.24434	2.4569	70.57	-0.2343	-0.0363	0.198	1022.2188	0.121664	-437.784815	-437.776732	-437.775788	-437.817597	29.989	
C	-0.1883228846	 1.549763026	-0.0442217607	-0.306706
N	 0.1663202134	 0.1313909226	 0.0949883294	-0.11234
C	 1.3704375274	-0.5210742034	-0.2656847203	-0.140049
C	 2.6912524097	 0.1815135921	 0.2335330473	 0.001327
O	 2.3466809659	 1.4153979646	 0.8684588386	-0.233392
C	 2.2068354477	 0.1997109446	 1.6070486142	-0.048942
C	 0.8584006913	-0.4956545842	 1.1879801236	 0.182918
C	 0.2525739127	-1.6073678488	 1.9337495113	 0.081115
O	 0.7005158213	-2.0368264246	 2.9720537429	-0.275156
H	 0.490733465	 2.067183964	-0.723652875	 0.13611
H	-1.2066425823	 1.607629272	-0.4437349536	 0.117794
H	-0.157700707	 2.0599833984	 0.920006164	 0.137198
H	 1.3615454086	-1.3574598906	-0.9577167089	 0.117962
H	 3.6866933015	 0.0657211809	-0.1752719128	 0.122727
H	 2.7162702024	 0.0894613855	 2.5542418667	 0.134802
H	-0.6531018128	-2.0320828793	 1.4502540135	 0.084633
101.8877	108.4709	176.5046	230.5342	252.7447	269.8766	414.1222	452.4482	571.3735	643.4942	658.5984	728.7734	765.4786	834.6473	861.0844	871.9304	950.6231	966.9365	978.2601	1010.6316	1055.7936	1057.7637	1141.2551	1160.5313	1179.8602	1219.5202	1250.5636	1273.9365	1361.8406	1386.9122	1429.9879	1461.6032	1487.7569	1505.0046	1792.946	2909.0475	3035.8417	3108.9635	3143.2509	3163.3834	3203.2987	3226.9196
CN1C2C3OC3C12C=O	CN1[C@H]2[C@H]3O[C@H]3[C@@]12C=O	
InChI=1S/C6H7NO2/c1-7-4-3-5(9-3)6(4,7)2-8/h2-5H,1H3	InChI=1S/C6H7NO2/c1-7-4-3-5(9-3)6(4,7)2-8/h2-5H,1H3/t3-,4+,5-,6+,7?/m1/s1
