21
gdb 94837	3.66249	1.18776	1.04335	1.5225	79.26	-0.2554	0.0876	0.343	1231.8568	0.183264	-424.223739	-424.215338	-424.214394	-424.256412	33.122	
C	 0.0867553878	 1.4992549067	 0.008734431	-0.409144
C	 0.0409865091	-0.0127411593	 0.0012303251	 0.229811
O	 0.6645118559	-0.4695397656	-1.1783971577	-0.249426
C	 0.6630916622	-1.8896442468	-1.2577374315	-0.165109
C	 1.3198770223	-2.4857529875	-0.0298365799	 0.358515
C	 1.7912616342	-3.9125272055	-0.0440610122	-0.327817
C	 2.7947466586	-2.7817672639	-0.0519054191	-0.292375
C	 0.6975198949	-1.9029936019	 1.2221683493	-0.16511
O	 0.6969530582	-0.4821169662	 1.1581065888	-0.249426
H	 1.1277730684	 1.8309241381	-0.0038872383	 0.135273
H	-0.423434492	 1.8925127723	-0.8733279375	 0.124509
H	-0.3987717975	 1.882925794	 0.9087564524	 0.124508
H	-1.0036059894	-0.3864902222	 0.0137223565	 0.047743
H	-0.3753167055	-2.2555342428	-1.344861848	 0.086154
H	 1.1956355912	-2.1561523464	-2.1751993975	 0.104665
H	 1.6822337103	-4.497032116	 0.8643113013	 0.112255
H	 1.6569712322	-4.4872346564	-0.9552969427	 0.112255
H	 3.3412502377	-2.5892634814	-0.9692248494	 0.11595
H	 3.3665316626	-2.5990626679	 0.8519085329	 0.11595
H	-0.3381253433	-2.2699521309	 1.3341428133	 0.086154
H	 1.2552867821	-2.1792811403	 2.121572113	 0.104665
92.6318	189.8938	221.697	227.4345	247.4989	325.1885	365.2528	377.5492	454.1276	509.6651	568.1686	632.5545	779.4095	790.6702	838.5544	877.3901	902.866	950.4462	957.5074	976.7258	1006.4636	1051.9718	1055.5243	1061.7192	1079.5522	1094.0684	1127.0894	1148.6122	1178.1284	1184.7037	1264.224	1270.6585	1334.7521	1361.971	1371.2972	1389.6626	1409.3215	1427.1159	1433.2307	1469.8101	1481.3432	1485.4803	1493.6211	1495.6184	1514.0669	2890.5139	2946.7354	2956.1248	3058.4789	3081.9674	3084.3707	3122.3291	3130.2673	3140.4139	3141.1575	3199.7586	3216.4407
CC1OCC2(CC2)CO1	CC1OCC2(CC2)CO1	
InChI=1S/C7H12O2/c1-6-8-4-7(2-3-7)5-9-6/h6H,2-5H2,1H3	InChI=1S/C7H12O2/c1-6-8-4-7(2-3-7)5-9-6/h6H,2-5H2,1H3
