13
gdb 44119	2.7261	1.66756	1.35988	5.9957	63.28	-0.2717	0.0073	0.279	933.8678	0.090075	-452.744831	-452.737859	-452.736915	-452.776718	25.947	
N	-0.0859507156	 0.9739340617	-0.6488982326	-0.551571
C	-0.0099345494	-0.0997381354	-0.0161743822	 0.496723
O	 1.1321989039	-0.7707650237	 0.3727559686	-0.238912
C	 0.7717396879	-1.9305981779	 1.0674421013	 0.039602
C	-0.7144873904	-1.9465720647	 1.0725991288	 0.050826
O	-1.1152819122	-0.795429703	 0.3915438405	-0.21283
C	 0.0385353103	-3.0130709732	 0.2697043895	-0.282959
C	 0.0445486504	-3.0210938108	-1.1627356447	 0.328797
N	 0.0551850384	-3.0325669707	-2.3186941125	-0.325074
H	 0.837824925	 1.334492949	-0.8717426211	 0.247031
H	 1.4347419454	-2.1848650274	 1.8835381337	 0.146477
H	-1.3638227186	-2.2227858651	 1.8923110169	 0.148615
H	 0.0479391551	-3.9938073288	 0.7362224238	 0.153276
87.4087	135.2349	167.4247	343.8902	394.3233	466.2672	633.384	641.11	707.0177	711.2722	763.7902	786.0957	792.4394	802.4708	887.8309	951.2873	984.4989	1024.071	1040.6614	1089.7349	1114.3608	1148.2061	1196.0717	1217.5671	1349.4675	1364.8083	1408.8647	1824.3923	2362.9529	3163.5585	3207.8822	3216.3762	3553.7982
N=C1OC2C(O1)C2C#N	[NH][C]1O[C@H]2[C@@H](O1)[C@H]2C#N	
InChI=1S/C5H4N2O2/c6-1-2-3-4(2)9-5(7)8-3/h2-4,7H	InChI=1S/C5H4N2O2/c6-1-2-3-4(2)9-5(7)8-3/h2-4,7H/t2-,3+,4-
