18
gdb 108754	2.35486	1.30325	0.88043	5.9295	75.94	-0.2359	-0.0192	0.2167	1294.3429	0.147019	-439.131812	-439.122445	-439.121501	-439.166632	33.649	
C	-0.0712268563	 1.5749739336	 0.0468012897	-0.395024
C	 0.0353500495	 0.0424643947	 0.0386522576	-0.057784
N	 0.80882547	-0.461099812	-1.0760367714	-0.347211
C	 1.8640419681	-1.2699258675	-0.7003548719	 0.425374
O	 2.629890094	-1.8417170254	-1.4472064017	-0.390752
C	 1.829242065	-1.2685646983	 0.7901875154	-0.32471
C	 0.7988946534	-0.5351002547	 1.2190030518	 0.316423
C	 0.3806939781	-0.27758395	 2.6287256387	-0.175108
O	 1.222510562	-1.0002090227	 3.5032917953	-0.408598
H	 0.9235777824	 2.0263363898	 0.0968896356	 0.134642
H	-0.5656046677	 1.9286577206	-0.8631852784	 0.121622
H	-0.661690262	 1.9224241045	 0.9005697327	 0.119737
H	-0.9840441676	-0.3775633186	 0.0278533759	 0.0964
H	 0.5494018668	-0.3447607757	-2.0408415354	 0.248236
H	 2.544832401	-1.8049068785	 1.394047443	 0.133719
H	 0.4253686342	 0.8071339853	 2.8298633841	 0.106364
H	-0.6782553048	-0.568206045	 2.7502192162	 0.102738
H	 0.972164064	-0.7885372801	 4.4069323529	 0.293931
52.2806	76.6057	159.8671	175.3463	221.26	246.8654	261.2272	333.6183	417.9012	422.7182	513.1856	549.4216	628.9959	698.8537	746.3977	815.5732	889.9183	935.0406	976.3837	1015.5793	1049.6816	1075.9274	1103.6675	1136.2791	1150.7355	1195.0929	1236.893	1256.4127	1311.1311	1315.1072	1359.2369	1401.1887	1416.8881	1468.3674	1493.0368	1496.4616	1504.7905	1696.874	1822.0654	2942.1275	2957.368	2967.2435	3037.826	3107.2261	3122.7534	3264.2928	3667.9427	3840.4011
CC1NC(=O)C=C1CO	C[C@H]1NC(=O)C=C1CO	
InChI=1S/C6H9NO2/c1-4-5(3-8)2-6(9)7-4/h2,4,8H,3H2,1H3,(H,7,9)	InChI=1S/C6H9NO2/c1-4-5(3-8)2-6(9)7-4/h2,4,8H,3H2,1H3,(H,7,9)/t4-/m1/s1
