18
gdb 13221	2.9599	1.54985	1.08334	1.9357	63.35	-0.2421	0.0495	0.2916	1073.2837	0.152768	-422.037475	-422.028625	-422.027681	-422.071577	31.236	
O	 0.4838008999	 0.2282564432	 0.8971364301	-0.406406
C	-0.1145140181	 0.1915475379	-0.38900888	-0.09445
C	-1.4711999242	-0.5267877999	-0.410719128	 0.069811
O	-2.0234429731	-0.4773735356	-1.7234394998	-0.428349
C	-1.3921321413	-1.9566246474	 0.1050997064	-0.02255
C	-1.2812803425	-2.1995588726	 1.6269796779	-0.078436
O	-2.4770162175	-3.0056943348	 1.6310636555	-0.274975
C	-2.7220865873	-2.729344044	 0.2362373932	-0.09015
H	-0.0092442735	 0.8537265279	 1.4373960354	 0.289687
H	-0.2371782384	 1.1954694787	-0.8189518209	 0.10248
H	 0.5898839644	-0.3542520569	-1.0305930399	 0.10051
H	-2.1826876598	 0.0364484373	 0.2096659399	 0.083093
H	-1.4574259209	-1.0015566081	-2.3017328348	 0.281699
H	-0.6342531864	-2.5074703089	-0.4640563038	 0.069589
H	-0.4020201001	-2.7552433877	 1.969404181	 0.107209
H	-1.3909683889	-1.300829255	 2.2465867515	 0.086044
H	-3.6200441382	-2.1158241999	 0.0847084661	 0.105706
H	-2.8182648842	-3.6477634842	-0.3544846698	 0.099488
62.9907	77.7593	118.2312	181.6293	238.7483	289.2554	310.7256	334.3895	391.3646	460.5746	539.0504	741.9367	863.2254	896.3632	954.5938	970.3213	1017.2249	1036.9264	1040.8221	1070.9291	1093.5952	1108.4746	1153.4813	1158.2797	1162.4472	1190.8497	1258.4132	1273.2107	1308.0034	1326.2665	1373.1415	1381.4713	1405.9654	1416.1048	1418.1189	1501.0385	1511.8315	1537.3452	3004.3779	3008.6659	3009.5235	3024.2299	3034.1062	3055.1781	3059.0345	3071.8749	3794.6952	3820.5581
OCC(O)C1COC1	OC[C@@H](O)C1COC1	
InChI=1S/C5H10O3/c6-1-5(7)4-2-8-3-4/h4-7H,1-3H2	InChI=1S/C5H10O3/c6-1-5(7)4-2-8-3-4/h4-7H,1-3H2/t5-/m1/s1
