19
gdb 30266	4.61253	1.20947	0.99242	4.4142	81.38	-0.2103	0.0392	0.2495	1197.6121	0.163251	-382.125677	-382.118173	-382.117228	-382.157672	29.304	
C	-0.0438687108	 1.5429314635	-0.0106293303	-0.408789
C	 0.1027981528	 0.0241425941	 0.0094001593	 0.030669
C	 0.9349731678	-0.5426583763	-1.1741459751	-0.195103
N	 1.4810782099	-1.7647210762	-0.6054518678	-0.005284
C	 2.094373898	-2.9027998202	-1.0295142468	-0.02125
N	 2.4294627457	-3.6682440463	-0.0101636317	-0.275486
C	 2.0237867815	-2.9895945391	 1.1205284421	-0.227331
C	 1.4330990481	-1.8032869588	 0.7697704431	 0.310653
C	 0.7987422195	-0.5469881623	 1.2833091396	-0.370355
H	 0.9344036875	 2.033016872	 0.0494110733	 0.120861
H	-0.5361519843	 1.8860404697	-0.9267830896	 0.119364
H	-0.6437428238	 1.8889133616	 0.8368397349	 0.124191
H	-0.8921194822	-0.4322099341	-0.0509182838	 0.093669
H	 0.3281813303	-0.7459911002	-2.0606295185	 0.124761
H	 1.74158074	 0.1447524139	-1.461450913	 0.117428
H	 2.2600177439	-3.1275871968	-2.0723592793	 0.123235
H	 2.1775503608	-3.4022498241	 2.1058159596	 0.102953
H	 1.552442385	 0.1599387918	 1.6573139008	 0.114247
H	 0.0864891607	-0.7144237122	 2.0957935033	 0.121566
85.1106	199.1489	233.8214	245.5989	271.2376	412.7251	453.7591	508.4503	646.7728	675.072	741.0009	775.641	792.6112	829.2573	833.4149	901.6595	938.6431	953.5867	958.9591	1073.651	1117.687	1124.348	1131.2978	1175.6772	1190.6506	1239.6531	1246.7589	1261.1675	1286.7285	1320.582	1348.1342	1374.8228	1401.6916	1408.0412	1420.2089	1492.9603	1496.501	1497.1014	1500.3365	1527.48	1594.183	3008.6025	3016.7243	3030.3971	3038.1027	3085.2929	3089.5263	3099.3817	3105.1766	3248.1711	3251.5494
CC1CN2C=NC=C2C1	C[C@H]1Cn2cncc2C1	
InChI=1S/C7H10N2/c1-6-2-7-3-8-5-9(7)4-6/h3,5-6H,2,4H2,1H3	InChI=1S/C7H10N2/c1-6-2-7-3-8-5-9(7)4-6/h3,5-6H,2,4H2,1H3/t6-/m1/s1
