21
gdb 104423	3.02658	1.19802	1.07459	2.033	80.5	-0.241	0.0253	0.2663	1217.3846	0.182384	-424.225213	-424.215997	-424.215053	-424.258713	35.203	
C	-0.0301212735	 1.5645010589	 0.0329006538	-0.41419
C	-0.010617079	 0.0226571585	 0.0281367601	 0.212443
C	-1.44711103	-0.5228077112	 0.0175534644	-0.109738
O	-2.1326567569	-0.0208799751	 1.1556944974	-0.422448
C	 0.7208103946	-0.4981737865	-1.2237789192	-0.124557
O	 2.115405698	-0.2645890045	-1.14512478	-0.252785
C	 2.7327816908	-1.0138607548	-0.1155892596	-0.120549
C	 1.9599318231	-0.9879066804	 1.173393046	-0.099283
C	 0.7237892449	-0.5019967985	 1.2450379574	-0.069629
H	 0.9878314804	 1.9485218561	-0.0667941627	 0.124835
H	-0.6287401746	 1.945405311	-0.8034074845	 0.101805
H	-0.4642820189	 1.9471493837	 0.9589129116	 0.128512
H	-1.9473144385	-0.2076476714	-0.9137614555	 0.083703
H	-1.4210354166	-1.6238442027	 0.0274891799	 0.086534
H	-3.0135416036	-0.4050233033	 1.1714624979	 0.28966
H	 0.5213004502	-1.5757070133	-1.3551950353	 0.080748
H	 0.3772772538	 0.022818607	-2.1232521459	 0.102712
H	 2.8882172426	-2.0604616768	-0.4400721624	 0.094412
H	 3.7292531014	-0.5770666796	 0.0215535478	 0.116207
H	 2.4608186958	-1.3912328155	 2.0500024493	 0.089883
H	 0.1833886559	-0.4710971018	 2.1862206495	 0.101723
104.6963	123.0462	191.8688	233.4096	241.933	261.8823	285.1823	326.1976	369.5014	409.3797	489.0597	511.3698	584.1524	715.175	740.3059	830.7423	903.4604	918.4893	930.1781	984.5535	987.4486	1011.1754	1024.2434	1061.4075	1078.3925	1124.8251	1157.8041	1187.6583	1208.2853	1225.3265	1251.8426	1282.386	1306.4134	1333.1076	1370.9007	1392.1877	1404.7456	1424.2945	1458.2256	1484.5326	1492.0707	1494.8607	1499.6307	1517.2759	1722.6491	2925.0716	2951.395	2958.7118	2993.3846	3030.6562	3048.3524	3072.7543	3107.37	3136.9015	3154.7418	3183.9242	3837.983
CC1(CO)COCC=C1	C[C@@]1(CO)COCC=C1	
InChI=1S/C7H12O2/c1-7(5-8)3-2-4-9-6-7/h2-3,8H,4-6H2,1H3	InChI=1S/C7H12O2/c1-7(5-8)3-2-4-9-6-7/h2-3,8H,4-6H2,1H3/t7-/m1/s1
