16
gdb 6965	2.65642	2.27369	1.66614	0.9175	60.32	-0.2522	-0.0382	0.2141	828.8784	0.129171	-420.894488	-420.886661	-420.885717	-420.926363	29.233	
C	 0.1854857523	 1.525543902	-0.0179984885	-0.433359
C	-0.1108384317	 0.017642835	-0.0353302187	 0.289436
O	-1.4938444801	-0.242539478	-0.0011159659	-0.478556
C	 0.5977087551	-0.6933334032	-1.1974183693	-0.127997
O	 1.9464221378	-0.8659037312	-0.7462871753	-0.254546
C	 1.9054580122	-1.2274306253	 0.6229520476	-0.181364
C	 0.5929394002	-0.6620391239	 1.1501528144	 0.324649
O	 0.1144591408	-0.7735691897	 2.2493047067	-0.32502
H	 1.2545216028	 1.7208026038	-0.1452900558	 0.131836
H	-0.3612724356	 2.0024181432	-0.8364321179	 0.133925
H	-0.1448562496	 1.9682362737	 0.9263742112	 0.127509
H	-1.7347170409	-0.3094433429	 0.9341411159	 0.290263
H	 0.1072439401	-1.6586743993	-1.3912811558	 0.10845
H	 0.6347639651	-0.114323551	-2.1219958231	 0.120264
H	 1.9028854903	-2.3203640135	 0.7664620152	 0.130892
H	 2.7783671111	-0.8178049397	 1.1406440192	 0.143618
90.1076	201.5729	212.7697	250.4643	286.6708	343.17	362.023	402.1745	511.101	583.176	612.3072	646.1678	717.9638	872.7687	942.487	969.0939	979.4114	1004.2344	1085.4322	1094.0032	1141.8246	1167.6226	1218.9951	1246.9153	1251.5176	1321.9278	1370.9477	1393.1987	1397.2293	1472.4783	1488.9709	1493.3003	1515.1539	1855.4852	2981.3911	3004.003	3038.6773	3082.4307	3114.8651	3118.9459	3121.3099	3735.4329
CC1(O)COCC1=O	C[C@@]1(O)COCC1=O	
InChI=1S/C5H8O3/c1-5(7)3-8-2-4(5)6/h7H,2-3H2,1H3	InChI=1S/C5H8O3/c1-5(7)3-8-2-4(5)6/h7H,2-3H2,1H3/t5-/m1/s1
