17
gdb 98105	4.27223	0.87287	0.77165	1.4327	71.52	-0.2389	-0.081	0.158	1463.7235	0.133278	-458.968648	-458.959112	-458.958168	-459.004167	33.275	
O	 0.0080609684	 1.3887970816	 0.0464096355	-0.399898
C	-0.0308298391	-0.0128339726	 0.0025174973	-0.170664
C	-1.476695119	-0.4720433108	 0.0148741342	 0.285511
O	-2.4226858753	 0.2735514908	 0.055660372	-0.262784
C	-1.6655075617	-2.0066455079	-0.0297553599	 0.274116
O	-0.6840586014	-2.723776535	-0.0703211841	-0.325136
C	-3.0578435975	-2.4962156266	-0.0193556849	-0.108937
C	-3.3490470394	-3.7774448286	-0.79631401	-0.248666
C	-3.3218052005	-3.8230073621	 0.6878753117	-0.248631
H	 0.9307319993	 1.6589501747	 0.0385975642	 0.295577
H	 0.4419507204	-0.436551432	-0.8987562983	 0.127936
H	 0.4749601081	-0.4925122927	 0.856535708	 0.127959
H	-3.8204455813	-1.7308578765	 0.0182473765	 0.122744
H	-4.3017509458	-3.825483347	-1.3104703585	 0.12673
H	-2.5055353995	-4.20460572	-1.3268633201	 0.138705
H	-2.4599086584	-4.2809524604	 1.159975329	 0.138696
H	-4.2550659973	-3.9034783648	 1.2327207975	 0.126743
43.7298	67.7478	101.028	145.6412	230.9478	245.7893	262.3131	299.6748	331.7003	413.1312	507.7038	701.0038	715.5835	777.5267	814.8426	824.3741	855.1898	884.5694	962.1349	1008.8777	1065.5597	1098.394	1108.4083	1135.2223	1143.2874	1193.0894	1212.1921	1216.5565	1231.6354	1247.7752	1411.9731	1444.6407	1456.9983	1475.744	1487.2934	1770.3984	1821.3846	2976.386	2996.9281	3141.5591	3143.0076	3218.1021	3228.7547	3244.3583	3839.0809
OCC(=O)C(=O)C1CC1	OCC(=O)C(=O)C1CC1	
InChI=1S/C6H8O3/c7-3-5(8)6(9)4-1-2-4/h4,7H,1-3H2	InChI=1S/C6H8O3/c7-3-5(8)6(9)4-1-2-4/h4,7H,1-3H2
