21
gdb 93044	2.37562	1.72337	1.17709	2.0908	82.44	-0.2357	0.0116	0.2473	1112.3266	0.184591	-387.089231	-387.081134	-387.08019	-387.121818	31.796	
C	-0.0870121478	 1.5736347822	-0.0369318768	-0.402473
C	 0.0296611315	 0.0452522478	-0.0296503532	-0.003055
C	 0.6774486683	-0.4875379908	-1.3213907286	-0.261375
C	 1.0160518944	-1.9531150887	-1.2510432522	-0.067646
C	 1.2305268401	-2.610335827	-0.1110890161	-0.056391
C	 1.1901087509	-1.9474272582	 1.2321407778	 0.06184
O	 2.5257622349	-1.5646785855	 1.6912897515	-0.295673
C	 2.2426679495	-0.1690614719	 1.4671085725	-0.091431
C	 0.7456296357	-0.4648244264	 1.2206874828	-0.046058
H	 0.9021646772	 2.0458155788	-0.0488639944	 0.116883
H	-0.6314224655	 1.9247726147	-0.9198369615	 0.113442
H	-0.6181341323	 1.9354112685	 0.8498485496	 0.112726
H	-0.9863518474	-0.3731507247	 0.0070996486	 0.078103
H	 0.0082904496	-0.2960346576	-2.1692453755	 0.1021
H	 1.5927384058	 0.0823857945	-1.543904113	 0.112668
H	 1.1060592552	-2.4807536836	-2.1981420548	 0.091119
H	 1.4963882003	-3.6643220219	-0.1287309884	 0.089693
H	 0.7107627548	-2.5920642574	 1.9783251252	 0.073415
H	 2.4852007484	 0.4439107367	 2.3424239298	 0.100177
H	 2.7905401231	 0.225246517	 0.5994591507	 0.094594
H	 0.1524054129	-0.2215202966	 2.1066452961	 0.077341
90.2416	130.9604	212.3427	239.9784	274.4251	321.7322	422.2893	479.1973	517.8297	547.5838	667.4289	719.3277	817.1697	835.0914	883.6866	901.5376	928.8344	958.0795	978.2591	998.7585	1009.261	1016.1015	1029.9435	1087.9853	1101.5893	1119.1956	1162.0892	1171.368	1204.0517	1237.9364	1263.0333	1280.4186	1321.7246	1327.0599	1359.1733	1361.1668	1385.41	1401.6794	1410.0537	1421.1525	1480.1524	1496.4288	1499.6026	1526.295	1717.8196	2989.6464	2999.7924	3003.7883	3025.9545	3028.4562	3043.9914	3049.4945	3069.5284	3092.5593	3098.1748	3142.022	3167.0308
CC1CC=CC2OCC12	C[C@H]1CC=C[C@H]2OC[C@@H]12	
InChI=1S/C8H12O/c1-6-3-2-4-8-7(6)5-9-8/h2,4,6-8H,3,5H2,1H3	InChI=1S/C8H12O/c1-6-3-2-4-8-7(6)5-9-8/h2,4,6-8H,3,5H2,1H3/t6-,7-,8+/m0/s1
