19
gdb 108679	2.35406	1.39208	0.93708	2.089	74.95	-0.2281	0.0059	0.234	1244.685	0.159204	-460.151082	-460.141948	-460.141004	-460.185389	33.082	
O	 0.4005897417	 1.0120831933	-0.7743625462	-0.427333
C	 0.1267831923	-0.2954820687	-0.3321923991	-0.164324
C	-1.3223509948	-0.6088285325	-0.1001444208	 0.164788
C	-2.4022805046	 0.1741775878	-0.162860084	 0.182827
C	-2.5014217255	 1.6353567069	-0.4892687151	-0.224281
O	-1.6873037833	 2.3851902848	 0.4317222566	-0.413678
C	-3.6239912279	-0.630905012	 0.2022295231	-0.156673
O	-3.1642515458	-1.9550967455	 0.4260306048	-0.262904
C	-1.7465004096	-1.9947564468	 0.3198759408	-0.142528
H	-0.0561085419	 1.6229191307	-0.1735554298	 0.289264
H	 0.5183128804	-0.9752052992	-1.1025461701	 0.117654
H	 0.6854680872	-0.543182758	 0.5903719314	 0.096958
H	-2.169764255	 1.82135332	-1.5188351884	 0.125619
H	-3.547415625	 1.9613865581	-0.4060422608	 0.104675
H	-1.7495712254	 3.3157854006	 0.1882486754	 0.29496
H	-4.1158139741	-0.2347539024	 1.107836984	 0.103697
H	-4.3832418151	-0.6351018821	-0.596952986	 0.102392
H	-1.4521783382	-2.762143843	-0.4138383117	 0.105581
H	-1.2980614452	-2.2861769921	 1.2848565959	 0.103306
71.5173	106.4136	129.8719	183.5986	213.3442	231.6698	302.2141	360.9057	399.3191	415.8836	536.6295	661.5516	683.9176	695.5902	821.633	931.7318	953.5232	968.2731	1012.1392	1042.3541	1069.6545	1079.6102	1104.1196	1122.3121	1164.1917	1172.1134	1223.1536	1230.2489	1249.5228	1256.3701	1284.6169	1360.7453	1394.598	1409.4182	1457.3087	1475.0798	1492.0348	1507.6812	1517.6097	1530.3134	1746.9063	2923.1949	2949.3513	2960.5815	2972.9093	2982.9492	3002.844	3017.6103	3040.2903	3660.3777	3802.8064
OCC1=C(CO)COC1	OCC1=C(CO)COC1	
InChI=1S/C6H10O3/c7-1-5-3-9-4-6(5)2-8/h7-8H,1-4H2	InChI=1S/C6H10O3/c7-1-5-3-9-4-6(5)2-8/h7-8H,1-4H2
