18
gdb 46897	3.23138	1.38137	1.05477	1.5071	72.56	-0.2621	0.012	0.274	1117.5753	0.149473	-439.072422	-439.064753	-439.063809	-439.104823	29.688	
N	-0.0356648646	 1.3193272197	 0.1637174987	-0.469543
C	 0.0098014116	 0.0692065536	-0.0328844373	 0.35535
C	-1.2811063666	-0.7278033352	-0.0719943815	-0.252159
C	-1.4474298107	-1.7482166422	-1.2162211301	-0.269425
C	-0.6154539481	-2.9899652571	-0.9642188972	 0.06928
O	 0.2170444678	-3.4876194298	-2.013119971	-0.252547
C	 0.8452347819	-2.8828624222	-0.8748786978	 0.035238
C	 1.4931616153	-1.5343042394	-1.1092933206	-0.125093
O	 1.2213456382	-0.5849120585	-0.068785634	-0.258236
H	 0.9155178347	 1.6926677955	 0.2105007334	 0.219847
H	-1.3671106224	-1.2592657652	 0.8858996918	 0.123576
H	-2.0830155866	 0.0114521307	-0.0980073632	 0.136285
H	-2.5044823113	-2.0217105497	-1.2915183193	 0.112889
H	-1.1705907593	-1.3084866456	-2.1786868995	 0.124258
H	-1.0975677552	-3.7711389774	-0.3754672845	 0.100176
H	 1.3877246743	-3.5774599869	-0.2350089202	 0.102001
H	 2.5821548467	-1.6238619476	-1.1199224744	 0.123726
H	 1.1771304544	-1.1444806627	-2.0825144634	 0.124377
68.5664	159.4253	238.2783	272.1218	331.9499	372.4094	427.4107	485.5769	511.2475	612.7115	705.8933	739.5097	806.2831	828.7867	914.2106	930.0399	949.8189	965.3379	1026.73	1046.4856	1055.7207	1071.958	1119.8868	1138.6092	1162.5376	1200.4033	1240.1011	1274.4445	1291.7069	1320.697	1343.2896	1372.7378	1388.6005	1410.4031	1469.0065	1487.1906	1488.5736	1508.9858	1735.1506	3022.0924	3049.2713	3056.4001	3091.9385	3104.3209	3108.2575	3122.4213	3128.0072	3455.5116
N=C1CCC2OC2CO1	[NH][C]1CC[C@H]2O[C@H]2CO1	
InChI=1S/C6H9NO2/c7-6-2-1-4-5(9-4)3-8-6/h4-5,7H,1-3H2	InChI=1S/C6H9NO2/c7-6-2-1-4-5(9-4)3-8-6/h4-5,7H,1-3H2/t4-,5+/m1/s1
