19
gdb 104486	2.69519	1.51853	1.15835	3.1952	76.15	-0.2489	-0.0397	0.2091	1093.5854	0.15979	-422.968619	-422.960506	-422.959561	-423.00167	31.354	
O	 0.9297964574	-0.6645705648	 1.1249819312	-0.426031
C	 0.1549841648	-0.0498600321	 0.1140167769	-0.155414
C	-1.285236796	-0.5894291156	 0.0925651614	 0.239063
C	-2.0000900073	-0.0719672894	 1.3222567611	 0.09393
O	-1.4269966616	 0.2385145966	 2.3451125798	-0.276396
C	-2.1168819667	-0.648973234	-1.2488983284	-0.113127
C	-1.1706376643	-1.7910479587	-1.7302126867	-0.235122
C	-1.5112605648	-2.1221656651	-0.2497897782	-0.053253
C	-2.9850177631	-1.7811561305	-0.6175892733	-0.241742
H	 0.5036439302	-0.4154120854	 1.9560303728	 0.293218
H	 0.11782054	 1.0430512726	 0.2464673849	 0.090334
H	 0.6711861772	-0.2351704455	-0.828596057	 0.108782
H	-3.099289798	 0.0539453329	 1.2631946003	 0.094539
H	-2.4689447535	 0.2072518255	-1.8268428089	 0.081046
H	-1.5975038912	-2.4717641749	-2.4708619204	 0.0981
H	-0.1416266801	-1.5452336008	-1.9824432937	 0.107981
H	-1.145853908	-2.9565101562	 0.3478924627	 0.094129
H	-3.6795599923	-1.530972943	 0.1831278025	 0.099192
H	-3.4585816329	-2.4583688616	-1.3318971169	 0.100771
59.3838	119.9008	150.3296	246.7961	345.7051	365.3625	427.1827	474.3093	532.3057	588.396	610.1253	711.6994	797.6137	822.2109	891.4192	896.5806	900.7769	930.0102	1002.1391	1006.0088	1016.9702	1047.5124	1074.99	1087.2997	1100.8359	1106.8419	1141.9217	1181.1871	1194.7018	1200.9572	1233.4938	1244.5874	1261.8915	1278.5349	1383.8494	1436.5215	1446.8918	1497.9907	1526.8572	1557.4465	1785.35	2925.3539	2980.2659	3073.1078	3075.8293	3099.5938	3115.9201	3124.2396	3143.3394	3159.4155	3757.7639
OCC1(C=O)C2CC1C2	OC[C@@]1(C=O)[C@H]2C[C@@H]1C2	
InChI=1S/C7H10O2/c8-3-7(4-9)5-1-6(7)2-5/h3,5-6,9H,1-2,4H2	InChI=1S/C7H10O2/c8-3-7(4-9)5-1-6(7)2-5/h3,5-6,9H,1-2,4H2/t5-,6+,7-
