18
gdb 93368	2.66099	1.65655	1.26407	3.5371	71.5	-0.2406	-0.0018	0.2388	1028.3559	0.148887	-439.090642	-439.082842	-439.081898	-439.123097	30.153	
C	-0.109181746	 1.6440221883	-0.1213405772	-0.407977
C	-0.0044296087	 0.1210565217	-0.0037252858	 0.031792
C	 0.5250674679	-0.5231053454	-1.2791228461	-0.090009
O	 1.9129150309	-0.2069193411	-1.5010234149	-0.230562
C	 2.782829224	-0.557570422	-0.5174339125	 0.414564
O	 3.955338155	-0.6561199831	-0.7476777789	-0.326662
C	 2.1838965088	-0.771827912	 0.8447771422	-0.167188
C	 1.8934309411	 0.4432597393	 1.6633953163	-0.237509
N	 0.8047308804	-0.3698789311	 1.1406293366	-0.106067
H	 0.8208664604	 2.0963174975	-0.476360717	 0.137032
H	-0.8952274903	 1.9004305986	-0.8383592933	 0.122179
H	-0.3718174514	 2.0918394852	 0.8409148031	 0.130836
H	-1.0156578458	-0.2733327128	 0.1585933968	 0.097232
H	 0.4114366174	-1.6126026206	-1.2320901699	 0.122444
H	-0.0018908623	-0.1591347903	-2.1638792444	 0.126419
H	 2.5387211385	-1.6726456247	 1.3372605854	 0.124662
H	 2.0290570541	 0.4033663701	 2.7406594172	 0.128338
H	 2.109102486	 1.4089650423	 1.2155676925	 0.130476
58.3406	197.425	230.7275	256.9527	316.4795	358.816	399.0995	457.2918	521.8412	571.7929	691.9958	733.3716	768.7051	788.1853	863.8144	907.9126	946.5954	988.7095	1000.0651	1020.3023	1072.7454	1101.6941	1116.1548	1140.4354	1151.7197	1170.7481	1220.2045	1282.7965	1312.6145	1333.5825	1377.8331	1380.0269	1402.0452	1422.4043	1492.1355	1499.1832	1505.7853	1519.1369	1855.6143	3017.4433	3041.1585	3044.4548	3110.1224	3113.5821	3115.3225	3124.2861	3152.0412	3200.0729
CC1COC(=O)C2CN12	C[C@H]1COC(=O)[C@H]2CN12	
InChI=1S/C6H9NO2/c1-4-3-9-6(8)5-2-7(4)5/h4-5H,2-3H2,1H3	InChI=1S/C6H9NO2/c1-4-3-9-6(8)5-2-7(4)5/h4-5H,2-3H2,1H3/t4-,5+,7?/m0/s1
