19
gdb 121668	4.21928	0.75054	0.69152	1.9805	74.18	-0.2719	0.0093	0.2812	1659.546	0.15817	-460.182356	-460.172736	-460.171792	-460.218638	33.961	
O	-0.2261844631	 1.563105518	-0.031641775	-0.418561
C	-0.0578938812	 0.1599571998	 0.0073615885	-0.068838
C	-1.3851479423	-0.5760895176	 0.021508731	-0.077187
O	-2.0497331777	-0.2298254861	-1.2107262538	-0.270629
C	-3.2719812202	-0.7784849361	-1.39998628	 0.467917
O	-3.7929403146	-1.5291681344	-0.6103401527	-0.376617
C	-3.8642520354	-0.3392789146	-2.6869881127	-0.135486
C	-4.7484491487	-1.3376074232	-3.4161453604	-0.249118
C	-5.3746534379	-0.1718707202	-2.7286142128	-0.249395
H	-0.7820229665	 1.7505167333	-0.7960458874	 0.289703
H	 0.5483694603	-0.1994508858	-0.8392166146	 0.096103
H	 0.4872344361	-0.0700159612	 0.9286072139	 0.116562
H	-1.2505508332	-1.661060185	 0.0756554668	 0.120715
H	-2.0062644632	-0.2595106656	 0.8644817824	 0.129552
H	-3.2563949857	 0.3342159864	-3.2769851788	 0.099661
H	-4.6920860156	-1.3421467054	-4.498348591	 0.121553
H	-4.8511002037	-2.3095113378	-2.9483160298	 0.141046
H	-5.8973593087	-0.360758033	-1.7985630681	 0.141402
H	-5.7606308986	 0.6462661487	-3.3253071256	 0.121615
26.6269	62.617	88.3205	138.1839	186.0685	264.5704	290.2413	310.0125	376.1812	419.9394	505.8946	675.8051	757.8187	792.2302	834.1654	847.6116	864.1397	909.9442	921.9104	976.5257	1039.3013	1066.9144	1094.0346	1096.0526	1115.8147	1126.3901	1129.9631	1199.3777	1209.4084	1224.7685	1235.1251	1262.2534	1376.4905	1388.6564	1424.2392	1433.9291	1456.4205	1489.9729	1496.0856	1499.3396	1807.788	2984.8204	3053.5839	3082.7282	3108.0395	3145.2075	3147.5068	3196.4039	3232.6555	3247.0894	3809.3396
OCCOC(=O)C1CC1	OCCOC(=O)C1CC1	
InChI=1S/C6H10O3/c7-3-4-9-6(8)5-1-2-5/h5,7H,1-4H2	InChI=1S/C6H10O3/c7-3-4-9-6(8)5-1-2-5/h5,7H,1-4H2
