14
gdb 19512	4.34552	1.54413	1.54134	3.6845	58.27	-0.2417	-0.0233	0.2185	854.0414	0.106934	-419.650977	-419.644186	-419.643241	-419.682431	24.477	
O	-0.0087475992	-0.0301076676	-0.3033319967	-0.270389
C	 0.0155580535	 1.1076514433	 0.1016269282	 0.17386
C	 1.2403252707	 1.9452440001	 0.0812455744	-0.181008
C	 1.1831024932	 3.4582457567	-0.1691130673	 0.029967
O	-0.0802477903	 4.0666064253	-0.0531456507	-0.249146
C	-0.2420208152	 4.331801451	 1.3320956361	 0.020323
O	 0.4675601665	 3.3168716347	 2.0262542028	-0.249175
C	 1.5393265766	 2.9707622732	 1.1829618006	 0.029941
H	-0.8892133085	 1.5911627328	 0.515739764	 0.091492
H	 2.1096531656	 1.4412580013	-0.3296655352	 0.115616
H	 1.861827843	 3.919663735	-0.8772426288	 0.125372
H	 0.1657570366	 5.3246263872	 1.582633938	 0.104312
H	-1.3021422995	 4.2688742958	 1.588706476	 0.133476
H	 2.523677527	 3.0140637611	 1.6348575286	 0.12536
94.3701	143.5819	180.0251	240.7201	419.9906	436.0238	609.0019	732.3517	749.4001	767.9756	828.5119	936.7185	947.8449	1006.674	1023.7718	1050.9915	1051.4814	1097.6391	1103.0714	1148.2026	1168.4743	1199.5072	1220.9028	1298.9812	1326.1939	1379.7873	1424.4057	1447.1629	1537.6661	1807.1	2952.6596	2974.1047	3108.2218	3167.9981	3173.0671	3184.2358
O=CC1C2OCOC12	O=C[C@H]1[C@H]2OCO[C@@H]12	
InChI=1S/C5H6O3/c6-1-3-4-5(3)8-2-7-4/h1,3-5H,2H2	InChI=1S/C5H6O3/c6-1-3-4-5(3)8-2-7-4/h1,3-5H,2H2/t3-,4+,5-
