16
gdb 48311	2.21306	1.982	1.20998	3.4738	76.78	-0.2422	-0.042	0.2002	1014.2805	0.122802	-400.625153	-400.617272	-400.616328	-400.657544	30.159	
O	-0.1405423197	 0.0361038697	 0.024964567	-0.239095
C	 0.0021485375	 1.2128755729	-0.1705899935	 0.088641
C	 1.3085353001	 1.9891549351	-0.0175052869	 0.083122
C	 1.4614155044	 2.7794389683	-1.2267814276	 0.239353
C	 1.4900368314	 3.4012007063	-2.2562191284	-0.398513
C	 1.6445965223	 2.6478072757	 1.3748809739	-0.107044
C	 1.8884157414	 1.2048540887	 1.8568746551	-0.185938
N	 2.5583239078	 1.1939278133	 0.4611076649	-0.161383
C	 3.1044221141	 2.5762413733	 0.8917203958	-0.181298
H	-0.8378027189	 1.8570819739	-0.5112546509	 0.094999
H	 1.5430452066	 3.9573618644	-3.1599665745	 0.203666
H	 1.1061367603	 3.470918476	 1.8555924972	 0.082231
H	 2.612836684	 1.0765910659	 2.6631340614	 0.108824
H	 1.0554266587	 0.5135469371	 1.9546807055	 0.137043
H	 3.4153571323	 3.2091195795	 0.0605508271	 0.126239
H	 3.8794802675	 2.49874894	 1.6566760638	 0.109153
96.5031	145.9084	168.1174	213.2765	292.7413	430.8399	488.2507	520.0396	540.2461	619.2849	632.9004	673.0193	681.1933	777.3279	791.415	871.4168	905.377	926.4793	1004.456	1015.1635	1051.8	1065.7879	1083.2014	1155.5137	1163.9754	1185.8724	1200.6227	1219.7224	1228.5533	1267.8182	1420.4005	1515.9713	1555.7382	1828.9646	2222.293	2894.7293	3051.3875	3077.1275	3091.7086	3150.3102	3180.0971	3498.3142
O=CC1(C#C)C2CN1C2	O=C[C@@]1(C#C)[C@H]2CN1C2	
InChI=1S/C7H7NO/c1-2-7(5-9)6-3-8(7)4-6/h1,5-6H,3-4H2	InChI=1S/C7H7NO/c1-2-7(5-9)6-3-8(7)4-6/h1,5-6H,3-4H2/t7-/m0/s1
