17
gdb 78726	4.45856	1.16055	1.04703	1.2934	79.99	-0.2383	0.035	0.2733	1143.618	0.135376	-384.600411	-384.592692	-384.591748	-384.632242	31.06	
O	 0.1583833383	 1.3063327126	 0.1543702883	-0.443876
C	 0.0769799451	-0.0886182816	-0.0243790079	 0.160603
C	-1.353985653	-0.6174021637	-0.1289271822	-0.158489
C	-1.3221124021	-0.5246281963	-1.6372326728	-0.152631
C	 0.2570447816	-0.5778158619	-1.4928787611	-0.130898
C	 0.1675509608	-2.1181451144	-1.385906684	-0.29995
C	-1.3008806173	-1.9033363153	-0.9859494996	 0.239881
C	-2.3412152106	-2.8718442604	-0.9457823934	 0.117658
C	-3.2056199383	-3.7093256039	-0.9196486056	-0.381004
H	-0.494680244	 1.7153208694	-0.4265724397	 0.280347
H	 0.7459819737	-0.5237491498	 0.7249224282	 0.086762
H	-2.1863855429	-0.4444598817	 0.541285944	 0.101277
H	-2.0106517859	-0.1206803356	-2.3648008507	 0.10535
H	 0.9830785392	-0.0873725965	-2.137202992	 0.082081
H	 0.2315825298	-2.611087531	-2.3589058436	 0.111781
H	 0.834303649	-2.6160690438	-0.6729352094	 0.099596
H	-3.9706696833	-4.4449121562	-0.8946841885	 0.181512
130.9347	136.8595	238.8701	305.8401	372.6417	391.8586	449.5621	501.2712	530.2619	575.2959	591.994	653.9105	744.7158	786.5121	822.3001	855.1256	888.0182	923.4125	940.3204	944.8975	985.5572	1018.4804	1036.4918	1092.8364	1120.8743	1135.8961	1145.8532	1184.0248	1220.6269	1239.7941	1269.2049	1279.8729	1292.8447	1377.0098	1433.0616	1501.8729	2233.1662	3038.3621	3064.3291	3106.3453	3147.3672	3202.0688	3228.1185	3503.3515	3781.0848
OC1C2C3C1CC23C#C	O[C@H]1[C@H]2[C@H]3[C@@H]1C[C@@]23C#C	
InChI=1S/C8H8O/c1-2-8-3-4-5(8)6(8)7(4)9/h1,4-7,9H,3H2	InChI=1S/C8H8O/c1-2-8-3-4-5(8)6(8)7(4)9/h1,4-7,9H,3H2/t4-,5+,6+,7+,8+/m0/s1
