20
gdb 79186	2.59564	1.81062	1.48545	2.1035	76.56	-0.2304	0.0584	0.2888	978.1388	0.173099	-403.115097	-403.107401	-403.106456	-403.146762	31.224	
C	-0.2183570988	 1.5723070725	-0.0137290589	-0.43314
C	 0.0482227974	 0.069115062	-0.0082004324	 0.023341
C	 0.8677275105	-0.4758489373	-1.1769686301	-0.012593
C	 2.3667604915	-0.0636025891	-1.1586771051	-0.25261
C	 2.6033517443	-1.3826155129	-0.4414646215	-0.021731
C	 1.6094919683	-1.6345122251	 0.6328966078	-0.025619
C	 0.8390395669	-0.4667960785	 1.2247780291	 0.050653
O	 1.7624672039	 0.4600136981	 1.7902542975	-0.424146
N	 1.2248249236	-1.9098051352	-0.7756491349	-0.164074
H	 0.7121344465	 2.1457140649	 0.0098881608	 0.129517
H	-0.7735860531	 1.8664859233	-0.9098953725	 0.119924
H	-0.8210630053	 1.8715420137	 0.8520830991	 0.10773
H	-0.9118033142	-0.4640824216	-0.0238081435	 0.081922
H	 0.3636086211	-0.4280681815	-2.1427871359	 0.073292
H	 2.79555073	-0.0745228094	-2.1631906892	 0.104611
H	 2.6547244473	 0.8550711198	-0.6442240869	 0.113937
H	 3.4861867651	-2.0074167183	-0.5400880439	 0.088934
H	 1.7564213043	-2.5253519184	 1.2344728323	 0.088714
H	 0.1482678229	-0.8175117828	 2.0040039469	 0.067544
H	 1.2582907279	 1.1277878459	 2.2659711711	 0.283794
134.3563	207.6307	233.6938	262.2003	307.0865	324.7623	423.4079	489.1105	550.617	631.419	712.2697	760.9602	791.3386	798.956	832.4812	872.4723	911.8048	962.9398	975.3055	1002.9552	1013.0288	1032.4612	1057.6619	1082.2586	1109.4498	1131.663	1151.8021	1167.9899	1187.8772	1221.7693	1243.6485	1271.6036	1290.2383	1322.9663	1335.9878	1368.015	1374.6691	1405.6634	1410.6524	1432.5168	1489.7538	1501.6852	1505.3051	2995.3064	3020.3822	3031.6524	3068.0654	3091.6163	3102.4063	3117.8908	3123.1317	3150.2086	3169.3755	3817.404
CC1C2CC3C(C1O)N23	C[C@H]1[C@H]2C[C@H]3[C@@H]([C@H]1O)N23	
InChI=1S/C7H11NO/c1-3-4-2-5-6(7(3)9)8(4)5/h3-7,9H,2H2,1H3	InChI=1S/C7H11NO/c1-3-4-2-5-6(7(3)9)8(4)5/h3-7,9H,2H2,1H3/t3-,4+,5-,6-,7-,8?/m0/s1
