16
gdb 14669	10.84896	0.58754	0.57668	1.711	77.23	-0.247	0.0289	0.2759	1855.0896	0.127352	-346.532644	-346.52295	-346.522005	-346.569124	32.707	
O	 0.1611505454	 0.7968953903	 1.0256850623	-0.409214
C	-0.0538378214	 0.1727717306	-0.2349983917	-0.215273
C	-1.39045709	-0.4058548702	-0.275499103	 0.140859
C	-2.4959991062	-0.8785061772	-0.3342190927	 0.02634
C	-3.8217160482	-1.480760935	-0.377427319	-0.347635
C	-3.8725220823	-2.8562706221	 0.3402226866	-0.339368
C	-5.1997119762	-3.454977733	 0.2919869284	 0.293993
C	-6.3059940995	-3.9213376169	 0.2337867077	-0.439603
H	 1.0492924941	 1.1681573572	 1.0131652198	 0.289349
H	 0.0489112041	 0.8964534659	-1.0603196075	 0.116618
H	 0.6884110943	-0.6219059592	-0.4167770148	 0.11502
H	-4.5545493735	-0.8104362873	 0.0863632719	 0.14476
H	-4.1422398581	-1.6102786426	-1.4177564348	 0.14157
H	-3.1401365299	-3.5273727089	-0.1228328379	 0.140784
H	-3.5554671741	-2.7261358278	 1.3811282525	 0.145563
H	-7.2777750584	-4.3469634438	 0.1922695624	 0.19624
16.9167	53.528	79.8175	141.3901	178.3652	229.1063	292.2026	324.5788	363.3886	454.0475	496.0431	567.0666	619.878	649.0646	763.5716	780.1931	964.2918	1007.0348	1027.2736	1033.2379	1048.157	1153.3297	1193.5788	1247.1364	1256.7916	1283.4714	1305.291	1366.0047	1460.0845	1469.7637	1480.3638	1503.3627	2239.3824	2372.8709	2960.658	2978.0893	3032.3575	3042.1794	3060.4231	3082.2907	3507.3883	3816.9999
OCC#CCCC#C	OCC#CCCC#C	
InChI=1S/C7H8O/c1-2-3-4-5-6-7-8/h1,8H,3-4,7H2	InChI=1S/C7H8O/c1-2-3-4-5-6-7-8/h1,8H,3-4,7H2
