21
gdb 122078	2.93028	0.73131	0.64238	3.5201	80.62	-0.2403	0.0261	0.2664	1806.4945	0.181366	-420.407272	-420.396429	-420.395485	-420.444535	37.76	
C	-0.7020934873	 1.2688139337	 0.0985213753	-0.382065
C	 0.2525861696	 0.0822704296	-0.0521055124	-0.183026
C	 0.5889939403	-0.5779391212	 1.284892016	-0.115955
N	 1.5343350176	-1.6768244178	 1.0901721797	-0.28799
C	 1.9066703439	-2.3848315958	 2.3082425046	-0.133347
C	 0.8518131642	-3.4103332257	 2.8013967028	-0.079923
O	 0.5658676679	-4.3664994108	 1.8009406251	-0.416059
C	 3.1719460497	-3.1127058544	 2.0855844966	 0.272744
N	 4.120921076	-3.7508550738	 1.918033358	-0.323813
H	-0.2669805182	 2.0513854777	 0.7298770196	 0.117596
H	-0.9304743833	 1.7161081488	-0.8731459662	 0.119221
H	-1.650232948	 0.9637137043	 0.554799701	 0.116873
H	-0.1957277755	-0.6679183954	-0.7173687619	 0.099361
H	 1.1866364564	 0.3994097867	-0.5288165192	 0.114837
H	 1.0641118422	 0.1582098889	 1.9472926539	 0.105133
H	-0.3494297865	-0.8862517508	 1.7810913592	 0.083883
H	 1.1519449538	-2.3580342589	 0.4393878341	 0.230012
H	 2.0814014356	-1.6470220316	 3.1015371725	 0.125413
H	 1.1883343597	-3.8758666187	 3.7386139931	 0.110926
H	-0.0847271418	-2.8821136649	 3.0013044561	 0.124695
H	 1.3374850537	-4.9376002401	 1.7048471723	 0.301486
44.129	58.005	101.7226	110.1251	131.1907	188.9374	224.3095	240.4056	293.5956	376.9955	397.1105	409.6443	455.2543	588.8483	700.0161	759.6094	763.9085	851.5831	894.2239	910.0608	921.1264	1020.5907	1042.4644	1075.046	1093.729	1139.4237	1144.3806	1185.6898	1219.4583	1254.8044	1289.9061	1311.749	1329.6179	1352.579	1386.0448	1411.3734	1416.0922	1419.88	1489.2339	1494.6445	1499.0159	1502.176	1504.6111	1520.5108	2354.1702	2930.3702	3008.0182	3016.9469	3029.9321	3033.6678	3043.1376	3068.9012	3096.8031	3099.4947	3108.8113	3505.0863	3791.4357
CCCNC(CO)C#N	CCCN[C@@H](CO)C#N	
InChI=1S/C6H12N2O/c1-2-3-8-6(4-7)5-9/h6,8-9H,2-3,5H2,1H3	InChI=1S/C6H12N2O/c1-2-3-8-6(4-7)5-9/h6,8-9H,2-3,5H2,1H3/t6-/m1/s1
