20
gdb 59608	3.46733	1.07604	0.8557	4.364	76.96	-0.2516	0.0573	0.3089	1369.3966	0.170866	-440.318831	-440.309665	-440.30872	-440.353053	33.814	
C	 0.7798516114	-0.5412669737	-1.1843263008	-0.402665
C	-0.0042493286	 0.0109038808	 0.0150743889	 0.000861
C	-0.0028084875	 1.5446675395	 0.0267060483	-0.398091
C	-1.4298705123	-0.5352672436	 0.0112046469	 0.12067
C	-1.565709169	-2.0570147656	 0.1605014518	-0.130266
O	-2.729883757	-2.2071482622	 0.9758272165	-0.251846
C	-2.9743778582	-1.0270552712	 1.6190611389	 0.485755
N	-3.8314730922	-0.8186012863	 2.5143850917	-0.575934
O	-2.1509269997	-0.0578038679	 1.159291731	-0.24406
H	 1.8035148677	-0.1560633431	-1.1797436263	 0.125708
H	 0.8394153472	-1.6346993717	-1.1750129964	 0.118519
H	 0.3173510496	-0.2370950516	-2.1306295747	 0.121014
H	 0.4687679035	-0.3449197615	 0.940619874	 0.08622
H	-0.4582949942	 1.9429020458	-0.8877526093	 0.114547
H	-0.5632946329	 1.9317808258	 0.8804008475	 0.145295
H	 1.0207801391	 1.9276970047	 0.0820969963	 0.114847
H	-1.9594146562	-0.1866819434	-0.8875228982	 0.092269
H	-1.728289594	-2.5788653924	-0.7840216607	 0.130163
H	-0.7009318687	-2.4959593206	 0.6744638028	 0.116738
H	-4.314101398	-1.6848812917	 2.7410290019	 0.230255
78.3084	87.842	152.4165	185.2691	216.3541	236.7611	306.9368	360.3011	382.6242	458.611	517.3712	677.228	720.2047	724.7612	806.5091	852.5392	894.7067	932.6241	943.8915	968.2938	987.0741	1021.6631	1054.73	1099.4683	1103.5861	1148.5872	1184.4192	1203.1463	1237.2306	1267.9284	1316.0614	1342.0686	1372.0617	1393.7928	1404.6311	1419.9109	1428.1386	1488.3462	1491.3095	1504.7951	1512.8277	1520.1397	1801.1384	2997.5638	3017.7243	3028.4274	3029.7437	3035.5317	3094.2146	3099.6214	3109.155	3116.2483	3130.8151	3536.0621
CC(C)C1COC(=N)O1	CC(C)[C@H]1CO[C]([NH])O1	
InChI=1S/C6H11NO2/c1-4(2)5-3-8-6(7)9-5/h4-5,7H,3H2,1-2H3	InChI=1S/C6H11NO2/c1-4(2)5-3-8-6(7)9-5/h4-5,7H,3H2,1-2H3/t5-/m1/s1
