18
gdb 15600	2.45629	2.25378	1.54995	3.1229	67.35	-0.2367	-0.0265	0.2102	897.1507	0.153522	-384.954483	-384.946382	-384.945438	-384.987323	29.217	
C	-0.6464511535	 1.389786943	-0.05215872	-0.42605
C	 0.0234858816	 0.0163924381	-0.031808118	 0.007124
C	 1.3007229422	-0.1032231562	-0.8830591134	-0.246106
C	 2.0105962278	-1.3273670586	-0.2820600696	-0.06835
O	 1.4546588465	-1.529445125	 1.0254425343	-0.251586
C	 0.5580415336	-0.4898736451	 1.3362202545	 0.012669
C	 1.2352728835	 0.6261940917	 2.1260445789	 0.148766
O	 2.4215167222	 0.829218411	 2.1259991402	-0.246394
H	 0.0490420973	 2.1847940167	 0.2370542469	 0.129472
H	-1.0083890671	 1.6217419609	-1.0585398845	 0.12488
H	-1.5071549374	 1.4301061432	 0.6238224606	 0.120082
H	-0.6981780588	-0.736519998	-0.3709613953	 0.089544
H	 1.084835093	-0.2217982802	-1.9476652955	 0.105579
H	 1.9144603622	 0.7950061191	-0.7615892707	 0.120598
H	 1.8306699439	-2.2372822987	-0.8678163909	 0.099887
H	 3.0918717946	-1.179218986	-0.1969279023	 0.115795
H	-0.2493280043	-0.8991969311	 1.9586482365	 0.091429
H	 0.5370621627	 1.2695964651	 2.7116464582	 0.072661
82.3776	90.7075	139.8053	240.1404	263.4815	278.3197	322.0331	465.8594	548.721	658.8811	770.8605	809.5673	836.893	882.0175	909.0441	965.4304	984.9543	995.0488	1013.6836	1094.1444	1131.982	1158.591	1165.0952	1201.0738	1235.6216	1272.341	1308.0962	1324.5505	1363.7909	1378.5106	1400.001	1416.3725	1419.51	1492.7943	1498.8793	1504.0648	1528.4772	1833.8646	2852.0235	3018.1011	3024.7301	3032.7434	3034.5094	3055.5689	3071.9641	3099.8169	3103.5061	3110.0343
CC1CCOC1C=O	C[C@H]1CCO[C@H]1C=O	
InChI=1S/C6H10O2/c1-5-2-3-8-6(5)4-7/h4-6H,2-3H2,1H3	InChI=1S/C6H10O2/c1-5-2-3-8-6(5)4-7/h4-6H,2-3H2,1H3/t5-,6-/m0/s1
