18
gdb 88127	2.6216	1.49173	1.12181	3.5509	72.55	-0.2605	0.0025	0.263	1120.1272	0.148938	-439.115587	-439.107367	-439.106422	-439.148532	30.714	
C	-0.1353052582	 1.5099245074	-0.0735124232	-0.40117
C	-0.0179351126	 0.0138105497	 0.0678701055	-0.042953
N	 1.2948018017	-0.585194339	-0.1783210974	-0.375573
C	 0.75337296	-0.6303649135	 1.1804245239	 0.18077
C	 1.4262110544	 0.0367649065	 2.3602810671	-0.337545
C	 0.773288429	-0.7017500786	 3.5447474521	-0.087559
O	 0.3141054213	-1.9732094862	 3.0350457958	-0.225859
C	 0.2419234129	-1.9490003871	 1.683647919	 0.412998
O	-0.1545440895	-2.872012209	 1.0249688946	-0.368878
H	 0.7836859119	 2.0085327472	 0.2444108759	 0.129959
H	-0.3130005331	 1.7760972844	-1.1206031237	 0.131913
H	-0.9719092231	 1.8966561251	 0.5181230325	 0.120539
H	-0.8803955178	-0.5588253617	-0.2696727586	 0.110215
H	 1.1781851859	-1.5106278775	-0.5924501414	 0.247892
H	 2.5045248298	-0.1457036548	 2.3272284645	 0.130867
H	 1.2668812195	 1.1152745327	 2.4140279027	 0.120612
H	 1.4607202489	-0.9079701728	 4.3668014325	 0.131109
H	-0.0943275111	-0.1615495729	 3.9385046582	 0.122662
89.4881	155.6586	184.2582	186.4139	216.3358	290.6992	389.4593	456.3655	503.7539	588.4922	688.3146	713.2265	740.9166	810.4157	852.0737	887.4964	958.6561	987.0198	1041.3063	1048.357	1053.0016	1095.797	1107.705	1126.9622	1183.1065	1211.6793	1240.4491	1257.1301	1281.5258	1318.7916	1363.0163	1404.241	1410.9893	1463.355	1487.5249	1494.412	1499.7023	1524.7858	1860.6788	3038.0499	3049.6269	3063.2398	3101.5187	3111.765	3116.7107	3124.1232	3134.3485	3463.2991
CC1NC11CCOC1=O	C[C@H]1N[C@]21CCOC2=O	
InChI=1S/C6H9NO2/c1-4-6(7-4)2-3-9-5(6)8/h4,7H,2-3H2,1H3	InChI=1S/C6H9NO2/c1-4-6(7-4)2-3-9-5(6)8/h4,7H,2-3H2,1H3/t4-,6+/m1/s1
