18
gdb 29705	2.36246	1.62846	0.97838	2.9158	76.56	-0.1703	0.0494	0.2196	1186.801	0.148013	-435.313709	-435.3041	-435.303155	-435.347675	34.887	
C	-0.0823390481	 1.4395628122	-0.0055958945	-0.351032
N	-0.0040488058	-0.0031648946	 0.0285211611	-0.077299
C	 0.0015572746	-0.8343372091	-1.0463128897	 0.353944
N	-0.094350043	-0.3521841667	-2.3559424969	-0.600439
N	 0.020241861	-2.1063355769	-0.6967576031	-0.416035
C	 0.0298838275	-2.0865670778	 0.6728655721	 0.268305
O	 0.0481465848	-3.2389947868	 1.388823034	-0.44788
C	 0.0318508631	-0.8166174701	 1.1774258651	 0.169787
C	 0.0673520047	-0.2965747912	 2.5704801106	-0.514287
H	 0.8992136776	 1.9116910525	 0.127026514	 0.130045
H	-0.4953892547	 1.7444714335	-0.9695185248	 0.153535
H	-0.7443752555	 1.7985688139	 0.7866894985	 0.143164
H	 0.7000187281	 0.2152397639	-2.6332021599	 0.247843
H	-0.1681368974	-1.1402697476	-2.9881194876	 0.258235
H	 0.0631136565	-3.9529812806	 0.741108934	 0.294993
H	 0.9413211379	 0.3390171575	 2.7667943533	 0.118069
H	-0.8246093322	 0.2875690168	 2.8354582391	 0.119428
H	 0.1163079709	-1.144545109	 3.2577958649	 0.149624
108.6547	136.7212	157.0027	191.1942	233.1179	247.8426	267.7009	295.1678	318.9672	338.188	356.2329	568.4263	603.2843	635.0314	665.8618	719.7742	732.8036	832.2152	882.6576	997.8407	1066.3534	1108.4899	1137.4595	1153.1082	1192.262	1239.2545	1319.5372	1361.2604	1416.1282	1445.1683	1451.1114	1480.8937	1486.9683	1498.4461	1510.1446	1547.3132	1572.1127	1649.2949	1707.3962	3000.4672	3022.0025	3037.8644	3092.6491	3121.3265	3134.8289	3508.2399	3608.4894	3813.1176
CN1C(N)=NC(O)=C1C	Cn1c(N)nc(O)c1C	
InChI=1S/C5H9N3O/c1-3-4(9)7-5(6)8(3)2/h9H,1-2H3,(H2,6,7)	InChI=1S/C5H9N3O/c1-3-4(9)7-5(6)8(3)2/h9H,1-2H3,(H2,6,7)
