16
gdb 72955	2.65281	1.52377	1.21954	4.1371	69.91	-0.2526	0.0167	0.2692	1038.4558	0.122544	-437.844706	-437.836157	-437.835213	-437.87749	31.933	
C	-0.0039437213	 1.530633087	 0.0017039228	-0.480903
C	 0.0414214846	 0.0137192469	 0.0828247179	 0.077008
C	-1.1120554759	-0.6627203172	-0.4603733492	 0.25073
N	-2.0372199577	-1.1758260872	-0.9283216284	-0.341094
C	 1.3392347895	-0.7853292454	-0.1454745436	-0.017911
O	 2.456738987	-0.0308194494	 0.2990176147	-0.279703
C	 1.9639301169	-0.0497306604	 1.6700237827	-0.16371
C	 0.6938117954	-0.7719091984	 1.2209275746	 0.272548
O	-0.0375240937	-1.6624827838	 1.9609497405	-0.429681
H	 0.9921793921	 1.9433790729	 0.171842303	 0.147416
H	-0.3328627017	 1.8451414574	-0.9920337216	 0.143839
H	-0.697273693	 1.945362715	 0.7387625455	 0.138995
H	 1.4707130136	-1.5130944016	-0.9366651968	 0.138204
H	 2.6063097466	-0.6794389286	 2.2964234941	 0.119205
H	 1.8759398955	 0.9496457857	 2.1062863246	 0.124886
H	 0.496149632	-2.4468194329	 2.1336524293	 0.30017
129.8238	147.0244	170.0838	226.3857	277.3819	282.8291	318.1646	363.1324	433.4764	485.657	546.3226	566.3382	662.7702	715.0495	738.8564	901.252	931.9964	973.1124	1006.6462	1035.6037	1043.1367	1082.2101	1109.9925	1144.6953	1210.9996	1224.3352	1282.7776	1299.7219	1325.9946	1409.1221	1455.988	1488.4053	1498.5269	1513.3411	2350.5806	3035.6914	3052.6145	3096.0165	3121.4055	3140.6883	3199.2457	3793.3615
CC1(C#N)C2OCC12O	C[C@@]1(C#N)[C@H]2OC[C@@]12O	
InChI=1S/C6H7NO2/c1-5(2-7)4-6(5,8)3-9-4/h4,8H,3H2,1H3	InChI=1S/C6H7NO2/c1-5(2-7)4-6(5,8)3-9-4/h4,8H,3H2,1H3/t4-,5-,6+/m1/s1
