20
gdb 70896	3.27547	1.49307	1.39647	1.202	77.2	-0.2259	0.0659	0.2918	1020.7556	0.172539	-403.1508	-403.143121	-403.142177	-403.182192	31.862	
C	-0.0752555274	 1.4596647639	 0.0104488442	-0.494087
C	 0.0749984618	-0.0333491472	-0.0396186971	 0.347803
C	 0.2769621085	-0.7992813232	-1.344286099	-0.301009
C	 0.2138231048	-2.2126430044	-0.7366014454	 0.359156
O	 0.3271332148	-3.238611111	-1.6809547145	-0.494855
C	 1.2675225263	-2.115372059	 0.3971679107	-0.292486
C	 0.6909949993	-0.865000453	 1.0396025375	-0.077614
N	-0.7937999913	-0.8567181719	 0.8554491589	-0.167163
C	-1.0868930614	-2.0865331654	 0.0893897961	-0.206553
H	 0.8230308204	 1.9586738669	-0.3700550515	 0.115248
H	-0.9260386088	 1.789932416	-0.596090612	 0.119538
H	-0.2462625993	 1.7928832914	 1.0376305255	 0.128386
H	-0.5189016674	-0.6267064891	-2.075596131	 0.102945
H	 1.2417482321	-0.5883722291	-1.815796392	 0.102672
H	 0.274890414	-4.0818524315	-1.2187828699	 0.279514
H	 1.25856311	-2.9884987095	 1.0599982524	 0.090646
H	 2.2817246781	-1.9736166064	 0.0119551849	 0.105748
H	 1.0662145431	-0.4487537825	 1.9677236154	 0.086421
H	-1.9749800633	-1.9506963539	-0.5350107338	 0.105313
H	-1.2558612442	-2.929052161	 0.7700661507	 0.090375
189.0547	222.6814	255.0685	264.9187	339.5971	358.2257	457.1433	462.4907	473.9133	558.429	628.5193	657.8945	696.1044	800.3023	822.2059	883.1445	927.0728	948.8329	958.8469	960.8624	1000.3811	1012.6282	1044.5809	1080.6806	1114.567	1148.4727	1151.4629	1164.8522	1192.9348	1210.6759	1231.7584	1267.5684	1274.1651	1306.4426	1338.374	1393.3092	1408.5663	1428.9087	1483.4548	1486.669	1490.5083	1494.5845	1519.6616	3029.3697	3034.1264	3040.4535	3051.5804	3089.2276	3090.0882	3094.213	3099.4329	3115.4166	3173.5362	3808.1081
CC12CC3(O)CC1N2C3	C[C@@]12C[C@@]3(O)C[C@@H]1N2C3	
InChI=1S/C7H11NO/c1-6-3-7(9)2-5(6)8(6)4-7/h5,9H,2-4H2,1H3	InChI=1S/C7H11NO/c1-6-3-7(9)2-5(6)8(6)4-7/h5,9H,2-4H2,1H3/t5-,6+,7-,8?/m0/s1
