16
gdb 28772	3.19803	1.7284	1.12991	0.9805	81.24	-0.1683	-0.002	0.1663	1018.2755	0.126717	-400.791813	-400.784648	-400.783703	-400.823155	28.396	
O	 0.0895401877	 1.3153528842	 0.2682565469	-0.438524
C	 0.0686804041	-0.0215190189	 0.0391459763	 0.340364
C	 0.0631190063	-0.7858856203	-1.1147722796	-0.291844
C	 0.0375984445	-2.1584894683	-0.7129178356	-0.298362
C	 0.0291184106	-2.1753014694	 0.6638799659	 0.352654
C	 0.0077981483	-3.0043258929	 1.8474933456	-0.206902
C	 0.0136517013	-2.2250394053	 2.9466094803	-0.118379
C	 0.0404418388	-0.7581575258	 2.5567856123	-0.238349
N	 0.0482777191	-0.8563296149	 1.1066348147	-0.068331
H	 0.1018813962	 1.7671442532	-0.5807154408	 0.307532
H	 0.0758081019	-0.4032753829	-2.1243339186	 0.085602
H	 0.0272818172	-3.015641547	-1.3679626011	 0.095203
H	-0.010038843	-4.0854239796	 1.8312793552	 0.108633
H	 0.0017007284	-2.5491616733	 3.9771564276	 0.103975
H	-0.8370668263	-0.2052909876	 2.9169584344	 0.133368
H	 0.9310619249	-0.2346594913	 2.9284860566	 0.13336
145.5743	189.5024	252.1462	272.1105	323.8711	454.995	544.6019	624.731	634.6085	647.7393	682.936	709.5875	734.2747	773.7012	785.1276	870.6332	934.7748	945.5152	994.1622	1031.1431	1054.1459	1103.4716	1165.9195	1182.9979	1247.4001	1254.1179	1291.7172	1333.8325	1354.8238	1376.2385	1488.8622	1540.6568	1579.968	1594.6662	1629.5402	3016.3032	3041.4622	3225.7987	3236.4291	3248.2683	3255.9939	3847.9859
OC1=CC=C2C=CCN12	Oc1ccc2C=CCn12	
InChI=1S/C7H7NO/c9-7-4-3-6-2-1-5-8(6)7/h1-4,9H,5H2	InChI=1S/C7H7NO/c9-7-4-3-6-2-1-5-8(6)7/h1-4,9H,5H2
