17
gdb 14533	4.49307	1.5921	1.43505	1.9876	75.01	-0.2303	0.0441	0.2745	922.0375	0.141188	-326.642416	-326.634699	-326.633755	-326.673893	29.927	
C	-0.06795794	 1.5466372936	 0.0238026798	-0.483049
C	 0.0339499615	 0.0318254459	-0.0559419398	 0.115308
C	-1.0457051079	-0.6392768937	 0.6338765907	 0.275323
C	-1.9720886838	-1.1599112844	 1.1956448333	-0.402987
C	 0.592909517	-0.7151873357	-1.2210924202	-0.050398
C	 1.7188202914	 0.0348084669	-1.9266453733	-0.270379
C	 2.4092146908	 0.0962152286	-0.5403727837	-0.1592
N	 1.319995955	-0.7197961439	 0.110551344	-0.165226
H	 0.6481972489	 2.0585391774	-0.6198742969	 0.124013
H	-1.0718449346	 1.8569784108	-0.2784641477	 0.136279
H	 0.0895785947	 1.8817728697	 1.0537811978	 0.136697
H	-2.7791108558	-1.6311083177	 1.6996505595	 0.19032
H	 0.0940957392	-1.6023200275	-1.59865676	 0.101943
H	 2.2585477307	-0.5962019353	-2.6348601188	 0.116671
H	 1.458108622	 0.9723416322	-2.4261066309	 0.107786
H	 3.3426861855	-0.4673045125	-0.4928756111	 0.118036
H	 2.5713321553	 1.0789577555	-0.0896059625	 0.108865
146.8263	159.5381	167.0465	266.3391	317.8817	367.4239	448.476	519.4202	526.208	608.9611	642.6498	647.8868	732.7557	786.0718	847.2868	849.7062	943.5315	960.6296	988.9492	1006.1928	1045.4744	1097.1147	1104.0361	1147.0645	1215.3265	1233.1306	1262.1077	1287.5248	1297.4721	1383.8568	1413.8478	1475.3802	1493.5132	1499.7763	1515.4192	2239.8319	3050.1353	3057.2636	3066.6885	3108.3852	3114.031	3125.5476	3141.6243	3162.2164	3503.6642
CC1(C#C)C2CCN12	C[C@@]1(C#C)[C@H]2CCN12	
InChI=1S/C7H9N/c1-3-7(2)6-4-5-8(6)7/h1,6H,4-5H2,2H3	InChI=1S/C7H9N/c1-3-7(2)6-4-5-8(6)7/h1,6H,4-5H2,2H3/t6-,7-,8?/m1/s1
