21
gdb 102482	2.21486	1.155	0.85093	3.2333	77.34	-0.2164	0.0179	0.2343	1434.1046	0.181983	-457.529577	-457.519121	-457.518176	-457.565631	37.189	
C	-0.5639800842	 1.4042113177	 0.4280274063	-0.318531
N	-0.4015654307	-0.042556563	 0.3378340118	-0.287422
C	-1.503869223	-0.7323177571	-0.3416391878	-0.074217
C	-1.3981915586	-0.6879610281	-1.8795837773	-0.078222
O	-0.1501471798	-1.1728540103	-2.3296705959	-0.425859
C	-1.5172821839	-2.1650526322	 0.170890629	 0.456511
N	-0.9093289123	-3.0952620777	-0.4496152539	-0.559692
O	-2.2056522643	-2.2527533763	 1.3289677284	-0.22262
C	-2.2164277888	-3.5037593228	 2.0038126752	-0.268755
H	 0.3353563214	 1.8360951149	 0.8768162447	 0.120529
H	-0.738186994	 1.9158712011	-0.5339326914	 0.099852
H	-1.4073383933	 1.6369665083	 1.0878821896	 0.120731
H	 0.441728922	-0.2623751567	-0.1859083312	 0.227527
H	-2.4441951373	-0.2673237882	-0.0256643777	 0.089856
H	-2.2403210142	-1.2419446237	-2.3240862223	 0.084964
H	-1.4757779699	 0.3519506443	-2.2148912776	 0.102802
H	-0.1054606959	-2.0840243942	-1.9915519219	 0.296471
H	-0.9562202686	-4.0020164512	 0.0091892673	 0.221057
H	-2.7951908027	-3.3500845759	 2.9148018264	 0.146427
H	-2.6960544286	-4.2816903062	 1.3973273186	 0.131491
H	-1.2006002533	-3.8216804128	 2.2664103296	 0.137102
47.4095	86.8275	115.0243	162.1349	182.9063	215.1908	222.922	256.7511	302.3502	325.1966	358.5498	397.5749	599.9529	683.1417	689.0787	739.5714	782.2912	851.7745	867.8974	917.4378	987.1933	1014.8664	1054.5619	1107.9691	1129.0878	1138.4832	1164.5533	1174.1675	1193.3339	1219.2561	1237.8437	1282.308	1326.6034	1385.6311	1406.6636	1457.8957	1473.5782	1477.2439	1488.6532	1492.8643	1496.4651	1503.1299	1504.3495	1519.3536	1716.2035	2956.7369	2979.1435	3017.0074	3055.9267	3058.7437	3070.4558	3082.1225	3103.267	3148.5267	3502.7492	3514.5382	3635.7969
CNC(CO)C(=N)OC	CN[C@@H](CO)[C]([NH])OC	
InChI=1S/C5H12N2O2/c1-7-4(3-8)5(6)9-2/h4,6-8H,3H2,1-2H3	InChI=1S/C5H12N2O2/c1-7-4(3-8)5(6)9-2/h4,6-8H,3H2,1-2H3/t4-/m0/s1
