14
gdb 51408	5.97141	0.93938	0.91642	2.2882	64.41	-0.2709	-0.0278	0.2431	1213.2519	0.100259	-473.769065	-473.761515	-473.76057	-473.801828	27.241	
O	 0.5270870535	 0.0258983238	 0.1286039227	-0.266636
C	 0.616911136	 1.1905846427	 0.3638875932	 0.179856
O	 0.6127587766	 2.1178840435	-0.6255323486	-0.215445
C	 0.816129958	 3.4833699286	-0.3567310411	 0.190367
C	 1.335108247	 3.9784402704	 1.0304129747	-0.227479
N	 2.6655828062	 3.3234787719	 0.6561521937	-0.3138
C	 2.2513243716	 4.0167950539	-0.6430647879	-0.183232
C	 1.8860915244	 5.2077455501	 0.2651175438	 0.437339
O	 2.1136052502	 6.3649886463	 0.4225311057	-0.309206
H	 0.6845273245	 1.6277516218	 1.3714826769	 0.094837
H	-0.0088660618	 4.044786358	-0.7967299872	 0.121475
H	 0.8950761897	 3.8940440638	 2.0209593792	 0.12173
H	 3.4551864718	 3.7992076625	 1.0997228377	 0.246574
H	 2.8328855222	 3.9378316526	-1.5577033129	 0.123619
65.2446	124.0455	175.9675	192.6054	318.3166	382.0892	469.5789	514.026	661.1717	737.1172	773.1107	791.1875	810.9973	862.2853	946.2469	990.4888	1023.0444	1054.498	1063.302	1113.24	1132.358	1150.7526	1176.5579	1190.6401	1208.2924	1274.5712	1278.7658	1410.8656	1430.4581	1867.7839	1916.8687	3028.7481	3114.2326	3158.5153	3169.4539	3430.968
O=COC1C2NC1C2=O	O=CO[C@H]1[C@H]2N[C@@H]1C2=O	
InChI=1S/C5H5NO3/c7-1-9-5-2-4(8)3(5)6-2/h1-3,5-6H	InChI=1S/C5H5NO3/c7-1-9-5-2-4(8)3(5)6-2/h1-3,5-6H/t2-,3+,5-
