16
gdb 128028	5.2132	0.90582	0.77543	1.6815	77.85	-0.2102	0.0093	0.2195	1429.9945	0.126352	-430.268975	-430.260631	-430.259687	-430.302728	29.791	
C	-0.0035454021	 1.659705484	-0.225861396	-0.308429
N	-0.1080772722	 0.2410296177	 0.0315395184	-0.177461
C	 0.4845069181	-0.5362960427	-0.7701146852	 0.088093
N	 0.4902384564	-1.912850292	-0.6773833303	-0.410043
C	-0.1105976968	-2.7382778126	 0.2513810662	 0.465874
N	-0.8444289468	-2.3522822896	 1.2844857081	-0.276226
N	-1.1669178395	-3.556940517	 1.8396612711	-0.175896
C	-0.629414522	-4.565773636	 1.1362367955	 0.025426
N	 0.0533822476	-4.0912905689	 0.1132089664	-0.336429
H	 0.5972360379	 1.9107170427	-1.1174381728	 0.087702
H	-1.0045733973	 2.0881837813	-0.3565888553	 0.123458
H	 0.4438709231	 2.1621843072	 0.6402247188	 0.123433
H	 1.0663405656	-0.1955858382	-1.6403363201	 0.075792
H	 1.001020668	-2.4197261237	-1.38117485	 0.263535
H	-1.7378307709	-3.5803598715	 2.6676122065	 0.283281
H	-0.754395279	-5.6066535907	 1.3936528688	 0.14789
49.2052	119.3242	130.1255	203.2355	281.6731	311.443	368.0191	384.0394	499.281	512.8221	667.1329	685.7564	770.5707	805.8653	853.3169	975.8157	983.2645	995.8337	1048.9	1095.4598	1140.6866	1147.0331	1181.9387	1224.0771	1278.7604	1330.3423	1412.5957	1446.6187	1468.1607	1478.5206	1478.8001	1504.2276	1591.7442	1606.8396	1771.3953	2951.0862	2996.141	3048.2203	3067.3228	3260.5146	3660.2747	3675.8133
CN=CNC1=NNC=N1	CN=CNc1n[nH]cn1	
InChI=1S/C4H7N5/c1-5-2-6-4-7-3-8-9-4/h2-3H,1H3,(H2,5,6,7,8,9)	InChI=1S/C4H7N5/c1-5-2-6-4-7-3-8-9-4/h2-3H,1H3,(H2,5,6,7,8,9)
