17
gdb 68841	2.81747	1.46538	1.238	2.4323	69.38	-0.2277	0.0679	0.2956	1046.7878	0.133836	-458.896664	-458.888281	-458.887336	-458.929221	32.487	
O	-0.2073610062	 1.4431072867	-0.0481334054	-0.45997
C	-0.0847694259	 0.070835948	-0.0310881107	 0.306405
C	-0.2742287737	-0.7625638879	 1.218594327	-0.398748
C	-1.179279608	-1.0217322036	 0.0497644707	 0.299042
O	-2.5434724214	-1.0184837081	 0.1871374303	-0.44853
C	-0.4577138445	-1.7922666768	-1.0264111156	 0.373192
C	-0.5650156864	-3.1969018934	-1.4136023361	-0.274437
O	-1.1999544111	-2.155754502	-2.1862408556	-0.289705
C	 0.6674587606	-0.7429429122	-1.1031307028	-0.388972
H	 0.4539561724	 1.8220372028	 0.5415060146	 0.288505
H	 0.4643484044	-1.4873181108	 1.559119393	 0.103734
H	-0.784540148	-0.2227705988	 2.0120515112	 0.126589
H	-2.9084849039	-1.0517075227	-0.7071635317	 0.297575
H	 0.2674600913	-3.6913078477	-1.9115415488	 0.119787
H	-1.2458776731	-3.8551281255	-0.8760675829	 0.121668
H	 0.6623780095	-0.2459933498	-2.0762799025	 0.127498
H	 1.6820430037	-1.0762309384	-0.8593588746	 0.096366
108.5372	167.8928	198.6294	242.7436	256.0289	376.3341	391.5997	396.1559	426.8942	493.3771	520.7718	606.3556	666.9587	743.2486	786.1522	828.1082	842.839	905.9071	944.3744	984.2765	1031.5518	1061.5718	1096.2602	1119.7898	1130.275	1160.0887	1183.1395	1193.5823	1217.2857	1285.3516	1351.113	1372.6623	1426.8242	1445.4629	1475.4184	1517.6278	1544.5824	3042.0124	3085.6198	3086.4738	3113.6712	3174.1569	3188.9225	3767.6295	3789.1555
OC12CC1(O)C1(CO1)C2	O[C@@]12C[C@]1(O)[C@]1(CO1)C2	
InChI=1S/C6H8O3/c7-4-1-5(3-9-5)6(4,8)2-4/h7-8H,1-3H2	InChI=1S/C6H8O3/c7-4-1-5(3-9-5)6(4,8)2-4/h7-8H,1-3H2/t4-,5+,6+/m0/s1
