21
gdb 109913	2.20679	1.49512	1.06488	2.9746	79.02	-0.2512	0.0036	0.2547	1197.6966	0.183346	-424.231015	-424.221884	-424.22094	-424.264786	35.284	
C	-0.3130223499	 1.5523332184	-0.1525919179	-0.393186
C	-0.0157678414	 0.0447234246	-0.0375786041	-0.060899
C	 0.895483074	-0.423291746	-1.1487834446	-0.054341
C	 2.0652067561	-0.8905391676	-0.714512626	-0.120634
C	 2.1815042114	-0.8219043929	 0.7836758692	 0.070601
O	 3.2121624333	 0.0886145716	 1.2099158283	-0.440967
C	 0.7389404	-0.4383115294	 1.2471543381	-0.056614
C	 0.7358853755	 0.5141720027	 2.4490783587	-0.07892
O	 1.5094666366	 0.0094621948	 3.5224152533	-0.431003
H	 0.6026240992	 2.151931818	-0.1193549456	 0.108636
H	-0.8084694269	 1.7675652073	-1.105336574	 0.113933
H	-0.9739596508	 1.8968733036	 0.6483393576	 0.123721
H	-0.9806794743	-0.4747840142	-0.1025363094	 0.084881
H	 0.6046522377	-0.3459877799	-2.192443936	 0.098094
H	 2.8774126382	-1.2489905536	-1.3372632248	 0.099376
H	 2.489649554	-1.7731608992	 1.2272102646	 0.098766
H	 3.1226036063	 0.8944939271	 0.6891132453	 0.279852
H	 0.26675557	-1.3693612643	 1.5776952782	 0.087485
H	 1.0880347216	 1.5123515599	 2.151274218	 0.075846
H	-0.2850266695	 0.6364191306	 2.8269945655	 0.104238
H	 2.4227791188	 0.0400127786	 3.2092752555	 0.291136
55.6188	148.8814	195.1417	205.2966	260.0753	271.5953	321.8337	359.2407	396.7806	438.2704	534.0336	580.3253	586.3794	712.8369	739.2963	771.3024	813.2049	855.1476	941.3206	961.5302	987.7725	995.7323	1035.3206	1061.7507	1076.298	1091.5174	1127.5596	1137.4396	1145.1389	1209.8879	1254.7895	1262.4377	1304.1133	1329.2182	1338.4021	1353.9365	1372.2345	1406.7689	1410.2247	1432.922	1439.2159	1494.934	1499.1386	1508.5021	1683.6268	2992.3046	3012.3838	3032.5879	3046.3842	3065.7476	3073.0246	3097.2356	3108.8616	3171.1297	3202.6843	3768.0298	3802.3749
CC1C=CC(O)C1CO	C[C@H]1C=C[C@@H](O)[C@H]1CO	
InChI=1S/C7H12O2/c1-5-2-3-7(9)6(5)4-8/h2-3,5-9H,4H2,1H3	InChI=1S/C7H12O2/c1-5-2-3-7(9)6(5)4-8/h2-3,5-9H,4H2,1H3/t5-,6-,7+/m0/s1
