17
gdb 27408	2.31711	1.61581	0.9576	4.5083	88.98	-0.2311	-0.0748	0.1563	1195.6127	0.137576	-384.744243	-384.736305	-384.735361	-384.777062	29.954	
C	-0.0501508836	 1.53574512	 0.0540104646	-0.478963
C	-0.0636677088	 0.0222410501	-0.0110510875	 0.255859
C	-0.2403580603	-0.5760655905	-1.2197100407	-0.222383
C	-0.304106959	-1.9838402773	-1.6337521265	 0.322299
O	-0.4770389618	-2.2474022848	-2.8219256501	-0.372364
C	-0.1674523069	-3.0871566333	-0.6726308762	-0.157773
C	 0.0267700501	-3.0699886963	 0.667198301	-0.082217
C	 0.1578783404	-1.9539520611	 1.5542869591	-0.084845
C	 0.1187276467	-0.62950288	 1.2610555612	-0.123284
H	 0.8999044437	 1.8979234372	 0.4641251754	 0.137493
H	-0.1921915064	 1.9851858945	-0.930066357	 0.135448
H	-0.8418841078	 1.9026581748	 0.7177091221	 0.137467
H	-0.3635752189	 0.0754021601	-2.0819284809	 0.106249
H	-0.2409646492	-4.0541628005	-1.1637846125	 0.116354
H	 0.0946942005	-4.0416276326	 1.1518893218	 0.107885
H	 0.3085165533	-2.2122351973	 2.5993062159	 0.105132
H	 0.242200368	 0.0491148368	 2.1022882303	 0.097643
64.3994	138.9703	188.0951	272.0346	308.3194	371.1686	429.0657	435.2702	493.0224	590.2096	620.6459	661.8215	810.2019	816.3903	843.396	892.6277	940.9338	954.4091	1019.1134	1022.6554	1048.1029	1055.4544	1070.6282	1144.3395	1244.5061	1285.3346	1323.4009	1368.2027	1410.543	1440.6627	1480.5831	1485.7861	1504.5106	1584.3215	1653.3855	1671.0437	1704.8694	3029.3525	3081.3112	3134.5912	3140.8261	3148.385	3160.7094	3168.5477	3176.6199
CC1=CC(=O)C=CC=C1	Cc1cc(=O)cccc1	
InChI=1S/C8H8O/c1-7-4-2-3-5-8(9)6-7/h2-6H,1H3	InChI=1S/C8H8O/c1-7-4-2-3-5-8(9)6-7/h2-6H,1H3
