22
gdb 120380	3.00976	0.9723	0.79787	1.6133	82.87	-0.2432	0.0248	0.268	1513.6781	0.194345	-404.377423	-404.367706	-404.366762	-404.413504	35.269	
C	-0.1929128886	 1.5362271824	 0.0704913484	-0.384104
C	 0.0086681629	 0.0192682406	 0.0378361733	-0.165389
C	 0.6247570199	-0.4716907008	-1.2771027273	-0.168394
C	 0.8058296091	-1.9948155581	-1.3111314368	-0.013603
N	-0.5080181091	-2.6751442958	-1.2646444015	-0.270534
C	-0.5562576552	-3.4203419662	-2.2865722706	 0.116072
O	 0.4907419591	-3.4822929179	-3.137325861	-0.233795
C	 1.5087410478	-2.5983433821	-2.5774417199	 0.092685
C	 1.9801675218	-1.6510715919	-3.668830107	-0.402549
H	 0.7561019332	 2.0689472955	-0.0605313161	 0.108551
H	-0.8671349134	 1.863737956	-0.7289032743	 0.113405
H	-0.6263555794	 1.8592819591	 1.0221775985	 0.111694
H	 0.6559438403	-0.283219438	 0.8721850666	 0.089635
H	-0.9468114315	-0.4922828195	 0.1913523433	 0.125074
H	-0.0111737092	-0.1622223416	-2.1160130456	 0.097302
H	 1.599554317	 0.0110188839	-1.4253202872	 0.089587
H	 1.3673975982	-2.2847161768	-0.4143526022	 0.083958
H	-1.3973635051	-4.0453867028	-2.5681128416	 0.137066
H	 2.3389187414	-3.2454115875	-2.274144589	 0.092522
H	 1.169915591	-1.0065102907	-4.0188240546	 0.129425
H	 2.7941801336	-1.0181136807	-3.3034415588	 0.123641
H	 2.3537472163	-2.224613417	-4.5214986765	 0.127751
20.3879	89.3534	101.972	135.2973	240.0353	251.4702	274.0502	308.0959	353.1396	410.4858	492.6811	588.9135	717.4212	750.9771	811.9273	837.484	858.9562	906.4826	920.4963	956.8787	968.0467	1027.2199	1054.6521	1070.0825	1086.0983	1125.3038	1138.9144	1163.7447	1171.5072	1255.546	1285.776	1308.1572	1321.1912	1330.467	1355.4008	1371.4699	1385.5358	1399.5478	1412.9561	1414.0925	1474.821	1488.3607	1494.2429	1498.7472	1500.7805	1511.1597	1710.1287	3013.323	3015.6679	3021.0747	3027.1849	3044.451	3048.6385	3057.2381	3076.2321	3098.5774	3100.9454	3118.6489	3128.6267	3206.433
CCCC1N=COC1C	CCC[C@H]1N=CO[C@H]1C	
InChI=1S/C7H13NO/c1-3-4-7-6(2)9-5-8-7/h5-7H,3-4H2,1-2H3	InChI=1S/C7H13NO/c1-3-4-7-6(2)9-5-8-7/h5-7H,3-4H2,1-2H3/t6-,7+/m0/s1
