12
gdb 16262	3.40244	1.9985	1.43187	4.7917	61.53	-0.2683	-0.0476	0.2207	824.11	0.083885	-377.497827	-377.491175	-377.490231	-377.528842	24.362	
O	-0.047703343	 0.0103491084	-0.0190539222	-0.270127
C	-0.0373714566	 1.1965761179	 0.0569377387	 0.394342
C	-1.1345949993	 2.2928404156	 0.1586654065	-0.337239
C	-0.0250097992	 3.3288425942	-0.0661962442	-0.105398
N	 0.8922030579	 3.1783179734	 1.0551010557	-0.343769
C	 1.0502389299	 2.2607342033	-0.1365760685	 0.115269
C	 2.2589407211	 2.2069583778	-0.8824265231	 0.178294
N	 3.2379835724	 2.1465283883	-1.4969280987	-0.333991
H	-1.833928597	 2.1928711077	-0.6758533498	 0.149679
H	-1.6759710415	 2.3734674227	 1.1024368998	 0.151064
H	-0.0704420733	 4.2283428572	-0.6652567513	 0.140505
H	 1.6341157385	 3.8755436734	 0.9740316371	 0.261372
118.2012	149.8391	199.3349	382.2974	421.022	517.0164	530.0533	589.4657	635.0671	661.8031	801.1223	832.4812	896.4806	957.3782	986.0227	1023.9159	1049.1595	1105.0807	1164.5969	1209.246	1265.3179	1330.1701	1380.3637	1443.023	1917.4601	2347.3553	3077.7569	3142.5314	3219.9307	3467.8794
O=C1CC2NC12C#N	O=C1C[C@H]2N[C@@]12C#N	
InChI=1S/C5H4N2O/c6-2-5-3(7-5)1-4(5)8/h3,7H,1H2	InChI=1S/C5H4N2O/c6-2-5-3(7-5)1-4(5)8/h3,7H,1H2/t3-,5-/m1/s1
