17
gdb 63102	2.69382	1.42196	1.23796	2.8692	68.91	-0.2412	-0.0262	0.215	1060.7145	0.133868	-458.959514	-458.950971	-458.950026	-458.99255	32.052	
C	 0.0580408122	 1.6036629031	-0.1253688674	-0.458472
C	 0.0411114947	 0.1005509457	 0.0047629529	 0.338441
O	-1.1701618167	-0.5065215476	-0.3629183365	-0.453809
C	 1.2597788143	-0.752184911	-0.1776018678	 0.012528
O	 2.5101629205	-0.0978684693	-0.1835110427	-0.260062
C	 2.875595509	 0.2898906518	 1.1336019888	-0.190207
C	 1.6742704583	 0.0088783563	 2.0488459752	 0.367988
O	 1.6386774275	 0.216561163	 3.2340767194	-0.313127
C	 0.6375117087	-0.6544322899	 1.2000371597	-0.240544
H	 1.032428249	 2.0282016206	 0.1210541512	 0.13702
H	-0.1670202996	 1.888137287	-1.1605389139	 0.116212
H	-0.699329537	 2.0524137266	 0.5234250804	 0.139616
H	-1.3075129562	-0.3408107381	-1.303166727	 0.287413
H	 1.2213450575	-1.6506559556	-0.7848960823	 0.11314
H	 3.7379136872	-0.2939353787	 1.4844292015	 0.136596
H	 3.1520972536	 1.3501892966	 1.158857628	 0.136302
H	 0.0128253672	-1.4187643705	 1.6431779604	 0.130965
104.539	135.1441	161.6867	203.871	248.5201	283.4485	381.7509	406.9251	469.6466	491.7297	556.3892	607.2435	684.6005	733.4964	850.0964	863.0158	893.5605	967.8504	993.8522	997.0601	1040.1668	1054.0433	1078.9559	1113.1873	1177.2955	1190.38	1212.8959	1263.5968	1288.8088	1307.204	1339.2528	1414.3742	1418.6981	1480.055	1487.1442	1498.0343	1841.982	3014.3603	3034.2945	3064.0083	3101.2724	3144.2476	3166.1629	3209.1961	3787.0503
CC1(O)C2OCC(=O)C12	C[C@@]1(O)[C@H]2OCC(=O)[C@@H]12	
InChI=1S/C6H8O3/c1-6(8)4-3(7)2-9-5(4)6/h4-5,8H,2H2,1H3	InChI=1S/C6H8O3/c1-6(8)4-3(7)2-9-5(4)6/h4-5,8H,2H2,1H3/t4-,5+,6+/m1/s1
