19
gdb 7951	3.37205	1.7261	1.30596	3.3554	72.51	-0.2519	0.0348	0.2867	989.2033	0.166203	-365.099741	-365.091678	-365.090734	-365.131931	30.738	
C	-0.7042145033	 1.3135921224	 0.0169993081	-0.418399
C	 0.1403978491	 0.0441386109	-0.0521759955	 0.009111
C	 1.3044727812	 0.0728051695	-1.054215474	-0.311787
C	 2.2502287814	-0.9726594164	-0.5084977072	 0.407057
N	 3.1718529935	-1.5503812486	-1.1496567598	-0.545637
O	 1.9503305722	-1.2115968025	 0.8047755898	-0.245933
C	 0.8677632988	-0.3635571935	 1.2536426657	 0.106901
C	 1.4352499109	 0.7769757953	 2.0926788431	-0.397973
H	-0.0940325699	 2.1928481156	 0.2458776367	 0.122231
H	-1.2013334628	 1.4956476733	-0.9408149605	 0.123546
H	-1.4833572916	 1.2345440381	 0.7827123071	 0.118675
H	-0.5121406669	-0.7952925968	-0.3222499601	 0.089252
H	 1.0220647232	-0.1506509082	-2.083519981	 0.134045
H	 1.8041982743	 1.0495468161	-1.0558404898	 0.125265
H	 3.6685701571	-2.2059454453	-0.5431792026	 0.218132
H	 0.2289277552	-0.9923474914	 1.8820575275	 0.08892
H	 2.0569059303	 1.4491717924	 1.492844932	 0.123471
H	 0.631422121	 1.3639912929	 2.5467144121	 0.121452
H	 2.0558858262	 0.3683509163	 2.8943805486	 0.13167
103.5758	125.7741	234.0795	246.8563	266.4728	292.8853	397.8036	473.8783	483.833	520.3683	616.2904	685.0826	777.3001	845.9555	895.6507	905.3458	928.9946	950.6509	1004.6737	1037.3312	1078.1018	1087.7166	1116.977	1135.805	1187.0931	1201.0277	1269.0625	1295.3705	1335.6553	1367.6947	1383.3347	1392.2412	1412.2683	1418.3537	1475.213	1485.9065	1493.0557	1503.1302	1505.0086	1777.5032	3023.4468	3034.962	3040.4244	3044.0535	3057.214	3100.9296	3108.9367	3115.1857	3122.8183	3127.5018	3465.8799
CC1CC(=N)OC1C	C[C@H]1C[C]([NH])O[C@H]1C	
InChI=1S/C6H11NO/c1-4-3-6(7)8-5(4)2/h4-5,7H,3H2,1-2H3	InChI=1S/C6H11NO/c1-4-3-6(7)8-5(4)2/h4-5,7H,3H2,1-2H3/t4-,5-/m0/s1
