17
gdb 125307	3.17045	1.59732	1.07628	1.9682	81.88	-0.2028	0.0047	0.2075	1087.9219	0.13886	-380.907517	-380.90017	-380.899226	-380.939027	28.954	
C	-0.0217324065	 1.5407794964	-0.0105559929	-0.504061
C	-0.0078311908	 0.0448256474	 0.009698165	 0.190849
C	-0.0246280045	-0.7898899657	-1.0527274131	-0.184164
C	-0.0021749884	-2.2598804694	-0.6548400208	-0.411476
C	 0.0310654172	-2.1413693457	 0.8418130297	 0.328426
N	 0.0619884424	-2.9684545761	 1.8709209311	-0.329969
N	 0.0792310282	-2.1229596402	 2.9346113184	-0.186644
C	 0.0589373878	-0.7978359062	 2.5957737224	-0.238933
C	 0.027359612	-0.777904934	 1.2194116823	 0.20461
H	 0.8670226569	 1.9514217503	 0.4841405658	 0.127524
H	-0.0502997656	 1.9258740423	-1.0331839183	 0.12481
H	-0.8922787741	 1.935676333	 0.5274156243	 0.127475
H	-0.0513548577	-0.4703460718	-2.0877559798	 0.08945
H	-0.8847599298	-2.799963403	-1.0207731673	 0.130735
H	 0.8723854047	-2.7839939258	-1.0610550502	 0.130733
H	 0.1042773424	-2.5143994945	 3.8603906757	 0.270565
H	 0.0692954458	-0.0294611672	 3.3522982379	 0.130069
168.2264	181.4577	242.0516	242.6097	285.9714	446.4054	506.8743	532.6677	579.7162	647.7348	661.357	728.6935	763.8468	765.7617	776.9198	943.0162	952.4146	972.7189	1014.3868	1048.0124	1066.5899	1076.4266	1137.705	1156.2151	1196.9345	1269.2314	1285.4579	1341.3857	1413.2251	1422.2283	1450.0862	1463.7419	1478.7843	1489.3951	1524.2863	1632.0625	1652.888	3021.8605	3028.9863	3055.837	3069.538	3113.8002	3203.9153	3260.6808	3680.2503
CC1=CCC2=NNC=C12	CC1=CCc2n[nH]cc12	
InChI=1S/C7H8N2/c1-5-2-3-7-6(5)4-8-9-7/h2,4H,3H2,1H3,(H,8,9)	InChI=1S/C7H8N2/c1-5-2-3-7-6(5)4-8-9-7/h2,4H,3H2,1H3,(H,8,9)
