23
gdb 112908	2.52266	1.17495	1.02576	2.432	81.09	-0.2468	0.0616	0.3084	1315.0881	0.206618	-425.445494	-425.436053	-425.435108	-425.479679	36.756	
C	-0.0509430403	 1.4938588912	-0.0733024402	-0.388418
C	-0.0598587575	-0.0352867991	 0.0181487932	-0.180011
C	 0.7424004845	-0.5834600944	 1.2007968386	 0.023029
C	 0.19773072	-0.1965134269	 2.6094227657	-0.227583
C	 0.2834924822	-1.4695880569	 3.479201842	 0.098519
O	-1.0472689192	-2.021779648	 3.5371823191	-0.43581
C	 1.2272749082	-2.4028775563	 2.7021673133	-0.268015
C	 0.8455709241	-2.1319032608	 1.2367855993	 0.120292
O	-0.3626084626	-2.786456931	 0.8785137135	-0.447089
H	 0.9696434807	 1.8806408872	-0.1764533258	 0.1086
H	-0.6255335401	 1.8405889702	-0.9380024672	 0.111192
H	-0.4885741585	 1.9548711088	 0.8188008206	 0.114632
H	-1.089121738	-0.4036732814	 0.0867294773	 0.102439
H	 0.3460751775	-0.4574801398	-0.9098314765	 0.093495
H	 1.7715527696	-0.2060588155	 1.1194071993	 0.062651
H	 0.7745246363	 0.6177957816	 3.054914979	 0.100965
H	-0.8456663813	 0.1305561614	 2.5741647348	 0.11659
H	 0.6296905136	-1.2593140443	 4.4985811896	 0.067706
H	-1.0027393444	-2.8453081928	 4.035563886	 0.286057
H	 2.2683637694	-2.1094546157	 2.8835994379	 0.098645
H	 1.118443839	-3.4560155313	 2.9813306387	 0.091145
H	 1.5986164607	-2.495212203	 0.5305203919	 0.07037
H	-0.9874091539	-2.6237108532	 1.6001633902	 0.280603
63.8445	98.5666	172.7829	205.1198	230.18	304.3424	341.1348	379.4308	398.3132	405.3049	442.5555	501.8883	621.368	695.2687	776.2014	784.1523	811.0373	831.8124	861.3348	933.5448	945.7578	970.5126	984.4979	1003.2143	1013.3645	1062.6781	1077.6108	1120.2045	1163.6902	1188.1966	1201.3218	1238.8324	1252.3736	1270.9553	1290.8411	1304.2061	1335.7148	1342.6508	1353.5824	1376.5611	1389.0015	1410.0187	1413.3653	1465.5443	1476.3386	1482.1047	1489.502	1501.4647	1507.7405	2997.5546	3018.3002	3026.9302	3028.466	3036.8261	3059.5491	3064.3285	3068.1729	3085.2176	3095.1428	3099.6992	3104.0066	3715.7598	3804.9476
CCC1CC(O)CC1O	CC[C@H]1C[C@@H](O)C[C@H]1O	
InChI=1S/C7H14O2/c1-2-5-3-6(8)4-7(5)9/h5-9H,2-4H2,1H3	InChI=1S/C7H14O2/c1-2-5-3-6(8)4-7(5)9/h5-9H,2-4H2,1H3/t5-,6+,7+/m0/s1
