20
gdb 117260	4.1253	0.85956	0.77878	2.3002	76.26	-0.2276	0.0106	0.2383	1537.7663	0.170723	-440.299162	-440.289531	-440.288587	-440.335247	33.738	
C	 0.1256595913	 1.4042798286	 0.0181714008	-0.39105
C	 0.1198321008	-0.1118486837	 0.0303137455	-0.043728
O	 0.6943040436	-0.5610632836	-1.2152700037	-0.244654
C	 0.761084029	-1.8915163243	-1.3900055443	 0.435595
O	 0.3712837172	-2.7027199506	-0.5842728605	-0.369895
C	 1.3899069206	-2.2353742328	-2.7288708995	-0.087661
C	 2.9468242069	-2.1605993905	-2.7174743772	-0.237383
C	 2.9073828515	-3.7049495694	-2.6086666673	-0.149728
N	 1.4713657279	-3.6810224776	-2.9970067764	-0.307639
H	 1.144581444	 1.7905056215	-0.0745432986	 0.130192
H	-0.4657411542	 1.7901332091	-0.816854956	 0.131484
H	-0.3038930056	 1.7843328226	 0.9497981083	 0.124487
H	 0.7089521769	-0.5188517969	 0.8582565828	 0.122121
H	-0.8922900778	-0.5188509035	 0.1181712078	 0.124518
H	 0.8875760994	-1.6479664577	-3.5057237947	 0.096565
H	 3.3487355953	-1.7996624058	-3.6650297334	 0.118073
H	 3.4070630732	-1.6078831033	-1.8978796225	 0.111974
H	 3.5455504492	-4.2680189637	-3.2968338276	 0.103326
H	 3.0895260486	-4.0604160997	-1.5868868936	 0.105035
H	 0.8695007021	-4.2159944986	-2.3772110198	 0.228367
33.1515	68.5188	97.2403	117.9946	155.1076	236.2987	274.5878	305.6141	355.9199	437.7087	656.435	696.8422	753.1118	779.4642	807.8016	877.1612	888.6124	918.8769	947.4966	1001.3464	1030.5435	1047.0643	1096.5949	1104.5006	1135.3552	1169.1685	1182.3856	1205.5477	1226.8181	1236.9409	1265.6607	1291.0645	1326.0495	1343.1277	1396.4176	1417.7721	1429.1394	1485.6854	1486.3982	1495.9341	1519.4751	1520.3298	1803.7897	3021.4629	3041.2252	3046.8686	3052.122	3070.8805	3087.1125	3090.3846	3121.2151	3127.1221	3142.1757	3513.0772
CCOC(=O)C1CCN1	CCOC(=O)[C@H]1CCN1	
InChI=1S/C6H11NO2/c1-2-9-6(8)5-3-4-7-5/h5,7H,2-4H2,1H3	InChI=1S/C6H11NO2/c1-2-9-6(8)5-3-4-7-5/h5,7H,2-4H2,1H3/t5-/m1/s1
