21
gdb 93640	2.1053	1.50265	1.2439	1.1574	82.98	-0.248	0.0436	0.2917	1150.1684	0.181639	-387.067853	-387.058346	-387.057402	-387.101967	36.081	
C	 0.8708917314	 1.2822509779	-0.4440788579	-0.408848
C	 0.0420726151	 0.1339410653	 0.1360506972	 0.107159
O	-0.1488328492	-0.9140008246	-0.8143767951	-0.259868
C	 0.9657114058	-1.7917461413	-0.7567701848	-0.090089
C	 1.5977555504	-1.6481605571	 0.6687070679	-0.224519
C	 3.0076719392	-1.2829806695	 0.6161701383	 0.363939
C	 4.1757633741	-1.0003774041	 0.5589589666	-0.5048
C	 0.6605345919	-0.5923973579	 1.3488445075	 0.01696
C	 1.2933162185	 0.2821933584	 2.4265647238	-0.42128
H	 1.8989139972	 0.9750316306	-0.6576285834	 0.131072
H	 0.4120627916	 1.6260744276	-1.3752555464	 0.122303
H	 0.908668139	 2.1268422138	 0.2510401256	 0.114616
H	-0.9602604871	 0.5043916332	 0.3790094236	 0.079695
H	 0.6013116425	-2.8061056692	-0.9446012501	 0.108617
H	 1.7079800774	-1.5450650058	-1.5263886223	 0.106995
H	 1.5175580442	-2.5963930212	 1.2098810966	 0.109022
H	 5.2070686717	-0.7520649587	 0.5103220074	 0.197736
H	-0.1550545485	-1.1671567858	 1.8015976578	 0.08474
H	 2.1490165007	 0.8429743525	 2.043907795	 0.135172
H	 0.5610293039	 0.9953627498	 2.8198477471	 0.11281
H	 1.6464311001	-0.3258597536	 3.2652633057	 0.118567
56.7459	131.6083	159.4169	209.0388	226.9219	244.2357	275.0282	325.2878	405.4438	469.6289	474.1508	560.0241	619.482	632.1961	673.6256	695.6091	774.9073	814.1792	875.9134	952.2357	971.2777	997.0604	1036.5021	1049.138	1066.4849	1112.0822	1139.9351	1151.0444	1178.5572	1232.3173	1245.0513	1308.258	1324.0916	1355.3083	1369.5048	1379.825	1392.3105	1410.2149	1416.5655	1487.9235	1493.4862	1500.1158	1506.3129	1526.6023	2228.1763	3020.5686	3031.4636	3038.8612	3041.6197	3044.5748	3054.207	3080.2374	3100.3164	3113.6166	3120.2067	3127.878	3502.96
CC1OCC(C#C)C1C	C[C@H]1OC[C@@H](C#C)[C@H]1C	
InChI=1S/C8H12O/c1-4-8-5-9-7(3)6(8)2/h1,6-8H,5H2,2-3H3	InChI=1S/C8H12O/c1-4-8-5-9-7(3)6(8)2/h1,6-8H,5H2,2-3H3/t6-,7+,8+/m0/s1
