17
gdb 69670	3.5732	1.47008	1.21807	1.3996	74.95	-0.2222	0.0037	0.2259	1025.121	0.136093	-421.759334	-421.751971	-421.751026	-421.790834	29.358	
O	-0.2857232708	 1.4482455251	-0.0124407991	-0.460069
C	-0.0239306813	 0.0948138462	 0.0566368302	 0.33752
C	-0.1506738094	-0.808355046	-1.1301791428	-0.327558
C	-1.0686867641	-1.0475678742	 0.0689665786	-0.231995
C	-0.2105500362	-1.7713490284	 1.068393269	 0.271154
C	 0.4556377346	-2.8715776319	 1.395084351	-0.265615
C	 1.8437804789	-2.4157047419	 1.8534468216	-0.109459
O	 1.9800548348	-1.0532447317	 1.3929586296	-0.283713
C	 0.6545102289	-0.5704715571	 1.2829025637	 0.02116
H	 0.3925734157	 1.8613497259	-0.5582521818	 0.291059
H	-0.6447333818	-0.3392289924	-1.9764408876	 0.118082
H	 0.6121444892	-1.5384993248	-1.3816465728	 0.122906
H	-2.1459529567	-0.9989431344	-0.0132479942	 0.109697
H	 0.1855398469	-3.9127071678	 1.2752252253	 0.106031
H	 1.9761246873	-2.4600371087	 2.9474366714	 0.101828
H	 2.642001134	-3.014381166	 1.3983664529	 0.113989
H	 0.36725444	 0.0283483979	 2.163573755	 0.084985
145.0315	194.7334	241.08	265.2168	298.0541	390.2848	499.2462	509.8235	616.3705	663.6316	715.5798	778.9359	794.914	832.7706	883.5686	910.5182	944.0837	970.2109	980.2328	985.7468	1023.3907	1042.2052	1078.4978	1088.3817	1127.3419	1181.6499	1198.2539	1217.6221	1230.6284	1266.294	1312.4169	1335.266	1366.3627	1402.9153	1481.7758	1511.0403	1728.7762	2962.4723	2967.7625	3047.6325	3117.5581	3205.6947	3212.6424	3216.912	3794.5358
OC12CC1C1=CCOC21	O[C@]12C[C@H]1[C]1[CH]CO[C@@H]21	
InChI=1S/C7H8O2/c8-7-3-5(7)4-1-2-9-6(4)7/h1,5-6,8H,2-3H2	InChI=1S/C7H8O2/c8-7-3-5(7)4-1-2-9-6(4)7/h1,5-6,8H,2-3H2/t5-,6+,7+/m0/s1
