15
gdb 130937	6.52927	0.69426	0.66145	2.2995	69.43	-0.2657	-0.0493	0.2164	1590.2559	0.110974	-453.932547	-453.924144	-453.9232	-453.967578	28.633	
O	-0.2708511783	 0.0215529702	 0.0934294742	-0.224894
C	-0.0946458671	 1.2076747019	 0.0095511583	 0.156254
C	 1.261884011	 1.8787197492	-0.032143984	-0.274443
C	 1.3931150811	 2.810594634	-1.257958078	-0.333103
C	 2.6524530824	 3.6058448439	-1.240749264	 0.42388
C	 3.7334029097	 3.6656707837	-2.0664102477	-0.210401
N	 4.5988202145	 4.5897116535	-1.5315174064	-0.101629
N	 4.1367509601	 5.0779586279	-0.4737616505	-0.006157
O	 2.8510779589	 4.4605179659	-0.2376668713	-0.221759
H	-0.9560265663	 1.9152497612	-0.0426320838	 0.078364
H	 1.3651489425	 2.4820756135	 0.8793799616	 0.148881
H	 2.0397617032	 1.1113573156	-0.0266400453	 0.137344
H	 1.3639489333	 2.2258121658	-2.1818535504	 0.141168
H	 0.538662007	 3.4987636425	-1.2851175894	 0.142558
H	 3.950674358	 3.1345669412	-2.9769901234	 0.143938
44.2792	63.9835	72.4372	120.9569	275.2683	303.8367	350.7396	512.1474	611.3563	670.8322	700.7656	745.3717	779.6997	825.8984	854.3123	986.8172	992.2399	1050.552	1069.1738	1084.9847	1123.8163	1190.5782	1247.0913	1268.4347	1295.8091	1362.7865	1387.8377	1428.9039	1462.2105	1465.9788	1484.6775	1608.7108	1842.0458	2853.6232	3032.3436	3037.6186	3093.0461	3118.2519	3292.6338
O=CCCC1=CN=NO1	O=CCCc1cnno1	
InChI=1S/C5H6N2O2/c8-3-1-2-5-4-6-7-9-5/h3-4H,1-2H2	InChI=1S/C5H6N2O2/c8-3-1-2-5-4-6-7-9-5/h3-4H,1-2H2
