22
gdb 78607	3.04292	1.41807	1.16976	1.2801	87.23	-0.2022	0.089	0.2912	1165.7858	0.192594	-367.120418	-367.111344	-367.110399	-367.153535	35.24	
C	 0.0420036615	 1.5674258521	 0.1120912461	-0.41934
C	 0.0704761193	 0.0459557866	 0.071602831	-0.048066
C	 1.2586463897	-0.6684824211	-0.5907172531	-0.055838
C	 2.1834848328	-0.5108081561	 0.655056955	-0.075422
N	 2.5630290277	-1.9536609213	 0.5883287162	-0.110066
C	 3.0259929188	-2.6115550044	 1.8037157737	-0.333087
C	 1.0986464023	-1.9370274472	 0.2979508082	-0.074936
C	 0.7216290643	-0.725160571	 1.2504785226	 0.328032
C	 0.213521581	-0.6971652534	 2.6704601989	-0.532804
H	 1.0112448291	 1.9826958899	 0.4093584903	 0.112461
H	-0.2094599783	 1.9848921512	-0.8692754004	 0.11554
H	-0.7080756498	 1.9317561934	 0.8232478865	 0.113456
H	-0.909417947	-0.3522692968	-0.2239233997	 0.058236
H	 1.5978671195	-0.6683835786	-1.6263160912	 0.07449
H	 2.9050711557	 0.2789934358	 0.8728108359	 0.074124
H	 2.4432657105	-2.4012216401	 2.7124630143	 0.097673
H	 3.0187648145	-3.695370012	 1.643230485	 0.117208
H	 4.0637333803	-2.3153183136	 1.9928894698	 0.116985
H	 0.5167527063	-2.8365665973	 0.0835319469	 0.071429
H	 0.8258082276	-1.2791002481	 3.3621746198	 0.127975
H	 0.1815345985	 0.3338511451	 3.0427159133	 0.121832
H	-0.8087799045	-1.0915731329	 2.716301261	 0.120118
136.1153	159.5519	173.0892	192.2942	207.5479	243.2909	286.6723	314.6466	374.3512	517.4112	554.9293	649.3349	708.1589	735.5529	798.083	830.6349	835.5096	851.6987	899.9609	912.8766	986.018	1036.9151	1046.8288	1077.9465	1093.7934	1116.0594	1127.3555	1133.3871	1148.1137	1157.8544	1172.3932	1180.467	1205.176	1235.6519	1286.9535	1291.3901	1332.8819	1404.1109	1405.9691	1415.4293	1445.5781	1480.9396	1485.2917	1493.6087	1496.7798	1500.1879	1502.5388	2994.4534	3014.0971	3024.4994	3026.255	3060.6472	3079.8023	3085.4606	3087.2914	3089.7304	3091.4878	3097.2852	3122.8702	3123.8384
CC1C2C3N(C)C2C13C	C[C@H]1[C@H]2[C@@H]3N(C)[C@H]2[C@]13C	
InChI=1S/C8H13N/c1-4-5-6-8(4,2)7(5)9(6)3/h4-7H,1-3H3	InChI=1S/C8H13N/c1-4-5-6-8(4,2)7(5)9(6)3/h4-7H,1-3H3/t4-,5-,6-,7+,8+/m0/s1
