19
gdb 106060	2.448	1.5827	1.31648	1.4706	74.92	-0.2299	0.0706	0.3005	1058.8194	0.158203	-422.961043	-422.952545	-422.951601	-422.994083	32.615	
C	 0.144622106	 1.6014135938	-0.0486062526	-0.502078
C	-0.0493236342	 0.1187849552	-0.0805573232	 0.374735
C	 0.4141469806	-0.8137723204	-1.2361366629	-0.265873
C	-0.583502279	-1.8185436053	-0.6630417576	-0.187796
C	-0.5374841465	-1.569265381	 0.8538738519	 0.03293
O	 0.4505795915	-0.5777595505	 1.109673317	-0.331929
C	-1.4044501054	-0.7086286081	-0.0055912302	 0.228924
C	-2.8472748087	-0.3383659274	 0.0024157322	-0.217781
O	-3.1723433235	 0.5699508905	 1.0481123488	-0.411965
H	 1.2087832629	 1.8390589846	 0.0565515124	 0.131331
H	-0.2199129801	 2.0556136691	-0.9748633767	 0.122916
H	-0.3994252984	 2.04202008	 0.790577739	 0.139206
H	 0.091351165	-0.4395175059	-2.2112711109	 0.101566
H	 1.4780476334	-1.0708414114	-1.2534820588	 0.098919
H	-0.9435196438	-2.7455556189	-1.0916467566	 0.09169
H	-0.7555134729	-2.3111649846	 1.6118829613	 0.104375
H	-3.126217049	 0.1750169255	-0.9250886047	 0.113633
H	-3.4570953929	-1.2560154967	 0.0547512859	 0.091962
H	-2.847254315	 0.1863918916	 1.869723616	 0.285235
90.1795	111.3941	182.3187	195.283	295.0582	311.5143	337.7478	414.1585	487.9708	551.8712	624.6811	638.2926	764.2673	788.4018	818.6852	871.5038	880.8542	928.8366	964.1804	981.4454	993.7498	1023.9091	1035.2348	1047.6528	1101.735	1118.4818	1145.0134	1163.8128	1217.5665	1237.2978	1247.0988	1285.7452	1333.1372	1364.411	1415.6473	1418.2647	1451.1248	1478.1889	1485.4332	1488.5155	1498.9617	2964.2191	3039.3026	3046.9856	3055.2538	3107.834	3111.5273	3125.4984	3192.3711	3202.0819	3808.4261
CC12CC3C(O1)C23CO	C[C@@]12C[C@H]3[C@@H](O1)[C@@]23CO	
InChI=1S/C7H10O2/c1-6-2-4-5(9-6)7(4,6)3-8/h4-5,8H,2-3H2,1H3	InChI=1S/C7H10O2/c1-6-2-4-5(9-6)7(4,6)3-8/h4-5,8H,2-3H2,1H3/t4-,5+,6-,7-/m0/s1
