18
gdb 46594	2.74937	1.77192	1.40706	3.7491	75.15	-0.2289	0.0268	0.2557	968.3325	0.150517	-401.952186	-401.944955	-401.944011	-401.983637	29.028	
O	-0.0858100943	-0.0506009448	-0.1280591772	-0.38071
C	-0.022121942	 1.1516825904	 0.0049547355	 0.342791
N	-1.1013036851	 1.9861991107	 0.2589453788	-0.32044
C	-0.8804630818	 3.4216892085	 0.0711052517	-0.251018
C	 0.6335681363	 3.4972341298	-0.0474378967	 0.239165
C	 1.4564045703	 2.9698126045	 1.0822781455	-0.358595
C	 1.1686348273	 2.0602725265	-0.085377383	 0.145021
C	 2.0583667878	 2.3863356167	-1.2973811241	-0.292764
C	 1.4938957342	 3.8514184558	-1.2769341301	-0.285859
H	-2.0183139794	 1.5849530766	 0.3797137019	 0.248178
H	-1.3629673013	 3.788132715	-0.8459812754	 0.108954
H	-1.286406718	 3.9965220875	 0.9126810939	 0.112892
H	 2.4740873656	 3.3257093434	 1.2166315718	 0.118348
H	 0.9310211452	 2.7466184979	 2.0042932573	 0.129686
H	 3.1338429151	 2.2680677358	-1.1387382643	 0.107017
H	 1.7769633502	 1.8325667197	-2.1944375688	 0.123465
H	 0.889444029	 4.0745226372	-2.1593679473	 0.10994
H	 2.216145381	 4.661584669	-1.1378233195	 0.103929
119.061	178.334	232.1211	316.8555	372.4194	429.6647	499.2823	584.2064	603.854	675.9359	719.9536	754.0655	770.3521	794.923	845.5503	929.4336	939.9828	956.8452	968.7618	992.3157	1031.5996	1077.0716	1100.0712	1149.6319	1164.444	1201.842	1226.8236	1245.1125	1261.3759	1279.0298	1336.0837	1344.6627	1370.0968	1439.8558	1477.9377	1480.4373	1501.0339	1528.344	1818.126	2999.8139	3037.472	3049.9601	3062.7952	3102.893	3121.9122	3127.3783	3215.3953	3634.0125
O=C1NCC23CC12CC3	O=C1NC[C@@]23C[C@@]12CC3	
InChI=1S/C7H9NO/c9-5-7-2-1-6(7,3-7)4-8-5/h1-4H2,(H,8,9)	InChI=1S/C7H9NO/c9-5-7-2-1-6(7,3-7)4-8-5/h1-4H2,(H,8,9)/t6-,7+/m1/s1
