20
gdb 112589	3.40923	0.92448	0.85829	2.3971	81.44	-0.2253	0.026	0.2513	1435.951	0.170648	-399.311456	-399.301788	-399.300843	-399.346092	35.477	
C	 0.0776881025	 1.4951491726	 0.0617104157	-0.382061
C	 0.0535908827	-0.0295304897	 0.1373794916	-0.12708
N	-1.3022656037	-0.5437081393	 0.1379334711	-0.059938
C	-2.1392475862	-0.3400351261	 1.3320352414	-0.188418
C	-2.7106496741	-1.7791982762	 1.1514511293	 0.137895
N	-3.9790221379	-1.7798108831	 0.433871088	-0.541798
C	-1.4961708332	-1.9996966844	 0.1995500361	-0.188686
C	-2.7269630307	-2.610645312	 2.3611238594	 0.221338
N	-2.7844341432	-3.2767902702	 3.3053639168	-0.344298
H	 1.1077148863	 1.8630241061	 0.043398646	 0.117256
H	-0.4365187886	 1.8438072525	-0.8382411297	 0.129159
H	-0.4180399664	 1.9426054896	 0.9299151513	 0.120025
H	 0.5659608525	-0.4528827097	-0.7352573317	 0.106409
H	 0.6165951342	-0.3683252248	 1.0308901439	 0.076468
H	-1.5680846603	-0.2384220262	 2.2676467638	 0.104113
H	-2.8747519495	 0.4670338203	 1.2586477233	 0.116864
H	-4.227601751	-2.7294470632	 0.1689525548	 0.241579
H	-4.7221278648	-1.4468971753	 1.042758561	 0.241477
H	-1.728890005	-2.4796745539	-0.7566614919	 0.115333
H	-0.6777817436	-2.5412869071	 0.6976472899	 0.104365
64.1042	95.2363	176.579	185.6304	199.0274	238.2547	257.6866	321.6976	368.1983	399.4985	419.6305	529.7368	587.0688	608.4167	730.7307	810.8279	864.4379	923.6082	932.3578	960.2949	967.8791	982.4553	1053.2979	1113.1649	1127.9982	1138.881	1176.955	1208.358	1254.9307	1271.7185	1289.0806	1301.6182	1319.0712	1350.1778	1395.7737	1415.0941	1487.7441	1489.3023	1492.4081	1505.1035	1518.6975	1659.2444	2339.624	2896.987	2982.4377	2992.4878	3038.7897	3045.275	3069.1956	3074.1063	3106.3972	3121.6124	3484.152	3562.7295
CCN1CC(N)(C1)C#N	CCN1CC(N)(C1)C#N	
InChI=1S/C6H11N3/c1-2-9-4-6(8,3-7)5-9/h2,4-5,8H2,1H3	InChI=1S/C6H11N3/c1-2-9-4-6(8,3-7)5-9/h2,4-5,8H2,1H3
