19
gdb 67248	3.04726	1.54632	1.28687	1.9277	79.63	-0.2243	0.0799	0.3043	1054.7274	0.158853	-385.805051	-385.797337	-385.796392	-385.836916	30.945	
C	-0.0302899952	 1.5854189556	-0.1169362008	-0.532505
C	 0.0055619407	 0.0977878836	-0.0026991681	 0.311869
C	 0.0671377661	-1.0442684089	-0.9557932297	 0.035209
O	 1.181550542	-1.6943086488	-0.3459097492	-0.291966
C	 0.8531077666	-0.9359297684	 0.8561243832	-0.108996
C	-0.4613553883	-1.5601875831	 1.3310542093	 0.463899
C	-0.6880195741	-2.8334076991	 2.0736370115	-0.339207
C	-1.0060565701	-1.4940120689	 2.7228556631	-0.343452
C	-1.0815093667	-0.9808948374	 0.0809790739	-0.294934
H	 0.947488338	 1.990344527	-0.4011829017	 0.128279
H	-0.7533170874	 1.8935565799	-0.879972195	 0.12553
H	-0.3285897482	 2.0540396829	 0.8277134763	 0.125633
H	-0.0656170601	-1.1174427033	-2.0279476037	 0.104352
H	 1.7055861541	-0.7560464884	 1.5097412354	 0.080266
H	-1.5211234498	-3.4614048592	 1.7746511235	 0.112576
H	 0.1769361412	-3.3831178275	 2.4308515542	 0.114776
H	-0.3532377826	-1.1479934188	 3.5188668172	 0.109913
H	-2.0490549553	-1.2269790172	 2.8603203623	 0.111326
H	-2.1262492911	-0.9046523301	-0.1951978719	 0.087432
119.9988	200.3364	211.2053	255.4662	260.6109	314.5831	482.6899	543.2691	597.1313	647.0513	746.4016	774.9499	798.3541	846.5048	883.5688	895.9767	909.1291	921.1545	954.2426	968.3081	980.3072	1014.2598	1027.1048	1049.1303	1073.7295	1080.564	1119.9368	1144.5215	1160.8255	1181.442	1186.3893	1209.759	1256.6025	1286.6766	1410.6106	1415.9667	1461.484	1463.4691	1484.0518	1497.29	1512.9801	3023.3876	3085.1473	3093.4196	3118.8295	3126.7246	3132.7079	3189.0183	3197.0583	3201.0247	3213.2657
CC12C3OC1C1(CC1)C23	C[C@@]12[C@H]3O[C@@H]1C1(CC1)[C@@H]23	
InChI=1S/C8H10O/c1-7-4-5(7)9-6(7)8(4)2-3-8/h4-6H,2-3H2,1H3	InChI=1S/C8H10O/c1-7-4-5(7)9-6(7)8(4)2-3-8/h4-6H,2-3H2,1H3/t4-,5+,6+,7-/m1/s1
