16
gdb 19378	4.15593	1.72357	1.50061	1.606	63.87	-0.2268	0.0539	0.2807	871.4949	0.129477	-383.650441	-383.643227	-383.642283	-383.681912	27.685	
O	 0.0784449549	 1.4053919162	 0.2287181164	-0.418665
C	-0.0166783156	 0.0155865692	-0.0502558877	-0.20797
C	-1.4591859996	-0.3631103444	 0.0111764489	 0.433092
O	-1.8619136441	-1.5875894379	-0.619509441	-0.293393
C	-2.5398388947	-0.3664850182	-0.9694295076	-0.054069
C	-3.587782023	-0.0219682588	 0.1345708925	-0.083284
C	-3.5723222099	-1.0338470875	 1.2500893299	-0.291383
C	-2.463487827	-0.0200611249	 1.1620172759	-0.124877
H	 1.0065930721	 1.6199384475	 0.3584127797	 0.292887
H	 0.3711768697	-0.2387868575	-1.0479846639	 0.103035
H	 0.5455635004	-0.5790958329	 0.6881711735	 0.097473
H	-2.5693566332	-0.0955968215	-2.0180791435	 0.10608
H	-4.3714857631	 0.7111393238	 0.0011249266	 0.094155
H	-4.2946446041	-0.8476596227	 2.0386488389	 0.110426
H	-3.3788583826	-2.0773606803	 1.036030356	 0.133973
H	-2.25552383	 0.7223279197	 1.9194649153	 0.102519
85.5203	157.1079	220.9973	262.545	385.2404	412.8891	510.2125	574.2434	622.9684	733.0952	758.2577	813.8796	845.2587	882.4433	915.1251	932.0413	986.3481	1012.0908	1037.4304	1055.8988	1056.4201	1080.4185	1101.1694	1156.1132	1172.7159	1224.6609	1240.8064	1273.9149	1291.631	1310.3621	1432.2017	1463.3324	1510.1539	1513.5252	2968.4996	3010.5057	3140.0895	3188.3547	3207.1746	3219.1267	3232.8537	3836.096
OCC12OC1C1CC21	OC[C@]12O[C@H]1[C@H]1C[C@@H]21	
InChI=1S/C6H8O2/c7-2-6-4-1-3(4)5(6)8-6/h3-5,7H,1-2H2	InChI=1S/C6H8O2/c7-2-6-4-1-3(4)5(6)8-6/h3-5,7H,1-2H2/t3-,4+,5-,6+/m0/s1
