20
gdb 102724	2.1399	1.21858	0.82239	3.3193	80.16	-0.2661	0.0215	0.2876	1431.6019	0.169003	-403.140634	-403.130723	-403.129779	-403.176351	35.486	
C	-0.4580757124	 1.4584499951	 0.0085118462	-0.395666
C	 0.1083161519	 0.041228806	 0.1067478541	-0.188273
C	 0.890058584	-0.3613158917	-1.1517848926	-0.021952
O	 2.0033346277	 0.5010646128	-1.2742600738	-0.244798
C	 2.6166458278	 0.4942651894	-2.535699419	 0.132906
C	 4.0223228089	 0.9943793366	-2.5824374776	-0.292869
C	 3.734129443	-0.4743754268	-2.8208954813	-0.281875
C	 1.3042416703	-1.7817307668	-1.0732323873	 0.284261
N	 1.6145985253	-2.8919565452	-0.9928344111	-0.33166
H	 0.3418140633	 2.1858230795	-0.1464483663	 0.141471
H	-1.1648559962	 1.5466363979	-0.8241460786	 0.115965
H	-0.9907009764	 1.7220083219	 0.9263955942	 0.121622
H	 0.7845263485	-0.0456905951	 0.9636436423	 0.127995
H	-0.6940689704	-0.6888009627	 0.2567259182	 0.120235
H	 0.2369180385	-0.2616113488	-2.0339976301	 0.111283
H	 1.9402640519	 0.7591772382	-3.3485686949	 0.090274
H	 4.3181237301	 1.6196909888	-3.4168465907	 0.11869
H	 4.4700103958	 1.2602377108	-1.6317376599	 0.130565
H	 4.0007947988	-1.1650935203	-2.0306712781	 0.142292
H	 3.8247441994	-0.8734571197	-3.8248887336	 0.119533
47.2325	83.6812	102.2845	146.8567	167.3501	214.591	237.913	319.3927	387.9977	406.9728	466.116	542.4736	612.4245	744.2882	773.9295	821.4076	841.4598	872.948	952.665	959.8442	988.0787	1021.9565	1058.9412	1073.673	1079.4631	1121.4767	1132.763	1154.0467	1191.988	1204.73	1242.7823	1285.4099	1315.9924	1352.8459	1382.6368	1407.9373	1414.6562	1455.6455	1477.554	1495.5584	1498.2984	1509.2006	2352.6985	2976.84	3040.5167	3051.1058	3089.5813	3100.0338	3110.0772	3133.9406	3142.8674	3147.9342	3227.9533	3242.9315
CCC(OC1CC1)C#N	CC[C@@H](OC1CC1)C#N	
InChI=1S/C7H11NO/c1-2-6(5-8)9-7-3-4-7/h6-7H,2-4H2,1H3	InChI=1S/C7H11NO/c1-2-6(5-8)9-7-3-4-7/h6-7H,2-4H2,1H3/t6-/m1/s1
