18
gdb 13269	7.56852	0.7472	0.73258	1.993	77.88	-0.2461	0.0462	0.2923	1587.527	0.153091	-347.758078	-347.749176	-347.748232	-347.793529	30.49	
C	-0.4771004886	 1.5315027935	-0.1143454793	-0.363998
C	 0.2695842538	 0.2110609366	 0.1487151258	-0.313976
C	 0.9374966108	-0.3173088615	-1.0364038836	 0.075439
C	 1.4806046493	-0.7311159925	-2.029918651	 0.06162
C	 2.1439332977	-1.2558966007	-3.2040572003	-0.209659
C	 3.5958986753	-1.7983762372	-3.07110448	-0.072749
O	 3.2372023089	-3.0315444151	-3.7210659872	-0.269295
C	 1.8353005366	-2.7108356294	-3.6599679339	-0.072943
H	 0.2126454012	 2.3052241167	-0.4622983728	 0.127966
H	-1.2462253164	 1.3970532363	-0.8797472448	 0.12797
H	-0.9597522432	 1.8858335716	 0.8013459374	 0.114746
H	 1.0097442155	 0.3611719052	 0.9454054005	 0.12949
H	-0.4349212998	-0.5380179148	 0.5328673523	 0.129406
H	 2.0605588505	-0.5556629022	-4.0404350336	 0.107761
H	 4.375044302	-1.2535397931	-3.6149169683	 0.107511
H	 3.9115930064	-1.9530554441	-2.0318545863	 0.106634
H	 1.3059258089	-3.3039895978	-2.9038420435	 0.106591
H	 1.3404849613	-2.8264288816	-4.6302525115	 0.107488
21.0232	69.5024	104.4933	121.6402	205.5042	217.3938	325.0326	465.691	492.1727	505.8628	624.8951	785.4613	820.9169	890.2032	893.7854	972.6008	1001.499	1030.2829	1038.6744	1081.1213	1104.0429	1107.8981	1158.1096	1170.7938	1195.383	1241.3163	1286.4775	1303.0734	1341.9333	1353.5698	1383.4544	1409.7059	1474.6036	1494.8254	1505.2801	1508.9514	1534.9854	2362.2228	3014.0772	3018.7436	3024.5832	3044.3562	3045.307	3054.3197	3071.9429	3080.3741	3117.6744	3123.4299
CCC#CC1COC1	CCC#CC1COC1	
InChI=1S/C7H10O/c1-2-3-4-7-5-8-6-7/h7H,2,5-6H2,1H3	InChI=1S/C7H10O/c1-2-3-4-7-5-8-6-7/h7H,2,5-6H2,1H3
