18
gdb 82657	4.18419	1.36143	1.31909	3.6706	75.38	-0.2428	-0.0179	0.2249	1014.9692	0.149236	-401.908579	-401.901463	-401.900519	-401.939935	28.625	
C	-0.1489664715	 1.6158244932	-0.0021515296	-0.432385
C	 0.0354092015	 0.1129044978	-0.0699626372	 0.0922
C	 0.8378579824	-0.6229830396	-1.171428595	-0.077545
C	 2.2076490126	 0.0828297674	-1.0853423066	-0.251747
C	 2.4146533753	-0.2625071164	 0.4192379912	-0.135572
N	 0.9732133979	-0.535925602	 0.9230578906	-0.174507
C	 1.0566074935	-1.729849463	-0.0640054379	-0.140645
C	 2.5378032684	-1.7837951399	 0.2793100603	 0.47439
O	 3.3617047281	-2.6225757546	 0.479170912	-0.32233
H	 0.7950348453	 2.1645090969	-0.0448852051	 0.12342
H	-0.7831317037	 1.9631971602	-0.8253172243	 0.123004
H	-0.642616546	 1.882621702	 0.9377137973	 0.134707
H	-0.9350545448	-0.3756470315	 0.073567758	 0.088702
H	 0.4299155551	-0.8434704837	-2.1589725728	 0.071821
H	 2.9760607003	-0.3687614613	-1.719721004	 0.118419
H	 2.1630887494	 1.1490949651	-1.3104263259	 0.110545
H	 3.0621394652	 0.3479147843	 1.0429043096	 0.097981
H	 0.3494899611	-2.550817035	 0.0402334891	 0.099544
138.1242	163.0666	198.7474	311.8371	391.3033	472.4728	531.3484	607.5365	674.9581	701.4866	768.6567	787.9824	806.6939	824.2024	886.951	907.4387	941.4569	946.7139	982.381	998.1228	1066.4746	1076.2411	1094.053	1101.2471	1134.9844	1147.7309	1178.6987	1207.4054	1226.351	1237.64	1257.4711	1292.8256	1307.3955	1398.5889	1417.1512	1486.1785	1492.92	1524.0818	1916.3703	3038.12	3043.3606	3065.0321	3103.982	3105.2043	3114.726	3126.105	3142.8187	3162.2948
CC1C2CC3N1C2C3=O	C[C@H]1[C@H]2C[C@H]3N1[C@@H]2C3=O	
InChI=1S/C7H9NO/c1-3-4-2-5-7(9)6(4)8(3)5/h3-6H,2H2,1H3	InChI=1S/C7H9NO/c1-3-4-2-5-7(9)6(4)8(3)5/h3-6H,2H2,1H3/t3-,4+,5+,6-/m0/s1
