15
gdb 46870	2.52268	1.80222	1.23911	6.7073	66.86	-0.2374	-0.0564	0.181	983.7736	0.114762	-453.963827	-453.956443	-453.955499	-453.995978	27.873	
O	-0.0167876056	-0.0383004	-0.1344862026	-0.345679
C	-0.0203933316	 1.1694317476	-0.0406393641	 0.306533
N	-1.1629037458	 1.9201361984	-0.0581120141	-0.318036
C	-1.2778995252	 3.3663478413	 0.0123288173	-0.16491
C	-0.1170571273	 3.9949728031	 0.7527473862	-0.035932
N	 0.3119615906	 3.3193630468	 1.9660502822	-0.320033
C	 1.2024820531	 3.2930394622	 0.7748093482	-0.156707
C	 1.2951580125	 1.9733008957	 0.0849510724	 0.349633
O	 2.3215117396	 1.5488039593	-0.3812326858	-0.292511
H	-2.0097750675	 1.3783508727	-0.1558147834	 0.255385
H	-1.3378545232	 3.8140931611	-0.9909916674	 0.122156
H	-2.2121380979	 3.611999342	 0.5305465878	 0.128787
H	-0.0958652134	 5.0814683617	 0.7165265226	 0.108492
H	 0.6817774148	 3.9838513184	 2.6403604905	 0.250584
H	 2.121255907	 3.8711890497	 0.7864392203	 0.112238
72.5315	143.4747	232.0473	329.353	341.0049	421.6795	456.647	495.2262	565.6803	613.0884	670.5183	743.1131	803.1201	833.5381	905.3761	913.7588	957.0328	1013.0264	1059.9045	1091.3032	1146.3834	1162.7422	1214.1573	1246.5415	1275.1302	1343.876	1379.1042	1389.9205	1447.7926	1482.9942	1515.4941	1802.0185	1825.3387	2993.2535	3054.3331	3142.75	3168.1168	3518.0168	3605.1969
O=C1NCC2NC2C1=O	O=C1NC[C@H]2N[C@H]2C1=O	
InChI=1S/C5H6N2O2/c8-4-3-2(7-3)1-6-5(4)9/h2-3,7H,1H2,(H,6,9)	InChI=1S/C5H6N2O2/c8-4-3-2(7-3)1-6-5(4)9/h2-3,7H,1H2,(H,6,9)/t2-,3-/m1/s1
