19
gdb 80006	2.27515	1.85336	1.45136	1.6681	80.06	-0.2249	-0.0026	0.2224	1002.3547	0.160775	-385.888503	-385.881003	-385.880059	-385.919915	31.128	
C	-0.0803937682	 1.4897549583	 0.0039962288	-0.513135
C	-0.0707009586	-0.0009839671	-0.0509483804	 0.339336
C	-0.0814547576	-0.8227934642	-1.1078930426	-0.221107
C	 0.0335518786	-2.2632737965	-0.5892586511	-0.142073
C	 1.3897509054	-2.4188702105	 0.1042481898	-0.074866
C	 1.3929487553	-1.6064601463	 1.1649314432	-0.086636
C	 0.0393289781	-0.8938424811	 1.2015499935	-0.195627
C	-0.8441459118	-2.1067972269	 0.7127286177	 0.177095
O	-2.2072299433	-1.8805303559	 0.5385037496	-0.441868
H	 0.8467215654	 1.8703199347	 0.4527919494	 0.130719
H	-0.1789433895	 1.9310952444	-0.9918572982	 0.124823
H	-0.9018333887	 1.8636712201	 0.6280688578	 0.12726
H	-0.0952679064	-0.5453985385	-2.1542438439	 0.095131
H	-0.2500071934	-3.051562554	-1.2861947673	 0.062306
H	 2.1774915758	-3.078953047	-0.2332506143	 0.099312
H	 2.1822332608	-1.4562116146	 1.8891497977	 0.099065
H	-0.238065526	-0.4230501611	 2.1454253767	 0.05974
H	-0.7550023701	-2.9686717021	 1.3772400783	 0.090045
H	-2.2880018559	-1.1419639117	-0.0807658445	 0.270479
147.3804	190.8553	273.6043	304.192	328.4862	442.0692	479.1735	512.7151	567.9464	592.9209	604.8154	723.5915	750.7378	806.4638	821.9404	851.9632	895.7121	910.1432	925.1079	938.2312	962.5173	986.6452	1011.2692	1063.8076	1090.9979	1127.4993	1136.2647	1198.8897	1223.4119	1236.5378	1242.8055	1260.4051	1286.9415	1307.0478	1333.969	1412.7855	1435.6413	1478.6607	1486.949	1625.5402	1688.6787	3013.9504	3060.0006	3101.5197	3106.5659	3111.3054	3120.674	3207.7033	3210.8151	3233.226	3741.1709
CC1=CC2C=CC1C2O	CC1=C[C@H]2C=C[C@@H]1[C@H]2O	
InChI=1S/C8H10O/c1-5-4-6-2-3-7(5)8(6)9/h2-4,6-9H,1H3	InChI=1S/C8H10O/c1-5-4-6-2-3-7(5)8(6)9/h2-4,6-9H,1H3/t6-,7+,8+/m1/s1
