18
gdb 38707	2.67694	2.22131	1.66729	1.7294	74.19	-0.237	0.0164	0.2534	863.5513	0.151421	-401.92961	-401.923371	-401.922427	-401.959709	27.005	
C	-0.0381390813	 1.4808877688	-0.0084660659	-0.393199
C	 1.3442766393	 0.8127023698	-0.0067972065	-0.055533
C	 2.210372477	 0.2377406662	 1.1287239133	-0.246781
C	 1.5423706468	-1.1565514165	 1.2925389182	 0.027959
C	 0.0650967173	-0.7451846447	 1.3322643483	-0.291736
C	 0.0820635989	-0.0003998796	-0.0000827978	 0.413589
O	-0.057054539	-0.9151777507	-1.0766061058	-0.266564
C	 0.9396571355	-1.8515485535	-0.9057396838	 0.10118
N	 1.7311184394	-1.9915038606	 0.0760425412	-0.264873
H	-0.4579548831	 1.9409975487	 0.8818664511	 0.119978
H	-0.27808406	 1.9970052403	-0.9323465796	 0.12989
H	 1.8353645951	 0.9040623165	-0.9695070818	 0.104316
H	 3.2572765463	 0.1732145428	 0.8240759865	 0.113309
H	 2.166522543	 0.7937319226	 2.0727520739	 0.099201
H	 1.9070815286	-1.7276201494	 2.1509643965	 0.070789
H	-0.6321936879	-1.5853943143	 1.3248397817	 0.113789
H	-0.167589258	-0.0934393207	 2.1792954699	 0.099779
H	 0.989716092	-2.5086181755	-1.7713087994	 0.124907
240.9328	325.9072	353.9059	397.2206	462.288	469.47	570.8542	624.8027	687.5837	748.2059	801.5548	830.5825	854.1784	882.471	901.834	912.2949	949.7619	956.982	990.1326	1012.1905	1032.2909	1067.0029	1090.8126	1094.9742	1123.7296	1148.8739	1203.8477	1233.4298	1239.8678	1287.6032	1304.8319	1333.3457	1346.6931	1384.75	1405.2082	1475.2807	1480.9735	1497.0263	1681.6418	3038.0706	3057.2713	3074.9338	3108.482	3118.1632	3120.7218	3166.1273	3167.3125	3209.7238
C1C2CC3CC12OC=N3	C1[C@H]2C[C@H]3C[C@@]12OC=N3	
InChI=1S/C7H9NO/c1-5-2-7(5)3-6(1)8-4-9-7/h4-6H,1-3H2	InChI=1S/C7H9NO/c1-5-2-7(5)3-6(1)8-4-9-7/h4-6H,1-3H2/t5-,6+,7+/m1/s1
