18
gdb 115080	2.35105	1.55073	1.17602	2.1623	72.1	-0.2756	-0.0271	0.2485	1107.3269	0.148207	-439.136352	-439.127845	-439.126901	-439.169998	31.079	
C	-0.0340286143	 1.6003375772	-0.0662909894	-0.391024
C	-0.0192139021	 0.0718073912	 0.0109931809	-0.187628
C	-1.4278433596	-0.5745083633	 0.0275370521	-0.150067
C	-1.3623255108	-2.1117343652	-0.0164227858	-0.1924
N	-0.9390972217	-2.7063450265	 1.2465911126	-0.233421
C	-1.2260472384	-2.0721855603	 2.2932229577	 0.132587
O	-1.9180495103	-0.8828126906	 2.4026736836	-0.217948
C	-2.1854969027	-0.1380926686	 1.2639261017	 0.438308
O	-2.9294025416	 0.7918372765	 1.3545894527	-0.308606
H	 0.9871854008	 1.9919459048	-0.0885284089	 0.117862
H	-0.545587934	 1.9446265891	-0.9712282511	 0.122175
H	-0.5482852208	 2.0460398739	 0.7896783732	 0.14114
H	 0.5087175798	-0.3376081022	-0.8586464932	 0.107758
H	 0.5453597299	-0.2564817692	 0.8912197263	 0.118502
H	-1.9927956865	-0.1961454121	-0.8295402944	 0.110451
H	-2.3431278906	-2.5324602547	-0.2770075406	 0.127602
H	-0.6693514585	-2.4315270241	-0.8012633752	 0.121596
H	-0.9665555788	-2.4348454161	 3.2839299478	 0.143112
66.3617	103.5565	144.1579	182.1411	240.5074	286.2438	372.3173	444.3477	482.4412	537.109	621.4568	728.2054	739.1798	820.9209	842.0313	898.0473	940.4211	955.1175	998.2003	1021.7308	1042.7101	1090.3914	1113.1449	1134.4199	1182.6291	1250.8881	1281.8137	1287.9558	1344.5115	1365.047	1391.4572	1405.6125	1421.6218	1486.0279	1486.6918	1498.0235	1504.6006	1748.0274	1875.5267	3019.1069	3032.1649	3040.8019	3063.0158	3070.4981	3079.2113	3108.8661	3120.0543	3185.9142
CCC1CN=COC1=O	CC[C@H]1CN=COC1=O	
InChI=1S/C6H9NO2/c1-2-5-3-7-4-9-6(5)8/h4-5H,2-3H2,1H3	InChI=1S/C6H9NO2/c1-2-5-3-7-4-9-6(5)8/h4-5H,2-3H2,1H3/t5-/m0/s1
