19
gdb 95224	2.22475	1.8818	1.34762	1.9397	69.82	-0.2544	0.074	0.3284	1002.7375	0.160913	-460.142885	-460.135048	-460.134103	-460.174863	31.698	
O	 0.1579273103	 1.3391662859	-0.2068120295	-0.451081
C	 0.0499158787	-0.0783621211	-0.0695029135	 0.076175
C	 0.7708655959	-0.5358420084	 1.1937040413	-0.121011
O	 0.2387183182	 0.1949039562	 2.2970360151	-0.272096
C	-1.1116514019	-0.1030592101	 2.5598407733	 0.08641
C	-2.1383356804	 0.9100565073	 2.1405134727	-0.314581
C	-2.0253399268	-0.4016839698	 1.393422675	-0.072409
C	-1.4380972849	-0.4981614089	-0.0142151758	 0.107102
O	-2.18207566	 0.2156344492	-0.9791659532	-0.440537
H	 0.2431899729	 1.6889029275	 0.6902477387	 0.295679
H	 0.507040111	-0.5133119284	-0.9644047531	 0.0912
H	 0.6603541482	-1.6196659944	 1.3403489191	 0.103277
H	 1.8354410223	-0.2900315171	 1.1523004303	 0.119606
H	-1.244985412	-0.6427761205	 3.4945088235	 0.096369
H	-3.0058201884	 1.0628639667	 2.7729306235	 0.117431
H	-1.7788349523	 1.8088278301	 1.6529370285	 0.113793
H	-2.8240819166	-1.1116889703	 1.5834831658	 0.09506
H	-1.4843942262	-1.5545851435	-0.308174139	 0.083128
H	-1.8017487181	 1.1051119496	-0.9839004628	 0.286485
107.0489	186.526	244.5674	279.5212	375.8789	392.8236	417.5805	435.3824	480.0941	550.7244	591.7354	676.5057	738.3555	782.9669	807.0078	824.2836	904.7551	922.0872	957.0681	1014.7635	1045.4614	1062.703	1070.3879	1091.6193	1105.7817	1128.1437	1158.5918	1191.2739	1234.4284	1235.5119	1274.5784	1285.8118	1329.6321	1349.2647	1387.7241	1395.2679	1405.3168	1426.1994	1442.149	1479.8849	1494.2616	3009.3054	3024.4835	3062.8028	3099.04	3128.2273	3139.2038	3154.4666	3225.0492	3746.7823	3759.8198
OC1COC2CC2C1O	O[C@H]1CO[C@H]2C[C@H]2[C@H]1O	
InChI=1S/C6H10O3/c7-4-2-9-5-1-3(5)6(4)8/h3-8H,1-2H2	InChI=1S/C6H10O3/c7-4-2-9-5-1-3(5)6(4)8/h3-8H,1-2H2/t3-,4+,5+,6-/m1/s1
