22
gdb 61822	2.99138	0.87888	0.73957	2.4514	83.8	-0.2308	-0.0231	0.2076	1569.828	0.191156	-404.326179	-404.315653	-404.314709	-404.362748	37.444	
C	 0.3837718613	 1.8292096591	 0.0375998977	-0.396239
C	 0.042839354	 0.3308740384	 0.0724329408	-0.019573
C	 0.5673911836	-0.3898199717	-1.1920653775	-0.278113
C	-0.1457962632	 0.0583488038	-2.4465938377	 0.157258
O	 0.3864983237	 0.4945318082	-3.4342673232	-0.239123
C	 0.6218134073	-0.3049236266	 1.3262555757	 0.027694
C	-0.0899909285	-0.231675002	 2.6346031267	-0.265227
N	 0.0987864815	-1.5142081652	 1.9666884882	-0.089309
C	-1.0850668161	-2.1816901462	 1.4482518354	-0.31816
H	 1.4689682184	 1.9813670385	 0.0486964062	 0.124083
H	-0.0046940524	 2.3083571232	-0.8666423907	 0.126291
H	-0.0369422483	 2.3455138114	 0.905082621	 0.121298
H	-1.0495890264	 0.2318303286	 0.0922793276	 0.078071
H	 1.6430394623	-0.232237786	-1.3207653919	 0.120538
H	 0.3923843639	-1.4696450315	-1.0889772758	 0.123859
H	-1.2568903712	-0.046917846	-2.3971643455	 0.068232
H	 1.7122804635	-0.2676255633	 1.3486339544	 0.089608
H	 0.4524061652	-0.0857810526	 3.5653601887	 0.115542
H	-1.0911844437	 0.2014360567	 2.6227558809	 0.102501
H	-1.8704138976	-1.5082979525	 1.0700200202	 0.099827
H	-0.7993402336	-2.8666596686	 0.6431138835	 0.122713
H	-1.5232815736	-2.7798789555	 2.2535289853	 0.12823
49.72	57.8472	79.7417	134.1794	200.6634	212.5763	231.3682	260.2123	322.5069	362.1751	393.5499	437.282	536.3068	543.5062	750.4758	771.1333	830.8974	899.283	929.8277	950.1351	985.675	1021.7604	1038.3672	1086.9163	1113.6035	1131.2256	1133.9179	1150.0057	1166.5302	1197.1034	1204.3646	1226.0644	1264.0656	1325.3012	1340.7465	1355.259	1411.5841	1425.4776	1433.6717	1449.9394	1460.6441	1489.9361	1493.1959	1499.9501	1501.6777	1513.4944	1835.438	2838.3181	2975.7372	3022.4746	3025.988	3034.0434	3064.1974	3078.0126	3086.9027	3092.6216	3097.6486	3101.2561	3113.6851	3167.4903
CC(CC=O)C1CN1C	C[C@@H](CC=O)[C@H]1CN1C	
InChI=1S/C7H13NO/c1-6(3-4-9)7-5-8(7)2/h4,6-7H,3,5H2,1-2H3	InChI=1S/C7H13NO/c1-6(3-4-9)7-5-8(7)2/h4,6-7H,3,5H2,1-2H3/t6-,7+,8?/m0/s1
