20
gdb 108430	2.26335	1.6498	1.19184	2.5159	79.68	-0.2574	0.0297	0.2871	1124.7657	0.171285	-403.143608	-403.134996	-403.134052	-403.176884	32.78	
C	-0.0692603917	 1.5520297974	 0.0034630353	-0.386397
C	-0.0306381455	 0.0184625281	-0.0389752537	-0.293446
C	 0.7428108614	-0.5079056336	-1.2310383675	 0.223891
C	 0.1519745023	-0.3333693832	-2.674273618	-0.283795
C	 0.4132973508	-1.8425876863	-2.9716381511	-0.237068
C	 1.0400589126	-2.0006840921	-1.5748588746	 0.044322
O	 2.4745383562	-1.7113208141	-1.5834576516	-0.275894
C	 2.2533630784	-0.3906317468	-1.2373354204	 0.402576
N	 3.069469715	 0.5346767633	-1.0059250449	-0.555597
H	 0.943880531	 1.959854131	 0.0449196922	 0.157854
H	-0.5608558148	 1.9600705805	-0.8862310985	 0.11481
H	-0.6231726257	 1.9015285519	 0.8797441996	 0.110269
H	 0.4245201752	-0.3638671398	 0.8828810108	 0.105642
H	-1.0522200541	-0.3822117277	-0.0738333387	 0.0937
H	-0.9101078414	-0.0780920936	-2.6530105568	 0.111093
H	 0.6700106017	 0.3885720937	-3.3075835232	 0.120903
H	-0.5035100237	-2.4233827463	-3.099268369	 0.110453
H	 1.0948000903	-2.0738016989	-3.7923498619	 0.119757
H	 0.8155437228	-2.8618828373	-0.9452567577	 0.091025
H	 4.0345903292	 0.2151354238	-1.1074732604	 0.225901
94.1813	115.7072	145.8136	207.3173	230.5983	296.6872	319.6906	403.6185	477.5054	616.4483	666.8966	714.9608	745.1868	786.9411	831.4775	864.8697	874.225	904.5401	948.2268	961.7501	987.268	995.9538	1016.3296	1048.182	1112.2619	1132.1287	1164.3721	1209.8242	1217.7989	1228.8091	1242.5484	1271.2904	1306.1776	1316.3795	1357.2678	1375.8535	1411.0795	1465.5595	1482.5497	1492.1834	1498.2717	1512.5721	1812.3636	3017.2415	3038.2373	3054.7126	3067.0362	3073.2301	3103.6265	3113.8655	3119.0493	3128.8405	3135.2528	3470.867
CCC12CCC1OC2=N	CC[C@]12CC[C@H]1O[C]2[NH]	
InChI=1S/C7H11NO/c1-2-7-4-3-5(7)9-6(7)8/h5,8H,2-4H2,1H3	InChI=1S/C7H11NO/c1-2-7-4-3-5(7)9-6(7)8/h5,8H,2-4H2,1H3/t5-,7+/m1/s1
