16
gdb 97868	5.58683	0.47011	0.43712	5.4023	92.32	-0.2662	-0.041	0.2252	2391.9628	0.122514	-363.577039	-363.567	-363.566055	-363.614297	33.821	
C	-0.0374572635	 1.6055750348	 0.0403857612	-0.367076
C	-0.0006850454	 0.0665736891	 0.0065413304	-0.314518
C	 0.6720946549	-0.4622458565	-1.1753351787	 0.110465
C	 1.2309463856	-0.8754286426	-2.157220216	 0.047753
C	 1.9090743182	-1.3894056538	-3.3475721289	-0.513821
C	 1.9530010511	-2.849390446	-3.3984804824	 0.136023
C	 1.9922466925	-4.0547304377	-3.4461252576	 0.018052
C	 2.0363362427	-5.4183280538	-3.5002330381	 0.215396
N	 2.0747175501	-6.5783317172	-3.5479026549	-0.33656
H	 0.974486924	 2.0192717353	 0.0386590468	 0.130202
H	-0.5663682556	 2.0015725742	-0.8306014867	 0.130207
H	-0.5501863389	 1.9519378436	 0.9421983828	 0.120451
H	 0.5022093743	-0.3099168008	 0.9061118912	 0.136296
H	-1.0239742242	-0.3274451643	 0.0451312641	 0.136298
H	 1.4133947489	-1.0217383143	-4.2573333835	 0.175417
H	 2.9382528952	-1.00595186	-3.3954798196	 0.175416
19.6025	43.2887	124.3265	138.1161	171.0703	176.9553	252.5419	326.9298	348.6976	382.3067	475.5026	513.9461	577.4258	577.8573	727.505	748.7627	786.2571	924.7621	963.1106	1077.8059	1104.9459	1144.6141	1176.5728	1226.3112	1285.4223	1335.384	1350.2505	1409.6952	1444.5151	1475.7734	1495.0918	1505.7373	2270.3079	2377.5833	2407.9288	3005.486	3025.805	3030.6396	3047.0378	3054.3395	3121.7416	3125.5545
CCC#CCC#CC#N	CCC#CCC#CC#N	
InChI=1S/C8H7N/c1-2-3-4-5-6-7-8-9/h2,5H2,1H3	InChI=1S/C8H7N/c1-2-3-4-5-6-7-8-9/h2,5H2,1H3
