16
gdb 14696	10.01481	0.57961	0.57321	2.7086	72.5	-0.2492	-0.03	0.2192	1892.8084	0.126643	-383.701963	-383.692311	-383.691367	-383.738916	31.136	
C	-0.0391196905	 1.3085268279	 0.5461505086	-0.219911
O	-0.0565539844	-0.0943075755	 0.4124815864	-0.22815
C	-1.1383940971	-0.5371911311	-0.3826489117	-0.200295
C	-1.1176626592	-1.9895085076	-0.4942305801	 0.015464
C	-1.1058739788	-3.1870172307	-0.6121608325	 0.117005
C	-1.1325788996	-4.6383214995	-0.7074751293	-0.417071
C	-2.1542114521	-5.2684476852	 0.2428063235	 0.170027
O	-2.8227972759	-6.2246159219	-0.0392821713	-0.22951
H	 0.818859315	 1.5619306852	 1.1723802976	 0.133076
H	 0.0689369561	 1.8116701839	-0.4280097485	 0.106429
H	-0.955961832	 1.6856307428	 1.026814041	 0.106277
H	-2.0979105415	-0.2104915813	 0.0557607299	 0.116515
H	-1.0874000979	-0.0874212061	-1.3900118968	 0.117654
H	-1.3458801406	-4.9878706703	-1.722903338	 0.155666
H	-0.1489087154	-5.0475776269	-0.4297037874	 0.160478
H	-2.219596386	-4.7722632036	 1.2352529186	 0.096345
19.6276	49.2272	75.4124	103.4411	128.8111	232.653	283.8026	300.3611	358.428	454.1888	470.7401	540.3197	726.9598	840.5804	978.4439	1023.634	1035.7978	1042.3396	1136.5647	1176.3725	1182.3622	1211.6656	1220.6537	1253.6656	1291.223	1410.3593	1414.8425	1437.7816	1478.0488	1485.016	1494.9107	1515.9421	1841.5951	2374.968	2903.1063	2943.8412	2960.8208	2970.2785	3003.8227	3013.6145	3080.6192	3122.9029
COCC#CCC=O	COCC#CCC=O	
InChI=1S/C6H8O2/c1-8-6-4-2-3-5-7/h5H,3,6H2,1H3	InChI=1S/C6H8O2/c1-8-6-4-2-3-5-7/h5H,3,6H2,1H3
