21
gdb 107009	2.74384	1.21909	1.07464	1.4949	78.57	-0.246	0.0628	0.3088	1245.5429	0.180266	-424.190593	-424.180727	-424.179783	-424.225206	36.413	
C	-0.3522852535	 1.6000655274	 0.350761298	-0.406583
C	-0.1698672761	 0.0990138656	 0.1707399424	-0.01803
C	 0.2740198796	-0.3932172552	-1.2147565675	-0.056789
O	 1.5950633471	 0.1258655526	-1.4545747929	-0.303712
C	 1.461213002	-1.0625878763	-0.6627409811	 0.435319
C	 2.2172913778	-2.2723500612	-1.1105135817	-0.211304
O	 1.6341771922	-3.404968908	-0.4801472957	-0.419404
C	 1.1135115917	-0.6230661318	 0.7712820933	-0.068725
C	 2.1565452956	 0.1904756225	 1.5243004434	-0.414353
H	 0.5001968343	 2.1503995536	-0.0556041713	 0.132174
H	-1.2537641497	 1.9449368239	-0.1679392108	 0.111214
H	-0.4588167221	 1.864714503	 1.4080101622	 0.113004
H	-1.0697059664	-0.4359857427	 0.4910891772	 0.076576
H	-0.3237899773	-0.6264259049	-2.089540101	 0.096779
H	 2.1658036333	-2.3330092096	-2.2079941516	 0.101336
H	 3.278923812	-2.165224051	-0.834505819	 0.095909
H	 2.2011891074	-4.1635048384	-0.6457852732	 0.292027
H	 0.802193657	-1.4918754002	 1.3572740535	 0.090279
H	 2.5435468361	 1.0019185843	 0.9027195896	 0.129977
H	 1.7369017983	 0.6281989853	 2.436130829	 0.112981
H	 3.0013435408	-0.4402621189	 1.8231784671	 0.111326
66.8207	117.9679	163.2614	199.4551	201.0884	218.9935	237.41	248.3977	278.4672	420.3559	479.6748	535.4049	594.8579	667.8738	706.792	752.1471	847.9317	868.0881	898.1331	995.2564	1004.	1015.0537	1047.6785	1064.9513	1074.5339	1080.243	1143.8284	1161.9088	1183.304	1205.6011	1228.5463	1255.4287	1277.5552	1303.129	1355.5455	1368.0839	1401.6299	1408.3464	1428.3261	1485.0849	1494.6926	1498.3408	1504.3987	1512.3288	1515.024	2969.5445	3008.5592	3031.6693	3034.7574	3052.8473	3078.5453	3090.6606	3094.339	3117.1674	3124.27	3174.3085	3835.1529
CC1C2OC2(CO)C1C	C[C@H]1[C@H]2O[C@@]2(CO)[C@H]1C	
InChI=1S/C7H12O2/c1-4-5(2)7(3-8)6(4)9-7/h4-6,8H,3H2,1-2H3	InChI=1S/C7H12O2/c1-4-5(2)7(3-8)6(4)9-7/h4-6,8H,3H2,1-2H3/t4-,5+,6-,7+/m1/s1
