16
gdb 73874	2.27483	1.65805	0.97061	4.0059	76.64	-0.2543	-0.0748	0.1795	1156.862	0.123663	-437.930628	-437.922115	-437.921171	-437.964039	30.472	
C	 0.2930386667	 1.3770660482	-0.176339457	-0.510943
C	 0.1320586549	-0.101878224	-0.1401750686	 0.184365
C	-0.0356038089	-0.9797978202	-1.1495308484	 0.040126
C	-0.1093947007	-0.7287924753	-2.6018588283	 0.0776
O	-0.0236048928	 0.3651814145	-3.1178360302	-0.274456
C	-0.1467540541	-2.3382052313	-0.5878562068	 0.36237
N	-0.3108723685	-3.409823084	-1.2390231887	-0.54708
O	-0.0409955421	-2.2459730868	 0.7791899482	-0.251151
C	 0.1360118929	-0.8792949092	 1.1481543891	-0.171088
H	 1.2433149644	 1.66888829	 0.288464687	 0.142744
H	 0.2631544986	 1.7453097745	-1.200347614	 0.1835
H	-0.4992185023	 1.8613701218	 0.4085016299	 0.142787
H	-0.2537647513	-1.6453009775	-3.2045542984	 0.121246
H	-0.3567100269	-4.2166613437	-0.616324315	 0.227825
H	 1.0812406653	-0.7670176741	 1.6969768631	 0.136077
H	-0.6775409752	-0.5723910029	 1.8198710281	 0.136075
105.7337	109.7577	157.2811	204.7325	215.7851	249.8002	293.4746	404.7339	480.0115	517.5206	617.851	686.5206	732.4729	799.1712	862.1707	948.3512	949.6162	985.0379	1052.3308	1072.8092	1087.0674	1097.2329	1175.1309	1202.5721	1234.4379	1355.6004	1385.5726	1405.1485	1435.6233	1466.2113	1492.8283	1493.4405	1682.2356	1764.2023	1787.2444	2965.1293	3008.77	3025.5884	3039.0163	3070.4749	3170.8405	3492.0588
CC1=C(C=O)C(=N)OC1	C[C]1C(=C([NH])OC1)C=O	
InChI=1S/C6H7NO2/c1-4-3-9-6(7)5(4)2-8/h2,7H,3H2,1H3	InChI=1S/C6H7NO2/c1-4-3-9-6(7)5(4)2-8/h2,7H,3H2,1H3
