18
gdb 108657	2.02131	1.68094	0.98507	6.3082	77.06	-0.2246	-0.0093	0.2153	1204.1987	0.147986	-439.150895	-439.141834	-439.14089	-439.18502	33.314	
C	 0.0331305511	 1.598548624	-0.1531770151	-0.37354
C	-0.0785958282	 0.0732712051	 0.0162891437	-0.307298
C	 0.6100007157	-0.43441114	 1.2472087794	 0.040006
C	 0.1058010211	-0.9506761028	 2.38713775	 0.220427
N	-1.1861376883	-1.226357269	 2.743255038	-0.587863
C	 1.2451693202	-1.3137602715	 3.3062736504	-0.158223
O	 2.4219903691	-0.9487353577	 2.6079840844	-0.237862
C	 2.0714658711	-0.4272632991	 1.3705133296	 0.413117
O	 2.9061403849	-0.0530119484	 0.5910828627	-0.368178
H	 1.0843728696	 1.8937424284	-0.1941140802	 0.152117
H	-0.4526382558	 1.9239789699	-1.0783667423	 0.110341
H	-0.4374278461	 2.1260421283	 0.6831082996	 0.105383
H	-1.1338686152	-0.2279226464	 0.023243553	 0.083001
H	 0.3706489917	-0.4107377028	-0.8592932523	 0.127199
H	-1.9164755537	-0.7775318873	 2.2126241362	 0.264676
H	-1.3914231792	-1.3043950961	 3.7271049545	 0.259938
H	 1.1985939723	-0.7688778363	 4.2593950352	 0.122743
H	 1.2628881895	-2.3885831782	 3.5287506433	 0.134015
47.6523	123.5863	171.9622	198.5108	230.8685	280.4803	314.161	349.875	405.099	465.4089	556.1029	577.2093	605.5309	680.1935	741.4617	769.1526	788.1431	945.373	950.1191	1026.2304	1033.3619	1077.5986	1090.3078	1103.9333	1203.6528	1210.6227	1252.8177	1310.4401	1353.6514	1366.7656	1403.2114	1424.3895	1479.7046	1497.0388	1501.3522	1511.7089	1651.3509	1732.0497	1854.0239	3010.9631	3020.4775	3037.325	3046.2655	3056.967	3104.4846	3129.4229	3581.7003	3685.4707
CCC1=C(N)COC1=O	CCC1=C(N)COC1=O	
InChI=1S/C6H9NO2/c1-2-4-5(7)3-9-6(4)8/h2-3,7H2,1H3	InChI=1S/C6H9NO2/c1-2-4-5(7)3-9-6(4)8/h2-3,7H2,1H3
