17
gdb 79550	2.5648	1.7255	1.23537	3.7375	77.33	-0.2543	0.0147	0.269	1021.8269	0.136632	-380.81909	-380.81136	-380.810416	-380.851194	29.811	
C	-0.171745233	 1.4682345024	-0.075880028	-0.323811
N	 0.1138223936	 0.0456858029	 0.0505585296	-0.075271
C	 1.4275330582	-0.5149931201	-0.1601616675	-0.057175
C	 2.5710505645	 0.3223040404	 0.3880782313	-0.126142
C	 3.2236593395	-0.3891907295	 1.5343713949	-0.320457
C	 1.8947806829	 0.3036000068	 1.7808747516	 0.199439
C	 1.7627136725	 1.3750537263	 2.7152053566	 0.204288
N	 1.6426252638	 2.2381350943	 3.4776448716	-0.355454
C	 0.7566219631	-0.5352456258	 1.2030999207	-0.143757
H	 0.6186325206	 2.1301002807	 0.3013542235	 0.123928
H	-0.3388426984	 1.6940037212	-1.1332714649	 0.127912
H	-1.0929917627	 1.6889102853	 0.4704670049	 0.136264
H	 1.5406712306	-1.3288471394	-0.8677521578	 0.110248
H	 3.0299510367	 1.1824502769	-0.0834278069	 0.120227
H	 3.2508511802	-1.4747933449	 1.5585160828	 0.128016
H	 4.090790996	 0.0966520592	 1.9712885024	 0.140744
H	 0.270525242	-1.3525257765	 1.7239533854	 0.111001
114.4704	155.8136	188.4863	233.2224	281.0588	382.0776	466.1222	526.3814	554.9023	583.453	666.4759	743.4115	802.1798	830.1649	862.2467	914.0165	938.0344	977.049	1000.248	1027.0585	1050.1956	1054.4085	1090.3503	1105.665	1155.2724	1182.6215	1204.0799	1246.5295	1262.7104	1284.9373	1346.2906	1362.1747	1453.5421	1488.8306	1492.147	1499.4177	2344.2538	3016.0782	3087.2309	3116.2013	3121.1309	3172.625	3182.9363	3196.143	3211.8431
CN1C2C3CC3(C#N)C12	CN1[C@H]2[C@@H]3C[C@]3(C#N)[C@@H]12	
InChI=1S/C7H8N2/c1-9-5-4-2-7(4,3-8)6(5)9/h4-6H,2H2,1H3	InChI=1S/C7H8N2/c1-9-5-4-2-7(4,3-8)6(5)9/h4-6H,2H2,1H3/t4-,5-,6-,7+,9?/m0/s1
