19
gdb 70847	2.90656	1.89161	1.45835	1.4475	77.89	-0.2386	0.0927	0.3313	965.2357	0.158506	-385.826212	-385.818681	-385.817736	-385.857539	30.996	
C	-0.0021229279	 1.424308326	-0.1300247442	-0.518814
C	-0.0637120255	-0.0687110117	-0.0274472063	 0.457241
O	 0.2449314623	-0.7890820189	-1.2467620446	-0.360804
C	-0.4434751082	-1.9132115956	-0.6439705472	 0.457248
C	-0.906908241	-2.9701687491	-1.598691458	-0.518814
C	 0.3269046117	-2.2636631388	 0.6687860509	-0.139222
C	-0.6615165292	-1.5390141367	 1.5551016727	-0.111526
C	 0.6185204281	-0.8470963939	 1.1423164376	-0.139253
C	-1.3121367045	-0.971892878	 0.2592733775	-0.221613
H	 1.0207008887	 1.750524414	-0.3489305825	 0.129775
H	-0.6558939242	 1.7874188308	-0.9281105183	 0.12696
H	-0.3119220297	 1.883241452	 0.8140245237	 0.12443
H	-0.0495313102	-3.4492583332	-2.0843688555	 0.129736
H	-1.472361764	-3.7414374226	-1.066487879	 0.124443
H	-1.5451368183	-2.5404151363	-2.3759806405	 0.126985
H	 0.9632050549	-3.1109676216	 0.8879899385	 0.086388
H	-1.0537819242	-1.7844052495	 2.5307638608	 0.090219
H	 1.4842145009	-0.5800927926	 1.7340385941	 0.086394
H	-2.3462710497	-0.6943258944	 0.0659493503	 0.070227
201.5711	207.5124	216.34	243.965	282.8107	326.445	555.7552	592.9792	594.0455	604.8068	746.0968	791.1212	797.0942	817.8311	830.9975	851.9941	861.0424	875.9919	892.7571	904.8072	995.0169	997.8976	1029.6178	1037.3894	1047.5108	1093.1083	1145.0163	1150.3907	1178.505	1200.0972	1203.268	1242.3169	1302.3907	1316.96	1386.0508	1409.3931	1430.7826	1477.9806	1479.8033	1489.7868	1492.3294	3034.7407	3035.0646	3103.1701	3103.1963	3115.6232	3115.9316	3139.2207	3196.7446	3203.5479	3227.3761
CC12OC3(C)C4C(C14)C23	C[C@@]12O[C@@]3(C)[C@@H]4[C@@H]([C@H]14)[C@@H]23	
InChI=1S/C8H10O/c1-7-4-3-5(4)8(2,9-7)6(3)7/h3-6H,1-2H3	InChI=1S/C8H10O/c1-7-4-3-5(4)8(2,9-7)6(3)7/h3-6H,1-2H3/t3-,4+,5-,6+,7-,8+
