19
gdb 53807	3.41453	1.03328	0.87603	0.3635	76.99	-0.236	-0.0805	0.1555	1370.9514	0.157054	-423.051091	-423.041416	-423.040471	-423.087493	33.76	
C	-0.3374676926	 1.4300518094	 0.238006147	-0.474783
C	-0.3443008305	-0.0644534491	 0.0343132289	 0.306417
O	-0.6270410739	-0.8663963605	 0.8944413353	-0.276467
C	 0.0408120505	-0.5626688578	-1.3830677165	 0.248763
O	 0.3189397717	 0.2464087702	-2.2408440686	-0.291634
C	-0.0107680651	-2.0474382605	-1.6022625325	-0.054298
C	-1.4251578035	-2.6236875547	-1.9785603772	-0.225383
C	-0.7254893789	-3.5181310251	-3.0360617951	-0.208087
C	 0.5304581831	-2.6107318761	-2.9383901553	-0.243663
H	 0.655256331	 1.8334802825	 0.0143293906	 0.15623
H	-1.0235346544	 1.907418645	-0.468872487	 0.155643
H	-0.6222156054	 1.6642008273	 1.2638915734	 0.139958
H	 0.3710500136	-2.5630907366	-0.7191230721	 0.102748
H	-1.9815261505	-3.1069710021	-1.1743078693	 0.117879
H	-2.0584185375	-1.8615810512	-2.4416654909	 0.110902
H	-0.5350693052	-4.5233958215	-2.650538787	 0.107112
H	-1.2082157593	-3.6062885032	-4.0117089017	 0.10313
H	 0.544303579	-1.8291278353	-3.7018272456	 0.123423
H	 1.5076948379	-3.0971660405	-2.9111147963	 0.102108
33.4104	43.8518	97.4567	102.9702	150.9706	224.3962	299.1261	325.9664	409.5545	505.0183	582.7184	620.8704	703.4046	748.5388	787.2476	839.2815	893.5826	934.5299	939.4878	959.1082	1001.0649	1013.06	1039.7937	1095.938	1130.1902	1207.4789	1226.2928	1240.3972	1248.4971	1258.7917	1277.9537	1282.0662	1373.0777	1385.1029	1451.8793	1459.3402	1477.9753	1485.8075	1506.7218	1790.4736	1804.7476	3049.6853	3061.4372	3062.5145	3070.7491	3095.2625	3108.9513	3110.8767	3125.0798	3134.298	3161.6672
CC(=O)C(=O)C1CCC1	CC(=O)C(=O)C1CCC1	
InChI=1S/C7H10O2/c1-5(8)7(9)6-3-2-4-6/h6H,2-4H2,1H3	InChI=1S/C7H10O2/c1-5(8)7(9)6-3-2-4-6/h6H,2-4H2,1H3
