16
gdb 6646	7.25082	0.80705	0.73621	2.9151	67.3	-0.2794	0.0171	0.2965	1459.5875	0.129306	-379.94618	-379.937252	-379.936308	-379.980716	30.33	
C	-0.2097375924	 1.4352187773	 0.0129518923	-0.442456
C	 0.1081195447	-0.0314765873	 0.0010464641	 0.409215
N	 1.2965806465	-0.467219121	-0.0133874252	-0.510845
O	-1.0556247383	-0.7553206013	 0.0082725852	-0.242976
C	-0.960611465	-2.1692202613	-0.0013812751	-0.08599
C	-2.4015714831	-2.6917654603	 0.0094824189	-0.345046
C	-2.4476312222	-4.1508719188	 0.0009374855	 0.249022
N	-2.4646568646	-5.3058243121	-0.0060107498	-0.293765
H	 0.7163410599	 2.0077834635	 0.0077483282	 0.152866
H	-0.8133538597	 1.6987991392	-0.8610622216	 0.141109
H	-0.7969077292	 1.6880917827	 0.9012084337	 0.141095
H	 1.3582532239	-1.4838795787	-0.0201010144	 0.221633
H	-0.4333511365	-2.5189005399	-0.8979093854	 0.134583
H	-0.4159727533	-2.5298717301	 0.8802925749	 0.134583
H	-2.9197882211	-2.31692514	 0.8981044487	 0.168487
H	-2.9369910997	-2.3060507618	-0.86416258	 0.168484
56.354	85.3726	101.3685	142.5429	169.919	228.4447	335.9885	398.6749	423.1531	542.7791	557.4175	619.2198	799.8658	868.1709	877.3914	968.2324	992.9792	1059.7359	1076.1966	1094.9662	1095.0943	1134.6935	1229.1231	1301.9382	1307.368	1317.8061	1403.0918	1428.7205	1470.4195	1474.081	1478.1421	1524.5571	1743.6373	2368.9919	3017.8566	3051.9769	3058.6396	3061.181	3103.7394	3110.1472	3172.2355	3506.6107
CC(=N)OCCC#N	C[C]([NH])OCCC#N	
InChI=1S/C5H8N2O/c1-5(7)8-4-2-3-6/h7H,2,4H2,1H3	InChI=1S/C5H8N2O/c1-5(7)8-4-2-3-6/h7H,2,4H2,1H3
