17
gdb 88355	2.15599	1.3166	0.90107	1.715	79.95	-0.2628	0.0312	0.2939	1297.5229	0.131613	-384.593934	-384.584122	-384.583178	-384.629226	35.435	
C	-1.102345332	 0.853099817	 0.7343863318	-0.422234
C	-0.0679718966	-0.0377093936	 0.0963530067	 0.082023
O	 1.0176256912	 0.5891912524	-0.6082835453	-0.256885
C	 1.3240147182	-0.1843611072	 0.543890043	 0.06421
C	 1.9098744432	 0.5699629898	 1.7460280252	-0.393669
C	 1.6343886861	-0.1681610315	 2.983537063	 0.338771
C	 1.3838807298	-0.7926008289	 3.9780495562	-0.45401
C	 3.3464714606	 0.7997643139	 1.5571700356	 0.325633
C	 4.5200870712	 0.9779218341	 1.3788945662	-0.427946
H	-0.654457743	 1.7081788125	 1.2443642318	 0.129264
H	-1.7848568638	 1.2391980574	-0.0295201734	 0.132571
H	-1.6938927042	 0.2851373498	 1.4597896443	 0.133213
H	-0.4856813653	-0.8937222043	-0.4375042238	 0.094086
H	 1.8378317942	-1.1246663668	 0.3432317748	 0.109339
H	 1.4136869632	 1.546707013	 1.7975520442	 0.141353
H	 1.172512233	-1.3362315638	 4.8655913822	 0.202806
H	 5.5581352943	 1.1430189264	 1.2272589676	 0.201476
38.9803	105.0251	122.5276	147.4666	159.9119	233.2032	324.8686	338.4431	415.3354	446.979	502.7632	559.8951	563.5721	639.7166	645.0961	650.5548	654.2213	780.704	852.924	914.3564	978.5665	996.4965	1035.0502	1089.8825	1103.605	1171.7837	1178.6993	1235.8486	1298.5291	1304.2151	1390.0404	1415.8155	1463.1803	1488.267	1508.393	2241.6252	2247.6014	3035.9594	3044.2598	3086.1748	3106.4676	3113.274	3134.263	3502.9182	3504.1294
CC1OC1C(C#C)C#C	C[C@H]1O[C@H]1C(C#C)C#C	
InChI=1S/C8H8O/c1-4-7(5-2)8-6(3)9-8/h1-2,6-8H,3H3	InChI=1S/C8H8O/c1-4-7(5-2)8-6(3)9-8/h1-2,6-8H,3H3/t6-,8-/m1/s1
