21
gdb 77941	2.92491	1.35939	1.06566	1.806	83.85	-0.2514	0.0941	0.3455	1204.9134	0.181707	-387.006888	-386.998025	-386.997081	-387.040364	34.023	
C	-0.0109957166	 1.6213696899	-0.200115797	-0.45187
C	 0.006498157	 0.0973296685	-0.1204291378	 0.069449
C	 1.0400325449	-0.780766784	-0.9053835619	-0.203869
C	 2.1120014247	-0.5557188755	 0.2327554759	 0.063097
C	 2.9834489547	 0.6861068183	 0.4057148325	-0.456627
C	 0.7442332794	-0.7538475688	 0.9799329989	-0.203701
C	 0.5385839476	-1.9185232568	-0.0021246591	 0.559246
C	-0.3838418149	-3.0330537224	-0.1334244688	-0.322325
O	 1.0388621259	-3.2245953556	 0.0978858613	-0.308868
H	 0.9526472069	 2.0712474652	-0.4318447867	 0.126036
H	-0.7038802057	 1.9291046595	-0.9908703965	 0.115475
H	-0.3766537494	 2.060636133	 0.7350274252	 0.117283
H	-1.0229767414	-0.2560173774	-0.2575774944	 0.068487
H	 1.2074349259	-0.8113859207	-1.9832797401	 0.071376
H	 2.7573495584	-1.4348745078	 0.3267922774	 0.092311
H	 2.4418554507	 1.5799030127	 0.7117943507	 0.122873
H	 3.7342957285	 0.4898443487	 1.1787938278	 0.117045
H	 3.5276992226	 0.9168526654	-0.5172349296	 0.117641
H	 0.5642025689	-0.7515797241	 2.0562228958	 0.071329
H	-1.0242228947	-3.3211043693	 0.6990502033	 0.117833
H	-0.7329632733	-3.348346319	-1.1156648571	 0.117778
83.8658	101.8273	169.7663	205.5765	235.1214	312.6119	336.7048	362.0243	434.0448	477.9146	577.1294	696.8641	716.2298	773.5871	792.0084	800.6089	877.7009	882.8044	990.2393	1007.6602	1024.8874	1048.218	1076.5376	1085.4066	1095.1811	1109.2131	1120.4438	1122.4378	1131.414	1151.7757	1177.8735	1209.6758	1217.5696	1249.1925	1278.8032	1403.4839	1418.0047	1424.2266	1450.01	1468.2798	1495.437	1495.7651	1498.9858	1528.2612	1561.0074	3018.003	3035.51	3038.3327	3052.0595	3082.9867	3087.0269	3087.9858	3099.3951	3104.2895	3143.1402	3167.1335	3167.7994
CC1C2C(C)C1C21CO1	C[C@H]1[C@H]2[C@@H](C)[C@@H]1[C@]12CO1	
InChI=1S/C8H12O/c1-4-6-5(2)7(4)8(6)3-9-8/h4-7H,3H2,1-2H3	InChI=1S/C8H12O/c1-4-6-5(2)7(4)8(6)3-9-8/h4-7H,3H2,1-2H3/t4-,5+,6-,7+,8-
