19
gdb 48153	5.11676	0.73131	0.69932	3.7378	81.05	-0.2323	-0.0678	0.1645	1630.8027	0.158997	-419.207948	-419.198662	-419.197718	-419.243795	33.311	
N	-0.1204478854	 1.4814477391	-0.0483524708	-0.518135
C	 0.0183301162	 0.2145171912	 0.0578764071	 0.287859
N	-1.0279777696	-0.6654413062	 0.0863510774	-0.340836
C	-2.4002613302	-0.270446294	-0.0978304694	 0.095732
C	-3.0975043157	-0.4522105705	-1.4800923996	-0.233477
C	-4.3844052263	-0.8565824529	-0.711014094	-0.210086
C	-3.5019844371	-1.1581235426	 0.5321008124	-0.249748
C	 1.3718320164	-0.4505625718	 0.1982033246	 0.105732
O	 2.402305425	 0.1678592794	 0.216002752	-0.23402
H	 0.8059975237	 1.9083576151	 0.0047764515	 0.233856
H	-0.8142252309	-1.6475536567	 0.0070063796	 0.236659
H	-2.4776997031	 0.766780552	 0.2323362459	 0.128725
H	-3.1331337765	 0.4123221167	-2.1456553813	 0.112892
H	-2.6715315881	-1.3017476867	-2.0241245335	 0.092972
H	-5.0415339375	 0.0001283439	-0.5405337729	 0.112131
H	-4.9795736063	-1.6765145121	-1.1164773629	 0.102419
H	-3.1950195931	-2.2103444014	 0.5525790111	 0.093072
H	-3.8726620446	-0.8849637236	 1.5225061764	 0.107796
H	 1.3621472529	-1.5620242089	 0.2856595565	 0.076458
21.9702	60.5897	104.1721	163.8246	202.1216	284.1235	347.9343	366.2304	395.5759	457.1686	578.1381	652.9093	740.0362	777.6931	788.2089	860.5487	904.76	925.6689	935.6363	949.4672	982.4921	1021.2407	1043.2614	1102.3733	1153.3533	1194.7327	1197.914	1235.2105	1247.2738	1257.1115	1271.7173	1292.1449	1316.2281	1392.1043	1437.9863	1474.9881	1486.781	1509.3336	1556.0626	1696.8218	1835.3571	2861.5444	3039.8873	3051.7545	3068.805	3099.8979	3111.8228	3116.1871	3129.88	3471.5969	3619.1425
N=C(NC1CCC1)C=O	N=C(NC1CCC1)C=O	
InChI=1S/C6H10N2O/c7-6(4-9)8-5-2-1-3-5/h4-5H,1-3H2,(H2,7,8)	InChI=1S/C6H10N2O/c7-6(4-9)8-5-2-1-3-5/h4-5H,1-3H2,(H2,7,8)
