21
gdb 123128	4.2938	0.60885	0.55516	5.6606	76.78	-0.2469	0.0296	0.2765	1973.1969	0.183339	-457.567094	-457.55687	-457.555925	-457.603612	36.109	
N	-0.0341573163	 1.3795768806	-0.2458226382	-0.506718
C	-0.1885207162	-0.066987687	-0.4062922683	-0.172853
C	-1.4311574219	-0.5406260497	 0.3469698357	-0.110002
N	-1.6142574412	-1.987642039	 0.2069250381	-0.311166
H	-2.097658123	-2.8291693864	-1.2880186768	 0.300156
H	-0.7865417278	-2.463547217	 0.5590620136	 0.229259
C	-2.7973199642	-2.5190047418	 0.9007503117	-0.157331
C	-3.0184134946	-3.9939688985	 0.5437773574	-0.351471
C	-3.293430088	-4.2717482374	-0.9406223035	 0.405561
O	-2.6297631419	-3.4900424396	-1.8042968149	-0.375567
O	-4.034250965	-5.1452799945	-1.3077315694	-0.331807
H	 0.8582951334	 1.6767624579	-0.626540375	 0.233604
H	-0.74447094	 1.8642095175	-0.7873342087	 0.230063
H	-0.2552953271	-0.411279954	-1.4515861199	 0.099513
H	 0.6980089095	-0.547815076	 0.0276838806	 0.102985
H	-1.3569155213	-0.2246117645	 1.3990005418	 0.107271
H	-2.3209307426	-0.0514404471	-0.0696686078	 0.112222
H	-2.7257006193	-2.4033906633	 1.9932941416	 0.105001
H	-3.6601139482	-1.925827668	 0.5758400622	 0.127829
H	-2.1324633815	-4.5778414547	 0.8306152834	 0.125047
H	-3.8572810127	-4.4035730274	 1.1094956863	 0.138404
49.5854	70.0567	82.7952	123.7274	169.0202	216.3304	247.9403	263.7514	325.4845	373.156	461.9173	521.948	579.1893	705.4151	798.7982	809.5689	829.7564	865.0033	897.4761	967.0539	987.4693	998.0409	1048.6324	1083.1431	1088.4408	1125.8881	1134.7159	1164.0547	1232.8937	1278.5311	1282.0078	1299.4255	1325.2738	1350.4506	1359.0781	1402.9914	1442.5793	1458.2829	1486.4262	1500.0059	1504.1177	1515.0934	1523.8797	1663.9022	1859.5525	2963.9749	2983.2053	2990.0021	3022.4621	3030.0333	3054.4831	3062.1602	3119.8433	3224.0654	3486.0542	3494.3428	3572.8657
NCC[NH2+]CCC([O-])=O	NCCNCCC(=O)O	
InChI=1S/C5H12N2O2/c6-2-4-7-3-1-5(8)9/h7H,1-4,6H2,(H,8,9)	InChI=1S/C5H12N2O2/c6-2-4-7-3-1-5(8)9/h7H,1-4,6H2,(H,8,9)
