23
gdb 40090	3.25315	1.30622	1.10263	0.2205	89.05	-0.26	0.0779	0.3379	1207.4189	0.208375	-351.148063	-351.140018	-351.139074	-351.181545	32.672	
C	-0.3249580985	 1.3693587549	 0.2347442249	-0.319306
C	 1.1028185839	 0.9835780887	-0.0769315724	-0.326268
C	 0.0468401106	-0.0741905461	 0.0524286612	 0.383835
C	-0.004582352	-1.1842137999	 1.114814816	-0.334242
C	-0.5404188908	-2.1667196282	 0.0286046659	 0.02316
C	-2.0281356213	-2.569971165	 0.0761180317	-0.222316
C	-2.5644474884	-2.1964057549	-1.3191210416	-0.188931
C	-1.8590946055	-0.8623835774	-1.6386096031	-0.226164
C	-0.4404872773	-1.0335292586	-1.0522339268	-0.087369
H	-0.5561263486	 1.7137617477	 1.2382365069	 0.107092
H	-0.903128228	 1.8559732377	-0.5448991451	 0.109806
H	 1.4845480497	 1.2063769359	-1.0689288483	 0.107067
H	 1.8427260079	 1.068579406	 0.7133690913	 0.106611
H	 0.9724475884	-1.4550872609	 1.5263367225	 0.095109
H	-0.6909176813	-1.0087250372	 1.9501710805	 0.092301
H	 0.104155896	-3.0310201706	-0.1463187438	 0.06261
H	-2.1782391664	-3.6251291082	 0.3230621107	 0.091818
H	-2.5548613251	-1.9841290852	 0.8398428157	 0.093844
H	-2.2635697562	-2.9595931177	-2.0480985519	 0.094696
H	-3.6560077149	-2.1257826238	-1.3574132133	 0.090443
H	-1.8553392853	-0.6329868571	-2.708227227	 0.089392
H	-2.379728709	-0.0395799554	-1.1347886388	 0.096829
H	 0.3037228619	-1.2073020747	-1.8348063354	 0.059984
19.6711	178.2069	216.3641	249.7022	304.2188	372.9908	459.7755	500.8194	553.403	657.897	755.0767	776.0912	801.689	826.6142	863.0851	873.1647	894.8969	903.7922	936.1549	944.467	970.6153	984.284	998.5329	1040.1602	1050.7578	1056.3062	1074.4581	1090.2864	1143.8582	1170.2022	1185.7074	1188.9045	1204.0508	1239.4063	1250.2081	1267.9723	1276.4796	1304.7413	1318.2114	1331.1004	1339.0893	1350.2627	1376.4224	1464.22	1482.3319	1490.3885	1492.5445	1501.3552	1506.3722	3024.6739	3028.8769	3035.856	3037.0505	3051.577	3067.6505	3080.6035	3082.5306	3087.9787	3095.6336	3115.711	3120.1166	3192.4436	3207.8284
C1CC11CC2CCCC12	C1CC21C[C@H]1CCC[C@@H]21	
InChI=1S/C9H14/c1-2-7-6-9(4-5-9)8(7)3-1/h7-8H,1-6H2	InChI=1S/C9H14/c1-2-7-6-9(4-5-9)8(7)3-1/h7-8H,1-6H2/t7-,8-/m1/s1
