23
gdb 117621	2.55218	0.75444	0.6743	1.1814	91.57	-0.2412	0.0642	0.3055	1810.2104	0.201917	-388.26875	-388.256703	-388.255759	-388.30768	42.072	
C	 0.0374095909	 1.438580649	 0.1017581283	-0.498081
C	 0.0234052609	-0.0166887303	 0.037565182	 0.035225
C	 0.0115997584	-1.2200785196	-0.0159550445	 0.099256
C	-0.0008925213	-2.688568473	-0.0781450835	 0.042969
C	-1.471518906	-3.1702353166	-0.0993555207	-0.401162
C	 0.7075914292	-3.1346249283	-1.3797786885	-0.401158
C	 0.7465673264	-3.2164186322	 1.1791546303	-0.165149
C	 0.8553557517	-4.7321520186	 1.3200512571	-0.103025
O	 1.5676035167	-4.9786728221	 2.5261757333	-0.420991
H	 1.0615402914	 1.8282527212	 0.1012027482	 0.145891
H	-0.4843420761	 1.8813847148	-0.7540835316	 0.144752
H	-0.4531620994	 1.8026911409	 1.0113982807	 0.145908
H	-2.0084272826	-2.7148913818	-0.9361847296	 0.11938
H	-1.5294571704	-4.2572286662	-0.2127601991	 0.109423
H	-1.9870272945	-2.8910173707	 0.8241927266	 0.119944
H	 1.7581580344	-2.8297374569	-1.376524539	 0.119942
H	 0.6632143418	-4.2214178473	-1.5009775154	 0.109447
H	 0.226722078	-2.6784644173	-2.2495878975	 0.119369
H	 1.7605525112	-2.802419238	 1.1851429718	 0.110203
H	 0.2477543142	-2.8284435746	 2.0737243744	 0.110172
H	-0.1440742974	-5.1915757472	 1.3559126374	 0.08679
H	 1.3853882792	-5.1652222066	 0.4582052599	 0.08681
H	 1.6463813133	-5.9304993085	 2.6371680292	 0.284087
18.1656	62.4073	76.3083	91.7939	131.8328	213.6444	249.0866	264.0504	271.446	291.8279	295.8841	325.155	359.5228	362.4388	415.3858	548.5193	561.0267	689.8374	794.2757	826.9733	937.5089	976.8146	992.8418	1022.8951	1053.6478	1054.0209	1056.8637	1069.1017	1077.9557	1191.9551	1222.3538	1226.3358	1260.7516	1276.4309	1324.9083	1350.5565	1395.37	1414.6065	1418.156	1460.0193	1479.4204	1479.6595	1481.5954	1486.7051	1491.4656	1501.2977	1512.5242	1530.3914	2366.4712	2978.1409	3004.9549	3025.0319	3036.0802	3039.8384	3046.0944	3084.6881	3085.0123	3089.2644	3107.3627	3111.9652	3114.3765	3116.8039	3829.527
CC#CC(C)(C)CCO	CC#CC(C)(C)CCO	
InChI=1S/C8H14O/c1-4-5-8(2,3)6-7-9/h9H,6-7H2,1-3H3	InChI=1S/C8H14O/c1-4-5-8(2,3)6-7-9/h9H,6-7H2,1-3H3
