21
gdb 79956	2.51651	1.58064	1.36793	1.5394	82.88	-0.2233	0.009	0.2323	1067.8015	0.182339	-387.086771	-387.078116	-387.077172	-387.119106	35.062	
C	-0.1820292481	 1.6126003288	 0.0387178661	-0.427923
C	 0.0020039655	 0.0817255131	 0.0117085757	 0.251956
C	-1.3811266029	-0.596536843	-0.0801002137	-0.416033
C	 0.8716130819	-0.3939351582	-1.145189734	-0.131208
C	 1.8398741828	-1.2311741369	-0.7576120087	-0.110486
C	 1.8917532282	-1.3734329019	 0.7256741864	-0.154264
C	 2.2110354096	-0.0828850778	 1.4559971274	 0.113832
O	 2.8555814432	 0.9954590091	 0.8498056553	-0.424479
C	 0.7668741958	-0.4544553829	 1.2354072921	-0.134002
H	 0.7734578578	 2.1274793411	 0.1525960192	 0.134017
H	-0.665884595	 1.9619393606	-0.8804822147	 0.104146
H	-0.8216021842	 1.9035261562	 0.8788408442	 0.112646
H	-1.9018147465	-0.3015453676	-0.9977053926	 0.109213
H	-1.285832319	-1.6863447501	-0.0784482311	 0.117442
H	-2.0085526159	-0.3040289438	 0.7697785387	 0.110668
H	 0.6738447716	-0.0894688161	-2.1682696474	 0.09381
H	 2.5452799511	-1.723322635	-1.4185190979	 0.100637
H	 2.1484072741	-2.3261173922	 1.1763370497	 0.085531
H	 2.5694313071	-0.1943673932	 2.4748421103	 0.105563
H	 2.78182523	 0.8742976989	-0.106156899	 0.280271
H	 0.1821033228	-0.726389319	 2.1086147238	 0.078664
155.0828	170.8357	234.5884	262.9821	270.3423	296.3831	333.2539	361.3829	381.892	481.4596	582.6694	594.5796	662.5515	734.1808	746.3445	776.729	804.1448	854.7206	905.6517	944.8434	962.6779	967.9312	998.8527	1015.5323	1026.1665	1043.6155	1054.9693	1103.0268	1128.4399	1170.7135	1193.0628	1225.4248	1254.0629	1297.9157	1326.6898	1349.1016	1378.7836	1393.2844	1420.9855	1446.5848	1484.4994	1488.1583	1502.6595	1514.2633	1655.2943	3023.5007	3032.2791	3088.9289	3094.4377	3107.784	3135.7897	3150.8206	3156.244	3168.5037	3174.8314	3200.0273	3747.1334
CC1(C)C=CC2C(O)C12	CC1(C)C=C[C@H]2[C@@H](O)[C@@H]12	
InChI=1S/C8H12O/c1-8(2)4-3-5-6(8)7(5)9/h3-7,9H,1-2H3	InChI=1S/C8H12O/c1-8(2)4-3-5-6(8)7(5)9/h3-7,9H,1-2H3/t5-,6+,7-/m1/s1
