22
gdb 119775	3.67637	0.87899	0.74184	0.799	85.54	-0.241	0.0389	0.28	1617.7194	0.194248	-404.386027	-404.376328	-404.375383	-404.421131	35.564	
C	-0.1291547541	 1.5094986933	-0.0000144852	-0.391251
C	-0.015059172	-0.002830792	 0.0062190873	-0.035991
O	-1.3486005752	-0.5400749828	 0.0383106547	-0.267619
C	-1.446519171	-1.8727436776	 0.0515702038	 0.419614
N	-0.4643862644	-2.682326023	 0.0448319746	-0.323858
C	-1.0004179219	-4.0547039724	 0.0337751483	 0.071435
C	-0.2218518133	-4.960707684	 0.9835862388	-0.382388
C	-2.5150360649	-3.9314256963	 0.3759664097	-0.226748
C	-2.8383139453	-2.4640564728	 0.0433897784	-0.327937
H	 0.8684162356	 1.9579929204	-0.0268464117	 0.120266
H	-0.6862599889	 1.8552552122	-0.8755126009	 0.12712
H	-0.6436224762	 1.8661332618	 0.8969291467	 0.127182
H	 0.4985025803	-0.3816066967	-0.884020715	 0.117661
H	 0.5365441855	-0.3714881526	 0.8777123114	 0.11852
H	-0.8814519073	-4.4474557299	-0.9873476411	 0.073521
H	-0.2901084596	-4.5877794421	 2.0113146907	 0.111457
H	-0.6194767476	-5.9811384836	 0.9611290853	 0.106167
H	 0.8352526327	-4.9952927134	 0.7058948524	 0.120995
H	-3.1334971688	-4.648702341	-0.1687107164	 0.099575
H	-2.6627952209	-4.1155676623	 1.4457694333	 0.102744
H	-3.5044742561	-1.9699310671	 0.7555751732	 0.118682
H	-3.2843165666	-2.3410098281	-0.9513443083	 0.120853
55.4941	96.6675	121.003	148.1975	195.3874	246.2681	259.5389	316.5363	355.6662	450.3531	485.9744	556.8023	627.673	705.7411	808.0704	821.2831	836.6834	898.328	912.0667	965.051	981.4161	1006.0981	1059.0765	1085.8669	1111.8399	1131.3326	1142.1756	1183.5464	1193.1907	1225.2221	1282.7283	1288.7308	1306.2886	1324.1317	1358.0093	1375.4856	1402.9918	1407.8124	1432.7141	1477.3113	1485.2273	1487.8454	1496.5923	1496.9818	1501.959	1520.8728	1711.2507	2983.5948	3031.5488	3037.9742	3043.9987	3044.8984	3047.2711	3080.1275	3092.31	3099.9589	3106.277	3114.9894	3119.4368	3123.0668
CCOC1=NC(C)CC1	CCO[C]1[N][C@@H](C)CC1	
InChI=1S/C7H13NO/c1-3-9-7-5-4-6(2)8-7/h6H,3-5H2,1-2H3	InChI=1S/C7H13NO/c1-3-9-7-5-4-6(2)8-7/h6H,3-5H2,1-2H3/t6-/m0/s1
