15
gdb 9077	6.04865	0.91494	0.83783	0.7869	63.35	-0.2967	-0.0103	0.2863	1284.2312	0.11717	-399.836072	-399.827326	-399.826382	-399.870522	29.317	
C	 0.0462299374	 1.4935003521	-0.2328441498	-0.401754
C	 0.0414122317	-0.0321994853	-0.0287884852	-0.14095
C	 0.661123103	-0.795490015	-1.2161673646	-0.083716
O	-0.1314894329	-0.5598255061	-2.3770309154	-0.183315
C	 0.4793989429	-0.1094582561	-3.4965651888	 0.173107
O	-0.1130177686	 0.0976288185	-4.5091050497	-0.261229
C	 0.7560017722	-0.4081927628	 1.1943925926	 0.258939
N	 1.3387386047	-0.7056545845	 2.1468227528	-0.309041
H	 1.0683090922	 1.8700147395	-0.3350952287	 0.137397
H	-0.5161569386	 1.7443352653	-1.1345651511	 0.150416
H	-0.4184035573	 1.9970157177	 0.6174589985	 0.14786
H	-0.9950053288	-0.3756682274	 0.0745743583	 0.149764
H	 1.6957928036	-0.4687295695	-1.3793853405	 0.129337
H	 0.6646589781	-1.8707402607	-1.0162346885	 0.145419
H	 1.5677821403	 0.0397128942	-3.3584548998	 0.087766
44.8278	67.6968	132.9006	172.5014	216.0227	251.8441	291.7537	372.1372	401.9851	527.4585	558.0505	684.428	823.5542	921.131	936.7222	1043.1465	1046.4943	1087.4352	1117.482	1134.3088	1200.347	1291.0009	1314.2875	1348.1749	1397.4505	1414.5367	1436.2395	1495.7091	1499.6355	1507.4647	1875.2695	2360.8687	2954.4109	3030.4524	3047.9228	3055.1119	3097.0922	3130.1471	3143.4966
CC(COC=O)C#N	C[C@@H](COC=O)C#N	
InChI=1S/C5H7NO2/c1-5(2-6)3-8-4-7/h4-5H,3H2,1H3	InChI=1S/C5H7NO2/c1-5(2-6)3-8-4-7/h4-5H,3H2,1H3/t5-/m1/s1
