20
gdb 72438	2.33645	2.20359	1.5289	2.8197	76.99	-0.2302	0.0765	0.3066	949.2904	0.17369	-403.136563	-403.129397	-403.128453	-403.167561	30.208	
C	-0.016599538	 1.478208355	 0.0859281762	-0.487646
C	-0.0167598254	-0.0280560963	-0.0224723955	 0.408336
C	 0.7579592361	-0.6683016724	-1.2113915231	-0.248548
C	 1.1081598937	-2.0776982577	-0.6378571724	-0.217781
C	 0.4627895064	-1.9894430647	 0.7702867394	 0.052465
O	 0.65435453	-0.6157100292	 1.1051103472	-0.274729
C	-1.0527619408	-2.0788982053	 0.5592165529	-0.047402
N	-1.8147660064	-1.1075750189	 1.3730061512	-0.340061
C	-1.3795931798	-0.7440641006	 0.0085355297	-0.097955
H	 1.0070363913	 1.8590546475	 0.1494194573	 0.123007
H	-0.496895778	 1.9267025131	-0.7896101912	 0.112055
H	-0.5615617522	 1.7910141311	 0.9805072498	 0.13918
H	 0.155854184	-0.7159950388	-2.1234601993	 0.093343
H	 1.6579723219	-0.0886001419	-1.4316451817	 0.101994
H	 0.7024072475	-2.8976490015	-1.2375961809	 0.09423
H	 2.1879438062	-2.2208159362	-0.5567394368	 0.105045
H	 0.8970826113	-2.6222526983	 1.5443777951	 0.079594
H	-1.5149433485	-2.9960701086	 0.2115518998	 0.089557
H	-2.7981663424	-1.3678710753	 1.3302160003	 0.228722
H	-2.1038885369	-0.5857307308	-0.7831050979	 0.086595
196.2701	218.3196	266.1897	294.3237	350.2184	398.928	486.985	600.4156	625.9211	631.7626	769.5061	796.9316	840.0601	853.2417	875.072	884.4836	890.4127	905.6969	920.661	955.1242	977.7732	1021.1348	1029.0949	1069.9728	1099.8541	1118.8295	1140.7131	1176.1424	1201.8485	1211.3156	1233.4529	1254.6777	1265.6211	1307.1501	1314.6596	1341.3612	1356.8081	1409.1979	1420.268	1481.1983	1485.9064	1497.4142	1503.5816	3041.3533	3053.8841	3064.4126	3094.9854	3110.7866	3113.8855	3120.907	3123.5216	3168.0821	3179.7251	3491.2503
CC12CCC(O1)C1NC21	C[C@@]12CC[C@@H](O1)[C@H]1N[C@@H]21	
InChI=1S/C7H11NO/c1-7-3-2-4(9-7)5-6(7)8-5/h4-6,8H,2-3H2,1H3	InChI=1S/C7H11NO/c1-7-3-2-4(9-7)5-6(7)8-5/h4-6,8H,2-3H2,1H3/t4-,5-,6-,7+/m1/s1
