14
gdb 5416	5.32252	1.55085	1.20998	2.784	64.93	-0.2488	-0.035	0.2137	931.8143	0.109337	-378.76803	-378.761106	-378.760162	-378.79966	24.826	
O	 0.0153050144	 1.4277084544	 0.0083647334	-0.417591
C	-0.0033057414	 0.0146075539	 0.003672427	-0.156049
C	-1.4294810218	-0.4735468509	 0.0140426794	 0.309837
N	-1.5880090016	-1.802858705	 0.01216046	-0.301612
C	-2.842568464	-2.2478896553	 0.0210811152	 0.066654
N	-3.9602064704	-1.5185891475	 0.0317361562	-0.251504
C	-3.7783576502	-0.1953847454	 0.0334330055	 0.01799
C	-2.519171671	 0.3918871294	 0.024776935	-0.167792
H	 0.9311043121	 1.7181503267	 0.0013497046	 0.297016
H	 0.4932816575	-0.4043743965	-0.8854035081	 0.119494
H	 0.5082705885	-0.410529202	 0.881227355	 0.119511
H	-2.9707737916	-3.3281628896	 0.0195726781	 0.117162
H	-4.6777154985	 0.4169202844	 0.0420663368	 0.117789
H	-2.3788000321	 1.4639609434	 0.0262315518	 0.129096
62.6533	176.1586	221.4391	223.7341	378.5764	440.6523	501.3314	588.8465	689.5592	769.7066	824.7124	864.5098	992.4699	1009.7822	1024.6667	1041.022	1091.0333	1106.2632	1191.4311	1201.0478	1238.1567	1243.0219	1293.0021	1337.4766	1421.6061	1449.6973	1493.952	1509.5546	1600.9517	1622.5802	2980.0742	3006.2806	3153.0799	3160.9664	3235.1455	3848.1762
OCC1=NC=NC=C1	OCc1ncncc1	
InChI=1S/C5H6N2O/c8-3-5-1-2-6-4-7-5/h1-2,4,8H,3H2	InChI=1S/C5H6N2O/c8-3-5-1-2-6-4-7-5/h1-2,4,8H,3H2
