17
gdb 34502	4.23167	1.32267	1.16614	1.1843	87.51	-0.2109	-0.019	0.1919	1064.7429	0.13716	-347.498036	-347.49105	-347.490105	-347.529195	28.919	
C	 0.097608447	-1.1952216494	 0.0215266491	-0.426887
C	 0.0013853675	 0.0069426143	-0.001388409	 0.200044
C	-0.0518297767	 1.4154949619	-0.0539264684	 0.19317
C	-1.130901037	 2.2143539959	 0.0698422008	-0.192265
C	-0.7108073152	 3.6363015763	 0.0253130102	-0.071917
C	 0.4883098169	 4.0946134319	 0.9045289543	-0.065354
C	 1.3319841179	 2.9183342808	 1.3757151545	-0.228468
C	 1.191629437	 2.298796524	-0.0707276655	-0.169375
C	 0.6843238017	 3.7014623251	-0.5395186664	-0.08075
H	 0.164444448	-2.2542573067	 0.0468978154	 0.187011
H	-2.1496233694	 1.8822228797	 0.2212577198	 0.104166
H	-1.420895832	 4.4197226926	-0.211693522	 0.087411
H	 0.4641166102	 5.0831857154	 1.3474081062	 0.089155
H	 2.3606735699	 3.2421178136	 1.5524280444	 0.106748
H	 0.986021863	 2.3087990708	 2.2165588462	 0.100124
H	 2.0847244037	 1.8609250059	-0.5107290835	 0.078522
H	 0.9916629977	 4.274789228	-1.4054542762	 0.088664
117.9032	154.5998	347.6877	363.525	484.9907	494.6025	544.8742	562.4791	626.9437	635.3096	710.4094	746.179	776.7609	790.9715	829.6205	881.7025	884.2805	914.1998	967.6296	974.0756	996.9859	1012.2012	1051.7648	1075.3601	1089.1168	1132.2616	1167.5813	1193.6859	1227.6694	1257.4786	1267.8572	1307.3899	1329.8497	1373.2247	1488.8622	1638.6085	2215.7091	3046.7688	3106.3984	3139.0774	3177.6913	3181.3388	3194.5489	3221.4385	3504.6559
C#CC1=CC2C3CC1C23	C#CC1=C[C@H]2[C@H]3C[C@@H]1[C@@H]23	
InChI=1S/C9H8/c1-2-5-3-7-8-4-6(5)9(7)8/h1,3,6-9H,4H2	InChI=1S/C9H8/c1-2-5-3-7-8-4-6(5)9(7)8/h1,3,6-9H,4H2/t6-,7-,8+,9-/m0/s1
