21
gdb 76549	2.41626	1.21489	1.13883	1.2794	78.92	-0.2415	0.0634	0.305	1227.593	0.180946	-424.195179	-424.185424	-424.18448	-424.229559	36.611	
C	-0.2382926528	 1.4547154454	-0.0822739102	-0.405749
C	-0.0067158982	-0.0384599404	-0.0203471706	-0.111648
C	 1.3683666405	-0.6204177945	-0.2232116363	-0.000909
O	 2.4108112307	 0.2894205562	-0.4390567538	-0.418802
C	 0.7311713918	-0.6853589407	 1.1343980817	 0.263546
C	 1.1827247999	-0.0059189747	 2.4326634796	-0.304359
C	 0.3659671007	-1.0735603223	 3.2214719854	-0.255209
C	 0.235207	-1.9135072704	 1.9168195189	 0.077578
O	-1.0049925824	-2.4855626411	 1.5834962974	-0.427584
H	 0.6516150797	 2.0027927897	 0.2328427858	 0.134958
H	-0.4712425751	 1.7667555331	-1.1057535075	 0.120966
H	-1.0761058436	 1.7560406893	 0.5565814029	 0.106145
H	-0.8103984765	-0.6479601548	-0.4298667761	 0.087573
H	 1.4459783511	-1.5475672652	-0.7937290641	 0.083901
H	 3.1755802901	-0.0103683811	 0.0632961943	 0.287645
H	 2.2618076183	-0.0825562647	 2.6037768996	 0.091603
H	 0.8906737613	 1.036478384	 2.5777665891	 0.107677
H	 0.8444883039	-1.5499510528	 4.0799992634	 0.101437
H	-0.6100089682	-0.68975464	 3.5355230635	 0.097125
H	 0.9519112299	-2.7415918516	 1.8854118467	 0.086054
H	-1.6609159614	-1.7794792535	 1.5839308105	 0.278053
75.5967	132.3208	161.5406	164.912	194.051	230.0329	265.9831	300.7982	346.0156	427.1339	458.2999	545.6774	579.0394	604.9507	707.731	792.3976	800.3372	861.5079	932.1115	938.3822	960.0688	1016.7205	1040.0446	1065.125	1089.2521	1105.7454	1138.9407	1153.2534	1174.7921	1186.1011	1220.5237	1228.864	1259.2751	1271.2794	1297.0714	1309.6812	1326.9735	1365.4659	1414.3658	1431.5459	1462.173	1477.6902	1492.9268	1498.3242	1504.5969	3033.2997	3043.0721	3048.1291	3052.674	3080.846	3089.5851	3097.103	3114.4735	3118.2322	3136.0376	3798.7607	3804.4491
CC1C(O)C11CCC1O	C[C@H]1[C@@H](O)[C@]21CC[C@H]2O	
InChI=1S/C7H12O2/c1-4-6(9)7(4)3-2-5(7)8/h4-6,8-9H,2-3H2,1H3	InChI=1S/C7H12O2/c1-4-6(9)7(4)3-2-5(7)8/h4-6,8-9H,2-3H2,1H3/t4-,5+,6+,7-/m0/s1
