15
gdb 11640	3.22102	1.90881	1.49085	4.6195	66.44	-0.2632	-0.0074	0.2558	869.8555	0.118528	-362.603663	-362.596556	-362.595611	-362.634918	26.853	
C	-0.1578628502	 1.6311173033	-0.0518156706	-0.447442
C	 0.013128239	 0.1254486723	 0.0142671868	 0.010174
C	 1.1810528722	-0.6494207363	-0.664067867	 0.01275
C	 2.184630719	-0.1277525264	 0.3917251279	-0.264822
C	 0.8838870394	-0.5931343748	 1.0998252045	 0.31394
O	 0.8876176324	-1.7948602266	 0.2400117064	-0.324792
C	 0.6217474575	-0.7400942567	 2.511217184	 0.175408
N	 0.4063045283	-0.8098381639	 3.6445546457	-0.341128
H	 0.778444728	 2.1821173399	 0.0629837334	 0.126508
H	-0.5961947599	 1.9144814126	-1.0143449263	 0.133648
H	-0.8436039747	 1.9679143514	 0.7322024883	 0.142129
H	-0.9340871879	-0.4031189256	-0.1161914192	 0.105344
H	 1.3422873673	-0.8775846645	-1.7159272093	 0.112444
H	 3.0423720374	-0.7759413156	 0.5679516246	 0.130264
H	 2.4387839224	 0.9319366708	 0.4120486309	 0.115573
125.6734	163.9735	192.5568	296.0214	324.5346	498.5983	521.0493	544.8221	586.9022	603.1768	732.7506	803.773	826.3029	911.8715	946.1152	964.9004	1011.7787	1063.5708	1091.7495	1104.9894	1143.2462	1179.6112	1215.8298	1231.5504	1246.0389	1272.4678	1383.1618	1418.7826	1488.9679	1493.5	1506.3145	2357.8235	3043.1267	3090.998	3093.5987	3104.9184	3126.2985	3144.6695	3171.9136
CC1C2CC1(O2)C#N	C[C@H]1[C@H]2C[C@@]1(O2)C#N	
InChI=1S/C6H7NO/c1-4-5-2-6(4,3-7)8-5/h4-5H,2H2,1H3	InChI=1S/C6H7NO/c1-4-5-2-6(4,3-7)8-5/h4-5H,2H2,1H3/t4-,5+,6+/m0/s1
