18
gdb 16162	4.46666	1.61633	1.38218	1.7305	72.31	-0.2413	0.0063	0.2476	954.5836	0.15385	-347.801507	-347.794022	-347.793078	-347.833165	28.851	
C	-0.3493418651	 1.486149903	-0.1243372842	-0.379754
C	 0.1201515392	 0.0429087693	 0.1029924651	-0.286505
C	 0.8999137081	-0.5039269458	-1.0643329948	 0.407572
O	 0.1211816693	-0.8037061473	-2.2563417346	-0.305006
C	 0.8097742678	-1.8749160661	-1.6045772911	-0.032939
C	 2.1459888769	-2.2396415464	-2.2396212286	-0.295306
C	 2.9559431352	-0.9690723258	-2.0702081033	-0.073741
C	 2.2813812563	-0.0265312015	-1.4083808132	-0.130918
H	 0.4963708611	 2.1691271843	-0.2563288164	 0.116628
H	-0.9729735782	 1.5472888038	-1.0208150825	 0.136535
H	-0.935806122	 1.8446696998	 0.7266484942	 0.112531
H	 0.7446785199	-0.0134290233	 1.0036429935	 0.101358
H	-0.7480495082	-0.6024232542	 0.2744128734	 0.106343
H	 0.1722899984	-2.6414741461	-1.1703234097	 0.089766
H	 2.6100526479	-3.0937588786	-1.7295815906	 0.110735
H	 2.0311442477	-2.5209067032	-3.2935396304	 0.12507
H	 3.9529048334	-0.8569338587	-2.4815484317	 0.099652
H	 2.6480509821	 0.9625240469	-1.1623136251	 0.097978
83.9657	160.929	206.3125	293.4669	297.932	374.5759	471.5675	503.584	640.7628	710.9535	737.5514	780.8503	797.6031	862.9991	910.4194	929.9659	953.1312	971.1659	975.727	997.65	1055.8607	1074.9392	1103.0139	1136.005	1185.2199	1229.4251	1279.965	1301.5962	1308.2398	1362.8225	1377.0362	1408.8934	1443.2266	1459.4014	1474.0307	1498.8245	1508.292	1665.1979	3026.5414	3028.7926	3039.6385	3062.148	3071.9853	3107.2155	3118.9224	3139.8796	3188.5654	3215.6501
CCC12OC1CC=C2	CC[C@]12O[C@H]1CC=C2	
InChI=1S/C7H10O/c1-2-7-5-3-4-6(7)8-7/h3,5-6H,2,4H2,1H3	InChI=1S/C7H10O/c1-2-7-5-3-4-6(7)8-7/h3,5-6H,2,4H2,1H3/t6-,7+/m0/s1
