21
gdb 120924	3.36617	0.88318	0.80822	2.357	78.81	-0.2329	0.0754	0.3083	1501.8667	0.180955	-424.181603	-424.172005	-424.171061	-424.216361	35.577	
C	-0.1392290458	 1.550486691	 0.1271686445	-0.496964
C	-0.0125303719	 0.0585551716	 0.0342577076	 0.245906
C	-0.8227529335	-0.9206530371	 0.8678691302	-0.350898
C	 0.672684654	-0.970823084	 0.904771585	 0.069035
O	 1.1784282852	-1.7066905254	-0.2119232653	-0.31283
C	 0.6471060346	-0.6979081755	-1.1270276934	 0.09397
C	-0.1706260749	-1.2732294838	-2.2683501245	-0.230261
C	 0.6513359621	-2.2033548953	-3.1663135387	-0.06104
O	-0.09299685	-2.6980420352	-4.2694155515	-0.420586
H	 0.7843107286	 2.0497001108	-0.1875340988	 0.120589
H	-0.953254704	 1.9233647248	-0.5062767542	 0.124175
H	-0.3552530681	 1.8647958277	 1.1532189684	 0.12208
H	-1.2971028706	-0.4680782721	 1.7341138171	 0.111563
H	-1.3762241681	-1.7426827725	 0.4228529304	 0.111412
H	 1.2953076988	-0.895912802	 1.7892648776	 0.102093
H	 1.4902816523	-0.1136493941	-1.525196397	 0.076564
H	-1.0313308945	-1.8223272691	-1.8667862315	 0.088016
H	-0.5648208911	-0.4482404634	-2.875019049	 0.106862
H	 1.4935934819	-1.65364928	-3.6016043629	 0.108707
H	 1.0727499999	-3.0191900348	-2.5621048135	 0.111154
H	-0.7781196947	-3.2784240616	-3.9232213606	 0.280455
72.4468	94.1266	119.6974	181.7148	195.776	249.1659	294.9623	317.9803	356.5426	406.3612	482.3083	557.6127	633.4498	753.4437	780.2704	818.5625	888.9986	897.3142	947.0503	975.0911	999.7024	1030.0104	1038.5234	1067.3715	1072.2889	1082.4812	1102.6489	1111.6291	1136.8394	1187.6913	1236.5577	1252.4077	1289.0284	1304.1866	1315.5383	1383.106	1395.1371	1418.0531	1420.5775	1428.662	1474.6953	1487.1703	1488.0791	1498.9635	1514.5262	2990.8958	3007.7205	3021.4585	3025.9185	3057.3389	3079.4892	3080.7794	3097.7985	3113.862	3175.451	3202.1949	3818.5687
CC12CC1OC2CCO	C[C@]12C[C@H]1O[C@H]2CCO	
InChI=1S/C7H12O2/c1-7-4-6(7)9-5(7)2-3-8/h5-6,8H,2-4H2,1H3	InChI=1S/C7H12O2/c1-7-4-6(7)9-5(7)2-3-8/h5-6,8H,2-4H2,1H3/t5-,6+,7+/m0/s1
