19
gdb 52805	1.96233	1.1007	0.80524	3.3063	87.38	-0.2356	-0.0169	0.2187	1496.0046	0.155846	-385.873061	-385.862686	-385.861742	-385.909838	36.249	
C	 0.091809685	 1.5008821666	 0.0179380844	-0.501801
C	 0.0553700554	 0.0455263829	 0.0255082376	 0.097998
C	 0.0139794105	-1.15881601	 0.0343172557	-0.011026
C	 0.0293034727	-2.6012770044	 0.0213647471	 0.156955
C	 1.2024902458	-3.2191565262	-0.7273889777	-0.455026
C	-0.521043555	-3.3287906004	 1.2172504977	-0.3259
C	-1.3137525593	-3.35807823	-0.0774818915	-0.135748
C	-2.5913879469	-2.6127963886	-0.1531769952	 0.160072
O	-3.5481605194	-2.9746499752	-0.7936473593	-0.271743
H	 0.9653799625	 1.8700856843	-0.5304370855	 0.151291
H	-0.8003070169	 1.919199303	-0.4611304455	 0.152786
H	 0.1442768441	 1.9051434267	 1.0348961131	 0.149427
H	 2.1487942215	-2.895636046	-0.2830795981	 0.131898
H	 1.1589939589	-4.3115076906	-0.6865322228	 0.118153
H	 1.1979380155	-2.9123697577	-1.7771878969	 0.135138
H	-0.0398388737	-4.2514032929	 1.5221507967	 0.128523
H	-0.9194770497	-2.7307396208	 2.02943882	 0.131479
H	-1.3000382983	-4.2734167463	-0.659231142	 0.108397
H	-2.6125347627	-1.6729529244	 0.4411101923	 0.079127
25.4882	67.7068	106.6247	117.4984	189.9882	223.6961	247.2546	303.487	321.9258	357.3471	395.7116	459.9453	531.0297	588.6303	591.6987	800.9813	857.2097	873.2321	939.3772	1018.6829	1049.6773	1051.5224	1054.3622	1061.7197	1080.9415	1087.0737	1114.5655	1182.254	1233.1816	1344.0391	1353.2184	1414.2872	1415.8948	1441.2569	1476.8832	1477.7591	1478.5993	1486.5462	1500.7993	1815.6751	2365.8896	2892.7697	3027.4375	3038.5261	3087.9776	3089.8607	3111.0239	3116.0925	3136.257	3177.7448	3227.3392
CC#CC1(C)CC1C=O	CC#C[C@@]1(C)C[C@H]1C=O	
InChI=1S/C8H10O/c1-3-4-8(2)5-7(8)6-9/h6-7H,5H2,1-2H3	InChI=1S/C8H10O/c1-3-4-8(2)5-7(8)6-9/h6-7H,5H2,1-2H3/t7-,8-/m0/s1
