18
gdb 30017	3.0333	1.65477	1.09465	0.8356	79.42	-0.1683	0.0573	0.2256	1094.6691	0.149713	-401.97201	-401.963815	-401.962871	-402.005534	30.025	
C	 0.0179121376	 1.4365506059	 0.0754586714	-0.347936
N	-0.0189813012	-0.0085284238	 0.0149098132	-0.129747
C	 0.0339199505	-0.8035052701	-1.1341652995	-0.107544
C	 0.0299982801	-2.1326123498	-0.7657962994	-0.344121
C	-0.0294054683	-2.1647935418	 0.6579935504	 0.177227
C	-0.0475537037	-0.8665343112	 1.064094005	 0.430375
O	-0.0607359399	-0.6040578399	 2.3929776742	-0.301184
C	-0.2582216912	-1.9253871461	 2.9930698501	-0.090884
C	-0.0010068111	-3.0180333316	 1.8974115097	-0.369578
H	 1.0279011937	 1.8246558211	-0.0999794078	 0.136803
H	-0.6563360204	 1.8628909447	-0.6725767187	 0.137758
H	-0.3103706437	 1.757243811	 1.0658360497	 0.15457
H	 0.0498882005	-0.3382084083	-2.1063526059	 0.109121
H	 0.0516790071	-2.9664815705	-1.4510516318	 0.092688
H	 0.4178188712	-1.9937514124	 3.847446205	 0.117998
H	-1.2919807583	-1.9663628211	 3.3521971509	 0.115819
H	-0.7757020602	-3.7909354506	 1.9457270311	 0.109696
H	 0.9628692973	-3.5211852053	 2.0516427823	 0.108939
48.2169	103.3784	134.2393	200.8178	242.2336	290.8903	494.4574	593.0254	603.7761	607.4623	633.7934	693.6252	756.8225	787.4888	801.7608	843.8345	930.4763	974.6416	1027.7351	1065.6877	1074.9653	1112.7177	1151.6282	1199.2992	1223.3281	1227.8991	1252.8633	1292.0348	1345.7383	1373.6528	1433.4128	1455.1351	1488.5149	1496.6916	1506.1562	1508.6233	1520.4361	1590.8284	1636.7476	3007.5564	3030.3889	3040.869	3057.2975	3093.8808	3114.9455	3138.7343	3240.3048	3267.533
CN1C=CC2=C1OCC2	Cn1ccc2c1OCC2	
InChI=1S/C7H9NO/c1-8-4-2-6-3-5-9-7(6)8/h2,4H,3,5H2,1H3	InChI=1S/C7H9NO/c1-8-4-2-6-3-5-9-7(6)8/h2,4H,3,5H2,1H3
