16
gdb 19797	2.99224	2.73737	1.88796	3.261	62.56	-0.2238	0.0592	0.283	739.4956	0.133409	-379.860373	-379.854111	-379.853167	-379.890454	25.59	
O	-0.028512906	 1.397746356	 0.1049091763	-0.438112
C	 0.032913282	-0.0028220448	-0.0300130999	 0.134982
C	 0.7790762613	-0.6904994155	 1.1311534823	-0.077261
N	 0.2322234916	-0.3094806457	 2.4466182799	-0.325315
C	-0.150464692	-1.6032849511	 1.8434587294	-0.040606
C	-1.4801264523	-1.5907909368	 1.1075912034	-0.04062
N	-2.1757533574	-0.2868820495	 1.1140672749	-0.325298
C	-1.357020776	-0.6703603462	-0.0509604876	-0.077238
H	-0.4906471147	 1.5402968513	 0.943119872	 0.300558
H	 0.552502827	-0.2042224789	-0.9723641301	 0.081544
H	 1.8428880952	-0.8848586796	 1.0390314138	 0.086225
H	 0.9369284842	-0.4673183674	 3.1630097237	 0.232309
H	 0.1805958468	-2.5248054055	 2.3101754282	 0.085155
H	-2.0645305565	-2.5037514956	 1.0675712504	 0.085151
H	-3.1591677084	-0.428838737	 0.8961576244	 0.232306
H	-1.8466226448	-0.8501016036	-1.0027705112	 0.086221
171.5303	202.039	334.7875	423.5586	474.5764	559.3003	562.7056	689.5588	721.9129	777.5782	844.0003	848.6495	862.1388	888.1367	906.3135	931.954	971.6493	985.4214	1058.1587	1062.8606	1103.9347	1127.9829	1133.5988	1164.6417	1170.8871	1232.2056	1245.8668	1309.4554	1309.579	1332.3077	1384.5051	1419.5761	1422.1042	1456.971	3064.278	3154.6762	3158.232	3164.7241	3177.1559	3497.0917	3498.369	3754.7731
OC1C2NC2C2NC12	O[C@H]1[C@H]2N[C@H]2[C@H]2N[C@@H]12	
InChI=1S/C5H8N2O/c8-5-3-1(6-3)2-4(5)7-2/h1-8H	InChI=1S/C5H8N2O/c8-5-3-1(6-3)2-4(5)7-2/h1-8H/t1-,2+,3-,4+,5-
