18
gdb 42686	3.01017	1.74052	1.72703	3.0317	73.95	-0.2212	-0.0255	0.1957	889.1602	0.151782	-401.943026	-401.93677	-401.935826	-401.97341	26.434	
O	 0.0658209471	 0.0248886858	 0.0252703904	-0.325067
C	 0.0160944148	 1.2220777415	 0.0037063057	 0.443587
C	-1.1693040185	 2.175706489	 0.03605748	-0.112901
C	-0.8072023567	 3.2244979255	 1.1438415683	-0.035558
C	-1.0937091842	 4.2804591825	 0.0684417202	-0.168937
N	-0.862510814	 3.2501170381	-1.0027217374	-0.132199
C	 0.6174477541	 3.1025978574	-1.2189420062	-0.184915
C	 1.1233461791	 2.2866188748	-0.0103207086	-0.142339
C	 0.7368436407	 3.0382564777	 1.2890331592	-0.23909
H	-2.1737200579	 1.7634207166	-0.0219997488	 0.09114
H	-1.3480705583	 3.2444399916	 2.0920919639	 0.074482
H	-2.1365364352	 4.6120331709	 0.0403091863	 0.108722
H	-0.4389004126	 5.1581386065	 0.0180451023	 0.09682
H	 0.7917897312	 2.5622116755	-2.15649543	 0.115925
H	 1.0783940093	 4.0905329418	-1.3094375106	 0.10759
H	 2.1420925974	 1.9072911358	-0.067281261	 0.084738
H	 1.2529664917	 3.9973242222	 1.3996047223	 0.103847
H	 0.978296312	 2.4241501467	 2.163021744	 0.114154
149.3807	281.5282	352.7938	433.4885	478.1008	536.799	560.5023	674.2503	757.8863	804.9813	810.1212	834.4853	866.8876	888.3481	898.462	919.4183	952.9651	974.1444	984.7094	1022.4931	1057.0871	1101.0679	1136.8756	1146.1029	1166.9173	1180.051	1209.5416	1227.77	1241.2055	1261.2079	1281.0358	1297.0837	1320.9751	1336.8362	1354.5553	1493.0727	1500.172	1518.3886	1882.204	3027.3501	3035.6283	3040.7211	3079.3718	3082.8609	3087.5673	3090.4596	3136.1474	3150.4804
O=C1C2C3CN2CC1C3	O=C1[C@H]2[C@@H]3CN2C[C@H]1C3	
InChI=1S/C7H9NO/c9-7-5-1-4-2-8(3-5)6(4)7/h4-6H,1-3H2	InChI=1S/C7H9NO/c9-7-5-1-4-2-8(3-5)6(4)7/h4-6H,1-3H2/t4-,5+,6+/m0/s1
