20
gdb 8409	3.50072	1.63412	1.41041	1.7375	75.31	-0.251	0.0766	0.3276	994.0615	0.175158	-348.992109	-348.983487	-348.982543	-349.024801	32.657	
C	-0.1222301041	 1.5267740216	 0.1381797784	-0.452892
C	-0.0952478248	 0.0142099487	 0.1225955914	 0.281839
C	-1.314377608	-0.6512157889	-0.4772361523	-0.452896
O	 1.1670604904	-0.5612201353	-0.2859529078	-0.329398
C	 0.7648803473	-0.7227060066	 1.0639324477	 0.416666
C	 1.5522181012	-0.2067613258	 2.2749607972	-0.311029
C	 1.0012897549	-1.4219963656	 3.0795754686	-0.215379
C	 0.5290401531	-2.0759187835	 1.7465021596	-0.311024
H	 0.8018612505	 1.9330323423	 0.5542143578	 0.127793
H	-0.2365008677	 1.9154297788	-0.8798331689	 0.123619
H	-0.9662420977	 1.8954644093	 0.7318752057	 0.116112
H	-1.4606388732	-0.3166150047	-1.5102481973	 0.123578
H	-1.2062849409	-1.7376439416	-0.4850593302	 0.127823
H	-2.2171371752	-0.392401841	 0.0873971509	 0.116122
H	 2.6306894509	-0.2704440066	 2.1018553016	 0.113456
H	 1.3160832788	 0.7935279408	 2.6462632856	 0.101585
H	 1.7267414371	-1.9855785759	 3.6683799455	 0.103935
H	 0.1653032518	-1.1474203251	 3.7270042443	 0.105055
H	-0.4816366152	-2.4905345422	 1.7177543504	 0.101583
H	 1.2283914007	-2.8321811188	 1.3775894819	 0.113452
90.6526	158.5372	175.8596	194.0667	204.5728	276.1301	354.1265	450.2942	458.6767	465.8279	542.4791	678.1535	721.8844	780.9441	833.0557	898.0593	928.7881	929.5754	945.9181	983.6131	990.7963	1026.9871	1110.3286	1120.1147	1155.4223	1172.2233	1200.9957	1237.6511	1243.9836	1249.1495	1273.3401	1277.2509	1405.766	1415.2692	1459.8403	1465.9946	1475.1152	1479.6558	1485.3897	1501.1066	1502.5937	1529.1751	3031.0596	3036.2033	3053.5147	3057.3139	3072.4913	3090.6258	3095.6911	3101.4662	3106.539	3129.4188	3130.1035	3131.6078
CC1(C)OC11CCC1	CC1(C)OC21CCC2	
InChI=1S/C7H12O/c1-6(2)7(8-6)4-3-5-7/h3-5H2,1-2H3	InChI=1S/C7H12O/c1-6(2)7(8-6)4-3-5-7/h3-5H2,1-2H3
