17
gdb 82680	2.85108	1.57847	1.22515	3.2492	77.47	-0.2476	0.013	0.2606	1033.6135	0.137065	-380.811638	-380.804095	-380.80315	-380.84355	29.322	
C	-0.0733912542	 1.6000046634	-0.0647730046	-0.432191
C	 0.0866673334	 0.09539608	 0.0329053999	 0.001868
N	 1.0945324948	-0.6117678173	-0.8649359206	-0.185084
C	 2.419466101	 0.0066380547	-0.4535751985	-0.188425
C	 2.274270577	-0.6612199594	 0.9009006025	-0.129031
C	 1.3088637171	-1.6163583853	 0.2842459586	-0.067298
C	 0.7547590567	-0.579835313	 1.2354360258	 0.203524
C	 0.2625665988	-0.7530565267	 2.5596768891	 0.16197
N	-0.165436812	-0.8759177945	 3.6287101268	-0.349215
H	 0.811150112	 2.1476708398	 0.2674757469	 0.126327
H	-0.2938399792	 1.8854866753	-1.0987406296	 0.136853
H	-0.9129522449	 1.9196040959	 0.5604151722	 0.137625
H	-0.8740464987	-0.3919878652	-0.1579477761	 0.102502
H	 3.2132831153	-0.4544328034	-1.0461109758	 0.125116
H	 2.4833092029	 1.0936840519	-0.5375304389	 0.112772
H	 2.9933177924	-0.8433942318	 1.6895249138	 0.117957
H	 1.2024885477	-2.6900906143	 0.2340337786	 0.124729
129.1131	155.6	176.8199	239.7656	314.1041	449.7454	505.6481	533.6665	552.1521	601.9776	686.6425	768.981	794.6358	844.5126	864.1268	906.3579	940.7034	944.7713	977.7522	1009.5682	1088.0203	1095.8094	1119.1967	1130.2143	1141.8477	1172.5674	1214.1559	1229.0374	1265.0104	1301.4123	1370.736	1401.2155	1419.2244	1487.096	1494.1429	1523.4568	2342.2944	3043.2806	3063.7772	3069.6416	3110.8104	3119.5005	3131.2042	3201.5779	3232.6567
CC1N2CC3C2C13C#N	C[C@H]1N2C[C@@H]3[C@H]2[C@]13C#N	
InChI=1S/C7H8N2/c1-4-7(3-8)5-2-9(4)6(5)7/h4-6H,2H2,1H3	InChI=1S/C7H8N2/c1-4-7(3-8)5-2-9(4)6(5)7/h4-6H,2H2,1H3/t4-,5-,6+,7-/m1/s1
