15
gdb 24256	4.11295	1.60341	1.26177	1.4791	70.34	-0.2223	-0.0038	0.2184	944.4502	0.116247	-416.796459	-416.79035	-416.789406	-416.826894	24.551	
C	 0.0900250902	 1.4903570237	-0.0420469395	-0.230581
C	 1.3526732628	 0.6930966518	 0.0104171922	-0.188704
N	 0.0055775389	 0.0295558522	-0.0334400425	-0.099761
C	-0.1888635441	-0.621012959	-1.3737404618	-0.289845
C	 1.0828672628	-0.3044749131	-2.1076882734	 0.213784
C	 1.9185645676	 0.3864074755	-1.3103388724	 0.331361
O	 3.0557544305	 0.6684206137	-1.9950167793	-0.198083
C	 2.8169306576	 0.1016589411	-3.2209966198	 0.033376
N	 1.6641700609	-0.4793256034	-3.3525720888	-0.337046
H	-0.2882168859	 1.966050933	 0.859493469	 0.123291
H	-0.1155162503	 2.0254506175	-0.9673084597	 0.118859
H	 1.9285306973	 0.5941308905	 0.9251406091	 0.114171
H	-0.3449247576	-1.6947150378	-1.2212285038	 0.128969
H	-1.0906706665	-0.2202397049	-1.848594322	 0.128908
H	 3.6130016656	 0.1848861491	-3.9438559674	 0.151301
150.7459	243.714	348.0593	423.5293	446.5911	587.7594	653.9853	695.203	714.548	738.3297	794.8228	808.5265	832.8859	946.5074	955.5456	1017.7421	1024.3304	1063.1155	1077.2933	1118.8407	1125.796	1144.7396	1199.398	1244.908	1264.1582	1286.5595	1306.5253	1381.7662	1442.4445	1488.4855	1501.4111	1516.4272	1652.1134	3038.221	3075.5314	3094.1072	3158.6485	3183.906	3279.4508
C1C2N1CC1=C2OC=N1	C1[C@H]2N1Cc1c2ocn1	
InChI=1S/C6H6N2O/c1-4-6(9-3-7-4)5-2-8(1)5/h3,5H,1-2H2	InChI=1S/C6H6N2O/c1-4-6(9-3-7-4)5-2-8(1)5/h3,5H,1-2H2/t5-,8?/m1/s1
