16
gdb 112387	2.35965	1.54836	0.99483	0.8021	70.8	-0.2484	-0.0044	0.244	1164.7775	0.124958	-471.228286	-471.219823	-471.218879	-471.261991	30.61	
C	-0.0177904246	 1.3655664853	-0.1152771451	-0.244542
O	-0.0248948081	-0.0553596232	-0.0527639299	-0.215537
C	-1.2821209047	-0.6068982469	 0.0416486293	 0.138995
O	-2.0083410884	-0.4956485527	-1.2033721416	-0.256037
C	-2.131821501	-1.7212214336	-1.7896717736	 0.469575
N	-2.6303270422	-1.9911149153	-2.9150612308	-0.581076
N	-1.6290074368	-2.6658482399	-0.9062001432	-0.376453
C	-1.1545186476	-2.1128958167	 0.2640595379	 0.372592
N	-0.6956253099	-2.6227069918	 1.3273070364	-0.535153
H	 1.0288773135	 1.6726387996	-0.100442875	 0.141223
H	-0.4920178712	 1.7273925629	-1.0345322038	 0.132879
H	-0.5348747378	 1.7993437432	 0.7520583567	 0.118754
H	-1.8888940462	-0.1117666529	 0.8106329471	 0.107555
H	-2.9351499276	-1.1417065266	-3.3848822762	 0.233091
H	-1.660811285	-3.6474768558	-1.1253104328	 0.276337
H	-0.6681168126	-3.6424766955	 1.2852815045	 0.217797
72.878	111.7968	124.6993	173.9247	222.2109	321.0829	399.9514	457.8498	481.8349	570.2674	643.5241	663.2279	714.757	742.6689	808.6281	866.5721	935.0606	956.9515	992.655	1020.2917	1080.6833	1112.6539	1158.4538	1177.0808	1228.0689	1268.3122	1362.0858	1364.7643	1390.2656	1428.5995	1479.5204	1486.4699	1508.3894	1783.7848	1810.505	3005.457	3034.1957	3076.2488	3141.1991	3468.577	3532.8892	3671.0475
COC1OC(=N)NC1=N	CO[C@H]1O[C]([NH])N[C]1[NH]	
InChI=1S/C4H7N3O2/c1-8-3-2(5)7-4(6)9-3/h3H,1H3,(H3,5,6,7)	InChI=1S/C4H7N3O2/c1-8-3-2(5)7-4(6)9-3/h3H,1H3,(H3,5,6,7)/t3-/m0/s1
