23
gdb 121965	5.43316	0.57227	0.54595	1.3651	89.81	-0.2532	0.0551	0.3083	2084.3654	0.201993	-388.259404	-388.247992	-388.247048	-388.296808	40.429	
C	-0.0460643684	 1.5021235107	-0.0070418315	-0.385612
C	-0.0143420135	-0.0167514661	 0.0102255457	-0.02888
O	-1.3432871484	-0.4957784569	 0.009224783	-0.247382
C	-1.4344515313	-1.9018537009	 0.0265204359	-0.054907
C	-2.9087285826	-2.3048229845	-0.0223691211	 0.008313
C	-3.5854741347	-1.8021015301	-1.3009817735	-0.388573
C	-3.0244891377	-3.8403150171	 0.131247326	-0.363878
C	-4.398654175	-4.311887671	 0.2503096589	 0.299976
C	-5.5369215946	-4.6839248564	 0.3560881173	-0.439913
H	 0.9710986037	 1.9051066694	-0.005270795	 0.114433
H	-0.562187993	 1.864968967	-0.900446605	 0.126703
H	-0.5731562553	 1.8844860387	 0.8716534443	 0.127112
H	 0.529509804	-0.4032210581	-0.8687337662	 0.085038
H	 0.5208717254	-0.3823991031	 0.9033869615	 0.084517
H	-0.8949755788	-2.3335695729	-0.8367326961	 0.079944
H	-0.9575866807	-2.3042684439	 0.9377722216	 0.08
H	-3.4006705129	-1.8423248157	 0.8420136734	 0.094844
H	-4.6485025478	-2.056506728	-1.3060826747	 0.126315
H	-3.4796927118	-0.7186372806	-1.3846200536	 0.130898
H	-3.1253552274	-2.2566145743	-2.1874057843	 0.104959
H	-2.5474378943	-4.3267014376	-0.7311696802	 0.12693
H	-2.4585271636	-4.1632321873	 1.0150876842	 0.126181
H	-6.5388327914	-5.0225618913	 0.4486800696	 0.192983
46.9306	67.7101	82.8331	103.6543	153.2542	171.2767	240.7142	248.3901	273.826	306.5906	347.7302	381.256	423.939	487.5127	572.4433	613.9887	635.3529	821.0078	841.6022	884.4455	909.3892	933.9965	942.3239	987.7811	1046.1278	1108.6778	1128.4516	1152.3117	1164.0615	1173.8049	1193.7692	1239.9902	1279.0932	1291.8924	1296.2195	1358.5516	1379.7219	1389.5917	1404.1879	1410.4054	1451.6084	1470.8941	1483.6904	1496.2036	1499.3087	1503.7418	1513.1849	1536.67	2237.6943	2930.866	2953.6704	2960.7642	2975.8527	3008.133	3028.8436	3034.7964	3044.9756	3050.12	3104.9616	3119.5655	3121.5479	3136.0146	3506.8367
CCOCC(C)CC#C	CCOC[C@@H](C)CC#C	
InChI=1S/C8H14O/c1-4-6-8(3)7-9-5-2/h1,8H,5-7H2,2-3H3	InChI=1S/C8H14O/c1-4-6-8(3)7-9-5-2/h1,8H,5-7H2,2-3H3/t8-/m0/s1
