21
gdb 106193	3.20488	1.40763	1.36567	0.139	84.62	-0.2125	0.0883	0.3008	1080.9799	0.184243	-349.920669	-349.913078	-349.912134	-349.952694	31.061	
C	 0.1292095642	 1.5052753281	 0.1473574358	-0.37257
C	-0.0226788086	-0.0005352954	-0.1109286223	-0.317592
C	-1.4468296263	-0.4687870772	-0.0421225176	 0.389535
C	-2.2105448924	-0.8130395727	 1.226706092	-0.124548
C	-3.6163537486	-0.2441286782	 1.1956332038	-0.234358
C	-3.8649457479	-0.3345799275	-0.2985951589	-0.071741
C	-3.1414375925	-1.5309130152	-0.8907790679	-0.079568
C	-2.5720793749	-0.1384128169	-1.066947952	-0.147884
C	-2.029711631	-1.8576346919	 0.1351181106	-0.16599
H	 1.1762356304	 1.8159582167	 0.0753886159	 0.108383
H	-0.4430254195	 2.090270378	-0.5805817447	 0.117157
H	-0.2360529335	 1.7706874592	 1.1447900039	 0.116719
H	 0.3986984552	-0.2463139312	-1.0952403221	 0.096487
H	 0.572002399	-0.5619540932	 0.6210143683	 0.094954
H	-1.6591524819	-0.9240401996	 2.1537984438	 0.077893
H	-4.3261386476	-0.8468327551	 1.7742332886	 0.09587
H	-3.6576549004	 0.7878971215	 1.5631317327	 0.095912
H	-4.798225927	-0.0108077541	-0.7446400455	 0.080428
H	-3.5647832881	-2.2014718411	-1.6257006054	 0.081866
H	-2.4709111451	 0.459575738	-1.9629915072	 0.079703
H	-1.5253997237	-2.8050570222	 0.2715384682	 0.079343
86.4652	132.8599	194.8066	305.3187	356.2426	400.5701	527.4295	604.3208	710.5473	737.0403	744.4255	764.6535	781.4218	839.9819	851.127	870.5954	893.444	920.6243	947.9308	955.3548	983.5086	989.9636	1006.7668	1025.5466	1030.9319	1055.7215	1069.9164	1079.9583	1110.1139	1178.6724	1193.374	1204.6765	1234.6968	1259.2335	1276.0269	1306.6804	1315.5723	1356.8522	1376.0864	1407.6419	1445.7906	1481.6342	1491.4238	1497.4105	1506.9787	3010.1817	3031.5386	3033.097	3043.9146	3071.7378	3101.0827	3104.9874	3177.9704	3183.7457	3193.8816	3199.2104	3211.7881
CCC12C3CC4C(C14)C23	CC[C@@]12[C@H]3C[C@@H]4[C@@H]([C@H]14)[C@@H]23	
InChI=1S/C9H12/c1-2-9-5-3-4-6(7(4)9)8(5)9/h4-8H,2-3H2,1H3	InChI=1S/C9H12/c1-2-9-5-3-4-6(7(4)9)8(5)9/h4-8H,2-3H2,1H3/t4-,5+,6+,7-,8+,9-/m1/s1
