16
gdb 43579	3.52187	1.26139	1.05064	3.5112	74.12	-0.2525	-0.0148	0.2377	1118.2972	0.124063	-400.718764	-400.710913	-400.709969	-400.751598	29.89	
O	 0.0660816741	 0.0382389672	-0.4318106958	-0.301298
C	 0.0311566097	 1.2117138762	-0.2018027599	 0.389992
C	-1.2250637747	 2.0258380813	 0.1470359039	-0.363031
C	-0.7845507125	 3.5088567638	 0.1211083788	-0.193652
C	-1.3147685175	 4.3253502472	 1.2047073061	 0.31908
C	-1.7459156402	 4.989898126	 2.1086514883	-0.452084
C	 0.7532526709	 3.4269961496	 0.1017297473	-0.027883
C	 1.4423034337	 2.6410148132	 1.1392770282	-0.248543
N	 1.1966833368	 2.0576325519	-0.2147650829	-0.14012
H	-2.0287102564	 1.8025331892	-0.5561951947	 0.150102
H	-1.571415902	 1.7149576536	 1.1368013526	 0.152154
H	-1.0939398244	 3.9505755652	-0.8334006535	 0.121285
H	-2.1295822752	 5.5818406858	 2.9025836146	 0.202611
H	 1.2849022138	 4.2220727068	-0.4102418967	 0.114479
H	 2.4895073901	 2.8174636498	 1.3596945465	 0.140526
H	 0.859123574	 2.2545558932	 1.9711846571	 0.136383
52.9887	128.0003	172.9267	254.5415	340.4667	434.3534	489.4958	528.4154	565.3522	624.414	639.6463	644.647	667.2926	749.9527	810.3414	842.7764	900.2829	963.8226	988.9136	1051.9878	1061.8674	1081.0606	1101.0227	1134.0264	1170.831	1173.271	1251.3309	1278.6542	1296.5411	1345.8771	1389.557	1458.2716	1510.1261	1869.8384	2238.5441	3036.127	3077.2172	3119.7654	3129.6462	3167.9822	3211.7541	3503.273
O=C1CC(C#C)C2CN12	O=C1C[C@@H](C#C)[C@H]2CN12	
InChI=1S/C7H7NO/c1-2-5-3-7(9)8-4-6(5)8/h1,5-6H,3-4H2	InChI=1S/C7H7NO/c1-2-5-3-7(9)8-4-6(5)8/h1,5-6H,3-4H2/t5-,6-,8?/m1/s1
