20
gdb 38272	3.13462	1.63637	1.34267	1.8596	78.41	-0.2257	0.0715	0.2972	1004.3807	0.174779	-403.060303	-403.053532	-403.052588	-403.091098	28.768	
C	-0.0134852066	 1.5555338573	 0.1576774504	-0.21648
N	 1.4890045079	 1.2561472919	 0.040766603	-0.178492
C	 1.1661513698	 0.0809855809	 1.0004889093	-0.244245
C	-0.0106870454	 0.0106768906	-0.0024438641	 0.315731
C	-1.1534413368	-0.9068663909	-0.3560010507	-0.360189
C	-1.5542113563	-0.5295363192	-1.8038909379	-0.064696
O	-0.4517910527	-0.4905094136	-2.7039580565	-0.252318
C	 0.498977469	 0.5470091793	-2.4331064892	-0.156043
C	 1.0788251712	 0.2352240826	-1.0597641042	 0.061597
H	-0.2963222866	 1.9575862575	 1.1346371741	 0.097488
H	-0.4077452598	 2.1871401381	-0.6384616611	 0.101569
H	 1.909676279	-0.7207615012	 0.975290871	 0.102322
H	 0.9663299784	 0.4116469955	 2.0235012924	 0.098872
H	-0.8204068811	-1.951134558	-0.3300240303	 0.108377
H	-2.0199091161	-0.8120147594	 0.3086815365	 0.098064
H	-2.2446971243	-1.2687151825	-2.2186381722	 0.110949
H	-2.0684959979	 0.4457236031	-1.7988133139	 0.090347
H	 1.2445541329	 0.4820295106	-3.2293877917	 0.111737
H	 0.0197268274	 1.5329066547	-2.4992520391	 0.100492
H	 1.823883918	-0.5619679671	-1.1489168158	 0.074919
159.4956	264.6428	339.6782	367.8761	393.3855	434.8438	507.5816	608.1685	614.2485	660.8778	761.2656	815.4246	831.685	859.0101	892.2011	915.4784	947.1761	961.2754	994.899	1016.8621	1042.8724	1070.7952	1092.2834	1129.6549	1146.2727	1164.4176	1171.2414	1182.9408	1194.5146	1233.5546	1249.8908	1267.5643	1299.835	1317.3015	1358.9992	1376.5669	1403.6684	1429.7627	1473.3026	1492.9774	1499.2849	1520.0287	1559.5888	2971.4729	3013.6896	3031.0621	3045.8432	3053.386	3064.7546	3077.2087	3091.9342	3098.2208	3115.8096	3132.3616
C1N2CC11CCOCC21	C1N2C[C@]31CCOC[C@@H]23	
InChI=1S/C7H11NO/c1-2-9-3-6-7(1)4-8(6)5-7/h6H,1-5H2	InChI=1S/C7H11NO/c1-2-9-3-6-7(1)4-8(6)5-7/h6H,1-5H2/t6-/m1/s1
