20
gdb 91133	2.67674	1.73075	1.48845	0.6252	77.69	-0.2056	0.0605	0.2661	989.978	0.17243	-403.068901	-403.061346	-403.060402	-403.100888	30.199	
C	 0.1067981297	 1.4171154219	-0.4965053596	-0.42664
C	 0.0718163902	-0.0095190969	 0.0163495943	 0.158235
O	 0.7785370935	-0.9597060725	-0.8307965386	-0.310542
C	 1.2752011039	-1.6704600683	 0.3175249032	 0.090552
C	 2.7101391868	-1.2944264886	 0.7557478892	 0.021844
C	 3.4763123464	-0.1964238612	-0.0203564367	-0.264217
C	 2.9750865252	 0.7939540309	 1.0714077582	-0.165858
N	 2.1619461515	-0.2794473972	 1.7315030236	-0.146043
C	 0.7595720918	-0.5762918569	 1.2910055668	-0.086314
H	 1.1116895372	 1.7379985953	-0.7702130141	 0.132795
H	-0.5215325186	 1.4972152443	-1.3896410432	 0.127272
H	-0.2931254932	 2.1031996895	 0.2575008878	 0.124172
H	-0.9840229108	-0.3202525942	 0.0828572368	 0.078953
H	 0.9815743659	-2.7235121941	 0.3216038372	 0.076143
H	 3.3030105963	-2.1102630573	 1.1832432618	 0.069381
H	 4.5583465321	-0.3279566343	-0.0795279717	 0.100865
H	 3.0754270584	-0.0204431188	-1.0198714833	 0.12365
H	 3.7652680966	 1.1261437383	 1.7531166314	 0.106215
H	 2.424735174	 1.6767488071	 0.7464428813	 0.106316
H	 0.0903188231	-0.7395742071	 2.1377174254	 0.083222
79.5352	166.8034	243.8442	263.9383	294.1594	389.0963	496.5048	568.1281	625.5318	669.8496	724.7094	789.3191	822.4386	849.6803	877.796	896.6881	910.3353	936.6484	984.1271	991.4031	1022.63	1064.5965	1091.0543	1104.6674	1131.9482	1154.3056	1191.2209	1198.4458	1214.0322	1225.6972	1232.7378	1260.2679	1296.811	1309.2909	1314.7351	1336.3017	1348.587	1396.9134	1412.0019	1470.9597	1481.7264	1492.4259	1522.7876	2957.5582	3039.5603	3043.3484	3045.5864	3070.0144	3076.1995	3087.3815	3103.5621	3122.4544	3136.1758	3151.6888
CC1OC2C3CCN3C12	C[C@H]1O[C@H]2[C@H]3CCN3[C@@H]12	
InChI=1S/C7H11NO/c1-4-6-7(9-4)5-2-3-8(5)6/h4-7H,2-3H2,1H3	InChI=1S/C7H11NO/c1-4-6-7(9-4)5-2-3-8(5)6/h4-7H,2-3H2,1H3/t4-,5-,6+,7+/m1/s1
