19
gdb 42406	5.04593	0.81381	0.77755	3.4744	78.08	-0.2496	0.0165	0.2662	1515.338	0.160102	-419.195988	-419.186975	-419.186031	-419.231218	32.697	
O	 0.202919762	 0.4158029898	-1.173301146	-0.394664
C	 0.1136942278	 1.3290119654	-0.3677894582	 0.436058
N	 1.1689482316	 1.787026838	 0.3653899769	-0.346288
C	 2.4622629455	 1.1715890765	 0.3191815023	 0.063175
C	 3.3568335083	 1.436412866	-0.8606949887	-0.237674
C	 3.6680020816	 2.0576915352	 0.4780946706	-0.296832
C	-1.1899900901	 2.0376327311	-0.1271906432	-0.125547
C	-1.9964640531	 2.3671802088	-1.3399332902	-0.220845
N	-2.4080858658	 1.2836153487	-0.4520730656	-0.305576
H	 0.9875068304	 2.4549684871	 1.097946475	 0.248613
H	 2.5075381517	 0.176072937	 0.7534273526	 0.108117
H	 3.9743932301	 0.6197695115	-1.2151394759	 0.123465
H	 2.9673546812	 2.0823691907	-1.6378945629	 0.125865
H	 3.4944236189	 3.1230447647	 0.5879944014	 0.115109
H	 4.5039558816	 1.67794999	 1.0540166902	 0.121799
H	-1.2617415274	 2.6771048163	 0.7494203829	 0.084447
H	-2.6316115488	 3.2482803859	-1.3282117634	 0.120128
H	-1.557905159	 2.1093062729	-2.2994102778	 0.132637
H	-2.0944740464	 0.4031108944	-0.86386953	 0.248012
30.5834	65.6741	110.7815	133.7599	271.1936	287.615	329.5123	378.213	455.7086	486.7021	697.1564	762.092	766.9564	824.6969	834.4669	848.938	881.0106	917.1823	979.7201	1003.5725	1005.5761	1037.3234	1062.5849	1079.4306	1119.2838	1123.2136	1133.9452	1174.9256	1189.7462	1193.24	1223.5511	1273.2556	1295.4509	1325.7335	1394.5303	1410.377	1462.8637	1492.236	1499.4325	1526.8984	1766.155	3113.4344	3132.8452	3133.4361	3137.025	3151.4159	3207.6803	3220.324	3241.9864	3457.5239	3625.5369
O=C(NC1CC1)C1CN1	O=C(NC1CC1)[C@H]1CN1	
InChI=1S/C6H10N2O/c9-6(5-3-7-5)8-4-1-2-4/h4-5,7H,1-3H2,(H,8,9)	InChI=1S/C6H10N2O/c9-6(5-3-7-5)8-4-1-2-4/h4-5,7H,1-3H2,(H,8,9)/t5-/m1/s1
