19
gdb 45368	2.83951	1.59789	1.39776	4.5594	73.79	-0.2555	0.016	0.2716	999.6324	0.162866	-423.091514	-423.084404	-423.08346	-423.123239	28.612	
O	 0.0235164839	 0.0508530597	 0.7155601722	-0.329029
C	-0.0207960497	 1.1127237934	 0.1565318197	 0.404697
C	-1.3356153624	 1.846706293	-0.1103418822	-0.34458
C	-1.2194167196	 3.0827260573	-1.0135021985	-0.019862
C	-0.8474926322	 2.6968848189	-2.4680438961	-0.217968
C	 0.7071738226	 2.5806728264	-2.4653327534	-0.225682
C	 1.1156253116	 2.9195600074	-1.0207721274	 0.126201
C	 0.0170819654	 3.8690601341	-0.5449936101	-0.242997
O	 1.1364022858	 1.7173077697	-0.2126494679	-0.240763
H	-2.038819394	 1.1078462671	-0.5062199396	 0.134429
H	-1.7184254702	 2.1307160102	 0.8775890933	 0.136302
H	-2.146317686	 3.6601807579	-0.9690299711	 0.072499
H	-1.3375232033	 1.7710829448	-2.7816659666	 0.107323
H	-1.1722314324	 3.4789345355	-3.1603132171	 0.104345
H	 1.0712597158	 1.5887920377	-2.7411537774	 0.12275
H	 1.1588838055	 3.2978664329	-3.1569132335	 0.107207
H	 2.1290731422	 3.3131951935	-0.934824882	 0.090717
H	 0.1068415068	 4.8303736355	-1.0619181276	 0.105096
H	 0.0493344003	 4.0503356751	 0.5330180852	 0.109316
87.2081	121.446	334.4073	372.6009	404.7222	441.3295	497.1944	560.4352	587.7798	729.345	745.5258	798.3497	836.4877	848.4368	886.156	906.2922	935.7835	970.0842	991.9609	1014.5882	1032.4606	1074.655	1089.9982	1140.6638	1180.9608	1196.0313	1209.6327	1241.1324	1264.1073	1281.3456	1311.7999	1326.3654	1352.7677	1356.3498	1375.5255	1403.6929	1457.0089	1482.1103	1486.3681	1511.1088	1843.2896	3042.5634	3049.6704	3053.3407	3064.549	3076.5095	3090.2578	3094.3676	3102.7347	3109.5426	3118.8577
O=C1CC2CCC(C2)O1	O=C1C[C@@H]2CC[C@@H](C2)O1	
InChI=1S/C7H10O2/c8-7-4-5-1-2-6(3-5)9-7/h5-6H,1-4H2	InChI=1S/C7H10O2/c8-7-4-5-1-2-6(3-5)9-7/h5-6H,1-4H2/t5-,6+/m1/s1
