20
gdb 90816	3.59223	1.63554	1.44544	1.6652	80.1	-0.2287	0.078	0.3067	975.9309	0.173931	-365.963326	-365.956498	-365.955553	-365.99433	28.642	
C	-0.0971917731	 1.5714604578	 0.0083656378	-0.408991
C	 0.0045932387	 0.0437367324	-0.0081386503	 0.030064
C	 0.777067484	-0.5054742658	-1.2527689467	-0.253695
C	 1.8776622932	-1.3798955779	-0.6448276272	-0.026582
C	 1.3650177575	-2.5728800407	 0.1712229817	-0.050083
C	 2.1168930074	-2.1889272296	 1.3861769192	-0.061038
C	 2.2743246547	-0.773485419	 0.7431719518	-0.108723
C	 0.8123962427	-0.5112093749	 1.1703576284	 0.033974
N	 0.6364633451	-2.0016898113	 1.364826569	-0.160753
H	 0.8971877754	 2.0337076318	 0.0254662912	 0.112359
H	-0.6152070789	 1.9405360389	-0.8830242848	 0.11485
H	-0.645621558	 1.9272723525	 0.8870767854	 0.114106
H	-1.0045191936	-0.3815882703	 0.0363694447	 0.083146
H	 0.1318942344	-1.0708347158	-1.932516774	 0.100431
H	 1.2096287777	 0.3193617613	-1.8318012466	 0.092176
H	 2.7130948073	-1.6340136029	-1.2992907555	 0.068719
H	 1.0362033109	-3.5463219999	-0.1704557626	 0.09085
H	 2.6448503975	-2.7542129202	 2.1419407504	 0.095214
H	 3.0876876596	-0.0596073777	 0.8540415593	 0.067154
H	 0.6557442372	-0.006124499	 2.1256497087	 0.066822
103.9073	234.2397	270.5353	345.1185	389.8786	491.9827	651.2105	668.6561	735.5801	753.6698	813.2069	830.3381	843.7035	866.4499	885.5082	917.1787	928.3596	950.0691	967.4259	984.5187	1007.7168	1025.3936	1035.4763	1049.1801	1103.9985	1130.4327	1148.0971	1149.7077	1192.3562	1212.2245	1216.1308	1239.8903	1261.976	1268.656	1311.1258	1320.8929	1331.3257	1346.2114	1373.0505	1409.8187	1490.1214	1497.8062	1500.2149	3022.9918	3031.9993	3038.5236	3079.386	3090.0362	3092.197	3098.9469	3101.8415	3136.4838	3190.0956	3210.9606
CC1CC2C3C4C2C1N34	C[C@H]1C[C@@H]2[C@H]3[C@H]4[C@@H]2[C@@H]1N34	
InChI=1S/C8H11N/c1-3-2-4-5-6(3)9-7(4)8(5)9/h3-8H,2H2,1H3	InChI=1S/C8H11N/c1-3-2-4-5-6(3)9-7(4)8(5)9/h3-8H,2H2,1H3/t3-,4-,5-,6+,7-,8+,9?/m0/s1
