16
gdb 14069	3.69063	1.62731	1.37613	4.411	65.55	-0.2686	0.0098	0.2784	935.9926	0.13041	-383.756411	-383.748898	-383.747954	-383.788263	27.624	
C	-0.0715206045	 1.5094589978	-0.0825867485	-0.409229
C	 0.0482486559	 0.0033594082	-0.027037049	-0.052058
C	 1.3773214482	-0.6744082714	-0.2030232062	-0.342365
C	 0.7185816391	-0.6595061627	 1.1516555061	 0.112316
C	 1.1731730552	-0.1125051175	 2.4975318385	-0.151196
O	 0.6331964421	-1.3150670349	 3.1416560814	-0.255538
C	 0.2183876036	-1.8371163953	 1.9320631383	 0.43401
O	-0.3344794117	-2.8710531842	 1.731278444	-0.343656
H	 0.8212203835	 1.9961498592	 0.3241358295	 0.117846
H	-0.1921225037	 1.8500119841	-1.1161508113	 0.131019
H	-0.9363070457	 1.8627034742	 0.488802698	 0.129302
H	-0.8102224087	-0.54330673	-0.4090288047	 0.114943
H	 1.4171928862	-1.6276872203	-0.7187554199	 0.139892
H	 2.2557749869	-0.0484369213	-0.3267318155	 0.123107
H	 2.2509997228	-0.0393420446	 2.6604674711	 0.125865
H	 0.6643356108	 0.7825088986	 2.8636607781	 0.125742
129.3804	133.4876	178.6663	218.315	267.2689	351.8933	420.8919	539.5006	618.4207	712.7867	784.2825	806.423	870.1983	908.3044	916.3931	957.1725	1022.6875	1052.834	1083.9563	1091.194	1118.0997	1134.9148	1149.1365	1187.8902	1219.3293	1311.8207	1358.0304	1415.5076	1435.6003	1486.7598	1491.2417	1507.2754	1517.1501	1934.4289	3032.4077	3063.1354	3099.2589	3100.1508	3121.254	3128.782	3147.5377	3219.535
CC1CC11COC1=O	C[C@H]1C[C@]21COC2=O	
InChI=1S/C6H8O2/c1-4-2-6(4)3-8-5(6)7/h4H,2-3H2,1H3	InChI=1S/C6H8O2/c1-4-2-6(4)3-8-5(6)7/h4H,2-3H2,1H3/t4-,6+/m0/s1
