21
gdb 33073	4.60985	0.74991	0.67841	1.6178	87.37	-0.1799	0.0575	0.2374	1719.5431	0.183501	-383.312032	-383.302139	-383.301195	-383.347526	36.32	
C	-0.019592168	 1.573633248	-0.0686851569	-0.378322
C	 0.0609740587	 0.0453322999	-0.0620025001	-0.14554
C	 0.6416301293	-0.5210794122	 1.247381438	-0.307507
C	 0.7364598546	-2.0189936842	 1.2662977042	 0.301277
C	-0.0237360692	-2.8773286035	 2.0252568885	-0.19868
N	 0.3668570577	-4.1674790708	 1.7364848847	-0.265991
C	 1.3729728262	-4.1491390212	 0.8049224055	 0.294004
N	 1.8921015141	-5.3728484095	 0.3279790294	-0.609062
C	 1.6281617012	-2.8320383926	 0.4947388136	-0.314637
H	 0.9711096359	 2.0241170425	 0.0616382998	 0.110211
H	-0.4343192888	 1.9492775055	-1.0096067321	 0.107487
H	-0.6557856974	 1.9407355264	 0.744908721	 0.11027
H	-0.9359232509	-0.3836461902	-0.2212484054	 0.09533
H	 0.6745865128	-0.2977291318	-0.9041997979	 0.095301
H	 1.634247919	-0.0778050444	 1.410310096	 0.093255
H	 0.0200353402	-0.1857017469	 2.0875044029	 0.089425
H	-0.7975221088	-2.6775031955	 2.7493620631	 0.107017
H	-0.0704171146	-5.0095776406	 2.0675726664	 0.255104
H	 2.3600801056	-5.2345605035	-0.5594514456	 0.245024
H	 2.5704193805	-5.7773653791	 0.9680991185	 0.24127
H	 2.386640982	-2.4837032563	-0.1913074234	 0.074763
50.2518	82.1847	97.0054	122.2184	238.1062	244.1781	276.9221	309.882	372.3699	421.6574	479.5365	618.7545	646.9431	679.1893	696.5361	744.391	759.4005	789.5003	834.472	873.6534	895.8728	987.8659	1007.2526	1043.9043	1084.526	1111.8085	1121.6326	1156.7687	1189.9468	1244.602	1283.4173	1309.2241	1324.0569	1334.5379	1383.9459	1410.5036	1425.9305	1476.8258	1480.6764	1492.1974	1499.6542	1510.1249	1555.2905	1628.875	1656.7215	3001.7841	3025.4849	3027.5479	3037.9606	3062.5636	3093.3229	3097.8701	3232.3651	3257.4405	3483.8565	3591.6885	3682.2896
CCCC1=CNC(N)=C1	CCCc1c[nH]c(N)c1	
InChI=1S/C7H12N2/c1-2-3-6-4-7(8)9-5-6/h4-5,9H,2-3,8H2,1H3	InChI=1S/C7H12N2/c1-2-3-6-4-7(8)9-5-6/h4-5,9H,2-3,8H2,1H3
