18
gdb 111179	2.80267	1.16802	0.94139	2.4795	76.74	-0.2647	0.0114	0.2761	1277.3505	0.147048	-401.893766	-401.885369	-401.884425	-401.927185	31.346	
C	 0.0609985642	 1.5347503852	 0.2085980539	-0.381744
C	-0.1610884294	 0.0369012862	-0.0326549738	-0.224309
C	 0.5899178574	-0.4730765297	-1.2499159148	 0.015423
C	 2.1101640784	-0.7909527681	-1.1287491709	 0.035304
O	 1.7873744792	-1.9668226411	-0.2956304234	-0.304344
C	 0.82186919	-2.0013471663	-1.4141672876	 0.020535
C	 2.0228812405	-1.7285398164	-2.3755197008	-0.142564
C	 1.8087564331	-1.1881662747	-3.7057617359	 0.268399
N	 1.6405296876	-0.7601605579	-4.7667362118	-0.335473
H	 1.11713579	 1.7557464933	 0.3970004882	 0.117956
H	-0.2531967706	 2.1302979675	-0.6554994466	 0.120473
H	-0.5087785892	 1.8800021699	 1.0761002922	 0.120249
H	 0.1482593351	-0.5399305173	 0.8434502379	 0.12179
H	-1.2316448408	-0.1543377785	-0.1797764879	 0.102266
H	 0.3024801059	 0.05219696	-2.1661072647	 0.104414
H	 2.9484196798	-0.1652087203	-0.8238900095	 0.113146
H	 0.1118853621	-2.8273740808	-1.4495156338	 0.112748
H	 2.7688912167	-2.5235749211	-2.3680451508	 0.135731
78.9416	118.5153	154.2656	199.2863	214.482	309.223	386.3054	449.1703	534.5244	540.0269	645.6237	737.398	760.6611	829.8355	862.388	893.9617	903.2321	912.5012	967.2498	1032.0144	1043.9115	1068.88	1079.8031	1135.2904	1143.5313	1165.2505	1184.2297	1200.6248	1239.4832	1267.6083	1291.3103	1339.938	1353.8154	1412.3157	1428.306	1489.6997	1499.6441	1505.9352	2353.0911	3030.3845	3033.8997	3067.6607	3085.9886	3106.3192	3110.3256	3120.3882	3126.3016	3132.9661
CCC1C2OC1C2C#N	CC[C@H]1[C@H]2O[C@@H]1[C@H]2C#N	
InChI=1S/C7H9NO/c1-2-4-6-5(3-8)7(4)9-6/h4-7H,2H2,1H3	InChI=1S/C7H9NO/c1-2-4-6-5(3-8)7(4)9-6/h4-7H,2H2,1H3/t4-,5-,6+,7-
