19
gdb 83361	2.17031	2.0427	1.60665	1.3539	69.51	-0.2482	0.0766	0.3248	944.9432	0.16042	-460.174423	-460.166665	-460.165721	-460.206082	31.249	
C	 0.0469534107	 1.4817046438	-0.0165211141	-0.467494
C	-0.0504772779	-0.0193905676	-0.0046246536	 0.45924
O	 0.6113789395	-0.5788172964	-1.1247202652	-0.301514
C	 0.1551741758	-1.9485076299	-1.2289687406	-0.084503
C	-0.7383489591	-2.110756849	 0.0046255611	-0.135944
C	 0.1707534272	-1.9409669711	 1.2364425364	-0.100679
O	 0.5178371155	-0.535438985	 1.2092396518	-0.321519
C	-1.4238207	-0.7204805101	-0.0069242798	 0.118909
O	-2.2457035302	-0.4073250269	 1.0876237689	-0.460712
H	 1.086356129	 1.7896636015	 0.1181640234	 0.139373
H	-0.316547468	 1.8682979789	-0.9708169691	 0.131789
H	-0.5555826567	 1.9023567234	 0.7917519092	 0.127289
H	-0.393483343	-2.0834977112	-2.1700912208	 0.102588
H	 1.0219913249	-2.618869735	-1.2297045373	 0.107817
H	-1.3836663478	-2.9879738688	 0.0132647234	 0.084995
H	-0.3430419771	-2.1688960229	 2.1770790394	 0.104428
H	 1.0806969484	-2.5485252362	 1.1785295536	 0.110011
H	-1.9958777204	-0.5355208965	-0.9190729166	 0.093516
H	-1.6610654607	-0.2370640909	 1.8369360498	 0.292409
180.3483	193.1555	223.2753	237.7402	327.0867	357.0404	403.1544	458.6278	495.8238	593.1696	631.6902	645.7877	798.5099	831.4538	862.7479	875.2843	894.8373	932.5054	952.8075	973.1271	996.7149	1050.8776	1103.7288	1117.8654	1137.5531	1160.5999	1192.5776	1197.3547	1219.4812	1266.0328	1286.2831	1315.4441	1343.23	1359.3779	1389.9352	1421.0749	1439.9064	1481.905	1487.6512	1520.5177	1535.2368	3014.905	3030.0008	3059.7538	3060.3867	3070.9566	3094.3466	3134.2469	3138.5034	3142.6128	3779.1266
CC12OCC(CO1)C2O	C[C@@]12OC[C@@H](CO1)[C@H]2O	
InChI=1S/C6H10O3/c1-6-5(7)4(2-8-6)3-9-6/h4-5,7H,2-3H2,1H3	InChI=1S/C6H10O3/c1-6-5(7)4(2-8-6)3-9-6/h4-5,7H,2-3H2,1H3/t4-,5-,6+/m1/s1
