15
gdb 123667	4.11025	1.58281	1.25015	4.0475	70.74	-0.2195	0.0025	0.222	950.7038	0.116025	-416.777828	-416.771644	-416.7707	-416.80817	25.539	
C	 0.0055117165	 1.4969597737	 0.092611597	-0.30429
C	 1.3147823717	 0.7534202753	-0.0027515526	 0.001333
N	 2.0306714751	 0.3754565803	 1.2072256408	-0.397234
C	 1.1825633534	-0.4175212076	 1.9616529091	 0.41934
N	 1.260621363	-0.9412949902	 3.1549857236	-0.277944
O	 0.0716120843	-1.7128593361	 3.2411926004	-0.188526
C	-0.6443183228	-1.5787515485	 2.1007153434	-0.085431
C	-0.0007002665	-0.7580003779	 1.2437022303	 0.181082
C	-0.0043862306	-0.0222575673	-0.0395562665	-0.215746
H	-0.2870855941	 1.9275446011	 1.0440984295	 0.1263
H	-0.2991044554	 2.0639440115	-0.7804912263	 0.121823
H	 1.9319727843	 0.868895286	-0.8862470527	 0.108614
H	 2.5901370728	 1.0740718128	 1.6743560527	 0.254859
H	-1.5727228246	-2.127785865	 2.0741528638	 0.148005
H	-0.370441007	-0.4707013881	-0.9543910726	 0.107814
176.519	256.9479	385.3306	442.1214	473.6514	515.5674	564.7775	649.2711	696.7676	758.5092	797.4589	809.1542	832.1367	835.9479	874.7444	944.2046	955.6739	991.6512	1030.9867	1058.1492	1093.573	1116.6213	1134.9493	1191.0847	1194.2269	1272.1517	1325.9899	1349.2038	1383.9109	1453.8714	1471.4346	1594.3723	1703.0214	3132.4823	3174.605	3190.9462	3225.1699	3263.1413	3608.6833
C1C2NC3=NOC=C3C12	C1[C@H]2Nc3nocc3[C@@H]12	
InChI=1S/C6H6N2O/c1-3-4-2-9-8-6(4)7-5(1)3/h2-3,5H,1H2,(H,7,8)	InChI=1S/C6H6N2O/c1-3-4-2-9-8-6(4)7-5(1)3/h2-3,5H,1H2,(H,7,8)/t3-,5-/m1/s1
