18
gdb 114146	5.05614	0.89784	0.83144	4.4929	78.34	-0.2761	-0.0026	0.2736	1398.4072	0.146804	-401.927399	-401.918741	-401.917796	-401.960953	32.059	
C	 0.0102355394	 1.5009782857	 0.1583897371	-0.383317
C	-0.1155935826	-0.0121647787	-0.0437888718	-0.194852
C	 0.6673514098	-0.5193389933	-1.249769825	 0.003553
C	 2.2441285918	-0.4904217794	-1.2031188654	-0.327681
C	 2.2299758517	-2.0120744473	-1.4199192955	 0.317294
O	 1.476480581	-2.5918172505	-0.3465726711	-0.264258
C	 0.7487944574	-2.0437300392	-1.4456086663	-0.06437
C	 3.1959959087	-2.8216970518	-2.0943057187	 0.201824
N	 3.9969329038	-3.4384930874	-2.6561235366	-0.337182
H	 1.053680032	 1.7983444142	 0.3083878608	 0.121037
H	-0.3695393268	 2.0521174098	-0.7090074207	 0.116459
H	-0.5561739394	 1.8285068997	 1.0350757635	 0.12105
H	 0.2350194502	-0.5425602593	 0.8485051117	 0.118139
H	-1.1727574338	-0.2794694237	-0.1706151097	 0.10151
H	 0.3174709905	-0.0404209567	-2.1704422627	 0.08939
H	 2.6878330479	 0.0601299726	-2.033814665	 0.130579
H	 2.7056320685	-0.1822903317	-0.2626892882	 0.125821
H	 0.0804080899	-2.7122707831	-1.9762990564	 0.125005
85.2848	106.0751	133.9825	211.0359	221.8276	268.0371	366.2215	422.7711	466.954	553.3078	580.3322	632.3352	721.3462	779.3567	816.2202	884.3141	918.7361	931.9578	955.7111	974.2852	1027.3726	1059.596	1106.166	1127.9866	1163.886	1190.5326	1225.4034	1260.2212	1265.8507	1290.6597	1340.6384	1382.0754	1413.8925	1418.9195	1473.0811	1489.7333	1501.3856	1506.6619	2356.8645	3025.0277	3033.2248	3053.3285	3072.8815	3080.0044	3101.4261	3108.6147	3142.5943	3191.2188
CCC1CC2(OC12)C#N	CC[C@H]1C[C@]2(O[C@@H]12)C#N	
InChI=1S/C7H9NO/c1-2-5-3-7(4-8)6(5)9-7/h5-6H,2-3H2,1H3	InChI=1S/C7H9NO/c1-2-5-3-7(4-8)6(5)9-7/h5-6H,2-3H2,1H3/t5-,6-,7-/m0/s1
