18
gdb 126343	2.04716	1.58669	0.95502	2.0242	74.65	-0.2466	0.0046	0.2511	1247.91	0.147284	-439.080928	-439.071941	-439.070997	-439.115169	32.14	
C	-0.2670490087	 1.5195227185	 0.1331297013	-0.374654
C	 0.0734142318	 0.0256251194	-0.0023915963	-0.306616
C	 0.7839530263	-0.5270620744	 1.1942713885	 0.036923
C	 2.0577991373	-0.9664922989	 1.3424551253	 0.002494
O	 2.2998363024	-1.3781520344	 2.5988372889	-0.189503
N	 1.1357980691	-1.214322056	 3.3558826046	-0.252472
C	 0.2605850936	-0.715111805	 2.5151670877	 0.430905
O	-0.9975867994	-0.4146542867	 2.8545049883	-0.263837
C	-1.3540533217	-0.6767227766	 4.214734625	-0.243163
H	 0.6412647776	 2.1193750188	 0.2459041738	 0.119139
H	-0.8051021957	 1.8760210003	-0.7505106173	 0.113418
H	-0.8972766654	 1.6929738732	 1.0097701811	 0.135222
H	-0.853468155	-0.5384906333	-0.1624847043	 0.11784
H	 0.6915252273	-0.1363391319	-0.8921288456	 0.106038
H	 2.8873642419	-1.0483043505	 0.6560088843	 0.148513
H	-0.7282047197	-0.0936981906	 4.8972262638	 0.143391
H	-2.399354725	-0.3823344163	 4.3111428148	 0.132789
H	-1.2328511566	-1.7389957358	 4.4473968661	 0.143572
66.4416	111.1056	145.7266	172.7094	185.258	244.0538	301.5563	319.6972	442.0366	526.0126	592.1268	624.9055	740.2032	756.2658	791.6176	849.6955	920.8734	955.9739	975.0659	1046.7899	1073.9632	1094.0078	1155.8947	1180.3152	1212.1178	1248.1178	1273.8936	1324.1468	1362.6797	1409.069	1444.2899	1465.4022	1479.2769	1482.822	1496.4416	1500.6618	1509.7199	1563.8479	1671.8025	3031.226	3040.0278	3040.7273	3069.4219	3110.8374	3111.0812	3121.8847	3153.0651	3255.3677
CCC1=CON=C1OC	CCc1conc1OC	
InChI=1S/C6H9NO2/c1-3-5-4-9-7-6(5)8-2/h4H,3H2,1-2H3	InChI=1S/C6H9NO2/c1-3-5-4-9-7-6(5)8-2/h4H,3H2,1-2H3
