20
gdb 117575	2.35826	1.01963	0.75204	4.6157	80.56	-0.2684	0.0379	0.3063	1541.2804	0.169653	-403.137044	-403.127051	-403.126107	-403.172967	35.077	
C	 0.0633903055	 1.3214217551	 0.0653214407	-0.231073
O	 0.0373965557	-0.0877043682	 0.0331566601	-0.230577
C	 0.6613369254	-0.6255160532	-1.103580623	-0.054463
C	 0.4802964555	-2.1511227136	-1.0764594215	-0.198718
C	-0.9437357359	-2.5038406708	-1.1590837968	 0.292173
N	-2.0574130195	-2.7959057033	-1.2563811409	-0.328277
C	 1.2693607616	-2.8330769162	-2.1855252432	 0.025903
C	 2.7296634333	-3.1476405975	-1.9767961232	-0.279846
C	 1.7150909333	-4.2621704436	-2.03242145	-0.26845
H	 1.0938356058	 1.7096758677	 0.0815391221	 0.105727
H	-0.4566275034	 1.7565630347	-0.8017124478	 0.112554
H	-0.447536244	 1.6338337314	 0.9784703664	 0.135921
H	 0.2268354648	-0.2123421206	-2.0287054481	 0.101302
H	 1.7402153432	-0.4007107106	-1.1123516924	 0.098579
H	 0.8483257344	-2.503134781	-0.1045468435	 0.12949
H	 0.9750162	-2.5252825822	-3.1847096443	 0.102463
H	 3.4053744157	-3.0172432429	-2.8143123189	 0.120984
H	 3.1683900157	-2.9107284531	-1.0127102065	 0.118213
H	 1.4703797524	-4.772162741	-1.106665991	 0.123983
H	 1.6909334705	-4.899516191	-2.9085565082	 0.124112
61.6463	79.446	93.9812	130.7524	144.6438	211.8667	243.5859	309.5694	318.6084	410.6046	431.0573	531.3881	610.5632	771.2395	828.4498	844.2012	879.9997	940.7853	966.1807	993.1277	1063.3623	1084.1234	1086.7103	1097.573	1139.0529	1157.7527	1175.1598	1186.5311	1197.4438	1224.7543	1234.1468	1250.8424	1273.8859	1340.8843	1411.9816	1412.4244	1473.0954	1480.684	1487.503	1501.722	1507.9469	1526.5829	2360.1378	2962.3752	2978.1156	2998.033	3023.7951	3041.2823	3123.914	3133.3007	3139.4326	3151.5383	3213.1133	3228.3638
COCC(C#N)C1CC1	COC[C@@H](C#N)C1CC1	
InChI=1S/C7H11NO/c1-9-5-7(4-8)6-2-3-6/h6-7H,2-3,5H2,1H3	InChI=1S/C7H11NO/c1-9-5-7(4-8)6-2-3-6/h6-7H,2-3,5H2,1H3/t7-/m1/s1
