23
gdb 119267	1.88976	1.07841	0.77432	0.5466	82.67	-0.2456	0.0808	0.3263	1576.6789	0.203131	-425.402294	-425.391457	-425.390512	-425.439011	39.116	
C	-0.2561855013	 1.6200293866	 1.5111482939	-0.383925
C	-0.3518754387	 0.1248001472	 1.7656346173	-0.052396
O	 0.7207871592	-0.506853252	 1.0795048454	-0.298265
C	 0.8709251772	-1.8788054094	 1.3417878191	 0.447826
C	-0.1898979127	-2.7777822406	 0.736984761	-0.255818
C	-0.2762798414	-2.6449341357	-0.7800027126	-0.069998
O	-1.3057254109	-3.5148752157	-1.2303388097	-0.424297
C	 2.3024284292	-2.3280872937	 1.3584721636	-0.314243
C	 1.518148241	-2.2506553907	 2.6540789252	-0.331602
H	-0.3182923504	 1.8322960406	 0.4398857344	 0.125287
H	-1.0718963699	 2.1458998239	 2.01643762	 0.11384
H	 0.6948800838	 2.0131493935	 1.8817170182	 0.123716
H	-0.289554475	-0.0923789105	 2.8427152993	 0.089519
H	-1.3201860381	-0.2595402838	 1.4114541382	 0.092784
H	 0.031548884	-3.8198459835	 0.9914753249	 0.104421
H	-1.1758992143	-2.5591928396	 1.1641740658	 0.105652
H	-0.485801631	-1.5987175795	-1.0460086471	 0.096924
H	 0.6950572612	-2.9064005221	-1.2292511934	 0.086875
H	-1.3852954443	-3.4147571987	-2.183208192	 0.284179
H	 2.5413389129	-3.3053237579	 0.9530364444	 0.110867
H	 3.0515290907	-1.5642545328	 1.1862753783	 0.121095
H	 1.7655353918	-1.4391501684	 3.3291829328	 0.115481
H	 1.2219825568	-3.1733596571	 3.141405223	 0.112079
54.1158	65.4904	89.679	137.5306	162.1503	197.4078	242.8668	264.6065	309.473	335.999	348.2393	433.6069	447.5523	557.8224	753.7542	785.3366	802.7835	821.8121	876.8306	897.6587	944.1976	970.2563	988.804	1027.8902	1046.4389	1072.7002	1076.5993	1086.0904	1104.4115	1147.5677	1188.6079	1189.7437	1205.9021	1244.4158	1281.5588	1295.1672	1300.7054	1334.3964	1370.1228	1400.093	1425.6048	1452.8971	1459.7843	1482.6398	1489.3765	1497.6103	1499.998	1528.296	1531.8573	2974.8419	2982.3501	3012.015	3012.4768	3040.7553	3043.5187	3081.9539	3117.9498	3119.7079	3132.2914	3137.651	3216.8402	3232.0459	3831.5526
CCOC1(CCO)CC1	CCOC1(CCO)CC1	
InChI=1S/C7H14O2/c1-2-9-7(3-4-7)5-6-8/h8H,2-6H2,1H3	InChI=1S/C7H14O2/c1-2-9-7(3-4-7)5-6-8/h8H,2-6H2,1H3
