19
gdb 40133	2.7485	1.57379	1.19328	1.8923	83.69	-0.2158	-0.0213	0.1945	1083.0784	0.160656	-385.881574	-385.873778	-385.872833	-385.914055	30.662	
C	-0.0772173182	 1.5250614714	-0.0733164767	-0.230136
O	 1.1597986768	 0.8163336421	-0.1707918561	-0.269518
C	-0.0457845139	 0.0555065728	-0.0101544516	 0.41143
C	-0.2259260825	-0.6044627437	 1.342813256	-0.330536
C	 0.3178149946	-1.9930096766	 1.5366929862	-0.054504
C	 0.908268111	-2.8264292249	 0.6670649599	-0.081126
C	 1.1623378226	-2.6661908098	-0.7613473892	-0.057496
C	 0.5988566867	-1.7930945648	-1.6051627744	-0.060482
C	-0.4347882211	-0.7584745206	-1.2373748872	-0.34971
H	-0.2143680933	 2.1079665962	 0.8375100173	 0.106388
H	-0.4092236207	 2.0182518448	-0.9865457291	 0.107883
H	 0.2313531005	 0.0527137779	 2.0942078357	 0.121154
H	-1.2999002464	-0.6169819395	 1.5860065374	 0.114267
H	 0.2228630913	-2.3458004099	 2.5623642089	 0.089955
H	 1.2602090454	-3.7712227066	 1.0771756049	 0.08455
H	 1.8781551124	-3.3720295265	-1.1766272931	 0.085651
H	 0.9022043618	-1.8180233229	-2.6478732431	 0.091662
H	-1.4027321394	-1.2438647403	-1.0460274083	 0.115787
H	-0.5864653177	-0.0823442092	-2.0832584374	 0.104779
67.8557	107.171	280.9968	323.2471	336.1258	365.9217	422.9374	441.0446	526.2875	598.3688	672.9853	772.7799	791.1117	851.4862	870.435	889.0465	899.9337	922.687	974.1822	987.8088	998.8641	1008.2943	1017.8909	1059.9198	1128.4638	1161.4024	1176.7188	1238.4557	1255.2498	1268.9339	1301.1617	1337.0285	1360.6329	1417.576	1433.0129	1451.8621	1459.1693	1469.9358	1531.9938	1687.7551	1716.4489	2988.6825	3008.1483	3037.3867	3072.4748	3082.2938	3125.3137	3141.2673	3153.0717	3155.8859	3171.9251
C1OC11CC=CC=CC1	C1O[C@]21CC=CC=CC2	
InChI=1S/C8H10O/c1-2-4-6-8(5-3-1)7-9-8/h1-4H,5-7H2	InChI=1S/C8H10O/c1-2-4-6-8(5-3-1)7-9-8/h1-4H,5-7H2
