20
gdb 94167	2.35538	1.26542	1.24966	4.9736	74.5	-0.2465	0.0165	0.263	1167.525	0.171171	-440.316242	-440.307021	-440.306077	-440.350222	34.941	
C	-0.6606405493	 1.1925553341	-0.1340458273	-0.431838
C	 0.193745012	-0.0621400114	-0.1814483794	 0.03236
C	 1.6165513527	 0.0025987283	-0.7988879538	-0.250027
C	 2.0994681993	-0.9652978268	 0.3105283777	-0.252253
C	 0.8226485626	-0.6239665407	 1.1432401988	 0.117494
N	 1.1107509322	 0.3288864159	 2.2225041014	-0.595619
H	 1.9427897413	 0.8753407007	 2.0308883232	 0.243893
H	 0.3436813171	 0.9826456061	 2.3523983273	 0.246267
H	 0.687574027	-1.1447616473	 3.3411974479	 0.30492
C	 0.1144004344	-1.8537054249	 1.7308356594	 0.410902
O	 0.1969887582	-1.9493036188	 3.0643564013	-0.375082
O	-0.4377396894	-2.6790822879	 1.049688829	-0.354621
H	-0.1279364732	 2.0341871613	 0.3242115864	 0.101323
H	-0.9410780892	 1.5021324709	-1.1463073529	 0.127319
H	-1.5886079956	 1.0293704097	 0.4263162192	 0.123846
H	-0.3657361002	-0.8858038032	-0.6321344097	 0.111523
H	 1.7308394796	-0.323990981	-1.8344522902	 0.107861
H	 2.0617246679	 0.998405693	-0.7008524047	 0.093689
H	 2.0806311996	-2.0071465986	-0.0135330523	 0.136259
H	 3.055507213	-0.7629202494	 0.8018548087	 0.101786
66.2964	97.5162	176.0089	218.177	236.5848	285.0604	306.6367	361.5711	386.5488	429.9299	510.9905	552.3095	658.821	720.2963	741.3427	807.8157	846.4264	880.8265	892.6648	921.7237	942.3643	970.5107	1002.7536	1042.3598	1062.317	1141.7036	1181.7842	1191.4078	1210.3659	1241.9943	1263.6714	1273.0783	1283.5959	1328.634	1379.3934	1408.2424	1424.8776	1477.8267	1493.9244	1497.9595	1499.6391	1652.1472	1855.8761	3022.0993	3047.6925	3061.9322	3076.0017	3092.6053	3096.7583	3109.3405	3131.5756	3485.7323	3502.3658	3585.4281
CC1CCC1([NH3+])C([O-])=O	C[C@H]1CC[C@]1(N)C(=O)O	
InChI=1S/C6H11NO2/c1-4-2-3-6(4,7)5(8)9/h4H,2-3,7H2,1H3,(H,8,9)	InChI=1S/C6H11NO2/c1-4-2-3-6(4,7)5(8)9/h4H,2-3,7H2,1H3,(H,8,9)/t4-,6+/m0/s1
