18
gdb 7611	3.25471	1.58097	1.30315	2.0614	68.88	-0.2416	-0.0198	0.2219	1014.9449	0.149796	-384.95345	-384.943994	-384.943049	-384.987677	33.306	
C	 0.2209661428	 1.2268162985	-0.3709448036	-0.42493
C	 0.433329945	-0.1847226608	 0.1124898429	 0.035954
O	 1.7442554127	-0.5692586243	 0.5188656931	-0.284343
C	 0.7129946777	-0.5628993709	 1.5232485509	 0.270382
C	 0.8283819143	 0.4449385679	 2.642174778	-0.466789
C	 0.249913597	-1.9405648962	 1.965318633	 0.326328
C	 0.7564261462	-3.1352326844	 1.1833109988	-0.47999
O	-0.4772033529	-2.0529628597	 2.9272668035	-0.305506
H	 0.7587942246	 1.9553043332	 0.2370044641	 0.134502
H	 0.5758774089	 1.319760346	-1.4027491584	 0.134872
H	-0.8455930675	 1.4747033132	-0.3605189587	 0.131067
H	-0.0682325569	-0.9360831517	-0.5019698835	 0.088519
H	 1.0740571624	 1.4396839382	 2.2705763044	 0.122405
H	-0.1110681688	 0.4815199116	 3.1975911033	 0.149376
H	 1.6135455492	 0.1381448866	 3.3404566582	 0.132946
H	 0.5645083251	-3.0346198035	 0.1112331865	 0.142312
H	 1.8437282121	-3.2061070631	 1.2927935938	 0.155052
H	 0.2818786282	-4.0389758607	 1.5665265635	 0.137843
65.8969	113.8537	122.587	147.8347	171.1652	214.0634	294.5104	339.6199	350.9923	471.0072	500.1944	533.5022	604.4969	667.9281	780.1953	838.7053	911.4848	965.3554	999.2704	1024.7304	1064.4599	1106.3906	1130.9427	1136.9595	1193.5474	1296.8571	1339.9584	1386.5094	1403.0379	1414.2907	1446.5931	1455.9033	1470.4624	1473.3941	1484.3657	1492.7158	1512.8993	1799.3683	3042.8588	3049.5143	3056.7385	3078.5062	3103.3187	3111.7054	3123.5545	3144.0929	3157.711	3158.9671
CC1OC1(C)C(C)=O	C[C@H]1O[C@]1(C)C(=O)C	
InChI=1S/C6H10O2/c1-4(7)6(3)5(2)8-6/h5H,1-3H3	InChI=1S/C6H10O2/c1-4(7)6(3)5(2)8-6/h5H,1-3H3/t5-,6-/m1/s1
