23
gdb 122299	4.72119	0.66706	0.6428	1.9816	86.29	-0.2281	0.0751	0.3031	1845.7804	0.204912	-388.253393	-388.243699	-388.242755	-388.288805	35.934	
C	-0.2169137274	 1.5751471359	 0.0027855273	-0.381952
C	-0.0007256465	 0.0600133825	 0.0386362684	-0.163724
C	 0.6583528348	-0.4853129072	-1.2323389902	-0.151104
C	 0.8858788344	-2.0048747892	-1.1951239807	-0.330555
C	 1.5349721791	-2.5378609201	-2.4407472011	 0.301823
C	 0.783234931	-2.9195694616	-3.7063665872	-0.340591
C	 1.6599510699	-3.9262809516	-3.0266923022	 0.038071
O	 3.0263673233	-3.7392099616	-3.4045487442	-0.288299
C	 3.0188120374	-2.4193796193	-2.7964144047	-0.125374
H	 0.7335537965	 2.1077792419	-0.1137545973	 0.113858
H	-0.8606828025	 1.8639255232	-0.8355767077	 0.114082
H	-0.6883837349	 1.9340440712	 0.9230012703	 0.111865
H	 0.6175385296	-0.202050798	 0.9076563436	 0.094686
H	-0.963953418	-0.445218531	 0.190807094	 0.094239
H	 0.0398643736	-0.2353819792	-2.1046328996	 0.098002
H	 1.6202173551	 0.0226905034	-1.3884476605	 0.094059
H	 1.5040935948	-2.2580092695	-0.3222572321	 0.096742
H	-0.0762605295	-2.5118165984	-1.0441489307	 0.096357
H	-0.2852645477	-3.0572040569	-3.565812334	 0.110122
H	 1.075347214	-2.5308094237	-4.6786301856	 0.111415
H	 1.3565601463	-4.9082553173	-2.6805558685	 0.10194
H	 3.3218215635	-1.6338982935	-3.499402174	 0.101946
H	 3.6734662529	-2.39987911	-1.9160465734	 0.10239
53.2751	83.12	95.823	129.4897	236.2086	241.8349	285.9188	322.3626	350.5182	446.2027	458.6236	695.8066	735.2556	758.2079	792.0517	848.4355	893.56	917.9227	929.4891	934.1002	986.0081	995.5391	1013.8953	1019.5225	1050.6792	1065.058	1065.9517	1078.0784	1120.4026	1145.5564	1160.9501	1221.5918	1258.6555	1275.9863	1291.0981	1304.9133	1328.6928	1340.4189	1366.5456	1396.6288	1412.0843	1417.5039	1479.1289	1484.6604	1486.3635	1498.8989	1499.3809	1512.5114	1517.1919	3002.8614	3007.4615	3013.4219	3017.1462	3028.9642	3030.0118	3041.1255	3061.4814	3062.4386	3095.359	3101.4413	3108.1289	3173.5158	3200.3983
CCCCC12CC1OC2	CCCC[C@]12C[C@H]1OC2	
InChI=1S/C8H14O/c1-2-3-4-8-5-7(8)9-6-8/h7H,2-6H2,1H3	InChI=1S/C8H14O/c1-2-3-4-8-5-7(8)9-6-8/h7H,2-6H2,1H3/t7-,8-/m1/s1
