14
gdb 15296	5.97355	0.98272	0.89414	2.1521	63.89	-0.268	-0.0479	0.2201	1203.0601	0.106459	-378.713014	-378.705125	-378.704181	-378.746279	27.254	
O	-0.2707705369	 0.3227600278	 0.7752104106	-0.247372
C	 0.3238174969	 0.6992874382	-0.2018868722	 0.170399
C	 1.4000536871	 1.7327601619	-0.1605620764	-0.135239
N	 2.3170905283	 1.7512660054	-1.3177308705	-0.317726
C	 1.4438186239	 2.8906043813	-1.1183986821	-0.005084
C	 0.3734690155	 3.1414945685	-2.1732498089	-0.345688
C	 0.8661401759	 4.0269488133	-3.228708596	 0.259853
N	 1.2718226326	 4.7360702605	-4.0454234248	-0.294992
H	 0.1175040153	 0.2895175825	-1.2146651807	 0.090565
H	 1.7855665459	 1.9253565493	 0.8377406061	 0.117688
H	 3.2704414244	 1.943934339	-1.0253121253	 0.255223
H	 1.8730286828	 3.8022869414	-0.7071949722	 0.122857
H	 0.0594915309	 2.1965407177	-2.6248170451	 0.164953
H	-0.5099944327	 3.6001794231	-1.7145694324	 0.164562
55.6666	80.8197	134.9011	224.6449	284.7802	386.1745	392.8483	444.1465	489.5381	554.728	826.0429	841.3097	907.695	939.4697	962.0699	1005.2859	1014.4116	1051.7689	1125.4241	1190.5418	1221.3015	1240.3941	1269.2803	1320.9729	1365.4837	1417.542	1453.9926	1469.2946	1826.9514	2365.8647	2899.1128	3053.4588	3105.1723	3131.925	3150.4436	3526.7693
O=CC1NC1CC#N	O=C[C@H]1N[C@H]1CC#N	
InChI=1S/C5H6N2O/c6-2-1-4-5(3-8)7-4/h3-5,7H,1H2	InChI=1S/C5H6N2O/c6-2-1-4-5(3-8)7-4/h3-5,7H,1H2/t4-,5+/m0/s1
