13
gdb 29079	2.73808	1.75114	1.10738	2.1592	72.6	-0.2548	-0.0818	0.173	1001.7329	0.091015	-452.781948	-452.774868	-452.773923	-452.814036	26.145	
O	-0.0834713537	 1.2546970752	-0.3150400288	-0.335926
C	 0.0111290816	-0.0349222862	-0.0197084539	 0.343147
N	 1.1864704596	-0.5692829914	 0.0059739342	-0.345297
C	 1.4959966275	-1.8820591196	 0.1798100074	 0.09531
N	 0.8077509795	-2.9701159527	 0.0232843999	-0.256399
C	-0.5380812005	-3.0020613679	-0.1923406405	 0.018646
C	-1.4977386468	-2.0509896071	-0.0162570227	-0.178456
C	-1.3455701125	-0.6395169229	 0.2880906328	 0.286449
O	-2.2549384785	 0.0814989101	 0.6500795323	-0.325637
H	 0.8185584961	 1.5667322246	-0.4921932195	 0.3117
H	 2.5460765983	-2.0286892936	 0.4315764833	 0.13296
H	-0.8906269861	-3.9935292312	-0.4726916422	 0.125787
H	-2.5349058447	-2.3577051373	-0.1179962824	 0.127717
55.2685	171.7391	291.9573	323.3509	352.2344	408.8071	438.178	557.4018	613.052	673.664	690.7827	770.922	792.4576	876.6538	889.506	990.8666	1000.9858	1031.1053	1079.2629	1233.8752	1269.964	1342.0083	1428.8624	1448.9642	1473.4948	1528.3673	1620.9022	1658.3986	1752.4012	3137.7486	3142.0131	3181.1833	3724.7957
OC1=NC=NC=CC1=O	Oc1ncnccc1=O	
InChI=1S/C5H4N2O2/c8-4-1-2-6-3-7-5(4)9/h1-3H,(H,6,7,8,9)	InChI=1S/C5H4N2O2/c8-4-1-2-6-3-7-5(4)9/h1-3H,(H,6,7,8,9)
