18
gdb 35707	2.42102	1.51184	1.09615	1.9288	76.95	-0.2405	0.0366	0.2771	1133.2368	0.147271	-401.860005	-401.851342	-401.850398	-401.894306	31.795	
C	-0.1540999621	-1.2680158014	-0.0675616175	-0.460252
C	-0.0940237227	-0.0693357944	-0.0004829907	 0.350855
C	-0.0273621571	 1.3728981146	 0.0906312759	-0.267219
C	 0.1525399445	 1.9903629808	 1.5042045771	-0.079089
O	 1.4232414564	 2.570744601	 1.1474652688	-0.28887
C	 1.3419001435	 2.0801854319	-0.2085361674	 0.102716
C	 2.5354681418	 1.2476525747	-0.5981406048	-0.006277
C	 3.8806108186	 1.660707057	-0.1288628084	-0.24577
N	 3.2418413855	 0.4409176114	 0.400212367	-0.313229
H	-0.1932981868	-2.3275189404	-0.1278735433	 0.203136
H	-0.8531056248	 1.82331209	-0.466072686	 0.112029
H	-0.5848997751	 2.7563671467	 1.7689038421	 0.111723
H	 0.24244531	 1.2672622429	 2.3208002235	 0.118588
H	 1.224476582	 2.9097468128	-0.9196011825	 0.087057
H	 2.435439526	 0.7730232471	-1.572515317	 0.097966
H	 4.7508375745	 1.4926143025	-0.756551794	 0.116103
H	 3.9373332027	 2.5290651924	 0.5214487151	 0.125615
H	 2.857019213	 0.6611846005	 1.317323582	 0.234918
38.5901	95.7293	111.4131	197.0191	227.2997	258.5076	378.6825	492.6633	552.36	604.3694	629.3284	645.0284	738.9943	797.4978	849.8285	865.9774	897.0412	953.3678	969.7775	1002.9307	1018.4305	1054.4694	1088.2557	1104.2307	1138.5229	1140.8485	1170.7381	1183.9102	1210.1431	1262.031	1281.5253	1301.9491	1343.573	1349.273	1378.12	1414.7628	1504.043	1524.7338	2238.6149	3003.9807	3031.8457	3070.4961	3089.286	3113.2232	3129.0366	3202.1913	3486.1477	3503.7707
C#CC1COC1C1CN1	C#C[C@H]1CO[C@H]1[C@H]1CN1	
InChI=1S/C7H9NO/c1-2-5-4-9-7(5)6-3-8-6/h1,5-8H,3-4H2	InChI=1S/C7H9NO/c1-2-5-4-9-7(5)6-3-8-6/h1,5-8H,3-4H2/t5-,6+,7+/m0/s1
