21
gdb 109000	3.49552	1.07327	1.02185	1.187	84.85	-0.2151	0.0228	0.2379	1290.6523	0.182985	-387.062603	-387.053986	-387.053042	-387.095802	33.813	
C	 0.0102303825	 1.4731635966	 0.292484647	-0.371428
C	-0.0975097308	-0.0124836616	-0.0960710327	-0.321304
C	-1.4987688194	-0.5270002027	-0.0808798753	 0.357501
C	-2.2775522906	-1.0118277863	-1.0600180191	-0.220063
C	-3.5703818771	-1.3948577613	-0.3465940477	-0.116403
C	-3.7727269439	-0.1619482875	 0.595471331	-0.215415
C	-2.397752614	-0.6539782129	 1.1590168013	-0.134305
C	-2.9363006415	-2.1067554434	 0.9208670406	 0.166879
O	-3.819098232	-2.5203232508	 1.9340411213	-0.445713
H	 1.0542781312	 1.8014732739	 0.2917049715	 0.111237
H	-0.546100521	 2.1008691696	-0.4104721816	 0.120197
H	-0.3965449258	 1.652192312	 1.292977437	 0.120855
H	 0.3311534203	-0.1640563762	-1.0936928539	 0.10138
H	 0.5174710632	-0.601790014	 0.5991083704	 0.10386
H	-2.0472977318	-1.1572064914	-2.1069734664	 0.091799
H	-4.3842181756	-1.8417082281	-0.9187884117	 0.052331
H	-3.7952506355	 0.8238405551	 0.1254158163	 0.086248
H	-4.5934936837	-0.2909316847	 1.3031366823	 0.108005
H	-2.0109821387	-0.3457004866	 2.1305521137	 0.061274
H	-2.1787138869	-2.8709264803	 0.701287349	 0.059764
H	-4.196150269	-3.3671669395	 1.675503897	 0.283301
75.5307	118.2658	185.3261	245.8292	273.6608	306.1042	358.505	385.9184	486.5389	515.2148	597.7843	639.9137	774.6701	793.4007	805.7961	851.6728	858.9792	891.8512	927.6202	943.4129	955.5652	1004.462	1048.6377	1055.6718	1080.4609	1084.8846	1102.5471	1118.4776	1177.6529	1194.5156	1226.0812	1232.8887	1238.6491	1254.4636	1274.8879	1295.7865	1337.226	1351.2892	1406.2198	1409.8631	1477.1248	1487.6466	1497.1677	1505.8739	1675.9623	3003.8519	3014.5004	3035.9825	3054.7082	3067.4001	3106.3924	3108.9129	3109.8381	3116.5096	3138.3526	3217.6604	3817.1722
CCC1=CC2CC1C2O	CCC1=C[C@@H]2C[C@H]1[C@H]2O	
InChI=1S/C8H12O/c1-2-5-3-6-4-7(5)8(6)9/h3,6-9H,2,4H2,1H3	InChI=1S/C8H12O/c1-2-5-3-6-4-7(5)8(6)9/h3,6-9H,2,4H2,1H3/t6-,7-,8+/m1/s1
