14
gdb 36764	6.70026	0.47756	0.44869	4.8858	81.88	-0.2774	-0.0596	0.2178	2206.5275	0.100487	-395.706693	-395.697415	-395.696471	-395.742351	30.973	
N	-0.0527192358	-1.1582077385	 0.0039113811	-0.285072
C	-0.0340004004	-0.0037713934	 0.0009807569	 0.260707
C	-0.0139342143	 1.4598714885	 0.0282275862	-0.260025
N	 1.3535138001	 1.9620124422	-0.068701379	-0.297685
C	 1.4034595825	 3.4220269738	 0.0133848808	-0.300279
C	 2.775253339	 3.9072002851	-0.0198072585	 0.008087
C	 3.9114325314	 4.3143054029	-0.0254164414	 0.143164
C	 5.1965657931	 4.7766969754	-0.0346353384	 0.210302
N	 6.2887074143	 5.1714716587	-0.0400815739	-0.327748
H	-0.5872181302	 1.8307532141	-0.8309231504	 0.16464
H	-0.5537447088	 1.7925355281	 0.933729936	 0.14006
H	 1.9269965247	 1.55400902	 0.6624004621	 0.247795
H	 0.8590579543	 3.834320052	-0.8476555585	 0.160103
H	 0.9081619102	 3.831316041	 0.9147088571	 0.135951
53.4074	70.7391	82.9945	145.6019	160.1258	247.1571	307.091	363.1828	391.4426	444.0291	568.7583	576.8228	597.5659	736.0224	769.4795	952.3765	964.8999	1011.9049	1104.1122	1130.2759	1177.6594	1219.4041	1280.6874	1341.1617	1413.2757	1482.8866	1495.3407	1496.6504	2272.3245	2372.8336	2408.8412	2922.4816	2942.0889	3025.5962	3047.9077	3531.7651
N#CCNCC#CC#N	N#CCNCC#CC#N	
InChI=1S/C6H5N3/c7-3-1-2-5-9-6-4-8/h9H,5-6H2	InChI=1S/C6H5N3/c7-3-1-2-5-9-6-4-8/h9H,5-6H2
