18
gdb 56557	2.83201	1.14403	0.846	3.5362	74.63	-0.2412	0.0126	0.2539	1318.8978	0.144927	-439.083329	-439.073128	-439.072184	-439.119088	37.333	
C	-0.5770385796	 1.696589864	-0.357245621	-0.394466
C	-0.0169308562	 0.2885399109	-0.136089036	-0.111339
C	-1.1349291599	-0.7371458452	 0.2131956528	-0.072876
O	-0.6095176169	-2.0209413141	 0.5938103658	-0.420725
C	-2.0289325008	-0.2505371255	 1.2643636527	 0.300664
C	-2.7318085701	 0.1096090934	 2.1706412923	-0.433054
C	 0.8167546779	-0.1389666853	-1.3700370504	 0.379356
N	 1.2670071219	-1.4235770106	-1.36185288	-0.521591
O	 1.0867225571	 0.6458745726	-2.2600233153	-0.362715
H	 0.2219518914	 2.3619414574	-0.6845986378	 0.142091
H	-1.3377817305	 1.6960576064	-1.1442821517	 0.124256
H	-1.0259650522	 2.0851296871	 0.5584824832	 0.119266
H	 0.6685909959	 0.3036373325	 0.7231655712	 0.09786
H	-1.7206744977	-0.9333688857	-0.6931737487	 0.133924
H	-0.3460596032	-1.9591565406	 1.5192611123	 0.291827
H	-3.3678725406	 0.4336172443	 2.957588212	 0.207199
H	 0.8772700184	-2.0871965041	-0.7083530951	 0.266944
H	 1.738873205	-1.7456995677	-2.1915567761	 0.253378
31.6265	59.823	144.8508	192.4316	231.1331	266.7054	286.1262	322.2368	328.3189	374.4334	448.4196	477.8376	512.9179	592.1874	611.8123	638.537	642.2915	678.5327	742.4885	815.7975	869.2149	974.6362	1022.0042	1058.4939	1092.229	1134.7735	1154.6255	1234.283	1268.433	1301.9912	1351.3472	1365.0916	1411.6411	1413.8356	1490.3547	1495.0149	1609.8149	1789.8271	2233.1395	3010.7681	3044.3904	3056.2427	3126.8427	3156.0642	3500.5924	3549.2557	3699.0964	3803.0226
CC(C(O)C#C)C(N)=O	C[C@@H]([C@@H](O)C#C)C(=O)N	
InChI=1S/C6H9NO2/c1-3-5(8)4(2)6(7)9/h1,4-5,8H,2H3,(H2,7,9)	InChI=1S/C6H9NO2/c1-3-5(8)4(2)6(7)9/h1,4-5,8H,2H3,(H2,7,9)/t4-,5-/m0/s1
