19
gdb 35362	3.68507	1.37526	1.22311	0.8972	83.59	-0.2479	0.0566	0.3045	1063.9738	0.161149	-348.702639	-348.695339	-348.694395	-348.734162	30.161	
C	-0.0609757987	-1.2452899988	-0.1445738988	-0.46379
C	-0.0422804229	-0.0458494066	-0.0557235693	 0.3156
C	-0.0046572792	 1.4049008662	 0.0577037332	-0.151474
C	-0.6148877733	 1.9697341731	 1.3834714849	-0.254188
C	 0.2544141323	 3.1873098859	 1.6889512021	-0.037831
C	 1.7406488674	 2.9822196427	 1.9403838406	-0.059075
C	 2.2093403691	 1.6546234652	 1.342234745	-0.237094
C	 1.4198308606	 2.0126943552	 0.0413765698	-0.043339
C	 1.2399181115	 3.4553342812	 0.5845711318	-0.099011
H	-0.0831626918	-2.3035405241	-0.2267180466	 0.190766
H	-0.5580740275	 1.8368349976	-0.7866372502	 0.099724
H	-1.6641222919	 2.2450762046	 1.2459080657	 0.104173
H	-0.5784683106	 1.2210340396	 2.1801453462	 0.112583
H	-0.1869176752	 4.0350536543	 2.20144771	 0.082906
H	 2.2556329868	 3.5523209108	 2.7051450986	 0.080008
H	 3.2874333242	 1.6572929034	 1.1638622164	 0.101131
H	 1.937482742	 0.7232393572	 1.8503522521	 0.100792
H	 1.9479640104	 1.8659411379	-0.8998197884	 0.075433
H	 1.3766590668	 4.3922064245	 0.061335847	 0.082687
105.2638	148.0003	261.0937	348.2616	402.2246	486.9699	517.094	601.7172	622.8614	629.5982	695.7494	706.8991	781.4405	798.8699	816.3978	882.5281	919.8562	962.4393	964.9119	986.83	990.4946	1008.3764	1049.1539	1053.1388	1070.1858	1091.1252	1110.0108	1138.8919	1195.4736	1206.9069	1234.1737	1262.9865	1285.5769	1294.8033	1301.4221	1339.1966	1343.31	1401.98	1493.439	1508.9325	2231.806	3014.7269	3044.17	3057.1712	3096.2391	3099.7264	3122.115	3168.1512	3176.2754	3202.208	3504.9601
C#CC1CC2C3CC1C23	C#C[C@H]1C[C@H]2[C@H]3C[C@@H]1[C@@H]23	
InChI=1S/C9H10/c1-2-5-3-7-8-4-6(5)9(7)8/h1,5-9H,3-4H2	InChI=1S/C9H10/c1-2-5-3-7-8-4-6(5)9(7)8/h1,5-9H,3-4H2/t5-,6-,7-,8+,9-/m0/s1
