18
gdb 66811	3.61476	1.84125	1.82606	1.4131	76.73	-0.2245	0.0754	0.2999	853.5564	0.150034	-364.742834	-364.736639	-364.735695	-364.772974	26.673	
C	-0.0570675804	 1.5256354902	-0.0134003348	-0.511057
C	-0.0187893733	 0.0308837176	-0.017281953	 0.36268
C	 0.6318856006	-0.8795968543	-1.0355299777	-0.129262
C	 1.43790679	-1.9257769377	-0.2815533442	-0.077256
C	 0.5014637182	-2.7797653922	 0.5583465253	-0.108727
C	 1.2687868047	-1.6460549295	 1.1944243797	-0.045929
N	 0.0583536519	-0.7696955637	 1.2538166362	-0.193483
C	-0.7458840004	-1.875925383	 0.5810071191	-0.014196
C	-0.8474335204	-1.0368083643	-0.7009698317	-0.162344
H	 0.8798525825	 1.9369282737	 0.3805149746	 0.122895
H	-0.1940424499	 1.9140846177	-1.0277026777	 0.11724
H	-0.8757148136	 1.8981666265	 0.6105958971	 0.127353
H	 0.9324123216	-0.5016381661	-2.0042596103	 0.085209
H	 2.35766786	-2.3441491482	-0.6684947736	 0.087327
H	 0.5735384747	-3.851255857	 0.6943227453	 0.088147
H	 2.0492803462	-1.6220213659	 1.9452820499	 0.088272
H	-1.6473270308	-2.1985272451	 1.1010250966	 0.077231
H	-1.6653818514	-0.9594636386	-1.407011651	 0.085899
192.6309	215.9188	278.3558	557.4678	566.1874	598.2114	718.1746	757.737	775.7961	786.5945	796.77	820.5508	834.1814	865.478	885.257	895.8707	931.0836	962.1852	979.686	988.1282	1012.1392	1014.2332	1024.385	1044.952	1063.317	1086.2835	1119.3326	1163.2624	1189.5344	1209.6575	1229.0483	1254.7387	1265.0929	1299.0187	1346.9283	1403.2352	1442.6438	1478.1493	1496.882	3027.0285	3090.1402	3105.3098	3116.8863	3178.9252	3182.5681	3192.9019	3200.9773	3213.368
CC12C3C4C5C4N1C5C23	C[C@@]12[C@H]3[C@@H]4[C@H]5[C@@H]4N1[C@H]5[C@@H]23	
InChI=1S/C8H9N/c1-8-4-2-3-6(2)9(8)7(3)5(4)8/h2-7H,1H3	InChI=1S/C8H9N/c1-8-4-2-3-6(2)9(8)7(3)5(4)8/h2-7H,1H3/t2-,3-,4-,5-,6+,7+,8-/m0/s1
