17
gdb 80185	2.35394	1.71088	1.44227	3.0366	67.16	-0.2674	-0.0042	0.2632	979.8071	0.136196	-458.985441	-458.977398	-458.976453	-459.018002	30.503	
C	 0.1993366021	 1.6162611314	-0.1670656935	-0.414766
C	 0.0943252313	 0.118168246	 0.0219203028	-0.050514
C	 1.2499320452	-0.830748089	-0.117190327	 0.056479
O	 2.5538666966	-0.2587425083	-0.1098695613	-0.205388
C	 2.8134565174	 0.2876477622	 1.1024475226	 0.398354
O	 3.7704653152	 0.9700930842	 1.335212441	-0.353137
C	 1.6852716104	-0.0390847416	 2.0983460267	-0.017116
O	 1.3080368141	 1.1226055342	 2.8037295052	-0.42715
C	 0.6059028401	-0.6447729213	 1.2379521138	-0.108414
H	 1.1548605991	 2.0209454574	 0.1676777365	 0.143832
H	 0.0783318158	 1.8723228884	-1.2245959101	 0.122104
H	-0.5843538715	 2.1243408226	 0.4016213581	 0.134181
H	-0.8342249496	-0.3042206337	-0.3558993274	 0.101225
H	 1.2126899725	-1.7378796855	-0.7057907692	 0.116994
H	 2.0690285308	-0.8084437359	 2.7892666037	 0.102388
H	 2.1268859573	 1.6034443955	 2.9879253414	 0.296565
H	-0.0199340068	-1.4167085866	 1.6670258668	 0.104364
96.3393	146.3687	168.6643	229.4821	268.4231	336.859	407.8449	484.9998	547.1437	555.4704	653.0496	690.6062	754.6397	777.8143	802.1541	877.7079	902.5478	1003.5514	1014.6976	1048.1144	1073.119	1091.7969	1134.7991	1143.093	1147.9505	1183.399	1225.0482	1247.5636	1332.7764	1362.8954	1365.0542	1416.7713	1430.4302	1445.5287	1485.3833	1503.4759	1873.3089	2963.7087	3048.6915	3110.6878	3130.9	3151.1742	3189.2975	3204.0044	3755.6057
CC1C2OC(=O)C(O)C12	C[C@H]1[C@H]2OC(=O)[C@@H](O)[C@@H]12	
InChI=1S/C6H8O3/c1-2-3-4(7)6(8)9-5(2)3/h2-5,7H,1H3	InChI=1S/C6H8O3/c1-2-3-4(7)6(8)9-5(2)3/h2-5,7H,1H3/t2-,3-,4+,5-/m1/s1
