15
gdb 80211	2.24503	1.59826	1.21543	4.5089	74.68	-0.2416	-0.0144	0.2271	1053.3514	0.110166	-420.575321	-420.566962	-420.566018	-420.608155	31.572	
O	-0.1571282911	 1.3939940647	 0.0011570662	-0.410044
C	-0.0787518986	 0.0030860193	 0.0683167466	 0.058731
C	-0.4540421777	-0.7612523072	 1.2843125521	-0.178596
C	-1.5368480479	-0.0070855128	 2.0648077978	-0.351792
C	-2.4313453811	-0.0881446567	 0.8079418766	 0.365667
O	-3.5886620004	 0.1274089842	 0.6131429653	-0.294011
C	-1.3688742216	-0.7919112194	-0.0217543916	 0.035526
C	-1.5894759133	-1.7921874547	-1.004862212	 0.184306
C	-1.791188689	-2.6435235825	-1.8307934351	-0.396251
H	 0.6341332661	 1.7606766506	 0.4118850599	 0.294248
H	 0.7123255776	-0.4410501403	-0.5357714981	 0.114366
H	 0.127221465	-1.5931844709	 1.6598913952	 0.120736
H	-1.9807286363	-0.5882239595	 2.8772843963	 0.137261
H	-1.2780632224	 0.9914169093	 2.4224788215	 0.127434
H	-1.9781302393	-3.3909479543	-2.5613988107	 0.19242
100.1001	130.1836	149.844	247.6954	274.2278	361.919	380.6531	460.235	488.3526	552.1036	589.1296	605.2706	652.7546	669.4179	680.1911	777.3441	864.0264	887.2441	975.0385	987.6712	1018.7232	1055.4587	1105.3051	1136.0645	1216.0217	1234.6224	1276.3823	1287.3906	1329.3682	1441.9265	1468.2091	1895.8203	2234.845	3072.6816	3113.509	3128.6061	3208.5869	3502.4367	3797.7641
OC1C2CC(=O)C12C#C	O[C@H]1[C@H]2CC(=O)[C@@]12C#C	
InChI=1S/C7H6O2/c1-2-7-4(6(7)9)3-5(7)8/h1,4,6,9H,3H2	InChI=1S/C7H6O2/c1-2-7-4(6(7)9)3-5(7)8/h1,4,6,9H,3H2/t4-,6+,7+/m1/s1
