19
gdb 91137	2.68124	1.81005	1.51617	3.1732	73.14	-0.2441	0.0502	0.2943	945.7873	0.161662	-422.964968	-422.95806	-422.957116	-422.996107	28.806	
O	-0.0249462336	 1.4389155667	 0.3943002537	-0.438834
C	-0.0265697794	 0.0789361407	 0.0762049768	 0.153627
C	 0.4567095295	-0.9718636684	 1.1377097317	-0.293025
C	-0.8526659573	-1.7864176519	 0.9380572519	-0.041445
C	-2.0588362828	-1.5240904802	 1.905529447	-0.083237
C	-1.89011803	-0.4681919635	 3.0032520597	-0.096688
O	-2.0928330165	 0.6112971416	 2.0477473932	-0.31499
C	-2.4831933729	-0.3367243599	 1.0051119505	 0.108688
C	-1.3866006219	-0.6759715075	-0.0374708148	-0.095812
H	-0.6319599194	 1.5375080025	 1.142861719	 0.290438
H	 0.5436928153	-0.0211623815	-0.8523744443	 0.086552
H	 1.3645342056	-1.5099116873	 0.8538865871	 0.100673
H	 0.6158064534	-0.5529296141	 2.1339291998	 0.102035
H	-0.7321831425	-2.8228834487	 0.6244514301	 0.071578
H	-2.698210445	-2.3810172165	 2.1137536013	 0.080545
H	-2.6958779864	-0.4754244703	 3.747595311	 0.108519
H	-0.9282493307	-0.3934522088	 3.5200785793	 0.114223
H	-3.4985761296	-0.1404112643	 0.6510273536	 0.083965
H	-1.7695066959	-0.8876916286	-1.0376668265	 0.063187
106.5455	225.8189	312.4971	333.775	409.8298	441.8187	599.6838	614.4898	654.0258	694.7487	749.6462	786.7276	823.3394	857.4322	882.8515	910.3786	935.6448	964.7387	982.1127	1005.5255	1025.2261	1059.4701	1072.0652	1108.834	1124.7852	1154.5684	1166.0485	1181.6982	1209.9478	1223.875	1233.0179	1253.4948	1286.6985	1308.0296	1315.9602	1318.4505	1346.4912	1363.4354	1472.6361	1477.9377	1528.9255	3024.77	3055.8712	3065.7851	3069.071	3079.8293	3090.9546	3105.1428	3116.3464	3123.272	3707.1642
OC1CC2C3COC3C12	O[C@H]1C[C@H]2[C@H]3CO[C@H]3[C@@H]12	
InChI=1S/C7H10O2/c8-5-1-3-4-2-9-7(4)6(3)5/h3-8H,1-2H2	InChI=1S/C7H10O2/c8-5-1-3-4-2-9-7(4)6(3)5/h3-8H,1-2H2/t3-,4+,5-,6+,7+/m0/s1
