17
gdb 49624	3.35348	1.22748	1.06786	3.452	74.19	-0.2353	-0.0203	0.215	1146.7105	0.134339	-421.768311	-421.760428	-421.759484	-421.800971	30.122	
O	-0.0438886377	 0.037611735	-0.3740169296	-0.27476
C	-0.017689769	 1.1794206598	 0.0216452102	 0.15438
C	 1.2201127887	 1.9967796867	 0.063948486	-0.143738
C	 1.2227744776	 3.5045641207	-0.0752160422	 0.065658
O	 0.0324838453	 4.0927731981	 0.4557936141	-0.309408
C	 0.4101328735	 3.6363979307	 1.7723031874	 0.461718
C	 0.3248173298	 4.5424283956	 2.9527358129	-0.343662
C	-0.5898181911	 3.3279079477	 2.8305328112	-0.334067
C	 1.6185161184	 2.9094036402	 1.2401269394	-0.244348
H	-0.9368737841	 1.6913679997	 0.3674663848	 0.095712
H	 2.079238349	 1.5089402547	-0.38813179	 0.114199
H	 1.7624635422	 4.0459880369	-0.8424344098	 0.122542
H	 1.1283807928	 4.5170205598	 3.6814991715	 0.122164
H	-0.1167733188	 5.5194195237	 2.7908928596	 0.133592
H	-1.630889222	 3.5158666285	 2.590490251	 0.13407
H	-0.4188289016	 2.474431888	 3.4778997933	 0.127592
H	 2.580545227	 2.8163830742	 1.7245369	 0.118355
80.3624	136.0334	171.4297	253.8404	285.251	337.4276	430.0418	511.5212	563.1365	615.3628	752.0742	786.2333	805.2505	858.911	877.5638	897.2362	946.9636	967.0676	977.9453	1025.1921	1041.8207	1049.482	1052.7359	1059.5558	1073.0301	1075.2653	1185.1771	1186.0143	1193.5291	1259.2458	1313.1355	1366.7436	1401.7285	1446.4667	1448.0174	1504.9641	1806.9949	2943.8899	3132.0344	3134.279	3164.0555	3191.5926	3213.6346	3216.0518	3229.7021
O=CC1C2OC3(CC3)C12	O=C[C@H]1[C@H]2OC3(CC3)[C@@H]12	
InChI=1S/C7H8O2/c8-3-4-5-6(4)9-7(5)1-2-7/h3-6H,1-2H2	InChI=1S/C7H8O2/c8-3-4-5-6(4)9-7(5)1-2-7/h3-6H,1-2H2/t4-,5+,6-/m1/s1
