16
gdb 51390	3.08824	1.06587	0.92431	4.0417	70.21	-0.2441	-0.0369	0.2072	1258.0499	0.121907	-437.850749	-437.842439	-437.841495	-437.885174	29.8	
O	-0.0725306729	-0.0885227543	 0.2168338099	-0.231751
C	 0.0831761216	 0.9980683771	-0.2714822946	 0.160406
C	 1.236433219	 1.9275734316	 0.0875693343	-0.245064
N	 1.4215174454	 2.9140125964	-0.9710456415	-0.090162
C	 2.4474506572	 3.9148570979	-0.9646288247	-0.036734
C	 3.7518575289	 3.4141580223	-0.3189998098	-0.375248
C	 3.7576353528	 2.3034550551	-1.4074961125	 0.407046
O	 4.5712076363	 1.4977138149	-1.7509069706	-0.294602
C	 2.4471758156	 2.7910043518	-2.0044558885	-0.179086
H	-0.6220323723	 1.4253425825	-1.017770719	 0.093792
H	 0.9376070637	 2.463423474	 0.9992480366	 0.143229
H	 2.1108103777	 1.3141717626	 0.3379580224	 0.140256
H	 2.1714441082	 4.9502831257	-1.1269968002	 0.118055
H	 4.606751664	 4.0790216221	-0.473576601	 0.140089
H	 3.7125215421	 3.1207773258	 0.7325741923	 0.130153
H	 2.1457573228	 2.7695258644	-3.0456131032	 0.119621
40.4417	67.3167	116.8985	160.9877	286.9468	378.8141	444.6325	468.592	521.3684	595.7168	666.5379	720.0707	777.0924	840.2544	857.9179	918.2175	972.96	993.7985	1004.4317	1050.3177	1055.6552	1090.4854	1110.5398	1137.0157	1198.9585	1234.4685	1249.9773	1278.724	1328.5406	1364.8824	1400.6103	1453.6288	1458.6643	1843.43	1889.3041	2899.5828	3014.0458	3061.6667	3067.1871	3119.814	3180.5834	3190.0741
O=CCN1C2CC(=O)C12	O=CCN1[C@H]2CC(=O)[C@@H]12	
InChI=1S/C6H7NO2/c8-2-1-7-4-3-5(9)6(4)7/h2,4,6H,1,3H2	InChI=1S/C6H7NO2/c8-2-1-7-4-3-5(9)6(4)7/h2,4,6H,1,3H2/t4-,6-,7?/m0/s1
