16
gdb 33866	4.32358	1.28647	1.15372	4.4257	72.81	-0.2816	0.0023	0.2839	1051.8303	0.125766	-400.73737	-400.73035	-400.729406	-400.768701	27.853	
N	-0.0709520315	-1.0987573097	 0.3199268619	-0.332853
C	-0.0185164927	 0.0426595101	 0.1442420691	 0.229711
C	 0.024890961	 1.4629485327	-0.1109611614	 0.270698
C	-1.0135467786	 2.101088079	-1.0324705199	-0.314682
C	-0.340165094	 3.3499460081	-1.6118472266	-0.050677
C	 0.0973095439	 4.4645466854	-0.7013261178	-0.285156
C	 1.0978874843	 3.4102998238	-1.1171534319	-0.062097
C	 1.2813516728	 2.2545805495	-0.1670029623	-0.027841
O	 0.4391114382	 2.2824206713	 0.9912728261	-0.270522
H	-1.2569043001	 1.3959973358	-1.8334739504	 0.130763
H	-1.9393719191	 2.3161992571	-0.4896990768	 0.134267
H	-0.5742183781	 3.6026466138	-2.6395191798	 0.099221
H	 0.2059174527	 5.447086393	-1.1467923655	 0.11776
H	-0.2290512018	 4.4588470021	 0.3311449184	 0.141686
H	 1.9254999748	 3.6628297377	-1.7679236294	 0.097914
H	 2.2577754183	 1.8041785605	-0.0170194138	 0.12181
133.5136	152.1544	275.8741	301.1442	403.9442	456.7739	545.6119	569.1797	604.4602	686.9941	720.0036	785.5313	808.9134	849.1763	889.7556	902.1901	942.0047	988.7798	1017.9707	1063.1704	1071.4591	1089.3192	1104.6837	1115.3294	1180.7844	1202.867	1223.2507	1273.3525	1320.1307	1346.5724	1374.5434	1411.1386	1474.6697	1483.6505	2357.4528	3056.3615	3098.3946	3145.2158	3168.7135	3175.1565	3195.9286	3238.8973
N#CC12CC3CC3C1O2	N#C[C@]12C[C@H]3C[C@H]3[C@H]1O2	
InChI=1S/C7H7NO/c8-3-7-2-4-1-5(4)6(7)9-7/h4-6H,1-2H2	InChI=1S/C7H7NO/c8-3-7-2-4-1-5(4)6(7)9-7/h4-6H,1-2H2/t4-,5-,6-,7-/m1/s1
