19
gdb 91960	2.32437	1.73519	1.34075	2.3783	74.22	-0.2498	0.0515	0.3013	1027.9696	0.159465	-422.997613	-422.98947	-422.988526	-423.03025	31.787	
O	 0.2436857648	 1.3249996418	-0.3796434526	-0.426332
C	 0.0458412064	-0.0320385003	-0.00179392	 0.017812
C	 0.6083851294	-0.3944986542	 1.4009807963	-0.262836
C	-0.5908394684	-0.5253644582	 2.3330199639	-0.035552
C	-1.5716069484	 0.6151647298	 2.3861202094	-0.308187
C	-1.8507556781	-0.5698241655	 1.4889620775	-0.107768
C	-1.4348529161	-0.4509079981	 0.0528148151	 0.418536
C	-2.3452211889	-0.2185895925	-1.0705466486	-0.2495
O	-1.826221439	-1.5287962205	-0.8100392984	-0.286115
H	-0.1503709188	 1.894923365	 0.2876867913	 0.280611
H	 0.5376224517	-0.6077392649	-0.7888001832	 0.107505
H	 1.1315336156	-1.3552001867	 1.3494619153	 0.113665
H	 1.3379475193	 0.3558115278	 1.7224379189	 0.105543
H	-0.4917830282	-1.1504027903	 3.2130956355	 0.090746
H	-2.185175652	 0.7055403999	 3.2759702796	 0.11976
H	-1.3156428982	 1.5767953144	 1.9495614934	 0.093427
H	-2.6861880799	-1.2217160269	 1.714480791	 0.09638
H	-3.4113074654	-0.0942502756	-0.8833534454	 0.109851
H	-1.9694210859	 0.2661609949	-1.9700538589	 0.122455
80.8202	137.0891	195.5773	243.1715	309.0023	330.1704	402.1562	419.6588	496.9458	574.8726	682.347	753.4121	784.7352	821.6974	852.8709	869.4017	906.024	919.2984	987.7981	994.0043	1014.9587	1035.613	1056.9077	1088.5397	1098.4801	1110.01	1130.3305	1153.4526	1183.8396	1206.5776	1239.3921	1249.1089	1290.0324	1312.2014	1331.0276	1378.0466	1428.7886	1442.2853	1480.4042	1492.7199	1531.9423	3044.9403	3081.7851	3084.091	3097.1082	3117.4193	3170.328	3172.7452	3184.7495	3203.3803	3824.791
OC1CC2CC2C11CO1	O[C@H]1C[C@H]2C[C@H]2[C@]21CO2	
InChI=1S/C7H10O2/c8-6-2-4-1-5(4)7(6)3-9-7/h4-6,8H,1-3H2	InChI=1S/C7H10O2/c8-6-2-4-1-5(4)7(6)3-9-7/h4-6,8H,1-3H2/t4-,5-,6+,7+/m1/s1
