21
gdb 92088	2.55672	1.58741	1.24119	0.7889	78.12	-0.2255	0.083	0.3085	1105.0381	0.182059	-424.206842	-424.198085	-424.197141	-424.239918	34.151	
C	-0.3590413076	 1.6217569286	 0.0567396559	-0.402689
C	-0.0257834333	 0.1306387526	-0.0265808153	 0.128777
O	 0.5651914991	-0.1657164501	-1.3053770041	-0.286713
C	 1.9459956318	-0.3517327682	-1.3847284229	 0.094905
C	 2.927596019	 0.7972426876	-1.2896157285	-0.344992
C	 2.8073417991	-0.2057628289	-0.1638084626	 0.057975
O	 2.1590339065	 0.2083393493	 1.0033983567	-0.269077
C	 0.8607198607	-0.3811630963	 1.116330801	 0.110294
C	 0.3335248166	-0.0648129361	 2.5067277369	-0.414898
H	 0.539155013	 2.2195621263	 0.232720465	 0.129514
H	-0.8138770117	 1.9404725861	-0.8842235003	 0.124262
H	-1.0688247199	 1.8216417728	 0.8650617888	 0.113312
H	-0.960440705	-0.4445263606	-0.0146219654	 0.08251
H	 2.1794402194	-1.1474783822	-2.08613123	 0.100164
H	 3.8113859006	 0.767213192	-1.9179307831	 0.110842
H	 2.5314936154	 1.7868942076	-1.0960811596	 0.126524
H	 3.6189110878	-0.9103535388	 0.0134331457	 0.088947
H	 0.9551505026	-1.4724380684	 1.001140499	 0.073442
H	 0.3129683622	 1.0139169459	 2.6801967897	 0.132454
H	-0.6784462564	-0.4603016965	 2.6372097404	 0.117586
H	 0.9826746599	-0.517404183	 3.2607078024	 0.126859
80.274	142.4507	207.3727	222.0098	269.3832	291.3641	328.0655	384.616	435.5911	485.3666	498.8283	625.8155	727.7711	730.8927	801.2696	818.5086	854.7845	885.2402	957.4204	988.9517	1001.4064	1022.5831	1036.2704	1072.0308	1093.7572	1123.1496	1129.4422	1163.219	1167.2014	1183.5925	1198.4712	1257.6446	1345.3808	1351.5128	1359.4647	1380.6634	1400.9544	1406.2419	1411.44	1413.6413	1469.594	1481.4123	1488.7549	1499.5337	1505.8646	2978.5999	3024.5793	3045.2081	3048.7314	3103.2255	3116.7902	3120.4418	3129.0869	3131.1663	3137.5034	3146.7496	3233.4192
CC1OC2CC2OC1C	C[C@H]1O[C@H]2C[C@H]2O[C@H]1C	
InChI=1S/C7H12O2/c1-4-5(2)9-7-3-6(7)8-4/h4-7H,3H2,1-2H3	InChI=1S/C7H12O2/c1-4-5(2)9-7-3-6(7)8-4/h4-7H,3H2,1-2H3/t4-,5+,6+,7-
