21
gdb 94973	2.54606	1.75105	1.30242	2.0965	81.7	-0.2299	0.076	0.306	1056.4311	0.18379	-387.012137	-387.004363	-387.003419	-387.04425	31.654	
C	 0.0349927043	 1.5551383662	 0.0777793653	-0.415142
C	 0.0441588597	 0.0286706198	 0.0504293884	-0.126734
C	 0.7957652632	-0.5891521613	-1.1992804702	-0.208926
C	 1.5854136111	-1.8924579101	-0.7546324663	-0.294231
C	 1.1281004336	-2.0908965116	 0.6958332095	-0.001864
C	 1.808079739	-1.8133852721	 2.0769012312	-0.005595
C	 2.2873857041	-0.4413636476	 1.584926736	-0.275541
C	 0.8093844817	-0.6736609231	 1.1398766838	 0.466799
O	 0.5241991177	-1.166776998	 2.5158175715	-0.380472
H	 1.0566322823	 1.9502225895	 0.1050332135	 0.117586
H	-0.4576200731	 1.9642761183	-0.8102629321	 0.114731
H	-0.4955822422	 1.9312749852	 0.9580325729	 0.125437
H	-0.9863317217	-0.3471885308	 0.0656591798	 0.088443
H	 0.0801490411	-0.8097421099	-1.9955482889	 0.107858
H	 1.4931199372	 0.1513023126	-1.6038222074	 0.104383
H	 1.3313735695	-2.7485059308	-1.383910166	 0.102573
H	 2.6618182706	-1.735395928	-0.8561969614	 0.108648
H	 0.2735129333	-2.7642915468	 0.7969258575	 0.080063
H	 2.2592009538	-2.4989402153	 2.7954894521	 0.090194
H	 2.4181226198	 0.3069817906	 2.366765123	 0.105024
H	 3.0693674048	-0.3989011267	 0.8242417578	 0.096767
79.3598	182.7988	219.1774	257.4842	323.281	405.4099	477.2962	531.3796	582.3816	623.0837	655.3593	684.1604	775.4921	815.5578	851.5544	895.5113	908.3599	918.7071	948.9041	967.5362	991.4035	1032.1232	1045.53	1066.0915	1090.3757	1123.1245	1124.5757	1148.435	1179.8505	1196.1345	1213.0236	1242.3809	1248.4497	1277.668	1284.3174	1304.3461	1329.63	1371.542	1393.9993	1412.4061	1479.9887	1493.5854	1496.8439	1500.7545	1513.5	3030.2919	3031.8192	3052.2315	3068.4482	3075.7371	3080.3304	3092.8185	3098.8127	3104.9932	3108.9148	3116.0172	3151.2171
CC1CCC2C3CC12O3	C[C@H]1CC[C@H]2[C@H]3C[C@@]12O3	
InChI=1S/C8H12O/c1-5-2-3-6-7-4-8(5,6)9-7/h5-7H,2-4H2,1H3	InChI=1S/C8H12O/c1-5-2-3-6-7-4-8(5,6)9-7/h5-7H,2-4H2,1H3/t5-,6-,7+,8+/m0/s1
