16
gdb 29602	3.11243	1.14382	0.86681	5.354	73.39	-0.2197	0.0073	0.227	1280.8409	0.123944	-437.942428	-437.933714	-437.93277	-437.976723	30.981	
C	-0.0621619428	 1.4932272213	 0.2855842022	-0.501717
C	 0.0322497901	 0.0100675424	 0.1053310393	 0.166094
C	-0.0594204669	-0.7099563406	-1.0652760708	-0.152862
N	 0.0820038952	-2.0437949485	-0.7756304347	-0.240841
C	 0.2722575684	-2.2148772187	 0.571629395	-0.176132
C	 0.2406726929	-0.9571022069	 1.1287684786	 0.234554
O	 0.4266842076	-0.6377818931	 2.460921177	-0.215867
C	-0.4503060085	-1.1541950406	 3.360295947	 0.151236
O	-0.3288611781	-0.9928129287	 4.535029362	-0.266575
H	-0.2292562438	 1.9926764258	-0.672525828	 0.12106
H	-0.8853392332	 1.7689663495	 0.9542563644	 0.130403
H	 0.8531819448	 1.9046879934	 0.7245903449	 0.138095
H	-0.2160312063	-0.3736137582	-2.0777572389	 0.125339
H	 0.0596463904	-2.7873182235	-1.4501939197	 0.268684
H	 0.4350869146	-3.1839106334	 1.0125223013	 0.133436
H	-1.2576859042	-1.7253783103	 2.8663650403	 0.085093
49.5457	93.6896	137.9908	160.8917	241.1302	248.5776	388.5691	446.0919	478.636	483.7536	638.1902	655.2415	669.4143	725.0431	763.3497	844.8307	911.4706	1003.4983	1048.5044	1066.6879	1083.7369	1113.406	1154.592	1208.3925	1260.6138	1346.5989	1401.242	1411.3621	1422.8312	1474.9127	1481.8689	1498.7847	1564.9852	1624.665	1869.6248	2974.9535	3032.2096	3082.7448	3113.0654	3261.5934	3274.9883	3692.9984
CC1=CNC=C1OC=O	Cc1c[nH]cc1OC=O	
InChI=1S/C6H7NO2/c1-5-2-7-3-6(5)9-4-8/h2-4,7H,1H3	InChI=1S/C6H7NO2/c1-5-2-7-3-6(5)9-4-8/h2-4,7H,1H3
