21
gdb 94439	2.36057	1.31548	1.29613	2.4688	77.93	-0.2441	0.0718	0.316	1165.3568	0.181239	-424.197013	-424.18779	-424.186846	-424.231293	34.273	
C	-0.3592144043	 1.4221731447	-0.0643697762	-0.416354
C	 0.1235199472	-0.016911049	-0.1667913585	-0.104517
C	 1.5175327129	-0.2626698615	-0.7820189821	-0.089886
O	 1.9701080942	-0.9354521882	 0.4124173376	-0.311165
C	 0.7298181069	-0.6951423964	 1.088126749	 0.338066
C	 0.7761179275	-0.0429606327	 2.4819048343	-0.13079
O	-0.0222562669	-1.1017070059	 3.0452328517	-0.299074
C	 0.0758426236	-1.8860955048	 1.8302382665	 0.111222
C	-1.2614591925	-2.4362504366	 1.3837643539	-0.414547
H	 0.4053082118	 2.0720121566	 0.37483023	 0.122729
H	-0.6014693106	 1.8186725887	-1.0561412604	 0.120457
H	-1.2609883	 1.4990187077	 0.5521792389	 0.127133
H	-0.6490363171	-0.638895926	-0.6270637828	 0.085151
H	 1.5601633495	-0.9158024073	-1.6610871815	 0.10359
H	 2.1001678185	 0.6458160968	-0.9831518028	 0.099811
H	 1.7942257005	-0.016224929	 2.8928956287	 0.106465
H	 0.304921214	 0.9386953809	 2.6062366697	 0.101039
H	 0.8109037795	-2.6960925338	 1.9485183208	 0.081658
H	-1.9856210246	-1.6319622909	 1.2214880771	 0.118773
H	-1.1542330728	-3.0093974795	 0.456518126	 0.119042
H	-1.6645435476	-3.1055547838	 2.15008406	 0.131197
59.905	79.8394	162.4888	217.7204	230.1048	249.0894	271.3069	357.8185	390.6313	478.095	505.5789	507.4512	753.6942	764.5919	867.6206	891.5432	896.0773	917.675	967.7493	1011.4679	1019.7174	1025.5083	1085.5488	1098.0348	1118.6003	1138.2806	1157.2985	1161.9405	1178.0719	1196.9492	1241.628	1278.9271	1283.6155	1340.1654	1358.1171	1381.1454	1386.8351	1405.7124	1411.9374	1482.0024	1494.5383	1495.0944	1497.7099	1512.5168	1528.5392	2995.6351	3011.5553	3012.8763	3030.0561	3034.3059	3055.2611	3063.8367	3071.9692	3098.5215	3102.5108	3107.4249	3111.8121
CC1COC11COC1C	C[C@H]1CO[C@]21CO[C@H]2C	
InChI=1S/C7H12O2/c1-5-3-9-7(5)4-8-6(7)2/h5-6H,3-4H2,1-2H3	InChI=1S/C7H12O2/c1-5-3-9-7(5)4-8-6(7)2/h5-6H,3-4H2,1-2H3/t5-,6-,7-/m0/s1
