21
gdb 110149	1.48442	1.48379	0.90942	4.021	74.96	-0.258	0.0601	0.3181	1364.8952	0.181188	-461.320884	-461.310179	-461.309235	-461.357443	37.997	
O	 0.2642444673	 1.0981026262	-0.4163334108	-0.417463
C	 0.0217645032	-0.0830643261	 0.3426214858	-0.087437
C	-1.3731295318	-0.6384783402	 0.1408462897	-0.069523
C	-1.8400090437	-1.1777880054	-1.1966348307	-0.069506
C	-0.9430984894	-1.2076638548	-2.4172734153	-0.087291
O	-1.0464912447	-2.4232889442	-3.1530903281	-0.41753
C	-1.6407079638	-2.1211007482	-0.0268927922	-0.069745
C	-0.528852247	-3.1497767737	 0.0060120219	-0.087503
O	 0.1174320127	-3.2290088845	 1.2733068102	-0.41748
H	-0.4118539706	 1.741768443	-0.1818371898	 0.279325
H	 0.7885132021	-0.7932265518	 0.0297964773	 0.123558
H	 0.18521942	 0.0957592367	 1.4158707805	 0.094828
H	-2.1324702628	-0.0959313461	 0.701915934	 0.076736
H	-2.8806737956	-0.9672096298	-1.4383071609	 0.076737
H	-1.173303989	-0.3395912822	-3.0528982446	 0.094896
H	 0.1102900795	-1.119351114	-2.1475492856	 0.123467
H	-1.9714166103	-2.5458828958	-3.3894500893	 0.279328
H	-2.5591921178	-2.4724162491	 0.4407432944	 0.076803
H	-0.9358603733	-4.1275297839	-0.292214323	 0.094852
H	 0.2607061299	-2.915559581	-0.7094530088	 0.123623
H	-0.5564668648	-3.4117352151	 1.9357670755	 0.279325
61.4449	70.8634	73.0893	141.6981	146.1411	216.2603	259.3544	281.7746	286.8595	337.0594	368.0426	369.2885	569.8366	570.6769	586.7932	795.7251	796.9228	877.0962	953.0453	953.4827	961.8962	1045.2173	1045.477	1056.6732	1057.3024	1059.7964	1119.2776	1120.4231	1147.6025	1183.394	1249.4206	1252.3327	1275.2047	1355.9501	1356.9201	1366.232	1392.1876	1393.188	1421.9883	1429.1259	1430.9489	1460.6974	1496.8232	1498.5057	1518.968	2994.9366	2995.5472	2995.7542	3100.265	3100.6588	3117.2844	3118.8355	3120.1357	3133.4873	3814.4753	3814.9136	3815.1037
OCC1C(CO)C1CO	OC[C@H]1[C@@H](CO)[C@H]1CO	
InChI=1S/C6H12O3/c7-1-4-5(2-8)6(4)3-9/h4-9H,1-3H2	InChI=1S/C6H12O3/c7-1-4-5(2-8)6(4)3-9/h4-9H,1-3H2/t4-,5+,6-
