17
gdb 77912	2.35087	1.47858	1.40418	3.1089	68.73	-0.2331	-0.0073	0.2258	1027.1925	0.134457	-458.923034	-458.914481	-458.913537	-458.955766	32.716	
C	 0.0566270783	 1.4851232415	-0.0151325949	-0.526544
C	 0.0307910258	-0.013316426	 0.0021619652	 0.094563
C	 0.6090576886	-1.0075932628	-1.0656907299	 0.093102
O	 2.0137935096	-0.928406519	-1.2417610288	-0.449905
C	 0.0226370317	-1.9897191654	 0.0153146917	-0.299803
C	 0.6145320957	-1.0063292041	 1.1079202599	 0.151658
O	 1.9676184859	-0.9988791646	 1.4155462317	-0.447993
C	-1.1437144633	-0.9983430306	 0.0133116797	 0.418847
O	-2.337115772	-0.9886298322	 0.0271640518	-0.320608
H	 1.0848491962	 1.856324683	 0.0416528295	 0.137177
H	-0.3992077273	 1.8794896796	-0.9290856171	 0.130588
H	-0.496990189	 1.8894867738	 0.8379903192	 0.136493
H	 0.1088039327	-1.009780991	-2.040871759	 0.095875
H	 2.2941069341	-1.681287838	-1.7730065473	 0.299426
H	 0.0118367013	-3.0769102971	 0.0077405474	 0.092625
H	 0.0754535243	-0.9998989124	 2.0578811587	 0.103162
H	 2.4493339174	-0.9687713447	 0.576251022	 0.291338
135.2812	153.9828	176.853	200.2292	290.5774	297.9419	324.2131	371.1223	450.0503	569.2244	585.86	592.8874	623.7095	728.1935	750.7747	757.7749	777.5644	864.3155	924.4674	1031.5808	1038.5308	1085.0687	1094.1748	1116.0915	1162.0221	1179.5164	1198.2493	1225.854	1286.1646	1339.1772	1369.3191	1414.5994	1454.1117	1484.3805	1488.0935	1499.5456	1915.8463	3035.8141	3038.1887	3089.2368	3104.7781	3108.4043	3154.4047	3717.2077	3814.3522
CC12C(O)C(C1O)C2=O	C[C@@]12[C@@H](O)[C@@H]([C@H]1O)C2=O	
InChI=1S/C6H8O3/c1-6-3(7)2(4(6)8)5(6)9/h2-4,7-8H,1H3	InChI=1S/C6H8O3/c1-6-3(7)2(4(6)8)5(6)9/h2-4,7-8H,1H3/t2-,3-,4+,6+
