22
gdb 116087	2.54613	1.20516	0.87692	3.106	83.7	-0.2175	-0.0128	0.2048	1379.7541	0.19482	-404.373358	-404.364143	-404.363199	-404.407711	34.631	
C	 0.0483401252	 1.547596699	-0.0412190308	-0.395771
C	-0.0095476621	 0.0216273299	 0.0302091221	-0.106374
N	-1.3696882244	-0.5163072972	 0.0190652874	-0.074672
C	-1.3877338408	-1.9532676398	-0.2355650017	-0.133483
C	-2.8176855314	-2.4418573299	-0.4675282185	-0.219502
C	-3.7038284006	-2.1408078109	 0.7510108581	-0.297379
C	-3.5453917834	-0.7040094983	 1.2146988266	 0.387912
O	-4.4700476405	-0.0264327177	 1.5957121775	-0.302482
C	-2.110995962	-0.176914564	 1.2322132095	-0.247114
H	 1.0852143335	 1.873092672	-0.1689632472	 0.115858
H	-0.5373286043	 1.9126471904	-0.88992973	 0.127618
H	-0.3312826072	 2.0243410133	 0.8666563429	 0.124391
H	 0.5033139142	-0.3901047493	-0.8462641173	 0.099452
H	 0.5540158353	-0.3316043048	 0.9172847404	 0.075143
H	-0.7806375234	-2.1488976045	-1.1253832554	 0.101863
H	-0.9283582556	-2.52562228	 0.5982634001	 0.071596
H	-3.2213533443	-1.9358582085	-1.3513645055	 0.116038
H	-2.8160523865	-3.5166851163	-0.6760139523	 0.101266
H	-4.7623296681	-2.3414816814	 0.5703724381	 0.121197
H	-3.3862362811	-2.7767464491	 1.5911210886	 0.120259
H	-1.6213124269	-0.5934855386	 2.1419446563	 0.086811
H	-2.1665365956	 0.9048322458	 1.358670161	 0.127372
69.9321	89.2466	114.3459	208.3687	232.1437	275.6819	357.5846	387.6158	415.3704	453.2	487.2563	511.6847	632.3775	764.8234	801.9401	820.8282	835.9504	901.8456	944.8702	970.0796	1004.1242	1047.3811	1081.3041	1103.0867	1142.1724	1146.8965	1161.9584	1193.7018	1239.8704	1265.4586	1266.5058	1295.8418	1333.1912	1344.9889	1363.6216	1377.9688	1391.4376	1407.7572	1429.6051	1460.8247	1476.7971	1484.6453	1488.8683	1494.3885	1503.1335	1516.861	1823.7721	2849.1263	2879.5252	2903.3021	3007.6532	3041.6474	3044.7422	3050.9489	3067.7401	3086.8888	3107.2278	3112.0876	3118.5108	3125.3817
CCN1CCCC(=O)C1	CCN1CCCC(=O)C1	
InChI=1S/C7H13NO/c1-2-8-5-3-4-7(9)6-8/h2-6H2,1H3	InChI=1S/C7H13NO/c1-2-8-5-3-4-7(9)6-8/h2-6H2,1H3
