20
gdb 71402	3.89268	1.30245	1.24815	1.6396	83.42	-0.2281	0.082	0.31	1108.5398	0.171544	-365.944572	-365.936821	-365.935877	-365.976328	31.44	
C	-0.028957125	 1.4526298688	 0.0665779416	-0.496145
C	 0.0724261026	-0.0340601638	-0.0828940357	 0.332492
C	-0.5735433204	-0.9021006249	-1.1563618503	-0.28737
C	-0.3858115841	-2.0396091972	-0.1347229293	-0.115005
N	-0.3311886802	-0.979493675	 1.0196127614	-0.192881
C	 1.1184722053	-0.8609278745	 0.6070855502	-0.199129
C	 1.1201116339	-2.2310699602	-0.0057575061	 0.453671
C	 1.8199519536	-3.4372305041	 0.5325150119	-0.342148
C	 2.1034003944	-2.947013219	-0.877915002	-0.347014
H	 0.571123463	 1.9646726804	-0.6942818559	 0.120889
H	-1.0668422611	 1.7866425382	-0.0366651561	 0.123846
H	 0.3299205598	 1.7687989536	 1.0510232515	 0.128471
H	-1.6280068847	-0.6366376574	-1.2769491926	 0.103423
H	-0.0972005624	-1.0003319024	-2.1376730788	 0.094758
H	-1.077579418	-2.8776495425	-0.0640355651	 0.08
H	 1.8574997888	-0.4222693821	 1.2698895599	 0.087843
H	 2.5877747122	-3.2941167207	 1.2862491127	 0.115079
H	 1.2504636949	-4.3541702169	 0.6477691662	 0.114113
H	 1.7227911071	-3.5359950284	-1.7067085382	 0.112108
H	 3.0617788003	-2.4759459218	-1.0714316653	 0.112999
139.887	191.6811	204.299	238.0767	315.8339	342.3648	438.6571	478.6397	590.2798	632.4413	749.6292	768.1817	791.3016	798.8836	863.9963	898.642	924.3881	935.8098	955.1082	967.1816	991.7741	1006.0421	1023.9415	1051.9509	1053.867	1076.827	1085.2965	1146.8031	1176.4131	1184.6175	1204.4523	1230.9384	1246.8301	1280.7785	1312.6048	1375.2351	1417.0643	1439.1668	1463.1143	1483.1035	1492.8272	1496.8695	1514.103	3028.5704	3039.1624	3092.855	3096.1727	3105.8672	3121.7948	3125.4351	3129.1272	3166.6863	3199.4043	3213.9486
CC12CC3N1C2C31CC1	C[C@]12C[C@@H]3N1[C@H]2C13CC1	
InChI=1S/C8H11N/c1-7-4-5-8(2-3-8)6(7)9(5)7/h5-6H,2-4H2,1H3	InChI=1S/C8H11N/c1-7-4-5-8(2-3-8)6(7)9(5)7/h5-6H,2-4H2,1H3/t5-,6+,7+,9?/m0/s1
