22
gdb 113316	2.47371	1.03624	0.83311	0.9801	90.54	-0.2352	0.0391	0.2744	1504.3363	0.191821	-367.166645	-367.155999	-367.155055	-367.202464	39.122	
C	 0.382233385	 1.474575725	 0.1767600922	-0.378087
C	-0.2493075623	 0.1167642547	-0.1548868178	-0.194104
C	 0.4297461265	-0.5358443907	-1.3384187798	-0.04142
N	 1.679414267	-1.2657630784	-1.0904571774	-0.367709
C	 0.4961549433	-2.0176047457	-1.5908803561	 0.117996
C	-0.0769139467	-3.0536779239	-0.6322160639	-0.247767
C	 0.759840744	-4.3362362642	-0.5869276345	-0.382935
C	 0.5125640372	-2.4172377043	-2.9787328806	 0.294816
C	 0.5328252883	-2.7628799913	-4.1315848712	-0.458521
H	 1.443186259	 1.3556420736	 0.4173862077	 0.130293
H	 0.3043055443	 2.167148349	-0.6687453187	 0.112646
H	-0.111205747	 1.9399133619	 1.0352030772	 0.113027
H	-0.1821741226	-0.5366894	 0.7190192595	 0.108288
H	-1.3155932546	 0.2439357119	-0.3812883904	 0.100622
H	 0.3936033117	 0.0652970455	-2.2469961463	 0.087548
H	 2.3400018539	-1.1185628658	-1.8490517729	 0.236657
H	-0.1255919368	-2.6160562153	 0.367671612	 0.107144
H	-1.1054417564	-3.2817503327	-0.9362017348	 0.102393
H	 1.7826828064	-4.1121387322	-0.2692067571	 0.128224
H	 0.3325305652	-5.0549310001	 0.1186039194	 0.109463
H	 0.8062175999	-4.8128765365	-1.5707094197	 0.126296
H	 0.5478985946	-3.0635707103	-5.1498643465	 0.19513
63.684	80.452	129.3698	136.9815	161.2538	214.208	238.9863	260.4931	307.1135	367.8862	413.9095	481.9307	556.9432	588.5795	631.4695	651.5106	664.3112	761.0587	788.5259	826.4704	895.3805	931.9541	966.3387	1007.7316	1028.7981	1072.3638	1088.4152	1104.9893	1117.7545	1136.5196	1237.8342	1258.9546	1303.2176	1311.4978	1327.5293	1347.8064	1373.8955	1406.5951	1407.3714	1460.1437	1469.8753	1481.1636	1497.5916	1498.3689	1507.589	1509.7192	2226.1897	3031.7656	3033.7583	3040.625	3041.7426	3082.9285	3096.5559	3102.2833	3111.1088	3112.1522	3114.9149	3121.0307	3501.663	3508.2818
CCC1NC1(CC)C#C	CC[C@H]1N[C@]1(CC)C#C	
InChI=1S/C8H13N/c1-4-7-8(5-2,6-3)9-7/h2,7,9H,4,6H2,1,3H3	InChI=1S/C8H13N/c1-4-7-8(5-2,6-3)9-7/h2,7,9H,4,6H2,1,3H3/t7-,8+/m1/s1
