17
gdb 13605	3.33892	1.41452	1.30391	2.5215	65.85	-0.2462	0.0192	0.2654	1032.2108	0.140985	-401.016213	-401.00737	-401.006426	-401.050018	30.903	
C	 0.1020395324	 1.4190768463	-1.085547659	-0.334884
N	 0.2593177494	-0.0060077733	-0.8792323326	-0.303931
C	 0.3539841237	-0.5618171978	 0.3565829147	 0.361195
O	 0.3573921892	 0.0559721442	 1.4072710541	-0.380897
C	 0.4470600541	-2.0709232002	 0.3526617696	-0.047521
O	 0.4269915556	-2.7467815705	-0.9107504904	-0.268154
C	 1.6320562626	-2.8066041362	-0.1329231537	 0.095087
C	 2.8697753718	-2.1581787347	-0.6925889491	-0.42779
H	-0.8648843981	 1.6517359816	-1.5455925781	 0.128947
H	 0.1538105731	 1.898293449	-0.1068475166	 0.169824
H	 0.8972465289	 1.819093271	-1.7238204743	 0.126465
H	 0.1985443127	-0.6475898727	-1.6551913002	 0.260402
H	-0.152203206	-2.5261549648	 1.1394516515	 0.119382
H	 1.7942870042	-3.7874654595	 0.3171510451	 0.102684
H	 2.659697397	-1.1597376497	-1.0797460723	 0.132811
H	 3.6324899442	-2.0762862452	 0.0885961133	 0.135196
H	 3.2820749951	-2.7690841876	-1.5022646323	 0.131184
84.5762	91.0446	110.0225	178.6803	198.0257	222.1559	315.4742	381.075	441.011	493.7806	608.805	644.6018	768.6947	793.3453	839.8408	891.0376	984.4368	1017.2186	1078.5305	1113.5836	1153.3149	1159.0161	1168.4066	1177.2859	1262.5135	1284.2697	1371.9763	1411.739	1439.6593	1453.1621	1490.8568	1495.8178	1499.5877	1501.7963	1567.9414	1783.5283	3028.9571	3043.6602	3081.5709	3096.7139	3106.2621	3134.4245	3143.1031	3149.4919	3624.4507
CNC(=O)C1OC1C	CNC(=O)[C@H]1O[C@H]1C	
InChI=1S/C5H9NO2/c1-3-4(8-3)5(7)6-2/h3-4H,1-2H3,(H,6,7)	InChI=1S/C5H9NO2/c1-3-4(8-3)5(7)6-2/h3-4H,1-2H3,(H,6,7)/t3-,4-/m0/s1
