19
gdb 55487	4.92369	0.61149	0.56805	3.2024	87.33	-0.23	-0.012	0.218	1941.4056	0.156478	-385.873473	-385.863321	-385.862376	-385.911293	35.312	
C	 1.1033156418	 0.0042119404	-0.2492480447	-0.471765
C	-0.3600014595	 0.2023215082	 0.0801681219	 0.394847
O	-0.7698936316	 1.1550755633	 0.6964926167	-0.28915
C	-1.3540011979	-0.8556567083	-0.4467070865	-0.445511
C	-0.8702161302	-2.2282474662	-0.4660560151	 0.0476
C	-0.4630088943	-3.3635787471	-0.466723492	 0.083461
C	 0.0151121143	-4.7156707596	-0.4626362845	-0.15616
C	-0.5169050377	-5.7201286687	-1.4739552774	-0.25034
C	 0.8923197705	-5.2240046306	-1.5972477003	-0.25245
H	 1.4774752508	-0.8893693869	 0.2603582213	 0.156795
H	 1.236460788	-0.1737645663	-1.3220016952	 0.137891
H	 1.6725712601	 0.8800321891	 0.0631648534	 0.139026
H	-2.2687521673	-0.7533538576	 0.1459774019	 0.152333
H	-1.6136912826	-0.5399530574	-1.4690522448	 0.150023
H	 0.2414320575	-5.11746082	 0.5208938358	 0.111138
H	-0.6832791467	-6.7328782545	-1.1248184329	 0.120352
H	-1.2493143041	-5.3594687713	-2.1860442933	 0.127177
H	 1.1189372651	-4.5256155344	-2.3938474276	 0.124861
H	 1.7041906738	-5.892711242	-1.3345528366	 0.119871
19.1685	32.1438	73.6909	123.6897	135.5934	177.6892	295.6683	331.048	426.4751	450.4721	510.8932	515.2175	557.1515	715.7635	764.666	799.013	821.7057	838.3279	896.0664	915.6453	1001.8827	1047.9181	1060.5631	1062.7453	1079.88	1118.96	1183.0532	1193.0742	1201.4361	1229.1868	1231.4734	1300.33	1382.9771	1393.7396	1440.6209	1458.1931	1467.2833	1471.0578	1497.6966	1821.6635	2358.7704	3000.6558	3044.1795	3076.4972	3106.5565	3141.2003	3142.6794	3147.4625	3157.5367	3225.7432	3240.8569
CC(=O)CC#CC1CC1	CC(=O)CC#CC1CC1	
InChI=1S/C8H10O/c1-7(9)3-2-4-8-5-6-8/h8H,3,5-6H2,1H3	InChI=1S/C8H10O/c1-7(9)3-2-4-8-5-6-8/h8H,3,5-6H2,1H3
