21
gdb 118803	2.28868	1.08873	0.84596	0.5841	87.01	-0.2418	0.0485	0.2902	1450.9931	0.179172	-387.037687	-387.027213	-387.026269	-387.073287	38.144	
C	 0.0946413795	 1.380478158	-0.0668778644	-0.223647
O	 0.256285032	-0.0163555707	-0.1048319429	-0.237817
C	 0.467031154	-0.5777800057	 1.1767018695	-0.131438
C	 0.5599042012	-2.0787095542	 1.0288738931	 0.327484
C	-0.7000452382	-2.7393741594	 0.506169224	-0.461709
C	 1.8917067115	-2.6590977339	 0.6475016063	-0.312382
C	 1.3751860033	-2.847658711	 2.0690055572	-0.260452
C	 2.0142704225	-2.1999258071	 3.1771351942	 0.334538
C	 2.5461975897	-1.6746812328	 4.1205576862	-0.461212
H	 0.9842020398	 1.8850598776	 0.3430491952	 0.103834
H	-0.0615351294	 1.7207417132	-1.0935906253	 0.125558
H	-0.7748272983	 1.6764205242	 0.5419606578	 0.102899
H	 1.3843958797	-0.1744316772	 1.6308459417	 0.09705
H	-0.3692694504	-0.3149773769	 1.8483808319	 0.085936
H	-0.966242328	-2.3210039913	-0.4685097505	 0.138878
H	-0.5671325059	-3.8195734063	 0.3927420399	 0.110916
H	-1.5428874128	-2.5729630411	 1.187054326	 0.116493
H	 1.9134741455	-3.5341666918	 0.0071918208	 0.115617
H	 2.7251523988	-1.9789887842	 0.5153290489	 0.125914
H	 0.9881370057	-3.8371415141	 2.2978024177	 0.110709
H	 3.0175332298	-1.2100375753	 4.9505186428	 0.192832
74.6855	86.2266	107.1619	140.7139	196.887	217.4322	230.2216	294.7538	330.8411	357.8681	396.9677	439.4893	528.249	573.9296	600.5351	647.0677	742.2255	793.8316	873.8146	941.8731	955.4472	988.0717	1000.7502	1018.5891	1065.4953	1102.5241	1116.0508	1136.7805	1156.2142	1184.1215	1226.8921	1238.4612	1302.3826	1335.0842	1403.5449	1410.4723	1428.2871	1480.694	1483.3297	1484.7998	1486.7211	1504.9502	1508.1198	1524.1492	2231.8683	2949.5737	2968.4483	3007.3727	3011.0355	3030.8377	3095.5125	3112.1224	3115.8964	3136.2772	3139.8227	3227.5036	3504.4339
COCC1(C)CC1C#C	COC[C@@]1(C)C[C@H]1C#C	
InChI=1S/C8H12O/c1-4-7-5-8(7,2)6-9-3/h1,7H,5-6H2,2-3H3	InChI=1S/C8H12O/c1-4-7-5-8(7,2)6-9-3/h1,7H,5-6H2,2-3H3/t7-,8-/m1/s1
