16
gdb 74136	1.98073	1.78502	0.94796	4.0419	77.41	-0.2278	-0.0277	0.2001	1171.1792	0.126615	-434.137184	-434.12906	-434.128116	-434.17025	31.016	
N	 0.0467877447	 1.3830709488	-0.1620323274	-0.563039
C	-0.0481925826	 0.0303699866	 0.028260451	 0.371601
C	-1.1872403845	-0.6747849774	-0.1486652476	-0.322402
C	-1.2711499869	-2.0968513148	 0.1343863654	 0.426213
O	-2.2777169355	-2.7719305901	 0.0222202941	-0.383184
N	-0.0757912938	-2.7120229707	 0.5491010068	-0.403258
C	 1.1773038409	-2.13427346	 0.633581132	 0.382034
N	 2.2821520054	-2.7468109657	 0.805643374	-0.529114
C	 1.2020665838	-0.6197327779	 0.5561540055	-0.365799
H	 0.9593368731	 1.7794904096	-0.3179675216	 0.261303
H	-0.7033474033	 1.8450162904	-0.651574984	 0.264049
H	-2.1025738227	-0.2130773562	-0.4989294573	 0.096683
H	-0.1520168551	-3.7154267036	 0.6489738033	 0.247789
H	 2.1445581606	-3.7572201256	 0.8721224818	 0.206581
H	 2.0736275681	-0.3331884289	-0.0413676817	 0.146924
H	 1.3938080476	-0.2333068244	 1.5659165258	 0.16362
53.974	137.6627	174.4147	323.0082	371.106	377.212	436.7899	469.2148	484.7246	528.1335	573.4705	584.8621	618.2276	627.3165	741.414	853.9915	869.2473	917.4888	942.6465	964.223	970.5536	1103.2833	1149.4137	1211.6343	1259.9234	1289.7785	1337.3046	1403.5583	1413.7388	1438.3834	1449.6202	1648.5653	1691.0358	1730.0008	1781.352	3030.9489	3077.8548	3202.4561	3452.93	3589.0072	3596.7122	3700.3977
NC1=CC(=O)NC(=N)C1	NC1=CC(=O)N[C]([NH])C1	
InChI=1S/C5H7N3O/c6-3-1-4(7)8-5(9)2-3/h2H,1,6H2,(H2,7,8,9)	InChI=1S/C5H7N3O/c6-3-1-4(7)8-5(9)2-3/h2H,1,6H2,(H2,7,8,9)
