16
gdb 125144	3.24564	1.12323	0.8389	4.2734	83.27	-0.204	-0.0229	0.1812	1323.278	0.124257	-434.081056	-434.072114	-434.07117	-434.115249	31.568	
C	-0.0134529939	 1.5214881616	 0.0411688995	-0.515114
C	 0.0154210552	 0.0279449897	 0.0124528089	 0.032307
C	 0.0044639177	-0.7869554027	-1.0904637869	 0.457974
O	 0.0390589695	-2.0873139668	-0.70284028	-0.23605
N	 0.0749227794	-2.1498951405	 0.6945967389	-0.163612
C	 0.0601297842	-0.899069141	 1.0869267885	-0.024255
N	-0.0321147333	-0.4490132864	-2.4141083895	-0.369055
C	-0.0296613892	-1.3721601018	-3.3091990382	 0.119769
N	-0.1060006813	-1.0775868491	-4.627632158	-0.497774
H	 0.8741161439	 1.9376613663	 0.5316277849	 0.126567
H	-0.0492295533	 1.9105047093	-0.9791370549	 0.141114
H	-0.8887602238	 1.9023454587	 0.5799043312	 0.12694
H	 0.0820297291	-0.6910827294	 2.1488185226	 0.122161
H	 0.0080816937	-2.4406780718	-3.0841304353	 0.138944
H	 0.0646811452	-1.786579456	-5.317546929	 0.270471
H	-0.0443090233	-0.1121252501	-4.9093317629	 0.269613
71.7543	112.0435	137.9541	147.1511	220.4246	251.9821	269.1251	367.642	424.5807	518.6358	599.8075	639.8814	656.6999	742.2823	784.4312	912.8333	929.8482	950.5325	1006.6305	1014.9992	1069.788	1082.659	1165.131	1211.512	1282.2287	1315.9668	1390.798	1398.7981	1427.9646	1490.1972	1495.0379	1520.53	1620.0453	1681.0976	1720.7133	3027.2373	3074.506	3106.9786	3123.84	3227.3365	3606.2162	3744.5686
CC1=C(ON=C1)N=CN	Cc1c(onc1)N=CN	
InChI=1S/C5H7N3O/c1-4-2-8-9-5(4)7-3-6/h2-3H,1H3,(H2,6,7)	InChI=1S/C5H7N3O/c1-4-2-8-9-5(4)7-3-6/h2-3H,1H3,(H2,6,7)
