24
gdb 100785	2.43426	1.09582	0.89088	2.5968	86.24	-0.2446	0.0806	0.3252	1451.5495	0.215765	-405.524588	-405.514038	-405.513093	-405.559993	39.444	
C	-0.0828597335	 1.5620448834	-0.0008171697	-0.382842
C	-0.1640941026	 0.0375349632	-0.1129196533	-0.189478
C	 0.7876270618	-0.5172207395	-1.1834206876	 0.153148
O	 2.1393749617	-0.1848404684	-0.896742982	-0.444256
C	 0.6673803381	-2.0448510258	-1.3994473039	 0.019241
C	 1.4188699026	-2.4728857022	-2.6617181654	-0.394076
N	 1.2594946433	-2.7059395205	-0.2271990349	-0.077939
C	 0.3665422054	-3.1524572969	 0.8388452428	-0.219101
C	 1.024556785	-4.1350147717	-0.0628914569	-0.229253
H	 0.9452500132	 1.8709461095	 0.204555277	 0.134138
H	-0.3960673262	 2.0440370582	-0.9341033128	 0.108546
H	-0.725505744	 1.9384207416	 0.800939392	 0.103878
H	 0.0826345647	-0.4151912955	 0.8546927629	 0.098733
H	-1.190917356	-0.2690512249	-0.3540617573	 0.081946
H	 0.551136468	-0.0252068714	-2.1369878271	 0.071387
H	 2.4436049544	-0.8839678338	-0.2990791785	 0.281729
H	-0.3997175521	-2.310246317	-1.5046333218	 0.054671
H	 0.9602991291	-2.0214035008	-3.5465844478	 0.114456
H	 2.4591712391	-2.1429328737	-2.6081733246	 0.135762
H	 1.4004755005	-3.5591511783	-2.7878207064	 0.108504
H	 0.7253467142	-3.0043070223	 1.8534109714	 0.119531
H	-0.7017163861	-2.9937124331	 0.7061246681	 0.116912
H	 0.3916084118	-4.6341894623	-0.7944692419	 0.114464
H	 1.8727981477	-4.7216305976	 0.2782778978	 0.1199
79.398	96.2903	112.4167	172.3184	198.5478	217.5396	236.1008	268.8377	309.1326	345.5863	351.5349	473.5969	510.0286	524.722	654.112	739.0678	782.8969	822.4313	865.5062	910.6802	945.0984	972.7247	992.0537	1016.1411	1032.6437	1054.2887	1075.4837	1114.8949	1116.409	1124.3204	1138.567	1168.8977	1174.6813	1197.6082	1266.4425	1297.3852	1316.6504	1318.9019	1354.6157	1367.3012	1396.668	1400.9798	1408.8927	1440.4113	1480.1947	1490.4577	1491.8031	1496.6182	1498.3406	1510.7709	1519.7127	2937.3741	3012.0544	3016.0129	3033.947	3044.9012	3062.627	3097.6862	3098.5913	3102.4903	3112.2843	3123.7252	3130.309	3178.6349	3193.2541	3715.3298
CCC(O)C(C)N1CC1	CC[C@@H](O)[C@@H](C)N1CC1	
InChI=1S/C7H15NO/c1-3-7(9)6(2)8-4-5-8/h6-7,9H,3-5H2,1-2H3	InChI=1S/C7H15NO/c1-3-7(9)6(2)8-4-5-8/h6-7,9H,3-5H2,1-2H3/t6-,7-/m1/s1
