19
gdb 87223	4.24015	0.75319	0.71901	4.7497	77.33	-0.237	0.0241	0.261	1577.5886	0.157366	-419.184796	-419.174822	-419.173878	-419.220169	36.127	
C	-0.0081438143	 1.7254148427	 0.2216834566	-0.43332
C	-0.0734301809	 0.220943029	 0.0627450594	 0.328156
C	 1.1988384823	-0.5223940736	-0.359826681	-0.374173
C	 0.653753715	-0.6419732664	 1.0480232334	 0.049657
O	 1.300143708	-0.0090989298	 2.109423227	-0.420059
N	-1.3633575272	-0.2661520993	-0.3814249101	-0.347977
C	-1.6047086111	-0.0749590849	-1.8101130232	-0.2638
C	-2.8734158005	-0.6865919239	-2.2110049649	 0.249861
N	-3.8614430757	-1.1912822284	-2.5321515548	-0.298666
H	 0.9231353759	 2.0163423471	 0.7092379032	 0.135279
H	-0.0606280036	 2.2355478571	-0.7462738454	 0.111108
H	-0.8441440483	 2.0709475296	 0.8364534292	 0.133296
H	 1.111317927	-1.3841357614	-1.0142741955	 0.109316
H	 2.1028890713	 0.0633572862	-0.491834119	 0.118053
H	 0.1743102499	-1.5873881792	 1.3116717294	 0.08741
H	 2.134589837	-0.4642423073	 2.2635244041	 0.291712
H	-1.4799386498	-1.2453661109	-0.1460435163	 0.231727
H	-1.6595081371	 0.9980566683	-2.0263024352	 0.160222
H	-0.8080724478	-0.4837541349	-2.4572140269	 0.132199
50.1614	85.9321	106.5635	181.2706	206.8994	258.0227	278.1442	304.4926	367.1956	381.6962	410.7902	465.1611	529.4607	584.6665	710.9339	735.5513	826.8764	901.5722	915.1727	953.8297	993.1506	1001.8661	1018.8551	1046.553	1089.6498	1110.731	1129.0503	1190.2915	1235.7105	1276.3123	1286.6602	1333.6996	1372.4776	1415.359	1424.0084	1477.2729	1489.4112	1491.4992	1496.681	1520.6993	2368.2025	2947.5381	3041.005	3061.5539	3071.5677	3104.9524	3122.6355	3146.0887	3213.9316	3535.1474	3808.6148
CC1(CC1O)NCC#N	C[C@]1(C[C@H]1O)NCC#N	
InChI=1S/C6H10N2O/c1-6(4-5(6)9)8-3-2-7/h5,8-9H,3-4H2,1H3	InChI=1S/C6H10N2O/c1-6(4-5(6)9)8-3-2-7/h5,8-9H,3-4H2,1H3/t5-,6-/m1/s1
