14
gdb 123507	4.01169	1.80728	1.24597	0.7765	81.61	-0.213	-0.0675	0.1456	918.8079	0.105202	-395.770554	-395.764717	-395.763773	-395.800584	23.898	
C	 0.0070429168	 1.3837811176	 0.0096560702	-0.130765
C	 1.3240742244	 1.8294708384	-0.0004470182	-0.094851
N	 2.1221709896	 0.7334393869	-0.0138926536	 0.015772
N	 3.4638725181	 0.7174760949	-0.0267121991	-0.211878
C	 3.9839241779	-0.4849729756	-0.0381385872	 0.013441
C	 3.2056091649	-1.6764382024	-0.037182794	-0.065394
N	 1.8922089467	-1.652936285	-0.0245900046	-0.306223
C	 1.3146541791	-0.4450013303	-0.0125950143	 0.428598
C	-0.007649097	-0.0223968638	 0.0023022631	-0.266345
H	-0.8573381316	 2.0305393424	 0.0213296586	 0.114642
H	 1.7522673521	 2.817962713	 0.0007906385	 0.137886
H	 5.0678983351	-0.523191997	-0.0486373211	 0.129696
H	 3.6959835803	-2.6454121131	-0.0470548081	 0.118759
H	-0.8652799764	-0.6752259361	 0.0069759496	 0.116662
225.0538	226.9411	440.2321	458.5518	584.7693	596.9728	620.811	635.1895	734.6357	746.6284	750.5006	811.818	865.3693	868.3337	886.8507	937.2416	953.9472	1041.9742	1059.4266	1083.7432	1195.8349	1226.3612	1267.3798	1330.3221	1384.6055	1415.7818	1444.9211	1496.3892	1516.8325	1577.5587	1626.7472	3170.119	3196.2904	3247.8012	3270.3327	3282.1051
C1=CN2N=CC=NC2=C1	c1cn2nccnc2c1	
InChI=1S/C6H5N3/c1-2-6-7-3-4-8-9(6)5-1/h1-5H	InChI=1S/C6H5N3/c1-2-6-7-3-4-8-9(6)5-1/h1-5H
