17
gdb 77126	2.68806	1.29158	1.12962	5.015	69.51	-0.24	-0.0362	0.2039	1142.6202	0.133306	-458.986492	-458.977457	-458.976513	-459.020903	32.787	
C	-0.000805568	 1.5421230022	-0.0594975662	-0.484969
C	-0.0960824051	 0.0364865024	 0.0282646783	 0.420308
O	-0.2485614778	-0.5383905246	 1.0906658526	-0.33399
C	 0.0234295685	-0.7503965507	-1.2572571223	-0.207111
C	 1.4083998269	-1.486641273	-1.3355181842	-0.353529
C	 0.6968964114	-2.7586899977	-0.8256606141	 0.363428
O	 1.0697440351	-3.7405525584	-0.2594454169	-0.286197
C	-0.6917138307	-2.1643699064	-1.1593391248	 0.061403
O	-1.7824362636	-2.3705753553	-0.3364691661	-0.418907
H	 0.9023151006	 1.8394393666	-0.604059698	 0.144667
H	-0.8539200167	 1.9293547462	-0.6293861141	 0.151508
H	 0.0006524551	 1.9797173692	 0.9392380651	 0.149324
H	-0.2280410647	-0.1461141188	-2.1296867314	 0.087886
H	 1.7706707741	-1.5875060136	-2.3621036344	 0.138272
H	 2.2174419563	-1.1154043501	-0.7036306369	 0.142089
H	-0.9716219172	-2.4772158197	-2.173426031	 0.120777
H	-1.5042423042	-2.1024876383	 0.5518774343	 0.305041
48.7139	78.9199	146.3529	205.2185	221.7255	245.7547	305.0951	403.3671	452.3627	548.7977	568.8844	585.5319	633.368	717.6406	736.8721	773.3072	864.8861	927.224	984.664	991.7585	1020.1795	1067.7148	1083.5364	1167.0057	1169.3655	1190.5503	1206.3435	1238.3671	1311.0145	1366.6393	1389.4807	1435.9707	1452.5631	1460.1219	1472.5669	1773.8192	1903.1688	3034.9045	3039.9139	3071.5454	3094.9487	3104.7524	3133.4145	3155.1476	3731.1619
CC(=O)C1CC(=O)C1O	CC(=O)[C@H]1CC(=O)[C@H]1O	
InChI=1S/C6H8O3/c1-3(7)4-2-5(8)6(4)9/h4,6,9H,2H2,1H3	InChI=1S/C6H8O3/c1-3(7)4-2-5(8)6(4)9/h4,6,9H,2H2,1H3/t4-,6+/m1/s1
