19
gdb 76094	2.43762	1.24668	1.0163	0.7304	83.17	-0.2232	0.0305	0.2537	1248.5167	0.157932	-381.96816	-381.958837	-381.957893	-382.002553	34.468	
C	-0.2321253742	 1.5207271091	-0.044084428	-0.315077
N	 0.0391214725	 0.0914589892	 0.0669186066	-0.110743
C	 1.3761054148	-0.4264178238	-0.2815314783	-0.230421
C	 2.4421682581	 0.4470720843	-0.6876698939	 0.356373
C	 3.3299346192	 1.1681430735	-1.0619671428	-0.463021
C	 0.8778788818	-0.4112271207	 1.1445134167	-0.031175
C	 1.5014868239	 0.4591201198	 2.1896104069	 0.004804
C	 0.898998846	 0.4869108532	 3.5489164993	-0.248288
N	 2.1931686824	-0.1756160912	 3.3254042831	-0.3203
H	 0.6401559249	 2.169886055	 0.1017986406	 0.121528
H	-0.6368295704	 1.7177437908	-1.041122242	 0.128555
H	-0.995988486	 1.7852421586	 0.6928932863	 0.126789
H	 1.3449251122	-1.3703398041	-0.8226615275	 0.115038
H	 4.1214544524	 1.7976789019	-1.3860722886	 0.20233
H	 0.5289035047	-1.3662758823	 1.544917629	 0.087189
H	 2.0086671385	 1.3469057882	 1.8267625418	 0.109948
H	 0.9438932769	 1.3932393972	 4.1459547427	 0.121985
H	 0.0190901891	-0.1278467239	 3.7237431333	 0.113594
H	 2.0641771733	-1.1849186749	 3.2886590151	 0.23089
60.6756	110.4033	133.409	163.221	191.125	258.0465	322.8687	353.2872	375.0274	526.562	588.6028	601.5979	618.1561	666.4048	717.2631	811.375	841.6173	874.1838	902.2824	955.2791	977.0814	1035.7678	1077.9634	1084.042	1128.4396	1141.0382	1158.0098	1165.7537	1172.2317	1235.9366	1252.4353	1296.5426	1322.4304	1341.7386	1363.4983	1448.6359	1459.1676	1486.1855	1505.9135	1511.9581	2228.9954	3018.3362	3069.9993	3087.1719	3106.1624	3112.362	3118.2494	3166.616	3192.7256	3484.7932	3502.5123
CN1C(C#C)C1C1CN1	CN1[C@@H](C#C)[C@H]1[C@H]1CN1	
InChI=1S/C7H10N2/c1-3-6-7(9(6)2)5-4-8-5/h1,5-8H,4H2,2H3	InChI=1S/C7H10N2/c1-3-6-7(9(6)2)5-4-8-5/h1,5-8H,4H2,2H3/t5-,6+,7-,9?/m1/s1
