16
gdb 129640	2.32273	1.90783	1.05275	3.7032	80.45	-0.1802	-0.0209	0.1593	1074.384	0.127776	-430.255037	-430.246856	-430.245912	-430.287268	31.649	
N	 0.0489198286	 1.3926355139	 0.0683546904	-0.590767
C	-0.0253170452	 0.0004498987	 0.0315866529	 0.345174
C	-1.2066124418	-0.682121574	 0.0071399543	 0.186979
N	-2.43750522	 0.0047111714	-0.0551567333	-0.620758
C	-1.191818098	-2.1275737538	-0.0504110451	 0.232057
N	-2.3098618886	-2.7778038417	-0.1399139261	-0.595331
C	 0.1527453707	-2.6958695555	-0.0025098542	-0.062591
N	 1.2631455874	-2.0286800838	 0.0726094446	-0.201332
N	 1.1621265913	-0.6893513585	 0.0669536263	-0.299517
H	 0.8284285387	 1.7694275365	-0.4589799378	 0.247932
H	-0.8214644129	 1.7892499258	-0.2729037214	 0.266744
H	-2.6386385233	 0.5171427867	 0.7984246138	 0.243021
H	-3.1651878355	-0.696722677	-0.1832274837	 0.263636
H	-2.1435293671	-3.7828291275	-0.1949650369	 0.200701
H	 0.264739152	-3.7772183072	 0.0006064954	 0.11493
H	 2.0301445538	-0.2056078942	 0.2292803808	 0.269123
134.8635	193.3177	204.5153	264.1681	291.838	332.1648	375.8481	400.3023	497.5662	513.9391	570.5101	586.6738	609.1431	690.8618	751.2797	794.0256	803.2092	866.3207	912.7404	926.8271	1019.4668	1089.6946	1140.9121	1174.8395	1285.6456	1292.3604	1365.9387	1385.2051	1438.9568	1534.7331	1597.9524	1634.4578	1651.0685	1662.2833	1703.7992	3163.6009	3464.6309	3468.9928	3501.3094	3548.7756	3596.6157	3646.0412
NC1=C(N)C(=N)C=NN1	N[C@@H]1C(=C([NH])C=NN1)N	
InChI=1S/C4H7N5/c5-2-1-8-9-4(7)3(2)6/h1H,(H2,6,8)(H4,5,7,9)	InChI=1S/C4H8N5/c5-2-1-8-9-4(7)3(2)6/h1,4-5,9H,6-7H2/t4-/m0/s1
