16
gdb 98132	4.80991	0.88346	0.7499	2.6488	70.94	-0.2497	-0.0491	0.2006	1461.0364	0.124413	-471.241494	-471.232206	-471.231262	-471.276297	32.064	
C	-0.1782021545	 1.3558595574	 0.2702615467	-0.242352
O	-0.1267438131	-0.0766902479	 0.2045132805	-0.201527
C	 0.4187847499	-0.5755501867	-0.8955816382	 0.467889
O	 0.8586550358	 0.0859296003	-1.8124942883	-0.396824
C	 0.4462129452	-2.0937634018	-0.9090268748	 0.224329
N	-0.0171408134	-2.7741165145	 0.0560219046	-0.488757
N	 1.0331960046	-2.5330715522	-2.0956651693	-0.317822
C	 1.240758685	-3.8328183382	-2.4844868608	 0.103007
N	 0.9057732342	-4.8369168965	-1.7726817173	-0.453309
H	 0.8288914375	 1.7774748888	 0.2238405352	 0.14471
H	-0.7681680057	 1.7560059882	-0.5579773262	 0.144709
H	-0.6486676915	 1.5872399213	 1.2249317609	 0.144865
H	 0.0931449888	-3.7724560461	-0.1422012569	 0.260646
H	 1.3231714936	-1.7842539516	-2.7096025171	 0.272622
H	 1.7229655307	-3.8895461698	-3.4669933639	 0.1052
H	 1.147848983	-5.7054513407	-2.242629795	 0.232613
63.5276	93.8127	125.9341	159.4477	166.2792	225.4473	269.1747	327.7005	362.6398	505.3037	514.4955	600.3447	648.8265	809.9737	818.8909	826.5629	910.3003	970.9761	994.1288	1052.1132	1063.5866	1162.8192	1178.0543	1210.8522	1262.5976	1288.7432	1378.1952	1420.7331	1477.7734	1483.5068	1494.0848	1551.654	1697.9201	1742.7468	1785.8238	3054.6849	3056.9738	3130.1999	3169.181	3436.9642	3521.6497	3596.4281
COC(=O)C(=N)NC=N	COC(=O)C(=N)NC=N	
InChI=1S/C4H7N3O2/c1-9-4(8)3(6)7-2-5/h2H,1H3,(H3,5,6,7)	InChI=1S/C4H7N3O2/c1-9-4(8)3(6)7-2-5/h2H,1H3,(H3,5,6,7)
