23
gdb 118785	3.09145	0.96141	0.84682	1.9032	83.93	-0.2375	0.0776	0.3151	1498.3658	0.202376	-425.406527	-425.39561	-425.394666	-425.442121	40.305	
C	-0.1778884607	 1.3150437722	 0.0881329018	-0.226019
O	-0.2181279362	-0.0736828927	-0.1404168024	-0.250262
C	 0.7653304978	-0.5196011393	-1.0633564596	-0.134786
C	 0.7047761442	-2.0278891123	-1.0564393012	 0.389323
O	 0.878466935	-2.5345283712	 0.2405118495	-0.477705
C	-0.2439225732	-2.7631076642	-1.9815730903	-0.387458
C	 1.262838535	-2.8776285879	-2.170839808	 0.264126
C	 1.8919724494	-2.227848596	-3.3914065426	-0.455159
C	 1.9221008796	-4.1896263392	-1.7818246745	-0.44201
H	 0.797030407	 1.6349033804	 0.4880159147	 0.108066
H	-0.3740494811	 1.8846282422	-0.833586541	 0.106924
H	-0.9555694133	 1.5499185119	 0.8189440569	 0.128617
H	 0.56982343	-0.101470562	-2.0604764021	 0.088296
H	 1.7623781539	-0.1786780785	-0.7381489188	 0.09222
H	 0.2692074371	-2.0293289425	 0.7938525548	 0.286966
H	-0.7634747164	-3.6170998125	-1.5608846487	 0.110573
H	-0.8158413307	-2.1899574551	-2.7049702488	 0.10162
H	 1.3694463903	-1.32078414	-3.7059270674	 0.111504
H	 2.9409181932	-1.9667465206	-3.2074455775	 0.115477
H	 1.8711655275	-2.9239561426	-4.238142455	 0.116321
H	 1.8211631542	-4.9189994585	-2.5938192812	 0.106996
H	 2.9926048215	-4.0478512754	-1.5930278096	 0.11148
H	 1.478549366	-4.6080900462	-0.877869279	 0.13489
73.6638	102.8354	123.6473	177.7415	189.2725	209.2786	232.0089	268.3585	300.3551	348.1996	368.6159	403.4915	428.1868	437.5676	486.9765	550.8594	706.8619	787.7865	901.3646	907.8193	928.896	970.6251	978.0733	993.747	1028.8528	1041.1084	1046.9517	1147.1734	1160.7149	1168.6196	1191.3239	1221.4159	1225.7621	1275.4157	1301.8541	1327.6133	1394.0082	1409.0353	1421.7203	1438.0887	1479.1498	1482.6938	1485.8246	1489.0421	1491.2366	1500.2487	1504.5249	1519.948	1522.7344	2964.7228	2976.7392	3019.2688	3021.7302	3025.5833	3029.7652	3079.2116	3083.3017	3108.694	3114.5701	3123.8173	3143.1994	3215.7141	3774.9702
COCC1(O)CC1(C)C	COC[C@@]1(O)CC1(C)C	
InChI=1S/C7H14O2/c1-6(2)4-7(6,8)5-9-3/h8H,4-5H2,1-3H3	InChI=1S/C7H14O2/c1-6(2)4-7(6,8)5-9-3/h8H,4-5H2,1-3H3/t7-/m0/s1
