14
gdb 101995	3.30173	0.71013	0.60173	3.7415	78.84	-0.2727	-0.0678	0.2049	1705.9565	0.098326	-436.667787	-436.658182	-436.657238	-436.703708	32.116	
O	 0.1085831323	 1.4114616253	-0.2344055792	-0.395439
C	 0.0749996719	 0.0288579126	 0.0212089435	-0.077199
C	-1.3849795018	-0.5141183546	 0.0506004298	-0.311143
C	-2.1063646592	-0.080725673	-1.2415006945	 0.186974
O	-3.0639603207	 0.6371697143	-1.2513718131	-0.224315
C	-1.4013830842	-1.9585046824	 0.1729890761	 0.097041
C	-1.3911345377	-3.1653450284	 0.2422141774	 0.037832
C	-1.3840828872	-4.5276879563	 0.3287917619	 0.212817
N	-1.3752709673	-5.6869643023	 0.4025114585	-0.329069
H	-0.2640989231	 1.8800060862	 0.5200345621	 0.297732
H	 0.6186502989	-0.450391775	-0.7984849472	 0.139158
H	 0.5750105179	-0.2468858003	 0.959034165	 0.124315
H	-1.9316556153	-0.0596994338	 0.8860910459	 0.136026
H	-1.6513110245	-0.4878679223	-2.1692107963	 0.105271
53.4548	74.3561	84.5022	120.9867	199.0739	224.7491	263.6382	319.8033	384.8592	451.0967	482.7842	508.9145	577.5273	581.8568	770.5668	863.6591	964.3147	1040.1072	1052.0365	1107.1926	1170.4783	1178.1471	1273.2865	1309.9922	1383.3944	1401.7127	1418.917	1504.3649	1848.9702	2262.996	2396.0893	2912.8807	3020.7652	3042.3941	3095.5587	3814.8137
OCC(C=O)C#CC#N	OC[C@@H](C=O)C#CC#N	
InChI=1S/C6H5NO2/c7-3-1-2-6(4-8)5-9/h4,6,9H,5H2	InChI=1S/C6H5NO2/c7-3-1-2-6(4-8)5-9/h4,6,9H,5H2/t6-/m1/s1
