20
gdb 86249	2.05783	1.70916	1.19345	3.9782	76.4	-0.2183	-0.0306	0.1876	1117.4555	0.170477	-440.288802	-440.279693	-440.278749	-440.322614	33.873	
C	-0.465624365	 1.6052153695	-0.0193109575	-0.32717
N	-0.2138432955	 0.1800187642	 0.0151555847	-0.065375
C	-1.4063982895	-0.6756998082	 0.0107702453	-0.172565
C	-0.9659057283	-1.9995747452	 0.6594198437	 0.128329
O	-0.4180818805	-2.9179885261	-0.2599850852	-0.447513
C	 0.0436229531	-1.5096566611	 1.7167396507	-0.285158
C	 0.7241190841	-0.3042637842	 1.0509191279	-0.062315
C	 1.9529733436	-0.6602683008	 0.2226180672	 0.174987
O	 2.2463592222	-1.7795166402	-0.1307791576	-0.266251
H	 0.4742530467	 2.1597024237	-0.0985672253	 0.121102
H	-1.0677356326	 1.8518276321	-0.8994090721	 0.130112
H	-1.005610898	 1.9709636726	 0.875118463	 0.096087
H	-2.2191708123	-0.2208917735	 0.606228471	 0.077255
H	-1.7761299952	-0.8376526314	-1.0063589164	 0.116485
H	-1.8234797303	-2.4990990561	 1.1212041076	 0.082335
H	 0.5281794654	-2.7326721057	-0.3537484278	 0.299444
H	-0.4847561072	-1.1788470122	 2.6155012908	 0.107244
H	 0.7474534521	-2.2947944277	 1.9996635366	 0.124903
H	 0.9760874179	 0.4878904085	 1.7691711419	 0.075723
H	 2.5422364994	 0.2129940819	-0.1296570085	 0.092341
77.2887	112.6403	175.5452	193.5609	213.5464	251.9877	325.1394	351.8424	396.4703	423.2086	489.5578	575.4003	678.4369	776.6339	810.9484	839.1595	862.4713	914.3938	977.5024	1009.1126	1016.9394	1063.5128	1081.1456	1117.856	1143.351	1176.9599	1194.3481	1230.1706	1234.6339	1272.4391	1319.4363	1334.3489	1357.046	1367.8086	1374.4145	1418.1162	1460.4484	1465.8288	1474.3301	1489.6929	1499.1796	1511.7456	1802.4382	2907.9175	2923.7394	2934.8549	3004.5009	3056.7718	3063.8349	3071.1618	3075.6402	3105.6634	3124.5277	3700.9654
CN1CC(O)CC1C=O	CN1C[C@@H](O)C[C@H]1C=O	
InChI=1S/C6H11NO2/c1-7-3-6(9)2-5(7)4-8/h4-6,9H,2-3H2,1H3	InChI=1S/C6H11NO2/c1-7-3-6(9)2-5(7)4-8/h4-6,9H,2-3H2,1H3/t5-,6-/m0/s1
