20
gdb 15194	5.09908	0.87266	0.82457	1.1799	73.36	-0.2416	0.0907	0.3323	1468.9993	0.174949	-386.099161	-386.089824	-386.088879	-386.134568	32.577	
C	-0.2807397198	 1.3504602721	-0.2015163365	-0.223766
O	-0.3032201118	-0.0522427164	-0.1085900216	-0.225924
C	 0.669629295	-0.6696061497	-0.9188548855	-0.060727
C	 0.521088743	-2.1731613354	-0.8143522836	-0.066419
O	-0.6458771772	-2.5678438711	-1.5101431823	-0.246009
C	-0.9315551805	-3.9237631658	-1.3820562532	 0.152391
C	-1.6834863882	-4.4045895302	-0.166077501	-0.287772
C	-2.3662038515	-4.3137537072	-1.5178578248	-0.287291
H	 0.6888096919	 1.7682244612	 0.1161163194	 0.099565
H	-0.4805965946	 1.6964681307	-1.2282155197	 0.104764
H	-1.062217082	 1.7353389326	 0.4582784103	 0.126259
H	 0.5549958742	-0.3646887607	-1.9721147419	 0.095968
H	 1.685783449	-0.3825668313	-0.59638143	 0.081485
H	 1.4124535833	-2.6565326952	-1.2480687442	 0.083472
H	 0.4606205209	-2.4636898387	 0.2446594938	 0.101846
H	-0.1726315236	-4.5854102529	-1.8040393043	 0.077883
H	-1.4526393905	-5.383024364	 0.2408537976	 0.109669
H	-1.9518694867	-3.6534021943	 0.5683509456	 0.125677
H	-3.0707209003	-3.5023814658	-1.6594976097	 0.127371
H	-2.6074933905	-5.2277892781	-2.0485145484	 0.111557
38.4616	68.8748	82.7884	147.3854	189.3655	237.1089	288.3469	320.0171	408.9011	438.2349	562.0595	756.5685	816.3258	820.5648	870.2304	906.143	975.7834	1002.7895	1050.0906	1056.3051	1072.8642	1111.8602	1130.2607	1138.2025	1171.1821	1187.8271	1194.3386	1207.0062	1228.2921	1244.5451	1262.9414	1303.2477	1372.9094	1414.0561	1443.2603	1452.0944	1479.1196	1485.4691	1494.6437	1498.3472	1509.6977	1521.8277	2948.9871	2964.9564	2973.0568	2990.4325	3008.2348	3023.0956	3080.479	3112.7298	3134.5237	3141.9315	3220.1533	3235.0207
COCCOC1CC1	COCCOC1CC1	
InChI=1S/C6H12O2/c1-7-4-5-8-6-2-3-6/h6H,2-5H2,1H3	InChI=1S/C6H12O2/c1-7-4-5-8-6-2-3-6/h6H,2-5H2,1H3
