17
gdb 52767	2.18846	1.13363	0.98295	2.1421	74.5	-0.2223	0.0254	0.2477	1313.873	0.131942	-458.904892	-458.8946	-458.893656	-458.941059	36.521	
C	-0.1199016141	 1.4444332314	 0.0837138117	-0.501948
C	-0.0777258896	-0.0100629956	 0.0571104306	 0.052884
C	-0.017157682	-1.2152696129	 0.0465303848	 0.054591
C	 0.0428473373	-2.649845617	 0.0168276141	 0.078433
O	 0.9431579258	-3.2442087821	-0.8790685667	-0.436956
C	-0.304856292	-3.4601381015	 1.2809485213	 0.038583
O	-0.6733931299	-2.8318498209	 2.4548372248	-0.423182
C	-1.2709211981	-3.4133663821	 0.1264906471	-0.004008
O	-2.4394268109	-2.6936695211	 0.387254051	-0.42735
H	 0.886345485	 1.8638959164	 0.1918405363	 0.15577
H	-0.555497552	 1.8542440512	-0.8341342693	 0.150921
H	-0.7182141485	 1.8037520086	 0.9280803172	 0.155481
H	 1.8337684476	-3.0851870437	-0.5450756341	 0.288648
H	 0.2906785385	-4.3574015705	 1.4247160903	 0.111794
H	-1.574500845	-2.5071351584	 2.3061499299	 0.292576
H	-1.3878068255	-4.2711448995	-0.5304948865	 0.116533
H	-2.3682851866	-1.8370317025	-0.0548530626	 0.297229
28.2704	80.5109	86.9322	207.8075	223.8827	252.4092	274.5433	283.3075	322.838	348.6556	381.6899	448.9113	499.1541	572.9457	610.7941	619.2513	674.1203	853.1574	869.0776	947.4406	1043.4017	1050.6683	1054.493	1069.3433	1126.2038	1157.8201	1204.6052	1302.41	1325.98	1337.1752	1352.6894	1386.1144	1413.7532	1445.1049	1474.4344	1478.3267	2350.5059	3027.906	3088.9437	3091.7472	3142.7504	3154.5325	3712.0685	3749.9503	3789.1118
CC#CC1(O)C(O)C1O	CC#C[C@@]1(O)[C@@H](O)[C@H]1O	
InChI=1S/C6H8O3/c1-2-3-6(9)4(7)5(6)8/h4-5,7-9H,1H3	InChI=1S/C6H8O3/c1-2-3-6(9)4(7)5(6)8/h4-5,7-9H,1H3/t4-,5+,6+
