18
gdb 67646	3.31494	1.81505	1.61145	0.9851	73.91	-0.2018	0.071	0.2728	902.3714	0.149635	-401.879225	-401.872594	-401.87165	-401.909867	27.523	
C	-0.0187309351	 1.5373644151	 0.0447442066	-0.522652
C	-0.0092523805	 0.0400129391	-0.0046177098	 0.295115
C	 1.0510690745	-0.8706615126	-0.541374878	 0.040144
O	 0.5764252831	-1.7437517447	-1.5385097261	-0.260784
C	-0.7533338777	-2.0684200622	-1.1546322232	 0.061031
C	-0.7220769585	-2.9981868336	 0.0742488045	-0.183924
N	-0.6987333256	-1.7956408535	 0.9831013193	-0.142837
C	 0.5866006534	-1.0537936399	 0.8965660961	-0.133771
C	-1.1947036368	-0.9228652614	-0.1550030319	-0.094646
H	 0.9804453408	 1.9274051565	 0.2641816782	 0.123543
H	-0.3336952577	 1.9608687289	-0.9162715914	 0.126311
H	-0.6989332401	 1.9133013118	 0.8166784606	 0.127218
H	 2.0581206542	-0.5180683193	-0.7296966207	 0.106116
H	-1.3289105044	-2.3297047931	-2.0450846419	 0.078238
H	-1.6513769705	-3.5531288359	 0.2364499945	 0.1049
H	 0.1355356593	-3.6716358722	 0.1476965015	 0.110994
H	 1.2523727142	-0.9921404807	 1.7521185792	 0.089258
H	-2.2292148526	-0.581846572	-0.1250792073	 0.075746
185.8721	207.2827	246.6408	345.1779	424.7315	548.5106	602.0805	639.2226	692.4907	724.3483	814.0304	844.54	852.7637	889.7249	903.7317	929.8064	944.3491	957.1521	982.7036	1018.5302	1050.0038	1068.5023	1085.3531	1103.4389	1129.1537	1170.9297	1195.928	1204.2163	1218.405	1228.2657	1266.0562	1286.7644	1299.1743	1352.833	1415.8528	1461.3961	1483.5866	1486.9939	1498.2476	3024.6136	3048.1697	3085.5392	3088.8921	3097.7747	3113.0045	3118.4385	3151.6292	3195.3696
CC12C3OC4CN(C13)C24	C[C@@]12[C@@H]3O[C@H]4CN([C@H]13)[C@@H]24	
InChI=1S/C7H9NO/c1-7-4-3-2-8(4)5(7)6(7)9-3/h3-6H,2H2,1H3	InChI=1S/C7H9NO/c1-7-4-3-2-8(4)5(7)6(7)9-3/h3-6H,2H2,1H3/t3-,4+,5-,6+,7-/m0/s1
