21
gdb 10346	2.04732	1.93622	1.14717	3.5669	76.18	-0.2303	0.0369	0.2672	1139.0813	0.186945	-366.304261	-366.294191	-366.293246	-366.339473	35.596	
C	-0.0446566852	 1.4967621702	-0.1182461408	-0.375595
C	-0.1098600491	-0.0314823065	-0.1816488233	-0.151793
N	-1.4612983648	-0.5546588433	 0.0302497058	-0.066122
C	-2.2887263492	-0.782072309	-1.1483818409	-0.163484
C	-2.025318438	-2.1262834931	-1.8377861215	-0.373389
C	-1.8655340175	-0.7692816066	 1.3231256468	 0.400127
C	-3.27043358	-1.3170286618	 1.5438387612	-0.50474
O	-1.1310995022	-0.52774088	 2.2693870935	-0.384312
H	 0.9757646478	 1.8432356344	-0.3116892975	 0.113782
H	-0.7036119736	 1.95880821	-0.8612181516	 0.109568
H	-0.3429291351	 1.8413281102	 0.874751855	 0.145199
H	 0.2411240786	-0.3904864735	-1.1548658576	 0.095404
H	 0.5346426996	-0.4586634919	 0.5888026406	 0.13726
H	-3.3420552525	-0.7069990831	-0.8713109811	 0.11822
H	-2.1038451154	 0.0366591848	-1.8545054613	 0.111165
H	-0.9780677305	-2.2177120312	-2.141299071	 0.126822
H	-2.2539902556	-2.9619258076	-1.169435869	 0.125841
H	-2.6460462734	-2.2237719524	-2.7343824203	 0.117977
H	-3.4682444261	-2.2212245052	 0.9609869825	 0.132184
H	-3.363985562	-1.5446284606	 2.6051807559	 0.146692
H	-4.0320006258	-0.5759111138	 1.2780533446	 0.139191
64.4203	79.8618	105.6464	127.1915	177.7395	213.03	230.4346	320.982	322.157	403.8488	441.3268	493.4607	584.1002	612.3602	706.2471	780.0529	786.4041	914.0165	947.7514	995.338	1047.0255	1047.8077	1086.1388	1101.6549	1116.8227	1188.8365	1253.2349	1301.0274	1343.753	1381.362	1386.4293	1399.8941	1408.9083	1411.3587	1452.482	1469.4242	1476.4164	1487.326	1489.3104	1492.2979	1498.5785	1505.7383	1512.16	1749.6846	3031.4501	3036.8704	3038.2207	3043.3687	3050.6563	3097.1919	3098.0623	3107.0412	3110.8744	3118.1658	3120.3455	3133.156	3159.8515
CCN(CC)C(C)=O	CCN(CC)C(=O)C	
InChI=1S/C6H13NO/c1-4-7(5-2)6(3)8/h4-5H2,1-3H3	InChI=1S/C6H13NO/c1-4-7(5-2)6(3)8/h4-5H2,1-3H3
