18
gdb 96889	3.73012	0.87432	0.74482	1.9441	81.59	-0.2492	0.0282	0.2774	1521.043	0.145318	-401.912124	-401.90258	-401.901636	-401.947448	33.925	
C	 0.3286915378	 1.5250213421	 0.2354863078	-0.339883
N	 0.3916200366	 0.0696203958	 0.2373863678	-0.323754
C	 0.4594224199	-0.5390918219	-0.8507056532	 0.468026
C	 0.5474934652	-1.992404517	-1.2614322806	-0.411875
C	 0.590861044	-1.4157648008	-2.6935720251	 0.139919
C	-0.5749444485	-1.7587357072	-3.6177001544	-0.366909
C	-0.5555582795	-1.0072287475	-4.8661065036	 0.299243
C	-0.5176395152	-0.3868565451	-5.8940065841	-0.431134
O	 0.4894824055	-0.0598651075	-2.1563618232	-0.270365
H	 1.1629886594	 1.9188051481	 0.8262385648	 0.127373
H	 0.3611721288	 1.9744335913	-0.76369861	 0.128354
H	-0.5931234497	 1.8434353805	 0.7346892756	 0.127335
H	 1.4443527953	-2.5148007023	-0.9253838247	 0.137474
H	-0.3339836549	-2.5914853863	-1.0215409109	 0.133441
H	 1.5452928856	-1.53548389	-3.2133336114	 0.105293
H	-0.5336417204	-2.8358405633	-3.8294018972	 0.137842
H	-1.5147279924	-1.5784366306	-3.0808432435	 0.139089
H	-0.4936117777	 0.1655898817	-6.8004821042	 0.200529
55.6131	82.8956	85.6021	129.3034	204.1651	226.7643	322.616	343.6543	382.3246	488.9097	544.0917	562.3325	625.009	648.6451	710.488	826.8859	875.6319	933.3168	971.8594	990.3262	1022.6601	1054.5308	1096.9498	1111.297	1133.8981	1146.7693	1185.0604	1235.7888	1245.3655	1285.3157	1343.86	1393.9646	1440.0642	1455.5129	1467.7252	1494.7905	1497.8668	1852.5181	2244.2691	3018.3163	3018.4463	3054.2776	3079.7322	3081.4368	3083.307	3089.1124	3136.8394	3507.0626
CN=C1CC(CC#C)O1	CN=C1C[C@@H](CC#C)O1	
InChI=1S/C7H9NO/c1-3-4-6-5-7(8-2)9-6/h1,6H,4-5H2,2H3	InChI=1S/C7H9NO/c1-3-4-6-5-7(8-2)9-6/h1,6H,4-5H2,2H3/t6-/m1/s1
