17
gdb 35466	3.26391	1.50313	1.40279	4.8864	75.49	-0.2454	-0.0008	0.2446	969.5941	0.139636	-380.872917	-380.866082	-380.865138	-380.904103	27.741	
N	-0.0781926913	-1.163631048	-0.2140019024	-0.334083
C	-0.0501401384	-0.01671786	-0.0752785104	 0.312843
C	-0.0073900302	 1.4458273336	 0.0476608696	-0.159824
N	-0.5687293196	 1.9206691257	 1.3426458382	-0.290757
C	 0.524655971	 2.7797513968	 1.9191878388	-0.052031
C	 1.1633911161	 3.4131302282	 0.6634878823	-0.221431
C	 1.4609339639	 2.0255713666	 0.0464755076	-0.071352
C	 2.1778299318	 1.3550637954	 1.2101251857	-0.076915
C	 1.6223194732	 1.8120122089	 2.3357315455	-0.038973
H	-0.5615406952	 1.8591978001	-0.8031574781	 0.119358
H	-1.3833059992	 2.4960737338	 1.1555349213	 0.226141
H	 0.1261517051	 3.4384906321	 2.6895174148	 0.0754
H	 0.4626201589	 4.0209080957	 0.0809555201	 0.090247
H	 2.0740372675	 3.9801338526	 0.8644933712	 0.110746
H	 1.9429443512	 1.9828610957	-0.9288205514	 0.084332
H	 2.9180054714	 0.5733769752	 1.1037793505	 0.116421
H	 1.806094834	 1.4825392978	 3.3493673368	 0.109878
109.6594	159.2225	312.9097	384.9077	454.8793	492.9684	522.2634	572.7116	671.7645	742.2536	770.6831	791.6916	829.996	860.8745	883.359	921.8115	945.5308	950.1983	966.8326	982.9451	996.642	1042.4503	1061.4979	1124.6461	1137.7251	1187.5491	1196.7665	1272.2668	1276.9833	1287.0393	1305.3012	1345.1223	1364.411	1424.343	1494.16	1644.5728	2358.1369	3034.9876	3049.5281	3122.9093	3129.8784	3134.532	3213.7285	3238.0378	3522.2814
N#CC1NC2CC1C=C2	N#C[C@H]1N[C@@H]2C[C@H]1C=C2	
InChI=1S/C7H8N2/c8-4-7-5-1-2-6(3-5)9-7/h1-2,5-7,9H,3H2	InChI=1S/C7H8N2/c8-4-7-5-1-2-6(3-5)9-7/h1-2,5-7,9H,3H2/t5-,6+,7-/m1/s1
