20
gdb 96488	2.63597	1.42292	1.00675	1.4337	76.97	-0.2374	0.0209	0.2582	1203.5618	0.171847	-440.276646	-440.267963	-440.267019	-440.31027	32.736	
C	-0.2886954886	 1.510809941	 0.0536882377	-0.398157
C	-0.0361820002	 0.0073077551	 0.0099860583	 0.125839
C	 0.8486201731	-0.3820036757	-1.2009399826	-0.186733
N	 0.5572632577	-1.6841531339	-1.7722672362	-0.262242
C	 0.8192776184	-2.8212557082	-1.2998930946	 0.132797
O	 1.424023688	-3.2793441227	-0.1741603146	-0.225994
C	 1.8218458232	-2.4352335267	 0.9091892848	-0.088025
C	 0.6719513953	-1.6770706471	 1.5964278394	-0.089541
O	 0.5611674149	-0.3174834629	 1.2581777363	-0.247569
H	 0.6590991702	 2.0581498104	 0.0861934943	 0.123612
H	-0.8453848	 1.8329326234	-0.8305143805	 0.119858
H	-0.8627225096	 1.7702611767	 0.9464461196	 0.123857
H	-0.9943284526	-0.5281436435	-0.0858552163	 0.07846
H	 0.6599974863	 0.3457435971	-1.9970013625	 0.105234
H	 1.8987304244	-0.2534318657	-0.9109741905	 0.107688
H	 0.5253419391	-3.7013719574	-1.8743442634	 0.118401
H	 2.2624023272	-3.1386791335	 1.6204676739	 0.119194
H	 2.603496277	-1.7330359162	 0.6047745354	 0.124832
H	-0.2687867359	-2.2217509906	 1.4171256882	 0.105106
H	 0.8612583621	-1.6852462395	 2.6750851733	 0.113382
45.3219	179.3015	191.4316	222.4143	243.6706	290.607	311.406	358.4754	456.1238	491.1518	520.9792	572.8511	725.8072	809.1109	846.3468	886.8376	940.8639	959.5001	971.8625	980.9929	1036.5655	1069.1615	1108.8501	1125.0527	1150.1647	1157.4859	1192.5537	1252.0717	1279.2374	1327.835	1336.9947	1377.4602	1385.8735	1402.1918	1410.1064	1417.0049	1448.5503	1478.1018	1484.6886	1488.6576	1499.5802	1522.6862	1768.9833	2979.5065	2986.5891	3026.3003	3043.2549	3055.9691	3063.5124	3074.3399	3108.3183	3115.4333	3124.9689	3128.9669
CC1CN=COCCO1	C[C@H]1CN=COCCO1	
InChI=1S/C6H11NO2/c1-6-4-7-5-8-2-3-9-6/h5-6H,2-4H2,1H3/b7-5-	InChI=1S/C6H11NO2/c1-6-4-7-5-8-2-3-9-6/h5-6H,2-4H2,1H3/b7-5-/t6-/m0/s1
