20
gdb 102135	2.42387	0.83476	0.64366	4.3693	89.16	-0.26	0.0258	0.2858	1745.3165	0.168482	-366.016963	-366.00591	-366.004966	-366.055389	37.57	
C	 0.8124631008	-0.2710266889	 1.3220350718	-0.388326
C	 0.0985502011	-0.1065512217	-0.0201511073	-0.176208
C	-1.3473548606	-0.6527059583	-0.0131068467	-0.169837
C	-2.0834376587	-0.3444888677	-1.3502192539	-0.344264
C	-2.2226484553	 1.0877209168	-1.6043942563	 0.261876
N	-2.3304198814	 2.2237400519	-1.7881898357	-0.314027
C	-1.3946415192	-2.0925742264	 0.23523765	 0.054539
C	-1.4302540888	-3.2839841732	 0.4093209489	 0.092126
C	-1.4770311605	-4.7216829454	 0.6364150659	-0.49948
H	 1.8310669022	 0.1241806305	 1.2701887895	 0.117923
H	 0.2865522323	 0.2679498973	 2.1177831544	 0.118158
H	 0.869912037	-1.324408975	 1.6111862073	 0.129387
H	 0.0601112738	 0.9538983463	-0.2932549226	 0.124007
H	 0.6609015519	-0.6198681658	-0.8096853455	 0.10368
H	-1.8984013147	-0.1389726319	 0.7866253492	 0.119122
H	-1.5386640411	-0.8034128276	-2.1824309484	 0.157374
H	-3.0799877476	-0.7961815314	-1.3342209176	 0.159192
H	-2.3033594951	-5.1838346731	 0.0853836929	 0.150947
H	-0.5499529207	-5.2066691023	 0.3120487105	 0.151215
H	-1.6178625754	-4.950754344	 1.6983347735	 0.152596
15.8398	63.8882	78.5477	94.3865	133.6249	180.5098	232.8712	241.6243	290.5582	330.5528	390.4826	398.0663	477.7749	523.547	564.1615	724.1006	818.6639	840.7349	938.4708	960.8389	1010.0151	1048.7138	1053.1192	1055.4087	1100.1996	1115.7557	1178.8246	1228.0044	1277.198	1301.8023	1331.6902	1372.4706	1376.7374	1413.3775	1415.1043	1464.3569	1477.59	1478.3727	1486.8877	1497.8679	1507.352	2359.6076	2368.4969	3010.9392	3028.7339	3031.873	3037.2982	3054.4222	3073.6567	3090.3545	3090.7888	3096.7514	3105.1729	3117.0608
CCC(CC#N)C#CC	CC[C@@H](CC#N)C#CC	
InChI=1S/C8H11N/c1-3-5-8(4-2)6-7-9/h8H,4,6H2,1-2H3	InChI=1S/C8H11N/c1-3-5-8(4-2)6-7-9/h8H,4,6H2,1-2H3/t8-/m1/s1
