19
gdb 100164	2.47684	0.94763	0.85692	3.5632	82.27	-0.2446	-0.0329	0.2117	1491.3588	0.154001	-423.011152	-422.999777	-422.998833	-423.048882	38.691	
C	-0.2607066959	 1.6250790385	 0.0285383306	-0.403974
C	-0.0682467073	 0.1068092328	 0.0311892836	-0.193511
C	 0.667187466	-0.4205963149	-1.2179666241	 0.085325
O	 0.1038373741	 0.0751608386	-2.4352422759	-0.456723
C	 2.138374551	 0.0531719234	-1.2600619785	 0.157978
O	 2.7758168976	 0.3862034322	-0.2996893564	-0.246466
C	 0.7223242604	-1.8855705909	-1.2282111517	 0.035593
C	 0.7732999347	-3.0897462813	-1.2549890299	 0.07625
C	 0.8339498417	-4.5432795998	-1.2790485122	-0.501822
H	 0.6998607583	 2.1456191498	 0.0689708374	 0.134012
H	-0.7883181709	 1.9487810519	-0.872003606	 0.125891
H	-0.8448030604	 1.9336401759	 0.90035257	 0.110366
H	 0.5084622456	-0.2061204716	 0.9068631586	 0.124747
H	-1.0378292296	-0.4010517841	 0.0856578419	 0.094748
H	-0.6267215453	-0.5039882185	-2.6755407276	 0.288613
H	 2.5543348666	 0.0386924281	-2.2895288044	 0.099329
H	 1.0168357572	-4.9159587239	-2.2925195983	 0.155302
H	 1.6425026011	-4.9105203251	-0.6378752628	 0.160011
H	-0.1017034749	-4.9866512112	-0.9216728244	 0.154331
30.3501	71.1731	90.0649	97.9045	143.0602	197.4817	211.7589	239.7719	275.2682	291.4266	318.6847	363.1371	413.95	486.0809	522.78	595.6375	714.0288	795.9154	853.8341	963.5469	982.3038	1027.4046	1050.0198	1053.5319	1083.4769	1130.9742	1157.9289	1197.333	1286.2598	1348.3416	1362.2897	1402.2053	1406.4081	1413.16	1471.2193	1475.1949	1476.1176	1497.3706	1510.4389	1840.913	2355.4148	2918.7138	3031.2472	3042.9282	3049.4175	3091.7647	3094.1625	3095.657	3117.4075	3131.2417	3821.9945
CCC(O)(C=O)C#CC	CC[C@@](O)(C=O)C#CC	
InChI=1S/C7H10O2/c1-3-5-7(9,4-2)6-8/h6,9H,4H2,1-2H3	InChI=1S/C7H10O2/c1-3-5-7(9,4-2)6-8/h6,9H,4H2,1-2H3/t7-/m0/s1
