17
gdb 43285	3.09838	1.60263	1.10087	3.3943	84.74	-0.2257	-0.0625	0.1632	1065.0556	0.138459	-384.735832	-384.728865	-384.72792	-384.767228	27.7	
O	-0.112551659	-0.0312567778	-0.3080402571	-0.329295
C	-0.053458089	 1.1591141059	-0.1043596119	 0.342662
C	-1.2025497587	 2.1060719415	 0.0243783594	-0.189748
C	-0.7833598103	 3.3180077883	 0.4584555778	-0.183583
C	 0.6534547767	 3.299625764	 0.6579416393	 0.335975
C	 1.5673111644	 3.9256978436	 1.4077428452	-0.219332
C	 2.856565383	 3.1217267814	 1.4372029597	-0.248171
C	 2.411474395	 1.7083284898	 0.9460135908	-0.24453
C	 1.2015321904	 2.0292959733	 0.0522128223	-0.166962
H	-2.2269846835	 1.7989907038	-0.144895173	 0.119043
H	-1.4267829943	 4.1575429229	 0.6972712978	 0.12026
H	 1.4187781765	 4.8362400311	 1.9766264253	 0.101612
H	 3.6160206659	 3.5580210324	 0.7714241191	 0.112969
H	 3.3055146427	 3.0949977642	 2.4360338088	 0.111167
H	 3.2046067004	 1.1633972878	 0.4301025577	 0.108174
H	 2.0945639664	 1.1049273779	 1.8030333578	 0.116208
H	 1.5370296735	 2.2342840798	-0.9775943188	 0.113551
113.9011	190.1971	236.9858	332.7441	342.9358	520.0606	571.5552	616.3282	634.3226	675.3146	739.5818	792.064	823.7521	863.1651	889.445	907.6639	950.4866	970.0703	991.0046	1004.9761	1056.4177	1098.5799	1136.6148	1164.2204	1186.8515	1215.3046	1239.0477	1269.1493	1304.3755	1330.2161	1339.625	1364.0341	1479.5272	1497.5337	1576.6725	1705.5618	1811.3985	2980.0228	3000.6637	3053.6344	3067.5843	3114.5848	3194.0222	3199.5616	3224.5121
O=C1C=CC2=CCCC12	O=C1C=CC2=CCC[C@@H]12	
InChI=1S/C8H8O/c9-8-5-4-6-2-1-3-7(6)8/h2,4-5,7H,1,3H2	InChI=1S/C8H8O/c9-8-5-4-6-2-1-3-7(6)8/h2,4-5,7H,1,3H2/t7-/m1/s1
