15
gdb 124814	2.64412	1.40734	1.01029	2.9253	63.05	-0.2752	-0.0427	0.2326	1134.9587	0.111244	-491.040174	-491.031653	-491.030709	-491.073773	30.93	
C	 0.0516735267	 1.4793990398	-0.2031007987	-0.405208
C	 0.1171456458	-0.0159755371	 0.1457659835	 0.031132
O	 0.7061276294	-0.2423714036	 1.4084886675	-0.422663
C	-1.2476716659	-0.6441789236	 0.0523216806	 0.268372
N	-1.9077561214	-1.0492808811	 1.0989041557	-0.163246
O	-3.1099559867	-1.5224561385	 0.6513981675	-0.16583
N	-3.2039363056	-1.4125310806	-0.7172498077	-0.180748
C	-2.0765424382	-0.8770278447	-1.0888718967	 0.32441
O	-1.7451417199	-0.5901951496	-2.3535837886	-0.412033
H	 1.0555411624	 1.9060984646	-0.1416090122	 0.134856
H	-0.3363881507	 1.6299440599	-1.2152945022	 0.131682
H	-0.597750831	 2.0077066044	 0.5022065626	 0.123687
H	 0.7674334477	-0.5136629284	-0.5850182534	 0.114704
H	 0.0171871603	-0.169430158	 2.0795087879	 0.298795
H	-2.4771007628	-0.8496478337	-2.929006906	 0.322089
49.8602	146.0668	167.1451	247.406	263.2458	302.4041	326.7368	383.6324	430.8013	499.1115	544.2236	616.208	649.7301	761.159	777.3898	910.42	922.4833	953.0291	1030.4118	1061.577	1096.0574	1127.9864	1217.826	1239.9073	1322.6729	1350.3078	1399.1391	1433.7133	1486.954	1492.6371	1495.3711	1576.0818	1645.7953	3031.9603	3040.4202	3116.1471	3131.3851	3786.3815	3796.49
CC(O)C1=NON=C1O	C[C@@H](O)c1nonc1O	
InChI=1S/C4H6N2O3/c1-2(7)3-4(8)6-9-5-3/h2,7H,1H3,(H,6,8)	InChI=1S/C4H6N2O3/c1-2(7)3-4(8)6-9-5-3/h2,7H,1H3,(H,6,8)/t2-/m1/s1
