19
gdb 108837	3.44163	1.1185	0.9593	2.482	76.87	-0.2436	-0.0062	0.2374	1281.118	0.159118	-423.012871	-423.004287	-423.003343	-423.046404	32.549	
C	-0.2877769075	 1.5357315596	-0.0545645617	-0.376656
C	 0.1115382631	 0.0513276219	 0.0311072505	-0.296706
C	 0.8405577218	-0.4364904814	-1.1846787141	 0.337716
C	 2.1038779184	-0.8653733288	-1.2784679997	-0.249306
C	 2.4811804196	-1.3258568348	-2.6799494612	 0.089718
O	 2.8955455155	-2.6816696041	-2.7268406455	-0.434744
C	 1.1872065561	-1.0802448779	-3.4663507943	-0.001454
O	 0.1265626762	-1.9317626902	-3.0080610081	-0.270052
C	 0.186922899	-0.5569590917	-2.5363754059	-0.064586
H	 0.5959479975	 2.1718737332	-0.1630354132	 0.123846
H	-0.9445026877	 1.7278437523	-0.9094047183	 0.119635
H	-0.8221939004	 1.8447802093	 0.8486520451	 0.119183
H	 0.7382135346	-0.1080893188	 0.9151052848	 0.108117
H	-0.7947991352	-0.5528499741	 0.1745548771	 0.113683
H	 2.7936388449	-0.9768118223	-0.4486244805	 0.10204
H	 3.3135473388	-0.7462738035	-3.0953520561	 0.09109
H	 2.1069775764	-3.1971325056	-2.5108629595	 0.287558
H	 1.201299347	-0.8777479039	-4.5330887942	 0.101022
H	-0.6525018781	 0.0614729807	-2.8388520452	 0.099894
62.9444	116.736	169.5323	200.0488	243.1612	285.6532	389.1155	454.5062	487.7001	556.6567	583.7966	635.5423	761.6217	787.8032	811.4689	856.8365	875.9644	888.9015	923.1858	966.2534	999.8972	1051.7192	1065.22	1075.4058	1095.0162	1109.5113	1185.1554	1249.7382	1255.7267	1271.0044	1291.087	1302.3408	1351.0938	1362.9091	1408.9853	1419.429	1433.2107	1480.0457	1499.379	1506.3713	1700.5593	3015.1405	3037.4841	3048.57	3067.2772	3107.2119	3113.3457	3156.5387	3169.5194	3191.9245	3766.6471
CCC1=CC(O)C2OC12	CCC1=C[C@@H](O)[C@H]2O[C@@H]12	
InChI=1S/C7H10O2/c1-2-4-3-5(8)7-6(4)9-7/h3,5-8H,2H2,1H3	InChI=1S/C7H10O2/c1-2-4-3-5(8)7-6(4)9-7/h3,5-8H,2H2,1H3/t5-,6+,7-/m1/s1
