15
gdb 11226	4.80078	1.41068	1.2112	1.3958	68.33	-0.2519	0.0188	0.2708	998.2507	0.118138	-362.649422	-362.641535	-362.640591	-362.682304	28.159	
C	 0.0578819302	 1.5303774655	-0.0519877902	-0.471575
C	-0.0369312394	 0.0434880137	-0.0461367735	 0.414195
N	-1.0559602401	-0.6419858648	 0.2820922237	-0.299682
C	-0.6769700616	-2.064465585	 0.1239686227	-0.170009
C	 0.8135794042	-2.0111623678	-0.3468054872	-0.123033
O	 1.0954141279	-0.6028593796	-0.440946795	-0.250034
C	-0.8633642294	-2.8284669869	 1.3537580309	 0.344909
C	-0.9888996231	-3.477111427	 2.3571914664	-0.466953
H	 0.8622198546	 1.8583995721	 0.61364691	 0.148498
H	 0.2994408613	 1.8899489528	-1.0569772705	 0.146709
H	-0.888218864	 1.9595246122	 0.2750234914	 0.155526
H	-1.3122254239	-2.5035765659	-0.6553504173	 0.117674
H	 1.4986452825	-2.4609358934	 0.3750880735	 0.130812
H	 0.967195622	-2.4643320079	-1.3290634297	 0.122405
H	-1.1138426113	-4.042846878	 3.2472225647	 0.20056
43.2579	138.8399	145.1369	193.4886	271.5335	339.13	480.5573	523.421	605.1934	625.2289	651.7201	678.4551	745.6555	845.6169	920.4714	986.5223	1006.4692	1029.8016	1063.7572	1071.6474	1094.3473	1220.0672	1248.2972	1292.4666	1346.8893	1379.5587	1414.4355	1475.0988	1475.5178	1520.9458	1737.1298	2240.8226	3022.1446	3052.8851	3066.116	3111.1307	3119.7519	3169.0721	3503.8186
CC1=NC(CO1)C#C	CC1=N[C@@H](CO1)C#C	
InChI=1S/C6H7NO/c1-3-6-4-8-5(2)7-6/h1,6H,4H2,2H3	InChI=1S/C6H7NO/c1-3-6-4-8-5(2)7-6/h1,6H,4H2,2H3/t6-/m1/s1
