20
gdb 112288	3.59935	1.13767	0.95872	2.5515	79.17	-0.239	-0.0215	0.2175	1268.3079	0.171341	-403.156131	-403.147641	-403.146697	-403.189359	32.568	
C	-0.1548699639	 1.5336310929	 0.096745911	-0.381499
C	 0.03127227	 0.014752876	 0.0378178078	-0.185066
C	 0.7197547665	-0.4663165694	-1.237882379	 0.059289
C	 1.0006568589	-1.9804689572	-1.3105402128	-0.391067
C	 0.8596971016	-2.3160034821	-2.8041184845	 0.421607
O	 1.3480392458	-3.2518099488	-3.3832802656	-0.323287
C	 0.0533789695	-1.2110632725	-3.4197122042	-0.139276
C	-1.2281061395	-0.914402505	-2.7026141459	-0.249149
N	-0.0530560053	-0.0905599845	-2.4657863063	-0.095269
H	 0.8109925044	 2.0493879413	 0.0628841833	 0.116129
H	-0.7482699554	 1.8890185902	-0.7495658654	 0.136408
H	-0.659844708	 1.8308826958	 1.0206317164	 0.111243
H	 0.6297152943	-0.3219800701	 0.8933599423	 0.102564
H	-0.941070998	-0.4867234613	 0.1321707039	 0.09498
H	 1.6728075145	 0.0672546339	-1.3416398032	 0.09074
H	 1.9963442072	-2.2552595454	-0.9584960469	 0.136088
H	 0.2820339393	-2.5768517805	-0.7348889224	 0.128359
H	 0.1694215373	-0.9988888403	-4.4767570153	 0.113917
H	-2.0267035174	-0.4294045813	-3.2556714634	 0.131242
H	-1.5657251021	-1.6128709517	-1.9406144799	 0.122047
78.0649	119.5227	175.5721	202.8626	243.7839	325.0258	365.6382	464.8749	498.3018	540.7391	603.7226	663.4879	722.3837	792.459	810.2698	854.0168	891.489	921.6242	955.9183	982.9759	1010.8387	1064.8634	1067.3158	1099.0001	1116.1322	1134.043	1152.9817	1193.4362	1204.0991	1239.0456	1260.1864	1298.7367	1322.993	1337.1003	1368.6468	1399.8324	1413.2554	1457.8369	1482.6127	1496.1089	1507.0446	1509.2624	1843.7928	3017.8946	3026.6948	3039.2382	3043.7218	3056.9604	3103.7844	3109.866	3120.4988	3123.3045	3179.48	3196.6394
CCC1CC(=O)C2CN12	CC[C@H]1CC(=O)[C@H]2CN12	
InChI=1S/C7H11NO/c1-2-5-3-7(9)6-4-8(5)6/h5-6H,2-4H2,1H3	InChI=1S/C7H11NO/c1-2-5-3-7(9)6-4-8(5)6/h5-6H,2-4H2,1H3/t5-,6+,8?/m0/s1
