25
gdb 57754	2.86345	0.71825	0.67445	0.0634	99.3	-0.2395	0.0631	0.3026	1901.4354	0.225192	-352.353118	-352.341084	-352.34014	-352.393186	43.705	
C	 0.0492128637	 1.4911411801	-0.1768824334	-0.371471
C	 0.0155465705	-0.0305215136	 0.068399713	-0.120666
C	 0.7248028647	-0.3994028815	 1.3865830977	-0.371471
C	-1.3576789257	-0.5389973159	 0.0467871032	 0.021481
C	-2.4928287453	-0.9456174132	 0.0451863852	 0.09659
C	-3.8745197383	-1.44531851	 0.0369270522	 0.08195
C	-3.8634532017	-2.9837540565	-0.1112290949	-0.388913
C	-4.5686771327	-1.0589087921	 1.3626369213	-0.388874
C	-4.6405983254	-0.8174646519	-1.1495888612	-0.388832
H	 1.0832345353	 1.8504317413	-0.2022601113	 0.10896
H	-0.4295217256	 1.7470993623	-1.1257493905	 0.121085
H	-0.4787819704	 2.0211244409	 0.6220861376	 0.121193
H	 0.5668319544	-0.511969666	-0.7519460214	 0.100305
H	 0.7244642577	-1.481227499	 1.5437658151	 0.120917
H	 1.7629703497	-0.0516868753	 1.3711463822	 0.10896
H	 0.2194859855	 0.0662857222	 2.2385183821	 0.121353
H	-3.3251275066	-3.4517945659	 0.7178731095	 0.117681
H	-4.8884034988	-3.3707660277	-0.1188596695	 0.106972
H	-3.3759239616	-3.2825507387	-1.0435825089	 0.117949
H	-4.588373878	 0.0271262479	 1.4907712315	 0.117556
H	-5.6010569409	-1.4255964054	 1.3703328604	 0.106954
H	-4.0434252726	-1.4917763163	 2.2187964214	 0.117749
H	-4.1670843298	-1.0766831233	-2.1008181819	 0.117877
H	-5.6737862697	-1.1815034427	-1.1684358721	 0.106977
H	-4.6614915086	 0.2729885204	-1.0674172973	 0.117718
2.0508	75.9697	85.3392	174.9536	192.4949	216.1955	229.3168	263.4872	272.3894	273.1824	300.8587	350.1241	355.8614	377.9881	487.1541	492.4884	554.7802	572.7364	627.1463	793.3854	877.9936	929.5641	929.753	930.2671	962.9998	963.7039	1011.6958	1049.2776	1049.4379	1120.3884	1130.6695	1193.1855	1223.3288	1223.4467	1290.3175	1326.588	1349.8102	1393.6302	1393.788	1394.3067	1416.2931	1426.5978	1474.1489	1484.8831	1485.0205	1485.4513	1488.9567	1497.854	1498.2652	1498.2975	1509.8272	1517.7152	2353.8009	2999.1645	3029.6327	3029.6657	3033.4984	3036.2825	3037.3938	3101.2427	3101.269	3103.8148	3107.8292	3109.0998	3112.1574	3116.3181	3116.4533	3116.5946	3118.442
CC(C)C#CC(C)(C)C	CC(C)C#CC(C)(C)C	
InChI=1S/C9H16/c1-8(2)6-7-9(3,4)5/h8H,1-5H3	InChI=1S/C9H16/c1-8(2)6-7-9(3,4)5/h8H,1-5H3
