17
gdb 49800	2.63894	1.56691	1.02154	1.8842	79.6	-0.246	-0.025	0.2209	1133.3921	0.138997	-414.211737	-414.203925	-414.202981	-414.244339	29.461	
N	-0.0796707264	 1.2966408394	 0.2703355227	-0.452788
C	-0.0451901956	 0.0401563879	 0.0968562347	 0.078282
N	-1.2051788476	-0.7285707597	-0.022591961	-0.137379
C	-2.4509423303	-0.0793277974	-0.212051647	 0.10785
N	-3.5853880416	-0.6354559343	-0.2860065406	-0.256187
C	-3.6323103507	-2.0886765449	-0.1727225918	-0.167671
C	-2.3511059632	-2.7660530072	-0.6778339339	-0.285067
C	-1.1449002897	-2.1468794472	-0.024275864	 0.376011
N	-0.2120486146	-2.864869162	 0.4536034803	-0.505471
H	 0.8626147389	 1.6804494143	 0.2765902867	 0.238677
H	 0.8609509434	-0.5619284694	-0.011494126	 0.115342
H	-2.3447851227	 0.9987319919	-0.272338285	 0.162201
H	-3.8152280635	-2.3476823888	 0.87978202	 0.12484
H	-4.497485148	-2.4515321424	-0.7353168974	 0.120223
H	-2.3406299635	-3.8382270098	-0.4793532832	 0.135134
H	-2.2781731039	-2.6153688518	-1.7628666871	 0.12764
H	 0.5187256189	-2.3204087887	 0.9114408925	 0.218363
81.1483	146.1302	179.2805	233.7741	289.302	385.9153	437.3835	505.707	546.6806	576.7311	659.3265	743.0339	801.7783	817.2366	876.2547	893.0542	912.8867	967.4868	1023.063	1057.8651	1070.5745	1086.3198	1144.3108	1202.5163	1215.6711	1251.2329	1301.5605	1333.255	1346.6503	1385.2148	1417.7433	1432.3123	1470.6727	1489.9851	1714.285	1736.253	1741.0433	3014.0479	3032.5069	3077.9118	3081.8182	3132.5583	3201.4766	3480.8723	3517.8959
N=CN1C=NCCC1=N	[NH][CH]N1C=NCC[C]1[NH]	
InChI=1S/C5H8N4/c6-3-9-4-8-2-1-5(9)7/h3-4,6-7H,1-2H2	InChI=1S/C5H8N4/c6-3-9-4-8-2-1-5(9)7/h3-4,6-7H,1-2H2
