19
gdb 96509	2.26949	1.65872	1.2074	2.7632	71.59	-0.2566	-0.0074	0.2493	1095.3802	0.159646	-460.185635	-460.177039	-460.176095	-460.219287	32.001	
C	-0.0525418872	 1.5382806753	 0.0658116217	-0.417717
C	-0.0015339225	 0.002577831	 0.0081769534	-0.09173
C	 0.7778723542	-0.4869243675	-1.2309382714	-0.079904
O	 1.2484290709	-1.8248368272	-1.1014572833	-0.255922
C	 2.5750144708	-1.9531663845	-0.6168569801	-0.077944
C	 2.6618621483	-1.7297765597	 0.8930847272	-0.099976
O	 2.0254510114	-0.4839769538	 1.2094427601	-0.261738
C	 0.6453880454	-0.5804770141	 1.251041638	 0.417783
O	 0.0692827074	-1.07850755	 2.1728590655	-0.308502
H	 0.9522397937	 1.9545273511	 0.1865447861	 0.136474
H	-0.479850037	 1.9397133218	-0.8587711145	 0.123519
H	-0.6711921204	 1.8799078455	 0.8997929341	 0.137155
H	-1.0205305444	-0.3944457256	-0.0132460119	 0.106814
H	 0.1137810034	-0.471533731	-2.1019800037	 0.112612
H	 1.6183709548	 0.1899937393	-1.4346704686	 0.09988
H	 2.9050201296	-2.9681797312	-0.8647885698	 0.112995
H	 3.2358013324	-1.2403247566	-1.1325466725	 0.100512
H	 2.1759513499	-2.5399771166	 1.4481471817	 0.129376
H	 3.7031121192	-1.6522348561	 1.2184668979	 0.116311
44.6938	123.3576	215.6091	226.7426	255.2836	279.0671	300.4478	408.7576	443.9829	514.364	560.104	612.8882	760.4109	786.3192	863.4737	895.9972	914.8173	954.1198	979.0929	996.5238	1065.9761	1091.9504	1130.1385	1143.1152	1171.074	1211.6074	1270.6096	1283.3542	1314.5837	1322.5283	1353.4	1388.7917	1395.4176	1405.6862	1420.06	1477.8075	1492.4801	1496.5551	1498.5788	1503.4208	1855.9786	2994.0842	3011.706	3039.2082	3044.7043	3063.3727	3074.8652	3080.891	3106.1346	3109.552	3122.6976
CC1COCCOC1=O	C[C@H]1COCCOC1=O	
InChI=1S/C6H10O3/c1-5-4-8-2-3-9-6(5)7/h5H,2-4H2,1H3	InChI=1S/C6H10O3/c1-5-4-8-2-3-9-6(5)7/h5H,2-4H2,1H3/t5-/m0/s1
