19
gdb 76429	3.04872	1.06118	0.97318	1.9908	77.74	-0.2316	0.033	0.2647	1295.7059	0.155736	-422.972486	-422.962387	-422.961443	-423.007424	37.42	
C	-0.0493980134	 1.4886286779	-0.2201624546	-0.400256
C	 0.0178438986	-0.0122583509	-0.0484086701	-0.124218
C	 1.3413431673	-0.7634751797	-0.1847991878	 0.064071
O	 2.5252981493	-0.0546768947	-0.3651791865	-0.433197
C	 0.6609206358	-0.6488787249	 1.1601272797	 0.344125
O	 1.2849233014	 0.2455369025	 2.0495617663	-0.473885
C	 0.0077013503	-1.8446913078	 1.8402192784	-0.415251
C	 0.9455380366	-2.528380252	 2.7279173203	 0.261617
C	 1.7626677902	-3.0149329393	 3.4646549996	-0.422274
H	 0.9014282101	 1.959572439	 0.033228889	 0.126871
H	-0.2783535555	 1.7396168559	-1.2607289844	 0.119088
H	-0.8252006161	 1.9289158781	 0.4141748479	 0.117346
H	-0.8513683301	-0.5511088207	-0.4206762799	 0.081875
H	 1.3502748582	-1.7163542859	-0.7073288838	 0.095484
H	 2.6983152316	 0.3880652979	 0.4780203911	 0.285949
H	 1.7955172892	-0.2941028908	 2.6701123789	 0.29133
H	-0.8633643387	-1.507112764	 2.4175149959	 0.140241
H	-0.366433363	-2.5372379935	 1.0778354614	 0.136413
H	 2.4643875983	-3.4830295573	 4.1102803084	 0.204672
64.863	101.3996	105.4429	188.76	199.4026	257.7087	264.2463	341.6848	355.4756	367.0189	422.3714	531.5987	553.2307	609.1026	627.3619	631.7779	668.8463	718.7084	829.29	845.9892	924.7726	960.298	995.5541	1029.9871	1073.2409	1092.3958	1140.5335	1152.9104	1205.2357	1225.5805	1293.652	1309.0697	1326.2036	1354.373	1411.917	1416.4408	1460.3534	1478.8614	1489.0129	1505.6816	2230.3484	3021.0419	3042.8613	3066.887	3100.4826	3120.0981	3140.1237	3144.2766	3502.2586	3724.3298	3737.206
CC1C(O)C1(O)CC#C	C[C@H]1[C@@H](O)[C@]1(O)CC#C	
InChI=1S/C7H10O2/c1-3-4-7(9)5(2)6(7)8/h1,5-6,8-9H,4H2,2H3	InChI=1S/C7H10O2/c1-3-4-7(9)5(2)6(7)8/h1,5-6,8-9H,4H2,2H3/t5-,6+,7-/m0/s1
