22
gdb 12513	3.07544	1.71656	1.22077	0.2781	84.15	-0.2226	0.0299	0.2526	1076.9351	0.202312	-313.096347	-313.088153	-313.087209	-313.128573	32.123	
C	-0.158729961	 1.5405187386	 0.0221020115	-0.477375
C	-0.0145084542	 0.04097985	 0.0069906278	 0.341314
C	-0.048108307	-0.6517062693	-1.1348400659	-0.149547
C	 0.0866746871	-2.15055328	-1.2675280911	-0.244771
C	 1.4024030331	-2.7366526054	-0.718186727	-0.172594
C	 1.4935754047	-2.7794142542	 0.812895173	-0.176717
C	 1.4750218156	-1.4203585012	 1.5265200611	-0.174918
C	 0.1680430379	-0.6195737295	 1.3626548526	-0.291247
H	 0.7193414904	 2.0188915383	 0.4765998179	 0.118925
H	-0.2855802181	 1.9493313173	-0.9840270568	 0.115516
H	-1.0223317308	 1.8482047719	 0.6268849378	 0.11952
H	-0.1832972445	-0.0990216261	-2.0627516821	 0.070922
H	-0.7543171586	-2.6512686393	-0.7631820426	 0.099266
H	-0.0013069683	-2.4180756464	-2.3257212801	 0.092456
H	 1.5111774294	-3.7611408168	-1.0957571529	 0.086704
H	 2.2462568591	-2.1642306503	-1.1243661779	 0.092423
H	 0.6633800023	-3.3893359623	 1.1984031376	 0.088132
H	 2.4120374022	-3.309128843	 1.0950947738	 0.088278
H	 1.6396741367	-1.5962324035	 2.5968705696	 0.087869
H	 2.3176898756	-0.8077189846	 1.180524903	 0.092595
H	 0.1301947129	 0.1518991246	 2.1394104572	 0.09053
H	-0.6811379145	-1.2893679887	 1.5652510934	 0.102719
86.6277	173.1425	219.1716	235.8457	302.6194	325.3557	365.6044	383.7615	474.7661	522.7265	611.6775	727.4402	798.6121	816.9292	845.286	863.4817	897.3751	960.23	979.768	1002.8657	1024.2036	1057.1913	1093.6534	1101.752	1112.4282	1145.1488	1189.7695	1242.8947	1245.0195	1288.6402	1303.6885	1349.273	1361.3623	1370.6972	1390.8463	1394.522	1397.8656	1411.6239	1477.991	1479.037	1480.571	1481.7184	1486.501	1492.8448	1496.0004	1736.5267	2987.7754	2996.7768	3000.3044	3007.9087	3014.0359	3015.3806	3045.7223	3051.2106	3053.1645	3059.5583	3060.0365	3063.135	3107.251	3137.4917
CC1=CCCCCC1	CC1=CCCCCC1	
InChI=1S/C8H14/c1-8-6-4-2-3-5-7-8/h6H,2-5,7H2,1H3	InChI=1S/C8H14/c1-8-6-4-2-3-5-7-8/h6H,2-5,7H2,1H3
