20
gdb 17351	4.25652	1.26296	1.07856	2.4605	76.76	-0.2183	0.0716	0.29	1161.8144	0.176709	-345.123912	-345.11514	-345.114196	-345.157846	32.253	
C	-1.4575643044	-0.6298274045	 2.4340548866	-0.393083
C	-0.4730591106	-1.7060123038	 2.0409088501	-0.005882
N	 0.268099412	-1.5179618352	 0.7848276237	-0.34522
C	 1.0115951004	-1.549616782	 2.0616330923	-0.032026
C	 1.7030081424	-0.289341024	 2.4734384691	 0.028373
C	 2.6440461993	-0.2933506409	 3.6333367611	-0.261887
N	 3.1413206499	-0.0730465738	 2.2828697013	-0.084334
C	 3.9621179413	-1.1112517947	 1.6787767495	-0.310743
H	-1.107307123	 0.3597065776	 2.1341732121	 0.131919
H	-2.4219579406	-0.8015326377	 1.9439063125	 0.119108
H	-1.6257382434	-0.6285991769	 3.5164483303	 0.116555
H	-0.8209987039	-2.7167908075	 2.2554756144	 0.079643
H	 0.3741488934	-2.3974112228	 0.2870266669	 0.228898
H	 1.5613422365	-2.4611832296	 2.2864870914	 0.079108
H	 1.123470851	 0.6106461927	 2.2857025861	 0.092705
H	 2.6975808618	 0.5518125895	 4.3151952335	 0.112632
H	 2.8452980292	-1.2600084764	 4.0973957	 0.099394
H	 3.7569889905	-2.1327719868	 2.0370528935	 0.093953
H	 3.8259643705	-1.0941960689	 0.5928739491	 0.128486
H	 5.0131444278	-0.8919492245	 1.8932576864	 0.1224
30.5893	121.42	169.284	195.3571	234.355	245.7072	354.5603	402.6924	437.3714	449.2039	566.6469	742.7626	778.0171	834.9386	856.4515	910.0849	952.9505	985.2814	1003.3992	1033.7503	1046.4311	1089.299	1108.7793	1128.1794	1133.4529	1159.4804	1165.2133	1201.6867	1228.596	1258.599	1277.7512	1335.8165	1339.8752	1405.9652	1437.3597	1448.5746	1475.2538	1488.6182	1492.6819	1502.212	1506.412	1516.8745	2970.743	3036.8756	3064.5088	3076.8246	3094.3965	3096.489	3102.7147	3124.0761	3130.6789	3144.4174	3166.0941	3506.4752
CC1NC1C1CN1C	C[C@H]1N[C@H]1[C@H]1CN1C	
InChI=1S/C6H12N2/c1-4-6(7-4)5-3-8(5)2/h4-7H,3H2,1-2H3	InChI=1S/C6H12N2/c1-4-6(7-4)5-3-8(5)2/h4-7H,3H2,1-2H3/t4-,5-,6-,8?/m1/s1
