22
gdb 61259	3.75406	0.82101	0.71664	4.2141	86.93	-0.3005	0.0374	0.3379	1602.9398	0.194172	-367.229041	-367.219339	-367.218395	-367.264105	35.767	
C	-0.1415134187	 1.5277195842	 0.061484549	-0.407159
C	 0.0109751584	 0.00578363	-0.0416897757	-0.00193
C	 0.7915192899	-0.4020911484	-1.3162724475	-0.34796
C	 0.1246712459	-0.0009175997	-2.5528055263	 0.263549
N	-0.4204229959	 0.3219152075	-3.5196588422	-0.315478
C	 0.6984240537	-0.5807354192	 1.189376517	 0.066306
C	-0.0218892217	-0.4904214985	 2.5657211745	-0.241896
C	 0.5012596605	-1.9150897749	 2.8905463582	-0.218141
C	 0.758844353	-2.1260633672	 1.3743537021	-0.241392
H	 0.8378807476	 2.0152285705	 0.1366015746	 0.11471
H	-0.655098816	 1.9368687066	-0.813222139	 0.140824
H	-0.7182445501	 1.8002731686	 0.9499378203	 0.12452
H	-0.9900489036	-0.4406076639	-0.1152677299	 0.088162
H	 1.7923645864	 0.0473860963	-1.3000051541	 0.145962
H	 0.9331991904	-1.4882436452	-1.3397244685	 0.152201
H	 1.7086544	-0.158486653	 1.274806002	 0.068458
H	 0.2580970962	 0.3247998899	 3.2367026458	 0.100416
H	-1.1101283405	-0.4800382359	 2.4418642172	 0.102261
H	 1.4351819667	-1.8839721268	 3.4585695094	 0.105474
H	-0.1832626652	-2.6051927227	 3.3882700142	 0.101311
H	-0.0907199285	-2.6180342248	 0.8873987568	 0.101845
H	 1.6747086814	-2.6442423236	 1.0792171421	 0.097959
62.7805	93.6872	111.5988	143.7577	187.9345	238.3994	295.2936	342.7729	399.0062	400.025	435.8461	552.7858	649.1345	770.8193	785.5329	857.0229	890.2902	893.5216	936.8307	944.223	954.6118	972.0204	1004.0415	1030.896	1078.0924	1122.0609	1132.3639	1188.0407	1206.2273	1225.129	1252.0642	1259.056	1263.3291	1277.8475	1292.4372	1302.5146	1340.4907	1362.3952	1394.5294	1415.5367	1465.3884	1478.4937	1486.4296	1498.1153	1501.4687	1510.4625	2358.619	3007.8068	3020.493	3031.9996	3038.8039	3041.4937	3048.9289	3061.2899	3079.9394	3096.2894	3100.8228	3102.8209	3117.3307	3119.7902
CC(CC#N)C1CCC1	C[C@@H](CC#N)C1CCC1	
InChI=1S/C8H13N/c1-7(5-6-9)8-3-2-4-8/h7-8H,2-5H2,1H3	InChI=1S/C8H13N/c1-7(5-6-9)8-3-2-4-8/h7-8H,2-5H2,1H3/t7-/m0/s1
