17
gdb 35718	2.39486	1.57495	1.13194	5.3967	72.26	-0.2456	0.0214	0.2671	1089.0614	0.136863	-417.963916	-417.955685	-417.954741	-417.997474	29.947	
N	-0.2368799541	-1.1178105201	-0.4506313815	-0.333309
C	-0.1237919196	 0.0021070828	-0.1868829115	 0.295517
C	 0.0005723191	 1.4134196308	 0.1334875734	-0.171194
C	 0.2866347146	 1.8420766215	 1.6032032379	-0.175098
N	 1.3862824546	 2.7403329102	 1.1532424887	-0.311046
C	 1.3253602054	 2.182177476	-0.2255255767	-0.045492
C	 2.5131080201	 1.3102444808	-0.558726844	 0.083821
C	 3.8082831333	 1.5030390232	 0.1032612341	-0.171742
O	 2.9438371689	 0.4230675403	 0.4691477617	-0.226813
H	-0.8696815524	 1.9380646326	-0.2694319005	 0.126214
H	-0.5442746889	 2.3316356063	 2.1169883424	 0.115217
H	 0.6705486665	 1.02824685	 2.2219075782	 0.146168
H	 1.1001531807	 3.7126876784	 1.1663630875	 0.227831
H	 1.1964820717	 2.92515045	-1.0202462808	 0.08816
H	 2.4903745356	 0.8682977713	-1.5561618559	 0.105884
H	 4.720974838	 1.2130427339	-0.4144006707	 0.115728
H	 3.8970313165	 2.2859139621	 0.8518899978	 0.130154
62.9097	99.6179	125.4604	204.9473	254.0299	264.9512	414.9774	526.7915	570.9621	578.8738	711.1325	738.4242	816.0225	868.4273	893.6294	926.7694	955.1896	996.53	1000.2338	1060.4966	1074.7561	1104.4296	1113.1174	1136.2492	1164.6263	1172.9149	1225.8056	1260.4784	1286.5186	1322.3874	1338.58	1357.4738	1401.9246	1436.0936	1502.6583	1512.4033	2355.7957	3044.1158	3063.0926	3076.8448	3094.2565	3104.5595	3121.3103	3195.5459	3539.5409
N#CC1CNC1C1CO1	N#C[C@H]1CN[C@H]1[C@H]1CO1	
InChI=1S/C6H8N2O/c7-1-4-2-8-6(4)5-3-9-5/h4-6,8H,2-3H2	InChI=1S/C6H8N2O/c7-1-4-2-8-6(4)5-3-9-5/h4-6,8H,2-3H2/t4-,5+,6+/m0/s1
