17
gdb 49756	3.73693	1.37146	1.18515	4.0504	75.34	-0.246	-0.0277	0.2183	1046.6238	0.139192	-418.026617	-418.019736	-418.018792	-418.05796	27.274	
O	-0.065055462	-0.0364968442	 0.0375709477	-0.314508
C	-0.017692329	 1.1705483112	 0.0353583003	 0.156071
N	 1.1412756752	 1.9148797747	-0.008507353	-0.059682
C	 2.4115892357	 1.325277223	-0.0558307622	 0.069857
N	 3.4803896727	 2.0155108509	-0.0964017567	-0.254543
C	 3.2667913273	 3.4691841866	-0.0893138554	 0.012778
C	 2.2340259412	 3.8428991404	 1.0180064748	-0.235462
C	 1.1640570599	 3.3798491219	-0.0103114462	-0.007501
C	 2.1538874051	 3.8415372588	-1.1165548623	-0.235464
H	-0.9155683328	 1.8179276198	 0.0683665165	 0.085187
H	 2.4107469025	 0.2404213833	-0.0551139163	 0.158227
H	 4.224965239	 3.9855067221	-0.1256177701	 0.082479
H	 2.2957758042	 3.3122479547	 1.9699522725	 0.115312
H	 2.1809606328	 4.9208555422	 1.1802901014	 0.113286
H	 0.1440912643	 3.7649379753	 0.0277402828	 0.08536
H	 2.0887553606	 4.9192891962	-1.2757744769	 0.113288
H	 2.1441084133	 3.309671633	-2.0697746069	 0.115314
97.9045	244.6379	249.9433	344.9637	404.0061	419.5307	456.5231	605.113	629.4346	728.7344	813.1895	834.5275	871.8936	872.7444	924.3752	945.9176	960.691	1017.0152	1028.0029	1032.7304	1079.1486	1118.8275	1127.6034	1169.6778	1234.364	1243.9893	1257.9078	1266.1783	1298.5169	1334.5554	1347.4364	1426.7648	1442.4369	1471.0769	1500.2267	1695.1804	1805.929	2944.3171	3071.7445	3075.8193	3103.5646	3119.4336	3137.7461	3140.6576	3203.2062
O=CN1C=NC2CC1C2	O=CN1[CH][N][C@@H]2C[C@H]1C2	
InChI=1S/C6H8N2O/c9-4-8-3-7-5-1-6(8)2-5/h3-6H,1-2H2	InChI=1S/C6H8N2O/c9-4-8-3-7-5-1-6(8)2-5/h3-6H,1-2H2/t5-,6+
