17
gdb 81308	2.27856	1.79199	1.60156	2.365	66.8	-0.2278	-0.0198	0.2081	935.2993	0.136687	-458.965461	-458.957813	-458.956869	-458.997605	29.523	
O	-0.0613890443	 1.4891003229	 0.0184554566	-0.418412
C	 0.0045781768	 0.0924950203	-0.0337860125	 0.098324
C	-1.3530529208	-0.6356022463	-0.0937739049	 0.065015
C	-2.3909319291	 0.1630368333	-0.8854501958	-0.23386
C	-1.9113127999	 0.3331128868	-2.3521717375	-0.304671
C	-0.3947092981	 0.2373567871	-2.4800590209	 0.411703
O	 0.2647104514	 0.7986332988	-3.3201599732	-0.32118
C	 0.2180630243	-0.638137034	-1.3921677896	-0.079447
O	-0.744273945	-1.6370147691	-0.967370368	-0.298006
H	 0.8279096741	 1.8510900015	-0.0518275273	 0.29937
H	 0.6550140294	-0.3326857826	 0.7395694641	 0.092893
H	-1.7486260229	-1.0752460335	 0.8246867572	 0.086653
H	-3.3549069716	-0.3523621813	-0.8611639291	 0.108066
H	-2.5237203167	 1.13779819	-0.4071498674	 0.130271
H	-2.3125913922	-0.4876380899	-2.9588097617	 0.141494
H	-2.2503647609	 1.2661749895	-2.8060405351	 0.126692
H	 1.1921035454	-1.0476480135	-1.6658310548	 0.095094
91.1183	133.9682	238.8614	251.6853	339.2453	398.7766	441.0661	502.0871	547.4691	586.6298	636.8156	730.7101	801.5374	825.662	867.4662	929.932	948.2464	986.0116	1020.7309	1028.9546	1074.7804	1105.1622	1156.9133	1177.536	1213.7757	1221.9636	1245.7865	1253.2765	1291.9385	1324.6923	1333.4858	1351.3361	1366.9876	1425.6078	1447.1346	1487.5585	1831.1299	3036.4114	3045.0024	3059.6691	3088.3552	3102.8036	3107.1112	3121.1384	3821.9515
OC1C2CCC(=O)C1O2	O[C@H]1[C@H]2CCC(=O)[C@@H]1O2	
InChI=1S/C6H8O3/c7-3-1-2-4-5(8)6(3)9-4/h4-6,8H,1-2H2	InChI=1S/C6H8O3/c7-3-1-2-4-5(8)6(3)9-4/h4-6,8H,1-2H2/t4-,5+,6+/m1/s1
