16
gdb 7890	3.49866	1.81481	1.27942	2.978	66.76	-0.2407	-0.008	0.2327	953.2011	0.130729	-379.990467	-379.982543	-379.981598	-380.022653	28.895	
C	-0.0650505354	 1.5555814379	 0.0007796798	-0.383417
C	 0.048408091	 0.0299054422	-0.0208744395	-0.101213
N	 0.8302108746	-0.4666594406	-1.1607818963	-0.285547
C	 1.7808609865	-1.1745472454	-0.6791976867	 0.369563
C	 2.8260700053	-1.8765606135	-1.4802160864	-0.488835
N	 1.791067138	-1.2664399866	 0.7174300853	-0.371651
C	 0.7409981172	-0.520353658	 1.2378356142	 0.409782
O	 0.4751775162	-0.3594750561	 2.4035648364	-0.36923
H	 0.9269091903	 2.0167105919	 0.0143364733	 0.123089
H	-0.5938344853	 1.9063796785	-0.8883195043	 0.130177
H	-0.6081516698	 1.8726214682	 0.8948584499	 0.138065
H	-0.9600808426	-0.4020611416	-0.0691228174	 0.121849
H	 2.6564890025	-1.6809435723	-2.5389159391	 0.161298
H	 3.8283902625	-1.5292201816	-1.2055687045	 0.140602
H	 2.7925190994	-2.9574589157	-1.3038788294	 0.142137
H	 2.4715826397	-1.7480789473	 1.2828232449	 0.26333
107.3148	154.6938	168.1848	222.233	234.1156	300.6629	402.0574	498.1329	513.8062	614.7665	634.851	679.1383	729.6119	816.1959	911.0059	973.4457	1013.1968	1053.1162	1064.8794	1112.0907	1128.25	1189.9203	1259.7412	1282.1837	1309.8247	1397.3183	1399.749	1432.7248	1479.8392	1480.7765	1488.4133	1497.4814	1708.1109	1850.489	3027.2868	3038.7225	3047.9121	3093.7853	3122.7459	3135.5543	3159.4833	3649.3789
CC1N=C(C)NC1=O	C[C@H]1N=C(C)NC1=O	
InChI=1S/C5H8N2O/c1-3-5(8)7-4(2)6-3/h3H,1-2H3,(H,6,7,8)	InChI=1S/C5H8N2O/c1-3-5(8)7-4(2)6-3/h3H,1-2H3,(H,6,7,8)/t3-/m1/s1
