24
gdb 122819	6.43033	0.4769	0.45885	3.3009	88.83	-0.2409	0.0384	0.2793	2480.3195	0.215653	-405.597836	-405.586061	-405.585117	-405.636959	40.316	
C	 0.005738707	 1.5883957127	-0.060384423	-0.379543
C	-0.0155302809	 0.0576909661	-0.0787796581	-0.163874
C	-1.4236591774	-0.5288561985	 0.0696395944	-0.164845
C	-1.4435245844	-2.0596866998	 0.058137043	-0.162848
C	-2.8516282248	-2.6462688546	 0.2047688577	-0.321737
C	-2.8278301399	-4.1648223013	 0.3666269419	 0.416197
O	-1.9716168754	-4.7358349988	 1.0204241779	-0.377652
N	-3.8466385982	-4.8264836154	-0.2583144403	-0.312861
C	-4.0144715896	-6.2635680366	-0.1737986463	-0.332715
H	 1.0235847595	 1.9760819044	-0.1685137219	 0.110876
H	-0.5965800614	 2.003111262	-0.8766316931	 0.111112
H	-0.4007139041	 1.9788800512	 0.8793744722	 0.112802
H	 0.4294838016	-0.3043304242	-1.0151013816	 0.094028
H	 0.621798992	-0.3289414047	 0.7271522966	 0.098438
H	-1.8707096505	-0.1658453172	 1.0061687091	 0.090668
H	-2.0628088094	-0.1429884398	-0.7376913427	 0.086006
H	-0.9940153156	-2.4269995669	-0.8738127843	 0.09564
H	-0.8257200597	-2.4569353493	 0.8698637383	 0.126265
H	-3.3252257631	-2.236217914	 1.1073928778	 0.125714
H	-3.4867034442	-2.3514407848	-0.6399111503	 0.088009
H	-4.5173068458	-4.2904968073	-0.782560456	 0.242568
H	-4.9628839505	-6.5303730671	 0.3066540553	 0.122992
H	-3.9823528143	-6.7288884556	-1.1654232654	 0.123022
H	-3.190099321	-6.6486171006	 0.4274909788	 0.17174
26.2371	50.1573	81.4445	85.3572	111.9269	134.7749	159.8973	222.5605	247.4294	268.6343	332.2363	410.2624	441.6524	484.2957	627.715	720.6361	734.9609	766.4241	850.6461	885.1582	916.3086	970.3453	1010.4409	1042.2206	1070.018	1077.3781	1124.4184	1132.9951	1155.4566	1171.1829	1218.6972	1234.3878	1269.3773	1295.9717	1322.872	1331.8321	1351.8598	1391.0503	1401.1255	1413.2292	1437.1286	1465.2269	1484.0816	1489.6054	1492.3785	1499.9376	1500.7696	1503.0076	1513.7917	1557.9363	1775.9955	2997.0382	3013.4908	3015.7002	3020.6759	3024.418	3027.5231	3030.2242	3051.1115	3052.2108	3075.0073	3089.5905	3094.2422	3099.9175	3152.8869	3653.106
CCCCCC(=O)NC	CCCCCC(=O)NC	
InChI=1S/C7H15NO/c1-3-4-5-6-7(9)8-2/h3-6H2,1-2H3,(H,8,9)	InChI=1S/C7H15NO/c1-3-4-5-6-7(9)8-2/h3-6H2,1-2H3,(H,8,9)
