22
gdb 101583	2.77293	0.89784	0.76673	2.2935	80.69	-0.2482	0.0682	0.3164	1615.7042	0.191826	-441.545387	-441.534028	-441.533083	-441.583131	39.23	
C	 0.0010716084	 1.5577538662	-0.0017553201	-0.385682
C	-0.0203615291	 0.029665598	 0.0809143043	-0.179614
C	-1.4233162831	-0.5686791568	 0.0087954644	 0.156005
C	-1.4310228589	-2.0936443756	 0.0106596301	-0.409133
O	-2.1391594178	-0.0766874798	 1.1684391452	-0.29364
C	-3.4906008887	 0.0010488974	 1.0563441129	 0.520952
O	-4.1244738257	-0.2977644266	 0.0661143632	-0.419325
N	-4.0159963375	 0.4684824173	 2.2207256587	-0.356271
C	-5.4376259573	 0.6494426752	 2.4136310713	-0.328448
H	 1.024399491	 1.9407390673	 0.0548698351	 0.111093
H	-0.4354689411	 1.9083965007	-0.9434700915	 0.116432
H	-0.5726365046	 1.9996153377	 0.8172670673	 0.124349
H	 0.5653845514	-0.3983352158	-0.7413502427	 0.098865
H	 0.4566911938	-0.3051478168	 1.0106864257	 0.100109
H	-1.9478415699	-0.2026506525	-0.8793878669	 0.105876
H	-0.8816090138	-2.4754886179	-0.8556990422	 0.11469
H	-0.957143237	-2.4822711703	 0.918037273	 0.115455
H	-2.4563013411	-2.465995484	-0.0428962247	 0.140472
H	-3.3720156124	 0.6699987669	 2.9666104349	 0.250477
H	-5.6807335435	 1.690711543	 2.6544784994	 0.123996
H	-5.9309512837	 0.3795173152	 1.4792202499	 0.169777
H	-5.8220237194	 0.0074012414	 3.2149629829	 0.123565
48.5971	56.2645	73.0822	113.0091	132.4491	157.2845	212.325	230.2592	249.8323	313.7805	361.5945	418.412	464.751	478.0451	516.0657	715.1715	777.7117	782.0411	840.4113	902.3974	964.3093	981.2205	1005.8846	1037.7735	1137.9233	1145.1399	1159.8429	1166.6038	1177.4629	1199.5488	1251.1262	1300.3391	1330.0589	1382.9445	1397.4184	1405.3811	1408.6538	1446.7105	1475.3494	1488.3281	1496.7406	1498.9754	1499.5184	1504.5203	1509.3715	1566.6379	1807.389	3022.6055	3027.214	3037.7458	3040.2506	3059.4558	3071.3389	3073.4659	3103.1853	3110.8305	3120.2852	3132.8602	3152.758	3661.0848
CCC(C)OC(=O)NC	CC[C@@H](C)OC(=O)NC	
InChI=1S/C6H13NO2/c1-4-5(2)9-6(8)7-3/h5H,4H2,1-3H3,(H,7,8)	InChI=1S/C6H13NO2/c1-4-5(2)9-6(8)7-3/h5H,4H2,1-3H3,(H,7,8)/t5-/m1/s1
