19
gdb 119962	2.71829	0.8364	0.74399	2.9008	73.91	-0.2454	-0.023	0.2224	1554.6592	0.156974	-460.143001	-460.132958	-460.132014	-460.178958	35.573	
O	 0.2643984059	 1.3553451992	 0.07328737	-0.417921
C	 0.0767383402	-0.041445644	 0.2204802187	-0.0578
C	-1.3182022219	-0.4974357397	-0.2258901692	-0.233171
C	-1.4563127571	-2.0052351227	-0.1416646903	-0.060174
C	-1.915241651	-2.6765851977	 1.10122536	 0.073785
O	-2.2493700771	-1.8415692339	 2.1673158687	-0.411359
C	-2.8176713267	-2.7280911632	-0.1412089207	-0.189994
C	-4.0935893986	-1.9815305666	-0.1693643449	 0.157108
O	-5.0804211033	-2.3692963434	-0.7509629004	-0.275084
H	-0.3293022838	 1.7981303746	 0.688003511	 0.283153
H	 0.8430646693	-0.5104242837	-0.4074122461	 0.108871
H	 0.2568570375	-0.3692040498	 1.2555702654	 0.10282
H	-2.0632372389	-0.0088602282	 0.4088425967	 0.108602
H	-1.4893635411	-0.1572554481	-1.2532102746	 0.115018
H	-0.6974411538	-2.5455659598	-0.7025208006	 0.105071
H	-1.449607772	-3.6198540135	 1.3844542125	 0.103674
H	-2.9193859942	-2.2805825961	 2.7019915337	 0.298856
H	-2.8659695891	-3.6725581055	-0.6731310894	 0.107842
H	-4.1069898442	-1.0284281979	 0.3984910493	 0.080702
53.4124	77.9985	94.4982	127.5437	192.8855	243.9723	253.1528	309.4787	349.8507	385.4617	431.8317	453.3544	573.994	602.4863	765.7023	794.225	851.3285	917.6284	981.4895	1000.2835	1024.3391	1054.2096	1066.4294	1081.6175	1125.1923	1141.648	1183.0092	1205.206	1237.0236	1288.47	1296.8289	1322.2285	1334.6657	1384.6028	1407.8483	1420.5573	1443.673	1470.522	1484.8453	1511.1665	1802.8388	2914.9109	2991.996	3048.1075	3060.2005	3098.4748	3106.2366	3138.4978	3171.7492	3808.9264	3816.8547
OCCC1C(O)C1C=O	OCC[C@H]1[C@@H](O)[C@H]1C=O	
InChI=1S/C6H10O3/c7-2-1-4-5(3-8)6(4)9/h3-7,9H,1-2H2	InChI=1S/C6H10O3/c7-2-1-4-5(3-8)6(4)9/h3-7,9H,1-2H2/t4-,5+,6-/m1/s1
