19
gdb 72949	2.6211	1.5046	1.20614	0.9769	82.67	-0.2269	0.0411	0.268	1100.6393	0.157084	-385.82794	-385.818929	-385.817984	-385.860825	35.398	
C	 0.0043638356	 1.5559696445	-0.0234357725	-0.476418
C	 0.0804047021	 0.0360929712	 0.0398595131	 0.047877
C	-1.1030274351	-0.6262594507	-0.4495878603	 0.229935
C	-2.1087962069	-1.194390725	-0.7932281087	-0.420977
C	 1.3627621281	-0.7789688758	-0.2250745722	-0.170097
C	 2.5873854031	-0.05039808	 0.3354992245	-0.249911
C	 1.9342660422	-0.0619892775	 1.7579620447	-0.30013
C	 0.7200290266	-0.7676591741	 1.1675204697	 0.407949
O	 0.0491360225	-1.7124632795	 1.9054958818	-0.461179
H	 0.8951488016	 2.0258307163	 0.3979967641	 0.124623
H	-0.0967135741	 1.8930785301	-1.0599568233	 0.12719
H	-0.8638961465	 1.9198085638	 0.5344207354	 0.128686
H	-2.9874926472	-1.678610851	-1.1417311002	 0.196132
H	 1.3685327296	-1.5347146294	-1.0011022471	 0.097047
H	 3.4880047822	-0.6659775971	 0.2913103788	 0.110283
H	 2.8174245328	 0.9291912471	-0.0936373921	 0.101257
H	 2.4678944977	-0.7216285596	 2.4452795415	 0.119601
H	 1.760748603	 0.896995291	 2.2552665835	 0.100443
H	-0.7912441672	-1.8975279945	 1.4630708394	 0.28769
129.929	145.1454	172.3588	241.171	256.641	280.1981	358.3436	390.4934	428.8731	443.4378	516.0835	560.3255	588.7273	642.1172	661.998	692.4489	707.2366	801.1649	883.5543	933.1652	946.6662	967.758	992.17	1050.31	1076.0767	1104.1037	1114.8328	1192.2043	1203.4224	1218.8533	1241.6447	1273.8956	1276.8238	1402.7004	1405.1159	1421.9173	1472.187	1495.8929	1496.0894	1510.0605	2217.4656	3042.533	3053.4528	3059.9895	3103.9079	3104.7214	3121.4228	3129.9152	3187.664	3499.6065	3735.0612
CC1(C#C)C2CCC12O	C[C@@]1(C#C)[C@H]2CC[C@@]12O	
InChI=1S/C8H10O/c1-3-7(2)6-4-5-8(6,7)9/h1,6,9H,4-5H2,2H3	InChI=1S/C8H10O/c1-3-7(2)6-4-5-8(6,7)9/h1,6,9H,4-5H2,2H3/t6-,7-,8+/m1/s1
