13
gdb 52467	5.05539	0.55632	0.50274	4.6453	101.72	-0.2535	-0.0912	0.1622	2076.6396	0.085547	-382.220338	-382.210572	-382.209628	-382.258772	32.31	
C	 0.0182613855	 1.4644066537	 0.0075687329	-0.519846
C	 0.0229380456	 0.0148800245	 0.0025658851	 0.254264
C	 0.0247914831	-1.1965492123	-0.0018497726	-0.173129
C	 0.0243439706	-2.5505064976	-0.0067083206	-0.374793
C	 0.0256179138	-3.7651614884	-0.011108138	 0.455509
C	 0.0022589928	-5.205259259	-0.01583701	 0.085337
O	-1.0281921601	-5.8521086349	 0.0024367641	-0.259987
C	 1.3117630136	-5.8272213272	-0.0442743207	 0.291907
C	 2.3958098807	-6.3496776739	-0.0678470336	-0.481066
H	 1.0371039292	 1.8653886271	 0.0403896091	 0.165196
H	-0.4703542922	 1.8553819301	-0.8918736125	 0.168024
H	-0.5258047938	 1.8499614223	 0.876969686	 0.167883
H	 3.3500542013	-6.8176358043	-0.0886262293	 0.220702
4.2058	52.2189	73.8416	131.3978	196.9913	222.639	272.5472	336.9216	390.1333	423.4546	520.9448	591.0803	608.107	648.6735	659.8575	703.7066	782.0836	831.0628	1042.932	1046.9253	1103.4451	1314.229	1410.8444	1466.0154	1468.2094	1708.6243	2215.5918	2256.8682	2359.2356	3027.7144	3092.4276	3093.9954	3494.0089
CC#CC#CC(=O)C#C	CC#CC#CC(=O)C#C	
InChI=1S/C8H4O/c1-3-5-6-7-8(9)4-2/h2H,1H3	InChI=1S/C8H4O/c1-3-5-6-7-8(9)4-2/h2H,1H3
