18
gdb 12775	3.70952	1.53295	1.31661	2.6717	67.54	-0.2394	0.0657	0.3052	989.0384	0.152975	-384.894173	-384.886121	-384.885177	-384.926505	30.325	
C	-0.0853939993	 1.5545046361	 0.0828127079	-0.496807
C	 0.0066308357	 0.0598482986	-0.0106394231	 0.240172
C	-0.7841805904	-0.9002984876	 0.8653168494	-0.352981
C	 0.7092427841	-0.9765406356	 0.8394847707	 0.073358
O	 1.1622544969	-1.7264362008	-0.2936590013	-0.322351
C	 0.6058307912	-0.7144681224	-1.1910046077	 0.078338
C	-0.255954025	-1.3462511965	-2.2689054976	-0.082151
O	 0.4884390364	-2.3112472002	-2.990177591	-0.420399
H	 0.8340394193	 2.0336297907	-0.2719053765	 0.123056
H	-0.9175759947	 1.9431316241	-0.5163147472	 0.12539
H	-0.2514385814	 1.8744560472	 1.116339442	 0.123059
H	-1.209846703	-0.4320229604	 1.7483639496	 0.114161
H	-1.3724675132	-1.7154648053	 0.4547570088	 0.116152
H	 1.3704568818	-0.9064426854	 1.695700891	 0.105245
H	 1.4353004549	-0.1635763523	-1.6537757804	 0.08564
H	-1.1610970466	-1.785951247	-1.8246729859	 0.087166
H	-0.5734622429	-0.5827324597	-2.9881544343	 0.108161
H	 0.8642191861	-2.9049729932	-2.3287166844	 0.294791
87.511	160.7251	180.2489	205.661	272.1437	321.9359	429.2582	441.8638	491.4535	521.1025	633.0327	751.2556	812.8049	857.1662	892.4892	957.7761	981.499	1006.437	1030.2043	1043.3325	1073.7488	1075.5741	1097.4719	1121.3745	1138.2711	1217.7945	1236.3065	1257.0923	1295.9995	1344.9578	1387.8492	1405.7416	1423.5403	1440.5793	1486.2716	1487.9138	1498.8023	1501.5078	2994.949	3021.623	3024.8106	3069.3868	3081.9693	3099.5449	3116.5265	3177.8122	3204.3484	3788.6823
CC12CC1OC2CO	C[C@]12C[C@H]1O[C@H]2CO	
InChI=1S/C6H10O2/c1-6-2-4(6)8-5(6)3-7/h4-5,7H,2-3H2,1H3	InChI=1S/C6H10O2/c1-6-2-4(6)8-5(6)3-7/h4-5,7H,2-3H2,1H3/t4-,5+,6+/m1/s1
