19
gdb 73647	2.29569	1.67578	1.45693	3.3393	74.83	-0.2257	-0.0291	0.1967	1020.94	0.158886	-423.046261	-423.037938	-423.036994	-423.07942	31.746	
C	-0.2345487295	 1.4774547048	 0.0475290498	-0.465089
C	-0.0036194682	-0.0179865339	 0.027861746	 0.313656
O	-1.2458026599	-0.690176192	-0.0727763357	-0.282426
C	-1.0806161105	-2.0045007566	 0.4529957579	-0.100608
C	-0.1043887299	-1.8510801019	 1.6332278812	-0.230917
C	 0.8297628871	-0.7267341989	 1.1644564159	-0.091066
C	 1.9375524108	-1.1273074212	 0.1448456117	-0.369276
C	 1.0824164542	-0.521998241	-0.9827613615	 0.357108
O	 1.1843232563	-0.4744335113	-2.1728807975	-0.295828
H	 0.7105250847	 2.0201371456	 0.1452349377	 0.118477
H	-0.7146822149	 1.7916367006	-0.8834937972	 0.145216
H	-0.8846710459	 1.746763608	 0.8853904038	 0.125331
H	-2.0679008172	-2.3741847315	 0.7395890827	 0.115329
H	-0.672424907	-2.6807098328	-0.3143456783	 0.102486
H	-0.6498767669	-1.5351112407	 2.5275307666	 0.111371
H	 0.4210342099	-2.7809369841	 1.8682265234	 0.105732
H	 1.1718799866	-0.085987041	 1.9770671179	 0.078802
H	 2.8942003794	-0.6124210309	 0.2769644138	 0.133695
H	 2.140330481	-2.197835131	 0.0358321218	 0.128009
46.7593	161.3274	194.1327	211.3173	272.9025	286.0334	368.1621	474.0307	514.6365	572.262	626.6028	668.8933	754.0303	783.5501	827.8657	896.5337	909.9285	920.7278	957.8107	1016.3197	1030.8453	1043.286	1083.9183	1113.4192	1147.4799	1170.7801	1188.4095	1214.2967	1221.0695	1253.9974	1293.3927	1312.0663	1339.6037	1384.9322	1402.8962	1432.112	1477.9775	1486.1151	1489.9493	1520.9462	1891.2876	2983.9373	3040.2293	3050.0957	3054.9832	3097.5459	3098.4904	3104.9156	3113.5843	3115.5345	3121.0631
CC12OCCC1CC2=O	C[C@]12OCC[C@H]1CC2=O	
InChI=1S/C7H10O2/c1-7-5(2-3-9-7)4-6(7)8/h5H,2-4H2,1H3	InChI=1S/C7H10O2/c1-7-5(2-3-9-7)4-6(7)8/h5H,2-4H2,1H3/t5-,7-/m0/s1
