17
gdb 55491	4.74963	0.65891	0.6058	4.4407	79.42	-0.2276	0.0233	0.2509	1803.8061	0.134846	-417.981746	-417.971718	-417.970774	-418.020178	34.09	
N	-0.3690469926	 1.2531521393	 0.4188552677	-0.528234
C	-0.3824688936	-0.1035181925	 0.5817951793	 0.43039
O	-0.0846681401	-0.6456941298	 1.6216421664	-0.336904
C	-0.7677351701	-0.8658640333	-0.7049221031	-0.503157
C	-0.9900252505	-2.2833068179	-0.4835826591	 0.076398
C	-1.1672865262	-3.4579700397	-0.2871962102	 0.124501
C	-1.3912600325	-4.8452118471	 0.0053559602	-0.160381
C	-0.3226707366	-5.6395705999	 0.6841812841	-0.225651
N	-1.5393195673	-5.2792988704	 1.4175213113	-0.309127
H	-0.1735880152	 1.8216426384	 1.2264682896	 0.264679
H	-0.7324648811	 1.7004829534	-0.4043429156	 0.259885
H	-1.660133767	-0.3985020286	-1.1427113539	 0.139978
H	 0.040589958	-0.7083137623	-1.4328855182	 0.155681
H	-2.0611337275	-5.3674136168	-0.6731652113	 0.112821
H	-0.2222484587	-6.6961279039	 0.4516775037	 0.121506
H	 0.6048594702	-5.1257126198	 0.9175093079	 0.128361
H	-1.3481156792	-4.4809795192	 2.0193579811	 0.249256
15.8592	20.5965	51.2771	135.2301	161.0764	182.1042	292.0113	351.7507	373.0634	488.2556	521.0827	532.3494	614.3534	643.0139	752.7327	812.2038	818.0764	892.3813	953.5578	963.7917	998.1437	1087.8673	1093.805	1121.9263	1159.9801	1218.0504	1219.8408	1257.064	1274.8701	1302.5535	1368.8251	1400.3028	1454.1266	1504.0291	1619.3064	1818.8606	2373.9056	3009.094	3038.5896	3113.1408	3135.5016	3205.0765	3501.1382	3602.9623	3736.671
NC(=O)CC#CC1CN1	NC(=O)CC#C[C@H]1CN1	
InChI=1S/C6H8N2O/c7-6(9)3-1-2-5-4-8-5/h5,8H,3-4H2,(H2,7,9)	InChI=1S/C6H8N2O/c7-6(9)3-1-2-5-4-8-5/h5,8H,3-4H2,(H2,7,9)/t5-/m0/s1
