18
gdb 66005	2.74486	1.32078	1.19647	1.5146	72.43	-0.2404	-0.0367	0.2036	1113.7818	0.146712	-439.057692	-439.048938	-439.047994	-439.091386	32.612	
O	-0.2316386672	 1.5682383342	-0.0144292435	-0.485388
C	 0.0405058716	 0.1879196396	-0.037367304	 0.278227
C	 1.0580687454	-0.3332638115	-1.11390112	-0.286243
C	 1.8100919854	-1.1504984402	-0.0130764646	-0.341626
C	 1.0809530541	-0.2701787087	 1.0035806802	 0.345187
O	 1.3380176436	 0.1718560171	 2.0883572735	-0.311763
C	-1.2525338183	-0.617061741	-0.0152345859	-0.020018
C	-2.3909755302	-0.1703677024	 0.8199048868	-0.243226
N	-2.4508359199	-0.0573959827	-0.6501930263	-0.329009
H	 0.0979755612	 1.9085743768	 0.8273510223	 0.300936
H	 0.6288203552	-0.9001439308	-1.9403006656	 0.122547
H	 1.661312052	 0.4905416656	-1.4981536613	 0.1253
H	 1.4854646578	-2.1945014724	 0.0362701755	 0.139389
H	 2.90062201	-1.1164093966	 0.0164139391	 0.136568
H	-1.1169389423	-1.6828377501	-0.1896677267	 0.090175
H	-3.0643147907	-0.9022781256	 1.2559010647	 0.118719
H	-2.262161579	 0.7417129425	 1.3946525302	 0.114314
H	-2.2520787085	 0.9107159863	-0.8982288843	 0.245909
72.6917	89.1222	149.5577	231.1018	247.6618	287.7146	301.8413	392.1146	462.6313	490.7671	595.8181	701.8788	738.7219	760.3804	830.6953	861.5224	910.5644	914.7835	962.0737	979.5161	1016.9118	1040.3454	1077.966	1105.8801	1133.0978	1148.6883	1176.9301	1189.609	1210.0976	1239.3398	1277.2387	1290.6664	1307.3239	1355.2938	1407.0405	1445.4602	1483.1405	1500.9738	1874.8724	3064.8542	3087.285	3117.2555	3122.6226	3127.3252	3152.534	3206.4764	3488.5844	3770.0545
OC1(CCC1=O)C1CN1	O[C@]1(CCC1=O)[C@H]1CN1	
InChI=1S/C6H9NO2/c8-5-1-2-6(5,9)4-3-7-4/h4,7,9H,1-3H2	InChI=1S/C6H9NO2/c8-5-1-2-6(5,9)4-3-7-4/h4,7,9H,1-3H2/t4-,6-/m1/s1
