21
gdb 120222	4.41213	0.92864	0.90855	1.1245	79.17	-0.2262	0.0843	0.3105	1398.2715	0.18307	-424.192999	-424.184521	-424.183577	-424.226697	32.322	
C	-0.0361211411	 1.4871683877	-0.0513947855	-0.386129
C	 0.2145525138	-0.0084178745	 0.0338731928	-0.044188
O	 0.4399061159	-0.4994187678	-1.2785890631	-0.269712
C	 0.6223546501	-1.8852964504	-1.3374119085	 0.163408
C	 1.0465546629	-2.3558566446	-2.7620821288	-0.111682
C	 2.4912109458	-1.8914524313	-2.3848254607	-0.241036
C	 2.0485171084	-2.4429248314	-1.0101359918	 0.064894
O	 1.8710401895	-3.8486005939	-1.2355126039	-0.281876
C	 1.1657911721	-3.8592736825	-2.5046440528	-0.08346
H	 0.8290971704	 1.9980325402	-0.4835091172	 0.126554
H	-0.9056578014	 1.6946418004	-0.6814122437	 0.12781
H	-0.220986062	 1.8997451058	 0.9448464545	 0.116224
H	 1.0824802057	-0.2197482884	 0.6777099316	 0.091829
H	-0.6518512713	-0.5231826507	 0.4804189252	 0.090921
H	-0.20793943	-2.4217813135	-0.8541661235	 0.064704
H	 0.5248514572	-2.0218261854	-3.6576259768	 0.077529
H	 3.3372225774	-2.3832283934	-2.8702980128	 0.095505
H	 2.5906039919	-0.8077633549	-2.3984646189	 0.118316
H	 2.5825639929	-2.2827712145	-0.0749230755	 0.077362
H	 0.2008683077	-4.3665525395	-2.390262281	 0.101687
H	 1.7591057841	-4.3868831575	-3.2608589295	 0.101341
61.5536	87.5435	134.1545	239.5869	299.8335	325.4777	348.3591	391.204	483.8447	583.8435	654.3408	818.2826	837.2056	848.453	890.2561	907.4174	915.4009	935.585	947.5346	986.1347	1008.6621	1038.7174	1067.0695	1080.0764	1100.4755	1132.3218	1149.3504	1165.7584	1188.2573	1191.288	1224.1457	1246.8491	1266.3344	1270.8157	1289.6909	1295.8107	1355.1802	1379.4257	1403.6689	1436.6236	1481.6106	1483.5096	1499.6005	1527.8847	1529.6545	2968.3202	2995.0642	2998.8656	3022.8726	3045.3064	3062.8324	3079.1276	3119.9462	3121.9454	3133.6314	3137.446	3164.4309
CCOC1C2CC1OC2	CCO[C@H]1[C@H]2C[C@@H]1OC2	
InChI=1S/C7H12O2/c1-2-8-7-5-3-6(7)9-4-5/h5-7H,2-4H2,1H3	InChI=1S/C7H12O2/c1-2-8-7-5-3-6(7)9-4-5/h5-7H,2-4H2,1H3/t5-,6-,7-/m0/s1
