16
gdb 41457	2.96721	2.18719	1.67758	0.812	67.59	-0.2319	0.0304	0.2623	820.8197	0.126117	-437.723339	-437.717297	-437.716353	-437.753369	25.549	
C	 0.0625237176	 1.4836389412	-0.1742684101	-0.202263
O	 1.5209388231	 1.4455828127	 0.0855859804	-0.334116
C	 1.345635727	 0.2166091509	 0.8284434582	 0.299105
C	 1.1498697297	 0.2336422518	 2.3326104268	-0.144294
O	 0.1811719551	-0.8365467862	 2.4612200074	-0.263335
C	-0.0365432908	-1.2445450703	 1.1442828525	 0.074235
C	 1.3338927764	-1.2741403204	 0.3284516296	-0.137387
N	 0.5893531654	-0.9204499009	-0.9128213285	-0.352884
C	-0.0057863864	-0.0221385447	 0.1476939337	 0.152212
H	-0.4415059647	 2.148849209	 0.5336438764	 0.127088
H	-0.1585914715	 1.7784368533	-1.2036250247	 0.131966
H	 2.0421726279	-0.0112182451	 2.9178157992	 0.117321
H	 0.7222334771	 1.1717290725	 2.7032657305	 0.115864
H	-0.7565882034	-2.0577370283	 1.0796352122	 0.113448
H	 2.0941891698	-2.0600000758	 0.3642766713	 0.082288
H	 1.2083528477	-0.3502911495	-1.4957923848	 0.220753
251.2818	270.2874	361.4889	436.6489	458.2155	497.0858	633.0807	683.3618	690.9525	760.9916	829.1551	853.0297	860.1352	912.512	934.9831	944.7015	977.1173	1030.092	1050.7485	1063.7071	1104.2164	1114.8256	1144.8962	1146.5961	1185.2357	1205.0362	1214.8517	1231.5722	1283.1517	1294.184	1310.3463	1320.3135	1374.3712	1498.7119	1519.1236	3037.2074	3047.0798	3068.6313	3082.5317	3112.6621	3156.1227	3407.5638
C1OC23COC4C2NC134	C1O[C@]23CO[C@@H]4[C@H]2N[C@]134	
InChI=1S/C6H7NO2/c1-5-4-3(7-5)6(5,9-1)2-8-4/h3-4,7H,1-2H2	InChI=1S/C6H7NO2/c1-5-4-3(7-5)6(5,9-1)2-8-4/h3-4,7H,1-2H2/t3-,4-,5+,6-/m1/s1
