19
gdb 92961	2.80156	1.45521	1.2113	2.7925	76.11	-0.2443	0.0047	0.249	1081.8049	0.160032	-423.00752	-422.99942	-422.998476	-423.040489	31.147	
O	 0.0235206444	 1.4148496337	-0.0254567659	-0.429333
C	-0.0006687815	-0.0064001592	 0.0097862062	 0.051147
C	 0.6537522283	-0.5458234874	 1.3058686404	-0.294814
C	-0.5367052333	-0.7529590282	 2.2153065474	-0.085533
C	-1.6825074851	-0.7417545764	 1.5312768929	-0.161921
C	-1.4556794664	-0.5514101884	 0.0570848836	 0.242993
C	-2.4892035405	 0.1834961897	-0.8285569408	-0.133965
O	-2.6108845534	-0.9443864704	-1.7200338265	-0.273185
C	-1.7803063475	-1.7561441571	-0.8746255418	-0.118992
H	-0.3872603011	 1.7311018797	 0.7880610226	 0.280982
H	 0.5244935556	-0.3182041057	-0.8965210253	 0.089131
H	 1.1841388668	-1.4922739543	 1.1334995693	 0.114005
H	 1.3940635724	 0.165568544	 1.686581764	 0.112528
H	-0.4445540171	-0.9244030948	 3.2820350697	 0.100527
H	-2.6704705888	-0.9025473717	 1.949922937	 0.100849
H	-3.4405528488	 0.4137741008	-0.3291478008	 0.090699
H	-2.1155856846	 1.0797710278	-1.3328474156	 0.120349
H	-0.9297792813	-2.1911182434	-1.4156294343	 0.10053
H	-2.3460977281	-2.5644011587	-0.391818642	 0.094002
68.9693	95.1676	213.3584	224.7497	323.4864	363.1583	416.0022	428.9877	497.1159	540.865	743.4693	762.2464	823.4345	839.6351	870.7007	908.5923	948.4184	965.9516	977.2251	990.0054	1003.7337	1043.5624	1052.8618	1085.3024	1109.7059	1157.3192	1159.8916	1163.6578	1184.1629	1250.8735	1268.9988	1291.7319	1303.8498	1312.6	1371.7273	1389.3705	1430.4699	1478.5042	1508.5908	1536.1778	1668.4703	2994.9151	3007.1262	3018.6925	3041.6178	3072.6039	3081.3407	3086.1034	3179.0233	3205.1332	3786.4483
OC1CC=CC11COC1	O[C@H]1CC=CC21COC2	
InChI=1S/C7H10O2/c8-6-2-1-3-7(6)4-9-5-7/h1,3,6,8H,2,4-5H2	InChI=1S/C7H10O2/c8-6-2-1-3-7(6)4-9-5-7/h1,3,6,8H,2,4-5H2/t6-/m0/s1
