18
gdb 112062	2.02353	1.68213	0.98619	3.59	78.25	-0.2338	0.0091	0.2428	1195.2837	0.148741	-398.150672	-398.141845	-398.140901	-398.185037	31.539	
C	 0.0813183913	 1.5919260411	 0.1788357156	-0.380867
C	-0.0645291109	 0.1296048863	-0.2433509355	-0.156779
N	 0.6555688266	-0.1994903011	-1.4683777924	-0.050888
C	 0.1251976232	-1.0376753186	-2.4370899231	 0.073568
N	 0.9255208669	-1.671204662	-3.1999548394	-0.266779
C	 2.2779139254	-1.2875926744	-2.7835509412	-0.182249
C	 2.094439304	-0.4863277063	-1.4421966507	-0.151012
C	 2.9339978449	 0.7122697002	-1.3722992006	 0.30068
N	 3.6245690124	 1.6377571514	-1.3219618369	-0.332399
H	 1.121714527	 1.8494613543	 0.3920628026	 0.148111
H	-0.2758570499	 2.2579493257	-0.6113898777	 0.131918
H	-0.5054974795	 1.7777738387	 1.0836818751	 0.119959
H	 0.2669682403	-0.5339026225	 0.5721138403	 0.104849
H	-1.1202809618	-0.0988547668	-0.4231152978	 0.118568
H	-0.9564241045	-1.0966671878	-2.5215877553	 0.134109
H	 2.9164214875	-2.1636319882	-2.6473302118	 0.129874
H	 2.7380035166	-0.6547652308	-3.5501058707	 0.138552
H	 2.3381637405	-1.1149871292	-0.5707225706	 0.120784
50.6053	90.5682	118.4589	176.786	228.1064	267.2189	331.5827	381.4322	491.9572	522.5579	558.4394	615.5797	760.4058	793.7702	862.6685	914.968	954.8318	978.0364	1001.353	1039.231	1049.5848	1091.7744	1118.134	1196.4199	1228.3415	1257.5214	1286.448	1318.1321	1348.7026	1354.2952	1401.1067	1404.3659	1419.6073	1481.1022	1492.5117	1496.6636	1507.0949	1694.9936	2356.6395	2970.9286	2972.9662	3047.7836	3050.4097	3069.6905	3100.551	3119.8666	3131.7471	3183.7831
CCN1C=NCC1C#N	CCN1[CH][N]C[C@H]1C#N	
InChI=1S/C6H9N3/c1-2-9-5-8-4-6(9)3-7/h5-6H,2,4H2,1H3	InChI=1S/C6H9N3/c1-2-9-5-8-4-6(9)3-7/h5-6H,2,4H2,1H3/t6-/m1/s1
