19
gdb 76400	2.69423	1.16357	1.15008	1.2059	71.34	-0.2326	0.0515	0.2841	1186.6715	0.156617	-460.110494	-460.100834	-460.09989	-460.145092	35.419	
C	-0.0146409706	 1.6957482476	 0.3274041458	-0.453372
C	-0.0282660994	 0.2136214712	 0.0137208529	 0.183902
C	-1.328665726	-0.2765926636	-0.554172604	 0.014764
C	-1.5572786274	-0.4073446626	-1.9991734066	-0.179317
O	-1.329473848	-1.5617318543	-1.1832126792	-0.240642
C	 1.2475083921	-0.4768326078	-0.4567894711	 0.061871
O	 2.4395898598	 0.24053635	-0.5379347004	-0.443248
C	 0.6961770731	-0.7605573174	 0.920540138	-0.008437
O	 1.4140276866	-0.1993665395	 1.9937140679	-0.433807
H	 0.9554369731	 2.0172865649	 0.7057452331	 0.128474
H	-0.2328963142	 2.2768955809	-0.5747470124	 0.120222
H	-0.7682333219	 1.9452214846	 1.0824577119	 0.11863
H	-2.2010194516	-0.1005705853	 0.0801044668	 0.092034
H	-2.5646698323	-0.3165288944	-2.4017320316	 0.116814
H	-0.7510795497	-0.160887757	-2.6879838661	 0.121318
H	 1.1603284852	-1.240985985	-1.221788393	 0.115973
H	 2.6948505998	 0.4383800109	 0.3739763053	 0.283459
H	 0.2227269162	-1.7181341006	 1.1266342753	 0.103731
H	 2.0043622751	-0.8793637827	 2.3365262576	 0.297629
74.2261	85.9463	142.2219	193.9621	201.7437	224.7653	269.9061	301.4521	353.112	445.0703	495.3324	523.0895	571.7795	660.6414	694.004	825.5984	861.8351	873.6939	898.5635	967.5768	1014.606	1029.5999	1080.7668	1099.5776	1112.6126	1153.1342	1154.7584	1167.4943	1177.4072	1218.0694	1261.7735	1288.9113	1302.4014	1334.8813	1400.3488	1416.4835	1428.5194	1467.8832	1486.1644	1502.9847	1522.9237	3037.3672	3076.0757	3088.7872	3093.7207	3126.7239	3147.7865	3171.7061	3177.8046	3737.234	3804.0059
CC1(C2CO2)C(O)C1O	C[C@@]1([C@H]2CO2)[C@@H](O)[C@H]1O	
InChI=1S/C6H10O3/c1-6(3-2-9-3)4(7)5(6)8/h3-5,7-8H,2H2,1H3	InChI=1S/C6H10O3/c1-6(3-2-9-3)4(7)5(6)8/h3-5,7-8H,2H2,1H3/t3-,4-,5+,6+/m1/s1
