21
gdb 70333	2.20626	2.03227	1.36917	2.3549	81.57	-0.2166	0.0724	0.2889	1035.0788	0.183549	-383.232969	-383.224725	-383.223781	-383.264965	33.53	
C	 0.1403777636	 1.516715317	 0.0972677879	-0.485909
C	-0.0002059283	 0.0151053788	 0.002756955	 0.292191
C	-0.7155197712	-0.7627717387	 1.0506011255	-0.287707
N	 0.7558439987	-0.7954874411	 0.9887895707	-0.14807
C	 1.3584729348	-1.9510721508	 0.286287564	-0.171723
C	 0.974561791	-1.8617724598	-1.1831820219	-0.08886
N	-0.4769426862	-2.0021865096	-1.4237904176	-0.373157
C	 0.1313260784	-0.6494240428	-1.3715347927	 0.280721
C	 0.1457910462	 0.193259186	-2.6222551984	-0.505695
H	 1.0815804924	 1.8644621648	-0.3425196976	 0.116438
H	-0.6825858194	 2.0292387529	-0.4133829313	 0.11408
H	 0.1338928265	 1.8223730561	 1.1461035791	 0.128095
H	-1.1085623915	-0.2460977396	 1.9238381894	 0.098301
H	-1.2718551757	-1.6378284531	 0.733472017	 0.136374
H	 2.4472533163	-1.8767728829	 0.3889755068	 0.104107
H	 1.040753444	-2.8924438549	 0.7464193307	 0.112278
H	 1.670268315	-2.2045179194	-1.9450447779	 0.083677
H	-0.634689541	-2.2555806154	-2.3973800279	 0.223483
H	-0.8299602301	 0.6602490472	-2.7986553725	 0.128383
H	 0.8901973733	 0.9930003447	-2.5671677284	 0.130203
H	 0.3844715833	-0.4222029592	-3.4957048999	 0.11279
144.4695	206.8839	217.1983	252.431	301.0949	325.395	367.1205	410.4144	470.6681	493.4913	596.3309	601.5153	708.7507	769.7059	794.0907	809.4923	859.9529	915.1459	943.2024	945.4159	974.8059	1024.853	1043.1685	1062.3141	1087.0508	1107.1489	1120.4427	1131.5682	1161.245	1168.6439	1220.5711	1238.189	1300.4186	1337.4315	1351.2589	1371.5443	1408.0797	1421.3469	1434.156	1480.0071	1483.3744	1488.8292	1498.4058	1501.867	1506.0261	3028.5017	3032.4204	3035.6259	3079.1544	3089.1355	3094.0943	3100.8511	3106.6716	3121.6684	3139.2199	3206.4407	3479.3277
CC12CN1CC1NC21C	C[C@]12CN1C[C@H]1N[C@@]21C	
InChI=1S/C7H12N2/c1-6-4-9(6)3-5-7(6,2)8-5/h5,8H,3-4H2,1-2H3	InChI=1S/C7H12N2/c1-6-4-9(6)3-5-7(6,2)8-5/h5,8H,3-4H2,1-2H3/t5-,6-,7-,9?/m1/s1
