25
gdb 104447	2.86531	1.11337	1.02028	1.3284	88.14	-0.2417	0.0749	0.3167	1344.0535	0.230219	-389.509403	-389.499888	-389.498944	-389.543028	37.702	
C	-0.0912603019	 1.5416110784	 0.198739457	-0.402705
C	 0.0309019883	 0.0286881599	-0.0187548534	-0.197839
C	 0.6942783101	-0.4343155626	-1.3388542726	 0.281988
C	-0.1131917261	 0.0892636888	-2.543027235	-0.42675
C	 2.1652519844	 0.0495302314	-1.4047045632	-0.220832
C	 2.9747295174	-0.6623638641	-2.4920912955	-0.088673
O	 2.9393359078	-2.0707323853	-2.3428286967	-0.241603
C	 1.6164739553	-2.571465673	-2.4301936853	-0.092308
C	 0.7153575948	-1.9843419292	-1.341078243	-0.220747
H	 0.8849013621	 2.0366551329	 0.187875743	 0.117608
H	-0.7162826032	 2.0182092745	-0.5623752239	 0.117182
H	-0.5497178062	 1.7477014684	 1.1710815327	 0.113059
H	 0.5986082047	-0.4023114614	 0.8162313963	 0.090907
H	-0.9705657186	-0.4200598603	 0.0348837119	 0.087667
H	-0.083487425	 1.1814806044	-2.6004424011	 0.113787
H	 0.2645197587	-0.2928170483	-3.4948801289	 0.113362
H	-1.16365135	-0.2129858046	-2.4641087059	 0.109138
H	 2.2121417532	 1.1315719979	-1.5736793379	 0.090716
H	 2.6482251864	-0.1473970633	-0.4389331197	 0.096035
H	 2.6101741827	-0.3802387195	-3.4945927188	 0.084745
H	 4.0292743866	-0.3757957237	-2.4345068747	 0.103227
H	 1.2030825244	-2.3693901396	-3.4329493729	 0.085094
H	 1.6928049627	-3.657642276	-2.3212351637	 0.103412
H	 1.0882399513	-2.3348124808	-0.3704782047	 0.096332
H	-0.3029920597	-2.3776555048	-1.4543188739	 0.087199
92.8953	150.0933	201.4018	204.8133	242.6151	287.3536	316.6893	343.1873	368.7256	412.3544	424.0346	487.4999	502.1126	606.4449	699.5766	784.0337	817.3457	852.5378	894.1717	899.9678	957.4779	989.8614	1011.2373	1021.7454	1037.7068	1046.232	1070.8486	1086.3376	1137.1438	1179.6529	1205.8869	1218.1306	1245.1376	1267.4405	1288.7158	1325.4398	1346.917	1357.4966	1369.7134	1382.9944	1389.6601	1412.941	1417.4688	1430.8375	1468.2024	1473.9174	1484.1327	1493.223	1499.7225	1504.5653	1507.9395	1512.9649	1519.3886	2960.3241	2965.3435	3006.4869	3017.1808	3022.2653	3036.105	3040.326	3041.5645	3060.9664	3069.4019	3076.6756	3079.3553	3098.1833	3103.5485	3110.4848	3117.3625
CCC1(C)CCOCC1	CCC1(C)CCOCC1	
InChI=1S/C8H16O/c1-3-8(2)4-6-9-7-5-8/h3-7H2,1-2H3	InChI=1S/C8H16O/c1-3-8(2)4-6-9-7-5-8/h3-7H2,1-2H3
