14
gdb 46220	2.96489	1.3719	1.07027	6.4328	69.4	-0.2546	-0.0199	0.2347	1086.7322	0.100604	-432.831899	-432.823936	-432.822992	-432.864674	29.008	
N	 0.021766152	 1.1848195556	-0.4050645963	-0.533122
C	 0.0535271983	-0.0165414807	-0.0296133375	 0.330206
N	 0.9618083894	-0.8939532442	 0.5754620453	-0.355068
C	 0.0951516669	-2.0840976125	 0.4773546476	-0.245488
C	-0.9745456347	-1.1315203002	-0.0911843645	 0.375071
O	-2.3166786178	-1.0599755465	 0.3125500012	-0.244537
C	-2.0548525795	-1.3912997146	-1.0582841937	-0.230732
C	-2.4416172704	-0.4263281592	-2.0637681722	 0.341327
N	-2.7744260567	 0.2855172619	-2.9104143259	-0.320571
H	 0.9054250603	 1.6709918908	-0.2488210568	 0.222954
H	 1.9647147168	-0.881408037	 0.4647116872	 0.25192
H	 0.438706201	-2.854354891	-0.2213734416	 0.125233
H	-0.15349403	-2.5347234776	 1.4422216029	 0.136758
H	-2.2707789255	-2.4240403352	-1.3276894857	 0.146049
98.331	105.1927	183.4404	253.7721	257.8746	330.3465	382.7825	479.7294	493.5579	574.8261	652.2524	714.1161	768.7842	827.1335	851.8765	942.0175	986.7784	1010.5004	1021.7896	1059.9094	1085.5343	1139.6215	1150.9087	1226.6805	1304.448	1340.6816	1365.9236	1493.739	1514.1348	1809.5784	2367.7088	3042.3153	3097.8128	3129.1244	3478.8374	3618.2062
N=C1NCC11OC1C#N	[NH][C]1NC[C@]21O[C@H]2C#N	
InChI=1S/C5H5N3O/c6-1-3-5(9-3)2-8-4(5)7/h3H,2H2,(H2,7,8)	InChI=1S/C5H5N3O/c6-1-3-5(9-3)2-8-4(5)7/h3H,2H2,(H2,7,8)/t3-,5-/m0/s1
