20
gdb 113574	4.32467	0.94242	0.86339	2.3818	82.6	-0.2266	0.0112	0.2378	1380.9432	0.172222	-403.132192	-403.123535	-403.122591	-403.166129	32.837	
O	 0.0338943655	 1.2866305951	-0.5729751767	-0.421781
C	 0.0550592933	 0.1292463745	 0.245469406	-0.065493
C	-1.3160644731	-0.5017614438	 0.3238359853	-0.10463
N	-1.7683756515	-1.1064405929	-0.9463583315	-0.390872
C	-1.5509114715	-1.9690346487	 0.2442077513	 0.331674
C	-0.4564787895	-3.0458487168	 0.1890371009	-0.292127
C	-1.165733198	-4.3709179895	 0.5868536936	-0.273148
C	-2.5130690756	-3.9185353745	 1.0978510298	-0.076997
C	-2.7121801005	-2.6137927634	 0.9123827803	-0.143136
H	-0.3346142274	 0.9991918627	-1.417181737	 0.28933
H	 0.7836379171	-0.6068875487	-0.124519629	 0.088664
H	 0.3840474766	 0.4558164273	 1.2377431593	 0.106267
H	-2.0479173173	 0.0838109349	 0.8795435359	 0.084083
H	-2.7642904453	-0.9471551502	-1.0829379315	 0.228277
H	-0.0027073842	-3.0876681142	-0.8026424081	 0.117222
H	 0.337640758	-2.8164708388	 0.9061192544	 0.109785
H	-1.2814991391	-5.0534484539	-0.2654791276	 0.113246
H	-0.6017781781	-4.9269128961	 1.3444220664	 0.108865
H	-3.227278236	-4.6018160223	 1.5436037038	 0.098038
H	-3.6066435037	-2.0597510807	 1.1779687345	 0.092732
55.8707	84.3319	139.4058	182.5814	271.5081	362.4791	381.3618	439.9905	462.7139	510.6007	615.1185	720.3179	768.9512	797.7435	834.8011	841.103	886.0202	920.4371	969.5334	979.1514	986.9194	1011.3879	1044.0653	1060.6826	1078.9528	1088.9082	1127.6194	1176.0971	1185.3158	1235.6157	1263.3781	1271.7212	1291.0044	1311.4323	1343.0496	1363.5966	1390.8066	1423.8759	1471.5242	1477.7943	1497.2456	1500.1469	1679.4133	2998.8324	3020.5825	3049.4602	3063.1728	3072.9533	3113.7775	3117.2815	3178.4798	3205.6588	3486.4134	3785.3667
OCC1NC11CCC=C1	OC[C@H]1N[C@]21CCC=C2	
InChI=1S/C7H11NO/c9-5-6-7(8-6)3-1-2-4-7/h1,3,6,8-9H,2,4-5H2	InChI=1S/C7H11NO/c9-5-6-7(8-6)3-1-2-4-7/h1,3,6,8-9H,2,4-5H2/t6-,7+/m1/s1
