21
gdb 61052	2.24424	1.34466	0.93714	1.4422	79.1	-0.2455	-0.0298	0.2157	1298.6394	0.180313	-424.221077	-424.211084	-424.210139	-424.256869	35.625	
C	-0.1278061355	 1.4829640395	 0.1420594717	-0.419424
C	 0.0474386156	-0.0285047323	-0.0800584556	-0.092281
C	 0.8295856755	-0.291470944	-1.3535912978	 0.158656
O	 0.5492060934	-1.1144830458	-2.187299918	-0.248295
C	 0.8074225116	-0.6502768828	 1.0989909158	 0.139861
O	 0.1906134784	-0.3524292058	 2.3706258495	-0.296567
C	 0.3190870004	-1.7268227922	 2.7978858629	-0.08145
C	 0.7468550725	-2.1795574993	 1.383730937	-0.051099
C	-0.2793357462	-3.0166493815	 0.6279112194	-0.419021
H	 0.8407759641	 1.9958825366	 0.1566288267	 0.119521
H	-0.7365845964	 1.9299907255	-0.6491670085	 0.123267
H	-0.6162202272	 1.65830167	 1.1026220307	 0.152617
H	-0.9281796371	-0.5107952612	-0.1814581631	 0.098237
H	 1.7359159154	 0.3500650923	-1.470689101	 0.076504
H	 1.8437824988	-0.2742211319	 1.089323803	 0.069265
H	 1.0851681011	-1.8375726605	 3.5761348627	 0.099416
H	-0.6311051183	-2.1283140402	 3.1693401513	 0.104596
H	 1.7270062718	-2.6610936642	 1.3422149864	 0.080558
H	-1.289643866	-2.6102006122	 0.7423573561	 0.122674
H	-0.0559832617	-3.0622723718	-0.441382523	 0.147966
H	-0.2907481101	-4.0389206082	 1.0205801434	 0.114998
43.7943	70.8889	88.0586	172.148	215.4359	231.5145	257.6341	283.156	318.8462	376.3591	416.9216	493.0775	558.1919	771.9276	808.3181	875.2686	900.1508	930.3879	954.3761	962.1871	1014.5554	1022.6747	1052.1629	1092.662	1122.1253	1145.0142	1154.9494	1171.1389	1197.6424	1256.3297	1273.0599	1286.0135	1322.3724	1352.5099	1376.0036	1398.1967	1404.2204	1421.0095	1431.729	1494.9071	1498.7034	1503.0842	1504.5023	1526.6355	1827.4188	2844.7372	2958.8231	3011.9948	3036.0075	3037.3462	3058.2661	3073.9134	3081.4111	3101.708	3106.6783	3122.0652	3136.8389
CC(C=O)C1OCC1C	C[C@@H](C=O)[C@H]1OC[C@H]1C	
InChI=1S/C7H12O2/c1-5(3-8)7-6(2)4-9-7/h3,5-7H,4H2,1-2H3	InChI=1S/C7H12O2/c1-5(3-8)7-6(2)4-9-7/h3,5-7H,4H2,1-2H3/t5-,6+,7+/m0/s1
