16
gdb 45672	3.1637	1.70594	1.12363	3.5151	79.15	-0.1974	-0.0067	0.1907	1029.0614	0.126375	-400.806821	-400.799862	-400.798918	-400.838187	27.418	
O	 0.0245539415	-0.0284699718	 0.0026123583	-0.373798
C	-0.016741041	 1.1801406035	 0.008589023	 0.386762
C	-1.2450252315	 2.1171461319	 0.0326195347	-0.389577
C	-0.658614579	 3.5128083952	 0.0305692106	-0.294506
C	 0.672313537	 3.4016749729	 0.0099775105	 0.404176
C	 1.9368372785	 4.2303113691	-0.0048259529	-0.409245
C	 3.0138303346	 3.1510788372	-0.0264372762	-0.145457
C	 2.4569818277	 1.9336971989	-0.0241503753	-0.015993
N	 1.064683562	 2.0425595608	-0.0028745818	-0.099056
H	-1.8785113	 1.9044633796	-0.836730715	 0.145522
H	-1.8511912503	 1.8955385884	 0.9190605941	 0.145601
H	-1.232785509	 4.4264888589	 0.043977217	 0.107333
H	 1.9873704105	 4.889929025	-0.8805879294	 0.137566
H	 2.0137692127	 4.8810069158	 0.8756810708	 0.137571
H	 4.0734749655	 3.3574494557	-0.0413224665	 0.112018
H	 2.9116451607	 0.9547289388	-0.0359194918	 0.151083
134.6196	148.4913	239.9738	300.184	446.5692	527.2367	541.9376	609.287	629.8089	661.1356	717.614	735.0446	746.9536	869.2938	926.2349	938.546	945.6073	969.9154	973.7018	1024.5355	1049.754	1144.7676	1146.2596	1160.2749	1226.7789	1260.7288	1282.3405	1291.1014	1365.4339	1412.7241	1442.1133	1466.772	1651.4844	1722.9035	1821.4803	3021.1244	3042.1668	3042.3407	3073.194	3244.374	3248.3092	3269.1536
O=C1CC=C2CC=CN12	O=C1CC=C2CC=CN12	
InChI=1S/C7H7NO/c9-7-4-3-6-2-1-5-8(6)7/h1,3,5H,2,4H2	InChI=1S/C7H7NO/c9-7-4-3-6-2-1-5-8(6)7/h1,3,5H,2,4H2
