16
gdb 51511	4.04161	0.94472	0.79882	2.2864	74.81	-0.2533	-0.0426	0.2107	1363.952	0.123806	-437.915673	-437.90745	-437.906506	-437.949806	29.496	
N	-0.1126483227	 1.2961440739	-0.252431361	-0.541578
C	-0.0935004245	 0.0376582746	-0.1321653764	 0.393314
O	 1.0460168136	-0.7376484772	-0.0633379184	-0.254463
C	 0.6891876272	-2.1221483953	 0.0730495326	 0.03235
C	 1.310452982	-2.6991509141	 1.3573051336	-0.287218
C	 2.8258251672	-2.6181161752	 1.3534290172	 0.153287
O	 3.5497209286	-3.5646976063	 1.5234948666	-0.232601
C	-0.815244605	-2.1176316958	 0.0692551657	-0.095761
C	-1.2500478431	-0.8635253812	-0.0425724883	-0.142425
H	 0.8357598704	 1.6718131327	-0.2930073777	 0.226245
H	 1.089861183	-2.661030549	-0.7976119415	 0.118992
H	 0.9323279991	-2.1177442823	 2.2082203972	 0.13354
H	 1.0175440009	-3.745159967	 1.4854021806	 0.126842
H	 3.2329068509	-1.599635763	 1.179502149	 0.100936
H	-1.4031580243	-3.0218182035	 0.153195625	 0.130424
H	-2.2661784934	-0.4998913012	-0.0730835741	 0.138116
50.6575	70.0049	123.9338	172.4969	269.3348	375.6085	416.4382	472.525	532.7009	667.2	689.7678	785.2711	811.9638	846.2707	869.7958	883.2549	913.7663	977.4927	1000.6756	1014.6329	1074.1534	1090.8982	1101.8235	1124.5351	1222.1197	1255.2924	1276.6855	1344.9579	1358.2605	1380.7245	1423.4225	1451.3865	1660.5312	1764.1055	1833.1965	2915.2494	3005.8064	3034.9609	3107.7959	3227.7668	3262.9689	3483.9104
N=C1OC(CC=O)C=C1	[NH]C1=C[CH][C@@H](O1)CC=O	
InChI=1S/C6H7NO2/c7-6-2-1-5(9-6)3-4-8/h1-2,4-5,7H,3H2	InChI=1S/C6H7NO2/c7-6-2-1-5(9-6)3-4-8/h1-2,4-5,7H,3H2/t5-/m1/s1
