22
gdb 120573	3.66254	0.73295	0.69308	4.4465	88.64	-0.2757	0.0392	0.3149	1734.7929	0.19287	-367.231271	-367.220819	-367.219875	-367.26714	37.804	
C	 0.0697808325	 1.5564953282	 0.1149157732	-0.383545
C	-0.0201424676	 0.0305475708	 0.1926308378	-0.158597
C	-1.393832526	-0.5090462082	-0.2331385555	-0.20981
C	-1.4613347404	-2.0204401031	-0.1595830805	-0.022282
C	-1.8518247011	-2.7451703162	 1.0962642258	-0.312491
C	-2.7865101479	-2.7854120692	-0.10859938	 0.134669
C	-4.1297204811	-2.0716452833	-0.0558521203	-0.460159
C	-2.8149071814	-4.0221103341	-0.8518697419	 0.239912
N	-2.8464137358	-5.0090470915	-1.4557208089	-0.350406
H	 1.0586048401	 1.9121847799	 0.4197653489	 0.11633
H	-0.112668754	 1.9130989295	-0.9048480282	 0.1173
H	-0.6706609156	 2.0317406754	 0.7680324444	 0.114754
H	 0.7550154463	-0.4167998191	-0.4428271305	 0.101364
H	 0.1956368346	-0.3033694564	 1.2153172197	 0.102041
H	-2.165984624	-0.0601096369	 0.4022689163	 0.096716
H	-1.6097348809	-0.1814021881	-1.2588363876	 0.106043
H	-0.6985731595	-2.5179464844	-0.753173179	 0.108865
H	-1.327234416	-3.6530147263	 1.3692330581	 0.135449
H	-2.2002762217	-2.1534380192	 1.9370833862	 0.121295
H	-4.0712225326	-1.1725017309	 0.5602659301	 0.125609
H	-4.4616512485	-1.7803793313	-1.0568935558	 0.137912
H	-4.8923308993	-2.7262730155	 0.3760254677	 0.139031
65.9143	79.6081	103.3933	154.8095	175.7017	198.8184	244.5941	260.6268	301.6668	359.4689	402.5983	456.4866	577.3638	594.8644	673.1618	747.8953	831.934	859.0766	871.2271	902.8028	943.2001	957.8278	995.1695	1048.2434	1070.0393	1089.593	1111.4882	1123.3489	1140.268	1197.3169	1257.3209	1281.6758	1299.6711	1311.3288	1333.7735	1385.9691	1411.8851	1419.8734	1424.171	1479.0876	1487.1122	1489.6273	1494.9889	1499.4959	1502.7698	1510.7695	2345.6928	3016.5575	3024.0378	3030.8995	3045.0949	3048.3583	3068.8479	3097.5908	3105.0612	3111.8016	3132.709	3135.8706	3143.1345	3226.3187
CCCC1CC1(C)C#N	CCC[C@H]1C[C@]1(C)C#N	
InChI=1S/C8H13N/c1-3-4-7-5-8(7,2)6-9/h7H,3-5H2,1-2H3	InChI=1S/C8H13N/c1-3-4-7-5-8(7,2)6-9/h7H,3-5H2,1-2H3/t7-,8+/m0/s1
