15
gdb 17419	3.0344	2.67801	1.8506	2.8063	64.85	-0.2448	-0.0116	0.2332	749.1698	0.119039	-362.629092	-362.62241	-362.621466	-362.659709	25.601	
C	 0.007173408	 1.5838140813	 0.0671844733	-0.500113
C	 0.0033453127	 0.0870809297	 0.0489956344	 0.192043
C	-1.2647363411	-0.7822145719	 0.2179872625	-0.290335
C	-0.3094302263	-1.7866497637	 0.8431496308	-0.021672
C	 0.9917888875	-1.7938472201	 0.0941914264	-0.190974
N	 0.7045666663	-0.7643657585	 1.1938226916	-0.17587
C	 0.8826071193	-0.7102300402	-0.9240471606	 0.444607
O	 1.4426828526	-0.439010235	-1.9479310078	-0.338189
H	 1.0301455216	 1.9704607003	 0.0575096266	 0.14304
H	-0.5051337698	 1.9643972995	-0.8228535656	 0.139946
H	-0.5061045974	 1.9706039828	 0.9523526232	 0.129644
H	-1.9345168644	-0.3659054137	 0.9758449351	 0.118959
H	-1.8334988688	-1.0487318305	-0.6779165957	 0.11471
H	-0.5410171686	-2.5984039032	 1.5244216813	 0.111037
H	 1.7400152985	-2.5667447066	 0.2122209946	 0.123165
146.4926	170.4265	233.5299	294.9851	387.9677	480.1268	621.6454	653.6371	718.0305	730.1854	772.4841	826.4497	834.9207	900.6993	977.6471	994.4715	1014.3883	1028.3209	1071.4778	1103.9009	1116.739	1141.9959	1218.0497	1240.3455	1298.3674	1346.8699	1349.7275	1413.4248	1477.0292	1487.487	1498.2204	1888.3456	3040.2751	3049.8812	3104.8724	3110.8658	3119.7754	3174.3602	3213.5119
CC12CC3C(N13)C2=O	C[C@]12C[C@H]3[C@H](N13)C2=O	
InChI=1S/C6H7NO/c1-6-2-3-4(5(6)8)7(3)6/h3-4H,2H2,1H3	InChI=1S/C6H7NO/c1-6-2-3-4(5(6)8)7(3)6/h3-4H,2H2,1H3/t3-,4-,6+,7?/m0/s1
