18
gdb 51416	3.87027	1.08593	1.01272	3.5423	79.29	-0.2365	0.0031	0.2395	1211.4117	0.149475	-401.936423	-401.928872	-401.927927	-401.96912	29.522	
O	 0.3091809823	 0.7618292724	 1.8737639357	-0.316747
C	 0.2813187939	 1.7491333283	 1.1725653938	 0.150415
N	 1.2882148275	 2.1732980004	 0.354044768	-0.314546
C	 2.5408968544	 1.47802333	 0.221730472	 0.102466
C	 3.092902319	 1.2257646067	-1.2447223344	-0.096204
C	 3.6007032857	 2.7059772571	-1.2027051788	-0.23073
C	 3.8729957614	 2.3378611369	 0.2942722748	-0.09614
C	 4.8859926523	 1.207142272	 0.1217488546	-0.082497
C	 4.3771884224	 0.4817804603	-0.8819501312	-0.082523
H	-0.5925995595	 2.429439463	 1.1233628555	 0.072986
H	 1.1271164141	 3.0158254009	-0.1745252461	 0.246707
H	 2.4937709282	 0.6083882079	 0.8741100995	 0.119915
H	 2.4578791106	 0.8402085528	-2.0415578072	 0.067237
H	 4.4674015919	 2.9522029033	-1.8199460197	 0.101979
H	 2.8167125838	 3.4578156548	-1.348538061	 0.08098
H	 4.0341398575	 3.0873886743	 1.0682789249	 0.067256
H	 5.7670717683	 1.0408392786	 0.7245275631	 0.104723
H	 4.7287674163	-0.4393662197	-1.3237403035	 0.104723
45.0108	152.2203	185.11	283.4523	389.8484	449.7651	526.0909	529.7189	552.3178	681.1979	712.2279	760.6858	829.1396	840.3902	908.3645	916.7729	933.1769	937.1682	951.9166	995.9357	1029.7034	1054.7756	1062.0716	1077.489	1110.2836	1144.0157	1201.3963	1205.597	1230.1281	1232.4942	1245.9999	1259.7269	1326.9733	1359.924	1435.7936	1505.7032	1531.6718	1617.1726	1810.1405	2930.0049	3037.6457	3112.1531	3124.1402	3125.9844	3150.9411	3223.8228	3249.7931	3635.744
O=CNC1C2CC1C=C2	O=CN[C@H]1[C@H]2C[C@@H]1C=C2	
InChI=1S/C7H9NO/c9-4-8-7-5-1-2-6(7)3-5/h1-2,4-7H,3H2,(H,8,9)	InChI=1S/C7H9NO/c9-4-8-7-5-1-2-6(7)3-5/h1-2,4-7H,3H2,(H,8,9)/t5-,6+,7+
