18
gdb 55180	3.29412	1.22698	1.17221	4.9348	71.45	-0.2363	0.021	0.2574	1115.1515	0.148171	-439.079988	-439.071484	-439.07054	-439.114158	31.224	
N	 0.3469178974	 0.4634688713	 1.5209930766	-0.529736
C	 0.1638378656	 0.0659181671	 0.2278451897	 0.405651
O	 0.948371142	 0.3601820888	-0.6565483957	-0.364306
C	-1.0522572528	-0.810893626	-0.0135670588	-0.10469
C	-1.6541424662	-0.8148193261	-1.4514900524	-0.259627
C	-1.5435650128	-2.3629848677	-1.4949495351	 0.122278
O	-0.380997426	-2.8349259658	-2.1914739682	-0.286535
C	 0.4099932882	-2.7995221981	-0.975830081	-0.086451
C	-0.8037101246	-2.3522911837	-0.1312620762	-0.1053
H	 1.151430785	 1.0288207094	 1.7383079529	 0.260805
H	-0.3177426335	 0.2656858766	 2.2473488042	 0.257348
H	-1.8187937131	-0.6211625335	 0.743864948	 0.068733
H	-2.6644928717	-0.4055794601	-1.5204902613	 0.09903
H	-1.0058919235	-0.3363706437	-2.1871600642	 0.139961
H	-2.4406055886	-2.9422445377	-1.7284886444	 0.074211
H	 0.7882776132	-3.7972030689	-0.7231342965	 0.09837
H	 1.241863498	-2.0923967497	-1.0442627884	 0.134576
H	-1.0635971866	-2.9688700221	 0.7285590608	 0.075683
39.3287	86.1221	116.4432	182.6138	240.7618	365.0272	388.5501	416.7417	571.4394	621.1466	645.7423	733.3478	749.3382	792.6329	849.751	894.7243	914.129	965.102	993.4333	1013.5138	1047.6211	1056.2697	1072.3589	1096.6453	1138.1933	1171.0051	1189.2334	1203.9883	1246.8604	1266.8939	1278.2832	1296.9275	1325.6408	1368.0741	1409.5539	1460.712	1516.3833	1616.8596	1782.7443	3025.1542	3053.8492	3067.9359	3077.5371	3091.2828	3113.2608	3142.0089	3602.7786	3741.813
NC(=O)C1CC2OCC12	NC(=O)[C@H]1C[C@H]2OC[C@@H]12	
InChI=1S/C6H9NO2/c7-6(8)3-1-5-4(3)2-9-5/h3-5H,1-2H2,(H2,7,8)	InChI=1S/C6H9NO2/c7-6(8)3-1-5-4(3)2-9-5/h3-5H,1-2H2,(H2,7,8)/t3-,4-,5+/m0/s1
