16
gdb 37659	2.89162	2.69142	2.28168	0.8302	66.91	-0.2253	0.0719	0.2972	711.7742	0.129268	-400.713806	-400.709028	-400.708083	-400.742668	22.125	
O	-0.03967125	 1.461480882	 0.0216934661	-0.244589
C	 1.3729735139	 1.7255848478	 0.0017925664	 0.011021
C	 1.9177256685	 0.9098975439	 1.1994996424	-0.07624
C	 0.9903765268	-0.290651839	 1.201476655	-0.07624
C	 2.3860239699	-0.4111605665	 0.6584060691	-0.040964
N	 2.3664666458	-0.3984632387	-0.8132546595	-0.124247
C	 1.8659832198	 0.9244926829	-1.2305778646	-0.049469
C	 0.9593256525	-0.2492851837	-1.2286473569	-0.04947
C	 0.0616284087	 0.0278987891	 0.0045816312	 0.011021
H	 1.5562270677	 2.7975356516	 0.0033286047	 0.080807
H	 2.2989465176	 1.3780098498	 2.0972638292	 0.095101
H	 0.635170614	-0.7759028225	 2.1008094755	 0.095101
H	 3.1615944387	-1.0094771212	 1.1214174837	 0.096272
H	 2.3004830421	 1.3960085386	-2.1046446098	 0.095544
H	 0.6114815671	-0.79061083	-2.1010468265	 0.095544
H	-0.9292550031	-0.4202041441	 0.0086154241	 0.080807
538.6917	582.5677	605.5933	659.4357	674.0781	728.2844	771.1715	784.6248	800.6891	826.3866	836.0373	865.6513	903.1538	910.1053	923.0743	933.8804	948.0069	983.7863	984.6579	1025.6461	1056.6413	1060.9466	1082.9803	1098.5156	1102.5567	1213.3466	1221.7224	1243.4677	1244.1793	1248.828	1280.6235	1303.2996	1323.3502	1360.7108	1371.0377	3151.6823	3153.7157	3170.7038	3179.829	3182.1956	3198.3139	3208.0811
O1C2C3C4C3N3C2C3C14	O1[C@H]2[C@H]3[C@@H]4[C@H]3N3[C@H]2[C@@H]3[C@H]14	
InChI=1S/C7H7NO/c9-6-1-2-3(1)8-4(6)5(8)7(2)9/h1-7H	InChI=1S/C7H7NO/c9-6-1-2-3(1)8-4(6)5(8)7(2)9/h1-7H/t1-,2+,3-,4-,5+,6-,7+,8?
