23
gdb 114522	2.55904	1.36979	1.06484	1.0297	85.7	-0.2418	0.0703	0.312	1249.7124	0.205753	-388.255061	-388.245792	-388.244847	-388.289337	35.244	
C	 0.2644396962	 1.7502133164	-0.4872718722	-0.238945
O	-0.3355004363	 0.4974675038	-0.7256933261	-0.237615
C	 0.5717700294	-0.4700153272	-1.1851471124	 0.167491
C	 1.5881634655	-1.113417343	-0.1907365167	-0.282832
C	 1.1705971875	-2.518182512	-0.7130706406	-0.008245
C	 0.1472021411	-3.2445474318	 0.1907333698	-0.249061
C	-1.028813789	-2.5601550385	-0.5806904244	 0.044819
C	-2.0472616989	-1.7607039771	 0.2238020927	-0.395487
C	-0.0037257269	-1.8567237342	-1.5332155743	-0.103565
H	 1.0345790905	 1.697274994	 0.2970058141	 0.107821
H	 0.7314398659	 2.1553109513	-1.3993784614	 0.102466
H	-0.5229056753	 2.4336494363	-0.1601129907	 0.125585
H	 1.1131841768	-0.0759987722	-2.0616463136	 0.062545
H	 2.6331930621	-0.8333785007	-0.343098532	 0.095188
H	 1.3325318867	-0.9512575762	 0.8608918778	 0.100025
H	 1.9546662974	-3.1131818513	-1.1813525121	 0.06105
H	 0.155260593	-4.3338796979	 0.0971606209	 0.093418
H	 0.2211596983	-2.994713633	 1.2545761287	 0.090512
H	-1.5683828745	-3.31018531	-1.1685463706	 0.071899
H	-1.5687359169	-1.0142642017	 0.8605551041	 0.121851
H	-2.7430205605	-1.2278565094	-0.432167083	 0.113995
H	-2.6315776228	-2.4356960198	 0.8605050966	 0.099119
H	-0.1763477592	-2.0350986759	-2.5960316648	 0.057965
54.211	101.4585	135.2408	190.6544	240.1508	270.0071	316.2302	358.3862	386.1705	423.0273	552.6347	621.1175	705.9574	752.2124	819.3402	840.6372	876.0664	903.3255	924.5624	975.9559	1006.0201	1023.9395	1046.7691	1071.3152	1115.0819	1122.0914	1133.0831	1150.9199	1181.992	1186.6658	1192.181	1220.7613	1234.1613	1247.5308	1271.1486	1280.0117	1297.2899	1321.2475	1339.0764	1361.409	1396.6728	1415.4603	1474.8966	1480.7388	1486.1376	1489.3997	1492.9427	1494.9137	1509.967	2950.6154	2972.2516	3019.2736	3028.5152	3035.8493	3040.5152	3051.3208	3084.2982	3090.0988	3093.4105	3100.2003	3113.1938	3113.5404	3130.9328
COC1CC2CC(C)C12	CO[C@H]1C[C@H]2C[C@@H](C)[C@@H]12	
InChI=1S/C8H14O/c1-5-3-6-4-7(9-2)8(5)6/h5-8H,3-4H2,1-2H3	InChI=1S/C8H14O/c1-5-3-6-4-7(9-2)8(5)6/h5-8H,3-4H2,1-2H3/t5-,6-,7+,8-/m1/s1
