23
gdb 108253	2.4505	1.29755	1.25911	1.754	84.92	-0.2348	0.0711	0.3059	1209.6765	0.204639	-388.274876	-388.265303	-388.264359	-388.309084	36.444	
C	 0.0160832597	 1.5944365869	-0.0345472436	-0.380916
C	-0.0065084941	 0.0682519527	-0.197320113	-0.295042
C	-1.3897725597	-0.5214367126	-0.0143297237	 0.277118
C	-2.4641399642	-0.2723471235	-1.1141409422	-0.28687
C	-2.8014806431	-1.795151038	-1.1497510657	-0.265608
C	-1.7471903063	-2.051557337	-0.0429202032	 0.396045
C	-0.7903997486	-3.2087993451	-0.1637047753	-0.475736
O	-2.3434574135	-1.9621597744	 1.2764134844	-0.334255
C	-1.9900206653	-0.5677246588	 1.4042051459	-0.125858
H	 1.0250264915	 1.9925937321	-0.1780422195	 0.114244
H	-0.6416606614	 2.0806082424	-0.762753902	 0.120739
H	-0.3193481193	 1.8918149769	 0.9650524976	 0.119279
H	 0.3741344986	-0.197232269	-1.1924553437	 0.093557
H	 0.6826429335	-0.3859422623	 0.5268314479	 0.097208
H	-3.282439893	 0.3956815526	-0.831779327	 0.097924
H	-2.0342917732	 0.0944066419	-2.0503791618	 0.098066
H	-3.8142281003	-2.0741816355	-0.8516278283	 0.107505
H	-2.5688367982	-2.2726194829	-2.105827639	 0.095857
H	-0.3038715486	-3.2169879343	-1.1443890882	 0.1137
H	-0.0189956633	-3.1657896523	 0.6109852871	 0.120356
H	-1.3326405165	-4.1544425668	-0.0471422803	 0.127861
H	-1.2604141154	-0.4140255634	 2.212037063	 0.091313
H	-2.8640711896	 0.0693044605	 1.5925013107	 0.093513
81.4349	95.9153	134.1946	195.993	221.2734	245.0167	305.2625	337.9421	353.4286	382.6536	493.6392	579.1896	665.1398	701.8326	748.2364	791.8797	864.1695	892.6913	909.5146	932.3357	949.1148	981.2704	999.6237	1013.5343	1023.6869	1066.1191	1106.0723	1156.4088	1177.0585	1189.3046	1217.2915	1222.9405	1233.4156	1253.5677	1289.4693	1312.0692	1325.1754	1357.6037	1378.0812	1406.2382	1411.6614	1465.0976	1478.6106	1482.9731	1488.4944	1490.2249	1501.1466	1506.1641	1524.4609	2990.53	3011.8941	3030.1782	3032.8733	3036.0312	3044.6212	3050.0978	3059.5831	3096.3016	3096.9059	3099.9135	3105.787	3110.7627	3121.9617
CCC12CCC1(C)OC2	CC[C@@]12CC[C@]1(C)OC2	
InChI=1S/C8H14O/c1-3-8-5-4-7(8,2)9-6-8/h3-6H2,1-2H3	InChI=1S/C8H14O/c1-3-8-5-4-7(8,2)9-6-8/h3-6H2,1-2H3/t7-,8-/m0/s1
