16
gdb 23262	2.84764	1.51388	1.06288	2.0234	75.82	-0.2351	-0.0467	0.1884	1097.0041	0.123738	-437.832323	-437.82442	-437.823475	-437.864568	30.377	
C	 0.0434023011	 1.5451940061	-0.0605488421	-0.488296
C	-0.0274620882	 0.0497897248	-0.0197509263	 0.225575
C	-0.1179906983	-0.7704553085	-1.0858982875	-0.174766
C	-0.0535504673	-2.2069330251	-0.682624735	-0.009551
O	 1.194041007	-2.5576227004	-0.0401314868	-0.255139
C	 0.0640774614	-2.2207545602	 0.7814216815	-0.051038
C	 0.0347504438	-0.7835078665	 1.2095210427	 0.339307
N	 0.0229734296	-0.5094416121	 2.4589608353	-0.240105
O	-0.0165705561	 0.8599691267	 2.723821471	-0.383221
H	 0.9745820196	 1.9066869783	 0.3870109679	 0.143813
H	-0.0083420849	 1.9014459499	-1.0930418926	 0.116108
H	-0.7694980765	 1.9974666836	 0.5140759305	 0.143194
H	-0.176656599	-0.4400739729	-2.1159981013	 0.109393
H	-0.5188406862	-2.9981079049	-1.2613684189	 0.102558
H	-0.3037063495	-3.0003470374	 1.4391440753	 0.109806
H	-0.0195624365	 0.8811243085	 3.6871222863	 0.312361
106.9159	190.4945	210.4571	237.8759	313.8822	343.5673	414.5677	449.1145	481.3695	493.7376	648.8774	724.4856	757.063	764.2096	815.225	850.5138	875.4872	961.2073	985.1148	1000.6418	1040.3177	1068.6058	1096.4266	1150.8271	1232.3911	1251.9611	1304.4289	1341.8269	1387.4822	1414.0086	1421.0626	1474.2077	1481.7808	1657.7131	1724.2262	3042.7605	3105.2551	3121.2762	3169.0709	3184.865	3207.2555	3812.1065
CC1=CC2OC2C1=NO	CC1=C[C@H]2O[C@H]2C1=NO	
InChI=1S/C6H7NO2/c1-3-2-4-6(9-4)5(3)7-8/h2,4,6,8H,1H3	InChI=1S/C6H7NO2/c1-3-2-4-6(9-4)5(3)7-8/h2,4,6,8H,1H3/t4-,6-/m1/s1
