21
gdb 94270	2.94085	1.48326	1.20516	1.9614	81.91	-0.2296	0.0783	0.3079	1110.4846	0.182444	-387.009087	-387.000958	-387.000014	-387.041714	32.328	
C	-0.1829934219	 1.5224231218	-0.0340739323	-0.397334
C	 0.01538883	 0.0083370664	-0.0827470683	-0.091315
C	 1.2455795848	-0.4520490176	-0.926305826	-0.231733
C	 2.0344992139	-0.7396722967	 0.3838114737	-0.315291
C	 0.7144741487	-0.6002348046	 1.1636536232	 0.45149
C	 0.6026905798	-0.1581675058	 2.6433985037	-0.03529
C	-0.8048993778	-0.7939601996	 2.7275658988	-0.233826
C	 0.1556800383	-1.7712613981	 2.0118335375	-0.02879
O	 1.1848462611	-1.4680135873	 3.0353743282	-0.320324
H	 0.7463160946	 2.0366079481	 0.236784243	 0.114598
H	-0.5001581548	 1.9050688213	-1.010176092	 0.115487
H	-0.9452213618	 1.8058521159	 0.7000028127	 0.114914
H	-0.9281639828	-0.4761616924	-0.3551138959	 0.066273
H	 1.0451855273	-1.3564789167	-1.5061258129	 0.099975
H	 1.6684082356	 0.3003561924	-1.597096201	 0.095242
H	 2.5447582453	-1.7013993103	 0.4609444299	 0.109211
H	 2.754938822	 0.0464501205	 0.6276223537	 0.102835
H	 0.995977226	 0.731014991	 3.138263984	 0.088768
H	-1.1114759845	-1.1008793931	 3.728221456	 0.105689
H	-1.6162607433	-0.3443904262	 2.14980454	 0.099035
H	 0.0104534394	-2.818402949	 1.7406201738	 0.090386
73.0638	151.608	197.1988	251.2665	268.8274	323.8708	424.9252	450.8782	548.1616	640.5899	717.9052	743.1614	790.8212	806.3364	862.5716	881.2483	886.8951	917.5066	933.2607	954.0904	1000.4862	1015.0184	1026.1419	1067.5358	1097.5649	1119.7484	1150.3032	1165.7889	1169.4812	1179.6742	1186.7067	1208.9515	1220.2047	1255.4004	1267.7389	1273.7277	1282.0381	1333.1855	1357.1858	1409.3652	1477.4376	1484.0588	1494.7454	1497.8473	1498.754	3024.3997	3039.9375	3057.9543	3063.1286	3065.0665	3092.0425	3094.1184	3101.8583	3104.1045	3109.9287	3121.3722	3146.2686
CC1CCC11C2CC1O2	C[C@H]1CC[C@]21[C@H]1C[C@@H]2O1	
InChI=1S/C8H12O/c1-5-2-3-8(5)6-4-7(8)9-6/h5-7H,2-4H2,1H3	InChI=1S/C8H12O/c1-5-2-3-8(5)6-4-7(8)9-6/h5-7H,2-4H2,1H3/t5-,6-,7+,8+/m0/s1
