18
gdb 9508	2.98028	1.68275	1.47834	3.0906	68.24	-0.2521	-0.0287	0.2234	949.6621	0.151201	-384.935361	-384.926526	-384.925582	-384.969401	31.291	
C	-0.3465190275	 1.4433712016	-0.0285245966	-0.409051
C	 0.1470909359	 0.0100910435	-0.0549764169	 0.124996
O	 1.3575390656	-0.1463916811	-0.8207619198	-0.290411
C	 2.0600545292	-0.7561455608	 0.2829380824	-0.114319
C	 0.8429163716	-0.6131875555	 1.2154311405	 0.147461
C	 1.0043224738	 0.2710268985	 2.4501205429	-0.476354
C	 0.1827118836	-1.9174856032	 1.603337141	 0.115953
O	 0.5929718977	-3.0179640161	 1.3386802247	-0.248315
H	 0.4145893758	 2.1274665011	 0.3548364069	 0.123854
H	-0.5958432866	 1.7544265761	-1.0478809762	 0.135497
H	-1.2493188792	 1.5358916975	 0.584618093	 0.117696
H	-0.6459811855	-0.6399128136	-0.4544823615	 0.081072
H	 2.3468900815	-1.7916422742	 0.0743875928	 0.127237
H	 2.9441026544	-0.1764282754	 0.5741103672	 0.097987
H	 1.4156765467	 1.2487999179	 2.1893006459	 0.133828
H	 0.0466713446	 0.4314291233	 2.9579418892	 0.124801
H	 1.6876278282	-0.196225243	 3.1676400038	 0.132821
H	-0.7708959796	-1.7842759865	 2.1681178206	 0.075247
40.898	65.5946	195.5127	208.0211	231.6488	274.0033	295.3782	339.5878	371.1271	460.8228	577.851	688.8033	777.9904	872.9375	887.8361	930.5031	964.5472	1001.6758	1026.089	1048.2302	1094.0633	1120.3157	1164.0371	1173.5106	1231.9672	1267.7814	1295.9427	1358.0585	1382.8698	1403.5535	1410.3937	1428.033	1476.3761	1487.3885	1495.0705	1507.5051	1522.9123	1827.8902	2847.819	2982.9992	3025.0731	3032.6662	3040.1035	3084.8643	3095.3223	3108.687	3117.7781	3127.3847
CC1OCC1(C)C=O	C[C@H]1OC[C@]1(C)C=O	
InChI=1S/C6H10O2/c1-5-6(2,3-7)4-8-5/h3,5H,4H2,1-2H3	InChI=1S/C6H10O2/c1-5-6(2,3-7)4-8-5/h3,5H,4H2,1-2H3/t5-,6+/m1/s1
