20
gdb 90295	3.3828	1.21998	1.09787	3.6253	80.11	-0.2438	0.0228	0.2666	1201.518	0.171474	-403.141552	-403.133219	-403.132275	-403.174289	32.446	
C	-0.4155178114	 1.4061524469	-0.3167035286	-0.393266
C	-0.025766714	-0.0294746499	-0.0545009666	 0.082276
O	 1.2680795325	-0.3620642373	-0.7413208628	-0.289343
C	 1.8570281379	-0.4070739343	 0.488629916	 0.429493
N	 2.9863038147	-0.1080341983	 0.9632833218	-0.324584
C	 2.6851920892	 0.1023332352	 2.4213900709	 0.066044
C	 3.571551437	 1.2030493839	 2.9879027423	-0.382794
C	 1.1394183972	 0.4332827817	 2.4902241882	-0.273875
C	 0.6249917934	-0.417069376	 1.3196432446	-0.160842
H	 0.3681597809	 2.0952812491	 0.00990712	 0.136873
H	-0.5866663365	 1.5645558366	-1.3850231202	 0.138364
H	-1.3392994706	 1.6460960702	 0.2199120897	 0.126897
H	-0.790425564	-0.7328164088	-0.3916468954	 0.098929
H	 2.8817963095	-0.8304636088	 2.9698717307	 0.079549
H	 3.434037773	 2.1330350286	 2.4266492575	 0.116768
H	 3.32797692	 1.3924849881	 4.0390295362	 0.107324
H	 4.6260838896	 0.9228353959	 2.9216262279	 0.127836
H	 0.6917824194	 0.1906494357	 3.4572474203	 0.102597
H	 1.000876939	 1.5047888067	 2.307615652	 0.107905
H	 0.2976318332	-1.4117828251	 1.6325632058	 0.103851
85.6984	161.8241	206.1014	238.9958	245.8601	307.3219	394.0771	442.8329	483.6666	514.8615	574.3326	667.8784	754.6266	778.3968	793.9754	825.5397	887.9089	922.5038	952.3615	1014.1003	1033.4087	1051.3472	1078.423	1111.216	1135.959	1145.7738	1169.9324	1201.1745	1212.4827	1267.412	1300.6231	1337.238	1345.7511	1366.3942	1370.6256	1405.8482	1412.1859	1480.9571	1481.5183	1485.9846	1496.9313	1498.9465	1770.5161	2995.4252	3034.1111	3042.4445	3048.4785	3072.9546	3088.5478	3102.781	3108.7395	3116.1277	3119.4265	3125.7957
CC1OC2=NC(C)CC12	C[C@H]1O[C]2[N][C@@H](C)C[C@@H]12	
InChI=1S/C7H11NO/c1-4-3-6-5(2)9-7(6)8-4/h4-6H,3H2,1-2H3	InChI=1S/C7H11NO/c1-4-3-6-5(2)9-7(6)8-4/h4-6H,3H2,1-2H3/t4-,5+,6-/m0/s1
