18
gdb 128103	1.94064	1.80153	0.99794	1.333	75.23	-0.2109	0.0322	0.243	1192.4477	0.148252	-435.282516	-435.273018	-435.272074	-435.317108	34.224	
C	 0.0910151374	 1.4572738105	-0.3041125025	-0.324926
N	-0.0745575747	 0.0234363182	-0.0332990452	-0.398584
C	 0.6346772019	-0.4464525867	 1.0995529734	-0.005433
C	 1.7796112807	-1.2285852748	 1.0844640441	 0.362246
C	 2.5422525255	-1.7752414612	-0.0731587251	-0.506876
N	 2.114708948	-1.4313044579	 2.3812467774	-0.288564
N	 1.2569054152	-0.8418223941	 3.2628668478	-0.338508
C	 0.3743592959	-0.2471881168	 2.4811457557	 0.374302
O	-0.6692532889	 0.4571667996	 2.9744876794	-0.437792
H	 1.1401332928	 1.659747222	-0.5401388603	 0.12093
H	-0.5103398526	 1.7278862919	-1.1776872226	 0.112051
H	-0.1998723621	 2.1045594497	 0.5369070911	 0.115719
H	-1.0626726696	-0.1825799201	 0.0677890952	 0.228914
H	 3.5254736786	-1.3024242873	-0.18142084	 0.132781
H	 2.7017795575	-2.8554949565	 0.0173857233	 0.128901
H	 1.9701369894	-1.5845789879	-0.9838673604	 0.156984
H	 2.887473502	-1.9616397194	 2.7424737771	 0.26718
H	-0.6104411069	 0.4131639709	 3.9371385617	 0.300671
46.5966	126.8252	148.3661	182.6709	191.9045	256.958	278.3096	328.548	386.9349	398.7559	470.2236	536.5322	581.4113	663.3512	697.116	737.1873	788.9733	827.4255	994.1006	1045.3868	1051.2627	1064.927	1143.0168	1158.0443	1183.1061	1220.865	1294.6832	1323.828	1407.981	1443.5373	1464.3887	1471.615	1488.2494	1489.9392	1494.8457	1517.8568	1543.0644	1565.6283	1652.456	2989.9302	3028.3055	3070.82	3079.8741	3107.5	3130.7835	3519.5911	3687.9548	3793.6437
CNC1=C(C)NN=C1O	CNc1c(C)[nH]nc1O	
InChI=1S/C5H9N3O/c1-3-4(6-2)5(9)8-7-3/h6H,1-2H3,(H2,7,8,9)	InChI=1S/C5H9N3O/c1-3-4(6-2)5(9)8-7-3/h6H,1-2H3,(H2,7,8,9)
