18
gdb 111643	2.65998	1.48516	1.3751	2.7994	71.91	-0.2433	0.0347	0.278	1039.7077	0.148607	-439.057642	-439.049538	-439.048594	-439.090676	29.953	
C	 0.0897019079	 0.9705721445	 0.3428790751	-0.234908
O	-0.4342364107	-0.1161760837	-0.3989675576	-0.227142
C	 0.4475407092	-0.5991445731	-1.3524034901	 0.083194
C	 1.3674619702	-1.7624057909	-1.003851802	-0.169342
C	 1.2967997392	-2.4048233008	 0.3752017869	-0.169063
N	 0.0926201126	-3.1645263355	 0.6795449916	-0.266273
C	-0.8385622665	-3.2313072684	-0.1659390996	 0.140523
O	-0.9344970814	-2.687985055	-1.4088768253	-0.216625
C	 0.1672279565	-1.9698477233	-1.8957615153	 0.049036
H	 1.013204681	 0.6994934309	 0.8719574251	 0.114124
H	 0.3025444235	 1.8315320026	-0.3084151422	 0.109697
H	-0.6721762473	 1.2553483678	 1.0713717466	 0.135199
H	 0.819463192	 0.1483967478	-2.0558472128	 0.087565
H	 2.3421385561	-1.7814526126	-1.4817431595	 0.095056
H	 2.1466765978	-3.0895746475	 0.4790208317	 0.118087
H	 1.4209209392	-1.656670227	 1.168000218	 0.115353
H	-1.7470881641	-3.7904412897	 0.0461546369	 0.123824
H	 0.2924271151	-2.1530867159	-2.9567473576	 0.111693
81.0895	129.5454	144.6026	181.203	222.7389	319.2524	476.9146	505.3976	527.7174	633.4207	651.2597	744.328	794.2321	846.6325	926.0867	939.8196	959.2964	987.943	1042.3892	1054.8484	1084.829	1110.9631	1125.3052	1147.0108	1182.2878	1184.5866	1237.6441	1262.3837	1278.0834	1344.964	1351.8541	1367.6092	1414.3635	1445.547	1479.9411	1485.7464	1488.8507	1508.7178	1753.6116	2988.4705	3023.7741	3043.9671	3050.6106	3081.4123	3127.1334	3149.9654	3167.3707	3175.4067
COC1C2CN=COC12	CO[C@H]1[C@H]2CN=CO[C@@H]12	
InChI=1S/C6H9NO2/c1-8-5-4-2-7-3-9-6(4)5/h3-6H,2H2,1H3	InChI=1S/C6H9NO2/c1-8-5-4-2-7-3-9-6(4)5/h3-6H,2H2,1H3/t4-,5+,6-/m1/s1
