15
gdb 50897	5.34809	0.64178	0.61383	1.5802	69.11	-0.2651	-0.0405	0.2246	1717.7584	0.110558	-453.991177	-453.981619	-453.980675	-454.027983	31.812	
O	 0.2164167417	-0.1130539876	-0.1526078619	-0.23009
C	 0.1413351488	 1.0822037317	-0.245647687	 0.165662
C	 1.3367096463	 2.0142304779	-0.0750375641	-0.395252
C	 1.2985648806	 3.1339469312	-1.1056446543	 0.415916
O	 0.3047425318	 3.814271886	-1.2760533432	-0.362853
N	 2.4444614896	 3.2936529509	-1.8377100959	-0.32146
C	 2.5599978014	 4.3541877308	-2.8198238493	-0.283705
C	 3.6325904418	 5.302161304	-2.4942348006	 0.256146
N	 4.4956404871	 6.0271179474	-2.2420434021	-0.292206
H	-0.8114681971	 1.6075334624	-0.4570384979	 0.117907
H	 1.2304849733	 2.4928817533	 0.9076582236	 0.169204
H	 2.2571548947	 1.4261447011	-0.0775708171	 0.125984
H	 3.2551699796	 2.7335010963	-1.6308579362	 0.267558
H	 2.7390631247	 3.9509007149	-3.8234234708	 0.165191
H	 1.5953831756	 4.8710326995	-2.8308827333	 0.201996
27.419	48.3775	66.1562	100.0219	202.6515	241.7078	299.5446	371.4693	377.3619	447.7609	472.0712	589.2026	615.1902	729.0698	794.4741	904.7818	931.3256	1021.0794	1039.6642	1058.9641	1105.6265	1167.1863	1233.1039	1268.5383	1316.1271	1376.5948	1404.9866	1443.0706	1468.5101	1530.427	1776.3058	1840.6213	2365.9824	2944.0724	3037.3036	3042.8768	3102.4122	3116.244	3651.0055
O=CCC(=O)NCC#N	O=CCC(=O)NCC#N	
InChI=1S/C5H6N2O2/c6-2-3-7-5(9)1-4-8/h4H,1,3H2,(H,7,9)	InChI=1S/C5H6N2O2/c6-2-3-7-5(9)1-4-8/h4H,1,3H2,(H,7,9)
