16
gdb 125027	3.30346	1.28971	0.93401	5.7328	77.31	-0.2124	-0.0401	0.1723	1192.6321	0.124732	-434.100856	-434.092079	-434.091135	-434.134585	31.347	
C	-0.0466978467	 1.5253786215	 0.0728977428	-0.513746
C	-0.018091345	 0.0366326164	-0.0407239724	 0.346465
C	-0.0439233507	-0.7688520413	-1.1526953379	 0.068574
N	-0.1611954708	-0.4006835842	-2.4971991386	-0.609159
C	-0.0142976217	-2.1031822606	-0.6414031682	-0.011237
N	 0.0321272829	-2.139550553	 0.6715458979	-0.232342
N	 0.0296357471	-0.8323223322	 1.0501981908	-0.09452
C	 0.0792635484	-0.4755658332	 2.3995277486	 0.180204
O	 0.1262195539	-1.2452127533	 3.317819577	-0.270133
H	 0.8573261739	 1.9327506287	 0.5405638573	 0.142998
H	-0.1274608934	 1.9675593282	-0.9236567872	 0.132324
H	-0.9078001678	 1.8836238606	 0.6485576912	 0.147839
H	 0.2555084147	 0.4955279315	-2.7119360902	 0.24649
H	 0.2076680359	-1.0995330516	-3.1281494844	 0.251381
H	-0.0265654695	-3.025200189	-1.2073414733	 0.119835
H	 0.0700545389	 0.6221831716	 2.5159233964	 0.095024
73.1596	106.0981	174.2952	200.4116	215.2906	269.6721	298.8386	339.9482	398.476	519.7241	635.8706	654.5014	673.6534	722.4025	766.5696	853.2189	885.3948	944.001	1024.1521	1058.644	1064.9513	1110.9667	1207.8459	1256.0754	1324.3499	1367.4422	1420.033	1453.1567	1466.2597	1481.3091	1496.866	1504.3371	1653.7177	1682.0966	1838.9234	2987.0154	3026.2492	3076.0648	3111.9978	3228.0509	3545.4602	3633.6178
CC1=C(N)C=NN1C=O	Cc1c(N)cnn1C=O	
InChI=1S/C5H7N3O/c1-4-5(6)2-7-8(4)3-9/h2-3H,6H2,1H3	InChI=1S/C5H7N3O/c1-4-5(6)2-7-8(4)3-9/h2-3H,6H2,1H3
