24
gdb 22502	3.0654	0.66265	0.57943	0.5222	89.3	-0.2391	0.0194	0.2585	2032.4054	0.214836	-405.526856	-405.515409	-405.514465	-405.564305	40.926	
C	 0.202776345	 1.5130598195	 0.0088798266	-0.380435
C	 0.0687623552	-0.0090600344	-0.0879174227	-0.17096
C	-1.3808646378	-0.4896376523	 0.0369764749	-0.151045
C	-1.5083818058	-2.0111453664	-0.0589488084	-0.280185
C	-2.9043831245	-2.573147492	 0.0510094253	 0.350853
C	-3.0683410196	-4.075029403	 0.0609826592	-0.260642
C	-3.2450625807	-4.6323213778	 1.4855942949	-0.37276
N	-3.8698167811	-1.7412297529	 0.1458766924	-0.170825
O	-5.1175863453	-2.3888295951	 0.2496489422	-0.408088
H	 1.2461799434	 1.8305473286	-0.0838226095	 0.108941
H	-0.3690130218	 2.0107795853	-0.782205256	 0.114166
H	-0.1743642179	 1.8824818612	 0.9689762526	 0.113963
H	 0.486521774	-0.3527828371	-1.0439447167	 0.091476
H	 0.6794347771	-0.4802436964	 0.6943146036	 0.09105
H	-1.8056841293	-0.1503621642	 0.9889744833	 0.104128
H	-1.9959561489	-0.0251003692	-0.742099292	 0.107197
H	-1.0788988096	-2.3634736276	-1.0093646132	 0.110495
H	-0.8916444091	-2.4883299421	 0.7183314471	 0.108959
H	-3.9441883939	-4.3384635569	-0.538951064	 0.12715
H	-2.1913792954	-4.5327161892	-0.4092561111	 0.094812
H	-3.3453374401	-5.7217367463	 1.4627512106	 0.113307
H	-2.3857187339	-4.3883255361	 2.1188302065	 0.114411
H	-4.1411135864	-4.2128653714	 1.9482436358	 0.140822
H	-5.7246880636	-1.6429749342	 0.2893189685	 0.303213
51.3376	70.879	87.9407	108.7859	140.0753	218.3572	223.5257	252.7112	266.2938	299.5243	318.4279	356.3157	412.6947	471.7156	599.3259	651.3765	733.008	783.899	798.4129	813.8982	909.288	931.0541	971.3133	992.0406	1025.4766	1058.8227	1071.0941	1084.8578	1131.4062	1136.4487	1209.9271	1240.7644	1280.5207	1294.807	1313.3423	1324.46	1350.2124	1372.8593	1400.1884	1402.115	1410.1967	1417.7839	1467.522	1482.513	1483.3511	1495.8813	1498.1003	1500.9697	1509.9076	1511.8795	1731.2374	2991.0361	3009.0705	3011.4292	3029.4263	3034.9639	3039.8141	3040.8028	3044.1168	3079.0567	3090.0963	3097.2853	3101.0641	3107.1121	3132.551	3825.6292
CCCCC(CC)=NO	CCCCC(=NO)CC	
InChI=1S/C7H15NO/c1-3-5-6-7(4-2)8-9/h9H,3-6H2,1-2H3	InChI=1S/C7H15NO/c1-3-5-6-7(4-2)8-9/h9H,3-6H2,1-2H3
