14
gdb 123382	4.08757	0.97904	0.92469	1.5446	68.36	-0.2392	-0.0148	0.2244	1253.0913	0.101295	-432.823229	-432.815253	-432.814309	-432.856995	28.604	
C	 0.2851540922	-0.3890308383	-1.0839002935	-0.453699
C	 0.1265154766	 0.4208911766	-0.2108179443	 0.315583
C	-0.0324074614	 1.3909044409	 0.8750579435	-0.323618
N	 1.1607361171	 2.188903643	 1.1453505045	-0.36775
C	 1.4517324248	 3.2672251496	 0.3589054473	 0.468103
N	 0.5822238067	 3.8659594747	-0.4261279272	-0.219129
O	 1.3329680706	 4.9442322539	-0.949578007	-0.161257
C	 2.5466241477	 4.8389786419	-0.4234182534	 0.122046
N	 2.7089800758	 3.8431139284	 0.3861325956	-0.333756
H	 0.4147630756	-1.095554322	-1.8662399321	 0.205165
H	-0.84685244	 2.084090167	 0.6446531021	 0.178482
H	-0.3072849666	 0.8702600102	 1.7987235632	 0.143487
H	 1.981268341	 1.676660352	 1.4343455801	 0.261348
H	 3.2762775397	 5.5813758521	-0.7135475988	 0.164993
41.2669	66.3715	194.6811	211.0204	324.6244	335.0123	433.9589	543.2896	600.8948	609.3122	624.6149	670.34	730.9222	775.3025	909.8165	913.7684	934.325	963.6413	986.8642	1059.513	1108.7572	1170.0616	1262.6232	1307.217	1345.1316	1383.2533	1464.5038	1498.3876	1585.5309	1641.7328	2238.3655	3049.2767	3096.2659	3261.5524	3504.7231	3616.2994
C#CCNC1=NOC=N1	C#CCNc1nocn1	
InChI=1S/C5H5N3O/c1-2-3-6-5-7-4-9-8-5/h1,4H,3H2,(H,6,8)	InChI=1S/C5H5N3O/c1-2-3-6-5-7-4-9-8-5/h1,4H,3H2,(H,6,8)
