20
gdb 42340	4.33749	0.90326	0.8488	2.4772	81.44	-0.2521	-0.0241	0.228	1430.9191	0.171848	-403.130838	-403.122041	-403.121097	-403.165677	32.111	
O	 0.2810288509	 0.155570043	 0.8567977135	-0.346723
C	 0.0166864639	 1.2597213986	 0.4188957656	 0.373028
C	 1.1077138563	 2.2547197102	 0.1645938541	-0.103768
C	 2.084919681	 2.4626647478	 1.2838614248	-0.219371
N	 2.4834559638	 1.7444680835	 0.082211626	-0.305119
C	-1.3866402339	 1.6806831822	 0.0633565159	-0.076082
C	-1.8068981839	 1.4358456222	-1.4326923743	-0.224991
C	-3.1827055368	 0.9374637608	-0.9158712848	-0.209755
C	-2.5634324198	 0.7737818779	 0.4975982084	-0.235883
H	 0.8726468227	 3.0884482819	-0.4907947033	 0.097821
H	 2.5290016015	 3.4454164754	 1.4136901131	 0.125459
H	 1.9112067573	 1.8973531214	 2.1952982961	 0.13142
H	 2.4269910921	 0.7430745363	 0.2753081544	 0.247282
H	-1.5387288999	 2.7319495337	 0.329138669	 0.083487
H	-1.7891411824	 2.2984024729	-2.1018502099	 0.106203
H	-1.2204966768	 0.6286831197	-1.8798646201	 0.119154
H	-3.9351962377	 1.7303945315	-0.9447257763	 0.10453
H	-3.5993896053	 0.0466345566	-1.3906375629	 0.104472
H	-2.2030543321	-0.2402754412	 0.6843602637	 0.128588
H	-3.1554331609	 1.1040288356	 1.3536089471	 0.100249
36.5017	70.7223	110.2526	165.8315	234.1084	276.0316	317.4158	367.7574	579.8728	688.6267	737.1092	774.9875	791.7344	840.1157	858.481	886.9473	926.0669	937.6458	957.035	970.7355	1003.4232	1012.9233	1030.1909	1106.2354	1117.0215	1131.4604	1152.2711	1182.9635	1209.2357	1230.3716	1250.4901	1260.1567	1277.952	1279.7695	1291.9321	1323.1354	1356.8968	1409.8474	1477.7977	1486.8431	1496.3865	1507.3399	1771.5346	3053.8058	3060.5018	3063.6	3073.3038	3106.2219	3111.7508	3122.059	3133.2233	3152.3163	3205.3619	3456.4593
O=C(C1CN1)C1CCC1	O=C([C@H]1CN1)C1CCC1	
InChI=1S/C7H11NO/c9-7(6-4-8-6)5-2-1-3-5/h5-6,8H,1-4H2	InChI=1S/C7H11NO/c9-7(6-4-8-6)5-2-1-3-5/h5-6,8H,1-4H2/t6-/m1/s1
