18
gdb 55408	2.52874	1.41782	0.93936	9.2816	80.76	-0.1813	-0.0073	0.174	1223.0133	0.148544	-439.086725	-439.077767	-439.076823	-439.121542	32.109	
C	 0.0938580227	 1.4971858755	 0.0405096563	-0.486001
C	 0.0317460993	-0.0194569893	-0.0345611424	 0.264169
O	 1.0650066347	-0.6934659743	-0.0884622223	-0.396684
C	-1.2576157958	-0.6540276204	-0.0508658819	 0.036984
C	-1.2902299676	-2.1417478676	-0.1457141264	-0.297266
N	-2.6466277553	-2.4707610536	 0.4948222056	-0.254333
H	-3.0094593833	-3.383304125	 0.2130280799	 0.290611
H	-2.5229948943	-2.4692266557	 1.5071094587	 0.306839
C	-3.5450498504	-1.3191522998	 0.1186777239	-0.313336
C	-2.5539982835	-0.1063325318	 0.0552953346	 0.285624
O	-3.0002440874	 1.0356866012	 0.1197792868	-0.411178
H	 1.0281951013	 1.7919066718	 0.5236385079	 0.115557
H	 0.0990551538	 1.9024219088	-0.9788810272	 0.129396
H	-0.7745474405	 1.9224415267	 0.5464636739	 0.144969
H	-1.3412591981	-2.575719052	-1.1571935708	 0.126626
H	-0.4889032188	-2.6445494433	 0.4002571475	 0.154779
H	-3.9866899895	-1.5448390883	-0.8566231981	 0.15245
H	-4.3323608672	-1.1879306729	 0.8612667639	 0.150794
35.056	97.2591	106.032	175.5247	196.0652	263.5064	356.0209	384.0381	536.5968	552.5139	585.4285	617.8921	653.8028	699.17	825.7443	865.3211	917.2056	937.8627	974.4545	992.0422	1038.3896	1049.71	1092.4029	1140.0766	1186.2657	1252.9377	1294.3075	1326.7808	1345.3532	1358.8723	1387.561	1440.9537	1468.2026	1479.8713	1485.188	1515.5596	1618.0426	1680.6177	1746.5717	2971.9659	3037.0026	3069.1409	3104.5347	3104.9643	3147.2721	3152.6509	3425.5975	3510.9692
CC(=O)[C-]1C[NH2+]CC1=O	CC(=O)[C]1C[NH2]CC1=O	
InChI=1S/C6H8NO2/c1-4(8)5-2-7-3-6(5)9/h7H,2-3H2,1H3/q-1/p+1	InChI=1S/C6H9NO2/c1-4(8)5-2-7-3-6(5)9/h2-3,7H2,1H3
