14
gdb 20382	4.68697	2.0548	1.47291	4.2979	63.62	-0.2477	-0.0362	0.2115	803.2608	0.10891	-378.708335	-378.701988	-378.701044	-378.738885	23.601	
C	 0.0283930414	 1.5021812364	-0.0765885115	-0.20535
C	 1.529309107	 1.9474185202	 0.0508443166	-0.348977
C	 2.133302843	 0.7262983084	 0.6611905075	 0.382168
C	 1.2967684478	-0.3444150602	 0.6643193224	 0.234641
C	-0.0394354843	-0.0637538159	 0.0567247992	-0.343299
N	 1.9924302339	-1.3890613933	 1.2028959988	-0.184123
N	 3.1472110697	-1.06181981	 1.5293930979	-0.041636
O	 3.3010292172	 0.4270760693	 1.1620224585	-0.257489
H	-0.541570046	 1.9524594696	 0.7401534906	 0.124615
H	-0.4170429922	 1.8509586212	-1.0102608942	 0.115824
H	 1.9856453738	 2.158039958	-0.923854655	 0.137157
H	 1.6499550804	 2.8466022833	 0.6613150863	 0.13588
H	-0.8862227308	-0.3774731481	 0.6734818101	 0.126529
H	-0.1562465211	-0.548366829	-0.9198366671	 0.124062
112.6272	231.1292	249.6661	262.48	448.1482	570.7298	648.4467	686.7439	715.2241	728.096	826.7832	894.6876	907.4725	977.6889	989.1341	1059.0469	1141.5102	1161.4802	1214.0476	1227.107	1279.9198	1294.3655	1329.702	1372.2844	1465.6169	1477.1919	1483.2858	1494.2904	1511.0987	1607.8387	3036.0014	3039.6405	3067.9734	3084.2525	3089.376	3120.8962
C1CC2=C(C1)N=NO2	C1Cc2c(C1)nno2	
InChI=1S/C5H6N2O/c1-2-4-5(3-1)8-7-6-4/h1-3H2	InChI=1S/C5H6N2O/c1-2-4-5(3-1)8-7-6-4/h1-3H2
