14
gdb 20459	4.96258	2.0356	1.48017	4.1792	62.39	-0.2335	-0.0025	0.2311	792.3075	0.111847	-374.881039	-374.87496	-374.874016	-374.911497	22.775	
C	-0.028796686	 1.5438509272	 0.190922247	-0.291122
N	 1.3083025892	 1.9506827763	-0.3352721636	-0.305904
C	 2.1838269438	 0.7499633072	-0.5239875514	-0.287672
C	 1.2261975061	-0.3939066328	-0.3675470302	 0.289697
C	-0.0013972187	 0.0575451029	 0.0227790614	 0.327046
N	-0.7271670532	-1.0637935748	 0.1899018629	-0.325219
N	 0.0256563367	-2.1640605839	-0.1034468436	-0.123903
N	 1.2197464666	-1.748083414	-0.4324692359	-0.287284
H	-0.134694153	 1.8304144424	 1.2468414711	 0.128239
H	-0.830427532	 2.0488884995	-0.3593376028	 0.119339
H	 1.1715384641	 2.3878401744	-1.2371068927	 0.229019
H	 2.6792010566	 0.7899088359	-1.4993656754	 0.121742
H	 2.9735609006	 0.7289839784	 0.2382827958	 0.127242
H	-1.6881933108	-1.1955122187	 0.4603587974	 0.27878
90.0684	218.5851	252.8233	425.7324	553.1013	592.995	682.0682	713.6289	729.1297	737.1262	834.3596	887.2094	1001.2577	1018.7742	1036.2085	1050.1081	1054.7928	1168.9314	1189.9781	1229.243	1230.5757	1301.6905	1334.0195	1370.0268	1412.1941	1461.6269	1506.0995	1512.6654	1525.4966	1606.4302	3001.1164	3018.3167	3053.8034	3068.287	3563.1746	3663.6312
C1NCC2=C1NN=N2	C1NCc2c1[nH]nn2	
InChI=1S/C4H6N4/c1-3-4(2-5-1)7-8-6-3/h5H,1-2H2,(H,6,7,8)	InChI=1S/C4H6N4/c1-3-4(2-5-1)7-8-6-3/h5H,1-2H2,(H,6,7,8)
