15
gdb 130203	3.19877	1.25936	0.98565	4.0158	71.38	-0.2139	0.0141	0.2281	1148.6395	0.11511	-413.024409	-413.016222	-413.015278	-413.057663	30.082	
N	 0.1052597366	 1.3240717798	 0.1923361804	-0.601482
C	 0.0779160886	-0.0628599644	 0.0804413634	 0.311997
N	-1.063917455	-0.7343952325	-0.0261006415	-0.30143
N	-0.6773773759	-2.0250039862	-0.1913795495	-0.193163
C	 0.6618162938	-2.1827899121	-0.1732419626	-0.121089
C	 1.2062669839	-0.9260487923	-0.0068752982	 0.168729
C	 2.657635971	-0.5389312345	 0.0234156937	-0.464993
C	 3.0027036711	 0.2486218241	 1.2133573457	 0.266918
N	 3.2294430186	 0.8985050541	 2.1421636822	-0.320871
H	 0.7722207798	 1.6600715929	 0.8769200915	 0.263339
H	-0.8159906876	 1.6987792191	 0.3804963776	 0.25381
H	-1.3825125045	-2.7322585476	-0.2987222642	 0.277213
H	 1.1276801159	-3.1498467621	-0.284583429	 0.136954
H	 3.2942416817	-1.429279203	-0.0012322007	 0.156654
H	 2.926618092	 0.0639648247	-0.8544441188	 0.167414
50.8852	106.0403	219.5076	263.3538	300.8441	344.7509	379.5037	427.4542	442.3801	489.6968	643.3429	677.3665	731.9332	756.0716	789.1931	803.2675	923.6275	934.3588	949.7531	1068.621	1108.5557	1195.4311	1224.1633	1259.8638	1305.164	1356.1292	1437.8897	1452.5789	1493.9194	1547.2879	1623.1287	1657.1532	2355.8287	3021.8282	3081.2053	3254.3851	3530.6694	3627.1357	3693.0606
NC1=NNC=C1CC#N	Nc1n[nH]cc1CC#N	
InChI=1S/C5H6N4/c6-2-1-4-3-8-9-5(4)7/h3H,1H2,(H3,7,8,9)	InChI=1S/C5H6N4/c6-2-1-4-3-8-9-5(4)7/h3H,1H2,(H3,7,8,9)
