23
gdb 99519	1.94036	1.32125	0.9772	1.3201	87.41	-0.259	0.055	0.314	1360.5806	0.201237	-388.270286	-388.258883	-388.257939	-388.305999	42.714	
C	-0.1501572238	 1.5872294765	-0.0680869177	-0.392967
C	 0.0091230249	 0.0676538574	 0.0151075687	-0.190654
C	 0.7941552132	-0.5201462105	-1.1837995512	-0.14564
C	 2.1879890452	-0.0806678905	-1.1637073897	 0.343357
C	 3.3304588674	 0.293729625	-1.1170806112	-0.485055
C	 0.6767258452	-2.0726738576	-1.3006159858	 0.330113
C	 1.3738465975	-2.5652054075	-2.5755993786	-0.422374
C	 1.2285618494	-2.796189461	-0.0655036977	-0.424158
O	-0.733993364	-2.2982120751	-1.4162334305	-0.465441
H	 0.8226193862	 2.0879477201	-0.0933147827	 0.126498
H	-0.7001098987	 1.8779542448	-0.9702862099	 0.113325
H	-0.7038980746	 1.968219248	 0.7954701399	 0.110609
H	 0.5214724527	-0.1958645532	 0.9465493601	 0.09985
H	-0.9711247542	-0.4149058846	 0.0330903867	 0.121186
H	 0.3260380807	-0.1305193189	-2.0988999012	 0.105604
H	 4.338662728	 0.6259159548	-1.0897109705	 0.192695
H	 2.4462993753	-2.3570721588	-2.5513661352	 0.132266
H	 1.2401673974	-3.6477900546	-2.6848397415	 0.098511
H	 0.9422944501	-2.0786911038	-3.4552597223	 0.119542
H	 0.6609798681	-2.5303161846	 0.8292753432	 0.124435
H	 1.1573663334	-3.8815731029	-0.2015010288	 0.100661
H	 2.2807559992	-2.5476491578	 0.0994417251	 0.131194
H	-0.8729261088	-3.2482318053	-1.4855210091	 0.276445
72.11	97.2625	148.3446	189.2528	192.4082	230.571	233.2079	262.7438	273.4164	317.4396	335.3915	345.2923	396.065	448.5577	482.2691	552.8418	566.0057	621.8343	641.0587	755.8416	791.6035	869.786	922.9079	943.6443	962.9488	989.6944	1008.8346	1056.4954	1099.1469	1117.9152	1141.7676	1193.838	1218.353	1280.2229	1317.2324	1346.6279	1363.6024	1367.5518	1396.5959	1411.8732	1415.3208	1481.4381	1484.5886	1492.8075	1498.1194	1500.5054	1508.5515	1511.0288	2227.3097	3007.1074	3030.7028	3032.584	3036.3631	3048.6735	3092.6373	3099.2312	3103.6214	3104.8593	3117.5816	3128.1897	3131.0722	3503.4379	3814.4626
CCC(C#C)C(C)(C)O	CC[C@@H](C#C)C(C)(C)O	
InChI=1S/C8H14O/c1-5-7(6-2)8(3,4)9/h1,7,9H,6H2,2-4H3	InChI=1S/C8H14O/c1-5-7(6-2)8(3,4)9/h1,7,9H,6H2,2-4H3/t7-/m1/s1
