19
gdb 94750	3.8473	1.15585	1.03519	1.9757	82.57	-0.2254	0.0369	0.2623	1213.2411	0.15851	-385.846768	-385.838257	-385.837313	-385.879489	33.365	
C	-0.0125798507	 1.5600351804	-0.0474142782	-0.402498
C	 0.0382623828	 0.0342977586	 0.0442720595	-0.001404
C	 0.7989297616	-0.6225681108	-1.1323373195	-0.115076
O	 1.3635130746	-1.8409052879	-0.6528148806	-0.296485
C	 1.5374137514	-1.7304711687	 0.7434720747	 0.265145
C	 2.2785158878	-0.5065672442	 1.2551696907	-0.356066
C	 0.7649681831	-0.5330836676	 1.2553657592	-0.126069
C	 1.6197901461	-2.986975018	 1.4232824755	 0.232138
C	 1.6990462244	-4.0336236096	 2.0094185759	-0.393303
H	 0.9950897554	 1.988282592	-0.0220282846	 0.118929
H	-0.4929242296	 1.8840436564	-0.9771135888	 0.117825
H	-0.5792735025	 1.9880976989	 0.7850460552	 0.120237
H	-0.9863337078	-0.3570602796	 0.0670191065	 0.085074
H	 0.1545948806	-0.8651658898	-1.9818802479	 0.11418
H	 1.5917822072	 0.0491700772	-1.4944556547	 0.094929
H	 2.7762327438	-0.6016501722	 2.2129198221	 0.128135
H	 2.8071865656	 0.102398036	 0.5293858124	 0.121948
H	 0.2456695079	-0.5806573415	 2.2049494228	 0.10303
H	 1.7655446783	-4.9607560995	 2.5224712297	 0.189331
106.4557	143.7931	176.246	232.1695	261.2357	320.123	401.1613	441.7136	513.6426	531.3231	570.3069	600.6827	625.6525	678.8258	718.6153	805.6286	863.6965	907.7246	928.5208	957.8182	978.2575	991.2233	1035.6277	1051.1626	1082.7055	1100.1346	1140.6474	1173.5108	1210.2155	1236.6296	1275.3475	1334.6366	1346.4694	1382.6103	1400.0308	1415.0933	1474.3873	1496.2755	1500.7616	1530.3531	2242.711	2988.8618	3028.0757	3032.2097	3085.5305	3098.6919	3106.7538	3137.009	3184.7406	3227.9701	3503.8133
CC1COC2(CC12)C#C	C[C@H]1CO[C@]2(C[C@@H]12)C#C	
InChI=1S/C8H10O/c1-3-8-4-7(8)6(2)5-9-8/h1,6-7H,4-5H2,2H3	InChI=1S/C8H10O/c1-3-8-4-7(8)6(2)5-9-8/h1,6-7H,4-5H2,2H3/t6-,7-,8-/m0/s1
