16
gdb 39849	2.96011	1.76952	1.39062	2.0036	67.5	-0.2464	0.05	0.2964	931.3288	0.125154	-437.806614	-437.799921	-437.798977	-437.837593	27.043	
C	-0.0862714657	 1.4680060387	-0.0016995018	-0.232281
O	 1.146336787	 0.7363041733	 0.0015199632	-0.28418
C	-0.0820762374	 0.0035928641	 0.0071382444	 0.466001
C	-0.349279341	-0.8513379384	 1.2277189464	-0.162541
N	-1.7450572362	-1.3087219537	 1.3710379306	-0.322143
C	-0.7444555645	-2.2102025195	 0.7626715326	-0.079407
C	-0.7516602562	-2.1933364243	-0.758976134	 0.048355
O	-1.7025435883	-1.2994515545	-1.3376076162	-0.23186
C	-0.3515900303	-0.8489301245	-1.2140563706	-0.083805
H	-0.3125257897	 2.007231764	 0.9165136498	 0.12009
H	-0.3113609682	 2.0012762537	-0.9238016932	 0.122049
H	 0.2625727882	-0.674367916	 2.1063206909	 0.100871
H	-1.8943965676	-1.5914106692	 2.3377168696	 0.235995
H	-0.4427143168	-3.1142184724	 1.2789441565	 0.094516
H	-0.5473217254	-3.1024736114	-1.3168015061	 0.102088
H	 0.1782730223	-0.6289428298	-2.1377893021	 0.106254
129.5782	216.241	316.7744	319.619	394.5478	470.4949	558.7023	598.9881	717.5607	796.4444	806.2015	847.8309	872.5047	881.7156	894.3064	896.3158	934.3054	960.3478	987.654	1036.3115	1059.5097	1097.1439	1125.3406	1141.8425	1147.6545	1161.0669	1221.3054	1243.2659	1249.9443	1314.121	1343.5533	1380.2401	1415.4296	1458.1252	1532.4121	3088.1446	3144.8601	3159.6139	3166.1924	3176.7759	3183.8657	3489.4552
C1OC11C2NC2C2OC12	C1O[C@]21[C@H]1N[C@H]1[C@H]1O[C@@H]21	
InChI=1S/C6H7NO2/c1-6(8-1)4-2(7-4)3-5(6)9-3/h2-5,7H,1H2	InChI=1S/C6H7NO2/c1-6(8-1)4-2(7-4)3-5(6)9-3/h2-5,7H,1H2/t2-,3+,4-,5+,6+/m0/s1
