15
gdb 18156	4.53486	1.49057	1.41869	1.9165	64.51	-0.246	0.0149	0.2609	923.9974	0.11784	-399.753047	-399.745501	-399.744556	-399.78508	27.621	
C	-0.13252759	 1.3639654191	-0.0567491959	-0.342518
N	-0.0832566834	-0.0778630137	 0.133804953	-0.334851
C	-1.1193707308	-0.7565889386	-0.0012807484	 0.484758
O	-2.4422261934	-0.3428328864	-0.3088557638	-0.30573
C	-2.9179211965	-1.6894710683	-0.0532270248	 0.012618
C	-2.3470499893	-2.5835940127	-1.0858324398	 0.132375
O	-2.1086153718	-2.1804364163	-2.3861645893	-0.422564
C	-1.4841130297	-2.191096304	 0.1339990344	-0.291222
H	 0.5077177683	 1.6332024915	-0.9040722158	 0.132908
H	-1.1394639994	 1.758259635	-0.2357835876	 0.127277
H	 0.2872664945	 1.8536493936	 0.8280869414	 0.131913
H	-3.815564808	-1.7889692165	 0.5433500097	 0.124411
H	-2.6677395458	-3.6207129032	-1.0442684969	 0.126264
H	-2.1800342474	-1.2168362281	-2.4021981412	 0.301071
H	-1.0452633373	-2.9090178716	 0.811377865	 0.123288
96.001	103.4449	212.546	231.7441	260.6514	396.7276	460.9536	484.6349	664.0832	697.8488	726.3897	767.5088	815.1775	883.9581	938.3578	971.1925	1010.2295	1040.9965	1055.2769	1075.649	1108.4942	1133.9236	1164.7998	1182.3335	1276.4689	1303.2896	1349.1004	1439.4352	1457.8359	1492.7031	1498.8843	1861.9567	3019.5858	3086.4802	3091.8075	3164.9801	3200.9922	3229.7567	3769.6335
CN=C1OC2C(O)C12	CN=C1O[C@H]2[C@@H](O)[C@@H]12	
InChI=1S/C5H7NO2/c1-6-5-2-3(7)4(2)8-5/h2-4,7H,1H3	InChI=1S/C5H7NO2/c1-6-5-2-3(7)4(2)8-5/h2-4,7H,1H3/t2-,3+,4-/m1/s1
