25
gdb 59994	2.67903	0.93162	0.79248	0.9021	90.02	-0.241	0.0795	0.3204	1607.0491	0.225988	-389.483701	-389.472581	-389.471637	-389.52072	40.883	
C	 0.0115620584	 1.4965147793	-0.295710803	-0.383885
C	-0.0345103242	-0.0093563048	-0.0181634755	 0.151255
C	 0.5073373913	-0.3543098261	 1.3655758963	-0.386157
O	-1.3735061384	-0.4941008484	-0.067290683	-0.278323
C	-1.8777214918	-0.8199999363	-1.3605548037	 0.11928
C	-1.4723741761	-2.244437659	-1.7537333916	-0.394644
C	-3.3789822129	-0.6545782703	-1.3138872018	 0.03712
C	-3.9978524254	 0.704779514	-1.4865481741	-0.273226
C	-4.1434031704	-0.3327504917	-2.5729796427	-0.271743
H	 1.0426238867	 1.8649683714	-0.2725116326	 0.109005
H	-0.4048621179	 1.7347716854	-1.2792868678	 0.112158
H	-0.5681824357	 2.0362539643	 0.4598047826	 0.121223
H	 0.5753559618	-0.5281040815	-0.7748644872	 0.063671
H	-0.106044544	 0.1204738239	 2.1381677482	 0.122468
H	 0.4822865914	-1.4350756134	 1.5280121042	 0.11714
H	 1.5382870947	-0.0054581876	 1.4796696274	 0.108391
H	-1.4783196009	-0.1129860188	-2.1058439158	 0.056874
H	-1.8595113093	-2.4971168981	-2.7457643828	 0.114383
H	-0.3843370419	-2.3587470318	-1.7753226243	 0.111695
H	-1.8750784687	-2.9603931023	-1.0302960277	 0.119803
H	-3.8651435156	-1.3216232093	-0.6066511507	 0.084505
H	-4.8680606581	 0.9543347007	-0.8898916777	 0.110671
H	-3.3322112545	 1.5419832093	-1.6698068383	 0.11047
H	-3.5783800617	-0.1891326039	-3.4888482732	 0.107876
H	-5.1118265265	-0.7972624251	-2.7220100453	 0.109991
36.2972	54.7238	88.9315	151.9158	210.0026	215.1173	224.5502	252.844	284.2248	317.1248	379.9206	425.3362	446.1465	486.1462	529.5382	766.6551	815.3052	824.3707	833.568	887.3492	923.8891	933.9063	940.8234	952.507	987.5745	1024.374	1057.5655	1076.9852	1102.3496	1124.1968	1134.0983	1142.6515	1163.0726	1194.9603	1196.7888	1226.3234	1236.1933	1318.3182	1350.1956	1362.7275	1391.9534	1398.305	1403.1081	1412.4279	1435.5147	1470.8366	1479.1749	1484.5588	1488.1642	1493.7934	1495.6532	1507.5105	1510.0488	2964.6013	2974.942	3033.2765	3036.6699	3040.2271	3102.9854	3107.9288	3108.6395	3112.5976	3114.6502	3120.0982	3127.8249	3133.3176	3142.2154	3205.4833	3221.1068
CC(C)OC(C)C1CC1	CC(C)O[C@@H](C)C1CC1	
InChI=1S/C8H16O/c1-6(2)9-7(3)8-4-5-8/h6-8H,4-5H2,1-3H3	InChI=1S/C8H16O/c1-6(2)9-7(3)8-4-5-8/h6-8H,4-5H2,1-3H3/t7-/m0/s1
