13
gdb 133218	2.51872	1.75617	1.04133	1.8633	66.21	-0.2693	-0.0852	0.1841	1039.3437	0.087497	-493.96401	-493.956473	-493.955529	-493.996212	27.926	
C	 0.1506178315	 1.4554115082	-0.0021425722	-0.458238
C	-0.0036739239	-0.0332765609	 0.0325970673	 0.366747
N	-0.0991861785	-0.6499992959	-1.0950570422	-0.124315
O	-0.242984796	-2.024549998	-1.1112945237	-0.22369
N	-0.2902001675	-2.7825820536	 0.0395701824	-0.13731
C	-0.1946915868	-2.1610462063	 1.1485853189	 0.349324
F	-0.2413344631	-2.8994766948	 2.2462709885	-0.047837
C	-0.0400537886	-0.7250621569	 1.3251668688	 0.081515
N	 0.0565891967	-0.0926087044	 2.43384618	-0.512761
H	 1.0767989465	 1.7455776598	 0.5031301334	 0.158017
H	 0.1592232953	 1.8092506659	-1.0330813884	 0.149672
H	-0.6670676674	 1.9274267372	 0.5509483607	 0.158011
H	 0.0104038019	-0.7442721502	 3.2203899864	 0.240865
86.3237	171.6803	265.602	288.0462	318.934	328.8046	457.2533	466.609	533.9643	538.0928	566.8328	690.0352	776.9685	836.8532	867.8267	923.6671	965.8157	1007.6031	1060.1621	1080.1213	1242.7199	1353.3561	1408.912	1460.8328	1463.9946	1467.2106	1640.5585	1655.8336	1694.5833	3052.9975	3112.2373	3161.4307	3460.8031
CC1=NON=C(F)C1=N	CC1=NON=C(F)[C]1[NH]	
InChI=1S/C4H4FN3O/c1-2-3(6)4(5)8-9-7-2/h6H,1H3	InChI=1S/C4H4FN3O/c1-2-3(6)4(5)8-9-7-2/h6H,1H3
