16
gdb 48674	3.45769	1.23443	1.07979	3.1701	70.39	-0.2459	-0.0486	0.1973	1109.9316	0.124192	-437.898186	-437.890329	-437.889385	-437.930878	29.366	
O	-0.9033671223	 1.2779211656	 0.0370329791	-0.266281
C	 0.2343304684	 0.8756069837	 0.0304090301	 0.104551
C	 1.4327566549	 1.7607345951	 0.0471014049	 0.213798
C	 1.277943208	 3.2093050254	 0.4321795243	-0.327534
C	 1.5490712222	 2.8552852117	-1.0135031247	-0.172671
C	 2.9783770869	 2.83069556	-1.4596088057	 0.416464
O	 3.4416040962	 3.393883837	-2.4163233016	-0.311918
C	 3.7462216481	 1.8930917637	-0.5155498644	-0.293781
N	 2.7231259787	 1.1169784947	 0.1956868108	-0.37468
H	 0.4843203806	-0.2063468179	-0.0046553325	 0.088923
H	 0.2698104086	 3.5470645222	 0.6439312477	 0.155583
H	 2.0669420064	 3.6649159238	 1.0210578675	 0.125828
H	 0.770745784	 3.0240164617	-1.7464424103	 0.13583
H	 4.4130895356	 1.2531128317	-1.1024097445	 0.14603
H	 4.3810454114	 2.503804269	 0.1436064034	 0.127592
H	 2.9611323823	 0.9864236027	 1.1719548659	 0.232265
94.6937	112.0293	161.8144	222.3551	316.8251	373.2322	446.9437	485.9429	551.4287	625.3911	649.7005	720.3046	780.992	806.0859	877.3789	911.3547	935.094	996.9482	1028.1834	1053.5509	1073.5658	1080.6182	1096.4107	1180.5478	1202.0541	1237.5763	1256.443	1320.7966	1363.1916	1408.2126	1435.9232	1464.4178	1490.4628	1813.4381	1846.8908	2911.0022	3000.2286	3069.5619	3134.4915	3208.0973	3233.7996	3536.0644
O=CC12CC1C(=O)CN2	O=C[C@]12C[C@H]1C(=O)CN2	
InChI=1S/C6H7NO2/c8-3-6-1-4(6)5(9)2-7-6/h3-4,7H,1-2H2	InChI=1S/C6H7NO2/c8-3-6-1-4(6)5(9)2-7-6/h3-4,7H,1-2H2/t4-,6+/m0/s1
