17
gdb 97341	2.75933	0.86225	0.6623	1.6807	82.4	-0.2508	-0.0176	0.2332	1653.4951	0.133467	-418.01193	-418.002009	-418.001065	-418.047889	34.667	
C	-0.3398410746	 1.5491451463	 0.6101813923	-0.311808
N	 0.1352639296	 0.189117372	 0.7613716093	-0.232038
C	-0.2334694689	-0.6562141764	-0.1035344604	 0.114472
N	 0.1852717429	-1.978296262	-0.018784381	-0.352941
C	-0.175472159	-2.9457492352	-0.9204972558	 0.444763
O	-0.8924698191	-2.745958409	-1.8775687051	-0.357302
C	 0.393574534	-4.3530580921	-0.6523584765	-0.49045
C	 1.2442932742	-4.5035642101	 0.5175383933	 0.277548
C	 1.9437824608	-4.597574865	 1.4910909141	-0.412947
H	-0.9882611682	 1.7003748652	-0.2669148756	 0.104652
H	-0.8952451863	 1.8443294202	 1.50787773	 0.129944
H	 0.5164031129	 2.2288303789	 0.5305831962	 0.129943
H	-0.8813158176	-0.4658777337	-0.9642266153	 0.131624
H	 0.7883606613	-2.2245138072	 0.7553092376	 0.271026
H	-0.4712352462	-5.0237868697	-0.5922583991	 0.171827
H	 0.9311800136	-4.6416390095	-1.5629035262	 0.171828
H	 2.5638724106	-4.6966125026	 2.3479966022	 0.209858
40.4684	91.8949	95.0168	135.4313	175.1898	215.5839	319.9598	323.7993	341.4376	369.7291	495.4932	536.6857	584.5705	634.6862	656.7943	677.7326	699.9423	934.1898	946.7732	994.1607	1011.0051	1066.309	1141.652	1143.1684	1198.3829	1216.5651	1254.3376	1305.1145	1364.3705	1441.6486	1445.6878	1479.6371	1495.1228	1526.3472	1760.4752	1799.4103	2236.4549	2979.8762	3046.2734	3062.5371	3077.6304	3079.132	3095.6063	3501.4815	3587.4536
CN=CNC(=O)CC#C	CN=CNC(=O)CC#C	
InChI=1S/C6H8N2O/c1-3-4-6(9)8-5-7-2/h1,5H,4H2,2H3,(H,7,8,9)	InChI=1S/C6H8N2O/c1-3-4-6(9)8-5-7-2/h1,5H,4H2,2H3,(H,7,8,9)
