18
gdb 80695	2.32557	1.42303	1.21627	3.846	74.08	-0.2362	0.0178	0.254	1112.864	0.146205	-439.067588	-439.058491	-439.057547	-439.10218	33.026	
C	 0.0154588391	 1.5781360433	 0.1002021029	-0.49458
C	 0.0665144742	 0.0797161156	 0.0963737347	 0.271153
C	-0.8725967479	-0.8632606983	 0.7973499319	 0.096524
O	-1.6115055502	-1.8590223953	 0.1669143347	-0.432007
C	 0.6023480359	-0.9619770422	 1.1121737325	-0.194318
C	 1.3410701837	-1.6531727814	-0.0424810842	-0.197663
N	 0.7520685769	-0.6656218127	-0.9606182855	-0.086239
C	 0.6253780531	-0.6934554653	-2.309749841	 0.107016
O	 1.134120554	-1.526790528	-3.0315916434	-0.328569
H	 1.0106178141	 2.0066696242	-0.0570322928	 0.133666
H	-0.6490436902	 1.960604685	-0.6825835817	 0.135009
H	-0.367593813	 1.9381161185	 1.0592926185	 0.133745
H	-1.4560913483	-0.3994906961	 1.5883652469	 0.115216
H	-1.2914614065	-1.9519914632	-0.7378827963	 0.298978
H	 1.0119272964	-0.8002329325	 2.1002696182	 0.104123
H	 2.429843924	-1.5680027415	 0.0066519191	 0.132228
H	 1.0652655876	-2.6904045099	-0.2556342986	 0.132666
H	 0.0212731972	 0.15726514	-2.6867331359	 0.073053
23.835	167.0536	186.2169	200.63	215.077	251.1179	271.7071	302.1922	331.8047	522.137	544.2139	576.9885	674.0436	772.3474	815.7974	874.6325	898.201	952.3464	987.3325	1021.8607	1030.3804	1070.714	1112.6276	1127.0831	1143.3243	1162.0778	1231.605	1248.3901	1297.4192	1324.9314	1357.3472	1396.4705	1415.5491	1442.4441	1466.4562	1480.9173	1499.2467	1512.0756	1785.8187	2923.8943	3032.5911	3054.7715	3095.1932	3103.8113	3115.1376	3154.4606	3205.7996	3796.4888
CC12C(O)C1CN2C=O	C[C@]12[C@@H](O)[C@H]1CN2C=O	
InChI=1S/C6H9NO2/c1-6-4(5(6)9)2-7(6)3-8/h3-5,9H,2H2,1H3	InChI=1S/C6H9NO2/c1-6-4(5(6)9)2-7(6)3-8/h3-5,9H,2H2,1H3/t4-,5+,6-/m1/s1
