18
gdb 28452	3.09167	1.33166	0.94168	1.092	83.95	-0.2225	-0.0143	0.2082	1243.4154	0.147641	-402.025356	-402.016513	-402.015569	-402.058954	32.874	
C	-0.0407705326	 1.5351313341	-0.0069428252	-0.49609
C	-0.0073555178	 0.0287977905	 0.0071938601	 0.277083
C	-0.1159809917	-0.7144888999	-1.1685771795	-0.091176
N	-0.0926393034	-2.047989677	-1.2154443109	-0.312787
C	 0.0420552158	-2.7328419483	-0.079425441	 0.213639
C	 0.0652984805	-4.2385526878	-0.1612381154	-0.523896
C	 0.1588608535	-2.0750636724	 1.1578800546	 0.308902
O	 0.2976261035	-2.7458463566	 2.3363744941	-0.436899
C	 0.1334277425	-0.6876137565	 1.1951866852	-0.238623
H	 0.8805486452	 1.9596920507	 0.4071848908	 0.133464
H	-0.1570367621	 1.9164187033	-1.0248623286	 0.127504
H	-0.8714654472	 1.9225377358	 0.5934354357	 0.133452
H	-0.2277400534	-0.2050028607	-2.1233182624	 0.095317
H	 1.0051602117	-4.6585306723	 0.2223654	 0.127486
H	-0.7569001502	-4.6956468563	 0.4061402529	 0.127564
H	-0.0372368586	-4.5379047039	-1.2048249039	 0.152714
H	 0.2991715559	-3.6927086898	 2.1638765012	 0.299702
H	 0.2241016984	-0.1859903429	 2.1536217521	 0.102646
62.391	131.2493	149.7539	220.1423	285.2401	300.5303	319.0151	354.5828	465.7411	472.5608	496.8459	571.203	607.6379	727.8344	761.2778	763.3043	905.4931	937.8401	957.4753	1016.9902	1026.1856	1054.4922	1065.2563	1162.9768	1181.8821	1268.8113	1281.8894	1320.9153	1341.4827	1399.2285	1415.2316	1450.0908	1482.5032	1484.9489	1489.2981	1497.6362	1523.3217	1603.9601	1656.2955	3006.4252	3031.6777	3052.3991	3085.2522	3115.3817	3144.1796	3146.5369	3181.6931	3829.6799
CC1=CN=C(C)C(O)=C1	Cc1cnc(C)c(O)c1	
InChI=1S/C7H9NO/c1-5-3-7(9)6(2)8-4-5/h3-4,9H,1-2H3	InChI=1S/C7H9NO/c1-5-3-7(9)6(2)8-4-5/h3-4,9H,1-2H3
