20
gdb 93245	2.71592	1.33846	0.95328	3.9142	75.63	-0.2247	0.0109	0.2356	1258.0987	0.171423	-440.323693	-440.314612	-440.313668	-440.357614	33.953	
C	-0.1671455835	 1.5131695656	 0.0152800696	-0.410513
C	 0.0335030189	 0.0003851065	-0.0127815957	 0.018645
C	 0.8700039305	-0.4270382445	-1.2142996313	-0.061059
O	 1.1802362053	-1.8304764962	-1.2219273259	-0.235737
C	 1.279027385	-2.5562659437	-0.0832871776	 0.407604
O	 1.6540005088	-3.6964128243	-0.1525911078	-0.329901
C	 0.8239416239	-1.9178187631	 1.2410508429	-0.103499
C	 1.7429583696	-2.347001483	 2.3842530477	-0.407102
N	 0.6503646837	-0.4650937583	 1.2281035349	-0.299502
H	 0.7947485747	 2.0351007433	 0.0846981479	 0.116736
H	-0.6731194741	 1.8632930476	-0.8894349264	 0.123345
H	-0.7673265619	 1.7945139305	 0.8835521082	 0.136585
H	-0.947901642	-0.4898548411	-0.0825786376	 0.093391
H	 0.3569214507	-0.2373873228	-2.1625387659	 0.120548
H	 1.8170541563	 0.1313051557	-1.2247048239	 0.104146
H	-0.1694113474	-2.3596496599	 1.4168611505	 0.120852
H	 2.7478926983	-1.928860649	 2.2546898994	 0.115857
H	 1.341120746	-1.990996534	 3.3359180812	 0.125621
H	 1.8326625305	-3.4331334173	 2.4050257333	 0.152203
H	 1.5568264766	-0.0154761922	 1.3414270366	 0.211781
59.3854	122.5179	185.68	220.269	227.2529	254.4894	303.3861	390.686	424.7859	439.625	461.6016	544.9891	613.0909	728.7393	765.9357	815.8806	881.7882	919.4246	951.4519	969.3039	1051.3358	1076.8488	1088.7038	1135.694	1156.0733	1178.1115	1202.2414	1240.5523	1271.4206	1311.0086	1335.8568	1341.499	1390.6639	1400.8243	1411.1172	1430.2752	1472.7884	1491.7887	1494.6919	1499.3085	1503.3026	1512.0503	1831.9179	2988.4147	3002.4476	3015.8822	3034.9671	3041.2278	3077.0384	3101.7799	3113.4637	3129.4522	3158.0505	3474.8176
CC1COC(=O)C(C)N1	C[C@H]1COC(=O)[C@@H](C)N1	
InChI=1S/C6H11NO2/c1-4-3-9-6(8)5(2)7-4/h4-5,7H,3H2,1-2H3	InChI=1S/C6H11NO2/c1-4-3-9-6(8)5(2)7-4/h4-5,7H,3H2,1-2H3/t4-,5+/m0/s1
