17
gdb 71539	2.55891	1.56522	1.46072	1.8564	80.16	-0.2458	0.0435	0.2893	996.277	0.134676	-384.583293	-384.575431	-384.574486	-384.615226	31.408	
O	-0.0945387865	 1.3319320044	-0.0288310245	-0.470025
C	 0.0368755491	-0.0381887932	-0.0706273839	 0.372
C	 0.5818538378	-0.9429215079	-1.1936745529	-0.332735
C	 0.0715657026	-1.9097071394	-0.1052231515	-0.084364
C	 0.5409699757	-0.9990597557	 1.0754161803	-0.145971
C	-0.8407036699	-1.0220763297	 1.7543191843	-0.318824
C	-1.1732472108	-0.9967463708	 0.2409947168	 0.230922
C	-2.4461780221	-1.0056593599	-0.4120011818	 0.091341
C	-3.52041542	-1.0128945587	-0.9547499215	-0.377284
H	 0.7795377841	 1.7284070855	-0.1140899591	 0.287202
H	 0.0342312367	-0.9333987875	-2.1401160236	 0.110832
H	 1.6640369705	-0.9268523172	-1.3610348858	 0.089071
H	 0.0579591479	-2.9970304036	-0.1061177025	 0.089019
H	 1.5346512525	-1.0035320619	 1.523562982	 0.072876
H	-1.1138179704	-1.9353833576	 2.2905510626	 0.098008
H	-1.1284377982	-0.1334629712	 2.3215353901	 0.110669
H	-4.4679573589	-1.0146774757	-1.433635779	 0.177262
125.8243	140.6956	219.8414	294.6445	326.0719	378.1407	448.2685	507.8346	526.8092	599.7725	610.4332	645.1776	668.988	705.2409	780.0334	876.7074	900.5515	913.7356	940.671	974.1037	1001.0473	1042.5414	1053.3883	1075.3076	1113.2452	1127.4059	1147.8764	1191.6385	1205.9349	1228.6831	1262.5828	1269.4016	1306.0112	1372.3165	1503.2366	1507.6327	2229.3742	3041.9933	3054.217	3108.0223	3115.4333	3117.379	3150.3518	3502.5973	3804.6024
OC12CC3C1CC23C#C	O[C@@]12C[C@H]3[C@@H]1C[C@@]23C#C	
InChI=1S/C8H8O/c1-2-7-3-6-5(7)4-8(6,7)9/h1,5-6,9H,3-4H2	InChI=1S/C8H8O/c1-2-7-3-6-5(7)4-8(6,7)9/h1,5-6,9H,3-4H2/t5-,6-,7+,8-/m0/s1
