17
gdb 72860	3.08112	1.33359	1.10621	1.5875	74.49	-0.2517	0.0183	0.27	1123.9693	0.133662	-421.748933	-421.740523	-421.739578	-421.781986	31.747	
C	-0.4781652075	 1.5786023848	-0.0147009889	-0.480897
C	-0.0757473474	 0.1327626695	 0.0562055517	 0.391804
C	-1.1231619056	-0.9877611109	 0.2230111262	-0.12161
O	-0.2988543183	-1.6509801402	 1.2201523269	-0.292701
C	 0.690669682	-0.6188387039	 1.1689832473	 0.006297
C	 1.7692883415	-0.8772256027	 0.0841699487	-0.114752
O	 0.9323127369	-0.2285030258	-0.9206087748	-0.329522
C	 3.0415109452	-0.20276549	 0.2708208748	 0.339599
C	 4.084327874	 0.3641112424	 0.4616916837	-0.437179
H	 0.3975133146	 2.2266678091	 0.0755498468	 0.138129
H	-0.9562166939	 1.7876188388	-0.9783256029	 0.1359
H	-1.1878362848	 1.8261136285	 0.7805334116	 0.124752
H	-2.0832305034	-0.6760061127	 0.6527780412	 0.103921
H	-1.288488532	-1.6017391459	-0.6680139183	 0.115769
H	 1.0009069668	-0.2507532647	 2.1476927176	 0.099532
H	 1.9093261841	-1.941608285	-0.1354123436	 0.117288
H	 5.012341338	 0.8570337988	 0.6170058219	 0.20367
70.7808	142.1848	195.5138	199.6697	261.5707	332.0082	376.8887	402.4951	455.6156	537.0964	631.567	647.3043	673.2757	749.9684	842.0215	890.173	913.4864	942.6555	962.7879	987.0098	1019.337	1026.4602	1039.2877	1141.9513	1168.4139	1182.3239	1203.7899	1222.1712	1284.946	1290.3164	1339.1383	1386.5401	1413.3283	1479.2836	1489.4461	1504.4724	2233.6579	3020.7128	3037.3934	3047.983	3086.1132	3105.5215	3108.6403	3123.631	3501.7502
CC12COC1C(O2)C#C	C[C@]12CO[C@H]1[C@@H](O2)C#C	
InChI=1S/C7H8O2/c1-3-5-6-7(2,9-5)4-8-6/h1,5-6H,4H2,2H3	InChI=1S/C7H8O2/c1-3-5-6-7(2,9-5)4-8-6/h1,5-6H,4H2,2H3/t5-,6-,7-/m0/s1
