20
gdb 119662	3.69441	1.19594	1.03019	1.9388	80.69	-0.2244	0.0806	0.305	1226.0881	0.170749	-403.034257	-403.025982	-403.025038	-403.067566	31.339	
C	 0.5970224064	 1.4008130459	-0.7618404803	-0.221112
O	 0.7403028952	 0.0376251905	-1.0840132452	-0.232288
C	 0.160744884	-0.816386774	-0.1224584991	-0.214772
C	 0.3917897707	-2.2523301688	-0.4898370663	 0.371702
C	-0.2054232656	-3.4835277599	 0.205222281	-0.309004
C	 0.7804310667	-4.0209742798	-0.8311603692	-0.003233
C	 0.4425634269	-2.9360505801	-1.8969930223	-0.10108
C	 1.9290096842	-2.6125973134	-2.000141259	-0.187988
N	 1.8116485872	-2.9072582999	-0.5038669134	-0.190875
H	-0.4628805254	 1.6922257573	-0.6876734822	 0.104079
H	 1.0883327726	 1.6484930078	 0.1920470449	 0.108561
H	 1.0667940502	 1.9770006626	-1.5622969923	 0.129301
H	 0.5886673962	-0.629128854	 0.8773960225	 0.100473
H	-0.9266744297	-0.6343671331	-0.0502609635	 0.089556
H	 0.0716504125	-3.6264062252	 1.2536981482	 0.105619
H	-1.2668115045	-3.6810488821	 0.0328952319	 0.096324
H	 1.1221636014	-5.0414429056	-1.0114444632	 0.080684
H	-0.3453136838	-2.9595889824	-2.6578072157	 0.062125
H	 2.5656064239	-3.3346535389	-2.5232393565	 0.090195
H	 2.2229609709	-1.5869791268	-2.2237396205	 0.121732
74.7097	87.0684	142.9521	232.4386	299.4875	332.5035	366.8356	423.6844	464.1819	687.1275	701.3913	771.6114	824.8236	864.6578	884.1189	923.7349	931.8022	987.4962	1006.4771	1017.9736	1029.0991	1078.4525	1083.707	1124.3382	1146.0018	1155.9657	1164.8667	1171.2547	1187.2845	1217.4031	1229.4961	1245.9034	1262.5602	1279.9695	1288.1432	1325.6597	1425.387	1478.4792	1485.8817	1493.5904	1496.6	1509.536	1521.1119	2942.1813	2971.4817	2976.2899	3016.7764	3037.8176	3047.8923	3053.0763	3104.7476	3116.8244	3117.5622	3139.539
COCC12CC3C1CN23	COC[C@@]12C[C@H]3[C@@H]1CN23	
InChI=1S/C7H11NO/c1-9-4-7-2-6-5(7)3-8(6)7/h5-6H,2-4H2,1H3	InChI=1S/C7H11NO/c1-9-4-7-2-6-5(7)3-8(6)7/h5-6H,2-4H2,1H3/t5-,6-,7-/m0/s1
