22
gdb 77683	1.88411	1.70123	1.55579	0.8684	82.42	-0.217	0.0839	0.3009	1089.77	0.193018	-404.334329	-404.324719	-404.323775	-404.367883	36.36	
C	-0.2430734819	 1.4563817361	-0.0534087645	-0.339507
N	 0.0803355274	 0.0373759008	 0.0563540556	-0.167846
C	 1.3868653441	-0.5178641172	-0.2880023409	 0.248475
C	 1.4211138088	-1.7032292765	-1.2213950402	-0.474937
C	 2.5695866097	 0.4401082316	-0.3093611031	-0.141551
O	 2.5320444709	 1.1793891391	 0.906314666	-0.255297
C	 1.8109630441	 0.43683593	 1.8832824581	-0.141548
C	 0.8952068199	-0.5199838349	 1.1330224057	 0.248475
C	 0.3464040157	-1.7078620231	 1.8848532226	-0.474938
H	 0.5647732946	 2.1426167232	 0.2270336459	 0.132333
H	-0.5364651118	 1.6645492313	-1.0876320215	 0.118278
H	-1.1129496266	 1.6620818305	 0.5790735374	 0.118278
H	 1.4120127082	-1.3760873823	-2.2677774131	 0.120666
H	 2.3245492141	-2.3041000014	-1.068783689	 0.115245
H	 0.5464018733	-2.3386056297	-1.0678423226	 0.130226
H	 3.5064744113	-0.1336562731	-0.3993899313	 0.09297
H	 2.5369643268	 1.1616233156	-1.1351270178	 0.105786
H	 2.4924192324	-0.1380369716	 2.531518024	 0.092969
H	 1.2743380933	 1.156176309	 2.5142500319	 0.105786
H	-0.30769028	-1.3834965247	 2.7027583435	 0.120666
H	-0.2458186852	-2.3420168986	 1.2218880668	 0.130226
H	 1.1515433208	-2.3091598743	 2.3215707765	 0.115245
157.247	159.1599	168.1555	205.0518	208.8636	223.4851	231.8739	266.3244	325.5007	344.395	500.3039	519.1777	560.0839	632.1245	712.1214	726.2685	805.1803	927.038	940.485	952.3712	998.8488	1003.375	1088.1681	1106.8112	1127.3906	1153.0406	1158.5496	1174.8188	1176.7075	1227.2121	1229.8225	1253.3767	1264.3751	1368.0407	1369.6033	1407.4906	1416.3069	1433.6594	1469.3595	1479.7456	1489.6363	1491.6227	1496.6398	1505.2586	1506.231	1521.3213	1523.1443	2967.8898	2974.4125	3019.7723	3028.6991	3030.9822	3043.2196	3046.4257	3085.6344	3085.9882	3087.3369	3093.8918	3125.2805	3129.6493
CN1C2(C)COCC12C	CN1[C@@]2(C)COC[C@@]12C	
InChI=1S/C7H13NO/c1-6-4-9-5-7(6,2)8(6)3/h4-5H2,1-3H3	InChI=1S/C7H13NO/c1-6-4-9-5-7(6,2)8(6)3/h4-5H2,1-3H3/t6-,7+,8?
