13
gdb 130000	5.49973	1.31487	1.06289	6.6971	67.84	-0.2072	-0.0069	0.2003	1027.4462	0.092734	-448.927787	-448.921061	-448.920117	-448.958683	26.019	
N	-0.0108849371	 1.348059258	 0.1248014979	-0.591118
C	-0.0110862238	-0.0272075036	 0.0281673363	 0.402722
N	-1.1035585998	-0.7784432844	 0.039045964	-0.411539
C	-0.5824520805	-2.0350540498	 0.0323993979	 0.436627
C	 0.7874574004	-2.0808874495	 0.004368352	 0.181199
N	 1.1700312305	-0.7406441995	-0.019642115	-0.45768
C	 1.0884875367	-3.4520973482	-0.0517285057	-0.103121
N	-0.0241002775	-4.1711150644	-0.0381298397	-0.157427
O	-1.1090085851	-3.2588653509	 0.0077480794	-0.233321
H	 0.6470511459	 1.8238360898	-0.4778105748	 0.258345
H	-0.945561518	 1.7213140038	 0.0283715161	 0.274949
H	 2.0845073045	-0.3569150705	 0.14409415	 0.271038
H	 2.0315952339	-3.9774932307	-0.0879518884	 0.129326
154.1894	271.2562	280.5745	319.5906	344.113	399.9915	543.957	585.915	606.1931	655.5802	743.9102	766.3401	780.8503	849.4825	862.0944	878.199	978.06	1008.5438	1112.902	1198.2359	1212.9174	1283.7222	1396.5243	1452.1216	1478.7539	1547.5023	1592.9195	1609.0353	1657.9152	3247.4079	3553.5709	3654.8136	3678.2507
NC1=NC2=C(N1)C=NO2	Nc1nc2c([nH]1)cno2	
InChI=1S/C4H4N4O/c5-4-7-2-1-6-9-3(2)8-4/h1H,(H3,5,7,8)	InChI=1S/C4H4N4O/c5-4-7-2-1-6-9-3(2)8-4/h1H,(H3,5,7,8)
