17
gdb 79618	2.25758	1.87001	1.45878	2.3991	71.59	-0.2353	-0.021	0.2142	959.2509	0.137113	-421.811093	-421.803768	-421.802824	-421.842764	29.335	
O	 0.0454968987	 1.4044695623	 0.0686030102	-0.404773
C	-0.0043383063	 0.0114919562	-0.005939516	 0.083349
C	-1.2854530753	-0.7609782133	 0.0798862221	-0.09277
C	-2.6600028017	-0.1467233376	-0.1911426363	-0.045745
C	-2.8007697871	 1.3117347833	-0.5208424955	-0.302168
C	-2.7125477484	 0.2833717905	-1.6404319885	-0.15373
C	-1.3779541213	-0.0633545829	-2.2579920056	 0.401505
O	-1.0990249698	 0.0406918502	-3.4276024521	-0.331974
C	-0.4922633661	-0.7452999535	-1.2268753041	-0.231179
H	 0.7418506713	 1.706199913	-0.5253255566	 0.296832
H	 0.8377174892	-0.4743902453	 0.4896546182	 0.10098
H	-1.2806801125	-1.6323787284	 0.7247882212	 0.09754
H	-3.4981816476	-0.6594926015	 0.2652909027	 0.094608
H	-3.7869423236	 1.744518276	-0.3878292574	 0.114907
H	-1.9748534042	 1.9807245665	-0.3407881884	 0.156745
H	-3.5764192319	 0.1526648198	-2.2811024407	 0.10784
H	 0.1127083266	-1.5638989651	-1.6001128131	 0.108034
97.3953	170.3704	261.168	320.0197	353.9601	416.5426	480.5755	577.68	614.1082	659.7206	699.3342	739.5919	777.1905	790.3271	838.1431	877.3384	937.6514	973.8328	986.0184	1024.0695	1040.7122	1051.9473	1094.1107	1103.228	1110.6553	1120.5493	1180.2894	1201.1619	1245.2281	1278.2887	1314.9084	1332.6103	1362.8951	1371.5853	1454.4172	1484.3933	1819.0251	3084.4454	3149.1273	3166.663	3176.3936	3181.0757	3188.9659	3277.0851	3800.7715
OC1C2C3CC3C(=O)C12	O[C@H]1[C@H]2[C@H]3C[C@H]3C(=O)[C@@H]12	
InChI=1S/C7H8O2/c8-6-3-1-2(3)4-5(6)7(4)9/h2-5,7,9H,1H2	InChI=1S/C7H8O2/c8-6-3-1-2(3)4-5(6)7(4)9/h2-5,7,9H,1H2/t2-,3+,4-,5-,7-/m0/s1
