16
gdb 35694	2.50046	1.49351	1.10484	3.3219	68.63	-0.2648	0.0067	0.2715	1089.8808	0.124139	-437.850601	-437.842549	-437.841605	-437.884235	28.769	
N	-0.1837391393	-1.0813851706	-0.3784529469	-0.323985
C	-0.1539107581	 0.0526582843	-0.1553116698	 0.293374
C	-0.0884272191	 1.472228764	 0.1345984175	-0.297195
C	 0.038757499	 1.8914975675	 1.6232840626	-0.086199
O	 1.2645500356	 2.5952941981	 1.3534436225	-0.295233
C	 1.2932590468	 2.1782236577	-0.0130404784	 0.365457
C	 2.5495202947	 1.4773465599	-0.558851079	-0.137986
O	 2.6337424579	 2.4174795337	-1.6511914783	-0.26797
C	 1.5744201839	 3.2240112953	-1.103377875	-0.128736
H	-0.8856841261	 1.9948880012	-0.398775104	 0.13844
H	-0.7498622841	 2.5549610164	 1.9906444517	 0.125814
H	 0.1813341479	 1.0609293109	 2.3215046572	 0.132717
H	 3.4005718096	 1.5535201005	 0.1294268595	 0.118894
H	 2.4365516995	 0.443796544	-0.9032406375	 0.133421
H	 0.7752290961	 3.416061682	-1.829599166	 0.109618
H	 1.9348392058	 4.1747389552	-0.6892710559	 0.119568
57.3675	78.2943	142.3253	193.8257	273.0591	358.6448	399.6576	476.3718	534.5477	580.528	757.2117	821.5214	896.0905	901.1997	934.6461	990.4171	1020.5513	1032.5785	1040.9654	1071.1086	1117.1169	1146.6155	1149.3425	1166.7252	1196.9649	1219.6287	1245.7345	1300.1665	1336.7701	1360.0734	1380.2946	1492.4398	1519.2418	1525.3826	2357.2536	3010.4255	3026.3551	3044.7155	3063.5576	3083.1168	3086.073	3101.8428
N#CC1COC11COC1	N#C[C@H]1COC21COC2	
InChI=1S/C6H7NO2/c7-1-5-2-9-6(5)3-8-4-6/h5H,2-4H2	InChI=1S/C6H7NO2/c7-1-5-2-9-6(5)3-8-4-6/h5H,2-4H2/t5-/m0/s1
