16
gdb 128201	5.09649	0.89576	0.76636	6.9294	76.32	-0.2158	-0.0396	0.1762	1422.3567	0.125321	-434.086384	-434.077824	-434.07688	-434.119977	30.667	
C	 0.0668395885	 1.4243844474	 0.0254290593	-0.327259
N	 0.0161858303	-0.0282303808	 0.1086864763	-0.39807
C	-1.2319960588	-0.6224668552	 0.0397415116	 0.463584
C	-2.5141960626	-0.1078264787	 0.0424242969	-0.381528
C	-3.3586740078	-1.2509966122	 0.0217652309	 0.251437
C	-4.8300460099	-1.2320138795	 0.0105769346	 0.096414
O	-5.5527385764	-2.1981409868	-0.0294941098	-0.262773
N	-2.6618640692	-2.3885811664	 0.0033682383	-0.26707
N	-1.3799705679	-1.9798905172	 0.0214319825	-0.265779
H	 1.1078682314	 1.7457738972	 0.0971452421	 0.133065
H	-0.3652329813	 1.8256987328	-0.9035595746	 0.123083
H	-0.4787303759	 1.8548724948	 0.8702909112	 0.146307
H	 0.7115880576	-0.481023437	-0.4689751959	 0.241672
H	-2.8062444462	 0.9288481334	 0.0440084511	 0.110862
H	-5.2492744702	-0.1996999508	 0.0439037119	 0.062922
H	-0.6492085117	-2.672154161	 0.0567071135	 0.273133
84.2042	108.0789	147.7069	190.2335	240.492	248.8886	350.6981	432.8238	463.1157	517.5637	570.4204	691.7963	701.4026	743.957	774.4105	801.4942	1006.9831	1026.0383	1034.3613	1087.6412	1151.4713	1157.4943	1179.3976	1211.3877	1294.5768	1399.3738	1436.4392	1454.5085	1469.2719	1479.9697	1488.6317	1513.873	1532.8605	1637.746	1811.1584	2862.0102	2992.9924	3083.4875	3130.4185	3274.4433	3572.038	3653.7818
CNC1=CC(C=O)=NN1	CNc1cc(C=O)n[nH]1	
InChI=1S/C5H7N3O/c1-6-5-2-4(3-9)7-8-5/h2-3H,1H3,(H2,6,7,8)	InChI=1S/C5H7N3O/c1-6-5-2-4(3-9)7-8-5/h2-3H,1H3,(H2,6,7,8)
