17
gdb 72384	2.82979	2.15844	1.43289	0.6763	71.43	-0.2322	0.0083	0.2404	900.3668	0.138519	-417.955711	-417.949044	-417.9481	-417.986353	27.441	
C	 0.0238524024	 1.5316190049	-0.1142144572	-0.478153
C	 0.0040990392	 0.0304998255	 0.027978362	 0.48063
O	 0.3406619468	-0.5220683683	-1.2499567557	-0.279544
C	 0.3705435494	-1.8687994784	-1.3065907985	 0.116136
N	 0.1292287873	-2.6501509506	-0.3387272729	-0.294262
C	-0.1929609814	-1.9402173335	 0.8767094945	 0.024707
C	 0.643062313	-0.6747123068	 1.2642335478	-0.124775
N	-0.520907824	-0.1400088107	 2.066660231	-0.32933
C	-1.1387025056	-0.6948831214	 0.8037008258	-0.124774
H	 1.0157988832	 1.8658552653	-0.4333724089	 0.125695
H	-0.6961612296	 1.8464774224	-0.875777791	 0.125695
H	-0.2274358018	 1.9974915215	 0.8377699733	 0.155067
H	 0.6314505267	-2.2227287236	-2.3005035285	 0.131644
H	-0.3988528827	-2.6244641439	 1.7032635539	 0.078723
H	 1.6751064731	-0.6217385042	 1.6117042852	 0.088306
H	-0.7115200452	-0.7935661462	 2.8327474334	 0.215929
H	-2.2107320409	-0.6657290019	 0.6073333259	 0.088306
208.6665	212.3491	306.0397	330.1053	396.9851	458.8104	570.33	589.1743	605.6504	659.2966	793.384	829.3197	860.4961	880.4482	913.3459	916.5185	948.9966	968.6074	1026.6273	1055.1702	1078.9938	1123.0557	1147.7277	1148.5759	1175.8424	1197.7846	1202.7257	1236.1289	1261.3956	1293.4786	1327.8568	1378.6443	1388.9159	1407.5016	1490.4619	1491.8618	1707.4203	3049.1229	3086.1159	3109.5666	3113.5312	3119.1531	3165.6317	3180.7726	3390.2205
CC12OC=NC3C1NC23	C[C@@]12O[CH][N][C@H]3[C@@H]1N[C@@H]23	
InChI=1S/C6H8N2O/c1-6-4-3(5(6)8-4)7-2-9-6/h2-5,8H,1H3	InChI=1S/C6H8N2O/c1-6-4-3(5(6)8-4)7-2-9-6/h2-5,8H,1H3/t3-,4-,5+,6+
