21
gdb 108834	3.34846	1.11022	0.94633	1.7714	84.75	-0.2338	0.0075	0.2414	1342.8916	0.182184	-387.089492	-387.080483	-387.079539	-387.123373	34.135	
C	-0.2594380591	 1.5752675936	-0.0481999697	-0.374956
C	 0.0665028778	 0.0728314898	 0.0305894301	-0.297318
C	 0.7825954032	-0.4433448989	-1.1817100537	 0.331361
C	 2.0224257409	-0.9414805697	-1.2568649424	-0.199564
C	 2.4245190557	-1.3691608774	-2.6581604536	-0.054741
C	 2.9007458509	-2.8266161915	-2.7518065727	-0.392215
C	 1.1463697577	-1.0944501865	-3.4534790835	 0.034496
O	 0.0172794063	-1.8669846868	-3.0354596191	-0.260794
C	 0.1520810107	-0.5098357085	-2.5436897717	-0.071231
H	 0.6551925224	 2.168508946	-0.1441177018	 0.120893
H	-0.8969894157	 1.8042573948	-0.9084770446	 0.11894
H	-0.7876571521	 1.9052268574	 0.8515074173	 0.11577
H	 0.6770513746	-0.1212008337	 0.9193754127	 0.103058
H	-0.8693969459	-0.4865648853	 0.1656258318	 0.111545
H	 2.6802853122	-1.0884526729	-0.4053114753	 0.090084
H	 3.222541821	-0.7129526182	-3.0357957856	 0.080437
H	 2.0924552076	-3.5021388534	-2.4601253471	 0.137299
H	 3.2071041579	-3.0752844956	-3.7730749609	 0.113377
H	 3.756547344	-3.0038054791	-2.0928616534	 0.111768
H	 1.1903486788	-0.8749847493	-4.517437731	 0.089936
H	-0.636904539	 0.1673196551	-2.8581015558	 0.091855
60.9669	118.131	176.2447	197.2552	227.6009	241.8444	282.8405	386.6587	428.6439	538.4443	576.8396	630.1303	722.0757	788.5518	819.4435	853.7408	868.2353	875.3999	899.0045	936.151	967.7593	1015.2656	1034.6168	1062.6547	1089.9574	1093.8145	1117.7213	1125.9221	1195.2968	1254.4102	1262.6272	1292.3347	1304.7016	1328.068	1352.4597	1371.1847	1399.0445	1408.2556	1418.3189	1480.123	1494.791	1499.4981	1504.4743	1506.5413	1698.554	2997.0699	3013.7597	3035.9965	3037.2286	3062.6932	3102.0681	3105.2972	3111.1004	3124.6583	3139.9114	3158.136	3174.8097
CCC1=CC(C)C2OC12	CCC1=C[C@@H](C)[C@H]2O[C@@H]12	
InChI=1S/C8H12O/c1-3-6-4-5(2)7-8(6)9-7/h4-5,7-8H,3H2,1-2H3	InChI=1S/C8H12O/c1-3-6-4-5(2)7-8(6)9-7/h4-5,7-8H,3H2,1-2H3/t5-,7-,8+/m1/s1
