19
gdb 84250	3.33743	1.68865	1.45903	0.9853	81.19	-0.221	-0.0096	0.2114	964.2931	0.160628	-385.828443	-385.821433	-385.820489	-385.859444	29.084	
C	 0.1794746895	 1.5418387346	-0.0609016559	-0.40234
C	 0.0002889679	 0.0220990955	-0.0032933118	-0.030167
C	 0.7501698309	-0.6921196321	-1.1347573836	-0.127137
C	 1.3114642479	-1.8203374155	-0.6894428797	 0.1111
C	 2.7907111545	-2.1315803327	-0.5112162263	-0.301891
C	 2.4899932098	-1.7699520622	 0.998476973	 0.129658
O	 2.1464306112	-0.3804562908	 1.2690751661	-0.323335
C	 0.6933571284	-0.6393435284	 1.2155158175	 0.111775
C	 0.9966130219	-2.0739423918	 0.7902842074	-0.146693
H	 1.2427867407	 1.7979989835	-0.0506547351	 0.136717
H	-0.2694948764	 1.9591657091	-0.9676320708	 0.113627
H	-0.2946650595	 2.0229713006	 0.8010778997	 0.112898
H	-1.0745959351	-0.2121132644	 0.0400886269	 0.077326
H	 1.0702592539	-0.1531639425	-2.0212315659	 0.091483
H	 3.06959945	-3.1912925486	-0.5538347301	 0.107253
H	 3.5049119742	-1.5305688794	-1.0777973765	 0.113311
H	 3.1442335575	-2.1866160722	 1.7696005519	 0.081169
H	 0.233748945	-0.4273939158	 2.1875934215	 0.064938
H	 0.4655197177	-2.9635438869	 1.1217053117	 0.080307
142.2161	222.5223	249.1068	361.4033	378.5077	400.3613	505.2393	593.4006	684.973	711.3705	803.6576	822.1019	833.1756	867.4354	868.3562	902.8969	921.9057	941.0273	952.3912	968.1787	1004.2057	1033.9307	1057.7542	1087.4502	1102.9945	1131.7058	1153.998	1193.7829	1220.1219	1250.158	1258.676	1267.1427	1278.8768	1295.7216	1333.5245	1353.057	1406.119	1471.8215	1494.3525	1503.4855	1664.4755	2982.7787	3034.6084	3035.3304	3045.8354	3068.1807	3101.5898	3116.9946	3117.468	3135.6507	3175.5781
CC1C=C2CC3OC1C23	C[C@H]1[CH][C]2C[C@H]3O[C@@H]1[C@@H]23	
InChI=1S/C8H10O/c1-4-2-5-3-6-7(5)8(4)9-6/h2,4,6-8H,3H2,1H3	InChI=1S/C8H10O/c1-4-2-5-3-6-7(5)8(4)9-6/h2,4,6-8H,3H2,1H3/t4-,6+,7-,8-/m0/s1
