15
gdb 17717	4.88089	2.66017	2.18031	1.6314	68.56	-0.2194	-0.008	0.2115	654.8624	0.120867	-325.395576	-325.390465	-325.389521	-325.424265	22.315	
C	-0.0896469083	 1.5811825284	 0.0005003625	-0.342515
C	 1.4314175825	 1.2552135883	 0.0050024258	-0.0394
C	 1.2986336262	 0.1529164383	 1.0763129007	-0.05055
C	 1.7537246475	-1.0020388355	 0.1609544574	-0.084822
C	 0.6352505439	-2.0559203674	 0.2304969827	-0.076053
C	-0.5087543998	-1.3558977639	 0.2213325772	-0.216833
C	 0.0260731005	 0.0588115989	 0.1665548707	 0.3042
N	 1.1837766061	 0.0044375164	-0.8700714205	-0.155089
H	-0.4799310371	 2.1445109237	 0.8512565371	 0.104588
H	-0.5008715847	 1.9342781731	-0.9486205735	 0.115213
H	 2.2635642356	 1.9306031315	-0.1921371567	 0.082452
H	 1.3351254536	 0.2386650033	 2.1686884285	 0.064487
H	 2.7859717093	-1.3365368383	 0.0455529617	 0.065985
H	 0.770859814	-3.1282626736	 0.243533638	 0.110406
H	-1.5341880892	-1.6924669533	 0.2302679184	 0.117932
381.6604	423.44	445.3007	528.4106	666.908	694.4678	743.3897	753.918	820.9639	837.3841	851.5933	875.0287	895.5204	911.2956	929.4825	946.5602	1001.0977	1017.2757	1060.537	1093.7452	1119.1227	1145.5387	1157.0926	1175.9104	1201.3646	1212.4759	1265.2677	1276.3397	1279.8904	1331.419	1487.2585	1590.0315	3035.4565	3061.4006	3103.0116	3117.8423	3130.1258	3228.1838	3258.6156
C1C2C3C4C=CC13N24	C1[C@H]2[C@@H]3[C@H]4C=C[C@@]13N24	
InChI=1S/C7H7N/c1-2-7-3-5-6(7)4(1)8(5)7/h1-2,4-6H,3H2	InChI=1S/C7H7N/c1-2-7-3-5-6(7)4(1)8(5)7/h1-2,4-6H,3H2/t4-,5+,6+,7-/m1/s1
