16
gdb 125623	2.00888	1.88082	0.97873	2.9956	81.45	-0.2009	0.0206	0.2215	1159.0632	0.124309	-396.931322	-396.92222	-396.921276	-396.964862	33.648	
C	-0.0150032484	 1.4762644055	-0.0711874825	-0.505852
C	-0.0210829047	-0.0146973501	 0.0060667458	 0.261472
N	-0.0368903702	-0.7586133382	-1.0862742578	-0.292902
N	-0.0320721035	-2.0476652282	-0.6276548925	-0.260008
C	-0.0111611279	-2.1303712869	 0.7193510089	 0.289986
N	-0.0708952736	-3.3277521161	 1.4123561555	-0.615885
C	 0.0001995154	-0.8184643525	 1.1901529663	 0.006744
C	 0.043109148	-0.4284622319	 2.5423592035	 0.182756
C	 0.0858234181	-0.1162582186	 3.7074215944	-0.441821
H	 0.8756640755	 1.8943615174	 0.4102449143	 0.133606
H	-0.0313492001	 1.7938887785	-1.1155405465	 0.138618
H	-0.8850777955	 1.9015210452	 0.4405404081	 0.134533
H	-0.1066084552	-2.8019336116	-1.2879210063	 0.270202
H	 0.5442423334	-4.0508013874	 1.0614735077	 0.253539
H	 0.0760924621	-3.1866642452	 2.4040194913	 0.265323
H	 0.1142757965	 0.1723337402	 4.7283187898	 0.17969
102.8108	116.7616	146.2549	202.9591	240.4145	264.2909	344.4502	383.168	442.6192	458.0359	511.899	542.7683	575.3435	653.4647	670.2389	674.3118	708.4858	762.002	802.7813	1000.6438	1064.5511	1066.4177	1100.6782	1144.9157	1259.7353	1350.1706	1398.1395	1429.1505	1479.3663	1480.3596	1514.9391	1573.3938	1610.3669	1659.0919	2218.7661	3037.7173	3089.7519	3136.7354	3503.7115	3535.2843	3627.9482	3680.5775
CC1=NNC(N)=C1C#C	Cc1n[nH]c(N)c1C#C	
InChI=1S/C6H7N3/c1-3-5-4(2)8-9-6(5)7/h1H,2H3,(H3,7,8,9)	InChI=1S/C6H7N3/c1-3-5-4(2)8-9-6(5)7/h1H,2H3,(H3,7,8,9)
