15
gdb 20569	4.5928	1.47302	1.19997	4.1728	62.4	-0.2529	-0.0072	0.2457	974.3369	0.118648	-399.789263	-399.781681	-399.780737	-399.821783	27.371	
C	 0.1804394509	 1.4652044767	 0.2605481934	-0.402754
C	-0.1022572954	-0.0129451003	-0.0354748206	-0.000089
O	-1.4830049128	-0.2355685345	-0.3003582868	-0.435496
C	 0.6438837424	-0.5028585671	-1.2390674179	 0.173731
C	 0.1337018382	-0.9611600363	-2.4123183991	-0.000822
O	 1.1187742912	-1.3067941593	-3.255637022	-0.167352
N	 2.3423371453	-1.079351126	-2.6389447916	-0.134118
C	 2.0481464666	-0.6073356292	-1.4526928045	-0.063751
H	 1.2461136495	 1.6335497904	 0.4444723434	 0.124081
H	-0.1301653894	 2.0841418658	-0.5856634365	 0.134477
H	-0.3659266409	 1.788132714	 1.1543750615	 0.108941
H	 0.2120887711	-0.6073544504	 0.839371002	 0.082693
H	-1.9876055019	 0.1212335399	 0.4369295996	 0.286854
H	-0.8742514376	-1.0963018386	-2.7672439183	 0.165396
H	 2.8553022828	-0.3551301553	-0.7785316826	 0.128209
42.7129	159.3568	193.4392	254.6391	264.7256	347.5969	444.3603	489.7056	620.1753	652.3498	702.1996	856.0119	895.0194	906.7054	908.7829	941.4401	1003.8526	1049.1207	1101.0201	1124.4065	1145.8181	1205.1957	1232.2622	1281.4475	1358.9605	1375.5388	1403.0627	1435.9295	1475.4843	1490.2736	1502.1983	1656.4644	2951.4998	3030.2203	3099.6177	3124.3979	3237.2629	3289.02	3828.1419
CC(O)C1=CON=C1	C[C@@H](O)c1conc1	
InChI=1S/C5H7NO2/c1-4(7)5-2-6-8-3-5/h2-4,7H,1H3	InChI=1S/C5H7NO2/c1-4(7)5-2-6-8-3-5/h2-4,7H,1H3/t4-/m1/s1
