18
gdb 31524	3.26812	1.07496	0.86461	1.2895	76.36	-0.1855	0.0453	0.2308	1359.4527	0.148722	-435.308602	-435.299297	-435.298353	-435.343276	34.208	
C	 0.1605908687	 1.3233175518	-0.4887784362	-0.371384
C	-0.0817694851	 0.0486368782	 0.3397085346	-0.29175
C	-1.4786737505	-0.4743164686	 0.2470903072	 0.323192
N	-2.3922455215	-0.4306721057	 1.1876034971	-0.333047
C	-3.5315934918	-1.003842544	 0.650083956	 0.079365
N	-4.7828914752	-1.1878161421	 1.2908947562	-0.620334
C	-3.2844641346	-1.3931387285	-0.6360136608	 0.36693
O	-4.0574693463	-1.9942569074	-1.5641058079	-0.440531
N	-1.9827005848	-1.0592072595	-0.900536398	-0.351679
H	 1.1927167105	 1.6694502754	-0.3762981417	 0.11521
H	-0.0178993558	 1.1499127034	-1.555498664	 0.107419
H	-0.5083917198	 2.1263055576	-0.1661163982	 0.131362
H	 0.6330208994	-0.7267058232	 0.0318620374	 0.101015
H	 0.1061861539	 0.2506311025	 1.3973297179	 0.131545
H	-5.169454293	-0.298157541	 1.5952969441	 0.239616
H	-4.68151269	-1.7530301907	 2.1298598756	 0.239802
H	-4.9143159171	-2.1227007252	-1.1327670163	 0.307382
H	-1.5003166769	-1.2270168831	-1.7674089129	 0.265887
29.4279	117.2125	197.5127	209.8056	242.7567	263.3295	282.0353	309.9334	407.4735	471.3293	485.7488	527.9501	604.101	672.204	693.556	731.7788	786.103	826.6763	885.6291	962.3658	1014.633	1068.9157	1086.9271	1157.3031	1211.7681	1220.3336	1236.2012	1287.2987	1340.4315	1351.7047	1407.4455	1442.6576	1474.355	1496.8394	1503.0842	1534.3223	1580.9246	1646.7749	1705.964	3015.4672	3034.4198	3090.8752	3109.0106	3117.5618	3478.197	3536.2705	3665.296	3759.6799
CCC1=NC(N)=C(O)N1	CCc1nc(N)c(O)[nH]1	
InChI=1S/C5H9N3O/c1-2-3-7-4(6)5(9)8-3/h9H,2,6H2,1H3,(H,7,8)	InChI=1S/C5H9N3O/c1-2-3-7-4(6)5(9)8-3/h9H,2,6H2,1H3,(H,7,8)
