19
gdb 83485	2.92722	1.51612	1.46159	2.5948	76.05	-0.229	0.0303	0.2593	1006.2129	0.162905	-419.224079	-419.216632	-419.215688	-419.255665	29.93	
C	-0.1227255015	 1.5273445412	 0.024918946	-0.435139
C	 0.0549127787	 0.0137454297	 0.0325860746	 0.01752
C	 1.0886556767	-0.5930518206	-0.9405915704	 0.07746
C	 2.4189320323	-0.0429591412	-0.4092833205	-0.187525
N	 2.1665971193	-0.0005072464	 1.056581605	-0.30334
C	 0.8128274684	-0.5931634985	 1.2335138594	-0.100106
C	 0.8860863678	-2.039325083	 0.7890765021	 0.423972
N	 0.8604726503	-3.0803718549	 1.5009926164	-0.570452
O	 1.056373802	-1.9993909956	-0.580122638	-0.260683
H	 0.7972735031	 2.0437212939	 0.3063857126	 0.145482
H	-0.4343800985	 1.8800077556	-0.9641582807	 0.116486
H	-0.8999539253	 1.820324069	 0.7375103172	 0.124898
H	-0.9075368031	-0.4871034688	-0.1087542124	 0.092828
H	 0.9112415911	-0.5056901249	-2.0114423848	 0.088809
H	 3.2434256178	-0.7076490052	-0.6845713433	 0.113847
H	 2.6358827243	 0.9576941545	-0.8020342066	 0.107712
H	 2.8556492414	-0.5395950166	 1.5682294554	 0.234447
H	 0.4182125641	-0.4422857543	 2.2357632625	 0.094453
H	 0.9855592414	-3.9148818639	 0.9236411453	 0.219331
144.1107	179.8664	251.0584	256.833	288.0756	417.1949	441.6866	525.6839	595.5524	678.9128	741.5199	760.8483	819.0417	859.9942	881.201	896.945	926.077	947.1546	955.261	985.8348	1017.229	1052.0159	1061.2915	1082.9503	1107.1136	1134.7382	1198.083	1212.4379	1251.0865	1271.553	1279.2326	1303.9066	1348.8563	1360.3199	1391.0668	1412.3936	1425.652	1492.7435	1502.7354	1517.6489	1786.5684	3028.7502	3040.7777	3069.7068	3079.4653	3100.7175	3133.4499	3135.8537	3151.9612	3458.061	3545.6134
CC1C2CNC1C(=N)O2	C[C@H]1[C@H]2CN[C@@H]1[C]([NH])O2	
InChI=1S/C6H10N2O/c1-3-4-2-8-5(3)6(7)9-4/h3-5,7-8H,2H2,1H3	InChI=1S/C6H10N2O/c1-3-4-2-8-5(3)6(7)9-4/h3-5,7-8H,2H2,1H3/t3-,4+,5-/m0/s1
