18
gdb 38064	3.5944	1.43424	1.26831	2.6843	76.6	-0.2276	-0.0001	0.2275	1025.4814	0.149065	-401.899455	-401.892223	-401.891279	-401.931457	28.449	
C	 0.0582860513	 1.485901441	 0.0156096009	-0.24285
C	 1.2966175884	 0.6572580122	-0.0752358297	-0.078949
C	 2.0146748397	 0.4452940561	 1.2115560547	-0.0916
C	 1.2248911776	-0.2029544205	 2.0689436172	-0.160033
C	-0.0945275274	-0.5450253475	 1.4283167126	 0.238954
C	-0.5694186929	-2.0211129242	 1.4873988706	-0.11185
O	-1.7246850168	-1.674144324	 2.2762237916	-0.272793
C	-1.4064421647	-0.2737743956	 2.2131294957	-0.109315
N	-0.03384024	 0.0199751214	 0.0642052763	-0.138352
H	-0.0887211351	 2.0519606265	 0.9326847144	 0.117109
H	-0.3711720806	 1.9299277617	-0.878369352	 0.119336
H	 1.8144286401	 0.5412587708	-1.0233372444	 0.099971
H	 3.0225919843	 0.7936899567	 1.3994428239	 0.109006
H	 1.4560679307	-0.448136595	 3.099079896	 0.109616
H	-0.8368382972	-2.4230504042	 0.5033453894	 0.110221
H	 0.0925116289	-2.7210587303	 2.0116029628	 0.096357
H	-1.2885100494	 0.1694742568	 3.2095413528	 0.098967
H	-2.1477419067	 0.3009538083	 1.6436094273	 0.106205
64.674	143.8281	220.0409	348.5559	389.3428	417.4414	473.1548	586.6797	716.5084	762.5394	785.2502	807.9797	844.8562	872.9464	901.2515	950.9953	965.3082	980.972	991.4941	1041.7864	1044.536	1060.0069	1088.9901	1104.732	1109.7183	1152.6791	1160.7122	1163.1361	1200.6557	1219.4015	1274.9926	1303.0097	1340.0867	1373.8312	1374.0475	1491.963	1500.8065	1527.2193	1662.475	3006.9315	3020.3126	3057.9452	3072.1562	3100.1289	3147.2954	3191.396	3195.2552	3221.8994
C1C2C=CC3(COC3)N12	C1[C@H]2C=CC3(COC3)N12	
InChI=1S/C7H9NO/c1-2-7(4-9-5-7)8-3-6(1)8/h1-2,6H,3-5H2	InChI=1S/C7H9NO/c1-2-7(4-9-5-7)8-3-6(1)8/h1-2,6H,3-5H2/t6-,8?/m1/s1
