17
gdb 93566	3.56437	1.12132	0.90236	3.5193	70.97	-0.2546	-0.034	0.2206	1280.0783	0.136306	-455.199224	-455.190236	-455.189292	-455.23398	32.058	
C	 0.1034900241	 1.5294248684	 0.0343838726	-0.388959
C	 0.0143061215	 0.0041699769	 0.0406174944	 0.020076
C	 0.7219553034	-0.6791374788	-1.1654463542	-0.122483
O	 1.6883331378	-1.570462217	-0.5609211207	-0.237176
C	 1.5678933987	-1.3866723175	 0.7666828325	 0.334795
N	 0.7002450936	-0.5702523102	 1.2143027476	-0.332472
C	 2.5064857313	-2.1981446895	 1.6346145886	 0.334601
N	 2.3122092069	-1.9529314636	 2.9539108787	-0.52569
O	 3.3221678046	-2.9657383312	 1.170862834	-0.343346
H	 1.1484370923	 1.8541913339	-0.0006898958	 0.124498
H	-0.4160709144	 1.9434277685	-0.836112208	 0.118144
H	-0.35278084	 1.9428939536	 0.9374582012	 0.131692
H	-1.0416761389	-0.287662587	 0.0887331797	 0.095502
H	 0.0535768393	-1.2765493683	-1.7898890987	 0.12582
H	 1.264417491	 0.0298970291	-1.7988648133	 0.121359
H	 1.6053186518	-1.295547187	 3.2401538502	 0.277173
H	 2.8786830571	-2.4365034302	 3.6293149012	 0.266466
39.9965	65.5197	137.8847	187.0359	247.527	259.5754	334.4093	376.4742	417.1013	499.1601	566.9954	646.2025	657.7574	708.2742	816.0397	855.2068	911.1137	936.2163	960.3966	1007.2046	1089.1911	1101.3984	1120.6438	1159.6291	1224.4158	1230.3941	1305.8133	1351.1508	1375.9041	1403.544	1422.5798	1488.9732	1496.656	1519.7148	1595.8593	1704.2049	1816.7285	3027.9149	3036.7635	3052.4043	3105.21	3108.8386	3123.9117	3597.1049	3742.5237
CC1COC(=N1)C(N)=O	C[C@H]1COC(=N1)C(=O)N	
InChI=1S/C5H8N2O2/c1-3-2-9-5(7-3)4(6)8/h3H,2H2,1H3,(H2,6,8)	InChI=1S/C5H8N2O2/c1-3-2-9-5(7-3)4(6)8/h3H,2H2,1H3,(H2,6,8)/t3-/m0/s1
