13
gdb 16482	3.03621	2.74662	1.76163	3.9784	57.47	-0.2209	0.0006	0.2215	723.9204	0.095474	-398.525247	-398.518878	-398.517933	-398.555511	24.681	
O	-0.0674552241	 1.3532865141	 0.0855712647	-0.448343
C	 0.0794660776	-0.0053754696	 0.0652669612	 0.255577
C	-0.2016145559	-0.8659161863	-1.1728894489	-0.099502
N	 0.5622406785	-2.126349014	-1.0029292892	-0.328242
C	 0.0141957832	-2.112716634	 0.4058229157	-0.189368
C	-1.0854991342	-1.0532394722	 0.0160670764	-0.139396
C	 0.7854327337	-0.9185006998	 1.0254174312	 0.424176
O	 1.4476661683	-0.7676997572	 2.0101866058	-0.33985
H	 0.6118377489	 1.7504435644	-0.4712498483	 0.302132
H	-0.3935260114	-0.3903694106	-2.1275624252	 0.111408
H	 0.0554338945	-2.8497079292	-1.5144012005	 0.223296
H	-0.1134985121	-3.0511810795	 0.9361457978	 0.101974
H	-2.1235065769	-0.8863108559	 0.2665978593	 0.126139
166.0424	223.4517	266.1554	318.3066	445.4967	492.5747	614.6144	677.778	701.1304	778.0167	798.7444	829.6543	855.6102	925.1111	934.5593	962.7686	988.2745	1031.2347	1058.3067	1138.4153	1153.1204	1160.9577	1231.8582	1285.2785	1326.984	1368.8111	1451.7326	1892.3953	3178.7381	3190.256	3222.1443	3442.9591	3796.625
OC12C3NC(C13)C2=O	O[C@]12[C@H]3N[C@H]([C@@H]13)C2=O	
InChI=1S/C5H5NO2/c7-4-2-1-3(6-2)5(1,4)8/h1-3,6,8H	InChI=1S/C5H5NO2/c7-4-2-1-3(6-2)5(1,4)8/h1-3,6,8H/t1-,2-,3+,5+/m1/s1
