16
gdb 35489	3.28643	1.53241	1.46363	5.3153	70.64	-0.2448	0.0384	0.2832	935.6246	0.126562	-400.725944	-400.719252	-400.718308	-400.757193	26.533	
N	-0.0605326899	-1.205377426	-0.1557913519	-0.336143
C	-0.0338136582	-0.0552098856	-0.0448352663	 0.292296
C	-0.0094293635	 1.4047787023	 0.0559475622	-0.170573
C	-0.6557303941	 1.9453265399	 1.3795352329	-0.236092
C	 0.5565195717	 2.4077596455	 2.1764201135	 0.094827
O	 1.4232258632	 1.2414913981	 2.3746557489	-0.299678
C	 2.2504169778	 1.7007101148	 1.308162326	 0.110094
C	 1.554939131	 3.0186023962	 1.1684338497	-0.169358
C	 1.4181412791	 1.9792012212	 0.0736198799	-0.089311
H	-0.5480733451	 1.794815383	-0.8132986474	 0.126874
H	-1.3208916496	 2.7867507236	 1.1600939977	 0.112382
H	-1.2242162259	 1.1774769639	 1.9077722712	 0.138582
H	 0.3573624225	 2.9257233981	 3.1153182929	 0.092148
H	 3.2917268	 1.4034467901	 1.3010936014	 0.117323
H	 1.8973039434	 4.0387805145	 1.071625917	 0.108107
H	 1.9467029276	 2.1151082305	-0.8623239176	 0.108523
94.4243	157.0645	282.3317	374.7122	454.7018	503.5697	574.5344	674.8635	732.1447	787.0913	795.113	820.3479	840.8084	861.3793	910.6593	966.7562	984.2978	996.737	1028.2435	1033.1178	1043.4282	1061.5542	1082.6952	1119.8595	1181.7363	1222.925	1232.4055	1261.8816	1283.4053	1314.4792	1334.5569	1349.2709	1401.4492	1474.1404	2357.8156	3053.8452	3065.8921	3112.0261	3124.9746	3188.6568	3196.2095	3218.3347
N#CC1CC2OC3C2C13	N#C[C@H]1C[C@H]2O[C@@H]3[C@H]2[C@H]13	
InChI=1S/C7H7NO/c8-2-3-1-4-6-5(3)7(6)9-4/h3-7H,1H2	InChI=1S/C7H7NO/c8-2-3-1-4-6-5(3)7(6)9-4/h3-7H,1H2/t3-,4-,5+,6-,7+/m1/s1
