13
gdb 131933	4.72693	1.06949	0.87297	5.5449	66.34	-0.2191	-0.0736	0.1455	1208.5479	0.089436	-489.825267	-489.81766	-489.816716	-489.857778	27.779	
N	 0.1060856061	 1.3512891659	 0.1610865419	-0.592408
C	-0.0843350676	-0.0100313593	 0.0520244876	 0.438918
C	-1.1829884335	-0.8148791137	 0.0217335291	-0.407189
C	-0.6470131329	-2.1422504407	 0.0026005473	 0.344443
C	 0.708861993	-2.0638812279	 0.0157483718	-0.0525
O	 1.0623473595	-0.7516341076	 0.049078463	-0.172596
N	-1.396304841	-3.3657873973	-0.0348445721	 0.332667
O	-2.6194570213	-3.2719111931	-0.0479427764	-0.361795
O	-0.7645130094	-4.4187273229	-0.052205847	-0.379011
H	 0.9532079562	 1.6791005003	-0.2839423739	 0.26579
H	-0.6975181036	 1.8951764748	-0.1180698793	 0.267499
H	-2.2216762708	-0.5363717804	 0.0122159062	 0.138961
H	 1.4975576754	-2.7933439283	 0.0016882318	 0.17722
84.5511	155.5085	184.3289	201.1045	336.5856	387.0166	417.8442	558.2134	593.3039	629.8089	689.3107	721.5216	742.4294	762.3399	821.4764	831.3832	945.1508	996.6036	1080.1055	1147.8965	1181.1589	1239.1643	1327.5587	1408.4608	1465.3608	1588.1905	1616.509	1630.1098	1678.9085	3297.1598	3317.8887	3558.5761	3662.5141
NC1=CC(=CO1)N(=O)=O	Nc1cc(co1)N(=O)=O	
InChI=1S/C4H4N2O3/c5-4-1-3(2-9-4)6(7)8/h1-2H,5H2	InChI=1S/C4H4N2O3/c5-4-1-3(2-9-4)6(7)8/h1-2H,5H2
