21
gdb 111798	2.93577	1.42913	1.37193	0.8866	82.34	-0.2363	0.0227	0.259	1076.2445	0.18498	-387.092084	-387.084212	-387.083268	-387.12434	31.418	
C	-0.0138783386	 1.3122360823	-0.1814967939	-0.242295
O	-0.0404350876	-0.0308874972	 0.2462983346	-0.257956
C	-1.2994472754	-0.6430609797	 0.1194493045	 0.174144
C	-1.6806707825	-1.1506265179	-1.3065224753	-0.10585
C	-0.5009867583	-2.141773744	-1.5763649089	-0.196859
C	-0.243813642	-2.7735558717	-0.1762446071	-0.197514
C	-1.3039615404	-2.0631749781	 0.729659603	-0.101135
C	-2.6714479016	-2.5208891082	 0.263181884	-0.082611
C	-2.8944933625	-1.9798492527	-0.9412706764	-0.080807
H	 0.9890673006	 1.6970032933	 0.0187624486	 0.125994
H	-0.2204917096	 1.4122966717	-1.2571478938	 0.107851
H	-0.7454912698	 1.9257162691	 0.3671309756	 0.105445
H	-2.086274434	-0.0048491273	 0.5462309173	 0.06043
H	-1.8283402682	-0.3993463131	-2.0833611781	 0.054863
H	-0.765911064	-2.8791971425	-2.3372789908	 0.091965
H	 0.3792506267	-1.5954237761	-1.9240567245	 0.100601
H	-0.3753015655	-3.8578392364	-0.1663549806	 0.091001
H	 0.7644104871	-2.54652315	 0.1770183286	 0.10805
H	-1.1038745292	-2.1289254682	 1.7992852763	 0.060988
H	-3.2990900972	-3.2251351205	 0.7952123181	 0.09227
H	-3.745542088	-2.1474624426	-1.590101031	 0.091425
87.3868	174.525	186.8508	248.5958	298.5153	360.4531	417.9709	508.8406	547.2048	680.0195	736.5093	774.5383	804.1855	843.1983	850.8338	887.8901	898.6065	939.6063	956.314	980.7826	1000.7938	1025.6094	1038.7894	1054.8366	1116.3991	1145.6544	1156.1604	1171.5263	1183.8491	1194.5162	1228.1656	1238.6978	1272.8504	1287.8174	1294.0818	1305.8259	1338.4424	1362.4261	1385.6554	1479.1831	1481.9897	1489.1211	1499.4684	1509.5364	1640.454	2977.4728	3008.0992	3026.4894	3061.8441	3071.6421	3102.7774	3105.6561	3113.5129	3114.0932	3122.1912	3191.4077	3216.8902
COC1C2CCC1C=C2	CO[C@H]1[C@H]2CC[C@@H]1C=C2	
InChI=1S/C8H12O/c1-9-8-6-2-3-7(8)5-4-6/h2-3,6-8H,4-5H2,1H3	InChI=1S/C8H12O/c1-9-8-6-2-3-7(8)5-4-6/h2-3,6-8H,4-5H2,1H3/t6-,7+,8+
