15
gdb 98945	4.33743	0.81052	0.68583	1.631	72.06	-0.2699	-0.0785	0.1913	1520.5018	0.11257	-450.138625	-450.129495	-450.128551	-450.173343	32.082	
O	 0.0789552403	 1.2614702649	 0.6575026916	-0.415606
C	-0.077339302	-0.0979624878	 0.4054266274	-0.113163
C	-1.5197500975	-0.4258492473	 0.0471949393	 0.3676
N	-2.3652097949	 0.5163979889	 0.0197917017	-0.522305
N	-1.7354709788	-1.785263509	-0.2173343719	-0.378018
C	-2.9267472193	-2.3837530135	-0.5650485554	 0.329777
N	-4.0267361462	-1.7481836405	-0.6957550537	-0.506793
C	-2.8037201783	-3.819183485	-0.7696654154	 0.221597
N	-2.7407999898	-4.960936237	-0.9397365461	-0.303212
H	-0.8086743319	 1.6424625504	 0.5312945185	 0.300576
H	 0.5724854058	-0.4246702263	-0.4252830654	 0.109342
H	 0.2100552761	-0.700310101	 1.2850778837	 0.109277
H	-3.3021984834	 0.2039508523	-0.2288442979	 0.266117
H	-0.9349218116	-2.3954177879	-0.145792907	 0.278926
H	-4.7877659185	-2.3699967613	-0.9565711796	 0.255886
62.2387	91.2118	119.4759	121.2836	224.3129	320.6971	331.7344	391.8552	428.2337	428.9263	498.2867	545.7966	612.9571	712.0651	720.2841	844.5641	880.0875	934.86	958.4962	1052.8568	1053.4503	1149.2983	1166.6031	1254.1982	1279.8861	1319.6347	1376.3335	1479.3084	1512.7777	1553.929	1683.3485	1753.8401	2350.6058	2952.5067	2965.9821	3505.5246	3533.8383	3618.5137	3622.563
OCC(=N)NC(=N)C#N	OCC(=N)NC(=N)C#N	
InChI=1S/C4H6N4O/c5-1-3(6)8-4(7)2-9/h9H,2H2,(H3,6,7,8)	InChI=1S/C4H6N4O/c5-1-3(6)8-4(7)2-9/h9H,2H2,(H3,6,7,8)
