20
gdb 110348	2.23674	1.46264	1.36556	3.3728	74.52	-0.2292	0.0483	0.2774	1089.9634	0.170568	-440.221065	-440.211777	-440.210833	-440.25511	34.796	
C	-0.3341229104	 1.5706868404	 0.028143805	-0.430333
C	-0.0098081431	 0.0836467499	 0.0074606384	 0.050476
C	 1.1053956665	-0.5222535746	-0.903184411	 0.046183
O	 2.0735891614	 0.3302612159	-1.4995146429	-0.425989
C	 1.6212262411	-1.2244536628	 0.3388123516	-0.061914
C	 1.9911384584	-0.2918075907	 1.4244983366	-0.011999
C	 2.7441946853	 1.0257404086	 1.258072754	-0.097875
O	 3.9914003623	 0.8247227866	 0.6206696933	-0.426162
N	 0.5532630335	-0.5916922054	 1.2417731995	-0.1824
H	 0.5239571416	 2.1997338857	-0.2151534455	 0.131189
H	-1.1249926244	 1.7948156583	-0.6957544388	 0.113687
H	-0.7011753822	 1.8582104979	 1.0185625533	 0.136752
H	-0.9346698431	-0.4676408203	-0.1895935669	 0.089959
H	 0.7013556489	-1.2129642844	-1.6514300492	 0.084645
H	 1.698588292	 0.7277426573	-2.2917998512	 0.292051
H	 1.8519655505	-2.283450735	 0.3863267786	 0.096822
H	 2.3298435155	-0.8362822477	 2.3050216598	 0.105374
H	 2.148216687	 1.774481357	 0.7332828866	 0.09373
H	 2.9659933398	 1.4261113555	 2.2528723079	 0.10563
H	 3.7723260695	 0.6001644479	-0.293377449	 0.290174
66.2736	106.03	171.8664	187.5313	217.0905	249.456	279.0029	320.5035	417.2355	503.097	532.4121	555.4991	657.1228	718.7531	745.7952	780.3696	829.3637	885.3582	937.7089	965.3166	1002.5937	1022.0037	1069.9846	1082.2932	1099.6372	1117.2144	1147.9533	1168.3315	1198.5165	1240.6421	1258.5956	1289.2269	1309.5095	1357.4198	1384.0396	1385.7441	1403.184	1422.9348	1438.3387	1453.7346	1482.9764	1498.8244	1512.6413	3034.714	3039.2342	3054.8826	3057.2143	3100.0275	3105.1339	3121.9601	3134.434	3167.5812	3763.1209	3820.4251
CC1C(O)C2C(CO)N12	C[C@H]1[C@@H](O)[C@H]2[C@@H](CO)N12	
InChI=1S/C6H11NO2/c1-3-6(9)5-4(2-8)7(3)5/h3-6,8-9H,2H2,1H3	InChI=1S/C6H11NO2/c1-3-6(9)5-4(2-8)7(3)5/h3-6,8-9H,2H2,1H3/t3-,4+,5+,6+,7?/m0/s1
