15
gdb 25933	2.83946	1.67084	1.05598	4.0733	69.93	-0.1931	-0.0129	0.1802	1055.7504	0.114159	-454.021063	-454.0134	-454.012456	-454.053219	29.829	
N	 0.001924697	 1.3083232233	 0.0268734592	-0.562957
C	 0.0472539768	-0.054090718	 0.062855092	 0.518768
O	 1.1030700408	-0.6778564451	 0.110230512	-0.423544
N	-1.1835039809	-0.7006985675	 0.0765895208	-0.176709
C	-2.4729704152	-0.1404103701	 0.1496500755	-0.123844
C	-3.3667926321	-1.1614924095	 0.058559978	-0.144376
C	-2.6511242102	-2.395878297	-0.0868418269	-0.299247
C	-1.3195312144	-2.0939020458	-0.0636287642	 0.427761
O	-0.2565242969	-2.8908606446	-0.1740877119	-0.427421
H	 0.8955927271	 1.7511299449	-0.1155085904	 0.276407
H	-0.8020414834	 1.7736053124	-0.3598119162	 0.271214
H	-2.6127455912	 0.9049098686	 0.3628499661	 0.123569
H	-4.4399472411	-1.05517316	 0.1072994737	 0.107563
H	-3.0618559549	-3.3865807256	-0.1890918962	 0.109571
H	 0.5351144587	-2.3208141157	-0.0544882813	 0.323246
91.1569	128.556	260.0652	298.1887	390.0047	411.4938	489.0986	513.682	538.7084	583.1162	604.1829	685.731	689.5471	692.8428	737.8398	764.6819	781.7163	853.3032	884.7399	1035.796	1072.1668	1116.4229	1181.1857	1216.0199	1277.1151	1297.3003	1379.6497	1450.7273	1498.6675	1557.7168	1614.9305	1659.8939	1778.2308	3246.7514	3271.4382	3285.4726	3444.697	3602.794	3724.4333
NC(=O)N1C=CC=C1O	NC(=O)n1cccc1O	
InChI=1S/C5H6N2O2/c6-5(9)7-3-1-2-4(7)8/h1-3,8H,(H2,6,9)	InChI=1S/C5H6N2O2/c6-5(9)7-3-1-2-4(7)8/h1-3,8H,(H2,6,9)
