16
gdb 25658	5.78067	0.77021	0.68547	1.9584	89.16	-0.2149	-0.019	0.1959	1632.9119	0.12335	-400.776172	-400.767024	-400.76608	-400.812406	31.231	
C	-0.1506439108	 1.424986916	 0.1048993477	-0.51247
C	-0.0492057572	-0.0225219374	 0.0298396521	 0.263867
C	 0.0318761151	-1.2253831004	-0.0318420169	-0.13919
C	 0.1498244451	-2.6199330014	-0.1084853552	 0.179653
C	 1.1793378538	-3.4775708453	-0.360623057	-0.225027
N	 0.7247243385	-4.7816730707	-0.311284192	-0.289459
C	-0.5408794027	-4.6778826103	-0.0363466197	 0.378019
C	-1.5384431289	-5.7645121359	 0.1373090997	-0.499645
O	-0.9710904465	-3.4007986375	 0.1028639435	-0.203999
H	 0.5041699208	 1.8315587057	 0.8838477565	 0.154905
H	 0.127737018	 1.8949177982	-0.8451107795	 0.154891
H	-1.1760195042	 1.7307262732	 0.3393619634	 0.157815
H	 2.2081539019	-3.234776215	-0.5720685411	 0.126528
H	-1.9833906902	-5.7337176834	 1.1372949017	 0.148012
H	-2.3530297	-5.6701379035	-0.5882535766	 0.148013
H	-1.0427359027	-6.7249463724	-0.0042684167	 0.158087
12.6627	85.1343	93.3439	107.8418	220.2213	279.2436	305.8708	368.8823	464.3325	471.6303	542.104	686.9342	693.4975	700.9791	863.2041	942.7344	978.926	1002.603	1049.1194	1050.364	1054.1683	1066.1576	1166.425	1232.8847	1296.9378	1341.3995	1409.9872	1413.0024	1471.6649	1475.2553	1475.8561	1479.7637	1587.6051	1625.0281	2355.1947	3025.721	3043.8628	3084.9702	3092.2897	3098.2087	3158.4598	3269.816
CC#CC1=CN=C(C)O1	CC#Cc1cnc(C)o1	
InChI=1S/C7H7NO/c1-3-4-7-5-8-6(2)9-7/h5H,1-2H3	InChI=1S/C7H7NO/c1-3-4-7-5-8-6(2)9-7/h5H,1-2H3
