14
gdb 133248	2.58771	1.82598	1.07773	1.1173	69.25	-0.2279	-0.0677	0.1602	1021.2958	0.101907	-474.160483	-474.152999	-474.152054	-474.192662	27.635	
C	-0.3925163737	 1.3496561831	-0.0242922696	-0.313343
N	 0.0356425807	-0.0410820999	-0.002741404	-0.032575
N	 0.2509533614	-0.6327095147	-1.1905895462	-0.201439
C	 0.6324540947	-1.871437497	-1.1766574391	 0.061748
N	 0.8390508598	-2.6424862452	-0.0525955645	-0.3107
C	 0.6273034869	-2.0551434937	 1.0564223212	 0.311237
F	 0.8017332767	-2.722811493	 2.1843347976	-0.048628
C	 0.1942397962	-0.666344181	 1.2319974348	 0.25859
N	-0.0313745321	-0.032471327	 2.3222123797	-0.566023
H	 0.3256334697	 1.968281506	 0.5212039415	 0.156474
H	-0.4577382512	 1.654283379	-1.0667664938	 0.151223
H	-1.360578323	 1.4484151315	 0.4748066366	 0.156485
H	 0.8041157846	-2.3421457651	-2.1355216316	 0.145068
H	 0.1350651792	-0.643866323	 3.1187337075	 0.231882
94.8214	151.4011	214.5193	277.1481	326.3447	336.2509	492.0584	509.714	549.2989	575.4929	628.8038	734.4518	764.9856	821.922	890.5913	896.9298	957.0745	1051.8105	1151.459	1204.048	1218.8264	1298.9	1342.9738	1389.5474	1420.6058	1441.3495	1468.7072	1503.7273	1563.4068	1659.3627	1696.523	3053.5489	3113.6847	3182.8397	3228.7444	3519.9807
CN1N=CN=C(F)C1=N	CN1N=CN=C(F)[C@H]1[NH]	
InChI=1S/C4H5FN4/c1-9-4(6)3(5)7-2-8-9/h2,6H,1H3	InChI=1S/C4H6FN4/c1-9-4(6)3(5)7-2-8-9/h2,4,6H,1H3/t4-/m0/s1
