17
gdb 69409	3.26257	1.19527	1.13455	3.7968	77.65	-0.2529	-0.0112	0.2417	1141.9964	0.136909	-380.869881	-380.861961	-380.861017	-380.90227	30.483	
C	-0.1209037321	 1.5655681512	 0.0177569036	-0.496197
C	 0.0683531942	 0.0722392202	-0.0141025908	 0.305478
N	-0.7426349204	-0.8126719187	 0.8772209251	-0.372702
C	 0.7171875371	-0.7286560964	 1.0598934315	-0.110037
C	 1.4617503087	-1.9049667986	 0.4078280814	-0.18261
C	 1.1479797413	-1.7182515043	-1.0761902229	-0.088604
C	 0.4022597181	-0.636299328	-1.2915906378	-0.098035
C	 2.9008605563	-1.8840703477	 0.6841085681	 0.259508
N	 4.0349227331	-1.8580073295	 0.9056769285	-0.324925
H	 0.7334635663	 2.0791568785	-0.4349028735	 0.137824
H	-1.0200393582	 1.8594948058	-0.5354132115	 0.131657
H	-0.2252755757	 1.9274357386	 1.045577348	 0.120903
H	-1.1856924998	-0.2399634282	 1.5952869375	 0.229332
H	 1.1241120896	-0.2784501944	 1.9582147023	 0.110296
H	 1.0597083827	-2.8580933043	 0.7740395945	 0.146288
H	 1.4864001112	-2.4288012055	-1.8195288518	 0.121301
H	 0.0397069776	-0.3070247586	-2.2582773822	 0.110526
93.1429	149.3124	209.6235	255.1407	287.9222	349.5084	437.0576	449.5635	523.8125	583.174	610.0586	726.4841	775.8229	794.3318	835.6971	883.9193	928.7491	958.7316	973.6152	1006.7363	1018.6071	1055.8819	1065.2774	1118.5577	1133.539	1169.9102	1234.5573	1279.6938	1289.1598	1318.9495	1371.5458	1416.073	1433.1706	1485.0147	1501.0103	1674.547	2356.8723	3030.4453	3038.2326	3095.2977	3105.7095	3179.3865	3198.8877	3225.7614	3467.4643
CC12NC1C(C=C2)C#N	C[C@]12N[C@H]1[C@@H](C=C2)C#N	
InChI=1S/C7H8N2/c1-7-3-2-5(4-8)6(7)9-7/h2-3,5-6,9H,1H3	InChI=1S/C7H8N2/c1-7-3-2-5(4-8)6(7)9-7/h2-3,5-6,9H,1H3/t5-,6-,7+/m0/s1
