18
gdb 50826	4.14955	0.90017	0.75438	3.339	79.01	-0.2423	0.0072	0.2495	1482.7634	0.149032	-435.295204	-435.286153	-435.285208	-435.329984	31.743	
N	 0.9137767704	-0.030643521	-0.4437376384	-0.480791
C	-0.1999162802	 0.4742415422	-0.0942854978	 0.110107
N	-1.3627999627	-0.2641515182	-0.1916961008	-0.355239
C	-2.6152380368	 0.2487166939	 0.1429376074	 0.492277
O	-2.7834860021	 1.3865499817	 0.5429059829	-0.40612
N	-3.639299198	-0.6371426267	-0.0375026671	-0.136672
C	-3.666678955	-2.1087976638	-0.0038925087	-0.187681
C	-5.1558070776	-2.0255754219	 0.4347823766	-0.239984
C	-4.985939377	-0.4814802922	 0.5232633535	-0.156475
H	 1.6624893382	 0.6449359974	-0.305004925	 0.228236
H	-0.3863846348	 1.4750163363	 0.3002377374	 0.138434
H	-1.2691777802	-1.1922085607	-0.5778287751	 0.259267
H	-3.4766288425	-2.5866816487	-0.9713798033	 0.119039
H	-2.9940205788	-2.5436211487	 0.7459952494	 0.120201
H	-5.8586484802	-2.3529492314	-0.3316572627	 0.122657
H	-5.3913206539	-2.5257649277	 1.3738007053	 0.12215
H	-4.9796027223	-0.0678685714	 1.5369172355	 0.126793
H	-5.6589711263	 0.1179064709	-0.096082799	 0.123801
66.3407	92.1509	124.3411	129.0174	177.4316	192.0329	265.2381	406.1909	467.6036	578.75	589.5903	752.5831	770.8742	824.631	835.8729	850.4802	916.2745	940.2277	984.7858	1057.5825	1086.642	1136.7999	1143.185	1152.0032	1184.1041	1202.595	1233.4791	1269.7238	1297.4469	1310.8531	1339.6346	1355.95	1401.212	1489.7579	1507.4325	1513.1972	1537.9521	1728.6646	1785.6925	3017.6293	3048.634	3061.7937	3091.7523	3096.7626	3123.5754	3151.4988	3509.6938	3617.8859
N=CNC(=O)N1CCC1	N=CNC(=O)N1CCC1	
InChI=1S/C5H9N3O/c6-4-7-5(9)8-2-1-3-8/h4H,1-3H2,(H2,6,7,9)	InChI=1S/C5H9N3O/c6-4-7-5(9)8-2-1-3-8/h4H,1-3H2,(H2,6,7,9)
