19
gdb 43393	2.49596	1.74654	1.16553	3.5128	82.58	-0.2371	-0.0464	0.1907	1079.6975	0.161038	-385.92306	-385.915292	-385.914348	-385.955257	30.774	
O	 0.0177543153	 0.0401516369	-0.3473536038	-0.352708
C	 0.014101017	 1.2261049696	-0.0652048613	 0.322894
C	-1.2521272099	 1.9587076467	 0.1549526698	-0.136437
C	-1.3002914304	 3.2905758906	 0.2846566344	-0.056212
C	-0.0714996911	 4.1565762059	 0.3042155695	-0.265413
C	 1.1637568285	 3.3608304987	 0.7461235105	-0.310556
C	 1.2768630933	 2.039445743	 0.0069117894	 0.245349
C	 2.5718932185	 1.2648578523	 0.0391818432	-0.307334
C	 2.1628954002	 1.9366430997	-1.234175241	-0.28814
H	-2.1502901031	 1.3497231206	 0.1294562058	 0.106269
H	-2.2648237915	 3.7882289233	 0.361120457	 0.10682
H	 0.0815034983	 4.5779754587	-0.7010412414	 0.124215
H	-0.2303220992	 5.0162201973	 0.9650029205	 0.110611
H	 2.0738437799	 3.9533783834	 0.603717649	 0.098199
H	 1.0819548732	 3.1628783469	 1.823137317	 0.108996
H	 3.3884452564	 1.6934722734	 0.6105354892	 0.110006
H	 2.4774466668	 0.1863819222	 0.0860108063	 0.139734
H	 1.8046983933	 1.3094712492	-2.0424830025	 0.131935
H	 2.6843596744	 2.8369999815	-1.5424349517	 0.111772
79.541	163.8348	246.1265	284.1109	334.7721	349.5215	404.6443	479.664	539.9422	642.2346	668.8004	731.7076	791.5443	821.7876	834.9183	876.8696	900.8197	956.647	961.4172	992.332	1022.3561	1031.4704	1059.4405	1070.4592	1094.2328	1142.0303	1180.3984	1200.2078	1212.0959	1243.7537	1308.9447	1352.3242	1361.5108	1395.7155	1408.4885	1452.6205	1467.9008	1483.7263	1491.703	1682.2465	1756.1648	2999.292	3019.2383	3058.9188	3068.4717	3131.3857	3136.0681	3149.7963	3189.2472	3220.4961	3235.4849
O=C1C=CCCC11CC1	O=C1C=CCCC21CC2	
InChI=1S/C8H10O/c9-7-3-1-2-4-8(7)5-6-8/h1,3H,2,4-6H2	InChI=1S/C8H10O/c9-7-3-1-2-4-8(7)5-6-8/h1,3H,2,4-6H2
