18
gdb 83840	2.09909	2.02529	1.4	3.6043	72.18	-0.238	-0.0044	0.2336	987.8931	0.148677	-439.083956	-439.076022	-439.075078	-439.116313	30.253	
C	-0.2990292392	 1.431169598	 0.2036185865	-0.426835
C	-0.0427464883	-0.036801007	-0.0386050501	-0.004287
C	 0.7306250489	-0.5499212896	-1.2219405704	-0.063296
C	 1.4181428136	 0.3300710053	-2.2584005467	-0.110953
O	 2.3490246516	 1.234720025	-1.6897760564	-0.243753
C	 3.2302208538	 0.5959943516	-0.7662910947	-0.189133
C	 2.4019166081	 0.2015037898	 0.450858674	 0.370496
O	 2.6251825501	 0.5726728531	 1.5778090993	-0.327295
N	 1.3035941468	-0.6009569876	 0.1188761096	-0.110496
H	 0.4444564852	 2.0587807022	-0.2920805526	 0.147248
H	-1.2913948701	 1.6992955829	-0.1725325291	 0.121545
H	-0.2706327854	 1.6498098947	 1.2754697045	 0.148309
H	-0.8177554165	-0.6982191872	 0.3459131038	 0.103833
H	 0.4416018889	-1.5262958926	-1.6092424982	 0.102398
H	 1.9305435935	-0.3275832002	-2.979712697	 0.105103
H	 0.6981098413	 0.9394207175	-2.8132584717	 0.126511
H	 3.7246763342	-0.2744352752	-1.2253411661	 0.109918
H	 3.9797921136	 1.3309308092	-0.4729759647	 0.140688
109.0624	133.3697	208.1363	224.3492	283.0984	366.5145	415.3576	461.2645	486.7948	548.8575	677.6718	685.8917	785.2555	816.8948	821.1897	934.4008	958.3351	986.1286	1034.6595	1047.8084	1079.6932	1120.2111	1137.8255	1162.8881	1177.4605	1201.5689	1250.0824	1307.1591	1349.4781	1368.7855	1378.4379	1394.4215	1422.1414	1439.016	1479.0888	1491.4062	1498.9361	1502.644	1815.501	2971.6428	2988.4669	3044.636	3079.8235	3107.4983	3109.6595	3117.0063	3140.1364	3140.9686
CC1C2COCC(=O)N12	C[C@H]1[C@H]2COCC(=O)N12	
InChI=1S/C6H9NO2/c1-4-5-2-9-3-6(8)7(4)5/h4-5H,2-3H2,1H3	InChI=1S/C6H9NO2/c1-4-5-2-9-3-6(8)7(4)5/h4-5H,2-3H2,1H3/t4-,5+,7?/m0/s1
