19
gdb 77927	2.22962	1.40518	1.36385	1.2795	71.54	-0.2372	0.0609	0.298	1089.7587	0.156881	-460.097812	-460.088251	-460.087307	-460.131461	36.06	
C	-0.3299969881	 1.5408066746	-0.132071103	-0.455227
C	-0.0137459657	 0.0527553143	-0.048263995	 0.002821
C	 1.1758581041	-0.6403970868	-0.8012420855	-0.156672
C	 2.1579956656	-0.1250118775	 0.2797921526	 0.090983
O	 2.5426986644	 1.2248666688	 0.2445225188	-0.437609
C	 0.8797692309	-0.5885262544	 1.0603895905	 0.265877
O	 0.6119129433	-0.4752474667	 2.4142295322	-0.47256
C	 0.9677403482	-1.8657194031	 0.1617839321	 0.105977
O	-0.0946661444	-2.7597602467	 0.0273976413	-0.446538
H	 0.5582532003	 2.1653935096	-0.0879022654	 0.144208
H	-0.8575952794	 1.7522009585	-1.0690274589	 0.110758
H	-1.0014572921	 1.8212437263	 0.687523656	 0.11748
H	-0.9632467204	-0.4820653819	-0.1833072353	 0.040008
H	 1.3526244936	-0.6796068573	-1.8732128599	 0.086016
H	 3.040273072	-0.7660981365	 0.4307152826	 0.060165
H	 2.7257060135	 1.4980952563	 1.1500069589	 0.288382
H	 1.1113659419	-1.1507748601	 2.8861395555	 0.287235
H	 1.8583409743	-2.4836444283	 0.3079931329	 0.079269
H	-0.9278178622	-2.2777767793	 0.0485523496	 0.289426
129.2967	152.7384	170.63	184.6266	227.9065	255.2642	273.5702	297.2254	304.1207	394.4029	430.5013	529.2247	533.8524	650.7095	688.5802	735.444	823.2551	834.0828	893.9445	951.1811	981.9506	1026.5896	1070.837	1075.6707	1108.7674	1121.664	1143.6191	1198.1373	1208.4616	1219.2976	1235.2124	1291.4191	1316.1685	1325.6209	1361.5202	1401.6211	1424.9224	1465.6837	1482.06	1499.4258	1514.886	2976.1831	2998.1586	3036.455	3071.9549	3086.2652	3153.37	3184.1791	3804.6262	3806.2568	3811.0604
CC1C2C(O)C1(O)C2O	C[C@H]1[C@H]2[C@@H](O)[C@]1(O)[C@H]2O	
InChI=1S/C6H10O3/c1-2-3-4(7)6(2,9)5(3)8/h2-5,7-9H,1H3	InChI=1S/C6H10O3/c1-2-3-4(7)6(2,9)5(3)8/h2-5,7-9H,1H3/t2-,3-,4+,5-,6-/m0/s1
