16
gdb 33974	2.39573	1.7285	1.20464	1.4099	77.07	-0.2306	0.0236	0.2542	1038.522	0.122852	-400.640101	-400.632211	-400.631266	-400.672384	30.67	
C	-0.0145362413	-1.2088620924	-0.0651484111	-0.421582
C	 0.020693034	-0.0084130781	 0.0133714455	 0.182959
C	 0.0314966795	 1.4053500806	 0.1147075222	 0.137679
N	 0.2506519696	 2.3042740412	-1.0693609599	-0.37348
C	 1.158337807	 2.4041392004	 0.0849515228	-0.122861
C	 0.4554259604	 3.3039754654	 1.1127488175	-0.315326
C	-0.7096831978	 2.2893340352	 1.1178025596	 0.408365
C	-2.1398572047	 2.4156107771	 1.371428187	-0.261886
O	-1.2493609081	 1.7809246368	 2.3130860214	-0.270207
H	-0.0396225576	-2.2687648154	-0.1245729614	 0.192254
H	 0.7108563278	 1.7308219394	-1.7773633072	 0.24054
H	 2.2194612253	 2.2134444025	-0.0109460566	 0.114437
H	 0.9525810859	 3.3127654688	 2.0854990075	 0.126078
H	 0.2409355945	 4.3223943917	 0.7824354166	 0.117855
H	-2.5501258829	 3.3705105321	 1.6953286917	 0.120304
H	-2.8380640616	 1.7472256447	 0.8709792444	 0.124871
104.5331	134.0056	174.9038	296.7865	318.3726	400.8286	461.358	490.7649	553.5491	577.8224	586.93	621.9766	664.6938	783.1913	848.7927	859.0415	875.3938	903.9948	941.916	979.9756	1031.4322	1052.2995	1107.8191	1124.195	1143.696	1163.6039	1178.7021	1220.4267	1274.3204	1328.2967	1390.0448	1440.912	1471.8081	1538.0883	2234.5402	3070.921	3089.5218	3132.7436	3179.4939	3203.3917	3468.4789	3502.1092
C#CC12NC1CC21CO1	C#C[C@]12N[C@H]1C[C@]12CO1	
InChI=1S/C7H7NO/c1-2-7-5(8-7)3-6(7)4-9-6/h1,5,8H,3-4H2	InChI=1S/C7H7NO/c1-2-7-5(8-7)3-6(7)4-9-6/h1,5,8H,3-4H2/t5-,6+,7-/m0/s1
