17
gdb 36103	3.47874	1.22515	1.06788	1.4352	76.18	-0.2317	0.0456	0.2774	1150.6855	0.133957	-384.575743	-384.567784	-384.56684	-384.608502	31.21	
C	-0.2652960636	-1.2198361634	 0.201392852	-0.446841
C	-0.127345154	-0.0375484798	 0.0384402655	 0.300415
C	 0.0540451086	 1.398407761	-0.1508331521	-0.478699
C	 1.4934171476	 1.8242326193	-0.0538127427	 0.426346
O	 1.845469368	 3.1073513184	-0.5887477998	-0.290111
C	 2.5749049234	 1.9418493341	-1.0241594747	-0.055152
C	 3.6358137842	 1.5651304442	 0.05638892	-0.084628
C	 3.5753552823	 2.4956101136	 1.2384623219	-0.290333
C	 2.5106767907	 1.4442639345	 1.0767616063	-0.127258
H	-0.3945743402	-2.2646359208	 0.3397735099	 0.199573
H	-0.3311371547	 1.7087730578	-1.1291717828	 0.146561
H	-0.5317570901	 1.9452106632	 0.6015038487	 0.143103
H	 2.6192164584	 1.7521532396	-2.0900212232	 0.108149
H	 4.4505265122	 0.8774194209	-0.1243888595	 0.095886
H	 4.3026183062	 2.2852758694	 2.0162543859	 0.112356
H	 3.337287265	 3.5421938836	 1.0977241449	 0.136306
H	 2.335148496	 0.6463205444	 1.7847776599	 0.104328
61.0519	100.9004	230.0524	283.654	342.6241	410.6199	413.7904	500.0369	593.6375	624.674	631.6934	655.4312	733.8473	756.2353	805.7531	845.4064	865.7814	914.5383	931.1802	966.0038	975.8969	1012.9128	1019.787	1053.7346	1056.6595	1101.5606	1128.5257	1166.852	1225.0636	1263.959	1279.5115	1308.8764	1327.0143	1457.2115	1462.159	1484.7642	2242.862	3012.3593	3061.9793	3141.2052	3188.112	3206.4445	3215.6568	3233.8819	3506.3147
C#CCC12OC1C1CC21	C#CC[C@]12O[C@H]1[C@H]1C[C@@H]21	
InChI=1S/C8H8O/c1-2-3-8-6-4-5(6)7(8)9-8/h1,5-7H,3-4H2	InChI=1S/C8H8O/c1-2-3-8-6-4-5(6)7(8)9-8/h1,5-7H,3-4H2/t5-,6+,7-,8+/m0/s1
