15
gdb 84057	3.65828	1.21257	1.01311	1.8589	75.93	-0.242	-0.0451	0.1969	1141.2229	0.111828	-420.573288	-420.565549	-420.564605	-420.605528	29.898	
O	 0.0488104105	 1.4029566122	-0.1484736188	-0.429972
C	 0.0435473768	-0.0115331254	-0.0679418512	 0.091678
C	 0.7253321801	-0.534169462	 1.1877105213	-0.246625
C	-0.0923790125	-1.2805219369	 1.9504539265	 0.213504
C	 0.1921382044	-1.9009643425	 3.1877628572	 0.216628
C	 0.3947006704	-2.4589867006	 4.2363464315	-0.417047
C	-1.4552408343	-1.3434846983	 1.3019645938	-0.090434
O	-2.0695259213	-0.0399132349	 1.1755142552	-0.26093
C	-1.3704388871	-0.5928545189	 0.0495293743	-0.00482
H	-0.5255624893	 1.7060455083	 0.5675387772	 0.291763
H	 0.5438110184	-0.3653367091	-0.9767269879	 0.100047
H	 1.7383916887	-0.2507664813	 1.4452686155	 0.118476
H	 0.5852649768	-2.9379566659	 5.1648154363	 0.199089
H	-2.1362804623	-2.167267043	 1.4861692456	 0.111102
H	-1.9739329992	-0.7965432817	-0.8294373066	 0.107543
104.306	142.3321	172.0341	271.565	385.7148	445.2127	464.7904	499.5042	539.6586	585.2739	601.6907	645.9295	657.8743	757.467	816.1561	858.4496	883.9371	896.1968	930.0022	1002.0651	1065.9495	1067.5191	1105.9814	1170.5229	1247.8121	1253.4325	1271.269	1305.6086	1329.7051	1416.6118	1430.3844	1654.6922	2223.7908	3050.3483	3164.6289	3184.2374	3216.1849	3501.8304	3765.9497
OC1C=C(C#C)C2OC12	O[C@H]1C=C(C#C)[C@H]2O[C@@H]12	
InChI=1S/C7H6O2/c1-2-4-3-5(8)7-6(4)9-7/h1,3,5-8H	InChI=1S/C7H6O2/c1-2-4-3-5(8)7-6(4)9-7/h1,3,5-8H/t5-,6+,7-/m0/s1
