15
gdb 94144	1.95206	1.59482	1.27039	4.3226	72.72	-0.2624	-0.0263	0.2361	1066.9707	0.111154	-416.747235	-416.73837	-416.737426	-416.780943	32.326	
N	 0.3321737199	 1.2755204112	-0.3331281704	-0.500898
C	 0.0954435064	-0.057399119	 0.1014556457	-0.062133
C	-0.0930538829	-0.2911696058	 1.6096813047	-0.079821
O	-1.2693895807	-1.1081777719	 1.3990399694	-0.291722
C	-1.3575813665	-0.7593887217	 0.0028213347	 0.055657
C	-2.4390173511	 0.1663251913	-0.2949996782	 0.316031
C	-3.276588981	 0.9968371617	-0.5265972194	-0.428475
C	-1.4093789164	-1.9459896006	-0.855772445	 0.249509
N	-1.3887562997	-2.8699193587	-1.5499793616	-0.334012
H	 0.4909999656	 1.3283089085	-1.3328697586	 0.246397
H	-0.4442235805	 1.889298026	-0.1056716877	 0.242233
H	 0.8377502839	-0.7264906204	-0.3356969019	 0.127703
H	 0.6956545506	-0.8394111603	 2.1316932473	 0.127946
H	-0.3319422693	 0.625899889	 2.16206978	 0.115292
H	-4.0487166682	 1.6974563007	-0.733562229	 0.216293
72.2247	123.2224	137.4129	160.036	245.0713	297.1493	345.0866	409.8626	497.2074	509.9598	558.2524	581.7496	608.4998	658.7515	685.3545	741.8074	827.1276	910.0358	943.0677	991.991	1009.7981	1078.7334	1119.3054	1154.8781	1181.8607	1269.4984	1285.5244	1336.7529	1442.0497	1519.3567	1669.9071	2231.2961	2352.1849	3030.7726	3094.9328	3114.1558	3494.9466	3507.3065	3593.8313
NC1COC1(C#C)C#N	N[C@H]1CO[C@]1(C#C)C#N	
InChI=1S/C6H6N2O/c1-2-6(4-7)5(8)3-9-6/h1,5H,3,8H2	InChI=1S/C6H6N2O/c1-2-6(4-7)5(8)3-9-6/h1,5H,3,8H2/t5-,6+/m0/s1
