17
gdb 31253	1.98784	1.72857	0.96416	2.4118	72.75	-0.1907	0.0197	0.2104	1195.4787	0.136804	-455.162468	-455.153596	-455.152652	-455.19662	31.724	
C	-0.2803434334	 1.3255451247	-0.189813273	-0.33187
N	 0.1373322163	-0.0509461483	 0.0444362341	-0.392417
C	 0.674301909	-0.7842595242	-0.9832825824	 0.353935
C	 0.7432562707	-2.1275780225	-1.233755665	 0.104441
C	 0.1538033982	-3.2327460787	-0.4198846993	-0.193104
O	-1.1136131006	-2.8621800318	 0.1404309217	-0.417139
N	 1.4779253405	-2.3152084826	-2.4032155067	-0.298115
C	 1.8027637861	-1.1312779289	-2.7881739884	 0.036049
O	 1.342073986	-0.1296705533	-1.9711462547	-0.181931
H	 0.5722364522	 1.9145588137	-0.5346110478	 0.149095
H	-1.0849093017	 1.4207650667	-0.9347404375	 0.115925
H	-0.6266414798	 1.748561381	 0.7554651639	 0.131292
H	-0.5199118321	-0.6185877554	 0.5652209525	 0.255796
H	 0.0795006187	-4.1386929219	-1.0357187524	 0.118156
H	 0.7736177067	-3.4812011634	 0.450120111	 0.122433
H	-1.7087607531	-2.7013717687	-0.6004221429	 0.283578
H	 2.3647750764	-0.8211487163	-3.6532913831	 0.143875
63.2314	109.8833	151.5755	152.84	210.8805	247.5946	324.0541	379.2791	438.0162	499.1239	637.7721	655.9767	707.3692	731.1153	760.2176	800.7067	946.4753	965.9604	1030.2604	1059.9318	1089.4807	1099.1557	1151.0645	1175.0235	1207.2722	1270.3198	1303.221	1368.6437	1405.6193	1442.4677	1467.5585	1486.6478	1492.3637	1503.9719	1517.9839	1565.4038	1680.4578	2989.2178	3017.7969	3054.8264	3094.922	3136.9909	3288.477	3569.3694	3799.6096
CNC1=C(CO)N=CO1	CNc1c(CO)nco1	
InChI=1S/C5H8N2O2/c1-6-5-4(2-8)7-3-9-5/h3,6,8H,2H2,1H3	InChI=1S/C5H8N2O2/c1-6-5-4(2-8)7-3-9-5/h3,6,8H,2H2,1H3
