18
gdb 106424	2.89904	1.34007	1.15659	1.3585	72.36	-0.2455	0.0573	0.3027	1110.7175	0.147384	-438.973943	-438.965771	-438.964827	-439.006945	31.226	
O	 0.0278772923	 1.4102302642	 0.1294940869	-0.410962
C	 0.0005665619	-0.010249758	 0.1246402045	-0.210597
C	-1.4006581914	-0.5534464973	 0.1138807272	 0.192259
C	-2.5546073162	-0.3632428659	 1.1502861811	-0.27738
C	-3.1604987562	-1.1291503542	-0.0614967271	-0.140614
N	-2.3796711098	-0.2358097294	-1.0236864107	-0.376836
C	-1.9020060042	-2.0014669951	-0.0451631656	 0.547617
C	-1.4434859307	-3.2164923307	-0.6855512169	-0.304827
O	-1.6182544149	-3.1081062694	 0.757991427	-0.298046
H	-0.2556339177	 1.7051799426	-0.7419439606	 0.289505
H	 0.5568568073	-0.4208243488	-0.731500167	 0.101026
H	 0.5097587748	-0.3339394659	 1.0384355101	 0.127044
H	-2.476057737	-0.8901771648	 2.1056640632	 0.11465
H	-2.8988986999	 0.6669709714	 1.2741011689	 0.100628
H	-4.1956896234	-1.4111504113	-0.2510945564	 0.091159
H	-2.7146539804	 0.7226742342	-0.8792027281	 0.206862
H	-2.1534976979	-3.87345842	-1.1838135166	 0.125791
H	-0.4102556868	-3.3106701718	-1.0138392897	 0.122723
62.1678	131.7706	204.1977	248.312	272.607	315.369	352.882	481.2181	505.6482	618.5639	640.3463	700.5355	768.9947	805.8163	864.1832	898.5623	924.0763	951.1971	993.1545	1028.2939	1044.8678	1075.2023	1079.0698	1099.3459	1112.4766	1133.4315	1172.7219	1183.8824	1199.0903	1239.6688	1274.2517	1299.0063	1334.9676	1390.0298	1415.163	1467.2637	1486.9852	1502.9449	1573.2059	2993.859	3048.5973	3079.9058	3094.7412	3121.4457	3125.554	3182.5052	3378.4807	3817.6112
OCC12CC(N1)C21CO1	OC[C@@]12C[C@@H](N1)[C@]12CO1	
InChI=1S/C6H9NO2/c8-2-5-1-4(7-5)6(5)3-9-6/h4,7-8H,1-3H2	InChI=1S/C6H9NO2/c8-2-5-1-4(7-5)6(5)3-9-6/h4,7-8H,1-3H2/t4-,5-,6+/m1/s1
