25
gdb 109533	1.8795	1.25708	1.08208	1.776	89.43	-0.249	0.0639	0.3129	1357.0139	0.225802	-389.48423	-389.47268	-389.471736	-389.520106	42.963	
C	 1.3011513044	 1.2700689559	-0.5455388352	-0.458374
C	 0.7787331851	-0.1318739985	-0.2616883174	 0.271715
C	-0.1546226828	-0.5981463202	-1.3696974153	-0.447557
C	 1.6831524812	-1.1746937314	 0.3893410196	-0.129044
C	 3.1451220862	-0.9461398186	 0.6970160625	-0.089574
O	 3.9778813033	-1.2140534778	-0.4264661839	-0.420338
C	 0.5305303359	-0.5741026963	 1.1807319671	 0.262322
C	 0.8010683741	 0.3869987104	 2.3308208304	-0.451036
C	-0.6485392304	-1.4808689239	 1.5054682534	-0.44952
H	 2.0379373201	 1.6241732113	 0.1765450637	 0.117223
H	 1.7691499988	 1.3103361615	-1.5374208248	 0.106583
H	 0.478178036	 1.9947779535	-0.554468808	 0.117777
H	 0.3477811693	-0.529422418	-2.3421540803	 0.109595
H	-0.4773265038	-1.6333593897	-1.2463160091	 0.116079
H	-1.0532419618	 0.0288139719	-1.4239332488	 0.112395
H	 1.5083213156	-2.1920025738	 0.0422935319	 0.079908
H	 3.3248776263	 0.066619908	 1.0831112513	 0.0807
H	 3.4774227114	-1.6435219343	 1.4743365923	 0.10881
H	 3.6660564407	-0.6599604178	-1.1492315646	 0.280062
H	 1.6573011727	 1.0425214779	 2.1709930906	 0.113947
H	-0.072818578	 1.0255296143	 2.5081076165	 0.113393
H	 0.9862047935	-0.170969239	 3.2562553283	 0.114914
H	-0.4725490472	-2.0011113822	 2.4544356203	 0.11359
H	-1.5735219918	-0.9020572606	 1.6180478103	 0.112015
H	-0.8222912686	-2.2444630826	 0.745278079	 0.114414
71.0683	128.6327	156.6166	169.5645	179.9118	181.7769	207.0078	242.298	288.7988	303.7216	316.602	359.0173	388.8828	423.4561	441.17	491.9646	554.417	658.0667	693.8228	823.2782	950.4537	959.3086	968.0152	975.6576	996.0899	1009.332	1041.4116	1051.3562	1070.8101	1122.3326	1141.8369	1163.3195	1182.308	1227.0591	1237.0943	1292.3008	1327.301	1372.3751	1405.116	1413.0117	1414.8673	1419.5647	1436.2551	1452.9699	1475.531	1484.526	1491.2809	1494.6727	1498.3298	1503.0448	1510.1185	1516.645	1528.9353	3004.0616	3018.4655	3021.9444	3023.7988	3029.9494	3059.5051	3068.6225	3073.3625	3074.6751	3078.5661	3116.228	3117.202	3124.3996	3134.0675	3142.3258	3815.1345
CC1(C)C(CO)C1(C)C	CC1(C)C(CO)C1(C)C	
InChI=1S/C8H16O/c1-7(2)6(5-9)8(7,3)4/h6,9H,5H2,1-4H3	InChI=1S/C8H16O/c1-7(2)6(5-9)8(7,3)4/h6,9H,5H2,1-4H3
