17
gdb 89702	3.68578	1.25158	1.15049	2.0113	74.52	-0.2495	0.013	0.2624	1091.8665	0.135812	-421.767685	-421.760021	-421.759077	-421.799579	30.895	
O	 0.0349643542	 1.374598925	 0.0136546893	-0.447037
C	 0.0167769493	-0.0325236287	-0.0309084936	 0.170942
C	 0.5380061669	-0.7148413837	 1.2789304144	-0.312827
C	-0.8034431196	-1.3487071197	 1.7239125435	 0.330961
C	-1.2847497509	-2.0582866488	 0.4264073427	-0.279019
C	-1.4243959506	-0.5828902153	 0.0230346752	 0.017244
O	-1.7637730892	-0.2621172207	 1.4154849418	-0.345469
C	-0.911714937	-1.9269093207	 3.0358960694	 0.066596
C	-0.9778215643	-2.4290479491	 4.1257653381	-0.317353
H	-0.550642734	 1.6179485162	 0.7434904575	 0.283422
H	 0.5679675578	-0.3278074039	-0.9267522852	 0.088248
H	 1.3175752241	-1.4624530756	 1.1161658241	 0.111244
H	 0.8987421093	 0.0282194371	 1.9920113839	 0.120296
H	-0.5774231208	-2.6987490281	-0.1055436118	 0.104085
H	-2.2499129027	-2.5446790261	 0.564327916	 0.126529
H	-2.1442002817	-0.2116124747	-0.7046781989	 0.091521
H	-1.0407878009	-2.8690862932	 5.0904700435	 0.190618
115.3685	148.0613	204.4207	338.2918	416.4972	451.7304	490.7679	506.8803	524.2347	542.3817	613.688	626.6828	688.166	733.4038	824.98	834.5863	846.3063	902.4835	927.9059	955.2127	998.5593	1014.094	1065.9026	1111.4234	1128.4763	1162.3574	1186.0681	1222.876	1244.8554	1274.9217	1286.0443	1307.5276	1329.6408	1439.6684	1476.8983	1496.1605	2243.1156	3073.6194	3076.7561	3091.2323	3134.0591	3141.9521	3155.5923	3501.2088	3759.4275
OC1CC2(CC1O2)C#C	O[C@H]1C[C@@]2(C[C@H]1O2)C#C	
InChI=1S/C7H8O2/c1-2-7-3-5(8)6(4-7)9-7/h1,5-6,8H,3-4H2	InChI=1S/C7H8O2/c1-2-7-3-5(8)6(4-7)9-7/h1,5-6,8H,3-4H2/t5-,6+,7+/m0/s1
