15
gdb 10997	4.31254	1.79824	1.50941	4.1231	67.13	-0.2325	-0.0567	0.1758	849.2376	0.119445	-362.663577	-362.656717	-362.655772	-362.694343	26.45	
C	-0.038202504	 1.5483759726	 0.03338167	-0.494584
C	 0.0992528661	 0.0494165814	 0.0130124879	 0.285408
N	-0.7778123405	-0.8149925507	 0.8515877354	-0.356993
C	 0.7006646366	-0.7665349619	 1.0907002006	-0.225687
C	 1.4314165645	-1.9212770219	 0.4241042823	 0.431381
O	 2.1208910138	-2.7503453706	 0.9674102957	-0.328731
C	 1.1560874561	-1.77892799	-1.0363166192	-0.202435
C	 0.4370764148	-0.6734912512	-1.2655745338	-0.077869
H	 0.8630178271	 2.0311937116	-0.358403648	 0.136107
H	-0.8858795996	 1.8731673734	-0.5807270635	 0.131984
H	-0.199766304	 1.913217625	 1.0524824545	 0.123505
H	-1.2171357562	-0.2333048991	 1.567678104	 0.230887
H	 1.0753609201	-0.357158984	 2.0213044659	 0.107473
H	 1.492280795	-2.5067126107	-1.7631659374	 0.120954
H	 0.0841174901	-0.3309301336	-2.2323045944	 0.118599
133.2454	211.9165	252.615	288.4308	393.8558	419.5367	474.9345	572.2796	653.8778	724.0113	764.0978	832.9161	844.7935	861.7587	901.4426	967.3129	988.4354	1022.8787	1054.8944	1084.2591	1113.8256	1133.8154	1187.6996	1299.4571	1312.9888	1360.7839	1411.6278	1427.7865	1484.866	1499.1648	1640.2372	1824.0472	3030.1746	3094.1872	3107.2403	3191.1065	3191.5086	3230.2799	3441.8732
CC12NC1C(=O)C=C2	C[C@]12N[C@H]1C(=O)C=C2	
InChI=1S/C6H7NO/c1-6-3-2-4(8)5(6)7-6/h2-3,5,7H,1H3	InChI=1S/C6H7NO/c1-6-3-2-4(8)5(6)7-6/h2-3,5,7H,1H3/t5-,6+/m0/s1
