19
gdb 110034	2.3427	1.56942	1.08836	2.714	73.34	-0.2449	0.0211	0.266	1147.1678	0.160722	-456.345675	-456.336957	-456.336013	-456.37917	32.698	
C	 0.006110133	 1.4072138246	-0.0755669026	-0.330175
N	-0.1864518992	-0.0262945498	 0.1751867813	-0.310151
C	 0.6668112079	-0.6254445594	 1.1923864943	-0.118741
C	 0.3663998295	-2.1340314057	 1.313452366	 0.101578
O	 0.1611433988	-2.6949535578	 0.0365392738	-0.445346
C	 1.6759818462	-2.6543770152	 1.9006982545	-0.099714
O	 2.7004803628	-1.7992264201	 1.3631199236	-0.238163
C	 2.1613997512	-0.6470170611	 0.8764152456	 0.451749
N	 2.8243653914	 0.2550492228	 0.2927720645	-0.548855
H	 1.0115503345	 1.5739133232	-0.4586310005	 0.180944
H	-0.7258336398	 1.7285837339	-0.8216576536	 0.115069
H	-0.1248981047	 2.0237048588	 0.8288984685	 0.096272
H	-1.1483149724	-0.1712348679	 0.4704820262	 0.228051
H	 0.5583650082	-0.1537101379	 2.1874066876	 0.088886
H	-0.485827737	-2.3423284177	 1.9766163481	 0.0715
H	-0.0499497564	-1.944725138	-0.5444238494	 0.29044
H	 1.6904742605	-2.5921951669	 2.9957611198	 0.106727
H	 1.8826868833	-3.6787183095	 1.5860141932	 0.134907
H	 3.8069387622	-0.0150852263	 0.2209386389	 0.22502
76.3233	125.1842	175.0878	191.68	232.9362	284.4591	352.6471	377.4702	469.596	496.4491	549.0341	622.8669	709.4087	774.8008	839.8313	870.398	892.4986	901.5737	968.0177	987.0676	1010.1873	1039.7447	1111.1725	1134.4457	1151.0142	1182.4805	1199.6215	1223.2493	1255.1834	1279.9667	1307.5374	1359.3294	1382.3791	1404.2208	1437.7708	1456.6744	1487.06	1502.8999	1504.3813	1528.8956	1775.8609	2922.1894	2972.4379	2998.182	3036.5896	3088.2247	3123.0727	3167.6991	3470.1786	3493.1102	3645.9127
CNC1C(O)COC1=N	CN[C@H]1[C@@H](O)CO[C]1[NH]	
InChI=1S/C5H10N2O2/c1-7-4-3(8)2-9-5(4)6/h3-4,6-8H,2H2,1H3	InChI=1S/C5H10N2O2/c1-7-4-3(8)2-9-5(4)6/h3-4,6-8H,2H2,1H3/t3-,4-/m0/s1
