21
gdb 110024	2.30122	1.41586	1.03348	3.8383	78.45	-0.2319	-0.0107	0.2212	1241.0249	0.181848	-424.265818	-424.256366	-424.255422	-424.300282	35.418	
C	 0.2087003766	 1.6329782785	 0.1025533099	-0.395854
C	 0.0319624558	 0.1110137522	 0.083070098	-0.181711
C	 0.5121876235	-0.5405799597	-1.2190996163	-0.083897
C	 0.6761767839	-2.0669661211	-1.2038054646	 0.080843
O	-0.4976136409	-2.6000325942	-0.5967803056	-0.434079
C	 0.7520780749	-2.4428525788	-2.6989488227	-0.250504
C	-0.2956238055	-1.5342066291	-3.3613762527	-0.30396
C	-0.3806102954	-0.3025992695	-2.4486235949	 0.410621
O	-1.0481459408	 0.6767589714	-2.6647449451	-0.320564
H	 1.2639227568	 1.9094829506	-0.0103323309	 0.102042
H	-0.3525522834	 2.0975213145	-0.7104624204	 0.149274
H	-0.1429230557	 2.0518768713	 1.0506193858	 0.106764
H	 0.5846851417	-0.3377696664	 0.9175274847	 0.092374
H	-1.0190241607	-0.1488653055	 0.239904144	 0.118587
H	 1.4959100744	-0.1229110577	-1.4900066636	 0.096364
H	 1.5727205293	-2.3784138977	-0.650188899	 0.064146
H	-0.4360083925	-3.5601170548	-0.6156354434	 0.285201
H	 1.7566387237	-2.224264051	-3.0791320905	 0.104724
H	 0.570068596	-3.5100128026	-2.8596506509	 0.093339
H	-0.0667293429	-1.2407682948	-4.3887156307	 0.125693
H	-1.2864284289	-2.0001204655	-3.371266281	 0.140598
54.6962	98.5837	158.1236	177.6169	212.5065	274.8043	309.6798	323.1467	396.7637	449.6704	466.369	563.4932	621.2389	691.8035	762.6435	783.6166	825.4275	894.6473	907.9944	965.893	979.8111	1018.2077	1029.8371	1052.7019	1077.8713	1141.5237	1168.6374	1184.6924	1191.75	1207.1765	1265.2345	1286.3775	1291.9273	1314.4595	1338.553	1361.8152	1376.8581	1408.3991	1424.5082	1443.9348	1486.3364	1488.7912	1498.5046	1517.1621	1839.5345	2981.392	3004.1487	3030.6292	3033.3208	3042.4948	3061.3116	3081.4793	3083.8354	3099.0579	3112.0304	3138.1528	3820.8544
CCC1C(O)CCC1=O	CC[C@H]1[C@@H](O)CCC1=O	
InChI=1S/C7H12O2/c1-2-5-6(8)3-4-7(5)9/h5-6,8H,2-4H2,1H3	InChI=1S/C7H12O2/c1-2-5-6(8)3-4-7(5)9/h5-6,8H,2-4H2,1H3/t5-,6-/m0/s1
