14
gdb 133178	3.05463	1.39051	0.96113	2.8714	69.65	-0.2446	-0.0769	0.1677	1122.451	0.099597	-477.959754	-477.952043	-477.951099	-477.992185	28.717	
C	-0.0064659125	 1.4846779099	-0.1355594503	-0.474162
C	-0.0258719092	-0.007562691	-0.0699562998	 0.258958
C	-1.1386471983	-0.7616704715	-0.1411095503	-0.326459
C	-0.9976399353	-2.1884974337	-0.0635245333	 0.359353
F	-2.1081034972	-2.9083936026	-0.1359104977	-0.053615
N	 0.0875544075	-2.8506297627	 0.0685692775	-0.144716
O	 1.2472930826	-2.0809220899	 0.1433143713	-0.288743
C	 1.2591375787	-0.6963558449	 0.0826965403	 0.370662
N	 2.3581655757	-0.0654057165	 0.1586657991	-0.521178
H	 0.6189979653	 1.816292082	-0.9701716874	 0.162425
H	-1.0137888975	 1.8906548184	-0.2488235251	 0.125174
H	 0.4556495183	 1.8950181421	 0.7676007846	 0.162465
H	-2.130975202	-0.3413103423	-0.2537691337	 0.135547
H	 3.1434484939	-0.7096981874	 0.2620052647	 0.23429
89.0628	153.4188	199.1281	288.8717	352.8528	364.9722	374.8599	468.1649	502.4322	562.761	622.7502	691.2768	748.4272	802.3983	860.4425	897.7771	928.479	1007.009	1040.512	1066.9398	1079.3745	1165.7287	1249.6691	1366.5064	1413.0697	1431.1165	1462.5131	1478.4204	1644.8577	1693.3108	1726.6004	3047.6065	3107.4791	3137.4875	3206.1671	3485.4292
CC1=CC(F)=NOC1=N	CC1=C(ON=C([CH]1)F)[NH]	
InChI=1S/C5H5FN2O/c1-3-2-4(6)8-9-5(3)7/h2,7H,1H3	InChI=1S/C5H5FN2O/c1-3-2-4(6)8-9-5(3)7/h2,7H,1H3
