21
gdb 57920	3.22455	0.90086	0.7707	4.8532	81.73	-0.2424	-0.0111	0.2312	1561.3914	0.180609	-420.463381	-420.452509	-420.451565	-420.500478	38.235	
C	 0.1196844804	 1.481219542	 0.0047320487	-0.383395
C	 0.1930172867	-0.0558803251	-0.1065241078	-0.054669
C	 0.811341161	-0.4869320604	-1.4377138513	-0.379108
C	 0.9583065571	-0.6290874094	 1.0797139827	 0.377423
N	 2.1536002302	-1.0350389843	 0.9719616098	-0.504727
N	 0.1912555492	-0.6170067764	 2.2721301917	-0.37321
C	 0.5940700145	-1.0156939896	 3.5320944603	 0.416994
C	-0.483687016	-0.8767649224	 4.5953860918	-0.498279
O	 1.7065179158	-1.4407057835	 3.7748173763	-0.342421
H	 1.1240088222	 1.9122583227	-0.0535839817	 0.137364
H	-0.4786838514	 1.895564393	-0.8122185037	 0.119723
H	-0.3291012528	 1.8083026552	 0.9485065178	 0.102804
H	-0.8345949188	-0.4472797574	-0.0558971718	 0.072902
H	 1.845089137	-0.1418464579	-1.5084025896	 0.142699
H	 0.8240819358	-1.575358634	-1.5335602762	 0.121835
H	 0.2394316855	-0.0686554119	-2.2720425941	 0.101051
H	 2.5074656222	-1.3551441122	 1.8739636416	 0.24989
H	-0.7575292802	-0.2860712479	 2.1873773139	 0.248841
H	-1.3587686411	-1.4864790659	 4.3465029595	 0.143351
H	-0.0751934038	-1.2067925327	 5.5496142499	 0.158266
H	-0.8147237035	 0.1634210182	 4.6833591523	 0.142665
42.713	53.5947	75.9675	116.0033	162.1771	204.5647	235.677	263.4891	307.4193	329.8222	386.0382	431.4808	547.1001	552.5845	614.0201	659.1901	708.587	826.4814	908.6882	932.889	945.207	971.0544	975.08	1006.2449	1051.6412	1087.0475	1120.5708	1134.9311	1198.7607	1252.5798	1310.8475	1334.2077	1386.2503	1393.7414	1405.0601	1420.7612	1466.3047	1481.2043	1483.36	1485.78	1498.0485	1505.9704	1513.2304	1736.3615	1798.3908	2987.1251	3034.9453	3042.5901	3046.7167	3102.1381	3105.2554	3113.526	3117.9863	3135.4632	3166.7202	3484.4536	3619.9597
CC(C)C(=N)NC(C)=O	CC(C)C(=N)NC(=O)C	
InChI=1S/C6H12N2O/c1-4(2)6(7)8-5(3)9/h4H,1-3H3,(H2,7,8,9)	InChI=1S/C6H12N2O/c1-4(2)6(7)8-5(3)9/h4H,1-3H3,(H2,7,8,9)
