25
gdb 104672	1.8529	1.72485	1.10962	0.141	92.39	-0.2775	0.087	0.3644	1258.2674	0.229822	-352.304691	-352.295369	-352.294424	-352.338455	37.027	
C	-1.5395832524	-0.6124421821	 0.0823864798	-0.376152
C	-0.1255706288	-0.0216190611	 0.0002744982	-0.274272
C	 0.7147191696	-0.583510013	-1.1669922188	 0.425005
C	 0.3696968712	 0.2091159097	-2.4465600018	-0.274296
C	 1.1535066558	 1.5207961608	-2.5891783704	-0.376112
C	 2.2297157387	-0.9240915271	-0.8757783035	-0.095515
C	 1.7452101883	-2.131392714	-0.0154776842	-0.235946
C	 0.8694580313	-2.1501828618	-1.3001554992	-0.09557
C	 2.1976347055	-1.9064835363	-2.0805873971	-0.235874
H	-2.0896753133	-0.4847745365	-0.8561869187	 0.116114
H	-1.5076476757	-1.6849196413	 0.3007474731	 0.117563
H	-2.1222716424	-0.1289785984	 0.8729719979	 0.109004
H	-0.2007267968	 1.0653670868	-0.1252535749	 0.091374
H	 0.3740970637	-0.1637160488	 0.9621385739	 0.095013
H	 0.5193895939	-0.3927998492	-3.3467461	 0.095019
H	-0.7032659629	 0.4357501171	-2.4291506528	 0.091365
H	 0.8206629506	 2.0842701199	-3.4666720752	 0.108989
H	 1.0263331056	 2.1684591805	-1.715004081	 0.116105
H	 2.2256616405	 1.3299517424	-2.7029654352	 0.117577
H	 3.0243644864	-0.2184635788	-0.6233902071	 0.063319
H	 2.4589349025	-2.9535488406	 0.0832613644	 0.085234
H	 1.2590019187	-1.9326555755	 0.9386938023	 0.091746
H	 0.0857471276	-2.8682824451	-1.5515525879	 0.063321
H	 2.145453923	-1.4901373109	-3.0857000284	 0.091751
H	 2.9207338494	-2.7255252968	-2.0432365832	 0.085236
93.3409	100.0569	163.5932	214.0361	220.9361	227.4499	336.9307	384.365	436.8768	460.5623	538.721	580.0989	653.4282	779.8701	785.6944	799.1206	802.4054	892.5164	896.1227	902.4269	929.5049	945.9651	1007.9179	1019.7506	1028.2488	1040.9348	1049.9959	1068.3109	1093.5348	1101.1036	1111.123	1125.5177	1183.7151	1194.6302	1205.2739	1208.7389	1238.6307	1255.7434	1262.9161	1296.6784	1339.5835	1360.6954	1367.8855	1409.2859	1413.2365	1483.5464	1497.6576	1498.1994	1501.5812	1506.9757	1509.1491	1527.3644	1555.7914	3031.1043	3031.9846	3035.1701	3037.4619	3062.2851	3063.4626	3073.6169	3075.6979	3081.962	3091.7856	3100.082	3100.5393	3101.9779	3104.322	3139.4917	3141.4422
CCC1(CC)C2CC1C2	CCC1(CC)[C@H]2C[C@@H]1C2	
InChI=1S/C9H16/c1-3-9(4-2)7-5-8(9)6-7/h7-8H,3-6H2,1-2H3	InChI=1S/C9H16/c1-3-9(4-2)7-5-8(9)6-7/h7-8H,3-6H2,1-2H3/t7-,8+
