17
gdb 91573	2.96614	1.28894	1.05839	2.1828	73.33	-0.2493	0.0447	0.2941	1154.656	0.133664	-421.749653	-421.740984	-421.74004	-421.783367	32.66	
O	 0.3445132361	 1.2729426159	-0.1488165349	-0.42941
C	 0.2320587865	-0.1015443298	 0.0684113005	 0.091483
C	 0.2295563148	-0.6341907768	 1.5571687251	-0.29054
C	-1.1803107172	-1.1651576635	 1.3033176702	-0.047361
O	-1.9786834584	-0.0369167039	 0.8896615777	-0.297395
C	-1.1799943498	-0.7106598743	-0.0977590509	 0.390719
C	-1.8663032178	-1.2284633401	-1.3326351825	-0.482389
C	-2.1364379865	-0.1822607207	-2.3160668727	 0.309034
C	-2.3532646408	 0.6802898691	-3.1230483955	-0.444888
H	-0.4334217881	 1.6730567474	 0.2612951022	 0.290265
H	 0.9910791455	-0.5932568589	-0.5453273372	 0.095919
H	 0.9739461753	-1.4156421196	 1.7285409817	 0.109362
H	 0.3094692139	 0.1320096242	 2.3317941959	 0.112625
H	-1.7078829007	-1.9904536389	 1.7673360729	 0.109007
H	-1.2396761529	-2.0069866192	-1.7873272337	 0.138214
H	-2.8038467606	-1.7114060375	-1.0318507489	 0.144797
H	-2.5436554892	 1.4450901165	-3.8345559399	 0.200557
54.4795	86.2714	159.9368	237.3269	277.3505	338.8646	387.8752	413.7915	462.0221	500.9382	593.7071	625.1951	647.4006	717.6934	742.954	809.5448	881.1979	887.4953	941.7706	946.1837	980.6171	1015.843	1043.8754	1118.7104	1139.3579	1153.1169	1191.3084	1240.7628	1247.8519	1293.0201	1316.682	1330.3583	1429.0446	1451.5773	1452.919	1480.75	2244.4388	3021.5449	3061.2624	3066.2365	3087.5007	3126.9935	3189.0146	3506.5735	3770.3983
OC1CC2OC12CC#C	O[C@H]1C[C@H]2O[C@@]12CC#C	
InChI=1S/C7H8O2/c1-2-3-7-5(8)4-6(7)9-7/h1,5-6,8H,3-4H2	InChI=1S/C7H8O2/c1-2-3-7-5(8)4-6(7)9-7/h1,5-6,8H,3-4H2/t5-,6+,7-/m0/s1
