17
gdb 102013	2.2606	1.34796	0.93129	4.0833	73.34	-0.2645	-0.073	0.1914	1255.884	0.134504	-455.178637	-455.169167	-455.168223	-455.213789	32.952	
C	-0.2726039789	 0.6133680665	 0.7736260429	-0.380182
C	 0.5918891872	-0.4785949205	 0.1458714113	-0.158438
N	 0.7104264473	-0.3436422415	-1.3146722441	-0.108077
C	 1.9281955447	-0.0471392766	-1.8859608106	 0.154395
O	 2.1685226182	-0.0763096445	-3.0727617292	-0.319947
C	-0.3747867266	-0.7291463518	-2.1193764061	 0.28729
N	-1.3312770544	-1.4016856257	-1.619954711	-0.484906
C	-0.4341260844	-0.2131626335	-3.5538044153	 0.115982
O	-1.11047225	-0.7823831686	-4.3710182137	-0.251468
H	 0.1400536222	 1.6071461537	 0.574801986	 0.121088
H	-1.2919151937	 0.5705123945	 0.3838510753	 0.148794
H	-0.3177141904	 0.4714385135	 1.8574293456	 0.127334
H	 1.6060482892	-0.449994993	 0.553635848	 0.116739
H	 0.1723632048	-1.4649627358	 0.3556148246	 0.154344
H	 2.6836306859	 0.2250283998	-1.1279786381	 0.102576
H	-2.0197218592	-1.5739185948	-2.3567225201	 0.250075
H	 0.0847322582	 0.7339219783	-3.7651248156	 0.124402
58.4481	77.2532	95.715	150.4925	212.9346	262.6297	299.4698	330.8751	372.2876	419.2135	426.0016	561.6175	592.764	723.1587	793.2595	863.8802	918.1206	952.5937	1006.3279	1022.484	1035.0067	1105.512	1118.7858	1196.0345	1282.265	1357.7336	1394.6557	1405.1455	1413.1236	1428.0513	1448.7515	1487.1481	1492.1841	1506.8951	1689.3549	1785.7687	1810.6827	2981.2396	3019.5492	3046.8539	3067.8657	3108.7935	3122.1614	3139.038	3458.3678
CCN(C=O)C(=N)C=O	CCN(C=O)C(=N)C=O	
InChI=1S/C5H8N2O2/c1-2-7(4-9)5(6)3-8/h3-4,6H,2H2,1H3	InChI=1S/C5H8N2O2/c1-2-7(4-9)5(6)3-8/h3-4,6H,2H2,1H3
