23
gdb 110974	2.33147	1.24251	1.06192	1.8234	86.57	-0.2295	0.0911	0.3205	1323.231	0.203684	-388.240221	-388.230329	-388.229385	-388.274647	37.505	
C	 0.4635622011	 0.998114273	 0.6356238483	-0.380338
C	 0.1506473074	-0.4953474733	 0.7880210863	-0.21613
C	-1.3120176781	-0.8184382914	 0.5267306312	-0.010055
C	-1.8189681557	-0.9323565705	-0.9366545343	 0.015554
O	-1.0395789619	-2.1811577745	-1.0882041918	-0.346246
C	-1.725723446	-2.2969000341	 0.2319528442	 0.374083
C	-1.4927935955	-3.5355870972	 1.0407792386	-0.519779
C	-3.0247697832	-1.7975001998	-0.4788526224	 0.008849
C	-4.2384756496	-1.2531921148	 0.2579409385	-0.446137
H	 1.5161109541	 1.2056372786	 0.8518635252	 0.112334
H	 0.2604187305	 1.3440013684	-0.3836477143	 0.116151
H	-0.1418836531	 1.6064278904	 1.3173866045	 0.109649
H	 0.7690941431	-1.0825060827	 0.103517912	 0.116215
H	 0.4075594345	-0.8154628288	 1.806745931	 0.088758
H	-1.9674256685	-0.2727102947	 1.2123509127	 0.060391
H	-1.7593320098	-0.2094405407	-1.7518317174	 0.083624
H	-0.4393511208	-3.6243526627	 1.3237168192	 0.133383
H	-2.0939191647	-3.508599184	 1.9554927159	 0.124752
H	-1.773398047	-4.4250565394	 0.4683176038	 0.132867
H	-3.3164325663	-2.4937737554	-1.2705494857	 0.077949
H	-3.9861283636	-0.5555261551	 1.0600356709	 0.120722
H	-4.9038067348	-0.7310849993	-0.4383623401	 0.122315
H	-4.8135157622	-2.0739480822	 0.7007613137	 0.121087
82.2049	132.4858	167.8619	180.4169	192.4727	198.4203	255.3398	275.4548	352.756	379.1244	449.1526	581.6185	613.1045	640.7995	725.9919	758.3551	791.4656	813.6567	865.9559	890.4562	940.7692	964.3442	1024.2408	1038.9173	1055.399	1084.4249	1105.1011	1121.5074	1131.5933	1174.0576	1180.2989	1218.5352	1229.7652	1250.0309	1288.5207	1311.874	1345.4358	1388.172	1400.7428	1412.1253	1418.3927	1436.3974	1476.8193	1488.9136	1491.3652	1495.8749	1500.8118	1501.7798	1506.7715	3018.6836	3028.9286	3034.794	3036.779	3060.7307	3070.0966	3082.0834	3091.9333	3101.8007	3104.1976	3105.396	3109.7808	3112.0716	3119.5742
CCC1C2OC1(C)C2C	CC[C@H]1[C@H]2O[C@]1(C)[C@H]2C	
InChI=1S/C8H14O/c1-4-6-7-5(2)8(6,3)9-7/h5-7H,4H2,1-3H3	InChI=1S/C8H14O/c1-4-6-7-5(2)8(6,3)9-7/h5-7H,4H2,1-3H3/t5-,6-,7-,8+/m0/s1
