18
gdb 51859	4.58418	0.89977	0.78812	2.5944	77.73	-0.2505	0.0032	0.2537	1426.6715	0.148121	-439.078608	-439.070188	-439.069244	-439.112649	30.781	
N	-0.1088823142	 1.3057421021	 0.1339680677	-0.443164
C	-0.0750161033	 0.0460984991	 0.190413355	 0.128794
O	-0.896113582	-0.6883680569	-0.5862286925	-0.19221
C	-0.8979610713	-2.1088126281	-0.3913572124	 0.051417
C	-2.0577275227	-2.5017072934	 0.5332893019	-0.1045
O	-2.2248176501	-3.9046022095	 0.5374554746	-0.247061
C	-2.6305364605	-4.4161047773	-0.7196371987	-0.116706
C	-1.8805518576	-3.8181491698	-1.8765787865	-0.081656
C	-1.0756248201	-2.7697526338	-1.7294996975	-0.071421
H	 0.5864335757	 1.7001680385	 0.7638961765	 0.229557
H	 0.5879570791	-0.563321349	 0.8217401286	 0.085969
H	 0.058516017	-2.4093034131	 0.0618670913	 0.096454
H	-1.8597387259	-2.2045331511	 1.5670829304	 0.110286
H	-2.9649342372	-1.9808965065	 0.190267312	 0.110933
H	-2.468544	-5.499345378	-0.6734510988	 0.123395
H	-3.7153349183	-4.2622630036	-0.8664755091	 0.107983
H	-2.0353824112	-4.2777004469	-2.8489780735	 0.103917
H	-0.5333575973	-2.3362252927	-2.563930189	 0.108012
47.1723	90.4156	117.9021	224.0565	283.1102	348.5176	362.2848	392.451	491.5886	560.2999	627.7672	726.5693	799.9618	818.0669	897.4013	925.7263	981.1095	995.8665	1019.9901	1036.6559	1043.4756	1083.7037	1106.9844	1125.9429	1148.1014	1212.4657	1241.6791	1288.5563	1300.1851	1338.5223	1345.2921	1369.728	1405.6154	1417.3673	1429.4983	1484.4864	1500.1404	1726.0092	1745.6723	2943.486	2986.7481	2998.7786	3011.2732	3054.3588	3090.7398	3164.2599	3188.5092	3519.2799
N=COC1COCC=C1	[NH][CH]O[C@H]1COCC=C1	
InChI=1S/C6H9NO2/c7-5-9-6-2-1-3-8-4-6/h1-2,5-7H,3-4H2	InChI=1S/C6H9NO2/c7-5-9-6-2-1-3-8-4-6/h1-2,5-7H,3-4H2/t6-/m1/s1
