17
gdb 5119	3.42363	1.98199	1.2756	0.9997	71.99	-0.1746	0.0591	0.2337	953.1466	0.141357	-363.898963	-363.890061	-363.889116	-363.932788	31.237	
C	 0.0921582063	 1.4551447979	 0.0070663809	-0.334021
N	-0.0240786455	 0.0132538564	-0.0069795957	-0.036217
C	-0.2253582561	-0.7865129436	-1.1184125821	-0.112522
C	-0.2012985539	-2.0945000916	-0.7124495285	-0.248237
C	 0.0333732838	-2.1226630388	 0.7000808316	 0.146353
C	 0.1300507689	-3.3227526718	 1.5928834945	-0.514366
C	 0.1362878143	-0.8025569009	 1.079340173	 0.279032
O	 0.3669792896	-0.2053844598	 2.282519422	-0.446866
H	 1.1370451214	 1.7829516119	-0.0503381752	 0.13434
H	-0.4513411741	 1.8649156084	-0.846919072	 0.134199
H	-0.3424205193	 1.8524191107	 0.9266426418	 0.149294
H	-0.3655503006	-0.3400066386	-2.0892977432	 0.109311
H	-0.3408163698	-2.9563439894	-1.3481093143	 0.087148
H	 0.5764835556	-3.0741244656	 2.5643333289	 0.095063
H	-0.8458911945	-3.7819551052	 1.7974339909	 0.124293
H	 0.7636393846	-4.1002723891	 1.151852425	 0.129263
H	 0.3016459194	-0.8787318408	 2.9662683324	 0.303933
62.4707	72.9435	128.422	173.0312	250.4562	256.8335	285.7195	300.0774	502.6052	574.0249	608.6885	629.016	691.9837	743.9633	748.1811	784.0643	973.5847	1021.6187	1055.3082	1062.1946	1107.3869	1151.2551	1219.7202	1237.3643	1286.9533	1377.2418	1396.3904	1422.1378	1451.4694	1480.0384	1486.1591	1501.9286	1511.2015	1532.9716	1563.5313	1640.9977	3007.0046	3029.2207	3053.9124	3076.4332	3101.7633	3139.6991	3236.9416	3269.0356	3842.5571
CN1C=CC(C)=C1O	Cn1ccc(C)c1O	
InChI=1S/C6H9NO/c1-5-3-4-7(2)6(5)8/h3-4,8H,1-2H3	InChI=1S/C6H9NO/c1-5-3-4-7(2)6(5)8/h3-4,8H,1-2H3
