18
gdb 23471	2.96863	1.35737	1.01915	1.3752	75.92	-0.2351	0.0066	0.2418	1160.8542	0.148811	-439.029636	-439.021724	-439.02078	-439.062234	30.795	
O	-0.0677496775	 1.3383962311	-0.0290698574	-0.398872
N	 0.0392416287	-0.0650880657	-0.0068797473	-0.212754
C	-1.1043359146	-0.634982559	 0.0302792579	 0.373713
C	-2.4372951134	 0.0800672603	 0.1298654775	-0.18928
O	-3.3073067828	-0.599383699	 1.0154123166	-0.23423
C	-3.6577996809	-1.8894818273	 0.5476998743	-0.098686
C	-2.4501201674	-2.798550635	 0.3197546748	-0.058972
C	-1.8418280742	-2.8837411473	-1.0519554451	-0.296142
C	-1.123588377	-2.1160295414	 0.0449429219	-0.082033
H	 0.8549129933	 1.6086081647	 0.0182074791	 0.306988
H	-2.2850984623	 1.0814452583	 0.53193782	 0.145617
H	-2.8971788449	 0.181218356	-0.8696973409	 0.100552
H	-4.3093704409	-2.3138595526	 1.3156021088	 0.115023
H	-4.2478396122	-1.7978396431	-0.3798845966	 0.090646
H	-2.4124612835	-3.6903699768	 0.9359059887	 0.096364
H	-1.3950942404	-3.8176845144	-1.3734710744	 0.120182
H	-2.3149283306	-2.3158068793	-1.8472058063	 0.117239
H	-0.2208353393	-2.5696647595	 0.4370958683	 0.104645
66.0761	161.1309	237.2292	288.0969	325.1153	369.9745	413.0153	429.3939	463.3244	568.1969	593.6469	722.074	757.5227	817.3299	853.585	925.3903	929.826	956.7259	974.5967	999.707	1022.1779	1061.3474	1099.15	1123.4324	1125.7242	1173.7063	1210.6996	1254.4908	1286.9439	1326.0473	1346.0612	1364.0643	1385.7642	1410.0396	1437.5725	1481.7825	1486.0718	1499.5562	1724.5934	2945.726	2960.0904	3092.6782	3128.6253	3136.1568	3162.8171	3179.287	3217.9871	3825.8099
ON=C1COCC2CC12	ON=C1COC[C@H]2C[C@@H]12	
InChI=1S/C6H9NO2/c8-7-6-3-9-2-4-1-5(4)6/h4-5,8H,1-3H2	InChI=1S/C6H9NO2/c8-7-6-3-9-2-4-1-5(4)6/h4-5,8H,1-3H2/t4-,5-/m1/s1
