18
gdb 18040	3.76694	2.06118	1.49439	2.0214	72.3	-0.2402	0.0128	0.253	864.8021	0.156753	-347.798955	-347.792339	-347.791395	-347.829749	26.119	
C	 0.0473326335	 1.5707907063	 0.1108000266	-0.088647
O	 1.4678102641	 1.5608622092	-0.1459966835	-0.300813
C	 1.4125335756	 0.1507857218	-0.5075897417	 0.116901
C	 2.4629648198	-0.7132870382	 0.107160617	-0.082303
C	 2.1499006675	-1.7207280122	 0.922859151	-0.048443
C	 0.7386018333	-1.9863765629	 1.3881944691	-0.259328
C	-0.0793630575	-0.6845399548	 1.4065823579	-0.216165
C	-0.0236291593	 0.0300305235	 0.0537031306	-0.060276
H	-0.1943439742	 2.0411662901	 1.0713747184	 0.100685
H	-0.5069029477	 2.0821619127	-0.6885556999	 0.092349
H	 1.448373874	 0.0553743066	-1.6044413966	 0.073378
H	 3.4936735229	-0.5228890662	-0.1810646855	 0.093267
H	 2.9323220999	-2.3774784723	 1.2956179763	 0.090764
H	 0.2567125441	-2.7352237582	 0.7424318315	 0.110027
H	 0.7577027461	-2.4298290002	 2.3901823106	 0.104133
H	-1.1177932389	-0.8798277351	 1.694866835	 0.093893
H	 0.349569452	-0.0305744349	 2.1748413431	 0.109814
H	-0.7539963451	-0.3878198451	-0.6435946298	 0.070763
96.5432	190.9792	282.2334	352.9347	442.423	486.9634	505.0245	715.0704	738.0527	795.1059	801.9102	854.8372	895.4225	964.1353	986.526	995.9058	1003.5093	1009.4264	1021.7918	1064.7794	1096.3389	1128.3757	1156.3255	1168.5284	1225.5507	1243.9877	1270.9892	1286.1147	1335.8966	1351.1316	1356.6497	1380.6349	1395.1313	1416.9786	1479.97	1490.3393	1524.993	1711.7545	2968.6915	3000.2638	3002.8644	3032.4604	3052.4535	3057.3768	3066.0158	3085.9184	3146.8003	3170.4162
C1OC2C=CCCC12	C1O[C@H]2C=CCC[C@@H]12	
InChI=1S/C7H10O/c1-2-4-7-6(3-1)5-8-7/h2,4,6-7H,1,3,5H2	InChI=1S/C7H10O/c1-2-4-7-6(3-1)5-8-7/h2,4,6-7H,1,3,5H2/t6-,7-/m0/s1
