16
gdb 16209	3.0726	2.24031	1.47725	3.5891	64.69	-0.2389	-0.0329	0.2059	854.5549	0.130888	-383.75103	-383.744021	-383.743076	-383.78239	26.598	
O	 0.073536125	 0.0132818597	-0.1182236006	-0.313591
C	 0.0150981806	 1.2117909235	-0.0269706375	 0.347176
C	-1.2385255579	 2.0822076101	 0.0292626659	-0.325284
C	-0.7459316684	 3.439065048	 0.569749868	-0.226509
C	 0.7003363036	 3.5695510022	 0.0356587302	-0.319018
C	 1.2157612018	 2.1435240218	 0.0678890816	 0.356853
C	 2.4306719473	 1.6782459924	 0.7652862996	-0.233263
O	 2.3871977497	 1.7729818315	-0.6521961717	-0.266599
H	-1.6091021054	 2.1839752791	-1.0000325472	 0.13743
H	-2.0311409685	 1.6077371497	 0.6114486382	 0.131045
H	-1.3793861728	 4.2746511025	 0.2651970671	 0.111714
H	-0.7361757161	 3.4196663169	 1.6651385213	 0.113049
H	 0.6928283939	 3.9190285594	-1.0039929558	 0.12151
H	 1.3118555202	 4.2659790164	 0.6134710971	 0.111789
H	 3.0563475044	 2.4131124287	 1.2709122082	 0.118425
H	 2.4541887726	 0.6644071082	 1.1607568656	 0.135274
79.0082	177.914	255.2929	271.3557	366.0422	448.7029	526.8094	558.6367	645.7337	671.5044	819.0777	823.3958	875.8413	915.8829	924.9826	951.89	1012.5208	1045.51	1064.7666	1133.4148	1161.4897	1171.5342	1187.1541	1227.7975	1258.0957	1302.0051	1315.8233	1337.1705	1410.5633	1450.4925	1489.2706	1504.011	1510.9349	1849.0222	3029.2693	3040.0008	3050.4521	3082.1049	3102.97	3109.0018	3115.3131	3180.5727
O=C1CCCC11CO1	O=C1CCC[C@]21CO2	
InChI=1S/C6H8O2/c7-5-2-1-3-6(5)4-8-6/h1-4H2	InChI=1S/C6H8O2/c7-5-2-1-3-6(5)4-8-6/h1-4H2/t6-/m1/s1
