15
gdb 42933	3.29023	1.13865	0.92893	3.4033	70.45	-0.2635	-0.0453	0.2182	1203.8307	0.112456	-416.785184	-416.777301	-416.776357	-416.818485	28.655	
O	 0.010477412	 0.040817776	-0.0373399756	-0.300029
C	-0.0796972218	 1.2280263783	 0.0616179903	 0.395487
C	-1.1692208115	 2.2407863317	-0.1337346917	-0.153971
C	-1.1316677014	 3.1914372394	 1.0173400239	-0.244631
N	-0.1555838284	 3.3855947478	-0.047482394	-0.110928
C	 0.948862285	 2.3840604801	 0.1838949497	-0.087809
C	 1.851904692	 2.5326595234	 1.4093668277	-0.36793
C	 2.7260551113	 3.7020409899	 1.3272648771	 0.270173
N	 3.4153507959	 4.6262026676	 1.2556945685	-0.294983
H	-1.9803641754	 2.2121605111	-0.8511314169	 0.136052
H	-1.905453103	 3.9521556696	 1.0378660248	 0.150668
H	-0.8230436969	 2.8412849873	 1.9988911255	 0.129197
H	 1.5670298443	 2.3661229664	-0.720334917	 0.144197
H	 1.272215015	 2.590945905	 2.3355675056	 0.15633
H	 2.4705212429	 1.6309255364	 1.4854753921	 0.178178
49.7792	115.1974	165.7286	211.9682	286.5553	386.3986	420.8636	495.1958	570.4287	631.8236	673.304	742.5935	789.9035	862.6758	887.6112	944.4788	980.7144	1022.8828	1037.5204	1095.5933	1097.2209	1123.7472	1143.149	1207.812	1226.2427	1232.8979	1297.1047	1319.6831	1377.6288	1457.3485	1505.9093	1898.7859	2366.2912	3053.7406	3063.5313	3094.9462	3118.4286	3197.9406	3209.0578
O=C1C2CN2C1CC#N	O=C1[C@H]2CN2[C@H]1CC#N	
InChI=1S/C6H6N2O/c7-2-1-4-6(9)5-3-8(4)5/h4-5H,1,3H2	InChI=1S/C6H6N2O/c7-2-1-4-6(9)5-3-8(4)5/h4-5H,1,3H2/t4-,5+,8?/m0/s1
