15
gdb 74579	3.58352	1.3492	1.15019	4.1705	67.03	-0.2219	-0.0273	0.1947	1044.8067	0.113603	-453.971776	-453.964389	-453.963444	-454.003917	28.394	
N	-0.1401274995	 1.3391584632	 0.0679116164	-0.57127
C	-0.1212434894	-0.0230606663	 0.0286213039	 0.467188
N	-1.1117403231	-0.7913602025	-0.2341749069	-0.338343
C	-0.6247559016	-2.1532199425	-0.0581485437	-0.134729
C	 0.8680441714	-1.9835321982	 0.40660061	 0.065865
C	 0.5266766289	-2.50309295	 1.8241999786	-0.379615
C	-0.9285676228	-2.7421063764	 1.3488352805	 0.407398
O	-1.8911545811	-3.2263149572	 1.8599121838	-0.281015
O	 1.0918573676	-0.5670265149	 0.3405191515	-0.253914
H	 0.7450535346	 1.7962358974	-0.0848859934	 0.267447
H	-0.9329077862	 1.7605259958	-0.3897120914	 0.274259
H	-0.8726809611	-2.7970768864	-0.9074053404	 0.09535
H	 1.6727752016	-2.4882830413	-0.125745406	 0.099414
H	 1.0399016148	-3.421356215	 2.1244708003	 0.137544
H	 0.6404863858	-1.7605139355	 2.6191143466	 0.144422
68.64	137.8916	249.8474	352.405	401.9763	427.34	445.3238	504.4526	525.7384	614.2207	701.7305	732.1746	757.3785	794.228	844.2871	918.7842	945.6345	967.0388	1025.1619	1054.4684	1064.4991	1120.6103	1168.1659	1185.2981	1232.4864	1242.0216	1266.0383	1336.7355	1420.8398	1429.1551	1615.4351	1734.5959	1903.0792	3061.2624	3065.0153	3116.5703	3130.3693	3594.7179	3710.5405
NC1=NC2C(CC2=O)O1	NC1=N[C@H]2[C@H](CC2=O)O1	
InChI=1S/C5H6N2O2/c6-5-7-4-2(8)1-3(4)9-5/h3-4H,1H2,(H2,6,7)	InChI=1S/C5H6N2O2/c6-5-7-4-2(8)1-3(4)9-5/h3-4H,1H2,(H2,6,7)/t3-,4+/m0/s1
