20
gdb 36140	3.73815	1.08608	0.96832	2.0053	83.76	-0.2411	0.0568	0.2978	1275.4189	0.171924	-365.974105	-365.965634	-365.96469	-366.007291	33.151	
C	-0.0977543606	-1.1569965634	-0.4695054838	-0.462795
C	-0.0603594461	 0.0020570093	-0.1533532599	 0.317291
C	 0.012092627	 1.4075790873	 0.2376817314	-0.430833
C	 1.4254619596	 1.9651031383	 0.1904729089	 0.343612
C	 2.5028379672	 1.3308357586	 1.0637573093	-0.269078
C	 3.6624110525	 2.353630574	 1.0758499855	-0.242425
C	 2.9898215239	 3.7310578915	 0.857234391	-0.227551
C	 1.7324468125	 3.4180961653	 0.0622107119	-0.06309
N	 1.846648405	 2.5230749163	-1.102147325	-0.364511
H	-0.1425261605	-2.1783699555	-0.7556737769	 0.19348
H	-0.6204180016	 2.0065256415	-0.4265554586	 0.138897
H	-0.3900905925	 1.5222540114	 1.253593225	 0.124258
H	 2.0979778845	 1.1904082642	 2.0741085881	 0.101825
H	 2.808179621	 0.3430317022	 0.7045434282	 0.113043
H	 4.2417566559	 2.3153006943	 2.001340634	 0.105083
H	 4.367688742	 2.1410050629	 0.2658795803	 0.10561
H	 2.700946353	 4.18146086	 1.8149320683	 0.104618
H	 3.6494091096	 4.4463998759	 0.3536805395	 0.103136
H	 0.9561908226	 4.1744366455	-0.0204150326	 0.084796
H	 2.8169313548	 2.3027182707	-1.3125569547	 0.224633
62.0143	106.1963	212.9226	239.1871	298.5277	345.746	382.4633	417.9286	449.1336	614.6976	632.0705	643.0253	654.1375	721.7319	809.5786	861.2082	872.9206	882.043	928.3555	939.649	958.3601	986.9461	1022.6284	1044.0625	1067.0757	1110.6316	1144.5925	1180.732	1205.9687	1228.3097	1261.2069	1286.8046	1307.8172	1319.1903	1334.3745	1342.5354	1362.4159	1438.12	1456.3901	1487.7	1496.8991	1513.2504	2237.5298	3016.5559	3029.478	3031.4141	3050.0605	3069.3482	3071.2336	3081.5211	3102.9027	3142.4578	3496.7249	3506.959
C#CCC12CCCC1N2	C#CC[C@]12CCC[C@H]1N2	
InChI=1S/C8H11N/c1-2-5-8-6-3-4-7(8)9-8/h1,7,9H,3-6H2	InChI=1S/C8H11N/c1-2-5-8-6-3-4-7(8)9-8/h1,7,9H,3-6H2/t7-,8+/m1/s1
