19
gdb 115555	2.71893	1.08009	1.03158	3.9231	75.89	-0.2666	0.026	0.2926	1259.1521	0.159177	-419.195933	-419.186316	-419.185372	-419.230425	35.227	
N	 0.1042273263	 1.49400149	-0.4384260956	-0.550798
C	-0.0146032651	 0.0821436599	-0.085254555	 0.123054
C	-0.0672605661	-0.2142796963	 1.4470823803	-0.253682
C	-1.2651526879	-1.1695981178	 1.2070601318	-0.218074
C	-1.4480549419	-0.5605124049	-0.2098888887	-0.01369
C	-2.5749108474	 0.457521636	-0.3000922602	-0.091568
O	-3.7864290357	-0.276050209	-0.1868422555	-0.423217
C	 0.9944426636	-0.7509903384	-0.7608002589	 0.241411
N	 1.7986439809	-1.3708894539	-1.3157559437	-0.3464
H	 0.9768458878	 1.8626420479	-0.0680904073	 0.24168
H	 0.1575046403	 1.602679375	-1.4481734551	 0.242453
H	 0.8370147749	-0.6270061424	 1.8965148461	 0.118539
H	-0.3515397458	 0.6968365165	 1.9782178613	 0.119931
H	-0.9633413095	-2.2183344778	 1.176496859	 0.119532
H	-2.1217948393	-1.0709887482	 1.8746956506	 0.118589
H	-1.5580917274	-1.2810780376	-1.0230382471	 0.096569
H	-2.4797083042	 1.20698989	 0.4980720655	 0.098118
H	-2.5189823381	 0.9979821184	-1.2571933935	 0.088357
H	-4.5166138854	 0.3495049129	-0.1902635841	 0.289196
71.4417	109.3254	139.9974	191.5277	211.8009	235.0339	257.5498	299.5911	369.294	420.9455	438.6656	532.7807	603.8023	649.6558	728.8782	836.2557	881.5646	899.3271	920.6232	947.2162	957.1411	973.7863	1063.5187	1072.8986	1153.5067	1163.9248	1192.4152	1208.5107	1242.7016	1254.1966	1271.7531	1280.2657	1296.1306	1308.7001	1358.2833	1457.4818	1478.224	1495.936	1516.5808	1653.2431	2336.4799	2984.7637	3020.2181	3074.9472	3079.9631	3090.8562	3127.9344	3142.2757	3479.9294	3556.881	3831.7847
NC1(CCC1CO)C#N	N[C@]1(CC[C@H]1CO)C#N	
InChI=1S/C6H10N2O/c7-4-6(8)2-1-5(6)3-9/h5,9H,1-3,8H2	InChI=1S/C6H10N2O/c7-4-6(8)2-1-5(6)3-9/h5,9H,1-3,8H2/t5-,6+/m0/s1
