19
gdb 128099	3.24123	1.23621	0.91147	4.3071	80.93	-0.1924	0.0125	0.2049	1300.2286	0.159442	-415.389617	-415.379872	-415.378927	-415.424504	34.164	
C	 0.0137502497	 1.4686110558	 0.1282333618	-0.313448
N	-0.0807716493	 0.0163286131	 0.0314062458	-0.389338
C	 0.5720981415	-0.7277707041	 1.0105739217	 0.287983
C	 0.6919092464	-2.1050099685	 1.1038317335	 0.223323
C	 0.2187917114	-3.205927597	 0.2189610437	-0.517365
N	 1.3736245269	-2.2772989597	 2.2723503096	 0.01508
C	 1.7971833636	-3.5090285143	 2.900116536	-0.332115
N	 1.6385239663	-1.1029596722	 2.8649268966	-0.172047
N	 1.1583302433	-0.1574199664	 2.0955324226	-0.275377
H	 1.044598237	 1.8478445189	 0.0806361286	 0.118357
H	-0.5683623109	 1.9096488859	-0.6849558057	 0.111084
H	-0.4108753096	 1.795584598	 1.0798239154	 0.148708
H	 0.1092098766	-0.3203601677	-0.9020686732	 0.231532
H	 1.0174442594	-3.6266862471	-0.4057589226	 0.134502
H	-0.2166804291	-4.0325694769	 0.7910975704	 0.134904
H	-0.5597740651	-2.8265543553	-0.4490002218	 0.142713
H	 2.4886818489	-4.0595787442	 2.2549142382	 0.140674
H	 2.3014600673	-3.2380745504	 3.8274547085	 0.169
H	 0.9382070757	-4.1482712978	 3.1269358009	 0.141829
68.6811	114.1221	123.0137	150.3556	179.6245	203.003	249.584	258.3268	333.7498	364.5553	529.7992	546.9313	646.1311	669.6387	740.2754	757.414	802.112	979.4298	1042.7872	1062.7208	1065.6482	1137.5264	1150.1812	1158.7209	1184.0008	1226.9582	1296.8465	1297.8036	1405.7746	1424.0889	1447.2559	1456.9203	1465.0176	1480.378	1482.9211	1488.0848	1493.3955	1503.5827	1517.8439	1540.4693	1639.2017	3001.6767	3016.6939	3041.1833	3070.557	3088.3784	3101.3646	3109.8509	3131.8409	3162.6806	3577.6708
CNC1=C(C)N(C)N=N1	CNc1c(C)n(C)nn1	
InChI=1S/C5H10N4/c1-4-5(6-2)7-8-9(4)3/h6H,1-3H3	InChI=1S/C5H10N4/c1-4-5(6-2)7-8-9(4)3/h6H,1-3H3
