23
gdb 92599	2.03294	1.66763	1.46512	1.6147	84.46	-0.2389	0.0826	0.3215	1105.7539	0.206612	-388.306614	-388.297825	-388.296881	-388.339371	34.985	
C	-0.6518982251	 1.4458994485	 0.1569728577	-0.416712
C	 0.0687883086	 0.1268076336	-0.0351750011	 0.136113
O	 1.2615136339	 0.2409552627	-0.8485063392	-0.328107
C	 2.0225374216	-0.5879418235	 0.0628387065	 0.114109
C	 3.2194450306	 0.1457131227	 0.6512937435	-0.224299
C	 2.5855989565	 1.1472179863	 1.6360783807	-0.21714
C	 1.3841997697	 0.3779715839	 2.2281651886	-0.266549
C	 0.8691438971	-0.5584107549	 1.1112843027	 0.262909
C	 0.2960876869	-1.8692861419	 1.6286461298	-0.486666
H	-0.016934776	 2.2000997728	 0.6283903246	 0.122636
H	-0.9730936118	 1.8348283047	-0.8148098122	 0.126519
H	-1.5462058364	 1.3065269026	 0.7746088155	 0.114359
H	-0.6264488573	-0.5918312985	-0.4977761529	 0.062283
H	 2.2650373895	-1.5576366434	-0.3892539124	 0.059479
H	 3.8523727956	-0.575595411	 1.1842684087	 0.093258
H	 3.8311492801	 0.619013684	-0.1223595023	 0.10631
H	 3.2829519838	 1.4910095024	 2.4049177158	 0.092535
H	 2.2451091461	 2.0298822785	 1.0870839041	 0.113217
H	 1.7220795875	-0.2397455369	 3.0692608027	 0.093354
H	 0.6048660281	 1.0392255075	 2.6195829174	 0.096699
H	-0.5843231477	-1.6941572334	 2.2586710134	 0.116158
H	-0.0094746601	-2.526295326	 0.8076008702	 0.115717
H	 1.0299119489	-2.4101808508	 2.2367644283	 0.113818
121.6768	192.7321	199.6975	211.6157	230.0839	271.1911	322.4	361.2887	425.2723	498.5206	551.1102	610.9213	638.2216	770.8421	829.4846	853.9975	875.3935	896.8854	905.7642	924.5468	956.3987	992.6764	1026.1506	1044.1897	1064.3564	1098.4008	1126.3241	1135.0397	1150.3935	1190.9068	1229.3468	1241.7828	1260.0196	1287.001	1303.3434	1328.3903	1338.8772	1356.5223	1367.3819	1399.276	1412.25	1420.8496	1469.3743	1477.0388	1486.5646	1493.6365	1494.8356	1497.402	1505.0757	2966.1321	3019.0966	3021.7832	3030.2882	3035.842	3037.69	3059.3533	3079.0155	3083.965	3090.6605	3094.7491	3101.6748	3105.7123	3120.7804
CC1OC2CCCC12C	C[C@H]1O[C@H]2CCC[C@@]12C	
InChI=1S/C8H14O/c1-6-8(2)5-3-4-7(8)9-6/h6-7H,3-5H2,1-2H3	InChI=1S/C8H14O/c1-6-8(2)5-3-4-7(8)9-6/h6-7H,3-5H2,1-2H3/t6-,7+,8+/m1/s1
