25
gdb 118480	2.13915	1.03555	0.74202	1.226	87.12	-0.2397	0.0888	0.3285	1644.2462	0.225266	-426.610597	-426.598579	-426.597635	-426.648654	41.982	
C	-0.0845097614	 1.4356986633	 0.0308866956	-0.228374
O	-0.0044957651	 0.0312075184	 0.0508060543	-0.233066
C	 0.6161231189	-0.49859649	-1.103715701	-0.062143
C	 0.6015603911	-2.0257372657	-1.028451208	 0.104563
O	-0.7329533431	-2.504834806	-1.1362705264	-0.255548
C	-1.4308238301	-2.6599380626	 0.0841976983	-0.238445
C	 1.4178332474	-2.6932293261	-2.1565049737	 0.02735
C	 2.8891942426	-2.251247269	-2.1733332998	-0.400639
C	 1.3243687002	-4.2217768904	-2.046514896	-0.394
H	 0.9129580594	 1.8999192412	-0.0313615315	 0.102522
H	-0.6836753209	 1.799608001	-0.8187447873	 0.105901
H	-0.5624898711	 1.7514824556	 0.9614804027	 0.125989
H	 0.0758821418	-0.1830553541	-2.0119696321	 0.09063
H	 1.6469592953	-0.1191402676	-1.1748780315	 0.083088
H	 1.0270464028	-2.3252128946	-0.055978254	 0.068453
H	-2.3992278804	-3.1043855	-0.1625114577	 0.115815
H	-0.8988038784	-3.3401394819	 0.7675450764	 0.097795
H	-1.5859999	-1.7033129999	 0.5929629955	 0.12781
H	 0.951103005	-2.3934523983	-3.1052220009	 0.079659
H	 3.3638789054	-2.4235923708	-1.1996959444	 0.113896
H	 3.44741132	-2.8305117279	-2.9157377703	 0.112969
H	 3.0143149935	-1.1948092766	-2.4251465894	 0.115428
H	 0.283727617	-4.5483245674	-2.0301490365	 0.130922
H	 1.8282925832	-4.7007012628	-2.8921452601	 0.105049
H	 1.8098312569	-4.5762407177	-1.1285769819	 0.104378
46.0897	66.7679	89.0693	97.5795	145.4811	184.3588	198.0165	228.2737	238.6369	266.0098	323.867	327.7802	365.2134	397.8395	444.0628	490.3464	561.9733	858.1266	868.065	928.9037	947.7945	968.0245	985.0653	1031.8058	1090.5657	1137.513	1146.4052	1153.5089	1173.5548	1182.5303	1187.8276	1192.1247	1226.2395	1232.7165	1273.9521	1304.0817	1341.1994	1364.6833	1391.2631	1397.6359	1420.3165	1425.1692	1475.9853	1479.5579	1483.0013	1485.6101	1488.5643	1494.173	1498.1545	1505.0113	1517.1883	1519.1002	1522.8819	2960.401	2967.7066	2973.5837	2984.4718	3005.5534	3012.79	3014.5936	3026.6516	3032.795	3072.0247	3088.559	3095.9685	3110.0969	3112.6503	3113.0159	3139.8372
COCC(OC)C(C)C	COC[C@@H](OC)C(C)C	
InChI=1S/C7H16O2/c1-6(2)7(9-4)5-8-3/h6-7H,5H2,1-4H3	InChI=1S/C7H16O2/c1-6(2)7(9-4)5-8-3/h6-7H,5H2,1-4H3/t7-/m1/s1
