21
gdb 87155	3.23911	1.13206	0.98179	1.4869	78.59	-0.2433	0.0792	0.3225	1278.1553	0.181323	-424.190372	-424.18093	-424.179986	-424.224636	35.324	
C	 0.0054253798	 1.6827278804	 0.3363054266	-0.466033
C	-0.051117966	 0.1977183308	 0.037978987	 0.287488
C	 0.9334168303	-0.3854168077	-0.9604361699	-0.373312
C	 1.0677840535	-0.6852145233	 0.5153081777	 0.070365
O	 2.0831096199	-0.0805391345	 1.2657815871	-0.428498
C	-1.4487072096	-0.3777212023	 0.0810696798	 0.082102
C	-2.4044362705	-0.0895030951	-1.1033925039	-0.286049
C	-2.5125771593	-1.6221123431	-1.1999541776	-0.064215
O	-1.5010306919	-1.8015254743	-0.1849085179	-0.29545
H	 1.0393490565	 2.0238505554	 0.4050393743	 0.134785
H	-0.5021573551	 2.2620869157	-0.4433878646	 0.111285
H	-0.4811050031	 1.908803918	 1.2924849188	 0.116445
H	 0.6030182334	-1.1917216305	-1.6059915919	 0.115527
H	 1.6558642526	 0.2986795524	-1.3934149883	 0.104574
H	 0.7951617018	-1.6902542974	 0.8326437535	 0.104409
H	 2.9113647397	-0.5180208617	 1.0437012785	 0.287207
H	-1.8992648208	-0.1576398441	 1.0608883362	 0.072907
H	-3.322156694	 0.4513424096	-0.8694885742	 0.10814
H	-1.9101947432	 0.3798087452	-1.9562334434	 0.112889
H	-3.4775547059	-2.039968495	-0.8854348541	 0.101348
H	-2.2218357681	-2.0798073284	-2.1523950937	 0.104086
80.52	90.0553	150.8464	190.6068	225.6502	241.1751	281.5931	318.1567	340.4677	452.3277	471.3847	590.1817	666.9229	765.205	823.7001	836.6215	885.1553	909.2987	946.6235	965.3087	980.9551	1015.1974	1030.1706	1040.9729	1066.3667	1098.1825	1120.5382	1131.0348	1170.5524	1179.6323	1218.0435	1255.044	1256.6665	1279.08	1310.6798	1321.8327	1359.899	1391.8876	1411.2371	1416.7816	1480.1767	1488.2285	1495.2953	1507.0292	1531.4308	2982.8801	3014.8926	3028.2687	3057.9895	3078.9888	3082.6196	3122.0551	3129.2949	3136.4978	3138.2331	3222.788	3808.4826
CC1(CC1O)C1CCO1	C[C@]1(C[C@H]1O)[C@H]1CCO1	
InChI=1S/C7H12O2/c1-7(4-5(7)8)6-2-3-9-6/h5-6,8H,2-4H2,1H3	InChI=1S/C7H12O2/c1-7(4-5(7)8)6-2-3-9-6/h5-6,8H,2-4H2,1H3/t5-,6-,7-/m1/s1
