16
gdb 53803	2.76432	1.32233	1.07501	2.3044	65.95	-0.2437	-0.0764	0.1673	1142.1671	0.121728	-475.044133	-475.034744	-475.0338	-475.078997	33.475	
C	 0.0713283278	 1.496544109	 0.0104558474	-0.493885
C	 0.0625313041	-0.0120189101	-0.0412164435	 0.336744
C	 0.8135547883	-0.7593451524	-1.0565316607	-0.215576
O	 1.287834436	-0.6847122748	 0.296476633	-0.264559
C	-1.1120249739	-0.7585351987	 0.5713743587	 0.237698
O	-1.7383584161	-1.6024695825	-0.0276626084	-0.305955
C	-1.4466338277	-0.4624214923	 2.0554942696	 0.337923
N	-2.4598087283	-1.2357930112	 2.5019740661	-0.518496
O	-0.846944177	 0.3705995803	 2.7070088437	-0.345321
H	 0.9785757006	 1.872700286	-0.4693182721	 0.129662
H	-0.7949937048	 1.9029729686	-0.5236156416	 0.124448
H	 0.0388953577	 1.8399280296	 1.0447212614	 0.173396
H	 0.4609105122	-1.7361072936	-1.3769664237	 0.132811
H	 1.4056751822	-0.2042251515	-1.7817454134	 0.118987
H	-2.8647659793	-1.9175464782	 1.8811939267	 0.280627
H	-2.7536611517	-1.1684469882	 3.4614967367	 0.271497
44.4808	61.0456	165.7219	179.0355	217.735	302.8603	330.233	337.3057	360.8981	414.6667	480.1588	518.5938	613.797	647.7832	661.9567	799.6013	833.0344	874.3768	930.6869	1022.1271	1048.5681	1097.5205	1111.6992	1138.6979	1164.588	1274.2095	1363.7097	1392.8151	1410.9849	1474.388	1505.5325	1523.0706	1587.5286	1792.9538	1806.2468	3042.7949	3099.2681	3113.1881	3157.1271	3194.9104	3597.8775	3738.8046
CC1(CO1)C(=O)C(N)=O	C[C@]1(CO1)C(=O)C(=O)N	
InChI=1S/C5H7NO3/c1-5(2-9-5)3(7)4(6)8/h2H2,1H3,(H2,6,8)	InChI=1S/C5H7NO3/c1-5(2-9-5)3(7)4(6)8/h2H2,1H3,(H2,6,8)/t5-/m0/s1
