17
gdb 96649	2.84893	1.20814	0.92527	3.9752	72.34	-0.2421	-0.0421	0.2	1262.3259	0.133356	-455.13005	-455.120464	-455.119519	-455.164836	34.115	
C	-0.1973786795	 1.6382673346	-0.0791695386	-0.341452
N	-0.042519435	 0.1949833057	-0.0647050835	-0.294995
C	-1.0994048975	-0.5177606524	 0.0129399899	 0.276947
N	-2.4040541625	-0.09663903	 0.111541761	-0.566374
C	-0.9253462812	-2.0077626908	 0.0682668196	 0.261522
C	-1.5144387836	-2.7906939071	 1.1803212278	-0.195309
O	-2.1229397096	-2.7887708481	-0.1024156629	-0.271416
C	 0.3013538496	-2.5855860751	-0.6091591081	 0.104692
O	 0.512892239	-3.7701442966	-0.6438194187	-0.255063
H	 0.7853125982	 2.1093745064	-0.1553205961	 0.129084
H	-0.7966179207	 1.9895146144	-0.9358599426	 0.107389
H	-0.6803080659	 2.0148811438	 0.8356389122	 0.116268
H	-2.6158611809	 0.8552542394	-0.1375729317	 0.260322
H	-3.1035480628	-0.7856404305	-0.1222789323	 0.270672
H	-1.0268014453	-3.7236027312	 1.4537334232	 0.147704
H	-2.0538790576	-2.2588851325	 1.9612448054	 0.131159
H	 0.9740796255	-1.83574489	-1.0598780946	 0.118849
64.3353	87.0448	133.8131	156.8332	196.2759	263.0372	304.461	345.2427	354.8124	400.7512	432.9812	491.0988	565.6669	695.4321	730.2113	759.3984	838.532	909.1804	941.7733	998.5713	1052.7571	1105.8243	1109.478	1140.0556	1167.9248	1180.4915	1199.3348	1337.8293	1380.022	1421.6175	1439.6992	1491.7395	1495.2108	1505.0614	1619.0764	1740.1015	1822.7583	2960.8649	2995.6551	3011.8532	3097.7555	3104.9226	3202.3224	3580.9938	3703.574
CN=C(N)C1(CO1)C=O	CN=C(N)[C@]1(CO1)C=O	
InChI=1S/C5H8N2O2/c1-7-4(6)5(2-8)3-9-5/h2H,3H2,1H3,(H2,6,7)	InChI=1S/C5H8N2O2/c1-7-4(6)5(2-8)3-9-5/h2H,3H2,1H3,(H2,6,7)/t5-/m1/s1
