19
gdb 81660	2.41113	1.61534	1.46157	2.577	73.85	-0.2408	-0.0178	0.223	1009.8416	0.15989	-423.043235	-423.035375	-423.034431	-423.075605	30.832	
C	 0.0086519925	 1.6898106737	 0.0175579652	-0.446049
C	 0.0612242408	 0.1699228136	 0.0136747013	 0.007899
C	 1.013832786	-0.6384504828	-0.9034696208	 0.062905
C	 2.4035676568	-0.0158357376	-1.0299846969	-0.317299
C	 2.9134127262	 0.455561712	 0.3387706327	 0.393269
O	 3.8759603171	 1.1744587619	 0.4525150943	-0.318135
C	 2.1108802053	-0.0325648184	 1.5525757599	-0.317299
C	 0.7856052292	-0.6514946236	 1.1103201774	 0.062905
O	 1.0940634558	-1.6722427837	 0.1187967901	-0.301765
H	 0.9909922521	 2.1568421888	 0.1319424781	 0.136841
H	-0.4244523797	 2.0619184382	-0.9171438116	 0.125634
H	-0.6232241643	 2.0505644009	 0.8362764061	 0.125634
H	-0.9454766907	-0.2408038389	-0.1030772518	 0.092025
H	 0.6295029348	-1.021262839	-1.852801861	 0.08111
H	 3.1006866542	-0.7733309411	-1.4077959882	 0.140133
H	 2.4389186353	 0.828550099	-1.7265373374	 0.125474
H	 2.7068698788	-0.7958414645	 2.0670856242	 0.140134
H	 1.988236712	 0.8027897029	 2.2501171879	 0.125474
H	 0.1991349377	-1.0458603012	 1.9445951306	 0.08111
70.4805	186.0494	211.5673	220.3601	347.2465	387.406	453.8122	454.6389	529.037	569.4993	622.1797	725.6597	780.3211	780.7187	847.2855	887.2515	918.5316	931.9553	990.9167	1005.8251	1043.8247	1081.524	1089.3306	1115.7465	1163.9942	1168.1856	1206.8904	1232.9572	1250.4073	1296.8803	1314.9313	1333.93	1359.0887	1373.2265	1393.4677	1418.6587	1434.7243	1441.2495	1498.5512	1498.6535	1820.4255	3036.0199	3042.2496	3043.5004	3064.3599	3071.5529	3080.5366	3088.6618	3089.3263	3097.1013	3112.9177
CC1C2CC(=O)CC1O2	C[C@H]1[C@H]2CC(=O)C[C@@H]1O2	
InChI=1S/C7H10O2/c1-4-6-2-5(8)3-7(4)9-6/h4,6-7H,2-3H2,1H3	InChI=1S/C7H10O2/c1-4-6-2-5(8)3-7(4)9-6/h4,6-7H,2-3H2,1H3/t4-,6+,7-
