17
gdb 29184	3.05685	1.35313	0.945	5.241	81.06	-0.1885	-0.0281	0.1604	1197.4375	0.137884	-418.081087	-418.072806	-418.071862	-418.113558	32.043	
C	 0.0058895292	 1.523749951	 0.009701131	-0.503332
C	 0.0062857157	 0.0185998414	-0.0053287626	 0.327347
C	-0.0349683818	-0.6802617255	-1.1762466546	-0.349763
C	-0.0127725561	-2.128619284	-1.2473316737	 0.427585
O	-0.0412358287	-2.8156141172	-2.2594415463	-0.414442
N	 0.0510182722	-2.7227472284	 0.0186541897	-0.375887
C	 0.0682691104	-2.0502469206	 1.211249725	-0.033653
C	 0.0586968089	-0.6889003101	 1.2497572421	 0.139936
N	 0.1878893905	 0.0401048023	 2.4551011042	-0.591719
H	 0.8507078051	 1.9053325015	 0.5929096752	 0.149101
H	 0.0619208	 1.9274809064	-1.0028978772	 0.134515
H	-0.9062537397	 1.919973502	 0.4756354381	 0.126856
H	-0.0761189205	-0.1660285046	-2.1294953301	 0.106869
H	 0.0694227185	-3.7323629749	 0.0077805288	 0.256969
H	 0.1046763293	-2.6628239395	 2.104599378	 0.115811
H	 0.1187375549	-0.5531824686	 3.2726378905	 0.239335
H	-0.492684288	 0.7863179386	 2.539026052	 0.244472
121.489	177.0156	198.7867	247.1144	297.2659	342.0515	357.634	412.0479	451.796	523.4548	562.2912	595.4837	689.118	746.1514	747.8803	760.7656	803.3958	842.2005	890.8125	918.3719	1027.0375	1062.1001	1111.3401	1169.4539	1203.6277	1237.8256	1278.8661	1364.3903	1406.9492	1429.9029	1478.0571	1487.9768	1500.8649	1584.3094	1652.3025	1694.2221	1776.6279	3019.8503	3079.5524	3131.8228	3195.3951	3200.7886	3519.3535	3610.2984	3616.1636
CC1=CC(=O)NC=C1N	Cc1cc(=O)[nH]cc1N	
InChI=1S/C6H8N2O/c1-4-2-6(9)8-3-5(4)7/h2-3H,7H2,1H3,(H,8,9)	InChI=1S/C6H8N2O/c1-4-2-6(9)8-3-5(4)7/h2-3H,7H2,1H3,(H,8,9)
