20
gdb 106894	2.32826	1.3171	1.20036	4.109	78.89	-0.2408	-0.0073	0.2335	1191.5929	0.1697	-403.14314	-403.133847	-403.132903	-403.17732	34.457	
C	-0.1508132098	 1.5359572706	 0.0247294314	-0.390641
C	 0.1089579432	 0.0252352798	 0.0544680662	-0.286678
C	 0.7202020481	-0.5252587372	-1.2064824948	 0.337927
C	 1.7241044832	-1.5992445748	-1.2095536146	-0.299889
N	 2.1900603445	-0.2192902799	-1.5717884406	-0.214294
C	 1.7527342329	-0.0567280991	-2.9483896239	 0.400417
O	 2.3976943863	 0.2028594348	-3.9159019126	-0.303057
C	 0.2527584798	-0.2270440263	-2.6437010915	-0.193189
C	-0.5877782813	-1.2208000787	-3.4368276546	-0.418862
H	 0.7701815567	 2.0817481509	-0.2007525671	 0.139666
H	-0.9000901031	 1.8069994554	-0.7257298299	 0.119303
H	-0.5209105676	 1.8800633869	 0.9946092546	 0.119463
H	 0.778366572	-0.2132707032	 0.8890230648	 0.113003
H	-0.8282297496	-0.5128243885	 0.2515728659	 0.108658
H	 2.1258578332	-1.9254580342	-0.2554066091	 0.134976
H	 1.7321686121	-2.3645935951	-1.9813680852	 0.130903
H	-0.2024597507	 0.7687199883	-2.6940844808	 0.115036
H	-0.183677415	-2.2356206202	-3.3805861243	 0.122503
H	-1.6182034659	-1.246385136	-3.0683674055	 0.123631
H	-0.6132282391	-0.9302814634	-4.4913525382	 0.141126
63.2396	106.7766	177.6927	190.2022	195.7412	232.9723	287.4375	296.277	423.7737	509.6694	541.5477	607.7754	650.9316	701.5543	722.6117	798.4548	805.9007	903.8553	922.7783	993.3713	1012.2447	1055.6923	1064.4897	1086.3898	1109.0496	1123.6074	1139.3545	1157.9145	1213.3364	1259.0684	1307.7199	1331.1695	1366.4728	1408.3872	1409.5538	1418.3779	1473.3888	1494.5937	1496.7621	1501.1685	1507.7601	1516.5191	1913.1619	3020.091	3040.5534	3041.1858	3054.9288	3061.9378	3108.8718	3110.0021	3114.3494	3117.6973	3118.2085	3203.0861
CCC12CN1C(=O)C2C	CC[C@]12CN1C(=O)[C@H]2C	
InChI=1S/C7H11NO/c1-3-7-4-8(7)6(9)5(7)2/h5H,3-4H2,1-2H3	InChI=1S/C7H11NO/c1-3-7-4-8(7)6(9)5(7)2/h5H,3-4H2,1-2H3/t5-,7-,8?/m1/s1
