12
gdb 25457	2.28291	1.73341	0.98528	1.1883	70.	-0.2747	-0.0873	0.1874	1072.0954	0.079331	-431.731366	-431.724175	-431.723231	-431.76352	25.4	
O	-0.0729356935	-0.011953015	-0.0004054202	-0.258468
C	-0.0472586338	 1.1852009933	 0.0084051653	 0.175708
N	 1.156045557	 1.9196143703	 0.0006496423	-0.148058
C	 2.4294194442	 1.3980356456	-0.0173715013	 0.051552
N	 3.3458728853	 2.3302866157	-0.0204837543	-0.25464
C	 2.6650538712	 3.524718842	-0.003931921	-0.152582
C	 1.3092587518	 3.3121373047	 0.009508735	 0.209275
C	 0.2204796378	 4.2072960297	 0.0283453438	 0.227776
N	-0.6809026497	 4.9356631107	 0.0438370624	-0.338949
H	-0.9331035117	 1.8394395345	 0.0231237126	 0.148693
H	 2.5886531666	 0.3313101377	-0.0271954954	 0.183264
H	 3.1773068249	 4.4742532009	-0.0024385591	 0.156428
129.5916	145.1317	158.4566	244.9045	248.9624	463.3353	503.2707	567.6151	630.4819	653.3308	673.0208	822.9299	878.7928	900.8573	936.385	1041.3129	1136.0198	1171.3053	1240.14	1284.902	1330.8564	1398.8913	1442.4861	1484.0486	1580.7058	1839.0792	2340.9493	3027.9334	3266.5538	3279.8416
O=CN1C=NC=C1C#N	O=Cn1cncc1C#N	
InChI=1S/C5H3N3O/c6-1-5-2-7-3-8(5)4-9/h2-4H	InChI=1S/C5H3N3O/c6-1-5-2-7-3-8(5)4-9/h2-4H
