17
gdb 68351	2.51955	2.04521	1.36871	3.4352	73.97	-0.2574	-0.0614	0.1961	940.0336	0.13792	-421.850509	-421.843588	-421.842644	-421.881395	28.78	
O	 0.0435065408	 1.3937345182	-0.018672912	-0.491764
C	-0.0054792066	 0.0162196278	 0.0386978318	 0.334319
C	 0.2602059017	-0.7195132755	 1.3907237578	-0.280024
C	-0.6669598413	-1.8424959782	 0.8197839534	-0.08852
C	-1.383102771	-0.7190189009	 0.0002631773	-0.279976
C	 0.137620824	-2.6905170169	-0.1315862675	-0.04453
C	 0.9100945738	-2.0792530845	-1.0446678001	-0.166079
C	 0.9005219114	-0.6065601922	-1.0319793702	 0.345303
O	 1.5331394969	 0.1150468353	-1.7819336234	-0.376765
H	 0.6585474111	 1.5978289096	-0.7451873686	 0.289461
H	 1.2864753068	-0.9865255575	 1.6526298263	 0.107531
H	-0.2134153431	-0.1751790708	 2.2116516939	 0.116332
H	-1.2589157846	-2.4311291788	 1.5191749972	 0.078904
H	-2.114131791	-0.1746399852	 0.6034119608	 0.11637
H	-1.8113695929	-0.9855922518	-0.968574493	 0.107571
H	 0.0810241067	-3.77295478	-0.0653450521	 0.115723
H	 1.5257794372	-2.5937298187	-1.7731514217	 0.116144
143.0437	312.1973	326.9983	361.0727	416.7756	425.8293	443.5202	529.8955	536.4003	621.5676	695.8523	728.3805	818.0456	824.6997	861.1919	863.3625	928.3369	951.8187	998.2641	1004.98	1020.5204	1066.0014	1098.0721	1117.6123	1167.4756	1170.7481	1214.6886	1227.2156	1240.364	1313.6831	1358.0967	1390.8279	1429.6786	1476.7602	1511.0326	1648.2999	1771.0987	3060.7136	3066.063	3118.3188	3126.0753	3128.9812	3175.9837	3209.0925	3640.2749
OC12CC(C1)C=CC2=O	O[C@@]12C[C@@H](C1)C=CC2=O	
InChI=1S/C7H8O2/c8-6-2-1-5-3-7(6,9)4-5/h1-2,5,9H,3-4H2	InChI=1S/C7H8O2/c8-6-2-1-5-3-7(6,9)4-5/h1-2,5,9H,3-4H2/t5-,7-
