15
gdb 33641	3.42534	1.54467	1.449	1.872	76.32	-0.2405	-0.0201	0.2204	933.8996	0.113646	-379.580576	-379.573841	-379.572896	-379.611518	27.197	
C	-0.0497841815	-1.2142620595	 0.0087226878	-0.339932
C	-0.0291152805	-0.0111963213	-0.0043661528	 0.064899
C	-0.0168637503	 1.4040458642	-0.0162694235	 0.261765
C	-0.7329728384	 2.4735335359	 0.7988294191	-0.146243
C	 0.6157363935	 3.0693598643	 1.1316188571	-0.182604
N	 1.2621385434	 2.2415923132	 0.0005682048	-0.223196
C	 1.0690209683	 3.101273553	-1.1483266607	 0.009866
N	-0.1201026448	 3.2305044291	-1.5851441568	-0.185789
C	-0.9160251863	 2.3750536421	-0.7288132478	-0.06331
H	-0.0621128256	-2.2760933511	 0.0163575697	 0.188869
H	-1.5835702614	 2.3598798978	 1.4585443857	 0.115048
H	 0.7613898411	 4.1508337339	 1.0403144001	 0.119178
H	 1.0069404995	 2.7175326013	 2.0874162676	 0.132398
H	 1.9190738854	 3.6570183768	-1.5309274498	 0.129491
H	-1.8908998923	 2.0692657802	-1.0842383506	 0.11956
130.9891	158.3543	355.4027	395.7544	470.3538	494.2653	535.8722	579.0441	582.4395	689.1791	745.1176	779.1072	815.2178	851.3341	869.5919	898.4417	932.8217	963.1214	972.691	1006.8816	1042.6955	1066.1041	1094.0347	1098.3614	1172.4937	1216.5716	1272.2599	1303.0921	1313.8048	1402.9246	1503.354	1651.8406	2234.3223	3048.8236	3121.1183	3197.4544	3200.8754	3217.9995	3500.7785
C#CC12C3CN1C=NC23	C#C[C@@]12[C@H]3CN1[CH][N][C@@H]23	
InChI=1S/C7H6N2/c1-2-7-5-3-9(7)4-8-6(5)7/h1,4-6H,3H2	InChI=1S/C7H6N2/c1-2-7-5-3-9(7)4-8-6(5)7/h1,4-6H,3H2/t5-,6+,7-/m0/s1
