19
gdb 61769	3.3798	0.81394	0.75792	2.6743	77.21	-0.244	-0.0391	0.2049	1524.1167	0.156036	-419.2086	-419.198198	-419.197253	-419.244706	36.127	
C	-0.1484670537	 1.5840887151	 0.2406369328	-0.401767
C	 0.0255410629	 0.0774215782	-0.0572542363	-0.114977
C	-1.2795427655	-0.604724554	 0.031852499	 0.291501
N	-2.3122230344	-1.1165986125	 0.1097628293	-0.322546
N	 0.6682487604	-0.2699545792	-1.3267941135	-0.069386
C	-0.0311467188	 0.1945665393	-2.5208973729	-0.350753
C	 2.0920498957	 0.0076117352	-1.3674423776	-0.245382
C	 2.7998088704	-0.9155311319	-2.3543242204	 0.153746
O	 3.7984849572	-0.6228123418	-2.9545393269	-0.232204
H	 0.8238599773	 2.0831846906	 0.2114410785	 0.131972
H	-0.8102582715	 2.059629729	-0.4866224018	 0.143033
H	-0.579327423	 1.725572513	 1.2352034293	 0.143219
H	 0.6505220839	-0.3549114143	 0.7341495594	 0.131248
H	 0.021523455	 1.28645052	-2.6668710732	 0.110825
H	 0.4101851198	-0.2783534037	-3.4035812347	 0.136918
H	-1.081530073	-0.1036145444	-2.4743324738	 0.15253
H	 2.3579288193	 1.0495272107	-1.6126273093	 0.116642
H	 2.5279612168	-0.214969998	-0.3831564158	 0.130683
H	 2.3143427812	-1.9128893512	-2.4502035524	 0.094697
54.8525	72.7076	95.661	151.3198	197.1602	218.1032	234.6001	259.5359	286.019	349.7052	377.3724	447.7473	488.6741	575.7652	639.6096	756.4384	789.3464	876.2619	966.0119	1039.6448	1063.4225	1073.9534	1079.8234	1124.08	1155.3661	1195.406	1235.3056	1297.9083	1326.332	1347.2748	1385.8555	1399.1225	1404.5694	1455.5732	1470.427	1487.5791	1490.493	1498.5439	1515.1146	1842.9377	2361.2232	2887.299	2965.8822	2969.3361	3032.4269	3036.3896	3053.1142	3073.5871	3121.4867	3128.0392	3137.3634
CC(C#N)N(C)CC=O	C[C@@H](C#N)N(C)CC=O	
InChI=1S/C6H10N2O/c1-6(5-7)8(2)3-4-9/h4,6H,3H2,1-2H3	InChI=1S/C6H10N2O/c1-6(5-7)8(2)3-4-9/h4,6H,3H2,1-2H3/t6-/m0/s1
