23
gdb 121532	4.88091	0.46829	0.4611	0.792	94.25	-0.2406	0.0407	0.2813	2543.9685	0.202225	-388.263927	-388.252166	-388.251222	-388.304229	40.352	
C	 0.1241660373	 1.3558815534	-0.6706267366	-0.386336
C	 0.007772464	 0.0317825135	 0.0643935718	-0.01494
O	-1.3258989241	-0.4244117479	-0.0446442115	-0.240281
C	-1.5289033236	-1.6601253395	 0.6145078595	-0.206215
C	-2.9145725822	-2.087089344	 0.4737056909	-0.05896
C	-4.0562441281	-2.4548815903	 0.3672710429	 0.198808
C	-5.4413422926	-2.9091038252	 0.2416505349	-0.127186
C	-5.529295455	-4.2131840392	-0.5758571085	-0.374388
C	-6.1042196908	-3.0665057332	 1.6246304318	-0.374393
H	 1.1469647242	 1.7391535211	-0.6063767824	 0.113578
H	-0.1359946138	 1.2322141649	-1.7255734613	 0.128654
H	-0.5532665969	 2.0959829593	-0.2356241164	 0.128661
H	 0.70168386	-0.7122485122	-0.3640364913	 0.084383
H	 0.2843081002	 0.1517828057	 1.1263576993	 0.084387
H	-0.8551744606	-2.4301520447	 0.1983090288	 0.110211
H	-1.2716279914	-1.5688583282	 1.6848150035	 0.110237
H	-5.9925118164	-2.1323816347	-0.306998902	 0.108418
H	-4.9989617801	-5.0237455757	-0.0662432765	 0.122039
H	-6.5746978443	-4.5131807416	-0.7010312066	 0.111061
H	-5.0838172206	-4.0870897791	-1.5659905799	 0.124577
H	-5.593611827	-3.8367957906	 2.2110579413	 0.122104
H	-6.0652563619	-2.1306654242	 2.1880244077	 0.124394
H	-7.1526943464	-3.3605817975	 1.5118321504	 0.111185
4.7761	63.2283	63.7736	107.3835	125.8839	167.1989	227.859	244.4562	250.6987	265.9732	299.9921	351.9689	409.9311	517.8003	528.5011	536.9875	729.1459	822.1764	884.69	909.7863	930.6175	963.5401	1027.1997	1029.5407	1070.5425	1121.6714	1130.9404	1146.4305	1164.4136	1188.8785	1212.1668	1254.6938	1294.8925	1323.1609	1348.5514	1379.0418	1395.1751	1405.2498	1417.281	1448.1927	1483.1128	1485.755	1489.238	1497.4144	1498.5627	1502.1596	1510.1292	1532.184	2368.9417	2937.3083	2950.7579	2954.7663	2970.659	3005.4569	3035.0241	3038.5856	3045.0705	3105.2231	3110.525	3118.7156	3119.0869	3120.4583	3122.8118
CCOCC#CC(C)C	CCOCC#CC(C)C	
InChI=1S/C8H14O/c1-4-9-7-5-6-8(2)3/h8H,4,7H2,1-3H3	InChI=1S/C8H14O/c1-4-9-7-5-6-8(2)3/h8H,4,7H2,1-3H3
