21
gdb 86043	3.54354	0.85514	0.79838	2.2093	79.03	-0.2488	-0.0235	0.2253	1482.3219	0.179798	-424.224813	-424.214911	-424.213967	-424.259984	36.653	
C	-0.5826571721	 1.6844378919	 0.0792376524	-0.45509
C	-0.0040260079	 0.2732071107	 0.005373114	 0.310319
C	-1.0985651207	-0.7491266084	-0.3687054041	-0.323803
C	-1.7543666016	-0.4725785226	-1.7040225652	 0.158876
O	-2.9427563796	-0.3891551391	-1.8824065111	-0.242868
C	 1.3092958747	 0.1003813392	-0.8322582373	-0.314387
C	 1.8896289176	-0.7697912942	 0.3130495406	 0.18029
O	 3.2462917737	-0.6618611514	 0.6572451606	-0.43333
C	 0.802070338	-0.1975423919	 1.2589422508	-0.310142
H	 0.1859125161	 2.4074356396	 0.3706458837	 0.108775
H	-0.9942619437	 2.0072413389	-0.8840570887	 0.125409
H	-1.3923651843	 1.7392886045	 0.816002022	 0.123948
H	-0.6579654735	-1.7546636366	-0.4293059198	 0.119316
H	-1.8830640937	-0.7761274597	 0.3946423851	 0.119345
H	-1.0443104295	-0.3509105808	-2.554997279	 0.074228
H	 1.2464787459	-0.34132379	-1.8300606132	 0.102713
H	 1.849401755	 1.0506299859	-0.9111534738	 0.093388
H	 1.7296110645	-1.8347035828	 0.1226613387	 0.093997
H	 3.4355415388	 0.2644861514	 0.8408952597	 0.27604
H	 1.1874915279	 0.6609127136	 1.8209732104	 0.090387
H	 0.3136691946	-0.8811899782	 1.9585298442	 0.10259
54.6175	85.0134	105.9328	188.6551	224.176	288.146	288.6053	307.906	348.313	388.4739	455.933	471.9723	493.9364	594.0558	729.3766	796.9901	824.7319	881.962	920.6072	945.1537	976.6227	986.931	1006.3342	1050.3495	1085.1929	1097.5413	1119.4521	1159.3296	1185.0074	1225.0782	1243.6871	1277.8682	1284.9187	1305.8512	1319.6558	1341.7074	1415.6745	1431.6617	1443.5774	1458.11	1470.5986	1489.0103	1496.2374	1498.0177	1830.9679	2859.5391	3013.16	3022.891	3037.7152	3044.4789	3069.4936	3084.0106	3088.2495	3097.3425	3099.8371	3105.8932	3805.6969
CC1(CC=O)CC(O)C1	C[C@@]1(CC=O)C[C@@H](O)C1	
InChI=1S/C7H12O2/c1-7(2-3-8)4-6(9)5-7/h3,6,9H,2,4-5H2,1H3	InChI=1S/C7H12O2/c1-7(2-3-8)4-6(9)5-7/h3,6,9H,2,4-5H2,1H3/t6-,7-
