19
gdb 76228	2.4639	1.49981	1.16952	3.4509	72.38	-0.2231	0.0257	0.2489	1108.726	0.158779	-456.361018	-456.351583	-456.350639	-456.394456	36.339	
C	 0.0101547085	 1.5461169482	-0.0011981173	-0.436066
C	 0.0070262872	 0.0190454104	-0.0160599677	 0.330856
O	-1.3154863465	-0.4874730584	-0.1705563935	-0.480525
C	 0.9016057327	-0.5495013273	-1.1504992651	-0.193587
N	 2.2460622518	-0.7270940748	-0.5926355358	-0.295527
C	 2.1396127009	-0.7266451618	 0.6831108261	 0.371289
N	 3.1640038915	-0.9259935404	 1.5681057939	-0.578985
C	 0.7324413706	-0.5712673751	 1.2251387964	-0.02872
O	 0.7385782838	 0.2051810291	 2.4164844725	-0.437669
H	 1.0315239156	 1.934964972	 0.0265276456	 0.134492
H	-0.4834430533	 1.9229162692	-0.9016612621	 0.120672
H	-0.5088856111	 1.9323474199	 0.8825547515	 0.105096
H	-1.9218848541	 0.1083827732	 0.2804380146	 0.274696
H	 0.485782642	-1.5085381047	-1.487064174	 0.109988
H	 0.9328079175	 0.1116936211	-2.0231144452	 0.097555
H	 4.0926001914	-0.8197581348	 1.1869936751	 0.255033
H	 3.0189568719	-0.5107447185	 2.4764778174	 0.260329
H	 0.3083281493	-1.5673791863	 1.419384911	 0.098782
H	-0.0422655196	-0.017888831	 2.9304665864	 0.292293
80.7218	196.4044	218.0968	254.2268	258.0705	273.4926	278.671	295.4592	352.1175	388.7937	467.731	491.0971	548.4652	550.3765	595.6946	667.8315	702.9386	795.765	894.2849	945.7903	959.168	971.2767	1001.098	1099.2934	1113.251	1136.3059	1162.5465	1196.4762	1217.6604	1245.6192	1288.6533	1329.5403	1368.9659	1396.7337	1405.4773	1455.4899	1486.3632	1494.3316	1506.1304	1616.4431	1731.0121	3000.5873	3019.2042	3037.5992	3063.7557	3107.246	3124.5948	3568.9894	3683.6413	3813.3012	3839.3321
CC1(O)CN=C(N)C1O	C[C@@]1(O)C[N][C](N)[C@H]1O	
InChI=1S/C5H10N2O2/c1-5(9)2-7-4(6)3(5)8/h3,8-9H,2H2,1H3,(H2,6,7)	InChI=1S/C5H10N2O2/c1-5(9)2-7-4(6)3(5)8/h3,8-9H,2H2,1H3,(H2,6,7)/t3-,5-/m1/s1
