16
gdb 17832	4.2968	1.63896	1.46396	3.4383	65.74	-0.2319	-0.0126	0.2193	900.2696	0.129377	-383.708911	-383.701379	-383.700435	-383.741284	27.519	
C	 0.0339661944	 1.3459511228	 0.4445420701	-0.482867
C	 0.2023394991	-0.1279813596	 0.1124109042	 0.388102
O	 1.2979961449	-0.6264760735	-0.0311771524	-0.313165
C	-1.0711273647	-0.9041335446	 0.0050139823	-0.151566
C	-1.2284635142	-2.3027613087	-0.5760108318	-0.16756
C	-0.0623342456	-3.2031794538	-0.1594275161	-0.08228
O	-0.2693092359	-2.862965303	 1.2453406685	-0.270085
C	-1.405213007	-2.0983910942	 0.8991834855	 0.093384
H	 1.0129844414	 1.809535175	 0.5692420989	 0.14181
H	-0.5126972876	 1.8549339746	-0.3581950594	 0.136759
H	-0.5559171198	 1.4688754284	 1.3598239965	 0.13919
H	-1.9572728807	-0.2940654581	-0.1561627879	 0.095219
H	-1.9489689016	-2.5126406455	-1.3549331823	 0.10571
H	-0.2822969803	-4.2639776292	-0.3177002896	 0.108784
H	 0.9371414713	-2.9430387909	-0.5039950348	 0.145816
H	-2.2596070437	-2.1110549297	 1.5667605483	 0.112748
50.294	133.4312	167.7646	211.5641	326.7014	390.0453	435.6495	607.745	637.0225	744.6341	791.4496	805.098	873.1206	918.7438	946.3524	964.3398	995.2382	1014.3578	1042.1341	1063.9504	1081.2035	1097.2428	1146.5444	1171.078	1192.0486	1262.3004	1307.1084	1366.8804	1377.308	1432.1316	1464.7092	1475.82	1494.9404	1794.8431	3032.8484	3051.6225	3093.2002	3139.5508	3153.5051	3154.6787	3175.9209	3204.7777
CC(=O)C1C2COC12	CC(=O)[C@H]1[C@H]2CO[C@@H]12	
InChI=1S/C6H8O2/c1-3(7)5-4-2-8-6(4)5/h4-6H,2H2,1H3	InChI=1S/C6H8O2/c1-3(7)5-4-2-8-6(4)5/h4-6H,2H2,1H3/t4-,5+,6-/m1/s1
