14
gdb 132383	1.95437	1.79732	0.9368	3.3849	68.68	-0.229	0.0034	0.2324	1135.7643	0.102299	-478.053159	-478.0458	-478.044855	-478.084757	29.105	
N	-0.0419487908	 1.4006293677	 0.202293281	-0.590357
C	-0.0005008912	 0.0304522831	 0.0688411608	 0.411715
C	-1.1869333103	-0.7238059934	 0.0504192616	-0.385217
C	-1.0560280866	-2.0962116936	-0.0333594231	 0.352965
F	-2.1636828789	-2.8343148451	-0.0537152811	-0.076303
N	 0.0753163816	-2.770334369	-0.0997534146	-0.440019
C	 1.1901214477	-2.0363852255	-0.0818560779	 0.458292
O	 2.3574790221	-2.7078347763	-0.150740961	-0.421467
C	 1.2213874349	-0.6498720566	-0.0015748611	-0.319547
H	 0.7823967723	 1.910595798	-0.0725052888	 0.257604
H	-0.9046759644	 1.857809786	-0.0460604772	 0.25731
H	-2.1654426206	-0.2646972464	 0.1044350218	 0.098416
H	 2.1226646907	-3.6446492205	-0.2003240739	 0.300126
H	 2.1695137534	-0.1272778083	 0.0099162735	 0.096481
203.72	213.4172	250.9678	321.634	345.5767	387.3279	467.5523	521.5404	524.7289	525.6689	594.7968	622.2533	665.7589	686.1558	753.0189	811.6084	835.9393	999.6226	1022.2336	1051.5808	1110.502	1199.1506	1210.776	1284.8197	1367.1403	1451.0131	1501.4178	1533.0383	1622.496	1657.1542	1680.4982	3207.0396	3211.8454	3591.0095	3698.2136	3772.705
NC1=CC(F)=NC(O)=C1	Nc1cc(F)nc(O)c1	
InChI=1S/C5H5FN2O/c6-4-1-3(7)2-5(9)8-4/h1-2H,(H3,7,8,9)	InChI=1S/C5H5FN2O/c6-4-1-3(7)2-5(9)8-4/h1-2H,(H3,7,8,9)
