23
gdb 6233	2.17637	1.97007	1.59187	1.1175	82.73	-0.2103	0.079	0.2893	1026.3396	0.208207	-330.312286	-330.301751	-330.300807	-330.346524	38.94	
C	-2.5214715927	-3.0951907385	 0.2337639174	-0.315964
N	-1.3003862165	-2.3277442706	 0.0558249456	-0.163042
C	-0.8346054824	-1.9077913049	-1.2743831618	 0.275
C	 0.6529672453	-2.1173345779	-1.5188781948	-0.439273
C	-1.6438321756	-2.2176382159	-2.5259036394	-0.456877
C	-1.325493439	-0.8928695222	-0.2655308595	 0.274998
C	-2.6408145048	-0.1563980414	-0.4769683044	-0.456871
C	-0.3481928912	-0.0474400489	 0.5386322632	-0.439261
H	-3.3565463349	-2.8370763321	-0.4327349718	 0.095317
H	-2.2956413009	-4.156960593	 0.087587562	 0.119466
H	-2.8690499196	-2.9716085877	 1.2650913924	 0.119466
H	 0.8294902539	-3.1229634835	-1.918839821	 0.110398
H	 1.0364649253	-1.3994281232	-2.2534592888	 0.108263
H	 1.2339009403	-2.0231047177	-0.6016831328	 0.123565
H	-2.718750679	-2.0846841016	-2.4098526039	 0.115603
H	-1.3189737442	-1.5736616932	-3.3506290614	 0.11868
H	-1.4700991962	-3.2544321113	-2.837516968	 0.11702
H	-3.3813917648	-0.7150456251	-1.047978943	 0.115602
H	-3.0897224268	 0.0946874938	 0.4913624862	 0.117017
H	-2.4609768137	 0.7871239488	-1.0040699377	 0.118678
H	-0.0511645422	 0.8487091517	-0.0188273041	 0.108259
H	-0.8195751531	 0.2863894249	 1.470713398	 0.110402
H	 0.5485694528	-0.6055609605	 0.8068242275	 0.123555
117.1928	139.7169	147.6481	173.8419	177.1265	187.2927	243.4329	260.7088	309.4987	327.2537	387.7442	394.6453	450.5503	514.6586	527.8851	659.0299	697.5652	734.9463	923.5202	944.5665	953.3432	994.8149	1008.6924	1011.3085	1122.7689	1132.0329	1148.5216	1153.8506	1185.8004	1205.3419	1229.3005	1266.9178	1400.1413	1407.0477	1409.5096	1411.2613	1424.0051	1459.3751	1470.4718	1478.414	1481.4202	1490.7497	1494.7727	1496.4315	1501.4164	1507.3907	1517.8933	1527.5334	2990.9488	3025.1067	3027.54	3032.2718	3037.0204	3060.6813	3079.2282	3080.6169	3085.4136	3087.1851	3091.2704	3137.8318	3139.397	3152.7614	3155.8288
CN1C(C)(C)C1(C)C	CN1C(C)(C)C1(C)C	
InChI=1S/C7H15N/c1-6(2)7(3,4)8(6)5/h1-5H3	InChI=1S/C7H15N/c1-6(2)7(3,4)8(6)5/h1-5H3
