16
gdb 124724	1.93861	1.23199	0.75979	3.5986	76.25	-0.2619	-0.1104	0.1515	1451.535	0.118452	-471.171898	-471.160927	-471.159983	-471.208981	36.486	
C	-0.682379328	 2.1756954289	 0.6166445477	-0.454141
C	-0.7030787818	 0.7150138383	 0.3240605688	-0.130436
N	 1.8732019632	-1.4307112765	 0.536987453	-0.722666
H	 2.230457505	-1.8381888103	 1.396809679	 0.23727
H	 1.1086462863	-2.0293312107	 0.229344445	 0.269701
H	 2.6140995451	-1.5322563827	-0.1512776459	 0.237265
C	-1.7819717258	 0.0252453584	-0.0782407217	 0.29692
C	-1.8621732441	-1.4113241038	-0.3809460051	 0.304647
O	-1.0517166198	-2.2967209188	-0.3552399392	-0.298125
N	-3.2658603103	-1.6014574964	-0.7649900733	-0.151619
N	-3.8767711693	-0.5396974559	-0.7068274288	 0.054535
O	-3.0153235965	 0.5585977581	-0.2778774896	-0.277431
H	-0.3536497263	 2.3465769324	 1.6493949471	 0.151806
H	 0.0565529182	 2.6755319647	-0.022128055	 0.151851
H	-1.6554547835	 2.6464595705	 0.4703570154	 0.148917
H	 0.2229790075	 0.1479586838	 0.4412282427	 0.181507
44.3322	100.5178	119.9847	127.6381	137.4512	147.5732	171.7459	178.2182	236.222	336.4605	362.6721	392.6672	521.1829	592.2906	607.0811	661.3216	788.5884	794.743	892.2018	929.7909	1001.858	1033.4994	1077.1098	1120.3143	1136.0893	1238.3833	1387.3103	1405.9716	1475.6167	1476.3979	1610.003	1673.2753	1697.7286	1711.0928	1850.9831	3026.4038	3071.559	3101.4329	3144.6328	3456.5813	3571.2758	3584.2857
CC([NH3+])C1=C([O-])N=NO1	CC=C1C(=O)N=NO1.N	
InChI=1S/C4H7N3O2/c1-2(5)3-4(8)6-7-9-3/h2,8H,5H2,1H3	InChI=1S/C4H4N2O2.H3N/c1-2-3-4(7)5-6-8-3;/h2H,1H3;1H3
