20
gdb 15171	8.23759	0.64481	0.62671	0.1907	86.99	-0.2255	0.0573	0.2828	1858.4337	0.176087	-311.839511	-311.830025	-311.82908	-311.877487	33.347	
C	-0.1404876356	 1.5297420459	-0.0388999473	-0.381376
C	-0.1345096483	 0.0034337485	-0.1423291659	-0.15061
C	 0.9744138978	-0.5190073117	-1.0787432201	-0.33532
C	 1.0027116883	-1.9730014547	-1.1929588434	 0.012293
C	 1.0019820685	-3.176646304	-1.2694902585	 0.128471
C	 1.0120704188	-4.6086248934	-1.3607023773	-0.155094
C	-0.1342253653	-5.3443147997	-2.0374015403	-0.251804
C	 1.2079766387	-5.2917693888	-2.7053837958	-0.251229
H	 0.8127516344	 1.9057431054	 0.3496045805	 0.11477
H	-0.3040543606	 1.9943018939	-1.0178880879	 0.114397
H	-0.9326920592	 1.8782338213	 0.6305811811	 0.113342
H	 0.0027116488	-0.4416238399	 0.8495397939	 0.107344
H	-1.1034255861	-0.3544035461	-0.508236146	 0.106411
H	 0.8429556008	-0.0754302278	-2.075554426	 0.121674
H	 1.9483702007	-0.1578945372	-0.7200638753	 0.122154
H	 1.4557085157	-5.1187661579	-0.5101391924	 0.105668
H	-0.4571819971	-6.2791317836	-1.5930245941	 0.115407
H	-0.9321836202	-4.7375252828	-2.448224046	 0.123738
H	 1.3224747199	-4.6492763262	-3.5701073045	 0.124173
H	 1.81495116	-6.1900201612	-2.7232735346	 0.115592
2.1749	72.9468	77.9786	140.9407	190.3031	242.5735	299.3093	329.7931	431.7761	497.6999	536.7237	705.2971	741.855	795.3934	820.2439	870.936	879.7431	897.053	917.9142	1037.3383	1062.3047	1063.3822	1078.9733	1108.715	1119.0079	1120.8031	1183.3941	1200.966	1229.9638	1258.7245	1307.1989	1320.792	1379.3699	1394.4195	1413.0178	1466.7751	1472.0119	1491.8405	1497.6751	1499.434	1509.3226	2361.0713	3004.5132	3028.941	3030.1729	3040.7042	3071.9814	3099.0261	3104.3738	3138.7147	3139.3325	3145.1725	3223.9523	3239.1611
CCCC#CC1CC1	CCCC#CC1CC1	
InChI=1S/C8H12/c1-2-3-4-5-8-6-7-8/h8H,2-3,6-7H2,1H3	InChI=1S/C8H12/c1-2-3-4-5-8-6-7-8/h8H,2-3,6-7H2,1H3
