19
gdb 65534	2.8187	1.59831	1.36059	4.5523	78.71	-0.249	0.029	0.278	1014.3848	0.161483	-382.051054	-382.043383	-382.042439	-382.082789	30.794	
C	-0.0780454007	 1.5357823739	 0.0113275945	-0.450021
C	 0.0426470244	 0.0062471673	 0.0096390803	 0.161754
C	 0.9613244621	-0.590844433	-1.1368521916	-0.277124
C	 1.9545476178	-1.3332553299	-0.2259557234	-0.023484
C	 1.0000031672	-1.946040402	 0.8274506867	-0.192233
N	 0.7265287626	-0.5082964563	 1.2530981889	-0.14218
C	 2.1858737629	-0.279973393	 0.879664708	-0.185184
C	-1.3156934869	-0.5550404776	-0.051544869	 0.277643
N	-2.388369897	-0.9783027699	-0.1292424151	-0.35641
H	 0.9060051017	 2.00867811	 0.0105158287	 0.124839
H	-0.614915078	 1.8719856716	-0.8796969234	 0.138238
H	-0.6250410881	 1.8677915422	 0.8967199971	 0.148649
H	 0.4168759394	-1.254303717	-1.8116919612	 0.126398
H	 1.4295067919	 0.2002555954	-1.7285725443	 0.110218
H	 2.7604697533	-1.8893625445	-0.7072063913	 0.072047
H	 0.1225833828	-2.5084371075	 0.4999107154	 0.128527
H	 1.5082433981	-2.4739393164	 1.6359937424	 0.116103
H	 2.8181646141	-0.6247922278	 1.6996892699	 0.118308
H	 2.4595200122	 0.7406224745	 0.6056345473	 0.103914
151.2072	164.6245	198.965	266.9194	307.9309	418.8031	466.4235	504.6596	530.2143	587.5443	622.1811	737.7872	814.4175	847.8571	849.5234	875.9441	906.9974	914.4712	944.2519	958.7263	1018.6612	1036.8732	1079.7787	1083.0353	1111.5362	1135.8711	1167.4531	1208.2102	1231.3854	1242.3095	1266.1902	1281.9443	1298.5917	1315.9353	1411.8726	1486.0854	1490.1481	1500.0535	1509.4352	1541.4503	2355.1112	3055.2456	3066.6955	3072.6359	3078.4034	3106.4262	3120.3332	3128.9413	3133.9771	3136.9267	3141.955
CC1(CC2CN1C2)C#N	C[C@]1(C[C@@H]2CN1C2)C#N	
InChI=1S/C7H10N2/c1-7(5-8)2-6-3-9(7)4-6/h6H,2-4H2,1H3	InChI=1S/C7H10N2/c1-7(5-8)2-6-3-9(7)4-6/h6H,2-4H2,1H3/t7-/m0/s1
