16
gdb 14927	4.55207	1.47584	1.19026	3.7437	65.46	-0.237	0.0194	0.2565	975.076	0.133169	-379.922945	-379.915858	-379.914914	-379.954297	26.69	
N	-0.0015013451	-1.153227274	 0.0396957846	-0.312194
C	 0.0090509265	 0.0014401353	 0.0049170881	 0.265982
C	 0.0012711142	 1.4662927438	 0.0201751528	-0.117149
C	-0.7357703493	 1.9927542533	 1.2756952155	-0.08251
O	-0.7105839363	 3.4027444023	 1.2899250413	-0.24287
C	 0.6159128422	 3.915583156	 1.3020999169	-0.075921
C	 1.3842675194	 3.447170065	 0.0657679742	-0.169451
N	 1.3707914368	 1.9870769725	-0.090698941	-0.299759
H	-0.5544654528	 1.8158342087	-0.8604144041	 0.138568
H	-1.786487873	 1.6903330298	 1.2707585208	 0.12899
H	-0.2536121628	 1.5778985276	 2.1767214872	 0.09947
H	 0.524304117	 5.0053392986	 1.3297997308	 0.115795
H	 1.1375784366	 3.5872761191	 2.2178105051	 0.088255
H	 0.9261715678	 3.8870844993	-0.828935215	 0.120589
H	 2.4250472183	 3.783553715	 0.1044979361	 0.113671
H	 1.9468203806	 1.5577446378	 0.6292229368	 0.228532
113.6059	156.1196	249.2054	283.3898	388.8277	416.2347	456.928	538.5305	553.1603	577.6479	785.3812	839.4985	881.0782	934.5437	974.6881	1014.0963	1034.8896	1079.7575	1131.0522	1142.5115	1172.0245	1226.9721	1275.9456	1300.7657	1327.4193	1356.1635	1373.0789	1389.5752	1416.0053	1472.9267	1479.0412	1492.215	1494.6468	2363.2643	2959.3445	2971.541	3028.3057	3033.4955	3087.8171	3090.9737	3096.401	3495.503
N#CC1COCCN1	N#C[C@H]1COCCN1	
InChI=1S/C5H8N2O/c6-3-5-4-8-2-1-7-5/h5,7H,1-2,4H2	InChI=1S/C5H8N2O/c6-3-5-4-8-2-1-7-5/h5,7H,1-2,4H2/t5-/m0/s1
