12
gdb 128989	4.27156	1.70086	1.21648	4.4069	67.8	-0.244	-0.0825	0.1615	897.083	0.082694	-427.84313	-427.837568	-427.836624	-427.87312	21.652	
N	 0.0109554145	 1.2674017098	 0.0092295509	-0.05727
N	 1.1911354811	 1.8636911819	 0.0010335904	-0.296963
C	 2.0286502795	 0.8052299498	-0.0128594034	 0.276974
C	 3.4356338514	 0.6820486965	-0.0271426642	-0.046449
N	 4.0106575413	-0.4977521705	-0.039109932	-0.200979
N	 3.2678878299	-1.6490792446	-0.0381946734	-0.200979
C	 1.9559623076	-1.6115094141	-0.0253083611	-0.046449
C	 1.2637561365	-0.3803919592	-0.0119175537	 0.276976
N	-0.0458236664	-0.0536522146	 0.0024440823	-0.296964
H	-0.8384079087	 1.8153696669	 0.0204601811	 0.311164
H	 4.093748076	 1.5459058568	-0.0287783266	 0.14047
H	 1.4402025214	-2.5672069124	-0.0255543005	 0.14047
220.8703	237.1109	413.6564	448.4111	573.0479	625.7033	645.821	669.1469	740.075	822.1243	840.7036	929.624	938.1602	957.5405	980.1033	1012.6319	1183.0008	1214.4905	1275.1712	1286.8525	1305.1	1373.2123	1444.0262	1476.9959	1497.5843	1565.275	1630.507	3179.8294	3181.4423	3630.0552
N1N=C2C=NN=CC2=N1	[nH]1nc2cnncc2n1	
InChI=1S/C4H3N5/c1-3-4(2-6-5-1)8-9-7-3/h1-2H,(H,7,8,9)	InChI=1S/C4H3N5/c1-3-4(2-6-5-1)8-9-7-3/h1-2H,(H,7,8,9)
