21
gdb 113356	2.14602	1.18215	0.87928	2.4669	81.28	-0.2427	-0.0252	0.2175	1415.9727	0.179095	-424.219021	-424.208613	-424.207669	-424.254741	37.102	
C	-0.0601835787	 1.3476206055	-0.37111596	-0.37591
C	-0.1611208472	-0.0039799228	 0.3462447345	-0.19719
C	-1.5048148755	-0.6662788193	 0.1298059888	-0.030935
C	-1.7776334175	-1.4858806394	-1.0935451026	-0.340413
C	-1.645428986	-2.1815645301	 0.2546847029	 0.27722
O	-0.4934701238	-2.9015801744	 0.5617357093	-0.287274
C	-0.3513896812	-4.1098836983	-0.1682990807	-0.252855
C	-2.8868784805	-2.6716724829	 0.9136027917	 0.105736
O	-3.9901128102	-2.2171826435	 0.7233273842	-0.272158
H	 0.9156668657	 1.8110467701	-0.1967035016	 0.113995
H	-0.1911070689	 1.2318833567	-1.4520497713	 0.118103
H	-0.8283842045	 2.0439744085	-0.0178768834	 0.117939
H	 0.6310924621	-0.6760966066	 0.0030308751	 0.108455
H	 0.0024213111	 0.136158026	 1.4217419116	 0.104903
H	-2.362967678	-0.1280331555	 0.5247255828	 0.109204
H	-2.769902074	-1.465944412	-1.5300633713	 0.137042
H	-0.9556691993	-1.6386040463	-1.7852340759	 0.120963
H	 0.5681385771	-4.5835049373	 0.1821455143	 0.132867
H	-1.1926864641	-4.7953484285	 0.0050625622	 0.114328
H	-0.2736170876	-3.9240687317	-1.2480129591	 0.114165
H	-2.7067921189	-3.4963803984	 1.6394443187	 0.081814
64.8984	104.6959	120.0671	139.6482	168.9826	197.9638	237.1818	246.7955	286.9492	312.9934	401.4219	443.9461	596.288	607.9343	712.0908	777.2945	803.4067	860.9978	939.5073	951.4248	976.8044	1038.6223	1054.7483	1071.4425	1092.2833	1104.2715	1134.1832	1181.5561	1199.9999	1215.818	1251.199	1282.4902	1292.1182	1349.7363	1404.9564	1410.15	1417.3038	1458.2685	1481.8674	1488.5591	1488.7594	1497.1618	1506.6275	1509.1157	1808.8037	2883.2812	2996.5332	3032.8864	3035.8097	3051.2523	3078.8125	3104.5951	3106.8118	3125.3569	3132.0677	3146.0221	3228.917
CCC1CC1(OC)C=O	CC[C@H]1C[C@]1(OC)C=O	
InChI=1S/C7H12O2/c1-3-6-4-7(6,5-8)9-2/h5-6H,3-4H2,1-2H3	InChI=1S/C7H12O2/c1-3-6-4-7(6,5-8)9-2/h5-6H,3-4H2,1-2H3/t6-,7-/m0/s1
