14
gdb 28278	5.41987	1.29682	1.05328	1.4732	70.96	-0.2158	-0.0184	0.1974	1068.4017	0.102762	-436.718233	-436.711455	-436.710511	-436.749492	25.948	
C	-0.016978862	 1.4613057246	 0.0817063369	-0.49408
C	-0.0075163827	-0.0144509862	-0.0697293249	 0.349604
N	-0.1040400184	-0.7018785678	-1.1576635705	-0.384391
C	-0.0386348115	-2.0279053494	-0.7227857001	 0.182532
C	-0.0555483723	-3.3331119188	-1.1100018436	-0.108206
O	 0.0675135986	-4.1104283407	 0.0080168582	-0.156649
C	 0.1641551626	-3.3121247821	 1.1224346456	-0.149507
C	 0.1009758429	-2.0317812782	 0.6892543922	 0.247724
O	 0.1217623323	-0.7361271827	 1.1166676705	-0.250349
H	 0.9096687973	 1.8067432139	 0.5513193803	 0.153097
H	-0.1202004243	 1.9217126332	-0.9003653271	 0.161831
H	-0.8466585212	 1.7777136798	 0.7221239098	 0.153115
H	-0.1387956194	-3.8607008826	-2.0436172319	 0.147544
H	 0.2657238882	-3.817305353	 2.0653140746	 0.147736
115.6624	152.29	288.4706	343.1178	362.6089	534.7072	580.3547	590.6045	655.2001	681.6495	726.0669	754.3735	769.2055	813.7427	900.4685	952.8688	1027.7187	1032.0678	1063.891	1139.2388	1174.4977	1242.7481	1262.3276	1308.6985	1408.1766	1425.5413	1471.8011	1474.1132	1589.4285	1660.2342	1689.7796	3047.9938	3103.7242	3165.7067	3294.4355	3303.5768
CC1=NC2=COC=C2O1	Cc1nc2cocc2o1	
InChI=1S/C6H5NO2/c1-4-7-5-2-8-3-6(5)9-4/h2-3H,1H3	InChI=1S/C6H5NO2/c1-4-7-5-2-8-3-6(5)9-4/h2-3H,1H3
