21
gdb 115808	3.91488	1.08918	0.96896	1.0595	78.99	-0.2286	0.0823	0.3108	1302.3924	0.181608	-424.207049	-424.19792	-424.196976	-424.24083	34.44	
C	-0.2390565623	 1.2985479876	 0.0675298594	-0.237755
O	 0.1328608307	-0.0530612201	-0.0826087884	-0.241029
C	 0.8216269323	-0.5799985245	 1.034775153	 0.106998
C	-0.1137125307	-0.8563108824	 2.2496097505	-0.127269
O	 0.3298002488	-2.058139229	 2.8622493211	-0.295064
C	 1.0588377276	-2.8128492646	 1.9142916555	 0.449318
C	 1.9789802062	-3.7993492701	 2.5730524303	-0.464888
C	 0.3938603156	-3.0771461265	 0.5889610538	-0.348672
C	 1.4007235357	-1.9433630081	 0.7364639879	-0.150817
H	 0.6331841134	 1.9396666151	 0.272592898	 0.104144
H	-0.6949331189	 1.6153144788	-0.8736696541	 0.128801
H	-0.9706814746	 1.4467521077	 0.8763626092	 0.107147
H	 1.6314374286	 0.1108023914	 1.3201459184	 0.067292
H	-0.0986088398	-0.0693517492	 3.0089285573	 0.106867
H	-1.1427406689	-0.9544801607	 1.8734763301	 0.102923
H	 1.4070749928	-4.5180045519	 3.169127849	 0.129117
H	 2.5482303513	-4.3550309691	 1.8231862833	 0.117555
H	 2.6814265836	-3.2883640487	 3.2391678719	 0.122761
H	 0.7211649008	-3.9495194247	 0.0336336694	 0.111211
H	-0.6513618876	-2.8253920281	 0.4505411041	 0.123094
H	 2.3565667756	-2.0045272728	 0.2301103503	 0.088267
82.7899	107.9656	175.537	202.9749	205.6833	239.3994	316.3197	356.3303	429.3971	437.9629	502.9888	610.8769	663.9662	717.5025	834.0442	843.9627	916.9309	930.4381	962.1018	984.9731	1000.4233	1033.3083	1055.2562	1093.6051	1102.5997	1123.7561	1126.4131	1154.7919	1183.0896	1225.9016	1238.1836	1246.9189	1277.7037	1332.5559	1350.4915	1394.5257	1402.1616	1431.9599	1477.3418	1480.3618	1485.3978	1492.2285	1505.7955	1509.4943	1520.3486	2966.8198	2974.2531	2996.5132	3018.181	3037.8273	3081.9048	3102.8981	3113.5526	3119.9334	3136.1199	3179.1351	3222.9768
COC1COC2(C)CC12	CO[C@H]1CO[C@@]2(C)C[C@@H]12	
InChI=1S/C7H12O2/c1-7-3-5(7)6(8-2)4-9-7/h5-6H,3-4H2,1-2H3	InChI=1S/C7H12O2/c1-7-3-5(7)6(8-2)4-9-7/h5-6H,3-4H2,1-2H3/t5-,6-,7-/m0/s1
