18
gdb 52445	9.53662	0.42593	0.42102	0.3771	75.34	-0.2873	-0.0008	0.2866	2410.3684	0.145971	-439.125522	-439.115427	-439.114483	-439.162917	33.518	
O	 0.2803700518	 0.0400631208	-0.3230186058	-0.268391
C	 0.2790281667	 1.2325647555	-0.3506877236	 0.17124
O	 0.8417302577	 1.9858166699	 0.6143916536	-0.174104
C	 0.8217712223	 3.4087915011	 0.4619889436	-0.095218
C	 2.2289114522	 3.930038183	 0.1881225374	-0.194603
C	 2.2725006181	 5.4591353716	 0.1165525465	-0.188809
C	 3.699417802	 5.9791086373	-0.1480648095	-0.341313
C	 3.7568090186	 7.4372875286	-0.2225518207	 0.257877
N	 3.7802716011	 8.5911044721	-0.2784626059	-0.298396
H	-0.18179014	 1.8414214968	-1.1542754335	 0.077623
H	 0.1335812461	 3.6916186657	-0.3459538675	 0.114752
H	 0.4272019261	 3.8186703566	 1.3971223686	 0.131106
H	 2.8946245545	 3.567209962	 0.9800049448	 0.125763
H	 2.5930935596	 3.4966590238	-0.7518865422	 0.113499
H	 1.6088595251	 5.8222286748	-0.6764847884	 0.1263
H	 1.9039929727	 5.8920375132	 1.0533914274	 0.128611
H	 4.378511116	 5.6433008535	 0.6442279619	 0.157622
H	 4.0859639893	 5.5671202837	-1.0875575665	 0.156441
32.2463	43.2242	91.8502	105.4183	126.6511	155.0995	228.4146	304.7384	376.1619	398.6321	428.794	556.8666	679.4121	740.1624	789.9939	918.8114	935.5615	1010.7093	1042.2497	1047.4991	1056.9491	1083.4148	1122.8571	1154.8799	1242.7142	1260.0511	1299.001	1328.524	1337.2245	1341.6449	1395.3237	1411.9561	1436.0348	1469.0141	1488.8576	1499.1652	1514.4078	1870.804	2364.9369	2937.1215	3017.7946	3028.8082	3036.6351	3046.7233	3061.3484	3071.2549	3085.6635	3098.3081
O=COCCCCC#N	O=COCCCCC#N	
InChI=1S/C6H9NO2/c7-4-2-1-3-5-9-6-8/h6H,1-3,5H2	InChI=1S/C6H9NO2/c7-4-2-1-3-5-9-6-8/h6H,1-3,5H2
