23
gdb 121938	3.74066	0.67097	0.60052	1.6829	83.37	-0.2523	0.0872	0.3395	1929.4716	0.202789	-425.401672	-425.390752	-425.389807	-425.439147	38.324	
C	 0.0803654449	 1.5635155033	-0.1623835019	-0.3831
C	 0.0233837778	 0.0447641206	 0.0184259631	-0.180093
C	-1.3914524605	-0.5038595987	-0.1133645429	-0.036822
O	-1.3469442832	-1.9053943254	 0.0690267343	-0.267717
C	-2.6085881173	-2.5524649716	 0.1233437015	 0.116497
C	-3.2810536694	-2.6694243739	-1.247264215	-0.412816
C	-2.3388239953	-3.9217425809	 0.7111729534	 0.085716
C	-2.5441126111	-4.2136499791	 2.1315735037	-0.180514
O	-3.4890507088	-4.6458286187	 1.1460361273	-0.240488
H	 1.1051012491	 1.9327321377	-0.0633027907	 0.117889
H	-0.2855875886	 1.8628355647	-1.1507701449	 0.116561
H	-0.5314262277	 2.0784434921	 0.5866691673	 0.116076
H	 0.6584056502	-0.4509429128	-0.7247717862	 0.106946
H	 0.4156144337	-0.237840657	 1.0019899051	 0.105141
H	-2.0521207953	-0.0439663847	 0.6422086724	 0.081858
H	-1.8035520214	-0.2436498804	-1.1015028227	 0.088097
H	-3.2796603762	-2.0105045288	 0.8106016296	 0.066251
H	-2.6149680386	-3.1745961436	-1.9543481002	 0.120941
H	-4.2018687772	-3.2523364053	-1.1546212394	 0.136914
H	-3.539204286	-1.689153946	-1.6566406311	 0.116699
H	-1.6071100825	-4.5133097082	 0.1583963976	 0.096564
H	-1.9741587202	-5.0079850769	 2.6108054575	 0.116223
H	-2.8920862364	-3.4238760464	 2.7960151022	 0.113178
44.5864	49.0948	84.2573	108.0295	145.3039	203.8371	230.3533	234.7154	297.231	316.0302	338.649	452.3528	499.8585	547.2689	765.1799	814.837	872.6451	894.3494	902.1231	911.9064	954.0368	968.4269	1042.0432	1063.1201	1103.1686	1116.7321	1140.8801	1154.4979	1157.0883	1171.298	1191.8143	1208.0424	1268.9047	1284.5367	1313.5914	1317.4099	1337.1324	1359.8113	1397.6086	1412.6307	1433.6932	1456.944	1491.5257	1494.7771	1497.6467	1501.2644	1507.5152	1527.5048	1531.5088	2951.0605	2966.7383	2987.8802	3031.887	3039.2434	3041.6465	3072.2106	3084.6117	3100.3206	3101.68	3108.4739	3116.0327	3122.3875	3172.3558
CCCOC(C)C1CO1	CCCO[C@@H](C)[C@H]1CO1	
InChI=1S/C7H14O2/c1-3-4-8-6(2)7-5-9-7/h6-7H,3-5H2,1-2H3	InChI=1S/C7H14O2/c1-3-4-8-6(2)7-5-9-7/h6-7H,3-5H2,1-2H3/t6-,7+/m0/s1
