17
gdb 52227	3.72502	0.86652	0.76888	1.589	71.73	-0.256	-0.0085	0.2476	1443.0018	0.135237	-455.156848	-455.147597	-455.146653	-455.192645	31.786	
O	 0.4166177802	 1.1154085833	 1.1710509171	-0.322813
C	 0.2613062172	 1.5405287022	 0.0456443163	 0.155698
N	 1.2010731715	 1.4724269205	-0.935234257	-0.269273
C	 2.5003456785	 0.8561675866	-0.7049759233	-0.197046
C	 3.4817536081	 1.7626837198	 0.0126115357	-0.008511
C	 4.9568293454	 1.5945528037	-0.2293436291	-0.249435
N	 4.2521589503	 2.7529227257	-0.7222389392	-0.053415
C	 4.1289199438	 3.0987465962	-2.0527743724	 0.130186
O	 4.9936935784	 2.9815524416	-2.8867811682	-0.285991
H	-0.671905725	 2.0256520964	-0.3007501488	 0.085215
H	 0.9974750861	 1.8775851612	-1.8344085019	 0.256089
H	 2.3414833392	-0.0338608854	-0.0883753952	 0.151554
H	 2.9103101421	 0.5400507735	-1.6690291518	 0.123172
H	 3.1499909414	 2.0839409277	 0.9967190847	 0.133575
H	 5.6584308381	 1.7683266229	 0.5810231257	 0.136544
H	 5.2748043945	 0.8630292638	-0.9689050542	 0.138009
H	 3.1507983603	 3.5774327603	-2.2580446785	 0.076441
29.5099	64.1401	95.4833	160.3878	201.0407	246.139	275.6002	347.3754	408.5884	476.3081	529.5585	617.8155	772.2464	806.1351	867.8481	929.4557	985.0771	1016.1264	1033.5315	1038.5925	1100.208	1105.0543	1137.2871	1148.1791	1182.7294	1215.4391	1294.2798	1365.2071	1385.5215	1413.806	1425.2244	1440.1593	1456.8799	1513.395	1521.6164	1797.9086	1802.3356	2935.6366	2948.0506	3055.0292	3106.691	3111.9626	3153.6234	3201.7393	3643.4382
O=CNCC1CN1C=O	O=CNC[C@H]1CN1C=O	
InChI=1S/C5H8N2O2/c8-3-6-1-5-2-7(5)4-9/h3-5H,1-2H2,(H,6,8)	InChI=1S/C5H8N2O2/c8-3-6-1-5-2-7(5)4-9/h3-5H,1-2H2,(H,6,8)/t5-,7?/m0/s1
