18
gdb 69738	3.43151	1.58744	1.38033	1.9937	74.36	-0.245	0.021	0.266	979.4898	0.149506	-401.935206	-401.928025	-401.927081	-401.966534	28.736	
C	-0.0198676888	 1.5482891172	 0.028872765	-0.506777
C	 0.0273413156	 0.0468133028	 0.0051478805	 0.348311
C	-0.8668992	-0.8240299621	 0.8413160512	-0.34599
C	 0.6145965805	-0.9614249635	 1.0292951672	-0.095738
C	 1.2391510652	-1.7822852917	-0.1178937957	-0.023822
N	 0.6289674068	-3.0726833005	-0.4620510931	-0.262979
C	-0.1319786154	-2.825878298	-1.4489018443	 0.103064
O	-0.2231227901	-1.5668885259	-1.9654473607	-0.230785
C	 0.6538003704	-0.7690838622	-1.1344854072	 0.005004
H	 0.9397495167	 1.9865847391	-0.268673744	 0.117865
H	-0.7866294115	 1.9313251118	-0.6551827665	 0.128445
H	-0.2582883354	 1.9175935686	 1.0314209791	 0.121846
H	-1.3756075922	-0.2924758936	 1.6397937067	 0.113798
H	-1.455311565	-1.6272286316	 0.409000696	 0.127989
H	 1.0975003059	-0.7593087768	 1.9779519705	 0.09031
H	 2.3260407959	-1.8628626274	-0.0592032018	 0.084915
H	-0.7526243809	-3.5548510334	-1.9599117807	 0.136584
H	 1.3324268923	-0.2102674428	-1.7808002522	 0.087957
139.686	194.2816	240.626	254.9367	327.5919	453.3976	487.5618	560.1632	635.0323	710.9125	780.7052	808.906	857.5264	887.6734	915.7996	942.207	950.3169	964.0158	982.4919	1000.8767	1004.4826	1063.6933	1076.9974	1087.8373	1107.6184	1117.2031	1212.9535	1235.9119	1258.0112	1289.0154	1304.1155	1326.3336	1347.5732	1401.0922	1423.3662	1485.4743	1498.4023	1505.0593	1672.4765	3021.5498	3079.8982	3090.0572	3098.2051	3103.1153	3125.9884	3183.2064	3204.928	3206.3692
CC12CC1C1N=COC21	C[C@]12C[C@H]1[C@H]1N=CO[C@@H]21	
InChI=1S/C7H9NO/c1-7-2-4(7)5-6(7)9-3-8-5/h3-6H,2H2,1H3	InChI=1S/C7H9NO/c1-7-2-4(7)5-6(7)9-3-8-5/h3-6H,2H2,1H3/t4-,5+,6+,7-/m0/s1
