12
gdb 43559	2.18412	1.65529	1.06439	5.1978	65.09	-0.3164	-0.0371	0.2793	1058.3399	0.077431	-431.669526	-431.661721	-431.660777	-431.702647	27.285	
N	-0.1142758912	 1.2295627319	-0.4901391394	-0.508564
C	-0.037823547	 0.0619880696	-0.0714330014	 0.464891
O	 1.028916467	-0.6927192949	 0.3888109366	-0.240137
C	 0.1862829033	-1.8486757189	 0.6574513688	-0.029109
C	 0.1823897483	-2.2228504476	 2.0651077398	 0.317655
N	 0.1859155858	-2.5448548587	 3.1738915233	-0.293694
C	-1.0542366971	-1.0695408238	 0.0993299952	-0.325638
C	-2.1878729566	-0.8348146369	 0.9723785571	 0.32241
N	-3.0949378686	-0.6557842722	 1.6639885272	-0.300158
H	 0.7804567298	 1.7196667731	-0.4781270085	 0.255188
H	 0.4887639144	-2.6992666548	 0.0422779445	 0.160884
H	-1.3941314482	-1.4699478668	-0.8589275933	 0.176269
70.1906	103.4606	146.9942	210.9181	273.877	394.7296	452.4865	465.2066	522.5992	601.3826	659.1697	775.8174	802.1815	866.7829	923.401	952.9042	992.6697	1048.0096	1105.3376	1165.0434	1191.0433	1282.6592	1318.5904	1367.2582	1856.0172	2370.9666	2373.7973	3091.79	3100.3611	3502.6774
N=C1OC(C#N)C1C#N	[NH][C]1O[C@@H](C#N)[C@H]1C#N	
InChI=1S/C5H3N3O/c6-1-3-4(2-7)9-5(3)8/h3-4,8H	InChI=1S/C5H3N3O/c6-1-3-4(2-7)9-5(3)8/h3-4,8H/t3-,4+/m1/s1
