23
gdb 62926	2.54266	1.54884	1.46632	1.6396	83.68	-0.2356	0.0778	0.3134	1079.2982	0.207451	-388.293072	-388.284536	-388.283592	-388.325491	34.573	
C	-0.1108458682	 1.6029999988	 0.0122635087	-0.476652
C	 0.0104093419	 0.0833346589	 0.00856268	 0.336011
C	-1.3669668861	-0.5643122096	-0.1628517088	-0.451238
C	 1.0672683844	-0.6186168154	-0.8919039454	 0.066207
C	 2.3709541027	 0.1719775255	-1.0204176523	-0.240364
C	 3.0519198968	 0.2881346504	 0.3724654521	-0.182295
C	 2.0638375277	 0.1411316281	 1.5638579269	-0.240364
C	 0.8287823507	-0.6425606068	 1.1148487982	 0.066207
O	 1.2466363234	-1.6392535128	 0.1349243334	-0.309912
H	 0.84597879	 2.1155097792	 0.1321640527	 0.118613
H	-0.5587960862	 1.9539797198	-0.9247878077	 0.11473
H	-0.7670299968	 1.9331143285	 0.8261163936	 0.114728
H	-1.831344501	-0.2506337412	-1.104899696	 0.107417
H	-1.285330863	-1.6539584389	-0.1661606413	 0.132996
H	-2.040039616	-0.2716015465	 0.6512664568	 0.107417
H	 0.7229096201	-1.0453187985	-1.8399667949	 0.065246
H	 3.0466887244	-0.3407560627	-1.712637577	 0.100239
H	 2.163890203	 1.1534640948	-1.4615874219	 0.098827
H	 3.783270171	-0.5190205702	 0.4497455517	 0.115639
H	 3.6155470888	 1.2224528385	 0.4505982958	 0.092236
H	 2.5599723887	-0.389652939	 2.382881728	 0.100239
H	 1.7564245035	 1.1125367669	 1.967208833	 0.098827
H	 0.2730358902	-1.0904864277	 1.9455045643	 0.065246
109.3482	187.2575	234.4583	251.5291	255.4038	318.7728	351.029	396.2253	431.4835	454.4045	582.7697	614.6411	697.8507	763.9349	811.6327	853.6075	873.547	888.1858	930.6536	952.9098	966.4718	977.8638	994.5421	1015.7471	1046.1107	1081.0119	1089.6847	1138.9968	1192.0297	1209.5859	1229.4105	1247.0122	1261.2624	1267.0454	1319.3662	1334.6432	1344.1146	1356.7767	1376.2595	1384.4917	1398.4744	1423.6088	1480.4167	1482.5229	1487.8791	1499.9246	1503.0956	1510.4763	1520.98	3024.0752	3030.4705	3035.9397	3037.0364	3051.2261	3053.9345	3062.8241	3070.3923	3074.7765	3081.857	3086.981	3107.3004	3120.9834	3123.0286
CC1(C)C2CCCC1O2	CC1(C)[C@H]2CCC[C@@H]1O2	
InChI=1S/C8H14O/c1-8(2)6-4-3-5-7(8)9-6/h6-7H,3-5H2,1-2H3	InChI=1S/C8H14O/c1-8(2)6-4-3-5-7(8)9-6/h6-7H,3-5H2,1-2H3/t6-,7+
