19
gdb 82993	3.58035	1.55465	1.46329	1.5127	73.21	-0.2314	0.0727	0.304	952.4221	0.162917	-423.013982	-423.00729	-423.006346	-423.044663	28.243	
O	 0.0153501035	 1.4694813968	-0.0740145599	-0.436187
C	 0.0160564004	 0.0668794828	 0.0378514136	 0.128194
C	 0.151534613	-0.6133817522	 1.4379195822	-0.140535
C	-0.9141791169	 0.1558871278	 2.2377912602	-0.206776
C	-2.1281625641	-0.114495195	 1.2917143101	-0.050697
C	-2.7651720533	-1.4239097955	 1.7636874604	-0.082683
O	-1.6900482878	-2.3739609086	 1.6482214163	-0.282431
C	-0.7200336679	-1.7686859963	 0.8159365346	 0.144284
C	-1.3613582046	-0.6016604024	 0.0216168222	-0.092506
H	 0.9248750938	 1.7794948104	-0.0198093674	 0.283993
H	 0.6854817862	-0.3912900045	-0.7024291454	 0.067838
H	 1.121727553	-0.7925967771	 1.9024436568	 0.055725
H	-1.0728146492	-0.2483988026	 3.2405963135	 0.096372
H	-0.6691956267	 1.2165113732	 2.3113898061	 0.102686
H	-2.82165876	 0.7147188453	 1.157526918	 0.074338
H	-3.0990784148	-1.3904478038	 2.8063461933	 0.103035
H	-3.6115690123	-1.7369477953	 1.1337526801	 0.088824
H	-0.171978777	-2.5327344987	 0.2650919507	 0.079862
H	-1.9381111153	-0.7478976343	-0.8910219757	 0.066667
199.6325	261.9664	274.6518	288.8893	414.1282	481.1806	534.768	643.0815	707.604	755.8996	781.3406	812.5082	840.7415	873.4809	903.8357	940.4717	962.5543	972.8029	992.1434	1009.9633	1021.9785	1057.6917	1081.2043	1107.3868	1148.5276	1157.9904	1175.983	1191.9809	1206.5402	1214.7538	1237.6628	1265.7102	1280.1363	1302.737	1322.5569	1340.6025	1345.7223	1390.1316	1443.8167	1490.6976	1523.7333	2988.1249	3013.265	3064.1022	3069.7429	3107.9666	3116.3761	3119.9303	3125.0957	3131.2685	3817.2811
OC1C2CC3COC2C13	O[C@H]1[C@H]2C[C@@H]3CO[C@H]2[C@H]13	
InChI=1S/C7H10O2/c8-6-4-1-3-2-9-7(4)5(3)6/h3-8H,1-2H2	InChI=1S/C7H10O2/c8-6-4-1-3-2-9-7(4)5(3)6/h3-8H,1-2H2/t3-,4-,5+,6+,7-/m1/s1
