18
gdb 109133	4.13452	1.04739	0.89481	4.7041	77.22	-0.2303	0.0162	0.2465	1308.531	0.14905	-435.283443	-435.274667	-435.273723	-435.317178	32.08	
C	 0.1205987745	 1.459242796	 0.1513837018	-0.313899
N	-0.0510171933	 0.0308088618	-0.0519408526	-0.345058
C	 0.5252594034	-0.5843829179	-1.1301596442	 0.376831
N	 1.1221392033	 0.0756222261	-2.0474165347	-0.300617
C	 1.5544946346	-0.7223997613	-3.1898857766	-0.253242
C	 2.1195287927	-2.07413936	-2.8162162156	 0.39009
N	 3.1124172803	-2.5823018244	-3.4122567576	-0.516299
O	 1.503453709	-2.708800366	-1.7716899859	-0.237838
C	 0.3481118085	-2.0852363026	-1.2165310459	-0.183712
H	 1.1657388814	 1.7327109774	 0.3454511535	 0.131756
H	-0.196290791	 1.9909648942	-0.7481601823	 0.154159
H	-0.4991816662	 1.7738440204	 0.9938038293	 0.12004
H	-0.1694056256	-0.5317396642	 0.7748647729	 0.243098
H	 0.7115997132	-0.876984272	-3.8840641874	 0.120532
H	 2.3216600753	-0.1872020113	-3.7504423262	 0.143137
H	 3.3300479316	-3.5004520983	-3.0184194017	 0.216538
H	 0.1967240624	-2.5477612306	-0.2369340025	 0.120392
H	-0.535594244	-2.3120951572	-1.8311801743	 0.134093
68.1859	130.6092	136.4922	188.3128	218.5652	277.303	384.0396	406.2365	428.6758	480.0505	536.0212	596.0288	627.2395	784.9102	811.6579	886.8061	911.8735	987.5372	1010.0737	1028.8309	1071.5383	1097.5437	1150.7936	1153.1089	1205.4043	1228.2187	1253.1783	1298.0748	1326.0849	1342.2836	1425.3898	1452.026	1475.0371	1480.5082	1494.1819	1506.5538	1548.7236	1724.898	1758.3076	2970.1916	3001.2433	3022.4811	3084.5322	3099.5761	3120.9582	3140.4822	3457.5451	3637.0531
CNC1=NCC(=N)OC1	CN[C]1[N]C[C]([NH])OC1	
InChI=1S/C5H9N3O/c1-7-5-3-9-4(6)2-8-5/h6H,2-3H2,1H3,(H,7,8)	InChI=1S/C5H9N3O/c1-7-5-3-9-4(6)2-8-5/h6H,2-3H2,1H3,(H,7,8)
