21
gdb 72931	2.60816	1.70722	1.46049	1.6314	80.9	-0.2374	0.0716	0.309	1020.226	0.183573	-387.039432	-387.031598	-387.030654	-387.071644	31.53	
C	-0.2439382378	 1.4672977975	-0.0005679425	-0.500907
C	 0.0528970765	-0.0154608916	 0.0326798352	 0.354103
C	-1.1332401977	-1.0096322172	 0.1913415183	-0.283355
C	-0.4249480291	-1.6642573287	 1.4183616181	-0.234164
C	 0.795398979	-0.723893723	 1.228863445	-0.083188
C	 1.9493444604	-1.1537985997	 0.2658630243	-0.087927
C	 1.7991091691	-2.4515763056	-0.5464544947	-0.092043
O	 0.9981716571	-1.7840395215	-1.5554287906	-0.290943
C	 1.1954443129	-0.5022491853	-0.9210637773	 0.05956
H	 0.6755571877	 2.0642977775	 0.0306563063	 0.11182
H	-0.7827817291	 1.7379105684	-0.9173574241	 0.119516
H	-0.8635550512	 1.7688364027	 0.8513542812	 0.11376
H	-2.0800011026	-0.520110933	 0.434092566	 0.092173
H	-1.2814806565	-1.6661154418	-0.6669531548	 0.117668
H	-0.9443248659	-1.4789047388	 2.3619247345	 0.098363
H	-0.2331161082	-2.7379774965	 1.3534364777	 0.098799
H	 1.1289627092	-0.1706078328	 2.1091614823	 0.061824
H	 2.9568605062	-0.8721380297	 0.5704069382	 0.074449
H	 2.7423959063	-2.8151361575	-0.9738721416	 0.1003
H	 1.2721052317	-3.294620014	-0.0863781366	 0.105167
H	 1.614359782	 0.2397181908	-1.6097266449	 0.065026
67.0605	218.0946	223.2114	255.3578	305.2855	307.6079	450.6943	471.9655	584.4055	653.2411	720.7681	768.6011	817.5899	830.6833	863.4738	888.7967	923.236	930.0941	952.2774	961.3429	1000.0726	1010.1858	1035.6009	1077.6261	1121.0375	1137.2713	1156.6286	1160.819	1182.5352	1205.816	1224.1584	1228.4223	1259.3358	1268.6876	1272.2856	1298.1302	1318.3462	1346.1274	1365.7776	1408.1019	1465.774	1486.1221	1489.1499	1492.0393	1526.7773	3013.2154	3014.3834	3043.3015	3057.4835	3064.024	3066.6129	3076.0641	3080.2439	3085.6267	3103.3315	3112.7576	3131.6412
CC12CCC1C1COC21	C[C@]12CC[C@H]1[C@H]1CO[C@@H]21	
InChI=1S/C8H12O/c1-8-3-2-6(8)5-4-9-7(5)8/h5-7H,2-4H2,1H3	InChI=1S/C8H12O/c1-8-3-2-6(8)5-4-9-7(5)8/h5-7H,2-4H2,1H3/t5-,6+,7-,8+/m1/s1
