16
gdb 126350	3.0685	1.33063	0.95434	5.2458	76.2	-0.2457	-0.0653	0.1804	1200.5666	0.125094	-430.229921	-430.221672	-430.220728	-430.26364	29.933	
C	-0.1333374397	 1.5407522977	 0.1261192978	-0.372721
C	 0.0597296969	 0.031361723	-0.010363577	-0.299587
C	 0.7820044623	-0.37458734	-1.2691327696	 0.419167
N	 1.1382326548	 0.4677265397	-2.1699360217	-0.295987
C	 1.8124468049	-0.0637218456	-3.2691939913	 0.386785
N	 2.5779040192	 0.6445696723	-3.9925308738	-0.481258
N	 1.5758260911	-1.4521583623	-3.5972759831	-0.199608
N	 1.2291646043	-2.2438957014	-2.6976428868	-0.043981
N	 1.0341869329	-1.7210858921	-1.4311830004	-0.289773
H	 0.8280844972	 2.0587130558	 0.1259187816	 0.145544
H	-0.7172987469	 1.9363947225	-0.7072156226	 0.145367
H	-0.6549734965	 1.7668551632	 1.0597341215	 0.115832
H	 0.6243650068	-0.365906799	 0.8444880878	 0.131651
H	-0.909224414	-0.4867178151	 0.0080724526	 0.130299
H	 2.933504412	 0.0657774413	-4.7563947924	 0.23173
H	 0.6425442447	-2.40364177	-0.7993757526	 0.27654
46.0764	102.7435	155.4623	184.8348	230.9882	397.1794	420.4322	497.1148	565.1779	578.0578	604.5872	627.4084	738.1148	790.2119	814.0547	881.7726	920.1496	960.0466	1005.4727	1035.3465	1087.9851	1105.4831	1136.6981	1218.1951	1287.7978	1323.4962	1381.211	1418.1922	1422.4515	1466.727	1490.3639	1499.1475	1612.489	1693.8561	1728.6671	3014.3239	3042.3614	3058.7576	3132.4853	3141.3709	3469.8386	3622.5777
CCC1=NC(=N)N=NN1	CCC1=N[C@H]([NH])N=NN1	
InChI=1S/C4H7N5/c1-2-3-6-4(5)8-9-7-3/h2H2,1H3,(H2,5,6,7,8)	InChI=1S/C4H8N5/c1-2-3-6-4(5)8-9-7-3/h4-5H,2H2,1H3,(H,6,7,8)/t4-/m0/s1
