19
gdb 73526	2.73007	1.72237	1.34454	1.6071	82.33	-0.2359	0.0086	0.2445	1014.4276	0.160936	-385.907986	-385.900372	-385.899428	-385.939599	30.989	
O	 0.2496272706	 1.42969393	-0.1302483746	-0.48074
C	 0.1178729925	-0.0031542541	-0.0395118591	 0.33216
C	 0.5738634539	-0.5516454189	-1.400897697	-0.260449
C	-0.7426536817	-0.6267562462	-2.2253760862	-0.250132
C	-1.8026784072	-0.8085553456	-1.1527119483	-0.230467
C	-1.327866392	-0.4824370959	 0.0451115155	 0.313919
C	-1.7051118362	-0.7206043339	 1.4822238605	-0.395765
C	-0.3221134916	-0.8365332079	 2.1148104433	-0.073323
C	 0.6674163096	-0.4971223621	 1.2807111846	-0.168113
H	-0.0953911752	 1.8030775702	 0.6881407963	 0.269047
H	 1.3396465675	 0.0822632299	-1.8533947947	 0.105161
H	 0.9832665189	-1.5586834611	-1.2765414984	 0.101798
H	-0.9062243468	 0.2902670403	-2.8063022264	 0.116715
H	-0.7378107955	-1.4547656144	-2.9427156344	 0.098425
H	-2.7927768005	-1.198164826	-1.3663058807	 0.089736
H	-2.2775386965	 0.1003531521	 1.9389803125	 0.114887
H	-2.3103294352	-1.6245317851	 1.6164139679	 0.1206
H	-0.1889956865	-1.1571515942	 3.1428952122	 0.09829
H	 1.7224872418	-0.4773119374	 1.5302021272	 0.098252
123.3314	207.2427	250.6234	272.596	317.2583	371.9727	452.9345	484.8241	590.5778	621.4551	666.1578	724.6737	759.8824	804.5798	827.0357	867.3578	915.9391	929.089	954.6582	968.2399	981.485	999.7476	1012.5248	1076.3244	1104.3966	1130.2068	1157.445	1191.5938	1197.9187	1228.0008	1261.4654	1291.1086	1310.3772	1329.3419	1355.9212	1390.8132	1471.4856	1473.4479	1488.7986	1650.972	1741.5303	2998.3562	3023.7865	3054.7895	3055.3945	3067.6348	3116.0521	3179.4324	3182.1423	3205.4813	3804.2435
OC12CCC=C1CC=C2	O[C@]12CCC=C1CC=C2	
InChI=1S/C8H10O/c9-8-5-1-3-7(8)4-2-6-8/h1,4-5,9H,2-3,6H2	InChI=1S/C8H10O/c9-8-5-1-3-7(8)4-2-6-8/h1,4-5,9H,2-3,6H2/t8-/m1/s1
