16
gdb 85494	2.51971	1.40049	1.07392	3.0903	70.48	-0.2468	0.0103	0.2571	1118.9756	0.124043	-437.89098	-437.882551	-437.881607	-437.924128	31.935	
O	 0.4923278415	 0.7885214497	-0.8737627464	-0.427128
C	 0.1018942868	-0.2458341062	-0.0164318617	 0.13279
C	 0.3304849636	-0.025002041	 1.4877649746	-0.366943
C	-0.7178482769	-0.9072051355	 2.167152207	 0.410152
O	-0.7754736212	-1.2374032041	 3.3275174083	-0.366658
N	-1.6185366969	-1.2747803996	 1.188737325	-0.286216
C	-1.4275650088	-0.6070379586	-0.0887853224	-0.233619
C	-2.2518534661	 0.5952303926	-0.2520474191	 0.323273
C	-2.8905377185	 1.6066732392	-0.380976626	-0.446608
H	-0.1110184539	 1.5309697379	-0.7376255598	 0.284888
H	 0.6548291528	-1.1313284653	-0.3430279275	 0.112794
H	 1.3372461345	-0.2702876849	 1.8272147163	 0.138152
H	 0.1286929677	 1.0184303025	 1.7583809303	 0.133187
H	-2.4959291776	-1.6979865565	 1.4519438865	 0.257279
H	-1.6177093008	-1.289737428	-0.9233969149	 0.122168
H	-3.4815774362	 2.4827695678	-0.4933256403	 0.212488
80.7262	114.6771	144.4882	251.0298	313.7841	385.9704	393.2065	474.4236	500.8015	513.3406	524.5755	613.27	647.3099	663.6218	672.1295	722.894	827.0446	863.9407	930.4675	1008.8691	1074.3948	1085.1302	1136.5857	1145.954	1210.6313	1241.565	1274.8515	1323.4269	1357.0414	1369.064	1415.7978	1441.4933	1463.3902	1841.9226	2223.9332	3049.7444	3053.0422	3076.7821	3133.8381	3497.2816	3625.7264	3760.5069
OC1CC(=O)NC1C#C	O[C@H]1CC(=O)N[C@H]1C#C	
InChI=1S/C6H7NO2/c1-2-4-5(8)3-6(9)7-4/h1,4-5,8H,3H2,(H,7,9)	InChI=1S/C6H7NO2/c1-2-4-5(8)3-6(9)7-4/h1,4-5,8H,3H2,(H,7,9)/t4-,5-/m0/s1
