14
gdb 33556	2.18897	1.67708	1.21693	1.607	73.64	-0.2634	0.0036	0.267	1036.9137	0.099004	-399.475279	-399.466944	-399.466	-399.508772	30.588	
C	 0.1106904808	-1.1322265037	 0.0722604414	-0.453968
C	 0.0477348151	 0.0645678996	 0.0020144922	 0.337255
C	-0.0412172297	 1.5281816472	-0.0367779998	-0.111514
C	-0.6187882775	 2.1073271234	 1.3142170035	-0.146001
O	 0.4473733895	 2.9275917742	 1.8299153791	-0.213308
C	 1.4524923148	 2.8336301298	 0.9345097734	 0.128226
N	 1.3315467976	 2.1228512658	-0.1079982376	-0.269285
C	-0.8365747356	 1.9631564749	-1.1899449362	 0.337219
C	-1.5080176544	 2.3433353696	-2.1096437265	-0.453949
H	 0.172561561	-2.1917422216	 0.1165250578	 0.204712
H	-1.4969204087	 2.7329874911	 1.150295323	 0.141256
H	-0.8392521338	 1.3207905317	 2.0368453434	 0.141258
H	 2.3361900842	 3.4069793715	 1.192211452	 0.153388
H	-2.0914619433	 2.6695140665	-2.9352108058	 0.204712
43.742	123.3439	171.034	171.9866	244.2549	413.3208	465.9168	502.4501	552.0613	570.022	587.6785	643.6039	645.7776	656.0177	656.5098	783.1084	870.4077	934.2178	967.7127	972.6317	1002.8459	1088.3126	1152.068	1173.1223	1242.3396	1315.783	1365.3516	1509.5127	1697.0263	2241.8189	2245.8167	3083.9322	3146.5247	3217.6364	3499.4927	3500.1567
C#CC1(COC=N1)C#C	C#CC1(COC=N1)C#C	
InChI=1S/C7H5NO/c1-3-7(4-2)5-9-6-8-7/h1-2,6H,5H2	InChI=1S/C7H5NO/c1-3-7(4-2)5-9-6-8-7/h1-2,6H,5H2
