15
gdb 26016	5.1261	1.00298	0.83959	1.3982	69.55	-0.1967	0.0318	0.2285	1285.3558	0.115559	-450.206978	-450.198989	-450.198044	-450.23991	29.963	
N	-0.190416744	 1.4124468136	 0.1167690635	-0.573404
C	 0.0908594995	 0.0524984079	 0.0364829655	 0.452289
O	 1.2266383759	-0.3856514479	 0.0163624839	-0.385633
N	-1.0304492336	-0.7432338229	 0.0248539786	-0.450902
C	-1.0106640518	-2.1369668063	 0.0068350581	 0.367974
C	 0.0456428273	-3.010639606	-0.0551525998	-0.172925
N	-0.5522295609	-4.2596068498	-0.0511942314	-0.235891
C	-1.8944066098	-4.0791971927	 0.0134983557	 0.015956
N	-2.2098654812	-2.8010864328	 0.0492511729	-0.339214
H	 0.6184203635	 1.9785683722	-0.0904224555	 0.261561
H	-1.0402805357	 1.7453390539	-0.3138553266	 0.248335
H	-1.9440834235	-0.3427776046	 0.1675544543	 0.25423
H	 1.1062714234	-2.8558296185	-0.0944216043	 0.159448
H	-0.0680512638	-5.1402888604	-0.0857754941	 0.267632
H	-2.5940527152	-4.9005351056	 0.0320611992	 0.130542
75.6849	92.5352	165.4177	336.5028	354.3004	372.0113	389.7572	492.5846	512.3603	549.73	626.7331	657.1825	693.9772	738.4456	769.3548	805.4942	813.1123	949.4237	982.094	1038.2707	1083.4574	1105.0489	1150.8053	1234.0141	1257.5685	1335.4855	1373.8402	1469.0279	1504.7378	1574.2264	1628.839	1629.8644	1796.6227	3259.5462	3332.8406	3573.5583	3638.5167	3674.1827	3687.5141
NC(=O)NC1=CNC=N1	NC(=O)Nc1c[nH]cn1	
InChI=1S/C4H6N4O/c5-4(9)8-3-1-6-2-7-3/h1-2H,(H,6,7)(H3,5,8,9)	InChI=1S/C4H6N4O/c5-4(9)8-3-1-6-2-7-3/h1-2H,(H,6,7)(H3,5,8,9)
