19
gdb 38800	3.09075	2.14224	1.77295	1.387	77.32	-0.2282	0.0819	0.3102	847.2205	0.163077	-385.836598	-385.830723	-385.829779	-385.866377	26.221	
C	-0.0337589773	 1.554316435	 0.1007707392	-0.24569
C	 1.5099860549	 1.4558107926	-0.0132970586	 0.093631
O	 2.0576946108	 1.3473696032	 1.2928171373	-0.277433
C	 1.8848704367	 0.0377696729	 1.8150839519	 0.093631
C	 2.9226532915	-0.9042051312	 1.1505892138	-0.245689
C	 1.8440172461	-1.1808828105	 0.0920445164	-0.034466
C	 1.3523702464	 0.0493412572	-0.733331605	-0.069912
C	-0.0398213229	 0.0227400712	-0.0207171283	-0.034467
C	 0.7183374814	-0.7631932845	 1.0945923522	-0.069911
H	-0.4114975433	 2.0336932873	 1.0075625977	 0.097148
H	-0.4894634789	 2.0149391188	-0.7818235367	 0.094971
H	 2.0559384776	 2.2439905371	-0.5351960441	 0.076371
H	 1.8596628763	 0.1177105886	 2.9034973493	 0.076371
H	 3.8677989917	-0.4376858003	 0.8610738953	 0.097148
H	 3.1172064339	-1.8001774994	 1.7490833684	 0.094971
H	 1.8248753707	-2.1211291637	-0.4631041907	 0.062234
H	 1.475737231	 0.0739438011	-1.8168918027	 0.064429
H	-0.9034970508	-0.5087208284	-0.425974069	 0.062234
H	 0.1861487742	-1.4693292373	 1.7333996837	 0.064429
230.3875	370.584	376.0167	458.5116	575.1196	588.4498	647.4924	709.0621	784.3245	791.7155	821.5847	827.7362	861.6723	893.8836	907.9096	933.7542	974.6589	979.3063	994.4051	1017.8019	1054.8879	1062.9106	1078.602	1104.8756	1123.8837	1130.9581	1176.4066	1196.3988	1199.1548	1214.8258	1238.3252	1254.4851	1263.7665	1289.4343	1291.664	1300.9218	1336.4019	1336.9603	1384.2847	1474.898	1476.9088	3044.9891	3045.2621	3079.9209	3081.2964	3086.7183	3088.8801	3100.3198	3106.1803	3106.3361	3107.4299
C1C2OC3CC4C2C1C34	C1[C@H]2O[C@@H]3C[C@@H]4[C@H]2[C@H]1[C@H]34	
InChI=1S/C8H10O/c1-3-7-4-2-6(8(3)4)9-5(1)7/h3-8H,1-2H2	InChI=1S/C8H10O/c1-3-7-4-2-6(8(3)4)9-5(1)7/h3-8H,1-2H2/t3-,4+,5+,6+,7+,8-/m0/s1
