20
gdb 119254	1.95565	1.13987	0.80859	2.1494	77.55	-0.2604	0.0217	0.2821	1457.4029	0.168823	-440.25966	-440.249608	-440.248663	-440.295485	36.007	
O	-1.8635357305	 1.3520703191	-1.3800317529	-0.423143
C	-1.841160371	-0.0674288298	-1.4017673383	-0.074095
C	-1.6272349132	-0.5388658814	 0.0342491431	-0.244014
C	-1.5936449324	-2.0457564341	 0.1603631565	 0.411662
C	-1.9894391446	-2.7345060619	 1.4415087264	-0.331817
C	-2.8629982072	-2.8404217116	 0.2081635229	-0.308421
O	-0.5711314089	-2.6604279877	-0.6103942907	-0.230838
C	 0.6762396976	-2.6302717944	-0.0912617599	 0.112219
N	 1.6512554493	-3.0427350354	-0.7783689977	-0.444776
H	-1.9148845922	 1.6643026103	-2.2878846863	 0.287535
H	-2.787553545	-0.4786252694	-1.7877798909	 0.088739
H	-1.0327762335	-0.4508965574	-2.0397810395	 0.112519
H	-0.6920100951	-0.1052914069	 0.4096672019	 0.107293
H	-2.4319565351	-0.1419552717	 0.6623924794	 0.110758
H	-1.4309798172	-3.6185627304	 1.7272360117	 0.126647
H	-2.3263720641	-2.1226956924	 2.2711327909	 0.121884
H	-3.8032742015	-2.3010739335	 0.1885051264	 0.119975
H	-2.8653056243	-3.7866734613	-0.3194893595	 0.134466
H	 0.7124847047	-2.2436080676	 0.9350218642	 0.094906
H	 2.5095086743	-2.9724762626	-0.2352898177	 0.228501
53.0918	88.4459	105.8675	143.442	160.7592	209.6376	258.1708	302.2338	336.0358	369.5828	440.3834	521.6688	591.7175	768.9418	786.8743	815.685	826.1732	903.9911	928.7162	953.7787	992.9729	1029.8467	1050.6106	1056.0107	1076.1087	1083.1292	1096.4226	1105.599	1190.4864	1206.8663	1248.7229	1276.5593	1286.3658	1302.3529	1336.577	1376.9429	1414.9127	1454.3862	1461.2782	1481.0765	1496.9231	1529.9	1742.1108	2975.2389	3022.2592	3033.4603	3041.6603	3083.3105	3137.0033	3143.1293	3221.9467	3237.1818	3514.8442	3833.2787
OCCC1(CC1)OC=N	OCCC1(CC1)O[CH][NH]	
InChI=1S/C6H11NO2/c7-5-9-6(1-2-6)3-4-8/h5,7-8H,1-4H2	InChI=1S/C6H11NO2/c7-5-9-6(1-2-6)3-4-8/h5,7-8H,1-4H2
