12
gdb 24860	2.60522	1.87891	1.2698	3.3143	64.03	-0.2843	-0.115	0.1693	925.5392	0.078412	-468.823977	-468.817005	-468.816061	-468.85588	25.299	
N	 0.1943820118	 1.2993799645	 0.4276576674	-0.456835
C	 0.0630729628	 0.0856681675	 0.1336597631	 0.404682
O	-1.22427883	-0.4541063058	 0.1853976513	-0.202252
C	-1.5078937309	-1.503002336	 0.9998884632	 0.40972
O	-2.6103254983	-1.9624933919	 1.0602476002	-0.295669
C	-0.3805800555	-2.0593246069	 1.8382329445	-0.08357
N	 0.8171829515	-2.2792334695	 1.4646020077	-0.180398
C	 1.2838967004	-1.8708902722	 0.2122570625	 0.071314
N	 1.0276664392	-0.7784696664	-0.3945817587	-0.239187
H	 1.1515484126	 1.5997067337	 0.2424579777	 0.249031
H	-0.6876713745	-2.3791329402	 2.8340354825	 0.168514
H	 2.018288641	-2.5478275567	-0.2205090815	 0.154648
87.0013	114.5518	247.1387	305.3049	395.57	453.8128	490.7509	541.2335	685.5598	690.609	697.1213	831.5579	862.3791	908.6839	951.2722	951.7134	1005.0852	1034.2318	1072.1789	1219.7676	1302.3414	1376.6084	1414.3984	1662.1726	1708.0936	1752.0059	1851.7455	3141.9124	3160.348	3503.8161
N=C1OC(=O)C=NC=N1	[NH][C]1OC(=O)C=NC=N1	
InChI=1S/C4H3N3O2/c5-4-7-2-6-1-3(8)9-4/h1-2,5H	InChI=1S/C4H3N3O2/c5-4-7-2-6-1-3(8)9-4/h1-2,5H
