21
gdb 95001	2.91403	1.68039	1.36609	1.3247	81.49	-0.2361	0.0905	0.3266	1028.601	0.185464	-387.051274	-387.044009	-387.043065	-387.082602	30.189	
C	-0.1739602713	 1.5758856181	 0.0045572756	-0.394338
C	 0.0068278513	 0.0525435327	-0.0361583243	-0.039018
C	 0.7958578296	-0.4213903664	-1.2652575182	-0.080024
O	 2.1996373293	-0.3173801351	-1.0612833692	-0.282898
C	 2.6014325842	-0.7703788243	 0.2038927982	 0.170637
C	 1.6697281483	-1.7185433026	 1.031374519	-0.125644
C	 2.4427042797	-1.2343358249	 2.2834744115	-0.242655
C	 2.1901767496	 0.0533547899	 1.4596553388	-0.084957
C	 0.7363253725	-0.4682272725	 1.206647462	 0.013243
H	 0.792050788	 2.0852907826	-0.069991141	 0.127833
H	-0.7986402166	 1.9198457435	-0.8264264546	 0.109915
H	-0.651367584	 1.895691757	 0.9370035691	 0.110616
H	-0.9853920575	-0.4156655526	-0.0813708979	 0.070041
H	 0.5383240583	-1.4694052026	-1.4820618853	 0.089206
H	 0.5672406671	 0.1716879374	-2.1559344692	 0.100929
H	 3.6552947392	-1.0524068238	 0.1294678512	 0.074374
H	 1.3741045256	-2.7426627363	 0.7970752535	 0.070189
H	 1.9069766101	-1.3099038584	 3.2327374918	 0.093822
H	 3.4813814982	-1.5635893365	 2.3816778046	 0.089937
H	 2.4942469471	 1.0705707296	 1.7098502231	 0.069246
H	 0.0963340015	-0.4840344848	 2.0954255114	 0.059548
138.8836	195.6032	238.0856	342.4092	356.6538	428.7856	450.7126	517.9492	589.9698	712.7775	779.9249	819.8539	828.114	866.4528	896.7844	907.0215	932.9654	952.3071	1000.5243	1003.6486	1013.0615	1051.1681	1068.2248	1082.826	1101.1251	1111.7218	1140.0734	1163.6	1177.5583	1181.0896	1211.8364	1244.4929	1248.7218	1259.254	1282.8926	1325.8393	1351.1943	1372.2366	1398.1485	1415.4739	1426.0426	1495.9963	1501.3999	1509.5665	1516.4427	2981.687	3016.2588	3030.6164	3046.7632	3050.4042	3074.0503	3078.6278	3095.7474	3096.9179	3104.8464	3108.1005	3115.8589
CC1COC2C3CC2C13	C[C@H]1CO[C@@H]2[C@H]3C[C@@H]2[C@@H]13	
InChI=1S/C8H12O/c1-4-3-9-8-5-2-6(8)7(4)5/h4-8H,2-3H2,1H3	InChI=1S/C8H12O/c1-4-3-9-8-5-2-6(8)7(4)5/h4-8H,2-3H2,1H3/t4-,5-,6+,7-,8+/m0/s1
