21
gdb 86941	2.62285	0.99581	0.8938	1.7293	79.2	-0.2485	-0.0213	0.2272	1398.524	0.180554	-424.224445	-424.214512	-424.213568	-424.260154	36.033	
C	 0.7239892327	 1.4724721456	-0.076209219	-0.422629
C	 0.0156372981	 0.1238673162	 0.0262498705	-0.011508
C	 0.5548998574	-0.9911032406	-0.9223186815	-0.255459
C	 1.2128949842	-1.7209639813	 0.2873446837	-0.041959
C	 2.7415984904	-1.6137301652	 0.3786031429	-0.301249
C	 3.4016805747	-2.5816763086	-0.5744661043	 0.159314
O	 4.1043147494	-2.2702540213	-1.5015576739	-0.240963
C	 0.4232228524	-0.7662163583	 1.2461097287	 0.11708
O	 1.0805185131	-0.1929901947	 2.3479050905	-0.421644
H	 1.816388205	 1.3750225309	-0.0697527719	 0.112692
H	 0.4597845914	 1.9723029913	-1.0135394643	 0.125456
H	 0.4389089612	 2.13349477	 0.7488863239	 0.12704
H	-1.0637861267	 0.2887176744	-0.0413359024	 0.074113
H	-0.2337241235	-1.575006273	-1.4019968312	 0.104306
H	 1.2483390968	-0.653283554	-1.6978802314	 0.1124
H	 0.9293939249	-2.7737064406	 0.3944739684	 0.073539
H	 3.1044925221	-0.6082105358	 0.1448218567	 0.111984
H	 3.0501129782	-1.867645846	 1.4022919205	 0.127535
H	 3.1687890738	-3.653188383	-0.3672885246	 0.073062
H	-0.4443954868	-1.2800593714	 1.6689403911	 0.09114
H	 1.7825165712	 0.3806289355	 2.0240088477	 0.285749
43.8733	74.2302	93.072	163.9002	215.7476	246.8725	276.9212	291.2308	334.665	381.0908	492.0571	518.5716	551.9213	733.5051	774.0397	793.9468	840.7163	878.5273	922.9012	925.783	981.0858	1030.5927	1050.7608	1074.8012	1097.4497	1138.4013	1152.1153	1178.7941	1213.4277	1227.3666	1255.288	1269.9901	1283.5859	1293.2014	1306.0877	1360.7629	1381.116	1407.8867	1426.1304	1437.5482	1468.5132	1490.0013	1498.6553	1504.4218	1831.9009	2851.7353	3021.0125	3027.0452	3037.4019	3050.8333	3058.8737	3074.9558	3089.1785	3096.4159	3103.7889	3112.9614	3816.3268
CC1CC(CC=O)C1O	C[C@H]1C[C@@H](CC=O)[C@H]1O	
InChI=1S/C7H12O2/c1-5-4-6(2-3-8)7(5)9/h3,5-7,9H,2,4H2,1H3	InChI=1S/C7H12O2/c1-5-4-6(2-3-8)7(5)9/h3,5-7,9H,2,4H2,1H3/t5-,6+,7-/m0/s1
