18
gdb 60992	2.51855	1.17079	1.01392	3.6471	79.93	-0.236	0.0236	0.2596	1245.2355	0.145866	-401.921064	-401.911646	-401.910701	-401.955585	34.293	
C	-0.5128744703	 1.1681518463	 0.1284701214	-0.352493
N	 0.1339741593	-0.1374498316	 0.1397177248	-0.043392
C	 0.8927144681	-0.5080523904	 1.2183082359	 0.154494
O	 1.0134467149	 0.1304759241	 2.2415672495	-0.338686
C	 0.1509627617	-0.8742706944	-1.0806885905	 0.017162
C	 0.0585926305	-2.3706879843	-1.0840469941	-0.322078
C	-1.1217803345	-1.557240605	-1.5919006444	-0.213407
C	-2.3345690839	-1.5197464621	-0.8310197876	 0.32897
C	-3.3627585709	-1.4898847685	-0.2073211394	-0.445838
H	-0.0366938104	 1.8318979915	-0.604578307	 0.119175
H	-1.5711755948	 1.0621077356	-0.1225036413	 0.142609
H	-0.4062021347	 1.5991288853	 1.1235268416	 0.166816
H	 1.3901555246	-1.4807167893	 1.0543756358	 0.07891
H	 0.7545685735	-0.4270418713	-1.8708916708	 0.106294
H	 0.6516542981	-2.9175907162	-1.807426905	 0.131385
H	-0.0870477276	-2.8738759603	-0.1368231835	 0.146449
H	-1.253490178	-1.5232042378	-2.6692640095	 0.121077
H	-4.2672698257	-1.4662080816	 0.3484552941	 0.202554
53.0341	112.426	148.5289	172.5959	205.0944	234.5425	313.8479	337.584	369.517	439.5885	529.848	587.7876	602.8141	659.6531	684.8129	780.6698	811.6526	853.537	920.5988	1004.0086	1033.4029	1050.4919	1079.8333	1112.8873	1129.7877	1146.9551	1164.5558	1196.8099	1293.7152	1374.3572	1386.428	1409.7179	1442.0608	1445.3329	1482.0869	1499.7994	1514.6143	1796.0691	2237.6896	2972.5425	3022.9752	3093.3225	3101.8984	3150.2591	3153.8495	3164.5436	3245.7906	3503.7588
CN(C=O)C1CC1C#C	CN(C=O)[C@H]1C[C@H]1C#C	
InChI=1S/C7H9NO/c1-3-6-4-7(6)8(2)5-9/h1,5-7H,4H2,2H3	InChI=1S/C7H9NO/c1-3-6-4-7(6)8(2)5-9/h1,5-7H,4H2,2H3/t6-,7+/m1/s1
