19
gdb 75289	2.7558	1.732	1.33781	1.6666	79.88	-0.2271	0.0325	0.2596	1016.9354	0.160149	-385.865468	-385.857963	-385.857018	-385.897241	29.903	
C	-0.0007106201	 1.5081484534	 0.0406068258	-0.497382
C	-0.0020286859	 0.0117820632	 0.0018741456	 0.351996
C	-0.005442033	-0.7678862547	-1.0841000991	-0.153496
C	 0.0174701936	-2.2527625076	-0.7933367101	-0.27782
C	 0.0487078911	-2.3123945269	 0.7497938835	-0.057687
C	 1.4122543679	-2.4869448152	 1.4520275659	 0.012894
O	 2.3197874696	-1.5262572676	 0.9034915584	-0.233988
C	 1.4161465152	-1.0923815118	 1.9226041045	 0.016204
C	 0.03560092	-0.8238307231	 1.2527028034	-0.167614
H	 0.9011041789	 1.8908419162	 0.5354918078	 0.128396
H	-0.0402472023	 1.9376797316	-0.9641330857	 0.122779
H	-0.856308865	 1.8941196284	 0.6098900256	 0.119101
H	-0.0119909821	-0.3876485766	-2.101739465	 0.08187
H	-0.8605029206	-2.7625115862	-1.210206966	 0.097985
H	 0.8983113289	-2.7333681886	-1.2379309277	 0.112418
H	-0.7277808881	-2.9408597861	 1.1891936497	 0.07514
H	 1.8464529235	-3.3819941964	 1.8839602613	 0.098757
H	 1.8498294618	-0.6416058729	 2.808336462	 0.099355
H	-0.7349711534	-0.5799996593	 1.99143816	 0.071094
118.8515	171.2531	216.1782	241.0717	285.3814	398.8649	507.1062	562.6607	635.6983	696.4934	746.525	793.8281	833.8704	853.5914	866.8468	899.897	916.9177	951.4857	969.2173	990.7099	1024.9447	1032.9582	1047.0549	1065.2607	1072.104	1139.2557	1176.3334	1200.5266	1227.266	1234.2444	1256.0777	1274.5511	1311.1363	1329.285	1353.2934	1390.3092	1414.7278	1480.0307	1481.4995	1490.2804	1714.4855	3014.8439	3017.0507	3044.7787	3055.0975	3060.0079	3098.1769	3108.4429	3169.6395	3171.8811	3185.3901
CC1=CCC2C3OC3C12	CC1=CC[C@H]2[C@H]3O[C@H]3[C@@H]12	
InChI=1S/C8H10O/c1-4-2-3-5-6(4)8-7(5)9-8/h2,5-8H,3H2,1H3	InChI=1S/C8H10O/c1-4-2-3-5-6(4)8-7(5)9-8/h2,5-8H,3H2,1H3/t5-,6+,7-,8+/m1/s1
