16
gdb 17724	4.64559	2.49553	2.0684	1.635	67.83	-0.238	0.0897	0.3276	687.8001	0.133181	-346.505368	-346.500118	-346.499173	-346.534311	22.582	
C	-0.0836764973	 1.5769411914	 0.0007328556	-0.344005
C	 1.4518528762	 1.2820583879	-0.0329147764	-0.103911
C	 1.3283406431	 0.1593712812	 1.0397708614	-0.067294
C	 1.7854623902	-1.0219403651	 0.1768489647	 0.083514
O	 0.7845329746	-2.0612239676	 0.3181343166	-0.297131
C	-0.4901469211	-1.3624833274	 0.3020782622	-0.188136
C	 0.0399894726	 0.0445467615	 0.1441925604	 0.270065
C	 1.2514771175	-0.0244574398	-0.8570831425	-0.067302
H	-0.4639795328	 2.1254551607	 0.8680326142	 0.100621
H	-0.536531496	 1.9519974931	-0.9222859435	 0.100619
H	 2.2618251839	 2.0039208821	-0.1356925699	 0.076411
H	 1.3165691347	 0.2702400103	 2.1247351237	 0.074946
H	 2.7690360401	-1.4904119936	 0.1823959232	 0.076717
H	-1.0969307354	-1.7183860041	-0.5380735776	 0.10497
H	-1.0248232656	-1.5459237913	 1.2407895294	 0.104971
H	 1.1519573354	-0.1235426092	-1.9386815013	 0.074946
311.4197	372.5486	435.1425	445.1764	682.625	732.6442	739.4447	802.0234	855.3034	868.6981	882.4029	899.4729	927.1348	938.3903	966.9443	985.3345	1016.8415	1018.0181	1051.394	1118.152	1129.6241	1139.1025	1143.1567	1182.8098	1190.197	1200.8853	1212.3422	1232.8131	1262.3509	1301.0129	1320.2478	1362.3793	1508.7775	1521.492	3028.0245	3042.3571	3070.8834	3102.1623	3103.7763	3107.266	3116.2276	3132.8121
C1C2C3C4OCC13C24	C1[C@H]2[C@@H]3[C@H]4OC[C@@]13[C@@H]24	
InChI=1S/C7H8O/c1-3-4-6-5(3)7(1,4)2-8-6/h3-6H,1-2H2	InChI=1S/C7H8O/c1-3-4-6-5(3)7(1,4)2-8-6/h3-6H,1-2H2/t3-,4+,5-,6+,7-
