19
gdb 61865	2.55251	0.988	0.74055	8.0512	77.	-0.2374	0.0062	0.2436	1502.4535	0.158527	-456.395329	-456.385528	-456.384584	-456.430398	35.687	
C	 0.2307121483	 1.4061002426	 0.2356517512	-0.414511
C	 0.089883678	-0.116689227	 0.1623256304	 0.046004
C	-1.3600645203	-0.5185536362	-0.1910518017	-0.324418
C	-1.6801480469	-2.0181164986	-0.1289170359	 0.390222
O	-0.7089454276	-2.8395268077	-0.5467864363	-0.372694
O	-2.7475910069	-2.4297467302	 0.2465110122	-0.337635
N	 0.9883310041	-0.8108602966	-0.7639623157	-0.24609
C	 1.9270201431	-0.2176287597	-1.3848004069	 0.106677
N	 2.7137249249	-0.8449278462	-2.3047371751	-0.501117
H	 3.5897646003	-0.423941301	-2.5611916123	 0.265596
H	 2.6639724493	-1.8508654994	-2.3556573622	 0.266709
H	 1.230878331	 1.7099819592	 0.5611906637	 0.117662
H	 0.0235378291	 1.8756460386	-0.7327495953	 0.121933
H	-0.4828906684	 1.8067764656	 0.96059373	 0.127845
H	 0.3062421525	-0.523816176	 1.16109873	 0.103297
H	-2.0662591906	-0.0212740855	 0.4768752723	 0.12659
H	-1.5791461527	-0.1749520304	-1.2110267081	 0.124069
H	 0.0854793713	-2.2890665182	-0.7764105936	 0.294192
H	 2.1619258814	 0.8435047265	-1.2654507066	 0.105669
59.8234	101.896	131.721	168.747	197.738	260.2685	305.5594	333.593	349.829	372.1212	448.9849	495.3617	568.0569	598.2283	611.2433	701.5471	840.4016	873.966	914.2696	928.6229	947.9241	1012.3104	1046.4062	1109.2398	1118.6666	1175.7184	1216.353	1288.0777	1300.6812	1306.7847	1356.9005	1372.4115	1399.3843	1422.7722	1458.251	1495.2904	1504.6864	1515.6504	1635.059	1762.9318	1856.0988	2994.3539	3029.9329	3033.9172	3092.6499	3099.2292	3112.1263	3118.7162	3221.6026	3595.1283	3724.0706
CC(CC([O-])=O)NC=[NH2+]	C[C@@H](CC(=O)O)N=CN	
InChI=1S/C5H10N2O2/c1-4(7-3-6)2-5(8)9/h3-4H,2H2,1H3,(H2,6,7)(H,8,9)	InChI=1S/C5H10N2O2/c1-4(7-3-6)2-5(8)9/h3-4H,2H2,1H3,(H2,6,7)(H,8,9)/t4-/m0/s1
