12
gdb 132683	3.12856	1.33737	0.93688	0.5624	60.77	-0.2358	-0.036	0.1998	1085.6301	0.077214	-521.93105	-521.924231	-521.923287	-521.962411	26.158	
O	 0.090095024	 1.3471881402	 0.1006902203	-0.409329
C	 0.0702601218	 0.0008948495	 0.0430519101	 0.317407
N	 0.0921362108	-0.5966545239	-1.1337513249	-0.343936
C	 0.0724728129	-1.9353037895	-1.1931492531	-0.123044
C	 0.0297121969	-2.7094780611	-0.0496246061	 0.254056
F	 0.010909481	-4.0416746647	-0.1374999876	-0.074882
C	 0.0059256715	-2.1021204581	 1.2047839298	-0.344506
C	 0.0267107682	-0.7249652809	 1.2450490906	 0.205882
F	 0.0060743424	-0.0764133379	 2.4058171951	-0.056432
H	 0.1193982575	 1.6527165247	-0.8164314258	 0.303954
H	 0.0912551901	-2.3987685138	-2.1740312412	 0.129965
H	-0.0276243908	-2.6863580145	 2.1158720928	 0.140866
146.9707	237.6441	291.2399	339.2699	406.9502	464.9964	474.6575	506.8409	525.1255	595.7877	623.2741	726.007	768.1451	818.1356	909.7565	923.1372	1008.7982	1140.4671	1179.8043	1264.4993	1311.9564	1341.5155	1382.6023	1485.2175	1530.5421	1645.5882	1661.3284	3187.6378	3220.0788	3774.8691
OC1=NC=C(F)C=C1F	Oc1ncc(F)cc1F	
InChI=1S/C5H3F2NO/c6-3-1-4(7)5(9)8-2-3/h1-2H,(H,8,9)	InChI=1S/C5H3F2NO/c6-3-1-4(7)5(9)8-2-3/h1-2H,(H,8,9)
