18
gdb 65999	2.84491	1.28749	1.16255	1.9482	72.84	-0.2466	0.0169	0.2635	1126.0094	0.149197	-435.222128	-435.213595	-435.212651	-435.255533	31.947	
N	-0.1331756616	 1.501117376	 0.0793036626	-0.575205
C	-0.0385172691	 0.0486257205	 0.0683780128	 0.124787
C	 0.8870049432	-0.5327619295	-1.0349623378	-0.111675
O	 1.7390947886	-1.1424639763	-0.0159060075	-0.257948
C	 0.9834551367	-0.6048725367	 1.0050202589	 0.394797
N	 1.1367188766	-0.6295155733	 2.2479299647	-0.548592
C	-1.4108670166	-0.5977173175	 0.1106984653	 0.0074
C	-2.5722413425	 0.0564914644	 0.7550922283	-0.247981
N	-2.4954742242	-0.0482367985	-0.7141275815	-0.33043
H	-0.3353540778	 1.8135048504	 1.0254859595	 0.253074
H	 0.7625085772	 1.9126122109	-0.1645928253	 0.239033
H	 0.4460444413	-1.2878850608	-1.6884478215	 0.13461
H	 1.4419307559	 0.2048231784	-1.6218215201	 0.11826
H	 1.9745407097	-1.1470466742	 2.5196241842	 0.230569
H	-1.3701851891	-1.6851786522	 0.1189950611	 0.09573
H	-3.3353707619	-0.5565865608	 1.2250668424	 0.122949
H	-2.4398849359	 1.0358549395	 1.204403749	 0.110544
H	-2.1794900605	 0.8545013597	-1.0691147152	 0.240078
76.8152	104.8356	151.1679	237.5446	274.8211	278.5802	320.5162	403.6041	432.2678	574.9787	662.1933	709.0483	775.1765	843.94	867.3498	869.0197	896.5165	945.6328	969.9564	982.6372	991.2401	1010.4654	1018.9082	1100.5482	1118.992	1150.6172	1157.334	1193.4173	1233.3181	1266.9155	1286.8266	1314.3776	1321.0155	1365.0273	1432.2363	1508.8639	1515.2218	1660.4475	1822.9531	3059.112	3119.5459	3124.5698	3128.9707	3203.9498	3469.2325	3474.1581	3495.8112	3569.2029
NC1(COC1=N)C1CN1	N[C@]1(CO[C]1[NH])[C@H]1CN1	
InChI=1S/C5H9N3O/c6-4-5(7,2-9-4)3-1-8-3/h3,6,8H,1-2,7H2	InChI=1S/C5H9N3O/c6-4-5(7,2-9-4)3-1-8-3/h3,6,8H,1-2,7H2/t3-,5-/m1/s1
