19
gdb 88607	2.93109	1.05509	1.00133	0.4898	71.75	-0.2219	0.0592	0.2811	1270.2091	0.157409	-460.105979	-460.096468	-460.095524	-460.141513	35.375	
O	-0.186311687	 1.4293748455	 0.7005695384	-0.415909
C	-0.0172287393	 0.1621817957	 0.1325963435	 0.082261
C	-0.6558281235	-1.0360562601	 0.7771642289	-0.322284
C	-1.2331376797	-0.4552538278	-0.505536429	-0.051027
C	-2.5306055088	 0.29846936	-0.4770458146	-0.113602
C	-3.6557282632	-0.0994782813	-1.4079634957	-0.003461
O	-3.4138923939	-1.2552149182	-2.1740453484	-0.422838
C	-3.8035757915	-0.3291704225	 0.0753266436	 0.087934
O	-3.8069539716	-1.6439730817	 0.5392866841	-0.428321
H	 0.2666043796	 1.4388123326	 1.549544712	 0.289066
H	 0.9366232254	 0.0219515247	-0.3757198048	 0.083017
H	-0.141224699	-1.9904830862	 0.7396829434	 0.106447
H	-1.2325120842	-0.8607017279	 1.6782463276	 0.125422
H	-1.0494667447	-1.0231116928	-1.411175115	 0.104716
H	-2.4297073091	 1.3653526618	-0.3055280542	 0.109322
H	-4.2210281587	 0.677346821	-1.9196763864	 0.08786
H	-4.2684247317	-1.6411771446	-2.3975443056	 0.295664
H	-4.4810972037	 0.2895041752	 0.6546609977	 0.100466
H	-3.4379013454	-2.1828604133	-0.1730428053	 0.285266
14.6713	137.1235	146.9769	186.6101	208.7476	261.2322	269.8321	301.9685	423.4256	478.8999	540.6293	545.8607	627.7063	668.8506	753.986	772.6893	802.6161	842.2348	890.8629	960.3992	1006.5188	1019.361	1049.2605	1062.9481	1072.7556	1121.1818	1134.8119	1142.1138	1172.763	1180.432	1229.4945	1242.4384	1270.4829	1301.2296	1312.3633	1323.8603	1399.6222	1408.7665	1422.4092	1469.6335	1483.4748	3097.6527	3112.1241	3132.8894	3157.7632	3164.2027	3168.0471	3226.0283	3761.9373	3797.2371	3815.4179
OC1CC1C1C(O)C1O	O[C@H]1C[C@H]1[C@H]1[C@@H](O)[C@H]1O	
InChI=1S/C6H10O3/c7-3-1-2(3)4-5(8)6(4)9/h2-9H,1H2	InChI=1S/C6H10O3/c7-3-1-2(3)4-5(8)6(4)9/h2-9H,1H2/t2-,3+,4-,5+,6-/m1/s1
