19
gdb 90676	2.77377	1.40968	1.14198	4.2098	76.28	-0.2417	-0.0288	0.2129	1134.6181	0.158845	-423.020272	-423.011783	-423.010839	-423.05354	32.507	
C	-0.1035786024	 1.4657489986	-0.3859477414	-0.478053
C	 0.1298715247	 0.0229184769	 0.0191048826	 0.386826
O	 1.262115651	-0.3917239954	 0.1993083775	-0.337321
C	-1.1024920643	-0.809112641	 0.1463511682	-0.114366
C	-1.4089099277	-2.0027566975	-0.7566448572	-0.072647
C	-0.1591875809	-2.8381588337	-1.0465030034	-0.290807
C	-0.0515397106	-3.1372910728	 0.4954003957	 0.155972
O	 1.1495837638	-2.9769409958	 1.1734567128	-0.438812
C	-1.2450709895	-2.1924834833	 0.7460192961	-0.136027
H	 0.8512961783	 1.9671332917	-0.5449927039	 0.145202
H	-0.7126364471	 1.5167428555	-1.2949085822	 0.144416
H	-0.6626794877	 1.9857452309	 0.4009296576	 0.146246
H	-1.9938036539	-0.2045497876	 0.2988148873	 0.094749
H	-2.3191744455	-2.0016331451	-1.3436502208	 0.096414
H	-0.3618143899	-3.7285739553	-1.6452550837	 0.105815
H	 0.6887825037	-2.3036927467	-1.4806977099	 0.113155
H	-0.3850285047	-4.1621349187	 0.6859512295	 0.091658
H	 1.4505004671	-2.0751751767	 0.9716237418	 0.297115
H	-2.0108214847	-2.346917904	 1.4984079135	 0.090463
65.1622	134.8017	167.6498	208.2618	221.8631	350.9728	369.1906	418.0773	542.3741	586.9695	632.5977	674.8916	710.0755	772.2534	780.7771	820.7412	891.4713	915.7711	970.9193	977.3844	991.4535	1012.0076	1051.4121	1056.2585	1082.4232	1129.6736	1138.0546	1185.9077	1207.8229	1229.2343	1259.8101	1298.1222	1340.4659	1349.5207	1380.0644	1438.624	1463.7322	1474.7802	1482.5288	1485.9808	1768.6515	3036.5214	3061.6462	3070.0715	3097.5724	3122.8734	3135.0933	3156.5893	3168.7566	3189.1625	3647.9372
CC(=O)C1C2CC(O)C12	CC(=O)[C@H]1[C@H]2C[C@@H](O)[C@@H]12	
InChI=1S/C7H10O2/c1-3(8)6-4-2-5(9)7(4)6/h4-7,9H,2H2,1H3	InChI=1S/C7H10O2/c1-3(8)6-4-2-5(9)7(4)6/h4-7,9H,2H2,1H3/t4-,5-,6+,7+/m1/s1
