17
gdb 8342	4.80158	1.39253	1.31717	3.8904	72.59	-0.3048	0.0349	0.3397	968.5977	0.143719	-326.696848	-326.689831	-326.688887	-326.728487	26.868	
N	-0.0479970652	-1.1466641294	-0.006036613	-0.312371
C	-0.0266334941	 0.0086738353	 0.0008651467	 0.263096
C	 0.0325924026	 1.4699765868	 0.0092690942	-0.473166
C	 1.4598277848	 1.9921715087	-0.0014316089	 0.351105
C	 2.5493472196	 1.757516048	-1.0900824491	-0.245941
C	 3.2096131088	 2.6671908269	-0.0143930312	-0.041965
C	 1.8888710106	 3.4898016551	 0.00466005	-0.268136
C	 2.5710431875	 1.7425544948	 1.0616543944	-0.245944
H	-0.5133675346	 1.8476059401	-0.8636933747	 0.152669
H	-0.4962498949	 1.8368112086	 0.8972421494	 0.152668
H	 2.9353669391	 0.7392284073	-1.1805466503	 0.107981
H	 2.3652335359	 2.2080101682	-2.069630582	 0.092452
H	 4.2252966197	 3.0604172048	-0.0218995677	 0.080511
H	 1.6558574353	 4.0689727514	-0.8935103394	 0.093292
H	 1.6741051504	 4.0563612684	 0.9153371676	 0.093294
H	 2.4068101813	 2.1793695595	 2.0508833479	 0.09246
H	 2.9586476033	 0.7231561854	 1.1301385863	 0.107995
66.9918	112.3653	289.2236	308.0795	390.8755	465.7117	542.1397	545.9689	688.0787	770.4797	805.1162	886.0615	889.1835	927.1028	963.6349	969.5694	972.4388	987.4033	1000.1368	1098.9972	1101.0009	1134.872	1146.527	1155.0032	1164.3379	1223.5672	1226.8938	1237.8928	1276.1902	1297.8241	1333.7378	1457.7474	1498.5242	1499.6146	1556.3236	2362.0651	3034.7748	3044.6705	3050.2217	3056.2961	3072.5675	3110.5302	3119.1703	3121.9445	3123.5839
N#CCC12CC(C1)C2	N#CC[C@@]12C[C@@H](C1)C2	
InChI=1S/C7H9N/c8-2-1-7-3-6(4-7)5-7/h6H,1,3-5H2	InChI=1S/C7H9N/c8-2-1-7-3-6(4-7)5-7/h6H,1,3-5H2/t6-,7+
