20
gdb 111275	3.23244	1.21538	1.05318	4.1207	74.62	-0.2333	0.0644	0.2977	1203.9002	0.171356	-440.239854	-440.23098	-440.230035	-440.273062	34.346	
C	-0.0162783332	 1.5201277364	-0.0341344889	-0.519927
C	 0.1503158324	 0.033341337	-0.0475765289	 0.320644
N	-0.8445731951	-0.8864521001	 0.5622324892	-0.394729
C	 0.5844462479	-0.9443519852	 0.9906980672	-0.136022
C	 1.3058744871	-1.8248683949	-0.0346566104	-0.035239
C	 0.9155651544	-3.2927428093	-0.1803912915	-0.0914
O	 1.3480491734	-3.8119149972	-1.4277178465	-0.431192
C	 0.7736369853	-0.8394813829	-1.1544807058	 0.066218
O	-0.1301444069	-1.3666272255	-2.1016621499	-0.443315
H	 0.9249782189	 2.0217102296	-0.2824030948	 0.131067
H	-0.7669408283	 1.8396869837	-0.7661800159	 0.136059
H	-0.334716369	 1.8747226388	 0.9524259867	 0.119183
H	-1.3596281815	-0.3603012428	 1.2664246897	 0.23089
H	 0.845869935	-0.7672521936	 2.0274135597	 0.096671
H	 2.3921956661	-1.7294723344	 0.0506812975	 0.07864
H	 1.3983641463	-3.8959946854	 0.5964126905	 0.10078
H	-0.1702597797	-3.4017259428	-0.0492163074	 0.093566
H	 0.8862476128	-3.2885670248	-2.0962523236	 0.290069
H	 1.5771033296	-0.3512646308	-1.7091941817	 0.092207
H	-0.9319452655	-1.5631212061	-1.594021575	 0.295829
109.3905	138.3612	176.4835	203.5428	246.2256	256.847	332.2907	342.6382	512.0392	517.7516	547.2335	625.5079	629.2018	682.3631	700.8701	808.4343	851.7373	898.0438	942.3683	965.5225	983.7197	1020.1724	1056.0758	1071.3554	1099.5424	1108.7627	1123.2863	1133.341	1180.3744	1212.671	1241.1153	1272.6158	1305.7804	1323.4271	1363.2757	1396.4141	1406.7841	1429.3178	1442.7714	1467.5432	1482.9106	1497.5173	1513.3804	3004.3617	3025.3107	3058.8929	3074.4577	3089.5961	3096.7283	3100.7086	3184.0718	3484.1463	3720.7179	3758.5299
CC12NC1C(CO)C2O	C[C@]12N[C@H]1[C@@H](CO)[C@H]2O	
InChI=1S/C6H11NO2/c1-6-4(7-6)3(2-8)5(6)9/h3-5,7-9H,2H2,1H3	InChI=1S/C6H11NO2/c1-6-4(7-6)3(2-8)5(6)9/h3-5,7-9H,2H2,1H3/t3-,4+,5-,6+/m1/s1
