22
gdb 119562	2.91594	1.00398	0.86378	0.7117	82.5	-0.2216	0.0741	0.2957	1428.0135	0.193748	-404.303531	-404.293852	-404.292908	-404.338263	36.234	
C	-0.1088450165	 1.5401164618	-0.1361305914	-0.413234
C	 0.0585704296	 0.0271332907	-0.1594186314	-0.012717
C	 1.3006870058	-0.5760379359	-0.9155098725	-0.236142
C	 1.7156776242	-1.2526619707	 0.3912325993	-0.118974
N	 1.9213632251	-0.1560427114	 1.3740144772	-0.376848
C	 0.5517146385	-0.6840569752	 1.1252729767	 0.349463
C	-0.286380081	-1.2514447125	 2.2317780562	-0.320559
C	-0.8510080224	-0.1877503441	 3.1728422243	-0.068321
O	-1.5981960887	-0.859577172	 4.1753277566	-0.419726
H	 0.7827028633	 2.0125863614	 0.2844526161	 0.137093
H	-0.2618393687	 1.9322553638	-1.147733492	 0.109232
H	-0.9741108253	 1.8392389324	 0.4665229021	 0.106856
H	-0.8580692936	-0.4560919452	-0.5143003206	 0.06909
H	 1.0168033006	-1.2765177407	-1.7039931971	 0.097925
H	 2.0213795708	 0.1462707032	-1.3085674021	 0.103217
H	 2.2169422172	-2.2047983675	 0.5225169566	 0.088769
H	 2.2503879923	-0.5909258729	 2.2367531635	 0.221183
H	-1.1239078195	-1.823177025	 1.8134265797	 0.109207
H	 0.3086064698	-1.9568040547	 2.8263976251	 0.101715
H	-0.025810098	 0.3970629609	 3.6084068574	 0.093562
H	-1.4831434994	 0.5140749231	 2.6064523556	 0.092852
H	-1.9653655141	-0.1995611296	 4.7703469508	 0.286356
76.3939	94.4341	105.5093	194.1367	223.1016	261.5249	268.8005	314.6588	347.8226	379.1595	469.1697	552.8779	668.5806	715.2493	775.6103	810.4957	860.3684	888.6202	921.4706	933.3836	983.0093	1016.7559	1029.9698	1044.847	1083.2932	1095.1648	1104.0008	1113.9776	1151.1928	1193.3908	1206.2594	1228.4337	1242.9744	1254.3291	1297.7944	1304.5211	1331.7095	1348.6947	1374.4395	1400.9438	1442.1988	1460.1671	1481.8565	1483.8623	1491.573	1503.485	1528.0484	2972.6581	2999.2337	3022.4667	3028.1284	3046.6782	3059.9604	3065.7799	3087.0377	3116.4399	3121.3063	3178.0868	3457.9865	3831.6021
CC1CC2NC12CCO	C[C@H]1C[C@H]2N[C@@]12CCO	
InChI=1S/C7H13NO/c1-5-4-6-7(5,8-6)2-3-9/h5-6,8-9H,2-4H2,1H3	InChI=1S/C7H13NO/c1-5-4-6-7(5,8-6)2-3-9/h5-6,8-9H,2-4H2,1H3/t5-,6+,7-/m0/s1
