21
gdb 111147	3.51627	1.13157	0.98836	2.5928	79.93	-0.2338	0.0851	0.3189	1295.7847	0.179739	-424.140955	-424.131497	-424.130553	-424.175008	35.614	
C	-0.7214190716	 1.06309474	-0.1162222999	-0.243059
O	-0.9265083309	-0.2564653635	-0.5709614899	-0.24379
C	 0.0403255485	-0.681808001	-1.4720603272	 0.173821
C	 1.3706028314	-1.3008661938	-0.9263411478	-0.0481
O	 0.5600142898	-2.4068256091	-0.3731015653	-0.306198
C	 0.0469181541	-2.199649064	-1.7468957503	-0.045346
C	 1.5306083318	-2.11751433	-2.2561739928	 0.3366
C	 1.8786197138	-1.421943981	-3.5732897038	-0.482132
C	 2.328334897	-3.4139479499	-2.1264621498	-0.453401
H	 0.2097917998	 1.157688842	 0.4615117734	 0.109159
H	-0.6850173247	 1.7813790523	-0.9508245195	 0.102486
H	-1.5643085725	 1.3161967047	 0.5305118241	 0.131605
H	 0.1122483325	 0.0062938435	-2.3215057322	 0.062792
H	 2.1395171079	-0.8711541828	-0.2816409004	 0.087102
H	-0.7723972364	-2.8393733474	-2.079025956	 0.091115
H	 1.3587364029	-0.479072455	-3.7458983316	 0.119932
H	 2.954465502	-1.2172013029	-3.6113152372	 0.122028
H	 1.6495583895	-2.0840136858	-4.4158232292	 0.12319
H	 2.1097654619	-4.0820080586	-2.9674049039	 0.110123
H	 3.4035976509	-3.2036045433	-2.1521702957	 0.109563
H	 2.0936745924	-3.9305052345	-1.1967194052	 0.142509
68.6727	151.5875	163.7291	171.0478	209.6017	233.9629	280.6263	355.1722	374.2274	407.2282	466.4784	541.4942	605.6953	730.1472	736.2668	803.5575	864.1427	887.3712	940.1271	952.9434	965.4437	1012.4841	1028.3134	1096.29	1115.3461	1131.1347	1144.099	1170.8335	1181.7952	1185.8094	1215.7027	1228.169	1254.074	1281.7416	1317.3225	1391.7962	1412.9047	1431.7692	1483.4507	1486.2635	1489.2864	1490.12	1506.7465	1511.7058	1515.699	2973.8968	3024.5773	3030.5468	3034.9514	3043.6131	3083.3368	3091.1527	3100.0728	3110.1361	3120.8454	3134.1743	3156.5817
COC1C2OC1C2(C)C	CO[C@H]1[C@H]2O[C@@H]1C2(C)C	
InChI=1S/C7H12O2/c1-7(2)5-4(8-3)6(7)9-5/h4-6H,1-3H3	InChI=1S/C7H12O2/c1-7(2)5-4(8-3)6(7)9-5/h4-6H,1-3H3/t4-,5+,6-
