14
gdb 50314	3.29179	1.46908	1.11499	5.9091	63.32	-0.2541	-0.0447	0.2095	1026.1821	0.101143	-473.850084	-473.842715	-473.841771	-473.8824	26.706	
O	-0.1700523075	 0.0196909649	 0.1915174211	-0.262887
C	-0.0265529662	 1.2095724029	 0.1389281397	 0.167191
N	 1.1796773986	 1.8865674258	-0.0192057347	-0.152206
C	 1.2176495544	 3.3550904705	-0.0745146303	-0.210493
C	 2.6968785404	 3.6785805553	-0.0008969343	 0.032642
O	 3.3099105121	 3.1659689081	 1.1750585763	-0.236015
C	 3.4537514604	 2.4228208211	-0.0492682806	-0.103896
C	 2.4585810678	 1.2871967304	-0.1307833753	 0.464659
O	 2.6981333142	 0.1219509904	-0.2785202626	-0.32061
H	-0.8678905158	 1.9290497058	 0.2139373045	 0.084624
H	 0.7878376924	 3.7245310003	-1.0131401574	 0.13385
H	 0.6673359201	 3.7972593102	 0.7620604242	 0.144837
H	 3.0744592277	 4.623046821	-0.3786351614	 0.12449
H	 4.4581166813	 2.2918994532	-0.4344218993	 0.133814
73.1113	186.5057	190.2441	218.0642	292.4463	379.1327	451.712	508.4418	633.8855	736.4149	771.6689	797.7334	847.5593	875.3456	946.7373	1002.0465	1030.0029	1062.011	1104.8441	1149.7852	1197.2734	1226.6685	1247.8262	1271.9681	1316.0149	1387.3433	1421.7117	1456.9229	1504.5997	1808.2426	1884.6177	2919.5783	3034.9641	3084.7219	3176.188	3200.3332
O=CN1CC2OC2C1=O	O=CN1C[C@H]2O[C@H]2C1=O	
InChI=1S/C5H5NO3/c7-2-6-1-3-4(9-3)5(6)8/h2-4H,1H2	InChI=1S/C5H5NO3/c7-2-6-1-3-4(9-3)5(6)8/h2-4H,1H2/t3-,4-/m1/s1
