19
gdb 6382	4.69946	1.03798	0.96626	2.2023	69.53	-0.2473	0.0636	0.3108	1293.498	0.163554	-402.252396	-402.242431	-402.241487	-402.288103	34.248	
C	-0.0648567595	 1.348884077	-0.048336384	-0.231376
O	 0.0031118829	-0.0737058591	 0.0575987842	-0.26953
C	 0.7122407328	-0.5267617347	 1.1263878757	 0.529734
O	 1.2455954736	 0.1906787573	 1.9452501791	-0.424395
N	 0.7440913091	-1.8860005251	 1.1200264919	-0.372236
C	 1.3019189385	-2.6498250103	 2.2323299347	 0.070504
C	 0.2863610343	-2.8237241971	 3.370033707	-0.381801
C	 1.8279492589	-3.9891890722	 1.7138219537	-0.39989
H	 0.93290685	 1.7809287617	-0.1628690949	 0.136785
H	-0.667816139	 1.5508802451	-0.9344952634	 0.126584
H	-0.5339396033	 1.7854538316	 0.8374145034	 0.136537
H	 0.1575343112	-2.3555358223	 0.4483048686	 0.245694
H	 2.1379867728	-2.0518485471	 2.6066254303	 0.116982
H	-0.0569389583	-1.8476737845	 3.7222652355	 0.13627
H	-0.5840412734	-3.3990861407	 3.0341212035	 0.106349
H	 0.7378761097	-3.3541595614	 4.2147705988	 0.114427
H	 2.5736484994	-3.840861312	 0.92791082	 0.124808
H	 2.2878776078	-4.5595688858	 2.5255874394	 0.123357
H	 1.0139787226	-4.5995851205	 1.3031506265	 0.111197
36.8441	66.6681	101.349	150.4503	159.6108	230.878	261.4362	298.5023	327.4349	412.9262	447.1995	453.05	504.9072	718.0904	782.7692	850.2318	929.8489	936.3399	955.7151	989.6362	1119.2532	1149.8355	1182.8617	1183.8543	1207.9972	1216.0073	1251.8605	1349.2618	1387.2789	1397.833	1418.5377	1466.4669	1481.3489	1485.3857	1488.2267	1496.9756	1503.1114	1509.1635	1542.1204	1810.1764	3027.8183	3032.1299	3047.701	3072.0605	3095.527	3106.8227	3119.8497	3121.1478	3123.0465	3149.9135	3634.35
COC(=O)NC(C)C	COC(=O)NC(C)C	
InChI=1S/C5H11NO2/c1-4(2)6-5(7)8-3/h4H,1-3H3,(H,6,7)	InChI=1S/C5H11NO2/c1-4(2)6-5(7)8-3/h4H,1-3H3,(H,6,7)
