16
gdb 41072	4.0989	1.88298	1.68691	1.2727	70.23	-0.2209	0.0599	0.2808	814.9634	0.126311	-400.594974	-400.589337	-400.588393	-400.624589	24.516	
C	 0.0153591807	 1.4490659314	-0.2404264648	-0.154408
O	 1.3853504772	 1.5894184665	 0.2908620548	-0.355348
C	 1.1896179547	 0.3324610309	 0.8968119281	 0.49223
C	 1.9523724875	-0.8867599364	 1.411767608	-0.169618
C	 1.2247611306	-0.930017352	 2.7017057122	-0.044724
C	 0.2861206597	 0.1900882467	 2.2119935718	-0.170813
C	-0.4465651736	-0.8045846524	 1.2788897601	-0.037095
C	 0.0202460876	-0.0945809229	 0.0101739637	-0.104622
N	 0.7311135118	-1.7948540021	 1.5869953229	-0.159679
H	-0.6949520017	 2.0362815395	 0.349743067	 0.117364
H	-0.0213915321	 1.7509275009	-1.2883490885	 0.125381
H	 2.8646962118	-1.3638248256	 1.0772899179	 0.105384
H	 1.4972674778	-1.3143478905	 3.6780540839	 0.098147
H	-0.121549531	 1.0398589691	 2.7518246512	 0.08258
H	-1.4089014448	-1.2871162026	 1.4435157383	 0.08069
H	 0.1894280437	-0.6879821604	-0.8892145169	 0.094533
252.485	341.2081	378.6785	529.6036	540.4632	687.8012	716.866	759.5934	784.6149	793.7267	823.4685	850.7907	877.4095	892.342	914.1538	940.1608	949.0343	1016.1428	1021.2555	1033.7177	1056.6208	1080.5371	1096.5223	1129.5345	1154.9744	1178.2166	1195.3215	1203.9545	1239.4203	1269.0698	1300.1103	1309.4478	1331.8911	1353.4956	1504.5463	3053.4664	3103.4347	3122.657	3127.9171	3156.6989	3174.1877	3198.7988
C1OC23C4C5C2C(C13)N45	C1O[C@@]23[C@H]4[C@H]5[C@@H]2[C@@H]([C@@H]13)N45	
InChI=1S/C7H7NO/c1-2-4-3-5-6(8(4)5)7(2,3)9-1/h2-6H,1H2	InChI=1S/C7H7NO/c1-2-4-3-5-6(8(4)5)7(2,3)9-1/h2-6H,1H2/t2-,3+,4-,5-,6-,7-,8?/m1/s1
