17
gdb 51572	3.67767	0.89876	0.8106	4.1107	69.95	-0.2479	-0.0231	0.2248	1403.539	0.133391	-458.918443	-458.90957	-458.908625	-458.953548	30.956	
O	-0.5199896745	 0.6482701508	 0.5001856471	-0.238714
C	 0.0760739712	 1.6717934691	 0.2850691528	 0.159028
C	 1.486868859	 1.7475826842	-0.2659320371	-0.32682
C	 1.5691359539	 2.7006104326	-1.4391370886	 0.038106
O	 1.5124356212	 4.1073672337	-1.1479697809	-0.253225
C	 2.7089985586	 3.5934951268	-1.7217605175	 0.022561
C	 3.9713585296	 3.6924153864	-0.9189151018	 0.044323
C	 4.1761245814	 4.795632095	 0.0319789553	-0.173115
O	 3.9181021402	 3.4636961884	 0.4852932578	-0.223819
H	-0.3841404872	 2.6632346126	 0.4949942288	 0.092221
H	 2.1428719089	 2.1122572273	 0.5307101408	 0.166685
H	 1.8033133652	 0.7417432894	-0.5588253157	 0.122203
H	 0.9547319578	 2.4197340973	-2.2972409965	 0.105305
H	 2.8648822623	 3.8759473731	-2.7663987067	 0.09923
H	 4.8442064054	 3.2649035271	-1.4147691585	 0.105438
H	 5.1814486385	 5.165129473	 0.2234232391	 0.122804
H	 3.3631193587	 5.4993767932	 0.1936343917	 0.137788
52.9156	62.6449	90.3519	150.0681	208.1656	236.7533	312.1353	431.1986	496.5434	541.3779	661.9228	734.7102	816.9177	825.0958	873.7864	908.0619	959.8794	972.8004	1025.2589	1069.3182	1091.4901	1106.2241	1144.	1155.6174	1168.1182	1170.9247	1243.2634	1274.7243	1295.4151	1304.7736	1399.1318	1425.4191	1429.6155	1452.5405	1483.9841	1517.825	1834.1762	2887.2181	3057.3745	3071.9448	3088.5276	3097.8936	3106.644	3119.0986	3196.1945
O=CCC1OC1C1CO1	O=CC[C@H]1O[C@H]1[C@H]1CO1	
InChI=1S/C6H8O3/c7-2-1-4-6(9-4)5-3-8-5/h2,4-6H,1,3H2	InChI=1S/C6H8O3/c7-2-1-4-6(9-4)5-3-8-5/h2,4-6H,1,3H2/t4-,5-,6-/m1/s1
