23
gdb 122157	4.54756	0.63168	0.61453	1.6577	83.28	-0.2509	0.0731	0.324	1906.5532	0.203012	-425.410532	-425.399465	-425.398521	-425.447126	40.119	
C	 0.0062647548	 1.4543568736	-0.1874001479	-0.402808
C	 0.0937246416	-0.0418213571	 0.013902025	-0.042217
C	 1.4421878387	-0.7439595023	-0.0009000991	-0.354027
C	 0.6487754262	-0.6308698836	 1.2817775855	 0.405359
O	 1.0851629924	 0.3113165955	 2.2311665541	-0.471472
C	 0.0059201232	-1.8661814337	 1.8854657197	-0.244597
C	 0.9650430128	-2.6774829349	 2.7648638053	-0.177209
C	 0.3200478534	-3.9240545268	 3.3543633921	-0.076255
O	 1.288701652	-4.5794890986	 4.1596987978	-0.422464
H	 0.8085036445	 1.9649680419	 0.3491806585	 0.128899
H	 0.0793186355	 1.7106920032	-1.2499370024	 0.109984
H	-0.9448084895	 1.8479844602	 0.1876172386	 0.115178
H	-0.7256005588	-0.6049437879	-0.4272590487	 0.08015
H	 1.5304437343	-1.711407339	-0.4847467313	 0.105103
H	 2.3195172009	-0.1109092437	-0.0901859186	 0.107601
H	 1.9102485164	-0.0095319696	 2.6094603772	 0.284863
H	-0.8625476902	-1.5521753317	 2.4795777542	 0.101725
H	-0.3761122074	-2.4979261867	 1.0738046764	 0.09168
H	 1.8452684912	-2.9808237397	 2.1847365192	 0.10504
H	 1.3264588912	-2.0586890139	 3.595002606	 0.101834
H	-0.5649659226	-3.6392121285	 3.9468184879	 0.085701
H	-0.0320458073	-4.5804822342	 2.5411885508	 0.082943
H	 0.8825396167	-5.3633468126	 4.5406238899	 0.28499
54.0234	79.5177	95.1233	135.7189	182.1757	212.711	237.6309	262.9606	276.0196	298.5782	331.8509	403.1386	455.2743	480.7357	579.9857	720.4619	764.6566	811.4876	868.2183	886.4168	916.7268	936.9143	1009.4714	1026.5387	1031.3265	1046.8509	1070.6466	1083.0876	1135.4376	1138.4222	1187.056	1208.2168	1229.0608	1256.3872	1263.0875	1308.9306	1313.9934	1319.7762	1351.3284	1388.1459	1408.0002	1423.9024	1461.143	1475.4019	1485.2097	1494.9977	1501.7171	1505.2016	1528.9079	2957.4042	2982.6734	3014.9333	3030.2026	3033.6545	3051.2052	3078.2178	3089.6081	3120.1386	3123.436	3138.335	3210.2839	3809.7653	3829.747
CC1CC1(O)CCCO	C[C@H]1C[C@]1(O)CCCO	
InChI=1S/C7H14O2/c1-6-5-7(6,9)3-2-4-8/h6,8-9H,2-5H2,1H3	InChI=1S/C7H14O2/c1-6-5-7(6,9)3-2-4-8/h6,8-9H,2-5H2,1H3/t6-,7+/m0/s1
