18
gdb 8767	2.40516	1.75835	1.08156	2.8401	74.18	-0.2466	-0.0212	0.2254	1099.4332	0.149762	-347.784679	-347.774986	-347.774042	-347.819469	34.208	
C	-0.1388893684	 1.5081590645	 0.0550443476	-0.42335
C	 0.0130318243	-0.0240890768	 0.0013736466	-0.045326
C	-1.3843549847	-0.6259250749	 0.0179448329	 0.164902
O	-1.9527411498	-1.0056689972	 1.0072641243	-0.252445
C	 0.7951659961	-0.5114006421	-1.2492351488	-0.166416
C	 2.2454712513	 0.0091217813	-1.2954392492	-0.401449
C	 0.7725094377	-1.9736744434	-1.3140779233	 0.314701
C	 0.7553328696	-3.1755969257	-1.3382983872	-0.452014
H	 0.8334438223	 2.0024172078	 0.1169782842	 0.130819
H	-0.6554139686	 1.8873742515	-0.8344883787	 0.121403
H	-0.7200919416	 1.799143922	 0.934250207	 0.138878
H	 0.5216294043	-0.3724067795	 0.9063924821	 0.105206
H	-1.8872065534	-0.6475492813	-0.9784031019	 0.073142
H	 0.2689755069	-0.1271376615	-2.1359528335	 0.10721
H	 2.7954705347	-0.3021448814	-0.4022834854	 0.130995
H	 2.763712708	-0.3954377788	-2.1683016154	 0.132023
H	 2.2723812318	 1.0996059269	-1.3591582867	 0.120944
H	 0.7316078295	-4.2369839215	-1.3667862547	 0.200777
52.4701	66.24	132.5648	192.1916	211.3208	220.2132	272.2843	311.9896	342.2553	385.1836	484.5083	543.4406	569.3413	636.36	647.602	820.1415	876.1096	917.1082	948.1636	981.7368	1050.413	1095.6434	1118.3251	1153.1874	1169.9293	1265.1959	1304.8623	1332.9591	1356.6766	1398.3263	1411.9987	1429.1591	1491.656	1494.0603	1498.3938	1509.0738	1838.3809	2233.4542	2847.9147	2994.0248	3035.6122	3047.4516	3064.4715	3108.0149	3120.6171	3123.5132	3129.9178	3503.4112
CC(C=O)C(C)C#C	C[C@@H](C=O)[C@@H](C)C#C	
InChI=1S/C7H10O/c1-4-6(2)7(3)5-8/h1,5-7H,2-3H3	InChI=1S/C7H10O/c1-4-6(2)7(3)5-8/h1,5-7H,2-3H3/t6-,7-/m0/s1
