20
gdb 80436	2.25758	1.67855	1.2051	1.8756	79.25	-0.2301	-0.0272	0.203	1105.744	0.169323	-403.112416	-403.10331	-403.102366	-403.145971	34.266	
C	-0.1315240555	 1.5328558406	 0.1804835192	-0.448843
C	 0.0524379312	 0.0494672587	-0.0478748523	 0.02303
C	 0.6112350441	-0.6418111143	-1.2338325682	-0.120667
N	 1.3186224605	-0.6929268578	 0.1202542353	-0.147264
C	 2.4314785475	 0.137802308	-0.4727709266	-0.231026
C	 1.8212527753	 0.0516753806	-1.8906008094	 0.23085
C	 2.5756034678	-0.9009602242	-2.82831447	-0.460318
C	 1.5251806041	 1.3255101664	-2.6429687603	 0.107211
O	 1.9892905294	 2.4095773365	-2.3913821914	-0.257959
H	 0.6153657065	 2.1566665496	-0.3090928431	 0.154487
H	-1.1150061361	 1.8398908584	-0.1910288832	 0.124888
H	-0.1032049218	 1.7462517221	 1.2546284129	 0.127178
H	-0.7441788863	-0.5346068008	 0.4131613411	 0.099901
H	 0.1410980867	-1.5255774524	-1.6585116077	 0.092597
H	 2.5368423223	 1.1393570528	-0.0509515261	 0.123552
H	 3.3792456674	-0.3937212842	-0.370185593	 0.11263
H	 2.7232819034	-1.8689754441	-2.3406928599	 0.139543
H	 2.0164150676	-1.0715472768	-3.755484604	 0.12231
H	 3.5561679624	-0.4920596116	-3.0920665638	 0.133469
H	 0.8197674736	 1.1879792024	-3.4976597094	 0.07443
82.0177	132.4032	162.0984	212.1539	253.2609	269.0822	289.9115	303.0994	367.5349	461.3872	531.8337	585.9271	680.6367	701.0539	773.2218	848.4169	909.638	921.5876	952.5129	959.9041	974.2754	1014.7811	1036.8855	1071.2575	1111.7466	1129.6593	1179.3523	1189.0085	1200.2824	1260.2998	1274.7565	1295.5429	1353.4274	1402.2919	1415.2722	1423.3314	1440.8125	1491.9473	1494.8809	1498.0271	1504.9597	1520.5383	1819.0835	2842.6783	3028.7789	3041.3663	3074.125	3095.9564	3097.7445	3106.0384	3113.5681	3126.5735	3136.4003	3160.8201
CC1C2N1CC2(C)C=O	C[C@H]1[C@@H]2N1C[C@]2(C)C=O	
InChI=1S/C7H11NO/c1-5-6-7(2,4-9)3-8(5)6/h4-6H,3H2,1-2H3	InChI=1S/C7H11NO/c1-5-6-7(2,4-9)3-8(5)6/h4-6H,3H2,1-2H3/t5-,6-,7+,8?/m0/s1
