16
gdb 10419	2.53868	2.06645	1.44924	5.2148	64.95	-0.2492	0.0103	0.2595	910.7811	0.130692	-379.902722	-379.894482	-379.893538	-379.9358	29.256	
N	 0.2377894739	 1.4375266704	-0.0647984227	-0.502051
C	 0.0431160367	 0.0007742615	 0.0463919814	-0.201277
C	 0.7484597846	-0.5083295616	 1.3024422087	 0.278913
C	 0.9612915409	-2.0437947295	 1.4100895293	-0.342446
C	 2.4619376083	-1.7001886409	 1.3509358679	-0.065428
O	 2.1790386303	-0.2860414461	 1.2137219034	-0.308975
C	 0.19397865	 0.1057063328	 2.5204942941	 0.287503
N	-0.2490761016	 0.5247603459	 3.501840432	-0.339832
H	 1.2232879043	 1.6342693025	-0.2081987853	 0.244941
H	-0.2673882918	 1.8087706911	-0.8611167058	 0.236477
H	-1.0287463912	-0.2139488189	 0.1322966516	 0.122223
H	 0.4341720212	-0.5909473866	-0.7994371242	 0.08788
H	 0.6110586935	-2.497929841	 2.3357052594	 0.139716
H	 0.5706054653	-2.5984766494	 0.5557746704	 0.123784
H	 3.0277822723	-1.9087475594	 2.2649804689	 0.12322
H	 3.0139097234	-2.0866772908	 0.4880463509	 0.115352
60.3863	110.9187	164.316	191.9008	222.8476	279.2382	382.1449	415.9683	537.9847	574.3989	662.0344	777.6834	831.8877	861.3799	884.6749	962.9194	991.7185	1011.3191	1022.3253	1091.7253	1150.3724	1160.1766	1192.9071	1207.4988	1250.0462	1263.8792	1337.7078	1348.8401	1421.7786	1483.2739	1491.4663	1528.7402	1653.0561	2356.0944	2948.2708	3038.3772	3060.5497	3082.9985	3091.6467	3156.6675	3510.4612	3594.6957
NCC1(CCO1)C#N	NC[C@]1(CCO1)C#N	
InChI=1S/C5H8N2O/c6-3-5(4-7)1-2-8-5/h1-3,6H2	InChI=1S/C5H8N2O/c6-3-5(4-7)1-2-8-5/h1-3,6H2/t5-/m1/s1
