23
gdb 53618	4.15445	0.69738	0.62387	0.1915	94.34	-0.2391	0.0617	0.3009	1870.6519	0.205956	-351.15681	-351.14642	-351.145476	-351.195542	36.496	
C	-0.0249767596	 1.5201672024	 0.0221354095	-0.497327
C	 0.008250788	 0.0641432988	 0.0115855201	 0.092116
C	 0.0467070937	-1.1396869107	 0.002283856	 0.042815
C	 0.0648155275	-2.5996169534	-0.0037745339	-0.384225
C	-1.3345815596	-3.235693603	-0.0810080163	 0.058155
C	-2.1134228661	-2.945130805	-1.3734887823	-0.193918
C	-3.2611500842	-3.9694137615	-1.3409159927	-0.203516
C	-2.6628098103	-5.2310508425	-0.6539619155	-0.208886
C	-1.314201752	-4.7766413036	-0.032212092	-0.214668
H	 0.5934735182	 1.9284783318	 0.8294401063	 0.144654
H	 0.3477683352	 1.9357771824	-0.9208577336	 0.144549
H	-1.0443037435	 1.8955589549	 0.1668782205	 0.144313
H	 0.6635878716	-2.958514975	-0.8532723875	 0.11796
H	 0.5769641822	-2.9613929699	 0.8982352187	 0.119916
H	-1.9249205727	-2.8607857606	 0.7661540109	 0.076084
H	-2.4557309145	-1.9096191866	-1.4434514292	 0.101625
H	-1.460383909	-3.1312785135	-2.2375562165	 0.089266
H	-4.0893088165	-3.5737868319	-0.7424497405	 0.097376
H	-3.6651815191	-4.1827410638	-2.3343821093	 0.092594
H	-3.3434970788	-5.6203076694	 0.1085902023	 0.097489
H	-2.5066300287	-6.041669841	-1.3714986236	 0.097842
H	-0.4759520361	-5.1429047201	-0.6385175689	 0.092554
H	-1.1617155258	-5.1618754387	 0.9804441773	 0.093235
14.1855	25.3609	58.271	77.5987	169.3543	210.8289	246.1752	310.5363	387.1929	400.2526	442.6141	588.0128	628.2341	762.3372	775.1897	808.5831	860.6042	889.2119	904.0352	962.2758	976.5722	995.8908	1036.3421	1053.6432	1053.7218	1080.0825	1108.5993	1165.4329	1169.5704	1204.6092	1216.7944	1250.4819	1273.4112	1291.8756	1309.2457	1323.5128	1340.2489	1346.2323	1366.0065	1386.8581	1415.7109	1471.2468	1479.6768	1480.014	1485.9951	1494.3636	1495.939	1518.3159	2371.1721	2999.0865	3006.5854	3015.9626	3023.5421	3026.507	3035.2011	3039.4749	3054.9816	3071.791	3082.6564	3082.7841	3084.2742	3096.0063	3102.8791
CC#CCC1CCCC1	CC#CCC1CCCC1	
InChI=1S/C9H14/c1-2-3-6-9-7-4-5-8-9/h9H,4-8H2,1H3	InChI=1S/C9H14/c1-2-3-6-9-7-4-5-8-9/h9H,4-8H2,1H3
