18
gdb 103715	2.96306	1.16279	0.98072	3.7112	74.03	-0.2662	0.0156	0.2818	1247.0068	0.144462	-439.080669	-439.070751	-439.069807	-439.115132	36.477	
C	 0.0959915048	 1.4738700139	-0.3565774633	-0.379712
C	-0.032123082	 0.0637507409	 0.2299195136	-0.244136
C	-1.4387149926	-0.4847462465	 0.0988979922	 0.373327
O	-2.4324159879	 0.2328441244	 0.7668540483	-0.448643
C	-1.9259989234	-1.0918226634	-1.1810510928	-0.37592
C	-1.6458676391	-2.0000032729	 0.015738283	 0.150166
O	-0.4975469611	-2.7935241163	 0.0058393925	-0.444211
C	-2.7654379315	-2.5652181485	 0.7353495893	 0.258878
N	-3.6364602742	-3.0506560328	 1.321813252	-0.349179
H	 1.10238178	 1.8703407014	-0.1952827953	 0.115943
H	-0.097245717	 1.4717388913	-1.434312038	 0.118786
H	-0.621547807	 2.1545831641	 0.1091030358	 0.131555
H	 0.6671334714	-0.6255608213	-0.2495730331	 0.122671
H	 0.2336926878	 0.0765394904	 1.2958710735	 0.099095
H	-2.2886443339	 0.1462602849	 1.717018323	 0.293687
H	-2.9599723443	-0.9168591267	-1.4529666701	 0.147848
H	-1.2234786295	-1.1858632058	-2.0017897723	 0.131009
H	-0.6533090907	-3.5462938872	-0.5767465484	 0.298836
81.7714	112.0833	130.4493	201.7006	219.388	256.1085	282.2812	314.7668	332.4462	400.7806	412.626	428.0734	470.8483	581.3183	642.8838	722.4152	737.8075	791.9575	896.7557	912.4547	936.0212	986.2794	1039.0129	1064.7684	1096.0665	1121.8436	1205.9715	1250.0153	1278.9133	1303.8045	1347.5018	1370.9072	1407.2902	1412.4664	1470.7617	1484.9328	1495.1758	1509.9517	2346.472	3020.1642	3042.1905	3097.79	3110.8056	3125.1957	3142.01	3242.5722	3786.835	3787.0488
CCC1(O)CC1(O)C#N	CC[C@@]1(O)C[C@]1(O)C#N	
InChI=1S/C6H9NO2/c1-2-5(8)3-6(5,9)4-7/h8-9H,2-3H2,1H3	InChI=1S/C6H9NO2/c1-2-5(8)3-6(5,9)4-7/h8-9H,2-3H2,1H3/t5-,6+/m1/s1
