20
gdb 7163	6.56802	0.79676	0.74741	1.6779	77.91	-0.2545	0.0493	0.3037	1547.3832	0.173803	-348.976649	-348.966545	-348.965601	-349.011845	36.116	
C	 0.0285746886	 1.5984028079	-0.0291141893	-0.382611
C	 0.0135301811	 0.0681263269	-0.0088657234	-0.168195
C	 0.6874077145	-0.523053262	 1.233362042	-0.18022
C	 0.7392046925	-2.0563389944	 1.2227316495	 0.127483
O	 1.4127313291	-2.5570775453	 0.0774539576	-0.418802
C	 1.357728962	-2.6044852197	 2.5293800976	-0.391576
C	 1.3722492194	-4.0591778484	 2.6040470425	 0.313022
C	 1.3708723265	-5.2590664907	 2.6676990593	-0.437343
H	 1.0537042289	 1.9858606704	-0.0167964347	 0.111483
H	-0.4622454951	 1.9886477047	-0.9260772418	 0.113641
H	-0.4903817405	 2.0152527698	 0.8415860193	 0.112018
H	-1.0229862486	-0.2906892849	-0.0580966935	 0.095842
H	 0.5130084833	-0.3271434596	-0.8995780053	 0.111223
H	 1.7149995956	-0.1357427561	 1.3168592387	 0.081897
H	 0.1625601325	-0.1878821181	 2.138124216	 0.093688
H	-0.2797690254	-2.4516481247	 1.1340083002	 0.099701
H	 2.3362062429	-2.2857832284	 0.1331990491	 0.277575
H	 2.3829366714	-2.2165418102	 2.6226214319	 0.117316
H	 0.8030861296	-2.1957669853	 3.3837750114	 0.130513
H	 1.3727693618	-6.319429372	 2.718765653	 0.193342
55.8431	85.2652	108.9212	121.4453	194.0318	249.5517	272.4865	313.1743	346.2903	356.4283	395.7895	469.7369	595.5208	617.3357	636.5474	747.8938	853.9991	865.0759	892.3843	963.8915	969.724	1031.5307	1051.2432	1092.5355	1116.1743	1144.4247	1193.6917	1244.0401	1272.1535	1310.189	1328.5845	1360.2421	1367.6104	1394.8	1414.5033	1422.587	1462.8312	1479.7274	1494.5083	1500.6332	1511.4833	2241.5458	2987.6302	3000.9995	3023.8601	3028.0789	3033.8809	3040.6478	3057.4164	3072.5253	3096.6545	3101.947	3508.1201	3792.5047
CCCC(O)CC#C	CCC[C@@H](O)CC#C	
InChI=1S/C7H12O/c1-3-5-7(8)6-4-2/h1,7-8H,4-6H2,2H3	InChI=1S/C7H12O/c1-3-5-7(8)6-4-2/h1,7-8H,4-6H2,2H3/t7-/m0/s1
