23
gdb 118849	2.25793	0.96945	0.81464	0.8474	83.07	-0.2346	0.0736	0.3082	1568.7887	0.202564	-425.402428	-425.391478	-425.390534	-425.438715	39.724	
C	 0.0582407796	 1.5634394776	 0.2208656402	-0.381332
C	 0.2333970021	 0.0478467919	 0.0959578896	-0.174802
C	 0.5687162746	-0.6277169131	 1.4327949659	-0.227003
C	 0.7201206197	-2.1311779735	 1.3273983208	 0.348219
O	-0.4625002228	-2.8343620756	 1.0355281805	-0.471178
C	 2.01965078	-2.7206097558	 0.798102931	-0.388331
C	 1.6496127104	-2.8810900908	 2.2456407453	 0.077342
O	 2.4391477724	-2.2057527985	 3.1710320854	-0.233567
C	 1.8121364491	-2.0725404004	 4.4332336257	-0.238135
H	 0.9734332875	 2.0371297732	 0.5931182254	 0.115682
H	-0.1843065933	 2.0193164039	-0.7441720929	 0.110866
H	-0.7486232894	 1.8118127783	 0.9191575058	 0.115566
H	-0.6897570781	-0.3887151059	-0.3083771528	 0.086387
H	 1.0254018469	-0.1748072595	-0.6306522229	 0.096978
H	 1.4938694061	-0.2082229	 1.8424006438	 0.107835
H	-0.228967406	-0.4104816024	 2.1555343299	 0.097272
H	-0.6497688359	-2.7243178205	 0.0969234051	 0.282717
H	 1.9666992195	-3.5988925235	 0.1644378611	 0.111593
H	 2.8301800832	-2.0338767033	 0.5780682769	 0.121348
H	 1.2987491458	-3.8627460729	 2.5676993527	 0.092456
H	 0.8832201059	-1.4894192438	 4.3695493922	 0.114235
H	 1.5754649977	-3.0548925345	 4.8686160977	 0.109991
H	 2.5167214851	-1.555207711	 5.0885989836	 0.125862
80.2382	84.9787	85.7261	140.749	165.3846	196.3037	243.9966	249.3218	299.5499	310.6703	363.9797	426.8114	446.4995	473.0563	585.1544	738.2334	756.1939	819.6505	871.9367	901.2941	915.95	934.3454	1009.7015	1036.4191	1049.3484	1063.3918	1089.7895	1118.449	1128.5979	1177.107	1183.0703	1220.4814	1253.5546	1273.3573	1290.3769	1317.7521	1334.2259	1346.4543	1394.6973	1404.8209	1411.1397	1469.8509	1477.4265	1486.4056	1492.9682	1494.1461	1498.7695	1508.5623	1509.7586	2988.2616	3011.1011	3020.7898	3029.9214	3042.7897	3044.4252	3080.1745	3094.4809	3097.58	3101.6533	3118.8234	3132.6137	3226.0441	3795.9827
CCCC1(O)CC1OC	CCC[C@@]1(O)C[C@H]1OC	
InChI=1S/C7H14O2/c1-3-4-7(8)5-6(7)9-2/h6,8H,3-5H2,1-2H3	InChI=1S/C7H14O2/c1-3-4-7(8)5-6(7)9-2/h6,8H,3-5H2,1-2H3/t6-,7-/m1/s1
