16
gdb 25832	3.83867	1.2082	0.92423	2.286	78.84	-0.2573	-0.073	0.1843	1207.0645	0.125901	-400.830006	-400.822327	-400.821383	-400.86265	28.583	
C	 0.0186911561	 1.5154031086	 0.0084011366	-0.499497
C	 0.0368751689	-0.0009620758	 0.0029233289	 0.33325
O	 1.0796295	-0.6192014873	-0.0072666231	-0.293061
C	-1.2779641227	-0.7343610012	 0.0103920008	 0.183404
C	-2.5188192432	-0.0948333024	 0.0217472617	-0.218983
C	-3.674788612	-0.8724138882	 0.0278194968	 0.016855
N	-3.6709500399	-2.2066886962	 0.0234405006	-0.263367
C	-2.4780186916	-2.8125626061	 0.012562456	 0.011797
C	-1.2675793713	-2.1313007511	 0.0057383033	-0.176582
H	 1.045713695	 1.8802709535	 0.0023567849	 0.147221
H	-0.5124294177	 1.901528792	-0.8682871339	 0.145611
H	-0.4999701787	 1.895431476	 0.8951422751	 0.145587
H	-2.6004011349	 0.9857686573	 0.0258847139	 0.104586
H	-4.6520729183	-0.3955794773	 0.0366451283	 0.114959
H	-2.4949884173	-3.8996624287	 0.00915411	 0.117056
H	-0.3195717525	-2.6552684933	-0.0030786599	 0.131163
63.8525	154.1516	180.4912	213.8477	358.4201	390.0018	444.6947	461.7331	591.1492	617.4293	679.1059	742.9495	770.1179	844.0874	911.9036	959.8957	994.6547	1009.9679	1015.3637	1051.8928	1088.3173	1099.7142	1112.6143	1242.8965	1276.001	1290.4111	1350.3372	1386.0461	1440.2526	1468.4182	1477.8568	1521.4014	1599.5721	1630.2194	1786.4509	3040.8839	3102.9687	3156.2362	3158.3517	3160.5282	3202.1718	3216.8635
CC(=O)C1=CC=NC=C1	CC(=O)c1ccncc1	
InChI=1S/C7H7NO/c1-6(9)7-2-4-8-5-3-7/h2-5H,1H3	InChI=1S/C7H7NO/c1-6(9)7-2-4-8-5-3-7/h2-5H,1H3
