23
gdb 80859	2.20808	1.62854	1.34945	1.6583	84.99	-0.2304	0.0805	0.3109	1125.3981	0.205569	-388.283838	-388.274747	-388.273803	-388.316705	36.16	
C	-0.1321717294	 1.5858122535	-0.0345219142	-0.439942
C	 0.0074955017	 0.0686993314	-0.0262015083	-0.003039
C	 1.1472579126	-0.5943851927	-0.8450337903	 0.097024
C	 2.1126227566	-0.2584460735	 0.3117752099	-0.293473
C	 0.8301119729	-0.5876246506	 1.1520850296	 0.281931
C	 0.6722091556	-0.198764239	 2.6025471184	-0.510638
C	 0.6958014735	-2.082367838	 0.774407138	 0.124358
C	-0.6043701814	-2.7953061863	 1.1100782961	-0.420421
O	 0.8910130737	-1.9973684005	-0.6628713625	-0.302414
H	 0.8083839857	 2.112666932	 0.1467952467	 0.117026
H	-0.5201158881	 1.928869706	-0.9999756552	 0.118531
H	-0.842342145	 1.9103346035	 0.7341698103	 0.118694
H	-0.9701617544	-0.3833414478	-0.2187368831	 0.068055
H	 1.3470866499	-0.3890703369	-1.8963872818	 0.071515
H	 2.9826232814	-0.9095027711	 0.432452322	 0.095173
H	 2.4125761824	 0.787738004	 0.3641093338	 0.098174
H	 0.8011465444	 0.8793554438	 2.7416931	 0.118599
H	-0.3193376304	-0.4667970109	 2.9843946648	 0.119606
H	 1.4163833107	-0.7043951083	 3.2293416783	 0.117803
H	 1.5305725513	-2.6530983402	 1.2083139632	 0.065363
H	-1.4828623126	-2.2266873618	 0.7932090467	 0.1182
H	-0.6320063322	-3.7653135339	 0.6048814632	 0.127961
H	-0.6756123689	-2.9746541828	 2.1882791845	 0.111914
176.7986	185.3344	198.7274	201.9367	206.5212	233.5963	298.8925	349.9772	383.183	491.1222	500.1125	543.3258	606.1083	653.6809	782.1493	811.6141	829.713	859.2014	893.037	944.3512	957.8203	993.04	1028.1246	1040.4795	1059.8882	1082.3418	1111.3913	1115.6538	1127.5567	1158.4216	1201.0625	1215.1214	1244.8096	1256.0689	1271.6708	1302.2038	1345.8199	1384.2368	1397.081	1410.1361	1412.5196	1416.3701	1485.9217	1487.5944	1493.3562	1495.8703	1497.6145	1500.2534	1510.6863	2983.1001	3024.2827	3032.6904	3038.8141	3056.5693	3068.814	3085.8938	3088.968	3095.927	3107.7534	3110.8085	3119.9881	3125.3336	3143.0436
CC1C2CC1(C)C(C)O2	C[C@H]1[C@H]2C[C@]1(C)[C@@H](C)O2	
InChI=1S/C8H14O/c1-5-7-4-8(5,3)6(2)9-7/h5-7H,4H2,1-3H3	InChI=1S/C8H14O/c1-5-7-4-8(5,3)6(2)9-7/h5-7H,4H2,1-3H3/t5-,6+,7+,8-/m0/s1
