20
gdb 93518	2.8069	1.33828	1.03877	3.7965	75.96	-0.2343	0.0312	0.2655	1200.0607	0.171463	-440.331393	-440.322428	-440.321484	-440.364868	34.098	
C	-0.0118463335	 1.5950343486	-0.0925832274	-0.390229
C	 0.0147243134	 0.0644856677	 0.0033060695	 0.02795
N	 0.6684838741	-0.5270536642	-1.16489971	-0.321253
C	 1.9614600456	-0.955562837	-1.2327318258	 0.376429
O	 2.4787613818	-1.352977524	-2.2598173085	-0.375942
C	 2.7237666742	-0.9607794699	 0.0909191072	-0.194632
O	 2.1314292576	-0.2036426907	 1.127985388	-0.258101
C	 0.7407743926	-0.469309411	 1.252254974	 0.12817
C	 0.2683947099	 0.1337632488	 2.565688501	-0.415572
H	 1.0005545156	 1.9969081515	 0.00268721	 0.137953
H	-0.4159082416	 1.9067073737	-1.0605387815	 0.113894
H	-0.6404813451	 2.0328108941	 0.6879266565	 0.120527
H	-1.0159537499	-0.3132842211	 0.0318252312	 0.086406
H	 0.1998514378	-0.4769220897	-2.0591500642	 0.244947
H	 2.8476389149	-2.0146577815	 0.390888985	 0.119996
H	 3.718600482	-0.549468959	-0.0925700538	 0.141938
H	 0.5842089105	-1.5613257756	 1.2789159347	 0.074174
H	 0.5012915162	 1.2003286216	 2.6132109584	 0.134944
H	-0.8111211871	 0.0036081791	 2.6884601144	 0.118025
H	 0.7737386409	-0.3595473914	 3.399504851	 0.130376
85.3364	108.4909	207.5354	225.2988	258.2727	289.3079	301.0724	398.2412	423.8495	438.8358	501.2686	538.4269	613.0194	649.3372	731.4042	756.2874	862.2815	881.9349	967.4792	1009.0583	1019.542	1036.9188	1107.6222	1121.7686	1142.2087	1161.5698	1183.8261	1267.6047	1302.308	1343.2496	1368.6537	1371.2739	1395.0136	1398.9117	1411.8015	1417.5703	1466.9573	1475.1022	1482.3216	1492.9179	1499.8482	1510.9418	1795.2187	2956.2914	2977.7844	3016.9582	3042.568	3049.7961	3111.1266	3114.0126	3122.754	3127.46	3131.6557	3593.2131
CC1NC(=O)COC1C	C[C@H]1NC(=O)CO[C@H]1C	
InChI=1S/C6H11NO2/c1-4-5(2)9-3-6(8)7-4/h4-5H,3H2,1-2H3,(H,7,8)	InChI=1S/C6H11NO2/c1-4-5(2)9-3-6(8)7-4/h4-5H,3H2,1-2H3,(H,7,8)/t4-,5+/m1/s1
