22
gdb 95627	2.01349	1.76249	1.02079	3.7558	83.35	-0.2316	0.0348	0.2664	1224.1478	0.195786	-404.405848	-404.396668	-404.395724	-404.439746	34.931	
C	 0.0483745368	 1.5801225674	-0.059573353	-0.397483
C	 0.0453322832	 0.0466538287	 0.0175264293	 0.06292
C	 0.5899739469	-0.5441706691	-1.2864959387	-0.203161
C	 0.8901322131	-2.0326269578	-1.1501744447	-0.231832
C	 1.9599022911	-2.2077964591	-0.0754749357	-0.298144
C	 1.6422569359	-1.5049698221	 1.2390954199	 0.403954
O	 2.1589405984	-1.8860930018	 2.2776889355	-0.390246
N	 0.7764392876	-0.434087747	 1.2022803945	-0.100265
C	 0.3666044956	 0.1316115143	 2.4823445103	-0.349028
H	 1.0744223438	 1.9603721807	-0.1024634758	 0.123918
H	-0.4748078054	 1.9009436038	-0.96574526	 0.118243
H	-0.4538252029	 2.0418198031	 0.7932618754	 0.121948
H	-1.0032455637	-0.2804852456	 0.1259804086	 0.078536
H	-0.1416838282	-0.3494260808	-2.0773525464	 0.101554
H	 1.5097355685	-0.0137942801	-1.5680646438	 0.100699
H	-0.0217135393	-2.5750652567	-0.8688279395	 0.103303
H	 1.2270776741	-2.4538642361	-2.1029600948	 0.099839
H	 2.1388224229	-3.255152918	 0.1780453613	 0.127033
H	 2.9181801387	-1.8083347203	-0.4329356356	 0.12379
H	 0.7567298154	-0.5078765709	 3.2720726876	 0.167057
H	 0.7566056628	 1.1449558225	 2.6260080094	 0.124004
H	-0.7281637153	 0.171520845	 2.5435787264	 0.113362
66.9172	104.5839	169.4169	197.1577	254.0657	297.9243	332.8844	384.2712	414.4001	450.8592	466.4235	531.891	578.8387	653.3198	679.911	849.6368	871.907	919.3413	923.6445	989.9198	997.6076	1061.9653	1073.9351	1115.1721	1121.4112	1145.5064	1162.1454	1192.8541	1222.5207	1271.6528	1284.786	1339.2153	1349.2997	1363.5288	1376.5945	1389.9683	1409.8498	1421.6596	1447.0899	1467.4396	1487.9622	1493.4184	1497.826	1500.3366	1510.3014	1526.0677	1751.6936	2946.2113	3018.6022	3020.5228	3025.771	3033.3295	3040.9716	3073.6057	3074.3896	3076.6875	3106.9874	3110.1149	3126.8277	3166.7693
CC1CCCC(=O)N1C	C[C@H]1CCCC(=O)N1C	
InChI=1S/C7H13NO/c1-6-4-3-5-7(9)8(6)2/h6H,3-5H2,1-2H3	InChI=1S/C7H13NO/c1-6-4-3-5-7(9)8(6)2/h6H,3-5H2,1-2H3/t6-/m0/s1
