21
gdb 114663	3.44093	1.12436	1.04441	0.7913	78.29	-0.2293	0.0692	0.2985	1256.0479	0.183144	-424.202064	-424.193553	-424.192609	-424.235018	33.504	
C	-0.0865113445	 1.5320373395	-0.0747486618	-0.37848
C	 0.0058175906	 0.0167474673	 0.1315684702	-0.20364
C	-1.3573636227	-0.6613740428	 0.0618294893	 0.151735
O	-2.0098862748	-0.4254790637	-1.223347587	-0.300951
C	-2.3569749677	-1.7551405588	-1.6342415809	 0.06302
C	-2.8905781135	-2.4255690241	-0.3469167214	-0.2512
C	-1.4053401824	-2.1968930011	 0.0878877569	-0.104048
C	-1.0255220485	-2.5286021312	-1.3888876315	 0.12805
O	-1.039915445	-3.9194187698	-1.6156519315	-0.440818
H	 0.9013861074	 1.9990672645	-0.0215522133	 0.108399
H	-0.5229130992	 1.7579763806	-1.051262366	 0.135968
H	-0.7184911454	 1.9971592763	 0.6900406401	 0.111874
H	 0.6813319723	-0.4174128072	-0.6131251437	 0.098551
H	 0.4387229929	-0.2024525922	 1.1166445818	 0.093832
H	-1.9957782847	-0.2413282521	 0.853419377	 0.070849
H	-2.8865818552	-1.7258900046	-2.5866723847	 0.072224
H	-3.6737751702	-1.8975177142	 0.2017668368	 0.095167
H	-3.1289519088	-3.4786796164	-0.4798307893	 0.118897
H	-0.9448251137	-2.711515004	 0.9302669479	 0.076497
H	-0.126387872	-2.0576392916	-1.8030320803	 0.067542
H	-1.0036270848	-4.0648370343	-2.5663815587	 0.286533
82.3466	148.9402	199.701	260.9894	287.3919	306.0638	317.8897	386.805	471.4508	496.8201	556.6811	654.2856	765.5924	837.9743	854.3016	871.05	894.132	925.766	942.1407	974.6831	980.125	1011.832	1046.8786	1069.1893	1085.4277	1114.3509	1122.5194	1137.9602	1170.4178	1195.3776	1231.0059	1254.1851	1264.0006	1276.4831	1291.9508	1314.3724	1322.1921	1360.4451	1406.62	1417.0537	1420.5398	1479.2423	1483.3168	1497.6563	1510.2028	2985.9025	3024.0735	3036.2619	3036.567	3072.1976	3078.2336	3103.0878	3120.9466	3122.6556	3130.6396	3167.1071	3814.9324
CCC1OC2CC1C2O	CC[C@H]1O[C@@H]2C[C@H]1[C@H]2O	
InChI=1S/C7H12O2/c1-2-5-4-3-6(9-5)7(4)8/h4-8H,2-3H2,1H3	InChI=1S/C7H12O2/c1-2-5-4-3-6(9-5)7(4)8/h4-8H,2-3H2,1H3/t4-,5-,6-,7-/m1/s1
