21
gdb 83771	2.73655	1.8182	1.62906	1.3482	80.71	-0.2329	0.0806	0.3135	958.0988	0.185578	-387.063361	-387.056271	-387.055327	-387.094294	30.066	
C	-0.0893588629	 1.6316109234	 0.0445666405	-0.43423
C	 0.0646582903	 0.1148337146	 0.0301956876	 0.048319
C	 1.0591220827	-0.6152568327	-0.9322774609	-0.084148
C	 2.361885621	 0.1751376267	-1.0175311827	-0.089262
O	 2.7678048218	 0.5735350676	 0.2947830765	-0.268824
C	 2.3300656726	-0.3627609993	 1.2685791469	 0.107482
C	 2.6026710833	-1.8199033153	 0.8050093636	-0.262366
C	 1.2107732646	-1.7606868746	 0.1504888864	-0.033174
C	 0.7749783791	-0.6521444649	 1.1604961962	-0.060334
H	 0.8648350546	 2.1350486344	 0.210412403	 0.139053
H	-0.5152449644	 1.9943226253	-0.8983185557	 0.107431
H	-0.7734574119	 1.9341090026	 0.8457419077	 0.109292
H	-0.9237277233	-0.3452886918	-0.0960858862	 0.06961
H	 0.7024324423	-0.8995114374	-1.9253504884	 0.06193
H	 3.1501095958	-0.423533896	-1.4979606126	 0.093905
H	 2.2402111106	 1.0932769859	-1.6021929804	 0.105434
H	 2.7271999014	-0.0236103039	 2.2263481162	 0.076602
H	 3.4981583199	-1.9982555187	 0.2021620798	 0.097648
H	 2.5983356358	-2.5141184874	 1.6509159045	 0.099113
H	 0.6323183293	-2.6660336411	-0.038772995	 0.060922
H	 0.2767320371	-0.8616170373	 2.1096142429	 0.055596
198.6165	205.7452	244.4299	321.0594	405.7524	428.7592	484.3271	582.017	596.191	683.227	749.7232	790.2054	812.6678	832.6077	865.7257	913.0587	938.7957	950.4945	985.3294	991.9942	1016.8373	1041.7032	1064.0574	1087.9216	1107.2718	1120.8067	1145.9298	1162.7997	1193.2227	1203.2291	1232.1117	1237.8589	1259.3582	1278.3495	1295.7648	1314.2274	1335.048	1356.1179	1376.0136	1405.444	1413.7101	1481.7052	1492.2932	1511.3828	1524.8389	2989.9168	3017.4034	3029.7985	3046.8625	3063.0066	3076.069	3080.4433	3083.0988	3097.3448	3098.0448	3104.9964	3133.6592
CC1C2COC3CC2C13	C[C@H]1[C@H]2CO[C@@H]3C[C@H]2[C@H]13	
InChI=1S/C8H12O/c1-4-6-3-9-7-2-5(6)8(4)7/h4-8H,2-3H2,1H3	InChI=1S/C8H12O/c1-4-6-3-9-7-2-5(6)8(4)7/h4-8H,2-3H2,1H3/t4-,5+,6+,7+,8-/m0/s1
