14
gdb 131285	3.39922	1.1309	0.89634	2.706	63.7	-0.25	-0.0409	0.209	1212.4725	0.101213	-470.033918	-470.025817	-470.024873	-470.068431	28.013	
O	-0.1852731678	 1.3383722883	-0.2028947731	-0.420184
C	-0.0555435496	 0.0090532811	-0.1488167813	 0.465775
N	-0.0439802565	-0.8349980932	-1.1561919702	-0.375588
C	 0.1149035169	-2.0322428281	-0.51613798	 0.042464
N	 0.1979038531	-1.9724853892	 0.7971734419	-0.260664
N	 0.0820298674	-0.6237162197	 1.0328852199	-0.035494
C	 0.1383773239	-0.0951051179	 2.3721035776	-0.254917
C	 1.4971860294	-0.330089942	 3.0338856044	 0.158409
O	 1.6792816259	-0.1672324241	 4.2083044284	-0.223799
H	-0.2760454229	 1.5749065195	-1.1348905849	 0.325629
H	 0.1696227011	-2.9725795022	-1.0439486998	 0.134383
H	-0.0446783121	 0.982717211	 2.3225540385	 0.172141
H	-0.6402788469	-0.5435311304	 2.9959829574	 0.16581
H	 2.3021555981	-0.6502784131	 2.3381015611	 0.106035
28.4125	71.0393	103.805	249.8315	284.6287	357.3644	410.2294	425.0096	508.2826	673.4048	690.8345	737.5138	741.1978	833.0217	908.2495	984.429	1023.7281	1036.8657	1123.2744	1180.9564	1231.1136	1289.8892	1308.7032	1322.4708	1353.7045	1410.4589	1444.9571	1473.7515	1594.2292	1618.4179	1847.481	2912.0216	3065.1726	3116.7913	3261.9291	3804.1624
OC1=NC=NN1CC=O	Oc1ncnn1CC=O	
InChI=1S/C4H5N3O2/c8-2-1-7-4(9)5-3-6-7/h2-3H,1H2,(H,5,6,9)	InChI=1S/C4H5N3O2/c8-2-1-7-4(9)5-3-6-7/h2-3H,1H2,(H,5,6,9)
