17
gdb 75729	2.44598	1.54887	0.99766	2.0488	77.54	-0.2434	-0.0854	0.158	1171.3948	0.134492	-421.896264	-421.887238	-421.886294	-421.93056	32.167	
C	-0.1363400653	 1.5783608603	 0.0004909852	-0.393084
C	 0.0592332229	 0.0596953555	 0.0096048947	-0.238403
C	 0.8607196559	-0.4785049749	-1.1802179009	 0.387725
O	 0.6568700262	-0.2338638834	-2.3464156136	-0.323753
C	 1.944267611	-1.341044685	-0.6427741819	-0.27782
C	 1.9482109477	-1.3498935102	 0.7034632835	 0.209696
C	 2.8532477161	-2.0573295977	 1.6511399173	-0.491542
C	 0.8439453615	-0.4669287793	 1.2093383828	 0.332966
O	 0.6424347413	-0.2160876756	 2.3742862803	-0.316438
H	 0.8264377984	 2.0989045599	 0.003490368	 0.123799
H	-0.6818538647	 1.8789806824	-0.8968150474	 0.140775
H	-0.6948212785	 1.8908252196	 0.8858256311	 0.138739
H	-0.9236768879	-0.4310379785	 0.0049404137	 0.132169
H	 2.629697516	-1.8673208723	-1.2975587337	 0.128903
H	 3.648643968	-2.5977279055	 1.134319713	 0.133338
H	 3.295848349	-1.3423296656	 2.3527455344	 0.157845
H	 2.2817635221	-2.76492366	 2.2626206936	 0.155085
53.5895	90.5946	158.2678	191.3747	214.7168	252.2343	255.9415	366.9545	404.268	535.2244	572.6861	609.185	687.4023	711.6448	777.9969	818.8054	923.9944	944.3961	1016.8626	1043.6939	1057.887	1090.891	1108.8866	1181.1998	1230.5942	1247.7029	1305.6286	1328.2613	1402.8864	1409.4095	1468.1064	1472.6108	1494.3895	1498.3307	1670.3173	1797.1435	1834.0615	3027.2394	3039.976	3048.0471	3093.7598	3119.6883	3135.2565	3138.0718	3204.8081
CC1C(=O)C=C(C)C1=O	C[C@H]1C(=O)C=C(C)C1=O	
InChI=1S/C7H8O2/c1-4-3-6(8)5(2)7(4)9/h3,5H,1-2H3	InChI=1S/C7H8O2/c1-4-3-6(8)5(2)7(4)9/h3,5H,1-2H3/t5-/m0/s1
