16
gdb 17857	5.17142	1.58209	1.48701	2.2141	64.22	-0.2367	0.0665	0.3032	869.8168	0.130965	-383.657125	-383.650426	-383.649481	-383.688253	25.146	
C	-0.0277981161	 1.4424776683	-0.105587118	-0.088546
O	 1.4269033946	 1.466925167	-0.1573867879	-0.285588
C	 1.4699792365	 0.0581073497	 0.0838050801	 0.021281
C	-0.043008028	-0.0750863778	 0.0483590794	-0.222345
C	 0.8174653313	-0.6818002074	-1.0284025995	 0.286217
C	 0.8981633204	-0.4562826732	-2.5331658854	-0.140881
O	 1.0841589285	-1.8770127677	-2.7460720441	-0.276382
C	 0.9617007347	-2.168988132	-1.33841246	-0.1532
H	-0.3852827974	 1.9767388095	 0.7811908369	 0.114783
H	-0.4849896666	 1.8698888371	-1.0057696554	 0.110176
H	 2.2404335545	-0.3271540691	 0.7434119236	 0.107683
H	-0.7240022907	-0.654012024	 0.6589186274	 0.103363
H	-0.0176045673	-0.0887956299	-3.0149281225	 0.100696
H	 1.7541296285	 0.1330976095	-2.8812411359	 0.115957
H	 1.8551928685	-2.6665547374	-0.9385977204	 0.105141
H	 0.0804659586	-2.7885147628	-1.1227861181	 0.101645
93.2799	164.5609	197.4413	288.3946	420.1038	451.7414	598.3071	763.5824	818.0902	858.7564	876.4474	943.9889	955.0782	972.1391	981.5515	1015.8873	1021.965	1028.2538	1068.0833	1082.9164	1133.8576	1149.7988	1155.753	1165.7362	1180.1995	1239.8166	1254.0949	1307.7125	1330.5398	1371.1178	1459.1906	1511.426	1516.1575	1534.9422	2996.2746	3011.2442	3027.3833	3037.9275	3061.3216	3077.4664	3168.9691	3195.4359
C1OC2C1C21COC1	C1O[C@H]2[C@@H]1C12COC1	
InChI=1S/C6H8O2/c1-4-5(8-1)6(4)2-7-3-6/h4-5H,1-3H2	InChI=1S/C6H8O2/c1-4-5(8-1)6(4)2-7-3-6/h4-5H,1-3H2/t4-,5+/m1/s1
