17
gdb 45612	5.15448	0.98639	0.88425	2.885	77.35	-0.2315	-0.0108	0.2207	1297.0542	0.138446	-414.188223	-414.180226	-414.179282	-414.221372	29.773	
N	-0.5526714402	 1.0300481365	 0.9068336015	-0.54878
C	-0.1275253761	-0.0128260578	 0.3233417306	 0.38149
C	-0.8344673557	-0.7861528817	-0.7884026059	-0.237258
N	 0.0411552138	-1.9103341134	-1.1355515433	-0.328722
C	 1.0635035327	-1.8228460976	-0.3688536076	 0.411918
N	 1.0515248231	-0.7412479664	 0.5058013156	-0.392968
C	 2.1934817536	-2.7770939462	-0.3793641904	-0.130666
C	 1.8769940194	-4.2357450646	-0.2745998214	-0.219256
N	 2.3226875052	-3.6631698533	-1.5416457928	-0.300835
H	 0.0976985051	 1.3649444052	 1.6192454179	 0.207883
H	-1.8146441851	-1.1416846351	-0.4521427766	 0.144575
H	-1.0108653167	-0.1458550319	-1.6594109709	 0.1462
H	 1.7635084157	-0.528341302	 1.1842558924	 0.257574
H	 3.1311220297	-2.4058838029	 0.0272451156	 0.096027
H	 2.5873189509	-4.897307425	 0.2134809953	 0.124781
H	 0.829434265	-4.4983358715	-0.1603404214	 0.132648
H	 1.5099315196	-3.4932746421	-2.1349947086	 0.255389
53.9881	119.6707	179.0589	188.5779	332.1463	354.4159	391.3748	482.2488	526.0807	662.8094	699.2116	730.7936	836.2048	851.615	884.2287	892.9367	970.7171	985.6611	986.5847	1002.9895	1065.4669	1090.0874	1119.7722	1136.4039	1182.547	1185.757	1192.6457	1279.2644	1286.936	1316.5154	1323.6921	1387.6988	1456.4893	1477.8464	1501.847	1695.5507	1766.7818	3049.2718	3080.0361	3112.6784	3137.127	3207.4295	3458.5922	3469.3351	3659.5933
N=C1CN=C(N1)C1CN1	[NH][C]1CN=C(N1)[C@H]1CN1	
InChI=1S/C5H8N4/c6-4-2-8-5(9-4)3-1-7-3/h3,7H,1-2H2,(H2,6,8,9)	InChI=1S/C5H8N4/c6-4-2-8-5(9-4)3-1-7-3/h3,7H,1-2H2,(H2,6,8,9)/t3-/m1/s1
