16
gdb 112316	3.03999	1.43013	1.10423	4.594	65.14	-0.2776	0.0119	0.2895	1090.0318	0.124586	-475.029691	-475.021831	-475.020887	-475.06264	28.602	
C	 0.0990003083	 1.3670539206	 0.0735519339	-0.248648
O	 0.0015728195	-0.0509215058	-0.00658807	-0.227035
C	 0.6216817221	-0.5988298388	-1.1123403446	 0.191124
O	 2.0531468608	-0.4747170623	-1.024885592	-0.250835
C	 2.6625028255	-1.7020266001	-0.9976731922	 0.451544
O	 3.8368426666	-1.8414153668	-0.8694770142	-0.332492
N	 1.7015249554	-2.7493964254	-1.1811971378	-0.171053
C	 0.806461007	-2.8833123719	 0.0007709388	-0.247749
C	 0.3862454749	-2.099246786	-1.18005478	-0.068905
H	 1.13859026	 1.6862383404	 0.2027971955	 0.143131
H	-0.3135162198	 1.8416322034	-0.8279096585	 0.116714
H	-0.4884347766	 1.6725907032	 0.9406944305	 0.138751
H	 0.3172508313	-0.0794244975	-2.0318463299	 0.091641
H	 0.421377933	-3.8858241021	 0.150468394	 0.140085
H	 1.0703363114	-2.3400086395	 0.9023319267	 0.154881
H	-0.3520915798	-2.4766180415	-1.8778983001	 0.118844
80.4146	119.0302	165.7136	185.6365	248.7046	346.3689	449.5669	508.614	553.3595	680.0806	747.6991	780.5132	819.9829	869.0203	896.3644	963.9351	988.8386	1016.6885	1070.3287	1094.7536	1100.9488	1113.671	1165.6552	1167.3037	1180.5184	1234.3776	1280.861	1379.3104	1390.435	1405.428	1481.649	1486.8578	1507.7723	1510.6468	1909.2521	3005.4139	3013.6551	3082.7261	3132.8972	3140.4456	3182.8111	3228.657
COC1OC(=O)N2CC12	CO[C@H]1OC(=O)N2C[C@@H]12	
InChI=1S/C5H7NO3/c1-8-4-3-2-6(3)5(7)9-4/h3-4H,2H2,1H3	InChI=1S/C5H7NO3/c1-8-4-3-2-6(3)5(7)9-4/h3-4H,2H2,1H3/t3-,4-,6?/m0/s1
