25
gdb 122160	2.86745	0.73959	0.66471	1.2661	90.08	-0.2501	0.0829	0.333	1846.4767	0.226622	-389.48616	-389.474952	-389.474008	-389.522977	41.258	
C	-0.4219128475	 1.4831387721	 0.0661810351	-0.380733
C	 0.0914536257	 0.0462453423	-0.0597692642	-0.159416
C	 0.655838068	-0.5112910101	 1.251799169	-0.16089
C	 1.1629807714	-1.953852489	 1.1196593587	-0.260274
C	 1.6870728443	-2.5562656613	 2.4154166099	 0.336689
C	 2.9756463267	-1.9564513703	 2.9480809708	-0.460072
C	 0.6659836993	-3.0380787395	 3.4368876114	-0.365207
C	 1.4840482294	-4.0313592467	 2.6465148344	 0.052645
O	 0.8770259173	-4.7802451361	 1.6318312303	-0.420094
H	 0.3781862319	 2.1637402023	 0.3786165845	 0.11167
H	-0.8193277709	 1.8520631267	-0.8847563635	 0.109104
H	-1.2225195643	 1.5537272462	 0.8111567576	 0.111482
H	-0.7211654193	-0.6048913217	-0.4085868999	 0.093164
H	 0.8669369915	 0.0009265811	-0.8360335716	 0.09327
H	 1.4656427884	 0.1441661189	 1.5986812841	 0.090464
H	-0.1199183687	-0.4701123688	 2.0286716371	 0.09055
H	 0.3605963603	-2.5902829091	 0.7341117064	 0.107414
H	 1.9625796289	-1.9886716705	 0.3660582546	 0.089315
H	 2.8475802059	-0.9031449104	 3.2201578774	 0.118914
H	 3.3202804519	-2.4844980782	 3.8429711949	 0.109204
H	 3.7737473776	-2.0136933687	 2.198380262	 0.1155
H	 0.8710864831	-2.9090487149	 4.4949524483	 0.103951
H	-0.3818358438	-2.9526884717	 3.1655095288	 0.107372
H	 2.2816825048	-4.5577874061	 3.1727981939	 0.079395
H	 0.2689767984	-5.4007130667	 2.0463933198	 0.286586
45.0843	75.4193	108.2746	128.9821	196.616	216.1803	241.8666	249.3493	273.6351	293.1403	364.6018	393.5792	425.1334	469.0682	565.9483	717.7436	734.1865	789.9348	809.9331	884.4405	900.7174	923.9808	950.9823	969.7221	1023.5924	1034.5353	1043.8565	1063.7182	1066.7883	1109.5304	1129.2948	1143.6576	1185.8236	1235.5317	1275.6781	1280.7344	1297.675	1327.2678	1330.3693	1344.8904	1374.6568	1398.0532	1412.9333	1418.0598	1425.6752	1478.0087	1486.1244	1489.7722	1494.4006	1500.0452	1501.7725	1506.8853	1513.4795	3006.1592	3009.0288	3018.2174	3024.1344	3027.758	3032.0427	3053.8177	3082.5671	3084.7863	3087.8968	3093.8169	3097.4526	3098.9333	3121.1417	3208.1452	3808.3414
CCCCC1(C)CC1O	CCCC[C@@]1(C)C[C@H]1O	
InChI=1S/C8H16O/c1-3-4-5-8(2)6-7(8)9/h7,9H,3-6H2,1-2H3	InChI=1S/C8H16O/c1-3-4-5-8(2)6-7(8)9/h7,9H,3-6H2,1-2H3/t7-,8+/m1/s1
