16
gdb 48275	2.90659	1.05707	0.81897	3.8576	70.4	-0.2793	-0.0594	0.2199	1356.6186	0.12108	-437.864677	-437.855333	-437.854389	-437.90093	31.899	
O	-0.1049193794	 0.1313109592	 0.7347793963	-0.216996
C	 0.0546432777	 1.0180198331	-0.0514284372	 0.151064
C	 1.3592993057	 1.841836799	-0.1521478258	-0.100366
O	 1.3970862263	 2.349033803	-1.4621186971	-0.246428
C	 2.6481471651	 2.8534054073	-1.8626835338	 0.130281
C	 2.6267758744	 3.8179278901	-3.0004482628	-0.291152
C	 2.9843067675	 4.2980107539	-1.6080236675	-0.282123
C	 1.3498635368	 2.8990893875	 0.8793935811	 0.279493
N	 1.3110037332	 3.729020647	 1.6826082651	-0.31535
H	-0.7040049083	 1.332577144	-0.7963372469	 0.12044
H	 2.1991653176	 1.1632575722	 0.0567604439	 0.142213
H	 3.4453981718	 2.1126659191	-1.812859489	 0.099394
H	 3.4039215579	 3.7407617229	-3.7517757338	 0.124751
H	 1.6499728396	 4.0939073665	-3.3805877154	 0.134508
H	 2.2457091783	 4.8932030581	-1.0854252471	 0.14479
H	 4.0144007558	 4.5518874472	-1.3852306	 0.12548
30.2098	42.0241	90.3563	141.533	168.6529	233.3321	313.3335	360.7599	436.1022	488.2057	530.375	638.5246	751.7412	821.0511	828.7682	861.6136	966.3321	979.7092	1035.3306	1058.169	1061.9577	1078.7736	1107.4986	1126.2582	1191.6749	1196.3879	1243.3481	1260.1664	1324.8379	1384.8232	1406.9128	1454.9337	1496.2121	1856.7289	2351.154	2939.8759	3012.0493	3110.2371	3144.9059	3149.3286	3229.9429	3244.0451
O=CC(OC1CC1)C#N	O=C[C@@H](OC1CC1)C#N	
InChI=1S/C6H7NO2/c7-3-6(4-8)9-5-1-2-5/h4-6H,1-2H2	InChI=1S/C6H7NO2/c7-3-6(4-8)9-5-1-2-5/h4-6H,1-2H2/t6-/m0/s1
