19
gdb 80411	2.4843	1.74689	1.28368	2.5796	75.09	-0.2441	-0.0162	0.2279	1036.777	0.159821	-423.043569	-423.035538	-423.034594	-423.075679	31.993	
C	-0.1529779607	 1.524427747	 0.0275746687	-0.420893
C	 0.0716651115	 0.0133055099	-0.0326741607	-0.085236
C	 0.9933511399	-0.5386939162	-1.1532737619	-0.045037
C	 1.216812648	-2.0084356702	-0.6949817736	-0.298054
C	 2.0104461421	-1.3088789081	 0.4640665288	 0.340526
O	 2.8882699457	-1.9474509989	 1.3054533921	-0.486227
C	 2.4252696832	-0.2460438	-0.6159829478	-0.29643
C	 0.8847270394	-0.5537643956	 1.1401138195	 0.374485
O	 0.7366575799	-0.448562112	 2.3328716509	-0.370781
H	 0.7900285572	 2.0785960628	-0.000531847	 0.123917
H	-0.7652113771	 1.8592440673	-0.8153019587	 0.11998
H	-0.6692264465	 1.79204038	 0.9539240011	 0.139216
H	-0.9028031477	-0.4919608477	-0.0565943402	 0.100707
H	 0.7194833719	-0.3055162218	-2.1801494056	 0.076479
H	 0.3437624068	-2.615025369	-0.4366792225	 0.101485
H	 1.8902954795	-2.5630047744	-1.3515436059	 0.114367
H	 2.5868824166	-1.7497418307	 2.2066033145	 0.290838
H	 3.2083133943	-0.6382029216	-1.2679612412	 0.115359
H	 2.6777303561	 0.7645539893	-0.2853439605	 0.105298
117.0681	197.1078	213.3523	252.7346	267.4128	362.2281	446.6703	463.9995	468.6631	528.0523	578.0801	655.2028	728.8733	767.9151	839.3422	867.2202	915.3234	921.4253	964.6223	970.7926	1001.355	1020.7284	1052.5819	1091.3621	1102.6887	1141.7838	1157.71	1166.7606	1211.5856	1227.8292	1264.2209	1303.1616	1345.0455	1369.7515	1407.6266	1412.3884	1483.4866	1497.4986	1499.1893	1523.4024	1850.1093	3024.7156	3040.8306	3055.6533	3065.5671	3110.0404	3116.8696	3124.5604	3128.8952	3137.2484	3692.7483
CC1C2CC(O)(C2)C1=O	C[C@H]1[C@@H]2C[C@@](O)(C2)C1=O	
InChI=1S/C7H10O2/c1-4-5-2-7(9,3-5)6(4)8/h4-5,9H,2-3H2,1H3	InChI=1S/C7H10O2/c1-4-5-2-7(9,3-5)6(4)8/h4-5,9H,2-3H2,1H3/t4-,5-,7-/m0/s1
