20
gdb 8107	2.86505	1.8662	1.41485	1.2083	74.94	-0.2418	0.0791	0.321	975.0763	0.176043	-348.975003	-348.966395	-348.96545	-349.007296	33.124	
C	-0.6866820733	 1.2514679492	-0.2050929089	-0.422645
C	-0.3291833345	-0.2033750541	-0.4390205206	-0.058236
C	 0.506126653	-0.811310733	-1.5588346957	-0.156817
C	 1.7625613572	-0.0085905327	-1.9364669215	 0.055066
C	 1.6563403372	 1.2918716599	-2.726903932	-0.413099
C	 2.1874580964	 0.000080904	-0.4257558174	-0.333185
C	 0.9677069236	-0.8794463384	-0.1048284797	 0.373473
O	 1.042216174	-2.0129418366	 0.692354074	-0.46214
H	-1.3921447186	 1.6161430275	-0.959886694	 0.118426
H	-1.1640215667	 1.3713396215	 0.7745030667	 0.108874
H	 0.1850911147	 1.9089231272	-0.2202513778	 0.122639
H	-1.1565842774	-0.8786395725	-0.2212679214	 0.086449
H	 0.0837686997	-1.6023112944	-2.1688392457	 0.083565
H	 2.4418533097	-0.6796337368	-2.4733648313	 0.079179
H	 1.0006588214	 2.0239072225	-2.2496602604	 0.116651
H	 2.6426791022	 1.7548082772	-2.8457976199	 0.111089
H	 1.2599000963	 1.1008550367	-3.7305584614	 0.113407
H	 3.1272207775	-0.5277764978	-0.2514171861	 0.106874
H	 2.2355945947	 0.9746721337	 0.0720012976	 0.088188
H	 0.8034379029	-1.7658666231	 1.5923057854	 0.282242
148.1561	183.1768	194.703	220.5713	228.2575	266.8911	292.9849	369.052	406.261	478.9507	559.7516	634.9107	676.6767	747.3134	824.3268	883.0556	902.4069	952.8246	964.8958	988.2719	1039.2283	1053.2674	1089.5046	1115.3033	1122.0099	1152.2456	1182.8612	1221.2894	1240.3076	1251.9736	1299.3636	1324.2255	1347.1157	1377.0926	1409.4149	1413.6575	1465.731	1489.3176	1496.1695	1500.7028	1504.9991	1508.3867	3029.4431	3030.2876	3038.835	3042.74	3082.5975	3087.6749	3107.8503	3111.229	3120.8396	3130.1812	3170.144	3794.7082
CC1C2C(C)CC12O	C[C@H]1[C@H]2[C@@H](C)C[C@@]12O	
InChI=1S/C7H12O/c1-4-3-7(8)5(2)6(4)7/h4-6,8H,3H2,1-2H3	InChI=1S/C7H12O/c1-4-3-7(8)5(2)6(4)7/h4-6,8H,3H2,1-2H3/t4-,5-,6+,7+/m0/s1
