19
gdb 40773	2.73344	1.31871	0.99325	3.05	75.83	-0.2559	0.0685	0.3244	1215.3411	0.158411	-422.966251	-422.957867	-422.956923	-423.000144	31.312	
C	 0.259653917	 1.517580761	 0.067189145	-0.182311
O	 1.1305650745	 0.4507547803	-0.3092956558	-0.23775
C	-0.229042717	 0.1334771792	 0.0078337917	 0.072649
C	-0.4638870413	-0.6998895594	 1.2344903757	-0.087965
C	-1.9459735333	-0.9768440474	 1.6481427243	-0.25231
C	-1.603721291	-2.4824216784	 1.8578248655	-0.321081
C	-0.2843928743	-2.2255570856	 1.1274017455	 0.448918
C	 0.3591945395	-2.9934733372	 0.0582665784	-0.267783
O	 0.9203672526	-2.9146568963	 1.3775902924	-0.265484
H	 0.4677367523	 1.9701067903	 1.0361054047	 0.114224
H	 0.0050517454	 2.2179761846	-0.7271851541	 0.114475
H	-0.8254411851	-0.1520075064	-0.8619420573	 0.087622
H	 0.1291961325	-0.3109122089	 2.0683640613	 0.089019
H	-2.3167224721	-0.4297961529	 2.5159021898	 0.109797
H	-2.6374583256	-0.8197002145	 0.8156263393	 0.106539
H	-1.4323811468	-2.7325313172	 2.9087555992	 0.11931
H	-2.2853012188	-3.2195943748	 1.4273205531	 0.107826
H	-0.0389157497	-3.9683305307	-0.2216683936	 0.11168
H	 0.9249778013	-2.4758868358	-0.7147514752	 0.132625
50.9475	75.8739	144.8044	215.2025	300.2776	325.0184	378.612	403.9594	502.4433	586.8492	720.0394	795.4357	844.7554	856.2023	881.4585	897.6959	913.0699	945.5225	959.5386	985.2097	1067.5449	1083.3805	1109.128	1132.0119	1151.7402	1156.9754	1169.3614	1174.1349	1189.7041	1218.0121	1242.5633	1256.4685	1270.9398	1293.5428	1313.5635	1424.1814	1452.8126	1476.2588	1495.7037	1528.0513	1533.1307	3059.3779	3062.9025	3065.7385	3079.8017	3081.1103	3084.7209	3110.7566	3128.8384	3167.7511	3171.3467
C1OC1C1CCC11CO1	C1O[C@H]1[C@H]1CC[C@]21CO2	
InChI=1S/C7H10O2/c1-2-7(4-9-7)5(1)6-3-8-6/h5-6H,1-4H2	InChI=1S/C7H10O2/c1-2-7(4-9-7)5(1)6-3-8-6/h5-6H,1-4H2/t5-,6-,7-/m1/s1
