25
gdb 62936	1.80452	1.76412	1.4595	0.2285	91.65	-0.2464	0.0815	0.3278	1148.8516	0.227261	-352.338159	-352.328247	-352.327303	-352.371438	40.115	
C	-0.3644936862	 1.6131455253	 0.3772453656	-0.439207
C	-0.1900152176	 0.0990811549	 0.5374954519	 0.273813
C	-1.4030832624	-0.4520544438	 1.2956122243	-0.442655
C	 0.0568647171	-0.7008942613	-0.7592727588	-0.063467
C	 1.3262719672	-0.3029801833	-1.4559599135	-0.326484
C	 1.4083919975	-1.1918913402	-0.2484023902	-0.063463
C	 1.2357724495	-0.4188849641	 1.0764289685	 0.27381
C	 2.2929676843	 0.6477284125	 1.3817079265	-0.439202
C	 1.1621262339	-1.383934018	 2.2652440888	-0.442656
H	 0.4327373234	 2.0750985046	-0.209145004	 0.108896
H	-1.3115899076	 1.8322246367	-0.1290343165	 0.108287
H	-0.3902600995	 2.1126894989	 1.3526802666	 0.108429
H	-2.3235779435	-0.1558618136	 0.7791388221	 0.107301
H	-1.4011746839	-1.5430582579	 1.3528999433	 0.112809
H	-1.4581170519	-0.0569566022	 2.3155991013	 0.109352
H	-0.7154330685	-1.2646872019	-1.2719160766	 0.074516
H	 1.5027573754	-0.8030955695	-2.4035175082	 0.107797
H	 1.6894759174	 0.7202078492	-1.4334359532	 0.102536
H	 1.8303488245	-2.1895457022	-0.3096216501	 0.074516
H	 2.4502872102	 1.3422522576	 0.5536279558	 0.108895
H	 2.0140699945	 1.2391055052	 2.2615778533	 0.108426
H	 3.2568275372	 0.1725977133	 1.597417423	 0.108289
H	 2.1608092667	-1.7848456229	 2.4742615496	 0.107301
H	 0.8136570622	-0.8822855174	 3.1743201799	 0.109353
H	 0.50536929	-2.2356870598	 2.0735041906	 0.112809
125.0957	194.5144	219.9072	243.1427	257.207	270.8705	273.0964	308.777	329.885	343.5553	397.0812	446.8545	487.4172	498.6792	594.3611	640.3306	767.7538	783.1727	848.3047	915.9403	937.706	939.1073	951.9983	980.753	982.7473	994.9748	1008.5357	1018.3767	1039.9311	1074.5124	1083.7453	1158.3172	1176.188	1182.3242	1209.8601	1213.9426	1256.943	1266.835	1319.5283	1358.3094	1394.6182	1403.0908	1410.8545	1429.0586	1474.8021	1478.0609	1481.9852	1492.3843	1495.0141	1499.5755	1502.7643	1513.7852	1524.1508	3023.591	3027.1211	3028.1261	3034.6841	3080.7984	3085.0384	3087.5614	3091.9535	3107.0593	3109.6344	3115.0708	3122.7961	3123.1331	3155.6617	3165.7061	3197.3311
CC1(C)C2CC2C1(C)C	CC1(C)[C@H]2C[C@H]2C1(C)C	
InChI=1S/C9H16/c1-8(2)6-5-7(6)9(8,3)4/h6-7H,5H2,1-4H3	InChI=1S/C9H16/c1-8(2)6-5-7(6)9(8,3)4/h6-7H,5H2,1-4H3/t6-,7+
