19
gdb 87985	2.22056	1.61015	1.32803	2.1705	70.95	-0.2348	0.0516	0.2864	1061.3537	0.156773	-460.119169	-460.110051	-460.109107	-460.152851	35.014	
C	-0.3426286431	 1.456123572	 0.1854590655	-0.43145
C	-0.0035058099	-0.01019506	 0.0317409447	 0.249801
O	-1.2028517594	-0.6759818082	-0.3773738432	-0.474552
C	 1.25127125	-0.4028145335	-0.7884758939	-0.129904
O	 1.7986117206	-1.1513211332	 0.3210067085	-0.309288
C	 0.7284574746	-0.7293449348	 1.171497619	 0.349932
C	 0.9194163244	-0.3542190715	 2.6072601873	-0.383709
C	 0.0874286436	-1.5696384252	 2.2264291415	 0.026653
O	-1.2992910077	-1.4998250412	 2.3867115457	-0.436303
H	 0.5312034275	 2.0209378541	 0.51836903	 0.129156
H	-0.6910420928	 1.8664452852	-0.7669030401	 0.128693
H	-1.1402766446	 1.5824353605	 0.9235203167	 0.136851
H	-0.9689399963	-1.5704006623	-0.6521120444	 0.292837
H	 1.0551811523	-1.0342808756	-1.6640422996	 0.100619
H	 1.9007206947	 0.4304670509	-1.0810007759	 0.111021
H	 1.9005320025	-0.5348224426	 3.0345532476	 0.124231
H	 0.3912488721	 0.5127568424	 2.991518568	 0.122544
H	 0.523198327	-2.5463520642	 2.4322995156	 0.099845
H	-1.6793501857	-1.3210506829	 1.515607997	 0.293024
48.4611	160.3372	188.7419	227.5611	237.5544	321.0918	343.8379	373.9315	396.9783	425.1703	451.3293	548.0562	573.2034	650.5776	670.5385	835.8631	864.4399	879.5961	938.9361	963.448	979.8692	988.6301	1010.8708	1019.734	1091.2668	1127.841	1146.4281	1148.2766	1153.7489	1212.4766	1219.5988	1320.6011	1333.427	1387.0402	1399.9512	1405.4205	1426.8006	1470.0172	1484.6002	1496.5398	1520.9289	3015.783	3046.5271	3066.4726	3115.5742	3118.0657	3125.7444	3132.0358	3220.3313	3735.1009	3795.9871
CC1(O)COC11CC1O	C[C@@]1(O)CO[C@]21C[C@H]2O	
InChI=1S/C6H10O3/c1-5(8)3-9-6(5)2-4(6)7/h4,7-8H,2-3H2,1H3	InChI=1S/C6H10O3/c1-5(8)3-9-6(5)2-4(6)7/h4,7-8H,2-3H2,1H3/t4-,5-,6-/m1/s1
