16
gdb 130442	3.07263	1.33239	0.96113	2.7049	69.54	-0.1862	0.0124	0.1986	1177.8586	0.125765	-471.188027	-471.179481	-471.178537	-471.221061	32.013	
N	-0.0122723999	 1.3250915115	-0.2275190628	-0.602158
C	-0.0441544221	-0.0428227491	-0.0436944722	 0.383039
C	-0.9916426929	-0.9905692722	-0.3121195815	 0.072493
O	-2.2526212822	-0.7980888224	-0.788394997	-0.463246
C	-0.3542943562	-2.2083917252	 0.0364525218	 0.299755
C	-0.9837333192	-3.5645196785	-0.0587755713	-0.280163
N	-1.8706310316	-3.5950850577	-1.2413741273	-0.525324
H	-2.5334008709	-1.6774480741	-1.108545152	 0.296588
H	-1.3123891824	-3.6365023032	-2.0893904552	 0.248229
H	-2.4463907342	-4.4304226922	-1.2274252589	 0.244237
N	 0.8738138497	-2.0276953596	 0.4707914567	-0.244589
O	 1.0668421287	-0.6340007052	 0.4295868439	-0.217212
H	-0.9384076968	 1.7226586209	-0.308076499	 0.267955
H	 0.5439028258	 1.8127030862	 0.4630200753	 0.261608
H	-0.2051538059	-4.3385112456	-0.0540691474	 0.126072
H	-1.61516287	-3.7349263335	 0.8217665469	 0.132718
92.7978	151.51	198.2518	221.4527	263.7045	291.9836	348.741	366.6498	428.0925	532.0275	587.4493	636.2822	657.5568	693.6083	729.9031	733.7771	802.2836	894.3938	933.1468	1001.9107	1037.5347	1056.9828	1094.8007	1173.0806	1288.9969	1304.374	1369.0033	1407.3546	1412.3053	1494.5895	1529.9831	1542.3319	1633.3653	1653.8024	1738.2766	3016.963	3056.604	3497.3155	3545.6655	3558.2078	3579.6209	3647.6197
NC1=C([O-])C(C[NH3+])=NO1	Nc1c(O)c(CN)no1	
InChI=1S/C4H7N3O2/c5-1-2-3(8)4(6)9-7-2/h8H,1,5-6H2	InChI=1S/C4H7N3O2/c5-1-2-3(8)4(6)9-7-2/h8H,1,5-6H2
