18
gdb 58215	1.77604	1.6356	1.16115	1.8462	67.59	-0.2715	0.0046	0.2761	1137.3145	0.146072	-476.225655	-476.215957	-476.215013	-476.260043	35.884	
C	-0.9087666769	 1.2650289045	 0.9575214752	-0.441174
C	-0.2713304113	 0.1074000559	 0.1957564435	 0.103337
O	 0.2739151041	-0.8705656917	 1.1064874464	-0.454725
C	-1.2231379017	-0.5412852235	-0.8587195832	 0.094846
O	-0.5626761976	-0.7882780571	-2.0818289855	-0.436379
C	-1.8324167292	-1.8889863093	-0.3858830168	-0.048361
O	-0.8307661518	-2.8871268045	-0.3551734431	-0.42889
C	-2.5245760528	-1.7655879803	 0.9125119421	 0.271191
N	-3.0381661449	-1.6431745916	 1.9414304648	-0.336599
H	-0.1901879546	 1.6901845023	 1.664201544	 0.132973
H	-1.2157616256	 2.0557488105	 0.2667014221	 0.134885
H	-1.7949488938	 0.9391164634	 1.5130129135	 0.148559
H	 0.585797439	 0.473170495	-0.3781057594	 0.112532
H	-0.2578671772	-0.8590372065	 1.9110932098	 0.304704
H	-2.0346167945	 0.1597621217	-1.0815788576	 0.102592
H	-0.1087748065	-1.6366858379	-1.9778247523	 0.290869
H	-2.5658803862	-2.2074389687	-1.1330668996	 0.147038
H	-0.1687108885	-2.554755362	 0.2775365961	 0.3026
67.0569	105.7244	141.9387	233.0564	253.5762	265.9877	287.4399	321.3828	357.5912	391.422	450.5793	471.9235	498.9736	548.4574	588.3616	742.4726	772.0093	810.1756	889.0147	937.7068	983.5677	1027.2494	1072.2874	1098.1187	1107.4018	1144.4453	1230.59	1269.5336	1301.5634	1314.6246	1341.4287	1365.763	1410.0332	1426.8497	1437.2942	1466.6059	1494.0675	1501.3532	2344.9543	3037.8326	3057.9823	3065.628	3077.4006	3113.9349	3119.224	3632.0358	3745.1077	3796.4619
CC(O)C(O)C(O)C#N	C[C@@H](O)[C@@H](O)[C@@H](O)C#N	
InChI=1S/C5H9NO3/c1-3(7)5(9)4(8)2-6/h3-5,7-9H,1H3	InChI=1S/C5H9NO3/c1-3(7)5(9)4(8)2-6/h3-5,7-9H,1H3/t3-,4+,5-/m1/s1
