18
gdb 104143	3.13802	1.12703	1.08182	3.7257	69.04	-0.2562	0.0294	0.2856	1183.4231	0.147624	-476.236562	-476.227814	-476.22687	-476.269951	33.129	
O	 0.0396613697	 1.2092005452	-0.3182557578	-0.436572
C	-0.0980061765	-0.2063637748	-0.2297306062	-0.134461
C	-1.554443651	-0.4690260949	 0.1584744034	 0.38905
O	-1.8584511723	 0.2344697239	 1.3441745722	-0.490002
C	-2.5155530734	-0.1108306879	-1.0014804466	-0.143018
O	-2.6185738942	-1.2972334204	-1.8021748877	-0.238623
C	-2.2815036482	-2.4001353756	-1.0615477225	 0.417683
N	-2.3243019562	-3.5872328746	-1.4861323656	-0.54568
C	-1.8424292681	-1.964747785	 0.3177101983	-0.365998
H	 0.9714598244	 1.4284740567	-0.4031817241	 0.300203
H	 0.1399637609	-0.6956427135	-1.1851644873	 0.111128
H	 0.5577220526	-0.619599202	 0.5491381951	 0.104751
H	-1.4113455237	 1.0879379102	 1.2684140654	 0.28951
H	-3.4963526155	 0.1526980937	-0.5901493535	 0.11644
H	-2.1526618428	 0.7015135717	-1.6339331497	 0.126608
H	-2.6710537124	-3.6086117839	-2.4471547851	 0.220854
H	-1.0011078132	-2.5599833154	 0.6757045736	 0.131709
H	-2.6663656101	-2.0857631936	 1.028938718	 0.146418
79.754	128.4421	164.9198	240.7021	248.8282	313.0052	353.3522	394.4632	440.031	483.3636	520.846	529.9507	651.8095	680.9389	796.2443	858.0704	896.84	921.455	947.876	983.7154	1016.0176	1062.7257	1093.4648	1113.3748	1128.0667	1163.4812	1196.7159	1224.1283	1261.5502	1274.3874	1294.4941	1334.0473	1370.41	1425.8373	1451.2158	1470.9349	1508.8348	1522.8428	1782.1993	2995.8173	3039.4712	3045.2492	3064.2497	3120.9379	3125.9761	3468.0371	3764.5634	3845.6242
OCC1(O)COC(=N)C1	OC[C@@]1(O)CO[C]([NH])C1	
InChI=1S/C5H9NO3/c6-4-1-5(8,2-7)3-9-4/h6-8H,1-3H2	InChI=1S/C5H9NO3/c6-4-1-5(8,2-7)3-9-4/h6-8H,1-3H2/t5-/m1/s1
