22
gdb 58280	2.55414	1.08103	0.9177	5.2136	78.98	-0.2396	0.0236	0.2631	1380.9811	0.192572	-441.513992	-441.503635	-441.502691	-441.549777	37.983	
C	-0.0470809961	 1.4518699261	 0.1700336255	-0.407874
C	-0.1496644583	-0.0726064477	 0.0415765022	 0.085719
C	 0.0757791348	-0.7165417264	 1.416175257	-0.41421
N	-1.452870399	-0.482652817	-0.5421446584	-0.096394
H	-2.797543692	-0.7510033727	 0.8058098853	 0.290879
C	-1.7544153075	 0.1872193789	-1.8101092463	-0.335051
C	-1.5955150354	-1.9414757769	-0.6451644329	-0.313954
C	-2.4061056449	-2.5318663641	 0.5205536201	 0.4262
O	-3.0802576679	-1.6022596583	 1.2118351063	-0.360668
O	-2.4575413959	-3.7073336332	 0.7603523314	-0.342874
H	 0.8700752794	 1.7105787085	 0.7061535182	 0.123102
H	-0.0115923007	 1.9577118988	-0.7969693412	 0.121425
H	-0.894889914	 1.848829525	 0.7390731573	 0.123412
H	 0.6579882636	-0.4147772981	-0.6332302337	 0.069152
H	 1.0566858765	-0.4183992414	 1.7966850004	 0.120461
H	-0.682061497	-0.3872332802	 2.1337354821	 0.13043
H	 0.0589706021	-1.8082968127	 1.3849493635	 0.137229
H	-1.8691773769	 1.2615562717	-1.6601814818	 0.133617
H	-0.9771211616	 0.0253356025	-2.5764016979	 0.108282
H	-2.7024219492	-0.191596947	-2.1996447539	 0.129998
H	-2.1488364107	-2.1929290992	-1.5552464348	 0.136902
H	-0.6388679295	-2.4731803767	-0.7109912186	 0.134216
45.7028	69.9752	112.2391	179.7554	213.9445	224.4624	254.648	326.9752	350.1398	370.1364	417.359	448.6062	491.9402	538.2363	574.4241	640.4944	784.5647	862.6957	875.7188	911.3184	931.9841	959.531	981.7608	1018.8757	1108.3328	1118.1706	1163.3693	1171.8424	1193.7709	1216.1289	1253.3517	1295.4028	1343.9162	1364.9898	1376.322	1405.4756	1423.3341	1429.4945	1453.7011	1480.2226	1486.9364	1490.0083	1500.4814	1504.693	1512.5061	1526.2616	1876.0661	2918.6838	2964.054	3038.3937	3041.2973	3048.5123	3086.226	3093.7262	3111.1686	3119.3071	3123.445	3126.5016	3137.7912	3440.0698
CC(C)[NH+](C)CC([O-])=O	CC(C)N(C)CC(=O)O	
InChI=1S/C6H13NO2/c1-5(2)7(3)4-6(8)9/h5H,4H2,1-3H3,(H,8,9)	InChI=1S/C6H13NO2/c1-5(2)7(3)4-6(8)9/h5H,4H2,1-3H3,(H,8,9)
