14
gdb 15100	8.54957	0.75749	0.71691	5.5442	75.94	-0.2649	-0.0427	0.2222	1480.4049	0.107646	-341.541637	-341.533824	-341.53288	-341.574756	27.286	
N	 0.0625705989	-3.6352525411	 0.3291770165	-0.335942
C	 0.0457204985	-2.4824522909	 0.1867647618	 0.213629
C	 0.0231064882	-1.1277787667	 0.0187753948	 0.032539
C	-0.0025655803	 0.0707909045	-0.1293578151	 0.112168
C	-0.015387281	 1.5152062361	-0.3137103686	-0.41308
C	 1.3736002493	 2.1380156728	-0.2474850389	 0.040787
C	 1.5269952484	 3.5225088545	 0.2607434023	-0.246043
N	 2.0260249826	 2.3768440772	 1.0421620238	-0.299564
H	-0.4758494413	 1.745263555	-1.2840861189	 0.157427
H	-0.6616532619	 1.9704588537	 0.4489797435	 0.142661
H	 2.0525685445	 1.7826865914	-1.0189270505	 0.11447
H	 2.2961606098	 4.1717941797	-0.1464234587	 0.130521
H	 0.6327014027	 4.0396588621	 0.6007115669	 0.115471
H	 1.3903913516	 2.1669136118	 1.8085082311	 0.234957
55.3044	85.1069	155.6482	204.1902	336.9353	361.5838	374.9406	489.035	577.1247	580.9504	731.9463	786.0718	826.9989	922.0567	932.2909	973.0199	1050.4867	1125.278	1147.1834	1169.7465	1176.3535	1242.5641	1263.385	1310.029	1316.6478	1415.8462	1451.7957	1513.8895	2267.2269	2403.9146	3014.0065	3049.005	3108.7003	3140.4623	3195.8924	3495.6622
N#CC#CCC1CN1	N#CC#CC[C@H]1CN1	
InChI=1S/C6H6N2/c7-4-2-1-3-6-5-8-6/h6,8H,3,5H2	InChI=1S/C6H6N2/c7-4-2-1-3-6-5-8-6/h6,8H,3,5H2/t6-/m0/s1
