18
gdb 118633	1.75191	1.31299	0.8593	2.1392	70.77	-0.2552	-0.0368	0.2184	1372.7647	0.144888	-476.242123	-476.232005	-476.23106	-476.278569	34.111	
C	-0.3058104142	 1.2533911195	-0.3080261785	-0.228847
O	-0.0768716597	-0.1142108643	-0.0527912623	-0.235841
C	-1.2642630795	-0.8640713266	 0.0472898962	-0.084572
C	-0.8762009272	-2.3354927606	 0.242464087	-0.082819
N	-0.2318772116	-2.926462768	-0.9048092605	-0.264533
C	-0.9208996641	-3.2900200156	-2.0130226284	 0.155487
O	-2.1084591459	-3.0919815574	-2.1811023118	-0.335805
C	 0.0404035919	-2.465455836	 1.4463597961	 0.174242
O	 1.1106629436	-3.0154138254	 1.4173100452	-0.255985
H	 0.6702073936	 1.7385128053	-0.3785524079	 0.134052
H	-0.8497297872	 1.4024333993	-1.2528763843	 0.115112
H	-0.8826843399	 1.7279402499	 0.5010355839	 0.107817
H	-1.8721077718	-0.5310504259	 0.9071578625	 0.090573
H	-1.8823905936	-0.7774925937	-0.8563905863	 0.135179
H	-1.8074874146	-2.8780959516	 0.4661689036	 0.127558
H	 0.735850048	-3.1891299695	-0.7827058155	 0.265495
H	-0.2763310335	-3.789054288	-2.7620826607	 0.085089
H	-0.3576272345	-2.0075694914	 2.3756458114	 0.097797
40.6799	81.7698	97.4212	116.0446	172.7745	213.9159	224.9435	250.7972	285.7686	346.8285	390.0006	562.265	647.3019	679.586	779.5732	863.7713	910.3943	939.5676	1035.278	1050.9443	1085.4935	1141.3491	1162.3793	1183.0869	1211.3839	1229.9156	1261.6687	1299.3618	1351.8317	1400.0079	1414.5455	1428.1473	1479.3863	1485.9361	1501.0719	1517.849	1528.0614	1789.5096	1832.9861	2921.3498	2951.0621	2954.0589	2978.2364	3006.6854	3026.3199	3040.0773	3121.6079	3605.7033
COCC(NC=O)C=O	COC[C@@H](NC=O)C=O	
InChI=1S/C5H9NO3/c1-9-3-5(2-7)6-4-8/h2,4-5H,3H2,1H3,(H,6,8)	InChI=1S/C5H9NO3/c1-9-3-5(2-7)6-4-8/h2,4-5H,3H2,1H3,(H,6,8)/t5-/m0/s1
