17
gdb 74687	3.44796	1.26402	1.10758	4.5284	73.75	-0.2598	-0.006	0.2538	1129.8726	0.136945	-421.875863	-421.868257	-421.867313	-421.908153	29.004	
C	 0.2416819075	 1.4177691718	 0.1251102227	-0.488008
C	 0.0063269674	-0.0564193925	 0.0449256314	 0.327162
C	 0.0573263523	-0.8222627482	-1.0517275923	-0.18897
C	-0.1961566439	-2.2616539722	-0.7466539744	 0.0814
O	 1.0507827435	-3.0661834	-0.6110949508	-0.258708
C	 0.9340992834	-3.0859122277	 0.7530471368	 0.444622
O	 1.6808977067	-3.5729808477	 1.5408413177	-0.327537
C	-0.3902642685	-2.3124160402	 0.7841214954	-0.232292
C	-0.3342539751	-0.8587611913	 1.2893125392	-0.324587
H	 1.089441116	 1.6412336738	 0.7846257944	 0.138783
H	 0.4496606801	 1.8491367731	-0.8570005232	 0.131775
H	-0.6282326716	 1.9327194201	 0.5514393274	 0.132034
H	 0.2802891813	-0.4648008438	-2.0502525892	 0.102366
H	-0.8851589272	-2.791845721	-1.4053796024	 0.097936
H	-1.2213309339	-2.8998495839	 1.1738238164	 0.112475
H	 0.4100526898	-0.7209554972	 2.0826967704	 0.133684
H	-1.2956085181	-0.5403969331	 1.7111062008	 0.117866
90.2552	154.5164	192.4497	225.7075	316.362	399.651	454.5969	492.894	602.4509	675.9398	707.6224	790.1808	849.4483	859.0141	868.3396	880.2569	914.9762	983.989	997.5732	1046.4824	1058.0016	1068.2219	1124.8862	1149.4944	1184.5551	1228.3424	1276.2806	1287.741	1301.6689	1337.3609	1356.8155	1414.8153	1478.7469	1481.9229	1486.1863	1705.6275	1928.6037	3022.7836	3030.3368	3061.8727	3071.869	3106.8873	3120.1876	3123.495	3202.538
CC1=CC2OC(=O)C2C1	CC1=C[C@H]2OC(=O)[C@H]2C1	
InChI=1S/C7H8O2/c1-4-2-5-6(3-4)9-7(5)8/h3,5-6H,2H2,1H3	InChI=1S/C7H8O2/c1-4-2-5-6(3-4)9-7(5)8/h3,5-6H,2H2,1H3/t5-,6+/m0/s1
