13
gdb 128646	2.84376	1.60786	1.03383	4.661	64.23	-0.2701	-0.0848	0.1853	1062.6143	0.08895	-489.877869	-489.870239	-489.869295	-489.910468	27.014	
C	 0.044027501	 1.3751821883	 0.056694228	-0.243581
O	 0.0994402269	-0.0593200156	-0.0217219	-0.214481
C	 0.626901721	-0.5784478977	-1.1092673378	 0.312947
N	 1.0834348474	 0.135918036	-2.0808185973	-0.357284
C	 1.600297253	-0.5707967431	-3.1411303897	 0.107564
N	 1.6908849337	-1.8454486059	-3.2966696519	-0.079049
O	 1.1918349543	-2.6160465142	-2.2349024183	-0.248052
C	 0.644120576	-2.0721853797	-1.1064851194	 0.414748
O	 0.2338695488	-2.7761400582	-0.2307991279	-0.307143
H	 1.0505282484	 1.7965677548	 0.0042982156	 0.153536
H	-0.5542212877	 1.776604564	-0.7644716135	 0.153533
H	-0.4192390782	 1.5909889647	 1.0181233223	 0.153143
H	 1.9906700453	 0.0093523665	-3.97106035	 0.15412
93.7277	147.0716	160.0303	216.581	247.8154	356.3618	491.1002	529.4361	546.0824	588.0296	602.6934	769.6331	815.3855	909.5826	955.1231	970.2311	1007.2662	1143.5485	1175.2081	1177.0075	1248.9799	1350.5478	1395.1539	1480.1594	1483.6605	1489.7317	1605.506	1661.9582	1857.4832	3057.9936	3137.0512	3175.7246	3198.5236
COC1=NC=NOC1=O	COc1ncnoc1=O	
InChI=1S/C4H4N2O3/c1-8-3-4(7)9-6-2-5-3/h2H,1H3	InChI=1S/C4H4N2O3/c1-8-3-4(7)9-6-2-5-3/h2H,1H3
