19
gdb 52110	5.20937	0.72782	0.69079	2.8443	77.24	-0.2495	-0.0228	0.2267	1621.0613	0.157264	-423.000427	-422.991424	-422.99048	-423.035648	32.335	
O	-0.4899661641	 0.4510666471	 0.5605696369	-0.234708
C	 0.1336598272	 0.8857556576	-0.3726137626	 0.154993
C	 1.346569834	 1.7798081661	-0.2676451109	-0.270264
C	 1.145041837	 3.1053964155	-1.0329358342	-0.341637
C	 2.393271472	 3.9309461017	-1.0576640616	 0.448412
C	 3.0436337474	 4.744001554	 0.0806604646	-0.290334
C	 3.6665839078	 5.6847255043	-1.0107436597	-0.23588
C	 2.9907342261	 4.8135997356	-2.0769739978	-0.050183
O	 3.4720376749	 3.4735485107	-1.8900872573	-0.29395
H	-0.1659250858	 0.6476771471	-1.4213546244	 0.071511
H	 1.5662439372	 1.952083293	 0.7895757279	 0.124584
H	 2.1970501312	 1.250400319	-0.7187715925	 0.139569
H	 0.8451879892	 2.8931988844	-2.0659064035	 0.116314
H	 0.3352470912	 3.6810854097	-0.5691335464	 0.117434
H	 2.3168708867	 5.2608664886	 0.7123471361	 0.108073
H	 3.7417573114	 4.1854884315	 0.708133379	 0.111603
H	 3.2679452769	 6.7007957315	-0.9653011939	 0.107966
H	 4.7566774063	 5.7209389653	-1.0683370944	 0.114626
H	 2.6551570833	 5.0791086674	-3.0736321255	 0.101871
46.4111	64.3291	88.1652	122.7399	245.7439	279.7712	321.6165	399.6054	491.8284	523.9407	698.5932	728.0767	765.1475	774.792	844.678	885.798	920.4411	928.8639	954.9616	982.4985	1013.0925	1041.0971	1070.2478	1091.311	1150.8368	1173.9879	1212.4352	1217.2255	1224.9803	1253.1184	1270.7173	1283.1707	1329.9091	1363.4432	1429.0935	1449.627	1462.8263	1463.6619	1481.0965	1493.8515	1837.1018	2847.5623	3024.4292	3033.5815	3064.2049	3072.1904	3073.3466	3106.9788	3116.2334	3132.6083	3178.7977
O=CCCC12CCC1O2	O=CCC[C@]12CC[C@H]1O2	
InChI=1S/C7H10O2/c8-5-1-3-7-4-2-6(7)9-7/h5-6H,1-4H2	InChI=1S/C7H10O2/c8-5-1-3-7-4-2-6(7)9-7/h5-6H,1-4H2/t6-,7+/m1/s1
