15
gdb 29095	3.11986	1.46151	1.00059	3.7639	74.61	-0.2039	-0.0314	0.1724	1113.6455	0.114617	-450.146174	-450.138102	-450.137158	-450.178965	30.472	
N	-0.0765309686	 1.4384675171	 0.1862889757	-0.570565
C	-0.1165899233	 0.0470902405	 0.061777919	 0.249405
C	-1.2005944402	-0.6566292758	-0.266823622	-0.055113
N	-1.1549551887	-2.0366296183	-0.3687938265	-0.359712
C	-0.0151723047	-2.7767315731	-0.1445554671	 0.323876
N	-0.0273300988	-4.045470736	-0.2516794221	-0.52378
C	 1.2037048799	-1.9698812183	 0.2264837479	 0.326896
N	 2.2951611273	-2.5693099646	 0.4506860631	-0.510819
O	 1.0946437848	-0.6103432489	 0.3101162212	-0.259064
H	 0.5896540663	 1.8553942591	-0.4584789804	 0.246752
H	 0.1921640737	 1.7253138366	 1.1237800063	 0.246761
H	-2.142528305	-0.1679892317	-0.4620383864	 0.143552
H	-1.9781887511	-2.5617023762	-0.6171860167	 0.266284
H	 0.9081070654	-4.3967664072	-0.0464370537	 0.245689
H	 3.033223123	-1.9066108633	 0.6895899316	 0.22984
80.3729	110.3636	169.6763	323.757	330.61	363.8654	419.1708	478.8693	500.3301	538.1006	567.5444	578.4683	700.9048	773.5442	806.5782	824.4465	834.8547	870.6418	899.2289	948.0297	1055.4565	1103.5676	1168.3619	1223.9835	1256.458	1298.2463	1345.7977	1442.1924	1473.7494	1656.5207	1719.8971	1732.0771	1797.8718	3259.94	3480.7781	3492.7558	3497.1339	3541.5861	3645.511
NC1=CNC(=N)C(=N)O1	NC1=CNC(=C([NH])O1)[NH]	
InChI=1S/C4H6N4O/c5-2-1-8-3(6)4(7)9-2/h1,7H,5H2,(H2,6,8)	InChI=1S/C4H6N4O/c5-2-1-8-3(6)4(7)9-2/h1,7H,5H2,(H2,6,8)
