15
gdb 48689	4.95135	0.99487	0.91078	1.6257	71.69	-0.2686	-0.0485	0.22	1221.1998	0.112613	-416.788136	-416.780219	-416.779274	-416.821084	28.764	
O	-0.5778647716	 0.7146209347	 0.6573364555	-0.257267
C	 0.1766132213	 0.957175515	-0.2525491547	 0.083112
C	 1.3532148021	 1.8404477942	-0.1166474163	 0.239889
C	 1.7977289417	 2.5609377946	 1.1596334711	-0.321378
C	 2.160853756	 3.8226736177	 0.292156304	-0.169191
C	 3.5457526004	 4.271583459	 0.306746504	 0.275432
N	 4.6583335772	 4.586674953	 0.3110209072	-0.320239
C	 1.7155793272	 3.0495008749	-0.975837389	-0.09077
N	 2.3954332793	 1.7963698113	-1.1371317188	-0.342896
H	 0.0381787659	 0.5444857539	-1.2740174139	 0.09518
H	 0.970195157	 2.7577310292	 1.8410336427	 0.150363
H	 2.6196460204	 2.094806641	 1.7072869699	 0.131242
H	 1.497380336	 4.6613447911	 0.5133121984	 0.142005
H	 1.1978862995	 3.4838625543	-1.8228577908	 0.128867
H	 3.3405246976	 1.7737795663	-0.7572828593	 0.255652
77.0982	116.3105	145.3728	227.3442	258.7751	351.0017	434.7429	491.9853	534.4663	608.5865	704.7124	763.2639	776.8161	832.9114	908.3668	978.0556	986.8973	1026.0277	1044.963	1061.8773	1105.841	1117.2167	1139.208	1191.5612	1243.3291	1276.1027	1307.8026	1323.2255	1388.6521	1445.7708	1486.1063	1811.1279	2353.1287	2919.4477	3082.3051	3095.9623	3151.1073	3191.303	3472.7259
O=CC12CC(C#N)C1N2	O=C[C@]12C[C@@H](C#N)[C@H]1N2	
InChI=1S/C6H6N2O/c7-2-4-1-6(3-9)5(4)8-6/h3-5,8H,1H2	InChI=1S/C6H6N2O/c7-2-4-1-6(3-9)5(4)8-6/h3-5,8H,1H2/t4-,5+,6+/m0/s1
