19
gdb 40995	3.75449	1.55556	1.47929	1.6468	79.13	-0.2369	0.0665	0.3034	962.3482	0.161548	-385.768201	-385.761737	-385.760793	-385.798627	27.758	
C	 0.0047206382	 1.5578719699	 0.1310005101	-0.162215
O	 1.4512630907	 1.4638644696	-0.218345402	-0.372241
C	 1.1095783195	 0.1856297516	-0.7748833284	 0.447275
C	-0.1538089019	 0.0045567826	 0.0114311534	-0.104727
C	-0.2434125025	-0.9703603846	-1.2097211755	-0.105561
C	 0.3658151118	 0.0850775816	-2.1559896102	-0.053077
C	 1.277586921	-0.5859835941	-3.1830810994	-0.24872
C	 1.954047252	-1.6729398743	-2.2969942176	-0.239573
C	 1.3181274228	-1.3515372376	-0.9498427957	-0.109403
H	-0.1184660285	 1.9496023172	 1.1428048694	 0.117089
H	-0.5224554325	 2.1878521192	-0.5899375191	 0.116825
H	-0.0403424396	-0.4784573772	 0.9838191908	 0.079409
H	-1.0144128892	-1.704039222	-1.4559446584	 0.078261
H	-0.2549968706	 0.9181278843	-2.4835413313	 0.066573
H	 0.7146616073	-1.0184672019	-4.0164953541	 0.097729
H	 1.9983999105	 0.1199876879	-3.6071592107	 0.105506
H	 1.719384081	-2.6904273676	-2.625236934	 0.101449
H	 3.043864755	-1.5820284902	-2.2676731357	 0.1082
H	 1.5607137951	-1.9532568743	-0.0732862116	 0.077202
203.5177	247.5876	284.0956	373.3108	474.9026	520.8116	611.4344	681.395	720.4722	755.7237	771.1735	829.9692	851.0292	867.0568	899.7921	927.9613	961.7196	972.6159	994.87	1019.4345	1031.4568	1044.5981	1055.1458	1086.6631	1115.3785	1138.4372	1150.5057	1151.7766	1189.1318	1219.7602	1226.3615	1249.8857	1261.0445	1283.751	1308.4721	1318.5025	1355.6776	1395.3272	1486.1947	1497.5964	1507.4984	3043.6473	3054.3833	3059.0122	3077.775	3078.2932	3085.791	3097.8262	3119.1504	3123.6028	3129.7742
C1OC23C1C1C2CCC31	C1O[C@@]23[C@@H]1[C@H]1[C@@H]2CC[C@@H]31	
InChI=1S/C8H10O/c1-2-5-7-4(1)8(5)6(7)3-9-8/h4-7H,1-3H2	InChI=1S/C8H10O/c1-2-5-7-4(1)8(5)6(7)3-9-8/h4-7H,1-3H2/t4-,5+,6-,7-,8-/m0/s1
