13
gdb 25050	5.61856	1.02187	0.86462	1.7568	77.16	-0.2433	-0.0678	0.1754	1212.105	0.092287	-415.696533	-415.689528	-415.688584	-415.728217	26.294	
O	-0.0501792621	-0.0888516724	 0.0040499251	-0.374894
C	 0.0218061752	 1.123715572	 0.0091400189	 0.435866
N	-1.1685452346	 1.8982667546	 0.0284158981	-0.361264
C	-1.2341705962	 3.2452288496	 0.0357166621	-0.008743
C	-0.0860644255	 3.9954143411	 0.024219822	 0.082713
C	 1.1688396131	 3.2981087128	 0.0043300711	-0.118165
C	 1.2218080841	 1.9420930234	-0.0028662819	-0.241915
C	-0.1515005786	 5.4161422549	 0.0318698001	 0.203623
N	-0.1933872588	 6.5738998295	 0.0379518369	-0.331634
H	-2.0173579165	 1.3477338451	 0.036921325	 0.275314
H	-2.2213528219	 3.6903264764	 0.050814052	 0.165706
H	 2.0821784395	 3.8831432376	-0.0049367571	 0.139136
H	 2.1630483923	 1.4073633454	-0.0178910822	 0.134257
97.4934	154.3784	225.5155	390.1159	418.7652	451.4647	467.3285	552.6739	562.6754	649.6369	724.4039	727.477	766.6021	812.4737	860.4248	927.8083	995.3074	1010.0186	1123.9413	1210.0258	1233.1873	1250.2574	1351.0365	1448.9016	1477.3145	1574.5421	1670.5469	1801.1046	2341.3686	3194.3164	3217.1872	3223.553	3597.3974
O=C1NC=C(C=C1)C#N	O=c1[nH]cc(cc1)C#N	
InChI=1S/C6H4N2O/c7-3-5-1-2-6(9)8-4-5/h1-2,4H,(H,8,9)	InChI=1S/C6H4N2O/c7-3-5-1-2-6(9)8-4-5/h1-2,4H,(H,8,9)
