17
gdb 72069	2.57937	1.67759	1.31533	1.9754	74.52	-0.2364	-0.0289	0.2075	1007.8453	0.134604	-421.777943	-421.769977	-421.769033	-421.810474	29.987	
C	-0.2926854045	 1.3172277171	 0.0168713452	-0.509237
C	-0.0488535054	-0.1497925378	 0.0664030635	 0.432192
O	 0.9446185776	-0.7440519205	-0.7669663124	-0.318449
C	 0.3052249977	-2.0305339454	-0.515391398	-0.014359
C	 0.6127982929	-2.2866937634	 0.9802565021	-0.2364
C	-0.2807793054	-1.0694615215	 1.2413545975	-0.189885
C	-1.027722622	-1.3190618682	-0.0953533678	 0.181954
C	-2.4457608819	-1.3016022157	-0.4186422047	-0.007234
O	-3.248924127	-0.5761687392	 0.1313911949	-0.287141
H	 0.5224389698	 1.8643019123	 0.5018450826	 0.137013
H	-0.3734443733	 1.6580978242	-1.0188222272	 0.139892
H	-1.228380356	 1.5475593768	 0.533105091	 0.156899
H	 0.4718890192	-2.7591232851	-1.3052188969	 0.097254
H	 0.1522605992	-3.2072919975	 1.3453539295	 0.114526
H	 1.6660066802	-2.2321977474	 1.2710619128	 0.10991
H	-0.7427660375	-0.7385588198	 2.1622722087	 0.118188
H	-2.7569270137	-1.991264259	-1.2340102608	 0.074877
103.1438	138.9271	178.9055	193.4417	268.1917	308.0715	408.418	506.3558	584.3238	627.3882	713.0012	724.3206	771.1935	833.5353	881.5867	915.1308	936.4817	955.8795	989.6294	1030.0567	1047.7632	1076.5126	1095.0577	1116.0397	1156.9347	1186.7534	1222.829	1267.1857	1289.4496	1325.7967	1397.9009	1429.2903	1462.3655	1474.4878	1485.9066	1498.1935	1767.9047	2881.8884	3042.7441	3057.0974	3112.129	3124.3121	3130.9049	3154.4032	3212.2979
CC12OC3CC1C23C=O	C[C@@]12O[C@H]3C[C@@H]1[C@@]23C=O	
InChI=1S/C7H8O2/c1-6-4-2-5(9-6)7(4,6)3-8/h3-5H,2H2,1H3	InChI=1S/C7H8O2/c1-6-4-2-5(9-6)7(4,6)3-8/h3-5H,2H2,1H3/t4-,5-,6+,7+/m0/s1
