19
gdb 108070	2.61543	1.7059	1.29308	1.5013	74.94	-0.215	0.0734	0.2883	1035.1318	0.158582	-422.954732	-422.946489	-422.945545	-422.987248	32.334	
C	-0.2528105216	 1.2896750074	 0.1785724336	-0.270972
O	 0.0732911384	-0.0924969896	 0.0667804751	-0.29936
C	 0.7754143162	-0.5655906712	 1.1585135869	 0.359877
C	 2.1498674994	-0.1717036833	 1.684452868	-0.306801
C	 2.0156298482	-1.4630421215	 2.5482602762	-0.068029
C	 0.8526778329	-1.1699885955	 3.5498577937	-0.280555
C	-0.0292762106	-1.1852295008	 2.3205323125	 0.373747
O	-1.4065212269	-1.17148599	 2.3077830834	-0.47734
C	 0.952860805	-2.0233501412	 1.5154219277	-0.258874
H	 0.6523665556	 1.9105067219	 0.1981599489	 0.122776
H	-0.8421867059	 1.5486616931	-0.7034319479	 0.130423
H	-0.8394264406	 1.4934709325	 1.0840655674	 0.121626
H	 2.9207589177	-0.2800281527	 0.915314871	 0.103105
H	 2.2776076256	 0.7789716235	 2.2151899146	 0.088891
H	 2.901219296	-1.9999042875	 2.8757303466	 0.080974
H	 0.6576735781	-2.0269053311	 4.2013214185	 0.106099
H	 0.9140671929	-0.2526384225	 4.1474640798	 0.087379
H	-1.6752074214	-0.9162423795	 1.4148689785	 0.287718
H	 0.8812913607	-2.9320186821	 0.9360468555	 0.099316
88.3792	164.8517	185.5298	244.5504	286.4005	376.9848	416.4862	428.0077	450.0471	481.0737	652.0001	661.1718	679.5913	791.8602	804.7469	869.061	874.2343	918.7338	981.8216	996.0529	1035.2402	1066.2738	1074.8089	1094.6572	1113.32	1139.0944	1146.1121	1181.4229	1200.1121	1205.3223	1244.4515	1257.3187	1273.2252	1329.3402	1409.9515	1421.1482	1479.9652	1489.4129	1498.9062	1509.3602	1512.4292	3003.0814	3026.2161	3032.5435	3061.9826	3090.6261	3093.5189	3126.8771	3156.9737	3227.1668	3757.0699
COC12CC3CC1(O)C23	CO[C@@]12C[C@H]3C[C@]1(O)[C@@H]23	
InChI=1S/C7H10O2/c1-9-7-3-4-2-6(7,8)5(4)7/h4-5,8H,2-3H2,1H3	InChI=1S/C7H10O2/c1-9-7-3-4-2-6(7,8)5(4)7/h4-5,8H,2-3H2,1H3/t4-,5+,6+,7-/m1/s1
