20
gdb 22668	5.17707	0.80215	0.72528	1.4236	88.31	-0.2175	-0.0257	0.1918	1581.8049	0.170647	-403.132743	-403.12348	-403.122536	-403.167513	34.473	
C	-0.0060219086	 1.6061669986	-0.1271374894	-0.389126
C	 0.0093240732	 0.07673101	-0.0546697196	-0.178892
C	-1.3842282647	-0.5629605436	 0.0994043879	-0.028816
C	-1.3542314784	-2.1188650583	 0.0684821887	-0.330118
C	-2.1437430569	-2.5514639566	 1.2922946319	 0.375491
C	-2.4812582443	-1.3555265609	 2.0620403676	-0.151689
C	-2.0686469329	-0.2580867526	 1.41399114	-0.06978
N	-2.4180889128	-3.7798829357	 1.51665941	-0.238779
O	-3.1509415078	-3.9330729356	 2.7110422301	-0.398963
H	 1.0032907559	 2.0010721557	-0.2776258962	 0.116622
H	-0.6271772171	 1.9568421407	-0.9590318276	 0.115951
H	-0.3987075485	 2.0538652301	 0.7914620641	 0.118311
H	 0.4688786747	-0.3230674588	-0.9673406667	 0.100469
H	 0.6437304919	-0.2518537215	 0.7786587818	 0.100215
H	-2.0108065922	-0.1830311056	-0.7215464996	 0.084412
H	-1.7772746212	-2.5324093908	-0.8501671992	 0.122996
H	-0.323712323	-2.4844269184	 0.1370854262	 0.122395
H	-3.0047050032	-1.3923377994	 3.0065547849	 0.119839
H	-2.2133205071	 0.7566940231	 1.7684190588	 0.105358
H	-3.2817734668	-4.8860271003	 2.7430411063	 0.304103
28.6075	100.6316	175.6635	221.4311	251.0178	259.3996	266.9326	339.7784	370.9049	443.3004	535.3007	615.5088	695.1122	723.9797	790.0507	815.4261	840.6862	868.2728	939.692	958.8355	968.4048	991.5607	1016.1662	1061.798	1104.3197	1121.8311	1137.24	1204.3885	1241.808	1267.1554	1284.9242	1300.1629	1345.1474	1371.8793	1377.3374	1404.1085	1412.7529	1474.7641	1487.6798	1500.2721	1506.8081	1645.3751	1726.5929	2986.9526	3019.3617	3033.136	3048.1143	3054.7418	3099.1865	3099.9348	3105.5391	3191.7309	3246.7588	3827.0669
CCC1CC(C=C1)=NO	CC[C@H]1CC(=NO)C=C1	
InChI=1S/C7H11NO/c1-2-6-3-4-7(5-6)8-9/h3-4,6,9H,2,5H2,1H3	InChI=1S/C7H11NO/c1-2-6-3-4-7(5-6)8-9/h3-4,6,9H,2,5H2,1H3/t6-/m1/s1
