18
gdb 22122	3.58293	0.92727	0.8795	0.5345	83.09	-0.2464	0.0023	0.2487	1370.3526	0.144268	-401.866087	-401.856609	-401.855665	-401.90053	35.709	
C	-0.2586886151	 1.6068516537	-0.0863104521	-0.442273
C	-0.0096227209	 0.0950308174	-0.0024964599	 0.1324
C	 1.2203056702	-0.3626889953	-0.8875928268	-0.35062
C	 2.0133048636	-0.5062627166	 0.3905753876	 0.423095
C	 0.8109304445	-0.3096444999	 1.2857334268	-0.354939
N	 3.2575573062	-0.6622493734	 0.5610043119	-0.232327
O	 3.5735491692	-0.7104707518	 1.9319737653	-0.393719
C	-1.2320651534	-0.6598347191	-0.2159644146	 0.27366
C	-2.2424154715	-1.2881598673	-0.3925802681	-0.457996
H	 0.6759048119	 2.1542015019	 0.0757292515	 0.120687
H	-0.6534412862	 1.8811736441	-1.0688666718	 0.128622
H	-0.9801177618	 1.9235681567	 0.6724748151	 0.129047
H	 1.0446547637	-1.3128012024	-1.3991635431	 0.132492
H	 1.5797843996	 0.3710421283	-1.6136640249	 0.12481
H	 0.9027272073	 0.4601145042	 2.056398229	 0.129561
H	 0.4626172622	-1.2349528255	 1.7524614724	 0.135743
H	 4.5306944893	-0.8168368527	 1.9153421363	 0.307172
H	-3.1340691488	-1.8434355024	-0.5480549044	 0.194584
35.9087	140.5551	166.1934	213.5917	248.1854	270.5021	321.028	348.0292	378.4374	447.4764	482.7749	527.2844	564.8418	621.2342	625.6717	627.476	751.596	827.0275	882.0691	895.3682	917.8758	955.9267	981.2897	1045.9705	1112.0464	1132.0689	1177.6909	1194.122	1229.2436	1250.9424	1292.3802	1403.8201	1409.0032	1447.4604	1466.6575	1489.6461	1496.0285	1788.2202	2232.1526	3034.3197	3059.2314	3063.8337	3107.0793	3113.209	3114.3034	3117.0706	3501.2589	3818.3418
CC1(CC(C1)=NO)C#C	C[C@]1(CC(=NO)C1)C#C	
InChI=1S/C7H9NO/c1-3-7(2)4-6(5-7)8-9/h1,9H,4-5H2,2H3	InChI=1S/C7H9NO/c1-3-7(2)4-6(5-7)8-9/h1,9H,4-5H2,2H3/t7-
