19
gdb 71987	1.92412	1.78069	1.72865	1.4851	75.57	-0.2121	0.0564	0.2685	993.4587	0.158258	-422.972425	-422.963844	-422.9629	-423.004897	33.701	
C	-0.0602695787	 1.5250755012	 0.1773805093	-0.529649
C	-0.0126050494	 0.0417174298	 0.0255676656	 0.210654
C	 0.343795143	-0.9350786172	-1.1791624642	-0.116495
C	 1.3889398753	-1.6485528201	-0.267327314	-0.303967
C	 0.5641265727	-1.0736423216	 0.8709989937	 0.256934
O	 0.8566796244	-0.9755768439	 2.2259073206	-0.475982
C	-0.9231070837	-1.0997696061	 0.4543659304	 0.328361
O	-1.9077862728	-1.1211797981	 1.4193430312	-0.478983
C	-1.0000720867	-1.6932078285	-0.9351981951	-0.28471
H	 0.9206485474	 1.9879153302	 0.0182798037	 0.1204
H	-0.763894644	 1.9778898644	-0.5304035244	 0.122221
H	-0.3917461708	 1.7906920413	 1.1867401178	 0.130357
H	 0.6189674911	-0.6083207103	-2.1785451519	 0.078392
H	 1.4851992174	-2.7369779641	-0.3666165033	 0.083713
H	 2.3749972552	-1.1785822884	-0.3326909151	 0.102569
H	 0.907241634	-1.8696101514	 2.5863751356	 0.288493
H	-1.4591511537	-1.0481161117	 2.2732446613	 0.278825
H	-1.8187617205	-1.2627267562	-1.5195392854	 0.103962
H	-0.9952119403	-2.7839155694	-1.0507356759	 0.084905
144.7183	177.3663	181.3051	239.7407	251.6237	258.7653	365.4217	440.5864	451.9223	455.3084	553.6277	644.201	666.9465	675.6204	685.6585	772.9305	821.0981	898.9157	910.2005	976.3971	1030.5985	1058.1302	1089.8605	1097.4544	1110.2143	1129.8486	1143.8688	1188.5522	1205.0711	1239.613	1250.8261	1287.5493	1325.0745	1345.7132	1407.0118	1416.421	1482.0678	1483.2108	1495.7655	1501.8898	1523.9572	3019.8307	3021.1876	3028.4593	3078.4692	3088.1659	3090.1572	3094.5601	3149.5204	3741.2548	3770.6518
CC12C3CC1(O)C2(O)C3	C[C@@]12[C@H]3C[C@]1(O)[C@]2(O)C3	
InChI=1S/C7H10O2/c1-5-4-2-6(5,8)7(5,9)3-4/h4,8-9H,2-3H2,1H3	InChI=1S/C7H10O2/c1-5-4-2-6(5,8)7(5,9)3-4/h4,8-9H,2-3H2,1H3/t4-,5+,6+,7-
