19
gdb 39614	2.5539	1.62216	1.0951	0.9402	90.02	-0.2194	-0.0155	0.2039	1124.5684	0.161246	-348.73156	-348.72358	-348.722635	-348.763571	31.715	
C	 0.011220321	 1.5489503064	 0.2656060961	-0.247792
C	 1.4514844477	 2.0983264315	-0.0113017701	-0.337713
C	 1.821280959	 1.6954976095	-1.3594684576	 0.021203
C	 1.8010309323	 1.1132107113	-2.4184912185	 0.116098
C	 1.4405437439	 0.2704302995	-3.4970221251	-0.190817
C	 0.2309391894	-0.3202531414	-3.4759539134	-0.050252
C	-0.8007308196	-0.0753407425	-2.3860680599	-0.314513
C	-0.4113574046	-0.6205042367	-1.0270074451	-0.013095
C	-0.0916200698	 0.0555427981	 0.0809550328	-0.040707
H	-0.2673691533	 1.816831423	 1.2912648551	 0.099899
H	-0.6772244384	 2.0761487648	-0.4014290388	 0.114648
H	 1.4619303546	 3.1870794408	 0.119799922	 0.12357
H	 2.1551752519	 1.6885238737	 0.7238014772	 0.129848
H	 2.1324879491	 0.0900444514	-4.3139117299	 0.105455
H	-0.0402154516	-0.990144459	-4.2876878013	 0.096434
H	-0.9813509956	 1.0032580324	-2.315396741	 0.118873
H	-1.7470041996	-0.5382186367	-2.6907770056	 0.101907
H	-0.388035455	-1.7079069183	-0.9728098292	 0.084665
H	 0.1740582486	-0.533169638	 0.9579500921	 0.082292
155.1045	171.8127	200.1128	254.894	295.6775	343.534	387.7066	470.5023	521.4969	559.6007	601.364	665.489	732.9735	738.9796	791.3942	835.3402	910.7185	917.1593	965.8729	973.146	996.5968	1008.2827	1014.7428	1086.0592	1161.9402	1186.312	1214.4017	1224.4178	1247.8312	1302.4258	1316.2799	1321.8099	1349.316	1406.6473	1429.6295	1469.2664	1474.1107	1489.1893	1640.24	1712.368	2323.9681	3025.5537	3025.7084	3039.5564	3056.9289	3066.9826	3088.0687	3123.6997	3147.888	3157.2848	3178.4447
C1CC#CC=CCC=C1	C1CC#CC=CCC=C1	
InChI=1S/C9H10/c1-2-4-6-8-9-7-5-3-1/h1-2,5,7H,3-4,6H2/b2-1-,7-5-	InChI=1S/C9H10/c1-2-4-6-8-9-7-5-3-1/h1-2,5,7H,3-4,6H2/b2-1-,7-5-
