22
gdb 95780	2.11163	1.69103	1.00101	3.5099	83.63	-0.2318	0.0311	0.2629	1243.2376	0.195703	-404.406996	-404.397663	-404.396719	-404.441121	34.97	
C	-0.1497915884	 1.5298978839	 0.0063002347	-0.393369
C	 0.0495616063	 0.0106460875	-0.0121082173	-0.08606
C	 0.7532874649	-0.4806462113	-1.2815791842	-0.205447
C	 1.0453771203	-1.9737419948	-1.1689112827	-0.232269
C	 1.9765853071	-2.228128118	 0.0107240763	-0.136251
N	 1.5507760523	-1.5505794551	 1.2311436627	-0.10501
C	 2.2285287113	-1.9788634121	 2.4439248133	-0.345065
C	 0.729990759	-0.4495067076	 1.2884622871	 0.420391
O	 0.5023603714	 0.1289535439	 2.3402505769	-0.394838
H	 0.8116822497	 2.0511734054	-0.0566373597	 0.113866
H	-0.7608488851	 1.8440627273	-0.8457622622	 0.102773
H	-0.6370395132	 1.8388184651	 0.9314742026	 0.143229
H	-0.9451244447	-0.4598296126	 0.0202931235	 0.10161
H	 0.1316977956	-0.2641575079	-2.1572985207	 0.098415
H	 1.6932395822	 0.0712265764	-1.4211396374	 0.09863
H	 0.1066786567	-2.5232345215	-1.0252686518	 0.105934
H	 1.5116820535	-2.3652167812	-2.0787478294	 0.101696
H	 2.0356909934	-3.3030432248	 0.2239937866	 0.105598
H	 2.9996452333	-1.907795627	-0.2475516029	 0.10266
H	 3.3136070649	-1.8291839909	 2.3602600844	 0.116794
H	 1.8474884358	-1.3906968344	 3.276486247	 0.169025
H	 2.0454153434	-3.0445782102	 2.6269131832	 0.117685
66.9882	108.1412	144.7845	206.5193	226.3996	282.9423	293.4759	372.224	380.8167	423.9189	452.7177	535.1428	575.1119	679.8853	747.0691	870.0654	887.1877	913.9799	928.4439	990.3951	1005.2504	1051.878	1093.4075	1129.3292	1146.2278	1156.3511	1171.7609	1204.4305	1231.174	1261.2233	1300.0093	1314.3032	1342.8935	1362.2696	1383.787	1385.4436	1405.7039	1426.4098	1458.7355	1487.5181	1491.116	1496.2783	1501.655	1503.8314	1508.293	1542.0285	1744.6864	2964.9744	2991.6646	3008.9008	3015.4077	3024.8768	3038.3246	3039.3073	3058.3681	3066.6057	3081.2256	3101.0176	3148.4253	3172.545
CC1CCCN(C)C1=O	C[C@H]1CCCN(C)C1=O	
InChI=1S/C7H13NO/c1-6-4-3-5-8(2)7(6)9/h6H,3-5H2,1-2H3	InChI=1S/C7H13NO/c1-6-4-3-5-8(2)7(6)9/h6H,3-5H2,1-2H3/t6-/m0/s1
