22
gdb 76740	2.01255	1.76944	1.1451	2.8618	82.47	-0.2264	0.0675	0.2939	1176.4395	0.192822	-404.324337	-404.314467	-404.313523	-404.358241	37.705	
C	-0.2088053132	 1.5428460425	 0.0168283896	-0.411512
C	-0.0352179508	 0.0325050559	-0.0344159721	-0.068073
C	 1.0728762855	-0.5712248909	-0.9964918319	 0.086615
O	 1.9318516525	 0.3150190929	-1.6600979188	-0.437275
C	 1.6690681678	-1.3081357369	 0.2163767624	 0.254605
C	 2.3751813141	-2.6278218589	 0.2341237368	-0.521351
N	 2.0773224693	-0.180129318	 1.1033201841	-0.437385
C	 0.6696874713	-0.6798431933	 1.1313710003	 0.293705
C	 0.0451306195	-1.1751234096	 2.3994420448	-0.512758
H	 0.7205039364	 2.0333692344	 0.3168234657	 0.124226
H	-0.4973223437	 1.9345285189	-0.9634754411	 0.121376
H	-0.9865892248	 1.8255936276	 0.7346750263	 0.105859
H	-0.9935338037	-0.4576894713	-0.2414025568	 0.064726
H	 0.6496343877	-1.2375356901	-1.7526160002	 0.079063
H	 2.4348866426	 0.7488768911	-0.9563508176	 0.289685
H	 3.3595504721	-2.5532482066	-0.2423576036	 0.1349
H	 2.5245499274	-2.9892889352	 1.2579516192	 0.114673
H	 1.8005648668	-3.3863796961	-0.308316976	 0.126308
H	 2.5625130312	-0.5841735989	 1.9039676528	 0.221246
H	-0.2047680677	-0.3449250034	 3.0705003703	 0.130968
H	-0.880463157	-1.7223108448	 2.1901652057	 0.125453
H	 0.7183208366	-1.8490568295	 2.9416161101	 0.114947
108.9679	175.5527	177.574	193.8867	206.0746	218.3289	242.5455	253.1353	320.7266	365.9834	499.3672	531.1426	557.6021	592.4501	653.6468	683.1374	733.3725	809.8663	835.917	879.375	945.1478	993.5654	1025.7688	1046.79	1081.9874	1092.6558	1103.8925	1136.7175	1150.1857	1166.7788	1200.8091	1230.8698	1277.0624	1332.2027	1343.4787	1368.9563	1405.6979	1412.233	1414.0327	1441.351	1475.8341	1479.8163	1487.881	1493.3545	1495.5636	1503.3506	1508.8316	3020.5846	3023.4702	3034.6121	3040.1123	3080.6591	3082.7271	3086.8422	3091.5748	3093.7239	3099.5679	3121.7231	3469.0508	3741.173
CC1C(O)C2(C)NC12C	C[C@H]1[C@@H](O)[C@@]2(C)N[C@@]12C	
InChI=1S/C7H13NO/c1-4-5(9)7(3)6(4,2)8-7/h4-5,8-9H,1-3H3	InChI=1S/C7H13NO/c1-4-5(9)7(3)6(4,2)8-7/h4-5,8-9H,1-3H3/t4-,5+,6-,7+/m0/s1
