17
gdb 131141	3.74408	1.21171	0.99823	1.7362	74.24	-0.2236	0.0222	0.2459	1170.2532	0.137572	-418.007608	-417.999738	-417.998794	-418.04036	30.476	
O	 0.0803517285	 1.3701128447	 0.1046425925	-0.460729
C	-0.0021582679	-0.0313597812	 0.0151793091	 0.297887
C	-0.6276907061	-0.7596264413	 1.1846732993	-0.33116
C	-1.4138385395	-0.5439894378	-0.0889038506	-0.288699
C	 1.0916330784	-0.6538240681	-0.7672877916	 0.164659
C	 1.9655206077	 0.0079185393	-1.6093700954	-0.150248
N	 2.7950669836	-0.9341271635	-2.1221524765	-0.180852
N	 2.5289882445	-2.1745713343	-1.677421538	-0.225181
C	 1.4978914986	-2.0087664969	-0.8538467867	-0.108369
H	 0.8480025667	 1.5776736123	 0.6503099747	 0.279558
H	-0.2781825633	-1.7578829491	 1.4246453676	 0.116851
H	-0.8941622073	-0.1494159521	 2.0402814391	 0.116143
H	-2.1965449663	 0.2056107867	-0.0727668792	 0.126181
H	-1.5958114674	-1.3918708552	-0.7391143612	 0.120523
H	 2.0396774781	 1.0498903533	-1.8734373111	 0.141588
H	 3.5556149646	-0.8001362827	-2.7662283109	 0.273912
H	 1.0792547771	-2.868100284	-0.3503206511	 0.107934
51.2244	159.2145	180.5614	317.4626	336.1969	364.1848	447.6115	500.524	517.96	534.2641	672.8714	703.6735	772.2108	799.7667	866.4141	875.3602	905.9989	921.0726	953.3992	980.2843	1004.331	1051.0366	1058.2878	1077.0245	1157.9781	1186.364	1191.8632	1245.5509	1271.5375	1328.1149	1372.7843	1398.9866	1418.2717	1451.3305	1492.2638	1497.6816	1613.1336	3133.4614	3141.1636	3220.3709	3237.2549	3241.2964	3274.5573	3677.7972	3784.5297
OC1(CC1)C1=CNN=C1	OC1(CC1)c1c[nH]nc1	
InChI=1S/C6H8N2O/c9-6(1-2-6)5-3-7-8-4-5/h3-4,9H,1-2H2,(H,7,8)	InChI=1S/C6H8N2O/c9-6(1-2-6)5-3-7-8-4-5/h3-4,9H,1-2H2,(H,7,8)
