20
gdb 95678	3.08367	1.23814	0.97807	3.0678	77.18	-0.2582	0.027	0.2853	1245.7549	0.172361	-440.30733	-440.298811	-440.297867	-440.34057	32.659	
C	 0.9304321564	 1.5696741312	-0.0018392252	-0.398454
C	 0.0820475587	 0.3061708125	 0.0235113802	 0.125999
C	 0.2293913806	-0.5304186846	-1.250429923	-0.196699
C	-0.60615539	-1.8249379272	-1.2621669595	-0.309648
C	-0.0526583691	-2.9327792753	-0.3986482543	 0.395727
N	 0.313615859	-4.0298425982	-0.9157158401	-0.503098
O	 0.0609215512	-2.7282327226	 0.9498801616	-0.243274
C	-0.3314562485	-1.4933676507	 1.5393327767	 0.01297
O	 0.4744957065	-0.4197534925	 1.1944044337	-0.239521
H	 1.9902976459	 1.3148422115	-0.0971287246	 0.13092
H	 0.6485988179	 2.2052092979	-0.8461184463	 0.118016
H	 0.7963657569	 2.1364601662	 0.9229025001	 0.126021
H	-0.980555318	 0.5826274468	 0.1359412693	 0.070669
H	-0.0831375768	 0.0908519169	-2.0975140259	 0.105339
H	 1.2872271939	-0.7736080075	-1.4045853702	 0.119427
H	-1.6398971951	-1.5999188313	-0.9659958471	 0.112216
H	-0.6451216069	-2.2342507354	-2.2720606827	 0.137818
H	 0.6662161581	-4.6552296569	-0.1873130723	 0.2178
H	-1.3886938895	-1.2859624742	 1.314155596	 0.093005
H	-0.2066726113	-1.6654534368	 2.6101047636	 0.124767
67.3179	130.9627	213.7615	222.3947	287.7453	332.4174	343.4971	396.0972	461.0064	481.1909	521.3051	644.2724	694.8316	747.6306	815.085	893.2859	914.9146	924.124	959.129	999.6233	1046.1412	1070.8411	1093.2413	1121.9875	1138.576	1162.0746	1207.5971	1226.5991	1246.704	1318.0753	1334.4559	1336.5157	1373.2641	1393.4067	1399.1489	1411.7183	1457.9356	1474.9988	1479.6415	1485.7296	1500.2637	1512.3381	1745.2076	2953.4243	2986.9297	3023.2333	3035.2649	3046.4319	3080.7192	3113.7377	3120.1496	3126.2777	3127.9942	3456.7064
CC1CCC(=N)OCO1	C[C@H]1CC[C]([NH])OCO1	
InChI=1S/C6H11NO2/c1-5-2-3-6(7)9-4-8-5/h5,7H,2-4H2,1H3	InChI=1S/C6H11NO2/c1-5-2-3-6(7)9-4-8-5/h5,7H,2-4H2,1H3/t5-/m0/s1
