18
gdb 87270	2.08907	1.55318	1.04356	2.0017	74.6	-0.2508	-0.0347	0.2162	1180.6028	0.146503	-439.131509	-439.122266	-439.121322	-439.165492	34.324	
C	-0.1700503849	 1.6065631545	 0.1570038722	-0.428317
C	-0.0815842599	 0.0964004943	 0.1447117289	-0.0036
C	 1.0708963052	-0.6415714784	-0.4027197984	-0.314745
C	 0.8186222567	-0.715774596	 1.12032694	 0.085287
C	 1.7798495058	 0.0333836497	 1.9525263734	 0.113761
O	 2.12524944	-0.2385371672	 3.0850048027	-0.305207
C	 0.1826739595	-2.0154011894	 1.5831254875	 0.36184
N	 0.4804980545	-2.4056901727	 2.8417313259	-0.554452
O	-0.5560171403	-2.6406740577	 0.8373900543	-0.387951
H	 0.8097316164	 2.0908199335	 0.1729080936	 0.122729
H	-0.683118732	 1.943763432	-0.7498969484	 0.134058
H	-0.7433308137	 1.9692069592	 1.0161040937	 0.133352
H	-1.0304769593	-0.4183502787	 0.0279300889	 0.136322
H	 0.890099386	-1.5755202285	-0.9204923051	 0.157294
H	 1.9468891689	-0.0816930932	-0.7156643627	 0.12159
H	 2.2175385585	 0.920969322	 1.451270964	 0.089386
H	 1.1199622603	-1.8611579794	 3.4050584206	 0.281837
H	 0.0845952482	-3.2709426641	 3.1697968387	 0.256816
66.6183	113.939	170.2548	196.8301	243.0974	280.5934	326.4721	371.3088	406.4464	413.1342	433.6402	511.6508	606.154	669.0617	720.7252	741.527	811.9762	886.5608	907.3817	953.7101	1023.1259	1044.4957	1069.629	1086.8625	1130.2818	1141.6981	1203.2421	1239.2323	1315.9227	1374.3619	1402.9985	1422.0239	1454.6287	1471.107	1493.6085	1506.9109	1603.6484	1765.9078	1786.4189	2917.3882	3039.6303	3100.6277	3114.2235	3133.8835	3168.1786	3237.4307	3526.1842	3702.5327
CC1CC1(C=O)C(N)=O	C[C@H]1C[C@]1(C=O)C(=O)N	
InChI=1S/C6H9NO2/c1-4-2-6(4,3-8)5(7)9/h3-4H,2H2,1H3,(H2,7,9)	InChI=1S/C6H9NO2/c1-4-2-6(4,3-8)5(7)9/h3-4H,2H2,1H3,(H2,7,9)/t4-,6+/m0/s1
