17
gdb 20909	3.21126	1.99123	1.3621	3.2356	70.81	-0.2013	0.0423	0.2436	927.1451	0.144103	-360.065247	-360.057224	-360.05628	-360.098015	29.352	
C	 0.0653575289	 1.5574369279	 0.0140515703	-0.380412
C	-0.0232697511	 0.0324186689	-0.0801588632	-0.141315
N	 0.7083688025	-0.5081637774	-1.2107567639	 0.002945
N	 0.0439822528	-0.7929671506	-2.3669161092	-0.282424
C	 0.9965909133	-1.1571633967	-3.2143716817	 0.005888
C	 2.2794146952	-1.1220398032	-2.6296443052	-0.305919
C	 2.0491955234	-0.693891425	-1.3337098541	 0.375895
N	 2.9293053511	-0.3826718953	-0.2909378382	-0.60503
H	 1.1020477899	 1.8796218525	 0.1441399078	 0.138155
H	-0.3289959856	 2.0141206815	-0.8975851816	 0.140097
H	-0.5198837428	 1.9184015777	 0.8656639898	 0.114779
H	 0.3466103118	-0.4321221539	 0.8420518912	 0.101669
H	-1.0572357108	-0.2914764048	-0.2144532616	 0.139442
H	 0.7311620911	-1.4482480718	-4.2207311957	 0.104021
H	 3.2290541183	-1.3789468817	-3.0706094942	 0.088732
H	 3.8691569448	-0.6935493916	-0.4982423551	 0.254534
H	 2.6456016472	-0.7665183766	 0.6034002246	 0.248943
50.734	118.4515	173.6133	227.3451	277.5389	307.6832	405.2776	451.6628	648.5383	659.4789	672.9273	726.2167	743.5953	786.8771	792.1011	880.8977	939.9978	972.5294	1046.2471	1065.9751	1103.0284	1110.0988	1223.4382	1248.7276	1274.2283	1344.1619	1379.7345	1388.6793	1407.754	1454.1404	1482.0273	1491.3848	1508.557	1553.967	1594.0483	1656.274	3032.9563	3044.0789	3109.5639	3119.4681	3134.1873	3235.5449	3262.1569	3524.5954	3623.2538
CCN1N=CC=C1N	CCn1nccc1N	
InChI=1S/C5H9N3/c1-2-8-5(6)3-4-7-8/h3-4H,2,6H2,1H3	InChI=1S/C5H9N3/c1-2-8-5(6)3-4-7-8/h3-4H,2,6H2,1H3
