16
gdb 45872	2.03131	1.82063	1.27596	3.0961	76.33	-0.2228	-0.0135	0.2093	1033.0203	0.125006	-400.760454	-400.752379	-400.751435	-400.793139	30.771	
O	 0.011347104	-0.0503443337	-0.0194714906	-0.35626
C	 0.000096356	 1.1598684232	 0.0016943251	 0.398589
N	-1.1624100913	 1.8904470089	 0.0781216411	-0.319617
C	-1.2338788675	 3.2866028398	-0.0117568938	 0.024139
C	-0.1933362089	 4.0187961871	-0.4078323978	-0.101906
C	 1.0916159126	 3.3391526317	-0.7975388623	-0.287887
C	 1.284546464	 2.0213457029	-0.0046770219	-0.275462
C	 1.6807286102	 2.2729106402	 1.3791146185	 0.347866
C	 2.0033892687	 2.4924746313	 2.5157081536	-0.48362
H	-2.0063350915	 1.3466900887	 0.177904016	 0.258038
H	-2.1929536739	 3.7085913053	 0.263037522	 0.11739
H	-0.2786633256	 5.0963033368	-0.4623995453	 0.100541
H	 1.0848178232	 3.1055064415	-1.8724400693	 0.119459
H	 1.9544102666	 3.9878827622	-0.6242030736	 0.124409
H	 2.0473626816	 1.4013911587	-0.4849332464	 0.133381
H	 2.2932742518	 2.6751519553	 3.5207774146	 0.200939
85.633	133.0384	147.3278	222.9499	352.5958	432.3198	448.2244	468.4062	544.2064	574.0477	608.0365	628.7412	638.3728	721.5288	734.7922	802.6475	857.5994	912.8979	942.9293	956.5323	1032.1651	1052.309	1100.5606	1159.1805	1224.7021	1254.5947	1304.7582	1314.9541	1370.4071	1422.3433	1463.8536	1474.114	1725.8235	1811.0514	2234.8447	3000.8118	3070.6158	3087.6119	3200.7943	3222.2665	3504.655	3625.84
O=C1NC=CCC1C#C	O=C1NC=CC[C@H]1C#C	
InChI=1S/C7H7NO/c1-2-6-4-3-5-8-7(6)9/h1,3,5-6H,4H2,(H,8,9)	InChI=1S/C7H7NO/c1-2-6-4-3-5-8-7(6)9/h1,3,5-6H,4H2,(H,8,9)/t6-/m1/s1
