19
gdb 7782	3.0521	1.89508	1.24855	3.2561	73.4	-0.2524	0.025	0.2774	999.1601	0.167021	-365.097141	-365.08934	-365.088396	-365.129259	29.812	
C	 0.0348351837	 1.5153304214	 0.0882413075	-0.398125
C	 0.0021504102	 0.0039037822	-0.0723996473	 0.14414
C	 0.7641739613	-0.5026146107	-1.2931828467	-0.200952
C	 0.8055037692	-2.0320387158	-1.2882903683	-0.229305
C	 1.4463979725	-2.5139195736	 0.0183930871	-0.257166
C	 0.8460280361	-1.8681380293	 1.2457873864	 0.376481
N	 0.7389814777	-2.5018064731	 2.337194462	-0.499546
O	 0.5271543707	-0.5402541001	 1.1602815756	-0.269421
H	 1.0668399023	 1.8688837994	 0.1754947808	 0.12577
H	-0.4278151855	 1.9992191619	-0.7771214482	 0.11752
H	-0.5084952429	 1.8167375468	 0.9874278523	 0.128647
H	-1.0440682156	-0.330745042	-0.1515825345	 0.081738
H	 0.2759777157	-0.1208240528	-2.1964406516	 0.101926
H	 1.7845158281	-0.097218871	-1.2782770523	 0.102597
H	-0.214803977	-2.4278144618	-1.3739189088	 0.10606
H	 1.3663013355	-2.4142583949	-2.1466820146	 0.102352
H	 1.3844786037	-3.5958069199	 0.1437877106	 0.129669
H	 2.513199747	-2.2504235061	 0.0068862166	 0.12329
H	 0.3488369671	-1.8851140806	 3.0540460735	 0.214324
97.2333	111.4551	225.9958	262.3717	283.6226	421.3955	428.5709	442.8863	514.7652	537.3343	645.0617	763.3822	855.2256	865.3641	896.9133	925.2061	935.8724	986.2566	988.883	1055.0159	1091.0325	1116.9553	1133.8557	1159.8079	1206.3496	1227.9712	1280.3793	1317.0185	1341.7052	1359.6002	1374.3364	1394.8947	1405.6233	1411.7534	1468.6723	1479.2182	1486.1876	1498.6251	1500.555	1745.6362	2979.8972	3018.3944	3023.0925	3030.1486	3043.5243	3075.7249	3081.6214	3117.3809	3123.2278	3124.6107	3453.1075
CC1CCCC(=N)O1	C[C@H]1CCC[C]([NH])O1	
InChI=1S/C6H11NO/c1-5-3-2-4-6(7)8-5/h5,7H,2-4H2,1H3	InChI=1S/C6H11NO/c1-5-3-2-4-6(7)8-5/h5,7H,2-4H2,1H3/t5-/m0/s1
