22
gdb 52615	2.0556	1.19943	0.98	1.5448	91.32	-0.2298	0.0522	0.2821	1389.6577	0.190927	-367.164998	-367.154093	-367.153149	-367.202019	39.269	
C	-1.1619370421	 1.3780055006	 0.1222045977	-0.499289
C	-0.7576491723	-0.0213157394	 0.086329889	-0.026015
C	-0.4296834887	-1.1807946353	 0.0403416297	 0.13355
C	-0.0231434693	-2.5981255448	-0.0038161903	 0.093179
C	-1.2652672997	-3.4838173431	-0.2180744373	-0.390662
C	 0.9869879739	-2.8086874707	-1.1477593254	-0.390668
N	 0.6322160816	-3.0776072505	 1.2356022037	-0.077768
C	 1.5059465728	-2.1793664356	 1.9794932292	-0.228514
C	 0.1784112426	-2.5778324659	 2.5270644793	-0.22859
H	-0.2935272915	 2.0455862076	 0.1421427367	 0.148188
H	-1.7585257739	 1.6380458865	-0.7592307668	 0.150211
H	-1.7691155643	 1.5962929738	 1.0075448215	 0.14835
H	-1.7641922729	-3.2277576406	-1.1564034192	 0.116328
H	-0.9622354099	-4.5341235038	-0.24504857	 0.120362
H	-1.9793899415	-3.3482412253	 0.5985974197	 0.119348
H	 1.8767762504	-2.1925606852	-0.9929307325	 0.119337
H	 1.2909203118	-3.8587163631	-1.1753187785	 0.120362
H	 0.5434716018	-2.5357862201	-2.1088854686	 0.116358
H	 2.4217947439	-2.6254513318	 2.3571415982	 0.110452
H	 1.5951461793	-1.1507112914	 1.6370467356	 0.117455
H	-0.5882363835	-1.8061381373	 2.5375656508	 0.117553
H	 0.1004311615	-3.3221744148	 3.3146355276	 0.110472
18.695	88.1489	91.5277	123.2409	217.7981	242.9105	245.4028	270.2701	297.3595	318.5464	338.3629	397.6729	464.5378	555.5174	568.6343	611.7225	741.0873	826.5762	912.3341	913.9089	943.0717	990.8512	1020.7396	1041.8967	1052.357	1054.9676	1066.6568	1113.9312	1124.993	1167.4418	1176.2311	1191.194	1205.7777	1262.8309	1309.4869	1390.6784	1412.2126	1414.6049	1475.9963	1477.6399	1479.5702	1481.1194	1482.5042	1491.2873	1505.3684	1508.3066	2352.945	3027.3995	3042.4778	3046.3398	3088.2885	3088.5201	3100.88	3102.6936	3120.9512	3122.6693	3123.2183	3128.7198	3181.4181	3194.7918
CC#CC(C)(C)N1CC1	CC#CC(C)(C)N1CC1	
InChI=1S/C8H13N/c1-4-5-8(2,3)9-6-7-9/h6-7H2,1-3H3	InChI=1S/C8H13N/c1-4-5-8(2,3)9-6-7-9/h6-7H2,1-3H3
