13
gdb 15517	3.81405	1.95251	1.32222	6.6795	55.87	-0.268	-0.0253	0.2427	855.1001	0.096564	-435.799883	-435.792902	-435.791958	-435.831677	24.024	
O	-0.1667399336	 0.0289949058	-0.2585305571	-0.259497
C	-0.0341418478	 1.2159391905	-0.1516555327	 0.161201
N	 1.1675685511	 1.8997089824	-0.0037966069	-0.179818
C	 1.2445347985	 3.3467167339	 0.1599180328	-0.201967
C	 2.7435163386	 3.5817112554	-0.0808577893	-0.093225
O	 3.3602649189	 2.317567259	 0.1858782116	-0.24079
C	 2.4448278774	 1.3084826617	 0.1125520214	 0.516208
O	 2.7241761181	 0.1535465775	 0.1574593335	-0.337989
H	-0.8816689321	 1.9308853407	-0.1700023444	 0.086794
H	 0.6181176472	 3.8719883912	-0.5647806891	 0.139693
H	 0.9420007054	 3.647818634	 1.1697012638	 0.136306
H	 2.9507984777	 3.8651237866	-1.1183982511	 0.133076
H	 3.1749794708	 4.3269112012	 0.5885117476	 0.140006
78.9079	171.9326	200.4934	210.4861	217.6476	478.6648	504.0271	693.9474	738.0476	769.1139	799.8063	889.1306	981.5594	1030.3177	1076.2961	1118.2829	1140.3633	1210.9893	1224.3407	1252.733	1308.6131	1391.1034	1409.2732	1454.3522	1519.2873	1529.2597	1822.5282	1927.7617	2926.5931	3033.5402	3049.7122	3099.8768	3127.8134
O=CN1CCOC1=O	O=CN1CCOC1=O	
InChI=1S/C4H5NO3/c6-3-5-1-2-8-4(5)7/h3H,1-2H2	InChI=1S/C4H5NO3/c6-3-5-1-2-8-4(5)7/h3H,1-2H2
