21
gdb 94634	3.59483	0.75905	0.67732	1.3759	84.7	-0.2441	0.0521	0.2963	1683.8946	0.180512	-387.042251	-387.032248	-387.031304	-387.078261	36.182	
C	-0.3481670229	 1.4977439707	-0.1296373134	-0.402797
C	 0.1445011229	 0.0650902581	-0.0861374879	 0.135974
O	 1.4376046332	-0.0955595974	-0.7189116409	-0.289808
C	 1.9520342484	-0.8331283349	 0.4050869089	-0.079162
C	 0.6774566414	-0.5613290545	 1.2366372742	-0.054177
C	 0.8441894282	 0.3458179894	 2.4512447495	-0.199702
C	 1.5176359989	-0.3909342659	 3.6292339421	-0.362168
C	 1.7017001002	 0.45711571	 4.8001956219	 0.289829
C	 1.8410121761	 1.1786613044	 5.7513768103	-0.430272
H	 0.3554727431	 2.1822976039	 0.3504741104	 0.122974
H	-0.467492029	 1.8107835084	-1.171704894	 0.127913
H	-1.3217688706	 1.5885885655	 0.3640781484	 0.116046
H	-0.5953238827	-0.5883922192	-0.5722648372	 0.070245
H	 2.1355549424	-1.8870136602	 0.1573978592	 0.096861
H	 2.8823758318	-0.3946916346	 0.7899911746	 0.098511
H	 0.1368323863	-1.4671910344	 1.5279663338	 0.072716
H	 1.446865421	 1.2235976081	 2.1940872994	 0.117575
H	-0.1312970823	 0.7207667868	 2.781048361	 0.112018
H	 0.9146326172	-1.2670537997	 3.9026464107	 0.129814
H	 2.4917322381	-0.7831798706	 3.3080041885	 0.133323
H	 1.9698928484	 1.8060778762	 6.5980411003	 0.194287
43.4221	76.8521	95.3999	106.202	205.903	229.9035	259.2769	343.4634	372.8763	405.2051	464.0361	544.8735	618.3501	637.3254	737.9504	776.0637	844.9365	875.239	895.8788	943.0407	975.7164	998.1262	1030.6902	1041.4119	1087.7815	1104.841	1148.3368	1159.2006	1170.6879	1224.0668	1239.4805	1287.1648	1297.442	1318.7077	1355.7014	1368.2637	1387.9261	1398.0704	1411.0855	1471.6335	1481.7053	1493.6075	1501.1994	1526.0204	2239.5835	2982.2917	3001.2473	3013.9105	3036.7648	3037.49	3041.6241	3043.2631	3057.7053	3087.6699	3106.3275	3124.9903	3507.7595
CC1OCC1CCC#C	C[C@H]1OC[C@H]1CCC#C	
InChI=1S/C8H12O/c1-3-4-5-8-6-9-7(8)2/h1,7-8H,4-6H2,2H3	InChI=1S/C8H12O/c1-3-4-5-8-6-9-7(8)2/h1,7-8H,4-6H2,2H3/t7-,8-/m1/s1
