21
gdb 95072	2.74049	1.50317	1.19213	0.5231	77.4	-0.2378	0.071	0.3088	1101.6794	0.184941	-424.210484	-424.20268	-424.201735	-424.242236	32.165	
O	-0.1980663408	 1.4813112419	 0.2677670389	-0.430432
C	 0.0143259944	 0.0942373427	 0.0184485216	 0.081023
C	 0.8822846976	-0.4975135815	 1.1432216142	-0.093142
O	 1.3870108867	-1.7985232478	 0.9050268951	-0.269067
C	 0.4620785481	-2.8397650298	 0.6378923344	 0.137546
C	-0.2226223449	-2.7552953211	-0.7584304156	-0.243121
C	-1.4371753122	-2.0589666201	-0.0706803667	-0.01889
C	-0.948992085	-2.6882969855	 1.2682027135	-0.258134
C	-1.3843693376	-0.5264350351	-0.0945875541	-0.203269
H	 0.6492836338	 1.9319906907	 0.1933026933	 0.28272
H	 0.5549784582	-0.0444716736	-0.930383992	 0.07376
H	 1.7752089281	 0.1284099538	 1.2581884928	 0.091205
H	 0.3270972063	-0.4390180835	 2.0910391294	 0.09799
H	 1.0084003384	-3.7600639952	 0.8579547378	 0.077703
H	 0.3172829998	-2.2208352439	-1.5433882692	 0.099624
H	-0.4831875536	-3.7520907892	-1.1259571145	 0.095962
H	-2.425748776	-2.3849652548	-0.4046720148	 0.066583
H	-1.3925299354	-3.6744065436	 1.4303259352	 0.099771
H	-1.0527492501	-2.1100193692	 2.1892795467	 0.101968
H	-1.9867022871	-0.1285938968	 0.7323612458	 0.10753
H	-1.8403800489	-0.1520137584	-1.0179696119	 0.10267
141.3058	229.6246	297.4889	305.3423	321.9468	335.2524	382.7996	427.385	449.5497	496.8368	572.6633	773.2575	787.674	810.7003	863.3291	884.2983	898.065	926.794	957.0742	984.0874	1044.0273	1047.7381	1065.8704	1091.8117	1103.6907	1119.8004	1148.0562	1173.026	1216.7894	1225.1747	1256.2305	1259.9005	1272.2513	1288.3462	1318.9469	1335.4987	1356.0082	1368.6705	1391.5262	1412.8372	1445.5931	1466.511	1485.6789	1489.692	1510.3726	2982.1915	2998.6157	3026.5374	3054.3034	3054.6228	3059.4969	3067.0489	3072.7187	3081.4726	3113.5128	3114.6565	3815.0722
OC1COC2CC(C2)C1	O[C@H]1CO[C@@H]2C[C@@H](C2)C1	
InChI=1S/C7H12O2/c8-6-1-5-2-7(3-5)9-4-6/h5-8H,1-4H2	InChI=1S/C7H12O2/c8-6-1-5-2-7(3-5)9-4-6/h5-8H,1-4H2/t5-,6-,7+/m1/s1
