23
gdb 119158	2.3218	1.07839	0.84075	2.9716	85.82	-0.2358	0.0687	0.3044	1484.7901	0.206369	-384.41549	-384.405772	-384.404827	-384.450415	36.612	
C	 0.0024899821	 1.6261239154	 0.0845789292	-0.384609
C	 0.0071919788	 0.1220936252	-0.205216873	-0.191984
C	-1.3269485939	-0.542154922	 0.1582274577	-0.281319
C	-1.4029673058	-2.06205389	 0.0538353985	 0.307843
C	-0.3582685421	-2.8373353442	-0.6753910409	-0.276956
N	-0.4270234643	-2.8871438637	 0.7962338406	-0.34589
C	-2.7810772681	-2.6765992973	 0.0863263341	-0.003355
C	-3.9897069448	-1.9596861136	 0.5636913911	-0.257578
N	-3.832732454	-2.2835164827	-0.8672808292	-0.331081
H	 0.9562694327	 2.0856859627	-0.1912745515	 0.116261
H	-0.7876201114	 2.1346688686	-0.4788443091	 0.11792
H	-0.1697741506	 1.8251668478	 1.1478771308	 0.118314
H	 0.2232623437	-0.0416753239	-1.2670382192	 0.108021
H	 0.8296102526	-0.3457276124	 0.3524126765	 0.095633
H	-1.5935806319	-0.2621049381	 1.1868457678	 0.109885
H	-2.1061049759	-0.10113689	-0.4788461189	 0.094491
H	-0.6315106753	-3.7626578296	-1.1756989596	 0.118275
H	 0.464123866	-2.3028067586	-1.1396584353	 0.110507
H	 0.2986338319	-2.2950321439	 1.1938276831	 0.226327
H	-2.7359497072	-3.7502492308	 0.2527990176	 0.097478
H	-4.7764480764	-2.5096892122	 1.0724517241	 0.118052
H	-3.8932728112	-0.9248937363	 0.8778752531	 0.108073
H	-3.5458377047	-1.4510117104	-1.3779849776	 0.225694
74.4651	94.9325	102.5328	149.493	242.7562	256.021	266.7773	330.7916	361.5515	400.9989	483.6883	520.6149	701.6137	751.8533	813.1686	838.7768	855.784	891.3741	911.1266	929.5106	952.9423	965.9727	980.222	1001.2361	1045.0781	1055.0012	1105.4833	1116.0758	1129.7869	1150.3979	1162.9652	1187.7993	1248.3105	1259.0934	1270.0927	1291.6684	1299.1583	1330.1402	1337.2512	1357.9372	1405.5993	1414.4246	1436.4736	1481.5762	1490.7743	1500.6938	1507.4367	1512.358	1517.2663	3002.176	3016.6786	3030.9712	3032.1612	3061.7149	3099.3877	3106.8651	3114.947	3115.331	3136.9752	3197.4914	3200.8094	3486.2311	3492.8743
CCCC1(CN1)C1CN1	CCC[C@]1(CN1)[C@H]1CN1	
InChI=1S/C7H14N2/c1-2-3-7(5-9-7)6-4-8-6/h6,8-9H,2-5H2,1H3	InChI=1S/C7H14N2/c1-2-3-7(5-9-7)6-4-8-6/h6,8-9H,2-5H2,1H3/t6-,7+/m1/s1
