16
gdb 131778	3.23385	0.98679	0.80178	2.4834	67.68	-0.2251	-0.0035	0.2216	1368.5114	0.125118	-471.196705	-471.187994	-471.18705	-471.231282	31.12	
O	 0.1343677353	 1.4780581059	-0.2326647857	-0.40947
C	 0.0976761093	 0.0693665803	-0.1136899041	-0.055956
C	-1.3433720379	-0.4700750083	-0.0062889839	-0.345225
C	-1.4094291668	-1.9571048021	 0.0697873616	 0.241656
C	-1.4119225142	-2.8422480443	 1.1278899302	 0.296229
O	-1.3877706325	-2.5341541837	 2.4410950962	-0.434379
N	-1.4469825486	-4.1152845307	 0.6744367273	-0.278228
N	-1.4643039701	-4.093469511	-0.6364660403	-0.126585
N	-1.4362741638	-2.8063382169	-0.9984010903	-0.228846
H	-0.1451871411	 1.8560196286	 0.6072916191	 0.286761
H	 0.5727189506	-0.3223217429	-1.0194062361	 0.113156
H	 0.6869378919	-0.2888665097	 0.7429836179	 0.108643
H	-1.8100362661	-0.0586264843	 0.8962903148	 0.124442
H	-1.9199243385	-0.0944556895	-0.8593926354	 0.118603
H	-1.4238669002	-3.3696280961	 2.9236307366	 0.308277
H	-1.4580815572	-2.5736434353	-1.9790073478	 0.280923
37.1726	92.3852	110.4596	242.3891	293.3423	303.789	350.9076	358.8115	403.2915	473.7645	568.2724	690.5831	717.4427	745.4854	779.9256	798.0794	998.8532	1012.6376	1034.4616	1079.4356	1122.3179	1141.386	1158.9958	1247.2155	1286.2933	1294.3747	1342.4613	1363.0186	1398.3188	1400.3183	1414.9848	1480.3872	1509.236	1533.3928	1679.1675	3001.9318	3035.5058	3066.4677	3089.5144	3649.2385	3797.1098	3817.2936
OCCC1=C(O)N=NN1	OCCc1c(O)nn[nH]1	
InChI=1S/C4H7N3O2/c8-2-1-3-4(9)6-7-5-3/h8H,1-2H2,(H2,5,6,7,9)	InChI=1S/C4H7N3O2/c8-2-1-3-4(9)6-7-5-3/h8H,1-2H2,(H2,5,6,7,9)
