18
gdb 12738	2.61453	2.20751	1.7958	2.2645	67.2	-0.2375	0.0634	0.3009	850.0975	0.152898	-384.910073	-384.902304	-384.90136	-384.941878	29.962	
C	-0.5967927132	 1.4124847114	-0.0051624391	-0.415749
C	 0.0302111717	 0.0354212602	-0.0351017609	 0.134666
O	 1.1815476017	-0.0566697594	-0.9185790875	-0.314593
C	 1.9926659673	-0.6835125168	 0.0923327495	 0.047574
C	 2.8551341787	 0.3416734666	 0.8657201302	-0.228967
C	 1.7253586756	 0.4913120631	 1.9345051907	-0.308721
C	 0.8456724488	-0.518088324	 1.1518303066	 0.33349
O	 0.1592350088	-1.5118398565	 1.8446167414	-0.474131
H	 0.1284420996	 2.1816203488	 0.2751782199	 0.119088
H	-0.9892096778	 1.6657413336	-0.9950208531	 0.128935
H	-1.429707652	 1.4347833651	 0.7057710489	 0.123024
H	-0.7198136518	-0.7155120498	-0.3208285241	 0.085369
H	 2.4378481876	-1.6250430908	-0.2394870099	 0.074829
H	 3.7855270193	-0.0667608445	 1.2686685566	 0.099771
H	 3.0810836764	 1.2348231236	 0.2807848184	 0.113753
H	 2.0179163764	 0.0907871441	 2.9112021392	 0.093321
H	 1.3095060803	 1.4886692847	 2.0966553665	 0.107919
H	 0.6960285426	-1.7984014194	 2.5906166067	 0.280421
79.6894	202.2072	222.9418	255.8457	289.1027	362.9408	400.8363	421.8105	513.8067	630.2866	637.4853	733.0723	826.413	860.5627	882.1885	904.3423	945.4932	986.1153	1022.8879	1066.7411	1092.3945	1105.3419	1126.3777	1152.4379	1167.5556	1215.8056	1223.7301	1259.0142	1266.6668	1305.3554	1340.5024	1374.3158	1401.9131	1416.4805	1463.3562	1481.0149	1483.9005	1501.9575	3006.3065	3036.4693	3043.063	3063.6297	3079.5431	3098.6147	3108.1108	3114.6135	3129.4188	3811.6316
CC1OC2CCC12O	C[C@H]1O[C@H]2CC[C@@]12O	
InChI=1S/C6H10O2/c1-4-6(7)3-2-5(6)8-4/h4-5,7H,2-3H2,1H3	InChI=1S/C6H10O2/c1-4-6(7)3-2-5(6)8-4/h4-5,7H,2-3H2,1H3/t4-,5+,6-/m1/s1
