18
gdb 44571	2.91511	1.61806	1.44218	2.3681	74.46	-0.2317	-0.0268	0.2049	965.3943	0.14954	-401.933877	-401.926871	-401.925927	-401.965305	28.301	
O	-0.0081010037	-0.0156325772	-0.5009208552	-0.302588
C	-0.0550562917	 1.13657331	-0.1811923335	 0.387845
C	-1.1952820903	 2.1042858627	 0.1945873465	-0.355476
C	-0.1026819139	 3.0806231797	 0.7362969927	-0.050281
C	 0.2275899536	 3.0092680948	 2.2207252986	-0.025314
C	 0.3779952286	 1.6769299801	 2.8669278164	-0.267473
N	 1.5697275259	 2.423378643	 2.4543467953	-0.092305
C	 2.1113852162	 1.9916388256	 1.1504133255	-0.190561
C	 1.0201925685	 2.2121599158	 0.0815121906	-0.141238
H	-1.6987894531	 2.4779241941	-0.7037170015	 0.13102
H	-1.9525852428	 1.7365928377	 0.890335308	 0.131449
H	-0.1920011585	 4.1141999694	 0.4016593301	 0.079933
H	-0.0267919358	 3.8669005353	 2.8365899218	 0.094296
H	 0.247187797	 1.580913116	 3.9413715343	 0.120188
H	 0.1071801087	 0.7815674807	 2.3114631382	 0.131251
H	 2.9851121539	 2.6124810709	 0.9303354978	 0.114798
H	 2.4440763998	 0.9499104189	 1.1990616919	 0.127459
H	 1.4240585276	 2.5910011823	-0.8617211475	 0.106998
94.6406	180.0841	240.2869	364.0747	417.7278	472.5275	532.1232	609.0692	661.0426	714.6889	744.4129	755.6179	833.7356	846.9731	879.6014	939.6385	964.6879	982.4546	1017.4218	1022.4097	1042.3833	1083.3672	1099.217	1120.6286	1132.1553	1157.7649	1166.4152	1214.4362	1228.1161	1241.5745	1262.8702	1278.181	1335.9808	1337.6729	1386.4885	1443.867	1495.1301	1520.15	1885.0776	3048.7972	3054.3081	3075.4861	3093.4382	3104.1247	3107.0747	3118.0681	3149.702	3184.65
O=C1CC2C3CN3CC12	O=C1C[C@H]2[C@H]3CN3C[C@@H]12	
InChI=1S/C7H9NO/c9-7-1-4-5(7)2-8-3-6(4)8/h4-6H,1-3H2	InChI=1S/C7H9NO/c9-7-1-4-5(7)2-8-3-6(4)8/h4-6H,1-3H2/t4-,5-,6-,8?/m1/s1
