17
gdb 7678	3.80968	1.69778	1.59965	3.9375	68.81	-0.2423	-0.0077	0.2346	885.1014	0.140834	-363.854252	-363.846452	-363.845508	-363.885895	29.675	
C	-0.00697583	 1.5204366326	-0.0198187088	-0.464751
C	 0.0168482174	 0.0067648981	-0.0996668991	 0.315887
C	-1.2009627916	-0.6510385583	 0.5191222335	-0.443153
C	 0.6912795411	-0.7475359785	-1.1738558121	-0.066653
C	 1.9418291668	-0.072629374	-1.7310829678	-0.393549
C	 2.4022221012	-0.0150666059	-0.2645416735	 0.3972
O	 3.3664648353	 0.3817254814	 0.3118917502	-0.297764
N	 1.2717618316	-0.759475561	 0.2568902649	-0.216161
H	 0.8498556481	 1.9970535083	-0.498833216	 0.134832
H	-0.9162331378	 1.9004903814	-0.4971231456	 0.126104
H	-0.0214425789	 1.8378547283	 1.0278435649	 0.139642
H	-2.1089801967	-0.3426965727	-0.0104191451	 0.119922
H	-1.1214502531	-1.7395531509	 0.4792346405	 0.132494
H	-1.3011301556	-0.3566465279	 1.5682279864	 0.132457
H	 0.2691574085	-1.6615605032	-1.5767677219	 0.106282
H	 2.5714026437	-0.7526406189	-2.3111748178	 0.143993
H	 1.8385182799	 0.869280661	-2.2744668426	 0.133219
124.4884	175.8702	202.8797	231.4837	277.9265	360.8508	403.6954	458.7976	509.045	556.4941	626.3997	681.1046	793.498	846.3007	879.3095	953.9369	967.0759	1001.6428	1028.2596	1035.5741	1059.5983	1069.7309	1122.3718	1166.4607	1221.6013	1244.6182	1306.8047	1408.8517	1411.3146	1427.0223	1454.7613	1475.3666	1486.0618	1500.5064	1510.2889	1910.6838	3037.53	3044.334	3070.5693	3102.4456	3107.7612	3122.9001	3129.4291	3135.3462	3177.9346
CC1(C)C2CC(=O)N12	CC1(C)[C@H]2CC(=O)N12	
InChI=1S/C6H9NO/c1-6(2)4-3-5(8)7(4)6/h4H,3H2,1-2H3	InChI=1S/C6H9NO/c1-6(2)4-3-5(8)7(4)6/h4H,3H2,1-2H3/t4-,7?/m1/s1
