17
gdb 32330	3.06276	1.34278	0.99392	5.6477	71.13	-0.1993	0.032	0.2313	1175.9065	0.136267	-455.185398	-455.176411	-455.175466	-455.219342	32.057	
C	 0.3020312371	 1.2090981134	 0.5241517997	-0.337743
N	-0.3635227006	 0.2590887562	-0.3785273419	-0.388312
C	 0.4646007633	-0.5572673322	-1.1482207044	 0.267185
C	 0.7543388463	-1.8673427153	-1.0878081338	-0.120901
O	 1.548749224	-2.2203693444	-2.1667573099	-0.216579
C	 1.786488327	-1.0919917055	-2.9151447642	 0.486536
O	 2.4418122011	-1.0608042498	-3.9243328524	-0.41797
N	 1.1223379988	-0.059341718	-2.283600992	-0.15463
C	 1.0253540325	 1.268049074	-2.8501518773	-0.342572
H	 0.961749237	 0.7217721437	 1.2563840679	 0.120504
H	 0.9012182534	 1.9137308098	-0.0579438666	 0.13997
H	-0.4617157644	 1.7810461984	 1.0567387224	 0.131148
H	-1.0366344162	-0.3053303768	 0.1237511325	 0.243482
H	 0.4754795826	-2.649605463	-0.4051717118	 0.142355
H	 1.2658255842	 1.1920126782	-3.9118858161	 0.167333
H	 0.0096346842	 1.6484483292	-2.719833045	 0.146984
H	 1.7313238899	 1.964942032	-2.383749617	 0.13321
94.6804	114.4676	130.1691	164.4435	187.3098	239.6543	278.1362	365.2294	418.1415	580.517	595.6498	621.6868	682.0439	705.9576	745.549	766.8937	810.5946	968.7606	1040.7336	1063.6599	1126.632	1143.1828	1156.2994	1160.5814	1246.4451	1271.3023	1347.6041	1407.0711	1443.7046	1458.0409	1486.9698	1492.0901	1504.5953	1514.5756	1519.8401	1708.7642	1873.4231	3000.7096	3031.9213	3092.4243	3103.9545	3128.9281	3150.7584	3300.5532	3569.6475
CNC1=COC(=O)N1C	CNc1coc(=O)n1C	
InChI=1S/C5H8N2O2/c1-6-4-3-9-5(8)7(4)2/h3,6H,1-2H3	InChI=1S/C5H8N2O2/c1-6-4-3-9-5(8)7(4)2/h3,6H,1-2H3
