16
gdb 74626	3.1007	1.52709	1.46031	1.5247	69.57	-0.2084	0.0142	0.2226	958.454	0.126106	-434.014494	-434.007057	-434.006113	-434.045911	29.921	
N	 0.0545762029	 1.3816473832	 0.0311794409	-0.59369
C	 0.0073145105	 0.0101931908	 0.0419805825	 0.416927
N	-1.0733442382	-0.6888563432	-0.0158562005	-0.294234
C	-0.6606998752	-2.0614871231	 0.0898668278	-0.080879
C	 0.5136597373	-2.5449957994	-0.8158081985	 0.03135
O	 1.2421284511	-1.4353058042	-1.3048669448	-0.287629
C	 1.2499697399	-0.8549311666	 0.0525267275	-0.081214
C	 0.7361326974	-2.2166563677	 0.642633469	 0.25226
N	 1.1616326422	-2.8828242755	 1.8105770202	-0.635058
H	 0.8891225232	 1.8003527672	-0.3483590311	 0.257172
H	-0.799880285	 1.8266118972	-0.2744562824	 0.258984
H	-1.4172200812	-2.8005585387	 0.3316748547	 0.086677
H	 0.5045587811	-3.4503658447	-1.4122961952	 0.10698
H	 2.2207566667	-0.4334132859	 0.3134725969	 0.083606
H	 0.3941962246	-3.2367147036	 2.3663994151	 0.240435
H	 1.8252386228	-3.6268574956	 1.635848338	 0.238312
149.4703	179.7107	272.7719	295.5704	374.2444	396.9034	415.0194	537.258	588.0509	597.7003	656.0546	684.8735	709.8012	760.1275	801.8631	845.2778	878.4676	905.4367	932.2065	982.7094	1034.5818	1036.1875	1072.6891	1121.2973	1158.4281	1194.2588	1220.1951	1257.1851	1270.2492	1302.773	1419.2308	1464.1154	1622.0884	1653.4235	1689.2788	3120.6859	3174.3315	3185.3044	3530.7797	3566.4536	3615.9885	3681.1608
NC1=NC2C3OC1C23N	N[C]1[N][C@H]2[C@H]3O[C@@H]1[C@@]23N	
InChI=1S/C5H7N3O/c6-4-3-5(7)1(8-4)2(5)9-3/h1-3H,7H2,(H2,6,8)	InChI=1S/C5H7N3O/c6-4-3-5(7)1(8-4)2(5)9-3/h1-3H,7H2,(H2,6,8)/t1-,2+,3-,5+/m0/s1
