15
gdb 31430	2.9871	1.41447	0.96574	4.3114	71.81	-0.2349	-0.0367	0.1982	1151.1924	0.114617	-454.020417	-454.012719	-454.011775	-454.052888	28.412	
C	-0.0285442228	 1.3925643193	 0.0346330379	-0.235536
O	 0.0137208056	-0.0389610047	-0.0211205212	-0.25315
C	 0.6181492829	-0.5883233298	-1.0781373028	 0.468457
N	 1.1363407946	 0.1730685413	-2.0001431713	-0.434982
C	 1.7608150327	-0.3913541099	-3.0920836082	 0.434738
O	 2.2733754139	 0.2216616787	-4.0023111948	-0.386981
N	 1.7854892538	-1.8122938356	-3.1170059387	-0.34785
C	 1.2426514823	-2.5912765797	-2.151324615	 0.061741
C	 0.6323137242	-2.0204651586	-1.0843831862	-0.265659
H	 0.9812514036	 1.8091605756	 0.0475024364	 0.14743
H	-0.5608052795	 1.7977788091	-0.8290179889	 0.147449
H	-0.555882639	 1.6281322327	 0.9593530121	 0.130834
H	 2.2448456652	-2.214441742	-3.9203882606	 0.268907
H	 1.3272076419	-3.6634103878	-2.2862015221	 0.143733
H	 0.1837181305	-2.5928234686	-0.2872418666	 0.120869
110.2484	151.0716	171.0864	220.7074	243.0321	425.3582	440.7747	512.6358	568.3262	611.0284	646.6871	744.4191	755.2005	795.002	801.3938	947.6364	967.4959	1004.4662	1040.1406	1111.0239	1178.3256	1182.3744	1210.2499	1250.3881	1329.8113	1426.4475	1457.1257	1478.2841	1494.7663	1518.9716	1580.6763	1684.8744	1816.8768	3055.0255	3132.8926	3158.3708	3204.1389	3254.9757	3628.7563
COC1=NC(=O)NC=C1	COc1nc(=O)[nH]cc1	
InChI=1S/C5H6N2O2/c1-9-4-2-3-6-5(8)7-4/h2-3H,1H3,(H,6,7,8)	InChI=1S/C5H6N2O2/c1-9-4-2-3-6-5(8)7-4/h2-3H,1H3,(H,6,7,8)
