20
gdb 81562	3.09304	1.18753	1.04772	3.2746	79.95	-0.2384	0.0282	0.2666	1232.3587	0.171303	-403.131542	-403.122619	-403.121675	-403.165727	33.836	
C	-0.0607505276	 1.6696112343	-0.0911489289	-0.448214
C	 0.0343625747	 0.152006919	-0.0432700326	 0.068925
C	 1.1884675943	-0.624182886	-0.7628980401	-0.081188
C	 2.1479978965	-0.165762105	 0.3724240467	-0.244442
C	 0.8291115239	-0.5947562243	 1.0853072583	-0.058655
C	 0.8491630754	-1.8462460334	 0.1652563696	-0.075713
C	-0.4167301227	-2.6606183291	-0.0405068894	 0.358397
N	-0.2947910583	-3.6345152759	-0.9954532053	-0.522224
O	-1.4406707935	-2.5088227611	 0.5998748219	-0.362497
H	 0.8888649224	 2.183036984	 0.0783868982	 0.114565
H	-0.4410559047	 1.9940822928	-1.0664153064	 0.115436
H	-0.7685045477	 2.0251053545	 0.6658017081	 0.122313
H	-0.9552638777	-0.2748125208	-0.2128177142	 0.094887
H	 1.4003811955	-0.6611675219	-1.8341888387	 0.063218
H	 3.0250751264	-0.7945331987	 0.5508288514	 0.087006
H	 2.4175545576	 0.8892173424	 0.4066460777	 0.09638
H	 0.6181877702	-0.5891111135	 2.1547579734	 0.078072
H	 1.6988291338	-2.5211418211	 0.322166584	 0.078776
H	 0.4999300491	-3.6764072257	-1.6094175572	 0.2567
H	-1.1156463774	-4.1664627504	-1.2352790163	 0.258258
31.5606	156.0942	167.9491	184.8772	202.7623	279.2072	335.725	397.3982	456.4503	542.0227	586.2074	639.6465	700.311	774.8391	788.627	793.4032	886.149	901.7901	910.2588	983.9208	1018.5037	1021.4971	1036.8863	1070.1999	1089.8688	1100.0486	1112.9348	1131.7291	1155.8624	1190.0242	1212.3182	1236.0545	1241.8566	1263.6777	1301.1535	1408.9514	1413.9279	1440.4161	1495.6233	1498.7516	1532.8765	1615.3663	1785.4953	3032.9151	3036.3893	3060.3711	3080.8046	3089.1461	3096.1419	3114.057	3118.3726	3141.0526	3597.2691	3733.5738
CC1C2CC1C2C(N)=O	C[C@H]1[C@H]2C[C@@H]1[C@H]2C(=O)N	
InChI=1S/C7H11NO/c1-3-4-2-5(3)6(4)7(8)9/h3-6H,2H2,1H3,(H2,8,9)	InChI=1S/C7H11NO/c1-3-4-2-5(3)6(4)7(8)9/h3-6H,2H2,1H3,(H2,8,9)/t3-,4+,5-,6-
