18
gdb 54792	3.20332	1.38014	1.1984	3.0881	71.56	-0.2418	0.0139	0.2557	1069.8597	0.149531	-439.096702	-439.088747	-439.087802	-439.129865	30.471	
N	 0.6069452583	 0.4579792931	 1.2771294015	-0.526205
C	 0.4247426979	-0.2482207016	 0.1228668795	 0.385973
O	 1.2567647905	-0.2404959848	-0.7685193103	-0.366873
C	-0.8810227937	-1.0193319023	 0.0674996986	-0.092784
C	-1.8488098209	-0.972704934	-1.1523676705	 0.054458
C	-0.9998582408	-1.3718917554	-2.373360294	-0.210742
C	-0.2972216127	-2.6075960769	-1.7303267068	-0.210836
C	-0.9707795388	-2.5177280385	-0.3485324864	 0.054506
O	-2.3673517159	-2.2659893503	-0.7051597201	-0.301885
H	 1.4543139602	 0.9925721032	 1.3791848957	 0.261371
H	-0.0651194207	 0.4645107934	 2.023058335	 0.261619
H	-1.4718206666	-0.8825492678	 0.9755017938	 0.076649
H	-2.6097437382	-0.1990021266	-1.2549555597	 0.080708
H	-1.646107097	-1.6357745734	-3.2131681552	 0.09996
H	-0.2940822732	-0.5982938214	-2.6748767471	 0.126698
H	-0.5572426441	-3.5497385241	-2.2174333582	 0.099909
H	 0.786042877	-2.4975450065	-1.6858989012	 0.126809
H	-0.8332462911	-3.3247877859	 0.3711277856	 0.080663
35.3817	156.8259	198.0493	206.2294	333.1565	347.7273	394.7341	541.4445	573.1575	650.7844	696.5396	758.5261	806.4257	850.3078	859.5415	868.3093	873.8349	928.0294	958.4246	1001.546	1008.4143	1008.6502	1078.5353	1098.9922	1140.6673	1147.6856	1198.2485	1219.1554	1253.842	1274.3964	1278.2546	1312.6842	1320.586	1340.4814	1426.4028	1467.0827	1487.3521	1616.1274	1779.3259	3077.2094	3084.9799	3089.5952	3121.2666	3126.8143	3141.0762	3152.6605	3603.4375	3743.6924
NC(=O)C1C2CCC1O2	NC(=O)[C@H]1[C@H]2CC[C@@H]1O2	
InChI=1S/C6H9NO2/c7-6(8)5-3-1-2-4(5)9-3/h3-5H,1-2H2,(H2,7,8)	InChI=1S/C6H9NO2/c7-6(8)5-3-1-2-4(5)9-3/h3-5H,1-2H2,(H2,7,8)/t3-,4+,5+
