18
gdb 65150	3.55341	1.14354	0.99268	2.6123	73.13	-0.2621	0.0224	0.2845	1219.9432	0.146331	-439.065966	-439.057368	-439.056424	-439.099634	32.034	
C	 0.4315241263	 1.3421181829	 0.7645600281	-0.467507
C	-0.0721763576	 0.118707268	 0.030108089	 0.393177
C	 0.4256841254	-0.2200171162	-1.3108811825	-0.226214
O	 0.88679966	-0.9247821755	-0.1507753812	-0.273416
C	-1.4358411826	-0.3585685186	 0.4750165157	 0.048778
C	-2.6647866333	 0.500564643	 0.0944311941	-0.378513
C	-3.0887980206	-0.7362437247	-0.6679476341	 0.439089
N	-4.0820563186	-1.0517402484	-1.3619823488	-0.53595
O	-1.9616402252	-1.4627468107	-0.3281428381	-0.253843
H	 1.4438830818	 1.5850582821	 0.4346451149	 0.137899
H	-0.211933284	 2.2100101788	 0.5868065933	 0.127023
H	 0.4611027016	 1.1590319346	 1.8444271732	 0.130701
H	-0.1932200027	-0.8053101549	-1.9856234101	 0.131741
H	 1.160223405	 0.4310622418	-1.7832465296	 0.112244
H	-1.3995336318	-0.660001455	 1.5272378917	 0.104192
H	-3.3273063673	 0.7926210689	 0.9098508885	 0.141347
H	-2.4542434141	 1.3663950901	-0.5363074077	 0.13823
H	-4.0031751923	-2.0081519863	-1.7120469464	 0.231022
68.5753	82.8603	173.2534	187.1371	274.6414	318.7596	361.4525	413.7331	485.9806	495.4586	533.4553	681.4752	754.4609	832.1419	865.726	870.6606	926.6605	945.7149	967.2599	1009.4748	1020.4941	1027.0179	1046.6806	1093.9809	1132.9892	1145.8644	1175.5059	1219.4356	1239.0045	1252.0625	1314.7162	1384.1989	1401.2545	1418.3464	1463.297	1483.3866	1493.7271	1525.2864	1830.2265	3036.4825	3057.3975	3087.8614	3092.4527	3099.5777	3129.8517	3144.8984	3190.1906	3476.8886
CC1(CO1)C1CC(=N)O1	C[C@]1(CO1)[C@H]1C[C]([NH])O1	
InChI=1S/C6H9NO2/c1-6(3-8-6)4-2-5(7)9-4/h4,7H,2-3H2,1H3	InChI=1S/C6H9NO2/c1-6(3-8-6)4-2-5(7)9-4/h4,7H,2-3H2,1H3/t4-,6+/m1/s1
