22
gdb 88173	2.48231	1.38881	1.19423	1.303	82.16	-0.2266	0.0795	0.3062	1181.4738	0.194205	-404.324161	-404.315027	-404.314083	-404.359068	34.887	
C	 0.2749756588	 1.4850290332	-0.3425708086	-0.396154
C	-0.0679543517	 0.0375587737	 0.0240587776	 0.040409
O	 0.2911199031	-0.8525610504	-1.0343747431	-0.260027
C	 1.62232213	-1.2967813438	-0.8001151763	-0.089953
C	 1.7214334146	-1.489000551	 0.7179662262	-0.298387
C	 0.6784220123	-0.5048917776	 1.26087032	 0.329377
C	 0.8783622009	 0.2870703731	 2.5070829515	-0.309699
N	 0.0179742884	-0.8919424646	 2.5101511561	-0.117623
C	-1.4088748226	-0.6629435278	 2.6731162322	-0.317844
H	 1.3567932522	 1.6339930395	-0.4183739521	 0.115944
H	-0.1763469146	 1.7354197324	-1.3068958345	 0.123021
H	-0.1070767827	 2.1839163778	 0.4075966418	 0.112328
H	-1.1528452644	-0.0537834751	 0.1389111094	 0.083509
H	 1.7692603167	-2.2165417538	-1.371800877	 0.10974
H	 2.3533913901	-0.5545274781	-1.157224623	 0.088772
H	 1.4343918608	-2.5028293181	 1.0095547438	 0.11966
H	 2.7262345527	-1.2981197784	 1.103978287	 0.102289
H	 1.8082700218	 0.2060811365	 3.0662567107	 0.110355
H	 0.3975629698	 1.262945675	 2.5756766696	 0.103435
H	-1.7673090938	 0.2944435139	 2.2597103759	 0.099979
H	-1.9687811625	-1.4733627294	 2.1950383211	 0.126973
H	-1.6440186398	-0.6737575569	 3.7421599718	 0.123896
12.806	170.2141	200.7046	222.8754	229.5548	254.8297	280.1698	406.5488	418.1395	446.0622	488.7199	548.4563	647.9006	740.0262	788.7808	850.806	877.3098	906.3086	916.6766	981.2259	1004.2646	1043.3186	1059.4049	1095.342	1102.4733	1124.9135	1136.8578	1154.1249	1160.1716	1203.1692	1213.8206	1239.081	1260.6883	1297.8441	1320.1887	1365.618	1380.6477	1399.5952	1411.353	1450.0744	1485.7322	1489.1691	1491.7591	1493.48	1502.1725	1514.3628	1523.6473	2965.434	2978.9734	3038.6243	3054.6687	3061.4714	3065.3103	3079.1791	3091.5212	3101.3215	3109.21	3110.7572	3116.6385	3161.7785
CC1OCCC11CN1C	C[C@H]1OCC[C@]21CN2C	
InChI=1S/C7H13NO/c1-6-7(3-4-9-6)5-8(7)2/h6H,3-5H2,1-2H3	InChI=1S/C7H13NO/c1-6-7(3-4-9-6)5-8(7)2/h6H,3-5H2,1-2H3/t6-,7-,8?/m1/s1
