17
gdb 34203	3.92547	1.4362	1.26344	5.0257	75.9	-0.2482	0.0015	0.2497	1002.4372	0.138504	-380.831266	-380.824378	-380.823434	-380.862418	27.567	
N	 0.0610796694	-1.1348575208	 0.0782439902	-0.338831
C	 0.0262403546	 0.0203945596	 0.0403005005	 0.194682
C	-0.0084835742	 1.4697398114	 0.0175641218	 0.228815
C	-1.1145377094	 2.177299347	 0.8391562848	-0.293924
C	-1.2950129859	 3.1283763181	-0.358016663	 0.012472
C	-0.2303024493	 4.2359994364	-0.4753971051	-0.244164
C	 0.7143539777	 3.1653627212	-1.0546951579	 0.012469
C	 1.3447937242	 2.2225833982	-0.0135198765	-0.293898
N	-0.4659300739	 2.1998830735	-1.2630931018	-0.179746
H	-1.9805353562	 1.5265385579	 0.9742091795	 0.135037
H	-0.827089918	 2.5982754084	 1.805923222	 0.114596
H	-2.3159615582	 3.3622432081	-0.6619563697	 0.088867
H	-0.5053012912	 4.97764976	-1.2291535054	 0.12002
H	 0.0763499719	 4.7562558577	 0.4366716797	 0.105095
H	 1.3198573636	 3.4291701245	-1.9225553183	 0.088868
H	 1.7036202892	 2.6448995006	 0.9284876097	 0.114596
H	 2.1294122455	 1.6021831183	-0.4507354506	 0.135046
146.1544	147.5877	292.1164	307.5495	404.7485	468.2902	557.7028	560.9762	657.397	721.5006	780.1112	833.1567	877.3596	909.7507	916.8464	934.735	936.7332	954.7167	958.4264	1033.9917	1062.1572	1066.5355	1135.9689	1161.8077	1175.9543	1231.9315	1237.4562	1239.5191	1250.5048	1288.958	1301.1428	1330.2169	1363.5953	1476.7436	1476.8398	1495.6407	2349.5061	3054.9072	3065.2364	3066.9584	3097.9663	3098.6126	3113.6457	3126.1174	3128.5123
N#CC12CC3CC(C1)N23	N#C[C@@]12C[C@H]3C[C@@H](C1)N23	
InChI=1S/C7H8N2/c8-4-7-2-5-1-6(3-7)9(5)7/h5-6H,1-3H2	InChI=1S/C7H8N2/c8-4-7-2-5-1-6(3-7)9(5)7/h5-6H,1-3H2/t5-,6+,7-
