15
gdb 30890	2.54346	1.40835	0.95168	2.1309	65.88	-0.1835	0.0362	0.2197	1191.2674	0.112105	-491.098825	-491.089922	-491.088978	-491.132755	31.873	
C	-0.3739139045	 1.2216282642	-0.0093229983	-0.249466
O	 0.6808120887	 0.2545828985	 0.1056780621	-0.260741
C	 0.8622272354	-0.5156700046	-0.9678121078	 0.258311
C	 0.5933382767	-1.7986969594	-1.294956936	 0.215223
O	-0.0730167206	-2.7207835579	-0.5694476548	-0.43548
N	 1.1204244587	-2.1050239915	-2.5418100513	-0.417387
C	 1.6731309766	-0.9908807298	-2.9227248809	 0.463386
N	 2.2691658921	-0.7267763735	-4.1313614438	-0.584446
O	 1.5812222701	 0.0264691874	-2.0537931249	-0.217459
H	-0.1475774346	 1.9530617432	-0.7928909557	 0.128413
H	-1.3258215337	 0.7277617344	-0.2329665834	 0.128134
H	-0.4349128992	 1.7270897776	 0.9560324683	 0.133822
H	-0.0642320491	-3.5318396902	-1.0909583292	 0.302992
H	 2.5425660616	-1.5650463348	-4.6228766747	 0.269553
H	 2.9975794018	-0.0281896635	-4.0953776095	 0.265145
61.0147	132.679	134.956	229.6624	274.769	287.8938	295.2717	330.9456	345.1316	473.8608	571.5537	613.6425	641.071	662.5298	689.3282	756.7828	833.5392	1008.6023	1033.5099	1065.444	1140.6072	1169.8205	1172.3186	1216.1358	1355.497	1395.5719	1453.4847	1480.2903	1486.4894	1499.8886	1604.3635	1678.5321	1789.5583	3023.4221	3095.7059	3139.256	3571.4648	3679.9585	3813.9824
COC1=C(O)N=C(N)O1	COc1c(O)nc(N)o1	
InChI=1S/C4H6N2O3/c1-8-3-2(7)6-4(5)9-3/h7H,1H3,(H2,5,6)	InChI=1S/C4H6N2O3/c1-8-3-2(7)6-4(5)9-3/h7H,1H3,(H2,5,6)
