14
gdb 42813	4.22119	1.20332	1.18259	2.1597	66.1	-0.2575	-0.0486	0.2089	1029.7849	0.10143	-436.67331	-436.666246	-436.665301	-436.705063	26.643	
O	 0.0070701419	-0.0047482259	 0.0103788514	-0.294525
C	-0.0247475757	 1.1831333972	-0.0289889676	 0.437223
C	-1.0602116448	 2.3291584917	 0.0594878493	-0.017848
C	-0.0285390223	 2.9847983351	 1.0141410131	-0.266085
C	 1.0114747473	 2.3471785218	 0.0291703147	-0.196312
C	 0.6129352557	 3.0581371723	-1.2829582113	-0.041301
O	-0.8353519594	 3.0125194734	-1.1924636613	-0.276496
C	 1.0767956797	 4.4479681908	-1.381504338	 0.299732
N	 1.463452923	 5.5343640101	-1.4512760348	-0.31653
H	-2.1243409174	 2.2251285588	 0.2473805465	 0.118645
H	-0.0523158486	 4.0745901934	 1.0626239977	 0.149661
H	-0.0020263454	 2.5362589041	 2.008212454	 0.137878
H	 2.0674824646	 2.2148515622	 0.2447390985	 0.122047
H	 0.9472109315	 2.5125193449	-2.1726064623	 0.143911
107.1419	142.255	180.4337	311.2353	419.1141	454.5071	503.7113	558.4992	637.3999	698.1731	758.6831	824.8012	848.9345	902.6168	941.5869	947.1553	990.1983	1007.9555	1031.6003	1070.7131	1079.529	1112.7712	1190.5875	1222.2827	1240.3805	1253.7884	1302.9646	1367.0656	1479.8968	1922.7656	2360.5693	3048.9728	3085.4326	3156.709	3176.8312	3185.1962
O=C1C2CC1C(O2)C#N	O=C1[C@H]2C[C@@H]1[C@@H](O2)C#N	
InChI=1S/C6H5NO2/c7-2-5-3-1-4(9-5)6(3)8/h3-5H,1H2	InChI=1S/C6H5NO2/c7-2-5-3-1-4(9-5)6(3)8/h3-5H,1H2/t3-,4-,5+/m1/s1
