19
gdb 99315	4.10374	0.83634	0.76261	2.2296	72.48	-0.244	0.0068	0.2507	1528.8414	0.159536	-456.339679	-456.32998	-456.329036	-456.37563	33.999	
N	 0.0198929575	 0.9574929007	-0.8059664966	-0.486088
C	-0.2300068022	-0.0795944522	 0.1770345334	-0.269204
C	-1.5862071265	-0.7713493604	 0.0672073011	 0.431377
O	-2.4500850808	-0.4594950845	-0.7185778879	-0.369195
O	-1.6943663271	-1.7602010532	 0.9718071363	-0.242219
C	-2.9541800322	-2.4745097261	 1.0151204673	-0.109866
C	-2.9825133919	-3.6275997356	 0.0498367831	 0.008337
C	-4.2787799027	-4.0073342537	-0.5715611754	-0.241599
N	-3.22142315	-3.3927940103	-1.3811365636	-0.309517
H	-0.0234077113	 0.5520752736	-1.7368446073	 0.237043
H	-0.7421884597	 1.6294468722	-0.7796003238	 0.236853
H	 0.5463808361	-0.8504850975	 0.1173286151	 0.142868
H	-0.1534542555	 0.336994594	 1.1888893864	 0.140367
H	-3.0309994361	-2.8256905186	 2.047524539	 0.121602
H	-3.7650631396	-1.7714168767	 0.8062063823	 0.124134
H	-2.2511110606	-4.4073100053	 0.2530465155	 0.098727
H	-4.4858574341	-5.0507790252	-0.7910754447	 0.121486
H	-5.1567352386	-3.4176957393	-0.3170898651	 0.113449
H	-3.4112300445	-2.4035247017	-1.527396085	 0.251444
43.7396	67.328	91.8717	103.9374	209.2634	212.9573	270.2564	327.9389	356.3683	423.144	542.6593	595.4388	680.707	801.4559	834.5696	870.3498	920.3479	928.7945	940.126	957.2132	994.9671	1024.5945	1071.8472	1129.1502	1151.9422	1156.7309	1180.2562	1209.9394	1233.4368	1265.4218	1299.6259	1333.2235	1367.6937	1387.1503	1391.9308	1438.7419	1454.0329	1478.337	1514.2161	1678.5669	1801.9895	3041.9562	3061.3476	3080.9302	3104.7558	3113.4165	3133.6234	3189.9972	3495.1151	3501.4115	3563.2728
NCC(=O)OCC1CN1	NCC(=O)OC[C@H]1CN1	
InChI=1S/C5H10N2O2/c6-1-5(8)9-3-4-2-7-4/h4,7H,1-3,6H2	InChI=1S/C5H10N2O2/c6-1-5(8)9-3-4-2-7-4/h4,7H,1-3,6H2/t4-/m1/s1
