15
gdb 71216	2.4727	2.08087	1.66272	2.6239	63.67	-0.2366	-0.0314	0.2052	851.8275	0.113084	-457.721117	-457.714415	-457.713471	-457.751927	27.025	
O	-0.0106770628	 1.3990422568	 0.0239531912	-0.483737
C	-0.0357582821	 0.0267678372	 0.0737558141	 0.286001
C	 0.457435194	-0.8179631117	 1.29644926	-0.321381
C	-0.3976924985	-1.9356680855	 0.6620078692	-0.091348
C	-0.044506908	-2.0631396625	-0.87131717	-0.049928
O	-1.3749846481	-1.5740197295	-1.2517880214	-0.302292
C	-1.3382594584	-0.8896403185	 0.0263314358	 0.051411
C	 0.6924751068	-0.7302084652	-1.0374614102	 0.407709
O	 1.5141615554	-0.3111908221	-1.8031087533	-0.34673
H	 0.5833292875	 1.6457081308	-0.7002670858	 0.296005
H	 1.5349606678	-0.9569621312	 1.419918722	 0.116281
H	 0.0142553415	-0.4712286888	 2.2331430016	 0.124231
H	-0.7357261745	-2.822989586	 1.1898643071	 0.100083
H	 0.2777594541	-2.9654345918	-1.3850479319	 0.106795
H	-2.2921981346	-0.5233664921	 0.4005584017	 0.1069
153.8974	236.3093	288.3255	359.4718	370.0738	461.5005	514.9329	609.135	673.0981	728.5802	770.8308	790.7562	819.8925	840.3223	910.1265	919.2912	948.9069	974.2209	983.7586	1011.5248	1096.8045	1111.6631	1130.5136	1185.6608	1191.4343	1206.9061	1241.4031	1272.7966	1300.8714	1368.3423	1401.0949	1500.5091	1891.9285	3059.8889	3120.7184	3145.6959	3157.6308	3165.3129	3723.8413
OC12CC3C(OC13)C2=O	O[C@@]12C[C@@H]3[C@@H](O[C@H]13)C2=O	
InChI=1S/C6H6O3/c7-4-3-2-1-6(4,8)5(2)9-3/h2-3,5,8H,1H2	InChI=1S/C6H6O3/c7-4-3-2-1-6(4,8)5(2)9-3/h2-3,5,8H,1H2/t2-,3-,5+,6-/m1/s1
