15
gdb 123939	3.59278	1.65619	1.16993	3.4083	66.57	-0.1991	0.0336	0.2326	980.2368	0.116479	-453.945784	-453.939152	-453.938208	-453.976752	26.074	
C	-0.0117924213	 1.3906954209	 0.0149870171	-0.106943
C	 1.423937072	 1.9304922294	 0.0245208121	-0.107099
O	 2.1299677096	 1.5529732679	 1.2045888184	-0.279736
C	 1.9240508776	 0.2209806073	 1.4510272419	 0.172995
C	 0.9019405902	-0.4996838941	 0.8766136263	 0.382262
N	 1.002320963	-1.7656438978	 1.3382565575	-0.316551
N	 2.0508133062	-1.912995035	 2.1894657163	-0.233825
C	 2.6109299536	-0.7044455369	 2.2591670231	-0.12594
O	-0.0374263612	-0.0496568586	 0.0171834098	-0.277229
H	-0.5547213422	 1.7585576338	 0.8943525639	 0.127456
H	-0.5335270545	 1.7045198297	-0.8913404866	 0.127652
H	 1.9564465375	 1.5593167831	-0.8626498281	 0.11814
H	 1.4080833038	 3.0228252333	 0.0001200593	 0.124159
H	 0.4263080685	-2.5568334113	 1.1095772982	 0.276669
H	 3.4768554774	-0.5433170118	 2.8827138509	 0.11799
125.5399	241.3152	341.0831	373.2932	411.8439	421.555	469.4202	541.0146	671.6482	692.5471	718.4258	727.1991	863.2753	879.425	925.8498	949.1489	1061.4223	1080.3986	1093.6858	1116.5928	1197.8067	1241.4369	1269.1359	1295.8429	1329.9657	1386.0831	1395.3655	1421.2168	1445.004	1484.7825	1489.2989	1583.2474	1668.1667	3010.5199	3037.4574	3108.7455	3121.1326	3254.1949	3684.3834
C1COC2=C(NN=C2)O1	C1COc2c([nH]nc2)O1	
InChI=1S/C5H6N2O2/c1-2-9-5-4(8-1)3-6-7-5/h3H,1-2H2,(H,6,7)	InChI=1S/C5H6N2O2/c1-2-9-5-4(8-1)3-6-7-5/h3H,1-2H2,(H,6,7)
