16
gdb 51216	3.94876	1.17826	1.05816	2.4208	70.17	-0.2614	-0.0038	0.2576	1126.983	0.123886	-437.80425	-437.796854	-437.79591	-437.837109	27.555	
O	 0.0595166685	 0.0165609761	-0.0880348414	-0.266319
C	 0.0587481019	 1.2063694555	-0.1690000266	 0.149181
O	 1.0848822571	 1.9667411363	 0.278827743	-0.239796
C	 0.953752999	 3.3651774565	 0.1821149587	 0.365683
C	 0.3004527435	 4.3502769067	 1.1363692246	-0.238867
N	 0.8989240253	 5.2727615601	 0.0748764578	-0.148964
C	 2.1315190064	 4.3358022426	-0.0618984989	-0.042714
C	 1.9930694138	 4.3092122628	-1.5878637006	-0.264076
C	 0.5613502596	 4.2553923458	-1.0419244923	-0.064731
H	-0.7555446177	 1.8053909896	-0.6161823333	 0.083909
H	-0.7918320576	 4.388911232	 1.1820201635	 0.11246
H	 0.7440799608	 4.4803917028	 2.127113996	 0.118679
H	 3.0062778392	 4.4820146338	 0.5717554971	 0.100618
H	 2.2702452755	 5.2268410541	-2.1109284044	 0.119652
H	 2.3618450656	 3.4186133629	-2.0997550872	 0.119031
H	-0.398167491	 4.3106445123	-1.5573622261	 0.096254
41.2438	127.0821	168.2269	286.2861	365.9535	436.163	474.4975	486.9107	721.1605	756.74	808.6789	870.7929	874.7274	900.6498	932.5096	954.4026	1010.4657	1018.2648	1046.2291	1058.2726	1095.8372	1117.3131	1142.3166	1145.3145	1172.7722	1204.7563	1209.4094	1215.3705	1236.325	1266.6869	1331.9768	1425.729	1490.4441	1517.12	1869.6945	2973.3197	3053.2572	3073.959	3112.9594	3119.6301	3124.2209	3141.9643
O=COC12CN3C1CC23	O=CO[C@@]12CN3[C@@H]1C[C@@H]23	
InChI=1S/C6H7NO2/c8-3-9-6-2-7-4(6)1-5(6)7/h3-5H,1-2H2	InChI=1S/C6H7NO2/c8-3-9-6-2-7-4(6)1-5(6)7/h3-5H,1-2H2/t4-,5+,6+
