15
gdb 98913	7.77712	0.57627	0.5401	2.3427	83.9	-0.2461	-0.0153	0.2308	1942.3705	0.109096	-420.602497	-420.592602	-420.591657	-420.638995	33.576	
C	-0.1276486228	 1.3315962901	 0.2244268757	-0.241619
O	 0.0137331649	-0.0784110969	-0.0029913824	-0.232252
C	 0.6561412028	-0.4151004631	-1.1375177062	 0.473787
O	 1.0958141355	 0.3701046853	-1.9310106968	-0.33486
C	 0.7248981809	-1.9408287855	-1.2340111744	-0.559626
C	 1.3992119132	-2.4283723406	-2.4211040696	 0.454985
C	 1.9556724004	-2.8670021144	-3.4001301569	-0.265964
C	 2.5835516528	-3.3531866563	-4.5050091723	 0.299411
C	 3.1400899735	-3.7878955406	-5.4842345666	-0.554592
H	 0.8526080061	 1.8105686598	 0.284359578	 0.145628
H	-0.6975743969	 1.7952169343	-0.584400613	 0.145528
H	-0.6591799297	 1.4262921134	 1.1710199532	 0.137265
H	 1.2172096065	-2.3088841867	-0.3247070913	 0.170082
H	-0.3026600007	-2.3230932028	-1.182241107	 0.170092
H	 3.6302145436	-4.1660414361	-6.3467230004	 0.192136
22.0528	62.2283	109.3535	143.4485	163.7824	190.6109	271.9726	345.448	369.2472	400.2851	546.6792	551.1232	580.1407	600.6994	606.3555	696.9113	768.1294	896.1969	953.9834	1021.1585	1176.2273	1179.5471	1204.2689	1214.1488	1221.8851	1353.4191	1437.1013	1473.4536	1481.5018	1497.329	1842.5028	2187.3536	2375.6833	3029.6788	3054.6561	3059.2558	3131.0454	3163.1279	3505.4191
COC(=O)CC#CC#C	COC(=O)CC#CC#C	
InChI=1S/C7H6O2/c1-3-4-5-6-7(8)9-2/h1H,6H2,2H3	InChI=1S/C7H6O2/c1-3-4-5-6-7(8)9-2/h1H,6H2,2H3
