19
gdb 108326	3.22427	1.23445	1.08223	1.3441	70.44	-0.2495	0.0554	0.3049	1158.0555	0.158788	-460.117634	-460.108901	-460.107957	-460.15209	32.864	
O	 0.0915012394	 1.3935481662	-0.0378463219	-0.418488
C	 0.0876408072	-0.0109738434	 0.1479881783	-0.155305
C	-1.3205839657	-0.5427290993	 0.0576662531	 0.43518
C	-2.35632364	-0.3032565971	 1.1714859595	-0.317486
C	-2.8969446619	-1.7546191939	 0.954935631	 0.132909
O	-4.2344347671	-1.9071605579	 0.5515844143	-0.427343
C	-1.769140597	-2.0267553601	-0.1034844193	-0.177564
C	-2.1436212856	-1.6263091915	-1.5288037101	-0.102172
O	-1.8989681302	-0.2220209197	-1.2478654163	-0.350547
H	-0.3748605971	 1.5503621427	-0.8683651151	 0.294769
H	 0.7214353579	-0.5192775742	-0.5967566255	 0.087014
H	 0.5119988154	-0.2049598203	 1.1388926957	 0.106894
H	-1.920483514	-0.144161464	 2.1615799551	 0.109265
H	-3.0658009519	 0.5017948208	 0.963614361	 0.109006
H	-2.77978609	-2.3887344918	 1.8368655736	 0.096388
H	-4.4441739068	-1.1997154667	-0.06743515	 0.289619
H	-1.131562567	-2.8963817631	 0.0505559162	 0.078171
H	-1.4606859687	-2.0050491547	-2.2990581965	 0.106213
H	-3.175962467	-1.8162460621	-1.844922223	 0.103478
24.2718	83.3889	161.8082	254.1015	295.7938	346.2686	350.8275	391.8391	430.1276	462.4152	565.8193	647.786	690.0061	774.7	843.1498	902.249	916.5077	930.3229	984.7841	1001.6335	1010.1163	1051.7258	1062.1724	1102.5177	1130.9335	1139.7558	1144.721	1172.5268	1215.0028	1242.8016	1257.4261	1290.7912	1316.1874	1328.1968	1351.732	1377.6588	1431.5278	1435.4596	1456.6118	1497.9753	1529.0578	2973.6315	3018.1784	3058.4521	3062.0481	3072.9127	3080.6932	3117.3861	3120.8371	3783.834	3809.008
OCC12CC(O)C1CO2	OC[C@]12C[C@@H](O)[C@H]1CO2	
InChI=1S/C6H10O3/c7-3-6-1-5(8)4(6)2-9-6/h4-5,7-8H,1-3H2	InChI=1S/C6H10O3/c7-3-6-1-5(8)4(6)2-9-6/h4-5,7-8H,1-3H2/t4-,5-,6-/m1/s1
