17
gdb 66969	2.58142	1.69288	1.28172	0.9082	77.38	-0.2394	0.0423	0.2817	1011.9405	0.135294	-384.597963	-384.590267	-384.589323	-384.629766	31.044	
O	-0.182496026	 1.3459182154	 0.0719788285	-0.461515
C	-0.0040731703	-0.0167572889	 0.0329991197	 0.389271
C	-0.2252199234	-0.8423353375	-1.2497463781	-0.132143
C	 0.4680115659	-2.1881312313	-1.0594947362	-0.23948
C	 0.0317794629	-2.0722545048	 0.4262798066	-0.076051
C	-1.0893202132	-1.0473312532	-0.0148292034	-0.154352
C	 0.8518766658	-0.8582955063	 0.9943584525	-0.229934
C	 2.3007197233	-0.8416834135	 0.9000670758	 0.294109
C	 3.5002635558	-0.8092454934	 0.8078887699	-0.454148
H	 0.5482735661	 1.7607360817	-0.4007221088	 0.291912
H	-0.50589144	-0.3358044743	-2.1647698339	 0.087087
H	-0.0715976979	-2.9910998354	-1.5695732282	 0.100527
H	 1.5405454131	-2.2698314551	-1.2623233908	 0.105565
H	-0.1115419678	-2.9510131393	 1.0498369453	 0.080303
H	-2.15394923	-0.9874562806	 0.153106869	 0.100763
H	 0.5292937599	-0.6527596769	 2.0204569907	 0.104678
H	 4.5594192457	-0.7876151865	 0.7342052214	 0.19341
123.5116	137.5742	272.2457	313.8401	347.9452	379.7964	418.7257	515.0479	572.3363	619.6282	626.4671	637.9476	711.1468	791.9613	806.5728	839.1072	869.3185	921.8949	943.4636	964.851	991.7765	999.3466	1038.7101	1069.28	1101.0395	1124.5468	1146.5871	1179.6284	1198.8459	1247.823	1263.9134	1298.3894	1309.0533	1352.686	1456.1704	1497.5223	2225.2553	3046.717	3057.1564	3101.2597	3147.627	3194.8165	3234.728	3502.1554	3788.7108
OC12C3CC(C13)C2C#C	O[C@]12[C@H]3C[C@H]([C@@H]13)[C@H]2C#C	
InChI=1S/C8H8O/c1-2-5-4-3-6-7(4)8(5,6)9/h1,4-7,9H,3H2	InChI=1S/C8H8O/c1-2-5-4-3-6-7(4)8(5,6)9/h1,4-7,9H,3H2/t4-,5+,6-,7+,8+/m0/s1
