18
gdb 43381	2.71839	1.77621	1.28908	2.6733	78.11	-0.2194	-0.0521	0.1673	995.3743	0.150431	-401.942944	-401.935853	-401.934909	-401.974326	28.457	
O	-0.0062087504	 0.3095735908	-1.0810395259	-0.33888
C	 0.0304916337	 1.1989072862	-0.2521922458	 0.381501
C	-1.2059867109	 1.5580264226	 0.4939576711	-0.167812
C	-1.3750327312	 2.4959193282	 1.4368464028	-0.037032
C	-0.3807827113	 3.4691880292	 2.0308796006	-0.239917
N	 0.996488278	 3.4543228762	 1.5641709829	-0.097195
C	 1.1172031015	 3.487267925	 0.0727302041	-0.19747
C	 1.3182403729	 1.9478924962	 0.0331931406	-0.120072
C	 1.6037872099	 2.0864342286	 1.5533818594	-0.197468
H	-2.0544163042	 0.9481678378	 0.1958473701	 0.107749
H	-2.3746918352	 2.5968133496	 1.8608346797	 0.106955
H	-0.7805278456	 4.4838684917	 1.8880233365	 0.125767
H	-0.3755070691	 3.317968333	 3.1203231321	 0.125769
H	 0.2541012764	 3.8973352477	-0.4590354556	 0.114775
H	 2.0149079369	 4.0372089431	-0.2256664212	 0.114833
H	 2.1050892101	 1.5453863481	-0.6061851113	 0.088878
H	 2.6733203992	 2.1416868819	 1.7778717314	 0.114838
H	 1.1355316292	 1.3597541442	 2.2231193085	 0.114781
101.6823	232.5532	307.4524	335.4007	336.2779	389.9014	439.404	529.9664	650.498	691.843	747.6099	831.6413	835.7222	853.4244	880.5527	897.6806	933.48	968.2078	991.673	1034.9011	1064.9646	1074.8969	1116.5643	1142.5106	1196.9704	1223.7087	1273.4938	1282.1763	1284.6195	1309.748	1324.1991	1342.6749	1374.1781	1407.9102	1451.2811	1490.0525	1514.5975	1683.9978	1763.0821	3000.1772	3026.2115	3043.3149	3049.3705	3096.6748	3099.673	3107.4576	3122.889	3174.1534
O=C1C=CCN2CC1C2	O=C1C=CCN2C[C@H]1C2	
InChI=1S/C7H9NO/c9-7-2-1-3-8-4-6(7)5-8/h1-2,6H,3-5H2	InChI=1S/C7H9NO/c9-7-2-1-3-8-4-6(7)5-8/h1-2,6H,3-5H2
