18
gdb 47344	2.89642	1.25777	0.92137	3.0396	80.39	-0.2586	0.0158	0.2744	1251.3522	0.148045	-401.934366	-401.925965	-401.925021	-401.967615	32.054	
N	-0.0385693265	 1.3054269465	 0.193894472	-0.494881
C	-0.0121902942	 0.0618294886	-0.0361990465	 0.382029
C	-1.2768148742	-0.763584548	-0.0661551378	-0.258038
C	-1.2258128215	-1.9037939527	-1.0896770823	-0.236126
C	 0.0675265922	-2.6960875337	-0.8961679072	-0.208164
C	 1.2678169883	-1.751918855	-1.0359654337	-0.063358
O	 1.1798675067	-0.609836395	-0.1537536004	-0.265932
C	 2.535447765	-2.4177324205	-0.7620616444	 0.313855
C	 3.5645508503	-3.0011279823	-0.5562065558	-0.417837
H	 0.9149983318	 1.6747422329	 0.2131059151	 0.220366
H	-1.4031040906	-1.1939953095	 0.9368282099	 0.127851
H	-2.1151662475	-0.0861254938	-0.2335578833	 0.132808
H	-2.09926825	-2.5526897317	-0.9769484101	 0.106909
H	-1.2606708738	-1.4970265676	-2.1086315417	 0.109008
H	 0.0929313177	-3.1583051641	 0.0970098798	 0.11867
H	 0.169350882	-3.4965140693	-1.635069842	 0.116584
H	 1.2872689685	-1.3664337601	-2.0673206627	 0.113234
H	 4.4804837955	-3.5063790747	-0.3716281491	 0.20302
84.4461	101.5346	142.1642	223.9547	311.627	396.0597	404.9983	452.7032	508.9443	518.9502	574.5383	628.3681	649.8708	680.7146	784.2728	867.8333	895.2049	910.4726	920.4374	934.1051	1040.9435	1059.0012	1072.544	1104.5546	1110.4098	1181.4351	1215.6832	1276.2124	1308.2154	1331.5098	1355.8612	1366.1324	1384.1986	1388.8448	1468.9123	1482.5328	1498.6977	1750.1558	2247.0093	2981.34	3021.1069	3031.1201	3047.657	3084.8936	3098.5335	3125.1159	3457.5086	3503.0221
N=C1CCCC(O1)C#C	[NH][C]1CCC[C@@H](O1)C#C	
InChI=1S/C7H9NO/c1-2-6-4-3-5-7(8)9-6/h1,6,8H,3-5H2	InChI=1S/C7H9NO/c1-2-6-4-3-5-7(8)9-6/h1,6,8H,3-5H2/t6-/m0/s1
