20
gdb 24619	4.78195	1.00117	0.95288	2.0676	86.05	-0.1999	0.0459	0.2458	1308.2609	0.173718	-366.036087	-366.028267	-366.027323	-366.069139	30.608	
C	-0.0845842488	 1.5484917401	 0.0210657894	-0.212726
C	 1.4658217298	 1.5328476794	-0.0747848638	-0.23964
C	 1.4354588248	 0.0987376401	 0.5235143964	 0.077683
C	-0.0572234363	-0.002571559	 0.1025801666	-0.239635
N	 2.383317466	-0.8933943953	 0.0745988101	 0.020823
C	 2.6114235982	-1.2705151066	-1.2291045952	-0.099672
C	 3.5878702689	-2.2392248288	-1.2369521873	-0.172057
C	 3.9716098967	-2.464009765	 0.1135641582	-0.177221
C	 3.2138767506	-1.6229813207	 0.8934136644	-0.098499
H	-0.4313342931	 2.0002588662	 0.9543649713	 0.107033
H	-0.6343828523	 1.9981620151	-0.8073425119	 0.104657
H	 1.803690348	 1.5140487374	-1.1143225262	 0.113471
H	 2.0340300734	 2.2931479921	 0.4656800687	 0.104132
H	 1.5167095701	 0.1438981164	 1.6121883687	 0.088915
H	-0.7420433942	-0.5054790551	 0.7889655316	 0.104129
H	-0.1528469312	-0.4583950025	-0.8864748827	 0.113469
H	 2.0627822755	-0.8202751469	-2.0405102931	 0.111859
H	 3.981402309	-2.7304347811	-2.1138620886	 0.090403
H	 4.7150809901	-3.1598806036	 0.4709155195	 0.090998
H	 3.1889805651	-1.4751713823	 1.9617407139	 0.111875
48.4397	120.636	124.7274	259.2227	374.1131	395.3535	559.7031	622.0413	639.0812	679.3003	723.2933	740.612	783.4053	795.6236	846.1495	855.5124	885.741	910.4337	926.222	944.0862	978.6139	1025.3248	1040.9551	1088.0889	1090.5457	1118.3907	1138.7806	1198.8502	1234.4727	1247.9245	1254.201	1270.3301	1283.1774	1284.8841	1311.9077	1352.2553	1425.1496	1454.3163	1476.5645	1488.0616	1510.7813	1526.7978	1563.1524	3063.4015	3064.6979	3069.5198	3078.7739	3111.8971	3118.622	3131.8193	3237.8242	3248.1255	3261.4923	3269.9202
C1CC(C1)N1C=CC=C1	C1CC(C1)n1cccc1	
InChI=1S/C8H11N/c1-2-7-9(6-1)8-4-3-5-8/h1-2,6-8H,3-5H2	InChI=1S/C8H11N/c1-2-7-9(6-1)8-4-3-5-8/h1-2,6-8H,3-5H2
