18
gdb 67658	3.09003	1.90223	1.63968	0.4107	73.38	-0.2339	0.0611	0.295	892.9285	0.149811	-401.898659	-401.892045	-401.8911	-401.929276	27.484	
C	-0.0633272737	 1.4926728122	-0.0199712263	-0.509391
C	 0.0743577956	 0.0018988752	 0.0461857778	 0.330684
C	 0.7659294977	-0.8178153249	-0.9857777508	-0.087828
C	 1.4624927381	-2.1057727768	-0.5879310566	-0.240452
C	 0.5880157189	-2.5771936376	 0.5671732295	 0.082386
O	 0.8339954454	-1.7226379785	 1.7242865886	-0.311963
C	-0.2354430696	-0.866592098	 1.2909737143	 0.039591
C	-0.7975899715	-1.8921860335	 0.3104365619	-0.05636
N	-0.7107716102	-0.9431977731	-0.8689206883	-0.20124
H	 0.7669526348	 1.9815637506	 0.502942279	 0.127486
H	-0.0627103812	 1.8368029804	-1.0585472903	 0.130175
H	-0.9983793902	 1.8252573942	 0.4438798089	 0.124201
H	 1.0916592974	-0.2948758289	-1.8808642305	 0.092046
H	 1.4436206033	-2.8142666337	-1.4246360252	 0.107664
H	 2.4977266328	-1.9656413468	-0.2660842133	 0.119713
H	 0.6495827703	-3.6362220256	 0.8234439314	 0.082237
H	-0.7749622897	-0.3815655354	 2.1060941514	 0.083549
H	-1.7297345183	-2.4414269098	 0.4094720786	 0.087502
174.3488	219.7096	279.7057	335.3446	417.3545	521.0552	590.5934	666.5922	689.129	740.7656	781.0652	838.9623	860.8278	871.006	898.0938	917.7207	939.3141	977.871	985.6388	1016.094	1043.8837	1058.5559	1088.1899	1101.743	1153.3197	1190.2305	1207.0495	1227.9849	1255.0395	1263.349	1290.5169	1302.8558	1333.9283	1346.6283	1410.7277	1444.2919	1469.2258	1483.207	1492.0463	3027.2754	3040.0162	3090.1246	3098.1617	3101.7597	3103.8531	3108.6721	3150.87	3154.878
CC12C3CC4OC1C4N23	C[C@@]12[C@H]3C[C@H]4O[C@@H]1[C@H]4N23	
InChI=1S/C7H9NO/c1-7-4-2-3-5(8(4)7)6(7)9-3/h3-6H,2H2,1H3	InChI=1S/C7H9NO/c1-7-4-2-3-5(8(4)7)6(7)9-3/h3-6H,2H2,1H3/t3-,4-,5+,6-,7-,8?/m1/s1
