14
gdb 25199	2.69756	1.72595	1.05252	4.7128	77.68	-0.2469	-0.0792	0.1677	1045.4491	0.103559	-432.89172	-432.884386	-432.883442	-432.924782	27.011	
N	-0.0782478069	 1.2905049206	 0.5338015538	-0.445343
C	-0.0452773367	 0.1475231547	-0.0192128955	 0.261166
N	 1.1677751781	-0.4713657527	-0.3907614924	-0.367144
C	 1.5154305822	-1.6550536354	-0.9820159958	 0.121851
N	 0.8236702733	-2.6432402646	-1.4168947035	-0.290974
C	-0.546333172	-2.7131122279	-1.3686319047	 0.002249
C	-1.4870126221	-1.8586026128	-0.9002396969	-0.160515
C	-1.3884434533	-0.5461089096	-0.2725676434	 0.327965
O	-2.3898987981	 0.0450777138	 0.0734026856	-0.293527
H	 0.8539340219	 1.6885851586	 0.6694036988	 0.213695
H	 1.969519404	 0.1027828277	-0.1622137317	 0.255492
H	 2.5986003937	-1.7311358945	-1.0836087247	 0.131679
H	-0.9180900832	-3.6430006226	-1.7949225375	 0.122912
H	-2.521941651	-2.1740716653	-0.9904630021	 0.120494
27.7125	99.71	288.0894	344.2627	391.1274	407.801	433.5152	529.4656	599.1499	648.8895	660.1333	787.7133	804.4069	873.9984	895.314	897.6901	965.427	978.216	1015.2688	1032.5818	1186.9392	1241.5919	1293.9625	1370.8863	1450.7961	1485.8003	1507.4333	1619.0079	1684.1957	1710.4912	1755.5966	3126.4409	3145.8643	3185.8276	3444.0739	3567.704
N=C1NC=NC=CC1=O	[NH][C]1NC=NC=CC1=O	
InChI=1S/C5H5N3O/c6-5-4(9)1-2-7-3-8-5/h1-3H,(H2,6,7,8,9)	InChI=1S/C5H5N3O/c6-5-4(9)1-2-7-3-8-5/h1-3H,(H2,6,7,8,9)
