20
gdb 92791	3.25162	1.02226	0.80123	3.0003	85.85	-0.2119	-0.0007	0.2112	1435.0706	0.171746	-403.199476	-403.190448	-403.189504	-403.233962	33.467	
C	-0.0658702667	 1.5650673583	-0.0637554555	-0.404801
C	 0.0609436224	 0.0432242529	-0.0335203915	 0.039732
C	 0.8864034363	-0.5592756868	-1.2041400255	-0.251222
C	 1.5410756403	-1.7660768337	-0.5833647832	-0.214733
C	 1.4567764515	-1.7369397438	 0.7524487123	 0.423833
C	 0.7219957819	-0.5147658416	 1.2541971848	-0.302184
N	 2.0196372202	-2.6957692149	 1.6028764347	-0.394674
C	 2.0015157765	-2.7347620263	 2.9724679012	 0.144228
O	 1.4872565241	-1.9271196621	 3.7121411183	-0.307034
H	 0.9194145986	 2.0422576031	-0.0069933576	 0.113433
H	-0.5484241889	 1.9056620508	-0.9862486245	 0.111185
H	-0.6619980408	 1.9322307901	 0.7784029417	 0.115797
H	-0.9447739876	-0.3909138757	-0.0924221193	 0.078188
H	 0.2569579259	-0.8041996175	-2.0678259298	 0.098935
H	 1.6404811332	 0.1556803371	-1.5688781701	 0.098499
H	 2.0590677954	-2.5270827711	-1.1577193466	 0.075924
H	 1.4334082453	 0.1980345573	 1.6929516924	 0.11418
H	 0.0032750437	-0.7434599527	 2.0424450796	 0.131366
H	 2.5055360986	-3.4570971721	 1.1512034464	 0.250387
H	 2.5384888501	-3.6317158913	 3.3406437121	 0.078961
44.3329	85.2599	155.2953	193.609	243.653	286.5633	319.5337	383.5425	419.7945	494.6891	536.6067	615.0273	638.4037	814.5622	827.7034	844.8509	877.7404	908.4561	934.5593	957.3298	1010.0466	1019.9029	1065.5118	1108.3204	1111.9374	1154.673	1168.7745	1235.5257	1256.2173	1279.6692	1302.7618	1344.1272	1370.9608	1380.7234	1411.8233	1448.4998	1479.9186	1494.0837	1497.418	1500.5	1517.2785	1713.9191	1811.7866	2933.8579	2982.6093	3017.154	3023.7776	3028.3094	3047.0262	3092.5823	3096.209	3116.0873	3179.8258	3604.5359
CC1CC=C(C1)NC=O	C[C@H]1CC=C(C1)NC=O	
InChI=1S/C7H11NO/c1-6-2-3-7(4-6)8-5-9/h3,5-6H,2,4H2,1H3,(H,8,9)	InChI=1S/C7H11NO/c1-6-2-3-7(4-6)8-5-9/h3,5-6H,2,4H2,1H3,(H,8,9)/t6-/m0/s1
