19
gdb 83557	3.86542	1.26048	1.19494	3.8584	79.47	-0.2378	0.0233	0.2611	1095.8714	0.161613	-382.06036	-382.052592	-382.051648	-382.092361	30.581	
N	-0.1628774736	-1.2066926685	-0.1851991095	-0.346209
C	-0.0829631205	-0.0568990499	-0.0898470708	 0.280134
C	 0.018587932	 1.3845118502	 0.0311206544	-0.14844
C	-0.0343151951	 2.0674718093	 1.4370173053	-0.007872
C	 1.0346901217	 1.281729387	 2.2375577643	-0.239979
C	 2.1680770366	 1.2920135079	 1.1636198441	-0.239977
C	 1.4187052054	 2.0806474012	 0.0602027756	-0.007871
N	 0.7005393951	 3.1814151412	 0.7680106106	-0.083169
C	 1.438003655	 4.1543155256	 1.555578002	-0.335814
H	-0.6484878473	 1.8877610583	-0.6680611536	 0.132756
H	-0.9845452111	 2.3019397654	 1.9173891322	 0.08392
H	 1.3103574312	 1.795153865	 3.161292807	 0.106782
H	 0.6999691423	 0.2753014063	 2.4977992505	 0.127395
H	 3.0706917534	 1.8111405046	 1.4932833413	 0.106782
H	 2.4555639865	 0.2912310219	 0.8343077717	 0.127394
H	 1.9472181916	 2.3285261531	-0.8606119891	 0.083919
H	 2.0057321877	 4.7981993871	 0.8761920642	 0.127832
H	 0.7229707551	 4.7867641301	 2.0914922884	 0.127832
H	 2.1406554341	 3.7372142543	 2.2933075518	 0.104584
137.9521	141.2084	184.2421	272.4775	310.482	367.3098	399.4907	504.9919	547.4741	586.5681	725.5238	750.1452	795.5783	830.8544	852.877	854.4074	914.3919	975.8587	997.4765	1006.1392	1012.5055	1050.0252	1115.8963	1125.0783	1159.4371	1178.2603	1191.4441	1217.0978	1225.5377	1251.6238	1263.1543	1299.188	1299.3123	1335.8762	1342.0727	1448.5215	1485.1205	1486.2702	1512.1674	1516.3089	2352.985	2985.8898	3067.7302	3073.4368	3079.2043	3103.7545	3112.6707	3118.0488	3118.5912	3127.3931	3129.9029
N#CC1C2CCC1N2C	N#C[C@H]1[C@H]2CC[C@@H]1N2C	
InChI=1S/C7H10N2/c1-9-6-2-3-7(9)5(6)4-8/h5-7H,2-3H2,1H3	InChI=1S/C7H10N2/c1-9-6-2-3-7(9)5(6)4-8/h5-7H,2-3H2,1H3/t5-,6+,7-
