21
gdb 104040	3.1191	1.20394	1.14819	2.5183	77.55	-0.2468	0.0846	0.3314	1188.9498	0.181737	-424.209579	-424.200724	-424.19978	-424.243169	34.191	
C	 0.4181289639	 1.6547644966	-0.1352794148	-0.248245
O	 0.2626702343	 0.2552243107	-0.2121745157	-0.283664
C	 0.4968532881	-0.4838094547	 0.9816148775	 0.418186
C	 1.9277367224	-0.2833455523	 1.5046962135	-0.441633
C	-0.5388731036	-0.1692652191	 2.1146031759	-0.296689
C	-0.9190707584	-1.5203483819	 2.6952619713	 0.038464
O	-1.825659914	-2.2510829409	 1.8636576632	-0.249177
C	-0.4353819358	-2.5924918702	 1.8086697687	 0.032856
C	 0.2773198849	-1.9810625078	 0.6175137575	-0.290835
H	 1.4619331708	 1.957702148	 0.0278312057	 0.106542
H	 0.0899387237	 2.0576815065	-1.0967775957	 0.127879
H	-0.1996782993	 2.102404518	 0.6567437341	 0.105741
H	 2.0967881191	 0.7356825905	 1.865078298	 0.115216
H	 2.116284101	-0.9615843756	 2.3435565779	 0.118764
H	 2.6553053766	-0.5012283636	 0.71681994	 0.122177
H	-0.1232590805	 0.4951927383	 2.8780849036	 0.094787
H	-1.4267725765	 0.3098373252	 1.6913059303	 0.121745
H	-1.0643862666	-1.649178674	 3.7652788568	 0.091519
H	-0.1896771515	-3.5916309184	 2.1600040303	 0.093022
H	-0.349652811	-2.0472149263	-0.2752770901	 0.127132
H	 1.2262459724	-2.4817089189	 0.404345212	 0.096213
52.8812	115.5644	203.2712	240.5256	292.0702	310.2121	315.1888	382.64	422.3175	447.4852	485.2543	605.6986	700.0991	754.1881	794.584	856.5489	891.0233	906.9818	934.8453	957.0138	964.2412	996.6417	1046.1629	1100.4073	1109.6079	1140.3484	1158.6484	1179.1653	1184.5563	1209.6403	1238.608	1258.8424	1289.9868	1296.6456	1332.6005	1340.4997	1400.9212	1433.3732	1470.0288	1476.123	1479.1189	1490.0181	1493.5672	1508.2702	1513.0079	2989.4379	3033.0373	3040.2218	3051.6728	3060.1962	3098.6379	3103.7932	3109.4319	3110.235	3114.1902	3134.9097	3148.1815
COC1(C)CC2OC2C1	CO[C@@]1(C)C[C@H]2O[C@H]2C1	
InChI=1S/C7H12O2/c1-7(8-2)3-5-6(4-7)9-5/h5-6H,3-4H2,1-2H3	InChI=1S/C7H12O2/c1-7(8-2)3-5-6(4-7)9-5/h5-6H,3-4H2,1-2H3/t5-,6+,7+
