15
gdb 24060	7.267	0.80687	0.73818	1.0185	75.2	-0.2056	0.0177	0.2232	1461.0603	0.111168	-420.599572	-420.591225	-420.590281	-420.634363	29.928	
C	-0.0421020691	-1.1333130561	 0.0850057291	-0.411592
C	 0.0175478192	 0.0616708559	-0.0112265672	 0.289895
C	 0.0518254995	 1.508278115	-0.142704125	-0.238508
O	 1.3190265484	 1.9915604825	 0.3418014503	-0.274587
C	 1.5405816315	 3.3013458045	 0.1751069483	 0.449222
C	 2.6819326967	 3.9788527008	-0.1146033122	-0.304976
C	 2.3224750588	 5.3693958537	-0.0641065465	-0.164129
C	 1.00264768	 5.4220008633	 0.2364124522	-0.021098
O	 0.504360203	 4.1521076528	 0.3941711457	-0.187138
H	-0.0901940153	-2.190726409	 0.1726324536	 0.206745
H	-0.0739504145	 1.8035739347	-1.19316419	 0.14058
H	-0.7618461219	 1.965964095	 0.4313301656	 0.153579
H	 3.6423046359	 3.5430723801	-0.3324987403	 0.115195
H	 2.9710401209	 6.2131942842	-0.2405734359	 0.112832
H	 0.288187517	 6.2176402827	 0.3588354822	 0.13398
28.1013	42.509	109.9855	213.2762	321.2342	339.6695	430.1579	495.9142	610.3904	616.5331	662.0756	689.1224	711.3324	755.3229	784.2869	842.4989	895.8091	946.9968	983.0872	1020.9128	1027.661	1028.9076	1099.1657	1178.9216	1240.9452	1250.7732	1283.4968	1393.6364	1418.682	1494.7629	1559.5831	1661.1585	2251.6516	3014.6882	3061.2522	3255.0034	3277.5843	3294.4074	3505.5992	28.0974	42.5083	109.9852	213.2758	321.2334	339.6689	430.1579	495.9142	610.3903	616.5324	662.0755	689.1216	711.3326	755.3229	784.2864	842.4982	895.8092	946.9965	983.087	1020.913	1027.6605	1028.9072	1099.1654	1178.9216	1240.9452	1250.7735	1283.4965	1393.6368	1418.682	1494.7635	1559.5832	1661.1586	2251.6517	3014.6881	3061.2521	3255.0033	3277.5842	3294.4074	3505.5989
C#CCOC1=CC=CO1	C#CCOc1ccco1	
InChI=1S/C7H6O2/c1-2-5-8-7-4-3-6-9-7/h1,3-4,6H,5H2	InChI=1S/C7H6O2/c1-2-5-8-7-4-3-6-9-7/h1,3-4,6H,5H2
