23
gdb 122928	4.32211	0.48999	0.45768	3.465	84.2	-0.245	-0.0183	0.2267	2359.352	0.202499	-425.437199	-425.425584	-425.42464	-425.47599	39.698	
C	-0.0570270427	 1.5705407053	 0.180205568	-0.409111
C	 0.0034655234	 0.0392743982	 0.0430803919	-0.062077
C	 0.6813097293	-0.4259960875	-1.2658867785	-0.195335
C	-0.0811187989	-0.0503684012	-2.5430339803	-0.195554
C	 0.5852901923	-0.6038970158	-3.8064973062	-0.166155
C	-0.1656618344	-0.2427008569	-5.0814543101	-0.074752
O	 0.5418200335	-0.8006230282	-6.1780681175	-0.420596
C	 0.7783078351	-0.5317881357	 1.214455909	 0.159834
O	 0.3604024615	-1.3420588438	 2.0002906967	-0.250059
H	 0.9485131697	 2.006918864	 0.161862145	 0.120605
H	-0.6299066392	 2.0182549792	-0.635527599	 0.129053
H	-0.5340065467	 1.8630284666	 1.1206773168	 0.128841
H	-1.0067756548	-0.3818160853	 0.0978922224	 0.092913
H	 1.698861985	-0.0134994625	-1.3127857712	 0.099442
H	 0.7940202412	-1.5172497891	-1.2329651067	 0.110612
H	-1.1095913678	-0.4301013562	-2.4724170091	 0.099525
H	-0.1618002582	 1.0405373121	-2.6253582164	 0.100061
H	 1.6113720407	-0.2249116261	-3.8899289781	 0.106043
H	 0.6612212686	-1.6964574675	-3.746339634	 0.108099
H	-1.1952251669	-0.6341156813	-5.0298000478	 0.084358
H	-0.2404783971	 0.8539275771	-5.1711872453	 0.082757
H	 0.0670873438	-0.5829413251	-6.9853591561	 0.285766
H	 1.8198667928	-0.1353741603	 1.3011545564	 0.065733
41.5661	47.9652	63.5679	98.1443	124.7346	136.4033	208.8186	237.0031	256.8459	263.736	343.5427	358.811	403.7159	490.546	573.8259	742.5855	793.1356	870.8156	910.8912	913.1763	959.2049	1014.4096	1025.3998	1031.7301	1063.8887	1082.9558	1123.1378	1158.5778	1182.4305	1212.0665	1225.4794	1267.9446	1287.7802	1309.6082	1317.1317	1330.8369	1357.4832	1368.6626	1398.9504	1407.5931	1429.0403	1463.7322	1482.5523	1490.7529	1498.2278	1503.5524	1508.3634	1529.3073	1836.0316	2831.451	2955.619	2980.3126	3008.1689	3015.764	3031.8856	3034.2867	3038.6421	3049.9983	3061.2484	3079.9865	3101.9856	3120.0574	3830.7255
CC(CCCCO)C=O	C[C@@H](CCCCO)C=O	
InChI=1S/C7H14O2/c1-7(6-9)4-2-3-5-8/h6-8H,2-5H2,1H3	InChI=1S/C7H14O2/c1-7(6-9)4-2-3-5-8/h6-8H,2-5H2,1H3/t7-/m0/s1
