21
gdb 70810	2.52357	1.88069	1.39584	0.1347	87.3	-0.2156	0.01	0.2256	1029.9781	0.182665	-349.918865	-349.910852	-349.909908	-349.950542	33.074	
C	 0.0039415993	 1.4972477905	-0.0194477737	-0.519979
C	 0.0189783266	-0.0062037159	-0.0363666564	 0.344562
C	 0.5606201874	-0.9469979597	-1.1390744029	-0.331732
C	 0.0328055877	-1.9079834131	-0.0471253154	 0.344562
C	 0.039633436	-3.4115898224	-0.0472196361	-0.519979
C	 0.6333705036	-0.9589474726	 1.0660045281	-0.129679
C	-0.3378018714	-0.9726992092	 2.2310500082	-0.114614
C	-1.5399791728	-0.9779183817	 1.6451831168	-0.114612
C	-1.2208528413	-0.9673092754	 0.1623655921	-0.129676
H	 1.0196596669	 1.9024920631	-0.0874257275	 0.11635
H	-0.5711258752	 1.8953095877	-0.8628760501	 0.11635
H	-0.4492782544	 1.8669340028	 0.906883843	 0.122641
H	 0.0236384881	-0.9455021012	-2.0938245555	 0.081255
H	 1.643431655	-0.93818877	-1.3044269312	 0.081255
H	 1.0610864308	-3.8012316943	-0.1202904045	 0.11635
H	-0.4075612985	-3.7982828933	 0.8750881663	 0.122641
H	-0.5301507446	-3.8083997755	-0.8948137042	 0.11635
H	 1.7111593979	-0.9521093306	 1.2421705805	 0.051951
H	-0.0844998231	-0.9768897626	 3.2821032692	 0.097027
H	-2.5238351257	-0.987520645	 2.093321421	 0.097027
H	-2.0237149424	-0.9689569016	-0.5779859379	 0.051951
206.6947	217.8612	222.8862	226.8756	230.1092	317.6429	421.1819	476.9943	536.9484	583.0929	616.5456	691.0067	762.9266	768.0475	785.7872	794.0256	895.8067	907.9101	913.0732	938.3949	942.4906	991.4771	1011.2685	1037.5528	1060.3234	1063.1956	1125.2452	1141.2083	1146.9176	1175.7976	1178.5625	1194.5263	1253.7832	1273.6354	1289.8764	1333.8511	1361.4854	1401.566	1407.7517	1486.4686	1488.1162	1488.4639	1489.2107	1515.382	1625.7247	3024.3015	3024.4923	3029.2891	3083.4704	3091.2103	3091.3211	3093.0649	3095.2427	3095.3285	3097.4022	3215.3539	3242.3832
CC12CC3(C)C1C=CC23	C[C@@]12C[C@@]3(C)[C@@H]1C=C[C@@H]23	
InChI=1S/C9H12/c1-8-5-9(2)6(8)3-4-7(8)9/h3-4,6-7H,5H2,1-2H3	InChI=1S/C9H12/c1-8-5-9(2)6(8)3-4-7(8)9/h3-4,6-7H,5H2,1-2H3/t6-,7+,8-,9+
