14
gdb 48383	2.73603	1.24255	1.05629	4.6359	68.89	-0.2711	-0.0652	0.206	1127.6996	0.098415	-436.699958	-436.691287	-436.690343	-436.733838	30.091	
O	-0.329951574	 0.4111791513	-0.7354806718	-0.248862
C	 0.0346371635	 1.126248505	 0.1632825914	 0.089327
C	 1.2823678573	 1.9605357726	 0.0888528182	 0.115023
C	 2.3189987929	 1.5636340239	-0.9507395867	-0.310044
C	 1.531775209	 2.8028662352	-1.1963446939	-0.214282
C	 0.5271860576	 2.8768314741	-2.2213359035	 0.321713
N	-0.2591548322	 2.9910950891	-3.0605715066	-0.31791
C	 1.7562559531	 2.5970386013	 1.3512089437	 0.110917
O	 1.2202484568	 2.458890928	 2.4199284005	-0.245544
H	-0.5195800528	 1.2189272337	 1.1141679901	 0.13137
H	 3.3658975285	 1.6744433098	-0.6919682477	 0.148289
H	 2.0493385471	 0.6829530201	-1.5220436794	 0.180594
H	 2.0337954836	 3.7493539515	-1.0141413272	 0.153158
H	 2.6707363995	 3.2240996646	 1.2350113129	 0.086251
74.5274	105.1791	139.7647	173.7621	214.3459	265.7809	310.0155	351.0291	452.2035	541.7756	550.6325	676.1318	750.0491	759.7482	860.4588	929.0255	981.7153	1037.9604	1055.4959	1063.571	1109.2216	1142.3253	1247.5164	1306.0863	1383.5115	1418.9605	1438.2736	1465.8805	1813.2502	1825.3372	2364.9618	2861.3717	2985.3857	3144.9229	3152.0507	3246.7828
O=CC1(CC1C#N)C=O	O=CC1(C[C@H]1C#N)C=O	
InChI=1S/C6H5NO2/c7-2-5-1-6(5,3-8)4-9/h3-5H,1H2	InChI=1S/C6H5NO2/c7-2-5-1-6(5,3-8)4-9/h3-5H,1H2/t5-/m0/s1
