16
gdb 21265	3.32365	1.89764	1.22655	2.9457	67.59	-0.2057	0.0318	0.2375	966.389	0.13111	-379.93358	-379.925522	-379.924578	-379.966162	28.839	
C	-0.0023258115	 1.4077827075	 0.0758192007	-0.247052
O	 0.0115843028	-0.0049620408	 0.0423247679	-0.259819
C	 0.6056202196	-0.5529490338	-1.0467992651	 0.221152
C	 1.2058884603	 0.0397354642	-2.1405522771	-0.164598
N	 1.6283214969	-0.9968324499	-2.9184648962	-0.195072
N	 1.3413961871	-2.2026890234	-2.4013018334	-0.278928
C	 0.7141635843	-1.951936016	-1.2534704634	 0.253242
C	 0.2232244464	-3.0452075569	-0.3625111002	-0.493357
H	 1.0178741514	 1.816767209	 0.0748102983	 0.117746
H	-0.5496807423	 1.8216629566	-0.7827742558	 0.117746
H	-0.5064614071	 1.6983523472	 0.9989816819	 0.134368
H	 1.3615841735	 1.0680217776	-2.4189343072	 0.127873
H	 2.1093991073	-0.9448839599	-3.798634285	 0.271539
H	 0.6843564987	-2.9896875608	 0.6297483307	 0.129434
H	-0.8605670246	-2.9838613434	-0.2144439844	 0.129434
H	 0.4606506273	-4.0154432771	-0.8036545516	 0.136291
85.0765	109.2082	189.1935	216.4705	262.1674	304.0613	346.4087	416.7614	520.8648	617.4071	653.1486	701.5433	741.9058	754.3486	940.6502	1004.4061	1067.1927	1067.5713	1082.2107	1182.4721	1196.8757	1219.114	1234.4944	1329.8625	1403.4628	1417.3134	1472.4729	1479.776	1480.1854	1486.3778	1493.9912	1508.2407	1545.9718	1630.3528	2991.7883	3035.047	3045.2298	3084.5968	3133.0028	3133.1528	3277.0222	3689.1232
COC1=CNN=C1C	COc1c[nH]nc1C	
InChI=1S/C5H8N2O/c1-4-5(8-2)3-6-7-4/h3H,1-2H3,(H,6,7)	InChI=1S/C5H8N2O/c1-4-5(8-2)3-6-7-4/h3H,1-2H3,(H,6,7)
