18
gdb 107275	3.27286	1.41302	1.27338	2.1453	70.87	-0.2329	0.0607	0.2935	1036.7782	0.148931	-439.004863	-438.997385	-438.99644	-439.036937	29.648	
O	-0.0085698165	 1.3156809075	 0.376362863	-0.420132
C	-0.0385098596	-0.0214351721	-0.1082400429	-0.204203
C	-1.4495145874	-0.510591676	-0.0574082861	 0.382941
N	-2.0745928433	-1.0216061803	 1.1849147944	-0.369964
C	-1.8549035583	-1.9304445122	 0.0339291009	-0.121342
C	-2.989907135	-1.9228199571	-1.0175628251	 0.062748
C	-3.8195348056	-0.6635118883	-0.682699162	-0.232755
C	-2.4761478617	-0.0461793581	-1.1239543429	 0.009593
O	-2.3515432477	-1.1472119092	-2.0982593773	-0.310077
H	 0.8603380628	 1.6829537042	 0.1884886213	 0.289675
H	 0.3141869336	-0.078666708	-1.1494543961	 0.108345
H	 0.6050731263	-0.6822897211	 0.4967183123	 0.078919
H	-1.3399816903	-1.1815887222	 1.8742021781	 0.229846
H	-1.1532545992	-2.7535488633	 0.1041205575	 0.096665
H	-3.4148821408	-2.8707327817	-1.3446469399	 0.079501
H	-4.5871690405	-0.4971708098	-1.4373600076	 0.106532
H	-4.1785628032	-0.5052354622	 0.3313724165	 0.129913
H	-2.3614948535	 0.9469931998	-1.5548242939	 0.083796
79.7158	144.3914	245.646	274.747	348.2904	427.0207	466.4368	550.4835	610.3327	664.6569	714.7111	799.9395	838.1244	872.7512	884.8946	899.8207	912.9573	944.6518	975.3963	1016.3298	1020.179	1048.9453	1067.3788	1069.1973	1101.5168	1144.1783	1190.9237	1219.8495	1233.6478	1243.3912	1255.6155	1271.094	1295.9882	1319.3584	1354.2722	1411.332	1469.6752	1478.8977	1508.8041	2956.6058	3002.2826	3104.8441	3133.2661	3141.27	3180.2449	3183.3964	3468.1643	3827.6468
OCC12NC1C1CC2O1	OC[C@]12N[C@H]1[C@H]1C[C@@H]2O1	
InChI=1S/C6H9NO2/c8-2-6-4-1-3(9-4)5(6)7-6/h3-5,7-8H,1-2H2	InChI=1S/C6H9NO2/c8-2-6-4-1-3(9-4)5(6)7-6/h3-5,7-8H,1-2H2/t3-,4+,5+,6-/m1/s1
