16
gdb 33638	3.37487	1.49257	1.4185	1.617	81.07	-0.2324	-0.0118	0.2206	968.3408	0.125163	-363.529763	-363.522852	-363.521907	-363.560792	28.362	
C	-0.0538836304	-1.1780341491	-0.1508199352	-0.3373
C	-0.038361845	 0.0187537607	-0.0258652815	 0.057307
C	 0.0239302046	 1.4293789191	 0.1250123712	 0.261959
C	-0.8922839266	 2.3230975112	 0.885709081	-0.108793
C	-0.0750459429	 3.2185916001	 1.7424716014	-0.078251
C	 1.1974195405	 3.1949580733	 1.3245328751	-0.099194
C	 1.2821588153	 2.3660980628	 0.0704694491	-0.1774
C	 0.4453566306	 3.1363009748	-1.0099866496	-0.145219
N	-0.8140000882	 2.4322433357	-0.6400759879	-0.194932
H	-0.079073701	-2.233722842	-0.2625384115	 0.185162
H	-1.8707856983	 1.969798076	 1.1855582404	 0.11117
H	-0.4899942922	 3.8183573637	 2.541820897	 0.106115
H	 2.0109727563	 3.808310698	 1.6917205672	 0.106202
H	 2.2497424318	 1.9606292775	-0.2158438574	 0.086936
H	 0.4171115571	 4.2279898703	-0.9406315933	 0.104368
H	 0.7003671886	 2.8248312579	-2.0250932259	 0.121871
133.6713	153.7768	362.7567	378.2855	460.4655	490.6116	531.0404	576.0517	602.6452	664.1856	669.1192	731.5378	755.2479	812.6979	845.3236	874.8025	904.5729	924.5091	948.7969	956.6512	1019.0298	1046.4834	1096.0743	1121.9729	1142.9952	1173.068	1177.303	1250.5687	1280.5588	1293.5024	1357.9982	1392.856	1491.6233	1635.5497	2232.7161	3052.3588	3118.6036	3144.3378	3199.3608	3205.3721	3229.7318	3501.3058
C#CC12C3C=CC1CN23	C#C[C@@]12[C@H]3C=C[C@@H]1CN23	
InChI=1S/C8H7N/c1-2-8-6-3-4-7(8)9(8)5-6/h1,3-4,6-7H,5H2	InChI=1S/C8H7N/c1-2-8-6-3-4-7(8)9(8)5-6/h1,3-4,6-7H,5H2/t6-,7-,8+,9?/m1/s1
