19
gdb 28866	2.26104	1.78487	1.01106	3.3242	87.02	-0.2073	-0.0079	0.1994	1174.5559	0.160717	-382.14302	-382.134214	-382.13327	-382.176011	33.726	
C	-0.0933214152	 1.5223084552	 0.0653595291	-0.506458
C	-0.0315676939	 0.015885405	-0.0052082203	 0.211008
C	 0.036339381	-0.6754773943	-1.2224981593	 0.168799
C	 0.0717941387	 0.0175678753	-2.5603059374	-0.522719
C	 0.0831588951	-2.079969992	-1.1783449891	 0.210381
N	 0.2062545431	-2.83367822	-2.3495032989	-0.591811
C	 0.0678372712	-2.7094303457	 0.072413854	-0.060076
N	 0.013263848	-2.0583869798	 1.2286848235	-0.281055
C	-0.0383367507	-0.7271438278	 1.1779455014	-0.083268
H	 0.793316532	 1.9906359693	-0.377360739	 0.131327
H	-0.9660539052	 1.923153432	-0.4624096012	 0.128551
H	-0.1550801851	 1.8537835425	 1.105067915	 0.126669
H	 0.8958645771	-0.3656746142	-3.1734328068	 0.141226
H	-0.8539346108	-0.1519260087	-3.1287146111	 0.125821
H	 0.1952730449	 1.0964525015	-2.4640535969	 0.130206
H	-0.2739382748	-2.4574324791	-3.1542795502	 0.247065
H	-0.007327915	-3.8139393938	-2.2286123583	 0.247103
H	 0.1049745425	-3.7977259603	 0.1231811856	 0.086318
H	-0.088647453	-0.2106848851	 2.1342182498	 0.090912
109.2404	148.3145	175.5682	232.2399	269.8197	308.147	311.6073	339.4289	470.6906	489.5453	532.5026	573.1811	578.602	652.8667	677.2992	766.7283	829.5015	893.864	928.9687	937.8642	1014.3485	1043.31	1070.2395	1078.4215	1138.2535	1206.4374	1225.2187	1311.4186	1315.945	1344.2088	1407.8783	1417.2035	1459.7772	1479.5322	1480.0004	1497.0655	1504.1995	1524.8477	1612.6039	1620.5447	1659.7311	3008.6024	3028.0897	3064.5003	3079.7221	3113.01	3120.4259	3141.7178	3145.0071	3556.6601	3651.8677
CC1=C(C)C(N)=CN=C1	Cc1c(C)c(N)cnc1	
InChI=1S/C7H10N2/c1-5-3-9-4-7(8)6(5)2/h3-4H,8H2,1-2H3	InChI=1S/C7H10N2/c1-5-3-9-4-7(8)6(5)2/h3-4H,8H2,1-2H3
