18
gdb 112154	3.26409	1.12542	0.89143	2.0365	77.5	-0.2458	-0.029	0.2168	1305.1378	0.147573	-439.115752	-439.106874	-439.105929	-439.149573	32.723	
C	 0.0751381026	 1.495325282	 0.0736698856	-0.486935
C	-0.0208815409	 0.0081192012	 0.0267479657	 0.268537
C	-1.0878563546	-0.7953453057	 0.0703428369	-0.231863
C	-0.6574095554	-2.228125798	-0.0219194404	 0.026233
C	-1.1554561851	-2.983870806	-1.2574683444	-0.059152
O	-0.6289076677	-4.2910521619	-1.3101854065	-0.416938
O	 0.7822267679	-2.1585469984	-0.0929711851	-0.267216
C	 1.1810628208	-0.8433786684	-0.0785436087	 0.335874
N	 2.3788036376	-0.438681302	-0.1412871904	-0.543908
H	 0.6807432487	 1.8118165245	 0.9291947575	 0.150006
H	 0.5846618888	 1.873151628	-0.8186729386	 0.14989
H	-0.9108486975	 1.9601766297	 0.1444586361	 0.121536
H	-2.1253233071	-0.4970601856	 0.1511830621	 0.118681
H	-0.9168605831	-2.8114331714	 0.8723112643	 0.109597
H	-2.2456252818	-3.080009542	-1.2124530809	 0.113091
H	-0.9015814631	-2.3976628325	-2.1543713353	 0.096535
H	 0.3307846244	-4.2019745455	-1.2829298971	 0.293811
H	 3.0277747657	-1.2235976978	-0.2083035506	 0.222223
89.0746	119.9538	131.8914	144.2552	259.0436	270.4968	349.2995	392.7685	430.8103	480.4065	540.339	614.6503	720.1735	751.6283	798.9627	851.5909	878.6218	887.3654	985.5985	1016.083	1044.8344	1068.2684	1070.8982	1082.989	1096.1558	1198.9903	1220.2618	1240.2334	1300.7131	1342.7696	1382.4312	1391.3587	1415.8563	1428.3209	1471.1154	1483.9024	1495.4729	1710.3061	1756.8808	2986.5785	3020.7033	3042.8599	3077.8535	3099.3531	3129.139	3219.2316	3484.6415	3801.7076
CC1=CC(CO)OC1=N	CC1=C(O[C@@H]([CH]1)CO)[NH]	
InChI=1S/C6H9NO2/c1-4-2-5(3-8)9-6(4)7/h2,5,7-8H,3H2,1H3	InChI=1S/C6H9NO2/c1-4-2-5(3-8)9-6(4)7/h2,5,7-8H,3H2,1H3/t5-/m0/s1
