17
gdb 33313	6.77441	0.72153	0.70593	1.2279	97.88	-0.2371	-0.014	0.2231	1597.3178	0.135888	-347.449459	-347.441515	-347.440571	-347.482318	30.799	
C	-0.0381979517	-3.8328518617	-0.1071710939	-0.584737
C	-0.0177404405	-2.6257192076	-0.0658070117	 0.288912
C	 0.0050294544	-1.266682527	-0.0194953337	-0.165508
C	 0.0304672138	-0.0558044815	 0.0267583582	 0.36952
C	 0.0285227114	 1.3878334737	 0.0507711601	-0.235805
C	 0.0800865231	 2.1545200372	 1.4239011403	-0.034391
C	 1.5692241371	 1.720161816	 1.5477872017	-0.225131
C	 1.3886430759	 2.1787719475	 0.0717745722	-0.034392
C	 0.5802365181	 3.3878550706	 0.6205797529	-0.227617
H	-0.0559041133	-4.8935863487	-0.1432585412	 0.188581
H	-0.7088949593	 1.7839653783	-0.6557790931	 0.098113
H	-0.6892258437	 2.1271882965	 2.1960013989	 0.082555
H	 2.2041660645	 2.3520227003	 2.1736021733	 0.094044
H	 1.7628208326	 0.659637315	 1.7161230606	 0.114584
H	 2.1353787533	 2.1795373744	-0.7226513814	 0.082555
H	-0.1329499398	 3.8592488984	-0.0611704922	 0.093179
H	 1.1488680843	 4.1307785487	 1.1842126091	 0.095538
77.957	81.2696	220.4931	229.3727	409.6673	422.7231	465.9672	520.2357	534.5832	564.3801	593.8589	599.3085	764.8916	804.9388	822.1475	870.1956	898.6853	904.7286	906.8303	1013.2087	1024.8428	1032.7085	1085.5887	1105.2267	1112.6501	1134.9402	1193.8986	1209.0542	1210.5151	1241.1819	1242.4191	1256.0726	1369.7513	1499.437	1537.3498	2178.0022	2351.8326	3046.7948	3054.518	3066.3587	3110.0092	3114.6543	3122.5662	3136.0664	3506.0371
C#CC#CC1C2CC1C2	C#CC#C[C@H]1[C@H]2C[C@@H]1C2	
InChI=1S/C9H8/c1-2-3-4-9-7-5-8(9)6-7/h1,7-9H,5-6H2	InChI=1S/C9H8/c1-2-3-4-9-7-5-8(9)6-7/h1,7-9H,5-6H2/t7-,8+,9-
