19
gdb 14105	3.01349	1.83838	1.55056	2.7418	72.05	-0.2385	0.0805	0.319	925.5198	0.165235	-365.018986	-365.01098	-365.010036	-365.051045	30.845	
C	-0.259020883	 1.2911720389	-0.0013522606	-0.317795
N	 0.0361366534	-0.1284976303	 0.133740088	-0.132037
C	 1.4145322946	-0.5498908126	-0.1513497249	-0.331409
C	 0.8905380311	-0.5765516145	 1.2314571228	 0.305947
C	 1.2135586951	 0.2178911697	 2.5017038965	-0.316915
C	 0.2816326744	-0.7606005674	 3.2793203509	-0.249489
C	 0.3457104382	-1.7470336804	 2.0672651352	 0.107688
O	-0.8237797295	-2.3413029738	 1.5911200858	-0.441217
H	 0.5902896818	 1.9448598709	 0.2497418087	 0.10702
H	-0.5510719363	 1.4949483537	-1.0361151327	 0.128566
H	-1.1002770511	 1.5547408554	 0.647881257	 0.12603
H	 1.5224769405	-1.4703286311	-0.7202785701	 0.120963
H	 2.1303224799	 0.2315929256	-0.4057813088	 0.10934
H	 2.2645194703	 0.1255751412	 2.7901487827	 0.110701
H	 0.9457827265	 1.2768005435	 2.512783165	 0.106644
H	 0.6303636584	-1.1288513062	 4.2461082492	 0.09865
H	-0.7302558082	-0.3617418076	 3.3885731307	 0.106605
H	 1.0998241813	-2.5265631598	 2.2338725567	 0.077885
H	-1.1357132072	-1.744661385	 0.8909815978	 0.282822
97.8953	155.1305	198.7105	223.7935	259.4087	389.4286	437.868	452.086	504.6993	550.5502	575.295	710.3117	772.1385	779.3005	868.1134	900.1255	925.4575	946.1937	1049.2845	1076.812	1096.9453	1115.8778	1133.4565	1151.8403	1172.369	1187.3934	1210.765	1220.075	1229.4054	1262.5962	1274.1086	1357.3827	1404.8613	1444.7446	1451.7198	1473.3554	1491.6822	1492.9146	1500.9756	1511.4748	2985.0037	3026.0411	3060.389	3066.7912	3071.082	3085.4135	3103.877	3107.3287	3128.5762	3172.4054	3666.4312
CN1CC11CCC1O	CN1C[C@]21CC[C@H]2O	
InChI=1S/C6H11NO/c1-7-4-6(7)3-2-5(6)8/h5,8H,2-4H2,1H3	InChI=1S/C6H11NO/c1-7-4-6(7)3-2-5(6)8/h5,8H,2-4H2,1H3/t5-,6-,7?/m1/s1
