20
gdb 63772	3.86097	1.01683	0.95691	3.7137	82.21	-0.2398	0.0043	0.244	1310.8593	0.169182	-403.131814	-403.122771	-403.121827	-403.165293	34.298	
C	 0.1022432463	 1.4885493495	 0.1549839216	-0.447258
C	-0.0606053345	-0.0218992574	-0.0094610705	 0.313065
C	-1.5043414591	-0.413538578	-0.3033729582	-0.446006
C	 1.041529319	-0.6277521713	-0.9737922737	-0.302076
C	 1.6862220482	-1.3212350561	 0.2312588437	-0.024551
C	 0.625575814	-0.7785621409	 1.1541529183	-0.088855
N	 0.6791083356	-2.1941034777	 0.8083857062	-0.076361
C	 0.9678153275	-3.2081774829	 1.7019231569	 0.131761
O	 1.900625181	-3.9705760974	 1.6135194455	-0.296299
H	 1.1354337746	 1.7557014564	 0.4023186433	 0.115347
H	-0.1673059646	 2.0092268402	-0.7700513416	 0.120761
H	-0.5439824594	 1.8693806006	 0.9541790294	 0.115571
H	-1.8370078969	 0.0157922788	-1.2549626749	 0.115418
H	-1.6056580402	-1.5001131237	-0.3647915841	 0.130782
H	-2.1794750546	-0.0481925174	 0.4791757238	 0.110909
H	 0.6867322358	-1.3015789576	-1.7569343165	 0.112342
H	 1.6734527313	 0.1456428778	-1.4157226235	 0.108841
H	 2.7316700193	-1.5242074171	 0.4248724319	 0.122374
H	 0.7082100682	-0.4682864789	 2.1908920375	 0.102285
H	 0.1855930485	-3.2959265769	 2.480872165	 0.081948
83.8444	145.2696	193.7285	214.6962	231.8386	266.4547	303.9936	325.9287	372.855	432.4353	465.6524	627.1684	691.7901	769.0552	826.0376	841.652	863.3766	924.8585	954.9882	964.0185	989.4253	991.9101	1033.1453	1037.6294	1044.0379	1125.9208	1150.3215	1195.1125	1204.6858	1249.4394	1277.9438	1282.6498	1305.7898	1399.1671	1409.4301	1417.7878	1428.6765	1476.2119	1484.9247	1488.0397	1500.592	1510.424	1792.7227	2946.395	3022.9489	3028.9573	3067.3721	3088.1239	3092.2466	3098.226	3118.1792	3125.5229	3170.0722	3208.6615
CC1(C)CC2C1N2C=O	CC1(C)C[C@H]2[C@@H]1N2C=O	
InChI=1S/C7H11NO/c1-7(2)3-5-6(7)8(5)4-9/h4-6H,3H2,1-2H3	InChI=1S/C7H11NO/c1-7(2)3-5-6(7)8(5)4-9/h4-6H,3H2,1-2H3/t5-,6-,8?/m0/s1
