16
gdb 69721	3.77031	1.41323	1.24172	3.3512	68.41	-0.2361	-0.0086	0.2275	996.7943	0.124149	-437.838304	-437.83104	-437.830096	-437.869802	28.898	
O	 0.1165061982	 1.3787290408	-0.3153144247	-0.451508
C	 0.0294711045	 0.0202901205	-0.1220240669	 0.390214
C	-0.2116467133	-0.8750693233	-1.2957574687	-0.332998
C	-1.1694647881	-0.951495473	-0.1276250424	-0.118015
N	-0.5668048092	-1.6903186352	 1.0144090336	-0.135107
C	 0.5764711772	-0.7263254891	 1.1117588588	-0.067474
C	 1.5891480679	-1.8943343363	 1.0271045847	-0.396736
C	 0.3398495239	-2.7735969417	 0.7610964024	 0.381482
O	 0.1398869764	-3.8943754788	 0.4029817726	-0.305647
H	-0.2051319484	 1.8244998613	 0.4770173766	 0.29094
H	-0.6125390637	-0.3308758098	-2.1454323801	 0.133102
H	 0.4334405284	-1.7071676356	-1.563646352	 0.131918
H	-2.239643541	-0.8105073827	-0.206663451	 0.114318
H	 0.5929832029	-0.1143069835	 2.018712156	 0.083096
H	 2.2959263891	-1.8823576109	 0.1948273709	 0.143833
H	 2.1259030252	-2.1149804527	 1.9525996299	 0.138582
111.0867	189.9852	258.5682	329.4129	364.9401	441.7966	477.1562	484.1121	544.6587	622.3644	671.2777	779.2245	811.1446	835.9651	892.8282	915.7828	952.6357	984.1544	999.3452	1017.121	1050.1761	1076.9414	1093.7983	1106.7615	1137.0648	1186.8971	1199.7515	1221.7815	1247.8211	1292.5154	1339.8885	1424.2962	1444.1812	1500.5954	1896.8246	3062.9436	3078.9573	3120.0304	3135.8832	3196.7476	3209.3579	3788.3699
OC12CC1N1C2CC1=O	O[C@]12C[C@H]1N1[C@H]2CC1=O	
InChI=1S/C6H7NO2/c8-5-1-3-6(9)2-4(6)7(3)5/h3-4,9H,1-2H2	InChI=1S/C6H7NO2/c8-5-1-3-6(9)2-4(6)7(3)5/h3-4,9H,1-2H2/t3-,4+,6-/m0/s1
