18
gdb 97107	2.52244	1.35104	0.99557	2.1639	76.53	-0.2546	0.0066	0.2612	1236.8117	0.145622	-439.058639	-439.049428	-439.048484	-439.092982	32.781	
C	 0.0120976579	 1.4086609261	 0.0121142304	-0.342006
N	 0.285334712	-0.0192465694	-0.0692156792	-0.338698
C	 0.5870651885	-0.6503990894	 0.9650881116	 0.417458
O	 0.7378106698	-0.2310931596	 2.2862689393	-0.280273
C	 1.0112797426	-1.5891731646	 2.7519147244	-0.160176
C	 0.9261338941	-2.0745896236	 1.3046629928	 0.251137
O	 0.2489214946	-3.2198611226	 0.8514815623	-0.272445
C	 1.6509746376	-3.0984461432	 0.5431666146	-0.015898
C	 2.0193147968	-2.9096548033	-0.9035535705	-0.428271
H	 0.7500843062	 1.9486733602	-0.5914306874	 0.130952
H	-0.9696678087	 1.6074510159	-0.4303185147	 0.132417
H	 0.0304892683	 1.8096184134	 1.031827325	 0.12963
H	 1.9842824553	-1.6497538757	 3.2456213828	 0.125513
H	 0.2164161758	-1.9544136925	 3.4072786068	 0.133728
H	 2.2758368236	-3.7848896652	 1.1176581173	 0.098543
H	 1.389219946	-2.143876901	-1.3605511464	 0.16449
H	 3.0667005512	-2.6007345111	-0.9871790988	 0.123553
H	 1.9004230084	-3.8501450643	-1.4511068703	 0.130348
80.6986	112.4241	124.9838	155.7398	204.7869	227.9697	245.04	325.8609	413.6874	457.5165	513.3035	660.6486	711.2257	755.2047	800.0611	889.6925	943.7004	968.0389	1030.9919	1047.4397	1074.3331	1088.1628	1131.4459	1133.2705	1146.0172	1151.0389	1173.8054	1220.5084	1308.3717	1364.529	1414.5806	1439.6074	1476.8073	1491.2172	1492.683	1497.2567	1509.4103	1527.8158	1847.3821	3020.2274	3040.1337	3061.3	3085.9016	3093.1713	3093.6091	3104.3645	3122.2757	3142.5514
CN=C1OCC11OC1C	CN=C1OC[C@]21O[C@H]2C	
InChI=1S/C6H9NO2/c1-4-6(9-4)3-8-5(6)7-2/h4H,3H2,1-2H3	InChI=1S/C6H9NO2/c1-4-6(9-4)3-8-5(6)7-2/h4H,3H2,1-2H3/t4-,6-/m0/s1
