19
gdb 79328	2.92643	1.82651	1.6319	1.3421	77.87	-0.2229	0.0151	0.238	924.4145	0.162113	-385.896385	-385.88958	-385.888636	-385.92708	28.847	
C	-0.0286010114	 1.5397892533	 0.0021843792	-0.412168
C	 0.0001558127	 0.0091639472	-0.0177107142	 0.01151
C	 0.8614892636	-0.5259744574	-1.1496581606	-0.115953
C	 2.2078526881	-0.74111481	-0.5372098194	 0.096157
O	 2.1655110995	-0.4226159522	 0.8211109852	-0.257342
C	 0.7679957873	-0.5965976062	 1.1950443566	 0.004895
C	 0.4987251237	-2.0736608214	 1.2798114035	-0.104698
C	 0.8176653709	-2.7516124048	 0.1709834311	-0.042893
C	 1.3729163096	-1.9674604041	-0.9473631575	-0.151647
H	 0.9837316877	 1.9430560366	 0.1000522375	 0.131515
H	-0.46733879	 1.9404773344	-0.9174694706	 0.111345
H	-0.6244003021	 1.9087105083	 0.8439335494	 0.110476
H	-1.0179961558	-0.392149837	-0.041975765	 0.07902
H	 0.7230775107	-0.1625760902	-2.1602045036	 0.088826
H	 3.1664560611	-0.5345708246	-0.9944770201	 0.104773
H	 0.6176666491	-0.0592865374	 2.1316583253	 0.076362
H	 0.1195282113	-2.5311785725	 2.1854599059	 0.090736
H	 0.7330921286	-3.8299084175	 0.0854712114	 0.09443
H	 1.6848475456	-2.4890298643	-1.844558344	 0.084654
180.2166	219.3588	280.6387	357.1549	400.3388	478.047	586.5836	620.0204	698.7199	714.0714	742.163	770.4554	793.1102	807.3627	887.0904	908.4192	930.5632	942.1041	965.4476	995.2202	1002.7707	1031.0895	1059.5829	1074.4306	1088.4073	1109.182	1124.1749	1143.8049	1156.6204	1239.7199	1274.4347	1295.9456	1309.5562	1350.3106	1370.8128	1391.9401	1404.6401	1412.7668	1496.2618	1501.3422	1671.8215	3032.5528	3057.5585	3096.6345	3113.6865	3114.1351	3171.1408	3182.7637	3189.8871	3205.5123	3208.7719
CC1C2C3OC1C=CC23	C[C@H]1[C@H]2[C@H]3O[C@@H]1C=C[C@@H]23	
InChI=1S/C8H10O/c1-4-6-3-2-5-7(4)8(5)9-6/h2-8H,1H3	InChI=1S/C8H10O/c1-4-6-3-2-5-7(4)8(5)9-6/h2-8H,1H3/t4-,5+,6-,7-,8+/m1/s1
