19
gdb 82075	2.41225	1.65744	1.17715	2.2488	74.31	-0.2363	0.0265	0.2627	1084.546	0.159629	-419.196097	-419.187266	-419.186321	-419.229575	33.486	
C	 0.2919635484	 1.7505612323	-0.8402982489	-0.405504
C	 0.0909878249	 0.3260876454	-0.3399440465	-0.008629
C	 0.815372494	-0.8267861479	-1.0431787432	-0.030277
C	 2.2687425196	-0.7690255051	-0.8231942709	-0.246285
N	 1.4291027358	-1.355717992	 0.2486106451	-0.16992
C	 0.7835895695	-0.1938375693	 0.9615839149	-0.082415
C	 1.6853619596	 0.7153755049	 1.7853108661	 0.376012
N	 2.8378292011	 0.1238824741	 2.2038443112	-0.518039
O	 1.3679205284	 1.8552820672	 2.0703247469	-0.370196
H	 1.3489538143	 1.9969312705	-0.9725023144	 0.117015
H	-0.2097554236	 1.8860275483	-1.804844771	 0.107198
H	-0.1189750719	 2.4672629859	-0.125845008	 0.14524
H	-0.9799805594	 0.1161235462	-0.2759309939	 0.086744
H	 0.3653017138	-1.5016572748	-1.7642216775	 0.097992
H	 2.8812322082	-1.5159508693	-1.3185627007	 0.122637
H	 2.7669786862	 0.1814131807	-0.6523773881	 0.126909
H	 0.0424235382	-0.5970080219	 1.6589433038	 0.11595
H	 3.0277045713	-0.841210394	 1.990032357	 0.274819
H	 3.4381844419	 0.6248335989	 2.8377058282	 0.260751
60.4176	156.9257	165.9626	197.4961	242.3148	287.117	296.7735	411.1119	450.6403	509.0857	574.832	628.1948	674.49	714.4578	753.1266	783.5856	834.9975	919.9814	952.317	987.0395	1026.2795	1056.3584	1079.6643	1094.0049	1101.6444	1111.3986	1142.4702	1166.3488	1218.8271	1240.5698	1281.8282	1314.553	1366.426	1372.8704	1381.192	1415.5924	1486.272	1494.0397	1507.9442	1606.0797	1790.9651	3039.2633	3053.9542	3071.484	3108.03	3117.8433	3131.2461	3163.1169	3204.4589	3592.1572	3731.3725
CC1C2CN2C1C(N)=O	C[C@H]1[C@H]2CN2[C@H]1C(=O)N	
InChI=1S/C6H10N2O/c1-3-4-2-8(4)5(3)6(7)9/h3-5H,2H2,1H3,(H2,7,9)	InChI=1S/C6H10N2O/c1-3-4-2-8(4)5(3)6(7)9/h3-5H,2H2,1H3,(H2,7,9)/t3-,4+,5+,8?/m0/s1
