18
gdb 119330	5.44623	1.01509	0.98125	2.6252	75.21	-0.2097	0.0646	0.2743	1252.3191	0.146643	-401.802837	-401.794846	-401.793901	-401.83609	29.67	
C	-0.5968837688	 1.3927783065	 0.5469576904	-0.21931
O	-0.7508307898	-0.0031896817	 0.6481837462	-0.237655
C	-0.645765552	-0.6610570628	-0.5969497254	-0.23585
C	-0.8116686654	-2.1214409314	-0.3505714159	 0.360834
C	-1.7919391837	-2.8482092474	 0.5808314204	-0.159549
C	-1.739592018	-4.0767370034	-0.3610788719	-0.048452
C	-0.7927002835	-3.3748532842	-1.2667971788	-0.145482
N	-0.2568171667	-4.2370015761	-0.1530931831	-0.179986
C	-0.2996411784	-3.005340462	 0.7552316382	-0.055875
H	-0.6915654135	 1.8051103415	 1.5542062442	 0.129839
H	 0.389810702	 1.6660676514	 0.1411170071	 0.106908
H	-1.3691781793	 1.8430268629	-0.0964420387	 0.106046
H	-1.4168359192	-0.2921770461	-1.2975132214	 0.091136
H	 0.3350429374	-0.4543916887	-1.0625218786	 0.092851
H	-2.5419078673	-2.4278317564	 1.2341820303	 0.101808
H	-2.3953946425	-4.9239204938	-0.5238012796	 0.095428
H	-0.523216763	-3.5352857215	-2.3044129348	 0.093382
H	 0.3636103316	-2.8226559268	 1.5905694913	 0.103926
72.1213	83.2274	120.24	219.8562	270.2808	342.3558	375.3802	647.3827	689.5721	757.9059	773.8398	778.5201	862.675	867.3507	876.5315	891.1748	913.5775	979.2498	981.8148	997.9337	1014.8441	1044.4802	1087.7836	1110.9895	1132.7798	1159.0045	1184.5118	1195.511	1221.9773	1230.2008	1253.4469	1271.5104	1316.881	1409.9999	1459.1312	1481.6975	1484.8369	1504.362	1527.373	2931.7831	2952.3148	2972.6582	3016.9158	3117.3229	3170.3352	3184.6686	3199.2618	3231.4299
COCC12C3C4C1N4C23	COC[C@@]12[C@H]3[C@H]4[C@@H]1N4[C@@H]23	
InChI=1S/C7H9NO/c1-9-2-7-3-4-6(7)8(4)5(3)7/h3-6H,2H2,1H3	InChI=1S/C7H9NO/c1-9-2-7-3-4-6(7)8(4)5(3)7/h3-6H,2H2,1H3/t3-,4-,5+,6-,7-,8?/m0/s1
