16
gdb 125163	3.39803	1.56215	1.08454	3.1632	79.54	-0.2196	-0.0182	0.2014	1073.8025	0.12564	-400.761093	-400.753798	-400.752854	-400.792976	27.916	
C	 0.0917975914	 1.5211386113	 0.0288932087	-0.494422
C	-0.0826471378	 0.045244382	 0.0647153749	 0.259232
C	-1.1421172217	-0.8029191998	-0.0138551966	 0.11746
C	-2.5813932182	-0.9727055234	-0.1564498691	-0.221774
C	-2.8668763548	-2.2898488532	-0.1378892903	-0.083821
C	-1.6207590961	-3.1549385536	 0.0225083505	-0.405906
C	-0.5545358522	-2.096599384	 0.0941055592	 0.363924
N	 0.7389321074	-2.0701632686	 0.2268576313	-0.245668
O	 1.0499203552	-0.694693811	 0.2088046181	-0.227697
H	 0.7377368092	 1.8215341852	-0.8030492311	 0.150883
H	-0.8763325244	 2.0116898049	-0.0896244828	 0.137113
H	 0.555406811	 1.885698852	 0.9518076691	 0.150879
H	-3.3035220719	-0.1734631502	-0.2602744607	 0.106338
H	-3.8577487936	-2.717409915	-0.2247199737	 0.106023
H	-1.660087992	-3.7760756696	 0.9254599107	 0.143718
H	-1.4794135516	-3.8398653571	-0.8222260981	 0.143718
87.7987	168.8403	228.3826	245.6415	330.8983	450.9883	509.8226	591.0615	611.7137	663.2714	699.2158	756.094	784.286	860.9484	889.2748	928.673	951.846	959.1366	990.904	1057.9296	1059.813	1146.9713	1149.0162	1187.7307	1261.7234	1264.8762	1371.1614	1402.7575	1418.3635	1446.2002	1472.4601	1486.3668	1591.8011	1607.3855	1707.1168	3038.0908	3039.1206	3068.6975	3092.9902	3133.8308	3207.3333	3229.1905
CC1=C2C=CCC2=NO1	Cc1c2C=CCc2no1	
InChI=1S/C7H7NO/c1-5-6-3-2-4-7(6)8-9-5/h2-3H,4H2,1H3	InChI=1S/C7H7NO/c1-5-6-3-2-4-7(6)8-9-5/h2-3H,4H2,1H3
