18
gdb 54327	2.18369	1.4155	1.03608	2.6988	73.1	-0.252	-0.0403	0.2116	1189.3495	0.1452	-439.089942	-439.080496	-439.079552	-439.124878	33.686	
C	 0.8463815234	 0.750547635	 0.8019186334	-0.50982
C	-0.2464969456	 0.0693468047	 0.0104347942	 0.340187
O	-1.4162749424	 0.1417115571	 0.3268434899	-0.321154
C	 0.1436320176	-0.7522442475	-1.2036560595	 0.20082
C	 1.4544109238	-0.4540015216	-1.9212369774	-0.364009
C	 1.3878340718	 0.8919214535	-2.6179143194	 0.15414
O	 2.0083156769	 1.8670196395	-2.2734697141	-0.237657
C	-0.3994713952	-2.1527505568	-1.1778209837	-0.259158
N	-0.9746507657	-1.1568172468	-2.0708873314	-0.338321
H	 1.5749398906	 0.011100202	 1.1546907378	 0.142621
H	 1.3944671108	 1.4611435621	 0.1743194342	 0.176371
H	 0.4047244152	 1.2661548019	 1.6548399264	 0.146179
H	 2.3037408852	-0.4604419724	-1.2334676515	 0.12268
H	 1.6072808503	-1.2273915688	-2.6818403548	 0.128302
H	 0.6842202186	 0.9301260267	-3.4765302417	 0.106744
H	 0.1761468568	-2.9410697547	-1.6562129552	 0.124398
H	-0.9648676996	-2.4489071256	-0.2989664229	 0.135705
H	-1.8257465726	-0.7914568384	-1.6406796444	 0.251972
56.6002	81.441	99.5214	186.3112	194.4981	261.138	286.141	323.8005	399.4294	436.3243	489.5799	574.3237	618.8777	660.8806	837.8292	851.8943	872.9262	959.9233	977.8285	1010.6753	1026.3719	1046.7475	1082.6928	1100.8635	1122.8165	1189.3511	1209.5982	1287.229	1306.8319	1351.3806	1365.6739	1393.8932	1418.2946	1455.8412	1473.8899	1478.2466	1496.633	1783.452	1821.9256	2914.1889	3037.3876	3050.	3101.2238	3107.7209	3114.9719	3157.9487	3202.1687	3458.2509
CC(=O)C1(CC=O)CN1	CC(=O)[C@@]1(CC=O)CN1	
InChI=1S/C6H9NO2/c1-5(9)6(2-3-8)4-7-6/h3,7H,2,4H2,1H3	InChI=1S/C6H9NO2/c1-5(9)6(2-3-8)4-7-6/h3,7H,2,4H2,1H3/t6-/m1/s1
