14
gdb 130641	3.17369	1.82041	1.17356	3.6202	68.28	-0.2799	-0.0505	0.2294	961.8112	0.104609	-432.930079	-432.923562	-432.922618	-432.961459	24.335	
O	 0.0261252159	-0.0495121602	 0.0023443927	-0.300767
C	-0.0067606448	 1.1446498593	 0.0088778619	 0.424359
C	-1.2262723907	 2.08080426	 0.0316974194	-0.343342
C	-0.692837236	 3.542199238	 0.0314196045	-0.366478
C	 0.7888648992	 3.3423335123	 0.0082819098	 0.410501
N	 1.8757301351	 4.0711316843	-0.0042058638	-0.358793
C	 2.860918092	 3.1044393944	-0.0238545434	 0.039826
N	 2.451502518	 1.8479864427	-0.0241034692	-0.241189
N	 1.1042908068	 2.0188445739	-0.0031700407	-0.026931
H	-1.8486351866	 1.8563487433	-0.8381280732	 0.158474
H	-1.8228764974	 1.8472243907	 0.9170248861	 0.158468
H	-1.0299609886	 4.1102245661	-0.8399106865	 0.152533
H	-1.003712433	 4.1009270828	 0.9183869225	 0.152536
H	 3.9123692601	 3.3522064924	-0.0382711801	 0.140801
93.1239	144.7195	257.1214	317.7065	542.4643	553.4257	620.8867	662.0153	678.1986	681.3862	746.5996	831.1512	927.914	974.3323	980.0086	1024.1805	1053.7591	1128.7946	1162.8276	1170.0334	1233.1577	1260.889	1286.7848	1307.6655	1335.5463	1409.4491	1453.4712	1472.0809	1488.4614	1601.6825	1883.89	3067.9544	3080.8851	3101.8977	3124.2607	3259.4449
O=C1CCC2=NC=NN12	O=C1CCc2ncnn12	
InChI=1S/C5H5N3O/c9-5-2-1-4-6-3-7-8(4)5/h3H,1-2H2	InChI=1S/C5H5N3O/c9-5-2-1-4-6-3-7-8(4)5/h3H,1-2H2
