18
gdb 110229	2.1222	1.55682	1.06235	2.8434	73.99	-0.2558	0.0138	0.2695	1169.8267	0.146506	-439.05669	-439.047794	-439.04685	-439.090651	33.096	
C	-0.1867136288	 1.5106245178	 0.1662145411	-0.491212
C	 0.0557167058	 0.0442284429	 0.0539358659	 0.423667
O	-1.1278104755	-0.8179651816	 0.0061062481	-0.299355
C	-0.5131797741	-1.7155403012	 0.8787029805	 0.437489
N	-0.9647038221	-2.7485326609	 1.4271734026	-0.560875
C	 0.7785379533	-0.974213377	 0.9195652146	-0.289525
C	 1.2163996692	-0.6837435668	-0.532303624	-0.10105
C	 1.1426912147	-1.718149155	-1.6365940524	-0.099837
O	 2.1117248565	-2.7400732325	-1.4729655955	-0.418387
H	 0.7600410165	 2.0401279349	 0.3038936546	 0.134423
H	-0.6599742041	 1.8933209216	-0.7444486719	 0.141623
H	-0.8418431613	 1.7333985403	 1.0133562843	 0.140572
H	-1.9355219925	-2.9159801921	 1.157067895	 0.231133
H	 1.4353460151	-0.8621876923	 1.7697520176	 0.122882
H	 2.128706943	-0.0897054485	-0.5401847462	 0.108155
H	 0.1257365907	-2.1244881909	-1.7045077037	 0.11448
H	 1.3692031896	-1.2419996304	-2.5963516782	 0.113629
H	 1.893722624	-3.2141698384	-0.6629423723	 0.29219
48.8438	132.2651	157.4448	202.8718	235.0993	299.3005	299.9194	358.8634	451.6396	489.6418	545.0426	646.2157	679.8848	745.4356	808.1253	867.0248	891.999	919.3844	924.1431	977.5885	978.703	1023.4606	1064.0805	1082.642	1117.4299	1123.5969	1163.3132	1186.8274	1240.1512	1298.7706	1321.3899	1380.6377	1413.8106	1418.3691	1474.5077	1484.5771	1499.8494	1505.047	1827.6436	3027.5193	3039.5561	3077.3292	3106.1824	3123.491	3137.5224	3228.3703	3477.5692	3805.4983
CC12OC(=N)C1C2CO	C[C@]12O[C]([NH])[C@H]1[C@H]2CO	
InChI=1S/C6H9NO2/c1-6-3(2-8)4(6)5(7)9-6/h3-4,7-8H,2H2,1H3	InChI=1S/C6H9NO2/c1-6-3(2-8)4(6)5(7)9-6/h3-4,7-8H,2H2,1H3/t3-,4-,6-/m1/s1
