23
gdb 122323	4.77347	0.62484	0.59354	1.9144	89.81	-0.2237	0.0246	0.2484	1971.5576	0.20534	-388.30352	-388.293432	-388.292488	-388.339953	35.93	
C	 0.060702981	 1.5603242243	 0.1908518722	-0.382496
C	 0.002721573	 0.0455203879	-0.0232798836	-0.160992
C	-1.4178876694	-0.5207903114	 0.0690015568	-0.158124
C	-1.4707537386	-2.0462476502	-0.145810492	-0.321611
C	-2.8536600448	-2.619750291	-0.0888461574	 0.31864
C	-3.5514587009	-3.2101106178	-1.0564035919	-0.214454
C	-4.8947275961	-3.6437212732	-0.5471434213	-0.101405
O	-4.9198878504	-3.2469318336	 0.8224282198	-0.265412
C	-3.692977359	-2.6148525597	 1.1675528879	-0.148228
H	 1.08616421	 1.9352672543	 0.1155617458	 0.112566
H	-0.5427471366	 2.089109804	-0.5552512553	 0.11507
H	-0.3226046119	 1.8358184653	 1.1796443128	 0.114679
H	 0.427388408	-0.2031040544	-1.0050201527	 0.095499
H	 0.6405196259	-0.4551843908	 0.7173215832	 0.095277
H	-1.84411369	-0.2702239874	 1.0490719217	 0.098999
H	-2.0589904885	-0.0323839945	-0.6762295991	 0.099941
H	-1.0183098127	-2.2905397582	-1.1140016374	 0.102652
H	-0.844797111	-2.5281270444	 0.6196136375	 0.103245
H	-3.2218740496	-3.3779955897	-2.0746774553	 0.094253
H	-5.7288908904	-3.167602312	-1.087831058	 0.101188
H	-5.0444247621	-4.7331421376	-0.6236853785	 0.101036
H	-3.2026020176	-3.1638388011	 1.9893942877	 0.097855
H	-3.8925995583	-1.5970377889	 1.5390788772	 0.101824
46.511	74.0017	85.9789	112.4817	124.1221	229.8751	245.6666	286.1659	324.5303	389.9656	506.1443	661.2592	734.6898	777.1631	789.8426	823.3188	902.0388	907.1798	927.3775	936.1124	977.7465	1009.4606	1025.0143	1059.9228	1061.7607	1097.1156	1119.9271	1124.3681	1174.5646	1209.2505	1224.8367	1236.5798	1277.9523	1296.0176	1325.2764	1332.6622	1362.6472	1372.1886	1394.4808	1397.2408	1413.8603	1478.0351	1485.2796	1498.4329	1500.0442	1511.8899	1516.3199	1529.601	1728.5219	2956.9184	2966.8922	2977.2305	2979.9743	2999.84	3011.449	3022.0622	3030.4913	3035.6922	3050.3725	3071.1585	3097.0262	3102.2024	3207.0098
CCCCC1=CCOC1	CCCCC1=CCOC1	
InChI=1S/C8H14O/c1-2-3-4-8-5-6-9-7-8/h5H,2-4,6-7H2,1H3	InChI=1S/C8H14O/c1-2-3-4-8-5-6-9-7-8/h5H,2-4,6-7H2,1H3
