20
gdb 119304	2.09884	1.19621	0.89437	3.2104	79.29	-0.2732	0.0291	0.3023	1362.0641	0.170607	-403.149765	-403.140124	-403.13918	-403.18467	34.973	
O	-0.3358739928	 1.4312678913	 0.3337802797	-0.418906
C	-0.052822726	 0.0566954896	 0.123997713	-0.092117
C	-1.3923571597	-0.6563580569	-0.0287467731	-0.235688
C	-1.2873966263	-2.1863925105	-0.1537610396	 0.150386
C	-0.9700201719	-2.9145607873	 1.2034247431	-0.252761
C	-2.4794712964	-3.2307579639	 1.364659684	-0.215209
C	-2.6937206223	-2.8845870664	-0.1316998284	-0.256933
C	-0.4329197434	-2.5641723776	-1.2750636624	 0.245286
N	 0.2422183414	-2.8791843428	-2.1602741653	-0.359533
H	 0.4969871449	 1.9116238356	 0.3429641881	 0.28972
H	 0.5550776685	-0.0973504806	-0.7794501529	 0.11448
H	 0.5083667073	-0.3679776832	 0.9722253912	 0.089328
H	-2.0150009438	-0.4199442724	 0.8414711812	 0.114462
H	-1.9073714551	-0.2540620643	-0.9080202408	 0.122166
H	-0.3667855261	-3.8113189978	 1.0503269553	 0.125509
H	-0.4956839782	-2.2991660528	 1.97064177	 0.113923
H	-2.7349696386	-4.2459281076	 1.6722136958	 0.111824
H	-2.9861404474	-2.5319429944	 2.0341373129	 0.114716
H	-3.5370584314	-2.2407725606	-0.391139304	 0.114503
H	-2.7164829627	-3.7702923973	-0.769375398	 0.124846
79.614	101.48	112.6443	149.3606	185.8249	218.0525	257.5039	317.9531	371.8072	399.9746	544.8404	564.6767	642.7572	719.872	793.6766	803.7974	863.3009	924.1882	950.4855	952.0517	986.9671	1013.1615	1047.3823	1070.1901	1104.9455	1165.0914	1196.7119	1215.674	1245.3693	1255.0265	1260.8794	1272.7875	1279.225	1303.679	1331.5812	1343.5037	1467.1244	1474.4819	1484.9099	1488.4966	1506.3844	1528.9519	2343.4705	2969.4653	3013.2385	3041.9759	3069.7774	3072.1908	3077.7133	3088.1394	3115.028	3128.3453	3138.881	3833.0971
OCCC1(CCC1)C#N	OCCC1(CCC1)C#N	
InChI=1S/C7H11NO/c8-6-7(4-5-9)2-1-3-7/h9H,1-5H2	InChI=1S/C7H11NO/c8-6-7(4-5-9)2-1-3-7/h9H,1-5H2
