20
gdb 59106	2.09557	1.60017	1.01505	4.0487	75.82	-0.2296	0.0069	0.2365	1216.4474	0.169303	-440.29852	-440.288896	-440.287952	-440.33297	34.991	
C	 0.1741792186	 1.3194454553	-0.3683706193	-0.403294
C	-0.1074501371	-0.0420103087	 0.2257840052	 0.116051
O	 0.3298136781	-1.1126929383	-0.6932474164	-0.249613
C	 1.2651129915	-1.5716814045	 0.1855884825	 0.457248
O	 2.0618183853	-2.4396706788	 0.0137575352	-0.332031
C	 0.8521926933	-0.6106654822	 1.3129861512	-0.167919
N	 1.8737204837	 0.248869135	 1.8662686495	-0.073721
C	 1.3219357876	 1.1340433007	 2.884603278	-0.322465
C	 3.0134544022	-0.5030399217	 2.3908219917	-0.33063
H	 1.2488898907	 1.4832233017	-0.4691208385	 0.143048
H	-0.2962195987	 1.3925739422	-1.3531159349	 0.135335
H	-0.2410859788	 2.1105497109	 0.2631336669	 0.12471
H	-1.1683325571	-0.1844963115	 0.4467458983	 0.097002
H	 0.2932539471	-1.1700305365	 2.0883716652	 0.088012
H	 0.9424835637	 0.5837294375	 3.7666387721	 0.09806
H	 2.0977446916	 1.8264699912	 3.2240009427	 0.126553
H	 0.4987963171	 1.7243147349	 2.4733628502	 0.120008
H	 3.4195873304	-1.1591813485	 1.6208110602	 0.159196
H	 3.7894454843	 0.2028049115	 2.7014445404	 0.119082
H	 2.7460381765	-1.1234107602	 3.26632162	 0.095369
77.2975	95.1071	170.8506	193.4555	212.2021	230.1737	250.0586	324.6311	331.479	385.1454	418.5708	495.0583	570.3143	679.8038	748.6849	827.907	877.5023	900.9792	954.1402	1038.6078	1054.9231	1067.2541	1118.3158	1123.9084	1151.1575	1154.7601	1189.4468	1206.7394	1266.0475	1313.2266	1323.5386	1365.3539	1380.9997	1415.4014	1445.4593	1475.6144	1481.7492	1485.5057	1489.7221	1496.8393	1500.1034	1514.131	1924.3741	2910.7017	2929.4681	2941.597	3048.8565	3072.7349	3077.8534	3080.6414	3114.5799	3119.3007	3142.6561	3150.5749
CC1OC(=O)C1N(C)C	C[C@H]1OC(=O)[C@H]1N(C)C	
InChI=1S/C6H11NO2/c1-4-5(7(2)3)6(8)9-4/h4-5H,1-3H3	InChI=1S/C6H11NO2/c1-4-5(7(2)3)6(8)9-4/h4-5H,1-3H3/t4-,5+/m1/s1
