18
gdb 31972	3.03619	1.14995	0.87817	1.9212	77.08	-0.1866	0.0359	0.2225	1332.5359	0.146873	-439.092108	-439.082751	-439.081807	-439.12775	33.005	
C	 0.3734342516	 1.2132471555	-0.3271595757	-0.325506
N	-0.3014270641	 0.0767324018	 0.3076760063	-0.381997
C	 0.4798829439	-0.7370522402	 1.1127175379	 0.305423
C	 0.8747773438	-2.0305917413	 1.0184286402	-0.193124
C	 1.7034001402	-2.3266472357	 2.1526082163	-0.318058
C	 1.7532964697	-1.1696526701	 2.8671455987	 0.448112
O	 2.3824750926	-0.9032983191	 4.0186386523	-0.270205
C	 2.3047627158	 0.4320276569	 4.5087804138	-0.24405
O	 1.0364392052	-0.1872205292	 2.282775375	-0.224817
H	 1.1920646375	 0.8370281728	-0.9471795654	 0.132216
H	-0.337382376	 1.7321597919	-0.9771556973	 0.117114
H	 0.7893918394	 1.9399486746	 0.386177325	 0.110792
H	-1.1538945345	 0.374710349	 0.7697316782	 0.229963
H	 0.5984807407	-2.701884987	 0.2204313873	 0.108247
H	 2.1869383505	-3.254842299	 2.4057107341	 0.106126
H	 2.7347573975	 1.1431153979	 3.7954526754	 0.131591
H	 1.268957747	 0.7204392317	 4.7157965841	 0.131828
H	 2.882613379	 0.4410970195	 5.4335166739	 0.136344
27.3981	63.3712	131.4438	161.5553	176.425	217.5703	279.6132	382.1134	428.5201	528.9591	595.3555	617.5011	681.9316	703.9655	751.6043	756.0112	850.7917	929.2083	979.1993	1014.0879	1046.0705	1078.3133	1146.5515	1159.5499	1177.7613	1178.2476	1205.1155	1266.6551	1309.3456	1393.1458	1449.5363	1468.9559	1480.9445	1485.0457	1490.7359	1502.9319	1519.4874	1640.9714	1686.5774	2993.964	3030.1553	3075.8183	3095.58	3115.9968	3147.2603	3258.0497	3277.6769	3512.5727
CNC1=CC=C(OC)O1	CNc1ccc(OC)o1	
InChI=1S/C6H9NO2/c1-7-5-3-4-6(8-2)9-5/h3-4,7H,1-2H3	InChI=1S/C6H9NO2/c1-7-5-3-4-6(8-2)9-5/h3-4,7H,1-2H3
