20
gdb 19764	2.88187	2.67908	2.23106	0.027	76.16	-0.2536	0.0804	0.334	765.7837	0.182552	-311.893064	-311.886993	-311.886049	-311.922932	25.89	
C	 0.0557605721	 1.5718737038	-0.0908108483	-0.21757
C	 1.5425608889	 1.8700356505	 0.0493728261	-0.049627
C	 2.1678197647	 0.7038554458	 0.7945576893	-0.049628
C	 1.0532138748	-0.2884962712	 1.0979199787	-0.21757
C	 0.0117229212	 0.0287441033	-0.000274849	-0.023212
C	 0.4842541927	-0.5717956797	-1.3366150438	-0.203519
C	 1.9017947932	-0.0529904238	-1.7140087469	-0.222963
C	 2.4602773129	 0.9111568393	-0.6738351212	-0.022879
H	-0.4996139218	 2.0319119126	 0.735414821	 0.090545
H	-0.3801571532	 1.9415526447	-1.0264885571	 0.087736
H	 1.8691926389	 2.8902279589	 0.2185442191	 0.071321
H	 2.960461023	 0.85487318	 1.5191349387	 0.07132
H	 1.3769391132	-1.3356162842	 1.0675328792	 0.087737
H	 0.6431885096	-0.0995864311	 2.0973774936	 0.090545
H	-0.9847103407	-0.3469822147	 0.2478058816	 0.05834
H	 0.4870424365	-1.6646273974	-1.2614347413	 0.090976
H	-0.2353004745	-0.3172304754	-2.1223480942	 0.090976
H	 2.5959883467	-0.8932053728	-1.8301348944	 0.097297
H	 1.8763435593	 0.4491027737	-2.6879717364	 0.097296
H	 3.4503571825	 1.2959260977	-0.9024362247	 0.07288
122.0677	344.0954	369.0203	422.7644	497.5724	610.5204	631.6314	759.2214	784.3109	814.3185	815.0073	827.565	895.9644	908.161	914.6199	942.0908	988.8469	1026.5564	1049.2577	1051.172	1060.3531	1077.7545	1096.6645	1113.5287	1160.4263	1179.4484	1183.6536	1199.7989	1264.8533	1288.0907	1296.8743	1315.7319	1334.6426	1336.5484	1361.9103	1363.1836	1387.0418	1440.6584	1488.9709	1491.0787	1501.0097	1517.0004	3022.7411	3023.244	3025.6863	3037.4172	3048.0137	3059.8065	3062.1373	3070.0515	3077.0111	3138.5274	3160.2603	3172.1307
C1C2C3CC1CCC23	C1[C@H]2[C@H]3C[C@@H]1CC[C@@H]23	
InChI=1S/C8H12/c1-2-6-7-3-5(1)4-8(6)7/h5-8H,1-4H2	InChI=1S/C8H12/c1-2-6-7-3-5(1)4-8(6)7/h5-8H,1-4H2/t5-,6+,7-,8+
