18
gdb 119944	2.25222	1.17008	0.9424	3.4514	73.51	-0.2576	0.0255	0.2831	1314.4814	0.145686	-439.064923	-439.055051	-439.054107	-439.100753	34.272	
C	-0.4508536962	 1.3363525595	-0.4545877848	-0.228132
O	-0.5030725506	-0.0706065712	-0.5121210513	-0.238419
C	-0.9198594583	-0.6483482555	 0.7054812583	-0.073491
C	-0.9775543337	-2.1405695429	 0.5063895272	-0.076268
C	-1.8682661641	-2.9991631982	 1.3414457731	 0.075178
O	-2.6297688673	-2.3581226579	 2.3079746429	-0.402108
C	-2.2045749839	-2.7914825473	-0.1400566279	-0.234889
C	-3.3571315341	-2.0054388181	-0.4662500529	 0.296791
N	-4.3113768791	-1.3975346544	-0.7099209687	-0.346293
H	-0.1265883973	 1.6897652079	-1.4360497962	 0.129532
H	-1.4361975537	 1.7707519376	-0.2268497658	 0.115191
H	 0.2653896135	 1.6881729064	 0.3050591097	 0.102621
H	-0.205273094	-0.4140253585	 1.5130739077	 0.095665
H	-1.899060704	-0.2594718137	 1.0156705267	 0.121461
H	-0.035070094	-2.5808965898	 0.196557854	 0.114703
H	-1.5144766372	-3.9944037673	 1.6091510354	 0.108328
H	-3.523470466	-2.7189536023	 2.2946039496	 0.304761
H	-2.0256331	-3.6228441645	-0.8133208372	 0.135368
40.5382	84.2368	115.058	123.6755	168.7584	228.1668	263.5604	280.946	336.8869	393.2507	453.4475	562.5426	617.2606	663.8243	766.567	802.4707	917.1032	953.8264	989.3411	1015.9529	1053.7149	1122.2541	1125.8481	1160.487	1175.1686	1193.7538	1230.3679	1236.2663	1259.8941	1308.1585	1347.8508	1371.741	1427.5114	1459.037	1482.7422	1485.7716	1503.0278	1524.7383	2350.6748	2960.1918	2974.2096	3020.4589	3033.4124	3106.6841	3118.6711	3163.5197	3174.2161	3800.9482
COCC1C(O)C1C#N	COC[C@H]1[C@@H](O)[C@H]1C#N	
InChI=1S/C6H9NO2/c1-9-3-5-4(2-7)6(5)8/h4-6,8H,3H2,1H3	InChI=1S/C6H9NO2/c1-9-3-5-4(2-7)6(5)8/h4-6,8H,3H2,1H3/t4-,5+,6-/m0/s1
