19
gdb 89265	2.50033	1.82915	1.3448	1.089	75.04	-0.1956	0.0659	0.2615	1005.6723	0.159127	-419.111635	-419.10357	-419.102626	-419.143642	32.141	
C	-0.3611558151	 1.4439015768	-0.0945171784	-0.324004
N	 0.1479670881	 0.0913991276	-0.0252316457	-0.06146
C	 1.2577741503	-0.3560198473	-0.8994347384	-0.254985
C	 1.8908204701	-1.0890806527	 0.3178249229	 0.422371
O	 2.1947117809	-2.4446830273	 0.2597803244	-0.492712
C	 2.9320914233	-0.3057339965	 1.1488541621	-0.096804
N	 2.6368337306	 1.1326678158	 0.9899127265	-0.333963
C	 1.8602372125	 0.3310092095	 1.9688035104	-0.066466
C	 0.7589792407	-0.4545790822	 1.1900697283	-0.09661
H	 0.4138833977	 2.2133636204	 0.0399235483	 0.117779
H	-0.8459530621	 1.6042265575	-1.0644103551	 0.112919
H	-1.1254304693	 1.5807470866	 0.6788812332	 0.110495
H	 0.9273037382	-1.025157261	-1.7072355624	 0.078359
H	 1.8753470881	 0.4452219879	-1.3203812633	 0.11124
H	 1.4379266193	-2.9075704429	-0.1158541816	 0.285326
H	 3.9192868278	-0.6609574227	 1.4175240427	 0.097779
H	 3.3421312937	 1.6465488095	 1.5166591131	 0.232881
H	 1.8563906789	 0.6014423551	 3.018342905	 0.090358
H	 0.1033326261	-1.0442854541	 1.839430508	 0.067499
145.1189	180.2743	235.2201	248.7108	298.2236	312.3221	350.5275	396.3582	499.1103	559.9823	617.0909	673.9698	772.0026	796.4531	833.6187	880.5127	904.701	938.7972	956.7423	988.312	1016.9394	1035.1166	1071.9081	1081.3905	1097.7017	1122.0009	1142.2103	1158.3198	1222.6239	1226.1779	1256.4247	1282.7503	1297.7483	1322.2716	1332.2144	1367.8874	1408.7914	1445.256	1477.0985	1499.0168	1514.2901	2985.4335	2992.1834	3049.9581	3055.0015	3060.264	3085.1407	3174.4049	3196.0414	3476.7233	3807.5564
CN1CC2(O)C3NC3C12	CN1C[C@@]2(O)[C@H]3N[C@H]3[C@@H]12	
InChI=1S/C6H10N2O/c1-8-2-6(9)4-3(7-4)5(6)8/h3-5,7,9H,2H2,1H3	InChI=1S/C6H10N2O/c1-8-2-6(9)4-3(7-4)5(6)8/h3-5,7,9H,2H2,1H3/t3-,4+,5-,6-/m1/s1
