17
gdb 63871	2.27214	1.66319	1.29465	4.5603	73.47	-0.2616	-0.0052	0.2563	1036.9458	0.134854	-417.973513	-417.964976	-417.964032	-418.006262	32.549	
C	-0.0378656217	 1.5995643611	-0.0789607477	-0.459276
C	 0.0558453311	 0.0833781268	-0.0153071093	 0.31933
O	-1.1859070257	-0.525175714	-0.2918640004	-0.451213
C	 1.1302682892	-0.6690771836	-0.841411588	-0.198528
N	 1.6831203457	-1.3808718815	 0.3696379498	-0.14543
C	 2.1996140781	-0.3292050199	 1.248460094	-0.281335
C	 0.7323194835	-0.5520292602	 1.2300938458	 0.146692
C	-0.0170952733	-1.0733215652	 2.3314316003	 0.210164
N	-0.6758681055	-1.4349427274	 3.211580839	-0.343096
H	 0.9268011572	 2.0805949693	 0.10265037	 0.121833
H	-0.397809022	 1.9046311807	-1.0660418285	 0.137737
H	-0.7448650012	 1.9718180934	 0.67186721	 0.124974
H	-1.8287549411	-0.2285350412	 0.3636554645	 0.291968
H	 0.6740855998	-1.384066104	-1.5251389149	 0.141579
H	 1.8757895076	-0.0622346578	-1.363276003	 0.111486
H	 2.7447079591	-0.713200904	 2.1048919911	 0.149206
H	 2.6059103392	 0.5827245375	 0.8162727372	 0.12391
113.8103	131.4494	198.7789	226.7474	282.906	313.4967	373.3329	386.2204	450.9617	476.5861	521.7698	588.1511	619.4485	652.7171	781.5764	857.447	886.1861	904.3595	957.0679	973.8988	1005.5397	1105.1166	1117.7215	1136.26	1140.3213	1193.025	1232.2506	1252.0211	1300.7018	1337.057	1380.272	1410.2202	1480.21	1486.8466	1492.8825	1505.9973	2344.7249	3033.1581	3064.3676	3102.4423	3108.2666	3123.0933	3149.1581	3206.1344	3789.5339
CC1(O)CN2CC12C#N	C[C@@]1(O)CN2C[C@@]12C#N	
InChI=1S/C6H8N2O/c1-5(9)3-8-4-6(5,8)2-7/h9H,3-4H2,1H3	InChI=1S/C6H8N2O/c1-5(9)3-8-4-6(5,8)2-7/h9H,3-4H2,1H3/t5-,6+,8?/m1/s1
