16
gdb 23459	3.31763	1.34024	1.0324	1.9854	77.28	-0.2303	-0.0379	0.1923	1123.2477	0.125195	-437.843359	-437.835907	-437.834963	-437.875297	29.018	
O	-0.0399336376	 1.3205744334	-0.3259547682	-0.387796
N	 0.01766553	-0.0719852155	-0.2487406644	-0.217124
C	-1.1075633974	-0.5910529878	 0.0992904774	 0.374814
C	-2.3506150849	 0.1212369824	 0.372106689	-0.13171
C	-3.4006666748	-0.48117729	 0.9436925339	-0.063628
C	-3.4203881084	-1.9152813127	 1.3910451503	-0.310704
C	-2.2505013298	-2.7302598555	 0.884184638	 0.046333
O	-2.0891637557	-2.7803624042	-0.5303253638	-0.254074
C	-1.1015825334	-2.0696982389	 0.2392841445	-0.04105
H	 0.8494726171	 1.5452620537	-0.6187839837	 0.3108
H	-2.3886489764	 1.1688239805	 0.1024327549	 0.119775
H	-4.3069744389	 0.0909492439	 1.1247857745	 0.104202
H	-3.4333200583	-1.9556774124	 2.4902760664	 0.124456
H	-4.3570928234	-2.3932656157	 1.0719183441	 0.128779
H	-2.0823869252	-3.6817858156	 1.3894580167	 0.095364
H	-0.1169335629	-2.5300891256	 0.2570161805	 0.101562
91.6382	197.7248	243.9385	316.3911	341.3596	397.1783	438.5815	445.8991	546.8757	599.2436	658.8476	765.1571	785.4698	819.9818	876.5636	905.0783	934.7655	956.4667	1006.4033	1011.5054	1030.6995	1076.6854	1138.5459	1192.4653	1232.8502	1275.619	1304.6907	1350.0162	1372.8552	1405.963	1432.6828	1455.2419	1466.2641	1678.2475	1705.3503	3005.1186	3031.3898	3105.3777	3151.2434	3161.7469	3220.5446	3821.5422
ON=C1C=CCC2OC12	ON=C1C=CC[C@H]2O[C@@H]12	
InChI=1S/C6H7NO2/c8-7-4-2-1-3-5-6(4)9-5/h1-2,5-6,8H,3H2	InChI=1S/C6H7NO2/c8-7-4-2-1-3-5-6(4)9-5/h1-2,5-6,8H,3H2/t5-,6+/m1/s1
