21
gdb 76901	2.23259	1.7943	1.41247	2.0727	76.33	-0.2487	0.064	0.3127	1034.5641	0.1844	-424.222838	-424.214565	-424.213621	-424.255582	32.564	
C	-0.7219267997	 1.332347262	-0.1236571458	-0.407213
C	-0.0970811648	-0.0526030427	-0.0388476271	-0.017945
C	 1.1227311873	-0.3621742594	-0.9739389036	 0.103721
O	 1.6699818301	 0.7297854767	-1.6703555803	-0.43811
C	 1.9624536561	-0.7811525817	 0.2787120687	 0.064486
O	 3.0244854286	 0.1200643919	 0.5593350512	-0.276109
C	 2.5294342447	 1.2096553389	 1.3538544501	-0.09492
C	 1.3171637423	 0.6665741065	 2.1235427779	-0.23931
C	 0.7684119726	-0.4414504947	 1.2121843967	-0.0611
H	 0.0248197826	 2.1273157317	-0.0556686249	 0.122701
H	-1.2371506718	 1.4597441345	-1.0808839919	 0.122302
H	-1.4573427882	 1.4805478693	 0.6746628382	 0.107853
H	-0.8794240711	-0.803238725	-0.1910309492	 0.069364
H	 0.9280579577	-1.1846608059	-1.6737573614	 0.065022
H	 2.5510334259	 0.8614719947	-1.2913100529	 0.294164
H	 2.3716062492	-1.793684298	 0.2756401885	 0.077599
H	 3.3466232796	 1.540373237	 2.0006861979	 0.112226
H	 2.2424570161	 2.0458723754	 0.7029136105	 0.105652
H	 1.6372857692	 0.2318518367	 3.0752349113	 0.107792
H	 0.5870407461	 1.4496959123	 2.3428113653	 0.110378
H	 0.3582207375	-1.27058464	 1.7907403408	 0.071448
69.6862	184.8316	192.5929	230.6791	241.8913	290.4443	435.5924	470.1114	518.1807	558.6662	632.43	677.0062	741.554	801.8208	836.9475	877.439	879.8667	914.8784	949.6602	969.4404	999.9624	1019.544	1060.9121	1108.1969	1115.9035	1149.942	1168.6819	1175.812	1218.3792	1225.7237	1259.2996	1268.7439	1277.3596	1318.0656	1325.3688	1337.9579	1365.7603	1369.0026	1391.5167	1410.982	1416.8715	1481.6321	1493.6921	1498.2161	1524.6186	3012.8879	3015.8032	3036.2972	3047.9007	3056.0528	3081.626	3089.0125	3097.3755	3099.308	3110.0785	3118.9283	3721.1731
CC1C(O)C2OCCC12	C[C@H]1[C@@H](O)[C@H]2OCC[C@@H]12	
InChI=1S/C7H12O2/c1-4-5-2-3-9-7(5)6(4)8/h4-8H,2-3H2,1H3	InChI=1S/C7H12O2/c1-4-5-2-3-9-7(5)6(4)8/h4-8H,2-3H2,1H3/t4-,5+,6-,7+/m1/s1
