13
gdb 28862	3.19852	1.52682	1.1849	1.9554	70.16	-0.2564	-0.0805	0.1758	989.1897	0.091581	-448.947555	-448.940579	-448.939634	-448.979252	26.079	
O	-0.1702366911	 1.0504784588	-0.6382562287	-0.358188
C	 0.0254107149	-0.1351337246	-0.0649071185	 0.471903
N	 1.2347489347	-0.5992008477	 0.006738452	-0.355644
C	 1.5029930131	-1.8742185142	 0.4280643354	 0.07235
N	 0.790289874	-2.9472438607	 0.3674758438	-0.265259
C	-0.5290958913	-2.9294901946	-0.0845834522	 0.287272
N	-1.0773954078	-3.7758277914	-0.8582779732	-0.493509
C	-1.3788430623	-1.8716918341	 0.5392700032	 0.013707
N	-1.1304822162	-0.6183288259	 0.50599405	-0.209019
H	 0.6930322929	 1.3412718706	-0.9685210616	 0.315789
H	 2.5152273597	-1.9922687791	 0.81470249	 0.132516
H	-0.3755476924	-4.4419317534	-1.1940577624	 0.230524
H	-2.2744090182	-2.1962977838	 1.0707983722	 0.157558
80.1131	176.5112	287.9684	328.497	368.3136	402.2607	486.4837	564.8637	604.7966	632.9518	750.8826	786.8349	819.126	865.8733	904.0535	940.0453	981.8457	1012.4986	1057.204	1136.1071	1307.1725	1341.7206	1373.3254	1437.1457	1448.6803	1567.3431	1646.433	1696.4711	1730.1577	3130.3111	3136.886	3439.4945	3757.1938
OC1=NC=NC(=N)C=N1	O[C]1[N]C=N[C]([NH])C=N1	
InChI=1S/C4H4N4O/c5-3-1-6-4(9)8-2-7-3/h1-2H,(H2,5,7,8,9)	InChI=1S/C4H4N4O/c5-3-1-6-4(9)8-2-7-3/h1-2H,(H2,5,7,8,9)
