15
gdb 126123	4.53314	0.9928	0.8226	0.7286	69.11	-0.2668	-0.0649	0.2019	1331.5008	0.110686	-453.946604	-453.938111	-453.937167	-453.980774	29.591	
C	-0.0567334945	 1.5106696335	 0.0872415008	-0.385061
C	 0.0274273882	-0.0073854966	-0.0428429765	-0.28815
C	 0.7470180821	-0.4576926941	-1.2988368787	 0.290078
O	 1.2100888859	 0.3095176453	-2.1183052203	-0.320041
C	 0.8784584979	-1.9153607255	-1.5140003939	 0.17228
C	 1.474831663	-2.5771261153	-2.5516549893	 0.004746
O	 1.3775702433	-3.8743269375	-2.3686588448	-0.163886
N	 0.6530015068	-4.0405561513	-1.0971272552	-0.000871
N	 0.4020707456	-2.8984457151	-0.6690613247	-0.165279
H	 0.9402896381	 1.957722337	 0.110580321	 0.133278
H	-0.5887634992	 1.9476988738	-0.7615312049	 0.133258
H	-0.5821294624	 1.7866642663	 1.0051983799	 0.114995
H	 0.5390771766	-0.4608935801	 0.8166480057	 0.138409
H	-0.9682337818	-0.4708565287	-0.0431729434	 0.138408
H	 1.9770528205	-2.2173475716	-3.4351733557	 0.197835
55.9259	76.5136	136.8095	170.8463	217.6207	276.879	361.2571	464.6594	495.9927	545.0884	639.1641	708.2891	715.4521	812.0049	913.3412	935.1608	974.8897	1008.3231	1059.0514	1090.995	1116.1493	1161.2366	1273.5409	1275.2587	1344.5333	1385.1429	1414.6956	1443.5533	1491.4156	1497.4085	1502.4694	1567.3234	1778.7135	3028.9319	3053.4131	3053.7345	3126.0747	3127.6461	3286.2373
CCC(=O)C1=CON=N1	CCC(=O)c1conn1	
InChI=1S/C5H6N2O2/c1-2-5(8)4-3-9-7-6-4/h3H,2H2,1H3	InChI=1S/C5H6N2O2/c1-2-5(8)4-3-9-7-6-4/h3H,2H2,1H3
