19
gdb 96291	2.22841	1.55662	0.99278	4.3851	71.67	-0.2618	0.0092	0.271	1196.6451	0.160238	-460.202864	-460.194471	-460.193526	-460.23601	31.691	
C	-0.0883021012	 1.5000243402	 0.0076865004	-0.404405
C	 0.0454769217	-0.0269986517	-0.0561874431	 0.001821
C	 0.8006671557	-0.4222859852	-1.3285679653	-0.080047
O	 0.9242476459	-1.8250457674	-1.5225964263	-0.226915
C	 1.7414364142	-2.4794509055	-0.6153286126	 0.019366
O	 1.0613838985	-2.9288794421	 0.5562876355	-0.219141
C	 0.5616825611	-2.0524990634	 1.4696276404	 0.410887
O	-0.0049609176	-2.4885343543	 2.4334125311	-0.314828
C	 0.7383784242	-0.5616278871	 1.21749564	-0.353054
H	 0.8938026048	 1.9808521964	 0.0866825368	 0.11979
H	-0.5814660481	 1.8913175791	-0.8879580284	 0.121752
H	-0.6788288554	 1.8049630716	 0.8761431877	 0.128788
H	-0.95849521	-0.4660581424	-0.1118343535	 0.103631
H	 0.272435529	-0.0526712218	-2.2118796176	 0.118844
H	 1.8022892109	 0.0397390231	-1.3188164077	 0.093311
H	 2.0826747315	-3.4019323168	-1.0873609779	 0.133323
H	 2.6050838414	-1.8586343249	-0.3329413699	 0.095747
H	 1.808553844	-0.3139743521	 1.1838491583	 0.117457
H	 0.3229393095	-0.0738487758	 2.100848882	 0.133673
81.4261	133.3791	197.2667	216.8819	284.4163	328.0178	355.7562	415.7142	430.1123	489.7038	551.3382	619.4408	715.9261	816.3933	863.3951	899.3666	944.2152	958.0278	993.4775	1050.7949	1065.9204	1111.1763	1124.6268	1153.4986	1170.4605	1223.776	1277.8968	1301.4375	1308.5074	1338.6967	1343.2504	1379.2673	1406.6689	1421.6686	1454.1348	1473.8898	1491.4016	1497.9813	1500.2188	1513.7743	1846.3308	2967.9399	2990.0837	3018.5078	3029.8085	3039.0904	3089.6922	3099.0004	3111.4282	3117.7364	3123.3381
CC1COCOC(=O)C1	C[C@H]1COCOC(=O)C1	
InChI=1S/C6H10O3/c1-5-2-6(7)9-4-8-3-5/h5H,2-4H2,1H3	InChI=1S/C6H10O3/c1-5-2-6(7)9-4-8-3-5/h5H,2-4H2,1H3/t5-/m1/s1
