16
gdb 21080	3.47102	1.81584	1.21029	3.6966	67.37	-0.2274	0.029	0.2564	961.4718	0.131189	-379.932574	-379.92437	-379.923426	-379.966307	28.314	
C	-0.0224806952	 1.397770741	 0.0190544868	-0.331222
N	-0.0077082314	-0.0476446967	 0.0432365524	-0.021826
N	-0.0292584405	-0.7369800341	-1.1214076009	-0.271214
C	-0.0067661791	-2.0143272892	-0.7538037156	-0.010128
C	 0.0294890832	-2.1606476602	 0.6471790008	-0.289979
C	 0.0278776231	-0.8672808263	 1.1285875991	 0.36921
C	 0.0572728051	-0.3478196717	 2.5310234486	-0.191411
O	 0.0899911678	-1.4586771588	 3.4054378407	-0.407631
H	 0.8777806849	 1.812012629	 0.4863922066	 0.134967
H	-0.0554556259	 1.7014811514	-1.0264556638	 0.164366
H	-0.9024411182	 1.7943743024	 0.5374842186	 0.134937
H	-0.0175333733	-2.7856860457	-1.5100929368	 0.107115
H	 0.0534294016	-3.0611320839	 1.2366258797	 0.114626
H	 0.9388006354	 0.3020258035	 2.6734758402	 0.102433
H	-0.8290309802	 0.2842727074	 2.7170855697	 0.102423
H	 0.1095281227	-1.1279225882	 4.307820294	 0.293332
40.5687	65.7459	184.7716	199.176	210.0467	258.4497	320.9784	503.9528	640.1876	641.8704	665.5527	774.5782	806.1061	887.4137	950.1348	1018.4603	1045.7807	1057.7545	1094.924	1149.7831	1174.9589	1220.5403	1239.9858	1247.5332	1322.9641	1365.0971	1422.4028	1453.4277	1463.1257	1486.1774	1502.5609	1515.6173	1523.4666	1591.9736	2939.162	2952.0352	3029.4831	3083.4778	3165.1191	3242.2379	3287.9741	3839.6934
CN1N=CC=C1CO	Cn1nccc1CO	
InChI=1S/C5H8N2O/c1-7-5(4-8)2-3-6-7/h2-3,8H,4H2,1H3	InChI=1S/C5H8N2O/c1-7-5(4-8)2-3-6-7/h2-3,8H,4H2,1H3
