17
gdb 75312	2.47025	1.67826	1.15347	1.814	80.95	-0.2394	-0.0042	0.2352	1083.7681	0.134173	-384.651449	-384.643128	-384.642184	-384.683993	32.107	
C	-0.0651877071	 1.4980896348	 0.0453293323	-0.50669
C	-0.0380290691	 0.0062690623	-0.0285757444	 0.249201
C	 0.0722773462	-0.7732015166	-1.1094276391	-0.176241
C	 0.0569244547	-2.2515436671	-0.7851315841	-0.297482
C	-0.0025884645	-2.2673036168	 0.7359021251	-0.035054
O	 1.1103497059	-1.6566733582	 1.3810565121	-0.298884
C	-0.0996893967	-0.8630286542	 1.203815516	 0.204786
C	-0.7688434278	-0.4360275832	 2.396989926	 0.218167
C	-1.3415701271	-0.0374948844	 3.3761871064	-0.398
H	 0.7934672226	 1.8810968134	 0.6102621165	 0.137938
H	-0.0469238248	 1.9443239855	-0.9521419316	 0.124138
H	-0.962995026	 1.849563962	 0.5665183787	 0.1377
H	 0.2030170091	-0.4036464776	-2.1208004939	 0.097596
H	-0.8125535506	-2.762653618	-1.2180377306	 0.115614
H	 0.9497320838	-2.7709056962	-1.1546163078	 0.12749
H	-0.4593866257	-3.0924091176	 1.2754424139	 0.106311
H	-1.8429362029	 0.3017965519	 4.2487681146	 0.193411
122.4405	138.6885	180.2825	211.1715	290.4251	316.7396	380.9155	487.0341	533.3804	545.7811	611.1675	621.7016	626.8468	665.3606	741.0698	809.4112	834.6783	880.0389	943.5417	962.2944	994.3578	1033.9446	1068.1363	1071.643	1122.7325	1186.1785	1228.0006	1287.1572	1314.9873	1330.4532	1404.9134	1416.4596	1461.7194	1476.3519	1488.4833	1706.786	2240.3861	3026.8797	3027.1441	3061.0151	3077.9209	3118.4357	3155.3624	3191.1103	3501.5299
CC1=CCC2OC12C#C	CC1=CC[C@H]2O[C@@]12C#C	
InChI=1S/C8H8O/c1-3-8-6(2)4-5-7(8)9-8/h1,4,7H,5H2,2H3	InChI=1S/C8H8O/c1-3-8-6(2)4-5-7(8)9-8/h1,4,7H,5H2,2H3/t7-,8+/m1/s1
