18
gdb 94953	3.54501	1.34283	1.15526	4.5204	71.42	-0.2349	0.0209	0.2558	1088.2894	0.148966	-439.111961	-439.104021	-439.103076	-439.144553	30.293	
C	 0.4310937421	 1.5209316623	-0.096879883	-0.402588
C	-0.0999025993	 0.0966397477	 0.0994330957	-0.0129
C	 0.4019501771	-0.8660349568	-1.0017947624	-0.106626
O	 1.7051675259	-1.2779492128	-0.5814328114	-0.248779
C	 1.6478146631	-1.4505834433	 0.8090407548	-0.042875
C	 0.492788927	-0.5481409821	 1.3644366502	-0.004546
N	-0.1471956943	-1.7796657596	 1.8358559357	-0.331407
C	 0.789615715	-2.6580603842	 1.3371260915	 0.387394
O	 0.8622773629	-3.8554383557	 1.3258525772	-0.355091
H	 1.5227075136	 1.5194634789	-0.1816056276	 0.13475
H	 0.0256930086	 1.967090444	-1.0099896749	 0.11997
H	 0.1576825541	 2.1672919304	 0.7433942588	 0.116184
H	-1.1941222905	 0.1038925625	 0.1382726227	 0.078706
H	-0.2621968742	-1.7363079318	-1.0981610032	 0.109711
H	 0.5049684294	-0.3956058583	-1.9823231857	 0.114144
H	 2.6494294997	-1.3668409931	 1.2315551252	 0.109474
H	 0.7283208015	 0.1652310128	 2.1580242541	 0.085904
H	-1.0392832618	-1.9424458608	 2.2804781423	 0.248574
76.5951	132.8502	216.244	261.9815	273.7091	335.5826	399.3291	450.3485	498.1651	652.3064	689.8432	738.8691	801.9153	830.6067	857.7345	915.7678	930.6787	970.0363	974.6844	1021.6373	1039.3382	1103.4881	1136.1232	1141.6409	1169.5091	1172.4649	1229.2323	1257.7797	1290.1717	1316.5147	1333.0877	1364.3307	1377.0401	1389.5456	1411.2158	1495.0823	1501.1164	1513.6591	1896.7862	3008.805	3034.9671	3057.6361	3078.7041	3102.692	3106.3876	3109.9764	3120.5134	3601.9367
CC1COC2C1NC2=O	C[C@H]1CO[C@H]2[C@@H]1NC2=O	
InChI=1S/C6H9NO2/c1-3-2-9-5-4(3)7-6(5)8/h3-5H,2H2,1H3,(H,7,8)	InChI=1S/C6H9NO2/c1-3-2-9-5-4(3)7-6(5)8/h3-5H,2H2,1H3,(H,7,8)/t3-,4+,5-/m0/s1
