23
gdb 88153	2.38074	1.38561	1.09389	1.2992	85.55	-0.2447	0.0906	0.3353	1244.5264	0.205937	-388.292794	-388.283495	-388.282551	-388.327038	35.826	
C	 0.0096285051	 1.6164435238	-0.0158657352	-0.410378
C	-0.0072561598	 0.1056866873	 0.064175801	-0.038645
C	 1.2458178961	-0.6997455276	-0.1865256411	-0.345647
C	 0.6591632199	-0.6348969628	 1.2008893702	 0.316656
C	 1.360407936	 0.1048079548	 2.3453728194	-0.302994
C	 1.3535356376	-0.947866868	 3.4626452214	-0.086333
O	 0.1658158698	-1.6926646397	 3.2544494539	-0.259466
C	 0.049675185	-1.9009329266	 1.848266683	 0.081105
C	-1.4032812531	-2.2143983739	 1.5335362133	-0.408633
H	 0.9630745481	 2.0279521149	 0.3294779008	 0.115954
H	-0.140047955	 1.953421454	-1.0475292241	 0.116622
H	-0.7839104605	 2.0605531166	 0.596095792	 0.117297
H	-0.9250675953	-0.3402466998	-0.3100153461	 0.080774
H	 1.1577511213	-1.6334328259	-0.735731857	 0.104265
H	 2.1696193709	-0.1603893893	-0.3768013766	 0.103331
H	 2.3698946726	 0.4397979789	 2.0917689058	 0.098709
H	 0.7831251244	 0.9822448737	 2.655973189	 0.107076
H	 2.2402942654	-1.5998998328	 3.3884128921	 0.085663
H	 1.3181865966	-0.5281499679	 4.4711860398	 0.105006
H	 0.674050935	-2.7679413703	 1.5659123889	 0.06082
H	-2.0445389758	-1.3619132411	 1.7747964098	 0.121321
H	-1.5319391849	-2.4639237062	 0.4757205702	 0.113854
H	-1.7312639096	-3.0736683122	 2.1250755194	 0.123643
36.3626	155.6035	182.6888	209.1461	223.5981	258.1412	270.5481	381.2866	414.7513	431.8288	506.8867	530.9834	639.9699	706.7337	790.4877	860.6429	881.9785	883.2129	910.7268	926.0786	967.9931	1003.5525	1026.4867	1055.7261	1075.7332	1104.5966	1126.5822	1131.1314	1136.9137	1140.7058	1189.6877	1211.4141	1246.7755	1260.1099	1299.9988	1329.5428	1342.2692	1380.7289	1395.9791	1407.2885	1413.4029	1426.0934	1485.8141	1487.2566	1489.1137	1494.7008	1497.7272	1506.2091	1517.3226	2928.2808	2961.3386	3026.4764	3041.0628	3042.503	3085.4277	3088.4794	3096.6757	3099.5623	3107.6759	3112.9146	3121.2013	3140.6764	3191.1406	36.3618	155.6037	182.6895	209.1468	223.598	258.1415	270.5481	381.2866	414.7514	431.8289	506.8869	530.9836	639.97	706.7336	790.4877	860.6428	881.9785	883.2129	910.7268	926.0785	967.993	1003.5525	1026.4867	1055.7258	1075.7333	1104.5967	1126.5821	1131.1313	1136.9138	1140.7059	1189.6874	1211.4141	1246.7755	1260.1099	1299.9987	1329.5431	1342.2697	1380.7294	1395.9792	1407.2883	1413.403	1426.0933	1485.8143	1487.2563	1489.1133	1494.7003	1497.7272	1506.2087	1517.3224	2928.2808	2961.3386	3026.4764	3041.0627	3042.503	3085.4277	3088.4794	3096.6757	3099.5623	3107.6759	3112.9146	3121.2013	3140.6764	3191.1406
CC1CC11CCOC1C	C[C@H]1C[C@]21CCO[C@H]2C	
InChI=1S/C8H14O/c1-6-5-8(6)3-4-9-7(8)2/h6-7H,3-5H2,1-2H3	InChI=1S/C8H14O/c1-6-5-8(6)3-4-9-7(8)2/h6-7H,3-5H2,1-2H3/t6-,7-,8-/m0/s1
