14
gdb 48013	4.13139	0.73141	0.65911	2.8122	75.63	-0.2733	-0.0702	0.2031	1609.6813	0.099534	-436.651273	-436.64262	-436.641675	-436.686708	29.173	
N	 0.3540698023	 1.2018157141	-0.0072871171	-0.529215
C	 0.1514212783	-0.0257253631	 0.0905234504	 0.448016
O	 0.9936667304	-1.0783530267	 0.3669521473	-0.24338
C	-0.0982481697	-2.0447939421	 0.3376968597	-0.089302
C	-1.0911871508	-0.9152141183	-0.054265181	-0.32771
C	-2.2189351071	-0.6488639913	 0.8059563532	 0.157155
C	-3.1565035013	-0.4471192005	 1.5395430338	 0.005186
C	-4.2757110557	-0.1641635246	 2.4034383018	 0.024106
O	-4.7676094147	-0.9644964024	 3.1648327236	-0.225135
H	 1.3331114577	 1.4424293588	 0.1539353119	 0.239902
H	 0.0746062602	-2.8156415285	-0.4153225069	 0.134688
H	-0.2634816287	-2.4849868921	 1.3222586609	 0.144526
H	-1.4134314018	-0.9756650438	-1.0986764425	 0.153091
H	-4.6633799791	 0.8704946904	 2.3164098247	 0.108072
31.1428	70.2589	90.3502	146.8937	192.7479	263.617	397.8577	438.6035	468.9342	570.056	682.6447	721.6928	806.2588	863.4062	928.8331	942.8301	979.5335	1006.6149	1021.428	1060.413	1156.4997	1179.8852	1185.1578	1216.627	1325.5118	1363.3607	1420.6456	1513.9131	1768.4413	1833.8742	2333.0611	2929.3009	3067.8554	3078.7757	3146.0377	3487.4711
N=C1OCC1C#CC=O	[NH][C]1OC[C@H]1C#CC=O	
InChI=1S/C6H5NO2/c7-6-5(4-9-6)2-1-3-8/h3,5,7H,4H2	InChI=1S/C6H5NO2/c7-6-5(4-9-6)2-1-3-8/h3,5,7H,4H2/t5-/m1/s1
