16
gdb 27801	2.1134	1.79461	0.97677	6.6237	80.19	-0.2076	-0.0324	0.1752	1165.2939	0.124259	-434.116257	-434.107715	-434.10677	-434.149572	31.952	
C	-0.0315545732	 1.5025914492	-0.0208001178	-0.477218
C	 0.0046625384	-0.0014917621	-0.0124670302	 0.334961
N	-0.0320189982	-0.6077171759	-1.169716045	-0.341228
C	-0.0015380011	-1.9699065675	-1.2223296009	 0.421519
N	-0.0256203763	-2.6536499565	-2.2861960709	-0.528131
O	 0.0581226808	-2.699861024	 0.0285071645	-0.266494
C	 0.1028769229	-2.0462612902	 1.1894553252	 0.476308
N	 0.2145737139	-2.8896375269	 2.2496998242	-0.56588
C	 0.0748302889	-0.6818565764	 1.2366024312	-0.324248
H	 0.8656316094	 1.9102159393	 0.4589069825	 0.13498
H	-0.0916846598	 1.8675053236	-1.0459368007	 0.150173
H	-0.8933032979	 1.8695049453	 0.548315853	 0.133452
H	 0.0081314778	-3.6488211383	-2.07286071	 0.218235
H	-0.0172613768	-3.8565347005	 2.0871461041	 0.272026
H	 0.0151784412	-2.5258066104	 3.1662932754	 0.271982
H	 0.1099985198	-0.1534075588	 2.1787715754	 0.089563
85.939	97.8385	165.4068	212.5699	293.6413	336.5423	381.7708	416.4061	506.0851	532.9124	551.0195	593.0568	634.454	705.1237	753.0239	767.5511	801.6392	824.5173	961.3141	977.9653	1032.4329	1053.3171	1082.5682	1105.0726	1203.5628	1246.4873	1388.7905	1422.7986	1462.2916	1470.0807	1480.9688	1568.972	1637.4987	1683.6595	1759.7319	3035.1626	3089.2454	3157.0549	3223.2633	3516.5995	3601.7488	3723.3398
CC1=NC(=N)OC(N)=C1	CC1=C[C@@H](OC(=N1)[NH])N	
InChI=1S/C5H7N3O/c1-3-2-4(6)9-5(7)8-3/h2,7H,6H2,1H3	InChI=1S/C5H8N3O/c1-3-2-4(6)9-5(7)8-3/h2,4,7H,6H2,1H3/t4-/m1/s1
