16
gdb 19948	3.93447	1.48364	1.14113	1.463	65.52	-0.245	-0.0268	0.2182	1018.5429	0.129404	-383.72116	-383.713566	-383.712621	-383.754056	27.319	
O	-0.1505972056	-0.0395077857	 0.1868424909	-0.289509
C	-0.1308257707	 1.1554704795	 0.1499208939	 0.381306
C	-1.1965361692	 2.2532120116	 0.2893326927	-0.339474
C	-0.0363157948	 3.2608312905	 0.5508457488	-0.256235
C	 1.0138736058	 2.1973227865	 0.0907856948	-0.116718
C	 2.240873592	 1.9395661366	 0.9167207669	 0.0889
C	 3.4237597777	 1.2713228986	 0.3622667708	-0.17554
O	 3.4184602392	 2.6825577631	 0.5851738462	-0.240414
H	-1.7211939764	 2.4261109749	-0.6561833006	 0.135764
H	-1.9410753986	 2.101161441	 1.0745200823	 0.132589
H	-0.0575872995	 4.1870388229	-0.0230550892	 0.117771
H	 0.0693297415	 3.5048618449	 1.6107664741	 0.117937
H	 1.3090524557	 2.3573479593	-0.9530023667	 0.10991
H	 2.0658721518	 1.8476923698	 1.9901345408	 0.095744
H	 4.0727249887	 0.6935010855	 1.0180623109	 0.120245
H	 3.4237917423	 0.9612923511	-0.6816522666	 0.117723
55.3917	82.5517	136.8488	241.5053	321.6549	402.8678	447.3347	565.3032	676.7731	717.7425	773.8247	855.9418	879.2376	916.0653	936.9035	969.1675	1006.9175	1051.1581	1081.9874	1100.784	1152.0781	1162.0803	1185.2261	1196.2038	1216.3265	1230.2364	1256.2563	1288.9683	1301.1148	1437.635	1446.9865	1492.2527	1529.8496	1889.3674	3047.9518	3059.0368	3076.9034	3087.1842	3096.2649	3114.4372	3140.6838	3174.8987
O=C1CCC1C1CO1	O=C1CC[C@H]1[C@H]1CO1	
InChI=1S/C6H8O2/c7-5-2-1-4(5)6-3-8-6/h4,6H,1-3H2	InChI=1S/C6H8O2/c7-5-2-1-4(5)6-3-8-6/h4,6H,1-3H2/t4-,6-/m1/s1
