18
gdb 12120	3.01228	1.90523	1.60242	1.5307	67.02	-0.2549	0.0687	0.3236	891.1308	0.151374	-384.904672	-384.896246	-384.895302	-384.937141	32.05	
C	-0.0790617265	 1.3982879144	-0.6792412613	-0.483587
C	-0.0845737662	 0.0083995978	-0.0813538766	 0.372234
C	 1.1249189196	-0.8237049627	-0.1388787981	-0.222735
O	 0.7419040061	-0.1641620537	 1.0761496076	-0.275706
C	-1.4380540841	-0.6581117815	 0.0045475878	 0.325705
O	-2.05074156	-0.8409567168	-1.248172314	-0.463998
C	-1.6816255845	-1.7445230458	 1.0025171104	-0.30259
C	-2.3228086248	-0.3831160176	 1.1945598349	-0.328074
H	 0.9294059335	 1.8178847842	-0.6678706288	 0.1298
H	-0.4307644989	 1.373412239	-1.7156805638	 0.12298
H	-0.734866485	 2.0650633669	-0.1086664257	 0.125222
H	 1.0312333949	-1.9079349389	-0.1286867043	 0.118094
H	 2.0263363074	-0.434851346	-0.6102285689	 0.112115
H	-2.4643652545	-0.0091534507	-1.5022537306	 0.283997
H	-2.3191288959	-2.5576409193	 0.6764663691	 0.119523
H	-0.8703316526	-2.0107225398	 1.6687834223	 0.131374
H	-1.9360672323	 0.2490700476	 1.9863537698	 0.125123
H	-3.3880979863	-0.2985484473	 1.0090110802	 0.110524
67.4388	189.4936	209.2951	224.6053	275.4466	304.483	356.8844	370.5485	420.5702	492.0924	547.3924	604.6623	781.456	806.5547	858.0053	910.82	919.3288	932.0856	941.9314	991.098	1024.3793	1050.8603	1085.9129	1105.2405	1134.9366	1162.9084	1190.8461	1196.8609	1261.7823	1330.4658	1364.3469	1401.3505	1412.1356	1439.4194	1484.5844	1489.0485	1499.4756	1528.6083	3036.3133	3087.1111	3101.2406	3126.5338	3132.2861	3147.598	3176.4346	3221.9195	3244.7613	3803.8934
CC1(CO1)C1(O)CC1	C[C@]1(CO1)C1(O)CC1	
InChI=1S/C6H10O2/c1-5(4-8-5)6(7)2-3-6/h7H,2-4H2,1H3	InChI=1S/C6H10O2/c1-5(4-8-5)6(7)2-3-6/h7H,2-4H2,1H3/t5-/m0/s1
