15
gdb 25073	3.422	1.70814	1.27731	3.7125	73.06	-0.1945	0.0109	0.2054	950.4458	0.114433	-416.755807	-416.749233	-416.748289	-416.786747	26.448	
N	 0.0435748572	 1.3319228012	 0.2408080232	-0.589572
C	-0.0045482998	 0.0744057925	 0.1323842374	 0.439901
O	 1.0811535359	-0.804118589	 0.0205687691	-0.235025
C	 0.6241379065	-2.1209740257	 0.1492876807	-0.149049
C	-0.7107642049	-2.0904370307	 0.1561969286	 0.221087
C	-2.0670886533	-2.500521998	 0.6651017741	-0.211131
C	-2.3305269677	-1.6882191733	 1.9295393604	-0.27576
C	-2.4318543268	-1.0065279638	 0.5968067977	-0.001959
N	-1.1087017325	-0.7505181656	 0.0165310671	-0.089556
H	 1.007694645	 1.6553262523	 0.2590009038	 0.227089
H	 1.3782534537	-2.8851664867	 0.2057421662	 0.147027
H	-2.6521848679	-3.3615109031	 0.3785429853	 0.120906
H	-3.2810698337	-1.8956884909	 2.4128686169	 0.129884
H	-1.5139551987	-1.4543231358	 2.6049398267	 0.136816
H	-3.3118839033	-0.5126990935	 0.2095942127	 0.129342
125.5437	171.3746	325.1276	357.7585	481.9801	561.5428	643.5643	678.5787	690.3608	701.4745	730.8857	760.5318	785.79	821.5999	869.562	917.8598	940.7994	987.6807	1010.0642	1036.4521	1044.2283	1083.4802	1096.8033	1168.2927	1180.7887	1215.4809	1266.3079	1283.6776	1341.368	1358.9806	1472.9112	1704.4002	1789.3607	3124.1937	3213.3675	3219.3967	3233.3471	3302.027	3533.49
N=C1OC=C2C3CC3N12	[NH][C]1O[CH][C]2[C@H]3C[C@H]3N12	
InChI=1S/C6H6N2O/c7-6-8-4-1-3(4)5(8)2-9-6/h2-4,7H,1H2	InChI=1S/C6H6N2O/c7-6-8-4-1-3(4)5(8)2-9-6/h2-4,7H,1H2/t3-,4+/m0/s1
