18
gdb 55814	3.50148	1.13213	1.07532	3.1776	72.65	-0.2432	0.0324	0.2757	1200.2761	0.146725	-439.037416	-439.028919	-439.027974	-439.071339	31.267	
C	-0.1941344234	 1.3280803475	 0.149635152	-0.446186
C	-0.127235168	-0.1561045279	-0.0580736147	 0.41942
N	 0.7469590193	-0.7028429619	-0.7915650761	-0.514584
O	-1.1239351792	-0.7676797842	 0.6639492649	-0.248463
C	-1.2284852733	-2.1588423897	 0.5826245982	 0.080041
C	-2.5794477556	-2.7904460208	 0.7445894096	-0.20765
C	-3.6045827043	-1.9662529949	-0.0309162767	-0.08163
O	-2.8006329454	-2.0168010186	-1.2419619934	-0.27676
C	-1.8498462139	-2.8508373586	-0.5964994871	 0.058196
H	 0.6091920012	 1.8099951996	-0.405479963	 0.148042
H	-1.1607140205	 1.7116161848	-0.191604444	 0.141732
H	-0.1064208673	 1.5674971353	 1.2139188558	 0.136934
H	 0.6369228851	-1.7150752517	-0.8342694912	 0.217226
H	-0.4141298105	-2.7034047318	 1.0588819157	 0.11258
H	-2.7971012164	-3.5452567179	 1.4878121429	 0.110085
H	-4.5523509865	-2.4912601234	-0.1848134891	 0.115957
H	-3.7831097068	-0.9417417266	 0.307897601	 0.122458
H	-1.4002504646	-3.6539599693	-1.1704705247	 0.112602
64.1643	71.4776	151.5745	157.5514	245.0624	288.5747	382.517	477.1051	552.538	574.0681	709.7235	730.2076	790.4046	825.2179	887.9542	891.7739	935.1196	971.6521	978.6499	1002.9783	1042.0211	1053.6687	1066.2323	1076.334	1088.6712	1108.1163	1132.5281	1170.0564	1202.5833	1261.8689	1305.4586	1319.92	1359.3393	1406.1799	1436.0309	1474.6035	1478.32	1507.5277	1746.5326	3046.8863	3051.3656	3103.0512	3109.6133	3120.6319	3170.2048	3172.6437	3207.3069	3498.9979
CC(=N)OC1C2COC12	C[C]([NH])O[C@H]1[C@H]2CO[C@@H]12	
InChI=1S/C6H9NO2/c1-3(7)9-6-4-2-8-5(4)6/h4-7H,2H2,1H3	InChI=1S/C6H9NO2/c1-3(7)9-6-4-2-8-5(4)6/h4-7H,2H2,1H3/t4-,5+,6-/m0/s1
