18
gdb 125626	2.20092	1.59134	0.96507	2.2537	75.61	-0.1979	0.0404	0.2383	1204.6463	0.148951	-435.288063	-435.278794	-435.27785	-435.321871	34.297	
C	-0.1639940119	 1.5261367451	-0.1797917951	-0.496922
C	-0.0708196381	 0.0416724944	-0.0113116338	 0.270534
N	-0.0834085664	-0.7512281566	-1.0756564765	-0.30876
N	 0.0127142385	-2.0116822125	-0.5574484977	-0.270453
C	 0.0840422851	-2.0229241308	 0.7932573088	 0.329241
N	 0.1316177164	-3.1809636867	 1.5590723329	-0.607202
C	 0.0318273138	-0.6958810532	 1.2002406642	 0.048574
C	 0.0794570107	-0.2313516802	 2.6192929882	-0.205498
O	 1.0725859938	-0.9292411988	 3.3906884492	-0.416845
H	 0.6737665226	 2.0419657474	 0.3036727952	 0.11972
H	-0.1537568056	 1.7754075416	-1.2428651064	 0.140039
H	-1.0852754542	 1.9273456588	 0.2577367659	 0.126268
H	 0.0010517314	-2.7986726563	-1.1826049919	 0.263393
H	 0.6512081897	-3.9407363246	 1.1386002008	 0.24335
H	 0.4887492905	-2.9701038466	 2.4848835588	 0.264763
H	 0.2447520625	 0.8547931213	 2.6610290948	 0.100559
H	-0.8581586939	-0.4308810757	 3.1522946941	 0.119194
H	 1.913543415	-0.7972834766	 2.9384932184	 0.280045
96.9942	121.715	156.2022	189.8675	223.4188	268.6454	331.4721	345.0233	390.9224	424.0253	449.4407	499.9349	596.8987	672.3079	701.1194	742.3033	792.9584	804.079	959.3338	998.6875	1007.8686	1064.0741	1085.9589	1107.9888	1154.2764	1210.6987	1261.1909	1355.5046	1364.155	1403.6608	1415.5247	1436.6988	1482.0326	1485.5402	1508.7263	1513.8824	1575.2055	1621.8544	1665.5827	3001.5871	3029.6898	3045.6876	3077.9676	3131.1062	3518.0923	3615.4451	3678.6206	3798.0707
CC1=NNC(N)=C1CO	Cc1n[nH]c(N)c1CO	
InChI=1S/C5H9N3O/c1-3-4(2-9)5(6)8-7-3/h9H,2H2,1H3,(H3,6,7,8)	InChI=1S/C5H9N3O/c1-3-4(2-9)5(6)8-7-3/h9H,2H2,1H3,(H3,6,7,8)
