17
gdb 66867	3.60238	1.78605	1.59335	0.3496	77.18	-0.1932	-0.0207	0.1725	873.0344	0.136843	-384.579429	-384.572961	-384.572017	-384.609651	27.91	
O	-0.1231530332	 1.4325823108	 0.1121410399	-0.469305
C	 0.0342841266	 0.0681662287	 0.0021254429	 0.39885
C	 0.0254983611	-0.9140744226	 1.1436162181	-0.166433
C	 1.0062555195	-1.9878702947	 0.9448974759	-0.103574
C	 1.3883360732	-1.9744494113	-0.3582256565	 0.000341
C	 0.5679504138	-2.9239732927	-1.2485454168	-0.273154
C	-0.3767125528	-1.6464486885	-1.3219898957	-0.013603
C	-1.0316662725	-0.9934359479	-0.0645106322	-0.162842
C	 0.8384998167	-0.7109015648	-1.0534296727	-0.153684
H	 0.6486466125	 1.7898114407	 0.5665340108	 0.287367
H	-0.4049281349	-0.6103496319	 2.091784437	 0.091345
H	 0.9506743903	-2.9060793837	 1.5235338115	 0.093261
H	 0.9602729118	-3.1319874885	-2.2505396461	 0.101933
H	 0.2068225105	-3.8447085261	-0.7867670143	 0.105388
H	-0.972913592	-1.5122018925	-2.2273011394	 0.090163
H	-2.0841595982	-0.9401624438	 0.1772118344	 0.099928
H	 1.3906170874	-0.2330132211	-1.8601865467	 0.074022
226.5636	281.4183	298.3256	390.0495	465.6882	556.9246	572.4362	620.529	634.8633	696.4722	752.4696	788.933	814.3487	864.1114	878.928	890.0703	902.0426	919.983	955.0808	981.0253	1018.9084	1037.1462	1064.7758	1072.3913	1094.0548	1140.169	1164.0708	1190.9003	1200.249	1224.0261	1246.3644	1273.4589	1303.7695	1315.2682	1467.5194	1496.0555	1557.5205	3035.0564	3090.2681	3115.6431	3132.9928	3156.1133	3177.6339	3215.3205	3787.0865
OC12C3C=C4CC(C13)C24	O[C@@]12[C@@H]3[CH][C]4C[C@@H]([C@H]13)[C@@H]24	
InChI=1S/C8H8O/c9-8-5-2-3-1-4(6(3)8)7(5)8/h2,4-7,9H,1H2	InChI=1S/C8H8O/c9-8-5-2-3-1-4(6(3)8)7(5)8/h2,4-7,9H,1H2/t4-,5-,6+,7+,8-/m1/s1
