19
gdb 57602	2.43129	1.42852	1.16684	1.7816	70.72	-0.2466	-0.0308	0.2158	1122.9117	0.156721	-460.143894	-460.134485	-460.13354	-460.17829	34.398	
C	 0.1227490559	 1.5389878555	 0.2799026503	-0.427464
C	 0.0661984903	 0.0181364801	 0.0937769919	 0.248824
O	 0.8002381559	-0.5645608021	 1.1741143929	-0.479665
C	-1.3914875251	-0.4273598234	 0.2703082089	 0.146152
O	-2.1183529525	-0.7905915106	-0.618044229	-0.261578
C	 0.597749643	-0.4159387444	-1.2773395254	-0.052633
C	 2.139832777	-0.4707989618	-1.3418684354	-0.114975
O	 2.1132275565	-1.8978030986	-1.0773451883	-0.288393
C	 0.7081373661	-1.9456909604	-1.4448391734	-0.114865
H	 1.1554606485	 1.8870935762	 0.1857969296	 0.130233
H	-0.4961811049	 2.052435901	-0.4619271118	 0.127317
H	-0.2303404448	 1.8069969126	 1.2798782385	 0.133842
H	 1.2989586473	-1.3218235156	 0.8366604787	 0.302955
H	-1.7239992976	-0.3964160221	 1.3320098205	 0.093408
H	 0.0760223084	 0.119732704	-2.0699538608	 0.095835
H	 2.5523709725	-0.2568241822	-2.3359375411	 0.106971
H	 2.7053925077	 0.0738350258	-0.5806882587	 0.121324
H	 0.1272316492	-2.5872838992	-0.7760598533	 0.119212
H	 0.5744560665	-2.2884206548	-2.4780971543	 0.113499
56.0757	109.025	151.6606	167.757	222.0501	270.1407	314.1671	316.6471	340.0751	427.5913	466.4692	507.7195	633.0848	707.9691	848.6427	863.8789	900.4745	927.1411	950.2788	982.6266	999.7817	1029.677	1050.7417	1080.6372	1131.7186	1152.7494	1183.4504	1199.4451	1220.9132	1244.1114	1303.1616	1333.2497	1367.5353	1391.2026	1407.8859	1429.1964	1484.6506	1493.1015	1505.8823	1533.5448	1828.582	2890.7761	3020.1226	3030.5068	3041.137	3089.8006	3092.2163	3116.8237	3118.0062	3122.868	3735.4681
CC(O)(C=O)C1COC1	C[C@@](O)(C=O)C1COC1	
InChI=1S/C6H10O3/c1-6(8,4-7)5-2-9-3-5/h4-5,8H,2-3H2,1H3	InChI=1S/C6H10O3/c1-6(8,4-7)5-2-9-3-5/h4-5,8H,2-3H2,1H3/t6-/m1/s1
