13
gdb 25409	2.80829	1.5736	1.0085	6.2858	72.45	-0.2423	-0.0995	0.1428	1068.3583	0.090596	-452.804755	-452.797545	-452.796601	-452.836904	26.279	
O	-0.0501118229	-0.0217926673	-0.0029783667	-0.250016
C	 0.0001399156	 1.183087527	 0.0062289903	 0.11325
C	 1.2806531671	 1.961041891	-0.0012870686	 0.079401
N	 2.4169636149	 1.3147406217	-0.0189644956	-0.258903
C	 3.5855114705	 2.0036198366	-0.0260001199	-0.060793
C	 3.6082912819	 3.3694646799	-0.015000521	 0.020908
N	 2.4355764566	 4.0477357875	 0.0033147607	-0.330914
C	 1.1719725884	 3.4298989262	 0.0119496341	 0.382516
O	 0.1522666331	 4.0933826751	 0.0286262772	-0.371086
H	-0.9070661852	 1.8152594271	 0.0208318726	 0.114619
H	 4.5038715497	 1.4303940174	-0.0406976906	 0.131971
H	 4.5195329508	 3.9556376622	-0.0200788959	 0.153202
H	 2.4161373197	 5.0597695255	 0.0118708434	 0.275845
94.4547	127.1878	208.6236	257.7783	365.1218	448.3843	517.1298	531.4792	568.2245	619.9936	739.3206	807.9721	825.7121	830.4634	895.9461	942.2943	1038.5594	1056.643	1103.9761	1204.0562	1245.7362	1273.9481	1400.9215	1427.1245	1493.2347	1539.5048	1633.4998	1783.2581	1807.1023	2969.5332	3202.3443	3219.4967	3588.0744
O=CC1=NC=CNC1=O	O=Cc1ncc[nH]c1=O	
InChI=1S/C5H4N2O2/c8-3-4-5(9)7-2-1-6-4/h1-3H,(H,7,9)	InChI=1S/C5H4N2O2/c8-3-4-5(9)7-2-1-6-4/h1-3H,(H,7,9)
