19
gdb 119859	3.40937	0.98695	0.81655	4.2783	79.14	-0.2662	-0.0362	0.23	1441.2836	0.159405	-423.088881	-423.079961	-423.079017	-423.123325	32.306	
C	 0.0974109635	 1.5645592381	 0.0803260502	-0.38062
C	 0.1121101245	 0.035118618	 0.0440175318	-0.168446
C	 0.5798989293	-0.515214233	-1.3185016084	-0.302153
C	 0.6370716511	-2.0084830958	-1.352416231	 0.183558
C	-0.1073494988	-2.9056676574	-2.0019794715	-0.218462
C	 0.3730360792	-4.2882210492	-1.6775067921	-0.127577
O	 1.4657373337	-4.1009017978	-0.7807069556	-0.22588
C	 1.6566180996	-2.7602405563	-0.5648901753	 0.402312
O	 2.5237151731	-2.3375204185	 0.1492490716	-0.353074
H	 1.0976259621	 1.9731306189	-0.1002586336	 0.120569
H	-0.5720426455	 1.9762373701	-0.6835574807	 0.11115
H	-0.2414093842	 1.932682764	 1.0534159449	 0.115644
H	 0.7772491469	-0.3521098627	 0.8224131896	 0.132265
H	-0.890373516	-0.3538420368	 0.261205701	 0.095019
H	-0.0795418879	-0.1516562107	-2.1147226113	 0.100529
H	 1.5840587559	-0.1234481359	-1.5246140127	 0.123926
H	-0.9355905604	-2.7135605176	-2.6725383282	 0.121315
H	-0.392274819	-4.9026574659	-1.1859406654	 0.134872
H	 0.725706553	-4.8354653116	-2.5612155135	 0.135055
62.487	81.3927	113.9314	197.1708	239.7269	264.1942	296.8665	325.1256	452.576	534.4169	656.6167	745.0423	762.5117	795.5067	796.823	847.4412	883.7058	902.5931	954.6192	1028.8781	1039.2116	1059.9973	1091.8931	1111.1524	1120.2451	1200.6301	1218.0476	1253.0175	1310.3714	1321.3414	1354.7683	1372.0846	1384.8381	1411.3528	1476.0406	1493.6229	1495.1485	1498.3707	1508.4856	1713.1948	1857.7624	3022.2361	3023.4946	3029.3771	3035.8699	3053.0446	3065.3649	3082.1854	3104.3843	3105.5707	3215.9211
CCCC1=CCOC1=O	CCCC1=CCOC1=O	
InChI=1S/C7H10O2/c1-2-3-6-4-5-9-7(6)8/h4H,2-3,5H2,1H3	InChI=1S/C7H10O2/c1-2-3-6-4-5-9-7(6)8/h4H,2-3,5H2,1H3
