19
gdb 70155	2.47874	1.74891	1.26276	1.5723	75.41	-0.246	-0.0107	0.2353	1041.5692	0.159588	-423.001531	-422.993388	-422.992444	-423.033821	31.702	
C	 0.1873602871	 1.5260566082	-0.2256211219	-0.475003
C	 0.0337380418	 0.0403381661	-0.0175610058	 0.357526
C	-1.1755401052	-0.6296051031	-0.6646896209	-0.122529
O	-2.3791542609	-0.4970895018	 0.0741043849	-0.261844
C	-2.2982936831	-0.7757116305	 1.4749500038	-0.111295
C	-1.3765915372	-1.9147987771	 1.8683527759	-0.085148
C	-0.052016975	-1.8394730839	 1.7356280549	-0.085822
C	 0.6032052645	-0.6264563055	 1.1682426051	-0.035392
O	 1.2366504349	-0.7426918802	-0.1169381575	-0.298816
H	 1.0326963929	 1.9223061673	 0.3424140498	 0.124606
H	 0.3495580189	 1.7494392439	-1.2857849792	 0.128695
H	-0.7248022542	 2.0446520375	 0.0888763505	 0.133861
H	-1.3890623676	-0.1756441332	-1.6379257635	 0.105825
H	-0.9207053229	-1.6828420938	-0.8298898101	 0.109233
H	-1.9910132459	 0.1361389714	 2.0089049991	 0.102303
H	-3.3251878728	-0.9950564036	 1.7787629007	 0.112389
H	-1.8317750923	-2.8146039131	 2.2730247249	 0.101386
H	 0.592432562	-2.6611653696	 2.0389171604	 0.104438
H	 1.1805914051	-0.0212953791	 1.871017269	 0.095586
129.653	175.4422	193.4071	215.2336	296.7983	352.1717	364.6224	421.1888	439.6911	530.0718	588.2297	708.0465	738.8359	795.1038	834.4591	907.21	927.9908	937.9302	988.4436	993.6429	1013.1518	1034.7653	1066.733	1111.7686	1123.7374	1142.6122	1230.4101	1240.5257	1284.2791	1303.8063	1328.4468	1387.462	1401.5034	1412.9388	1415.4906	1465.2718	1483.8633	1500.0491	1506.3321	1508.6715	1705.5307	2982.9087	3032.7578	3035.1727	3078.4075	3082.5156	3087.5771	3098.472	3121.6213	3151.2145	3174.7584
CC12COCC=CC1O2	C[C@]12COCC=C[C@H]1O2	
InChI=1S/C7H10O2/c1-7-5-8-4-2-3-6(7)9-7/h2-3,6H,4-5H2,1H3	InChI=1S/C7H10O2/c1-7-5-8-4-2-3-6(7)9-7/h2-3,6H,4-5H2,1H3/t6-,7+/m1/s1
