19
gdb 126166	3.97136	1.0137	0.83494	3.6691	76.84	-0.2493	0.0167	0.266	1380.8757	0.1622	-415.417744	-415.408941	-415.407997	-415.451658	32.43	
C	 0.0300348158	 1.6173229389	 0.1591880546	-0.398177
C	-0.0380740551	 0.0899668992	 0.1129784343	-0.1646
C	-1.468936697	-0.4500091034	-0.0698521691	-0.117335
N	-2.132841912	-0.1071754333	-1.3398501836	-0.53284
H	-3.039313922	-2.4172732907	-1.2885833857	 0.280353
H	-2.3882732729	 0.8741923336	-1.3454622843	 0.240422
H	-1.4831446079	-0.2399178991	-2.1115872756	 0.232629
C	-1.5079977086	-1.9459621889	 0.0841471132	 0.418349
N	-0.7794329719	-2.7033763654	 0.8896272797	-0.33736
C	-1.2556762624	-3.9550533832	 0.6404233961	 0.018664
N	-2.221448945	-4.0246417005	-0.2617674133	-0.219296
N	-2.3666592859	-2.7231562308	-0.6040505286	-0.229133
H	 1.0608868341	 1.9587996308	 0.288756699	 0.122484
H	-0.3505416423	 2.0697662673	-0.7632048813	 0.104042
H	-0.5585660345	 2.0155719998	 0.9936569659	 0.117989
H	 0.5854991476	-0.2939616156	-0.7054198014	 0.096185
H	 0.3711954696	-0.3401139946	 1.0321370568	 0.135293
H	-2.0950095302	-0.0233317081	 0.7273751446	 0.110879
H	-0.8783841096	-4.837948106	 1.1347713786	 0.121453
66.4684	98.9907	145.7817	202.967	241.8967	292.8878	302.3612	353.4107	450.9118	490.4966	630.7035	687.9954	725.1335	769.3874	807.8372	850.2125	908.9729	943.3697	983.3507	999.0454	1047.5777	1061.3419	1100.6577	1111.4126	1151.3923	1202.7829	1220.8374	1256.9901	1291.9083	1307.9067	1321.2833	1376.3623	1393.0324	1409.7789	1428.6269	1484.0499	1495.1039	1501.6554	1507.4809	1576.0867	1659.0721	3001.7568	3027.2032	3031.1769	3080.9163	3101.4634	3109.3392	3258.1516	3485.6646	3579.3496	3664.8472
CCC([NH3+])C1=NC=N[N-]1	CC[C@@H](N)c1ncn[nH]1	
InChI=1S/C5H9N4/c1-2-4(6)5-7-3-8-9-5/h3-4H,2,6H2,1H3/q-1/p+1	InChI=1S/C5H10N4/c1-2-4(6)5-7-3-8-9-5/h3-4H,2,6H2,1H3,(H,7,8,9)/t4-/m1/s1
