17
gdb 63025	2.31363	1.83614	1.40919	3.1391	67.18	-0.2634	-0.0004	0.2629	975.818	0.135232	-458.989831	-458.981762	-458.980818	-459.022107	31.356	
C	 0.0498940294	 1.5932677369	-0.0107108536	-0.432268
C	 0.0386319804	 0.0677438019	-0.0351405252	 0.231879
O	-1.2977228852	-0.433218075	-0.0549106922	-0.471248
C	 0.7700743829	-0.605578107	-1.1769619022	-0.074908
C	 2.2744308691	-0.4348181925	-1.270808063	-0.335605
C	 1.6912152067	-1.6081643931	-0.545304164	 0.083362
O	 1.6252819354	-1.4846101958	 0.8676429642	-0.21535
C	 0.7271785017	-0.5278988604	 1.2197653908	 0.390343
O	 0.4933296185	-0.2371848872	 2.3578466696	-0.352371
H	 1.0642431227	 1.9936671678	-0.0928713838	 0.122168
H	-0.5491824625	 1.9748331487	-0.841568238	 0.128553
H	-0.3764945824	 1.9489909643	 0.9323936214	 0.134452
H	-1.7040786233	-0.1889430871	 0.7859415249	 0.29268
H	 0.1960008184	-0.8357882145	-2.0650814336	 0.11607
H	 2.7262549263	-0.6123134822	-2.2403558857	 0.129559
H	 2.7656788015	 0.3283392607	-0.6755050841	 0.131027
H	 1.8189178102	-2.6341194954	-0.8626609654	 0.121658
93.8995	208.8402	218.5432	240.8039	290.8784	350.2804	370.3492	399.4745	480.2202	532.7204	608.4614	703.0338	724.7262	760.5978	813.3868	822.0506	914.0018	948.9214	989.182	1013.1601	1036.0724	1070.6466	1091.9676	1111.8595	1134.9074	1141.0174	1170.9036	1196.8411	1223.9476	1342.921	1382.734	1398.0301	1403.942	1475.5834	1487.6548	1493.7675	1872.5671	3043.0679	3116.7723	3127.6436	3133.185	3198.4599	3210.3525	3224.6636	3787.083
CC1(O)C2CC2OC1=O	C[C@@]1(O)[C@H]2C[C@H]2OC1=O	
InChI=1S/C6H8O3/c1-6(8)3-2-4(3)9-5(6)7/h3-4,8H,2H2,1H3	InChI=1S/C6H8O3/c1-6(8)3-2-4(3)9-5(6)7/h3-4,8H,2H2,1H3/t3-,4+,6+/m0/s1
