17
gdb 113627	3.63723	0.88813	0.85896	3.5292	78.14	-0.2685	-0.0711	0.1974	1419.4215	0.132479	-421.782641	-421.773086	-421.772142	-421.817924	33.777	
C	-0.3162643232	 1.5674802026	-0.9204573369	-0.379685
C	 0.0074616303	 0.3297681699	-0.0726327466	-0.227139
C	-1.250005489	-0.3593816984	 0.3928522506	 0.083146
O	-1.9765975196	-1.1227846648	-0.5627889911	-0.230868
C	-1.411206114	-1.8339517274	 0.5280145571	-0.077642
C	-0.2770191439	-2.7749004242	 0.2263710906	 0.246109
O	 0.3553717563	-2.7620017535	-0.8068585455	-0.289518
C	 0.0221038288	-3.7016541165	 1.3058292824	 0.255751
C	 0.255802507	-4.4643363535	 2.2074996185	-0.426274
H	 0.6016029905	 2.0629204447	-1.24882216	 0.119434
H	-0.8869673055	 1.2846506675	-1.8097179611	 0.138932
H	-0.9080504802	 2.2971682597	-0.3568483693	 0.113795
H	 0.6117332926	-0.3732710468	-0.6502478117	 0.142427
H	 0.5880233061	 0.6211956008	 0.8120348841	 0.102252
H	-1.8891874086	 0.2348938081	 1.051438077	 0.099351
H	-2.1210328455	-2.2036816414	 1.2683156203	 0.10972
H	 0.4782673077	-5.1435459369	 2.9947060216	 0.220209
42.8064	76.1427	125.2035	155.9397	202.9799	234.7497	268.5019	278.0063	435.8448	449.815	506.7416	604.5025	657.8833	709.369	758.3652	760.1051	801.0927	865.4417	904.3225	960.5003	1024.1997	1052.2106	1089.2501	1102.0493	1158.924	1177.4163	1277.8914	1297.191	1345.8938	1399.4079	1409.514	1464.0416	1478.8899	1499.8081	1508.0827	1765.157	2211.077	3033.0495	3037.5206	3074.4044	3098.5849	3113.5282	3118.1562	3123.7133	3493.2595
CCC1OC1C(=O)C#C	CC[C@H]1O[C@H]1C(=O)C#C	
InChI=1S/C7H8O2/c1-3-5(8)7-6(4-2)9-7/h1,6-7H,4H2,2H3	InChI=1S/C7H8O2/c1-3-5(8)7-6(4-2)9-7/h1,6-7H,4H2,2H3/t6-,7+/m1/s1
