18
gdb 81974	2.60178	1.64843	1.30513	2.5173	66.06	-0.25	0.0594	0.3094	1000.4751	0.149943	-476.200011	-476.192362	-476.191418	-476.231674	31.08	
O	 0.0775254608	 1.4149377354	 0.1037920086	-0.441829
C	 0.0184676477	 0.0116646106	 0.033831655	 0.137193
C	-1.3850030934	-0.5802144155	-0.074360054	-0.070061
N	-1.9228174195	-0.4975180661	-1.455882826	-0.367935
C	-1.3341887296	-1.7678679378	-0.961525804	-0.070087
C	 0.1028776273	-1.9614986985	-1.4401486092	 0.13725
O	 0.2416787499	-2.4212942527	-2.7618459315	-0.441842
C	 0.7399342873	-0.5630685114	-1.2155671869	-0.009306
O	 0.5031350879	 0.2730450511	-2.3482288648	-0.45715
H	 0.1782192526	 1.7176544657	-0.8094212309	 0.287415
H	 0.4859616363	-0.3842554283	 0.9446572062	 0.08864
H	-2.0773654474	-0.4959066273	 0.7561702273	 0.09827
H	-2.936844875	-0.5508275545	-1.4426366692	 0.24406
H	-1.9862589461	-2.625118072	-0.834323914	 0.098271
H	 0.5848552416	-2.6965220387	-0.7826230259	 0.088634
H	 0.3214099841	-1.6265537514	-3.3075239365	 0.287424
H	 1.8230949455	-0.6102492076	-1.0904073129	 0.094258
H	-0.47385021	 0.290223069	-2.4267547514	 0.296795
158.0179	199.568	257.2452	288.7875	305.9265	414.9973	442.7572	478.2825	481.8718	523.9943	571.0316	708.9763	818.2249	818.2835	836.9694	873.6517	881.3111	895.479	910.7086	1007.3142	1012.8236	1074.9	1105.4968	1107.6752	1120.1768	1137.8117	1162.7154	1235.3077	1253.3847	1260.7359	1265.4246	1324.3176	1332.828	1374.4901	1375.6113	1410.1021	1432.2161	1448.6184	1485.515	3027.9911	3033.5429	3100.861	3170.6174	3181.2757	3501.6396	3522.0179	3738.9291	3747.1087
OC1C2NC2C(O)C1O	O[C@H]1[C@H]2N[C@H]2[C@@H](O)[C@H]1O	
InChI=1S/C5H9NO3/c7-3-1-2(6-1)4(8)5(3)9/h1-9H	InChI=1S/C5H9NO3/c7-3-1-2(6-1)4(8)5(3)9/h1-9H/t1-,2+,3-,4+,5-
