15
gdb 35172	3.91301	1.20511	1.08522	3.051	72.43	-0.2469	0.0078	0.2547	1106.1821	0.110325	-420.480776	-420.473284	-420.47234	-420.512856	29.019	
C	-0.1217175047	-1.2375032757	 0.093752845	-0.419019
C	-0.0614302296	-0.0373988885	 0.0630278331	 0.345879
C	-0.0058776014	 1.3953175177	-0.0055299924	-0.337561
O	 0.5968606446	 2.0982257414	 1.1299316598	-0.282903
C	 1.2654848349	 2.1228232039	-0.0820322635	 0.58696
C	 2.7366251227	 1.8024208483	-0.3829167385	-0.074705
C	 2.4993452334	 2.307301529	-1.8284756645	-0.221593
C	 1.8485432554	 3.3199772342	-0.8520809248	-0.075517
O	 3.0526153056	 3.2024749587	 0.008959753	-0.309799
H	-0.1735745666	-2.2978958016	 0.1299480304	 0.207366
H	-0.9031367741	 1.8843520961	-0.3821567044	 0.128288
H	 3.3794502482	 1.0088093628	-0.0081239199	 0.113726
H	 3.3988189181	 2.6845380188	-2.313870923	 0.119918
H	 1.8556992733	 1.7225703284	-2.4902180493	 0.108836
H	 1.4449574702	 4.3149715765	-1.031373551	 0.110124
99.291	122.8166	215.6472	281.9046	359.3732	424.7511	508.0691	548.7852	610.339	632.9889	677.7336	691.0246	761.7253	802.3654	849.0706	866.3214	918.4057	955.1319	990.0169	1014.94	1029.9004	1068.503	1119.3521	1133.9769	1144.035	1170.2217	1212.4453	1232.9747	1258.4013	1337.2563	1473.1133	1524.6083	2240.9964	3070.8646	3121.524	3142.2279	3151.9755	3163.1241	3500.954
C#CC1OC11C2CC1O2	C#C[C@H]1O[C@]21[C@H]1C[C@@H]2O1	
InChI=1S/C7H6O2/c1-2-4-7(9-4)5-3-6(7)8-5/h1,4-6H,3H2	InChI=1S/C7H6O2/c1-2-4-7(9-4)5-3-6(7)8-5/h1,4-6H,3H2/t4-,5-,6+,7-/m1/s1
