14
gdb 56419	2.98234	0.70253	0.64337	2.6487	75.89	-0.2758	-0.0066	0.2692	1703.8767	0.097855	-399.478374	-399.468604	-399.467659	-399.515683	33.392	
O	 1.1130787921	 1.5110869621	-0.1033406039	-0.38647
C	 0.3013813906	 0.3487189952	 0.0072791251	-0.232764
C	 0.3858325338	-0.5065772649	-1.185307525	 0.322181
C	 0.4797263328	-1.1872287439	-2.1702176907	-0.443324
C	 0.6008661251	-0.4233284482	 1.2246229956	 0.133191
C	 0.872448335	-1.0322802909	 2.2244035816	 0.064351
C	 1.1897148167	-1.7726614441	 3.4428677623	-0.474878
C	 2.5065015251	-2.4220760326	 3.3951913319	 0.281045
N	 3.5403809979	-2.9349951589	 3.3708224184	-0.296499
H	 2.0249577428	 1.2169504545	-0.2151694036	 0.294656
H	-0.7219379711	 0.7377428858	 0.0875035073	 0.154044
H	 0.5572073571	-1.7916325707	-3.0405251134	 0.209664
H	 1.1660616451	-1.1060706148	 4.3144632901	 0.187109
H	 0.431433197	-2.5447194785	 3.6262893043	 0.187694
8.9001	60.4254	93.7369	174.0046	199.8242	251.7746	310.5507	333.8614	375.0903	391.0176	440.6089	533.9253	586.5638	639.1516	650.1375	681.9423	801.1417	910.6468	935.5428	954.6642	1047.2293	1155.8302	1234.356	1260.9888	1310.7985	1336.776	1413.6005	1445.7638	2240.3905	2371.4455	2381.6228	3028.5355	3032.137	3059.5275	3501.7416	3799.2202
OC(C#C)C#CCC#N	O[C@@H](C#C)C#CCC#N	
InChI=1S/C7H5NO/c1-2-7(9)5-3-4-6-8/h1,7,9H,4H2	InChI=1S/C7H5NO/c1-2-7(9)5-3-4-6-8/h1,7,9H,4H2/t7-/m0/s1
