16
gdb 30597	4.50604	1.08206	0.87747	2.5573	75.18	-0.2231	-0.0354	0.1877	1279.3044	0.125703	-434.105913	-434.097309	-434.096365	-434.140233	30.133	
C	-0.0040760096	 1.399847239	 0.0233628613	-0.310674
N	-0.0888868767	-0.0403497581	-0.0644178721	-0.306413
C	-1.2837851244	-0.6866506066	 0.0077411528	 0.271868
N	-2.4002188734	-0.056537952	 0.0755536333	-0.556468
C	-1.1337412785	-2.1586514021	-0.0071532605	 0.379782
N	-0.0322760098	-2.8475711929	-0.0379180743	-0.325771
C	-0.4448348784	-4.1698071433	-0.0285461255	-0.113332
C	-1.7985977386	-4.2059738308	 0.0081440058	-0.040521
O	-2.2527557824	-2.9199795988	 0.0226209707	-0.173839
H	 1.0348257206	 1.7022078267	-0.1220454418	 0.119312
H	-0.625287687	 1.866028141	-0.7476164212	 0.146284
H	-0.3546383808	 1.771185093	 0.9946608535	 0.132574
H	 0.7415147678	-0.6057338686	-0.0148270716	 0.263541
H	-3.1753315455	-0.7148719484	 0.0997418141	 0.223971
H	 0.2560654149	-4.9888473722	-0.0487727269	 0.133585
H	-2.5445814983	-4.9812822859	 0.0268148624	 0.156101
54.2379	77.4165	106.8518	159.8271	215.0576	295.5161	365.9753	397.7098	494.5144	618.228	646.4698	767.1538	782.323	791.848	837.6841	868.8666	934.5966	958.2601	1012.1011	1113.9598	1149.4146	1160.0986	1165.1712	1189.1081	1196.4474	1249.0677	1337.9977	1401.5111	1454.8961	1472.7336	1513.724	1530.6794	1563.6426	1600.8182	1699.8885	3022.9101	3082.1995	3132.4421	3266.9002	3303.4026	3522.5556	3662.9338
CNC(=N)C1=NC=CO1	CNC(=N)c1ncco1	
InChI=1S/C5H7N3O/c1-7-4(6)5-8-2-3-9-5/h2-3H,1H3,(H2,6,7)	InChI=1S/C5H7N3O/c1-7-4(6)5-8-2-3-9-5/h2-3H,1H3,(H2,6,7)
