17
gdb 16315	3.12261	1.93658	1.38346	3.5213	69.02	-0.2342	-0.0138	0.2205	929.3642	0.141586	-363.8401	-363.832257	-363.831313	-363.872495	29.073	
C	 0.0419388522	 1.5119236567	 0.2986278083	-0.379066
C	 0.0425063399	 0.0382364393	-0.135348286	-0.320017
C	-1.3388573215	-0.5409210863	-0.1881092538	 0.231198
N	-2.1068583857	-0.9205795005	 1.0549763021	-0.361945
C	-1.9064742177	-1.9264380437	 0.0026297374	-0.126747
C	-3.0440988113	-1.6933465698	-1.0002448422	-0.342689
C	-2.4126396931	-0.2880410838	-1.2295197474	 0.406336
O	-2.5669738736	 0.5624529832	-2.0576775326	-0.3123
H	 1.0588331738	 1.9146036815	 0.3087361479	 0.114648
H	-0.5582426917	 2.111187536	-0.3914123694	 0.148304
H	-0.3813182822	 1.6283388819	 1.3011876111	 0.122863
H	 0.4992284404	-0.0505734288	-1.1285537254	 0.117592
H	 0.6599683775	-0.5613045966	 0.5466221275	 0.097785
H	-1.3925696547	-1.0718042544	 1.7698900299	 0.232509
H	-1.3606104164	-2.8439554436	 0.1803295785	 0.109671
H	-2.9839636111	-2.2917401368	-1.9136864003	 0.12874
H	-4.0547393148	-1.7275137141	-0.5887035655	 0.133117
71.6505	120.3712	182.5128	203.6271	283.4105	376.377	448.0227	485.6676	555.2147	646.9019	690.3411	751.5264	811.9805	856.5777	891.5541	936.4302	974.981	994.3562	1019.8061	1045.4396	1092.5299	1104.284	1112.3658	1169.8535	1205.1218	1257.5024	1300.8786	1348.4526	1354.0815	1409.5313	1424.9706	1448.2527	1475.9704	1498.1129	1510.0805	1884.6451	3017.6635	3042.7768	3056.7104	3068.9286	3113.2227	3124.1874	3131.3092	3204.241	3446.6327
CCC12NC1CC2=O	CC[C@]12N[C@H]1CC2=O	
InChI=1S/C6H9NO/c1-2-6-4(7-6)3-5(6)8/h4,7H,2-3H2,1H3	InChI=1S/C6H9NO/c1-2-6-4(7-6)3-5(6)8/h4,7H,2-3H2,1H3/t4-,6-/m0/s1
