17
gdb 46557	4.13256	1.13013	1.04088	2.5184	68.35	-0.254	0.0521	0.3061	1150.1228	0.138311	-455.169111	-455.161424	-455.16048	-455.201741	29.093	
O	 0.0415493801	-0.0443066018	-0.2110707873	-0.402706
C	-0.0161913451	 1.1559187214	-0.0848435267	 0.43002
N	-1.1239479428	 1.9695936763	-0.2900677471	-0.349162
C	-0.8730669108	 3.3151307959	 0.1982199956	-0.218684
C	 0.6665704124	 3.3939011182	 0.1238470947	 0.281193
C	 1.2750849872	 4.2002542179	-1.0587150375	-0.117696
O	 1.7033532912	 5.2443043064	-0.1645827929	-0.267721
C	 1.3529306835	 4.4668997513	 0.9960856189	-0.125727
N	 1.021737967	 2.0072620458	 0.2936852204	-0.39648
H	-2.0293472993	 1.5382937933	-0.1925404799	 0.256182
H	-1.3522919065	 4.0789539997	-0.4203457342	 0.12441
H	-1.2044222611	 3.4534708775	 1.2385217934	 0.110717
H	 2.1221006756	 3.6965153842	-1.5454251977	 0.098946
H	 0.5822584073	 4.5639502314	-1.8262437399	 0.111163
H	 0.7098092584	 5.0211367364	 1.6907301218	 0.108478
H	 2.2349745797	 4.0994979493	 1.5378547454	 0.104475
H	 1.9624644633	 1.6850298168	 0.1261330732	 0.252594
80.5211	99.5716	189.4997	273.5356	352.4014	422.1712	446.9577	494.0363	537.0014	549.2275	713.6022	767.0065	805.4911	846.8528	927.2737	945.9639	976.3133	983.0079	1005.2754	1036.1914	1083.8226	1129.5592	1149.9135	1155.0456	1167.3017	1227.8526	1251.3454	1297.9438	1302.2095	1363.4257	1375.8573	1415.0995	1443.4176	1504.0343	1525.2088	1532.9523	1859.4859	2988.0765	2997.735	3010.9465	3056.6912	3061.6633	3081.4023	3633.8736	3644.8355
O=C1NCC2(COC2)N1	O=C1NCC2(COC2)N1	
InChI=1S/C5H8N2O2/c8-4-6-1-5(7-4)2-9-3-5/h1-3H2,(H2,6,7,8)	InChI=1S/C5H8N2O2/c8-4-6-1-5(7-4)2-9-3-5/h1-3H2,(H2,6,7,8)
