18
gdb 40579	4.44455	1.26988	1.21246	2.3637	74.08	-0.2372	0.0868	0.324	1060.6845	0.148855	-401.8455	-401.838479	-401.837535	-401.877244	27.756	
C	 0.1398203984	 1.4599934296	 0.0901021489	-0.185646
O	 1.038969317	 0.4309150057	-0.3324510827	-0.224905
C	-0.271449402	 0.0504921973	 0.0930239968	 0.065998
C	-0.3924012867	-0.7742331093	 1.3511464601	-0.055651
C	 0.082934866	-2.2195365408	 1.1540002633	-0.040096
C	 1.4455444062	-1.9012806538	 1.6349184899	-0.024276
C	 0.797335619	-0.6556681917	 2.3492475979	-0.090944
C	 0.3964789814	-1.6586597546	 3.4423484733	-0.160871
N	 0.5736745268	-2.7831432893	 2.4625753188	-0.162943
H	 0.3988314597	 1.9501219224	 1.0271104957	 0.113053
H	-0.2131553717	 2.1235503031	-0.6979832977	 0.116816
H	-0.9181081275	-0.2764319923	-0.7249190156	 0.094247
H	-1.3971056011	-0.6328127438	 1.7730960345	 0.07342
H	-0.2369361085	-2.9405503364	 0.41279048	 0.098767
H	 2.4373513419	-2.1560680585	 1.289714695	 0.100862
H	 1.2605516343	 0.304238708	 2.5648785089	 0.078683
H	 1.1468102858	-1.7703472918	 4.2290852525	 0.108919
H	-0.601644219	-1.5743145537	 3.8894226201	 0.094567
81.0797	152.1974	185.9069	344.6524	406.3374	444.8081	581.6455	750.0739	768.5961	783.649	807.758	828.5909	879.2466	897.2681	920.4997	942.3925	959.1855	971.7287	996.5171	1004.3407	1055.6051	1070.2222	1083.8544	1103.5005	1150.2159	1159.9017	1164.3791	1174.4891	1180.4404	1204.4595	1224.0565	1260.441	1291.8068	1297.5879	1326.7084	1374.3717	1431.4545	1509.2139	1527.911	3009.9548	3029.5123	3079.4209	3087.0043	3101.2461	3142.4558	3172.3754	3198.313	3222.3364
C1OC1C1C2C3C1CN23	C1O[C@H]1[C@H]1[C@H]2[C@H]3[C@@H]1CN23	
InChI=1S/C7H9NO/c1-3-5(4-2-9-4)7-6(3)8(1)7/h3-7H,1-2H2	InChI=1S/C7H9NO/c1-3-5(4-2-9-4)7-6(3)8(1)7/h3-7H,1-2H2/t3-,4-,5+,6-,7+,8?/m1/s1
