19
gdb 71645	3.10393	1.94603	1.6658	1.2707	76.97	-0.223	0.0876	0.3106	893.744	0.16101	-385.849806	-385.843171	-385.842227	-385.880249	28.59	
C	 0.0696533901	 1.5304931327	 0.108224285	-0.479317
C	-0.0227481959	 0.0302246646	-0.0324029609	 0.402006
C	 0.3075906991	-0.6534415209	-1.3939572278	-0.273389
C	-0.7797573065	-1.6965992543	-1.0594143537	-0.045583
C	-0.4476635788	-2.6380103904	 0.1232209623	-0.125363
C	 0.1464059437	-1.8304310457	 1.2585735289	 0.0939
O	 0.7533882847	-0.5933739274	 0.9933114196	-0.292033
C	-1.3329335422	-1.8077540234	 1.0833545205	-0.124373
C	-1.4252425316	-0.7355272563	-0.0164625753	-0.110545
H	 1.1098531347	 1.8605171757	 0.0180425289	 0.126566
H	-0.5157475668	 2.027806888	-0.6707214769	 0.112297
H	-0.304600394	 1.8486693387	 1.0862459735	 0.122216
H	 0.0079267073	-0.0294181545	-2.24227581	 0.092633
H	 1.3416553013	-0.9828021511	-1.5228372985	 0.097557
H	-1.3702973168	-2.1579727474	-1.8515186807	 0.066144
H	-0.3157925032	-3.7125760647	 0.0618600552	 0.082236
H	 0.6150627294	-2.3580844262	 2.0800866451	 0.101794
H	-2.0750844946	-2.0937576201	 1.8167794383	 0.087484
H	-2.3345928398	-0.1696079971	-0.2013618736	 0.065772
210.7138	234.8333	268.6694	378.3406	426.9429	548.9203	580.628	646.5431	708.9447	741.4933	741.7363	781.2493	820.3998	860.9115	878.1506	897.3229	911.5805	931.4302	983.1907	987.6055	997.8291	1017.6201	1029.319	1060.8478	1102.8399	1111.5388	1137.2899	1156.1477	1180.1947	1201.1549	1211.7717	1237.1771	1264.6171	1298.1617	1311.4045	1327.6284	1405.9165	1410.463	1473.2652	1481.0371	1492.7722	3035.479	3046.6915	3100.5599	3106.014	3108.3182	3114.7617	3149.1007	3167.4227	3193.4439	3204.6906
CC12CC3C4C(O1)C4C23	C[C@@]12C[C@H]3[C@H]4[C@@H](O1)[C@H]4[C@@H]23	
InChI=1S/C8H10O/c1-8-2-3-4-5(6(3)8)7(4)9-8/h3-7H,2H2,1H3	InChI=1S/C8H10O/c1-8-2-3-4-5(6(3)8)7(4)9-8/h3-7H,2H2,1H3/t3-,4+,5+,6-,7+,8-/m0/s1
