15
gdb 19124	3.31798	1.79985	1.34257	2.612	67.52	-0.244	0.0281	0.272	913.3989	0.117594	-362.569656	-362.561992	-362.561048	-362.601751	28.435	
C	 0.8302354592	-1.2440445378	-0.3758456216	-0.447187
C	 0.4679442532	-0.1043860619	-0.2437461833	 0.281926
C	 0.0410636402	 1.2661150294	-0.1358514175	 0.135521
C	-0.1318478806	 1.868365025	 1.2207556356	-0.272971
N	 1.0058734423	 2.2677873916	 0.3845389869	-0.350046
C	-0.8070682795	 1.7493589458	-1.2849299389	-0.012509
C	-2.2642918663	 1.5809565143	-1.277580303	-0.167155
O	-1.6619326899	 2.855959212	-1.0322467101	-0.222893
H	 1.1478520072	-2.2519878683	-0.4808425496	 0.200243
H	-0.8922098136	 2.6334128996	 1.3368946433	 0.145946
H	 0.0407108023	 1.2269864617	 2.0795871943	 0.121864
H	 1.8480827481	 1.785946646	 0.691063044	 0.240613
H	-0.2880539512	 1.7857108932	-2.2426958469	 0.107593
H	-2.8032387527	 1.4913056525	-2.2187523227	 0.121456
H	-2.7426288188	 1.1192661169	-0.4154177905	 0.117599
75.9583	140.7865	199.9815	238.2055	254.9879	419.3672	480.0507	521.1731	576.9841	604.7586	661.5997	664.6184	840.8189	859.055	894.0272	926.321	958.7882	976.7546	1037.4947	1092.8361	1106.7028	1145.6305	1157.1038	1168.276	1263.8744	1289.3846	1298.6597	1351.8027	1430.6491	1490.0604	1526.7125	2232.5229	3090.6084	3114.5563	3122.9309	3180.6523	3221.3273	3500.1368	3501.8323
C#CC1(CN1)C1CO1	C#C[C@]1(CN1)[C@H]1CO1	
InChI=1S/C6H7NO/c1-2-6(4-7-6)5-3-8-5/h1,5,7H,3-4H2	InChI=1S/C6H7NO/c1-2-6(4-7-6)5-3-8-5/h1,5,7H,3-4H2/t5-,6+/m1/s1
