17
gdb 39009	3.2641	1.79018	1.29965	1.9962	79.78	-0.2295	-0.0032	0.2263	968.1239	0.137814	-384.68705	-384.680444	-384.6795	-384.717677	27.458	
C	-0.0274330755	 1.5442518076	-0.0448131677	-0.282252
C	 1.4390703631	 1.9478127194	 0.0845344963	-0.252242
C	 2.2206220722	 0.8782796475	 0.2264071251	 0.3204
C	 3.6764274958	 0.4978131484	 0.1664892758	-0.40606
C	 3.5806156888	-0.9979344253	-0.1227058445	-0.077969
C	 2.3285252539	-1.474369783	-0.0800650632	-0.2121
C	 1.4023444761	-0.3748946762	 0.2562604274	 0.420602
O	 0.4414421381	-0.4613131804	 1.3392991273	-0.310481
C	-0.00349409	 0.0151530896	 0.0625244648	-0.091676
H	-0.6634488531	 1.9832374858	 0.7336470699	 0.125008
H	-0.4385428103	 1.8658392308	-1.0106480091	 0.110516
H	 1.7569402483	 2.9833335888	 0.0319884449	 0.095109
H	 4.2279205014	 1.0393567006	-0.6113220858	 0.123316
H	 4.2154758631	 0.6771041967	 1.1076256269	 0.128766
H	 4.461508559	-1.5948459646	-0.3316539794	 0.103454
H	 2.0323315252	-2.5055358999	-0.222233246	 0.109574
H	-0.757647016	-0.5939779259	-0.4288236329	 0.096035
196.1932	211.8573	285.1626	388.2061	423.1603	485.0088	576.6129	621.9879	653.8617	737.086	767.7227	799.0813	819.1153	843.8688	891.0945	923.9195	931.469	959.4991	969.7883	984.8342	1004.2737	1056.2154	1069.2948	1138.2688	1162.5317	1179.6277	1215.059	1269.7073	1283.1646	1292.9101	1336.7219	1358.2329	1454.1146	1462.8758	1466.3866	1642.1704	1728.2184	3009.4147	3024.8757	3051.7858	3060.7147	3148.4275	3190.6058	3193.5306	3224.8213
C1C=C2CC=CC22OC12	C1C=C2CC=C[C@]32O[C@@H]13	
InChI=1S/C8H8O/c1-2-6-3-4-7-8(6,5-1)9-7/h1,3,5,7H,2,4H2	InChI=1S/C8H8O/c1-2-6-3-4-7-8(6,5-1)9-7/h1,3,5,7H,2,4H2/t7-,8+/m0/s1
