21
gdb 94102	4.68872	0.76816	0.70487	3.1479	79.92	-0.2468	-0.0253	0.2216	1619.5102	0.181272	-424.248231	-424.238554	-424.23761	-424.284414	34.36	
C	 0.2486141455	 1.6083008006	 0.0963490899	-0.396928
C	 0.1691263177	 0.0901004432	 0.0560639032	 0.155471
C	 0.7074434059	-0.5663284988	-1.2209435683	-0.254606
C	 1.1571853102	-1.9450936394	-0.7152380745	-0.016246
C	 2.1681889891	-2.6684896981	-1.6145928911	-0.303963
C	 2.5034350832	-4.0528260808	-1.1042685849	 0.163666
O	 3.6138741709	-4.4567163162	-0.8759398659	-0.237597
C	 1.6941974012	-1.5850138072	 0.6820598745	-0.068871
O	 0.9578825333	-0.4521799678	 1.1258197196	-0.277617
H	 1.2786214839	 1.9429800623	-0.0621813444	 0.118425
H	-0.386881697	 2.0490535868	-0.6789322738	 0.112023
H	-0.087120746	 1.9818163686	 1.067659998	 0.127823
H	-0.878391637	-0.2189637526	 0.2080660352	 0.067794
H	-0.0391759751	-0.6194404382	-2.0177100644	 0.103757
H	 1.5696193884	-0.0031129146	-1.5999717636	 0.102525
H	 0.2687624484	-2.5803704181	-0.5986523749	 0.083585
H	 1.730379898	-2.7904410531	-2.6160484654	 0.121311
H	 3.09579214	-2.0963586019	-1.7155656771	 0.122569
H	 1.6126483957	-4.7068035757	-0.9446735458	 0.071402
H	 1.5759005701	-2.3994982271	 1.4068609485	 0.1062
H	 2.7662319437	-1.338164542	 0.6308625752	 0.099277
42.2715	46.7181	80.6134	116.2862	197.1727	237.2196	282.5604	364.9321	399.1307	463.4469	495.7668	576.0954	646.7927	791.8928	830.9509	894.1942	901.4028	914.8032	957.8551	1000.9807	1022.5951	1048.7441	1077.0176	1116.7436	1137.578	1150.6673	1161.0321	1205.1262	1210.4203	1256.5367	1269.941	1308.5464	1342.0841	1360.2992	1369.8251	1394.0475	1406.3155	1414.1431	1429.1088	1461.0157	1484.3588	1489.3361	1498.3428	1529.024	1836.5167	2845.1918	2957.7473	2981.684	3011.2758	3013.6543	3033.419	3037.9819	3047.5053	3092.7049	3099.614	3109.7558	3118.4411
CC1CC(CC=O)CO1	C[C@H]1C[C@@H](CC=O)CO1	
InChI=1S/C7H12O2/c1-6-4-7(2-3-8)5-9-6/h3,6-7H,2,4-5H2,1H3	InChI=1S/C7H12O2/c1-6-4-7(2-3-8)5-9-6/h3,6-7H,2,4-5H2,1H3/t6-,7+/m0/s1
