18
gdb 115701	2.40497	1.43515	1.1168	5.2069	67.69	-0.245	0.0189	0.264	1123.0001	0.149188	-476.233922	-476.225561	-476.224617	-476.26734	30.979	
N	-0.1908651674	 1.3731709813	 0.7753464997	-0.521401
H	-0.0767036103	 0.3659700374	 0.8441740932	 0.258566
H	-0.4136289405	 2.1652401861	 2.2591620981	 0.33129
H	 0.5534891274	 1.7404855434	 0.1924445241	 0.251997
C	-1.5115417455	 1.6484555184	 0.1913862501	-0.206049
C	-2.5975646779	 1.0428474298	 1.0731522574	 0.12406
O	-2.255945907	-0.3148680051	 1.4458741385	-0.300734
C	-2.3072193948	 0.0044127483	 2.8559834893	-0.092197
C	-2.7727211321	 1.4534005863	 2.570225231	-0.180345
C	-2.0308091137	 2.6004839888	 3.2607306615	 0.369456
O	-2.6087740928	 3.310598027	 4.0462181049	-0.336904
O	-0.7299533571	 2.7485516892	 3.0102492192	-0.391893
H	-1.6568312906	 2.7323528945	 0.1225655382	 0.133535
H	-1.6182730735	 1.2336598181	-0.8214577639	 0.114979
H	-3.5480159093	 1.0756233529	 0.5266757025	 0.093111
H	-3.0239639437	-0.625349263	 3.3918836607	 0.121577
H	-1.3216656815	-0.0826925533	 3.3279636545	 0.115172
H	-3.8231543299	 1.6030667298	 2.8138341109	 0.115779
73.9707	98.0065	176.4321	226.1109	277.4802	289.927	333.6152	418.5447	453.1849	566.7889	670.847	741.8773	776.0205	802.8296	871.5201	912.2105	962.8863	981.8388	1009.8918	1034.8281	1051.5963	1056.3059	1079.6685	1138.3644	1169.0157	1180.2244	1250.6885	1281.1816	1298.8249	1320.1221	1329.8918	1367.9479	1394.9991	1419.3735	1495.1661	1501.4295	1525.4833	1625.4449	1835.2938	2995.2763	3028.3738	3033.3569	3049.3935	3074.6791	3083.1577	3128.6441	3504.032	3589.2232
[NH3+]CC1OCC1C([O-])=O	NC[C@H]1OC[C@H]1C(=O)O	
InChI=1S/C5H9NO3/c6-1-4-3(2-9-4)5(7)8/h3-4H,1-2,6H2,(H,7,8)	InChI=1S/C5H9NO3/c6-1-4-3(2-9-4)5(7)8/h3-4H,1-2,6H2,(H,7,8)/t3-,4-/m1/s1
