19
gdb 98899	3.62492	1.04124	0.93091	2.0652	71.91	-0.2525	0.0101	0.2626	1315.95	0.159779	-460.199393	-460.190322	-460.189378	-460.23483	31.761	
C	 0.1959612837	 1.3484531523	 0.1040607023	-0.240554
O	 0.060156355	-0.0685990728	-0.0635848252	-0.235153
C	 0.7142245402	-0.5917724941	-1.1225227989	 0.439482
O	 1.3602025853	 0.0715627018	-1.8935808113	-0.352195
C	 0.5026050221	-2.0976201826	-1.1770954202	-0.132845
C	 1.2170067896	-2.7501301858	-2.3833107484	-0.256416
C	 2.2805969887	-3.6625584982	-1.729388036	-0.071912
O	 2.4464469434	-3.1808062273	-0.4025094094	-0.236104
C	 1.1582932241	-2.8080194545	 0.0387880887	-0.092556
H	 1.2451779694	 1.6216335529	 0.2413725486	 0.143011
H	-0.1924812091	 1.8784680831	-0.7692157845	 0.140961
H	-0.3837528918	 1.5993729278	 0.9924441639	 0.132979
H	-0.5772217956	-2.2680277325	-1.172813479	 0.104058
H	 0.5268724438	-3.3164372285	-3.0120829274	 0.101975
H	 1.6777909665	-1.9704961226	-2.9915373712	 0.142156
H	 1.939754844	-4.7104452378	-1.7133884645	 0.087572
H	 3.254643835	-3.6244936124	-2.222242641	 0.114528
H	 1.2597465814	-2.1703500928	 0.9184042754	 0.122377
H	 0.5623565643	-3.6942319459	 0.3126262383	 0.088637
35.6698	53.8848	120.6025	136.024	199.0168	235.7831	322.0217	341.9179	424.1014	610.7473	651.45	691.6328	801.8162	837.1728	869.6207	927.2918	951.7539	959.0569	987.4544	1028.2377	1099.5834	1115.2533	1129.9475	1180.0666	1196.8987	1208.3386	1220.815	1230.2313	1250.5551	1284.0531	1312.5321	1352.6519	1370.9001	1404.3135	1473.2582	1481.9527	1495.2262	1498.1565	1510.9042	1525.0872	1818.7591	2965.1955	2973.933	3052.2033	3074.624	3083.9404	3100.5354	3118.833	3127.2855	3135.2182	3158.5626
COC(=O)C1CCOC1	COC(=O)[C@H]1CCOC1	
InChI=1S/C6H10O3/c1-8-6(7)5-2-3-9-4-5/h5H,2-4H2,1H3	InChI=1S/C6H10O3/c1-8-6(7)5-2-3-9-4-5/h5H,2-4H2,1H3/t5-/m0/s1
