21
gdb 114278	3.0505	1.22811	1.1014	1.3268	84.87	-0.2248	0.0097	0.2346	1222.0614	0.183073	-387.065742	-387.057221	-387.056277	-387.09904	32.638	
C	 0.0872525779	 1.5023334368	 0.1501752109	-0.387814
C	-0.0836930353	-0.0004544884	-0.0927562668	-0.164485
C	 0.6858168307	-0.5051783308	-1.3077947008	-0.03744
C	 2.2483652294	-0.6718182269	-1.0880845584	-0.333531
C	 1.93009806	-2.1245216852	-0.8143653266	 0.233294
C	 1.8873088687	-3.0307107623	 0.1548574712	-0.237482
C	 0.5489811314	-3.749761685	 0.0449394653	-0.105954
O	-0.2564544317	-2.9346845153	-0.831644465	-0.278433
C	 0.6224295421	-2.07394347	-1.5289913456	 0.079952
H	 1.1368889036	 1.7674411534	 0.3183197237	 0.113759
H	-0.2659834021	 2.0858817143	-0.7073884636	 0.113477
H	-0.4795524288	 1.8265531854	 1.0285835355	 0.113071
H	 0.2347337439	-0.5606000333	 0.7947328801	 0.099062
H	-1.1454400308	-0.2358635026	-0.2309745572	 0.107905
H	 0.4217347259	 0.0746662057	-2.1980779367	 0.06827
H	 2.8074362735	-0.5003426897	-2.0124068585	 0.112742
H	 2.7143368543	-0.1041674833	-0.2794735762	 0.113225
H	 2.5666801466	-3.1720792308	 0.9859304963	 0.101583
H	 0.6246776392	-4.7710879309	-0.3621591192	 0.102896
H	 0.0472922373	-3.8201243489	 1.0187671186	 0.110688
H	 0.6290343643	-2.3159586123	-2.6013516869	 0.075214
87.0889	105.0887	159.4337	207.6146	239.1097	283.5232	350.3816	400.2981	516.548	656.7368	727.6666	750.5678	768.1109	786.4036	821.5461	837.8803	909.3411	924.4445	952.3971	971.8978	978.5048	1027.9672	1044.6705	1056.4251	1099.3391	1124.3435	1139.8317	1153.3472	1192.1621	1198.8463	1237.724	1252.0745	1274.3291	1308.2078	1329.6841	1342.5416	1377.7818	1390.2583	1411.5675	1477.2369	1485.5257	1499.1042	1505.3607	1516.3331	1726.4468	2970.4911	2995.3638	3029.1044	3031.696	3032.3415	3047.6881	3059.0423	3066.0879	3096.8584	3100.9438	3111.6986	3212.8948
CCC1CC2=CCOC12	CC[C@H]1C[C]2[CH]CO[C@@H]12	
InChI=1S/C8H12O/c1-2-6-5-7-3-4-9-8(6)7/h3,6,8H,2,4-5H2,1H3	InChI=1S/C8H12O/c1-2-6-5-7-3-4-9-8(6)7/h3,6,8H,2,4-5H2,1H3/t6-,8-/m0/s1
