20
gdb 95688	2.98762	1.23566	0.93958	4.3772	76.42	-0.2323	0.0222	0.2546	1267.9328	0.172273	-440.324014	-440.315272	-440.314328	-440.35746	33.302	
C	-0.1064730632	 1.5461662137	 0.0722502597	-0.39827
C	 0.0081433611	 0.0290029394	-0.0147773023	 0.133834
C	 0.5935931914	-0.4301760542	-1.3554771401	-0.176633
C	 0.6686125717	-1.9514239832	-1.5196966967	-0.19143
N	 1.6719653309	-2.600687796	-0.6865949731	-0.290971
C	 1.7069084962	-2.6651635822	 0.6784223575	 0.367944
O	 2.4607776946	-3.4170121373	 1.2684235034	-0.362365
C	 0.7471278031	-1.7419265854	 1.4424824991	-0.18362
O	 0.810275751	-0.3781331723	 1.0866346416	-0.250837
H	 0.8813786807	 2.0077567669	-0.0211764558	 0.12851
H	-0.747272292	 1.9332510306	-0.725485805	 0.113357
H	-0.5301145589	 1.8389975285	 1.0360155621	 0.125699
H	-0.9964577663	-0.4180076802	 0.0969537135	 0.063516
H	-0.0373589664	-0.0329735136	-2.1601868179	 0.098937
H	 1.5949818501	-0.0013924588	-1.4762751445	 0.112297
H	-0.3273301249	-2.3879933216	-1.3474388177	 0.109497
H	 0.9308194329	-2.1845455785	-2.5549691276	 0.116657
H	 2.295867503	-3.2592939268	-1.1290084919	 0.247015
H	-0.2822858733	-2.1277463062	 1.3429530335	 0.100384
H	 1.0394333683	-1.8178906326	 2.4913106721	 0.136479
65.8682	129.3402	214.1069	228.6631	268.1744	312.8855	328.4808	363.207	453.385	487.9777	509.0089	563.8998	603.32	702.043	774.7166	835.3644	889.1336	920.0683	964.0127	999.189	1025.8813	1071.2225	1121.8024	1143.8348	1160.7853	1178.8692	1240.7517	1276.8272	1290.698	1339.5161	1363.5311	1378.1145	1396.902	1398.9365	1410.1018	1416.7867	1457.4201	1472.786	1474.4075	1484.2504	1500.4793	1507.3454	1787.7059	2937.4693	2960.3071	2986.9735	3030.2853	3044.7159	3081.6481	3090.1929	3117.4488	3118.8324	3126.1544	3613.4867
CC1CCNC(=O)CO1	C[C@H]1CCNC(=O)CO1	
InChI=1S/C6H11NO2/c1-5-2-3-7-6(8)4-9-5/h5H,2-4H2,1H3,(H,7,8)	InChI=1S/C6H11NO2/c1-5-2-3-7-6(8)4-9-5/h5H,2-4H2,1H3,(H,7,8)/t5-/m0/s1
