18
gdb 54725	3.05888	1.34323	1.30989	1.8262	75.27	-0.2254	-0.0198	0.2056	1063.5516	0.146156	-401.865422	-401.857181	-401.856237	-401.898806	31.14	
C	 0.3403183598	 0.9473378635	 1.2270215921	-0.475271
C	 0.1213035921	 0.1344073086	-0.0368537911	 0.323776
O	 0.784149033	 0.2937070116	-1.0349706945	-0.296717
C	-1.0454616783	-0.832505958	 0.0116770198	-0.103409
C	-1.2409927106	-2.1343545931	-0.7003660383	-0.116523
C	-0.0904526414	-3.1409201365	-0.5049247633	-0.020892
C	 1.0155503222	-2.7109368614	 0.3706710331	-0.253253
N	-0.2513746355	-3.1385739445	 0.9967305338	-0.143422
C	-1.3235658847	-2.0861591434	 0.8161890486	-0.037267
H	 1.1381775084	 1.6743351484	 1.0706207317	 0.142265
H	-0.5829421866	 1.4642417863	 1.5124531034	 0.137637
H	 0.5970573371	 0.2833896006	 2.0600574302	 0.148553
H	-1.9698806338	-0.2491142742	 0.000124765	 0.12012
H	-2.0306643633	-2.2982637256	-1.4213670569	 0.102175
H	-0.0677222835	-4.0802388779	-1.0472226215	 0.104558
H	 1.8055964591	-3.4380087287	 0.5400605358	 0.125797
H	 1.3517066832	-1.6847120054	 0.4187987149	 0.136332
H	-2.1758311671	-2.1591277503	 1.4803519271	 0.10554
53.133	113.6369	128.5005	171.1699	306.6779	362.3086	431.2395	534.2519	580.1423	640.097	686.1677	706.2106	738.6516	744.3709	853.7619	894.6892	904.6533	926.3207	979.9068	999.6334	1019.7699	1043.3252	1059.446	1063.1404	1091.6885	1100.4457	1130.9339	1138.6349	1211.1326	1235.7435	1275.2581	1329.7015	1350.9031	1379.7488	1427.3335	1461.8344	1473.6218	1506.8248	1804.575	3036.3984	3082.7816	3097.3534	3132.6254	3151.9699	3166.2939	3185.1747	3203.3981	3239.6326
CC(=O)C1C2C3CN3C12	CC(=O)[C@H]1[C@H]2[C@H]3CN3[C@@H]12	
InChI=1S/C7H9NO/c1-3(9)5-6-4-2-8(4)7(5)6/h4-7H,2H2,1H3	InChI=1S/C7H9NO/c1-3(9)5-6-4-2-8(4)7(5)6/h4-7H,2H2,1H3/t4-,5+,6-,7+,8?/m1/s1
