18
gdb 52105	4.07786	0.93216	0.90936	3.9621	74.48	-0.2595	0.0251	0.2846	1343.7817	0.146843	-439.039123	-439.030509	-439.029565	-439.073494	31.256	
N	-0.4204764535	 1.0675986124	-0.3578126912	-0.439474
C	-0.6069990725	-0.1727248419	-0.4906516663	 0.128591
O	-0.4013943816	-0.9939098247	 0.5651564269	-0.183688
C	-0.7019999121	-2.3760411129	 0.3597089262	-0.225426
C	-2.1693640902	-2.647526788	 0.4200383652	 0.423222
C	-3.1353479195	-2.5441941777	 1.6127103899	-0.286008
C	-4.0114675799	-3.6581792385	 0.9366958354	-0.238675
C	-3.0018832453	-3.6851721469	-0.2193002839	-0.044377
O	-2.9436746596	-2.3587938717	-0.7587564624	-0.285846
H	-0.6004593051	 1.5388352487	-1.2420669775	 0.229129
H	-0.927830109	-0.6976175075	-1.3984936175	 0.10585
H	-0.3036849584	-2.7235474512	-0.6019602436	 0.117889
H	-0.1811148751	-2.9027894569	 1.1637460971	 0.126711
H	-2.6927028318	-2.8728094733	 2.5557273808	 0.112476
H	-3.5932001471	-1.5627385146	 1.7458282815	 0.124668
H	-4.0300544568	-4.5851963045	 1.5141531695	 0.110676
H	-5.0289757218	-3.3846285117	 0.6498873453	 0.118346
H	-2.7367244906	-4.4988056892	-0.8856909153	 0.105935
51.8211	69.9056	119.2315	171.9443	236.4626	308.0151	368.333	406.4291	494.2493	636.2669	713.2887	730.7204	772.8416	822.6643	873.6567	918.1124	928.9222	947.1227	959.3648	980.0439	1037.4809	1046.2624	1072.4713	1124.138	1153.2541	1193.0704	1211.7707	1221.3582	1248.7379	1264.8698	1294.3627	1333.6159	1389.3552	1423.7596	1453.96	1464.9039	1481.478	1491.9957	1746.0218	3028.8193	3054.6591	3070.3941	3078.4491	3101.8768	3123.5146	3140.1589	3180.1123	3516.398
N=COCC12CCC1O2	[NH][CH]OC[C@]12CC[C@H]1O2	
InChI=1S/C6H9NO2/c7-4-8-3-6-2-1-5(6)9-6/h4-5,7H,1-3H2	InChI=1S/C6H9NO2/c7-4-8-3-6-2-1-5(6)9-6/h4-5,7H,1-3H2/t5-,6-/m1/s1
