16
gdb 14071	3.57105	1.68537	1.40699	1.4768	67.27	-0.2458	-0.0289	0.2169	926.8081	0.128636	-383.724238	-383.716446	-383.715502	-383.756452	28.496	
C	-0.0922150186	 1.4800044016	-0.0587671296	-0.402354
C	 0.0727637498	-0.0227943923	-0.0590727745	-0.076155
C	 1.445850857	-0.6486717008	-0.1212044478	-0.35531
C	 0.659097082	-0.6951002476	 1.1580047002	 0.322734
O	 1.033976551	 0.0071612371	 2.349339147	-0.315411
C	 0.5422001312	-1.0530174684	 3.2056769507	-0.191752
C	 0.1442034635	-1.854053762	 1.9518620177	 0.278815
O	-0.352404013	-2.9149634028	 1.7158275614	-0.294856
H	 0.6948628836	 1.9602230083	 0.5286032994	 0.136305
H	-0.0513226578	 1.8752779043	-1.0789734142	 0.123846
H	-1.0536443567	 1.7684302504	 0.3777630299	 0.12585
H	-0.7252210419	-0.5858412308	-0.5373626354	 0.109407
H	 1.5862160961	-1.5799683717	-0.6598186739	 0.134263
H	 2.3010519698	 0.0199492948	-0.1156709777	 0.133171
H	 1.3322437864	-1.4989663785	 3.8200858658	 0.136128
H	-0.2909411624	-0.7315198216	 3.840990101	 0.135319
112.5836	119.8166	163.0273	189.0005	259.1473	349.3997	444.6715	517.5744	553.0688	614.9216	731.2513	771.6555	848.5332	873.6259	918.5976	986.3501	996.1512	1011.9772	1034.2653	1062.8657	1101.6783	1131.1972	1137.7262	1183.2393	1214.66	1284.2973	1309.8339	1401.2528	1421.9128	1463.3946	1483.4558	1490.2668	1501.6922	1912.8173	3033.5356	3038.5456	3087.2293	3101.7249	3117.0466	3127.5886	3142.2251	3220.8054
CC1CC11OCC1=O	C[C@H]1C[C@]21OCC2=O	
InChI=1S/C6H8O2/c1-4-2-6(4)5(7)3-8-6/h4H,2-3H2,1H3	InChI=1S/C6H8O2/c1-4-2-6(4)5(7)3-8-6/h4H,2-3H2,1H3/t4-,6+/m0/s1
