26
gdb 7455	2.70599	1.31542	1.11592	0.0829	88.16	-0.2924	0.0763	0.3687	1274.8404	0.244372	-315.48839	-315.47737	-315.476426	-315.524083	40.965	
C	-1.3319989536	-0.3467306339	-0.3793966147	-0.390815
C	 0.1115608535	 0.0942953445	-0.0905879741	 0.034055
C	 0.2171312732	 1.6279182468	-0.1097304264	-0.401088
C	 0.7090908822	-0.5188607562	 1.2088789292	 0.060197
C	-0.0781021709	-0.0973614414	 2.4631240815	-0.412692
C	 0.8849522029	-2.0625777097	 1.1443770874	 0.042433
C	 1.6366606709	-2.5315298534	-0.112471458	-0.399293
C	 1.6063447199	-2.6060567004	 2.3902470843	-0.396653
H	-2.0239623474	 0.0098921823	 0.3910863688	 0.113767
H	-1.6730357162	 0.0627894178	-1.3362027876	 0.108106
H	-1.4289044204	-1.4353606443	-0.4353270316	 0.112111
H	 0.7331992713	-0.2600015854	-0.9205862482	 0.072654
H	-0.448283835	 2.098862056	 0.6214122554	 0.114312
H	 1.2386139718	 1.9609311333	 0.1046050007	 0.106843
H	-0.0602255414	 2.0185044773	-1.0947262128	 0.107267
H	 1.7224085459	-0.0966711413	 1.2998273325	 0.059957
H	-1.0497318283	-0.6012423105	 2.5141137325	 0.112548
H	 0.4657345526	-0.338982827	 3.379208316	 0.114474
H	-0.26235965	 0.9800391731	 2.4784027666	 0.111238
H	-0.1168424869	-2.5152668232	 1.1241300343	 0.070158
H	 1.8218837123	-3.6097778783	-0.065896723	 0.105779
H	 1.0821128065	-2.3385873615	-1.0341557675	 0.11602
H	 2.6110870687	-2.0347782541	-0.1978667754	 0.109487
H	 1.0474371444	-2.4266837014	 3.3117239216	 0.113577
H	 1.7570546194	-3.6872682277	 2.3055177547	 0.106822
H	 2.5951853947	-2.1439859913	 2.502385244	 0.108736
41.2883	70.6428	179.219	191.1009	207.5136	228.8492	241.4113	247.611	278.5011	312.2385	360.3404	397.5529	415.1066	437.1212	470.5986	568.719	752.9645	816.4435	898.197	924.5579	928.6151	938.0007	966.7812	969.8128	982.6387	1006.9982	1055.0221	1091.1086	1146.6385	1181.1272	1187.9615	1195.8313	1210.8686	1299.4089	1324.2772	1351.0615	1354.0778	1378.7798	1384.0213	1398.3158	1402.8719	1411.2884	1423.033	1424.8854	1484.3988	1487.4197	1490.2079	1493.6553	1501.5568	1504.5498	1508.3333	1510.4336	1515.6807	1524.4729	2973.6063	3001.7759	3024.3703	3026.3238	3029.2859	3033.8971	3036.5665	3043.5878	3085.7446	3090.6912	3092.903	3094.4451	3098.2482	3104.1249	3108.1761	3111.966	3113.2169	3124.0437
CC(C)C(C)C(C)C	CC(C)C(C)C(C)C	
InChI=1S/C8H18/c1-6(2)8(5)7(3)4/h6-8H,1-5H3	InChI=1S/C8H18/c1-6(2)8(5)7(3)4/h6-8H,1-5H3
