20
gdb 96010	2.49268	1.54867	1.17453	2.007	74.32	-0.242	0.0839	0.3259	1116.6144	0.172286	-440.257462	-440.248961	-440.248017	-440.291052	31.833	
C	-0.2988066657	 1.583401568	-0.0548219274	-0.424991
C	 0.1886729503	 0.1472969645	-0.0644224076	 0.093347
O	 1.4063085247	 0.0568765388	-0.8078488834	-0.242388
C	 1.9601931194	-1.1605822242	-0.4047301525	 0.012652
O	 1.7519613665	-1.2560030405	 0.9926561476	-0.272599
C	 0.5822452198	-0.4929324503	 1.3064296373	 0.062147
C	 0.8914914684	 0.4943603743	 2.4141602213	 0.002885
C	 1.9844957061	 0.2375149967	 3.379727825	-0.249206
N	 2.1147968639	 1.3054307517	 2.3683604862	-0.318832
H	 0.4312030445	 2.2420355629	 0.4205239658	 0.156771
H	-0.4663747787	 1.9226734708	-1.0804026314	 0.128337
H	-1.2469713718	 1.6602237634	 0.4863887475	 0.120184
H	-0.5651681778	-0.4994013168	-0.5428584345	 0.073369
H	 1.4687717332	-2.0084454905	-0.9164947829	 0.086802
H	 3.0334606874	-1.1626036081	-0.6144422809	 0.120457
H	-0.2155437742	-1.1684059312	 1.6454345462	 0.082417
H	 0.0150096467	 1.0388959759	 2.7610101666	 0.091399
H	 1.8922199906	 0.5862000677	 4.4041936359	 0.114186
H	 2.5678202751	-0.6669517925	 3.2430211785	 0.127798
H	 2.6956024315	 0.9568710996	 1.6079169327	 0.235266
59.7354	94.1398	188.4029	227.8429	243.6175	266.51	311.0442	411.7145	506.9949	559.2058	704.9614	746.413	783.6211	852.9594	856.0888	897.406	949.3075	968.9317	978.8494	1028.8302	1049.0276	1087.2702	1111.6708	1121.0184	1144.6688	1147.0526	1157.2981	1196.7774	1199.5893	1240.9281	1265.6634	1301.6306	1308.2876	1339.3168	1375.2814	1391.732	1412.8576	1424.9179	1432.645	1488.6843	1499.2207	1504.2101	1540.0973	2934.86	2962.6408	3007.3117	3048.7166	3089.8952	3116.8911	3119.152	3124.9411	3138.5848	3213.2678	3491.9184
CC1OCOC1C1CN1	C[C@H]1OCO[C@H]1[C@H]1CN1	
InChI=1S/C6H11NO2/c1-4-6(5-2-7-5)9-3-8-4/h4-7H,2-3H2,1H3	InChI=1S/C6H11NO2/c1-4-6(5-2-7-5)9-3-8-4/h4-7H,2-3H2,1H3/t4-,5-,6-/m1/s1
