20
gdb 86326	1.83959	1.79177	1.16818	5.4058	75.55	-0.2544	0.017	0.2715	1145.8711	0.171423	-440.310662	-440.301688	-440.300743	-440.344063	34.063	
C	-0.6793714719	 0.8288840439	-1.5791125187	-0.427568
C	 0.2726209642	-0.1588571926	-0.9292403813	 0.064095
N	 1.7319381758	 0.0268893163	-1.1771688889	-0.361222
H	 2.1166688857	-0.4178559822	-2.0060590021	 0.223842
H	 1.6702421761	 1.768963223	-0.3103780527	 0.304875
C	 2.021405548	-0.6254929603	 0.1328680966	 0.06408
C	 3.305653446	-0.2343782225	 0.8413250002	-0.427552
C	 0.6130198921	-0.1264867646	 0.597738887	-0.195704
C	 0.6225899272	 1.2747715789	 1.1978340707	 0.427787
O	 0.0714916724	 1.5545537874	 2.2282299053	-0.33404
O	 1.3008579693	 2.2052092214	 0.4889155077	-0.382386
H	-0.4277990225	 1.863607834	-1.3372141122	 0.142272
H	-0.6566663799	 0.7149222878	-2.6684664283	 0.118848
H	-1.7047551995	 0.6361999529	-1.2471705085	 0.131287
H	-0.0432406356	-1.1845516908	-1.1754082257	 0.080496
H	 1.9718127178	-1.7222067682	 0.0483376266	 0.080499
H	 3.3876163881	 0.8457860558	 0.9791402018	 0.142235
H	 3.3524151653	-0.712486627	 1.8251795399	 0.131312
H	 4.1735814255	-0.5746192142	 0.2658956087	 0.118849
H	 0.0401289358	-0.7762248988	 1.2556545839	 0.097994
96.6911	164.4859	194.7518	198.5815	214.5465	219.511	292.2509	374.9936	433.9408	476.9081	488.5299	581.9946	700.8921	733.6389	805.4597	826.8109	868.9372	870.1791	908.5848	937.5289	1022.3305	1034.9834	1066.9267	1071.9794	1134.6217	1139.3407	1165.575	1190.8231	1234.8107	1253.94	1307.8644	1355.6158	1358.9348	1377.0834	1402.3059	1417.445	1427.3531	1445.6726	1492.9091	1493.5133	1499.8286	1503.4265	1860.4801	2975.7552	2980.2275	3039.5456	3039.9195	3102.5302	3102.6238	3133.6106	3133.9574	3144.5192	3446.5596	3499.6056
CC1[NH2+]C(C)C1C([O-])=O	C[C@H]1N[C@@H](C)[C@H]1C(=O)O	
InChI=1S/C6H11NO2/c1-3-5(6(8)9)4(2)7-3/h3-5,7H,1-2H3,(H,8,9)	InChI=1S/C6H11NO2/c1-3-5(6(8)9)4(2)7-3/h3-5,7H,1-2H3,(H,8,9)/t3-,4+,5+
