23
gdb 106627	2.49107	1.44937	1.25579	0.9332	85.13	-0.24	0.088	0.328	1163.1731	0.206811	-388.279839	-388.270938	-388.269994	-388.313116	34.948	
C	-0.0907175149	 1.3501595727	 0.0255436129	-0.260808
O	 0.1472212817	-0.0419622412	 0.0227163908	-0.30336
C	 0.7197880909	-0.5399892187	-1.1428993414	 0.447382
C	-0.0121310261	-0.5483798186	-2.5271625153	-0.294509
C	 0.9824423882	-1.7146150442	-2.7922473121	-0.042646
C	 2.3363838831	-0.9733102633	-2.804140427	-0.214348
C	 2.1411174199	-0.0711678662	-1.5450602563	-0.278218
C	 0.7957878537	-2.0861688069	-1.2864086755	-0.001086
C	 1.8022344492	-2.9217142095	-0.5108077722	-0.444289
H	 0.8408595665	 1.932577495	-0.0077841999	 0.109219
H	-0.7224870534	 1.6568527761	-0.8208584837	 0.10883
H	-0.6137783111	 1.5825648309	 0.9562282863	 0.12519
H	-1.0486543933	-0.8810248811	-2.4415403373	 0.097877
H	 0.059951883	 0.3370975014	-3.1655681696	 0.082158
H	 0.8023874198	-2.4443165486	-3.5811428565	 0.058823
H	 3.1900742296	-1.6501117528	-2.7118089262	 0.097462
H	 2.473627264	-0.3910791703	-3.7198900347	 0.094022
H	 2.1740880541	 0.9946438193	-1.7861283064	 0.093318
H	 2.8736214433	-0.2587013748	-0.7555500925	 0.099895
H	-0.2104855461	-2.4907150989	-1.1360568483	 0.072371
H	 2.8322026954	-2.5772783891	-0.6380094236	 0.114476
H	 1.5743072192	-2.8950777778	 0.5600760402	 0.125555
H	 1.7634481033	-3.9687719032	-0.8309636217	 0.112687
77.2388	154.3003	173.563	205.2972	257.6582	270.5411	322.1211	380.5587	450.6878	483.7861	567.1726	599.1705	686.8277	749.2084	807.9069	850.4585	874.859	895.4609	940.6277	958.8331	975.0266	1014.6302	1023.3637	1057.0275	1080.9574	1097.7091	1138.3244	1149.4267	1177.7437	1180.3962	1183.4548	1204.5741	1225.0439	1237.0868	1252.124	1265.8105	1280.2414	1323.7506	1338.4854	1404.3903	1417.7503	1482.5901	1486.4277	1490.4774	1492.213	1505.72	1507.8482	1510.6191	1527.9997	2987.8672	3034.7988	3037.4087	3051.2514	3053.0491	3056.0183	3064.2981	3089.152	3094.652	3106.351	3113.2125	3114.557	3116.565	3122.951
COC12CC(CC1)C2C	CO[C@@]12C[C@@H](CC1)[C@H]2C	
InChI=1S/C8H14O/c1-6-7-3-4-8(6,5-7)9-2/h6-7H,3-5H2,1-2H3	InChI=1S/C8H14O/c1-6-7-3-4-8(6,5-7)9-2/h6-7H,3-5H2,1-2H3/t6-,7-,8-/m1/s1
