22
gdb 108330	2.6574	1.48658	1.23418	1.5712	85.17	-0.2212	0.0797	0.301	1137.8962	0.195151	-367.150387	-367.142067	-367.141123	-367.182922	33.488	
C	 0.0327711754	 1.5639069313	 0.0102091506	-0.382244
C	-0.00707145	 0.0303262973	-0.0008530501	-0.285401
C	-1.4147635542	-0.5319658363	 0.0107337822	 0.395096
C	-2.2781987279	-0.4007242403	 1.3073869266	-0.277989
C	-2.5267777926	-1.9419185162	 1.3023094748	-0.224124
C	-1.6836864406	-2.075826005	 0.0011035911	-0.096521
C	-2.4115868955	-1.9099099792	-1.3508398049	-0.054546
N	-3.5436195247	-0.973233188	-1.1428602086	-0.338562
C	-2.1765969511	-0.4381381899	-1.340532022	-0.115389
H	 1.0630316268	 1.9330102084	 0.0075786189	 0.11118
H	-0.4724465117	 1.9839923438	-0.8662290395	 0.114079
H	-0.4637543993	 1.9654958457	 0.8997412645	 0.121521
H	 0.5238629621	-0.3455432788	-0.8865610454	 0.090707
H	 0.5389329477	-0.3564241735	 0.8696002932	 0.09221
H	-1.699347891	-0.0508214553	 2.1672542633	 0.086542
H	-3.175857271	 0.2106369848	 1.2070921487	 0.107702
H	-2.0824895623	-2.4613580256	 2.1549328105	 0.089063
H	-3.5713970916	-2.2404981073	 1.2056335895	 0.109855
H	-0.8516981668	-2.7818980777	-0.0134179213	 0.060938
H	-2.435010859	-2.6113591401	-2.1767369308	 0.085873
H	-4.0305097606	-0.8901466148	-2.0345394514	 0.227411
H	-1.972420222	 0.2479043568	-2.15561772	 0.0826
110.9962	158.7056	171.6771	220.4667	290.4271	332.0113	333.5971	436.6401	548.445	623.4502	686.3017	732.1437	780.7941	796.1408	811.1786	831.2496	876.0306	908.1303	935.3867	940.7513	956.642	991.0564	1003.3416	1016.1254	1033.8578	1071.9953	1100.6979	1120.5677	1133.838	1147.1805	1193.5461	1220.3545	1238.2041	1250.2842	1263.8662	1274.1929	1305.753	1330.7825	1339.8962	1361.9123	1378.3311	1410.4579	1457.3729	1475.7151	1485.0205	1499.9232	1505.6641	3007.0625	3033.7575	3040.2488	3054.0363	3066.8592	3095.9209	3100.1984	3104.1538	3118.7157	3134.2165	3161.8183	3178.6833	3474.6362
CCC12CCC1C1NC21	CC[C@]12CC[C@H]1[C@H]1N[C@@H]21	
InChI=1S/C8H13N/c1-2-8-4-3-5(8)6-7(8)9-6/h5-7,9H,2-4H2,1H3	InChI=1S/C8H13N/c1-2-8-4-3-5(8)6-7(8)9-6/h5-7,9H,2-4H2,1H3/t5-,6+,7+,8-/m0/s1
