23
gdb 123024	5.62076	0.53295	0.51165	2.3656	84.68	-0.2522	0.0877	0.3399	2251.1844	0.202725	-425.403819	-425.3928	-425.391856	-425.441588	38.273	
C	-0.2656218763	 1.4650950776	 0.0323483433	-0.382841
C	-0.120241137	-0.0549125673	-0.0716914415	-0.182525
C	 0.7950079932	-0.4747823149	-1.2133960328	-0.02688
O	 0.8690787325	-1.8847095255	-1.2424942302	-0.249856
C	 1.710772121	-2.3784553979	-2.2603508629	-0.084329
C	 1.690892883	-3.8826721117	-2.1908457838	 0.051226
O	 0.7131123178	-4.5762795111	-2.9727773576	-0.256306
C	 2.09396135	-4.7653148585	-3.2969000079	 0.076495
C	 2.5680097725	-4.2977027694	-4.6510127961	-0.420727
H	 0.701495077	 1.9487745545	 0.2095696482	 0.115303
H	-0.6845980241	 1.8902409606	-0.8864617643	 0.11661
H	-0.9292306649	 1.7405051396	 0.8569438761	 0.117943
H	 0.2794642186	-0.4644895582	 0.8630381445	 0.106109
H	-1.0998646002	-0.5220282311	-0.2235697933	 0.110725
H	 0.4094303557	-0.0920864278	-2.1747577592	 0.084149
H	 1.8022743278	-0.041227746	-1.0783925425	 0.080117
H	 1.3698282503	-2.0373837346	-3.2488838634	 0.095334
H	 2.7438248203	-2.0126258743	-2.1163942836	 0.085538
H	 1.7956600753	-4.2612720466	-1.1725898333	 0.095384
H	 2.4742459498	-5.7486360018	-3.0101969985	 0.087309
H	 2.1714816852	-3.3132297765	-4.9062103723	 0.127832
H	 3.6622936408	-4.2523055942	-4.6766184423	 0.122163
H	 2.2460818619	-5.002633275	-5.4246388765	 0.131227
38.1477	49.2323	84.9759	113.8962	145.2386	164.2861	199.2855	236.5651	246.8031	351.4835	378.0523	440.9094	493.5261	553.151	764.4207	767.9836	843.9604	900.0321	910.8327	922.1701	985.039	1016.3681	1025.051	1056.7897	1098.0267	1120.4665	1153.6849	1158.7749	1175.024	1186.3679	1195.7265	1263.2687	1272.6584	1305.8914	1314.6932	1330.668	1360.3999	1406.1499	1413.0577	1416.8497	1446.3307	1473.0862	1490.9136	1491.6982	1499.6299	1501.1719	1508.2357	1516.3869	1532.5891	2935.9967	2946.3424	2965.6352	3010.2483	3031.5893	3039.7277	3040.1325	3072.5021	3076.7918	3099.4152	3099.928	3102.1805	3108.5726	3137.1154
CCCOCC1OC1C	CCCOC[C@H]1O[C@H]1C	
InChI=1S/C7H14O2/c1-3-4-8-5-7-6(2)9-7/h6-7H,3-5H2,1-2H3	InChI=1S/C7H14O2/c1-3-4-8-5-7-6(2)9-7/h6-7H,3-5H2,1-2H3/t6-,7+/m0/s1
