15
gdb 69391	3.31878	1.31689	1.0372	5.2048	69.11	-0.2449	-0.0328	0.2121	1113.4195	0.112156	-453.947134	-453.938902	-453.937958	-453.980197	30.029	
N	-0.0700155997	 1.4542084284	-0.3134491439	-0.594278
C	-0.0486645956	 0.0761997386	-0.0035599658	 0.167554
C	-0.3999867267	-0.9642125951	-1.068540512	-0.319491
C	-1.2193463291	-0.897355881	 0.17822143	-0.05514
N	-0.4951108094	-1.5445956862	 1.2787992097	-0.128111
C	-0.6259311981	-2.8251108845	 1.7798574356	 0.142447
O	 0.1321034774	-3.3484775843	 2.5544595033	-0.276992
C	 0.6066608518	-0.6252630118	 1.1867174315	 0.376495
O	 1.5767149981	-0.4652497646	 1.8575839258	-0.313045
H	-0.069195062	 2.0238413657	 0.5263514229	 0.249271
H	 0.7378087484	 1.7202490125	-0.8668598864	 0.250117
H	-0.8422753452	-0.5158373308	-1.9532153805	 0.142328
H	 0.2449666284	-1.8185756611	-1.2480163646	 0.136626
H	-2.2722381093	-0.6663491279	 0.2536171552	 0.137627
H	-1.545638149	-3.310112178	 1.392894329	 0.08459
72.0721	157.2371	162.7901	210.7121	269.8492	276.0665	336.9862	459.9933	498.1791	530.8047	667.4516	693.2453	746.4249	804.7205	873.0446	897.326	923.6228	955.4195	986.0486	1033.7412	1060.6813	1089.9508	1131.3122	1218.2881	1229.562	1278.2859	1363.6638	1412.264	1429.1051	1486.1078	1666.3979	1806.1408	1918.7368	2923.458	3124.2744	3217.8665	3229.1313	3507.1201	3582.551
NC12CC1N(C=O)C2=O	N[C@]12C[C@H]1N(C=O)C2=O	
InChI=1S/C5H6N2O2/c6-5-1-3(5)7(2-8)4(5)9/h2-3H,1,6H2	InChI=1S/C5H6N2O2/c6-5-1-3(5)7(2-8)4(5)9/h2-3H,1,6H2/t3-,5-/m1/s1
