18
gdb 79765	2.70039	2.00056	1.866	1.0165	72.4	-0.2313	0.059	0.2903	851.375	0.15147	-401.926588	-401.920176	-401.919232	-401.957002	27.152	
O	 0.0993238405	 1.3957388589	 0.3023818897	-0.433236
C	 0.0328304928	 0.0003791282	 0.0183544795	 0.097929
C	-1.4091212057	-0.4451231435	-0.1102925492	-0.078138
C	-2.1446930699	-0.0154723204	-1.3651553774	-0.068318
C	-1.3704904969	 0.8119163363	-2.3772863866	-0.242423
C	-0.0833130695	 0.0234988087	-2.5491062415	-0.038969
C	 0.6385373824	-0.4009937716	-1.3233092015	-0.086368
N	-0.232170122	-1.3681195266	-2.036370242	-0.128555
C	-1.5047947818	-1.381144916	-1.2882513612	-0.036673
H	 1.0276662502	 1.6385393835	 0.378177141	 0.283204
H	 0.5225508503	-0.5681233036	 0.8240921151	 0.06935
H	-1.9870689788	-0.606907167	 0.792008815	 0.089002
H	-3.2200765347	 0.1012356415	-1.2952155394	 0.087338
H	-1.9144196266	 0.8572526694	-3.3272633745	 0.101562
H	-1.1839954766	 1.8335960915	-2.0359684864	 0.124266
H	 0.4712028494	 0.1242101171	-3.477864322	 0.088107
H	 1.7063170382	-0.6030793612	-1.3677843672	 0.080194
H	-2.0463132713	-2.3179041252	-1.2862761313	 0.091727
168.941	260.8183	285.6522	362.314	530.8408	540.2385	651.265	672.9465	711.8925	743.9684	772.5052	808.7099	812.0695	860.2916	894.7371	919.3617	975.0912	1010.8667	1027.9767	1033.6677	1054.6031	1056.0841	1085.3644	1101.1586	1105.1454	1115.0169	1135.2485	1206.9037	1224.976	1232.1408	1287.7119	1305.1132	1312.433	1341.6363	1362.9052	1407.6428	1415.6829	1435.7614	1488.2444	2978.5837	3045.7983	3100.1556	3128.027	3148.6091	3172.4571	3180.3986	3199.844	3815.9502
OC1C2C3CC4C1N4C23	O[C@H]1[C@H]2[C@H]3C[C@H]4[C@@H]1N4[C@@H]23	
InChI=1S/C7H9NO/c9-7-4-2-1-3-6(7)8(3)5(2)4/h2-7,9H,1H2	InChI=1S/C7H9NO/c9-7-4-2-1-3-6(7)8(3)5(2)4/h2-7,9H,1H2/t2-,3+,4+,5-,6+,7+,8?/m1/s1
