19
gdb 98511	2.27226	1.38153	0.92992	1.9219	77.77	-0.2504	-0.0279	0.2225	1285.2761	0.156346	-423.05303	-423.043346	-423.042402	-423.088707	34.744	
C	-0.0081891631	 1.6007321556	 0.076913921	-0.383512
C	-0.0856392874	 0.103321899	-0.2098194408	-0.277777
C	-1.3561584848	-0.5338226868	 0.3133614937	 0.29202
O	-2.2020456192	 0.1150560683	 0.8957061863	-0.326514
C	-1.5873065241	-2.017216885	 0.1100805064	 0.14359
C	-2.4029146383	-2.702848263	 1.2291052256	-0.278585
C	-3.0693517747	-2.4233408882	-0.0520967811	-0.278548
C	-0.6320604856	-2.9161215927	-0.5831416573	 0.093717
O	 0.4301241029	-2.6164041783	-1.0710144533	-0.276696
H	 0.9235041477	 2.0145639001	-0.3184993696	 0.110543
H	-0.845649336	 2.1338257302	-0.3804506799	 0.127851
H	-0.0470275662	 1.7992248477	 1.1510705198	 0.127842
H	-0.0149533196	-0.1123836471	-1.2827111279	 0.137974
H	 0.7665734396	-0.4398356608	 0.2159508904	 0.138021
H	-2.1289063229	-3.7232491306	 1.4737751634	 0.130635
H	-2.6225312135	-2.0529562786	 2.0670161593	 0.157046
H	-3.7481731767	-1.5807960506	-0.0970926275	 0.157033
H	-3.2766918034	-3.241850124	-0.7326919359	 0.130654
H	-0.9933751946	-3.971529865	-0.6248888226	 0.074705
23.2638	88.4545	117.8612	181.257	207.434	252.8133	281.899	314.3234	351.4751	369.0427	486.7257	571.2443	622.4501	751.164	767.0693	792.1872	817.55	922.8157	933.3378	969.9923	1003.4923	1050.3636	1058.2347	1074.2442	1091.6582	1108.5665	1126.7197	1210.2628	1272.9157	1277.478	1321.7048	1384.9664	1414.0376	1420.8925	1445.3736	1454.2693	1478.6353	1494.0707	1498.5188	1771.8883	1815.4106	2844.5435	3047.0376	3051.3686	3068.829	3122.9373	3125.9506	3142.7083	3143.2111	3236.3251	3249.1836
CCC(=O)C1(CC1)C=O	CCC(=O)C1(CC1)C=O	
InChI=1S/C7H10O2/c1-2-6(9)7(5-8)3-4-7/h5H,2-4H2,1H3	InChI=1S/C7H10O2/c1-2-6(9)7(5-8)3-4-7/h5H,2-4H2,1H3
