18
gdb 33219	5.53426	0.78744	0.70558	2.3189	77.14	-0.1753	0.0429	0.2182	1564.2421	0.148327	-439.09711	-439.08828	-439.087336	-439.13176	32.204	
O	 0.0900016555	 1.2743693871	-0.3852811968	-0.422954
C	-0.0917162022	-0.0358166988	 0.1426964745	-0.093993
C	-1.5814104378	-0.3286548658	 0.1117808824	-0.130174
N	-2.0508495254	-0.2600074778	-1.2699406503	-0.408222
C	-3.3817171803	-0.5114056322	-1.5390584831	 0.444353
C	-4.2645964093	-0.0042829653	-2.4498228743	-0.304015
C	-5.4693124144	-0.7708707993	-2.2921730746	-0.156569
C	-5.2368877111	-1.6652006249	-1.3033047516	-0.034586
O	-3.9521556284	-1.5191111562	-0.8320809451	-0.182398
H	 1.0283259364	 1.415621139	-0.5376688303	 0.293512
H	 0.4389379199	-0.783198354	-0.4642523691	 0.10188
H	 0.2735739636	-0.1045090097	 1.1780667065	 0.094027
H	-1.7642154069	-1.3323921848	 0.5040015465	 0.126834
H	-2.1049631554	 0.3864596311	 0.7666413656	 0.104937
H	-1.7219140464	 0.5848805505	-1.7182341777	 0.248492
H	-4.0841031512	 0.8072830949	-3.1359937451	 0.092173
H	-6.3888519547	-0.6548693748	-2.8448233298	 0.103044
H	-5.8224950519	-2.426219979	-0.8176098478	 0.12366
47.5329	63.5141	117.9741	177.3436	257.9321	292.6406	313.6097	441.5065	486.3087	601.4958	649.7741	670.1283	710.2384	746.1016	771.2414	831.9792	885.9261	899.185	921.1333	970.0095	1028.2565	1079.5458	1090.7067	1104.5698	1133.2385	1178.7603	1205.4106	1246.4702	1270.2647	1300.9956	1310.9908	1372.6424	1418.9425	1458.4706	1481.2692	1503.8391	1512.0922	1570.7011	1653.4561	2975.8703	2988.8772	3030.8771	3098.5097	3248.8318	3263.7084	3295.4076	3588.0081	3841.8539
OCCNC1=CC=CO1	OCCNc1ccco1	
InChI=1S/C6H9NO2/c8-4-3-7-6-2-1-5-9-6/h1-2,5,7-8H,3-4H2	InChI=1S/C6H9NO2/c8-4-3-7-6-2-1-5-9-6/h1-2,5,7-8H,3-4H2
