21
gdb 105536	2.32052	1.49196	1.11232	1.6106	78.11	-0.2494	0.0765	0.3259	1183.1797	0.180978	-424.177151	-424.1678	-424.166856	-424.211876	34.555	
C	-0.4450554556	 1.2819003696	-0.3870570508	-0.253172
O	-0.0892445118	-0.0622959314	-0.1574087588	-0.302333
C	 0.6424697943	-0.3691120923	 1.014383221	 0.396648
C	 2.0653374881	 0.2315959368	 1.222253633	-0.290553
C	 1.7293107394	 0.4029250744	 2.72697291	-0.20408
C	 0.2222060523	 0.2410518728	 2.3896331087	-0.295459
C	 0.6034529355	-1.8873014799	 1.04846171	 0.059615
C	 1.5540032543	-2.7239021166	 0.3145150096	-0.184555
O	 1.6462392629	-2.5753496562	 1.7369686894	-0.237908
H	 0.4198589202	 1.9596550713	-0.372010251	 0.108316
H	-0.8893920465	 1.3159014813	-1.3850664974	 0.128027
H	-1.1876732813	 1.6504639538	 0.333843899	 0.112103
H	 2.9171163876	-0.4000459898	 0.9656822126	 0.109068
H	 2.1695444544	 1.1913258711	 0.7104288896	 0.100279
H	 2.1090570392	-0.4308377462	 3.3187639197	 0.12657
H	 2.0279784722	 1.3418551084	 3.1968053191	 0.094946
H	-0.2733315699	 1.2081674086	 2.2790697826	 0.101121
H	-0.3891219837	-0.3910599099	 3.0392747684	 0.101796
H	-0.395592978	-2.2883785027	 1.2269949635	 0.095397
H	 1.2468013935	-3.7093487489	-0.030765917	 0.117569
H	 2.3547569128	-2.2578327043	-0.2560179913	 0.116603
52.2153	72.0163	131.9903	183.1499	205.5302	246.7683	300.2921	340.788	416.524	465.5988	540.8739	595.2689	698.7257	778.6369	821.5796	876.5813	891.5528	935.8713	939.5079	964.4444	977.572	1037.7983	1071.2673	1092.1648	1112.6933	1147.525	1159.3465	1172.2079	1177.3844	1197.494	1203.5308	1227.4299	1249.9211	1274.6556	1279.7316	1292.3534	1319.1678	1433.7596	1459.7912	1473.6003	1481.2216	1492.2499	1500.053	1507.8611	1529.4296	2992.5161	3043.2717	3061.5436	3073.7791	3079.9809	3091.8477	3099.6353	3108.9933	3112.1061	3125.7526	3142.3063	3180.4189
COC1(CCC1)C1CO1	COC1(CCC1)[C@H]1CO1	
InChI=1S/C7H12O2/c1-8-7(3-2-4-7)6-5-9-6/h6H,2-5H2,1H3	InChI=1S/C7H12O2/c1-8-7(3-2-4-7)6-5-9-6/h6H,2-5H2,1H3/t6-/m1/s1
