23
gdb 67460	2.41142	1.61137	1.50603	0.2533	88.45	-0.2346	0.0828	0.3174	1072.7618	0.209079	-351.152155	-351.144234	-351.14329	-351.183955	32.806	
C	-0.0344001403	 1.5243224991	 0.0025874887	-0.50754
C	 0.011735278	 0.023804542	-0.0164501424	 0.345717
C	 0.5358197014	-0.9506984536	-1.081224343	-0.122542
C	 1.3521922434	-1.7022520261	-0.0298734065	-0.245964
C	 0.6618859363	-0.8484800519	 1.0894746541	-0.063617
C	-0.342481835	-1.5775669507	 1.9875159575	-0.210061
C	-1.2245767396	-2.5385261546	 1.1742768691	-0.201938
C	-1.8431573502	-1.8712468717	-0.069380524	-0.222851
C	-0.9466615997	-0.8546859277	-0.7639933925	-0.061396
H	 0.9534802426	 1.9558265277	 0.2054612395	 0.11211
H	-0.3800851793	 1.9204546434	-0.9584643363	 0.114589
H	-0.7187813269	 1.8970421323	 0.7754997977	 0.11525
H	 0.8872145526	-0.7190134182	-2.0815675959	 0.073565
H	 1.261105902	-2.7915670607	 0.0152342109	 0.089813
H	 2.4144228039	-1.4548888222	-0.1072854031	 0.095161
H	 1.3858535293	-0.2907756144	 1.6895882027	 0.061924
H	 0.180379216	-2.1369719617	 2.7728624769	 0.088307
H	-0.9668798119	-0.8319641545	 2.4992969025	 0.090399
H	-0.6226119399	-3.4001078676	 0.8673729839	 0.10235
H	-2.0232922513	-2.9426666449	 1.8056712738	 0.086719
H	-2.1674675167	-2.6414677165	-0.7802076433	 0.092396
H	-2.7548952595	-1.3363319911	 0.2315055809	 0.093847
H	-1.4673321553	-0.3163401365	-1.5555323111	 0.073764
148.8801	189.5832	211.0113	267.5886	300.7559	358.3559	393.2838	460.8687	537.2013	620.5129	659.6517	709.881	752.8708	804.8001	845.9719	859.7969	888.4836	923.1151	936.5052	962.019	973.7486	1021.8799	1030.6951	1053.8998	1089.1986	1106.6976	1115.6895	1133.2322	1154.1571	1179.9846	1212.643	1224.7669	1251.9013	1256.2381	1284.4179	1310.8948	1338.7997	1342.9957	1371.0634	1382.9755	1388.2053	1414.0117	1471.0627	1482.1821	1485.7844	1489.0189	1496.2983	1501.2216	1516.8099	3004.9852	3008.3518	3011.8535	3033.6707	3044.0698	3048.7509	3051.0526	3065.0501	3066.3824	3077.7499	3086.9643	3095.2175	3110.8841	3158.3119
CC12C3CC1CCCC23	C[C@@]12[C@H]3C[C@@H]1CCC[C@@H]23	
InChI=1S/C9H14/c1-9-6-3-2-4-7(9)8(9)5-6/h6-8H,2-5H2,1H3	InChI=1S/C9H14/c1-9-6-3-2-4-7(9)8(9)5-6/h6-8H,2-5H2,1H3/t6-,7+,8-,9+/m0/s1
