17
gdb 10074	2.83322	1.42649	1.0586	3.7447	65.08	-0.2698	0.035	0.3048	1113.2565	0.140649	-400.998882	-400.989691	-400.988747	-401.0334	31.677	
C	-0.0018169208	 1.3384003834	 0.0514660844	-0.245275
O	 0.075069426	-0.0744249747	-0.0072377877	-0.252636
C	 0.705122956	-0.5893789192	-1.173613953	 0.088777
C	 2.1981112193	-0.7878872133	-0.8844501981	-0.075814
O	 2.3853985761	-1.622261912	 0.2398698073	-0.416173
C	 0.0184592548	-1.9286526728	-1.4929836491	-0.342098
C	-1.4054102821	-1.7667524567	-1.7699383346	 0.26533
N	-2.5275431632	-1.628667933	-2.0076196	-0.309397
H	 0.9899634948	 1.8119701909	 0.0363942206	 0.112518
H	-0.5962423579	 1.7372638968	-0.7816893216	 0.127869
H	-0.4963339273	 1.5898759772	 0.9920424209	 0.140149
H	 0.5730595828	 0.1011647648	-2.0187436828	 0.088406
H	 2.696484206	-1.2678211392	-1.7334364897	 0.113264
H	 2.6683588137	 0.1976915782	-0.7401922263	 0.095992
H	 1.8250502555	-1.2537485278	 0.9350950914	 0.291467
H	 0.5000984207	-2.3946780455	-2.359328575	 0.150432
H	 0.1580028858	-2.6029923771	-0.6429747167	 0.167188
64.8218	78.0201	114.7035	149.7027	197.279	245.3342	314.0066	338.9092	394.6568	423.2645	485.6111	576.7081	663.0543	825.8897	897.027	915.7683	971.899	1048.9346	1092.9356	1098.0006	1138.9026	1183.527	1200.1705	1225.4922	1250.5206	1288.4384	1355.1174	1377.5287	1399.2354	1427.1684	1459.6273	1483.5315	1488.9433	1503.7955	1509.8973	2366.2364	2980.172	2994.6256	3013.4342	3051.9953	3058.6246	3075.856	3107.0829	3126.8325	3774.3417
COC(CO)CC#N	CO[C@@H](CO)CC#N	
InChI=1S/C5H9NO2/c1-8-5(4-7)2-3-6/h5,7H,2,4H2,1H3	InChI=1S/C5H9NO2/c1-8-5(4-7)2-3-6/h5,7H,2,4H2,1H3/t5-/m1/s1
