17
gdb 43095	3.14431	1.92371	1.66616	3.5216	70.06	-0.2268	-0.0073	0.2195	853.6654	0.139804	-421.83218	-421.826268	-421.825324	-421.862235	25.439	
O	-0.0106284044	 0.0266480256	-0.0187347184	-0.335152
C	-0.0249286394	 1.221645361	 0.0044472213	 0.47651
C	-1.1723710018	 2.2487724113	 0.0529879989	-0.1882
C	-0.7911706524	 2.7497095566	 1.4809036702	-0.229843
C	 0.5528779292	 3.3799465293	 1.0268558855	-0.076977
C	-0.0120284657	 4.4433965016	 0.0585830868	-0.207287
C	-0.5594914043	 3.3678480324	-0.8921953429	 0.082434
O	 0.7078513569	 2.7906324659	-1.3040308483	-0.275718
C	 1.0892154006	 2.2827328103	-0.0057921943	-0.045247
H	-2.1818335526	 1.8977665473	-0.1389404353	 0.09078
H	-1.4792305041	 3.4870818276	 1.9003980261	 0.107512
H	-0.6924350839	 1.9211083832	 2.1895330911	 0.119047
H	 1.2526735905	 3.6990312555	 1.7964209561	 0.079032
H	-0.7603809452	 5.0786165135	 0.5379909183	 0.10016
H	 0.7292322764	 5.0602808355	-0.450812964	 0.11292
H	-1.1390208831	 3.6550308703	-1.7663576587	 0.091271
H	 2.1316715234	 1.9784617831	 0.0130121677	 0.098757
166.6754	314.5163	458.7803	498.1644	521.4975	559.7661	624.23	751.8815	760.7083	787.8602	819.5966	856.4915	884.5886	890.9674	905.811	917.2869	938.7664	957.1298	963.1495	1003.4817	1048.8928	1086.5324	1117.5606	1139.9836	1166.7015	1174.7534	1198.5653	1227.7749	1243.1767	1260.2426	1281.2679	1297.0711	1315.944	1319.9871	1483.9545	1515.607	1894.2434	3055.1839	3075.3879	3108.0275	3135.286	3141.6756	3153.1891	3170.5441	3173.8672
O=C1C2CC3CC2OC13	O=C1[C@H]2C[C@@H]3C[C@H]2O[C@H]13	
InChI=1S/C7H8O2/c8-6-4-1-3-2-5(4)9-7(3)6/h3-5,7H,1-2H2	InChI=1S/C7H8O2/c8-6-4-1-3-2-5(4)9-7(3)6/h3-5,7H,1-2H2/t3-,4+,5-,7+/m1/s1
