21
gdb 70449	2.90892	1.2121	1.00895	1.3204	82.76	-0.2281	0.0755	0.3036	1260.8498	0.182563	-387.042671	-387.034083	-387.033139	-387.076055	33.861	
O	-0.1051990871	 1.3598968019	-0.1404492922	-0.455879
C	 0.0530655184	-0.0082160735	-0.0146768758	 0.402662
C	-0.839601904	-0.7474856881	 0.9230372021	-0.312941
C	 0.6587231089	-0.8699800851	 1.1059399595	-0.139641
C	 1.2074033979	-1.8464096375	 0.0608611013	-0.259257
C	 0.662159294	-0.9211315578	-1.0899833173	-0.061974
C	-0.2219863127	-1.4896769439	-2.1675638268	 0.017461
C	-0.4251164755	-0.7339940056	-3.4580224323	-0.262902
C	 0.3774344927	-2.0108158879	-3.4518603304	-0.27548
H	 0.7451590709	 1.7373510127	-0.3923763861	 0.280204
H	-1.3309920995	-0.0987144815	 1.6409714793	 0.117662
H	-1.4355368588	-1.6019669451	 0.6075472512	 0.102072
H	 1.1451612526	-0.5800287408	 2.0289197094	 0.085932
H	 2.295899223	-1.9356977001	 0.0543585363	 0.098654
H	 0.7754111385	-2.852745046	 0.0895500309	 0.0956
H	 1.5105549566	-0.4049906797	-1.5594371286	 0.054349
H	-1.0886821898	-2.0324287014	-1.7991922445	 0.079242
H	-1.4095016172	-0.7444065334	-3.9124230986	 0.111178
H	 0.1084937188	 0.2024393274	-3.5843592973	 0.106803
H	 1.453341425	-1.9347112172	-3.5743131662	 0.106756
H	-0.0565860627	-2.8958679873	-3.9038479638	 0.109499
62.0101	120.81	146.9405	277.0173	290.8151	330.014	363.104	406.1313	456.7064	508.1774	639.6302	716.339	765.6989	808.8636	826.0865	851.5596	888.631	905.8774	917.0145	949.3186	987.3518	1007.0764	1013.8941	1025.984	1056.222	1067.4084	1075.795	1096.0663	1133.1944	1143.6159	1185.5156	1198.1513	1200.8149	1222.6355	1240.5319	1254.3453	1278.6034	1305.7221	1328.1324	1413.9953	1440.3611	1470.5257	1485.1743	1505.7041	1510.9277	3009.3046	3042.3614	3098.8544	3103.0384	3127.3906	3132.6789	3138.19	3188.031	3201.8829	3205.1965	3220.7491	3789.5092
OC12CC1CC2C1CC1	O[C@]12C[C@H]1C[C@H]2C1CC1	
InChI=1S/C8H12O/c9-8-4-6(8)3-7(8)5-1-2-5/h5-7,9H,1-4H2	InChI=1S/C8H12O/c9-8-4-6(8)3-7(8)5-1-2-5/h5-7,9H,1-4H2/t6-,7+,8-/m1/s1
