14
gdb 130193	3.53324	1.76057	1.17767	3.3149	69.18	-0.1976	0.0164	0.214	955.9034	0.104945	-429.073346	-429.0663	-429.065356	-429.104604	27.038	
N	 0.0159677668	 1.3883145287	 0.1537053428	-0.592992
C	 0.0133384159	 0.0119102253	 0.0221533071	 0.410923
N	-1.0500346964	-0.746287246	-0.0291734574	-0.285694
N	-0.5750715748	-2.0484270276	-0.0071308172	-0.368316
C	 0.7850559141	-2.0646551417	-0.0410370953	 0.503985
N	 1.7854276812	-2.9118658113	-0.0758396587	-0.407447
C	 2.8895886819	-2.0747579302	-0.0281615705	-0.076019
C	 2.5612304475	-0.7423063905	 0.0355067796	-0.18053
N	 1.1664868967	-0.7412110829	 0.022374547	-0.059121
H	 0.653636869	 1.854297904	-0.480941831	 0.260783
H	-0.9200540421	 1.7625688262	 0.061546324	 0.268833
H	-1.2020781988	-2.7989441337	-0.2312148773	 0.282991
H	 3.8873100831	-2.4888782731	-0.0404299388	 0.111921
H	 3.146786486	 0.1564730429	 0.1072701057	 0.130684
143.4702	213.9468	250.3769	262.6555	305.9158	425.3479	561.3805	598.2238	633.8774	662.6788	668.594	714.7533	748.919	776.7026	852.2818	868.361	951.1731	1048.5256	1074.3155	1150.2469	1184.9995	1193.6439	1266.494	1336.4822	1373.5857	1404.3476	1504.6601	1530.7388	1604.2649	1646.1056	1690.6663	3243.9268	3300.0231	3531.151	3631.443	3711.0809
NC1=NNC2=NC=CN12	Nc1n[nH]c2nccn12	
InChI=1S/C4H5N5/c5-3-7-8-4-6-1-2-9(3)4/h1-2H,(H2,5,7)(H,6,8)	InChI=1S/C4H5N5/c5-3-7-8-4-6-1-2-9(3)4/h1-2H,(H2,5,7)(H,6,8)
