27
gdb 57350	2.14817	1.38155	1.24804	0.0442	94.34	-0.2745	0.0708	0.3453	1260.4926	0.25057	-353.556359	-353.545662	-353.544718	-353.590954	42.38	
C	 0.3421696325	 1.5128394174	 0.0685452448	-0.422241
C	 0.0291199437	 0.002934079	-0.0287085797	 0.21031
C	 0.6440955201	-0.6831555294	 1.209469727	-0.415109
C	-1.5046361799	-0.1612190445	 0.0227220612	-0.415109
C	 0.6028058761	-0.6269711588	-1.3444626606	 0.382912
C	 0.3046204051	-2.1264518613	-1.464036499	-0.470453
C	 0.2387742632	 0.1552732971	-2.6578742486	-0.273615
C	 1.7086236775	 0.6330038905	-2.7925311519	-0.203922
C	 2.114731728	-0.3003999503	-1.6217836202	-0.273614
H	 1.4171470038	 1.713642722	 0.082078691	 0.111968
H	-0.0984516626	 2.0817900761	-0.7550016537	 0.111968
H	-0.0732921001	 1.9161481412	 0.9981460287	 0.107241
H	 0.3045275483	-0.1869932874	 2.1251277482	 0.106002
H	 0.3547412323	-1.734888988	 1.2840777894	 0.111462
H	 1.7380260811	-0.6348492033	 1.1964927912	 0.110575
H	-1.9869502467	 0.2699679097	-0.8608144852	 0.110575
H	-1.8047271819	-1.2103447891	 0.0913957572	 0.111462
H	-1.9111096717	 0.3511910448	 0.9014302847	 0.106002
H	-0.7695438641	-2.335292372	-1.4838586125	 0.112529
H	 0.7256807404	-2.515015466	-2.3973055581	 0.106422
H	 0.747110608	-2.7036894925	-0.6462130053	 0.112529
H	-0.0747878963	-0.5147690017	-3.4632275298	 0.09028
H	-0.5157808678	 0.9401889762	-2.5714255633	 0.094319
H	 2.1910181618	 0.4356408303	-3.7527605581	 0.093343
H	 1.8389872191	 1.6932816664	-2.5622582861	 0.099565
H	 2.6760757168	 0.1648815343	-0.8085644541	 0.094319
H	 2.6744660531	-1.1825674805	-1.9448156674	 0.09028
83.6585	90.4604	188.8618	225.438	251.0173	253.8158	279.6379	289.3938	322.3208	372.384	376.3976	382.1317	424.4264	462.013	473.5649	590.6847	700.7873	782.101	784.4328	837.6065	885.0521	905.9426	930.4464	933.2052	956.6798	961.9133	968.6866	988.4397	1027.2793	1033.1964	1075.3234	1155.5444	1158.0339	1187.8631	1226.39	1233.936	1243.8725	1250.2895	1258.6128	1280.8752	1293.9668	1308.7952	1398.0451	1398.2259	1410.4713	1431.8222	1470.0082	1479.8821	1484.856	1485.952	1489.7035	1494.3591	1504.0757	1509.1534	1512.3715	1519.735	1521.8974	3030.1541	3030.1708	3033.8434	3040.4664	3054.8012	3056.3827	3064.2754	3089.7392	3091.3942	3092.6676	3094.8499	3100.5888	3100.8264	3102.0642	3111.8256	3112.4653	3115.9086	3118.945
CC(C)(C)C1(C)CCC1	CC(C)(C)C1(C)CCC1	
InChI=1S/C9H18/c1-8(2,3)9(4)6-5-7-9/h5-7H2,1-4H3	InChI=1S/C9H18/c1-8(2,3)9(4)6-5-7-9/h5-7H2,1-4H3
