22
gdb 8239	4.41281	0.97916	0.95047	1.9569	77.97	-0.2413	0.0728	0.3141	1344.3989	0.19943	-350.191111	-350.181717	-350.180773	-350.226244	33.675	
C	-0.1129523837	 1.5167807833	 0.2041848541	-0.383013
C	-0.0220123886	 0.0018501144	-0.0287005359	 0.043184
C	-1.4230824975	-0.6246220783	-0.0411298787	-0.388593
C	 0.7359540593	-0.3509270417	-1.3235229467	-0.199746
C	 2.2162367845	 0.0141023457	-1.3274102175	-0.030476
C	 3.1693853533	-0.8352190792	-0.4521803736	-0.074463
O	 3.9487644187	-1.2316563579	-1.598328355	-0.272271
C	 3.072380069	-0.5233570014	-2.4976958598	-0.089347
H	 0.8724408825	 1.9849444332	 0.2857785648	 0.113345
H	-0.647653094	 2.0057205466	-0.6193355852	 0.11185
H	-0.6578427953	 1.7365689755	 1.1280908413	 0.11205
H	 0.5327216435	-0.4372845291	 0.8137195915	 0.074841
H	-2.0199369292	-0.2303139836	-0.8725567222	 0.112133
H	-1.3742604132	-1.712667048	-0.1542679668	 0.110713
H	-1.963334479	-0.4065929261	 0.8859608857	 0.109984
H	 0.6457606439	-1.4310280671	-1.503801556	 0.093061
H	 0.2401893355	 0.1414109479	-2.1729529588	 0.092096
H	 2.3534968116	 1.0871973633	-1.1749006552	 0.080299
H	 3.7729712204	-0.2938342816	 0.2865743715	 0.098497
H	 2.6983614542	-1.6974051039	 0.0411221594	 0.093875
H	 2.5448987697	-1.2055004885	-3.1791814012	 0.094204
H	 3.6116744044	 0.2235887863	-3.0931661359	 0.097776
42.9401	60.4664	94.3614	160.568	221.1165	238.381	303.5561	340.1889	395.9851	434.4873	450.1148	758.363	814.1354	859.1064	885.1924	896.4645	928.0763	949.828	967.6586	989.8494	1006.5589	1042.2791	1058.4778	1117.9289	1155.9712	1157.38	1164.6993	1189.6252	1199.9892	1256.8945	1280.0423	1308.6326	1315.1397	1352.5554	1370.8794	1384.8543	1400.7851	1404.0913	1422.7883	1478.9299	1488.316	1495.7354	1504.9066	1510.1237	1512.6853	1538.0128	2989.7615	2992.9468	2999.6527	3005.7167	3023.0153	3028.7029	3035.1834	3042.0947	3044.1185	3082.2886	3087.7612	3093.8374	3099.8915	3105.5842
CC(C)CC1COC1	CC(C)CC1COC1	
InChI=1S/C7H14O/c1-6(2)3-7-4-8-5-7/h6-7H,3-5H2,1-2H3	InChI=1S/C7H14O/c1-6(2)3-7-4-8-5-7/h6-7H,3-5H2,1-2H3
