16
gdb 10838	4.89874	1.52011	1.21789	5.9449	61.43	-0.2778	0.0412	0.3191	969.2532	0.131307	-420.926725	-420.919205	-420.918261	-420.958908	27.085	
C	-0.2372837282	 1.4963645659	 0.0112491556	-0.412968
C	 0.0408466225	-0.0078703676	 0.0021151708	-0.039195
C	 0.8407648758	-0.4334708528	-1.2180011434	-0.059966
O	 1.1795790458	-1.8264328415	-1.1748566579	-0.258468
C	 1.3940758298	-2.4887361044	-0.0167185437	 0.469642
O	 1.7317328073	-3.6338785399	-0.0242128391	-0.360152
O	 1.1891160182	-1.8388317064	 1.1501404405	-0.258456
C	 0.8510403859	-0.4463505942	 1.2108358865	-0.059981
H	 0.6942913488	 2.072948908	 0.0103470088	 0.126809
H	-0.8162557496	 1.7932099998	-0.8683681732	 0.130814
H	-0.8087605487	 1.7838624419	 0.898836752	 0.130813
H	-0.9087737929	-0.5577922756	 0.0032327954	 0.104575
H	 0.2810509575	-0.2990484377	-2.1472504664	 0.128151
H	 1.7676602717	 0.1523074388	-1.2914528506	 0.115115
H	 1.7786575897	 0.1385040411	 1.2825386949	 0.115114
H	 0.2992965465	-0.3216374055	 2.1461837698	 0.128151
92.3598	96.7277	205.3142	226.2403	273.4152	423.8417	443.2078	443.2283	584.6008	718.8028	763.8698	805.8759	890.4545	906.7283	954.0447	989.8838	1057.7366	1097.5735	1162.8535	1164.2803	1186.4767	1191.2672	1248.5042	1304.5476	1330.0698	1379.2799	1411.8471	1425.8974	1435.5202	1498.6843	1499.14	1512.6126	1521.3787	1880.0866	3011.4757	3014.3549	3034.5232	3040.6451	3094.311	3096.3894	3106.3045	3112.6648
CC1COC(=O)OC1	CC1COC(=O)OC1	
InChI=1S/C5H8O3/c1-4-2-7-5(6)8-3-4/h4H,2-3H2,1H3	InChI=1S/C5H8O3/c1-4-2-7-5(6)8-3-4/h4H,2-3H2,1H3
