19
gdb 39793	3.39443	1.46826	1.19699	0.8617	80.69	-0.2387	0.0806	0.3194	1068.591	0.160898	-381.94752	-381.940182	-381.939237	-381.978952	30.186	
C	-0.0110143025	 1.5155612141	-0.0107089968	-0.359131
N	 1.2566054974	 0.721167004	 0.0383946215	-0.406711
C	-0.0192404573	 0.0483538085	 0.0027691571	 0.470285
C	-0.5649606248	-1.0257116667	 0.9656096774	-0.235752
C	-1.8218889549	-1.064521258	 0.0316715254	-0.226146
C	-0.6058179535	-1.0119678422	-0.9513672292	-0.238041
C	 0.0605058188	-2.0437076489	-0.0126378278	 0.466613
C	 1.3057727566	-2.8142827716	-0.0202920495	-0.349976
N	-0.0322066577	-3.4853763886	-0.0738441497	-0.411095
H	-0.2166704055	 2.0864901847	 0.8908266255	 0.120628
H	-0.2626242526	 2.0281935777	-0.9362419054	 0.113167
H	 1.698776984	 0.7138301525	-0.878055202	 0.230403
H	-0.5325781627	-1.0285216906	 2.0551228286	 0.079882
H	-2.3903605403	-1.9955798297	 0.0297733377	 0.106058
H	-2.4670059131	-0.1835694515	 0.051740419	 0.095174
H	-0.6242758643	-1.0062444939	-2.0411880749	 0.07961
H	 1.8953250673	-2.9186372415	-0.9273525177	 0.117814
H	 1.8802147558	-2.8793773531	 0.9003246474	 0.117465
H	-0.2589488208	-3.8736482252	 0.8392093734	 0.229752
129.1985	227.2092	242.1631	282.0359	342.5498	382.4652	481.9601	503.7491	660.5042	670.4079	755.271	790.5998	868.6059	880.4689	887.3248	904.3809	934.1215	944.8661	966.9423	970.6095	993.9229	1030.8347	1052.3519	1054.9919	1082.4377	1103.8592	1125.7545	1128.3091	1155.4818	1185.7786	1197.0016	1213.5585	1220.9453	1254.0944	1255.9283	1285.5782	1436.3862	1448.0034	1499.9277	1522.4731	1543.9033	3068.058	3102.4127	3105.4719	3117.1654	3121.374	3142.0969	3185.6143	3188.2426	3487.7221	3491.0533
C1NC11C2CC1C21CN1	C1N[C@]21[C@H]1C[C@@H]2[C@]21CN2	
InChI=1S/C7H10N2/c1-4-6(2-8-6)5(1)7(4)3-9-7/h4-5,8-9H,1-3H2	InChI=1S/C7H10N2/c1-4-6(2-8-6)5(1)7(4)3-9-7/h4-5,8-9H,1-3H2/t4-,5+,6-,7-
