19
gdb 114190	3.52061	1.10841	0.93842	2.1117	78.61	-0.2218	-0.0271	0.1947	1296.9513	0.157493	-423.007454	-422.99828	-422.997336	-423.041973	33.262	
C	 0.1648173776	 1.6338657027	-0.505813357	-0.247889
O	 0.4909057859	 0.3692155484	 0.0472095334	-0.241599
C	 0.6714095535	-0.6225677296	-0.9215315225	 0.031615
C	 0.9837423017	-2.0339352717	-0.3405776358	-0.374726
C	-0.1828936046	-2.6156698436	-1.157673484	 0.234729
C	-0.216504904	-3.8315022318	-2.0632598501	-0.306719
C	-1.1098780382	-3.7724196073	-0.8664339804	-0.306986
C	-0.6055850144	-1.2376811671	-1.5731687088	 0.320566
O	-1.572179164	-0.7834559054	-2.1228138236	-0.321726
H	 0.969421732	 1.9995383132	-1.1629115446	 0.104385
H	-0.7678954251	 1.5949123566	-1.08043029	 0.140617
H	 0.0484972734	 2.325484458	 0.3315646806	 0.127243
H	 1.3943850686	-0.306913045	-1.6933427499	 0.084411
H	 1.9793769535	-2.4217421997	-0.563168455	 0.109354
H	 0.8139159814	-2.0549439234	 0.7383595006	 0.124908
H	-0.6575007157	-3.6995342031	-3.0456962517	 0.134372
H	 0.6484146777	-4.4859236319	-2.0311369978	 0.124366
H	-0.8682467913	-4.3911412324	-0.0088029261	 0.125407
H	-2.168213818	-3.5898904068	-1.0209549574	 0.137672
43.0355	108.8993	163.2426	178.3132	205.7316	225.994	277.6698	319.492	371.2737	515.8981	551.6064	708.294	756.873	782.2444	813.1788	830.3548	912.7119	932.1238	978.53	1025.5453	1043.1325	1060.4956	1065.7712	1088.975	1137.5687	1161.2135	1183.5061	1198.1264	1201.421	1235.7163	1251.2466	1260.6461	1360.9006	1370.8218	1457.8762	1477.3795	1481.6627	1487.6029	1489.9017	1513.9238	1868.0398	2955.864	2984.6564	3064.8912	3072.3226	3124.4695	3128.689	3129.5016	3132.3084	3213.2819	3228.2929
COC1CC2(CC2)C1=O	CO[C@H]1CC2(CC2)C1=O	
InChI=1S/C7H10O2/c1-9-5-4-7(2-3-7)6(5)8/h5H,2-4H2,1H3	InChI=1S/C7H10O2/c1-9-5-4-7(2-3-7)6(5)8/h5H,2-4H2,1H3/t5-/m0/s1
