18
gdb 74498	3.4752	1.20483	1.01826	1.9874	85.84	-0.2203	0.0083	0.2286	1214.1752	0.146576	-364.763775	-364.755369	-364.754425	-364.796411	32.768	
C	 0.0183530502	 1.4924085342	 0.0632470105	-0.491602
C	-0.0025721516	 3.3597*^-6	-0.0156283923	 0.304047
C	 0.0141553129	-0.771906389	-1.1037128098	-0.262312
C	 0.0423171992	-2.2215271658	-0.7316476606	 0.144465
C	 1.2498884027	-2.6318490375	 0.0621301072	-0.263473
N	 0.0226131755	-2.2768865038	 0.7676912675	-0.140228
C	-0.0381609141	-0.8731916243	 1.2259726454	-0.257334
C	-0.7214875531	-3.1736363174	-1.4890204146	 0.208672
C	-1.343617116	-3.9537045428	-2.1598400431	-0.391321
H	 0.9189060348	 1.8514639106	 0.5773694848	 0.129422
H	-0.0084849337	 1.9488982786	-0.929416707	 0.129965
H	-0.8383504175	 1.8686196308	 0.6367382034	 0.130525
H	 0.0129475929	-0.4375147724	-2.1333158955	 0.105255
H	 1.5143171337	-3.6836144091	 0.1281988675	 0.123287
H	 2.0861479286	-1.9349850277	 0.0662709453	 0.111271
H	 0.7935759109	-0.6657926985	 1.9124069665	 0.113305
H	-0.9645928402	-0.7200795997	 1.7964757438	 0.116736
H	-1.9015238953	-4.6477291658	-2.738120929	 0.18932
113.5383	145.6513	180.2742	193.2639	306.3918	345.6613	409.3047	471.8807	496.0596	519.3293	578.0492	601.5857	623.4772	653.5444	747.4891	814.6239	849.4739	875.3442	903.912	944.9034	980.2538	1018.163	1040.9887	1088.3676	1120.5806	1151.1153	1164.1193	1214.5943	1240.1886	1304.5826	1335.0744	1345.9991	1415.1552	1479.8152	1481.5119	1487.6078	1495.6114	1714.188	2239.6234	3006.7685	3019.4557	3039.4276	3064.7431	3092.6306	3115.4672	3189.126	3216.8231	3503.5346
CC1=CC2(CN2C1)C#C	CC1=C[C@]2(CN2C1)C#C	
InChI=1S/C8H9N/c1-3-8-4-7(2)5-9(8)6-8/h1,4H,5-6H2,2H3	InChI=1S/C8H9N/c1-3-8-4-7(2)5-9(8)6-8/h1,4H,5-6H2,2H3/t8-,9?/m0/s1
