19
gdb 76772	2.34898	1.53047	1.11882	2.3472	76.8	-0.2415	-0.0294	0.2121	1141.282	0.15716	-423.019584	-423.010121	-423.009177	-423.054001	34.512	
C	-0.2985367194	 1.434497381	-0.0799493211	-0.380851
C	-0.0493515534	-0.0686510369	-0.0486937849	-0.168683
C	 1.1625537331	-0.5365439131	-0.9466760437	 0.051896
O	 1.659242594	 0.324154934	-1.9342308976	-0.434986
C	 1.9758508314	-0.683839529	 0.3482883566	 0.288934
O	 3.1589486841	-0.6898614375	 0.5644591946	-0.330908
C	 0.7375593539	-0.5747277174	 1.1834320029	 0.249039
C	 0.6714786148	-0.1702819229	 2.6353495447	-0.315561
C	 0.3197696934	-1.5713322983	 2.2471239809	-0.316935
H	 0.6182996749	 1.9944760677	 0.1285370061	 0.117862
H	-0.6576775462	 1.7459173179	-1.0645638032	 0.130287
H	-1.0464086525	 1.7221183025	 0.6660319932	 0.110572
H	-0.9711610511	-0.6188864452	-0.2552513186	 0.076077
H	 0.9480768597	-1.5284675262	-1.3720875643	 0.102354
H	 2.5776470787	 0.5153811122	-1.7095483392	 0.298533
H	 1.6206992243	 0.006924207	 3.1300480306	 0.137486
H	-0.1297170363	 0.5017158473	 2.9238780822	 0.12621
H	-0.725632521	-1.8623569164	 2.2550592999	 0.125549
H	 1.0176787374	-2.3671832368	 2.4847312709	 0.133126
52.3271	142.2576	170.7267	186.2216	203.6489	216.9267	220.2854	235.7457	399.0886	467.5364	530.0597	572.6412	716.282	749.5956	797.55	817.1197	835.1737	894.5015	936.1375	954.9222	1013.3776	1045.9244	1059.541	1066.0493	1083.3119	1117.4298	1161.8676	1180.0446	1196.9119	1230.3013	1260.6917	1332.1562	1354.9297	1368.7654	1383.3805	1415.7945	1460.1941	1487.4734	1493.3456	1494.8331	1865.0517	2992.7775	3038.921	3068.4688	3106.7121	3118.0967	3129.5356	3132.7147	3212.4781	3227.4388	3788.2077
CC1C(O)C(=O)C11CC1	C[C@H]1[C@@H](O)C(=O)C21CC2	
InChI=1S/C7H10O2/c1-4-5(8)6(9)7(4)2-3-7/h4-5,8H,2-3H2,1H3	InChI=1S/C7H10O2/c1-4-5(8)6(9)7(4)2-3-7/h4-5,8H,2-3H2,1H3/t4-,5+/m0/s1
