19
gdb 90371	2.29149	1.60233	1.3094	4.279	77.65	-0.2314	0.0205	0.2519	1081.155	0.158498	-419.183723	-419.17499	-419.174046	-419.21673	33.49	
C	 0.4622247202	 1.4705039057	-0.0958157206	-0.416766
C	 0.1276012266	 0.0076632335	 0.0998006008	 0.122796
O	 0.8766219446	-0.8734073386	-0.7788341138	-0.309771
C	 1.3351566924	-1.6866667113	 0.3205804818	-0.030575
C	 2.6589345317	-1.161262413	 0.8764338252	 0.39672
N	 3.862384127	-1.3611721529	 0.5507216121	-0.555178
N	 1.9764826739	-0.3887375418	 1.8271608106	-0.37722
C	 0.63099232	-0.7584387011	 1.3597366518	 0.280079
C	-0.3544697043	-1.1533745195	 2.4321172899	-0.482389
H	 1.5230512138	 1.6615642449	 0.0876866527	 0.119593
H	 0.2397869381	 1.7691261984	-1.1246373028	 0.137912
H	-0.1361429771	 2.0969547091	 0.5753140552	 0.116147
H	-0.9488314513	-0.1600787397	-0.0492673607	 0.076242
H	 1.1745761043	-2.7554262001	 0.1775088858	 0.097257
H	 4.505054731	-0.7770168042	 1.0899438677	 0.207969
H	 2.2663966616	 0.5070176946	 2.197482953	 0.234495
H	-0.6687288928	-0.2784575877	 3.0143126851	 0.122031
H	-1.2518784185	-1.5990929683	 1.9927722678	 0.128286
H	 0.092487399	-1.8726534879	 3.1238159183	 0.132373
88.1782	182.2307	193.1739	207.8633	239.3939	281.1095	306.417	410.6169	423.2507	463.7814	547.1613	625.1596	647.2818	734.0592	794.3368	835.7806	851.7144	882.7363	918.1929	987.9854	1016.7327	1019.1511	1055.3851	1096.5965	1129.4469	1149.3953	1157.4488	1199.6504	1238.0664	1273.3229	1319.2388	1326.2032	1364.149	1389.7132	1405.7393	1414.673	1482.193	1486.977	1492.1504	1494.8145	1796.2109	2998.2257	3030.0369	3035.9679	3094.8922	3106.9606	3118.1618	3119.094	3120.597	3448.7112	3572.3793
CC1OC2C(=N)NC12C	C[C@H]1O[C@H]2[C]([NH])N[C@@]12C	
InChI=1S/C6H10N2O/c1-3-6(2)4(9-3)5(7)8-6/h3-4H,1-2H3,(H2,7,8)	InChI=1S/C6H10N2O/c1-3-6(2)4(9-3)5(7)8-6/h3-4H,1-2H3,(H2,7,8)/t3-,4+,6+/m1/s1
