15
gdb 133003	2.524	1.59064	0.98162	5.7171	76.8	-0.204	-0.0162	0.1879	1132.4967	0.113005	-458.114362	-458.106257	-458.105313	-458.147574	29.42	
C	 0.029675157	 1.4229817516	 0.0742316986	-0.327636
N	-0.0029029618	-0.0241221485	 0.1360924429	-0.320097
C	-1.1209997826	-0.6342319024	 0.0587269578	 0.270855
N	-2.3832042773	-0.0151320124	-0.0872590915	-0.325553
C	-3.4480679397	-0.7269306802	-0.1550711717	 0.096598
N	-3.4883841756	-2.0885459445	-0.0977707197	-0.314029
C	-2.2983663723	-2.791744493	 0.0452115432	-0.124047
C	-1.1501900821	-2.1000053939	 0.1217216092	 0.190147
F	-0.0002004295	-2.7451556723	 0.2583514608	-0.049047
H	 0.6713769611	 1.7286480857	-0.761897571	 0.117355
H	-0.9515418379	 1.8963317619	-0.0390033735	 0.12351
H	 0.507597404	 1.8069904433	 0.9844317023	 0.117355
H	-4.4179921485	-0.24434352	-0.2675567964	 0.129744
H	-4.3654193206	-2.5776126277	-0.1579777654	 0.270948
H	-2.3468648642	-3.8703792277	 0.0890400442	 0.143895
66.1933	99.2462	199.0402	216.9914	322.3923	340.5312	361.9173	476.9862	498.37	559.3029	568.0065	596.1083	758.5083	779.2912	847.3972	904.6769	951.667	1054.0043	1063.1632	1094.8902	1126.9715	1171.6295	1224.8652	1290.3956	1393.4634	1423.2432	1427.3639	1487.2029	1495.7893	1517.5826	1665.3932	1702.8176	1727.1413	3007.8547	3056.4917	3086.8267	3141.36	3238.1171	3660.2114
CN=C1N=CNC=C1F	C[N]C1=NCNC=C1F	
InChI=1S/C5H6FN3/c1-7-5-4(6)2-8-3-9-5/h2-3H,1H3,(H,7,8,9)	InChI=1S/C5H7FN3/c1-7-5-4(6)2-8-3-9-5/h2,8H,3H2,1H3
