19
gdb 63744	3.40667	1.14382	1.11235	2.0206	78.27	-0.2464	0.0005	0.2469	1189.0042	0.157707	-423.017699	-423.009018	-423.008074	-423.051094	33.789	
C	 0.1117495918	 1.5538116537	-0.0549978957	-0.439702
C	-0.0100283861	 0.0303306088	 0.0187515432	 0.33761
O	-1.3982797072	-0.3425747507	 0.0683497299	-0.468657
C	 0.5960980319	-0.705845613	-1.2027941652	-0.339719
C	 1.4113665334	-1.8630084329	-0.6253806186	 0.425446
C	 1.5127748428	-3.2018057573	-1.227668902	-0.246677
O	 2.5958960865	-2.2763808438	-1.3251255466	-0.284607
C	 1.5003330763	-1.6133637037	 0.8365974765	-0.15306
C	 0.7451406248	-0.5762093648	 1.1916835484	-0.122103
H	 1.1585882411	 1.8648937227	-0.1257812885	 0.122559
H	-0.429365686	 1.9341015951	-0.9266206839	 0.126483
H	-0.3160257244	 2.0204447598	 0.8407994535	 0.102408
H	-1.7744568564	 0.0294554644	 0.8736392983	 0.272915
H	-0.199751215	-1.030339012	-1.8752299225	 0.121803
H	 1.2709540484	-0.0497955066	-1.7593106281	 0.117944
H	 1.6936232447	-4.0729423469	-0.5978892967	 0.110405
H	 0.982281471	-3.4065142295	-2.1573932098	 0.114352
H	 2.1073119206	-2.2294114446	 1.489979043	 0.108059
H	 0.6230889417	-0.1986534187	 2.2024285249	 0.094542
39.3422	173.7784	248.9544	264.8017	287.0764	323.5545	334.4565	359.1136	407.7003	444.8165	518.6283	588.1282	654.1556	787.7083	807.5687	822.9437	836.7494	908.4365	912.468	942.0618	956.2528	973.1058	986.7088	1090.0295	1116.8199	1130.8977	1136.978	1154.5818	1175.688	1238.0681	1259.2126	1297.4672	1342.2188	1368.3202	1403.0952	1428.969	1471.63	1490.023	1492.461	1526.9338	1679.8907	3025.0944	3069.8854	3072.3384	3092.9902	3115.229	3125.7164	3158.3917	3173.8014	3207.5887	3802.3694
CC1(O)CC2(CO2)C=C1	C[C@@]1(O)C[C@]2(CO2)C=C1	
InChI=1S/C7H10O2/c1-6(8)2-3-7(4-6)5-9-7/h2-3,8H,4-5H2,1H3	InChI=1S/C7H10O2/c1-6(8)2-3-7(4-6)5-9-7/h2-3,8H,4-5H2,1H3/t6-,7-/m0/s1
