17
gdb 67002	2.5482	2.01074	1.38336	3.2123	71.42	-0.2357	-0.0129	0.2228	946.477	0.135912	-421.817365	-421.809982	-421.809037	-421.849025	29.066	
C	 0.0406368562	 1.4769618048	-0.0523313823	-0.494484
C	-0.0027226674	-0.025489279	 0.034587941	 0.171825
C	-0.4114621134	-0.8252276815	-1.2237526531	 0.07279
O	-0.0657390343	-2.1988254466	-1.1446601124	-0.304444
C	-0.7248561679	-2.2547966394	 0.1671458779	 0.069683
C	 0.3635051812	-2.146349226	 1.2228090131	-0.330558
C	 0.9290828509	-0.7372093424	 0.9727740077	 0.370246
O	 1.9159589837	-0.2628685235	 1.4776505389	-0.328409
C	-1.3038398601	-0.8268173688	-0.042906405	-0.211942
H	 1.0630113842	 1.8082513674	-0.2555725578	 0.146415
H	-0.6101290337	 1.8528966217	-0.8480862354	 0.115906
H	-0.275336965	 1.9394838216	 0.8883648468	 0.130176
H	-0.4629236346	-0.3562553671	-2.1994408763	 0.118867
H	-1.4102945957	-3.0986585083	 0.2384967799	 0.095884
H	-0.0541055986	-2.191925489	 2.2363462196	 0.129079
H	 1.1387024948	-2.9102613454	 1.1310351771	 0.139569
H	-2.3005720402	-0.4503821585	 0.1414078701	 0.109398
116.9983	152.1879	248.7635	266.2707	344.0589	401.2539	459.6222	578.8007	607.7165	656.171	707.2114	741.1106	831.36	841.5985	875.7629	903.691	908.9413	977.2534	992.0547	995.6024	1051.2278	1067.0563	1093.9225	1100.4697	1149.048	1178.6163	1228.3703	1250.2293	1280.8835	1324.1904	1331.9207	1395.0267	1417.0593	1436.7162	1482.6541	1499.6561	1832.2065	3037.0511	3044.6333	3100.8309	3114.9827	3118.1914	3122.8499	3185.3414	3209.0447
CC12C3OC(CC1=O)C23	C[C@@]12[C@H]3O[C@@H](CC1=O)[C@@H]23	
InChI=1S/C7H8O2/c1-7-4(8)2-3-5(7)6(7)9-3/h3,5-6H,2H2,1H3	InChI=1S/C7H8O2/c1-7-4(8)2-3-5(7)6(7)9-3/h3,5-6H,2H2,1H3/t3-,5+,6-,7+/m0/s1
