16
gdb 11054	3.55793	2.40823	2.04368	1.8356	63.52	-0.2444	0.0013	0.2457	732.6497	0.131485	-383.734494	-383.728135	-383.72719	-383.764497	25.818	
C	 0.0221063599	 1.4954604032	 0.0651094367	-0.49558
C	-0.026162076	-0.0079898807	-0.0078703144	 0.304332
C	 0.7306112004	-0.7065245957	-1.1917435058	-0.098219
O	 0.9722712246	-2.0162033702	-0.674386768	-0.274195
C	 0.4224565061	-1.9555396305	 0.6663261166	 0.119572
O	 0.6965830362	-0.6394579398	 1.0762848853	-0.25543
C	-1.0959102262	-1.9538878851	 0.5072176012	-0.080994
C	-1.3728419127	-0.7267660633	 0.0658641758	-0.13146
H	 1.0577249095	 1.8469455063	 0.064110427	 0.13277
H	-0.4927456004	 1.935263864	-0.7947892656	 0.123883
H	-0.4653337776	 1.8515411431	 0.9766593766	 0.136551
H	 0.1399173109	-0.753688617	-2.1125678285	 0.100351
H	 1.6854199512	-0.2050478759	-1.3870077166	 0.104854
H	 0.909301294	-2.7011812721	 1.2909285943	 0.092472
H	-1.7421926147	-2.8156649518	 0.5960715435	 0.113551
H	-2.3074586553	-0.3262949344	-0.3030787082	 0.107543
195.3081	257.7344	289.7578	345.7317	414.3565	502.9466	622.7359	643.6035	717.7043	735.3442	810.4969	833.8544	855.528	883.0059	889.0309	923.3395	943.9605	994.8219	1013.5726	1050.8058	1121.3168	1152.4495	1168.9834	1221.6455	1262.3445	1281.0489	1324.5294	1333.2611	1368.9161	1418.5271	1482.7927	1495.1062	1512.0022	1637.188	3028.7186	3044.775	3079.8168	3116.4197	3123.1755	3156.3226	3217.3484	3244.7272
CC12COC(O1)C=C2	C[C@@]12CO[C@@H](O1)C=C2	
InChI=1S/C6H8O2/c1-6-3-2-5(8-6)7-4-6/h2-3,5H,4H2,1H3	InChI=1S/C6H8O2/c1-6-3-2-5(8-6)7-4-6/h2-3,5H,4H2,1H3/t5-,6+/m0/s1
