16
gdb 18506	5.65323	1.25471	1.17195	4.038	66.82	-0.239	0.0343	0.2733	1022.5268	0.132147	-379.899089	-379.891901	-379.890957	-379.931261	26.638	
O	-0.1666053476	 0.0117960827	 0.2224416053	-0.329864
C	-0.0265670377	 1.2095579107	 0.0836830485	 0.152109
N	 1.1566248532	 1.8449445187	-0.12035039	-0.271193
C	 2.426661517	 1.1715499595	-0.1817122471	 0.045022
C	 3.2759043559	 1.2898890033	-1.5097203749	-0.244671
C	 4.3650836018	 1.9859325064	-0.6933785166	-0.039775
N	 3.7212645087	 3.1871204238	-0.1023085601	-0.350275
C	 3.5755358013	 1.865737686	 0.5614110845	-0.067439
H	-0.8743944734	 1.922959498	 0.1112188361	 0.071806
H	 1.1769625992	 2.8494450326	-0.2153135521	 0.256921
H	 2.2666141317	 0.1357674752	 0.113640804	 0.12273
H	 3.5693932151	 0.3104685767	-1.8925832853	 0.11484
H	 2.8337338613	 1.8863144309	-2.3110341847	 0.107244
H	 5.4369054741	 1.9492778402	-0.8383060838	 0.100967
H	 4.4388933595	 3.7006385412	 0.4076930642	 0.233635
H	 3.8874761999	 1.7227759741	 1.588725282	 0.097944
48.225	128.1823	221.3859	230.2451	381.2947	427.034	566.835	617.2554	670.0789	758.608	810.9621	837.8741	876.5168	910.7996	957.0963	985.5654	997.9807	1033.7184	1041.2819	1081.6123	1111.766	1120.6941	1160.0519	1189.7793	1234.7389	1254.2969	1298.2099	1327.4603	1346.3103	1381.3119	1430.3306	1474.0008	1525.3857	1800.7703	2932.7921	3069.8025	3127.6769	3142.5463	3187.6023	3205.9583	3480.9798	3620.8735
O=CNC1CC2NC12	O=CN[C@H]1C[C@H]2N[C@@H]12	
InChI=1S/C5H8N2O/c8-2-6-3-1-4-5(3)7-4/h2-5,7H,1H2,(H,6,8)	InChI=1S/C5H8N2O/c8-2-6-3-1-4-5(3)7-4/h2-5,7H,1H2,(H,6,8)/t3-,4+,5-/m0/s1
