19
gdb 65576	3.29741	1.24865	1.19273	4.6902	78.72	-0.231	0.0376	0.2687	1120.6812	0.160602	-382.071794	-382.063452	-382.062508	-382.104587	32.474	
C	 0.3878980868	 1.2807949352	 0.0600534711	-0.438097
C	-0.0756753771	-0.1884698433	-0.019270596	 0.122262
C	 0.5093549333	-0.9308396454	-1.2721073558	-0.275153
C	 1.5089452104	-1.9341798744	-0.7211249442	-0.029974
C	 2.6585250049	-1.4386356704	 0.1300614088	-0.309597
C	 1.3771062168	-1.9353154534	 0.7717370124	 0.009984
N	 0.3493628102	-0.9947937268	 1.1428174413	-0.320205
C	-1.5570842313	-0.1862989983	-0.0807874151	 0.288505
N	-2.7113475379	-0.1656505475	-0.1383349541	-0.350296
H	 1.4792436907	 1.3358948286	 0.0486690836	 0.127915
H	 0.001509054	 1.8548088637	-0.7870762629	 0.140488
H	 0.0217108485	 1.7511038467	 0.9779696599	 0.13457
H	-0.2852164493	-1.4564757957	-1.8064265874	 0.13352
H	 0.9501668357	-0.2110618678	-1.9684106498	 0.115719
H	 1.6397703187	-2.86058525	-1.2673574489	 0.098426
H	 3.5318644524	-2.0799269084	 0.1922254008	 0.114956
H	 2.8828548586	-0.3778160837	 0.1589968073	 0.110593
H	 1.391738323	-2.8560662668	 1.345739958	 0.101127
H	 0.5962319015	-0.4091027025	 1.9314834611	 0.225257
69.7876	156.5398	196.5032	241.1221	279.8383	353.5246	359.8807	394.3894	526.0851	561.9992	597.9135	629.2775	717.2594	774.4457	815.47	832.3859	881.5828	904.3282	949.8087	959.3093	989.6759	1006.4389	1049.6109	1085.42	1102.5814	1134.6354	1165.868	1182.9979	1190.207	1228.5715	1254.6241	1325.965	1345.9814	1389.7795	1407.9095	1439.5738	1478.6549	1484.894	1498.49	1499.9244	2350.7671	3042.0425	3059.3873	3105.8462	3115.4019	3126.4279	3132.3465	3158.3559	3181.4789	3216.46	3544.3132
CC1(CC2CC2N1)C#N	C[C@]1(C[C@H]2C[C@H]2N1)C#N	
InChI=1S/C7H10N2/c1-7(4-8)3-5-2-6(5)9-7/h5-6,9H,2-3H2,1H3	InChI=1S/C7H10N2/c1-7(4-8)3-5-2-6(5)9-7/h5-6,9H,2-3H2,1H3/t5-,6-,7+/m1/s1
