16
gdb 17596	4.29915	1.36339	1.13337	0.6574	67.01	-0.2381	-0.0797	0.1584	1063.101	0.128337	-383.765431	-383.756912	-383.755968	-383.799479	29.689	
C	-0.0377034846	 1.4517668952	 0.293883829	-0.473417
C	 0.0385113324	-0.052347061	 0.2138560972	 0.302796
O	 1.0712170012	-0.6752860763	 0.1267048986	-0.27385
C	-1.3199491846	-0.7983622923	 0.2495103547	 0.269978
O	-2.3479007557	-0.156448883	 0.3373272645	-0.318949
C	-1.2635923923	-2.2726719845	 0.1721491886	-0.109368
C	-2.3337839649	-3.047963895	 0.9355219977	-0.248758
C	-2.4136752597	-2.9734088231	-0.5459730271	-0.248741
H	 0.9667112604	 1.8739542683	 0.2611236227	 0.1394
H	-0.6446016946	 1.8396737877	-0.5302717957	 0.156481
H	-0.5507600975	 1.7516967939	 1.2130414602	 0.15648
H	-0.2734899008	-2.6997206215	 0.0970806258	 0.120601
H	-2.0210268585	-3.9741312429	 1.40324178	 0.125354
H	-3.0308736973	-2.4444016697	 1.505846681	 0.138321
H	-3.1647442324	-2.3199314582	-0.9752528332	 0.138325
H	-2.1570647211	-3.8464451178	-1.134470984	 0.125348
47.4405	67.654	106.0097	179.5683	239.842	290.5094	334.9874	422.9004	517.1091	586.8125	731.4396	739.334	810.7947	825.7279	869.3434	888.4383	948.9805	1036.4039	1053.0911	1077.8903	1098.3315	1110.6274	1143.9482	1212.1882	1216.3679	1244.3817	1382.2367	1412.753	1452.0933	1456.5031	1459.5469	1486.9246	1774.8933	1806.4348	3050.7546	3112.1901	3141.2155	3142.7049	3162.4801	3219.8622	3228.4167	3244.1609
CC(=O)C(=O)C1CC1	CC(=O)C(=O)C1CC1	
InChI=1S/C6H8O2/c1-4(7)6(8)5-2-3-5/h5H,2-3H2,1H3	InChI=1S/C6H8O2/c1-4(7)6(8)5-2-3-5/h5H,2-3H2,1H3
