17
gdb 72859	3.09561	1.26676	1.06466	4.625	73.02	-0.2523	0.0136	0.2659	1146.8038	0.135969	-417.972972	-417.964776	-417.963832	-418.00595	30.664	
C	-0.5971149943	 1.5727955842	-0.0601415212	-0.469647
C	-0.0860223082	 0.1556804308	 0.0183627407	 0.287821
C	-1.094676957	-0.9921053127	 0.2836074523	-0.12103
O	-0.2646638826	-1.5338991415	 1.3434197709	-0.283936
C	 0.7122111236	-0.5073581986	 1.1777733373	 0.048294
C	 1.7868623876	-0.9115954723	 0.1181806799	-0.157637
N	 1.0184484543	-0.1695987963	-0.9139651289	-0.354582
C	 3.1424155302	-0.3966223789	 0.3168321512	 0.30076
N	 4.2046409112	 0.0151990089	 0.5119135409	-0.322279
H	 0.2338662912	 2.2822499237	-0.046344123	 0.140697
H	-1.1534902001	 1.7269090573	-0.9924986375	 0.126033
H	-1.2706382379	 1.7954596298	 0.773328971	 0.125076
H	-2.0698141648	-0.6760672174	 0.673280761	 0.112492
H	-1.2451877517	-1.7018522374	-0.5395359025	 0.101673
H	 1.0384619476	-0.0474131442	 2.1114324071	 0.10875
H	 1.8262857183	-2.0010183537	 0.0082598752	 0.130061
H	 0.7787392526	-0.6960641014	-1.7476275142	 0.227455
68.7375	149.8938	196.0978	203.0014	269.3341	341.1418	382.605	404.4955	478.1033	556.6677	606.3271	667.8391	796.9622	856.8356	896.718	925.6895	949.225	978.7583	996.8083	1013.9229	1036.6326	1052.6609	1139.8499	1155.4623	1172.7706	1197.6152	1238.4694	1279.2429	1294.406	1325.3394	1372.6642	1397.1006	1414.5738	1484.4069	1490.7343	1515.2849	2354.7585	3013.3452	3032.8144	3049.2181	3063.811	3097.8424	3111.5001	3126.404	3527.5825
CC12COC1C(N2)C#N	C[C@]12CO[C@H]1[C@@H](N2)C#N	
InChI=1S/C6H8N2O/c1-6-3-9-5(6)4(2-7)8-6/h4-5,8H,3H2,1H3	InChI=1S/C6H8N2O/c1-6-3-9-5(6)4(2-7)8-6/h4-5,8H,3H2,1H3/t4-,5-,6-/m0/s1
