23
gdb 101326	2.96085	0.78084	0.7473	2.0865	82.42	-0.261	0.0751	0.3362	1681.4346	0.203465	-425.408829	-425.397959	-425.397015	-425.445665	39.031	
C	-3.5144715501	 1.787892213	 1.3650380585	-0.395506
C	-2.9793564968	 0.4892553498	 0.7543259784	-0.166413
C	-3.0456954845	-0.7339455502	 1.6910163124	-0.005253
C	-4.4828081987	-1.1545822142	 2.0331494103	-0.401218
C	-2.3161000078	-1.8945418505	 1.0434839702	 0.06566
O	-0.8876927361	-1.8277238206	 0.9588082172	-0.282539
C	-1.4774147084	-2.8908143023	 1.7316980337	 0.024611
C	-1.1299676778	-2.8833129814	 3.1995576344	-0.08724
O	 0.2308902426	-3.2341520755	 3.3929176575	-0.419533
H	-3.3798256075	 2.6257052744	 0.6740183273	 0.115697
H	-4.5819602291	 1.7256532133	 1.5981713345	 0.117382
H	-2.98528992	 2.0355703301	 2.2922346975	 0.115556
H	-3.5283458393	 0.2619652131	-0.1701035625	 0.09174
H	-1.9325276308	 0.6321912827	 0.4627532743	 0.114449
H	-2.5240964742	-0.4696912731	 2.6181251198	 0.076352
H	-4.4937812839	-2.0208781561	 2.7023577397	 0.116838
H	-5.0289033493	-0.3469008538	 2.5270319306	 0.122442
H	-5.0381578987	-1.426500195	 1.1275895751	 0.116464
H	-2.7826301904	-2.2309775963	 0.1123551654	 0.085748
H	-1.372993608	-3.8716031719	 1.2633900556	 0.095661
H	-1.3572906472	-1.906801477	 3.647579825	 0.094381
H	-1.720354056	-3.6412865679	 3.7261588487	 0.111666
H	 0.7502702822	-2.6152991205	 2.8667414864	 0.293054
46.1728	70.1366	82.206	126.3449	171.7121	207.1047	235.3033	254.1833	290.7972	364.4808	401.0557	416.6928	476.1021	514.6903	579.7831	770.8343	798.3575	822.5517	860.2024	930.9584	954.2833	982.2426	993.7871	1047.8328	1052.2041	1068.259	1113.3808	1137.6217	1169.881	1184.9755	1193.6398	1231.6786	1283.5442	1294.4184	1307.3957	1351.9003	1357.5334	1380.2544	1401.9442	1408.3754	1414.6045	1435.3845	1483.5344	1489.8538	1494.2581	1495.8642	1503.826	1506.2926	1510.6493	3011.0234	3013.3062	3030.6585	3033.6213	3042.2013	3059.2659	3064.1875	3071.3124	3095.799	3097.9974	3099.8076	3105.2173	3117.1534	3800.0699
CCC(C)C1OC1CO	CC[C@@H](C)[C@H]1O[C@H]1CO	
InChI=1S/C7H14O2/c1-3-5(2)7-6(4-8)9-7/h5-8H,3-4H2,1-2H3	InChI=1S/C7H14O2/c1-3-5(2)7-6(4-8)9-7/h5-8H,3-4H2,1-2H3/t5-,6+,7-/m1/s1
