17
gdb 109370	2.56106	1.41343	0.94407	3.4424	71.74	-0.2606	-0.0382	0.2224	1203.4974	0.136392	-459.003944	-458.995473	-458.994529	-459.03733	30.968	
O	 0.020562021	 1.4114701271	-0.0829255522	-0.42402
C	-0.0113413017	-0.0039912038	-0.0805951588	-0.154856
C	-1.4415384047	-0.4661750788	-0.0234756274	 0.102752
C	-2.489211007	 0.3557878626	 0.0936933522	-0.138209
C	-3.88571885	-0.1895666122	 0.1582947987	-0.279102
C	-3.9259203581	-1.5461580275	-0.5308641958	-0.080142
O	-2.8883654591	-2.4236981003	-0.0670143453	-0.23376
C	-1.6224908409	-1.9408527995	 0.0113430408	 0.397197
O	-0.7028106024	-2.7079019996	 0.1577088641	-0.340884
H	 0.9406560799	 1.6871797522	-0.0603377527	 0.294284
H	 0.4646816155	-0.4247622423	-0.9804136324	 0.112657
H	 0.5307576939	-0.4277021997	 0.7778303643	 0.121683
H	-2.3245820983	 1.4256845107	 0.1630347826	 0.130491
H	-4.2123302697	-0.2730830639	 1.2046993165	 0.131151
H	-4.594548515	 0.4860752533	-0.3334416903	 0.120675
H	-4.8597571094	-2.0793799344	-0.3416325579	 0.12428
H	-3.8147243739	-1.4162259639	-1.6153965164	 0.115803
84.8103	116.163	190.1748	211.1549	216.166	296.8302	344.1061	359.3565	486.5149	510.4482	579.2744	668.3966	754.2374	772.5011	883.5968	911.7834	937.5671	988.6635	1048.1256	1073.7745	1086.7107	1102.5745	1154.6408	1191.8244	1223.9424	1241.2202	1247.1198	1299.5009	1367.1081	1372.4914	1429.7055	1461.4635	1467.0073	1501.9915	1507.8522	1719.4707	1810.6159	2981.5142	3008.8021	3011.3742	3025.4375	3068.5704	3110.9044	3196.7153	3846.9327
OCC1=CCCOC1=O	OCC1=CCCOC1=O	
InChI=1S/C6H8O3/c7-4-5-2-1-3-9-6(5)8/h2,7H,1,3-4H2	InChI=1S/C6H8O3/c7-4-5-2-1-3-9-6(5)8/h2,7H,1,3-4H2
