15
gdb 5403	5.20355	1.65283	1.26434	0.6063	71.12	-0.228	-0.0165	0.2114	929.069	0.121284	-362.724946	-362.718174	-362.71723	-362.755961	25.247	
C	-0.0011981714	 1.4036419178	 0.0079279334	-0.230025
O	-0.0191228423	-0.022196809	 0.003496518	-0.263407
C	-1.2262244577	-0.6213185232	 0.0106884643	 0.460126
N	-2.3244961667	 0.1207046896	 0.0214998352	-0.356047
C	-3.5028844673	-0.5195018951	 0.0282813696	-0.002196
C	-3.6307653644	-1.8984659844	 0.0246368571	-0.138266
C	-2.4590563359	-2.6633294407	 0.0131816674	-0.06544
C	-1.2335476574	-2.0260864624	 0.006016886	-0.216214
H	 1.0539939352	 1.6809923542	 0.0004676433	 0.125472
H	-0.5064641124	 1.8085258637	-0.8736789031	 0.133278
H	-0.4923927824	 1.8028271375	 0.9000320309	 0.13326
H	-4.3842779766	 0.1174590732	 0.037105382	 0.107436
H	-4.6099023065	-2.361878882	 0.0305148956	 0.097196
H	-2.5080421182	-3.7474297762	 0.0099137951	 0.107051
H	-0.2949729861	-2.566198193	-0.0029314148	 0.107775
113.3139	169.1535	239.6209	248.886	427.9551	460.6269	541.8246	612.5947	631.7216	766.0253	805.3464	834.0997	892.2409	979.3483	1001.4427	1001.8101	1052.2917	1070.1842	1120.8354	1167.5127	1178.2768	1205.519	1307.19	1325.6711	1343.4196	1454.1285	1477.9901	1478.8957	1500.1342	1522.7368	1612.8048	1642.4445	3041.0642	3111.0236	3144.4216	3154.2285	3181.4305	3206.4545	3212.6619
COC1=NC=CC=C1	COc1ncccc1	
InChI=1S/C6H7NO/c1-8-6-4-2-3-5-7-6/h2-5H,1H3	InChI=1S/C6H7NO/c1-8-6-4-2-3-5-7-6/h2-5H,1H3
