20
gdb 87923	3.98516	1.0261	0.92747	2.47	79.38	-0.2377	-0.0172	0.2206	1313.0997	0.170792	-403.164112	-403.155379	-403.154435	-403.197756	33.327	
C	-0.007150813	 1.5167924861	-0.1456365209	-0.397678
C	 0.0229872546	 0.0213584975	 0.0648804169	-0.06446
N	 1.3382543711	-0.6499848213	-0.0259632869	-0.37501
C	 0.6053430355	-0.6388874113	 1.2566097075	 0.329792
C	 1.2924866142	 0.0826797183	 2.4175552695	-0.281863
C	 1.9015409321	-1.0613842787	 3.2468467916	-0.318707
C	 0.9840942705	-2.2661194026	 3.0085235033	 0.401704
O	 0.9880638195	-3.2959716453	 3.6300018033	-0.310541
C	 0.0496485244	-1.9307041637	 1.8356878729	-0.406658
H	 0.8609049398	 1.9979078312	 0.3101915506	 0.12668
H	 0.0025615708	 1.7535497871	-1.2147976978	 0.122688
H	-0.9139223318	 1.9534142238	 0.2872748992	 0.116057
H	-0.8169400281	-0.5066986232	-0.3879646964	 0.079317
H	 1.2402074446	-1.5530741327	-0.4844715709	 0.224585
H	 2.0363034443	 0.7967362786	 2.0633259131	 0.119673
H	 0.5494275999	 0.629467357	 3.0110994491	 0.104625
H	 2.8930471013	-1.3337655782	 2.8625169674	 0.141665
H	 2.0144297054	-0.8591299921	 4.3142300893	 0.127433
H	-0.9566595138	-1.7814283946	 2.2513234531	 0.136101
H	-0.0176058313	-2.7619852459	 1.1279508861	 0.124597
58.3155	119.3611	163.3667	184.1602	233.1553	356.3128	375.6382	461.1797	468.412	495.673	542.236	583.4737	716.3029	737.1107	803.9329	824.9488	872.9931	910.1355	957.5784	978.7034	993.414	1031.2053	1043.0435	1088.899	1116.8319	1139.3201	1170.1625	1182.3911	1216.8061	1241.8745	1249.5833	1292.5508	1307.4904	1309.942	1368.6415	1410.9961	1437.9478	1447.1151	1471.2918	1484.8307	1494.3224	1505.1948	1850.0294	3022.4153	3034.3912	3036.8301	3041.2586	3090.6671	3094.7125	3096.6864	3110.9422	3123.7914	3132.6876	3487.559
CC1NC11CCC(=O)C1	C[C@H]1N[C@]21CCC(=O)C2	
InChI=1S/C7H11NO/c1-5-7(8-5)3-2-6(9)4-7/h5,8H,2-4H2,1H3	InChI=1S/C7H11NO/c1-5-7(8-5)3-2-6(9)4-7/h5,8H,2-4H2,1H3/t5-,7-/m1/s1
