19
gdb 102933	3.27982	0.86212	0.71972	4.476	78.47	-0.269	0.0142	0.2832	1581.5828	0.157843	-419.222002	-419.211754	-419.21081	-419.258497	35.208	
C	 0.1510261076	 1.6046215629	 0.1419354939	-0.39719
C	 0.0689150795	 0.0814972012	 0.0250230207	-0.188235
C	 0.5477236422	-0.6627774166	 1.2926037948	-0.139323
C	 0.3475869713	-2.1876288507	 1.1592204834	-0.100784
O	 0.5239093434	-2.8535559019	 2.3954804164	-0.184316
C	 1.7227553783	-3.4388735998	 2.6368026763	 0.131503
N	 1.9243811974	-4.0032651966	 3.7437568563	-0.437581
C	 1.9521970964	-0.3600904856	 1.5846970392	 0.286092
N	 3.0690394804	-0.1384451273	 1.784924784	-0.332325
H	 1.1804552225	 1.9348907129	 0.3087487331	 0.147899
H	-0.2114299112	 2.0798713742	-0.7736911121	 0.125498
H	-0.4593817766	 1.9708030169	 0.9741467508	 0.124527
H	-0.9671039693	-0.2242184841	-0.1613355039	 0.112202
H	 0.6588599935	-0.261466961	-0.8329467917	 0.119507
H	-0.0481309048	-0.3314253457	 2.1520735023	 0.14364
H	-0.6838035006	-2.3762727106	 0.84831597	 0.129907
H	 1.0181722148	-2.5930379089	 0.3909314147	 0.122151
H	 2.4229870425	-3.3620335383	 1.7951997905	 0.101389
H	 2.8612707028	-4.3998649609	 3.7669027016	 0.235439
48.964	57.6941	94.7602	136.3878	156.6711	181.4169	216.1902	272.8718	336.7525	373.0173	395.7646	551.1169	598.4197	652.2277	758.6345	816.4381	835.9777	914.2167	976.2914	1003.9521	1021.9747	1038.7629	1088.1698	1130.4226	1138.8169	1151.9585	1236.6781	1267.3941	1296.355	1328.5055	1367.6866	1380.3662	1402.082	1418.9756	1426.2075	1485.6258	1498.6932	1501.0619	1507.5396	1749.4967	2353.654	3025.2854	3033.6873	3040.8349	3041.3701	3047.3442	3074.0052	3097.5478	3111.8837	3120.7905	3524.321
CCC(COC=N)C#N	CC[C@@H](CO[CH][NH])C#N	
InChI=1S/C6H10N2O/c1-2-6(3-7)4-9-5-8/h5-6,8H,2,4H2,1H3	InChI=1S/C6H10N2O/c1-2-6(3-7)4-9-5-8/h5-6,8H,2,4H2,1H3/t6-/m1/s1
