18
gdb 126641	4.93758	0.80181	0.73273	3.2869	77.27	-0.2185	0.0011	0.2196	1567.4883	0.147453	-435.256818	-435.247693	-435.246749	-435.292919	32.223	
C	-0.0967275776	 1.470427366	-0.0021525421	-0.378815
C	-0.1998861692	-0.0452550443	-0.1865402426	-0.153649
C	 0.8588986832	-0.5929944227	-1.153881131	-0.150319
N	 0.8090403589	-2.0479894021	-1.2399151099	-0.391796
C	 0.1882713649	-2.5834184542	-2.193797122	 0.542981
N	 0.0369094996	-3.9486857025	-2.419251055	-0.368063
C	-0.676413407	-4.1020012275	-3.5683394606	 0.08175
N	-1.018652516	-2.9853682939	-4.1108209635	-0.125935
O	-0.4808013914	-1.9876416835	-3.241626777	-0.254732
H	 0.8820949816	 1.7560892273	 0.3994483287	 0.113014
H	-0.2293549931	 1.9968271339	-0.9539218813	 0.116196
H	-0.8596979387	 1.8391581613	 0.6902153958	 0.111525
H	-0.0886138784	-0.5541374543	 0.778044711	 0.101573
H	-1.1946921992	-0.3096929034	-0.5655515783	 0.099236
H	 0.739003788	-0.1125267935	-2.1352483574	 0.1055
H	 1.8537865238	-0.3195620388	-0.7813104896	 0.096526
H	 0.4354780739	-4.6576756852	-1.8304314151	 0.287512
H	-0.9368832134	-5.0608906028	-3.9906401001	 0.167495
11.9504	83.9143	95.6029	178.8387	220.8829	238.1277	306.9136	384.8092	399.167	564.3238	608.3856	696.9484	722.1595	757.5661	875.69	887.5824	890.3284	899.0088	927.8124	941.3544	1037.3785	1083.6361	1124.7613	1129.02	1162.3102	1204.2107	1273.4351	1313.4311	1325.8048	1329.3222	1392.8225	1411.6057	1440.2186	1488.2032	1499.3031	1501.41	1515.3886	1652.5782	1811.9171	3000.3053	3028.4941	3030.4912	3041.0423	3068.285	3097.5313	3102.5776	3265.0847	3702.3673
CCCN=C1NC=NO1	CCCN=c1[nH]cno1	
InChI=1S/C5H9N3O/c1-2-3-6-5-7-4-8-9-5/h4H,2-3H2,1H3,(H,6,7,8)	InChI=1S/C5H9N3O/c1-2-3-6-5-7-4-8-9-5/h4H,2-3H2,1H3,(H,6,7,8)
