16
gdb 45868	1.97011	1.75193	1.33258	3.509	73.79	-0.2611	-0.0423	0.2188	1027.9225	0.125133	-400.793844	-400.785894	-400.78495	-400.826755	29.393	
O	 0.0252181249	-0.0356999168	 0.0055042484	-0.297175
C	-0.0316055839	 1.1655371754	 0.0031114157	 0.407569
C	-1.3249476378	 1.9569222403	-0.041294675	-0.365021
C	-1.2222872848	 3.1810412167	-0.918226367	-0.041955
C	-0.0893299041	 3.6009602614	-1.4777584239	-0.055412
C	 1.2410949619	 2.9227842801	-1.283391177	-0.279674
C	 1.2533343743	 2.0290465769	-0.0128646935	-0.251135
C	 1.3253403329	 2.8392393876	 1.2027403011	 0.271928
N	 1.3712400266	 3.4699109075	 2.1706198991	-0.322299
H	-2.1214499724	 1.2836951397	-0.3741630963	 0.142381
H	-1.5797187285	 2.2515763167	 0.9881201415	 0.160628
H	-2.1473349366	 3.7234766424	-1.0915711559	 0.107005
H	-0.0972798839	 4.4798606195	-2.1158037843	 0.104915
H	 1.4815571529	 2.2919008602	-2.1493492866	 0.135948
H	 2.0451606822	 3.6622198724	-1.2115039171	 0.136875
H	 2.1037845264	 1.3423502899	-0.0273949593	 0.145423
83.0555	101.7474	136.7829	217.1667	367.6337	388.9466	439.0488	456.0512	549.6868	590.8647	599.4953	688.7257	728.5143	854.6853	890.0179	936.1452	938.9455	975.9715	1004.1397	1040.0147	1050.7248	1117.6127	1184.9089	1216.8612	1231.8132	1247.5132	1316.6761	1335.1989	1367.537	1410.1168	1444.339	1478.189	1727.6033	1839.7265	2352.6689	3008.0839	3024.8866	3074.0266	3080.2054	3086.7513	3161.3635	3182.7799
O=C1CC=CCC1C#N	O=C1CC=CC[C@H]1C#N	
InChI=1S/C7H7NO/c8-5-6-3-1-2-4-7(6)9/h1-2,6H,3-4H2	InChI=1S/C7H7NO/c8-5-6-3-1-2-4-7(6)9/h1-2,6H,3-4H2/t6-/m0/s1
