12
gdb 20615	3.54919	1.96788	1.27598	0.4	63.89	-0.277	-0.0584	0.2186	869.0668	0.085242	-373.722401	-373.715364	-373.71442	-373.754503	24.306	
C	 0.014952713	 1.5165224125	 0.0942451528	-0.499773
C	 0.0630410746	 0.0315533915	-0.016281487	 0.20589
C	-0.0462071439	-0.7748561605	-1.1383054911	 0.213681
N	 0.0694459516	-2.0428540689	-0.6474647126	-0.26365
N	 0.2375821807	-2.031049209	 0.6755415734	-0.086556
N	 0.2344285729	-0.7850588929	 1.0601059725	-0.226343
C	-0.2327430828	-0.4750380609	-2.5033581769	 0.229262
N	-0.3860744445	-0.2233379208	-3.6237132892	-0.333762
H	 0.9434697064	 1.8996167988	 0.5280135471	 0.157144
H	-0.1285104521	 1.978061532	-0.8849235665	 0.147245
H	-0.804441538	 1.8265558389	 0.7496396091	 0.157138
H	 0.042304302	-2.9184192607	-1.1480629314	 0.299722
48.0307	139.1775	173.0892	274.2862	329.446	512.3986	543.3575	577.2333	595.0069	710.0634	717.0515	728.0975	991.0596	1031.5276	1064.6567	1113.8062	1202.4932	1223.0719	1321.8577	1364.3258	1416.9202	1476.4386	1485.0069	1491.1876	1598.674	2347.2479	3049.1811	3110.0324	3136.671	3645.6201
CC1=C(NN=N1)C#N	Cc1c([nH]nn1)C#N	
InChI=1S/C4H4N4/c1-3-4(2-5)7-8-6-3/h1H3,(H,6,7,8)	InChI=1S/C4H4N4/c1-3-4(2-5)7-8-6-3/h1H3,(H,6,7,8)
