18
gdb 73976	2.8197	2.01262	1.43229	1.6599	82.87	-0.1946	-0.0234	0.1712	940.8541	0.148219	-364.72739	-364.720072	-364.719128	-364.758838	29.338	
C	-0.1409773792	 1.3528397799	-0.1841702484	-0.479487
C	-0.0141547877	-0.0793657475	 0.2188418593	 0.27845
C	-1.02175647	-0.9531810019	 0.4277767159	-0.079628
C	-2.0884741951	-1.0295844284	-0.6376324741	-0.146306
C	-1.6433364695	-1.9850356356	-1.4722270998	-0.084131
C	-0.5035641285	-2.7799060336	-0.8556306676	-0.053224
C	-0.4372688639	-2.3608030384	 0.5506218634	-0.084545
N	 0.8225516483	-2.3012868666	-0.1646474838	-0.140128
C	 1.2455250798	-0.8857161415	-0.1025219376	-0.221768
H	 0.5017777442	 1.995893249	 0.4306114593	 0.1325
H	 0.1774590049	 1.5011589927	-1.2253478138	 0.127609
H	-1.1675340051	 1.7139034732	-0.0802209886	 0.125803
H	-2.8837053443	-0.3196547727	-0.8238223501	 0.110476
H	-2.0711972617	-2.2400412454	-2.4344736764	 0.101305
H	-0.3660596167	-3.8093810091	-1.1653515154	 0.100844
H	-0.5660759808	-2.9836301587	 1.434063164	 0.084453
H	 1.6369589841	-0.5371138095	-1.0682550173	 0.116463
H	 2.0768207112	-0.8164818858	 0.6153795508	 0.111315
121.4276	157.6731	208.722	307.7768	368.035	454.9234	510.6928	556.863	594.7578	690.9945	735.8534	763.1033	775.3469	828.7622	855.8144	892.1622	907.2771	942.3405	956.2558	996.2901	1030.8768	1052.1671	1068.1278	1102.3766	1117.7555	1131.4264	1200.2553	1222.4316	1254.7718	1285.3598	1312.4277	1332.3975	1348.5166	1406.2901	1466.2767	1478.6353	1486.7061	1588.9478	1635.7851	2986.9091	3009.1137	3030.7045	3056.7055	3110.7313	3115.1348	3181.1091	3198.6554	3224.7823
CC1=C2C=CC3C2N3C1	C[C]1[C]2C=C[C@@H]3[C@H]2N3C1	
InChI=1S/C8H9N/c1-5-4-9-7-3-2-6(5)8(7)9/h2-3,7-8H,4H2,1H3	InChI=1S/C8H9N/c1-5-4-9-7-3-2-6(5)8(7)9/h2-3,7-8H,4H2,1H3/t7-,8+,9?/m1/s1
