17
gdb 50825	5.37386	0.75837	0.73484	1.9637	74.21	-0.2549	-0.0302	0.2247	1536.2829	0.136718	-455.15353	-455.144702	-455.143757	-455.189279	30.641	
N	 1.0909544015	-0.096401206	-0.3141958902	-0.460575
C	-0.0194633523	 0.4599768175	-0.0515646986	 0.100833
N	-1.1686887291	-0.3096254026	 0.0646857322	-0.324864
C	-2.4167084772	 0.2102099761	 0.3525011186	 0.428298
O	-2.6042777756	 1.3983448127	 0.5232883541	-0.357137
C	-3.5328548435	-0.8066202258	 0.4478501459	-0.176076
C	-4.4043201121	-0.7279169242	 1.7301263704	-0.066369
O	-5.608009075	-0.5466882435	 0.9650673985	-0.267798
C	-4.8583334363	-0.4196674836	-0.2566823987	-0.067439
H	 1.8322887037	 0.5998035828	-0.3660915814	 0.236075
H	-0.2182690297	 1.5213501355	 0.1065047871	 0.143786
H	-1.0496185969	-1.3035670658	-0.0702084368	 0.263659
H	-3.1964853908	-1.8188648796	 0.2155960467	 0.081195
H	-4.4350765679	-1.6335982343	 2.3453874871	 0.108489
H	-4.1779190486	 0.1436556863	 2.3549284304	 0.124057
H	-4.8599567958	 0.6084770045	-0.6354897897	 0.126002
H	-5.2094339645	-1.10880619	-1.0321136556	 0.107865
13.9797	86.2199	121.3866	172.9734	174.9039	270.6529	300.4468	351.3342	497.7375	637.6744	671.6178	750.5941	802.8108	835.7738	882.2556	905.6301	979.9399	1010.8007	1050.9419	1052.9279	1090.8912	1091.3552	1124.9518	1167.327	1170.9814	1189.5134	1240.4717	1297.1305	1315.8228	1369.3366	1386.2283	1395.4168	1496.2028	1500.4032	1525.7085	1728.0754	1791.7571	3023.9829	3033.7744	3074.1798	3081.0256	3096.1927	3128.5618	3508.2761	3613.9583
N=CNC(=O)C1COC1	N=CNC(=O)C1COC1	
InChI=1S/C5H8N2O2/c6-3-7-5(8)4-1-9-2-4/h3-4H,1-2H2,(H2,6,7,8)	InChI=1S/C5H8N2O2/c6-3-7-5(8)4-1-9-2-4/h3-4H,1-2H2,(H2,6,7,8)
