22
gdb 40731	4.20246	1.05052	0.94632	0.8394	86.01	-0.2306	0.083	0.3135	1317.5103	0.196552	-367.181516	-367.173527	-367.172583	-367.214132	32.115	
C	 0.0149395189	 1.4756423292	-0.1076884401	-0.288547
C	 1.3601223722	 0.808878631	 0.0621436445	-0.025478
C	 1.8911901143	 0.6308665351	 1.4751332606	-0.228993
C	 0.7091763902	 0.0450533137	 2.284694918	 0.042107
C	-0.1380064043	-0.7325591286	 1.2486819648	-0.228992
C	 0.1084948156	-0.03209471	-0.0775336582	-0.025478
N	 1.1715599896	-0.822325405	 3.3636762993	-0.065007
C	 1.4888760678	-0.1648714549	 4.6287977011	-0.224239
C	 0.2589410135	-0.9912733925	 4.4915294041	-0.224239
H	-0.431746067	 2.0011669062	 0.7308985195	 0.105642
H	-0.18760656	 1.9366720599	-1.0684828747	 0.10521
H	 2.0748444418	 0.888969535	-0.7495125342	 0.078761
H	 2.7077129113	-0.1003847754	 1.4761086383	 0.108842
H	 2.2759169041	 1.5555150352	 1.9193355828	 0.09127
H	 0.106490183	 0.8736340785	 2.6965392148	 0.0538
H	 0.23408951	-1.7624230135	 1.2000594438	 0.108842
H	-1.1954092042	-0.7768844916	 1.5319479122	 0.09127
H	-0.1030122805	-0.5743416737	-0.9925532911	 0.078761
H	 2.3574857151	-0.5475408286	 5.1567732672	 0.114883
H	 1.357215359	 0.9145395389	 4.6897389883	 0.10835
H	-0.6929921495	-0.4630095442	 4.4609230835	 0.108351
H	 0.2116273491	-1.9893586247	 4.9172804055	 0.114883
92.2329	107.8274	186.0511	299.1483	300.5592	351.0352	433.1284	461.5188	593.8886	618.1809	779.6232	783.115	826.8718	841.7743	878.2323	889.8402	901.6518	907.3098	938.77	988.6973	1017.3178	1038.7908	1048.3922	1072.1934	1073.7289	1104.9851	1110.8126	1114.8234	1115.3979	1126.5831	1176.3649	1181.7062	1183.7922	1207.0635	1253.0529	1303.2715	1306.2547	1320.465	1326.4946	1359.303	1383.8862	1407.6257	1488.0949	1490.2065	1490.9473	1503.8238	1518.8371	2927.6772	3033.5644	3036.9122	3074.5244	3077.2022	3093.0181	3097.404	3124.755	3162.3097	3170.8798	3176.2943	3190.5481	3207.6667
C1C2CC(CC12)N1CC1	C1[C@H]2C[C@@H](C[C@@H]12)N1CC1	
InChI=1S/C8H13N/c1-2-9(1)8-4-6-3-7(6)5-8/h6-8H,1-5H2	InChI=1S/C8H13N/c1-2-9(1)8-4-6-3-7(6)5-8/h6-8H,1-5H2/t6-,7+,8-
