17
gdb 19942	4.01011	1.48813	1.1543	2.4967	69.6	-0.2604	0.0275	0.2878	1030.0817	0.143025	-363.845548	-363.838069	-363.837125	-363.877967	27.673	
N	-0.3074241028	 1.1141419629	-0.4522495523	-0.540645
C	-0.10090869	-0.0592776123	-0.0647930362	 0.424689
O	 1.0638406973	-0.6798598286	 0.3424531979	-0.255059
C	 0.352916323	-1.922886013	 0.6346205155	-0.102093
C	-0.9738085106	-1.2887400551	 0.1497524557	-0.139383
C	-2.1154637181	-1.1710808449	 1.1224929507	 0.025586
C	-3.4953858284	-0.8259666267	 0.6267981587	-0.257516
C	-3.2089162594	-2.2139506595	 1.1401819211	-0.280543
H	 0.5539434233	 1.6635642543	-0.4511569154	 0.226961
H	 0.7516705531	-2.7510167513	 0.0440948379	 0.118986
H	 0.4000237001	-2.1575408821	 1.7014053245	 0.119643
H	-1.3231471973	-1.7076547641	-0.7989598313	 0.101867
H	-1.8360634563	-0.7516901076	 2.0855314462	 0.088802
H	-4.1027447152	-0.1642887268	 1.2332636895	 0.119262
H	-3.6281895128	-0.6928497653	-0.4411982336	 0.122392
H	-3.1525375776	-3.0221126955	 0.4180713113	 0.111437
H	-3.6206915083	-2.5064559245	 2.0995182397	 0.115615
66.6639	110.1256	146.7978	257.2661	306.6771	386.6469	492.8653	621.4794	730.6113	770.1159	816.8543	832.351	868.4917	910.4123	925.053	962.9276	968.6291	1007.8417	1020.3452	1061.1707	1077.3945	1082.5462	1134.9214	1154.793	1193.771	1200.9885	1225.2757	1236.4663	1237.606	1291.9379	1361.1035	1431.117	1471.7914	1507.2902	1514.7828	1823.3211	3058.5827	3066.2337	3118.6973	3131.9786	3139.8629	3143.0364	3211.8741	3228.7157	3473.3979
N=C1OCC1C1CC1	[NH][C]1OC[C@H]1C1CC1	
InChI=1S/C6H9NO/c7-6-5(3-8-6)4-1-2-4/h4-5,7H,1-3H2	InChI=1S/C6H9NO/c7-6-5(3-8-6)4-1-2-4/h4-5,7H,1-3H2/t5-/m0/s1
