16
gdb 50107	2.02962	1.49707	0.94283	5.8226	70.24	-0.2476	-0.0217	0.2259	1206.4499	0.122099	-437.871619	-437.862627	-437.861683	-437.906629	31.372	
O	-0.9204538478	 0.5720527643	 0.4995350405	-0.26394
C	-0.4053757905	 1.6558430934	 0.611181296	 0.174988
C	 1.0611089918	 1.8821134879	 0.5567527277	-0.132497
C	 1.5429595251	 3.111888142	-0.2247712052	-0.335885
C	 1.7045665489	 3.0839197792	 1.2430738246	 0.115674
O	 0.9285564669	 3.9957444711	 1.9671567292	-0.228845
C	 0.9465733635	 3.801855534	 3.3630278105	-0.202367
C	 0.2308810158	 2.5936559969	 3.8128446496	 0.255985
N	-0.3283667927	 1.650948868	 4.1774725381	-0.289024
H	-1.0125139493	 2.5784574677	 0.7385415006	 0.08099
H	 1.6504665313	 0.9744351343	 0.4896417128	 0.116534
H	 2.4136209137	 3.0050158857	-0.860017554	 0.1388
H	 0.7671565595	 3.7653731944	-0.6106832104	 0.144354
H	 2.6988109307	 2.9225729951	 1.6592259862	 0.10884
H	 1.9767624933	 3.7553742067	 3.746415367	 0.147775
H	 0.4641176198	 4.6790366392	 3.8031306568	 0.168618
41.0574	65.0403	114.3739	177.5332	234.0942	252.2577	321.7075	371.6922	429.7194	450.2977	556.1761	636.2109	764.5049	834.0931	852.1854	903.9538	942.6877	1004.3558	1041.0366	1057.548	1068.0655	1102.7835	1125.3782	1166.2158	1177.4384	1226.3957	1303.4121	1335.8434	1383.2341	1417.271	1439.9103	1470.2347	1482.4529	1820.6619	2360.3469	2894.7017	3005.5013	3098.8867	3106.9693	3141.3407	3183.381	3234.3455
O=CC1CC1OCC#N	O=C[C@H]1C[C@H]1OCC#N	
InChI=1S/C6H7NO2/c7-1-2-9-6-3-5(6)4-8/h4-6H,2-3H2	InChI=1S/C6H7NO2/c7-1-2-9-6-3-5(6)4-8/h4-6H,2-3H2/t5-,6-/m1/s1
