23
gdb 116864	3.79145	0.58066	0.57087	0.9249	93.56	-0.2411	0.0414	0.2825	2129.8597	0.201638	-388.259659	-388.247892	-388.246948	-388.29823	41.307	
C	-0.040079411	 1.4255750747	 0.0096232115	-0.217521
O	 0.0468360878	 0.0206209552	 0.0011672785	-0.227207
C	-1.2310910298	-0.5895587117	 0.0109383568	-0.200736
C	-1.0989412223	-2.0402376836	 0.0017676962	-0.099144
C	-1.0130411942	-3.2414365461	-0.0054987336	 0.237485
C	-0.9006588069	-4.705377689	-0.0145796525	 0.071171
C	-2.3182516527	-5.3218963533	-0.0046100797	-0.390604
C	-0.1481291299	-5.1543094576	-1.2875685303	-0.390444
C	-0.1242987442	-5.1682327272	 1.238961657	-0.390452
H	 0.9811192586	 1.8131614399	 0.0013006778	 0.129507
H	-0.573903135	 1.8100992211	-0.8746314038	 0.103017
H	-0.5557226031	 1.8005025346	 0.9086630291	 0.103016
H	-1.7988403544	-0.2693631764	 0.9027505308	 0.110635
H	-1.8169905705	-0.2598093531	-0.8655295708	 0.110631
H	-2.8885588407	-5.0067030773	-0.8830346062	 0.119377
H	-2.2522514073	-6.4153072334	-0.0112883293	 0.109978
H	-2.8717946488	-5.0165124927	 0.8878874972	 0.119373
H	 0.8572979968	-4.7253701749	-1.3177488235	 0.123519
H	-0.0589103015	-6.2459608105	-1.3069174091	 0.108252
H	-0.6799736309	-4.8357958188	-2.1885051035	 0.119191
H	-0.6390829789	-4.8598151642	 2.1532208174	 0.119184
H	-0.0347656683	-6.2600141273	 1.2445412098	 0.108255
H	 0.8815360572	-4.7394837781	 1.2549535004	 0.123517
15.9048	68.383	72.0348	125.2737	172.8946	213.3395	230.5678	269.3327	271.5713	290.2035	293.328	346.3208	363.2566	385.8716	487.3248	545.4977	565.3282	681.7243	846.0268	931.9908	932.5725	964.8226	975.6363	1029.3135	1049.1107	1050.9022	1081.5573	1151.6702	1182.9765	1220.0365	1222.609	1223.4248	1257.5767	1293.0937	1395.8743	1395.9834	1413.1314	1429.076	1474.3878	1477.9812	1484.1372	1484.8029	1484.9842	1496.6234	1498.4321	1498.487	1517.2	1518.3757	2365.9134	2940.0572	2956.1019	2965.9557	3007.1455	3031.7716	3032.2333	3038.7408	3103.6389	3104.4448	3110.5607	3114.3722	3118.4404	3118.684	3119.7679
COCC#CC(C)(C)C	COCC#CC(C)(C)C	
InChI=1S/C8H14O/c1-8(2,3)6-5-7-9-4/h7H2,1-4H3	InChI=1S/C8H14O/c1-8(2,3)6-5-7-9-4/h7H2,1-4H3
