18
gdb 68282	2.25169	1.61048	1.47653	2.4131	72.82	-0.2517	-0.0371	0.2146	1012.3625	0.146247	-439.026584	-439.018117	-439.017173	-439.059767	32.381	
C	-0.0116668992	 1.4242275461	-0.0784420011	-0.522517
C	 0.0006492865	-0.0746674039	-0.0775727094	 0.275668
C	 0.7109683213	-1.0753672597	-1.0313591196	-0.28851
C	 0.0565582862	-1.9163922236	 0.0857834594	-0.09672
N	 0.4958196156	-0.8942711435	 1.1265449744	-0.404057
C	-1.2454806252	-1.0394787603	-0.0302876045	 0.367466
O	-2.0625779394	-0.9669711078	 1.0968434875	-0.504213
C	-2.1800591304	-1.1926387387	-1.2117402548	 0.098371
O	-1.9174418764	-0.9822355426	-2.3693001984	-0.259807
H	 0.999341138	 1.8285567107	 0.0386605099	 0.12432
H	-0.4208546527	 1.797050832	-1.0224197897	 0.142748
H	-0.6316960172	 1.7999656247	 0.7414351064	 0.135495
H	 0.3432631509	-1.1665211757	-2.0518061085	 0.140621
H	 1.8034348012	-1.0430106123	-0.9825519867	 0.091585
H	 0.1183362042	-2.9880091158	 0.2795365683	 0.091719
H	 1.518924744	-0.8634238287	 1.1601722847	 0.210619
H	-1.44032971	-0.9019037315	 1.839273162	 0.294034
H	-3.1928078275	-1.5202751394	-0.8945379899	 0.103179
50.7033	162.1821	193.1856	207.8373	264.0901	321.9758	372.7077	431.4352	473.267	569.0697	620.1906	644.5187	685.1572	701.2576	765.307	784.1227	875.0651	899.6799	950.3181	1016.1142	1035.4086	1074.418	1092.2352	1106.8008	1112.4521	1131.8936	1198.3957	1202.8929	1227.0588	1262.7035	1283.4478	1328.7918	1401.2994	1412.1849	1432.1459	1483.7514	1485.4851	1510.4274	1828.1519	2916.0045	3035.5011	3061.3064	3105.3027	3112.0711	3115.4472	3161.6052	3399.1825	3690.6078
CC12CC(N1)C2(O)C=O	C[C@@]12C[C@@H](N1)[C@]2(O)C=O	
InChI=1S/C6H9NO2/c1-5-2-4(7-5)6(5,9)3-8/h3-4,7,9H,2H2,1H3	InChI=1S/C6H9NO2/c1-5-2-4(7-5)6(5,9)3-8/h3-4,7,9H,2H2,1H3/t4-,5+,6-/m1/s1
