18
gdb 62271	3.26153	1.52691	1.31156	1.9493	80.66	-0.2442	0.0487	0.2929	1017.6675	0.147283	-364.717099	-364.709234	-364.70829	-364.749007	31.354	
C	-0.0348467502	 1.5655447365	 0.0449672971	-0.470711
C	 0.0629144709	 0.0361077797	 0.011638547	 0.114627
C	-1.2604953365	-0.5610316995	 0.1630164273	 0.302457
C	-2.3665074955	-1.013074833	 0.2959989596	-0.450831
C	 0.8468323558	-0.6483001729	-1.1125075102	-0.077187
C	 2.2942024141	-0.7006481661	-0.7397133482	-0.051564
C	 2.4822715275	-0.0964270106	 0.6396250302	-0.263651
C	 1.0997915285	-0.7103956445	 0.9178943624	-0.035088
N	 1.3426951779	-1.7489807767	-0.2247280148	-0.151741
H	 0.9355061722	 2.033743518	-0.1332579257	 0.120377
H	-0.7266786253	 1.91376495	-0.7275344761	 0.131372
H	-0.4180391096	 1.9071171775	 1.0115210909	 0.128539
H	-3.3374225392	-1.4274965258	 0.4105148522	 0.192776
H	 0.4959887481	-0.8529577072	-2.1177421567	 0.099638
H	 3.0560669666	-0.9500064072	-1.470002718	 0.099957
H	 3.2558906898	-0.6397071229	 1.1886640262	 0.116721
H	 2.6335713885	 0.9795908376	 0.763343851	 0.100691
H	 0.8044459664	-1.0557661728	 1.9059223459	 0.093618
139.5664	147.4959	187.0601	243.2335	296.1074	438.162	473.7646	499.8257	517.5501	623.8369	633.1168	638.1292	755.267	781.5817	808.8569	817.8066	875.333	925.7143	936.2693	960.7877	999.465	1028.8488	1048.3756	1059.4391	1112.4896	1134.796	1164.3181	1172.9863	1200.2262	1213.9048	1247.4938	1267.1511	1349.0997	1364.4675	1408.6069	1485.8689	1488.7051	1509.6195	2233.9479	3044.8287	3054.6999	3105.7445	3112.8864	3130.5189	3148.9546	3174.3617	3186.5817	3502.0592
CC1(C#C)C2C3CC1N23	C[C@@]1(C#C)[C@H]2[C@H]3C[C@@H]1N23	
InChI=1S/C8H9N/c1-3-8(2)6-4-5-7(8)9(5)6/h1,5-7H,4H2,2H3	InChI=1S/C8H9N/c1-3-8(2)6-4-5-7(8)9(5)6/h1,5-7H,4H2,2H3/t5-,6+,7-,8+,9?/m1/s1
