19
gdb 114970	2.98488	1.41947	1.13592	2.5089	77.	-0.2239	0.0264	0.2503	1124.9027	0.160933	-419.169176	-419.161067	-419.160123	-419.202008	30.756	
C	 0.16546766	 1.3209972892	 0.2117224462	-0.237042
O	-0.1546298443	-0.006554877	-0.1366980241	-0.243086
C	 0.5616637394	-0.5072686513	-1.2474624026	 0.085213
C	 2.0212414627	-0.9773640295	-0.8618533226	-0.19008
N	 1.8909780478	-2.3580863292	-0.3162176502	-0.309041
C	 0.8060818258	-2.767595871	-0.8302540225	 0.378596
N	-0.2039101328	-3.6966770286	-0.5898039565	-0.369195
C	-1.2148704439	-2.6500254648	-0.9967992124	-0.201601
C	-0.0413554084	-1.8586130705	-1.6668777477	-0.1239
H	 1.2099761186	 1.4328848503	 0.5355668613	 0.112639
H	-0.0110877852	 2.0110387272	-0.6284049505	 0.105446
H	-0.4865578224	 1.6009117658	 1.0425704119	 0.129133
H	 0.5686303644	 0.238272127	-2.0568549872	 0.05968
H	 2.6855387818	-0.946095188	-1.7369075027	 0.100055
H	 2.4607146749	-0.3292010386	-0.0979859096	 0.109815
H	-0.2572624833	-4.1506857135	 0.3152024641	 0.242017
H	-1.9926609728	-3.032936264	-1.6600733711	 0.114126
H	-1.6479635061	-2.1170075671	-0.1477300725	 0.136153
H	 0.0155162437	-2.0194557766	-2.7448149314	 0.101071
89.0214	120.479	175.3105	213.7089	282.2981	321.8569	393.0212	426.8527	514.5249	659.9747	714.302	732.2774	800.0572	833.6741	846.9127	928.3298	939.5433	944.1589	992.1939	1000.0934	1069.8611	1093.2161	1136.1079	1147.4188	1163.9355	1182.3778	1203.6253	1217.4827	1235.8661	1264.5807	1298.2818	1322.2996	1332.0964	1357.5548	1392.753	1477.0774	1479.8025	1493.3413	1502.5273	1510.5623	1767.2354	2977.2518	2988.8899	3014.3327	3031.4889	3068.5629	3086.5191	3099.1772	3115.7909	3134.623	3548.3133
COC1CN=C2NCC12	CO[C@H]1C[N][C]2NC[C@@H]12	
InChI=1S/C6H10N2O/c1-9-5-3-8-6-4(5)2-7-6/h4-5H,2-3H2,1H3,(H,7,8)	InChI=1S/C6H10N2O/c1-9-5-3-8-6-4(5)2-7-6/h4-5H,2-3H2,1H3,(H,7,8)/t4-,5-/m0/s1
