21
gdb 118163	3.52862	0.75511	0.65977	2.1345	74.85	-0.2449	0.0613	0.3062	1693.114	0.180936	-461.326314	-461.316022	-461.315078	-461.362924	36.127	
O	-0.0254049441	 1.4224094001	-0.0880102476	-0.423196
C	 0.052149742	 0.0060123017	-0.018742747	-0.078012
C	-1.3717495056	-0.5355773714	-0.031459348	-0.196246
C	-1.4372232716	-2.0614057893	 0.0716306809	 0.10242
O	-0.814860858	-2.5416681158	 1.2643290777	-0.435036
C	-2.8642778256	-2.5902958532	-0.0377687799	-0.046344
C	-3.5057695767	-2.5924690993	-1.4442685822	-0.086141
O	-3.5181045778	-4.031836257	-1.4880402808	-0.272926
C	-2.9968243429	-4.1239566416	-0.1439414916	-0.088912
H	 0.8684171747	 1.7737337228	-0.0416642527	 0.286306
H	 0.6107659934	-0.4063598709	-0.8752706361	 0.085723
H	 0.5628267282	-0.3291931771	 0.8947992319	 0.098569
H	-1.9279754466	-0.0870656152	 0.8037581368	 0.095518
H	-1.8697133578	-0.2029573736	-0.9501427774	 0.111681
H	-0.8415640511	-2.5054652694	-0.73771792	 0.092247
H	-1.2894083407	-2.162925329	 2.0134780447	 0.277988
H	-3.4869224701	-2.1340034999	 0.739494863	 0.067782
H	-4.5163695026	-2.1690568233	-1.5039198754	 0.100065
H	-2.8957537801	-2.1599370998	-2.2488715784	 0.099343
H	-2.0524416812	-4.6786853184	-0.0983841405	 0.112826
H	-3.7169982259	-4.5879787403	 0.5414082027	 0.096345
49.8898	64.1886	96.149	109.982	128.3794	222.6409	267.8288	298.6746	313.5216	355.0309	396.9082	468.6264	557.8579	797.973	824.1816	863.2252	885.4955	932.0178	971.3255	1006.6052	1030.5344	1047.7835	1071.4538	1076.8969	1095.7869	1121.7926	1145.4593	1158.0331	1163.5237	1210.7471	1241.6861	1255.8775	1275.9398	1302.876	1307.0987	1323.7718	1361.1136	1378.5648	1406.1627	1420.1276	1460.9726	1485.5345	1512.038	1531.2618	1537.9632	2965.9556	3001.0565	3012.3895	3016.4061	3019.4668	3024.3044	3037.9342	3051.4956	3065.8082	3070.5325	3791.4633	3831.2395
OCCC(O)C1COC1	OCC[C@@H](O)C1COC1	
InChI=1S/C6H12O3/c7-2-1-6(8)5-3-9-4-5/h5-8H,1-4H2	InChI=1S/C6H12O3/c7-2-1-6(8)5-3-9-4-5/h5-8H,1-4H2/t6-/m1/s1
