25
gdb 120738	3.0267	0.72996	0.67973	1.6391	90.27	-0.2556	0.0878	0.3434	1860.5831	0.226555	-389.48979	-389.478606	-389.477662	-389.526826	40.509	
C	-0.861548884	 1.5600525895	 0.4417152008	-0.383107
C	-0.4174587872	 0.0976616931	 0.363663961	-0.15648
C	-0.0613509323	-0.4946465506	 1.7354452106	-0.213448
C	 0.3604040347	-1.9407367009	 1.6345101684	 0.056114
O	 1.6575476518	-2.2116874255	 1.0807578545	-0.276954
C	 1.4083040466	-2.5927626924	 2.4386648255	 0.072218
C	 2.2371808883	-1.9316527767	 3.5209978477	-0.00118
C	 1.6047539664	-2.1793483972	 4.8979788883	-0.392347
C	 3.6826011416	-2.4468645032	 3.4570469195	-0.388112
H	-0.0732712324	 2.1910731297	 0.8672649311	 0.114965
H	-1.1048516267	 1.9557595226	-0.5491886998	 0.113299
H	-1.7503916021	 1.672572182	 1.0728679115	 0.111946
H	-1.2120783855	-0.5051984995	-0.0953759954	 0.094212
H	 0.4552854411	 0.0053913315	-0.2932317478	 0.115637
H	 0.735038175	 0.1013653273	 2.1923200438	 0.102982
H	-0.9321514225	-0.4296426031	 2.4028055568	 0.095747
H	-0.4183236075	-2.5959536824	 1.2333569205	 0.081461
H	 1.3129794405	-3.675525714	 2.5713275553	 0.078067
H	 2.2551281646	-0.8529755344	 3.3313886613	 0.078018
H	 1.5508837222	-3.2519736422	 5.1190639097	 0.114857
H	 2.1978630361	-1.7096413962	 5.6888983802	 0.115298
H	 0.5884423553	-1.7760630628	 4.9525711549	 0.115567
H	 3.7237581216	-3.5259435417	 3.6482018441	 0.110881
H	 4.114869484	-2.2627704905	 2.4695320031	 0.131243
H	 4.3088153503	-1.9516850624	 4.2060641543	 0.109114
49.792	67.5504	87.2838	118.8543	175.5066	221.6912	238.4682	245.7562	260.0726	312.4861	334.6573	388.468	460.4334	505.7209	572.3006	744.0309	793.3197	805.1093	887.0833	890.9515	905.0718	931.696	956.3967	974.1089	1009.2544	1050.3768	1075.5911	1105.0553	1143.7411	1147.8171	1184.4224	1189.2035	1209.9306	1263.5705	1295.5363	1308.1129	1320.2426	1329.2509	1343.9346	1386.756	1398.387	1411.3459	1413.1512	1425.0233	1472.2691	1489.4312	1490.3329	1492.9896	1494.2227	1499.9718	1504.1652	1510.2411	1516.1853	3015.3715	3022.6459	3026.3028	3028.8676	3029.4808	3041.9163	3053.7513	3059.1982	3065.5159	3085.2618	3091.2336	3097.4586	3099.4279	3102.5446	3104.3058	3115.4208
CCCC1OC1C(C)C	CCC[C@H]1O[C@H]1C(C)C	
InChI=1S/C8H16O/c1-4-5-7-8(9-7)6(2)3/h6-8H,4-5H2,1-3H3	InChI=1S/C8H16O/c1-4-5-7-8(9-7)6(2)3/h6-8H,4-5H2,1-3H3/t7-,8+/m1/s1
