20
gdb 63005	2.44129	1.78935	1.57662	1.044	77.18	-0.2233	0.0711	0.2944	980.4801	0.170842	-403.112345	-403.104336	-403.103391	-403.144138	32.496	
C	-0.0152728001	 1.5632447331	-0.0736506746	-0.416526
C	-0.007758753	 0.0334481294	-0.0312304835	 0.239311
C	-1.4342769032	-0.5222146927	 0.092600812	-0.408569
C	 0.6565977874	-0.5995777061	-1.2591111333	 0.020126
O	 2.0332181464	-0.2532703736	-1.4447742147	-0.263913
C	 1.7231871611	-1.5005694712	-0.8021305996	 0.02363
C	 1.7642339998	-1.4418380525	 0.7059785265	-0.058574
C	 2.166064545	-0.1417065665	 1.3052281092	-0.256823
N	 0.743101246	-0.476558648	 1.1606093126	-0.128774
H	 0.9850746168	 1.9596814289	-0.260961854	 0.130037
H	-0.6745140499	 1.922308443	-0.8702610835	 0.114047
H	-0.3791791915	 1.9642780849	 0.8768286388	 0.124295
H	-2.0491917337	-0.2254795114	-0.7636277113	 0.108195
H	-1.4216492824	-1.6152594428	 0.1470589036	 0.116449
H	-1.9018812108	-0.1467028976	 1.0061095803	 0.126779
H	 0.0849467867	-0.7488895983	-2.173900349	 0.092595
H	 2.0348945312	-2.395065958	-1.3334086803	 0.099391
H	 1.8511994555	-2.3799449108	 1.2473225116	 0.089587
H	 2.505001198	-0.1038946227	 2.3373418399	 0.110724
H	 2.6214523104	 0.5799497327	 0.6369975493	 0.138012
158.55	208.9031	213.2724	243.5438	322.4273	338.5255	358.0478	404.4641	539.6838	544.5632	592.549	710.6739	719.235	817.0336	821.9092	875.7267	888.4722	893.0718	944.8111	954.9167	989.8699	1015.0042	1033.7167	1054.981	1088.3451	1104.7021	1121.3942	1146.0448	1194.9532	1216.4782	1245.8669	1255.228	1274.9673	1331.1864	1365.3773	1394.4062	1412.1809	1424.5241	1479.8111	1483.7105	1493.3212	1499.1235	1507.7617	3035.2008	3044.1257	3104.3397	3110.6638	3114.6851	3121.4519	3123.9074	3130.288	3143.1077	3163.5975	3216.3728
CC1(C)C2OC2C2CN12	CC1(C)[C@H]2O[C@H]2[C@H]2CN12	
InChI=1S/C7H11NO/c1-7(2)6-5(9-6)4-3-8(4)7/h4-6H,3H2,1-2H3	InChI=1S/C7H11NO/c1-7(2)6-5(9-6)4-3-8(4)7/h4-6H,3H2,1-2H3/t4-,5+,6+,8?/m1/s1
