19
gdb 62912	2.84666	1.50605	1.1794	3.0135	76.64	-0.2338	0.0005	0.2342	1086.4163	0.157502	-422.979896	-422.97137	-422.970426	-423.012707	33.117	
C	-0.0731015784	 1.621739245	-0.2056451927	-0.472283
C	 0.0435117885	 0.1068737462	-0.1087852121	 0.454844
O	-1.2548062642	-0.4549642594	-0.2440957269	-0.467873
C	 1.2215089171	-0.65895528	-0.8152151449	-0.12427
C	 2.1456985954	-0.1478295723	 0.3288242557	-0.250553
C	 0.8323613276	-0.5919436978	 1.0386803595	-0.117344
C	 0.8910056962	-1.8601648485	 0.1228766022	-0.050739
C	-0.3138638318	-2.7282091611	-0.1567008749	 0.123415
O	-0.5069625688	-3.2579881458	-1.2248930514	-0.283163
H	 0.8727137493	 2.147815854	-0.0704014749	 0.124015
H	-0.4672464145	 1.8992663707	-1.1905345131	 0.113917
H	-0.7823922598	 1.9823034973	 0.5449621314	 0.132368
H	-1.5359283263	-0.3809344124	-1.1632302086	 0.288716
H	 1.4410462832	-0.7046971931	-1.8824168778	 0.082309
H	 3.0237495347	-0.7632108079	 0.5338378811	 0.102031
H	 2.4019941252	 0.9105356393	 0.3477461944	 0.099625
H	 0.6049965055	-0.5513914351	 2.104935446	 0.077719
H	 1.7456987885	-2.516314515	 0.3287484142	 0.093932
H	-0.9691531774	-2.9326907541	 0.7179530827	 0.073334
97.1825	143.2122	189.1182	239.2158	244.4975	314.3222	380.5666	417.2377	439.9326	472.9579	586.3526	645.6486	694.0546	764.1372	794.0042	841.9602	894.4143	905.2884	951.0646	1003.6295	1017.7084	1029.5329	1063.5353	1072.5366	1087.9823	1114.4338	1135.0968	1183.3976	1188.1629	1199.764	1221.752	1232.6527	1270.7497	1340.4776	1364.4303	1413.0708	1418.7222	1487.6262	1491.531	1532.6998	1805.0927	2886.6889	3036.5233	3037.3804	3079.1661	3099.8974	3105.8647	3113.5109	3134.2358	3150.6658	3801.8793
CC1(O)C2CC1C2C=O	C[C@@]1(O)[C@H]2C[C@@H]1[C@H]2C=O	
InChI=1S/C7H10O2/c1-7(9)5-2-6(7)4(5)3-8/h3-6,9H,2H2,1H3	InChI=1S/C7H10O2/c1-7(9)5-2-6(7)4(5)3-8/h3-6,9H,2H2,1H3/t4-,5-,6+,7+
