18
gdb 85647	2.7665	1.19447	0.89193	5.8346	76.98	-0.2615	-0.0386	0.2229	1295.4742	0.147447	-402.003321	-401.9946	-401.993656	-402.037196	32.198	
C	-0.1329092162	 1.5363794609	-0.0204066827	-0.409442
C	 0.0869079522	 0.0264796592	 0.0277706301	 0.014644
C	 0.8371444564	-0.5336042892	-1.2014537356	-0.230617
C	 1.2817148118	-1.9427720443	-0.7575597851	-0.268589
C	 2.4101389436	-2.5042855234	-1.4816981069	 0.285934
N	 3.3123775946	-2.9243347598	-2.0689720662	-0.318626
C	 1.5351867938	-1.7960760853	 0.7785607002	 0.401916
O	 2.091140261	-2.6042782086	 1.464401334	-0.285727
C	 0.9339200827	-0.4628847537	 1.2148044395	-0.328629
H	 0.8238060499	 2.0692236979	-0.0647594328	 0.122076
H	-0.71657755	 1.8219695612	-0.9015325515	 0.122803
H	-0.671445912	 1.8882557799	 0.8650717385	 0.124046
H	-0.8921328873	-0.4699907006	 0.0786733178	 0.08722
H	 0.2234892415	-0.5513802871	-2.1046329153	 0.123816
H	 1.7208430018	 0.0795094108	-1.4126545802	 0.126091
H	 0.4359559232	-2.6399675361	-0.8436394498	 0.153244
H	 1.7747549081	 0.2222618136	 1.3955972833	 0.141688
H	 0.398274025	-0.5669843554	 2.1612614526	 0.13815
57.795	108.6298	137.0409	231.5142	246.3511	280.1984	401.7914	421.3465	450.489	497.3952	518.6573	577.0152	627.647	728.7544	849.0298	891.4862	910.8804	951.8666	964.0045	1021.3577	1062.3718	1091.5606	1131.5385	1154.45	1163.7661	1215.1551	1260.0193	1275.1117	1285.2542	1341.3279	1349.7536	1382.8353	1414.2737	1445.6747	1494.1181	1497.0848	1500.5125	1865.4321	2362.0917	3006.651	3018.2477	3023.8343	3030.434	3051.5954	3098.4764	3105.2478	3108.5458	3112.9812
CC1CC(C#N)C(=O)C1	C[C@H]1C[C@@H](C#N)C(=O)C1	
InChI=1S/C7H9NO/c1-5-2-6(4-8)7(9)3-5/h5-6H,2-3H2,1H3	InChI=1S/C7H9NO/c1-5-2-6(4-8)7(9)3-5/h5-6H,2-3H2,1H3/t5-,6-/m0/s1
