19
gdb 23354	3.98943	0.97867	0.9173	1.9561	79.96	-0.2267	0.0162	0.2429	1317.8284	0.158852	-419.119618	-419.110775	-419.109831	-419.153639	33.326	
C	 1.2834629478	 0.3844097999	 0.6862800449	-0.492935
C	-0.0449018145	-0.2079162281	 0.299147519	 0.347585
N	-1.1495272857	 0.0748171238	 0.8854547416	-0.175867
O	-0.9665042771	 1.0015029735	 1.9265131208	-0.400524
C	-0.1816325679	-1.1843950402	-0.8341819924	-0.052342
C	 0.3955986479	-0.8560420069	-2.2698388977	-0.257206
C	 1.1011354159	-2.2162242694	-2.2518380162	-0.041182
N	 2.059578022	-2.1594493667	-1.1245119832	-0.323815
C	 0.6358372774	-2.4924480638	-0.8654149286	-0.070832
H	 2.1016700586	-0.1474012455	 0.2032388111	 0.156995
H	 1.3206981808	 1.4426548557	 0.401065741	 0.134009
H	 1.4024628006	 0.3549172926	 1.773047042	 0.138645
H	-1.8614674252	 1.0948009588	 2.2688858255	 0.302847
H	-1.2415463377	-1.4304384508	-0.9248269862	 0.092143
H	-0.3956197774	-0.7640502219	-3.0157777595	 0.109515
H	 1.0698675521	 0.0001090996	-2.342516903	 0.112759
H	 1.2617169279	-2.8947299455	-3.0799724859	 0.095408
H	 2.5713544797	-3.0411947807	-1.1145373264	 0.229763
H	 0.3718221949	-3.4272218243	-0.385348617	 0.095036
47.0424	104.0589	161.9052	172.4258	281.3113	313.36	364.3779	391.3523	423.2959	482.5905	568.3137	665.2979	706.07	780.4131	806.7496	835.5377	896.7914	922.8485	956.4328	968.1144	983.443	1022.8507	1037.8879	1062.8863	1064.5905	1102.2144	1122.542	1157.9469	1208.1136	1253.8368	1283.3459	1290.2736	1319.4118	1336.9213	1380.5104	1402.8073	1406.7531	1476.2166	1484.7229	1496.9203	1710.1751	3038.7725	3072.5485	3091.2704	3097.4857	3132.1146	3166.9414	3181.4258	3198.6646	3474.0124	3821.8565
CC(=NO)C1CC2NC12	CC(=NO)[C@H]1C[C@H]2N[C@@H]12	
InChI=1S/C6H10N2O/c1-3(8-9)4-2-5-6(4)7-5/h4-7,9H,2H2,1H3	InChI=1S/C6H10N2O/c1-3(8-9)4-2-5-6(4)7-5/h4-7,9H,2H2,1H3/t4-,5-,6+/m1/s1
