16
gdb 38923	3.29208	1.79598	1.2925	0.5827	69.7	-0.2283	0.005	0.2334	937.2676	0.126377	-437.845457	-437.838846	-437.837902	-437.876346	26.473	
C	 0.0338054351	 1.448673665	 0.0697161629	-0.367225
C	 1.3316822293	 0.703598621	 0.0132991719	 0.037021
O	 1.6547884716	 0.1074386382	 1.2799754291	-0.300446
C	 0.458418053	-0.7143200156	 1.2118423862	 0.032626
C	 0.7774841597	-2.1728506412	 0.8956937707	-0.10128
O	-0.2666759581	-2.7607452989	 0.0940615228	-0.228898
C	-0.7364398318	-2.0123219079	-0.9353844641	 0.10296
N	-0.6224227024	-0.7603649797	-1.1232333278	-0.337732
C	 0.0113548496	-0.0521580651	-0.081918313	 0.322475
H	-0.2858233658	 1.9260408987	 0.9925345652	 0.116162
H	-0.2254322455	 1.9706533414	-0.8464333946	 0.131101
H	 2.1376627009	 0.8761811026	-0.6894086572	 0.115557
H	-0.1717340829	-0.6017729239	 2.1000117772	 0.092768
H	 1.7220823032	-2.21567577	 0.3423328499	 0.128736
H	 0.8558355032	-2.8009652945	 1.7843648568	 0.126848
H	-1.2787838892	-2.6370498801	-1.640748396	 0.129325
152.8784	180.9207	302.5696	386.5951	440.3531	466.2193	524.983	543.787	648.6269	783.3979	809.5577	856.2276	888.9821	933.1364	941.7845	957.1682	970.7252	1001.7025	1025.7891	1049.243	1082.4203	1092.9253	1119.8185	1145.8518	1214.6478	1249.0408	1282.253	1288.4016	1355.9345	1368.0735	1394.8476	1419.8867	1475.6728	1501.799	1691.2252	3049.6943	3058.2442	3112.0024	3125.9551	3174.5752	3192.9162	3212.1259
C1C2OC3COC=NC123	C1[C@H]2O[C@@H]3COC=N[C@]123	
InChI=1S/C6H7NO2/c1-4-6(1)5(9-4)2-8-3-7-6/h3-5H,1-2H2	InChI=1S/C6H7NO2/c1-4-6(1)5(9-4)2-8-3-7-6/h3-5H,1-2H2/t4-,5-,6-/m1/s1
