19
gdb 112895	1.9406	1.72636	1.10382	2.5142	71.78	-0.246	-0.0307	0.2153	1162.38	0.157549	-460.182558	-460.173262	-460.172318	-460.21745	33.483	
C	 0.5930671323	 1.2924776825	 0.1000533934	-0.242634
O	 0.5417864016	-0.1242754305	 0.0279032475	-0.243601
C	 0.5609720075	-0.6163183514	-1.2855552729	 0.089836
O	 1.780598776	-0.432371445	-1.9471215136	-0.263814
C	 2.677601815	-1.5397583879	-1.6684489861	 0.116573
C	 3.5791393262	-1.2374927599	-0.4748907103	-0.397509
C	 1.7590655202	-2.7555992896	-1.469391122	-0.365524
C	 0.388502723	-2.1468059645	-1.1803026812	 0.387227
O	-0.6354738518	-2.7233056643	-0.9437617362	-0.293722
H	 1.5200193587	 1.6829631541	-0.3354720294	 0.12576
H	-0.2627095514	 1.7443073741	-0.4224876592	 0.11315
H	 0.5467067672	 1.5581830676	 1.1579099238	 0.131553
H	-0.2226401625	-0.1396276743	-1.8907700852	 0.092522
H	 3.2861125701	-1.6427592767	-2.5709050524	 0.088689
H	 2.9907831521	-1.1450047557	 0.4421030019	 0.136413
H	 4.3147216057	-2.0382486849	-0.3427177205	 0.114818
H	 4.117347347	-0.2995574543	-0.6370781192	 0.124706
H	 1.6820604425	-3.3700824533	-2.3719877193	 0.142652
H	 2.0587336606	-3.4123201859	-0.6488807789	 0.142905
38.4062	87.3955	132.6623	177.2787	198.7456	254.5283	317.1739	342.1199	394.7968	453.4756	554.3306	565.8631	641.7148	733.5742	808.7935	829.8644	893.0933	924.4652	981.5272	1033.0523	1059.4536	1085.2853	1115.439	1120.4268	1177.3781	1181.9389	1204.8698	1218.2921	1263.3719	1314.9838	1360.6031	1378.5115	1385.7191	1408.0582	1448.2906	1473.2543	1484.1054	1487.4886	1502.6726	1511.3108	1871.8888	2998.1386	3018.7168	3039.0496	3060.137	3068.5957	3071.6027	3111.029	3113.035	3129.2455	3130.435
COC1OC(C)CC1=O	CO[C@H]1O[C@@H](C)CC1=O	
InChI=1S/C6H10O3/c1-4-3-5(7)6(8-2)9-4/h4,6H,3H2,1-2H3	InChI=1S/C6H10O3/c1-4-3-5(7)6(8-2)9-4/h4,6H,3H2,1-2H3/t4-,6-/m0/s1
