19
gdb 46584	2.5998	1.8013	1.39053	3.1541	79.12	-0.2278	-0.0086	0.2193	992.2633	0.161235	-385.887163	-385.879837	-385.878893	-385.918699	29.797	
O	-0.0588988607	-0.0312365051	-0.1372420734	-0.328021
C	-0.039869535	 1.1724363816	-0.0468148886	 0.330157
C	-1.3009249641	 2.0853871473	-0.0559358619	-0.336747
C	-0.8772458238	 3.3658752057	-0.8279865771	-0.301082
C	 0.6338247857	 3.4257790488	-0.6362565765	 0.267395
C	 1.161282235	 3.3193203235	 0.7469634548	-0.364114
C	 1.1435583251	 2.0641491194	-0.1054685859	 0.159397
C	 2.307851461	 2.0749637944	-1.1101208825	-0.29556
C	 1.7713042923	 3.4386694803	-1.677699249	-0.289577
H	-2.1294017658	 1.5471911278	-0.5195477718	 0.129433
H	-1.6033012079	 2.3055471752	 0.9746986985	 0.124922
H	-1.1052083339	 3.2463008983	-1.8927382284	 0.11104
H	-1.4021600875	 4.2630890086	-0.4837276532	 0.105331
H	 2.1383756208	 3.7277781031	 0.9885988353	 0.120945
H	 0.4473780985	 3.3735548707	 1.5607376462	 0.124253
H	 3.3105616253	 2.0867444348	-0.6737566359	 0.105044
H	 2.2507778467	 1.2574636871	-1.8305081855	 0.124556
H	 1.3984631511	 3.3406158628	-2.6999845195	 0.110231
H	 2.4518757171	 4.2948450056	-1.6367802254	 0.102397
107.6818	182.2445	232.8701	312.6161	387.2201	438.8566	507.3697	547.8918	598.4452	672.2194	707.6546	726.5049	773.9587	795.6856	846.8131	915.3214	923.369	951.4217	955.3225	977.4847	988.7108	1033.0373	1072.7041	1087.8802	1115.8087	1186.102	1207.9405	1224.684	1238.2844	1245.7621	1264.2574	1285.4126	1337.8585	1341.6257	1372.5158	1461.812	1479.1566	1482.4556	1494.9276	1507.6517	1817.029	3039.2384	3045.2099	3048.558	3062.5423	3078.3089	3103.1957	3121.5946	3125.4547	3127.6295	3215.7923
O=C1CCC23CC12CC3	O=C1CC[C@@]23C[C@@]12CC3	
InChI=1S/C8H10O/c9-6-1-2-7-3-4-8(6,7)5-7/h1-5H2	InChI=1S/C8H10O/c9-6-1-2-7-3-4-8(6,7)5-7/h1-5H2/t7-,8+/m1/s1
