20
gdb 93068	2.17543	1.56389	0.96035	2.9814	82.94	-0.2164	0.0002	0.2166	1239.0435	0.173094	-403.203617	-403.195063	-403.194119	-403.236829	32.939	
C	-0.0093223807	 1.5622677667	 0.0977138744	-0.395077
C	-0.0092829882	 0.0302235188	 0.0141984033	 0.001764
C	 0.4407444234	-0.4250054797	-1.3801334902	-0.257588
C	 0.5599958984	-1.9040440971	-1.6080746518	-0.081167
C	 0.4898637038	-2.9242941003	-0.7478771584	 0.005803
N	 0.3130564434	-2.9361132561	 0.6391369615	-0.323651
C	 0.4605570164	-1.9503933401	 1.5951510815	 0.374754
O	 0.2565138183	-2.2115386372	 2.7656324038	-0.358682
C	 0.8824185071	-0.5729627499	 1.123108685	-0.310486
H	 1.0055620074	 1.9604112232	-0.0204838594	 0.11567
H	-0.6329030329	 2.0012107466	-0.6880376712	 0.113543
H	-0.3923693753	 1.9055926672	 1.0635063005	 0.119418
H	-1.038498515	-0.3161596664	 0.1763162305	 0.089138
H	-0.2531283467	-0.0164997693	-2.128171814	 0.106448
H	 1.4089128494	 0.0510513304	-1.6060136031	 0.106213
H	 0.7365354449	-2.1940679597	-2.6403303718	 0.090279
H	 0.5793947861	-3.9325563949	-1.1406100689	 0.106828
H	 0.0790941942	-3.8262288913	 1.0551412847	 0.251149
H	 1.9222468679	-0.6196439901	 0.7720582546	 0.119835
H	 0.868519768	 0.051675499	 2.0184183389	 0.12581
86.5299	122.5483	156.9709	236.932	294.7893	346.8577	358.4392	409.8967	449.2443	499.9451	566.4799	610.9357	693.2905	740.0993	805.6222	838.3385	877.1141	912.431	917.3312	950.9238	969.832	1000.3493	1067.5351	1106.7357	1117.6401	1169.0621	1177.2313	1262.1632	1290.329	1306.4053	1335.164	1366.1649	1378.2402	1399.3368	1413.8183	1455.7518	1466.2196	1479.3129	1491.9895	1499.3225	1499.8543	1745.0097	1783.9972	2975.5281	3011.0409	3021.6019	3026.7464	3032.942	3094.0188	3105.0189	3113.5985	3155.4502	3179.8836	3607.6825
CC1CC=CNC(=O)C1	C[C@H]1CC=CNC(=O)C1	
InChI=1S/C7H11NO/c1-6-3-2-4-8-7(9)5-6/h2,4,6H,3,5H2,1H3,(H,8,9)	InChI=1S/C7H11NO/c1-6-3-2-4-8-7(9)5-6/h2,4,6H,3,5H2,1H3,(H,8,9)/t6-/m0/s1
