14
gdb 127804	3.498	1.15566	0.89187	1.8491	66.11	-0.2645	-0.0327	0.2318	1211.3457	0.100534	-470.0124	-470.004149	-470.003204	-470.046561	27.916	
C	 0.1142396847	 1.3583304179	 0.1826478319	-0.33561
N	 0.0954899509	-0.0881630822	 0.0905640103	-0.009416
N	 0.2465729714	-0.7198153315	-1.0971301951	-0.139365
N	 0.1775434944	-2.0011709408	-0.8774816933	-0.178698
C	-0.0322410393	-2.2249085922	 0.4483618629	-0.1642
C	-0.0832367056	-1.0009464153	 1.0716528387	 0.374569
O	-0.2926333006	-0.5896265207	 2.3504438044	-0.220192
C	 0.4124677855	-1.2239454795	 3.349134924	 0.161353
O	 0.2188698919	-0.9778526687	 4.4930249724	-0.235988
H	 0.2790851426	 1.7367416783	-0.8255706601	 0.176024
H	-0.8378342745	 1.7307416924	 0.568352595	 0.161358
H	 0.921712206	 1.691168	 0.839590629	 0.154477
H	-0.1470337591	-3.2143533892	 0.8586370655	 0.137937
H	 1.1404312318	-1.9455909184	 2.9424131444	 0.11775
62.5831	69.4488	130.4193	159.4674	213.4066	269.0269	379.9427	481.2854	495.8692	693.116	715.4784	716.407	827.2737	852.9529	982.2146	1029.227	1041.9797	1088.9865	1133.9838	1154.3605	1221.1626	1272.5561	1310.5322	1351.1238	1404.1461	1441.4624	1482.5491	1502.6382	1519.3599	1592.1476	1890.6343	3010.8112	3058.5801	3127.2933	3171.7919	3275.0395
CN1N=NC=C1OC=O	Cn1nncc1OC=O	
InChI=1S/C4H5N3O2/c1-7-4(9-3-8)2-5-6-7/h2-3H,1H3	InChI=1S/C4H5N3O2/c1-7-4(9-3-8)2-5-6-7/h2-3H,1H3
