21
gdb 38267	2.95865	1.62551	1.31892	2.1932	81.62	-0.2285	0.0794	0.3079	1039.3639	0.185501	-387.037418	-387.030364	-387.02942	-387.068411	30.222	
C	-0.0142906351	 1.6586958696	 0.2052021025	-0.276141
C	 1.436730632	 1.1697348153	 0.0510474487	-0.010008
O	 1.0977396919	 0.0134013986	 0.9352511939	-0.368657
C	-0.0123154007	 0.1201850601	-0.0469597219	 0.455293
C	-1.1566461713	-0.8220429804	-0.2430208885	-0.349356
C	-1.7534347528	-0.4693383939	-1.6333411611	-0.195467
C	-0.7029202081	-0.3876513196	-2.7666631697	-0.179643
C	 0.4203711892	 0.6498331734	-2.5083963514	-0.269258
C	 1.034080751	 0.2813096315	-1.1636424981	 0.024161
H	-0.2916709479	 1.9493463186	 1.2192375804	 0.10312
H	-0.4317934829	 2.3258591113	-0.5510743979	 0.094444
H	 2.3713824449	 1.6879329406	 0.267776498	 0.088343
H	-0.777971707	-1.8515799515	-0.2437123739	 0.111278
H	-1.9177949956	-0.7456142746	 0.5405967214	 0.103301
H	-2.5151357643	-1.2099728759	-1.8977379381	 0.099766
H	-2.2742422029	 0.4941765218	-1.5586926857	 0.102633
H	-0.2439019048	-1.3772791805	-2.897196295	 0.099479
H	-1.2123286129	-0.1582612125	-3.7090733297	 0.095327
H	 1.1570322711	 0.6192977752	-3.3182812295	 0.09548
H	-0.0037262134	 1.6595427491	-2.5069126938	 0.099236
H	 1.6775183096	-0.6008720563	-1.2372795006	 0.076671
156.0089	240.4611	333.6152	350.3863	377.0894	420.3798	482.6594	562.4213	605.3643	646.3347	714.338	791.7993	814.3456	822.5219	877.4932	904.3385	908.9262	937.7351	949.9718	965.0952	988.6227	1028.8404	1050.6996	1080.1807	1103.0548	1112.3074	1158.0243	1174.7067	1196.0515	1206.0937	1215.049	1243.1193	1272.4499	1286.4684	1302.6719	1346.5212	1353.9746	1374.3847	1377.3572	1409.4838	1480.4513	1485.1645	1485.8944	1498.8594	1513.2935	3015.8781	3026.0235	3032.1741	3040.3786	3061.6091	3067.7718	3073.079	3073.756	3081.4455	3087.9694	3113.3409	3147.0311
C1C2OC11CCCCC21	C1[C@H]2O[C@]31CCCC[C@@H]23	
InChI=1S/C8H12O/c1-2-4-8-5-7(9-8)6(8)3-1/h6-7H,1-5H2	InChI=1S/C8H12O/c1-2-4-8-5-7(9-8)6(8)3-1/h6-7H,1-5H2/t6-,7+,8-/m0/s1
