21
gdb 121645	5.06923	0.65491	0.64515	3.6573	82.18	-0.2496	0.0207	0.2703	1839.9364	0.18283	-420.422118	-420.411961	-420.411017	-420.45923	35.778	
C	 0.1516718402	 1.4742482077	-0.0486405109	-0.377898
C	 0.2552796164	-0.0487529884	 0.0627011418	-0.168734
C	 0.2613058464	-0.5232872935	 1.5210324732	-0.15022
N	 0.3456940608	-1.9688812827	 1.6551033162	-0.335417
C	 1.4913357132	-2.6150785329	 2.0010533641	 0.440178
O	 2.5319139327	-2.0400725764	 2.2906457583	-0.404542
C	 1.4008781284	-4.1150016877	 2.0233697229	-0.123454
C	 2.5590072585	-4.8567671534	 1.4420867584	-0.221431
N	 2.3626902496	-4.8114474688	 2.8881327724	-0.30565
H	 0.9954074011	 1.964724676	 0.4484694179	 0.1248
H	 0.1486410105	 1.79518248	-1.0942575222	 0.118252
H	-0.768375715	 1.8460254911	 0.4161791834	 0.115489
H	-0.5824925751	-0.5188580953	-0.4692377503	 0.089856
H	 1.1715444192	-0.4029053849	-0.423321867	 0.114934
H	 1.1272787048	-0.1161755378	 2.0483476421	 0.14912
H	-0.6412014001	-0.1698750287	 2.0355715684	 0.103952
H	-0.4538024103	-2.5228001516	 1.3926744023	 0.245647
H	 0.4087045881	-4.5584040232	 1.984009175	 0.085166
H	 2.3870261953	-5.8234120624	 0.9773700759	 0.119572
H	 3.3535548119	-4.2557352989	 1.0098308634	 0.13222
H	 2.9768284934	-4.0886895081	 3.2668072651	 0.24816
23.0082	51.5682	78.6149	101.8887	215.7332	235.5575	257.8196	293.9396	334.8289	344.6321	475.4257	525.8815	677.3094	749.0369	765.5537	826.0563	862.5945	884.7965	901.7206	942.8668	983.6997	1021.3799	1034.7757	1075.7274	1120.0716	1125.0784	1135.0563	1175.7355	1190.423	1237.6678	1280.6612	1293.4408	1325.4328	1332.8707	1338.8926	1400.4805	1411.0919	1417.2425	1477.3831	1491.1822	1494.847	1499.6215	1509.068	1553.5425	1757.671	3020.4846	3026.8918	3033.2509	3064.6235	3098.9509	3109.3798	3113.5228	3118.1117	3133.8501	3207.6612	3459.3897	3635.3052
CCCNC(=O)C1CN1	CCCNC(=O)[C@H]1CN1	
InChI=1S/C6H12N2O/c1-2-3-7-6(9)5-4-8-5/h5,8H,2-4H2,1H3,(H,7,9)	InChI=1S/C6H12N2O/c1-2-3-7-6(9)5-4-8-5/h5,8H,2-4H2,1H3,(H,7,9)/t5-/m1/s1
