17
gdb 75192	3.52442	1.01412	0.86623	3.3725	72.41	-0.2633	0.0118	0.2751	1346.6164	0.135631	-455.170714	-455.161959	-455.161015	-455.20522	30.836	
C	-0.0938744008	 1.5093032576	 0.0204749688	-0.478517
C	 0.0195307491	 0.0291181924	-0.0727741253	 0.406216
N	-0.0993184436	-0.6886452526	-1.1112826614	-0.295803
C	 0.0824322185	-2.077009976	-0.6794644567	-0.210972
C	 0.5110097272	-1.9770615994	 0.7967267945	 0.169083
O	 1.8875881586	-2.2638494582	 0.8968059034	-0.184208
C	 2.3941383971	-2.3776378508	 2.1494764395	 0.129767
N	 3.6346870508	-2.5245019366	 2.3081890973	-0.431757
O	 0.2688286227	-0.609297644	 1.1240810239	-0.251897
H	 0.8431219136	 1.9367432369	 0.3908852345	 0.152688
H	-0.3222878619	 1.920915099	-0.9619059607	 0.156713
H	-0.8814133193	 1.7853702652	 0.7287118494	 0.146811
H	-0.8538459127	-2.632459646	-0.7974400872	 0.122319
H	 0.8554999798	-2.5782922662	-1.2670246271	 0.141758
H	-0.0549406688	-2.5933835481	 1.5020265737	 0.097744
H	 1.6291734118	-2.3386658729	 2.9356909396	 0.096628
H	 3.8503937678	-2.61828352	 3.2987065438	 0.233426
53.1102	100.1741	113.6087	147.798	197.7848	255.8649	332.1618	394.5521	480.9807	584.1485	644.5325	688.5076	807.5762	828.5846	894.5093	917.7737	973.5269	990.0381	1015.5914	1045.3613	1060.4166	1077.8248	1091.6297	1127.958	1214.184	1250.1684	1281.1008	1332.1684	1345.6282	1391.1932	1415.8398	1431.2609	1474.2172	1474.9163	1483.1337	1751.0282	1756.9305	3035.8615	3051.3439	3051.7146	3068.6596	3107.8545	3109.5371	3167.0908	3517.3805
CC1=NCC(OC=N)O1	C[C]1[N]C[C@@H](O[CH][NH])O1	
InChI=1S/C5H8N2O2/c1-4-7-2-5(9-4)8-3-6/h3,5-6H,2H2,1H3	InChI=1S/C5H8N2O2/c1-4-7-2-5(9-4)8-3-6/h3,5-6H,2H2,1H3/t5-/m0/s1
