21
gdb 74519	3.73208	1.0536	0.95471	2.3752	85.56	-0.2326	0.0217	0.2543	1321.8721	0.18294	-387.089868	-387.081096	-387.080151	-387.12407	32.87	
C	-0.0010152628	 1.5417533824	 0.1163996791	-0.488551
C	 0.0487207564	 0.0492706091	 0.0337742778	 0.318746
C	-0.0242260785	-0.7063607221	-1.0648998818	-0.247011
C	 0.0007795096	-2.1801031209	-0.7770646522	 0.286049
C	-1.2470122136	-2.9974717884	-1.2315448975	-0.115823
O	-0.4596776402	-3.8197234641	-2.1111208207	-0.274084
C	 0.7480626475	-3.1199839352	-1.75970954	-0.122093
C	 0.4112506165	-2.2308983705	 0.7144218981	-0.304311
C	 0.1505383448	-0.8126534438	 1.2757954987	-0.307873
H	 0.9029695194	 1.9417586239	 0.5932848198	 0.125755
H	-0.0969757073	 2.0003460499	-0.8713851126	 0.124225
H	-0.8472954571	 1.8753476939	 0.7308625127	 0.126122
H	-0.1389116473	-0.3228135471	-2.0745640085	 0.089286
H	-1.7362407586	-3.584742252	-0.4424881103	 0.093732
H	-2.0101328704	-2.4258914947	-1.7756793804	 0.094766
H	 1.2077114634	-2.6279794933	-2.627356144	 0.094837
H	 1.4890629387	-3.7843371164	-1.2943727609	 0.092766
H	-0.1133929344	-3.0155251132	 1.2667972877	 0.100845
H	 1.4811391618	-2.4581313719	 0.7774415863	 0.105241
H	 0.9432224011	-0.4769554109	 1.9554401088	 0.101615
H	-0.783638699	-0.7598432148	 1.8530032398	 0.105762
43.8472	83.154	142.6549	186.0406	262.0034	297.9682	388.2112	401.7704	432.5892	494.9184	588.917	743.47	831.8271	853.654	868.2331	890.9127	918.7535	943.1557	983.4751	987.9332	990.0059	1023.6875	1032.7616	1046.2784	1107.0645	1117.3313	1154.859	1160.872	1193.6498	1196.2116	1260.3308	1266.717	1298.368	1306.1719	1323.4695	1367.2713	1376.6186	1413.893	1478.936	1481.0546	1488.2533	1497.884	1508.654	1534.5348	1719.4157	2989.3988	3001.7158	3005.8941	3016.2828	3035.1694	3039.2083	3041.4403	3050.3324	3061.0071	3090.4189	3110.6721	3172.1813
CC1=CC2(COC2)CC1	CC1=CC2(COC2)CC1	
InChI=1S/C8H12O/c1-7-2-3-8(4-7)5-9-6-8/h4H,2-3,5-6H2,1H3	InChI=1S/C8H12O/c1-7-2-3-8(4-7)5-9-6-8/h4H,2-3,5-6H2,1H3
