13
gdb 132938	3.22094	1.42579	0.98831	2.7179	66.45	-0.2473	-0.0429	0.2044	1072.8543	0.090385	-494.055698	-494.048448	-494.047504	-494.087757	27.359	
F	 0.0597431763	 0.0211148496	-0.1858225633	-0.065349
C	 0.010502345	 1.3403525682	-0.0042229801	 0.123424
C	-1.1465766503	 1.9899208229	 0.1156384844	-0.047371
O	-1.2175552096	 3.3380587943	 0.3019945164	-0.230066
C	-0.0667735028	 4.1013113074	 0.3762764329	 0.477639
N	-0.0967642297	 5.351494858	 0.549810335	-0.561668
N	 1.1173424862	 3.4102619972	 0.2481929418	-0.383483
C	 1.2878007149	 2.0452622523	 0.0577471161	 0.312618
N	 2.458557182	 1.5523338493	-0.0407378519	-0.540822
H	-2.1203421477	 1.5205469343	 0.0775428993	 0.158825
H	-1.054396188	 5.6853397389	 0.6217866763	 0.235774
H	 1.9568636221	 3.9697909049	 0.3029015446	 0.285427
H	 2.3993612417	 0.5443727426	-0.1766551815	 0.235053
88.1142	129.4041	304.8338	345.6012	365.7645	375.9477	445.0449	550.5083	604.0059	611.7178	703.7927	737.9993	740.4166	797.8164	799.256	853.6906	890.1149	893.9326	1074.7303	1151.7381	1210.0558	1281.4491	1303.1661	1374.5546	1413.9654	1479.8455	1705.7503	1746.1835	1786.5456	3233.9585	3510.4936	3543.3695	3620.777
FC1=COC(=N)NC1=N	FC1=C(N[C@H](OC1)[NH])[NH]	
InChI=1S/C4H4FN3O/c5-2-1-9-4(7)8-3(2)6/h1H,(H3,6,7,8)	InChI=1S/C4H6FN3O/c5-2-1-9-4(7)8-3(2)6/h4,6-8H,1H2/t4-/m1/s1
