21
gdb 81353	2.45477	1.43789	1.28847	1.7105	76.73	-0.2505	0.0701	0.3206	1120.5359	0.183135	-424.204432	-424.195941	-424.194997	-424.236919	33.936	
C	-0.1657629512	 1.5722719213	-0.0706490692	-0.415865
C	 0.0719551932	 0.062605673	-0.0307198376	 0.001049
C	 1.0236544027	-0.4808945994	-1.1136070549	 0.012113
O	 1.2451532855	-1.8669888927	-0.6710783938	-0.332122
C	 1.9734692196	-1.2213920226	 0.4329631082	 0.012114
C	 2.4542438659	-0.1688464841	-0.6005624055	 0.18895
O	 3.4899515985	-0.5952216137	-1.4407867375	-0.456107
C	 0.8396580968	-0.5359039351	 1.2193143044	 0.001047
C	 1.2967880693	 0.4320612392	 2.3107681475	-0.415863
H	 0.7611506854	 2.149383934	-0.0030962555	 0.118883
H	-0.6604865713	 1.854532458	-1.0063364816	 0.117481
H	-0.8143207978	 1.8926094996	 0.7505623519	 0.120657
H	-0.8917100138	-0.4446693956	-0.1376359005	 0.082891
H	 0.746574343	-0.3878606222	-2.1649958924	 0.078027
H	 2.6644574001	-1.8830910539	 0.9578795419	 0.078027
H	 2.7002948175	 0.8407803255	-0.2682615143	 0.08244
H	 3.2502380556	-1.4887149955	-1.7213637519	 0.286366
H	 0.2245503097	-1.3149147066	 1.6799598599	 0.082891
H	 1.9479166314	 1.2241667563	 1.9294682497	 0.118884
H	 0.4421428317	 0.9129306898	 2.7965434077	 0.120657
H	 1.853312238	-0.1050870152	 3.0864533736	 0.11748
136.0182	188.9753	209.831	237.3385	261.6274	300.1024	327.6809	382.503	506.6853	520.279	522.4659	574.8808	649.2754	743.0613	850.0297	871.9614	875.4873	909.9568	918.78	934.2026	1017.3585	1021.6652	1043.4313	1060.8918	1061.4751	1130.226	1153.9101	1157.2497	1193.2469	1197.9449	1212.1234	1255.1289	1289.2735	1300.9892	1319.7574	1340.4281	1360.4548	1366.274	1410.7412	1421.4604	1454.8356	1491.5806	1494.7697	1507.3168	1511.0328	3034.7673	3038.7334	3045.3944	3061.4834	3096.2311	3098.566	3102.6388	3106.9982	3109.9507	3114.7991	3118.1725	3764.3739
CC1C2OC(C2O)C1C	C[C@H]1[C@@H]2O[C@@H]([C@H]2O)[C@H]1C	
InChI=1S/C7H12O2/c1-3-4(2)7-5(8)6(3)9-7/h3-8H,1-2H3	InChI=1S/C7H12O2/c1-3-4(2)7-5(8)6(3)9-7/h3-8H,1-2H3/t3-,4+,5+,6+,7-
