15
gdb 74071	3.5751	1.20773	0.90827	8.8257	73.2	-0.2358	-0.0265	0.2093	1198.9951	0.113143	-454.014584	-454.00632	-454.005375	-454.04757	30.235	
N	 0.1158649752	 1.3225274865	 0.123431002	-0.580234
C	-0.0308764457	-0.0294998854	 0.0390892586	 0.36971
C	-1.1502700867	-0.7823666472	 0.0228821772	-0.358231
C	-0.808822085	-2.206105324	-0.0083054058	 0.456872
O	-1.5311047501	-3.1674072521	-0.0322515322	-0.349235
N	 0.6328957233	-2.2518182944	-0.0110207638	-0.156097
C	 1.1940429766	-0.9109768077	 0.0247766859	-0.258713
C	 1.4432177673	-3.3700730551	-0.0437848704	 0.163449
O	 1.0880195674	-4.5181919657	-0.0751199308	-0.279667
H	 0.9904178661	 1.7306157011	-0.1650034987	 0.264203
H	-0.6928769232	 1.8981115118	-0.0487741536	 0.270153
H	-2.175731712	-0.4443741522	 0.030319856	 0.114823
H	 1.8216228203	-0.7058289258	-0.8538569892	 0.133593
H	 1.8076370875	-0.7439693672	 0.9199258455	 0.143742
H	 2.5146559589	-3.0714688725	-0.0377030206	 0.065631
76.0206	170.7537	200.316	205.7671	243.7372	317.9756	361.8582	432.1742	462.6917	515.3521	546.9598	605.9985	742.9392	750.498	793.0688	837.8162	912.9817	1014.9057	1035.5709	1085.0717	1153.7943	1201.3862	1204.6759	1263.3591	1283.7047	1371.8882	1425.9273	1458.3445	1500.5246	1646.6431	1701.0021	1798.8918	1873.2121	2884.5746	3005.6169	3039.4294	3246.2509	3591.9706	3700.3819
NC1=CC(=O)N(C1)C=O	NC1=CC(=O)N(C1)C=O	
InChI=1S/C5H6N2O2/c6-4-1-5(9)7(2-4)3-8/h1,3H,2,6H2	InChI=1S/C5H6N2O2/c6-4-1-5(9)7(2-4)3-8/h1,3H,2,6H2
