22
gdb 69551	2.60122	1.5334	1.34242	1.6877	86.11	-0.2158	0.0807	0.2965	1107.8206	0.194244	-367.15967	-367.151097	-367.150152	-367.192047	34.65	
C	-0.0685567194	 1.552067992	 0.0606920778	-0.512831
C	 0.1129172853	 0.0668058613	 0.0033374458	 0.351803
N	-0.8051211472	-0.855628647	 0.7158024497	-0.377137
C	 0.6547928255	-0.9177225077	 0.9867914218	-0.174757
C	 1.3198368131	-1.7521605584	-0.1362309365	 0.381639
C	 2.8090082179	-1.9636627878	 0.0183070928	-0.493829
C	 0.4512308891	-2.8883565553	-0.7656641687	-0.273519
C	-0.12373691	-1.8778006752	-1.8073549857	-0.226211
C	 0.7252631802	-0.7385035474	-1.1733851382	-0.122374
H	 0.8307881969	 2.0734539669	-0.2845226071	 0.123397
H	-0.9033639017	 1.8746747545	-0.5736409936	 0.126973
H	-0.2774317365	 1.885518546	 1.0837449648	 0.113779
H	-1.2252868354	-0.3249586403	 1.4789664211	 0.220964
H	 1.0260410242	-0.7767125866	 1.9974257057	 0.07816
H	 3.0252590719	-2.6966196611	 0.8060350886	 0.114199
H	 3.2554270031	-2.3336167185	-0.9110592666	 0.113363
H	 3.3190845177	-1.0305459483	 0.2863136285	 0.110498
H	 1.0546312104	-3.6851843393	-1.2099745396	 0.085704
H	-0.2867963753	-3.3300567152	-0.09475799	 0.106993
H	 0.1626499166	-2.0999545223	-2.838411797	 0.087718
H	-1.2033121013	-1.7292834636	-1.75951047	 0.108305
H	 1.384202325	-0.1566942466	-1.8211925038	 0.057166
136.4628	203.0418	214.4406	231.046	255.8549	290.7225	316.6518	350.6507	461.4315	529.8133	571.2612	643.7486	711.4981	745.222	806.9187	833.1584	873.7502	877.5032	911.0017	947.4564	960.8806	970.8356	993.3377	1013.2851	1028.1449	1094.7561	1101.7851	1126.9684	1129.0996	1166.888	1203.5918	1228.4901	1242.3771	1259.0753	1267.9519	1284.287	1310.5378	1361.8914	1407.3764	1410.3827	1440.699	1458.1885	1478.2979	1480.8705	1493.1902	1493.7867	1497.9729	3014.0931	3018.1768	3055.8107	3065.9181	3074.2666	3079.6319	3088.3133	3089.2348	3091.9821	3118.0922	3133.4633	3154.6198	3463.0544
CC12NC1C1(C)CCC21	C[C@]12N[C@H]1[C@@]1(C)CC[C@@H]21	
InChI=1S/C8H13N/c1-7-4-3-5(7)8(2)6(7)9-8/h5-6,9H,3-4H2,1-2H3	InChI=1S/C8H13N/c1-7-4-3-5(7)8(2)6(7)9-8/h5-6,9H,3-4H2,1-2H3/t5-,6+,7+,8-/m1/s1
