17
gdb 110553	3.61135	1.38574	1.33107	2.7296	65.31	-0.241	0.0717	0.3127	997.6015	0.137708	-458.937401	-458.930391	-458.929447	-458.969032	27.729	
O	-0.0932943826	 1.4578559311	-0.0050353017	-0.427797
C	 0.0373286767	 0.0409897923	 0.0042308551	-0.102248
C	-1.3666664683	-0.5350471082	 0.0368583239	 0.006938
C	-1.4566162662	-2.0491542409	 0.176594852	-0.203026
C	-1.4741312914	-2.2821420806	 1.6867491755	 0.038901
O	-1.4042434224	-1.0204893326	 2.324965986	-0.250922
C	-2.134236902	-0.2692521848	 1.357642487	 0.141973
O	-3.3438901668	-0.9981116832	 1.1784451578	-0.245957
C	-2.7709511932	-2.2660058993	 0.9201261109	 0.030896
H	 0.7860798852	 1.8421595196	 0.0526879059	 0.288847
H	 0.5653336645	-0.3158228736	-0.8942387772	 0.085214
H	 0.5950671398	-0.3064305561	 0.8846534315	 0.104015
H	-1.9489968793	-0.1597100196	-0.8091745882	 0.095266
H	-1.0506857421	-2.7559521533	-0.5332093587	 0.097576
H	-1.035739399	-3.1051750993	 2.2306749981	 0.113772
H	-2.3153341605	 0.7467963086	 1.691054401	 0.111432
H	-3.4712397424	-3.0767193201	 0.7865716311	 0.11512
95.9599	165.7047	223.3331	267.4159	399.56	532.4134	588.8713	613.2649	724.0446	774.7925	791.8463	796.2746	804.2342	878.8082	902.3817	976.951	988.5744	1012.8086	1024.8609	1037.7179	1041.8931	1058.7133	1074.4715	1088.6541	1094.9777	1110.8626	1212.0986	1221.9317	1228.2703	1254.8735	1284.8922	1291.573	1344.4976	1369.3586	1376.8167	1456.8482	1519.2108	2975.3968	3027.9538	3084.1684	3201.5771	3217.7761	3233.402	3243.2497	3833.5621
OCC1C2C3OC1OC23	OC[C@H]1[C@H]2[C@H]3O[C@@H]1O[C@@H]23	
InChI=1S/C6H8O3/c7-1-2-3-4-5(3)9-6(2)8-4/h2-7H,1H2	InChI=1S/C6H8O3/c7-1-2-3-4-5(3)9-6(2)8-4/h2-7H,1H2/t2-,3-,4+,5-,6+/m0/s1
