18
gdb 88400	2.28363	1.22369	0.986	3.4608	79.94	-0.2359	-0.0291	0.2067	1269.1426	0.143902	-401.881344	-401.871575	-401.870631	-401.916683	34.995	
C	 0.4992057462	 1.5017391627	-0.4788469233	-0.4242
C	-0.0231644697	 0.1233279387	-0.144257203	 0.03287
C	 0.8969448809	-1.0311994371	 0.0582716134	-0.25807
N	 0.1414276935	-0.4824181889	 1.1829312188	-0.113107
C	 0.8064547021	 0.2476341443	 2.2736436959	-0.194422
C	 0.5226555089	-0.5886180007	 3.5387890519	 0.182373
O	 0.0595321409	-0.1424826168	 4.5503760656	-0.241348
C	 2.250915288	 0.4552103191	 2.1727902766	 0.314386
C	 3.4485481856	 0.5659388819	 2.1292562252	-0.463249
H	 1.5086463234	 1.6638020754	-0.0943869903	 0.138208
H	 0.5238060258	 1.6346718246	-1.5655065502	 0.125922
H	-0.1544539139	 2.2802326291	-0.0694175589	 0.126465
H	-1.00554015	-0.0887638744	-0.5648285428	 0.097153
H	 0.611975363	-2.0345855178	-0.2467200197	 0.118218
H	 1.9637713186	-0.8237393566	 0.0168921518	 0.126984
H	 0.3000855079	 1.2082009831	 2.4166896574	 0.129875
H	 0.7720209731	-1.6631236115	 3.4120915259	 0.092856
H	 4.5033674059	 0.6877043148	 2.0903706256	 0.209084
45.0478	70.9025	131.3073	159.2634	198.3178	223.528	268.063	322.1328	408.3036	437.433	470.7146	524.6349	582.4987	637.5354	662.9238	759.8941	816.6347	902.0311	927.956	945.5014	1024.4541	1050.0286	1055.9726	1078.4887	1125.5273	1146.9275	1167.0339	1194.0014	1242.6111	1321.0809	1325.8425	1402.122	1407.1528	1424.286	1495.0732	1500.877	1510.5442	1844.6346	2217.4935	2915.0333	3035.7029	3059.7444	3093.4493	3103.9687	3106.4624	3133.3817	3190.6686	3498.534
CC1CN1C(C=O)C#C	C[C@H]1CN1[C@@H](C=O)C#C	
InChI=1S/C7H9NO/c1-3-7(5-9)8-4-6(8)2/h1,5-7H,4H2,2H3	InChI=1S/C7H9NO/c1-3-7(5-9)8-4-6(8)2/h1,5-7H,4H2,2H3/t6-,7+,8?/m0/s1
