16
gdb 35174	3.59653	1.24616	1.0945	3.2621	74.38	-0.2527	0.0229	0.2757	1100.2597	0.12424	-400.665579	-400.658201	-400.657257	-400.697651	28.481	
N	-0.0403687248	-1.1621639848	-0.0070859589	-0.33647
C	-0.048732608	-0.005048299	 0.0147407577	 0.2877
C	-0.0359581727	 1.4305583701	 0.0340936487	-0.294409
C	 0.5066281412	 2.1661258115	 1.2775979885	-0.381686
C	 1.2795736329	 2.1673952797	 0.0236948437	 0.460498
C	 2.7187829394	 1.7715380051	-0.3283891387	-0.03947
C	 2.4466736626	 2.1690442493	-1.8008726716	-0.217061
C	 1.8705385354	 3.2663760934	-0.8703214004	-0.049407
O	 3.109713449	 3.1807029218	-0.0584482129	-0.305598
H	-0.8750809468	 1.8930108529	-0.4763962886	 0.137362
H	-0.0281986742	 3.0623512494	 1.5728834138	 0.136808
H	 0.8512449768	 1.5484009628	 2.0994407154	 0.148701
H	 3.3410461936	 0.9792163645	 0.084386961	 0.116222
H	 3.3330994013	 2.4700515314	-2.3590504759	 0.116825
H	 1.7498963994	 1.5588917905	-2.379519108	 0.113541
H	 1.4816157247	 4.2572374014	-1.1034636637	 0.106445
96.224	123.2674	218.83	285.2362	317.5744	444.0463	506.7448	552.8617	641.6194	686.89	731.4972	805.1822	809.8963	867.2862	881.6817	922.1319	941.0058	959.1222	1017.4356	1029.7097	1070.326	1078.6075	1108.9893	1117.4359	1130.7525	1165.6654	1172.6197	1216.9531	1236.8938	1262.918	1328.8955	1436.4787	1479.3295	1507.6208	2350.5378	3074.654	3127.6695	3138.2226	3141.6402	3160.89	3161.2023	3228.4371
N#CC1CC11C2CC1O2	N#C[C@H]1C[C@]21[C@H]1C[C@@H]2O1	
InChI=1S/C7H7NO/c8-3-4-2-7(4)5-1-6(7)9-5/h4-6H,1-2H2	InChI=1S/C7H7NO/c8-3-4-2-7(4)5-1-6(7)9-5/h4-6H,1-2H2/t4-,5-,6+,7+/m1/s1
