17
gdb 54083	2.51268	1.16704	0.84803	5.2763	73.94	-0.2473	-0.031	0.2162	1329.0545	0.133766	-455.185248	-455.175643	-455.174698	-455.220563	33.439	
C	 0.0934220666	 1.5452700014	 0.0778428332	-0.510471
C	 0.0462569371	 0.0276064008	 0.0864574642	 0.426192
O	 0.0679885292	-0.5998878208	 1.123085408	-0.337094
N	-0.02377646	-0.633042112	-1.1473060724	-0.111039
C	-0.0627889478	-2.0930953562	-1.1618703926	-0.263358
C	-1.3905987049	-2.6385253049	-1.6722206182	 0.181967
O	-1.5418079728	-3.7782171048	-2.0157853286	-0.238993
C	-0.0455539747	 0.0124131205	-2.3758700806	 0.07834
N	-0.1394702429	-0.6571002733	-3.4528574991	-0.452815
H	 0.9784966569	 1.9205013041	-0.4447683728	 0.150922
H	-0.7907761912	 1.9785855044	-0.3989529568	 0.150019
H	 0.131784723	 1.8682999091	 1.1173167617	 0.159432
H	 0.7415572564	-2.4923817502	-1.7832648931	 0.156616
H	 0.0737669979	-2.4211601561	-0.128651905	 0.17519
H	-2.229089839	-1.9059548127	-1.656494393	 0.07971
H	 0.0239567495	 1.0981452912	-2.3108101699	 0.118663
H	-0.1430856834	-0.0418155004	-4.2631282249	 0.236719
52.6107	84.8617	113.7572	152.1554	180.0068	222.877	263.191	332.1704	382.9465	409.9142	510.4542	552.1619	602.9108	625.5354	736.9519	818.5445	840.9176	978.478	1032.5724	1048.1853	1052.641	1058.0717	1110.2529	1175.3773	1244.3424	1333.5424	1355.0335	1372.828	1398.8705	1415.0736	1432.2274	1441.1696	1478.6775	1488.9854	1705.1206	1792.1019	1847.9151	2877.4843	3049.7977	3079.4471	3116.0201	3127.4857	3137.255	3165.8903	3519.4863
CC(=O)N(CC=O)C=N	CC(=O)N(CC=O)C=N	
InChI=1S/C5H8N2O2/c1-5(9)7(4-6)2-3-8/h3-4,6H,2H2,1H3	InChI=1S/C5H8N2O2/c1-5(9)7(4-6)2-3-8/h3-4,6H,2H2,1H3
