15
gdb 79910	2.63865	1.61173	1.34452	1.9407	68.44	-0.2382	-0.0607	0.1775	974.8926	0.113222	-453.958503	-453.950665	-453.949721	-453.990599	30.196	
N	 0.0132191559	 1.291758483	-0.1603389867	-0.563233
C	-0.0545359661	-0.0496424788	-0.0691876774	 0.271742
N	-1.1084610097	-0.7916916616	-0.1344650247	-0.316723
C	-0.6857056525	-2.179040319	-0.0208744552	-0.091345
C	-0.012675282	-2.7137153118	-1.2344390801	 0.133716
O	-0.0436078458	-2.0581526706	-2.4471163477	-0.415566
C	 0.8408745035	-2.2436924542	-0.0030982491	-0.259886
C	 1.2518864388	-0.8247719001	 0.0521334547	 0.38699
O	 2.3388630006	-0.3126157945	 0.1874238985	-0.343038
H	 0.9065632215	 1.7145543896	 0.0362925433	 0.277495
H	-0.8203374507	 1.8517852276	-0.1078731698	 0.270173
H	-1.3033791916	-2.809868642	 0.6091319705	 0.107707
H	 0.0315370368	-3.7915122269	-1.366448389	 0.121984
H	-0.5988842209	-1.2743238662	-2.335428965	 0.30244
H	 1.432131452	-2.9940454443	 0.5038492375	 0.117543
121.1407	134.5649	245.288	280.3608	306.7621	356.6445	408.0402	477.9903	518.2977	582.9813	600.4693	662.6886	686.7221	750.3372	770.5765	833.3245	854.3295	906.5251	967.3892	1021.1423	1043.4294	1093.7567	1156.7424	1164.5959	1212.5795	1300.571	1305.6652	1338.441	1415.0097	1444.3552	1600.169	1713.5622	1817.9662	3150.9882	3170.4502	3212.5217	3596.8162	3727.1924	3748.3345
NC1=NC2C(O)C2C1=O	NC1=N[C@H]2[C@@H](O)[C@H]2C1=O	
InChI=1S/C5H6N2O2/c6-5-4(9)1-2(7-5)3(1)8/h1-3,8H,(H2,6,7)	InChI=1S/C5H6N2O2/c6-5-4(9)1-2(7-5)3(1)8/h1-3,8H,(H2,6,7)/t1-,2+,3-/m0/s1
