17
gdb 106270	3.03333	1.27385	1.09161	2.0401	68.77	-0.2432	0.0002	0.2434	1130.5116	0.134382	-458.923024	-458.914093	-458.913149	-458.957066	32.598	
O	-0.0412907853	 1.400699058	 0.0344517409	-0.41626
C	-0.0239667922	-0.0111444122	-0.1038710575	-0.201939
C	-1.4143651707	-0.5799085179	-0.0633683099	 0.172679
C	-2.6078292121	-0.3467091288	-1.0608009198	-0.302351
C	-3.2397222675	-1.2360295222	 0.0598038429	 0.279478
O	-4.5310604791	-1.6904437457	 0.0771505209	-0.460659
C	-1.8900856232	-2.0690053004	 0.0112121722	-0.350171
C	-2.4700971865	-0.3269695401	 1.0239813199	 0.35485
O	-2.6006074343	 0.2616963876	 2.0575020822	-0.357111
H	-0.4310992566	 1.6007723973	 0.8932063537	 0.299057
H	 0.4588724222	-0.219961568	-1.06419742	 0.118837
H	 0.5870694253	-0.4890626321	 0.6784088365	 0.099603
H	-2.9819496515	 0.6716458409	-1.1721920904	 0.123248
H	-2.4914632187	-0.8545607953	-2.0209933553	 0.113139
H	-4.8255608024	-1.745060164	 0.9934294579	 0.301644
H	-1.7588390617	-2.6345594928	-0.9138865813	 0.115112
H	-1.6110084658	-2.6475638842	 0.8943499069	 0.110843
66.8852	93.1505	129.8018	183.6608	226.7284	251.7199	362.6947	397.7936	441.3031	518.1606	540.0205	635.9413	680.6821	758.1806	783.9204	812.7414	866.1801	940.1878	991.7367	1010.0272	1031.1576	1048.2402	1082.9939	1116.99	1124.1133	1131.3928	1135.1768	1246.6981	1315.3882	1337.2137	1381.9104	1411.7485	1433.1821	1490.8895	1500.6776	1536.9762	1894.8857	2979.9136	3063.167	3069.4	3072.5489	3138.031	3147.4412	3801.3167	3803.8565
OCC12CC(O)(C1)C2=O	OC[C@@]12C[C@@](O)(C1)C2=O	
InChI=1S/C6H8O3/c7-3-5-1-6(9,2-5)4(5)8/h7,9H,1-3H2	InChI=1S/C6H8O3/c7-3-5-1-6(9,2-5)4(5)8/h7,9H,1-3H2/t5-,6-
