16
gdb 25778	4.10466	1.10363	0.87449	1.5837	75.29	-0.2261	-0.0206	0.2055	1278.047	0.125759	-434.161086	-434.152415	-434.15147	-434.194699	31.413	
C	-0.0028183508	 1.4979346212	 0.0391885133	-0.490528
C	-0.0146492342	 0.0043393712	-0.0074430341	 0.272499
C	-0.0988806305	-0.8186943202	-1.1125579315	-0.170432
N	-0.0715944421	-2.0989024337	-0.6288504784	-0.267775
C	 0.0259970992	-2.0157580621	 0.722097273	 0.269131
N	 0.0627083664	-0.7605509361	 1.1308557142	-0.369878
C	 0.0774276011	-3.2474384569	 1.5386112663	 0.336629
N	 0.1747465122	-3.0164044815	 2.8702945964	-0.534935
O	 0.033341642	-4.3527994522	 1.017443179	-0.395718
H	 0.9157521462	 1.8702857612	 0.5049715267	 0.135511
H	-0.0717386266	 1.9228906933	-0.9656885151	 0.120207
H	-0.8421262926	 1.88026274	 0.629745786	 0.135504
H	-0.1733258811	-0.6027918829	-2.165567355	 0.134951
H	-0.1125989071	-2.9737115342	-1.1277657925	 0.282426
H	 0.2041769305	-2.0692534512	 3.210731937	 0.278383
H	 0.2149687073	-3.7954512758	 3.504172815	 0.264026
88.0835	103.5452	154.2159	157.0472	222.5223	304.9352	330.8441	385.9604	520.0558	585.4238	626.4139	649.0628	674.872	693.2591	711.1396	757.7269	805.6644	991.6738	1007.535	1022.6111	1064.9383	1087.5062	1110.1967	1211.2171	1289.8777	1336.1233	1411.1505	1419.9098	1477.0365	1477.0479	1498.2656	1536.8474	1587.0157	1609.8494	1775.955	3036.04	3091.2515	3117.8191	3272.4832	3599.4925	3654.6125	3744.4089
CC1=CNC(=N1)C(N)=O	Cc1c[nH]c(n1)C(=O)N	
InChI=1S/C5H7N3O/c1-3-2-7-5(8-3)4(6)9/h2H,1H3,(H2,6,9)(H,7,8)	InChI=1S/C5H7N3O/c1-3-2-7-5(8-3)4(6)9/h2H,1H3,(H2,6,9)(H,7,8)
