16
gdb 128413	4.69579	0.86198	0.74194	3.725	67.63	-0.2378	-0.0184	0.2194	1485.8642	0.12467	-471.195643	-471.187053	-471.186109	-471.230056	30.328	
C	-0.6896924731	 1.4019464601	-0.599890787	-0.309687
N	-0.723525367	-0.0529066434	-0.6271559692	-0.285826
C	-0.4215782141	-0.6490040872	 0.661529683	-0.262501
C	-0.7092565172	-2.1134393039	 0.6415023254	 0.459821
N	-1.6590029731	-2.7268860391	-0.0018747095	-0.405743
C	-1.457821431	-4.0287788533	 0.3863047039	 0.440182
O	-2.2228676453	-5.0281860258	-0.0477197507	-0.399439
N	-0.4650326473	-4.2321860708	 1.2139409974	-0.201826
O	 0.0440031579	-2.9243479515	 1.3807282913	-0.202562
H	-0.980124427	 1.789218215	-1.5799210728	 0.126886
H	-1.3484009885	 1.8556800437	 0.1626412634	 0.098183
H	 0.3323212899	 1.7422307839	-0.397253332	 0.1268
H	-1.6287667859	-0.3861191938	-0.9403893555	 0.238521
H	 0.6373426573	-0.503729274	 0.905534822	 0.142011
H	-0.99547242	-0.2057993344	 1.5013765106	 0.115492
H	-2.8789533257	-4.6465376855	-0.6435419904	 0.319688
41.9169	87.4896	117.2655	224.2607	246.2764	321.2478	350.5503	382.9714	407.2775	487.0282	658.6456	705.671	765.6434	772.9519	819.9531	930.4023	993.7935	1000.5492	1046.1636	1076.4738	1147.8206	1153.7235	1192.5976	1217.7575	1259.5086	1301.0502	1400.3145	1447.7863	1460.7591	1485.5863	1496.6429	1507.0528	1519.6979	1604.991	1676.5304	2893.7889	2943.0521	3056.71	3057.3701	3112.9594	3537.5558	3813.8899
CNCC1=NC(O)=NO1	CNCc1nc(O)no1	
InChI=1S/C4H7N3O2/c1-5-2-3-6-4(8)7-9-3/h5H,2H2,1H3,(H,7,8)	InChI=1S/C4H7N3O2/c1-5-2-3-6-4(8)7-9-3/h5H,2H2,1H3,(H,7,8)
