19
gdb 73882	2.37197	1.5651	1.10834	4.0376	85.67	-0.2356	-0.0509	0.1847	1143.1724	0.159876	-385.885286	-385.87726	-385.876316	-385.917866	30.874	
C	-0.0336683715	 1.4626229737	 0.0736384514	-0.521121
C	 0.0088657042	-0.0217577908	-0.004474739	 0.249867
C	 0.0033542409	-0.8810856723	-1.0515187131	 0.16406
C	-0.0474566298	-0.6154651023	-2.4742844098	 0.02763
O	-0.0475240501	-1.4719471267	-3.3375553993	-0.28966
C	 0.0651965162	-2.2590412788	-0.3804068625	-0.118461
C	-0.9732438345	-2.0488268023	 0.771282458	-0.213784
C	 0.0735924621	-0.9610909093	 1.2039852019	-0.113275
C	 1.156308363	-1.9844440975	 0.7072564019	-0.213783
H	 0.8490649589	 1.8476977907	 0.6002127795	 0.141049
H	-0.0773643636	 1.9332916949	-0.9107319025	 0.138794
H	-0.9049917016	 1.7946700663	 0.6527110427	 0.141053
H	-0.0882714131	 0.4624828889	-2.7483782087	 0.056789
H	 0.0722711396	-3.1343200404	-1.0252600179	 0.088751
H	-1.974296013	-1.7079152922	 0.4966146848	 0.098135
H	-1.0259320765	-2.8876918734	 1.4714777828	 0.100425
H	 0.0901892619	-0.5190708583	 2.2004855705	 0.06497
H	 1.3014622702	-2.8173264198	 1.4015054452	 0.100425
H	 2.1166651666	-1.5842343606	 0.3736171642	 0.098136
110.1138	170.8629	173.0079	185.4997	252.0681	283.7838	480.6554	545.5977	548.3033	587.8312	627.8648	735.9307	820.2667	842.7163	847.9867	876.2768	903.9918	991.8793	1009.4357	1016.8135	1022.6221	1053.7268	1066.6788	1086.2179	1111.0289	1138.568	1206.2619	1218.9207	1226.5987	1237.8286	1249.4363	1270.5771	1368.5326	1407.8998	1428.6758	1473.4668	1476.5732	1479.6475	1515.1688	1673.7643	1760.356	2873.3611	3019.0643	3048.8376	3056.6993	3063.1223	3114.5563	3116.8925	3121.643	3125.1798	3154.5556
CC1=C(C=O)C2CC1C2	CC1=C(C=O)[C@@H]2C[C@H]1C2	
InChI=1S/C8H10O/c1-5-6-2-7(3-6)8(5)4-9/h4,6-7H,2-3H2,1H3	InChI=1S/C8H10O/c1-5-6-2-7(3-6)8(5)4-9/h4,6-7H,2-3H2,1H3/t6-,7+
