19
gdb 53703	11.07548	0.4198	0.40898	4.4268	86.89	-0.2489	0.0206	0.2695	2558.9009	0.157487	-382.048843	-382.037894	-382.03695	-382.088111	36.135	
C	 0.036106818	 1.492389733	-0.0240620218	-0.496749
C	 0.0198270691	 0.0375467068	 0.0343271784	 0.095072
C	 0.0191888292	-1.1653285887	 0.0846243596	 0.036621
C	-0.0153046614	-2.6214106902	 0.1450675767	-0.368566
C	-1.4341439825	-3.1844899979	-0.0375390498	-0.117251
N	-1.4118293985	-4.6416233604	 0.0487672833	-0.297859
C	-2.7381547021	-5.2304856574	-0.0874732697	-0.262358
C	-2.6737197487	-6.694081766	-0.0432574579	 0.256143
N	-2.6221183299	-7.8477673904	-0.0326281356	-0.29651
H	 0.7169653691	 1.852486688	-0.803237467	 0.148622
H	-0.9595387712	 1.8928842655	-0.2447527312	 0.147618
H	 0.3629764634	 1.9259329228	 0.9275203347	 0.14903
H	 0.6397660358	-3.0407312927	-0.6317883999	 0.123977
H	 0.380511608	-2.9791070415	 1.103022693	 0.142717
H	-2.0770836016	-2.8042551744	 0.7649395186	 0.120429
H	-1.8575152977	-2.8107383074	-0.9865772468	 0.096362
H	-0.8016701936	-5.0217606732	-0.668810403	 0.231385
H	-3.3635060403	-4.8874109764	 0.7463569539	 0.158631
H	-3.2697989352	-4.9424063294	-1.0134713953	 0.132687
11.8848	36.2631	58.599	108.7816	120.3495	127.7501	223.4492	246.5085	320.6757	358.9253	388.5737	394.6226	497.5207	576.8149	769.6336	786.3467	794.1059	938.2116	992.4	1027.0224	1050.2751	1053.5266	1068.4706	1121.5183	1145.1038	1170.9505	1202.4604	1269.5566	1305.38	1314.0043	1365.0087	1415.3006	1416.5508	1477.3178	1478.4661	1479.2393	1490.4404	1497.1546	1519.0304	2369.3363	2376.2525	2933.9621	2948.6697	3007.7027	3026.6886	3046.9228	3049.0558	3064.3149	3087.1738	3087.4999	3512.8165
CC#CCCNCC#N	CC#CCCNCC#N	
InChI=1S/C7H10N2/c1-2-3-4-6-9-7-5-8/h9H,4,6-7H2,1H3	InChI=1S/C7H10N2/c1-2-3-4-6-9-7-5-8/h9H,4,6-7H2,1H3
