19
gdb 83123	2.03752	1.77822	1.40475	2.3553	75.34	-0.2349	-0.009	0.2259	1040.8865	0.158935	-423.050686	-423.041961	-423.041017	-423.083809	33.207	
C	-0.1614671143	 1.5142469094	-0.0064672819	-0.481152
C	 0.0950791723	 0.0282038039	 0.0139189394	 0.143494
C	-0.7697509583	-0.8968665976	 0.8761869563	 0.05669
O	-1.2553079631	-2.1280363789	 0.4297648535	-0.413351
C	 0.6777856934	-0.7743387903	 1.1856076261	-0.13265
C	 1.6043819838	-1.8622913574	 0.6347073295	-0.227148
C	 1.3598302462	-1.9089454794	-0.886469654	-0.321513
C	 0.6406083619	-0.6039419865	-1.2357852049	 0.368584
O	 0.5578619118	-0.1161934776	-2.3380234884	-0.337171
H	 0.7720224319	 2.0774223802	-0.1101727871	 0.126091
H	-0.7959719923	 1.7753318682	-0.8588625052	 0.138209
H	-0.6555520958	 1.8478854536	 0.9110096123	 0.110777
H	-1.4535292904	-0.3564375217	 1.5320242858	 0.094322
H	-2.002600364	-1.9643505522	-0.1557389038	 0.294812
H	 0.9647790646	-0.2740467659	 2.1046333541	 0.093718
H	 2.6410291729	-1.5827300011	 0.8461969575	 0.107686
H	 1.4211700211	-2.8265083426	 1.1164960477	 0.117274
H	 2.2743320876	-1.9945936627	-1.4778894449	 0.123135
H	 0.7042012205	-2.7382245912	-1.167811612	 0.138193
89.7766	135.511	176.639	223.659	234.2558	264.8857	335.711	390.2148	469.5753	527.2501	560.5817	638.6545	645.7776	680.9994	792.259	831.559	851.4138	891.5206	963.9197	1000.4738	1020.6378	1056.0768	1082.1002	1093.617	1118.1437	1147.1761	1191.9458	1236.4197	1256.4896	1271.9034	1293.3572	1330.6593	1335.6725	1362.1612	1413.6489	1444.4101	1465.4905	1482.4981	1497.9408	1501.5547	1818.381	3035.0552	3054.241	3068.5252	3091.5127	3093.3706	3099.0445	3111.736	3117.9985	3163.5998	3804.4056
CC12C(O)C1CCC2=O	C[C@]12[C@@H](O)[C@H]1CCC2=O	
InChI=1S/C7H10O2/c1-7-4(6(7)9)2-3-5(7)8/h4,6,9H,2-3H2,1H3	InChI=1S/C7H10O2/c1-7-4(6(7)9)2-3-5(7)8/h4,6,9H,2-3H2,1H3/t4-,6+,7+/m1/s1
