19
gdb 34567	4.1747	1.08251	0.98643	0.7713	91.5	-0.2235	-0.0158	0.2077	1248.6064	0.160268	-348.732197	-348.724277	-348.723333	-348.764665	31.373	
C	 0.0520661729	-1.2255243697	-0.110567171	-0.42081
C	-0.0208025847	-0.023711424	-0.0510140471	 0.205878
C	-0.0453386076	 1.3902153138	 0.0241954849	 0.198628
C	-1.1372211635	 2.1718228684	-0.0382566145	-0.185815
C	-0.8212003933	 3.6334905928	 0.0680060713	-0.051816
C	-1.1203364896	 4.2933074705	 1.4506143894	-0.221165
C	 0.3481634969	 4.0115974895	 1.8760969324	-0.22233
C	 0.7086300483	 3.6341465427	 0.4071617663	-0.011875
C	 1.2340736633	 2.2094744229	 0.1629791993	-0.339404
H	 0.0988321324	-2.2845848144	-0.1674130073	 0.190012
H	-2.1469907055	 1.7926879745	-0.1523556713	 0.096228
H	-1.1699925387	 4.197190561	-0.804190609	 0.073352
H	-1.3369282031	 5.3609409846	 1.357436057	 0.0996
H	-1.9072894333	 3.8315590865	 2.052339934	 0.098587
H	 0.8948670897	 4.8549645077	 2.304191398	 0.098724
H	 0.4417255901	 3.1628150514	 2.5594183453	 0.104225
H	 1.2981842288	 4.4004656827	-0.0986285761	 0.065587
H	 1.8603220236	 1.8479655227	 0.9873946977	 0.111535
H	 1.8404643731	 2.1276841065	-0.7481028792	 0.110859
96.1212	117.2672	154.4641	271.5479	347.6133	423.053	517.7929	540.6494	544.7992	593.5554	631.2131	644.9951	721.7128	768.7706	845.5483	866.648	877.1394	891.8447	918.853	953.3979	968.4882	1015.7605	1058.1505	1067.706	1115.4992	1142.4841	1190.8104	1209.5361	1227.6859	1249.2869	1262.4913	1275.2791	1277.0364	1312.5448	1327.3964	1343.9231	1477.2128	1485.4191	1495.3351	1660.7669	2219.4144	3022.5028	3038.4481	3054.6423	3056.408	3061.0734	3089.8829	3101.2602	3118.5308	3193.6238	3504.0283
C#CC1=CC2CCC2C1	C#CC1=C[C@H]2CC[C@H]2C1	
InChI=1S/C9H10/c1-2-7-5-8-3-4-9(8)6-7/h1,5,8-9H,3-4,6H2	InChI=1S/C9H10/c1-2-7-5-8-3-4-9(8)6-7/h1,5,8-9H,3-4,6H2/t8-,9+/m1/s1
