21
gdb 75471	2.61778	1.35694	0.95164	1.6067	85.64	-0.2249	0.0248	0.2497	1279.8522	0.182388	-387.086992	-387.078025	-387.077081	-387.121046	33.645	
C	-0.2269491116	 1.4742879646	 0.1437444676	-0.493387
C	-0.0346402303	-0.003311298	 0.0298703075	 0.3179
C	 0.1105913819	-0.7428645205	-1.0660764201	-0.218073
C	 0.2424027222	-2.1930037403	-0.7051850511	-0.116915
O	 0.2142075705	-2.2246682449	 0.7182229351	-0.279544
C	 0.003981459	-0.9102267949	 1.244402346	 0.027065
C	 1.0844498266	-0.5724867886	 2.2489075203	 0.023432
C	 0.7741334365	 0.3366998229	 3.4151190269	-0.270776
C	 1.0036866767	-1.1344946675	 3.6434804456	-0.269545
H	 0.567478653	 1.9339075098	 0.7427228003	 0.13587
H	-0.2372912331	 1.952596739	-0.8390447839	 0.123749
H	-1.1726778663	 1.7114829198	 0.6475964052	 0.126371
H	 0.1204029631	-0.3820354181	-2.087699563	 0.095984
H	-0.5823168469	-2.8005685671	-1.1136896124	 0.099397
H	 1.1801724828	-2.6429824711	-1.0673906115	 0.102184
H	-0.9677955707	-0.886984331	 1.7729439444	 0.065983
H	 2.0767040037	-0.490756623	 1.8135045932	 0.081152
H	 1.5363073518	 1.0379931737	 3.7356366875	 0.110492
H	-0.2398173415	 0.7118396762	 3.5122827381	 0.10975
H	 0.1453573326	-1.7521860644	 3.8860342466	 0.117323
H	 1.9247135201	-1.4455929468	 4.1229571776	 0.111589
73.5337	83.0708	151.2687	178.6838	243.2667	271.8874	277.2323	350.5265	445.1761	538.4098	611.8821	765.779	776.3864	807.5368	828.5024	871.0926	910.3279	918.0163	947.7028	974.1189	1002.3318	1039.3362	1047.9576	1058.2895	1067.3836	1079.7691	1103.3157	1135.9701	1175.151	1197.062	1199.241	1211.4161	1223.4981	1281.0406	1322.5022	1344.9892	1379.0567	1414.9979	1422.0903	1470.5386	1479.0905	1490.4524	1505.0476	1524.793	1734.4453	2917.8262	2963.0943	2984.511	3023.2649	3073.5247	3114.5347	3129.7963	3135.8839	3144.7986	3205.3149	3208.2191	3224.3111
CC1=CCOC1C1CC1	CC1=CCO[C@H]1C1CC1	
InChI=1S/C8H12O/c1-6-4-5-9-8(6)7-2-3-7/h4,7-8H,2-3,5H2,1H3	InChI=1S/C8H12O/c1-6-4-5-9-8(6)7-2-3-7/h4,7-8H,2-3,5H2,1H3/t8-/m1/s1
