20
gdb 82095	2.85794	1.2954	1.04099	2.3008	78.62	-0.2302	0.0768	0.307	1202.0671	0.171201	-403.076437	-403.068008	-403.067064	-403.10976	32.219	
C	-0.1047279187	 1.5853595868	-0.3271078178	-0.409094
C	 0.0115901085	 0.0838949278	-0.0993935324	-0.002932
C	 1.0661448247	-0.6883306845	-0.90662725	-0.056749
N	 2.3874082199	-0.1724823658	-0.4733220358	-0.336418
C	 1.7006424533	-1.2163170602	 0.3283406654	-0.067998
C	 0.6972115434	-0.4739669767	 1.2244370839	-0.036149
C	 1.2648301743	 0.4870165147	 2.2302759173	 0.081661
C	 0.489092493	 0.9433764982	 3.3911926095	-0.184361
O	 1.5035410732	-0.0476645364	 3.5427779219	-0.243608
H	 0.8795845931	 2.0593614274	-0.3071490981	 0.137269
H	-0.560080979	 1.7915723435	-1.3021830434	 0.109355
H	-0.7317857729	 2.0562184133	 0.4371367502	 0.112838
H	-0.9674933434	-0.3924340318	-0.2085673477	 0.075187
H	 0.9472219022	-1.1475451386	-1.8807209765	 0.089874
H	 3.0955862574	-0.6427560387	-1.0353366874	 0.229626
H	 2.175863192	-2.1703438211	 0.5198868861	 0.096044
H	 0.0276892735	-1.1678143001	 1.7395577097	 0.078097
H	 2.0654122363	 1.1262517258	 1.8632739406	 0.110079
H	 0.7050350161	 1.9116191229	 3.8414426815	 0.111624
H	-0.5331314171	 0.5899112636	 3.5277107629	 0.105657
69.4895	128.6714	154.2068	223.2118	239.7494	288.6579	334.0461	472.1997	503.7778	602.7688	675.0459	787.5344	818.4327	842.5246	849.4118	869.6907	903.0874	927.1005	936.06	1005.5681	1022.4696	1038.7173	1074.8271	1098.9703	1109.6713	1114.8691	1138.8137	1155.9135	1176.4004	1189.2225	1195.0223	1257.9295	1265.2496	1288.7649	1313.1887	1324.7399	1368.3256	1383.2819	1405.462	1452.9842	1490.2877	1506.2208	1529.7311	3033.6301	3055.5485	3074.9523	3078.9871	3093.6488	3124.5506	3137.4103	3160.7706	3180.3561	3195.6631	3480.6531
CC1C2NC2C1C1CO1	C[C@H]1[C@H]2N[C@H]2[C@H]1[C@H]1CO1	
InChI=1S/C7H11NO/c1-3-5(4-2-9-4)7-6(3)8-7/h3-8H,2H2,1H3	InChI=1S/C7H11NO/c1-3-5(4-2-9-4)7-6(3)8-7/h3-8H,2H2,1H3/t3-,4-,5-,6-,7+/m1/s1
