18
gdb 90212	3.23376	1.74143	1.47269	2.5086	76.81	-0.207	0.0524	0.2593	945.3411	0.146753	-401.763783	-401.756564	-401.75562	-401.795035	29.218	
C	-0.0690467073	 1.5760662268	 0.0532640184	-0.330006
N	 0.0335280146	 0.1384582883	 0.16139411	-0.123718
C	-1.1836121236	-0.7024605907	 0.3997076758	-0.265506
C	-0.2950683061	-1.6676533348	 1.2211265804	 0.294666
O	 0.6011215975	-2.5622648984	 0.4804366759	-0.335188
C	 1.4672345984	-1.8651120187	 1.4035995646	 0.033028
C	 0.4197347332	-1.8532299682	 2.6021013558	-0.142114
C	 0.5306130735	-0.328415135	 2.8168172198	-0.314857
C	 0.7040424952	-0.498143193	 1.2856902374	 0.216259
H	 0.934910964	 2.0060522558	-0.0179723389	 0.128693
H	-0.6118975277	 1.841624462	-0.8603552659	 0.124425
H	-0.5876132148	 2.0492795389	 0.9069209781	 0.095108
H	-1.9590870936	-0.2063060203	 1.0025488591	 0.105988
H	-1.6314460656	-1.125828374	-0.5037562957	 0.129346
H	 2.5272504771	-2.1371907702	 1.4215269733	 0.089938
H	 0.277190438	-2.6457837767	 3.3400324861	 0.087819
H	-0.3870578525	 0.1621031255	 3.1540127354	 0.103681
H	 1.3889234998	 0.0383778726	 3.3850472603	 0.102436
132.2183	194.0258	252.7346	305.1465	358.1538	402.3232	483.7403	551.6751	597.8529	666.6788	742.5984	763.4984	826.0231	872.454	892.8258	910.8593	926.8947	941.636	1010.0988	1040.4671	1061.283	1081.6273	1096.9802	1130.5733	1144.1834	1151.4686	1167.209	1195.2974	1208.2088	1222.1058	1254.1515	1274.6921	1294.7233	1323.091	1448.9497	1477.4963	1491.3179	1506.0326	1515.5694	2939.4476	2990.5001	3053.8761	3057.0785	3062.9242	3088.0303	3095.9933	3102.7604	3109.8625
CN1CC23OC4C2CC134	CN1C[C@]23O[C@@H]4[C@H]2C[C@]134	
InChI=1S/C7H9NO/c1-8-3-7-4-2-6(7,8)5(4)9-7/h4-5H,2-3H2,1H3	InChI=1S/C7H9NO/c1-8-3-7-4-2-6(7,8)5(4)9-7/h4-5H,2-3H2,1H3/t4-,5-,6-,7+/m1/s1
