16
gdb 75730	2.51382	1.5762	1.016	3.8612	76.19	-0.2334	-0.0699	0.1635	1125.5247	0.124107	-437.958336	-437.949612	-437.948668	-437.991838	31.978	
C	-0.1077905804	 1.5671130518	 0.0223985098	-0.392106
C	 0.058505185	 0.0443685463	 0.008845895	-0.240348
C	 0.8504077614	-0.4833319609	-1.2042689591	 0.394436
O	 0.5996577639	-0.2051325654	-2.3584851028	-0.354202
C	 1.9314649472	-1.3419711404	-0.7190716974	-0.326492
C	 1.9416770581	-1.3790481908	 0.6420900399	 0.298698
N	 2.7161688957	-2.0135199427	 1.5362741498	-0.589328
C	 0.8398018264	-0.5107178843	 1.1836190935	 0.361526
O	 0.6750093322	-0.3162674292	 2.3665057398	-0.338796
H	 0.8650802358	 2.0680921358	 0.0484566677	 0.121772
H	-0.6279198741	 1.8845455576	-0.8840444254	 0.143116
H	-0.6792915587	 1.8839108382	 0.8981531783	 0.132632
H	-0.9345787816	-0.4250294137	 0.0007818336	 0.127999
H	 2.6120020274	-1.8494404561	-1.3909186644	 0.110955
H	 3.5348325495	-2.5324677799	 1.2741465531	 0.272039
H	 2.5580256921	-1.8011908064	 2.5096058487	 0.278101
59.1914	162.5642	195.9496	203.8999	223.0907	270.2723	284.3289	382.7105	470.3083	543.7408	578.7112	586.6979	630.949	691.5518	720.8237	805.5303	823.8083	875.9389	984.2354	1052.7493	1067.9969	1088.7329	1132.264	1226.4952	1246.3271	1287.4283	1314.8036	1391.9019	1402.2406	1494.3924	1498.9228	1606.3024	1694.1096	1785.4185	1826.4174	3026.7153	3046.6685	3118.1522	3137.3838	3215.5237	3591.4292	3730.1492
CC1C(=O)C=C(N)C1=O	C[C@H]1C(=O)C=C(N)C1=O	
InChI=1S/C6H7NO2/c1-3-5(8)2-4(7)6(3)9/h2-3H,7H2,1H3	InChI=1S/C6H7NO2/c1-3-5(8)2-4(7)6(3)9/h2-3H,7H2,1H3/t3-/m0/s1
