19
gdb 65992	2.43197	1.37574	1.29266	2.7518	75.37	-0.2435	-0.027	0.2165	1106.8652	0.158593	-419.168267	-419.159376	-419.158432	-419.201815	33.368	
C	-0.1577707114	 1.7089230719	 0.2952684819	-0.418835
C	 0.0030776645	 0.2146702623	 0.0233667068	 0.139878
N	 0.9995946511	-0.10736357	-1.0430971338	-0.361452
C	 1.7718920978	-1.0388935006	-0.1789004048	-0.293813
C	 0.9303353538	-0.544677352	 1.005914667	 0.382921
O	 0.9722227347	-0.6629656783	 2.1922122669	-0.291642
C	-1.3623490795	-0.4606511024	-0.0806579895	-0.009317
C	-2.0978282694	-0.52191462	-1.3669466136	-0.257009
N	-1.5638471973	-1.7513570769	-0.7492991977	-0.322188
H	 0.8192285108	 2.1869345917	 0.3980638299	 0.126473
H	-0.6930149611	 2.1908638914	-0.528834874	 0.123134
H	-0.7248824129	 1.8689550954	 1.2175896218	 0.131759
H	 0.6235526242	-0.5173003459	-1.890599355	 0.21639
H	 1.6278094881	-2.1125503637	-0.3663026834	 0.126638
H	 2.8464838505	-0.832644328	-0.1339088975	 0.136106
H	-1.940074502	-0.3605729706	 0.8358612542	 0.112891
H	-3.1811701286	-0.4479219108	-1.3839243383	 0.127677
H	-1.6088176482	-0.1282454424	-2.2556116582	 0.111989
H	-0.7151792951	-2.035175031	-1.2352501528	 0.2184
91.9062	121.1885	141.21	187.626	220.3609	266.5147	306.4233	390.4945	460.5191	546.0864	555.8954	603.3781	689.5225	742.3358	822.9931	860.9053	921.6517	927.0194	942.4298	970.0645	1004.1299	1007.8104	1048.0061	1088.5954	1123.0615	1146.4117	1160.2751	1166.2066	1194.248	1236.5701	1251.59	1274.869	1298.0934	1357.9574	1395.6982	1405.0489	1477.2128	1482.5738	1490.9174	1515.893	1915.5514	3007.0165	3040.2157	3071.9301	3103.6045	3112.4072	3125.9971	3132.7973	3189.5469	3482.7744	3538.5766
CC1(NCC1=O)C1CN1	C[C@]1(NCC1=O)[C@H]1CN1	
InChI=1S/C6H10N2O/c1-6(4-2-7-4)5(9)3-8-6/h4,7-8H,2-3H2,1H3	InChI=1S/C6H10N2O/c1-6(4-2-7-4)5(9)3-8-6/h4,7-8H,2-3H2,1H3/t4-,6+/m1/s1
