19
gdb 92149	2.92784	1.49862	1.44848	0.9036	73.6	-0.2202	0.0695	0.2897	1011.1015	0.159888	-422.989026	-422.981324	-422.980379	-423.020713	31.211	
C	-0.129779357	 1.5595532103	 0.0544864494	-0.394425
C	 0.0299654234	 0.036112864	-0.0124709522	 0.011616
C	 0.841905882	-0.4566556229	-1.2561410096	-0.233252
C	 2.1766474115	-0.8889613	-0.6657052323	 0.017396
O	 2.7852491552	 0.2709497038	-0.0006995674	-0.304942
C	 2.3126821506	-0.2077572538	 1.259660043	-0.004744
C	 0.816771824	-0.5478325328	 1.1674234618	-0.129461
C	 1.8589419059	-1.5285944894	 0.717457674	 0.304481
O	 1.9306677372	-2.8446471981	 1.1092677318	-0.456479
H	 0.8488344757	 2.0458598292	 0.034968423	 0.135881
H	-0.7151738984	 1.9307353997	-0.7937320671	 0.106653
H	-0.6470387488	 1.8611223541	 0.9718268882	 0.106077
H	-0.9670240443	-0.4183308416	-0.0253576744	 0.073207
H	 0.3567512767	-1.3149889651	-1.7356603712	 0.100641
H	 0.9665730842	 0.325881889	-2.0105641912	 0.106015
H	 2.8850412487	-1.3817303023	-1.335957327	 0.074589
H	 2.8215319964	 0.1175980104	 2.1592594863	 0.106262
H	 0.3309942407	-0.7296683264	 2.1208052318	 0.090511
H	 2.8565423964	-3.1134945682	 1.1072935132	 0.289976
133.9791	202.0266	246.1984	269.9717	344.73	363.4944	406.6567	413.4165	532.719	614.1666	676.8308	713.4137	769.9327	828.2841	839.9506	901.3426	916.7623	940.1194	961.2717	982.6096	1002.1839	1014.9956	1031.8769	1081.359	1100.6288	1128.3604	1152.0493	1186.9909	1221.9391	1252.6105	1282.8615	1285.3409	1321.9278	1329.5305	1341.5933	1365.1818	1404.3893	1474.6306	1491.4086	1497.6653	1507.7298	3028.9689	3031.5024	3043.7703	3088.3665	3090.2313	3094.6599	3124.5828	3171.47	3188.434	3787.7404
CC1CC2OC3C1C23O	C[C@H]1C[C@H]2O[C@H]3[C@@H]1[C@@]23O	
InChI=1S/C7H10O2/c1-3-2-4-7(8)5(3)6(7)9-4/h3-6,8H,2H2,1H3	InChI=1S/C7H10O2/c1-3-2-4-7(8)5(3)6(7)9-4/h3-6,8H,2H2,1H3/t3-,4+,5+,6-,7-/m0/s1
