16
gdb 127021	5.18446	0.99968	0.84693	0.6993	75.16	-0.2352	-0.0689	0.1662	1334.9069	0.1251	-434.082248	-434.074305	-434.073361	-434.115414	28.619	
C	 0.0292916211	 1.4977503253	 0.0923701092	-0.393446
C	-0.0031867955	-0.014636961	-0.0116765709	-0.034408
O	 0.6822289023	-0.5325179231	 1.1467756839	-0.246288
C	 0.7829577355	-1.8506860827	 1.2774762301	 0.504096
N	 1.4343188918	-2.2502965041	 2.3812412515	-0.281347
C	 1.5318664946	-3.5602888327	 2.506534291	-0.002638
C	 0.9894446426	-4.4241927694	 1.5490646976	-0.001059
N	 0.3580350695	-3.95239035	 0.4817563665	-0.167294
N	 0.2479220576	-2.6362090114	 0.3351022323	-0.282819
H	 1.0588684423	 1.8655643619	 0.109173357	 0.133266
H	-0.4816901153	 1.9367583116	-0.7694531318	 0.124242
H	-0.4726301528	 1.8369686843	 1.0026475131	 0.133267
H	-1.0255399549	-0.4048039479	-0.0268256693	 0.127033
H	 0.4973333014	-0.3763989892	-0.9151568095	 0.127031
H	 2.0508018811	-3.9407661337	 3.3839599934	 0.131884
H	 1.0592401886	-5.5027890679	 1.6342216061	 0.128478
62.8668	117.1744	166.7894	189.6526	259.4349	344.5576	406.2026	481.7979	567.4266	632.1218	675.7149	811.1564	834.4463	845.4178	887.7916	953.6543	1005.8427	1031.7127	1060.2077	1092.9346	1126.1317	1151.8696	1180.7434	1202.459	1292.1907	1361.4552	1379.7354	1415.6481	1421.151	1481.0637	1485.1272	1496.8134	1523.298	1569.7831	1598.4816	3048.5276	3052.4729	3091.9131	3124.1468	3129.4911	3153.1045	3200.0053
CCOC1=NC=CN=N1	CCOc1nccnn1	
InChI=1S/C5H7N3O/c1-2-9-5-6-3-4-7-8-5/h3-4H,2H2,1H3	InChI=1S/C5H7N3O/c1-2-9-5-6-3-4-7-8-5/h3-4H,2H2,1H3
