16
gdb 17806	4.51185	1.67017	1.49682	2.3579	65.	-0.243	0.0276	0.2706	866.6455	0.132234	-379.869309	-379.862283	-379.861339	-379.900831	26.804	
N	 0.3305961882	 0.6070083638	 0.5846725796	-0.511474
C	-0.3373553302	 0.640102703	-0.6002109218	 0.327036
O	-0.0446257805	 1.3602597607	-1.5348684378	-0.364035
C	-1.5514818635	-0.2754352655	-0.6308558234	-0.023415
C	-1.7196347827	-1.3712896356	-1.706299117	-0.05733
C	-0.6045143821	-2.111976554	-0.9388755196	-0.176914
N	-1.4780126829	-1.5661389754	 0.2157110363	-0.17689
C	-2.6569257539	-2.0254147178	-0.6659042099	-0.172652
H	 1.1397788463	 1.1924220785	 0.7110098292	 0.260735
H	 0.0686713826	-0.0573512942	 1.2952098633	 0.274532
H	-2.4441682792	 0.3193922985	-0.4058335538	 0.101493
H	-1.8554145858	-1.2493181201	-2.7837795979	 0.083858
H	-0.5899006202	-3.2039413741	-0.9834318554	 0.103465
H	 0.4073879914	-1.7034358077	-0.9606301787	 0.119925
H	-3.5999102763	-1.5258563711	-0.4276948606	 0.105788
H	-2.7746110212	-3.111547949	-0.6934667626	 0.105878
61.1375	173.2767	209.9096	309.3017	398.4711	467.9397	567.9313	601.6927	639.7879	714.4972	770.0149	788.6607	864.861	904.4409	913.7908	928.003	1007.5905	1025.215	1079.496	1085.4821	1100.2252	1130.4511	1153.7984	1176.011	1201.402	1222.882	1247.0439	1282.8934	1334.05	1398.5425	1515.9248	1554.2982	1605.0247	1801.2999	3046.9347	3053.5249	3062.6483	3082.3881	3121.8683	3132.6038	3583.6926	3725.0601
NC(=O)C1C2CN1C2	NC(=O)[C@H]1[C@H]2CN1C2	
InChI=1S/C5H8N2O/c6-5(8)4-3-1-7(4)2-3/h3-4H,1-2H2,(H2,6,8)	InChI=1S/C5H8N2O/c6-5(8)4-3-1-7(4)2-3/h3-4H,1-2H2,(H2,6,8)/t4-/m1/s1
