17
gdb 69122	2.834	1.60638	1.25725	1.5349	69.48	-0.2481	-0.0382	0.2099	1003.4559	0.135672	-458.962223	-458.954445	-458.953501	-458.994103	30.374	
O	-0.191183488	 1.2916115829	-0.163568101	-0.463387
C	-0.0702516769	-0.0676913734	-0.0441572184	 0.38409
C	-0.3563924944	-1.006263114	-1.1487546312	-0.379787
C	-1.320777088	-1.0228422304	 0.0452346302	 0.123302
C	-0.983239312	-2.0118009566	 1.1406079579	-0.159055
O	 0.4251952789	-1.8893789894	 1.3524785141	-0.254521
C	 0.8232393666	-0.5523780151	 1.0820882126	-0.128073
C	-2.605257281	-0.3437852529	-0.0727480898	 0.065907
O	-2.8102806191	 0.5690152602	-0.8574881656	-0.313296
H	-0.9945392477	 1.4680725874	-0.6832103852	 0.307258
H	-0.7624811814	-0.5790207103	-2.0593913666	 0.139064
H	 0.2597998184	-1.8919677132	-1.2674337761	 0.136829
H	-1.5501405977	-1.7762351361	 2.0559883834	 0.100889
H	-1.1680767378	-3.0589931272	 0.8794759601	 0.116818
H	 1.8859398125	-0.5762946759	 0.822684994	 0.123528
H	 0.6826863951	 0.1137715838	 1.9468169391	 0.110623
H	-3.3962207476	-0.6576334	 0.6399109125	 0.089812
146.7326	206.2953	217.4038	237.6555	298.4764	360.9974	415.9535	450.4485	508.9374	542.8002	600.1293	664.1474	699.873	747.1088	865.3392	937.3732	950.4681	955.1053	1020.6562	1054.4963	1063.4375	1081.7312	1104.7473	1167.8326	1212.9782	1226.7376	1236.0715	1288.0497	1337.1759	1371.2421	1404.6986	1428.8315	1455.8325	1470.2862	1510.2849	1521.4108	1745.0482	2912.3277	2975.6623	2997.767	3067.2355	3084.9936	3128.3602	3227.6689	3652.2012
OC12CC1(COC2)C=O	O[C@]12C[C@]1(COC2)C=O	
InChI=1S/C6H8O3/c7-2-5-1-6(5,8)4-9-3-5/h2,8H,1,3-4H2	InChI=1S/C6H8O3/c7-2-5-1-6(5,8)4-9-3-5/h2,8H,1,3-4H2/t5-,6+/m1/s1
