17
gdb 60830	1.9901	1.34522	0.84766	0.701	76.4	-0.2545	-0.0476	0.2069	1312.7743	0.130635	-421.805953	-421.795595	-421.794651	-421.842541	35.403	
C	-0.1401650781	 1.5402201654	-0.0606063711	-0.423042
C	 0.0251819546	 0.0107086143	-0.0159847002	-0.075159
C	-1.3575375996	-0.618373874	 0.0908948401	 0.164739
O	-1.8239339529	-1.0686317454	 1.1017807417	-0.240858
C	 0.7545423942	-0.5332520239	-1.2872764513	-0.267099
C	 2.2064835167	-0.0394610126	-1.2717607726	 0.156645
O	 2.5850438338	 0.9387851842	-1.8564511163	-0.239061
C	 0.7288075135	-1.9898955571	-1.3468187365	 0.286335
C	 0.7455546922	-3.1914556594	-1.3701011788	-0.415322
H	 0.8187263955	 2.03936054	-0.2179222784	 0.151258
H	-0.8050210662	 1.8375829172	-0.8794106471	 0.128736
H	-0.5718874934	 1.8995627111	 0.8770174729	 0.138708
H	 0.5818124904	-0.2881037534	 0.8781336172	 0.110832
H	-1.9437422027	-0.5886996087	-0.8575444108	 0.080732
H	 0.2785749515	-0.101135429	-2.1757112536	 0.129181
H	 2.8857997705	-0.6541308289	-0.6428964469	 0.103365
H	 0.7416342999	-4.2534567698	-1.3999516382	 0.210008
45.0293	61.9712	71.8035	126.8639	172.3323	204.8222	229.3839	302.6044	313.4111	365.1945	459.0699	484.844	508.6133	587.7378	647.9748	663.6542	865.6836	911.956	945.4005	956.866	1010.0845	1059.0921	1101.2248	1119.0244	1158.3656	1221.0386	1287.9442	1302.2171	1342.319	1409.5156	1413.6007	1426.2847	1495.3955	1497.4874	1832.0918	1841.6673	2235.9763	2859.0895	2906.316	3040.2837	3043.0069	3068.5156	3112.0052	3133.1306	3501.0841
CC(C=O)C(C=O)C#C	C[C@@H](C=O)[C@@H](C=O)C#C	
InChI=1S/C7H8O2/c1-3-7(5-9)6(2)4-8/h1,4-7H,2H3	InChI=1S/C7H8O2/c1-3-7(5-9)6(2)4-8/h1,4-7H,2H3/t6-,7+/m0/s1
