14
gdb 23738	3.31435	2.21519	1.33872	1.2461	66.25	-0.2578	-0.0172	0.2406	854.7008	0.108266	-386.754998	-386.748303	-386.747358	-386.785961	24.918	
C	-0.02730726	 1.5252928485	 0.0248095748	-0.502363
C	-0.0063261782	 0.0225980763	 0.0021692063	 0.117461
C	-0.0387642409	-0.7226330782	-1.1782936244	-0.047815
N	-0.0218434786	-2.0557460205	-1.2480505371	-0.273603
C	 0.0302215899	-2.7236035375	-0.0939895263	 0.010229
C	 0.0669515445	-2.1070574751	 1.1538885884	-0.253802
C	 0.0476202154	-0.7233958696	 1.1766887618	 0.264554
F	 0.0811138415	-0.0800581244	 2.3465223542	-0.070893
H	 0.8658300977	 1.9297995775	 0.5126234973	 0.142325
H	-0.0727314563	 1.9260791081	-0.9906870044	 0.130632
H	-0.8910227857	 1.9042247062	 0.5812546389	 0.142311
H	-0.0814059206	-0.1939613957	-2.1290968542	 0.10952
H	 0.0435725426	-3.8084327192	-0.1619846459	 0.115624
H	 0.1089999086	-2.6734266364	 2.0761411207	 0.115821
113.6336	184.1743	266.8344	273.0015	432.6863	438.4137	532.4668	586.1497	607.4424	767.6063	779.0914	856.2782	861.0592	949.3858	987.0589	1013.7838	1063.7171	1067.6545	1203.5852	1213.7565	1300.5942	1303.0831	1332.2738	1417.9237	1438.6166	1481.488	1491.1245	1531.4925	1613.5974	1644.3006	3038.2548	3093.1172	3122.6634	3143.2752	3161.5779	3212.1242
CC1=CN=CC=C1F	Cc1cnccc1F	
InChI=1S/C6H6FN/c1-5-4-8-3-2-6(5)7/h2-4H,1H3	InChI=1S/C6H6FN/c1-5-4-8-3-2-6(5)7/h2-4H,1H3
