21
gdb 64448	2.18595	1.73347	1.25354	3.0367	79.92	-0.2292	0.0249	0.2542	1104.1394	0.183572	-420.418849	-420.409817	-420.408872	-420.452284	35.045	
C	 0.0953430672	 1.535087793	-0.0896292924	-0.402974
C	 0.0113190864	 0.0076339983	 0.0014470185	 0.174016
C	-1.4723450538	-0.4252778591	 0.1318700558	-0.415465
N	 0.6693735448	-0.5456522016	-1.1977337268	-0.326861
C	 0.878327488	-1.9846077656	-1.1535457132	-0.180997
C	 1.8176076705	-2.2555031718	 0.0043235194	-0.057058
O	 1.2963000374	-1.7352530619	 1.2351880293	-0.267493
C	 0.7392413218	-0.4882995703	 1.2564171781	 0.398986
N	 0.7044527829	 0.1853463836	 2.3273130011	-0.508911
H	 1.13487133	 1.8510583856	-0.2006904901	 0.121829
H	-0.4671400561	 1.884156236	-0.9634301301	 0.095245
H	-0.3187917875	 1.9978378881	 0.806151691	 0.144033
H	-2.0294164829	-0.1052730544	-0.7560845583	 0.104448
H	-1.576746811	-1.5093534937	 0.2311311704	 0.119242
H	-1.9266668308	 0.0362232803	 1.0118919273	 0.139773
H	 0.1323640932	-0.2813560511	-2.016880187	 0.217288
H	-0.0432176286	-2.5793485699	-1.0291746183	 0.092292
H	 1.3542332798	-2.3068490539	-2.0859133125	 0.107635
H	 1.9588306675	-3.3254548598	 0.1756072332	 0.112799
H	 2.7922200155	-1.7915100133	-0.191858051	 0.114804
H	 1.1852301858	-0.3235719584	 3.0719459056	 0.217372
57.2527	156.0037	204.8405	242.0755	257.7521	308.7705	320.7406	354.7903	411.3724	449.702	474.0871	528.5902	615.6454	671.2743	709.8469	770.9593	883.5933	894.7438	914.1247	937.358	942.7475	991.6913	1018.0601	1027.6648	1118.1899	1128.2442	1151.3201	1177.5964	1207.9936	1237.202	1265.083	1278.6984	1336.0827	1389.4143	1391.0242	1410.6286	1431.1304	1474.0978	1477.4106	1484.1882	1495.6334	1499.0062	1502.6825	1521.2455	1740.9928	2951.8011	3030.3793	3032.4741	3039.1299	3069.1026	3104.843	3105.8759	3115.1791	3125.9077	3157.1663	3463.6682	3521.6049
CC1(C)NCCOC1=N	CC1(C)NCCO[C]1[NH]	
InChI=1S/C6H12N2O/c1-6(2)5(7)9-4-3-8-6/h7-8H,3-4H2,1-2H3	InChI=1S/C6H12N2O/c1-6(2)5(7)9-4-3-8-6/h7-8H,3-4H2,1-2H3
