18
gdb 101424	3.14953	1.05412	0.94737	2.3938	68.79	-0.261	0.0114	0.2723	1271.307	0.147514	-476.210106	-476.201141	-476.200197	-476.244401	32.856	
O	 0.1634107781	 1.404990277	 0.0351201353	-0.424733
C	 0.1124712398	-0.0018153389	 0.1357086669	-0.080204
C	-1.3307174959	-0.49782221	 0.0002136453	 0.069769
O	-1.8970032569	-0.0002185904	-1.2124999541	-0.445853
C	-1.4465563112	-2.0196942255	 0.0893458405	-0.153263
C	-2.8461897114	-2.6670980421	-0.0100312901	-0.109783
O	-2.4198680419	-3.412024925	-1.1992445533	-0.244398
C	-1.2015383378	-2.7815251846	-1.2018790907	 0.418496
N	-0.2707367815	-2.7903823295	-2.0459178397	-0.547169
H	-0.4164827555	 1.6343202428	-0.7023087078	 0.285728
H	 0.734098321	-0.4942998685	-0.6306168088	 0.114862
H	 0.5160722095	-0.274084621	 1.1175641434	 0.10451
H	-1.9297709004	-0.0408092947	 0.7967487602	 0.103132
H	-1.4147991033	-0.4182163469	-1.9402242754	 0.295395
H	-0.8534971981	-2.4041951787	 0.9238038796	 0.115852
H	-3.1413655222	-3.3448629047	 0.7927275797	 0.124924
H	-3.6539815626	-1.9778030785	-0.2645750835	 0.1387
H	-0.4838227894	-3.4018231011	-2.8362177277	 0.234036
60.0899	104.1495	120.2111	177.7199	205.0255	283.8023	358.3556	429.374	446.0736	492.2786	510.3227	570.7515	725.6879	760.7433	810.1038	874.2879	889.2259	940.4871	971.4703	1007.9908	1028.6506	1045.3551	1088.9688	1112.7658	1139.3778	1165.4919	1195.3124	1212.6543	1242.4367	1286.5257	1308.3779	1338.0547	1378.1372	1392.4682	1433.8757	1440.4223	1506.4111	1511.586	1808.7535	2975.9308	3048.3827	3066.715	3073.6295	3082.3873	3139.7417	3474.2706	3742.3937	3773.9223
OCC(O)C1COC1=N	OC[C@@H](O)[C@H]1CO[C]1[NH]	
InChI=1S/C5H9NO3/c6-5-3(2-9-5)4(8)1-7/h3-4,6-8H,1-2H2	InChI=1S/C5H9NO3/c6-5-3(2-9-5)4(8)1-7/h3-4,6-8H,1-2H2/t3-,4-/m1/s1
