19
gdb 76801	2.21915	1.66847	1.19256	2.0563	70.98	-0.2482	0.0459	0.2942	1085.5301	0.158778	-460.127823	-460.119101	-460.118157	-460.161554	33.902	
O	-0.5072100608	 1.4569175364	 0.4748480916	-0.443524
C	-0.0515599568	 0.2208638649	-0.0241458755	 0.064457
C	 0.4731237427	-0.7148781845	 1.1233393114	-0.002447
O	 0.5922456613	-0.0387461231	 2.3686131451	-0.439182
C	-0.7612630838	-1.5994403934	 0.9293703508	 0.289687
C	-0.9041731796	-3.078306553	 1.1228059883	-0.330428
C	-1.6574051861	-2.1276528459	 2.0181563693	-0.33592
C	-1.2475070935	-0.7627209298	-0.2750196316	 0.036949
O	-2.5130982795	-0.1731303996	-0.1856356447	-0.434252
H	-0.1456176193	 1.5127454502	 1.3750746558	 0.291094
H	 0.6288554968	 0.3740004894	-0.8678651702	 0.07518
H	 1.4348084056	-1.1910326769	 0.9125040807	 0.08637
H	-0.2097150846	-0.2234383997	 2.8709092195	 0.291187
H	-1.4627267316	-3.6294375189	 0.3725950567	 0.122218
H	-0.0691686647	-3.6225953387	 1.5530219853	 0.116773
H	-1.3336536931	-2.0565196697	 3.0538081595	 0.110067
H	-2.7229103237	-1.993609878	 1.8671714802	 0.139996
H	-1.1825300258	-1.3046479651	-1.2248086232	 0.076305
H	-2.3562428135	 0.6870386754	 0.235462061	 0.28547
29.6559	201.6201	220.6278	231.0621	248.2578	292.1415	312.5975	426.8456	483.6879	497.555	521.2102	622.4116	662.9167	684.2722	787.9038	832.7942	835.9757	849.4933	893.3973	946.6512	980.4772	1022.3696	1050.6315	1079.2831	1084.6691	1123.1155	1149.4935	1168.6439	1191.4913	1226.283	1249.9005	1258.864	1305.4755	1327.579	1341.0128	1369.1928	1400.9743	1411.5988	1445.6511	1461.3873	1496.3479	3041.3984	3053.3866	3071.3108	3115.2919	3122.496	3201.6875	3215.5269	3661.9546	3690.1163	3796.5878
OC1C(O)C2(CC2)C1O	O[C@H]1[C@@H](O)C2(CC2)[C@H]1O	
InChI=1S/C6H10O3/c7-3-4(8)6(1-2-6)5(3)9/h3-5,7-9H,1-2H2	InChI=1S/C6H10O3/c7-3-4(8)6(1-2-6)5(3)9/h3-5,7-9H,1-2H2/t3-,4+,5-
