18
gdb 98630	4.12511	1.0281	0.9416	2.4001	74.2	-0.2488	-0.0394	0.2094	1272.086	0.147292	-439.043812	-439.035474	-439.03453	-439.077388	31.227	
O	 0.1768327968	 1.4229470316	-0.5232636696	-0.421623
C	-0.0321713704	 0.0496042484	-0.6222417527	-0.131797
C	-1.1034988326	-0.4212697064	 0.3562638931	 0.355554
O	-1.6674792961	 0.409895539	 1.046321944	-0.354864
C	-1.3607877708	-1.8849660076	 0.3745715529	-0.104
C	-1.6437142794	-2.6948258493	 1.5985481135	-0.038951
C	-2.4804264254	-1.962155912	 2.6443885682	-0.247177
C	-3.5239102145	-1.7683375488	 1.5164356945	-0.148222
N	-2.6864215994	-2.5550835067	 0.5288567352	-0.151724
H	-0.4709343218	 1.7271738861	 0.1337684637	 0.294056
H	-0.3539257129	-0.2431977767	-1.637410597	 0.121887
H	 0.89476333	-0.5140870109	-0.4215310853	 0.11836
H	-0.780013823	-2.4189946765	-0.3744134961	 0.105102
H	-1.1010278944	-3.6232684784	 1.7529619574	 0.105415
H	-2.8233717872	-2.6280418089	 3.438140963	 0.114085
H	-2.0441161647	-1.0639780635	 3.0821329723	 0.130764
H	-4.4527200844	-2.3186806779	 1.6759792506	 0.116514
H	-3.7442033098	-0.7470508917	 1.2100146423	 0.136619
43.7273	122.2167	167.9345	216.1751	289.8572	334.9625	375.6732	424.2392	438.9636	570.5134	729.6537	744.524	763.3578	784.3056	792.6207	890.4904	932.7749	954.1328	1008.6422	1025.2174	1039.2647	1059.545	1072.6097	1132.4403	1155.5315	1182.4213	1218.5935	1238.3578	1243.2746	1268.6102	1290.9524	1306.8622	1358.0771	1425.0631	1454.0854	1476.3929	1490.7899	1498.088	1768.5935	2959.1527	2978.9656	3082.5348	3088.5486	3134.6851	3137.3309	3153.2499	3157.8173	3671.8156
OCC(=O)C1C2CCN12	OCC(=O)[C@H]1[C@H]2CCN12	
InChI=1S/C6H9NO2/c8-3-5(9)6-4-1-2-7(4)6/h4,6,8H,1-3H2	InChI=1S/C6H9NO2/c8-3-5(9)6-4-1-2-7(4)6/h4,6,8H,1-3H2/t4-,6-,7?/m1/s1
