16
gdb 51985	2.25943	1.21028	0.83262	3.6067	70.47	-0.2523	-0.0218	0.2306	1328.8978	0.124934	-471.265476	-471.256333	-471.255389	-471.300277	31.695	
N	-0.3202104302	 0.2185426023	-1.7402339242	-0.452377
C	-0.7490234318	 0.3870376907	-0.5569570005	 0.09487
N	-1.9718031773	-0.1437175376	-0.1714641203	-0.303676
C	-2.4906112301	 0.0128755329	 1.0930506966	 0.399095
O	-1.9270131045	 0.6040402745	 1.9909967524	-0.350563
C	-3.8643627715	-0.6489875155	 1.2886091925	-0.283597
N	-4.922680344	-0.0719468323	 0.4694799898	-0.262338
C	-5.1212548978	-0.4377836296	-0.8187622069	 0.162216
O	-4.4119152724	-1.2211816087	-1.425360401	-0.330433
H	 0.5868838561	 0.6686666771	-1.8507515948	 0.231181
H	-0.2590077777	 0.925039593	 0.2571918983	 0.134862
H	-2.514036788	-0.6563780743	-0.8644705827	 0.292511
H	-3.7912912222	-1.7137824131	 1.0440302216	 0.15562
H	-4.124872434	-0.5364996903	 2.3406366573	 0.143399
H	-5.5182869134	 0.6330767867	 0.8729850935	 0.26593
H	-6.0051873913	 0.0471193739	-1.2705050617	 0.1033
63.1501	101.2767	111.429	170.3033	198.4378	221.9804	268.7629	326.7133	418.252	503.5793	517.7048	596.8518	713.8772	790.4195	823.6359	840.7433	959.7385	988.5123	1002.5878	1031.1389	1093.117	1104.4345	1201.5156	1248.2374	1297.0468	1302.5663	1369.0371	1397.9066	1420.2874	1455.468	1526.1679	1530.0221	1728.871	1776.0113	1802.2401	2979.3743	3062.2967	3117.8811	3148.3393	3483.1113	3502.0598	3644.5629
N=CNC(=O)CNC=O	N=CNC(=O)CNC=O	
InChI=1S/C4H7N3O2/c5-2-7-4(9)1-6-3-8/h2-3H,1H2,(H,6,8)(H2,5,7,9)	InChI=1S/C4H7N3O2/c5-2-7-4(9)1-6-3-8/h2-3H,1H2,(H,6,8)(H2,5,7,9)
