21
gdb 107482	2.11038	1.67688	1.2288	2.4526	82.58	-0.2248	0.0639	0.2887	1133.0643	0.182996	-383.197906	-383.18913	-383.188186	-383.231175	34.015	
C	 0.1851928531	 1.5722834239	-0.1141143424	-0.380645
C	 0.001945793	 0.0503456533	-0.0105266748	-0.319004
C	-1.4350501413	-0.38939312	 0.0251493112	 0.254042
N	-1.9107407552	-1.6553911332	-0.6060444629	-0.380162
C	-2.5137247608	-0.3561087948	-1.0067164925	-0.109102
C	-3.5891937668	-0.0359008193	 0.0405475117	-0.296325
C	-2.4783785455	-0.123275049	 1.1116663566	 0.349822
C	-2.5076762651	-0.6437592989	 2.489973135	-0.298918
N	-2.3840104511	 0.8118841341	 2.2278607793	-0.38076
H	 1.2468583423	 1.8371661213	-0.1179367001	 0.116155
H	-0.2632840258	 1.9536622012	-1.0365562695	 0.123115
H	-0.2875830714	 2.1009249863	 0.7187004746	 0.126454
H	 0.4952111406	-0.4278309745	-0.8662271285	 0.100772
H	 0.5211955455	-0.3307430568	 0.8799562275	 0.105674
H	-1.2274338953	-1.8957830305	-1.3258812378	 0.219612
H	-2.4743562642	-0.0245034683	-2.0374250451	 0.091815
H	-3.9779810225	 0.9822191683	-0.0397604534	 0.112563
H	-4.4116565055	-0.7518867048	 0.1132046414	 0.107053
H	-3.4500837589	-0.9446401761	 2.939206493	 0.119204
H	-1.6382545305	-1.1858495657	 2.8540289602	 0.10958
H	-1.4190328946	 1.1002412137	 2.3717151764	 0.229052
92.4318	128.3318	156.7408	187.4125	239.0022	278.2396	389.3546	396.5398	450.8496	506.9442	602.0375	623.5881	743.7133	797.8561	832.1075	874.6812	884.4896	902.0836	925.4809	959.4634	967.6879	979.2769	1025.1472	1036.77	1052.8069	1090.8345	1104.0953	1117.4751	1133.2544	1176.6009	1218.3975	1234.6534	1260.0667	1267.1241	1320.8922	1340.5743	1353.986	1411.9445	1418.448	1438.5041	1475.3182	1480.6834	1496.5279	1507.3861	1516.509	3010.4236	3042.6588	3044.8469	3061.5085	3104.6021	3111.305	3115.4601	3121.8542	3184.7751	3189.4678	3450.0609	3492.4966
CCC12NC1CC21CN1	CC[C@]12N[C@H]1C[C@]12CN1	
InChI=1S/C7H12N2/c1-2-7-5(9-7)3-6(7)4-8-6/h5,8-9H,2-4H2,1H3	InChI=1S/C7H12N2/c1-2-7-5(9-7)3-6(7)4-8-6/h5,8-9H,2-4H2,1H3/t5-,6+,7-/m0/s1
