29
gdb 121910	3.22492	0.61716	0.54692	0.061	100.54	-0.2916	0.0839	0.3755	2211.6773	0.272935	-354.778797	-354.766376	-354.765431	-354.817441	45.242	
C	 0.1301294494	 1.5833320446	 0.1141227859	-0.379971
C	 0.0512715511	 0.0663378468	-0.0777394139	-0.161701
C	-1.3776809362	-0.4811374415	 0.0179419418	-0.167714
C	-1.4524859651	-2.0034652472	-0.1578899678	-0.187798
C	-2.87081946	-2.6049427112	-0.0422925486	 0.050233
C	-3.7028435821	-2.2374710964	-1.282541688	-0.408578
C	-2.823163886	-4.1386606366	 0.205021728	 0.045904
C	-2.2433472594	-4.4819356865	 1.5875717301	-0.393699
C	-4.1974941296	-4.813669072	 0.0645236457	-0.399246
H	 1.1611669145	 1.9438652312	 0.0421173498	 0.109448
H	-0.4599915993	 2.1097839725	-0.6445230308	 0.112346
H	-0.2579695618	 1.8786045652	 1.0954666792	 0.112308
H	 0.476916801	-0.2023574509	-1.0537814433	 0.093044
H	 0.6804274767	-0.4312074926	 0.6724381466	 0.092583
H	-1.8026684605	-0.2103077121	 0.9948968247	 0.089842
H	-2.0000605977	 0.0237648904	-0.7318102857	 0.094134
H	-1.0333038152	-2.2784603943	-1.1368599019	 0.086991
H	-0.7911536528	-2.458393548	 0.5875373568	 0.090069
H	-3.3588130903	-2.1532557767	 0.835948339	 0.061016
H	-3.3259197104	-2.7569911777	-2.172396753	 0.109239
H	-4.7571952493	-2.4986459517	-1.1646671564	 0.113827
H	-3.6577006363	-1.1639411197	-1.4859248626	 0.111171
H	-2.1601973223	-4.571751947	-0.5596691906	 0.06591
H	-2.8861409788	-4.0867457372	 2.3838569451	 0.109986
H	-2.183513181	-5.5669410215	 1.7225897654	 0.108306
H	-1.2391222889	-4.0795499561	 1.7422362893	 0.113606
H	-4.9282461435	-4.3639301649	 0.7483229689	 0.109067
H	-4.5984158392	-4.7403467542	-0.9491550803	 0.113501
H	-4.1275223272	-5.8775800946	 0.3142671565	 0.106177
38.4093	53.176	72.0175	120.7684	127.3296	201.4173	213.4468	238.2636	244.3316	271.7806	297.5429	339.4132	372.0005	403.724	449.6479	457.9345	514.7062	732.4115	779.4283	795.2843	878.8746	904.3425	914.6993	924.6522	945.7082	962.6201	986.7341	1022.6383	1026.522	1064.7331	1078.7327	1102.8236	1166.7801	1174.3353	1194.5488	1197.9312	1246.9801	1271.4901	1310.6982	1316.7744	1331.7829	1343.9985	1355.3803	1371.3104	1383.5364	1394.5875	1402.1583	1410.42	1412.9112	1421.9826	1478.6828	1485.2639	1487.3068	1490.4871	1496.8576	1499.629	1500.1121	1505.9024	1508.2608	1514.3826	1521.8295	2974.5767	2989.91	3002.4981	3007.8862	3017.0735	3024.6849	3027.8546	3029.0473	3030.1392	3033.2139	3049.8306	3070.3635	3085.6915	3092.7584	3094.0978	3098.5548	3099.5402	3110.5657	3114.2621	3119.7655
CCCCC(C)C(C)C	CCCC[C@@H](C)C(C)C	
InChI=1S/C9H20/c1-5-6-7-9(4)8(2)3/h8-9H,5-7H2,1-4H3	InChI=1S/C9H20/c1-5-6-7-9(4)8(2)3/h8-9H,5-7H2,1-4H3/t9-/m1/s1
