17
gdb 14925	4.43702	1.4537	1.1718	4.1744	69.17	-0.2171	0.0245	0.2416	1002.2105	0.145777	-360.044706	-360.037451	-360.036507	-360.076168	27.732	
N	 0.004315452	-1.1641064393	 0.0136594912	-0.316179
C	 0.0177444461	-0.0090250762	-0.0161777901	 0.26924
C	 0.0046083993	 1.456661348	 0.0108392734	-0.115329
C	-0.7648206176	 1.9797803114	 1.2581904931	-0.169129
N	-0.7209511043	 3.4318997264	 1.3670104178	-0.282808
C	 0.6446830961	 3.9575811078	 1.2738911546	-0.161269
C	 1.4033503712	 3.43896036	 0.0430595296	-0.162792
N	 1.3759418364	 1.9757544073	-0.0797872593	-0.291603
H	-0.5307138875	 1.8015112803	-0.886129992	 0.122349
H	-1.8071666033	 1.6470199562	 1.2306371574	 0.120294
H	-0.3039178913	 1.5457465017	 2.1550798819	 0.117641
H	-1.2984167154	 3.8487289876	 0.6422277567	 0.21823
H	 0.6001421399	 5.0520907589	 1.272842643	 0.105917
H	 1.1819260274	 3.6569401803	 2.1845669926	 0.105151
H	 0.9530052736	 3.8584016361	-0.8678496724	 0.103552
H	 2.4504789274	 3.7594503761	 0.060301402	 0.109918
H	 1.93638171	 1.5583508674	 0.6589966105	 0.226816
111.066	155.1529	242.876	274.2341	373.934	415.1661	454.7864	537.3163	552.9533	567.766	750.429	784.4214	829.7533	873.2874	934.3786	961.9715	990.9987	1030.9786	1055.1874	1123.6972	1149.7847	1173.8765	1191.8601	1274.8934	1298.7676	1340.3957	1349.8125	1365.3113	1385.0383	1392.4541	1466.5392	1474.4406	1480.4088	1482.4991	1498.7167	2358.8356	3002.322	3007.5753	3013.4564	3027.2425	3071.6356	3076.3312	3086.7026	3496.8521	3502.7108
N#CC1CNCCN1	N#C[C@H]1CNCCN1	
InChI=1S/C5H9N3/c6-3-5-4-7-1-2-8-5/h5,7-8H,1-2,4H2	InChI=1S/C5H9N3/c6-3-5-4-7-1-2-8-5/h5,7-8H,1-2,4H2/t5-/m0/s1
