19
gdb 38843	2.65797	1.96066	1.6936	1.7572	72.1	-0.2346	0.0728	0.3075	899.8984	0.163025	-423.020222	-423.013622	-423.012677	-423.050975	27.881	
C	 0.044663628	 1.5381601874	-0.2750204427	-0.328449
C	 1.304590278	 0.7562632596	-0.0207605398	 0.125586
O	 2.009858315	 0.8944076815	 1.1825546927	-0.279795
C	 1.4763804479	 0.2040953121	 2.3182799732	 0.197884
C	 0.366884546	 1.0217470008	 3.0196941715	-0.252613
C	-0.9300592979	 0.4397987933	 2.3975737726	-0.236489
C	-0.38100925	-0.5511200502	 1.3510759463	 0.063454
O	 0.8559203375	-0.9968318018	 1.9534674014	-0.240958
C	-0.0227919302	 0.0433659396	-0.0097226933	-0.079355
H	-0.2891326028	 2.2249688038	 0.4936822786	 0.117965
H	-0.1502034921	 1.8720292028	-1.288531508	 0.112443
H	 1.9873902489	 0.5874999207	-0.8470892077	 0.098076
H	 2.3388237285	-0.0220336821	 2.9477520044	 0.089563
H	 0.4013437225	 0.8476340461	 4.097830101	 0.108421
H	 0.5030844424	 2.0903665072	 2.844617698	 0.114315
H	-1.5055335457	-0.1073671678	 3.1476378719	 0.107645
H	-1.5861014333	 1.1936573098	 1.9603161063	 0.109929
H	-1.0104637886	-1.4334883645	 1.229486683	 0.080494
H	-0.2457487341	-0.5927210881	-0.8596123193	 0.091884
119.3542	255.1655	320.5186	415.9772	467.1258	483.1571	518.4662	659.6232	719.8578	761.6391	785.1188	815.0797	829.0177	856.7925	890.3387	922.6054	935.7716	972.4977	988.9782	1006.4068	1020.2872	1055.2726	1072.5629	1095.3819	1121.8371	1126.0582	1163.5164	1189.718	1230.8449	1248.2305	1261.0656	1289.3122	1320.5488	1351.8963	1359.3516	1372.0134	1388.4389	1411.6968	1479.6454	1484.5014	1508.2518	3068.8796	3078.2409	3100.6367	3105.8395	3116.9765	3132.493	3138.2022	3153.5509	3163.8385	3226.94
C1C2OC3CCC(O3)C12	C1[C@H]2O[C@H]3CC[C@H](O3)[C@@H]12	
InChI=1S/C7H10O2/c1-2-7-8-5(1)4-3-6(4)9-7/h4-7H,1-3H2	InChI=1S/C7H10O2/c1-2-7-8-5(1)4-3-6(4)9-7/h4-7H,1-3H2/t4-,5+,6-,7+/m1/s1
