14
gdb 56484	2.89795	1.10082	0.8301	4.117	66.34	-0.2779	-0.0482	0.2297	1297.7546	0.099959	-470.030065	-470.021024	-470.02008	-470.064929	31.171	
O	 0.099182981	 1.44119901	-0.2702255969	-0.406135
C	 0.0457041005	 0.0691581641	-0.0601700131	-0.087047
C	 0.619738216	-0.6899130995	-1.1868688706	 0.251514
N	 1.0541626868	-1.3494973307	-2.0308418977	-0.314138
C	 0.7868608765	-0.2715519271	 1.2751045312	 0.424129
O	 1.1041717778	 0.6452635929	 1.9934596229	-0.324816
N	 0.9707729846	-1.6083894838	 1.5092514214	-0.33441
C	 1.535625833	-2.2242658961	 2.6356492898	 0.085167
N	 1.8620502289	-1.5974969525	 3.6821214837	-0.385256
H	 0.5267706592	 1.7937542884	 0.5329179056	 0.310595
H	-0.9969611499	-0.2733331078	 0.0578339113	 0.147218
H	 0.7469834329	-2.225949277	 0.741905693	 0.276035
H	 1.6358831752	-3.3025189807	 2.4662995445	 0.115066
H	 2.2493046373	-2.2429248703	 4.3687316048	 0.242077
54.2464	68.9968	122.4022	171.4834	193.4464	259.2003	323.1965	384.2014	467.8048	480.5811	540.3823	588.4473	616.0588	634.8304	826.4372	843.3609	923.5962	974.2675	1024.6148	1068.2814	1153.6194	1212.5566	1236.0503	1262.8183	1354.8457	1430.2466	1435.5599	1560.1518	1740.8545	1830.0241	2351.3062	2963.3309	3054.8031	3504.9925	3607.6826	3612.1672
OC(C#N)C(=O)NC=N	O[C@@H](C#N)C(=O)NC=N	
InChI=1S/C4H5N3O2/c5-1-3(8)4(9)7-2-6/h2-3,8H,(H2,6,7,9)	InChI=1S/C4H5N3O2/c5-1-3(8)4(9)7-2-6/h2-3,8H,(H2,6,7,9)/t3-/m0/s1
