16
gdb 79227	2.733	1.63174	1.297	2.4807	75.13	-0.2367	0.0248	0.2615	993.4805	0.123865	-400.641997	-400.634442	-400.633498	-400.673713	30.05	
O	-0.1212168244	 1.4699168862	-0.1003435984	-0.431736
C	-0.0217047278	 0.073516817	-0.0861221065	 0.101258
C	-1.3231562893	-0.7022263777	-0.0874066187	-0.081978
C	-0.7439937756	-1.7641966004	-0.9482114198	-0.10805
N	-1.8130384469	-0.8946491299	-1.4934658973	-0.151078
C	-0.8065053837	-0.1887140688	-2.3504991157	-0.181203
C	 0.3226357848	-0.6892490973	-1.4216415535	 0.163255
C	 1.678600581	-0.8754894845	-1.8369489818	 0.001848
C	 2.8225457507	-1.0216180992	-2.1823339608	-0.330697
H	 0.7656016938	 1.8407179228	-0.0404464474	 0.291943
H	 0.6318742516	-0.2891793853	 0.7174135469	 0.088184
H	-2.0610097103	-0.7782790417	 0.6993451985	 0.108168
H	-0.7601067144	-2.8443180537	-0.9104002895	 0.109646
H	-0.7878040872	-0.6657333388	-3.3319570159	 0.117887
H	-0.9368329282	 0.8931987018	-2.4367222061	 0.119097
H	 3.8290744857	-1.1556190006	-2.4931048742	 0.183457
125.2544	157.8129	238.3876	301.9033	315.7893	430.2187	486.1319	521.626	576.2416	613.6855	623.4511	649.9169	719.6331	774.304	812.4157	864.0278	892.5539	936.6703	975.0163	997.8159	1012.2319	1044.9761	1097.6153	1123.4342	1151.9973	1169.1973	1189.5425	1225.6485	1249.2139	1283.7032	1324.0628	1341.9653	1436.1434	1497.288	2229.2825	3029.8735	3066.4173	3134.0135	3211.1964	3224.5218	3500.7079	3814.4668
OC1C2C3N2CC13C#C	O[C@H]1[C@@H]2[C@H]3N2C[C@@]13C#C	
InChI=1S/C7H7NO/c1-2-7-3-8-4(5(7)8)6(7)9/h1,4-6,9H,3H2	InChI=1S/C7H7NO/c1-2-7-3-8-4(5(7)8)6(7)9/h1,4-6,9H,3H2/t4-,5+,6-,7+,8?/m0/s1
