21
gdb 57103	2.91039	1.08382	0.83048	4.7554	82.19	-0.2584	0.025	0.2834	1396.667	0.184687	-383.295072	-383.285676	-383.284731	-383.330525	34.479	
N	-0.1451459687	 1.5335821863	-0.015067593	-0.508865
C	-0.0353113396	 0.0702257587	-0.021952153	-0.157554
C	-1.3831499966	-0.4985136208	 0.1552996888	 0.306034
N	-2.4368833855	-0.9614213586	 0.2568256053	-0.330433
C	 0.6495050527	-0.5613729048	-1.2550112074	 0.049562
C	 2.1028522828	-0.065105579	-1.459412374	-0.235547
C	 2.8620179557	-1.2342778323	-2.1537291702	-0.209245
C	 1.8333879159	-2.3824423887	-2.2936747482	-0.207365
C	 0.7870483161	-2.093814992	-1.2080059934	-0.219344
H	 0.7857750049	 1.934824047	-0.0728935299	 0.239391
H	-0.6520503121	 1.8446882221	-0.8394485156	 0.237809
H	 0.5463387024	-0.210990296	 0.8672644094	 0.127533
H	 0.0505763308	-0.2950752883	-2.1367668998	 0.079683
H	 2.1417739134	 0.8592918679	-2.0415247899	 0.10152
H	 2.5602615302	 0.1567258825	-0.4868842237	 0.096611
H	 3.2741949896	-0.9378606546	-3.1217156151	 0.10304
H	 3.7091368201	-1.5507241686	-1.5380197714	 0.105157
H	 1.3548493333	-2.3431157088	-3.2791420231	 0.102907
H	 2.2878725581	-3.3721196885	-2.1982448336	 0.099906
H	 1.1685889935	-2.3992296841	-0.2236245992	 0.097978
H	-0.161733227	-2.6124505293	-1.364953083	 0.121222
25.0646	81.7999	124.3485	162.8823	216.1737	252.4371	290.6273	384.2702	395.1476	471.8507	583.2871	599.9896	648.8263	776.6183	823.7971	857.2153	873.9942	894.5059	906.5023	950.1698	973.4663	1004.2737	1037.5568	1073.2677	1096.0553	1128.6791	1161.7058	1205.5563	1215.9332	1222.2453	1269.6416	1288.5294	1301.4569	1322.2528	1343.8224	1345.5991	1350.0814	1378.9767	1404.8815	1488.3775	1492.6879	1496.9217	1517.9496	1655.1517	2360.7287	3004.2839	3014.6014	3020.7525	3029.073	3039.502	3056.9127	3078.7993	3091.7621	3101.9655	3107.1526	3490.6151	3577.3889
NC(C#N)C1CCCC1	N[C@@H](C#N)C1CCCC1	
InChI=1S/C7H12N2/c8-5-7(9)6-3-1-2-4-6/h6-7H,1-4,9H2	InChI=1S/C7H12N2/c8-5-7(9)6-3-1-2-4-6/h6-7H,1-4,9H2/t7-/m0/s1
