16
gdb 83035	2.87061	1.36626	1.16332	6.6545	75.33	-0.2018	-0.0244	0.1773	1076.8458	0.124539	-437.881898	-437.873816	-437.872872	-437.91454	30.248	
O	 0.0128007797	 1.4148340925	-0.0461250292	-0.411705
C	-0.002886702	 0.0251516577	-0.0085930546	 0.087071
C	-0.4522964947	-0.7212781083	 1.2334785983	-0.093113
N	-1.2124796078	 0.0141501253	 2.208692237	-0.262217
C	-2.3512587974	 0.5208980977	 1.6598875062	-0.089296
C	-2.5329593737	 0.0993501087	 0.3780718246	 0.203487
C	-3.7153159607	 0.2978194774	-0.4171370924	 0.054621
O	-3.8909573578	-0.149370083	-1.5366305316	-0.313382
C	-1.3325663816	-0.683092753	-0.0377966907	-0.21327
H	 0.7801250337	 1.7204303205	 0.4492672546	 0.285525
H	 0.7866688507	-0.4710873062	-0.5724008911	 0.096048
H	 0.0858091833	-1.5902551262	 1.5973002733	 0.103335
H	-0.812853462	 0.3541990188	 3.066167622	 0.256076
H	-2.9972792455	 1.1608304825	 2.2473605136	 0.137941
H	-4.5023415242	 0.9091009311	 0.0838795548	 0.042918
H	-1.45828004	-1.5267803153	-0.7049938248	 0.115962
94.5629	175.7718	189.2466	223.8297	231.0777	304.042	347.3024	486.9743	506.5638	593.2789	676.4466	695.4819	736.5499	795.0722	823.8407	886.8375	908.9863	1005.1454	1021.5555	1029.2638	1049.836	1077.8949	1104.5089	1156.5467	1231.1284	1254.4006	1289.3757	1293.7115	1358.7205	1396.2661	1427.6335	1432.0315	1470.8982	1635.5062	1759.1599	2847.6259	3104.2401	3159.9306	3191.8997	3223.5552	3667.0237	3802.4905
OC1C2NC=C(C=O)C12	O[C@H]1[C@H]2NC=C(C=O)[C@@H]12	
InChI=1S/C6H7NO2/c8-2-3-1-7-5-4(3)6(5)9/h1-2,4-7,9H	InChI=1S/C6H7NO2/c8-2-3-1-7-5-4(3)6(5)9/h1-2,4-7,9H/t4-,5+,6-/m1/s1
