20
gdb 93363	2.75087	1.54833	1.17784	3.2502	80.22	-0.2518	0.021	0.2727	1103.7487	0.173087	-403.156886	-403.148758	-403.147814	-403.189745	31.896	
C	-0.1683754829	 1.6096709355	-0.0279864531	-0.396726
C	 0.0430309886	 0.089504243	 0.0002509425	-0.009165
C	 0.7680436803	-0.4117602236	-1.2514977911	-0.095639
O	 2.1836488939	-0.166842375	-1.2040937446	-0.258705
C	 2.8641097804	-0.8615227662	-0.2328605451	 0.373825
N	 4.0171998121	-1.3432674239	-0.435335332	-0.521873
C	 2.1986235895	-0.9484807826	 1.0909575465	-0.079364
C	 1.9380557151	 0.3530965423	 1.8291547007	-0.282476
C	 0.7855829937	-0.4124527464	 1.246809485	-0.06088
H	 0.7767929461	 2.1403132307	-0.1751408946	 0.130162
H	-0.8358407169	 1.8894859863	-0.8498851361	 0.112453
H	-0.613325433	 1.9644270415	 0.9062421495	 0.118983
H	-0.9447843255	-0.3870760366	-0.0037350014	 0.081353
H	 0.6009477756	-1.4885744604	-1.3856328927	 0.105572
H	 0.4184120732	 0.1025179189	-2.1507437737	 0.112936
H	 4.2943374494	-1.1715182544	-1.4044807657	 0.217164
H	 2.5128707927	-1.7984602302	 1.6826999648	 0.111635
H	 2.0736588367	 0.3462014466	 2.9044800274	 0.119247
H	 2.2521733768	 1.2694868354	 1.3436335531	 0.128673
H	 0.1678611643	-0.941584191	 1.9650680904	 0.092824
49.4169	170.719	218.6313	241.0768	295.2029	361.2315	387.0089	431.4462	508.3374	576.9555	685.0723	727.8156	752.4462	781.9774	832.4903	876.8533	913.7872	932.6346	962.7202	976.6249	996.6105	1012.7003	1064.4812	1087.7717	1096.1941	1123.9905	1130.7841	1154.7456	1171.8286	1228.6996	1282.5867	1311.0047	1331.2557	1360.43	1379.9308	1391.8801	1407.6669	1431.9535	1484.0579	1493.906	1503.0974	1511.3146	1749.2538	3013.9916	3032.4294	3038.4274	3094.9485	3104.8047	3116.5289	3143.5071	3154.8308	3197.1918	3231.3113	3459.7398
CC1COC(=N)C2CC12	C[C@H]1CO[C]([NH])[C@H]2C[C@@H]12	
InChI=1S/C7H11NO/c1-4-3-9-7(8)6-2-5(4)6/h4-6,8H,2-3H2,1H3	InChI=1S/C7H11NO/c1-4-3-9-7(8)6-2-5(4)6/h4-6,8H,2-3H2,1H3/t4-,5-,6-/m0/s1
