17
gdb 34323	2.32163	1.8311	1.3168	3.5706	79.5	-0.2346	-0.0096	0.225	1007.3521	0.137974	-380.853539	-380.84597	-380.845026	-380.885513	29.41	
N	-0.2204461194	-1.2263040065	 0.0929016001	-0.347407
C	-0.1196604741	-0.0742999724	 0.0520189191	 0.234958
C	-0.0437013179	 1.3899428183	-0.0178187923	 0.155189
C	-0.1601241251	 2.0438114205	 1.4246066776	-0.270525
C	 1.411296198	 2.1304989713	 1.4741502622	-0.319835
C	 1.3506708319	 1.9769901123	-0.026685011	 0.259382
C	 1.6079844553	 2.5711751332	-1.1834365846	-0.215732
C	 0.4442173891	 2.3297502375	-2.1325377998	-0.206442
N	-0.6631720014	 1.9499735927	-1.2108192651	-0.372159
H	-0.6238122449	 3.0266961967	 1.3342160711	 0.129602
H	-0.6503562626	 1.4510061992	 2.1986349428	 0.12053
H	 1.8638013483	 3.0427041901	 1.8652019056	 0.123498
H	 1.8410552166	 1.2655302717	 1.9879343925	 0.134401
H	 2.4305308053	 3.2341891232	-1.4193936685	 0.112749
H	 0.1811958722	 3.2442747954	-2.6778774432	 0.118323
H	 0.6658711579	 1.5561432884	-2.886652913	 0.112331
H	-1.3367489892	 1.3290193285	-1.6426598836	 0.231137
109.178	143.1569	213.4188	248.1138	326.6165	380.863	513.1995	545.553	571.4676	642.2435	677.6639	733.7499	787.1159	819.249	848.216	887.8779	928.6254	943.5891	981.5472	1012.1973	1050.2788	1064.4127	1113.7322	1152.7294	1174.2684	1198.3574	1206.1648	1229.9903	1256.5552	1277.8515	1344.0728	1437.6681	1464.2136	1482.0641	1516.6208	1740.5158	2336.9065	2962.9302	3040.5057	3064.014	3079.9298	3126.2356	3155.2058	3216.7995	3557.9851
N#CC12CCC1=CCN2	N#C[C@@]12CC[C]1[CH]CN2	
InChI=1S/C7H8N2/c8-5-7-3-1-6(7)2-4-9-7/h2,9H,1,3-4H2	InChI=1S/C7H8N2/c8-5-7-3-1-6(7)2-4-9-7/h2,9H,1,3-4H2/t7-/m0/s1
