18
gdb 94417	2.58435	1.36386	1.29491	4.529	72.33	-0.2274	-0.0017	0.2257	1091.1677	0.147522	-439.080053	-439.071661	-439.070717	-439.113229	30.867	
C	-0.1454080279	 1.4799493078	-0.173083324	-0.339988
N	 0.1466599176	 0.0757551166	-0.0089525764	-0.086144
C	 1.0897779078	-0.6222601523	-0.8956678835	-0.168269
C	 1.4753498793	-1.5211005995	 0.305581499	-0.306356
C	 0.7764071655	-0.4557886143	 1.1878745732	 0.131759
C	 1.5932010527	 0.3867520932	 2.2094118949	-0.145289
O	 0.7647513642	-0.1274094827	 3.2967156619	-0.246325
C	-0.0416386222	-0.8392418299	 2.4365913247	 0.421289
O	-0.9960051505	-1.4919329942	 2.7058422182	-0.326641
H	 0.7519934414	 2.1252903432	-0.1660090669	 0.096518
H	-0.6599237774	 1.6323546642	-1.1272488644	 0.132119
H	-0.8179601574	 1.8160103179	 0.6229795238	 0.135457
H	 0.6305598276	-1.1012180323	-1.7665231519	 0.11165
H	 1.9257459265	 0.0092344873	-1.2381070827	 0.08976
H	 0.9474429991	-2.4753682702	 0.3182813627	 0.139065
H	 2.5374915582	-1.6802529713	 0.4923109643	 0.116234
H	 2.6394845818	 0.1069740248	 2.351418247	 0.120798
H	 1.4924496439	 1.4712804016	 2.1268217902	 0.124362
99.8862	123.8122	144.314	217.1629	221.1726	275.6391	331.1071	372.9005	505.6183	633.4165	658.3444	716.593	783.4777	808.8532	884.2966	898.77	956.2851	966.4416	985.5187	1082.1002	1119.1781	1122.4666	1156.2118	1164.6638	1172.8586	1185.4731	1201.5963	1249.5152	1269.6148	1290.0009	1329.9286	1356.2656	1452.5767	1480.1332	1486.0074	1502.7125	1512.1743	1528.3487	1939.3066	2938.0859	2970.0204	3061.4226	3063.4744	3065.7379	3090.9012	3103.8067	3125.7668	3150.8873
CN1CCC11COC1=O	CN1CC[C@]21COC2=O	
InChI=1S/C6H9NO2/c1-7-3-2-6(7)4-9-5(6)8/h2-4H2,1H3	InChI=1S/C6H9NO2/c1-7-3-2-6(7)4-9-5(6)8/h2-4H2,1H3/t6-/m0/s1
