23
gdb 103733	2.57037	1.19199	0.95358	2.7635	87.72	-0.2446	-0.0214	0.2232	1349.0111	0.202685	-388.303314	-388.292572	-388.291628	-388.338751	39.614	
C	-0.0056471189	 1.5049839272	-0.3034137758	-0.382338
C	-0.0875804467	 0.0677191558	 0.231780604	-0.238552
C	-1.476733843	-0.5531645715	 0.1068179568	 0.316108
C	-2.5456202318	 0.1763266517	 0.9035226296	-0.479611
C	-1.860408089	-1.1866035052	-1.1941613287	-0.35359
C	-1.5544360691	-2.1069748351	-0.0214516961	 0.173306
C	-0.2981866687	-2.9659063018	-0.0100371773	-0.486753
C	-2.7172792609	-2.8005093094	 0.5996967893	 0.105145
O	-3.8847237602	-2.5204687661	 0.4501893549	-0.274092
H	 1.0245391445	 1.8711524885	-0.2564540738	 0.113203
H	-0.3325144553	 1.5548888239	-1.3475295724	 0.119448
H	-0.6262781782	 2.1951620609	 0.274451345	 0.123164
H	 0.6460266154	-0.5380590972	-0.3059929225	 0.094751
H	 0.2176160185	 0.0554880252	 1.2866154272	 0.098151
H	-2.6628271854	 1.1978809947	 0.5281307477	 0.118192
H	-3.5145751434	-0.3163246156	 0.8321763251	 0.157181
H	-2.2677854353	 0.2433160938	 1.9621906515	 0.1091
H	-2.9018258186	-1.1417621913	-1.4961485401	 0.1326
H	-1.1418748171	-1.183350334	-2.0083388773	 0.10866
H	 0.4872733696	-2.5627068502	-0.6502447801	 0.128235
H	 0.1147559673	-3.072588984	 0.9996166855	 0.124097
H	-0.523935633	-3.9720083638	-0.3813158255	 0.124067
H	-2.4293543409	-3.6611866665	 1.2469404734	 0.06953
71.7932	99.0418	123.1292	154.0465	209.5764	221.0277	233.3744	273.624	306.2478	330.594	367.5343	384.0248	434.1889	493.371	623.1714	666.3995	725.8978	793.0611	829.7143	915.2542	932.2957	951.1039	982.3044	1019.8415	1029.9561	1063.0202	1071.1941	1081.8697	1112.0842	1124.6006	1202.2629	1229.0207	1283.6913	1320.964	1359.2944	1381.8515	1409.6629	1417.0492	1422.5827	1441.5937	1473.5253	1481.5987	1493.7662	1497.6805	1501.8506	1502.6457	1510.6402	1518.68	1799.7813	2860.6392	3022.0692	3031.2117	3033.9865	3039.0835	3084.5113	3085.2987	3092.2337	3104.4791	3118.1434	3121.0662	3135.7379	3155.0227	3213.2475
CCC1(C)CC1(C)C=O	CC[C@@]1(C)C[C@]1(C)C=O	
InChI=1S/C8H14O/c1-4-7(2)5-8(7,3)6-9/h6H,4-5H2,1-3H3	InChI=1S/C8H14O/c1-4-7(2)5-8(7,3)6-9/h6H,4-5H2,1-3H3/t7-,8+/m0/s1
