12
gdb 129258	5.64149	1.07	0.89941	2.794	73.91	-0.2671	-0.1102	0.1569	1169.3214	0.078081	-431.652864	-431.645719	-431.644775	-431.684861	26.224	
N	-0.014021869	 1.1849611356	 0.585864874	-0.512803
C	-0.052620791	 0.0528224925	 0.0251391338	 0.412316
O	 1.1236117964	-0.5155527596	-0.4947770062	-0.275828
N	 1.177737718	-1.7345761916	-1.117614431	-0.100877
C	 0.0651802395	-2.3916187005	-1.2256555315	 0.220794
C	-1.2182067727	-1.9259048656	-0.7359324222	-0.150007
C	-1.2625972123	-0.7322259674	-0.1277577246	-0.115071
C	 0.161464256	-3.6631997542	-1.8833041007	 0.271864
N	 0.1749073904	-4.6954012353	-2.4042424715	-0.304282
H	 0.9315656383	 1.5697643076	 0.5905190246	 0.242133
H	-2.0925169072	-2.5492764499	-0.8745855182	 0.153764
H	-2.1714396464	-0.2995041114	 0.2707200535	 0.157997
72.2256	156.834	208.0958	319.1339	412.482	429.4159	472.1912	546.6192	569.0225	636.1463	709.7054	748.4529	782.0628	845.2276	882.5801	939.606	1020.0169	1028.5852	1073.6703	1167.1051	1239.147	1303.2837	1426.059	1569.7811	1669.5846	1752.1076	2357.9523	3214.2241	3231.9173	3490.4491
N=C1ON=C(C=C1)C#N	[NH]C1=C[CH]C(=NO1)C#N	
InChI=1S/C5H3N3O/c6-3-4-1-2-5(7)9-8-4/h1-2,7H	InChI=1S/C5H3N3O/c6-3-4-1-2-5(7)9-8-4/h1-2,7H
