17
gdb 16805	3.59164	1.8778	1.43875	2.7985	69.49	-0.2301	0.0095	0.2396	900.0686	0.143366	-363.844317	-363.837024	-363.83608	-363.87558	28.381	
C	-0.027421957	 1.5071210674	 0.0679549832	-0.500024
C	-0.0509019596	 0.0148291256	-0.0181954742	 0.362712
C	-0.0942525301	-0.7535407897	-1.1110702283	-0.227748
C	-0.0372018827	-2.2433882109	-0.8017711485	 0.108772
O	 1.0786489656	-2.8903507687	-1.3925643376	-0.43894
C	 0.0153479751	-2.2593949744	 0.7317330912	-0.073539
N	 1.2883208003	-1.6764276847	 1.2185977198	-0.350107
C	 0.0336773407	-0.8596158608	 1.2015970864	-0.142963
H	 0.8946387535	 1.8571284162	 0.5491151109	 0.134325
H	-0.0936553716	 1.9675766902	-0.9210663444	 0.12784
H	-0.8602956473	 1.8844639375	 0.6748595746	 0.124672
H	-0.0822363532	-0.392702793	-2.1338631117	 0.094739
H	-0.9184808325	-2.7770127655	-1.1763655348	 0.084556
H	 1.8449743956	-2.5402287837	-0.9166843588	 0.285524
H	-0.4406624877	-3.0673088896	 1.2920411373	 0.090233
H	 1.4550142122	-2.0111408406	 2.1663097641	 0.231259
H	-0.3924889311	-0.5491056353	 2.1501351108	 0.08869
132.4788	182.9239	195.6117	255.7145	339.276	449.1758	490.0668	535.4606	591.1491	598.2857	757.7787	803.8985	846.4236	852.941	885.0219	916.7221	932.2619	999.9379	1040.7327	1054.2228	1066.6821	1079.1265	1128.2276	1155.6343	1188.7073	1247.1305	1276.4361	1288.005	1325.9105	1370.362	1410.4755	1413.9324	1442.5622	1479.1375	1487.6759	1709.0221	3018.4955	3043.2497	3065.2647	3115.1843	3163.47	3180.2173	3193.7225	3477.6354	3744.0339
CC1=CC(O)C2NC12	CC1=C[C@@H](O)[C@H]2N[C@@H]12	
InChI=1S/C6H9NO/c1-3-2-4(8)6-5(3)7-6/h2,4-8H,1H3	InChI=1S/C6H9NO/c1-3-2-4(8)6-5(3)7-6/h2,4-8H,1H3/t4-,5+,6-/m1/s1
