18
gdb 56864	2.85931	1.12487	0.96029	2.6537	78.32	-0.2379	-0.0226	0.2153	1267.7872	0.144654	-401.90233	-401.893086	-401.892142	-401.936566	34.158	
C	-0.0197871426	 1.5447604583	 0.0877110582	-0.388104
C	 0.0408153422	 0.0106362879	 0.0649072097	-0.121004
C	 0.8444939939	-0.5097305076	 1.1872988019	 0.330343
C	 1.4558318455	-0.9571088188	 2.1223087687	-0.490537
N	-1.3120482886	-0.5452524607	 0.0164791361	-0.089562
C	-2.182488142	-0.435895649	 1.2164530787	-0.298608
C	-2.6041235553	-1.8898408914	 0.9623233161	 0.400125
O	-3.4655151084	-2.6068741404	 1.370555137	-0.279392
C	-1.4692029163	-2.0187939184	-0.0626446603	-0.296348
H	 0.9866282162	 1.9685509508	 0.0486524503	 0.128956
H	-0.5963799923	 1.8992258651	-0.7701342525	 0.12814
H	-0.5000792941	 1.8992715606	 1.0044528762	 0.129562
H	 0.529376145	-0.2967679067	-0.8689880286	 0.115927
H	 2.012967856	-1.3467179026	 2.9387003713	 0.203792
H	-1.6366327209	-0.3452429215	 2.1686286006	 0.131792
H	-2.9601787477	 0.3322224154	 1.1655358882	 0.132214
H	-1.7210567702	-2.409774402	-1.0537254182	 0.131279
H	-0.6244183504	-2.5888552889	 0.3548749067	 0.131425
69.2225	87.8125	152.6475	182.4922	218.077	250.1055	326.7797	369.7551	436.7087	489.1176	545.6638	562.1265	634.465	660.4588	673.5292	749.7187	772.9241	821.415	937.8139	983.73	1030.2195	1071.5399	1082.437	1090.1612	1100.3793	1150.4189	1178.9241	1199.9094	1255.701	1297.4663	1329.1769	1360.604	1403.7055	1451.6595	1476.1002	1487.388	1496.3448	1922.5044	2218.0976	2987.9455	2996.2458	3022.4384	3048.2692	3075.5127	3080.5383	3123.0733	3134.7543	3499.7891
CC(C#C)N1CC(=O)C1	C[C@@H](C#C)N1CC(=O)C1	
InChI=1S/C7H9NO/c1-3-6(2)8-4-7(9)5-8/h1,6H,4-5H2,2H3	InChI=1S/C7H9NO/c1-3-6(2)8-4-7(9)5-8/h1,6H,4-5H2,2H3/t6-/m0/s1
