21
gdb 38180	4.45704	1.00285	0.89433	1.5119	82.69	-0.2397	0.0859	0.3256	1353.8729	0.183698	-387.039176	-387.030987	-387.030042	-387.072826	31.209	
C	-0.0639074347	 1.4299509842	 0.1646550184	-0.288711
C	 1.2948193513	 0.8200539285	-0.0361126903	-0.029896
C	 1.7529580527	 0.1253565382	 1.2507168535	-0.266208
C	 0.4675395402	-0.7739414129	 1.2031084981	 0.009802
C	 0.033504911	-0.0485520674	-0.0790810886	-0.040253
C	 0.7810585411	-2.2397571667	 1.0037848044	 0.147522
C	 1.146556573	-3.0846052489	 2.2469154604	-0.303599
C	-0.0813696834	-3.9295148662	 1.8540876445	-0.060611
O	-0.4105920254	-3.0346609207	 0.7725365406	-0.299495
H	-0.3584398534	 1.8099283821	 1.1412861406	 0.101093
H	-0.4411062666	 2.0130017365	-0.6696179461	 0.10989
H	 1.9425300449	 1.1277040603	-0.8480781849	 0.081979
H	 2.6660576617	-0.4637064485	 1.1245490082	 0.101291
H	 1.8743359621	 0.7672451421	 2.1293702645	 0.093946
H	-0.2240805881	-0.6669136464	 2.0476691706	 0.062094
H	-0.4499202393	-0.5267322862	-0.9222127311	 0.094493
H	 1.4855644413	-2.3574494496	 0.1665082631	 0.068301
H	 2.1108838033	-3.5935208163	 2.2187822384	 0.108117
H	 1.0494064412	-2.5491192112	 3.1938111038	 0.108585
H	 0.1465899113	-4.9406660691	 1.4924828103	 0.09878
H	-0.8883623941	-3.994412742	 2.5935384914	 0.102881
65.1817	74.8974	133.4247	155.9237	318.4416	367.8602	414.7156	466.5562	716.6881	749.9303	778.0251	808.4027	825.5042	869.149	897.4607	922.2823	949.0294	960.8258	978.5944	999.998	1014.0862	1026.1749	1030.6058	1058.9785	1074.8899	1086.7755	1103.5465	1151.3745	1164.717	1186.6246	1211.3674	1222.4569	1244.7364	1253.8857	1256.3183	1284.2316	1288.8579	1308.542	1358.346	1363.869	1412.2646	1480.9959	1489.7277	1496.8934	1531.8932	2983.5528	3011.4861	3028.4628	3042.0188	3051.6563	3075.6031	3090.848	3099.9613	3131.7355	3178.1599	3185.6986	3199.6898
C1C2CC(C12)C1CCO1	C1[C@H]2C[C@@H]([C@@H]12)[C@H]1CCO1	
InChI=1S/C8H12O/c1-2-9-8(1)7-4-5-3-6(5)7/h5-8H,1-4H2	InChI=1S/C8H12O/c1-2-9-8(1)7-4-5-3-6(5)7/h5-8H,1-4H2/t5-,6-,7-,8+/m0/s1
