17
gdb 50906	1.95329	1.38352	0.89573	3.4108	76.9	-0.2499	0.0073	0.2572	1296.5517	0.134313	-417.92928	-417.919893	-417.918949	-417.964578	33.099	
N	 0.132619468	 1.065989834	-0.3828495126	-0.436122
C	 0.0931705448	-0.1273425083	 0.0181948608	 0.134577
O	-0.8642989499	-0.9564029012	-0.4603985292	-0.194724
C	-0.8463519997	-2.3095966708	 0.0165052878	-0.117069
C	-1.2344266698	-2.3992322744	 1.424861453	 0.351157
C	-1.5509753893	-2.4850040245	 2.5806069168	-0.460312
C	-1.7832106033	-3.1200043437	-0.8718939095	 0.002492
C	-3.0214292949	-2.5202656076	-1.4151170245	-0.227423
N	-1.8788143912	-2.8287439553	-2.3014012069	-0.334242
H	 0.9057895318	 1.5583388615	 0.059676921	 0.234831
H	 0.766635151	-0.6046268935	 0.7402998606	 0.103135
H	 0.1733346418	-2.7075204488	-0.0998416268	 0.118741
H	-1.8351757484	-2.5570028827	 3.6018864743	 0.211109
H	-1.7673686583	-4.1777473398	-0.6211882418	 0.108235
H	-3.899132707	-3.14208006	-1.562617377	 0.120199
H	-3.2200844538	-1.4789313893	-1.183582186	 0.137468
H	-1.3825749318	-1.9609434757	-2.49504907	 0.247948
63.9559	79.7459	82.4224	134.3682	152.882	235.2448	315.596	339.661	469.3567	501.1851	570.0984	636.3866	686.2404	696.0496	812.1245	820.4916	878.2102	913.2739	968.8975	987.9814	1017.6431	1039.4418	1046.1794	1104.022	1124.8106	1155.6634	1210.5102	1268.7131	1285.7002	1307.6804	1326.7052	1355.1683	1414.0671	1428.1305	1506.1103	1748.906	2236.8119	2988.134	3049.7966	3122.971	3142.0659	3214.717	3497.4342	3500.1488	3520.7805
N=COC(C#C)C1CN1	[NH][CH]O[C@@H](C#C)[C@H]1CN1	
InChI=1S/C6H8N2O/c1-2-6(9-4-7)5-3-8-5/h1,4-8H,3H2	InChI=1S/C6H8N2O/c1-2-6(9-4-7)5-3-8-5/h1,4-8H,3H2/t5-,6+/m1/s1
