19
gdb 48699	3.58367	1.1476	1.00557	3.1637	83.07	-0.2422	-0.0176	0.2246	1222.6443	0.158731	-385.861583	-385.853445	-385.8525	-385.894313	31.666	
O	-0.1476537794	 0.026692165	 0.0205331898	-0.273177
C	 0.0016637881	 1.2240105224	-0.0642413008	 0.057374
C	 1.2925628104	 1.9097468246	 0.0046005393	 0.276014
C	 1.407944241	 3.3838638888	 0.3371908971	-0.336685
C	 1.8155363957	 2.964366586	-1.0298933925	-0.172974
C	 3.1595575727	 2.2629265882	-1.0105253185	 0.391227
C	 4.0066423671	 1.9758456128	-2.2107098944	-0.334579
C	 4.5154084901	 2.8996791404	-1.1237958428	-0.322543
C	 2.6639862997	 1.2250859373	 0.0185380209	-0.388941
H	-0.8679822098	 1.9047932252	-0.223881357	 0.059519
H	 0.4629670755	 3.9151431419	 0.40674175	 0.123396
H	 2.153416262	 3.6907622785	 1.0661273451	 0.122814
H	 1.296867307	 3.3085391087	-1.9175525543	 0.10322
H	 4.4506489615	 0.9893875417	-2.2977262265	 0.118287
H	 3.7175427919	 2.4185618733	-3.158840604	 0.114793
H	 4.5700061345	 3.9618307195	-1.339532405	 0.114369
H	 5.3034149595	 2.5345359618	-0.4730029387	 0.116141
H	 3.1728030106	 1.2054275184	 0.9874974441	 0.10142
H	 2.6113882216	 0.2100010556	-0.3806158317	 0.130325
79.1389	153.7243	170.4941	263.7938	282.8341	327.7539	383.7666	467.9582	483.9925	561.9781	733.212	754.4332	773.6786	815.6501	866.7583	873.0239	919.576	954.2194	961.8625	981.3145	1001.6579	1024.143	1047.5865	1052.2741	1078.198	1090.5	1110.4473	1146.0427	1187.5161	1213.8539	1234.3897	1263.8538	1288.3072	1375.6779	1400.626	1436.363	1463.7603	1479.4937	1492.3126	1505.9507	1797.8348	2847.9415	3050.5051	3112.111	3116.2176	3123.0572	3127.4228	3178.6341	3200.4842	3201.8491	3216.7465
O=CC12CC1C1(CC1)C2	O=C[C@]12C[C@H]1C1(CC1)C2	
InChI=1S/C8H10O/c9-5-8-3-6(8)7(4-8)1-2-7/h5-6H,1-4H2	InChI=1S/C8H10O/c9-5-8-3-6(8)7(4-8)1-2-7/h5-6H,1-4H2/t6-,8+/m0/s1
