18
gdb 51363	4.25042	0.9414	0.87471	2.4341	76.37	-0.227	-0.0279	0.199	1332.9722	0.146636	-401.849093	-401.841054	-401.84011	-401.882672	30.376	
O	-0.5788225553	 0.7481514293	 0.9637554944	-0.237115
C	-0.1029392702	 1.1249396268	-0.0737409856	 0.143614
C	 1.3415291935	 1.5613260554	-0.2494832068	-0.325406
C	 1.4387740015	 2.7755430201	-1.1689771366	 0.001324
C	 2.3651165439	 3.9335460919	-1.1912295687	-0.069133
C	 3.8705510205	 3.6917970037	-0.9859464627	-0.066824
C	 4.2284585569	 2.2585346794	-0.7153331087	-0.3016
C	 3.7696438798	 2.6679493599	-2.0919861861	-0.00606
N	 2.3056167252	 2.9677297175	-2.3577938426	-0.169858
H	-0.7121284858	 1.16636988	-1.0074819112	 0.084812
H	 1.7626992439	 1.7257776224	 0.7449707159	 0.143445
H	 1.8633945752	 0.7070770134	-0.7006002584	 0.149305
H	 0.4429057343	 3.1024405014	-1.4781279979	 0.103612
H	 1.9840128513	 4.9446998962	-1.3066585641	 0.101291
H	 4.5684009782	 4.5096102278	-0.8698533577	 0.100428
H	 5.3025197621	 2.0930618359	-0.6869953884	 0.119655
H	 3.684680107	 1.621663809	-0.0358649463	 0.119954
H	 4.3816583479	 2.5190378098	-2.9718016885	 0.108557
48.2964	77.7455	173.7169	205.1223	304.7922	390.5899	459.2974	495.4966	645.8053	672.6608	694.7943	739.8487	773.7793	789.4036	887.0595	892.7606	925.948	954.5198	997.1272	1016.3488	1053.1855	1059.7386	1064.5932	1073.3827	1088.2164	1092.5028	1143.5024	1190.6407	1226.933	1264.8828	1272.8031	1292.5126	1339.2921	1378.9691	1426.4272	1449.6661	1457.1002	1497.4293	1840.7964	2856.9602	3030.2695	3070.1251	3106.6392	3140.8088	3142.1059	3195.2189	3208.296	3257.6885
O=CCC1C2C3CC3N12	O=CC[C@H]1[C@H]2[C@H]3C[C@H]3N12	
InChI=1S/C7H9NO/c9-2-1-5-7-4-3-6(4)8(5)7/h2,4-7H,1,3H2	InChI=1S/C7H9NO/c9-2-1-5-7-4-3-6(4)8(5)7/h2,4-7H,1,3H2/t4-,5-,6+,7+,8?/m0/s1
