21
gdb 58877	2.55302	1.42087	1.07759	1.8694	77.99	-0.2567	0.0748	0.3316	1199.2284	0.180843	-424.197799	-424.18844	-424.187495	-424.231579	35.885	
C	-0.2137341365	 1.5592926134	-0.0642759971	-0.403231
C	 0.0071099225	 0.0484717599	 0.0773546496	-0.000199
O	-1.2222979453	-0.651091625	 0.1759441982	-0.433663
C	 0.8156750443	-0.5142432368	-1.0639808895	 0.419873
O	 0.0666388487	-0.8176920329	-2.261164725	-0.30846
C	 0.8365339468	-1.867598507	-1.6370439165	-0.052479
C	 2.2799984921	-1.7056143465	-2.120943627	-0.263987
C	 2.2749357997	-0.2533079419	-1.5070904757	-0.061446
C	 2.5393319564	 0.9204402905	-2.4393539028	-0.410745
H	 0.7347487434	 2.105776051	-0.0332940275	 0.114878
H	-0.7102428238	 1.7874155329	-1.0131912483	 0.123448
H	-0.8468429172	 1.9147595695	 0.7525416859	 0.124716
H	 0.5444617789	-0.1492700534	 1.0138683979	 0.090854
H	-1.5460838904	-0.7342820176	-0.7313350916	 0.287803
H	 0.2960841589	-2.7607453859	-1.3470936822	 0.110814
H	 2.9851385607	-2.375198747	-1.6232193718	 0.107805
H	 2.4124272945	-1.7730510874	-3.2038607275	 0.110353
H	 2.9333118113	-0.2150890062	-0.632738415	 0.078523
H	 1.8355193596	 0.9055344599	-3.276187551	 0.133252
H	 2.4357747875	 1.8794441983	-1.9208446136	 0.116684
H	 3.5548499879	 0.8715812223	-2.8463750195	 0.115206
73.735	134.3434	195.2854	200.0634	233.7653	267.3841	283.2165	318.3958	414.2674	429.3603	469.4722	517.0682	596.9463	684.3248	698.203	807.3982	856.3686	885.6353	896.5403	931.1838	950.3472	1013.9911	1021.8799	1069.6451	1086.3564	1104.983	1112.4191	1126.3552	1153.6405	1194.9905	1224.6343	1249.0969	1276.4536	1301.3184	1354.6788	1357.9007	1398.525	1403.8591	1429.7184	1450.5989	1478.2882	1489.3159	1496.4769	1499.7453	1505.1561	3029.4891	3034.3118	3036.8853	3051.9078	3064.5402	3097.1744	3107.7163	3117.511	3122.7649	3124.0568	3193.7412	3757.4905
CC(O)C12OC1CC2C	C[C@@H](O)[C@]12O[C@H]1C[C@H]2C	
InChI=1S/C7H12O2/c1-4-3-6-7(4,9-6)5(2)8/h4-6,8H,3H2,1-2H3	InChI=1S/C7H12O2/c1-4-3-6-7(4,9-6)5(2)8/h4-6,8H,3H2,1-2H3/t4-,5-,6+,7+/m1/s1
