19
gdb 105914	2.4232	1.7211	1.23173	1.961	75.08	-0.2545	0.0583	0.3128	1051.9524	0.159539	-422.941607	-422.933567	-422.932623	-422.974003	31.664	
O	 0.4893304978	 0.1454590387	-1.0297447228	-0.427198
C	-0.1177852992	 0.1658486025	 0.2571612347	-0.208865
C	-1.5077369015	-0.3997126386	 0.1891662486	 0.313051
C	-2.639498763	 0.11519528	-0.7205811122	 0.078321
O	-2.4243761952	 0.1303915122	-2.1202245949	-0.451557
C	-3.2700308316	-1.1028668675	-0.0273340037	-0.10052
C	-1.9200497523	-1.9088291568	-0.0474348303	-0.102933
C	-1.9890515206	-2.1962324582	 1.464070019	-0.271002
C	-2.5352475375	-0.7617278827	 1.3216619381	-0.104187
H	-0.1510701278	 0.5211049185	-1.6469391954	 0.288646
H	 0.5269731377	-0.4263242348	 0.9169775074	 0.108042
H	-0.151751806	 1.1892709572	 0.6673883687	 0.08803
H	-3.0603318875	 1.0950270584	-0.4720292824	 0.083712
H	-2.1658386247	-0.7574758877	-2.3934268756	 0.287418
H	-4.273035484	-1.5220643789	-0.1205006356	 0.074476
H	-1.5577320903	-2.5614720432	-0.8434673909	 0.07447
H	-2.701333799	-2.9624620982	 1.7854229632	 0.095711
H	-1.0374465203	-2.314439886	 1.991440492	 0.098702
H	-2.9045535152	-0.0796304448	 2.0889110423	 0.075684
105.0545	144.9116	208.8362	249.3536	277.9654	316.504	401.478	498.8975	513.2133	559.8934	658.8178	745.2518	795.8112	852.2627	864.5942	897.9863	914.7209	926.852	945.3872	1006.3307	1027.8044	1044.2616	1051.6156	1091.3648	1100.0867	1116.6768	1146.4823	1152.9283	1168.1966	1207.5408	1226.5857	1237.9699	1275.4482	1276.4659	1299.3916	1343.6134	1374.4954	1443.5695	1446.5829	1502.4607	1514.3059	2962.1603	3041.3726	3056.0708	3063.9836	3094.0294	3097.9576	3099.8477	3110.9178	3773.1793	3798.0474
OCC12C(O)C3C1CC23	OC[C@@]12[C@@H](O)[C@H]3[C@@H]1C[C@@H]23	
InChI=1S/C7H10O2/c8-2-7-3-1-4(7)5(3)6(7)9/h3-6,8-9H,1-2H2	InChI=1S/C7H10O2/c8-2-7-3-1-4(7)5(3)6(7)9/h3-6,8-9H,1-2H2/t3-,4+,5-,6-,7+/m0/s1
