18
gdb 51536	4.96001	0.72968	0.68355	3.4438	75.69	-0.2464	-0.038	0.2084	1599.2529	0.146226	-439.099986	-439.090539	-439.089595	-439.137549	31.634	
O	-0.572152407	 1.4846693341	 0.9893785437	-0.232576
C	 0.1046091794	 1.2151567803	 0.0310015115	 0.158231
C	 1.4308414376	 1.8677904779	-0.2941451794	-0.29195
C	 1.2929630939	 2.7934217814	-1.5067696666	-0.015489
C	 0.5112298055	 4.1246005793	-1.2601037046	-0.197666
N	 1.7385436293	 4.8478119605	-1.5972908016	-0.032993
C	 2.546203862	 3.6580954951	-1.8507801369	-0.191596
C	 2.0790167088	 6.153482757	-1.644906258	 0.131115
O	 3.1835634502	 6.562178944	-1.9409366737	-0.330088
H	-0.2369845753	 0.4626485435	-0.7180452178	 0.078995
H	 1.7725646193	 2.4269160727	 0.5822923047	 0.129755
H	 2.1647358051	 1.083389224	-0.5222844045	 0.122148
H	 0.9151138673	 2.2380601468	-2.3685113976	 0.094483
H	-0.3247426739	 4.3105907487	-1.9431405789	 0.121289
H	 0.1670571115	 4.2674249362	-0.2294523731	 0.133147
H	 3.3951869304	 3.5479290025	-1.1671154458	 0.125683
H	 2.9110610665	 3.5814177791	-2.8800254879	 0.126765
H	 1.2272537496	 6.8144438169	-1.3819552935	 0.070747
14.8796	32.8037	75.9917	92.054	172.1554	220.291	312.861	365.8879	387.2667	515.7339	541.9208	748.8133	808.0012	881.0188	893.6062	925.2048	947.0649	984.7951	1034.3434	1062.8251	1090.0972	1142.7346	1147.6988	1177.4256	1195.4544	1232.681	1260.4842	1291.6352	1299.813	1327.1357	1376.7027	1403.0121	1429.2827	1453.359	1469.2052	1509.7337	1528.321	1791.1923	1833.9821	2859.0232	2921.5283	3025.9892	3028.3224	3038.8712	3068.8651	3077.3183	3086.4765	3102.0306
O=CCC1CN(C1)C=O	O=CCC1CN(C1)C=O	
InChI=1S/C6H9NO2/c8-2-1-6-3-7(4-6)5-9/h2,5-6H,1,3-4H2	InChI=1S/C6H9NO2/c8-2-1-6-3-7(4-6)5-9/h2,5-6H,1,3-4H2
