18
gdb 22196	1.6411	1.17117	0.69208	1.3524	77.12	-0.2475	0.01	0.2575	1561.082	0.143498	-439.002793	-438.99224	-438.991295	-439.039403	37.27	
O	-0.237026231	 1.3141710621	-0.4584158077	-0.426432
C	-0.0183191192	-0.0177663698	-0.0124202304	-0.088967
C	-1.2065890083	-0.8382299699	-0.4956748797	-0.243871
C	-1.1641298369	-2.2917239334	-0.1209292351	 0.33618
C	-2.2875666917	-3.2309990845	-0.5393347105	-0.440537
C	-3.3648687817	-2.6199744308	-1.3038374805	 0.281461
C	-4.2630202503	-2.1326709308	-1.9359485119	-0.428831
N	-0.1616254456	-2.7063224008	 0.5539087517	-0.170154
O	-0.2520991928	-4.0812228431	 0.8329937324	-0.40146
H	 0.5037657274	 1.8510174897	-0.1633904459	 0.285734
H	 0.9141780004	-0.4341270063	-0.4187836749	 0.098551
H	 0.0538616194	-0.0725760716	 1.082935035	 0.098581
H	-2.133363332	-0.3948933721	-0.109703352	 0.133968
H	-1.2867996748	-0.7511807009	-1.5867711202	 0.133953
H	-1.8417762959	-4.058610119	-1.1064712835	 0.162871
H	-2.6866664614	-3.7045271001	 0.3671848365	 0.162879
H	-5.0557573284	-1.7002421258	-2.4945606872	 0.19811
H	 0.5544175827	-4.2406170928	 1.3338869637	 0.307966
37.5744	87.4365	102.4327	103.9967	176.5311	256.8725	262.3528	285.6097	335.1081	364.5534	384.154	394.0816	520.2633	569.5517	621.8867	643.1842	657.7008	782.3399	818.8511	916.8165	992.6994	1005.1382	1032.704	1073.185	1083.0447	1191.4564	1202.1708	1234.2878	1257.834	1301.3335	1309.1812	1355.4232	1405.9487	1440.7331	1461.393	1469.6726	1522.5585	1724.0102	2243.3932	2996.4632	3024.6016	3026.3674	3033.3896	3048.2873	3064.125	3505.9093	3826.1176	3835.4509
OCCC(CC#C)=NO	OCCC(=NO)CC#C	
InChI=1S/C6H9NO2/c1-2-3-6(7-9)4-5-8/h1,8-9H,3-5H2	InChI=1S/C6H9NO2/c1-2-3-6(7-9)4-5-8/h1,8-9H,3-5H2
