24
gdb 9767	3.47009	1.39994	1.33238	0.0402	83.9	-0.2951	0.0718	0.3669	1108.7684	0.224451	-314.298441	-314.289284	-314.28834	-314.331855	35.109	
C	 0.0876488454	 1.6277584649	 0.1381781394	-0.394485
C	 0.0170924053	 0.0963209194	 0.1730834282	-0.216476
C	-1.376590306	-0.5211721152	-0.054962063	 0.321993
C	-2.3558793327	-0.0900354149	 1.0537179024	-0.426023
C	-1.9569752299	-0.1978108264	-1.4541756688	-0.219395
C	-2.9859972827	-1.3132829825	-1.7502415954	-0.210634
C	-2.5520460815	-2.5305827058	-0.8814464799	-0.211519
C	-1.2939434703	-2.0668920061	-0.1128404915	-0.225159
H	 1.1195777693	 1.9681165443	 0.2709826823	 0.109792
H	-0.2691014186	 2.0245723858	-0.8179420629	 0.116123
H	-0.5106477405	 2.0850053456	 0.932147084	 0.115968
H	 0.6966139613	-0.3045103254	-0.5908753077	 0.086705
H	 0.4056468503	-0.2580640963	 1.1377272775	 0.087072
H	-2.5335998914	 0.9896731515	 1.0396905141	 0.111632
H	-3.3287919125	-0.5794788427	 0.9457663101	 0.111722
H	-1.9642621761	-0.3526219346	 2.0430576008	 0.107381
H	-2.3961023563	 0.802735794	-1.5134835034	 0.089261
H	-1.144739713	-0.2340011863	-2.1910756844	 0.087693
H	-3.9958004469	-0.9899337698	-1.4799502543	 0.098031
H	-3.0169083844	-1.5565111206	-2.8159363059	 0.0943
H	-3.3507712533	-2.8120664361	-0.1885828483	 0.097925
H	-2.3458480142	-3.4169878978	-1.4877272993	 0.09427
H	-0.3915617408	-2.3530513532	-0.6671449009	 0.087163
H	-1.2125329504	-2.5189847717	 0.881237747	 0.086658
85.4539	96.0389	161.163	200.4892	219.8503	268.0214	326.1771	347.8635	399.6386	421.0242	572.312	640.7499	710.6513	783.9549	809.4872	812.7213	892.5194	908.9871	925.4678	929.4384	978.9619	999.4477	1012.9429	1040.6162	1054.9822	1090.5262	1101.8375	1171.2823	1192.458	1235.7236	1247.8926	1259.4906	1264.7605	1308.7977	1315.4723	1334.8899	1356.0271	1360.3114	1372.5663	1410.4419	1415.434	1478.4811	1483.2592	1488.1524	1492.9306	1499.8437	1504.6982	1508.2661	1512.6635	1521.5151	3005.6616	3020.9516	3025.5921	3031.6199	3036.7615	3038.74	3045.4861	3056.8051	3067.5384	3076.1582	3082.543	3094.3721	3098.7135	3102.0672	3103.9518	3108.7773
CCC1(C)CCCC1	CCC1(C)CCCC1	
InChI=1S/C8H16/c1-3-8(2)6-4-5-7-8/h3-7H2,1-2H3	InChI=1S/C8H16/c1-3-8(2)6-4-5-7-8/h3-7H2,1-2H3
