16
gdb 125650	3.38149	1.62399	1.10463	2.4645	78.02	-0.198	0.017	0.215	1049.5313	0.127651	-396.966925	-396.959354	-396.95841	-396.998692	29.109	
C	-0.0177837174	 1.5044389085	-0.0560403303	-0.508657
C	-0.0069135104	 0.0129742878	 0.0389212104	 0.231523
N	-0.0333077569	-0.7433173866	-1.0598963589	-0.289948
N	-0.0145987926	-2.041281089	-0.6494349731	-0.36894
C	 0.0236568457	-2.1421405944	 0.7079399414	 0.391016
C	 0.0293842379	-0.8289156247	 1.175460168	 0.206372
N	 0.0681760567	-0.8828246667	 2.5530097334	-0.42134
C	 0.086051242	-2.2104860554	 2.9296224091	-0.050969
C	 0.0596501752	-3.0301870723	 1.8194138165	-0.321009
H	 0.8760457905	 1.9463809635	 0.400335761	 0.121135
H	-0.0494985324	 1.8043330701	-1.1054595011	 0.144485
H	-0.8887719846	 1.9367148213	 0.450940321	 0.1211
H	-0.0303325141	-2.7648432454	-1.3444696039	 0.264761
H	 0.0813635312	-0.104732303	 3.1863257314	 0.261425
H	 0.1166745112	-2.4782572874	 3.974676001	 0.120338
H	 0.0659508801	-4.1079408962	 1.8305305839	 0.098708
124.6597	178.6932	247.6493	265.48	303.2926	315.2452	427.7314	519.3775	610.055	616.0044	661.7636	689.4893	712.5046	756.5528	803.4744	828.4395	928.9434	997.1418	1065.0225	1077.8161	1095.6471	1120.8133	1167.2826	1226.3511	1321.9605	1355.2911	1404.5349	1418.8744	1435.387	1483.9567	1484.8571	1509.7848	1534.8843	1574.6292	1622.6734	3024.4415	3070.651	3131.7255	3248.874	3269.0951	3700.148	3701.2752
CC1=NNC2=C1NC=C2	Cc1n[nH]c2c1[nH]cc2	
InChI=1S/C6H7N3/c1-4-6-5(9-8-4)2-3-7-6/h2-3,7H,1H3,(H,8,9)	InChI=1S/C6H7N3/c1-4-6-5(9-8-4)2-3-7-6/h2-3,7H,1H3,(H,8,9)
