16
gdb 129778	3.30659	1.54276	1.07034	4.5742	71.77	-0.2005	0.0367	0.2372	1069.5453	0.127794	-434.075213	-434.06753	-434.066586	-434.10734	29.026	
N	 0.1609305181	 1.4184994801	-0.1338521563	-0.605721
C	-0.0361202405	 0.0408846351	-0.0437332888	 0.181616
C	-1.1563377653	-0.7544499669	-0.0875216976	 0.12968
C	-2.6509587017	-0.8350345321	-0.0487414606	-0.402735
C	-2.8356889804	-2.3781569645	-0.2628743424	-0.082833
O	-1.569015074	-3.0375955495	-0.0031036594	-0.270661
C	-0.6350367345	-2.0605146987	-0.0364090503	 0.445592
N	 0.6688752512	-2.1572238812	 0.0251413769	-0.367018
N	 1.0309650203	-0.8140393663	 0.0554989805	-0.262965
H	 0.8626280706	 1.7652966583	 0.5089876107	 0.252317
H	-0.6979083301	 1.9362879423	-0.0075270818	 0.255679
H	-3.0741083537	-0.5145974415	 0.9121049321	 0.113856
H	-3.169731188	-0.2770047554	-0.8347934159	 0.113957
H	-3.5784966994	-2.8206033716	 0.4039618901	 0.119128
H	-3.1199483426	-2.5912613114	-1.299558657	 0.116709
H	 1.97967793	-0.5874989966	-0.1911082401	 0.263399
111.818	178.6707	195.603	238.9695	273.7544	321.6206	426.7071	550.733	600.5305	632.031	653.016	720.963	750.6433	771.1215	799.4407	854.4608	933.659	1011.164	1066.1188	1076.6807	1081.4427	1144.3355	1203.9841	1234.5825	1246.5399	1307.3717	1333.5528	1366.2399	1463.5996	1491.5826	1511.7649	1522.2893	1602.2437	1645.8499	1701.6085	3014.7944	3038.2776	3065.2915	3111.6202	3538.0178	3634.5897	3667.716
NC1=C2CCOC2=NN1	Nc1c2CCOc2n[nH]1	
InChI=1S/C5H7N3O/c6-4-3-1-2-9-5(3)8-7-4/h1-2H2,(H3,6,7,8)	InChI=1S/C5H7N3O/c6-4-3-1-2-9-5(3)8-7-4/h1-2H2,(H3,6,7,8)
