19
gdb 40082	3.99424	1.2593	1.07812	1.5932	83.86	-0.2232	0.0063	0.2295	1154.4163	0.160167	-385.841874	-385.834322	-385.833378	-385.873818	30.069	
C	-0.0841839671	 1.4734930978	-0.1508182438	-0.328951
C	 1.2754514809	 0.8466891922	 0.0505201067	-0.317684
C	 0.0388087148	-0.0132803307	-0.0220078701	 0.272753
C	-0.4634407884	-0.9777559531	 1.0929522803	-0.348882
C	-0.2524896352	-2.1517619022	 0.0622644591	 0.101081
O	-1.2506005108	-3.087711368	-0.2873858059	-0.282619
C	-1.5599526196	-2.8717511509	-1.6799113243	-0.104848
C	-1.0696865077	-1.4628894658	-1.9946343468	-0.265541
C	-0.2684671001	-1.0986726477	-1.0004523453	 0.190654
H	-0.5248223859	 2.0156627257	 0.679632419	 0.117916
H	-0.3219670071	 1.8819175692	-1.1274594233	 0.117728
H	 1.9610769945	 0.8263850862	-0.7894720803	 0.120715
H	 1.7527340045	 0.9600875448	 1.0185694285	 0.116623
H	 0.1152723478	-1.0189544399	 2.0193337088	 0.101311
H	-1.5244652525	-0.8327950457	 1.3100030112	 0.116078
H	 0.7110059007	-2.651765921	 0.2369128972	 0.078458
H	-1.0857395425	-3.6542469747	-2.294860511	 0.101554
H	-2.6455592674	-2.9606330187	-1.814600355	 0.111875
H	-1.4662963389	-0.8679366773	-2.807223655	 0.101779
113.8847	141.9678	220.3738	256.5981	333.8097	378.2283	467.5564	499.3642	685.9444	728.5943	763.1873	795.5822	799.0069	842.4968	863.9277	912.3899	921.7925	942.9329	969.8819	981.9483	1020.2133	1033.5666	1054.4752	1074.5879	1089.6152	1114.1389	1138.3407	1173.9156	1188.8603	1195.4135	1228.2184	1235.3424	1289.7605	1342.714	1355.4768	1394.0697	1462.1489	1471.1985	1498.7802	1515.9823	1728.2817	2966.6529	2996.313	3035.2326	3057.6935	3124.6141	3126.7938	3130.7031	3206.5295	3214.2087	3221.9107
C1CC11CC2OCC=C12	C1CC21C[C@H]1OC[CH][C]21	
InChI=1S/C8H10O/c1-4-9-7-5-8(2-3-8)6(1)7/h1,7H,2-5H2	InChI=1S/C8H10O/c1-4-9-7-5-8(2-3-8)6(1)7/h1,7H,2-5H2/t7-/m1/s1
