19
gdb 16837	3.54021	1.76936	1.415	2.2922	70.08	-0.236	0.0725	0.3086	937.2771	0.167403	-365.052732	-365.045168	-365.044224	-365.084324	29.788	
C	 0.0592943507	 1.5630627806	-0.0336070678	-0.399923
C	 0.0185839813	 0.0350897436	 0.0226587233	 0.032546
C	 0.6472203305	-0.6604964176	-1.2087619855	-0.264108
C	 1.2036636298	-2.0273713591	-0.7233334422	 0.154192
O	 2.3503929593	-2.4614967119	-1.4307654803	-0.442848
C	 1.4508671986	-1.814948729	 0.7623315703	-0.08062
N	 2.2531209877	-0.5852250709	 0.9847956658	-0.353574
C	 0.7845981412	-0.5697088408	 1.1935174538	-0.039014
H	 1.0959027933	 1.9131035758	-0.0703946718	 0.128606
H	-0.4598104384	 1.9413857655	-0.9203488217	 0.112517
H	-0.4181655361	 2.0084862115	 0.8462093394	 0.106065
H	-1.0258487837	-0.2905499962	 0.1255165472	 0.071757
H	-0.058352407	-0.7730791649	-2.035465573	 0.097679
H	 1.4878879125	-0.0655428953	-1.5784470413	 0.107248
H	 0.4601676942	-2.8211707706	-0.857762202	 0.084882
H	 3.0494457393	-1.8348758906	-1.205502792	 0.284301
H	 1.5980354359	-2.6668985108	 1.4179731045	 0.085976
H	 2.7149575079	-0.6494396945	 1.8881965539	 0.232192
H	 0.411162633	-0.4417088447	 2.2054503095	 0.082124
100.0647	169.3493	240.0356	245.8724	352.3448	399.5126	440.1294	486.2762	565.0309	592.3888	646.5913	800.477	832.9069	875.3994	890.1722	919.0212	929.9648	941.9793	1018.0055	1045.8537	1066.8685	1089.2937	1112.2415	1124.8238	1140.8678	1168.1598	1221.7327	1257.4365	1273.1162	1310.7764	1333.7437	1344.8286	1345.666	1381.3612	1405.5451	1427.4322	1439.7079	1484.5813	1497.3412	1502.4119	3009.4144	3029.5919	3049.5957	3059.9488	3094.4113	3105.3166	3109.6334	3149.7875	3168.958	3506.3497	3779.3181
CC1CC(O)C2NC12	C[C@H]1C[C@@H](O)[C@H]2N[C@@H]12	
InChI=1S/C6H11NO/c1-3-2-4(8)6-5(3)7-6/h3-8H,2H2,1H3	InChI=1S/C6H11NO/c1-3-2-4(8)6-5(3)7-6/h3-8H,2H2,1H3/t3-,4+,5-,6+/m0/s1
