20
gdb 107225	3.72388	1.24005	1.10174	0.9067	77.74	-0.2276	0.0676	0.2952	1155.6301	0.172132	-403.101631	-403.093547	-403.092603	-403.134191	32.039	
O	 0.012119486	 1.3448219919	 0.3630532505	-0.424427
C	-0.0478279309	-0.0169290946	-0.0436081158	-0.168969
C	-1.484456599	-0.4630385343	 0.0527777139	 0.359336
C	-1.9792025783	-1.1409026077	 1.2783659533	-0.28964
N	-1.7170278765	-1.9235468442	 0.0603739534	-0.150257
C	-2.843856708	-2.1994166006	-0.8301786454	 0.00573
C	-4.2435535297	-1.7039071622	-0.5548827941	-0.302141
C	-3.3342489079	-0.9210574609	-1.4710621477	-0.030758
C	-2.5003803001	 0.2174929389	-0.8760798297	-0.316014
H	 0.9071414375	 1.6623713775	 0.2126306518	 0.288484
H	 0.3004372297	-0.1373048261	-1.0827383345	 0.084432
H	 0.5754620045	-0.6629371079	 0.5918955662	 0.093511
H	-1.2908087763	-1.342437189	 2.0957865789	 0.111131
H	-3.0015756636	-0.9704812009	 1.5984908349	 0.11228
H	-2.7250869726	-3.1180282129	-1.3932607256	 0.093851
H	-5.0478257429	-2.2655645993	-1.0193720851	 0.110674
H	-4.5094584249	-1.295242356	 0.4129626253	 0.114092
H	-3.5838396227	-0.8726811341	-2.5252552139	 0.085731
H	-3.1052574735	 0.9644234946	-0.35257838	 0.114086
H	-1.9668776909	 0.7474526177	-1.6707251364	 0.108868
79.2278	138.4504	221.6953	257.3068	278.1562	367.2743	383.1546	443.584	528.9031	633.436	672.2438	731.3027	783.2617	801.8547	842.7168	874.65	896.957	930.5916	946.2972	984.405	999.9183	1056.0069	1062.36	1071.0095	1080.3324	1107.8699	1117.9515	1123.3054	1171.756	1181.6147	1213.7765	1216.7421	1242.4342	1276.336	1316.6049	1336.5804	1375.1867	1389.4762	1465.0245	1479.7996	1489.8227	1514.796	1529.1401	2964.7233	3011.0605	3054.1972	3090.5907	3110.2318	3134.3804	3163.5955	3173.1054	3195.7761	3215.8007	3830.4972
OCC12CN1C1CC1C2	OC[C@]12CN1[C@H]1C[C@H]1C2	
InChI=1S/C7H11NO/c9-4-7-2-5-1-6(5)8(7)3-7/h5-6,9H,1-4H2	InChI=1S/C7H11NO/c9-4-7-2-5-1-6(5)8(7)3-7/h5-6,9H,1-4H2/t5-,6-,7-,8?/m0/s1
