21
gdb 90277	3.4678	1.19097	0.99503	1.2886	84.96	-0.215	0.041	0.256	1256.234	0.184794	-387.119699	-387.111379	-387.110435	-387.152959	32.237	
O	-0.5491246529	 1.2517025911	 0.717356418	-0.437396
C	-0.0388439368	 0.0905986624	 0.0691782157	 0.130942
C	 0.8242572197	-0.7800454286	 1.0403562515	-0.376214
C	-0.1223484444	-1.8745114516	 1.4388356776	 0.287451
C	-1.2419392782	-1.8731970125	 0.7150483332	 0.285265
C	-2.2050181813	-2.9509204969	 1.1238791539	-0.345451
C	-1.3483669146	-3.8111927648	 2.1062840196	-0.19676
C	-0.1012634391	-2.951250127	 2.4863836226	-0.344415
C	-1.2723262636	-0.7771856192	-0.3093774836	-0.348436
H	 0.2007784583	 1.7846707061	 1.0003410355	 0.277957
H	 0.5369386129	 0.382481844	-0.8204507416	 0.05801
H	 1.7231548207	-1.1727664249	 0.5440410051	 0.098045
H	 1.1755851124	-0.1716681596	 1.8847865964	 0.09205
H	-3.0912508562	-2.5242436882	 1.614897826	 0.104376
H	-2.582569621	-3.5433351731	 0.2814112307	 0.098236
H	-1.9167508234	-4.1296272562	 2.9839185343	 0.096834
H	-1.0180047385	-4.7211014513	 1.5962787723	 0.103889
H	 0.8215404066	-3.5444168741	 2.4869081158	 0.097297
H	-0.1875102789	-2.5249118432	 3.4962074359	 0.102047
H	-2.1736401277	-0.1550561805	-0.273099115	 0.118009
H	-1.1953970042	-1.1669181719	-1.3333462938	 0.098265
59.4958	105.4951	177.6198	226.5315	303.0254	336.9734	397.0354	461.9481	487.5125	569.5266	673.0664	691.2609	779.6042	829.2384	850.6695	886.6337	900.5703	921.8334	941.9461	991.1869	999.8948	1015.7995	1033.0697	1097.6942	1130.6168	1165.7813	1192.0854	1195.2228	1206.679	1232.135	1244.7417	1251.653	1287.1674	1312.99	1320.8742	1341.8958	1346.5152	1394.9998	1420.2584	1470.4625	1478.4683	1483.027	1492.2958	1507.9958	1736.2378	2987.4694	3001.3036	3004.5658	3005.466	3019.6967	3032.7935	3035.0444	3039.2732	3060.251	3065.0697	3100.6882	3813.985
OC1CC2=C(CCC2)C1	O[C@H]1CC2=C(CCC2)C1	
InChI=1S/C8H12O/c9-8-4-6-2-1-3-7(6)5-8/h8-9H,1-5H2	InChI=1S/C8H12O/c9-8-4-6-2-1-3-7(6)5-8/h8-9H,1-5H2
