21
gdb 63828	2.9663	1.46396	1.31761	1.7546	82.32	-0.2364	0.0138	0.2501	1083.9904	0.182772	-387.097918	-387.089569	-387.088624	-387.130369	33.326	
C	 0.3187137956	 1.3675107436	-0.2890586977	-0.431983
C	 0.0231006097	-0.0961737887	 0.0129342012	 0.424344
C	-1.4762003333	-0.3691091374	 0.0472839447	-0.424341
O	 0.662632038	-0.9618340135	-0.9773126003	-0.347403
C	 1.4654714135	-1.61216279	 0.0392394477	 0.095982
C	 2.9115478746	-1.1936163039	 0.0533850588	-0.087387
C	 3.1684198539	-0.3450395378	 1.049266557	-0.057067
C	 1.9522676417	-0.0356300636	 1.8955021015	-0.291456
C	 0.8150605611	-0.7846708826	 1.1730880145	-0.133795
H	 1.3933661	 1.5564816129	-0.337738726	 0.124062
H	-0.1109784013	 1.6293901495	-1.2614124782	 0.121528
H	-0.1248384667	 2.0266438409	 0.4651670352	 0.10977
H	-1.9347292333	-0.0977196972	-0.9090876974	 0.12021
H	-1.6730572395	-1.4294728916	 0.2295310462	 0.115881
H	-1.9599482568	 0.2147135171	 0.8386032458	 0.110196
H	 1.3199420061	-2.6985804008	 0.0109207374	 0.072081
H	 3.6312175151	-1.5497640336	-0.6749695045	 0.097332
H	 4.1392233759	 0.0934355444	 1.2580398091	 0.096124
H	 2.0805452895	-0.3975206794	 2.9239697616	 0.106501
H	 1.7729181885	 1.0433234502	 1.9775360986	 0.109116
H	 0.1640172778	-1.3269436586	 1.8594123248	 0.070305
87.7047	194.1231	225.2608	239.3368	290.0356	308.4927	342.3497	400.5228	463.2257	513.3701	617.1006	696.3706	769.4268	772.7048	830.1994	859.9642	897.5957	926.4484	944.1521	964.5246	973.8696	978.4865	994.6645	1016.9735	1023.8698	1062.8718	1126.2109	1150.5235	1175.2681	1220.4896	1224.8192	1255.1689	1292.6919	1315.0865	1325.5199	1350.1736	1379.4206	1398.2472	1411.3165	1472.3158	1479.6454	1486.0196	1494.2605	1507.8103	1676.6723	3020.3748	3029.0012	3030.823	3036.6729	3048.4363	3097.7544	3100.3036	3105.2496	3112.4304	3126.2112	3177.6327	3207.483
CC1(C)OC2C=CCC12	CC1(C)O[C@H]2C=CC[C@@H]12	
InChI=1S/C8H12O/c1-8(2)6-4-3-5-7(6)9-8/h3,5-7H,4H2,1-2H3	InChI=1S/C8H12O/c1-8(2)6-4-3-5-7(6)9-8/h3,5-7H,4H2,1-2H3/t6-,7+/m1/s1
