15
gdb 34465	3.69655	1.51257	1.26958	4.0878	69.07	-0.2627	0.0059	0.2686	961.526	0.114649	-416.763077	-416.756434	-416.75549	-416.794069	26.152	
N	 0.0309602459	-1.078546672	-0.0372956518	-0.331344
C	 0.0101661759	 0.0770764926	-0.0458769341	 0.22355
C	-0.0692080002	 1.5114722383	-0.0398053783	 0.171351
C	-1.2973051299	 2.1817004835	 0.588149109	-0.157302
O	-1.4327594499	 3.4258794478	-0.0977686101	-0.252399
C	-0.1733669098	 3.6934156535	-0.6845012025	 0.058935
C	 0.9658593117	 3.6503871242	 0.3657758104	-0.186577
N	 1.2650791049	 2.2101346357	 0.0340704214	-0.175591
C	 0.392693618	 2.339102617	-1.1787735743	-0.097992
H	-2.198770253	 1.5824568823	 0.4313370979	 0.139153
H	-1.1639638194	 2.3352870095	 1.666514588	 0.124951
H	-0.2645403121	 4.545738104	-1.3548462715	 0.106868
H	 1.8395069012	 4.2406343998	 0.0821588005	 0.130959
H	 0.6999063092	 3.8576557094	 1.4059203127	 0.121497
H	 0.6634671376	 1.9829154644	-2.1643267673	 0.123941
152.4924	161.5169	273.3003	383.3115	434.3936	501.0874	535.9084	553.8684	655.0762	695.587	796.7684	852.3275	866.8822	904.9159	921.7543	976.7161	987.0193	1018.015	1050.7936	1068.3364	1115.724	1151.444	1195.2847	1201.2004	1229.9007	1255.8177	1295.3154	1314.4578	1341.0157	1402.4405	1490.3723	1521.4972	2363.9119	3024.5712	3065.7746	3088.8638	3127.017	3144.9247	3205.6974
N#CC12COC3CN1C23	N#C[C@@]12CO[C@H]3CN1[C@@H]23	
InChI=1S/C6H6N2O/c7-2-6-3-9-4-1-8(6)5(4)6/h4-5H,1,3H2	InChI=1S/C6H6N2O/c7-2-6-3-9-4-1-8(6)5(4)6/h4-5H,1,3H2/t4-,5+,6-,8?/m0/s1
