19
gdb 102100	2.55511	1.10572	0.92304	4.032	72.43	-0.2483	-0.0179	0.2304	1328.9626	0.155834	-460.140669	-460.130608	-460.129664	-460.176222	35.433	
C	-0.257584316	 1.4873515852	-0.0988609203	-0.442595
C	 0.11039925	 0.0278954685	-0.0358426712	 0.077261
O	 1.4880406506	-0.3308722992	-0.2149518468	-0.250362
C	 0.8798400127	-0.5838970934	 1.0606402777	 0.025386
C	 1.4132093457	 0.195209805	 2.2634117445	-0.113327
C	 1.8543828731	-0.7698334936	 3.3646358857	-0.105578
O	 2.3068787239	 0.0134954359	 4.4530138627	-0.416892
C	 2.6036362255	 1.0608252338	 1.8515025153	 0.191674
O	 2.5637987824	 2.2526459123	 1.7062084663	-0.249998
H	-0.2327336384	 1.8355657832	-1.1365673723	 0.131327
H	-1.2784022881	 1.6279709839	 0.2739163501	 0.120181
H	 0.4213059374	 2.1079098083	 0.488413129	 0.162741
H	-0.5704805889	-0.6381054007	-0.5704450265	 0.091234
H	 0.7098914133	-1.6458306462	 1.2521530818	 0.08784
H	 0.6455005469	 0.864001422	 2.6656456969	 0.112576
H	 1.0094673355	-1.4164442486	 3.6484997576	 0.098154
H	 2.6524592103	-1.4248954043	 2.9760731872	 0.100017
H	 2.6604488162	-0.5716549481	 5.1294636868	 0.293635
H	 3.5438037777	 0.488451386	 1.6911516354	 0.086728
50.6303	98.5697	120.7163	147.7028	191.0119	222.0269	229.7224	270.4256	311.3144	386.4705	395.9979	514.5349	535.1004	577.7841	781.1646	833.2182	876.0552	945.9623	968.4581	996.4357	1066.2176	1074.4627	1089.4274	1108.7621	1137.7819	1174.5972	1177.5024	1235.9203	1241.9199	1285.3203	1318.1236	1327.3659	1391.9039	1419.0951	1427.9304	1452.8884	1462.1001	1497.4668	1509.2471	1521.4118	1839.8747	2888.3903	2961.098	2996.1277	3038.9215	3067.3017	3073.8732	3088.2231	3099.5372	3145.5935	3831.6004
CC1OC1C(CO)C=O	C[C@H]1O[C@H]1[C@@H](CO)C=O	
InChI=1S/C6H10O3/c1-4-6(9-4)5(2-7)3-8/h2,4-6,8H,3H2,1H3	InChI=1S/C6H10O3/c1-4-6(9-4)5(2-7)3-8/h2,4-6,8H,3H2,1H3/t4-,5-,6-/m1/s1
