18
gdb 39036	3.20178	1.70125	1.2876	1.6919	77.26	-0.2213	0.002	0.2233	991.0553	0.150002	-401.917459	-401.910446	-401.909501	-401.948819	28.019	
C	-0.0927659422	 1.5283512644	 0.0995800911	-0.296125
N	 1.1964481281	 0.8212083733	-0.0178590109	-0.160519
C	 1.8362066564	 0.5342166739	 1.2983148942	-0.206068
C	 0.9350392181	-0.4683131148	 2.0081730135	-0.273808
C	-0.1126458102	-0.7425627994	 1.2364892449	 0.284592
C	-1.2050661143	-1.7515603232	 1.0740161373	-0.177472
O	-1.592359222	-1.6606415116	-0.3096564541	-0.277936
C	-0.654379514	-0.8730699161	-1.0591083046	-0.190117
C	-0.0570537411	 0.0514105682	-0.0198442152	 0.281341
H	-0.3682336686	 1.954270749	 1.0628017544	 0.110751
H	-0.3407115358	 2.1394920964	-0.7650824135	 0.116983
H	 2.8324402831	 0.1055289444	 1.1269147727	 0.118097
H	 1.9887939875	 1.4704489431	 1.8507669993	 0.115439
H	 1.1800614995	-0.9034078937	 2.9698240435	 0.10278
H	-0.8681217662	-2.7706493205	 1.3101808282	 0.114336
H	-2.0925379936	-1.5412234241	 1.6843017142	 0.120204
H	 0.1214704671	-1.5077688541	-1.5140375011	 0.103411
H	-1.2096290719	-0.3690148553	-1.854235854	 0.114112
109.8093	188.1342	261.2429	275.4457	405.0588	431.3315	556.3338	593.2573	658.7588	730.3626	775.6592	808.9578	845.4103	851.7511	903.6242	925.4959	948.6319	998.2985	1020.0194	1037.1441	1058.9414	1084.9145	1114.49	1119.3787	1141.1741	1200.2849	1208.6648	1209.959	1236.3609	1308.7548	1320.7311	1337.7849	1369.469	1412.2474	1487.0103	1501.9508	1506.0951	1518.0241	1735.8652	2987.2467	3003.5202	3013.82	3035.3817	3042.8711	3089.5956	3091.0786	3179.4811	3203.2555
C1N2CC=C3COCC123	C1N2CC=C3COC[C@]123	
InChI=1S/C7H9NO/c1-2-8-4-7(8)5-9-3-6(1)7/h1H,2-5H2	InChI=1S/C7H9NO/c1-2-8-4-7(8)5-9-3-6(1)7/h1H,2-5H2/t7-,8?/m0/s1
