20
gdb 107912	3.57313	1.16133	1.13408	1.9979	78.47	-0.2376	0.0749	0.3125	1183.3674	0.171067	-403.079864	-403.071419	-403.070475	-403.112854	32.738	
C	-0.0550597505	 1.5711842897	-0.0768582722	-0.419832
C	 0.100971495	 0.0616429247	-0.085583567	 0.095543
C	 0.7915025022	-0.7084446078	-1.2349638047	-0.105554
C	 2.2065384423	-0.0774447938	-1.3005625775	-0.293535
C	 2.3946052491	-0.6205643995	 0.1171722063	 0.314855
C	 3.6559739501	-0.6810459652	 0.9232563689	-0.184003
O	 4.7234721751	-1.2943414631	 0.2121543916	-0.412855
C	 1.332920926	-1.64380671	-0.0868253321	-0.111421
N	 1.0931646113	-0.5357346432	 0.8796595051	-0.197878
H	 0.8888676473	 2.0901661414	-0.258781382	 0.121932
H	-0.7730387653	 1.8873533805	-0.841720433	 0.116731
H	-0.4327465066	 1.8992562263	 0.8969699275	 0.12822
H	-0.860027519	-0.4098742141	 0.1487213559	 0.080319
H	 0.2637473575	-1.002581369	-2.1408101949	 0.070392
H	 2.8568527799	-0.6194741344	-1.9909469272	 0.1101
H	 2.2954062536	 0.9974774277	-1.4861739322	 0.094847
H	 4.0017623206	 0.3327745298	 1.154892948	 0.115027
H	 3.4498681588	-1.1830052261	 1.8794434113	 0.102582
H	 4.449251779	-2.1935893075	 0.0037212051	 0.280702
H	 1.2382432437	-2.6944651564	 0.157655313	 0.093828
80.7557	141.4746	166.6914	211.7942	279.2645	303.7557	354.5933	422.7799	490.605	562.2706	654.2825	701.9047	741.333	790.5949	822.4383	883.3489	884.9375	936.1267	948.6197	970.2058	999.5961	1026.6195	1067.7252	1075.4065	1104.9127	1112.8959	1122.6023	1160.1864	1162.867	1175.08	1225.7138	1255.1765	1278.2183	1314.1228	1357.654	1392.0942	1403.4344	1410.5912	1429.6796	1485.0384	1492.3494	1498.2402	1516.0202	3004.8362	3037.7497	3043.5048	3052.4766	3066.7217	3102.633	3110.9009	3126.5763	3128.8648	3191.8025	3809.6321
CC1C2CC3(CO)C2N13	C[C@H]1[C@H]2C[C@]3(CO)[C@H]2N13	
InChI=1S/C7H11NO/c1-4-5-2-7(3-9)6(5)8(4)7/h4-6,9H,2-3H2,1H3	InChI=1S/C7H11NO/c1-4-5-2-7(3-9)6(5)8(4)7/h4-6,9H,2-3H2,1H3/t4-,5+,6-,7-,8?/m0/s1
