21
gdb 115249	3.31521	0.91601	0.74807	0.8302	96.28	-0.2231	-0.0148	0.2083	1559.3212	0.181986	-349.95027	-349.940818	-349.939874	-349.984691	35.671	
C	 0.1021428233	 1.5811785136	-0.1140533564	-0.388626
C	 0.0238714598	 0.0533368124	-0.0427621335	-0.179319
C	-1.4068600019	-0.4989079375	 0.0721828573	 0.000674
C	-1.4802572136	-2.0481345894	 0.0004682894	-0.240971
C	-2.6401603373	-2.4636639214	 0.9330216971	-0.32403
C	-2.7785113139	-1.2619897096	 1.8575549704	 0.192411
C	-2.1100434956	-0.2025328144	 1.3760257679	-0.17617
C	-3.565105318	-1.3032568708	 3.0336037415	 0.198049
C	-4.2420643345	-1.3888662698	 4.0274325395	-0.413634
H	 1.1374790109	 1.9179020408	-0.225247201	 0.113799
H	-0.4661281532	 1.9668058086	-0.9680130077	 0.114846
H	-0.2999467461	 2.0511322386	 0.7894985717	 0.119569
H	 0.4859204079	-0.3738390288	-0.9422257597	 0.095625
H	 0.6135275186	-0.3116146165	 0.8082274283	 0.096574
H	-1.9953854452	-0.059130092	-0.7505347486	 0.078289
H	-1.6027001967	-2.4159733308	-1.0215673423	 0.097733
H	-0.5404046709	-2.4616735158	 0.3838291042	 0.103595
H	-3.5775204127	-2.621080955	 0.3832274495	 0.112934
H	-2.4410307535	-3.3901489135	 1.4803308037	 0.112232
H	-2.1027382759	 0.7737917474	 1.8463981278	 0.097519
H	-4.8368677315	-1.4472204561	 4.9048100108	 0.1889
78.9895	104.8934	122.6919	150.4705	215.8984	246.1432	308.5387	388.9026	457.3604	519.4111	537.5687	552.9137	589.7561	618.6956	631.4373	780.9208	838.3059	854.2765	892.3714	905.8818	951.0751	975.3652	990.4302	1036.5624	1059.5619	1114.4492	1128.1226	1169.6424	1192.7382	1240.4675	1269.4898	1276.3215	1290.818	1323.5512	1341.8775	1366.7528	1375.4919	1413.0417	1484.1029	1487.4376	1500.4514	1500.9647	1506.6802	1668.4518	2219.8344	2958.037	3016.0546	3021.852	3032.2751	3040.9992	3050.7473	3075.5182	3097.302	3098.797	3103.6649	3204.2465	3503.9375
CCC1CCC(=C1)C#C	CC[C@H]1CCC(=C1)C#C	
InChI=1S/C9H12/c1-3-8-5-6-9(4-2)7-8/h1,7,9H,4-6H2,2H3	InChI=1S/C9H12/c1-3-8-5-6-9(4-2)7-8/h1,7,9H,4-6H2,2H3/t9-/m0/s1
