18
gdb 106086	2.48096	1.67741	1.26371	4.3435	75.39	-0.2444	0.0054	0.2498	1054.7741	0.147736	-401.917135	-401.909167	-401.908223	-401.949927	30.348	
C	-0.0393528214	 1.5339958149	-0.3049176061	-0.388762
C	-0.0085701723	 0.0528616331	 0.0937836496	-0.330338
C	-1.3693299101	-0.5467168719	 0.2222934185	 0.366175
C	-1.9782195865	-1.873144555	 0.0671033829	-0.100175
C	-2.9215660507	-1.6730754394	 1.2558674483	-0.24715
C	-2.6763774029	-0.151367722	 1.0410965395	-0.249674
C	-3.2485851622	 0.0502016978	-0.3526784262	 0.436272
O	-4.0494334831	 0.7672962068	-0.8649849318	-0.323016
N	-2.2718021996	-0.8267444764	-0.9905947228	-0.238669
H	 0.9759615971	 1.9303370274	-0.3920007205	 0.120222
H	-0.5425266233	 1.6654433547	-1.2669249375	 0.147316
H	-0.5705485042	 2.1352579078	 0.4400371938	 0.12383
H	 0.5447207248	-0.5271010116	-0.6536463126	 0.123733
H	 0.5237854991	-0.070431791	 1.0455678911	 0.111762
H	-1.5499263808	-2.7916055336	-0.314087511	 0.113676
H	-3.9539181527	-2.0292849512	 1.1806691244	 0.116732
H	-2.4647684913	-2.0372710347	 2.1791822082	 0.118266
H	-2.7964765298	 0.5800477044	 1.8353637621	 0.099798
79.995	96.1701	200.0628	208.0539	296.9647	355.7724	445.1781	513.344	595.2589	620.1601	671.4013	736.8064	770.297	807.9545	860.7642	908.6895	934.3785	957.5872	970.4935	988.6915	1046.864	1077.4924	1086.6712	1119.0129	1120.7103	1144.0245	1171.319	1209.8778	1258.0049	1274.0777	1307.603	1346.3791	1412.9093	1453.0359	1473.9494	1499.118	1499.963	1509.172	1915.3487	3027.3221	3043.0001	3051.9879	3068.864	3112.6094	3113.9139	3123.6875	3164.4655	3199.2603
CCC12C3CC1C(=O)N23	CC[C@@]12[C@H]3C[C@@H]1C(=O)N23	
InChI=1S/C7H9NO/c1-2-7-4-3-5(7)8(7)6(4)9/h4-5H,2-3H2,1H3	InChI=1S/C7H9NO/c1-2-7-4-3-5(7)8(7)6(4)9/h4-5H,2-3H2,1H3/t4-,5-,7+,8?/m1/s1
