15
gdb 48345	2.56493	1.27299	1.00007	1.8964	67.4	-0.2665	-0.0497	0.2168	1159.3872	0.108279	-457.78205	-457.773154	-457.77221	-457.817763	30.818	
O	-0.269954247	-0.0434066826	 0.0119544458	-0.244335
C	-0.0850879726	 1.1148862763	 0.2801231557	 0.115136
C	 1.2164068925	 1.8491118179	 0.0107157985	 0.103583
C	 2.3412320971	 0.9659064794	-0.6213137799	-0.410159
C	 2.2476004258	 1.8060741101	-1.8991912924	 0.432049
O	 2.8145439583	 1.7886780956	-2.948306732	-0.270375
C	 1.1535387199	 2.7176189904	-1.3116505981	-0.419363
C	 1.6514160207	 2.6583015588	 1.2096348951	 0.116286
O	 1.0758674259	 2.6820289495	 2.266446806	-0.246571
H	-0.8827607132	 1.7437290996	 0.7231401761	 0.111783
H	 3.3180494847	 0.9995243595	-0.1293565428	 0.143118
H	 2.0302251164	-0.0765260315	-0.7371457	 0.175676
H	 0.1951004	 2.7030445883	-1.838655708	 0.155997
H	 1.4690695968	 3.7600482151	-1.1946127051	 0.148123
H	 2.5789663945	 3.2537952937	 1.0413638309	 0.089051
16.8456	68.131	80.8188	220.9001	251.9961	284.6247	312.474	412.6312	420.1388	480.8632	615.6536	659.4025	681.306	751.511	872.5468	882.9727	902.6364	985.9432	1053.3405	1065.6725	1098.0661	1129.8431	1152.5908	1212.7568	1233.8447	1291.6431	1412.8689	1415.6693	1425.247	1436.2525	1819.1474	1830.4003	1909.1567	2862.4909	2940.1394	3050.8777	3059.7301	3109.173	3118.8139
O=CC1(CC(=O)C1)C=O	O=CC1(CC(=O)C1)C=O	
InChI=1S/C6H6O3/c7-3-6(4-8)1-5(9)2-6/h3-4H,1-2H2	InChI=1S/C6H6O3/c7-3-6(4-8)1-5(9)2-6/h3-4H,1-2H2
