17
gdb 66794	2.9225	2.26714	1.82784	1.3789	72.54	-0.2412	0.0732	0.3144	807.8311	0.137877	-384.624046	-384.618045	-384.617101	-384.653881	26.581	
O	-0.0790481187	 1.3739880008	 0.0064919485	-0.493967
C	 0.0755956806	-0.0042943382	 0.0042042572	 0.409009
C	 0.6475369465	-0.7452733941	-1.2466148143	-0.168164
C	 0.6648785231	-2.1676524376	-0.7446648885	-0.075474
C	 0.5712187243	-2.1807523841	 0.7824221055	-0.075486
C	-0.7673754534	-1.6183494183	 1.2116981985	-0.084746
C	 0.4911756341	-0.7671359079	 1.3027320443	-0.168117
C	-1.2097790552	-0.886106672	-0.0821892135	-0.109567
C	-0.6118154034	-1.5965989938	-1.3246373683	-0.08474
H	 0.7961507545	 1.774669048	 0.0621516807	 0.279283
H	 1.2786789362	-0.3433322604	-2.0309841027	 0.079718
H	 1.2147287084	-2.9294048549	-1.2822044747	 0.084227
H	 1.0520550024	-2.952169914	 1.3700122885	 0.084225
H	-1.386287806	-2.0350839997	 1.9965581194	 0.083082
H	 1.0212973446	-0.3793185858	 2.1651068131	 0.079732
H	-2.1802129363	-0.4004243962	-0.1375398847	 0.0779
H	-1.1297225119	-1.9992040918	-2.1862683489	 0.083084
230.3213	301.9889	343.7235	559.1133	562.3513	575.2926	691.3899	717.4941	738.3372	770.5397	787.0811	804.8751	846.7407	847.8409	894.775	916.7906	922.1619	942.5387	978.3122	999.6368	1002.8138	1015.8176	1025.7352	1052.6216	1053.5934	1058.6098	1105.1609	1121.7958	1211.4107	1212.2186	1230.3109	1234.3122	1292.3548	1313.3981	1317.88	1373.8691	1400.3376	3159.312	3171.2861	3171.9066	3183.5041	3187.5157	3197.0945	3208.5256	3788.1947
OC12C3C4C5C(C15)C2C34	O[C@@]12[C@H]3[C@H]4[C@@H]5[C@@H]([C@H]15)[C@@H]2[C@@H]34	
InChI=1S/C8H8O/c9-8-5-1-2-4(6(2)8)7(8)3(1)5/h1-7,9H	InChI=1S/C8H8O/c9-8-5-1-2-4(6(2)8)7(8)3(1)5/h1-7,9H/t1-,2+,3+,4-,5-,6+,7-,8-
