19
gdb 52243	5.40924	0.70495	0.68749	3.6475	76.7	-0.2437	-0.0185	0.2253	1635.134	0.157674	-422.989342	-422.980565	-422.97962	-423.024179	31.863	
O	-0.4418928812	 0.5845820004	 0.7756153847	-0.23799
C	 0.1049882667	 0.9626113471	-0.2280139239	 0.156487
C	 1.3788033397	 1.7715473379	-0.2742695402	-0.26892
C	 1.1990692684	 3.0800802591	-1.0658166914	-0.228681
C	 2.518559132	 3.8094761688	-1.2488796712	 0.143793
O	 3.5267761029	 3.0177234098	-1.9505317398	-0.30749
C	 3.7782127507	 4.1106172193	-2.8401413081	 0.114336
C	 2.577313999	 4.4041032282	-3.6768358729	-0.298212
C	 2.6620182782	 4.9470293514	-2.2619477246	-0.157024
H	-0.3217541413	 0.7297473052	-1.2332425684	 0.06887
H	 1.7146791924	 1.9588618664	 0.7498337225	 0.119126
H	 2.1433741091	 1.1696833607	-0.7846139412	 0.143163
H	 0.760631316	 2.8622336065	-2.0463114279	 0.10606
H	 0.5024799238	 3.746395222	-0.5416277948	 0.114289
H	 2.9253902619	 4.104066186	-0.2718898478	 0.085831
H	 4.8082126357	 4.3303214997	-3.0941939322	 0.107942
H	 2.7152561946	 5.1587328846	-4.4451129532	 0.118713
H	 1.89590369	 3.6010360301	-3.9413712482	 0.116933
H	 2.6172439314	 6.0024164867	-2.0316777917	 0.102774
52.6762	65.1884	98.8229	139.6925	221.4783	302.1447	354.7561	476.4736	502.9928	551.3377	709.5289	760.8648	780.6762	814.4528	834.9776	923.754	948.7872	974.0996	985.3588	1003.2001	1033.6776	1042.9855	1051.0627	1084.2895	1090.04	1103.1711	1143.9487	1199.7648	1207.3735	1248.1599	1264.1884	1297.8818	1311.9841	1348.2349	1371.8496	1407.3092	1430.1836	1463.181	1474.9012	1483.8454	1837.0009	2844.2819	3011.4934	3024.5966	3033.1274	3072.3774	3102.8089	3121.1917	3185.3413	3205.1977	3214.2641
O=CCCC1OC2CC12	O=CCC[C@H]1O[C@H]2C[C@@H]12	
InChI=1S/C7H10O2/c8-3-1-2-6-5-4-7(5)9-6/h3,5-7H,1-2,4H2	InChI=1S/C7H10O2/c8-3-1-2-6-5-4-7(5)9-6/h3,5-7H,1-2,4H2/t5-,6+,7-/m0/s1
