16
gdb 25499	4.2984	0.974	0.86665	3.4757	79.36	-0.2424	-0.0361	0.2063	1308.6497	0.125613	-400.819902	-400.812186	-400.811242	-400.853422	28.091	
O	-0.4620333772	 0.8032493151	 0.938356151	-0.235189
C	 0.0685176438	 1.0739290809	-0.1062095288	 0.161607
C	 1.4159875805	 1.7766203881	-0.226849032	-0.3642
C	 1.375225722	 2.875125414	-1.262792648	 0.304296
N	 1.2325203894	 2.4763433958	-2.5343320773	-0.307562
C	 1.1682746047	 3.4142938	-3.4814294564	-0.002972
C	 1.2466208513	 4.7796533653	-3.22256436	-0.124286
C	 1.3901170301	 5.1889388704	-1.9010665577	-0.070826
C	 1.4504296199	 4.2227533118	-0.9033999579	-0.166037
H	-0.392493427	 0.8208499942	-1.0848358009	 0.099488
H	 1.7131795212	 2.1395463611	 0.7590874777	 0.123043
H	 2.1353280201	 1.0151399216	-0.5559738781	 0.144838
H	 1.0522068457	 3.0542016845	-4.5010828793	 0.11236
H	 1.1953276031	 5.4959839101	-4.0344823362	 0.105952
H	 1.4537091555	 6.2426597316	-1.6500881718	 0.112587
H	 1.557770717	 4.5025058552	 0.1388301758	 0.106902
41.5068	79.2593	142.923	263.812	359.2179	418.3248	435.7245	518.7584	603.4768	638.5763	760.5817	776.5819	799.874	864.8383	915.7737	984.8487	1004.0652	1012.2543	1024.9831	1051.165	1071.9538	1125.3057	1175.5862	1183.1462	1239.9107	1283.9363	1313.1719	1336.4893	1411.3119	1449.6385	1467.9931	1504.6917	1613.4715	1630.7273	1834.5937	2912.0163	3032.2923	3121.1458	3154.6844	3179.1898	3194.4725	3205.2494
O=CCC1=NC=CC=C1	O=CCc1ncccc1	
InChI=1S/C7H7NO/c9-6-4-7-3-1-2-5-8-7/h1-3,5-6H,4H2	InChI=1S/C7H7NO/c9-6-4-7-3-1-2-5-8-7/h1-3,5-6H,4H2
