16
gdb 15530	2.82414	2.05756	1.34012	1.9053	72.62	-0.2392	0.0141	0.2533	932.3835	0.129	-346.573196	-346.565173	-346.564229	-346.605751	29.305	
C	-0.1745144813	 1.5195551983	-0.0066227637	-0.495976
C	-0.0464080638	 0.0330485659	-0.0210496467	 0.320568
C	 0.0975346455	-0.801670096	-1.0447786153	-0.209094
C	 0.1958603127	-2.2191306481	-0.5657620803	-0.114934
O	 0.0167586332	-2.1481572465	 0.8493179424	-0.264563
C	-0.0524877191	-0.7838113849	 1.2649366259	-0.132192
C	 1.0599903785	-0.4331546263	 2.1578536222	 0.341944
C	 1.9650201542	-0.1252172682	 2.8864806224	-0.478335
H	 0.6219438717	 1.9718063269	 0.595372724	 0.144572
H	-0.1241757804	 1.9338672712	-1.0163887513	 0.128269
H	-1.1256934527	 1.8308460264	 0.443588339	 0.130241
H	 0.1483136525	-0.5258835189	-2.0910912198	 0.103403
H	-0.5818486147	-2.8699654137	-0.9920204684	 0.109111
H	 1.1695581775	-2.6766187279	-0.8035961278	 0.109449
H	-0.9943924177	-0.6384170212	 1.8191426838	 0.108165
H	 2.7656640441	 0.1347198531	 3.5341533136	 0.199372
65.189	135.5603	173.1703	231.7459	239.5874	305.1214	405.5844	499.6026	574.8263	616.8952	624.9692	668.1541	774.5303	804.4242	892.7037	934.3817	949.1169	1002.6721	1039.3539	1047.4011	1068.7523	1100.1554	1193.4276	1204.3982	1274.2104	1320.3561	1347.6661	1377.9346	1415.3581	1477.7203	1490.37	1521.984	1740.8545	2231.0564	2963.4676	2976.1616	3003.5581	3024.4779	3076.1573	3120.4575	3209.4702	3501.3904
CC1=CCOC1C#C	CC1=CCO[C@H]1C#C	
InChI=1S/C7H8O/c1-3-7-6(2)4-5-8-7/h1,4,7H,5H2,2H3	InChI=1S/C7H8O/c1-3-7-6(2)4-5-8-7/h1,4,7H,5H2,2H3/t7-/m0/s1
