19
gdb 81788	2.12196	1.91279	1.22687	3.887	75.5	-0.2324	0.0636	0.296	1063.2918	0.159331	-419.131371	-419.122889	-419.121944	-419.164054	33.091	
C	-0.1077332871	 1.5174275973	 0.0416943042	-0.525078
C	 0.1195352331	 0.0393747895	-0.0009347806	 0.251581
N	-0.7446862943	-0.9293872763	 0.7382359335	-0.396608
C	 0.7229784302	-0.9019737252	 0.9871924405	-0.154158
C	 1.3072727419	-1.7853227888	-0.1324796736	 0.077915
O	 0.89239957	-3.1201715392	-0.1685429711	-0.437591
C	 0.6855288776	-0.7839182818	-1.1482873559	 0.302039
C	 0.1446115452	-1.0156213808	-2.4973685076	-0.305488
N	 1.4265974117	-0.2911367135	-2.303635456	-0.381529
H	 0.7713603792	 2.0608411703	-0.3215742086	 0.132168
H	-0.9644904041	 1.8097156848	-0.5770734302	 0.131749
H	-0.3054810066	 1.8552734416	 1.0644518325	 0.12544
H	-1.1913418328	-0.4220394488	 1.5021188518	 0.228014
H	 1.1159486738	-0.7178146864	 1.9800044697	 0.094677
H	 2.3984590942	-1.7686683673	-0.1817792493	 0.100287
H	-0.0610297931	-3.0950340956	-0.0076969811	 0.2903
H	 0.2452969009	-1.9980052152	-2.9497487877	 0.12972
H	-0.7325380767	-0.4532631788	-2.8078958792	 0.109447
H	 1.2745969568	 0.7091593241	-2.4210184312	 0.227115
106.8946	184.4173	195.8207	218.6998	229.2468	260.76	371.9569	449.3304	489.3063	507.7697	580.5037	635.457	674.7866	744.3036	838.0682	870.5079	904.1079	920.9964	929.9314	973.4556	976.8023	1003.7197	1031.0774	1066.2991	1094.9163	1103.9092	1115.298	1142.6119	1209.5055	1234.0877	1258.6826	1278.4175	1303.1319	1334.2824	1398.7221	1419.2553	1440.3756	1460.9236	1483.9046	1497.1142	1513.1896	3023.6166	3085.3014	3096.622	3097.2521	3107.0362	3185.7783	3195.1729	3466.2861	3476.3729	3752.3162
CC12NC1C(O)C21CN1	C[C@]12N[C@H]1[C@@H](O)[C@]12CN1	
InChI=1S/C6H10N2O/c1-5-3(8-5)4(9)6(5)2-7-6/h3-4,7-9H,2H2,1H3	InChI=1S/C6H10N2O/c1-5-3(8-5)4(9)6(5)2-7-6/h3-4,7-9H,2H2,1H3/t3-,4+,5-,6-/m0/s1
