18
gdb 69103	2.51637	1.62274	1.21837	3.9709	76.4	-0.2337	0.0172	0.251	1056.7794	0.149756	-398.120996	-398.112632	-398.111687	-398.153736	32.203	
N	 0.0513023504	 1.4607158446	-0.1065888606	-0.5919
C	 0.0135327112	 0.0367564148	 0.0749255077	 0.263826
C	-0.3491341173	-0.9317934875	-1.0367071985	-0.362017
C	-1.3054806122	-0.7408708309	 0.1310270254	 0.196937
N	-1.2784771593	-1.7563761267	 1.1736283998	-0.349431
C	 0.1468733716	-1.8835471757	 1.5582584535	-0.197811
C	 0.8436710931	-0.543336197	 1.2140918025	-0.250302
C	-2.5546785142	-0.0766893357	-0.1003961986	 0.210748
N	-3.5366309129	 0.5071060316	-0.2873688761	-0.353069
H	 0.7637565193	 1.7242456293	-0.7803721073	 0.234075
H	-0.8356287413	 1.8142738422	-0.4525477803	 0.245881
H	-0.6578704228	-0.4944609787	-1.9794370984	 0.131449
H	 0.1445390354	-1.8939404717	-1.1237003528	 0.127711
H	-1.807975691	-1.4008889272	 1.964835632	 0.233493
H	 0.2227070477	-2.1460774152	 2.6153796976	 0.116869
H	 0.5944302288	-2.7076504494	 0.9932440717	 0.119269
H	 1.8960750517	-0.6877211665	 0.9497681191	 0.106031
H	 0.7998728717	 0.1643097298	 2.0479419832	 0.118242
107.7204	140.4299	145.3957	217.1586	272.0893	365.836	393.0451	430.0172	505.1946	569.0539	593.2179	615.1238	694.9877	723.8561	801.7455	838.1128	866.6369	905.1041	918.5645	943.0375	957.4524	1021.4167	1054.4905	1083.7895	1094.4984	1191.834	1218.0263	1250.2124	1274.257	1281.4002	1335.2813	1367.3447	1375.5107	1457.5283	1480.5939	1493.5506	1517.1184	1656.8124	2346.4623	3047.994	3051.3101	3093.6959	3112.6557	3134.3023	3226.4998	3492.3986	3503.8202	3568.6067
NC12CC1(NCC2)C#N	N[C@]12C[C@]1(NCC2)C#N	
InChI=1S/C6H9N3/c7-4-6-3-5(6,8)1-2-9-6/h9H,1-3,8H2	InChI=1S/C6H9N3/c7-4-6-3-5(6,8)1-2-9-6/h9H,1-3,8H2/t5-,6+/m1/s1
