19
gdb 106749	2.13907	1.60286	1.07213	3.0255	76.85	-0.2363	-0.0215	0.2148	1188.572	0.156254	-423.022612	-423.013181	-423.012237	-423.05709	34.528	
C	 0.3313417919	 1.4459923942	 0.2507164003	-0.383883
C	-0.2117447262	 0.044055994	-0.0649483515	-0.318461
C	 0.3549094359	-0.5032943502	-1.3344488139	 0.231073
O	 1.7473754223	-0.9252420221	-1.3603561475	-0.317334
C	 0.7653490778	-1.8615104359	-1.8095288407	 0.331297
C	 0.6694440585	-3.1948401451	-1.1439324358	-0.500706
C	 0.5371706726	-1.5123454287	-3.2929341687	-0.421745
C	 0.0673046547	-0.1165714223	-2.7842656957	 0.400267
O	-0.4754878066	 0.815062228	-3.3016253283	-0.306691
H	 1.4189822001	 1.4215374836	 0.3631685293	 0.134196
H	 0.087397006	 2.1443426787	-0.5548979246	 0.142801
H	-0.1013263329	 1.8289112224	 1.1791764512	 0.115003
H	 0.0193874364	-0.6473950039	 0.7533646384	 0.11104
H	-1.3037722852	 0.0792057843	-0.1601491969	 0.114907
H	 0.7376425255	-3.0896242411	-0.0580879882	 0.137601
H	-0.2768596441	-3.6844810603	-1.3941384804	 0.131221
H	 1.4842914144	-3.8485530073	-1.4738327126	 0.139113
H	 1.4271522159	-1.5454533428	-3.9247624339	 0.132167
H	-0.2887294069	-2.0421449856	-3.7782661404	 0.128135
57.0644	104.9637	134.5396	185.5786	202.2121	237.2233	276.9554	335.0709	401.8322	498.1923	514.1466	564.1094	616.98	660.7835	728.5706	761.2189	830.0218	853.6894	943.7467	968.291	983.3399	1025.1708	1061.4607	1095.3609	1131.0823	1147.4253	1187.575	1207.6914	1289.5497	1313.1001	1355.355	1406.2119	1413.2962	1436.7332	1465.4209	1471.0811	1486.193	1496.0236	1498.2224	1512.9257	1889.5136	3031.6008	3037.9265	3045.2706	3061.5375	3070.703	3101.3912	3119.0904	3123.3182	3123.7999	3125.1441
CCC12OC1(C)CC2=O	CC[C@@]12O[C@]1(C)CC2=O	
InChI=1S/C7H10O2/c1-3-7-5(8)4-6(7,2)9-7/h3-4H2,1-2H3	InChI=1S/C7H10O2/c1-3-7-5(8)4-6(7,2)9-7/h3-4H2,1-2H3/t6-,7+/m1/s1
