21
gdb 81236	2.79156	1.55591	1.41988	1.5071	82.41	-0.246	0.09	0.3359	1047.4307	0.184402	-387.023081	-387.015381	-387.014437	-387.055078	31.162	
C	-0.1849490695	 1.49934071	 0.1086658478	-0.450178
C	 0.0375221772	-0.0035125672	 0.0349535943	 0.035681
C	 1.1917472484	-0.6315981649	-0.7884027013	-0.123632
C	 2.1942158332	-0.1738884056	 0.3420771233	-0.338118
C	 0.9508135224	-0.7582050671	 1.0802405289	 0.305389
C	 0.4099285613	-1.3663076474	 2.3511213715	-0.392755
C	-0.50934821	-2.4792914272	 1.7149853557	-0.069726
O	-0.1619765685	-2.6514484282	 0.3147130852	-0.290002
C	 1.0201052181	-1.9168626183	 0.0956567074	 0.132719
H	 0.7288538448	 2.0765913414	 0.270294803	 0.11501
H	-0.6408740759	 1.8605635238	-0.8201694537	 0.118175
H	-0.8770511556	 1.7441729968	 0.9226528518	 0.114298
H	-0.9160763423	-0.5085945097	-0.1334872295	 0.084663
H	 1.3607063775	-0.5660379259	-1.864737693	 0.069225
H	 3.121740841	-0.7468007769	 0.4302780048	 0.096071
H	 2.3912571589	 0.893868723	 0.422779806	 0.10267
H	 1.2021883501	-1.8159902274	 2.9580126426	 0.10953
H	-0.1659266543	-0.6880877263	 2.986449498	 0.106611
H	-0.3890760009	-3.4376590405	 2.2332437322	 0.105249
H	-1.5667320371	-2.1981024534	 1.7595571404	 0.109375
H	 1.9035524714	-2.5675763588	 0.1336115446	 0.059744
96.0944	172.3419	201.2183	251.7062	342.3932	392.3691	445.429	522.5079	588.7167	676.6711	732.3206	763.0539	798.9109	827.9835	851.0665	893.3253	906.7772	935.1544	959.6899	986.7938	1012.2357	1027.5956	1065.2162	1080.8355	1100.7623	1128.0248	1135.6294	1147.1971	1176.7513	1194.6964	1216.2479	1225.1237	1232.1045	1254.6284	1277.5054	1313.9192	1370.5743	1395.6322	1407.5063	1418.4443	1488.7933	1495.5059	1496.9963	1517.4926	1529.6766	3013.3147	3030.1421	3031.4107	3052.1832	3065.4738	3068.8918	3081.2755	3084.6103	3097.0389	3103.0774	3116.5019	3145.5167
CC1C2CC11CCOC21	C[C@H]1[C@H]2C[C@]31CCO[C@@H]23	
InChI=1S/C8H12O/c1-5-6-4-8(5)2-3-9-7(6)8/h5-7H,2-4H2,1H3	InChI=1S/C8H12O/c1-5-6-4-8(5)2-3-9-7(6)8/h5-7H,2-4H2,1H3/t5-,6+,7-,8-/m0/s1
