16
gdb 44414	3.69332	1.4714	1.45353	1.966	70.76	-0.2528	0.0107	0.2635	937.9344	0.125524	-437.76866	-437.762113	-437.761169	-437.799419	26.839	
N	 0.057978562	 1.2259289144	-0.3876153169	-0.551503
C	 0.0578159041	 0.0273981986	-0.0384255563	 0.324749
O	 1.1479132316	-0.8391011585	 0.269135799	-0.297197
C	 0.166237611	-1.6798092104	 1.0166319102	 0.114623
C	-0.7067048804	-2.9953056908	 0.9103130017	 0.02484
C	-1.9083780691	-1.9343297272	 1.1334581923	-0.341028
C	-0.9451533092	-1.0965490484	 0.2062417807	 0.114748
C	-0.9463643977	-2.0230776247	-1.0454633945	-0.092515
O	-0.80691224	-3.3287767073	-0.445895562	-0.247991
H	 1.0076936682	 1.5963810598	-0.4548501215	 0.239803
H	 0.1931885019	-1.341721387	 2.0541676937	 0.107302
H	-0.563810328	-3.8807417455	 1.5284269906	 0.10219
H	-2.8670269473	-2.2557697755	 0.7218529546	 0.126624
H	-2.0125726327	-1.5563634519	 2.148503244	 0.129436
H	-1.8938857853	-1.9544462487	-1.589733075	 0.116335
H	-0.1142619892	-1.8405243069	-1.7294009707	 0.129586
140.3433	228.4777	319.2973	362.6629	457.2859	489.7071	593.0036	635.7784	689.1634	715.7015	777.4204	812.9866	818.8671	874.1039	891.4442	944.9149	954.4425	968.2768	989.3815	1020.726	1035.1816	1087.0497	1122.7916	1157.9532	1165.6327	1181.6383	1201.2383	1218.8494	1249.5912	1294.3523	1370.612	1397.3078	1478.5726	1514.3401	1819.7731	3049.1753	3082.9211	3089.3325	3107.9286	3140.9723	3171.9045	3477.5557
N=C1OC2C3CC12CO3	[NH][C]1O[C@@H]2[C@H]3C[C@@]12CO3	
InChI=1S/C6H7NO2/c7-5-6-1-3(8-2-6)4(6)9-5/h3-4,7H,1-2H2	InChI=1S/C6H7NO2/c7-5-6-1-3(8-2-6)4(6)9-5/h3-4,7H,1-2H2/t3-,4-,6+/m1/s1
