20
gdb 116762	4.51521	0.60105	0.55372	3.0172	87.91	-0.2483	0.015	0.2632	2006.9799	0.167148	-403.109972	-403.098982	-403.098037	-403.147433	37.887	
C	 0.0411441598	 1.4053467187	 0.0147833769	-0.249492
O	-0.0260686131	-0.0157768836	-0.0139382382	-0.191924
C	 0.5947819169	-0.6486392002	 0.9985689224	 0.128225
N	 0.5855835744	-1.9045493794	 1.0736872332	-0.210607
C	 1.2703213682	-2.5118330926	 2.1960430916	-0.156728
C	 0.302581562	-3.4152788581	 3.0035973917	-0.147187
C	-0.2625395723	-4.5610987362	 2.1431684496	-0.381573
C	 0.9744617081	-3.9201808577	 4.198735626	 0.324211
C	 1.5493655219	-4.3394377563	 5.1681827084	-0.474885
H	 1.078275369	 1.7596144144	-0.0258459456	 0.128868
H	-0.4901232941	 1.755202396	-0.8708933686	 0.148306
H	-0.4455609581	 1.8124670764	 0.9092964366	 0.128735
H	 1.095019272	 0.0191806062	 1.7186176104	 0.075134
H	 2.0847900939	-3.1408066329	 1.8149159927	 0.114544
H	 1.7199590668	-1.7706710524	 2.8769255736	 0.089799
H	-0.5351205836	-2.7794553465	 3.3221225217	 0.103501
H	-0.9899334602	-5.1481464905	 2.7096454892	 0.117964
H	-0.7436666157	-4.1492930148	 1.2539867431	 0.140945
H	 0.5414083924	-5.232275703	 1.8251405951	 0.120336
H	 2.0448408216	-4.7097816676	 6.0310535103	 0.191828
42.9067	56.8848	66.6481	135.8472	150.0748	188.8469	214.4521	238.593	255.0699	338.3155	400.2834	438.73	515.6026	534.7349	623.8042	625.6129	637.2489	829.1436	922.8843	929.6783	991.6831	1035.6331	1068.7313	1082.7817	1118.6382	1160.0935	1177.2298	1179.9606	1258.6315	1280.0222	1308.4983	1338.3829	1376.1951	1399.2885	1415.8057	1485.7487	1487.8425	1495.2578	1498.3723	1499.4426	1500.9663	1773.733	2233.1219	2965.8977	2984.53	3009.1051	3016.7548	3044.5196	3047.4947	3079.0817	3116.8424	3141.3375	3146.7118	3505.7259
COC=NCC(C)C#C	COC=NC[C@@H](C)C#C	
InChI=1S/C7H11NO/c1-4-7(2)5-8-6-9-3/h1,6-7H,5H2,2-3H3	InChI=1S/C7H11NO/c1-4-7(2)5-8-6-9-3/h1,6-7H,5H2,2-3H3/t7-/m0/s1
