25
gdb 104196	2.35189	1.25567	1.19119	1.6341	88.21	-0.2383	0.0756	0.3139	1280.7399	0.226488	-389.490745	-389.480021	-389.479077	-389.525627	40.991	
C	 0.5171769661	 1.5813681783	 0.1462725268	-0.398223
C	 0.2271664388	 0.0817234613	 0.010324952	-0.205019
C	 0.5279465526	-0.4867078711	-1.3877553777	 0.385954
C	-0.2865211388	 0.2140439505	-2.4667794662	-0.449315
O	 1.959060089	-0.371182131	-1.6565288788	-0.325754
C	 2.1692416047	-1.7681327566	-1.3863224571	-0.112145
C	 0.6524618271	-2.0648837483	-1.4427489689	 0.231496
C	 0.0554237047	-2.8920373768	-0.30565621	-0.461341
C	 0.2542758554	-2.6813111438	-2.7877609577	-0.442961
H	 1.5273446683	 1.8026590585	-0.2102253826	 0.136031
H	-0.1882236859	 2.1949568903	-0.4214411846	 0.114506
H	 0.4500993828	 1.8909430012	 1.193627519	 0.107823
H	 0.8422032331	-0.4516465918	 0.7420903445	 0.096131
H	-0.8183231682	-0.1297664741	 0.2692689915	 0.090292
H	-0.0477127687	 1.2807125369	-2.4838377507	 0.127303
H	-0.0737753349	-0.1846038786	-3.4589140198	 0.117968
H	-1.3599577939	 0.111762552	-2.2721930976	 0.11138
H	 2.7933095647	-2.2449805765	-2.1516063106	 0.094999
H	 2.6294170428	-1.9337470423	-0.4013420191	 0.087049
H	 0.3476406853	-2.5315075685	 0.6826765878	 0.116417
H	-1.039621396	-2.8979230725	-0.3523103643	 0.115286
H	 0.3872021224	-3.9335291487	-0.3858236621	 0.112859
H	 0.5471630619	-3.7370770059	-2.8120375773	 0.110482
H	-0.8279433718	-2.6350876754	-2.9506130157	 0.113181
H	 0.7469971184	-2.1851752973	-3.6278644706	 0.125601
77.8552	110.3096	170.9208	180.5794	204.6489	235.7506	271.0349	280.0975	338.6982	349.4318	354.9097	382.0873	386.4863	474.0863	524.053	624.3752	678.6525	788.9529	859.9443	868.5293	900.6741	933.981	958.0545	985.5392	996.3928	1020.1593	1029.8548	1039.2718	1061.1118	1152.6923	1160.3754	1188.7774	1192.7857	1231.7679	1268.205	1275.4447	1319.8084	1351.5255	1370.6468	1401.0186	1405.9726	1409.0687	1424.7126	1469.7049	1479.26	1485.4846	1493.595	1494.19	1505.6747	1507.7304	1511.545	1520.5321	1532.7455	2991.8515	3023.9372	3027.605	3033.0185	3041.9705	3045.8423	3048.8853	3069.2342	3084.7539	3092.1971	3106.4136	3111.8337	3115.2982	3119.848	3121.8719	3142.6088
CCC1(C)OCC1(C)C	CC[C@@]1(C)OCC1(C)C	
InChI=1S/C8H16O/c1-5-8(4)7(2,3)6-9-8/h5-6H2,1-4H3	InChI=1S/C8H16O/c1-5-8(4)7(2,3)6-9-8/h5-6H2,1-4H3/t8-/m1/s1
