18
gdb 23211	2.51682	1.30392	0.95348	0.7716	77.5	-0.2347	-0.0002	0.2345	1234.1029	0.145956	-439.014519	-439.005577	-439.004633	-439.048231	33.838	
O	-0.0886169612	 1.3464893569	 0.3837323495	-0.393025
N	-0.0297997195	-0.0557142013	 0.5088119594	-0.258771
C	-1.0841212752	-0.5960122523	 0.0583573249	 0.357785
C	-2.4017651622	-0.1246373818	-0.5311999003	-0.375565
C	-2.9054424007	-1.609002424	-0.4443091351	 0.059693
O	-3.437259073	-2.2042188553	-1.599286684	-0.428869
C	-1.4845804372	-2.0274973887	 0.0021927868	 0.233872
C	-0.682236775	-3.1705467443	-0.5840978646	-0.317744
C	-1.0469825269	-3.1726562523	 0.8722906961	-0.324619
H	 0.7492777564	 1.6193454342	 0.7724291792	 0.305545
H	-2.9477167427	 0.622692784	 0.0496131795	 0.131469
H	-2.3144626459	 0.2360507543	-1.5619750602	 0.12129
H	-3.658586892	-1.751285742	 0.3349983056	 0.100621
H	-2.7767766034	-2.1362372577	-2.2980360174	 0.28049
H	-1.2166163553	-3.8486124674	-1.242276221	 0.123149
H	 0.3452440953	-2.9636065343	-0.8618426471	 0.130137
H	-0.2678821761	-2.9643283515	 1.5975761439	 0.132263
H	-1.8140020854	-3.8640086864	 1.2064772049	 0.122279
65.3693	146.332	156.1046	203.9528	233.179	317.2114	348.9538	384.5616	413.8494	461.8055	510.5064	563.7969	610.1616	743.639	784.043	807.5105	854.3696	929.6557	947.9588	966.2723	992.0562	1002.5124	1052.0045	1080.9069	1091.8267	1117.5944	1129.8151	1190.818	1199.1331	1245.0858	1259.6901	1306.0175	1356.0156	1422.1703	1432.553	1454.6789	1456.8837	1491.1017	1778.886	3051.6523	3080.0976	3110.9002	3127.9611	3129.8692	3213.2709	3228.1004	3798.4579	3818.0694
ON=C1CC(O)C11CC1	ON=C1C[C@@H](O)C21CC2	
InChI=1S/C6H9NO2/c8-5-3-4(7-9)6(5)1-2-6/h5,8-9H,1-3H2	InChI=1S/C6H9NO2/c8-5-3-4(7-9)6(5)1-2-6/h5,8-9H,1-3H2/t5-/m1/s1
