16
gdb 33836	4.06479	1.18308	1.05688	4.6681	75.78	-0.2536	-0.0052	0.2484	1138.431	0.123554	-400.697879	-400.690242	-400.689297	-400.730003	29.628	
N	 0.0694385699	-1.0779017224	 0.1033423064	-0.345102
C	 0.0633720951	 0.0788140806	 0.0802069281	 0.220723
C	 0.0643907235	 1.5046922282	 0.0320912096	 0.334037
C	 0.2521085307	 2.3408073025	-1.2055611738	-0.334528
C	 1.2016855251	 2.5184544181	-0.0445012771	-0.259607
C	 0.4760992308	 3.1839821179	 1.096920596	 0.459059
C	 1.0136361412	 3.6722082676	 2.3957307104	-0.338524
C	 0.2684892839	 4.6137940278	 1.4534514022	-0.339668
O	-0.6177076596	 2.2396233663	 1.051547787	-0.332548
H	 0.6672121258	 1.8200104059	-2.061910866	 0.143409
H	-0.4995766709	 3.0925257989	-1.4252382399	 0.136815
H	 2.2664445022	 2.3436138226	-0.1100396627	 0.130185
H	 0.4983164551	 3.3499030861	 3.2935479044	 0.138584
H	 2.0880862685	 3.7839212775	 2.498856697	 0.124905
H	 0.8299462875	 5.3718357435	 0.9178065723	 0.125659
H	-0.7359901089	 4.9063596389	 1.7389569459	 0.136601
91.7146	150.9074	219.2557	269.9953	300.5796	438.8569	465.1663	504.6733	534.6984	592.3673	649.4631	753.8387	831.2869	846.4441	864.7166	891.824	947.4953	960.2902	976.1526	995.7994	1006.0505	1050.1619	1074.1721	1078.7506	1084.6877	1151.7872	1185.7202	1228.7151	1251.5367	1361.286	1405.718	1448.3489	1469.3151	1508.81	2351.3136	3128.9181	3133.3651	3135.5401	3216.571	3218.0183	3228.4674	3231.3
N#CC12CC1C1(CC1)O2	N#C[C@]12C[C@H]1C1(CC1)O2	
InChI=1S/C7H7NO/c8-4-7-3-5(7)6(9-7)1-2-6/h5H,1-3H2	InChI=1S/C7H7NO/c8-4-7-3-5(7)6(9-7)1-2-6/h5H,1-3H2/t5-,7+/m0/s1
