24
gdb 91941	1.98725	1.70063	1.41853	1.5524	87.25	-0.2232	0.0753	0.2985	1125.4192	0.217983	-368.402544	-368.393319	-368.392375	-368.435473	37.146	
C	 0.7687260345	 1.5156028736	-0.3660199887	-0.419664
C	 0.1609343389	 0.1759873441	 0.0758296328	-0.035198
C	 0.2343484174	-0.9361715832	-1.01544543	-0.175466
N	 1.2151586129	-1.9634877418	-0.6193675372	-0.098105
C	 2.552678159	-1.4187467417	-0.339042712	-0.274754
C	 1.599611421	-1.6674302654	 0.7710777487	-0.027592
C	 0.7816594456	-0.5108289059	 1.3486586778	 0.291375
C	 1.6355264223	 0.4108690643	 2.2314644944	-0.429621
C	-0.3558130239	-1.1126928641	 2.1993233126	-0.429936
H	 1.8308959684	 1.4491508197	-0.6175281922	 0.120104
H	 0.2480028204	 1.8791188336	-1.2584840152	 0.113762
H	 0.6607056299	 2.2814792731	 0.4082529248	 0.115594
H	-0.8939055868	 0.3794249563	 0.2895790701	 0.073046
H	-0.7331023327	-1.4396496706	-1.1150844269	 0.10368
H	 0.491284183	-0.5336008001	-2.0013834431	 0.09985
H	 3.3675214213	-2.1161104145	-0.5138169935	 0.112339
H	 2.7750098293	-0.3956325816	-0.6256138954	 0.107696
H	 1.7577537041	-2.5273701006	 1.4191929074	 0.079699
H	 2.4737289362	 0.8467130632	 1.6819139956	 0.112893
H	 1.0407871787	 1.2305659618	 2.6492720583	 0.110665
H	 2.0512134042	-0.1518891567	 3.074627219	 0.110554
H	 0.0438821329	-1.6961176738	 3.0362364202	 0.109817
H	-0.9916099093	-0.3238345911	 2.6156506306	 0.109245
H	-0.9893512674	-1.7774885785	 1.602880412	 0.120016
108.9619	201.9342	220.3627	246.89	256.6317	284.1625	306.8204	331.8473	360.7276	408.8748	424.2214	495.7784	584.6692	678.602	720.9935	760.3566	855.0813	860.5924	886.7667	939.8328	944.921	959.7799	1004.9788	1010.6816	1031.3194	1045.2388	1085.8038	1100.4016	1113.1558	1142.8829	1171.0411	1201.1576	1234.8551	1236.3341	1255.2196	1283.5882	1301.5895	1342.7865	1376.4074	1395.2947	1398.998	1412.6886	1429.147	1482.6044	1487.2608	1491.6845	1496.0171	1502.2129	1506.1772	1511.56	1517.7214	3023.7451	3028.8993	3031.0028	3035.8848	3042.7216	3074.7461	3087.6012	3094.2332	3097.4354	3099.5762	3108.9719	3112.9102	3117.7401	3122.28	3198.0071
CC1CN2CC2C1(C)C	C[C@H]1CN2C[C@H]2C1(C)C	
InChI=1S/C8H15N/c1-6-4-9-5-7(9)8(6,2)3/h6-7H,4-5H2,1-3H3	InChI=1S/C8H15N/c1-6-4-9-5-7(9)8(6,2)3/h6-7H,4-5H2,1-3H3/t6-,7-,9?/m0/s1
