20
gdb 22747	2.30488	1.56058	1.24479	1.0552	82.54	-0.2308	0.0146	0.2455	1110.5946	0.169259	-403.084652	-403.075477	-403.074532	-403.117782	35.63	
C	-0.0827224239	 1.5920964796	-0.0342741368	-0.443244
C	 0.0169225873	 0.0670419871	-0.0134386231	 0.205431
C	-1.3480465293	-0.5710680771	 0.2818624932	-0.432685
C	 0.7174106729	-0.6309146714	-1.2131005546	-0.073251
C	 2.1580451475	-0.2532788737	-1.3178304213	-0.305734
C	 1.75745992	-1.2715633072	-0.2668276665	-0.141429
C	 1.1021251448	-0.576318056	 0.8706695042	 0.406177
N	 1.327731202	-0.6751204561	 2.1141935886	-0.275903
O	 0.4201210841	 0.1202212074	 2.8563190002	-0.400776
H	 0.8772610714	 2.0658195401	-0.2564245369	 0.113167
H	-0.8019475104	 1.9160017218	-0.7953618686	 0.110518
H	-0.4195975642	 1.9624421438	 0.9376507493	 0.136825
H	-2.0816118093	-0.2573406196	-0.4697276814	 0.109387
H	-1.2873031483	-1.6636393344	 0.2626327989	 0.115737
H	-1.7067927318	-0.2667248525	 1.2677003638	 0.13777
H	 0.1835070323	-1.1121839817	-2.0235023578	 0.092095
H	 2.6908887817	-0.6761878298	-2.1639583884	 0.11878
H	 2.510074657	 0.7305654556	-1.0227566233	 0.119088
H	 2.1689287954	-2.2724089879	-0.252956995	 0.103201
H	 0.6939001206	-0.059050848	 3.7616992955	 0.304847
112.922	173.1228	200.7706	209.3369	250.3732	252.9553	314.1141	338.4069	373.1729	403.2348	483.3737	497.4358	660.6307	671.1693	703.2882	772.8284	807.2666	904.2595	929.5272	954.4384	958.9523	971.5389	1001.6963	1016.6139	1032.0854	1053.2892	1088.0001	1145.4703	1180.711	1202.8115	1220.601	1249.687	1301.7978	1335.9094	1395.8146	1406.7883	1417.3944	1477.9491	1486.3097	1496.0643	1500.715	1512.0927	1777.2384	3030.3405	3035.4971	3097.464	3103.2607	3120.0441	3122.7033	3128.3343	3185.9712	3198.4247	3208.4005	3823.6313
CC1(C)C2CC2C1=NO	CC1(C)[C@H]2C[C@H]2C1=NO	
InChI=1S/C7H11NO/c1-7(2)5-3-4(5)6(7)8-9/h4-5,9H,3H2,1-2H3	InChI=1S/C7H11NO/c1-7(2)5-3-4(5)6(7)8-9/h4-5,9H,3H2,1-2H3/t4-,5+/m1/s1
