19
gdb 115814	4.02305	1.062	0.9469	1.9702	71.12	-0.2459	0.0647	0.3105	1252.3556	0.159247	-460.142926	-460.13439	-460.133446	-460.175901	33.046	
O	-0.0476729172	 1.4023470947	-0.1357494601	-0.425098
C	 0.0310489289	 0.00151087	 0.0412191146	-0.063267
C	-1.3537699325	-0.6315239443	 0.0876947783	 0.094794
O	-2.0071361995	-0.2688067469	-1.1446243987	-0.285598
C	-3.0081740757	-1.2305209407	-1.4424747277	-0.14421
C	-2.5091201448	-2.540779958	-0.8481090828	 0.384313
O	-3.4161477906	-3.5750136144	-0.6552571292	-0.466384
C	-1.089359644	-2.8970375345	-1.1384861284	-0.31964
C	-1.4288196483	-2.1438985203	 0.1388676113	-0.161562
H	-0.6265923873	 1.541049485	-0.8944503823	 0.292715
H	 0.6187079878	-0.4774853553	-0.7572196572	 0.088387
H	 0.5485928884	-0.1729834415	 0.9904992057	 0.10545
H	-1.9091419953	-0.2020708964	 0.9381117168	 0.073158
H	-3.9758189754	-0.9667891643	-0.979316949	 0.081744
H	-3.1420171425	-1.2513270094	-2.5287485253	 0.116396
H	-4.0770855591	-3.2831477278	-0.0165024899	 0.283429
H	-0.8340936502	-3.943087819	-1.0149291762	 0.12532
H	-0.5693303642	-2.3835745924	-1.940505069	 0.123988
H	-1.3292969186	-2.6528759344	 1.0899535891	 0.096067
93.7836	141.3672	180.8317	232.4596	300.8469	336.2143	373.6164	389.142	436.13	476.3339	513.9931	578.0346	683.3668	724.5412	830.0244	897.4563	928.9998	936.4213	948.5502	1003.3792	1059.8851	1067.0754	1076.6386	1081.6851	1088.2755	1113.4415	1121.4557	1208.5454	1238.5337	1246.2755	1273.381	1318.4118	1324.7981	1351.471	1371.4591	1398.5131	1423.0807	1442.7387	1485.9701	1498.5884	1515.0846	2947.1654	2965.851	2991.0707	3073.8239	3076.0469	3134.579	3189.5551	3228.6218	3784.9842	3799.0693
OCC1OCC2(O)CC12	OC[C@H]1OC[C@@]2(O)C[C@@H]12	
InChI=1S/C6H10O3/c7-2-5-4-1-6(4,8)3-9-5/h4-5,7-8H,1-3H2	InChI=1S/C6H10O3/c7-2-5-4-1-6(4,8)3-9-5/h4-5,7-8H,1-3H2/t4-,5+,6-/m0/s1
