13
gdb 10799	4.96625	1.61262	1.26834	2.5666	54.89	-0.2638	-0.0064	0.2574	879.4385	0.09682	-435.799938	-435.793039	-435.792095	-435.831605	24.662	
O	-0.0158312347	-0.1042319297	-0.0614157282	-0.356368
C	 0.0085500477	 1.1060556708	 0.0144099122	 0.387205
C	-1.2536858796	 1.9216803358	 0.2745019392	-0.19413
O	-1.2488809035	 3.2503608004	-0.2672994689	-0.214075
C	-0.1261434575	 3.9966153265	-0.21848378	 0.434324
O	-0.1508856738	 5.1601749898	-0.5013162003	-0.313934
C	 1.151182926	 3.2817330423	 0.2113994882	-0.314774
N	 1.129042673	 1.8669857332	-0.107573721	-0.315156
H	-2.0950871464	 1.4051873717	-0.1859644733	 0.167236
H	-1.4317733638	 1.9688404036	 1.3570584528	 0.145608
H	 1.9756535812	 3.7704968094	-0.3093145944	 0.163605
H	 1.2923898291	 3.4674615747	 1.2880246207	 0.147177
H	 2.0006196722	 1.3683076816	-0.2141032271	 0.263281
70.3282	148.3551	158.8793	408.0502	417.1158	436.2238	502.5708	569.9088	595.1784	640.5591	783.908	793.0792	884.1613	1005.516	1028.5015	1064.7351	1117.0103	1214.9174	1251.8019	1258.004	1335.4986	1387.0597	1392.9682	1463.9294	1483.0954	1506.5519	1818.3969	1863.1933	2985.932	3030.0843	3123.2988	3148.4852	3611.6784
O=C1COC(=O)CN1	O=C1COC(=O)CN1	
InChI=1S/C4H5NO3/c6-3-2-8-4(7)1-5-3/h1-2H2,(H,5,6)	InChI=1S/C4H5NO3/c6-3-2-8-4(7)1-5-3/h1-2H2,(H,5,6)
