18
gdb 58795	3.47449	1.14993	1.01103	3.2178	74.21	-0.2589	0.0188	0.2777	1213.5513	0.146225	-439.056567	-439.04778	-439.046835	-439.090104	33.225	
C	-0.0652190256	 1.4697888836	-0.0516670103	-0.417069
C	-0.0466908039	-0.057524717	-0.0966323384	 0.007317
O	 0.781468978	-0.6248820503	 0.9091841849	-0.420139
C	-1.4364416724	-0.631664461	 0.0028087843	 0.467979
C	-2.2004154227	-1.0605309875	 1.2037419071	-0.345115
C	-1.9704104641	-2.0448518852	 0.0451809306	-0.263817
C	-2.8137390283	-1.6097432069	-1.1044401977	 0.444204
N	-3.5924553622	-2.1722535785	-1.9076253128	-0.554959
O	-2.3804034385	-0.2785632801	-1.0531737173	-0.314603
H	 0.9502304476	 1.8603390127	-0.158185216	 0.128348
H	-0.6864637481	 1.8709709563	-0.8569189981	 0.146162
H	-0.4804347086	 1.8239034048	 0.8999554047	 0.112992
H	 0.3854638055	-0.3840440067	-1.050015197	 0.106749
H	 0.620926919	-0.1426659641	 1.7277039863	 0.285561
H	-1.6097880846	-1.2981530795	 2.0826528789	 0.12622
H	-3.1904151483	-0.6585197137	 1.394090881	 0.129969
H	-1.4743678272	-2.9952848957	 0.1705536807	 0.130475
H	-3.9488566257	-1.5116778213	-2.6003369809	 0.229728
66.0752	117.2696	160.787	237.4951	278.0344	294.9122	324.3369	385.2364	434.4054	480.3844	506.611	643.9654	685.0866	737.7348	845.975	864.791	877.6579	910.6916	944.2686	971.6519	986.1779	995.8907	1043.6782	1066.5647	1075.2387	1100.9545	1120.3559	1148.0715	1217.0116	1287.5332	1306.5013	1362.8206	1400.4853	1405.8217	1411.9442	1482.8778	1491.0246	1499.5326	1833.1214	3029.8723	3045.3022	3105.6715	3126.4806	3130.3052	3220.929	3240.1146	3478.7721	3804.9463
CC(O)C12CC1C(=N)O2	C[C@@H](O)[C@]12C[C@H]1[C]([NH])O2	
InChI=1S/C6H9NO2/c1-3(8)6-2-4(6)5(7)9-6/h3-4,7-8H,2H2,1H3	InChI=1S/C6H9NO2/c1-3(8)6-2-4(6)5(7)9-6/h3-4,7-8H,2H2,1H3/t3-,4+,6-/m1/s1
