18
gdb 71648	3.18938	1.97835	1.69221	0.7791	73.22	-0.2031	0.0703	0.2734	868.0155	0.149322	-401.881995	-401.875474	-401.874529	-401.9124	27.682	
C	 0.0651647295	 1.5415019456	 0.1291206594	-0.48599
C	-0.0146788427	 0.0442221051	-0.0355057724	 0.378877
C	 0.2867094098	-0.6464130025	-1.3874541753	-0.207817
N	-0.7860993171	-1.6655494444	-1.1146229066	-0.146822
C	-0.4080561362	-2.5956331855	-0.0174225429	-0.079878
C	 0.2044097351	-1.8670171864	 1.1658804307	 0.087035
O	 0.7708256442	-0.597071409	 0.9728727929	-0.289989
C	-1.2839012983	-1.8650767739	 1.0067074935	-0.14239
C	-1.3841010515	-0.7655046083	-0.0503042152	-0.069869
H	 1.1023956127	 1.8810174574	 0.0434480355	 0.130585
H	-0.5259534182	 2.0459703455	-0.6407161278	 0.117957
H	-0.309193883	 1.8405260151	 1.1128653529	 0.126238
H	 0.0045756916	-0.0529449061	-2.2629584537	 0.101498
H	 1.2995758255	-1.0385309927	-1.510269037	 0.108091
H	-0.2657380557	-3.6543193486	-0.2084368812	 0.092637
H	 0.6945403303	-2.4395475889	 1.9435255199	 0.108268
H	-2.0272037604	-2.2049639085	 1.7135616524	 0.098024
H	-2.3171210557	-0.252807784	-0.2803172251	 0.073545
201.2285	233.4749	273.9485	380.9278	434.3699	574.3775	589.6431	640.9028	719.8215	748.1413	767.4963	797.9825	832.4477	858.9909	899.7171	914.9511	938.2507	942.1479	991.1787	1004.8135	1014.2252	1048.941	1061.6777	1081.3276	1128.3232	1156.5155	1167.6734	1180.7537	1211.4661	1220.0626	1235.6755	1272.6442	1303.4197	1335.9449	1394.5341	1411.8117	1480.5621	1483.7811	1492.8714	3038.0092	3045.3822	3108.9684	3110.0727	3117.2119	3122.0027	3159.2555	3199.8402	3216.876
CC12CN3C4C(O1)C4C23	C[C@@]12CN3[C@H]4[C@@H](O1)[C@H]4[C@@H]23	
InChI=1S/C7H9NO/c1-7-2-8-4-3(6(7)8)5(4)9-7/h3-6H,2H2,1H3	InChI=1S/C7H9NO/c1-7-2-8-4-3(6(7)8)5(4)9-7/h3-6H,2H2,1H3/t3-,4+,5-,6-,7-/m0/s1
