23
gdb 116497	2.86557	1.14421	0.89828	1.8068	82.05	-0.2521	0.0821	0.3342	1382.957	0.207046	-425.434627	-425.425296	-425.424352	-425.469134	35.073	
C	-0.2167711149	 1.5655665122	 0.0093762337	-0.3876
C	-0.0356884822	 0.0463512935	 0.0012699915	-0.183109
C	 0.7618657138	-0.4663146412	-1.2000099592	 0.126675
C	 0.9271628382	-1.9945024404	-1.1704474527	-0.189276
C	 2.0409639168	-2.5861053399	-2.0634506835	-0.224962
C	 2.3536475682	-1.7955066823	-3.3431101482	-0.073355
O	 1.2022277971	-1.3049463448	-4.0143065116	-0.231367
C	 0.7638393765	-0.0514126312	-3.5641030997	 0.009163
O	 0.0379395726	-0.0717528815	-2.3701106545	-0.245138
H	 0.7502304391	 2.0788880394	 0.0643655734	 0.106956
H	-0.7213752623	 1.897264388	-0.9009949888	 0.132656
H	-0.8119059436	 1.8857799341	 0.8698872749	 0.109203
H	 0.4773406306	-0.2767756006	 0.9147807797	 0.093083
H	-1.0150297553	-0.4485116794	-0.0018468925	 0.10521
H	 1.7485417379	 0.0299217932	-1.206466887	 0.058975
H	 1.0989905069	-2.3178579199	-0.1374875463	 0.093403
H	-0.041541523	-2.4073035586	-1.4703933761	 0.116239
H	 2.9781687453	-2.6621029229	-1.497265808	 0.096956
H	 1.7626678232	-3.6117496533	-2.3285116586	 0.106846
H	 3.0242060892	-0.9528818673	-3.1133860172	 0.088691
H	 2.8804982128	-2.439333946	-4.0552973113	 0.105283
H	 1.6336860858	 0.6254674169	-3.4657637624	 0.073528
H	 0.0757709272	 0.327749072	-4.3235846657	 0.111938
61.6498	88.9869	136.5592	184.1021	216.2114	257.267	324.5886	357.8699	428.3265	440.2592	487.5519	581.5298	634.6753	758.9524	763.3503	850.976	873.1256	906.8174	939.1824	998.6208	1006.9124	1041.2252	1081.36	1083.5078	1105.4865	1120.5882	1143.9727	1168.5189	1198.8528	1243.0631	1270.0876	1297.0958	1303.34	1318.7051	1336.2105	1370.0525	1383.2114	1396.0376	1401.4458	1406.6339	1417.9391	1452.1496	1469.3539	1479.8175	1489.2938	1493.8721	1496.1648	1508.9832	1509.911	2921.7232	2946.6623	2981.5526	3024.5584	3028.5169	3035.2623	3042.1316	3058.8955	3066.0585	3073.5399	3089.4567	3099.4112	3102.2804	3128.0794
CCC1CCCOCO1	CC[C@H]1CCCOCO1	
InChI=1S/C7H14O2/c1-2-7-4-3-5-8-6-9-7/h7H,2-6H2,1H3	InChI=1S/C7H14O2/c1-2-7-4-3-5-8-6-9-7/h7H,2-6H2,1H3/t7-/m0/s1
