16
gdb 61045	2.9684	1.17871	0.88173	1.69	66.54	-0.2739	-0.0437	0.2302	1242.6061	0.123181	-475.021959	-475.013414	-475.01247	-475.055934	30.618	
O	 0.093809586	 1.4893223472	 0.0041450101	-0.437888
C	 0.0580852726	 0.0908883978	 0.0019356628	 0.032197
C	 0.7642374914	-0.4595766502	-1.22944898	 0.124332
O	 1.237870771	 0.2906372377	-2.049722797	-0.264704
C	 0.7006060263	-0.465756506	 1.2790540191	-0.155557
C	-0.0505451309	-0.2242970758	 2.60560995	-0.101364
O	-0.2149212034	-1.6713343999	 2.7774359243	-0.250892
C	 0.4273748517	-1.9257913882	 1.5882913848	 0.430589
N	 0.6525552599	-3.0011921493	 0.9828464613	-0.545337
H	 0.5542156938	 1.7352846543	-0.8159586288	 0.297453
H	-0.9852093345	-0.2720593412	-0.0434863929	 0.102086
H	 0.8208923453	-1.5589794399	-1.3173610778	 0.14498
H	 1.7588044524	-0.1960629739	 1.3133155899	 0.121049
H	 0.5319552194	 0.2022980576	 3.4237258978	 0.131324
H	-1.0192277087	 0.272675217	 2.520923483	 0.137068
H	 0.2930343776	-3.8087131472	 1.4943368135	 0.234664
69.8755	95.3698	136.7994	145.9048	279.8404	308.8442	357.7153	367.9985	476.0793	521.3496	623.0597	738.5994	766.625	825.9505	866.858	915.5516	955.055	961.8082	985.3311	1022.6883	1091.13	1129.3192	1153.1283	1164.3849	1214.0301	1242.4643	1263.961	1290.0624	1359.8885	1375.3074	1392.5417	1439.2291	1517.0637	1807.3355	1818.1744	2943.2666	2997.2144	3076.0961	3090.8397	3139.4045	3480.3261	3663.6841
OC(C=O)C1COC1=N	O[C@@H](C=O)[C@H]1CO[C]1[NH]	
InChI=1S/C5H7NO3/c6-5-3(2-9-5)4(8)1-7/h1,3-4,6,8H,2H2	InChI=1S/C5H7NO3/c6-5-3(2-9-5)4(8)1-7/h1,3-4,6,8H,2H2/t3-,4+/m1/s1
