14
gdb 18444	3.09409	2.17919	1.66916	3.8675	61.54	-0.2598	0.0113	0.271	788.3458	0.107604	-378.673227	-378.666158	-378.665214	-378.70447	26.149	
O	-0.0388783442	 1.4542835182	-0.1051582235	-0.416032
C	-0.0007008612	 0.0578153079	 0.0062313503	 0.098307
C	 0.2296629003	-0.6334439016	 1.3854569622	-0.224465
N	-1.0781538017	-1.3834698934	 1.2711347692	-0.139658
C	-2.1445130591	-0.3533678936	 1.2449311545	-0.161257
C	-2.0823672591	 0.8495878039	 2.0390540722	 0.325129
N	-2.0743947772	 1.7783919298	 2.727592816	-0.346414
C	-1.3687186938	-0.6004191814	 0.002074555	-0.039313
H	 0.8569713367	 1.7992192748	-0.0315512356	 0.293194
H	 0.6408844806	-0.3932928557	-0.7622100691	 0.092405
H	 1.0564347686	-1.3446614743	 1.3998612693	 0.121127
H	 0.2869401443	 0.0272125368	 2.2539320444	 0.139522
H	-3.1295186718	-0.8123522906	 1.259420637	 0.145723
H	-1.8533877023	-1.0525295008	-0.8569338119	 0.111731
115.6743	159.0036	215.638	246.6543	345.4986	426.8145	483.0194	573.2411	617.1242	746.2506	766.6734	770.2378	881.989	919.8003	978.7395	989.8924	1033.0108	1066.2543	1101.0538	1156.387	1198.6699	1201.5836	1224.5841	1281.4076	1318.8941	1352.0801	1404.8535	1437.4152	1492.9081	2356.2522	3015.8741	3073.844	3138.3072	3152.2749	3172.8356	3818.0291
OC1CN2C(C#N)C12	O[C@H]1CN2[C@@H](C#N)[C@@H]12	
InChI=1S/C5H6N2O/c6-1-3-5-4(8)2-7(3)5/h3-5,8H,2H2	InChI=1S/C5H6N2O/c6-1-3-5-4(8)2-7(3)5/h3-5,8H,2H2/t3-,4-,5-,7?/m0/s1
