18
gdb 33787	3.5425	1.41503	1.20876	0.5299	77.89	-0.2182	0.0357	0.2539	1055.3253	0.148487	-401.866789	-401.859202	-401.858258	-401.898502	30.578	
C	-0.0818386437	-1.2063782673	-0.0206940077	-0.332674
C	-0.1099146567	-0.0061090292	 0.0297080253	 0.172503
C	-0.0822869855	 1.4387912752	 0.136481215	 0.238614
C	 0.0278759792	 2.1396495837	 1.5170262871	-0.210564
N	 0.7772836429	 3.2604460637	 0.8409307321	-0.132869
C	 1.2146815552	 2.2414728787	-0.1804533516	-0.240124
C	-0.2308048907	 4.1346575356	 0.2068269453	-0.182924
C	-1.0781035949	 3.3775326611	-0.8481042898	-0.091942
O	-1.2077868417	 1.9840979301	-0.5553121395	-0.308759
H	-0.0679486991	-2.2670774794	-0.0731873842	 0.190134
H	-0.914927649	 2.4176519948	 1.9939104354	 0.110382
H	 0.6803079919	 1.6197297902	 2.2233091131	 0.113808
H	 2.1104438369	 1.7222829421	 0.1665468084	 0.121346
H	 1.3706233445	 2.6051791286	-1.1980675578	 0.115758
H	-0.8580089522	 4.5433096085	 1.0054249874	 0.113523
H	 0.2760293344	 4.9786765069	-0.2745720148	 0.10726
H	-2.0949233612	 3.7762358886	-0.9067859717	 0.113777
H	-0.6263494802	 3.4946160381	-1.8427277321	 0.102752
135.7913	145.334	209.8126	318.8623	419.4989	434.7332	452.0873	523.8208	536.9395	561.3104	632.3999	656.8775	667.6347	801.5855	827.4284	869.7507	900.8171	915.0855	923.8029	963.1677	1025.6439	1048.3213	1084.2387	1101.4766	1162.3953	1168.2747	1219.3382	1243.4344	1263.1461	1267.9054	1287.7818	1316.1702	1363.6732	1396.2271	1480.3624	1495.8817	1504.4729	1528.4531	2241.0741	3001.2595	3036.4613	3055.1774	3071.7772	3074.1815	3089.8363	3123.1389	3129.941	3501.4527
C#CC12CN(C1)CCO2	C#C[C@@]12CN(C1)CCO2	
InChI=1S/C7H9NO/c1-2-7-5-8(6-7)3-4-9-7/h1H,3-6H2	InChI=1S/C7H9NO/c1-2-7-5-8(6-7)3-4-9-7/h1H,3-6H2
