19
gdb 80955	2.30177	1.45398	1.39697	3.4006	81.45	-0.2241	0.0175	0.2416	1077.3316	0.15839	-382.011798	-382.002995	-382.002051	-382.044901	33.398	
C	 0.0028714485	 1.4963377913	 0.0709711043	-0.367273
N	 0.0523920706	 0.0381628614	-0.0063000018	-0.121592
C	-1.084454369	-0.8002170124	 0.5204456923	-0.045198
C	-0.0879544975	-1.9869333692	 0.4636433283	-0.248492
C	 0.6542637179	-0.785179377	 1.1223256323	 0.312339
C	 2.0854848906	-0.6650160659	 1.552328347	-0.519871
C	-0.6449868419	-0.6090702877	 2.0151831665	-0.167002
C	-0.9159349268	 0.5871695918	 2.7905547358	 0.259619
N	-1.1452979656	 1.4828953956	 3.487185044	-0.344725
H	 1.0073983174	 1.8808033878	-0.1341369878	 0.124914
H	-0.6516657913	 1.8523894366	-0.7314207542	 0.126161
H	-0.3445597119	 1.9329189571	 1.0133338637	 0.144875
H	-2.0959432397	-0.7352741284	 0.1194458574	 0.098676
H	-0.2966657987	-2.8563639943	 1.0889988422	 0.098436
H	 0.2593958306	-2.2382201791	-0.5367212185	 0.114967
H	 2.748448298	-0.819315696	 0.6954498364	 0.139113
H	 2.2883754172	 0.3247199792	 1.9737546894	 0.140803
H	 2.3236351258	-1.4133623186	 2.3143761429	 0.131828
H	-0.8612701839	-1.4668996323	 2.6599487599	 0.122424
107.3023	145.3962	172.6807	197.5352	205.8478	285.8585	324.0524	378.5502	463.8202	494.3009	526.9813	640.8325	658.2171	739.9509	745.5064	781.2993	866.3635	904.0625	950.4831	1000.7566	1036.3324	1077.6956	1089.9871	1102.8913	1144.603	1155.8814	1172.6214	1188.5682	1208.3996	1215.6003	1255.799	1325.6082	1375.822	1411.6367	1448.599	1481.5552	1488.1267	1495.9574	1498.5853	1503.2821	2338.0029	3029.211	3037.9497	3055.6154	3084.915	3095.5437	3098.0823	3109.8243	3114.8724	3120.9704	3172.7172
CN1C2CC1(C)C2C#N	CN1[C@H]2C[C@]1(C)[C@H]2C#N	
InChI=1S/C7H10N2/c1-7-3-6(9(7)2)5(7)4-8/h5-6H,3H2,1-2H3	InChI=1S/C7H10N2/c1-7-3-6(9(7)2)5(7)4-8/h5-6H,3H2,1-2H3/t5-,6-,7+/m0/s1
