15
gdb 123373	3.7294	1.03766	0.9017	3.7935	71.88	-0.2182	-0.005	0.2132	1256.5212	0.112533	-416.745126	-416.736999	-416.736055	-416.778779	29.79	
C	 0.0173947335	-0.0478653005	 1.2212395708	-0.45387
C	 0.0253737643	 0.5851398465	 0.1994144439	 0.31011
C	 0.0697153131	 1.3565642854	-1.0489669791	-0.334136
N	 1.281734271	 2.1418903989	-1.2613799612	-0.385183
C	 1.5354981354	 3.1943989612	-0.3789795697	 0.173901
C	 0.7609646063	 3.7417240573	 0.6009113678	 0.006995
O	 1.3835825129	 4.8136711729	 1.1390015998	-0.170414
N	 2.608918855	 4.9824273344	 0.5256740789	-0.127059
C	 2.6912836524	 4.0316292735	-0.3706539958	-0.040136
H	 0.0067129415	-0.6061869429	 2.1249066344	 0.206599
H	-0.0410501612	 0.6785345645	-1.9019511879	 0.144465
H	-0.7852101328	 2.0430361789	-1.0899334228	 0.149333
H	 2.0932917763	 1.5555374505	-1.4079568102	 0.244069
H	-0.1990797334	 3.4924474952	 1.0199422994	 0.148114
H	 3.5720510258	 3.9621685641	-0.9939070485	 0.127212
52.5647	68.1558	179.1622	211.3166	317.4385	355.2591	395.9743	564.7154	601.701	622.9876	633.1979	670.0593	672.4992	715.0586	776.7853	888.6514	922.8569	927.7825	937.135	984.8279	1049.7192	1097.2819	1137.2967	1217.9213	1262.3598	1308.9694	1370.8497	1387.1412	1464.9886	1482.8541	1514.3721	1674.0489	2231.8037	3032.3475	3072.7388	3239.0055	3286.6906	3502.4114	3565.1841
C#CCNC1=CON=C1	C#CCNc1conc1	
InChI=1S/C6H6N2O/c1-2-3-7-6-4-8-9-5-6/h1,4-5,7H,3H2	InChI=1S/C6H6N2O/c1-2-3-7-6-4-8-9-5-6/h1,4-5,7H,3H2
