21
gdb 73274	2.27951	1.77674	1.35572	1.7945	77.8	-0.2427	0.0762	0.3189	1058.4087	0.183632	-424.222351	-424.214128	-424.213184	-424.254791	32.419	
C	-0.0478733334	 1.537237843	-0.0585710183	-0.455811
C	-0.022050683	 0.0199586839	 0.0070409868	 0.341388
C	-1.2530715762	-0.7416460009	 0.5385024869	-0.103645
O	-0.4246455181	-1.5628598479	 1.3891702564	-0.300504
C	 0.699508008	-0.6719808368	 1.2029319442	 0.107939
C	 2.0203806082	-1.3818164038	 0.9594253291	-0.240804
C	 2.1067340029	-1.9501356975	-0.4611620692	-0.204863
C	 1.6758433896	-0.8756472329	-1.4557452167	-0.075878
O	 0.3127850021	-0.5258538513	-1.2652940119	-0.300785
H	 0.9443786157	 1.9333676566	-0.3000459652	 0.119329
H	-0.73880167	 1.8667184673	-0.8405059858	 0.128087
H	-0.3643210568	 1.9725367815	 0.8942025429	 0.115023
H	-1.9526515199	-0.1268570427	 1.1211901614	 0.088414
H	-1.7943873932	-1.3257674782	-0.2109261764	 0.111805
H	 0.7837446618	 0.0097911212	 2.0624847392	 0.060738
H	 2.8309424176	-0.6566598271	 1.1125029693	 0.097412
H	 2.1435066115	-2.1616910558	 1.7192422021	 0.112781
H	 3.1260302653	-2.2854161094	-0.6811565023	 0.092731
H	 1.4398102756	-2.8120137198	-0.5685285536	 0.118371
H	 2.329363573	 0.0095618021	-1.3673501657	 0.08138
H	 1.7418280992	-1.2309830714	-2.4879940731	 0.106892
115.3537	143.2105	202.6791	240.8692	293.9493	361.0085	366.9724	398.7077	472.3019	503.9131	636.1423	642.3947	787.4969	827.5304	845.1018	884.2577	894.5284	955.0363	967.6285	992.6786	1008.4915	1015.2411	1080.3447	1115.1343	1126.2545	1150.2592	1183.9565	1197.2895	1224.895	1235.2724	1259.4869	1302.5675	1308.1816	1358.3409	1372.6662	1376.1237	1395.6421	1407.1304	1414.1383	1467.616	1479.4583	1485.4678	1490.6045	1505.7305	1506.998	2957.1823	2982.4384	3008.8094	3023.4374	3035.2676	3043.6038	3070.0874	3084.6404	3091.038	3093.2242	3102.6698	3113.7057
CC12COC1CCCO2	C[C@]12CO[C@H]1CCCO2	
InChI=1S/C7H12O2/c1-7-5-8-6(7)3-2-4-9-7/h6H,2-5H2,1H3	InChI=1S/C7H12O2/c1-7-5-8-6(7)3-2-4-9-7/h6H,2-5H2,1H3/t6-,7-/m0/s1
