23
gdb 62947	2.00297	1.81351	1.40202	0.2713	89.24	-0.2405	0.0889	0.3294	1102.1347	0.204991	-351.119023	-351.110056	-351.109112	-351.151686	36.426	
C	-0.106569461	 1.5662693847	-0.0185801377	-0.444649
C	 0.0055611878	 0.042949246	-0.0013033078	 0.234053
C	-1.3601910593	-0.6036882939	-0.2438187175	-0.432969
C	 1.0760805743	-0.5938545963	-0.9202148488	-0.063792
C	 2.4803002703	-0.2373195395	-0.5186221533	-0.310011
C	 1.7414827155	-1.2800446527	 0.2745345442	-0.135859
C	 0.7557298619	-0.6052478605	 1.206387804	 0.362685
C	 1.0570269469	-0.0097417358	 2.5524184024	-0.329269
C	 0.1422246679	-1.2096358831	 2.4318068069	-0.348076
H	 0.8615280057	 2.0503363757	 0.1364683865	 0.113223
H	-0.5070543949	 1.914543696	-0.9775963753	 0.109919
H	-0.7841997246	 1.9203649057	 0.7675557587	 0.107703
H	-1.762425276	-0.3005408797	-1.2177592566	 0.106822
H	-1.2884953123	-1.6955267716	-0.2318953671	 0.114892
H	-2.0853074454	-0.3037748755	 0.5206365974	 0.107478
H	 0.8554786138	-1.0112796252	-1.8964533951	 0.077935
H	 3.2529639006	-0.6141192286	-1.1820415215	 0.106908
H	 2.713138613	 0.7247878534	-0.0697338768	 0.106798
H	 2.0917168471	-2.3018984682	 0.3645636049	 0.082197
H	 2.0491654572	-0.1553762	 2.968295071	 0.108305
H	 0.6040224347	 0.9442018253	 2.8041048815	 0.107911
H	-0.9181093999	-1.0629502292	 2.6115721277	 0.109214
H	 0.5155843568	-2.1736118471	 2.7641751624	 0.108582
126.5742	200.1028	208.9461	235.2815	258.9013	270.9398	289.4064	341.7617	393.7103	492.9011	522.186	567.0034	631.8859	762.7429	779.2478	793.6278	865.4137	902.0008	919.5531	937.1208	942.0579	948.8016	976.2781	992.3863	1006.5071	1033.2886	1048.6563	1055.4243	1066.6712	1076.1888	1086.6613	1175.8929	1183.2355	1189.1732	1217.9301	1239.2663	1242.9889	1297.1723	1340.5161	1392.3367	1398.7898	1419.739	1462.083	1480.5021	1481.8544	1491.7203	1497.8511	1503.5049	1508.8231	3021.2968	3026.357	3080.9539	3087.4848	3103.6078	3108.275	3112.6364	3118.711	3122.3282	3165.347	3175.0234	3194.9768	3197.8724	3210.1171
CC1(C)C2CC2C11CC1	CC1(C)[C@H]2C[C@H]2C21CC2	
InChI=1S/C9H14/c1-8(2)6-5-7(6)9(8)3-4-9/h6-7H,3-5H2,1-2H3	InChI=1S/C9H14/c1-8(2)6-5-7(6)9(8)3-4-9/h6-7H,3-5H2,1-2H3/t6-,7+/m0/s1
