17
gdb 31848	5.07478	1.02985	0.86541	2.6088	79.78	-0.2366	-0.0344	0.2022	1326.3157	0.13642	-418.058586	-418.050045	-418.049101	-418.092787	30.528	
C	-0.0854125424	 1.393340736	 0.0879851194	-0.24998
O	 0.0501453062	-0.0172747423	 0.0266473593	-0.262548
C	 0.649234495	-0.5451720416	-1.0670358936	 0.307788
C	 1.1564783216	 0.155424104	-2.1579407121	-0.114674
N	 1.7320545248	-0.4685683363	-3.1917746561	-0.277805
C	 1.8074402917	-1.798583042	-3.1476590284	 0.345571
C	 2.4523977652	-2.5103683671	-4.3046733912	-0.459685
N	 1.3474568597	-2.5621400335	-2.1399099002	-0.276801
C	 0.7791260619	-1.9385091356	-1.1202413927	-0.054465
H	 0.8918643761	 1.8922084966	 0.0730849253	 0.130955
H	-0.6956307962	 1.775015869	-0.7403366808	 0.130956
H	-0.5855047458	 1.6088700798	 1.0329405593	 0.1428
H	 1.1068208804	 1.2386039836	-2.2167013594	 0.109715
H	 3.3097408436	-3.0983410487	-3.9615869613	 0.137032
H	 1.7481222168	-3.2131538221	-4.761420701	 0.137031
H	 2.7832360602	-1.7910893332	-5.054228557	 0.133734
H	 0.4015240611	-2.5408481266	-0.2963737595	 0.120378
36.6417	79.7651	133.9687	219.1587	235.4313	351.9965	372.0771	434.9495	441.2352	529.4522	545.1648	648.8886	750.1124	775.9636	862.6669	935.242	978.2502	1005.888	1041.9219	1067.4229	1072.9849	1176.6177	1207.6829	1237.7133	1290.7776	1307.787	1327.2392	1405.5378	1421.672	1467.6237	1479.2893	1479.6743	1490.3165	1498.7989	1505.5361	1588.2896	1632.2944	3008.1916	3045.5403	3069.8456	3101.0611	3141.7848	3152.8213	3153.8022	3172.4854
COC1=CN=C(C)N=C1	COc1cnc(C)nc1	
InChI=1S/C6H8N2O/c1-5-7-3-6(9-2)4-8-5/h3-4H,1-2H3	InChI=1S/C6H8N2O/c1-5-7-3-6(9-2)4-8-5/h3-4H,1-2H3
