19
gdb 108242	2.26527	1.5262	1.17777	3.5862	71.38	-0.2424	0.0484	0.2908	1114.9822	0.158286	-460.115436	-460.106389	-460.105445	-460.148973	34.666	
O	 0.2282515116	 1.1106202271	 0.6359335041	-0.424416
C	 0.0416152703	 0.0145922619	-0.2458798736	-0.18479
C	-1.3730265983	-0.5130337689	-0.2364179373	 0.235164
C	-2.4884020909	-0.2735076478	-1.2650983848	-0.290723
C	-2.9906370653	-1.7475849176	-1.0705937377	-0.305046
C	-1.9209866882	-1.9273885452	-0.0011294222	 0.281728
O	-1.1736128951	-3.0764997802	 0.243759425	-0.46722
C	-2.0228579836	-0.8908706013	 1.0825616734	 0.012268
O	-1.142970802	-1.0695973571	 2.1613275486	-0.451738
H	 0.0220673121	 0.7693542284	 1.5150895033	 0.293836
H	 0.2959837328	 0.3764765405	-1.247794989	 0.10686
H	 0.7405164832	-0.803119247	-0.0144770158	 0.095118
H	-3.2049725278	 0.5135024007	-1.0093406497	 0.105422
H	-2.1109540263	-0.0906903374	-2.2735860622	 0.111571
H	-4.0302798519	-1.888452173	-0.7559371031	 0.096538
H	-2.7963671579	-2.3626030594	-1.95247763	 0.114851
H	-1.7624707043	-3.7474390317	 0.6122751932	 0.292587
H	-2.9715533651	-0.4518698216	 1.3926987026	 0.08978
H	-0.7414913535	-1.9431074905	 2.0477228652	 0.288212
69.0685	132.0269	195.9681	247.7782	261.3253	281.2834	300.7518	338.5016	421.7228	473.5712	512.5815	555.6799	578.7531	675.4388	699.4983	781.5489	789.7135	869.2957	927.7461	946.0701	994.658	1052.9242	1062.3134	1083.1659	1128.5845	1143.5062	1197.8592	1219.8883	1230.7871	1233.0588	1258.4794	1280.5112	1314.1568	1325.5805	1383.4054	1396.5604	1437.9541	1452.8817	1480.1284	1498.2566	1510.0183	2989.1439	3041.5379	3051.6358	3068.3653	3097.2037	3097.7848	3115.6061	3728.0736	3765.9054	3781.0486
OCC12CCC1(O)C2O	OC[C@@]12CC[C@]1(O)[C@H]2O	
InChI=1S/C6H10O3/c7-3-5-1-2-6(5,9)4(5)8/h4,7-9H,1-3H2	InChI=1S/C6H10O3/c7-3-5-1-2-6(5,9)4(5)8/h4,7-9H,1-3H2/t4-,5+,6-/m0/s1
