20
gdb 45358	2.74621	1.63045	1.44108	3.3486	78.73	-0.2494	0.027	0.2764	1006.5082	0.175156	-403.189287	-403.182065	-403.181121	-403.221047	29.473	
N	-0.0675545112	 1.3251020061	-0.4320400778	-0.515062
C	-0.0185680382	 0.1167923246	-0.0560219577	 0.383867
C	-1.2892891099	-0.6998975877	 0.1038301032	-0.280412
C	-1.1211608284	-1.9171325373	 1.025930297	-0.021034
C	-0.7232137472	-1.4961715422	 2.4643982824	-0.217788
C	 0.8294551579	-1.355466252	 2.4233603471	-0.225485
C	 1.210045656	-1.7019510649	 0.971257201	 0.118634
C	 0.1216040941	-2.6852273966	 0.5419958183	-0.234606
O	 1.17673973	-0.5175421598	 0.1428449011	-0.268528
H	 0.8802540868	 1.6994470996	-0.5169772597	 0.214865
H	-2.0773714975	-0.0252637521	 0.4462131062	 0.129749
H	-1.5821698081	-1.0421428907	-0.897022382	 0.12502
H	-2.0347717484	-2.5166036076	 1.0116865687	 0.068985
H	-1.218565823	-0.5697726264	 2.7675226832	 0.109702
H	-1.0205377316	-2.2669183134	 3.1812969829	 0.10125
H	 1.1822100922	-0.355133593	 2.6838250631	 0.117956
H	 1.3088328944	-2.0598034145	 3.1096410021	 0.104002
H	 2.2301389767	-2.0731976765	 0.8640257347	 0.083535
H	 0.2444167087	-3.63450597	 1.0747035477	 0.100183
H	 0.1306043166	-2.8854461858	-0.5330406214	 0.105167
79.2945	132.8845	332.5308	376.3203	402.5768	428.2076	479.8486	529.6983	590.8212	738.0887	752.2787	797.2986	830.2604	841.0781	884.9146	903.9634	915.1171	936.8206	962.7508	979.7824	1015.9085	1020.5153	1070.265	1087.8263	1099.6692	1165.8062	1181.4402	1197.2152	1232.615	1262.2712	1278.6998	1302.6444	1309.8549	1325.21	1351.8667	1354.9716	1378.2498	1412.8455	1467.2268	1481.0907	1487.4313	1509.6231	1744.0994	3032.2976	3047.3068	3052.3316	3063.0601	3077.7286	3092.9184	3100.9558	3105.444	3107.0237	3116.5711	3457.0897
N=C1CC2CCC(C2)O1	[NH][C]1C[C@@H]2CC[C@@H](C2)O1	
InChI=1S/C7H11NO/c8-7-4-5-1-2-6(3-5)9-7/h5-6,8H,1-4H2	InChI=1S/C7H11NO/c8-7-4-5-1-2-6(3-5)9-7/h5-6,8H,1-4H2/t5-,6+/m1/s1
