19
gdb 74986	2.84347	1.51761	1.12962	3.1948	82.48	-0.2305	-0.0375	0.1929	1123.0202	0.160144	-385.927049	-385.918785	-385.917841	-385.960463	31.002	
C	-0.2763582079	 1.5288331938	 0.0057957846	-0.490853
C	-0.0965504337	 0.0475659367	-0.0591330192	 0.20371
C	-0.1237735105	-0.7704666579	-1.1240375935	-0.170895
C	 0.1121326799	-2.2137906417	-0.7852601921	-0.065864
C	 1.5697714751	-2.7405831882	-1.0275740244	-0.226083
C	 1.8542635103	-2.6233047937	 0.4943976598	-0.224336
C	 0.3656472531	-2.1982622382	 0.7451864819	-0.131734
C	 0.1791146839	-0.7472848054	 1.1727985476	 0.326248
O	 0.2724985519	-0.3031512091	 2.2963045938	-0.339699
H	 0.6056886011	 2.0042148931	 0.4489198905	 0.141901
H	-0.4521672882	 1.9631611325	-0.9814314488	 0.118855
H	-1.1188383253	 1.7844920393	 0.6577100331	 0.143003
H	-0.2717317894	-0.4402545741	-2.1489049772	 0.10386
H	-0.6769750401	-2.8668895838	-1.1680461231	 0.081996
H	 1.5958418882	-3.7677541246	-1.3980696788	 0.106452
H	 2.1869011876	-2.1213025267	-1.6825145001	 0.103112
H	 2.13304386	-3.5600563109	 0.9797163085	 0.113376
H	 2.5860944011	-1.8633819274	 0.7768186322	 0.114706
H	-0.2047893772	-2.8824346338	 1.3738101852	 0.092246
57.9685	96.1424	143.2948	204.7842	252.7191	364.9757	372.6196	487.537	589.899	626.366	726.4291	737.7304	776.2201	795.41	874.2464	894.2429	907.2722	946.7599	965.7986	981.1159	1028.3942	1046.2024	1069.1764	1090.4804	1116.5116	1182.4401	1221.2321	1227.5259	1230.3205	1264.5598	1273.3091	1282.2655	1318.81	1344.6468	1412.6665	1472.2725	1478.4826	1482.7638	1494.1548	1687.3423	1799.303	3036.2132	3061.7409	3067.2065	3074.4981	3089.625	3107.3457	3112.9178	3121.7488	3131.7828	3167.6225
CC1=CC2CCC2C1=O	CC1=C[C@H]2CC[C@H]2C1=O	
InChI=1S/C8H10O/c1-5-4-6-2-3-7(6)8(5)9/h4,6-7H,2-3H2,1H3	InChI=1S/C8H10O/c1-5-4-6-2-3-7(6)8(5)9/h4,6-7H,2-3H2,1H3/t6-,7-/m1/s1
