19
gdb 65499	3.47502	1.06972	0.95456	1.1784	76.47	-0.2535	-0.0237	0.2297	1268.369	0.156632	-423.006943	-422.997974	-422.99703	-423.040889	33.516	
C	-0.5265177393	 1.6417636791	-0.0624170621	-0.462476
C	 0.1050622805	 0.2630686864	 0.0390531202	 0.211351
C	 1.3731672454	-0.0229653565	-0.8539683069	-0.368287
C	 2.0585732374	-0.6103007487	 0.3771589964	 0.479225
C	 2.8156805929	-1.8573788136	 0.5018070673	-0.267662
O	 3.4479954909	-0.5734747197	 0.6222130967	-0.269226
C	 0.9922851002	-0.038128325	 1.3077928501	-0.368272
C	-0.9069361804	-0.8426238476	-0.146935256	 0.138275
O	-2.0823697698	-0.6809015575	-0.3526497911	-0.259798
H	 0.2270957741	 2.4228644819	 0.0751525668	 0.111404
H	-0.9991728259	 1.7834203695	-1.0386656141	 0.132114
H	-1.3035838266	 1.7715940661	 0.6964342857	 0.132099
H	 1.2432875452	-0.6725338928	-1.7239579355	 0.114851
H	 1.840569218	 0.91165762	-1.1759681753	 0.125335
H	 2.7591568397	-2.4365593594	 1.4227139336	 0.119652
H	 3.0786576045	-2.4238471686	-0.3907572872	 0.119651
H	 1.3192292148	 0.890945416	 1.7827601932	 0.125338
H	 0.5744224266	-0.6991332844	 2.0720857519	 0.11486
H	-0.4759300182	-1.8702321953	-0.0784175138	 0.071568
55.0312	92.2047	199.7497	235.7746	250.9816	307.744	311.4121	350.4789	390.505	435.9763	436.0856	622.0004	744.5319	805.6185	841.2106	856.1907	866.3024	906.7488	907.0748	965.6642	995.1848	1022.2042	1080.9046	1127.2546	1136.0553	1142.4499	1155.6365	1201.9709	1203.192	1238.8738	1262.4518	1325.5429	1411.5386	1430.5528	1440.0802	1462.8236	1484.6172	1487.6553	1493.6723	1537.0297	1827.7454	2845.9718	3041.3445	3055.6415	3059.0574	3080.2222	3110.6765	3111.8611	3115.5587	3116.1657	3168.3381
CC1(CC2(CO2)C1)C=O	C[C@]1(C[C@]2(CO2)C1)C=O	
InChI=1S/C7H10O2/c1-6(4-8)2-7(3-6)5-9-7/h4H,2-3,5H2,1H3	InChI=1S/C7H10O2/c1-6(4-8)2-7(3-6)5-9-7/h4H,2-3,5H2,1H3/t6-,7-
