20
gdb 57917	3.25671	1.11138	0.92678	4.5533	77.22	-0.2361	0.0242	0.2602	1324.0218	0.169693	-440.283106	-440.272998	-440.272053	-440.319958	34.438	
C	 0.1055871991	 1.4948305439	 0.1243536912	-0.343787
N	 0.0478051145	 0.0433069773	 0.0874691716	-0.091168
C	 0.2170596494	-0.624141292	 1.3629657591	-0.337671
C	-0.145195883	-0.5848755633	-1.1190865096	 0.379424
O	-0.3204207116	 0.0237975775	-2.1575715535	-0.366199
C	-0.1595576381	-2.1226635597	-1.1029986605	 0.007815
C	-1.5447065582	-2.756461351	-0.7951876238	-0.283381
C	-1.5068076584	-3.1634000729	-2.2825166694	-0.065153
O	-0.1629729812	-2.6617852129	-2.4281423188	-0.257015
H	 1.0731030734	 1.833688541	 0.5167789804	 0.12009
H	-0.0266570145	 1.8665020513	-0.8903274494	 0.171666
H	-0.6850688295	 1.8987535586	 0.7695205663	 0.118206
H	-0.4648389796	-0.1900488617	 2.105227359	 0.1278
H	-0.008824757	-1.6868078835	 1.2932280871	 0.144904
H	 1.2412206175	-0.5111174765	 1.7457491863	 0.126796
H	 0.6854055122	-2.5166318927	-0.5264733985	 0.093445
H	-1.5130558679	-3.5889987224	-0.0904920949	 0.113158
H	-2.3335769579	-2.0613825269	-0.5039967062	 0.119962
H	-1.5685122417	-4.2365267737	-2.495198931	 0.104128
H	-2.2112617874	-2.6245045804	-2.9266132853	 0.11698
34.6506	55.3073	70.8967	101.3435	150.3175	191.1961	237.9351	287.2432	340.6666	387.0594	455.9972	600.1852	707.8078	753.4951	801.923	841.6527	927.0797	954.6025	979.0052	1045.6875	1069.1742	1084.094	1092.6381	1131.0155	1160.5289	1162.2076	1179.186	1212.9182	1254.1455	1273.2946	1286.8399	1344.8509	1365.1599	1425.4794	1436.8107	1474.8196	1483.3374	1488.5674	1502.3896	1504.2145	1525.5974	1542.5266	1769.7426	3001.6921	3012.7702	3024.6745	3032.5248	3048.3653	3057.8038	3069.2861	3079.7198	3136.4797	3160.2444	3169.6655
CN(C)C(=O)C1CCO1	CN(C)C(=O)[C@H]1CCO1	
InChI=1S/C6H11NO2/c1-7(2)6(8)5-3-4-9-5/h5H,3-4H2,1-2H3	InChI=1S/C6H11NO2/c1-7(2)6(8)5-3-4-9-5/h5H,3-4H2,1-2H3/t5-/m1/s1
