17
gdb 55529	4.33162	0.89828	0.85421	3.3526	72.06	-0.2638	-0.0197	0.2441	1390.3328	0.13488	-455.154902	-455.145718	-455.144774	-455.190193	32.12	
C	 0.5012938191	 0.8774736431	 0.1200085529	-0.478855
C	-0.6636339667	-0.0704187404	 0.1272555231	 0.381118
N	-1.6411573623	-0.1518126523	 0.9126806865	-0.429718
O	-0.7022629863	-0.937884991	-0.9765455555	-0.241413
C	 0.2609537696	-1.8804701777	-1.1114379449	 0.470856
O	 1.1594472658	-2.061487303	-0.3256828449	-0.383759
C	 0.0535581784	-2.6756818451	-2.3523253533	-0.126229
C	 1.2797096813	-2.9518807261	-3.1675571111	-0.220349
N	 0.6591555572	-4.0144786213	-2.3895409275	-0.300313
H	 1.432114124	 0.3185642463	 0.2416690793	 0.17714
H	 0.5475591217	 1.4062381389	-0.8376363111	 0.147684
H	 0.4076359576	 1.6065514571	 0.9266723678	 0.131961
H	-1.5693425569	 0.5559480443	 1.6433447244	 0.234131
H	-0.911464856	-2.5694276327	-2.8333492424	 0.120341
H	 1.1749438206	-3.0374832649	-4.2449587512	 0.131819
H	 2.2129411026	-2.5224297409	-2.814988193	 0.133559
H	 1.1813474903	-4.1367453342	-1.5220439991	 0.252027
42.7559	62.6802	105.7279	154.3487	169.208	280.64	284.6787	334.1894	457.1605	513.18	572.1402	698.9309	763.6099	814.724	836.9057	865.7147	915.2603	955.1164	985.3978	1006.4616	1024.9305	1067.4214	1079.589	1118.1165	1136.898	1177.122	1211.3441	1283.2369	1315.329	1319.1832	1401.8509	1410.3148	1469.3473	1489.5564	1497.0415	1770.3687	1805.0117	3050.0078	3116.8232	3122.9979	3147.1614	3187.922	3210.9391	3478.6384	3495.3751
CC(=N)OC(=O)C1CN1	C[C]([NH])OC(=O)[C@H]1CN1	
InChI=1S/C5H8N2O2/c1-3(6)9-5(8)4-2-7-4/h4,6-7H,2H2,1H3	InChI=1S/C5H8N2O2/c1-3(6)9-5(8)4-2-7-4/h4,6-7H,2H2,1H3/t4-/m1/s1
