17
gdb 98600	3.02916	1.04304	1.00618	2.5946	67.36	-0.2511	-0.0458	0.2053	1244.4267	0.133367	-496.088835	-496.079683	-496.078738	-496.122975	33.875	
O	 0.0063860791	 1.3717600483	 0.0167037603	-0.41784
C	-0.0111320369	-0.0222523508	-0.0078020524	-0.130119
C	-1.4242994628	-0.5744305814	 0.0505299125	 0.408296
O	-2.3650464246	 0.231374265	 0.1105264348	-0.436608
C	-1.6346219028	-2.0079375992	 0.0348962001	-0.299275
C	-2.8886816277	-2.5335843746	 0.8271675751	 0.09164
O	-3.6114212792	-1.6911583003	 1.6392806518	-0.413222
C	-2.9608369437	-2.5070652901	-0.6493232322	 0.091502
O	-3.7580590791	-1.6373983302	-1.356305548	-0.413341
H	-0.9238252721	 1.641756482	 0.0665027979	 0.297031
H	 0.4675131816	-0.4141582426	-0.9210783912	 0.124541
H	 0.5527514762	-0.4461722907	 0.8401809118	 0.124555
H	-0.7544162153	-2.6387466374	-0.0194529899	 0.107027
H	-2.7274182189	-3.4935814333	 1.307716794	 0.129126
H	-3.5624887312	-0.7941076728	 1.272441447	 0.303781
H	-2.8490192675	-3.4490322242	-1.1772841668	 0.129091
H	-3.6702301251	-0.7534917077	-0.9655298748	 0.303815
64.1727	101.5842	169.9542	179.8323	223.4801	314.9716	342.1049	377.127	389.1812	443.7361	494.4091	596.8434	620.4571	640.7819	691.1309	737.6138	770.2541	901.1172	957.3619	964.0823	1024.9456	1050.0551	1098.2644	1111.0131	1146.8593	1163.3719	1245.1994	1245.2504	1302.9576	1345.1528	1370.1327	1398.6384	1420.3133	1451.6461	1489.528	1498.4954	1673.9378	2969.9248	2985.341	3161.2328	3166.9664	3178.0399	3671.5068	3689.8444	3702.3173
OCC(=O)C1C(O)C1O	OCC(=O)[C@H]1[C@@H](O)[C@H]1O	
InChI=1S/C5H8O4/c6-1-2(7)3-4(8)5(3)9/h3-6,8-9H,1H2	InChI=1S/C5H8O4/c6-1-2(7)3-4(8)5(3)9/h3-6,8-9H,1H2/t3-,4+,5-
