21
gdb 116307	2.16689	1.36821	0.94226	1.5068	75.85	-0.2424	0.0735	0.316	1319.2413	0.181101	-461.332462	-461.322543	-461.321599	-461.368074	34.729	
C	 0.28587341	 1.2180346862	 0.3938096606	-0.233178
O	 0.1454291896	-0.1540464406	 0.1126881446	-0.235582
C	 0.5101215268	-0.5116372585	-1.204166782	 0.047291
C	 2.0244889008	-0.7356918211	-1.352205819	-0.081533
O	 2.2770983048	-2.1152850013	-1.0640533888	-0.266359
C	 1.0526104859	-2.7752531773	-0.7686014288	-0.09524
C	-0.0219419295	-1.9281909056	-1.4735525628	 0.102977
O	-1.3384232037	-2.0804260921	-1.0242491535	-0.236673
C	-1.9485352281	-3.2797861287	-1.447773505	-0.237444
H	 1.3296660188	 1.5607262	 0.322206162	 0.103212
H	-0.3246620854	 1.833855358	-0.2851251946	 0.106595
H	-0.0598780585	 1.3730778737	 1.4185354223	 0.131051
H	 0.1223994658	 0.2248849928	-1.9218587636	 0.067921
H	 2.3691588773	-0.5147936262	-2.3715159612	 0.097266
H	 2.5869963768	-0.1023907909	-0.6559863847	 0.10551
H	 1.1260450267	-3.8017158144	-1.139195744	 0.099916
H	 0.8480701589	-2.7945112682	 0.3116132386	 0.109342
H	 0.0404267766	-2.1120784838	-2.559899414	 0.069576
H	-1.9381405929	-3.3758259496	-2.5452597361	 0.104052
H	-1.4651478717	-4.1702420303	-1.0199033274	 0.11098
H	-2.9859478989	-3.2491432524	-1.1065929427	 0.130321
67.8341	79.4066	106.7262	139.9669	163.072	196.1051	209.2523	289.7802	353.3243	362.5833	459.6938	525.9611	663.7491	748.952	848.469	899.3199	927.8696	981.628	1015.7894	1035.7374	1099.7685	1109.9937	1116.4128	1154.4829	1178.5141	1182.5483	1184.1432	1211.5403	1222.0827	1232.1304	1252.4132	1273.8825	1329.1875	1349.6143	1373.2754	1389.1454	1422.5571	1481.1742	1481.8318	1490.2999	1492.3732	1505.4432	1508.9376	1511.8106	1521.4557	2956.9579	2972.6693	2975.0041	3001.2144	3006.6351	3016.1401	3021.0021	3024.9943	3053.4125	3083.2462	3116.2053	3116.5647
COC1COCC1OC	CO[C@H]1COC[C@H]1OC	
InChI=1S/C6H12O3/c1-7-5-3-9-4-6(5)8-2/h5-6H,3-4H2,1-2H3	InChI=1S/C6H12O3/c1-7-5-3-9-4-6(5)8-2/h5-6H,3-4H2,1-2H3/t5-,6+
