15
gdb 108742	3.69678	1.22934	0.93019	4.0893	77.94	-0.2267	-0.0677	0.159	1197.6586	0.113377	-454.003722	-453.995409	-453.994465	-454.03729	29.884	
C	 0.001617857	 1.4757370273	 0.0488733459	-0.3442
N	-0.0742306585	 0.031341544	-0.1303197292	-0.396598
C	-1.1923199801	-0.7270570084	-0.0466483952	 0.266808
C	-1.3270367721	-2.073905481	 0.0535704176	-0.328545
C	-2.7345693459	-2.4025030259	 0.0541925138	 0.422433
N	-3.2910206836	-3.533230936	 0.1347960224	-0.535038
O	-3.4613903859	-1.2004356361	-0.0482899695	-0.226964
C	-2.583550811	-0.1556553959	-0.1196467663	 0.413495
O	-2.9433170492	 0.9829487658	-0.2239307808	-0.335899
H	 0.8839589831	 1.8468564531	-0.4783629044	 0.132004
H	-0.8884208734	 1.9439202191	-0.3654243469	 0.18915
H	 0.0827191155	 1.7591830313	 1.1070274059	 0.129832
H	 0.7915905471	-0.4708492612	-0.0077805738	 0.254093
H	-0.5552798453	-2.8248462286	 0.1243875945	 0.123869
H	-4.3070065577	-3.4394152275	 0.114150996	 0.235562
70.6205	79.2536	167.3887	180.6086	238.6578	374.597	381.2811	450.7952	532.7088	559.3823	643.6341	682.0628	695.715	786.3292	795.3938	818.0274	877.3759	925.713	1021.418	1075.6182	1121.7044	1149.0807	1168.0461	1265.683	1346.3856	1397.0838	1459.3078	1492.7354	1496.222	1527.2594	1698.0729	1764.7789	1867.6917	3012.9108	3098.0139	3182.3146	3253.4014	3493.0303	3616.3775
CNC1=CC(=N)OC1=O	CN[C]1C=C([NH])OC1=O	
InChI=1S/C5H6N2O2/c1-7-3-2-4(6)9-5(3)8/h2,6-7H,1H3	InChI=1S/C5H6N2O2/c1-7-3-2-4(6)9-5(3)8/h2,6-7H,1H3
