20
gdb 53711	8.4585	0.41291	0.39758	3.2959	88.4	-0.2479	0.0219	0.2698	2673.5547	0.168004	-403.124642	-403.113213	-403.112269	-403.166415	36.937	
C	-0.0145102981	 1.4757394064	 0.0107251587	-0.497234
C	-0.0027304796	 0.019605444	 0.0022365975	 0.120049
C	 0.0162683797	-1.1840757882	-0.0049260559	 0.018226
C	 0.0085563217	-2.642645037	-0.0133027568	-0.36046
C	-1.4148849779	-3.2330053565	-0.0016142379	-0.18476
C	-1.3961674324	-4.7536127145	-0.0107046319	-0.076218
O	-2.7507095247	-5.2077089594	 0.001137395	-0.183572
C	-2.9321402831	-6.5410806322	-0.0041622343	 0.129365
N	-4.099375477	-7.0216518271	 0.0048185943	-0.438282
H	 1.0031205386	 1.8817791743	 0.0010066898	 0.147303
H	-0.5380444628	 1.8756366559	-0.864695509	 0.147738
H	-0.5171085143	 1.8655006173	 0.9028308436	 0.147733
H	 0.5486549842	-3.0080656818	-0.8977782173	 0.126409
H	 0.5672906202	-3.0182350866	 0.8551952978	 0.126406
H	-1.9536249819	-2.8856226097	 0.8852753425	 0.126847
H	-1.9723331421	-2.8753253508	-0.8727109536	 0.126856
H	-0.8829386121	-5.1305159808	-0.9070915343	 0.106905
H	-0.863922712	-5.1408984532	 0.8700354227	 0.106889
H	-1.993048651	-7.1130101131	-0.0165080535	 0.081621
H	-4.0550797053	-8.0385312869	-0.0009684574	 0.228178
4.8467	22.4282	57.4669	66.4148	77.0155	142.138	150.0107	217.3545	273.456	303.5703	385.6222	395.4861	530.8691	628.3517	753.5323	775.593	821.1682	863.8974	992.2749	1040.6931	1044.7451	1053.9186	1054.1628	1084.5366	1114.6914	1141.6883	1171.6402	1216.7235	1271.4523	1301.4391	1302.6278	1315.2694	1374.6307	1411.9193	1415.5592	1434.942	1477.0636	1478.7647	1479.6804	1497.2968	1519.699	1749.9822	2376.6609	2986.9723	3004.7031	3015.9473	3026.7766	3028.8605	3031.0359	3060.1248	3087.1116	3087.3959	3107.1964	3517.6739
CC#CCCCOC=N	CC#CCCCO[CH][NH]	
InChI=1S/C7H11NO/c1-2-3-4-5-6-9-7-8/h7-8H,4-6H2,1H3	InChI=1S/C7H11NO/c1-2-3-4-5-6-9-7-8/h7-8H,4-6H2,1H3
