19
gdb 61013	3.33637	1.09149	0.91782	2.9925	75.33	-0.2472	-0.0211	0.2261	1283.7657	0.157241	-422.995425	-422.986531	-422.985587	-423.029707	32.505	
C	-0.0069958755	 1.3368429253	 0.3220967903	-0.399983
C	-0.0378965361	-0.1723265953	 0.0789419132	-0.086872
C	-1.4547578848	-0.7122897875	 0.0552650995	 0.145206
O	-2.4515884867	-0.0463466049	 0.178422883	-0.24478
C	 0.6916944834	-0.5864009808	-1.210748436	-0.020804
C	 2.2557854995	-0.3913379843	-1.2693637394	-0.281208
C	 2.3874953286	-1.8988102033	-1.5127191109	 0.034467
O	 1.7784791295	-2.5628075094	-0.3981261028	-0.242482
C	 0.9310609517	-2.0924739751	-1.4528335906	 0.002155
H	 1.02192208	 1.7021693634	 0.3830322237	 0.11354
H	-0.5161246567	 1.8722085831	-0.4849825541	 0.126231
H	-0.5202366094	 1.5904997059	 1.2527902748	 0.130571
H	 0.4706775003	-0.7021589903	 0.8986413795	 0.111448
H	-1.5251864538	-1.8147733864	-0.0930710506	 0.07841
H	 0.2178556447	-0.1204926838	-2.0812269073	 0.088525
H	 2.5688975298	 0.2207428069	-2.1177355041	 0.112689
H	 2.7391524387	-0.0302085474	-0.3582507325	 0.114796
H	 3.1506632427	-2.4444683899	-2.054842531	 0.10984
H	 0.292283024	-2.8220777663	-1.9371156346	 0.108253
67.2913	75.5343	136.5757	177.5836	203.9437	270.1599	344.5899	371.4635	391.1247	554.8173	681.1665	726.359	783.2194	840.8053	858.444	882.845	903.609	934.1877	946.4433	978.4892	1002.2957	1023.5643	1048.4747	1105.394	1128.0621	1140.2425	1185.4287	1219.9514	1240.4382	1244.6571	1256.9579	1281.8763	1346.4429	1361.6876	1392.1652	1407.969	1430.864	1474.9018	1490.8832	1493.9146	1826.4869	2864.6684	3006.0192	3047.1941	3056.8297	3069.2894	3116.1204	3124.9444	3127.487	3180.354	3196.7188
CC(C=O)C1CC2OC12	C[C@@H](C=O)[C@H]1C[C@H]2O[C@@H]12	
InChI=1S/C7H10O2/c1-4(3-8)5-2-6-7(5)9-6/h3-7H,2H2,1H3	InChI=1S/C7H10O2/c1-4(3-8)5-2-6-7(5)9-6/h3-7H,2H2,1H3/t4-,5+,6+,7-/m0/s1
