25
gdb 116496	3.01716	1.01708	0.82744	1.2225	89.2	-0.2411	0.0847	0.3257	1500.6015	0.230738	-389.504205	-389.49463	-389.493686	-389.538548	36.829	
C	-0.4888307029	 1.4267565649	 0.2742009316	-0.391872
C	-0.2015553882	-0.0566539262	 0.0181566127	-0.176752
C	 0.7792064354	-0.3456281029	-1.1357032648	 0.044906
C	 1.1292624362	-1.8491035056	-1.1695940712	-0.187232
C	 2.3335163215	-2.1911313548	-2.062638519	-0.239329
C	 1.993558073	-2.3706589683	-3.5520518184	-0.060383
O	 0.9558556795	-1.5406247629	-4.0376297822	-0.241469
C	 1.0575493379	-0.1624738177	-3.7206138349	-0.093812
C	 0.2408584742	 0.1905416336	-2.4743256694	-0.182935
H	 0.439138128	 1.9861980527	 0.4405769124	 0.111128
H	-1.0136369376	 1.8963633742	-0.5630685995	 0.118842
H	-1.1147209353	 1.5537157571	 1.1632081235	 0.110948
H	 0.2064081804	-0.499259284	 0.9358915138	 0.089287
H	-1.1457070268	-0.5841901259	-0.1767686639	 0.094079
H	 1.7144510029	 0.1931344059	-0.912927428	 0.061677
H	 1.3568988319	-2.1626758168	-0.1436760174	 0.087354
H	 0.2513987725	-2.4293914863	-1.4822466386	 0.099994
H	 3.0974556792	-1.4136311631	-1.9384224215	 0.096402
H	 2.8027482325	-3.1224725579	-1.7233265412	 0.095029
H	 2.9075319394	-2.2382160253	-4.1552343241	 0.083156
H	 1.6330854251	-3.3898104936	-3.7296202005	 0.104821
H	 2.1087432672	 0.1464706106	-3.6135089277	 0.085864
H	 0.6506497111	 0.3821199515	-4.5810251458	 0.099855
H	-0.7750482057	-0.1947864954	-2.6369201846	 0.100245
H	 0.1569863586	 1.2829500961	-2.4229208513	 0.090199
73.5887	108.6542	149.4774	205.3558	226.2913	257.4539	288.2571	323.0854	387.7519	420.177	431.4249	531.108	571.7581	739.247	778.5289	838.6521	851.505	873.5907	904.6575	913.5715	981.4259	1018.8894	1022.4114	1034.3986	1052.7325	1085.6708	1094.6242	1141.9532	1162.6498	1176.1955	1222.5899	1252.1315	1261.0063	1294.47	1305.7866	1318.0776	1328.536	1357.429	1369.9709	1384.0634	1388.822	1394.6084	1409.3162	1412.8546	1424.2731	1469.9423	1480.7605	1487.3763	1491.4375	1500.3253	1501.1942	1508.4481	1511.9088	2962.0574	2970.9698	2987.7048	3008.2847	3014.4714	3020.9949	3025.3635	3030.8013	3042.3442	3049.1757	3051.9555	3059.0229	3064.1638	3072.2484	3095.3378	3106.8915
CCC1CCCOCC1	CC[C@H]1CCCOCC1	
InChI=1S/C8H16O/c1-2-8-4-3-6-9-7-5-8/h8H,2-7H2,1H3	InChI=1S/C8H16O/c1-2-8-4-3-6-9-7-5-8/h8H,2-7H2,1H3/t8-/m0/s1
