15
gdb 81121	2.67463	1.7507	1.2915	1.2871	72.43	-0.2547	-0.0105	0.2442	970.9793	0.111392	-420.537809	-420.530428	-420.529484	-420.569321	29.772	
O	 0.183546255	 1.3281974987	-0.1828558929	-0.434115
C	 0.1104128589	-0.0430345322	-0.0658835689	 0.160667
C	 0.0054254709	-0.6231472056	 1.3953581844	-0.063455
O	-1.397529694	-0.1850991435	 1.3888298927	-0.342924
C	-1.3683100986	-0.664325858	-0.0137876816	 0.258628
C	-1.0349005228	-2.1455159103	 0.1555585632	-0.135017
C	-0.104827586	-2.1137828163	 1.1157916049	-0.08772
C	-2.4382877474	-0.2221865713	-0.8601395425	 0.050995
C	-3.3087439329	 0.1630420761	-1.5937778222	-0.32957
H	-0.4806789473	 1.6880070959	 0.4225997892	 0.292135
H	 0.8213502067	-0.4966390541	-0.7582780681	 0.101352
H	 0.5905228623	-0.2424130831	 2.2300348448	 0.091812
H	-1.4485826722	-2.9595111673	-0.4195690106	 0.125722
H	 0.4754608318	-2.9091886666	 1.5586811871	 0.120936
H	-4.0826610444	 0.5005013176	-2.2381827997	 0.190553
124.616	158.3205	262.1107	320.9292	461.3519	475.4777	503.5087	532.1524	558.8658	589.0621	624.6301	668.8803	683.8157	711.9492	735.772	844.731	875.2646	906.0521	913.6379	925.4655	983.0543	1002.1458	1077.9791	1136.0454	1175.7332	1189.8968	1251.1266	1275.4651	1305.7052	1321.1053	1431.428	1606.0874	2243.2409	3115.6446	3150.6581	3239.2751	3266.1234	3501.8592	3746.3771
OC1C2OC1(C=C2)C#C	O[C@H]1[C@H]2O[C@@]1(C=C2)C#C	
InChI=1S/C7H6O2/c1-2-7-4-3-5(9-7)6(7)8/h1,3-6,8H	InChI=1S/C7H6O2/c1-2-7-4-3-5(9-7)6(7)8/h1,3-6,8H/t5-,6-,7+/m0/s1
