18
gdb 86373	2.78818	1.13935	1.03872	1.6669	69.76	-0.2528	0.0195	0.2723	1212.4865	0.147821	-476.229942	-476.22118	-476.220236	-476.263908	32.781	
O	 0.2603476767	 1.525633968	 0.1519930865	-0.447781
C	 0.2835942765	 0.1105520701	 0.1043976764	 0.099629
C	 0.2474069806	-0.5671750829	 1.501616275	-0.268475
C	-1.293328211	-0.61169902	 1.3978631126	 0.078137
O	-1.8084237045	 0.594008899	 1.9521359537	-0.439068
C	-1.1322749131	-0.4946035679	-0.1542078109	 0.010063
N	-2.0371592947	 0.3518031672	-0.8830392205	-0.291026
C	-3.0642005093	-0.1312154586	-1.6381495202	 0.142504
O	-3.4220446741	-1.2889277734	-1.6595474451	-0.317611
H	-0.3040256565	 1.7611230845	 0.902851124	 0.288181
H	 1.0798802196	-0.1667034438	-0.5891729289	 0.091429
H	 0.6892649686	-1.5663125021	 1.4892483096	 0.116495
H	 0.6581157664	 0.0068785922	 2.3346058087	 0.118728
H	-1.8227278433	-1.4866455822	 1.7904830512	 0.082927
H	-2.6641517435	 0.7535753101	 1.5343784803	 0.289925
H	-1.0953125532	-1.4835619547	-0.6161707298	 0.112483
H	-1.7248153431	 1.3042763145	-1.0176218256	 0.254487
H	-3.554340362	 0.6675295001	-2.2293906771	 0.078976
43.324	133.6389	172.9894	202.8415	241.3214	285.6027	367.9793	402.0162	430.9702	517.3931	562.6111	597.3067	680.7377	724.2664	814.4202	875.1506	878.0003	907.083	925.146	1000.0562	1012.4565	1033.9476	1105.9231	1126.2667	1134.5113	1185.6846	1216.1856	1238.7422	1254.0027	1261.4599	1324.4893	1337.1674	1347.9264	1404.4521	1427.9868	1455.233	1465.8311	1503.6024	1804.5688	2939.0717	3044.5178	3073.7422	3091.8218	3102.1957	3134.9682	3586.3008	3731.5067	3778.5379
OC1CC(O)C1NC=O	O[C@H]1C[C@@H](O)[C@H]1NC=O	
InChI=1S/C5H9NO3/c7-2-6-5-3(8)1-4(5)9/h2-5,8-9H,1H2,(H,6,7)	InChI=1S/C5H9NO3/c7-2-6-5-3(8)1-4(5)9/h2-5,8-9H,1H2,(H,6,7)/t3-,4+,5-
