16
gdb 10652	2.29438	2.01101	1.26436	3.2776	61.99	-0.2539	-0.0419	0.2119	982.9343	0.127247	-420.858124	-420.849254	-420.84831	-420.892018	30.825	
C	-0.0540504882	 1.3480408959	-0.1772602011	-0.432155
C	 0.2298315984	-0.1092518929	 0.0792323729	 0.047697
O	 1.5846791306	-0.5261731051	 0.1874416894	-0.280718
C	 0.7512089721	-0.6699866571	 1.3544605973	 0.234287
C	 1.1770107485	 0.1511453507	 2.5476167112	-0.150439
O	 2.3585814367	-0.3909356105	 3.1159566785	-0.416656
C	 0.3794162588	-2.1023798949	 1.6640235345	 0.117696
O	 0.265013271	-2.9562151259	 0.8243267444	-0.247346
H	 0.6015296775	 2.0055019734	 0.3959623276	 0.132808
H	 0.0938369527	 1.5661436344	-1.2400525675	 0.140925
H	-1.0951036128	 1.5819174768	 0.0684025475	 0.13234
H	-0.3779622677	-0.8073898369	-0.49894194	 0.115296
H	 1.3050455766	 1.204308695	 2.2713929855	 0.101584
H	 0.4119827276	 0.1015089511	 3.3307847856	 0.117896
H	 3.028558914	-0.3912977515	 2.4223081709	 0.298428
H	 0.1908081543	-2.3097305926	 2.7392247332	 0.088356
63.4894	89.5253	146.8643	195.7478	207.6423	217.4499	292.7253	367.9093	428.1674	465.4522	540.6009	656.9529	746.7242	788.9792	885.7621	918.2318	995.5331	1030.1756	1051.3334	1078.5459	1120.9497	1167.3875	1208.2699	1259.5926	1327.8655	1378.8111	1404.7827	1424.2953	1428.8972	1451.7367	1484.2527	1493.0441	1502.9474	1830.9561	2904.1181	3030.6942	3044.1636	3076.5233	3102.4561	3105.5266	3141.38	3798.3227
CC1OC1(CO)C=O	C[C@H]1O[C@]1(CO)C=O	
InChI=1S/C5H8O3/c1-4-5(2-6,3-7)8-4/h2,4,7H,3H2,1H3	InChI=1S/C5H8O3/c1-4-5(2-6,3-7)8-4/h2,4,7H,3H2,1H3/t4-,5+/m1/s1
