13
gdb 53781	2.64264	1.16006	1.0938	4.5499	68.68	-0.251	-0.075	0.176	1156.1026	0.085897	-452.726508	-452.717013	-452.716069	-452.761915	32.697	
N	 0.1376714963	 1.1649368755	-0.2156114085	-0.54656
C	-0.0036748357	-0.1872439982	-0.2257382827	 0.272009
N	 0.726247362	-1.1113498486	-0.728750761	-0.496397
C	-1.2476164029	-0.6594004181	 0.485369358	 0.309623
O	-2.0935968874	 0.0978798106	 0.8966663685	-0.31087
C	-1.3743016873	-2.18132436	 0.6956514828	 0.23406
O	-0.9326272875	-2.6777823757	 1.7046803134	-0.270234
C	-2.1193914127	-2.8910494152	-0.3144803009	 0.277708
C	-2.752041819	-3.4377921608	-1.1804507314	-0.446585
H	 0.8077262199	 1.6181279047	-0.8125602112	 0.261265
H	-0.6471545926	 1.7021476797	 0.1209462429	 0.275924
H	 1.5415306714	-0.7450041984	-1.2238944057	 0.216809
H	-3.3069489144	-3.9364396055	-1.9380495444	 0.223249
29.7805	72.0095	130.6534	153.8286	235.4116	242.9897	288.0985	331.8156	394.0028	450.2883	480.7761	532.1707	635.8219	654.1347	678.9463	707.3524	766.485	824.5432	886.9119	988.3565	1079.5993	1133.9769	1203.1587	1433.1284	1608.1234	1720.8506	1769.5798	1802.0145	2212.6526	3458.9966	3492.7437	3585.7722	3719.5935
NC(=N)C(=O)C(=O)C#C	NC(=N)C(=O)C(=O)C#C	
InChI=1S/C5H4N2O2/c1-2-3(8)4(9)5(6)7/h1H,(H3,6,7)	InChI=1S/C5H4N2O2/c1-2-3(8)4(9)5(6)7/h1H,(H3,6,7)
