16
gdb 31332	2.67502	1.25597	0.87145	2.408	77.69	-0.2257	-0.0437	0.182	1259.6397	0.125105	-437.933351	-437.924922	-437.923978	-437.967242	30.424	
O	 0.0210097047	 1.3474007184	 0.514511843	-0.414179
C	 0.0099478472	 0.0811384142	-0.1306551527	-0.203639
C	-1.3774449041	-0.4778075797	-0.0492799672	 0.227601
C	-1.7448455533	-1.8216889013	 0.0488494414	 0.116528
N	-3.1220976317	-1.8715428184	 0.04770301	-0.280543
C	-3.6290518777	-0.6187978691	-0.0387107458	-0.060186
C	-2.5713877103	 0.274238706	-0.1041649919	-0.229008
C	-0.9927933117	-3.0481593728	 0.1552160699	 0.072725
O	-1.5094298721	-4.1511313104	 0.2247591768	-0.325357
H	 0.871842094	 1.7603619977	 0.3393521922	 0.290211
H	 0.3048603943	 0.1840434984	-1.1883449364	 0.105052
H	 0.7288626812	-0.6116401934	 0.3328816495	 0.098998
H	-3.6219797998	-2.7436137021	 0.1154699686	 0.278881
H	-4.6935875446	-0.4433644195	-0.043543938	 0.134372
H	-2.6423843145	 1.3480062714	-0.164746198	 0.118742
H	 0.1100064185	-2.9280401093	 0.1741843786	 0.069802
40.7154	150.1762	161.3131	193.1383	249.9012	275.7642	321.0885	393.6452	561.9792	578.1216	645.5522	669.5303	711.6026	775.6035	813.1822	861.5112	922.8104	1013.699	1025.8294	1046.6283	1087.617	1102.3598	1174.6525	1226.3551	1254.0514	1277.517	1343.8306	1389.9881	1452.6069	1461.9743	1474.9079	1511.5005	1517.6994	1597.3371	1748.2555	2913.4335	2957.7516	2992.1228	3255.1245	3276.2373	3658.821	3828.768
OCC1=C(NC=C1)C=O	OCc1c([nH]cc1)C=O	
InChI=1S/C6H7NO2/c8-3-5-1-2-7-6(5)4-9/h1-2,4,7-8H,3H2	InChI=1S/C6H7NO2/c8-3-5-1-2-7-6(5)4-9/h1-2,4,7-8H,3H2
