23
gdb 103991	2.48283	1.2994	1.18388	1.1606	84.99	-0.2428	0.0745	0.3173	1221.1759	0.204097	-388.266897	-388.257102	-388.256158	-388.300757	38.249	
C	-0.0552435683	 1.4824205889	 0.1513602296	-0.387689
C	-0.1201191763	-0.0299147246	-0.0968636398	-0.239916
C	 0.7234465521	-0.5315198466	-1.2772477046	 0.265282
C	 0.2573383332	 0.0583161155	-2.610674676	-0.437907
C	 2.2928331691	-0.4460394471	-1.140725525	-0.281297
C	 2.3930740896	-1.958537197	-1.371610708	-0.10003
C	 1.6498301173	-2.6804706152	-0.2691872227	-0.358067
C	 0.8798374342	-2.0679727427	-1.4063136814	 0.365561
O	 0.1170348104	-2.8428008933	-2.2682269409	-0.461929
H	 0.9779639568	 1.8169340831	 0.2957878858	 0.117018
H	-0.4747736944	 2.053412219	-0.6821215663	 0.118478
H	-0.6182811983	 1.7528269079	 1.0502813078	 0.110418
H	 0.1975899971	-0.5475137173	 0.8158929241	 0.089866
H	-1.1658057221	-0.3249450996	-0.2635375325	 0.085885
H	 0.3865837779	 1.1447380198	-2.6297528939	 0.108793
H	 0.8269580814	-0.3648706617	-3.4434356033	 0.119302
H	-0.7992509009	-0.1650862312	-2.7919568838	 0.109199
H	 2.7498505889	 0.1581244458	-1.9277581199	 0.100046
H	 2.6699250951	-0.1019120966	-0.1714791031	 0.089909
H	 3.1323305618	-2.4629485419	-1.9811300896	 0.090131
H	 1.7071301137	-3.763417987	-0.3222527643	 0.110082
H	 1.6274579108	-2.2783726476	 0.7412693427	 0.102085
H	-0.620046109	-3.2126573605	-1.7705247248	 0.284783
89.8596	140.3435	173.5044	220.1473	230.9964	260.6235	285.064	308.07	350.1042	383.1084	425.5705	484.1959	502.666	600.4091	676.9574	779.7393	791.6665	845.2772	884.3598	892.071	933.2532	936.9464	975.8327	1009.8876	1016.5809	1025.2551	1040.7697	1072.4614	1081.4932	1134.2881	1162.4772	1213.9685	1218.8969	1232.6105	1270.3745	1291.5613	1307.612	1330.1969	1365.318	1390.5053	1407.1388	1413.5185	1475.7899	1480.0958	1489.3085	1497.1242	1501.7333	1506.1011	1510.2944	3007.665	3033.5352	3035.3519	3039.601	3049.3167	3097.9989	3099.5696	3102.8066	3103.0631	3107.2448	3112.2866	3187.7733	3198.7944	3796.9167
CCC1(C)CC2CC12O	CC[C@@]1(C)C[C@H]2C[C@@]12O	
InChI=1S/C8H14O/c1-3-7(2)4-6-5-8(6,7)9/h6,9H,3-5H2,1-2H3	InChI=1S/C8H14O/c1-3-7(2)4-6-5-8(6,7)9/h6,9H,3-5H2,1-2H3/t6-,7-,8-/m0/s1
