23
gdb 121940	4.76102	0.64991	0.61272	1.1296	83.62	-0.2527	0.0891	0.3417	1903.2769	0.203307	-425.40054	-425.389819	-425.388875	-425.437333	37.957	
C	-0.0943574538	 1.4284142443	 0.0179701714	-0.385334
C	-0.0611784692	-0.0896608804	 0.0692317708	-0.029807
O	 0.723511071	-0.48724823	 1.1748639472	-0.247471
C	 0.8186285547	-1.8869196119	 1.3195269852	-0.049192
C	 1.6389596243	-2.2029971962	 2.5760337631	-0.02634
C	 0.9429399648	-1.6798400845	 3.8373356148	-0.413576
C	 1.9285026806	-3.6929341065	 2.6019626389	 0.085353
C	 2.0223727812	-4.507041072	 3.8196783628	-0.187525
O	 0.8615692889	-4.5688114295	 2.9880588757	-0.237657
H	 0.9171498442	 1.8310353766	-0.0870486288	 0.125744
H	-0.6939257623	 1.7685504793	-0.8316390241	 0.114601
H	-0.5304692317	 1.8339828767	 0.9353962132	 0.126063
H	-1.0821545448	-0.4972416433	 0.1617435497	 0.087244
H	 0.3629262932	-0.4989883914	-0.8637252533	 0.084445
H	-0.1836746772	-2.3395264902	 1.4056897867	 0.100015
H	 1.2993648968	-2.3298853386	 0.4298420893	 0.079328
H	 2.6041846168	-1.6906952666	 2.4595908629	 0.085547
H	 1.6087169845	-1.7017214188	 4.7048271192	 0.108833
H	 0.6264111768	-0.6473806555	 3.6780119406	 0.132553
H	 0.0590368961	-2.2841620825	 4.064428486	 0.130344
H	 2.4813029732	-4.0532946385	 1.7308239884	 0.088043
H	 2.6453442694	-5.4007702126	 3.8186590103	 0.112516
H	 1.8708664225	-4.0512001678	 4.79533262	 0.116274
50.4832	66.9687	81.2112	124.6888	154.0476	225.103	228.5832	250.4118	281.6499	313.7832	363.9648	448.4776	510.173	603.4068	769.5791	821.4108	849.9541	892.8178	905.6349	932.0219	964.0683	1006.762	1042.7078	1060.8053	1105.3186	1137.9647	1155.4755	1161.1582	1174.2153	1176.6127	1180.209	1198.6332	1268.0298	1295.984	1298.0689	1311.1045	1374.6955	1384.8167	1393.2198	1408.193	1436.6326	1451.5126	1484.0892	1499.8496	1501.9835	1507.705	1515.1622	1530.6809	1537.6302	2944.2222	2957.4357	2977.4442	2981.3602	3019.5475	3044.6718	3045.1517	3076.3267	3090.5565	3112.652	3119.3268	3120.7054	3135.9552	3178.2237
CCOCC(C)C1CO1	CCOC[C@@H](C)[C@H]1CO1	
InChI=1S/C7H14O2/c1-3-8-4-6(2)7-5-9-7/h6-7H,3-5H2,1-2H3	InChI=1S/C7H14O2/c1-3-8-4-6(2)7-5-9-7/h6-7H,3-5H2,1-2H3/t6-,7-/m1/s1
