19
gdb 101312	2.1188	1.52542	1.02684	2.9354	72.7	-0.2528	-0.0287	0.2242	1197.7374	0.155707	-460.134629	-460.124776	-460.123832	-460.169972	34.858	
C	-0.3650396203	 1.5072558926	-0.8127813024	-0.249306
O	 0.0938858183	 0.3220531914	-0.1863681649	-0.245979
C	 0.8704525434	-0.5185363772	-1.0267728693	 0.085425
C	 1.8805687181	-1.254239809	-0.1498255171	-0.393026
C	 0.0230053496	-1.5069506621	-1.8302085876	 0.049355
O	-0.4569929925	-2.675346	-1.1716283633	-0.239942
C	-1.4281364654	-1.7310859404	-1.6242409983	-0.046175
C	-2.2151206351	-1.0408093181	-0.5464622134	 0.142798
O	-3.1642559152	-0.3384271295	-0.7910718184	-0.264351
H	 0.4784047605	 2.112817796	-1.174615883	 0.110758
H	-1.0420945372	 1.3002649932	-1.6525415364	 0.123256
H	-0.9151571141	 2.0729749091	-0.058166379	 0.140172
H	 1.4072947958	 0.1040842228	-1.7593741772	 0.073325
H	 2.50947189	-0.5345693244	 0.3787995795	 0.124157
H	 1.3543687989	-1.8746373072	 0.5787420441	 0.14466
H	 2.5176974421	-1.9042804081	-0.756877665	 0.120891
H	 0.4010199472	-1.7076439032	-2.8352798841	 0.101792
H	-2.0240293893	-2.0314987899	-2.4867725078	 0.117212
H	-1.8761002149	-1.265610756	 0.4824132634	 0.10498
42.7175	81.7045	149.2364	157.5112	212.3652	231.1437	253.0828	308.9104	311.9078	339.8778	425.3123	508.4441	557.7029	694.0547	753.8234	860.6998	861.7355	940.9436	991.1811	1022.0286	1031.8521	1094.9804	1107.7138	1139.2814	1149.9989	1167.6849	1187.8628	1233.4906	1279.823	1340.4207	1351.3502	1390.4689	1400.299	1409.1516	1451.8892	1480.3778	1485.4746	1489.7658	1496.538	1505.6605	1813.8464	2957.9143	2981.5685	2993.8116	3050.4594	3052.9146	3083.7775	3115.4957	3126.94	3128.7785	3143.6533
COC(C)C1OC1C=O	CO[C@@H](C)[C@H]1O[C@H]1C=O	
InChI=1S/C6H10O3/c1-4(8-2)6-5(3-7)9-6/h3-6H,1-2H3	InChI=1S/C6H10O3/c1-4(8-2)6-5(3-7)9-6/h3-6H,1-2H3/t4-,5-,6+/m0/s1
