18
gdb 71407	3.99304	1.32337	1.30238	2.1025	76.25	-0.2258	0.0818	0.3076	1051.7415	0.147419	-401.852052	-401.844558	-401.843613	-401.883654	30.111	
C	-0.0292199191	 1.3904466743	-0.0819480624	-0.506717
C	 0.0389116378	-0.095447752	 0.0006185997	 0.479281
O	-0.4623583536	-0.8761559673	-1.0973622407	-0.326643
C	-0.3754063468	-2.0299611452	-0.2133316328	-0.073767
C	-0.3274439897	-1.0916283687	 1.0480642478	-0.189381
C	 1.1554595286	-0.9193624082	 0.6809711351	-0.282109
C	 1.1362977581	-2.2352068361	-0.056849944	 0.463452
C	 1.8173183334	-3.50806437	 0.2371894801	-0.326023
N	 2.1017746496	-2.7457178667	-1.0058133495	-0.377354
H	 0.5978164305	 1.7588768126	-0.9004109869	 0.138578
H	-1.0568863306	 1.7238612381	-0.2562754493	 0.132462
H	 0.3277661946	 1.839016644	 0.8498439663	 0.127062
H	-1.0749006157	-2.8281305615	-0.4561960008	 0.082872
H	-0.8559478013	-1.0563933544	 1.989953219	 0.102179
H	 1.9471581281	-0.473251263	 1.2681202927	 0.094609
H	 2.6410964383	-3.5472496232	 0.9448450179	 0.119851
H	 1.2403691952	-4.4280996201	 0.1669881975	 0.109615
H	 1.6367373724	-3.1653377826	-1.8077975697	 0.232033
132.6464	191.6293	215.3687	255.3298	316.939	358.6281	468.025	592.3528	623.8601	648.1697	757.9969	780.8613	801.4173	873.0939	875.7495	890.2605	908.8658	926.1671	937.6336	954.0392	970.6604	1036.1056	1050.4336	1060.6894	1101.2582	1115.1428	1142.8174	1146.0731	1177.9051	1203.8934	1245.718	1272.3377	1289.8528	1396.7088	1439.6805	1459.6767	1473.9217	1499.0143	1525.4279	3037.4257	3098.0157	3105.5924	3115.3548	3136.8622	3182.3532	3206.22	3217.4247	3493.7438
CC12OC3C1C2C31CN1	C[C@]12O[C@@H]3[C@H]1[C@H]2[C@]13CN1	
InChI=1S/C7H9NO/c1-6-3-4(6)7(2-8-7)5(3)9-6/h3-5,8H,2H2,1H3	InChI=1S/C7H9NO/c1-6-3-4(6)7(2-8-7)5(3)9-6/h3-5,8H,2H2,1H3/t3-,4-,5-,6+,7+/m1/s1
