20
gdb 47909	2.21764	1.64679	1.15158	2.2866	76.76	-0.247	0.0253	0.2723	1121.9556	0.173205	-440.290242	-440.281992	-440.281048	-440.323239	31.848	
N	-0.074118164	 1.2691364228	-0.6205727796	-0.506414
C	-0.0316264245	 0.0914041412	-0.1489246937	 0.37923
C	-1.317412391	-0.6877717283	 0.0242373385	-0.291569
C	-1.9137044654	-0.6634427228	 1.4462596407	-0.084926
O	-1.1928474417	-1.389955286	 2.4220372162	-0.249621
C	-0.0145188228	-0.7604283332	 2.9062977814	-0.078096
C	 1.247881298	-1.4751323013	 2.4169785052	-0.207581
C	 1.2656326824	-1.7003640399	 0.9078253964	-0.077235
O	 1.1678084451	-0.4750994512	 0.1755132105	-0.254247
H	 0.8698561153	 1.6606404239	-0.6586743397	 0.214292
H	-2.040388926	-0.2017715578	-0.6349389521	 0.137809
H	-1.2104238463	-1.7247024604	-0.3085889775	 0.11935
H	-2.0404724038	 0.3837779112	 1.758702423	 0.112385
H	-2.9055601495	-1.1247354413	 1.4094179157	 0.112618
H	 0.0058012111	 0.2954331454	 2.6068458916	 0.113813
H	-0.0462547562	-0.7851820379	 4.0024974683	 0.104848
H	 2.1247882925	-0.8913735895	 2.7214014659	 0.108628
H	 1.3263689075	-2.4571282431	 2.8992210844	 0.110006
H	 2.2178653773	-2.1405938705	 0.6002256838	 0.116563
H	 0.469295382	-2.3929465814	 0.6248635211	 0.120148
66.9311	142.8336	197.2462	217.5683	280.1057	372.5203	403.5411	466.7683	478.787	511.7863	568.9179	670.8403	761.3641	779.2715	849.1483	863.0658	912.1865	929.9991	976.249	1007.1522	1052.1739	1063.3261	1079.0909	1121.4248	1128.3483	1175.6727	1216.5379	1256.5328	1281.0989	1304.1038	1320.1727	1331.3462	1363.9593	1385.5402	1402.9597	1407.1248	1429.068	1467.6445	1470.0549	1495.2412	1507.026	1511.9997	1728.2631	2997.942	3014.8807	3031.8701	3055.9337	3056.3084	3066.4949	3079.8614	3083.0106	3111.7732	3118.9958	3456.1988
N=C1CCOCCCO1	[NH][C]1CCOCCCO1	
InChI=1S/C6H11NO2/c7-6-2-5-8-3-1-4-9-6/h7H,1-5H2	InChI=1S/C6H11NO2/c7-6-2-5-8-3-1-4-9-6/h7H,1-5H2
