20
gdb 92183	2.92776	1.7931	1.52915	2.0534	77.57	-0.2033	0.08	0.2833	956.7389	0.173546	-403.098788	-403.091825	-403.090881	-403.129723	29.154	
C	-0.0097991301	 1.4592832442	-0.0383731651	-0.32095
N	-0.0137497063	 0.0148343856	 0.0688928387	-0.029572
C	-1.3538203843	-0.5736182003	-0.0258666714	-0.169439
C	-1.2710009843	-1.9743969381	 0.5704507174	 0.06311
O	-0.0715039769	-2.6030343177	 0.0299107311	-0.286927
C	 0.6227223416	-2.1060904043	 1.1746560791	 0.127202
C	-0.6536132595	-1.9632296885	 2.0204908407	-0.077895
C	-0.2124296853	-0.5729062737	 2.5074230997	-0.267363
C	 0.6906048419	-0.514929964	 1.2269417012	-0.048694
H	 1.02109704	 1.8282800229	-0.0433553496	 0.117289
H	-0.4777510998	 1.7544450511	-0.9840265173	 0.119071
H	-0.5533778963	 1.9740131546	 0.7772633869	 0.089585
H	-2.120149844	 0.0122887143	 0.5160477288	 0.079484
H	-1.6620006956	-0.6200668369	-1.0775595093	 0.108928
H	-2.167986095	-2.5729413907	 0.3972905602	 0.079751
H	 1.5235244444	-2.6646192285	 1.4337394069	 0.076828
H	-1.0292249952	-2.7291405277	 2.6991898937	 0.071674
H	-0.9607323757	 0.2148780744	 2.6341841358	 0.098891
H	 0.3738086671	-0.6535277406	 3.4278184199	 0.101125
H	 1.6723616033	-0.0448171659	 1.3101919726	 0.067905
147.9169	236.5774	314.3488	350.4966	362.4669	402.8927	470.4936	576.8036	640.8987	721.8621	765.2737	781.9564	813.8007	854.8042	889.0515	935.7596	951.423	982.5638	1009.8541	1035.1939	1038.0303	1062.5252	1081.8048	1106.0755	1129.2064	1150.4577	1189.2296	1196.4998	1210.4011	1232.2431	1246.3215	1251.8154	1290.8191	1305.1482	1331.5933	1347.0556	1355.5077	1395.892	1460.6598	1481.6004	1484.3772	1505.2351	1514.9787	2918.3969	2926.5004	3039.2004	3048.05	3050.898	3085.7388	3087.712	3096.3426	3098.0997	3100.799	3114.1522
CN1CC2OC3C2CC13	CN1C[C@H]2O[C@@H]3[C@H]2C[C@H]13	
InChI=1S/C7H11NO/c1-8-3-6-4-2-5(8)7(4)9-6/h4-7H,2-3H2,1H3	InChI=1S/C7H11NO/c1-8-3-6-4-2-5(8)7(4)9-6/h4-7H,2-3H2,1H3/t4-,5-,6+,7+/m0/s1
