18
gdb 47889	2.68594	1.58036	1.15253	1.3997	76.87	-0.2484	-0.0478	0.2006	1073.2492	0.149505	-439.073141	-439.065242	-439.064298	-439.1057	30.286	
N	 0.2932841	 0.8275503951	-0.9741745724	-0.477963
C	 0.0422913105	 0.134343514	 0.0614624847	 0.322576
O	 0.9393112263	 0.0148973904	 1.1028184811	-0.266343
C	 1.6706936714	-1.2119324219	 1.2459085572	-0.103861
C	 0.8193611115	-2.4750970683	 1.3450131544	-0.086827
O	-0.0588209909	-2.5193325257	 2.4489540809	-0.259715
C	-0.9956830121	-1.4389672846	 2.5658166526	-0.11139
C	-1.7507429915	-1.1423163147	 1.2906198128	-0.117172
C	-1.2850191214	-0.4803078679	 0.2239136233	-0.041603
H	 1.2444705485	 1.1984235131	-0.9156747419	 0.224445
H	 2.3694537115	-1.3238325802	 0.4033904516	 0.105935
H	 2.2508465132	-1.0762831663	 2.1624105664	 0.126903
H	 0.2821100579	-2.6397801174	 0.4007816913	 0.108299
H	 1.5020306262	-3.3215633712	 1.4798497767	 0.116814
H	-1.6937629757	-1.7701277189	 3.3387332367	 0.109734
H	-0.4902184221	-0.5373957319	 2.9254741244	 0.123066
H	-2.7615366978	-1.5374079723	 1.2283544171	 0.109084
H	-1.9216367755	-0.3365883513	-0.6432642472	 0.118019
70.1522	152.2012	247.1968	264.6401	287.7818	344.4683	353.0704	496.5077	523.9049	557.0797	689.6394	697.4508	785.9228	830.3644	850.543	891.4648	940.8982	957.3077	980.3752	1019.6957	1028.3357	1088.6215	1124.3681	1134.4907	1157.8758	1243.2537	1281.2119	1294.9171	1320.0964	1328.4457	1398.4382	1406.3763	1423.3893	1431.3798	1487.5305	1493.7853	1504.5272	1676.0546	1715.5983	2998.523	3014.2052	3049.2481	3071.4153	3097.6601	3102.557	3157.946	3191.8532	3462.2597
N=C1OCCOCC=C1	[NH]C1=C[CH]COCCO1	
InChI=1S/C6H9NO2/c7-6-2-1-3-8-4-5-9-6/h1-2,7H,3-5H2/b2-1-,7-6?	InChI=1S/C6H9NO2/c7-6-2-1-3-8-4-5-9-6/h1-2,7H,3-5H2
