19
gdb 92061	2.78635	1.52913	1.09447	2.1325	75.19	-0.2267	-0.0169	0.2097	1123.6507	0.159236	-423.037551	-423.029361	-423.028417	-423.070432	31.739	
C	 0.1246098707	 1.5861433942	 0.0108460535	-0.402266
C	 0.1268532188	 0.0637151658	-0.0441578843	 0.03535
O	 1.0606455134	-0.3468291579	-1.0414907246	-0.261527
C	 1.1096406981	-1.7384785548	-1.1722273149	 0.1043
C	 2.4624493661	-2.3675540352	-1.0537768427	-0.315979
C	 1.4794932516	-2.4716366735	 0.0940340872	-0.064021
C	 1.6080398908	-1.5635316037	 1.312514587	-0.333394
C	 0.4724194477	-0.5464212243	 1.3260943859	 0.37122
O	-0.1308991595	-0.2284592792	 2.3230394667	-0.31623
H	 1.1315100596	 1.9603167839	 0.2185824597	 0.125781
H	-0.2064303849	 1.9985114151	-0.9450999152	 0.125379
H	-0.5462415359	 1.9196045521	 0.8046834345	 0.143795
H	-0.8835319844	-0.2936212635	-0.3055658056	 0.095703
H	 0.3735334419	-2.1587587888	-1.8570554334	 0.088474
H	 2.6622113402	-3.2587515515	-1.6379479509	 0.11767
H	 3.3056791752	-1.6951937868	-0.9376729531	 0.124863
H	 1.0191704018	-3.4373717473	 0.2728941765	 0.100625
H	 1.5936123274	-2.1154243085	 2.254246772	 0.128352
H	 2.5499241814	-1.001572736	 1.2775363618	 0.131907
60.0499	142.6343	215.2912	256.0066	294.8129	332.972	420.4156	450.9169	476.2552	502.6925	598.9796	709.9436	737.1602	813.0417	816.5111	861.4745	885.2624	936.2965	993.1741	1028.4419	1046.3937	1074.4928	1088.1857	1117.5469	1126.8878	1146.7205	1175.6753	1200.2675	1226.3417	1237.1827	1289.0017	1327.5477	1329.4076	1372.4377	1396.687	1405.9135	1449.6166	1479.6417	1485.8817	1497.9893	1819.6636	2963.6493	3034.3122	3051.7705	3103.6543	3115.8902	3124.7939	3136.0073	3147.7459	3166.2652	3226.7538
CC1OC2CC2CC1=O	C[C@H]1O[C@H]2C[C@H]2CC1=O	
InChI=1S/C7H10O2/c1-4-6(8)2-5-3-7(5)9-4/h4-5,7H,2-3H2,1H3	InChI=1S/C7H10O2/c1-4-6(8)2-5-3-7(5)9-4/h4-5,7H,2-3H2,1H3/t4-,5-,7+/m1/s1
