13
gdb 20607	3.53794	1.96272	1.27243	4.8989	69.	-0.2355	-0.0099	0.2256	892.06	0.095639	-357.619844	-357.612523	-357.611579	-357.651622	26.409	
C	-0.0044746156	 1.5399971831	 0.0924310611	-0.522724
C	 0.0152548407	 0.054867335	-0.0060655618	 0.223574
C	 0.0011404008	-0.8021787262	-1.0949835813	 0.13706
N	 0.0318395978	-2.099483973	-0.6349984212	-0.267387
N	 0.0636095093	-2.0890757364	 0.6580657473	-0.118473
N	 0.053901548	-0.7928845047	 1.0469767776	-0.221832
C	-0.0378198176	-0.4595107649	-2.4651289691	 0.279957
C	-0.0711826729	-0.1465853026	-3.6269201326	-0.444191
H	 0.8875303499	 1.9246673149	 0.5989819221	 0.145936
H	-0.0353218891	 1.96723469	-0.9117092472	 0.163792
H	-0.881811621	 1.8983016949	 0.6421036166	 0.145949
H	 0.0749663785	-0.575769478	 2.031140064	 0.282067
H	-0.1005121889	 0.115960018	-4.6553529157	 0.196272
85.7473	140.2464	174.2712	258.0567	313.6264	486.3791	529.9141	572.8947	576.1682	605.6336	679.8415	701.63	703.8096	757.6564	989.0405	1024.7041	1062.8247	1065.0067	1173.3706	1261.2943	1302.1311	1381.5445	1420.5083	1462.0416	1485.1945	1506.9827	1606.7555	2239.8658	3035.3268	3089.0828	3136.105	3503.15	3650.0285
CC1=C(N=NN1)C#C	Cc1c(nn[nH]1)C#C	
InChI=1S/C5H5N3/c1-3-5-4(2)6-8-7-5/h1H,2H3,(H,6,7,8)	InChI=1S/C5H5N3/c1-3-5-4(2)6-8-7-5/h1H,2H3,(H,6,7,8)
