19
gdb 36488	3.69086	1.08722	0.94461	5.4668	78.92	-0.2439	0.0378	0.2817	1260.2328	0.161566	-382.072509	-382.064524	-382.063579	-382.105457	30.655	
N	-0.0390783034	-1.2128919568	-0.0753177935	-0.308297
C	-0.0128008103	-0.0583620241	-0.0449484929	 0.275855
C	 0.0034434055	 1.403404394	-0.0309262318	-0.35529
C	 1.4182074079	 1.9986965557	 0.0430687304	 0.055148
C	 1.4457960561	 3.5425044582	-0.0758969916	-0.26566
C	 2.7240827229	 3.9332895497	 0.6947020184	-0.232769
C	 2.8910947141	 2.8108512828	 1.7105722806	-0.002831
C	 1.6882388049	 2.3964422509	 2.4756877326	-0.257634
N	 2.1131560426	 1.6285922473	 1.2915034103	-0.086611
H	-0.495502536	 1.7614077892	-0.9386267434	 0.151798
H	-0.5936171309	 1.7537792774	 0.8189465679	 0.148009
H	 2.0149137333	 1.5641604691	-0.7671778485	 0.103833
H	 1.4597658354	 3.8739835193	-1.1168407759	 0.11108
H	 0.5572453849	 3.9850583487	 0.3866837435	 0.107465
H	 3.5905797613	 3.9470350782	 0.0247181173	 0.113515
H	 2.6543161169	 4.9224897389	 1.1568529297	 0.111371
H	 3.8813490012	 2.6194085348	 2.1133041264	 0.0966
H	 1.7966324287	 1.8594928107	 3.4126984098	 0.126008
H	 0.8010997746	 3.0230760161	 2.4210843809	 0.108411
63.6049	115.9245	182.1419	264.3678	306.7788	392.5661	396.9293	436.3153	544.4185	639.0136	655.1184	725.4907	831.1335	841.6357	884.8279	910.0779	933.3051	946.6395	969.756	1014.0855	1044.5562	1073.0028	1101.1282	1105.9349	1124.7093	1166.6984	1178.4306	1216.8104	1241.5635	1277.4815	1292.5932	1328.2642	1332.3038	1355.6725	1384.9048	1392.1531	1458.8414	1488.6951	1495.0571	1519.2565	2365.9462	3036.5452	3044.0656	3047.7182	3052.9516	3083.5029	3089.1756	3106.4363	3111.6425	3152.9353	3196.0521
N#CCC1CCC2CN12	N#CC[C@H]1CC[C@H]2CN12	
InChI=1S/C7H10N2/c8-4-3-6-1-2-7-5-9(6)7/h6-7H,1-3,5H2	InChI=1S/C7H10N2/c8-4-3-6-1-2-7-5-9(6)7/h6-7H,1-3,5H2/t6-,7+,9?/m1/s1
