18
gdb 110782	2.60756	1.47017	1.25053	4.2636	72.03	-0.229	0.0333	0.2623	1075.2299	0.148463	-439.1008	-439.092581	-439.091636	-439.133892	30.891	
C	 0.1667566171	 1.0053052033	 0.3926876341	-0.231623
O	-0.1199149631	-0.0586298001	-0.4965083059	-0.230699
C	-1.3608916029	-0.6324736742	-0.2797645417	 0.108108
C	-1.5375730501	-2.063518604	-0.705652597	-0.132232
C	-0.2823417621	-2.8778963158	-0.9676827209	-0.339458
C	 0.4851962163	-2.88026795	 0.3649251221	 0.397979
O	 1.6022268743	-3.2945895784	 0.5674730833	-0.370807
N	-0.3406664337	-2.3042410725	 1.308655574	-0.289889
C	-1.5302970945	-1.7164087836	 0.7777897607	-0.08038
H	 1.1617138494	 1.3758652572	 0.1383253607	 0.137075
H	-0.5602497831	 1.8237399227	 0.2853042475	 0.110152
H	 0.1620642945	 0.6696843016	 1.4387341813	 0.106508
H	-2.2116645856	 0.0362163228	-0.4266066293	 0.088511
H	-2.459669485	-2.33957029	-1.201657839	 0.099994
H	-0.5183336778	-3.906918678	-1.2546089096	 0.128862
H	 0.3632877111	-2.4539176976	-1.7398972968	 0.147235
H	 0.054236331	-2.0294411327	 2.1946485584	 0.249215
H	-2.421741466	-1.7654577506	 1.393508918	 0.101448
78.3736	118.6019	158.8399	180.2654	273.2868	327.1309	457.0426	471.2109	538.056	601.6505	634.2055	664.0181	750.4046	771.1738	815.8443	857.085	940.1275	954.4771	1012.0294	1054.4443	1076.0848	1083.5632	1111.358	1139.1938	1179.636	1193.9348	1204.0726	1244.7506	1260.702	1286.3999	1346.9159	1369.5117	1394.2275	1433.2033	1458.5489	1484.7841	1487.6506	1504.2605	1835.9376	2990.1525	3044.0627	3068.4614	3080.9762	3117.8072	3128.7963	3164.9607	3187.3851	3632.3055
COC1C2CC(=O)NC12	CO[C@H]1[C@H]2CC(=O)N[C@@H]12	
InChI=1S/C6H9NO2/c1-9-6-3-2-4(8)7-5(3)6/h3,5-6H,2H2,1H3,(H,7,8)	InChI=1S/C6H9NO2/c1-9-6-3-2-4(8)7-5(3)6/h3,5-6H,2H2,1H3,(H,7,8)/t3-,5+,6-/m0/s1
