25
gdb 58323	3.29475	0.66377	0.57837	2.8922	90.87	-0.2476	-0.0186	0.2291	1969.5126	0.22551	-389.513478	-389.501757	-389.500813	-389.552	41.49	
C	-0.1230127482	 1.5652868902	-0.0300080497	-0.399562
C	-0.0373894683	 0.0298452394	-0.0007318887	 0.047273
C	 0.5568638401	-0.4626097009	-1.3316063645	-0.398735
C	 0.7458706264	-0.4935660318	 1.2352658393	 0.045604
C	 0.1841199701	 0.0668797298	 2.5520400425	-0.406733
C	 0.7837129764	-2.0365796957	 1.269831399	-0.201656
C	 1.6503525643	-2.6359089534	 2.3942464751	-0.283731
C	 1.8563830542	-4.1199911778	 2.1958813076	 0.159585
O	 1.5748667307	-4.9735898177	 2.9966422392	-0.237768
H	 0.8776679886	 2.0150082755	-0.0216829408	 0.110739
H	-0.6257812475	 1.9016310129	-0.9424069359	 0.110482
H	-0.6800510232	 1.9716054232	 0.8172166234	 0.116516
H	-1.06394225	-0.3599774779	 0.0749407595	 0.070577
H	 1.6097060883	-0.168327134	-1.4230520975	 0.110727
H	 0.500544918	-1.547529535	-1.4483663123	 0.115824
H	 0.0189644839	-0.020036616	-2.1760620167	 0.111765
H	 1.7849881897	-0.1416844551	 1.1331097092	 0.065957
H	 0.7334243668	-0.3148162084	 3.4165653758	 0.116519
H	 0.2470160242	 1.1563101065	 2.5907846993	 0.118685
H	-0.8687932722	-0.2136615449	 2.678651164	 0.113439
H	-0.2406701208	-2.4223959261	 1.3627189031	 0.10662
H	 1.1674511588	-2.4120919368	 0.3155135344	 0.100508
H	 2.6435606954	-2.1620733143	 2.3704509114	 0.115161
H	 1.2222476187	-2.4816668737	 3.3869646702	 0.124759
H	 2.3014958458	-4.3894729879	 1.2075926833	 0.067447
32.8155	47.6199	71.9094	87.1052	150.3065	191.9109	198.2965	232.4329	282.9284	305.0482	363.1676	380.5668	419.2161	451.69	502.5143	533.6244	771.6681	784.199	848.0242	873.914	924.6801	939.5405	964.7706	968.1011	1003.1735	1017.0727	1058.8821	1085.3152	1153.9757	1164.9754	1182.1396	1190.079	1225.6302	1266.1433	1297.7326	1319.4412	1346.2954	1360.9178	1373.4062	1385.5536	1402.346	1412.064	1424.1245	1429.7655	1464.1992	1483.488	1490.3278	1494.2472	1497.9756	1504.9448	1510.8595	1523.7263	1836.5075	2840.8055	2974.5232	2991.7583	3003.7271	3022.0716	3026.4902	3031.5071	3034.7214	3071.077	3089.2273	3096.0749	3103.1601	3111.096	3115.1886	3117.2452	3127.558
CC(C)C(C)CCC=O	CC(C)[C@@H](C)CCC=O	
InChI=1S/C8H16O/c1-7(2)8(3)5-4-6-9/h6-8H,4-5H2,1-3H3	InChI=1S/C8H16O/c1-7(2)8(3)5-4-6-9/h6-8H,4-5H2,1-3H3/t8-/m0/s1
