14
gdb 131257	3.42312	1.61126	1.09577	2.5249	68.9	-0.1847	0.0274	0.2121	1003.7615	0.103616	-432.880216	-432.872563	-432.871619	-432.912217	28.453	
O	 0.077493406	 1.3733377168	-0.1095155213	-0.444446
C	 0.0561697776	 0.0120338051	-0.0271893809	 0.161807
C	-0.0009946561	-0.8209067613	-1.1127120119	-0.161022
N	-0.0586224528	-2.162360924	-0.6701621135	-0.427793
C	 0.0249296805	-2.12575168	 0.6861944334	 0.472188
C	 0.072024657	-0.8125131958	 1.1510632187	 0.096544
C	 0.1102719087	-0.9606233446	 2.563098898	-0.169018
N	 0.093967774	-2.238296897	 2.9226459958	-0.227139
N	 0.034154676	-2.9552934991	 1.7552062315	-0.3601
H	 0.1230294941	 1.7318097361	 0.7805768462	 0.301192
H	-0.0408726002	-0.5863314454	-2.1627784643	 0.123906
H	 0.0931479545	-2.9585408459	-1.2622742979	 0.261639
H	 0.1501151481	-0.2058723421	 3.335082765	 0.103535
H	 0.0331244626	-3.9578915326	 1.8015935511	 0.268705
129.4492	166.5402	203.5525	237.7339	280.8016	299.4041	427.2094	546.9134	583.8345	622.4459	651.4543	694.7558	697.9738	750.0413	815.1422	860.2951	967.4357	1060.0482	1072.9451	1109.6124	1190.7178	1228.613	1282.3181	1308.9494	1350.6169	1389.7018	1440.0874	1507.9079	1542.0518	1636.2376	1662.7698	3238.3899	3278.1224	3692.3912	3698.1947	3857.3589
OC1=CNC2=C1C=NN2	Oc1c[nH]c2c1cn[nH]2	
InChI=1S/C5H5N3O/c9-4-2-6-5-3(4)1-7-8-5/h1-2,9H,(H2,6,7,8)	InChI=1S/C5H5N3O/c9-4-2-6-5-3(4)1-7-8-5/h1-2,9H,(H2,6,7,8)
