13
gdb 11152	5.86943	1.36449	1.11471	3.1285	70.12	-0.22	-0.0364	0.1836	986.3347	0.095062	-361.479296	-361.472146	-361.471202	-361.510638	26.809	
O	 0.047954341	-0.0034024707	 0.0035011805	-0.367373
C	-0.0216487302	 1.2020132857	 0.0093888925	 0.402495
C	-1.275539845	 2.0954761198	 0.0321087867	-0.374562
C	-0.7236250226	 3.4918129829	 0.0311840132	-0.245861
C	 0.6211211616	 3.4266385883	 0.0120043254	 0.247088
N	 1.04726282	 2.0808483895	-0.0006221662	-0.393617
C	 1.5708991948	 4.4732421038	 0.0041760947	 0.265337
C	 2.4021491548	 5.3439500401	-0.0029099953	-0.426509
H	-1.902262205	 1.8680226321	-0.8384466485	 0.151927
H	-1.8770398987	 1.8591647047	 0.9179674771	 0.152014
H	-1.3012956975	 4.4022754411	 0.0440099581	 0.117065
H	 2.0087143424	 1.783530354	-0.0149295821	 0.266422
H	 3.1249199845	 6.1222173786	-0.009000136	 0.205574
111.1864	148.6528	176.1764	374.71	430.6908	435.3574	538.2228	563.3024	564.2979	595.3383	670.5255	673.9097	679.4675	750.4789	862.089	948.1187	976.4399	999.4722	1142.8017	1185.6332	1195.3796	1275.6055	1311.3781	1403.5398	1430.8525	1659.399	1843.7691	2235.1545	3042.5821	3072.8168	3262.4232	3500.4993	3666.9103
O=C1CC=C(N1)C#C	O=C1CC=C(N1)C#C	
InChI=1S/C6H5NO/c1-2-5-3-4-6(8)7-5/h1,3H,4H2,(H,7,8)	InChI=1S/C6H5NO/c1-2-5-3-4-6(8)7-5/h1,3H,4H2,(H,7,8)
