21
gdb 99633	2.27781	1.17067	0.88097	1.3095	84.54	-0.2556	0.0486	0.3042	1397.8665	0.18	-387.042285	-387.032055	-387.031111	-387.077698	38.038	
C	-0.0068258797	 1.544460396	 0.1668245423	-0.391826
C	-0.0587347945	 0.0165905062	 0.1196829487	-0.181561
C	-1.4871856184	-0.5517669551	-0.041515439	-0.16738
C	-2.1140231587	-0.1204497561	-1.2959340319	 0.339193
C	-2.6396121299	 0.1987924399	-2.3307635769	-0.492777
C	-1.5023916984	-2.0753007766	 0.0474742616	-0.039791
C	-1.7799270042	-2.7571414237	 1.3722436087	-0.322406
C	-2.8133469487	-2.7812851343	 0.2841378741	 0.107138
O	-3.963534997	-2.0148430553	 0.4959343966	-0.426595
H	 1.0225830649	 1.8971859987	 0.281025911	 0.113325
H	-0.4148565584	 1.9806467133	-0.7498145784	 0.13054
H	-0.5883971811	 1.934245671	 1.0097405123	 0.114621
H	 0.5623336454	-0.3541598846	-0.7045032094	 0.10287
H	 0.3590116804	-0.4037990246	 1.0417785464	 0.102682
H	-2.1023946672	-0.16315209	 0.7798284484	 0.113799
H	-3.0950119685	 0.4958812319	-3.243083602	 0.197396
H	-0.8040104858	-2.5644760797	-0.62640062	 0.089233
H	-1.2517910032	-3.6731350933	 1.6118961741	 0.112796
H	-1.9976856215	-2.1206870456	 2.2237070588	 0.12235
H	-2.9816005346	-3.7243107148	-0.2355014096	 0.084471
H	-4.1500134008	-1.5421964633	-0.324629486	 0.291923
50.9071	95.7158	119.0838	154.0163	174.1067	251.4193	266.4231	306.614	378.5312	385.0586	458.7609	484.3265	533.7917	622.7677	629.8918	642.0174	760.9582	797.4272	836.4473	853.5754	903.692	955.1165	999.4437	1021.2169	1047.1088	1069.0695	1099.8108	1126.3969	1131.6524	1171.6557	1174.7266	1236.4356	1263.6678	1287.733	1323.8752	1345.0286	1364.288	1396.0336	1411.8686	1423.6781	1483.2455	1485.9166	1498.4522	1507.1344	2222.4117	3026.5242	3033.9448	3035.7376	3069.7866	3099.6219	3102.6575	3114.3963	3133.9928	3142.5788	3222.86	3501.1555	3776.2393
CCC(C#C)C1CC1O	CC[C@@H](C#C)[C@H]1C[C@H]1O	
InChI=1S/C8H12O/c1-3-6(4-2)7-5-8(7)9/h1,6-9H,4-5H2,2H3	InChI=1S/C8H12O/c1-3-6(4-2)7-5-8(7)9/h1,6-9H,4-5H2,2H3/t6-,7-,8-/m1/s1
