18
gdb 65611	3.21291	1.3069	1.19444	3.8581	75.69	-0.2639	0.0236	0.2875	1092.3986	0.147914	-401.931017	-401.922802	-401.921858	-401.963883	30.985	
C	 0.1708687276	 1.4537859342	 0.0338354464	-0.44897
C	 0.0297384479	-0.0681408857	-0.0151090072	 0.122146
C	 0.9999943218	-0.8548472832	-0.9812914828	-0.291392
C	 1.5325114802	-1.7004893022	 0.2050874837	-0.068217
C	 2.7156517731	-1.0661006886	 0.9520214716	-0.086785
O	 1.8219807335	-0.2285289264	 1.7335983503	-0.287007
C	 0.6638203702	-0.8700785684	 1.1860062496	 0.091141
C	-1.3589290007	-0.4665125736	-0.2158211939	 0.245181
N	-2.4564402058	-0.8027407493	-0.3597814958	-0.34303
H	 1.1958634448	 1.7121071246	 0.3063623443	 0.139802
H	-0.0667781788	 1.8929139388	-0.9392299431	 0.132018
H	-0.5020196594	 1.8874068434	 0.778941731	 0.138295
H	 0.4800863945	-1.4272667744	-1.749808691	 0.132315
H	 1.7463826086	-0.2165796305	-1.4614192847	 0.112842
H	 1.4951402134	-2.783857675	 0.1145509417	 0.094058
H	 3.2722433128	-1.7521348921	 1.6014433338	 0.113319
H	 3.4226319904	-0.478180092	 0.3544080181	 0.107957
H	-0.0148844038	-1.2549154696	 1.9502983279	 0.096326
75.5304	146.2516	180.0374	210.8438	256.9233	313.0759	376.5659	444.0732	500.2857	571.413	615.5039	765.6672	794.4847	844.2386	861.0546	910.6324	917.3951	951.8287	981.5573	1011.2365	1026.8055	1058.4613	1131.8793	1140.1675	1156.9629	1185.7453	1207.7147	1221.1605	1247.4545	1271.2365	1304.0976	1324.026	1360.4081	1407.6058	1478.2677	1486.2577	1496.0674	1524.1598	2345.1999	3019.7594	3048.5854	3066.5725	3068.9762	3088.4643	3119.706	3130.9075	3139.8417	3141.8693
CC1(CC2COC12)C#N	C[C@]1(C[C@H]2CO[C@@H]12)C#N	
InChI=1S/C7H9NO/c1-7(4-8)2-5-3-9-6(5)7/h5-6H,2-3H2,1H3	InChI=1S/C7H9NO/c1-7(4-8)2-5-3-9-6(5)7/h5-6H,2-3H2,1H3/t5-,6+,7-/m0/s1
