13
gdb 66536	3.0366	1.68696	1.27854	4.3336	66.95	-0.2421	-0.0114	0.2307	934.8963	0.088723	-415.483078	-415.476233	-415.475289	-415.514303	26.594	
O	-0.1396626367	 1.395926558	 0.0333236067	-0.430945
C	 0.0047412648	 0.048995936	 0.0136085692	 0.328228
C	-1.1084153307	-0.9899029411	 0.0064257537	-0.16629
C	-0.0444349888	-0.9872540126	-1.0816634782	-0.105729
N	 0.8343589055	-1.9607649264	-0.2946941054	-0.194179
C	-0.195955277	-1.9591229567	 0.7888136009	-0.095449
C	 0.9080058632	-0.9463012711	 0.8331950703	 0.20302
C	 2.0285355005	-0.7825439825	 1.6881054562	 0.134691
N	 2.9269281127	-0.5982818833	 2.3946981445	-0.348685
H	 0.6110464092	 1.8043690438	-0.4159151351	 0.307032
H	-2.1761887561	-0.837756268	-0.0381659442	 0.1211
H	-0.0941264601	-0.9385474714	-2.1611284946	 0.122605
H	-0.3748605764	-2.8117099846	 1.4330317361	 0.124602
125.3638	159.2332	298.7261	325.6678	396.8723	510.8328	515.9414	556.3418	638.8471	663.2406	752.6814	804.3542	839.7012	864.2595	890.9193	906.2857	919.0213	950.0847	997.691	1026.764	1076.416	1160.5276	1170.9263	1236.4275	1252.5065	1303.2538	1364.1751	1485.8847	2342.5173	3189.2215	3208.6035	3239.6365	3772.0879
OC12C3C1N1C3C21C#N	O[C@@]12[C@H]3[C@@H]1N1[C@H]3[C@]21C#N	
InChI=1S/C6H4N2O/c7-1-5-3-2-4(8(3)5)6(2,5)9/h2-4,9H	InChI=1S/C6H4N2O/c7-1-5-3-2-4(8(3)5)6(2,5)9/h2-4,9H/t2-,3-,4+,5-,6+,8?/m1/s1
