18
gdb 15780	5.87085	1.04621	0.98109	1.5571	73.91	-0.2573	0.0483	0.3056	1211.4287	0.151607	-347.752571	-347.743634	-347.742689	-347.786285	32.864	
O	-0.474660125	 1.288936309	 0.116794275	-0.421375
C	-0.1110087991	-0.0802705239	 0.0542700275	 0.106875
C	 0.7254014468	-0.3947291552	-1.2076155877	-0.396917
C	 0.0664333417	-0.0299647567	-2.454534025	 0.309633
C	-0.4834864751	 0.2695903043	-3.4801212115	-0.437017
C	 0.6157761527	-0.5480823938	 1.30801408	 0.018105
C	 1.5878016376	 0.3540247187	 2.0293873698	-0.270993
C	 0.25494492	 0.0175183497	 2.6529578405	-0.27677
H	 0.2964438017	 1.8185658508	-0.1118055821	 0.284697
H	-1.0633923693	-0.6187467534	-0.0233434208	 0.101263
H	 1.6904313786	 0.1260781158	-1.1246297907	 0.124505
H	 0.9642551668	-1.4657780384	-1.2127883688	 0.132467
H	-0.970662895	 0.5344517261	-4.3854447673	 0.194687
H	 0.8759038554	-1.6035910408	 1.2838211869	 0.081953
H	 2.4878663052	-0.0859453194	 2.4437169438	 0.111776
H	 1.7176824887	 1.368347023	 1.666541973	 0.098866
H	-0.4892475504	 0.8053244134	 2.665556777	 0.129162
H	 0.2338289787	-0.6510331391	 3.5061266505	 0.109084
58.4724	86.7131	127.9868	231.3334	237.8081	269.4544	344.579	359.5254	405.3173	531.3421	596.715	620.7901	637.0882	781.4647	801.8963	830.7531	867.5053	909.3553	978.2705	1001.2302	1033.5593	1046.2307	1061.5319	1086.0684	1138.575	1153.1609	1184.6111	1199.3236	1228.5468	1290.9993	1327.9038	1361.5805	1394.4986	1422.6124	1458.138	1468.3961	1502.9827	2240.9793	3005.9165	3037.1983	3052.6338	3132.1401	3135.6372	3142.2523	3212.2934	3233.0532	3507.4817	3811.6781
OC(CC#C)C1CC1	O[C@@H](CC#C)C1CC1	
InChI=1S/C7H10O/c1-2-3-7(8)6-4-5-6/h1,6-8H,3-5H2	InChI=1S/C7H10O/c1-2-3-7(8)6-4-5-6/h1,6-8H,3-5H2/t7-/m0/s1
