13
gdb 123390	7.77211	0.79219	0.72214	2.6534	67.31	-0.2489	-0.046	0.2029	1436.7059	0.08716	-452.662745	-452.654754	-452.65381	-452.696608	28.056	
C	-0.0056970899	-1.1582090617	-0.0043606321	-0.398049
C	 0.0221532386	 0.0416287876	 0.0022002887	 0.296349
C	 0.010853868	 1.4936484672	 0.0106555877	-0.252476
O	 1.3730343552	 1.9628346663	-0.0022606962	-0.2699
C	 1.5220944277	 3.2917621103	 0.0033100859	 0.356459
C	 2.6776841835	 4.0127466097	-0.0064335726	-0.07023
O	 2.3412387944	 5.3081214745	 0.004815706	-0.150037
N	 0.9401645581	 5.3761007056	 0.0218348641	-0.009435
N	 0.4877161879	 4.1905182663	 0.020626794	-0.199388
H	-0.0271790437	-2.2202055239	-0.0102074044	 0.208953
H	-0.5211536691	 1.8876031201	-0.8638010688	 0.156179
H	-0.5009265032	 1.8774773826	 0.9015314339	 0.156192
H	 3.7220754926	 3.7574232653	-0.0202886762	 0.175383
44.3502	69.7563	114.2017	227.3472	321.904	348.1847	427.9924	508.4187	618.6399	643.9801	693.3514	713.3831	737.4099	766.7756	788.7934	975.8904	992.6471	1015.4852	1017.9291	1071.1939	1130.5275	1252.7374	1305.0729	1338.0373	1398.2241	1430.1764	1491.1122	1658.8244	2253.5418	3028.5934	3063.1285	3306.4874	3504.7635
C#CCOC1=CON=N1	C#CCOc1conn1	
InChI=1S/C5H4N2O2/c1-2-3-8-5-4-9-7-6-5/h1,4H,3H2	InChI=1S/C5H4N2O2/c1-2-3-8-5-4-9-7-6-5/h1,4H,3H2
