18
gdb 12505	3.50648	1.90343	1.35927	0.2514	83.05	-0.2123	-0.0262	0.1861	944.9674	0.155358	-310.694947	-310.687601	-310.686657	-310.726092	28.814	
C	 0.0072007773	 1.5251303379	-0.0834695255	-0.483225
C	-0.0300869298	 0.0153917484	 0.0095423884	 0.32281
C	-1.1988849249	-0.6449053944	 0.1398354734	-0.164429
C	-1.2955224583	-2.1486628038	 0.0990349987	-0.304882
C	-0.5949567871	-2.7112897886	 1.310162732	-0.078999
C	 0.7345148919	-2.5855641215	 1.4737845315	-0.06078
C	 1.6005254483	-1.7961973029	 0.6271765702	-0.093295
C	 1.2583403042	-0.6563973195	-0.0284688306	-0.151438
H	 0.5678553611	 1.9678358749	 0.7481990122	 0.127104
H	 0.5071727499	 1.8449910553	-1.0063242676	 0.123515
H	-0.998771322	 1.9519622105	-0.0818240508	 0.119564
H	-2.1177034727	-0.0774487038	 0.2667540183	 0.082638
H	-2.3397830155	-2.4683058884	 0.0677733801	 0.097955
H	-0.8060383146	-2.5253989233	-0.8104928322	 0.114941
H	-1.1838771601	-3.2404335118	 2.0545209126	 0.091523
H	 1.2117067321	-3.0957265357	 2.3080001253	 0.087753
H	 2.6495147082	-2.0846597339	 0.606019582	 0.087949
H	 2.060989162	-0.1119238593	-0.5239057383	 0.081294
145.6574	170.6484	256.9767	280.1699	333.1361	373.9823	437.3676	455.7371	612.882	642.3415	733.8389	760.2968	822.1311	844.5096	908.128	930.7241	957.9628	978.1617	1004.1366	1022.5653	1046.1574	1069.0763	1093.635	1166.2795	1224.1535	1248.699	1262.1613	1327.0156	1349.5414	1409.2218	1411.4097	1472.7025	1473.9975	1482.0714	1495.129	1585.963	1673.7718	1685.617	2996.9594	3022.1059	3071.7385	3092.9	3115.4576	3126.8496	3140.3975	3154.0054	3154.3774	3171.532
CC1=CCC=CC=C1	CC1=CCC=CC=C1	
InChI=1S/C8H10/c1-8-6-4-2-3-5-7-8/h2-4,6-7H,5H2,1H3	InChI=1S/C8H10/c1-8-6-4-2-3-5-7-8/h2-4,6-7H,5H2,1H3
