19
gdb 94227	3.21382	1.08584	0.9861	2.1709	77.03	-0.2496	0.0365	0.2861	1259.0625	0.156766	-422.982527	-422.973058	-422.972114	-423.01661	36.206	
O	 0.3092239752	 0.9524584501	-0.693342276	-0.438903
C	 0.1341889264	-0.1666887352	 0.1211931978	 0.134942
C	 0.0741533963	-0.0312579573	 1.6705426271	-0.268135
C	-1.0515890242	-1.1042967857	 1.6726854169	-0.266267
C	-1.2865670895	-0.8045473145	 0.1646577854	 0.361834
O	-2.1924915285	 0.2719852818	-0.0225112274	-0.494578
C	-1.6030706796	-1.9558485659	-0.8011464253	-0.419401
C	-2.9794086649	-2.4160070093	-0.6505134958	 0.263068
C	-4.1311233394	-2.7227051875	-0.484581873	-0.429354
H	-0.5273537118	 1.4353369889	-0.6626366749	 0.293264
H	 0.8834131324	-0.9091019154	-0.1742146696	 0.082821
H	 0.9869018404	-0.2416554982	 2.231055587	 0.098927
H	-0.3066855745	 0.9519439336	 1.9561257912	 0.111347
H	-0.6692364338	-2.1158245646	 1.8361367417	 0.100671
H	-1.9071990097	-0.9363616321	 2.3289896087	 0.104562
H	-3.0880802136	-0.0862305639	 0.0148328706	 0.288474
H	-1.4397396848	-1.601536308	-1.8267985333	 0.144874
H	-0.9045919854	-2.7831074974	-0.6300226913	 0.129993
H	-5.139356201	-3.0310667994	-0.3563892098	 0.201861
61.6405	113.8534	138.7599	225.2421	258.7033	324.4598	335.5809	363.9344	390.7935	421.6626	444.3629	473.1421	603.2491	625.1856	654.9546	668.7457	745.4316	794.3518	891.199	914.677	932.361	952.2373	971.2245	1014.9156	1095.261	1117.217	1155.2213	1158.5231	1202.2846	1232.0046	1242.2303	1270.2737	1291.9068	1311.5429	1339.7023	1393.2021	1444.9688	1459.6597	1471.7281	1491.7142	2228.2162	3028.1613	3053.8702	3063.5066	3069.9833	3072.7681	3119.2389	3134.4637	3503.7639	3766.2171	3774.2308
OC1CCC1(O)CC#C	O[C@H]1CC[C@]1(O)CC#C	
InChI=1S/C7H10O2/c1-2-4-7(9)5-3-6(7)8/h1,6,8-9H,3-5H2	InChI=1S/C7H10O2/c1-2-4-7(9)5-3-6(7)8/h1,6,8-9H,3-5H2/t6-,7+/m0/s1
