20
gdb 106744	2.1718	1.54721	1.08397	3.6858	80.26	-0.2375	0.0141	0.2515	1200.0485	0.169973	-403.159793	-403.150507	-403.149563	-403.19377	34.866	
C	 0.1233039609	 1.4947941343	 0.1779525469	-0.376433
C	-0.0900054285	-0.0145083655	-0.0096814253	-0.300179
C	 0.5598401901	-0.5258104539	-1.2642612764	 0.132113
C	 2.0377981622	-0.9418970335	-1.3720628173	-0.363575
C	 0.9607071317	-1.918812868	-1.7407773253	 0.300838
C	 0.7282454293	-3.2655965522	-1.1289787037	-0.478172
N	 0.4245584364	-1.6006966282	-3.0781048589	-0.396146
C	 0.1019646099	-0.2823182119	-2.6951701887	 0.394676
O	-0.3612651235	 0.6371186505	-3.3113412553	-0.351646
H	 1.1877137482	 1.7310175424	 0.278033734	 0.115849
H	-0.2623199477	 2.0450243668	-0.6848887563	 0.147957
H	-0.3901599084	 1.8543888161	 1.0746448634	 0.110228
H	 0.3061548399	-0.5608432234	 0.8556714856	 0.097068
H	-1.1650362657	-0.2297080187	-0.0461609477	 0.111302
H	 2.6801333261	-0.513188691	-2.136546424	 0.116667
H	 2.5239781369	-1.094409152	-0.4110173947	 0.11808
H	 0.9843391302	-3.2549745409	-0.0653633448	 0.125922
H	-0.3191828594	-3.5633573095	-1.2347838016	 0.134317
H	 1.3485858996	-4.031261269	-1.609166563	 0.126276
H	 0.9165775919	-1.8092562726	-3.941496177	 0.234856
70.3991	120.487	156.1354	202.958	217.3634	246.9688	285.0109	356.3219	378.7289	482.4162	516.763	583.5768	656.3455	704.578	724.2149	781.9855	805.4997	846.5932	907.7966	949.5273	984.1038	991.7988	1009.0834	1061.1334	1090.7084	1106.7937	1137.7406	1178.2375	1235.9036	1298.6079	1317.3876	1335.4765	1361.763	1401.3468	1411.5856	1428.9473	1479.8298	1483.6583	1495.3134	1497.4797	1503.9942	1511.4721	1886.7626	3020.2845	3032.2169	3038.7078	3054.486	3093.9164	3105.0835	3107.6275	3116.5972	3121.3783	3191.7479	3524.768
CCC12CC1(C)NC2=O	CC[C@@]12C[C@]1(C)NC2=O	
InChI=1S/C7H11NO/c1-3-7-4-6(7,2)8-5(7)9/h3-4H2,1-2H3,(H,8,9)	InChI=1S/C7H11NO/c1-3-7-4-6(7,2)8-5(7)9/h3-4H2,1-2H3,(H,8,9)/t6-,7-/m0/s1
