19
gdb 93398	2.72204	1.31599	0.92722	4.0809	80.24	-0.2345	-0.0461	0.1884	1248.4017	0.159093	-423.069809	-423.060978	-423.060034	-423.10322	33.524	
C	 0.0412670602	 1.528637386	 0.0047974227	-0.501347
C	 0.0516268548	 0.0283180602	-0.0356437109	 0.317405
C	 0.0347077348	-0.657249195	-1.1910846206	-0.259122
C	 0.017891802	-2.1304250875	-1.2726504339	 0.389057
O	 0.0225071177	-2.7115122704	-2.340401659	-0.337368
C	-0.0406486455	-2.8764753421	 0.0551691183	-0.332585
C	 0.6332174337	-2.0988321133	 1.1884831286	-0.222053
C	 0.0583940276	-0.6900023054	 1.3081365052	 0.018449
O	 0.8372739177	-0.0036564686	 2.2837349857	-0.426702
H	 0.939762565	 1.9036450506	 0.5062879928	 0.148811
H	-0.0069506888	 1.957285003	-0.9981412293	 0.135783
H	-0.8209260994	 1.9014294001	 0.5754098986	 0.124792
H	 0.0215271299	-0.1422059482	-2.1479923595	 0.097841
H	-1.1036746907	-3.0333835397	 0.2904607903	 0.12191
H	 0.3989411072	-3.8667717022	-0.0864157385	 0.125886
H	 0.5221312601	-2.6169009227	 2.145326974	 0.108722
H	 1.7081480782	-2.0032825123	 0.996014196	 0.119337
H	-0.989568102	-0.7602636142	 1.6523881442	 0.083346
H	 0.3431464875	 0.7613288316	 2.5923255852	 0.287837
70.7853	153.7611	196.9116	213.3811	261.2861	304.1164	340.6577	357.8305	412.9603	450.9517	517.8137	548.3357	634.1862	665.1494	756.6688	809.9835	882.7551	918.1388	974.6063	1013.2867	1040.7411	1063.4597	1073.8301	1091.0329	1142.9586	1170.1592	1218.1384	1259.5861	1278.4376	1328.8431	1341.0987	1353.505	1369.1197	1398.3991	1418.3371	1462.619	1477.1698	1489.6502	1496.6356	1687.4286	1774.8122	2932.4415	3012.1982	3014.5682	3046.039	3078.1741	3093.7773	3103.697	3130.3058	3168.2593	3834.5771
CC1=CC(=O)CCC1O	CC1=CC(=O)CC[C@H]1O	
InChI=1S/C7H10O2/c1-5-4-6(8)2-3-7(5)9/h4,7,9H,2-3H2,1H3	InChI=1S/C7H10O2/c1-5-4-6(8)2-3-7(5)9/h4,7,9H,2-3H2,1H3/t7-/m1/s1
