20
gdb 116344	2.93209	1.27716	0.98354	2.9099	74.52	-0.2391	0.0673	0.3063	1220.0668	0.173059	-440.252293	-440.243891	-440.242947	-440.285419	32.168	
O	-0.0563980037	 1.4230154633	-0.0044868434	-0.425498
C	 0.01064908	 0.003230839	 0.0253866693	-0.08914
C	-1.4148754016	-0.5388064461	-0.0163019457	 0.00784
C	-2.1513516159	-0.112726813	-1.2978427088	-0.09594
O	-3.4310371828	-0.7183214053	-1.3711450461	-0.250851
C	-3.3607592216	-2.111664277	-1.6115313075	-0.076793
C	-2.4039105123	-2.8405674093	-0.6761344437	-0.061421
N	-0.9762434607	-2.8140228914	-1.0536632631	-0.336701
C	-1.4318069286	-2.0491757951	 0.1221441424	-0.046236
H	 0.8386457549	 1.7660350489	-0.0769855643	 0.287432
H	 0.5713399075	-0.3929149586	-0.8345586592	 0.102968
H	 0.514032195	-0.3509453514	 0.9404106895	 0.078258
H	-1.9651877829	-0.1203391253	 0.8363655312	 0.087438
H	-2.31263266	 0.9660191956	-1.2949896524	 0.1219
H	-1.5478597146	-0.373839999	-2.1812143791	 0.098062
H	-4.3785383298	-2.4887079425	-1.4719172872	 0.103963
H	-3.0603820674	-2.3067491697	-2.6538294851	 0.09623
H	-2.7847209935	-3.7598207846	-0.2376769983	 0.087808
H	-0.5181954413	-3.6720474819	-0.7590834447	 0.229763
H	-1.1604369607	-2.4322222765	 1.1046583863	 0.080917
87.7579	122.993	169.4793	243.7362	278.7761	302.7721	371.7226	404.5953	446.311	493.0305	610.4386	701.6639	778.939	830.1669	875.8006	902.4512	937.2464	955.4883	979.4413	1017.6879	1060.1123	1072.3017	1085.9449	1115.6708	1125.2994	1150.4753	1193.0334	1221.563	1236.2065	1253.4316	1264.5023	1272.5848	1319.8852	1333.0525	1359.751	1380.2614	1408.3132	1418.7211	1453.1178	1462.9905	1487.22	1502.1016	1523.1308	2960.8667	2974.0742	2989.6087	3005.1157	3035.0837	3077.3951	3113.1309	3122.8857	3134.9702	3505.9707	3834.9706
OCC1COCC2NC12	OC[C@H]1COC[C@H]2N[C@@H]12	
InChI=1S/C6H11NO2/c8-1-4-2-9-3-5-6(4)7-5/h4-8H,1-3H2	InChI=1S/C6H11NO2/c8-1-4-2-9-3-5-6(4)7-5/h4-8H,1-3H2/t4-,5+,6-/m0/s1
