21
gdb 71883	2.65934	1.81418	1.32713	1.4874	82.17	-0.2317	0.0822	0.314	1047.961	0.181975	-387.064133	-387.055982	-387.055037	-387.096039	33.21	
C	 0.0779130386	 1.5180863325	 0.1044924476	-0.484734
C	-0.0691367416	 0.0287112547	-0.0439814742	 0.453985
C	 0.4965110856	-0.7089964789	-1.2864354345	-0.269139
C	-0.6353495328	-1.7626713046	-1.1590630939	-0.054383
C	-0.4013534434	-2.7463483123	 0.0178769588	-0.26914
C	-0.7983171704	-1.6258724778	 1.0152826127	 0.453985
C	-1.453033476	-1.9557774143	 2.3284530067	-0.484734
O	 0.2974826704	-0.6835156953	 1.1687394942	-0.375791
C	-1.3878480635	-0.7953525615	-0.1661079912	-0.207121
H	 1.1296816359	 1.7791212621	 0.2693813718	 0.126927
H	-0.265171185	 2.0356739511	-0.7969113621	 0.114095
H	-0.4990779466	 1.8814673076	 0.9601413677	 0.121204
H	 0.3643096415	-0.1022005542	-2.1886674715	 0.094683
H	 1.533968971	-1.0506214218	-1.2259547707	 0.095903
H	-1.0688713741	-2.1590207569	-2.0765962488	 0.065918
H	-1.1523443143	-3.5436577593	 0.0145534631	 0.094682
H	 0.5938700481	-3.1838075687	 0.1397134177	 0.095903
H	-0.7414001255	-2.4665424037	 2.9874234257	 0.126927
H	-1.7889533988	-1.0454301835	 2.8339479298	 0.121204
H	-2.314549306	-2.6145060999	 2.1801307014	 0.114096
H	-2.3997981831	-0.406670475	-0.2555915503	 0.06553
188.6472	197.1835	200.2694	222.7782	272.0539	347.3592	377.643	398.1341	461.1012	569.322	589.9438	741.5269	754.8241	809.9915	832.3418	849.6319	868.4539	908.4309	915.0656	929.2144	969.517	987.0815	996.1949	1022.5429	1089.0853	1112.6571	1138.9709	1153.598	1158.076	1182.3874	1213.0936	1229.9101	1251.6755	1262.5528	1288.596	1328.4739	1353.738	1407.0993	1413.1709	1462.8713	1474.097	1477.7953	1481.0352	1487.9152	1491.0064	3030.1767	3030.531	3040.1934	3041.4452	3096.4753	3097.4329	3099.8603	3100.3866	3110.1873	3111.8658	3112.9115	3139.2387
CC12CC3CC(C)(O1)C23	C[C@@]12C[C@H]3C[C@@](C)(O1)[C@@H]23	
InChI=1S/C8H12O/c1-7-3-5-4-8(2,9-7)6(5)7/h5-6H,3-4H2,1-2H3	InChI=1S/C8H12O/c1-7-3-5-4-8(2,9-7)6(5)7/h5-6H,3-4H2,1-2H3/t5-,6+,7-,8+
