18
gdb 68761	2.48983	1.72724	1.24147	3.5812	73.54	-0.2517	0.0264	0.2781	1037.3346	0.147379	-439.093986	-439.08543	-439.084486	-439.126721	32.73	
C	-0.0807132994	 1.564180708	 0.0454065325	-0.471988
C	-0.0614419132	 0.0590932936	 0.0683229763	 0.192437
C	 1.2156366925	-0.7107627952	-0.2821630226	-0.392256
C	 0.6535017328	-0.7797389195	 1.1039092643	 0.324736
O	 1.2955764612	-0.1856114706	 2.183498441	-0.463225
C	-0.2647502282	-1.95790646	 1.3888048685	-0.15091
O	-1.2871934648	-1.917087525	 0.3819904252	-0.252295
C	-1.3071372427	-0.694334612	-0.2472027952	 0.37699
N	-2.2508604321	-0.2835866434	-0.9780573992	-0.549812
H	 0.8556597448	 1.9634572649	 0.4435379603	 0.119976
H	-0.2199761646	 1.9301539807	-0.9753371312	 0.139185
H	-0.9042571311	 1.9510490257	 0.6520326895	 0.132023
H	 1.1586218279	-1.5796362894	-0.9306598602	 0.125982
H	 2.0940305751	-0.0882683101	-0.4170323907	 0.121964
H	 2.162920798	-0.5914397328	 2.2843996107	 0.291875
H	 0.2255586699	-2.9354096495	 1.3292947983	 0.111372
H	-0.7149647867	-1.841785233	 2.382133007	 0.122113
H	-3.0089495395	-0.9676210922	-1.0029783045	 0.221834
122.308	153.641	192.6931	203.6861	263.0284	273.0919	329.3528	416.448	428.2281	511.0884	557.3327	658.0683	672.0337	710.9113	764.5818	854.1866	890.3452	926.6937	949.5359	970.3126	999.1871	1044.6123	1059.5844	1084.0166	1108.5243	1180.1915	1200.1477	1226.3721	1249.7275	1320.2211	1367.9291	1378.4993	1417.6043	1420.7062	1482.0264	1488.9948	1499.8904	1519.7255	1777.094	3029.322	3047.6297	3077.1339	3116.9022	3122.6554	3126.1339	3216.4067	3475.6131	3807.6621
CC12CC1(O)COC2=N	C[C@@]12C[C@]1(O)CO[C]2[NH]	
InChI=1S/C6H9NO2/c1-5-2-6(5,8)3-9-4(5)7/h7-8H,2-3H2,1H3	InChI=1S/C6H9NO2/c1-5-2-6(5,8)3-9-4(5)7/h7-8H,2-3H2,1H3/t5-,6-/m0/s1
