23
gdb 95412	2.83447	1.19417	0.90476	1.0249	88.83	-0.2297	0.0199	0.2496	1380.6568	0.205836	-388.30615	-388.296667	-388.295723	-388.340416	36.366	
C	-0.2279818064	 1.5213084209	 0.0530766615	-0.3961
C	 0.0031788657	 0.0149421879	-0.0082509036	 0.141042
C	 0.5991035461	-0.4201683056	-1.3532690253	-0.177416
C	 0.7052395766	-1.9415084446	-1.5546266567	-0.275042
C	 1.7002089251	-2.6568694075	-0.6712479626	-0.147361
C	 1.7969984953	-2.5577250685	 0.6565877254	 0.323755
C	 2.8090902486	-3.3474486251	 1.4441571853	-0.481324
C	 0.8829050551	-1.66197093	 1.4792409524	-0.175984
O	 0.846961559	-0.3016843146	 1.0913002902	-0.2492
H	 0.7171484187	 2.0567958859	-0.0819245461	 0.122648
H	-0.9220253682	 1.8410945198	-0.729842076	 0.109783
H	-0.642001459	 1.8011498589	 1.025222939	 0.118788
H	-0.9639319235	-0.5030717107	 0.1294000448	 0.056145
H	-0.0322968227	-0.0079074032	-2.1506494315	 0.088367
H	 1.5899774393	 0.037961813	-1.4563027514	 0.101939
H	-0.2945389868	-2.3826416583	-1.4162349066	 0.104552
H	 0.9651933366	-2.1342043933	-2.600778244	 0.098411
H	 2.3911143869	-3.3257740503	-1.1815198019	 0.076481
H	 3.403404406	-4.0014935917	 0.8006933579	 0.118607
H	 3.4944179681	-2.6826103298	 1.9860608099	 0.127062
H	 2.3218296564	-3.9737316485	 2.203618228	 0.121116
H	-0.1407106207	-2.0779861247	 1.4801294978	 0.092559
H	 1.2242109537	-1.6570767703	 2.5198747535	 0.101172
41.3053	163.8509	211.2037	212.4051	222.6265	251.1985	307.5356	316.9568	352.0982	397.6016	467.5348	485.9981	574.7999	629.2811	766.0984	819.9447	845.7938	875.6756	905.7456	946.6539	968.9355	987.2004	1035.5954	1067.3477	1074.0557	1113.5214	1128.1323	1135.4349	1155.992	1200.4562	1226.9757	1269.9029	1300.3364	1335.0636	1368.2129	1369.1454	1388.2334	1401.2655	1408.6763	1411.1035	1418.8113	1468.981	1476.1543	1480.9395	1484.9777	1485.5228	1491.6156	1500.33	1739.8617	2930.349	2942.3622	2985.0976	3010.2077	3021.3011	3041.759	3055.0957	3062.2377	3063.7351	3069.9086	3109.9503	3114.0771	3122.2071	3136.2815
CC1CCC=C(C)CO1	C[C@H]1CCC=C(C)CO1	
InChI=1S/C8H14O/c1-7-4-3-5-8(2)9-6-7/h4,8H,3,5-6H2,1-2H3	InChI=1S/C8H14O/c1-7-4-3-5-8(2)9-6-7/h4,8H,3,5-6H2,1-2H3/t8-/m0/s1
