17
gdb 43856	2.83333	1.56869	1.15576	4.6837	74.78	-0.2585	-0.0454	0.2131	1064.8494	0.136624	-421.858658	-421.851159	-421.850215	-421.890671	29.404	
O	-0.0384575307	 0.0316212419	 0.317446645	-0.335977
C	-0.0094884855	 1.1915160805	-0.0009671689	 0.397623
O	-1.182226941	 1.874800419	-0.1520011648	-0.274889
C	-1.1540475867	 3.1318774163	-0.8155772558	 0.441719
C	-1.5634176492	 3.1027263378	-2.2643981386	-0.315462
C	-2.5070747617	 3.6306858068	-1.1984363873	-0.327626
C	-0.0589896839	 4.053341057	-0.3321280089	-0.343301
C	 1.2376756855	 3.2962780109	-0.2728262596	-0.062564
C	 1.2410151059	 1.9663124766	-0.1655302655	-0.177258
H	-1.1009538392	 3.8069255485	-2.9476311002	 0.116885
H	-1.7902882213	 2.1319889159	-2.6889964972	 0.134009
H	-3.3488112241	 3.0055735618	-0.9244793018	 0.137437
H	-2.6929626506	 4.6980844838	-1.1469890827	 0.118111
H	 0.0224562937	 4.9145096027	-1.0033508497	 0.12112
H	-0.2969246066	 4.4588011497	 0.6628794373	 0.132181
H	 2.1693567708	 3.8549410774	-0.297652678	 0.115543
H	 2.1492356747	 1.3791182233	-0.1046559634	 0.122448
108.5983	115.6551	266.7467	301.7337	341.9891	411.1585	466.6945	494.9958	540.2865	644.6844	670.5837	766.3483	816.8456	842.0339	851.6247	919.5213	924.983	976.2199	989.3332	1009.8411	1018.4917	1035.2359	1057.4262	1083.327	1139.2996	1188.1603	1199.6366	1237.9832	1306.164	1318.4139	1393.6336	1399.5964	1451.2782	1466.4991	1499.0035	1695.4417	1828.4146	3000.4842	3073.0046	3136.7533	3139.9019	3167.3881	3215.4355	3223.5683	3236.6613
O=C1OC2(CC2)CC=C1	O=C1OC2(CC2)CC=C1	
InChI=1S/C7H8O2/c8-6-2-1-3-7(9-6)4-5-7/h1-2H,3-5H2	InChI=1S/C7H8O2/c8-6-2-1-3-7(9-6)4-5-7/h1-2H,3-5H2
