19
gdb 116258	1.96817	1.61757	0.99078	1.7761	77.77	-0.2488	0.0505	0.2994	1222.8568	0.157899	-422.978426	-422.969085	-422.968141	-423.013127	33.726	
C	 0.1601711573	 1.240550137	-0.3993146481	-0.236771
O	 0.0652291899	-0.1538048655	-0.2225513937	-0.23622
C	-1.2329315252	-0.6097868907	 0.0943797193	 0.084315
C	-2.1139782774	-0.7898204986	-1.1619621985	-0.091091
O	-2.0424187825	-2.1635399545	-1.5435596509	-0.261291
C	-1.0793212596	-2.8251216054	-0.7393684954	-0.077413
C	-1.1188416444	-2.0670151894	 0.6029423647	-0.229749
C	-0.0190240682	-2.3373993748	 1.5096714346	 0.334902
C	 0.8773380964	-2.5995281395	 2.2656289478	-0.452685
H	 1.2102557398	 1.4678860838	-0.5964865531	 0.133653
H	-0.4406884909	 1.6004004559	-1.2482869712	 0.106013
H	-0.1595011093	 1.7835861966	 0.5035914925	 0.108884
H	-1.6974166466	 0.0530777817	 0.8374447065	 0.074648
H	-3.1641134665	-0.5372440056	-0.969924333	 0.102008
H	-1.7477388849	-0.1496997546	-1.974554709	 0.105794
H	-1.3690847402	-3.8748244889	-0.6498496621	 0.115659
H	-0.0722312364	-2.764514251	-1.17454623	 0.113002
H	-2.0685473916	-2.3139159368	 1.0943178789	 0.112803
H	 1.6759568204	-2.8202497096	 2.9294877808	 0.193539
55.8918	99.735	133.3188	144.2834	204.1178	206.1153	312.6232	352.855	413.8266	503.2287	527.353	622.2114	637.5101	651.6329	737.3268	844.5808	891.586	938.5809	982.3677	1020.575	1058.094	1076.1841	1094.343	1123.2025	1157.3245	1183.9871	1208.226	1229.8319	1242.1274	1276.4556	1298.6965	1326.7448	1360.968	1384.6997	1408.7138	1481.0217	1490.7917	1503.0467	1510.1857	1520.3921	2242.9764	2975.7461	3006.6531	3010.1938	3019.819	3025.4319	3033.232	3054.9577	3101.6639	3119.2212	3505.2046
COC1COCC1C#C	CO[C@H]1COC[C@H]1C#C	
InChI=1S/C7H10O2/c1-3-6-4-9-5-7(6)8-2/h1,6-7H,4-5H2,2H3	InChI=1S/C7H10O2/c1-3-6-4-9-5-7(6)8-2/h1,6-7H,4-5H2,2H3/t6-,7+/m1/s1
