14
gdb 46345	4.22478	0.75956	0.68033	3.7167	87.1	-0.2388	-0.0228	0.2161	1575.8248	0.099766	-399.512097	-399.503488	-399.502544	-399.546186	30.861	
O	-0.0811925793	 0.0020868517	 0.0242702717	-0.339603
C	-0.0677029729	 1.1978445778	 0.0140836925	 0.429842
N	-1.0378577847	 2.1578529119	-0.0829738087	-0.312927
C	-0.1574774036	 3.3206682939	 0.0270111957	-0.167087
C	 1.046896955	 2.3176134711	 0.0857511773	-0.384469
C	 1.8867517111	 2.339572127	 1.2537764388	 0.494676
C	 2.5872616669	 2.3503420252	 2.2413075001	-0.317633
C	 3.3715264844	 2.3653325586	 3.3519437362	 0.308717
C	 4.0688044449	 2.3811168877	 4.3378351513	-0.561822
H	-2.0411726423	 2.0767563558	-0.153384947	 0.260284
H	-0.1638038364	 3.9787189728	-0.8465868401	 0.123463
H	-0.2934286898	 3.9045781028	 0.9407030565	 0.132836
H	 1.6409273739	 2.323939103	-0.8335595331	 0.140055
H	 4.6813685527	 2.3902608608	 5.2050005789	 0.193666
69.911	76.0405	127.5912	191.0074	237.1219	368.8305	392.9605	460.1842	508.8354	540.751	553.8371	593.2343	600.7673	637.9733	738.1908	790.7698	883.0806	938.3207	997.2761	1050.0008	1139.1448	1159.1862	1174.7536	1204.0236	1293.5963	1335.1498	1395.0181	1526.1524	1914.6795	2182.7264	2358.8107	3053.8557	3066.9582	3109.5532	3504.5391	3617.2325
O=C1NCC1C#CC#C	O=C1NC[C@H]1C#CC#C	
InChI=1S/C7H5NO/c1-2-3-4-6-5-8-7(6)9/h1,6H,5H2,(H,8,9)	InChI=1S/C7H5NO/c1-2-3-4-6-5-8-7(6)9/h1,6H,5H2,(H,8,9)/t6-/m1/s1
