18
gdb 37337	3.26769	1.86005	1.79138	1.3865	72.28	-0.2318	0.0805	0.3123	845.8751	0.151717	-401.891137	-401.885296	-401.884351	-401.920895	25.988	
C	 0.0439662074	 1.4748208898	-0.2011936567	-0.256261
C	 1.2943461357	 0.7025366498	 0.0179697946	-0.014493
C	 1.8789368488	 0.4691161852	 1.431896908	-0.093848
C	 1.3048164515	-0.9560875639	 1.6748497492	-0.208345
C	-0.14990756	-0.5009690434	 1.430172016	-0.034922
C	-0.27795166	 0.6612567722	 2.4215374816	 0.03204
O	 0.5788835803	 0.5845713077	 3.5705855286	-0.259321
C	 1.050305772	 1.2953515642	 2.4201085509	 0.043024
N	-0.0282085962	 0.0162084226	 0.0132752393	-0.115543
H	-0.3080673745	 2.1659549322	 0.553952933	 0.118293
H	-0.2119402924	 1.7660460173	-1.2170580712	 0.114778
H	 1.9483824895	 0.4903524345	-0.8244069703	 0.093776
H	 2.9604585349	 0.5884305518	 1.4924661901	 0.069278
H	 1.6296532915	-1.6657666182	 0.9124025261	 0.106302
H	 1.4908409609	-1.3502695526	 2.6721702727	 0.120508
H	-0.92811561	-1.2623315936	 1.4735799544	 0.076563
H	-1.2090479008	 1.2002366767	 2.5637117297	 0.104869
H	 1.2113225614	 2.3605227979	 2.5530564039	 0.103303
306.9601	319.6733	395.5124	456.6428	528.9173	563.5559	612.8548	713.249	771.325	803.7471	818.5547	848.1914	856.0713	872.304	919.5014	925.5101	963.1389	977.5506	1003.7113	1014.0629	1026.887	1065.2289	1087.4483	1117.1267	1119.4445	1143.5738	1152.1469	1185.454	1229.3673	1251.6901	1277.3362	1281.3494	1296.5405	1298.2763	1324.96	1374.3437	1409.2993	1487.3804	1501.4899	3094.318	3115.5645	3119.2295	3120.2525	3134.5107	3160.9741	3162.2637	3172.9635	3215.7207
C1C2C3CC(C4OC34)N12	C1[C@H]2[C@@H]3C[C@@H]([C@H]4O[C@@H]34)N12	
InChI=1S/C7H9NO/c1-3-5-2-8(5)4(1)7-6(3)9-7/h3-7H,1-2H2	InChI=1S/C7H9NO/c1-3-5-2-8(5)4(1)7-6(3)9-7/h3-7H,1-2H2/t3-,4-,5-,6-,7+,8?/m0/s1
