16
gdb 129638	3.1379	1.19523	0.89513	0.4878	67.91	-0.2069	0.0213	0.2282	1237.9888	0.125448	-471.21095	-471.201806	-471.200861	-471.245067	33.014	
N	-0.1300837822	 1.5180479386	-0.1539251341	-0.626136
C	-0.0696714409	 0.1073672689	-0.0188515095	-0.035767
C	-1.1385532966	-0.7537641011	 0.1650687904	 0.328249
C	-2.6042633874	-0.4935865778	 0.2950345675	-0.179742
O	-3.3858580576	-1.508524456	-0.3286160399	-0.416507
N	-0.6180228308	-2.0050419446	 0.2191378716	-0.272198
N	 0.72792396	-2.0331473355	 0.0405798265	-0.336822
C	 1.0520352325	-0.7564342572	-0.0819972226	 0.37476
O	 2.3253631271	-0.3439074959	-0.2771031773	-0.439412
H	 0.6729581627	 1.850222311	-0.6776539281	 0.246499
H	-0.1002642389	 1.9849043524	 0.747768213	 0.241643
H	-2.9195897434	-0.5003936965	 1.3453602506	 0.12593
H	-2.8151126563	 0.5092683948	-0.1013467347	 0.124079
H	-3.1884568664	-1.484225384	-1.2713194534	 0.287966
H	-1.1357039315	-2.8641971118	 0.2788264488	 0.274633
H	 2.8758010897	-1.1349857452	-0.3298006087	 0.302826
62.1332	121.1929	137.8826	197.9809	256.9134	274.1172	324.5102	340.9735	388.1022	398.9276	479.1638	564.3314	617.5723	676.1479	733.4072	770.5339	793.781	865.5924	980.8905	1020.2051	1065.5797	1136.9294	1188.5097	1226.0626	1232.7757	1291.0757	1314.7536	1378.3381	1413.3735	1468.2654	1499.6888	1534.5414	1570.5693	1643.6811	1672.5896	3014.0503	3054.6729	3492.7405	3569.3698	3688.6083	3799.0305	3805.7101
NC1=C(CO)NN=C1O	Nc1c(CO)[nH]nc1O	
InChI=1S/C4H7N3O2/c5-3-2(1-8)6-7-4(3)9/h8H,1,5H2,(H2,6,7,9)	InChI=1S/C4H7N3O2/c5-3-2(1-8)6-7-4(3)9/h8H,1,5H2,(H2,6,7,9)
