19
gdb 43715	4.49702	1.04999	0.9936	3.0166	80.11	-0.2407	-0.0197	0.221	1234.159	0.158867	-385.866367	-385.858524	-385.85758	-385.89915	30.859	
O	-0.0404842246	 0.2238945215	-0.6799064095	-0.28787
C	-0.0439883395	 1.2830277798	-0.1251094359	 0.409662
C	-1.1595656713	 2.1948243347	 0.4211853507	-0.434713
C	-0.0471362754	 3.1706700734	 0.8625582917	 0.364607
C	 1.0674423041	 2.2561211693	 0.3146037584	-0.442239
C	 0.0026741206	 4.6635942864	 0.7706040161	-0.123381
C	-1.3491559219	 5.2743502231	 1.1595627319	-0.231792
C	-1.2629772315	 4.5497312708	 2.5444145121	-0.231798
C	 0.087455334	 3.9511313383	 2.132397933	-0.123397
H	-1.8469616575	 2.5580316443	-0.3501867626	 0.130837
H	-1.7491562807	 1.7356294106	 1.2217941104	 0.130816
H	 1.7555439991	 1.8325636854	 1.054104661	 0.130579
H	 1.6575966604	 2.6548102605	-0.5175685795	 0.130599
H	 0.7847440549	 5.1633689644	 0.209632796	 0.084694
H	-1.3129180084	 6.3609075473	 1.2620297198	 0.107263
H	-2.1964338244	 5.0165377641	 0.51540288	 0.097086
H	-1.1816022955	 5.2563938142	 3.3729207394	 0.10726
H	-2.0554806093	 3.831571557	 2.779950804	 0.097092
H	 0.944929757	 3.8172133849	 2.782706043	 0.084695
44.6866	165.2206	188.2354	257.7162	378.2433	386.0584	423.1516	477.1678	557.3344	667.6835	713.6102	729.1729	781.4492	832.6095	840.8216	898.4223	921.0409	963.3302	973.5696	976.4853	1017.6347	1032.2017	1040.1544	1083.283	1101.9847	1105.9793	1166.7246	1192.6567	1198.8867	1218.3023	1223.6512	1247.8942	1253.1038	1279.2033	1288.1151	1426.2857	1431.5131	1448.5609	1482.0113	1502.5283	1897.7861	3041.2451	3043.2913	3046.1655	3051.3176	3091.4454	3094.2717	3097.9464	3115.687	3163.8641	3174.8342
O=C1CC2(C1)C1CCC21	O=C1CC2(C1)[C@H]1CC[C@@H]21	
InChI=1S/C8H10O/c9-5-3-8(4-5)6-1-2-7(6)8/h6-7H,1-4H2	InChI=1S/C8H10O/c9-5-3-8(4-5)6-1-2-7(6)8/h6-7H,1-4H2/t6-,7+
