22
gdb 69372	3.8928	1.00242	0.94337	0.6898	88.02	-0.2284	0.0911	0.3195	1368.787	0.194131	-367.155364	-367.146634	-367.14569	-367.18881	34.104	
C	-0.018696198	 1.5719975043	 0.1806108015	-0.499594
C	 0.0514304988	 0.0781781663	 0.0512690066	 0.382579
C	-0.8276223288	-0.8623785111	 0.8304336452	-0.337606
C	 0.6667630139	-0.9718566615	 0.9818990071	-0.107428
C	 1.2485842373	-1.731478245	-0.2141543679	 0.073178
C	 0.614953095	-0.6687555188	-1.1689758003	-0.316313
N	 2.700577708	-1.6893971782	-0.2491490253	-0.0682
C	 3.3903334697	-2.8357946745	 0.3354408108	-0.226732
C	 3.3478459832	-2.6470750726	-1.1408549788	-0.224773
H	 0.9382382858	 2.0381644156	-0.0800261924	 0.119729
H	-0.785460834	 1.9944538769	-0.4809249833	 0.115839
H	-0.2686299055	 1.8690342312	 1.2047661844	 0.114383
H	-1.3457023769	-0.4211816354	 1.6768146475	 0.10605
H	-1.3903532368	-1.6488167935	 0.3296226784	 0.097083
H	 1.168301331	-0.8431393225	 1.9341237899	 0.083704
H	 0.8679793709	-2.7626000346	-0.3348171206	 0.043677
H	-0.1139117575	-1.0247517447	-1.905303242	 0.084561
H	 1.4027534906	-0.1099387805	-1.6791086111	 0.111126
H	 4.293061202	-2.6104851159	 0.8960245499	 0.114799
H	 2.7841022991	-3.6400470128	 0.7499441223	 0.110168
H	 2.7127690556	-3.325139429	-1.7092389793	 0.109132
H	 4.2187026067	-2.2816581338	-1.6773067425	 0.114637
78.7901	92.2878	184.109	211.0724	285.4111	308.7811	355.8598	379.71	427.4862	479.8927	621.7198	735.3269	770.897	811.9326	830.5167	877.7536	902.7474	919.3118	939.9338	956.919	995.099	1021.0934	1031.5499	1047.6316	1061.2442	1083.3247	1096.7311	1109.8908	1116.4168	1117.7137	1162.7241	1174.6279	1206.8506	1240.9732	1247.4792	1272.0465	1298.3716	1322.2199	1376.489	1395.8661	1423.815	1471.7644	1485.712	1491.0225	1496.8156	1504.2465	1519.307	2918.6934	3017.6758	3039.906	3076.1025	3092.1822	3093.3214	3093.5995	3097.8642	3111.0057	3176.2755	3176.3438	3188.6491	3190.6635
CC12CC1C(C2)N1CC1	C[C@]12C[C@H]1[C@@H](C2)N1CC1	
InChI=1S/C8H13N/c1-8-4-6(8)7(5-8)9-2-3-9/h6-7H,2-5H2,1H3	InChI=1S/C8H13N/c1-8-4-6(8)7(5-8)9-2-3-9/h6-7H,2-5H2,1H3/t6-,7+,8+/m0/s1
