19
gdb 116251	2.12101	1.46346	1.01889	4.27	75.29	-0.2342	0.0189	0.2531	1221.5578	0.160179	-419.208715	-419.1995	-419.198556	-419.243484	32.819	
C	 0.0348516213	 1.2661893979	-0.8560830347	-0.321547
N	-0.3254445605	 0.6266953059	 0.4034022484	-0.298033
C	-1.4380362693	-0.2887463113	 0.32410843	 0.027478
C	-1.2685614152	-1.6415092445	-0.4120598122	-0.268809
C	-2.3887245118	-2.4968893314	 0.1904752769	-0.073291
O	-2.7345918101	-1.9056759806	 1.4627818269	-0.256894
C	-1.9185594759	-0.7836890738	 1.7121373486	-0.038717
C	-0.7686251124	-1.1424051256	 2.576434561	 0.273864
N	 0.1436988375	-1.4322167496	 3.2244983319	-0.335963
H	 0.872047196	 1.9482703234	-0.6847667256	 0.128958
H	 0.3215151646	 0.5702951892	-1.6623314202	 0.102337
H	-0.810688573	 1.8630922933	-1.2163198405	 0.124718
H	 0.481623879	 0.1647336876	 0.8106007931	 0.234213
H	-2.2838586915	 0.2526261381	-0.117552789	 0.098117
H	-1.3498988918	-1.5519817724	-1.4969359402	 0.114623
H	-0.2834259213	-2.0593002055	-0.1769646752	 0.120444
H	-3.2919208602	-2.4921077213	-0.4303601715	 0.112998
H	-2.0899042118	-3.5374726528	 0.3523118571	 0.120191
H	-2.5107553336	-0.0255378666	 2.2324573051	 0.135313
58.7479	96.0895	117.8318	131.0153	193.2796	224.5175	277.5302	384.0812	426.1491	487.0772	575.0015	653.7316	714.1799	771.66	823.9556	876.7956	913.958	924.0562	997.3606	1019.8237	1061.7206	1097.0109	1102.1071	1153.481	1165.2719	1194.6739	1213.4537	1237.9783	1274.2281	1301.988	1320.7569	1360.0037	1374.4593	1391.9164	1460.1142	1488.0159	1492.6688	1504.2097	1525.0633	1530.3484	2348.1076	2962.745	3033.7946	3035.2241	3051.254	3058.9994	3076.9716	3078.268	3109.0597	3118.726	3521.1872
CNC1CCOC1C#N	CN[C@H]1CCO[C@H]1C#N	
InChI=1S/C6H10N2O/c1-8-5-2-3-9-6(5)4-7/h5-6,8H,2-3H2,1H3	InChI=1S/C6H10N2O/c1-8-5-2-3-9-6(5)4-7/h5-6,8H,2-3H2,1H3/t5-,6-/m0/s1
