18
gdb 91251	3.80608	1.20507	0.997	4.6082	80.07	-0.2399	-0.0263	0.2136	1195.2101	0.149201	-401.974553	-401.9668	-401.965856	-402.006694	30.425	
C	-0.0026212079	 1.5245917058	 0.2191248219	-0.408691
C	 0.0050905742	 0.0207328263	 0.0004784482	-0.051838
C	 0.7555738989	-0.5867514043	-1.2503380625	-0.267862
C	 1.2360420508	-1.7864686344	-0.339944212	-0.013603
N	 2.5963205036	-2.1836970481	-0.1238750598	-0.348085
C	 3.0588504006	-1.7266362102	 1.1224996507	 0.405765
O	 4.1116929005	-2.0361945319	 1.63201141	-0.37654
C	 2.0262202317	-0.7469465471	 1.5990162149	-0.340568
C	 0.9665922733	-0.8400772817	 0.7911773284	 0.239815
H	 1.0141336525	 1.9280806324	 0.1828782609	 0.125819
H	-0.5983554374	 2.0272602665	-0.5496233244	 0.12243
H	-0.4328820273	 1.7787489973	 1.1932984208	 0.126474
H	-1.0148282965	-0.3794921397	 0.0365018866	 0.093239
H	 0.1477857929	-0.8437800435	-2.1205019607	 0.107568
H	 1.5986444072	 0.041971056	-1.5431300601	 0.124018
H	 0.5488071442	-2.634921484	-0.4297880998	 0.099184
H	 2.990645576	-3.0337706044	-0.4959232105	 0.245747
H	 2.2395927627	-0.0315099849	 2.3803282074	 0.117129
116.3181	151.4645	209.1968	231.7656	337.8204	394.8085	446.5076	497.6096	531.0597	594.3272	681.9224	704.4568	738.898	808.344	865.0059	870.3974	901.309	916.6497	925.4834	1000.748	1048.4183	1073.0342	1097.7723	1137.0235	1145.194	1179.5856	1208.9976	1229.5704	1253.3324	1280.461	1342.1939	1378.234	1401.7261	1410.781	1471.3982	1492.8542	1497.701	1684.8531	1821.6595	3034.8766	3037.5697	3045.7074	3067.964	3103.5309	3110.1634	3139.942	3239.6632	3633.1655
CC1CC2NC(=O)C=C12	C[C@H]1C[C@H]2NC(=O)[CH][C]12	
InChI=1S/C7H9NO/c1-4-2-6-5(4)3-7(9)8-6/h3-4,6H,2H2,1H3,(H,8,9)	InChI=1S/C7H9NO/c1-4-2-6-5(4)3-7(9)8-6/h3-4,6H,2H2,1H3,(H,8,9)/t4-,6+/m0/s1
