15
gdb 42303	3.6493	1.17583	1.00411	3.5225	74.47	-0.2379	-0.0614	0.1766	1165.334	0.110741	-420.595757	-420.58741	-420.586466	-420.629735	29.863	
O	-0.1991517743	-0.0434555278	-0.0692098973	-0.271007
C	-0.1008520087	 1.159110228	-0.0585801786	 0.227452
C	 1.1796532773	 1.8436058978	 0.0319728258	 0.259963
C	 2.2190045153	 2.447473084	 0.1017900986	-0.429254
C	-1.3211612228	 2.1048397699	-0.1112434982	-0.038319
O	-2.4884827568	 1.4093493255	-0.4819511045	-0.245968
C	-3.3741091014	 1.3012775476	 0.6334297115	-0.118161
C	-2.7713749222	 2.1843231782	 1.6894382285	-0.082995
C	-1.6072125331	 2.6629531822	 1.2668085047	-0.101845
H	 3.1482347454	 2.9604539316	 0.1639894715	 0.217539
H	-1.1031182094	 2.8903031441	-0.8516575856	 0.108414
H	-4.3773501626	 1.6254780758	 0.3231017254	 0.113873
H	-3.4496938094	 0.2540369478	 0.9628474404	 0.122779
H	-3.2418782118	 2.3737398267	 2.6456079718	 0.115349
H	-0.9236704554	 3.3124848586	 1.7957321159	 0.122178
47.0888	76.3109	128.2146	191.6346	261.8903	290.6783	417.4526	453.3049	596.9187	653.8904	685.5871	710.6088	724.2257	768.2957	822.6163	890.4045	934.0096	945.344	956.7355	1005.2568	1045.0151	1071.67	1119.1556	1159.7146	1199.688	1249.9968	1327.7737	1348.5661	1385.0131	1513.5989	1682.8317	1788.5928	2207.118	2984.3224	2992.7733	3020.7678	3216.1084	3243.4745	3493.049
O=C(C#C)C1OCC=C1	O=C(C#C)[C@H]1OCC=C1	
InChI=1S/C7H6O2/c1-2-6(8)7-4-3-5-9-7/h1,3-4,7H,5H2	InChI=1S/C7H6O2/c1-2-6(8)7-4-3-5-9-7/h1,3-4,7H,5H2/t7-/m0/s1
