17
gdb 23525	2.50446	1.61115	1.26255	0.0656	77.14	-0.2235	-0.0022	0.2213	1041.1546	0.135291	-417.893232	-417.88527	-417.884326	-417.925435	31.144	
C	 0.0508648916	 1.4591696299	-0.2246669521	-0.337506
N	 0.0253534163	 0.0114082642	-0.0037335775	-0.090817
C	-1.1438071878	-0.4866574566	 0.8503616123	-0.14884
C	-0.7887149613	-1.9722763502	 0.9086409027	-0.066604
C	 0.5293737673	-1.9566621292	 1.1377616357	-0.071333
C	 0.8457895671	-0.4610959213	 1.1996864298	-0.140429
C	-0.3300923753	 0.0210667086	 2.0562280573	 0.485491
N	-0.4353186102	 0.7395540672	 3.0858044276	-0.31322
O	-1.791794587	 1.0556026704	 3.3525661866	-0.404024
H	 1.0124957579	 1.7219118368	-0.676366172	 0.12389
H	-0.7351717961	 1.7143872269	-0.9419914031	 0.124518
H	-0.0882237501	 2.0701656234	 0.681183267	 0.119906
H	-2.1503559295	-0.155791907	 0.6086677338	 0.093258
H	-1.4746332851	-2.7985033871	 0.7982236206	 0.116515
H	 1.2319723704	-2.7659191153	 1.266934273	 0.116767
H	 1.8684169321	-0.1070555933	 1.3090132626	 0.086656
H	-1.7147134402	 1.5838647226	 4.1539695356	 0.305772
98.396	188.3607	229.4848	281.8848	283.992	316.9777	385.3304	442.9772	524.2714	569.647	629.0136	686.0575	755.2098	770.1411	779.6163	879.9246	906.3448	913.096	921.5066	944.5885	1006.0815	1090.5641	1103.3083	1131.3975	1139.8611	1166.5552	1172.223	1218.1122	1229.6804	1265.0043	1315.2589	1400.4874	1445.0532	1489.1643	1502.6813	1610.8695	1790.1316	2980.6008	3072.9528	3106.5349	3155.0832	3166.3233	3236.7837	3262.2458	3822.2508
CN1C2C=CC1C2=NO	CN1[C@H]2C=C[C@@H]1C2=NO	
InChI=1S/C6H8N2O/c1-8-4-2-3-5(8)6(4)7-9/h2-5,9H,1H3	InChI=1S/C6H8N2O/c1-8-4-2-3-5(8)6(4)7-9/h2-5,9H,1H3/t4-,5+
