15
gdb 28088	5.59526	0.95896	0.81865	0.9442	71.5	-0.181	0.028	0.2091	1312.2574	0.115032	-450.172602	-450.164538	-450.163594	-450.205257	30.371	
O	 0.0794742009	 1.3486303196	-0.0095642648	-0.426424
C	 0.0639968414	 0.0045932951	-0.0051400463	 0.456682
N	 0.0923595397	-0.7790556286	-1.052183301	-0.440972
C	 0.0589236904	-2.0573898284	-0.5191813295	 0.358175
N	 0.0780963852	-3.1278046666	-1.4058511346	-0.376653
C	 0.0549376574	-4.4537254855	-1.0830660701	 0.073844
N	 0.0082515011	-4.8768894044	 0.1229305223	-0.46428
C	 0.0104136889	-2.0344714725	 0.846236437	-0.181401
N	 0.0147649836	-0.669800001	 1.1625771976	-0.30606
H	 0.1153844571	 1.6160064407	-0.9361568749	 0.313326
H	 0.1176932935	-2.8665635712	-2.3767705844	 0.257168
H	 0.0808091315	-5.0868720544	-1.9776279067	 0.086964
H	-0.0014342579	-5.8938416076	 0.1320646129	 0.21773
H	-0.0242677325	-2.8172099305	 1.5776907189	 0.160336
H	-0.0129954702	-0.2608549347	 2.0800566738	 0.271564
72.8512	173.8719	196.2624	272.4408	302.49	359.4194	388.8722	459.2995	473.4797	484.0895	576.6579	659.8979	704.8015	734.2643	745.8228	795.3579	831.2449	1004.9203	1029.9764	1032.1626	1090.9531	1135.1932	1197.8123	1226.5085	1269.722	1303.5343	1373.5495	1412.883	1545.6818	1583.1891	1631.5132	1644.3539	1715.6037	3049.737	3340.7275	3514.5565	3662.3786	3685.443	3811.4878
OC1=NC(NC=N)=CN1	Oc1nc(NC=N)c[nH]1	
InChI=1S/C4H6N4O/c5-2-7-3-1-6-4(9)8-3/h1-2H,(H2,5,7)(H2,6,8,9)	InChI=1S/C4H6N4O/c5-2-7-3-1-6-4(9)8-3/h1-2H,(H2,5,7)(H2,6,8,9)
