19
gdb 100818	4.27422	0.73015	0.70763	6.6814	72.64	-0.2498	0.0416	0.2914	1597.836	0.158194	-456.343609	-456.333194	-456.33225	-456.379406	37.182	
N	-0.1178783509	 1.5726662891	 0.0417236874	-0.498013
C	-0.006623915	 0.1182015129	 0.0012626965	 0.002035
C	-1.4222337491	-0.4927128612	 0.141587129	-0.336135
C	-2.0505528195	-0.165534954	 1.4179999548	 0.274918
N	-2.5428147801	 0.061615195	 2.438265058	-0.314589
C	 0.6488452578	-0.4371823003	-1.279052143	 0.135906
O	-0.097616524	 0.0548993986	-2.3800012383	-0.450146
C	 2.1138398103	-0.0345517944	-1.4262134188	-0.11762
O	 2.5195372759	-0.4962753943	-2.7117349938	-0.430292
H	 0.762396125	 2.0050887171	 0.2959698217	 0.232346
H	-0.3715067765	 1.9095935849	-0.8830232429	 0.239867
H	 0.5905763109	-0.2055330828	 0.8611802249	 0.096789
H	-2.0483526216	-0.1260938791	-0.6779662964	 0.165582
H	-1.3776285999	-1.583439488	 0.0456563728	 0.142703
H	 0.6096081642	-1.5396345104	-1.2549337819	 0.075192
H	 0.4599724469	-0.0823845514	-3.156688521	 0.296157
H	 2.2041963666	 1.0581867863	-1.3555052506	 0.08805
H	 2.716451913	-0.4903903701	-0.6266101731	 0.098647
H	 3.3446042761	-0.0658784278	-2.9519286351	 0.298602
58.1801	85.0317	107.5769	132.2518	209.671	252.9079	261.2407	286.4066	311.5369	339.9858	395.5711	414.4093	481.5305	527.7003	564.7641	699.1942	833.3289	877.3586	887.7728	930.2121	961.507	1011.8772	1044.1857	1081.8083	1128.1752	1133.3888	1164.5756	1226.8044	1231.2898	1264.585	1291.4797	1320.385	1355.437	1390.9432	1414.7926	1418.7524	1451.2486	1463.8022	1510.332	1658.3424	2365.5886	2958.8227	2987.8073	3033.7068	3050.6346	3053.8924	3098.5305	3500.4654	3592.6352	3773.4962	3843.2044
NC(CC#N)C(O)CO	N[C@@H](CC#N)[C@@H](O)CO	
InChI=1S/C5H10N2O2/c6-2-1-4(7)5(9)3-8/h4-5,8-9H,1,3,7H2	InChI=1S/C5H10N2O2/c6-2-1-4(7)5(9)3-8/h4-5,8-9H,1,3,7H2/t4-,5-/m0/s1
