22
gdb 117219	4.08316	0.73818	0.7105	1.5146	85.44	-0.2259	-0.0218	0.2041	1730.0189	0.191873	-404.342525	-404.332099	-404.331155	-404.378931	37.306	
C	 0.0983309791	 1.4768342824	-0.1471172993	-0.387089
C	 0.0945608667	-0.0112396134	-0.5051493461	-0.163956
C	-1.2354272249	-0.6914229658	-0.1859407327	-0.291962
C	-1.2778136977	-2.1710468703	-0.5365447713	 0.374341
O	-0.3181312838	-2.7514076268	-1.0046766986	-0.329336
C	-2.5813243646	-2.8604853998	-0.2547823606	-0.099867
C	-2.9226438287	-4.0935213081	-1.0421988828	-0.234935
N	-2.648700259	-4.1994439874	 0.3683028399	-0.081941
C	-1.4266427522	-4.8784053278	 0.7942403194	-0.325643
H	 1.0619693495	 1.9373064958	-0.3851260447	 0.116019
H	-0.6756685036	 2.0226987433	-0.6985757219	 0.112763
H	-0.0885869597	 1.6316052795	 0.9216192873	 0.113107
H	 0.3160455484	-0.1449495441	-1.5694966504	 0.112281
H	 0.8965718999	-0.5314970614	 0.0292527115	 0.112727
H	-1.4845638271	-0.5936034526	 0.8814437016	 0.124234
H	-2.068094334	-0.1988141775	-0.7107126779	 0.121216
H	-3.3860283268	-2.2037001375	 0.0676723269	 0.089765
H	-3.9535055856	-4.2541923284	-1.3483814432	 0.117779
H	-2.1588794541	-4.4261821391	-1.7431747431	 0.13213
H	-0.5721977624	-4.7316234742	 0.124886311	 0.146031
H	-1.1574942977	-4.5253974069	 1.7947773772	 0.119241
H	-1.652097822	-5.9471224098	 0.8631264477	 0.123095
39.2429	63.7049	107.2441	127.0775	183.3701	238.9632	248.6983	256.5462	316.3097	361.7029	401.3387	408.1386	578.9696	693.0965	726.7293	755.6077	819.2462	874.5024	888.2985	913.9608	1005.4968	1025.6362	1048.0819	1056.019	1091.7562	1107.8752	1124.7247	1132.0963	1151.9898	1171.4722	1215.3556	1246.9815	1311.1663	1320.8702	1330.9801	1383.3874	1405.4695	1414.0555	1442.8095	1448.4401	1485.1628	1486.1061	1493.0998	1501.0437	1507.6739	1511.3844	1778.5154	3000.9731	3025.9279	3026.9204	3028.0462	3049.059	3074.6395	3092.9719	3099.8126	3100.3659	3103.9461	3104.3054	3129.8243	3185.4473
CCCC(=O)C1CN1C	CCCC(=O)[C@H]1CN1C	
InChI=1S/C7H13NO/c1-3-4-7(9)6-5-8(6)2/h6H,3-5H2,1-2H3	InChI=1S/C7H13NO/c1-3-4-7(9)6-5-8(6)2/h6H,3-5H2,1-2H3/t6-,8?/m1/s1
