18
gdb 126369	3.06202	1.06684	0.83191	4.5352	74.23	-0.2511	0.0082	0.2593	1391.0907	0.148972	-435.300126	-435.291002	-435.290058	-435.335837	32.201	
C	-0.1943102687	 1.5656486451	 0.2315255209	-0.369284
C	 0.1610099541	 0.0834259094	 0.0393970332	-0.305653
C	 0.8576218174	-0.4977767603	 1.2278685475	 0.375388
N	 1.9585228688	-0.042640585	 1.8045830143	-0.367605
C	 2.1679172093	-0.9148047781	 2.8343746606	 0.317348
C	 3.3543358877	-0.7547116195	 3.7387688934	-0.147436
O	 3.6599190982	 0.6087150129	 3.9476540263	-0.420133
N	 1.2700328347	-1.8788475384	 2.9344253222	-0.273207
N	 0.4438688259	-1.5967875213	 1.892696635	-0.24612
H	 0.7048882608	 2.144729129	 0.4535253741	 0.1478
H	-0.6551995334	 1.9692326184	-0.6742124114	 0.118808
H	-0.8943233014	 1.6985448053	 1.0616253757	 0.126131
H	-0.7406764887	-0.5023572997	-0.1727285634	 0.105548
H	 0.8153264315	-0.0245175163	-0.833784289	 0.136903
H	 3.1441414062	-1.2145289807	 4.7087254681	 0.126845
H	 4.2135426901	-1.2919923761	 3.3018772694	 0.102306
H	 3.4730216084	 1.0553160214	 3.1121634791	 0.294666
H	-0.3625434208	-2.1755000461	 1.722554364	 0.277697
22.3268	56.2358	114.1602	184.3118	217.1049	253.0185	361.9755	390.2177	396.0063	482.4232	558.5723	619.8823	704.1602	747.9784	782.3081	803.4907	978.2926	1013.4018	1026.5844	1064.8688	1080.9342	1092.8542	1096.7211	1154.8568	1220.0062	1251.5291	1300.6599	1344.0376	1363.3835	1392.8465	1409.5517	1432.5557	1464.6652	1481.819	1495.6058	1505.9649	1507.7917	1544.7728	1586.9564	2956.6776	3035.1606	3048.1448	3070.9474	3086.814	3118.8648	3134.9207	3659.9528	3774.6985
CCC1=NC(CO)=NN1	CCc1nc(CO)n[nH]1	
InChI=1S/C5H9N3O/c1-2-4-6-5(3-9)8-7-4/h9H,2-3H2,1H3,(H,6,7,8)	InChI=1S/C5H9N3O/c1-2-4-6-5(3-9)8-7-4/h9H,2-3H2,1H3,(H,6,7,8)
