20
gdb 73106	2.80038	1.4906	1.22351	3.2237	79.67	-0.2518	0.0323	0.2841	1099.0331	0.172097	-403.171393	-403.163249	-403.162304	-403.204132	31.997	
C	-0.2687293787	 1.4469837098	 0.1629742133	-0.480345
C	 0.0767574764	-0.0195102426	-0.0474989525	 0.327282
C	-1.1141408239	-1.0067937696	 0.210327948	-0.281432
C	-0.4422771091	-1.4592306004	 1.5381307086	-0.233617
C	 0.8466300999	-0.7229544838	 1.1159020744	 0.07011
O	 1.7984243321	-1.5977773344	 0.5010334345	-0.250298
C	 1.8149758585	-1.4664247556	-0.862879359	 0.396714
N	 2.4920736881	-2.195633445	-1.6391974465	-0.536667
C	 0.9250621644	-0.3136991202	-1.2835190605	-0.370359
H	 0.6342408511	 2.0671390486	 0.1878693172	 0.119152
H	-0.9083185656	 1.8170843385	-0.6459284154	 0.124002
H	-0.8078216252	 1.6003493401	 1.1043026715	 0.11701
H	-2.0968356001	-0.5386682266	 0.3018853827	 0.103164
H	-1.1807079188	-1.8022845068	-0.5362107866	 0.112446
H	-0.9006144141	-1.0123184876	 2.4240421475	 0.107398
H	-0.3267419376	-2.5319103554	 1.7027781665	 0.11502
H	 1.3676665546	-0.1168341571	 1.8623986001	 0.080129
H	 3.0197363444	-2.8896188692	-1.106479788	 0.219845
H	 0.3478871298	-0.5764801148	-2.1724572577	 0.134288
H	 1.558576284	 0.5418886724	-1.546336108	 0.12616
81.6148	97.5978	238.5503	251.6005	313.9631	360.4231	370.5345	471.8576	514.4493	567.2655	633.6961	698.5483	742.1497	830.9711	863.4415	882.1777	895.7187	909.1902	951.2966	957.9549	968.1161	997.8063	1031.3303	1074.5387	1116.4274	1146.6087	1177.9423	1200.8397	1229.2774	1244.4321	1252.7718	1277.8725	1285.3461	1303.7983	1337.7977	1380.5588	1412.6362	1467.1993	1470.2077	1490.6565	1494.8606	1497.9955	1773.8036	3024.1341	3043.0956	3061.9781	3062.678	3074.2011	3092.6083	3093.9221	3109.9973	3112.7964	3130.9929	3469.4732
CC12CCC1OC(=N)C2	C[C@]12CC[C@H]1O[C]([NH])C2	
InChI=1S/C7H11NO/c1-7-3-2-5(7)9-6(8)4-7/h5,8H,2-4H2,1H3	InChI=1S/C7H11NO/c1-7-3-2-5(7)9-6(8)4-7/h5,8H,2-4H2,1H3/t5-,7-/m1/s1
