15
gdb 28893	2.47093	1.84198	1.06219	2.1486	71.1	-0.2319	-0.021	0.2109	1060.0981	0.113615	-454.021053	-454.013067	-454.012123	-454.053649	29.839	
C	-0.0636510141	 1.5177605895	 0.0775877525	-0.477732
C	-0.0112138666	 0.0187150605	 0.0144146756	 0.247023
C	 0.10152983	-0.6385359606	-1.2068493406	 0.227505
O	 0.1672400828	 0.0564494915	-2.3731250988	-0.442734
C	 0.1427099495	-2.03570822	-1.1648937001	 0.33297
O	 0.2521410447	-2.6883420976	-2.3452594147	-0.437799
N	 0.0801674892	-2.7261997843	-0.0418736509	-0.34588
C	-0.0271067342	-2.0011651761	 1.0784720968	 0.045613
N	-0.0755064969	-0.6794443966	 1.1637397034	-0.308579
H	 0.8366435219	 1.9593634776	-0.3633313375	 0.140811
H	-0.913374743	 1.9037385766	-0.4959409767	 0.140804
H	-0.1524449957	 1.8353831342	 1.1166817099	 0.141265
H	 0.2410552825	-0.5794197033	-3.0955642817	 0.312181
H	 0.2667387542	-3.6337024238	-2.1418956712	 0.307635
H	-0.0793802242	-2.5589116777	 2.009247584	 0.116916
79.5657	130.2249	243.8756	273.2415	305.4085	316.1234	405.5984	487.5836	520.3012	538.1147	563.7959	576.7048	629.01	718.3429	803.0993	886.3077	959.1383	962.5445	1039.8346	1059.4754	1151.2422	1256.1762	1286.512	1323.9057	1341.6075	1351.4065	1407.1862	1464.4236	1478.4767	1498.4097	1504.7582	1621.143	1656.4605	3040.5741	3092.9241	3153.8021	3174.6735	3773.9931	3795.2832
CC1=C(O)C(O)=NC=N1	Cc1c(O)c(O)ncn1	
InChI=1S/C5H6N2O2/c1-3-4(8)5(9)7-2-6-3/h2,8H,1H3,(H,6,7,9)	InChI=1S/C5H6N2O2/c1-3-4(8)5(9)7-2-6-3/h2,8H,1H3,(H,6,7,9)
