15
gdb 130344	3.09394	1.61901	1.11424	3.7116	68.16	-0.2163	-0.0407	0.1756	1024.411	0.115151	-450.074404	-450.067097	-450.066153	-450.106336	27.781	
N	-0.0431644589	 1.5092027658	 0.2265620576	-0.50093
C	 0.0331898442	 0.0755397945	-0.0258601632	-0.132008
C	-1.4133682541	-0.5432936065	-0.1682410035	-0.163614
N	-1.3586307097	-1.6287369997	-1.1982597482	-0.407902
C	-0.1928637449	-1.3331652125	-1.9099562276	 0.287761
C	 0.6217031024	-0.4337082817	-1.3136552678	 0.327461
O	 1.7440298753	-0.3261298554	-2.0036903959	-0.241752
N	 1.5598172684	-1.2380089492	-3.1486987589	-0.041142
N	 0.4313174642	-1.7968357457	-3.0268991922	-0.212601
H	 0.8740760029	 1.8746534885	 0.4632712513	 0.24222
H	-0.3422519471	 1.9951326833	-0.6148318338	 0.231485
H	 0.5523105117	-0.3748376165	 0.8293255303	 0.11799
H	-1.7769602191	-0.9369344958	 0.7823109681	 0.130687
H	-2.0862965383	 0.2649852667	-0.4825269534	 0.115177
H	-2.199827267	-1.6883999757	-1.7595344227	 0.247169
85.9539	160.0775	263.3037	291.5707	320.9604	449.424	458.2946	526.5153	572.5975	643.2374	673.3897	704.8136	762.0455	817.1221	869.5489	957.3815	985.0946	1007.246	1024.5883	1112.387	1175.349	1185.4553	1252.2775	1284.0071	1323.2696	1331.0936	1382.285	1408.7875	1419.8963	1492.3407	1510.2822	1650.9795	1662.5762	3023.4363	3031.6222	3113.6339	3489.6635	3549.6622	3573.1172
NC1CNC2=C1ON=N2	N[C@H]1CNc2c1onn2	
InChI=1S/C4H6N4O/c5-2-1-6-4-3(2)9-8-7-4/h2,6H,1,5H2	InChI=1S/C4H6N4O/c5-2-1-6-4-3(2)9-8-7-4/h2,6H,1,5H2/t2-/m0/s1
