12
gdb 129228	3.1815	1.59238	1.22021	4.0234	66.63	-0.2609	-0.1017	0.1592	951.7773	0.078213	-464.942789	-464.935686	-464.934742	-464.974774	25.994	
N	-0.1286265876	 1.2520007075	-0.2774455467	-0.488992
C	-0.0541275622	-0.0041324065	-0.0723621699	 0.361347
N	 1.1343158892	-0.764833966	-0.1438526051	-0.323005
N	 1.4631450674	-1.9217543143	 0.5842053924	-0.046731
N	 0.6638076181	-2.8657810202	 0.640278627	-0.134207
C	-0.5450962968	-2.8238394635	-0.1696066497	 0.395114
O	-0.6691776059	-3.5890332582	-1.0793199647	-0.263529
N	-1.5372960141	-1.9506436446	 0.2791777696	-0.205319
C	-1.3093267949	-0.7001162727	 0.3065786906	 0.038158
H	 0.7684206151	 1.6748284693	-0.5231038306	 0.229583
H	 1.9670139868	-0.1911220226	-0.1948261878	 0.267633
H	-2.098963655	-0.0216096782	 0.6252035148	 0.169948
74.1594	130.8754	260.4695	319.2644	347.7947	429.2293	475.7144	597.1017	629.0473	660.4609	691.2252	719.7036	799.5794	869.7877	911.6156	938.2286	978.7745	990.4998	1110.12	1127.1542	1338.1669	1378.5705	1455.4659	1627.0071	1689.9404	1726.2154	1851.05	3160.983	3465.7174	3577.5708
N=C1NN=NC(=O)N=C1	[NH][C]1NN=NC(=O)N=C1	
InChI=1S/C3H3N5O/c4-2-1-5-3(9)7-8-6-2/h1H,(H2,4,6,7,9)	InChI=1S/C3H3N5O/c4-2-1-5-3(9)7-8-6-2/h1H,(H2,4,6,7,9)
