16
gdb 93078	2.347	1.72705	1.0882	3.6895	66.55	-0.2615	-0.0061	0.2553	1082.449	0.124425	-475.061585	-475.053565	-475.052621	-475.094433	29.519	
C	-0.2403660238	 1.386921191	 0.0637473016	-0.408175
C	 0.174405602	-0.0620948672	-0.0534100497	 0.213381
O	 0.6871873615	-0.2565821469	-1.3620996394	-0.220388
C	 0.9732652987	-1.5327250974	-1.7412545897	 0.1355
N	 1.0736951607	-2.5985486604	-1.0789091248	-0.255177
C	 0.9604313579	-2.7175503242	 0.3643269416	-0.309152
C	 1.5275674828	-1.588659475	 1.2323689756	 0.403969
O	 2.2696959377	-1.7811816595	 2.1499398764	-0.299758
O	 1.1641251293	-0.3059807523	 0.9309148546	-0.224895
H	 0.6282862049	 2.0288767363	-0.0991879011	 0.151739
H	-1.0029271046	 1.6174245628	-0.6830001876	 0.13674
H	-0.6412435228	 1.5768066577	 1.0613929186	 0.141085
H	-0.6747106448	-0.7396241814	 0.0962391665	 0.101871
H	 1.1360486358	-1.5509806133	-2.8176077968	 0.136527
H	-0.0862804006	-2.8917156026	 0.6504651306	 0.143497
H	 1.5085778053	-3.6093931077	 0.6744068036	 0.153237
91.1659	126.8909	163.0938	223.1789	285.5907	355.2422	398.1264	456.8518	502.8894	543.7794	581.498	697.8571	784.7063	854.2923	857.6891	947.6127	983.8049	994.3153	1013.6356	1076.2272	1094.9706	1157.3611	1172.8106	1227.7678	1280.857	1350.6399	1385.7782	1395.8328	1419.5539	1428.0305	1478.1351	1483.8572	1487.4692	1770.4178	1863.6726	3014.0802	3042.4966	3063.0526	3107.0783	3147.4308	3148.1446	3158.2326
CC1OC=NCC(=O)O1	C[C@H]1OC=NCC(=O)O1	
InChI=1S/C5H7NO3/c1-4-8-3-6-2-5(7)9-4/h3-4H,2H2,1H3	InChI=1S/C5H7NO3/c1-4-8-3-6-2-5(7)9-4/h3-4H,2H2,1H3/t4-/m0/s1
