18
gdb 26122	2.02065	1.08896	0.87496	3.8131	80.44	-0.2369	-0.0653	0.1716	1432.4793	0.142998	-439.10817	-439.096678	-439.095734	-439.146777	37.893	
C	 0.0260281416	 1.6847746197	-0.112081329	-0.452886
C	-0.4129358707	 0.7330813563	 0.9507720955	-0.131585
N	 1.2884764219	-0.8749690738	-1.9782363639	-0.719794
H	 1.7092081473	-0.8178791383	-1.053830705	 0.247743
H	 0.8918168678	-1.8083871258	-2.0483750995	 0.23827
H	 2.0584749658	-0.849178599	-2.6415251373	 0.236422
C	 0.3614920687	-0.118487472	 1.620365797	 0.252624
C	-0.0293649564	-1.0871093139	 2.6924292876	 0.31275
O	-1.149966242	-1.2670797648	 3.1280058996	-0.350466
C	 1.2463472189	-1.7227902451	 3.0552097526	-0.306955
C	 2.1895396995	-1.1722714591	 2.2731618912	 0.048525
O	 1.7350547147	-0.2249764076	 1.4031508626	-0.230901
H	 1.0806048744	 1.9487193712	-0.0006580587	 0.132941
H	-0.0836829571	 1.2177214672	-1.0995390603	 0.182248
H	-0.5759655465	 2.5975874455	-0.0933683851	 0.126661
H	-1.464869071	 0.6849836138	 1.2211152948	 0.134243
H	 1.387255645	-2.4835297481	 3.8058137402	 0.131459
H	 3.254418908	-1.350511366	 2.2116205876	 0.1487
28.795	49.3367	98.3566	110.4535	118.9975	139.4938	160.8253	174.3855	223.0315	239.9298	346.684	371.7445	581.6442	591.2026	617.3367	753.0391	767.8199	815.4659	829.6958	880.9185	934.4931	995.3775	1005.8091	1057.1711	1068.8858	1101.8327	1127.2786	1185.8458	1251.9982	1312.9992	1374.8049	1413.0522	1475.0489	1487.2538	1618.6901	1678.6091	1690.5453	1737.1771	1795.2134	3027.6723	3092.7114	3124.9777	3175.8797	3236.8924	3275.2264	3461.933	3580.2082	3582.2164
CC([NH3+])C1=C([O-])C=CO1	CC=C1C(=O)C=CO1.N	
InChI=1S/C6H9NO2/c1-4(7)6-5(8)2-3-9-6/h2-4,8H,7H2,1H3	InChI=1S/C6H6O2.H3N/c1-2-6-5(7)3-4-8-6;/h2-4H,1H3;1H3
