15
gdb 29145	3.02414	1.46429	0.99363	3.8716	74.5	-0.21	-0.0694	0.1406	1128.4834	0.112406	-453.996881	-453.988657	-453.987712	-454.029611	30.68	
C	-0.0291693522	 1.4891203476	-0.0271889315	-0.462042
C	 0.0104070218	-0.006485299	-0.0502738888	 0.178982
N	 0.0172617641	-0.6506757099	-1.1712454092	-0.314152
C	 0.0484817057	-2.0306070757	-1.1587351451	 0.267032
N	 0.1311473773	-2.6244086312	-2.4187584625	-0.575715
C	 0.0556977333	-2.70715945	 0.0126656931	-0.018016
O	 0.0510758799	-2.0516141951	 1.2051919532	-0.194969
C	 0.0364053634	-0.6822962053	 1.2666071144	 0.37899
O	 0.0384989808	-0.1272829472	 2.3361325694	-0.338864
H	 0.8419409036	 1.8837421487	 0.5067098285	 0.152933
H	-0.0497200857	 1.8779377095	-1.0454716932	 0.136421
H	-0.907122886	 1.8390484119	 0.5262930791	 0.151163
H	-0.2531308238	-2.0251306137	-3.1365879477	 0.256242
H	-0.2395002953	-3.5623138136	-2.4747914732	 0.250028
H	 0.0724368232	-3.7820580369	 0.1306672136	 0.131965
90.5878	142.3731	213.6911	237.7019	279.1111	344.9552	360.7706	414.5918	483.4519	524.6855	590.7235	605.6545	657.1497	687.3216	787.7947	796.0975	820.3264	958.8999	1020.0323	1047.6684	1056.4045	1128.3402	1214.8954	1296.7228	1336.1598	1403.5077	1418.5533	1463.7207	1465.9703	1606.8119	1638.8636	1694.9409	1815.3991	3043.4731	3096.5976	3156.0204	3224.4605	3556.315	3659.7125
CC1=NC(N)=COC1=O	Cc1nc(N)coc1=O	
InChI=1S/C5H6N2O2/c1-3-5(8)9-2-4(6)7-3/h2H,6H2,1H3	InChI=1S/C5H6N2O2/c1-3-5(8)9-2-4(6)7-3/h2H,6H2,1H3
