18
gdb 47069	3.12696	1.53157	1.07581	3.3304	81.06	-0.2415	-0.0286	0.2128	1103.8705	0.150914	-401.979687	-401.972481	-401.971537	-402.011367	28.453	
N	-0.1124141517	 1.2888784414	-0.0205313292	-0.548387
C	-0.0542549174	 0.0250865791	-0.0347402807	 0.320788
O	 1.1141056697	-0.7071549748	 0.01024801	-0.258345
C	 0.8338091358	-2.1249903761	 0.1365159116	-0.112306
C	-0.588036978	-2.2942113138	-0.4142043168	-0.079128
C	-1.6206179095	-3.2493511917	 0.2165039948	-0.247649
C	-2.9391613718	-2.4141345893	 0.2222214292	-0.248342
C	-2.4386775015	-0.9824746324	 0.2657827716	-0.220791
C	-1.1571231283	-0.9365731436	-0.0915002228	 0.290504
H	 0.8257511214	 1.6864199378	 0.0546783474	 0.222298
H	 1.6118270737	-2.6561819248	-0.4152584112	 0.118638
H	 0.8911916057	-2.4040342643	 1.1968320503	 0.10992
H	-0.5342762322	-2.4372466378	-1.5029622305	 0.092112
H	-1.7208887806	-4.1998549224	-0.3130772343	 0.103193
H	-1.3329578299	-3.4724924324	 1.2504595343	 0.107174
H	-3.5332492753	-2.5964068576	-0.6852578253	 0.116765
H	-3.5898194705	-2.6591122863	 1.0682839386	 0.112412
H	-3.0419561795	-0.1372597409	 0.573667523	 0.121143
120.5034	183.7322	191.0434	291.4023	322.3786	449.9519	569.0614	594.8512	617.3404	690.8284	721.0817	811.772	846.7637	880.1121	895.9203	910.3086	948.4432	968.2319	971.3651	999.5076	1036.2541	1083.5221	1097.9192	1145.5915	1180.5337	1214.5615	1223.763	1258.3631	1288.7856	1299.2772	1310.5694	1334.8329	1362.0088	1397.6861	1480.37	1495.4035	1516.5317	1723.2136	1773.1233	2998.5573	3005.36	3021.4148	3042.0286	3069.2932	3103.3908	3110.3452	3214.7981	3471.348
N=C1OCC2CCC=C12	[NH][C]1OC[C@H]2CCC=C12	
InChI=1S/C7H9NO/c8-7-6-3-1-2-5(6)4-9-7/h3,5,8H,1-2,4H2	InChI=1S/C7H9NO/c8-7-6-3-1-2-5(6)4-9-7/h3,5,8H,1-2,4H2/t5-/m1/s1
