17
gdb 80507	2.29985	1.46724	1.23769	4.5244	74.21	-0.2518	0.0106	0.2624	1083.1597	0.136401	-417.974281	-417.965973	-417.965029	-418.006947	31.76	
C	-0.1610254773	 1.5624689711	 0.0490936834	-0.408763
C	 0.1322881789	 0.0733050961	 0.0230601133	-0.009377
N	 1.3344348071	-0.3733483586	-0.7732779319	-0.374805
C	 1.7683725367	-1.243036621	 0.332978492	-0.131428
C	 2.2198822587	-0.3413760464	 1.4186144632	 0.112201
O	 2.802177219	 0.8793288139	 1.1417747841	-0.423195
C	 0.7067144127	-0.6158714303	 1.2793683409	 0.114017
C	-0.0670021488	-1.1880440564	 2.3233060501	 0.182227
N	-0.7004896051	-1.6539074409	 3.1745952268	-0.353114
H	 0.6928133544	 2.1280491344	 0.4255133466	 0.141856
H	-0.4121536866	 1.9206101709	-0.9546925342	 0.121706
H	-1.018880013	 1.7592297816	 0.7005238462	 0.134854
H	-0.7538673833	-0.4840323828	-0.2997788233	 0.101534
H	 1.073372152	-0.8903190895	-1.6041182625	 0.239786
H	 2.0583844463	-2.2777736107	 0.1940964053	 0.121536
H	 2.6435848785	-0.8188999958	 2.2965001865	 0.133421
H	 2.7263947499	 0.9872485443	 0.1793770135	 0.297543
128.0481	142.8337	174.4626	220.3661	250.2353	308.73	394.267	482.5394	504.0843	536.5843	558.6727	613.7795	659.0653	719.7421	791.0159	833.7001	867.3281	921.6592	969.1538	1008.1872	1035.2687	1083.0534	1099.4554	1124.6812	1151.1049	1208.4371	1228.0737	1253.0455	1315.4874	1356.5562	1386.997	1400.6773	1412.6449	1475.0098	1487.89	1500.981	2335.2455	3040.5218	3045.4054	3106.583	3143.9501	3173.7819	3189.1737	3556.85	3677.6623
CC1NC2C(O)C12C#N	C[C@H]1N[C@H]2[C@@H](O)[C@@]12C#N	
InChI=1S/C6H8N2O/c1-3-6(2-7)4(8-3)5(6)9/h3-5,8-9H,1H3	InChI=1S/C6H8N2O/c1-3-6(2-7)4(8-3)5(6)9/h3-5,8-9H,1H3/t3-,4+,5-,6+/m1/s1
