21
gdb 79056	2.40328	1.85004	1.39842	0.3233	86.76	-0.2079	0.0249	0.2328	1038.4167	0.183551	-349.93792	-349.929929	-349.928984	-349.969879	32.449	
C	-0.0350375369	 1.6046418117	-0.0407778772	-0.416773
C	 0.1004482532	 0.0881727921	-0.0127713318	 0.037508
C	 0.6993463464	-0.6689338004	-1.1936303979	-0.088003
C	 2.2490415023	-0.7664735194	-1.1193726456	-0.070459
C	 2.9982437349	 0.1552006275	-0.2182674213	-0.193939
C	 2.4217629551	 0.1805865902	 0.991281048	 0.32902
C	 2.7913422155	 1.0036617381	 2.1829056357	-0.501812
C	 1.1586592413	-0.6559688254	 0.92556049	-0.175113
C	 1.3798155524	-1.6453438033	-0.2641938423	-0.079746
H	 0.922112323	 2.0935022783	-0.2394989065	 0.12057
H	-0.7323096881	 1.9051541891	-0.8313804203	 0.109087
H	-0.4292862163	 1.989260125	 0.9070914442	 0.106431
H	-0.8731730681	-0.3636632729	 0.2058102946	 0.075395
H	 0.2014607985	-0.8607402149	-2.1378557225	 0.078336
H	 2.7144002676	-1.1799016476	-2.0071771584	 0.07814
H	 3.8577080544	 0.7377793095	-0.5292618679	 0.085376
H	 3.7205761404	 1.5561063255	 2.0165588543	 0.121184
H	 2.007848448	 1.7317304012	 2.4307228064	 0.125601
H	 2.923220107	 0.3758484076	 3.0738267484	 0.120979
H	 0.7710064666	-1.024348999	 1.8757899397	 0.056634
H	 1.3797087127	-2.7284863028	-0.2456432796	 0.081583
146.6937	171.4364	193.5737	215.4843	297.8696	307.2207	458.4078	512.7804	558.1904	605.3192	683.03	752.76	758.1315	796.1251	823.7825	837.3298	875.4697	896.9654	923.1309	957.846	982.0863	1009.6708	1029.6294	1053.2357	1060.3957	1071.4471	1089.5215	1111.9554	1130.1305	1156.4135	1194.7515	1228.1762	1251.9607	1267.6913	1323.6896	1341.0167	1372.6126	1387.3703	1405.2893	1413.178	1477.1913	1488.9132	1490.7268	1502.834	1692.2999	3011.8472	3025.8331	3043.5993	3055.3164	3084.1802	3103.4268	3104.9713	3115.4843	3165.1775	3172.0579	3185.3877	3198.5709
CC1C2C3C=C(C)C1C23	C[C@H]1[C@H]2[C@H]3C=C(C)[C@@H]1[C@@H]23	
InChI=1S/C9H12/c1-4-3-6-8-5(2)7(4)9(6)8/h3,5-9H,1-2H3	InChI=1S/C9H12/c1-4-3-6-8-5(2)7(4)9(6)8/h3,5-9H,1-2H3/t5-,6-,7+,8+,9+/m1/s1
