15
gdb 45284	2.87855	1.79471	1.28984	2.4178	65.83	-0.2485	-0.0408	0.2077	946.564	0.112236	-457.708203	-457.701325	-457.700381	-457.739607	26.664	
O	-0.0166364348	-0.0135971287	-0.0767985997	-0.297774
C	 0.0256752331	 1.1776744075	 0.0023988805	 0.324549
C	-1.0588548521	 2.2957304227	 0.1040094575	-0.374993
C	 0.0181947277	 3.3603151528	-0.2275411825	 0.023165
O	 0.5209701166	 4.0996793854	 0.9070729796	-0.28992
C	 1.4820473319	 3.0763928925	 1.1752674653	 0.002298
C	 2.8420198897	 3.1818972094	 0.4409839287	-0.11757
O	 2.4074498705	 2.2496730655	-0.5959172943	-0.325108
C	 1.1069196705	 2.2315279285	-0.0771435642	 0.295067
H	-1.8225068348	 2.1871348565	-0.6706848854	 0.146046
H	-1.5400851199	 2.4017238192	 1.0784271591	 0.14346
H	-0.1324511854	 3.9747352332	-1.1148150686	 0.106724
H	 1.4847070064	 2.7326804338	 2.2107586141	 0.111307
H	 3.0555695529	 4.1779432131	 0.0417381806	 0.127019
H	 3.7077068678	 2.7876085787	 0.9815863292	 0.125729
114.0813	158.5545	267.6197	308.5958	425.6599	453.8225	496.3692	570.255	637.6794	745.2997	809.1083	834.627	875.4903	884.8932	959.1253	971.0103	998.9821	1031.8567	1037.8781	1073.2368	1085.7473	1126.6584	1138.8771	1167.6444	1182.8767	1227.4101	1274.1874	1301.3759	1344.3454	1357.8341	1422.4752	1501.4934	1888.9673	3045.737	3073.3338	3101.3418	3112.1661	3122.587	3136.604
O=C1CC2OC3COC123	O=C1C[C@H]2O[C@@H]3CO[C@]123	
InChI=1S/C6H6O3/c7-3-1-4-6(3)5(9-4)2-8-6/h4-5H,1-2H2	InChI=1S/C6H6O3/c7-3-1-4-6(3)5(9-4)2-8-6/h4-5H,1-2H2/t4-,5-,6-/m1/s1
