23
gdb 96554	2.2544	1.47458	1.03262	1.8593	81.07	-0.2515	0.0754	0.3268	1249.342	0.207165	-425.42782	-425.418737	-425.417793	-425.461261	35.426	
C	-1.0469358256	 1.1185152318	 0.1429927712	-0.403326
C	-0.0676137593	-0.0509383393	-0.0460205812	-0.005226
C	 0.7167548603	 0.1958569458	-1.3549574416	-0.090123
O	 1.9423117218	-0.5092663618	-1.4683598052	-0.235953
C	 3.0494854386	 0.1588081589	-0.9225515115	 0.006634
O	 3.1897138748	 0.0275392477	 0.461368267	-0.230855
C	 2.1179908154	 0.5616614773	 1.2287201805	-0.097279
C	 0.8563445168	-0.3234057541	 1.1742446941	 0.038232
C	 0.0931983427	-0.2785116668	 2.5056465929	-0.420436
H	-0.5204256	 2.0481574138	 0.3896701392	 0.115311
H	-1.6104103676	 1.299690564	-0.7792527778	 0.114217
H	-1.7733730149	 0.9234403323	 0.9353720044	 0.119713
H	-0.6659379886	-0.9615539869	-0.1805524478	 0.076446
H	 0.1023449538	-0.1082770406	-2.2092511924	 0.107347
H	 0.9100541953	 1.2748816689	-1.4679745795	 0.085108
H	 3.9404837906	-0.3018855065	-1.355941253	 0.11301
H	 2.9998546958	 1.2292319543	-1.1991618721	 0.073451
H	 2.4965606097	 0.5995126618	 2.2546802066	 0.104807
H	 1.9041612617	 1.5990825018	 0.9212249211	 0.084605
H	 1.2449401036	-1.3399634546	 1.0498242697	 0.096819
H	-0.209281222	 0.7391805589	 2.7752068651	 0.117249
H	-0.8127338459	-0.8922173249	 2.4647209619	 0.115105
H	 0.718029813	-0.6622738218	 3.3184307786	 0.115143
78.1062	142.5295	233.2488	252.6823	265.2149	294.5295	309.1786	316.8351	386.1428	419.618	463.7758	549.5281	553.5312	609.4255	750.9862	881.8997	913.2205	934.7337	946.7815	974.0279	982.2742	1015.4055	1047.1297	1076.6847	1100.2725	1126.2342	1156.3031	1180.843	1198.5533	1199.8552	1275.7709	1305.0228	1327.8275	1338.835	1346.3449	1366.2965	1378.4509	1406.3001	1410.1685	1413.9755	1426.7172	1450.5455	1487.1431	1489.9784	1495.9482	1497.5567	1505.3835	1509.0248	1515.4383	2920.191	2964.3498	2975.3881	3010.9324	3028.4375	3032.1011	3049.2229	3064.9877	3077.0886	3087.3102	3099.5875	3100.6287	3102.7915	3115.7779
CC1COCOCC1C	C[C@H]1COCOC[C@H]1C	
InChI=1S/C7H14O2/c1-6-3-8-5-9-4-7(6)2/h6-7H,3-5H2,1-2H3	InChI=1S/C7H14O2/c1-6-3-8-5-9-4-7(6)2/h6-7H,3-5H2,1-2H3/t6-,7+
