23
gdb 103625	2.15704	1.22541	1.15713	1.5799	81.23	-0.2483	0.0604	0.3086	1267.7392	0.203454	-425.413314	-425.402646	-425.401702	-425.448469	39.882	
C	 0.7780154495	 1.540991207	-0.042262926	-0.424549
C	 0.0525323165	 0.1975367156	-0.0357778314	-0.011933
C	 0.6278764151	-0.8921431188	-0.9888618251	-0.283215
C	 1.1566711916	-1.7159045295	 0.23026623	 0.311847
C	 0.719947444	-3.1779786133	 0.2891535558	-0.463568
C	 2.6690413516	-1.6058749925	 0.4068483633	-0.130714
O	 3.2911947159	-2.2697208823	-0.6854757037	-0.425123
C	 0.3597761305	-0.7458049081	 1.1723118128	 0.070842
O	 0.9727093177	-0.223050912	 2.3308997565	-0.427792
H	 1.8675294118	 1.4306871754	 0.0186649483	 0.108707
H	 0.5701608914	 2.0828479538	-0.9706725989	 0.121588
H	 0.4547238839	 2.1715602935	 0.7929926745	 0.123641
H	-1.0182236568	 0.38255495	-0.1642619044	 0.069839
H	-0.137482283	-1.421045202	-1.5617684403	 0.095027
H	 1.4005629957	-0.5548159403	-1.6844401777	 0.104748
H	 1.2292194223	-3.7676449315	-0.4779507795	 0.132635
H	 0.9557617604	-3.6162740719	 1.2664864182	 0.111389
H	-0.3601022937	-3.2702416167	 0.1330853536	 0.10386
H	 2.9832599667	-0.5495081413	 0.436817312	 0.063852
H	 2.9577293686	-2.0569059769	 1.3685073541	 0.096509
H	 4.2420056383	-2.2551211803	-0.5441730355	 0.287207
H	-0.5483355186	-1.2376942957	 1.5335710704	 0.082458
H	 1.6787762207	 0.3724209677	 2.0617614529	 0.282746
62.3944	113.9166	169.3699	205.9608	220.7347	239.8345	246.1018	261.0064	276.1332	292.7113	341.4162	361.9671	426.6588	542.2386	555.575	674.4486	768.8632	797.4709	842.3875	902.7177	915.2037	964.8633	974.7873	1000.0649	1042.4045	1072.2385	1088.696	1120.925	1141.7883	1186.7135	1199.5524	1216.0862	1250.1404	1260.8921	1267.0931	1285.4106	1299.1092	1342.0727	1365.6271	1399.1971	1402.6605	1436.4271	1453.1609	1486.444	1488.2775	1495.7091	1502.0085	1502.9883	1518.6567	2957.309	2998.3876	3021.7945	3024.1679	3045.3018	3059.0274	3066.0597	3086.3768	3087.2475	3099.5579	3111.7824	3115.0304	3820.3837	3832.329
CC1CC(C)(CO)C1O	C[C@H]1C[C@@](C)(CO)[C@H]1O	
InChI=1S/C7H14O2/c1-5-3-7(2,4-8)6(5)9/h5-6,8-9H,3-4H2,1-2H3	InChI=1S/C7H14O2/c1-5-3-7(2,4-8)6(5)9/h5-6,8-9H,3-4H2,1-2H3/t5-,6-,7-/m0/s1
