16
gdb 96819	3.14265	1.08183	0.91742	3.9777	73.77	-0.2498	0.0023	0.2521	1279.4965	0.122818	-434.054921	-434.045356	-434.044412	-434.090073	33.029	
C	-0.4189011602	 1.4159891165	-0.0843311181	-0.34271
N	-0.363564233	-0.036192981	-0.1555373036	-0.309015
C	 0.5012006013	-0.5671847495	-0.8970113519	 0.360291
N	 1.5362743205	-0.1116585149	-1.7229938843	-0.329831
C	 1.9906871802	-1.4372667119	-2.1363192403	-0.199555
C	 3.3556400924	-1.7662624838	-1.7300335034	 0.306411
N	 4.4264187084	-2.0331844373	-1.3870456143	-0.31792
C	 0.8420591895	-2.0342168376	-1.1946048638	 0.038028
O	 1.1747193275	-2.8985927959	-0.167889008	-0.396148
H	 0.5494248392	 1.9056747397	-0.2689330729	 0.10354
H	-1.1422469125	 1.8081093058	-0.8112215684	 0.127653
H	-0.7670644567	 1.7147837644	 0.9083558061	 0.135088
H	 1.615723822	 0.7459210768	-2.2458551407	 0.260563
H	 1.8557288302	-1.6696330192	-3.1979978353	 0.128294
H	 0.0771411361	-2.5292519137	-1.7973556	 0.132273
H	 1.6903558852	-2.4240009082	 0.494597289	 0.303037
48.8934	87.0754	127.6068	145.2264	193.8618	239.3404	272.9946	281.1252	342.9643	404.8353	503.3696	547.4196	636.5288	691.2938	765.8053	804.9471	920.1924	967.0657	1036.232	1070.8993	1110.2865	1125.1772	1157.7321	1182.0331	1186.5447	1264.8125	1303.452	1341.6959	1378.0386	1433.8447	1440.9723	1487.511	1507.272	1827.6754	2358.0048	2983.1675	3048.9974	3053.7781	3096.0033	3097.8877	3636.5131	3801.7891
CN=C1NC(C#N)C1O	CN=C1N[C@@H](C#N)[C@H]1O	
InChI=1S/C5H7N3O/c1-7-5-4(9)3(2-6)8-5/h3-4,9H,1H3,(H,7,8)	InChI=1S/C5H7N3O/c1-7-5-4(9)3(2-6)8-5/h3-4,9H,1H3,(H,7,8)/t3-,4+/m0/s1
