15
gdb 49931	4.81223	0.94253	0.86782	3.368	75.74	-0.2541	-0.0303	0.2237	1294.3699	0.112606	-416.802736	-416.79446	-416.793516	-416.836921	29.451	
O	-0.0622313277	-0.0552380478	 0.1085419907	-0.306457
C	-0.0254231483	 1.1525823049	 0.0731826986	 0.153194
N	 1.131336107	 1.8931045261	 0.0252836251	-0.08188
C	 1.2356351128	 3.355484645	-0.0269677328	-0.221727
C	 2.7948667272	 3.5510495703	-0.0612857686	-0.147175
N	 3.3855014242	 2.1861887403	-0.0630873483	-0.251085
C	 2.4203311931	 1.3604950144	-0.0124855183	 0.092271
C	 3.2416864239	 4.3324554576	-1.2090552385	 0.34407
C	 3.5815586824	 4.9870127896	-2.1569470873	-0.459011
H	-0.9271936555	 1.7932911143	 0.0786567338	 0.090121
H	 0.7579352546	 3.7562722013	-0.9237488247	 0.143463
H	 0.7838935076	 3.816514787	 0.8548907614	 0.134712
H	 3.1313694336	 4.0523843017	 0.8540074965	 0.129554
H	 2.5242317162	 0.2828198575	 0.0069237591	 0.173289
H	 3.8975691089	 5.5614416178	-2.9926284866	 0.20666
22.5269	132.1671	152.9946	223.3909	232.4661	256.5733	422.363	460.0763	558.2227	595.6658	634.1473	661.0292	750.164	801.9723	831.1882	927.4987	963.0511	988.0692	1028.8655	1040.0194	1072.6896	1214.1811	1226.0108	1274.6808	1285.0601	1310.545	1347.0437	1410.2308	1442.0445	1518.8647	1696.2008	1802.9551	2243.9525	2958.8093	3031.9676	3061.958	3111.8614	3234.4316	3502.2747
O=CN1CC(N=C1)C#C	O=CN1C[C@@H](N=C1)C#C	
InChI=1S/C6H6N2O/c1-2-6-3-8(5-9)4-7-6/h1,4-6H,3H2	InChI=1S/C6H6N2O/c1-2-6-3-8(5-9)4-7-6/h1,4-6H,3H2/t6-/m0/s1
