25
gdb 100969	2.31717	1.03987	0.96971	1.2589	89.05	-0.2482	0.0744	0.3226	1457.8653	0.226145	-389.488589	-389.477355	-389.476411	-389.524441	42.075	
C	-2.5538426686	 0.5668983317	-2.8351148129	-0.394034
C	-1.8991124157	-0.6560294849	-2.1848511918	-0.18624
C	-0.3766923102	-0.7701001109	-2.4141838979	-0.011077
C	 0.4093013153	 0.3543666909	-1.7222031297	-0.400723
C	 0.1279119996	-2.133900693	-1.9535234397	 0.415086
O	-0.0098929338	-2.3570131268	-0.5664830402	-0.480215
C	-0.0153132142	-3.3491074685	-2.8417065322	-0.366959
C	 1.3589845863	-2.7833870671	-2.5218545022	-0.037471
C	 2.2298824228	-2.1734003828	-3.5976313522	-0.417916
H	-2.1723019764	 1.5050473461	-2.4212196269	 0.120934
H	-2.3728449174	 0.5826898944	-3.9159048878	 0.113159
H	-3.6375206209	 0.5581127387	-2.6809862233	 0.11129
H	-2.0995749113	-0.6390822415	-1.1048191489	 0.089484
H	-2.377039836	-1.5635343384	-2.5763552211	 0.093383
H	-0.2061890211	-0.7025134212	-3.4964603764	 0.065459
H	 1.4757152778	 0.2866428353	-1.9568331863	 0.115037
H	 0.062515128	 1.3435503372	-2.0335646495	 0.106651
H	 0.3034968356	 0.2758544446	-0.6361516482	 0.126183
H	-0.9443523977	-2.5050628953	-0.3852073007	 0.280508
H	-0.3022720256	-4.2849075197	-2.3743716634	 0.106441
H	-0.3983551896	-3.2058004837	-3.8481590163	 0.102936
H	 1.9050984765	-3.3509045241	-1.7732602056	 0.094584
H	 1.6448141212	-1.6164661533	-4.3353852966	 0.116108
H	 2.9728992711	-1.4882405611	-3.174844757	 0.120503
H	 2.7729340245	-2.9561843165	-4.138893333	 0.116888
75.1806	83.6215	136.1593	182.6051	204.4649	207.8989	232.0802	240.0889	277.8995	316.7543	324.0219	355.0618	441.4919	451.1948	499.7511	549.4318	729.0588	786.9193	806.219	839.1115	886.4788	917.4251	931.9509	967.6175	985.893	1010.7634	1030.7223	1039.1698	1069.15	1104.1287	1133.4404	1143.6577	1185.3394	1190.7974	1228.5404	1284.9123	1298.8749	1310.6886	1342.9278	1358.1773	1383.1289	1402.7005	1410.2857	1412.6219	1427.6594	1485.5236	1489.9618	1491.9668	1493.7771	1499.6017	1505.7711	1509.5463	1510.9155	3007.8595	3020.2993	3030.4923	3031.7971	3043.8322	3046.115	3087.2344	3096.8289	3103.1092	3104.923	3112.5289	3118.6874	3119.9571	3149.2265	3210.4017	3799.9199
CCC(C)C1(O)CC1C	CC[C@@H](C)[C@@]1(O)C[C@H]1C	
InChI=1S/C8H16O/c1-4-6(2)8(9)5-7(8)3/h6-7,9H,4-5H2,1-3H3	InChI=1S/C8H16O/c1-4-6(2)8(9)5-7(8)3/h6-7,9H,4-5H2,1-3H3/t6-,7-,8+/m1/s1
