20
gdb 62741	2.44255	1.54081	1.24558	2.387	80.55	-0.2355	-0.0203	0.2152	1111.3114	0.168415	-403.13601	-403.126508	-403.125564	-403.169812	35.733	
C	-0.0734210162	 1.539992524	 0.0187083844	-0.477527
C	 0.0307507892	 0.0229470873	 0.0687972748	 0.274569
C	-1.2018107953	-0.6527646406	-0.5098443631	-0.45024
N	 1.2583123854	-0.7163042657	-0.2777335226	-0.1997
C	 2.4355958363	 0.120993409	 0.1327063967	-0.297036
C	 1.9599072528	 0.0597410314	 1.5942631678	 0.355456
O	 2.4669178224	 0.2849257337	 2.6568471346	-0.312859
C	 0.7338712238	-0.7104623982	 1.1813141262	 0.164063
C	 0.2145301555	-1.8786967471	 1.9676195712	-0.502734
H	 0.7236928785	 2.0621107785	 0.548961079	 0.134556
H	-0.0813179337	 1.8845401982	-1.021852319	 0.126902
H	-1.0200229378	 1.8497815371	 0.4728232054	 0.1299
H	-1.4212209421	-0.2274634626	-1.4949831615	 0.124256
H	-1.0440333488	-1.724333342	-0.6390427479	 0.135525
H	-2.0774178045	-0.4923558922	 0.1279832083	 0.120058
H	 3.3624642725	-0.445913443	 0.0041976188	 0.139485
H	 2.532087224	 1.086660765	-0.3684867566	 0.127062
H	-0.0997053421	-1.5297846337	 2.9571779674	 0.142904
H	-0.6388071273	-2.3622315916	 1.4896239154	 0.129457
H	 0.9987392473	-2.6276282775	 2.1166478905	 0.135904
92.989	109.6155	172.0503	203.4396	209.9053	263.5293	285.7943	328.4933	375.4284	414.0837	486.0613	514.1071	564.4845	630.7563	664.6226	690.4611	822.2755	833.6828	946.6998	962.2719	983.2034	1016.791	1042.0153	1048.5904	1077.7604	1131.9149	1143.5665	1155.26	1238.5146	1255.565	1298.2548	1389.1138	1410.3907	1412.0194	1424.1657	1465.1126	1478.811	1484.8723	1489.3211	1493.1489	1508.4639	1511.8551	1879.193	3035.5051	3040.0133	3043.7093	3063.9978	3096.0268	3101.3185	3102.5159	3118.1815	3135.8409	3136.3879	3143.5579
CC1(C)N2CC(=O)C12C	CC1(C)N2CC(=O)[C@@]12C	
InChI=1S/C7H11NO/c1-6(2)7(3)5(9)4-8(6)7/h4H2,1-3H3	InChI=1S/C7H11NO/c1-6(2)7(3)5(9)4-8(6)7/h4H2,1-3H3/t7-,8?/m0/s1
