19
gdb 58384	2.38411	1.13409	0.93225	2.5162	76.83	-0.2186	-0.046	0.1726	1312.8518	0.156404	-419.208062	-419.197698	-419.196754	-419.244159	35.889	
C	 0.6848502794	-0.2582496274	 1.2096402513	-0.331752
N	 0.1396629183	-0.1603862666	-0.1381555411	-0.034528
C	 1.1154580631	-0.5087035273	-1.1661662521	-0.339777
C	-1.1864830345	-0.7131123469	-0.2804930291	-0.075756
C	-1.9464879706	-0.1478240763	-1.5111393551	-0.38597
C	-2.1072381083	 1.3011254675	-1.4421600625	 0.285886
N	-2.2554953362	 2.4452854295	-1.3862677451	-0.302272
C	-1.3068186232	-2.2429798691	-0.2826486628	 0.158422
O	-0.3896440466	-3.0022486592	-0.1178371911	-0.235335
H	 1.5785259213	 0.3703160835	 1.2773055933	 0.125387
H	-0.0447332547	 0.1244843149	 1.9309382338	 0.119851
H	 0.9625044616	-1.2827089405	 1.501979235	 0.122225
H	 1.4556041519	-1.5525440082	-1.1181302263	 0.129375
H	 0.7071079775	-0.3235567106	-2.1638950377	 0.115086
H	 1.9852197759	 0.1458439854	-1.0520124924	 0.128002
H	-1.7674727755	-0.3992247432	 0.6013236885	 0.122546
H	-1.4257900129	-0.404433435	-2.4391719211	 0.162191
H	-2.9395651144	-0.6070075389	-1.573507612	 0.156735
H	-2.3490683019	-2.6216489415	-0.4251528134	 0.079683
43.5224	78.7361	97.5681	153.2315	196.0125	207.6233	236.7213	287.6212	300.3599	352.5693	390.5124	420.9239	436.1999	560.1775	727.8821	750.5474	843.8226	918.7858	955.0349	1010.6629	1057.4595	1076.4545	1117.2433	1123.0294	1184.7566	1193.4573	1257.204	1282.9649	1330.1807	1348.709	1381.5333	1419.3057	1443.1786	1462.7965	1477.3188	1484.8089	1493.6894	1512.6106	1527.8925	1838.1561	2368.1053	2827.0286	2985.1621	2992.1471	3008.6928	3052.046	3064.2361	3077.0985	3091.2457	3100.0743	3106.1217
CN(C)C(CC#N)C=O	CN(C)[C@@H](CC#N)C=O	
InChI=1S/C6H10N2O/c1-8(2)6(5-9)3-4-7/h5-6H,3H2,1-2H3	InChI=1S/C6H10N2O/c1-8(2)6(5-9)3-4-7/h5-6H,3H2,1-2H3/t6-/m0/s1
