18
gdb 89625	3.82133	1.10672	0.95157	4.3195	73.17	-0.2409	0.0225	0.2634	1228.4099	0.147563	-439.089906	-439.08111	-439.080165	-439.123424	33.413	
N	 0.1012321624	 1.1689009797	-0.4885230902	-0.538887
C	 0.0076038371	-0.0283540268	 0.1739154631	 0.289148
O	 0.9446384588	-0.5074941468	 0.7882166531	-0.373197
C	-1.3046117127	-0.7190481483	 0.0543210169	 0.259001
C	-1.7773425266	-1.6150944739	 1.1747966495	-0.311676
C	-1.4749019878	-2.2439239624	-0.1416623237	-0.083221
C	-2.6007464028	-1.9920523613	-1.1365584688	 0.120098
O	-3.8120863962	-2.6175146006	-0.7783039825	-0.428658
C	-2.4653303419	-0.4408120394	-0.9102340574	-0.378914
H	 0.9301842828	 1.7153852563	-0.3156708326	 0.258771
H	-0.7243325695	 1.6570374978	-0.7909184106	 0.257318
H	-1.0301278925	-1.7847461435	 1.9411295952	 0.142205
H	-2.8039918356	-1.5350004188	 1.518731643	 0.120791
H	-0.6822517603	-2.9716771275	-0.2568391742	 0.106417
H	-2.3014779388	-2.2609219716	-2.1576099343	 0.07634
H	-4.4711928177	-2.4068481734	-1.4474896475	 0.284503
H	-3.3436462042	 0.0454471596	-0.4731284169	 0.098332
H	-2.1740961146	 0.0840424609	-1.8238943122	 0.10163
69.5482	106.7136	163.3149	237.6183	288.7783	318.3073	326.827	391.2429	422.6015	498.9849	565.2309	567.3101	643.9427	707.9219	756.6664	827.0888	874.2202	885.044	959.8829	971.5657	985.3126	1027.384	1063.4985	1089.2834	1092.6838	1114.5102	1166.561	1208.7086	1218.1591	1244.32	1259.7493	1323.4353	1342.0291	1419.2092	1424.1388	1469.1244	1489.5593	1614.7914	1779.0513	3016.2653	3042.2772	3102.21	3129.9497	3202.7768	3232.1092	3593.1277	3725.0798	3814.7078
NC(=O)C12CC1C(O)C2	NC(=O)[C@]12C[C@H]1[C@@H](O)C2	
InChI=1S/C6H9NO2/c7-5(9)6-1-3(6)4(8)2-6/h3-4,8H,1-2H2,(H2,7,9)	InChI=1S/C6H9NO2/c7-5(9)6-1-3(6)4(8)2-6/h3-4,8H,1-2H2,(H2,7,9)/t3-,4-,6-/m0/s1
