17
gdb 29947	3.34278	1.42257	1.01034	2.3941	79.9	-0.2279	-0.0447	0.1832	1159.9921	0.137776	-414.245416	-414.237056	-414.236112	-414.278494	30.628	
C	-0.037978319	 1.4454879389	 0.0178126057	-0.325098
N	-0.0177718133	-0.010677244	 0.0072626058	-0.072322
C	-0.1227600702	-0.7231166945	-1.1289462292	 0.109632
N	-0.111431257	-2.0186724123	-1.2035267993	-0.339096
C	 0.0218201993	-2.6573179781	 0.0169941185	 0.342045
C	 0.0364801506	-4.1546844268	-0.0526672961	-0.456456
N	 0.1311248511	-2.0791338387	 1.175919768	-0.336258
C	 0.1180287857	-0.6943311766	 1.2449202096	 0.411498
N	 0.2151847456	 0.014152712	 2.3019317814	-0.574391
H	 0.8869725069	 1.8251392716	 0.457219099	 0.163134
H	-0.1472182003	 1.8061189914	-1.0069991494	 0.126956
H	-0.8664516278	 1.7995464902	 0.6350899764	 0.163116
H	-0.2239490909	-0.1367461682	-2.0407439038	 0.134316
H	 0.8586405771	-4.4867818878	-0.6952239806	 0.143863
H	 0.1435294967	-4.5853021061	 0.9423369535	 0.139622
H	-0.8879196774	-4.5121572759	-0.5182991312	 0.143858
H	 0.305368973	-0.6136634153	 3.0992359016	 0.225581
93.5825	115.7864	160.8802	191.6468	266.8169	307.2067	347.3289	427.1267	484.2583	536.8401	603.9712	649.8543	767.3803	782.3023	785.7934	865.6065	933.7552	990.1786	1020.2797	1065.2555	1092.8625	1114.0016	1157.9706	1207.9011	1273.2159	1345.0413	1392.1705	1402.7051	1445.6967	1460.6684	1460.8532	1463.5803	1473.1736	1517.314	1575.5037	1670.7836	1719.5927	3046.2055	3055.9694	3102.4381	3131.8376	3144.8467	3152.9586	3163.2634	3510.1898
CN1C=NC(C)=NC1=N	CN1C=N[C@H](C)N=C1[NH]	
InChI=1S/C5H8N4/c1-4-7-3-9(2)5(6)8-4/h3,6H,1-2H3	InChI=1S/C5H9N4/c1-4-7-3-9(2)5(6)8-4/h3-4,6H,1-2H3/t4-/m0/s1
