16
gdb 128150	2.78036	1.2744	0.88048	3.8696	79.13	-0.2103	-0.052	0.1583	1260.8459	0.125637	-434.091721	-434.08318	-434.082235	-434.125225	30.593	
C	 0.0529873916	 1.485640877	 0.0344902118	-0.330152
N	-0.140954457	 0.0513555742	-0.0788092024	-0.398815
C	 0.526985987	-0.6527672482	-1.0543732921	 0.169927
C	 0.667762225	-2.0452225962	-1.1753169431	 0.205832
N	 1.3725422898	-2.239214224	-2.3368294689	-0.237832
N	 1.6882368169	-1.1152151027	-2.9571412067	-0.197096
C	 1.1868619196	-0.1362669734	-2.1958130883	-0.073282
C	 0.2360360056	-3.1599313613	-0.3728599446	 0.069942
O	 0.461696357	-4.3247877265	-0.6517258567	-0.316002
H	 1.1020721104	 1.77187119	 0.2044513256	 0.12301
H	-0.2926477716	 1.9834900556	-0.8773957409	 0.14196
H	-0.5495256232	 1.8594162245	 0.8647773814	 0.132294
H	-0.2528951476	-0.4295496503	 0.7993941705	 0.246301
H	 1.6412559859	-3.1366353893	-2.7070318886	 0.288808
H	 1.3161146667	 0.8927871318	-2.4912130172	 0.116597
H	-0.3345166862	-2.8897579312	 0.5426161104	 0.058509
84.0271	142.0227	170.4924	172.7091	231.3454	237.5905	345.9793	374.2472	462.3044	535.389	589.8385	687.2303	692.9164	726.3397	809.9447	836.6606	958.1216	1017.9132	1078.596	1126.9779	1154.22	1169.5096	1219.8112	1279.0201	1304.8778	1384.6063	1399.6607	1452.5628	1464.3541	1483.5393	1489.3545	1521.9582	1546.4015	1625.5027	1751.2121	2881.3041	2988.9612	3071.8197	3127.6558	3263.5041	3623.6085	3664.1147
CNC1=C(NN=C1)C=O	CNc1c([nH]nc1)C=O	
InChI=1S/C5H7N3O/c1-6-4-2-7-8-5(4)3-9/h2-3,6H,1H3,(H,7,8)	InChI=1S/C5H7N3O/c1-6-4-2-7-8-5(4)3-9/h2-3,6H,1H3,(H,7,8)
