17
gdb 79324	3.50517	1.23722	1.1672	2.38	74.83	-0.2448	-0.0185	0.2263	1090.4318	0.13608	-421.787421	-421.779733	-421.778789	-421.819754	29.496	
O	-0.1547705877	 1.5025863423	-0.0897210169	-0.437317
C	-0.0262251332	 0.1018505021	-0.0911498213	 0.149539
C	-1.3371436516	-0.6680902389	-0.1318270145	-0.143558
C	-1.7328667973	-0.8340802222	-1.5744943745	-0.118917
C	-0.6818857647	-0.1261589496	-2.4346000257	-0.225183
C	 0.3641813586	-0.6373067046	-1.4092809524	-0.195269
C	-0.6504057714	-1.7537408585	-0.9866892223	 0.303519
C	-0.6209243731	-3.1919697108	-0.791542297	-0.002753
O	 0.3500945231	-3.899476735	-0.9400643657	-0.278665
H	 0.7204249559	 1.8893993984	 0.0159521119	 0.286002
H	 0.5929771437	-0.2534857734	 0.7426745845	 0.08194
H	-2.0337940675	-0.8355737282	 0.6793137336	 0.10476
H	-2.7392264973	-1.1253820038	-1.846925952	 0.103968
H	-0.5691137534	-0.6162175211	-3.4038901738	 0.109304
H	-0.7673149016	 0.957270328	-2.5525798801	 0.111468
H	 1.4046694893	-0.7937662002	-1.6803253129	 0.088464
H	-1.6056786319	-3.6161529145	-0.4830837911	 0.062698
83.3217	146.7082	222.0843	263.9799	287.0065	314.3972	455.1542	511.4659	587.9508	677.5796	718.7503	764.7705	818.2438	833.4636	916.8484	940.5335	969.722	989.0924	1007.4509	1010.9027	1042.8467	1050.5723	1099.1764	1116.2644	1134.4205	1162.3892	1183.422	1225.4621	1251.0904	1273.5211	1324.467	1336.876	1398.6324	1432.7011	1450.9049	1489.0997	1790.2487	2848.8821	3024.9083	3063.8311	3125.7956	3159.0592	3199.8497	3210.7731	3817.6318
OC1C2C3CC1C23C=O	O[C@H]1[C@H]2[C@H]3C[C@@H]1[C@@]23C=O	
InChI=1S/C7H8O2/c8-2-7-3-1-4(7)6(9)5(3)7/h2-6,9H,1H2	InChI=1S/C7H8O2/c8-2-7-3-1-4(7)6(9)5(3)7/h2-6,9H,1H2/t3-,4+,5-,6-,7+/m1/s1
