17
gdb 37154	4.03918	1.88722	1.65312	1.0516	74.93	-0.2244	0.0709	0.2953	838.8028	0.139215	-380.723741	-380.718103	-380.717159	-380.753298	25.056	
C	-0.1007723583	 1.5490848705	 0.0145936597	-0.35028
C	 1.4224797888	 1.2538003184	-0.0021918415	-0.041255
C	 1.3301747724	 0.1587140511	 1.0851773579	-0.062716
C	 1.8399053366	-0.9601035462	 0.176713876	-0.028709
C	 0.8083446025	-2.1014138899	 0.2643753943	-0.038066
N	-0.0293438996	-2.0660104441	 1.4906912668	-0.3353
C	-0.4965640177	-1.372081608	 0.2685729418	-0.215193
C	 0.0515725949	 0.0324817396	 0.1965297259	 0.383927
N	 1.2007298446	-0.0098321364	-0.8606199518	-0.182511
H	-0.4883678668	 2.1077450645	 0.8694404766	 0.106438
H	-0.5366208765	 1.8878772368	-0.9290313085	 0.111001
H	 2.2374304188	 1.9469537829	-0.2117280113	 0.081117
H	 1.3659932218	 0.2611231704	 2.1715855544	 0.076591
H	 2.8910801169	-1.2227877923	 0.044662467	 0.065161
H	 0.9480367267	-3.0355940849	-0.2667585392	 0.098067
H	-0.5213362538	-2.9543294406	 1.5737793624	 0.231741
H	-1.3671102313	-1.711753832	-0.2781210803	 0.099987
296.0632	331.2392	418.0718	479.3792	554.89	680.3738	717.9124	738.7149	793.979	819.2491	841.7332	861.9614	871.1468	877.362	887.9334	927.462	942.4199	952.3145	1008.593	1019.588	1050.3328	1087.0439	1106.1913	1115.6768	1139.0863	1145.2218	1165.9307	1186.0768	1205.3302	1211.5922	1221.9909	1265.184	1285.7164	1321.2942	1351.4543	1393.6315	1489.3923	3059.558	3083.4105	3098.8858	3113.3394	3128.7114	3182.6718	3196.827	3483.5129
C1C2C3C4C5NC5C13N24	C1[C@H]2[C@@H]3[C@H]4[C@H]5N[C@H]5[C@@]13N24	
InChI=1S/C7H8N2/c1-2-3-5-4-6(8-4)7(1,3)9(2)5/h2-6,8H,1H2	InChI=1S/C7H8N2/c1-2-3-5-4-6(8-4)7(1,3)9(2)5/h2-6,8H,1H2/t2-,3+,4+,5-,6+,7+/m0/s1
