20
gdb 92204	3.01156	1.72652	1.42071	0.8469	77.11	-0.2156	0.0665	0.2822	985.542	0.173374	-403.112441	-403.105268	-403.104324	-403.143851	29.447	
C	 0.0866756908	 1.5649835405	-0.0934676847	-0.409392
C	 0.0456220341	 0.0439348966	-0.0232731779	 0.060916
C	 0.63612091	-0.7028279523	-1.2641610148	-0.266558
C	 1.2958096178	-1.9594649797	-0.677358882	 0.113644
O	 2.7274692396	-1.7964495823	-0.4443327451	-0.309268
C	 2.5377840652	-1.6586926791	 0.976351991	 0.100641
C	 2.1771443083	-0.2109473644	 1.3622351144	-0.201502
N	 0.7131898086	-0.5113640398	 1.1698669249	-0.110728
C	 1.0263352523	-1.9275445396	 0.8503797105	-0.077062
H	 1.1075336942	 1.9381565739	-0.2248122934	 0.119141
H	-0.5042739809	 1.9211317821	-0.9428575352	 0.118497
H	-0.3248993815	 2.0059591763	 0.8191921983	 0.124897
H	-1.0062263794	-0.2607963243	 0.070480593	 0.078607
H	-0.1424446113	-0.9477071189	-1.9932172361	 0.097771
H	 1.3969576486	-0.1076957407	-1.7787150522	 0.112581
H	 1.1043724654	-2.8801399786	-1.236094959	 0.077969
H	 3.2711274517	-2.2212766116	 1.5556217907	 0.080733
H	 2.3838727012	 0.0613290088	 2.4026187887	 0.105384
H	 2.6157536186	 0.5400582812	 0.6985983173	 0.10909
H	 0.4323070368	-2.699534078	 1.3395561515	 0.074637
96.3609	231.1832	250.1245	315.4991	353.569	421.6803	497.4169	594.8924	641.0175	691.6707	759.9619	814.931	839.4482	853.645	878.4562	911.9141	946.6744	967.7166	981.4007	1008.0612	1020.3277	1046.8879	1066.9683	1101.4005	1115.5207	1153.7466	1198.6835	1206.0922	1213.7862	1221.1807	1245.7341	1275.3847	1296.1109	1306.952	1319.4111	1344.3268	1360.2904	1377.6978	1409.4922	1477.3011	1487.2193	1497.4822	1498.8252	2997.2813	3034.5535	3039.603	3048.6755	3065.0995	3089.854	3097.6174	3099.2241	3106.8898	3112.5177	3114.4439
CC1CC2OC3CN1C23	C[C@H]1C[C@H]2O[C@H]3CN1[C@@H]23	
InChI=1S/C7H11NO/c1-4-2-5-7-6(9-5)3-8(4)7/h4-7H,2-3H2,1H3	InChI=1S/C7H11NO/c1-4-2-5-7-6(9-5)3-8(4)7/h4-7H,2-3H2,1H3/t4-,5+,6-,7-/m0/s1
