21
gdb 81000	2.4934	1.50588	1.24635	1.27	77.99	-0.2486	0.0752	0.3239	1107.19	0.182841	-424.215543	-424.206818	-424.205874	-424.248055	34.974	
C	 0.0207114233	 1.5225453748	 0.0309151968	-0.505403
C	 0.0299915107	 0.0130914205	 0.0155178812	 0.338749
C	 0.9571413426	-0.8175553064	-0.9346799098	-0.280477
C	 0.704898722	-1.940903069	 0.1090856207	-0.082198
C	 0.6715647676	-0.8038090872	 1.1784402573	 0.122972
O	 1.9278156228	-0.2620839688	 1.5304097039	-0.454343
C	-0.789711081	-2.2183440896	-0.0756511507	 0.126482
O	-1.2772013922	-2.9496199846	 1.0401408928	-0.444966
C	-1.3053256898	-0.7383089725	-0.1585439101	-0.305078
H	 1.0203312815	 1.9118168137	 0.2443180642	 0.131939
H	-0.306290298	 1.9263418359	-0.9341926981	 0.109501
H	-0.6607726641	 1.9065473233	 0.7991782653	 0.110633
H	 0.6170900718	-0.9835586007	-1.961993073	 0.080648
H	 1.987020972	-0.4641473998	-0.922695162	 0.11301
H	 1.3563982438	-2.809671673	 0.2110483945	 0.057357
H	 0.0523876587	-0.9839124978	 2.0653309432	 0.068732
H	 2.3754344946	-0.8968969554	 2.0980194937	 0.283998
H	-0.98405989	-2.7710613408	-1.005548234	 0.063139
H	-2.2281867876	-3.0523009024	 0.937027508	 0.280862
H	-2.0156388746	-0.5304202113	 0.6490430728	 0.091847
H	-1.787382014	-0.5051768889	-1.1132371367	 0.092595
158.4705	208.4134	210.8703	223.032	273.4309	278.7639	340.3372	357.7854	395.9374	458.681	480.0943	563.8937	631.7362	669.9063	818.3272	832.6302	863.2334	909.6485	926.0197	937.0512	976.4349	990.4265	1034.8333	1044.9226	1088.6497	1097.4299	1135.8249	1168.6407	1173.3922	1187.1463	1227.4367	1238.9382	1247.2937	1258.8684	1292.6143	1300.7236	1338.3924	1353.2073	1409.0724	1421.3814	1432.4709	1481.3856	1490.1164	1497.4683	1506.4232	2993.7127	3024.433	3031.7958	3040.0061	3053.3131	3083.6651	3088.0527	3108.9828	3109.5886	3148.6716	3821.8067	3822.0354
CC12CC(C1O)C(O)C2	C[C@@]12C[C@@H]([C@H]1O)[C@@H](O)C2	
InChI=1S/C7H12O2/c1-7-2-4(6(7)9)5(8)3-7/h4-6,8-9H,2-3H2,1H3	InChI=1S/C7H12O2/c1-7-2-4(6(7)9)5(8)3-7/h4-6,8-9H,2-3H2,1H3/t4-,5+,6-,7+/m1/s1
