18
gdb 71020	4.03621	1.7131	1.42443	1.5645	80.17	-0.2168	-0.0055	0.2113	938.3134	0.148236	-364.694176	-364.68739	-364.686446	-364.724745	28.681	
C	-0.0927628953	 1.4522468594	-0.0359149284	-0.511858
C	 0.1132275647	-0.0327578818	-0.0068400388	 0.331425
C	 0.685926555	-0.9489668937	-1.1360468445	-0.385091
C	 0.2055171927	-1.891516666	-0.0284597905	 0.308387
C	-0.137806361	-3.2423670146	 0.5615964691	-0.220994
C	-0.7387804917	-2.8727716125	 1.7016855961	-0.080652
C	-0.7209637691	-1.3336397639	 1.6845982277	-0.087276
C	 0.6605470318	-0.9381145956	 1.1246709025	-0.100156
N	-1.0621984838	-1.0251173053	 0.2053199648	-0.187419
H	 0.8627042923	 1.9793010298	-0.1331516262	 0.120363
H	-0.727771315	 1.7391325915	-0.8804275238	 0.129514
H	-0.5764882431	 1.7949776412	 0.8850512206	 0.123315
H	 0.1164821014	-0.9674818903	-2.0695750088	 0.110412
H	 1.7629267986	-0.9004611038	-1.315563552	 0.100654
H	 0.0432798942	-4.2248748424	 0.1531173934	 0.116757
H	-1.184000683	-3.4952452271	 2.4651443758	 0.109139
H	-1.2568330455	-0.7951786778	 2.4681791286	 0.064046
H	 1.637636587	-0.9105055371	 1.6231482844	 0.059434
194.659	232.5928	240.2886	381.8947	460.4425	479.731	529.3759	588.9278	669.2842	708.0157	743.9514	756.4638	826.2808	835.2141	850.75	873.0184	894.4858	917.3559	941.1115	983.3157	1003.154	1058.8106	1079.5404	1093.1557	1126.1016	1134.4917	1161.831	1179.2979	1208.389	1230.8106	1250.2004	1279.861	1321.2953	1353.7877	1410.3264	1483.1751	1486.5158	1490.8993	1591.9575	3024.8525	3029.424	3055.048	3097.265	3100.2503	3102.8444	3122.6713	3227.1706	3257.8472
CC12CC34C=CC(C13)N24	C[C@@]12C[C@@]34C=C[C@@H]([C@H]13)N24	
InChI=1S/C8H9N/c1-7-4-8-3-2-5(6(7)8)9(7)8/h2-3,5-6H,4H2,1H3	InChI=1S/C8H9N/c1-7-4-8-3-2-5(6(7)8)9(7)8/h2-3,5-6H,4H2,1H3/t5-,6+,7+,8-/m0/s1
