15
gdb 48952	3.75965	1.44495	1.39636	4.0937	65.53	-0.2526	-0.0273	0.2253	941.1116	0.113631	-457.755885	-457.749411	-457.748467	-457.786949	25.544	
O	-0.0836437099	 0.0483090068	 0.2886285013	-0.259553
C	 0.0638625708	 1.1911355153	-0.0636020032	 0.048161
C	 1.3284927166	 1.9318089376	-0.0477656314	 0.343755
O	 2.5035432721	 1.3149152525	 0.4094837403	-0.26526
C	 3.3761101371	 2.4352833439	 0.3217465836	 0.139644
C	 3.238668992	 2.8799038183	-1.1496915241	-0.237877
C	 1.7256993325	 3.0230025188	-1.0711395739	-0.22141
C	 1.4694039708	 3.4124259087	 0.3580390487	 0.005837
O	 2.69840859	 3.4692104053	 1.039095159	-0.241387
H	-0.7851523459	 1.8057662345	-0.4432351098	 0.073006
H	 4.3470035803	 2.2213892804	 0.7575058017	 0.113739
H	 3.7491517005	 3.8247808051	-1.346347089	 0.124896
H	 3.5710364594	 2.1081312039	-1.8455053261	 0.128386
H	 1.0850947465	 3.3009174209	-1.8956984686	 0.116417
H	 0.6833038971	 4.042671238	 0.7461839014	 0.131645
104.0618	184.0889	269.2682	414.895	454.4179	583.9207	600.3609	672.7305	699.1952	789.4917	823.5653	832.8469	863.5202	896.5491	929.0312	966.9983	987.8551	1002.7187	1042.1464	1046.4332	1051.1518	1086.2962	1121.301	1155.349	1222.9118	1248.0816	1298.1845	1320.881	1338.282	1383.6782	1444.6383	1474.9344	1818.7255	2860.9943	3083.9633	3145.4118	3191.9463	3225.6511	3241.5688
O=CC12OC3CC1C2O3	O=C[C@@]12O[C@H]3C[C@@H]1[C@@H]2O3	
InChI=1S/C6H6O3/c7-2-6-3-1-4(9-6)8-5(3)6/h2-5H,1H2	InChI=1S/C6H6O3/c7-2-6-3-1-4(9-6)8-5(3)6/h2-5H,1H2/t3-,4+,5+,6-/m1/s1
