14
gdb 5187	7.4518	1.19652	1.05809	4.9613	66.83	-0.213	0.0228	0.2359	1055.7819	0.108644	-378.744367	-378.737269	-378.736325	-378.776342	25.96	
N	-0.0328921245	 1.2987109231	 0.1327178897	-0.434946
C	-0.1393141841	 0.0869177235	-0.1975364503	 0.107471
O	-1.0428977889	-0.7030081205	 0.4321727711	-0.212072
C	-0.9778938179	-2.0554549806	 0.2002509128	 0.33194
C	 0.1396401488	-2.861176026	 0.2410897287	-0.196868
N	-0.2932392477	-4.1409165652	-0.0140120884	-0.229562
C	-1.6493584712	-4.153168626	-0.2012383356	-0.061748
C	-2.1108450325	-2.8632361487	-0.0760042264	-0.259214
H	 0.6603964192	 1.7560604422	-0.4557976901	 0.230145
H	 0.4202348112	-0.4486147735	-0.9746733134	 0.092777
H	 1.1716788665	-2.6376496621	 0.4515300583	 0.12722
H	 0.301626389	-4.94943493	-0.0452707942	 0.267688
H	-2.1736344254	-5.0711901798	-0.4106750055	 0.126224
H	-3.1294877725	-2.5234865663	-0.1689469667	 0.110945
56.1556	116.8756	170.9433	359.4929	431.2639	449.9933	480.2915	637.0127	648.3157	683.6302	758.1928	787.5588	825.0247	831.9061	896.8216	983.3048	1045.3295	1051.0383	1087.7524	1099.3369	1167.7754	1262.2297	1287.3355	1327.487	1402.6733	1419.9503	1470.9441	1529.8436	1606.5359	1742.7781	3044.2028	3260.9602	3276.2411	3279.6482	3518.759	3691.7937
N=COC1=CNC=C1	[NH][CH]Oc1c[nH]cc1	
InChI=1S/C5H6N2O/c6-4-8-5-1-2-7-3-5/h1-4,6-7H	InChI=1S/C5H6N2O/c6-4-8-5-1-2-7-3-5/h1-4,6-7H
