21
gdb 94986	2.74023	1.72569	1.32541	1.4566	80.55	-0.2237	0.0814	0.305	1039.5221	0.185261	-387.063226	-387.055711	-387.054767	-387.094805	30.892	
C	-0.0279425219	 1.5504678242	-0.0224182845	-0.406975
C	 0.0012365051	 0.0196788801	-0.006571553	-0.002945
C	 0.6134521872	-0.5116198484	-1.3116620573	-0.067977
O	 0.8333635482	-1.9157234957	-1.3352220474	-0.273843
C	 1.2315266354	-2.5249483555	-0.1401115939	 0.139054
C	 2.2903390613	-2.0815869788	 0.8407675719	-0.109829
C	 2.337780941	-0.5693919137	 1.0630977774	-0.254666
C	 0.7752997322	-0.5471309509	 1.1920995984	-0.026486
C	 0.7785490934	-2.0903352704	 1.2053685474	-0.138672
H	 0.9863307318	 1.96525905	-0.0459867587	 0.118168
H	-0.5632589025	 1.932856931	-0.8985072347	 0.113525
H	-0.5263448559	 1.9419127992	 0.870231583	 0.114238
H	-1.030058261	-0.353708523	 0.0636081226	 0.077538
H	-0.0536125016	-0.3037603564	-2.154843077	 0.101572
H	 1.558760133	 0.0156435748	-1.5115239222	 0.091725
H	 1.2354635453	-3.5989063181	-0.3014116758	 0.099952
H	 3.0659564928	-2.7719540707	 1.1548252113	 0.08102
H	 2.8006343061	-0.3323140974	 2.024453534	 0.101191
H	 2.8124249162	 0.0487780639	 0.2951946141	 0.09558
H	 0.4337920949	-0.0933061771	 2.124930286	 0.066955
H	 0.2232819187	-2.7167591768	 1.8940642584	 0.080875
139.6294	183.6328	221.8476	273.8528	348.6435	411.9841	480.6457	502.3944	523.4718	666.1873	726.5005	761.4186	804.7965	826.7319	890.6955	915.0655	947.944	955.4933	965.5622	989.194	1019.985	1032.8157	1044.8995	1072.9647	1077.5844	1123.0595	1131.5185	1161.1784	1177.3922	1207.0668	1234.4553	1263.3818	1273.029	1295.0908	1318.4398	1342.923	1352.6352	1373.3347	1405.5035	1416.4163	1450.6992	1495.951	1496.993	1500.3806	1519.4306	2983.3421	3008.8558	3026.5595	3050.802	3065.6156	3075.7622	3092.5084	3097.3272	3100.1449	3156.489	3162.6539	3177.4534
CC1COC2C3CC1C23	C[C@H]1CO[C@H]2[C@H]3C[C@@H]1[C@@H]23	
InChI=1S/C8H12O/c1-4-3-9-8-6-2-5(4)7(6)8/h4-8H,2-3H2,1H3	InChI=1S/C8H12O/c1-4-3-9-8-6-2-5(4)7(6)8/h4-8H,2-3H2,1H3/t4-,5-,6-,7+,8-/m0/s1
