21
gdb 56788	2.86594	1.04757	0.95086	0.5845	90.86	-0.2321	0.0225	0.2546	1369.4707	0.181985	-349.942579	-349.93309	-349.932146	-349.977189	35.594	
C	-0.0540640097	 1.5351617573	 0.0063486969	-0.389361
C	 0.0451137311	-0.0098292414	-0.0090340958	-0.266951
C	 0.691429183	-0.471548366	-1.2415306448	 0.33907
C	 1.2325086495	-0.836845452	-2.2512957059	-0.491049
C	 0.7606853735	-0.5422566931	 1.2135820432	 0.377786
C	 0.2152417765	-1.2818224968	 2.1802193143	-0.19207
C	 1.1896385956	-1.5979264761	 3.2887048949	-0.244466
C	 2.5556305812	-1.2050155273	 2.6678028099	-0.205524
C	 2.2153894732	-0.2323765467	 1.5112331903	-0.30387
H	 0.939644105	 1.9899587193	-0.0188562492	 0.130133
H	-0.6108622564	 1.8904833256	-0.8646227378	 0.125207
H	-0.5666621566	 1.8668224935	 0.9138189385	 0.11833
H	-0.9769415853	-0.4102939687	 0.0051762387	 0.105774
H	 1.7022695118	-1.1686057456	-3.1438305885	 0.194255
H	-0.821814622	-1.6019912054	 2.2006462625	 0.083039
H	 0.9620870623	-1.0055870129	 4.1870211071	 0.102608
H	 1.1570609789	-2.6480815662	 3.6005455881	 0.101296
H	 3.246349545	-0.7734314506	 3.3964992735	 0.094494
H	 3.0351652418	-2.099289207	 2.2574848886	 0.10711
H	 2.8596709274	-0.371380064	 0.6367167487	 0.112986
H	 2.3307493343	 0.8173241341	 1.8170777069	 0.101203
52.1414	95.233	149.2391	178.03	195.2135	228.6121	295.2732	342.0001	425.3229	519.2368	559.0848	619.9246	626.4963	636.8676	685.312	815.2946	827.9718	860.4474	888.0592	908.038	921.1917	957.5382	992.7782	1037.8402	1061.4642	1080.3639	1094.6442	1152.1458	1181.6189	1231.5842	1244.0514	1264.807	1313.371	1320.8916	1322.9401	1330.7948	1373.334	1401.274	1483.4383	1488.3973	1491.3355	1498.2005	1507.0979	1715.7544	2231.4943	3001.2177	3004.7595	3020.6783	3044.4943	3045.69	3057.5601	3068.6117	3101.9421	3122.2654	3125.235	3179.8196	3503.7949
CC(C#C)C1=CCCC1	C[C@@H](C#C)C1=CCCC1	
InChI=1S/C9H12/c1-3-8(2)9-6-4-5-7-9/h1,6,8H,4-5,7H2,2H3	InChI=1S/C9H12/c1-3-8(2)9-6-4-5-7-9/h1,6,8H,4-5,7H2,2H3/t8-/m0/s1
