15
gdb 44244	3.21777	1.50546	1.19786	3.2426	66.38	-0.251	-0.0019	0.2491	1005.1029	0.115286	-453.980374	-453.973257	-453.972312	-454.012339	26.898	
N	 0.2303237359	 1.0143306641	-0.5013521907	-0.538833
C	 0.0593377034	-0.1324309343	-0.0316288177	 0.437976
O	 0.9299573656	-0.9876234583	 0.617621207	-0.259536
C	-0.1076912036	-2.0217117558	 0.7177588019	-0.000265
C	-1.1209451372	-1.0861544149	 0.0330085755	-0.180675
C	-1.5154067094	-1.7598562244	-1.2968312358	-0.186163
N	-0.5780335742	-2.868431894	-1.3950473191	-0.312396
C	 0.1594904807	-3.1576877955	-0.2786632078	 0.404267
O	 0.8921830135	-4.1062525231	-0.1195585258	-0.365337
H	 1.1895429696	 1.3395129923	-0.3701273319	 0.236607
H	-0.2369990132	-2.3587181234	 1.744967614	 0.119332
H	-1.9705512603	-0.723178629	 0.6083802781	 0.121085
H	-2.5529016167	-2.115193948	-1.2652301349	 0.119687
H	-1.4179892475	-1.0668440529	-2.1382773865	 0.144034
H	-0.5520239368	-3.4911168328	-2.1874934263	 0.260216
87.653	128.0913	224.7393	259.5382	426.8441	447.722	543.9505	578.9127	640.4647	715.577	750.5814	787.199	839.6069	873.5964	901.8786	929.7399	972.7441	1010.0308	1015.0652	1062.2343	1092.0783	1194.2425	1209.4154	1239.0217	1253.7917	1275.8703	1303.8145	1322.4546	1368.5635	1451.2972	1532.943	1831.3447	1839.3807	3022.6634	3076.9153	3133.4522	3141.6858	3481.6849	3637.9833
N=C1OC2C1CNC2=O	[NH][C]1O[C@H]2[C@@H]1CNC2=O	
InChI=1S/C5H6N2O2/c6-4-2-1-7-5(8)3(2)9-4/h2-3,6H,1H2,(H,7,8)	InChI=1S/C5H6N2O2/c6-4-2-1-7-5(8)3(2)9-4/h2-3,6H,1H2,(H,7,8)/t2-,3-/m0/s1
