19
gdb 99586	2.2492	1.17416	0.81512	4.679	77.28	-0.2595	-0.0379	0.2216	1404.1969	0.156675	-419.216522	-419.205908	-419.204964	-419.253079	36.392	
C	 0.1310328729	 1.487828443	 0.1789239169	-0.333502
N	-0.1052418107	 0.0663827453	-0.0699124826	-0.274085
C	 0.6333115756	-0.4838689874	-1.1974424068	-0.124055
C	 2.1039931	-0.4248097319	-0.9974421552	 0.267515
N	 3.2391635571	-0.360821702	-0.7859392939	-0.322402
C	 0.1832315071	-1.9339487487	-1.5016603192	-0.079836
C	-1.3114557292	-1.9816953969	-1.8690379841	-0.414273
C	 0.9757722812	-2.524359718	-2.6583071001	 0.163325
O	 1.3852349147	-3.6531190042	-2.6939660443	-0.239245
H	 1.1877772716	 1.7448280135	 0.349761051	 0.13005
H	-0.2276887412	 2.069076466	-0.67723559	 0.130637
H	-0.4466367397	 1.7924459134	 1.055066268	 0.132884
H	 0.1100023023	-0.4710015193	 0.7643541004	 0.233797
H	 0.4064956229	 0.1395076041	-2.0734398991	 0.129769
H	 0.3736596685	-2.5625973125	-0.6252831444	 0.109944
H	-1.6410328339	-3.0178370667	-1.9772473195	 0.138566
H	-1.9021173809	-1.4916875365	-1.0935541685	 0.148986
H	-1.4987145321	-1.4635041642	-2.8168713066	 0.122042
H	 1.1102668938	-1.8333906869	-3.524728272	 0.079881
50.8144	60.6624	102.5861	132.5988	177.0752	191.8714	210.726	267.5695	299.3467	333.3136	362.9908	386.6852	496.3223	587.6947	623.0846	761.5662	880.8529	902.6332	940.0748	967.3776	1004.3687	1092.3255	1100.2682	1153.508	1155.3781	1161.0254	1196.4923	1272.8993	1302.0685	1341.477	1358.0448	1396.7171	1428.4358	1460.4549	1488.5096	1491.1798	1495.7503	1503.3969	1520.2399	1841.9144	2340.5562	2848.269	2989.3343	3021.6241	3038.814	3064.3711	3072.6649	3113.1775	3119.0466	3146.548	3517.8248
CNC(C#N)C(C)C=O	CN[C@@H](C#N)[C@@H](C)C=O	
InChI=1S/C6H10N2O/c1-5(4-9)6(3-7)8-2/h4-6,8H,1-2H3	InChI=1S/C6H10N2O/c1-5(4-9)6(3-7)8-2/h4-6,8H,1-2H3/t5-,6-/m0/s1
