17
gdb 39715	3.51051	1.69108	1.48633	2.4071	75.68	-0.2167	-0.0043	0.2124	916.6915	0.138513	-380.789749	-380.783297	-380.782353	-380.820287	26.981	
C	-0.1034067597	 1.5098376985	-0.0062374284	-0.315562
N	 1.1596301697	 0.7354690719	 0.0753697596	-0.370733
C	-0.1168197967	 0.0354925818	 0.0129211471	 0.413874
C	-0.4731824879	-0.9932267802	 1.0488892177	-0.139531
C	-1.7189327463	-1.769920631	 0.7027057518	-0.074524
C	-2.6775574261	-1.2123953215	-0.2957080752	-0.081545
C	-1.9899696969	-0.8211018128	-1.369082631	-0.080218
C	-0.5202950162	-0.99676296	-1.0652276817	-0.182912
N	-0.4497531512	-2.0948440811	 0.0121641306	-0.12924
H	-0.3475993492	 2.0767622011	 0.888111608	 0.120523
H	-0.3502111732	 2.011175668	-0.9393234821	 0.110574
H	 1.6192561437	 0.7176566197	-0.8326478492	 0.231125
H	 0.0215372534	-1.0901382571	 2.0099953155	 0.105545
H	-2.0470404002	-2.5067559068	 1.4302729534	 0.095703
H	-3.7442547916	-1.1388190839	-0.1311129102	 0.108377
H	-2.3733367458	-0.3219746957	-2.249474729	 0.107775
H	 0.1615949542	-1.1461082211	-1.903758217	 0.080768
150.28	238.0039	298.5043	413.6807	445.1344	524.7452	614.3619	724.23	739.0041	758.3543	784.9477	802.7081	853.7923	896.7075	901.6335	915.8448	937.3348	965.9109	969.0923	985.0254	1012.3239	1049.4099	1069.3927	1094.8799	1122.5029	1129.9975	1162.4183	1198.3544	1251.6884	1257.4983	1268.7244	1302.0994	1335.1304	1372.5534	1439.351	1516.5709	1655.988	3100.826	3102.6718	3152.623	3169.5726	3186.5299	3209.4522	3234.6037	3485.5183
C1NC11C2C3C=CC1N23	C1N[C@]21[C@H]1[C@H]3C=C[C@@H]2N13	
InChI=1S/C7H8N2/c1-2-5-7(3-8-7)6-4(1)9(5)6/h1-2,4-6,8H,3H2	InChI=1S/C7H8N2/c1-2-5-7(3-8-7)6-4(1)9(5)6/h1-2,4-6,8H,3H2/t4-,5+,6-,7+,9?/m1/s1
