17
gdb 32243	2.60502	1.59215	0.99823	4.012	80.45	-0.2074	-0.0073	0.2001	1154.3447	0.139269	-414.246364	-414.238079	-414.237135	-414.279162	30.921	
C	-0.0519397621	 1.4428095786	-0.0093162373	-0.314373
N	 0.0818658652	-0.004800903	 0.0156727933	-0.370646
C	 0.6417491664	-0.6732349363	-1.0426725194	 0.390349
N	 1.2406352692	 0.0171204072	-2.0116906268	-0.339265
C	 1.7693029578	-0.690387984	-3.0162949473	 0.051993
N	 1.7531823807	-2.0068281662	-3.167756846	-0.275068
C	 1.16639514	-2.6926890129	-2.1705378984	-0.043757
C	 0.5966153938	-2.0915685592	-1.0662791434	 0.16763
N	-0.0604963033	-2.7774348567	-0.0240753968	-0.613502
H	 0.9283420581	 1.8980856869	-0.1589861302	 0.153921
H	-0.7083168967	 1.7956136584	-0.8156667309	 0.128163
H	-0.4549327273	 1.7717691337	 0.9512443796	 0.118748
H	-0.6652427821	-0.5148966938	 0.465451103	 0.248878
H	 2.2575278867	-0.1131080608	-3.7980518854	 0.106687
H	 1.1543464545	-3.7785039527	-2.2648601362	 0.094124
H	-0.0140354378	-3.783247395	-0.1371597205	 0.247206
H	 0.311727457	-2.5329839041	 0.8888270228	 0.248912
122.0292	125.0414	183.8954	204.1541	273.5252	308.9015	326.9619	458.9752	511.3183	523.4913	606.8589	619.2641	653.9174	784.1417	802.1867	837.4328	901.7319	937.2592	985.5594	1084.6335	1119.5417	1137.4953	1153.1857	1177.6239	1243.0298	1291.7433	1355.0346	1369.8801	1440.7928	1453.837	1473.6309	1481.326	1510.76	1549.067	1611.8057	1620.8334	1658.1825	3018.5537	3100.0684	3126.8892	3142.8599	3160.1076	3496.0247	3592.3219	3596.2677
CNC1=NC=NC=C1N	CNc1ncncc1N	
InChI=1S/C5H8N4/c1-7-5-4(6)2-8-3-9-5/h2-3H,6H2,1H3,(H,7,8,9)	InChI=1S/C5H8N4/c1-7-5-4(6)2-8-3-9-5/h2-3H,6H2,1H3,(H,7,8,9)
