16
gdb 25915	4.1244	1.09626	0.8794	10.0492	90.56	-0.1482	-0.0391	0.1091	1250.1727	0.124506	-434.060449	-434.051995	-434.051051	-434.093058	33.124	
N	 0.1062316277	 1.1965899296	 0.6218584331	-0.558311
C	-0.0138591524	-0.0275457986	 0.0098059976	 0.47416
N	 1.1079542369	-0.5209211083	-0.5828846488	-0.546654
H	 0.9942324744	-1.3908166091	-1.0809328326	 0.282683
H	 1.991935642	-0.3799210353	-0.1201691006	 0.274678
N	-1.1311871695	-0.7287196075	 0.0125862075	-0.013793
C	-2.4323257375	-0.1509309161	 0.1796962982	-0.063389
C	-3.3447571699	-1.1179077435	 0.0427658936	-0.25667
C	-2.654133211	-2.4392956146	-0.2097850177	 0.343681
O	-3.2278566008	-3.5247785763	-0.3242428683	-0.435498
C	-1.2773076051	-2.099542814	-0.2727846546	-0.371894
H	 0.5777022488	 1.9125526866	 0.0846153978	 0.268962
H	-0.7002609802	 1.5211722283	 1.1311705677	 0.273267
H	-2.5295374729	 0.9190211489	 0.2721722636	 0.11899
H	-4.4173604201	-0.9956435534	 0.0878417267	 0.115318
H	-0.4267456904	-2.7547801667	-0.1818394932	 0.094471
113.1243	131.3714	202.25	286.0335	345.8693	377.7349	399.1512	437.2865	481.3521	489.4674	550.515	567.6242	590.2535	616.8102	627.4477	667.7357	709.8689	750.9274	881.127	893.0648	931.5613	1025.9345	1090.256	1125.9076	1184.3976	1198.1325	1247.5179	1315.3354	1370.3359	1502.2621	1606.9597	1617.6493	1631.4453	1701.0975	1725.7211	3237.6038	3255.9266	3263.4032	3545.3289	3580.2285	3681.7438	3694.1786
NC(=[NH2+])N1C=CC([O-])=C1	NC(=[NH2])N1C=CC(=O)[CH]1	
InChI=1S/C5H7N3O/c6-5(7)8-2-1-4(9)3-8/h1-3,9H,(H3,6,7)	InChI=1S/C5H7N3O/c6-5(7)8-2-1-4(9)3-8/h1-3H,6-7H2
