22
gdb 112744	2.44823	1.20131	0.9202	1.3694	82.52	-0.2331	0.0677	0.3008	1359.4145	0.193582	-404.312301	-404.302631	-404.301686	-404.346848	36.457	
C	-0.1240710331	 1.5638238509	 0.0419002918	-0.382539
C	 0.0416035081	 0.0435323112	-0.0572084362	-0.195349
C	 0.7417703024	-0.5612261093	 1.1536550139	-0.05205
C	-0.017937057	-0.6250738079	 2.5178687765	-0.260976
C	 0.5816236701	-2.0278553134	 2.7639182665	 0.078031
O	-0.3129386998	-2.9622667306	 3.3183274627	-0.431389
C	 0.9023460066	-2.0874369908	 1.266041216	 0.298002
C	 0.424498506	-3.1093525202	 0.3141078106	-0.296314
N	 1.8627977265	-2.9972058164	 0.6544379909	-0.388653
H	 0.8476701571	 2.0632442797	 0.1245139643	 0.114099
H	-0.6323259581	 1.9664697457	-0.8396036488	 0.112922
H	-0.7138987898	 1.8406202662	 0.9221266518	 0.122295
H	-0.9415826788	-0.4288636679	-0.1748560202	 0.098875
H	 0.6108265577	-0.2001252367	-0.965312229	 0.089133
H	 1.7172160046	-0.0759843055	 1.2939560573	 0.070596
H	 0.1845718737	 0.1487092405	 3.2599916817	 0.099429
H	-1.0978833753	-0.7084925349	 2.3631764723	 0.112903
H	 1.5114369469	-1.9686656623	 3.3486249122	 0.069637
H	 0.1765313679	-3.7709716085	 3.5001243053	 0.287392
H	-0.0680178219	-4.0013809505	 0.6909214605	 0.116219
H	 0.0953538185	-2.7902550001	-0.6713070688	 0.111301
H	 2.3607205976	-2.5298112291	-0.1010628014	 0.226435
73.4275	94.2455	145.8919	201.7314	218.2219	241.8543	275.6981	290.5184	341.5155	442.2424	475.5107	545.827	560.2541	716.7024	777.4016	824.4723	849.5964	898.5504	928.2751	953.7022	967.5006	974.5566	985.5988	1021.0624	1058.9278	1081.643	1113.0586	1122.384	1161.1533	1181.0206	1222.9997	1243.4305	1255.4984	1270.1268	1275.9581	1297.0187	1319.863	1342.6045	1390.2527	1409.2835	1411.7236	1438.3388	1482.1265	1488.8014	1499.2321	1506.3028	1515.8146	2992.5875	3006.997	3011.4801	3031.8346	3049.337	3063.2098	3098.9809	3104.5336	3107.9616	3125.6465	3192.7916	3478.0761	3817.1724
CCC1CC(O)C11CN1	CC[C@H]1C[C@@H](O)[C@]21CN2	
InChI=1S/C7H13NO/c1-2-5-3-6(9)7(5)4-8-7/h5-6,8-9H,2-4H2,1H3	InChI=1S/C7H13NO/c1-2-5-3-6(9)7(5)4-8-7/h5-6,8-9H,2-4H2,1H3/t5-,6+,7+/m0/s1
