19
gdb 119862	3.51889	1.06704	0.84865	2.8539	79.95	-0.1784	0.0506	0.229	1364.5561	0.161287	-419.230101	-419.221287	-419.220343	-419.263551	33.461	
C	-0.0929546372	 1.4835506368	-0.2530860758	-0.312149
N	-0.1506421393	 0.0260862488	-0.2939819131	-0.292228
H	-0.2926387602	-1.2090163676	-1.8593697982	 0.28451
H	 0.6733859173	-0.3637299587	 0.1546550883	 0.228606
C	-1.3456384648	-0.5365028225	 0.3606945912	-0.280238
C	-1.3523283068	-2.0252611292	 0.2134396147	 0.14487
C	-1.7366358229	-2.9913640974	 1.1196375016	-0.18417
N	-1.6240693052	-4.2098342675	 0.5133751775	-0.242528
C	-1.1514185014	-4.059867404	-0.7777746304	-0.179549
H	-0.9751035238	-4.9037149736	-1.4224716357	 0.114747
C	-0.9787369906	-2.7112651685	-0.9857843721	 0.246902
O	-0.5302995414	-2.1196782084	-2.1237661429	-0.457565
H	 0.8408740396	 1.8283838031	-0.7055651366	 0.123711
H	-0.9227623333	 1.8969641914	-0.8360735582	 0.129771
H	-0.1602329847	 1.8996547454	 0.7662738828	 0.101089
H	-1.4228062783	-0.2441236639	 1.4224392955	 0.088614
H	-2.2131175439	-0.0868523398	-0.1449559579	 0.113998
H	-2.0909780591	-2.8998517656	 2.1343175712	 0.112739
H	-1.8325601839	-5.0906402189	 0.9464060781	 0.25887
83.4546	129.1845	154.6541	250.7302	261.7299	296.4427	325.7039	364.7712	414.3501	465.8152	621.2171	630.4003	677.8594	691.5866	719.527	738.5289	773.6141	866.3982	904.0122	967.6643	993.2758	1072.1068	1115.2022	1132.0498	1152.8511	1179.5808	1198.7163	1249.1622	1271.794	1328.6721	1363.6153	1386.5589	1458.3524	1469.8782	1478.0138	1487.8182	1492.3164	1507.4305	1516.7542	1568.7438	1667.4004	2949.4581	2965.7073	3001.024	3066.4465	3111.5294	3254.3689	3277.8197	3506.554	3534.6038	3701.5229
C[NH2+]CC1=CN[CH-]C1=O	CNCc1c[nH]cc1O	
InChI=1S/C6H9N2O/c1-7-2-5-3-8-4-6(5)9/h3-4,7-8H,2H2,1H3/q-1/p+1	InChI=1S/C6H10N2O/c1-7-2-5-3-8-4-6(5)9/h3-4,7-9H,2H2,1H3
