18
gdb 79118	5.08636	1.19518	1.10183	3.9126	76.11	-0.2369	0.0157	0.2526	1119.8932	0.149615	-401.93837	-401.931162	-401.930218	-401.96971	29.125	
C	-0.1592392242	 1.5828983304	-0.0138891098	-0.435762
C	 0.0152840814	 0.071288501	 0.0165993667	 0.020248
C	 1.2377407599	-0.6007484408	-0.6616824468	-0.075111
C	 2.1479910374	-0.1845050585	 0.5509089939	 0.007519
N	 3.1014413029	-1.2443081871	 0.8553711106	-0.347651
C	 2.4105546556	-2.4149050501	 0.5500839494	 0.408742
O	 2.836561741	-3.5425028967	 0.5045623041	-0.370704
C	 1.019435201	-1.8692138438	 0.2508465771	-0.16679
C	 0.7878818703	-0.6178415271	 1.1743615571	-0.055812
H	 0.7643207673	 2.1222417456	 0.2157922487	 0.116296
H	-0.4972085826	 1.9125328207	-1.0023856355	 0.121611
H	-0.9158462241	 1.8990409638	 0.7123887937	 0.122195
H	-0.9318091027	-0.4264703741	-0.2178054625	 0.073364
H	 1.5050439331	-0.609391798	-1.7207788994	 0.078274
H	 2.5386877767	 0.823186113	 0.6669359149	 0.088042
H	 4.082955384	-1.1694020142	 0.6347634535	 0.248334
H	 0.218688747	-2.5762431845	 0.0460044847	 0.086401
H	 0.543641336	-0.6447665096	 2.2381143997	 0.080807
150.3654	190.1127	213.1178	296.6606	391.3722	431.0366	444.3787	551.3429	628.3717	709.8913	734.9903	784.9853	809.3823	838.5569	880.7718	892.1261	926.7937	973.3142	1002.9453	1016.2491	1054.4361	1063.2206	1106.4417	1120.8536	1131.5131	1154.3916	1169.3207	1184.284	1224.299	1240.892	1251.102	1289.8652	1324.591	1390.0153	1416.0692	1422.8817	1494.1069	1501.8778	1859.4119	3033.8499	3047.1637	3090.2557	3094.267	3098.0988	3107.8144	3153.4141	3154.9442	3627.0556
CC1C2C3NC(=O)C2C13	C[C@H]1[C@H]2[C@@H]3NC(=O)[C@H]2[C@H]13	
InChI=1S/C7H9NO/c1-2-3-5-4(2)6(3)8-7(5)9/h2-6H,1H3,(H,8,9)	InChI=1S/C7H9NO/c1-2-3-5-4(2)6(3)8-7(5)9/h2-6H,1H3,(H,8,9)/t2-,3+,4-,5+,6-
