14
gdb 133526	2.14492	1.49948	1.33476	3.6603	54.57	-0.2853	0.0131	0.2984	1000.7669	0.096161	-564.383309	-564.374228	-564.373283	-564.417051	32.738	
C	-0.0374541419	 1.555648269	 0.0348463608	-0.4164
C	 0.0025998169	 0.0169543759	 0.0440312301	-0.070769
N	 0.6733652153	-0.4531820959	 1.2520025369	-0.52086
C	-1.373533003	-0.5178554631	 0.0338523406	 0.308164
N	-2.4529847414	-0.9260970407	 0.0288517052	-0.32104
C	 0.7091960575	-0.4916936466	-1.2417524234	 0.285371
F	 1.9713070018	-0.0379288375	-1.2736570037	-0.080297
F	 0.7572456785	-1.828819535	-1.2595499425	-0.072898
F	 0.0928886574	-0.0820486439	-2.3523150309	-0.064002
H	 0.9836590351	 1.945145571	 0.0206113985	 0.138859
H	-0.5671876403	 1.926587395	-0.8436313628	 0.154742
H	-0.5396247884	 1.9035440251	 0.9380381942	 0.158109
H	 0.7299340375	-1.4673327156	 1.2536183175	 0.253685
H	 1.623313405	-0.0935397275	 1.2661100495	 0.247336
72.3628	139.4659	191.5807	221.1355	230.769	268.1213	297.037	340.6807	398.7471	416.3415	457.3284	548.2998	561.5811	609.7748	640.948	747.8919	846.7507	898.6914	982.6464	1046.7683	1126.2008	1208.3232	1217.0631	1233.0665	1278.7985	1346.1954	1409.8118	1490.4637	1493.3925	1660.4691	2372.2105	3064.8636	3144.8315	3162.909	3499.3255	3585.0951
CC(N)(C#N)C(F)(F)F	C[C@@](N)(C#N)C(F)(F)F	
InChI=1S/C4H5F3N2/c1-3(9,2-8)4(5,6)7/h9H2,1H3	InChI=1S/C4H5F3N2/c1-3(9,2-8)4(5,6)7/h9H2,1H3/t3-/m1/s1
