16
gdb 28168	5.20009	1.28151	1.03477	4.906	78.93	-0.1803	0.0374	0.2177	1116.8493	0.126733	-396.979801	-396.971884	-396.970939	-397.012151	29.643	
C	-0.0206857571	 1.4665106374	 0.0434631099	-0.502415
C	-0.0022232159	-0.0228425351	-0.0361147725	 0.313501
N	-0.0434053599	-0.7353057869	-1.1373901684	-0.383652
C	-0.0035176777	-2.0542766814	-0.7156686688	 0.273211
C	 0.0626210611	-2.1054252305	 0.6636001741	 0.395834
N	 0.1025015413	-3.3978958384	 1.0914568336	-0.415289
C	 0.0600213509	-4.1977686302	-0.0576184093	-0.078034
C	-0.0051550272	-3.4062130707	-1.1806357227	-0.293465
N	 0.0646422747	-0.8118762579	 1.1176581937	-0.448238
H	 0.8840409174	 1.8654681953	 0.5184283194	 0.126034
H	-0.0798360571	 1.8635741018	-0.9705198661	 0.158517
H	-0.8823803255	 1.8385790479	 0.6111546965	 0.125808
H	 0.1516366741	-3.7402508463	 2.0332099114	 0.259091
H	 0.080969674	-5.2708138068	 0.0420048202	 0.114293
H	-0.0478501924	-3.7647864347	-2.196929723	 0.096556
H	 0.1044116292	-0.4747726935	 2.0632093919	 0.258246
95.5262	127.4193	185.3138	258.5555	281.6591	340.3092	368.1008	512.6276	574.9425	604.0767	642.0886	679.8393	759.9397	766.6955	815.3486	818.9059	927.7848	968.8893	1017.0199	1056.4665	1058.1066	1102.0225	1179.8621	1217.7779	1293.8443	1352.1226	1382.9411	1405.9174	1459.8313	1480.5751	1485.494	1497.9093	1552.8186	1585.6452	1630.8837	3021.6	3067.3248	3148.8545	3253.1708	3273.8455	3679.7296	3697.614
CC1=NC2=C(NC=C2)N1	Cc1nc2c([nH]cc2)[nH]1	
InChI=1S/C6H7N3/c1-4-8-5-2-3-7-6(5)9-4/h2-3,7H,1H3,(H,8,9)	InChI=1S/C6H7N3/c1-4-8-5-2-3-7-6(5)9-4/h2-3,7H,1H3,(H,8,9)
