18
gdb 85700	2.52018	1.36382	1.0547	1.2983	78.13	-0.2411	0.0465	0.2876	1169.1745	0.146604	-401.870715	-401.861959	-401.861015	-401.904064	33.658	
O	 0.7225542835	 0.4100816122	-1.0828658043	-0.426842
C	 0.171496651	-0.4107729221	-0.0875213773	 0.065567
C	 0.2408517758	 0.010742361	 1.4084655495	-0.284066
C	-1.215532884	-0.5372232937	 1.6041394154	-0.237887
C	-2.1423183672	 0.2315234684	 2.406374456	 0.316431
C	-2.9114373991	 0.8913779565	 3.0544551602	-0.448857
C	-1.3529613447	-0.5039087031	 0.0639314093	 0.301639
C	-2.3375049911	 0.2431425639	-0.7450336495	-0.308233
N	-2.3242866419	-1.2362348312	-0.723449044	-0.373405
H	 0.3752435528	 1.3000072368	-0.9554440308	 0.281002
H	 0.6163572888	-1.4001066178	-0.2425365783	 0.099071
H	 1.0257284693	-0.4269189747	 2.0264849866	 0.114709
H	 0.2632441227	 1.0990653143	 1.5110178276	 0.110376
H	-1.1908823807	-1.5775463945	 1.9465568939	 0.112719
H	-3.5909768125	 1.4626278136	 3.6368365425	 0.19533
H	-3.1953057438	 0.6995828728	-0.2600995205	 0.134064
H	-1.9768915104	 0.7497687677	-1.6372063497	 0.112764
H	-1.8867856084	-1.59413772	-1.5706907068	 0.23562
69.5702	123.9356	192.8765	221.3954	258.5421	323.8219	353.228	398.7893	489.5868	513.3007	565.875	572.4416	620.2308	626.2696	704.7285	812.4227	847.0856	904.8508	943.3208	963.0216	984.4933	1022.8889	1039.6119	1074.5393	1090.7632	1124.6775	1146.2597	1196.3566	1214.0329	1259.1475	1272.5242	1285.6616	1319.3508	1352.5989	1405.3829	1438.5702	1481.4475	1506.5508	2233.8199	3047.9578	3053.4714	3069.9656	3106.2849	3135.0366	3198.5978	3480.9289	3503.958	3801.5898
OC1CC(C#C)C11CN1	O[C@H]1C[C@@H](C#C)[C@]21CN2	
InChI=1S/C7H9NO/c1-2-5-3-6(9)7(5)4-8-7/h1,5-6,8-9H,3-4H2	InChI=1S/C7H9NO/c1-2-5-3-6(9)7(5)4-8-7/h1,5-6,8-9H,3-4H2/t5-,6+,7+/m1/s1
