18
gdb 59324	2.71684	1.23551	0.9354	4.679	68.23	-0.2532	0.0015	0.2547	1247.5766	0.146403	-476.237283	-476.227744	-476.2268	-476.271788	34.593	
C	-0.1138402475	 1.5119462313	-0.1149889239	-0.418111
C	-0.0592727601	-0.00838068	-0.0170970498	 0.113299
O	 0.8660746675	-0.4663385376	 0.9674828141	-0.430509
C	-1.4199480527	-0.6233542893	 0.2805918722	 0.093113
O	-2.4002884877	-0.3675829725	-0.7799272952	-0.258785
C	-2.5174629686	-1.7066114095	-1.0834001851	 0.441581
O	-3.1466878467	-2.1953124951	-1.9628305256	-0.311206
C	-1.5858585494	-2.1606258688	 0.0536612926	-0.176137
N	-0.5123360542	-3.0486988915	-0.309143864	-0.508264
H	 0.8768311129	 1.9154149322	-0.340461152	 0.130175
H	-0.8106025624	 1.8197349179	-0.8992955776	 0.148568
H	-0.4598652609	 1.9500094479	 0.8300551812	 0.110578
H	 0.3086207852	-0.417001433	-0.9656962248	 0.088149
H	 0.7155141079	 0.0403025707	 1.7734231441	 0.285038
H	-1.8091072951	-0.2550570628	 1.2369929267	 0.080327
H	-2.1655989762	-2.6125195943	 0.8657546849	 0.123008
H	-0.0388710481	-2.7386386498	-1.151034012	 0.240221
H	 0.1824233561	-3.0762511958	 0.4304117644	 0.248955
76.6021	89.0681	140.6439	213.0637	231.0419	245.5986	270.0331	299.7155	342.7832	396.8474	453.3152	490.1628	602.8284	689.5539	764.284	820.5643	856.2947	888.7523	918.3092	952.6372	1002.9897	1064.3681	1106.2502	1118.2327	1136.3557	1176.2586	1227.5469	1236.7133	1274.2625	1298.7787	1332.0146	1401.3438	1405.5649	1414.8518	1418.2692	1492.5131	1495.2443	1668.9223	1943.0374	3025.8033	3036.5653	3050.2216	3061.5825	3102.5814	3130.8561	3509.8819	3589.8891	3800.4339
CC(O)C1OC(=O)C1N	C[C@@H](O)[C@H]1OC(=O)[C@H]1N	
InChI=1S/C5H9NO3/c1-2(7)4-3(6)5(8)9-4/h2-4,7H,6H2,1H3	InChI=1S/C5H9NO3/c1-2(7)4-3(6)5(8)9-4/h2-4,7H,6H2,1H3/t2-,3+,4-/m1/s1
