14
gdb 20684	3.81056	1.99627	1.32069	3.4857	69.3	-0.2257	-0.0692	0.1565	883.4144	0.108736	-374.911111	-374.904063	-374.903119	-374.942655	25.9	
C	-0.0282901033	 1.4863247223	-0.0047540957	-0.483368
C	 0.0022066836	-0.0149748392	-0.0276600506	 0.321749
N	-0.0304995118	-0.6276856732	-1.1671583453	-0.305939
C	-0.0025317738	-2.0228117817	-1.1909633673	 0.428642
N	-0.0328206137	-2.6535506777	-2.2994452113	-0.525178
N	 0.0611602484	-2.6416185736	 0.0780708412	-0.27799
N	 0.0956375288	-2.0297828188	 1.2615108978	-0.140811
C	 0.0672739308	-0.7343610615	 1.2290451937	-0.05506
H	 0.8651747336	 1.8814977126	 0.4924162256	 0.142414
H	-0.0778005187	 1.8730001805	-1.0225272285	 0.156665
H	-0.8939997792	 1.8447899986	 0.5641500899	 0.142384
H	-0.0057024174	-3.6636276466	-2.1567795452	 0.201334
H	 0.0845466008	-3.6494539437	 0.1313584018	 0.270195
H	 0.0945867419	-0.221535858	 2.1833490438	 0.124963
85.601	121.9515	209.0264	305.4736	387.141	485.3319	544.878	583.7324	586.5881	662.4723	728.2793	772.6742	806.3417	870.8942	917.7439	986.9412	1030.6919	1053.0202	1112.3219	1165.1393	1241.8122	1319.2695	1396.8593	1419.3003	1444.9109	1469.6233	1477.8718	1584.8785	1674.9935	1718.7775	3034.8332	3088.9941	3158.1702	3200.0385	3474.9955	3607.8951
CC1=NC(=N)NN=C1	Cc1nc([NH])[nH]nc1	
InChI=1S/C4H6N4/c1-3-2-6-8-4(5)7-3/h2H,1H3,(H2,5,7,8)	InChI=1S/C4H11N4/c1-3-2-6-8-4(5)7-3/h3-8H,2H2,1H3
