27
gdb 64475	2.24232	1.3571	1.09973	0.1127	94.66	-0.2892	0.0694	0.3586	1309.8886	0.254168	-353.582704	-353.572978	-353.572034	-353.616245	39.31	
C	 0.1932565647	 1.5502286854	 0.3212043332	-0.404872
C	-0.1056108194	 0.0646129297	 0.0300238616	 0.280403
C	-1.6270218852	-0.1476707277	 0.1315816043	-0.416229
C	 0.4225156337	-0.2419327985	-1.3954710559	-0.20121
C	-0.0747970845	-1.5005586556	-2.1322039302	-0.20855
C	-0.003138229	-2.8629731494	-1.3995712443	-0.181429
C	 1.0072989526	-2.9796069992	-0.2488871879	-0.183424
C	 0.5488496516	-2.2968392548	 1.0502404416	-0.20425
C	 0.6566838966	-0.7661690145	 1.0924123909	-0.189679
H	 1.2618802972	 1.7674292062	 0.2121817021	 0.105865
H	-0.3514727504	 2.2046050761	-0.3682679082	 0.104647
H	-0.0994057925	 1.8218616463	 1.3415018548	 0.104218
H	-2.1562359283	 0.4640348551	-0.6079381989	 0.106961
H	-1.9201329004	-1.1877488018	-0.0327421141	 0.114723
H	-1.991962132	 0.145284329	 1.1226090528	 0.105554
H	 0.1790493841	 0.6120394964	-2.0413172221	 0.083834
H	 1.5191265031	-0.2616890877	-1.3454878733	 0.088779
H	-1.1079879705	-1.3380346191	-2.4606840243	 0.095885
H	 0.5130998666	-1.5655567363	-3.0560085308	 0.092158
H	-0.9915052137	-3.11668225	-0.9956923584	 0.093732
H	 0.2107974154	-3.6388125061	-2.143977785	 0.088636
H	 1.1586521487	-4.045155894	-0.0373349239	 0.087684
H	 1.9891960491	-2.5927049133	-0.553600307	 0.089141
H	-0.4832066096	-2.6073813434	 1.2618558915	 0.091333
H	 1.1491420517	-2.68516596	 1.8826966034	 0.087958
H	 1.7196726995	-0.4947481147	 1.0221098252	 0.084942
H	 0.3295844809	-0.4322339182	 2.086445403	 0.083191
101.2498	173.095	196.0577	229.5217	259.0228	273.239	285.4218	337.2141	375.7354	390.7206	405.8086	417.6525	507.2151	571.8595	686.4543	744.1602	783.3335	827.7421	862.9154	896.7458	914.1782	940.3895	946.2316	971.3419	1006.8588	1014.5968	1026.6129	1091.9298	1099.9313	1113.9727	1128.7835	1179.7505	1208.8579	1241.8754	1252.8052	1269.5403	1295.627	1317.9389	1336.4021	1367.7421	1374.787	1387.4838	1387.9989	1398.6541	1400.9343	1401.9523	1428.4983	1472.9112	1480.9467	1482.8015	1484.2993	1488.8944	1493.7765	1500.6885	1507.9585	1510.6907	1515.9913	2996.9631	3007.0629	3009.4777	3013.5045	3014.9219	3020.9911	3026.0785	3031.0215	3034.6176	3036.8995	3046.8552	3051.233	3054.9648	3067.9816	3085.5955	3089.9552	3093.0711	3116.0716
CC1(C)CCCCCC1	CC1(C)CCCCCC1	
InChI=1S/C9H18/c1-9(2)7-5-3-4-6-8-9/h3-8H2,1-2H3	InChI=1S/C9H18/c1-9(2)7-5-3-4-6-8-9/h3-8H2,1-2H3
