15
gdb 127347	6.98078	0.87791	0.7837	5.3659	72.22	-0.2419	-0.0008	0.2411	1399.639	0.113864	-450.146094	-450.137766	-450.136822	-450.18041	28.5	
C	 0.0378552685	 1.378315281	 0.1183753165	-0.319136
N	 0.0053453248	-0.0628961467	 0.0018085502	 0.055873
C	-0.1906299004	-0.831820179	-1.0799259074	 0.014572
N	-0.1447130392	-2.1152403946	-0.7557293968	-0.363174
C	 0.0896013583	-2.0565122277	 0.57855733	 0.480439
O	 0.222277607	-3.1276828545	 1.3867371184	-0.20772
C	 0.1153363446	-4.3773906681	 0.8419290783	 0.109532
N	 0.2418026997	-5.3671997956	 1.6087287077	-0.428082
N	 0.1910836899	-0.846287402	 1.0997426302	-0.343146
H	 1.0101900655	 1.7017141782	 0.497737277	 0.161283
H	-0.1314228374	 1.8127670993	-0.8683966456	 0.145359
H	-0.7420815231	 1.7163818809	 0.8049123337	 0.161287
H	-0.3603087304	-0.4304299337	-2.0678428624	 0.151588
H	-0.0737831842	-4.3625813419	-0.2319888071	 0.145814
H	 0.1398744864	-6.2276503657	 1.0735436274	 0.23551
37.4583	88.5374	115.3682	170.3631	190.4272	328.1242	357.4456	460.7523	530.3617	640.1126	716.6442	765.7513	829.7313	838.2381	845.9862	1010.4016	1033.2951	1062.8727	1081.3469	1113.9991	1155.0255	1234.7103	1277.7608	1329.2935	1362.1161	1404.1602	1453.2767	1466.5639	1471.3271	1505.8481	1529.279	1588.4946	1748.9781	3055.8279	3127.977	3132.3395	3149.3828	3255.684	3515.2062
CN1C=NC(OC=N)=N1	Cn1cnc(O[CH][NH])n1	
InChI=1S/C4H6N4O/c1-8-3-6-4(7-8)9-2-5/h2-3,5H,1H3	InChI=1S/C4H6N4O/c1-8-3-6-4(7-8)9-2-5/h2-3,5H,1H3
