17
gdb 23583	4.36722	1.27191	1.211	1.8378	76.52	-0.2338	0.0035	0.2373	1051.3808	0.138047	-417.898516	-417.891674	-417.89073	-417.929698	27.848	
O	-0.1181288298	 1.3679333306	 0.0340396072	-0.393881
N	 0.0498434327	-0.0299053923	-0.0295015388	-0.307036
C	-1.0643301793	-0.6216450002	-0.0647768317	 0.51864
C	-2.5479790681	-0.3341784763	 0.014726423	-0.105095
C	-2.9838788393	-0.8413328649	-1.3885730479	-0.232461
C	-2.5949952181	-2.3099150204	-1.0988545272	-0.062486
C	-3.5061160099	-2.5885063588	 0.1071805139	-0.162379
N	-2.6521694026	-1.6229660872	 0.8849773226	-0.160563
C	-1.4640851021	-2.0574517072	-0.0084459388	-0.1052
H	 0.7927633956	 1.6764634344	 0.0884934311	 0.30796
H	-2.9632507327	 0.581928928	 0.4240969849	 0.101469
H	-4.0510429296	-0.725350539	-1.5961925944	 0.103407
H	-2.4134616168	-0.3687671556	-2.1916859297	 0.116538
H	-2.4761930503	-2.9932479968	-1.9401835025	 0.072051
H	-4.5708188196	-2.3452211072	 0.0319379586	 0.101973
H	-3.3824838362	-3.5810748292	 0.5487016499	 0.112521
H	-0.8263586738	-2.8759368978	 0.3189902399	 0.094541
114.1809	181.0102	305.2797	381.8795	415.5428	459.5993	493.84	669.1164	682.8057	719.1994	742.3874	799.6453	825.8612	851.6305	910.0307	931.8166	940.4206	964.4738	977.6915	999.	1015.0124	1060.6897	1108.3545	1136.258	1144.119	1169.2808	1187.1214	1226.4608	1239.1742	1254.7541	1269.1579	1290.3357	1306.8905	1417.0629	1496.7831	1517.5406	1817.1577	3046.9001	3061.9284	3105.98	3109.5287	3114.8117	3147.2282	3170.0817	3817.8026
ON=C1C2CC3CN2C13	ON=C1[C@H]2C[C@@H]3CN2[C@H]13	
InChI=1S/C6H8N2O/c9-7-5-4-1-3-2-8(4)6(3)5/h3-4,6,9H,1-2H2	InChI=1S/C6H8N2O/c9-7-5-4-1-3-2-8(4)6(3)5/h3-4,6,9H,1-2H2/t3-,4-,6+/m1/s1
