16
gdb 44358	3.36866	1.71347	1.42986	3.8564	68.93	-0.2371	0.0274	0.2645	914.3612	0.126381	-437.851726	-437.845188	-437.844243	-437.882791	26.377	
N	-0.0613773269	 1.3181006868	 0.4318035612	-0.516051
C	-0.0254527946	 0.1263539995	 0.0130386369	 0.407031
C	-1.3017946579	-0.6833799956	-0.1178824654	-0.30034
C	-1.1579573269	-1.789098541	-1.1437422758	 0.08199
O	-0.5897792762	-1.2777139256	-2.3927819226	-0.295003
C	 0.575195931	-2.0700842033	-2.2022752479	 0.059878
C	 1.2216523679	-1.7498661475	-0.8847784549	 0.088968
O	 1.1676102415	-0.4726863987	-0.2974177374	-0.251551
C	 0.0566441555	-2.6891881852	-0.9081376611	-0.212518
H	 0.8833599167	 1.7055761734	 0.476555093	 0.21933
H	-1.5556369821	-1.1246960254	 0.8545838778	 0.131644
H	-2.1022716284	 0.0132030542	-0.3748502818	 0.148278
H	-2.0926895193	-2.3177921332	-1.3452507526	 0.096888
H	 1.0717633163	-2.4716614922	-3.0779577746	 0.114499
H	 2.1964308647	-2.1921844627	-0.7111113613	 0.119064
H	 0.0547919987	-3.6948469234	-0.5097630034	 0.107892
81.5378	221.7851	328.3634	419.0117	483.0188	487.748	543.4776	664.566	722.4106	737.9785	789.8877	810.6065	853.0285	883.9971	907.3921	938.2345	988.6501	1008.796	1016.6196	1038.3967	1052.3581	1062.6309	1110.1255	1121.4472	1177.0793	1209.2134	1248.4893	1280.2191	1303.5126	1320.1214	1358.0315	1386.2931	1435.7821	1458.8412	1754.9731	3038.468	3081.4672	3117.485	3178.3854	3185.207	3203.324	3466.0036
N=C1CC2OC3C(O1)C23	[NH][C]1C[C@H]2O[C@H]3[C@@H](O1)[C@@H]23	
InChI=1S/C6H7NO2/c7-3-1-2-4-5(8-2)6(4)9-3/h2,4-7H,1H2	InChI=1S/C6H7NO2/c7-3-1-2-4-5(8-2)6(4)9-3/h2,4-7H,1H2/t2-,4+,5-,6+/m1/s1
