23
gdb 59538	2.55118	1.16229	1.06491	1.4677	85.39	-0.2416	0.0709	0.3125	1303.1628	0.205088	-388.260385	-388.250692	-388.249747	-388.294724	37.28	
C	-0.1486533004	 1.6941274999	 0.0092915051	-0.402134
C	-0.0272837021	 0.1697244897	 0.0512238985	 0.112067
O	 0.5588795467	-0.2697877493	 1.2772465377	-0.433256
C	-1.3734291014	-0.5202169936	-0.1701761367	 0.030515
C	-2.1255316547	-0.4478430917	-1.5434283274	-0.281897
C	-2.2968795834	-1.9750585782	-1.5089941171	-0.078047
C	-0.9716953216	-2.6835898612	-1.4963143356	 0.02063
C	 0.2445671838	-2.3195364237	-2.3251489663	-0.422045
C	-1.4616685136	-2.0518900465	-0.216689274	-0.097236
H	 0.8220704283	 2.1592437822	 0.2014299773	 0.121616
H	-0.5135876557	 2.0394780326	-0.963691621	 0.117855
H	-0.8542116728	 2.047151587	 0.7727069818	 0.101857
H	 0.6864040512	-0.150851138	-0.7133076154	 0.087366
H	-0.0279745715	 0.0024838119	 1.9919345365	 0.272166
H	-2.0560905963	-0.1569237017	 0.6110361327	 0.058796
H	-3.0686103023	 0.098139994	-1.4788300156	 0.101652
H	-1.5606281163	-0.0475252706	-2.3923921848	 0.094941
H	-3.2203787801	-2.4880271989	-1.7509287009	 0.080095
H	-1.1134691907	-3.7626909769	-1.4409013007	 0.084087
H	 0.2966940861	-1.255039368	-2.5630488453	 0.1194
H	 1.1718538292	-2.591398648	-1.8094036057	 0.123382
H	 0.2238191092	-2.8598180602	-3.2784570487	 0.110468
H	-1.6339771215	-2.6669925008	 0.6590551757	 0.077722
61.2341	115.9226	151.9729	217.8687	241.361	268.3582	282.3542	303.247	337.6439	406.0241	459.9298	479.2477	602.4468	710.0427	715.1426	790.3765	813.6261	879.3997	897.7592	963.1206	973.3141	983.562	998.8726	1024.7955	1050.6402	1060.8012	1069.0727	1081.2836	1106.6564	1127.7577	1152.866	1198.7083	1218.1117	1244.1777	1263.6951	1271.9502	1300.7726	1330.7184	1355.024	1399.967	1401.3059	1413.1855	1419.6892	1449.3603	1490.7331	1491.6763	1495.5047	1501.2395	1507.8955	2997.1398	3021.1346	3032.5695	3045.8873	3070.17	3087.9997	3094.3619	3105.3871	3107.1929	3116.1703	3125.876	3167.2688	3179.3302	3792.4348
CC(O)C1CC2C(C)C12	C[C@@H](O)[C@H]1C[C@H]2[C@@H](C)[C@@H]12	
InChI=1S/C8H14O/c1-4-6-3-7(5(2)9)8(4)6/h4-9H,3H2,1-2H3	InChI=1S/C8H14O/c1-4-6-3-7(5(2)9)8(4)6/h4-9H,3H2,1-2H3/t4-,5-,6+,7-,8-/m1/s1
