18
gdb 5882	4.06219	0.88228	0.85538	2.1313	73.33	-0.256	0.0333	0.2893	1421.7084	0.149982	-384.904806	-384.894656	-384.893712	-384.940548	35.762	
C	 0.0424667181	 1.5278469314	 0.0517229064	-0.402725
C	-0.0079434589	-0.0109173712	-0.0120286819	 0.149835
C	 0.6956851424	-0.6372848199	 1.207364274	-0.402726
O	-1.3715563126	-0.4532794412	-0.0694351578	-0.454719
C	 0.631320429	-0.4760623841	-1.2481145705	 0.152645
C	 1.2010300132	-0.8300975108	-2.2483777297	 0.000231
C	 1.8507669367	-1.3274437452	-3.4603213555	-0.192711
O	 2.3790178123	-2.6397732107	-3.3251266655	-0.40231
H	 1.0741541548	 1.88987828	 0.0464371038	 0.126296
H	-0.4865055349	 1.9547605855	-0.8029965836	 0.134009
H	-0.438066627	 1.8769021196	 0.9732647421	 0.103732
H	 0.2195082684	-0.288514224	 2.1313302371	 0.103241
H	 0.6205459974	-1.7259481614	 1.1635713063	 0.132511
H	 1.7520896034	-0.3577348527	 1.2406188797	 0.12773
H	-1.7972432984	-0.1575118986	 0.7433618926	 0.277256
H	 1.1412526668	-1.2652394166	-4.3010102957	 0.120469
H	 2.7027629585	-0.689172347	-3.7200633028	 0.138816
H	 1.6725935308	-3.198083863	-2.9836775891	 0.288421
25.9613	84.6675	112.6577	191.6899	236.2991	256.6672	267.5391	284.5669	331.3173	356.5136	366.0865	401.3056	518.7903	563.5225	588.7166	671.5625	850.1579	918.6214	956.915	983.9659	1018.5356	1030.9462	1081.1806	1169.2976	1181.0163	1192.8471	1216.2479	1358.4358	1387.7403	1390.6746	1410.708	1418.7564	1476.4936	1479.0596	1490.4375	1492.494	1508.1192	2362.1664	2977.3481	3029.718	3034.8934	3061.4269	3103.701	3110.0674	3134.1729	3136.4265	3798.1613	3816.0677
CC(C)(O)C#CCO	CC(C)(O)C#CCO	
InChI=1S/C6H10O2/c1-6(2,8)4-3-5-7/h7-8H,5H2,1-2H3	InChI=1S/C6H10O2/c1-6(2,8)4-3-5-7/h7-8H,5H2,1-2H3
