23
gdb 93869	2.04221	1.53515	1.10363	0.6213	90.44	-0.2562	0.0489	0.3051	1244.6944	0.205264	-351.149064	-351.139173	-351.138229	-351.183481	37.808	
C	-0.2489155365	 1.5273111049	-0.0252087701	-0.420019
C	 0.0679371299	 0.0355332797	 0.0141483024	 0.043658
C	 0.8860911743	-0.484184092	-1.1925308657	-0.215938
C	 1.6552095914	-1.7344749821	-0.6849174564	-0.215912
C	 1.261149467	-1.9062512929	 0.8018744469	 0.043648
C	 2.3005821176	-2.6225685293	 1.6584980954	-0.420017
C	 0.8808629861	-0.4627555599	 1.2453438071	-0.200708
C	 2.0509088898	 0.3670632586	 1.5186681587	 0.368947
C	 3.018638634	 1.0491930853	 1.7343165951	-0.506398
H	 0.6691707402	 2.1224791685	-0.018611535	 0.128651
H	-0.8105659051	 1.778816913	-0.9312148564	 0.1099
H	-0.8533794963	 1.8325169137	 0.8358332942	 0.109352
H	-0.8792576753	-0.5187381144	 0.0500642142	 0.071517
H	 0.2370505249	-0.7041725432	-2.0451165674	 0.094105
H	 1.5881553399	 0.2887729813	-1.521775261	 0.105082
H	 1.4258648521	-2.6352314916	-1.2616221935	 0.094082
H	 2.7357616739	-1.5762979218	-0.7634159486	 0.105107
H	 0.3243790812	-2.4775371055	 0.844237616	 0.071508
H	 3.2412848183	-2.064226208	 1.6805098775	 0.128649
H	 1.9565264033	-2.7420446461	 2.6915861863	 0.109351
H	 2.5074026406	-3.6214240259	 1.2596673204	 0.109902
H	 0.2524072815	-0.4842947346	 2.1441430169	 0.091504
H	 3.8682809272	 1.6532068724	 1.936268113	 0.194029
77.8926	96.9527	144.0153	182.4445	226.8007	232.4198	258.9508	338.3827	383.7675	393.3877	462.4789	564.9436	617.0028	621.3358	624.3949	627.1342	791.831	839.7806	847.8305	884.6007	926.7973	948.7746	962.8166	1001.7277	1033.9411	1034.9461	1104.6269	1122.4219	1165.1428	1180.2133	1191.5576	1214.1644	1271.9502	1299.0809	1309.581	1311.938	1328.5782	1372.277	1374.1975	1392.7518	1410.4088	1414.7199	1484.5961	1495.551	1497.2418	1499.2614	1500.0472	1507.6121	2223.4791	3007.2555	3013.1981	3030.7892	3031.3913	3035.2804	3042.7031	3054.1594	3076.7298	3094.5838	3094.6771	3098.1995	3110.5909	3111.6114	3502.3469
CC1CCC(C)C1C#C	C[C@H]1CC[C@@H](C)[C@H]1C#C	
InChI=1S/C9H14/c1-4-9-7(2)5-6-8(9)3/h1,7-9H,5-6H2,2-3H3	InChI=1S/C9H14/c1-4-9-7(2)5-6-8(9)3/h1,7-9H,5-6H2,2-3H3/t7-,8+,9-
