20
gdb 89348	2.28661	1.56886	1.11388	2.6242	82.06	-0.231	-0.0323	0.1987	1165.275	0.169653	-403.133502	-403.124347	-403.123403	-403.166923	34.558	
C	-0.1002922053	 1.62955275	-0.1030006386	-0.408519
C	 0.0086467153	 0.1114625381	-0.0617564834	-0.046962
C	 1.1148553902	-0.5832803006	-0.9372082802	-0.281001
C	 1.7039636263	-1.2263892922	 0.3272086002	 0.296632
C	 2.2728995619	-2.6028785657	 0.4708828703	-0.508758
N	 2.0746771085	-0.1347035141	 1.2128398594	-0.394647
C	 0.6422213266	-0.5220965773	 1.1844347068	 0.194798
C	 0.0277411899	-1.126392708	 2.3632414961	 0.048516
O	 0.6622795209	-1.5753738356	 3.2985878419	-0.297355
H	 0.8609851706	 2.0867068802	 0.1456358518	 0.140739
H	-0.3986264569	 1.9723987299	-1.09942111	 0.113615
H	-0.8469797732	 1.9918167435	 0.6121148224	 0.114006
H	-0.9637128193	-0.3524278888	-0.2582857202	 0.077611
H	 0.7059935888	-1.3107026872	-1.6416931466	 0.105469
H	 1.8004241063	 0.088457453	-1.4605034308	 0.111583
H	 3.3101479223	-2.6285468074	 0.1159384212	 0.134216
H	 2.2621651796	-2.9153381027	 1.519646322	 0.149823
H	 1.7017504191	-3.329928819	-0.1147515254	 0.126313
H	 2.4464629383	-0.5410142104	 2.0745097263	 0.246866
H	-1.0819350598	-1.1880304756	 2.3385024969	 0.077056
114.6842	139.4292	192.1571	211.0222	221.4678	234.5478	257.5945	339.1034	370.3347	458.8813	483.3942	555.1175	656.4591	705.3504	748.659	804.6576	845.7185	893.9258	934.2852	980.6242	1022.2377	1042.7759	1086.6223	1106.4915	1117.8058	1132.3479	1165.2692	1177.6977	1237.4763	1239.9097	1312.2262	1358.9517	1362.5052	1395.7609	1407.2238	1425.5605	1443.0758	1480.3151	1488.0132	1490.8923	1495.5256	1504.5866	1761.454	2896.0977	3028.2665	3033.3198	3050.5108	3063.34	3091.3819	3095.556	3113.4153	3121.0611	3124.6406	3449.1261
CC1CC2(C)NC12C=O	C[C@H]1C[C@@]2(C)N[C@@]12C=O	
InChI=1S/C7H11NO/c1-5-3-6(2)7(5,4-9)8-6/h4-5,8H,3H2,1-2H3	InChI=1S/C7H11NO/c1-5-3-6(2)7(5,4-9)8-6/h4-5,8H,3H2,1-2H3/t5-,6+,7-/m0/s1
