15
gdb 13959	6.01566	1.25739	1.15865	2.73	63.5	-0.2455	0.0127	0.2582	1015.4488	0.118001	-399.736396	-399.729102	-399.728157	-399.768535	26.544	
N	-0.0863422663	 1.2986479901	-0.0217157394	-0.43367
C	-0.1200991577	 0.0560352493	-0.2217584142	 0.10745
O	-1.0712332368	-0.6938686713	 0.3947406748	-0.218248
C	-1.0076655569	-2.0636963596	 0.1967263502	 0.338945
C	-1.1578705541	-2.7460078257	-1.1458791321	-0.352284
C	-2.1118262345	-3.0583923576	-0.0220498931	 0.025645
O	-1.5351702253	-3.9992729325	 0.8852835983	-0.280788
C	-0.4895157759	-3.0508727717	 1.239045413	-0.138746
H	 0.6704854001	 1.7173216045	-0.5585591243	 0.233953
H	 0.5421594695	-0.53471337	-0.8659547015	 0.098798
H	-1.5752100697	-2.1055813986	-1.9173906217	 0.131084
H	-0.4473929866	-3.4946494332	-1.4860336723	 0.123496
H	-3.1901459567	-2.9738422523	-0.0702834645	 0.126378
H	 0.5167507935	-3.4647648464	 1.1097122796	 0.110449
H	-0.6253506426	-2.6874726949	 2.2631530072	 0.127538
66.7378	112.2277	163.5434	303.8246	361.1881	392.1548	453.2973	497.7254	737.7967	763.2539	826.0785	874.1714	917.5244	942.8203	985.0736	994.0123	1010.596	1041.3965	1050.7051	1080.7552	1088.3413	1115.5376	1155.1977	1225.8143	1270.9993	1292.5205	1303.6874	1397.659	1413.283	1477.6576	1512.4298	1748.8969	3033.0917	3050.9973	3090.8151	3113.9648	3199.6209	3211.9585	3519.0145
N=COC12CC1OC2	[NH][CH]O[C@]12C[C@H]1OC2	
InChI=1S/C5H7NO2/c6-3-8-5-1-4(5)7-2-5/h3-4,6H,1-2H2	InChI=1S/C5H7NO2/c6-3-8-5-1-4(5)7-2-5/h3-4,6H,1-2H2/t4-,5+/m1/s1
