21
gdb 83225	2.48151	1.63895	1.39835	2.1896	77.06	-0.2357	0.0688	0.3045	1048.2682	0.182517	-424.223755	-424.21516	-424.214216	-424.256115	34.649	
C	 0.0556773097	 1.5304105735	-0.03456681	-0.432111
C	 0.0178728758	 0.00400772	 0.0449142916	 0.349698
C	-1.4253792305	-0.5115922399	-0.0275712041	-0.417603
O	 0.777352687	-0.5000370342	-1.0872040534	-0.312934
C	 1.2679034465	-1.8068520135	-0.7661851719	-0.125602
C	 1.5338081053	-1.7846963658	 0.72754246	-0.127991
C	 2.2617475384	-0.5605171203	 1.2180940953	 0.119007
O	 3.0208928945	 0.2609296836	 0.3812194722	-0.436515
C	 0.7521733113	-0.5812297752	 1.2489963933	-0.133312
H	 1.0771787895	 1.9025053402	 0.0633702612	 0.133914
H	-0.359197406	 1.8716292775	-0.9877873972	 0.120876
H	-0.5438970486	 1.9626546868	 0.7722439332	 0.11527
H	-1.8959899434	-0.1798778061	-0.9577687947	 0.121958
H	-1.4613984103	-1.6041234376	 0.0084267193	 0.11625
H	-2.0145161228	-0.1294750937	 0.8121126565	 0.115091
H	 0.5343374483	-2.5840712947	-1.0241483656	 0.10362
H	 2.1640522189	-1.9681928066	-1.3750722973	 0.115961
H	 1.5967736601	-2.7261758556	 1.2615476497	 0.088134
H	 2.7522648534	-0.6473034882	 2.1821462513	 0.105012
H	 2.5585141869	 0.3046080324	-0.4676614962	 0.296692
H	 0.2329844661	-0.6005231724	 2.2011129867	 0.084584
157.1276	186.7983	207.7921	245.4264	250.7973	284.3997	340.9152	384.5525	441.4772	514.1818	569.5496	596.395	628.0991	736.5155	754.5766	780.2888	820.1344	863.5349	932.7376	949.6968	975.2442	1000.137	1011.7621	1016.5844	1056.496	1072.7283	1099.0115	1116.7026	1168.8542	1204.5783	1208.1911	1227.0998	1257.2651	1318.9679	1328.903	1356.6569	1398.1594	1399.7287	1417.901	1467.0565	1480.5946	1484.7698	1499.617	1509.5871	1523.1496	3001.3058	3038.8277	3046.6577	3066.3868	3108.6114	3114.5345	3118.3097	3137.8842	3162.3827	3166.2323	3179.0073	3730.8028
CC1(C)OCC2C(O)C12	CC1(C)OC[C@H]2[C@@H](O)[C@@H]12	
InChI=1S/C7H12O2/c1-7(2)5-4(3-9-7)6(5)8/h4-6,8H,3H2,1-2H3	InChI=1S/C7H12O2/c1-7(2)5-4(3-9-7)6(5)8/h4-6,8H,3H2,1-2H3/t4-,5+,6-/m1/s1
