19
gdb 55388	3.28868	1.21437	0.93073	2.5332	77.3	-0.2427	-0.0129	0.2297	1256.0952	0.158192	-423.052227	-423.04333	-423.042386	-423.087563	32.634	
C	-0.9639126985	 0.4004815173	 0.5633425252	-0.472404
C	 0.3716652597	 0.2517204791	-0.1277765774	 0.353497
O	 1.3794688072	 0.7976175108	 0.2597161783	-0.307279
C	 0.4258293361	-0.615880682	-1.3899917791	 0.018589
C	 1.6676808044	-1.5159564666	-1.4227458327	-0.246803
C	 1.5491567711	-2.5011647354	-2.55406819	-0.075633
C	 0.3890215253	-2.7284855252	-3.1648873047	-0.065001
C	-0.8836603725	-2.0542894266	-2.7332343568	-0.119661
O	-0.7630014406	-1.3807796081	-1.4914383049	-0.264649
H	-1.7109398865	 0.7910864518	-0.1355201206	 0.14314
H	-1.331063571	-0.5807654256	 0.8795167044	 0.152815
H	-0.8576607329	 1.0661418908	 1.4203585663	 0.133786
H	 0.4847042276	 0.0886992192	-2.2404685304	 0.095211
H	 2.5595056313	-0.8908136298	-1.5282189257	 0.128799
H	 1.7763786966	-2.038882754	-0.4628228663	 0.117665
H	 2.4492884167	-3.0239373989	-2.8657972025	 0.094282
H	 0.313412674	-3.4161943177	-4.002746584	 0.094193
H	-1.2273342262	-1.35354971	-3.5166596878	 0.099466
H	-1.6835519819	-2.7920075192	-2.5982330713	 0.119988
11.2674	114.3198	150.6634	182.2601	196.6499	312.2731	388.1743	415.0064	446.4775	521.0784	550.4361	595.6766	670.5804	745.9856	870.7976	877.589	927.3669	940.9602	979.3428	994.5539	1018.8982	1045.4253	1066.0502	1096.6346	1120.107	1196.5469	1208.6666	1234.7137	1260.6056	1299.6304	1356.6938	1365.735	1380.2476	1398.2287	1410.9064	1453.6382	1463.7173	1469.5642	1489.1897	1726.3915	1810.9231	2933.1565	2936.262	3021.3364	3047.0016	3051.1496	3084.5558	3109.4914	3155.1987	3158.4667	3177.8097
CC(=O)C1CC=CCO1	CC(=O)[C@H]1CC=CCO1	
InChI=1S/C7H10O2/c1-6(8)7-4-2-3-5-9-7/h2-3,7H,4-5H2,1H3	InChI=1S/C7H10O2/c1-6(8)7-4-2-3-5-9-7/h2-3,7H,4-5H2,1H3/t7-/m1/s1
