19
gdb 95712	3.06944	1.25255	0.95258	4.7423	72.29	-0.2525	0.0025	0.255	1237.0014	0.159876	-460.191539	-460.183037	-460.182093	-460.224758	31.966	
C	 0.1984777399	 1.6514620625	 0.0130651232	-0.406813
C	-0.0416647547	 0.136536051	 0.0686001199	-0.012948
C	-0.0004654474	-0.4523344824	-1.3449541647	-0.075813
O	-0.2649167138	-1.8398992626	-1.3985791378	-0.23829
C	 0.7536355257	-2.6715903546	-0.8903127105	-0.216488
C	 0.6614148464	-2.911921862	 0.6219486873	 0.399917
O	 0.5877944775	-4.0139675609	 1.091492676	-0.312805
O	 0.6399635623	-1.836946448	 1.4448098432	-0.221883
C	 0.9876080588	-0.5209160081	 0.9920702645	-0.080977
H	 1.2041289679	 1.8826121061	-0.357405464	 0.121652
H	-0.5193458273	 2.1372267457	-0.6547278324	 0.126477
H	 0.0950525164	 2.1054471949	 1.0029375112	 0.126639
H	-1.0341889496	-0.0593881864	 0.4926704794	 0.103338
H	-0.767675207	 0.0174934258	-1.9681773729	 0.115138
H	 0.9810880418	-0.2365196683	-1.8037054581	 0.087336
H	 0.6364525825	-3.6526894386	-1.3529885984	 0.143118
H	 1.7533205135	-2.2842896434	-1.1490656243	 0.107668
H	 1.9796998177	-0.5356957856	 0.5199204345	 0.1086
H	 1.0750860395	 0.0535246351	 1.9173531238	 0.126133
74.4563	139.0807	203.0703	232.9464	276.2837	310.2175	341.0908	366.4674	425.5207	480.8931	521.3743	601.5362	719.9978	804.9432	853.868	907.1101	941.2824	965.6283	982.317	1026.2388	1080.0073	1103.4387	1152.0796	1170.0589	1175.3798	1233.37	1267.5477	1308.6262	1318.079	1337.5084	1377.6498	1381.7878	1405.4474	1408.5377	1436.6421	1475.115	1489.0209	1499.134	1501.7933	1509.312	1844.6366	2950.5981	2970.5131	3014.2997	3032.2866	3043.8901	3080.3111	3097.8868	3101.9777	3112.5455	3123.6513
CC1COCC(=O)OC1	C[C@H]1COCC(=O)OC1	
InChI=1S/C6H10O3/c1-5-2-8-4-6(7)9-3-5/h5H,2-4H2,1H3	InChI=1S/C6H10O3/c1-5-2-8-4-6(7)9-3-5/h5H,2-4H2,1H3/t5-/m0/s1
