18
gdb 43877	4.58424	1.10389	1.05066	3.2242	75.92	-0.2383	-0.0221	0.2162	1164.3018	0.146982	-401.908226	-401.900564	-401.89962	-401.940828	30.162	
O	 0.0492974329	 0.3436486061	-1.0311975502	-0.289813
C	 0.0072626699	 1.267496442	-0.2727954486	 0.402194
C	-1.1390470327	 2.0476877299	 0.3919886691	-0.409874
C	-0.0892052984	 3.1106277223	 0.8294534052	 0.351858
C	-0.1356278476	 4.5869294555	 0.3537899651	-0.33403
C	-0.1301885876	 4.9621064438	 1.8316346193	-0.011763
C	-1.229004067	 4.2953274427	 2.5517541256	-0.238451
N	-0.0070994543	 3.5114720488	 2.276433365	-0.165397
C	 1.0642881349	 2.1916130883	 0.3462826327	-0.41042
H	-1.9523440732	 2.3627815912	-0.2671785733	 0.128521
H	-1.5627736315	 1.5040247199	 1.2441142009	 0.141212
H	 0.7729737098	 4.8817965937	-0.1752601468	 0.116434
H	-1.0044594857	 4.9114583432	-0.2274009389	 0.106833
H	 0.4732720263	 5.7429594101	 2.2821172839	 0.099675
H	-1.3526957111	 4.5179697246	 3.6069546334	 0.124843
H	-2.150129795	 4.0426851477	 2.029967642	 0.115412
H	 1.5839153238	 1.7235029864	 1.1894382005	 0.145477
H	 1.8048463366	 2.6101479038	-0.3406814549	 0.127288
42.6931	146.7737	236.8735	338.3976	374.5175	396.3763	426.7894	470.1243	538.8168	655.6105	715.8044	758.31	763.3605	818.3784	849.7025	885.7245	919.2055	943.0594	996.753	1013.2214	1054.9982	1067.5329	1096.9803	1107.5301	1119.0769	1144.2097	1156.2252	1185.3744	1207.3914	1225.8824	1243.5941	1274.186	1290.1314	1365.6037	1414.7379	1432.9107	1485.3808	1503.2003	1896.9252	3047.3074	3050.1092	3054.15	3103.7061	3109.1771	3110.0492	3113.3018	3168.186	3199.2459
O=C1CC2(CC3CN23)C1	O=C1CC2(C[C@H]3CN23)C1	
InChI=1S/C7H9NO/c9-6-2-7(3-6)1-5-4-8(5)7/h5H,1-4H2	InChI=1S/C7H9NO/c9-6-2-7(3-6)1-5-4-8(5)7/h5H,1-4H2/t5-,8?/m0/s1
