17
gdb 108158	3.4165	1.51857	1.27785	2.9158	73.86	-0.2289	-0.0511	0.1778	1005.8197	0.134768	-417.847925	-417.840239	-417.839295	-417.880054	29.803	
C	-0.1277758486	 1.3366866757	-0.2869894671	-0.259601
O	-0.0812623041	-0.0107650837	 0.1676403907	-0.289644
C	-1.3043052769	-0.6341141943	 0.2154760831	 0.429904
C	-2.3745431784	-0.2477875587	 1.2729489551	-0.245157
N	-3.4865281422	-1.1379739296	 0.8719356923	-0.155665
C	-2.9327079834	-2.0527859331	 0.1804644365	 0.133758
N	-3.1625724341	-2.0174733639	-1.276389016	-0.347028
C	-1.7260663511	-1.423605577	-1.153028361	-0.093013
C	-1.3693557292	-2.1084036791	 0.110324884	-0.25017
H	 0.9055077351	 1.6843578277	-0.340331308	 0.134505
H	-0.5882292408	 1.4032559229	-1.2810863278	 0.121426
H	-0.684865771	 1.9810182457	 0.4045603748	 0.122834
H	-1.9679237213	-0.3884787702	 2.2855068267	 0.117141
H	-2.75533567	 0.7757014835	 1.2001043	 0.126153
H	-2.9754174255	-2.9406063719	-1.6851880827	 0.224713
H	-1.1425666006	-1.2759351204	-2.0565372361	 0.116622
H	-0.6642174381	-2.8857183434	 0.3758423154	 0.113222
85.9283	153.4388	188.8876	290.6553	328.693	376.9972	466.1159	483.483	571.4744	613.8168	644.1125	732.9661	771.6928	833.7104	847.0233	888.7691	953.4646	983.2093	1004.0043	1031.0852	1035.7691	1107.1575	1122.7947	1140.519	1155.9877	1179.7801	1191.3577	1198.616	1248.6581	1276.2919	1305.5858	1361.8149	1479.799	1482.903	1491.0293	1506.0275	1618.6375	2998.1185	3008.9711	3067.3974	3078.3391	3132.4084	3164.897	3192.06	3361.7849
COC12CN=C3NC1C23	CO[C@@]12C[N][C]3N[C@@H]1[C@@H]23	
InChI=1S/C6H8N2O/c1-9-6-2-7-5-3(6)4(6)8-5/h3-4H,2H2,1H3,(H,7,8)	InChI=1S/C6H8N2O/c1-9-6-2-7-5-3(6)4(6)8-5/h3-4H,2H2,1H3,(H,7,8)/t3-,4-,6-/m1/s1
