21
gdb 39683	3.40267	1.20081	1.15016	0.7251	77.78	-0.2323	0.0831	0.3154	1184.7219	0.184539	-424.216109	-424.207741	-424.206797	-424.250138	31.089	
C	 0.0800687965	 1.0777417865	-0.503809929	-0.055546
C	 1.4920672923	 1.4243261104	 0.0037142576	-0.294562
C	 1.393707024	 0.0807662282	 0.7616293936	 0.134597
O	 0.0675832648	-0.1654645935	 0.2330549612	-0.295884
C	 2.3711476694	-1.0180154043	 0.3697209546	 0.113996
C	 1.9058426418	-2.4210447804	 0.8300631253	-0.254339
C	 2.1540684846	-3.2999145785	-0.4064307167	-0.215291
C	 1.9473846189	-2.291838888	-1.5373185002	-0.067838
O	 2.5137613617	-1.0769574189	-1.0537326723	-0.274304
H	-0.7226603213	 1.7488817485	-0.1748247439	 0.097844
H	-0.0105157146	 0.9102416568	-1.5828578388	 0.106738
H	 2.2634790181	 1.4462266263	-0.7652471862	 0.127299
H	 1.5622780626	 2.3126166427	 0.6327204546	 0.103791
H	 1.3722071749	 0.1691028835	 1.8580410658	 0.067809
H	 3.3562742529	-0.7620853945	 0.7870243111	 0.070523
H	 2.4421275209	-2.7619871207	 1.7182406992	 0.100967
H	 0.8378062038	-2.394227905	 1.0643474298	 0.127391
H	 3.1836430378	-3.6727093642	-0.419840656	 0.104213
H	 1.4785896039	-4.1569203103	-0.4676477079	 0.101482
H	 2.4612332092	-2.5543264048	-2.4668894813	 0.100496
H	 0.8767051578	-2.1590749397	-1.7496865305	 0.100621
57.9372	71.8382	100.5588	193.8227	247.8062	276.271	394.8989	580.4012	624.5005	676.6133	747.9802	803.0415	845.4693	881.4725	900.7171	924.5356	933.7979	940.6817	963.0226	990.3565	1025.695	1039.3639	1058.6824	1108.8604	1131.2178	1137.8796	1168.6805	1205.7231	1213.5706	1222.9055	1257.6716	1263.8477	1273.6068	1304.9597	1335.8894	1341.2968	1354.0375	1370.6173	1386.6688	1404.7269	1479.8036	1484.6587	1496.3693	1519.3544	1527.8848	2986.5999	2999.4589	3001.5904	3020.2381	3049.823	3063.9676	3064.6518	3082.4554	3090.1511	3103.523	3118.4877	3152.7204
C1CC(O1)C1CCCO1	C1C[C@@H](O1)[C@H]1CCCO1	
InChI=1S/C7H12O2/c1-2-6(8-4-1)7-3-5-9-7/h6-7H,1-5H2	InChI=1S/C7H12O2/c1-2-6(8-4-1)7-3-5-9-7/h6-7H,1-5H2/t6-,7-/m1/s1
