14
gdb 27912	2.07276	1.86894	0.98316	1.726	68.41	-0.226	0.0051	0.2311	1104.7507	0.1038	-470.100565	-470.09317	-470.092225	-470.132155	29.121	
N	 0.0174008129	 1.3847871673	-0.0191549268	-0.566883
C	-0.0194081668	 0.0208967709	-0.0274909424	 0.41955
C	-1.2293851314	-0.6864691284	-0.0393824651	-0.315617
C	-1.1122330236	-2.066066163	-0.0904938489	 0.447495
O	-2.221299143	-2.8242564173	-0.1048124012	-0.414336
N	 0.0591837291	-2.7068948257	-0.1266824429	-0.470913
C	 1.1353323304	-1.9143787248	-0.108575688	 0.447254
O	 2.3287235536	-2.5284141762	-0.1410936483	-0.394611
N	 1.1761900129	-0.5944379877	-0.0581148881	-0.372344
H	 0.911969385	 1.7984280207	 0.188596383	 0.264148
H	-0.7999754315	 1.8942750379	 0.269196225	 0.258889
H	-2.1961758279	-0.2032219315	-0.017787041	 0.097564
H	-1.9189426667	-3.7423286428	-0.1425679944	 0.298652
H	 2.1416358869	-3.4756798894	-0.1734789808	 0.301152
184.221	217.5263	232.8409	334.288	354.0665	361.1859	485.6812	534.4155	537.2295	557.9229	566.009	588.5257	657.9619	717.2363	727.5936	799.0338	829.5023	990.1316	1037.784	1039.2774	1140.7435	1205.1892	1255.5195	1274.5156	1362.8019	1479.2623	1499.6048	1534.7345	1615.1127	1642.1566	1685.3718	3223.4476	3603.465	3729.0323	3767.7638	3791.9111
NC1=CC(O)=NC(O)=N1	Nc1cc(O)nc(O)n1	
InChI=1S/C4H5N3O2/c5-2-1-3(8)7-4(9)6-2/h1H,(H4,5,6,7,8,9)	InChI=1S/C4H5N3O2/c5-2-1-3(8)7-4(9)6-2/h1H,(H4,5,6,7,8,9)
