17
gdb 46401	3.73509	0.99071	0.86203	3.4761	69.06	-0.2541	-0.0024	0.2517	1340.4332	0.135159	-458.952691	-458.944373	-458.943429	-458.98683	30.04	
O	 0.2509966794	 0.4178282428	-0.9838102196	-0.319716
C	 0.1895326954	 1.4193015577	-0.3472834596	 0.436207
O	-0.9266554065	 2.0289398769	 0.1695356084	-0.23876
C	-0.1267909452	 3.040091337	 0.8672903374	-0.112375
C	 1.1559738803	 2.4761300048	 0.2399803353	-0.054465
O	 2.1007822487	 2.0238289634	 1.1652512004	-0.258349
C	 3.2191761873	 1.4202360077	 0.563843302	 0.128203
C	 4.3408950187	 2.3032132147	 0.0818340627	-0.287914
C	 4.4863511409	 1.4785833924	 1.3469174972	-0.28679
H	-0.4266652826	 4.0464524534	 0.5723134386	 0.129322
H	-0.1828243781	 2.9055320464	 1.9485876287	 0.140572
H	 1.6096822226	 3.1086814315	-0.5346821924	 0.108877
H	 2.9836207151	 0.5213429318	-0.0004055395	 0.121828
H	 4.8886227423	 2.0082773134	-0.8060426664	 0.122051
H	 4.2174730417	 3.3731535944	 0.208855981	 0.120176
H	 4.4467490427	 2.013282976	 2.2889235626	 0.128789
H	 5.1360150872	 0.6111814258	 1.3403102531	 0.122345
57.8593	72.7037	114.7505	178.7131	238.8985	343.6743	407.3921	458.608	513.2602	718.645	753.9225	758.2055	815.1356	826.4024	874.9079	931.9268	958.6363	977.4644	993.0742	1052.6201	1076.1488	1093.2898	1121.6155	1138.9098	1151.0023	1175.6233	1193.2981	1194.6121	1243.3607	1246.766	1323.6451	1369.9584	1413.2564	1454.6012	1497.4554	1508.5343	1935.3704	3022.8875	3084.0877	3137.1529	3141.2527	3146.7888	3151.5834	3222.3231	3237.5548
O=C1OCC1OC1CC1	O=C1OC[C@H]1OC1CC1	
InChI=1S/C6H8O3/c7-6-5(3-8-6)9-4-1-2-4/h4-5H,1-3H2	InChI=1S/C6H8O3/c7-6-5(3-8-6)9-4-1-2-4/h4-5H,1-3H2/t5-/m1/s1
