23
gdb 59468	2.87871	1.01458	0.9514	2.659	85.99	-0.2324	0.0696	0.302	1408.2009	0.206245	-384.425098	-384.415282	-384.414338	-384.460032	36.781	
C	 0.7828501681	 0.9032412548	-0.7550211928	-0.390528
C	 0.1897903554	-0.0799464059	 0.263619196	 0.021328
C	 0.0589587016	 0.5570930144	 1.6546813522	-0.390812
C	-1.1628233838	-0.5771354953	-0.2114663756	 0.006141
N	-1.1956637682	-1.5568713249	-1.3131647467	-0.358223
C	-1.6914993945	-1.9519644343	 0.0157553386	-0.060471
C	-0.9218964957	-3.0420265163	 0.7075155575	-0.003817
C	-0.8100764977	-4.3754898898	 0.0636837588	-0.240582
N	 0.3646850333	-3.4929199247	 0.1632753768	-0.315266
H	 1.7759870749	 1.241858518	-0.4428819591	 0.11087
H	 0.8748213655	 0.4338670998	-1.7388817017	 0.12328
H	 0.1478735924	 1.7916950157	-0.8612895867	 0.104536
H	 0.8609131412	-0.9412963754	 0.3427929636	 0.101316
H	-0.615497981	 1.4218560626	 1.6315520138	 0.108133
H	-0.3363486849	-0.1553898385	 2.3856930468	 0.115955
H	 1.030988688	 0.9065174718	 2.0167292608	 0.114783
H	-1.920706162	 0.2079492464	-0.2498724709	 0.076489
H	-1.9622053941	-1.3714855657	-1.9523498752	 0.233785
H	-2.771561683	-2.0275669685	 0.142987037	 0.085307
H	-0.9537066901	-2.9973621579	 1.7948794363	 0.091626
H	-0.7683833839	-5.275709446	 0.6704213315	 0.113386
H	-1.2735380056	-4.4997113574	-0.9120296343	 0.109575
H	 0.4820423844	-3.0294041828	-0.7381681368	 0.243188
62.6462	89.79	111.3819	192.3339	223.5498	239.8218	264.4483	286.0528	333.7452	393.0643	477.3123	558.4724	630.7989	736.4065	803.0412	853.7502	876.0299	888.0117	928.2552	933.794	959.1537	971.2655	978.1067	994.7703	1040.1366	1056.9528	1111.5967	1134.0364	1143.4158	1155.4422	1189.9229	1191.592	1203.0846	1255.6105	1266.7996	1293.488	1317.7877	1337.0021	1349.9312	1389.8471	1397.5998	1415.517	1431.6338	1471.1938	1489.235	1490.711	1503.3196	1505.7573	1513.1575	3022.9291	3026.3538	3057.589	3082.2776	3087.6709	3097.3439	3103.0297	3104.4883	3104.9398	3110.637	3119.7085	3191.5992	3462.2289	3519.3756
CC(C)C1NC1C1CN1	CC(C)[C@H]1N[C@H]1[C@H]1CN1	
InChI=1S/C7H14N2/c1-4(2)6-7(9-6)5-3-8-5/h4-9H,3H2,1-2H3	InChI=1S/C7H14N2/c1-4(2)6-7(9-6)5-3-8-5/h4-9H,3H2,1-2H3/t5-,6-,7+/m1/s1
