17
gdb 28700	4.1624	0.88077	0.79006	2.9088	78.58	-0.2136	-0.0254	0.1882	1446.8165	0.134341	-421.875916	-421.866996	-421.866051	-421.911161	31.34	
C	 0.0184918877	 1.4371843249	-0.0590619101	-0.492241
C	-0.1449105153	-0.0396836586	-0.0447390753	 0.346574
C	-1.2243121789	-0.8670158433	-0.0609969077	-0.249968
C	-0.7170447594	-2.2073215819	-0.0273313365	-0.256477
C	 0.6380490209	-2.1043603784	 0.0146748963	 0.317585
C	 1.746317893	-3.0998970458	 0.0220293057	-0.387348
C	 2.35792207	-3.2855302458	-1.3643319371	 0.162667
O	 2.6012523683	-4.3535245852	-1.8590522668	-0.232624
O	 1.0007550985	-0.785171604	-0.0001165762	-0.213168
H	 0.5932425992	 1.7709960294	-0.9306160693	 0.138828
H	-0.9620478012	 1.916896751	-0.0928326876	 0.137522
H	 0.543831291	 1.7935299606	 0.8344195377	 0.139069
H	-2.2583820185	-0.5605078564	-0.0900644982	 0.108768
H	-1.2857995277	-3.1241722793	-0.0302500966	 0.11425
H	 2.5477462656	-2.7549948168	 0.6904367524	 0.139728
H	 1.3985166135	-4.0716525351	 0.3788632725	 0.138265
H	 2.5658343732	-2.3326862152	-1.9002858629	 0.088571
33.1596	58.6141	123.6884	139.692	222.5057	255.5743	351.7033	395.7963	443.4707	630.145	638.044	670.9729	708.8973	799.6447	804.9976	832.5994	949.7054	982.9087	1016.2029	1030.4006	1048.5637	1050.1334	1065.5091	1181.7431	1224.5377	1243.239	1256.3667	1300.3396	1394.1741	1416.3606	1420.1063	1441.6452	1472.6671	1491.672	1597.6779	1656.1126	1836.7508	2887.9668	3020.2303	3030.109	3079.8879	3120.1789	3130.625	3250.139	3263.4239
CC1=CC=C(CC=O)O1	Cc1ccc(CC=O)o1	
InChI=1S/C7H8O2/c1-6-2-3-7(9-6)4-5-8/h2-3,5H,4H2,1H3	InChI=1S/C7H8O2/c1-6-2-3-7(9-6)4-5-8/h2-3,5H,4H2,1H3
