21
gdb 114450	4.35089	1.1727	1.08501	1.0278	83.17	-0.2457	0.0956	0.3413	1199.9746	0.184473	-387.044899	-387.03724	-387.036296	-387.077115	30.504	
C	 0.1320747737	 1.3601615766	 0.097170985	-0.233603
O	-0.1647551955	 0.0042045054	-0.1339398491	-0.252144
C	 0.5628076538	-0.5643498341	-1.2073057199	 0.124298
C	 2.0395251254	-0.9277949608	-0.8595285879	-0.27984
C	 1.9677459777	-2.4454628444	-1.0096116964	 0.002131
C	 1.0890447272	-2.788741328	-2.2576474959	-0.064458
C	 0.5886964115	-4.0618791138	-1.5352112847	-0.242395
C	 0.599983755	-2.9577365675	-0.451127186	-0.043744
C	 0.0112688117	-1.9539617132	-1.4956886896	-0.02394
H	 1.1831745912	 1.5162657404	 0.3848243355	 0.103446
H	-0.0730051052	 1.9783587404	-0.7917819342	 0.101105
H	-0.5069902642	 1.69920812	 0.9165623193	 0.124097
H	 0.4969295047	 0.0997495738	-2.0841264874	 0.05614
H	 2.7659854594	-0.4728895379	-1.5408151662	 0.092828
H	 2.2875060041	-0.6166478259	 0.1603541943	 0.103015
H	 2.8659772791	-3.0370264158	-0.8202677758	 0.059093
H	 1.375195519	-2.6798586218	-3.3062349829	 0.062913
H	-0.3897787876	-4.4471845958	-1.8363357566	 0.088219
H	 1.3110759811	-4.8753743644	-1.418842639	 0.086481
H	 0.3127709363	-3.0408331782	 0.5976826483	 0.072569
H	-1.0378124585	-2.034343615	-1.7843270209	 0.063787
100.6125	122.3046	189.0494	257.5745	348.2651	384.0003	448.7223	489.77	677.913	735.7886	783.9302	814.6694	846.493	877.0361	889.9605	915.4664	949.3871	979.4171	988.2956	1002.1054	1020.3818	1049.4995	1067.7201	1092.3212	1108.2866	1122.1323	1134.6497	1167.6523	1183.7507	1189.0799	1211.6383	1224.5376	1235.9811	1245.0606	1259.5486	1269.7834	1290.1454	1321.3681	1365.4412	1394.9042	1479.8234	1483.7149	1489.099	1509.8726	1518.8029	2965.5791	2973.4344	3015.0692	3043.1922	3044.7588	3082.0557	3089.5138	3094.2627	3102.3692	3104.362	3109.0407	3114.7746
COC1CC2C3CC2C13	CO[C@H]1C[C@@H]2[C@H]3C[C@@H]2[C@@H]13	
InChI=1S/C8H12O/c1-9-7-3-4-5-2-6(4)8(5)7/h4-8H,2-3H2,1H3	InChI=1S/C8H12O/c1-9-7-3-4-5-2-6(4)8(5)7/h4-8H,2-3H2,1H3/t4-,5-,6+,7-,8+/m0/s1
