12
gdb 130595	3.52453	1.85955	1.2173	3.1015	67.34	-0.2656	-0.1152	0.1504	902.6985	0.080882	-431.709932	-431.703911	-431.702966	-431.740533	22.801	
O	 0.0275351552	-0.0502399838	 0.0020091143	-0.284716
C	-0.0114705	 1.1435033813	 0.0091115702	 0.419447
C	-1.1991540802	 2.0791129089	 0.031439221	-0.206121
C	-0.7829461724	 3.356141092	 0.0321891075	-0.184269
C	 0.6874461557	 3.3406089935	 0.0105531491	 0.394003
N	 1.7129633283	 4.1541294369	-0.0003291398	-0.355279
C	 2.7726570935	 3.2597192019	-0.0206521421	 0.034377
N	 2.455420949	 1.9782086613	-0.0227988915	-0.231318
N	 1.0965533524	 2.0469528017	-0.0022891199	-0.03975
H	-2.2091893653	 1.6983031711	 0.0441850251	 0.152937
H	-1.3838337119	 4.2537858065	 0.0457765936	 0.156664
H	 3.8017808957	 3.5861704088	-0.0341618576	 0.144023
129.0723	210.5334	314.141	387.5413	557.6815	632.9985	650.4731	675.0257	679.7639	769.8123	771.5775	835.0865	907.2244	957.709	966.2562	1042.7031	1093.2184	1136.6719	1159.39	1276.9314	1294.7032	1321.9785	1413.9549	1455.8149	1584.1255	1625.4756	1875.388	3244.9069	3266.2172	3266.5851
O=C1C=CC2=NC=NN12	O=C1C=Cc2ncnn12	
InChI=1S/C5H3N3O/c9-5-2-1-4-6-3-7-8(4)5/h1-3H	InChI=1S/C5H3N3O/c9-5-2-1-4-6-3-7-8(4)5/h1-3H
