19
gdb 35054	2.39691	1.47486	1.44341	1.4883	80.67	-0.2207	0.0432	0.2639	1050.3149	0.160413	-385.844131	-385.836096	-385.835152	-385.876527	31.777	
C	-0.3677841064	-1.2044337556	-0.162106148	-0.462623
C	-0.2032897591	-0.0132095205	-0.0944650213	 0.35602
C	-0.0468950425	 1.4050226153	-0.0185214746	-0.282237
C	 0.4830435449	 2.0871191551	 1.2607418851	-0.099048
C	 0.9570187712	 1.252284476	 2.4453684962	-0.236787
C	 2.4744448979	 1.0232854253	 2.3679332351	-0.208402
C	 2.8573810661	 0.4909405882	 0.9918288341	-0.071355
O	 2.5261684303	 1.398271684	-0.0642288244	-0.257178
C	 1.3244749349	 2.0850143939	 0.019951745	 0.113091
H	-0.5007917459	-2.2547696094	-0.240333582	 0.194546
H	-0.8090517171	 1.9651510534	-0.5538807461	 0.110681
H	-0.0124130934	 3.0204607704	 1.5073567644	 0.095251
H	 0.6962808188	 1.7610295863	 3.3775523617	 0.10085
H	 0.4412056456	 0.2853540887	 2.4565296656	 0.119317
H	 3.0082755146	 1.9634110644	 2.5526568734	 0.104227
H	 2.7969921001	 0.3068916122	 3.131047491	 0.098957
H	 3.9384865879	 0.3484308802	 0.9077189456	 0.105872
H	 2.3699970433	-0.4766860105	 0.8158157103	 0.113179
H	 1.3963738687	 3.0023658926	-0.5563684111	 0.10564
109.5027	125.5212	156.126	290.2318	345.7158	358.4926	451.5906	478.0203	558.4691	596.7054	629.1615	651.0413	698.1863	721.9661	767.6815	807.5571	877.7253	892.991	919.8701	968.1482	1028.4097	1038.93	1064.035	1084.0782	1121.1232	1141.1914	1168.4525	1221.1959	1235.9126	1272.1636	1308.2741	1346.5252	1364.399	1372.6184	1381.4901	1403.0931	1438.3621	1480.0278	1491.38	1516.6807	2225.8951	3026.6966	3032.7551	3039.8482	3078.963	3085.9663	3091.0608	3134.8455	3148.7357	3161.2562	3504.1009
C#CC1C2CCCOC12	C#C[C@H]1[C@H]2CCCO[C@@H]12	
InChI=1S/C8H10O/c1-2-6-7-4-3-5-9-8(6)7/h1,6-8H,3-5H2	InChI=1S/C8H10O/c1-2-6-7-4-3-5-9-8(6)7/h1,6-8H,3-5H2/t6-,7+,8-/m0/s1
