16
gdb 27791	2.11606	1.8077	0.98107	5.9689	78.64	-0.2111	-0.0316	0.1795	1160.5278	0.125147	-434.123858	-434.115463	-434.114519	-434.156825	31.525	
C	 0.095699482	 1.4760994024	-0.0029160359	-0.474422
C	-0.0470441814	-0.0097563391	 0.0097780732	 0.42101
C	-1.2079359922	-0.6944325805	-0.0392823103	-0.321982
C	-1.1070072217	-2.1337904425	-0.0186093646	 0.406723
N	-2.2482406894	-2.8725647206	-0.0359730413	-0.558832
N	 0.0344217343	-2.7648773006	 0.0443670515	-0.401322
C	 1.2015275615	-2.0467348904	 0.1091092849	 0.414425
N	 2.3850788849	-2.4929136667	 0.1894706098	-0.544673
O	 1.1340768861	-0.6340715966	 0.0787968118	-0.238702
H	 0.7071617771	 1.7868141732	-0.8563039593	 0.156307
H	-0.8788590766	 1.9630474457	-0.0614677096	 0.133251
H	 0.6130877112	 1.810727682	 0.9020934196	 0.157059
H	-2.1589421271	-0.1824076888	-0.0856400997	 0.099131
H	-3.1159743252	-2.4522033052	-0.3188013304	 0.262441
H	-2.1440850703	-3.8664489911	-0.1640179153	 0.266962
H	 2.3352323966	-3.5099701112	 0.2040650956	 0.222624
94.6531	143.9238	180.0684	202.1967	285.7861	291.6853	351.4085	517.4658	519.244	533.7191	547.8694	577.9977	656.9183	720.1334	758.5631	784.1999	845.1625	846.6466	960.5908	1007.5402	1047.5473	1049.6823	1064.1194	1182.263	1213.416	1271.0916	1380.8223	1415.3458	1461.4831	1467.6906	1496.609	1596.7126	1637.9865	1707.3156	1740.8372	3045.1153	3104.4081	3145.2173	3222.4917	3519.6415	3603.3001	3734.3401
CC1=CC(N)=NC(=N)O1	C[C@@H]1C=C(N)N=C([NH])O1	
InChI=1S/C5H7N3O/c1-3-2-4(6)8-5(7)9-3/h2H,1H3,(H3,6,7,8)	InChI=1S/C5H8N3O/c1-3-2-4(6)8-5(7)9-3/h2-3,7H,1H3,(H2,6,8)/t3-/m1/s1
