18
gdb 94175	2.53299	1.48889	1.20065	4.2519	67.77	-0.2677	0.0081	0.2758	1082.9499	0.147881	-476.24327	-476.234802	-476.233858	-476.276018	32.558	
C	 0.5223917918	 1.6129833166	-0.2660173288	-0.408335
C	 0.0020589768	 0.2332888562	 0.1088891677	-0.015422
N	 0.4732419663	-0.9099104242	-0.7335187363	-0.35982
H	-0.5749127061	-2.1076964972	 0.3017677914	 0.320148
H	 0.6968518652	-0.6933585386	-1.6996944683	 0.231123
C	 1.6240062606	-1.1408618794	 0.1807224852	-0.241044
C	 0.7804777458	-0.4503926505	 1.2933845815	 0.267082
O	 1.428662609	 0.3471453156	 2.2136766308	-0.479691
C	-0.1185515122	-1.4614141167	 2.0154998338	 0.407532
O	-0.1950362992	-1.4630710592	 3.2207868686	-0.36702
O	-0.7951393373	-2.3110381351	 1.243738235	-0.375714
H	 1.6106946055	 1.6296848971	-0.3717061234	 0.128514
H	 0.0746151526	 1.9443766214	-1.2091459996	 0.117118
H	 0.2559740126	 2.3358340286	 0.5100826581	 0.142297
H	-1.0891355526	 0.2583380369	 0.2062108863	 0.091502
H	 1.9058540472	-2.189567776	 0.311028948	 0.121378
H	 2.5151543525	-0.5449103889	-0.0434871595	 0.122987
H	 1.0991200015	 0.0532285835	 3.0811513296	 0.297366
117.024	164.4095	192.7948	202.899	281.8167	305.5791	360.0792	410.8886	444.9642	486.3846	538.2446	601.471	704.8588	740.6419	753.9861	842.1854	885.8112	903.0146	936.676	993.3751	1016.7416	1053.2473	1073.4855	1104.2177	1142.5485	1176.0036	1233.0044	1241.3184	1293.3933	1333.3649	1358.0086	1387.1461	1409.6506	1436.2178	1472.0439	1488.518	1490.792	1526.5608	1841.8094	3038.202	3039.0237	3045.0455	3098.0182	3110.014	3123.5377	3346.5204	3520.8807	3645.972
CC1[NH2+]CC1(O)C([O-])=O	C[C@H]1NC[C@]1(O)C(=O)O	
InChI=1S/C5H9NO3/c1-3-5(9,2-6-3)4(7)8/h3,6,9H,2H2,1H3,(H,7,8)	InChI=1S/C5H9NO3/c1-3-5(9,2-6-3)4(7)8/h3,6,9H,2H2,1H3,(H,7,8)/t3-,5-/m1/s1
