20
gdb 12567	3.21026	1.79477	1.27349	1.6326	71.36	-0.2435	0.0824	0.3259	1003.6061	0.178374	-386.132945	-386.124983	-386.124039	-386.165071	30.298	
C	 0.3504705689	 1.6403729481	 0.008695091	-0.406784
C	-0.0903874003	 0.1716325331	 0.0545875822	 0.009315
C	 0.2539637173	-0.5450051876	-1.2625799122	-0.084167
O	-0.4264413555	-1.7776439116	-1.3963901253	-0.245778
C	 0.1734735584	-2.9240459061	-0.8272063249	-0.0593
C	 0.9324651152	-2.6995271625	 0.4869360399	-0.107774
O	 0.2343799789	-1.8942873179	 1.4120243802	-0.238437
C	 0.5156948709	-0.5118525893	 1.2884022934	-0.07728
H	 1.4343887586	 1.7269082408	-0.134010584	 0.115522
H	-0.1364169041	 2.1736645519	-0.8135844989	 0.119034
H	 0.0985720417	 2.1605727095	 0.9384386441	 0.118687
H	-1.18275762	 0.1246377149	 0.1462068772	 0.090913
H	-0.0870890696	 0.0719314609	-2.1018532195	 0.103303
H	 1.3443050618	-0.6615138717	-1.3756401075	 0.084279
H	-0.6524985024	-3.6233552867	-0.6593138663	 0.113095
H	 0.8718174239	-3.3988210623	-1.5390314509	 0.082703
H	 1.0918290968	-3.6797593154	 0.9531585249	 0.105389
H	 1.9276254791	-2.2711406181	 0.2919561558	 0.090409
H	 1.6095612232	-0.3553869165	 1.2893012059	 0.080955
H	 0.1191449974	-0.0461574834	 2.196822655	 0.105917
96.3524	168.6455	201.9592	258.2443	293.2225	324.3125	362.5334	401.1124	456.0203	548.6312	607.665	832.6704	844.1128	860.7159	904.8381	944.9691	961.4212	990.3762	1014.621	1093.4013	1120.8127	1153.8568	1171.1352	1178.5769	1209.7999	1270.8361	1287.7893	1305.5374	1311.2397	1341.9091	1370.6441	1387.9757	1404.9115	1415.5099	1421.1168	1433.2459	1485.6597	1491.1947	1498.0869	1499.2884	1503.1697	1512.2405	2943.6926	2951.0497	2969.868	2989.5775	3026.7108	3034.6969	3046.6622	3056.3325	3069.1482	3071.8792	3092.9615	3104.3054
CC1COCCOC1	CC1COCCOC1	
InChI=1S/C6H12O2/c1-6-4-7-2-3-8-5-6/h6H,2-5H2,1H3	InChI=1S/C6H12O2/c1-6-4-7-2-3-8-5-6/h6H,2-5H2,1H3
