17
gdb 51799	4.30183	0.98248	0.87285	3.8413	69.2	-0.2457	-0.0196	0.2261	1295.3173	0.13495	-458.950075	-458.941913	-458.940968	-458.984095	29.337	
O	-0.0753642861	-0.0109524938	-0.0314723013	-0.242804
C	 0.034090772	 1.1891079712	-0.0359892751	 0.152257
C	 1.3564077926	 1.920585189	-0.1363520504	-0.289938
C	 1.393854368	 2.9068408805	-1.3092032844	 0.089296
O	 0.318096502	 3.836037679	-1.1508495447	-0.274846
C	 0.7022080525	 5.1292352362	-1.6085194592	-0.108226
C	 2.2124584629	 5.1472680907	-1.5469551298	 0.026991
O	 2.7240644075	 4.6946752055	-0.2873828828	-0.246689
C	 2.6461874193	 3.7614789649	-1.3694133078	 0.002211
H	-0.8536402803	 1.8516041831	 0.0362916971	 0.098808
H	 1.5049202013	 2.5040151586	 0.781015347	 0.139937
H	 2.1576758066	 1.181755677	-0.2285163283	 0.117528
H	 1.2967651146	 2.3629431908	-2.2637886376	 0.086574
H	 0.3724297492	 5.3081302723	-2.6442576013	 0.102654
H	 0.2274672346	 5.8696013383	-0.9567208687	 0.125574
H	 2.7927645115	 5.9053687714	-2.0647292459	 0.110374
H	 3.5848562418	 3.3582672353	-1.7385330668	 0.110299
48.0801	77.0658	124.5977	179.1857	262.4824	365.4658	421.8597	439.2268	552.6898	687.6435	774.8894	835.6718	840.7213	846.5738	883.6247	932.8132	957.6934	1019.1789	1021.1215	1048.3881	1093.5236	1115.1875	1116.3819	1122.366	1222.1324	1231.0453	1257.8618	1277.007	1311.1167	1336.8761	1370.7893	1382.8969	1422.8806	1444.8244	1453.7037	1505.7869	1828.9443	2920.2488	2966.7107	2986.226	3038.4853	3077.5713	3107.7933	3157.2246	3169.8372
O=CCC1OCC2OC12	O=CC[C@H]1OC[C@H]2O[C@@H]12	
InChI=1S/C6H8O3/c7-2-1-4-6-5(9-6)3-8-4/h2,4-6H,1,3H2	InChI=1S/C6H8O3/c7-2-1-4-6-5(9-6)3-8-4/h2,4-6H,1,3H2/t4-,5-,6+/m1/s1
