20
gdb 39478	2.54799	1.72146	1.1637	2.3008	80.02	-0.2339	0.0056	0.2395	1087.3367	0.173067	-403.134757	-403.127018	-403.126074	-403.166646	31.031	
C	-0.0258010651	 1.6586425529	 0.0322092869	-0.326839
C	 1.1378210327	 0.7592097464	-0.3441733319	 0.006044
C	 2.406929124	 0.7397276376	 0.4917943722	-0.229384
C	 3.2370442694	-0.5524680607	 0.3501591598	-0.188294
C	 2.7100518814	-1.7463811891	 1.1502159371	-0.081937
O	 1.3254374451	-1.989953107	 0.869607805	-0.215525
C	 0.4497616898	-1.3868896964	 1.727810266	 0.095443
N	-0.3139420213	-0.4261717109	 1.4405745226	-0.230068
C	-0.1705904608	 0.16687222	 0.1308595232	 0.041898
H	 0.054090734	 2.194634691	 0.9732821992	 0.115323
H	-0.5584953103	 2.1938895063	-0.7463958453	 0.106828
H	 1.3275611664	 0.6525982566	-1.4105093975	 0.078837
H	 3.031240907	 1.5868566901	 0.181609489	 0.100353
H	 2.1678914019	 0.9158852769	 1.5474630217	 0.101594
H	 3.2906972292	-0.8316805423	-0.7092374255	 0.106261
H	 4.2690179302	-0.3706121774	 0.6771238193	 0.095562
H	 3.2508474884	-2.6593508804	 0.8824288788	 0.113531
H	 2.8432410358	-1.5787761506	 2.2287101684	 0.100028
H	 0.4233323814	-1.8276549541	 2.7284173252	 0.110229
H	-0.7853990492	-0.3194490788	-0.6220645342	 0.100119
135.5361	188.6316	221.8367	271.2332	310.3822	327.5913	416.0199	480.2683	503.2237	591.0276	720.2453	773.1772	786.2706	830.3533	855.1862	882.3434	911.5189	957.1705	1002.3759	1009.4028	1021.7267	1037.7738	1070.2218	1090.9753	1112.8263	1123.7362	1147.02	1187.3522	1224.2593	1246.7363	1255.8593	1309.7121	1342.066	1370.0995	1387.8977	1393.556	1417.9769	1420.904	1475.7457	1483.6035	1489.5666	1500.899	1730.8832	3003.28	3020.0717	3027.5082	3058.7146	3066.3808	3083.4168	3096.2152	3120.5488	3124.9714	3138.9478	3212.4487
C1C2CCCOC=NC12	C1[C@H]2CCCOC=N[C@@H]12	
InChI=1S/C7H11NO/c1-2-6-4-7(6)8-5-9-3-1/h5-7H,1-4H2/b8-5-	InChI=1S/C7H11NO/c1-2-6-4-7(6)8-5-9-3-1/h5-7H,1-4H2/b8-5-/t6-,7+/m1/s1
