20
gdb 116679	3.12213	0.8658	0.74751	4.4783	82.91	-0.2237	0.0096	0.2334	1581.1829	0.167889	-440.260889	-440.250658	-440.249714	-440.296693	36.871	
C	 0.0449412194	 1.2041555623	-0.1810649481	-0.250019
O	-0.1725481299	-0.1745276351	 0.0939691001	-0.195792
C	 0.613479602	-0.7080788204	 1.0506195597	 0.108628
N	 0.4927802736	-1.9248261992	 1.3529424297	-0.289548
C	 1.316175574	-2.5457300811	 2.3383516307	 0.33445
C	 2.5148085786	-1.8144622793	 2.9017437395	-0.479198
C	 0.5517109375	-3.5106331175	 3.2520259602	-0.364036
C	 1.3823879459	-4.0512247235	 2.1197467838	 0.11028
O	 0.7799711994	-4.5989975984	 0.9961142205	-0.436326
H	 1.0634156259	 1.3855927634	-0.5455392468	 0.128593
H	-0.666632798	 1.4770577509	-0.96097925	 0.148907
H	-0.1384754004	 1.8246785201	 0.7046364022	 0.128251
H	 1.3186572011	-0.0029859466	 1.5062056426	 0.085039
H	 2.2196602939	-0.9383891487	 3.4929777272	 0.115869
H	 3.0836216742	-2.4737392993	 3.5627153676	 0.121425
H	 3.1902327106	-1.4782030382	 2.105942687	 0.118799
H	 0.9060627847	-3.6196631053	 4.2719520362	 0.107932
H	-0.5242992592	-3.5424176342	 3.1274429685	 0.121677
H	 2.3176174439	-4.548974658	 2.3610191615	 0.095177
H	 0.2884452227	-3.869133482	 0.587706018	 0.289892
40.8498	90.7331	124.1908	157.1251	197.6175	236.0157	251.4189	275.1535	330.0778	388.0711	447.9307	467.8776	482.8975	535.2824	606.4277	768.7866	800.6687	865.532	936.1129	971.2239	976.9552	1029.1053	1041.1139	1061.6723	1093.7761	1120.9037	1158.605	1172.3062	1177.084	1264.3483	1277.3304	1310.3445	1358.5483	1406.7805	1422.8132	1437.7396	1478.5038	1484.4002	1490.4047	1494.3816	1500.7324	1505.6193	1769.9714	3012.2736	3016.3939	3051.1136	3074.3596	3076.892	3109.4858	3131.1036	3146.2896	3146.4215	3229.7878	3693.1729
COC=NC1(C)CC1O	COC=N[C@@]1(C)C[C@H]1O	
InChI=1S/C6H11NO2/c1-6(3-5(6)8)7-4-9-2/h4-5,8H,3H2,1-2H3	InChI=1S/C6H11NO2/c1-6(3-5(6)8)7-4-9-2/h4-5,8H,3H2,1-2H3/t5-,6+/m1/s1
