23
gdb 104413	1.99787	1.52137	1.25643	2.3694	80.89	-0.2477	0.0765	0.3242	1185.7331	0.205282	-425.436304	-425.426375	-425.425431	-425.471507	37.625	
C	 0.2805325403	 1.157593876	-0.088406018	-0.247426
O	-0.0494148348	-0.2072378922	-0.2101437574	-0.307169
C	-1.428464137	-0.5896756945	-0.0199027119	 0.374615
C	-1.981503957	-0.0689351752	 1.3033136521	-0.469141
C	-2.2703956588	-0.2318934211	-1.2684834859	-0.251336
C	-2.2168204987	-1.4708056481	-2.2134584674	-0.215947
C	-1.2169033697	-2.4453636142	-1.5640161112	-0.23398
C	-1.3452959703	-2.1395104191	-0.064030686	 0.135273
O	-0.3325531735	-2.661282636	 0.7621438809	-0.451429
H	 1.3222785421	 1.2572223211	-0.4047935659	 0.127251
H	-0.337943704	 1.7979222095	-0.7333919439	 0.108142
H	 0.1938202033	 1.5207545044	 0.9442249307	 0.114129
H	-2.0464542306	 1.0229160081	 1.3282426814	 0.112715
H	-2.9901753472	-0.4614232205	 1.4627867654	 0.117892
H	-1.3501498146	-0.4049340603	 2.1312601936	 0.129939
H	-3.3001335042	 0.0014239332	-0.9821370512	 0.09773
H	-1.8726286744	 0.665687893	-1.7492896389	 0.103481
H	-3.2073253306	-1.9329698559	-2.2772113052	 0.100286
H	-1.9320003456	-1.2020486957	-3.2334901374	 0.099534
H	-1.4173768035	-3.4941197098	-1.7959488938	 0.094046
H	-0.1927687691	-2.2193986118	-1.8783199532	 0.103004
H	-2.2927234267	-2.5463482677	 0.3119032505	 0.076195
H	 0.4306677045	-2.0867219733	 0.6150227625	 0.282198
24.4634	116.4846	165.2088	192.31	216.5884	237.2619	292.5327	339.1864	362.9902	380.1187	461.0443	488.4169	550.5391	596.2882	612.5285	726.558	780.3245	829.1088	895.5967	911.6477	932.6473	1000.4113	1015.7964	1050.2928	1085.1021	1119.8436	1126.3307	1163.0503	1182.5291	1192.3882	1202.52	1219.5535	1240.3445	1268.7463	1296.3744	1309.2797	1331.3118	1350.6227	1370.3204	1407.2825	1444.9561	1474.6005	1478.9668	1485.0503	1488.2299	1495.1155	1505.5703	1507.8468	1513.5539	2994.3938	3030.3896	3039.6705	3046.571	3047.9138	3055.3976	3060.8208	3084.991	3101.9526	3106.4928	3110.2144	3112.7713	3118.2078	3760.9569
COC1(C)CCCC1O	CO[C@@]1(C)CCC[C@H]1O	
InChI=1S/C7H14O2/c1-7(9-2)5-3-4-6(7)8/h6,8H,3-5H2,1-2H3	InChI=1S/C7H14O2/c1-7(9-2)5-3-4-6(7)8/h6,8H,3-5H2,1-2H3/t6-,7+/m1/s1
