19
gdb 39758	4.77037	1.30395	1.19428	1.4415	79.56	-0.2351	0.1053	0.3404	1073.4234	0.16111	-385.822674	-385.815905	-385.81496	-385.853543	28.404	
C	-0.004588432	 1.5199993955	 0.0253765911	-0.360862
C	 1.3237594581	 0.7642819281	 0.011042846	-0.367658
C	 0.0260173441	 0.0312834572	-0.0046764487	 0.455083
C	-0.5698951875	-1.0236470096	 0.9270200235	-0.199883
C	-1.8144532302	-1.123578125	-0.0292435325	-0.044316
C	-2.2203745263	-2.5904816726	-0.0591357576	-0.115658
O	-0.9308352158	-3.2296328639	-0.0711601251	-0.289592
C	-0.0482453858	-2.1263900875	-0.0482856127	 0.162726
C	-0.5685974098	-0.9851675323	-0.9789998832	-0.199891
H	-0.2894591948	 2.0198026059	 0.9461335353	 0.111117
H	-0.2881612348	 2.0565613727	-0.8748665173	 0.111117
H	 1.9150761196	 0.8022038403	-0.8987269598	 0.111836
H	 1.9137685772	 0.7653891065	 0.9224507656	 0.111836
H	-0.5746618563	-1.0476496295	 2.0175523876	 0.07222
H	-2.581404351	-0.3502457508	-0.0141536711	 0.075266
H	-2.7872031782	-2.9046705321	 0.8262126106	 0.102126
H	-2.7859867176	-2.8686641951	-0.9572163128	 0.102126
H	 0.9902449103	-2.4520836937	-0.0541541907	 0.090186
H	-0.5718792391	-0.9651398141	-2.0696178779	 0.07222
159.1647	222.6694	241.0292	324.5358	457.6245	471.1516	548.5683	727.4286	754.8176	756.0828	771.3995	786.5953	892.4815	895.7541	916.6368	944.9345	954.2316	958.8885	981.3874	981.4111	1022.0644	1045.6822	1046.0284	1067.5954	1077.6351	1119.8565	1142.4153	1149.4582	1157.4402	1182.01	1185.0665	1200.5169	1207.4822	1251.971	1274.1411	1318.4723	1383.2298	1427.9173	1462.5093	1519.9662	1524.7829	3016.6013	3054.3367	3104.6089	3106.4059	3118.2792	3122.0533	3131.7765	3148.3666	3194.7369	3208.9952
C1CC11C2C3COC2C13	C1CC21[C@H]1[C@@H]3CO[C@H]1[C@H]23	
InChI=1S/C8H10O/c1-2-8(1)5-4-3-9-7(5)6(4)8/h4-7H,1-3H2	InChI=1S/C8H10O/c1-2-8(1)5-4-3-9-7(5)6(4)8/h4-7H,1-3H2/t4-,5-,6+,7+
