20
gdb 46054	4.1861	0.96338	0.82211	3.1862	80.06	-0.2363	-0.0137	0.2226	1394.518	0.171261	-403.151831	-403.143447	-403.142503	-403.185367	32.012	
O	-0.1695264063	-0.0088719666	-0.2393504551	-0.31273
C	-0.0854558623	 1.1758041281	-0.046315452	 0.399872
C	-1.262452098	 2.1348088223	 0.1810594996	-0.321522
C	-0.6439915329	 3.5385597752	 0.125303905	-0.232339
C	 0.8053382434	 3.3402136061	 0.6222169167	 0.046898
C	 1.2107309998	 1.9872500318	 0.0214216575	-0.32909
N	 1.6792717989	 4.4204140196	 0.190248463	-0.062012
C	 1.7346474164	 5.5984044679	 1.0519524142	-0.225918
C	 2.8794743971	 4.6499950577	 0.990345433	-0.225188
H	-2.0619630922	 1.9517487205	-0.5407027309	 0.130374
H	-1.6750389247	 1.9130743388	 1.1741817313	 0.130414
H	-0.600895249	 3.9011816286	-0.907642081	 0.11742
H	-1.1895582258	 4.2808876177	 0.7130303167	 0.101892
H	 0.7924993138	 3.2532545176	 1.7258616528	 0.056791
H	 1.994427466	 1.448618658	 0.5582584048	 0.123229
H	 1.5638004499	 2.1470717531	-1.0064709674	 0.140497
H	 1.780751639	 6.5558186986	 0.5415051711	 0.119358
H	 1.1364137484	 5.595504952	 1.9619281829	 0.110742
H	 3.0438884646	 4.0135513608	 1.8585672915	 0.111588
H	 3.7774027039	 4.901018452	 0.4335765963	 0.119723
69.538	95.7129	139.6115	186.115	294.6911	377.7186	424.3263	462.9391	512.1734	552.5845	577.0697	726.339	786.2031	811.7513	856.3917	898.6291	905.7404	921.7274	952.0453	991.2202	1026.4692	1053.5749	1107.9588	1114.8612	1120.2284	1135.4148	1160.71	1168.4735	1176.3879	1217.7637	1239.2749	1256.8437	1296.2315	1314.5973	1323.4584	1346.2559	1392.3652	1448.2237	1452.1478	1492.4136	1501.5898	1520.1482	1848.4597	2909.0508	3033.4408	3034.4109	3051.5032	3094.8434	3099.3745	3100.8925	3109.3975	3112.9821	3179.2377	3193.4628
O=C1CCC(C1)N1CC1	O=C1CC[C@@H](C1)N1CC1	
InChI=1S/C7H11NO/c9-7-2-1-6(5-7)8-3-4-8/h6H,1-5H2	InChI=1S/C7H11NO/c9-7-2-1-6(5-7)8-3-4-8/h6H,1-5H2/t6-/m0/s1
