16
gdb 106024	2.64931	1.64509	1.24709	2.8493	68.96	-0.2169	-0.0001	0.2168	1022.01	0.123523	-437.812652	-437.80476	-437.803816	-437.845395	29.493	
C	 0.1609981079	 1.3475106306	 0.3859313295	-0.334069
N	-0.1002789861	 0.0414622874	-0.2271211589	-0.404704
C	-1.4213227286	-0.4133609962	-0.1541960928	 0.182197
C	-2.0825761043	-0.8846828397	 1.1402957739	 0.075721
O	-3.4996798265	-0.7557362723	 1.0024405748	-0.289046
C	-3.3403110669	-1.3830270966	-0.305500828	-0.089839
C	-1.9327490195	-1.9182660492	 0.0945810222	-0.184342
C	-2.5658689809	-0.312461879	-1.1227083847	 0.399426
O	-2.6751391455	 0.1520404437	-2.223896142	-0.347393
H	 1.2234353674	 1.5815963911	 0.2791497693	 0.126169
H	-0.4248239864	 2.168855638	-0.0516342371	 0.124628
H	-0.0661607846	 1.3001404804	 1.4548972015	 0.129434
H	 0.222321483	 0.0275186588	-1.1889197066	 0.238775
H	-1.6238919625	-0.7606887812	 2.1131105061	 0.128266
H	-4.2042706755	-1.9288528119	-0.6712100703	 0.109648
H	-1.378654151	-2.8334934238	-0.0433722269	 0.135129
72.6397	151.312	172.073	180.5934	253.055	372.3757	462.1728	511.3026	634.8179	675.1538	684.0945	747.362	783.6628	804.5782	828.2554	886.2686	938.0714	959.4038	968.2231	997.1174	1055.75	1065.9781	1108.263	1150.9561	1164.6023	1180.9651	1209.3935	1256.2494	1314.6742	1426.787	1472.6663	1487.3009	1493.8744	1523.9153	1867.6206	2998.6984	3082.0122	3119.3644	3182.0125	3203.2064	3247.7306	3525.68
CNC12C3OC(C13)C2=O	CN[C@]12[C@H]3O[C@H]([C@@H]13)C2=O	
InChI=1S/C6H7NO2/c1-7-6-2-3(4(6)8)9-5(2)6/h2-3,5,7H,1H3	InChI=1S/C6H7NO2/c1-7-6-2-3(4(6)8)9-5(2)6/h2-3,5,7H,1H3/t2-,3-,5+,6-/m1/s1
