18
gdb 85758	3.34554	1.22148	1.04948	2.1893	77.13	-0.2353	0.0394	0.2748	1163.5992	0.14762	-401.885216	-401.8769	-401.875956	-401.918009	32.357	
O	-0.056298049	 1.4394339759	 0.0635009812	-0.432822
C	 0.0040997277	 0.0232638329	 0.009812025	 0.109362
C	 0.6702176115	-0.6308414276	 1.2410916497	-0.295905
C	-0.1022306502	-1.9659245896	 1.4173845671	-0.154951
C	-0.1548902344	-2.4391613886	 2.7945576145	 0.348509
C	-0.1861224886	-2.8098123927	 3.9372755458	-0.452576
N	-1.4598260267	-1.7825764329	 0.8268645994	-0.100946
C	-2.1402767147	-0.5644859509	 1.2908121745	-0.241807
C	-1.3990560378	-0.5583976481	 0.0053415922	-0.021161
H	 0.8348345611	 1.7823537506	-0.0564776649	 0.285381
H	 0.5157047688	-0.2987966887	-0.910412034	 0.071855
H	 1.7424483744	-0.7976701198	 1.1147195169	 0.10791
H	 0.5355205953	 0.0211064227	 2.1072246686	 0.126386
H	 0.376459103	-2.7381665172	 0.802061544	 0.11273
H	-0.2191764294	-3.1483585761	 4.943210959	 0.197608
H	-3.2234712913	-0.63149414	 1.2811641319	 0.120127
H	-1.7313521322	-0.0161611775	 2.1338684621	 0.126847
H	-1.9377610676	-0.5785159723	-0.9370153131	 0.093454
86.5649	134.0096	168.2847	273.9167	281.5082	336.93	405.4822	465.8479	517.3793	567.442	613.0433	618.7717	637.2121	656.2521	756.7676	832.249	878.9409	904.2689	983.0215	988.8799	1017.4531	1051.001	1069.3539	1098.5193	1107.5777	1118.5505	1165.4275	1188.5027	1235.1832	1251.2606	1273.2465	1319.9871	1355.1143	1357.2468	1392.3365	1436.0878	1490.0172	1519.0687	2239.275	2978.0943	3023.0101	3072.1507	3119.5212	3125.0298	3156.3908	3208.0554	3504.1364	3819.2928
OC1CC(C#C)N2CC12	O[C@H]1C[C@@H](C#C)N2C[C@@H]12	
InChI=1S/C7H9NO/c1-2-5-3-7(9)6-4-8(5)6/h1,5-7,9H,3-4H2	InChI=1S/C7H9NO/c1-2-5-3-7(9)6-4-8(5)6/h1,5-7,9H,3-4H2/t5-,6+,7+,8?/m1/s1
