21
gdb 81585	3.4413	1.20473	1.04922	2.1579	83.1	-0.2306	0.0776	0.3081	1229.0599	0.184415	-383.155424	-383.147194	-383.14625	-383.188519	32.059	
C	-0.0757359133	 1.6965564325	-0.0689093506	-0.446864
C	 0.0028235128	 0.1821285102	-0.1047266286	 0.091821
C	 0.8318817526	-0.6199251729	-1.1423926053	-0.104477
C	 2.0651489253	-0.1658219835	-0.3350113404	-0.184874
N	 1.0692067561	-0.5286431797	 0.7835884626	-0.180376
C	 0.7790494853	-1.7681847101	-0.1033056126	 0.050017
C	-0.4875316637	-2.5386834207	 0.2125902496	-0.061238
C	-0.4438364204	-3.6058518267	 1.243994135	-0.240554
N	-1.1534587382	-2.3473110491	 1.5162517751	-0.314172
H	 0.8504979535	 2.2055035609	-0.3430537029	 0.119912
H	-0.8565968555	 2.0344378761	-0.7588826137	 0.122922
H	-0.3586907002	 2.027819095	 0.9358200245	 0.133093
H	-0.990890154	-0.2224527347	 0.0986627466	 0.1026
H	 0.7027680005	-0.6796773363	-2.229645299	 0.061822
H	 2.9488505452	-0.8096068453	-0.3501726125	 0.100333
H	 2.3556866159	 0.8835451873	-0.3487999211	 0.10456
H	 1.646577288	-2.4365177559	-0.1237591287	 0.076754
H	-1.1829964625	-2.6566475242	-0.6166927975	 0.094499
H	-1.0784057162	-4.4831661271	 1.1529396494	 0.114626
H	 0.5071770611	-3.7831967588	 1.7415942983	 0.113028
H	-0.5555593026	-1.7442955372	 2.080668832	 0.246568
58.0575	157.0211	169.5097	187.7684	283.0923	330.6876	393.2157	450.1874	574.0843	624.3545	746.0699	777.741	783.9136	830.9391	846.7489	870.4683	898.9751	910.2198	980.4599	998.789	1024.8918	1041.7528	1063.7263	1079.7377	1110.2719	1140.2069	1145.5304	1148.2611	1166.6122	1168.6936	1196.8134	1214.3457	1233.4531	1247.5716	1275.4548	1286.4459	1316.793	1380.3933	1408.2196	1424.3327	1440.7024	1494.3251	1495.5121	1509.179	1544.7103	3029.3609	3039.9699	3043.3255	3069.0679	3087.9692	3099.8665	3100.1829	3116.6738	3125.4298	3147.6746	3186.088	3472.7755
CC1C2CN1C2C1CN1	C[C@H]1[C@H]2CN1[C@H]2[C@H]1CN1	
InChI=1S/C7H12N2/c1-4-5-3-9(4)7(5)6-2-8-6/h4-8H,2-3H2,1H3	InChI=1S/C7H12N2/c1-4-5-3-9(4)7(5)6-2-8-6/h4-8H,2-3H2,1H3/t4-,5+,6+,7+/m0/s1
