23
gdb 95403	2.26311	1.49414	1.06272	1.2155	88.28	-0.2321	0.0294	0.2615	1252.8385	0.205333	-388.313774	-388.304128	-388.303184	-388.347558	37.036	
C	-0.1415284332	 1.5017459376	-0.0624459481	-0.413249
C	 0.0366084736	-0.0073718072	 0.0216867714	 0.122627
O	 0.6795911737	-0.4203628201	-1.1809521354	-0.262855
C	 0.6601327552	-1.8227831183	-1.3554784823	-0.123422
C	 0.9509323838	-2.5875630022	-0.0959066948	-0.163738
C	 1.0416746282	-2.0103152306	 1.1031452117	 0.302065
C	 1.3218465344	-2.7904004509	 2.3586317561	-0.483056
C	 0.8441978294	-0.5087447962	 1.2377479396	-0.069516
C	 2.191743952	 0.2201022056	 1.4024824703	-0.397762
H	 0.8176568428	 2.0021869194	-0.2172149091	 0.128179
H	-0.7925815333	 1.7542944668	-0.9036171164	 0.120136
H	-0.5941118665	 1.8899362563	 0.8555543895	 0.11061
H	-0.9604486832	-0.4780329112	 0.0731298607	 0.061271
H	-0.3167093784	-2.1445681687	-1.7650868382	 0.092072
H	 1.408725244	-2.0462066806	-2.1261127218	 0.112801
H	 1.0658818681	-3.6640544033	-0.205199812	 0.07915
H	 1.4670956057	-3.8533680966	 2.1474081953	 0.119086
H	 2.2192759958	-2.4237577217	 2.8719336694	 0.125144
H	 0.4947151161	-2.6945839294	 3.0742260854	 0.121251
H	 0.2392654167	-0.3241713769	 2.1377601899	 0.065692
H	 2.7533655339	 0.1833683851	 0.4648539457	 0.131192
H	 2.0520509041	 1.2685410174	 1.681868408	 0.112227
H	 2.8012922969	-0.2470785143	 2.1813305951	 0.110094
94.4714	157.6706	195.9875	210.0554	235.6988	244.0046	271.5635	292.3293	302.48	369.8755	452.7481	478.7381	561.6482	638.0243	696.4105	796.319	822.4583	845.2708	870.8893	948.5252	993.8772	1005.7579	1034.4364	1047.8327	1057.3232	1076.0754	1107.9074	1147.7144	1165.4233	1174.1253	1187.8258	1266.2132	1306.8547	1329.1933	1354.8519	1371.404	1388.3072	1399.7835	1407.3089	1412.6252	1418.6744	1476.828	1482.4452	1489.3212	1490.5336	1496.2996	1502.1546	1513.0006	1742.7642	2919.7343	2948.9969	2996.0437	3016.4469	3037.8306	3042.1512	3045.9177	3063.8519	3106.9389	3108.7448	3116.2504	3121.4914	3127.2936	3147.2017
CC1OCC=C(C)C1C	C[C@H]1OCC=C(C)[C@H]1C	
InChI=1S/C8H14O/c1-6-4-5-9-8(3)7(6)2/h4,7-8H,5H2,1-3H3	InChI=1S/C8H14O/c1-6-4-5-9-8(3)7(6)2/h4,7-8H,5H2,1-3H3/t7-,8-/m1/s1
