18
gdb 33972	2.34234	1.70957	1.19993	1.3443	84.3	-0.2212	0.0285	0.2497	1076.6456	0.146884	-364.717185	-364.709044	-364.708099	-364.749584	32.318	
C	 0.0111808641	-1.2145749357	-0.0964432621	-0.428375
C	 0.0384670742	-0.0136894125	-0.0090536515	 0.184291
C	 0.0300329337	 1.3997493838	 0.1182841043	 0.153766
N	 0.2112052904	 2.3079341892	-1.0624575138	-0.376202
C	 1.1491127621	 2.4037747688	 0.0702210947	-0.118195
C	 0.4719264426	 3.2731728449	 1.139186725	-0.311885
C	-0.678412418	 2.2381373994	 1.1753192754	 0.332694
C	-2.1514926842	 2.4400619231	 1.3333960069	-0.315625
C	-1.3617861914	 1.6969420316	 2.3914608541	-0.339647
H	-0.0007800224	-2.2734008405	-0.1747904024	 0.188763
H	 0.6681088135	 1.7502604583	-1.7853534691	 0.234533
H	 2.208621723	 2.2233442062	-0.0617903787	 0.107623
H	 1.0327961902	 3.3118899913	 2.076437121	 0.107335
H	 0.216425365	 4.284644081	 0.8133318495	 0.112053
H	-2.5024627594	 3.4400805905	 1.5661811537	 0.114359
H	-2.8160225897	 1.869481189	 0.6933344651	 0.120308
H	-1.4884410064	 0.6210965943	 2.4592870497	 0.123239
H	-1.1802432674	 2.1897842974	 3.3413450381	 0.110966
107.0091	133.6107	173.7691	273.0647	286.8202	399.3335	458.2627	487.7909	542.9515	566.9051	573.8286	619.3115	663.9478	766.7798	783.9032	849.0283	858.5226	892.5249	904.6473	951.4897	977.07	990.9093	1031.4984	1054.729	1058.8351	1078.2211	1131.6465	1179.1805	1186.751	1195.1529	1224.4732	1282.4892	1321.5344	1377.1052	1406.0837	1461.737	1475.8081	1505.2633	2228.5244	3058.9309	3115.5713	3123.6673	3130.441	3195.6124	3204.4364	3219.4224	3463.9279	3502.2984
C#CC12NC1CC21CC1	C#C[C@]12N[C@H]1CC12CC1	
InChI=1S/C8H9N/c1-2-8-6(9-8)5-7(8)3-4-7/h1,6,9H,3-5H2	InChI=1S/C8H9N/c1-2-8-6(9-8)5-7(8)3-4-7/h1,6,9H,3-5H2/t6-,8-/m0/s1
