15
gdb 69886	2.7954	1.65709	1.20684	3.2854	70.97	-0.2355	0.0034	0.2389	997.6433	0.112293	-416.724875	-416.717324	-416.71638	-416.756661	29.605	
O	-0.1361055104	 1.4131327188	-0.0164082084	-0.437184
C	-0.0311998765	 0.0449586549	-0.0123076137	 0.34601
C	-0.2291968948	-0.85156151	-1.1985363861	-0.357288
C	-1.1592764228	-0.9575478588	 0.0009491507	-0.120904
C	-0.490133554	-1.6890185654	 1.1958931362	-0.105739
N	 0.8588033532	-2.1387068027	 0.8159718661	-0.366903
C	 0.6381601403	-0.7133127737	 1.1990401851	 0.139919
C	 1.3064714968	-0.0950936503	 2.2875219038	 0.18909
N	 1.8617412167	 0.4220595758	 3.1627655848	-0.348475
H	 0.653395875	 1.7835613145	-0.4294139652	 0.297915
H	-0.6866971716	-0.3360783081	-2.0373489873	 0.124309
H	 0.4609028117	-1.6468388214	-1.4486680264	 0.148721
H	-2.223641745	-0.7820046278	-0.0650330478	 0.113799
H	-1.0093480648	-2.1088749864	 2.0470362605	 0.125483
H	 1.2753875862	-2.6110831293	 1.6190425075	 0.251248
127.6004	135.7531	266.1912	316.7803	339.1027	406.1889	443.2516	496.1181	541.8257	565.9526	589.722	648.9902	785.7802	829.8846	844.8402	881.3963	925.6009	928.9053	979.4796	989.9017	1016.462	1043.7792	1091.5028	1133.5933	1183.8937	1233.1196	1252.2028	1293.7052	1328.9248	1375.3811	1409.0974	1484.9364	2339.2626	3140.812	3209.7567	3221.9443	3238.668	3472.8167	3777.7301
OC12CC1C1NC21C#N	O[C@]12C[C@H]1[C@H]1N[C@@]21C#N	
InChI=1S/C6H6N2O/c7-2-5-4(8-5)3-1-6(3,5)9/h3-4,8-9H,1H2	InChI=1S/C6H6N2O/c7-2-5-4(8-5)3-1-6(3,5)9/h3-4,8-9H,1H2/t3-,4+,5+,6+/m0/s1
