17
gdb 111084	2.41902	1.48021	1.20028	1.8685	67.04	-0.2377	-0.027	0.2107	1072.6546	0.136062	-458.940139	-458.932239	-458.931295	-458.973144	29.892	
O	 0.0468202996	 1.5379139468	-0.0799460508	-0.412394
C	 0.112926298	 0.1204340538	-0.1259225574	-0.119956
C	-1.2673548167	-0.5104999034	-0.0009429134	-0.006605
C	-1.5097585062	-2.0401550691	 0.1344138941	 0.03987
C	-0.6549034234	-2.4976939547	 1.3312915389	-0.3463
C	-1.0399973172	-1.3194720737	 2.2557310079	 0.437678
O	-0.6507603752	-1.0391827806	 3.3545793141	-0.323675
C	-2.042376915	-0.5850353933	 1.3482393537	-0.064529
O	-2.7762155187	-1.730272528	 0.8094327209	-0.295146
H	-0.1447426276	 1.7987485837	 0.826605052	 0.29176
H	 0.5347727171	-0.1288165407	-1.1059260389	 0.119989
H	 0.8088090864	-0.2678963806	 0.631340881	 0.103203
H	-1.9384749841	-0.1005517201	-0.7591615585	 0.109022
H	-1.6134208413	-2.7009901093	-0.72510341	 0.09488
H	-1.0045217541	-3.4527866242	 1.7306725107	 0.141927
H	 0.4239506148	-2.5551193574	 1.1648435505	 0.128672
H	-2.6541806165	 0.2115227108	 1.7664274555	 0.101603
54.2887	129.6843	175.0328	254.197	303.1336	385.2666	438.5315	458.1634	563.4357	619.638	650.8351	765.5372	788.4951	852.3242	859.1369	898.7881	956.482	962.4144	997.4114	1022.3727	1063.9271	1105.3706	1117.8434	1127.4036	1157.3074	1200.0045	1209.6468	1244.1225	1276.4086	1291.5873	1316.5394	1351.3558	1404.4844	1422.2232	1450.9696	1503.8836	1879.3203	3002.9714	3067.7882	3072.1244	3096.9913	3123.1249	3131.2178	3153.8363	3818.7213
OCC1C2CC(=O)C1O2	OC[C@H]1[C@H]2CC(=O)[C@@H]1O2	
InChI=1S/C6H8O3/c7-2-3-5-1-4(8)6(3)9-5/h3,5-7H,1-2H2	InChI=1S/C6H8O3/c7-2-3-5-1-4(8)6(3)9-5/h3,5-7H,1-2H2/t3-,5+,6+/m0/s1
