18
gdb 70690	2.2673	1.96574	1.27828	1.8609	72.91	-0.2596	0.0133	0.2729	1015.2561	0.148615	-439.084309	-439.076333	-439.075389	-439.116781	30.77	
C	 0.0876793341	 1.5063900197	 0.0074173623	-0.454897
C	 0.0551603937	-0.0079738588	-0.0106350554	 0.201764
C	-0.85834966	-0.7161333657	 0.9922743409	-0.326315
C	 0.6262170792	-0.7866848665	 1.1559291084	 0.04669
O	 1.2216963834	-2.0314347964	 0.8855593718	-0.233008
C	 1.8003911437	-2.057252803	-0.3787915817	-0.003378
O	 0.8409185245	-1.8418715961	-1.4115952545	-0.24783
C	 0.1858150559	-0.6360016729	-1.361631074	 0.340835
N	-0.3072668502	-0.0998108662	-2.3954398975	-0.522729
H	 1.0291546177	 1.8868623671	-0.4011885559	 0.122446
H	-0.7255936874	 1.9067012961	-0.602120091	 0.15196
H	-0.020288877	 1.8832936074	 1.0290345023	 0.109226
H	-1.4354029939	-0.0838778755	 1.6578219696	 0.12111
H	-1.3459820216	-1.6313002258	 0.6778737225	 0.136982
H	 1.1132785969	-0.2395062988	 1.9593967508	 0.103569
H	 2.5967380746	-1.3025871138	-0.470607825	 0.1002
H	 2.2003230017	-3.0589078031	-0.5401277542	 0.13094
H	-0.1079952854	-0.6744665779	-3.2166004494	 0.222436
74.2166	173.3764	204.4621	254.8545	296.2937	343.0079	422.3278	441.022	491.9057	555.5877	630.372	702.3765	781.1658	807.7335	868.0884	898.4716	910.7984	964.4163	994.2113	1027.3766	1044.2558	1058.2912	1094.7178	1108.4204	1126.1466	1171.4178	1206.7275	1237.9415	1298.5367	1303.5366	1360.5799	1403.9551	1415.5642	1454.4092	1476.9725	1483.7635	1501.1041	1519.5577	1750.5876	2985.5548	3040.2109	3106.2395	3128.4222	3131.5804	3135.5448	3142.4646	3236.7486	3469.0538
CC12CC1OCOC2=N	C[C@]12C[C@H]1OCO[C]2[NH]	
InChI=1S/C6H9NO2/c1-6-2-4(6)8-3-9-5(6)7/h4,7H,2-3H2,1H3	InChI=1S/C6H9NO2/c1-6-2-4(6)8-3-9-5(6)7/h4,7H,2-3H2,1H3/t4-,6+/m1/s1
