15
gdb 55256	2.93015	1.77571	1.44721	2.7472	59.56	-0.2542	0.0054	0.2595	903.9034	0.114741	-491.115193	-491.108086	-491.107142	-491.146528	28.047	
O	-1.3950149399	 0.3538242117	-0.7554811351	-0.290674
C	-0.4791988053	 1.1913753516	-0.2053794686	 0.44715
O	 0.6988614232	 0.9930484756	-0.150008619	-0.347543
C	-1.3059479406	 2.4089147556	 0.2321566993	-0.122982
C	-1.7093931555	 3.1616762852	-1.0612489783	-0.185224
N	-2.6586310224	 2.1832052574	-1.6592792182	-0.33534
C	-2.6993016255	 1.1189356376	-0.6719253192	 0.528608
N	-3.7980811548	 0.270854904	-0.7512145259	-0.605013
H	-4.2088421186	 0.2540868543	-1.6732208401	 0.255142
H	-3.5946855736	-0.6602889951	-0.4134165692	 0.260811
O	-2.5518781067	 1.7752999847	 0.556730933	-0.2315
H	-0.9047982365	 2.9889044618	 1.057708857	 0.123533
H	-2.2267669318	 4.0924260297	-0.8137911022	 0.132678
H	-0.8629115175	 3.3821909969	-1.7159166761	 0.131969
H	-2.3045209645	 1.8198738289	-2.5379028673	 0.238385
148.4495	160.6757	256.504	322.4676	368.0096	451.4222	506.8278	547.5766	637.4513	662.2487	679.1823	702.3584	787.65	813.1793	838.0358	881.3348	901.4967	926.4509	1002.858	1029.1168	1032.8775	1068.6085	1196.098	1214.7097	1250.8204	1273.94	1316.2766	1373.0024	1380.701	1455.6508	1508.2591	1642.5293	1897.747	3061.5596	3114.6446	3182.0774	3539.2953	3567.0652	3666.455
[O-]C(=O)C1CNC(=[NH2+])O1	O1C(=O)[C@H]2CN[C@]1(N)O2	
InChI=1S/C4H6N2O3/c5-4-6-1-2(9-4)3(7)8/h2H,1H2,(H2,5,6)(H,7,8)	InChI=1S/C4H6N2O3/c5-4-6-1-2(8-4)3(7)9-4/h2,6H,1,5H2/t2-,4-/m1/s1
