21
gdb 118279	2.71017	0.70117	0.58167	2.1067	82.26	-0.2542	0.0603	0.3145	1913.8374	0.178726	-424.179051	-424.167925	-424.166981	-424.216293	39.095	
C	 0.9345518638	 1.1696877826	-0.0604748529	-0.224535
O	 0.9377282098	-0.2211642866	-0.2792517952	-0.231872
C	-0.1620855532	-0.6648407711	-1.0388991358	-0.081489
C	-0.06783613	-2.1823282803	-1.2128285429	 0.091961
O	-1.252064792	-2.6684034773	-1.8382311324	-0.432472
C	 1.1982098467	-2.6060356044	-1.9587511634	-0.191894
C	 1.3421978843	-4.1381502145	-2.0426956158	-0.357003
C	 2.4950569493	-4.5584431623	-2.8284828956	 0.292505
C	 3.4503289268	-4.8783236436	-3.4845691526	-0.441197
H	 0.9836052819	 1.7314723832	-1.0066756508	 0.105354
H	 0.0342731444	 1.4940595859	 0.4844753789	 0.106909
H	 1.8163255404	 1.4088818962	 0.5386571121	 0.129572
H	-1.1145485846	-0.4211398071	-0.5419196485	 0.097362
H	-0.1740871533	-0.1756016579	-2.0315397521	 0.072062
H	-0.0695608799	-2.6360666927	-0.2143624047	 0.099776
H	-1.2655191536	-2.3331005721	-2.7422302355	 0.280283
H	 1.1747396638	-2.1868924832	-2.9745697437	 0.092969
H	 2.0678580093	-2.1691000063	-1.4603576036	 0.131912
H	 1.4199655631	-4.5506480991	-1.0280455217	 0.129898
H	 0.4243179335	-4.5583725851	-2.4697316885	 0.138829
H	 4.2918243295	-5.1749104242	-4.0596931452	 0.191069
53.5845	74.9615	87.5651	108.2816	133.87	192.2185	233.9666	247.0029	313.8623	324.9129	347.0062	406.21	473.0461	528.2541	540.2008	612.3019	632.4565	770.4547	875.1181	948.9631	970.9695	997.7559	1037.9469	1067.9593	1104.7695	1130.9964	1162.2534	1175.7582	1183.0324	1226.7254	1238.3964	1272.0484	1291.056	1330.0173	1354.5509	1390.3277	1409.6385	1421.1706	1474.7455	1480.6511	1485.87	1492.7329	1502.6289	1525.7253	2238.5406	2926.8081	2972.2342	2993.4283	3014.0911	3017.5056	3025.6035	3050.3152	3062.0285	3103.2417	3116.212	3508.0876	3791.3846
COCC(O)CCC#C	COC[C@@H](O)CCC#C	
InChI=1S/C7H12O2/c1-3-4-5-7(8)6-9-2/h1,7-8H,4-6H2,2H3	InChI=1S/C7H12O2/c1-3-4-5-7(8)6-9-2/h1,7-8H,4-6H2,2H3/t7-/m0/s1
