15
gdb 47295	3.63889	1.31145	1.01459	1.7279	63.53	-0.2698	-0.0068	0.263	1098.5701	0.114955	-491.120446	-491.112822	-491.111877	-491.153173	28.022	
N	 0.0213555001	 1.2706936983	 0.5452722975	-0.482569
C	 0.0473082172	 0.1070574048	 0.0546804599	 0.387959
C	-1.2454073336	-0.6365896543	-0.2003515047	-0.23903
N	-1.3537026837	-1.2716294814	-1.516703747	-0.354568
C	-0.7256596408	-2.458746433	-1.810358978	 0.42236
O	-1.1544489182	-3.3145295444	-2.5329666554	-0.351691
O	 0.4960093162	-2.5896019004	-1.1873320545	-0.222459
C	 1.3522931461	-1.4685357136	-1.2134239993	 0.007684
O	 1.2159064521	-0.5843391757	-0.1165851812	-0.236815
H	 0.9731465237	 1.600473898	 0.7222190493	 0.229123
H	-1.367657516	-1.3792598493	 0.6003605793	 0.146166
H	-2.0467787751	 0.094638562	-0.1096418495	 0.154308
H	-2.2641895375	-1.2122684851	-1.9483831242	 0.266916
H	 2.3654537395	-1.8602972305	-1.128879628	 0.144713
H	 1.22096762	-0.9198479554	-2.1525800942	 0.127903
64.7502	115.2013	195.2311	288.5019	320.3214	369.3576	418.9985	525.143	550.6157	613.6197	707.7482	746.4043	809.2931	820.6869	864.9181	941.1645	997.9279	1007.3968	1035.7393	1116.6156	1143.5788	1179.2076	1266.0576	1294.8456	1331.9504	1367.8796	1385.1251	1456.0596	1467.8284	1482.2987	1506.5194	1758.6059	1868.8158	3014.7232	3045.2098	3146.3305	3153.1492	3461.6077	3619.9446
N=C1CNC(=O)OCO1	[NH][C]1CNC(=O)OCO1	
InChI=1S/C4H6N2O3/c5-3-1-6-4(7)9-2-8-3/h5H,1-2H2,(H,6,7)	InChI=1S/C4H6N2O3/c5-3-1-6-4(7)9-2-8-3/h5H,1-2H2,(H,6,7)
