21
gdb 111164	3.77667	1.04898	0.95569	1.3391	84.42	-0.2598	0.0764	0.3362	1312.1517	0.182922	-387.00691	-386.998477	-386.997533	-387.039981	33.244	
O	 0.2394072476	 0.5616944183	 1.0885171138	-0.42181
C	-0.0981466119	 0.3670538764	-0.2814918632	-0.145862
C	-1.4340602432	-0.3478400142	-0.310197031	 0.082818
C	-1.9787623532	-1.0268977582	-1.6114817507	-0.163553
C	-0.965707782	-2.1929716548	-1.3806570906	-0.235791
C	-1.5589919131	-1.8735737714	 0.0268742823	-0.133822
C	-2.9279766965	-1.8067045742	-0.678961839	 0.479437
C	-4.3056040617	-1.5373127515	-0.1880379336	-0.374811
C	-3.9751376847	-2.8290477143	-0.9421233126	-0.382285
H	 1.0652186019	 1.0529830698	 1.1257851834	 0.285301
H	-0.2019286825	 1.3330361238	-0.8033683118	 0.082643
H	 0.6872323531	-0.1980010766	-0.8016210685	 0.085281
H	-2.1731614202	 0.2704181817	 0.208996683	 0.074765
H	-2.2332160108	-0.5417449146	-2.5560483944	 0.065959
H	-1.2441622807	-3.1586733477	-1.8084013654	 0.094316
H	 0.0923247532	-1.9838617649	-1.5424984869	 0.088795
H	-1.3252424623	-2.359250013	 0.974713541	 0.074815
H	-4.508320197	-1.6140048264	 0.8758903084	 0.112891
H	-4.9126825698	-0.7977007362	-0.7014061119	 0.110014
H	-4.3652938391	-2.9358219429	-1.9498937691	 0.109807
H	-3.962163347	-3.7538916592	-0.3731963932	 0.111093
73.2787	133.255	185.3791	254.2097	259.3584	297.0976	364.2457	417.1516	486.123	607.1885	640.8645	746.2009	779.2969	791.8773	840.1724	895.1742	896.2799	922.8964	948.6775	989.9552	1019.5067	1025.4744	1044.8074	1058.2331	1069.809	1076.1407	1081.3365	1115.4742	1127.8553	1155.1316	1174.6364	1179.9151	1194.9935	1207.1241	1228.5898	1253.3917	1259.7677	1276.6288	1396.5182	1412.7604	1462.4636	1466.0429	1506.1501	1519.8959	1536.9386	2963.581	3014.5109	3062.7072	3070.5926	3092.2742	3112.0443	3116.9628	3120.8689	3133.6014	3192.9129	3207.1296	3828.2029
OCC1C2CC1C21CC1	OC[C@H]1[C@H]2C[C@@H]1C12CC1	
InChI=1S/C8H12O/c9-4-5-6-3-7(5)8(6)1-2-8/h5-7,9H,1-4H2	InChI=1S/C8H12O/c9-4-5-6-3-7(5)8(6)1-2-8/h5-7,9H,1-4H2/t5-,6+,7-
