17
gdb 133847	3.71382	1.84662	1.78505	3.0836	74.43	-0.2064	-0.0116	0.1949	837.8578	0.136054	-384.564965	-384.558235	-384.557291	-384.595538	27.796	
C	 6.3513173788	 0.0158600715	 0.3452962989	-0.514887
C	 5.0116394429	-0.1705103164	-0.2899111969	 0.339196
C	 3.6076186164	 0.3129248902	 0.366990511	-0.099863
C	 4.0636483057	 0.7799691698	-0.9757657155	-0.151228
C	 3.458157326	-0.3656689757	-1.8374683476	 0.013631
O	 2.1996120462	-0.6554776011	-1.2689147096	-0.247668
C	 2.6212011086	-0.8287149198	 0.0918108719	 0.059031
C	 3.8191626319	-1.7416790765	 0.1695149387	-0.171682
C	 4.464689129	-1.356139108	-1.1137129225	-0.12263
H	 7.1402862757	 0.0442888145	-0.4145519905	 0.127447
H	 6.5688488927	-0.8024518354	 1.0362585479	 0.154169
H	 6.3931092846	 0.95630324	 0.9048337444	 0.123901
H	 3.6564718485	 0.8962014407	 1.2735355523	 0.116642
H	 4.2292706097	 1.8224328265	-1.2129361843	 0.106499
H	 3.4104850376	-0.2795561198	-2.9190282855	 0.085798
H	 1.7758629306	-0.968336456	 0.7556586389	 0.091702
H	 5.1485067051	-2.0160391745	-1.6341477115	 0.089944
173.9955	218.555	261.754	296.8969	395.168	550.4594	568.1276	645.3542	710.5371	756.7892	804.0913	817.2447	849.2046	861.0893	877.9328	925.7499	931.0916	955.8397	980.8149	1003.962	1030.3585	1047.2233	1060.4924	1076.7555	1102.3575	1126.5471	1155.7555	1170.3606	1225.5697	1229.1589	1257.8685	1287.6816	1323.4065	1396.3359	1421.9517	1483.5122	1495.8321	3032.4645	3093.2567	3120.1147	3169.1909	3189.2664	3193.0175	3206.2245	3241.6146
CC12C3C1C1OC3C2=C1	C[C@@]12[C@H]3[C@@H]1[C@@H]1O[C@H]3[C][C@H]21	
InChI=1S/C8H8O/c1-8-3-2-4-5(8)6(8)7(3)9-4/h2,4-7H,1H3	InChI=1S/C8H8O/c1-8-3-2-4-5(8)6(8)7(3)9-4/h3-7H,1H3/t3-,4-,5+,6+,7+,8+/m0/s1
