21
gdb 118553	1.63344	1.08193	0.71843	3.1887	76.89	-0.2756	0.001	0.2766	1629.0874	0.179825	-461.389318	-461.378522	-461.377577	-461.426591	37.364	
C	 0.0460272093	 1.4908606339	-0.0154706941	-0.381002
C	-0.01840253	-0.037951639	-0.0664883804	-0.183616
C	-1.450371193	-0.5703499668	 0.046656996	-0.162013
C	-1.5548549677	-2.0928061866	 0.0371102353	 0.062486
C	-2.9935070039	-2.6083697043	 0.1360601515	-0.067575
O	-3.795297443	-2.1630405122	-0.9366806177	-0.413436
O	-1.0283266753	-2.5844458323	-1.2212568989	-0.205091
C	-0.085776534	-3.5460854177	-1.2050725633	 0.171318
O	 0.3458533939	-4.0448086317	-2.2001890605	-0.273767
H	 1.0769433391	 1.8469341792	-0.1016061338	 0.116465
H	-0.5305141706	 1.9371736782	-0.8328397507	 0.120526
H	-0.3626970876	 1.8754373876	 0.9255558564	 0.114581
H	 0.4257150173	-0.3930805916	-1.0029871562	 0.117456
H	 0.5928292202	-0.4574298885	 0.744578016	 0.090565
H	-1.9045191888	-0.2174309608	 0.9818510266	 0.100917
H	-2.0721481455	-0.1787254201	-0.7652108608	 0.122139
H	-0.9614769344	-2.5199613675	 0.8585726596	 0.084257
H	-2.9746480437	-3.7082960056	 0.1978452934	 0.093239
H	-3.454056742	-2.23113007	 1.0551889486	 0.115613
H	-3.3602561297	-2.4511514348	-1.7479535345	 0.296552
H	 0.2402576794	-3.8093755295	-0.1799441124	 0.080387
42.6429	74.1825	93.6526	102.2762	141.6562	171.6303	237.7779	250.5558	312.6469	317.6838	340.9361	431.3064	511.343	590.6501	689.2489	753.6298	868.695	895.7533	908.3248	947.4472	993.5666	1046.2764	1047.1024	1076.8364	1091.173	1143.1376	1154.2356	1202.7515	1234.5591	1262.799	1285.1468	1328.2903	1346.2252	1372.4869	1391.1538	1410.472	1415.3088	1425.9526	1437.9662	1480.2007	1493.9623	1496.7951	1499.1332	1510.8961	1863.5474	2948.5324	2977.0612	3006.9845	3014.4853	3028.6589	3032.4555	3063.0085	3078.5146	3087.4674	3101.4398	3106.9088	3796.6752
CCCC(CO)OC=O	CCC[C@@H](CO)OC=O	
InChI=1S/C6H12O3/c1-2-3-6(4-7)9-5-8/h5-7H,2-4H2,1H3	InChI=1S/C6H12O3/c1-2-3-6(4-7)9-5-8/h5-7H,2-4H2,1H3/t6-/m0/s1
