13
gdb 125556	5.63371	1.35757	1.1015	7.8547	65.63	-0.2681	-0.0274	0.2407	1015.0284	0.091668	-445.079822	-445.07308	-445.072135	-445.111061	24.988	
C	-0.0217927612	 1.4439383611	-0.0113527268	-0.504017
C	-0.0016214488	-0.0428643689	-0.0173399524	 0.395983
N	-0.0572155726	-0.7781499211	-1.1029331122	-0.279129
N	-0.0089085979	-2.0513678631	-0.6037728695	 0.113824
N	-0.0213519097	-3.3077334061	-1.0980925467	-0.152705
N	 0.0532635675	-4.0657593132	-0.0410897294	-0.100095
N	 0.1153079738	-3.3641241595	 1.137679943	-0.359006
C	 0.0733518735	-2.1125242334	 0.7357173819	 0.537872
N	 0.0795269414	-0.8041634712	 1.1404248805	-0.439722
H	 0.8900690391	 1.8496199208	 0.4391548086	 0.155328
H	-0.0939646551	 1.7987310692	-1.0395810129	 0.179652
H	-0.8778256414	 1.8252227105	 0.5550341509	 0.155098
H	 0.1322449616	-0.465188875	 2.0852236749	 0.296916
122.26	149.242	285.785	321.1983	358.196	437.1124	508.6906	586.726	670.466	696.0836	766.4346	814.0312	844.0733	978.0754	981.262	1030.9483	1066.4836	1091.7207	1157.2758	1240.7676	1290.5452	1332.0515	1404.3783	1432.8078	1469.4738	1477.6322	1495.6552	1597.1164	1634.6551	3045.1378	3102.4054	3160.6544	3688.1737
CC1=NN2N=NN=C2N1	Cc1nn2nnnc2[nH]1	
InChI=1S/C3H4N6/c1-2-4-3-5-7-8-9(3)6-2/h1H3,(H,4,5,6,8)	InChI=1S/C3H4N6/c1-2-4-3-5-7-8-9(3)6-2/h1H3,(H,4,5,6,8)
