16
gdb 16457	3.30095	2.90657	1.89862	1.3006	68.15	-0.223	0.0039	0.2268	722.6217	0.131569	-346.542904	-346.536837	-346.535893	-346.572481	25.663	
O	-0.0743060488	 1.4061869487	 0.0729426284	-0.492225
C	 0.0110509798	 0.0164106458	 0.0492235961	 0.405141
C	 0.9163830433	-0.7150386553	 1.0387895597	-0.198499
C	 0.6891600542	-2.0019686443	 0.7769713254	-0.099736
C	-0.3348104684	-1.9672896297	-0.3483241727	-0.065994
C	-1.3308219561	-0.7870148042	-0.0379545586	-0.065887
C	-1.4285095288	-0.4694401691	-1.5499506376	-0.259395
C	 0.0652161863	-0.7933180153	-1.3128040591	-0.105337
H	 0.7971517539	 1.7672828349	-0.1201159595	 0.282342
H	 1.5585714789	-0.2469216463	 1.7720161016	 0.101144
H	 1.107180911	-2.8861846942	 1.2372057976	 0.105145
H	-0.7256285015	-2.8912970675	-0.7720675771	 0.068144
H	-2.1259899781	-0.7900321084	 0.7119809441	 0.070381
H	-1.990885427	-1.1786598178	-2.1630063551	 0.085914
H	-1.665886532	 0.5629362635	-1.8110743921	 0.105924
H	 0.8860004633	-0.8028486707	-2.0361353313	 0.062938
247.224	314.0693	333.6111	404.7005	453.1851	508.202	644.4762	678.4985	702.1507	759.4981	793.3936	834.0187	898.0457	902.1821	906.2433	915.0497	951.5418	1022.1491	1035.4671	1056.1074	1074.5505	1086.2157	1114.2065	1129.373	1185.2422	1197.9798	1221.7858	1238.9129	1269.0425	1291.711	1328.7507	1358.6374	1509.0922	1637.949	3058.9434	3071.794	3086.4253	3129.8915	3130.1857	3216.6874	3244.2219	3810.8648
OC12C=CC3C1CC23	O[C@@]12C=C[C@H]3[C@@H]1C[C@@H]23	
InChI=1S/C7H8O/c8-7-2-1-4-5(7)3-6(4)7/h1-2,4-6,8H,3H2	InChI=1S/C7H8O/c8-7-2-1-4-5(7)3-6(4)7/h1-2,4-6,8H,3H2/t4-,5-,6+,7-
