15
gdb 123663	4.06812	1.59323	1.25128	4.0818	70.88	-0.2101	-0.0033	0.2068	949.7366	0.115932	-416.771531	-416.765365	-416.764421	-416.801872	25.492	
C	 0.0162676384	 1.488361603	 0.1003576297	-0.301886
C	 1.3174890684	 0.7359614649	-0.0131084462	-0.005522
N	 2.0732673347	 0.3914584692	 1.191948015	-0.420711
C	 1.218342008	-0.3840741164	 1.9878859624	 0.142678
C	 1.1149745257	-1.04590419	 3.1636401784	-0.058737
O	-0.0553375364	-1.750722877	 3.165866339	-0.186469
N	-0.7394855362	-1.545031838	 1.9634711502	-0.257602
C	 0.0261632883	-0.7283381893	 1.2958447236	 0.405107
C	-0.0054510379	-0.031632367	-0.0083333881	-0.180342
H	-0.2549480163	 1.9346077068	 1.0509908056	 0.127379
H	-0.3118556782	 2.0391964039	-0.7741710123	 0.125073
H	 1.9119234811	 0.8339260667	-0.9142622295	 0.108291
H	 2.5304898271	 1.1732889618	 1.6431959202	 0.243238
H	 1.7137972896	-1.1381678172	 4.0540864207	 0.142113
H	-0.4096533063	-0.5036068615	-0.8939654887	 0.11739
172.1081	261.7757	382.3044	431.6426	466.3478	570.716	580.657	654.5099	707.352	751.5809	767.4836	803.7067	809.1832	837.5195	899.2655	948.0324	965.5109	988.6756	1031.5945	1058.6132	1084.5138	1095.7588	1131.9437	1187.264	1196.6004	1276.6157	1310.8177	1353.607	1379.0886	1446.2007	1474.5923	1580.0377	1696.9695	3134.5593	3174.5492	3203.7785	3226.8588	3281.0126	3564.8361
C1C2NC3=CON=C3C12	C1[C@H]2Nc3conc3[C@@H]12	
InChI=1S/C6H6N2O/c1-3-4(1)7-5-2-9-8-6(3)5/h2-4,7H,1H2	InChI=1S/C6H6N2O/c1-3-4(1)7-5-2-9-8-6(3)5/h2-4,7H,1H2/t3-,4+/m0/s1
