18
gdb 46378	3.68725	0.99574	0.86344	1.7683	74.01	-0.2522	0.0154	0.2677	1356.1424	0.147179	-439.049352	-439.040892	-439.039948	-439.08347	31.06	
N	-0.3351924911	 0.9230546088	-0.8769442856	-0.543558
C	-0.189480744	-0.1694837969	-0.2809124272	 0.424572
O	 0.9420800486	-0.805436394	 0.1858330277	-0.25359
C	 0.1490459719	-1.8706774369	 0.8020272677	-0.115101
C	-1.1381519276	-1.2561022538	 0.2253059421	-0.006191
O	-2.0704726974	-0.8894163753	 1.2029046839	-0.26062
C	-3.1954499426	-0.2336752612	 0.6751310518	 0.132049
C	-4.333619614	-1.0698672293	 0.1491423851	-0.288495
C	-4.4464439065	-0.347007077	 1.4786052105	-0.288222
H	 0.5573548492	 1.4018656139	-1.0123081543	 0.230897
H	 0.4477981739	-2.8516837159	 0.4281737036	 0.123589
H	 0.2046095985	-1.8257107957	 1.8914788365	 0.13491
H	-1.6059489863	-1.8327513426	-0.5832336467	 0.102394
H	-2.9637271555	 0.7039448146	 0.176781078	 0.126166
H	-4.8984086115	-0.7025205726	-0.7002688146	 0.119237
H	-4.2154245569	-2.1471578286	 0.1888530163	 0.117412
H	-4.3914102427	-0.9552676746	 2.3741425612	 0.125591
H	-5.090719546	 0.521245207	 1.5545543241	 0.118961
63.7154	74.9591	110.1373	176.9974	239.1482	340.2128	399.7106	451.5452	479.2517	686.2617	740.0463	756.2113	810.0941	826.3607	864.8381	876.6727	943.9042	961.7305	977.622	990.7109	1016.2409	1051.1818	1074.4723	1098.8114	1141.607	1148.3881	1176.0419	1193.6043	1195.3785	1231.633	1244.0703	1258.1753	1333.5615	1375.0751	1415.8342	1454.326	1497.7095	1506.6723	1823.7599	3025.772	3074.7923	3136.4977	3140.9886	3142.3146	3149.7	3221.0944	3236.113	3470.0542
N=C1OCC1OC1CC1	[NH][C]1OC[C@H]1OC1CC1	
InChI=1S/C6H9NO2/c7-6-5(3-8-6)9-4-1-2-4/h4-5,7H,1-3H2	InChI=1S/C6H9NO2/c7-6-5(3-8-6)9-4-1-2-4/h4-5,7H,1-3H2/t5-/m1/s1
