16
gdb 43840	3.16671	1.57528	1.22689	4.9663	69.26	-0.2628	0.0136	0.2764	1009.0751	0.124999	-437.884621	-437.877518	-437.876573	-437.916252	27.837	
O	-0.0589352604	 0.0352250262	-0.0298032723	-0.336882
C	-0.0099445338	 1.2236661179	 0.0080193238	 0.433514
O	-1.1195540101	 2.0095947278	 0.1757577341	-0.260318
C	-0.7703996645	 3.3842459604	 0.1107760408	 0.445273
C	-1.6475166853	 4.2838009104	-0.7012802742	-0.332557
C	-1.6589129464	 4.3556941206	 0.8179261438	-0.330973
C	 0.7295218521	 3.4202397183	 0.0669992805	-0.121505
C	 1.4654046919	 2.7408276048	 1.1565684681	-0.262969
N	 1.1725357974	 2.0267171803	-0.1187188429	-0.169989
H	-1.1796088651	 5.0887653158	-1.258673481	 0.124977
H	-2.502732847	 3.8261691875	-1.184742003	 0.140886
H	-2.5231415497	 3.9463991415	 1.3282696312	 0.140138
H	-1.1996377201	 5.2084888215	 1.3060475222	 0.126645
H	 1.2137152091	 4.1716374738	-0.5479549889	 0.118733
H	 2.5191301605	 2.945869047	 1.3108290632	 0.139986
H	 0.9142545815	 2.4365569962	 2.0420940047	 0.145041
96.3957	175.4754	254.1242	274.9742	361.784	472.7448	523.0513	543.6641	682.3972	746.8062	773.0755	780.6648	818.3427	865.6367	900.4302	939.0488	947.636	969.3843	1008.3952	1039.873	1057.6251	1077.7502	1082.3157	1101.5767	1127.069	1166.1318	1188.0845	1260.512	1294.0075	1313.3413	1420.3872	1451.1206	1501.6142	1504.8753	1908.2151	3122.5303	3134.6132	3138.4811	3167.606	3218.3295	3222.5252	3235.7685
O=C1OC2(CC2)C2CN12	O=C1OC2(CC2)[C@H]2CN12	
InChI=1S/C6H7NO2/c8-5-7-3-4(7)6(9-5)1-2-6/h4H,1-3H2	InChI=1S/C6H7NO2/c8-5-7-3-4(7)6(9-5)1-2-6/h4H,1-3H2/t4-,7?/m1/s1
