18
gdb 48418	2.5592	1.25804	0.97969	2.9661	73.51	-0.2384	-0.033	0.2054	1239.5091	0.145341	-439.030913	-439.022026	-439.021082	-439.065299	32.045	
O	-0.9650889111	 0.8200139562	 0.2252003131	-0.248161
C	 0.231028884	 0.7192287746	 0.1565065876	 0.12835
C	 1.1627682557	 1.8667113404	-0.1148553233	 0.312458
C	 0.5968749695	 3.0731472258	-0.8259140112	-0.244375
N	 0.294227377	 2.7325360802	-2.2085056665	-0.062703
C	 0.1897016326	 3.8486977746	-3.1405668755	-0.222809
C	 1.3674660926	 2.9382854352	-3.1763959546	-0.207492
C	 2.3132884783	 1.9802773329	 0.8105267854	-0.222685
O	 2.4845879413	 1.449010796	-0.492138505	-0.257288
H	 0.7649559012	-0.2446701562	 0.3152732419	 0.088797
H	-0.3371345741	 3.3556244093	-0.3284697728	 0.131014
H	 1.3048446971	 3.9159271368	-0.7386940127	 0.084005
H	-0.5984796664	 3.7693053017	-3.8834530433	 0.121684
H	 0.3504032581	 4.8541066757	-2.7534959275	 0.108035
H	 2.3150015935	 3.3269508147	-2.8094362605	 0.115711
H	 1.4564541715	 2.1790319949	-3.9475028393	 0.120803
H	 2.7381596295	 2.967332373	 0.9869460257	 0.128622
H	 2.4267204596	 1.2690292741	 1.6281393685	 0.126035
64.3632	78.0967	130.9528	148.278	225.7224	319.756	333.9463	377.5062	393.134	485.6904	556.8618	767.2399	796.2808	833.5002	862.6245	886.8502	909.3355	954.4992	1010.1035	1032.8407	1038.6962	1064.2772	1116.475	1117.7549	1133.4403	1161.436	1171.9853	1179.1279	1257.7194	1319.5541	1326.0515	1342.4643	1383.3587	1433.6322	1467.8197	1493.8265	1520.3725	1524.1073	1834.2641	2887.7149	2946.687	3075.8522	3082.056	3094.6773	3107.2364	3171.112	3181.0337	3197.1885
O=CC1(CN2CC2)CO1	O=C[C@@]1(CN2CC2)CO1	
InChI=1S/C6H9NO2/c8-4-6(5-9-6)3-7-1-2-7/h4H,1-3,5H2	InChI=1S/C6H9NO2/c8-4-6(5-9-6)3-7-1-2-7/h4H,1-3,5H2/t6-/m0/s1
