17
gdb 107900	3.58279	1.23902	1.17086	3.7481	72.11	-0.2278	-0.0027	0.2251	1112.3344	0.134656	-421.779734	-421.771856	-421.770912	-421.812377	30.07	
C	 0.215017315	 1.4844338444	 0.0762669765	-0.379241
C	-0.0928545094	 0.0073079351	-0.2005975297	-0.311275
C	 0.7092271611	-0.537464625	-1.3376300391	 0.51057
O	 0.506478538	 0.0134847904	-2.6523704627	-0.326451
C	 1.2513527974	-1.1237949881	-3.1647517515	-0.084331
C	 1.0356993581	-1.8986585255	-1.8168589491	-0.21975
C	 2.1797536934	-0.9816791217	-1.2432067623	-0.308277
C	 2.6926261314	-0.8647134607	-2.6451940664	 0.484158
O	 3.7749730453	-0.831778606	-3.1543523244	-0.333504
H	 1.2597569151	 1.6206918738	 0.371942138	 0.124387
H	 0.0378342217	 2.0883722499	-0.817719875	 0.143577
H	-0.4197848097	 1.8674343568	 0.8798971307	 0.117039
H	 0.1070566604	-0.6033050347	 0.6876910901	 0.111238
H	-1.1551002078	-0.1187109868	-0.4406926204	 0.120528
H	 1.0053905174	-1.4193634091	-4.180760634	 0.107524
H	 0.7838339473	-2.9134544518	-1.5469573083	 0.128007
H	 2.7167053055	-1.0898622011	-0.3111336524	 0.115802
84.3669	111.7879	191.5278	205.9891	297.0704	381.123	459.5756	531.9655	556.0375	690.3281	723.7992	766.5716	792.9109	797.8642	819.1482	857.8381	910.8488	933.6097	955.6048	970.0153	1015.5916	1046.8694	1079.4456	1100.6384	1111.6924	1136.3925	1189.6905	1216.138	1255.6145	1307.901	1347.7161	1411.5987	1456.568	1473.1178	1497.0951	1509.6441	1889.6636	3036.2206	3045.6257	3073.2435	3116.6361	3125.3791	3172.1392	3222.9656	3231.7738
CCC12OC3C1C2C3=O	CC[C@]12O[C@@H]3[C@H]1[C@H]2C3=O	
InChI=1S/C7H8O2/c1-2-7-3-4(7)6(9-7)5(3)8/h3-4,6H,2H2,1H3	InChI=1S/C7H8O2/c1-2-7-3-4(7)6(9-7)5(3)8/h3-4,6H,2H2,1H3/t3-,4+,6+,7+/m0/s1
