17
gdb 68800	2.82042	1.34319	1.10681	5.7811	73.66	-0.2316	0.0057	0.2373	1132.1251	0.134479	-417.973031	-417.96399	-417.963046	-418.006627	33.376	
C	-0.035968614	 1.5001690564	 0.0147576713	-0.495564
C	 0.0558037813	 0.0128721031	 0.0655496494	 0.424791
C	 1.1995885507	-0.8549437859	-0.3752557747	-0.379041
C	 0.6625625115	-1.006751911	 1.0320692437	 0.194577
N	 1.4360320821	-0.9807247471	 2.2136528441	-0.608108
C	-0.7081339293	-1.6996267121	 0.9353519803	-0.035241
O	-1.1717710107	-0.7346556984	-0.0403993725	-0.323477
C	-0.7521751465	-3.0818181437	 0.45438258	 0.279623
N	-0.7591486413	-4.1751936979	 0.0796568048	-0.327792
H	 0.93725315	 1.9482643526	 0.2359596608	 0.126417
H	-0.3414964139	 1.837161493	-0.981969421	 0.144017
H	-0.7677988556	 1.8723855252	 0.7384653957	 0.131927
H	 1.0511377267	-1.6310675201	-1.121400317	 0.138688
H	 2.1623941926	-0.353087128	-0.4181152727	 0.116313
H	 2.4312559963	-0.9812964394	 2.0402473639	 0.245196
H	 1.1999796814	-0.2243240724	 2.8439941862	 0.241731
H	-1.2841634213	-1.6153198243	 1.8640666278	 0.125944
105.0581	122.6661	137.9453	175.5051	208.5045	265.8555	344.4398	364.8116	420.291	469.7856	540.3495	579.3414	639.8624	662.8239	741.574	768.3005	848.2474	931.5875	948.746	960.1712	995.1609	1027.3628	1067.9457	1095.2472	1118.3963	1193.7123	1213.9864	1294.4979	1339.1451	1348.6255	1408.0314	1428.3063	1471.351	1494.195	1510.4588	1654.645	2354.041	3034.4619	3048.0458	3098.7356	3112.2541	3115.926	3203.3301	3535.5694	3630.3655
CC12CC1(N)C(O2)C#N	C[C@@]12C[C@]1(N)[C@@H](O2)C#N	
InChI=1S/C6H8N2O/c1-5-3-6(5,8)4(2-7)9-5/h4H,3,8H2,1H3	InChI=1S/C6H8N2O/c1-5-3-6(5,8)4(2-7)9-5/h4H,3,8H2,1H3/t4-,5+,6-/m0/s1
