23
gdb 104154	2.82209	1.08415	0.95385	1.4819	88.77	-0.2356	0.0197	0.2552	1395.1936	0.204246	-388.318759	-388.308494	-388.30755	-388.353654	38.569	
C	 0.1180001728	 1.5657416984	 0.2837781394	-0.406131
C	-0.0413982176	 0.0646433345	 0.0268273645	-0.20213
C	 0.625882789	-0.4337331581	-1.2671683591	 0.378419
O	 2.0312490915	-0.0960602933	-1.2423571681	-0.484007
C	 0.5441721691	-1.9705261499	-1.4265320741	-0.245009
C	 0.3639507997	-2.229621362	-2.9384055479	-0.308681
C	-0.1436412846	-0.9040101535	-3.4669962376	 0.330086
C	-0.6686286809	-0.7650464593	-4.86066724	-0.490773
C	-0.0175060062	 0.0567841668	-2.5484163444	-0.247096
H	 1.1761217029	 1.8386146831	 0.3414753896	 0.117112
H	-0.3485022344	 2.1679720542	-0.5037847039	 0.112063
H	-0.3489842372	 1.8512701215	 1.2310597661	 0.113557
H	 0.3976047848	-0.4916842868	 0.8645206182	 0.098252
H	-1.1058957624	-0.1982279699	-0.0064995062	 0.090779
H	 2.1259313947	 0.7969207155	-1.5876264266	 0.273506
H	 1.4351624147	-2.4408427349	-1.0049878961	 0.109253
H	-0.3258459228	-2.3468180248	-0.8794484153	 0.09581
H	 1.3101508788	-2.4943291308	-3.4295757926	 0.111852
H	-0.3290384329	-3.0539717107	-3.1454973298	 0.097313
H	-1.5316227221	-1.4228310756	-5.0247227636	 0.125866
H	-0.9742864013	 0.2612878517	-5.0811432138	 0.121723
H	 0.0895378	-1.0614275118	-5.597022643	 0.12783
H	-0.2891772657	 1.0969272457	-2.7036041756	 0.080404
82.1936	105.0773	139.7645	166.4754	183.4756	207.486	258.3446	301.9254	348.4421	371.9456	405.2486	462.6036	510.0887	578.3976	629.6387	774.3542	783.5277	833.6078	868.1805	886.8042	940.9351	971.6989	976.3765	1003.9709	1022.9891	1034.3799	1055.1159	1101.0497	1125.9557	1159.1284	1188.8302	1209.3094	1252.9968	1283.6801	1305.2151	1324.2676	1346.4786	1370.1095	1381.3455	1404.342	1414.0772	1470.6418	1475.8235	1479.2099	1486.8996	1490.6521	1501.8298	1511.2198	1717.3586	3015.0775	3019.6495	3021.7593	3034.3146	3045.8941	3059.3054	3061.9329	3063.7682	3099.9547	3109.6975	3110.4327	3114.2615	3170.0991	3824.1026
CCC1(O)CCC(C)=C1	CC[C@@]1(O)CCC(=C1)C	
InChI=1S/C8H14O/c1-3-8(9)5-4-7(2)6-8/h6,9H,3-5H2,1-2H3	InChI=1S/C8H14O/c1-3-8(9)5-4-7(2)6-8/h6,9H,3-5H2,1-2H3/t8-/m1/s1
