17
gdb 19984	3.70307	1.38428	1.12461	1.6113	75.49	-0.2412	0.0377	0.279	1078.9397	0.141574	-326.646944	-326.638996	-326.638052	-326.679656	29.944	
C	-0.190531212	-1.2278765834	 0.0718085517	-0.447728
C	-0.0831642797	-0.0302941448	 0.063511033	 0.387566
C	 0.0277361048	 1.4013718358	 0.0127616729	-0.258041
N	 0.5682639322	 2.0922029052	 1.2108679436	-0.33396
C	 1.3504609939	 2.1105372399	-0.028632442	-0.014691
C	 2.6532169358	 1.3862759127	-0.0289305816	 0.034203
C	 3.5273777425	 1.4240981968	-1.2581417315	-0.268653
C	 3.9449847617	 2.1672559789	-0.0151838976	-0.272219
H	-0.2840631318	-2.2853182795	 0.090805672	 0.196918
H	-0.7869313094	 1.8926263462	-0.515991763	 0.107147
H	 0.0763313737	 2.9721342812	 1.3436299643	 0.235061
H	 1.3513500136	 3.0357422025	-0.606509629	 0.082363
H	 2.6374241187	 0.4589471037	 0.5329458192	 0.102717
H	 4.0631837349	 0.5220657319	-1.5306941617	 0.116092
H	 3.1854264757	 2.0079265421	-2.1068476819	 0.109202
H	 3.8841614911	 3.2508614561	-0.027417296	 0.108427
H	 4.7695967844	 1.7778972246	 0.5711415479	 0.115599
58.2859	106.451	185.8554	240.9324	274.3744	350.579	451.3533	553.2933	597.6132	618.5661	658.5353	747.1108	790.2204	829.9274	833.2316	881.0753	916.4878	945.6861	973.5402	991.7094	1054.1868	1067.1194	1077.121	1128.2982	1146.2546	1197.391	1200.6254	1224.041	1229.8216	1272.8101	1334.963	1410.1843	1471.2167	1478.9792	1511.0273	2239.4417	3095.3255	3121.7304	3130.0038	3134.6272	3174.6638	3208.4537	3223.9027	3502.1668	3504.467
C#CC1NC1C1CC1	C#C[C@H]1N[C@H]1C1CC1	
InChI=1S/C7H9N/c1-2-6-7(8-6)5-3-4-5/h1,5-8H,3-4H2	InChI=1S/C7H9N/c1-2-6-7(8-6)5-3-4-5/h1,5-8H,3-4H2/t6-,7+/m1/s1
