20
gdb 76845	2.24508	1.70448	1.34539	2.5286	79.46	-0.1985	-0.0223	0.1762	1059.6481	0.169913	-403.124206	-403.115397	-403.114453	-403.157619	33.43	
C	-1.0633656198	 1.061718618	 0.5411761635	-0.415194
C	-0.2513472133	-0.1901353563	 0.2263415013	 0.04611
C	 0.3117204266	-0.3765420535	-1.2155983781	-0.069075
C	 0.6177314563	 0.9245496768	-2.0004181768	-0.365071
C	 1.9469695126	 1.0360413369	-1.228328957	 0.401533
O	 2.7662036553	 1.9010970209	-1.1002696038	-0.305675
C	 1.7440573102	-0.353607001	-0.5701168946	-0.118498
N	 1.1346791403	-0.2865296861	 0.7626714733	-0.070119
C	 1.6645089241	 0.5612019514	 1.8090375087	-0.333367
H	-0.5419289261	 1.9854523426	 0.2758481109	 0.127174
H	-2.0142513151	 1.038299957	-0.0020662685	 0.121247
H	-1.2974248982	 1.1085360042	 1.6097207217	 0.123012
H	-0.8362297061	-1.0633476003	 0.5479199672	 0.077483
H	-0.0643665236	-1.2239345174	-1.784543296	 0.079372
H	 0.8268277011	 0.7095545472	-3.0553346136	 0.132232
H	-0.0762322198	 1.7669326366	-1.9559809032	 0.124714
H	 2.5328222319	-1.1026054624	-0.6975142399	 0.083113
H	 1.6734510105	 1.6384333551	 1.5777121438	 0.112767
H	 1.0869065172	 0.4101580343	 2.7272642806	 0.119752
H	 2.6978048959	 0.2619648359	 2.0150374105	 0.128492
64.5692	121.6314	186.9559	222.985	226.9555	289.7353	323.0942	412.9972	429.5185	509.0553	524.5475	584.6834	706.4719	751.564	784.3445	841.8473	882.1731	918.1238	976.3688	1000.9685	1042.2111	1068.4932	1076.5223	1098.3733	1138.8026	1148.2206	1158.0104	1198.0407	1218.3404	1248.4392	1259.3822	1280.83	1307.3908	1322.6055	1382.6706	1406.3512	1440.7426	1450.8132	1485.6498	1496.1752	1500.2266	1511.7701	1873.6046	2973.7809	2989.447	3036.4966	3045.1116	3048.8711	3057.534	3096.0031	3101.2929	3109.4722	3117.3355	3135.7352
CC1C2CC(=O)C2N1C	C[C@H]1[C@H]2CC(=O)[C@H]2N1C	
InChI=1S/C7H11NO/c1-4-5-3-6(9)7(5)8(4)2/h4-5,7H,3H2,1-2H3	InChI=1S/C7H11NO/c1-4-5-3-6(9)7(5)8(4)2/h4-5,7H,3H2,1-2H3/t4-,5+,7-/m0/s1
