21
gdb 117561	2.07745	1.12512	0.76428	4.2867	84.12	-0.2556	0.0281	0.2837	1523.4261	0.181519	-383.255489	-383.245483	-383.244539	-383.291071	35.921	
C	-0.0754753773	 1.5388218599	 0.0257292817	-0.385281
C	 0.0052116883	 0.0094696715	 0.0113949164	-0.183802
C	 0.7680588954	-0.5162317204	-1.2086961945	-0.167462
C	 0.8129977856	-2.0546626263	-1.3051584758	-0.144654
C	 1.4500286842	-2.4565058004	-2.5710608098	 0.306057
N	 1.9335952248	-2.7658820125	-3.573523821	-0.326502
N	 1.5656657151	-2.6380510104	-0.1908450293	-0.067089
C	 0.7744454766	-3.1415565365	 0.9333447165	-0.220428
C	 1.4324812136	-4.0832790446	-0.0086949126	-0.219648
H	 0.9238740394	 1.986613792	 0.0475242527	 0.121837
H	-0.5886731516	 1.9181095751	-0.8646667436	 0.118285
H	-0.6206108743	 1.8976991128	 0.903824927	 0.116024
H	 0.4933687914	-0.3392219166	 0.9274878018	 0.117412
H	-1.0096362758	-0.4109177809	 0.0180020183	 0.093316
H	 0.3046345101	-0.1344100833	-2.1261350652	 0.113346
H	 1.7998907744	-0.1491694021	-1.1948664747	 0.125474
H	-0.2236711366	-2.4398724982	-1.339874696	 0.102442
H	 1.1937113916	-2.9557113883	 1.9174886127	 0.127137
H	-0.308807014	-3.0539639955	 0.8753997682	 0.118279
H	 0.7923354938	-4.6286238639	-0.6995097118	 0.124761
H	 2.3450705253	-4.6007347914	 0.2692565689	 0.130496
76.9531	90.399	98.5272	119.3716	156.1072	245.2098	262.7913	279.2317	327.4654	377.7249	467.7304	537.665	579.2467	727.4656	767.6792	824.8927	896.5056	905.4176	909.9403	946.0142	997.6484	1036.5326	1054.4948	1074.0104	1114.9704	1124.6662	1128.5766	1134.189	1176.3763	1197.7041	1261.5355	1289.1258	1312.3747	1327.97	1347.9974	1358.2684	1398.0049	1415.5432	1476.1746	1492.5111	1493.3886	1499.8793	1509.8163	1520.0797	2361.9652	2922.4823	3016.5314	3032.5693	3039.4164	3066.3901	3088.3988	3101.9222	3104.2163	3107.3557	3108.28	3187.5659	3202.5711
CCCC(C#N)N1CC1	CCC[C@@H](C#N)N1CC1	
InChI=1S/C7H12N2/c1-2-3-7(6-8)9-4-5-9/h7H,2-5H2,1H3	InChI=1S/C7H12N2/c1-2-3-7(6-8)9-4-5-9/h7H,2-5H2,1H3/t7-/m0/s1
