15
gdb 81718	3.22376	1.31104	1.03613	4.9569	73.02	-0.2622	-0.046	0.2162	1127.0312	0.11192	-416.790018	-416.781797	-416.780852	-416.822987	29.963	
C	-0.0457486014	 1.6209631376	-0.0728801655	-0.417113
C	 0.046772027	 0.1033560972	-0.021489421	-0.103732
C	 0.7072673481	-0.6623940037	-1.1852752553	-0.124334
N	 2.0984751343	-0.2307116242	-1.2250303196	-0.346714
C	 1.7061089702	-1.3345043746	-0.2677201872	 0.11909
C	 2.2974250873	-2.6250927544	-0.3302768891	 0.170367
N	 2.7721189094	-3.6804833763	-0.3599528227	-0.336891
C	 1.0890633952	-0.5771460227	 0.9159072263	 0.385114
O	 1.2557567496	-0.6059662699	 2.0931548001	-0.278872
H	 0.9053239268	 2.0528536586	-0.3918603913	 0.148767
H	-0.8277998431	 1.9432879328	-0.767276939	 0.125159
H	-0.2906069652	 2.0152565854	 0.917559239	 0.142616
H	-0.9221135481	-0.3489691907	 0.2258635973	 0.121319
H	 0.2192818469	-1.1170166526	-2.0375955768	 0.134293
H	 2.567685473	-0.6847041824	-2.0098515451	 0.260931
93.1535	129.0015	175.4694	198.3596	235.9174	263.9304	394.3837	473.2277	546.4268	573.9895	609.1148	634.9593	742.4364	812.3534	831.8534	870.7704	909.0754	985.4364	1026.6299	1048.4212	1090.0009	1129.0354	1143.0261	1217.0708	1260.0848	1305.752	1359.2461	1383.8698	1407.0666	1491.5935	1502.0946	1914.764	2346.2239	3042.7424	3046.5957	3113.2745	3135.5686	3212.4366	3471.9276
CC1C2NC2(C#N)C1=O	C[C@H]1[C@H]2N[C@@]2(C#N)C1=O	
InChI=1S/C6H6N2O/c1-3-4-6(2-7,8-4)5(3)9/h3-4,8H,1H3	InChI=1S/C6H6N2O/c1-3-4-6(2-7,8-4)5(3)9/h3-4,8H,1H3/t3-,4+,6+/m0/s1
