14
gdb 127695	3.30689	1.50924	1.04307	1.7699	70.48	-0.2622	-0.0805	0.1816	1066.2836	0.102158	-466.197913	-466.190045	-466.189101	-466.230856	28.244	
C	-0.0312923099	 1.4145898213	-0.0418059934	-0.317347
N	-0.0062652772	-0.0420336169	 0.0112658814	-0.097634
N	-0.0535740015	-0.6882296564	-1.1804178882	-0.036837
N	-0.0370676549	-1.9439143022	-1.2411746297	-0.244739
C	 0.0318575382	-2.7341459055	-0.0618772965	 0.465694
N	 0.0511138425	-4.0022560524	-0.072961548	-0.519402
N	 0.078961199	-2.0402234633	 1.1439047797	-0.415242
C	 0.0635681301	-0.6762521884	 1.2594192734	 0.538257
O	 0.1041381171	-0.0629920415	 2.2991789216	-0.379513
H	 0.8723239565	 1.8255696786	 0.4138130485	 0.158718
H	-0.0861513622	 1.6932936167	-1.0931001004	 0.160558
H	-0.8992501708	 1.7982354556	 0.4990092782	 0.158717
H	 0.0097889319	-4.326182139	-1.0384851745	 0.243241
H	 0.1284880311	-2.5763995667	 1.9997014078	 0.285531
76.2913	108.7656	147.0456	203.7064	313.5271	380.7507	441.1414	482.4623	560.7428	604.8865	646.2933	732.1292	753.7507	764.2012	817.4753	875.4398	948.5939	1000.5111	1120.5147	1157.1866	1227.2948	1253.5691	1327.1429	1404.546	1414.6576	1447.652	1476.1895	1510.1135	1575.6028	1740.5134	1837.3679	3063.2878	3131.7479	3176.3552	3510.8429	3609.9872
CN1N=NC(=N)NC1=O	Cn1nnc([NH])[nH]c1=O	
InChI=1S/C3H5N5O/c1-8-3(9)5-2(4)6-7-8/h1H3,(H2,4,5,9)	InChI=1S/C3H8N5O/c1-8-3(9)5-2(4)6-7-8/h2,4,6-7H,1H3,(H,5,9)
