14
gdb 66889	2.67932	2.13539	1.47963	2.3898	64.95	-0.2434	-0.0394	0.204	861.1839	0.10247	-432.832913	-432.82612	-432.825175	-432.863901	26.729	
N	-0.1805754851	 1.4171799248	-0.1391964336	-0.610932
C	-0.0093528095	 0.0264445717	-0.003553217	 0.165982
C	-0.2445864731	-0.9025050575	-1.2363138885	-0.046589
N	 0.648509839	-2.0407991701	-1.428609181	-0.187733
C	 0.659214145	-2.6259082119	-0.299334762	 0.005721
N	-0.1475930266	-2.0181397918	 0.7426571467	-0.226643
C	-1.0653826878	-1.1242599018	-0.0338764409	-0.070027
C	 0.6310043207	-0.7513945373	 1.0831188795	 0.367254
O	 1.3225595393	-0.5316015494	 2.0249126969	-0.30859
H	-0.1861278467	 1.8798825287	 0.7637467298	 0.25382
H	 0.5452927819	 1.8374821461	-0.7089671497	 0.252607
H	-0.6129151734	-0.3875358428	-2.1143812315	 0.12716
H	 1.2687418893	-3.4881623077	-0.0564669207	 0.145352
H	-2.127585993	-1.0792652109	 0.1605071518	 0.13262
127.5666	241.353	252.7115	310.0528	403.2018	439.5602	514.8972	648.9268	680.0055	711.8027	763.7984	766.2144	820.3996	861.7185	888.3397	911.5609	933.8222	961.5529	972.1621	1008.8289	1037.7171	1052.5603	1173.179	1212.9543	1265.3158	1298.6597	1312.0734	1425.3814	1652.5914	1663.3048	1907.7516	3210.3571	3221.2349	3226.1018	3511.8113	3589.8417
NC12C3N=CN(C13)C2=O	N[C@]12[C@H]3[N][CH]N([C@@H]13)C2=O	
InChI=1S/C5H5N3O/c6-5-2-3(5)8(1-7-2)4(5)9/h1-3H,6H2	InChI=1S/C5H5N3O/c6-5-2-3(5)8(1-7-2)4(5)9/h1-3H,6H2/t2-,3+,5+/m0/s1
