15
gdb 51306	3.18334	1.25992	0.90777	2.2775	71.16	-0.2384	-0.0328	0.2056	1196.9791	0.114358	-454.026675	-454.018745	-454.017801	-454.059613	28.845	
O	 1.8898555234	 4.0987368371	 0.0553052404	-0.304439
C	 1.0204005265	 3.2562953996	 0.0431264041	 0.147972
N	 1.2426328495	 1.9100633506	-0.0496913018	-0.396534
C	 2.4774160245	 1.2984834561	-0.1439619643	 0.315142
C	 3.7365544238	 1.7545670436	-0.1732991162	-0.215514
C	 4.6772959364	 0.5812115748	-0.2890034804	-0.202558
N	 3.7759642337	-0.5550304087	-0.3185021663	-0.33931
C	 2.4630548994	-0.1926910895	-0.2353126467	 0.370804
O	 1.4729676357	-0.9012002186	-0.2337723848	-0.408502
H	-0.0587554116	 3.4895379745	 0.1069531598	 0.091705
H	 0.4621760161	 1.2631734281	-0.0539491628	 0.268995
H	 4.0607968996	 2.7809953689	-0.1247464139	 0.14845
H	 5.2891721695	 0.6362450671	-1.2007406813	 0.131152
H	 5.3695507261	 0.5267156801	 0.5633502915	 0.131134
H	 4.0664436075	-1.5148419136	-0.3900871775	 0.261504
83.8751	138.7071	157.3355	211.3016	259.4144	336.977	424.7404	485.6956	526.2559	594.8524	675.9435	747.0504	796.3907	801.5438	834.5427	903.5614	961.3769	1005.894	1023.1317	1068.0207	1116.633	1183.8872	1206.9896	1247.5317	1293.2468	1363.0601	1428.716	1430.3	1503.1561	1546.6233	1715.7954	1798.2542	1818.5878	2963.668	3002.229	3024.2553	3279.6004	3561.1027	3677.0478
O=CNC1=CCNC1=O	O=CNC1=CCNC1=O	
InChI=1S/C5H6N2O2/c8-3-7-4-1-2-6-5(4)9/h1,3H,2H2,(H,6,9)(H,7,8)	InChI=1S/C5H6N2O2/c8-3-7-4-1-2-6-5(4)9/h1,3H,2H2,(H,6,9)(H,7,8)
