19
gdb 79902	3.9695	1.35354	1.17913	2.2932	74.98	-0.2432	0.0781	0.3214	1065.4504	0.161735	-422.973935	-422.966806	-422.965862	-423.005153	29.096	
O	 0.0186795783	 1.461512227	-0.1021790985	-0.441872
C	 0.0396013628	 0.0591650847	-0.009600693	 0.140878
C	-0.0283029185	-0.6299290742	 1.3863653304	-0.125166
C	-1.4954534489	-0.1084743269	 1.501073056	-0.007207
C	-2.4475391764	-0.8858477088	 2.3959115159	-0.117838
O	-2.6671697995	-2.2041757214	 1.9223384609	-0.246279
C	-1.4827227218	-2.8203772315	 1.4529436603	-0.108396
C	-0.6201789969	-1.8626054776	 0.6430849434	-0.019212
C	-1.3446971365	-0.620696086	 0.0250798873	-0.087968
H	 0.9056983509	 1.787304633	 0.0786479316	 0.284335
H	 0.7621383331	-0.3808126201	-0.7116055427	 0.061068
H	 0.7347570505	-0.6404067653	 2.1685658016	 0.06137
H	-1.5959065053	 0.9702556868	 1.6214886161	 0.084939
H	-2.0637432107	-0.8991739903	 3.4321172707	 0.083236
H	-3.4338325585	-0.4103507807	 2.4182333623	 0.108281
H	-0.8945663136	-3.2359769985	 2.2910661537	 0.083933
H	-1.8091674523	-3.6623039277	 0.8330460504	 0.107416
H	 0.0738642991	-2.3971448465	-0.0149877571	 0.061997
H	-2.0998460058	-0.6175235061	-0.7613859994	 0.076484
179.9653	231.308	245.7704	270.8951	311.1444	415.8666	449.6347	566.3565	608.472	761.5424	767.0873	789.4382	829.6977	868.2044	912.4032	914.8514	986.619	997.8324	1014.6431	1048.9859	1063.0349	1073.0121	1104.6615	1115.7241	1152.2188	1158.0027	1172.9728	1198.4359	1212.3244	1239.8622	1258.3915	1264.3229	1299.008	1321.4078	1338.4702	1381.6281	1394.1227	1424.6374	1447.1117	1500.291	1509.5964	2940.0045	2946.4988	3001.6714	3044.2494	3062.8682	3065.8259	3081.5093	3110.3503	3118.3058	3822.0107
OC1C2C3COCC2C13	O[C@H]1[C@H]2[C@@H]3COC[C@H]2[C@H]13	
InChI=1S/C7H10O2/c8-7-5-3-1-9-2-4(5)6(3)7/h3-8H,1-2H2	InChI=1S/C7H10O2/c8-7-5-3-1-9-2-4(5)6(3)7/h3-8H,1-2H2/t3-,4+,5-,6+,7-
