14
gdb 50904	6.99999	0.68546	0.62674	4.605	67.77	-0.2678	-0.0235	0.2443	1651.7497	0.098236	-473.839197	-473.829859	-473.828914	-473.875113	31.39	
O	-0.4193609359	 0.1643619848	 0.0076116942	-0.249902
C	-0.0603573663	 1.3077840995	 0.0098921638	 0.165636
N	 1.2537224129	 1.7633885887	-0.001256827	-0.397992
C	 2.4099824671	 0.9855249991	-0.0167068404	 0.565106
O	 2.4763770714	-0.2106294456	-0.0233193071	-0.349655
O	 3.4695534793	 1.8313395973	-0.0233313995	-0.276657
C	 4.7495463812	 1.1647061142	-0.0395531861	-0.224868
C	 5.795999599	 2.1712120179	-0.0411183648	 0.283152
C	 6.6862764287	 2.9762722834	-0.0428276035	-0.40774
H	-0.7555141923	 2.1709836775	 0.0208177928	 0.092318
H	 1.4001296958	 2.7622194403	 0.0022176622	 0.270703
H	 4.8254690411	 0.5112186663	 0.8358862728	 0.160352
H	 4.810122491	 0.5246743556	-0.9260923917	 0.16021
H	 7.474283347	 3.6886238308	-0.0441353957	 0.209337
25.2744	68.2182	100.2367	140.8729	186.8827	243.2748	289.1044	326.4955	354.6344	536.0804	601.4872	621.4661	623.7671	692.762	782.6403	863.217	943.228	1005.8826	1014.723	1029.3097	1029.9889	1171.963	1212.4148	1250.9014	1393.3345	1445.6838	1488.0506	1517.5278	1821.7088	1889.9199	2252.8618	2936.489	3049.0647	3085.0882	3504.8922	3620.9951
O=CNC(=O)OCC#C	O=CNC(=O)OCC#C	
InChI=1S/C5H5NO3/c1-2-3-9-5(8)6-4-7/h1,4H,3H2,(H,6,7,8)	InChI=1S/C5H5NO3/c1-2-3-9-5(8)6-4-7/h1,4H,3H2,(H,6,7,8)
