16
gdb 48616	2.64302	1.66861	1.23298	4.4475	69.19	-0.2496	-0.0353	0.2143	1001.9745	0.125103	-437.90058	-437.89308	-437.892136	-437.932946	28.538	
O	-0.0184561883	-0.1007266027	-0.1960481908	-0.253693
C	 0.0746548299	 1.0342363863	 0.2024273612	 0.057145
C	 1.3221818929	 1.8459573249	 0.0894007317	 0.080195
C	 2.7100021035	 1.265807882	-0.3217003618	-0.249403
C	 3.0100817851	 2.7660948661	-0.5687219113	-0.01243
C	 1.5461485478	 2.8962794727	-1.0841910974	-0.269159
N	 2.9244860779	 3.2789996487	 0.8191113322	-0.326421
C	 1.7044139616	 2.7785145898	 1.2637507961	 0.407207
O	 1.0951541009	 3.0430395238	 2.2682441379	-0.371156
H	-0.7839459201	 1.5588323623	 0.6724334398	 0.098201
H	 3.2971690465	 0.7596524588	 0.4457201133	 0.121657
H	 2.6452763702	 0.6710440807	-1.2332754776	 0.12689
H	 3.8782315696	 3.1252374666	-1.1171618013	 0.093607
H	 1.3728509405	 2.4520717498	-2.0664098383	 0.126196
H	 1.0587823898	 3.8702843966	-0.9974325168	 0.116789
H	 3.1824141722	 4.2273084937	 1.0522878132	 0.254374
62.8895	160.1342	186.9993	254.9942	381.7019	420.5319	484.85	501.7955	589.6693	663.1118	706.7809	739.4666	797.7899	846.833	865.2856	932.189	965.9641	978.588	1001.5101	1046.8938	1056.8042	1086.2494	1152.2002	1178.5346	1194.801	1219.3407	1227.6002	1303.256	1320.3805	1377.0752	1422.1776	1479.9214	1516.2974	1817.0808	1861.549	2912.9151	3065.9866	3085.6021	3136.8412	3144.2767	3155.5038	3611.6401
O=CC12CC(C1)NC2=O	O=C[C@@]12C[C@@H](C1)NC2=O	
InChI=1S/C6H7NO2/c8-3-6-1-4(2-6)7-5(6)9/h3-4H,1-2H2,(H,7,9)	InChI=1S/C6H7NO2/c8-3-6-1-4(2-6)7-5(6)9/h3-4H,1-2H2,(H,7,9)/t4-,6+
