19
gdb 33087	6.11316	0.77719	0.7004	1.1216	80.44	-0.1905	0.0204	0.2109	1641.5158	0.159197	-419.248897	-419.239476	-419.238532	-419.28382	33.721	
C	-0.0743378276	 1.5313656077	-0.0629843781	-0.39931
C	-0.0631389149	 0.0069628256	-0.0895733669	-0.114063
N	 0.766006976	-0.4872587415	-1.1763172418	-0.390533
C	 0.8695508081	-1.8517607399	-1.3562299832	 0.305687
C	 0.605353874	-2.8857740089	-0.5112937101	-0.144906
O	 0.9428932537	-4.0517839615	-1.1767319229	-0.179878
C	 1.3747812152	-3.646898555	-2.3863530368	 0.395043
C	 1.8071832653	-4.6875276469	-3.3557705923	-0.48866
N	 1.3552723341	-2.3594350762	-2.5555713932	-0.369201
H	 0.9404971418	 1.9254046524	 0.042465232	 0.131723
H	-0.5031050103	 1.938145575	-0.9861019005	 0.118046
H	-0.678662822	 1.8968361457	 0.7717122017	 0.12193
H	 0.354152424	-0.3744272615	 0.8514995138	 0.111905
H	-1.0948908698	-0.3806691972	-0.1530439486	 0.093133
H	 0.6482385346	 0.0004280471	-2.0542358813	 0.238271
H	 0.2297179449	-2.991334851	 0.4890869103	 0.12889
H	 0.9899186443	-5.3808922805	-3.5803535707	 0.143628
H	 2.1275946374	-4.2034457671	-4.2784308461	 0.153488
H	 2.6375541812	-5.2776792165	-2.9544952554	 0.144807
63.8224	86.4049	94.9321	121.9871	224.3054	264.9362	305.9419	338.7705	360.4694	467.5568	555.0581	621.0455	664.0504	700.0296	735.6503	779.0704	821.6083	928.1426	951.6964	1020.9187	1046.1661	1064.9056	1085.8802	1123.7072	1156.2197	1178.2022	1245.6447	1277.9093	1301.1245	1360.7002	1396.1506	1413.0649	1418.4841	1476.3286	1481.2754	1487.3321	1498.4896	1506.4015	1527.7932	1621.8026	1666.4709	2950.7648	3028.9058	3037.8566	3043.8727	3097.505	3104.295	3123.3897	3157.4605	3312.3582	3582.6909
CCNC1=COC(C)=N1	CCNc1coc(C)n1	
InChI=1S/C6H10N2O/c1-3-7-6-4-9-5(2)8-6/h4,7H,3H2,1-2H3	InChI=1S/C6H10N2O/c1-3-7-6-4-9-5(2)8-6/h4,7H,3H2,1-2H3
