23
gdb 108638	2.22685	1.2255	0.91202	1.8333	89.31	-0.2251	0.0279	0.2531	1400.4395	0.204985	-388.31962	-388.309533	-388.308589	-388.354699	37.827	
C	-0.3151187222	 1.5348825093	-0.1221382118	-0.370787
C	 0.05037248	 0.0441451623	 0.0039410524	-0.299128
C	 0.7917378852	-0.4902749581	-1.187537559	 0.22702
C	 2.066369348	-0.9094671401	-1.2575534993	 0.207411
C	 3.0987565789	-0.9523666254	-0.1735846838	-0.502726
C	 2.4230937099	-1.3336058545	-2.6704450719	-0.314803
C	 1.0473432541	-1.515955003	-3.3483141796	 0.128657
O	 0.6043497892	-2.8660890474	-3.2730741208	-0.438601
C	 0.1225763415	-0.570795866	-2.5494924432	-0.320749
H	 0.5844677122	 2.1509951247	-0.2194329854	 0.118254
H	-0.9424054593	 1.7197187889	-0.9997378851	 0.121179
H	-0.8668175009	 1.8757735194	 0.7594125868	 0.112584
H	 0.6351141944	-0.1070098617	 0.9171885567	 0.099043
H	-0.8774600476	-0.5310542847	 0.1345996349	 0.100325
H	 3.4977977441	-1.9673585712	-0.0488669546	 0.122994
H	 3.9567373035	-0.3152896044	-0.4260961709	 0.125607
H	 2.7124448158	-0.6208956539	 0.7931942099	 0.122664
H	 3.0217464623	-0.5578366059	-3.1705908282	 0.100617
H	 3.0052063636	-2.2614082588	-2.720081972	 0.101558
H	 1.0670485314	-1.2863340382	-4.4164345338	 0.078698
H	 0.5743377928	-3.0999893032	-2.3379807915	 0.276167
H	-0.8997675537	-0.9660099861	-2.5175479904	 0.100995
H	 0.0639516367	 0.4210242679	-3.0200445695	 0.10302
60.6512	93.9224	134.4585	164.751	204.7149	216.2045	299.4178	333.1911	357.9107	379.3303	408.1301	459.2864	539.0427	608.7012	655.1689	786.0793	804.7063	845.5774	888.9224	917.6918	934.9097	965.0824	1008.8616	1024.2964	1037.1544	1075.2369	1085.4502	1107.9395	1173.0664	1175.5018	1197.7836	1234.9005	1277.5908	1296.6148	1300.0952	1322.8581	1350.1334	1361.6777	1408.4706	1415.047	1432.5508	1469.6887	1477.9387	1479.4996	1481.5939	1493.1135	1498.9829	1508.6903	1724.6266	2998.7654	3004.2101	3006.7051	3014.9993	3036.3027	3054.7862	3055.7632	3056.7153	3066.1228	3086.2296	3106.8313	3109.1798	3114.8684	3789.2076
CCC1=C(C)CC(O)C1	CCC1=C(C)C[C@@H](O)C1	
InChI=1S/C8H14O/c1-3-7-5-8(9)4-6(7)2/h8-9H,3-5H2,1-2H3	InChI=1S/C8H14O/c1-3-7-5-8(9)4-6(7)2/h8-9H,3-5H2,1-2H3/t8-/m1/s1
