18
gdb 105558	2.039	1.42143	1.2198	2.2421	79.24	-0.2412	-0.0328	0.2083	1158.3234	0.144981	-401.909467	-401.899926	-401.898982	-401.943945	34.853	
C	-0.1131345425	 1.5902814841	-0.0706187118	-0.396082
C	 0.1732525349	 0.0906742028	-0.1609467652	-0.202104
C	 0.7137064737	-0.497712095	 1.1514886716	 0.00382
N	-0.2997904238	-0.5261829585	 2.2655447024	-0.350096
C	-0.1472329184	-1.9888462461	 2.4916791711	-0.280496
C	 0.7017305629	-2.0622776191	 1.2194108047	 0.352211
O	 1.1361206294	-2.9257523216	 0.5252972693	-0.280021
C	 2.0053262465	 0.0485999169	 1.539536772	 0.327612
C	 3.0693933282	 0.4873933227	 1.8910015002	-0.48037
H	 0.7985262679	 2.1550220858	 0.1461150082	 0.127435
H	-0.5267997187	 1.9610473705	-1.0128870079	 0.116936
H	-0.8398966571	 1.7940620474	 0.7216942356	 0.128357
H	-0.7462557493	-0.4508565482	-0.4083835063	 0.104749
H	 0.9002908891	-0.1232199804	-0.9519873603	 0.118409
H	-0.0194665671	 0.0362111556	 3.0605984282	 0.231516
H	 0.4285487285	-2.2767438536	 3.3816669169	 0.134786
H	-1.0849898503	-2.5539815409	 2.4808439483	 0.138538
H	 4.011215656	 0.8762664776	 2.191225173	 0.204801
84.9038	94.8837	121.3079	145.8677	178.3872	237.7372	300.4204	348.8159	405.2158	510.4961	528.1856	590.6255	622.4395	631.597	652.241	709.931	768.3544	806.4812	903.5579	968.2046	979.4212	1012.9327	1020.4605	1058.5063	1119.2137	1133.8892	1168.2056	1189.9106	1275.7538	1298.5592	1361.0486	1373.0577	1406.0762	1471.2882	1473.3386	1495.862	1508.4624	1921.	2220.2438	3018.3525	3041.2701	3042.1708	3076.6833	3083.0957	3113.4242	3118.0833	3498.7552	3550.4728
CCC1(NCC1=O)C#C	CC[C@]1(NCC1=O)C#C	
InChI=1S/C7H9NO/c1-3-7(4-2)6(9)5-8-7/h1,8H,4-5H2,2H3	InChI=1S/C7H9NO/c1-3-7(4-2)6(9)5-8-7/h1,8H,4-5H2,2H3/t7-/m1/s1
