19
gdb 51413	3.88256	1.0054	0.98042	2.9422	80.71	-0.2363	-0.0202	0.216	1266.3647	0.159725	-385.862487	-385.854656	-385.853712	-385.895807	30.19	
O	-0.3354065808	 0.0399116051	-0.2294417284	-0.242606
C	-0.011170602	 1.1818264898	-0.0239043554	 0.160877
C	 1.3810918287	 1.7378445883	-0.2052363828	-0.316611
C	 1.4057068298	 2.8945270374	-1.2035660475	 0.033874
C	 0.7671430663	 4.303211	-0.8846662398	-0.085099
C	 1.5750738016	 4.7283900436	 0.3506398227	-0.085195
C	 2.8287546078	 4.3955730525	 0.0295846289	-0.079738
C	 2.6885571145	 3.79444935	-1.375482577	-0.090434
C	 1.7095644024	 4.8383957439	-2.0179860824	-0.214993
H	-0.7606711505	 1.9306397386	 0.3262125857	 0.069245
H	 1.7308034741	 2.0998281594	 0.7706530477	 0.117653
H	 2.037049018	 0.9259509821	-0.5345734992	 0.115628
H	 1.0627343966	 2.5385015137	-2.1817041746	 0.0851
H	-0.3090114673	 4.4738072334	-0.8930924072	 0.066101
H	 1.1836056482	 5.1893183524	 1.2461704948	 0.103005
H	 3.7454365942	 4.5076970527	 0.5904843173	 0.103295
H	 3.5810613972	 3.4338084852	-1.8862412733	 0.064914
H	 1.3811110561	 4.5724215017	-3.0275302301	 0.097205
H	 2.0013562351	 5.8888650799	-1.9629919395	 0.097779
54.7386	66.8569	170.0549	249.1923	343.1643	458.5396	493.2257	557.0782	580.1926	718.9533	746.7005	781.7875	821.6206	841.3088	845.3229	865.9899	918.4347	924.191	935.0434	977.9202	1030.6904	1041.2697	1066.8056	1098.5873	1104.5779	1111.002	1148.6283	1169.4464	1213.8408	1227.393	1229.7574	1259.6268	1274.732	1289.3923	1339.7644	1397.5749	1431.2187	1462.0098	1500.8777	1622.8581	1831.8012	2851.0817	3025.993	3043.6396	3055.893	3094.1498	3119.3803	3121.8549	3126.2539	3221.8962	3248.7534
O=CCC1C2C=CC1C2	O=CC[C@H]1[C@H]2C=C[C@@H]1C2	
InChI=1S/C8H10O/c9-4-3-8-6-1-2-7(8)5-6/h1-2,4,6-8H,3,5H2	InChI=1S/C8H10O/c9-4-3-8-6-1-2-7(8)5-6/h1-2,4,6-8H,3,5H2/t6-,7+,8-
