23
gdb 39412	2.23839	1.83274	1.27737	0.2604	87.93	-0.2419	0.0804	0.3222	1097.6319	0.209956	-351.136668	-351.128922	-351.127977	-351.168346	32.561	
C	-0.022337144	 1.4207224001	-0.1297878909	-0.317145
C	 1.3508240088	 0.8168760109	 0.0666386157	-0.007575
C	 2.1198277079	 1.0644923068	 1.3526554579	-0.232959
C	 2.7647935876	-0.182555765	 2.0106623465	-0.195524
C	 2.0823276593	-1.547528838	 1.7754281918	-0.205151
C	 0.5823181551	-1.6781278573	 2.02111547	-0.010156
C	-0.2584614618	-0.5798103365	 2.6296856395	-0.318674
C	-0.3892876673	-0.8977249732	 1.1569856501	-0.021971
C	 0.1279320305	-0.0756067612	 0.0121180034	-0.004788
H	-0.4423596097	 1.9582576224	 0.7152081366	 0.108485
H	-0.293439566	 1.8304736666	-1.0970767231	 0.104003
H	 1.9743454687	 0.7684046064	-0.8227552711	 0.077792
H	 2.9053239732	 1.8035543218	 1.1537900294	 0.09382
H	 1.4556090521	 1.5520895998	 2.0709198246	 0.103885
H	 3.7978731662	-0.2863648612	 1.6573602709	 0.093227
H	 2.8401617203	 0.001953617	 3.0891181883	 0.095852
H	 2.283550185	-1.8658604122	 0.7438428862	 0.098609
H	 2.5996177453	-2.2751061069	 2.4127946386	 0.09109
H	 0.2798158965	-2.6911343787	 2.2743268265	 0.076511
H	-1.0877231083	-0.8738112718	 3.2649947916	 0.10354
H	 0.2201900472	 0.3334632231	 2.9535176901	 0.110873
H	-1.3090609467	-1.4200111019	 0.9037372806	 0.077164
H	 0.0377338501	-0.6194189412	-0.9262884832	 0.079089
157.444	188.4741	222.639	264.6197	323.1815	385.8005	437.7711	474.6891	580.9239	651.7185	696.5396	737.1049	774.1102	801.619	837.3359	845.5904	881.165	912.6271	923.1246	966.8759	981.6952	1031.3159	1042.2367	1059.6994	1062.4749	1085.4443	1107.042	1119.8218	1137.3976	1144.3137	1154.7435	1164.8142	1225.6338	1240.6977	1255.034	1272.764	1307.4538	1343.5443	1364.9287	1391.5175	1397.6937	1403.4486	1425.4728	1428.2928	1480.14	1488.2491	1497.7146	1498.2812	1518.0266	3012.3278	3021.0264	3036.3977	3044.5688	3056.3151	3080.5873	3109.4153	3121.7613	3122.6746	3130.7445	3133.6677	3146.9463	3207.4669	3242.6987
C1C2CCCC3CC3C12	C1[C@H]2CCC[C@H]3C[C@H]3[C@@H]12	
InChI=1S/C9H14/c1-2-6-4-8(6)9-5-7(9)3-1/h6-9H,1-5H2	InChI=1S/C9H14/c1-2-6-4-8(6)9-5-7(9)3-1/h6-9H,1-5H2/t6-,7+,8+,9-
