18
gdb 72552	2.37385	2.00063	1.50753	4.0431	71.32	-0.2296	0.0213	0.2509	942.5631	0.149521	-439.129841	-439.122352	-439.121408	-439.16134	30.038	
C	 0.0273828284	 1.4932753539	 0.0800346572	-0.480675
C	-0.0001166918	-0.0008913174	-0.0747881326	 0.284378
C	 0.6906604624	-0.7082313177	-1.2473904791	-0.263338
C	 0.3104127809	-2.1010273562	-0.6991697093	-0.047676
C	 0.9136407391	-1.9943587682	 0.7157061311	-0.074466
O	 0.6389322044	-0.6342912729	 1.0777198082	-0.309766
N	-1.1438585315	-1.9334478392	-0.586048122	-0.312677
C	-1.4032235772	-0.6615520294	-0.1017449461	 0.419129
O	-2.4608921942	-0.2172031558	 0.2746903024	-0.388436
H	 1.0535195301	 1.8481067168	 0.2063596313	 0.121277
H	-0.4109375077	 1.9732301482	-0.7993557558	 0.126881
H	-0.5626010788	 1.7852406654	 0.9522932189	 0.148785
H	 0.2374573072	-0.502741031	-2.2184317031	 0.11795
H	 1.7668736267	-0.5238229843	-1.2741142415	 0.111744
H	 0.592958564	-2.9763256182	-1.2821390507	 0.089173
H	 0.4335689481	-2.6768981547	 1.4264148829	 0.103513
H	 1.9962299212	-2.1762512155	 0.7224555844	 0.104835
H	-1.7607191912	-2.6960518136	-0.3462637061	 0.249368
155.1548	184.6922	233.5784	283.7414	314.458	419.6597	460.2275	500.4802	522.0073	619.782	647.1249	726.4804	754.3424	829.8262	841.202	878.7365	896.1095	947.457	980.6013	991.9676	1028.1644	1059.601	1105.4149	1119.9395	1168.1051	1199.5338	1217.2985	1243.643	1271.5852	1325.711	1349.8429	1365.061	1397.1699	1421.2608	1479.6912	1483.6178	1488.6292	1520.3818	1849.2061	3015.0948	3051.3175	3061.9786	3076.5694	3125.6924	3132.4366	3132.9593	3140.6016	3613.8121
CC12CC(CO1)NC2=O	C[C@@]12C[C@@H](CO1)NC2=O	
InChI=1S/C6H9NO2/c1-6-2-4(3-9-6)7-5(6)8/h4H,2-3H2,1H3,(H,7,8)	InChI=1S/C6H9NO2/c1-6-2-4(3-9-6)7-5(6)8/h4H,2-3H2,1H3,(H,7,8)/t4-,6-/m0/s1
