21
gdb 52717	3.21799	0.61791	0.53596	0.87	94.82	-0.2426	0.0475	0.2901	2074.1037	0.178665	-349.906597	-349.895123	-349.894178	-349.945517	39.713	
C	 0.0126513059	 1.483583008	-0.034168909	-0.498646
C	 0.0167340053	 0.0272788282	-0.0199291892	 0.100327
C	 0.0255446258	-1.1770434345	-0.0001417724	 0.032093
C	 0.0209666924	-2.6406299783	-0.0034906238	-0.159769
C	-1.407262864	-3.1792656529	 0.2215982218	-0.3869
C	 0.6655554847	-3.1690312649	-1.3076043803	-0.166179
C	 0.8885554786	-4.6957380416	-1.3132674981	-0.369363
C	 1.5834232715	-5.1519874412	-2.5107857542	 0.286197
C	 2.1560428221	-5.5024647109	-3.5078811846	-0.429969
H	 0.6317839842	 1.8923309606	 0.7722337549	 0.1463
H	 0.4034188934	 1.8741176862	-0.9804218159	 0.146951
H	-1.0003804039	 1.8811940018	 0.0935480147	 0.146114
H	 0.6449246005	-2.9840953271	 0.8354885966	 0.098752
H	-2.0576319857	-2.9033788595	-0.6144819143	 0.12436
H	-1.4119513279	-4.2687307544	 0.3187186914	 0.115201
H	-1.8353117552	-2.7577418223	 1.1345861651	 0.125395
H	 0.0394454076	-2.8875587153	-2.1612933028	 0.115594
H	 1.629611206	-2.6723496364	-1.4506756428	 0.119195
H	 1.46715799	-4.9829384438	-0.4245983198	 0.128247
H	-0.070675945	-5.2208655673	-1.234387297	 0.13367
H	 2.6621928733	-5.8228847544	-4.3842863706	 0.192431
16.1006	60.7957	67.3758	81.4067	142.9818	158.2858	243.6023	256.3519	293.625	326.4078	344.3808	379.3225	450.6883	522.8175	567.9649	615.0671	633.8748	733.3492	766.699	882.9185	949.9678	958.1978	1027.0665	1034.7015	1053.5191	1053.925	1107.7468	1116.812	1176.9047	1222.1405	1269.4842	1309.06	1341.569	1344.6335	1382.0085	1407.8483	1415.1896	1472.3594	1479.2005	1479.3404	1491.7763	1494.3213	1503.1323	2238.8001	2369.4197	2987.4184	3015.0961	3024.9965	3040.4668	3050.9814	3053.6214	3084.857	3085.14	3098.0238	3113.0997	3120.0315	3508.0742
CC#CC(C)CCC#C	CC#C[C@@H](C)CCC#C	
InChI=1S/C9H12/c1-4-6-8-9(3)7-5-2/h1,9H,6,8H2,2-3H3	InChI=1S/C9H12/c1-4-6-8-9(3)7-5-2/h1,9H,6,8H2,2-3H3/t9-/m1/s1
