12
gdb 132180	3.26975	1.4201	0.99009	4.9275	61.46	-0.2439	-0.0341	0.2097	1054.1514	0.077934	-513.931591	-513.924549	-513.923605	-513.963299	26.475	
O	 0.0111638726	 1.2969635966	 0.0075547211	-0.382489
C	-0.0514678923	-0.0320623792	 0.000980167	 0.495235
N	-1.1642678655	-0.6414910041	 0.0037821653	-0.382757
C	-1.1909000835	-2.0472837082	-0.0034559199	 0.260071
N	-2.2521380841	-2.7511288288	-0.0014224783	-0.521972
C	 0.1305294511	-2.6838547656	-0.0139421673	 0.189828
F	 0.1990679558	-4.004924926	-0.0212444454	-0.04115
C	 1.2476104028	-1.9538446302	-0.0161616275	-0.088437
O	 1.1945682793	-0.5772273378	-0.008650455	-0.236292
H	 0.9392969046	 1.5652137259	 0.0038893965	 0.319938
H	-3.0616713571	-2.1267766263	 0.0062269055	 0.228617
H	 2.2561924862	-2.3384106563	-0.0236406821	 0.159409
99.2574	189.2161	307.6408	364.9884	376.2035	394.2568	444.4499	468.4888	534.23	609.1628	728.7456	757.8797	773.107	799.6628	852.597	920.142	934.2651	1080.9578	1193.8818	1269.0213	1278.8196	1297.6683	1382.3425	1440.0036	1697.2881	1731.8761	1760.1252	3258.1232	3465.2464	3799.5328
OC1=NC(=N)C(F)=CO1	OC1=NC(=C(F)CO1)[NH]	
InChI=1S/C4H3FN2O2/c5-2-1-9-4(8)7-3(2)6/h1H,(H2,6,7,8)	InChI=1S/C4H4FN2O2/c5-2-1-9-4(8)7-3(2)6/h6H,1H2,(H,7,8)
