16
gdb 41221	2.39946	1.91904	1.13183	2.6346	71.35	-0.2208	-0.0252	0.1956	1028.7226	0.125281	-437.857204	-437.849738	-437.848794	-437.889616	28.164	
C	-0.3020058619	 1.4680264939	-0.1817909849	-0.257362
N	 1.077716836	 1.2187104629	 0.3598262554	-0.319029
C	 1.3063800029	 0.1663926729	-0.6664960044	-0.142325
C	-0.1689574566	 0.1728529148	-0.9489084362	 0.213529
O	 2.6357903578	-1.4455943812	 0.57096469	-0.297363
C	 1.7584176043	-1.213922877	-0.2197319347	 0.341923
C	 0.9415216018	-2.3658154385	-0.843167127	-0.169207
O	-0.1455920995	-2.0300120782	-1.7104374815	-0.237694
C	-0.8349598054	-0.8880915942	-1.3773994494	-0.103381
H	-1.0796114827	 1.5257915153	 0.587096084	 0.124441
H	-0.3751039398	 2.3580459231	-0.8235543817	 0.107715
H	 1.7057376239	 2.0118882181	 0.2927871322	 0.225058
H	 1.9289874144	 0.4767674019	-1.5227195726	 0.102737
H	 1.6175967118	-3.0008705701	-1.422947848	 0.147282
H	 0.5639229067	-2.9617723394	-0.0017417991	 0.14464
H	-1.9052274937	-0.9724791342	-1.531884222	 0.119038
63.6168	129.121	221.3638	277.9546	349.1713	420.6047	479.8509	490.7284	576.1438	644.7583	670.6013	769.1756	853.22	887.4804	948.4962	971.745	977.6683	990.7919	1012.3385	1053.4299	1114.6494	1136.2981	1157.7526	1169.7047	1215.1528	1257.2262	1284.9406	1337.1831	1345.234	1369.4293	1383.3445	1455.6713	1506.3202	1773.333	1833.9458	2955.7047	2994.0478	3026.571	3062.9324	3097.5989	3191.193	3535.7066
C1NC2C11OC22COC12	C1N[C@@H]2[C]1[CH]OCC2=O	
InChI=1S/C6H7NO2/c1-5-3(7-1)6(9-5)2-8-4(5)6/h3-4,7H,1-2H2	InChI=1S/C6H7NO2/c8-5-3-9-2-4-1-7-6(4)5/h2,6-7H,1,3H2/t6-/m1/s1
