17
gdb 62103	3.45779	0.92909	0.78324	4.8604	65.42	-0.2459	0.002	0.2479	1395.0697	0.136668	-492.341475	-492.332244	-492.3313	-492.376477	32.836	
N	-0.5757486234	 0.3746751852	 0.0210646949	-0.550344
H	 0.6519773515	-0.2951400699	 1.2062906959	 0.309104
H	-0.1663043702	 0.8365553269	-0.7816295149	 0.245991
H	-1.4232849519	-0.0975320641	-0.2894190724	 0.275153
C	-0.867265041	 1.3246098667	 1.1048222082	-0.120893
C	-2.3167042594	 1.2353072007	 1.6099782429	-0.185842
N	-3.3125283863	 1.7584836039	 0.6819265961	-0.268549
C	-3.8435070518	 1.0256726485	-0.3251917025	 0.151541
O	-3.4693499399	-0.087169167	-0.6507473768	-0.328495
C	 0.073225602	 1.0556746461	 2.3075517972	 0.43109
O	 0.0372144757	 1.7150429725	 3.3150321401	-0.356392
O	 0.8986354867	 0.0313700366	 2.1092268299	-0.361869
H	-0.6757579321	 2.359493032	 0.7971931049	 0.106737
H	-2.5607348331	 0.1877380213	 1.8184210217	 0.145845
H	-2.382650528	 1.7940267916	 2.5445253013	 0.150949
H	-3.7150498872	 2.6628201	 0.8696824582	 0.25955
H	-4.6711786915	 1.5491872488	-0.8387251847	 0.096422
43.0243	78.1543	137.1263	165.9118	223.0481	287.9708	331.167	351.4177	370.3059	434.8866	520.4399	545.8029	642.8703	722.1094	759.8065	865.335	913.4181	938.4977	966.2577	1003.5461	1025.2628	1035.1675	1133.6406	1208.3749	1221.6509	1254.9233	1266.6127	1340.5662	1373.9302	1403.3063	1426.4092	1457.0108	1471.5315	1529.8956	1676.6319	1782.2948	1859.3161	2966.843	3038.3061	3058.106	3135.2149	3330.386	3467.8611	3588.5016	3637.4701
[NH3+]C(CNC=O)C([O-])=O	N[C@@H](CNC=O)C(=O)O	
InChI=1S/C4H8N2O3/c5-3(4(8)9)1-6-2-7/h2-3H,1,5H2,(H,6,7)(H,8,9)	InChI=1S/C4H8N2O3/c5-3(4(8)9)1-6-2-7/h2-3H,1,5H2,(H,6,7)(H,8,9)/t3-/m0/s1
