18
gdb 80132	2.6521	1.67783	1.2074	3.4935	77.8	-0.2361	0.004	0.2401	1056.1492	0.149238	-401.984447	-401.976462	-401.975518	-402.017274	29.744	
C	-0.0463791623	 1.4518345876	-0.0218304601	-0.348943
N	-0.0243034694	 0.0155279216	 0.0727178566	-0.065377
C	-1.0916095007	-1.0044308376	-0.0076881551	-0.039475
C	-1.768754231	-1.1452068984	-1.3477396302	-0.088558
C	-1.2243913601	-2.1192929512	-2.0783155939	-0.050358
C	-0.1075816547	-2.8532006441	-1.3693031061	-0.278669
C	 0.0408236921	-2.0837307775	-0.0414393862	-0.187701
C	 1.0125497237	-0.8773052995	-0.0499615095	 0.399547
O	 2.2033105276	-0.7207795257	-0.145897725	-0.381584
H	 0.990081078	 1.7982774768	-0.027078656	 0.161021
H	-0.5341975524	 1.7913889089	-0.9446363423	 0.12661
H	-0.5654226085	 1.902452308	 0.8323446667	 0.12613
H	-1.7723847197	-0.9787338774	 0.8499875855	 0.08086
H	-2.5885156036	-0.5101849976	-1.6642409491	 0.098813
H	-1.5320520938	-2.3829603465	-3.085200159	 0.101738
H	-0.3675147305	-3.9059350632	-1.2041430799	 0.113842
H	 0.8229093433	-2.8531489344	-1.9494430857	 0.132165
H	 0.1395313019	-2.7174186595	 0.8399048693	 0.09994
97.5982	106.374	144.5058	223.0036	245.0018	297.0766	441.61	519.1809	628.9968	676.0103	709.9096	784.4921	808.0961	845.1292	856.7685	908.0676	953.7843	977.5575	993.5828	1022.5362	1032.4204	1081.4403	1131.289	1142.8241	1155.9153	1188.7867	1230.0186	1272.7514	1281.971	1313.5494	1336.7004	1377.351	1405.292	1445.4363	1482.6128	1483.6653	1515.5574	1676.8289	1869.6858	3011.9125	3029.9834	3048.5869	3060.641	3064.5625	3118.2431	3126.4835	3178.7898	3205.2806
CN1C2C=CCC2C1=O	CN1[C@H]2C=CC[C@H]2C1=O	
InChI=1S/C7H9NO/c1-8-6-4-2-3-5(6)7(8)9/h2,4-6H,3H2,1H3	InChI=1S/C7H9NO/c1-8-6-4-2-3-5(6)7(8)9/h2,4-6H,3H2,1H3/t5-,6+/m1/s1
