18
gdb 37416	3.66944	1.82238	1.68373	1.0725	73.21	-0.2343	0.0804	0.3146	858.8517	0.152291	-401.899999	-401.894276	-401.893332	-401.929689	25.549	
C	-0.0454396634	 1.5640028898	 0.0609615496	-0.250065
C	 1.4836101568	 1.3674821555	-0.0042445567	 0.080057
O	 1.7560313558	 0.7621564644	 1.2692485128	-0.288451
C	 0.8765451476	-0.39915254	 1.1951115655	 0.083087
C	 1.7894416061	-1.4952722362	 0.6626653816	-0.039301
N	 1.2392824849	-2.2844615863	-0.4596911999	-0.351574
C	 2.0722287058	-1.0808911632	-0.7332275114	-0.061934
C	 1.2168071615	 0.139832215	-0.9659474641	-0.028318
C	-0.0159156391	 0.0171656883	-0.0057401808	-0.066638
H	-0.4358655505	 2.0544031778	 0.9550979769	 0.09904
H	-0.4733831981	 1.9985457732	-0.8453604915	 0.098863
H	 2.2050085374	 2.158270048	-0.2051619562	 0.076861
H	 0.3936247375	-0.5612274833	 2.1594216063	 0.072017
H	 2.5509791966	-1.9177574464	 1.3081319397	 0.092799
H	 1.8191499515	-3.1119624398	-0.5776414849	 0.23127
H	 3.0513375435	-1.1983943117	-1.1838752585	 0.087752
H	 0.9899042828	 0.4221922267	-1.9935929149	 0.075521
H	-0.8785110666	-0.600798872	-0.2346089136	 0.089015
293.001	326.6335	390.8148	505.783	518.9792	606.6036	720.3099	749.9501	808.87	846.3462	856.7392	865.123	875.8859	888.9085	900.0489	928.9757	945.9248	964.772	992.7746	1012.6921	1023.6326	1050.8938	1069.9011	1094.6535	1110.5913	1131.6501	1141.521	1186.5604	1220.4156	1228.4664	1242.4269	1255.6957	1278.8575	1286.2697	1331.7397	1341.0644	1365.6037	1416.9868	1488.684	3066.9708	3106.6348	3118.9586	3130.4684	3133.7797	3169.8609	3171.0429	3183.1514	3502.5478
C1C2OC3C4NC4C2C13	C1[C@H]2O[C@@H]3[C@H]4N[C@H]4[C@H]2[C@H]13	
InChI=1S/C7H9NO/c1-2-4-3(1)9-7(2)6-5(4)8-6/h2-8H,1H2	InChI=1S/C7H9NO/c1-2-4-3(1)9-7(2)6-5(4)8-6/h2-8H,1H2/t2-,3+,4-,5-,6-,7-/m0/s1
