23
gdb 122986	3.30791	0.73955	0.71683	2.1593	83.41	-0.2597	0.0765	0.3362	1724.7002	0.204006	-425.404558	-425.394042	-425.393097	-425.441095	38.271	
C	-0.141449769	 1.5282905715	 0.392486863	-0.460746
C	-0.0688889292	 0.0678117275	-0.0081031352	 0.361004
C	-1.3710226391	-0.5180281036	-0.4975879508	-0.12012
O	-1.7734235239	 0.1598165362	-1.6755043083	-0.265373
C	-3.0088608423	-0.2856066352	-2.2024284488	-0.065411
C	-3.195779995	 0.4279896757	-3.5324332441	-0.057858
O	-2.1313705968	 0.1447509391	-4.4181946915	-0.422343
C	 1.2009587213	-0.4503776627	-0.6398560047	-0.290264
C	 0.8391225392	-0.8552730169	 0.7688373796	-0.312259
H	 0.8369611958	 1.9001089637	 0.7115883539	 0.110576
H	-0.4840007596	 2.1422927734	-0.445600926	 0.130509
H	-0.8416068726	 1.6746343251	 1.2239580029	 0.111231
H	-1.2570744672	-1.5952762978	-0.7026143275	 0.0835
H	-2.1523179424	-0.4128588793	 0.2749255975	 0.086321
H	-2.9838928296	-1.3758569407	-2.3618483794	 0.09314
H	-3.8386313839	-0.0585544313	-1.5126325402	 0.086319
H	-4.1200485046	 0.0873139114	-4.0106784784	 0.106333
H	-3.2895726937	 1.5104094131	-3.3477566379	 0.091507
H	-1.3271511513	 0.2793945912	-3.9023728046	 0.288672
H	 1.1175354633	-1.1960970103	-1.4233220377	 0.112273
H	 2.0205445873	 0.2466794032	-0.7772350251	 0.111509
H	 1.4076917323	-0.4277021026	 1.5878076186	 0.111737
H	 0.5179099311	-1.8774589807	 0.9412929746	 0.109742
44.248	54.1899	107.7268	122.9487	194.3493	212.5898	272.8537	289.1405	337.1048	371.3598	391.8508	446.9705	477.787	561.2184	735.1503	785.7558	863.8441	878.3344	907.2474	922.2337	956.7871	959.2502	1004.6764	1048.9762	1060.2615	1078.6957	1083.8947	1087.8927	1131.872	1139.7754	1148.6123	1188.0409	1239.7995	1248.9185	1266.9096	1330.3156	1358.7845	1383.9041	1387.9328	1415.3014	1439.5488	1450.1379	1470.6431	1486.1751	1497.8229	1500.3604	1506.103	1512.9946	1523.4072	2949.4471	2965.6289	2974.6922	2984.9013	3004.9352	3027.2219	3077.9224	3090.6512	3111.7018	3127.9102	3133.1561	3205.6986	3220.0959	3789.6989
CC1(COCCO)CC1	CC1(COCCO)CC1	
InChI=1S/C7H14O2/c1-7(2-3-7)6-9-5-4-8/h8H,2-6H2,1H3	InChI=1S/C7H14O2/c1-7(2-3-7)6-9-5-4-8/h8H,2-6H2,1H3
