18
gdb 96528	2.41823	1.61066	1.12156	2.3729	67.95	-0.2487	0.0063	0.2549	1095.5034	0.149167	-476.240068	-476.231438	-476.230493	-476.273695	31.551	
N	-0.0151805944	 1.4190148022	 0.2192671857	-0.50721
C	-0.0229459718	-0.0109778219	-0.0476965586	-0.110708
C	-1.4718310922	-0.5446213947	 0.0033354569	-0.199598
C	-1.5454711928	-2.0589173133	-0.2618240257	-0.103299
O	-0.3251914608	-2.6746267814	 0.1550354228	-0.229774
C	 0.62220733	-2.8023990464	-0.8515032457	 0.010395
O	 0.7801621427	-1.6799624093	-1.7302108577	-0.238989
C	 0.6414127435	-0.3687760683	-1.3893909451	 0.389694
O	 0.9850935049	 0.4637485157	-2.1841817138	-0.31769
H	 0.9438514488	 1.7271477032	 0.3543849883	 0.233752
H	-0.3201262671	 1.9039239321	-0.6218978889	 0.236296
H	 0.5343872686	-0.5123348633	 0.749444169	 0.116694
H	-1.8583050836	-0.3035344046	 0.9967330934	 0.125967
H	-2.0922064041	-0.0036691839	-0.7208059543	 0.111492
H	-2.3447982877	-2.5222081259	 0.3218629585	 0.121271
H	-1.732491868	-2.2740838398	-1.3209268232	 0.116793
H	 1.5760162243	-3.0116198823	-0.355325405	 0.126674
H	 0.3703493897	-3.6171256782	-1.5442526064	 0.118241
71.8215	120.2771	133.149	185.3101	282.6035	296.7878	320.3093	378.4019	408.689	543.9662	598.81	660.2703	730.4599	767.3058	855.7844	891.5075	937.8037	986.5936	1032.5569	1037.1325	1055.7071	1117.7419	1145.7025	1171.1774	1194.5757	1212.7242	1254.3788	1289.458	1318.7806	1336.4123	1353.7998	1399.0362	1417.9993	1463.8802	1489.0956	1510.3027	1523.1688	1677.2464	1832.0269	3009.9605	3030.7765	3046.9671	3068.9118	3074.4473	3091.7164	3110.0693	3486.991	3554.0158
NC1CCOCOC1=O	N[C@H]1CCOCOC1=O	
InChI=1S/C5H9NO3/c6-4-1-2-8-3-9-5(4)7/h4H,1-3,6H2	InChI=1S/C5H9NO3/c6-4-1-2-8-3-9-5(4)7/h4H,1-3,6H2/t4-/m0/s1
