18
gdb 126247	2.32336	1.3454	0.91565	5.1954	77.64	-0.2112	-0.0087	0.2025	1302.8887	0.146153	-435.252677	-435.242989	-435.242045	-435.288625	33.797	
C	-0.1846067954	 1.6208461839	 0.0130726828	-0.366925
C	 0.0098126034	 0.0943939529	 0.0220700586	-0.307309
C	 0.7870378636	-0.4122249336	 1.1941381419	 0.143675
C	 2.1207918972	-0.7703720022	 1.3105574147	 0.429154
N	 3.1142218991	-0.8265171372	 0.3855539621	-0.386978
C	 4.5050042782	-1.0103973915	 0.7719773963	-0.331085
O	 2.3821155103	-1.1489231754	 2.5466926122	-0.244774
N	 1.0707016352	-1.0188645576	 3.2789798735	-0.06144
N	 0.2533487692	-0.6000325859	 2.4359201725	-0.143267
H	 0.7773079638	 2.1435373234	-0.0147976695	 0.109276
H	-0.7694768828	 1.9368141161	-0.8565990009	 0.112922
H	-0.7112491903	 1.9442022427	 0.9154648761	 0.137776
H	-0.9701164957	-0.3955090132	 0.0118384225	 0.128446
H	 0.5107488858	-0.2219126318	-0.9021552609	 0.093652
H	 2.9430503431	-0.3053485571	-0.4586910675	 0.257712
H	 4.5923111846	-1.8900196842	 1.4127883092	 0.161982
H	 5.0979516917	-1.1766320045	-0.1295390707	 0.132922
H	 4.915588309	-0.1485248647	 1.3147174971	 0.134259
20.4776	92.9054	130.452	155.4375	162.8935	228.3024	275.3076	303.1103	398.8574	420.0503	444.2107	566.9169	627.3812	669.6939	760.8922	774.0951	781.5375	966.8988	977.9111	1049.5259	1079.2756	1086.4508	1145.4909	1161.7777	1227.8017	1264.2242	1335.4538	1354.9159	1407.7724	1446.3816	1458.341	1471.1966	1483.5107	1489.9677	1495.8133	1504.0173	1511.1293	1521.3984	1651.8925	3016.3872	3022.7918	3035.1037	3065.5189	3102.3334	3104.6637	3117.6362	3142.8967	3642.9664
CCC1=C(NC)ON=N1	CCc1c(NC)onn1	
InChI=1S/C5H9N3O/c1-3-4-5(6-2)9-8-7-4/h6H,3H2,1-2H3	InChI=1S/C5H9N3O/c1-3-4-5(6-2)9-8-7-4/h6H,3H2,1-2H3
