19
gdb 100696	3.23338	0.76774	0.6514	0.9963	77.33	-0.2466	0.0358	0.2824	1724.8104	0.15532	-460.122286	-460.110891	-460.109947	-460.161204	38.912	
C	-0.0701634269	 1.4968825683	-0.0062909963	-0.5005
C	-0.0249675264	 0.0423055656	-0.0102801868	 0.100954
C	 0.0328247509	-1.1605472118	-0.0018809879	 0.031965
C	 0.0341928069	-2.6214913391	-0.0279692723	-0.056627
O	-1.2883741687	-3.1555756553	 0.0688960215	-0.427015
C	 0.7491492459	-3.1695199698	-1.2791442458	 0.131522
O	 2.0932830501	-2.7390726665	-1.2280901123	-0.443061
C	 0.6898266152	-4.6946285564	-1.3322588328	-0.10856
O	 1.5038967305	-5.0744255604	-2.4418064827	-0.437501
H	 0.9114231091	 1.9167939694	 0.2391149555	 0.155445
H	-0.363578855	 1.8912702781	-0.9852694924	 0.148501
H	-0.7859701747	 1.871611808	 0.7335479798	 0.149336
H	 0.5741623419	-3.0044075771	 0.8472400249	 0.116673
H	-1.8628084167	-2.5858899949	-0.4537603781	 0.285454
H	 0.2427942741	-2.7704248718	-2.1749739029	 0.067247
H	 2.5665416074	-3.3081551077	-1.848803931	 0.291671
H	 1.088795723	-5.1054678987	-0.3925732188	 0.092747
H	-0.3452891121	-5.0339280485	-1.4510391098	 0.107426
H	 1.6648516656	-6.0204700914	-2.3944587417	 0.294323
10.425	55.6515	72.6653	116.007	151.0714	201.1777	243.5771	253.8984	279.9203	306.1643	331.0308	404.2557	414.7673	463.0683	468.9216	577.9139	599.091	792.1366	898.7612	1009.678	1040.4757	1051.3234	1054.8	1079.1757	1086.2369	1127.0398	1173.7741	1210.4056	1239.9353	1251.0438	1288.0283	1330.9129	1366.6061	1404.367	1414.4802	1432.6037	1456.5185	1476.5649	1478.0812	1511.0046	2369.4994	2955.5536	2992.913	3028.095	3034.7655	3064.2688	3089.1785	3090.9667	3770.0023	3813.6763	3845.0681
CC#CC(O)C(O)CO	CC#C[C@@H](O)[C@@H](O)CO	
InChI=1S/C6H10O3/c1-2-3-5(8)6(9)4-7/h5-9H,4H2,1H3	InChI=1S/C6H10O3/c1-2-3-5(8)6(9)4-7/h5-9H,4H2,1H3/t5-,6+/m1/s1
