19
gdb 70351	2.72036	1.81063	1.51527	0.5207	73.5	-0.2341	0.0746	0.3088	945.4631	0.161167	-423.000589	-422.993425	-422.99248	-423.031562	30.116	
O	-0.0410313247	 1.3534766587	 0.1483119089	-0.474737
C	 0.0209256739	-0.0344695902	-0.0194309246	 0.394486
C	-0.48390199	-0.679799624	-1.2806195035	-0.358508
C	-1.2782302667	-0.7909794613	 0.0155836637	-0.075767
C	-1.2923543982	-2.0852231854	 0.8364399054	-0.239646
C	 0.0767820268	-2.3056948653	 1.4861082382	 0.102372
C	 0.6113326392	-1.0378533726	 2.19156205	-0.247411
C	 1.1234490607	-0.7293470553	 0.7704231742	 0.017029
O	 1.1064620727	-2.1478291944	 0.4587489496	-0.295167
H	 0.6608808498	 1.7471650155	-0.382490871	 0.281937
H	-0.8887038734	-0.0157161676	-2.0368014829	 0.106084
H	 0.0289908891	-1.5616943991	-1.6452247146	 0.128891
H	-2.1751819895	-0.1828169418	 0.0556963428	 0.094898
H	-2.0558989436	-2.0229154372	 1.6210331275	 0.101846
H	-1.5455766448	-2.9493993809	 0.21087677	 0.107231
H	 0.1574356795	-3.26716911	 1.9998212521	 0.074668
H	-0.1020488699	-0.3410333512	 2.6354913412	 0.110161
H	 1.4170099573	-1.269524952	 2.8897085082	 0.105225
H	 2.1105049516	-0.2778438758	 0.6253867948	 0.066407
198.6571	221.6429	304.388	347.0877	370.3712	405.9136	416.5602	499.8195	528.4476	620.0926	701.931	789.4822	848.8784	851.8913	879.5196	913.5884	926.3101	939.5402	959.816	971.5081	1015.8641	1039.2857	1060.9538	1092.0622	1101.3501	1113.4864	1126.1684	1195.2582	1226.4974	1242.8459	1248.7562	1260.4176	1310.1484	1329.509	1340.6188	1354.5934	1376.928	1403.6165	1468.829	1483.6545	1489.3385	3028.0032	3052.2742	3066.9473	3073.2703	3082.5542	3134.9569	3140.4018	3170.3446	3232.8003	3787.0244
OC12CC1CC1CC2O1	O[C@]12C[C@H]1C[C@@H]1C[C@H]2O1	
InChI=1S/C7H10O2/c8-7-3-4(7)1-5-2-6(7)9-5/h4-6,8H,1-3H2	InChI=1S/C7H10O2/c8-7-3-4(7)1-5-2-6(7)9-5/h4-6,8H,1-3H2/t4-,5-,6-,7-/m1/s1
