18
gdb 72342	2.32406	2.06878	1.55631	2.4291	75.49	-0.2283	0.0314	0.2596	925.3422	0.148943	-401.902246	-401.895074	-401.89413	-401.933325	29.804	
O	-0.0932302535	 1.3720045098	-0.0229089621	-0.487449
C	 0.0006846277	-0.0325271736	-0.0065315209	 0.433489
C	-1.3225759089	-0.6536629292	-0.4864202684	-0.301171
C	-1.6996273333	-1.6046622481	 0.6286524695	-0.053649
C	-0.8150102952	-1.6419638793	 1.6279133538	-0.071058
C	 0.3364377781	-0.7190012576	 1.3729620332	-0.130115
C	 1.6513972688	-1.2513924158	 0.7373912427	-0.066726
N	 1.2761276335	-2.0623296595	-0.4415250051	-0.323603
C	 1.3368610643	-0.5873013751	-0.559746965	-0.156924
H	 0.729731023	 1.7320411902	 0.3268964491	 0.273844
H	-2.0715714211	 0.1326574777	-0.6375418059	 0.112624
H	-1.2022654459	-1.1817838343	-1.4390017174	 0.115116
H	-2.6102246591	-2.1941226542	 0.5895300214	 0.089362
H	-0.9028178044	-2.2647496554	 2.5115349622	 0.088394
H	 0.5430717456	 0.0004995099	 2.1727485205	 0.069338
H	 2.6045641828	-1.4026997463	 1.2301779557	 0.089656
H	 2.1389787885	-2.4314305819	-0.8402862625	 0.230367
H	 1.9804207192	-0.1063504274	-1.2887692807	 0.088504
155.9939	211.2076	290.7788	344.3503	353.6715	388.7059	480.4916	531.305	615.8742	667.9659	724.2366	773.507	793.1634	826.1173	840.3832	915.2636	932.3124	952.2193	962.0616	971.6063	999.2695	1031.2294	1062.4325	1072.7491	1080.6166	1107.4413	1116.8756	1154.7149	1177.949	1234.8555	1251.5638	1298.2679	1313.9365	1328.7558	1360.4092	1376.6854	1396.2365	1464.7791	1672.917	3035.1337	3051.2915	3071.8289	3166.8207	3172.9293	3183.7959	3198.2132	3472.1209	3793.1917
OC12CC=CC1C1NC21	O[C@]12CC=C[C@H]1[C@H]1N[C@@H]21	
InChI=1S/C7H9NO/c9-7-3-1-2-4(7)5-6(7)8-5/h1-2,4-6,8-9H,3H2	InChI=1S/C7H9NO/c9-7-3-1-2-4(7)5-6(7)8-5/h1-2,4-6,8-9H,3H2/t4-,5+,6+,7+/m0/s1
