23
gdb 63813	3.01424	1.44079	1.28456	0.2535	88.21	-0.2295	0.0816	0.3111	1121.7769	0.206141	-351.106117	-351.097713	-351.096769	-351.138245	34.842	
C	-0.3492712449	 1.6072117397	-0.0104908071	-0.454592
C	-0.0389306399	 0.1128735301	 0.0059950757	 0.33005
C	-1.343386605	-0.6883090726	-0.0814440141	-0.430404
C	 1.0138490731	-0.4421192655	-1.0294677508	-0.313076
C	 1.7740179845	-1.1620811657	 0.1271874568	-0.007132
C	 3.0083916258	-0.4887048584	 0.7763339319	-0.060163
C	 2.9296240809	 1.0049668257	 0.7384686828	-0.289931
C	 2.0810122075	 0.270089972	 1.7444031708	-0.078567
C	 0.8507524807	-0.465784256	 1.1622050942	-0.041977
H	 0.5446053399	 2.2256266704	 0.0906267233	 0.117757
H	-0.8495003281	 1.8892411217	-0.9448659718	 0.108454
H	-1.023259739	 1.8701414318	 0.8135388306	 0.109214
H	-1.8749298734	-0.469568159	-1.0150300016	 0.107746
H	-1.1535598405	-1.7669773181	-0.0521785692	 0.109263
H	-2.0123234914	-0.4446252598	 0.7523468804	 0.107841
H	 0.5834731667	-1.1134517067	-1.7777113119	 0.090432
H	 1.593515913	 0.3193934494	-1.5577258578	 0.096214
H	 1.826639707	-2.2490479788	 0.072779439	 0.064799
H	 3.9401721721	-1.0010934843	 0.9859965666	 0.080857
H	 3.7834453743	 1.5111296622	 1.1797822972	 0.108919
H	 2.5138485042	 1.5355528666	-0.109921669	 0.107813
H	 2.2160481411	 0.4565504019	 2.8037182526	 0.080596
H	 0.3259407615	-1.0532869165	 1.9188170214	 0.055886
162.0848	176.6852	189.5377	264.5802	289.4456	321.64	364.544	372.9266	469.7697	539.626	597.1273	713.507	732.1285	735.9508	822.2113	843.7199	878.6596	899.1282	918.6042	935.2152	951.5811	963.7923	984.2777	1002.4939	1017.9918	1038.2204	1053.9603	1064.3391	1087.9727	1112.5622	1144.7015	1176.1836	1203.4718	1212.7143	1231.5486	1245.6436	1279.1634	1292.5566	1299.3071	1320.9448	1362.6422	1398.552	1418.5351	1477.2547	1482.8418	1486.7538	1498.4732	1502.0703	1511.6433	3016.016	3025.5319	3054.278	3076.73	3078.5983	3085.4437	3088.3185	3099.0752	3112.6688	3123.0652	3130.2935	3165.5911	3175.9489	3204.5276
CC1(C)CC2C3CC3C12	CC1(C)C[C@H]2[C@H]3C[C@H]3[C@@H]12	
InChI=1S/C9H14/c1-9(2)4-7-5-3-6(5)8(7)9/h5-8H,3-4H2,1-2H3	InChI=1S/C9H14/c1-9(2)4-7-5-3-6(5)8(7)9/h5-8H,3-4H2,1-2H3/t5-,6+,7-,8+/m0/s1
