19
gdb 52854	3.54424	0.87918	0.85454	2.9942	80.72	-0.2412	0.0393	0.2805	1464.1636	0.157746	-423.00249	-422.992636	-422.991691	-423.039312	34.745	
C	 0.1345592659	 1.5600156714	-0.4233378769	-0.50309
C	 0.0292437373	 0.1258318077	-0.1974793161	 0.108831
C	-0.0696022779	-1.0602851285	-0.010618563	-0.008479
C	-0.1489310016	-2.5044737941	 0.196972703	 0.153118
O	 0.4064916133	-3.212640444	-0.9195098466	-0.465457
C	 0.5079651417	-2.9857562408	 1.5144717074	-0.244819
C	-0.2403794391	-4.2955900246	 1.7523457367	-0.077855
O	-1.5895436027	-3.9998597183	 1.4103104314	-0.259249
C	-1.5992009038	-3.0426651952	 0.3586767469	-0.080678
H	 0.9822452498	 1.9902673972	 0.121148533	 0.14958
H	 0.2734015534	 1.7835784745	-1.4867415522	 0.152422
H	-0.7713604972	 2.0792606982	-0.0919539779	 0.153335
H	 1.2640068784	-2.8175073941	-1.1113423927	 0.28012
H	 1.5894208857	-3.0982796617	 1.4059217149	 0.098723
H	 0.3025701122	-2.2736396347	 2.3189587686	 0.114228
H	 0.1638301333	-5.0925375921	 1.1109928608	 0.100701
H	-0.2228572441	-4.6347181413	 2.791520052	 0.104583
H	-2.3015171216	-2.2450847284	 0.6176407264	 0.109041
H	-1.9025232529	-3.4978992713	-0.5916236659	 0.114945
16.8377	48.5712	96.7331	111.9417	222.0778	282.6211	286.8137	326.4796	386.149	408.2776	447.6119	534.7489	568.6845	650.2327	764.3461	875.6919	897.4642	934.7821	966.6831	969.154	1029.2616	1052.5294	1053.8229	1074.8553	1108.8736	1137.0451	1192.8634	1211.3416	1244.6637	1267.8993	1313.8442	1342.4985	1380.9374	1403.2091	1414.2655	1471.7811	1476.8188	1478.0385	1505.5836	1520.3867	2365.1396	2997.4045	3027.9797	3031.4266	3060.7449	3085.9224	3089.2759	3090.5233	3092.0978	3117.7271	3808.0205
CC#CC1(O)CCOC1	CC#C[C@@]1(O)CCOC1	
InChI=1S/C7H10O2/c1-2-3-7(8)4-5-9-6-7/h8H,4-6H2,1H3	InChI=1S/C7H10O2/c1-2-3-7(8)4-5-9-6-7/h8H,4-6H2,1H3/t7-/m1/s1
