18
gdb 18928	3.50651	2.40957	1.92347	1.6249	69.82	-0.2354	0.0793	0.3147	770.055	0.15615	-347.760952	-347.754752	-347.753808	-347.790921	25.785	
C	-0.0720472053	 1.5396152665	 0.0242181233	-0.434344
C	 0.094500321	 0.02237947	 0.0084671921	 0.065698
C	 1.0365495011	-0.6050269692	-1.0494404408	-0.107592
C	 2.4150990754	 0.0294351821	-0.7301422187	-0.254878
C	 2.3133295743	-0.774961871	 0.574859522	-0.068846
C	 1.5023703772	-1.8631120017	-0.1560229908	 0.109683
O	 0.5950726677	-2.0442896709	 0.9330851255	-0.2936
C	 0.8580277746	-0.6283889406	 1.1865535034	 0.051248
H	 0.8639994183	 2.0717701244	 0.2123766765	 0.119433
H	-0.4743379462	 1.9016189502	-0.9279524053	 0.118533
H	-0.7750982869	 1.8332693468	 0.8111959014	 0.116322
H	-0.8922235542	-0.4482744136	-0.036794969	 0.082015
H	 0.6726302668	-0.7079340254	-2.0706952718	 0.063751
H	 3.2085051294	-0.382385475	-1.361714829	 0.100453
H	 2.5075743686	 1.1165866986	-0.7076309989	 0.098207
H	 3.1380789537	-0.9835248064	 1.2539830146	 0.074816
H	 1.8800373246	-2.7711993444	-0.6240119925	 0.083309
H	 0.65663825	-0.3183876005	 2.2117026782	 0.075793
166.3094	238.1006	291.7696	442.5347	514.735	525.6792	658.7101	719.976	763.7813	799.1662	835.2446	852.3674	863.6626	920.9178	948.0872	959.2195	995.0733	1004.9424	1025.0015	1052.5112	1072.0767	1093.0994	1117.5935	1143.3285	1167.6375	1182.8557	1208.3721	1223.3247	1243.3005	1263.9025	1306.1142	1314.8732	1335.0737	1373.8919	1411.399	1492.1537	1498.2066	1520.4273	3035.4624	3058.6978	3061.4831	3094.5308	3107.6123	3121.101	3122.2123	3124.1229	3130.0681	3141.3776
CC1C2CC3C2OC13	C[C@H]1[C@H]2C[C@@H]3[C@H]2O[C@H]13	
InChI=1S/C7H10O/c1-3-4-2-5-6(3)8-7(4)5/h3-7H,2H2,1H3	InChI=1S/C7H10O/c1-3-4-2-5-6(3)8-7(4)5/h3-7H,2H2,1H3/t3-,4+,5-,6+,7-/m0/s1
