17
gdb 27886	1.81221	1.78984	0.90555	1.939	80.09	-0.2076	0.0104	0.2179	1242.6743	0.136005	-421.904211	-421.895664	-421.89472	-421.937794	32.632	
C	-0.0850797848	 1.5362038991	 0.0107804105	-0.488859
C	-0.022286456	 0.0279122009	 0.0023791124	 0.350114
C	 0.0139643339	-0.6650929287	-1.2082953141	-0.31033
C	 0.1038016877	-2.0554289777	-1.2130229004	 0.430691
O	 0.1341213148	-2.6786172266	-2.4259847023	-0.442849
C	 0.155600208	-2.7669472772	-0.013748502	-0.445431
C	 0.1160997469	-2.0685719184	 1.1936273347	 0.430691
O	 0.1588132817	-2.7048491074	 2.3993937923	-0.442843
C	 0.026281282	-0.6782114518	 1.2049436036	-0.310424
H	 0.9217665273	 1.9714402309	 0.0016921105	 0.134799
H	-0.6120091515	 1.9186809987	-0.8679302517	 0.125485
H	-0.5923727317	 1.9096531535	 0.9047485068	 0.12536
H	-0.0280205318	-0.141863999	-2.1567341273	 0.092991
H	 0.1939499801	-3.6296779024	-2.2911441811	 0.294919
H	 0.2208527561	-3.8532152524	-0.0200123119	 0.067741
H	 0.2167762707	-3.6544194744	 2.2536649851	 0.294922
H	-0.0059903934	-0.1653513171	 2.159400095	 0.093022
34.8563	192.2826	235.4269	237.5932	285.6391	330.1449	358.237	359.5334	511.3045	523.3736	528.4523	564.0256	594.5614	632.0634	698.2811	785.2995	844.5316	858.0036	988.0034	992.9686	1008.2741	1055.4054	1058.1619	1166.7057	1183.5268	1206.1668	1230.8171	1316.7784	1370.8289	1384.4647	1411.7202	1480.1302	1489.1686	1522.8969	1533.7303	1639.4216	1669.15	3030.1013	3089.1084	3117.1424	3137.7198	3193.8257	3195.5879	3826.5424	3827.3183
CC1=CC(O)=CC(O)=C1	Cc1cc(O)cc(O)c1	
InChI=1S/C7H8O2/c1-5-2-6(8)4-7(9)3-5/h2-4,8-9H,1H3	InChI=1S/C7H8O2/c1-5-2-6(8)4-7(9)3-5/h2-4,8-9H,1H3
