20
gdb 35059	2.29058	1.47872	1.43554	4.0712	81.89	-0.2769	0.0278	0.3047	1068.3151	0.174456	-366.039408	-366.031522	-366.030578	-366.07178	31.024	
N	-0.3359222722	-1.1259412146	-0.1519296962	-0.360271
C	-0.2021714104	 0.022767818	-0.0914215234	 0.306424
C	-0.0557477421	 1.4463965428	-0.0126802446	-0.197183
C	 0.4828629398	 2.1096276839	 1.2596761448	-0.046807
C	 0.9229775705	 1.2664555578	 2.4564420636	-0.231415
C	 2.4232975473	 0.9319567672	 2.4265564588	-0.185898
C	 2.8296878618	 0.3370043367	 1.073823205	-0.216188
C	 2.6233517123	 1.3525852492	-0.0655336279	-0.220882
C	 1.3125445106	 2.1209850006	 0.0033401771	-0.036678
H	-0.8416350726	 1.9799122524	-0.5376257171	 0.128683
H	-0.0312223047	 3.0327722387	 1.5067201729	 0.099312
H	 0.6794604686	 1.8080517212	 3.3753406485	 0.101476
H	 0.3485212324	 0.3331464134	 2.4882934637	 0.126486
H	 3.0076465316	 1.842638979	 2.6162672594	 0.092682
H	 2.6570013544	 0.2332386546	 3.23656477	 0.098983
H	 3.8820685526	 0.034874389	 1.0883033757	 0.095522
H	 2.2467636631	-0.5703823175	 0.8856204103	 0.132593
H	 3.4278611374	 2.0975206367	-0.0155770128	 0.104064
H	 2.7200344204	 0.8603339378	-1.0400605698	 0.111451
H	 1.3206714995	 3.0526182332	-0.555177628	 0.097647
108.188	120.8371	160.4436	287.8201	342.1637	367.5851	432.5549	477.1496	562.8141	606.9057	679.0086	722.4775	781.2713	788.1241	820.481	875.9158	919.7255	933.3419	943.4976	1013.415	1028.4343	1050.4342	1091.3914	1101.5216	1110.9787	1159.5073	1183.9698	1201.8823	1242.7448	1287.9788	1302.2517	1347.5236	1365.7392	1372.3354	1375.7655	1387.2499	1390.7326	1427.3063	1485.4985	1487.9232	1492.6662	1505.9064	2343.067	3015.6439	3021.9232	3036.0911	3046.3725	3060.9335	3073.1092	3080.5945	3093.099	3142.5722	3154.1477	3166.1578
N#CC1C2CCCCC12	N#C[C@H]1[C@H]2CCCC[C@@H]12	
InChI=1S/C8H11N/c9-5-8-6-3-1-2-4-7(6)8/h6-8H,1-4H2	InChI=1S/C8H11N/c9-5-8-6-3-1-2-4-7(6)8/h6-8H,1-4H2/t6-,7+,8-
