17
gdb 23036	3.39968	1.0969	0.91812	1.0838	71.94	-0.25	0.0026	0.2525	1260.0188	0.13554	-455.117345	-455.10837	-455.107425	-455.152903	31.484	
C	-0.0946583646	 1.4825568549	-0.0203274384	-0.480915
C	-0.0490122821	-0.0181528266	 0.0422275498	 0.371405
N	-0.0276626556	-0.7050063211	 1.1174036371	-0.174076
O	-0.0488411677	 0.1024435462	 2.2624809597	-0.395556
C	 0.0116593073	-0.7796022938	-1.2692843701	-0.084842
C	-0.0446556981	-2.3253112747	-1.1665465137	-0.122243
O	-1.207954473	-2.6868031286	-1.9575105233	-0.219072
C	-1.7115077479	-1.5215807283	-2.4104386255	 0.131136
N	-1.1493236775	-0.4225613542	-2.1226996732	-0.279141
H	 0.899566548	 1.9007282279	 0.1783754165	 0.138701
H	-0.4283672309	 1.8121684477	-1.0046329795	 0.150967
H	-0.7644784072	 1.8742389905	 0.7481417273	 0.150307
H	-0.0670404012	-0.5499719131	 2.9706348981	 0.306471
H	 0.9204505358	-0.4485428971	-1.7909049358	 0.10061
H	 0.8263167966	-2.8170403269	-1.604891463	 0.117557
H	-0.1956060448	-2.6740610578	-0.1455105712	 0.144805
H	-2.6038943171	-1.625073225	-3.0184665648	 0.143885
35.8257	46.5018	66.4663	192.0978	231.057	311.2487	353.6916	399.2868	426.2676	497.9256	538.2026	686.5865	734.5513	805.6213	891.0222	940.4345	961.9318	967.3184	992.2136	1007.3657	1025.3674	1061.3542	1092.7192	1148.5205	1220.972	1235.9357	1278.4947	1315.697	1360.7754	1379.5731	1395.9573	1402.1096	1476.5104	1487.3922	1519.3895	1702.4717	1737.8121	3002.4685	3040.9101	3079.3427	3111.2832	3146.9997	3156.5643	3212.2649	3818.765
CC(=NO)C1COC=N1	CC(=NO)[C@H]1COC=N1	
InChI=1S/C5H8N2O2/c1-4(7-8)5-2-9-3-6-5/h3,5,8H,2H2,1H3	InChI=1S/C5H8N2O2/c1-4(7-8)5-2-9-3-6-5/h3,5,8H,2H2,1H3/t5-/m1/s1
