17
gdb 112377	2.77341	1.26949	0.92493	2.57	70.58	-0.2538	-0.0072	0.2466	1243.8271	0.136943	-455.239511	-455.230835	-455.229891	-455.273821	31.078	
C	-0.1995795557	 1.569567875	-0.117989449	-0.380988
C	 0.1580406974	 0.0835628761	-0.0373284336	-0.15313
N	 0.7956400796	-0.422741462	-1.2387722217	-0.119762
C	 0.1256955452	-0.6329566582	-2.5045363527	-0.316634
C	 1.219240819	-1.2476622073	-3.3874800892	 0.433539
O	 1.12929376	-1.5842032638	-4.5404617348	-0.350673
N	 2.3249420682	-1.3282238949	-2.571717071	-0.405384
C	 2.0985656574	-0.8496821162	-1.2644342414	 0.488352
O	 2.9097151213	-0.8341046332	-0.3689570186	-0.405923
H	 0.6968233206	 2.17541121	-0.2780015361	 0.134998
H	-0.90222264	 1.7736841727	-0.9324548266	 0.120244
H	-0.6713943749	 1.8925578612	 0.8148767288	 0.125894
H	 0.8651697543	-0.0957884817	 0.7760150096	 0.151075
H	-0.7423972088	-0.511557316	 0.1666029705	 0.107375
H	-0.7227347547	-1.3253786742	-2.425113801	 0.144597
H	-0.2391127408	 0.2944762564	-2.9619226884	 0.148156
H	 3.218289502	-1.696811914	-2.8566289949	 0.278264
48.341	80.3554	146.003	192.0566	203.4968	305.6177	347.3256	416.459	547.2172	567.1487	588.1271	605.5237	685.3683	760.7857	792.3224	806.1993	890.3874	967.4317	1016.8835	1076.8837	1097.3204	1140.2201	1192.7484	1239.394	1268.9235	1323.6303	1345.3155	1355.733	1399.9454	1414.5973	1447.5437	1482.8683	1493.4205	1500.1839	1508.5738	1840.7332	1875.6636	3015.9423	3022.83	3040.3921	3059.2607	3100.2042	3117.6771	3124.2915	3659.7861
CCN1CC(=O)NC1=O	CCN1CC(=O)NC1=O	
InChI=1S/C5H8N2O2/c1-2-7-3-4(8)6-5(7)9/h2-3H2,1H3,(H,6,8,9)	InChI=1S/C5H8N2O2/c1-2-7-3-4(8)6-5(7)9/h2-3H2,1H3,(H,6,8,9)
