17
gdb 85246	2.75243	1.59416	1.16203	3.4117	68.41	-0.2594	0.0024	0.2618	1061.0601	0.135444	-458.997126	-458.988938	-458.987994	-459.029572	31.365	
C	 0.079366807	 1.5263224968	-0.0789849083	-0.397682
C	 0.0156182054	 0.0189831427	 0.0930360371	 0.108
O	 0.5988675344	-0.6192183524	-1.0815652913	-0.238907
C	 1.3314505676	-1.7025201446	-0.7325647915	 0.382278
O	 1.6932815949	-2.5500464069	-1.5027344188	-0.367739
C	 1.5911207939	-1.6936646527	 0.7415579895	 0.305369
O	 1.7743442263	-2.9245250937	 1.3389834475	-0.469759
C	 2.2738478098	-0.4402882476	 1.2458434085	-0.350914
C	 0.7673147583	-0.5617209351	 1.2853845309	-0.147686
H	 1.1135735127	 1.879548929	-0.0999362653	 0.130019
H	-0.4089850333	 1.824496733	-1.0102414736	 0.137787
H	-0.4365591388	 2.0143573548	 0.7535619303	 0.12673
H	-1.0319009966	-0.3046920976	 0.1287516687	 0.103984
H	 2.0971097862	-3.5084406452	 0.6377048256	 0.30076
H	 2.7823014697	-0.5664760267	 2.1951235876	 0.134528
H	 2.7528829308	 0.2409272041	 0.5497783457	 0.128032
H	 0.2612309718	-0.6285080478	 2.2401222874	 0.115201
132.8426	138.4303	222.8825	230.0314	284.1382	317.1561	334.3591	404.4994	509.3503	516.1031	579.4085	676.8824	718.4794	782.4557	798.5978	883.5635	932.0388	941.2181	970.9324	1000.9329	1025.9263	1065.7088	1098.4291	1112.3825	1144.1353	1157.9808	1215.6458	1302.6517	1355.4891	1379.2056	1398.2403	1414.8254	1432.1351	1486.011	1491.175	1500.1645	1864.0302	3032.7184	3048.5357	3121.9922	3128.3593	3131.1314	3198.5119	3225.216	3748.0576
CC1OC(=O)C2(O)CC12	C[C@H]1OC(=O)[C@@]2(O)C[C@@H]12	
InChI=1S/C6H8O3/c1-3-4-2-6(4,8)5(7)9-3/h3-4,8H,2H2,1H3	InChI=1S/C6H8O3/c1-3-4-2-6(4,8)5(7)9-3/h3-4,8H,2H2,1H3/t3-,4+,6-/m1/s1
