13
gdb 131458	3.24403	1.28731	0.9216	3.8321	62.52	-0.2366	-0.0174	0.2192	1146.0505	0.089883	-489.896844	-489.88925	-489.888306	-489.929423	27.687	
O	 0.0995892692	 1.3327522868	 0.1980473036	-0.431023
C	 0.07202882	-0.0027002508	 0.0474981585	 0.37601
N	 0.0676867002	-0.6007535972	-1.1147181566	-0.239887
O	 0.0360312429	-1.9619434144	-0.8179291265	-0.176088
C	 0.0229918627	-2.1308494335	 0.5184364789	 0.033786
C	 0.0445200927	-0.9185209866	 1.1368715288	 0.160234
N	 0.0424308067	-0.5633348869	 2.4841852891	-0.425077
C	 0.0162365977	-1.4657099363	 3.5090820198	 0.141708
O	-0.0076852985	-2.6675514805	 3.3587032064	-0.308934
H	 0.1136893133	 1.7340696293	-0.681070567	 0.318649
H	-0.0013156455	-3.1390068163	 0.8909504427	 0.186229
H	 0.0614795297	 0.4222824813	 2.6978026424	 0.271055
H	 0.0200188389	-0.9683358948	 4.49581249	 0.093337
72.2002	158.4205	207.1377	241.6501	313.6712	388.3244	448.3032	484.2732	548.1653	586.2614	611.0938	732.174	733.8755	839.3005	882.7666	932.2648	960.7856	1013.7682	1137.2039	1157.3846	1206.3752	1252.7823	1292.8791	1425.1725	1501.766	1528.3246	1601.6991	1693.7437	1797.8109	2973.8912	3316.0153	3628.721	3786.0734
OC1=NOC=C1NC=O	Oc1nocc1NC=O	
InChI=1S/C4H4N2O3/c7-2-5-3-1-9-6-4(3)8/h1-2H,(H,5,7)(H,6,8)	InChI=1S/C4H4N2O3/c7-2-5-3-1-9-6-4(3)8/h1-2H,(H,5,7)(H,6,8)
