18
gdb 84775	2.27644	1.54577	1.24736	5.7818	77.07	-0.2483	-0.0036	0.2447	1078.24	0.149352	-398.136809	-398.128032	-398.127087	-398.169945	33.58	
N	-0.0969934836	 1.5242375533	-0.1152157787	-0.518156
C	-0.0453502569	 0.0688301512	-0.0154727295	-0.051457
C	 0.6070616569	-0.5200316069	 1.2167361132	-0.09963
C	-0.0813029102	-1.5423903331	 1.7196043056	-0.08068
C	-1.321898121	-1.8471941313	 0.9161475447	-0.292269
C	-1.504971129	-0.566646437	 0.0484317787	 0.112207
N	-2.4940670297	 0.3039406075	 0.6852535776	-0.53413
C	-1.9751406849	-0.8804419476	-1.3089697497	 0.295767
N	-2.3037211343	-1.1307032367	-2.3883338255	-0.352627
H	-0.049130023	 1.9550202369	 0.8016551129	 0.228663
H	 0.6790334085	 1.8820400659	-0.6581304147	 0.241845
H	 0.4559876817	-0.3015205498	-0.918080098	 0.107252
H	 1.5468062472	-0.1368099932	 1.6003125186	 0.099486
H	 0.210278938	-2.1364996594	 2.5783392953	 0.106135
H	-1.1759038923	-2.7343295985	 0.2887821988	 0.135681
H	-2.2167656231	-2.0288227162	 1.5193636518	 0.129056
H	-2.2506595972	 0.4037579938	 1.6678528024	 0.227218
H	-2.413520057	 1.2296767011	 0.2689911666	 0.245638
83.5548	148.7237	174.7606	201.0856	275.6691	300.8649	357.7617	397.2857	417.7843	501.0312	547.3662	583.717	609.2202	709.9905	744.8038	795.5737	821.837	883.556	930.1634	963.5323	975.8121	999.8905	1020.6455	1056.2139	1104.1186	1119.2472	1156.6009	1198.2616	1226.5718	1281.2199	1301.8683	1351.99	1367.1979	1410.1331	1486.0815	1653.0904	1667.4047	1684.5217	2357.1137	3031.4479	3041.2112	3083.5536	3180.8878	3207.5946	3469.8553	3518.9134	3552.74	3605.3803
NC1C=CCC1(N)C#N	N[C@H]1C=CC[C@]1(N)C#N	
InChI=1S/C6H9N3/c7-4-6(9)3-1-2-5(6)8/h1-2,5H,3,8-9H2	InChI=1S/C6H9N3/c7-4-6(9)3-1-2-5(6)8/h1-2,5H,3,8-9H2/t5-,6-/m0/s1
