16
gdb 34093	3.55391	1.53562	1.32549	0.8097	73.62	-0.2194	0.027	0.2465	964.9943	0.125239	-400.65816	-400.651198	-400.650254	-400.689295	28.286	
C	 0.0340003205	-1.1704337895	 0.0443366248	-0.319876
C	 0.0081459479	 0.0302546606	 0.0024714775	 0.130441
C	-0.0546783077	 1.473339103	-0.0256157844	 0.160084
C	-1.0117114986	 2.1152690799	 0.9942257253	-0.126364
O	-1.0380587353	 3.496322195	 0.6293444116	-0.271599
C	-0.6264598151	 3.5760816222	-0.7190555612	 0.080441
C	 0.7849719183	 3.1079254499	-1.0414966661	-0.050506
N	 1.2717344893	 2.1946706975	-0.0045768955	-0.351685
C	-0.416866916	 2.2337328521	-1.339667629	-0.199727
H	 0.0706060976	-2.2314446097	 0.0737545067	 0.188946
H	-2.0143409565	 1.6671461009	 0.9314876053	 0.105767
H	-0.6448719382	 2.0289886476	 2.0221450394	 0.117391
H	-1.0714903213	 4.3968064801	-1.2685576789	 0.109308
H	 1.465945627	 3.6199772022	-1.7123650029	 0.098918
H	 1.4442616995	 2.6571500799	 0.8889403052	 0.219625
H	-0.8286996613	 1.8231643683	-2.2496948278	 0.108835
144.0287	153.3036	258.302	388.1746	468.4689	499.037	515.9664	575.1006	634.5258	661.5192	678.3274	733.527	764.5042	802.3759	834.4792	886.0473	954.2677	980.1612	993.0469	1029.5904	1049.1383	1068.9412	1076.2937	1099.4271	1112.0825	1153.9791	1187.5244	1227.2052	1251.5772	1298.0573	1355.2426	1382.389	1397.6797	1509.5557	2243.1334	2997.0166	3078.9725	3170.7961	3193.8736	3226.2049	3438.5382	3501.3316
C#CC12COC3C(N1)C23	C#C[C@@]12CO[C@H]3[C@@H](N1)[C@@H]23	
InChI=1S/C7H7NO/c1-2-7-3-9-6-4(7)5(6)8-7/h1,4-6,8H,3H2	InChI=1S/C7H7NO/c1-2-7-3-9-6-4(7)5(6)8-7/h1,4-6,8H,3H2/t4-,5+,6-,7+/m1/s1
