23
gdb 104867	2.25581	1.39601	1.1241	0.9496	87.27	-0.2428	0.0159	0.2586	1246.5072	0.204842	-388.298167	-388.288252	-388.287308	-388.333058	37.024	
C	-1.0977513547	-1.0098163915	-0.2519058197	-0.386719
C	 0.168132496	-0.173602496	-0.0441206269	-0.230928
C	 0.8234167626	-0.3596718871	 1.336633715	 0.381886
C	 1.3176778729	-1.80329027	 1.6080463321	-0.247513
C	 2.6446451242	-1.6637598035	 2.3918307339	-0.267172
C	 3.0685518275	-0.2493745413	 2.0838849989	-0.075539
C	 2.0984795386	 0.4526595746	 1.5024909018	-0.115829
O	-0.1283039343	-0.0831566306	 2.3877461344	-0.289665
C	-0.4721476866	 1.2675630969	 2.5963247485	-0.246546
H	-1.8404230791	-0.7877058647	 0.5186854358	 0.128741
H	-1.5440848152	-0.8053574056	-1.2298603907	 0.105833
H	-0.882339483	-2.0821808215	-0.2036653299	 0.115544
H	 0.9166641207	-0.4197342921	-0.8069958137	 0.096713
H	-0.0662156783	 0.8883550946	-0.1910324867	 0.090801
H	 0.5549407669	-2.3699579078	 2.1447481485	 0.111403
H	 1.5067228463	-2.3082010199	 0.6557783018	 0.098316
H	 2.5044220616	-1.7996992153	 3.4722538094	 0.115434
H	 3.3916412206	-2.4036247856	 2.083003473	 0.101611
H	 4.0523525853	 0.1346587919	 2.3342647692	 0.094192
H	 2.1722765056	 1.4901352685	 1.1955868463	 0.09087
H	 0.3910619663	 1.8756728633	 2.901697578	 0.104924
H	-0.9293396483	 1.7359623951	 1.7120642581	 0.100853
H	-1.2069769357	 1.2805893575	 3.4059452429	 0.122791
65.1976	88.6433	116.0263	177.622	205.0977	216.6877	265.8743	313.3342	358.4973	388.3829	458.5897	534.2809	619.0226	699.9073	767.4545	781.7466	796.0299	845.6653	905.4725	931.7892	956.0602	983.1251	997.9962	1030.8958	1046.182	1102.8604	1113.068	1123.2203	1142.2671	1180.744	1195.5519	1201.9568	1235.5968	1251.6582	1303.8451	1313.9325	1324.1955	1367.7708	1387.0934	1405.9864	1467.9053	1473.0008	1483.9335	1488.6298	1495.296	1497.4667	1508.8722	1512.4281	1685.0532	2982.6386	3023.1493	3024.1549	3033.7384	3040.6047	3051.0823	3056.3774	3066.1074	3103.2709	3104.18	3120.7214	3121.8582	3174.4594	3200.9788
CCC1(CCC=C1)OC	CC[C@]1(CCC=C1)OC	
InChI=1S/C8H14O/c1-3-8(9-2)6-4-5-7-8/h4,6H,3,5,7H2,1-2H3	InChI=1S/C8H14O/c1-3-8(9-2)6-4-5-7-8/h4,6H,3,5,7H2,1-2H3/t8-/m0/s1
