12
gdb 53780	3.30345	1.08972	0.92265	3.8427	61.87	-0.2734	-0.1415	0.1319	1217.9702	0.072945	-472.647816	-472.638353	-472.637409	-472.683919	30.589	
C	 0.2308371712	 1.2707056622	 0.369608827	-0.491577
C	-0.2330179909	-0.1367632173	 0.1258318078	 0.317067
O	-0.9001371597	-0.8066066384	 0.8746360737	-0.25715
C	 0.0898443552	-0.7441078957	-1.2541973744	 0.209177
O	 0.1345552373	-0.0991631268	-2.2688152468	-0.243893
C	 0.3284829393	-2.2667092875	-1.2930026584	 0.238745
O	 0.9222569839	-2.8415802126	-0.4211477329	-0.231996
C	-0.1082137312	-2.9305794755	-2.5301418933	 0.251797
N	-0.4821610474	-3.4634749218	-3.4855021962	-0.286947
H	-0.0390094972	 1.9049090405	-0.4800047536	 0.172516
H	-0.2023750681	 1.6509861205	 1.2947480929	 0.159348
H	 1.3253600175	 1.2856160025	 0.4398706241	 0.162913
28.472	50.7479	124.082	132.1199	169.7521	218.0693	257.3187	316.2576	360.9046	447.0826	510.0989	584.4372	608.6721	714.9558	779.4302	870.3264	991.3127	1041.388	1157.4254	1280.2992	1385.0506	1456.9342	1460.1121	1789.5735	1806.6612	1821.6583	2341.2941	3041.3969	3108.2253	3164.9713
CC(=O)C(=O)C(=O)C#N	CC(=O)C(=O)C(=O)C#N	
InChI=1S/C5H3NO3/c1-3(7)5(9)4(8)2-6/h1H3	InChI=1S/C5H3NO3/c1-3(7)5(9)4(8)2-6/h1H3
