13
gdb 5194	6.36093	1.16224	1.07744	2.6706	59.8	-0.2427	-0.0258	0.217	1037.8001	0.095672	-398.636582	-398.6296	-398.628656	-398.669203	24.05	
O	-0.4143692565	 0.6608437312	 0.8707636851	-0.233417
C	 0.0911202525	 1.0174628011	-0.1601032543	 0.160379
C	 1.4137611036	 1.7727243918	-0.2449643491	-0.38786
C	 1.3526532037	 2.9014376355	-1.2217528011	 0.229548
C	 1.3662873832	 4.2403777692	-1.0095328861	-0.106939
O	 1.2653061649	 4.8666533007	-2.2212409836	-0.133863
C	 1.1872605431	 3.8559051012	-3.1125282965	 0.079038
N	 1.2328262412	 2.6737338903	-2.5933775346	-0.299277
H	-0.3772028454	 0.8092596637	-1.1461947448	 0.10105
H	 1.6870520465	 2.1116211769	 0.7567245013	 0.131263
H	 2.170280751	 1.0497078847	-0.5809382518	 0.146778
H	 1.4418303388	 4.8742309489	-0.1432004378	 0.15589
H	 1.0996080135	 4.1296354148	-4.1521576366	 0.15741
46.1231	72.1999	154.0507	308.5975	378.2447	449.5786	638.8876	666.4686	723.37	777.931	811.4151	851.5109	937.4378	978.9893	1034.2157	1051.2088	1097.6691	1136.0481	1192.5221	1246.4127	1277.0262	1303.2786	1351.0023	1418.6802	1447.5652	1555.7237	1629.5061	1836.813	2907.5242	3022.3939	3117.1686	3278.5033	3296.9575
O=CCC1=COC=N1	O=CCc1cocn1	
InChI=1S/C5H5NO2/c7-2-1-5-3-8-4-6-5/h2-4H,1H2	InChI=1S/C5H5NO2/c7-2-1-5-3-8-4-6-5/h2-4H,1H2
