20
gdb 122577	4.794	0.76766	0.70756	2.2905	75.89	-0.2473	0.0246	0.2719	1627.3313	0.171066	-440.290691	-440.281391	-440.280447	-440.32645	32.743	
C	 0.153048719	 1.1880614723	-0.0314854395	-0.386435
C	 0.4452493	-0.2981296644	 0.1655606185	-0.040867
O	 1.2186578601	-0.8713010232	-0.8765831102	-0.249256
C	 0.5213785199	-1.0954500942	-2.0805466331	-0.082461
C	 1.4499529797	-1.9010538979	-2.9814351003	 0.072465
C	 1.7183663962	-3.3474477052	-2.4925020056	-0.189307
N	 1.0614742606	-4.2149093242	-3.4891859194	-0.261315
C	 0.6148599561	-3.4344204354	-4.3789170338	 0.118671
O	 0.7896922289	-2.0930449243	-4.2611707589	-0.234171
H	 1.0844642565	 1.7462480357	-0.1648292679	 0.127931
H	-0.4847297598	 1.3688391062	-0.9018063186	 0.12333
H	-0.3651082718	 1.5857551615	 0.8472125256	 0.118706
H	 1.0354846653	-0.4448131544	 1.0758431005	 0.110464
H	-0.4951521491	-0.8597538048	 0.2866298354	 0.090841
H	-0.405098865	-1.6673457747	-1.9008758394	 0.093671
H	 0.2438037309	-0.1575229606	-2.5830599797	 0.102618
H	 2.3667585598	-1.3332947179	-3.1598556043	 0.102305
H	 2.7854558375	-3.5859820602	-2.445497971	 0.119763
H	 1.3018843996	-3.5222147135	-1.4959083674	 0.123695
H	 0.0831955158	-3.7358795309	-5.2747360808	 0.139353
38.4794	64.9295	81.8769	143.2214	162.0485	238.9005	316.8829	392.2827	421.9472	484.9696	531.6661	735.363	803.0321	849.9772	877.4844	911.7149	937.6416	964.6191	973.4598	989.4891	1026.3105	1087.2489	1107.0719	1121.3391	1130.1492	1164.1709	1199.1579	1214.5939	1258.4218	1299.2955	1310.8787	1326.6538	1345.7221	1373.7024	1397.0301	1413.7913	1429.4592	1488.6143	1489.8124	1502.2261	1508.649	1525.3109	1711.9808	2962.1039	2979.165	3015.0243	3041.6143	3051.4703	3071.5981	3076.7229	3091.9377	3111.3979	3120.402	3216.2301
CCOCC1CN=CO1	CCOC[C@H]1CN=CO1	
InChI=1S/C6H11NO2/c1-2-8-4-6-3-7-5-9-6/h5-6H,2-4H2,1H3	InChI=1S/C6H11NO2/c1-2-8-4-6-3-7-5-9-6/h5-6H,2-4H2,1H3/t6-/m1/s1
