18
gdb 94265	2.15327	1.45681	1.28552	2.2245	73.66	-0.2192	-0.0496	0.1696	1101.0486	0.144537	-439.070209	-439.060699	-439.059755	-439.104819	33.365	
C	-0.4678304673	 1.5094021476	 0.0534594926	-0.340146
N	-0.2164135587	 0.088208802	 0.2089534442	-0.10659
C	-1.224653748	-0.7954514583	 0.8147941391	-0.157854
C	-0.0806547187	-1.6734800524	 1.3723071742	-0.273081
C	 0.863067213	-0.4455677688	 1.0453920364	 0.123404
C	 2.1142241501	-0.8261584938	 0.2721926103	 0.099828
O	 3.1393495233	-1.195751808	 0.7861814745	-0.253502
C	 1.2130005538	 0.2776484044	 2.3409050457	 0.103012
O	 0.4754428222	 1.0538844987	 2.8947476302	-0.262122
H	 0.4375492223	 2.0003903086	-0.3196913204	 0.119398
H	-1.2496433372	 1.6450935292	-0.7018504523	 0.122063
H	-0.775693832	 2.0095757838	 0.9807990309	 0.134358
H	-1.8082294802	-0.3167102823	 1.6135840331	 0.112988
H	-1.9113747575	-1.2616681243	 0.0996530035	 0.105928
H	-0.1326149202	-1.9628992416	 2.4214911358	 0.1331
H	 0.1511845193	-2.5459216336	 0.7596926371	 0.129135
H	 1.9817874754	-0.7624682675	-0.8305819372	 0.095463
H	 2.2082948903	 0.0110973463	 2.7528217322	 0.114619
68.3716	105.3661	135.048	175.2069	186.6187	220.1909	249.7077	276.1309	342.8579	355.9517	481.2911	644.5557	668.2721	742.1333	803.6092	864.6137	961.6287	972.6594	984.4576	998.7838	1089.6449	1116.9981	1135.13	1177.1817	1192.4539	1211.4284	1248.5741	1260.8949	1272.6454	1339.7189	1383.3145	1400.4486	1450.3974	1479.5048	1482.0743	1510.077	1525.7801	1804.9364	1823.9979	2894.0644	2926.52	3002.6729	3011.6312	3056.7726	3075.1582	3089.1753	3093.9861	3151.5892
CN1CCC1(C=O)C=O	CN1CCC1(C=O)C=O	
InChI=1S/C6H9NO2/c1-7-3-2-6(7,4-8)5-9/h4-5H,2-3H2,1H3	InChI=1S/C6H9NO2/c1-7-3-2-6(7,4-8)5-9/h4-5H,2-3H2,1H3
