23
gdb 111004	2.44422	1.38456	1.10091	1.2015	85.07	-0.2494	0.0757	0.3251	1236.7363	0.206887	-388.288485	-388.279582	-388.278637	-388.321727	35.458	
C	-0.0224866578	 1.5752765017	 0.1251315359	-0.38327
C	-0.0006731807	 0.0427676572	 0.1672377302	-0.218851
C	-1.3947683911	-0.5651983519	 0.040821499	 0.024852
C	-2.0430662629	-0.6676724554	-1.3807127152	-0.028547
C	-1.2287617286	-1.9763845016	-1.5845396676	-0.305279
C	-1.497949562	-2.1155351324	-0.0504411984	 0.414154
O	-0.7005105092	-2.8724188228	 0.8071149791	-0.494191
C	-3.0255965935	-2.333556988	-0.0193994883	-0.277851
C	-3.4436651005	-1.2231294352	-1.0390164032	-0.217266
H	 0.9839116919	 1.9886295629	 0.2446473806	 0.110016
H	-0.4226975366	 1.9447375981	-0.8253637038	 0.113573
H	-0.6475281348	 1.9847825381	 0.92665689	 0.112336
H	 0.667577282	-0.3309175993	-0.6155007535	 0.096033
H	 0.4342664541	-0.2923679636	 1.1166918487	 0.108892
H	-2.043693114	-0.1175500508	 0.805614154	 0.052309
H	-1.9892448007	 0.1543333728	-2.0940361978	 0.060299
H	-1.6459512579	-2.7369023967	-2.2529005559	 0.078267
H	-0.1770195649	-1.8130960886	-1.8165104832	 0.10335
H	-0.9306467807	-3.8014441696	 0.6999551805	 0.277163
H	-3.30421633	-3.3406692424	-0.3496671062	 0.083684
H	-3.4354565626	-2.1785310967	 0.9827606895	 0.099457
H	-4.0928322011	-0.4660277132	-0.5898653579	 0.096647
H	-3.9554720882	-1.6289001726	-1.9165273065	 0.094223
80.3235	144.2842	207.5649	224.5946	269.0107	274.6151	313.6994	389.978	436.1252	483.9101	536.9672	603.0434	665.0485	755.3454	821.6215	834.2097	852.2175	892.5712	898.3199	940.8557	953.3435	973.9845	988.3994	1026.9187	1059.4335	1069.3367	1108.4751	1117.0495	1126.9291	1154.718	1190.6775	1216.56	1221.4945	1239.6304	1260.9936	1265.9622	1299.1434	1308.2516	1318.6053	1346.2581	1376.1516	1411.0952	1421.251	1483.6265	1492.1206	1498.0581	1500.6838	1508.3814	1522.8922	3007.9343	3029.4873	3035.1994	3036.0408	3049.3618	3054.0464	3068.6148	3082.0562	3098.1114	3100.9657	3101.578	3116.5194	3141.6563	3806.634
CCC1C2CC1(O)CC2	CC[C@H]1[C@H]2C[C@]1(O)CC2	
InChI=1S/C8H14O/c1-2-7-6-3-4-8(7,9)5-6/h6-7,9H,2-5H2,1H3	InChI=1S/C8H14O/c1-2-7-6-3-4-8(7,9)5-6/h6-7,9H,2-5H2,1H3/t6-,7+,8-/m1/s1
