20
gdb 68218	3.68846	1.31039	1.24068	2.2806	79.02	-0.2369	0.0805	0.3174	1101.0262	0.171824	-403.106832	-403.099028	-403.098084	-403.138681	31.751	
C	 0.0249126355	 1.4952408205	 0.1261533534	-0.493632
C	 0.0052018245	 0.0020372854	-0.0308139035	 0.409452
C	 0.9052374141	-0.7848760124	-1.0227689636	-0.273615
C	 0.691670144	-1.8319081447	 0.088409901	-0.013709
O	 0.6618769401	-0.742393628	 1.0608404563	-0.328919
C	-0.7909910193	-2.1718158918	-0.0356955724	 0.408309
C	-1.3041641364	-3.4021120057	-0.6736223042	-0.321171
N	-1.4526586082	-3.1828164319	 0.7817001765	-0.372814
C	-1.3536184479	-0.7416446194	-0.1307949353	-0.338375
H	 1.0498769936	 1.8627451888	 0.2262280445	 0.126273
H	-0.4349298902	 1.9754918825	-0.743785091	 0.122164
H	-0.5381899651	 1.793490532	 1.0164862146	 0.131666
H	 0.5379188972	-0.9930300874	-2.0312874852	 0.09528
H	 1.9262193811	-0.400443694	-1.0340432821	 0.105913
H	 1.3970201853	-2.6316068332	 0.3213449405	 0.071016
H	-2.2347134681	-3.3822853591	-1.235001034	 0.117828
H	-0.5859578932	-4.142034374	-1.0218506545	 0.107455
H	-0.766724523	-3.7335634759	 1.2942136752	 0.228868
H	-2.0036423893	-0.5108804807	 0.7159979962	 0.119145
H	-1.8868237245	-0.535649671	-1.0634779024	 0.098866
118.8964	192.9306	230.7049	264.5966	332.5546	368.3316	418.7473	453.7949	515.4816	585.9605	651.4192	771.8667	801.2827	819.7312	850.3445	882.1191	896.8386	928.2444	935.2247	967.5199	982.6004	987.1612	1036.5889	1059.9443	1073.6259	1114.9312	1123.4891	1183.4802	1198.837	1211.7495	1223.2775	1249.9963	1263.4751	1274.1566	1304.8859	1345.2578	1414.9275	1422.9021	1474.0509	1480.2624	1491.6031	1494.669	1517.4591	3037.8448	3058.2825	3063.5268	3096.1893	3107.3787	3107.3969	3117.1051	3117.8604	3137.5272	3179.6669	3483.4327
CC12CC(O1)C1(CN1)C2	C[C@@]12C[C@@H](O1)[C@]1(CN1)C2	
InChI=1S/C7H11NO/c1-6-2-5(9-6)7(3-6)4-8-7/h5,8H,2-4H2,1H3	InChI=1S/C7H11NO/c1-6-2-5(9-6)7(3-6)4-8-7/h5,8H,2-4H2,1H3/t5-,6+,7-/m1/s1
