24
gdb 6802	5.93659	0.70119	0.65575	0.7982	83.56	-0.2487	0.0879	0.3366	1834.1954	0.220905	-351.414863	-351.404003	-351.403059	-351.451352	38.13	
C	 0.0352388036	 1.5022593722	-0.0055395736	-0.381939
C	-0.0285512135	-0.0269094476	-0.0098660042	-0.182528
C	-1.4582199084	-0.5504044035	 0.0171373097	-0.029053
O	-1.4293494085	-1.9605240328	 0.0115746253	-0.250338
C	-2.7107103063	-2.5514669012	 0.035984414	-0.037989
C	-2.567542811	-4.0722976487	-0.0171811739	 0.021868
C	-3.9384363013	-4.7401869826	 0.1436487292	-0.39226
C	-1.8668680358	-4.5190021773	-1.305987668	-0.378926
H	 1.0711298304	 1.8529186916	-0.0237423957	 0.11655
H	-0.4735860637	 1.9261089202	-0.8784693088	 0.115674
H	-0.4403483514	 1.9194921652	 0.8890584221	 0.115644
H	 0.4710308766	-0.4262657622	-0.9000156513	 0.105371
H	 0.506394078	-0.432773969	 0.8564345894	 0.105706
H	-1.9837609365	-0.1807485593	 0.9157501565	 0.079877
H	-2.0204216872	-0.1747831551	-0.8563845614	 0.080443
H	-3.2508282402	-2.2513796786	 0.9509273617	 0.077924
H	-3.3118602732	-2.1990920798	-0.8223623935	 0.077116
H	-1.9369822761	-4.3597986938	 0.8349143319	 0.081263
H	-4.6106890269	-4.4630659601	-0.6774082661	 0.11226
H	-3.8442431479	-5.8305648873	 0.1370400185	 0.11359
H	-4.4218768938	-4.4515837119	 1.0832209988	 0.11025
H	-2.4787016829	-4.2788427465	-2.1844665774	 0.10482
H	-0.9043827572	-4.0147908771	-1.4173381706	 0.12922
H	-1.6957258068	-5.600364465	-1.3060596726	 0.105457
51.2475	63.1258	98.5339	133.5343	159.0413	215.535	226.3211	236.7534	249.3185	294.68	368.9625	402.5674	456.5527	525.5093	766.194	832.3394	900.4672	910.1374	925.2686	931.7908	962.6494	977.7212	1017.4254	1057.714	1134.4225	1159.2816	1166.9568	1184.6824	1200.6716	1204.1508	1266.8516	1277.8751	1314.719	1324.6915	1337.5994	1374.0492	1395.8938	1399.8615	1413.6121	1418.0911	1454.1376	1488.7781	1490.0851	1492.3868	1501.2901	1502.7855	1505.5899	1512.3222	1514.2901	1535.1993	2930.3327	2944.0812	2962.8104	2964.9248	3019.0936	3023.9709	3029.691	3031.5176	3038.5356	3070.9904	3087.2617	3093.0602	3099.451	3102.1446	3107.6623	3126.877
CCCOCC(C)C	CCCOCC(C)C	
InChI=1S/C7H16O/c1-4-5-8-6-7(2)3/h7H,4-6H2,1-3H3	InChI=1S/C7H16O/c1-4-5-8-6-7(2)3/h7H,4-6H2,1-3H3
