21
gdb 110324	2.12545	1.59603	1.08606	2.4232	79.88	-0.2272	0.0789	0.3061	1213.8006	0.179915	-424.178724	-424.169013	-424.168069	-424.212909	35.968	
C	 0.1303112364	 1.1947379429	-0.3161874196	-0.238073
O	-0.0449086745	 0.0559143863	 0.5038968777	-0.237767
C	-1.2649226631	-0.5734247486	 0.2921739083	 0.082205
C	-1.5402771973	-1.600434827	-0.7908510058	-0.286705
C	-0.3926792459	-2.6067872091	-0.9050702886	 0.157332
C	 0.9480760458	-2.2351719709	-1.5063002235	-0.418823
O	-0.3534368498	-2.7910677081	 0.5398050007	-0.330751
C	-1.5161006878	-1.9789065969	 0.7065652394	 0.400827
C	-2.5373941242	-2.4553169648	 1.6890199124	-0.48977
H	 1.10253885	 1.6253238764	-0.0657296602	 0.128735
H	 0.1152755972	 0.9336480709	-1.3841159037	 0.110407
H	-0.650581258	 1.9483958751	-0.1320494754	 0.106625
H	-2.1297972184	 0.0762151644	 0.4575676477	 0.083964
H	-2.3627397866	-1.515779295	-1.490656336	 0.08991
H	-0.7644046306	-3.535885565	-1.358744645	 0.07916
H	 1.3592001413	-1.3516031131	-1.0178190551	 0.144812
H	 1.6552807531	-3.0623425418	-1.3845624202	 0.121843
H	 0.8392235109	-2.0411144035	-2.5791110618	 0.110066
H	-2.108973293	-2.4741912742	 2.6976175833	 0.137513
H	-3.4061422286	-1.7911251302	 1.7013918995	 0.120883
H	-2.8717635071	-3.4683588678	 1.444762726	 0.127608
92.3993	153.7996	166.8347	178.0875	198.4294	216.7177	234.928	265.385	311.2722	385.1522	431.8732	565.0816	611.7491	659.1141	747.7893	814.809	868.8779	891.8593	942.9288	958.4927	973.3923	1034.0119	1044.3096	1089.2914	1104.2604	1112.2632	1149.9526	1161.1875	1182.7754	1223.4106	1233.3916	1277.0106	1315.2517	1339.3063	1386.2937	1403.7671	1409.7073	1459.6203	1474.582	1480.1548	1486.8133	1490.9193	1498.9441	1508.5047	1515.4347	2981.3361	3003.5239	3032.9122	3033.4648	3039.8312	3060.2331	3098.2208	3100.0392	3117.2247	3118.6336	3155.5953	3182.4948
COC1C2C(C)OC12C	CO[C@H]1[C@H]2[C@@H](C)O[C@@]12C	
InChI=1S/C7H12O2/c1-4-5-6(8-3)7(5,2)9-4/h4-6H,1-3H3	InChI=1S/C7H12O2/c1-4-5-6(8-3)7(5,2)9-4/h4-6H,1-3H3/t4-,5-,6+,7-/m1/s1
