20
gdb 60623	2.72008	1.09864	0.90145	2.5343	76.78	-0.2504	-0.0224	0.2281	1354.4708	0.168507	-440.281811	-440.271702	-440.270757	-440.31746	36.471	
C	 0.3805108472	 1.567149976	-0.3739447358	-0.394583
C	 0.1471577957	 0.1149736878	-0.0386030828	 0.000691
N	 1.3305608198	-0.7566466324	 0.0856208429	-0.342975
C	 0.4846982823	-0.5173269368	 1.2659673131	-0.040438
C	 1.0815798189	 0.2498960696	 2.4430015991	 0.033316
O	 0.0469286242	 0.7555291839	 3.2448208537	-0.434811
C	 1.9739443478	-0.6806646746	 3.27442345	 0.35772
C	 3.301481142	-1.0979904272	 2.6966590546	-0.485518
O	 1.583241737	-1.0329054986	 4.3688101467	-0.326878
H	 1.2915915616	 1.946376758	 0.0936916272	 0.127364
H	 0.4879886674	 1.6943857484	-1.4562878294	 0.119993
H	-0.4625470565	 2.1805020939	-0.0401414472	 0.130787
H	-0.7183115433	-0.3204270483	-0.5369962856	 0.089185
H	 1.1494303022	-1.6775965342	-0.3030180806	 0.235213
H	-0.1727603335	-1.3212039531	 1.5951909356	 0.091381
H	 1.7062630351	 1.0680882631	 2.0591403703	 0.088297
H	 0.1095151576	 0.2519640469	 4.0741038435	 0.291028
H	 3.2269134257	-1.2585669958	 1.6181542162	 0.167807
H	 4.0138874275	-0.276671761	 2.8465798418	 0.151322
H	 3.6785575312	-1.9822096155	 3.2129707467	 0.1411
47.0944	78.0457	128.8479	140.2676	179.2413	196.8124	287.0546	306.385	374.15	403.5716	436.661	480.3384	546.5251	590.6164	633.6762	787.9271	832.7088	843.6361	933.6614	963.3483	982.205	1013.744	1036.0975	1041.074	1093.2023	1124.2817	1153.1724	1197.5274	1208.5566	1253.1944	1267.9278	1281.4483	1308.3982	1387.6516	1399.6523	1419.2793	1436.5054	1462.0317	1470.2833	1474.0713	1488.7642	1500.4585	1793.1016	3015.9257	3036.8679	3040.8674	3102.2645	3105.736	3106.3549	3117.7709	3132.1479	3156.016	3510.9115	3657.9268
CC1NC1C(O)C(C)=O	C[C@H]1N[C@H]1[C@@H](O)C(=O)C	
InChI=1S/C6H11NO2/c1-3-5(7-3)6(9)4(2)8/h3,5-7,9H,1-2H3	InChI=1S/C6H11NO2/c1-3-5(7-3)6(9)4(2)8/h3,5-7,9H,1-2H3/t3-,5-,6+/m1/s1
