19
gdb 104654	2.97286	1.05655	0.92109	1.9404	72.05	-0.2588	-0.0368	0.2219	1300.5437	0.157465	-460.152902	-460.143564	-460.14262	-460.187228	34.665	
O	 0.0001696378	 1.6605682389	 0.2134458737	-0.426649
C	 0.1445369705	 0.2700709095	 0.4082099159	-0.132284
C	-1.123051701	-0.5069539415	 0.0526900167	 0.188251
C	-1.5727564882	-0.4780175128	-1.4547692822	-0.307293
C	-1.8171639579	-2.0067273926	-1.3868973013	 0.179202
O	-1.4580732825	-2.8204877682	-2.4699097098	-0.428949
C	-0.9945668933	-2.0631183846	-0.0723913013	-0.335973
C	-2.2738761956	-0.1137938574	 0.9416308466	 0.135518
O	-2.2578127018	 0.8098423654	 1.7228108116	-0.279844
H	-0.6606212771	 1.9441938408	 0.8581433916	 0.296643
H	 0.9612988133	-0.056143029	-0.2457698722	 0.095935
H	 0.4372816254	 0.0302231187	 1.4430232183	 0.096372
H	-2.4104869406	 0.1638713672	-1.7359959896	 0.118315
H	-0.7160923493	-0.2239661446	-2.0870549351	 0.113655
H	-2.8717047911	-2.2291756173	-1.1980870649	 0.098995
H	-0.5374328973	-2.6414810034	-2.6899977152	 0.278788
H	 0.0481666501	-2.3407195839	-0.2615204547	 0.106042
H	-1.3747934806	-2.681586851	 0.7447293097	 0.113365
H	-3.191772931	-0.735837054	 0.8347109522	 0.089912
74.2415	90.4217	126.8534	208.9426	263.7251	279.7368	327.1708	333.757	377.1537	430.1251	465.1274	497.775	559.2736	681.6718	785.986	814.6679	873.4434	914.4444	937.9795	959.3757	1023.7405	1048.6331	1077.7793	1094.8044	1100.7612	1105.7768	1158.5967	1219.5671	1233.6413	1275.0835	1283.5222	1319.4765	1347.1365	1382.3329	1432.8401	1439.7284	1441.9353	1464.7092	1486.343	1499.5055	1800.7373	2872.5398	2978.9828	3046.4986	3055.1286	3059.9434	3065.7228	3105.9894	3116.1861	3774.5232	3805.2292
OCC1(CC(O)C1)C=O	OC[C@]1(C[C@@H](O)C1)C=O	
InChI=1S/C6H10O3/c7-3-6(4-8)1-5(9)2-6/h3,5,8-9H,1-2,4H2	InChI=1S/C6H10O3/c7-3-6(4-8)1-5(9)2-6/h3,5,8-9H,1-2,4H2/t5-,6+
