15
gdb 47977	5.39022	0.71059	0.66539	3.4347	83.47	-0.2517	-0.0624	0.1893	1610.9211	0.110963	-420.556004	-420.54769	-420.546746	-420.590074	29.408	
O	-0.2508610439	 0.1503067152	-0.5016752182	-0.236641
C	 0.0173085519	 1.1017828467	 0.1988677082	-0.002395
C	 1.2341762989	 1.8570425539	 0.1221824201	 0.180267
C	 2.2490473405	 2.5188684194	 0.0862429814	-0.105611
C	 3.4433262243	 3.2616066182	 0.0126517578	 0.075731
C	 3.9987803105	 4.1110194421	 1.1610439475	-0.33193
C	 3.6947662135	 4.7809042754	-0.1251686999	 0.074338
O	 4.7295421792	 4.5947419059	-1.0741821786	-0.272011
C	 4.5236718496	 3.1564220478	-1.071213142	-0.129532
H	-0.6876875154	 1.4644105421	 0.9755003239	 0.095122
H	 3.2881076317	 4.2768061018	 1.96331314	 0.139088
H	 5.0332934296	 3.9754772106	 1.4638534813	 0.131544
H	 3.0000952221	 5.5997485202	-0.2710837056	 0.130308
H	 5.4339027438	 2.6024640975	-0.8185332734	 0.119438
H	 4.1276146237	 2.8243175531	-2.0349639124	 0.132284
61.9023	77.1759	116.5814	198.5888	236.3557	324.9801	401.9492	460.3394	496.6944	540.9944	689.6036	751.286	788.1123	864.8284	930.0332	965.3378	983.7487	1001.2112	1017.1702	1052.9937	1084.4119	1088.7459	1095.8215	1158.3206	1212.5384	1294.6699	1337.1808	1408.2336	1425.2065	1472.1972	1514.8705	1757.227	2300.5747	2909.1258	3042.6858	3104.104	3123.2983	3192.2721	3225.5563
O=CC#CC12CC1OC2	O=CC#C[C@]12C[C@H]1OC2	
InChI=1S/C7H6O2/c8-3-1-2-7-4-6(7)9-5-7/h3,6H,4-5H2	InChI=1S/C7H6O2/c8-3-1-2-7-4-6(7)9-5-7/h3,6H,4-5H2/t6-,7-/m1/s1
