19
gdb 78390	2.9058	1.4628	1.14848	1.1446	75.92	-0.2062	0.0611	0.2673	1098.5487	0.157323	-422.924169	-422.915541	-422.914596	-422.95682	34.414	
C	-0.1689438386	 1.5924506473	-0.0469408406	-0.498833
C	 0.0526633914	 0.1020845091	 0.0374792907	 0.355806
O	-1.1542540054	-0.5909907938	-0.2586773715	-0.457623
C	 1.2163414655	-0.7606342944	-0.4180460301	-0.119937
C	 2.6769475775	-0.472469097	 0.028472469	-0.119724
C	 2.9976954027	 0.6576753536	 0.9388352208	 0.086079
O	 2.6550772458	 2.0025470428	 0.7602026354	-0.407868
C	 2.2064232544	-0.4766745383	 1.5167794121	-0.15698
C	 0.7596538239	-0.7686101795	 1.042298569	-0.087241
H	 0.7342145471	 2.1640789116	 0.1338284995	 0.160843
H	-0.533459115	 1.8414767684	-1.0530041028	 0.095414
H	-0.9471853513	 1.8832351959	 0.666808439	 0.11456
H	-1.4218478886	-0.3226494848	-1.1446349857	 0.279739
H	 1.0282395896	-1.5387604258	-1.1473221664	 0.089767
H	 3.4795806234	-1.0514045619	-0.4149750305	 0.092692
H	 4.0366098346	 0.5539696242	 1.2669960396	 0.097154
H	 2.577619684	 2.4000313433	 1.634941067	 0.286075
H	 2.6138908113	-1.0556443898	 2.3384712009	 0.089434
H	 0.1849908877	-1.546222271	 1.5291563747	 0.100643
91.1497	193.4376	210.9632	263.9756	285.453	312.2921	332.9222	413.5675	431.323	482.9482	525.0662	612.4574	638.1373	676.5013	706.1361	787.7098	830.7552	895.3156	899.8149	940.8998	969.065	1010.9418	1019.2601	1022.872	1038.9474	1075.2161	1100.3415	1111.0325	1147.5539	1236.9392	1245.5402	1278.2352	1284.7537	1292.9978	1319.4649	1372.6393	1411.2417	1440.0121	1470.3977	1496.3324	1513.1106	3015.9856	3052.2168	3079.2633	3160.498	3169.6854	3184.6638	3195.6809	3215.3069	3797.351	3798.4939
CC1(O)C2C3C(O)C3C12	C[C@@]1(O)[C@H]2[C@H]3[C@@H](O)[C@H]3[C@@H]12	
InChI=1S/C7H10O2/c1-7(9)4-2-3(5(4)7)6(2)8/h2-6,8-9H,1H3	InChI=1S/C7H10O2/c1-7(9)4-2-3(5(4)7)6(2)8/h2-6,8-9H,1H3/t2-,3+,4-,5+,6+,7+
