25
gdb 122518	4.06353	0.58195	0.55029	0.9865	91.19	-0.2414	0.0912	0.3327	2161.4053	0.226966	-389.474341	-389.463222	-389.462278	-389.511625	39.801	
C	-0.5342203302	 1.4193011209	 0.2104810511	-0.379388
C	 0.1435618603	 0.0657803951	-0.0191282478	-0.162265
C	 0.6620478067	-0.5771699824	 1.2714911993	-0.152052
C	 1.3392205551	-1.9341097632	 1.0423196887	-0.202865
C	 1.8567813883	-2.561749684	 2.3204490047	-0.04388
C	 0.9189350516	-3.3425313004	 3.2271213524	-0.324212
C	 2.0083181432	-4.0463874019	 2.4511719446	 0.111221
O	 1.6667272439	-4.8226579631	 1.3465457378	-0.234519
C	 1.2394770808	-6.1221938973	 1.697851171	-0.229081
H	 0.1584445321	 2.1365399769	 0.6650860532	 0.11182
H	-0.8929422811	 1.8529529777	-0.7284132964	 0.109155
H	-1.394492653	 1.3223689648	 0.8823411638	 0.11192
H	-0.5622353346	-0.6206625989	-0.5056653633	 0.093354
H	 0.9776299682	 0.1880099337	-0.7230802425	 0.093093
H	 1.3699117718	 0.1081509377	 1.759071894	 0.086814
H	-0.1696403323	-0.7027333696	 1.9780635	 0.092638
H	 0.6395029895	-2.6251452959	 0.5603632649	 0.105122
H	 2.1730455842	-1.810654783	 0.3377429807	 0.094074
H	 2.620934152	-1.9776236517	 2.8287127858	 0.081775
H	 1.0093714075	-3.2471010104	 4.3037943182	 0.106699
H	-0.0955156036	-3.4834876023	 2.8668125381	 0.114119
H	 2.863437665	-4.4295874527	 3.0117107744	 0.07962
H	 2.0288893296	-6.6791986621	 2.2256543792	 0.104192
H	 0.3476921489	-6.097131542	 2.3406379742	 0.107654
H	 0.9991702959	-6.645501116	 0.7692417637	 0.124991
50.5782	71.98	92.309	107.2871	141.7026	176.8486	197.4453	246.2047	272.1062	288.6857	384.1385	422.0914	478.5102	605.7747	735.3183	766.3825	790.8265	830.5218	877.9349	909.2281	910.6487	985.3108	1004.1231	1029.1961	1043.1243	1057.8117	1067.5677	1110.8013	1125.1787	1144.2666	1170.6968	1185.1691	1197.2684	1224.8052	1251.2674	1261.2307	1274.9739	1312.8581	1327.4029	1351.5693	1385.0837	1398.0616	1412.0853	1419.3281	1472.2118	1483.8869	1485.3174	1487.6603	1492.9232	1499.834	1501.6108	1509.5594	1513.4834	2980.4678	3003.1454	3012.2586	3018.0893	3027.9053	3030.1417	3031.2411	3050.7156	3075.7235	3076.6573	3094.1668	3099.3551	3116.029	3125.0411	3129.7513	3213.4618
CCCCC1CC1OC	CCCC[C@H]1C[C@H]1OC	
InChI=1S/C8H16O/c1-3-4-5-7-6-8(7)9-2/h7-8H,3-6H2,1-2H3	InChI=1S/C8H16O/c1-3-4-5-7-6-8(7)9-2/h7-8H,3-6H2,1-2H3/t7-,8+/m0/s1
