18
gdb 29753	3.07213	1.48737	1.08908	1.5781	80.1	-0.2067	0.0344	0.2411	1111.9496	0.148898	-401.952753	-401.944662	-401.943718	-401.985438	31.048	
C	-0.3954419845	 1.624724219	-0.2605425351	-0.393086
C	 0.0303762763	 0.1910832401	-0.0145216505	 0.003828
C	 0.789645163	-0.5689232002	-1.2003946075	-0.039662
O	 0.9787964899	 0.1229050096	-2.4084354997	-0.417523
C	 1.9444768756	-0.6773953881	-0.2216040182	 0.270032
C	 3.1178715281	-1.1811592482	 0.3016357857	-0.33406
C	 3.1239219538	-0.7620204004	 1.6668372317	-0.126455
C	 1.9583776999	-0.0541744027	 1.9387843604	-0.160152
N	 1.2809494327	 0.0035799656	 0.7581056624	 0.024732
H	 0.4255112926	 2.2173110004	-0.6732397104	 0.115148
H	-1.2244661908	 1.646929859	-0.9740687586	 0.13513
H	-0.728292216	 2.0998172327	 0.6674983871	 0.124289
H	-0.7939008812	-0.3988550771	 0.4015597834	 0.096613
H	 0.3042627809	-1.511867379	-1.467358396	 0.104674
H	 1.6623899027	 0.7856573486	-2.2622815823	 0.284675
H	 3.877591158	-1.7619856176	-0.1970893517	 0.099141
H	 3.9155498274	-0.944460659	 2.379190846	 0.09421
H	 1.6135316615	 0.4181069273	 2.8442930634	 0.118464
86.4322	120.57	194.9349	234.3868	264.9574	350.4693	405.5772	479.3593	577.7274	606.9522	669.9284	709.9883	715.6208	772.4193	785.579	815.8538	836.5704	932.2862	970.2966	1028.1094	1038.8691	1079.6398	1094.2099	1128.6687	1153.173	1203.6009	1228.8508	1241.5757	1288.8181	1301.8522	1362.0385	1395.4754	1410.0858	1418.5103	1456.7086	1477.8499	1482.0549	1495.0331	1569.8285	3042.5	3046.4225	3076.087	3114.0741	3123.0425	3234.5954	3258.3133	3268.9652	3809.5926
CC1C(O)C2=CC=CN12	C[C@H]1[C@@H](O)c2cccn12	
InChI=1S/C7H9NO/c1-5-7(9)6-3-2-4-8(5)6/h2-5,7,9H,1H3	InChI=1S/C7H9NO/c1-5-7(9)6-3-2-4-8(5)6/h2-5,7,9H,1H3/t5-,7+/m0/s1
