19
gdb 82828	2.32472	1.96048	1.49723	1.4305	73.97	-0.2421	0.0716	0.3137	956.7281	0.15968	-422.983039	-422.975201	-422.974256	-423.014785	31.652	
O	 0.0331284222	 1.4318286353	-0.103848381	-0.437175
C	-0.0010947174	 0.0297336108	 0.0458133765	 0.063882
C	 0.270978881	-0.621251827	 1.430359745	-0.100949
C	-0.4545679081	 0.100138052	 2.5888631331	-0.222602
C	-1.7939974474	-0.5460677086	 2.1556626411	-0.03554
C	-2.422582675	 0.1388080909	 0.9137809139	-0.296592
C	-1.4095403435	-0.5961795583	 0.0041009251	 0.393155
O	-1.8559825527	-1.1242918448	-1.2112462973	-0.491327
C	-1.0017044055	-1.519673925	 1.2049022974	-0.094378
H	 0.9491458176	 1.7241697403	-0.0585725049	 0.284204
H	 0.6073253659	-0.4771457031	-0.7179334316	 0.070197
H	 1.2775484921	-1.0019069902	 1.6079208151	 0.05905
H	-0.1241632975	-0.2910442349	 3.5553903794	 0.095371
H	-0.4026369173	 1.193187235	 2.6084007809	 0.095379
H	-2.4752200426	-0.8765524313	 2.9397293923	 0.065721
H	-3.422908682	-0.2577555726	 0.7168045317	 0.099861
H	-2.4418657533	 1.231544986	 0.8812338035	 0.103345
H	-2.0861425207	-0.3862281939	-1.7877785588	 0.279299
H	-1.0373799559	-2.6051307106	 1.2024398084	 0.069099
159.7332	197.199	229.8381	241.8345	271.2419	335.1007	404.2801	466.1289	569.081	588.8017	612.2058	727.5754	794.7988	834.9693	843.9817	876.706	888.7287	937.3598	955.7879	991.0073	1018.1635	1038.917	1052.4373	1096.4503	1116.0971	1129.613	1143.4222	1167.175	1188.7859	1215.48	1235.2594	1242.3685	1261.2475	1285.206	1309.0385	1313.9049	1344.412	1366.0797	1425.1076	1471.4963	1485.665	2994.5864	3045.7118	3051.1068	3091.592	3096.9275	3102.9086	3111.6904	3160.8391	3788.9787	3814.3491
OC1C2CC3CC1(O)C23	O[C@H]1[C@H]2C[C@H]3C[C@]1(O)[C@@H]23	
InChI=1S/C7H10O2/c8-6-4-1-3-2-7(6,9)5(3)4/h3-6,8-9H,1-2H2	InChI=1S/C7H10O2/c8-6-4-1-3-2-7(6,9)5(3)4/h3-6,8-9H,1-2H2/t3-,4-,5+,6-,7-/m0/s1
