13
gdb 25098	3.19509	1.51873	1.15248	4.3436	69.4	-0.2611	-0.0878	0.1734	999.5648	0.091579	-448.957871	-448.950803	-448.949859	-448.989857	26.201	
N	-0.0479808093	 1.3203560321	-0.279745399	-0.4568
C	 0.0117979987	 0.0741732269	-0.0597925294	 0.338526
N	 1.2224385938	-0.6533204143	-0.0325733403	-0.261731
C	 1.5332854956	-1.3710171986	 0.9687292926	 0.089136
N	 0.7772555517	-1.6666637875	 2.0935014826	-0.346136
C	-0.6097338602	-1.7166904941	 2.2387136315	 0.395394
O	-1.1084321503	-2.0976952187	 3.2727751045	-0.328918
C	-1.4539772229	-1.3970416664	 1.0347319633	-0.066365
N	-1.2003263736	-0.6433233471	 0.0483233105	-0.167747
H	 0.8986084979	 1.6946600656	-0.3646182907	 0.232353
H	 2.5255214493	-1.821201965	 1.0006399557	 0.144821
H	 1.2623165547	-2.074341637	 2.8840126828	 0.270801
H	-2.4257521955	-1.890682546	 1.0818970559	 0.156666
70.6575	133.3644	277.5248	330.7861	364.3155	443.1401	474.6365	559.2266	627.3361	679.3167	726.8842	745.8947	819.1839	860.3806	889.0988	921.0924	958.6361	976.2792	1021.9214	1130.8537	1272.9959	1328.1384	1390.5061	1439.2352	1472.7441	1712.1108	1720.8116	1734.3586	1797.8017	3130.6095	3136.5381	3479.0009	3573.2028
N=C1N=CNC(=O)C=N1	[NH][C]1N=CNC(=O)C=N1	
InChI=1S/C4H4N4O/c5-4-6-1-3(9)7-2-8-4/h1-2H,(H2,5,7,8,9)	InChI=1S/C4H4N4O/c5-4-6-1-3(9)7-2-8-4/h1-2H,(H2,5,7,8,9)
