13
gdb 27984	3.73051	1.22907	0.92645	6.0792	63.38	-0.2158	-0.0234	0.1925	1142.3924	0.088592	-489.944406	-489.936293	-489.935349	-489.977196	29.169	
O	 0.0753815379	 1.3523281102	 0.2340456474	-0.422707
C	 0.0159009521	 0.0123240984	 0.0922348069	 0.365439
C	-1.0537157269	-0.7940591761	 0.058150089	-0.211577
N	-0.5760831438	-2.1259909939	-0.0139198202	-0.152321
C	-1.4052463218	-3.2448542923	-0.0522211035	 0.174668
O	-1.0460560391	-4.3863804312	-0.1267289407	-0.267214
C	 0.8487121056	-2.1301764361	-0.0208954713	 0.499006
O	 1.604265402	-3.0651246358	-0.0398456782	-0.373167
N	 1.1689973899	-0.7734929009	 0.0091415018	-0.44343
H	 0.6014467543	 1.7355097374	-0.4792180859	 0.311911
H	-2.1034700386	-0.5619873937	 0.0583325149	 0.155925
H	-2.4680567275	-2.9340674661	-0.0062733823	 0.08915
H	 2.1049557859	-0.4662841199	 0.215613952	 0.274317
94.6169	176.6075	197.0926	205.2104	223.4254	328.287	347.5644	425.0233	468.9628	545.7588	617.0681	637.5718	693.5203	762.5442	800.7145	821.4008	1013.4073	1025.8782	1157.7933	1185.0528	1227.175	1238.9576	1289.6555	1400.3786	1424.5139	1450.3758	1752.3736	1811.0045	1894.422	2935.1519	3296.7461	3670.0002	3769.3039
OC1=CN(C=O)C(=O)N1	Oc1cn(C=O)c(=O)[nH]1	
InChI=1S/C4H4N2O3/c7-2-6-1-3(8)5-4(6)9/h1-2,8H,(H,5,9)	InChI=1S/C4H4N2O3/c7-2-6-1-3(8)5-4(6)9/h1-2,8H,(H,5,9)
