21
gdb 64176	2.13173	1.46934	1.34472	1.9396	84.71	-0.2455	0.0531	0.2986	1133.7669	0.179118	-387.051072	-387.041064	-387.04012	-387.084818	39.044	
C	-0.7109211779	 1.3016382163	 0.1315936797	-0.463871
C	 0.0653504136	 0.0111641079	-0.0746396281	 0.396386
O	-0.7643930042	-0.9770073855	-0.6693500806	-0.468348
C	 1.4501630489	 0.0619842464	-0.7838290933	-0.281151
C	 1.9587598954	-1.0287847562	 0.1910402141	-0.252939
C	 0.775841773	-0.6823956116	 1.1614231293	 0.081496
C	 1.2166845944	 0.3113174835	 2.2496953044	-0.447931
C	 0.0741575861	-1.7999974432	 1.7683484048	 0.304263
C	-0.4762148245	-2.7186232759	 2.315673396	-0.459227
H	-0.1076923797	 2.0809694863	 0.6041902439	 0.11657
H	-1.0482124808	 1.6915433298	-0.8373428009	 0.104875
H	-1.597209492	 1.1182982984	 0.7468418875	 0.132444
H	-1.0446192681	-0.6414184356	-1.5280214896	 0.275116
H	 1.4378004699	-0.1849811506	-1.8482432467	 0.092206
H	 1.9587753262	 1.0208551745	-0.650931092	 0.099256
H	 1.8522519316	-2.0316119384	-0.2223356042	 0.122103
H	 2.9623000141	-0.9104707072	 0.6058006971	 0.097891
H	 1.7803428095	 1.1470623857	 1.8236025784	 0.111766
H	 0.3568577199	 0.7137710739	 2.7921482356	 0.126717
H	 1.8619081595	-0.1981293134	 2.97090251	 0.127409
H	-0.9743003947	-3.5355912949	 2.7754426546	 0.184971
98.7242	143.4491	190.4032	220.2754	253.6371	276.1605	278.8543	318.5023	329.3277	380.058	400.2444	435.539	526.6459	571.8567	591.924	613.8919	629.6638	661.6249	752.6629	865.4152	897.5668	926.4214	947.7484	957.3717	977.3369	1014.5482	1085.8219	1127.0364	1178.4388	1196.177	1207.592	1221.1085	1244.4885	1282.6115	1290.641	1360.03	1404.9192	1410.7938	1471.5487	1483.4983	1486.2433	1491.0122	1497.7386	1503.5406	2231.1856	3024.2903	3038.595	3056.7784	3075.6564	3090.5906	3106.6567	3110.7149	3118.0087	3122.2087	3143.2831	3504.0618	3798.7078
CC1(O)CCC1(C)C#C	C[C@@]1(O)CC[C@]1(C)C#C	
InChI=1S/C8H12O/c1-4-7(2)5-6-8(7,3)9/h1,9H,5-6H2,2-3H3	InChI=1S/C8H12O/c1-4-7(2)5-6-8(7,3)9/h1,9H,5-6H2,2-3H3/t7-,8+/m0/s1
