21
gdb 63442	3.42631	0.84698	0.8139	3.1052	79.51	-0.2477	-0.0215	0.2262	1490.2642	0.179418	-424.229063	-424.219043	-424.218099	-424.264981	36.713	
C	 0.6959492928	 1.2929819754	 0.2660618337	-0.45493
C	-0.0120411766	-0.0358265338	 0.0279478607	 0.437072
O	-1.4107288366	 0.1555763448	-0.1031942008	-0.473742
C	 0.6397195122	-0.9393451771	-1.0717183302	-0.308666
C	 1.1205323033	-1.9279034833	 0.0322096979	 0.014957
C	 2.6362152903	-1.9447677559	 0.2799709047	-0.290246
C	 2.9844891995	-2.8370602028	 1.448538668	 0.164325
O	 3.4799289714	-2.4635273889	 2.4808996825	-0.240625
C	 0.2784884953	-1.1387369152	 1.0800700547	-0.28065
H	 1.7709088747	 1.1584190689	 0.4197970573	 0.122842
H	 0.5694084306	 1.9596683323	-0.5970862642	 0.10518
H	 0.2809627235	 1.7887548308	 1.1492148696	 0.127746
H	-1.5585106223	 0.8504211216	-0.7543057213	 0.27289
H	-0.119458673	-1.3706666865	-1.7278076623	 0.104184
H	 1.4226497429	-0.4787130158	-1.682232481	 0.091397
H	 0.7757732995	-2.9546532195	-0.1226586234	 0.077484
H	 3.1401097834	-2.3388103491	-0.6141212777	 0.113761
H	 3.0235928356	-0.9414005255	 0.4818048648	 0.118863
H	 2.7205888908	-3.9111718501	 1.2978432356	 0.071185
H	 0.8058091198	-0.8178857311	 1.9825186336	 0.111816
H	-0.6410396772	-1.6508877593	 1.3688518277	 0.115158
42.4052	53.9502	83.6033	179.2891	254.567	272.9391	291.6794	316.295	347.54	374.8095	445.1689	454.8743	507.5913	638.3643	764.3487	826.4908	831.4926	877.272	904.7877	925.7836	945.3994	958.6649	992.0155	1044.0686	1052.7064	1113.2816	1125.0003	1176.4895	1184.1356	1219.9992	1231.082	1261.6362	1272.1439	1292.8599	1301.6522	1372.3971	1381.2518	1406.1139	1428.3382	1460.2088	1464.4259	1482.3566	1489.169	1492.4702	1832.3004	2847.768	3013.4798	3018.847	3048.3446	3052.7828	3066.0856	3087.8699	3092.7802	3112.5285	3116.0786	3127.8421	3797.533
CC1(O)CC(CC=O)C1	C[C@@]1(O)C[C@@H](CC=O)C1	
InChI=1S/C7H12O2/c1-7(9)4-6(5-7)2-3-8/h3,6,9H,2,4-5H2,1H3	InChI=1S/C7H12O2/c1-7(9)4-6(5-7)2-3-8/h3,6,9H,2,4-5H2,1H3/t6-,7-
