17
gdb 44846	3.43429	1.68717	1.54037	3.9014	72.36	-0.2491	0.0242	0.2733	905.2131	0.139954	-417.987794	-417.981604	-417.98066	-418.018101	26.302	
N	-0.0571057869	 1.2449146317	 0.0149750888	-0.563351
C	-0.0352704393	-0.0128386874	 0.0113170491	 0.473959
O	 1.0970932423	-0.8064393624	 0.0280076053	-0.266749
C	 0.6141642076	-2.1856150245	-0.0191815798	 0.074424
C	-0.5949397078	-2.0422006933	-0.9531619173	-0.276942
C	-1.217006802	-0.9714649304	-0.0276122054	-0.080407
N	-1.219460785	-1.5417324384	 1.3601558718	-0.098719
C	-1.3671076995	-3.0023354981	 1.462511464	-0.26539
C	-0.0094292451	-2.4100948203	 1.3545559816	-0.023215
H	 0.8928805421	 1.6216813385	 0.0467677687	 0.223757
H	 1.4419692688	-2.8269065218	-0.3146831804	 0.094167
H	-0.3036654517	-1.6383742697	-1.9240562985	 0.127884
H	-1.1832877407	-2.9449356821	-1.1046773136	 0.115269
H	-2.1651371468	-0.5120218377	-0.2934008156	 0.103944
H	-1.7052339494	-3.3192825985	 2.4445257849	 0.129771
H	-1.7881741299	-3.5794375141	 0.6467286904	 0.119989
H	 0.6464719031	-2.3454841714	 2.2171604959	 0.111611
160.8596	294.6262	381.3757	438.9202	507.2696	509.065	574.9171	682.4998	718.9715	766.6405	810.6503	832.7865	876.5571	889.3489	915.6359	925.8596	944.5766	967.6795	983.9659	1001.315	1051.2705	1074.7007	1092.5162	1109.6025	1120.0637	1154.2705	1213.5309	1243.1814	1249.1863	1277.7624	1285.3173	1307.7814	1342.5568	1379.0074	1484.8945	1530.2628	1801.6405	3099.0183	3128.5436	3146.3505	3156.2478	3162.7132	3166.606	3210.3842	3461.6021
N=C1OC2CC1N1CC21	[NH][C]1O[C@@H]2C[C@H]1N1C[C@@H]21	
InChI=1S/C6H8N2O/c7-6-3-1-5(9-6)4-2-8(3)4/h3-5,7H,1-2H2	InChI=1S/C6H8N2O/c7-6-3-1-5(9-6)4-2-8(3)4/h3-5,7H,1-2H2/t3-,4+,5-,8?/m1/s1
