16
gdb 72574	2.54524	1.98646	1.51402	1.4059	64.31	-0.2701	0.0148	0.285	894.2763	0.126464	-475.040797	-475.03393	-475.032986	-475.071736	27.964	
O	 0.1074226086	 1.3573627773	 0.0506291481	-0.489172
C	 0.0208991372	-0.0211145579	 0.0373092586	 0.284017
C	 0.6503293711	-0.7450697246	 1.2610063386	-0.122935
O	 0.1646261854	-2.098411241	 1.1261774859	-0.252992
C	-0.6501946286	-2.0890810907	-0.0154794343	 0.187326
C	-1.3582448107	-0.7354708687	 0.0146220091	-0.310568
O	 0.2024856452	-1.9729009038	-1.2015193134	-0.248402
C	 0.6325088104	-0.680513346	-1.1841818558	 0.403918
N	 1.3762928537	-0.0766666025	-2.0020043862	-0.595512
H	 0.6515175578	 1.5960443201	-0.7167151138	 0.300326
H	 1.7436179129	-0.7389478422	 1.2454147285	 0.126593
H	 0.2929401996	-0.3029432341	 2.1973322788	 0.119343
H	-1.2017452031	-3.0217723047	-0.0920094442	 0.111662
H	-1.9503816091	-0.5833640144	 0.9182496896	 0.124414
H	-1.9451739746	-0.5242197554	-0.8800712566	 0.126726
H	 1.6857352143	-0.6697655713	-2.7712416727	 0.235259
152.7105	256.383	288.9185	350.8832	413.48	446.1446	474.4986	527.6306	569.0313	657.1357	722.6822	754.8667	804.0923	859.0493	878.0114	923.7424	932.4212	957.5762	998.9225	1012.5451	1069.9662	1100.2825	1124.1757	1161.3797	1193.3011	1226.0728	1249.7198	1299.5869	1314.8136	1373.1848	1405.6519	1436.6495	1491.5971	1523.8552	1801.0439	3042.7096	3087.3194	3100.8635	3152.5023	3177.0848	3500.8411	3698.0473
OC12COC(C1)OC2=N	O[C@@]12CO[C@@H](C1)O[C]2[NH]	
InChI=1S/C5H7NO3/c6-4-5(7)1-3(9-4)8-2-5/h3,6-7H,1-2H2	InChI=1S/C5H7NO3/c6-4-5(7)1-3(9-4)8-2-5/h3,6-7H,1-2H2/t3-,5-/m1/s1
