19
gdb 64947	4.02641	0.6257	0.59241	2.8369	87.67	-0.2364	-0.026	0.2103	1905.8657	0.156082	-385.864551	-385.854398	-385.853454	-385.902124	35.557	
C	 0.1203093582	 1.3995727052	-0.4666711403	-0.456913
C	 0.0334053499	-0.0315643034	 0.0435739523	 0.18329
C	 1.3150784979	-0.8523383909	 0.1053553711	-0.286833
C	 0.6892376701	-0.3605147018	 1.3782335991	-0.285904
C	-1.1836360845	-0.7269384223	-0.2852080615	 0.037394
C	-2.2208372818	-1.2764329648	-0.5620448039	 0.037416
C	-3.4327538013	-1.9922114258	-0.9330561682	-0.416499
C	-3.1661249759	-3.0803750001	-1.9754105737	 0.173218
O	-3.6921910183	-4.1596854422	-1.9649893529	-0.232522
H	 1.0721885887	 1.8542655576	-0.1754846554	 0.114032
H	 0.0476015205	 1.4311507824	-1.5583315172	 0.125895
H	-0.6893241864	 2.0110398322	-0.0561770433	 0.127053
H	 1.2463184482	-1.9088474402	-0.1240571713	 0.124937
H	 2.2214327578	-0.3702444934	-0.2450916779	 0.117365
H	 1.1645575624	 0.4603305578	 1.9045198051	 0.117476
H	 0.1932534708	-1.0813246237	 2.0168985442	 0.125566
H	-3.9293125242	-2.4562821111	-0.0742804437	 0.151277
H	-4.1589495116	-1.2971048772	-1.3829877848	 0.152553
H	-2.4403039604	-2.7844927882	-2.7641099877	 0.091198
14.1774	45.9978	93.1716	109.4584	189.0665	229.1717	290.5439	303.4388	334.0351	434.9028	455.3226	538.0084	551.8083	618.1771	743.5112	787.1885	838.8507	858.0115	941.8254	952.9318	1034.1718	1039.9057	1046.8354	1074.1354	1078.7956	1089.1466	1117.2462	1194.0537	1211.2162	1282.569	1294.294	1355.0057	1414.1626	1414.506	1440.5501	1464.94	1487.0242	1496.1092	1502.9301	1839.8689	2357.1839	2897.4389	2997.08	3033.7525	3074.2949	3104.2286	3107.7524	3135.821	3140.2725	3221.4297	3235.8118
CC1(CC1)C#CCC=O	CC1(CC1)C#CCC=O	
InChI=1S/C8H10O/c1-8(5-6-8)4-2-3-7-9/h7H,3,5-6H2,1H3	InChI=1S/C8H10O/c1-8(5-6-8)4-2-3-7-9/h7H,3,5-6H2,1H3
