23
gdb 78031	2.3943	1.41244	1.26131	1.3974	85.29	-0.2384	0.0685	0.307	1179.6357	0.206095	-388.2984	-388.289011	-388.288067	-388.331671	36.837	
C	-0.0770093283	 1.6091772845	 0.016699277	-0.403177
C	-0.0146021293	 0.0787997103	 0.0411025184	 0.037673
C	 0.6387429345	-0.5433084983	-1.2190188716	-0.223678
C	 1.263074656	-1.8784721159	-0.7558158806	-0.27055
C	 1.5245924349	-1.7441976089	 0.7453565456	 0.274243
C	 1.6336391602	-3.0146055706	 1.5569069893	-0.479747
C	 2.2637931945	-0.5043735746	 1.20045035	 0.043553
O	 2.9487616389	 0.3511243997	 0.324569475	-0.415334
C	 0.7604185421	-0.5105861014	 1.21751697	-0.121582
H	 0.9296041616	 2.0327011294	-0.040261632	 0.136551
H	-0.6498126822	 1.9649562307	-0.8470962871	 0.103842
H	-0.5604874117	 2.0020329676	 0.9178484907	 0.103241
H	-1.0410586718	-0.3058737143	 0.1247658799	 0.065162
H	-0.0877064217	-0.6857383631	-2.0248724641	 0.085115
H	 1.416906184	 0.125875998	-1.5898357189	 0.111433
H	 0.5608225539	-2.7084002228	-0.9048840099	 0.09484
H	 2.1673374994	-2.1323085645	-1.322683292	 0.08358
H	 2.4702475491	-3.6373648919	 1.216173172	 0.111419
H	 1.7928053816	-2.8010936344	 2.6188663668	 0.112278
H	 0.7212716214	-3.6175881024	 1.473662378	 0.114071
H	 2.7344442842	-0.5852314369	 2.1820909035	 0.077187
H	 3.7533399136	-0.0960263043	 0.0415648914	 0.286191
H	 0.2813565852	-0.4888855561	 2.1925167884	 0.073691
124.105	183.6149	195.0897	212.4476	234.0024	254.2374	275.4397	287.9278	340.1899	400.0149	502.3215	523.8812	576.9084	666.1996	713.0391	781.5505	819.9569	856.1548	911.7501	944.3176	963.1889	992.1804	1011.7927	1022.3381	1055.2119	1067.2816	1100.5149	1132.8524	1138.8443	1173.8803	1208.5948	1237.4858	1255.2956	1286.0545	1299.3184	1329.978	1335.1875	1350.0554	1359.6816	1382.8611	1407.913	1416.569	1464.4087	1486.0403	1490.8006	1497.3601	1499.8403	1505.4991	1510.7389	2995.8889	3014.5893	3020.3986	3029.2755	3049.8193	3059.9556	3071.6124	3075.6465	3089.1342	3093.3028	3114.9816	3119.2404	3143.5788	3803.0608
CC1CCC2(C)C(O)C12	C[C@H]1CC[C@@]2(C)[C@@H](O)[C@@H]12	
InChI=1S/C8H14O/c1-5-3-4-8(2)6(5)7(8)9/h5-7,9H,3-4H2,1-2H3	InChI=1S/C8H14O/c1-5-3-4-8(2)6(5)7(8)9/h5-7,9H,3-4H2,1-2H3/t5-,6+,7-,8+/m0/s1
