16
gdb 114425	3.2788	1.17123	1.15773	2.5797	65.97	-0.2658	-0.0059	0.2598	1115.4094	0.12449	-474.978213	-474.970428	-474.969484	-475.011063	29.066	
O	 0.1015761848	 1.0850135057	-0.5882430695	-0.4191
C	 0.0607575362	-0.2495221699	-0.1204144112	-0.08141
C	-1.3729863192	-0.6546027882	 0.1690864487	 0.095848
O	-2.2160978592	-0.5142167151	-1.0197370799	-0.321436
C	-2.6968467588	-1.8709129086	-0.8979076156	-0.012211
C	-1.7619907202	-2.1362107179	 0.2975325663	 0.018952
O	-0.9549359496	-3.0284235559	-0.5265268772	-0.269733
C	-1.8063456768	-2.8689752908	-1.6193581378	 0.441094
N	-1.7883128558	-3.3909034444	-2.7545407065	-0.538636
H	-0.4654634132	 1.1184525492	-1.3681013008	 0.297291
H	 0.5075910886	-0.950564272	-0.8373204464	 0.108643
H	 0.6510005802	-0.2851276068	 0.8017921666	 0.115535
H	-1.7901022347	-0.0434543191	 0.9793762696	 0.09861
H	-3.7806801307	-1.9624481988	-0.9519312335	 0.117366
H	-2.0095184237	-2.5776379661	 1.2597964253	 0.11254
H	-0.9905260578	-4.0178628314	-2.8744087482	 0.236646
70.9594	117.5192	177.2663	218.8184	313.9842	411.011	427.9105	481.0743	546.6309	638.1444	726.3425	805.3869	829.4007	865.9483	877.1354	919.4165	962.21	990.6896	1015.6083	1041.4431	1047.2663	1083.6205	1118.5227	1171.8249	1212.7742	1219.6573	1245.2298	1282.4653	1298.8605	1332.8464	1341.7688	1399.0481	1431.9871	1499.6373	1831.4782	3021.436	3035.3519	3080.7879	3131.7715	3152.2073	3476.0743	3793.415
OCC1OC2C1OC2=N	OC[C@H]1O[C@@H]2[C@H]1O[C]2[NH]	
InChI=1S/C5H7NO3/c6-5-4-3(9-5)2(1-7)8-4/h2-4,6-7H,1H2	InChI=1S/C5H7NO3/c6-5-4-3(9-5)2(1-7)8-4/h2-4,6-7H,1H2/t2-,3+,4-/m1/s1
