17
gdb 66390	3.37927	1.2209	1.11782	2.9679	65.42	-0.2563	-0.0543	0.202	1109.2199	0.135533	-496.096786	-496.08865	-496.087706	-496.129535	30.625	
O	 0.044976348	 1.5151562139	 0.0845669261	-0.463554
C	-0.0039093489	 0.1150358886	 0.0352554699	 0.247918
C	 0.7206845049	-0.4946674992	 1.2654657344	-0.109377
O	-0.0040884281	-0.2485043931	 2.4519548119	-0.228221
C	-1.3124127715	-0.7454533904	 2.3689576763	 0.01614
O	-2.0515526664	-0.137783999	 1.3445473889	-0.22818
C	-1.4755520852	-0.3763071354	 0.0774299602	-0.109419
C	 0.6569361205	-0.3827934252	-1.2347467267	 0.107231
O	 1.1351789241	 0.3783563814	-2.0410737336	-0.261851
H	 0.4991592416	 1.789880933	-0.7279900881	 0.293257
H	 0.8602511048	-1.5803818502	 1.1204450667	 0.085236
H	 1.6964190495	-0.0191111506	 1.3827522312	 0.130926
H	-1.2883659047	-1.8430272174	 2.2149985144	 0.074279
H	-1.8081541903	-0.5032024483	 3.3098715429	 0.127818
H	-2.065269943	 0.1829201525	-0.6515737039	 0.130906
H	-1.5204803438	-1.4521829424	-0.1668803364	 0.085274
H	 0.6814519687	-1.4807978281	-1.3888897241	 0.101618
92.0872	120.3317	209.2127	304.9369	309.8308	327.9015	390.262	408.2179	430.3267	460.5298	529.9286	621.9198	759.0559	843.4985	871.2601	951.6057	959.6976	990.2038	1013.3828	1035.9661	1071.652	1138.0548	1159.2574	1209.1038	1242.0618	1267.6461	1342.7452	1344.7414	1367.2397	1375.2802	1415.2555	1435.6321	1441.1747	1478.0705	1479.8181	1505.3216	1807.7953	2904.1425	2925.7621	2948.7432	2961.6516	3111.9117	3112.9689	3127.1754	3688.8738
OC1(COCOC1)C=O	OC1(COCOC1)C=O	
InChI=1S/C5H8O4/c6-1-5(7)2-8-4-9-3-5/h1,7H,2-4H2	InChI=1S/C5H8O4/c6-1-5(7)2-8-4-9-3-5/h1,7H,2-4H2
