16
gdb 48876	3.31306	1.59235	1.41131	1.6455	72.92	-0.2263	-0.0412	0.1851	939.5052	0.12484	-400.694117	-400.687159	-400.686214	-400.725656	27.615	
O	-0.7365503177	 0.8990594287	-0.5798050303	-0.245641
C	 0.1380099442	 1.0470569305	 0.236730493	 0.035856
C	 1.389762532	 1.8279844455	-0.0012045021	 0.210012
N	 1.4579943254	 3.139295928	 0.8450370837	-0.368977
C	 1.8937322869	 3.8056452874	-0.3986983373	-0.021635
C	 3.0344542719	 3.0075586362	-1.0926301334	-0.097261
C	 3.671099669	 1.9101610265	-0.3140962511	-0.071684
C	 2.7271429492	 1.16910841	 0.2749621656	-0.126888
C	 1.5810091499	 2.6587262564	-1.3051461588	-0.15229
H	 0.0548235062	 0.6132746635	 1.2595058759	 0.087257
H	 0.4900776002	 3.4341832883	 0.9878672981	 0.225428
H	 1.8091068118	 4.8790392226	-0.51785014	 0.103551
H	 3.5703093194	 3.5475403313	-1.8640494366	 0.093404
H	 4.7415296557	 1.7967654374	-0.1949121174	 0.108874
H	 2.867906136	 0.3686900888	 0.9892298383	 0.109427
H	 1.05886957	 2.5578721589	-2.2478274978	 0.110566
72.067	178.8767	240.137	365.4952	415.3972	484.9775	563.4822	659.3138	702.1141	736.201	752.3686	775.4211	788.453	829.1475	850.5445	918.989	940.8403	973.6769	1006.8402	1025.9463	1034.2874	1039.9106	1051.5237	1087.4717	1116.5904	1155.1363	1199.9117	1252.1759	1294.9922	1330.8344	1371.3528	1384.6768	1422.9355	1638.7546	1822.1364	2874.5073	3184.8409	3188.1715	3200.7877	3205.2643	3229.624	3432.3495
O=CC12NC3C(C=C1)C23	O=C[C@@]12N[C@H]3[C@@H](C=C1)[C@@H]23	
InChI=1S/C7H7NO/c9-3-7-2-1-4-5(7)6(4)8-7/h1-6,8H	InChI=1S/C7H7NO/c9-3-7-2-1-4-5(7)6(4)8-7/h1-6,8H/t4-,5+,6-,7-/m0/s1
