17
gdb 117019	4.24551	0.8408	0.70797	0.4683	79.94	-0.2298	-0.0868	0.143	1561.9331	0.133387	-417.993979	-417.983718	-417.982774	-418.031265	35.393	
C	 0.1089398093	 1.5412055001	 0.0480177667	-0.409416
C	 0.0098004369	 0.0209339547	-0.0071524009	-0.093639
N	 0.7516830079	-0.5821226133	 1.0829354408	-0.32002
C	 0.8269097981	-1.9192106688	 1.2645418423	 0.291175
N	 0.2513652583	-2.768042399	 0.4913269079	-0.554906
C	 1.664948533	-2.2856114989	 2.4795412437	 0.199755
O	 2.1860328852	-1.438727186	 3.1757750069	-0.309025
C	 1.8064022042	-3.7011838215	 2.7593332249	 0.252727
C	 1.9517790389	-4.8650655745	 3.0307999969	-0.383574
H	 1.1493613054	 1.8732738857	-0.0340344738	 0.125589
H	-0.4526562554	 1.987511104	-0.7765684778	 0.128518
H	-0.301877089	 1.9309126625	 0.9854879096	 0.125555
H	-1.0377792948	-0.3028376419	 0.0448867072	 0.121295
H	 0.3953955314	-0.3598034109	-0.9617553756	 0.121382
H	 1.2420709666	-0.0090714542	 1.7511695208	 0.258882
H	 0.4395640709	-3.7167618134	 0.8120982806	 0.223023
H	 2.0813639132	-5.8926400645	 3.2722464497	 0.222679
14.4472	63.1298	78.3986	112.7852	178.5236	243.885	258.1929	305.6439	362.74	411.7129	425.4056	492.2294	513.6648	663.4393	671.0489	709.049	789.8056	814.7099	827.0558	856.5141	913.8998	1047.5484	1135.5215	1174.3457	1184.484	1198.611	1291.3586	1315.782	1392.3552	1417.7413	1494.4413	1500.6355	1527.8586	1555.7103	1696.9769	1747.3603	2211.9345	3019.8545	3037.5318	3040.844	3104.1804	3121.8239	3490.777	3497.3102	3638.9203
CCNC(=N)C(=O)C#C	CCNC(=N)C(=O)C#C	
InChI=1S/C6H8N2O/c1-3-5(9)6(7)8-4-2/h1H,4H2,2H3,(H2,7,8)	InChI=1S/C6H8N2O/c1-3-5(9)6(7)8-4-2/h1H,4H2,2H3,(H2,7,8)
