17
gdb 72006	2.70748	1.62796	1.18725	3.1206	74.45	-0.2394	-0.0177	0.2217	1036.6767	0.135506	-421.783144	-421.775485	-421.774541	-421.815114	30.054	
O	-0.1013678435	 1.333073703	-0.0143355712	-0.451984
C	 0.041776495	-0.0330485124	-0.0224821405	 0.346917
C	 0.941205883	-0.8895364287	-0.911518055	-0.299018
C	 0.0402942287	-2.077022582	-0.4563892168	-0.070207
C	 0.3837765515	-2.2692131481	 1.0453788917	-0.293627
C	-0.2570035336	-0.9048860264	 1.258316323	 0.189337
C	-0.7160490505	-0.2900778847	 2.5006044142	 0.031761
O	-0.5289212276	-0.7630460558	 3.6007471914	-0.278454
C	-1.0642344438	-1.0146959941	-0.0576334319	-0.168958
H	 0.6624185273	 1.7239566602	 0.4259854839	 0.294503
H	 0.7844129023	-0.6378380899	-1.9637510918	 0.114526
H	 2.0122146553	-0.9528083205	-0.6902749125	 0.095616
H	-0.121699059	-2.9246787783	-1.1168379264	 0.085915
H	-0.2106364479	-3.056028814	 1.516408907	 0.11695
H	 1.4390014712	-2.4017531742	 1.3053888163	 0.099476
H	-1.2661405606	 0.6681261777	 2.3693338011	 0.073621
H	-2.1285931375	-0.9258874917	-0.2192627025	 0.113627
108.1507	165.6695	230.7026	289.0448	344.3552	374.2908	416.9385	436.4425	535.9246	594.3567	678.7028	711.1367	786.9974	814.4733	880.0913	912.4564	929.2179	972.472	982.1836	1016.8442	1034.5228	1066.9485	1108.9783	1120.623	1132.2175	1156.0949	1216.3171	1248.9502	1251.9945	1262.764	1299.6576	1369.6232	1431.2947	1446.4648	1496.1667	1510.3254	1788.0438	2884.1486	3040.3637	3048.679	3107.1398	3108.8648	3151.851	3229.7875	3788.1072
OC12CC3CC1(C=O)C23	O[C@@]12C[C@H]3C[C@]1(C=O)[C@@H]23	
InChI=1S/C7H8O2/c8-3-6-1-4-2-7(6,9)5(4)6/h3-5,9H,1-2H2	InChI=1S/C7H8O2/c8-3-6-1-4-2-7(6,9)5(4)6/h3-5,9H,1-2H2/t4-,5+,6+,7-/m1/s1
