20
gdb 57211	2.43216	1.21979	1.17443	6.1871	74.69	-0.2409	0.0329	0.2737	1194.6166	0.170744	-440.31078	-440.301423	-440.300479	-440.344827	35.491	
C	 0.0094453727	 1.4782223504	-0.1771924988	-0.420378
C	-0.024962203	-0.0441261369	 0.0647368912	-0.155421
C	 0.6754187781	-0.3616827607	 1.3994448425	 0.401795
O	-0.091405356	-0.2850220629	 2.4963147618	-0.379709
O	 1.8497275732	-0.6194251216	 1.4595410592	-0.343439
C	-1.4371898193	-0.6166637554	-0.030835438	 0.321721
N	-2.3344358775	-0.0688388905	 0.9837229443	-0.584612
H	-2.6878907296	 0.8429451977	 0.7084177348	 0.246306
H	-3.1344911622	-0.6730901493	 1.1345690379	 0.245238
H	-1.026308238	-0.1187060937	 2.2162437699	 0.314691
C	-1.9705396185	-1.0033109272	-1.3908709987	-0.31028
C	-1.6035187475	-2.0682562456	-0.3767473781	-0.308688
H	 1.041448878	 1.8374067068	-0.1676972713	 0.145357
H	-0.4335590672	 1.7250956986	-1.1473504171	 0.117642
H	-0.5360608404	 2.022249218	 0.6008172024	 0.12167
H	 0.5895456715	-0.5245046711	-0.7008163508	 0.102952
H	-3.0250510265	-0.8360046048	-1.5845662746	 0.110368
H	-1.3301013627	-0.875351614	-2.2570935131	 0.122716
H	-0.7086262565	-2.6570756264	-0.5445118996	 0.136484
H	-2.4102019186	-2.6198796712	 0.0961067661	 0.115589
71.713	91.9252	193.654	229.8805	238.7106	253.188	314.9863	346.4822	366.5869	393.3502	475.898	506.7519	655.6342	740.4425	770.1197	775.3649	829.3303	874.6144	914.4294	922.5762	958.9451	971.0536	979.436	1017.7618	1052.0826	1077.8975	1084.0449	1095.2343	1183.6129	1190.1943	1263.2006	1288.4537	1313.7786	1332.0698	1400.0802	1404.3225	1466.898	1481.5579	1495.415	1505.0661	1507.1223	1646.5306	1852.872	3037.3432	3079.5972	3107.1621	3123.4514	3127.4922	3132.2146	3208.6076	3222.3716	3291.2534	3499.7426	3585.395
CC(C([O-])=O)C1([NH3+])CC1	C[C@@H](C(=O)O)C1(N)CC1	
InChI=1S/C6H11NO2/c1-4(5(8)9)6(7)2-3-6/h4H,2-3,7H2,1H3,(H,8,9)	InChI=1S/C6H11NO2/c1-4(5(8)9)6(7)2-3-6/h4H,2-3,7H2,1H3,(H,8,9)/t4-/m0/s1
