13
gdb 131641	2.1988	1.5505	0.95075	2.838	70.9	-0.2666	-0.0706	0.1961	1149.6919	0.087653	-452.680487	-452.672351	-452.671407	-452.714068	28.983	
O	 0.0921609334	 1.4833992475	-0.4403066571	-0.404275
C	 0.0370845706	 0.1453504992	 0.0228718304	-0.191321
C	-1.364448099	-0.3664996987	 0.1185317186	 0.113648
C	-2.1250763675	-0.7682110539	 1.182752308	 0.24519
O	-3.3404378776	-1.1146963821	 0.7210342031	-0.217322
N	-3.3136316648	-0.9053309333	-0.6786582203	-0.016909
N	-2.169525445	-0.4805191893	-0.9902792601	-0.165851
C	-1.8504685449	-0.8672755502	 2.5564419692	 0.274194
C	-1.5969429749	-0.9446553174	 3.7299269183	-0.40588
H	-0.3223272292	 1.5058766668	-1.3101250041	 0.298546
H	 0.6254499143	-0.5262901861	-0.6201960737	 0.117459
H	 0.4932412332	 0.137267354	 1.0161769369	 0.134065
H	-1.3767928086	-1.0124238166	 4.7675012709	 0.218457
46.3419	131.3402	161.6281	175.0182	283.0482	357.4979	397.577	472.9439	545.74	594.8328	630.555	687.1831	695.1276	713.1263	735.6062	803.3485	968.4326	1019.5326	1063.3405	1151.6228	1193.8774	1261.9246	1372.5691	1377.7308	1427.0477	1450.5327	1495.0495	1618.9337	2243.3878	2994.7748	3101.7106	3496.3343	3807.7009
OCC1=C(ON=N1)C#C	OCc1c(onn1)C#C	
InChI=1S/C5H4N2O2/c1-2-5-4(3-8)6-7-9-5/h1,8H,3H2	InChI=1S/C5H4N2O2/c1-2-5-4(3-8)6-7-9-5/h1,8H,3H2
