18
gdb 39013	3.08566	1.72783	1.30936	1.672	77.03	-0.2298	0.0032	0.233	981.653	0.150055	-401.892632	-401.885701	-401.884757	-401.923774	28.024	
C	 0.035801975	 1.4097545275	-0.2149009451	-0.24746
C	 1.3160860606	 0.6806635955	-0.0090392008	-0.042574
C	 2.0449000381	 0.7974794722	 1.3108510653	 0.085914
O	 2.5867856497	 2.0895480069	 1.7344477796	-0.308475
C	 1.9278705512	 1.9729750112	 3.0295490366	-0.162637
C	 1.1250753898	 0.8179433796	 2.4911988169	 0.244289
C	-0.0799713514	 0.2732690822	 2.5301676186	-0.251951
C	-0.5035739033	-0.5244702199	 1.31117266	-0.190538
N	 0.0207687368	-0.0310889284	 0.0165877313	-0.103638
H	-0.2893513244	 2.0714388272	 0.5838806918	 0.118108
H	-0.250404606	 1.7210689471	-1.215576334	 0.116106
H	 1.9272769256	 0.4407541062	-0.8760543142	 0.091408
H	 2.8425685911	 0.0415100596	 1.355236262	 0.085448
H	 2.647896403	 1.7300604206	 3.8235721368	 0.109922
H	 1.3789247658	 2.8802344148	 3.3068180516	 0.120035
H	-0.7919582325	 0.4587157746	 3.3291981131	 0.097418
H	-0.1981328343	-1.5753996743	 1.3933680108	 0.121598
H	-1.5958924649	-0.5259538424	 1.2285572397	 0.117028
135.6497	192.9019	277.2101	331.627	383.6848	419.7448	483.5191	597.2914	689.352	719.6936	781.2669	799.329	841.309	901.0811	933.8187	936.9033	961.3249	971.8259	1023.0879	1034.503	1061.6371	1075.8605	1116.7686	1123.0919	1137.9697	1148.119	1162.8162	1256.5669	1274.8451	1295.9989	1308.5949	1336.972	1351.4592	1364.8975	1413.4373	1479.0894	1503.4189	1510.0518	1787.0938	2990.2447	3003.4148	3022.6751	3058.5951	3067.4882	3109.4603	3128.4855	3167.9208	3194.253
C1C2C3OCC3=CCN12	C1[C@H]2[C@H]3OC[C]3[CH]CN12	
InChI=1S/C7H9NO/c1-2-8-3-6(8)7-5(1)4-9-7/h1,6-7H,2-4H2	InChI=1S/C7H9NO/c1-2-8-3-6(8)7-5(1)4-9-7/h1,6-7H,2-4H2/t6-,7-,8?/m0/s1
