14
gdb 16980	4.20909	2.35308	2.18392	0.5831	61.75	-0.246	-0.0201	0.2259	672.9355	0.106773	-382.368954	-382.363285	-382.36234	-382.398267	23.619	
C	 0.0054477559	 1.5612891689	-0.1029041346	-0.189604
O	 1.4797175771	 1.5483647147	 0.1059023766	-0.309909
C	 1.2514110541	 0.3336790176	 0.9247325829	 0.121503
C	 1.3068273883	-1.2682944767	 0.9006555202	-0.073392
O	-0.1834998088	-1.127765629	 1.0615748355	-0.350758
C	 0.0665476615	 0.0258989311	 0.1043309725	 0.275851
C	 0.6080817981	-0.7229789973	-1.1165317546	-0.104821
C	 1.4450931266	-1.6055827083	-0.5720032973	-0.05158
H	-0.4976315775	 2.1336552385	 0.6820814618	 0.126723
H	-0.2510965053	 1.9284897592	-1.1002141955	 0.125513
H	 1.0552801794	 0.6577521511	 1.9504218644	 0.105522
H	 1.7610357173	-1.8776390002	 1.6814247937	 0.093058
H	 0.3385997124	-0.5315837442	-2.1447780383	 0.1119
H	 2.0735563608	-2.3661540854	-1.0096706873	 0.119995
264.9837	292.8994	372.5942	499.953	551.6717	569.6484	681.8635	707.0595	755.1155	795.6162	828.4421	840.3036	846.857	902.9207	907.2699	927.9324	953.1979	1027.0107	1064.0894	1104.5351	1134.0417	1156.1831	1197.4646	1249.268	1262.3189	1279.7355	1324.0572	1378.6822	1495.3331	1622.9325	3048.3436	3073.6892	3119.8959	3134.9813	3234.5649	3262.6606
C1OC2C3OC12C=C3	C1O[C@@H]2[C@H]3O[C@@]12C=C3	
InChI=1S/C6H6O2/c1-2-6-3-7-5(6)4(1)8-6/h1-2,4-5H,3H2	InChI=1S/C6H6O2/c1-2-6-3-7-5(6)4(1)8-6/h1-2,4-5H,3H2/t4-,5+,6-/m0/s1
