18
gdb 78931	2.64869	1.96631	1.50094	2.4802	73.36	-0.2245	0.0523	0.2768	929.6497	0.148517	-401.856467	-401.84923	-401.848286	-401.887758	29.355	
C	-0.0737414771	 1.4513241715	 0.0447752108	-0.520609
C	-0.0942849456	-0.0450759297	-0.0325535291	 0.316218
C	-0.1552627674	-0.9955861625	 1.1976305109	-0.168209
C	 0.9835757933	-1.0546078218	 0.2218178586	-0.074965
N	 0.223633874	-2.0903563781	-0.5990066626	-0.192733
C	-0.8069636565	-2.2227407058	 0.5459009072	-0.06229
C	-1.9104415222	-1.722210095	-0.4076971366	 0.145693
O	-3.0246192921	-1.0303440215	 0.0787204119	-0.439656
C	-0.7364663039	-0.9773195818	-1.0764143616	-0.111301
H	 0.5311283319	 1.7935284738	 0.8913475498	 0.125053
H	 0.3529002732	 1.8892637486	-0.8645069028	 0.128945
H	-1.0812288875	 1.8659073493	 0.1686035714	 0.120199
H	-0.175739491	-0.6339453995	 2.2178977069	 0.091439
H	 2.0599147666	-0.993700902	 0.3269190404	 0.097248
H	-0.8675392708	-3.1644816255	 1.0910275861	 0.077512
H	-2.2759743349	-2.5310662536	-1.0456671637	 0.106512
H	-2.7027234665	-0.3541118719	 0.6856989066	 0.287391
H	-0.7275204536	-0.6945740047	-2.1295504843	 0.073554
147.389	193.4769	231.5288	279.6929	324.2808	386.6951	550.365	605.7371	627.6421	739.0685	755.6408	779.1463	818.5307	855.2918	862.0677	891.016	918.5529	935.1281	962.4892	984.7294	999.1357	1029.7566	1086.269	1104.1868	1128.8534	1142.7099	1163.3857	1173.2639	1203.0298	1214.774	1247.1288	1286.6463	1298.2198	1311.3471	1411.3932	1429.2502	1435.0599	1484.1743	1500.0347	3022.0571	3080.8435	3091.0593	3094.0951	3111.991	3119.1158	3180.882	3196.3792	3797.774
CC12C3C1N1C3C(O)C21	C[C@]12[C@@H]3[C@H]1N1[C@@H]3[C@@H](O)[C@@H]21	
InChI=1S/C7H9NO/c1-7-2-3-4(9)6(7)8(3)5(2)7/h2-6,9H,1H3	InChI=1S/C7H9NO/c1-7-2-3-4(9)6(7)8(3)5(2)7/h2-6,9H,1H3/t2-,3-,4+,5+,6-,7-/m0/s1
