19
gdb 102115	2.35619	1.19959	0.89726	2.4875	71.8	-0.2459	-0.0405	0.2054	1311.7751	0.157167	-460.144715	-460.135108	-460.134163	-460.179585	34.96	
O	 0.138698746	 1.3771681156	 0.0674276892	-0.417519
C	 0.0404431379	-0.0387387377	 0.0947529032	-0.09722
C	-1.405100867	-0.5237528883	-0.0625806304	-0.126361
C	-2.0289305753	 0.0274458328	-1.3418282193	 0.16208
O	-3.1581630959	-0.2207947705	-1.6996440983	-0.26579
C	-1.5265601357	-2.039639942	-0.0034898809	-0.058189
C	-1.7952802772	-2.7319385042	 1.3221754538	-0.321949
C	-2.873283738	-2.660943286	 0.2808068146	 0.117123
O	-3.9552626261	-1.8244964563	 0.5395085198	-0.433088
H	-0.2737960135	 1.7208368771	 0.866655544	 0.287208
H	 0.6478195397	-0.3915281084	-0.7472039669	 0.116348
H	 0.4767486489	-0.4656855227	 1.0082585041	 0.107178
H	-2.0100815756	-0.1077315505	 0.7554004808	 0.112186
H	-1.3852037781	 0.6949540701	-1.9496226765	 0.111878
H	-0.8898631523	-2.5681041212	-0.7092569668	 0.088194
H	-1.3153082457	-3.6838708698	 1.5194184145	 0.114953
H	-1.9307392644	-2.0997182618	 2.193193218	 0.119823
H	-3.1139475079	-3.5794950877	-0.2548211353	 0.086542
H	-4.0797901897	-1.2923404384	-0.2632466777	 0.296601
70.6911	85.7894	130.4352	158.4685	209.0812	227.3875	287.4515	328.2233	372.0117	409.0733	491.0889	538.2731	627.3559	638.5829	775.1838	818.7651	858.8873	898.4996	940.317	987.6947	1025.3985	1044.3513	1064.8049	1096.3033	1110.6279	1134.2803	1154.6652	1176.4626	1198.1856	1242.0975	1250.8635	1327.5809	1364.8506	1381.4841	1396.0047	1411.5823	1427.2692	1435.9758	1484.0061	1506.3726	1799.6088	2935.0588	3010.3157	3017.853	3066.1042	3094.403	3132.0625	3136.1505	3224.6983	3672.4282	3813.4441
OCC(C=O)C1CC1O	OC[C@@H](C=O)[C@H]1C[C@H]1O	
InChI=1S/C6H10O3/c7-2-4(3-8)5-1-6(5)9/h2,4-6,8-9H,1,3H2	InChI=1S/C6H10O3/c7-2-4(3-8)5-1-6(5)9/h2,4-6,8-9H,1,3H2/t4-,5-,6-/m1/s1
