23
gdb 119561	2.80172	0.99588	0.8539	1.1688	85.86	-0.2443	0.0802	0.3245	1459.5839	0.205104	-388.262504	-388.252664	-388.25172	-388.297414	37.021	
C	-0.1251896398	 1.5534320061	-0.1445481992	-0.412898
C	 0.0826734374	 0.0431450468	-0.1172922613	-0.025678
C	 1.2867923137	-0.5718872419	-0.911748186	-0.247689
C	 1.7618242493	-1.2576774634	 0.3727474791	-0.115509
C	 2.0379904178	-0.2245398596	 1.428980824	-0.330896
C	 0.6095862565	-0.6358000832	 1.1687399586	 0.373343
C	-0.257368059	-1.2535124281	 2.2321693268	-0.304355
C	-0.8988571239	-0.2268292222	 3.1630956635	-0.06805
O	-1.6723418914	-0.9342544481	 4.1213059227	-0.419912
H	 0.7745546131	 2.0923641707	 0.1703319608	 0.113919
H	-0.3757363492	 1.8939858758	-1.1556565702	 0.112813
H	-0.9436404063	 1.8562259448	 0.5182164329	 0.113417
H	-0.8438449511	-0.453150167	-0.4270849643	 0.069897
H	 0.9666908424	-1.2642136261	-1.6935516425	 0.099402
H	 1.9907570555	 0.1448642211	-1.3502069959	 0.090381
H	 2.1609186516	-2.2631772405	 0.4412091825	 0.082443
H	 2.4578892581	-0.6056202711	 2.3552317302	 0.107365
H	 2.4099885877	 0.759110904	 1.15094721	 0.100653
H	-1.056182798	-1.8504127689	 1.7734734407	 0.100833
H	 0.3363118639	-1.9434305168	 2.8444456857	 0.102753
H	-0.111849037	 0.3739284222	 3.6459823966	 0.087168
H	-1.5268801557	 0.4667275211	 2.580798195	 0.086437
H	-2.0783419655	-0.2937256755	 4.7123352002	 0.284164
70.4331	93.0546	105.9339	195.8451	214.1188	260.7659	266.5337	308.9368	340.1888	375.5023	436.2642	509.6845	663.6434	713.6704	787.225	818.1934	844.4584	872.9121	906.1068	936.6595	973.6401	998.3318	1009.9418	1036.8962	1056.9564	1073.1411	1083.3731	1092.5267	1110.2778	1154.0341	1184.0268	1205.1094	1233.5188	1244.6635	1257.4361	1267.0285	1297.0138	1324.1127	1343.7808	1366.6951	1399.5856	1417.1245	1458.9425	1482.266	1486.882	1493.1788	1495.6433	1507.7972	1527.0494	2965.3695	2991.7368	3021.5349	3025.807	3035.7185	3036.3851	3064.1021	3088.8046	3096.9859	3102.2396	3105.2274	3173.2805	3191.2322	3830.5921
CC1CC2CC12CCO	C[C@H]1C[C@H]2C[C@@]12CCO	
InChI=1S/C8H14O/c1-6-4-7-5-8(6,7)2-3-9/h6-7,9H,2-5H2,1H3	InChI=1S/C8H14O/c1-6-4-7-5-8(6,7)2-3-9/h6-7,9H,2-5H2,1H3/t6-,7-,8-/m0/s1
