18
gdb 41082	3.46102	1.86724	1.61009	1.1878	74.53	-0.2188	0.0728	0.2916	879.4198	0.150468	-401.846227	-401.840212	-401.839268	-401.876187	26.326	
C	-0.0250662928	 1.353866535	-0.3843994093	-0.184903
C	 1.4360530001	 1.5988223912	 0.1234939624	-0.367273
C	 1.1399929545	 0.374429296	 0.9748880232	 0.359402
C	 1.6220757673	-0.8369778384	 1.8628179534	-0.06564
C	 0.448554253	-1.7973015639	 1.515512959	-0.189954
C	-0.5666113569	-0.6469212543	 1.2593890441	-0.080199
C	 0.1609335772	 0.4354351503	 2.1808526829	 0.048901
O	 1.0929383866	-0.1998155659	 3.0597011041	-0.294694
N	 0.0894087074	-0.0980309259	 0.0239201846	-0.143208
H	-0.7645914238	 1.9357905493	 0.178007121	 0.104976
H	-0.2135915473	 1.4698171994	-1.4531529979	 0.111917
H	 2.173191491	 1.4113555243	-0.6610006523	 0.120449
H	 1.6618528057	 2.5343493383	 0.6371688361	 0.113059
H	 2.6372168409	-1.2146111405	 1.9656158414	 0.08507
H	 0.5908592893	-2.3991688742	 0.6173653037	 0.113433
H	 0.2140731816	-2.4211478242	 2.3796474768	 0.10809
H	-1.6326601959	-0.8714694257	 1.2623583462	 0.072147
H	-0.3537525778	 1.2985229393	 2.5992393107	 0.088428
254.0638	279.5078	359.1142	441.752	522.6883	566.4032	642.3959	718.7958	754.4631	777.1011	839.2924	856.9493	864.6452	893.174	898.3164	910.283	911.3114	967.6927	1004.1697	1019.4097	1039.0622	1070.8699	1103.1088	1110.3888	1129.4618	1157.8747	1167.644	1196.2154	1219.3459	1227.4816	1241.8102	1252.4661	1265.8133	1285.7481	1308.2597	1353.1942	1461.5626	1478.4212	1506.411	3034.2753	3071.694	3084.3551	3108.2185	3122.0898	3134.5859	3137.2897	3147.5365	3151.2021
C1CC23C4CC(C2O4)N13	C1C[C@@]23[C@@H]4C[C@@H]([C@H]2O4)N13	
InChI=1S/C7H9NO/c1-2-8-4-3-5-7(1,8)6(4)9-5/h4-6H,1-3H2	InChI=1S/C7H9NO/c1-2-8-4-3-5-7(1,8)6(4)9-5/h4-6H,1-3H2/t4-,5-,6+,7+/m0/s1
