16
gdb 28308	5.10433	1.28789	1.03649	3.1059	81.04	-0.1739	-0.019	0.1548	1104.8099	0.127864	-396.975461	-396.968301	-396.967357	-397.006799	28.246	
N	 0.0198092618	 1.3713601183	 0.1448250711	-0.596731
C	-0.0292287411	-0.0228646497	 0.0531269122	 0.279119
C	-1.1444951783	-0.8458699429	 0.0415621848	-0.236448
N	-0.6214327259	-2.1240905737	 0.0142667524	 0.003826
C	-1.0457983993	-3.5091940697	-0.0208723739	-0.241053
C	 0.2902083764	-4.2329126527	-0.0392009554	-0.105876
C	 1.3004921895	-3.3448088033	-0.0192623592	-0.189759
C	 0.7351314283	-2.0077354966	 0.0134174463	 0.38259
N	 1.1370922133	-0.7493848311	 0.0337006051	-0.411744
H	 0.9292306372	 1.7109137515	-0.1413821136	 0.248276
H	-0.708470332	 1.8370490829	-0.3798040107	 0.239255
H	-2.2002943501	-0.6384672728	 0.0618604791	 0.116155
H	-1.646667606	-3.7724936713	 0.8585586329	 0.138858
H	-1.6469509866	-3.7272964433	-0.9124368987	 0.137622
H	 0.3629269597	-5.3104297014	-0.0630733524	 0.113279
H	 2.3594788631	-3.5576475043	-0.0249974799	 0.122631
123.0899	214.1944	250.8339	300.6711	311.5118	436.1356	518.9553	571.8058	631.6445	652.2416	686.3466	750.5761	760.7244	775.0646	815.5916	900.4591	939.7182	943.1316	983.2534	1013.1641	1086.7709	1098.6211	1174.9295	1184.0358	1212.7074	1275.3775	1338.6656	1361.0955	1432.3769	1442.7641	1486.4198	1559.6554	1589.7167	1622.9557	1641.6909	3027.4587	3058.4772	3236.1832	3257.1555	3280.0338	3541.6989	3637.7107
NC1=CN2CC=CC2=N1	Nc1cn2CC=Cc2n1	
InChI=1S/C6H7N3/c7-5-4-9-3-1-2-6(9)8-5/h1-2,4H,3,7H2	InChI=1S/C6H7N3/c7-5-4-9-3-1-2-6(9)8-5/h1-2,4H,3,7H2
