13
gdb 7936	3.54308	2.00028	1.36567	2.8186	55.82	-0.2971	-0.0168	0.2803	853.1447	0.095859	-435.804212	-435.797308	-435.796364	-435.835686	24.883	
C	-0.0278197226	 1.5553347286	-0.0253402523	-0.39885
C	 0.0280936099	 0.0364250505	 0.0133414141	 0.025546
O	 0.8229979978	-0.483575385	-1.0708085309	-0.247023
C	 1.8264586334	-1.2468367326	-0.601143221	 0.500547
O	 2.6418420015	-1.8115190544	-1.2480717943	-0.347998
O	 1.7792373013	-1.2843656199	 0.7822434854	-0.232109
C	 0.723156847	-0.5250555174	 1.2344253389	 0.392312
N	 0.4025173666	-0.3310524441	 2.4302019454	-0.518653
H	 0.9774521785	 1.9811181131	 0.0319256126	 0.138386
H	-0.5042074124	 1.8930196086	-0.948493395	 0.142613
H	-0.6077048282	 1.9103437498	 0.8298628197	 0.15814
H	-0.9761614937	-0.3905430895	-0.0768782499	 0.140682
H	 1.026153121	-0.8149620377	 3.0766572571	 0.246408
90.2751	150.818	226.9098	245.4482	378.2507	403.4962	577.0615	636.6137	655.6406	724.2053	774.6643	811.1661	902.3648	919.9608	976.6975	1025.9945	1084.1798	1121.7931	1130.8873	1147.9169	1326.4709	1342.2914	1375.3975	1407.3152	1485.5493	1493.7508	1811.2627	1957.335	3054.7851	3063.1015	3135.9439	3143.3824	3496.1086
CC1OC(=O)OC1=N	C[C@H]1OC(=O)O[C]1[NH]	
InChI=1S/C4H5NO3/c1-2-3(5)8-4(6)7-2/h2,5H,1H3	InChI=1S/C4H5NO3/c1-2-3(5)8-4(6)7-2/h2,5H,1H3/t2-/m1/s1
