21
gdb 112523	2.87316	1.0387	0.89166	4.4409	84.75	-0.2304	0.0299	0.2603	1399.1553	0.181789	-383.272058	-383.262245	-383.261301	-383.307045	35.585	
C	 0.1098122413	 1.5288752591	-0.0614302021	-0.385379
C	 0.0717022633	 0.0091913585	 0.0853774224	-0.127381
N	-1.2878380465	-0.4961245552	 0.1052493554	-0.064219
C	-2.1170414421	-0.2525330214	 1.2956239914	-0.17424
C	-2.7328186447	-1.673633494	 1.1260263307	-0.211442
C	-4.0266728019	-1.6987633131	 0.4651674096	 0.295976
N	-5.0589725479	-1.7258683492	-0.055416386	-0.335157
C	-1.4989792555	-1.9542118759	 0.1975396261	 0.061076
C	-1.6753985546	-2.6942588592	-1.1137906522	-0.408028
H	 1.143136141	 1.8865788888	-0.0932289673	 0.117142
H	-0.3977019569	 1.8391006024	-0.9789929558	 0.130942
H	-0.3855456477	 2.0212386233	 0.7821511589	 0.120583
H	 0.5876957485	-0.4570633334	-0.762503181	 0.10679
H	 0.6237940649	-0.2922353005	 0.998897348	 0.073567
H	-1.5391580211	-0.1882663602	 2.2326047552	 0.092717
H	-2.7983489242	 0.5994909872	 1.2311779789	 0.126733
H	-2.7809800165	-2.2787104777	 2.0323716776	 0.124866
H	-0.7196754682	-2.4429303421	 0.8092338327	 0.065275
H	-2.4855391253	-2.255865652	-1.7013091499	 0.146872
H	-0.7537985782	-2.6433063495	-1.7029065432	 0.12092
H	-1.9004397076	-3.7511465759	-0.9364530093	 0.122385
65.6095	86.7649	139.5634	173.5307	192.6049	220.5267	247.8786	274.1431	341.9124	415.6081	470.1059	503.3955	608.495	691.7957	774.3217	808.4772	824.5695	878.168	964.4895	988.6051	1001.2999	1043.3624	1077.9571	1107.8527	1132.3035	1150.8098	1156.4793	1191.5996	1220.459	1238.3508	1275.7443	1306.6493	1332.7248	1351.2298	1382.0547	1398.6302	1413.4876	1418.6515	1484.5406	1488.254	1491.663	1493.2589	1507.6727	1521.6777	2353.5955	2895.3157	2937.5056	2966.6542	3038.9499	3039.9406	3048.9118	3088.0331	3104.4526	3106.0522	3107.3028	3121.9698	3130.2472
CCN1CC(C#N)C1C	CCN1C[C@@H](C#N)[C@H]1C	
InChI=1S/C7H12N2/c1-3-9-5-7(4-8)6(9)2/h6-7H,3,5H2,1-2H3	InChI=1S/C7H12N2/c1-3-9-5-7(4-8)6(9)2/h6-7H,3,5H2,1-2H3/t6-,7-/m1/s1
