14
gdb 5289	4.92277	1.60401	1.21882	4.6217	65.41	-0.236	-0.0287	0.2072	932.5311	0.108476	-378.787294	-378.78012	-378.779176	-378.819149	25.771	
C	-0.0668959126	 1.4925533588	 0.0101286051	-0.47873
C	 0.0299176952	-0.0179280107	 0.0035978763	 0.297975
O	 1.0950042921	-0.6066436837	-0.0077673088	-0.323771
C	-1.2418779082	-0.7676837932	 0.011385405	 0.18821
C	-1.3739829095	-2.1391620336	 0.0075449922	-0.148598
N	-2.7200056677	-2.3728101187	 0.0177746253	-0.234806
C	-3.348861191	-1.1546729152	 0.0274672732	 0.00942
N	-2.4887515182	-0.1699540059	 0.0239536022	-0.3048
H	 0.9363150165	 1.919752037	 0.0029348838	 0.129357
H	-0.6349637866	 1.8402849555	-0.8585952719	 0.145405
H	-0.6195231242	 1.8336470314	 0.8913620466	 0.145384
H	-0.6394565339	-2.9258857963	-0.0013861236	 0.161133
H	-3.1657699081	-3.2758026071	 0.0181552542	 0.275024
H	-4.4250474638	-1.0650571884	 0.0366943304	 0.138797
81.9297	119.9905	188.4589	198.4514	373.0359	506.2074	557.1095	580.3878	632.2657	671.2869	720.9301	795.7383	841.2997	928.7611	949.0468	982.7348	1046.2907	1082.2607	1122.1221	1158.1506	1245.9173	1326.8469	1366.5558	1390.4133	1434.3745	1457.1848	1467.9136	1535.1955	1567.7063	1771.7196	3047.4508	3109.0333	3156.6316	3252.0601	3292.9458	3656.9328
CC(=O)C1=CNC=N1	CC(=O)c1c[nH]cn1	
InChI=1S/C5H6N2O/c1-4(8)5-2-6-3-7-5/h2-3H,1H3,(H,6,7)	InChI=1S/C5H6N2O/c1-4(8)5-2-6-3-7-5/h2-3H,1H3,(H,6,7)
