17
gdb 32568	2.0822	1.82926	1.04835	4.4686	70.44	-0.1784	0.0508	0.2292	1124.0086	0.135681	-455.20178	-455.192419	-455.191474	-455.236357	33.505	
C	-0.0116060253	 1.5521118717	-0.175114263	-0.380571
C	-0.0656632172	 0.0378321214	 0.038193571	-0.152397
N	-1.4174515894	-0.4949384868	 0.0145410671	-0.144315
C	-2.1233904568	-0.8359922156	 1.1767897258	 0.463529
O	-1.7263711478	-0.7516294624	 2.3255209221	-0.448516
N	-3.3384233939	-1.2816417566	 0.7063640189	-0.365954
C	-3.3983083943	-1.2258268143	-0.700859315	-0.245135
C	-2.2049888026	-0.7366458396	-1.0985204276	 0.357267
O	-1.6711257467	-0.4605536706	-2.31126574	-0.433291
H	 1.0251150523	 1.9004064221	-0.131000131	 0.117019
H	-0.4228306893	 1.8243573911	-1.1510664441	 0.129038
H	-0.5811538334	 2.0700024256	 0.6016710948	 0.134835
H	 0.5264441847	-0.4785879192	-0.7236855726	 0.118944
H	 0.3317386599	-0.2264137594	 1.0213544066	 0.145464
H	-4.0602745187	-1.6081760277	 1.3221862781	 0.265562
H	-4.264902634	-1.5255520199	-1.2614538705	 0.128383
H	-2.3078734276	-0.6979928495	-2.9929482308	 0.310139
54.4889	92.6477	118.0059	204.6019	209.7557	236.9954	293.3225	336.906	411.9231	437.9303	553.0057	589.0794	600.2195	632.3027	731.1773	752.7225	777.9772	798.5059	970.2677	1010.6846	1067.2151	1105.2651	1144.3151	1185.1205	1227.4891	1290.3453	1332.5314	1381.4441	1387.2894	1393.5457	1410.3913	1472.1283	1492.3085	1504.6083	1527.7474	1701.8599	1826.5152	3042.98	3057.1946	3107.6694	3116.3328	3131.8366	3293.7352	3707.7226	3836.9494
CCN1C(=O)NC=C1O	CCn1c(=O)[nH]cc1O	
InChI=1S/C5H8N2O2/c1-2-7-4(8)3-6-5(7)9/h3,8H,2H2,1H3,(H,6,9)	InChI=1S/C5H8N2O2/c1-2-7-4(8)3-6-5(7)9/h3,8H,2H2,1H3,(H,6,9)
