19
gdb 15797	5.40507	1.01865	0.94415	2.7506	72.67	-0.2145	-0.0243	0.1902	1250.3457	0.16331	-365.031454	-365.022477	-365.021533	-365.065824	32.006	
C	 0.1390247059	 1.5172817584	-0.4285765423	-0.338645
N	 0.0395594948	 0.1083951883	-0.0811942278	-0.077798
C	 0.5658775622	-0.1672122102	 1.2447377911	-0.226978
C	 2.083359223	-0.0639570359	 1.272305373	 0.151077
O	 2.7294123123	 0.2603864136	 2.2334971047	-0.239933
C	-1.2339568443	-0.5348470043	-0.3085922282	 0.071039
C	-2.5584876691	-0.0377999353	 0.2437031142	-0.281017
C	-2.2798465776	-0.0094682169	-1.2450547045	-0.298278
H	 1.1632091947	 1.8585352539	-0.2469475433	 0.129904
H	-0.0700509426	 1.6633933379	-1.4902117777	 0.131196
H	-0.5294709718	 2.1737790062	 0.158027523	 0.102888
H	 0.1464508506	 0.4630678527	 2.0477508407	 0.107595
H	 0.3289030037	-1.2090240865	 1.503506876	 0.12684
H	 2.5595344058	-0.3481277038	 0.305648833	 0.084318
H	-1.1204710122	-1.6167372778	-0.3102817698	 0.094212
H	-3.2613786771	-0.7639932566	 0.63671468	 0.113344
H	-2.5735494836	 0.9187275739	 0.754695414	 0.115866
H	-2.1428489332	 0.9634827564	-1.7006517627	 0.118037
H	-2.7826305512	-0.7240406342	-1.8872868033	 0.116334
53.9387	71.1222	93.0819	182.9805	233.9812	281.5348	306.8017	379.3828	408.7616	492.4506	557.987	741.8059	760.5368	798.0373	819.6838	901.911	951.4412	1015.1178	1046.1267	1052.9561	1073.3323	1084.433	1117.7648	1140.1742	1152.6669	1194.7684	1203.9734	1229.4733	1255.8751	1314.401	1361.1163	1399.8509	1410.0327	1454.5073	1461.2048	1474.044	1497.2844	1505.9814	1512.549	1839.7239	2874.1048	2941.116	2961.4376	3033.1677	3069.3833	3120.8654	3122.5934	3135.1346	3146.1778	3215.7808	3232.078
CN(CC=O)C1CC1	CN(CC=O)C1CC1	
InChI=1S/C6H11NO/c1-7(4-5-8)6-2-3-6/h5-6H,2-4H2,1H3	InChI=1S/C6H11NO/c1-7(4-5-8)6-2-3-6/h5-6H,2-4H2,1H3
