21
gdb 119256	1.6209	1.30538	0.81771	2.4944	79.09	-0.2469	-0.0227	0.2243	1447.9172	0.179933	-424.215566	-424.205229	-424.204285	-424.252401	36.731	
O	-1.4946110636	 1.3041173318	-1.7291313866	-0.419441
C	-1.4673615136	-0.113760456	-1.65647659	-0.08039
C	-1.501409419	-0.4899617299	-0.1769511252	-0.258652
C	-1.6547347055	-1.9812599242	 0.0862403145	 0.355229
C	-0.5578112209	-2.8757362449	-0.4868342151	-0.355086
C	 0.8089457451	-2.5178215738	 0.0585554837	 0.165631
O	 1.7578193591	-2.206859484	-0.6152556809	-0.243747
C	-2.2688751266	-2.3927870507	 1.4064543137	-0.314057
C	-3.055471084	-2.548394086	 0.128255039	-0.311053
H	-1.3599564251	 1.5611414484	-2.6456943043	 0.286802
H	-2.3342613708	-0.5582093691	-2.1726292182	 0.085632
H	-0.5586764182	-0.5156688134	-2.1289698192	 0.101944
H	-0.5888917505	-0.1072143443	 0.297673626	 0.11231
H	-2.3375929864	 0.0471515898	 0.2846145484	 0.106129
H	-0.7637161224	-3.9174413805	-0.2047596038	 0.112905
H	-0.5150078052	-2.8280398109	-1.5792407758	 0.120098
H	 0.8824665795	-2.552056611	 1.1703692336	 0.077412
H	-1.9005466706	-3.2919189628	 1.8892874513	 0.110843
H	-2.5620682423	-1.6096496546	 2.0971101405	 0.117836
H	-3.880491656	-1.8664253138	-0.0476786226	 0.117911
H	-3.218625783	-3.5500687502	-0.2550213588	 0.111743
27.2471	71.6944	93.6376	114.3011	175.7701	209.8309	257.7615	292.618	340.3112	382.4715	400.5566	489.5567	514.9566	735.0315	785.1302	800.5991	828.9379	893.284	927.5271	958.6032	970.9128	1017.5092	1037.296	1055.3616	1075.0989	1080.6576	1093.6772	1111.7914	1187.596	1200.2178	1215.7371	1253.8943	1287.5645	1307.7254	1317.0993	1346.6915	1382.0002	1423.6229	1457.847	1467.7224	1470.7815	1487.9508	1504.9727	1529.5177	1830.4973	2864.6385	2965.1324	3004.1133	3019.9739	3027.9809	3073.87	3089.333	3128.7053	3133.0675	3206.9947	3220.8504	3833.0704
OCCC1(CC=O)CC1	OCCC1(CC=O)CC1	
InChI=1S/C7H12O2/c8-5-3-7(1-2-7)4-6-9/h5,9H,1-4,6H2	InChI=1S/C7H12O2/c8-5-3-7(1-2-7)4-6-9/h5,9H,1-4,6H2
