16
gdb 34243	3.35942	1.61073	1.38769	5.0999	73.2	-0.2429	0.0076	0.2506	937.633	0.128146	-396.875868	-396.869445	-396.868501	-396.906607	26.287	
N	-0.0522905794	-1.1369665204	 0.0652941327	-0.33857
C	-0.0509269006	 0.0187064444	 0.028352316	 0.174724
C	-0.0782322563	 1.4559026835	-0.0135953849	 0.262332
N	-1.0340795021	 2.2256550911	 0.8247941166	-0.36363
C	-0.6703676074	 3.3623448155	-0.0980674635	-0.064846
C	 0.7492535273	 3.6463716862	 0.4185000346	-0.200147
C	 1.2970265118	 2.282732078	-0.0587767048	-0.060928
N	 1.1443452179	 2.3196923276	-1.5407108574	-0.300038
C	-0.2932256917	 2.3277768434	-1.2781482997	-0.067618
H	-1.969529412	 1.8926271817	 0.5871995199	 0.229884
H	-1.3879797245	 4.1718796616	-0.207165614	 0.08577
H	 1.2654200735	 4.474341441	-0.0754478283	 0.099601
H	 0.7513428298	 3.7912016286	 1.4994464903	 0.126691
H	 2.2246495256	 1.8856883807	 0.3475193184	 0.099858
H	 1.5183650535	 3.1629541238	-1.9750910665	 0.217577
H	-1.0047646154	 2.1180539035	-2.0760717394	 0.099341
151.6217	157.0243	399.4182	438.0466	505.424	531.3018	544.861	563.8275	703.4461	726.9546	797.4462	824.1023	886.8894	912.8381	919.4543	946.8405	968.3307	994.0631	1000.416	1035.2578	1044.7465	1075.5043	1131.9464	1141.476	1170.6505	1214.4036	1226.2385	1257.9926	1270.2428	1287.9614	1332.1476	1339.3209	1361.0051	1481.1104	2355.468	3067.9133	3129.6751	3136.6536	3149.9861	3154.4831	3454.5396	3458.6174
N#CC12NC3CC1NC23	N#C[C@@]12N[C@H]3C[C@@H]1N[C@@H]23	
InChI=1S/C6H7N3/c7-2-6-4-1-3(9-6)5(6)8-4/h3-5,8-9H,1H2	InChI=1S/C6H7N3/c7-2-6-4-1-3(9-6)5(6)8-4/h3-5,8-9H,1H2/t3-,4-,5+,6+/m0/s1
