15
gdb 80195	2.3826	1.84041	1.48816	4.6889	59.79	-0.2594	-0.002	0.2574	914.8908	0.112855	-494.907861	-494.900297	-494.899352	-494.939877	28.985	
O	-0.266557476	 1.4924378274	 0.3760609226	-0.42228
C	-0.0837530361	 0.1289627871	 0.1147705926	 0.057641
C	-0.4992579991	-0.8871505537	 1.1485194521	 0.019677
O	-1.1702783998	-0.3622317423	 2.2750898674	-0.221094
C	-2.3643133753	 0.2061146582	 1.8994330079	 0.38212
O	-3.0435449714	 0.8160700641	 2.6644401502	-0.315423
C	-2.6249365458	-0.0550537444	 0.3923140469	-0.002445
O	-3.0533800487	 1.095930176	-0.2847077204	-0.421231
C	-1.3346632361	-0.6943106064	-0.093453235	-0.158072
H	 0.2274732946	 1.7290724819	 1.1694104833	 0.30873
H	 0.7787525531	-0.1119479053	-0.5035988669	 0.111569
H	 0.0886815983	-1.7658694578	 1.3799228626	 0.122138
H	-3.4477358398	-0.7752077783	 0.3238281279	 0.125288
H	-2.3446289009	 1.7466476486	-0.1966808605	 0.300802
H	-1.3677717771	-1.4256862849	-0.8902627006	 0.112579
92.3874	183.5184	208.6286	278.5564	300.8774	375.8325	482.5137	502.8	563.2526	600.7458	662.2546	716.9789	771.2014	793.3374	818.6584	861.3314	949.7573	1030.3725	1054.8446	1061.954	1098.6916	1121.0878	1129.1264	1153.4224	1213.3953	1270.9608	1294.7795	1310.067	1330.3893	1359.3529	1433.044	1450.4096	1903.5057	3059.2619	3126.1286	3195.7201	3204.2453	3774.029	3800.0343
OC1C2OC(=O)C(O)C12	O[C@H]1[C@H]2OC(=O)[C@@H](O)[C@@H]12	
InChI=1S/C5H6O4/c6-2-1-3(7)5(8)9-4(1)2/h1-4,6-7H	InChI=1S/C5H6O4/c6-2-1-3(7)5(8)9-4(1)2/h1-4,6-7H/t1-,2-,3+,4+/m1/s1
