19
gdb 111529	2.87622	1.42818	1.15799	2.4987	76.09	-0.2241	0.0707	0.2948	1124.5526	0.157516	-422.942893	-422.934442	-422.933498	-422.97606	32.15	
C	 0.2742842439	 0.8834233765	-0.4062061198	-0.232495
O	-0.4091218565	-0.0609219078	 0.3938947021	-0.230053
C	 0.4074194278	-0.6646121818	 1.3333427456	 0.10885
C	 0.1049736113	-2.0303942618	 1.8401291033	 0.031718
O	-0.4791683006	-2.8651928916	 0.8424999408	-0.305704
C	 0.7079340248	-2.7445242668	 0.0423315423	 0.493252
C	 1.288604035	-3.9344715976	-0.6439813743	-0.351767
C	 0.6659031391	-2.7958731726	-1.4451595636	-0.325828
C	 1.3719482782	-1.794131056	 1.0085370371	-0.311806
H	 1.1050443693	 0.4204459653	-0.9569281987	 0.110173
H	-0.450318234	 1.2842376512	-1.1183890193	 0.129714
H	 0.676214357	 1.7116609351	 0.1974383588	 0.104287
H	 0.8000998805	 0.0078170449	 2.1020131083	 0.087926
H	-0.0631386666	-2.2985030871	 2.8771016265	 0.106869
H	 2.3678789126	-4.0492649594	-0.6548089469	 0.114015
H	 0.7310703927	-4.8621187912	-0.5747275003	 0.126963
H	-0.3026311214	-2.9780408889	-1.8974753783	 0.129948
H	 1.3166925798	-2.1384109954	-2.0119841485	 0.113462
H	 2.4198294471	-1.7984928451	 1.2796440948	 0.100475
85.4566	121.4295	157.2197	188.7823	274.8353	287.6088	314.4985	440.8701	547.737	607.0265	656.0538	735.4099	749.617	823.1289	866.5753	883.2462	920.6266	931.0111	970.6958	991.992	1006.9826	1048.1997	1049.6962	1066.1912	1072.6121	1096.8754	1100.4727	1181.2452	1185.2387	1194.0336	1198.9163	1245.5134	1274.6409	1330.9127	1400.0895	1426.1898	1447.1951	1484.76	1490.2126	1504.7165	1507.2049	2982.5851	3036.0719	3064.1641	3121.517	3127.9643	3133.204	3175.06	3194.7176	3213.0321	3227.4624
COC1C2OC3(CC3)C12	CO[C@H]1[C@H]2OC3(CC3)[C@@H]12	
InChI=1S/C7H10O2/c1-8-5-4-6(5)9-7(4)2-3-7/h4-6H,2-3H2,1H3	InChI=1S/C7H10O2/c1-8-5-4-6(5)9-7(4)2-3-7/h4-6H,2-3H2,1H3/t4-,5+,6-/m0/s1
