19
gdb 92756	3.32707	1.12544	0.93152	1.8769	78.31	-0.2253	-0.0545	0.1709	1306.6483	0.158891	-419.251752	-419.242444	-419.2415	-419.286474	33.651	
C	 0.1546457513	 1.4697293869	 0.2030395975	-0.396359
C	-0.0608492292	-0.0234835173	-0.0561095578	 0.021764
C	 0.7917816628	-0.5768572237	-1.2414254851	-0.179557
N	 1.9522746374	-1.2540401907	-0.6356515039	-0.302416
C	 1.6737918605	-1.3547527848	 0.6136455653	 0.268152
N	 0.4550807005	-0.8677480267	 1.0323404262	-0.337455
C	 2.5953579566	-1.9613852541	 1.6320859323	 0.332457
C	 3.8334729131	-2.6492371186	 1.1164145079	-0.4772
O	 2.3150317227	-1.8676558323	 2.8089135391	-0.312085
H	 1.2198035722	 1.6931460097	 0.3249732507	 0.128632
H	-0.2252049105	 2.0611276855	-0.6367889657	 0.121855
H	-0.3707567035	 1.7965375991	 1.1067962589	 0.117108
H	-1.1267858904	-0.2186621789	-0.2095294329	 0.086014
H	 0.2265898996	-1.3082527827	-1.8334210657	 0.116247
H	 1.1189767893	 0.2117841086	-1.9268915298	 0.111148
H	 0.37443709	-0.5848051191	 1.9986466193	 0.251167
H	 4.3462401125	-2.0162698813	 0.388216708	 0.160371
H	 4.4869309979	-2.9019900182	 1.9519195344	 0.136307
H	 3.5462063273	-3.5616613314	 0.5820858413	 0.15385
56.5122	83.214	105.8737	180.1336	191.7306	250.7483	327.6006	365.7401	410.2546	488.6376	524.1506	583.0244	621.3094	711.5366	752.9179	830.9192	905.0473	926.2157	972.404	984.446	1000.5697	1041.723	1059.7	1119.5099	1133.0604	1152.7917	1227.8119	1270.2497	1300.6529	1339.4837	1380.471	1388.3684	1406.9322	1455.8277	1460.0922	1472.5177	1485.7996	1495.1009	1495.5455	1674.6837	1788.582	3021.3434	3029.6588	3049.822	3051.7296	3071.8116	3100.6655	3108.1537	3117.2306	3162.6244	3610.1281
CC1CN=C(N1)C(C)=O	C[C@H]1C[N][C](N1)C(=O)C	
InChI=1S/C6H10N2O/c1-4-3-7-6(8-4)5(2)9/h4H,3H2,1-2H3,(H,7,8)	InChI=1S/C6H10N2O/c1-4-3-7-6(8-4)5(2)9/h4H,3H2,1-2H3,(H,7,8)/t4-/m0/s1
