20
gdb 98972	3.23713	0.87574	0.72693	3.3951	77.65	-0.2596	-0.0171	0.2425	1619.1142	0.168192	-440.340526	-440.329905	-440.328961	-440.377939	36.572	
C	 0.6878634305	-0.0224959111	 0.8928595122	-0.381102
C	-0.1325958361	 0.3602661996	-0.3492862046	-0.236519
C	 0.6251515932	 0.1690101274	-1.6341679208	 0.394484
N	 0.9656926417	 1.1084402291	-2.3959626409	-0.491212
O	 0.8712978698	-1.2127064377	-1.8000873283	-0.275268
C	 1.5659147992	-1.7424809742	-2.8471711604	 0.452335
O	 2.0447012404	-1.110502923	-3.7529467306	-0.335216
C	 1.6427134957	-3.2470923396	-2.6977251791	-0.301231
C	 2.408056571	-3.9187022699	-3.8348300001	-0.375051
H	 0.9900988481	-1.0723057755	 0.8562518571	 0.126266
H	 1.5903900849	 0.5915196457	 0.9680657506	 0.130456
H	 0.097543458	 0.1304325008	 1.8005535868	 0.120961
H	-1.0437003852	-0.2487552069	-0.3876799144	 0.116508
H	-0.4281596173	 1.410279187	-0.310367771	 0.132294
H	 1.4780163193	 0.7691172302	-3.2082782131	 0.258137
H	 2.0985965796	-3.458237653	-1.7228973086	 0.137558
H	 0.6152723653	-3.6231513644	-2.6230730715	 0.138039
H	 1.9360639134	-3.7152898645	-4.799212091	 0.135897
H	 3.4350916677	-3.5491860268	-3.8882777993	 0.135771
H	 2.4371887407	-5.0012030134	-3.6853027431	 0.116892
38.7796	49.9193	69.4121	97.4859	148.6088	205.2342	220.8255	237.5186	316.7804	358.6007	423.208	520.6265	562.588	656.6065	696.3714	791.5798	808.2449	828.9619	878.1924	948.9856	969.8915	1017.3372	1047.9445	1097.5544	1099.4729	1105.6903	1118.3697	1172.5252	1275.1737	1276.8049	1323.5644	1358.0698	1378.4212	1408.3659	1417.8681	1454.4339	1473.3436	1494.0366	1498.2217	1500.2273	1509.054	1747.4584	1832.3482	3041.9896	3042.7012	3046.254	3054.5823	3071.2908	3111.4857	3117.651	3127.1459	3130.9736	3133.0438	3515.9184
CCC(=N)OC(=O)CC	CC[C]([NH])OC(=O)CC	
InChI=1S/C6H11NO2/c1-3-5(7)9-6(8)4-2/h7H,3-4H2,1-2H3	InChI=1S/C6H11NO2/c1-3-5(7)9-6(8)4-2/h7H,3-4H2,1-2H3
