18
gdb 95142	2.17618	1.91171	1.49137	4.6923	70.71	-0.2356	-0.0112	0.2244	964.2476	0.149474	-439.074466	-439.066788	-439.065844	-439.106496	30.213	
O	-0.1067678643	 1.4227188647	-0.1690842601	-0.418147
C	 0.0151599525	 0.0199419033	 0.0173066216	 0.100667
C	 0.6965335272	-0.3588765665	 1.3558295376	-0.241325
C	-0.2847913232	-0.4130975031	 2.5507073062	-0.231842
C	-1.6691518464	-0.9083717887	 2.0581768841	-0.114074
N	-1.5816534141	-1.7659082293	 0.8328307519	-0.326986
C	-1.4291150689	-0.5414080359	-0.0097744734	-0.136393
C	-2.2200375219	 0.1666618354	 1.1084880012	 0.47827
O	-2.980576376	 1.0788174414	 1.1921010229	-0.310034
H	 0.7735991931	 1.7915124161	-0.2916762437	 0.286883
H	 0.5902041283	-0.4224438918	-0.8112044584	 0.070551
H	 1.171454842	-1.3386475901	 1.2342196268	 0.102551
H	 1.5135187306	 0.3429531747	 1.5541817438	 0.099657
H	 0.1069386702	-1.078767613	 3.3269269694	 0.105609
H	-0.4031397595	 0.5733923284	 3.0115852886	 0.128293
H	-2.3060020929	-1.2898673542	 2.8595937038	 0.093162
H	-0.7785812413	-2.3894103971	 0.8130230876	 0.216263
H	-1.8468597652	-0.5878514243	-1.01723077	 0.096893
103.8589	144.9304	209.5335	287.0944	369.6518	399.1259	435.8346	462.5393	516.768	574.3047	691.98	750.647	774.1216	803.566	868.427	903.0879	932.899	969.1306	998.004	1031.3581	1046.4263	1069.759	1096.5281	1102.1854	1126.7134	1179.9658	1200.4422	1225.6258	1273.798	1286.5396	1296.8812	1337.2105	1352.4074	1362.2199	1384.8009	1416.4082	1486.4379	1498.2043	1930.3573	2969.7335	3037.7772	3045.5351	3070.8788	3086.2377	3089.7675	3098.5708	3494.618	3818.4704
OC1CCC2NC1C2=O	O[C@H]1CC[C@@H]2N[C@H]1C2=O	
InChI=1S/C6H9NO2/c8-4-2-1-3-6(9)5(4)7-3/h3-5,7-8H,1-2H2	InChI=1S/C6H9NO2/c8-4-2-1-3-6(9)5(4)7-3/h3-5,7-8H,1-2H2/t3-,4-,5+/m0/s1
