16
gdb 14252	3.86519	1.77784	1.67297	4.0834	66.5	-0.2342	0.0187	0.253	843.4291	0.131224	-379.887235	-379.880137	-379.879193	-379.918461	27.176	
C	 0.4673260795	 1.4797450628	-0.0962551761	-0.413275
C	 0.1083038544	 0.0202813887	 0.0732601205	 0.148133
O	 0.8603645735	-0.8619154918	-0.8049167928	-0.306414
C	 1.2644165202	-1.7073142064	 0.2919896238	 0.026874
C	 0.5805661974	-0.7665941524	 1.3241052947	-0.066325
N	 1.915185699	-0.4653210191	 1.84227129	-0.333749
C	 2.5955484205	-1.2426163478	 0.8910346972	 0.389213
N	 3.797629252	-1.4800487402	 0.5905344414	-0.546475
H	 1.5235220094	 1.6538118985	 0.1268255788	 0.119875
H	 0.2849693902	 1.7906303357	-1.1292234544	 0.139035
H	-0.1454313542	 2.1062080939	 0.5612798343	 0.117866
H	-0.9671934938	-0.13546302	-0.092756516	 0.081685
H	 1.0682323921	-2.7669047857	 0.130726912	 0.101636
H	-0.1580238603	-1.0550712735	 2.0714514432	 0.093227
H	 2.2282776465	 0.4081498565	 2.2446337325	 0.238724
H	 4.4493079836	-0.9324842792	 1.1562676611	 0.209969
92.2757	201.5732	234.8339	255.4666	383.2626	417.5136	461.6274	557.1746	642.2994	709.1301	788.287	817.617	844.1141	879.2348	912.2236	953.4555	984.7105	1030.0835	1051.8115	1093.1017	1106.7332	1145.4123	1168.2007	1193.8704	1263.9163	1286.8336	1316.2952	1352.0235	1354.8733	1379.0292	1407.1458	1481.958	1495.5287	1797.594	3002.015	3038.0944	3109.6065	3112.5002	3120.7757	3127.1168	3452.561	3578.9897
CC1OC2C1NC2=N	C[C@H]1O[C@@H]2[C@H]1N[C]2[NH]	
InChI=1S/C5H8N2O/c1-2-3-4(8-2)5(6)7-3/h2-4H,1H3,(H2,6,7)	InChI=1S/C5H8N2O/c1-2-3-4(8-2)5(6)7-3/h2-4H,1H3,(H2,6,7)/t2-,3+,4-/m1/s1
