16
gdb 20171	3.39025	2.88252	2.07435	1.8815	62.84	-0.2446	0.0712	0.3159	694.7791	0.132943	-383.708441	-383.702689	-383.701745	-383.738278	23.172	
C	-0.0099294508	 1.5699264513	 0.0826713997	-0.255365
C	 1.5288958952	 1.537226879	-0.0053983978	 0.110778
O	 2.1409264334	 1.2893320584	 1.2823515713	-0.31278
C	 2.1172308792	-0.1473420095	 1.0814404829	 0.099589
C	 1.0628243341	-0.8458195282	 1.9289840051	-0.088952
O	-0.1969506979	-0.6384038743	 1.2876934474	-0.271674
C	-0.0246322736	 0.0061006412	 0.0359279387	 0.108582
C	 1.4916101311	 0.0159026765	-0.314166743	-0.140907
H	-0.4402404357	 2.0382542797	 0.970045193	 0.113711
H	-0.4580963957	 1.9985226517	-0.8197700878	 0.099729
H	 2.0624273244	 2.3009804411	-0.5740568976	 0.079702
H	 3.1173595653	-0.5809168459	 1.1771724574	 0.081962
H	 1.2680611454	-1.9241385546	 1.9957839174	 0.096172
H	 1.0348147531	-0.430522595	 2.9428790931	 0.116538
H	-0.721398589	-0.4381251476	-0.6780695942	 0.083612
H	 1.8859674816	-0.4926931138	-1.1896662157	 0.079305
108.7697	327.2946	347.6702	411.0957	652.141	657.1119	752.4997	774.1919	827.1929	849.9226	875.6197	913.1522	921.8383	963.0057	967.3584	981.1262	1026.103	1052.2477	1082.1523	1104.1666	1151.0778	1165.4017	1201.4739	1211.0628	1225.6495	1246.9749	1272.4003	1298.2694	1310.9232	1344.7252	1347.94	1391.744	1452.3394	1505.6906	3000.2669	3051.7987	3063.0259	3064.2846	3084.8368	3093.9037	3125.4835	3151.2308
C1C2OC3COC1C23	C1[C@H]2O[C@H]3CO[C@@H]1[C@@H]23	
InChI=1S/C6H8O2/c1-3-6-4(1)8-5(6)2-7-3/h3-6H,1-2H2	InChI=1S/C6H8O2/c1-3-6-4(1)8-5(6)2-7-3/h3-6H,1-2H2/t3-,4+,5-,6-/m0/s1
