20
gdb 117302	4.38844	0.70808	0.6249	3.4424	78.15	-0.248	-0.0248	0.2232	1814.6226	0.167722	-440.321661	-440.310987	-440.310043	-440.359232	36.778	
C	 0.8283586845	 1.4530726006	 0.6381616837	-0.389855
C	 0.1820391724	 0.1469662698	 0.2157680252	-0.027411
O	 0.8168167076	-0.2763170951	-1.0008737446	-0.253786
C	 0.3778918803	-1.4399253726	-1.5324334865	 0.40453
N	-0.5517310175	-2.1144860429	-1.0047000265	-0.532493
C	 1.1978537902	-1.7330322179	-2.7783370305	-0.413546
C	 0.6243372269	-2.7387810617	-3.7717200882	 0.387477
C	 1.1245710038	-2.5979608181	-5.195575755	-0.472131
O	-0.1555826399	-3.6092163293	-3.4562831599	-0.290119
H	 1.900628378	 1.3219190334	 0.8106238981	 0.124243
H	 0.6962245704	 2.2218394796	-0.1288513052	 0.124125
H	 0.3719099048	 1.8108556341	 1.5659164063	 0.120214
H	 0.3012438633	-0.6358517472	 0.9723342556	 0.118379
H	-0.8927996143	 0.2576492818	 0.0383594477	 0.119322
H	-0.7274009289	-2.9488030201	-1.5628634884	 0.247557
H	 1.4284319541	-0.7911117631	-3.2855419626	 0.136336
H	 2.1743737074	-2.1298348502	-2.4624182335	 0.159275
H	 2.2165288992	-2.5145357965	-5.2190020762	 0.140402
H	 0.7984708245	-3.4509705988	-5.791312132	 0.147643
H	 0.7267496133	-1.6744624456	-5.6330985273	 0.149841
26.6536	49.8116	88.6243	126.6009	136.473	154.4994	246.6147	257.2378	317.28	363.7653	412.1526	455.6849	560.7314	571.4767	716.5845	806.8356	821.0129	856.553	895.5109	939.5379	945.6594	990.054	1049.7092	1053.6378	1127.9979	1137.2285	1175.8049	1184.0239	1206.0227	1287.7348	1325.6749	1373.7082	1385.0537	1409.0683	1430.4295	1440.9761	1462.0522	1475.7437	1485.7631	1496.8209	1521.6593	1731.509	1814.9808	3017.8607	3036.1144	3043.7458	3047.2719	3081.946	3084.1758	3097.3834	3118.2479	3121.0511	3155.7907	3502.8936
CCOC(=N)CC(C)=O	CCO[C]([NH])CC(=O)C	
InChI=1S/C6H11NO2/c1-3-9-6(7)4-5(2)8/h7H,3-4H2,1-2H3	InChI=1S/C6H11NO2/c1-3-9-6(7)4-5(2)8/h7H,3-4H2,1-2H3
