23
gdb 78447	3.63951	1.18665	1.10902	0.0212	89.71	-0.2436	0.1017	0.3454	1245.1404	0.207756	-351.121068	-351.1129	-351.111956	-351.153122	33.726	
C	-0.030272858	 1.493985139	 0.0996700413	-0.427128
C	-0.0507876022	-0.0203636619	 0.0423994216	-0.039262
C	 1.1673592414	-0.7074295845	-0.5309427633	-0.038833
C	 0.8876482625	-0.7603396017	 0.9678421684	-0.038839
C	 0.8000214137	-2.2890822844	 1.1644351756	-0.059345
C	 2.0625870209	-2.7287860823	 0.3412001195	-0.222408
C	 1.1758913243	-2.2179845054	-0.849588553	-0.059345
C	-0.0408592623	-2.7845589994	-0.0533272574	 0.05797
C	-0.314846362	-4.2826224589	-0.1573444592	-0.442962
H	 0.978672536	 1.8697975957	 0.301395883	 0.112593
H	-0.3636863974	 1.9301431564	-0.8484575431	 0.115632
H	-0.6886375724	 1.8687580543	 0.8911516749	 0.115631
H	-1.0381922376	-0.4231755954	-0.1560915003	 0.08283
H	 1.9620059396	-0.0946196815	-0.9446575521	 0.078878
H	 1.4720291417	-0.1873018646	 1.6807833774	 0.078879
H	 0.607862803	-2.6561113247	 2.1741567425	 0.052317
H	 2.9920801537	-2.1859805223	 0.5338297049	 0.084964
H	 2.2545030826	-3.8023951657	 0.3391165011	 0.09199
H	 1.3650775972	-2.5128805495	-1.8832315776	 0.052317
H	-0.9931040657	-2.2759618716	-0.2130880902	 0.059847
H	 0.5692622345	-4.9080952851	-0.0143741348	 0.117529
H	-1.0551642776	-4.584483749	 0.5922564836	 0.113374
H	-0.7314088359	-4.5232783074	-1.1420541229	 0.113374
169.5295	192.8966	208.9204	224.0626	288.492	315.0341	349.8608	422.4985	505.2484	564.8556	671.1307	769.8508	791.1299	818.3761	833.626	834.585	880.566	890.3401	949.6297	991.202	995.9109	1009.6117	1024.1844	1041.1338	1051.2545	1081.292	1088.5731	1096.3301	1110.9475	1122.6999	1139.1661	1141.6431	1211.0191	1214.7506	1250.2421	1252.2091	1256.8812	1281.4626	1298.7373	1298.7565	1409.8936	1413.0497	1416.3494	1436.3529	1493.4428	1495.4998	1498.7325	1501.1288	1519.22	3025.6463	3030.5624	3063.3684	3076.091	3085.4465	3089.7097	3092.612	3095.1086	3098.5134	3114.3965	3133.6321	3150.8399	3154.5125	3161.806
CC1C2C1C1CC2C1C	C[C@H]1[C@H]2[C@@H]1[C@@H]1C[C@H]2[C@H]1C	
InChI=1S/C9H14/c1-4-6-3-7(4)9-5(2)8(6)9/h4-9H,3H2,1-2H3	InChI=1S/C9H14/c1-4-6-3-7(4)9-5(2)8(6)9/h4-9H,3H2,1-2H3/t4-,5+,6+,7-,8-,9+
