17
gdb 20093	3.50114	1.63768	1.41334	2.5996	65.07	-0.2324	0.0703	0.3027	931.9073	0.141773	-400.930882	-400.923151	-400.922207	-400.963291	29.246	
O	 0.1287643947	 1.3963047339	 1.1061254104	-0.436293
C	 0.3171393442	 0.17991463	 0.4432314799	 0.0257
C	-0.5088838356	-0.9579804031	 0.9936302789	 0.089788
O	-1.270865906	-0.7035202794	 2.1251647122	-0.430341
C	-0.8842151684	-0.3232792524	-0.3430077639	-0.087008
N	-1.9786415666	 0.610359888	-0.3624035087	-0.089876
C	-2.7403985304	 0.75613783	-1.5998312249	-0.227813
C	-3.3385280908	 0.0766769328	-0.4180567247	-0.197069
H	-0.6940163381	 1.7581779748	 0.7277638506	 0.292013
H	 1.3295232789	 0.0305630871	 0.080735257	 0.099295
H	-0.1113522317	-1.9689146957	 0.9614384728	 0.098061
H	-1.0060523226	 0.1833115283	 2.4158289675	 0.28846
H	-0.7128205271	-0.9126670292	-1.2432721192	 0.08401
H	-3.0303074352	 1.7703188583	-1.8588782	 0.123046
H	-2.4495634828	 0.1359168509	-2.4451125802	 0.11895
H	-3.4472720919	-1.003605125	-0.4590106203	 0.124768
H	-4.0684984406	 0.5886427007	 0.2013126126	 0.124309
53.1119	145.3059	182.112	257.3846	326.4507	350.0535	410.5199	580.7987	605.0906	663.9534	689.6789	760.8162	764.0424	805.0241	874.6055	901.6634	974.1936	1027.5675	1042.7598	1062.8047	1088.6775	1100.083	1124.7452	1126.4926	1151.3592	1176.9518	1197.3362	1224.4685	1307.9603	1330.5825	1358.1226	1377.2745	1410.6944	1457.6847	1493.9917	1521.0409	3099.4875	3103.4582	3117.2999	3140.9103	3155.5154	3187.3296	3208.0289	3598.9724	3694.7232
OC1C(O)C1N1CC1	O[C@H]1[C@@H](O)[C@H]1N1CC1	
InChI=1S/C5H9NO2/c7-4-3(5(4)8)6-1-2-6/h3-5,7-8H,1-2H2	InChI=1S/C5H9NO2/c7-4-3(5(4)8)6-1-2-6/h3-5,7-8H,1-2H2/t3-,4+,5-
