19
gdb 91124	3.88675	1.41461	1.33098	1.4993	74.03	-0.219	0.0874	0.3065	1023.6548	0.1614	-423.004209	-422.997224	-422.99628	-423.035304	28.641	
C	-0.0973661255	 1.5080512721	-0.0302292562	-0.4078
C	 0.0622413078	-0.0012279334	 0.0712286075	 0.127146
O	 0.8964103508	-0.508124574	-1.0061902831	-0.298509
C	 1.9064407237	-1.2124153325	-0.305336238	 0.096872
C	 1.2036917198	-1.9991547833	 0.8516581488	-0.102335
C	 2.3534006464	-2.3629675125	 1.7791183365	-0.104088
O	 3.1104278641	-1.1316435029	 1.7627859802	-0.284115
C	 2.3394917749	-0.318853857	 0.8917137191	 0.097952
C	 0.8363452597	-0.5312946265	 1.2766178259	-0.099525
H	 0.8615505257	 2.0225219532	 0.0778145164	 0.120889
H	-0.5198321988	 1.7755855241	-1.0030311518	 0.129191
H	-0.7764482534	 1.8725117852	 0.7480178487	 0.114665
H	-0.9263030274	-0.4758702186	-0.0070003948	 0.076574
H	 2.6166612534	-1.6684783214	-0.9940917215	 0.085892
H	 0.4364004412	-2.7455328517	 0.646340635	 0.076429
H	 2.0381749949	-2.5957692806	 2.8037294475	 0.104023
H	 2.9719548332	-3.1884798103	 1.4058725605	 0.104836
H	 2.8029291597	 0.6581712991	 0.7694136474	 0.087268
H	 0.4670257099	-0.2985503691	 2.2755823818	 0.074634
167.5909	202.0328	238.8911	321.1395	375.7619	415.9099	478.5956	605.8478	670.1987	685.281	797.591	838.0391	900.309	913.7546	926.1485	950.3407	971.8049	979.3865	1005.8098	1017.6573	1032.7437	1062.7074	1074.306	1105.5314	1118.1623	1139.9658	1166.2301	1192.219	1215.0172	1239.6261	1248.1296	1273.5692	1280.1068	1314.8631	1354.2882	1392.3319	1394.2548	1410.9085	1486.594	1495.4483	1527.9728	2996.6059	3016.9785	3039.4946	3053.4348	3109.4301	3117.9206	3120.3102	3123.9173	3133.3018	3147.9129
CC1OC2C3COC2C13	C[C@H]1O[C@@H]2[C@H]3CO[C@@H]2[C@@H]13	
InChI=1S/C7H10O2/c1-3-5-4-2-8-7(5)6(4)9-3/h3-7H,2H2,1H3	InChI=1S/C7H10O2/c1-3-5-4-2-8-7(5)6(4)9-3/h3-7H,2H2,1H3/t3-,4+,5+,6-,7-/m1/s1
