21
gdb 95818	3.06485	1.17129	0.8968	1.8659	80.7	-0.2415	0.0059	0.2474	1326.4364	0.182375	-424.224516	-424.215491	-424.214547	-424.2582	34.991	
C	 0.22697587	 1.618490898	-0.1002216307	-0.405607
C	-0.0066570434	 0.1130404966	-0.0334611427	 0.08457
O	 0.6463684201	-0.4491317419	-1.1692486129	-0.249559
C	 0.1807518535	-1.7200949475	-1.5790373315	-0.087298
C	 0.6239863788	-2.8894302369	-0.696603255	-0.188238
C	-0.0036183481	-2.8901607756	 0.7001666809	 0.077243
O	 0.2772101184	-4.1639375499	 1.2712040554	-0.439484
C	 0.4984273744	-1.7668537352	 1.5838720895	-0.115839
C	 0.4854005341	-0.471457649	 1.2795055164	-0.047658
H	 1.2982308577	 1.8351930646	-0.0413554997	 0.128733
H	-0.1555036026	 2.0219412829	-1.0404616794	 0.120512
H	-0.2747896309	 2.1223624344	 0.7315506548	 0.113629
H	-1.0905563961	-0.083178975	-0.1260548214	 0.071617
H	-0.9209360871	-1.7100576396	-1.6565506436	 0.082183
H	 0.5757478556	-1.8639548697	-2.5898116416	 0.10672
H	 0.3307631771	-3.8233579052	-1.1904595625	 0.104609
H	 1.7147206639	-2.8912680482	-0.6039233456	 0.112924
H	-1.0964241199	-2.7742349817	 0.5725543592	 0.073095
H	-0.1407366366	-4.2003953697	 2.1374534548	 0.280292
H	 0.9076543264	-2.0865366991	 2.5406431548	 0.088836
H	 0.8694445547	 0.2415043677	 2.0055624108	 0.088721
47.9455	170.7399	231.9999	244.7716	275.1756	293.6459	320.3432	336.8319	376.503	433.6768	445.3477	553.3454	605.7961	691.8028	705.1017	810.12	872.518	882.528	923.1938	979.4505	983.4258	1040.8949	1065.1673	1080.1365	1098.1504	1120.996	1147.7416	1156.6417	1214.4599	1241.9529	1270.2929	1303.8667	1326.3868	1350.4284	1355.5731	1370.677	1406.0006	1406.8955	1412.357	1431.204	1476.2756	1484.8852	1490.726	1498.4526	1718.7315	2915.2745	2928.9065	2952.237	3039.9571	3042.8073	3073.1221	3093.6393	3114.4978	3129.1513	3134.643	3159.6057	3816.4926
CC1OCCC(O)C=C1	C[C@H]1OCC[C@@H](O)C=C1	
InChI=1S/C7H12O2/c1-6-2-3-7(8)4-5-9-6/h2-3,6-8H,4-5H2,1H3	InChI=1S/C7H12O2/c1-6-2-3-7(8)4-5-9-6/h2-3,6-8H,4-5H2,1H3/t6-,7+/m1/s1
