14
gdb 25464	3.21428	1.574	1.07873	5.4731	74.96	-0.2336	-0.0762	0.1573	1034.0413	0.102752	-432.909615	-432.902375	-432.901431	-432.94197	26.772	
N	 0.0865363263	 1.3238377876	-0.3650979549	-0.489835
C	 0.0845117198	 0.0867793018	-0.0863089395	 0.411333
N	 1.2299088542	-0.6524819366	 0.2252772555	-0.29697
C	 1.1912036944	-1.9426073098	 0.1833662792	 0.023247
C	 0.0070786325	-2.7056475396	-0.1008952108	-0.217551
C	-1.1447807769	-2.0112050286	-0.1858309649	 0.064066
N	-1.1653040068	-0.6376260555	-0.0956868553	-0.149642
C	-2.4361536164	-0.0195199732	 0.0215834903	 0.177519
O	-2.6547097924	 1.1342084997	 0.2297147387	-0.242711
H	 1.0461747184	 1.6591667939	-0.275998609	 0.233936
H	 2.1203818288	-2.468754099	 0.4027771703	 0.126765
H	 0.0240160903	-3.7840227299	-0.1679601644	 0.120719
H	-2.1159401448	-2.4797200791	-0.3044591128	 0.146967
H	-3.2303831373	-0.7843974517	-0.0895923323	 0.092157
48.9035	154.6818	241.0734	258.8039	391.3938	453.0042	474.8911	515.3026	594.5063	679.1696	734.7127	769.229	784.5518	885.9193	935.1045	963.9258	983.1174	996.7012	1015.3894	1066.0816	1169.2571	1187.5289	1294.2366	1314.2051	1410.8213	1462.6563	1473.8152	1586.1817	1689.3158	1716.6586	1866.844	2931.2833	3131.1678	3191.7717	3238.1663	3492.7141
N=C1N=CC=CN1C=O	[NH][C@@H]1N=CC=CN1C=O	
InChI=1S/C5H5N3O/c6-5-7-2-1-3-8(5)4-9/h1-4,6H	InChI=1S/C5H6N3O/c6-5-7-2-1-3-8(5)4-9/h1-6H/t5-/m1/s1
