16
gdb 127413	3.03678	1.69199	1.11701	5.4274	71.77	-0.2252	-0.0273	0.198	1040.3135	0.12601	-434.021737	-434.01428	-434.013336	-434.0538	27.779	
C	-0.132042623	 1.5237366897	-0.0114666745	-0.342898
N	 0.2067888694	 0.1162731109	 0.0240780569	-0.159159
C	 0.7538993923	-0.5328641361	-1.1896256168	-0.172949
C	 1.3084098832	-1.9212401057	-0.7234901147	-0.357788
C	 1.4845219843	-1.6686366781	 0.742782422	 0.310665
N	 2.0247800242	-2.1931648267	 1.7926807213	-0.194993
O	 1.7189551452	-1.3232880267	 2.8208666424	-0.178829
N	 0.9629446137	-0.2185395086	 2.368971757	-0.26177
C	 0.8275594497	-0.4624174224	 1.0995445377	 0.414821
H	 0.7435920089	 2.1623040115	-0.207554904	 0.122786
H	-0.8751082685	 1.7040964612	-0.7936466777	 0.13166
H	-0.5629275865	 1.8121610164	 0.9494418366	 0.161023
H	-0.0245173458	-0.6273562075	-1.9518543924	 0.123398
H	 1.5667974964	 0.0779933034	-1.6120087643	 0.113647
H	 0.5750451161	-2.7158294916	-0.896144673	 0.145898
H	 2.2260260403	-2.1941512796	-1.2475717567	 0.144488
128.9306	133.743	184.5159	246.216	272.1313	362.5425	508.3735	577.7372	581.4858	649.8162	723.9735	753.567	816.9694	836.7275	878.0142	943.4653	1001.7189	1049.9413	1069.514	1138.6986	1147.6001	1195.2808	1209.6777	1246.8434	1285.689	1303.2454	1383.8752	1451.3689	1468.3218	1480.731	1488.0237	1503.8712	1520.4517	1624.953	1698.1114	2983.454	2986.22	3056.7926	3081.7656	3084.167	3118.746	3134.6264
CN1CCC2=NON=C12	CN1CCc2nonc12	
InChI=1S/C5H7N3O/c1-8-3-2-4-5(8)7-9-6-4/h2-3H2,1H3	InChI=1S/C5H7N3O/c1-8-3-2-4-5(8)7-9-6-4/h2-3H2,1H3
