20
gdb 78457	3.78808	1.26028	1.18045	1.515	79.34	-0.2122	0.0808	0.293	1129.1504	0.172227	-403.081346	-403.073681	-403.072737	-403.112862	31.654	
C	-0.1082676383	 1.3806351197	-0.0266815493	-0.320355
N	 0.0024861933	-0.0705785694	 0.0212907899	-0.104249
C	 1.3690048929	-0.5796195914	-0.2013026075	-0.02435
C	 0.7814006837	-0.579561225	 1.1668399509	-0.021797
C	 0.6895223953	-2.0914321483	 1.4366554896	-0.12203
C	 2.1059339133	-2.5411313312	 0.9249601143	-0.223096
C	 1.5046217999	-2.0915828277	-0.4572260949	-0.084104
C	 0.1576918913	-2.6497656875	 0.0732709944	 0.152805
O	 0.1385613012	-4.0607738322	-0.021192137	-0.456496
H	 0.7820152933	 1.908196631	 0.3589922746	 0.095276
H	-0.2684243551	 1.6960651967	-1.0626678181	 0.12356
H	-0.9733370423	 1.6963023105	 0.5653879147	 0.122319
H	 2.1441258942	 0.1128656432	-0.5135585844	 0.086531
H	 1.0881787546	 0.1145239818	 1.9431993505	 0.085903
H	 0.2768990978	-2.4242945691	 2.3900856972	 0.054382
H	 2.9729687359	-1.9898381995	 1.2993937162	 0.082885
H	 2.2626372595	-3.6164584338	 0.9901010195	 0.116287
H	 1.9113786441	-2.4266942955	-1.4108489839	 0.066509
H	-0.7582409608	-2.2095231661	-0.3214742237	 0.088745
H	-0.6444648535	-4.3712626861	 0.4438156068	 0.281275
184.6672	223.8113	260.1927	271.9189	325.1377	342.2563	387.1299	422.0253	484.8061	595.8209	684.9643	784.7615	812.4012	843.3415	850.302	872.1704	915.669	943.181	954.472	963.3684	1009.3564	1059.6505	1064.1024	1082.2005	1104.273	1108.215	1132.3358	1153.902	1154.4128	1201.1255	1221.1822	1229.5113	1252.4936	1256.8252	1279.2483	1295.2114	1331.9608	1379.63	1419.1137	1454.4	1490.916	1493.2126	1498.3613	2947.8758	3063.2002	3064.8973	3100.8138	3101.9088	3106.9119	3121.8765	3154.5513	3157.6379	3165.7972	3819.5136
CN1C2C1C1CC2C1O	CN1[C@H]2[C@@H]1[C@@H]1C[C@H]2[C@H]1O	
InChI=1S/C7H11NO/c1-8-5-3-2-4(6(5)8)7(3)9/h3-7,9H,2H2,1H3	InChI=1S/C7H11NO/c1-8-5-3-2-4(6(5)8)7(3)9/h3-7,9H,2H2,1H3/t3-,4+,5-,6+,7-,8?
