20
gdb 13810	3.79584	1.12296	1.00436	2.07	71.42	-0.2614	0.075	0.3364	1245.3896	0.174905	-386.121737	-386.11218	-386.111236	-386.156661	34.184	
C	 0.4855231576	 0.6696092037	 1.5466008051	-0.389601
C	-0.359134481	-0.5559207189	 1.9259862868	-0.006194
C	-1.0324676279	-0.3807348621	 3.2946308139	-0.392188
C	-1.4040125066	-0.8063057205	 0.8572601712	 0.08073
O	-0.9658403363	-1.3334999709	-0.4001740139	-0.281611
C	-1.8752616041	-2.1216727571	 0.3916603022	 0.024698
C	-1.3393196573	-3.4571929667	 0.8442633757	-0.085836
O	-1.2270955471	-4.3496087028	-0.2526970127	-0.419451
H	 1.2729607457	 0.8453831486	 2.2862191489	 0.112595
H	 0.9562537991	 0.5296055963	 0.569388653	 0.131031
H	-0.1337621072	 1.5732136791	 1.4974071804	 0.11318
H	 0.3070915234	-1.4240303456	 1.9686808755	 0.080377
H	-1.7273371236	 0.4672909882	 3.2855695392	 0.117089
H	-1.5981658772	-1.2724481383	 3.5831411524	 0.116695
H	-0.2867476233	-0.1872133413	 4.0717936462	 0.118469
H	-2.1160013211	 0.0180334018	 0.7498904414	 0.085088
H	-2.8795160999	-2.1760093925	-0.0333691453	 0.095979
H	-0.3767740997	-3.3351907468	 1.3585997318	 0.094135
H	-2.0403694432	-3.9210842009	 1.5469385462	 0.111742
H	-0.6705800402	-3.9112996733	-0.9067174681	 0.293072
45.2757	61.5906	142.0427	177.0076	212.4888	240.3134	279.0988	333.5477	370.5665	411.4775	455.567	508.1306	590.2004	789.7556	800.6227	891.9613	928.9076	934.9784	968.4322	976.6013	1043.4889	1067.5674	1114.1968	1128.0117	1170.1558	1184.0913	1206.1865	1229.9377	1297.4285	1315.9882	1340.8982	1360.9151	1398.3705	1399.8581	1419.4131	1434.952	1487.505	1489.722	1491.0095	1493.7159	1502.9869	1514.9631	3012.7483	3027.6851	3030.7209	3047.9359	3061.762	3071.2364	3093.0638	3097.3303	3100.841	3106.2768	3115.1506	3799.7213
CC(C)C1OC1CO	CC(C)[C@H]1O[C@H]1CO	
InChI=1S/C6H12O2/c1-4(2)6-5(3-7)8-6/h4-7H,3H2,1-2H3	InChI=1S/C6H12O2/c1-4(2)6-5(3-7)8-6/h4-7H,3H2,1-2H3/t5-,6+/m0/s1
