12
gdb 23713	5.94627	1.55732	1.2348	1.3176	60.01	-0.2254	-0.0409	0.1845	871.6502	0.085723	-418.864381	-418.858122	-418.857178	-418.894669	23.955	
N	-0.0154513905	 1.3450849394	 0.1452634093	-0.553942
C	 0.0025675825	-0.0187335249	 0.053894569	 0.439673
N	-1.1887844215	-0.6415200586	 0.0356765781	-0.300016
C	-1.1583685841	-1.9701795261	 0.0012077806	-0.096216
C	 0.0382019135	-2.6703053813	-0.0185854033	 0.201656
F	 0.056169439	-4.0065707084	-0.0534452793	-0.077768
C	 1.2154456503	-1.9379069828	-0.0123653373	-0.096216
N	 1.210123335	-0.6089063466	 0.0219599803	-0.300016
H	 0.837757676	 1.8234999735	-0.0898320977	 0.263821
H	-0.883982127	 1.8000931263	-0.0799885349	 0.263821
H	-2.1081446765	-2.4998302882	-0.0150796949	 0.127602
H	 2.1790207339	-2.4415452923	-0.0395930999	 0.127602
134.7552	332.6581	382.9273	404.286	430.7908	436.5031	496.7099	507.4209	535.6357	655.4173	795.6757	823.4986	893.93	961.5326	986.1021	1042.9088	1064.5826	1257.3564	1286.8259	1311.2935	1396.0947	1432.963	1502.135	1596.9782	1626.2118	1663.271	3160.6855	3161.4737	3609.9703	3737.5331
NC1=NC=C(F)C=N1	Nc1ncc(F)cn1	
InChI=1S/C4H4FN3/c5-3-1-7-4(6)8-2-3/h1-2H,(H2,6,7,8)	InChI=1S/C4H4FN3/c5-3-1-7-4(6)8-2-3/h1-2H,(H2,6,7,8)
