20
gdb 97882	3.74482	0.62133	0.56791	2.218	86.3	-0.2424	0.0258	0.2681	2032.0436	0.168826	-403.130387	-403.119572	-403.118628	-403.168667	36.995	
C	-0.2537800817	 1.4596670065	-0.2041903109	-0.363478
C	-0.5622326403	 0.0957135336	-0.8485973597	-0.31153
C	 0.5920411193	-0.4922440707	-1.5209409279	 0.058402
C	 1.5574272443	-0.9563318821	-2.07048463	 0.064363
C	 2.7318228988	-1.526350057	-2.7248090523	-0.391104
C	 2.5809863577	-3.0017186312	-3.0482881049	 0.410033
N	 3.3575666031	-3.863375431	-2.5392252404	-0.522867
O	 1.559418575	-3.186705311	-3.9220567443	-0.218639
C	 1.2642436364	-4.5185749248	-4.3138084812	-0.263427
H	 0.539363858	 1.3657197653	 0.5425233079	 0.128384
H	 0.077225425	 2.1793032759	-0.9579098847	 0.127029
H	-1.1453479971	 1.860271199	 0.2875679564	 0.112578
H	-0.9275139917	-0.5968417827	-0.0792565076	 0.127262
H	-1.3850454688	 0.2084109514	-1.5664262588	 0.126265
H	 2.931304377	-0.9906861242	-3.6624466716	 0.140783
H	 3.6177155254	-1.4278414492	-2.0924913018	 0.154184
H	 3.1542275566	-4.8124202924	-2.850063943	 0.215989
H	 2.1120874026	-4.9808235664	-4.8343569783	 0.129793
H	 0.990568134	-5.1368301601	-3.4504066693	 0.133323
H	 0.4154937565	-4.452637829	-4.9952863179	 0.142654
19.6688	44.3167	62.9543	130.3791	157.5264	180.0522	219.9897	260.4174	291.3677	374.2795	386.0818	433.3781	503.1378	570.3336	677.9904	786.9355	791.4025	836.1922	876.2402	952.8997	968.793	1043.4417	1079.4787	1105.0093	1133.6799	1164.9885	1176.6464	1212.9676	1223.8465	1285.9032	1322.1975	1347.1991	1355.8847	1408.7625	1455.9286	1473.8594	1477.6508	1492.3064	1494.5107	1505.8576	1506.1226	1735.9162	2372.4701	3014.5737	3018.1306	3025.1488	3043.676	3044.7817	3077.8604	3101.0152	3116.5602	3123.1531	3144.6471	3497.4785
CCC#CCC(=N)OC	CCC#CC[C]([NH])OC	
InChI=1S/C7H11NO/c1-3-4-5-6-7(8)9-2/h8H,3,6H2,1-2H3	InChI=1S/C7H11NO/c1-3-4-5-6-7(8)9-2/h8H,3,6H2,1-2H3
