14
gdb 10822	5.08077	1.54425	1.22916	4.8041	60.17	-0.2676	-0.0521	0.2155	916.767	0.107684	-419.70941	-419.7023	-419.701356	-419.740849	26.129	
O	 0.0141084743	 1.3931941195	 0.1489338403	-0.421605
C	 0.0398870411	-0.0162364069	-0.0184802173	 0.037077
C	-1.4201300364	-0.4611414686	-0.0251731596	-0.078259
O	-1.5738887966	-1.8378203471	-0.3847095374	-0.242624
C	-0.9117763566	-2.3115278078	-1.4759309047	 0.42647
O	-1.2030772513	-3.3874218002	-1.9274211048	-0.334488
C	 0.1928055633	-1.4751154008	-2.0051215279	-0.192949
C	 0.6721824211	-0.4358394065	-1.3212629876	-0.088064
H	 0.9002150873	 1.6922196334	 0.3745287128	 0.294055
H	 0.5698354078	-0.4998319142	 0.8187407352	 0.099341
H	-1.869767592	-0.3557932322	 0.963069018	 0.132074
H	-1.9687681992	 0.1755273481	-0.7303210974	 0.127928
H	 0.6199182125	-1.8208695651	-2.9388220831	 0.128523
H	 1.5294240049	 0.1319177584	-1.6755880866	 0.11252
91.0549	207.633	210.842	254.1033	338.2648	430.4684	451.6487	489.9934	590.7348	710.4353	760.987	803.4904	843.1192	933.4871	1006.1856	1038.3589	1058.7326	1107.8498	1114.2331	1141.2156	1220.1217	1240.6529	1283.0206	1351.598	1388.9638	1398.5657	1435.8416	1507.4058	1692.9479	1831.8584	2966.0507	3040.1531	3126.5686	3159.0891	3212.6231	3829.3713
OC1COC(=O)C=C1	O[C@H]1COC(=O)C=C1	
InChI=1S/C5H6O3/c6-4-1-2-5(7)8-3-4/h1-2,4,6H,3H2	InChI=1S/C5H6O3/c6-4-1-2-5(7)8-3-4/h1-2,4,6H,3H2/t4-/m1/s1
