21
gdb 98423	2.51216	1.25214	1.00713	1.513	80.67	-0.2624	0.0152	0.2776	1296.9802	0.180392	-424.260211	-424.24997	-424.249026	-424.295326	37.176	
C	-0.3010305986	 1.3772887549	 0.2532598752	-0.239844
O	-0.2933000551	-0.0469907401	 0.3980716336	-0.236793
C	 0.8538088518	-0.5705046818	 0.8839854753	 0.418258
O	 1.8081085936	 0.1141727948	 1.1771729779	-0.383973
C	 0.7716837895	-2.0575737728	 1.0036559004	 0.168443
C	-0.384967318	-2.7473866386	 0.3040089605	-0.464025
C	 2.1152769471	-2.7686774057	 1.076815341	-0.312595
C	 1.2796743289	-2.6817475411	 2.3143683899	-0.008743
C	 1.7119486122	-1.8829211121	 3.5231406424	-0.427558
H	 0.4926391311	 1.7013922989	-0.4246147572	 0.140131
H	-1.2798622941	 1.6284009054	-0.1559090053	 0.13054
H	-0.1536377149	 1.8651199845	 1.2202049622	 0.138982
H	-0.3841097689	-2.5393565168	-0.770549174	 0.122359
H	-0.3105880709	-3.8308645517	 0.4366592713	 0.1097
H	-1.3489667482	-2.4203828619	 0.7031473373	 0.12748
H	 2.1986728895	-3.7156887255	 0.5542867253	 0.110619
H	 2.989032599	-2.1289823281	 1.0242111698	 0.135535
H	 0.727238689	-3.5857218245	 2.5616765983	 0.088936
H	 2.2332622153	-0.9700368423	 3.2322580025	 0.155082
H	 0.8519183301	-1.6054188616	 4.1429023721	 0.112633
H	 2.3868078915	-2.4825188941	 4.1440998915	 0.11483
55.3365	124.2657	152.3133	183.6859	194.2267	201.7185	234.9868	247.3852	329.5109	343.272	412.8212	435.5277	452.2236	562.5802	736.3649	785.3635	810.1692	878.0048	885.4916	943.9349	970.7467	1024.6136	1030.6207	1076.8254	1110.5296	1129.7588	1144.2358	1179.4752	1188.3889	1204.2459	1219.6899	1279.069	1352.6548	1399.141	1420.5246	1425.2193	1471.5625	1477.4034	1481.3266	1488.4339	1497.4046	1499.8844	1504.1626	1505.5722	1788.7938	3032.9094	3038.4935	3051.1889	3086.8283	3104.5218	3112.9402	3124.6796	3125.1975	3134.4013	3147.5975	3156.472	3228.2405
COC(=O)C1(C)CC1C	COC(=O)[C@@]1(C)C[C@H]1C	
InChI=1S/C7H12O2/c1-5-4-7(5,2)6(8)9-3/h5H,4H2,1-3H3	InChI=1S/C7H12O2/c1-5-4-7(5,2)6(8)9-3/h5H,4H2,1-3H3/t5-,7+/m1/s1
