18
gdb 74180	2.37943	1.64413	1.07761	4.91	80.58	-0.2323	-0.0455	0.1867	1130.723	0.148715	-401.966478	-401.958472	-401.957528	-401.999163	30.739	
C	 0.0990557566	 1.4730437457	 0.0483895316	-0.491381
C	 0.0628022873	-0.0261835743	-0.0038926233	 0.394933
C	 0.2259222053	-0.7218463961	-1.1419040978	-0.27956
C	 0.1754290045	-2.1917105483	-1.2196440249	 0.381898
O	 0.5070035116	-2.789155189	-2.2251724399	-0.340426
C	-0.3936525959	-2.9521212365	-0.0186056928	-0.332813
C	-0.3310579582	-2.2117510796	 1.2951652938	-0.037096
N	 0.9749884117	-1.6670073513	 1.6801111012	-0.326504
C	-0.1220665903	-0.7366948986	 1.2892002007	-0.15502
H	 0.9139922944	 1.8170217439	 0.6978510028	 0.141564
H	 0.2368375267	 1.9103837294	-0.9427144393	 0.134586
H	-0.8298197189	 1.8711361729	 0.476435372	 0.13298
H	 0.4258479023	-0.2193048748	-2.0837306491	 0.099949
H	-1.4428554972	-3.1691335585	-0.2612439423	 0.128317
H	 0.1178076614	-3.9172372261	 0.0430909722	 0.135932
H	-0.9591126566	-2.6128337762	 2.0881962196	 0.090925
H	 1.067458282	-1.6718418264	 2.6935202159	 0.235168
H	-0.5786059768	-0.1537354961	 2.0851977395	 0.08655
74.9686	145.8604	186.4689	255.8816	300.049	334.0301	467.9958	481.4855	497.0672	547.8211	619.8036	663.0824	780.674	826.3783	864.1468	879.3692	900.3585	938.7036	985.1751	996.068	1033.3097	1064.3404	1101.1791	1140.9788	1175.3414	1197.3044	1215.7388	1255.1327	1260.324	1325.1796	1348.7487	1407.5422	1414.84	1444.0241	1463.2483	1476.1649	1483.9843	1693.0463	1768.045	3019.7886	3029.2147	3068.2461	3091.0632	3121.4265	3125.9637	3139.4461	3177.1526	3492.1176
CC1=CC(=O)CC2NC12	CC1=CC(=O)C[C@H]2N[C@@H]12	
InChI=1S/C7H9NO/c1-4-2-5(9)3-6-7(4)8-6/h2,6-8H,3H2,1H3	InChI=1S/C7H9NO/c1-4-2-5(9)3-6-7(4)8-6/h2,6-8H,3H2,1H3/t6-,7+/m1/s1
