20
gdb 102486	2.38458	1.14823	0.86211	3.7177	73.89	-0.2398	0.0082	0.248	1401.3985	0.168741	-477.402049	-477.391547	-477.390603	-477.438984	36.499	
C	 0.1121223874	 1.2111744566	-0.1869432893	-0.235748
O	-0.0173159875	-0.1491758157	 0.1636702569	-0.247832
C	-1.3245287408	-0.6753382246	 0.0228691092	 0.033676
C	-1.8425285092	-0.7148137102	-1.4256238869	-0.087818
O	-0.9777399944	-1.3696711412	-2.3161545396	-0.419172
C	-1.2449333032	-2.0653389297	 0.6381491101	 0.441895
N	-1.1404764093	-3.1028488637	-0.087364303	-0.549548
O	-1.2798754595	-1.9860849534	 1.9850079956	-0.221316
C	-1.1186647221	-3.1897098995	 2.7246006895	-0.269903
H	 1.1089401662	 1.5242102325	 0.1332801878	 0.12834
H	 0.0262213435	 1.3728217744	-1.2692963397	 0.125783
H	-0.6361609746	 1.8362067104	 0.3257217659	 0.100457
H	-2.0355868002	-0.0830765093	 0.6253820425	 0.074757
H	-2.8494036862	-1.1655301242	-1.4003233688	 0.084545
H	-1.9644941688	 0.310977914	-1.789949925	 0.100515
H	-0.8421505728	-2.2501070369	-1.931465043	 0.29729
H	-1.0728387092	-3.9718882695	 0.4375860032	 0.224186
H	-1.145783842	-2.9034493097	 3.7760624631	 0.148106
H	-1.9324396493	-3.8958804471	 2.5197547708	 0.132829
H	-0.1573978181	-3.6664679731	 2.5002142006	 0.138957
28.4132	49.4685	115.5351	142.1902	183.0025	222.4157	231.6689	259.8112	293.6489	336.3663	369.8929	397.3342	594.9442	624.1406	689.8663	745.3924	853.4495	867.1734	873.2096	986.4652	1036.2294	1047.3934	1130.0147	1135.8817	1155.6288	1174.4262	1177.6919	1216.2312	1222.4781	1239.7846	1291.026	1340.445	1396.6373	1416.4327	1471.7736	1476.271	1477.3898	1486.4938	1493.7315	1499.4681	1504.3284	1513.7728	1726.5939	2951.91	2966.5281	2979.5239	3018.3528	3044.9379	3066.948	3084.0344	3113.5761	3150.1566	3514.6383	3683.4659
COC(CO)C(=N)OC	CO[C@@H](CO)[C]([NH])OC	
InChI=1S/C5H11NO3/c1-8-4(3-7)5(6)9-2/h4,6-7H,3H2,1-2H3	InChI=1S/C5H11NO3/c1-8-4(3-7)5(6)9-2/h4,6-7H,3H2,1-2H3/t4-/m0/s1
