21
gdb 91764	2.30676	1.84055	1.63478	1.9922	77.1	-0.2391	0.0766	0.3157	980.402	0.185697	-424.241137	-424.233641	-424.232697	-424.272597	30.785	
C	-0.2857383464	 1.5272811656	-0.0494332929	-0.417641
C	 0.0078335097	 0.0361450901	 0.0227298349	 0.16494
O	 0.6591246007	-0.3952348379	-1.1934431076	-0.291016
C	 1.8100401886	-1.1656525902	-0.846239471	 0.096057
C	 1.462987883	-1.7552511176	 0.524218241	-0.242078
C	 0.9334235283	-0.4582792471	 1.1589125694	-0.073476
C	 2.1369329019	 0.4687138569	 1.3963742	-0.079791
O	 2.7874035597	 0.8289442143	 0.186043119	-0.249904
C	 3.0333974528	-0.2457366518	-0.7083991354	-0.079534
H	 0.6365120917	 2.0974770249	-0.1737858562	 0.143215
H	-0.9367677285	 1.7348189319	-0.9035039862	 0.121617
H	-0.8022811486	 1.8622674143	 0.8569385091	 0.104856
H	-0.9460565336	-0.5088364262	 0.0989442515	 0.068957
H	 1.9817758795	-1.9070695197	-1.6328408358	 0.074759
H	 0.6864596519	-2.5210807644	 0.4391387557	 0.102167
H	 2.3224574026	-2.1803798094	 1.0497931713	 0.096126
H	 0.3895736796	-0.6087762559	 2.0957608332	 0.068906
H	 1.8324745863	 1.413823828	 1.8558069629	 0.110648
H	 2.8410177882	-0.026291046	 2.0866803015	 0.086961
H	 3.9035077336	-0.8427810895	-0.3844843714	 0.080774
H	 3.273033829	 0.2192716996	-1.6687952531	 0.113458
145.9526	222.2687	237.1208	290.6644	352.0304	377.0129	428.2965	470.7669	510.9112	587.9576	751.3076	781.3848	824.2563	833.9406	860.3432	903.7963	925.5959	945.4768	973.4027	999.554	1041.9078	1046.1291	1074.0119	1105.2226	1110.6219	1131.022	1155.3652	1199.0328	1219.1992	1265.3598	1279.4644	1310.7471	1332.083	1340.0986	1353.8745	1368.3563	1385.7989	1391.2025	1410.008	1421.3172	1484.1338	1491.4352	1497.0141	1507.6306	1518.6839	2958.2252	2964.2001	2973.3492	3040.2509	3051.5845	3065.9858	3073.7369	3081.2494	3089.3915	3104.3296	3106.5807	3140.9806
CC1OC2CC1COC2	C[C@H]1O[C@@H]2C[C@H]1COC2	
InChI=1S/C7H12O2/c1-5-6-2-7(9-5)4-8-3-6/h5-7H,2-4H2,1H3	InChI=1S/C7H12O2/c1-5-6-2-7(9-5)4-8-3-6/h5-7H,2-4H2,1H3/t5-,6+,7-/m1/s1
