16
gdb 126796	3.91374	1.00281	0.85367	3.4582	75.52	-0.2561	-0.0575	0.1986	1340.4303	0.125108	-434.086368	-434.078039	-434.077095	-434.120551	29.109	
C	-0.0429857763	 1.5411884419	-0.0035399387	-0.382797
C	 0.0323806702	 0.0149313866	-0.0091188548	-0.131005
N	 0.7080967909	-0.4951153152	-1.1982044088	 0.160679
N	 0.057943238	-0.6631656663	-2.3530251735	-0.226966
C	 1.0138602934	-1.0692424655	-3.1848567892	-0.113486
C	 2.2330054851	-1.1280712582	-2.4844643683	 0.208024
C	 3.5535217485	-1.5274190124	-2.9876634639	 0.08665
O	 4.5707074726	-1.5634945172	-2.3393714903	-0.258466
N	 1.9978220532	-0.7498655955	-1.2146269438	-0.272388
H	 0.9594007717	 1.977298096	-0.0121601328	 0.145276
H	-0.5925093502	 1.9032845723	-0.8761654294	 0.144665
H	-0.5608297362	 1.8804029583	 0.8980091875	 0.130861
H	 0.5973111934	-0.3596368793	 0.845821084	 0.150229
H	-0.9645982011	-0.4301554447	-0.0017122406	 0.144299
H	 0.7947757427	-1.3018731328	-4.2153159199	 0.139457
H	 3.5416008543	-1.806237528	-4.0652526274	 0.074968
36.0199	120.9801	135.4798	165.0492	232.5387	275.4428	387.9304	414.9008	495.1607	669.3543	700.5768	716.0365	792.2024	818.5064	890.1648	974.7924	1019.2706	1035.0286	1056.2037	1102.4508	1125.1209	1190.426	1258.0052	1349.3248	1374.4515	1385.3408	1389.6228	1406.8098	1421.5573	1467.4408	1476.5722	1489.8918	1505.5404	1535.599	1810.8357	2880.4143	3050.485	3087.3418	3126.1614	3127.9896	3151.9749	3266.9354
CCN1N=CC(C=O)=N1	CCn1ncc(C=O)n1	
InChI=1S/C5H7N3O/c1-2-8-6-3-5(4-9)7-8/h3-4H,2H2,1H3	InChI=1S/C5H7N3O/c1-2-8-6-3-5(4-9)7-8/h3-4H,2H2,1H3
