14
gdb 54079	2.2414	0.87027	0.6277	7.4367	80.81	-0.1588	-0.0202	0.1387	1636.1753	0.097396	-470.030837	-470.019857	-470.018913	-470.06972	34.762	
O	-0.2558790047	 0.3485116754	-0.221293171	-0.328326
C	 0.800345192	 0.684218506	 0.15175083	 0.606178
O	 1.8659229551	 0.9704765222	 0.4963647164	-0.261125
C	-2.7171771151	 2.8695262147	 0.7759799004	-0.277552
N	-3.0029050405	 1.7094955718	 0.0831019396	-0.154278
C	-4.1336648072	 1.2401255786	-0.3770534062	 0.054221
N	-4.2065891505	 0.1511853645	-1.2372340965	-0.522655
H	-3.347348365	-0.3760851997	-1.3333876138	 0.26164
H	-4.9848264838	-0.4684372718	-1.0476906108	 0.265564
C	-1.4169847238	 3.0633663339	 1.2099869846	 0.202858
N	-0.3028945084	 3.1870003369	 1.5490256213	-0.411442
H	-3.5212559091	 3.5608371513	 0.9686160606	 0.117805
H	-2.1723467712	 1.1498372187	-0.1059290329	 0.301611
H	-5.0452716379	 1.7884217175	-0.1794430018	 0.145502
28.207	55.5862	60.8507	83.958	117.3962	134.3848	147.9042	202.2223	258.5221	339.8613	452.7088	514.607	535.3009	632.641	667.3285	679.8279	684.6503	753.0161	943.0458	1056.7935	1089.8751	1210.7931	1292.06	1326.135	1379.5831	1412.2283	1510.7428	1650.253	1728.7444	2250.6356	2437.2311	3226.9077	3254.5624	3490.4862	3520.854	3622.1976
[O-]C(=O)C(NC=[NH2+])C#N	O=C=O.C(=[NH]C=[NH2])C#N	
InChI=1S/C4H5N3O2/c5-1-3(4(8)9)7-2-6/h2-3H,(H2,6,7)(H,8,9)	InChI=1S/C3H5N3.CO2/c4-1-2-6-3-5;2-1-3/h2-3,6H,5H2;
