21
gdb 72942	2.63123	1.64234	1.42505	1.2588	80.74	-0.2386	0.0738	0.3124	1028.603	0.183681	-387.040639	-387.032837	-387.031893	-387.072496	32.212	
O	 0.0018654559	 1.3931996685	-0.0239335389	-0.484883
C	 0.0190628508	-0.009053895	-0.0314261471	 0.425598
C	 0.4011618182	-0.7255491317	-1.3525753967	-0.304503
C	-0.8848668488	-1.6020635776	-1.2195535808	-0.238647
C	-1.3390357494	-0.7710374321	 0.0200472229	-0.073012
C	-1.0093519789	-1.2941869982	 1.4555132343	-0.010928
C	-0.3753047369	-2.6983403327	 1.6283211417	-0.234166
C	 1.0394381089	-2.0879760656	 1.377770947	-0.248232
C	 0.4194785838	-0.6595429855	 1.3383249467	-0.092931
H	 0.9091131685	 1.7031131885	 0.0797502867	 0.272497
H	 0.3378840069	-0.0225079467	-2.1870780048	 0.103323
H	 1.363166732	-1.2428700446	-1.4028825099	 0.091199
H	-1.5640373671	-1.5304222951	-2.0713804045	 0.103496
H	-0.7008868081	-2.6609619581	-1.0284854488	 0.102244
H	-2.2839893106	-0.2380208382	-0.0885674058	 0.07055
H	-1.7231200901	-0.9775925516	 2.21771076	 0.064137
H	-0.4907598361	-3.0756873181	 2.6478364947	 0.097989
H	-0.7071084697	-3.4841244368	 0.9441981079	 0.098363
H	 1.7430218185	-2.2411956987	 2.1995153591	 0.099109
H	 1.532770278	-2.4108692398	 0.4575539215	 0.10056
H	 0.8001156043	 0.0583262292	 2.067757645	 0.058235
99.2554	217.471	260.1564	264.4134	287.7149	369.044	419.1922	467.444	581.4622	627.1502	720.76	746.0568	759.5597	788.083	839.5271	857.1278	894.5678	935.0992	942.2802	954.1324	970.8335	989.7929	1030.3789	1060.5507	1073.0232	1112.1225	1130.4922	1144.421	1172.2814	1199.2184	1216.0687	1223.8573	1233.5676	1247.7236	1256.0172	1269.2803	1274.003	1302.9798	1307.7365	1317.67	1371.0567	1467.5676	1484.5544	1488.3373	1509.263	3053.494	3055.8017	3063.3701	3073.4113	3077.9825	3088.4747	3094.8706	3102.379	3107.5348	3114.5444	3126.4689	3785.1089
OC12CCC1C1CCC21	O[C@]12CC[C@H]1[C@H]1CC[C@@H]21	
InChI=1S/C8H12O/c9-8-4-3-7(8)5-1-2-6(5)8/h5-7,9H,1-4H2	InChI=1S/C8H12O/c9-8-4-3-7(8)5-1-2-6(5)8/h5-7,9H,1-4H2/t5-,6+,7-,8-/m0/s1
