20
gdb 52873	2.00833	1.15804	0.92419	2.931	84.94	-0.2331	0.0334	0.2665	1406.8713	0.168315	-403.100972	-403.090274	-403.08933	-403.138145	37.854	
C	 0.0763944776	 1.4780616657	 0.2174640166	-0.503371
C	 0.063676921	 0.0237924605	 0.1463506839	 0.101488
C	 0.0313417036	-1.1814920883	 0.0977547664	-0.014518
C	 0.0464101428	-2.621143794	 0.0067056504	 0.139058
C	-0.7109476907	-3.400301055	 1.030078981	-0.275806
N	-1.2008954343	-3.3374330021	-0.3537665103	-0.354312
C	 1.3147472702	-3.2160054016	-0.6114200536	 0.072473
C	 1.4587140294	-2.8502072517	-2.0879702864	-0.409732
O	 2.457692007	-2.849335923	 0.146678021	-0.432094
H	 0.6466046574	 1.9126485551	-0.6107248617	 0.152477
H	-0.9406861548	 1.8817849785	 0.1649195519	 0.153797
H	 0.5247652162	 1.830210589	 1.1530440183	 0.15253
H	-0.3275142406	-4.368927314	 1.3388215896	 0.126716
H	-1.2388200402	-2.8457540264	 1.7999715661	 0.119456
H	-1.9662272281	-2.6710732418	-0.4205994732	 0.237656
H	 1.2377270873	-4.3039514305	-0.5157571327	 0.093618
H	 1.5175991055	-1.7632611101	-2.2135686149	 0.112399
H	 2.3703559826	-3.295380961	-2.4948254957	 0.119636
H	 0.5990131754	-3.21509781	-2.6575237056	 0.129472
H	 2.4973572226	-1.8851547596	 0.1497542389	 0.279056
19.8523	65.5101	82.8355	130.3482	211.6277	233.5504	255.0784	290.8904	301.9933	329.979	367.5967	449.1175	473.1983	542.3355	585.7717	627.4649	831.4833	860.0064	903.9248	932.9287	987.2445	1012.7931	1050.9079	1051.9668	1054.0056	1084.9827	1108.4575	1126.0033	1144.5605	1254.9686	1280.3967	1320.9053	1346.8411	1387.6647	1399.2979	1414.3848	1420.1976	1475.7369	1478.7424	1490.8018	1496.367	1505.3813	2353.7319	3027.6589	3035.8402	3061.1612	3088.4704	3090.7299	3109.2315	3112.102	3124.7641	3203.0163	3506.844	3780.1222
CC#CC1(CN1)C(C)O	CC#C[C@]1(CN1)[C@@H](C)O	
InChI=1S/C7H11NO/c1-3-4-7(5-8-7)6(2)9/h6,8-9H,5H2,1-2H3	InChI=1S/C7H11NO/c1-3-4-7(5-8-7)6(2)9/h6,8-9H,5H2,1-2H3/t6-,7+/m1/s1
