15
gdb 44092	3.83958	1.484	1.21662	2.5353	64.9	-0.2342	-0.0469	0.1873	979.1314	0.111923	-457.701285	-457.694372	-457.693428	-457.732713	26.823	
O	 0.0343070204	 0.0538388711	 0.1925647158	-0.274501
C	-0.0063063718	 1.2407718635	 0.080020778	 0.390231
C	-1.166665252	 2.2759911271	 0.043246508	-0.467538
C	-0.1037144673	 3.3511605009	 0.2283677517	 0.425602
O	-0.1223457436	 4.6943471642	-0.195420956	-0.333393
C	 0.7874378161	 5.0633459792	 0.8910585249	-0.115003
C	 0.6814071991	 3.6471370167	 1.5136933531	-0.003579
O	 1.7400996154	 2.7223271738	 1.1889726652	-0.298239
C	 1.0765285583	 2.3642414953	-0.0465318218	-0.076306
H	-1.6021239789	 2.3102020995	-0.9641192748	 0.152097
H	-1.9705446979	 2.1733968172	 0.7752007886	 0.138426
H	 1.7870852027	 5.3190084188	 0.526777114	 0.125479
H	 0.3713810743	 5.8839720363	 1.4830764859	 0.121089
H	 0.3277551339	 3.5555219051	 2.5414579077	 0.104334
H	 1.7342186615	 2.3435888512	-0.9187402904	 0.111302
98.1818	184.6708	256.1362	333.1342	399.5891	447.9822	479.1425	566.7254	636.3724	736.4667	811.8813	819.5575	835.1783	901.6233	925.0618	966.4434	1000.3697	1022.0953	1045.1814	1072.1098	1109.3534	1120.3666	1152.3981	1161.8205	1181.0978	1246.8241	1277.7072	1302.5162	1330.8313	1357.0921	1438.8388	1501.6557	1900.6312	3039.1436	3045.4764	3092.8196	3103.134	3112.9599	3115.8133
O=C1CC23OCC2OC13	O=C1C[C@@]23OC[C@@H]2O[C@@H]13	
InChI=1S/C6H6O3/c7-3-1-6-4(2-8-6)9-5(3)6/h4-5H,1-2H2	InChI=1S/C6H6O3/c7-3-1-6-4(2-8-6)9-5(3)6/h4-5H,1-2H2/t4-,5-,6+/m0/s1
