18
gdb 26955	2.99279	1.36088	0.98841	1.5173	78.77	-0.1807	0.039	0.2197	1189.0686	0.148889	-401.960465	-401.95219	-401.951246	-401.993694	31.698	
N	-0.1286935902	 1.2295180979	 0.4515403695	-0.597611
C	-0.1312987634	-0.1208250215	 0.1322547173	 0.286927
C	-1.1268480885	-0.9858965471	-0.2325739109	 0.177211
C	-0.4460488568	-2.2215052649	-0.5376566854	-0.266784
C	 0.8726824297	-2.014804145	-0.321538941	-0.03438
O	 1.0816397141	-0.7174998847	 0.0899874958	-0.175048
C	-2.5760604231	-0.6878818741	-0.3184086424	-0.147151
C	-3.5763088811	-1.5341355619	 0.4333117264	-0.256239
C	-3.3162421151	-0.1189347053	 0.8793245074	-0.266124
H	 0.547543957	 1.4649191211	 1.1678224121	 0.252129
H	-1.0522975033	 1.5552957996	 0.704117824	 0.257943
H	-0.9069921678	-3.1416342895	-0.8632512373	 0.103834
H	 1.7569383161	-2.623713218	-0.3940285136	 0.127647
H	-2.9270609576	-0.3212416628	-1.281747363	 0.093594
H	-4.5233628705	-1.7547840061	-0.0463212388	 0.109826
H	-3.1872020167	-2.3340748509	 1.053065192	 0.116408
H	-2.7581382785	 0.0173296541	 1.7995719511	 0.108415
H	-4.0852845043	 0.6254334992	 0.7037174368	 0.109404
53.6008	144.0138	153.9304	230.6853	271.3769	330.4926	387.1368	490.9605	589.3893	617.5688	662.8017	699.6257	716.9509	767.4148	802.6726	826.4831	830.0363	900.589	915.5511	921.2775	1022.9224	1053.2072	1053.9553	1080.2804	1095.9152	1135.1412	1170.8686	1195.4802	1202.1145	1212.3248	1281.0575	1312.0783	1397.1868	1464.7594	1472.9245	1500.6273	1565.2604	1621.7655	1678.6019	3106.1216	3128.9291	3138.2942	3210.684	3227.7488	3248.7225	3294.9918	3533.1832	3636.8637
NC1=C(C=CO1)C1CC1	Nc1c(cco1)C1CC1	
InChI=1S/C7H9NO/c8-7-6(3-4-9-7)5-1-2-5/h3-5H,1-2,8H2	InChI=1S/C7H9NO/c8-7-6(3-4-9-7)5-1-2-5/h3-5H,1-2,8H2
