20
gdb 7369	3.60798	1.20294	0.96948	3.5231	72.71	-0.2273	0.0633	0.2906	1255.5465	0.176609	-382.365082	-382.355146	-382.354202	-382.400395	34.906	
C	-0.0502537891	 1.5763201733	 0.0328688536	-0.379213
C	 0.0172688533	 0.0474332731	 0.0101873353	-0.16816
C	-1.3751930869	-0.5947265796	-0.0126545162	-0.153961
N	-1.3459796707	-2.0539947987	 0.0007909087	-0.085715
C	-1.2746346694	-2.7360728838	 1.2788732196	-0.354538
C	-1.3306297211	-2.7071894775	-1.2077541618	 0.439975
N	-1.3733609999	-4.1009485486	-1.1388589433	-0.571513
O	-1.2432042472	-2.1224894133	-2.2764729675	-0.414345
H	 0.9510128931	 2.0170588305	 0.0400512404	 0.114887
H	-0.5763876577	 1.9615085878	-0.8473388229	 0.122409
H	-0.5797597938	 1.9409752756	 0.9207677255	 0.109517
H	 0.5600408957	-0.2949867609	-0.8769937871	 0.125048
H	 0.5758359953	-0.3128249368	 0.884009497	 0.088414
H	-1.9641899575	-0.2586438983	 0.850342355	 0.090236
H	-1.9018813306	-0.2852714863	-0.9180364182	 0.136309
H	-2.2659656997	-2.9966076047	 1.6812460617	 0.115755
H	-0.6787394817	-3.6483635181	 1.1962800842	 0.144744
H	-0.7824163726	-2.0887839106	 2.0098429545	 0.134898
H	-1.9420335713	-4.521063125	-0.419031317	 0.24785
H	-1.5303122183	-4.4969127182	-2.0539246417	 0.257403
58.1061	84.5575	92.4533	126.6726	147.0169	232.8532	279.1142	310.609	371.4237	399.7133	439.239	561.2845	581.996	604.6057	746.7925	782.8796	791.2278	881.0186	897.0944	1033.0341	1053.7535	1103.4579	1112.973	1123.0976	1147.9135	1239.0747	1273.9761	1309.4678	1334.2197	1356.7721	1409.6261	1417.6698	1431.8321	1465.6274	1489.1282	1492.8767	1500.4981	1503.8685	1508.1158	1526.591	1624.2852	1775.6587	2982.3109	3021.9415	3024.5347	3030.0731	3073.2695	3078.4589	3096.6061	3105.9827	3114.1943	3119.9089	3571.3282	3681.6171
CCCN(C)C(N)=O	CCCN(C)C(=O)N	
InChI=1S/C5H12N2O/c1-3-4-7(2)5(6)8/h3-4H2,1-2H3,(H2,6,8)	InChI=1S/C5H12N2O/c1-3-4-7(2)5(6)8/h3-4H2,1-2H3,(H2,6,8)
