25
gdb 119830	3.97757	0.73118	0.65902	0.2371	96.5	-0.2231	0.0346	0.2577	1850.5421	0.228989	-352.388534	-352.378268	-352.377324	-352.424446	38.239	
C	 0.071380986	 1.5947448958	 0.0650756051	-0.377962
C	 0.1202930451	 0.0649618322	 0.0713727668	-0.156887
C	 0.5688252987	-0.5221053741	-1.2813479289	-0.298851
C	 0.6261300201	-2.0212341698	-1.3046478916	 0.344844
C	-0.1462148657	-2.8419873585	-2.0213349193	-0.180522
C	 0.2205121737	-4.2938420721	-1.8419956872	-0.258514
C	 1.1478928217	-4.2740314152	-0.5963361406	 0.053113
C	 2.2473125532	-5.3344812568	-0.6027398079	-0.403279
C	 1.6587858846	-2.811562251	-0.521410494	-0.315189
H	 1.0562721307	 2.0219031222	-0.1550529815	 0.112959
H	-0.6252500761	 1.9657021499	-0.6951397011	 0.113641
H	-0.2529894826	 1.9879062713	 1.0336935176	 0.110574
H	 0.7989745577	-0.2756752623	 0.8627067469	 0.09828
H	-0.8682270852	-0.3391007402	 0.321633632	 0.099109
H	-0.1122964831	-0.1702681447	-2.0661086266	 0.095588
H	 1.5607349476	-0.1127317492	-1.5254255199	 0.094976
H	-0.9261028411	-2.5131214877	-2.7014023474	 0.077861
H	-0.6477393909	-4.9491294403	-1.7032311943	 0.095997
H	 0.750731844	-4.6751133648	-2.728843985	 0.096451
H	 0.5112906576	-4.4391488433	 0.2820963871	 0.073687
H	 2.9118770078	-5.2049201111	-1.4651078728	 0.111338
H	 2.8625802704	-5.2790672367	 0.3020072235	 0.109787
H	 1.8269036803	-6.3446858092	-0.6562833887	 0.110467
H	 2.6482143607	-2.7083229249	-0.9948579422	 0.095485
H	 1.7815216148	-2.4681838294	 0.5123848001	 0.097049
59.9736	67.9259	76.3212	139.6698	241.1108	244.7972	256.5803	291.9788	323.9471	371.9268	423.3536	503.7552	559.5771	691.7929	745.6996	823.6883	836.1911	862.7064	884.8437	907.3484	913.496	939.8172	949.4606	1000.6246	1041.3558	1063.0176	1090.2653	1101.2313	1120.1506	1148.605	1153.5319	1202.7746	1235.2719	1252.1006	1285.1172	1301.5842	1313.8842	1322.3953	1335.631	1363.1269	1372.3394	1382.5398	1411.4843	1411.8624	1477.4573	1485.1151	1491.8758	1493.6906	1497.8945	1499.6844	1501.2131	1509.5156	1716.4719	2982.5414	2984.9853	2994.0599	3015.7012	3023.636	3027.0341	3028.766	3042.1254	3044.7229	3051.5592	3065.2732	3090.3682	3092.4132	3096.4832	3100.8981	3176.0654
CCCC1=CCC(C)C1	CCCC1=CC[C@@H](C)C1	
InChI=1S/C9H16/c1-3-4-9-6-5-8(2)7-9/h6,8H,3-5,7H2,1-2H3	InChI=1S/C9H16/c1-3-4-9-6-5-8(2)7-9/h6,8H,3-5,7H2,1-2H3/t8-/m1/s1
