14
gdb 16639	3.24121	2.41022	1.61169	3.1042	56.39	-0.27	-0.0065	0.2635	772.3636	0.107996	-419.695514	-419.688959	-419.688015	-419.726313	25.027	
O	 0.161784483	 1.3008852274	 0.3939302517	-0.428261
C	-0.0520344634	-0.0590663416	 0.0907249256	-0.020722
C	-1.499869993	-0.4371801154	-0.0912124001	-0.071429
C	-2.2412103115	 0.2130941248	-1.2447165525	-0.311204
C	-1.5640700272	-1.1072394404	-1.4390087025	 0.082746
O	-0.2861283003	-1.0637233651	-2.0628651083	-0.20851
C	 0.5876257006	-0.3927952337	-1.2728548757	 0.399256
O	 1.6849507784	-0.0652983389	-1.623352198	-0.345014
H	 1.0632880959	 1.5028891667	 0.1081709836	 0.297687
H	 0.4114030539	-0.7111839799	 0.8488381292	 0.101194
H	-2.0593759138	-0.8191001333	 0.7523256507	 0.108519
H	-3.3237102862	 0.2200711889	-1.1898954032	 0.129553
H	-1.7992187317	 1.0868412043	-1.711284424	 0.144218
H	-2.0920325348	-2.0266895739	-1.6517610463	 0.121968
94.8464	206.8214	255.4294	396.3562	422.6756	487.6883	523.3353	619.9473	689.263	731.9497	802.246	823.8989	868.3377	953.1585	985.2309	1028.7399	1053.6753	1063.0786	1094.1639	1135.746	1143.9629	1183.5152	1200.7563	1248.6351	1332.8939	1363.7754	1388.0693	1428.3146	1481.6972	1877.1748	2973.4004	3141.5745	3198.8221	3212.664	3233.6117	3759.134
OC1C2CC2OC1=O	O[C@H]1[C@H]2C[C@H]2OC1=O	
InChI=1S/C5H6O3/c6-4-2-1-3(2)8-5(4)7/h2-4,6H,1H2	InChI=1S/C5H6O3/c6-4-2-1-3(2)8-5(4)7/h2-4,6H,1H2/t2-,3+,4-/m0/s1
