16
gdb 48509	4.98151	1.30765	1.30199	4.3194	73.82	-0.2402	-0.0373	0.2029	990.3125	0.124976	-400.6654	-400.658709	-400.657765	-400.696771	26.136	
O	-0.1176035577	 0.3270672484	 0.8709698865	-0.255724
C	 0.0291958977	 1.1421953686	-0.0077903034	 0.011553
C	 1.2544731489	 1.9352459541	-0.1937369878	 0.278624
C	 2.6907997421	 1.5647243065	 0.0274334336	-0.08247
C	 3.2172169181	 2.4713840068	-1.1050278627	-0.067935
C	 3.7319270594	 3.7435159711	-0.3879388352	-0.242635
C	 2.292726099	 3.8152079097	 0.1455906269	 0.014971
C	 1.7510142911	 3.0757383233	-1.1145657477	-0.161509
N	 2.0544493092	 2.5328945882	 0.9477175752	-0.164417
H	-0.7666480892	 1.3343200726	-0.7626779304	 0.071848
H	 3.0848538117	 0.6467201587	 0.4439548885	 0.118448
H	 3.6980823599	 2.0193521803	-1.9692958349	 0.084202
H	 4.5525292947	 3.6530907768	 0.3285224152	 0.112759
H	 3.9300520099	 4.5536789199	-1.0961108322	 0.110537
H	 1.8511680992	 4.6913781292	 0.6159395502	 0.087576
H	 1.271756306	 3.525987146	-1.979384752	 0.084172
85.2016	161.0883	191.1394	386.7931	452.6501	555.5478	696.4698	722.7914	757.9728	789.7883	816.6689	833.0189	857.4583	868.3037	917.5632	933.7048	985.3227	1009.4335	1035.0467	1040.4443	1057.2492	1075.5405	1097.3628	1114.3679	1171.011	1201.0683	1210.8248	1240.7337	1252.888	1272.9515	1279.6743	1375.243	1436.3295	1480.4545	1801.3733	2871.0914	3056.2579	3117.2739	3139.1537	3146.7163	3159.8072	3204.1695
O=CC12C3C4CC(C14)N23	O=C[C@@]12[C@H]3[C@@H]4C[C@@H]([C@H]14)N23	
InChI=1S/C7H7NO/c9-2-7-5-3-1-4(5)8(7)6(3)7/h2-6H,1H2	InChI=1S/C7H7NO/c9-2-7-5-3-1-4(5)8(7)6(3)7/h2-6H,1H2/t3-,4+,5-,6-,7+,8?/m1/s1
