18
gdb 42007	3.28731	1.54852	1.13522	3.5522	72.42	-0.2442	0.0265	0.2707	1063.3724	0.15133	-439.102396	-439.095178	-439.094234	-439.134538	27.734	
C	-0.0382074507	 1.3913328393	-0.0915754426	-0.155991
C	 1.4429932992	 1.8647770593	-0.0719278738	-0.25876
C	 2.1552068261	 0.6980496418	 0.6355807582	-0.155281
C	 3.5639627912	 0.2963168761	 0.1539499271	-0.09272
O	 3.6698263266	-1.1206713254	-0.0338417269	-0.229707
C	 2.8984499869	-1.8437682383	 0.8618504642	 0.001322
O	 1.4972253389	-1.6908887307	 0.6027668092	-0.244176
C	 1.1398237756	-0.4112387839	 0.3914442247	 0.433762
N	-0.0203643687	-0.0732342602	 0.0089852398	-0.297724
H	-0.6035466936	 1.805567212	 0.7544514648	 0.105766
H	-0.5625283483	 1.6994078592	-1.0012704058	 0.110957
H	 1.8194136652	 1.9569212139	-1.0966943577	 0.110769
H	 1.5830861726	 2.8281125218	 0.4235094879	 0.105678
H	 2.1893779641	 0.8763460946	 1.7192505822	 0.104238
H	 3.7843945355	 0.7366439045	-0.8222935601	 0.124648
H	 4.334899159	 0.630242997	 0.8619224151	 0.103686
H	 3.1123505072	-2.9026105479	 0.7146494247	 0.13662
H	 3.1032942032	-1.5557965832	 1.9061825189	 0.096912
71.8002	115.3498	256.6048	331.26	357.0617	429.1641	479.376	563.6575	629.884	677.0287	751.025	787.471	850.9984	928.2484	960.8457	968.8051	982.1407	1016.2927	1080.4246	1091.7195	1110.6449	1123.5311	1170.1508	1202.1581	1226.9067	1251.4812	1282.8329	1302.5633	1306.9026	1331.1236	1333.4919	1354.4369	1413.5389	1453.7785	1489.2041	1507.4091	1512.2314	1524.1328	1746.8685	2968.1751	3000.6701	3014.9005	3015.9694	3045.9582	3075.048	3090.496	3109.067	3133.2069
C1CC2COCOC2=N1	C1C[C@@H]2COCO[C]2[N]1	
InChI=1S/C6H9NO2/c1-2-7-6-5(1)3-8-4-9-6/h5H,1-4H2	InChI=1S/C6H9NO2/c1-2-7-6-5(1)3-8-4-9-6/h5H,1-4H2/t5-/m1/s1
