16
gdb 92734	3.09073	1.38884	1.00112	1.9452	66.8	-0.2692	-0.0316	0.2376	1143.8502	0.123703	-475.075398	-475.067064	-475.066119	-475.108364	30.779	
C	-0.0244199618	 1.4751389093	 0.6208497635	-0.458423
C	-0.1346925761	 0.0866857443	 0.082467919	 0.401753
N	-1.1959976439	-0.4251593484	-0.3617475059	-0.27558
C	-1.1478083388	-1.7917206265	-0.8619559466	-0.194113
C	-0.0965876333	-2.6226540387	-0.1174324597	-0.009308
O	 0.0505195336	-3.900771961	-0.6658410699	-0.432135
C	 1.2175814287	-1.8674695679	-0.1483218143	 0.399132
O	 2.2799916645	-2.3837365496	-0.3572845586	-0.329704
O	 1.1285448205	-0.531624792	 0.0993125149	-0.240183
H	 0.7044727353	 2.0479196731	 0.0389075449	 0.153583
H	-0.9983014148	 1.9602977308	 0.575983814	 0.155508
H	 0.3337977478	 1.4531322987	 1.6550173968	 0.149522
H	-2.1328783679	-2.2511070766	-0.7500337918	 0.133874
H	-0.9189545407	-1.7852757414	-1.9362820829	 0.133373
H	-0.3991092623	-2.6763065119	 0.9443692653	 0.11171
H	 1.0034495592	-4.0601744521	-0.7311621787	 0.300994
99.3814	123.9247	164.3121	263.2879	281.8354	311.296	371.0987	377.7687	445.5151	499.6027	563.8034	606.0085	681.523	730.5034	776.9568	935.6188	986.6279	1023.7094	1059.8304	1079.4947	1109.2636	1146.1105	1161.6469	1206.1035	1238.0064	1285.5046	1325.4716	1382.8563	1409.6997	1441.7617	1472.6989	1474.2426	1494.7005	1779.5754	1855.6603	2943.8086	3029.1008	3050.9532	3097.2519	3109.0701	3171.113	3732.8507
CC1=NCC(O)C(=O)O1	CC1=NC[C@@H](O)C(=O)O1	
InChI=1S/C5H7NO3/c1-3-6-2-4(7)5(8)9-3/h4,7H,2H2,1H3	InChI=1S/C5H7NO3/c1-3-6-2-4(7)5(8)9-3/h4,7H,2H2,1H3/t4-/m1/s1
