19
gdb 71850	2.7476	1.9319	1.6421	1.1034	78.74	-0.224	0.0177	0.2417	906.7868	0.161416	-385.860258	-385.85336	-385.852416	-385.890848	29.702	
O	-0.022187408	 1.4247076459	-0.0008256386	-0.49696
C	-0.013462632	 0.0293648895	-0.0618447692	 0.442213
C	 0.3123459085	-0.7187159625	-1.3566156178	-0.294336
C	-0.5865097741	-1.8708357168	-0.7820077634	-0.093459
C	 0.3167184187	-2.7356261543	 0.0595658544	-0.069603
C	 0.9164224594	-2.0975675891	 1.066604328	-0.075123
C	 0.4159287136	-0.6968656554	 1.3034174121	-0.152187
C	-1.1205007481	-0.8345850085	 1.6123251737	-0.230811
C	-1.3362399193	-0.7607611434	 0.0997765305	-0.063157
H	 0.8866613461	 1.7302383247	 0.096757484	 0.276013
H	-0.1767002368	-0.2032313449	-2.1890061849	 0.101748
H	 1.3449812859	-0.9692884178	-1.6153097981	 0.086675
H	-1.2047557494	-2.4214510209	-1.4897691703	 0.067185
H	 0.5014761634	-3.7718197453	-0.2021770208	 0.088545
H	 1.6325019764	-2.5565193465	 1.7398800031	 0.088202
H	 1.0246639795	-0.1007622241	 1.9854679387	 0.055849
H	-1.4335461152	-1.7206818551	 2.1697116507	 0.091149
H	-1.5156475829	 0.0696035197	 2.0829974441	 0.108827
H	-2.2803939458	-0.4220054652	-0.3286501363	 0.06923
222.0843	244.5713	312.9893	375.0629	385.7759	424.9966	492.6139	554.224	607.8954	685.3749	712.2667	732.2894	780.7693	858.4559	868.0076	880.152	932.5775	948.9931	960.3139	971.9885	1018.0831	1026.1523	1053.8347	1066.0745	1081.8161	1136.8075	1148.3249	1164.3609	1171.5619	1187.7246	1229.8941	1245.607	1265.7404	1293.0062	1300.0382	1323.7125	1372.8877	1383.2851	1476.7006	1482.0159	1676.6806	3044.8738	3056.2472	3091.5884	3101.617	3105.4819	3115.9788	3117.3976	3172.8605	3197.0516	3794.7454
OC12CC3C=CC1CC23	O[C@@]12C[C@H]3C=C[C@@H]1C[C@@H]23	
InChI=1S/C8H10O/c9-8-4-5-1-2-6(8)3-7(5)8/h1-2,5-7,9H,3-4H2	InChI=1S/C8H10O/c9-8-4-5-1-2-6(8)3-7(5)8/h1-2,5-7,9H,3-4H2/t5-,6-,7-,8+/m1/s1
