19
gdb 118562	1.83009	1.247	0.9875	5.5664	69.78	-0.2569	0.0177	0.2746	1317.4493	0.156826	-497.299335	-497.289087	-497.288143	-497.335412	35.227	
C	 0.1689442785	 0.9234449473	 0.743995975	-0.238361
O	 0.016162166	-0.4143601542	 0.3082114156	-0.245971
C	-1.330771985	-0.7730647474	 0.0518457829	-0.086782
C	-1.4218423317	-2.2688525797	-0.2471955002	 0.066966
C	-0.5664339806	-2.7251585738	-1.4389867313	-0.085725
O	 0.8197700112	-2.4718727981	-1.3390449325	-0.411251
O	-1.2671558535	-3.0389900972	 0.9567119441	-0.217899
C	-0.0427717902	-3.2563902816	 1.50528444	 0.14843
O	 0.0603149768	-3.787226378	 2.5716529962	-0.279325
H	 1.2327305936	 1.0848694041	 0.927751853	 0.143027
H	-0.1792681836	 1.6366562772	-0.0171720767	 0.116693
H	-0.3888623532	 1.1005555959	 1.6738854782	 0.126169
H	-1.9576751814	-0.5438079632	 0.9257673932	 0.118385
H	-1.7236215135	-0.2054464545	-0.8077959923	 0.10184
H	-2.4634140164	-2.4600339699	-0.5312716394	 0.11092
H	-0.6847111342	-3.8070497775	-1.5591469136	 0.126957
H	-0.9975108555	-2.2481313567	-2.3359193968	 0.095722
H	 0.9178023808	-1.5644627688	-1.0189472646	 0.293739
H	 0.7913803019	-2.9331875238	 0.8703413593	 0.116465
55.6772	80.4236	110.5015	142.4472	173.9865	188.7093	222.7551	255.4464	299.7498	337.0796	373.9768	496.7586	567.0242	589.61	786.1208	841.5733	914.0341	964.5378	978.4696	1051.1244	1054.2961	1083.7173	1129.0767	1157.553	1167.6561	1188.4925	1216.0106	1249.3568	1295.376	1349.0696	1384.7582	1401.2782	1416.8484	1436.9584	1463.6742	1478.7813	1487.0503	1494.7313	1500.9764	1520.5796	1848.8213	2961.0335	2973.6755	2993.4788	3024.6298	3049.0598	3052.3359	3077.6825	3079.2155	3132.5331	3740.0385
COCC(CO)OC=O	COC[C@@H](CO)OC=O	
InChI=1S/C5H10O4/c1-8-3-5(2-6)9-4-7/h4-6H,2-3H2,1H3	InChI=1S/C5H10O4/c1-8-3-5(2-6)9-4-7/h4-6H,2-3H2,1H3/t5-/m1/s1
