18
gdb 92130	2.78026	1.62331	1.23636	1.3481	71.97	-0.2219	0.0463	0.2682	1036.0512	0.147276	-438.998608	-438.990658	-438.989714	-439.031665	30.452	
O	-0.0016560147	 1.2004714059	-0.7087045438	-0.416083
C	-0.0051267167	-0.0778028083	-0.1245132921	 0.112147
C	 0.1856261136	-0.1802940195	 1.4173422317	-0.213722
N	-1.1684520912	-0.799364172	 1.5935845585	-0.130169
C	-2.2283879062	 0.2280591934	 1.8764880366	-0.277242
C	-2.5830879188	 0.2826405796	 0.3878751055	 0.464085
C	-3.8983426725	 0.345139777	-0.2521592466	-0.265303
O	-2.9616273346	 1.4281264635	-0.336654314	-0.2499
C	-1.4198470181	-0.6629048102	 0.0921296329	-0.12912
H	 0.9125718313	 1.4861848204	-0.8046195063	 0.286526
H	 0.6416806775	-0.7713798707	-0.6793008336	 0.072012
H	 0.9868275201	-0.8491126515	 1.7468786894	 0.102227
H	 0.301274665	 0.7899832803	 1.9125787831	 0.105052
H	-3.0133891698	-0.1474553525	 2.5403461334	 0.110043
H	-1.8406918683	 1.1698073348	 2.2803713924	 0.116216
H	-4.0758264854	-0.1915936605	-1.1835217841	 0.116782
H	-4.7832546592	 0.5369169565	 0.353985123	 0.115672
H	-1.659117542	-1.569299676	-0.4706862058	 0.080775
37.4109	132.2455	250.1701	262.0707	319.1933	332.9512	395.281	427.81	509.3357	618.5808	707.1112	770.1982	834.5603	853.0314	864.5606	910.2956	936.9479	954.8636	998.9993	1010.4558	1045.8453	1088.5329	1126.9452	1156.5957	1160.2271	1165.7542	1181.3437	1201.1815	1209.8664	1214.8907	1282.3269	1295.378	1309.8752	1324.5926	1432.1659	1442.6368	1481.4845	1501.4901	1534.2396	2997.861	3032.1549	3035.9877	3069.0632	3076.9913	3083.9789	3089.1252	3164.9282	3815.3026
OC1CN2CC3(CO3)C12	O[C@H]1CN2C[C@]3(CO3)[C@@H]12	
InChI=1S/C6H9NO2/c8-4-1-7-2-6(3-9-6)5(4)7/h4-5,8H,1-3H2	InChI=1S/C6H9NO2/c8-4-1-7-2-6(3-9-6)5(4)7/h4-5,8H,1-3H2/t4-,5+,6-/m0/s1
