18
gdb 33876	3.37625	1.55482	1.3408	1.6832	82.22	-0.235	0.0363	0.2713	996.2962	0.149014	-364.719693	-364.712653	-364.711708	-364.750779	29.633	
C	 0.0756227437	-1.0926450226	 0.1287137437	-0.392837
C	 0.0242213992	 0.1061752159	 0.0441577775	 0.277766
C	-0.0943325675	 1.5321100293	-0.0541885637	 0.088186
C	 0.3718094158	 2.2674302776	-1.2697951449	-0.291684
N	 1.148707949	 2.3902403199	-0.0316474836	-0.141222
C	 0.6803111434	 3.4386224859	 0.9364345435	 0.013625
C	-0.8074087234	 3.7609263179	 0.6278299802	-0.257056
C	-0.9759927982	 2.2625547258	 0.9848645296	-0.099012
C	 0.1274319496	 2.5258896203	 2.0725667884	-0.20943
H	 0.1364714852	-2.1499881991	 0.2035458431	 0.188759
H	 0.8817927379	 1.6830529337	-2.0301440047	 0.128191
H	-0.1948651714	 3.1041741704	-1.6612035814	 0.118777
H	 1.4341220899	 4.2078408969	 1.0992281987	 0.079331
H	-1.2362095076	 4.4002872536	 1.4010262409	 0.105963
H	-1.1122202377	 4.1348597612	-0.3495051694	 0.098232
H	-1.9401584273	 1.8122962268	 1.2139372261	 0.076774
H	 0.7528274964	 1.6830289593	 2.3719104588	 0.117357
H	-0.2413182771	 3.0764311372	 2.9401787471	 0.098279
134.0209	154.3095	336.5262	406.7523	483.0987	520.8244	525.5483	563.9499	596.9889	609.2776	647.8196	693.991	761.2972	800.7459	841.0585	847.9512	885.2764	913.1261	927.6361	994.1315	1001.2495	1037.9663	1052.5988	1088.4456	1099.4141	1114.1192	1123.8309	1150.7624	1194.532	1217.8612	1241.6799	1250.9634	1275.204	1292.2755	1334.4162	1474.7023	1498.708	1539.9256	2235.2584	3073.6503	3084.6499	3124.7817	3127.6321	3135.1607	3136.6797	3142.7005	3212.3979	3503.5106
C#CC12CN1C1CC2C1	C#C[C@]12CN1[C@H]1C[C@@H]2C1	
InChI=1S/C8H9N/c1-2-8-5-9(8)7-3-6(8)4-7/h1,6-7H,3-5H2	InChI=1S/C8H9N/c1-2-8-5-9(8)7-3-6(8)4-7/h1,6-7H,3-5H2/t6-,7+,8-,9?/m1/s1
