16
gdb 25961	3.6701	1.08028	0.95048	1.846	71.63	-0.2367	-0.0275	0.2092	1237.3946	0.123732	-437.939605	-437.931146	-437.930202	-437.974744	29.641	
C	 0.1596885263	 0.555180997	 0.9436978875	-0.479787
C	 0.006761124	 0.0755564249	-0.4839113931	 0.371858
O	 0.770611977	 0.370968648	-1.368155038	-0.28108
C	-1.2204709869	-0.8220061835	-0.7659097989	-0.388229
C	-1.0549418216	-2.1809882987	-0.1770226502	 0.373753
N	-1.36019907	-2.5874792118	 1.0169899336	-0.301167
C	-0.9497692625	-3.9145371186	 1.050342989	-0.11304
C	-0.4102132518	-4.2399161978	-0.1461989967	-0.040657
O	-0.4675854935	-3.1330428592	-0.9462545285	-0.160781
H	 1.1495672102	 0.9889875545	 1.0886612637	 0.143187
H	-0.5994153388	 1.3219959429	 1.1430865773	 0.14495
H	-0.0201420035	-0.2587326549	 1.6518759394	 0.164299
H	-2.1104679927	-0.3681581919	-0.3204543346	 0.143626
H	-1.3394348952	-0.8925938702	-1.8480823025	 0.144774
H	-1.079616527	-4.5287544298	 1.9268840933	 0.128148
H	 0.020108046	-5.125886201	-0.5794452513	 0.150148
25.4338	51.2309	109.0481	145.395	285.2101	313.1003	386.8614	492.8503	550.5182	632.338	693.2306	761.7813	778.868	805.3225	867.6089	869.3246	935.0455	953.4874	1017.8621	1044.6946	1108.5205	1127.4062	1160.0371	1175.0394	1212.8424	1270.2111	1303.0155	1384.63	1394.3786	1453.1485	1466.9733	1474.7356	1549.9672	1604.1827	1827.8292	3036.8186	3069.1423	3105.0313	3140.8358	3157.9889	3266.39	3303.667
CC(=O)CC1=NC=CO1	CC(=O)Cc1ncco1	
InChI=1S/C6H7NO2/c1-5(8)4-6-7-2-3-9-6/h2-3H,4H2,1H3	InChI=1S/C6H7NO2/c1-5(8)4-6-7-2-3-9-6/h2-3H,4H2,1H3
