20
gdb 61312	2.63603	0.93305	0.75297	2.4318	81.44	-0.2471	0.0537	0.3008	1533.5619	0.169065	-403.080243	-403.070528	-403.069584	-403.115502	35.953	
O	 0.8227340867	 1.8813747776	 0.5310121664	-0.442819
C	 0.2270451036	 0.6908610351	 0.0547036917	 0.134748
C	 0.6210825932	 0.5581603531	-1.425462419	-0.359672
C	-0.0238050278	-0.5597424062	-2.1011785739	 0.301567
C	-0.5661056105	-1.4855437059	-2.6436624682	-0.460894
C	 0.6881862589	-0.4995693274	 0.9001203334	-0.164286
N	 0.4268556272	-0.1947396577	 2.3059802758	-0.084533
C	-0.8138918396	-0.7156157149	 2.8777115867	-0.222272
C	 0.5024311856	-1.3035347364	 3.2489422055	-0.22198
H	 0.847240717	 1.7836723346	 1.4939308198	 0.287742
H	-0.8726617768	 0.7566503166	 0.1162548053	 0.073453
H	 0.3620234109	 1.499726132	-1.9233406724	 0.142526
H	 1.7125926553	 0.4659173416	-1.4891062611	 0.133129
H	-1.039115675	-2.2995379863	-3.1344454527	 0.194716
H	 0.1968983192	-1.4256234529	 0.5622433842	 0.101075
H	 1.7716770429	-0.6232397768	 0.7801882021	 0.107048
H	-1.3339386343	-0.0541157313	 3.5639800394	 0.122529
H	-1.4611117576	-1.3050502466	 2.2310997761	 0.119601
H	 0.7378259811	-2.2885268115	 2.8504760998	 0.116528
H	 0.9564259998	-1.0787559966	 4.2096891713	 0.121795
68.1763	70.0816	99.918	151.3953	175.2637	298.9332	352.5207	358.8826	395.1666	441.1319	482.4685	521.9248	573.1249	621.1073	646.4636	771.6713	833.2291	854.668	902.5063	934.0631	967.8007	1026.2946	1026.9906	1059.1077	1093.3275	1112.898	1121.7691	1125.9259	1170.3821	1188.8657	1217.1906	1282.9417	1288.3703	1320.0248	1328.0288	1355.9859	1396.1779	1448.9342	1472.4588	1483.3473	1493.99	1523.0825	2237.9729	2956.4905	2983.6701	3030.872	3055.6518	3069.3754	3100.7809	3105.3338	3183.8867	3198.3479	3506.0867	3726.0043
OC(CC#C)CN1CC1	O[C@@H](CC#C)CN1CC1	
InChI=1S/C7H11NO/c1-2-3-7(9)6-8-4-5-8/h1,7,9H,3-6H2	InChI=1S/C7H11NO/c1-2-3-7(9)6-8-4-5-8/h1,7,9H,3-6H2/t7-/m0/s1
