25
gdb 109666	2.2648	1.01231	0.95039	1.7681	89.15	-0.2501	0.0655	0.3156	1469.3505	0.226602	-389.482433	-389.470978	-389.470033	-389.518873	41.966	
C	-2.1636829833	 0.5113440512	 2.2935364911	-0.387245
C	-1.3562456033	-0.4176264244	 1.3749107951	-0.242295
C	-0.003806418	-0.8414884217	 1.9409111503	 0.319793
C	 0.9482233881	 0.3179099425	 2.195398546	-0.457568
C	 0.1040498938	-2.024202535	 2.8884617022	-0.055361
C	-1.0830999275	-2.8262466919	 3.3850100458	-0.423797
C	 0.6465296398	-2.1329529477	 1.4697681479	-0.110197
C	 0.0577163904	-3.0658873712	 0.4353885281	-0.085644
O	 0.6412719199	-4.363120945	 0.4992110019	-0.421169
H	-1.6491537941	 1.4605933039	 2.4688419156	 0.119432
H	-3.1359066634	 0.7435993039	 1.847605462	 0.111279
H	-2.3452302813	 0.0470324964	 3.2683802566	 0.117762
H	-1.9669048371	-1.2944873846	 1.144596972	 0.094335
H	-1.1878888368	 0.0869282505	 0.4135978441	 0.095002
H	 0.5641944729	 1.0005203139	 2.9610008748	 0.116316
H	 1.9232321338	-0.0420874878	 2.5374429782	 0.112179
H	 1.111761032	 0.9013511696	 1.2809754569	 0.111813
H	 0.8722558557	-1.9117119544	 3.6511052713	 0.077885
H	-1.8657558634	-2.9470921479	 2.632423791	 0.120345
H	-0.7730180871	-3.8306526189	 3.6985205131	 0.109693
H	-1.5417194764	-2.3466617983	 4.256666208	 0.121667
H	 1.7308925396	-2.093361416	 1.3872147915	 0.083274
H	-1.0360431507	-3.1278875755	 0.5164262695	 0.082433
H	 0.2805926706	-2.6989527484	-0.572757749	 0.109814
H	 0.5262243057	-4.6815200031	 1.4004053462	 0.280254
65.8332	76.6132	125.794	140.6563	185.2383	204.5077	221.0507	253.2394	274.1985	292.51	304.1442	340.5019	378.0322	449.4587	537.0709	585.5332	673.4935	770.2915	782.2836	821.9522	928.7888	949.1554	1003.5451	1006.243	1011.6063	1035.9552	1054.8842	1068.9677	1086.3788	1130.1323	1136.9583	1161.7584	1178.4194	1218.8758	1254.3976	1306.2926	1320.7128	1342.972	1372.4399	1392.1802	1409.7812	1414.3446	1418.8039	1421.9491	1460.3642	1475.4866	1490.1016	1496.1286	1498.641	1503.6937	1505.2037	1510.0725	1515.0986	3003.8992	3016.3154	3022.5888	3025.9504	3038.5469	3061.5862	3077.7165	3079.8321	3084.7842	3099.1808	3104.3235	3107.6282	3113.7114	3121.9896	3130.7744	3815.3266
CCC1(C)C(C)C1CO	CC[C@@]1(C)[C@@H](C)[C@H]1CO	
InChI=1S/C8H16O/c1-4-8(3)6(2)7(8)5-9/h6-7,9H,4-5H2,1-3H3	InChI=1S/C8H16O/c1-4-8(3)6(2)7(8)5-9/h6-7,9H,4-5H2,1-3H3/t6-,7+,8-/m0/s1
