19
gdb 36362	5.01294	0.74606	0.6999	2.1654	83.12	-0.2578	0.0511	0.309	1630.1164	0.157076	-385.818855	-385.809566	-385.808621	-385.854016	34.176	
C	 0.1423928278	-1.1858355212	-0.6761172708	-0.434017
C	 0.0438454612	-0.0746018332	-0.2301992615	 0.296074
C	-0.0490136813	 1.2726948284	 0.3224028065	-0.385331
C	 1.3048969544	 1.9620733037	 0.3990813552	 0.052377
O	 1.7689452782	 2.6330919082	-0.7723532066	-0.25872
C	 1.4779920465	 3.423777263	 0.3898303448	 0.056028
C	 0.372032901	 4.4192083467	 0.3015732392	-0.002245
C	 0.174675102	 5.3932564767	 1.4417808908	-0.269729
C	 0.7123764831	 5.8808475431	 0.1240327089	-0.272391
H	 0.2222233352	-2.1648949691	-1.0789020427	 0.197046
H	-0.7333545591	 1.8743998549	-0.2837522284	 0.139689
H	-0.4770410151	 1.2257713227	 1.333106028	 0.135778
H	 2.0686697033	 1.3654740108	 0.9010965652	 0.098289
H	 2.3714790514	 3.8089995038	 0.8893427744	 0.085748
H	-0.5227779242	 4.0730138545	-0.2033417272	 0.089635
H	-0.8411647485	 5.6518923398	 1.7177412468	 0.117945
H	 0.8602207174	 5.3355609225	 2.2809923061	 0.115782
H	 1.7624357917	 6.1485273708	 0.0708819569	 0.119353
H	 0.0678794048	 6.4778885341	-0.5107639957	 0.118689
41.4753	61.8349	103.4543	164.5854	230.888	293.2535	334.0067	361.7566	434.7135	508.9518	568.5082	620.4166	644.2721	760.3631	800.8853	824.472	827.5641	905.9443	921.1393	925.2212	970.093	993.4003	1039.9835	1062.8208	1080.263	1117.2544	1123.4313	1153.7797	1198.1389	1210.9184	1220.5448	1244.0895	1297.9474	1316.2066	1339.0797	1419.8468	1451.8927	1469.5343	1492.8158	1516.0084	2242.3271	3021.2309	3065.9814	3077.6068	3098.8515	3133.188	3137.3475	3172.6214	3212.3906	3227.7307	3507.5754
C#CCC1OC1C1CC1	C#CC[C@H]1O[C@H]1C1CC1	
InChI=1S/C8H10O/c1-2-3-7-8(9-7)6-4-5-6/h1,6-8H,3-5H2	InChI=1S/C8H10O/c1-2-3-7-8(9-7)6-4-5-6/h1,6-8H,3-5H2/t7-,8+/m1/s1
