17
gdb 97027	1.99153	1.82697	0.96433	2.9596	80.58	-0.2353	-0.0232	0.2121	1184.5223	0.137101	-414.202297	-414.193778	-414.192834	-414.236115	30.657	
C	-0.1178798955	 1.3856973841	 0.2574983387	-0.335767
N	-0.0568608505	-0.0379067482	-0.0000587032	-0.311326
C	 0.4512715414	-0.5658990876	-1.0271823358	 0.378182
C	 0.4920876507	-2.0740028457	-1.2601200261	-0.242944
N	 1.1484221116	-2.2935213936	-2.5484369579	-0.252763
C	 1.4449884061	-1.1439110052	-2.9999332045	 0.084967
N	 1.0854743176	-0.0420843698	-2.1911053701	-0.145308
C	 1.3573044754	 1.2715682624	-2.5616693778	 0.083318
N	 1.9435910782	 1.5285104563	-3.6601037288	-0.456696
H	 0.8776427802	 1.8467642256	 0.3308929122	 0.122767
H	-0.6904584769	 1.932026107	-0.5058918219	 0.122415
H	-0.619924793	 1.5463261388	 1.2153652424	 0.128246
H	 1.0413146971	-2.5789963889	-0.4583844648	 0.148765
H	-0.5183458605	-2.4961663588	-1.2663843583	 0.148846
H	 1.9432927371	-0.9370933566	-3.937510628	 0.173055
H	 1.0232577632	 2.005871044	-1.832857552	 0.118346
H	 2.0620742778	 2.5328854363	-3.7710315843	 0.235897
50.6322	102.9547	194.6615	222.3241	236.892	259.7711	276.3456	403.1386	483.0982	549.0541	630.885	670.8456	755.3859	811.8692	870.8048	941.7576	991.737	1007.8455	1042.0277	1051.5036	1083.5181	1102.512	1128.7312	1188.9764	1189.4888	1220.7371	1300.6043	1321.4905	1388.9495	1416.8759	1440.1676	1456.0998	1495.0628	1513.56	1702.3195	1704.8229	1791.2574	2981.8697	3036.4158	3053.5136	3085.1661	3092.19	3168.4197	3245.4686	3518.812
CN=C1CN=CN1C=N	CN=C1CN=CN1[CH][NH]	
InChI=1S/C5H8N4/c1-7-5-2-8-4-9(5)3-6/h3-4,6H,2H2,1H3	InChI=1S/C5H8N4/c1-7-5-2-8-4-9(5)3-6/h3-4,6H,2H2,1H3
