18
gdb 126405	5.18934	1.04362	0.9339	3.1018	80.09	-0.2425	0.0254	0.2679	1297.4251	0.149673	-398.127438	-398.119226	-398.118282	-398.161448	29.552	
C	-0.3144721932	 1.441480781	-0.1406609461	-0.3732
C	 0.0860738376	-0.0360927319	-0.0043295253	-0.279809
C	 0.8516025562	-0.3130562534	 1.2508312111	 0.329876
N	 2.1377979114	-0.6986312412	 1.224046912	-0.341002
N	 2.3754773955	-0.788708649	 2.5532552261	 0.083288
C	 3.2494580989	-1.1426522253	 3.6875108945	-0.168517
C	 1.9987636573	-0.7755674299	 4.5958948684	-0.369404
C	 1.3016142031	-0.4902919401	 3.2708107568	 0.366144
N	 0.2784356283	-0.1716845409	 2.5037255481	-0.413822
H	 0.5706237856	 2.0830572662	-0.1945823277	 0.118913
H	-0.9051094278	 1.5995108513	-1.0481680456	 0.109641
H	-0.9107828067	 1.75812731	 0.7191737722	 0.136613
H	-0.8175256111	-0.6568321869	-0.0061349742	 0.116054
H	 0.6999430615	-0.3476536932	-0.8539491367	 0.118014
H	 3.5481220652	-2.1932118452	 3.7048793681	 0.142225
H	 4.1233407603	-0.4961889823	 3.7945618363	 0.140731
H	 1.5984629266	-1.6115530088	 5.1726468971	 0.142561
H	 2.1494088514	 0.0839020494	 5.2519540348	 0.141694
44.2043	57.2395	147.7484	205.2377	255.0285	312.5021	374.6864	505.1177	591.907	683.5403	750.8016	789.1299	799.0101	816.2135	840.4804	901.7258	982.667	997.5374	1059.6802	1073.2622	1090.6494	1130.656	1132.7235	1168.062	1213.6239	1260.8999	1264.5909	1305.9358	1327.7873	1344.1749	1403.9674	1467.4986	1476.0278	1484.417	1493.2778	1496.3944	1514.0675	1521.6581	1585.3409	3039.6383	3041.6824	3070.3918	3082.6094	3094.009	3109.9311	3125.4333	3125.6514	3139.8696
CCC1=NN2CCC2=N1	CCc1nn2CCc2n1	
InChI=1S/C6H9N3/c1-2-5-7-6-3-4-9(6)8-5/h2-4H2,1H3	InChI=1S/C6H9N3/c1-2-5-7-6-3-4-9(6)8-5/h2-4H2,1H3
