17
gdb 53902	1.92659	1.59773	1.11589	1.9403	73.88	-0.2493	-0.023	0.2262	1150.9681	0.131997	-421.780963	-421.771306	-421.770362	-421.816117	34.182	
C	 0.1348433539	 1.148258168	 0.3480808724	-0.487107
C	-0.0465138717	-0.3489221727	 0.2652969007	 0.406865
O	 0.81729296	-1.1390148761	 0.5509615988	-0.29756
C	-1.4566806879	-0.8290102997	-0.1846885571	-0.333042
C	-1.3948564037	-1.9670544274	-1.0915963718	 0.348734
C	-1.3660752777	-2.9088265677	-1.836505823	-0.4491
C	-2.3025631788	-1.1721486514	 1.0490983283	 0.07682
C	-1.7481356805	-1.8349515348	 2.2304338578	-0.169329
O	-2.0348561353	-0.4236764716	 2.2315389051	-0.245199
H	-0.6125714281	 1.5598904107	 1.0345838266	 0.164109
H	 1.1387724655	 1.3830121924	 0.7029538841	 0.144235
H	-0.0307634357	 1.6072428852	-0.6333450006	 0.140002
H	-1.9536539182	 0.0076451929	-0.6928317503	 0.113119
H	-1.3265779232	-3.7406219352	-2.4955958515	 0.201865
H	-3.3601426496	-1.3118056054	 0.8259689692	 0.112376
H	-2.4048666196	-2.4353592187	 2.8565565129	 0.121551
H	-0.6932502692	-2.0932833285	 2.2519015185	 0.15166
56.8068	73.4175	133.3621	142.5696	160.4332	184.4741	336.8214	347.8515	402.2777	406.548	508.8283	600.3862	633.3657	641.5742	649.3218	785.9921	851.7865	869.6179	944.8958	973.9259	1015.3757	1056.5987	1065.8711	1110.6443	1160.2001	1169.7315	1177.5603	1274.1188	1288.3086	1333.2647	1377.6968	1425.6463	1463.2214	1475.4197	1525.7996	1824.6915	2241.9871	3022.3024	3038.3819	3104.1206	3104.4774	3114.6698	3156.3419	3205.794	3503.3708
CC(=O)C(C#C)C1CO1	CC(=O)[C@@H](C#C)[C@H]1CO1	
InChI=1S/C7H8O2/c1-3-6(5(2)8)7-4-9-7/h1,6-7H,4H2,2H3	InChI=1S/C7H8O2/c1-3-6(5(2)8)7-4-9-7/h1,6-7H,4H2,2H3/t6-,7-/m1/s1
