21
gdb 80384	2.13856	1.61662	1.36724	1.5101	78.68	-0.2352	0.0723	0.3076	1088.9369	0.18014	-424.199207	-424.189536	-424.188592	-424.232513	37.717	
C	-0.0603795932	 1.5301597579	-0.0398035772	-0.497718
C	 0.0159618106	 0.0286616304	-0.0173530258	 0.291466
C	-0.8360942857	-0.8109959612	 0.8802233238	 0.035125
O	-1.6662173938	-1.830660099	 0.3859538141	-0.420115
C	 0.648919704	-0.9482230156	 1.0151811018	-0.170548
C	 1.190799902	-1.8245294349	-0.1196806178	-0.284054
C	 0.6352124575	-0.7976527558	-1.166526608	 0.362442
C	-0.2602970603	-1.2972269803	-2.291925797	-0.470025
O	 1.6933314913	 0.0009117703	-1.6937113175	-0.479095
H	 0.8894247023	 1.9607625503	-0.3652932846	 0.139947
H	-0.8400194433	 1.8757050664	-0.7295701325	 0.118863
H	-0.2996528958	 1.9256303663	 0.9527045908	 0.109032
H	-1.3016567847	-0.2246828347	 1.674451743	 0.08558
H	-1.6873826299	-2.5357412919	 1.0418008969	 0.285643
H	 1.167367233	-0.7272542205	 1.9417395705	 0.079306
H	 2.2807641125	-1.8542308764	-0.1605429161	 0.098769
H	 0.7896793389	-2.841691901	-0.1649407935	 0.08439
H	-1.0902246495	-1.8845703307	-1.8988444538	 0.147293
H	-0.6587088123	-0.4514965021	-2.8616324909	 0.117248
H	 0.3150856177	-1.927449259	-2.9837688969	 0.093988
H	 2.1149493388	-0.5072873085	-2.3948311293	 0.272464
145.3603	182.8292	199.0895	219.9938	244.0078	263.2331	279.7347	281.8172	299.4256	372.0171	410.8047	456.3672	536.6608	582.1699	643.0387	663.1052	768.3177	848.3944	857.8923	898.382	952.533	962.3083	986.7697	1012.5811	1035.4418	1093.6987	1103.1352	1119.3897	1161.5151	1195.8211	1222.2368	1245.656	1261.8537	1264.437	1301.4038	1346.9544	1384.6758	1401.0554	1411.2861	1457.7233	1482.0877	1484.9129	1490.2402	1503.1432	1506.8589	3016.2666	3027.8094	3050.3398	3084.688	3088.0127	3090.2741	3120.7319	3122.9925	3154.0028	3168.0264	3802.7843	3806.1321
CC12C(O)C1CC2(C)O	C[C@]12[C@@H](O)[C@H]1C[C@]2(C)O	
InChI=1S/C7H12O2/c1-6(9)3-4-5(8)7(4,6)2/h4-5,8-9H,3H2,1-2H3	InChI=1S/C7H12O2/c1-6(9)3-4-5(8)7(4,6)2/h4-5,8-9H,3H2,1-2H3/t4-,5+,6+,7-/m1/s1
