21
gdb 5799	3.29054	1.35765	1.23083	3.3972	75.78	-0.2369	0.0367	0.2737	1127.2944	0.185658	-366.315355	-366.305021	-366.304077	-366.351217	37.342	
C	-0.1443226477	 1.537821893	-0.013073789	-0.477241
C	 0.0849277286	 0.0310539642	-0.0472357023	 0.413965
O	 1.2089703313	-0.4372173863	-0.1347577195	-0.387267
N	-1.0452644626	-0.7262770392	 0.0266352491	-0.337062
C	-1.0975164744	-2.2033935114	 0.0135291362	 0.286732
C	-0.3229201986	-2.7680568742	 1.218377586	-0.399319
C	-2.5805956942	-2.5858721748	 0.1174929448	-0.428186
C	-0.5071702509	-2.7391546641	-1.3036478575	-0.399317
H	 0.4052132884	 1.9552219102	 0.8348131165	 0.150876
H	 0.2781034385	 1.9756827843	-0.9213365638	 0.15088
H	-1.1950216609	 1.8292361759	 0.0663926093	 0.107473
H	-1.9254657663	-0.2434966804	 0.096529333	 0.237721
H	-0.7533629997	-2.4053468595	 2.1574415977	 0.103035
H	-0.3724756668	-3.8616906178	 1.2192441616	 0.106108
H	 0.7229370327	-2.4620651504	 1.1724989464	 0.154576
H	-3.1523542976	-2.1872026	-0.7281134198	 0.113733
H	-2.690775679	-3.6734426336	 0.1130756735	 0.12584
H	-3.0227394429	-2.2075414625	 1.0460784947	 0.113731
H	 0.5347602702	-2.432548112	-1.4032751348	 0.154578
H	-0.5581499489	-3.8325654737	-1.3222326556	 0.106107
H	-1.0689013892	-2.3558474979	-2.1616769562	 0.103038
17.2581	78.5523	124.4852	188.7166	219.13	272.05	277.6641	321.6332	329.1011	343.9446	393.7041	419.2865	459.8806	468.7439	615.7262	642.891	775.6195	910.2544	923.4558	932.3182	964.6006	966.1923	1032.712	1049.7958	1055.5781	1070.0181	1240.6587	1247.6753	1254.5051	1295.7821	1391.8632	1393.3287	1396.1856	1424.4918	1469.9953	1471.4779	1483.5053	1490.9234	1491.536	1492.9338	1507.6114	1527.0408	1534.3026	1766.4579	3026.3777	3035.7724	3041.6562	3047.9053	3091.8529	3101.1218	3104.0602	3118.0162	3126.1976	3127.0896	3146.6549	3149.6375	3644.3686
CC(=O)NC(C)(C)C	CC(=O)NC(C)(C)C	
InChI=1S/C6H13NO/c1-5(8)7-6(2,3)4/h1-4H3,(H,7,8)	InChI=1S/C6H13NO/c1-5(8)7-6(2,3)4/h1-4H3,(H,7,8)
