21
gdb 120985	3.64894	0.96798	0.89554	2.1879	79.05	-0.2373	0.0741	0.3114	1402.8747	0.182098	-424.183137	-424.174219	-424.173275	-424.217638	32.972	
C	-0.2870702098	 1.4522814235	-0.1283253455	-0.386115
C	 0.1775213548	 0.0060787029	-0.1299110335	-0.037374
O	 0.2474866473	-0.445865278	 1.2107995232	-0.250593
C	 0.6556270574	-1.7797561394	 1.3396390234	 0.138654
C	 2.1715469646	-2.1289706233	 1.1283703193	-0.276277
C	 2.2214662949	-2.6725726523	 2.5771862065	 0.115459
O	 2.6854353146	-1.6887050055	 3.5188689774	-0.291649
C	 1.3308767664	-1.2465968127	 3.790608062	-0.078918
C	 0.7354979911	-2.2660784272	 2.8038939929	-0.12688
H	 0.4150379408	 2.0802105747	 0.4275203553	 0.128257
H	-0.3563806891	 1.831524754	-1.1522326449	 0.115318
H	-1.2705313953	 1.5390912973	 0.3422755694	 0.1266
H	-0.5219706967	-0.6267404535	-0.7020052576	 0.085941
H	 1.1627668746	-0.0820375595	-0.6147569964	 0.09344
H	 0.0104647081	-2.4333979442	 0.7325089001	 0.064859
H	 2.3593450798	-2.8663084185	 0.3436720993	 0.097827
H	 2.826269498	-1.2660588239	 0.987518095	 0.114916
H	 2.6483096148	-3.662414972	 2.7556661052	 0.074316
H	 1.0630696858	-1.4215678727	 4.8393856068	 0.098548
H	 1.1731593019	-0.193006483	 3.5407817944	 0.118781
H	-0.0534545544	-2.9224795167	 3.167540658	 0.074889
59.0049	85.1862	103.7756	146.6985	247.53	282.8559	346.5743	374.6646	446.2759	531.4723	666.853	754.5923	794.169	821.4181	861.6809	891.7055	919.2366	925.8546	985.7089	1001.0876	1008.7707	1051.4793	1080.7896	1083.516	1120.2933	1154.1035	1155.009	1179.1321	1188.2958	1203.8448	1211.7197	1253.3593	1287.6493	1297.9107	1308.3548	1328.9286	1354.5008	1374.4048	1403.6378	1437.9289	1455.1069	1483.8736	1499.9239	1520.4083	1528.9648	2959.4563	2976.7532	2991.9362	3025.2535	3044.9764	3060.6751	3079.1342	3086.1557	3119.5454	3121.5095	3121.9995	3125.9771
CCOC1CC2OCC12	CCO[C@H]1C[C@H]2OC[C@@H]12	
InChI=1S/C7H12O2/c1-2-8-6-3-7-5(6)4-9-7/h5-7H,2-4H2,1H3	InChI=1S/C7H12O2/c1-2-8-6-3-7-5(6)4-9-7/h5-7H,2-4H2,1H3/t5-,6-,7+/m0/s1
