17
gdb 86606	3.8425	0.98013	0.8332	0.7201	69.51	-0.2529	-0.0352	0.2177	1341.323	0.133879	-458.934138	-458.92522	-458.924276	-458.968822	31.663	
O	 0.1108960291	 1.4726378434	 0.3155903386	-0.431605
C	 0.0900778706	 0.0986418207	 0.0928668688	 0.07095
C	-1.2518462048	-0.7209557124	 0.0726389347	-0.302087
C	-0.7079572009	-1.5731691439	-1.1237311777	-0.131457
C	-1.6145088168	-1.941189411	-2.2613471827	 0.094599
C	-1.3368005751	-3.0817217027	-3.1422334769	-0.177523
O	-2.3448023921	-3.1641423246	-2.1334338978	-0.23937
C	 0.2679707612	-0.400224509	-1.3417380598	 0.318239
O	 0.6807094145	 0.1582088737	-2.3207238251	-0.308782
H	 0.1212842718	 1.9046128657	-0.5477517376	 0.296243
H	 0.7975218221	-0.3904872752	 0.7749436625	 0.113463
H	-1.5096898807	-1.257383716	 0.9849139543	 0.125267
H	-2.086170824	-0.0864205567	-0.2373986373	 0.123092
H	-0.1833691241	-2.4622966279	-0.7593915209	 0.110748
H	-2.1977092969	-1.1152881418	-2.6712249416	 0.0994
H	-1.6980097837	-3.0687516592	-4.169075923	 0.122749
H	-0.4503832101	-3.6906887131	-2.9693306884	 0.116077
50.0396	81.9624	124.1909	139.1274	226.7658	271.5078	318.4497	373.8064	409.8227	527.7925	638.9086	705.1609	802.6496	815.8692	859.5653	899.3645	946.2149	962.5684	990.452	1021.7987	1061.8417	1098.2715	1138.5066	1156.539	1162.4254	1168.8418	1202.3794	1224.6338	1253.3166	1290.6695	1300.1954	1340.9313	1413.4677	1448.8769	1482.3169	1529.8436	1862.7292	3030.5535	3065.4131	3077.5104	3085.8427	3102.8615	3151.3112	3173.6925	3777.21
OC1CC(C2CO2)C1=O	O[C@H]1C[C@@H]([C@H]2CO2)C1=O	
InChI=1S/C6H8O3/c7-4-1-3(6(4)8)5-2-9-5/h3-5,7H,1-2H2	InChI=1S/C6H8O3/c7-4-1-3(6(4)8)5-2-9-5/h3-5,7H,1-2H2/t3-,4-,5+/m0/s1
