17
gdb 27169	2.97569	1.42454	1.04335	1.0308	77.99	-0.183	0.026	0.2091	1142.2279	0.137291	-417.993747	-417.985734	-417.98479	-418.026571	30.613	
N	 0.0711567129	 1.4529818511	 0.086966186	-0.614574
C	 0.071626548	 0.0525704857	 0.0174879409	 0.136379
C	-1.0099896471	-0.7559420755	-0.1749874199	 0.343688
O	-0.6044305296	-2.0709043268	-0.2867048446	-0.191342
C	 0.7452287989	-2.0746666601	-0.1418307602	-0.021946
C	 1.2174890543	-0.8151019415	 0.0410203828	-0.230107
N	-2.3538867228	-0.4130586573	-0.2814360795	-0.196765
C	-3.1965010762	-1.0889772725	-1.2801138847	-0.225288
C	-3.3777695085	-1.3633333281	 0.1710418556	-0.225592
H	 0.6484556692	 1.8066855783	 0.8402485403	 0.239979
H	-0.8739727151	 1.8034347293	 0.1939434057	 0.247217
H	 1.2207228481	-3.0404975559	-0.1900896146	 0.129135
H	 2.249057544	-0.5257689478	 0.1698440086	 0.104673
H	-3.8931239853	-0.4442013004	-1.8079106043	 0.120224
H	-2.730285878	-1.8655135328	-1.8792337394	 0.132175
H	-3.0359609983	-2.3244840906	 0.5427861517	 0.133415
H	-4.2094402247	-0.9208325952	 0.7118805856	 0.118728
63.163	160.1399	167.4003	255.2449	295.8675	297.1566	436.9984	514.2953	581.7059	623.5832	683.3084	702.1774	731.5925	801.6834	817.3085	821.1644	843.3561	887.0036	926.0328	1034.5426	1045.5273	1072.7475	1107.132	1127.7212	1133.316	1181.3482	1193.5656	1200.8836	1224.4646	1318.3132	1352.878	1471.7315	1484.0397	1509.7908	1549.0763	1639.9925	1706.4743	3113.0742	3116.6356	3200.0997	3215.2751	3249.647	3279.3348	3517.9044	3608.873
NC1=C(OC=C1)N1CC1	Nc1c(occ1)N1CC1	
InChI=1S/C6H8N2O/c7-5-1-4-9-6(5)8-2-3-8/h1,4H,2-3,7H2	InChI=1S/C6H8N2O/c7-5-1-4-9-6(5)8-2-3-8/h1,4H,2-3,7H2
