19
gdb 120348	4.03435	0.98452	0.88092	0.9824	76.78	-0.2453	0.0006	0.2459	1358.1401	0.15904	-422.995915	-422.987439	-422.986494	-423.029625	31.35	
C	-0.0463218783	 1.3973164399	 0.001861657	-0.227427
O	-0.0353440789	-0.0098245478	-0.0264212244	-0.236731
C	 0.7008616236	-0.5310625089	-1.1128293566	-0.058932
C	 0.6081061877	-2.057069352	-1.0645767288	-0.09319
C	-0.8097130162	-2.5841190675	-1.2123118958	-0.072531
C	-0.924975088	-3.4656127452	-2.2087037773	-0.094706
C	 0.3842488099	-3.6197160377	-2.9114958165	-0.000746
O	 0.8525070432	-2.3895908817	-3.5196096758	-0.25869
C	 1.3403295154	-2.7390248573	-2.220685561	 0.010223
H	 0.9695073929	 1.8118777007	 0.102675787	 0.103576
H	-0.4990432059	 1.8211284485	-0.9082938152	 0.107119
H	-0.6390316526	 1.7033448582	 0.8674366294	 0.126312
H	 0.3001204733	-0.1690607109	-2.0715230502	 0.108253
H	 1.7556408137	-0.2121257026	-1.050548118	 0.084234
H	 1.0383320071	-2.3861729608	-0.1086787845	 0.092389
H	-1.613227831	-2.2215343405	-0.5833582087	 0.115729
H	-1.8303018039	-3.9783053325	-2.5091811152	 0.102034
H	 0.6673242828	-4.5249334987	-3.4396367454	 0.09779
H	 2.4072068052	-2.9384476532	-2.1620084901	 0.095296
73.9778	99.8378	123.6975	189.593	239.0512	303.5318	351.2767	443.2266	481.5581	606.3437	718.3675	756.4118	808.1004	833.3951	865.1673	878.4967	947.3619	960.6004	976.4135	998.4994	1033.4239	1091.4288	1104.5402	1111.5502	1137.0407	1162.2076	1184.939	1227.0923	1246.1002	1253.058	1290.9026	1299.4808	1327.0837	1375.079	1402.8872	1421.7964	1480.6478	1485.8002	1504.2751	1530.3184	1660.0447	2953.8151	2971.6461	3007.0555	3014.7745	3025.2332	3113.0923	3144.4262	3166.5452	3202.5589	3226.6443
COCC1C=CC2OC12	COC[C@H]1C=C[C@H]2O[C@@H]12	
InChI=1S/C7H10O2/c1-8-4-5-2-3-6-7(5)9-6/h2-3,5-7H,4H2,1H3	InChI=1S/C7H10O2/c1-8-4-5-2-3-6-7(5)9-6/h2-3,5-7H,4H2,1H3/t5-,6-,7+/m1/s1
