16
gdb 22631	4.3652	1.1088	0.98331	1.9438	76.65	-0.2386	-0.05	0.1886	1198.2658	0.123236	-437.835457	-437.827438	-437.826494	-437.867785	30.803	
C	-0.079347013	 1.5167926943	 0.0728169448	-0.494445
C	 0.1337186135	 0.0318686634	 0.0037183782	 0.384122
O	-0.7064758311	-0.7876440823	 0.8520817433	-0.291657
C	 0.7187573283	-0.8142227763	 1.0609347721	-0.14105
C	 1.4047396281	-1.9488812241	 0.3643407597	 0.402526
C	 1.1490073467	-1.7931863847	-1.0755198808	-0.168312
C	 0.4534146269	-0.6658661152	-1.2928960523	-0.133364
N	 2.0944321823	-2.8108005825	 1.0102410835	-0.236229
O	 2.654930069	-3.7675812344	 0.1620107811	-0.380718
H	 0.789240006	 2.0531215764	-0.3228963181	 0.129834
H	-0.9541158076	 1.808582462	-0.5187836353	 0.131588
H	-0.2473302202	 1.8302632923	 1.1056099819	 0.136986
H	 1.0683226426	-0.4555370287	 2.0232448234	 0.105369
H	 1.4664673014	-2.5155804473	-1.8134841585	 0.129464
H	 0.1262105164	-0.2966283386	-2.2576148337	 0.113752
H	 3.1322003006	-4.3348864345	 0.7770924208	 0.312134
103.0679	184.4587	203.8985	262.9558	285.8482	331.7827	407.326	418.7649	473.0167	528.94	625.5298	689.6503	725.7364	760.9077	816.1319	841.1342	885.2212	914.4229	963.1617	988.8838	1007.9298	1054.1511	1094.1891	1119.231	1215.0189	1261.1973	1278.0057	1356.3169	1398.0254	1412.4744	1442.914	1483.6472	1492.9592	1626.904	1728.4899	3037.2636	3099.612	3129.3081	3176.653	3204.1113	3247.6075	3817.6739
CC12OC1C(C=C2)=NO	C[C@]12O[C@H]1C(=NO)C=C2	
InChI=1S/C6H7NO2/c1-6-3-2-4(7-8)5(6)9-6/h2-3,5,8H,1H3	InChI=1S/C6H7NO2/c1-6-3-2-4(7-8)5(6)9-6/h2-3,5,8H,1H3/t5-,6+/m0/s1
