20
gdb 96034	3.10728	1.04199	0.87033	5.2869	78.69	-0.2788	0.0425	0.3213	1351.4479	0.171959	-403.182385	-403.173135	-403.17219	-403.217702	33.667	
O	-0.1760225764	 1.4910288132	 0.5281720456	-0.441256
C	-0.0118052558	 0.1433590834	 0.0908256708	 0.099621
C	 0.7398829385	-0.7169445414	 1.1242719496	-0.236754
C	-0.3407818114	-1.2352706119	 2.1190605007	-0.206999
C	-1.6994326967	-0.762521136	 1.5475647323	-0.207714
C	-1.4136458198	-0.4863121177	 0.0597321187	 0.023486
C	-2.4565930015	 0.3863706184	-0.6599636623	-0.363246
C	-3.7770432838	-0.2381327203	-0.7011814633	 0.261582
N	-4.8141903594	-0.7476094415	-0.7293369654	-0.318365
H	 0.6967857659	 1.8750271694	 0.6534062868	 0.286947
H	 0.472041699	 0.1233860247	-0.8968814891	 0.061397
H	 1.2357032452	-1.5510132317	 0.6167758618	 0.103923
H	 1.5270096597	-0.134790505	 1.6142214406	 0.09222
H	-0.3034051104	-2.3264807418	 2.1827607544	 0.105793
H	-0.1813567306	-0.8575460375	 3.1316352198	 0.106685
H	-2.5012083969	-1.4900898367	 1.6919016361	 0.115127
H	-2.0088189656	 0.1704664778	 2.0289721996	 0.114799
H	-1.3301765891	-1.4421115554	-0.4725484283	 0.089881
H	-2.5313629596	 1.3554406345	-0.1580939874	 0.168505
H	-2.1390607715	 0.5881938952	-1.6897355009	 0.144368
32.1403	65.3903	111.3218	155.5753	250.9	274.7314	322.4461	375.5281	398.2829	467.5603	545.4627	637.6945	749.3234	758.4878	832.668	867.3954	881.1938	899.4793	945.626	976.3828	1001.7394	1036.0176	1055.7027	1088.4648	1107.0429	1172.0659	1192.4084	1216.8754	1252.7266	1260.6893	1292.2605	1299.3626	1318.205	1339.3581	1351.5439	1365.9892	1388.7358	1423.0035	1467.6334	1480.17	1489.6265	1510.5129	2359.6406	2989.5132	3032.3959	3044.6747	3047.8717	3058.3335	3063.11	3079.1328	3100.7596	3101.9118	3116.7046	3829.5185
OC1CCCC1CC#N	O[C@H]1CCC[C@H]1CC#N	
InChI=1S/C7H11NO/c8-5-4-6-2-1-3-7(6)9/h6-7,9H,1-4H2	InChI=1S/C7H11NO/c8-5-4-6-2-1-3-7(6)9/h6-7,9H,1-4H2/t6-,7-/m0/s1
