18
gdb 114567	2.66916	1.21331	0.96745	4.2747	77.59	-0.2762	-0.0027	0.2735	1262.3638	0.146753	-401.927884	-401.919203	-401.918259	-401.961521	32.099	
C	 0.0815498871	 1.5227463307	-0.1157260969	-0.386044
C	-0.0261719019	 0.0234136505	 0.1795312231	-0.198759
C	-1.4445765804	-0.509038779	 0.0237238686	-0.065545
C	-2.0820251772	-0.603593756	-1.4158400801	-0.267169
C	-2.2476254618	-2.1114630675	-1.2065784936	-0.04678
O	-0.9524540831	-2.656698473	-0.9561152293	-0.270228
C	-1.6377823616	-2.0389599643	 0.1416720271	 0.314308
C	-1.8687392843	-2.8091245896	 1.3236511162	 0.200548
N	-2.0622862826	-3.3844336755	 2.3082381963	-0.339023
H	 1.1116248726	 1.8714826996	 0.0017739606	 0.121952
H	-0.2312018456	 1.7528163748	-1.1400041462	 0.119449
H	-0.5481484323	 2.1086464255	 0.562854546	 0.117914
H	 0.6352634819	-0.5414889144	-0.4863609769	 0.117384
H	 0.3154244388	-0.175628621	 1.2033512003	 0.111035
H	-2.1329779938	 0.0042266962	 0.7025023788	 0.096125
H	-3.0292934979	-0.0673890962	-1.4965151685	 0.120741
H	-1.4341519003	-0.336657035	-2.2537523736	 0.123282
H	-3.0054567174	-2.7886531658	-1.582062152	 0.130811
81.875	118.0648	153.3671	170.9449	219.9073	270.5827	363.4171	407.5038	487.5058	542.5791	576.803	630.9861	726.0924	780.3203	813.4794	884.2738	920.6837	937.939	960.1882	974.1539	1026.5701	1067.53	1113.6116	1121.639	1147.9036	1190.2381	1223.2644	1258.2715	1266.1846	1289.8516	1339.082	1378.6948	1413.5585	1417.9921	1473.3839	1489.7293	1500.4809	1506.5974	2354.8375	3028.6144	3033.3146	3059.6351	3074.4948	3076.7419	3101.3932	3109.1866	3134.488	3199.0016
CCC1CC2OC12C#N	CC[C@H]1C[C@H]2O[C@@]12C#N	
InChI=1S/C7H9NO/c1-2-5-3-6-7(5,4-8)9-6/h5-6H,2-3H2,1H3	InChI=1S/C7H9NO/c1-2-5-3-6-7(5,4-8)9-6/h5-6H,2-3H2,1H3/t5-,6+,7-/m0/s1
