21
gdb 64504	3.38417	1.21973	1.09541	1.7138	81.93	-0.2303	0.0784	0.3088	1199.052	0.182366	-387.028121	-387.019621	-387.018677	-387.061072	33.375	
C	-0.1027834583	 1.623274723	-0.3975988746	-0.471004
C	-0.0069287662	 0.1512350425	-0.0434371569	 0.281887
C	-1.2422169013	-0.3861966977	 0.6315844146	-0.042522
C	-1.2516425954	-1.5779846953	 1.5578195349	-0.284691
C	-1.4771983648	-0.1927476184	 2.1107156533	-0.268062
C	 0.6770748157	-0.8658834382	-0.9605678999	-0.171661
C	 1.9264693752	-0.2654858937	-1.5913548161	-0.109905
O	 2.4102197517	 0.1869771523	-0.2959634488	-0.290595
C	 1.3101154856	-0.4605611886	 0.3520307062	 0.045755
H	 0.8587873331	 2.0181692561	-0.7305288505	 0.135652
H	-0.844430935	 1.7933409217	-1.1866187433	 0.109678
H	-0.4136011251	 2.2002016601	 0.4798897593	 0.118045
H	-2.1302019836	-0.2890632362	 0.0096010129	 0.084524
H	-2.0985674452	-2.252853383	 1.4991987852	 0.110503
H	-0.3171840472	-2.0746559922	 1.7919181076	 0.115568
H	-0.6732368498	 0.250555748	 2.6888903389	 0.115104
H	-2.4714978624	 0.0768226342	 2.4491465333	 0.111388
H	 0.1988975305	-1.7924289496	-1.2488000477	 0.096475
H	 2.6082596741	-1.0154280169	-2.0084442502	 0.109476
H	 1.8038319976	 0.5581864019	-2.3043311464	 0.104812
H	 1.5282147006	-0.9947986499	 1.2698477482	 0.099573
81.3668	159.7704	184.6542	198.1803	263.1744	294.1284	342.1647	438.3718	472.7046	529.5026	656.6965	757.7564	782.7703	807.0938	835.0899	886.4691	900.7568	935.036	949.2151	965.8939	986.7391	997.3317	1037.1254	1059.0437	1072.4213	1078.1767	1081.5913	1097.5465	1127.6444	1144.5863	1160.6268	1199.2251	1207.5239	1240.8443	1247.4615	1269.4923	1336.0427	1399.9982	1408.3646	1419.1031	1472.2015	1489.6966	1502.5573	1507.8763	1521.6243	3023.5163	3032.5256	3070.1839	3089.2916	3116.9325	3131.9063	3132.2465	3139.0783	3170.9256	3201.5441	3210.3338	3225.1476
CC1(C2CC2)C2COC12	C[C@@]1(C2CC2)[C@H]2CO[C@@H]12	
InChI=1S/C8H12O/c1-8(5-2-3-5)6-4-9-7(6)8/h5-7H,2-4H2,1H3	InChI=1S/C8H12O/c1-8(5-2-3-5)6-4-9-7(6)8/h5-7H,2-4H2,1H3/t6-,7+,8+/m0/s1
