19
gdb 115566	2.37151	1.13884	1.08244	3.0821	71.86	-0.2412	-0.0289	0.2122	1244.6019	0.156125	-460.145119	-460.135161	-460.134217	-460.180719	35.033	
C	-0.1300708514	 1.6899529275	-0.0957844463	-0.458333
C	 0.0474665725	 0.1827837045	 0.0257438794	 0.2948
O	 1.2191400941	-0.2914739502	-0.6917781037	-0.32834
C	 1.6871348986	-1.0137060527	 0.4782583365	-0.080822
C	 0.5399571094	-0.4607737867	 1.3458157548	-0.070478
C	 0.9597684467	 0.4485904124	 2.4844654599	-0.114129
O	 1.5676740564	-0.384358042	 3.4609753741	-0.420254
C	-1.1614565144	-0.5229075169	-0.5811841075	 0.130296
O	-1.9992668559	-1.1244222354	 0.0377831664	-0.248585
H	 0.7770180779	 2.2121664216	 0.2172936898	 0.132514
H	-0.3276485851	 1.9594482206	-1.1389134279	 0.131448
H	-0.972256617	 2.0349981912	 0.5127926691	 0.134254
H	 1.6834667217	-2.0967077182	 0.3146422889	 0.112159
H	 2.693180856	-0.695481249	 0.7712745756	 0.111947
H	-0.1520727674	-1.2140330483	 1.7260751712	 0.110972
H	 1.6663084506	 1.2135979162	 2.1255883109	 0.088045
H	 0.0810279778	 0.9728595774	 2.8921931295	 0.094781
H	 1.8743692897	 0.1701667419	 4.1843203223	 0.290069
H	-1.1874502601	-0.446699604	-1.6921400931	 0.089657
53.6336	73.5654	98.6203	157.9433	212.807	218.6107	263.5054	292.7075	317.8158	343.4233	438.9477	474.0455	565.1619	694.2065	835.2318	875.7549	907.5008	925.2519	947.3711	993.7077	1002.6493	1065.3886	1098.8322	1133.7421	1139.7616	1162.3837	1175.7576	1224.6859	1251.1581	1273.4824	1296.7303	1336.8065	1387.0661	1397.2051	1406.9132	1463.4263	1480.1001	1494.9128	1517.7394	1529.1205	1833.4597	2881.3719	2967.5372	2997.804	3034.179	3037.4173	3081.2308	3105.8332	3107.1109	3126.1383	3831.015
CC1(OCC1CO)C=O	C[C@]1(OC[C@H]1CO)C=O	
InChI=1S/C6H10O3/c1-6(4-8)5(2-7)3-9-6/h4-5,7H,2-3H2,1H3	InChI=1S/C6H10O3/c1-6(4-8)5(2-7)3-9-6/h4-5,7H,2-3H2,1H3/t5-,6+/m1/s1
