21
gdb 57796	3.77805	0.59608	0.58353	2.9414	89.14	-0.2353	-0.0125	0.2228	2019.0438	0.178436	-387.096702	-387.085384	-387.08444	-387.135318	39.132	
C	-0.236853442	 1.5127463087	-0.304126088	-0.37313
C	-0.1951768668	-0.0283943828	-0.2763029144	-0.124286
C	 0.9669256921	-0.5420661285	 0.596862336	-0.373087
C	-1.475451685	-0.5811863417	 0.1696020116	 0.110574
C	-2.5286862066	-1.0209319616	 0.5570432137	 0.00985
C	-3.7935122562	-1.5727136707	 1.0225124954	-0.443351
C	-4.1138942105	-3.0078532915	 0.5521532059	 0.394879
C	-3.6797947047	-3.3922558771	-0.8454220188	-0.471761
O	-4.718750149	-3.7566739176	 1.279465225	-0.289115
H	 0.7107429858	 1.9108065445	-0.6808674023	 0.112933
H	-1.0439946217	 1.8735701572	-0.946942781	 0.122631
H	-0.4008861981	 1.9109958842	 0.7018870868	 0.124864
H	-0.0199968513	-0.3759100764	-1.3044008241	 0.10324
H	 0.844275526	-0.212757486	 1.6332453302	 0.125183
H	 1.0105665059	-1.6343025675	 0.5920546751	 0.122415
H	 1.9208588555	-0.1554517362	 0.2242141697	 0.112784
H	-3.8574125057	-1.5761853368	 2.1151745923	 0.152202
H	-4.627056408	-0.9472121193	 0.6672030078	 0.149834
H	-2.5865841449	-3.4042636767	-0.8998570264	 0.154974
H	-4.0785766436	-4.3751227743	-1.0975775742	 0.139329
H	-4.0174100714	-2.6459175398	-1.5728832403	 0.139039
25.6333	31.1466	72.0721	121.6376	138.0483	167.0977	226.4122	261.314	294.9212	317.5507	362.9635	435.051	466.5529	532.9127	536.4659	553.8531	723.4064	767.7639	839.6033	889.6269	931.3336	965.029	1002.0687	1048.9307	1069.4954	1122.1608	1151.3961	1191.7129	1208.5961	1231.9631	1298.8074	1325.7141	1351.6767	1382.9192	1395.4089	1417.1482	1442.6517	1458.8491	1471.5523	1485.7523	1488.8111	1498.1349	1509.7892	1822.1386	2360.246	3000.1872	3002.79	3036.6185	3039.8834	3044.3362	3079.3646	3106.7155	3107.9685	3112.8564	3118.6412	3120.5327	3157.9679
CC(C)C#CCC(C)=O	CC(C)C#CCC(=O)C	
InChI=1S/C8H12O/c1-7(2)5-4-6-8(3)9/h7H,6H2,1-3H3	InChI=1S/C8H12O/c1-7(2)5-4-6-8(3)9/h7H,6H2,1-3H3
