20
gdb 30204	4.44909	1.164	0.95365	1.497	86.17	-0.196	0.0468	0.2427	1252.8567	0.174204	-366.064894	-366.057055	-366.05611	-366.096958	31.549	
C	-0.0864405414	 1.5361249671	 0.0076001305	-0.403961
C	 0.1043423235	 0.0214302094	 0.0087285467	 0.057026
C	 0.9258653892	-0.5234882602	-1.2037313558	-0.370515
C	 1.5219247696	-1.7847185765	-0.647604828	 0.273973
C	 2.1364281943	-2.9437881941	-1.0496894047	-0.252096
N	 2.4453011837	-3.6468880673	 0.0963989705	-0.237636
C	 2.033969662	-2.9550043374	 1.2168336185	-0.252096
C	 1.4577321769	-1.791746015	 0.7724134489	 0.273973
C	 0.8133632864	-0.5358052741	 1.2849234938	-0.370516
H	 0.8796601754	 2.0526748272	 0.0538312802	 0.111085
H	-0.6007464263	 1.8734853432	-0.8989550228	 0.10954
H	-0.6805959945	 1.8647441757	 0.8673404624	 0.10954
H	-0.882592852	-0.4566883265	-0.0382530014	 0.075621
H	 0.2957149492	-0.6679800211	-2.0878045936	 0.099008
H	 1.7059069221	 0.1981966066	-1.4879394077	 0.097796
H	 2.3803843938	-3.3413465889	-2.0219425912	 0.113419
H	 2.8717423792	-4.5564251832	 0.1111751871	 0.255617
H	 2.1893913465	-3.3622531703	 2.2031581262	 0.113419
H	 1.5642575547	 0.182689018	 1.6454672293	 0.097796
H	 0.1060817179	-0.6887423725	 2.1070645912	 0.099008
86.833	226.3651	248.8188	259.249	271.3924	409.411	445.2485	454.9855	503.5977	628.0046	653.4081	685.3062	707.4636	744.6923	766.462	817.6187	897.3137	927.0609	935.0967	944.8517	1053.0879	1071.1029	1073.8488	1108.6383	1144.5126	1146.7181	1177.283	1231.0828	1235.7632	1275.2038	1296.3801	1325.838	1343.9193	1367.5497	1406.4526	1420.8386	1463.047	1487.1157	1494.92	1496.167	1502.7378	1563.5688	1633.7421	2994.6555	2994.8268	3017.4823	3023.3992	3059.8572	3063.2773	3089.7912	3092.2455	3255.6399	3258.3927	3684.5191
CC1CC2=CNC=C2C1	C[C@H]1Cc2c[nH]cc2C1	
InChI=1S/C8H11N/c1-6-2-7-4-9-5-8(7)3-6/h4-6,9H,2-3H2,1H3	InChI=1S/C8H11N/c1-6-2-7-4-9-5-8(7)3-6/h4-6,9H,2-3H2,1H3
