19
gdb 120599	3.96982	0.72991	0.69713	3.327	78.01	-0.2685	0.0299	0.2984	1633.26	0.158652	-419.196441	-419.186439	-419.185494	-419.231866	35.975	
N	-0.0349516951	 1.4347999603	 0.1577561272	-0.554379
C	-0.0230068664	 0.0040061612	-0.0132975354	 0.128962
C	-0.6183900053	-0.8207118719	 1.1173939563	-0.304044
C	-1.3643406232	-0.7105371378	-0.1819229137	-0.031262
C	-2.6514198533	 0.0751156193	-0.2959239681	-0.211886
C	-3.8597082371	-0.7406830919	 0.1558584074	-0.065694
O	-5.0098961507	 0.0702098083	-0.0194629862	-0.418985
C	 1.1069646147	-0.560580612	-0.7241612719	 0.234054
N	 2.0227876531	-0.9696336212	-1.3024797193	-0.348636
H	 0.772190688	 1.7349107616	 0.6960109005	 0.245087
H	 0.0108677245	 1.9050880643	-0.7412836543	 0.24549
H	-0.1371027118	-1.7560451262	 1.3761996246	 0.134594
H	-0.9793617417	-0.2333490556	 1.9544781945	 0.133756
H	-1.3086951895	-1.5896024918	-0.8184815006	 0.11008
H	-2.5891843743	 0.9874808796	 0.3021094237	 0.130724
H	-2.8143843935	 0.3837524801	-1.3355432259	 0.110498
H	-3.9292177679	-1.6673215845	-0.4376376951	 0.085166
H	-3.7326206977	-1.0385937224	 1.2090347076	 0.089116
H	-5.779932563	-0.4332080095	 0.2599809188	 0.28736
61.9794	87.7742	107.1105	150.8241	195.5997	253.4836	256.5149	298.1884	330.0661	384.6255	416.8901	504.0877	582.0142	612.0504	697.1372	798.9421	839.3342	857.4649	889.3493	928.6479	972.5688	1011.2848	1070.2828	1078.627	1095.6167	1116.7101	1182.1118	1216.6568	1240.4272	1255.7831	1275.3288	1306.4143	1313.4802	1334.9315	1419.0351	1462.5762	1475.3746	1499.2018	1528.6575	1664.4486	2336.4537	2960.9793	2988.8261	3043.3087	3109.7224	3142.8217	3147.806	3237.5086	3496.0313	3573.0666	3832.0416
NC1(CC1CCO)C#N	N[C@]1(C[C@H]1CCO)C#N	
InChI=1S/C6H10N2O/c7-4-6(8)3-5(6)1-2-9/h5,9H,1-3,8H2	InChI=1S/C6H10N2O/c7-4-6(8)3-5(6)1-2-9/h5,9H,1-3,8H2/t5-,6-/m1/s1
