23
gdb 81361	2.41716	1.59105	1.26082	0.1908	90.07	-0.2287	0.0221	0.2508	1142.9463	0.207748	-351.160314	-351.151975	-351.151031	-351.192462	34.238	
C	-0.0681127261	 1.5424754065	-0.0461422631	-0.427494
C	 0.0310360439	 0.0211955161	-0.0572132237	 0.048711
C	 1.2353782445	-0.58571179	-0.8565344998	-0.057374
C	 2.070053122	-0.4535915048	 0.4548292322	-0.243786
C	 0.713717158	-0.6090450963	 1.201600919	-0.018083
C	 0.3531645456	-2.1067929334	 1.3288413303	-0.019837
C	-1.0536227403	-2.3304217217	 1.9073027642	-0.402538
C	 0.529949012	-2.7730407424	-0.0233308872	-0.064408
C	 0.9482196922	-2.0570737058	-1.0683452034	-0.082331
H	 0.8795224848	 2.0242302993	 0.2150292677	 0.114234
H	-0.3712743553	 1.9217517034	-1.0284800067	 0.111835
H	-0.8166116942	 1.874913837	 0.6823483668	 0.112632
H	-0.9404766766	-0.40326608	-0.3285274284	 0.063511
H	 1.577607709	-0.074187941	-1.7586113781	 0.051476
H	 2.8397115426	-1.2093881802	 0.6306451528	 0.09115
H	 2.501455256	 0.5410439423	 0.5841768757	 0.094394
H	 0.5886243907	-0.0906033476	 2.1576917155	 0.050077
H	 1.0666163238	-2.5648466617	 2.032466812	 0.074796
H	-1.8219188486	-1.8718599723	 1.2766599239	 0.118958
H	-1.2822178865	-3.3987649323	 1.9829133521	 0.110796
H	-1.1357646829	-1.8985971534	 2.9106805771	 0.109235
H	 0.3066559965	-3.8338758221	-0.1046003806	 0.080921
H	 1.0889949489	-2.4995827097	-2.0499583682	 0.083125
161.9594	193.8486	211.5321	238.922	263.3022	315.2744	387.5799	398.0431	455.8912	493.5363	591.8152	692.0489	726.7777	780.6916	814.1196	853.2643	878.5155	903.787	917.9562	950.0846	977.544	994.8893	1022.1756	1044.5283	1069.8808	1079.4244	1086.5111	1114.4833	1135.0387	1141.1356	1166.3903	1175.492	1239.4245	1266.3829	1269.8154	1298.2604	1312.7201	1335.4479	1343.7	1382.1522	1396.7589	1412.2107	1413.3005	1488.2363	1496.1327	1497.8317	1500.7366	1504.5751	1694.7826	2970.6023	3025.6687	3029.8027	3047.9184	3049.916	3062.7629	3082.4059	3086.7717	3095.9208	3098.8968	3106.0144	3117.4314	3150.5114	3177.3439
CC1C2CC1C(C)C=C2	C[C@H]1[C@H]2C[C@@H]1[C@@H](C)C=C2	
InChI=1S/C9H14/c1-6-3-4-8-5-9(6)7(8)2/h3-4,6-9H,5H2,1-2H3	InChI=1S/C9H14/c1-6-3-4-8-5-9(6)7(8)2/h3-4,6-9H,5H2,1-2H3/t6-,7-,8+,9+/m0/s1
