25
gdb 119145	2.84151	0.92962	0.80456	1.6203	88.71	-0.2567	0.0855	0.3422	1599.4187	0.22675	-389.484931	-389.473942	-389.472998	-389.521515	40.611	
C	-0.1001888756	 1.6288178629	 0.0188369854	-0.385553
C	 0.0180145454	 0.1020546514	 0.0045656122	-0.180468
C	-1.3373631815	-0.5855085277	-0.1961512071	-0.250163
C	-1.3671922173	-2.0981502718	 0.0068229006	 0.396638
C	-0.1521807937	-2.8967423931	-0.2328460585	-0.233947
O	-0.5726822665	-2.5915523058	 1.101262478	-0.276404
C	-2.7685431508	-2.7206735535	-0.0857970978	-0.022732
C	-2.7635521932	-4.2388490856	-0.3058743342	-0.410366
C	-3.5850778597	-2.37886884	 1.1746510502	-0.387839
H	 0.8780837187	 2.1008405194	 0.1525025334	 0.11177
H	-0.5256522124	 2.0055719348	-0.9183130069	 0.111596
H	-0.7479973107	 1.9684542458	 0.8346244908	 0.115371
H	 0.7103150068	-0.1934639317	-0.7928386179	 0.094521
H	 0.4545357425	-0.2493551846	 0.9455691711	 0.120036
H	-2.0599927625	-0.1340951128	 0.4954620385	 0.104847
H	-1.7177714297	-0.3723785249	-1.2045261852	 0.098747
H	-0.2258256534	-3.9439947985	-0.5134041216	 0.109473
H	 0.7658754143	-2.4071389063	-0.5507234557	 0.107098
H	-3.2610855803	-2.254824602	-0.9503992472	 0.070563
H	-2.2145534977	-4.7452247222	 0.4950244149	 0.131591
H	-3.7880576446	-4.62347937	-0.3004097456	 0.109245
H	-2.31226446	-4.5145539715	-1.2634585084	 0.110528
H	-3.0962301419	-2.7928997333	 2.0619146819	 0.133453
H	-3.6944080227	-1.3010916197	 1.3225343562	 0.113479
H	-4.5904826735	-2.8055795792	 1.1068487533	 0.108517
39.6083	63.6366	97.677	149.0822	206.8107	246.5831	252.7646	284.3742	299.6176	326.0545	350.1905	376.2944	430.4152	491.2487	588.4984	694.0832	748.0221	813.7187	851.0776	890.0533	918.9232	924.6204	936.4366	961.4919	984.1611	1054.0248	1087.906	1092.816	1122.6772	1139.6327	1152.6681	1172.7221	1179.6259	1214.8381	1272.6453	1316.1993	1333.0505	1336.701	1369.3877	1385.0177	1394.0276	1409.0715	1413.9962	1421.3573	1477.2207	1491.953	1494.8859	1495.9344	1500.1998	1507.634	1511.7303	1516.2697	1538.3176	3007.7107	3016.7822	3027.3864	3030.1479	3033.8711	3040.4499	3049.245	3073.4608	3097.8966	3101.1498	3101.6041	3104.0411	3108.4494	3109.6862	3116.912	3184.8192
CCCC1(CO1)C(C)C	CCC[C@]1(CO1)C(C)C	
InChI=1S/C8H16O/c1-4-5-8(6-9-8)7(2)3/h7H,4-6H2,1-3H3	InChI=1S/C8H16O/c1-4-5-8(6-9-8)7(2)3/h7H,4-6H2,1-3H3/t8-/m0/s1
