20
gdb 69851	2.30233	2.05802	1.49356	1.4522	77.58	-0.2265	0.0779	0.3044	978.2195	0.171288	-403.095095	-403.087184	-403.086239	-403.126769	32.418	
C	-0.0127309255	 1.4753277235	 0.0328717988	-0.504097
C	 0.0179697845	-0.0254774908	-0.0079085166	 0.314115
N	-0.6040365853	-0.8517590883	 1.0579162274	-0.382476
C	 0.8667561215	-0.8960618931	 0.83127425	-0.099221
C	 1.3178914284	-1.9105634463	-0.2406859138	 0.063416
C	 0.0221767242	-2.2843065632	-0.9837654638	-0.274406
C	 0.1707466163	-0.7900252391	-1.3664433454	 0.361608
C	-0.3745670737	-0.1866252229	-2.630123217	-0.513614
O	 1.6378202745	-1.0039175744	-1.3573043599	-0.339173
H	 0.7794866899	 1.8943713058	-0.5960821979	 0.138713
H	-0.9711539198	 1.8733235502	-0.3203255463	 0.123605
H	 0.1447513757	 1.8403960648	 1.0534752976	 0.113257
H	-0.7813127489	-0.2509851608	 1.8631595182	 0.222989
H	 1.5493208763	-0.5233575755	 1.5860866067	 0.092809
H	 2.1138745988	-2.6154705077	-0.0047209857	 0.075347
H	 0.2383776932	-2.918319961	-1.8437372315	 0.099194
H	-0.8488998777	-2.6148269552	-0.4230209955	 0.124472
H	-1.4653506503	-0.1091597909	-2.5711591144	 0.127035
H	 0.0297502659	 0.8169037771	-2.7954867998	 0.127403
H	-0.1168064579	-0.8049302619	-3.4938071109	 0.129024
169.2168	199.1287	222.3178	250.5023	288.7662	347.9785	430.4464	470.4699	525.3587	598.0653	608.0877	626.6315	724.4615	809.9787	822.8468	854.76	869.5741	894.9105	912.1977	961.7407	969.0841	997.4134	1020.9463	1045.726	1070.6159	1105.3163	1123.5407	1151.488	1193.0739	1226.6508	1243.1306	1278.7098	1295.7509	1323.7343	1341.8957	1403.0127	1416.438	1433.0801	1473.5458	1477.5703	1488.0883	1491.6896	1502.0627	3024.8522	3040.0063	3087.0993	3097.7501	3099.7528	3108.51	3119.892	3131.7009	3174.6154	3182.2958	3460.2074
CC12NC1C1CC2(C)O1	C[C@]12N[C@H]1[C@H]1C[C@]2(C)O1	
InChI=1S/C7H11NO/c1-6-3-4(9-6)5-7(6,2)8-5/h4-5,8H,3H2,1-2H3	InChI=1S/C7H11NO/c1-6-3-4(9-6)5-7(6,2)8-5/h4-5,8H,3H2,1-2H3/t4-,5+,6+,7+/m1/s1
