17
gdb 56520	2.59841	1.26573	1.06083	2.2977	72.84	-0.2722	-0.0022	0.27	1161.5721	0.135015	-414.19793	-414.18785	-414.186906	-414.23249	36.458	
C	 0.0563997256	 1.5498525098	 0.1766836307	-0.419742
C	 0.0165295622	 0.0190504871	 0.0658156113	 0.058605
N	 0.7088867189	-0.566039699	 1.2088650945	-0.500892
C	-1.3944938755	-0.4320810961	-0.0303279154	 0.248474
N	-2.4804447808	-0.825747388	-0.0934723051	-0.337413
C	 0.733334785	-0.4982598335	-1.2462806788	-0.122183
N	 0.0998962178	-0.1797486974	-2.5139065754	-0.510976
C	 2.124341302	-0.0209679899	-1.2612054656	 0.320795
N	 3.2062258488	 0.3810370398	-1.2958450874	-0.322119
H	 1.0947704499	 1.8763029338	 0.2648844343	 0.167839
H	-0.4015901636	 2.0199976748	-0.6966396134	 0.133225
H	-0.4971432779	 1.8809810638	 1.0595359701	 0.139207
H	 0.3661114404	-0.1713808109	 2.0788032945	 0.248725
H	 0.5621079473	-1.5699986645	 1.2545556293	 0.247918
H	 0.7674222686	-1.5922032048	-1.1624575147	 0.141565
H	-0.8500114607	-0.5368319927	-2.5343466688	 0.258955
H	 0.0713805221	 0.8209384079	-2.67616841	 0.248016
68.1917	126.3208	173.5344	188.7282	220.6139	232.5092	260.8727	275.2933	314.4252	355.2598	386.5436	426.2885	506.2238	573.1959	586.9688	628.4813	724.829	815.4766	841.2701	876.596	947.7862	978.348	1037.1708	1129.893	1162.5416	1185.7947	1216.6188	1291.9923	1356.2523	1404.6037	1409.23	1487.4004	1494.8431	1655.2621	1663.5453	2337.2464	2368.7295	3033.3495	3053.8784	3126.202	3145.6987	3502.2128	3509.1755	3584.8516	3600.5734
CC(N)(C#N)C(N)C#N	C[C@@](N)(C#N)[C@@H](N)C#N	
InChI=1S/C5H8N4/c1-5(9,3-7)4(8)2-6/h4H,8-9H2,1H3	InChI=1S/C5H8N4/c1-5(9,3-7)4(8)2-6/h4H,8-9H2,1H3/t4-,5+/m0/s1
