15
gdb 30861	2.48087	1.38685	0.9348	0.7842	65.4	-0.2007	0.031	0.2317	1205.6194	0.112577	-491.106135	-491.097533	-491.096589	-491.139596	31.379	
C	-0.4210116617	 1.2650832706	-0.0596272483	-0.32701
N	 0.4755263449	 0.1276457651	 0.1564095525	-0.384336
C	 0.7825417286	-0.6658527077	-0.9171776936	 0.206354
C	 0.5161777528	-1.9461779698	-1.2743694162	 0.293584
O	-0.1798835302	-2.8625042609	-0.5784339407	-0.424463
N	 1.0641983672	-2.2595982226	-2.5096266978	-0.469959
C	 1.64167718	-1.1491996681	-2.8589680273	 0.482827
O	 2.3219299771	-0.9160252907	-3.9798181777	-0.397632
O	 1.5524046275	-0.1368253233	-2.0174246191	-0.207975
H	-0.004593182	 2.0361214388	-0.7239881872	 0.116523
H	-1.3546169886	 0.9020611342	-0.4980846823	 0.134112
H	-0.6522571992	 1.7256199487	 0.905381734	 0.119782
H	 1.2725145372	 0.3727705125	 0.7318872318	 0.234209
H	-0.1806755794	-3.6676458632	-1.1092429099	 0.304155
H	 2.3054434557	-1.7355963434	-4.4906610683	 0.31983
79.1537	125.209	160.4072	237.1917	282.2906	298.3323	343.5507	356.4229	444.2926	469.3182	586.179	597.2161	645.4665	675.7729	728.4165	761.2624	820.7505	971.4214	1043.7845	1080.5723	1143.6956	1162.1206	1181.4223	1217.8198	1366.1034	1409.213	1456.4112	1475.2192	1491.2116	1514.9771	1528.2433	1639.3695	1783.7833	2997.521	3078.3042	3118.4766	3526.5878	3804.4105	3813.5246
CNC1=C(O)N=C(O)O1	CNc1c(O)nc(O)o1	
InChI=1S/C4H6N2O3/c1-5-3-2(7)6-4(8)9-3/h5,7H,1H3,(H,6,8)	InChI=1S/C4H6N2O3/c1-5-3-2(7)6-4(8)9-3/h5,7H,1H3,(H,6,8)
