16
gdb 113607	2.78366	0.85122	0.69993	5.5773	85.75	-0.2628	-0.0376	0.2252	1558.7172	0.123469	-400.718193	-400.708967	-400.708023	-400.75326	32.51	
O	 0.3311950058	 0.6149004272	 0.8380609873	-0.418367
C	-0.1063128632	 0.1971084747	-0.4433517755	-0.098214
C	-1.4505738525	-0.4586447514	-0.2756002118	 0.01375
C	-1.9441362422	-1.4598926983	-1.2694159636	-0.304148
C	-1.5555507462	-1.9290833492	 0.1314726806	-0.204326
C	-0.3882871587	-2.7246548771	 0.3160617939	 0.147017
C	 0.5934354217	-3.4135870247	 0.4812165966	 0.001415
C	 1.7040503185	-4.1840056426	 0.6587903321	 0.200665
N	 2.6527414245	-4.8396849379	 0.8064157678	-0.343203
H	 1.2001678895	 1.0166416278	 0.7454472148	 0.293153
H	-0.2091690496	 1.0509666127	-1.1324538768	 0.096327
H	 0.5980538045	-0.5134421456	-0.9020492054	 0.099086
H	-2.194483281	 0.1794136513	 0.1916167777	 0.11345
H	-2.9982671384	-1.4798211216	-1.5197909873	 0.133231
H	-1.280024754	-1.7464715699	-2.0772102311	 0.137479
H	-2.3748752089	-2.1750860655	 0.8000997506	 0.132686
49.3412	86.8868	107.3762	187.0084	219.7027	235.5409	265.2649	361.6582	434.9339	508.9389	542.2031	579.1249	593.0775	693.1268	775.9406	846.2708	892.9702	948.6232	1001.0523	1066.4175	1072.9886	1088.6744	1114.6969	1166.3473	1178.7195	1235.8356	1257.5751	1282.4803	1375.1605	1400.1767	1474.4289	1488.2702	1515.3661	2259.7758	2388.2008	2970.7028	3005.1549	3143.222	3153.9895	3164.9517	3233.5882	3830.7084
OCC1CC1C#CC#N	OC[C@H]1C[C@H]1C#CC#N	
InChI=1S/C7H7NO/c8-3-1-2-6-4-7(6)5-9/h6-7,9H,4-5H2	InChI=1S/C7H7NO/c8-3-1-2-6-4-7(6)5-9/h6-7,9H,4-5H2/t6-,7-/m1/s1
