17
gdb 13248	5.19854	1.13806	0.98821	4.6383	66.94	-0.2485	0.0298	0.2783	1170.1818	0.142044	-400.970405	-400.962192	-400.961248	-401.004341	28.362	
N	-0.3996989128	 1.0461422432	 0.212431817	-0.442398
C	-0.6111221193	-0.1776043175	 0.4344776072	 0.132076
O	-0.4158315121	-1.0763262019	-0.5581101509	-0.187342
C	-0.7178401668	-2.4347705959	-0.2629638293	-0.105526
C	-2.2002085386	-2.7366636598	-0.3797682071	 0.150866
C	-2.6464257233	-4.1667579698	-0.0047502313	-0.30162
C	-3.5112172454	-3.4620692986	 1.0597515667	-0.058824
O	-2.9692957412	-2.1690939015	 0.7089607623	-0.293089
H	-0.5791697239	 1.5835091405	 1.05817474	 0.227408
H	-0.9500246375	-0.6297131897	 1.3731573646	 0.100702
H	-0.1646003091	-3.0299249857	-0.9969070772	 0.122658
H	-0.3619681657	-2.7049358382	 0.740828863	 0.106269
H	-2.5692078785	-2.3739803945	-1.3476116871	 0.095867
H	-3.1819964104	-4.7187772082	-0.7772634906	 0.120472
H	-1.8483485612	-4.7952120978	 0.3978643781	 0.113598
H	-4.5929284438	-3.507086931	 0.8853408128	 0.1101
H	-3.3091851104	-3.7220927837	 2.1049203319	 0.108781
63.2864	77.2016	88.733	131.6738	225.9888	338.263	370.1216	455.0177	647.1629	743.3454	815.0683	820.5277	872.7783	903.1464	965.1883	981.416	1013.5034	1039.5048	1058.5366	1098.7282	1137.9361	1156.0776	1171.9617	1217.2414	1246.1766	1259.8946	1291.9318	1322.9161	1348.0275	1381.1831	1410.8242	1427.277	1485.3147	1491.825	1532.1837	1744.6142	3012.9799	3022.6071	3032.6843	3064.2847	3065.5413	3076.6572	3087.3977	3137.0655	3516.4372
N=COCC1CCO1	[NH][CH]OC[C@H]1CCO1	
InChI=1S/C5H9NO2/c6-4-7-3-5-1-2-8-5/h4-6H,1-3H2	InChI=1S/C5H9NO2/c6-4-7-3-5-1-2-8-5/h4-6H,1-3H2/t5-/m1/s1
