18
gdb 112485	2.42071	1.18449	0.89509	1.0919	71.27	-0.259	0.0095	0.2685	1324.7522	0.145632	-476.202726	-476.192748	-476.191804	-476.238459	34.515	
C	 0.3728939936	 1.3938524311	-0.2073600895	-0.339585
N	 0.4529872178	-0.0550189887	-0.0790828633	-0.337795
C	 0.5017302346	-0.7662719985	-1.1050341578	 0.426288
O	 0.5015066816	-0.448823156	-2.4527387952	-0.294483
C	 0.830826479	-1.8469920601	-2.8128283771	 0.071458
C	 2.2139533313	-1.9101450251	-3.4280255479	-0.061332
O	 2.2640598672	-1.1613625681	-4.6274704693	-0.422068
C	 0.6789327396	-2.2540888358	-1.3252543223	-0.038313
O	 1.7965041048	-2.8537327797	-0.7203643264	-0.427479
H	 1.1281000488	 1.8504150728	 0.4403263119	 0.130588
H	 0.5137044025	 1.7575938656	-1.2317682479	 0.125992
H	-0.6050302485	 1.733155996	 0.151688169	 0.135605
H	 0.0706835573	-2.2301638008	-3.4975357916	 0.102222
H	 2.9577705634	-1.5701671685	-2.6948467232	 0.101475
H	 2.452808041	-2.9471182752	-3.684305909	 0.125455
H	 2.0049112089	-0.2603792057	-4.4020882775	 0.292054
H	-0.2353045556	-2.8307982907	-1.1337751943	 0.106533
H	 1.9365253529	-2.4029703826	 0.1205362115	 0.303385
59.6435	90.2956	101.9885	138.4887	167.2788	178.6101	213.6374	287.7166	333.0207	414.8229	478.1508	499.4678	587.2011	684.0368	758.6206	834.821	880.7399	935.1905	1003.9644	1054.0265	1079.7273	1107.2973	1120.3383	1133.1247	1156.9125	1183.1357	1207.8405	1223.2583	1297.7441	1334.6085	1367.178	1383.5583	1397.1302	1430.6034	1440.4027	1492.5692	1492.9761	1497.7168	1849.3695	3019.1075	3020.0491	3022.2685	3084.6615	3086.7979	3094.3324	3099.6725	3799.2641	3801.5319
CN=C1OC(CO)C1O	CN=C1O[C@@H](CO)[C@H]1O	
InChI=1S/C5H9NO3/c1-6-5-4(8)3(2-7)9-5/h3-4,7-8H,2H2,1H3	InChI=1S/C5H9NO3/c1-6-5-4(8)3(2-7)9-5/h3-4,7-8H,2H2,1H3/t3-,4+/m0/s1
