21
gdb 117813	1.86836	1.13601	0.89451	2.4931	75.29	-0.2517	-0.0265	0.2253	1425.0165	0.177954	-461.365077	-461.353662	-461.352718	-461.402296	39.824	
C	 0.7111017256	-0.5460670784	 1.3795393933	-0.4212
C	 0.1611484396	 0.0745434279	 0.0918274214	-0.190525
C	 0.8510663086	-0.4131228282	-1.2109332046	 0.240373
O	 2.2524694988	-0.1396248773	-1.1811718833	-0.473317
C	 0.546681945	-1.8879905471	-1.5143946777	-0.223745
C	 1.2594310147	-2.4269400887	-2.7512244383	-0.086341
O	 0.9566475255	-3.8124310359	-2.834189947	-0.422662
C	 0.3196830207	 0.4950318204	-2.320785197	 0.156717
O	-0.7433394947	 0.3495043929	-2.8648445632	-0.264944
H	 0.5713108601	-1.6304986968	 1.4113337821	 0.129957
H	 1.7783668906	-0.3319617311	 1.5042243919	 0.114587
H	 0.1985214405	-0.1237444948	 2.2485846088	 0.127681
H	-0.9120619614	-0.1234464234	-0.0005241658	 0.119462
H	 0.278890482	 1.1638985234	 0.1475172631	 0.105448
H	 2.6531663141	-0.6959875132	-0.5058474093	 0.287012
H	 0.8315850751	-2.5120836981	-0.6596652059	 0.101424
H	-0.5334169719	-1.9969871033	-1.6502105318	 0.130025
H	 0.9128835956	-1.888915791	-3.6463542829	 0.100419
H	 2.34186791	-2.2561297223	-2.6616241331	 0.089494
H	 1.3700747342	-4.1612255088	-3.6290901236	 0.286331
H	 1.0001159575	 1.3429558738	-2.556871277	 0.093806
60.4143	65.352	88.8482	103.7405	158.5513	220.7707	225.1185	249.187	262.392	273.5614	322.3657	340.0676	374.6676	469.5313	508.4328	628.0929	784.7362	787.6705	810.0506	893.3967	963.0832	1002.8529	1008.8695	1048.7388	1065.8801	1079.0706	1103.7795	1150.5188	1201.37	1227.7416	1251.8849	1306.3164	1322.2988	1337.3565	1343.3552	1389.7217	1402.0833	1415.9379	1460.6914	1476.9196	1482.0324	1503.3073	1507.0901	1530.5453	1836.1192	2895.8717	2986.6232	3018.6089	3029.5197	3035.7732	3047.7849	3076.6155	3101.39	3103.3851	3116.2418	3824.7416	3831.6022
CCC(O)(CCO)C=O	CC[C@@](O)(CCO)C=O	
InChI=1S/C6H12O3/c1-2-6(9,5-8)3-4-7/h5,7,9H,2-4H2,1H3	InChI=1S/C6H12O3/c1-2-6(9,5-8)3-4-7/h5,7,9H,2-4H2,1H3/t6-/m1/s1
