19
gdb 100172	2.0765	1.33951	1.16821	2.6568	72.28	-0.2472	-0.0464	0.2008	1198.8938	0.153428	-460.188974	-460.177897	-460.176953	-460.226426	38.156	
C	-0.1896660833	 1.638928064	 0.0782000776	-0.407406
C	 0.0232603814	 0.122529838	 0.0832637418	-0.212305
C	 0.626742136	-0.4258793856	-1.2180588101	 0.151127
O	-0.1040965948	-0.044434671	-2.3853991542	-0.466324
C	 2.0309718006	 0.1393897122	-1.4300723447	 0.138384
O	 2.936682634	-0.0263544412	-0.6559711548	-0.25672
C	 0.6938632767	-1.987638177	-1.1823915883	 0.37149
C	 1.3466131522	-2.6504627577	-2.3761889957	-0.493997
O	 0.2101915479	-2.6076235355	-0.2686208939	-0.29289
H	 0.7601014953	 2.1798137104	 0.0127890047	 0.12878
H	-0.8101000456	 1.9534961437	-0.7658129367	 0.119086
H	-0.6853396726	 1.955145442	 1.0001086789	 0.122165
H	 0.6922219736	-0.1717419231	 0.8972641396	 0.136629
H	-0.920104731	-0.4048825762	 0.2631347639	 0.108811
H	-1.0345181677	-0.243168678	-2.2334051806	 0.294047
H	 2.1418087657	 0.7207354975	-2.3713463875	 0.099588
H	 2.4335275114	-2.5264425602	-2.3002323487	 0.163068
H	 1.1127455769	-3.7155118188	-2.3842541501	 0.144531
H	 1.0243469932	-2.1728056433	-3.3046596911	 0.151936
23.3831	51.1056	96.2726	143.2077	164.5582	191.3381	215.4427	264.5567	283.94	313.438	347.9705	355.0513	481.2457	526.7666	571.3547	639.747	703.8716	785.4601	867.0974	944.0041	976.8933	988.9962	1036.582	1054.3221	1111.3151	1134.1325	1170.6342	1211.081	1272.805	1357.0783	1357.735	1375.0404	1398.0719	1414.8668	1466.955	1472.3569	1475.8011	1497.8522	1505.996	1812.4751	1837.7149	2901.7669	3041.6674	3043.5731	3050.6626	3092.8171	3111.4506	3115.463	3119.6498	3159.4997	3812.0971
CCC(O)(C=O)C(C)=O	CC[C@@](O)(C=O)C(=O)C	
InChI=1S/C6H10O3/c1-3-6(9,4-7)5(2)8/h4,9H,3H2,1-2H3	InChI=1S/C6H10O3/c1-3-6(9,4-7)5(2)8/h4,9H,3H2,1-2H3/t6-/m1/s1
