16
gdb 41116	3.52274	2.02106	1.59477	0.8892	72.19	-0.2383	-0.0126	0.2257	835.3566	0.126048	-400.658317	-400.652289	-400.651345	-400.688249	25.751	
C	 0.0388827954	 1.4503428548	 0.1140330167	-0.120636
O	 1.4601332348	 1.5436088274	-0.2306778811	-0.356381
C	 1.4345493228	 0.1965399121	-0.6515430365	 0.427444
C	 2.3989013498	-0.9019795249	-0.4134417426	-0.206501
C	 1.8853824555	-1.9782245767	-1.0478571354	-0.087152
C	 0.7073982794	-1.5909968929	-1.8593388902	-0.066179
C	 0.697857134	-0.1321103738	-1.992735674	-0.126638
N	-0.4892229326	-0.6818683361	-1.2636885225	-0.18005
C	 0.0286139584	-0.0961946845	-0.0275870678	-0.042314
H	-0.1386337126	 1.8237876483	 1.1255356689	 0.121036
H	-0.5899448286	 1.986702367	-0.6047317695	 0.1192
H	 3.1872498337	-0.8901457144	 0.3276601947	 0.117054
H	 2.2203899715	-3.0015046512	-0.9395624924	 0.109259
H	 0.2880517162	-2.2362947339	-2.6184877794	 0.109452
H	 0.6419295051	 0.4638285036	-2.8987239297	 0.101069
H	-0.1198287128	-0.6657926448	 0.8918273408	 0.081338
234.6683	330.3867	338.2724	391.1457	527.5286	560.9637	597.0978	710.7744	725.8778	756.0668	796.5357	813.8167	843.5477	876.5278	908.5794	930.8229	965.3334	975.6495	989.7312	1036.4394	1079.2473	1093.1433	1099.5429	1141.59	1149.5101	1177.969	1208.1567	1243.0405	1266.1622	1323.5189	1337.5036	1357.9404	1386.4625	1502.6192	1586.6461	3042.963	3089.5641	3111.1593	3158.2799	3209.0982	3221.0182	3233.7172
C1OC23C=CC4C2N4C13	C1O[C@]23C=C[C@@H]4[C@H]2N4[C@H]13	
InChI=1S/C7H7NO/c1-2-7-5(3-9-7)8-4(1)6(7)8/h1-2,4-6H,3H2	InChI=1S/C7H7NO/c1-2-7-5(3-9-7)8-4(1)6(7)8/h1-2,4-6H,3H2/t4-,5-,6-,7+,8?/m1/s1
