21
gdb 39316	2.8462	1.66936	1.27131	1.2524	80.32	-0.2215	0.0752	0.2967	1050.5375	0.185924	-387.06351	-387.056277	-387.055333	-387.094923	30.275	
C	 0.0335109133	 1.5787234726	-0.1213268137	-0.345625
C	 1.3069463791	 0.792462441	 0.0151708923	 0.136809
O	 2.0930853739	 0.8229178072	 1.1735935181	-0.255564
C	 1.3801923614	 0.7446889489	 2.4007920162	-0.103974
C	 0.5317902169	-0.5207820152	 2.4849842856	-0.019891
C	-0.706841772	-0.4096662924	 3.4163393343	-0.238035
C	-1.5895048367	-0.1089992649	 2.1715849248	-0.237842
C	-0.438099916	-0.6386595035	 1.2656284337	 0.01807
C	-0.0136227689	 0.0582353317	-0.0129474512	-0.094085
H	-0.3162243729	 2.1650501025	 0.7203961584	 0.11573
H	-0.1853922747	 2.0268085855	-1.0844857613	 0.109963
H	 1.9634551208	 0.7244548451	-0.8453162851	 0.098247
H	 2.1449443008	 0.7603199436	 3.1827052373	 0.109217
H	 0.7585029902	 1.6428099059	 2.5428640425	 0.087893
H	 1.186422614	-1.3819114363	 2.6430548425	 0.069046
H	-0.954733218	-1.3668398508	 3.8822100708	 0.101551
H	-0.6728303362	 0.3524268367	 4.2006498743	 0.094959
H	-2.5524629178	-0.6207025245	 2.1018129032	 0.096318
H	-1.7650063651	 0.9612897595	 2.0348271589	 0.101814
H	-0.6065293448	-1.6961644667	 1.0430948523	 0.072293
H	-0.2526151673	-0.4685406159	-0.9316246838	 0.083103
107.7894	211.7388	277.858	336.4092	390.2989	398.1184	479.8681	557.3769	631.1091	694.5889	732.5192	776.7458	804.5643	826.8535	883.066	900.4371	947.1627	950.0657	971.4163	987.2937	1015.8553	1034.5573	1048.6813	1069.3008	1108.798	1124.6982	1132.0988	1163.4917	1191.3224	1217.6725	1236.1375	1242.6905	1255.303	1267.5711	1279.3003	1302.8677	1347.3154	1358.2624	1379.056	1394.8548	1421.9256	1477.7142	1483.0207	1497.0072	1514.3818	2977.3865	3051.1742	3051.9663	3061.4689	3066.8489	3084.0774	3096.5056	3116.1619	3138.4379	3144.8937	3170.6943	3222.2056
C1C2OCC3CCC3C12	C1[C@H]2OC[C@H]3CC[C@H]3[C@@H]12	
InChI=1S/C8H12O/c1-2-6-5(1)4-9-8-3-7(6)8/h5-8H,1-4H2	InChI=1S/C8H12O/c1-2-6-5(1)4-9-8-3-7(6)8/h5-8H,1-4H2/t5-,6-,7-,8-/m1/s1
