16
gdb 36536	4.57509	0.88876	0.86298	2.8875	78.17	-0.2489	0.0117	0.2606	1368.6173	0.122728	-400.669582	-400.661312	-400.660368	-400.70385	30.601	
C	-1.5404057272	 0.1861282252	-0.8950149424	-0.470577
C	-0.5418665042	 0.585206629	-0.3595998618	 0.334132
C	 0.678018208	 1.0600921058	 0.2899909961	-0.320741
N	 0.8974301286	 2.4904834183	 0.0384959261	-0.341744
C	 1.840933958	 2.8142503155	-0.7156685357	 0.498989
O	 2.7927753756	 2.0177736152	-1.3704122604	-0.283203
C	 3.4923768612	 3.2159985972	-1.7957990438	 0.097174
C	 2.6231986875	 3.9981215139	-2.7089425306	-0.289571
C	 2.4268513716	 4.1006489515	-1.1902398453	-0.228217
H	-2.4240373489	-0.166084763	-1.3664451062	 0.196492
H	 0.577373754	 0.9286420186	 1.3743773973	 0.137198
H	 1.526097546	 0.442440972	-0.0347966528	 0.143135
H	 4.5705530964	 3.2159822994	-1.7199745885	 0.128208
H	 3.0698668518	 4.8826978192	-3.1526488051	 0.130805
H	 1.8902042576	 3.4852580334	-3.3231693811	 0.140758
H	 2.4804308741	 5.030254469	-0.6442789859	 0.127163
21.6057	90.8289	173.1836	210.4872	308.1936	327.9959	423.0897	462.609	584.2316	606.3901	651.9758	692.6786	728.0465	785.6462	827.6497	890.334	930.8581	948.8486	968.7598	1007.4026	1020.6292	1038.8157	1043.413	1058.2916	1084.7104	1122.9778	1190.2258	1258.7455	1296.3527	1331.7428	1363.6566	1474.2165	1484.4376	1842.2706	2241.7648	3012.6235	3048.6486	3127.7737	3218.6993	3223.0942	3239.6724	3507.9166
C#CCN=C1OC2CC12	C#CCN=C1O[C@H]2C[C@@H]12	
InChI=1S/C7H7NO/c1-2-3-8-7-5-4-6(5)9-7/h1,5-6H,3-4H2	InChI=1S/C7H7NO/c1-2-3-8-7-5-4-6(5)9-7/h1,5-6H,3-4H2/t5-,6+/m1/s1
