20
gdb 126503	2.93895	1.01097	0.79776	3.2917	82.65	-0.24	-0.0018	0.2382	1487.6039	0.170358	-403.16439	-403.154849	-403.153905	-403.19994	33.923	
C	 0.0508537913	 1.6192599322	-0.2220132756	-0.383632
C	 0.0815086558	 0.0911651669	-0.1580130557	-0.159526
C	-1.3003538474	-0.5122611608	 0.1649712661	-0.305488
C	-1.2979516442	-2.0023905203	 0.2099982922	 0.359167
C	-1.4479159876	-2.9203517417	 1.2100103222	 0.059143
C	-1.6967354957	-2.7038651611	 2.6696545727	-0.514853
C	-1.3091470404	-4.1606812952	 0.5213131623	-0.028151
N	-1.096405636	-4.0106408794	-0.7606349306	-0.145681
O	-1.0883149497	-2.6344743046	-0.9647913327	-0.220376
H	 1.0407229424	 2.0242207764	-0.4524600577	 0.118029
H	-0.6411071418	 1.9698893158	-0.9956687203	 0.118774
H	-0.2722430751	 2.0518987484	 0.7315856014	 0.114276
H	 0.4300590894	-0.3189948703	-1.1118949134	 0.121956
H	 0.8005123576	-0.238709219	 0.6013048733	 0.103311
H	-1.6553501709	-0.1329815402	 1.1291639844	 0.112202
H	-2.0239797533	-0.1788084064	-0.5898631398	 0.125181
H	-2.6157180413	-3.200941163	 2.9993939262	 0.135598
H	-0.8784710802	-3.0990501496	 3.2820980493	 0.135639
H	-1.7962695567	-1.6404685549	 2.9025909368	 0.129255
H	-1.3611220459	-5.1616086532	 0.9289079989	 0.125174
42.3537	84.4552	95.6343	116.2858	240.0411	253.4045	255.8724	314.8453	342.6615	423.9484	642.2665	651.3824	683.4702	745.2104	772.7687	866.9269	898.4965	909.2657	939.9996	957.0108	1004.5486	1043.9648	1067.1253	1070.8605	1110.7417	1186.9525	1206.0607	1239.1252	1283.3842	1308.997	1330.0521	1380.9991	1400.106	1414.0797	1428.6093	1474.5944	1484.5629	1492.9952	1495.983	1499.9097	1509.7135	1519.1359	1674.5571	3026.3299	3030.4394	3032.2084	3040.4428	3065.0479	3082.5115	3083.2085	3102.4493	3106.9605	3113.3102	3232.0538
CCCC1=C(C)C=NO1	CCCc1c(C)cno1	
InChI=1S/C7H11NO/c1-3-4-7-6(2)5-8-9-7/h5H,3-4H2,1-2H3	InChI=1S/C7H11NO/c1-3-4-7-6(2)5-8-9-7/h5H,3-4H2,1-2H3
