14
gdb 21089	3.51568	2.41764	1.44537	0.1078	68.98	-0.2214	-0.0722	0.1492	813.0902	0.109425	-374.904515	-374.897752	-374.896807	-374.935502	24.988	
C	-0.3125501853	 1.365169442	-0.0092269725	-0.310166
N	 0.042237867	-0.0454076994	-0.001147487	-0.016271
N	 0.2792072775	-0.6197375768	-1.1865784938	-0.193295
C	 0.596800148	-1.8793234479	-1.1894301963	 0.064868
N	 0.713925173	-2.6867184167	-0.0807418077	-0.241528
C	 0.4828800687	-2.1208649832	 1.056067314	-0.029839
C	 0.1158366237	-0.7152841346	 1.2225801619	 0.34768
N	-0.1302655376	-0.0737899937	 2.3079939405	-0.561753
H	 0.4104345223	 1.9327596082	 0.5833914646	 0.155105
H	-0.315343105	 1.6955591513	-1.0461546155	 0.147464
H	-1.2949721085	 1.5030327084	 0.4510928159	 0.155119
H	 0.7853169964	-2.3289757623	-2.1558439285	 0.136752
H	 0.5633336439	-2.7204969278	 1.9630208453	 0.129052
H	-0.0361830942	-0.6952497576	 3.1103859291	 0.216811
111.0277	157.2946	220.2512	330.4347	402.5092	456.3296	544.4628	562.12	643.1117	750.2517	760.0109	789.7062	893.6986	897.5642	965.4006	1018.4289	1095.936	1131.0017	1149.5395	1239.572	1297.7732	1373.7106	1387.4679	1418.0165	1436.3888	1465.6301	1503.3084	1538.0656	1622.8139	1682.3115	3052.3914	3112.3869	3132.1946	3179.9238	3221.651	3489.2729
CN1N=CN=CC1=N	Cn1ncncc1[NH]	
InChI=1S/C4H6N4/c1-8-4(5)2-6-3-7-8/h2-3,5H,1H3	InChI=1S/C4H11N4/c1-8-4(5)2-6-3-7-8/h4-7H,2-3H2,1H3
