17
gdb 67079	2.68906	1.55372	1.33602	1.2491	79.68	-0.2332	0.0365	0.2698	1017.3096	0.135239	-384.600268	-384.592475	-384.591531	-384.632127	31.42	
O	-0.1668104837	 1.4311959642	-0.0202911359	-0.440668
C	-0.0052823036	 0.0781056176	-0.0152221834	 0.337676
C	 0.03127501	-0.9943269486	-1.0724554465	-0.167574
C	 1.2898430946	-1.6293004798	-0.4974164367	-0.266704
C	 0.9330900226	-0.9276691814	 0.8530100682	 0.13532
C	-0.3880389294	-1.6413974145	 1.2886109166	-0.267828
C	-1.0352029521	-0.9978800211	 0.0690472842	-0.126275
C	 1.9419953345	-0.5570387879	 1.7949757805	 0.052412
C	 2.7909624557	-0.2190536043	 2.5791679184	-0.333941
H	 0.5993601655	 1.8343855756	-0.4453134009	 0.2953
H	-0.2819013642	-0.9265179685	-2.1060085864	 0.093517
H	 1.3621543486	-2.7215390348	-0.4617260998	 0.097405
H	 2.199100027	-1.2125674086	-0.9375445775	 0.105284
H	-0.3449024656	-2.7338213328	 1.3563512002	 0.095314
H	-0.7768018204	-1.2238670376	 2.2198892334	 0.116143
H	-2.0862763932	-0.9158412608	-0.1733304175	 0.096537
H	 3.5373481838	 0.0706879835	 3.2763896731	 0.178082
114.4264	151.9277	248.0661	301.3066	359.6899	400.637	482.6607	517.5399	528.2325	530.4468	617.0502	619.133	659.6172	714.7761	738.231	839.2463	888.6181	905.0307	933.408	972.4433	992.8646	1022.3355	1058.5812	1078.0157	1096.4833	1122.4246	1146.4176	1215.4345	1238.3355	1251.8348	1268.2241	1311.1694	1316.1154	1483.7504	1490.2432	1513.9273	2227.8501	3040.285	3046.8613	3106.2848	3114.537	3202.1953	3212.0023	3502.1399	3782.467
OC12C3CC1(CC23)C#C	O[C@@]12[C@H]3C[C@@]1(C[C@@H]23)C#C	
InChI=1S/C8H8O/c1-2-7-3-5-6(4-7)8(5,7)9/h1,5-6,9H,3-4H2	InChI=1S/C8H8O/c1-2-7-3-5-6(4-7)8(5,7)9/h1,5-6,9H,3-4H2/t5-,6+,7+,8+
