16
gdb 97356	2.82594	0.88385	0.69702	2.7692	82.43	-0.2571	-0.005	0.2521	1589.8686	0.119171	-400.653973	-400.64381	-400.642866	-400.690161	35.322	
C	 0.1566051376	 1.3894492599	 0.04885092	-0.317572
N	-0.0281383337	-0.0458710384	 0.0012112784	-0.201369
C	 0.5544922051	-0.67649004	-0.9128886702	 0.147638
O	 0.3932008293	-2.0193785292	-1.0252148534	-0.201168
C	 1.187019093	-2.6499329542	-2.0443334565	-0.260107
C	 2.5890746766	-2.7826397956	-1.6301825009	 0.354843
C	 3.7384873222	-2.859877879	-1.2928228373	-0.452658
C	 0.5834655227	-3.9456715497	-2.3495235927	 0.315787
C	 0.1011523227	-5.0067776142	-2.6322626754	-0.391077
H	 0.8157480692	 1.784029499	-0.7416677696	 0.097396
H	-0.8162796044	 1.8868868478	-0.0333710988	 0.131095
H	 0.5770092437	 1.6710922545	 1.0206620281	 0.131749
H	 1.2071201223	-0.2285883189	-1.6781662846	 0.083684
H	 1.150737195	-2.0287565381	-2.9534571587	 0.140304
H	 4.7536802734	-2.938659833	-0.9893954189	 0.21221
H	-0.3288533547	-5.9482254909	-2.8718587596	 0.209245
39.2982	66.4989	117.2518	125.1487	197.5331	220.9661	234.5459	306.0026	329.1756	409.9766	435.1356	532.1098	559.0212	642.8418	648.1111	678.1475	683.7347	691.0232	907.3615	967.8849	1010.3913	1040.786	1082.7089	1140.8666	1149.7118	1220.8173	1322.6858	1327.9981	1414.1488	1449.7619	1480.51	1504.4146	1784.7991	2242.9136	2255.4303	2968.7503	2976.3937	2997.553	3062.001	3082.2054	3500.6603	3502.7009
CN=COC(C#C)C#C	CN=COC(C#C)C#C	
InChI=1S/C7H7NO/c1-4-7(5-2)9-6-8-3/h1-2,6-7H,3H3	InChI=1S/C7H7NO/c1-4-7(5-2)9-6-8-3/h1-2,6-7H,3H3
