17
gdb 108151	3.76267	1.35191	1.18941	1.0704	67.09	-0.218	0.0605	0.2785	1051.3393	0.136353	-458.901868	-458.894411	-458.893467	-458.934095	28.853	
O	 0.6107532641	 0.3009086553	-0.7429260949	-0.407551
C	-0.162051301	 0.2063641432	 0.4414087993	-0.197284
C	-1.497374304	-0.4393459275	 0.2007970124	 0.409973
O	-2.4561978864	-0.3871102948	 1.2608543654	-0.338821
C	-3.1093009405	-1.5748107827	 0.703400387	 0.0527
C	-4.2550908359	-1.0694229109	-0.1600412691	-0.074721
O	-3.6074252103	-0.2601096223	-1.1530373726	-0.266444
C	-2.2378021517	-0.5845441002	-1.1247348701	 0.027502
C	-1.9468889355	-1.7984682143	-0.2886290186	-0.254728
H	 0.2097142613	 0.97686585	-1.2985767932	 0.290608
H	 0.4260678891	-0.3884728717	 1.1481482765	 0.123717
H	-0.3359580442	 1.1884056109	 0.908091723	 0.110765
H	-3.3466291872	-2.3193091236	 1.4634899459	 0.091763
H	-4.8100928816	-1.8947284436	-0.63234417	 0.095178
H	-4.9476773555	-0.441363323	 0.4076146512	 0.121292
H	-1.7202966703	-0.4106623959	-2.0595299286	 0.10967
H	-1.4382367705	-2.7112988389	-0.5659415236	 0.106382
64.5212	172.0385	214.4139	266.399	336.8319	390.1613	442.9092	552.0799	647.6493	718.7082	752.5688	781.8508	841.6162	867.3111	903.1725	918.456	951.276	992.1942	1011.4602	1021.9684	1047.5119	1070.1706	1080.6372	1101.1266	1135.937	1192.4352	1213.8545	1225.6584	1258.8357	1275.9253	1299.6939	1367.5394	1387.7273	1412.9601	1444.6213	1500.511	1501.2241	2988.6183	2990.5222	3072.07	3090.0328	3119.3268	3199.1174	3208.476	3820.0966
OCC12OC3COC1C23	OC[C@@]12O[C@H]3CO[C@@H]1[C@@H]23	
InChI=1S/C6H8O3/c7-2-6-4-3(9-6)1-8-5(4)6/h3-5,7H,1-2H2	InChI=1S/C6H8O3/c7-2-6-4-3(9-6)1-8-5(4)6/h3-5,7H,1-2H2/t3-,4-,5+,6-/m0/s1
