14
gdb 12583	3.64565	2.00066	1.30311	5.8905	68.27	-0.2254	-0.0757	0.1498	890.3246	0.107406	-378.759632	-378.752012	-378.751068	-378.791621	27.361	
C	-0.0248467817	 1.5236404579	 0.0155320634	-0.495433
C	 0.0042168262	 0.0318661317	-0.0285741332	 0.152033
C	-0.0499732953	-0.7926075733	-1.0980731957	-0.105144
N	 0.0659941328	-2.1423031106	-0.7644195462	-0.359047
C	 0.103310865	-2.2774340832	 0.6245002616	 0.29844
N	 0.1159969232	-3.3155464765	 1.3509612375	-0.482783
C	 0.1215238932	-0.8263090184	 1.1595775107	 0.279782
O	 0.2171818877	-0.5097782829	 2.3224551527	-0.305758
H	 0.8938735665	 1.922907829	 0.459521843	 0.142114
H	-0.1363610651	 1.9528811488	-0.9841139944	 0.118254
H	-0.8524776998	 1.8808151969	 0.6379118401	 0.142531
H	-0.1432845159	-0.5214364638	-2.1422598327	 0.1387
H	-0.1999805658	-2.887816657	-1.3856741894	 0.258403
H	 0.096252739	-4.1734006286	 0.7925897826	 0.217908
97.9049	108.9125	233.5151	240.48	285.6758	322.3856	383.0389	531.7178	545.565	581.3399	710.1506	770.4448	818.2789	887.4543	921.2209	947.9398	1011.8211	1067.6917	1069.2463	1125.2209	1215.3362	1333.8553	1355.5602	1416.5038	1422.6189	1473.6582	1494.418	1679.4337	1751.6346	1808.7943	3032.408	3085.4179	3112.4482	3216.6304	3432.3589	3654.6395
CC1=CNC(=N)C1=O	CC1=CN[C]([NH])C1=O	
InChI=1S/C5H6N2O/c1-3-2-7-5(6)4(3)8/h2H,1H3,(H2,6,7,8)	InChI=1S/C5H6N2O/c1-3-2-7-5(6)4(3)8/h2H,1H3,(H2,6,7,8)
