16
gdb 55512	3.39234	0.99439	0.77928	4.1069	69.7	-0.2411	-0.0516	0.1895	1403.3386	0.123211	-471.27231	-471.262576	-471.261632	-471.308145	33.946	
C	-0.0359649268	 1.5062022658	-0.1866987741	-0.498232
C	 0.0450569962	 0.0398279644	 0.2129147962	 0.411439
O	 0.1429158465	-0.3384404697	 1.3526263646	-0.300902
N	-0.0142446859	-0.8129873589	-0.8914458922	-0.355164
C	 0.1050552452	-2.1893584987	-0.9413871175	 0.267091
N	 0.3260174564	-2.9332060712	 0.0676991649	-0.472722
C	-0.051739124	-2.6436718907	-2.4024170453	 0.376706
N	-0.2930075085	-3.9663374063	-2.5841869457	-0.532848
O	 0.050815942	-1.8466156794	-3.3188387885	-0.36685
H	 0.8132639998	 1.7820455297	-0.8210270645	 0.145637
H	-0.9518466928	 1.709457994	-0.7516315286	 0.141283
H	-0.024300832	 2.1141017398	 0.7169373549	 0.15356
H	-0.0817035942	-0.4027722811	-1.8150714832	 0.269182
H	 0.4350523617	-3.9054984152	-0.2161236601	 0.216308
H	-0.6240315367	-4.5424479132	-1.8295335077	 0.270274
H	-0.4742064268	-4.2743614895	-3.5262928333	 0.275235
51.6554	62.6594	86.9924	117.1449	147.5497	277.5773	337.4677	360.1986	397.4006	416.7476	541.3134	560.0842	585.2144	609.4935	652.6618	714.1422	807.6752	840.2348	878.9058	933.5153	1009.0426	1051.3373	1089.5164	1115.5696	1236.767	1283.4247	1377.3715	1387.4422	1470.0045	1482.3167	1550.2027	1613.449	1714.9059	1783.8018	1835.8188	3042.1505	3104.7184	3166.8313	3493.7789	3566.5625	3601.3553	3728.5222
CC(=O)NC(=N)C(N)=O	CC(=O)NC(=N)C(=O)N	
InChI=1S/C4H7N3O2/c1-2(8)7-3(5)4(6)9/h1H3,(H2,6,9)(H2,5,7,8)	InChI=1S/C4H7N3O2/c1-2(8)7-3(5)4(6)9/h1H3,(H2,6,9)(H2,5,7,8)
