17
gdb 43951	3.85638	1.48763	1.32045	3.4219	72.39	-0.2457	-0.0231	0.2226	978.7025	0.136887	-421.787997	-421.781258	-421.780314	-421.818929	27.677	
O	 0.1139027649	 0.0366757941	-0.3739590501	-0.288975
C	 0.0253441236	 1.1752780732	-0.0336759261	 0.39484
C	-1.1805762415	 2.0932457597	 0.3629645618	-0.446517
C	-0.1136239533	 3.0764834933	 0.8305810427	 0.42123
C	 0.2531776786	 4.5481554231	 0.9398101776	-0.319285
C	 1.7682078107	 4.2881794638	 1.3109491422	-0.212266
C	 1.7399468172	 2.7284874995	 1.3613549301	 0.049728
O	 0.478370834	 2.5158206083	 2.0619374637	-0.333125
C	 1.0363456908	 2.3631846407	 0.0520162099	-0.171352
H	-1.7103632358	 2.4208987214	-0.5393298631	 0.132013
H	-1.8913949449	 1.7193657381	 1.1015107055	 0.139055
H	 0.1282443211	 5.0927656095	 0.0009742834	 0.107935
H	-0.2874706916	 5.0715518854	 1.7306239727	 0.117519
H	 2.4627521705	 4.6857052922	 0.5659858433	 0.10573
H	 2.0322485081	 4.6950884704	 2.2891628018	 0.116649
H	 2.5963564912	 2.2051012471	 1.7871647659	 0.092376
H	 1.4257790365	 2.7079646001	-0.9096210611	 0.094446
122.5982	264.7905	270.3542	341.8027	450.362	469.4874	545.2455	593.4009	661.3958	715.1181	775.005	821.5495	841.3208	858.6466	869.5652	904.8225	930.0839	955.153	1006.2439	1016.1671	1034.8049	1055.1001	1111.4559	1146.3816	1159.0606	1179.7197	1216.7356	1229.8359	1255.3083	1269.9932	1289.9309	1311.6606	1325.7787	1438.7323	1475.6136	1499.6473	1903.2147	3050.5828	3065.5275	3074.3797	3081.934	3114.5054	3120.8558	3130.6455	3131.7558
O=C1CC23CCC(O2)C13	O=C1C[C@@]23CC[C@@H](O2)[C@@H]13	
InChI=1S/C7H8O2/c8-4-3-7-2-1-5(9-7)6(4)7/h5-6H,1-3H2	InChI=1S/C7H8O2/c8-4-3-7-2-1-5(9-7)6(4)7/h5-6H,1-3H2/t5-,6-,7-/m1/s1
