23
gdb 95974	2.61632	1.21077	1.07828	2.591	84.94	-0.2384	-0.008	0.2304	1277.6121	0.205503	-388.335429	-388.325457	-388.324513	-388.371109	36.563	
C	 0.1934926154	 1.5317791461	-0.372939373	-0.389856
C	-0.1288663599	 0.1318541498	 0.1676498403	-0.002459
C	-0.0751460048	-0.9462163118	-0.9334487363	-0.20407
C	 1.4246560698	-1.2746464602	-1.0950323073	-0.210667
C	 2.0613200235	-0.9977889168	 0.2950862265	-0.223387
C	 0.9357165714	-0.4123647686	 1.1788583952	-0.07717
C	 1.4005352385	 0.639411916	 2.1791900717	 0.376169
C	 0.4848720879	 0.8862145906	 3.3661315512	-0.480144
O	 2.4307450338	 1.2598225063	 2.0368283292	-0.311375
H	 1.1930884545	 1.5788153832	-0.8153368653	 0.131032
H	-0.5301043643	 1.8137813397	-1.1446018829	 0.110145
H	 0.1545852962	 2.2916195135	 0.4133495445	 0.118869
H	-1.119126478	 0.1593738375	 0.6359813326	 0.066482
H	-0.6190967124	-1.835939513	-0.5945528042	 0.092399
H	-0.5451592366	-0.6162127259	-1.8653585722	 0.091885
H	 1.5800687813	-2.3048273533	-1.4262828818	 0.095808
H	 1.8772914693	-0.6327232118	-1.8568281408	 0.104099
H	 2.4735102536	-1.9043844063	 0.746515792	 0.096632
H	 2.878786428	-0.2768511373	 0.2303802073	 0.127738
H	 0.4459189168	-1.215574038	 1.7437750138	 0.072967
H	-0.5492233423	 1.0392870533	 3.0385979115	 0.135983
H	 0.4819580157	 0.0033062356	 4.0166259253	 0.139781
H	 0.8306673825	 1.7510006113	 3.9336723127	 0.139141
41.3295	62.5594	116.9765	157.5882	167.4632	218.4121	245.2039	336.3533	373.2843	380.2005	557.992	591.9272	630.9866	653.2921	761.4962	805.7068	834.2609	898.5718	915.6886	919.8567	956.3427	996.2384	1004.5344	1017.6618	1040.3334	1050.168	1098.3419	1138.7167	1184.6657	1198.047	1217.7964	1244.9095	1276.5352	1296.0875	1310.8446	1330.6827	1348.438	1370.9403	1377.6255	1385.5678	1421.2699	1462.4601	1475.2822	1487.025	1491.8752	1500.6217	1505.0058	1517.7298	1802.5652	3017.8656	3027.4563	3033.2418	3038.2847	3044.9481	3052.8636	3065.4333	3078.0938	3092.2081	3093.0364	3104.1607	3111.684	3118.465	3150.2641
CC1CCCC1C(C)=O	C[C@H]1CCC[C@H]1C(=O)C	
InChI=1S/C8H14O/c1-6-4-3-5-8(6)7(2)9/h6,8H,3-5H2,1-2H3	InChI=1S/C8H14O/c1-6-4-3-5-8(6)7(2)9/h6,8H,3-5H2,1-2H3/t6-,8+/m0/s1
