17
gdb 35808	2.51796	1.73129	1.29549	1.7638	72.17	-0.2556	0.0319	0.2876	1004.8444	0.136405	-421.762872	-421.755115	-421.754171	-421.79588	29.278	
C	 0.0924351959	-0.9910074552	 0.641254272	-0.471036
C	 0.0765920195	 0.1524875743	 0.273060058	 0.391868
C	 0.0123390955	 1.5448897958	-0.1721779898	-0.159787
O	-0.8296621099	 2.3428917266	 0.6644444237	-0.241746
C	-0.0285625402	 2.8444056899	 1.731563901	-0.104938
C	 1.3228591199	 3.2011561906	 1.0925437873	-0.091834
C	 2.5735332004	 2.4269368761	 1.5570483144	-0.089352
O	 2.4945107663	 1.5322964307	 0.4249004742	-0.279136
C	 1.3950263261	 2.2692750703	-0.1360823382	 0.124364
H	 0.1155265876	-2.0033422316	 0.9614478692	 0.199449
H	-0.4294285447	 1.5876088258	-1.1730262681	 0.109668
H	-0.5579669754	 3.6996262083	 2.1571578264	 0.114703
H	 0.0948705506	 2.0814135708	 2.5146622515	 0.104278
H	 1.4471728757	 4.2697874596	 0.9206379429	 0.089266
H	 3.5047504628	 3.0050361359	 1.5441475673	 0.106136
H	 2.4904412879	 1.8937760323	 2.5117450318	 0.109586
H	 1.6508266022	 2.6988935199	-1.1094730736	 0.088509
41.5919	126.0668	157.4321	252.7104	341.4698	371.0915	493.2963	566.2637	626.3072	649.0314	674.4436	737.6183	772.0606	862.9749	886.6179	890.8644	938.0519	965.6946	1005.9231	1032.7805	1050.4177	1075.3621	1098.8497	1131.4512	1171.295	1207.0229	1246.8742	1258.7887	1290.6263	1320.9967	1337.4003	1346.9848	1367.8654	1386.736	1509.3471	1522.712	2235.8377	2996.5581	3020.4285	3050.5326	3066.1236	3066.2832	3100.0057	3121.0827	3503.0433
C#CC1OCC2COC12	C#C[C@H]1OC[C@H]2CO[C@@H]12	
InChI=1S/C7H8O2/c1-2-6-7-5(3-8-6)4-9-7/h1,5-7H,3-4H2	InChI=1S/C7H8O2/c1-2-6-7-5(3-8-6)4-9-7/h1,5-7H,3-4H2/t5-,6+,7+/m0/s1
