13
gdb 129437	4.08755	1.28762	0.97917	3.9298	66.67	-0.2478	-0.0963	0.1516	1094.5792	0.091218	-448.968078	-448.96078	-448.959836	-449.000238	26.646	
N	-0.0656354284	 1.3296274933	 0.0084250678	-0.536813
C	 0.0593219994	-0.0162883194	 0.0033244215	 0.3553
O	 1.1106839743	-0.6293608616	-0.0071873855	-0.348422
C	-1.2630900115	-0.750506172	 0.0112116943	 0.229633
C	-1.2866535024	-2.1479899098	 0.0070849899	 0.007738
N	-2.4317803082	-2.8244227444	 0.0138101927	-0.175437
N	-3.5738627721	-2.1377483579	 0.0246974956	-0.173569
C	-3.5083510131	-0.8074418622	 0.0282739266	 0.099012
N	-2.3985291702	-0.0619338067	 0.0220578175	-0.318269
H	 0.7628280698	 1.8998456297	 0.0029802482	 0.271962
H	-0.9819349926	 1.7473696052	 0.0163733577	 0.279978
H	-0.3662338081	-2.7193821474	-0.0017335789	 0.164238
H	-4.4613606767	-0.2868632968	 0.0372687126	 0.144649
77.3281	147.3952	209.6644	310.8787	363.053	371.2027	435.8214	495.8424	613.3028	628.3805	685.9535	753.2627	818.9957	843.2915	967.794	1008.6049	1029.1651	1068.9654	1098.4082	1157.427	1193.8392	1278.8093	1321.669	1392.5176	1474.7732	1560.397	1590.5482	1602.5641	1798.3904	3187.5038	3219.6593	3596.5689	3738.1689
NC(=O)C1=CN=NC=N1	NC(=O)c1cnncn1	
InChI=1S/C4H4N4O/c5-4(9)3-1-7-8-2-6-3/h1-2H,(H2,5,9)	InChI=1S/C4H4N4O/c5-4(9)3-1-7-8-2-6-3/h1-2H,(H2,5,9)
