17
gdb 124723	1.93266	1.22665	0.75685	1.6178	79.83	-0.2491	-0.0956	0.1535	1472.9341	0.131314	-455.124969	-455.11413	-455.113185	-455.161791	36.611	
C	-0.4755667131	 2.151006667	 0.4713106584	-0.452429
C	-0.6026887298	 0.6761859299	 0.293542777	-0.145496
N	 1.8057852995	-1.6646919972	 0.5301606965	-0.726736
H	 2.1594615802	-2.0754387327	 1.3899399243	 0.233493
H	 0.9424100003	-2.1590780918	 0.3057237599	 0.271105
H	 2.4755823528	-1.9099421404	-0.1938873863	 0.233459
C	-1.7383473517	 0.0294703851	-0.0006045037	 0.31484
C	-1.9685120203	-1.416578382	-0.1965826979	 0.221488
O	-1.1913592014	-2.3519794854	-0.1387017051	-0.338265
C	-3.4166314084	-1.4348102063	-0.4873239403	-0.065088
N	-3.9356866855	-0.2565945488	-0.46868474	-0.060878
O	-2.9447305242	 0.6793227244	-0.1739231344	-0.265029
H	-0.082640407	 2.3763058312	 1.4705551402	 0.148678
H	 0.2566607925	 2.5528957349	-0.2400027896	 0.148736
H	-1.4242264834	 2.6723550864	 0.3369487339	 0.148985
H	 0.2914925099	 0.0605469873	 0.4075056282	 0.17873
H	-4.0315545505	-2.2979953217	-0.6995279312	 0.154408
45.6874	106.2536	121.4462	128.5579	137.5268	159.9393	179.1051	190.5282	245.0312	352.9488	368.5216	379.8956	571.7876	593.5934	632.2426	757.4541	770.7419	858.9409	883.9487	923.5634	933.8391	1005.7067	1040.392	1077.9287	1126.6817	1147.5541	1241.037	1271.1478	1377.2677	1403.6232	1476.65	1478.0753	1595.4152	1673.355	1702.5447	1711.2266	1785.0924	3026.4855	3071.5487	3108.0643	3144.8875	3246.4337	3445.1351	3559.2712	3583.1383
CC([NH3+])C1=C([O-])C=NO1	CC=C1C(=O)C=NO1.N	
InChI=1S/C5H8N2O2/c1-3(6)5-4(8)2-7-9-5/h2-3,8H,6H2,1H3	InChI=1S/C5H5NO2.H3N/c1-2-5-4(7)3-6-8-5;/h2-3H,1H3;1H3
