19
gdb 90872	3.41724	1.59295	1.36017	1.5129	74.01	-0.2456	0.0897	0.3353	999.7916	0.160862	-423.001139	-422.993935	-422.992991	-423.032455	29.469	
C	-0.7037415991	 1.3793628387	 0.0828407233	-0.403205
C	 0.1201287912	 0.114822573	-0.0081135271	 0.2284
O	 0.8755511947	 0.1470302603	-1.2065356002	-0.264958
C	 1.6147488085	-1.0364834281	-1.3822544934	 0.099658
C	 3.0573334011	-1.1052796237	-0.9716735599	-0.094961
C	 3.2969833316	-0.1359117493	 0.1833819373	-0.249418
C	 2.0923973537	-0.7861729055	 0.9494187706	 0.113779
O	 0.9553902465	 0.0425930244	 1.1342160559	-0.283771
C	 1.9653138324	-1.8372303168	-0.1665851473	-0.160945
H	-0.0439369314	 2.2498140167	 0.0504046443	 0.131874
H	-1.4068865091	 1.4308407731	-0.7518569815	 0.122536
H	-1.2593786614	 1.3910766933	 1.023360322	 0.127553
H	-0.5219541682	-0.7822074591	-0.0308912879	 0.062836
H	 1.3402825584	-1.5848386914	-2.2796640378	 0.09515
H	 3.809924135	-1.5293619774	-1.6246092373	 0.088348
H	 4.2421766502	-0.3200124746	 0.6992945526	 0.101268
H	 3.1960819608	 0.928996882	-0.0378284672	 0.108933
H	 2.3620438129	-1.1741550273	 1.932399789	 0.088375
H	 1.7457599021	-2.891255498	-0.0520034354	 0.088547
132.5855	200.8461	232.9239	305.4664	373.0194	466.1661	475.4179	535.662	589.9795	708.7507	755.5252	785.4599	807.9927	840.3492	869.1026	911.9886	948.0669	957.3763	1002.131	1012.2543	1022.5693	1046.1473	1077.1931	1101.9546	1120.0026	1134.9406	1156.914	1177.5896	1211.4207	1223.1012	1253.4669	1297.0484	1332.228	1368.0205	1387.3715	1393.6919	1417.3813	1431.6142	1477.3875	1482.76	1489.1155	2952.4521	3056.481	3065.245	3100.082	3123.7854	3137.9872	3139.1416	3142.88	3183.5287	3195.8629
CC1OC2C3CC(O1)C23	C[C@H]1O[C@H]2[C@H]3C[C@@H](O1)[C@@H]23	
InChI=1S/C7H10O2/c1-3-8-5-2-4-6(5)7(4)9-3/h3-7H,2H2,1H3	InChI=1S/C7H10O2/c1-3-8-5-2-4-6(5)7(4)9-3/h3-7H,2H2,1H3/t3-,4+,5-,6+,7+/m1/s1
