16
gdb 53745	4.88457	0.66031	0.61361	2.6935	77.12	-0.2566	-0.0227	0.2339	1770.1926	0.123118	-437.861985	-437.852345	-437.851401	-437.899361	32.129	
N	 0.5611505995	 0.3015024643	 1.0530951522	-0.520826
C	-0.06733482	 0.4199938915	-0.1515085286	 0.26376
O	 0.3302135991	 1.1335419591	-1.0521035626	-0.334335
C	-1.2683823442	-0.3956259648	-0.2671075173	 0.053342
C	-2.2684763228	-1.0542971403	-0.4107981209	 0.072923
C	-3.4717283416	-1.8442803241	-0.5986234117	-0.037598
C	-3.4717131365	-2.8909065572	-1.7484999339	-0.285262
C	-3.7462814457	-3.9098474088	-0.6262938225	-0.060456
O	-3.6450054164	-2.8884168543	 0.392288198	-0.279212
H	 1.3931541674	 0.8449900359	 1.2138834658	 0.267236
H	 0.1959220629	-0.2823272857	 1.7849362829	 0.27051
H	-4.3436486912	-1.1761119104	-0.6141734954	 0.112911
H	-4.2583613803	-2.7603046455	-2.4915342947	 0.122848
H	-2.5091617322	-2.9996698174	-2.2472247181	 0.132285
H	-4.742381182	-4.3679492864	-0.6419291091	 0.108191
H	-2.9940187659	-4.694553816	-0.4906228541	 0.113681
20.8606	51.0476	76.7024	87.8446	114.2338	199.2757	254.7497	379.7549	492.8785	551.8818	566.9639	602.567	694.5673	771.4865	784.8562	821.2097	904.6892	945.697	1000.4256	1020.5797	1085.7797	1089.1142	1123.6545	1163.4654	1214.3291	1254.2178	1258.5852	1347.1702	1352.8864	1362.3629	1489.6114	1531.1431	1608.1577	1774.4395	2339.6309	3008.4091	3026.1975	3069.2468	3096.6639	3157.0091	3602.8824	3745.2591
NC(=O)C#CC1CCO1	NC(=O)C#C[C@H]1CCO1	
InChI=1S/C6H7NO2/c7-6(8)2-1-5-3-4-9-5/h5H,3-4H2,(H2,7,8)	InChI=1S/C6H7NO2/c7-6(8)2-1-5-3-4-9-5/h5H,3-4H2,(H2,7,8)/t5-/m0/s1
