18
gdb 95488	2.26066	1.69382	1.0904	3.6527	74.24	-0.248	-0.0442	0.2038	1120.635	0.148566	-439.109362	-439.101029	-439.100085	-439.142208	31.555	
C	-0.130434102	 1.4755498695	 0.0018767579	-0.404168
C	 0.0186196175	-0.0366836784	-0.0581141226	 0.127325
C	 0.8733342304	-0.5023414467	-1.2556462324	-0.186689
N	 1.4338622644	-1.8496114975	-1.085512845	-0.313113
C	 0.4931358981	-2.799129341	-0.5720882565	-0.050746
C	 0.0342561567	-2.7663607452	 0.6817710993	-0.191137
C	 0.4446911335	-1.7184914433	 1.6594016992	 0.385487
O	 0.6469707957	-1.951210521	 2.8217943111	-0.331183
O	 0.6167681263	-0.4477056565	 1.1918429017	-0.243491
H	 0.8440537488	 1.9513150158	 0.1465802879	 0.133004
H	-0.5626669004	 1.8485537388	-0.9320775343	 0.12235
H	-0.7828155056	 1.7687691735	 0.8277255263	 0.134663
H	-0.9706862512	-0.5008333226	-0.1269784395	 0.096859
H	 0.2527177057	-0.4675072289	-2.1594152537	 0.11659
H	 1.7145972605	 0.1807735815	-1.4114406539	 0.115156
H	 2.1961035844	-1.7704735216	-0.419422773	 0.245272
H	 0.1793727073	-3.5787424619	-1.2636607277	 0.118869
H	-0.59479407	-3.5559611544	 1.0783636053	 0.12495
94.6761	156.2228	197.9544	224.2551	251.9838	281.4302	372.269	416.0486	446.8922	529.001	596.6018	696.7988	734.0668	804.1963	813.1039	860.182	896.6004	911.9212	968.5398	976.6348	1027.679	1078.0481	1116.3205	1156.5629	1164.0959	1221.0227	1245.3965	1289.4859	1335.594	1383.9716	1394.814	1402.8986	1411.5325	1471.0291	1481.9812	1487.9029	1500.274	1675.7899	1823.6413	3032.7722	3044.7536	3049.6754	3086.9155	3117.0829	3128.6103	3145.3325	3197.8031	3512.4117
CC1CNC=CC(=O)O1	C[C@H]1CNC=CC(=O)O1	
InChI=1S/C6H9NO2/c1-5-4-7-3-2-6(8)9-5/h2-3,5,7H,4H2,1H3	InChI=1S/C6H9NO2/c1-5-4-7-3-2-6(8)9-5/h2-3,5,7H,4H2,1H3/t5-/m0/s1
