20
gdb 113496	3.3948	0.97533	0.87573	3.6504	81.49	-0.244	0.0357	0.2797	1404.9062	0.170435	-403.163338	-403.153875	-403.152931	-403.198303	34.262	
C	-0.2852567366	 1.5202132152	 0.1365078461	-0.371828
C	 0.2199477953	 0.0908657206	-0.0927389569	-0.20111
C	 0.8750319458	-0.5011613442	 1.1384075191	-0.048091
C	 0.0478452799	-1.1907400621	 2.1933885081	-0.347465
C	 0.976469546	-1.9899803382	 1.3229118051	 0.162511
C	 0.6939974595	-3.1465623091	 0.345175875	-0.241134
N	 1.8977722585	-3.7811809657	 0.9006639111	-0.34927
C	 2.2077852084	-2.758385894	 1.7736082454	 0.395443
O	 3.1065395385	-2.5814914711	 2.5531739314	-0.376428
H	 0.5369960443	 2.1876711434	 0.4155795021	 0.119596
H	-0.7515701209	 1.9243842811	-0.767225712	 0.11251
H	-1.0252141755	 1.5513358303	 0.9427691887	 0.120305
H	-0.6162261175	-0.5490031245	-0.4027632676	 0.09384
H	 0.935159313	 0.0845904532	-0.9255043653	 0.101944
H	 1.738082944	 0.0499762759	 1.5068653212	 0.104519
H	 0.3235335076	-1.0766932769	 3.2364883168	 0.132092
H	-1.0180022362	-1.2943068017	 2.0111267366	 0.114221
H	-0.2294796644	-3.706567655	 0.5256711577	 0.113503
H	 0.771339734	-2.8921423576	-0.7175069428	 0.114006
H	 2.3975469563	-4.6174659298	 0.6416202403	 0.250837
61.69	79.1339	113.5217	143.7386	201.8581	239.8768	263.185	327.8636	407.6961	450.1889	560.8221	629.3505	725.9727	775.1691	791.5969	822.3648	872.4374	917.5665	941.4174	972.7006	991.8507	1041.8618	1059.7004	1081.039	1107.3447	1127.6924	1152.1269	1154.7705	1185.512	1198.7901	1285.8136	1297.5599	1324.379	1359.0495	1387.4548	1410.9974	1434.9787	1485.1926	1494.5517	1497.8272	1507.8358	1525.2577	1889.3025	3016.4952	3033.1095	3034.4577	3048.1537	3078.2796	3103.2661	3107.4875	3121.5297	3131.5785	3211.0184	3627.9933
CCC1CC11CNC1=O	CC[C@H]1C[C@]21CNC2=O	
InChI=1S/C7H11NO/c1-2-5-3-7(5)4-8-6(7)9/h5H,2-4H2,1H3,(H,8,9)	InChI=1S/C7H11NO/c1-2-5-3-7(5)4-8-6(7)9/h5H,2-4H2,1H3,(H,8,9)/t5-,7+/m0/s1
