18
gdb 44635	2.85232	1.70411	1.48335	2.8107	74.58	-0.2128	-0.0335	0.1793	950.2184	0.148824	-401.894206	-401.887093	-401.886148	-401.92613	28.34	
O	 0.1948078578	 0.0193069844	-0.499633607	-0.29362
C	 0.077342545	 1.1751421654	-0.2116776049	 0.397843
C	-1.1280767148	 2.0710176849	 0.1415201737	-0.371653
C	-0.14051866	 3.2380891303	 0.4053330578	-0.062243
C	 0.5477784067	 3.3140393466	 1.7953110047	 0.035397
C	 0.2413825174	 2.2939481245	 2.9206138634	-0.263944
C	 1.4129837348	 1.4395950027	 2.3516123176	-0.179782
N	 1.7156571765	 2.4871411236	 1.3149793098	-0.135217
C	 1.0742874822	 2.3430751904	-0.0402706242	-0.110697
H	-1.7486480884	 2.2437495503	-0.7450195907	 0.137063
H	-1.7824487057	 1.7285782849	 0.9474133	 0.130536
H	-0.3779223079	 4.1890486854	-0.0685830257	 0.08043
H	 0.783982619	 4.3317222567	 2.1214231803	 0.079547
H	 0.4136912576	 2.6857041627	 3.9249895189	 0.111649
H	-0.7458083117	 1.8275031015	 2.9032548799	 0.109909
H	 2.2580090054	 1.3083626638	 3.0333300333	 0.109825
H	 1.1433090866	 0.4598011846	 1.9494562162	 0.13
H	 1.7525355394	 2.5447953874	-0.873432783	 0.094956
52.0558	158.7698	264.5762	356.2146	421.6415	437.5519	526.5872	595.4804	681.1972	740.333	757.6843	787.4273	836.6042	854.1804	876.0334	920.8364	935.7456	967.0298	1005.8175	1042.712	1060.03	1067.333	1087.3302	1134.2316	1151.3944	1177.9458	1205.3174	1216.3058	1226.18	1236.6215	1247.9767	1259.1627	1309.1113	1310.062	1348.9345	1432.3219	1486.3393	1516.3579	1877.8278	3047.9452	3051.0248	3054.471	3073.2161	3074.6415	3100.2272	3105.0079	3124.0892	3126.2647
O=C1CC2C3CCN3C12	O=C1C[C@H]2[C@H]3CCN3[C@@H]12	
InChI=1S/C7H9NO/c9-6-3-4-5-1-2-8(5)7(4)6/h4-5,7H,1-3H2	InChI=1S/C7H9NO/c9-6-3-4-5-1-2-8(5)7(4)6/h4-5,7H,1-3H2/t4-,5+,7+/m0/s1
