13
gdb 131274	7.19262	0.87416	0.78195	4.3549	63.11	-0.241	0.0006	0.2416	1342.6647	0.090641	-486.085078	-486.077284	-486.07634	-486.118201	27.665	
O	 0.1795959422	 1.2549530563	 0.1335080195	-0.413566
C	 0.0781381845	-0.0670237496	 0.0058729773	 0.480107
N	 0.1192889202	-0.7639718775	-1.1103058655	-0.423475
C	-0.0354929638	-2.0317731268	-0.6429989652	 0.462062
O	-0.0575904727	-3.0494542337	-1.5252037957	-0.204572
C	 0.1005581938	-4.3227431356	-1.0476520264	 0.117116
N	-0.0962993565	-5.2805603992	-1.8380580942	-0.422903
N	-0.1731343085	-2.1726444573	 0.6600805377	-0.323058
N	-0.0832063514	-0.8615446031	 1.0739821677	-0.264829
H	 0.2894724656	 1.6175081091	-0.7553143833	 0.326968
H	 0.4040547632	-4.3529822524	 0.0004941165	 0.138469
H	 0.0869478476	-6.1619908231	-1.3619703031	 0.237573
H	-0.1683888842	-0.620673927	 2.0463933146	 0.29011
60.6776	84.7789	177.047	252.8181	352.8162	369.2614	419.9552	464.4892	469.1727	553.9563	719.2758	741.4614	772.8907	827.8093	849.503	1001.4615	1056.021	1069.3964	1103.056	1156.0108	1196.9962	1270.6337	1339.3669	1406.1966	1421.7157	1524.056	1603.9074	1652.1599	1751.2257	3117.996	3516.2946	3684.1082	3800.1542
OC1=NC(OC=N)=NN1	Oc1nc(O[CH][NH])n[nH]1	
InChI=1S/C3H4N4O2/c4-1-9-3-5-2(8)6-7-3/h1,4H,(H2,5,6,7,8)	InChI=1S/C3H4N4O2/c4-1-9-3-5-2(8)6-7-3/h1,4H,(H2,5,6,7,8)
