14
gdb 132610	3.07738	1.30491	0.91715	3.5182	69.17	-0.2057	-0.0052	0.2005	1150.1003	0.100746	-485.995405	-485.987959	-485.987015	-486.027144	29.055	
N	-0.0122049598	 1.4144402514	 0.1635056285	-0.59336
C	 0.0016399333	 0.0214129343	 0.0560019384	 0.345168
C	-1.1929280062	-0.7103346636	 0.0377942742	-0.187811
C	-1.1732268986	-2.100961022	-0.0047441297	-0.223539
C	 0.0323743942	-2.7814661953	-0.0311598131	 0.12931
F	 0.0721402591	-4.1172211774	-0.0752990316	-0.068352
C	 1.2219571652	-2.0592842212	-0.014624837	 0.191739
F	 2.3813926701	-2.7181284524	-0.0437895574	-0.066138
C	 1.2176221428	-0.6758247134	 0.0280749405	-0.337684
H	 0.809845755	 1.8748035015	-0.1994516755	 0.248975
H	-0.8554817084	 1.8521175516	-0.1782533811	 0.24855
H	-2.1434061327	-0.1877731082	 0.061640078	 0.091948
H	-2.094177534	-2.6722430807	-0.0206774693	 0.116203
H	 2.1679380399	-0.1538764944	 0.044123395	 0.10499
150.0552	233.5178	277.7168	283.2495	324.5344	367.0214	445.6196	462.7599	511.2615	593.2041	597.5815	645.3676	693.3202	750.9918	796.3497	819.7066	854.9449	919.7421	972.297	1101.4524	1146.5083	1201.9748	1240.6382	1293.304	1348.3443	1365.6649	1491.3257	1561.3016	1640.4836	1655.0917	1673.5752	3179.9509	3192.4184	3204.7782	3564.3462	3661.8843
NC1=CC=C(F)C(F)=C1	Nc1ccc(F)c(F)c1	
InChI=1S/C6H5F2N/c7-5-2-1-4(9)3-6(5)8/h1-3H,9H2	InChI=1S/C6H5F2N/c7-5-2-1-4(9)3-6(5)8/h1-3H,9H2
