16
gdb 15686	3.28669	1.76149	1.2598	2.829	60.58	-0.2724	0.0022	0.2746	963.5092	0.130476	-420.919374	-420.911544	-420.9106	-420.952236	27.455	
C	 0.0921469203	 1.5337506233	 0.0682022188	-0.391159
C	 0.1023923082	 0.0057679191	 0.0002736203	-0.186737
C	 0.5966738687	-0.5147662992	-1.3544541882	-0.041893
O	 1.9446666283	-0.1556065137	-1.6435416416	-0.257596
C	 2.7460963669	-1.291686989	-1.426837709	 0.027278
O	 1.9026804061	-2.4365944837	-1.5019164349	-0.217811
C	 0.6044767662	-2.0390637777	-1.4104410707	 0.426104
O	-0.3194339	-2.7944334892	-1.3697376498	-0.335168
H	 1.0920575041	 1.9359789542	-0.1165355333	 0.134073
H	-0.5844759263	 1.957147643	-0.6821381494	 0.120442
H	-0.2396698347	 1.8786471114	 1.0514777901	 0.120049
H	 0.7379049342	-0.4051185975	 0.7948490815	 0.105116
H	-0.9023053473	-0.4018958943	 0.1590026202	 0.12854
H	-0.0374062247	-0.1251060154	-2.1589241972	 0.121087
H	 3.5057279454	-1.3552024619	-2.2114651026	 0.133793
H	 3.2234355945	-1.2754087294	-0.4357169342	 0.113884
71.6892	106.1746	161.5368	176.737	229.1715	308.5566	407.8161	531.0919	656.5056	700.2849	751.5954	774.9299	878.7774	921.1003	965.4947	1015.828	1057.8323	1094.4556	1117.2068	1139.0854	1150.263	1217.5829	1228.1609	1285.5138	1288.8826	1353.5812	1387.2727	1410.1707	1445.4652	1479.115	1496.494	1507.764	1550.6881	1898.0212	2993.8701	3029.5986	3039.235	3051.3284	3077.4653	3085.5295	3108.412	3122.256
CCC1OCOC1=O	CC[C@H]1OCOC1=O	
InChI=1S/C5H8O3/c1-2-4-5(6)8-3-7-4/h4H,2-3H2,1H3	InChI=1S/C5H8O3/c1-2-4-5(6)8-3-7-4/h4H,2-3H2,1H3/t4-/m1/s1
