16
gdb 80730	3.31016	1.10157	1.025	3.7917	68.1	-0.2568	0.0248	0.2817	1179.5026	0.123911	-437.844704	-437.8366	-437.835656	-437.877925	30.114	
O	-0.0501928725	 1.2600834214	-0.3822252824	-0.429058
C	-0.3593157862	-0.0990217315	-0.3234689007	 0.123851
C	-0.3828168804	-0.8392219381	 0.9626226537	 0.013285
O	-0.8219810969	 0.058617098	 1.9983191564	-0.319456
C	-2.1528854414	 0.1057428649	 1.4040718152	 0.126325
C	-2.6974744987	 1.53432227	 1.2688962031	-0.373941
C	-4.0695436151	 1.523421094	 0.7711955831	 0.25697
N	-5.1544435039	 1.4842142682	 0.3754317666	-0.303396
C	-1.682348883	-0.6627057616	 0.1762914772	-0.193764
H	 0.2021216813	 1.5208226981	 0.5132271285	 0.297575
H	 0.0367220611	-0.6514027275	-1.171812071	 0.119344
H	 0.2064794138	-1.6981626161	 1.2615010039	 0.116136
H	-2.8323772972	-0.494188642	 2.0197671127	 0.114429
H	-2.6766327891	 2.019990584	 2.2515293191	 0.159295
H	-2.0675271047	 2.1086716242	 0.5855403976	 0.174088
H	-2.2741631769	-1.3715648959	-0.3859436032	 0.118316
58.3297	116.9573	178.177	219.2295	308.6088	359.0713	399.8749	415.8026	480.4688	600.3421	666.3508	737.3704	758.7132	811.2263	916.5039	929.6223	949.9774	985.1787	1010.4629	1022.9434	1050.732	1059.9452	1073.1793	1117.3805	1194.1745	1212.0163	1252.518	1287.1997	1313.2652	1323.0382	1367.5229	1400.3092	1447.643	1470.6465	2363.8914	3044.6418	3050.7119	3116.9302	3152.3361	3184.3297	3214.8773	3768.0326
OC1C2OC(CC#N)C12	O[C@H]1[C@H]2O[C@@H](CC#N)[C@@H]12	
InChI=1S/C6H7NO2/c7-2-1-3-4-5(8)6(4)9-3/h3-6,8H,1H2	InChI=1S/C6H7NO2/c7-2-1-3-4-5(8)6(4)9-3/h3-6,8H,1H2/t3-,4-,5+,6-/m0/s1
