23
gdb 122284	4.69478	0.75544	0.73786	0.9542	87.43	-0.2461	0.0923	0.3385	1683.2565	0.205742	-388.243732	-388.234489	-388.233545	-388.278628	34.937	
C	-0.054989919	 1.4722441267	-0.0560083901	-0.382709
C	 0.0328089266	-0.0523716769	 0.0462192414	-0.183587
C	 0.7747565303	-0.5077225893	 1.2947077912	-0.06857
O	 0.8077296	-1.9274446162	 1.3075434921	-0.299346
C	 1.4537853682	-2.4771522433	 2.3897126921	 0.453726
C	 1.086486506	-2.3648826293	 3.9088342334	-0.280797
C	 2.3057920382	-3.3250280623	 3.8129055393	-0.051596
C	 1.6059722464	-3.999825567	 2.5963194872	-0.27222
C	 2.9549254111	-2.3267950146	 2.8129384302	-0.280794
H	 0.9405209533	 1.9285115218	-0.09262382	 0.116107
H	-0.5914456453	 1.775234336	-0.9596738279	 0.117322
H	-0.5835123099	 1.9007851402	 0.8028163841	 0.11611
H	-0.9710626455	-0.4921067677	 0.0581845045	 0.107162
H	 0.5432577477	-0.4645751946	-0.8317330169	 0.107153
H	 1.8000353183	-0.1047629002	 1.3010369867	 0.091156
H	 0.2710594439	-0.1321078634	 2.1996092984	 0.091107
H	 1.2618164701	-1.4026902211	 4.3973596396	 0.087747
H	 0.1348597292	-2.8084812331	 4.2137207676	 0.090736
H	 2.8013503979	-3.8264582988	 4.6403137782	 0.079995
H	 0.6886516582	-4.5572155182	 2.8032618455	 0.09141
H	 2.2506924491	-4.525419111	 1.8870372499	 0.091395
H	 3.698517747	-2.735797875	 2.1236436921	 0.090731
H	 3.2664420882	-1.3618252028	 3.2216067015	 0.087763
60.2082	63.0646	110.7958	138.5305	234.2024	278.298	330.5383	380.2698	453.4905	553.786	554.2873	689.765	764.9935	774.1732	801.6158	887.6077	902.9189	909.8557	941.8515	957.0356	963.0301	972.3868	985.7141	1044.8538	1081.434	1092.073	1099.3678	1131.1782	1132.6021	1141.7148	1160.5307	1187.3358	1191.4714	1227.8192	1230.4445	1240.8267	1268.8602	1310.5563	1317.5604	1338.5421	1415.1504	1435.738	1492.5407	1493.3509	1497.3507	1501.6213	1507.4746	1525.4108	1557.1103	2969.6935	3000.2598	3031.8623	3039.5667	3047.1368	3049.6014	3057.8067	3072.2962	3099.9605	3108.4334	3113.8774	3119.3414	3121.0214	3148.237
CCCOC12CC(C1)C2	CCCO[C@@]12C[C@@H](C1)C2	
InChI=1S/C8H14O/c1-2-3-9-8-4-7(5-8)6-8/h7H,2-6H2,1H3	InChI=1S/C8H14O/c1-2-3-9-8-4-7(5-8)6-8/h7H,2-6H2,1H3/t7-,8-
