21
gdb 92625	3.46887	1.23798	1.06895	2.02	77.67	-0.2492	0.0758	0.325	1199.5512	0.184921	-424.244625	-424.236519	-424.235575	-424.278097	31.209	
C	 0.1118343253	 1.6044182709	 0.0390979364	-0.40806
C	 0.1392274182	 0.0879121805	-0.0238100897	 0.163044
C	 0.8694896188	-0.5204083501	-1.2470337918	-0.277047
C	 1.545937031	-1.7854419915	-0.6796136192	-0.023327
C	 3.0840830926	-1.7725096045	-0.61974558	-0.093975
O	 3.4218422523	-2.5146664575	 0.5395017632	-0.249652
C	 2.4793164371	-2.1684963144	 1.5505921145	-0.102187
C	 1.1834014723	-1.7612616573	 0.8279487012	 0.083156
O	 0.8468086798	-0.4110217167	 1.1096312089	-0.275122
H	 1.1308066028	 2.0038091864	 0.0247251007	 0.121904
H	-0.4349629897	 2.0123616377	-0.816657954	 0.116183
H	-0.379358083	 1.9446958448	 0.9548784945	 0.126296
H	-0.8947332008	-0.2987123148	 0.0007696003	 0.062632
H	 0.1763038326	-0.7384491515	-2.0630438518	 0.102908
H	 1.6158454332	 0.1844198803	-1.630126682	 0.101923
H	 1.1999434435	-2.7031858346	-1.1599188805	 0.077524
H	 3.5698355105	-2.2483351521	-1.4757089539	 0.108052
H	 3.449171141	-0.7342583172	-0.5441785379	 0.087091
H	 2.362390708	-3.0369700869	 2.2041327544	 0.105529
H	 2.826919252	-1.3139579384	 2.1486982887	 0.105341
H	 0.3373166925	-2.4200887733	 1.0690337681	 0.067787
33.1173	121.845	210.6532	228.1473	286.8066	357.1968	406.8757	457.2961	543.371	632.5526	690.7761	708.2518	828.4072	856.2624	890.8397	914.0574	933.9704	962.3105	1003.3791	1006.7971	1057.4465	1062.5659	1086.4389	1115.0953	1135.4415	1150.9344	1167.1031	1219.4924	1235.8646	1251.8425	1285.1351	1292.6987	1304.0936	1330.2941	1337.8272	1365.1399	1382.4847	1397.1871	1404.5838	1421.2251	1484.079	1493.4084	1499.0551	1502.2615	1516.9346	2943.3087	2962.5091	2999.0605	3007.2163	3039.9298	3045.5045	3078.2116	3091.224	3094.4771	3104.513	3114.3135	3119.1592
CC1CC2COCC2O1	C[C@H]1C[C@H]2COC[C@H]2O1	
InChI=1S/C7H12O2/c1-5-2-6-3-8-4-7(6)9-5/h5-7H,2-4H2,1H3	InChI=1S/C7H12O2/c1-5-2-6-3-8-4-7(6)9-5/h5-7H,2-4H2,1H3/t5-,6-,7+/m0/s1
