19
gdb 104837	1.90842	1.53436	1.29019	1.8828	71.22	-0.2481	-0.0328	0.2153	1114.9263	0.157524	-460.161308	-460.151703	-460.150758	-460.195942	35.035	
O	 0.7325157547	 0.1833485079	 0.8716987688	-0.427848
C	-0.0769790059	 0.2970171516	-0.2935502561	-0.135748
C	-1.4091259112	-0.4560200912	-0.1732537058	 0.156262
C	-2.3237121343	-0.1412926643	-1.3674450006	-0.126041
O	-2.6709680632	 1.2287201534	-1.4029898354	-0.42261
C	-1.2664243496	-1.9510588546	 0.2685841559	-0.292505
C	-1.795773007	-1.6001949478	 1.6951579771	-0.326974
C	-2.1336922911	-0.2107067334	 1.1623692407	 0.372237
O	-2.8155346687	 0.7048600828	 1.5466504517	-0.332208
H	 0.4837255993	 0.888506972	 1.4767999816	 0.294666
H	-0.2810598601	 1.3427528608	-0.5484702377	 0.122852
H	 0.5000746739	-0.1435855137	-1.1155362334	 0.115281
H	-1.8101595438	-0.3636835967	-2.3109213794	 0.111145
H	-3.2168544997	-0.7855877312	-1.3240473348	 0.089162
H	-3.047234329	 1.4448356308	-0.5383677176	 0.297309
H	-1.9278588956	-2.6237550554	-0.2824749685	 0.109873
H	-0.2484334824	-2.3394389354	 0.2400346691	 0.122444
H	-2.6287075546	-2.1761644404	 2.1058656611	 0.128855
H	-0.9938395516	-1.5500221853	 2.4382641333	 0.143849
65.8827	96.3766	137.0054	145.2161	221.0025	249.3996	280.3299	293.8672	395.0634	444.0933	494.7505	517.9391	568.8522	691.8601	715.2946	750.5898	861.8384	913.5094	932.9563	947.7626	1046.4492	1066.1319	1067.1877	1079.8451	1100.3645	1166.165	1186.334	1203.2681	1224.9469	1240.3584	1263.8758	1296.8454	1378.802	1392.8821	1399.4209	1423.7872	1444.9186	1480.7536	1500.3051	1510.0469	1850.4133	2969.5212	3028.683	3049.6973	3060.764	3075.6593	3080.9673	3117.2241	3141.3798	3745.3545	3829.2651
OCC1(CO)CCC1=O	OCC1(CO)CCC1=O	
InChI=1S/C6H10O3/c7-3-6(4-8)2-1-5(6)9/h7-8H,1-4H2	InChI=1S/C6H10O3/c7-3-6(4-8)2-1-5(6)9/h7-8H,1-4H2
