19
gdb 82977	2.54394	1.98371	1.63372	1.847	73.57	-0.2428	0.0727	0.3154	921.0732	0.161044	-423.001531	-422.994317	-422.993373	-423.033101	28.704	
C	-0.1522556006	 1.5948448095	-0.0190570978	-0.404459
C	 0.0505803342	 0.0910152078	-0.024531958	-0.010559
C	 0.7573159872	-0.5776646791	-1.2277340474	 0.091763
O	 1.9218858409	 0.1612570918	-1.6700479407	-0.311384
C	 2.8004165564	-0.5835494203	-0.7884796982	 0.10095
C	 3.2803278511	 0.2365510557	 0.3979379391	-0.090235
O	 2.1843432777	 0.3272162364	 1.3077373539	-0.26777
C	 1.1318953698	-0.5465752686	 0.9202347482	 0.08183
C	 1.6260541799	-1.4264618547	-0.2624937951	-0.146097
H	 0.7846908356	 2.1077993942	-0.2445205968	 0.133921
H	-0.8925422876	 1.8925011001	-0.7696096397	 0.110384
H	-0.5037497459	 1.9398364025	 0.9585587696	 0.1161
H	-0.8955875497	-0.4382594369	 0.147690712	 0.069892
H	 0.1678040279	-0.9495744876	-2.0685469438	 0.07503
H	 3.6070661425	-1.0708212103	-1.3448047672	 0.081256
H	 4.1335239475	-0.2568412064	 0.8874595449	 0.095425
H	 3.5859186796	 1.2435300957	 0.0922463343	 0.116261
H	 0.7461004791	-1.038323415	 1.8162840876	 0.078484
H	 1.6733472045	-2.5098441148	-0.1957041549	 0.079208
109.2785	180.2055	209.5241	226.8241	365.8804	448.3612	552.4619	634.7622	656.4711	763.8493	792.678	829.8193	836.2255	869.481	900.5235	928.4518	933.401	966.2146	984.6981	999.1952	1056.2138	1074.5728	1097.8677	1136.301	1149.2075	1162.358	1196.2039	1207.9188	1223.9717	1246.3709	1270.1173	1299.3162	1311.0264	1342.4755	1347.9958	1352.7149	1390.299	1409.7864	1489.2243	1496.9442	1504.7731	2993.4298	3025.4955	3039.2258	3063.4025	3064.8132	3078.435	3085.9388	3099.6317	3134.014	3151.914
CC1C2OC3COC1C23	C[C@H]1[C@H]2O[C@H]3CO[C@@H]1[C@@H]23	
InChI=1S/C7H10O2/c1-3-6-5-4(2-8-6)9-7(3)5/h3-7H,2H2,1H3	InChI=1S/C7H10O2/c1-3-6-5-4(2-8-6)9-7(3)5/h3-7H,2H2,1H3/t3-,4+,5+,6+,7-/m1/s1
