20
gdb 70332	2.22014	2.02713	1.37325	2.1055	77.62	-0.2184	0.0731	0.2915	1012.118	0.171003	-403.110187	-403.10198	-403.101036	-403.142172	33.383	
C	 0.1161562063	 1.473135201	-0.0812972264	-0.469285
C	 0.0044242615	-0.03276346	-0.0535805758	 0.252006
C	-0.6879041366	-0.7313984955	 1.0625615292	-0.299939
N	 0.7805470774	-0.7655177541	 0.9746571458	-0.129127
C	 1.3560126652	-1.9775492886	 0.3416529134	-0.190453
C	 1.011399541	-1.9673420365	-1.14667524	-0.081495
C	-0.4308605537	-2.132548161	-1.5905681959	-0.369225
C	 0.153968617	-0.7564969272	-1.3966860592	 0.344251
O	 0.4004719626	 0.0368417121	-2.518833631	-0.456339
H	 1.0168640044	 1.7914610869	-0.6122804753	 0.133462
H	-0.7464888474	 1.9234694681	-0.5858589453	 0.103557
H	 0.1551821141	 1.8608460757	 0.9394427942	 0.12336
H	-1.0732828679	-0.1537258779	 1.9005857594	 0.106633
H	-1.2514427702	-1.6390260781	 0.8670479522	 0.105257
H	 2.4430967342	-1.9310540465	 0.4639758447	 0.112765
H	 1.0087774255	-2.8772974768	 0.8626457066	 0.104778
H	 1.7817460636	-2.2384664983	-1.8601141858	 0.098952
H	-0.5643036437	-2.4334604706	-2.6251304255	 0.113356
H	-1.1771168232	-2.5301521018	-0.9128667844	 0.113336
H	-0.4464755901	 0.3396396791	-2.863842241	 0.28415
134.2598	189.0926	240.3427	279.2839	303.7469	341.0019	382.4987	421.8045	448.5906	472.8786	594.4067	603.1115	686.3795	760.5255	810.322	824.1169	852.5699	916.7623	924.1882	951.7567	968.2182	1027.3841	1038.8459	1045.3187	1078.5795	1099.9846	1119.554	1128.9272	1157.9915	1180.7918	1236.5034	1238.5816	1322.885	1331.1562	1336.2359	1353.6767	1395.2741	1417.0177	1480.3429	1482.8134	1494.8656	1499.3281	1520.2902	3035.162	3036.3244	3072.2136	3097.2821	3103.64	3129.4396	3129.9871	3172.3216	3178.5085	3216.7461	3797.9597
CC12CN1CC1CC21O	C[C@]12CN1C[C@H]1C[C@@]21O	
InChI=1S/C7H11NO/c1-6-4-8(6)3-5-2-7(5,6)9/h5,9H,2-4H2,1H3	InChI=1S/C7H11NO/c1-6-4-8(6)3-5-2-7(5,6)9/h5,9H,2-4H2,1H3/t5-,6-,7+,8?/m1/s1
