20
gdb 79351	2.44432	1.9243	1.7496	0.8278	76.51	-0.2215	0.0808	0.3023	928.5469	0.174346	-403.140025	-403.132848	-403.131904	-403.171239	29.354	
C	 0.0008671002	 1.5702984171	 0.0107661234	-0.41087
C	 0.0853116081	 0.0450951917	 0.0027393933	 0.008934
C	 0.8944289012	-0.569287119	-1.1326466075	-0.056656
C	 2.3497684789	-0.7293443276	-0.8744657211	-0.034692
C	 2.984718872	-0.1139548875	 0.3580037934	-0.10442
O	 2.0616378435	 0.0769845557	 1.4264727268	-0.274584
C	 0.8161997735	-0.5854601486	 1.2090409411	 0.070527
C	 1.060395561	-2.0206702205	 0.7210661054	-0.184783
N	 1.4454467894	-1.8843937332	-0.7046624728	-0.132486
H	 0.9897758572	 2.0207583092	 0.1227934922	 0.129322
H	-0.4429679491	 1.9414921363	-0.918744868	 0.111985
H	-0.621984141	 1.9227986796	 0.8394821891	 0.115366
H	-0.9316039455	-0.3697419163	-0.039559294	 0.076244
H	 0.5185317198	-0.513590136	-2.1501827673	 0.085921
H	 3.02716684	-0.8239815967	-1.720714197	 0.091706
H	 3.8097026096	-0.7589133711	 0.7002148062	 0.103473
H	 3.423486858	 0.8606651559	 0.1057353633	 0.108008
H	 0.2670482263	-0.5100708336	 2.149750227	 0.078699
H	 1.8461381113	-2.5257623845	 1.2903172624	 0.111386
H	 0.1500726855	-2.6267701009	 0.7773095041	 0.106921
149.3361	201.2733	237.6513	255.8728	404.6866	427.042	496.4993	539.7815	638.2373	693.6387	754.728	777.6134	812.4173	863.348	897.0214	913.0598	939.0944	956.3749	1007.1812	1037.5678	1044.2493	1068.6438	1091.7146	1116.045	1137.3313	1145.5924	1161.6044	1226.7352	1235.6707	1257.9512	1265.5547	1308.5555	1326.9187	1341.8529	1360.5186	1383.3096	1399.8521	1413.5862	1443.5762	1491.4512	1495.1723	1500.2394	1522.8366	2974.861	3008.6411	3023.3345	3038.9323	3047.5353	3095.3809	3097.055	3099.1173	3125.9235	3126.4669	3150.4032
CC1C2C3COC1CN23	C[C@H]1[C@H]2[C@H]3CO[C@@H]1CN23	
InChI=1S/C7H11NO/c1-4-6-2-8-5(3-9-6)7(4)8/h4-7H,2-3H2,1H3	InChI=1S/C7H11NO/c1-4-6-2-8-5(3-9-6)7(4)8/h4-7H,2-3H2,1H3/t4-,5-,6-,7+,8?/m1/s1
