12
gdb 129121	3.19544	1.5707	1.20132	1.7406	66.89	-0.2728	-0.1039	0.1689	959.1002	0.078331	-464.947236	-464.940201	-464.939257	-464.979103	25.857	
N	 0.0331290376	 1.2918598324	 0.2264404208	-0.442329
C	-0.0363998706	 0.0450095041	 0.0446479883	 0.367325
N	-1.2604598621	-0.6192057865	-0.0469555855	-0.159203
C	-1.5187032095	-1.3743435609	-1.034169072	-0.05078
C	-0.6509112955	-1.6419449926	-2.2226820596	 0.402727
O	-1.0972388918	-2.0761943201	-3.2588294447	-0.320516
N	 0.7298217472	-1.4271505819	-2.0809266293	-0.293824
N	 1.5240039867	-1.3986345238	-0.9337526314	-0.041074
N	 1.157650577	-0.7794577805	 0.0750760713	-0.158556
H	 1.0085034103	 1.5789478921	 0.3305403277	 0.247206
H	-2.4840724722	-1.8773698114	-1.0816260638	 0.166025
H	 1.2533748129	-1.8272581109	-2.8514707319	 0.283
80.1615	136.5545	271.0436	326.8088	356.5487	444.5259	456.8099	571.2081	632.5175	697.0741	705.0138	745.897	791.9156	875.0749	906.1767	939.0993	978.7132	1002.6331	1027.7723	1262.9574	1295.3542	1379.238	1426.8614	1623.9726	1717.7957	1741.6068	1791.3571	3150.6469	3474.4876	3573.6703
N=C1N=CC(=O)NN=N1	[NH][C]1N=CC(=O)NN=N1	
InChI=1S/C3H3N5O/c4-3-5-1-2(9)6-8-7-3/h1H,(H2,4,6,7,9)	InChI=1S/C3H3N5O/c4-3-5-1-2(9)6-8-7-3/h1H,(H2,4,6,7,9)
