17
gdb 36665	3.22898	0.82613	0.69474	3.9317	80.16	-0.2479	0.0187	0.2666	1559.2741	0.134388	-380.817867	-380.808625	-380.807681	-380.852843	33.134	
C	-0.372372446	-1.2066102058	 0.2211553801	-0.45953
C	-0.2094368954	-0.0168244602	 0.153553419	 0.33655
C	-0.0351266015	 1.4042889199	 0.0266586379	-0.180049
C	 0.6470801039	 2.1809172105	 1.1142226568	-0.250747
N	 1.2973883955	 2.0048690655	-0.1760952257	-0.088165
C	 2.4475977038	 1.1112522119	-0.2259396846	-0.138452
C	 3.7223489374	 1.9512290739	-0.0274251516	-0.336375
C	 4.9339348789	 1.1394619102	-0.0968694393	 0.255361
N	 5.8826869123	 0.4824801718	-0.1546010281	-0.30278
H	-0.516331685	-2.256734623	 0.290540045	 0.207688
H	-0.8144196438	 1.9049039724	-0.5431040994	 0.125624
H	 0.3092350014	 3.1863742192	 1.3482354163	 0.128941
H	 1.0176917475	 1.6041597561	 1.9598794296	 0.126921
H	 2.4074307426	 0.3091182684	 0.5248878206	 0.122012
H	 2.4716126993	 0.6343690169	-1.2103397942	 0.134877
H	 3.7655575093	 2.7353180867	-0.790142741	 0.164273
H	 3.6903741996	 2.4545634758	 0.9456110087	 0.153849
68.1017	79.6152	80.9795	164.4436	201.9442	268.0606	340.4167	386.7567	412.053	523.9475	533.4104	609.947	626.4164	673.5031	759.3096	785.9771	828.7391	910.3998	960.5586	1024.6831	1032.9672	1054.7689	1085.7815	1116.1702	1134.5618	1152.5619	1241.097	1298.5779	1311.143	1320.5749	1373.4619	1394.6116	1468.768	1491.669	1511.6536	2234.8266	2364.599	3005.2143	3049.8458	3081.8099	3098.4319	3100.3176	3133.6369	3191.9718	3501.2682
C#CC1CN1CCC#N	C#C[C@H]1CN1CCC#N	
InChI=1S/C7H8N2/c1-2-7-6-9(7)5-3-4-8/h1,7H,3,5-6H2	InChI=1S/C7H8N2/c1-2-7-6-9(7)5-3-4-8/h1,7H,3,5-6H2/t7-,9?/m0/s1
