19
gdb 32630	3.02967	1.27483	0.97406	2.956	78.93	-0.1903	0.0475	0.2377	1256.479	0.158814	-419.252293	-419.24251	-419.241566	-419.287636	34.624	
C	-0.0631057308	 1.5943491952	 0.0883249196	-0.377546
C	-0.0108609407	 0.0674590315	 0.0007928971	-0.154522
N	-1.3288216507	-0.5480563888	-0.0108605502	-0.038985
C	-1.9806442142	-1.1722912944	 1.0237243104	-0.019131
N	-3.1730820547	-1.5873216892	 0.6809212613	-0.32478
C	-3.3404440479	-1.2228525219	-0.6441491441	 0.163608
C	-4.587968795	-1.5273705293	-1.4079154539	-0.496344
C	-2.2043946928	-0.5820988856	-1.0694307795	 0.266753
O	-1.805839455	-0.0196574228	-2.2423046098	-0.448452
H	 0.9511188769	 2.0051498115	 0.1050862202	 0.119028
H	-0.5881854104	 2.009773075	-0.7754432817	 0.142978
H	-0.5812911695	 1.9149176524	 0.9967880916	 0.128366
H	 0.5200882054	-0.2410396771	-0.9051664985	 0.13101
H	 0.5297227274	-0.3510381274	 0.8547408946	 0.120125
H	-1.5154624672	-1.2887372066	 1.9916179824	 0.119829
H	-4.5472124731	-1.1240463518	-2.427046054	 0.088724
H	-4.7596338132	-2.6066706392	-1.4896367597	 0.134845
H	-5.4689714522	-1.0945166131	-0.9215141187	 0.136865
H	-2.4906560424	-0.1772843683	-2.8996792468	 0.30763
56.4453	62.7405	93.0748	186.5418	202.8559	230.268	263.7669	290.6416	319.5203	406.0884	499.5096	584.2986	665.77	686.3902	728.7859	754.817	768.9658	801.8622	963.2828	973.8565	1042.9712	1059.3356	1100.416	1114.1614	1212.9266	1239.3745	1258.2893	1305.4305	1338.6965	1389.7994	1408.9909	1411.5798	1426.8003	1468.1896	1478.7994	1490.7068	1494.1359	1507.0155	1508.14	1555.4123	1651.8802	3019.4946	3044.5118	3054.3918	3078.6133	3083.2849	3095.1733	3117.7071	3132.7893	3243.0516	3839.7794
CCN1C=NC(C)=C1O	CCn1cnc(C)c1O	
InChI=1S/C6H10N2O/c1-3-8-4-7-5(2)6(8)9/h4,9H,3H2,1-2H3	InChI=1S/C6H10N2O/c1-3-8-4-7-5(2)6(8)9/h4,9H,3H2,1-2H3
