15
gdb 131355	5.33265	0.84732	0.78186	1.1492	69.63	-0.2272	-0.0366	0.1905	1389.5743	0.11276	-453.975846	-453.967456	-453.966512	-454.010649	29.857	
O	-0.123044126	 1.3348822832	-0.3140426599	-0.427104
C	 0.0006144088	 0.0182663929	-0.0553067547	 0.441622
N	 0.3388485044	-0.8495762517	-0.9973954102	-0.329448
N	 0.3541092087	-2.0405344038	-0.346154287	-0.258841
C	 0.0258430549	-1.9349231651	 0.9664778337	 0.383244
C	 0.0105693384	-3.1254637979	 1.8751424285	-0.383442
C	 1.4255720868	-3.6592044955	 2.0673634892	 0.155803
O	 1.7914692015	-4.7466386211	 1.7067493336	-0.234105
C	-0.2069639882	-0.5930036211	 1.2009282151	-0.414221
H	 0.0755644915	 1.459908605	-1.250716836	 0.304814
H	 0.5859730862	-2.875024282	-0.8576048199	 0.280692
H	-0.3856590663	-2.8188327825	 2.849098407	 0.139974
H	-0.6123683289	-3.9358270135	 1.4836554976	 0.13508
H	 2.1215044646	-2.9387249134	 2.5509186953	 0.092332
H	-0.4931426763	-0.1254460534	 2.1278603877	 0.113599
24.5134	49.4378	141.2346	262.0969	277.7464	370.8926	418.2216	447.7888	462.1146	477.5565	624.1623	690.8257	720.142	760.9041	789.1161	845.2893	995.5951	1012.1946	1038.5954	1057.1959	1148.7414	1179.1223	1190.221	1236.7328	1286.2408	1339.1234	1417.8224	1445.5212	1460.0827	1521.2164	1564.6934	1617.1708	1832.4077	2894.0758	3047.6382	3103.356	3276.893	3675.5139	3793.9231
OC1=NNC(CC=O)=C1	Oc1n[nH]c(CC=O)c1	
InChI=1S/C5H6N2O2/c8-2-1-4-3-5(9)7-6-4/h2-3H,1H2,(H2,6,7,9)	InChI=1S/C5H6N2O2/c8-2-1-4-3-5(9)7-6-4/h2-3H,1H2,(H2,6,7,9)
