22
gdb 59800	3.25273	0.95533	0.90515	2.3916	85.82	-0.24	0.0303	0.2703	1456.0375	0.192542	-404.360931	-404.350857	-404.349913	-404.396211	37.116	
C	-1.1526551891	 0.0814072105	-0.7659954466	-0.388758
C	 0.2338395415	-0.4983579633	-0.4487874884	 0.05644
C	 1.2448529887	 0.5950128021	-0.0724077966	-0.388365
N	 0.1710426601	-1.5606341723	 0.5648246818	-0.340109
C	-0.2182297936	-1.341976867	 1.7305830552	 0.466329
C	-0.3966829455	-2.1958205685	 2.9682585035	-0.394017
C	-0.8920536756	-0.883027814	 3.6168744943	 0.149525
C	-0.0867047913	-0.2918032143	 4.7521936512	-0.399007
O	-0.6589835453	-0.1753649585	 2.3505340332	-0.281216
H	-1.5566388339	 0.6238006073	 0.0931019239	 0.130327
H	-1.0892912315	 0.7720796127	-1.6134768948	 0.106083
H	-1.8518974807	-0.7178545931	-1.0295773749	 0.113321
H	 0.6018197073	-0.9889239633	-1.3580378858	 0.077267
H	 0.9106311121	 1.1505561316	 0.808090697	 0.129491
H	 2.2220548351	 0.1546429782	 0.1477588442	 0.113221
H	 1.3681650631	 1.3003369305	-0.9009708377	 0.106251
H	-1.1310540654	-2.9973527343	 2.8731317164	 0.133156
H	 0.5304011057	-2.5994383793	 3.3813200191	 0.130866
H	-1.9636180872	-0.8724239917	 3.8399747408	 0.093008
H	 0.9824355963	-0.3067803216	 4.5192237872	 0.127993
H	-0.3850073797	 0.7440475288	 4.9391155213	 0.133595
H	-0.2511541211	-0.8658241206	 5.6703281857	 0.1246
52.368	81.9065	137.2148	145.8822	231.4829	239.2347	262.4251	296.961	347.5028	392.8251	421.2619	434.7944	560.008	602.0326	712.3226	789.8984	842.5051	886.173	907.2112	933.0994	943.4131	952.4807	978.3883	1053.2882	1065.4716	1110.4722	1129.6799	1140.9727	1189.6118	1192.6391	1200.1289	1243.8401	1314.026	1370.2137	1378.5875	1387.8517	1391.6213	1411.8325	1413.5378	1467.6169	1484.476	1485.148	1495.0853	1495.739	1497.5833	1515.06	1841.3687	3021.6917	3034.4306	3037.3925	3038.8196	3058.4299	3080.5354	3102.9932	3106.4158	3110.5145	3117.9094	3119.4433	3124.5564	3135.5858
CC(C)N=C1CC(C)O1	CC(C)N=C1C[C@@H](C)O1	
InChI=1S/C7H13NO/c1-5(2)8-7-4-6(3)9-7/h5-6H,4H2,1-3H3	InChI=1S/C7H13NO/c1-5(2)8-7-4-6(3)9-7/h5-6H,4H2,1-3H3/t6-/m1/s1
