22
gdb 76406	2.7809	1.13855	1.01546	1.8319	82.94	-0.2293	0.0529	0.2822	1313.0653	0.192828	-404.308291	-404.298128	-404.297184	-404.343121	37.834	
C	-0.2095243136	 1.0038624831	-1.7957547939	-0.434048
C	-0.022313301	-0.2588674857	-0.9812830609	-0.087349
C	 1.3446989067	-0.7441432224	-0.5201313615	-0.058577
C	 2.6270875548	-0.0028686652	-0.8292979409	-0.41101
C	 0.3495127362	-0.210625514	 0.4880541969	 0.331453
O	 0.6493047907	 1.0430161921	 1.0550717369	-0.466853
C	-0.2902485196	-1.168321364	 1.4538054254	-0.020979
C	 0.1025221507	-1.1753396104	 2.8825497404	-0.246019
N	-1.2335270933	-0.6891081482	 2.4764099009	-0.333947
H	 0.4733083254	 1.7998549538	-1.4890464115	 0.123678
H	-0.0318450787	 0.8124423929	-2.8592592857	 0.125853
H	-1.2337683534	 1.3841512006	-1.7020246686	 0.117054
H	-0.7233273228	-1.0489153925	-1.241604925	 0.086705
H	 1.4558645281	-1.8260705626	-0.509165954	 0.084222
H	 2.5287520986	 1.0681888069	-0.6451485223	 0.129693
H	 3.4401688201	-0.3676860845	-0.1929517617	 0.119866
H	 2.9296743939	-0.1504731726	-1.8717987051	 0.113076
H	-0.0579048652	 1.65541012	 0.8280339076	 0.291628
H	-0.5880535931	-2.1098847923	 0.9960451585	 0.08465
H	 0.1015464272	-2.1044438714	 3.4453378103	 0.112114
H	 0.8351229798	-0.4394785332	 3.1997186266	 0.1222
H	-1.2058810616	 0.3288719896	 2.4854584475	 0.21659
67.4487	142.1671	149.358	154.9731	189.8649	220.1614	234.7	274.2498	326.0829	360.7441	370.5071	525.2422	548.2576	588.4345	709.8329	781.0032	822.4504	844.6522	870.6025	942.2412	967.3639	994.2512	1019.9952	1036.3963	1047.7238	1060.272	1110.1561	1135.8751	1142.4411	1152.0271	1176.7962	1182.593	1243.6601	1260.8597	1281.7665	1300.2447	1341.033	1371.7719	1403.2166	1410.7259	1420.1729	1460.9214	1490.547	1495.6918	1501.8986	1506.3239	1516.2024	3029.6046	3037.1336	3085.3473	3091.8554	3111.3421	3114.2943	3121.0528	3124.9095	3130.9664	3142.4997	3205.1031	3484.8385	3808.9472
CC1C(C)C1(O)C1CN1	C[C@H]1[C@@H](C)[C@]1(O)[C@H]1CN1	
InChI=1S/C7H13NO/c1-4-5(2)7(4,9)6-3-8-6/h4-6,8-9H,3H2,1-2H3	InChI=1S/C7H13NO/c1-4-5(2)7(4,9)6-3-8-6/h4-6,8-9H,3H2,1-2H3/t4-,5+,6-,7-/m1/s1
