18
gdb 26574	2.295	1.81097	1.02495	3.1221	85.13	-0.2032	-0.0376	0.1657	1148.1347	0.147384	-401.996841	-401.987927	-401.986983	-402.031554	32.561	
C	 0.0599736388	 1.540254015	 0.0861055031	-0.498548
C	-0.0032938082	 0.0317048796	 0.0254400352	 0.205014
C	-1.1767281278	-0.6579680108	-0.0126252318	 0.125187
C	-2.5396696535	-0.0283945054	 0.0008204554	-0.475668
C	-1.170596635	-2.1175162115	-0.0703069555	 0.330968
N	-2.2342847658	-2.8154864003	-0.1090674436	-0.53798
O	 0.0710457325	-2.7538293011	-0.0823872483	-0.235493
C	 1.2164163212	-2.0441480951	-0.0425330104	 0.060545
C	 1.2397334636	-0.7047913932	 0.0098143031	-0.240643
H	 1.0954181633	 1.8883489724	 0.068929235	 0.123872
H	-0.4607523433	 2.0006968852	-0.7595783674	 0.142971
H	-0.4052371097	 1.9260692026	 0.9995343298	 0.143076
H	-3.1040499347	-0.3200478083	-0.8912652746	 0.14536
H	-3.1213215534	-0.3973178921	 0.852194623	 0.145741
H	-2.4913837279	 1.0601218571	 0.0500651068	 0.109318
H	-2.0098015254	-3.8096620245	-0.1462089388	 0.217018
H	 2.0872362357	-2.687723174	-0.0586837827	 0.134344
H	 2.1900777197	-0.1876350854	 0.0396060817	 0.104917
24.7604	99.1348	118.3052	167.4098	264.6153	317.5338	332.4758	460.4713	484.1805	511.6992	523.7971	600.8067	675.0654	749.6042	787.3748	822.4883	843.1384	900.0237	920.0728	991.9976	1015.4874	1035.511	1068.2008	1095.9918	1149.9972	1187.7093	1230.4913	1291.3455	1354.0073	1410.5611	1414.7822	1448.8338	1466.9418	1470.1505	1491.2772	1499.672	1615.246	1681.8295	1719.0772	3038.2125	3043.405	3091.0972	3095.04	3119.6561	3141.0091	3205.456	3225.681	3492.374
CC1=C(C)C(=N)OC=C1	C[C@@H]1C(=C([NH])OC=C1)C	
InChI=1S/C7H9NO/c1-5-3-4-9-7(8)6(5)2/h3-4,8H,1-2H3	InChI=1S/C7H10NO/c1-5-3-4-9-7(8)6(5)2/h3-5,8H,1-2H3/t5-/m0/s1
