19
gdb 104266	2.23426	1.42919	1.12026	2.4166	77.73	-0.2515	0.024	0.2755	1182.5998	0.155628	-422.955647	-422.945819	-422.944875	-422.990474	35.73	
C	-0.0129287579	 1.4245789126	-0.0578544812	-0.254497
O	 0.3913289682	 0.0728389592	-0.1288318503	-0.272879
C	 0.7925219668	-0.505788102	 1.0843621316	 0.371888
C	 2.0642097496	 0.1097443741	 1.6585757584	-0.458968
C	-0.3212089702	-0.7788173915	 2.1293500077	-0.124348
O	-0.0103760064	-2.186998685	 2.1430895041	-0.274112
C	 0.8630808206	-2.0666455367	 0.9901180263	-0.184343
C	 0.3298541314	-2.6886577169	-0.2089807163	 0.40006
C	-0.0964237971	-3.2372431121	-1.1893795395	-0.45471
H	 0.8222472445	 2.1037701115	 0.1612302676	 0.112786
H	-0.4203971936	 1.6799569063	-1.0384939529	 0.13543
H	-0.7966760475	 1.5808512141	 0.6982055989	 0.109386
H	 1.9061001148	 1.1484693698	 1.9638410111	 0.121245
H	 2.3883857626	-0.4483455185	 2.5416585151	 0.133785
H	 2.8654775401	 0.0846087094	 0.9134968648	 0.130166
H	-0.2051546007	-0.3255821346	 3.1198862456	 0.101498
H	-1.3315911866	-0.5875880214	 1.7465402011	 0.107158
H	 1.8542473309	-2.4801935176	 1.2143781601	 0.102494
H	-0.4780241896	-3.7117403305	-2.0594272721	 0.197961
58.4423	99.2118	119.359	187.6458	196.2885	247.2797	262.0337	327.3185	354.4701	379.3267	442.8297	525.3698	580.2017	624.8732	665.7339	672.5663	849.4573	891.7445	919.6755	937.0265	970.9942	1019.6421	1057.6505	1103.1259	1157.0582	1172.8794	1181.36	1186.7927	1233.4974	1244.0721	1275.4978	1351.5165	1357.579	1403.4951	1477.6111	1486.5238	1488.2074	1504.9895	1508.8752	1513.0424	2236.8951	2988.809	3016.4445	3026.6606	3037.9668	3044.0546	3072.8921	3111.9298	3118.3924	3120.4046	3502.8844
COC1(C)COC1C#C	CO[C@@]1(C)CO[C@H]1C#C	
InChI=1S/C7H10O2/c1-4-6-7(2,8-3)5-9-6/h1,6H,5H2,2-3H3	InChI=1S/C7H10O2/c1-4-6-7(2,8-3)5-9-6/h1,6H,5H2,2-3H3/t6-,7-/m0/s1
