19
gdb 98767	3.96557	1.09834	0.95136	3.5253	77.53	-0.2269	0.0576	0.2844	1279.7912	0.159731	-419.201484	-419.192512	-419.191568	-419.235861	32.557	
C	-0.0584605441	 1.3376788993	 0.2140698896	-0.3228
N	-0.0662773855	-0.1023507949	 0.0349807887	-0.349563
C	-1.2626877914	-0.7831653557	-0.0431160677	 0.448388
O	-2.3469750015	-0.2836065077	 0.2014863352	-0.407528
N	-1.132693587	-2.104142588	-0.4493268147	-0.134755
C	-0.0390645883	-3.0576190426	-0.1266228646	-0.204296
C	-1.098959202	-4.1286180677	 0.1562118423	-0.083998
C	-2.0643322983	-3.6364715604	 1.2088954172	-0.277528
C	-2.1659997802	-3.0967198186	-0.1863262439	 0.009995
H	 0.7995048863	 1.6390634142	 0.8225513861	 0.11818
H	-0.0227985794	 1.8823774669	-0.7389170652	 0.118789
H	-0.9803499514	 1.6107066267	 0.7280969536	 0.167657
H	 0.7253093545	-0.5111754687	-0.4353017195	 0.242442
H	 0.5917128595	-3.2741941776	-0.9958635125	 0.11197
H	 0.5932882064	-2.760438333	 0.7189563396	 0.113258
H	-1.0305818238	-5.1630555894	-0.1488838777	 0.100793
H	-2.8364930437	-4.3474141177	 1.4856944262	 0.118798
H	-1.7267069982	-2.9939524583	 2.0175933615	 0.119726
H	-3.0491733418	-3.1631166869	-0.807806644	 0.110472
74.3127	81.2545	99.3201	149.0303	176.8162	305.2911	340.8355	433.3135	454.1511	488.3476	557.3083	757.7786	770.2339	789.4525	807.3068	856.3566	933.746	959.0211	986.6333	999.8485	1048.172	1069.8457	1075.146	1103.0352	1142.4629	1150.2058	1162.2822	1178.7086	1188.618	1221.3785	1269.4024	1308.6379	1340.3083	1369.5513	1441.0601	1477.4326	1491.0488	1502.002	1510.7498	1555.1397	1777.0728	3013.4501	3019.3356	3066.6557	3081.2752	3117.2441	3155.2995	3199.6476	3207.0467	3220.2274	3630.7919
CNC(=O)N1CC2CC12	CNC(=O)N1C[C@H]2C[C@@H]12	
InChI=1S/C6H10N2O/c1-7-6(9)8-3-4-2-5(4)8/h4-5H,2-3H2,1H3,(H,7,9)	InChI=1S/C6H10N2O/c1-7-6(9)8-3-4-2-5(4)8/h4-5H,2-3H2,1H3,(H,7,9)/t4-,5-/m1/s1
