20
gdb 40907	3.42408	1.29028	1.25378	2.3053	77.92	-0.2319	0.0674	0.2992	1099.7297	0.173231	-403.107623	-403.100007	-403.099062	-403.139767	29.853	
C	-0.1666532293	 1.5075701293	-0.1177815484	-0.153056
O	 1.1795511584	 1.6439002262	 0.3793496683	-0.280002
C	 1.3747598344	 0.2114555705	 0.4261761885	-0.156014
C	-0.0633274481	-0.0173237534	-0.0236400207	 0.303338
C	-1.0494621315	-1.0318255946	 0.4048424751	-0.10819
C	-2.5263121145	-0.6744239514	 0.3339634284	-0.225436
C	-2.6957443978	-0.0539299585	-1.0712870318	-0.236587
C	-1.5372621928	-0.6684368436	-1.8934297172	-0.157659
N	-0.4627662451	-1.0580573572	-0.9596687714	-0.15344
H	-0.9012241854	 1.9909525957	 0.5396016646	 0.105164
H	-0.2723881865	 1.9137541086	-1.1331907318	 0.104399
H	 2.1336177098	-0.1309727276	-0.2885102519	 0.110125
H	 1.6358155721	-0.135112444	 1.4338985318	 0.103113
H	-0.7404665433	-1.8281060879	 1.0780276207	 0.089579
H	-3.1211616992	-1.5886783714	 0.4346106878	 0.1101
H	-2.8398959686	 0.0046137162	 1.1330589027	 0.108784
H	-3.6726909605	-0.2732723705	-1.5088779639	 0.103498
H	-2.6077670209	 1.0352425208	-1.0259436425	 0.112729
H	-1.8623831593	-1.5820879777	-2.4020560179	 0.11072
H	-1.1489390319	 0.0111133504	-2.6584884305	 0.108836
101.0827	172.5663	189.9027	226.4441	255.4464	416.8729	436.3204	559.8208	660.6402	683.6648	766.8387	838.346	859.3239	884.1605	893.1256	906.6129	955.7307	977.5961	986.8352	1009.6984	1029.3978	1060.6337	1077.5882	1129.1353	1135.6149	1149.4254	1170.7858	1187.1551	1190.8241	1211.739	1257.6862	1297.9672	1309.1066	1323.6767	1330.1735	1346.0728	1374.6168	1468.6405	1488.0308	1496.7473	1505.1884	1515.3885	1529.6109	2996.1011	3014.3948	3038.7846	3044.1381	3046.2329	3058.8648	3061.9547	3082.6343	3085.4133	3110.2082	3134.7072
C1OCC11C2CCCN12	C1OCC21[C@H]1CCCN21	
InChI=1S/C7H11NO/c1-2-6-7(4-9-5-7)8(6)3-1/h6H,1-5H2	InChI=1S/C7H11NO/c1-2-6-7(4-9-5-7)8(6)3-1/h6H,1-5H2/t6-,8?/m1/s1
