19
gdb 108424	2.80511	1.53161	1.2213	2.2874	75.44	-0.2472	0.0155	0.2627	1065.817	0.16045	-423.016783	-423.008876	-423.007931	-423.049262	30.838	
O	-0.1457155541	 1.3928886061	-0.4404136521	-0.423684
C	-0.0315790336	 0.0077855062	-0.1736667078	-0.125416
C	-1.3799087194	-0.5592824745	 0.2337310085	 0.413806
C	-1.9337214881	-0.0849092805	 1.5897657394	-0.306154
C	-2.5951670263	-1.3256027391	 2.1424192775	-0.064745
C	-2.4219888646	-2.4003705642	 1.3711349799	-0.085756
C	-1.63062717	-2.091084572	 0.1315135173	-0.179555
C	-2.4576549517	-1.7269110841	-1.1251979263	-0.082814
O	-2.334101674	-0.3139355215	-0.8472116262	-0.338272
H	-0.8784509554	 1.4736331467	-1.0645306533	 0.292463
H	 0.3479755872	-0.5410483096	-1.051247214	 0.081039
H	 0.6983536909	-0.1080004742	 0.6349621067	 0.106591
H	-1.1461050583	 0.2939290771	 2.2537602964	 0.109252
H	-2.640027229	 0.738569888	 1.4365422401	 0.124898
H	-3.1457018024	-1.3188026035	 3.0772204506	 0.096873
H	-2.8122526348	-3.3902774839	 1.5813710902	 0.096486
H	-0.7753238511	-2.7510742207	-0.0380044377	 0.080366
H	-1.9855785047	-1.9977307094	-2.0784800114	 0.098805
H	-3.5040940908	-2.0504512669	-1.1326583978	 0.105817
90.1456	127.7002	187.6282	247.6053	339.9311	367.0193	412.3137	478.6364	493.6524	661.158	687.2691	741.8148	777.3026	859.3321	879.1047	904.4651	932.3709	963.5199	975.9489	1003.2565	1038.1743	1058.2677	1063.1237	1078.8111	1103.482	1147.4549	1160.4711	1164.8753	1207.362	1243.635	1249.9763	1301.6171	1336.8855	1352.0144	1368.3765	1386.8065	1433.7344	1464.0979	1501.2478	1518.6782	1677.9933	2967.9854	3012.2184	3026.2742	3064.8107	3067.2955	3071.8332	3074.0777	3179.3176	3203.9362	3774.3501
OCC12CC=CC1CO2	OC[C@]12CC=C[C@H]1CO2	
InChI=1S/C7H10O2/c8-5-7-3-1-2-6(7)4-9-7/h1-2,6,8H,3-5H2	InChI=1S/C7H10O2/c8-5-7-3-1-2-6(7)4-9-7/h1-2,6,8H,3-5H2/t6-,7+/m0/s1
