18
gdb 10061	2.60463	1.14382	0.82942	2.0693	73.03	-0.2391	0.0583	0.2974	1380.6067	0.150852	-384.903651	-384.893232	-384.892287	-384.940524	34.876	
C	-0.0360689422	 1.4780994934	 0.0661727684	-0.498533
C	-0.0155842154	 0.0229739445	 0.0195957166	 0.068698
C	 0.0199896466	-1.1800048842	-0.0179091662	 0.074515
C	 0.0270661317	-2.6383181412	-0.086265345	-0.19076
C	-1.4091916197	-3.1868819127	-0.051776009	-0.087828
O	-1.330077864	-4.5996345482	 0.0688518707	-0.42068
C	 0.7857724912	-3.156562408	-1.3294940993	-0.055214
O	 2.1465777663	-2.771502886	-1.3526667254	-0.416054
H	 0.7538695927	 1.9050605729	-0.5616023293	 0.150849
H	-0.9927644868	 1.8762511836	-0.2900058077	 0.144504
H	 0.1160251033	 1.8475535049	 1.0864835707	 0.14549
H	 0.5347505212	-3.0422636558	 0.8029608726	 0.098557
H	-1.943741009	-2.7389700076	 0.7976156379	 0.100591
H	-1.9346940776	-2.886816287	-0.9716795675	 0.096831
H	-2.2219261106	-4.9565813958	 0.0333540455	 0.290378
H	 0.6656367029	-4.2462311058	-1.3774324855	 0.107551
H	 0.3361259848	-2.7239385244	-2.2293818672	 0.109996
H	 2.5907037647	-3.2107548526	-0.6204168701	 0.28111
23.9901	75.0557	92.8678	113.3346	157.6636	212.4508	241.9942	265.3925	285.2608	341.8388	355.0503	465.6069	496.3671	562.6581	744.3347	881.4234	984.8927	1033.559	1052.6957	1054.3734	1065.2526	1088.6601	1097.5882	1179.6145	1193.2842	1229.0513	1262.2186	1313.37	1360.4336	1392.8408	1413.0174	1415.6467	1448.77	1478.7965	1479.1957	1507.5234	1520.8918	2372.8068	2980.1375	2992.422	3022.824	3025.5264	3026.0884	3084.3055	3085.1638	3087.4341	3815.5985	3837.1769
CC#CC(CO)CO	CC#CC(CO)CO	
InChI=1S/C6H10O2/c1-2-3-6(4-7)5-8/h6-8H,4-5H2,1H3	InChI=1S/C6H10O2/c1-2-3-6(4-7)5-8/h6-8H,4-5H2,1H3
