14
gdb 125785	3.57961	1.60331	1.11501	3.5529	68.73	-0.2307	-0.0071	0.2236	1015.8099	0.102336	-436.683874	-436.677053	-436.676109	-436.715107	26.155	
C	-0.0166602519	 1.511627416	-0.031289912	-0.501059
C	-0.007747165	 0.0212611972	 0.0663682469	 0.239519
N	-0.04064213	-0.6896328222	-1.0461164314	-0.206129
O	-0.0232244712	-2.0778350234	-0.6687212031	-0.245351
C	 0.0190512888	-2.063700901	 0.6487007718	 0.486326
C	 0.0324319723	-0.8246968499	 1.2153411914	 0.091524
C	 0.0789234144	-1.0828756423	 2.6334244083	-0.372026
C	 0.0882032506	-2.4362915874	 2.7545360036	-0.000324
O	 0.0506317372	-3.0767734861	 1.510758761	-0.210125
H	 0.880485999	 1.9352743037	 0.4317875551	 0.141775
H	-0.0522390576	 1.8190153528	-1.0778901737	 0.155756
H	-0.8846226496	 1.9285366674	 0.4898653488	 0.141751
H	 0.1024972171	-0.3828431858	 3.4533565334	 0.127879
H	 0.117920706	-3.105715739	 3.5968872099	 0.150484
147.2687	178.363	251.3681	255.6408	399.3559	520.649	593.1595	604.0793	621.8665	688.8733	705.9034	767.9386	770.3386	827.4082	868.4165	913.7676	1009.2468	1024.1927	1063.5899	1097.4875	1167.4267	1223.8193	1334.9292	1411.3885	1422.7946	1477.9475	1480.0499	1513.2365	1536.0826	1573.4131	1623.5945	3042.9872	3100.1921	3142.7598	3261.8644	3298.7433
CC1=NOC2=C1C=CO2	Cc1noc2c1cco2	
InChI=1S/C6H5NO2/c1-4-5-2-3-8-6(5)9-7-4/h2-3H,1H3	InChI=1S/C6H5NO2/c1-4-5-2-3-8-6(5)9-7-4/h2-3H,1H3
