23
gdb 122377	4.41292	0.67738	0.66395	1.5663	86.3	-0.2318	0.0787	0.3105	1827.2934	0.205414	-388.250362	-388.240777	-388.239833	-388.286002	35.401	
C	-0.0175324241	 1.5179680239	 0.2328077735	-0.380619
C	-0.0122587714	 0.0185996937	-0.0766983188	-0.164064
C	-1.3988271502	-0.6244214679	 0.0299321401	-0.152732
C	-1.3966528059	-2.1275572558	-0.2798264539	-0.224718
C	-2.776483411	-2.7418821619	-0.1781295637	-0.028135
C	-3.080015011	-4.2300330726	-0.0951955503	-0.168759
C	-2.0920262004	-4.9193614724	 0.8395233795	-0.091396
O	-2.3250874856	-3.9349274799	 1.8830059243	-0.283993
C	-3.3424178007	-3.3176156331	 1.085473889	 0.087626
H	 0.9857497309	 1.9477440503	 0.1498044055	 0.109824
H	-0.6708789106	 2.0629616773	-0.4578831593	 0.111506
H	-0.3791077858	 1.7110533639	 1.2489964369	 0.114091
H	 0.386248141	-0.1458332491	-1.0869086373	 0.09183
H	 0.67676367	-0.494731952	 0.6069764691	 0.096706
H	-1.7979964312	-0.4672249982	 1.0408314786	 0.100262
H	-2.0899423665	-0.1100025983	-0.6529681128	 0.086245
H	-0.9932364879	-2.2944392506	-1.2876971759	 0.090857
H	-0.7228252609	-2.6337686556	 0.4192710967	 0.112558
H	-3.5408488699	-2.2282791102	-0.7614893703	 0.085137
H	-3.7652911926	-4.7314588216	-0.7654197224	 0.095026
H	-2.4293672462	-5.9082087531	 1.1701646323	 0.1086
H	-1.0391077708	-4.9714449938	 0.5384284197	 0.104956
H	-4.2489530092	-3.0001785831	 1.5888526595	 0.09919
38.9983	76.5531	109.3512	124.4265	220.8989	238.0709	255.4805	341.4579	375.3078	486.2699	601.6813	733.6428	744.8296	785.9023	794.9355	809.3112	888.4099	912.6891	948.1974	966.2775	973.826	1013.2901	1020.4882	1030.6191	1055.3973	1066.4803	1082.1121	1092.9999	1124.6854	1148.4018	1165.451	1202.7739	1249.4395	1260.7679	1279.4777	1314.9863	1321.2578	1333.8969	1348.0809	1373.2932	1398.985	1412.9833	1449.4387	1476.9723	1485.3002	1497.9902	1499.8813	1511.8096	1517.6586	3003.6341	3012.6089	3017.8513	3024.0242	3028.3884	3032.9701	3052.8978	3070.1345	3079.904	3094.8752	3099.8369	3115.3179	3172.0343	3200.3503
CCCCC1C2COC12	CCCC[C@H]1[C@H]2CO[C@@H]12	
InChI=1S/C8H14O/c1-2-3-4-6-7-5-9-8(6)7/h6-8H,2-5H2,1H3	InChI=1S/C8H14O/c1-2-3-4-6-7-5-9-8(6)7/h6-8H,2-5H2,1H3/t6-,7+,8-/m0/s1
