18
gdb 26332	4.00754	0.98588	0.81852	2.2821	75.56	-0.1864	0.0365	0.2229	1382.6971	0.147244	-439.110111	-439.100925	-439.099981	-439.144144	34.409	
C	 0.1464340269	 1.3559262103	-0.4494026562	-0.394756
C	 0.0112605944	-0.020638461	 0.2107889415	 0.013466
O	 0.4322339536	 0.0173265523	 1.5721192169	-0.423589
C	-1.3772848628	-0.590332591	 0.0910483624	 0.263381
C	-2.0645293827	-1.2091834323	 1.0834615581	-0.146002
O	-3.3029851828	-1.607758116	 0.6292724869	-0.181105
C	-3.3824428034	-1.2363314174	-0.6680422063	 0.402299
N	-4.6013305916	-1.486614193	-1.2822786108	-0.593256
C	-2.2394578588	-0.6084010575	-1.0659582199	-0.41095
H	 1.1641118662	 1.7317038714	-0.3142006035	 0.121249
H	-0.0678610634	 1.3072697838	-1.5214751082	 0.11655
H	-0.5543733994	 2.0692272527	-0.0007072354	 0.112433
H	 0.724525393	-0.7041253273	-0.2688768189	 0.102136
H	-0.1891536632	 0.5869638033	 2.0407875505	 0.274635
H	-1.8326000111	-1.4660320558	 2.1011740563	 0.136958
H	-5.050991449	-2.3211256113	-0.9272127312	 0.255968
H	-4.532428516	-1.5181619135	-2.2898636631	 0.255575
H	-2.03513054	-0.2095824775	-2.046497049	 0.095007
54.0276	134.2065	168.9854	189.1529	242.6105	286.0136	330.9185	358.5897	375.3012	476.7519	483.9171	605.1509	653.36	672.0646	692.9431	718.9419	755.1907	762.7081	894.5182	963.6201	986.4644	1034.8637	1075.2827	1097.6565	1104.2922	1147.8468	1190.7648	1243.3763	1278.6809	1330.0132	1349.9661	1400.4626	1417.2598	1452.1997	1490.2156	1493.731	1599.3269	1630.4364	1670.5884	3019.8297	3032.9245	3103.297	3121.1931	3258.0398	3303.3638	3546.26	3647.7504	3787.78
CC(O)C1=COC(N)=C1	C[C@@H](O)c1coc(N)c1	
InChI=1S/C6H9NO2/c1-4(8)5-2-6(7)9-3-5/h2-4,8H,7H2,1H3	InChI=1S/C6H9NO2/c1-4(8)5-2-6(7)9-3-5/h2-4,8H,7H2,1H3/t4-/m1/s1
