13
gdb 128951	7.62676	0.76629	0.69941	2.1045	65.01	-0.258	-0.0272	0.2308	1457.3402	0.089218	-452.719512	-452.711866	-452.710921	-452.752882	26.669	
N	-0.0085409282	-1.1493835378	-0.0060788896	-0.277392
C	 0.0101778629	 0.0044033848	 0.0015712821	 0.279883
C	-0.015110502	 1.4669363441	 0.0119137301	-0.223173
O	 1.316409604	 1.9476046651	 0.0002887154	-0.252498
C	 1.4236787507	 3.2974915058	 0.0069359627	 0.228595
C	 0.488162311	 4.288213367	 0.0243611127	-0.04583
O	 1.1113141895	 5.4851310546	 0.0238678927	-0.168077
N	 2.4807422883	 5.2917751579	 0.0058980169	-0.112038
C	 2.6630597321	 3.9961715325	-0.0041548065	-0.055023
H	-0.5670738595	 1.825880144	-0.8692722973	 0.160723
H	-0.5471552562	 1.8135864673	 0.9101178219	 0.160726
H	-0.5882158028	 4.3139881342	 0.0377343164	 0.153092
H	 3.6612033702	 3.5843889904	-0.0189019577	 0.151011
51.988	99.4509	112.4391	234.252	340.7943	392.8997	416.4727	521.8531	604.8848	670.3228	753.3177	774.8738	896.38	918.6157	926.4954	966.6366	1028.5598	1037.5714	1082.944	1139.4323	1214.9033	1251.757	1303.7216	1383.6583	1441.189	1487.1276	1497.6733	1664.0541	2379.9548	2995.9529	3030.6021	3258.7007	3282.7836
N#CCOC1=CON=C1	N#CCOc1conc1	
InChI=1S/C5H4N2O2/c6-1-2-8-5-3-7-9-4-5/h3-4H,2H2	InChI=1S/C5H4N2O2/c6-1-2-8-5-3-7-9-4-5/h3-4H,2H2
