21
gdb 61076	3.24428	1.05308	0.96671	2.1159	78.69	-0.2701	-0.0362	0.234	1306.3618	0.182975	-424.253567	-424.244542	-424.243597	-424.288224	33.673	
O	-0.0400105892	 1.5136444283	 0.3042542621	-0.431776
C	 0.0252180122	 0.1310562005	 0.0739761901	 0.022809
C	 0.7093943306	-0.1455760845	-1.2469810075	 0.142349
O	 1.1209501291	 0.744557495	-1.9529725905	-0.267462
C	 0.7305198501	-0.6077134788	 1.2321643587	 0.011549
C	 2.2032174753	-0.1460712122	 1.4259902752	-0.213563
C	 2.3888421944	 0.0064753875	 2.9456081635	-0.202539
C	 1.0140258151	 0.5033606414	 3.4156110553	-0.188193
C	 0.0262576836	-0.3502340825	 2.6005231795	-0.220163
H	 0.3490938325	 1.9289224247	-0.4817071166	 0.295659
H	-0.9949219842	-0.2881688186	-0.0181736449	 0.09278
H	 0.8117357132	-1.2121971951	-1.5348146764	 0.096126
H	 0.6930758554	-1.6776916011	 0.9961957155	 0.067908
H	 2.9209481079	-0.8364718628	 0.9733497689	 0.090766
H	 2.3370496298	 0.8293177175	 0.9467405516	 0.110653
H	 2.6107824507	-0.9669566829	 3.4014836324	 0.092862
H	 3.2085294729	 0.6821622139	 3.2065034152	 0.09501
H	 0.8645047847	 0.4119469498	 4.4952605044	 0.089276
H	 0.8933888214	 1.558738802	 3.1481282185	 0.114473
H	-0.9449871309	 0.1359441227	 2.4795124312	 0.10756
H	-0.1491227147	-1.3054626249	 3.1073041939	 0.093917
43.4439	72.2841	112.5639	229.9045	243.6496	278.1414	307.5636	367.3845	465.5582	535.6193	602.6809	636.933	711.1728	801.0914	837.9474	862.9566	875.8948	911.4625	919.9492	952.571	1000.9542	1005.3663	1030.0492	1055.0883	1092.6815	1132.5188	1187.814	1196.6708	1237.983	1249.765	1270.7533	1305.3216	1312.4101	1323.8069	1341.6963	1349.6615	1357.2242	1372.604	1404.4316	1433.2004	1482.7414	1487.518	1491.6494	1510.6845	1807.7892	2918.6089	2934.9622	3025.2465	3025.9813	3044.8913	3046.3761	3048.453	3083.8233	3090.3421	3095.4399	3104.0311	3689.3719
OC(C=O)C1CCCC1	O[C@@H](C=O)C1CCCC1	
InChI=1S/C7H12O2/c8-5-7(9)6-3-1-2-4-6/h5-7,9H,1-4H2	InChI=1S/C7H12O2/c8-5-7(9)6-3-1-2-4-6/h5-7,9H,1-4H2/t7-/m0/s1
