16
gdb 93132	3.05813	1.35489	1.12197	1.7832	65.15	-0.2586	-0.039	0.2196	1075.4908	0.123743	-475.030811	-475.022429	-475.021485	-475.06436	30.07	
O	 0.1388309796	 1.266780854	-0.2174796872	-0.443105
C	-0.1122501056	-0.1200960563	-0.0401856838	 0.080143
C	 0.6331385151	-0.6886791366	 1.1663057366	-0.198569
N	 0.057571675	-0.2451734362	 2.4389904438	-0.26661
C	-1.151258884	 0.1242204289	 2.4476622946	 0.115521
O	-2.0487252318	 0.162924792	 1.4285474817	-0.245001
C	-1.6154340209	-0.3706985521	 0.168866482	 0.032207
C	-2.4413753209	 0.3035159296	-0.91871094	 0.151309
O	-2.4776527853	-0.1087865467	-2.0460337405	-0.247844
H	 0.1669178392	 1.6825325495	 0.6517529747	 0.29699
H	 0.1901107878	-0.6090225705	-0.9704920514	 0.11733
H	 0.639136169	-1.7853268821	 1.1384788046	 0.123772
H	 1.6785752624	-0.3652629432	 1.1304382543	 0.12811
H	-1.6203679969	 0.4865962096	 3.3603311192	 0.136093
H	-1.8193860679	-1.448659716	 0.1445094696	 0.118784
H	-2.9962026448	 1.204364946	-0.5831114982	 0.100871
77.8038	86.9341	140.2064	201.5694	250.8023	303.0491	375.8658	397.6765	495.3172	539.3176	594.6565	702.3913	802.1904	876.2847	893.6429	943.5518	968.2669	985.9794	1011.619	1061.3352	1098.9098	1122.658	1171.8517	1229.9427	1252.0163	1303.7223	1318.3468	1349.2468	1364.8793	1401.2724	1407.4192	1421.4518	1477.1743	1727.2888	1843.3328	2922.1634	3030.5601	3038.8476	3076.1315	3084.6101	3164.9438	3801.4803
OC1CN=COC1C=O	O[C@H]1CN=CO[C@H]1C=O	
InChI=1S/C5H7NO3/c7-2-5-4(8)1-6-3-9-5/h2-5,8H,1H2	InChI=1S/C5H7NO3/c7-2-5-4(8)1-6-3-9-5/h2-5,8H,1H2/t4-,5-/m0/s1
