20
gdb 57728	2.97902	0.86519	0.7877	0.9646	78.56	-0.2597	-0.03	0.2298	1518.9204	0.167035	-440.296286	-440.285419	-440.284474	-440.333962	37.264	
C	 0.105590164	 1.643861522	 0.3053476981	-0.425634
C	 0.0406363151	 0.1160408032	 0.0936811267	 0.116987
C	 0.7619217838	-0.6074907507	 1.2510452808	-0.425635
C	-1.4078887466	-0.361298083	-0.0373656715	-0.082867
O	-2.0865500815	-0.0470463003	 1.1814509216	-0.199443
C	-3.3859804387	-0.3935568138	 1.248972216	 0.130989
N	-4.0494114963	-0.1482657458	 2.29414707	-0.440366
C	 0.7812203526	-0.2085989718	-1.1932687594	 0.150185
O	 0.301362651	-0.7523155172	-2.1554040175	-0.25967
H	 1.1436798467	 1.9867531085	 0.360821501	 0.119869
H	-0.3873673944	 2.1805492008	-0.511797107	 0.124641
H	-0.394928615	 1.9086453232	 1.2393155906	 0.153544
H	 0.2698333078	-0.371942741	 2.1972465459	 0.153557
H	 0.7421820617	-1.6937825049	 1.1155879508	 0.124655
H	 1.8078284107	-0.2914269555	 1.3178897173	 0.11986
H	-1.8962424795	 0.1362238265	-0.883654563	 0.118355
H	-1.4361976148	-1.4420007822	-0.2204341417	 0.118379
H	-3.7584128931	-0.8815450597	 0.3376122385	 0.089673
H	-5.0076790718	-0.4719016132	 2.1804734563	 0.230188
H	 1.8509145484	 0.1062853249	-1.1854208135	 0.082733
19.3449	67.6486	95.2603	117.7083	140.0296	203.4834	223.646	246.5579	303.7977	317.8154	347.5015	391.9591	475.807	571.6437	672.7915	789.5095	823.3562	901.9991	930.2479	959.8027	966.4564	994.7451	1032.162	1045.2046	1070.1492	1142.5509	1186.6993	1229.0237	1275.8029	1294.0791	1299.1875	1393.776	1399.3793	1408.6519	1427.0137	1436.5525	1481.246	1490.0787	1494.2577	1510.3013	1516.725	1748.5	1824.4138	2863.3941	3017.2966	3031.055	3036.7122	3040.5392	3071.189	3104.1339	3106.7285	3130.3536	3132.3395	3519.3557
CC(C)(COC=N)C=O	CC(C)(CO[CH][NH])C=O	
InChI=1S/C6H11NO2/c1-6(2,3-8)4-9-5-7/h3,5,7H,4H2,1-2H3	InChI=1S/C6H11NO2/c1-6(2,3-8)4-9-5-7/h3,5,7H,4H2,1-2H3
