18
gdb 50227	4.19361	1.10543	1.03998	1.3485	75.99	-0.2309	-0.0273	0.2036	1171.2686	0.148046	-401.878401	-401.870929	-401.869985	-401.910764	29.078	
O	 0.0285310125	-0.0976086738	 0.0294879102	-0.255211
C	 0.057478674	 1.1043819508	 0.0962026545	 0.152796
C	 1.301432783	 1.9454865982	 0.0224611268	-0.095965
C	 1.1670346917	 3.2040050368	-0.9115096274	-0.282808
C	 1.3619487967	 4.1429269711	 0.3066921625	 0.037932
C	 1.4643637894	 2.9232975533	 1.2428851257	-0.052317
C	 2.8859178582	 3.4005805189	 1.5754032467	-0.037183
C	 3.7405394702	 3.5974607323	 0.3925546564	-0.242511
N	 2.7459415724	 4.643463769	 0.6913784766	-0.149063
H	-0.883478725	 1.6916725221	 0.2306420245	 0.069101
H	 2.1555761536	 1.2919501808	-0.1635097372	 0.096525
H	 1.8905678484	 3.2775107333	-1.7260654841	 0.122305
H	 0.1650734648	 3.3009555721	-1.3411734809	 0.11386
H	 0.6359621356	 4.9432801969	 0.4451689783	 0.089011
H	 0.8066783883	 2.7813383025	 2.0999848088	 0.083756
H	 3.2766884832	 3.471586653	 2.5857585689	 0.101876
H	 4.7538767813	 3.9437434198	 0.5740490869	 0.126529
H	 3.6452514916	 2.9734581929	-0.4898874573	 0.121367
70.5305	112.6676	254.4361	283.6913	324.9713	411.3301	456.4739	547.7785	688.1911	708.1483	717.4111	813.3201	845.9132	870.7678	893.4205	906.0906	950.7609	986.0766	1003.2207	1026.1081	1056.4862	1066.4814	1109.3166	1116.4219	1141.9082	1170.9587	1179.821	1214.3524	1222.042	1241.339	1266.0239	1271.1124	1302.3287	1327.6869	1364.6612	1434.0318	1469.2828	1510.5443	1828.4397	2836.3866	3055.6783	3097.0813	3108.5768	3114.7572	3119.5441	3125.9504	3157.0091	3205.0908
O=CC1CC2C1C1CN21	O=C[C@H]1C[C@H]2[C@@H]1[C@H]1CN21	
InChI=1S/C7H9NO/c9-3-4-1-5-7(4)6-2-8(5)6/h3-7H,1-2H2	InChI=1S/C7H9NO/c9-3-4-1-5-7(4)6-2-8(5)6/h3-7H,1-2H2/t4-,5+,6-,7-,8?/m1/s1
