19
gdb 92938	2.29775	1.52645	1.21952	0.9645	83.09	-0.2477	0.0034	0.2511	1118.3329	0.157303	-385.86601	-385.856735	-385.855791	-385.899518	35.596	
C	-0.6837192817	 1.1290354238	 0.1085359433	-0.406517
C	 0.1919089382	-0.0958149258	-0.1345223029	 0.00842
C	 1.3417496026	 0.0930298797	-1.1536043732	-0.285254
C	 2.3909162248	-0.8756541352	-0.6715729029	-0.075006
C	 2.142459833	-1.3113091437	 0.5612076197	-0.110837
C	 0.898376184	-0.6553939625	 1.1432047817	 0.155494
O	 1.2588604268	 0.4616398958	 1.9734787261	-0.454063
C	 0.0538897444	-1.5819561991	 1.9027540766	 0.29851
C	-0.6171307324	-2.3423286444	 2.5495972951	-0.476566
H	-0.0955550518	 1.9612448357	 0.5016868266	 0.134294
H	-1.1563479861	 1.4485214007	-0.8261739591	 0.105384
H	-1.4771755161	 0.9077540456	 0.8289333867	 0.121733
H	-0.4339526337	-0.9148193531	-0.5042983132	 0.091724
H	 1.0149164287	-0.1026262058	-2.1810104278	 0.103599
H	 1.7292923971	 1.1212452873	-1.1384515969	 0.116194
H	 3.2585086401	-1.1470141381	-1.2635623744	 0.099303
H	 2.7537378087	-1.9904908264	 1.1441909813	 0.097304
H	 1.6451398783	 0.1097366651	 2.7825867005	 0.279941
H	-1.2169871549	-3.0129308796	 3.113950233	 0.196343
83.8299	137.9665	169.3101	219.2825	230.2166	275.4215	289.7959	332.7087	468.3375	476.5975	515.6516	551.3155	587.7777	629.8613	654.2712	701.1315	749.7108	783.8352	888.5831	929.7069	961.0424	972.9041	977.087	1031.4032	1078.1203	1113.3859	1121.0111	1144.8872	1160.118	1208.6804	1302.9304	1315.5071	1338.6578	1364.7799	1382.4003	1409.605	1482.744	1492.6651	1500.5604	1680.3654	2227.675	3015.276	3039.8925	3046.7449	3065.6212	3103.1707	3129.7135	3182.3003	3209.467	3500.2771	3813.6113
CC1CC=CC1(O)C#C	C[C@H]1CC=C[C@]1(O)C#C	
InChI=1S/C8H10O/c1-3-8(9)6-4-5-7(8)2/h1,4,6-7,9H,5H2,2H3	InChI=1S/C8H10O/c1-3-8(9)6-4-5-7(8)2/h1,4,6-7,9H,5H2,2H3/t7-,8+/m0/s1
