15
gdb 86853	2.90508	1.26314	1.0417	3.8053	65.19	-0.262	-0.0137	0.2482	1133.9008	0.113759	-453.988525	-453.980324	-453.979379	-454.021838	29.6	
N	 0.280671161	 1.0758879845	 0.6244636323	-0.509675
C	-0.1952598063	-0.0863646503	-0.0997840391	-0.115463
C	-1.6811880277	-0.0439809169	-0.4665025299	-0.24801
C	-1.7370060739	-0.9834579362	-1.6915509949	-0.050633
O	-0.4555066696	-0.8660510027	-2.3327882609	-0.213684
C	 0.4680155786	-0.3406578988	-1.4631278728	 0.424009
O	 1.5924893394	-0.114687449	-1.7909932808	-0.323811
C	-1.9812678847	-2.3854092279	-1.3138816135	 0.287587
N	-2.1888343842	-3.4773655558	-1.0000872512	-0.306451
H	 1.2730348145	 0.9634540368	 0.8142250348	 0.25056
H	 0.2069357634	 1.9021460343	 0.0356877597	 0.235132
H	 0.0025782178	-0.9761375606	 0.5131991489	 0.139838
H	-2.34681883	-0.3566928908	 0.3372843021	 0.150884
H	-1.9628335543	 0.9667110515	-0.7789955849	 0.127692
H	-2.4939631038	-0.6843508781	-2.4204118897	 0.152024
75.3076	92.9759	190.0732	218.0192	262.9682	281.2939	373.6687	465.1924	488.9999	577.7016	611.2061	710.9635	767.3561	798.1937	834.5665	910.3498	968.4154	998.8661	1015.1274	1049.0256	1134.4553	1159.9156	1193.8124	1239.0396	1291.218	1303.61	1341.5685	1372.5395	1415.8647	1488.0155	1667.5462	1897.1125	2363.6342	3027.6235	3065.139	3092.1431	3145.786	3484.6003	3560.6629
NC1CC(OC1=O)C#N	N[C@H]1C[C@@H](OC1=O)C#N	
InChI=1S/C5H6N2O2/c6-2-3-1-4(7)5(8)9-3/h3-4H,1,7H2	InChI=1S/C5H6N2O2/c6-2-3-1-4(7)5(8)9-3/h3-4H,1,7H2/t3-,4+/m1/s1
