18
gdb 97180	2.56934	1.38594	0.94058	2.9795	76.74	-0.2566	-0.0116	0.245	1241.7452	0.14778	-439.142408	-439.133672	-439.132728	-439.1768	31.48	
C	 0.0351713697	 1.4502566854	-0.1394643222	-0.33793
N	 0.2112872203	 0.0083095837	-0.1194974785	-0.273048
C	 0.5072072753	-0.6045778431	 0.9372803373	 0.411805
C	 0.7151206658	-2.0930928974	 0.9777995416	-0.290217
C	 0.1258597771	-2.6899337239	 2.2580746806	-0.231642
C	 0.7820832472	-2.0116863448	 3.4604947493	-0.329547
C	 0.7876111373	-0.4966284133	 3.3841735618	 0.409088
O	 0.8992295353	 0.2243068031	 4.331916768	-0.300807
O	 0.6767807158	 0.0830935981	 2.1412218133	-0.243757
H	 0.7627989079	 1.8797084772	-0.8371745412	 0.132115
H	-0.9575868304	 1.6733097777	-0.5452247259	 0.130676
H	 0.1433260748	 1.9384332723	 0.8333710275	 0.136437
H	 0.2761957072	-2.5109120166	 0.0714407384	 0.138397
H	 1.7940894366	-2.3001848047	 0.9464830481	 0.124333
H	-0.958881641	-2.5333328058	 2.2787972206	 0.121359
H	 0.2943451634	-3.7696337256	 2.2937124339	 0.115169
H	 0.3161360492	-2.2773618962	 4.4117783257	 0.144159
H	 1.8343854383	-2.3181022661	 3.5339421516	 0.143411
63.1359	67.917	99.201	201.618	214.096	304.3064	401.6018	433.2471	483.2585	532.9445	570.4199	628.7246	661.778	734.8582	871.0429	913.4478	936.3867	954.5158	1029.6787	1050.6848	1081.2602	1128.9928	1133.9499	1160.178	1173.6636	1229.1243	1258.5536	1288.7941	1354.0206	1362.2772	1370.6233	1437.1768	1459.2366	1477.5464	1492.3563	1497.222	1502.0704	1786.5906	1865.1188	3017.7049	3027.9251	3031.3672	3046.283	3084.9036	3094.8754	3108.3746	3113.3251	3131.3379
CN=C1CCCC(=O)O1	CN=C1CCCC(=O)O1	
InChI=1S/C6H9NO2/c1-7-5-3-2-4-6(8)9-5/h2-4H2,1H3	InChI=1S/C6H9NO2/c1-7-5-3-2-4-6(8)9-5/h2-4H2,1H3
