21
gdb 82909	2.58351	1.49168	1.42428	1.4915	81.34	-0.2304	0.0714	0.3017	1068.5063	0.183518	-387.066026	-387.057739	-387.056795	-387.098248	33.527	
C	 0.0218242755	 1.5562052266	-0.0027845822	-0.484584
C	 0.0375061325	 0.0448912014	 0.0492257667	 0.365346
C	-0.5783992227	-0.6666320531	 1.2355450001	-0.346104
C	 0.9158000099	-0.7272653638	 1.0160497394	-0.07389
C	 1.5381273783	-1.9189027293	 0.2780346782	-0.251804
C	 1.1127899726	-1.8160220375	-1.1941560948	-0.109956
C	-0.3231844381	-2.0744669565	-1.5687212919	 0.078578
O	-1.2186251894	-2.7508443279	-0.7317056915	-0.408094
C	 0.1181401436	-0.6577634583	-1.2996104858	-0.139712
H	 0.8522204988	 1.9466224487	-0.6037867006	 0.110802
H	-0.9104862762	 1.9326408295	-0.4406741471	 0.116572
H	 0.1086762747	 1.9821795327	 1.0017117544	 0.111846
H	-0.9143015478	-0.0297504813	 2.0492067475	 0.093514
H	-1.178376899	-1.5488710913	 1.0723224259	 0.140395
H	 1.5452388749	-0.1983178169	 1.7254664269	 0.075049
H	 2.6293760188	-1.8605413154	 0.3364312957	 0.101338
H	 1.2527422054	-2.8793699324	 0.7256084863	 0.091759
H	 1.8711675956	-1.9948522334	-1.9502080876	 0.079088
H	-0.4875894071	-2.2893073406	-2.6264849793	 0.083074
H	-0.940444166	-3.672398119	-0.6931537766	 0.287327
H	 0.1226823756	 0.0009908777	-2.1621797236	 0.079455
121.8259	208.3609	225.7052	232.6617	262.1283	300.4493	335.1772	431.3388	515.9903	567.7024	637.6316	674.3075	712.2778	745.0777	807.4531	827.6781	848.4404	870.1681	944.0348	977.1477	1010.7974	1015.6689	1035.6554	1053.4218	1072.6511	1082.9422	1108.9919	1115.009	1123.4185	1127.7461	1221.7031	1232.5599	1248.8392	1286.0335	1299.5431	1309.7401	1346.6384	1375.0145	1401.4311	1416.4056	1453.3048	1484.1827	1488.3195	1497.793	1502.2312	3016.8684	3024.5593	3073.0238	3073.5572	3074.147	3095.9243	3131.2523	3146.3218	3148.4877	3158.2197	3259.1493	3797.9619
CC12CC1CC1C(O)C21	C[C@]12C[C@H]1C[C@H]1[C@@H](O)[C@@H]21	
InChI=1S/C8H12O/c1-8-3-4(8)2-5-6(8)7(5)9/h4-7,9H,2-3H2,1H3	InChI=1S/C8H12O/c1-8-3-4(8)2-5-6(8)7(5)9/h4-7,9H,2-3H2,1H3/t4-,5-,6+,7-,8+/m1/s1
