25
gdb 104879	2.11756	1.29414	1.04931	1.4733	87.59	-0.2455	0.0752	0.3206	1333.6959	0.22934	-389.504496	-389.49437	-389.493426	-389.539799	38.154	
C	 0.2975205746	-0.8756744952	 0.9989157602	-0.401457
C	-0.1211865262	-0.1981502947	-0.3101167693	-0.218179
C	 0.8549577143	-0.3512773618	-1.5025545927	 0.34223
C	 2.2684536835	 0.1800264081	-1.1942987521	-0.240586
C	 2.3459323734	 1.6647674468	-0.8162912875	-0.397359
C	 0.8960023036	-1.835887106	-1.9922953103	-0.295128
C	 0.1101307911	-1.8282615901	-3.3233710519	-0.075539
O	-0.6208741861	-0.6110638171	-3.3408154381	-0.245709
C	 0.2308270627	 0.3472118937	-2.7390328746	-0.126623
H	 0.4791439917	-1.9481785649	 0.8708276279	 0.116171
H	 1.2100364064	-0.4354831225	 1.4137059388	 0.11735
H	-0.4880864785	-0.7668289992	 1.7533018012	 0.113931
H	-1.0936064829	-0.590692145	-0.6311738669	 0.105146
H	-0.2806737035	 0.869579836	-0.1164595395	 0.093383
H	 2.7130741802	-0.4203026875	-0.3917512541	 0.098375
H	 2.8956043231	 0.0052146822	-2.0783854957	 0.090369
H	 3.3859594015	 1.9686898675	-0.6621121028	 0.113619
H	 1.930821658	 2.3047679497	-1.602319214	 0.119571
H	 1.8010366246	 1.8805298637	 0.107938931	 0.120886
H	 1.9216951769	-2.1857335563	-2.1383850829	 0.09575
H	 0.4285070694	-2.5034366051	-1.2647753307	 0.104516
H	 0.7998063362	-1.8694589732	-4.1822917002	 0.085802
H	-0.6035217804	-2.6503894783	-3.4218702243	 0.105538
H	-0.3754199861	 1.222851964	-2.4925467138	 0.10283
H	 1.0213863223	 0.6587075053	-3.4448644379	 0.075114
41.7485	100.9598	128.4759	187.1205	211.7711	228.8552	251.4029	293.3914	340.3095	376.7513	406.9716	473.3684	610.2369	665.1063	751.3188	773.8763	797.3005	834.8796	902.9859	942.4871	953.2809	979.0287	980.9284	1018.0114	1044.1102	1047.7994	1049.3618	1092.7514	1116.6379	1185.9165	1189.5174	1195.108	1241.2022	1267.3173	1289.0408	1297.4262	1318.2787	1336.7715	1359.3764	1366.0086	1380.2399	1405.496	1412.1197	1415.6303	1482.4707	1487.9531	1497.3193	1500.1663	1501.673	1506.0418	1508.445	1513.3434	1524.8344	2942.983	2968.3254	3017.8642	3024.4763	3033.9354	3036.9275	3051.3973	3057.2623	3060.7898	3085.3626	3089.8065	3098.723	3100.327	3102.1882	3107.277	3107.9552
CCC1(CC)CCOC1	CCC1(CC)CCOC1	
InChI=1S/C8H16O/c1-3-8(4-2)5-6-9-7-8/h3-7H2,1-2H3	InChI=1S/C8H16O/c1-3-8(4-2)5-6-9-7-8/h3-7H2,1-2H3
