18
gdb 85633	3.19743	1.14761	0.94792	5.067	79.63	-0.2451	-0.0461	0.199	1261.6634	0.148549	-398.160569	-398.151822	-398.150878	-398.193916	32.669	
C	 0.1272238189	 1.5348499299	-0.2613781575	-0.405069
C	 0.0019910418	 0.0420280207	 0.0514036172	 0.002892
N	 0.578858254	-0.7929865747	-1.0241840933	-0.353203
C	 1.8411724697	-1.1555688886	-0.5736058086	 0.275989
N	 2.0908836131	-1.0212229441	 0.6735323666	-0.298864
C	 0.8485887297	-0.4761789019	 1.2647259108	 0.039147
C	 1.1429189812	 0.5204355615	 2.3796243523	-0.402541
C	 2.7868147029	-1.6996871609	-1.5119058705	 0.252232
N	 3.5224371741	-2.1184638914	-2.2985752756	-0.31766
H	 1.1732203193	 1.8290728512	-0.3923243306	 0.134065
H	-0.4141224816	 1.7780151142	-1.1819986023	 0.118312
H	-0.3015241878	 2.1404927033	 0.5419908228	 0.131365
H	-1.0521453648	-0.2153019973	 0.1875306418	 0.092415
H	 0.4957654194	-0.4691741145	-1.9788887042	 0.250326
H	 0.3161513172	-1.3345264971	 1.6998834644	 0.101648
H	 1.7128277053	 1.3781656875	 2.0131056549	 0.126392
H	 0.21692005	 0.8861788375	 2.8345813969	 0.115647
H	 1.7365636876	 0.0318525848	 3.1560256349	 0.136905
93.6626	118.3092	161.4309	234.7637	264.7668	273.2902	319.835	379.8331	450.3311	499.6344	555.2837	569.591	626.0421	717.0932	732.8288	761.5664	897.4608	924.4065	993.5467	1000.6019	1041.9065	1089.2282	1121.4718	1148.5711	1159.15	1252.8751	1286.1322	1316.7312	1354.7765	1380.0413	1407.5717	1412.9393	1448.4449	1484.2194	1490.1729	1500.5323	1506.5741	1668.2887	2364.8089	2994.4645	3036.4568	3046.7576	3063.65	3104.2487	3117.1325	3121.5449	3129.547	3582.9558
CC1NC(=NC1C)C#N	C[C@H]1N[C]([N][C@H]1C)C#N	
InChI=1S/C6H9N3/c1-4-5(2)9-6(3-7)8-4/h4-5H,1-2H3,(H,8,9)	InChI=1S/C6H9N3/c1-4-5(2)9-6(3-7)8-4/h4-5H,1-2H3,(H,8,9)/t4-,5+
