20
gdb 89829	3.17102	1.24842	0.99501	3.6013	80.67	-0.2346	0.0374	0.272	1238.007	0.171895	-403.186572	-403.177891	-403.176946	-403.220064	32.722	
C	-0.0869186153	 1.355095346	 0.3290397989	-0.342453
N	-0.0268632871	-0.0456089783	-0.0117337789	-0.074843
C	-1.1362878108	-0.745039906	-0.6331825859	-0.235935
C	-0.6751123175	-2.2039959558	-0.6338883588	 0.356328
C	-1.474012261	-3.2476735238	 0.1047203013	-0.303358
C	-1.4176752585	-3.2544088974	-1.4058949976	-0.318738
C	 0.8407064709	-2.1584287428	-0.523163449	-0.434584
C	 1.1342282456	-0.7732501444	 0.058067902	 0.415553
O	 2.196349647	-0.3689190747	 0.4842407051	-0.395796
H	 0.8835343241	 1.6354826496	 0.7421294923	 0.16543
H	-0.2950001878	 1.9737931347	-0.5542043504	 0.119942
H	-0.8690422845	 1.5469753166	 1.0736168287	 0.121742
H	-2.0622530712	-0.5991096138	-0.0622478283	 0.106912
H	-1.3171519253	-0.3671923725	-1.6529311612	 0.101496
H	-0.9300219838	-4.0192583871	 0.6398360648	 0.117464
H	-2.4023645465	-2.9455609488	 0.5789371626	 0.113234
H	-2.3086403381	-2.9553582825	-1.9497324001	 0.112685
H	-0.8410697416	-4.0325325344	-1.8952758745	 0.11668
H	 1.2678374177	-2.9363808769	 0.1134428397	 0.130319
H	 1.3370234839	-2.2251214078	-1.4996561106	 0.127921
67.8418	136.893	156.2986	188.3464	242.5341	308.0416	337.006	386.5447	470.5642	491.9679	583.9874	656.3182	768.3064	781.7763	806.1292	880.0132	903.314	954.9786	985.9853	1004.3524	1015.6543	1059.7139	1072.4345	1087.5918	1128.1317	1155.5458	1179.847	1188.8613	1213.1182	1260.464	1285.2632	1296.3647	1314.1413	1384.2287	1432.2459	1452.364	1466.9155	1471.5008	1493.1689	1506.1115	1514.3188	1542.178	1808.2071	2965.4061	3009.1173	3029.2852	3035.6172	3058.7845	3105.8258	3122.5286	3126.8384	3142.6776	3201.2562	3216.3565
CN1CC2(CC2)CC1=O	CN1CC2(CC2)CC1=O	
InChI=1S/C7H11NO/c1-8-5-7(2-3-7)4-6(8)9/h2-5H2,1H3	InChI=1S/C7H11NO/c1-8-5-7(2-3-7)4-6(8)9/h2-5H2,1H3
