18
gdb 71743	2.88923	2.21091	1.67588	1.2407	72.28	-0.2252	0.0775	0.3027	855.8312	0.150379	-401.906109	-401.899802	-401.898858	-401.93631	27.009	
C	 0.0159351498	 1.502990109	-0.0095085969	-0.503536
C	 0.0558942668	-0.0053905167	-0.0598082034	 0.309006
C	 0.5371463415	-0.7337327233	-1.2963581295	-0.228067
N	 0.4002973534	-2.1460922582	-0.886170755	-0.13229
C	-0.7498645341	-2.2061846581	 0.041584813	-0.06052
C	 0.6425769152	-2.1869914632	 0.5721982601	-0.060522
C	 0.6351137013	-0.7660013672	 1.1809131172	 0.018163
O	-0.6604743328	-0.6641060688	 1.8438860369	-0.301697
C	-1.1835278443	-0.79106593	 0.4878767262	 0.018164
H	 1.0133213525	 1.9308494609	-0.1590296944	 0.118505
H	-0.6391058304	 1.9080673571	-0.7886321189	 0.118505
H	-0.3586588058	 1.8393281584	 0.9614577487	 0.137041
H	-0.0811684393	-0.5431556981	-2.1806276246	 0.106765
H	 1.5822747981	-0.5202308516	-1.5467354036	 0.106766
H	-1.4068350722	-3.064831395	 0.0022212037	 0.098862
H	 1.1796100421	-3.0291798425	 0.9878281834	 0.098862
H	 1.4741794302	-0.4265592053	 1.7869855445	 0.077997
H	-2.2210040222	-0.4774863074	 0.3788494528	 0.077997
241.1298	256.8469	269.2021	400.6288	510.7444	522.3083	617.4431	693.0311	728.7481	748.3913	795.6249	813.4768	864.3951	868.8537	886.0093	900.0361	934.7981	950.0574	982.7544	1011.2289	1025.4519	1049.0463	1066.5506	1140.6407	1156.3471	1168.0365	1217.0773	1221.0433	1233.1362	1235.3648	1274.0278	1276.1164	1309.976	1335.6193	1378.8401	1410.264	1492.137	1494.5319	1501.4434	3030.1248	3039.3846	3084.9336	3091.948	3112.1721	3129.8795	3132.5225	3198.2863	3208.3277
CC12CN3C4C3C1OC24	C[C@@]12CN3[C@H]4[C@@H]3[C@@H]1O[C@@H]24	
InChI=1S/C7H9NO/c1-7-2-8-3-4(8)6(7)9-5(3)7/h3-6H,2H2,1H3	InChI=1S/C7H9NO/c1-7-2-8-3-4(8)6(7)9-5(3)7/h3-6H,2H2,1H3/t3-,4+,5+,6-,7-,8?
