17
gdb 85107	1.98654	1.58088	1.2296	4.0111	74.53	-0.2612	0.001	0.2622	1112.1365	0.133143	-421.825904	-421.816596	-421.815652	-421.859788	34.091	
C	-0.3564305768	 1.4669177072	-0.0283852818	-0.416761
C	 0.1225666492	 0.0346415959	-0.0400188897	 0.131986
O	 1.3982010826	-0.1161498088	-0.7599196236	-0.262222
C	 2.0101914782	-0.7127777299	 0.303011884	 0.456793
O	 3.1242673539	-1.1135234167	 0.3832884691	-0.326939
C	 0.7737082424	-0.6040094884	 1.2355425856	-0.121189
C	 1.0213162708	 0.2985935746	 2.4532176689	-0.447644
C	 0.2039154819	-1.882262639	 1.6204929364	 0.296973
C	-0.2776613742	-2.9364465943	 1.9386623552	-0.456811
H	 0.3961366358	 2.1453132514	 0.3796278168	 0.133598
H	-0.5862731911	 1.7873714884	-1.0486888031	 0.142182
H	-1.2699532987	 1.553980429	 0.5683249825	 0.134094
H	-0.6162727594	-0.6295424819	-0.4939829357	 0.1109
H	 1.4902171394	 1.242138964	 2.1646354747	 0.131065
H	 0.0819539777	 0.5113309	 2.9701793694	 0.134747
H	 1.6892798883	-0.2136745721	 3.1492781162	 0.153971
H	-0.69294194	-3.8728907793	 2.2196197149	 0.205257
87.2066	122.3179	153.5225	198.1553	214.2402	227.4223	287.8791	314.8231	398.5543	466.8073	520.7345	593.8694	633.8382	643.2872	650.9518	725.9789	755.2404	839.8324	874.3318	964.8575	1021.5953	1054.0414	1094.2273	1147.317	1160.3517	1191.6239	1226.8039	1320.8564	1384.0426	1409.0418	1415.2945	1477.5253	1486.0061	1494.9426	1503.8897	1939.7652	2237.2122	3046.5249	3053.5575	3087.303	3116.5387	3128.6623	3133.5898	3137.965	3500.3477
CC1OC(=O)C1(C)C#C	C[C@H]1OC(=O)[C@]1(C)C#C	
InChI=1S/C7H8O2/c1-4-7(3)5(2)9-6(7)8/h1,5H,2-3H3	InChI=1S/C7H8O2/c1-4-7(3)5(2)9-6(7)8/h1,5H,2-3H3/t5-,7-/m1/s1
