19
gdb 71956	2.89014	1.88527	1.63838	1.8471	72.88	-0.2535	0.0919	0.3454	910.2076	0.161888	-423.034364	-423.027661	-423.026717	-423.06498	28.387	
C	 0.0040105223	 1.5436622883	 0.008166035	-0.497289
C	 0.0027578366	 0.0287114171	-0.0136688347	 0.291644
C	 0.2993119671	-0.7262841037	-1.3410083914	-0.291124
C	-0.6565571271	-1.8334234922	-0.8541793076	 0.067656
O	-0.0231222586	-2.6853949371	 0.1100836133	-0.2758
C	-0.0767678783	-1.9293012056	 1.3162651972	 0.170294
C	 0.7794976551	-0.6610727596	 1.1416488103	-0.280928
O	-1.3972636686	-1.4109311517	 1.3564850086	-0.240934
C	-1.3501492538	-0.7901280511	 0.0902920488	 0.033587
H	 1.0190328292	 1.940996477	-0.1081739683	 0.119646
H	-0.6057233202	 1.953367748	-0.8047686837	 0.111835
H	-0.3948600102	 1.9247866782	 0.9549064411	 0.121215
H	-0.1114950667	-0.1993269599	-2.2092337367	 0.096303
H	 1.3317221424	-1.0203032726	-1.5460713975	 0.103231
H	-1.2093883726	-2.448969675	-1.5639649508	 0.080934
H	 0.1196454176	-2.5788772352	 2.1678126707	 0.092418
H	 1.8183663058	-0.8841854369	 0.8879260987	 0.106691
H	 0.7531440001	-0.0632302296	 2.0576905452	 0.104073
H	-2.2971548702	-0.3304302684	-0.1811852081	 0.086548
208.6589	235.6674	269.2757	371.6069	392.3781	472.6578	549.7226	621.6397	640.1858	720.7744	783.0474	829.4341	840.4418	869.2447	883.2172	906.2317	934.8492	958.4759	966.2731	997.236	1015.7605	1051.8457	1073.9861	1105.6686	1126.2134	1155.173	1184.4506	1222.6206	1232.4908	1247.0206	1262.418	1276.8597	1310.8477	1321.7312	1360.1116	1368.9489	1412.3102	1469.3603	1485.6654	1492.4141	1495.8285	3021.721	3043.9801	3057.6312	3086.9416	3092.3321	3106.3016	3110.3153	3115.9137	3144.1504	3158.6242
CC12CC3OC(C1)OC23	C[C@@]12C[C@H]3O[C@@H](C1)O[C@@H]23	
InChI=1S/C7H10O2/c1-7-2-4-6(7)9-5(3-7)8-4/h4-6H,2-3H2,1H3	InChI=1S/C7H10O2/c1-7-2-4-6(7)9-5(3-7)8-4/h4-6H,2-3H2,1H3/t4-,5-,6-,7-/m1/s1
