16
gdb 50033	3.54471	1.08933	1.00058	3.0505	72.27	-0.2426	-0.0322	0.2104	1189.7795	0.12433	-437.891946	-437.88414	-437.883196	-437.925044	28.605	
O	 0.0099696055	-0.0387136651	-0.2105103737	-0.262068
C	 0.0627412352	 1.1362153456	 0.055955834	 0.162156
C	 1.2990585281	 1.9453910866	 0.076765062	-0.153934
C	 1.1892427898	 3.4386374473	-0.221633937	-0.349605
C	 1.4903547794	 3.004637585	 1.1674702794	 0.308459
C	 0.5499231271	 3.1990530415	 2.3687290124	-0.179758
O	 1.4655684637	 3.4732822015	 3.4568222902	-0.219834
C	 2.7024355231	 3.4246466992	 2.9102406518	 0.113621
N	 2.8359538558	 3.1752288044	 1.672907498	-0.293346
H	-0.8647491557	 1.7079117026	 0.3047905673	 0.061428
H	 2.1996173146	 1.429570228	-0.2344279546	 0.126327
H	 1.9917535848	 3.8849043135	-0.7960357575	 0.144195
H	 0.1955133738	 3.8262080335	-0.4291280662	 0.124984
H	-0.1214851324	 4.0560718625	 2.2593878014	 0.129724
H	-0.0340529421	 2.3146424589	 2.6355226111	 0.136016
H	 3.5112068592	 3.6143645249	 3.6057331412	 0.151636
62.2528	106.5319	154.1915	239.1446	337.4661	370.8855	406.9534	461.0746	541.9004	611.7432	799.3944	841.7196	861.6501	875.9422	939.3699	959.9068	967.795	992.877	1039.0073	1057.7379	1066.4818	1083.9258	1124.7282	1168.3476	1203.3779	1218.1683	1288.2245	1325.8265	1357.6205	1395.783	1447.632	1475.5068	1514.9322	1693.2996	1819.4231	2828.6998	3051.89	3100.734	3127.0692	3196.3775	3229.0407	3230.1165
O=CC1CC11COC=N1	O=C[C@H]1C[C@]21COC=N2	
InChI=1S/C6H7NO2/c8-2-5-1-6(5)3-9-4-7-6/h2,4-5H,1,3H2	InChI=1S/C6H7NO2/c8-2-5-1-6(5)3-9-4-7-6/h2,4-5H,1,3H2/t5-,6-/m1/s1
