18
gdb 98028	5.72537	0.59709	0.56674	3.8297	88.8	-0.2459	-0.0123	0.2336	1981.6288	0.146553	-401.939771	-401.929692	-401.928747	-401.977173	34.384	
C	-0.0082078076	 1.4482465556	-0.2776898927	-0.338189
N	-0.1079385931	 0.0039053241	-0.2473531369	-0.310229
C	-1.2275727054	-0.6466197178	 0.1925105182	 0.251303
O	-2.2296011323	-0.0782406416	 0.5938675077	-0.364626
C	-1.1150852586	-2.0935005073	 0.1382664806	-0.039584
C	-1.0801302616	-3.3006326532	 0.1163476487	 0.16063
C	-1.052409183	-4.7296188954	 0.0958277051	-0.173836
C	-1.7764183787	-5.5160331278	 1.1825262094	-0.249895
C	-2.3281112782	-5.5067644137	-0.2078032729	-0.249894
H	 0.8101506531	 1.8059223899	 0.3575931655	 0.125704
H	 0.153522011	 1.8165105282	-1.2972263545	 0.125698
H	-0.9508360832	 1.8467102159	 0.0988958269	 0.173014
H	 0.6680624136	-0.5560746325	-0.5593208099	 0.251168
H	-0.1307469681	-5.1696516684	-0.27283602	 0.114088
H	-1.2865359019	-6.4130454773	 1.5436400368	 0.123576
H	-2.2924745148	-4.9404342533	 1.9411678103	 0.138749
H	-3.2212748785	-4.9248174025	-0.3995298556	 0.138749
H	-2.2231815728	-6.3973039027	-0.8168571669	 0.123575
21.6385	68.2281	69.4016	78.5801	149.312	171.6635	265.9171	310.4541	405.422	467.81	512.1145	536.675	598.8049	758.8205	764.5362	803.8824	822.8219	881.4249	887.8028	983.3588	1063.1164	1083.0614	1084.4947	1115.1918	1151.8366	1165.7215	1176.1998	1202.3949	1215.2108	1267.5199	1390.4241	1437.4739	1467.6984	1490.1399	1496.3259	1498.7707	1556.2244	1751.3879	2334.9776	3025.0118	3075.4881	3143.9902	3146.5015	3151.9764	3154.337	3230.4406	3245.2424	3649.5146
CNC(=O)C#CC1CC1	CNC(=O)C#CC1CC1	
InChI=1S/C7H9NO/c1-8-7(9)5-4-6-2-3-6/h6H,2-3H2,1H3,(H,8,9)	InChI=1S/C7H9NO/c1-8-7(9)5-4-6-2-3-6/h6H,2-3H2,1H3,(H,8,9)
