18
gdb 76052	2.64751	1.29816	1.11012	1.5524	79.17	-0.2346	0.0238	0.2584	1162.4915	0.145378	-401.853309	-401.844302	-401.843358	-401.887039	33.23	
C	-0.2428141128	 1.4714776507	-0.0691283162	-0.324213
N	 0.0127967478	 0.0366896114	-0.0000914276	-0.14499
C	 1.3778245283	-0.4664278131	-0.2868628048	-0.289781
C	 2.4683011951	 0.4224546691	-0.576231109	 0.356094
C	 3.3866807624	 1.159064081	-0.8258544633	-0.463409
C	 0.7909082017	-0.476669262	 1.0907199104	 0.283665
C	 1.3245687046	 0.2168989017	 2.3444585793	-0.148209
O	 0.9992516027	-0.9477828764	 3.1346552341	-0.275638
C	 0.4165111594	-1.637139175	 2.0056134948	-0.142994
H	 0.6010897685	 2.0951673222	 0.255431168	 0.121825
H	-0.4875613947	 1.7366591916	-1.1012830041	 0.132759
H	-1.110613618	 1.6975800755	 0.5575826674	 0.128844
H	 1.3806691873	-1.394660496	-0.8551423443	 0.117995
H	 4.199606909	 1.8044542549	-1.0510568154	 0.203871
H	 2.3972151909	 0.4425639418	 2.3513169612	 0.118823
H	 0.7653295766	 1.104769871	 2.6677718628	 0.105191
H	-0.6638472284	-1.7922344049	 2.1210600877	 0.111318
H	 0.9064784095	-2.5982760436	 1.8084400393	 0.108849
88.0156	124.5708	140.286	189.0596	198.0325	234.7893	342.8969	359.2173	438.4436	505.9629	592.8555	597.4234	630.6202	669.096	731.8071	853.6011	871.3604	954.2467	979.8457	1019.923	1027.4749	1058.5137	1102.8245	1130.0722	1144.0954	1146.7098	1160.4026	1182.0468	1214.9189	1301.8151	1327.1306	1355.9983	1438.0663	1471.0578	1489.0069	1499.5795	1503.9607	1528.526	2228.823	3005.3546	3010.1488	3018.6635	3060.7528	3061.2423	3086.477	3115.7929	3121.5438	3500.6833
CN1C(C#C)C11COC1	CN1[C@@H](C#C)C21COC2	
InChI=1S/C7H9NO/c1-3-6-7(8(6)2)4-9-5-7/h1,6H,4-5H2,2H3	InChI=1S/C7H9NO/c1-3-6-7(8(6)2)4-9-5-7/h1,6H,4-5H2,2H3/t6-,8?/m0/s1
