17
gdb 24617	4.88657	0.95998	0.90847	1.7595	73.48	-0.2257	0.0092	0.235	1282.6617	0.137542	-421.823541	-421.815892	-421.814948	-421.858095	27.866	
C	 0.0206226106	 1.4884290508	-0.1961114177	-0.078947
O	 1.4263883531	 1.5852574402	 0.1007347528	-0.271763
C	 1.4764624974	 0.2075321005	 0.5167106991	-0.07894
C	 0.0241800719	-0.0483265533	 0.0290910317	-0.159962
C	-0.9689879662	-0.6582876307	 0.9614555706	 0.242097
C	-1.2643254439	-0.2823488643	 2.2396899761	-0.101516
O	-2.2267155242	-1.0803229033	 2.7716046565	-0.139562
C	-2.5586392312	-1.9885714686	 1.8181445559	 0.009364
C	-1.8266387333	-1.7820557036	 0.6943519639	-0.300814
H	-0.5947538709	 2.0414847152	 0.5261470045	 0.098838
H	-0.2136639198	 1.8372439424	-1.2084176929	 0.105172
H	 2.2718910247	-0.3496289093	 0.0085857185	 0.105171
H	 1.6042564213	 0.1067044766	 1.6028584208	 0.098839
H	 0.0133296978	-0.5886692422	-0.9197147721	 0.082616
H	-0.8961467163	 0.4966772475	 2.8870629158	 0.14006
H	-3.3193077979	-2.7000545997	 2.0935147558	 0.138413
H	-1.8776432434	-2.3502132882	-0.2219490393	 0.110934
13.3456	67.2645	150.3325	218.1466	372.0058	393.1829	603.4345	622.9862	668.5046	738.0102	788.934	824.8633	834.2582	888.6747	892.0229	915.764	988.6155	1013.3364	1039.3379	1042.1749	1075.9453	1099.5023	1106.315	1157.5419	1164.8995	1208.2923	1240.787	1258.6087	1279.5512	1303.8454	1355.0582	1375.9141	1431.988	1514.6448	1534.7183	1540.2341	1622.7198	3002.9508	3014.2711	3055.4863	3059.4203	3088.9383	3248.9669	3272.5811	3285.7941
C1OCC1C1=COC=C1	C1OCC1c1cocc1	
InChI=1S/C7H8O2/c1-2-8-3-6(1)7-4-9-5-7/h1-3,7H,4-5H2	InChI=1S/C7H8O2/c1-2-8-3-6(1)7-4-9-5-7/h1-3,7H,4-5H2
