19
gdb 107750	2.8838	1.38886	1.24556	2.4361	74.8	-0.2297	0.0648	0.2945	1103.0555	0.158039	-422.958797	-422.950363	-422.949419	-422.991762	32.738	
C	-0.0264040123	 1.5647285802	-0.0570228969	-0.383185
C	 0.0367009729	 0.0330274625	 0.0133711489	-0.304693
C	-1.3208077109	-0.5960881209	 0.1104679357	 0.350323
C	-2.2909099294	-0.4430952551	 1.3196985474	-0.263279
C	-2.9866943224	-1.6909655849	 0.7856998538	-0.207638
C	-2.8328607314	-1.5615243406	-0.7642905113	 0.040603
O	-2.1953942169	-0.3205271488	-1.0319466852	-0.325599
C	-1.7391523362	-2.1457509541	 0.0388100621	 0.266067
O	-1.0618159563	-3.3290297992	-0.0721334288	-0.449705
H	 0.9753263917	 1.9901123547	-0.1662582321	 0.112583
H	-0.6299083378	 1.8842632319	-0.9107265082	 0.141937
H	-0.4737435078	 1.986831434	 0.8486836871	 0.117795
H	 0.5396374177	-0.3630173493	-0.8763821945	 0.116049
H	 0.6298948452	-0.2847829013	 0.8799811805	 0.096715
H	-1.7886521296	-0.6324500633	 2.2728382309	 0.094084
H	-2.8532496682	 0.4943855583	 1.3612030827	 0.102098
H	-3.7728221347	-2.2896591211	 1.2282882301	 0.092172
H	-3.5263742858	-1.9774288179	-1.4823960666	 0.112224
H	-0.8122896778	-3.6270959551	 0.8102805243	 0.291451
73.8104	130.0662	195.3718	241.2885	254.4129	334.2334	353.8605	426.108	505.4635	550.1059	596.7326	678.7771	755.8389	758.4447	782.5388	848.7569	883.8333	925.4289	927.6862	959.0185	984.1874	1020.841	1030.8706	1039.0402	1100.8465	1107.8436	1116.243	1166.4688	1214.6922	1238.4707	1256.4036	1289.1548	1316.45	1320.2199	1389.8729	1407.429	1475.0184	1481.7223	1496.9227	1502.7828	1507.8536	3029.918	3041.4316	3048.5869	3067.1191	3106.6288	3109.0933	3123.5841	3198.7015	3218.1842	3782.5767
CCC12CC3C(O1)C23O	CC[C@@]12C[C@H]3[C@@H](O1)[C@@]23O	
InChI=1S/C7H10O2/c1-2-6-3-4-5(9-6)7(4,6)8/h4-5,8H,2-3H2,1H3	InChI=1S/C7H10O2/c1-2-6-3-4-5(9-6)7(4,6)8/h4-5,8H,2-3H2,1H3/t4-,5+,6-,7+/m0/s1
