23
gdb 86335	1.95141	1.5369	0.9587	1.7802	85.65	-0.2584	0.0769	0.3353	1311.9861	0.204933	-388.263141	-388.253467	-388.252523	-388.297711	36.38	
C	-0.7169629123	 0.9026002691	-1.5308576887	-0.413796
C	 0.249071288	-0.1466137913	-0.9974580896	 0.036777
C	 1.7726952581	 0.0151053787	-1.2473233875	-0.249433
C	 2.0349434865	-0.5870860366	 0.1598644458	 0.038637
C	 3.1874659499	-0.062015181	 1.0037601417	-0.410662
C	 0.5507816149	-0.2511334406	 0.5386326792	-0.059702
C	 0.3693612285	 1.0302008756	 1.307466539	 0.098612
C	-0.7895491144	 1.2543386276	 2.1819668369	-0.188525
O	 0.4881949783	 0.9356406706	 2.7335332564	-0.246127
H	-0.4395416404	 1.9126697261	-1.2123446656	 0.112085
H	-0.7272106669	 0.8946894248	-2.6265365546	 0.114128
H	-1.7412853615	 0.7159177619	-1.1896094317	 0.114289
H	-0.0676568974	-1.1355835503	-1.3470760542	 0.074063
H	 2.2073613274	-0.4910683741	-2.1134951389	 0.091882
H	 2.0599918254	 1.0724920307	-1.288727865	 0.092528
H	 2.1206734129	-1.6759746869	 0.071548609	 0.072183
H	 3.1667930139	 1.0292153495	 1.0888096884	 0.113454
H	 3.1553765902	-0.4711785905	 2.0186601974	 0.127242
H	 4.1492239621	-0.3387893834	 0.5575554617	 0.108556
H	 0.0173065781	-1.0414123083	 1.0756403235	 0.063103
H	 0.8521951624	 1.9182118048	 0.89703008	 0.089802
H	-1.1427154435	 2.2674173794	 2.3711558052	 0.110886
H	-1.5464134702	 0.4759462541	 2.2757641516	 0.110017
75.6286	88.6743	160.9521	183.8064	203.439	211.1406	293.493	320.9666	356.5997	377.4727	458.2406	561.0886	609.6446	764.9411	811.7342	855.0468	883.1439	895.033	907.5681	938.1565	964.6971	986.4987	1019.4522	1035.0966	1095.6416	1105.9789	1145.0811	1153.9996	1156.4644	1176.0136	1182.2454	1204.8072	1242.7902	1260.7119	1273.9318	1284.3222	1296.6602	1328.406	1356.9357	1392.0718	1410.3619	1415.992	1457.3895	1491.549	1492.6166	1496.3109	1497.7036	1498.8143	1529.1744	3027.0213	3029.7038	3032.4528	3035.9854	3040.2831	3058.7045	3077.618	3090.4614	3091.9035	3094.0054	3096.1847	3102.1288	3107.091	3163.1234
CC1CC(C)C1C1CO1	C[C@H]1C[C@@H](C)[C@H]1[C@H]1CO1	
InChI=1S/C8H14O/c1-5-3-6(2)8(5)7-4-9-7/h5-8H,3-4H2,1-2H3	InChI=1S/C8H14O/c1-5-3-6(2)8(5)7-4-9-7/h5-8H,3-4H2,1-2H3/t5-,6+,7-,8-/m1/s1
