14
gdb 23921	4.25455	1.25651	1.22278	2.6054	50.59	-0.2549	0.0725	0.3273	984.444	0.104165	-510.206322	-510.198854	-510.197909	-510.238973	26.794	
F	-0.4375043827	 0.0612073266	 0.185479858	-0.082152
C	-0.1050342065	 1.3614227744	 0.0981526012	 0.29486
F	 1.2282509031	 1.4269096309	-0.0308254785	-0.081233
F	-0.6447717111	 1.8357753567	-1.0354268364	-0.077899
C	-0.5926042004	 2.1417221611	 1.3053633302	-0.373978
C	 0.0678190259	 1.6988813558	 2.5920259771	 0.027186
C	-0.7178874014	 1.66180521	 3.8504239955	-0.248932
N	-0.2839820786	 0.412025097	 3.2075318226	-0.304411
H	-0.3921708866	 3.2005653507	 1.1112899243	 0.137514
H	-1.6790358558	 2.0146667903	 1.3560685716	 0.125846
H	 1.1294494652	 1.9261499441	 2.6504238011	 0.110689
H	-0.2365047564	 1.8805641984	 4.7989987694	 0.12565
H	-1.766936068	 1.9440347372	 3.800869471	 0.112897
H	-1.0533016867	-0.0185204034	 2.7009491029	 0.233963
63.5751	99.3784	159.5601	303.6818	336.9189	371.0174	448.199	537.2192	546.7336	663.6689	803.4222	828.6682	848.8068	923.8963	943.8494	971.5112	1050.651	1088.4054	1127.4734	1158.7454	1181.7866	1235.6205	1254.8219	1276.109	1295.7378	1320.4884	1367.2435	1433.8229	1463.922	1514.7287	3052.7582	3099.7216	3107.4935	3141.9734	3193.6397	3507.7984
FC(F)(F)CC1CN1	FC(F)(F)C[C@H]1CN1	
InChI=1S/C4H6F3N/c5-4(6,7)1-3-2-8-3/h3,8H,1-2H2	InChI=1S/C4H6F3N/c5-4(6,7)1-3-2-8-3/h3,8H,1-2H2/t3-/m0/s1
