16
gdb 29341	1.9549	1.91221	0.97446	5.8424	79.79	-0.2003	0.0101	0.2104	1158.1983	0.125787	-396.994465	-396.985613	-396.984669	-397.027866	32.46	
C	-0.0143039657	 1.4979319421	 0.0492143038	-0.510034
C	-0.020363726	 0.0029999313	 0.0097296047	 0.178671
C	-0.0349726663	-0.8008109076	-1.092918793	-0.172511
N	-0.0210164622	-2.1279395939	-0.6742930323	-0.30281
C	-0.0004086363	-2.185722946	 0.6835674487	 0.2562
N	-0.0652390197	-3.393267223	 1.367782795	-0.610518
C	 0.0087775811	-0.8770428358	 1.1552469057	 0.049814
C	 0.0640789622	-0.5295812239	 2.5201948684	 0.172067
N	 0.1124951346	-0.2708512851	 3.6512431613	-0.378365
H	 0.8783283246	 1.8844148564	 0.5539440823	 0.137896
H	-0.0367057976	 1.9155797196	-0.9609229112	 0.121735
H	-0.8807847677	 1.8880673697	 0.594886983	 0.138627
H	-0.0430813054	-0.5542566549	-2.141794919	 0.12702
H	-0.1350282528	-2.9282178902	-1.2720567949	 0.266286
H	 0.6472194391	-4.0607574059	 1.0956209502	 0.254093
H	-0.0352045519	-3.2530768128	 2.3702462174	 0.27183
111.9918	119.1799	147.0169	203.9277	225.0231	256.6413	317.7007	403.7171	469.9486	531.33	536.2094	586.822	620.7998	665.4835	699.2026	708.4467	764.331	787.7394	1004.9657	1041.4502	1066.5214	1086.6102	1145.537	1235.8716	1279.6205	1353.4596	1402.1081	1423.4856	1479.8872	1491.0686	1533.495	1591.2791	1625.6854	1661.7478	2320.9763	3030.9056	3081.6638	3113.8375	3270.5843	3523.3199	3616.1812	3678.306
CC1=CNC(N)=C1C#N	Cc1c[nH]c(N)c1C#N	
InChI=1S/C6H7N3/c1-4-3-9-6(8)5(4)2-7/h3,9H,8H2,1H3	InChI=1S/C6H7N3/c1-4-3-9-6(8)5(4)2-7/h3,9H,8H2,1H3
