17
gdb 93400	2.5058	1.46789	1.0719	3.9603	72.32	-0.2668	-0.0505	0.2163	1133.3496	0.135956	-459.009891	-459.001408	-459.000464	-459.042995	31.52	
C	-0.0153444923	 1.5175892733	 0.0889184108	-0.487907
C	-0.0630307714	 0.0229697218	 0.0207861454	 0.278686
C	-0.1132657304	-0.6778019092	-1.1200732784	-0.284387
C	-0.0049047066	-2.1513565396	-1.1723712752	 0.404121
O	 0.1656405612	-2.7683271601	-2.1915061489	-0.334823
O	-0.0254045269	-2.8177808775	 0.0189650473	-0.245143
C	-0.5500186389	-2.1320107501	 1.1628857071	-0.113554
C	 0.0379283711	-0.7377286464	 1.3285862663	 0.02562
O	 1.3822193538	-0.746625852	 1.7991629436	-0.430353
H	 0.8683229543	 1.8329822951	 0.655648147	 0.155158
H	 0.0183436416	 1.9732802889	-0.9031136894	 0.133824
H	-0.8888559793	 1.9105711037	 0.624205652	 0.137644
H	-0.1399939965	-0.199249247	-2.0931832828	 0.119473
H	-1.6425156828	-2.0670737542	 1.0778664869	 0.116099
H	-0.2986134004	-2.7555785512	 2.0233428672	 0.132139
H	-0.5307109466	-0.2195528043	 2.1093234448	 0.100942
H	 1.9084476601	-1.2389472112	 1.1576646765	 0.29246
90.5343	154.4583	179.4183	197.9836	245.4981	298.4653	357.4399	391.5017	443.4539	494.3981	569.8515	614.4882	710.144	748.5291	856.8601	868.1135	901.6841	919.6509	1022.7758	1026.729	1063.361	1101.4773	1127.0831	1167.7919	1230.8639	1257.7167	1301.5332	1313.5674	1375.1729	1404.8582	1412.845	1427.8277	1474.7407	1483.401	1493.7621	1705.5839	1826.1378	3025.7902	3026.6251	3054.6138	3081.2377	3115.406	3127.1339	3193.6495	3793.6079
CC1=CC(=O)OCC1O	CC1=CC(=O)OC[C@H]1O	
InChI=1S/C6H8O3/c1-4-2-6(8)9-3-5(4)7/h2,5,7H,3H2,1H3	InChI=1S/C6H8O3/c1-4-2-6(8)9-3-5(4)7/h2,5,7H,3H2,1H3/t5-/m1/s1
