21
gdb 106386	3.23551	1.44997	1.26077	1.0411	81.6	-0.2391	0.0934	0.3325	1088.4569	0.184173	-387.041308	-387.033614	-387.03267	-387.073304	31.624	
C	-0.0297985227	 1.3558274	 0.1232945739	-0.257848
O	 0.0376326672	-0.0440201161	-0.0411873509	-0.303531
C	 0.720968672	-0.4940963756	-1.1627220035	 0.454184
C	 0.3761341788	-0.0885980458	-2.6530313381	-0.282843
C	 1.7853837364	-0.7291431305	-2.8886350995	-0.048685
C	 2.1844662097	-0.1018197668	-1.5239543951	-0.308685
C	 1.4802369484	-2.2065611883	-2.5648989546	-0.029252
C	 1.9727662268	-2.8207886891	-1.2770580832	-0.316884
C	 0.6897567532	-2.0288386355	-1.2838005082	-0.080873
H	 0.9656371215	 1.8079148322	 0.2359530024	 0.109282
H	-0.5422442795	 1.8459481727	-0.7165035355	 0.109314
H	-0.6009224887	 1.538823714	 1.0364723686	 0.126537
H	-0.4860621641	-0.5730135771	-3.1192490264	 0.089963
H	 0.3570989488	 0.9905651141	-2.828826031	 0.088641
H	 2.361432235	-0.5140752814	-3.7873565529	 0.064721
H	 2.306126504	 0.978965887	-1.6169170174	 0.0949
H	 3.0170182876	-0.5119237878	-0.9519683945	 0.096098
H	 1.1394709007	-2.849802717	-3.3683968691	 0.085337
H	 1.8465234317	-3.8968594502	-1.2028050001	 0.107785
H	 2.8631339216	-2.4624899186	-0.7748839858	 0.112509
H	-0.2588813986	-2.5170621302	-1.0945106691	 0.089329
79.637	190.0306	220.7737	282.7848	371.4406	418.1775	434.5415	538.9912	560.2826	608.9833	635.251	775.8839	797.8326	816.343	845.3232	906.276	912.9662	935.4857	972.6443	978.0741	998.0376	1020.9033	1064.0719	1069.4105	1079.691	1090.21	1105.7209	1121.7405	1149.9224	1177.3729	1181.155	1195.5594	1220.9883	1226.4077	1247.775	1271.0191	1292.1433	1333.0667	1373.0477	1474.1258	1484.8309	1490.5708	1498.3069	1507.5941	1534.9737	2991.5946	3042.3512	3053.1099	3079.448	3114.4278	3116.7453	3124.1362	3128.5939	3136.4475	3169.5736	3182.8103	3213.0236
COC12CC(C1)C1CC21	CO[C@@]12C[C@@H](C1)[C@H]1C[C@@H]21	
InChI=1S/C8H12O/c1-9-8-3-5(4-8)6-2-7(6)8/h5-7H,2-4H2,1H3	InChI=1S/C8H12O/c1-9-8-3-5(4-8)6-2-7(6)8/h5-7H,2-4H2,1H3/t5-,6-,7-,8-/m1/s1
