17
gdb 81304	2.68874	1.588	1.25185	2.7927	67.83	-0.2457	-0.0206	0.2252	1015.8824	0.136337	-458.95451	-458.946811	-458.945867	-458.986743	29.724	
O	 0.0015723366	 1.3441105143	-0.0845769432	-0.43532
C	 0.0658044211	-0.0605608268	 0.0145030798	 0.1025
C	 0.1250108318	-0.6000107851	 1.4743737531	 0.084215
C	-1.4116749695	-0.4119454598	 1.5363652866	-0.272937
C	-1.386789981	-0.6281107776	-0.0146555133	-0.141322
C	-1.2906784265	-2.1164851129	-0.2533499199	 0.373421
O	-1.9219269106	-2.7320769546	-1.0754386352	-0.320995
C	-0.3121783927	-2.8266391537	 0.6965202894	-0.177867
O	 0.5101445213	-1.9646036018	 1.4784260462	-0.276085
H	 0.8784061867	 1.6968467837	 0.1015401528	 0.289683
H	 0.7938952264	-0.4910734003	-0.686379298	 0.078504
H	 0.7661950395	-0.0936264507	 2.1990629746	 0.081402
H	-1.9871510421	-1.104921274	 2.1538295585	 0.110768
H	-1.6769598703	 0.6171874891	 1.7753173166	 0.13238
H	-2.1205040491	-0.1515728977	-0.6636235677	 0.096153
H	-0.9101357035	-3.4753338836	 1.3532679104	 0.134472
H	 0.3342902319	-3.4807180286	 0.1018724793	 0.141028
84.4458	153.5088	253.4526	283.4768	304.3989	390.712	427.7111	463.506	476.4749	562.8426	608.1867	760.3949	845.3992	872.9187	901.7292	918.3893	959.7721	971.1922	1012.7744	1058.3691	1084.6728	1112.5232	1131.4823	1156.7975	1195.7694	1232.5521	1239.0598	1249.5495	1266.2356	1280.2506	1313.8168	1339.1472	1372.5305	1418.255	1472.0834	1484.1807	1831.9574	3005.0811	3010.8413	3072.4775	3080.4193	3094.6131	3130.4318	3152.7468	3807.9329
OC1C2CC1C(=O)CO2	O[C@H]1[C@H]2C[C@@H]1C(=O)CO2	
InChI=1S/C6H8O3/c7-4-2-9-5-1-3(4)6(5)8/h3,5-6,8H,1-2H2	InChI=1S/C6H8O3/c7-4-2-9-5-1-3(4)6(5)8/h3,5-6,8H,1-2H2/t3-,5-,6-/m1/s1
