15
gdb 55611	2.2972	1.20751	0.87938	11.1762	86.37	-0.1848	-0.0488	0.136	1289.1141	0.111769	-412.993011	-412.98339	-412.982446	-413.027763	33.983	
C	-2.1115185747	 0.6548152819	-0.3312378015	-0.47308
C	-1.0380978505	-0.3700118113	-0.2201796693	 0.437349
N	-0.811351645	-0.9630590604	 0.9739325527	-0.533314
H	-1.5144540138	-0.8998032308	 1.6896319294	 0.287279
H	-0.1346318308	-1.7040617091	 1.0675472349	 0.276502
N	-0.2807907977	-0.6637062585	-1.2549330681	-0.294305
C	-0.2049611573	 0.0677501838	-2.4731105916	-0.121037
C	-0.1148121725	 1.4587638648	-2.3962261066	 0.232379
N	-0.0763343689	 2.6150150855	-2.241395799	-0.406527
C	-0.0576301908	-0.6860540592	-3.6418619964	 0.18192
N	 0.0735857073	-1.3641127817	-4.5805872523	-0.378032
H	-1.6968581799	 1.6697290018	-0.3212987019	 0.209445
H	-2.6106216682	 0.5383969163	-1.2979798722	 0.185743
H	-2.8303017556	 0.5498376842	 0.4847313528	 0.128514
H	 0.3592258784	-1.4484259374	-1.1586261108	 0.267163
64.2716	102.9616	137.9487	139.242	225.0144	255.7624	295.3239	302.1609	421.2691	446.2406	503.7113	517.6128	525.0009	565.3559	577.5998	608.1829	736.2262	807.8708	892.7723	1037.4997	1057.0653	1090.5401	1243.2625	1296.0775	1389.8293	1414.058	1449.921	1472.9354	1523.8867	1639.9603	1694.6404	2260.1976	2292.4743	3036.0756	3098.8754	3135.7324	3478.6304	3599.382	3725.1436
CC(=[NH2+])N[C-](C#N)C#N	CC(=[NH2])[NH]=C(C#N)C#N	
InChI=1S/C5H5N4/c1-4(8)9-5(2-6)3-7/h1H3,(H2,8,9)/q-1/p+1	InChI=1S/C5H6N4/c1-4(8)9-5(2-6)3-7/h9H,8H2,1H3
