19
gdb 96035	3.11861	1.09511	0.8778	3.2728	77.42	-0.2478	0.061	0.3088	1330.7048	0.158034	-422.991808	-422.982433	-422.981489	-423.027138	34.225	
O	-0.0069628664	 1.5158681614	 0.1857543719	-0.429476
C	 0.0143270245	 0.0984948494	 0.0926830078	 0.092498
C	 0.6210776242	-0.5770162868	 1.3499668613	-0.269892
C	-0.6048432727	-1.1820294368	 2.077721601	-0.068381
O	-1.7473352642	-0.5873932572	 1.4857897282	-0.248891
C	-1.4410222838	-0.411085767	 0.1120173602	 0.124224
C	-2.4695730537	 0.527331054	-0.523828153	-0.375519
C	-3.7958477172	-0.0680088883	-0.626238514	 0.299215
C	-4.8847093509	-0.5665202038	-0.725383073	-0.437297
H	 0.9022228953	 1.8278781798	 0.215096651	 0.286268
H	 0.5231308997	-0.2152086674	-0.8291331308	 0.067185
H	 1.359422468	-1.340983576	 1.093772823	 0.104157
H	 1.1166628568	 0.1829249142	 1.959488756	 0.107899
H	-0.6301787789	-2.2755855877	 1.9463104844	 0.091229
H	-0.6304439138	-0.9665397299	 3.1485318321	 0.11193
H	-1.4668878521	-1.386335994	-0.4043474236	 0.071088
H	-2.5012004513	 1.4458313188	 0.0689861849	 0.153852
H	-2.1117299679	 0.8124487972	-1.5203865648	 0.130184
H	-5.8505780356	-0.9997189097	-0.8035443924	 0.189726
30.3241	66.4696	113.78	182.0024	247.3367	254.8578	340.8258	348.6755	388.0217	471.0557	548.8343	611.8243	637.5472	670.5574	761.2624	834.5106	845.7236	876.83	922.9695	966.2739	972.519	1034.4731	1056.0708	1087.457	1123.3622	1146.079	1199.8781	1228.8468	1243.4762	1272.8457	1275.2398	1304.2796	1331.2181	1361.8745	1397.5216	1406.4426	1427.2244	1452.9229	1479.5275	1519.8188	2242.3031	2952.3854	2975.5405	3006.4698	3043.8559	3064.1447	3093.797	3096.598	3114.9449	3508.8745	3829.1041
OC1CCOC1CC#C	O[C@H]1CCO[C@H]1CC#C	
InChI=1S/C7H10O2/c1-2-3-7-6(8)4-5-9-7/h1,6-8H,3-5H2	InChI=1S/C7H10O2/c1-2-3-7-6(8)4-5-9-7/h1,6-8H,3-5H2/t6-,7-/m0/s1
