14
gdb 124061	3.86396	1.63843	1.15889	1.5113	69.79	-0.214	-0.0025	0.2116	963.5205	0.105268	-432.89361	-432.887027	-432.886083	-432.925906	24.745	
C	-0.0086473299	 1.4537839094	 0.1234677215	-0.169352
O	 1.237554532	 2.0340837383	-0.3379797227	-0.240723
C	 2.2610273164	 1.2684981679	-0.7790248787	 0.117636
N	 2.3493262411	 0.0011421515	-0.8771275763	-0.364942
C	 1.2017734242	-0.6743724018	-0.4592821361	 0.209705
C	 0.9036462769	-2.0220719431	-0.4093355476	-0.147121
N	-0.3599970578	-2.0961047832	 0.0843458486	-0.186501
N	-0.9089193904	-0.8900472587	 0.360574377	-0.308858
C	 0.0452642994	-0.0348602298	 0.0278323142	 0.264638
H	-0.1597523372	 1.8008931267	 1.1525054139	 0.137103
H	-0.8073344789	 1.8831480749	-0.4929575437	 0.137104
H	 3.0884510952	 1.9087549196	-1.0726546487	 0.129618
H	 1.4727758018	-2.897202308	-0.6770806379	 0.14318
H	-0.9033569828	-2.9239678735	 0.2569014965	 0.278512
20.9001	230.3765	267.078	426.6268	475.0653	486.1861	551.1348	626.3026	664.2988	724.3468	753.2423	801.8677	874.447	945.7619	945.7781	959.7145	1041.0255	1061.993	1121.1324	1165.6056	1228.642	1252.3869	1318.0699	1380.9341	1408.0752	1440.358	1476.7107	1513.6434	1530.837	1616.8963	1677.6741	3024.1209	3054.595	3182.9335	3273.2364	3685.1074
C1OC=NC2=CNN=C12	C1OC=Nc2c[nH]nc12	
InChI=1S/C5H5N3O/c1-4-5(8-7-1)2-9-3-6-4/h1,3H,2H2,(H,7,8)	InChI=1S/C5H5N3O/c1-4-5(8-7-1)2-9-3-6-4/h1,3H,2H2,(H,7,8)
