18
gdb 18889	4.29677	2.28547	1.94193	0.0576	73.44	-0.2155	0.0899	0.3054	761.4002	0.155747	-310.630625	-310.624467	-310.623523	-310.660302	26.203	
C	-0.0174082631	 1.4584492678	 0.0715867485	-0.495513
C	-0.0411861513	-0.0473398678	 0.0123654069	 0.329522
C	-1.2739109426	-0.8033941248	-0.4584523103	-0.281696
C	-0.7620336944	-2.2222824128	-0.3211943194	-0.07392
C	 0.731623611	-2.2775021467	-0.5895102134	-0.086624
C	 0.2171033658	-2.3255666623	 0.8349609826	-0.086575
C	 0.6956946436	-0.8699407026	 1.0586003504	-0.119946
C	 1.2115329594	-0.8219177923	-0.3684552396	-0.119913
H	 0.9486810681	 1.8259607838	 0.432752404	 0.115595
H	-0.1901852663	 1.8983466616	-0.9173827429	 0.116455
H	-0.7909598533	 1.8423684939	 0.7466011711	 0.11645
H	-2.1445986291	-0.6083477531	 0.1794531774	 0.093308
H	-1.5405547116	-0.552118224	-1.4922924352	 0.093309
H	-1.3743258541	-3.0807520308	-0.571273466	 0.080335
H	 1.2238398846	-3.0426502398	-1.1738652729	 0.081481
H	 0.2392994244	-3.1346276759	 1.551986831	 0.081488
H	 1.1243736927	-0.4564533795	 1.96174282	 0.078118
H	 2.1092534963	-0.3647852648	-0.7628298819	 0.078125
215.8935	252.1046	292.6669	410.2457	539.5404	565.3628	706.1575	721.0824	748.8869	770.34	799.802	843.3975	847.2991	904.4928	914.3656	936.3384	949.5887	966.0286	994.9807	1013.586	1033.8559	1037.3175	1059.7616	1100.8305	1108.6749	1152.7568	1199.4702	1210.445	1234.9661	1266.4688	1282.0139	1329.259	1357.8788	1408.5159	1420.0884	1491.4257	1492.4967	1501.6455	3022.3088	3027.1126	3065.9385	3082.2689	3094.8241	3184.5474	3190.0899	3201.6221	3202.3218	3214.1784
CC12CC3C4C3C1C24	C[C@]12C[C@H]3[C@@H]4[C@H]3[C@H]1[C@H]24	
InChI=1S/C8H10/c1-8-2-3-4-5(3)7(8)6(4)8/h3-7H,2H2,1H3	InChI=1S/C8H10/c1-8-2-3-4-5(3)7(8)6(4)8/h3-7H,2H2,1H3/t3-,4+,5-,6+,7-,8+
