16
gdb 56965	3.0138	0.98799	0.77525	4.3816	71.54	-0.2656	-0.0168	0.2488	1394.9205	0.123558	-434.05569	-434.046456	-434.045512	-434.090555	32.163	
N	-0.4159138951	 1.6113979371	-0.4174689248	-0.499498
C	 0.0017458378	 0.2625953278	-0.0367570611	-0.147088
C	-1.1899312876	-0.5589472648	 0.2330093227	 0.297701
N	-2.1150004276	-1.2295794924	 0.4016630204	-0.309308
C	 0.8867200812	-0.4547168139	-1.0571105257	-0.027728
C	 2.3795604483	-0.2833904108	-1.0485633739	-0.257705
N	 1.7632177233	-1.4987310592	-0.5661254421	-0.060997
C	 1.9355836496	-2.7359373237	-1.183592106	 0.136362
O	 2.976707927	-3.1287547291	-1.6423108593	-0.272461
H	 0.4062137297	 2.1740320978	-0.6155347175	 0.243222
H	-0.9733285722	 1.5836939177	-1.2663423369	 0.245682
H	 0.5683357289	 0.3307528379	 0.9002333626	 0.145105
H	 0.417170786	-0.6140905498	-2.0278499812	 0.118086
H	 2.9086130796	-0.3387374311	-1.9960466703	 0.148519
H	 2.8439927301	 0.3443894838	-0.2921226094	 0.13242
H	 1.0110025009	-3.3406698475	-1.1449238575	 0.107689
60.1614	81.179	116.1757	183.4572	225.2216	244.8013	268.2105	324.1011	368.4879	401.8317	537.8724	586.2373	699.2902	801.8507	845.9702	858.3624	945.1881	978.4626	1030.8868	1074.078	1110.2959	1119.3215	1129.8122	1134.5156	1182.2406	1196.7876	1291.1857	1329.4182	1390.8061	1411.5266	1440.5616	1510.8617	1657.1018	1810.1552	2365.6214	2974.8515	3044.5689	3110.9306	3117.4015	3201.5755	3494.4166	3580.0642
NC(C#N)C1CN1C=O	N[C@@H](C#N)[C@H]1CN1C=O	
InChI=1S/C5H7N3O/c6-1-4(7)5-2-8(5)3-9/h3-5H,2,7H2	InChI=1S/C5H7N3O/c6-1-4(7)5-2-8(5)3-9/h3-5H,2,7H2/t4-,5+,8?/m0/s1
