19
gdb 53000	3.22478	0.95139	0.83889	2.0159	87.38	-0.2303	0.0288	0.2591	1471.0169	0.156949	-385.836703	-385.827154	-385.82621	-385.87263	34.346	
C	 0.0365203546	 1.4674991245	-0.0892879273	-0.512412
C	-0.0171632038	 0.0164378303	-0.0091009991	 0.284374
C	-0.071644032	-1.1864542963	 0.045635241	-0.189509
C	-0.0876910206	-2.6037074817	 0.1549418806	 0.295293
O	-0.3598886998	-3.4029012406	-1.0182631833	-0.292627
C	-1.1846173901	-3.6018929666	 0.129754434	-0.066995
C	-0.4325485679	-4.5423988748	 1.0747057309	-0.267784
C	 0.7444455727	-3.4976486809	 1.1109191567	-0.071033
C	 2.1205514838	-3.9272509923	 0.6278029545	-0.409511
H	 0.9776013904	 1.8527688105	 0.3183327126	 0.15161
H	-0.0381137171	 1.8060107529	-1.1285569193	 0.155701
H	-0.7836909895	 1.9300586691	 0.4710248248	 0.150785
H	-2.2516727805	-3.4560050929	 0.0041184431	 0.109034
H	-0.9161936937	-4.6690113534	 2.0459555093	 0.106339
H	-0.200169595	-5.5222933982	 0.6496423495	 0.110351
H	 0.8010959188	-3.029568274	 2.0980296505	 0.080785
H	 2.0554146186	-4.3452533054	-0.3805135068	 0.132708
H	 2.8122974332	-3.0783962154	 0.6039809342	 0.119772
H	 2.5469908179	-4.6890334549	 1.2889768241	 0.113118
18.4697	79.3179	98.8845	178.3196	229.7656	239.1663	301.423	335.6182	405.2098	457.0476	492.2438	549.0895	607.9604	699.269	801.1794	855.0187	880.9305	906.8196	932.4413	978.6964	1017.0904	1051.6153	1053.6374	1070.1526	1108.9741	1117.6434	1173.6852	1188.9733	1227.1743	1269.485	1275.7571	1355.534	1401.9686	1411.4587	1438.2262	1475.0467	1476.7729	1478.593	1492.0942	1503.3675	2366.1456	3027.1375	3033.8836	3062.4787	3068.185	3087.6472	3090.8285	3097.4955	3118.1372	3122.8493	3183.6927
CC#CC12OC1CC2C	CC#C[C@]12O[C@H]1C[C@H]2C	
InChI=1S/C8H10O/c1-3-4-8-6(2)5-7(8)9-8/h6-7H,5H2,1-2H3	InChI=1S/C8H10O/c1-3-4-8-6(2)5-7(8)9-8/h6-7H,5H2,1-2H3/t6-,7+,8-/m1/s1
