18
gdb 71204	2.65502	2.0314	1.45102	2.5959	75.38	-0.2182	0.0021	0.2203	925.7034	0.149358	-401.91046	-401.903425	-401.902481	-401.941265	29.512	
O	-0.0933260908	 1.3442888275	 0.1124983171	-0.493908
C	 0.0216019321	-0.0565201023	 0.0077896269	 0.391777
C	 0.1893013449	-0.6061625248	-1.4415587719	-0.21105
N	-1.1580937479	-1.2747976205	-1.4136639077	-0.160216
C	-1.1927549027	-2.1606655783	-0.191870648	-0.054256
C	-0.0053365293	-2.8333476923	 0.3930324343	-0.057825
C	 0.9796580987	-2.154243337	 0.9857964814	-0.083353
C	 0.9853302742	-0.6471659593	 1.0394109709	-0.328465
C	-1.3693188143	-0.7048890876	-0.034276925	-0.091879
H	 0.7905337356	 1.7238617089	 0.0535133032	 0.275944
H	 0.1574784542	 0.2026460863	-2.1744234389	 0.112243
H	 1.0296689548	-1.2749390793	-1.6494311105	 0.097949
H	-2.099817041	-2.7569993728	-0.2152415331	 0.0996
H	 0.0243654645	-3.9178379116	 0.3452532159	 0.093261
H	 1.819183763	-2.6804636124	 1.4314323625	 0.095579
H	 1.9999155462	-0.2749357875	 0.8312212067	 0.096844
H	 0.7286599735	-0.2837125621	 2.0448056167	 0.11975
H	-2.2880485057	-0.2143497348	 0.2690833195	 0.098003
207.5363	257.4677	282.4473	321.8872	391.6043	411.2493	479.6189	512.098	549.6623	634.7174	688.6557	770.0773	784.4743	818.2524	870.0586	913.7355	929.8819	958.7802	971.141	992.186	1000.4532	1046.9114	1059.6583	1072.8015	1141.7177	1155.1851	1184.7694	1211.3428	1227.8225	1232.655	1284.85	1312.6066	1340.3367	1399.7221	1410.2161	1423.6027	1467.8029	1478.3456	1703.8217	2993.5163	3024.7261	3053.7252	3120.7069	3153.3162	3160.5654	3172.382	3182.3738	3798.997
OC12CN3C(C=CC1)C23	O[C@@]12CN3[C@@H](C=CC1)[C@@H]23	
InChI=1S/C7H9NO/c9-7-3-1-2-5-6(7)8(5)4-7/h1-2,5-6,9H,3-4H2	InChI=1S/C7H9NO/c9-7-3-1-2-5-6(7)8(5)4-7/h1-2,5-6,9H,3-4H2/t5-,6-,7+,8?/m0/s1
