18
gdb 50216	4.07315	1.31296	1.16663	4.2764	76.66	-0.2346	0.0358	0.2704	1068.5433	0.150402	-401.949806	-401.942774	-401.94183	-401.981747	27.792	
O	-0.0425475854	-0.0241317859	-0.0853675862	-0.345677
C	 0.0193060459	 1.189100381	-0.0637046265	 0.132918
N	 1.1690311865	 1.9042030422	-0.0825272767	-0.013786
C	 2.498292711	 1.2871374898	-0.024952285	-0.192704
C	 3.3745045982	 2.4343300217	 0.4735715736	-0.059058
C	 3.3900257166	 3.7649000471	-0.2682691006	-0.071611
C	 2.1516898756	 3.915411147	-1.1543093168	-0.238255
C	 1.3003172752	 3.347272984	 0.0321628502	-0.039281
C	 2.522770775	 3.5675092202	 0.9670166034	-0.076748
H	-0.8752683377	 1.8435964501	-0.0259723936	 0.066389
H	 2.4817199507	 0.4411570366	 0.6690173009	 0.133672
H	 2.8035304237	 0.90474665	-1.0059544604	 0.120645
H	 4.2795931572	 2.1887549918	 1.01589489	 0.098296
H	 4.3081328054	 4.3327314534	-0.3591709305	 0.090671
H	 1.9226023977	 4.9688768929	-1.3364440259	 0.109078
H	 2.1029194759	 3.3639378015	-2.0990057871	 0.101974
H	 0.34598788	 3.8253275859	 0.2469199317	 0.088691
H	 2.5478131985	 4.0150681808	 1.9509187091	 0.094786
49.5113	218.1721	226.1241	337.7702	395.1619	425.6497	498.5348	704.0108	710.6844	730.2235	785.6308	804.2056	852.9953	894.2886	920.7372	956.738	971.2983	995.075	1018.6207	1028.1951	1037.4482	1068.1384	1085.0239	1105.9267	1143.8628	1191.8213	1203.7226	1223.3033	1231.6818	1272.3746	1287.071	1321.7309	1347.5111	1395.8033	1420.6937	1451.9405	1492.3323	1520.2123	1787.1462	2923.5419	3035.1257	3045.0348	3082.6391	3101.5984	3132.9041	3182.6015	3192.2127	3211.7255
O=CN1CC2C3CC1C23	O=CN1C[C@H]2[C@H]3C[C@@H]1[C@@H]23	
InChI=1S/C7H9NO/c9-3-8-2-5-4-1-6(8)7(4)5/h3-7H,1-2H2	InChI=1S/C7H9NO/c9-3-8-2-5-4-1-6(8)7(4)5/h3-7H,1-2H2/t4-,5+,6-,7-/m1/s1
