13
gdb 123986	3.87038	1.71299	1.19613	0.9732	63.52	-0.2439	-0.0182	0.2257	925.8996	0.093748	-448.932643	-448.926461	-448.925516	-448.963407	23.579	
C	-0.0085460101	 1.5125209976	-0.048632069	-0.275408
N	 1.362543261	 2.0070650212	 0.1190311655	-0.250999
C	 2.3447945866	 1.2346966881	 0.2615089167	 0.118043
O	 2.3862647598	-0.1508884026	 0.2944167362	-0.232355
C	 1.1587531425	-0.7050973761	 0.1464002539	 0.384526
N	 0.9217333993	-2.0060299627	 0.1416254687	-0.304866
N	-0.4034763486	-2.0281689183	-0.0298599447	-0.091448
N	-1.0221741779	-0.8551155179	-0.1331980648	-0.285312
C	-0.0248181299	 0.0192240429	-0.0212005088	 0.210441
H	-0.6280255716	 1.9476252999	 0.7455620739	 0.142565
H	-0.4033082515	 1.9132718484	-0.990635523	 0.142566
H	 3.3548106092	 1.6137337582	 0.3848032399	 0.142666
H	-0.9073213389	-2.8978093087	-0.0778503745	 0.29958
104.9892	245.8645	350.6807	440.381	443.0874	496.7545	515.891	643.2478	702.5287	744.5063	749.1527	881.3824	944.6028	957.7398	993.44	1026.3522	1084.3623	1184.1073	1197.8608	1236.2154	1240.5065	1336.0271	1400.6981	1421.7722	1457.6945	1490.065	1565.4365	1599.6298	1749.1475	3024.3541	3044.5742	3193.9312	3683.4234
C1N=COC2=NNN=C12	C1N=COc2n[nH]nc12	
InChI=1S/C4H4N4O/c1-3-4(7-8-6-3)9-2-5-1/h2H,1H2,(H,6,7,8)	InChI=1S/C4H4N4O/c1-3-4(7-8-6-3)9-2-5-1/h2H,1H2,(H,6,7,8)
