18
gdb 37176	3.84364	1.67045	1.53025	1.0139	74.46	-0.2285	0.0575	0.2861	906.6556	0.150341	-401.819139	-401.813037	-401.812093	-401.8491	26.947	
C	 0.091332547	 1.4060737736	 0.1784539558	-0.257775
C	 1.3236630083	 0.6162180527	-0.0585412957	-0.112053
N	-0.035047538	-0.0467127573	-0.0747976326	-0.123291
C	-0.1305080596	-0.50258058	-1.5426305609	-0.040262
C	 0.4754972072	 0.6351823265	-2.3688826354	-0.314336
C	 1.7161516251	 0.2580864904	-1.4847391356	 0.445702
O	 2.9523020334	 0.0474680938	-2.1616334862	-0.352999
C	 2.3955475055	-1.2234752074	-2.662705193	-0.165967
C	 1.2648237613	-1.2077334474	-1.5845227236	-0.051795
H	-0.1573735469	 1.6680410427	 1.2041419985	 0.121158
H	-0.249780299	 2.1363882201	-0.5454423973	 0.120482
H	 1.9948738656	 0.3445175375	 0.7507327265	 0.104964
H	-1.0933974973	-0.9717536294	-1.73729247	 0.079407
H	 0.6380908686	 0.3626765566	-3.4097032987	 0.111641
H	 0.0447337755	 1.6333055567	-2.3312960593	 0.100644
H	 2.1126866226	-1.1497468203	-3.7164838368	 0.116527
H	 3.1184380361	-2.0316010495	-2.5305789493	 0.120716
H	 1.4707178547	-1.8733778693	-0.7463715964	 0.097236
298.2049	302.3187	352.9372	446.5672	523.6726	535.1832	541.9989	623.3359	694.6793	740.3908	757.4443	815.4066	867.1024	881.9119	911.2804	934.0251	959.8203	982.6885	1022.0079	1028.8024	1043.4941	1070.6876	1087.5577	1102.8649	1114.1275	1138.0221	1148.9778	1167.0376	1203.4534	1217.0689	1229.9072	1250.9655	1271.377	1313.7811	1336.3372	1372.0889	1484.9989	1506.7456	1545.8505	3053.1419	3104.8692	3110.4104	3118.9685	3123.96	3131.7614	3155.3315	3161.263	3207.431
C1C2N1C1CC22OCC12	C1[C@H]2N1[C@H]1C[C@]32OC[C@H]13	
InChI=1S/C7H9NO/c1-5-4-3-9-7(1,4)6-2-8(5)6/h4-6H,1-3H2	InChI=1S/C7H9NO/c1-5-4-3-9-7(1,4)6-2-8(5)6/h4-6H,1-3H2/t4-,5+,6-,7+,8?/m1/s1
