23
gdb 108061	2.56999	1.50791	1.11442	0.3332	89.91	-0.2333	0.0923	0.3256	1207.7023	0.205734	-351.119318	-351.110338	-351.109394	-351.152736	35.32	
C	-0.3326301592	 1.4653901519	-0.1078394478	-0.37549
C	 0.180455333	 0.0246194633	 0.0206836779	-0.303273
C	 0.8728093076	-0.4851378202	-1.2151195427	 0.325215
C	 2.0118986466	 0.2104721679	-1.9698532982	-0.284364
C	 1.7142103988	-0.7726709837	-3.1301695938	-0.063527
C	 2.1218897725	-2.1513477223	-2.553590594	-0.276572
C	 0.9449955528	-1.9873586162	-1.5877453656	 0.289199
C	 0.3345622201	-3.082536863	-0.7628645162	-0.50745
C	 0.2726664286	-0.9927717258	-2.5157000882	-0.175404
H	 0.4870339472	 2.1687757348	-0.2857643796	 0.11772
H	-1.036784247	 1.5583737685	-0.9413181945	 0.115331
H	-0.8462304082	 1.7800950489	 0.8059866398	 0.108076
H	 0.8703334021	-0.0385329231	 0.8742342826	 0.096777
H	-0.6624432676	-0.6310206077	 0.2684149532	 0.09618
H	 1.7408863671	 1.2381736531	-2.2295052233	 0.09368
H	 3.0225224099	 0.1960714776	-1.5414053197	 0.079204
H	 1.9405279016	-0.5059113608	-4.1604773619	 0.0649
H	 1.9287862683	-2.9654373373	-3.259994722	 0.090384
H	 3.1375287257	-2.2514842811	-2.1492742674	 0.07925
H	 1.0013381975	-3.3892897802	 0.052497674	 0.116877
H	-0.6170733328	-2.7818054244	-0.3143645524	 0.118368
H	 0.1388940304	-3.9679831032	-1.3788533306	 0.115419
H	-0.729586455	-0.9470854071	-2.9193790198	 0.0795
66.9078	145.2023	186.7026	198.5247	232.8442	284.3906	324.5917	376.4989	432.7198	487.506	573.4087	653.777	721.4889	749.1376	778.5395	813.5433	878.0443	890.2962	901.6151	950.3406	965.7537	979.6597	986.3408	998.2834	1034.4029	1067.8988	1097.6195	1119.7239	1134.5716	1155.3868	1174.9997	1176.4779	1220.6116	1240.9008	1261.8724	1275.2936	1311.5918	1344.86	1371.2245	1405.1068	1411.3289	1426.6119	1477.0469	1489.2854	1492.9247	1495.3122	1498.3668	1508.3542	1511.5573	3006.5905	3012.0222	3018.067	3022.0246	3034.1671	3052.7695	3074.4632	3077.0736	3082.8638	3099.4222	3103.9942	3105.3689	3132.4471	3206.1227
CCC12CC3CC1(C)C23	CC[C@@]12C[C@H]3C[C@]1(C)[C@@H]23	
InChI=1S/C9H14/c1-3-9-5-6-4-8(9,2)7(6)9/h6-7H,3-5H2,1-2H3	InChI=1S/C9H14/c1-3-9-5-6-4-8(9,2)7(6)9/h6-7H,3-5H2,1-2H3/t6-,7+,8-,9+/m1/s1
