22
gdb 119680	4.73207	0.93298	0.88007	1.5594	86.	-0.2356	0.0924	0.328	1432.8963	0.195219	-367.166469	-367.157889	-367.156945	-367.200134	33.096	
C	-0.1771925261	 1.5332793549	 0.1497525155	-0.382344
C	-0.1025111933	 0.0053391081	 0.1016920743	-0.165083
C	 0.9287610242	-0.5696381692	 1.0829602894	-0.309149
C	 0.9840714511	-2.0706741189	 1.1039651154	 0.357907
C	 1.0924950933	-3.0291740631	-0.0754406328	-0.292217
C	 0.5108743144	-4.0613116451	 0.9065962026	-0.003284
C	 1.5902011203	-4.2904702115	 1.9807360281	-0.239199
C	 1.2982448329	-2.8476889786	 2.3468125715	-0.087768
N	-0.0929588259	-2.8997329521	 1.7636354787	-0.199903
H	 0.7888648455	 1.9868411021	-0.0998079164	 0.111465
H	-0.9177176681	 1.9183927013	-0.5581019069	 0.111389
H	-0.4577654054	 1.8851395548	 1.1488316551	 0.115289
H	-1.0833951168	-0.4262369945	 0.3325331963	 0.115498
H	 0.1438938057	-0.314295051	-0.9186180452	 0.094765
H	 1.9277686537	-0.1776047829	 0.8435461127	 0.097334
H	 0.6969904082	-0.2176530354	 2.0967519059	 0.102147
H	 0.3712851995	-2.7724825938	-0.8554020153	 0.109239
H	 2.0713421029	-3.2269071447	-0.5269300132	 0.09085
H	-0.1382102885	-4.86654329	 0.56811005	 0.080481
H	 1.2398025985	-4.9694977943	 2.7624669701	 0.110867
H	 2.59722881	-4.5786507727	 1.6597779577	 0.093191
H	 1.4874041938	-2.3485502232	 3.2913401666	 0.088523
68.3337	80.609	129.6886	244.3551	280.933	311.7011	333.8958	410.4757	489.2513	669.832	730.9322	748.6707	761.701	799.896	817.6173	875.9392	891.9055	914.9767	938.3684	948.3742	998.0224	1012.3206	1028.205	1047.2888	1064.0399	1089.4389	1117.8565	1129.8428	1159.1133	1191.2453	1215.7315	1234.4085	1262.4801	1271.975	1288.3146	1312.4298	1326.5055	1355.4647	1386.817	1411.6857	1422.3725	1469.3133	1489.065	1492.5364	1500.0176	1505.7561	1509.4463	3004.9516	3025.3178	3028.1944	3034.0338	3040.0312	3042.6598	3066.898	3096.0966	3101.4783	3101.8449	3103.549	3136.2558	3170.979
CCCC12CC3CC1N23	CCC[C@@]12C[C@H]3C[C@@H]1N23	
InChI=1S/C8H13N/c1-2-3-8-5-6-4-7(8)9(6)8/h6-7H,2-5H2,1H3	InChI=1S/C8H13N/c1-2-3-8-5-6-4-7(8)9(6)8/h6-7H,2-5H2,1H3/t6-,7+,8-,9?/m1/s1
