17
gdb 76361	2.01368	1.44378	1.2078	5.1553	80.94	-0.2492	-0.0048	0.2444	1145.9771	0.132784	-380.815858	-380.806092	-380.805147	-380.850116	35.272	
C	-0.1621963353	 1.582087092	 0.1262995188	-0.430546
C	 0.0089898894	 0.0818148143	 0.0893504017	-0.019681
N	 1.2638811451	-0.5912475982	-0.1660583413	-0.127713
C	 2.4916880495	 0.1595224806	-0.4054329215	-0.325873
C	 0.7242064853	-0.6659235088	 1.2128519777	-0.012938
C	 1.3215483359	 0.0801327245	 2.2898552663	 0.297008
C	 1.8365056608	 0.6818798522	 3.1941267171	-0.441496
C	 0.2374056685	-1.9801316674	 1.5914309159	 0.24894
N	-0.1759080745	-3.0169774051	 1.8908449035	-0.339461
H	 0.6105669591	 2.082041059	 0.711437698	 0.141344
H	-0.1481164316	 1.9854103509	-0.8917240916	 0.135079
H	-1.1320428303	 1.8284699158	 0.5685472504	 0.140515
H	-0.8397743284	-0.4525473436	-0.3355192153	 0.120608
H	 2.6225372937	 1.0482862165	 0.2229267561	 0.124426
H	 3.3404378653	-0.5083834375	-0.2370277814	 0.143642
H	 2.498498233	 0.462466015	-1.4563060862	 0.135711
H	 2.2843074144	 1.2082046197	 4.0012214119	 0.210435
120.9305	129.7867	139.8621	158.2602	170.7991	176.4147	250.3782	325.575	359.0363	443.4269	492.3617	563.109	590.7974	599.0073	616.8971	629.3315	680.4444	773.4142	799.9281	974.8118	1029.7775	1062.615	1129.0998	1132.8064	1155.3743	1184.6091	1250.6651	1341.7431	1396.2725	1418.2765	1455.3485	1483.5149	1487.147	1495.8746	1509.1294	2235.9286	2359.9888	3026.2295	3047.2352	3097.8274	3108.843	3115.3565	3121.7964	3147.3732	3498.1498
CC1N(C)C1(C#C)C#N	C[C@H]1N(C)[C@]1(C#C)C#N	
InChI=1S/C7H8N2/c1-4-7(5-8)6(2)9(7)3/h1,6H,2-3H3	InChI=1S/C7H8N2/c1-4-7(5-8)6(2)9(7)3/h1,6H,2-3H3/t6-,7-,9?/m1/s1
