21
gdb 98660	3.49337	0.97943	0.88047	3.9415	79.35	-0.244	-0.0256	0.2184	1413.8402	0.181385	-424.241666	-424.232113	-424.231169	-424.277009	35.34	
C	 0.1232356793	 1.6016758066	-0.379330777	-0.380904
C	 0.21707355	 0.0924358018	-0.178567787	-0.287295
C	 0.6413390319	-0.6782257624	-1.4140305506	 0.397028
O	 0.8805235859	-0.1099559975	-2.4650473085	-0.337398
C	 0.7544120141	-2.183834394	-1.2857393303	-0.115466
C	 0.0185914117	-2.9476530052	-2.4396538384	-0.250438
C	 1.3792411279	-3.1325709937	-3.1785070231	 0.155027
O	 1.5944920947	-2.260598749	-4.2530782895	-0.440527
C	 2.1041540499	-2.7413810367	-1.8545370981	-0.250476
H	 1.086866426	 2.0152198389	-0.6874526018	 0.133642
H	-0.5995468473	 1.8473177854	-1.1615025961	 0.133628
H	-0.1860085674	 2.0958101668	 0.545739057	 0.112994
H	 0.9243644958	-0.1649859772	 0.6233972986	 0.128407
H	-0.7417014646	-0.3309300501	 0.1548660067	 0.128409
H	 0.5013953314	-2.5010101659	-0.2722163357	 0.071029
H	-0.4089879985	-3.8888777429	-2.0851982104	 0.10265
H	-0.7396977748	-2.3907983003	-2.9944991202	 0.111899
H	 1.5836803907	-4.1389328025	-3.5525074565	 0.080419
H	 1.4142990913	-1.363909706	-3.9254455274	 0.29283
H	 2.9239612194	-2.0284367042	-1.9666374428	 0.1119
H	 2.4505460023	-3.606061792	-1.282953799	 0.102643
29.2124	80.323	129.3807	190.0031	199.5441	240.5701	303.2209	346.6294	396.6135	412.5398	560.352	624.9326	626.1677	754.9004	767.0595	804.58	805.4605	857.6073	927.711	931.2631	977.288	1003.4859	1024.1061	1071.4366	1073.1176	1109.3194	1126.4917	1136.7814	1179.2255	1192.5345	1252.0411	1263.7072	1269.6486	1278.1764	1347.2774	1354.2149	1391.912	1414.661	1443.918	1453.3325	1469.2131	1488.6969	1493.1751	1497.2592	1770.0057	3010.3561	3034.803	3052.3843	3060.5308	3061.7014	3079.1919	3086.6614	3123.9008	3124.7636	3126.2117	3127.5394	3661.6621
CCC(=O)C1CC(O)C1	CCC(=O)[C@H]1C[C@@H](O)C1	
InChI=1S/C7H12O2/c1-2-7(9)5-3-6(8)4-5/h5-6,8H,2-4H2,1H3	InChI=1S/C7H12O2/c1-2-7(9)5-3-6(8)4-5/h5-6,8H,2-4H2,1H3/t5-,6+
