16
gdb 70771	3.88573	1.34181	1.12956	1.4888	77.18	-0.2404	0.0169	0.2573	1078.5399	0.122079	-400.601773	-400.593915	-400.592971	-400.633807	30.765	
C	 0.0263294786	 1.4481759163	-0.1114589547	-0.5366
C	 0.0137851822	-0.0454116321	-0.0553757683	 0.29395
N	 0.5972331696	-0.9437777821	-1.1081281356	-0.40389
C	 0.065524298	-1.926761437	-0.0992785566	 0.254967
C	 0.1388959801	-3.3458317054	-0.233167148	 0.057919
C	 0.183407646	-4.5424015441	-0.346410933	-0.376374
C	 0.4898661146	-0.9960040553	 1.0912582443	 0.024204
O	-0.799653775	-1.0380097695	 1.7569835963	-0.325073
C	-1.1488764559	-1.0221904129	 0.3474969738	-0.008834
H	 1.0481731509	 1.8208284939	-0.2302995485	 0.139545
H	-0.5719359231	 1.8189264832	-0.9506121822	 0.12653
H	-0.3918081901	 1.8564050587	 0.8139537463	 0.142345
H	 0.0038586041	-0.9498607093	-1.9425190142	 0.212473
H	 0.2288026611	-5.5990138015	-0.4441400552	 0.186251
H	 1.402491812	-1.0020844103	 1.6851305601	 0.111419
H	-2.2006954429	-1.0627464826	 0.0587229754	 0.101168
129.5093	134.1201	218.5937	243.2224	294.6006	407.1848	459.1629	518.1865	531.1784	587.4214	624.2507	661.3944	701.1874	740.8909	779.2921	833.3125	839.9445	898.2116	911.7043	987.1697	1037.4246	1065.8109	1087.8812	1103.831	1151.973	1159.9976	1218.3667	1244.3554	1276.838	1301.9722	1391.4829	1430.6454	1482.2463	1489.2681	2235.0824	3035.9872	3103.6206	3108.8567	3116.4049	3141.389	3402.0755	3500.4454
CC12NC3(C#C)C1OC23	C[C@@]12N[C@@]3(C#C)[C@@H]1O[C@@H]23	
InChI=1S/C7H7NO/c1-3-7-4-6(2,8-7)5(7)9-4/h1,4-5,8H,2H3	InChI=1S/C7H7NO/c1-3-7-4-6(2,8-7)5(7)9-4/h1,4-5,8H,2H3/t4-,5+,6-,7+
