15
gdb 48181	5.24319	0.67346	0.63036	3.7392	67.28	-0.2517	-0.115	0.1367	1658.2567	0.110118	-453.952637	-453.94309	-453.942146	-453.988859	31.781	
O	-0.8723760381	 1.4635175427	-0.1862982356	-0.210857
C	 0.1266443643	 1.2535241179	 0.4495531298	 0.091204
C	 1.401514571	 2.0934488241	 0.2962604881	 0.278559
O	 2.3517298612	 1.848083648	 1.0027785226	-0.274634
C	 1.398203523	 3.185475369	-0.7679066577	-0.277328
N	 2.5828379931	 4.0190400745	-0.8020294507	-0.280692
C	 2.6838217869	 4.9398036394	 0.3316447747	-0.273143
C	 3.8702866276	 5.789902616	 0.2004853799	 0.26267
N	 4.8144479442	 6.4490106007	 0.1135568622	-0.29423
H	 0.2204064837	 0.4460957798	 1.2055112039	 0.118071
H	 1.2654281162	 2.6901227876	-1.7397846302	 0.155215
H	 0.4992377694	 3.8012279246	-0.6434178973	 0.15167
H	 3.4115681283	 3.432537598	-0.8235772628	 0.243672
H	 1.7983694378	 5.5875709162	 0.3336876851	 0.156891
H	 2.7278429615	 4.4445274414	 1.3141391381	 0.152933
40.0408	48.736	99.5485	128.7403	163.3846	197.5721	255.3636	380.7327	391.4404	448.5721	508.8175	541.1808	667.4188	731.6562	818.2804	847.3293	955.6522	990.4088	1019.575	1105.0542	1152.0213	1177.8809	1231.0636	1293.6696	1358.7375	1365.399	1389.0018	1431.6693	1490.0535	1513.9187	1804.6013	1821.4727	2370.648	2930.2314	2991.0189	3026.6853	3053.3926	3069.923	3525.1072
O=CC(=O)CNCC#N	O=CC(=O)CNCC#N	
InChI=1S/C5H6N2O2/c6-1-2-7-3-5(9)4-8/h4,7H,2-3H2	InChI=1S/C5H6N2O2/c6-1-2-7-3-5(9)4-8/h4,7H,2-3H2
