19
gdb 112169	2.41491	1.25185	1.02672	0.457	73.1	-0.2487	0.0198	0.2685	1234.7788	0.158494	-456.334105	-456.324398	-456.323454	-456.368645	35.743	
C	-0.200185608	 1.603934414	 0.0962717086	-0.434703
C	-0.1311789832	 0.0858012033	-0.0391373806	 0.110481
N	-1.4539695849	-0.4771182369	 0.1854784486	-0.549094
C	 0.5730789899	-0.5057885265	-1.2972549195	 0.109995
C	 1.126162476	 0.3697175491	-2.4015664632	-0.087
O	 1.9358187885	-0.3843918768	-3.2848181206	-0.41778
O	 1.6665986243	-1.0132817696	-0.4468864305	-0.296216
C	 1.0523323736	-0.5499613919	 0.6993706872	 0.405413
N	 1.3711735823	-0.6671680173	 1.9058614818	-0.552209
H	 0.7637703573	 2.0787806483	-0.0977531728	 0.129051
H	-0.9488517707	 2.0121393492	-0.588122558	 0.132841
H	-0.4892144989	 1.8616427309	 1.1202007922	 0.135359
H	-1.4047310978	-1.4915422807	 0.2320788896	 0.234253
H	-1.8002417878	-0.1712169664	 1.0912365412	 0.239718
H	 0.0300065758	-1.3521227159	-1.7298421475	 0.09891
H	 0.3004076154	 0.7743751144	-2.9964489388	 0.124393
H	 1.6818496746	 1.2157645546	-1.9726552358	 0.095026
H	 2.6410967394	-0.7725488497	-2.7543221021	 0.294139
H	 2.2364151643	-1.1978800823	 2.0219669003	 0.227425
69.3139	101.2721	164.2282	182.3007	215.7021	245.0682	290.65	305.4982	338.4387	399.3123	419.9793	474.9914	596.1415	669.1617	701.7669	756.9457	842.2197	864.8023	871.4577	936.9646	997.0688	1001.6152	1032.4873	1071.5778	1075.7229	1110.0304	1160.0493	1198.0437	1217.792	1252.4224	1314.0195	1343.2549	1375.545	1405.082	1410.1937	1432.7323	1486.45	1495.0322	1496.9114	1663.8909	1819.3282	3003.7637	3046.3655	3064.7746	3083.555	3114.6026	3135.4418	3470.9069	3483.6552	3560.1578	3801.9318
CC1(N)C(CO)OC1=N	C[C@@]1(N)[C@@H](CO)O[C]1[NH]	
InChI=1S/C5H10N2O2/c1-5(7)3(2-8)9-4(5)6/h3,6,8H,2,7H2,1H3	InChI=1S/C5H10N2O2/c1-5(7)3(2-8)9-4(5)6/h3,6,8H,2,7H2,1H3/t3-,5-/m1/s1
