20
gdb 98356	3.71887	0.80584	0.70561	3.8362	78.46	-0.2434	-0.0306	0.2128	1620.9064	0.167506	-440.324318	-440.313414	-440.31247	-440.362015	36.774	
C	 0.0618287065	 1.6084491795	 0.1707108187	-0.371762
C	 0.0081412116	 0.0883372725	 0.0245457204	-0.316744
C	-1.4294142618	-0.4285483493	-0.008569913	 0.427615
O	-2.3790295582	 0.3346249452	 0.0512490623	-0.372082
N	-1.6128780314	-1.7921990155	-0.1173279286	-0.108864
C	-0.5475655713	-2.7814724778	-0.0899628989	-0.346297
C	-2.9671787976	-2.31269221	-0.0561408322	-0.256723
C	-3.4099345173	-2.918098142	-1.3787770605	 0.15451
O	-4.1253376658	-3.8789383043	-1.4807097953	-0.233791
H	 1.1003495461	 1.9510551137	 0.1887779912	 0.106294
H	-0.4544271683	 2.0979579271	-0.6578454936	 0.135485
H	-0.4282960988	 1.9289892228	 1.0926892031	 0.134191
H	 0.5223726711	-0.2232537192	-0.8934816305	 0.126169
H	 0.5472308672	-0.3956541675	 0.8483034706	 0.122853
H	-0.4337723805	-3.2305533325	 0.9069020958	 0.131534
H	-0.7719551384	-3.5893486687	-0.7946709885	 0.140591
H	 0.4044571611	-2.3432141532	-0.3829327528	 0.14447
H	-3.0788197317	-3.0606010485	 0.7374610341	 0.123806
H	-3.6255933543	-1.4632503305	 0.1592226522	 0.17484
H	-3.018018738	-2.3760148318	-2.2707796844	 0.083902
39.9837	61.5663	69.4975	88.9705	118.9409	170.5252	208.9917	226.1535	334.4971	350.1573	354.8746	429.0641	561.1569	579.277	615.4476	750.2099	774.7895	827.6026	978.8124	1019.8066	1050.9613	1065.5348	1081.0017	1097.254	1147.5615	1151.2463	1213.4114	1293.7202	1295.9055	1333.1527	1357.2808	1411.0331	1415.2575	1423.6856	1445.5279	1463.7829	1480.9575	1489.8908	1493.5024	1498.279	1523.6527	1753.8685	1839.1357	2869.011	3006.3519	3026.6323	3034.3979	3054.2012	3059.7124	3071.5373	3092.0418	3125.8235	3137.0367	3164.0108
CCC(=O)N(C)CC=O	CCC(=O)N(C)CC=O	
InChI=1S/C6H11NO2/c1-3-6(9)7(2)4-5-8/h5H,3-4H2,1-2H3	InChI=1S/C6H11NO2/c1-3-6(9)7(2)4-5-8/h5H,3-4H2,1-2H3
