18
gdb 103263	2.90784	1.2593	1.09858	3.1388	73.8	-0.2504	0.0157	0.2661	1168.8609	0.145855	-439.051372	-439.042563	-439.041618	-439.084869	33.353	
C	-0.3064854007	 1.4181128316	 0.0462928603	-0.402702
C	 0.1625830013	-0.0349838859	-0.1029427303	-0.244368
C	 0.7831721354	-0.582769273	 1.1646300421	 0.367129
O	 1.9266248299	 0.0918923679	 1.6187994378	-0.465435
C	 0.0071951659	-1.2200546163	 2.2784455675	-0.001217
O	-1.1340582159	-1.9452599352	 1.7576858317	-0.271558
C	-0.2730657209	-2.8102626075	 1.0684092801	 0.442252
N	-0.5281640579	-3.8458010005	 0.4126974806	-0.555226
C	 0.9622282993	-2.0764210997	 1.4649190061	-0.254598
H	 0.5273478537	 2.0941419003	 0.2678078083	 0.11108
H	-0.7655612541	 1.7728341916	-0.8804796313	 0.126695
H	-1.0493529154	 1.5153001512	 0.845277368	 0.125271
H	-0.6832217298	-0.6643979144	-0.3897519336	 0.127698
H	 0.9066339203	-0.1086058722	-0.9041813178	 0.11506
H	 1.6672885504	 0.9894430411	 1.8546819382	 0.292542
H	 0.0024415596	-0.9417251206	 3.3236675301	 0.125005
H	-1.5308884454	-4.0396900604	 0.402440967	 0.231226
H	 1.9329957444	-2.4887720978	 1.6947650453	 0.131144
70.9121	114.4982	182.5928	234.6807	259.408	274.1852	310.0346	401.3992	415.1389	506.8428	513.9298	667.9372	694.2168	761.3454	785.5755	829.7277	866.5068	900.6139	935.5541	954.0889	976.0267	998.5499	1027.3702	1042.2667	1069.8029	1099.9393	1158.4993	1174.9729	1258.6225	1276.9056	1293.7586	1322.6468	1361.4973	1407.9491	1430.4049	1471.1862	1501.1572	1508.8927	1831.0521	3030.2977	3049.2254	3087.55	3113.033	3114.1211	3211.521	3241.4394	3480.1834	3805.0261
CCC1(O)C2OC(=N)C12	CC[C@@]1(O)[C@H]2O[C]([NH])[C@@H]12	
InChI=1S/C6H9NO2/c1-2-6(8)3-4(6)9-5(3)7/h3-4,7-8H,2H2,1H3	InChI=1S/C6H9NO2/c1-2-6(8)3-4(6)9-5(3)7/h3-4,7-8H,2H2,1H3/t3-,4-,6-/m0/s1
