20
gdb 32780	2.99628	0.98089	0.78642	2.602	82.91	-0.1923	0.0474	0.2398	1466.4474	0.170935	-403.187689	-403.177858	-403.176914	-403.223702	35.285	
C	-0.1396136741	 1.5327605537	 0.2059854557	-0.508787
C	-0.0349869636	 0.0544027059	 0.017580881	 0.213007
C	 0.0376914937	-0.7222058332	-1.1251543047	 0.191915
C	 0.0585095234	-0.2412484902	-2.5469032328	-0.308382
C	 1.4739883412	-0.1500809358	-3.1206957213	-0.057104
O	 1.3741249118	 0.2920554192	-4.4669966564	-0.420649
C	 0.1262898192	-2.0847133059	-0.7007291652	-0.233665
C	 0.1029404399	-2.1018638461	 0.6708613794	-0.091062
N	 0.006462839	-0.8003298033	 1.0962512911	-0.285985
H	 0.7610516018	 1.9609354764	 0.664962765	 0.12527
H	-0.2800532427	 2.0288666881	-0.756832532	 0.140273
H	-0.9904097452	 1.8065198826	 0.8428095004	 0.122271
H	-0.522090563	-0.9160402718	-3.1866786572	 0.107194
H	-0.4085044123	 0.7458560695	-2.6369858855	 0.101266
H	 2.071441706	 0.5468576556	-2.5112865835	 0.081422
H	 1.9600131411	-1.1362775318	-3.0556761196	 0.08709
H	 2.2611227399	 0.334192916	-4.8354412899	 0.283162
H	 0.1894737001	-2.9495063013	-1.3446619625	 0.08687
H	 0.1376528327	-2.9172319344	 1.3753191032	 0.112424
H	-0.0481758988	-0.5093531132	 2.0567236147	 0.25347
31.7064	73.0522	93.9214	118.3109	225.445	253.3054	268.0816	343.9611	358.2301	414.9762	462.8391	636.4628	645.6088	678.1064	711.0193	771.8874	794.2227	823.914	917.791	974.1232	1005.0616	1026.565	1058.9867	1072.8336	1088.0856	1123.8672	1179.3552	1224.2707	1238.0453	1267.3494	1291.8836	1314.7817	1342.795	1411.5035	1438.5675	1450.8892	1478.7316	1480.7302	1488.3284	1496.1927	1522.6054	1525.7366	1630.7459	2967.1795	2996.1853	3012.5925	3035.0488	3054.8421	3076.2868	3121.9768	3236.7719	3267.5954	3677.366	3831.0927
CC1=C(CCO)C=CN1	Cc1c(CCO)cc[nH]1	
InChI=1S/C7H11NO/c1-6-7(3-5-9)2-4-8-6/h2,4,8-9H,3,5H2,1H3	InChI=1S/C7H11NO/c1-6-7(3-5-9)2-4-8-6/h2,4,8-9H,3,5H2,1H3
