17
gdb 24628	4.32409	1.31214	1.10254	4.1351	80.64	-0.2098	0.0401	0.2498	1095.0321	0.138793	-380.853178	-380.846111	-380.845167	-380.884834	27.595	
C	 0.1076984924	 1.5589605914	-0.0282202682	-0.31576
C	 1.3677688225	 0.724879027	-0.0642597016	-0.315765
C	 0.0240034154	 0.0608608934	 0.0188698355	 0.153816
C	-0.5333758239	-0.830936027	 1.1702694161	-0.246901
N	-1.1174460078	-1.6669650082	 0.0925222424	-0.026117
C	-1.819395912	-2.7037297326	-0.4408622993	-0.028494
N	-1.7984838336	-2.6145813097	-1.7591646986	-0.264246
C	-1.0642385709	-1.4911491533	-2.0927266646	-0.242521
C	-0.6375190654	-0.8974535479	-0.9307218072	 0.286606
H	-0.1141722844	 2.1091434696	 0.8804718455	 0.11963
H	-0.2128068499	 2.051451388	-0.9396528228	 0.128452
H	 1.9095922892	 0.6465710595	-1.0003551849	 0.128451
H	 1.9965616701	 0.7119748652	 0.8201057679	 0.11963
H	 0.2125514873	-1.3562475467	 1.7723718067	 0.133099
H	-1.2836879567	-0.3659490009	 1.8150227015	 0.133111
H	-2.3107627279	-3.471059628	 0.1359199026	 0.130989
H	-0.9083299543	-1.2107679299	-3.1217840909	 0.106019
101.0232	140.0115	217.1225	277.4338	431.76	498.6201	506.0585	658.6724	699.5234	720.2846	777.9652	781.798	818.3949	852.0213	860.8295	933.4255	937.392	995.2582	1055.7293	1060.9725	1065.3174	1081.8913	1109.1229	1145.2404	1189.7001	1202.6628	1214.1357	1248.19	1280.3025	1340.4387	1384.0004	1424.3351	1459.8016	1462.8712	1501.218	1511.0987	1577.6871	3058.1689	3115.4496	3130.2725	3133.4169	3211.1306	3225.6028	3261.5805	3265.2687
C1CC11CN2C=NC=C12	C1CC21Cn1cncc21	
InChI=1S/C7H8N2/c1-2-7(1)4-9-5-8-3-6(7)9/h3,5H,1-2,4H2	InChI=1S/C7H8N2/c1-2-7(1)4-9-5-8-3-6(7)9/h3,5H,1-2,4H2
