21
gdb 123181	7.78618	0.45306	0.44224	3.4781	77.49	-0.2563	0.0765	0.3328	2429.7203	0.179818	-461.316585	-461.305929	-461.304985	-461.354359	36.165	
O	-0.1690145836	 1.4188427971	 0.2155665908	-0.418821
C	-0.0234768657	 0.0109963892	 0.1150484715	-0.072183
C	-1.4195504029	-0.5959773687	 0.0715035573	-0.182921
C	-1.3960009062	-2.1122990527	-0.0556106634	-0.05111
O	-2.7283593572	-2.5799416535	-0.0633545135	-0.248174
C	-2.8275813616	-3.9781571442	-0.2017553196	-0.07538
C	-4.2821044308	-4.3590947815	-0.1847310835	 0.083458
C	-4.7118034226	-5.7056327147	 0.2073311415	-0.181975
O	-4.8764866897	-4.5983586838	 1.0916007502	-0.225818
H	 0.7086151003	 1.809816712	 0.2526556966	 0.285713
H	 0.5360113987	-0.2671969584	-0.7938388415	 0.0838
H	 0.5347528024	-0.3942855425	 0.9752794017	 0.085662
H	-1.9616978234	-0.3185298966	 0.9814061891	 0.120869
H	-1.9701904322	-0.1690454111	-0.7733159382	 0.116205
H	-0.8795978879	-2.4173116028	-0.9832662188	 0.082593
H	-0.8391126482	-2.5646532415	 0.783645349	 0.08662
H	-2.3696343243	-4.306312223	-1.1525242151	 0.086782
H	-2.3061269237	-4.499223721	 0.6179155822	 0.093857
H	-4.9082808098	-3.7890581281	-0.8715001863	 0.101827
H	-5.628440003	-6.1209058105	-0.2087829366	 0.116763
H	-3.9689245484	-6.4420054637	 0.5133333469	 0.112232
37.0671	51.7743	81.5017	98.3959	124.2715	153.7053	200.0029	265.4682	280.6153	345.1787	417.2648	510.3714	516.6003	778.5586	805.6386	870.0272	889.6711	948.341	992.6496	1009.3464	1045.5425	1059.4243	1089.157	1113.3452	1150.3934	1158.2875	1168.137	1172.76	1183.1485	1231.8655	1245.3697	1269.681	1293.3411	1303.7176	1306.1095	1318.0076	1368.118	1429.1477	1466.5309	1470.4113	1495.6943	1500.4013	1525.3725	1533.0095	1536.6444	2936.431	2946.9694	2956.5345	2965.7801	2980.2444	2988.9637	3052.7077	3080.7478	3099.3953	3115.5868	3165.9921	3831.705
OCCCOCC1CO1	OCCCOC[C@H]1CO1	
InChI=1S/C6H12O3/c7-2-1-3-8-4-6-5-9-6/h6-7H,1-5H2	InChI=1S/C6H12O3/c7-2-1-3-8-4-6-5-9-6/h6-7H,1-5H2/t6-/m0/s1
