19
gdb 42910	2.85505	1.30045	0.99889	3.1	80.28	-0.2308	-0.0085	0.2223	1219.0597	0.159548	-385.864814	-385.856744	-385.855799	-385.898035	31.04	
O	 0.2545392529	 0.1342786947	-0.2029741587	-0.318676
C	 0.0366653346	 1.2967086496	-0.0112186825	 0.398042
C	-1.1920358483	 2.1538660173	-0.082702331	-0.175037
C	-1.2585965972	 3.0216770546	 1.1702130193	-0.285375
C	-0.2958838872	 3.4042039543	 0.1040022763	-0.067971
C	 0.9756939652	 2.5329133873	 0.1851000584	-0.129931
C	 1.9052347986	 2.6340881074	 1.3634944016	 0.011229
C	 3.2698570489	 1.9943236453	 1.2945360028	-0.258728
C	 3.1446397941	 3.4960303817	 1.2853513375	-0.275356
H	-2.0638900067	 1.9947210707	-0.7043954611	 0.110034
H	-2.1633889809	 3.6167070591	 1.2396839117	 0.126639
H	-0.9171710103	 2.6312018587	 2.1241336115	 0.125948
H	-0.3740043279	 4.3333368797	-0.4449851664	 0.103148
H	 1.553094678	 2.6162271177	-0.7454646195	 0.096713
H	 1.4183089179	 2.5986021258	 2.3336545394	 0.081551
H	 3.6543908688	 1.5122307831	 2.1860519619	 0.114751
H	 3.5469564635	 1.4985481381	 0.3704836738	 0.121062
H	 3.3399345864	 4.0176297237	 0.3538706857	 0.109265
H	 3.4439807299	 4.0452487011	 2.1710798793	 0.112691
58.8366	116.2458	149.5772	206.8315	289.8257	343.1654	485.1015	506.7023	602.0305	678.5775	755.8084	781.7331	805.8834	844.0025	850.839	899.488	919.0059	928.9508	953.949	982.9908	1006.0062	1034.2817	1060.063	1070.1094	1078.0191	1086.805	1112.5332	1130.185	1160.2815	1181.3163	1197.1334	1214.4639	1229.9277	1284.8367	1296.6077	1333.0056	1427.9666	1472.2709	1496.4311	1507.165	1881.1456	3026.3166	3124.1971	3130.2017	3138.9123	3147.317	3197.097	3201.2689	3209.6154	3212.4402	3226.1024
O=C1C2CC2C1C1CC1	O=C1[C@H]2C[C@H]2[C@H]1C1CC1	
InChI=1S/C8H10O/c9-8-6-3-5(6)7(8)4-1-2-4/h4-7H,1-3H2	InChI=1S/C8H10O/c9-8-6-3-5(6)7(8)4-1-2-4/h4-7H,1-3H2/t5-,6+,7-/m1/s1
