13
gdb 52019	2.80991	0.87	0.68807	2.3684	64.45	-0.2853	-0.0569	0.2284	1499.2369	0.085665	-452.736175	-452.726803	-452.725859	-452.772196	30.392	
O	-0.1961398794	 0.2696585069	 0.61191821	-0.222384
C	 0.0985297656	 1.0900574332	-0.2121074961	 0.143253
C	 1.2974270682	 2.0148801557	-0.0564560914	-0.168169
O	 1.4335850048	 2.7437448496	-1.270050683	-0.237139
C	 2.5228543629	 3.6281596424	-1.2917996247	-0.130361
C	 2.6836095713	 4.1263395121	-2.6683361198	 0.310128
N	 2.8401683969	 4.5062154869	-3.7459851535	-0.283683
C	 2.3467325602	 4.7592914514	-0.3476853825	 0.291388
N	 2.1975481676	 5.6001135377	 0.4289852961	-0.29474
H	-0.4773425197	 1.2477377061	-1.1485085204	 0.115335
H	 1.1230806811	 2.6855971795	 0.7976257493	 0.161821
H	 2.1953664765	 1.4162763662	 0.1560865696	 0.142653
H	 3.457343124	 3.1132620522	-1.0108921936	 0.171898
50.7586	65.8988	100.5638	108.8525	130.3846	235.5711	249.461	359.1589	373.4054	467.5047	556.906	574.4269	655.2074	748.6959	886.3109	1005.2758	1017.6615	1074.8104	1110.5677	1143.9059	1242.1284	1318.106	1326.5728	1372.4185	1412.8089	1479.6237	1850.4326	2365.8533	2383.5681	2920.4299	2974.4677	2998.0358	3042.7978
O=CCOC(C#N)C#N	O=CCOC(C#N)C#N	
InChI=1S/C5H4N2O2/c6-3-5(4-7)9-2-1-8/h1,5H,2H2	InChI=1S/C5H4N2O2/c6-3-5(4-7)9-2-1-8/h1,5H,2H2
