14
gdb 112504	2.31566	1.25988	0.99481	2.781	63.78	-0.2801	-0.0688	0.2113	1181.6123	0.098985	-473.810796	-473.80217	-473.801226	-473.845254	29.903	
O	 0.047590075	 1.1750698039	-0.5541273204	-0.407128
C	 0.0519082565	-0.1819968503	-0.1765600003	-0.072801
C	-1.3464679424	-0.6114649132	 0.2636738969	-0.016234
O	-2.3039146971	-0.4911564072	-0.8315993406	-0.298865
C	-2.6171655413	-1.8961492806	-0.8681577183	-0.131488
C	-2.2605817336	-2.5469720181	-2.1229631785	 0.293173
N	-1.9535827939	-3.0683994715	-3.1076907135	-0.304824
C	-1.6327500751	-2.1113418252	 0.3312506104	 0.336299
O	-1.2851839645	-3.0368488045	 0.9851693948	-0.243309
H	-0.552900285	 1.2589642056	-1.3042631687	 0.300927
H	 0.4012739909	-0.8353610001	-0.9898949513	 0.113301
H	 0.7430716412	-0.2874473065	 0.6654345154	 0.136499
H	-1.6703091336	-0.0337960245	 1.137245075	 0.133133
H	-3.6663743372	-2.0971426979	-0.6191983309	 0.161317
45.1893	95.319	129.5321	144.9226	234.886	297.8364	372.8709	409.6793	460.2519	524.2399	552.219	632.9685	711.6788	847.5289	899.19	938.725	1014.9384	1046.1984	1052.0051	1085.4909	1092.8349	1179.5828	1207.041	1246.3738	1298.8209	1338.2717	1398.5673	1414.3144	1491.8706	1941.5278	2355.1838	2998.1301	3044.5253	3055.4134	3092.3872	3798.8435
OCC1OC(C#N)C1=O	OC[C@H]1O[C@@H](C#N)C1=O	
InChI=1S/C5H5NO3/c6-1-3-5(8)4(2-7)9-3/h3-4,7H,2H2	InChI=1S/C5H5NO3/c6-1-3-5(8)4(2-7)9-3/h3-4,7H,2H2/t3-,4+/m0/s1
