19
gdb 108930	3.28762	1.0937	0.92354	1.9205	77.66	-0.218	0.0258	0.2438	1295.9983	0.158373	-423.011714	-423.002832	-423.001888	-423.04518	33.896	
O	 0.0463873069	 1.4032464541	-0.0187519365	-0.413104
C	 0.0046137588	-0.0122687758	-0.0246022337	-0.172621
C	-1.4119748562	-0.4792864843	 0.0559396109	 0.300728
C	-2.5088802287	 0.2800491095	 0.1138257063	-0.2536
C	-3.7551967918	-0.547927825	 0.1088163294	 0.382514
O	-4.8260251091	-0.1961661365	 0.9326843444	-0.467681
C	-3.9951622235	-1.3543504811	-1.1499591866	-0.339512
C	-3.2793158305	-1.9798673056	 0.0339103373	-0.090288
C	-1.7535005738	-1.9612652393	 0.0546217765	-0.330535
H	 0.9682649023	 1.6749974613	-0.0249175526	 0.289125
H	 0.4739201347	-0.4237606063	-0.9366554147	 0.092774
H	 0.5717460891	-0.4347254248	 0.8249053333	 0.094154
H	-2.5159992715	 1.3623928436	 0.1310491939	 0.104665
H	-5.3533736958	 0.4623258108	 0.4681965797	 0.28167
H	-5.010169266	-1.7024492162	-1.3156037854	 0.107633
H	-3.4367092785	-1.1051563284	-2.0471589745	 0.106851
H	-3.8116053788	-2.7499841127	 0.578314135	 0.094147
H	-1.3218114298	-2.4796300958	-0.8123715725	 0.106299
H	-1.3516562378	-2.4644326374	 0.9450196799	 0.10678
78.2383	145.9488	174.162	218.9713	234.0563	270.864	368.8865	386.9613	401.2504	454.5332	492.7662	592.7879	655.6489	761.9226	836.2557	854.2781	882.1491	904.7604	924.099	954.7268	989.4911	1046.5066	1051.7889	1066.5767	1081.4093	1090.7087	1151.445	1191.6188	1207.8061	1230.5635	1243.5523	1253.1693	1317.8592	1326.4166	1337.5122	1400.0794	1465.1609	1470.2492	1482.4785	1508.601	1712.95	2934.0871	2944.5997	3008.2802	3035.1332	3116.2534	3189.0406	3210.1492	3219.623	3802.0792	3839.2726
OCC1=CC2(O)CC2C1	OCC1=C[C@@]2(O)C[C@H]2C1	
InChI=1S/C7H10O2/c8-4-5-1-6-3-7(6,9)2-5/h2,6,8-9H,1,3-4H2	InChI=1S/C7H10O2/c8-4-5-1-6-3-7(6,9)2-5/h2,6,8-9H,1,3-4H2/t6-,7-/m1/s1
