16
gdb 15953	3.10154	1.90164	1.34636	1.7061	70.71	-0.2506	0.041	0.2915	922.6945	0.129201	-346.536988	-346.529433	-346.528489	-346.568824	28.702	
C	-0.3124434401	-1.0768288538	-0.5996627753	-0.449534
C	-0.1731654664	 0.0702749759	-0.2649308161	 0.31327
C	 0.0239464976	 1.442290742	 0.1489782716	-0.25257
C	 0.0854678172	 1.785935116	 1.6796100264	-0.232831
C	 1.2670517558	 2.7593325088	 1.3991660995	-0.323838
C	 1.4313650699	 2.0747958618	 0.0422378546	 0.454167
C	 2.6255041823	 1.5015026532	-0.5726968743	-0.261926
O	 1.9630369376	 2.6567256777	-1.1225080148	-0.269434
H	-0.4465889492	-2.08704142	-0.8977456339	 0.196417
H	-0.6945057849	 2.1006516804	-0.3529702789	 0.115446
H	-0.821491711	 2.2100706331	 2.1111052287	 0.113642
H	 0.3922044999	 0.9177299279	 2.2649657373	 0.120504
H	 0.9344160544	 3.7949294298	 1.2820698391	 0.119773
H	 2.1177800316	 2.7346918353	 2.0828193584	 0.112112
H	 3.6040224691	 1.6930372381	-0.1343852708	 0.115127
H	 2.5388939362	 0.5918418839	-1.1637640515	 0.129675
91.3043	128.6873	192.0432	308.6066	337.4166	362.7305	484.055	539.2978	573.8337	617.9469	633.5824	710.5684	789.6622	855.9327	885.3961	903.7475	946.1523	954.1879	1068.5317	1072.6894	1099.1985	1129.0099	1153.7044	1165.2352	1213.2453	1229.8413	1255.6562	1267.4509	1345.2759	1429.4933	1478.0711	1495.6981	1535.562	2232.45	3043.841	3063.3948	3085.4393	3086.3772	3117.9089	3145.7562	3179.3445	3504.2847
C#CC1CCC11CO1	C#C[C@H]1CC[C@]21CO2	
InChI=1S/C7H8O/c1-2-6-3-4-7(6)5-8-7/h1,6H,3-5H2	InChI=1S/C7H8O/c1-2-6-3-4-7(6)5-8-7/h1,6H,3-5H2/t6-,7+/m0/s1
