20
gdb 93242	2.6994	1.39968	0.97239	2.8274	77.65	-0.252	0.0184	0.2704	1240.1947	0.170715	-440.304709	-440.295611	-440.294667	-440.338584	34.044	
C	-0.1547284322	 1.4850196543	 0.0818747321	-0.410948
C	 0.0350825711	-0.0210274309	-0.0030965392	 0.110797
C	 0.8089488421	-0.4427865757	-1.2413361167	-0.076491
O	 1.0934170951	-1.848314386	-1.2453697057	-0.260863
C	 1.4115703114	-2.4714915218	-0.0747073231	 0.376349
N	 2.0216690225	-3.5797021263	-0.0620483277	-0.508492
C	 0.8811003934	-1.8546773115	 1.2165799237	 0.03978
C	 1.7375004887	-2.1896747203	 2.4266176706	-0.394787
O	 0.7727874818	-0.4390222654	 1.1340903317	-0.268893
H	 0.8140083697	 1.9935093941	 0.0920408739	 0.130697
H	-0.7356516966	 1.8527242959	-0.7691929682	 0.120656
H	-0.6849254321	 1.742013838	 1.0019747407	 0.134077
H	-0.9474440186	-0.5249542884	-0.0078684597	 0.073925
H	 0.244639746	-0.2513159924	-2.1582511575	 0.116505
H	 1.7560374598	 0.1113710784	-1.2859969772	 0.112271
H	 2.2472560393	-3.8653181132	-1.0176028502	 0.219522
H	-0.1318632086	-2.2760041698	 1.3554857136	 0.093888
H	 2.7368191101	-1.7622745943	 2.3114348075	 0.126928
H	 1.277661132	-1.7723743717	 3.3260032123	 0.116712
H	 1.8338381448	-3.2706450728	 2.5277405091	 0.148366
60.0305	136.7879	189.6297	201.0838	214.3725	252.0959	305.1498	399.0842	428.2851	431.9139	478.4782	527.2107	593.2035	720.0654	788.263	865.6887	891.0917	916.9864	952.5899	975.3697	1005.9752	1070.6762	1106.8436	1136.4839	1142.261	1159.752	1176.1407	1198.8636	1280.1803	1294.9756	1340.2772	1351.1262	1370.8435	1401.7434	1404.6304	1415.8154	1439.1556	1482.5175	1483.4009	1493.5083	1499.9291	1501.4626	1746.8337	2932.7761	2953.2963	3020.4432	3046.1694	3058.6881	3095.3166	3119.5807	3128.8071	3129.9963	3161.092	3458.3307
CC1COC(=N)C(C)O1	C[C@H]1CO[C]([NH])[C@@H](C)O1	
InChI=1S/C6H11NO2/c1-4-3-8-6(7)5(2)9-4/h4-5,7H,3H2,1-2H3	InChI=1S/C6H11NO2/c1-4-3-8-6(7)5(2)9-4/h4-5,7H,3H2,1-2H3/t4-,5+/m0/s1
