20
gdb 68439	2.67539	1.54088	1.16526	4.4928	80.92	-0.2292	0.0411	0.2703	1107.0604	0.172575	-403.165712	-403.157699	-403.156755	-403.198506	31.552	
C	-0.0431005159	 1.5432584515	 0.0414200064	-0.516228
C	 0.0364539429	 0.0389100065	 0.043811458	 0.336522
C	 1.0079524494	-0.7782811	-0.8672129392	-0.253118
C	 0.6538509202	-1.9126967857	 0.1416740313	-0.061805
C	 0.6226839137	-0.7951237384	 1.228029433	-0.253121
C	-0.8469834847	-2.1150181051	-0.1360274579	-0.168156
N	-1.2249815805	-0.6938334426	-0.1941534566	-0.043211
C	-2.478896249	-0.2508648174	-0.4202772466	 0.119701
O	-3.439433388	-0.9772424415	-0.6023171955	-0.353103
H	 0.9496911673	 1.9617000916	 0.2281020931	 0.125489
H	-0.3948188424	 1.9258666594	-0.922242973	 0.132953
H	-0.7167010111	 1.9115222839	 0.8220542615	 0.132961
H	 0.7253498501	-0.9044449539	-1.9156719581	 0.10194
H	 2.0433176353	-0.4431087888	-0.7801280943	 0.103432
H	 1.2588443227	-2.8113937307	 0.2456857338	 0.077982
H	 1.6203528044	-0.4615450588	 1.5200851047	 0.103435
H	-0.0139636373	-0.9367695954	 2.1053411729	 0.101936
H	-1.0569828301	-2.6243068512	-1.0817207789	 0.122503
H	-1.378424883	-2.6382306161	 0.6649810961	 0.122521
H	-2.551156264	 0.8529152928	-0.4245159308	 0.067367
43.5634	208.2512	237.7345	256.9072	312.409	332.866	395.7642	455.9402	488.9766	571.8565	593.5307	703.513	813.3898	846.3701	857.7411	877.8406	906.882	938.1195	971.8708	1015.6726	1020.443	1027.6175	1052.586	1076.4684	1127.0269	1139.735	1181.1109	1198.2683	1203.3854	1235.6485	1255.8129	1298.118	1319.313	1343.8134	1407.4154	1425.7889	1461.485	1478.5568	1489.6762	1494.7117	1508.2276	1527.8649	1775.4823	2954.8117	3037.6056	3049.2789	3059.7571	3066.0783	3090.404	3104.5519	3115.19	3127.0041	3131.977	3137.2059
CC12CC(C1)CN2C=O	C[C@@]12C[C@@H](C1)CN2C=O	
InChI=1S/C7H11NO/c1-7-2-6(3-7)4-8(7)5-9/h5-6H,2-4H2,1H3	InChI=1S/C7H11NO/c1-7-2-6(3-7)4-8(7)5-9/h5-6H,2-4H2,1H3/t6-,7+
