21
gdb 78498	2.49903	1.51451	1.2677	1.2095	82.68	-0.2286	0.0728	0.3014	1123.0646	0.181795	-387.043361	-387.034522	-387.033578	-387.076107	34.885	
C	-0.0189662711	 1.613352829	 0.0597133185	-0.421154
C	 0.0914120841	 0.0936182974	 0.0304904808	 0.042184
C	 0.7953010333	-0.6249156039	-1.1220303754	-0.217622
C	 2.3114224792	-0.7630147773	-0.7538016293	 0.296611
C	 3.3499096012	-1.0057577021	-1.8075956165	-0.506276
C	 2.4914702113	-0.1020322197	 0.6135454631	-0.284466
C	 1.0867460373	-0.6581225464	 0.9709643187	-0.158545
C	 1.2939509973	-1.719126914	-0.2087436527	 0.337954
O	 1.2777332994	-3.0885038339	-0.2770246695	-0.457451
H	 0.942020155	 2.1012360875	-0.123899522	 0.118014
H	-0.7142759538	 1.9627033202	-0.7119249309	 0.111404
H	-0.3972487368	 1.9627896029	 1.0273812234	 0.110735
H	-0.9055180278	-0.3455869137	 0.1631490681	 0.060607
H	 0.4905959411	-0.7057576828	-2.1590589408	 0.076942
H	 3.6673893048	-0.0700883296	-2.2825418742	 0.115906
H	 4.2400273616	-1.4831174623	-1.3822108515	 0.119411
H	 2.9670324517	-1.6655742331	-2.5930478725	 0.121329
H	 3.2754773935	-0.6093954671	 1.1844201892	 0.097311
H	 2.6466628374	 0.980900541	 0.6728916722	 0.084549
H	 0.8179477288	-0.8730213879	 2.0039056778	 0.063766
H	 0.3612774724	-3.386511764	-0.3003229365	 0.288791
151.3499	176.4459	184.861	198.7815	238.6296	283.787	310.0175	361.8998	399.1561	486.9993	570.2837	597.3536	661.8129	682.236	726.9601	822.1045	887.5885	906.3172	916.5944	948.464	966.9941	987.962	1025.0474	1050.6402	1076.7474	1085.7271	1111.6563	1140.6287	1160.4775	1182.2336	1209.3786	1234.892	1260.3803	1289.7026	1297.7424	1343.0184	1391.7505	1409.155	1417.5149	1476.0519	1486.2809	1492.1781	1493.8283	1505.7792	1524.4786	3019.8794	3022.3551	3029.056	3036.8219	3080.7127	3086.8235	3087.8657	3096.0268	3113.2367	3128.3101	3182.5942	3783.2313
CC1C2C3(C)CC1C23O	C[C@H]1[C@H]2[C@@]3(C)C[C@@H]1[C@@]23O	
InChI=1S/C8H12O/c1-4-5-3-7(2)6(4)8(5,7)9/h4-6,9H,3H2,1-2H3	InChI=1S/C8H12O/c1-4-5-3-7(2)6(4)8(5,7)9/h4-6,9H,3H2,1-2H3/t4-,5+,6+,7-,8-/m1/s1
