19
gdb 92915	2.12555	1.73148	1.43568	2.6703	77.54	-0.2474	-0.0141	0.2333	1026.278	0.160706	-423.01908	-423.010884	-423.00994	-423.051383	32.618	
O	 0.2126258214	 1.2518438148	 0.488908576	-0.448554
C	 0.040701025	-0.1011858694	 0.1020393103	 0.071904
C	-1.4456873887	-0.5030035916	 0.0428623498	-0.267897
C	-2.3094386637	 0.0623609855	-1.0500225063	-0.023501
C	-1.9724357145	 0.6908712987	-2.1779704438	-0.118687
C	-0.5897339065	 1.059930986	-2.6670346683	 0.015828
O	-0.1612426995	 2.3299379053	-2.0961411567	-0.42454
C	 0.4992486701	 0.0512487359	-2.3795487001	-0.059004
C	 0.7817419498	-0.446725229	-1.1770040263	-0.076857
H	 0.1229472753	 1.8005276109	-0.3077655503	 0.28978
H	 0.4805160973	-0.6881194423	 0.9167704289	 0.077432
H	-1.5150150301	-1.6016071329	-0.0032753692	 0.109693
H	-1.8917067064	-0.2225691342	 1.0062741733	 0.117005
H	-3.3750625723	-0.0913245159	-0.880959202	 0.093621
H	-2.7803678953	 1.0141353187	-2.8324216251	 0.087834
H	-0.6463931158	 1.1941180211	-3.7549951795	 0.078426
H	-0.9150635531	 2.9305898634	-2.1416500072	 0.284706
H	 1.1105407108	-0.2367726239	-3.2300523812	 0.097208
H	 1.6185158363	-1.134779591	-1.0849989023	 0.095601
96.6998	190.9499	230.2986	262.6854	307.705	331.3836	355.812	441.0954	496.5837	520.2347	599.707	626.5635	714.6384	743.5874	758.7768	817.1353	872.6801	893.0551	904.6578	929.7783	994.6762	1002.8811	1010.7775	1052.0375	1074.8431	1103.7432	1237.529	1242.0111	1253.9604	1257.833	1338.6798	1352.8039	1358.3646	1387.1628	1418.258	1430.6577	1442.1467	1444.9291	1503.438	1721.6492	1727.4505	2988.9598	3011.3634	3034.4615	3040.1842	3118.454	3144.0735	3148.7499	3173.9905	3643.8122	3788.0616
OC1CC=CC(O)C=C1	O[C@H]1CC=C[C@@H](O)C=C1	
InChI=1S/C7H10O2/c8-6-2-1-3-7(9)5-4-6/h1-2,4-9H,3H2	InChI=1S/C7H10O2/c8-6-2-1-3-7(9)5-4-6/h1-2,4-9H,3H2/t6-,7+/m1/s1
