18
gdb 32112	3.69083	1.15802	0.89124	3.4923	84.4	-0.2195	-0.0095	0.21	1309.0426	0.148789	-398.202986	-398.193881	-398.192937	-398.238332	32.128	
C	-0.0095239597	 1.434850505	-0.1062475907	-0.324827
N	 0.0988365622	 0.0018950519	 0.0229356845	-0.349808
C	 0.6732710698	-0.6455724454	 1.0687357475	 0.424364
C	 1.2408182489	 0.0195345324	 2.1700938763	-0.232052
C	 1.7851017446	-0.7891925326	 3.1507735131	 0.011234
N	 1.7936059933	-2.1245902165	 3.0970151423	-0.311331
C	 1.2271533152	-2.659261682	 2.0046550507	 0.35488
C	 1.2222153638	-4.1618140733	 1.9175174963	-0.456237
N	 0.6717315767	-1.9902102397	 0.9956766796	-0.367006
H	 0.974495288	 1.9217150189	-0.1235264668	 0.132924
H	-0.5154770586	 1.666003725	-1.0451370377	 0.13519
H	-0.593699828	 1.8783506419	 0.7108665951	 0.132924
H	-0.2677789985	-0.5979193193	-0.6973716336	 0.250876
H	 1.2555564159	 1.097936941	 2.2540730803	 0.093787
H	 2.241575077	-0.3414719931	 4.031891683	 0.105253
H	 0.6944904748	-4.5863495238	 2.7774150595	 0.136729
H	 0.7430632957	-4.4917452685	 0.9954623638	 0.126375
H	 2.2472218089	-4.5438831619	 1.9556834267	 0.136725
32.1532	42.3601	135.8874	190.5146	203.6373	225.2658	340.5436	404.0402	463.7318	485.6859	565.9755	609.5431	644.9748	772.3171	798.2247	829.3817	938.0355	994.1169	1000.8647	1015.0235	1066.0846	1105.267	1134.8056	1161.1208	1203.1204	1272.6354	1302.7876	1368.7667	1397.2236	1403.9803	1456.2528	1470.3812	1478.9327	1481.9014	1483.5648	1521.9449	1567.0899	1606.9726	1632.889	3005.4256	3047.548	3048.7896	3104.9063	3131.6404	3144.0953	3153.0492	3215.0688	3652.1573
CNC1=CC=NC(C)=N1	CNc1ccnc(C)n1	
InChI=1S/C6H9N3/c1-5-8-4-3-6(7-2)9-5/h3-4H,1-2H3,(H,7,8,9)	InChI=1S/C6H9N3/c1-5-8-4-3-6(7-2)9-5/h3-4H,1-2H3,(H,7,8,9)
