18
gdb 78906	2.84972	2.06642	1.64876	2.0867	72.65	-0.2264	0.0624	0.2888	867.8408	0.150918	-401.8896	-401.883191	-401.882247	-401.920019	27.192	
O	-0.0861091893	 1.4565332005	 0.0163807544	-0.430705
C	 0.0108365405	 0.0430438018	-0.051053532	 0.125133
C	-1.3666654466	-0.571427268	-0.1554169501	-0.047846
C	-1.9629323785	-0.8389195089	-1.4905533078	-0.045399
C	-0.9218158174	-0.9009629801	-2.6243198707	-0.04459
C	 0.1799118957	 0.1775566187	-2.5851130002	-0.241599
C	 0.7220475397	-0.5156690794	-1.2998708864	-0.118033
C	-0.1217963763	-1.7953867036	-1.6501512296	 0.012303
N	-1.298149344	-1.9458751909	-0.6856293204	-0.170973
H	 0.7959643128	 1.809733249	 0.1689919579	 0.285546
H	 0.4922819326	-0.346934989	 0.8595650095	 0.072646
H	-2.0497938491	-0.4427210884	 0.6786939033	 0.094067
H	-3.0389124966	-0.8228373687	-1.6343481312	 0.092257
H	-1.3138596386	-1.2637838862	-3.5740357486	 0.072493
H	 0.8687215056	 0.0698495221	-3.4274293278	 0.094616
H	-0.1170831584	 1.2231115538	-2.4821937279	 0.110981
H	 1.803084156	-0.6077632006	-1.1833490058	 0.064044
H	 0.369458882	-2.7287810519	-1.9153639666	 0.075058
166.248	272.9598	285.2348	388.8451	493.5368	527.0977	627.7	674.6281	705.4785	741.4198	775.5014	813.7994	862.1356	879.1789	912.3108	932.8635	954.8726	972.2352	994.821	1025.9616	1052.627	1077.888	1087.5576	1115.2811	1123.9151	1136.5972	1177.9069	1213.1531	1232.6339	1236.7724	1245.8863	1260.2832	1290.195	1315.45	1342.4216	1358.766	1412.1989	1438.4885	1485.3187	2974.7787	3060.1361	3091.168	3110.5662	3121.8108	3138.566	3152.6243	3165.5733	3819.9315
OC1C2C3C4CC1C4N23	O[C@H]1[C@H]2[C@H]3[C@H]4C[C@@H]1[C@H]4N23	
InChI=1S/C7H9NO/c9-7-3-1-2-4(3)8-5(2)6(7)8/h2-7,9H,1H2	InChI=1S/C7H9NO/c9-7-3-1-2-4(3)8-5(2)6(7)8/h2-7,9H,1H2/t2-,3+,4-,5+,6+,7+,8?/m0/s1
