14
gdb 27007	3.07697	1.19802	0.9504	0.4993	69.52	-0.2205	-0.0019	0.2186	1191.7778	0.10028	-436.680278	-436.672111	-436.671167	-436.713821	29.71	
O	-0.4091952073	 1.3702275273	 0.2496273737	-0.429851
C	-0.1286265384	 0.0631590658	 0.0855074834	 0.24863
C	 0.0966398061	-0.5977240386	-1.0795002933	 0.2478
C	 0.1241986104	-0.2042041412	-2.5170685155	-0.468239
C	 1.4324568112	-0.3636192477	-3.1548409484	 0.311092
C	 2.5041469634	-0.5029286565	-3.6786151933	-0.451708
O	 0.3355001252	-1.9139976203	-0.7336661287	-0.170456
C	 0.2382535376	-1.9447855475	 0.6038352915	 0.076116
N	-0.0376764365	-0.8040094587	 1.1554476521	-0.337295
H	-0.5102934774	 1.5179621541	 1.1975115891	 0.308713
H	-0.6249255257	-0.7760653431	-3.0823390454	 0.148788
H	-0.1888275595	 0.8451183835	-2.5683739178	 0.161964
H	 3.4535618662	-0.623225394	-4.1384198942	 0.199538
H	 0.3941644547	-2.8960894032	 1.087258537	 0.154908
42.1972	96.5248	224.9329	240.1835	325.0877	332.5262	343.9112	408.9098	514.0417	621.0773	634.024	647.714	685.9417	729.8685	790.6503	830.0893	909.5926	946.3624	962.8155	1073.1837	1162.8178	1179.5144	1259.7474	1298.5518	1323.2387	1359.2344	1423.9077	1450.654	1551.2922	1732.6243	2243.5692	3010.0687	3067.2181	3278.6205	3506.4831	3810.8009
OC1=C(CC#C)OC=N1	Oc1c(CC#C)ocn1	
InChI=1S/C6H5NO2/c1-2-3-5-6(8)7-4-9-5/h1,4,8H,3H2	InChI=1S/C6H5NO2/c1-2-3-5-6(8)7-4-9-5/h1,4,8H,3H2
