19
gdb 83289	2.73672	1.35424	1.22988	1.4582	70.5	-0.2243	0.062	0.2863	1094.4889	0.160136	-460.130992	-460.122698	-460.121754	-460.163536	32.516	
O	 0.1226171056	 1.3976517742	-0.001321596	-0.404595
C	 0.0287841583	 0.0055103825	-0.0145329605	 0.042518
C	-1.3506884382	-0.6596805673	-0.0157305024	-0.163206
C	-2.601708337	 0.2115191497	 0.0061149791	-0.220672
C	-3.0776676953	 0.5248684157	-1.4108110177	 0.098202
O	-4.1038192197	 1.5009576507	-1.3090779463	-0.43139
C	-1.9076611175	 1.0504234509	-2.2470377773	-0.09406
O	-0.8720454201	 0.0858350916	-2.4011159284	-0.258724
C	-0.4978148956	-0.6362419928	-1.2676614496	 0.097594
H	-0.0588287788	 1.7043616254	 0.8943544495	 0.290983
H	 0.830916551	-0.51309327	 0.5113932595	 0.084655
H	-1.4269429126	-1.60960769	 0.5037133274	 0.089481
H	-3.4005764295	-0.2845569386	 0.5630168924	 0.106431
H	-2.4105909573	 1.1692819684	 0.5049002708	 0.09878
H	-3.4549942214	-0.3991236903	-1.8780898401	 0.069749
H	-4.4490148177	 1.6677398205	-2.1922407859	 0.283743
H	-2.2403073556	 1.278618056	-3.2663305991	 0.089489
H	-1.5258896767	 1.9702757997	-1.7888290155	 0.118883
H	-0.0212754318	-1.5604878862	-1.5790169399	 0.10214
100.0658	179.5665	226.149	254.9571	291.6191	326.3489	336.1222	418.7791	448.9956	487.826	543.6732	639.9542	711.6252	750.2783	775.4799	872.4788	900.5476	929.354	999.1654	1038.7071	1057.0825	1082.5705	1099.8111	1113.106	1125.1612	1148.8041	1186.8705	1213.0063	1244.9402	1257.99	1293.2729	1303.8259	1328.2562	1344.2299	1358.2409	1380.7493	1416.0494	1441.3361	1462.0001	1486.089	1507.9205	2971.1648	3029.0627	3037.1393	3077.195	3090.3557	3093.3751	3148.1255	3159.9995	3788.8234	3813.3582
OC1C2CC(O)COC12	O[C@H]1[C@H]2C[C@@H](O)CO[C@@H]12	
InChI=1S/C6H10O3/c7-3-1-4-5(8)6(4)9-2-3/h3-8H,1-2H2	InChI=1S/C6H10O3/c7-3-1-4-5(8)6(4)9-2-3/h3-8H,1-2H2/t3-,4-,5+,6-/m1/s1
