17
gdb 14978	4.68247	1.51255	1.20912	2.0682	65.81	-0.2516	0.0254	0.2769	994.5817	0.143259	-401.008658	-401.000994	-401.00005	-401.040955	27.735	
C	-0.1048634488	 1.371751351	 0.0103497037	-0.246363
O	-0.0914108665	-0.0463812395	-0.0618587511	-0.22972
C	 0.6437295058	-0.5603394836	-1.1099067301	 0.242437
C	 0.732688768	-2.0695681063	-0.9831389329	-0.264925
C	 1.3741636552	-2.6476776822	-2.2493250684	-0.165378
N	 0.7992667509	-2.1153416813	-3.4812665281	-0.262248
C	 0.1797551222	-1.016717781	-3.4127773707	 0.133357
O	-0.0125247239	-0.1983527823	-2.3464877664	-0.248344
H	 0.9170681481	 1.7750707595	 0.061800068	 0.110032
H	-0.6182713001	 1.8127987998	-0.8506369378	 0.133941
H	-0.6388078278	 1.6342454332	 0.925435622	 0.133093
H	 1.6453486068	-0.0978044939	-1.1486358034	 0.072955
H	 1.300415079	-2.3265445002	-0.0845570247	 0.112204
H	-0.2850380671	-2.4540709351	-0.859054634	 0.125681
H	 2.45607012	-2.4560240237	-2.2600537581	 0.112751
H	 1.2616923006	-3.736592294	-2.2636889998	 0.11676
H	-0.2982567324	-0.5898793004	-4.2927919083	 0.123765
91.9569	112.4023	172.4252	193.8928	277.1945	394.9223	458.0463	511.234	540.7556	564.3316	781.954	850.7354	884.9279	926.7634	965.3481	1004.4263	1057.1681	1064.481	1120.1125	1135.626	1179.6317	1187.4712	1218.8701	1245.7126	1264.1627	1336.7157	1362.2429	1389.327	1409.0191	1421.5964	1478.1344	1483.7943	1486.2032	1495.4506	1511.212	1737.3267	2952.895	2999.5359	3015.9704	3054.034	3069.1883	3077.8233	3107.2273	3133.7614	3157.416
COC1CCN=CO1	CO[C@H]1CCN=CO1	
InChI=1S/C5H9NO2/c1-7-5-2-3-6-4-8-5/h4-5H,2-3H2,1H3	InChI=1S/C5H9NO2/c1-7-5-2-3-6-4-8-5/h4-5H,2-3H2,1H3/t5-/m1/s1
