17
gdb 79171	2.88146	1.91724	1.41384	4.7381	71.71	-0.222	0.0279	0.2498	933.9726	0.137877	-417.986021	-417.978767	-417.977822	-418.017806	27.972	
C	-0.0401634058	 1.3636306395	-0.0581847111	-0.348311
N	 0.0071583353	-0.0638707399	 0.1496267839	-0.071628
C	-1.1225175615	-0.9487797496	 0.1502946545	-0.015472
C	-1.1658664779	-2.1127706905	-0.8617072836	-0.114468
C	 0.241687003	-2.3746990896	-1.373025325	-0.196939
N	 0.7915430171	-2.2165037319	 0.0510474356	-0.208666
C	-0.6241574421	-2.2852128176	 0.5453919783	-0.047252
C	 1.1714492761	-0.8007631105	 0.1168495068	 0.39455
O	 2.2966461482	-0.3760352727	 0.0495854648	-0.380871
H	 0.9891750207	 1.7268299804	-0.0394926768	 0.16697
H	-0.4900079856	 1.6166726992	-1.0269168571	 0.125423
H	-0.6111038295	 1.864903845	 0.7320338907	 0.125137
H	-2.0617245407	-0.5614052537	 0.5248652612	 0.114002
H	-2.0994135684	-2.4625014458	-1.2854167681	 0.098907
H	 0.3906638354	-3.407151684	-1.6946732758	 0.128448
H	 0.6797922809	-1.6936497425	-2.1103323165	 0.124036
H	-0.9056530652	-2.8981726858	 1.3919904381	 0.106134
100.9795	154.005	164.9552	285.5438	347.1012	447.7001	505.5798	637.3144	664.1433	730.4095	766.8916	789.8575	817.3151	858.2347	909.4066	949.502	974.6709	1004.3177	1022.1157	1035.2845	1045.2435	1076.0381	1104.6799	1125.3082	1158.8922	1178.246	1227.9542	1255.3574	1294.1659	1320.6814	1351.0367	1426.9177	1460.1806	1491.3941	1511.5928	1519.2691	1847.3943	3012.675	3049.0997	3064.6148	3114.4617	3139.4195	3185.1122	3191.648	3204.2828
CN1C2C3CN(C23)C1=O	CN1[C@H]2[C@H]3CN([C@@H]23)C1=O	
InChI=1S/C6H8N2O/c1-7-4-3-2-8(5(3)4)6(7)9/h3-5H,2H2,1H3	InChI=1S/C6H8N2O/c1-7-4-3-2-8(5(3)4)6(7)9/h3-5H,2H2,1H3/t3-,4+,5-/m1/s1
