18
gdb 97117	2.54562	1.25585	0.94332	1.9472	75.99	-0.2513	-0.0242	0.2271	1279.2176	0.145384	-439.100678	-439.09102	-439.090075	-439.136238	33.29	
C	 0.1599064913	 1.2489614786	-0.2267172821	-0.341636
N	 0.3509676294	-0.1919585919	-0.1208329174	-0.326852
C	 0.5813148011	-0.7015902444	 0.996395792	 0.465652
O	 0.6942707186	-0.1435726292	 2.2532106107	-0.263123
C	 0.9139446966	-1.4596407615	 2.8626104936	-0.101652
C	 0.8012741705	-2.128525237	 1.4846043592	-0.268915
C	-0.3875499403	-3.0604284031	 1.2507486086	 0.373448
C	-0.5662776983	-3.5192230173	-0.1776250529	-0.48682
O	-1.1290170875	-3.3706968026	 2.1526192447	-0.290959
H	 0.9155356132	 1.6612347046	-0.9041140189	 0.130481
H	-0.8177742968	 1.4464603623	-0.6789949739	 0.131504
H	 0.2191042351	 1.7774632877	 0.7313275976	 0.131003
H	 1.8904657297	-1.5034577029	 3.3482291719	 0.121456
H	 0.1104760304	-1.7151800058	 3.5543281303	 0.147877
H	 1.7178953785	-2.5760934963	 1.0912586325	 0.121631
H	 0.2746880874	-4.1594614321	-0.4698151062	 0.139324
H	-1.4995003134	-4.0737324932	-0.2805154314	 0.141823
H	-0.5513179356	-2.6489520658	-0.8432413082	 0.175759
58.3822	72.8702	108.9076	119.7997	164.4987	197.2203	237.8257	293.9583	369.6758	467.7509	556.9282	599.0252	657.9377	733.1506	773.7091	925.9971	942.9085	964.8642	995.1584	1051.6975	1066.0528	1094.9159	1117.1769	1133.0956	1162.7634	1174.1333	1186.7327	1194.7171	1320.4455	1346.5876	1387.3911	1439.6593	1465.9153	1474.7488	1493.7768	1497.0529	1511.5615	1812.3217	1841.8667	3021.3556	3033.6436	3078.3071	3085.1777	3087.4192	3093.5341	3097.8026	3149.8583	3155.7792
CN=C1OCC1C(C)=O	CN=C1OC[C@H]1C(=O)C	
InChI=1S/C6H9NO2/c1-4(8)5-3-9-6(5)7-2/h5H,3H2,1-2H3	InChI=1S/C6H9NO2/c1-4(8)5-3-9-6(5)7-2/h5H,3H2,1-2H3/t5-/m0/s1
