18
gdb 53730	3.32643	0.71917	0.67842	5.3216	79.29	-0.2593	-0.0374	0.2219	1707.6529	0.144985	-439.085696	-439.075239	-439.074295	-439.122444	37.193	
C	-0.3045496006	 1.5535513556	-0.0302819623	-0.383136
C	-0.0136307769	 0.0460008306	 0.122742593	 0.015487
C	 0.947399126	-0.194353831	 1.311914316	-0.398812
N	-1.3092732381	-0.6491185557	 0.2689357656	-0.519741
H	-1.7659565609	-0.3049350641	 1.1105622782	 0.227545
H	 0.1299855149	-1.9881063576	-3.8008666647	 0.311407
H	-1.1456892159	-1.6412692529	 0.4207003253	 0.230028
C	 0.6236676137	-0.4433609973	-1.1073802834	 0.226947
C	 1.1768260826	-0.8388150038	-2.1035963168	-0.150491
C	 1.840256566	-1.3085077119	-3.3027053635	 0.337335
O	 1.0258573583	-1.9705270869	-4.1620043476	-0.358407
O	 3.0030671535	-1.1474582998	-3.5497541054	-0.295873
H	 0.6172089555	 2.1143642098	-0.1999427711	 0.133701
H	-0.9876994931	 1.724487081	-0.8643354964	 0.139435
H	-0.7721977082	 1.9287944311	 0.8866259975	 0.114682
H	 0.4858769933	 0.1754450732	 2.233757656	 0.113143
H	 1.1539180734	-1.261952554	 1.431177686	 0.122652
H	 1.9007025267	 0.3228310837	 1.1693403335	 0.134097
22.1966	74.1768	87.5675	187.8183	225.2904	234.2935	266.0879	277.6367	304.3377	354.8292	395.7665	508.4755	517.945	546.8678	569.9234	613.5559	690.242	767.6701	819.4241	901.4601	928.8211	969.437	988.0212	1027.6258	1100.4441	1175.0157	1195.0404	1241.8698	1314.2144	1350.4894	1393.3141	1414.8435	1476.719	1480.8738	1495.0354	1505.918	1652.1279	1847.9158	2340.0219	3032.8759	3042.3381	3108.6701	3115.7574	3118.8613	3144.3502	3472.708	3555.1607	3787.1744
CC(C)([NH3+])C#CC([O-])=O	CC(C)(N)C#CC(=O)O	
InChI=1S/C6H9NO2/c1-6(2,7)4-3-5(8)9/h7H2,1-2H3,(H,8,9)	InChI=1S/C6H9NO2/c1-6(2,7)4-3-5(8)9/h7H2,1-2H3,(H,8,9)
