22
gdb 113958	3.12348	0.91323	0.83759	2.1414	83.39	-0.2164	0.0656	0.282	1491.2747	0.193462	-404.289975	-404.280203	-404.279259	-404.32536	35.999	
O	 0.0831208237	 1.5106451581	 0.0576071234	-0.40379
C	-0.0482308873	 0.125926593	 0.3491654622	-0.115657
C	-1.4504607281	-0.3681016983	 0.0514404173	 0.003867
C	-2.571111539	 0.574702289	-0.222168177	-0.244621
N	-2.0778244263	-0.3178879115	-1.2662899651	-0.088663
C	-1.358839758	 0.2590953211	-2.4028874114	-0.174954
C	-2.3193900824	 0.5779852333	-3.5250604964	 0.041354
C	-2.9721270563	 1.9352444791	-3.6118071544	-0.252134
C	-1.9112272727	 1.5410523738	-4.6099001041	-0.277846
H	 1.0141797071	 1.7425202523	 0.1237169008	 0.289514
H	 0.679085943	-0.4673655589	-0.2287358345	 0.095599
H	 0.1533571176	-0.0688756679	 1.4148870348	 0.09552
H	-1.6684160055	-1.291090341	 0.5890912071	 0.087198
H	-3.5716700673	 0.3699021274	 0.1506914666	 0.105245
H	-2.3069572046	 1.6271860038	-0.2849869717	 0.127651
H	-0.7860161733	 1.1588083665	-2.1340789279	 0.100874
H	-0.6371034401	-0.4954448778	-2.7443273124	 0.091956
H	-2.9304125567	-0.2662661293	-3.8309386263	 0.086453
H	-4.0014951266	 1.9935238101	-3.9478307015	 0.108021
H	-2.7078522603	 2.6743298495	-2.8625735283	 0.110331
H	-0.9388722602	 2.016550534	-4.5274849276	 0.106061
H	-2.2126931567	 1.3270264036	-5.6293463732	 0.10802
52.486	80.9445	113.2081	129.0936	215.9285	231.4164	260.0489	323.0184	355.5057	431.5111	461.0479	617.8783	748.6461	774.988	799.3649	812.8059	849.4243	911.5398	927.8879	961.1145	972.21	1023.6693	1032.9001	1053.3489	1064.3358	1078.2806	1103.5964	1122.9629	1137.6256	1144.9678	1171.7544	1197.6237	1202.1254	1225.8453	1232.6905	1277.1705	1294.4485	1337.5153	1357.7252	1416.2458	1422.2585	1456.9949	1468.573	1496.5223	1504.0656	1512.8274	1518.1154	2964.0564	2987.7521	2993.3097	3033.2893	3099.9537	3103.9061	3127.0361	3132.3306	3151.1526	3189.5596	3204.6366	3220.2508	3828.4826
OCC1CN1CC1CC1	OC[C@H]1CN1CC1CC1	
InChI=1S/C7H13NO/c9-5-7-4-8(7)3-6-1-2-6/h6-7,9H,1-5H2	InChI=1S/C7H13NO/c9-5-7-4-8(7)3-6-1-2-6/h6-7,9H,1-5H2/t7-,8?/m1/s1
