21
gdb 41559	2.85261	1.81091	1.75453	0.1689	84.33	-0.2332	0.0199	0.2532	927.6395	0.18718	-349.949639	-349.943153	-349.942209	-349.980027	28.66	
C	-0.031998856	 1.5842929363	 0.1469008829	-0.232223
C	 1.5257546404	 1.6141826753	 0.1328126735	-0.232226
C	 1.5569174141	 0.0710474751	-0.0661221647	 0.005504
C	-0.0075397108	 0.0410227951	-0.051920617	 0.005501
C	-0.3584669192	-0.5979228598	-1.4417873158	-0.071603
C	 0.7938625471	-1.6360167681	-1.526497947	-0.202486
C	 1.9068180579	-0.5543995235	-1.4623693493	-0.071606
C	 1.4146535695	 0.3843805872	-2.5531893968	-0.081823
C	 0.0773737671	 0.3586577209	-2.5410638596	-0.081816
H	-0.4765314006	 1.9006642803	 1.093818317	 0.090228
H	-0.5097545728	 2.1461876863	-0.659422153	 0.093915
H	 1.9669342841	 2.1937220788	-0.6818191903	 0.093912
H	 1.9748865754	 1.9476862663	 1.0716465415	 0.090229
H	 2.0571062154	-0.4838080329	 0.7314449568	 0.063604
H	-0.4715197182	-0.5323120429	 0.7544151949	 0.063605
H	-1.3776836338	-0.979200976	-1.5191769199	 0.053583
H	 0.814916036	-2.3314812314	-0.6798182727	 0.085936
H	 0.7961085546	-2.1966378216	-2.4648117579	 0.092276
H	 2.9383521725	-0.896276066	-1.5584066003	 0.053585
H	 2.0524832212	 1.0139018332	-3.1611335468	 0.090953
H	-0.595107504	 0.9629795874	-3.1371207056	 0.090951
158.9368	262.904	342.3643	464.3092	474.9194	497.6686	646.0931	708.5565	710.627	751.926	761.678	785.7542	830.9433	873.414	890.968	910.4424	915.5638	953.6325	953.965	963.9978	973.0905	1008.3252	1017.2116	1057.6683	1066.2369	1106.5045	1125.5568	1137.7249	1145.7648	1173.9209	1223.6323	1244.3112	1255.6856	1272.6229	1275.3381	1282.5018	1285.4688	1297.8278	1308.9512	1340.557	1372.9748	1469.5715	1489.4548	1495.5084	1642.0401	3042.4697	3055.2733	3060.587	3063.5623	3075.5306	3098.7598	3100.4636	3102.1809	3107.3948	3117.217	3193.087	3218.878
C1CC2C1C1CC2C=C1	C1C[C@H]2[C@@H]1[C@@H]1C[C@H]2C=C1	
InChI=1S/C9H12/c1-2-7-5-6(1)8-3-4-9(7)8/h1-2,6-9H,3-5H2	InChI=1S/C9H12/c1-2-7-5-6(1)8-3-4-9(7)8/h1-2,6-9H,3-5H2/t6-,7+,8-,9+
