23
gdb 89741	2.36461	1.52234	1.12615	0.2494	90.06	-0.2427	0.086	0.3286	1208.2579	0.205291	-351.121484	-351.112447	-351.111503	-351.15504	35.928	
C	-0.8432686733	 1.1061540858	-0.0552653962	-0.411082
C	 0.1064253511	-0.0819362027	-0.0752834211	-0.039483
C	 1.4835998612	 0.0972819801	-0.7927783894	-0.333771
C	 2.1673657287	-0.5579740922	 0.4160661728	 0.319911
C	 3.0882244844	-1.74388224	 0.3623524045	-0.320032
C	 3.5834605709	-0.4116676508	 0.8818867978	-0.333781
C	 0.8763087707	-0.4522816147	 1.2119702419	 0.307096
C	 0.7167598527	 0.1953950005	 2.5590313676	-0.321539
C	 0.4160749091	-1.2755127301	 2.3749516701	-0.333841
H	-0.3450579051	 2.0037535637	 0.3267636021	 0.11483
H	-1.2093327788	 1.3288012974	-1.0637041452	 0.112705
H	-1.7183134405	 0.9139986732	 0.5765269168	 0.111341
H	-0.4129578274	-0.963570137	-0.4685966237	 0.070552
H	 1.6017894942	-0.4048640134	-1.7568101239	 0.095336
H	 1.7504783316	 1.1531102867	-0.9112733947	 0.096453
H	 2.9358328706	-2.5447713751	 1.0794682596	 0.108926
H	 3.4361133818	-2.0774873516	-0.6105701874	 0.107635
H	 4.2691053492	 0.1605112876	 0.2644005113	 0.109163
H	 3.7681405698	-0.3189749682	 1.9483017443	 0.10746
H	 1.6169507828	 0.4691355566	 3.1006636223	 0.108315
H	-0.1167928707	 0.8734433163	 2.7124458304	 0.109176
H	-0.6222617288	-1.593156889	 2.3981429513	 0.107893
H	 1.1068571559	-1.9971015032	 2.8015733286	 0.106735
48.5864	195.2544	200.8589	217.9091	222.8687	245.0992	320.4694	389.6036	421.5091	503.0742	541.7495	582.5318	738.2163	774.9818	791.1475	837.2521	873.3445	890.243	897.4619	913.8882	932.0057	960.8408	964.8058	994.2984	1040.2626	1056.5065	1067.7023	1072.1452	1073.371	1106.9676	1135.8043	1175.8978	1185.3048	1189.2692	1194.154	1235.5546	1259.071	1274.6547	1346.4846	1364.1113	1406.9721	1410.5297	1458.9409	1467.6253	1486.0413	1491.5241	1497.1342	1500.0912	1512.0581	3023.008	3030.9095	3039.6759	3086.7922	3092.9183	3098.2892	3114.3428	3116.4758	3120.2729	3122.3032	3191.0491	3192.7983	3207.7988	3209.307
CC1CC2(CC2)C11CC1	C[C@H]1CC2(CC2)C21CC2	
InChI=1S/C9H14/c1-7-6-8(2-3-8)9(7)4-5-9/h7H,2-6H2,1H3	InChI=1S/C9H14/c1-7-6-8(2-3-8)9(7)4-5-9/h7H,2-6H2,1H3/t7-/m0/s1
