22
gdb 84656	2.21035	1.76782	1.28859	1.4518	86.84	-0.2262	0.0176	0.2438	1101.9115	0.196352	-367.205829	-367.197379	-367.196435	-367.238198	34.129	
C	-0.5290491042	 1.4422173	-0.0286232041	-0.391401
C	-0.0233772119	-0.0184792169	-0.023725176	-0.048494
C	 0.6588286945	-0.3314954747	-1.3350956749	-0.088511
C	 1.9821032064	-0.3229782802	-1.502102376	-0.023276
C	 2.9034377535	-0.0371890607	-0.3764327502	-0.094554
N	 2.6818193943	 1.2403132661	 0.3702943942	-0.33459
C	 2.3408436676	-0.0446240432	 0.9986216791	-0.019971
C	 0.8747372537	-0.3939318915	 1.1928356883	 0.013396
C	 0.3469907118	 0.1457819802	 2.5293338982	-0.410278
H	 0.3131714889	 2.1361308675	-0.0316960283	 0.150346
H	-1.1325977187	 1.6264130111	-0.9237819854	 0.101846
H	-1.1599518252	 1.6479472313	 0.8412654927	 0.104668
H	-0.9149988617	-0.6576056124	 0.0459253775	 0.071252
H	 0.0101944847	-0.5252605768	-2.1864406033	 0.085153
H	 2.420063684	-0.5295244396	-2.4745494394	 0.083059
H	 3.9368521161	-0.3475215653	-0.5048700124	 0.079113
H	 3.5711899744	 1.5745388428	 0.734765955	 0.227099
H	 2.9915970937	-0.3947915934	 1.799482497	 0.075622
H	 0.8547502039	-1.4923393705	 1.2497494726	 0.07558
H	 0.426632176	 1.235530728	 2.5777353535	 0.128946
H	-0.7028192946	-0.124970156	 2.6839653635	 0.110318
H	 0.921565433	-0.2679873158	 3.3652969184	 0.104678
118.3046	181.6914	235.615	247.6146	270.5956	307.1902	347.1696	383.0474	452.3192	504.0998	601.0223	661.9719	690.4884	744.6752	793.0644	831.7339	850.7727	904.956	924.3011	953.4852	975.094	988.5957	993.576	1021.7367	1077.9841	1096.2091	1106.2038	1144.8315	1159.0164	1168.8013	1205.0257	1224.4772	1269.1991	1325.0362	1336.1759	1343.255	1369.9079	1390.9005	1403.7618	1406.3703	1432.9574	1459.706	1491.5102	1498.0682	1509.4043	1514.6892	1711.9701	2986.6688	3002.4715	3031.3456	3039.2499	3092.2172	3099.8925	3104.6362	3113.4903	3139.0153	3143.541	3146.5511	3172.9917	3487.8331
CC1C=CC2NC2C1C	C[C@H]1C=C[C@H]2N[C@H]2[C@H]1C	
InChI=1S/C8H13N/c1-5-3-4-7-8(9-7)6(5)2/h3-9H,1-2H3	InChI=1S/C8H13N/c1-5-3-4-7-8(9-7)6(5)2/h3-9H,1-2H3/t5-,6-,7+,8-/m0/s1
