22
gdb 12015	3.74174	1.2294	1.17532	0.1161	83.3	-0.2401	0.0897	0.3298	1178.1239	0.199274	-313.05194	-313.042895	-313.041951	-313.085521	34.516	
C	-0.1032933237	 1.5431838676	-0.0634881399	-0.451534
C	-0.0026914676	 0.0310702197	 0.0111027218	 0.343985
C	-1.2336205382	-0.686273129	-0.5127008471	-0.447317
C	 1.3418812835	-0.6193668424	-0.2330789603	-0.345426
C	 0.741860542	-0.6278708837	 1.1576065111	-0.028879
C	 1.3706844865	 0.1286913408	 2.2854195538	 0.018453
C	 0.724078542	 0.1364059123	 3.650339099	-0.268654
C	 2.0116605486	-0.6190290287	 3.4303876166	-0.272966
H	 0.8089009687	 2.0388754493	 0.2777233783	 0.112124
H	-0.2846929036	 1.8651900499	-1.0958796705	 0.110805
H	-0.9334398938	 1.9157973594	 0.5485030208	 0.113846
H	-1.4193085006	-0.4359614847	-1.5644575158	 0.110766
H	-1.123683599	-1.7733508431	-0.4448628719	 0.109252
H	-2.1280422913	-0.4051200632	 0.0564165564	 0.111738
H	 1.3797460399	-1.5494187554	-0.7914648876	 0.102121
H	 2.1949434346	 0.0313284312	-0.4022832624	 0.102682
H	 0.322220797	-1.581574664	 1.4739932355	 0.068973
H	 1.870360545	 1.0489076045	 1.9980571223	 0.077143
H	 0.7534772279	 1.0501740975	 4.2338386572	 0.107856
H	-0.1855924337	-0.4413808895	 3.778711709	 0.108443
H	 1.9672746871	-1.7032692858	 3.4122180228	 0.108961
H	 2.9238356889	-0.2213669827	 3.8617070709	 0.10763
49.1417	135.2561	155.0615	207.2071	236.2587	301.2861	344.4061	361.2232	366.7649	422.2091	508.2596	699.2706	745.9803	803.2844	823.2414	866.9919	904.7917	920.9391	928.7593	967.5331	981.6564	992.0579	1041.7222	1058.2032	1058.602	1073.9151	1093.1625	1119.6231	1133.0968	1157.9017	1197.6692	1214.7274	1235.684	1278.5597	1328.0236	1350.4551	1410.1721	1424.0401	1451.5872	1469.9354	1481.3714	1491.7031	1493.9993	1500.9778	1506.2427	1517.6727	3015.9746	3024.0775	3073.9203	3078.2608	3094.4352	3110.4716	3112.3839	3118.4846	3126.7722	3131.6746	3148.9246	3200.9836	3204.2539	3220.027
CC1(C)CC1C1CC1	CC1(C)C[C@H]1C1CC1	
InChI=1S/C8H14/c1-8(2)5-7(8)6-3-4-6/h6-7H,3-5H2,1-2H3	InChI=1S/C8H14/c1-8(2)5-7(8)6-3-4-6/h6-7H,3-5H2,1-2H3/t7-/m0/s1
