15
gdb 33620	3.56125	1.63423	1.44371	3.2126	73.04	-0.2513	0.0046	0.2559	902.6733	0.114868	-379.59669	-379.59047	-379.589526	-379.627266	25.182	
N	 0.05706972	-1.1941453101	 0.0203525816	-0.344935
C	 0.0156077243	-0.0369693406	 0.0304360024	 0.114202
C	-0.0439167129	 1.3875057338	 0.0415992123	 0.275244
C	-0.7132043967	 2.3585450095	 1.0558163176	-0.126182
C	 0.3494139273	 3.3411099671	 0.7488523183	-0.047212
C	 1.2206745074	 2.3594657626	-0.0576975876	-0.124823
C	 0.888517215	 2.6339918997	-1.5429242724	-0.246258
C	-0.5527642059	 2.3308638759	-1.1112902753	-0.040545
N	-0.9306082243	 3.3422783289	-0.0418895718	-0.14352
H	-1.3867997667	 2.2125549291	 1.8903251376	 0.118742
H	 0.6336495242	 4.2527176144	 1.2567447597	 0.113043
H	 2.205602496	 2.0821666671	 0.3087365783	 0.103123
H	 1.1066061483	 3.6229531768	-1.9522384735	 0.118222
H	 1.2796071959	 1.8500102147	-2.1975196545	 0.127076
H	-1.365921692	 2.0920230609	-1.7927126427	 0.103823
143.7716	162.215	386.4701	499.6973	514.5818	532.2607	556.9852	709.2074	760.7499	779.1237	799.0485	854.72	884.3665	929.8636	937.0967	951.9808	981.9434	991.9407	1009.9294	1029.0135	1073.2132	1098.0839	1140.0795	1153.9377	1178.9264	1208.3956	1236.1536	1263.2434	1275.939	1311.3921	1334.8465	1478.3691	2340.1071	3064.1448	3127.549	3151.4619	3159.957	3197.3369	3213.1852
N#CC12C3C4C1CC2N34	N#C[C@@]12[C@H]3[C@H]4[C@@H]1C[C@@H]2N34	
InChI=1S/C7H6N2/c8-2-7-3-1-4(7)9-5(3)6(7)9/h3-6H,1H2	InChI=1S/C7H6N2/c8-2-7-3-1-4(7)9-5(3)6(7)9/h3-6H,1H2/t3-,4-,5+,6+,7+,9?/m0/s1
