17
gdb 77878	2.07266	1.75852	1.21841	1.9151	70.18	-0.2404	-0.0163	0.2241	1063.9738	0.133725	-458.943856	-458.934843	-458.933899	-458.977323	33.563	
C	-0.0713503563	 1.6560623951	 0.0207125674	-0.421452
C	 0.0570218076	 0.1377003724	-0.0661497333	-0.090762
C	 0.6784061643	-0.5479494755	-1.2946338106	-0.201781
C	 2.1296943501	-0.2795701347	-1.441451334	 0.058228
O	 2.6604792315	 0.9994256475	-1.2333332566	-0.41407
C	 1.8040698743	-1.2481756205	-0.3485633116	 0.236538
O	 2.4020373596	-2.4773447534	-0.3133557388	-0.445291
C	 1.0812329932	-0.6361034384	 0.7999293214	 0.310421
O	 1.0936718327	-0.9462405273	 1.9639986002	-0.344616
H	 0.8818865944	 2.1478244677	-0.1708046502	 0.147989
H	-0.8004382002	 2.0212370158	-0.7102130757	 0.11561
H	-0.4267271704	 1.9410603089	 1.0162634475	 0.125138
H	-0.9161029299	-0.3208089218	 0.1547814085	 0.103129
H	 0.105188724	-1.0161256258	-2.0851935123	 0.114344
H	 2.5731415907	-0.8090982764	-2.2886344914	 0.11061
H	 3.5657071529	 0.8989182012	-0.9189103036	 0.292582
H	 2.0087021316	-2.9683082249	 0.4202169831	 0.303382
70.992	183.8533	194.362	207.5639	230.3879	249.0262	292.489	340.1065	385.0586	443.514	495.9195	586.5212	623.7346	680.1154	735.3926	779.468	851.7432	906.5799	936.3493	977.1343	1011.8006	1078.7317	1087.1659	1117.3771	1152.7323	1203.5974	1235.9149	1271.2507	1321.6606	1356.1473	1374.5138	1388.6716	1409.1249	1486.5224	1496.9249	1509.9972	1843.6194	3024.7668	3042.6936	3080.4431	3100.5851	3160.5081	3198.9544	3768.0118	3806.5315
CC1C2C(O)C2(O)C1=O	C[C@H]1[C@H]2[C@@H](O)[C@@]2(O)C1=O	
InChI=1S/C6H8O3/c1-2-3-5(8)6(3,9)4(2)7/h2-3,5,8-9H,1H3	InChI=1S/C6H8O3/c1-2-3-5(8)6(3,9)4(2)7/h2-3,5,8-9H,1H3/t2-,3-,5+,6-/m0/s1
