17
gdb 84760	3.21102	1.24208	0.94924	2.0846	76.83	-0.238	-0.0579	0.1801	1197.1814	0.136102	-421.843408	-421.835276	-421.834332	-421.87656	31.01	
O	 0.690867388	-0.065861548	 1.0999028026	-0.427081
C	-0.0921775881	-0.3603964409	-0.0532554775	 0.025265
C	-1.5173571123	 0.1265239303	 0.1202651483	-0.080889
C	-2.4663843756	 0.0693698083	-0.8075214169	-0.085236
C	-2.2651214126	-0.4794160928	-2.1998055649	-0.367597
C	-1.2448401155	 0.3096562548	-3.0191887115	 0.369386
O	-1.5383961081	 0.7802193104	-4.09919546	-0.31649
C	 0.1401990282	 0.4407607946	-2.5053638084	-0.151794
C	 0.6195992082	 0.1339040126	-1.2938022738	-0.075085
H	 0.7318884023	 0.8935147001	 1.1854987175	 0.282275
H	-0.1009031298	-1.4624169467	-0.0891796902	 0.127887
H	-1.7385847153	 0.5054912603	 1.1141503254	 0.103346
H	-3.4597503365	 0.4390020644	-0.5713507018	 0.109283
H	-1.9081272276	-1.5185495116	-2.1423309468	 0.129798
H	-3.196923381	-0.4822483887	-2.7667876823	 0.12797
H	 0.8243374029	 0.8273355596	-3.2564969967	 0.111589
H	 1.6885747028	 0.2527194131	-1.123370543	 0.117371
51.6807	99.4418	258.1247	315.594	320.6589	346.9883	386.6418	390.2082	485.5209	541.4181	638.6911	649.7278	681.9981	727.9513	815.0463	865.7979	905.8035	967.1451	975.3954	990.9765	1036.4231	1069.2791	1086.3011	1151.529	1204.0914	1223.5212	1257.3092	1273.9046	1307.2677	1310.0913	1388.7457	1401.7871	1412.0162	1468.198	1689.0519	1723.7585	1773.0468	2971.9383	3003.5136	3122.1402	3141.0468	3161.3024	3171.055	3183.4425	3796.5056
OC1C=CCC(=O)C=C1	O[C@H]1C=CCC(=O)C=C1	
InChI=1S/C7H8O2/c8-6-2-1-3-7(9)5-4-6/h1-2,4-6,8H,3H2	InChI=1S/C7H8O2/c8-6-2-1-3-7(9)5-4-6/h1-2,4-6,8H,3H2/t6-/m0/s1
