16
gdb 31356	4.06156	1.15472	0.91087	5.3676	79.51	-0.2052	-0.0202	0.185	1239.9973	0.126117	-434.093663	-434.085429	-434.084484	-434.127008	29.952	
C	-0.1070655731	 1.470682831	 0.1418434493	-0.331232
N	 0.2543877897	 0.0752027698	-0.0756727204	-0.369913
C	 0.707460879	-0.7263008997	 0.9376260698	 0.467437
C	 0.6146308148	-2.0710661371	 1.0209603367	-0.289553
C	 1.2400622994	-2.7833878954	 2.1161091234	 0.339514
N	 1.1973022718	-4.0574605312	 2.2239176951	-0.540643
N	 1.9035251643	-1.9712426982	 3.0860808477	-0.306454
C	 1.9109329185	-0.7190481208	 2.9272269749	 0.118655
O	 1.3558509304	-0.0031311573	 1.9034951242	-0.222515
H	 0.7339168939	 2.0075297067	 0.582045555	 0.155631
H	-0.3297319806	 1.9207488793	-0.8275791911	 0.136203
H	-0.9808766213	 1.5955643056	 0.7969224418	 0.127199
H	-0.3232373449	-0.4202883544	-0.7375382941	 0.256413
H	 0.0832464837	-2.6344660393	 0.2652872286	 0.102964
H	 1.6962679231	-4.329848719	 3.0726144489	 0.213398
H	 2.3893609612	-0.04123109	 3.62822382	 0.142898
69.6412	120.8688	132.7359	187.249	231.3976	380.3185	427.1751	464.9388	514.7038	557.9757	648.4424	680.1531	736.2587	796.9193	836.198	887.7176	896.8025	941.5479	959.2672	1051.8069	1083.9907	1149.1309	1162.2516	1176.137	1261.309	1339.7728	1407.4816	1420.0654	1468.0886	1485.227	1493.0812	1521.4378	1665.0469	1700.7992	1745.0445	3005.2428	3106.3184	3149.4982	3187.864	3217.8734	3467.4566	3623.8797
CNC1=CC(=N)N=CO1	CN[C@H]1C=C([NH])N=CO1	
InChI=1S/C5H7N3O/c1-7-5-2-4(6)8-3-9-5/h2-3,6-7H,1H3	InChI=1S/C5H8N3O/c1-7-5-2-4(6)8-3-9-5/h2-3,5-7H,1H3/t5-/m1/s1
