14
gdb 133123	2.64236	1.655	1.02419	2.4902	68.43	-0.2428	-0.0437	0.1991	1078.1631	0.101505	-478.017885	-478.010447	-478.009502	-478.050146	27.096	
C	-0.0320683661	 1.4002163061	 0.0393667549	-0.237364
O	 0.0103155467	-0.0282318441	-0.014053566	-0.249419
C	 0.6165684264	-0.5722363309	-1.0750542203	 0.308745
N	 1.1502904566	 0.1628226118	-2.0267367468	-0.336916
C	 1.736250599	-0.4855856269	-3.0507838723	-0.029902
C	 1.7804795089	-1.8628457541	-3.1090768178	-0.039653
N	 1.2337827106	-2.6185653211	-2.1341881883	-0.286566
C	 0.671111091	-1.9876486341	-1.150941336	 0.255372
F	 0.1229843455	-2.6967748443	-0.174563088	-0.04731
H	 0.9773852403	 1.8204599872	 0.0546560609	 0.140518
H	-0.5673261801	 1.8074719873	-0.8228700048	 0.140545
H	-0.5588935646	 1.6389551412	 0.9632705085	 0.138489
H	 2.1739942556	 0.128587155	-3.831415085	 0.12067
H	 2.2520519502	-2.3871130031	-3.9331022989	 0.122792
112.988	146.9213	186.7856	211.6937	341.8277	346.9143	510.6752	532.9043	583.3895	602.5459	605.1948	791.1052	803.1378	871.5667	901.9627	961.9469	1040.2345	1112.8132	1177.6777	1198.1562	1208.7111	1265.0019	1323.9423	1359.7286	1447.8711	1480.3543	1483.5275	1496.6879	1524.3626	1599.2503	1631.312	3045.7624	3117.9268	3157.7181	3176.0376	3196.9966
COC1=NC=CN=C1F	COc1nccnc1F	
InChI=1S/C5H5FN2O/c1-9-5-4(6)7-2-3-8-5/h2-3H,1H3	InChI=1S/C5H5FN2O/c1-9-5-4(6)7-2-3-8-5/h2-3H,1H3
