15
gdb 133242	3.31729	1.35102	0.96577	0.9903	74.07	-0.213	-0.0548	0.1582	1128.848	0.1133	-458.102667	-458.095051	-458.094107	-458.134832	28.811	
C	-0.0313374859	 1.4096427075	-0.0192539659	-0.304
N	-0.0068003776	-0.0475562078	 0.0063812564	-0.028818
N	-0.0379655934	-0.6552992205	-1.1762919564	-0.183352
C	-0.0183386898	-1.9560577982	-1.2184381475	-0.124413
C	 0.0357080548	-2.7325343352	-0.0240783236	 0.289124
F	 0.0528314166	-4.0563104815	-0.150732054	-0.061426
C	 0.0678846762	-2.1347558272	 1.1838011644	-0.342338
C	 0.0471054662	-0.6863998984	 1.2654139647	 0.404026
N	 0.070975716	 0.0656801146	 2.3078119905	-0.57388
H	 0.8608444609	 1.8052823683	 0.4726955874	 0.152702
H	-0.0719433818	 1.7147048634	-1.0631179126	 0.14227
H	-0.9002609979	 1.7767441137	 0.5327998	 0.152667
H	-0.0445963305	-2.4240209662	-2.1944372744	 0.138831
H	 0.1090224625	-2.712014227	 2.0990349145	 0.126392
H	 0.1094909474	-0.5033221756	 3.1510042567	 0.212214
116.0304	153.7868	197.1481	289.3393	337.0705	357.62	445.1362	463.677	505.7329	608.5219	678.1901	719.0083	745.2965	773.8934	776.2837	853.4217	884.7894	1003.3891	1044.1305	1101.1579	1151.9899	1214.997	1238.1704	1280.2747	1324.0494	1393.0438	1434.8568	1454.5909	1467.0078	1506.838	1573.4461	1640.1913	1709.0492	3058.3474	3119.9675	3179.6947	3214.1579	3214.2798	3504.5636
CN1N=CC(F)=CC1=N	CN1N=C[C@H](F)C=C1[NH]	
InChI=1S/C5H6FN3/c1-9-5(7)2-4(6)3-8-9/h2-3,7H,1H3	InChI=1S/C5H7FN3/c1-9-5(7)2-4(6)3-8-9/h2-4,7H,1H3/t4-/m1/s1
