17
gdb 10700	2.55225	2.07707	1.37069	2.6488	65.	-0.2474	-0.025	0.2224	928.5134	0.140476	-400.981988	-400.973376	-400.972432	-401.014849	31.414	
C	 0.2604133105	 1.5537886488	-0.2098690465	-0.422572
C	-0.0491975701	 0.0777430848	 0.0467661365	 0.039449
O	 0.3348550745	-0.7297818743	-1.0662383365	-0.449351
C	 0.7009832222	-0.4694926991	 1.2549855969	 0.224399
C	 1.0864895465	-1.9188988494	 1.2982176231	-0.274248
N	 2.1127604843	-0.8965199044	 1.1136856853	-0.351577
C	 0.4024715576	 0.1496339296	 2.5768033992	 0.132631
O	-0.5131595315	 0.9059886628	 2.7940090717	-0.276498
H	 1.3334116674	 1.7038160706	-0.3657487554	 0.123787
H	-0.2695159896	 1.9011994018	-1.1045182766	 0.105523
H	-0.0678293053	 2.1651815733	 0.632768494	 0.155412
H	-1.1257003585	-0.032304936	 0.242956293	 0.09362
H	-0.0029127494	-0.3135644265	-1.8644808105	 0.290535
H	 1.1171646581	-2.4378397334	 2.2526359719	 0.122207
H	 0.7803963959	-2.5138188153	 0.4450880343	 0.14664
H	 2.3341447215	-0.8454359362	 0.1200941977	 0.249265
H	 1.1072301861	-0.168089147	 3.3762365517	 0.090777
80.7753	141.7185	200.2087	225.2343	242.0814	277.774	300.8932	344.1411	409.2755	450.2711	513.5881	630.1707	713.5895	817.324	899.0266	917.0176	972.1712	992.3496	1029.4889	1055.089	1080.7538	1124.3883	1127.7182	1152.0691	1227.7265	1279.9852	1328.0946	1356.8692	1363.8064	1405.3308	1417.3873	1437.8323	1491.8927	1496.2897	1509.1131	1813.5943	2900.5222	2999.6119	3033.2462	3100.1137	3117.584	3142.4979	3218.855	3487.1207	3837.248
CC(O)C1(CN1)C=O	C[C@@H](O)[C@]1(CN1)C=O	
InChI=1S/C5H9NO2/c1-4(8)5(3-7)2-6-5/h3-4,6,8H,2H2,1H3	InChI=1S/C5H9NO2/c1-4(8)5(3-7)2-6-5/h3-4,6,8H,2H2,1H3/t4-,5+/m1/s1
