19
gdb 68157	3.54855	1.41381	1.20642	3.7353	81.39	-0.2348	-0.0488	0.1861	1071.4635	0.160708	-385.915487	-385.90791	-385.906966	-385.947047	30.812	
C	-0.0499873555	 1.5563208448	-0.0175504413	-0.498001
C	 0.0284186099	 0.040131381	 0.0000961707	 0.285728
C	 1.0922589834	-0.6926358978	-0.8860265682	-0.257587
C	 1.0877567587	-1.8082484448	 0.2047655146	-0.136689
C	 0.6925197565	-0.6888394517	 1.2172610395	-0.257587
C	-0.1097137207	-2.7289265898	-0.0211598466	 0.405397
O	-0.0348774379	-3.9393958004	-0.0047501149	-0.347034
C	-1.3707998593	-1.9813105421	-0.2621807619	-0.195304
C	-1.3030149649	-0.6430733477	-0.2517145428	-0.071171
H	 0.9326131794	 2.000709587	 0.1684570232	 0.116848
H	-0.4064262018	 1.9238322615	-0.9867275639	 0.121146
H	-0.7369780756	 1.9269808678	 0.7519118099	 0.121144
H	 0.8046961028	-0.9611255967	-1.9053064409	 0.10626
H	 2.0456572323	-0.1558496194	-0.8970198106	 0.102176
H	 1.9884274508	-2.3972555043	 0.3770055638	 0.081906
H	 1.5757670002	-0.1513860714	 1.5753768872	 0.102176
H	 0.0509007809	-0.9539664246	 2.0609100177	 0.10626
H	-2.2817183687	-2.543544533	-0.4342869024	 0.108865
H	-2.1802782105	-0.0233024883	-0.4195592731	 0.105468
123.3631	218.793	274.1534	285.8771	333.3034	424.6235	428.9593	439.997	459.8011	628.0072	676.5963	723.0839	750.1752	813.1641	846.9566	893.6233	893.9793	908.4189	972.5135	985.8671	1007.062	1021.3658	1044.5326	1080.2751	1129.3607	1144.4351	1206.8032	1210.6727	1234.5133	1251.7723	1267.6854	1287.4262	1326.6622	1390.7278	1415.5767	1475.6763	1491.8534	1494.9166	1506.6448	1656.6642	1791.2295	3025.4828	3048.0036	3054.1453	3089.3141	3103.197	3112.3949	3113.4354	3117.9095	3159.6642	3202.1224
CC12CC(C1)C(=O)C=C2	C[C@@]12C[C@@H](C1)C(=O)C=C2	
InChI=1S/C8H10O/c1-8-3-2-7(9)6(4-8)5-8/h2-3,6H,4-5H2,1H3	InChI=1S/C8H10O/c1-8-3-2-7(9)6(4-8)5-8/h2-3,6H,4-5H2,1H3/t6-,8+
