18
gdb 34956	3.1276	1.54058	1.4719	1.2875	79.55	-0.2273	0.0378	0.2652	971.9179	0.149297	-364.722922	-364.715798	-364.714854	-364.754291	29.003	
C	-0.1012881891	-1.2747808151	-0.1973698571	-0.45766
C	-0.0660987578	-0.0752307577	-0.1068664873	 0.31807
C	 0.0118312409	 1.3616416889	 0.0411849924	-0.182478
C	-0.2016751112	 2.0173485926	 1.4365181404	-0.007443
C	 0.5441096259	 1.335539834	 2.5950447002	-0.250291
C	 1.8145116627	 2.0559376914	 2.1005110942	 0.016278
C	 2.4843689406	 1.4078498736	 0.8722087388	-0.250288
C	 1.3940576681	 2.0768134272	 0.0195982089	-0.007447
N	 0.9730209267	 2.9700601058	 1.1911800127	-0.16749
H	-0.1462052961	-2.3315607884	-0.2919797336	 0.197475
H	-0.6480886247	 1.8529407669	-0.6814015436	 0.111277
H	-1.1903513415	 2.4371704634	 1.630085578	 0.079109
H	 0.2114388372	 1.7212442478	 3.5619310429	 0.110426
H	 0.5467007194	 0.2428094946	 2.6268868064	 0.113509
H	 2.4601062898	 2.5220887547	 2.8471446726	 0.073904
H	 3.4667173732	 1.8425751446	 0.6714197211	 0.110425
H	 2.5611732701	 0.3178890066	 0.8381640706	 0.113513
H	 1.6847381358	 2.544303979	-0.9228229376	 0.07911
118.1719	138.1662	299.0466	308.0087	385.0853	529.5901	535.4487	619.8886	634.9595	651.9391	674.9996	727.6192	823.0724	837.8477	910.2357	910.6839	920.0868	950.1427	961.3578	991.374	1004.0404	1068.6633	1072.3025	1090.3495	1112.6305	1144.2574	1185.4683	1210.2109	1213.1237	1252.6682	1269.7437	1281.0472	1304.9286	1331.3331	1355.5462	1360.297	1475.3905	1486.638	2227.7707	3050.4642	3058.4535	3058.5348	3085.0475	3085.685	3091.3466	3112.4967	3115.8907	3501.6319
C#CC1C2CC3CC1N23	C#C[C@H]1[C@H]2C[C@H]3C[C@@H]1N23	
InChI=1S/C8H9N/c1-2-6-7-3-5-4-8(6)9(5)7/h1,5-8H,3-4H2	InChI=1S/C8H9N/c1-2-6-7-3-5-4-8(6)9(5)7/h1,5-8H,3-4H2/t5-,6-,7+,8-
