16
gdb 17418	2.99077	2.62982	1.81032	3.3394	68.09	-0.2319	0.0114	0.2432	772.2076	0.130557	-346.581078	-346.574276	-346.573332	-346.611757	26.568	
C	-0.0095657697	 1.5869001622	 0.0415477371	-0.505776
C	 0.0227033543	 0.085990606	 0.0925889063	 0.177748
C	-1.2600053144	-0.7905582558	 0.2217739563	-0.277224
C	-0.3523684025	-1.8564870086	 0.8408818522	-0.063281
C	 0.9612942399	-1.8710316138	 0.0447623459	-0.196801
C	 0.6993639045	-0.8586283028	 1.1862691604	-0.123074
C	 0.8870733037	-0.7199751796	-0.904751532	 0.420526
O	 1.4705166286	-0.4136189348	-1.9079006783	-0.350413
H	 1.0021483727	 2.0027152024	 0.003490082	 0.132194
H	-0.5351700913	 1.9212916435	-0.8593064223	 0.135638
H	-0.5257746232	 2.0091551624	 0.9096755512	 0.118103
H	-1.9523892566	-0.3818896143	 0.9637525491	 0.105947
H	-1.7999996922	-1.026947529	-0.7023580289	 0.10262
H	-0.6387008734	-2.7414482116	 1.3951341026	 0.100488
H	 1.6328598993	-2.7182356532	 0.0522029431	 0.110431
H	 1.3177561504	-0.664565863	 2.0490412855	 0.112874
142.6379	175.1775	223.9541	291.249	396.3338	472.0892	609.6842	650.9056	720.1311	752.3168	772.006	816.0958	829.7132	869.2809	891.6732	929.5269	983.6071	1007.0847	1027.6263	1037.1321	1088.9286	1119.8574	1127.6427	1168.1002	1199.9056	1232.1272	1290.2799	1340.1783	1356.5463	1414.2608	1485.38	1489.0693	1498.2932	1872.6212	3032.7657	3035.4204	3094.398	3101.2104	3106.2079	3193.6804	3220.1725	3242.4709
CC12CC3C(C13)C2=O	C[C@]12C[C@H]3[C@H]([C@@H]13)C2=O	
InChI=1S/C7H8O/c1-7-2-3-4(5(3)7)6(7)8/h3-5H,2H2,1H3	InChI=1S/C7H8O/c1-7-2-3-4(5(3)7)6(7)8/h3-5H,2H2,1H3/t3-,4+,5-,7-/m0/s1
