19
gdb 22750	2.34967	1.46573	1.16493	0.8134	80.24	-0.2321	0.0032	0.2354	1142.9594	0.157304	-419.123438	-419.114286	-419.113342	-419.156769	34.865	
C	-0.1371937133	 1.604490405	-0.005228498	-0.439687
C	 0.0448326767	 0.0923014496	 0.0351948129	 0.217157
C	-1.2846351521	-0.6189873148	 0.2850104255	-0.411534
N	 0.6841462897	-0.542147873	-1.2078497225	-0.150706
C	 2.0488192434	-0.0284133376	-1.3253721127	-0.246794
C	 1.8053839969	-1.0931945109	-0.3182054715	-0.12913
C	 1.1638987434	-0.5072187278	 0.8828775662	 0.401275
N	 1.2806528132	-0.5973228829	 2.1397722085	-0.274502
O	 2.3717847576	-1.418402164	 2.4910307047	-0.395296
H	 0.8018467366	 2.1455749132	-0.1391600317	 0.119009
H	-0.8131846849	 1.8770284881	-0.822488623	 0.126945
H	-0.5805794579	 1.9471689944	 0.9344119262	 0.133999
H	-2.0117890541	-0.3321410754	-0.4811376963	 0.120137
H	-1.1565419596	-1.7034929925	 0.2459725628	 0.12477
H	-1.678197989	-0.3505594789	 1.269272877	 0.126047
H	 2.5355469002	-0.3364961065	-2.2463770957	 0.129563
H	 2.2940105944	 0.9788502727	-1.0032158588	 0.122196
H	 2.1951861123	-2.0994145479	-0.4139054548	 0.119635
H	 2.3321589965	-1.406271391	 3.4531735413	 0.306916
112.9987	156.8994	171.6537	196.8229	240.7398	276.455	309.7599	338.2813	357.9875	411.6126	508.6619	548.2814	613.7984	674.1328	718.6854	764.8561	818.5442	927.8599	936.2484	951.4207	974.5806	1007.949	1015.3802	1037.6929	1109.2796	1122.9443	1139.9111	1185.6282	1222.6594	1230.2808	1284.6269	1316.3484	1396.8272	1404.2472	1416.9711	1474.1068	1478.7276	1492.6792	1502.0313	1510.6307	1792.3787	3039.804	3044.1804	3110.6844	3116.4701	3118.1108	3124.8536	3127.4666	3189.7241	3205.3383	3820.3081
CC1(C)N2CC2C1=NO	CC1(C)N2C[C@H]2C1=NO	
InChI=1S/C6H10N2O/c1-6(2)5(7-9)4-3-8(4)6/h4,9H,3H2,1-2H3	InChI=1S/C6H10N2O/c1-6(2)5(7-9)4-3-8(4)6/h4,9H,3H2,1-2H3/t4-,8?/m0/s1
