19
gdb 51665	4.20883	0.89476	0.83611	1.9885	75.85	-0.2472	-0.0232	0.224	1385.996	0.158698	-422.993922	-422.98546	-422.984516	-423.02857	30.747	
O	-0.1523634956	 0.0359638969	-0.0352699539	-0.238643
C	-0.0049617487	 1.230307063	 0.0108667347	 0.159769
C	 1.3268314106	 1.9410291509	-0.077686892	-0.302673
C	 1.3678947142	 2.9114581116	-1.2637633511	 0.007741
C	 0.5093634929	 4.2226708671	-1.206128192	-0.265067
C	 1.7827646845	 5.0530381846	-1.4824551363	 0.125452
O	 2.4155193478	 5.514781871	-0.2720620936	-0.289724
C	 3.3195705781	 4.384749566	-0.2598339108	-0.08266
C	 2.6537535128	 3.7632973995	-1.4984115845	-0.113015
H	-0.8835255041	 1.9087325174	 0.1155945503	 0.076901
H	 1.4682224898	 2.4983101826	 0.858900586	 0.122078
H	 2.1155400916	 1.1856645679	-0.1533266663	 0.120249
H	 1.1424586874	 2.3540840235	-2.1783487616	 0.09134
H	-0.263156872	 4.2859057096	-1.9765052132	 0.107362
H	 0.0646476994	 4.4596565106	-0.2360824674	 0.112144
H	 1.7591843927	 5.8188354587	-2.2618254361	 0.079643
H	 4.3558462867	 4.704429305	-0.4279235167	 0.105256
H	 3.276573811	 3.8224586646	 0.6809430541	 0.102735
H	 3.3069094608	 3.4583046793	-2.3149521696	 0.081111
45.3458	70.7027	73.1592	181.0368	263.0563	359.0973	389.6514	445.1215	520.8893	653.1595	755.6976	775.0724	828.8845	854.3311	893.5053	924.2794	952.3872	981.0505	1011.7932	1016.1608	1028.5126	1083.2393	1106.9007	1109.8553	1146.9599	1166.0781	1188.4717	1213.3933	1241.2811	1254.282	1275.5789	1295.8171	1305.9217	1336.718	1355.1905	1377.0734	1430.8322	1459.4958	1471.6897	1528.2194	1833.2592	2860.6142	3012.0486	3016.9103	3051.2908	3053.3604	3059.6545	3076.825	3090.3246	3116.5508	3119.5478
O=CCC1CC2OCC12	O=CC[C@H]1C[C@H]2OC[C@@H]12	
InChI=1S/C7H10O2/c8-2-1-5-3-7-6(5)4-9-7/h2,5-7H,1,3-4H2	InChI=1S/C7H10O2/c8-2-1-5-3-7-6(5)4-9-7/h2,5-7H,1,3-4H2/t5-,6-,7+/m0/s1
