19
gdb 17530	4.9665	1.42872	1.30199	1.4729	76.45	-0.2227	0.0804	0.3031	1017.6413	0.165663	-327.868184	-327.86064	-327.859695	-327.89962	29.604	
C	-0.0816104593	 1.4283568151	-0.016987011	-0.417589
C	 0.0228701475	-0.0740246435	-0.1025283678	 0.024934
C	 0.8020284325	-0.7053219792	-1.19056488	-0.13234
N	 1.3544812447	-0.6194348101	 0.229746959	-0.143419
C	 1.1836299071	-2.1150338397	 0.3378395656	-0.249857
C	 0.7129267862	-2.2093180018	-1.1182718285	 0.381476
C	-0.2783327604	-3.1300881709	-1.7684073791	-0.327382
C	 1.1856934338	-3.1849964279	-2.1501065256	-0.334447
H	 0.8264773541	 1.8995174835	-0.403458706	 0.127173
H	-0.9361264354	 1.7929328588	-0.5969966838	 0.114927
H	-0.2104277929	 1.7502077703	 1.0214756156	 0.123216
H	-0.8427230364	-0.6210481022	 0.273969901	 0.080038
H	 1.2381626371	-0.1336697276	-2.0058292265	 0.088863
H	 2.150306652	-2.5901957349	 0.5245359883	 0.111038
H	 0.4747233934	-2.4175275438	 1.1176409022	 0.099918
H	-0.6811987612	-3.9452681502	-1.1756200028	 0.112749
H	-0.9790362822	-2.709423408	-2.4826360536	 0.112967
H	 1.4731944429	-2.8008633484	-3.1239890195	 0.114501
H	 1.7719875866	-4.0364077594	-1.8180548275	 0.113234
122.926	191.4924	206.3779	249.9968	313.3621	340.0202	441.5613	459.3215	575.5326	731.5221	772.5356	807.2586	845.5246	862.5237	916.2585	920.0465	967.5021	979.4831	1014.4209	1029.5889	1039.8337	1054.5833	1076.3244	1102.2562	1131.3762	1150.9599	1186.2237	1187.8472	1223.7465	1261.0719	1285.1861	1298.619	1392.0368	1412.9484	1443.7225	1463.4919	1488.8099	1494.5529	1499.7414	1507.4251	3030.3117	3035.4521	3090.6506	3093.7989	3100.8635	3119.018	3120.0892	3125.0097	3142.3777	3198.2063	3213.666
CC1C2N1CC21CC1	C[C@H]1[C@H]2N1CC12CC1	
InChI=1S/C7H11N/c1-5-6-7(2-3-7)4-8(5)6/h5-6H,2-4H2,1H3	InChI=1S/C7H11N/c1-5-6-7(2-3-7)4-8(5)6/h5-6H,2-4H2,1H3/t5-,6+,8?/m0/s1
