19
gdb 82148	3.13068	1.1416	0.99651	3.8853	74.96	-0.2429	-0.0127	0.2302	1228.5913	0.15789	-422.999335	-422.990409	-422.989465	-423.033878	32.89	
O	 0.3046726551	 1.3945818113	 0.0517600432	-0.423383
C	 0.04331101	 0.0131890728	-0.0210060535	 0.118916
C	-1.3886200934	-0.5027211795	 0.0996397882	-0.080316
C	-2.2127522754	-0.1143336584	-1.0995117593	-0.30036
C	-1.2419427394	-1.2498834725	-1.2349652972	-0.06161
C	 0.1913299345	-0.7270630469	-1.4097846078	-0.059263
C	 0.5293273606	 0.1062782887	-2.6467241599	-0.309173
C	 1.8316455839	 0.87497832	-2.5216575732	 0.179021
O	 2.0344230488	 1.9512389188	-3.0203103866	-0.249795
H	-0.3984615502	 1.8676693815	-0.4057115093	 0.286965
H	 0.6983737983	-0.4446559745	 0.7237735416	 0.096282
H	-1.8563315535	-0.8342859271	 1.0187259137	 0.091739
H	-3.2578142577	-0.3995582511	-1.0387881964	 0.121912
H	-2.0590027602	 0.8262910028	-1.6237797145	 0.102409
H	-1.5697832768	-2.2538134393	-1.4740045939	 0.092896
H	 0.9205424552	-1.5372272946	-1.3106829602	 0.079803
H	 0.6419586449	-0.5682705491	-3.5089479235	 0.12787
H	-0.2545815743	 0.8200633236	-2.9145936749	 0.116394
H	 2.6304646095	 0.3492950934	-1.9483645965	 0.069693
43.1416	81.4298	120.2386	166.78	256.7352	272.0898	324.3549	419.1246	462.4014	561.1961	609.5217	654.9695	731.6356	786.6127	808.931	839.6257	921.1408	965.3391	987.289	996.709	1028.2646	1051.9579	1068.2767	1078.3825	1084.7274	1119.7742	1137.0805	1168.8487	1196.8716	1230.4596	1261.0339	1278.8891	1285.5543	1320.477	1365.0128	1380.1154	1429.862	1434.0129	1454.3775	1494.8391	1834.6182	2859.461	3009.3344	3052.0433	3085.8359	3093.8493	3107.5288	3181.5796	3188.4239	3202.1667	3812.7246
OC1C2CC2C1CC=O	O[C@H]1[C@H]2C[C@H]2[C@H]1CC=O	
InChI=1S/C7H10O2/c8-2-1-4-5-3-6(5)7(4)9/h2,4-7,9H,1,3H2	InChI=1S/C7H10O2/c8-2-1-4-5-3-6(5)7(4)9/h2,4-7,9H,1,3H2/t4-,5+,6+,7-/m1/s1
