19
gdb 105473	2.26654	1.09124	0.84916	3.0098	80.6	-0.2491	0.0375	0.2866	1427.8138	0.157293	-422.973874	-422.963769	-422.962825	-423.010545	35.079	
C	 0.1319385345	 1.5241486427	-0.1237723424	-0.502036
C	 0.0831949379	 0.0694949609	-0.0740199359	 0.093649
C	 0.0199869777	-1.133585864	-0.0166886973	-0.021565
C	-0.0094227149	-2.5846180857	 0.0241355302	 0.067473
C	 0.8484134528	-3.1773460563	-1.1078359505	-0.109494
O	 2.2027543409	-2.7938289735	-1.0089991093	-0.421163
C	 0.2677919601	-3.2762646792	 1.3896803371	-0.107383
O	-0.9135278775	-4.0915315662	 1.2536907618	-0.272012
C	-1.3853258903	-3.297939988	 0.1508880798	-0.117483
H	 0.9625802105	 1.9145450602	 0.4743450645	 0.152815
H	 0.2623902414	 1.8848162506	-1.1498481384	 0.15135
H	-0.7924642614	 1.962966265	 0.2672312127	 0.154551
H	 0.8272667191	-4.2695367108	-1.0348792168	 0.118652
H	 0.4098479297	-2.8914390107	-2.0769465272	 0.092157
H	 2.2211003441	-1.8289560315	-1.0078648082	 0.285419
H	 1.187527195	-3.8670906633	 1.4454923049	 0.121714
H	 0.2043576238	-2.60106207	 2.2514778345	 0.102835
H	-2.2068842637	-2.6301940859	 0.4381730076	 0.103914
H	-1.6929740695	-3.9112139341	-0.704829877	 0.106607
25.7871	76.4257	92.1181	113.0315	146.3414	224.863	289.0421	309.6802	341.5255	400.1706	439.426	486.0725	528.9331	618.8719	829.3148	866.2976	909.0188	973.3105	990.6844	1030.9798	1040.4051	1051.9263	1054.1215	1071.2434	1106.4004	1152.7112	1159.708	1182.7746	1225.9358	1298.0403	1318.8341	1367.9236	1379.8445	1414.5054	1428.6641	1477.2397	1478.0146	1502.3352	1511.6428	1534.0092	2358.2664	2980.7772	3011.5233	3026.0841	3029.1743	3062.3377	3078.793	3085.8568	3090.802	3091.7351	3780.0183
CC#CC1(CO)COC1	CC#CC1(CO)COC1	
InChI=1S/C7H10O2/c1-2-3-7(4-8)5-9-6-7/h8H,4-6H2,1H3	InChI=1S/C7H10O2/c1-2-3-7(4-8)5-9-6-7/h8H,4-6H2,1H3
