21
gdb 117218	4.19104	0.75036	0.70458	3.0909	81.34	-0.2402	-0.02	0.2202	1695.2275	0.18049	-424.241475	-424.231563	-424.230619	-424.277217	36.322	
C	-0.0323915281	 1.5455562584	 0.0350875636	-0.387123
C	 0.01512546	 0.0163397041	-0.0055627473	-0.163268
C	-1.3765437066	-0.614648806	-0.0233717954	-0.290976
C	-1.3753198053	-2.1323393509	-0.0624113748	 0.407622
O	-0.3298623261	-2.7715863633	-0.0853831077	-0.375553
C	-2.6883859144	-2.8079128181	-0.0357076873	-0.193052
C	-2.8273953909	-4.1439271992	-0.7817156065	-0.324384
C	-2.7392514394	-4.1754730729	 0.6975620425	 0.158171
O	-1.6371349168	-4.658448519	 1.3682244969	-0.419
H	 0.9756418127	 1.9707807212	 0.0478073767	 0.116798
H	-0.5534646338	 1.953196065	-0.8387045679	 0.112785
H	-0.5559270558	 1.9058259911	 0.9279442149	 0.113548
H	 0.5709920685	-0.3216980477	-0.8865714955	 0.112956
H	 0.5688349136	-0.3679865266	 0.8576048616	 0.114166
H	-1.96113853	-0.3058953378	 0.8559267093	 0.124736
H	-1.9602031559	-0.2593812101	-0.8856491765	 0.122831
H	-3.5637227999	-2.1707838427	 0.0223347589	 0.091495
H	-3.7786662117	-4.3330430467	-1.2666551843	 0.121425
H	-1.9477941316	-4.4569914464	-1.3347140668	 0.136665
H	-3.6478939056	-4.3583798546	 1.2622585822	 0.115282
H	-0.8529714728	-4.299001308	 0.9162619033	 0.304875
45.2934	63.9307	113.2405	131.591	215.1012	244.3804	258.3846	324.156	375.7979	445.945	465.7807	571.1341	606.2118	704.0501	729.4049	754.934	797.8591	847.0302	889.8894	898.9716	927.5454	1004.7223	1048.2386	1054.4219	1074.8961	1092.7809	1109.3611	1116.7019	1143.9675	1151.5938	1235.0859	1247.975	1309.362	1321.1889	1359.2373	1382.7137	1413.2468	1417.338	1448.3079	1450.5954	1487.1721	1489.0869	1500.3663	1508.1628	1734.6055	3004.7484	3028.4516	3030.1018	3050.4204	3075.4682	3100.3772	3104.7914	3132.0213	3165.5595	3173.9976	3228.2146	3620.1331
CCCC(=O)C1CC1O	CCCC(=O)[C@H]1C[C@H]1O	
InChI=1S/C7H12O2/c1-2-3-6(8)5-4-7(5)9/h5,7,9H,2-4H2,1H3	InChI=1S/C7H12O2/c1-2-3-6(8)5-4-7(5)9/h5,7,9H,2-4H2,1H3/t5-,7-/m1/s1
