18
gdb 13989	5.18719	1.13648	1.05285	1.951	68.1	-0.2331	0.0773	0.3104	1146.035	0.153288	-384.889714	-384.881641	-384.880696	-384.922588	29.827	
O	 0.1025896223	 1.3982589028	-0.105077674	-0.419503
C	 0.0221217325	-0.016264384	-0.1747483452	-0.059979
C	-1.3925671045	-0.5376497447	 0.1157406256	-0.323283
C	-1.4731659093	-2.0289162514	 0.0408393502	 0.491445
C	-1.6369871779	-2.8705603575	-1.1902974531	-0.329332
C	-2.5979832278	-3.0411387615	-0.0274096706	-0.200648
C	-1.8661566209	-3.7390882101	 1.1104469754	-0.084433
O	-0.7742195294	-2.7816837825	 1.0497817973	-0.328371
H	-0.0369266889	 1.6553051254	 0.8118425018	 0.281565
H	 0.3115066084	-0.283029498	-1.1963369844	 0.115334
H	 0.7399709204	-0.4982227768	 0.5045618613	 0.11008
H	-1.7001079802	-0.2095848608	 1.1179972654	 0.095334
H	-2.0919372752	-0.0953268873	-0.6021400363	 0.111165
H	-2.0606409896	-2.3646102328	-2.052544735	 0.115397
H	-0.9063764272	-3.6418941562	-1.4197124421	 0.113436
H	-3.6674720539	-2.905326785	-0.1156470255	 0.100394
H	-2.3812605788	-3.6724865542	 2.075551592	 0.107545
H	-1.5266193301	-4.7685083053	 0.9432674273	 0.103854
75.0733	104.3207	128.0789	264.1068	296.8107	346.6319	354.9669	412.3931	460.4123	724.429	746.9442	787.4359	838.5063	901.6672	950.2988	958.5187	975.9069	992.1946	1009.5435	1037.6642	1048.4794	1072.2722	1073.748	1125.2206	1141.7423	1173.6154	1223.8042	1262.6318	1294.0737	1331.3871	1345.7547	1392.7153	1411.3678	1421.9957	1471.6583	1488.0421	1513.3799	1519.9023	3005.2095	3017.195	3020.9139	3068.6192	3070.3372	3089.5917	3112.0536	3199.1544	3207.8143	3817.1397
OCCC12CC1CO2	OCC[C@]12C[C@H]1CO2	
InChI=1S/C6H10O2/c7-2-1-6-3-5(6)4-8-6/h5,7H,1-4H2	InChI=1S/C6H10O2/c7-2-1-6-3-5(6)4-8-6/h5,7H,1-4H2/t5-,6-/m0/s1
