21
gdb 57784	3.18128	0.72137	0.67033	2.017	89.79	-0.2428	0.0304	0.2732	1802.0335	0.179519	-387.05519	-387.044505	-387.043561	-387.093901	37.82	
C	 1.3043888599	 0.9103318268	-0.587806304	-0.374181
C	 0.0496132418	 0.4040234449	 0.1512660134	-0.130933
C	-0.8454028553	-0.4430153954	-0.7760453468	-0.373279
C	 0.4091997775	-0.3452656034	 1.3552591384	 0.155415
C	 0.7086897184	-0.9835507737	 2.3335953366	 0.038284
C	 1.0458161764	-1.7054623022	 3.5304590551	-0.1638
O	 0.8515250985	-3.133918561	 3.5327206176	-0.245347
C	 2.1887551059	-2.6455654593	 3.6072855213	 0.097669
C	 3.0959602015	-2.9323069342	 2.4413324272	-0.424048
H	 1.9121461498	 0.0690516087	-0.9350687605	 0.123922
H	 1.0150554084	 1.5074453881	-1.4584450271	 0.11355
H	 1.9242943836	 1.5296121561	 0.065754477	 0.12354
H	-0.5311841064	 1.2821150167	 0.4670083015	 0.107102
H	-0.3083740902	-1.3311919824	-1.1227273884	 0.125992
H	-1.748193462	-0.7746306954	-0.2570897997	 0.127942
H	-1.1422437419	 0.1431216908	-1.6516069751	 0.112862
H	 0.7327729061	-1.2257697923	 4.4583115597	 0.107896
H	 2.6429608331	-2.765492075	 4.5935670454	 0.090072
H	 2.5970169032	-2.7044590507	 1.4972508603	 0.137537
H	 4.0076754858	-2.3294997527	 2.5124416703	 0.121353
H	 3.3883132858	-3.9874189245	 2.4395284581	 0.128454
3.9624	70.7272	82.6009	162.5117	185.7314	218.9652	228.659	269.2325	311.2168	348.6395	389.2444	447.6936	514.7012	575.0673	587.4268	721.3361	777.5765	833.6938	894.2298	932.7869	950.6379	964.7443	1005.587	1072.5063	1090.46	1119.0116	1140.9915	1165.4804	1173.4138	1211.9387	1287.8343	1322.9572	1351.1782	1378.4536	1396.7244	1413.0717	1418.3302	1448.1816	1485.5518	1485.7815	1489.2124	1496.4681	1498.5254	1509.9982	2356.3477	3005.7676	3036.7351	3039.6894	3040.3838	3080.5149	3102.5236	3103.3633	3107.8387	3113.1965	3119.4456	3123.1075	3137.7316
CC(C)C#CC1OC1C	CC(C)C#C[C@H]1O[C@H]1C	
InChI=1S/C8H12O/c1-6(2)4-5-8-7(3)9-8/h6-8H,1-3H3	InChI=1S/C8H12O/c1-6(2)4-5-8-7(3)9-8/h6-8H,1-3H3/t7-,8+/m0/s1
