23
gdb 121164	2.99322	0.89591	0.75841	1.4365	86.48	-0.2608	0.0798	0.3406	1573.8417	0.205336	-388.261104	-388.251363	-388.250419	-388.296227	36.537	
O	-0.0122434819	 1.4499746121	-0.0106512275	-0.421838
C	 0.036847875	 0.0319881184	 0.0558559295	-0.075658
C	-1.3822691059	-0.4969623581	-0.1123487043	-0.19814
C	-1.4575350889	-2.0166596455	-0.0600101852	-0.040944
C	-1.2179878485	-2.7363970232	 1.30421078	-0.225996
C	-2.421415617	-3.6751945122	 1.0031092866	-0.302039
C	-2.8342438483	-2.7093530887	-0.115194931	 0.363867
C	-4.1673769952	-2.0238978884	-0.2165835777	-0.317696
C	-3.7083053512	-2.9731570122	-1.3018256681	-0.329236
H	 0.8797906258	 1.7873615668	 0.1116630234	 0.283951
H	 0.6832157681	-0.3816526609	-0.73618237	 0.081897
H	 0.4495671679	-0.3063363468	 1.020168144	 0.087825
H	-2.0132299815	-0.0624254758	 0.6723826545	 0.10336
H	-1.7729826733	-0.1285318317	-1.0699412188	 0.101378
H	-0.7990613816	-2.4434195987	-0.8287490984	 0.065108
H	-0.2446556387	-3.2079688597	 1.45782957	 0.093179
H	-1.4199062797	-2.0704930924	 2.1489659646	 0.10054
H	-2.1050090217	-4.6514573476	 0.6210656136	 0.098392
H	-3.1395767723	-3.8358781548	 1.8120262715	 0.096553
H	-4.959541203	-2.3516595533	 0.4497807366	 0.106843
H	-4.1925125709	-0.9635759544	-0.4466208276	 0.114076
H	-3.4175224048	-2.5472844194	-2.2576837061	 0.107288
H	-4.1922378926	-3.9422643334	-1.3768086197	 0.107293
72.1449	87.4445	108.2667	119.091	237.3642	256.6914	269.2121	335.1567	342.5369	421.7932	508.034	541.965	735.8329	776.3071	786.7189	813.1096	862.0871	895.5604	911.9772	933.3145	946.5627	980.4648	995.903	1033.4933	1050.0595	1076.2579	1078.8994	1100.3756	1130.5796	1168.5487	1188.6766	1199.796	1227.8432	1236.7824	1240.256	1260.5465	1280.1605	1285.7406	1312.2793	1329.5672	1371.6729	1390.3673	1459.7698	1464.8224	1477.9879	1491.2674	1498.556	1505.8817	1527.0719	2957.5461	2983.5046	3007.4578	3022.7593	3042.2362	3052.2256	3068.0535	3089.1524	3110.2514	3117.062	3122.6226	3194.307	3210.0438	3829.8617
OCCC1CCC11CC1	OCC[C@H]1CCC21CC2	
InChI=1S/C8H14O/c9-6-2-7-1-3-8(7)4-5-8/h7,9H,1-6H2	InChI=1S/C8H14O/c9-6-2-7-1-3-8(7)4-5-8/h7,9H,1-6H2/t7-/m1/s1
