12
gdb 23631	4.08681	1.8661	1.28112	3.986	61.	-0.2228	-0.044	0.1788	844.6179	0.086105	-418.849168	-418.843123	-418.842179	-418.87944	23.107	
F	 0.0409069755	 0.0634472997	 0.0023715166	-0.059456
C	-0.0266564265	 1.3855153643	 0.0106721279	 0.343035
C	-1.2285362169	 2.0044479669	 0.0305791432	-0.298908
C	-1.2863314768	 3.4500658481	 0.0393943632	 0.390517
N	-2.3755932017	 4.1205442459	 0.0580738575	-0.551994
N	 0.0166610986	 4.0188593182	 0.0247128886	-0.353731
C	 1.1547544886	 3.2848637655	 0.0050347197	 0.114417
N	 1.1956934861	 1.9921544698	-0.0027155317	-0.322504
H	-2.1575760923	 1.4528027108	 0.040244722	 0.133486
H	-2.2093888764	 5.1272842099	 0.061407087	 0.198413
H	 0.0861457634	 5.026390815	 0.0293727575	 0.261852
H	 2.0825455285	 3.8512233659	-0.0045222916	 0.144873
164.7161	202.7971	365.863	432.4676	481.0737	549.0322	565.9599	621.6557	688.0089	744.8986	791.693	793.0576	874.3133	937.8873	963.445	986.4302	1108.7356	1186.723	1233.4118	1290.7123	1376.5386	1441.63	1472.6632	1621.4273	1666.9477	1739.5934	3171.6434	3242.952	3468.8121	3610.4488
FC1=CC(=N)NC=N1	F[C@@H]1C=C([NH])NC=N1	
InChI=1S/C4H4FN3/c5-3-1-4(6)8-2-7-3/h1-2H,(H2,6,7,8)	InChI=1S/C4H5FN3/c5-3-1-4(6)8-2-7-3/h1-3,6H,(H,7,8)/t3-/m0/s1
