16
gdb 102958	3.42231	0.83313	0.70072	4.7639	66.62	-0.2918	-0.008	0.2838	1524.3702	0.122188	-475.044516	-475.034724	-475.03378	-475.080772	32.81	
O	-0.0777329056	 1.4528587777	 0.1262273358	-0.409578
C	 0.0284656081	 0.0566013513	 0.0135989457	-0.072445
C	-1.3513238288	-0.6300252509	-0.1590797727	-0.162775
C	-1.211029879	-2.150699896	-0.342830848	-0.101539
O	-2.4528415139	-2.7294915202	-0.7233689381	-0.181489
C	-3.1089458009	-3.4987270273	 0.1814823663	 0.179227
O	-4.1521428779	-4.0164055872	-0.0632866518	-0.258261
C	-2.1976311522	-0.3171965547	 0.9944283362	 0.262526
N	-2.8172453275	-0.0572647162	 1.9352472462	-0.316776
H	-0.5073575353	 1.6608928059	 0.9640388716	 0.303007
H	 0.6230129862	-0.1387247129	-0.8841534855	 0.129361
H	 0.5538590032	-0.3915221757	 0.8704061551	 0.111136
H	-1.8294456766	-0.2151365236	-1.0531988959	 0.157186
H	-0.5025823441	-2.3505874184	-1.1517667915	 0.13883
H	-0.8299729872	-2.6165768058	 0.5743654512	 0.12917
H	-2.5644047085	-3.5877097958	 1.1406736555	 0.09242
46.6155	53.7707	98.844	141.2331	163.4897	189.0788	246.2236	334.8757	367.1764	378.7776	428.5917	556.3827	621.5666	671.2777	790.5919	917.7307	1028.3263	1036.691	1054.5741	1070.8965	1089.1817	1113.3293	1156.3599	1208.2011	1264.2476	1303.1474	1374.9323	1391.9293	1402.9696	1422.9101	1432.1707	1498.1818	1506.5589	1879.6962	2354.0313	2961.3845	2994.1235	3032.4664	3067.0345	3086.2491	3099.1994	3799.1916
OCC(COC=O)C#N	OC[C@@H](COC=O)C#N	
InChI=1S/C5H7NO3/c6-1-5(2-7)3-9-4-8/h4-5,7H,2-3H2	InChI=1S/C5H7NO3/c6-1-5(2-7)3-9-4-8/h4-5,7H,2-3H2/t5-/m0/s1
