15
gdb 131766	2.27263	1.61154	1.0179	2.9363	62.86	-0.2812	-0.0505	0.2308	1109.384	0.112877	-491.031359	-491.02328	-491.022336	-491.064334	29.373	
O	 0.0459182434	 1.3237279438	-0.6481841931	-0.399632
C	-0.0357075406	 0.0885063564	 0.0661436078	-0.197539
C	-1.4088552492	-0.5086887342	 0.006618979	 0.236549
N	-2.0763630786	-0.8321114113	 1.080029247	-0.137461
O	-3.2670665159	-1.3335061238	 0.6438568033	-0.153557
N	-3.3457118128	-1.3038787558	-0.72450238	-0.133719
C	-2.2162614136	-0.8033048635	-1.1418758123	 0.254429
C	-1.9001964832	-0.5760191468	-2.5955394781	-0.183598
O	-1.6842902623	 0.7860929369	-2.8939672204	-0.418517
H	-0.5105971556	 1.9679167732	-0.1949343361	 0.304139
H	 0.6881945317	-0.5728357337	-0.4200485634	 0.14361
H	 0.263953974	 0.2058178244	 1.1131417434	 0.143308
H	-1.0341123175	-1.1991238761	-2.8735527235	 0.103868
H	-2.7509006223	-0.9121280096	-3.1929128714	 0.144307
H	-0.9465344073	 1.0936908301	-2.3450177221	 0.293811
106.9995	117.6366	179.8804	203.8492	240.5887	336.2852	378.5827	416.9055	505.2062	624.5057	650.4139	654.6794	722.6191	817.295	900.6744	937.7357	959.9756	1008.6777	1043.5399	1064.2361	1082.6745	1198.6035	1220.2811	1252.3377	1366.9656	1386.9641	1413.7781	1438.8741	1471.077	1492.389	1499.1462	1516.6795	1621.2233	2968.6904	3048.873	3096.7937	3107.8446	3691.7544	3802.1045
OCC1=NON=C1CO	OCc1nonc1CO	
InChI=1S/C4H6N2O3/c7-1-3-4(2-8)6-9-5-3/h7-8H,1-2H2	InChI=1S/C4H6N2O3/c7-1-3-4(2-8)6-9-5-3/h7-8H,1-2H2
