18
gdb 92173	2.26919	2.0718	1.52961	1.7883	70.15	-0.2134	0.0679	0.2813	928.1041	0.148822	-439.026392	-439.018923	-439.017979	-439.057748	30.51	
O	-0.0114562274	 1.4528894351	-0.0581945462	-0.438375
C	 0.0445068536	 0.0273347112	 0.0100618227	-0.004313
C	 0.6461614197	-0.53980133	 1.3277477726	-0.197124
N	-0.4907443572	-0.9494366769	 2.1797115748	-0.132806
C	-1.3877679376	 0.2498603125	 2.4270835551	-0.186011
C	-2.2553849901	-0.1669039356	 1.2548624316	-0.142158
C	-1.4991961047	-1.4779584234	 1.2110348945	-0.099079
C	-1.3687257145	-0.5331101131	 0.0580343371	 0.434161
O	-2.0236348921	-0.8540206142	-1.1255678483	-0.489176
H	 0.8832001974	 1.7796899816	-0.1954076847	 0.284012
H	 0.5574075918	-0.3704934848	-0.877153872	 0.070662
H	 1.2494852067	-1.4289449456	 1.113287433	 0.104936
H	 1.2762725598	 0.1893548269	 1.8465176208	 0.098568
H	-1.8889797233	 0.1447445037	 3.3941166063	 0.105626
H	-0.8834891786	 1.2183543899	 2.3699878236	 0.112179
H	-3.3146334068	 0.0029400761	 1.1022162506	 0.089114
H	-1.8097182213	-2.5142062867	 1.169338571	 0.098601
H	-2.3098301353	-0.0294302167	-1.5340620124	 0.291181
147.6944	237.4603	286.4067	298.1883	327.75	369.6855	416.1615	431.1391	553.2397	598.263	666.1992	701.1486	793.7131	858.5953	859.7226	882.2749	928.1083	955.2045	968.5123	990.3928	1024.9676	1035.7012	1075.1843	1101.0252	1122.6386	1149.2849	1196.1923	1208.4879	1232.7565	1257.1335	1261.3999	1287.0787	1304.3022	1335.0654	1350.2504	1415.8839	1445.7535	1476.9909	1506.4306	2997.7138	3039.1332	3044.6017	3092.4651	3101.4804	3181.3838	3197.8915	3795.2802	3818.9225
OC1CN2CC3C2C13O	O[C@H]1CN2C[C@@H]3[C@H]2[C@]13O	
InChI=1S/C6H9NO2/c8-4-2-7-1-3-5(7)6(3,4)9/h3-5,8-9H,1-2H2	InChI=1S/C6H9NO2/c8-4-2-7-1-3-5(7)6(3,4)9/h3-5,8-9H,1-2H2/t3-,4+,5+,6-/m1/s1
