17
gdb 16759	5.10374	1.37049	1.19354	1.8853	69.67	-0.2278	0.0148	0.2426	1012.5851	0.143632	-363.836979	-363.829752	-363.828808	-363.868511	27.833	
O	 0.1338127684	 1.3797975097	-0.0033886386	-0.408745
C	 0.0011841636	-0.0263395093	 0.0888424121	-0.157928
C	-1.417761812	-0.5079733519	 0.1211199297	 0.267034
C	-2.5188167597	 0.2495449124	 0.1831048871	-0.157037
C	-3.7481055239	-0.5880423377	 0.0843081734	-0.078472
N	-3.8321262371	-1.3234110246	-1.2144617725	-0.336964
C	-3.2821198192	-1.9972908759	-0.0185853065	-0.039428
C	-1.7584207171	-1.9899106679	 0.0413246952	-0.308249
H	-0.3197173579	 1.6545141758	-0.8076877889	 0.283822
H	 0.5412125805	-0.5379310256	-0.7273293986	 0.096154
H	 0.516703698	-0.3145418683	 1.0153963729	 0.121572
H	-2.5288902129	 1.329260235	 0.2611900859	 0.096737
H	-4.6701523029	-0.3035841467	 0.5797896815	 0.086803
H	-4.7914914958	-1.6438632187	-1.3408737512	 0.224908
H	-3.835776425	-2.822349944	 0.4160304393	 0.087075
H	-1.3143696621	-2.4658153335	-0.8414854491	 0.117648
H	-1.387482845	-2.5351084588	 0.9200701982	 0.10507
88.9316	161.8283	208.0173	333.5022	367.3627	399.1151	434.7514	518.1929	673.1019	711.0959	802.4662	819.6706	857.7882	877.1649	921.4423	945.8512	959.3502	983.2639	1022.6325	1057.6937	1086.3715	1128.1861	1148.7957	1174.4699	1187.0703	1221.0828	1243.9236	1273.3406	1330.5761	1358.9714	1389.4337	1408.363	1423.4312	1464.2631	1490.0819	1698.0776	2949.8925	3015.4232	3027.6374	3056.0053	3163.5667	3173.3001	3214.952	3469.9188	3806.8615
OCC1=CC2NC2C1	OCC1=C[C@H]2N[C@H]2C1	
InChI=1S/C6H9NO/c8-3-4-1-5-6(2-4)7-5/h1,5-8H,2-3H2	InChI=1S/C6H9NO/c8-3-4-1-5-6(2-4)7-5/h1,5-8H,2-3H2/t5-,6+/m1/s1
