14
gdb 55626	2.28884	1.15652	0.9002	2.3494	70.84	-0.2702	0.0013	0.2714	1291.7887	0.097117	-436.645595	-436.63595	-436.635005	-436.681254	34.171	
N	-0.1080542841	 1.3047348162	 0.0341167588	-0.563289
C	 0.0394983005	-0.0325915804	-0.1568924411	 0.522089
O	 0.9986817168	-0.5724064662	-0.6551608465	-0.393235
O	-1.0621852052	-0.6798161728	 0.3305609645	-0.26065
C	-1.0252424532	-2.1219374349	 0.232342066	-0.232569
C	-1.0882307279	-2.6992915907	 1.5748663555	 0.337026
C	-1.1208605583	-3.1875111595	 2.6706749998	-0.440999
C	-2.1251083796	-2.5756664353	-0.6189713256	 0.33667
C	-3.0115234701	-2.962045985	-1.3298163567	-0.442912
H	 0.5499435732	 1.907875368	-0.4270450018	 0.274452
H	-1.0054992065	 1.6717832865	 0.2992618046	 0.271891
H	-0.0671316527	-2.3818398661	-0.2357129014	 0.177374
H	-1.1522019198	-3.6199769178	 3.6403629789	 0.207125
H	-3.7975548132	-3.3056285421	-1.956245425	 0.207027
26.812	74.3364	121.4851	147.5616	246.0432	264.9362	290.5124	331.4616	411.6458	503.6438	523.5966	563.3585	599.1428	631.0012	633.0409	652.2795	677.8442	679.4675	775.5936	925.5293	939.5494	1050.4776	1055.0511	1113.6708	1312.6067	1341.3445	1375.9493	1609.5407	1837.3478	2247.0808	2249.2812	3035.9531	3502.3178	3503.0116	3621.7474	3755.1269
NC(=O)OC(C#C)C#C	NC(=O)OC(C#C)C#C	
InChI=1S/C6H5NO2/c1-3-5(4-2)9-6(7)8/h1-2,5H,(H2,7,8)	InChI=1S/C6H5NO2/c1-3-5(4-2)9-6(7)8/h1-2,5H,(H2,7,8)
