17
gdb 49517	3.72034	1.2865	1.16852	3.0894	71.72	-0.2425	-0.0253	0.2172	1070.2916	0.136922	-421.774417	-421.767451	-421.766507	-421.806001	27.764	
O	-0.1572800067	-0.0262976383	-0.1373304046	-0.264808
C	-0.0354911868	 1.1565063221	 0.0652178408	 0.142394
C	 1.2944324047	 1.8627847243	 0.0164526181	-0.102245
C	 1.2418788979	 3.2345000032	-0.7193700589	 0.042159
O	 0.5631185393	 3.7744838175	 0.4705624854	-0.301476
C	 1.4981948718	 2.8823005345	 1.1761831466	 0.042191
C	 2.8521024279	 3.565484408	 0.9025488838	-0.043652
C	 3.7991577261	 2.9812212903	-0.1143881453	-0.305136
C	 2.6516606928	 3.840914346	-0.5798183585	-0.043651
H	-0.9039030409	 1.8027749896	 0.3020195587	 0.100772
H	 2.0663898981	 1.1337259853	-0.223355613	 0.088543
H	 0.6920711501	 3.3880370072	-1.6472834225	 0.092737
H	 1.2131574199	 2.6719655899	 2.2064227925	 0.092753
H	 3.189320456	 4.3259240935	 1.5957140153	 0.106192
H	 4.7756779541	 3.4544753378	-0.1584971136	 0.119358
H	 3.8342820601	 1.9181941376	-0.3166412299	 0.127678
H	 2.8354122055	 4.8122441516	-1.021649385	 0.106192
87.1206	180.5555	258.7999	338.2494	372.0044	477.0356	548.9089	609.7116	670.82	757.1082	805.2785	814.5242	851.5302	860.7677	890.7508	919.7386	968.4519	987.3701	1025.461	1047.8213	1064.1173	1067.9917	1092.1912	1096.3338	1136.8469	1176.1609	1192.7325	1201.907	1245.3531	1254.2362	1285.0554	1306.153	1327.8625	1377.4936	1414.0423	1499.3436	1819.7115	2940.2249	3126.6849	3130.7563	3133.1259	3138.9483	3188.4473	3195.6787	3218.2384
O=CC1C2OC1C1CC21	O=C[C@H]1[C@H]2O[C@@H]1[C@H]1C[C@@H]21	
InChI=1S/C7H8O2/c8-2-5-6-3-1-4(3)7(5)9-6/h2-7H,1H2	InChI=1S/C7H8O2/c8-2-5-6-3-1-4(3)7(5)9-6/h2-7H,1H2/t3-,4+,5+,6+,7-
