16
gdb 53997	1.99743	1.59802	1.13022	2.0378	66.27	-0.2567	-0.0571	0.1996	1103.1337	0.120992	-475.073743	-475.064042	-475.063098	-475.108772	34.082	
C	 0.267556409	 1.4950386992	 0.5626610131	-0.417633
C	 0.1845789101	 0.0211258511	 0.0522837635	-0.056277
C	 0.2883345827	-0.8822288311	 1.2944213961	 0.136837
O	-0.596200615	-0.9555819413	 2.108936908	-0.26998
C	-1.2128380612	-0.1400383711	-0.5390164254	 0.147715
O	-1.4992688267	-0.0703515288	-1.7109706056	-0.279016
C	 1.4035571357	-0.2310005547	-0.8600019154	 0.387937
N	 1.1993190399	-0.1411333587	-2.1908909533	-0.542622
O	 2.4876188395	-0.4500048939	-0.3460843777	-0.379132
H	 1.2431865761	 1.6579223061	 1.026410447	 0.160757
H	 0.1499839206	 2.1901451839	-0.272640635	 0.143238
H	-0.5154307619	 1.6781032101	 1.3028298213	 0.148148
H	 1.2380853741	-1.4382029201	 1.3843263727	 0.136363
H	-1.9900364606	-0.3001551413	 0.2320583684	 0.137381
H	 0.2614733903	-0.0425854314	-2.5553115448	 0.2838
H	 1.9835786875	-0.3140689481	-2.798974503	 0.262483
50.7527	80.8469	110.0513	216.5222	238.5455	249.1655	269.8748	298.1613	331.699	393.3412	429.6288	448.5124	598.261	659.178	679.9846	731.8078	786.7968	908.3068	951.487	982.6596	1006.6678	1114.3147	1132.3557	1173.5523	1214.4161	1356.7725	1383.9176	1394.3248	1421.5202	1489.0282	1498.9488	1605.9699	1779.946	1798.9884	1822.0117	2965.9467	2989.4609	3047.0256	3132.3492	3137.5801	3532.7615	3695.8382
CC(C=O)(C=O)C(N)=O	CC(C=O)(C=O)C(=O)N	
InChI=1S/C5H7NO3/c1-5(2-7,3-8)4(6)9/h2-3H,1H3,(H2,6,9)	InChI=1S/C5H7NO3/c1-5(2-7,3-8)4(6)9/h2-3H,1H3,(H2,6,9)
