17
gdb 46941	2.8808	1.8039	1.37469	3.1993	71.38	-0.2303	-0.0115	0.2189	943.3349	0.137985	-421.817607	-421.810898	-421.809954	-421.848673	27.237	
O	 0.0449110278	-0.0404855388	 0.0539288534	-0.331305
C	-0.0280991222	 1.1691109251	 0.014663451	 0.404293
C	-1.3686424113	 1.8903160728	-0.0614646785	-0.307766
C	-1.3407895006	 3.2081827604	-0.8600395853	-0.237788
C	-0.1135301752	 4.0224281223	-0.4815173275	 0.098181
O	 0.1083395229	 4.0124094376	 0.9713005759	-0.299495
C	 1.3469041709	 3.3475715253	 0.771185998	 0.087551
C	 1.2456945411	 3.3466970658	-0.7137891498	-0.176546
C	 1.2022733279	 2.0150943584	 0.0352237198	-0.162566
H	-2.1087190169	 1.1861041082	-0.4481015625	 0.118785
H	-1.643969334	 2.1252605447	 0.9738945257	 0.144789
H	-1.3071036595	 3.0147304162	-1.9397287137	 0.113664
H	-2.2552803913	 3.779023859	-0.6664606738	 0.112986
H	-0.1539202989	 5.0542759056	-0.8413715123	 0.094145
H	 2.1551088218	 3.5443011861	 1.465275689	 0.120906
H	 1.9601751042	 3.5673770355	-1.4944380124	 0.11087
H	 2.1239184932	 1.4426809859	-0.001627107	 0.109295
105.9271	216.2075	330.2771	339.2871	437.4661	468.0071	560.8747	610.2992	687.9818	713.1534	773.9176	808.6081	834.3084	874.9861	907.2366	921.1169	978.4452	997.1994	1028.9321	1034.9005	1045.4882	1070.4978	1081.7639	1123.4499	1169.3176	1213.672	1247.5768	1250.8691	1290.0067	1323.8492	1338.3325	1363.2867	1377.6447	1405.6322	1450.5004	1485.4232	1792.4317	3031.5095	3044.4361	3070.4032	3077.6491	3112.5631	3171.6021	3189.5688	3211.6173
O=C1CCC2OC3C2C13	O=C1CC[C@H]2O[C@@H]3[C@H]2[C@H]13	
InChI=1S/C7H8O2/c8-3-1-2-4-6-5(3)7(6)9-4/h4-7H,1-2H2	InChI=1S/C7H8O2/c8-3-1-2-4-6-5(3)7(6)9-4/h4-7H,1-2H2/t4-,5+,6-,7+/m1/s1
