15
gdb 26736	3.29891	1.29715	0.93651	2.0107	71.52	-0.2148	-0.0506	0.1642	1166.635	0.112881	-454.007717	-453.999453	-453.998508	-454.040553	29.95	
C	-0.0303903303	 1.5637919603	 0.0937814303	-0.513934
C	 0.0184580392	 0.0795861833	-0.0107458317	 0.197911
C	 0.0537674021	-0.7491696226	-1.0934666506	 0.283562
O	 0.0519249483	-0.3788190957	-2.3894431181	-0.431932
N	 0.0941233789	-2.0823298757	-0.7366128554	-0.34897
C	 0.0841502401	-2.0890455592	 0.5667239315	 0.029351
N	 0.0386695619	-0.8097203458	 1.0841880856	-0.116278
C	 0.0178716441	-0.4964487896	 2.4417205027	 0.174757
O	 0.0376548081	-1.3200079051	 3.3185651732	-0.286946
H	 0.8377749992	 1.9814350849	 0.6185414523	 0.134483
H	-0.0359515273	 1.9798764171	-0.9161533128	 0.15811
H	-0.9318367971	 1.9241722358	 0.6046925113	 0.134483
H	 0.0823291705	-1.1914369052	-2.9088631463	 0.306619
H	 0.1069694847	-2.950485187	 1.214038015	 0.168703
H	-0.0187484824	 0.5913286545	 2.6185507631	 0.110081
111.1413	168.7412	185.9637	200.7823	256.4848	274.778	344.6317	364.405	415.1247	537.3387	628.5009	655.1621	731.9623	776.4218	837.3946	843.2211	958.9856	1037.4547	1067.8618	1085.7925	1162.753	1240.8002	1268.4468	1323.9242	1405.8367	1421.5908	1430.5375	1454.6219	1484.3302	1496.2587	1539.1022	1715.5199	1822.4968	3003.4177	3018.2371	3062.1801	3127.4785	3282.9743	3806.2899
CC1=C(O)N=CN1C=O	Cc1c(O)ncn1C=O	
InChI=1S/C5H6N2O2/c1-4-5(9)6-2-7(4)3-8/h2-3,9H,1H3	InChI=1S/C5H6N2O2/c1-4-5(9)6-2-7(4)3-8/h2-3,9H,1H3
