17
gdb 52802	1.9208	1.2838	0.8653	4.2414	83.12	-0.2483	0.0197	0.268	1369.9808	0.134616	-380.845103	-380.835198	-380.834253	-380.881378	34.803	
C	 0.0915567726	 1.458544616	 0.0438015537	-0.501986
C	 0.0713927297	 0.0040753224	 0.07414534	 0.061252
C	 0.0358922832	-1.2000620524	 0.1028482216	 0.058134
C	 0.0327030191	-2.6415216194	 0.0986054969	 0.109722
N	 1.1231820116	-3.3341532943	-0.5566336415	-0.559492
C	-0.5663246522	-3.3749006072	 1.2728354801	-0.301421
C	-1.3149815787	-3.3754315472	-0.045045072	-0.195125
C	-2.5378347475	-2.6405667213	-0.1862155127	 0.299929
N	-3.5288245252	-2.0570127528	-0.3116769454	-0.343885
H	 0.7168186004	 1.8287845864	-0.7759637711	 0.150734
H	-0.9176037807	 1.8587974986	-0.1010553264	 0.163224
H	 0.4857128322	 1.8736622846	 0.9778352893	 0.150509
H	 1.2298679549	-2.9782200327	-1.5031166476	 0.239759
H	 1.9921957908	-3.1208980952	-0.0732267973	 0.239064
H	-0.0945858588	-4.307958958	 1.5557780068	 0.137688
H	-0.9770803113	-2.7801504033	 2.0784387558	 0.147355
H	-1.2560502	-4.2864352742	-0.6293572401	 0.144539
22.2115	64.6518	110.12	155.1363	179.0224	265.0329	312.8246	316.8073	340.158	383.8247	471.2525	535.0841	568.9311	591.9333	641.7306	790.1887	833.8404	898.7005	900.9781	971.0268	1047.2693	1050.8683	1053.7247	1087.8665	1094.0411	1121.7967	1249.6401	1264.8745	1327.0712	1379.5792	1413.3511	1466.6948	1475.42	1477.081	1662.1513	2355.9264	2364.4239	3028.955	3089.8925	3094.317	3153.9845	3183.9934	3255.3073	3482.0778	3555.9527
CC#CC1(N)CC1C#N	CC#C[C@@]1(N)C[C@H]1C#N	
InChI=1S/C7H8N2/c1-2-3-7(9)4-6(7)5-8/h6H,4,9H2,1H3	InChI=1S/C7H8N2/c1-2-3-7(9)4-6(7)5-8/h6H,4,9H2,1H3/t6-,7+/m0/s1
