20
gdb 107353	3.024	1.2302	0.99968	3.8495	79.48	-0.2344	0.0295	0.264	1246.8874	0.171857	-403.192209	-403.183639	-403.182695	-403.225444	33.21	
C	-0.2614575377	 1.5125350007	 0.0093167356	-0.384427
C	 0.0856258316	 0.0187816185	 0.0610397273	-0.25571
C	 0.7626045946	-0.4896308224	-1.1902593734	 0.362547
C	-0.0194675936	-0.9307103906	-2.4106969909	-0.331476
C	 0.7848880745	-1.9410285752	-1.6128360736	-0.100107
C	 2.1940206678	-2.2684653108	-2.0687371769	-0.351303
C	 2.9331647293	-0.9179513031	-2.0558071367	 0.382412
O	 4.034738522	-0.6825177518	-2.4972123688	-0.370187
N	 2.0934670459	-0.0052504006	-1.4577218406	-0.355119
H	 0.6376247752	 2.1319926533	-0.0813075042	 0.115038
H	-0.9108800931	 1.7378164615	-0.8428418478	 0.122155
H	-0.7790223011	 1.8248498885	 0.9210118986	 0.119287
H	 0.7349972867	-0.1815589422	 0.9222574416	 0.106314
H	-0.830886535	-0.5628653061	 0.2143990002	 0.101396
H	-1.099652905	-0.991444709	-2.3267713819	 0.114271
H	 0.3430276849	-0.6283445403	-3.3882978358	 0.116811
H	 0.2374573255	-2.672196249	-1.0295094138	 0.094809
H	 2.6988652858	-2.959069934	-1.3851059162	 0.131445
H	 2.2578625551	-2.7017263187	-3.0708891804	 0.13395
H	 2.3102267766	 0.9768331012	-1.5343646223	 0.247895
85.4918	111.0559	153.738	220.3055	278.5708	351.6993	405.5881	438.8813	478.3279	483.2659	597.0339	621.6686	662.2876	743.9887	790.471	841.0722	861.364	893.0976	931.9841	957.8073	990.484	1031.7036	1047.7429	1063.2795	1085.6565	1096.4927	1128.6271	1193.0013	1240.3645	1249.4749	1279.9185	1294.2247	1341.8635	1366.8087	1381.4741	1412.2513	1427.3987	1466.0817	1474.6096	1486.6845	1501.7919	1506.6231	1830.8956	3026.5396	3034.2277	3057.3967	3064.2354	3098.8399	3101.22	3111.0778	3122.7896	3175.6088	3212.9396	3626.4903
CCC12CC1CC(=O)N2	CC[C@]12C[C@H]1CC(=O)N2	
InChI=1S/C7H11NO/c1-2-7-4-5(7)3-6(9)8-7/h5H,2-4H2,1H3,(H,8,9)	InChI=1S/C7H11NO/c1-2-7-4-5(7)3-6(9)8-7/h5H,2-4H2,1H3,(H,8,9)/t5-,7+/m1/s1
