15
gdb 21188	3.42317	1.84196	1.21151	3.8007	64.	-0.2056	0.0145	0.2201	954.5175	0.120321	-395.961373	-395.953756	-395.952812	-395.993316	28.121	
C	-0.0400459493	 1.4132750348	 0.0272314003	-0.32935
N	-0.0897604759	-0.0400549714	-0.0102966524	-0.40351
C	 0.5957020253	-0.6591933123	-1.0557730304	 0.132224
C	 1.2222979025	-0.1678067675	-2.1576842605	 0.003017
O	 1.7032190364	-1.1788963563	-2.9157589454	-0.187748
N	 1.3920564972	-2.3922784016	-2.3026817158	-0.222463
C	 0.7395032514	-2.0767150245	-1.2097704345	 0.336443
N	 0.3085002148	-3.0186829197	-0.2828885942	-0.599325
H	 0.9849708373	 1.8176715775	 0.0543312465	 0.114149
H	-0.537492254	 1.8148223192	-0.8621073356	 0.13609
H	-0.5805957173	 1.7711891669	 0.9063190171	 0.127636
H	 0.1514974067	-0.4566326099	 0.8814558645	 0.240912
H	 1.3988651386	 0.8276724726	-2.5303402145	 0.136919
H	 0.4015706209	-3.9645710863	-0.632467375	 0.260208
H	-0.6395860148	-2.8451260016	 0.0298235196	 0.254796
87.9408	164.4142	205.1135	267.7702	297.1472	333.2613	389.6533	526.2138	574.0922	602.1496	684.9609	716.3055	773.0095	781.5277	822.3225	915.2558	949.8902	1074.2569	1126.9215	1151.4418	1162.8736	1173.1916	1262.2473	1313.2682	1457.0114	1459.9894	1485.9878	1503.1428	1520.5615	1570.9009	1637.1431	1699.9561	2972.6526	3067.6844	3122.1419	3274.9594	3525.8602	3538.4505	3623.1108
CNC1=CON=C1N	CNc1conc1N	
InChI=1S/C4H7N3O/c1-6-3-2-8-7-4(3)5/h2,6H,1H3,(H2,5,7)	InChI=1S/C4H7N3O/c1-6-3-2-8-7-4(3)5/h2,6H,1H3,(H2,5,7)
