18
gdb 112690	2.45796	1.32066	1.10589	1.3257	69.04	-0.2626	0.0076	0.2702	1157.981	0.148391	-476.235622	-476.226923	-476.225979	-476.26929	32.509	
O	 0.0653972839	 1.1766830069	 0.501040378	-0.421552
C	-0.0726511735	-0.2264802389	 0.4156020295	-0.071099
C	-1.3745742992	-0.6218787679	-0.2757829428	 0.08054
C	-1.655721314	-2.1337573104	-0.2984628601	-0.266675
C	-2.4950330234	-2.3616265513	 0.9575069439	 0.044583
O	-1.6365116554	-2.6979794133	 2.0419187861	-0.43072
C	-3.1186334008	-0.9966743924	 1.2093879155	 0.389517
N	-4.0566648262	-0.7937367907	 2.030338435	-0.547159
O	-2.4793725278	-0.0442855264	 0.4764986013	-0.261914
H	-0.7243931085	 1.5037644679	 0.9465659421	 0.289364
H	 0.7729312693	-0.5937045839	-0.1762417299	 0.112359
H	-0.0315193379	-0.7121684762	 1.4019030908	 0.11156
H	-1.4135666214	-0.1609944094	-1.2661857101	 0.100002
H	-2.2317074698	-2.4002393366	-1.1881399308	 0.119612
H	-0.7450571238	-2.7359012351	-0.2812855333	 0.130987
H	-3.2721548625	-3.1222237167	 0.8241525024	 0.098852
H	-2.1554403383	-2.5925424916	 2.8489550757	 0.296984
H	-4.2776637706	 0.2009939761	 2.1026949167	 0.224759
79.6352	94.7484	143.5894	208.6713	260.2136	364.3174	372.3126	409.4303	417.4452	455.3421	500.8204	657.2483	703.2639	754.4586	816.0703	876.7808	900.2875	909.2978	975.1311	1009.7455	1021.7903	1056.6829	1084.406	1105.8087	1136.7423	1201.7298	1215.9993	1237.1549	1287.8829	1314.646	1340.9451	1349.5881	1385.5196	1404.6055	1416.7229	1435.3276	1478.4609	1504.9185	1772.7915	3004.9435	3045.3562	3070.6458	3074.7221	3089.9475	3127.5029	3471.2801	3788.2699	3803.062
OCC1CC(O)C(=N)O1	OC[C@H]1C[C@@H](O)[C]([NH])O1	
InChI=1S/C5H9NO3/c6-5-4(8)1-3(2-7)9-5/h3-4,6-8H,1-2H2	InChI=1S/C5H9NO3/c6-5-4(8)1-3(2-7)9-5/h3-4,6-8H,1-2H2/t3-,4-/m1/s1
