19
gdb 122696	3.43412	0.84494	0.7232	4.7259	77.15	-0.2311	-0.0507	0.1804	1547.5879	0.158304	-456.354838	-456.344831	-456.343886	-456.390295	35.837	
N	-0.6584515663	 0.7033916596	-1.1892598825	-0.565043
C	-0.4474557992	-0.1612314458	-0.1581336069	 0.256947
C	 0.9578124839	-0.6723973051	-0.0563265748	 0.1398
O	 1.8242692862	-0.3960724664	-0.8519200095	-0.27433
N	-1.2563555686	-0.5784630162	 0.7502248171	-0.278297
C	-2.626252093	-0.0962906923	 0.6808004168	-0.177701
C	-3.4808603094	-0.8558568828	-0.3725465495	-0.183337
C	-4.418030047	 0.0646331875	-1.1412615999	-0.087338
O	-3.6090176351	 0.9362459679	-1.937101259	-0.402552
H	 0.111503061	 0.7937907724	-1.83509288	 0.262461
H	-1.5922176455	 0.9021921669	-1.524725947	 0.281711
H	 1.1179372298	-1.329972403	 0.8184902798	 0.103492
H	-3.0788798769	-0.2192869863	 1.6694505396	 0.100942
H	-2.6513710992	 0.9791384181	 0.4456896574	 0.101523
H	-2.8224033994	-1.3494864961	-1.0948655618	 0.121501
H	-4.0655180384	-1.6465247418	 0.1074416335	 0.108683
H	-5.0890886505	-0.5218227872	-1.7852588839	 0.097981
H	-5.0415029653	 0.6459933687	-0.4459513621	 0.098396
H	-4.1504997571	 1.6592027918	-2.2649459474	 0.295161
64.0009	85.1789	106.9731	151.3446	200.7152	236.5737	253.2847	295.8084	334.82	405.5013	451.9262	500.7445	553.7539	598.9628	665.9756	687.7251	790.9736	875.5031	916.0149	977.2843	1027.1418	1032.1097	1047.2592	1087.7791	1104.797	1154.2481	1217.1948	1252.1479	1288.2585	1313.7317	1344.3304	1368.5006	1382.1531	1396.2049	1440.1894	1479.3936	1515.1472	1521.3078	1632.4106	1713.8543	1805.2837	2972.0322	2981.3571	2987.8142	3020.6668	3055.3351	3062.8154	3098.5414	3525.0674	3662.0377	3845.2737
NC(C=O)=NCCCO	NC(=NCCCO)C=O	
InChI=1S/C5H10N2O2/c6-5(4-9)7-2-1-3-8/h4,8H,1-3H2,(H2,6,7)	InChI=1S/C5H10N2O2/c6-5(4-9)7-2-1-3-8/h4,8H,1-3H2,(H2,6,7)
