15
gdb 44837	2.44205	1.88695	1.402	3.7173	64.57	-0.2405	-0.0626	0.1779	927.4652	0.113327	-457.801607	-457.79479	-457.793846	-457.833056	26.732	
O	 0.0204770137	 0.0016105492	 0.0311403338	-0.295412
C	-0.0199906899	 1.1980515977	 0.0055142022	 0.418698
C	-1.2535783635	 2.1207206136	 0.00372538	-0.345226
C	-0.5704876915	 3.5000213847	 0.0838475354	 0.060089
C	 0.056215298	 3.7465396837	 1.4701970326	-0.345232
C	 1.2422869799	 2.7648863612	 1.4186692796	 0.418688
O	 2.0290461846	 2.4948057919	 2.2799612595	-0.295404
C	 1.1645598267	 2.1936958451	-0.0175454003	-0.157455
O	 0.6032268238	 3.2957459628	-0.7379963663	-0.259754
H	-1.798053056	 2.0074775685	-0.9381658634	 0.14828
H	-1.9296460969	 1.8742367666	 0.8260037166	 0.138415
H	-1.1481676685	 4.3294007657	-0.3197006762	 0.10324
H	 0.4286061451	 4.7715110896	 1.5549974732	 0.148276
H	-0.5874832685	 3.5401199179	 2.3286883265	 0.138419
H	 2.0943841831	 1.8309064419	-0.4458236532	 0.124379
112.1046	115.4238	349.4739	415.9931	418.5568	464.7129	537.9611	580.2562	599.0338	660.3772	755.2016	776.3371	823.9354	881.9738	895.6957	928.2781	961.5987	1018.9911	1020.3283	1037.4494	1108.2832	1166.6839	1174.6606	1177.0959	1236.2577	1238.3303	1275.4285	1335.4595	1337.922	1440.8836	1457.161	1853.9704	1888.2775	3068.5565	3070.5108	3118.816	3122.581	3140.2454	3180.022
O=C1CC2CC(=O)C1O2	O=C1C[C@H]2CC(=O)[C@@H]1O2	
InChI=1S/C6H6O3/c7-4-1-3-2-5(8)6(4)9-3/h3,6H,1-2H2	InChI=1S/C6H6O3/c7-4-1-3-2-5(8)6(4)9-3/h3,6H,1-2H2/t3-,6+
