22
gdb 106063	2.73486	1.3896	1.22333	1.8076	85.86	-0.2264	0.0825	0.3089	1173.5052	0.194207	-367.163201	-367.154343	-367.153399	-367.196452	34.421	
C	 0.0429516982	 1.6169351902	 0.0113316932	-0.377959
C	-0.0905741891	 0.0908994754	-0.0554056249	-0.340957
C	 0.7185919275	-0.5129021927	-1.1587330738	 0.3305
C	 2.0397118879	-0.2300271938	-1.7703038947	-0.087073
C	 2.4236340279	-1.7046084888	-1.8052374636	-0.28334
C	 0.8971282618	-1.9953231347	-1.7277346667	 0.239775
C	 0.3644400207	-3.2869266496	-1.1669780608	-0.509139
C	 0.405641463	-1.3863174972	-3.0531783821	-0.184058
N	 0.7704165238	-0.0183368035	-2.56644919	-0.189511
H	 1.0705549873	 1.9126941433	 0.2455859787	 0.116159
H	-0.2244942916	 2.0657749271	-0.9488725677	 0.141879
H	-0.6110053468	 2.0303098611	 0.7844195215	 0.109724
H	 0.2147973713	-0.3564896699	 0.8999100158	 0.101612
H	-1.1460850261	-0.1804063304	-0.1944714127	 0.102572
H	 2.6777900934	 0.6380153123	-1.6661951851	 0.093832
H	 2.9696010408	-2.096184992	-2.6716678217	 0.08997
H	 2.9386452141	-1.993357249	-0.884301908	 0.099773
H	 0.7517626898	-3.4797548306	-0.1604131454	 0.117749
H	-0.7297000294	-3.2779879693	-1.1093610566	 0.117963
H	 0.6551367071	-4.1345582672	-1.7995048737	 0.121403
H	 0.8928199515	-1.703197899	-3.9842989247	 0.089132
H	-0.6808991632	-1.4308683117	-3.1743806371	 0.099995
82.6551	140.1983	175.5924	206.5027	242.6144	254.5601	314.9955	377.2349	484.7163	496.1159	599.2764	632.801	713.6549	773.6353	790.1862	833.6147	862.0374	916.8705	926.7031	958.1933	979.326	993.4546	1021.1736	1036.5822	1082.6907	1110.4035	1120.8003	1132.5522	1151.9809	1165.6548	1214.0403	1236.5447	1256.3585	1269.5054	1296.5598	1340.165	1368.2099	1404.566	1415.0137	1437.4867	1485.8837	1488.9284	1492.9655	1493.758	1494.9814	1511.7743	1515.8751	3009.6788	3017.4507	3021.1905	3032.0603	3038.0395	3043.0913	3083.2592	3085.506	3090.2983	3093.5545	3109.4725	3124.868	3199.0378
CCC12C3CC1(C)CN23	CC[C@@]12[C@H]3C[C@]1(C)CN23	
InChI=1S/C8H13N/c1-3-8-6-4-7(8,2)5-9(6)8/h6H,3-5H2,1-2H3	InChI=1S/C8H13N/c1-3-8-6-4-7(8,2)5-9(6)8/h6H,3-5H2,1-2H3/t6-,7-,8-,9?/m1/s1
