19
gdb 126587	5.43932	0.68205	0.65476	2.1808	77.87	-0.2829	-0.021	0.2619	1753.6993	0.159713	-419.224664	-419.215636	-419.214692	-419.26041	31.62	
C	-0.1916759927	 1.540010071	-0.0474280324	-0.384725
C	 0.0195373795	 0.0244307124	-0.0038112737	-0.166449
C	 0.6897221954	-0.5183371622	-1.2696472511	-0.168402
C	 0.9006295874	-2.0452155484	-1.2152156006	-0.320471
C	 1.5548430167	-2.5791330332	-2.441317783	 0.42789
N	 2.7688853031	-3.0270240089	-2.5882296963	-0.312907
C	 2.7939111793	-3.3417931273	-3.9242843409	 0.036686
N	 1.6877045175	-3.1131087621	-4.5751615794	-0.115233
O	 0.8456983906	-2.5976296719	-3.5802682667	-0.198117
H	 0.7610595134	 2.0697230382	-0.1555809269	 0.118415
H	-0.8274396428	 1.8271374745	-0.8920225483	 0.118838
H	-0.6708866146	 1.9001314893	 0.8679028481	 0.116492
H	 0.630434148	-0.2374593189	 0.8700224406	 0.100811
H	-0.9461949362	-0.4783406876	 0.1381866555	 0.099923
H	 0.0818610174	-0.2714416646	-2.1481727078	 0.117584
H	 1.6605855457	-0.0286408028	-1.4145865998	 0.112669
H	 1.5334099565	-2.3138262789	-0.3655543073	 0.13918
H	-0.0666625028	-2.5438830096	-1.0837510718	 0.132108
H	 3.6597389085	-3.7538011389	-4.4221730681	 0.145707
25.6017	77.0495	89.3015	119.7968	237.9316	243.9378	315.3532	345.2999	429.1681	657.4458	710.0051	737.5706	778.4515	803.0982	905.3892	918.9678	931.8889	938.6175	980.4805	1004.7175	1026.6052	1061.0096	1099.6935	1123.1984	1191.5846	1228.1893	1261.6205	1280.3325	1302.2874	1332.4911	1347.166	1360.5784	1396.4937	1415.0964	1471.5669	1486.4195	1498.0643	1499.8661	1511.7634	1518.3187	1620.9599	3015.2385	3029.3659	3033.7459	3042.8055	3048.0801	3073.1456	3100.1858	3106.276	3113.4177	3260.3988
CCCCC1=NC=NO1	CCCCc1ncno1	
InChI=1S/C6H10N2O/c1-2-3-4-6-7-5-8-9-6/h5H,2-4H2,1H3	InChI=1S/C6H10N2O/c1-2-3-4-6-7-5-8-9-6/h5H,2-4H2,1H3
