21
gdb 104681	2.08538	1.64406	1.14213	1.1174	78.97	-0.2537	0.0743	0.328	1150.8364	0.182964	-424.148971	-424.139999	-424.139055	-424.182739	34.481	
O	 0.6694314495	-0.6119745295	 1.1752103448	-0.428508
C	 0.0150179065	 0.0079299766	 0.0666067332	-0.180675
C	-1.4106163577	-0.5449490908	 0.0123552983	 0.413542
C	-2.188999039	 0.1203051718	 1.1493066428	-0.180738
O	-2.4582185248	 1.4655015127	 0.7499235693	-0.428511
C	-2.0999086414	-0.6905403531	-1.395898511	-0.086745
C	-1.1324094961	-1.8790335041	-1.6934998395	-0.238507
C	-1.617837494	-2.0870008977	-0.2297630172	-0.086743
C	-3.0435006495	-1.7615823786	-0.7763129083	-0.238531
H	 1.4948046374	-0.1449254713	 1.3333962644	 0.28543
H	-0.0541462205	 1.0956224867	 0.2056116294	 0.101415
H	 0.5741700425	-0.1682312226	-0.8586291795	 0.084747
H	-3.1201421477	-0.4038902096	 1.3899546898	 0.084731
H	-1.5562894074	 0.093188069	 2.0471493254	 0.101432
H	-2.7799064807	 1.9458668068	 1.5181443273	 0.285428
H	-2.3791495663	 0.1220012432	-2.0675025997	 0.074775
H	-1.4975525622	-2.61094916	-2.4182975817	 0.087121
H	-0.0776573409	-1.6701925759	-1.8639787847	 0.094209
H	-1.335079548	-2.8929006713	 0.4483410459	 0.074775
H	-3.8127346801	-1.432538596	-0.0797785355	 0.094194
H	-3.4536821796	-2.4902119963	-1.4800286035	 0.087161
83.6047	87.0151	144.6909	217.5733	250.7687	266.2445	352.477	385.5823	441.3797	480.3015	560.3822	601.9596	706.416	799.4587	799.6596	889.2653	899.7024	900.7475	955.7148	983.1494	1001.2818	1014.9559	1049.3378	1049.6855	1069.8556	1080.8513	1094.3064	1109.2499	1176.4271	1186.1991	1192.0194	1193.4547	1225.796	1229.7886	1247.8667	1249.8201	1266.2623	1282.6356	1332.1167	1438.1598	1458.8849	1503.5469	1519.8191	1544.9139	1561.8996	3010.195	3012.5313	3047.5903	3050.3403	3067.9834	3073.5937	3105.6681	3110.3833	3142.8122	3144.6355	3830.2685	3830.5337
OCC1(CO)C2CC1C2	OCC1(CO)[C@H]2C[C@@H]1C2	
InChI=1S/C7H12O2/c8-3-7(4-9)5-1-6(7)2-5/h5-6,8-9H,1-4H2	InChI=1S/C7H12O2/c8-3-7(4-9)5-1-6(7)2-5/h5-6,8-9H,1-4H2/t5-,6+
