12
gdb 10253	3.32207	1.75251	1.17727	5.3061	53.61	-0.2648	-0.0507	0.2141	923.8636	0.082512	-451.863514	-451.855572	-451.854628	-451.89638	27.181	
N	-0.0245121282	 1.3520522281	 0.120595013	-0.551919
C	 0.0360089918	-0.0012871655	-0.0788318713	 0.467522
O	 1.0388251236	-0.586983495	-0.4135183339	-0.351085
N	-1.206141911	-0.6864765722	 0.1204925099	-0.211104
C	-1.108966054	-2.0868071885	 0.3875527903	 0.173979
O	-2.0416727017	-2.8243788368	 0.5033248022	-0.2532
C	-2.4469505404	-0.0324302363	-0.0768480454	 0.153606
O	-3.5205656229	-0.4861203507	 0.1914330484	-0.242954
H	 0.8695069974	 1.8152583728	 0.0615501511	 0.280914
H	-0.689016423	 1.7484116424	 0.764949086	 0.275265
H	-0.0529693044	-2.3817704785	 0.4654218622	 0.143725
H	-2.3014905075	 0.9602599302	-0.5379008826	 0.115251
59.1803	139.2057	148.6363	242.7401	246.2315	304.0899	424.2606	446.501	487.2248	540.2434	555.4372	674.8395	778.4081	913.624	1032.7514	1044.9901	1097.2214	1113.9611	1243.7785	1366.5978	1428.4667	1460.7605	1623.8375	1801.9955	1827.5811	1885.9056	2981.8082	3048.1627	3589.9605	3710.2921
NC(=O)N(C=O)C=O	NC(=O)N(C=O)C=O	
InChI=1S/C3H4N2O3/c4-3(8)5(1-6)2-7/h1-2H,(H2,4,8)	InChI=1S/C3H4N2O3/c4-3(8)5(1-6)2-7/h1-2H,(H2,4,8)
