17
gdb 43375	3.43659	1.1768	0.91513	3.816	80.25	-0.233	-0.0471	0.1859	1242.2777	0.135097	-384.690953	-384.68241	-384.681466	-384.725056	31.569	
O	-0.1608568798	 0.0150649113	 0.2620711137	-0.323077
C	-0.1383694367	 1.2132035279	 0.1097840431	 0.37664
C	-1.3027613944	 2.1108827274	-0.0766397695	-0.165866
C	-0.9062947933	 3.38766128	-0.1017340754	-0.050682
C	 0.5840943342	 3.5468399838	 0.0642555018	-0.300848
C	 1.1275451412	 2.1010182273	 0.0857213042	-0.104366
C	 2.099519409	 1.8098417655	 1.251095249	-0.372903
C	 2.8130384022	 0.5442891209	 1.1373055843	 0.326858
C	 3.4435730857	-0.4732147918	 1.0367905456	-0.444215
H	-2.3156219832	 1.7364187461	-0.1498243809	 0.117624
H	-1.5618183954	 4.2452496535	-0.2124153523	 0.117218
H	 1.0180224732	 4.1525682225	-0.7395778993	 0.122163
H	 0.806439976	 4.0811413644	 0.9980866879	 0.122682
H	 1.6469392311	 1.8839165692	-0.8542977674	 0.119118
H	 2.8333578837	 2.6247361083	 1.2999711958	 0.131005
H	 1.5459506792	 1.8416345897	 2.1988619886	 0.13383
H	 3.9722482373	-1.389848936	 0.9517140507	 0.19482
35.0023	86.2457	140.3936	223.0089	281.2713	337.8087	365.0867	450.4547	480.6066	615.9082	633.4866	644.935	672.5637	758.4465	762.1429	803.8339	894.4618	942.1271	975.2213	986.023	1002.8526	1046.3291	1089.2087	1113.648	1173.2119	1180.7407	1197.1592	1277.3376	1292.5838	1344.2408	1350.6373	1366.3	1470.6118	1475.1929	1653.3545	1815.76	2243.2817	3013.9166	3021.1896	3041.2225	3052.7488	3064.3521	3188.5996	3228.6989	3508.5874
O=C1C=CCC1CC#C	O=C1C=CC[C@H]1CC#C	
InChI=1S/C8H8O/c1-2-4-7-5-3-6-8(7)9/h1,3,6-7H,4-5H2	InChI=1S/C8H8O/c1-2-4-7-5-3-6-8(7)9/h1,3,6-7H,4-5H2/t7-/m1/s1
