18
gdb 82662	2.51789	2.04695	1.44532	2.8919	75.09	-0.2373	-0.0168	0.2205	940.6856	0.149321	-401.903255	-401.896222	-401.895278	-401.934423	28.591	
C	-0.0419453372	 1.525334639	-0.0034128613	-0.42286
C	 0.0950882373	 0.0102705592	-0.0267796074	 0.062766
C	 1.0451531345	-0.5857532213	-1.0979075099	-0.190502
C	 1.5856357022	-1.821974001	-0.2412108525	-0.054861
C	 0.6309993603	-2.0194684931	 0.9320937888	-0.189747
N	 0.7893287973	-0.5371397258	 1.2016006496	-0.155153
C	 2.2234043596	-0.6707726743	 0.6364713163	-0.126222
C	 2.346602739	 0.1020859118	-0.6658332597	 0.440598
O	 3.221668751	 0.7175743869	-1.2012470913	-0.332891
H	 0.9249817875	 2.0242833279	 0.1130673016	 0.137861
H	-0.4916889757	 1.8834624302	-0.9354071889	 0.120687
H	-0.6809038169	 1.8296032899	 0.82970008	 0.129001
H	-0.9010512185	-0.4384640999	-0.0787021791	 0.080789
H	 0.7318140848	-0.661221092	-2.1361810504	 0.087879
H	 2.1588476391	-2.5909059228	-0.757079144	 0.09218
H	-0.3977627872	-2.3541921369	 0.7660406972	 0.105648
H	 1.0801385061	-2.597319672	 1.7437257793	 0.115654
H	 3.0008615267	-0.7906320558	 1.3859302715	 0.099174
143.5409	194.8164	238.0535	299.3622	367.822	509.6331	513.2608	574.131	654.654	729.9675	775.0926	789.6489	793.5637	837.3837	864.8187	910.0913	930.3618	992.4061	998.095	1027.7853	1043.2319	1060.453	1083.2793	1113.3837	1123.0292	1165.2949	1181.1764	1197.1043	1209.1933	1230.4734	1268.8888	1278.8246	1314.3257	1388.9349	1416.154	1486.7955	1497.7169	1519.3666	1886.7844	3040.7992	3045.9934	3059.2414	3107.7608	3110.1601	3121.8442	3127.9719	3156.6277	3165.2216
CC1C2C3CN1C3C2=O	C[C@H]1[C@@H]2[C@@H]3CN1[C@@H]3C2=O	
InChI=1S/C7H9NO/c1-3-5-4-2-8(3)6(4)7(5)9/h3-6H,2H2,1H3	InChI=1S/C7H9NO/c1-3-5-4-2-8(3)6(4)7(5)9/h3-6H,2H2,1H3/t3-,4-,5+,6-/m0/s1
