19
gdb 74294	3.00897	1.10638	1.03335	1.3871	85.24	-0.2389	0.0083	0.2472	1270.3502	0.15704	-385.872794	-385.863322	-385.862378	-385.906777	35.845	
C	 0.0440386786	 1.5607074338	 0.0657191136	-0.491279
C	 0.0278797218	 0.0657304244	 0.0343208438	 0.324771
C	-0.3709346745	-0.7158966986	-0.9705723936	-0.218761
C	-0.1558122727	-2.1908512585	-0.6828636403	 0.179372
O	 1.0413068282	-2.678619633	-1.3166778332	-0.454888
C	 0.1116521204	-2.1987987168	 0.8474176917	-0.242224
C	 0.5344221892	-0.7565003253	 1.2000331442	-0.309846
C	-1.2981030312	-3.0213348567	-1.081618067	 0.296851
C	-2.2283090327	-3.691984962	-1.444399706	-0.484324
H	 1.0622537832	 1.9376194478	 0.2260017136	 0.12995
H	-0.3366919935	 1.9920297099	-0.8637130064	 0.125374
H	-0.5624727012	 1.943457173	 0.8961478166	 0.128111
H	-0.7553976789	-0.3743903065	-1.9256542776	 0.090098
H	 0.8918361893	-2.6643170011	-2.2685901827	 0.276783
H	-0.8100849988	-2.460794536	 1.3708892905	 0.116569
H	 0.8643754587	-2.9527228124	 1.0840827181	 0.120502
H	 1.6241277076	-0.6538712445	 1.290604705	 0.115953
H	 0.1143393196	-0.4234497997	 2.1565057377	 0.10227
H	-3.050354413	-4.289398388	-1.7529272978	 0.194721
75.6884	123.9816	160.6859	180.8631	200.0297	268.0587	308.3664	383.1978	402.1704	468.5048	502.0415	534.2143	597.6518	609.9417	627.8656	653.5225	777.0021	830.7307	870.3565	888.5202	956.0638	981.7444	1011.1595	1026.1725	1052.749	1100.3528	1118.4633	1182.9859	1199.5707	1251.6387	1287.2954	1312.5871	1342.7078	1373.6459	1413.9584	1473.592	1479.8847	1486.8717	1491.7965	1717.1797	2227.8126	3017.3596	3022.0126	3051.6498	3066.3776	3081.37	3114.0593	3132.0759	3189.5081	3500.8257	3805.6544
CC1=CC(O)(CC1)C#C	CC1=C[C@@](O)(CC1)C#C	
InChI=1S/C8H10O/c1-3-8(9)5-4-7(2)6-8/h1,6,9H,4-5H2,2H3	InChI=1S/C8H10O/c1-3-8(9)5-4-7(2)6-8/h1,6,9H,4-5H2,2H3/t8-/m0/s1
