23
gdb 111097	2.85956	1.14025	1.05181	1.3197	85.46	-0.2603	0.0781	0.3385	1292.556	0.207431	-388.277384	-388.268555	-388.267611	-388.310752	34.771	
C	 0.0105851258	 1.6322006549	 0.0010173828	-0.418853
C	 0.0772290495	 0.1086230935	 0.0890630565	 0.052074
C	 0.9504362317	-0.5908443973	-1.0164969783	-0.240534
C	 1.8949223622	-1.4114111839	-0.1149616903	-0.007854
C	 0.9038496588	-1.9709413812	 0.9469779306	-0.244959
C	 0.7926026139	-0.467412802	 1.3363558614	-0.045512
C	 2.3001426754	-0.3388844761	 0.9441605768	 0.067053
C	 3.3303470778	-0.7293353807	 1.9866614092	-0.133752
O	 4.5886150198	-0.8147352531	 1.3250616513	-0.423538
H	 1.0041854517	 2.0897615734	 0.0496538242	 0.116816
H	-0.4483147829	 1.9478735576	-0.9423480408	 0.112552
H	-0.5897491204	 2.05023079	 0.817038029	 0.108349
H	-0.9477429107	-0.2791959693	 0.0575713493	 0.064433
H	 0.3569989384	-1.2189482492	-1.6875232062	 0.089977
H	 1.4945238829	 0.1351323019	-1.62969412	 0.094468
H	 2.6428710975	-2.0378116113	-0.6005193578	 0.064925
H	-0.0031145829	-2.4659535431	 0.5852282155	 0.083427
H	 1.3773328346	-2.5923480775	 1.7070168375	 0.095087
H	 0.4200522983	-0.1463552597	 2.3117342073	 0.048901
H	 2.6098795409	 0.6252400919	 0.5269309539	 0.065741
H	 3.3517555738	 0.0415285173	 2.7749290928	 0.081981
H	 3.0805384441	-1.6819948386	 2.4753790688	 0.084552
H	 5.2579615097	-1.0297598375	 1.9811744463	 0.284665
75.0546	158.8317	178.2834	208.7209	246.4	266.9921	334.1476	402.2187	447.5806	480.2441	539.5013	634.7579	783.5213	808.9328	832.9721	855.4398	892.1722	919.7087	943.1876	954.4084	995.5988	1009.1578	1038.8915	1041.6532	1063.7186	1084.4806	1094.9729	1099.2322	1135.207	1153.2452	1198.4989	1201.6058	1230.9498	1233.1717	1264.9764	1265.8266	1275.633	1288.0632	1311.1666	1323.2684	1377.9622	1395.4576	1411.5598	1461.2391	1494.1461	1498.3814	1499.2146	1507.2349	1529.0736	2962.4065	3003.3931	3024.5994	3026.57	3043.8192	3050.4532	3052.8206	3086.4991	3087.2727	3090.948	3099.0626	3118.5196	3130.3923	3828.254
CC1CC2CC1C2CO	C[C@H]1C[C@@H]2C[C@H]1[C@H]2CO	
InChI=1S/C8H14O/c1-5-2-6-3-7(5)8(6)4-9/h5-9H,2-4H2,1H3	InChI=1S/C8H14O/c1-5-2-6-3-7(5)8(6)4-9/h5-9H,2-4H2,1H3/t5-,6+,7+,8-/m0/s1
