15
gdb 46869	2.69659	1.81586	1.19636	6.6233	66.65	-0.2432	-0.0461	0.1971	985.0365	0.114603	-453.968174	-453.960852	-453.959908	-454.00006	27.72	
O	 0.008126099	 0.0069045543	-0.689565268	-0.342936
C	-0.0359588608	 1.1417641457	-0.2763176938	 0.348319
N	-1.1749732947	 1.9047335888	-0.2191101817	-0.324535
C	-1.2015127822	 3.192532417	 0.4726871974	-0.206113
C	-0.0101851658	 3.9997022728	-0.013844111	-0.01557
C	 1.1390809738	 4.3234343223	 0.8964053685	-0.251541
N	 1.2273894909	 3.2401962218	-0.0689920169	-0.079226
C	 1.2062744524	 1.8870331953	 0.2800616973	 0.260114
O	 2.0621490214	 1.3313801309	 0.9164016574	-0.304507
H	-2.0376944354	 1.4258605703	-0.4350631916	 0.257138
H	-2.1401469427	 3.698968739	 0.2377046103	 0.132995
H	-1.1623556336	 3.0635952797	 1.5635856654	 0.126667
H	-0.1866535327	 4.6367308123	-0.8777690684	 0.116349
H	 1.7588435228	 5.1904251161	 0.6898203911	 0.1406
H	 1.0611542676	 4.0482471237	 1.9450227741	 0.142246
91.068	169.5639	225.0924	322.5871	345.7929	408.3342	451.0434	491.3905	522.3986	625.6246	687.0509	735.8163	822.8753	844.0456	932.3223	944.2516	971.5164	1055.8621	1092.684	1118.1427	1133.2569	1146.1784	1174.4385	1261.244	1293.9105	1346.5987	1381.1044	1414.0851	1460.5065	1502.2726	1513.6985	1819.2228	1824.7373	3003.5443	3103.2483	3117.8233	3135.6166	3209.4935	3606.651
O=C1NCC2CN2C1=O	O=C1NC[C@H]2CN2C1=O	
InChI=1S/C5H6N2O2/c8-4-5(9)7-2-3(7)1-6-4/h3H,1-2H2,(H,6,8)	InChI=1S/C5H6N2O2/c8-4-5(9)7-2-3(7)1-6-4/h3H,1-2H2,(H,6,8)/t3-,7?/m0/s1
