17
gdb 30887	3.12653	1.23297	0.9145	2.1832	73.58	-0.1765	0.0394	0.216	1267.4361	0.135186	-455.175138	-455.165625	-455.164681	-455.210003	33.57	
C	-0.0180364684	 0.7942301835	-0.6634449644	-0.254062
O	-0.2748813596	 0.6538008779	 0.7346111604	-0.275027
C	 0.5145721755	-0.2450499805	 1.3662661922	 0.28106
C	 0.9498508235	-1.5181544785	 1.1077477044	 0.209742
O	 0.6970475793	-2.2639305205	-0.0014255472	-0.450756
N	 1.7191657406	-1.9857264074	 2.1356548039	-0.372696
C	 1.7564173767	-1.0228357974	 3.0394676982	 0.336341
C	 2.4565288478	-1.0851684585	 4.3540784841	-0.496496
N	 1.0445256474	 0.0594125725	 2.6112747381	-0.350058
H	-0.1692997417	-0.1534793218	-1.1894542183	 0.150623
H	-0.7265680828	 1.5386934208	-1.0311049104	 0.129074
H	 1.0080598021	 1.1409957944	-0.8381616602	 0.116665
H	 1.1917185063	-3.0839746252	 0.1135623251	 0.297873
H	 3.2002235702	-0.2869447639	 4.4647285301	 0.128126
H	 1.7593126846	-1.0047368264	 5.1969450737	 0.130788
H	 2.9704602843	-2.044641217	 4.4272264692	 0.154407
H	 0.8940079241	 0.928730488	 3.095231781	 0.264396
49.9727	78.0896	149.3694	176.3562	213.0094	273.2248	279.8788	311.2355	325.1672	427.6051	475.8574	517.2213	614.8221	662.1174	690.6133	711.2588	814.9711	995.8832	1027.9124	1058.1575	1059.7576	1140.8495	1182.2391	1213.9984	1221.0912	1287.8046	1356.2121	1411.3611	1430.7101	1454.774	1481.0035	1484.1471	1496.298	1509.2279	1518.4978	1567.3837	1712.136	3018.9232	3023.5734	3069.6203	3094.3307	3137.1137	3144.719	3664.8383	3806.6544
COC1=C(O)N=C(C)N1	COc1c(O)nc(C)[nH]1	
InChI=1S/C5H8N2O2/c1-3-6-4(8)5(7-3)9-2/h8H,1-2H3,(H,6,7)	InChI=1S/C5H8N2O2/c1-3-6-4(8)5(7-3)9-2/h8H,1-2H3,(H,6,7)
