13
gdb 9326	4.26262	1.08347	0.90467	3.1141	56.86	-0.2932	-0.0758	0.2174	1192.7992	0.09398	-435.757916	-435.74956	-435.748616	-435.792118	27.856	
O	-0.0172595447	 1.4375442834	-0.0494128911	-0.411798
C	-0.0062472677	 0.0271146081	-0.0732496034	-0.074353
C	-1.3996084887	-0.5642067656	 0.0378910533	-0.086689
O	-2.1185918916	-0.1359043183	-1.1510589972	-0.24108
C	-3.3781692302	-0.5573830688	-1.254811618	 0.370323
O	-3.9699565758	-1.2587077851	-0.4823954099	-0.323489
C	-3.9793282095	-0.0369610006	-2.4897779659	 0.252399
N	-4.4965553298	 0.3484139579	-3.4475272989	-0.300749
H	-0.5024398996	 1.7363686339	-0.8260505045	 0.295899
H	 0.4857866213	-0.366624048	-0.975543691	 0.108804
H	 0.5767755184	-0.3010081319	 0.7933492663	 0.128145
H	-1.3855461928	-1.6575262083	 0.0712964349	 0.136491
H	-1.9272883892	-0.1848256567	 0.9168536252	 0.146099
39.7329	79.7728	124.9004	179.6807	254.1055	292.1354	344.2425	374.5258	492.21	527.8447	612.448	775.2706	843.8926	888.3755	952.0336	1016.8465	1091.8511	1122.9543	1230.9512	1263.2686	1268.1039	1391.0275	1400.6062	1428.6488	1490.3555	1493.9066	1823.4746	2361.9189	2997.9062	3063.3165	3087.6641	3123.324	3815.1788
OCCOC(=O)C#N	OCCOC(=O)C#N	
InChI=1S/C4H5NO3/c5-3-4(7)8-2-1-6/h6H,1-2H2	InChI=1S/C4H5NO3/c5-3-4(7)8-2-1-6/h6H,1-2H2
