15
gdb 5211	8.61028	0.98021	0.88488	2.0201	81.09	-0.1948	0.0244	0.2192	1275.1273	0.119852	-325.546399	-325.538515	-325.537571	-325.580889	27.981	
C	-0.0229360864	 1.4814519759	 0.0104963502	-0.507657
C	 0.002507009	 0.0269783731	 0.0027943997	 0.178886
C	 0.0271102079	-1.1797959691	-0.0035678454	-0.101234
C	 0.0332807615	-2.5955449509	-0.0110088552	 0.174605
C	 1.1512057783	-3.4140305574	-0.0219000814	-0.208667
N	 0.7233455801	-4.7118200274	-0.0261312732	-0.230187
C	-0.6500578292	-4.7550210109	-0.0182341066	-0.068582
C	-1.1091064658	-3.4632578688	-0.0087366128	-0.274955
H	 0.9915127507	 1.8961874654	 0.0029079332	 0.144435
H	-0.5466791942	 1.8802705172	-0.8663203588	 0.144066
H	-0.5297840105	 1.8712524441	 0.9011926525	 0.144053
H	 2.1988745381	-3.1625678737	-0.0268001329	 0.122066
H	 1.3266497087	-5.5151218878	-0.0339226946	 0.264576
H	-1.1765515168	-5.6955924521	-0.0200153496	 0.120695
H	-2.1401304613	-3.1474090577	-0.0009538751	 0.097899
8.3034	99.7091	109.2961	275.2952	304.6368	466.2487	466.6232	490.1173	528.9741	632.9994	663.176	690.5686	776.2963	836.8629	901.736	911.2475	1026.5645	1051.7179	1053.2029	1095.2768	1102.878	1162.3198	1256.7521	1341.558	1379.5991	1414.3811	1462.3474	1476.7235	1479.8302	1527.7615	1593.2124	2358.0583	3019.1193	3074.1303	3080.6034	3255.4336	3271.713	3276.0473	3687.5356
CC#CC1=CNC=C1	CC#Cc1c[nH]cc1	
InChI=1S/C7H7N/c1-2-3-7-4-5-8-6-7/h4-6,8H,1H3	InChI=1S/C7H7N/c1-2-3-7-4-5-8-6-7/h4-6,8H,1H3
