14
gdb 13832	4.74374	1.59796	1.21347	3.3574	59.62	-0.2554	-0.0345	0.2209	939.5537	0.108503	-415.905956	-415.89839	-415.897446	-415.938663	26.403	
N	-0.0804600483	 1.2950351234	 0.1386715964	-0.525205
C	 0.0509522861	-0.0453491218	-0.0166193146	 0.338105
O	 1.0990798035	-0.6469989806	-0.1107589115	-0.343236
C	-1.2926366055	-0.7420963923	-0.0621904312	 0.340031
N	-2.4135393544	-0.1463589865	 0.0319171273	-0.324269
C	-3.4444020586	-1.192162501	-0.0606209245	-0.191237
C	-2.6404484218	-2.5095518915	-0.2281990241	-0.111353
O	-1.2575902567	-2.0789584616	-0.213274179	-0.235209
H	 0.746864578	 1.8647988951	 0.1812510148	 0.266866
H	-0.9987899042	 1.7023504143	 0.2061663625	 0.278369
H	-4.0630266447	-1.1856978546	 0.8426594709	 0.125348
H	-4.1055382974	-0.9887873069	-0.9092600833	 0.125345
H	-2.7830398314	-3.2185703614	 0.5912150666	 0.128222
H	-2.8258524646	-3.0197990646	-1.1767527704	 0.128223
51.6188	95.0687	181.369	207.9982	263.2049	392.3514	492.7378	530.8012	642.0177	658.2482	756.8765	808.2994	832.5556	918.8096	982.0855	997.7011	1018.7398	1101.5347	1118.0548	1213.55	1224.4622	1246.2286	1314.8632	1369.108	1422.475	1499.804	1526.4483	1597.1231	1707.7009	1816.8687	3045.5904	3064.0199	3075.1542	3113.2047	3597.5816	3742.8821
NC(=O)C1=NCCO1	NC(=O)C1=NCCO1	
InChI=1S/C4H6N2O2/c5-3(7)4-6-1-2-8-4/h1-2H2,(H2,5,7)	InChI=1S/C4H6N2O2/c5-3(7)4-6-1-2-8-4/h1-2H2,(H2,5,7)
