13
gdb 5214	9.22048	0.9995	0.90686	1.4911	71.96	-0.2258	-0.0118	0.2139	1218.5021	0.095849	-361.471902	-361.464487	-361.463543	-361.505713	25.266	
C	-0.0445195743	 1.4631605345	 0.0375237233	-0.510479
C	 0.000156058	 0.0102686789	 0.020550607	 0.233866
C	 0.0308315537	-1.1949018474	 0.0081901453	-0.111887
C	 0.0674156907	-2.6073422346	-0.0064689326	 0.115483
C	 1.11623288	-3.4288767824	-0.2928289392	-0.125458
O	 0.6942365713	-4.7193018331	-0.1830824854	-0.133248
C	-0.6096190156	-4.6149674628	 0.1698160964	 0.063016
N	-1.0457900015	-3.4085789081	 0.2918232554	-0.299755
H	 0.6649883769	 1.8754042855	 0.7637478807	 0.152198
H	 0.2035913355	 1.8811662014	-0.9445448511	 0.152198
H	-1.0438182696	 1.8203122246	 0.3086316632	 0.157167
H	 2.1433526498	-3.2707225123	-0.5700157187	 0.153875
H	-1.147214665	-5.5392834444	 0.3120556758	 0.153024
13.6506	98.699	110.877	289.2263	316.101	473.6264	474.4051	533.8899	636.952	706.808	782.9198	848.0552	925.6661	939.8741	1038.7336	1051.2942	1051.8044	1096.3939	1135.2735	1239.5494	1293.188	1338.8919	1412.645	1474.273	1475.8712	1562.3302	1601.0681	2367.5029	3026.4284	3085.5874	3092.4242	3276.5023	3302.1312
CC#CC1=COC=N1	CC#Cc1cocn1	
InChI=1S/C6H5NO/c1-2-3-6-4-8-5-7-6/h4-5H,1H3	InChI=1S/C6H5NO/c1-2-3-6-4-8-5-7-6/h4-5H,1H3
