17
gdb 23068	4.67651	1.12849	1.04466	1.6898	77.5	-0.2284	0.0109	0.2392	1168.794	0.135613	-417.907836	-417.899914	-417.898969	-417.940028	30.681	
C	-0.0239344346	 1.433052866	 0.0778104882	-0.496538
C	 0.0740343996	-0.0516515285	-0.0941845885	 0.330302
C	-0.5797234422	-0.9061434837	-1.1763631212	-0.286938
C	-0.3733589259	-2.0627929008	-0.1752759663	-0.115708
N	-0.2992702586	-1.0067312979	 0.9929635448	-0.186877
C	 1.1634086503	-0.8658565971	 0.5617817198	-0.201886
C	 1.1243310735	-2.2045410034	-0.0526187338	 0.515878
N	 2.0007738603	-3.1111479292	-0.1643864077	-0.306298
O	 1.4322995637	-4.2909098021	-0.6940437931	-0.398865
H	 0.5802511405	 1.9533504186	-0.6731418624	 0.129126
H	-1.0618698342	 1.7656629543	-0.0263824617	 0.129561
H	 0.3291473859	 1.7330416889	 1.0690328763	 0.134751
H	-1.6379370052	-0.6463114014	-1.273363566	 0.113655
H	-0.119536959	-0.9867328793	-2.1653391783	 0.111616
H	-1.0387111702	-2.9175322647	-0.1034188681	 0.110481
H	 1.9157551314	-0.4297239998	 1.2061156278	 0.110449
H	 2.1830336747	-4.89382908	-0.68497594	 0.307292
111.4257	169.1653	189.6918	280.072	300.7012	311.4728	389.233	467.0408	483.1461	635.2424	655.086	705.1544	752.7202	787.3383	801.382	875.9673	937.401	947.367	983.2834	989.1213	1012.941	1032.6561	1077.146	1141.2185	1160.8712	1180.6484	1211.5458	1250.1258	1267.856	1307.7696	1378.2059	1416.5328	1427.981	1482.2631	1491.53	1498.278	1804.0971	3033.9588	3050.8528	3101.1729	3106.6417	3111.8873	3177.3201	3209.1065	3822.5712
CC12CC3N1C2C3=NO	C[C@]12C[C@@H]3N1[C@H]2C3=NO	
InChI=1S/C6H8N2O/c1-6-2-3-4(7-9)5(6)8(3)6/h3,5,9H,2H2,1H3	InChI=1S/C6H8N2O/c1-6-2-3-4(7-9)5(6)8(3)6/h3,5,9H,2H2,1H3/t3-,5-,6+,8?/m0/s1
