20
gdb 18597	3.25392	2.02791	1.68048	1.6034	73.69	-0.2394	0.0833	0.3227	879.3338	0.179259	-349.013868	-349.006631	-349.005686	-349.045026	28.784	
C	 0.2563562671	 1.5685258354	-0.1850682692	-0.411244
C	 0.1091985353	 0.0782221417	 0.0429192105	 0.166791
O	 0.8482379116	-0.7220149065	-0.9143720971	-0.3231
C	 1.3486147613	-1.5922663021	 0.1306097305	 0.142884
C	 2.8698098636	-1.5853784882	 0.2199995627	-0.217147
C	 3.1996052285	-0.2157934481	 0.8442530639	-0.210154
C	 2.0498661544	 0.0267943758	 1.8485654646	-0.220283
C	 0.8053207337	-0.6372248729	 1.229297137	-0.091542
H	 1.2977972441	 1.8922356009	-0.1144494037	 0.12261
H	-0.1131340203	 1.8283714233	-1.1823344693	 0.126892
H	-0.3335804167	 2.1269964719	 0.550027384	 0.114599
H	-0.958110533	-0.1885200816	-0.0006818808	 0.066946
H	 0.9078946477	-2.5933623891	 0.0580400271	 0.063479
H	 3.1903283044	-2.4002311429	 0.8819885384	 0.093481
H	 3.3364506563	-1.7450292801	-0.7563820904	 0.107075
H	 4.1840825362	-0.1889976881	 1.3192730115	 0.09298
H	 3.1940377137	 0.5502797095	 0.0630669216	 0.11307
H	 2.2774896461	-0.4719141537	 2.7978353388	 0.097171
H	 1.9010688556	 1.0865419465	 2.0772339102	 0.09838
H	 0.1260953302	-1.0460104117	 1.9787680396	 0.067111
121.2322	201.3485	203.3232	269.7413	362.5553	371.6288	491.5017	567.8275	622.0727	747.8049	823.1643	839.1445	848.2344	884.835	904.2857	910.5406	938.3749	968.4888	994.8284	1042.6515	1072.9892	1097.2325	1116.6172	1134.8255	1169.2691	1193.7434	1205.1257	1262.1175	1285.1658	1294.004	1319.949	1329.2958	1348.6389	1356.4327	1362.7633	1398.4245	1415.345	1469.799	1477.4044	1486.7393	1495.0571	1505.0314	2975.2219	3024.5583	3036.7929	3037.8144	3041.1904	3057.2063	3082.9764	3091.1381	3096.9258	3103.8649	3105.1169	3123.0494
CC1OC2CCCC12	C[C@H]1O[C@H]2CCC[C@@H]12	
InChI=1S/C7H12O/c1-5-6-3-2-4-7(6)8-5/h5-7H,2-4H2,1H3	InChI=1S/C7H12O/c1-5-6-3-2-4-7(6)8-5/h5-7H,2-4H2,1H3/t5-,6+,7+/m1/s1
