21
gdb 38954	2.80029	1.68532	1.42974	1.5321	79.44	-0.2359	0.0725	0.3084	1007.8062	0.186807	-387.095121	-387.087878	-387.086934	-387.126805	29.531	
C	 0.2214286805	 1.6231069858	 0.6520013171	-0.293708
C	 1.3233693402	 0.8154803806	 0.0216057173	-0.026829
C	 2.3056717958	 0.1189467736	 0.9600017776	-0.248055
C	 1.4534223714	-0.7537841977	 1.9140906424	-0.033718
C	 1.0987707905	-0.1708060519	 3.3074750985	-0.255928
C	-0.4479311931	-0.2133504942	 3.3798998134	-0.073556
O	-0.9066884707	-0.9645621944	 2.262069172	-0.262683
C	 0.0675913039	-0.9279687818	 1.2299073127	 0.105484
C	-0.0476583226	 0.2014433905	 0.2132395701	-0.049778
H	 0.279365617	 1.8713867101	 1.7047409896	 0.11085
H	-0.2305315728	 2.4035339924	 0.0490671811	 0.110314
H	 1.6751421939	 1.1065009622	-0.9622440695	 0.079909
H	 2.9736484202	-0.5192788444	 0.3711536495	 0.099229
H	 2.9449230715	 0.8245505792	 1.5033936773	 0.098529
H	 1.9267167562	-1.727905024	 2.0516105206	 0.079218
H	 1.5452048974	-0.7702360084	 4.1044251701	 0.104037
H	 1.47505383	 0.8486880488	 3.4299289675	 0.103631
H	-0.8151613701	-0.7122220549	 4.2828392333	 0.100679
H	-0.8757991898	 0.7985422436	 3.3655348179	 0.095121
H	-0.0185896924	-1.8841862231	 0.7020807748	 0.076039
H	-0.720132847	 0.055625168	-0.6247378132	 0.081215
110.863	131.0246	206.2176	321.0095	369.6769	471.4379	558.0326	643.4615	691.8285	733.4541	763.366	820.1485	833.667	854.2598	882.2793	917.4469	944.4074	954.9275	988.4938	990.9195	1020.6353	1058.6371	1069.5893	1084.6026	1098.3864	1109.7131	1122.9091	1140.6813	1201.6132	1218.0749	1226.7153	1244.5677	1252.9964	1292.7022	1310.3161	1326.2152	1337.6222	1358.5442	1369.8929	1400.7618	1401.4689	1487.6576	1494.2127	1507.9793	1533.4744	3003.1002	3032.1528	3042.6333	3056.4737	3061.4876	3066.3814	3079.4236	3105.0416	3139.6892	3161.5662	3172.4902	3221.6679
C1C2CC3CCOC3C12	C1[C@H]2C[C@H]3CCO[C@H]3[C@@H]12	
InChI=1S/C8H12O/c1-2-9-8-5(1)3-6-4-7(6)8/h5-8H,1-4H2	InChI=1S/C8H12O/c1-2-9-8-5(1)3-6-4-7(6)8/h5-8H,1-4H2/t5-,6-,7+,8-/m1/s1
