21
gdb 90079	3.10148	1.54678	1.39177	1.743	81.97	-0.2399	0.0825	0.3225	1036.4323	0.184946	-387.032602	-387.025293	-387.024349	-387.06383	30.845	
C	-0.2477113409	 1.5148646983	-0.1313054915	-0.400391
C	-0.0017422945	 0.0244102798	 0.0023180453	 0.04948
O	 0.9434175192	-0.5036624677	-1.0080533905	-0.370474
C	 1.9370300056	-0.6357821571	 0.0126632562	 0.456511
C	 2.9629788533	-1.6490593098	 0.5734268748	-0.310747
C	 3.1856793828	-0.4236565721	 1.5661209294	-0.027347
C	 2.9765507561	 0.4728353998	 0.320158647	-0.27953
C	 1.8243014653	-0.1618931848	 2.3072222073	-0.278001
C	 0.9115434414	-0.5758172735	 1.1248116025	-0.035906
H	 0.6655643866	 2.1033732028	-0.0286414299	 0.124142
H	-0.6828215608	 1.7325929143	-1.1117664451	 0.129379
H	-0.958283044	 1.8425771308	 0.6357231816	 0.116879
H	-0.952261911	-0.5117114765	-0.0882415436	 0.081019
H	 2.5792301769	-2.5936553027	 0.9665911253	 0.094866
H	 3.8596112946	-1.8121916706	-0.0290425999	 0.102125
H	 4.1015164526	-0.3700271071	 2.1530437458	 0.071785
H	 3.817575569	 0.4511366206	-0.3763328846	 0.098499
H	 2.6424512171	 1.4991952315	 0.48233513	 0.091105
H	 1.665519333	-0.7862627983	 3.1902815349	 0.096537
H	 1.7598700899	 0.8847304011	 2.6191798606	 0.105204
H	 0.5187706979	-1.578156099	 1.3168344344	 0.084865
179.6402	195.5006	210.9351	336.61	421.4706	428.0795	451.3404	534.9754	581.3092	616.1035	739.3603	764.8806	786.6405	820.149	850.244	872.4751	920.5059	951.9503	975.4492	981.2018	1012.795	1029.1192	1042.7473	1056.306	1080.9601	1113.9709	1127.8577	1140.5284	1173.6837	1195.7683	1203.774	1226.4991	1258.6007	1262.5343	1275.3832	1301.9263	1320.4769	1381.7588	1394.4811	1418.1061	1482.5559	1485.9818	1495.1584	1498.8381	1527.6823	3037.5032	3042.8316	3055.0331	3058.1915	3061.7583	3071.548	3101.7768	3104.3046	3123.4226	3127.1587	3130.1856	3141.7885
CC1OC23CC(C2)CC13	C[C@H]1O[C@@]23C[C@@H](C2)C[C@@H]13	
InChI=1S/C8H12O/c1-5-7-2-6-3-8(7,4-6)9-5/h5-7H,2-4H2,1H3	InChI=1S/C8H12O/c1-5-7-2-6-3-8(7,4-6)9-5/h5-7H,2-4H2,1H3/t5-,6-,7+,8-/m1/s1
