16
gdb 124001	3.72139	1.59324	1.14324	2.8504	79.02	-0.1937	-0.0205	0.1732	1013.4038	0.129193	-396.949835	-396.9431	-396.942156	-396.980805	27.001	
C	-0.0208196985	 1.5052193868	-0.0165739519	-0.233088
N	 1.2993949119	 2.1636011783	-0.0469305619	-0.415637
C	 2.2390117559	 1.4471173905	-0.8169905794	 0.165205
C	 2.0893515882	 0.0935355077	-1.0919438243	 0.348926
N	 3.1692745901	-0.2533239216	-1.8410789389	-0.317911
N	 4.0069570409	 0.7785040789	-2.064166508	-0.226763
C	 3.4484231062	 1.8166101162	-1.4357614895	-0.096223
C	 1.0249829859	-0.6906299659	-0.5144565223	-0.161947
C	 0.0232858467	-0.0112101931	 0.0679870355	-0.098053
H	-0.5889355228	 1.9249118731	 0.8180011938	 0.110192
H	-0.560510938	 1.7920452713	-0.9337715203	 0.121325
H	 1.6441259778	 2.3525665417	 0.8887786028	 0.230821
H	 3.3666763073	-1.1388172905	-2.2754694627	 0.269296
H	 3.9353560514	 2.7802663245	-1.4526593563	 0.110163
H	 1.073723944	-1.7746642962	-0.5035773428	 0.09533
H	-0.786247217	-0.5268913819	 0.5743507962	 0.098363
142.0593	183.8575	307.5759	398.5584	436.9804	469.7752	514.204	592.5148	621.1395	682.2388	697.5875	739.0088	783.9512	836.4441	880.5456	910.4929	961.5817	965.6743	1011.8461	1064.3172	1122.1476	1172.1541	1205.7916	1248.5211	1280.1743	1297.4404	1359.731	1383.071	1404.9872	1439.5808	1463.5	1477.29	1550.5912	1598.2383	1664.2932	2968.5255	3087.2322	3170.9726	3191.7741	3248.9561	3504.4668	3669.4828
C1NC2=C(NN=C2)C=C1	C1Nc2c([nH]nc2)C=C1	
InChI=1S/C6H7N3/c1-2-5-6(7-3-1)4-8-9-5/h1-2,4,7H,3H2,(H,8,9)	InChI=1S/C6H7N3/c1-2-5-6(7-3-1)4-8-9-5/h1-2,4,7H,3H2,(H,8,9)
