18
gdb 90652	3.41835	1.15973	1.06273	3.6226	73.24	-0.2471	-0.025	0.2221	1169.1754	0.146005	-439.041698	-439.032901	-439.031957	-439.074976	32.933	
C	-0.041699708	 1.6453332256	 0.1052517689	-0.509578
C	 0.0270792957	 0.1397135393	-0.0232567304	 0.206263
C	-1.0926167725	-0.6010558124	 0.6585435136	 0.144103
O	-2.0814266689	-0.0799714773	 1.1062016834	-0.267082
C	 0.5476743715	-0.6237934356	-1.1973595222	-0.123435
C	 1.7577545191	 0.0337573313	-1.8748822786	 0.097072
O	 1.629685159	 1.2632707254	-2.547580225	-0.416924
C	 2.3963591306	 0.109489081	-0.4736938366	-0.191344
N	 1.2647468282	-0.6795841252	 0.1378039296	-0.174443
H	 0.5220164939	 2.1606645751	-0.6690989569	 0.15228
H	-1.0908625456	 1.9433814915	 0.0381050033	 0.145142
H	 0.3186590023	 1.9586981125	 1.0911853933	 0.128538
H	-0.9251784905	-1.6983684348	 0.7184743163	 0.087279
H	 0.0228569018	-1.4906335998	-1.5921097488	 0.094326
H	 2.2729155802	-0.7055707264	-2.5020157946	 0.092134
H	 1.1808380566	 1.1131557762	-3.3861559794	 0.288578
H	 3.3294828575	-0.446562254	-0.3743079071	 0.121326
H	 2.5246212492	 1.1127277077	-0.0627945489	 0.125762
90.9622	142.7275	180.5121	212.1172	239.4826	270.5055	321.6351	377.5015	398.6016	432.9594	524.6318	611.7079	710.5871	739.5487	786.8667	855.7018	910.6148	960.9458	983.5514	1005.9691	1022.3	1036.8681	1072.7697	1110.5177	1135.8856	1168.2727	1215.4985	1235.9857	1290.9618	1309.0163	1322.4251	1384.7299	1408.164	1426.9346	1429.786	1492.1205	1497.1942	1513.2274	1829.0358	2902.6057	3015.5248	3049.5771	3081.6549	3116.8703	3135.4333	3137.8133	3177.0427	3813.4132
CC1(C=O)C2C(O)CN12	C[C@@]1(C=O)[C@H]2[C@@H](O)CN12	
InChI=1S/C6H9NO2/c1-6(3-8)5-4(9)2-7(5)6/h3-5,9H,2H2,1H3	InChI=1S/C6H9NO2/c1-6(3-8)5-4(9)2-7(5)6/h3-5,9H,2H2,1H3/t4-,5+,6+,7?/m0/s1
