20
gdb 55742	3.96785	1.05923	0.97255	3.3024	80.89	-0.2412	0.0312	0.2723	1294.2992	0.170925	-403.138757	-403.129808	-403.128864	-403.173843	33.134	
C	 0.0217134937	 1.4838779358	-0.093823584	-0.494064
C	 0.0117126679	-0.0288667903	 0.0728694037	 0.384268
O	 0.0519064588	-0.5685569913	 1.1630637845	-0.368988
N	-0.0209866624	-0.742000463	-1.0955924374	-0.475238
C	 0.0144621178	-2.168754245	-1.1252550567	 0.456876
C	-1.0155701573	-3.1616481722	-0.5037420106	-0.244559
C	 0.0540477178	-4.0339995844	-1.2208492129	-0.040878
C	-0.020546557	-3.02963399	-2.4116284734	-0.289525
C	 1.1395656558	-3.1115861358	-0.5960529128	-0.246239
H	 1.0523612014	 1.8469137534	-0.0218793982	 0.149734
H	-0.3947409804	 1.8171544989	-1.0485068132	 0.114163
H	-0.5450041069	 1.9287099191	 0.7255335112	 0.152477
H	-0.0453702275	-0.2503783932	-1.9736948033	 0.243087
H	-1.0430992361	-3.200510013	 0.5854786271	 0.11613
H	-2.0177124126	-3.1568550777	-0.9422894193	 0.084398
H	 0.076729204	-5.1193957604	-1.2893500192	 0.078664
H	-0.9522409735	-3.0166688453	-2.9854541118	 0.090384
H	 0.8572780036	-2.9747398727	-3.0628194659	 0.089778
H	 2.0993229315	-3.0616518072	-1.1186745913	 0.083867
H	 1.2620625114	-3.1477752454	 0.4867725637	 0.115666
40.2405	48.0812	87.8236	134.9775	333.7654	344.6443	349.8732	399.6768	545.2625	549.3625	563.8578	633.0907	737.3446	787.1177	801.2534	897.513	924.2216	948.9839	964.5882	968.3251	986.321	989.1207	1017.3423	1050.327	1100.0104	1106.033	1130.9742	1141.71	1166.5274	1173.3678	1223.3928	1229.4872	1238.2025	1268.379	1319.2356	1393.5811	1467.6334	1487.4169	1498.2311	1498.9181	1513.3176	1558.4614	1779.9234	3039.7559	3046.1625	3054.7936	3060.4389	3105.3933	3113.0671	3138.2956	3138.8802	3143.6592	3146.9521	3641.9982
CC(=O)NC12CC(C1)C2	CC(=O)N[C@@]12C[C@@H](C1)C2	
InChI=1S/C7H11NO/c1-5(9)8-7-2-6(3-7)4-7/h6H,2-4H2,1H3,(H,8,9)	InChI=1S/C7H11NO/c1-5(9)8-7-2-6(3-7)4-7/h6H,2-4H2,1H3,(H,8,9)/t6-,7-
