13
gdb 49057	2.21365	1.86366	1.33829	4.4577	58.73	-0.2694	-0.0666	0.2028	947.186	0.087565	-493.688163	-493.680628	-493.679684	-493.721054	26.475	
O	-0.3258295059	 0.3104915438	-0.4090475434	-0.234813
C	 0.1041841518	 1.1498524478	 0.336916601	 0.073778
C	 1.3732928885	 1.905964155	 0.0560753356	 0.14882
O	 1.6561917937	 2.9870042866	 0.9596476487	-0.319622
C	 1.9199756895	 3.9021408316	-0.1417726036	-0.110003
C	 1.7064353312	 2.785480312	-1.1697573365	 0.0257
O	 2.913087584	 2.0144223703	-1.4227091928	-0.250966
C	 2.6680529678	 1.1529104438	-0.3727106909	 0.451447
O	 3.3121233432	 0.2283624896	-0.0155124575	-0.302707
H	-0.4003977171	 1.4449246691	 1.2810461273	 0.109543
H	 1.1711674246	 4.7002738459	-0.171024076	 0.131729
H	 2.9293296853	 4.3210854246	-0.1115691253	 0.140899
H	 1.1041832135	 2.9171257898	-2.0641403666	 0.136196
56.4337	136.909	157.7599	200.8285	262.4103	380.7806	479.5993	525.8901	665.8443	714.7698	765.8772	818.8897	854.0559	911.2428	977.802	986.6979	1057.067	1072.9676	1081.505	1122.4966	1158.1843	1182.3869	1279.7971	1319.1957	1340.655	1395.005	1499.9237	1824.4291	1955.3945	2920.1798	3049.5531	3113.5734	3168.378
O=CC12OCC1OC2=O	O=C[C@]12OC[C@H]1OC2=O	
InChI=1S/C5H4O4/c6-2-5-3(1-8-5)9-4(5)7/h2-3H,1H2	InChI=1S/C5H4O4/c6-2-5-3(1-8-5)9-4(5)7/h2-3H,1H2/t3-,5+/m1/s1
