13
gdb 5161	7.60172	1.26826	1.113	2.997	63.53	-0.2204	0.0022	0.2226	1003.8999	0.095972	-398.6149	-398.608018	-398.607074	-398.646971	24.489	
N	 0.0523651354	 1.2134510775	 0.2755188742	-0.420103
C	-0.0542097502	 0.0040723953	-0.0469524899	 0.11142
O	-1.074846534	-0.7302754299	 0.4967463828	-0.21176
C	-1.1133334299	-2.0532301226	 0.2401436558	 0.435416
C	-2.1547875599	-2.8670987803	-0.0618007157	-0.301277
C	-1.5928415609	-4.1877795445	-0.1281433268	-0.161235
C	-0.2686169263	-4.0618879041	 0.1315142628	-0.017524
O	 0.0438032715	-2.7478465662	 0.3695383853	-0.178418
H	 0.8380310183	 1.6371426235	-0.2138546102	 0.24001
H	 0.5732682243	-0.5752290331	-0.7296094445	 0.119728
H	-3.1766335778	-2.5645900259	-0.2171148789	 0.124674
H	-2.1168685129	-5.1048846001	-0.3464715209	 0.118624
H	 0.5576060527	-4.7498020595	 0.1836009058	 0.140447
52.2907	93.5986	159.0623	343.4234	455.2961	483.2623	612.7385	661.9263	721.4727	786.0207	802.321	828.3772	850.5632	897.027	953.9243	1028.3654	1042.1698	1042.913	1097.6796	1181.224	1240.5615	1264.307	1287.4084	1404.4759	1425.0767	1552.5583	1652.9762	1756.4867	3091.7394	3258.9269	3279.4422	3296.4974	3522.866
N=COC1=CC=CO1	[NH][CH]Oc1ccco1	
InChI=1S/C5H5NO2/c6-4-8-5-2-1-3-7-5/h1-4,6H	InChI=1S/C5H5NO2/c6-4-8-5-2-1-3-7-5/h1-4,6H
