15
gdb 24264	4.05417	1.6351	1.27777	2.1081	70.36	-0.1898	0.0044	0.1942	937.6482	0.116372	-416.801063	-416.794878	-416.793934	-416.831517	25.217	
C	-0.0038652059	 1.4735635288	 0.1166548837	-0.300216
C	 1.3050342837	 0.7203543312	 0.0189992828	 0.003032
N	 2.0667122838	 0.3216036429	 1.2079825547	-0.407431
C	 1.1647569818	-0.4597165908	 1.9474219963	 0.274561
C	 0.0423597525	-0.7552759524	 1.2630176239	 0.294701
O	-0.72527876	-1.571871569	 2.0428708506	-0.195615
C	 0.0230036443	-1.7015186219	 3.1764493915	 0.035929
N	 1.1568042908	-1.0570491501	 3.1856761901	-0.346278
C	-0.0402193396	-0.041182083	-0.0197717228	-0.203977
H	-0.3052261561	 1.9027866503	 1.0657893232	 0.120224
H	-0.2765951315	 2.0553011629	-0.7574524658	 0.118706
H	 1.899108747	 0.8405202415	-0.8794062528	 0.105916
H	 2.5075652506	 1.0862512015	 1.7047124302	 0.244581
H	-0.3845501903	-2.3362066911	 3.9466755929	 0.147431
H	-0.4099592012	-0.5022133209	-0.9279797287	 0.108436
136.4764	271.7581	365.1408	421.9071	455.8731	586.2555	631.066	652.79	702.2816	757.6128	775.4551	786.8945	809.9915	834.2539	933.2882	949.0815	974.1212	1037.884	1056.4857	1086.9486	1101.939	1132.356	1150.7285	1187.3026	1245.119	1304.7245	1317.1745	1352.9942	1413.3857	1451.8042	1469.7778	1509.791	1669.5895	3131.2215	3172.7592	3179.8372	3223.4186	3283.0816	3558.622
C1C2NC3=C(OC=N3)C12	C1[C@H]2Nc3c(ocn3)[C@@H]12	
InChI=1S/C6H6N2O/c1-3-4(1)8-6-5(3)9-2-7-6/h2-4,8H,1H2	InChI=1S/C6H6N2O/c1-3-4(1)8-6-5(3)9-2-7-6/h2-4,8H,1H2/t3-,4+/m0/s1
