15
gdb 125697	4.55882	1.04359	0.8537	0.8648	70.7	-0.2648	-0.0484	0.2164	1292.7271	0.112317	-453.985994	-453.977392	-453.976448	-454.019692	30.668	
C	-0.0199775543	 1.4940354991	-0.0570426363	-0.49462
C	-0.0115901883	 0.0019835005	 0.0290620291	 0.390367
N	-0.0614255588	-0.7216805304	-1.0687197385	-0.193216
O	-0.0377129417	-2.0495266995	-0.6533078761	-0.235681
C	 0.024979473	-2.0864429118	 0.6927343235	 0.376074
C	 0.0449039464	-0.8234157236	 1.1893552556	-0.400234
C	 0.0612746738	-3.4033906272	 1.3831364519	 0.317066
N	 0.0233136522	-4.4780703804	 0.5517779373	-0.538414
O	 0.1179967241	-3.4711830567	 2.5963593715	-0.355305
H	 0.8788289239	 1.9156486703	 0.4039070629	 0.143747
H	-0.0602879435	 1.8099003485	-1.1009401528	 0.152986
H	-0.8850750299	 1.9094017767	 0.4695674104	 0.143975
H	 0.0927676112	-0.5352393849	 2.2255820091	 0.143896
H	-0.0212152901	-4.3711605924	-0.4471305234	 0.279659
H	 0.0467473721	-5.3983558582	 0.9575062059	 0.269699
69.7112	123.6136	141.7544	160.6046	215.1901	316.0278	323.7964	390.1548	503.9052	547.0452	631.3278	650.2189	667.345	715.9747	789.3218	867.7546	946.1307	979.6196	1010.3617	1045.7742	1067.5285	1091.0876	1111.132	1263.3923	1355.7526	1405.378	1444.8603	1477.4723	1481.8343	1521.5368	1609.537	1652.1088	1791.4993	3045.8106	3103.6004	3142.5544	3289.5778	3606.4513	3744.6522
CC1=NOC(=C1)C(N)=O	Cc1noc(c1)C(=O)N	
InChI=1S/C5H6N2O2/c1-3-2-4(5(6)8)9-7-3/h2H,1H3,(H2,6,8)	InChI=1S/C5H6N2O2/c1-3-2-4(5(6)8)9-7-3/h2H,1H3,(H2,6,8)
