17
gdb 33424	2.57621	1.04453	0.81299	4.9342	79.59	-0.2536	0.0157	0.2694	1405.4016	0.134364	-380.806996	-380.797776	-380.796832	-380.841774	33.074	
C	 0.0474284831	-1.1908340808	 0.0093659303	-0.420001
C	 0.0487165182	 0.009211143	 0.0009176552	 0.320414
C	 0.0960120766	 1.471421784	-0.0017462537	-0.334334
C	 1.5393573063	 1.9872417865	-0.2545445243	-0.146435
N	 1.5806162972	 3.4284777853	-0.1115959873	-0.055098
C	 1.9176006819	 3.9478746201	 1.212980925	-0.227672
C	 2.896733914	 4.0201751444	 0.0934373986	-0.222655
C	-0.8470184268	 2.0288071679	-0.9857233093	 0.311057
N	-1.5937910689	 2.4523799925	-1.7576805336	-0.322211
H	 0.0309242553	-2.2530265509	 0.0140021082	 0.209827
H	-0.2148938767	 1.8406890329	 0.9852792541	 0.158339
H	 2.2072251329	 1.4572457604	 0.4453221613	 0.103035
H	 1.8390733243	 1.7199568699	-1.2721545091	 0.135989
H	 1.3692402745	 4.8309685127	 1.5258129927	 0.129965
H	 2.1249558354	 3.2306032939	 2.0063989196	 0.113667
H	 3.7546518253	 3.3513330227	 0.1424584855	 0.116201
H	 3.0763159074	 4.9564681754	-0.426047963	 0.12991
66.3013	80.658	117.9788	129.3471	207.9362	262.4116	357.1755	363.1233	424.4651	475.2345	575.6045	589.9497	650.774	670.5818	773.7271	819.0183	849.0807	901.2873	996.7158	1021.0349	1044.6938	1062.9825	1078.6232	1113.8772	1123.1289	1172.0587	1186.3991	1250.3235	1284.4278	1329.073	1336.5786	1383.5324	1487.695	1496.9892	1523.5273	2249.3822	2369.1143	2963.7293	3021.3693	3088.4311	3094.4552	3100.4982	3184.4417	3198.0038	3503.0434
C#CC(CN1CC1)C#N	C#C[C@@H](CN1CC1)C#N	
InChI=1S/C7H8N2/c1-2-7(5-8)6-9-3-4-9/h1,7H,3-4,6H2	InChI=1S/C7H8N2/c1-2-7(5-8)6-9-3-4-9/h1,7H,3-4,6H2/t7-/m1/s1
