21
gdb 49552	3.20322	1.16367	1.1087	3.2146	82.54	-0.2407	-0.0174	0.2233	1203.0241	0.184963	-387.101819	-387.093861	-387.092917	-387.134547	31.223	
O	 0.0682047108	-0.0477784906	-0.1636462247	-0.26347
C	 0.0588070284	 1.1427375649	 0.0322026198	 0.135342
C	 1.2824748294	 2.0089699871	 0.0372872755	-0.055524
C	 1.1521937628	 3.321818189	-0.8118161258	-0.022328
C	 0.5817812865	 4.019735631	 0.4551276989	-0.245392
C	 1.3900055141	 2.9719489779	 1.2715679946	-0.022145
C	 2.8603819924	 3.4007839423	 1.411161485	-0.210794
C	 3.3184301045	 4.2168867761	 0.1758449774	-0.198672
C	 2.5708899704	 3.8269200601	-1.1244790227	-0.210799
H	-0.9027668444	 1.6726940861	 0.226502198	 0.067262
H	 2.1510760792	 1.3763587809	-0.1677344267	 0.076924
H	 0.5281370298	 3.2800697744	-1.7081593119	 0.07037
H	 0.8042941004	 5.0790833367	 0.6075976468	 0.096118
H	-0.495903978	 3.8740682225	 0.5537435527	 0.104936
H	 0.9766308821	 2.6202015594	 2.2202379132	 0.070484
H	 2.9924615208	 4.0061472214	 2.3152034689	 0.096825
H	 3.4776405966	 2.5043118814	 1.5436698284	 0.103855
H	 3.1265317062	 5.2757588713	 0.3757683822	 0.107402
H	 4.4003763254	 4.1335240093	 0.0383124023	 0.098973
H	 3.1106631476	 3.0446513419	-1.6712317165	 0.103811
H	 2.523527125	 4.696112947	-1.7903979654	 0.096824
65.9976	143.6714	222.1692	227.8328	299.0968	362.2899	413.7162	493.511	495.9165	596.6568	763.7385	810.6917	817.0786	841.9562	884.6723	913.6969	914.2349	935.635	948.0958	1012.5064	1032.6337	1055.6863	1084.4525	1102.8028	1109.061	1143.7814	1149.1759	1177.4605	1232.973	1236.4773	1255.2727	1264.912	1271.0364	1313.3608	1323.0034	1338.9091	1352.9889	1376.5568	1384.4175	1439.3511	1488.0661	1490.0977	1499.6594	1519.3306	1819.4015	2855.0118	3027.4925	3027.8098	3044.6624	3061.0445	3062.4871	3063.4608	3069.3436	3072.2978	3075.8449	3091.4581	3114.4627
O=CC1C2CC1CCC2	O=C[C@H]1[C@H]2C[C@@H]1CCC2	
InChI=1S/C8H12O/c9-5-8-6-2-1-3-7(8)4-6/h5-8H,1-4H2	InChI=1S/C8H12O/c9-5-8-6-2-1-3-7(8)4-6/h5-8H,1-4H2/t6-,7+,8+
