18
gdb 62080	2.84112	0.95821	0.77682	1.7393	71.35	-0.2659	-0.033	0.2329	1447.7864	0.14463	-476.234134	-476.224053	-476.223109	-476.270663	34.897	
C	-0.0870737538	 1.2457406257	-1.1759228431	-0.489071
C	-0.02419709	-0.0370169512	-0.3930858558	 0.36752
O	 0.2285532177	-0.0795491358	 0.7938134715	-0.319076
C	-0.2704384691	-1.3727748099	-1.1158913907	 0.021422
O	 0.0368940931	-2.4348442637	-0.2579476787	-0.429552
C	-1.7434571684	-1.5375808675	-1.5567250418	-0.124569
O	-2.1215265877	-0.6318401657	-2.5857383735	-0.17847
C	-2.0037497485	-1.0566200966	-3.8632231483	 0.127823
N	-2.1348671626	-0.2363728286	-4.810913262	-0.43926
H	 0.719673555	 1.2564619045	-1.918636805	 0.150882
H	-1.0227021776	 1.3098403625	-1.7381737173	 0.183378
H	 0.0266223653	 2.0970198936	-0.5039900502	 0.144993
H	 0.363890461	-1.4054368685	-2.0165080347	 0.093109
H	 0.2234818449	-2.0125573856	 0.5991256451	 0.296843
H	-1.8755463156	-2.5774589783	-1.8773866915	 0.130487
H	-2.4095080357	-1.3551568505	-0.7092130419	 0.132735
H	-1.813826504	-2.1360611047	-3.9445759244	 0.096229
H	-2.0545559241	-0.7178746698	-5.7039345275	 0.234578
44.173	51.2832	87.5227	126.4317	145.5353	212.7337	299.1586	319.0949	354.9719	383.6251	443.3786	521.6675	610.4337	623.6865	672.0062	754.9565	824.4952	945.5466	984.7438	989.1906	1032.2921	1044.0264	1103.5635	1133.5277	1141.1085	1210.1908	1225.5078	1290.216	1326.5479	1333.1064	1388.258	1396.0595	1417.9434	1444.6758	1467.2697	1471.4323	1498.7462	1746.0364	1792.6259	2981.0966	3021.7716	3041.6225	3043.7829	3107.3611	3111.9027	3160.7583	3522.2951	3636.95
CC(=O)C(O)COC=N	CC(=O)[C@@H](O)CO[CH][NH]	
InChI=1S/C5H9NO3/c1-4(7)5(8)2-9-3-6/h3,5-6,8H,2H2,1H3	InChI=1S/C5H9NO3/c1-4(7)5(8)2-9-3-6/h3,5-6,8H,2H2,1H3/t5-/m0/s1
