17
gdb 17866	4.29069	1.76159	1.54464	2.3368	68.99	-0.2364	0.0582	0.2946	861.3346	0.142121	-363.746264	-363.739084	-363.738139	-363.777529	27.781	
O	 0.2207161035	 1.3625707395	-0.0670494112	-0.427879
C	 0.0447254476	-0.0255434506	-0.0137997011	 0.016491
C	-0.4151287412	-0.7462078693	 1.2571512221	-0.439676
C	-1.2879541675	-0.6618852708	 0.0453003331	 0.393474
C	-2.7232591752	-0.1887405894	-0.2149658917	-0.160048
C	-2.4467811635	-0.6831386214	-1.6533500201	-0.166929
N	-1.8164261323	-1.8100076102	-0.8044070751	-0.184194
C	-3.0834073788	-1.6657394008	 0.0673162563	-0.164391
H	-0.5688777558	 1.7854376949	 0.2854181371	 0.285179
H	 0.8185660378	-0.5178279094	-0.5947257111	 0.120019
H	 0.0585620032	-1.6917140637	 1.5032477788	 0.126636
H	-0.6775352093	-0.1328119617	 2.1154903806	 0.112549
H	-3.2269334695	 0.7239490592	 0.1240679026	 0.064599
H	-3.2990494637	-1.0212477099	-2.2489275493	 0.100569
H	-1.7198686717	-0.1345021223	-2.2555767071	 0.115128
H	-2.9552108119	-2.0415656151	 1.0845192938	 0.108232
H	-3.9807638617	-2.072000809	-0.4073799776	 0.10024
132.7135	151.1952	169.7067	248.7165	385.8598	429.3236	524.3579	620.6361	651.1267	759.3643	782.8094	805.9967	834.6147	898.2439	919.801	963.1653	987.1028	1007.6153	1036.0958	1059.9218	1085.3087	1092.4419	1109.2529	1134.5068	1157.432	1168.2583	1197.6238	1218.9021	1228.1153	1267.9503	1310.0808	1365.064	1425.4641	1498.3637	1504.0639	1542.9393	3030.3643	3055.5442	3063.0277	3113.3745	3128.4335	3132.0632	3164.0798	3203.3374	3819.6833
OC1CC11C2CN1C2	O[C@H]1C[C@]21[C@H]1CN2C1	
InChI=1S/C6H9NO/c8-5-1-6(5)4-2-7(6)3-4/h4-5,8H,1-3H2	InChI=1S/C6H9NO/c8-5-1-6(5)4-2-7(6)3-4/h4-5,8H,1-3H2/t5-,6+/m0/s1
