17
gdb 57026	2.46414	1.34263	0.91322	5.7168	73.6	-0.2624	-0.0413	0.2211	1242.5297	0.135068	-418.013752	-418.004737	-418.003793	-418.048167	32.256	
C	-0.001170894	 1.4900332473	-0.1368702513	-0.403017
C	 0.0308047964	-0.0347745524	 0.0790058431	-0.134694
C	 0.7628075816	-0.3749230877	 1.3024518095	 0.279134
N	 1.3345771008	-0.6103068339	 2.2786282434	-0.318641
C	-1.3938417959	-0.6232483727	 0.1285611485	-0.098862
N	-2.1765712242	-0.4231441019	-1.1181970455	-0.330183
C	-2.5543775183	-1.8599643804	-1.2171004084	-0.284763
C	-1.5549796425	-2.1457079529	-0.0852691506	 0.386908
O	-1.0651777655	-3.1194015532	 0.3949457481	-0.265011
H	 1.0115387482	 1.8903556236	-0.2232373656	 0.141481
H	-0.5467766871	 1.706371205	-1.05823727	 0.141254
H	-0.4974165099	 1.9920051054	 0.6989369736	 0.133081
H	 0.5534993847	-0.4981525086	-0.7663092594	 0.132371
H	-1.8975717714	-0.2925449828	 1.048546502	 0.112812
H	-2.9638006402	 0.2053949827	-1.0166789911	 0.233186
H	-3.585892919	-2.1025998678	-0.9281426651	 0.132541
H	-2.3412080335	-2.3238310099	-2.1856961511	 0.142404
54.0426	97.6752	125.7488	188.5308	220.0124	250.1891	293.1898	365.4646	456.3052	514.6497	540.1133	586.5222	664.5772	742.2474	827.0054	867.7464	938.4788	982.8678	1010.0819	1022.0921	1059.7606	1083.3761	1097.7477	1121.0091	1159.3085	1219.0717	1258.6138	1298.6248	1324.8041	1362.3383	1373.6244	1405.0473	1476.6679	1495.0457	1501.5353	1922.8878	2359.905	3004.4914	3020.0499	3044.6035	3050.6115	3078.816	3126.4523	3138.0229	3557.9762
CC(C#N)C1NCC1=O	C[C@@H](C#N)[C@H]1NCC1=O	
InChI=1S/C6H8N2O/c1-4(2-7)6-5(9)3-8-6/h4,6,8H,3H2,1H3	InChI=1S/C6H8N2O/c1-4(2-7)6-5(9)3-8-6/h4,6,8H,3H2,1H3/t4-,6+/m0/s1
