18
gdb 75314	2.38148	1.70276	1.18467	1.7547	84.66	-0.2214	0.0114	0.2328	1087.7512	0.146654	-364.764031	-364.755631	-364.754687	-364.796593	32.71	
C	 0.0343902881	 1.4963446029	 0.0508525808	-0.503389
C	 0.0123980397	 0.0040398502	-0.0067070957	 0.277178
C	-0.0203733372	-0.7965274515	-1.0733086615	-0.204168
C	-0.0739349988	-2.2514781181	-0.6735088256	-0.212493
N	 0.0067564629	-2.2742012947	 0.8055859233	-0.140034
C	 1.2457496215	-1.7309070768	 1.3506893512	-0.262613
C	 0.0390358671	-0.8429139136	 1.2407323664	 0.081101
C	-0.7062063226	-0.4342148688	 2.3987829846	 0.204777
C	-1.3150082316	-0.0496476525	 3.3619436836	-0.395868
H	 0.9517242976	 1.8619512107	 0.5287508716	 0.130823
H	-0.0319232509	 1.9345516086	-0.9478241213	 0.125176
H	-0.8005974498	 1.8724528	 0.6527800563	 0.143362
H	 0.0026880278	-0.4657825516	-2.1055886382	 0.097616
H	-1.011615614	-2.7304034644	-0.9849102523	 0.118852
H	 0.7436601236	-2.8478037972	-1.0987666521	 0.114381
H	 1.5241025492	-2.1357941191	 2.3196791211	 0.123682
H	 2.0713531075	-1.5108422458	 0.6762631085	 0.111925
H	-1.85920421	 0.2729649418	 4.2147763695	 0.189693
123.0017	137.7286	177.2293	213.6183	287.3551	311.5491	386.5264	491.7944	509.3057	558.5816	597.0722	621.2065	623.2507	657.1003	749.2412	796.1168	812.5164	847.1618	925.1824	957.7069	1006.7742	1029.639	1054.1719	1069.7607	1119.1071	1135.561	1152.275	1217.3822	1241.2748	1314.7307	1332.7421	1337.9208	1414.8727	1476.1334	1483.5562	1488.7113	1498.0845	1716.9359	2237.1618	3013.3947	3026.5945	3043.7957	3077.8409	3093.5566	3121.2576	3189.9454	3195.3712	3501.8713
CC1=CCN2CC12C#C	CC1=CCN2C[C@@]12C#C	
InChI=1S/C8H9N/c1-3-8-6-9(8)5-4-7(8)2/h1,4H,5-6H2,2H3	InChI=1S/C8H9N/c1-3-8-6-9(8)5-4-7(8)2/h1,4H,5-6H2,2H3/t8-,9?/m0/s1
