23
gdb 59082	2.02432	1.21866	0.88699	3.4357	87.6	-0.2408	-0.0161	0.2246	1421.5501	0.203272	-388.299903	-388.289257	-388.288313	-388.335631	38.944	
C	-0.7864636526	 1.9214208679	 2.2429735458	-0.389688
C	-1.0212457922	 0.4996549582	 1.708673354	 0.008482
C	-1.2240593145	 0.5071448995	 0.1863089404	-0.389213
C	 0.1458922833	-0.3986362882	 2.0936624446	-0.006073
C	 0.2704067132	-1.1171575086	 3.3997627202	-0.047043
C	-0.7604622942	-1.0491002775	 4.5091568212	-0.415929
C	 0.0604595973	-1.9324802093	 2.1150135151	-0.150335
C	-1.2069154961	-2.6425641013	 1.8469884181	 0.163639
O	-1.2742832617	-3.6951311822	 1.2552037519	-0.280192
H	 0.1267346716	 2.3527685395	 1.8159335258	 0.114309
H	-1.6193896773	 2.5811578967	 1.9793348647	 0.11351
H	-0.6799832916	 1.9279489188	 3.3320317729	 0.116315
H	-1.9418811898	 0.1213426146	 2.1672308696	 0.074486
H	-0.3290489036	 0.8819133732	-0.3242253383	 0.11405
H	-1.428020468	-0.4974299474	-0.1967403347	 0.12653
H	-2.0617570675	 1.1537208953	-0.0942399149	 0.112656
H	 1.086956345	-0.0443536252	 1.6752615377	 0.092186
H	 1.28602447	-1.2021733516	 3.7783991065	 0.097951
H	-1.7794122914	-0.9088331452	 4.1429343151	 0.124691
H	-0.7483237492	-1.9659240168	 5.1075953227	 0.128357
H	-0.5361371821	-0.2128918544	 5.1800451111	 0.124549
H	 0.9204877091	-2.4734057589	 1.7337049057	 0.101775
H	-2.1305974077	-2.1536327972	 2.2264562147	 0.064986
59.9626	82.6738	131.0892	186.4292	196.4603	225.1966	226.6433	252.1326	272.0241	330.1077	391.9123	424.8861	444.902	521.6256	585.5463	742.5558	790.7415	873.8671	908.166	932.1719	956.2297	963.2704	975.9623	1012.247	1052.3063	1057.2127	1105.3496	1136.292	1157.1612	1188.0042	1189.3639	1203.6634	1262.7526	1312.6043	1339.4706	1340.8147	1396.6315	1401.5817	1420.3597	1422.7243	1436.3722	1459.8056	1486.4765	1491.0733	1495.7285	1503.5617	1506.2592	1512.639	1802.6243	2884.5892	3026.6125	3029.739	3035.7537	3040.5787	3091.8402	3095.5735	3097.8835	3106.0898	3108.0821	3113.7036	3120.3551	3139.696	3168.1443
CC(C)C1C(C)C1C=O	CC(C)[C@H]1[C@@H](C)[C@H]1C=O	
InChI=1S/C8H14O/c1-5(2)8-6(3)7(8)4-9/h4-8H,1-3H3	InChI=1S/C8H14O/c1-5(2)8-6(3)7(8)4-9/h4-8H,1-3H3/t6-,7+,8-/m0/s1
