19
gdb 73113	2.65587	1.47838	1.24583	3.366	74.56	-0.2401	-0.0187	0.2213	1080.1229	0.158983	-423.046953	-423.038776	-423.037832	-423.079967	31.391	
C	-0.2737514613	 1.5479687624	 0.0775378932	-0.484413
C	 0.0304137358	 0.0628549869	-0.0318640482	 0.271463
C	-1.1120932759	-0.911611209	 0.3422742107	-0.111107
O	-0.2900968756	-1.5907636865	 1.3135895379	-0.295232
C	 0.7837799029	-0.6372228092	 1.1537804374	 0.091165
C	 2.0456053678	-1.2936824682	 0.6239107889	-0.338662
C	 1.8105005598	-1.417553947	-0.8868666218	 0.392032
O	 2.3379958478	-2.2049175892	-1.6254829036	-0.300292
C	 0.7942914293	-0.341792762	-1.3021892098	-0.390735
H	 0.6437541045	 2.1444415021	 0.0195151618	 0.11845
H	-0.9321955767	 1.87770929	-0.7342514597	 0.12411
H	-0.7686552304	 1.7833688261	 1.0255456644	 0.121863
H	-1.9819413165	-0.4303594029	 0.8090429962	 0.09815
H	-1.4601854308	-1.5895887733	-0.4466355253	 0.106263
H	 0.9315802389	-0.0410411552	 2.0615952728	 0.072632
H	 2.9229704321	-0.6515488535	 0.7824344701	 0.124432
H	 2.2514153247	-2.2644740477	 1.0796006327	 0.142495
H	 0.1605828312	-0.7058495322	-2.1150705698	 0.130499
H	 1.3675985126	 0.5063495087	-1.7002573878	 0.126888
69.7924	89.1206	219.6168	246.6336	317.7683	354.6624	392.6012	442.2447	478.1701	564.4746	629.9219	678.7891	771.7735	794.9415	860.7261	884.6114	898.2332	948.1263	985.0937	1009.4788	1029.1034	1044.1916	1098.9657	1128.1101	1158.6355	1164.3306	1191.99	1231.2634	1249.8632	1273.973	1291.1482	1302.423	1361.748	1371.9465	1414.8305	1432.1313	1451.3132	1492.9935	1496.003	1526.4583	1853.2195	3003.7811	3023.2731	3026.2074	3028.3733	3042.7216	3052.2627	3089.6928	3097.4136	3100.5698	3119.5856
CC12COC1CC(=O)C2	C[C@]12CO[C@H]1CC(=O)C2	
InChI=1S/C7H10O2/c1-7-3-5(8)2-6(7)9-4-7/h6H,2-4H2,1H3	InChI=1S/C7H10O2/c1-7-3-5(8)2-6(7)9-4-7/h6H,2-4H2,1H3/t6-,7-/m0/s1
