18
gdb 28587	3.70256	1.12877	0.92982	1.3697	82.25	-0.1725	0.0386	0.211	1274.9538	0.148789	-401.965825	-401.957494	-401.95655	-401.999092	31.771	
N	 0.1893071654	 1.2927874173	 0.3398539094	-0.595795
C	-0.0364053341	-0.0579029995	 0.0969531987	 0.356145
C	-1.144868418	-0.7999743007	-0.1716351698	-0.257013
C	-0.6971153843	-2.1681275934	-0.1999136864	-0.276327
C	 0.6377485877	-2.159656346	 0.0418992707	 0.372279
O	 1.0539926175	-0.8552564066	 0.23218395	-0.218916
C	 1.6611799923	-3.2050325996	 0.1296567053	-0.100927
C	 3.0792900196	-2.9666323388	-0.3530324779	-0.266986
C	 2.8068836281	-3.1090171521	 1.1191857299	-0.266611
H	 1.0808002414	 1.6075099442	-0.0243960596	 0.252072
H	-0.5575114629	 1.8730149211	-0.0174567139	 0.253107
H	-2.1450502942	-0.4304318866	-0.3309695179	 0.092315
H	-1.3000823393	-3.0432554871	-0.3872153928	 0.099057
H	 1.2549542448	-4.1961940935	-0.0416154472	 0.090617
H	 3.5809440047	-3.776473513	-0.8711644151	 0.111094
H	 3.3103096676	-1.9762545045	-0.7280100859	 0.119694
H	 2.8543473611	-2.213862196	 1.7284399928	 0.12491
H	 3.1200995827	-4.0177938652	 1.6211271395	 0.111285
66.5009	139.7662	145.4256	167.4134	272.5055	360.6967	406.9218	454.7838	603.728	648.4225	673.6737	696.0719	735.7954	769.7598	792.1067	802.6436	814.6383	900.322	904.5097	976.4949	997.5197	1023.9932	1061.8681	1069.3226	1079.642	1112.2622	1123.6482	1202.8769	1205.081	1232.4599	1268.6794	1303.6984	1381.6923	1436.9733	1463.2799	1497.645	1614.191	1649.3996	1674.9124	3135.5118	3139.2001	3168.1615	3219.0337	3234.6761	3248.1381	3263.7248	3534.0331	3637.1372
NC1=CC=C(O1)C1CC1	Nc1ccc(o1)C1CC1	
InChI=1S/C7H9NO/c8-7-4-3-6(9-7)5-1-2-5/h3-5H,1-2,8H2	InChI=1S/C7H9NO/c8-7-4-3-6(9-7)5-1-2-5/h3-5H,1-2,8H2
