19
gdb 108928	4.08402	1.12989	1.00367	1.4617	78.14	-0.2072	0.0571	0.2643	1253.8634	0.159543	-419.214689	-419.205881	-419.204937	-419.248052	33.097	
C	 0.1372690009	 1.4398550552	 0.0130967071	-0.328696
N	-0.1302177063	 0.0232706165	-0.1783722606	-0.373684
C	 0.5583032612	-0.7218156502	-1.0880552208	 0.477269
N	 0.713916813	-1.9947397987	-1.069151199	-0.413271
C	 1.3960326595	-2.3346948627	-2.3003566675	 0.334789
C	 2.372549	-3.4782566375	-2.2343152489	-0.46521
C	 0.6333167444	-2.0035791624	-3.5745447924	-0.357835
C	 1.612177353	-1.0099608683	-3.0063944428	 0.018803
O	 1.077089795	-0.0186592239	-2.1407661231	-0.249292
H	 1.0984922447	 1.6397631499	 0.5077103248	 0.121658
H	 0.1406691066	 1.9401547863	-0.9562400076	 0.156664
H	-0.6627541593	 1.8692897478	 0.6206469197	 0.128915
H	-0.3704814761	-0.5104650641	 0.6429168403	 0.256633
H	 1.8497859843	-4.4121463143	-2.0032108065	 0.128637
H	 2.8942563347	-3.6079946824	-3.1873418426	 0.108105
H	 3.1175453388	-3.3075518316	-1.4506429067	 0.120058
H	 0.9462744063	-2.5025682687	-4.4863532926	 0.111663
H	-0.4283401374	-1.790179873	-3.5033534773	 0.119378
H	 2.4952837366	-0.672296778	-3.5337375236	 0.105416
88.4127	127.1422	183.9706	196.4412	208.913	246.7567	313.3767	416.6259	470.4146	495.1788	563.7479	650.0559	698.505	736.5506	780.7672	798.2284	880.8064	929.4084	960.6605	970.6905	1001.7903	1033.3354	1072.0383	1100.8472	1117.496	1132.726	1152.5319	1185.6019	1258.9486	1279.9314	1380.2438	1411.7922	1419.3992	1449.481	1469.408	1474.7536	1479.9091	1495.3637	1500.0499	1519.8586	1725.634	3002.8879	3034.1454	3097.2244	3101.5072	3109.153	3123.4622	3146.4449	3192.0557	3216.7527	3630.0711
CNC1=NC2(C)CC2O1	CNC1=N[C@@]2(C)C[C@H]2O1	
InChI=1S/C6H10N2O/c1-6-3-4(6)9-5(7-2)8-6/h4H,3H2,1-2H3,(H,7,8)	InChI=1S/C6H10N2O/c1-6-3-4(6)9-5(7-2)8-6/h4H,3H2,1-2H3,(H,7,8)/t4-,6+/m1/s1
