22
gdb 12646	3.17692	1.69838	1.26359	0.2401	83.76	-0.2244	0.0345	0.2588	1066.6321	0.200236	-313.099755	-313.090861	-313.089917	-313.132535	34.091	
C	-0.1642946561	 1.5380792356	-0.0567265107	-0.412218
C	 0.0894132271	 0.0324430401	-0.0071333531	 0.037286
C	 0.9118102748	-0.5271352529	-1.1964003535	-0.260886
C	 1.5462621304	-1.7613065106	-0.6060721118	-0.171935
C	 1.4838962099	-1.7797087226	 0.7275120825	 0.340494
C	 2.0211031672	-2.8380699735	 1.6400222512	-0.498057
C	 0.816418257	-0.5181012488	 1.2606524178	-0.08385
C	 1.8470441472	 0.4391762864	 1.8878637268	-0.394218
H	 0.7700880483	 2.1086721044	-0.0581926085	 0.115015
H	-0.7132858763	 1.8060895242	-0.9660442037	 0.109667
H	-0.7607208797	 1.8753429167	 0.7982779038	 0.109295
H	-0.8832276586	-0.4748005455	-0.0387789895	 0.073456
H	 0.2829642967	-0.7364626574	-2.0699891596	 0.095293
H	 1.675064145	 0.1902898021	-1.5355873323	 0.096455
H	 2.0195386442	-2.5286982024	-1.2109437252	 0.078523
H	 2.4789530931	-3.6575811288	 1.0788950658	 0.120396
H	 2.7778555458	-2.4367548858	 2.3258297271	 0.124028
H	 1.2260737469	-3.2594582924	 2.2691391784	 0.121271
H	 0.0800050762	-0.7628054663	 2.0386820522	 0.061299
H	 2.6061363822	 0.7421111507	 1.1588880549	 0.116115
H	 1.3679899961	 1.3433146066	 2.2759168868	 0.112464
H	 2.3658907725	-0.04118897	 2.7236740108	 0.110107
85.3243	173.0529	225.3414	233.8026	239.6664	272.1324	274.9963	284.5647	378.3374	473.9647	543.7621	604.5331	659.7656	762.3247	818.5931	831.4613	890.9029	936.2726	974.0165	995.2636	1029.3313	1039.0452	1046.028	1074.3367	1103.7226	1125.4231	1159.9603	1181.786	1214.8383	1282.6739	1303.9943	1319.6352	1346.535	1362.2078	1373.7102	1403.9611	1411.2565	1414.0874	1478.967	1488.8497	1491.2393	1493.2231	1494.0171	1504.509	1507.8331	1721.0277	2987.1214	2998.2506	3014.9955	3019.5683	3027.0566	3033.2549	3047.4704	3059.98	3089.8937	3096.8146	3101.5181	3104.6918	3106.2865	3176.4445
CC1CC=C(C)C1C	C[C@H]1CC=C(C)[C@H]1C	
InChI=1S/C8H14/c1-6-4-5-7(2)8(6)3/h4,7-8H,5H2,1-3H3	InChI=1S/C8H14/c1-6-4-5-7(2)8(6)3/h4,7-8H,5H2,1-3H3/t7-,8+/m0/s1
