21
gdb 80020	2.76026	1.6077	1.28339	1.3368	82.76	-0.2361	0.0013	0.2374	1076.2167	0.18235	-387.062837	-387.054416	-387.053471	-387.094958	34.603	
C	-0.2065298136	 1.501870103	 1.1547291979	-0.430451
C	-0.0842763405	 0.0515651794	 0.7144541697	 0.053886
C	 0.9122414111	-0.3761831243	-0.4249967827	-0.145095
C	 2.2436469572	 0.0661482808	 0.1862369161	-0.112318
C	 2.1495627216	-0.3297969335	 1.4646071355	-0.112215
C	 0.7679837632	-0.9838626472	 1.536643035	-0.145104
C	 0.8181418095	-1.8474986934	 0.1924655907	 0.45817
C	-0.3988296421	-2.6936037594	-0.1590592909	-0.448304
O	 1.9010012946	-2.7132333465	 0.0039097332	-0.488673
H	 0.7645122992	 1.954780244	 1.3665439372	 0.118411
H	-0.6974195445	 2.0977309104	 0.377116832	 0.112484
H	-0.8212659488	 1.5767946381	 2.0587128509	 0.112485
H	-1.0868205762	-0.3341663723	 0.5212568345	 0.072136
H	 0.7221685652	-0.1726043041	-1.479588885	 0.055354
H	 3.0542473467	 0.5686050037	-0.3229977497	 0.102027
H	 2.8634069458	-0.2349105828	 2.2710108287	 0.102025
H	 0.4304516673	-1.4012327199	 2.4861666863	 0.05536
H	-1.3493058882	-2.1696587973	-0.0670983294	 0.117617
H	-0.2979298284	-3.0524340941	-1.1878738666	 0.126733
H	-0.4219328441	-3.5723092609	 0.492666562	 0.126728
H	 2.6976434048	-2.2093411638	 0.2182791347	 0.268745
149.1966	203.1952	220.1849	242.9537	249.4861	324.6276	393.1244	414.8626	513.0207	524.4476	562.0302	601.1025	625.4054	739.3446	774.586	776.8724	791.7935	868.0869	914.1753	914.8581	924.4726	960.5634	983.0105	1037.1293	1058.4378	1074.0004	1088.6745	1114.2469	1129.9155	1141.1942	1180.9268	1204.2413	1240.1336	1250.0521	1260.0774	1329.8877	1380.5938	1401.8458	1409.3874	1428.9444	1480.5989	1492.3516	1500.3423	1501.1496	1605.6159	3032.3331	3050.4904	3086.3902	3088.2274	3107.4822	3109.5583	3111.5594	3124.3097	3156.6883	3214.3099	3240.4646	3739.5718
CC1C2C=CC1C2(C)O	C[C@H]1[C@H]2C=C[C@@H]1[C@]2(C)O	
InChI=1S/C8H12O/c1-5-6-3-4-7(5)8(6,2)9/h3-7,9H,1-2H3	InChI=1S/C8H12O/c1-5-6-3-4-7(5)8(6,2)9/h3-7,9H,1-2H3/t5-,6+,7-,8+
