13
gdb 21577	3.47419	2.09872	1.31243	5.7386	63.63	-0.2305	-0.0404	0.1901	856.2188	0.097311	-394.809012	-394.802127	-394.801182	-394.840095	25.216	
N	 0.0775562807	 1.3984722888	 0.1154153526	-0.60356
C	-0.0445940974	 0.0150215704	 0.0202727151	 0.424431
C	-1.1409137185	-0.8074736253	 0.040315945	-0.320859
C	-0.6010391934	-2.1226905865	-0.0168504731	 0.036875
N	 0.7116925769	-2.1411678809	-0.0756851285	-0.238875
N	 1.066842285	-0.8130876581	-0.0341127939	-0.075717
C	 2.4056577455	-0.4144885646	 0.0308512772	 0.182227
O	 3.346965418	-1.1517229012	-0.0408904964	-0.263861
H	 0.6286611173	 1.8228894204	-0.6206433926	 0.262001
H	-0.8256457292	 1.8502603283	 0.1649600818	 0.263126
H	-2.1768383956	-0.5106040972	 0.0693649683	 0.107893
H	-1.1452835206	-3.057003627	-0.0298948453	 0.125737
H	 2.4827458112	 0.6777645228	 0.1706757999	 0.100581
132.2675	193.5878	234.8679	248.8525	323.3426	369.3765	572.5127	649.0929	660.8032	668.8099	736.0315	788.9598	844.7036	915.0123	924.8931	1029.6591	1054.9205	1082.7211	1162.083	1251.4901	1315.9338	1357.2048	1419.4563	1463.6375	1525.121	1618.3485	1666.4975	1844.3803	2989.169	3235.3852	3266.1185	3538.323	3631.162
NC1=CC=NN1C=O	Nc1ccnn1C=O	
InChI=1S/C4H5N3O/c5-4-1-2-6-7(4)3-8/h1-3H,5H2	InChI=1S/C4H5N3O/c5-4-1-2-6-7(4)3-8/h1-3H,5H2
