21
gdb 111292	3.14856	1.2219	1.05454	1.2999	79.24	-0.2411	0.0743	0.3154	1238.4999	0.181177	-424.190677	-424.18113	-424.180186	-424.224787	35.816	
C	 0.1357674715	 1.3355231225	-0.1036615685	-0.250885
O	-0.1524676063	-0.0399891616	 0.0829574859	-0.253989
C	 0.5577559238	-0.6157295381	 1.1598414322	 0.084309
C	 0.1036000795	-2.0128681251	 1.5402063743	-0.134405
C	 0.2702804886	-2.9476056631	 0.3723090661	-0.341616
C	 1.4882927361	-2.5975177375	 1.1766101699	 0.348384
C	 2.3255055488	-3.6162130374	 1.8951824063	-0.505803
C	 1.9747057318	-1.1914317286	 0.7839475906	 0.036396
O	 2.4150611069	-0.9515079934	-0.5297984492	-0.441807
H	 1.1987978762	 1.5043869841	-0.3194512117	 0.124764
H	-0.4608972788	 1.6770332205	-0.9530928733	 0.126992
H	-0.1418524887	 1.9231992563	 0.7841919999	 0.10927
H	 0.5907171264	 0.0785594174	 2.0093841143	 0.064619
H	-0.536863854	-2.2511710485	 2.3807717215	 0.084358
H	-0.1079288565	-3.9518830577	 0.5366795665	 0.111233
H	 0.1303563835	-2.5909817823	-0.6434823585	 0.109758
H	 1.7128870498	-4.4418678759	 2.2725442151	 0.116416
H	 3.0812577323	-4.044809476	 1.226488754	 0.129004
H	 2.8516481183	-3.172120032	 2.7482331006	 0.11505
H	 2.7623473052	-0.8391842759	 1.4569568853	 0.079293
H	 1.6196314355	-0.8740339176	-1.0712941715	 0.288659
77.869	113.9338	171.2821	193.3171	214.9378	241.3525	256.4438	319.8251	346.7449	409.8003	496.8214	510.9158	607.1745	702.1877	743.0234	789.8325	830.7104	914.8689	954.8201	969.6889	995.8395	1021.5977	1052.3713	1067.693	1095.5024	1110.1595	1121.4446	1138.6315	1178.959	1194.6363	1226.3336	1255.2431	1261.8356	1302.0831	1314.9933	1380.6853	1396.1233	1423.2318	1436.5487	1477.0948	1485.4528	1488.1698	1498.1343	1508.0638	1512.7534	2987.9711	3017.1011	3020.7583	3050.9955	3065.0684	3081.0732	3092.5268	3116.3074	3123.7996	3183.8209	3203.0415	3775.7419
COC1C2CC2(C)C1O	CO[C@H]1[C@H]2C[C@@]2(C)[C@H]1O	
InChI=1S/C7H12O2/c1-7-3-4(7)5(9-2)6(7)8/h4-6,8H,3H2,1-2H3	InChI=1S/C7H12O2/c1-7-3-4(7)5(9-2)6(7)8/h4-6,8H,3H2,1-2H3/t4-,5+,6+,7-/m1/s1
