17
gdb 109207	3.25666	1.07573	0.93326	3.5392	70.16	-0.2422	-0.0433	0.1989	1263.7691	0.136088	-455.161878	-455.153195	-455.152251	-455.195969	31.047	
O	 0.0934582339	 1.3364875992	 0.1698637865	-0.420126
C	 0.0101326725	-0.04494514	-0.0490907526	-0.128504
C	-1.4174549082	-0.5141332478	-0.0815855949	 0.345914
N	-2.3914540368	 0.306605066	 0.0267558305	-0.307284
C	-3.6275473578	-0.474204924	-0.0588181824	-0.193688
C	-3.1629836388	-1.9702761014	-0.0036889769	-0.096585
N	-1.734814029	-1.8537179408	-0.2918113026	-0.340911
C	-3.4159321986	-2.6192404593	 1.3465284015	 0.157246
O	-2.5459508359	-3.0722481102	 2.045246919	-0.245344
H	-0.8228730026	 1.6525411506	 0.1938612531	 0.296461
H	 0.4882742583	-0.3258920645	-1.0014758695	 0.118339
H	 0.5471847789	-0.5937192848	 0.7420743269	 0.112567
H	-4.3156821237	-0.2134528911	 0.7530964615	 0.11852
H	-4.1426688697	-0.2599114653	-1.0016727045	 0.126472
H	-3.6900275445	-2.5727958564	-0.7550660488	 0.112261
H	-1.1593329319	-2.5297007756	 0.1992492652	 0.252363
H	-4.4862386262	-2.6554810246	 1.6492282179	 0.092299
60.3721	98.3726	129.0983	200.7537	221.9217	272.5712	343.4299	352.3881	447.9406	560.0865	612.3005	713.7104	726.6824	765.8302	847.1225	912.3377	948.9124	1014.6191	1035.8237	1056.1252	1086.0844	1110.9839	1132.942	1209.4204	1238.6485	1250.7428	1257.1954	1321.0909	1331.6974	1357.8836	1407.03	1442.5915	1489.9745	1502.4845	1508.004	1715.1757	1825.703	2889.9402	2974.1603	2989.1839	3021.4803	3038.4066	3068.8993	3547.3552	3698.1941
OCC1=NCC(N1)C=O	OC[C]1[N]C[C@@H](N1)C=O	
InChI=1S/C5H8N2O2/c8-2-4-1-6-5(3-9)7-4/h2,4,9H,1,3H2,(H,6,7)	InChI=1S/C5H8N2O2/c8-2-4-1-6-5(3-9)7-4/h2,4,9H,1,3H2,(H,6,7)/t4-/m1/s1
