20
gdb 98358	3.62663	0.74598	0.71013	4.9669	78.17	-0.2482	-0.0253	0.2229	1654.2362	0.167784	-440.331346	-440.320247	-440.319303	-440.36996	37.213	
C	 0.4376227119	 1.4377692391	 0.1790830987	-0.334978
N	 0.4243321783	-0.0058977535	 0.0367657909	-0.320509
C	 0.0838822588	-0.6265455156	-1.1292437458	 0.42513
O	-0.2281845996	-0.0228642284	-2.1410842848	-0.38615
C	 0.1371685122	-2.1579621002	-1.0960647345	-0.118328
C	-1.2181936159	-2.7309233444	-1.5357166222	-0.388988
C	 1.2805812521	-2.626621106	-2.0265709928	-0.261759
C	 1.5237721843	-4.115367316	-1.923579665	 0.154481
O	 1.5464052879	-4.8825102758	-2.850078467	-0.234554
H	 0.1708250483	 1.85993184	-0.7903409664	 0.174701
H	-0.289218265	 1.7727069219	 0.9274655685	 0.127663
H	 1.4304302951	 1.7995150033	 0.4681120279	 0.126923
H	 0.6484575922	-0.5723627451	 0.8373953046	 0.245577
H	 0.3610071105	-2.4976337192	-0.0754306207	 0.065864
H	-1.1837921721	-3.8225336609	-1.601023296	 0.124244
H	-2.0086262413	-2.456757701	-0.8305572766	 0.118758
H	-1.4847297786	-2.3309182187	-2.5171233581	 0.152558
H	 1.0676673968	-2.3572114283	-3.0634650428	 0.14498
H	 2.2146792945	-2.1282127268	-1.7285225322	 0.118937
H	 1.6961936295	-4.4759568845	-0.8799558056	 0.065449
21.3507	50.1286	70.9477	74.3835	118.1448	194.9041	220.5051	236.5833	273.4637	316.0389	348.1379	446.5721	476.8468	537.4908	692.0043	748.301	800.0781	867.1968	916.7099	956.3835	1012.9476	1055.1333	1090.6578	1111.3425	1151.6372	1155.0897	1171.5339	1207.9457	1236.3126	1285.5279	1345.3554	1383.1665	1408.0769	1430.9104	1437.2193	1461.5692	1489.9357	1491.6123	1500.1484	1504.2329	1558.3703	1777.1924	1837.6678	2833.1783	3008.3638	3013.7498	3029.2161	3043.0844	3082.0294	3110.7581	3119.1034	3131.5913	3154.9945	3652.8292
CNC(=O)C(C)CC=O	CNC(=O)[C@@H](C)CC=O	
InChI=1S/C6H11NO2/c1-5(3-4-8)6(9)7-2/h4-5H,3H2,1-2H3,(H,7,9)	InChI=1S/C6H11NO2/c1-5(3-4-8)6(9)7-2/h4-5H,3H2,1-2H3,(H,7,9)/t5-/m0/s1
