19
gdb 77510	2.4903	1.58494	1.4188	2.7511	75.58	-0.2383	-0.0018	0.2366	1027.3102	0.158082	-422.995939	-422.987496	-422.986552	-423.028047	34.175	
C	-0.051743512	 1.5278493479	 0.0404189503	-0.508007
C	-0.026628239	 0.0183379596	-0.0035756384	 0.23865
C	 0.381736199	-0.8031727249	-1.2763890872	-0.314475
C	-0.3398332973	-1.9580420069	-0.4952357297	 0.326724
O	-0.8214790083	-3.1193668776	-1.087063848	-0.486377
C	 0.5536437277	-2.0411140356	 0.7572759736	-0.201656
C	 0.7551276867	-0.7569828148	 1.071463945	-0.134893
C	-1.3531867196	-0.8508545324	-0.0439958783	 0.114648
O	-2.1524611565	-1.0012344722	 1.0807720582	-0.438957
H	 0.9592180859	 1.9485830585	 0.0000165834	 0.116562
H	-0.6183617277	 1.9384478421	-0.8012133367	 0.11794
H	-0.5251783427	 1.8813945621	 0.963170565	 0.124818
H	-0.1497433923	-0.4987368199	-2.1837536373	 0.098611
H	 1.4513579639	-0.9215576344	-1.4614104036	 0.091509
H	-0.0738253448	-3.6765627233	-1.3282090895	 0.280128
H	 0.8975622031	-2.9481774061	 1.2362895049	 0.104232
H	 1.3209940495	-0.3202831943	 1.8840965939	 0.104484
H	-2.0137338655	-0.5483411736	-0.8615614626	 0.092302
H	-1.5727851002	-1.2989571642	 1.7954847371	 0.273757
181.1089	207.89	219.0613	243.7538	249.8114	301.7416	384.1725	397.8026	472.4556	488.0134	587.2329	589.4928	613.8393	639.3776	733.002	794.7812	801.062	840.1065	886.4845	903.9547	911.9983	1000.1369	1012.9209	1055.8868	1098.0649	1118.8327	1126.3556	1166.5669	1171.2934	1203.0487	1232.4846	1291.9751	1319.2307	1349.9882	1361.4064	1414.7244	1448.2826	1493.2743	1493.7146	1500.17	1620.7882	3027.875	3050.8205	3085.7261	3091.1136	3100.5866	3125.3361	3203.2301	3231.6937	3741.4579	3806.0337
CC12CC(O)(C=C1)C2O	C[C@@]12C[C@@](O)(C=C1)[C@H]2O	
InChI=1S/C7H10O2/c1-6-2-3-7(9,4-6)5(6)8/h2-3,5,8-9H,4H2,1H3	InChI=1S/C7H10O2/c1-6-2-3-7(9,4-6)5(6)8/h2-3,5,8-9H,4H2,1H3/t5-,6-,7-/m0/s1
