21
gdb 66722	1.90755	1.77023	1.7693	0.3033	86.74	-0.2091	0.0811	0.2902	1038.4463	0.18026	-349.864523	-349.855498	-349.854554	-349.897457	35.049	
C	-0.0447042311	 1.4839445523	 0.050167695	-0.527713
C	 0.00084715	-0.0084431135	-0.0070233616	 0.243724
C	 0.2803941531	-0.9895572194	-1.1890549792	-0.151942
C	-0.6151470881	-2.033947108	-0.5418056253	-0.151685
C	 0.8701121442	-2.0004462525	-0.218450007	-0.151875
C	 0.5953756128	-1.0274584569	 0.9714543757	 0.243659
C	 1.3053291672	-0.8289245712	 2.271052616	-0.527673
C	-0.9020575013	-1.0614262569	 0.6454663274	 0.243717
C	-2.0953600891	-0.9074050037	 1.5311854663	-0.527641
H	 0.9144037958	 1.9279749558	-0.2437617641	 0.119155
H	-0.8157483805	 1.8899248713	-0.6162509038	 0.119129
H	-0.2705885433	 1.8329341699	 1.0638859398	 0.117713
H	 0.5044751232	-0.826167632	-2.2355460591	 0.079827
H	-1.2034736844	-2.8181610022	-1.0010748969	 0.079828
H	 1.6294321064	-2.7540539918	-0.3844323944	 0.079825
H	 2.3500169712	-0.5311959973	 2.1179529644	 0.119167
H	 0.8251176171	-0.0449552533	 2.8670207773	 0.117702
H	 1.3068235468	-1.7453514662	 2.8740070096	 0.119116
H	-1.9400115857	-0.1106452608	 2.2669729307	 0.117691
H	-2.9941706072	-0.6526535598	 0.9561458722	 0.119138
H	-2.307398177	-1.8298781537	 2.0857505269	 0.119138
152.0397	152.5188	189.0643	192.8592	199.672	212.5872	317.1519	340.871	341.6844	594.5757	594.6965	667.6274	687.8034	750.4656	751.3186	782.4018	782.6962	847.1708	847.2854	927.6286	973.8831	974.2296	999.6504	1001.6802	1078.4099	1078.9611	1102.0272	1140.2039	1140.4143	1182.8842	1183.2577	1211.3243	1320.4178	1341.4486	1342.5073	1408.6937	1408.9316	1416.9453	1468.4748	1475.8141	1484.0337	1484.4984	1494.3562	1494.7476	1514.8276	3012.009	3012.1543	3016.0534	3066.9133	3068.3371	3068.5547	3084.5966	3084.7094	3090.2564	3182.9337	3183.4287	3200.4207
CC12C3C4C3C1(C)C24C	C[C@@]12[C@@H]3[C@H]4[C@@H]3[C@]1(C)[C@@]24C	
InChI=1S/C9H12/c1-7-4-5-6(4)9(7,3)8(5,7)2/h4-6H,1-3H3	InChI=1S/C9H12/c1-7-4-5-6(4)9(7,3)8(5,7)2/h4-6H,1-3H3/t4-,5+,6-,7+,8-,9+
