15
gdb 68702	2.10558	1.75895	1.18124	4.3218	73.48	-0.2559	-0.0057	0.2501	1059.9101	0.110084	-420.598605	-420.590259	-420.589315	-420.631434	31.279	
C	-0.0933721748	 1.4754467851	 0.0699648602	-0.48357
C	 0.0479323372	-0.0057731585	 0.0391267317	 0.406655
C	 1.1874749776	-0.8482940199	-0.3802784818	-0.356417
C	 0.6120698565	-1.0057670188	 1.0557790058	-0.089239
C	 1.3780432191	-0.8478843075	 2.2367015516	 0.184313
C	 2.0239121187	-0.7115899193	 3.2422492776	-0.404687
C	-0.7413510738	-1.6709679781	 0.9010970903	 0.427258
O	-1.3510393015	-2.5548871092	 1.4012508765	-0.315826
O	-1.1686827787	-0.8010232111	-0.092749419	-0.29291
H	 0.860767162	 1.9365134776	 0.3385804143	 0.143309
H	-0.3934499825	 1.8532091583	-0.9129417817	 0.146944
H	-0.8480252718	 1.7749045844	 0.8021081238	 0.149066
H	 1.0399519612	-1.645191486	-1.1017426433	 0.141911
H	 2.1653486148	-0.3773331134	-0.3888749671	 0.145872
H	 2.5873784958	-0.5975995937	 4.135168941	 0.197321
108.7965	143.2981	145.4154	191.9185	291.8487	333.8294	400.554	449.4626	519.0117	540.5825	588.9092	637.2663	668.4073	679.1654	701.5361	782.2599	818.4707	915.6158	957.9209	974.071	1016.7209	1047.923	1106.5396	1125.7509	1224.5331	1326.8606	1393.4556	1431.5898	1472.8865	1488.193	1504.0175	1950.1006	2240.5517	3044.0062	3113.1345	3128.8995	3130.5034	3226.4305	3500.8296
CC12CC1(C#C)C(=O)O2	C[C@@]12C[C@]1(C#C)C(=O)O2	
InChI=1S/C7H6O2/c1-3-7-4-6(7,2)9-5(7)8/h1H,4H2,2H3	InChI=1S/C7H6O2/c1-3-7-4-6(7,2)9-5(7)8/h1H,4H2,2H3/t6-,7-/m1/s1
