19
gdb 72972	2.62173	1.48526	1.2024	1.1116	82.88	-0.2259	0.0432	0.2691	1108.4994	0.156436	-385.822291	-385.813068	-385.812124	-385.855502	35.33	
C	-0.1387254797	 1.5116696654	 0.0570944022	-0.495975
C	 0.0379050777	 0.0309808113	 0.1065602269	 0.428484
O	-1.1396712024	-0.7735329649	-0.0430736326	-0.319571
C	-0.6504574947	-1.7062192805	 0.9593498385	-0.123999
C	 0.6664425332	-0.956750289	 1.0611866516	-0.214401
C	 1.2623596771	-0.7684202833	-0.3486742269	 0.069198
C	 1.1638995897	-1.8287338185	-1.4347966715	-0.484214
C	 2.5005903224	-0.0343572435	-0.3285488686	 0.253475
C	 3.5437499691	 0.5666459598	-0.3288669769	-0.432518
H	 0.8236729702	 2.0147162327	 0.1701929658	 0.143301
H	-0.567978885	 1.803652797	-0.9080394604	 0.134182
H	-0.8172832727	 1.8503211192	 0.845926859	 0.126657
H	-1.2573726799	-1.639350038	 1.8691068981	 0.115099
H	-0.6362036538	-2.7410371159	 0.5997466308	 0.109174
H	 1.2617134328	-0.8032193531	 1.9508590268	 0.109964
H	 0.1360395619	-2.1819925063	-1.5340305356	 0.140662
H	 1.4693577115	-1.4073200354	-2.3966745287	 0.128276
H	 1.81753629	-2.6791355942	-1.2172819796	 0.12254
H	 4.4651937627	 1.0943174472	-0.3312471688	 0.189664
133.4457	146.6351	175.2533	187.0738	215.0263	276.0238	286.7171	332.6747	428.3308	468.4556	519.3094	543.5383	575.3638	650.3925	653.0624	688.173	747.1034	875.2011	919.408	949.7357	971.0575	983.7496	993.301	1059.0718	1098.6816	1118.6716	1150.9557	1158.0126	1191.1329	1219.8927	1286.2988	1334.2867	1395.0986	1405.7752	1438.3687	1478.5914	1488.4369	1493.0089	1501.6137	1520.9198	2226.4034	3029.5338	3037.8499	3045.2805	3077.0162	3099.6558	3108.8159	3137.144	3138.1435	3208.1959	3501.5308
CC12OCC1C2(C)C#C	C[C@]12OC[C@H]1[C@]2(C)C#C	
InChI=1S/C8H10O/c1-4-7(2)6-5-9-8(6,7)3/h1,6H,5H2,2-3H3	InChI=1S/C8H10O/c1-4-7(2)6-5-9-8(6,7)3/h1,6H,5H2,2-3H3/t6-,7-,8-/m0/s1
