18
gdb 22069	2.62057	1.17809	1.00252	2.5909	72.16	-0.2487	-0.0032	0.2455	1232.3706	0.143961	-476.164098	-476.154217	-476.153273	-476.198462	36.641	
C	 0.6295964449	 1.3083007516	-0.0969307851	-0.447954
C	-0.1181845061	-0.0128437211	 0.0036115325	 0.353642
O	-1.5167451989	 0.163459393	 0.0371515113	-0.477378
C	 0.4218566978	-1.1238803021	-0.9739622645	-0.379285
C	 1.1793965701	-1.678155136	 0.2108162929	 0.34249
N	 2.2732261408	-2.2847917974	 0.410087492	-0.242839
O	 2.852807501	-2.716257472	-0.7945085804	-0.387289
C	 0.3549202606	-0.9030151706	 1.2118172416	 0.045952
O	 0.9694326892	-0.333314645	 2.3306087565	-0.423043
H	 1.7130227384	 1.1544528517	-0.1200449064	 0.119047
H	 0.3543504492	 1.8372413824	-1.0174179228	 0.108051
H	 0.3905573687	 1.9412194747	 0.7612615094	 0.141297
H	-1.7673656333	 0.7570042856	-0.6789472867	 0.278252
H	-0.3837521499	-1.7806150919	-1.3144261475	 0.128451
H	 1.0277248215	-0.8123434863	-1.8276413855	 0.124677
H	 3.6606796188	-3.1446241451	-0.4908410443	 0.308235
H	-0.5167450621	-1.4763079914	 1.5526223389	 0.116118
H	 1.9198101492	-0.3347807901	 2.171690148	 0.291577
70.7402	129.5512	187.0212	219.7224	234.8105	252.6818	266.9531	281.3901	346.7815	356.8141	403.3284	424.7829	497.4129	569.1388	579.6044	715.1176	759.1859	837.86	868.2746	900.3439	968.0017	990.3324	1050.8798	1098.6648	1110.5144	1151.9712	1176.3764	1197.4713	1218.6235	1273.7955	1328.1969	1369.2785	1401.6803	1410.6516	1424.1187	1459.1868	1488.5335	1493.0909	1783.0713	3028.7601	3035.8481	3063.2108	3094.7946	3121.2009	3126.4748	3804.5763	3807.098	3813.4492
CC1(O)CC(=NO)C1O	C[C@@]1(O)CC(=NO)[C@H]1O	
InChI=1S/C5H9NO3/c1-5(8)2-3(6-9)4(5)7/h4,7-9H,2H2,1H3	InChI=1S/C5H9NO3/c1-5(8)2-3(6-9)4(5)7/h4,7-9H,2H2,1H3/t4-,5-/m1/s1
