22
gdb 118177	4.06258	0.61899	0.59535	2.2189	79.43	-0.245	0.0332	0.2782	1908.3542	0.19167	-441.522136	-441.510591	-441.509647	-441.560433	40.179	
C	-0.0971748531	 1.690124816	-0.1318476972	-0.400306
C	-0.0266879242	 0.1606327625	-0.0061773702	 0.043283
C	-1.414192396	-0.4945493166	 0.088400564	-0.178221
C	-2.2174481863	-0.1018374261	 1.3230746506	-0.086523
O	-3.4037332963	-0.8853182082	 1.3271992134	-0.422143
C	 0.7613033011	-0.4449882512	-1.177756183	-0.322892
C	 2.2504477161	-0.1001748506	-1.1425630154	 0.407523
N	 2.8810554599	-0.1609218135	-2.353349842	-0.521976
O	 2.8419770599	 0.1924386455	-0.1206220272	-0.361342
H	 0.9061929585	 2.1167424233	-0.2094269173	 0.133756
H	-0.6685145492	 1.9847970291	-1.0211789433	 0.104073
H	-0.5784626978	 2.1470415554	 0.7375427238	 0.114066
H	 0.5394846201	-0.0764488192	 0.9026546947	 0.099594
H	-2.0079013482	-0.2572809215	-0.804606002	 0.096243
H	-1.3052479107	-1.5861370748	 0.1060048728	 0.10018
H	-1.6155427524	-0.2857852912	 2.2285820118	 0.086097
H	-2.4577607686	 0.9715439504	 1.3031761226	 0.087238
H	-3.9331280413	-0.6226557499	 2.0856253381	 0.284289
H	 0.6904186781	-1.5408766497	-1.1453388799	 0.122802
H	 0.3252878624	-0.138029401	-2.137514326	 0.098868
H	 2.4156267134	-0.4845429365	-3.1828613276	 0.256616
H	 3.8821487944	-0.0534828223	-2.3722029504	 0.258774
29.8884	56.3906	72.3152	117.8956	122.1569	169.2935	224.3075	241.2325	267.0379	296.1399	336.5053	376.147	455.2317	508.3014	519.9547	627.4339	661.9673	792.4389	846.7542	864.4728	910.759	959.731	984.5226	1028.0848	1063.6517	1077.6933	1118.7739	1133.5268	1171.5659	1213.0526	1243.0229	1257.3224	1273.9028	1316.5527	1319.0686	1366.3642	1377.2121	1404.6782	1411.3753	1458.5278	1460.4232	1489.6402	1497.7565	1511.333	1527.8692	1616.1595	1793.0739	2962.9124	2998.7975	3012.6628	3018.3743	3026.6227	3039.2069	3052.1881	3066.2669	3098.4339	3119.371	3600.0635	3737.0842	3829.7518
CC(CCO)CC(N)=O	C[C@@H](CCO)CC(=O)N	
InChI=1S/C6H13NO2/c1-5(2-3-8)4-6(7)9/h5,8H,2-4H2,1H3,(H2,7,9)	InChI=1S/C6H13NO2/c1-5(2-3-8)4-6(7)9/h5,8H,2-4H2,1H3,(H2,7,9)/t5-/m0/s1
