19
gdb 99211	3.76524	0.74026	0.65194	7.619	75.75	-0.2449	0.0072	0.252	1709.5534	0.157876	-456.399207	-456.388932	-456.387988	-456.43588	36.189	
C	 0.0235568718	 1.5634519826	-0.1269993253	-0.374776
C	-0.0566716198	 0.0518949203	 0.1457029297	-0.261575
C	-1.470545045	-0.4807715043	 0.0959028916	 0.381877
N	-2.0500096645	-0.4988249025	-1.1453046358	-0.538299
H	-2.9316744723	-0.9630458737	-1.2826254609	 0.267783
H	-1.4714910806	-0.3987501723	-1.9615389613	 0.262671
N	-2.0549453628	-0.8263937207	 1.1827992191	-0.307732
C	-3.4215217594	-1.3069865378	 1.1521442313	-0.325245
C	-3.8829917964	-1.6627380734	 2.5751256736	 0.415692
O	-2.947710784	-1.4417014615	 3.5033785264	-0.360888
O	-4.9778721642	-2.094891788	 2.8176198222	-0.345204
H	 1.0593432241	 1.908009048	-0.0628324154	 0.126239
H	-0.354729774	 1.817980899	-1.1217011827	 0.118012
H	-0.5666811873	 2.1189266311	 0.6074384445	 0.137449
H	 0.5598854023	-0.490573077	-0.5828579906	 0.107109
H	 0.3356202919	-0.1735771547	 1.1386933725	 0.130958
H	-2.1751892414	-1.0956899064	 2.9986934293	 0.304113
H	-4.1287717912	-0.5610793691	 0.759282441	 0.134119
H	-3.5467500271	-2.2139708796	 0.5398916906	 0.127698
34.1139	68.8481	70.9202	133.7556	189.7173	229.1733	275.5544	294.1101	311.4375	368.84	473.0231	509.708	581.524	597.9021	640.1459	717.35	799.6327	833.4078	847.2384	897.2305	990.8711	999.4267	1046.1535	1060.5265	1086.3938	1177.1153	1223.8095	1233.3721	1276.6408	1331.5036	1347.1983	1384.9495	1416.7899	1451.9732	1457.4947	1481.0449	1497.6484	1508.1255	1646.6511	1737.1075	1875.5875	2980.6416	3017.3323	3029.269	3043.8404	3105.5489	3120.6622	3127.7922	3428.5477	3613.4782	3728.4003
CCC(=[NH2+])NCC([O-])=O	CCC(=NCC(=O)O)N	
InChI=1S/C5H10N2O2/c1-2-4(6)7-3-5(8)9/h2-3H2,1H3,(H2,6,7)(H,8,9)	InChI=1S/C5H10N2O2/c1-2-4(6)7-3-5(8)9/h2-3H2,1H3,(H2,6,7)(H,8,9)
