22
gdb 59242	2.40126	1.42844	1.05199	1.4458	81.85	-0.2248	0.0781	0.3029	1226.4199	0.193475	-404.303907	-404.29434	-404.293396	-404.337996	36.615	
C	-1.4245070086	-1.045098113	-0.0279002805	-0.40799
C	-0.0442811113	-0.397293539	-0.1521603176	 0.116675
O	-0.1559736786	 1.017282466	-0.3406096841	-0.442757
C	 0.7897952879	-0.5838933465	 1.1063212356	 0.019149
C	 1.1770710213	-2.0111246736	 1.5107948329	-0.082092
N	 2.0634631402	-2.5341326934	 0.4380340284	-0.336428
C	 2.6233503358	-1.6705784965	 1.5077580408	-0.059186
C	 2.3356083638	-0.2174752138	 1.0986459527	 0.000605
C	 2.9955964405	 0.3118704585	-0.167510817	-0.411159
H	-1.9721453422	-0.6246646335	 0.8221831348	 0.116909
H	-2.0180236	-0.871115173	-0.9330091538	 0.100747
H	-1.3398702585	-2.1281788041	 0.1072649416	 0.120098
H	 0.4880459499	-0.8517994926	-0.9982518176	 0.084008
H	-0.6141224105	 1.1678166457	-1.1733392195	 0.278426
H	 0.2920132212	-0.0623766863	 1.9300594446	 0.074759
H	 0.6258230314	-2.69157721	 2.1489231099	 0.087936
H	 2.2900851918	-3.4972038605	 0.6840669013	 0.225606
H	 3.4212055571	-2.0361888693	 2.1434716178	 0.086447
H	 2.5367007531	 0.455376311	 1.9374728023	 0.072554
H	 2.9210671581	-0.4183864317	-0.9773693829	 0.129591
H	 2.5172900826	 1.239742169	-0.4918214597	 0.126943
H	 4.058611585	 0.512506157	 0.0079209499	 0.09916
71.7731	123.0574	159.4547	223.7154	232.3308	248.0593	277.8929	290.5081	339.3066	449.8562	464.0026	527.1967	601.4738	675.5011	780.9488	813.4203	844.4205	879.7222	889.3296	917.7796	959.065	999.1021	1019.2333	1043.7687	1068.0695	1085.7432	1104.8397	1116.9401	1122.0783	1142.3435	1158.8036	1190.7523	1236.4245	1263.3639	1298.4306	1324.5307	1341.0929	1368.4418	1377.1061	1385.3185	1402.0794	1402.9302	1429.4974	1488.3869	1493.4709	1497.9216	1512.0521	3017.2513	3025.6982	3035.6371	3052.071	3068.0529	3091.6144	3104.491	3109.2635	3127.43	3173.8763	3187.8076	3472.9226	3817.9008
CC(O)C1C2NC2C1C	C[C@@H](O)[C@H]1[C@H]2N[C@H]2[C@H]1C	
InChI=1S/C7H13NO/c1-3-5(4(2)9)7-6(3)8-7/h3-9H,1-2H3	InChI=1S/C7H13NO/c1-3-5(4(2)9)7-6(3)8-7/h3-9H,1-2H3/t3-,4+,5-,6-,7+/m0/s1
