23
gdb 82872	2.62372	1.68699	1.34507	0.1869	89.16	-0.2586	0.094	0.3527	1087.5197	0.207702	-351.136057	-351.128033	-351.127089	-351.167901	33.38	
C	-0.2060317769	 1.6041827256	-0.0664847564	-0.438236
C	 0.0494653372	 0.1033988412	-0.0199600682	 0.045874
C	 1.133988414	-0.6000417769	-0.8974478603	-0.09936
C	 2.4250678439	 0.1364625765	-0.4966920903	-0.214358
C	 2.3723740965	-0.3114233494	 0.9820166362	-0.046129
C	 2.5575566171	-1.8414731759	 0.8208712625	-0.28932
C	 1.1568633312	-1.7802079266	 0.1885495638	 0.374978
C	 0.297532943	-2.9988733163	-0.0360337815	-0.510524
C	 0.8070383547	-0.5738242116	 1.1316805258	-0.081092
H	 0.6846718126	 2.1940172926	 0.1665846213	 0.116527
H	-0.5639239062	 1.9143637707	-1.0552771574	 0.111785
H	-0.9761074548	 1.8812204637	 0.6623396697	 0.112128
H	-0.9044443977	-0.420587741	-0.1530717022	 0.066828
H	 0.9589623129	-0.8050521124	-1.9548043391	 0.049919
H	 3.3188677514	-0.238374122	-1.0043604997	 0.088199
H	 2.3748263836	 1.2157140246	-0.6561981762	 0.090117
H	 2.9352401436	 0.2598802495	 1.7193903899	 0.05627
H	 3.4133318578	-2.1987366232	 0.2362986847	 0.081087
H	 2.5175322843	-2.3764836829	 1.7756546462	 0.087918
H	 0.2134136978	-3.5986834032	 0.8772357866	 0.112479
H	-0.7165079641	-2.7356121656	-0.3562033097	 0.115674
H	 0.727990246	-3.6410807705	-0.8142119234	 0.114947
H	 0.4097337422	-0.7003573468	 2.1397958377	 0.054289
159.6217	195.8916	209.6216	243.7096	274.2079	313.6254	446.6345	487.5841	528.0375	580.3991	666.7306	695.8231	744.8249	810.2455	850.3818	868.9595	890.9248	917.7587	931.618	942.065	969.2257	982.9838	1010.6123	1040.6336	1063.8552	1074.869	1082.8214	1100.6539	1137.6985	1167.4629	1174.3838	1189.742	1208.4942	1222.7644	1240.5523	1254.447	1274.1581	1307.6032	1321.9742	1340.5377	1395.0585	1408.4189	1416.776	1487.6345	1490.6993	1492.451	1494.9309	1499.5376	1525.2391	3019.4914	3026.3821	3027.3957	3036.6643	3056.4632	3078.711	3082.0416	3085.9337	3090.5551	3098.8119	3099.0953	3102.3234	3111.9752	3119.8912
CC1C2CC3CC2(C)C13	C[C@H]1[C@H]2C[C@@H]3C[C@@]2(C)[C@H]13	
InChI=1S/C9H14/c1-5-7-3-6-4-9(7,2)8(5)6/h5-8H,3-4H2,1-2H3	InChI=1S/C9H14/c1-5-7-3-6-4-9(7,2)8(5)6/h5-8H,3-4H2,1-2H3/t5-,6+,7+,8+,9+/m0/s1
