18
gdb 55440	3.41214	1.18484	0.92649	1.9435	73.35	-0.2357	-0.0129	0.2227	1242.4767	0.147648	-439.120769	-439.112129	-439.111184	-439.155027	31.325	
C	-0.9750591091	 0.6876755187	 0.4154988672	-0.464366
C	 0.3913922477	 0.3090971407	-0.1094929392	 0.371671
O	 1.4186726359	 0.6675925315	 0.4188586811	-0.301146
C	 0.436596611	-0.537201674	-1.3952883436	-0.068089
C	 1.7911638362	-1.2244523715	-1.5863604805	-0.229691
C	 1.6873184674	-2.1815194217	-2.7642559077	-0.088455
O	 0.5809778127	-3.0905045733	-2.6074858025	-0.223439
C	-0.5067706168	-2.5995564074	-1.97780482	 0.137934
N	-0.6862462101	-1.4718406889	-1.4308066982	-0.290579
H	-1.5936383651	 1.1110992738	-0.3825474707	 0.13751
H	-1.4966404069	-0.2120722374	 0.7541487337	 0.159297
H	-0.8668129234	 1.3988763792	 1.2350217819	 0.131853
H	 0.2816275652	 0.1962283131	-2.2057969497	 0.109443
H	 2.5866065238	-0.4952002187	-1.7542853081	 0.124801
H	 2.0495436472	-1.776747941	-0.6771850681	 0.124446
H	 1.5460408533	-1.6362352641	-3.7062092733	 0.115028
H	 2.5731535292	-2.8126395668	-2.8637268899	 0.124594
H	-1.3016527181	-3.3435170122	-1.9810903724	 0.129187
40.1916	91.9258	131.4504	196.8791	234.6053	301.4079	354.8174	454.6378	500.8438	523.5825	564.8786	626.4382	756.4723	812.4936	856.3136	913.9571	941.8191	969.4313	976.0234	1018.0608	1064.4763	1084.6659	1126.9962	1183.1038	1200.2885	1240.4163	1264.7265	1301.7405	1314.2797	1367.6348	1383.5038	1400.4845	1417.3843	1453.9721	1466.5075	1475.8949	1510.5124	1726.7669	1810.6427	2957.205	3027.4893	3049.7758	3063.2759	3105.7955	3114.0393	3117.4048	3156.8585	3157.9223
CC(=O)C1CCOC=N1	CC(=O)[C@H]1CCOC=N1	
InChI=1S/C6H9NO2/c1-5(8)6-2-3-9-4-7-6/h4,6H,2-3H2,1H3	InChI=1S/C6H9NO2/c1-5(8)6-2-3-9-4-7-6/h4,6H,2-3H2,1H3/t6-/m1/s1
