17
gdb 71092	2.62328	1.58467	1.32847	4.8188	78.41	-0.248	0.0117	0.2597	1018.5118	0.137131	-380.829867	-380.822251	-380.821307	-380.861828	29.72	
C	 0.0539461387	 1.5772152177	 0.0482797214	-0.492978
C	-0.0465656487	 0.0827878903	-0.0129853902	 0.256281
C	 0.367816888	-0.7485338269	-1.2692384773	-0.27645
C	-0.5685741035	-1.8329548374	-0.745329822	-0.141702
C	-0.4698725581	-1.7563726978	 0.7856506004	-0.073953
N	 0.4611112396	-0.6969397778	 1.1626772653	-0.333221
C	-1.3734530848	-0.8021802842	 0.0504186006	 0.243685
C	-2.74981694	-0.5066777074	 0.1371277681	 0.121346
N	-3.8772066229	-0.244994724	 0.1942527318	-0.367574
H	 1.1051294193	 1.886935486	 0.0165580989	 0.126686
H	-0.4608790805	 2.0392170709	-0.7992697398	 0.131756
H	-0.3835367419	 1.9548117462	 0.9760002607	 0.144827
H	-0.0133168548	-0.3045379561	-2.1920632955	 0.118776
H	 1.434460045	-0.9792739081	-1.376995466	 0.094863
H	-0.9687247305	-2.6958364249	-1.2608857321	 0.113561
H	-0.7511806968	-2.5677829475	 1.4440525566	 0.121897
H	 1.443838522	-0.961432859	 1.0644527392	 0.212198
121.3761	135.9939	196.8232	283.9133	309.4151	423.0253	479.8479	530.5298	564.8845	568.8398	629.1653	749.1504	780.6454	810.7287	883.3986	889.1534	922.4871	958.0606	991.2078	1007.9277	1016.7788	1079.4741	1101.4814	1109.3344	1148.4119	1170.2622	1224.5728	1241.9649	1294.5097	1333.3364	1349.8209	1412.6253	1422.9962	1480.5928	1488.4135	1495.7787	2340.1838	3031.959	3036.185	3102.7536	3109.4128	3125.9321	3207.1562	3216.3878	3416.6355
CC12CC3C(N1)C23C#N	C[C@@]12C[C@H]3[C@@H](N1)[C@@]23C#N	
InChI=1S/C7H8N2/c1-6-2-4-5(9-6)7(4,6)3-8/h4-5,9H,2H2,1H3	InChI=1S/C7H8N2/c1-6-2-4-5(9-6)7(4,6)3-8/h4-5,9H,2H2,1H3/t4-,5+,6-,7-/m0/s1
