23
gdb 104030	2.59058	1.33536	1.18149	1.7088	84.1	-0.2541	0.0843	0.3384	1200.8206	0.20595	-388.295524	-388.286507	-388.285563	-388.328689	35.744	
C	 0.2113826656	 1.3111793133	 0.3456055963	-0.40133
C	 0.2942961118	-0.1581056846	-0.0844958161	-0.207188
C	 0.6634067497	-0.4268925212	-1.5670163225	 0.319845
C	-0.3265530814	 0.2762570931	-2.5080389247	-0.444696
C	 2.1361645159	 0.0054699968	-1.8790589773	-0.288254
C	 2.9756083196	-1.2477405126	-1.7580535679	 0.051722
O	 2.772940606	-1.9709590218	-0.5336047257	-0.255604
C	 2.0987450022	-2.4218035825	-1.7190857436	 0.052013
C	 0.6573043248	-1.9738325371	-1.8193335156	-0.289548
H	 1.1491166847	 1.8494480913	 0.1719603222	 0.114857
H	-0.5824100911	 1.8519526619	-0.1788254475	 0.114135
H	-0.0034173134	 1.3768144946	 1.4169164722	 0.113544
H	 1.0219108723	-0.681787325	 0.5418288949	 0.121441
H	-0.6787370991	-0.6300298486	 0.1083597925	 0.085282
H	-0.2703135241	 1.3651189456	-2.4145899493	 0.116233
H	-0.1188004579	 0.0250724011	-3.553827664	 0.106076
H	-1.358553658	-0.0233653514	-2.2915123861	 0.110254
H	 2.2218173826	 0.3858850373	-2.9046680728	 0.095207
H	 2.4866620052	 0.801626653	-1.2154179812	 0.108047
H	 3.9907647796	-1.2768088953	-2.1474323477	 0.089531
H	 2.4030806237	-3.4025450281	-2.0773467461	 0.089875
H	 0.0068596651	-2.4990851184	-1.112140104	 0.104711
H	 0.291232376	-2.2060038814	-2.827359216	 0.093847
98.281	135.215	205.3552	232.0026	263.0911	303.9121	341.6252	350.7411	385.5602	405.6621	458.1465	619.712	675.9166	767.2281	787.0191	809.946	856.9134	864.5674	909.5686	918.4463	946.8586	1000.8887	1009.9181	1019.087	1027.3358	1038.5005	1070.2862	1110.9548	1161.6422	1179.2248	1195.8571	1210.7342	1261.9945	1299.9151	1304.6284	1308.5018	1334.0651	1359.404	1369.3054	1409.7736	1414.9432	1447.8087	1474.378	1483.8345	1489.6399	1497.8323	1501.5341	1508.2702	1513.2891	3014.4188	3023.4237	3029.3236	3033.5207	3038.1174	3075.5906	3081.436	3085.1893	3089.7078	3099.1271	3101.1108	3110.9503	3133.691	3146.7429
CCC1(C)CC2OC2C1	CC[C@@]1(C)C[C@H]2O[C@H]2C1	
InChI=1S/C8H14O/c1-3-8(2)4-6-7(5-8)9-6/h6-7H,3-5H2,1-2H3	InChI=1S/C8H14O/c1-3-8(2)4-6-7(5-8)9-6/h6-7H,3-5H2,1-2H3/t6-,7+,8+
