23
gdb 122876	3.27286	0.73738	0.70899	2.418	79.41	-0.2629	0.0552	0.3181	1732.7512	0.202051	-462.55694	-462.545497	-462.544552	-462.594367	41.202	
C	-0.1792109183	 1.4585678234	-0.0463501121	-0.404501
C	 0.0140784746	-0.0563759356	-0.0055680659	 0.337638
C	 0.7788151572	-0.4875556315	 1.2556834283	-0.413133
O	-1.2963405908	-0.6234087422	-0.0012899024	-0.466362
C	 0.7481206628	-0.5225790923	-1.2714294067	-0.073352
O	 0.748548342	-1.9408183391	-1.2867351636	-0.282647
C	 1.4529743567	-2.5030271769	-2.3812012845	-0.067881
C	 1.2184903892	-4.0039331909	-2.3540928192	-0.062563
O	-0.143439854	-4.3285671322	-2.5513742881	-0.417752
H	 0.7831432561	 1.9785561452	-0.0733467278	 0.111268
H	-0.7618569943	 1.7467025513	-0.9258760051	 0.121826
H	-0.723512285	 1.7865269929	 0.843412748	 0.126391
H	 0.1989646401	-0.2268266841	 2.1449197016	 0.120626
H	 0.9461053991	-1.5681694513	 1.2504060853	 0.118914
H	 1.7545764959	 0.0060114373	 1.3189373228	 0.107117
H	-1.1783699026	-1.569415273	-0.1432678155	 0.277677
H	 0.2311515689	-0.1384699711	-2.1641309474	 0.095272
H	 1.7814048931	-0.1413590936	-1.2813014117	 0.08782
H	 1.0794615769	-2.0847477333	-3.3288929391	 0.100807
H	 2.5286553438	-2.2759006929	-2.304310606	 0.091169
H	 1.7807953497	-4.4755623984	-3.1665166926	 0.111812
H	 1.5978348986	-4.4082691708	-1.40197944	 0.094806
H	-0.6407870597	-3.795024741	-1.9221593182	 0.285047
29.2096	64.1684	106.2704	131.4201	183.6907	203.4094	240.3783	265.3729	303.0978	333.582	345.0911	372.6153	411.0017	412.8768	458.097	531.8192	565.9964	780.2985	874.1118	896.9305	923.1099	925.2671	949.2432	994.5329	1027.852	1060.1751	1085.0549	1130.8384	1147.6571	1156.8185	1209.6824	1232.9108	1258.9647	1267.5148	1300.4657	1351.0713	1385.2923	1389.6612	1402.0392	1419.1653	1428.5977	1445.3198	1476.4732	1485.4454	1494.2424	1497.8233	1499.1287	1509.1004	1519.5771	2968.078	2977.5655	2980.4544	3013.961	3016.4899	3036.7691	3044.3588	3081.6367	3107.8279	3118.3381	3120.4738	3125.4745	3803.065	3813.2036
CC(C)(O)COCCO	CC(C)(O)COCCO	
InChI=1S/C6H14O3/c1-6(2,8)5-9-4-3-7/h7-8H,3-5H2,1-2H3	InChI=1S/C6H14O3/c1-6(2,8)5-9-4-3-7/h7-8H,3-5H2,1-2H3
