17
gdb 35045	2.59891	1.48259	1.46649	1.7155	79.73	-0.2284	0.0064	0.2349	1010.011	0.135954	-384.63676	-384.62892	-384.627975	-384.669155	30.429	
C	-0.1109509099	-1.2390166035	 0.035051661	-0.459134
C	-0.0495203084	-0.037985612	 0.0398298233	 0.366707
C	-0.0045222701	 1.3907668989	 0.0204180272	-0.27419
C	 0.5293813083	 2.1710851449	 1.2206188691	 0.081434
O	 0.9805385259	 1.4354687481	 2.3110517784	-0.25205
C	 2.3924923456	 1.3657511266	 2.4845361889	-0.119788
C	 3.1494835126	 1.1127168274	 1.2078656816	-0.06892
C	 2.6394783163	 1.4551641103	 0.0274268212	-0.074102
C	 1.3354550566	 2.1550201654	-0.0387441606	-0.128652
H	-0.1651363	-2.2990258082	 0.0424533718	 0.192008
H	-0.8211171613	 1.8691956184	-0.5138909561	 0.112851
H	-0.0104674113	 3.0749364614	 1.4973058038	 0.096857
H	 2.7660200445	 2.2841833944	 2.9699502774	 0.105003
H	 2.5516733151	 0.5454521791	 3.1917509862	 0.123066
H	 4.1231619298	 0.6400225676	 1.2943230536	 0.098858
H	 3.1651814786	 1.2524827921	-0.9004229681	 0.097309
H	 1.3094510277	 3.047398479	-0.6578399488	 0.102745
87.0824	116.5305	175.3604	258.0635	338.0302	417.304	501.3614	549.4919	576.6916	596.3895	636.632	650.9369	724.1652	768.1837	786.8223	839.4232	901.6147	925.1286	962.329	987.649	1028.8973	1044.2076	1067.622	1080.2795	1121.5828	1160.0434	1188.2698	1246.037	1267.4726	1343.0919	1358.2472	1393.8146	1416.4902	1426.33	1493.3875	1716.6012	2238.5779	2954.9494	3071.6012	3114.0901	3136.7781	3148.5356	3166.3761	3187.8027	3506.6805
C#CC1C2OCC=CC12	C#C[C@H]1[C@H]2OCC=C[C@@H]12	
InChI=1S/C8H8O/c1-2-6-7-4-3-5-9-8(6)7/h1,3-4,6-8H,5H2	InChI=1S/C8H8O/c1-2-6-7-4-3-5-9-8(6)7/h1,3-4,6-8H,5H2/t6-,7+,8-/m1/s1
