18
gdb 70987	3.23371	1.62211	1.48216	1.5772	76.95	-0.2205	-0.0073	0.2132	961.3429	0.147268	-401.79472	-401.787428	-401.786484	-401.825787	30.32	
C	-0.0525868605	 1.5850673048	 0.0001275591	-0.507352
C	-0.04853217	 0.0798852497	 0.0194222983	 0.209315
N	 1.0449744522	-0.6439835379	-0.8567042631	-0.415191
C	 0.6429004004	-1.8085659692	 0.0424002285	 0.189356
C	 1.1051700829	-2.7859125762	 1.1566952063	-0.191334
O	 0.4133404013	-1.8892997313	 2.1209014177	-0.314579
C	 0.6644057182	-0.8139252936	 1.1510827582	 0.117837
C	-0.8631386581	-1.9802675892	-0.239151056	-0.112963
C	-1.3109964499	-0.726272208	-0.2725627626	-0.112297
H	 0.9320187106	 1.9791536808	 0.2641826239	 0.133057
H	-0.3136284122	 1.9638970566	-0.9942623043	 0.124528
H	-0.788528584	 1.9741682361	 0.7115420835	 0.128281
H	 0.6858837599	-0.7733958192	-1.8060633583	 0.20514
H	 0.6708093012	-3.7897518443	 1.1711280624	 0.115184
H	 2.1815360661	-2.8127492228	 1.3544656653	 0.119161
H	 1.6395172932	-0.3736153029	 1.3819630042	 0.098089
H	-1.3808826642	-2.9232154901	-0.3477594665	 0.103817
H	-2.3051643972	-0.3272680831	-0.4160996867	 0.109952
189.4369	221.4795	260.8131	285.1336	347.9115	407.0537	507.1045	549.3656	579.2945	623.5123	670.2695	716.914	751.3705	806.7157	833.2968	850.4437	882.6639	892.6583	909.8959	943.6471	989.1954	1040.2891	1064.1404	1077.9989	1098.5838	1143.4496	1159.9821	1177.2585	1222.9929	1275.153	1296.0993	1309.256	1320.8299	1388.2112	1411.3058	1482.2501	1489.8051	1498.5904	1627.3507	3034.8884	3040.0141	3058.2023	3099.0793	3108.9276	3120.981	3217.6658	3246.1928	3415.6616
CC12NC3(COC13)C=C2	C[C@@]12N[C@]3(CO[C@H]13)C=C2	
InChI=1S/C7H9NO/c1-6-2-3-7(8-6)4-9-5(6)7/h2-3,5,8H,4H2,1H3	InChI=1S/C7H9NO/c1-6-2-3-7(8-6)4-9-5(6)7/h2-3,5,8H,4H2,1H3/t5-,6+,7+/m1/s1
