18
gdb 14516	3.76733	1.76255	1.48827	1.7573	67.36	-0.2527	0.0766	0.3293	907.8261	0.153133	-384.872493	-384.864984	-384.864039	-384.904179	29.507	
C	 0.7126789872	-0.5122247754	-1.4326761607	-0.377603
C	-0.0306071529	-0.0641143527	-0.1677404779	-0.261638
C	 0.6404006959	-0.5529151029	 1.1049925788	 0.494587
O	 1.900274524	 0.0420758572	 1.178211106	-0.492943
C	-0.1216167365	-0.6612489523	 2.4752729645	-0.031745
C	-0.8881071421	-1.905080273	 1.9835924731	-0.235921
C	 0.5891909538	-2.0553156969	 1.5722819481	-0.023863
O	 0.9693617087	-1.5722713528	 2.933205969	-0.342443
H	 0.7092136774	-1.6035173054	-1.5298979286	 0.110939
H	 0.2408466153	-0.0974978369	-2.3282138503	 0.110874
H	 1.7527423431	-0.1800581634	-1.4045414779	 0.141466
H	-0.0482029212	 1.0311059137	-0.1217906124	 0.112809
H	-1.0715434718	-0.3936923984	-0.2084031556	 0.098801
H	 2.2872926951	-0.3067853348	 1.9954411722	 0.285658
H	-0.4308803285	 0.1234054946	 3.1673478541	 0.094668
H	-1.1910971616	-2.5784106765	 2.7848525728	 0.115608
H	-1.6517365817	-1.7974803233	 1.2132312298	 0.104983
H	 1.1238299757	-2.927635721	 1.193922325	 0.095761
75.6003	171.8392	213.5785	315.1958	331.3903	409.388	444.5454	529.1511	621.8566	626.1694	689.5773	753.6163	786.0435	812.9782	874.6643	896.7395	902.3073	970.0119	1010.0196	1023.4782	1049.2203	1080.9	1118.8054	1131.1754	1138.9215	1165.2174	1205.5341	1217.9522	1264.3773	1275.0874	1327.0699	1350.3335	1406.8335	1434.802	1475.7056	1494.5406	1498.8491	1511.3721	3038.8156	3044.7737	3083.3536	3097.2447	3104.897	3109.4119	3117.6512	3133.5874	3163.3592	3719.7074
CCC1(O)C2CC1O2	CC[C@@]1(O)[C@H]2C[C@@H]1O2	
InChI=1S/C6H10O2/c1-2-6(7)4-3-5(6)8-4/h4-5,7H,2-3H2,1H3	InChI=1S/C6H10O2/c1-2-6(7)4-3-5(6)8-4/h4-5,7H,2-3H2,1H3/t4-,5+,6-
