20
gdb 20015	4.06716	1.26543	1.12429	1.6167	75.35	-0.2614	0.0878	0.3491	1145.9081	0.176613	-348.972257	-348.963734	-348.96279	-349.00557	31.477	
C	-0.5134930744	 1.3215452229	 0.2292579042	-0.372354
C	 0.1525984537	-0.0242156146	-0.0806898281	-0.20797
C	 0.9330013035	-0.5658874379	 1.1013602919	 0.012216
C	 0.2513286666	-1.379262893	 2.1775599763	-0.301717
C	 1.2568929823	-2.0356525584	 1.2649980952	-0.061082
C	 0.8256597216	-3.0647720269	 0.2659075693	 0.063084
C	 0.0675070337	-4.2629127641	 0.6569946918	-0.176696
O	-0.5703158883	-3.1793000585	-0.0230824949	-0.22708
H	 0.2292450702	 2.0781069593	 0.5069035463	 0.108874
H	-1.0656273296	 1.6997265201	-0.6368261377	 0.109213
H	-1.2169258867	 1.2280385334	 1.0632466676	 0.117518
H	-0.6061683844	-0.751879518	-0.3835410607	 0.128229
H	 0.8281478732	 0.0941206966	-0.9386580827	 0.090466
H	 1.7119705488	 0.1073043285	 1.4551160838	 0.077437
H	 0.5173667767	-1.2172532586	 3.2161837969	 0.10505
H	-0.7883504986	-1.6394781716	 2.0070480615	 0.127522
H	 2.2339184219	-2.2573646079	 1.6890286418	 0.085768
H	 1.4575918554	-3.1466076377	-0.6207946498	 0.092101
H	 0.1620926054	-5.181749767	 0.0802714104	 0.113653
H	-0.2208818911	-4.3891264468	 1.699317477	 0.115767
78.362	99.6349	127.1401	201.8273	237.8428	255.6868	326.1351	408.3254	531.6624	607.1763	732.5359	768.5684	802.8743	851.3071	853.5243	902.2498	952.7065	966.8101	990.5067	1021.8821	1072.0556	1079.7443	1098.964	1114.0445	1133.4781	1145.0397	1160.525	1174.6629	1202.0343	1234.5041	1288.1375	1306.9029	1345.572	1389.5433	1410.5358	1424.3151	1435.1213	1485.4867	1495.6745	1498.3694	1508.6736	1523.9905	3018.1985	3029.7488	3079.628	3083.6276	3088.4609	3100.103	3104.2924	3118.6823	3129.2099	3133.8853	3174.961	3219.3521
CCC1CC1C1CO1	CC[C@H]1C[C@H]1[C@H]1CO1	
InChI=1S/C7H12O/c1-2-5-3-6(5)7-4-8-7/h5-7H,2-4H2,1H3	InChI=1S/C7H12O/c1-2-5-3-6(5)7-4-8-7/h5-7H,2-4H2,1H3/t5-,6+,7+/m0/s1
