24
gdb 58506	2.47102	1.31481	1.21228	1.5335	88.44	-0.2241	0.0837	0.3079	1221.5317	0.216856	-368.376639	-368.366993	-368.366049	-368.41035	38.093	
C	 0.1028351713	 1.4896052714	-0.1212725202	-0.405015
C	 0.0156926331	-0.0289740505	 0.0894941409	 0.001162
C	 0.7566693664	-0.4497580695	 1.3675378394	-0.406301
C	-1.4341177301	-0.5517361133	 0.0478103716	 0.364307
C	-2.3447580982	 0.0179876171	 1.1374500816	-0.467473
C	-2.1435739791	-0.489796037	-1.3685952199	-0.291208
C	-2.2866201379	-2.0122051995	-1.3258369017	-0.040977
N	-0.9060664237	-2.5547594049	-1.2573774357	-0.340228
C	-1.5808166329	-2.091699338	-0.0214851774	-0.10107
H	 1.1461059333	 1.8022499723	-0.2359564333	 0.108641
H	-0.4373279118	 1.8058774311	-1.01981762	 0.111257
H	-0.3099632518	 2.0439822831	 0.7290117524	 0.109618
H	 0.5222679023	-0.5134628545	-0.7527778289	 0.093951
H	 0.3397225995	 0.0287701014	 2.260715222	 0.108883
H	 0.716372315	-1.533902777	 1.5154419034	 0.112098
H	 1.8123951899	-0.1643056736	 1.3101471295	 0.108775
H	-2.4566379593	 1.102210707	 1.0390208614	 0.117348
H	-3.3442614839	-0.4256342591	 1.0725263695	 0.109851
H	-1.9582720261	-0.1921435536	 2.1401994619	 0.113512
H	-3.0952720036	 0.0455914452	-1.3349853228	 0.096376
H	-1.5405003728	-0.1130022211	-2.1987879549	 0.101779
H	-3.0949852389	-2.6174964981	-1.7175854577	 0.088411
H	-0.9815787567	-3.5716948472	-1.2729150865	 0.225228
H	-1.7326964438	-2.7677301815	 0.8128875757	 0.081073
76.6856	158.327	197.225	232.7151	245.351	254.3906	287.1063	315.5421	324.1803	419.6187	439.0424	457.9014	543.3377	627.3242	762.992	807.7345	838.8109	860.7089	884.6399	926.518	931.1615	935.8956	955.2557	969.164	974.8791	1009.8723	1055.2211	1088.4568	1100.9803	1126.5237	1150.8554	1164.2303	1182.3881	1203.2212	1233.3739	1273.2165	1306.5668	1323.1979	1362.2416	1371.7229	1383.7658	1398.3092	1408.3866	1422.439	1475.9217	1486.5662	1489.9904	1495.0131	1508.9096	1510.4614	1513.6092	3026.9164	3028.5112	3033.567	3043.178	3059.5412	3089.2751	3092.3003	3097.0537	3097.8077	3100.6761	3106.201	3116.8952	3167.2105	3188.1606	3469.4708
CC(C)C1(C)CC2NC12	CC(C)[C@@]1(C)C[C@H]2N[C@@H]12	
InChI=1S/C8H15N/c1-5(2)8(3)4-6-7(8)9-6/h5-7,9H,4H2,1-3H3	InChI=1S/C8H15N/c1-5(2)8(3)4-6-7(8)9-6/h5-7,9H,4H2,1-3H3/t6-,7-,8-/m1/s1
