16
gdb 29381	5.48503	0.8781	0.78447	2.5121	77.27	-0.1862	0.0261	0.2123	1395.1712	0.125878	-396.974609	-396.965934	-396.96499	-397.008717	31.79	
N	-0.2539455699	 1.4119477443	 0.5329995522	-0.605421
C	-0.0383496797	 0.0753488488	 0.1481412682	 0.26734
C	-0.965926448	-0.8096912985	-0.359787738	-0.164274
N	-0.3447440638	-2.0359712623	-0.4959496421	-0.305903
C	 0.9619850402	-1.9369319128	-0.1120169714	 0.3509
C	 1.8890613065	-3.1195269797	-0.1087668762	-0.450428
C	 1.6391539467	-4.0346167796	-1.2255747941	 0.258789
N	 1.3932551303	-4.7544413557	-2.0956194408	-0.314177
C	 1.1850893431	-0.6411878145	 0.3016527417	-0.31976
H	 0.5531838901	 1.9959879795	 0.35351333	 0.240722
H	-1.0572384373	 1.8217899053	 0.0734092357	 0.238831
H	-1.9990407148	-0.6728201242	-0.6338562367	 0.109931
H	-0.7535803074	-2.8466004536	-0.9289018601	 0.270988
H	 2.9249951586	-2.7698861633	-0.1632304984	 0.168394
H	 1.8080064981	-3.7018533118	 0.8204176361	 0.164993
H	 2.1139488472	-0.250560012	 0.690306454	 0.089075
31.2547	101.4282	177.5604	210.4007	267.511	321.7939	378.0841	411.5151	443.3137	480.2413	621.9419	637.2974	669.7182	683.5779	758.0569	762.5425	799.9662	929.3657	936.9219	994.0675	1004.4001	1104.3408	1133.4827	1178.8	1219.9998	1295.5975	1324.8299	1337.4452	1455.3463	1463.877	1495.9162	1544.9326	1640.7398	1661.0925	2360.3676	3006.0854	3081.6315	3239.3332	3266.8572	3531.1185	3618.7656	3672.5491
NC1=CNC(CC#N)=C1	Nc1c[nH]c(CC#N)c1	
InChI=1S/C6H7N3/c7-2-1-6-3-5(8)4-9-6/h3-4,9H,1,8H2	InChI=1S/C6H7N3/c7-2-1-6-3-5(8)4-9-6/h3-4,9H,1,8H2
