13
gdb 46176	1.89724	1.6626	1.31316	3.2709	70.71	-0.2716	-0.0618	0.2098	1028.9333	0.086951	-415.559323	-415.55086	-415.549916	-415.59272	30.3	
O	-0.0172730532	 0.0160414428	-0.1357448528	-0.239531
C	-0.0667440773	 1.1883074085	 0.0053275528	 0.371251
C	-1.1307508698	 2.2476715608	 0.2819289033	-0.280793
N	-0.0467306236	 3.2158298449	 0.5811040221	-0.334189
C	 1.0409575796	 2.3495774164	 0.0385041638	-0.146065
C	 2.183390572	 2.1388072788	 0.9057612114	 0.301688
C	 3.111102656	 1.9174033141	 1.6348615945	-0.376181
C	 1.438817821	 2.692409952	-1.3323375524	 0.257197
N	 1.6885880145	 2.9857096654	-2.4228232457	-0.324768
H	-1.7293356355	 2.4536069931	-0.6162403639	 0.151366
H	-1.803312796	 2.0449698715	 1.1209309534	 0.155771
H	-0.1226801784	 4.1156370982	 0.1211490398	 0.25014
H	 3.9367459706	 1.7332603934	 2.2780552736	 0.214115
92.6468	114.0718	120.8391	155.0745	241.5494	352.0965	389.4914	481.8786	535.2927	557.3	577.8038	607.4218	645.7704	679.5895	683.8821	772.6585	915.3598	987.0196	1008.5921	1041.331	1060.924	1136.5853	1184.0551	1282.3693	1367.1951	1474.6845	1951.718	2244.2532	2342.9689	3018.365	3087.1691	3498.1361	3558.9904
O=C1CNC1(C#C)C#N	O=C1CN[C@]1(C#C)C#N	
InChI=1S/C6H4N2O/c1-2-6(4-7)5(9)3-8-6/h1,8H,3H2	InChI=1S/C6H4N2O/c1-2-6(4-7)5(9)3-8-6/h1,8H,3H2/t6-/m1/s1
