19
gdb 53951	2.45792	1.24826	1.22232	1.7129	71.27	-0.2371	-0.0187	0.2184	1164.9187	0.155596	-460.161786	-460.151939	-460.150995	-460.19672	36.064	
C	-0.0381974576	 1.389764543	-0.4550094302	-0.477548
C	 0.0070362604	-0.0328980066	 0.0531942368	 0.351602
O	 1.030554757	-0.5728335915	 0.4076326774	-0.319468
C	-1.3357787921	-0.809787012	 0.1384034334	 0.21722
C	-1.6688500638	-1.0044600668	 1.6226401994	-0.404947
O	-2.400163674	-0.1013138424	-0.4667704701	-0.471807
C	-1.1459893697	-2.1569860734	-0.5584277233	 0.055868
C	-2.2938538487	-2.9357641037	-1.0263474279	-0.191315
O	-1.5115640761	-2.1530880177	-1.9469077693	-0.260011
H	 0.943629172	 1.8493286875	-0.3365904354	 0.137666
H	-0.3229502727	 1.3966494322	-1.5131646833	 0.144497
H	-0.8066103394	 1.965090826	 0.0688551274	 0.150779
H	-1.8184233242	-0.0343227012	 2.1055892851	 0.129961
H	-2.5907534898	-1.5827189623	 1.7226315689	 0.123966
H	-0.8523894826	-1.5242304916	 2.128596617	 0.141002
H	-2.3785297123	-0.3452032816	-1.4046980456	 0.291972
H	-0.2071746552	-2.6563453862	-0.3331885394	 0.1237
H	-2.2010186596	-4.0127364704	-1.1478729937	 0.127047
H	-3.2993925517	-2.5613239715	-0.8497694471	 0.129815
40.6321	105.5925	160.0798	184.5334	220.0132	239.7758	249.9911	307.7776	347.0739	384.8165	485.5875	507.3887	566.8909	585.3947	624.1948	708.868	814.4934	861.7436	921.631	946.734	973.8709	1008.2795	1020.3387	1091.1102	1115.82	1131.8608	1162.4086	1184.1354	1228.6813	1245.1947	1282.4958	1370.5746	1382.9424	1400.208	1424.2791	1452.1694	1467.8064	1485.6224	1494.7602	1517.5771	1803.4308	3045.7553	3048.6151	3101.9359	3109.2014	3121.5075	3141.1217	3157.478	3158.2545	3195.1733	3712.7586
CC(=O)C(C)(O)C1CO1	CC(=O)[C@@](C)(O)[C@H]1CO1	
InChI=1S/C6H10O3/c1-4(7)6(2,8)5-3-9-5/h5,8H,3H2,1-2H3	InChI=1S/C6H10O3/c1-4(7)6(2,8)5-3-9-5/h5,8H,3H2,1-2H3/t5-,6-/m1/s1
