19
gdb 108005	3.73021	1.49423	1.36273	1.5389	77.01	-0.2414	0.0884	0.3298	1014.3795	0.159662	-385.814986	-385.80773	-385.806786	-385.846633	29.52	
C	-0.0173421022	 1.5646224086	 0.028052203	-0.382806
C	-0.0928068671	 0.0369638775	-0.0562029939	-0.318711
C	-1.4901678245	-0.5019183348	 0.0579542885	 0.477742
O	-2.4421050903	 0.0263284717	-0.9066955297	-0.333107
C	-3.4613155783	-0.4399193516	 0.000108051	 0.074454
C	-3.3019399911	-1.9809386408	 0.1419778832	-0.098545
C	-2.5708913407	-1.8777234541	 1.4617626306	-0.112301
C	-1.7774559277	-2.0300421021	 0.1842171891	-0.145415
C	-2.5172609352	-0.3367332092	 1.2378345009	-0.163212
H	 1.0125604939	 1.9123536718	-0.0940954203	 0.10943
H	-0.6332227896	 2.0221764829	-0.749926084	 0.138416
H	-0.3796802948	 1.9252351349	 0.9965968277	 0.113097
H	 0.3265025168	-0.3079579102	-1.0110353253	 0.110144
H	 0.5152375738	-0.4235519489	 0.7324372493	 0.105751
H	-4.4359740696	 0.0254986594	-0.1363265156	 0.077951
H	-3.9104814505	-2.7829375659	-0.2523519467	 0.091629
H	-2.6149422674	-2.4916536735	 2.3489086305	 0.091373
H	-1.199099891	-2.8698461869	-0.177303831	 0.087971
H	-2.5163036344	 0.467755311	 1.9690393526	 0.07614
89.7575	170.7569	194.8342	285.9884	369.6515	553.2929	576.8917	606.6983	737.9421	758.0681	778.4668	807.2795	816.9197	841.4711	855.4107	867.278	877.8789	908.4167	930.4281	976.9746	983.3082	1004.4345	1015.6451	1037.1006	1046.4174	1104.6767	1120.8673	1144.157	1169.1607	1182.3914	1227.6075	1250.3073	1275.9495	1282.4905	1319.4259	1356.7603	1399.7151	1409.6794	1468.2808	1495.9187	1508.2633	3019.7399	3041.118	3056.8718	3105.7577	3128.2038	3134.1144	3150.2804	3200.5523	3210.3494	3229.484
CCC12OC3C4C(C14)C23	CC[C@@]12O[C@H]3[C@@H]4[C@@H]([C@H]14)[C@@H]23	
InChI=1S/C8H10O/c1-2-8-5-3-4(5)7(9-8)6(3)8/h3-7H,2H2,1H3	InChI=1S/C8H10O/c1-2-8-5-3-4(5)7(9-8)6(3)8/h3-7H,2H2,1H3/t3-,4+,5-,6+,7-,8+/m0/s1
