21
gdb 107471	2.16164	1.55676	1.26552	1.6452	78.22	-0.2459	0.0698	0.3157	1138.6565	0.179752	-424.199958	-424.190279	-424.189335	-424.234038	36.885	
C	 0.0312770521	 1.4950658012	 0.4043975324	-0.38404
C	 0.0333270158	 0.0433542803	-0.095886443	-0.310956
C	-1.3369546539	-0.5521441466	-0.1782294512	 0.42624
O	-2.0507328476	-0.8490000847	 1.0318325638	-0.305187
C	-1.8596761312	-1.9046940381	 0.0731242823	-0.057255
C	-2.9629828028	-1.759352236	-0.9760311465	-0.308837
C	-2.4287912293	-0.2979957538	-1.2563430889	 0.341228
C	-3.397497764	 0.8487171202	-1.0171755049	-0.46306
O	-1.7684258796	-0.1929347064	-2.5064703231	-0.48225
H	 1.0532318594	 1.8758892164	 0.4904014766	 0.112358
H	-0.5113457684	 2.1518585189	-0.2824818386	 0.123493
H	-0.4431086784	 1.5658601587	 1.3876753566	 0.130615
H	 0.486931284	-0.0115565384	-1.0912586057	 0.122457
H	 0.6377797324	-0.57921677	 0.5736638495	 0.105172
H	-1.3549636065	-2.7984640816	 0.4230053646	 0.100034
H	-2.8087312346	-2.3917817711	-1.8533793767	 0.104701
H	-3.9851751931	-1.8641068169	-0.6027187445	 0.100471
H	-3.7859743465	 0.8076865955	 0.0030007855	 0.14022
H	-2.9032057671	 1.8123127145	-1.1732957598	 0.122667
H	-4.2489381822	 0.7859197875	-1.7069130136	 0.103801
H	-2.4389674986	-0.1084167095	-3.1927056647	 0.278129
64.2555	126.7227	186.3704	202.9787	247.7665	259.9828	276.925	289.6084	349.9754	420.8554	449.7816	492.08	516.7153	647.1493	674.9034	754.6057	815.4377	842.3493	901.4753	934.2164	949.4973	959.8107	984.8096	1000.954	1063.9651	1084.9968	1111.5018	1120.9367	1185.2482	1198.5036	1232.8726	1245.7432	1261.3912	1305.5965	1352.9254	1380.1137	1396.1361	1406.9009	1450.0596	1469.0083	1477.8685	1488.2458	1501.164	1502.1194	1509.9006	3024.5967	3039.3277	3041.3151	3059.086	3081.4898	3093.0283	3110.7057	3118.0547	3123.4907	3131.9952	3178.8308	3805.7932
CCC12OC1CC2(C)O	CC[C@]12O[C@H]1C[C@]2(C)O	
InChI=1S/C7H12O2/c1-3-7-5(9-7)4-6(7,2)8/h5,8H,3-4H2,1-2H3	InChI=1S/C7H12O2/c1-3-7-5(9-7)4-6(7,2)8/h5,8H,3-4H2,1-2H3/t5-,6-,7-/m0/s1
