17
gdb 69560	2.7948	1.58473	1.37303	2.1919	67.69	-0.2427	0.0523	0.295	999.1749	0.133916	-458.887425	-458.87949	-458.878546	-458.919376	31.059	
C	-0.138520867	 1.5231948194	 0.039045667	-0.51159
C	 0.1441440631	 0.058157417	-0.0125415829	 0.418909
O	-0.7047997929	-0.8288230503	 0.728184847	-0.268264
C	 0.7005129877	-0.9061411513	 0.9648001584	-0.102402
C	 1.3142044003	-1.7825237564	-0.1549266251	 0.33037
O	 2.652313468	-2.0693584654	 0.0718175334	-0.475761
C	 0.3626495462	-2.7977530508	-0.8394498189	-0.140795
O	-0.118450397	-1.7817728026	-1.7564254648	-0.280752
C	 0.7410202029	-0.7791658036	-1.1953476673	-0.06271
H	 0.7194078976	 2.09740474	-0.3250019711	 0.127202
H	-1.0024986323	 1.7709902522	-0.5876027835	 0.139172
H	-0.358830814	 1.8334606811	 1.064099622	 0.136956
H	 1.0613940484	-0.7880198398	 1.9809626738	 0.10907
H	 3.0329395615	-2.4348945674	-0.7342820809	 0.289173
H	 0.8935843257	-3.5979556447	-1.3741016919	 0.088808
H	-0.4395189107	-3.2198278837	-0.2284998206	 0.122631
H	 1.3395131926	-0.2301871136	-1.9279026646	 0.079983
147.5092	186.8764	249.5373	255.3199	292.6773	319.3437	352.2511	378.8843	508.8989	557.0028	589.2939	689.588	762.6546	824.9557	842.7128	890.1808	902.3811	988.8379	997.4809	1013.3354	1029.6344	1059.1606	1082.0313	1095.4911	1146.3523	1150.8171	1197.3577	1218.0062	1273.2157	1284.1129	1351.467	1399.5062	1403.759	1455.5659	1480.6952	1490.679	1497.8802	3004.4381	3035.1119	3076.638	3096.1794	3099.8667	3120.2693	3179.4588	3804.8915
CC12OC1C1(O)COC21	C[C@]12O[C@H]1[C@@]1(O)CO[C@@H]21	
InChI=1S/C6H8O3/c1-5-3-6(7,2-8-3)4(5)9-5/h3-4,7H,2H2,1H3	InChI=1S/C6H8O3/c1-5-3-6(7,2-8-3)4(5)9-5/h3-4,7H,2H2,1H3/t3-,4+,5+,6+/m0/s1
