23
gdb 113069	2.05007	1.11603	0.89434	2.6069	81.7	-0.2574	0.0732	0.3306	1427.9637	0.204534	-425.401731	-425.391225	-425.390281	-425.4373	38.601	
C	-0.7356035615	 1.311827189	-0.1177947856	-0.415577
C	-0.1707238952	-0.1033418436	-0.0237531375	-0.012275
C	 1.0278700372	-0.5462310584	-0.9300769696	 0.016118
C	 1.875611118	 0.5591841654	-1.5379683651	-0.092541
O	 2.9808907994	-0.0627212036	-2.1805427072	-0.42236
C	 1.6661054021	-1.2491113648	 0.3020142625	-0.230327
C	 0.6351594029	-0.5587734016	 1.2401036445	 0.016119
C	 1.2138780056	 0.5380481225	 2.1188569591	-0.09254
O	 2.0251025258	-0.0932560885	 3.10103959	-0.422361
H	 0.0276451559	 2.0829823469	 0.0247832543	 0.112588
H	-1.1967956137	 1.4828510637	-1.0967900504	 0.11408
H	-1.5109726315	 1.4728153685	 0.6393474054	 0.114081
H	-0.9959703127	-0.8064740229	-0.1771523951	 0.074803
H	 0.7455497586	-1.2210023713	-1.7439741809	 0.071333
H	 1.2763002323	 1.1424870541	-2.2561229054	 0.081769
H	 2.2206993238	 1.2583250439	-0.7593246499	 0.079915
H	 3.5474335314	 0.6270522194	-2.5380441947	 0.284154
H	 1.5679208039	-2.3364789493	 0.2779614817	 0.095921
H	 2.7144943202	-1.0083583247	 0.4931212739	 0.109926
H	 0.0868939612	-1.2420381611	 1.8958513668	 0.071336
H	 1.8085597648	 1.2451388635	 1.5184055799	 0.079917
H	 0.3997245303	 1.1145112447	 2.5879076344	 0.081769
H	 2.4293615611	 0.5913328282	 3.6418512792	 0.284155
62.4961	117.016	119.8904	169.6232	179.0316	231.8028	245.1295	269.1057	277.3498	309.3648	372.6765	443.6109	495.8251	499.6448	692.9748	819.2363	831.9427	849.0571	925.2663	929.4893	949.821	979.3727	1022.3178	1066.5986	1068.7748	1094.444	1103.3409	1158.957	1162.6833	1168.0579	1188.9503	1237.6958	1248.9409	1263.6428	1269.1433	1270.3471	1298.7702	1311.1265	1359.8846	1371.1255	1372.5412	1408.5966	1455.7712	1463.5366	1492.1243	1497.8703	1498.3131	1517.6565	1525.6134	2957.6182	2962.4737	2981.7867	2990.7226	3029.1693	3036.6486	3056.1916	3059.2935	3072.3561	3088.8741	3101.7949	3119.0546	3828.7768	3828.9494
CC1C(CO)CC1CO	C[C@H]1[C@@H](CO)C[C@H]1CO	
InChI=1S/C7H14O2/c1-5-6(3-8)2-7(5)4-9/h5-9H,2-4H2,1H3	InChI=1S/C7H14O2/c1-5-6(3-8)2-7(5)4-9/h5-9H,2-4H2,1H3/t5-,6+,7-
