21
gdb 111324	2.40257	1.40731	1.05185	1.7438	82.29	-0.2481	0.0805	0.3286	1229.9458	0.181917	-387.041335	-387.032636	-387.031692	-387.074743	33.628	
C	 0.073476836	 1.6326302989	 0.0406367417	-0.380137
C	-0.097526951	 0.1103359802	 0.0072589028	-0.201446
C	 0.6558050511	-0.5438289208	-1.1470160837	-0.070015
C	 2.2018211854	-0.5639785162	-1.1455976451	-0.061825
C	 2.737620553	-1.4693705054	-0.0727620503	-0.288482
C	 2.2083531218	-2.0852197451	-1.3423134299	-0.151121
C	 0.69585608	-2.0830653714	-1.2921537232	 0.44434
C	-0.2406728734	-3.1260687299	-0.8678660817	-0.27198
O	-0.1005715264	-2.7531948687	-2.2507059935	-0.287361
H	 1.1276174321	 1.908123122	 0.1521800061	 0.12047
H	-0.2933192917	 2.0924653113	-0.8838821163	 0.115261
H	-0.476909475	 2.0772643843	 0.8753786212	 0.112144
H	 0.2377681413	-0.3176396144	 0.9599917661	 0.094143
H	-1.163280204	-0.1382188954	-0.0802842885	 0.099053
H	 0.2962696616	-0.1400805206	-2.1010123221	 0.08947
H	 2.829556251	 0.1716905114	-1.6324579846	 0.089863
H	 3.8181350344	-1.4791287941	 0.0297392962	 0.114787
H	 2.2060195833	-1.6057080291	 0.8655987344	 0.110465
H	 2.8109445342	-2.6958818206	-2.0027023724	 0.09895
H	 0.1319357742	-4.117376104	-0.611860072	 0.112046
H	-1.192204008	-2.8561050625	-0.4113328952	 0.111374
79.5345	124.6379	154.5054	210.4426	267.8144	275.99	302.9424	438.9644	473.9348	535.137	584.989	731.9754	770.0219	794.2051	830.6444	859.6053	899.4644	932.12	935.011	963.3295	973.4482	1010.8887	1024.7084	1062.3603	1087.1224	1095.0776	1113.0028	1121.3848	1149.1427	1151.7635	1181.1719	1192.2156	1226.2419	1281.0349	1290.5821	1339.9489	1342.3272	1388.8101	1411.8569	1438.8411	1482.372	1492.7134	1500.0022	1507.3343	1535.0684	3020.2087	3031.0027	3038.0531	3056.5218	3078.0437	3098.6227	3104.0674	3113.4764	3163.9302	3185.8067	3193.2551	3204.635
CCC1C2CC2C11CO1	CC[C@H]1[C@H]2C[C@H]2[C@]21CO2	
InChI=1S/C8H12O/c1-2-6-5-3-7(5)8(6)4-9-8/h5-7H,2-4H2,1H3	InChI=1S/C8H12O/c1-2-6-5-3-7(5)8(6)4-9-8/h5-7H,2-4H2,1H3/t5-,6+,7-,8-/m1/s1
