20
gdb 107169	2.78837	1.4158	1.14931	3.0238	78.22	-0.2528	0.0843	0.3371	1133.3472	0.172016	-403.086885	-403.078583	-403.077638	-403.119571	32.659	
C	-0.0701667518	 1.5429621614	-0.0356529545	-0.422662
C	 0.1251548117	 0.042323038	 0.0238699052	 0.00096
C	 1.4394306783	-0.66762138	-0.1856478964	-0.099581
C	 2.5906790573	 0.0614585182	 0.472827922	-0.101799
N	 3.1611609582	-0.7069095541	 1.5873722047	-0.390717
C	 1.8938229101	 0.0026818741	 1.8085611132	 0.318713
C	 1.8893875835	 0.9894145333	 2.9485081194	-0.156653
O	 3.1466115261	 1.6112847984	 3.0960468026	-0.422386
C	 0.7193864878	-0.7236130334	 1.1837726748	-0.182328
H	 0.7803567023	 2.0860834863	 0.3812473266	 0.136886
H	-0.1981443264	 1.8706320229	-1.0731502723	 0.117932
H	-0.96672986	 1.8407972119	 0.5190087877	 0.118425
H	-0.7003165585	-0.5086497566	-0.4274937502	 0.088217
H	 1.5465039373	-1.4752790972	-0.9020681248	 0.090183
H	 3.1954609369	 0.857358433	 0.0553879451	 0.106698
H	 3.0367975187	-1.7101345493	 1.4707940049	 0.227312
H	 1.1462000697	 1.775263106	 2.7728915546	 0.108894
H	 1.5865638891	 0.4618338769	 3.8711876334	 0.083905
H	 3.7936854331	 0.9157422503	 2.9084084021	 0.290768
H	 0.2100174468	-1.5741294201	 1.6250239118	 0.087232
93.7784	169.0236	178.2436	225.1769	245.2702	331.8999	397.0103	465.3887	503.2505	527.4728	639.7932	682.8293	734.1883	777.4451	808.2214	849.8974	897.6004	953.225	966.2682	993.8011	1017.4177	1037.6873	1071.2202	1072.5438	1077.2208	1096.6376	1116.7741	1141.6196	1168.9182	1206.4377	1222.957	1236.924	1269.8535	1306.8387	1327.2102	1370.5078	1407.4984	1413.3724	1439.6673	1463.9686	1497.6389	1500.5541	1516.8517	2939.7399	3034.6218	3058.8715	3091.1714	3106.2238	3130.9241	3159.6848	3171.0536	3190.6877	3477.1371	3726.2268
CC1C2C3NC3(CO)C12	C[C@H]1[C@H]2[C@@H]3N[C@]3(CO)[C@@H]12	
InChI=1S/C7H11NO/c1-3-4-5(3)7(2-9)6(4)8-7/h3-6,8-9H,2H2,1H3	InChI=1S/C7H11NO/c1-3-4-5(3)7(2-9)6(4)8-7/h3-6,8-9H,2H2,1H3/t3-,4+,5-,6-,7+/m0/s1
