17
gdb 49407	4.44002	1.29294	1.26352	3.23	75.26	-0.2357	-0.0219	0.2138	1015.8046	0.136866	-384.619601	-384.612946	-384.612002	-384.65105	26.671	
O	-0.0795609238	-0.0764115591	-0.1828539733	-0.258614
C	-0.0328987239	 1.115219369	 0.0051404996	 0.145169
C	 1.222472158	 1.9340977328	 0.0094034206	-0.08572
C	 1.2962869297	 3.2384954341	-0.8469522664	-0.086681
C	 0.2430146863	 4.2298459886	-0.2982144749	-0.070012
C	 0.3963340115	 3.9865990368	 1.2050084127	-0.06998
C	 1.2459295391	 5.0266967839	 0.5075342167	-0.110006
C	 2.2607822359	 3.8804767792	 0.2185882033	-0.04874
C	 1.5047915224	 2.907521827	 1.1982519291	-0.086701
H	-0.9642235559	 1.6974064814	 0.1943793499	 0.0705
H	 2.0846996616	 1.2888187273	-0.1829023842	 0.089984
H	 1.4949984982	 3.2112190197	-1.9170313185	 0.076981
H	-0.6854314562	 4.5574299603	-0.745823225	 0.093147
H	-0.4149537634	 4.1284035916	 1.9059958302	 0.093143
H	 1.345931791	 6.091288583	 0.6696113225	 0.093286
H	 3.3410425964	 3.9391257586	 0.1179643786	 0.077251
H	 1.9092308131	 2.5536669557	 2.1450875291	 0.076992
72.4373	145.5787	246.4177	421.7089	492.0313	559.2268	720.66	766.053	788.1466	799.1288	817.7012	826.7474	843.8395	864.2933	869.3325	910.539	966.8955	985.5502	989.2331	1023.94	1040.6019	1057.4306	1062.7453	1079.8251	1123.8948	1149.0518	1165.3253	1178.4628	1192.977	1226.0616	1244.4555	1252.623	1301.5269	1309.7093	1357.0596	1429.239	1817.6675	2865.9757	3080.1624	3130.0244	3130.3281	3155.4479	3199.4801	3201.2016	3216.325
O=CC1C2C3C4C3C2C14	O=C[C@H]1[C@H]2[C@H]3[C@@H]4[C@H]3[C@H]2[C@H]14	
InChI=1S/C8H8O/c9-1-2-3-5-4(2)7-6(3)8(5)7/h1-8H	InChI=1S/C8H8O/c9-1-2-3-5-4(2)7-6(3)8(5)7/h1-8H/t2-,3+,4-,5+,6-,7+,8-
