16
gdb 43476	2.57368	1.82184	1.27651	2.7943	69.44	-0.258	-0.0248	0.2332	971.8029	0.127773	-437.955581	-437.948813	-437.947869	-437.986784	26.928	
O	 0.0041714479	-0.0522952564	 0.0400264712	-0.347791
C	 0.0378931647	 1.154083305	 0.0108767824	 0.417429
N	-1.1233528816	 1.9309667821	-0.0085255733	-0.35124
C	-1.1145162372	 3.3278210522	-0.0422293208	 0.417429
O	-2.132061775	 3.9771829879	-0.0585483075	-0.347791
C	 0.2956669691	 3.8890687327	-0.0550111364	-0.12529
C	 1.1373428891	 3.1026273091	-1.1066704913	-0.242984
C	 1.2941586551	 2.0056591424	-0.0089651712	-0.12529
C	 1.1361381039	 3.1543370516	 1.0343295616	-0.242983
H	-2.0175966349	 1.4571491732	 0.0024038892	 0.265352
H	 0.2569939059	 4.976313691	-0.0812934494	 0.099196
H	 0.6652860151	 2.8292344808	-2.0527704104	 0.12243
H	 2.0888551619	 3.6023497955	-1.2996833774	 0.119954
H	 2.1724455362	 1.3632855878	 0.0070445548	 0.099196
H	 2.0874436021	 3.6628257915	 1.2040622306	 0.119953
H	 0.6630111979	 2.9269225135	 1.991993358	 0.122429
132.3823	160.9587	319.7487	366.5072	421.1715	444.1191	529.4082	577.4375	677.6715	731.9349	753.7407	771.4434	828.8736	855.8925	904.1015	921.1647	928.7198	1006.787	1018.8951	1070.7533	1082.8784	1101.4119	1145.6487	1227.3049	1249.724	1253.5902	1274.019	1316.1088	1335.6195	1348.534	1389.9268	1484.739	1517.257	1820.917	1841.1984	3069.5984	3072.2764	3129.1751	3129.4646	3139.0692	3140.2354	3595.3032
O=C1NC(=O)C2CC1C2	O=C1NC(=O)[C@@H]2C[C@H]1C2	
InChI=1S/C6H7NO2/c8-5-3-1-4(2-3)6(9)7-5/h3-4H,1-2H2,(H,7,8,9)	InChI=1S/C6H7NO2/c8-5-3-1-4(2-3)6(9)7-5/h3-4H,1-2H2,(H,7,8,9)/t3-,4+
