23
gdb 122550	4.8639	0.65424	0.63077	1.7421	86.04	-0.2488	0.0879	0.3367	1872.4885	0.204928	-388.259477	-388.249851	-388.248907	-388.294932	35.645	
C	-0.1468640055	 1.5477153438	 0.0084275112	-0.379968
C	 0.0600791609	 0.0317414656	-0.0471564243	-0.161884
C	 0.7014084412	-0.5369029474	 1.223388669	-0.159972
C	 0.9037002514	-2.0556960031	 1.1746409961	-0.201375
C	 1.5373464703	-2.626635565	 2.4378307525	-0.010941
C	 0.7038988783	-2.6331241429	 3.7798468148	-0.268879
C	 0.8589844285	-4.1581588108	 3.8123566737	 0.034904
O	 0.2835638604	-4.6661873385	 2.6018547694	-0.245807
C	 1.6238910892	-4.160514648	 2.556226993	 0.00541
H	 0.8055480849	 2.0729825125	 0.1423592729	 0.111856
H	-0.6071273401	 1.9235571103	-0.9107987174	 0.110503
H	-0.7971920025	 1.8277569241	 0.8447915299	 0.11269
H	-0.9043351925	-0.4648615926	-0.2170219067	 0.096304
H	 0.6863449075	-0.2218920756	-0.9128242072	 0.093226
H	 1.6692873151	-0.0435879018	 1.3927495237	 0.087193
H	 0.0766655566	-0.2783891269	 2.0895826625	 0.09445
H	-0.0584102977	-2.5558388141	 1.0119039335	 0.110529
H	 1.5355742079	-2.309411203	 0.3116202634	 0.089064
H	 2.5201578615	-2.1756003628	 2.6156873499	 0.07244
H	 1.2155381599	-2.1207862971	 4.5977991315	 0.104108
H	-0.3293016145	-2.2812595985	 3.71770682	 0.107849
H	 0.8910357313	-4.8296836104	 4.6624985731	 0.101789
H	 2.3907060579	-4.8339249579	 2.1890410752	 0.096511
57.3115	71.5902	95.0068	138.3966	193.131	248.0128	269.8972	319.6807	414.4631	437.6799	580.7243	721.8492	736.4369	782.7119	817.8498	840.1536	870.2549	878.5154	905.2175	940.4436	947.3501	997.4865	1000.6128	1020.0158	1050.8432	1068.2181	1087.7085	1122.7178	1133.0259	1194.4409	1213.9185	1239.1737	1240.3915	1246.971	1267.8979	1287.5091	1313.691	1330.2999	1344.7176	1381.5665	1390.5973	1402.8477	1412.4308	1470.2865	1483.1362	1486.9318	1499.9946	1500.3305	1512.2004	3000.6932	3007.5736	3016.1144	3027.605	3028.6475	3041.7784	3050.4724	3063.3882	3071.1475	3094.3914	3100.2973	3120.2574	3173.1245	3190.8393
CCCCC1CC2OC12	CCCC[C@H]1C[C@H]2O[C@@H]12	
InChI=1S/C8H14O/c1-2-3-4-6-5-7-8(6)9-7/h6-8H,2-5H2,1H3	InChI=1S/C8H14O/c1-2-3-4-6-5-7-8(6)9-7/h6-8H,2-5H2,1H3/t6-,7+,8-/m0/s1
