23
gdb 59645	3.18069	1.05997	0.84956	1.209	82.72	-0.2481	0.0901	0.3382	1455.7448	0.20443	-425.447695	-425.437529	-425.436585	-425.48319	37.204	
C	-0.1212064812	 1.6499779455	-0.2042293654	-0.395811
C	 0.0272770061	 0.1468182945	 0.0600693371	 0.00571
C	-1.325802751	-0.5215735934	 0.3332679771	-0.396046
C	 0.7311018234	-0.5314441774	-1.1096257452	 0.238747
O	 2.0124457093	 0.047393063	-1.3424115298	-0.279259
C	 2.9282114196	-1.002717525	-1.6246331046	-0.096627
C	 2.0580156985	-2.273280991	-1.6528236602	 0.11979
C	 2.7054099273	-3.5270860055	-1.0980040317	-0.414515
O	 0.9552888646	-1.8932377501	-0.8360970442	-0.270719
H	 0.8501913033	 2.1147353585	-0.3875004429	 0.133408
H	-0.7566158416	 1.8344214079	-1.0789116865	 0.109766
H	-0.5878341721	 2.1454721375	 0.6528036678	 0.109319
H	 0.6809686403	 0.0006174372	 0.9291824934	 0.080064
H	-1.995863646	-0.4179459446	-0.5288104127	 0.110087
H	-1.2056845294	-1.5873840149	 0.5412859837	 0.130561
H	-1.8187404026	-0.0544078676	 1.1915250082	 0.110102
H	 0.1278782941	-0.4304492285	-2.0341213421	 0.054686
H	 3.4340615374	-0.8185206453	-2.5795628976	 0.102064
H	 3.6854126266	-1.0561850841	-0.8303637308	 0.097539
H	 1.7038410582	-2.4528607899	-2.6816488379	 0.071651
H	 3.0418786615	-3.3584876848	-0.0707283409	 0.128206
H	 1.9967694222	-4.3595361641	-1.0991106454	 0.130831
H	 3.5685528114	-3.812439928	-1.7076464395	 0.120445
56.2552	73.5313	112.8395	175.5109	213.4941	228.7866	236.23	295.7824	317.5451	373.9356	431.826	471.7746	488.1192	633.0805	739.5959	856.4777	873.1672	915.0882	926.5074	935.692	955.7271	966.2784	1005.8767	1051.5264	1113.6109	1128.0732	1143.8875	1159.3509	1164.4988	1190.0292	1207.8847	1229.202	1319.8557	1326.9586	1342.3524	1361.5068	1375.6674	1396.5673	1404.7969	1410.0724	1417.6295	1446.6247	1485.4841	1489.5722	1492.1772	1498.6798	1502.1242	1516.7497	1528.9689	2900.2725	2961.8737	3007.4657	3029.3513	3029.9241	3036.9327	3042.9578	3056.6444	3092.4446	3098.6565	3116.0211	3123.3616	3124.1422	3127.3137
CC(C)C1OCC(C)O1	CC(C)[C@H]1OC[C@@H](C)O1	
InChI=1S/C7H14O2/c1-5(2)7-8-4-6(3)9-7/h5-7H,4H2,1-3H3	InChI=1S/C7H14O2/c1-5(2)7-8-4-6(3)9-7/h5-7H,4H2,1-3H3/t6-,7+/m1/s1
