22
gdb 99274	3.17638	0.77324	0.65329	3.6349	81.3	-0.239	0.0411	0.2802	1784.3371	0.191407	-441.520758	-441.509425	-441.508481	-441.558786	39.219	
C	-0.8737339771	 1.1788684911	 0.7674820147	-0.332978
N	-1.2043447705	-0.1785366613	 0.3906399204	-0.293729
C	-0.6531152179	-0.7951768421	-0.6817812851	 0.363767
O	 0.1726267105	-0.3004575562	-1.4297544243	-0.386564
C	-1.1376295504	-2.2284444879	-0.9123697326	-0.166208
O	-2.1575653245	-2.5800188355	-0.0030869956	-0.271418
C	-2.4520910356	-3.9744014511	 0.092100314	 0.158239
C	-3.2721780575	-4.1551189533	 1.3638613298	-0.393167
C	-3.1871529254	-4.4841653066	-1.1494751946	-0.394301
H	-0.1336028494	 1.5449570577	 0.054437463	 0.167914
H	-1.7550799243	 1.82946467	 0.73362459	 0.12406
H	-0.4489116421	 1.2211674543	 1.7768579338	 0.123289
H	-1.8828179688	-0.7102029117	 0.9128829382	 0.257966
H	-1.4685294524	-2.2921294252	-1.9576589467	 0.124812
H	-0.2644463401	-2.8906722448	-0.8059058524	 0.118223
H	-1.500183903	-4.5219480925	 0.194684407	 0.071634
H	-4.2171320405	-3.6074435692	 1.288641607	 0.123891
H	-3.4994371034	-5.2122747369	 1.5281219582	 0.118562
H	-2.7233665512	-3.7786495326	 2.231308313	 0.119719
H	-4.1241736909	-3.9349755109	-1.287112625	 0.124478
H	-2.5842637579	-4.3691327417	-2.0545224648	 0.123241
H	-3.4218731476	-5.5475959537	-1.040842938	 0.118569
26.6096	64.0882	97.9108	99.6123	139.8605	158.8196	215.4386	241.8859	264.4308	297.146	347.4331	428.1109	449.5386	531.3983	546.704	643.1798	667.6132	841.0606	879.3776	926.9506	938.6255	952.827	1032.0297	1108.1451	1115.1105	1153.4837	1154.9188	1168.2648	1181.7612	1200.4515	1248.2841	1266.7652	1350.946	1369.0473	1396.2153	1407.11	1416.2555	1439.6999	1481.5902	1484.6078	1492.4304	1497.1745	1498.0589	1500.5253	1512.3534	1574.0289	1787.564	2962.261	2990.3867	3025.1505	3034.8716	3039.7874	3043.6522	3075.4631	3110.4546	3115.6936	3117.9673	3122.4974	3148.709	3635.634
CNC(=O)COC(C)C	CNC(=O)COC(C)C	
InChI=1S/C6H13NO2/c1-5(2)9-4-6(8)7-3/h5H,4H2,1-3H3,(H,7,8)	InChI=1S/C6H13NO2/c1-5(2)9-4-6(8)7-3/h5H,4H2,1-3H3,(H,7,8)
