16
gdb 94431	2.63929	1.41968	1.25875	3.1734	66.26	-0.2616	0.004	0.2657	1050.9828	0.123513	-474.986136	-474.977748	-474.976804	-475.019835	30.106	
O	 0.1545528475	 1.2013626387	-0.3679171753	-0.422328
C	 0.1053823095	-0.1114522301	 0.1246253205	-0.016629
C	-0.0166383575	-0.3106487265	 1.6532451199	-0.107815
O	-1.2723941483	-1.0119486401	 1.4805762612	-0.305959
C	-1.305646338	-0.7366022408	 0.0851235873	 0.285349
C	-2.5107587013	 0.0018432827	-0.5274046496	-0.137766
O	-2.6951109683	-1.1012371123	-1.4768296147	-0.263235
C	-1.6752307189	-1.8308619307	-0.904362809	 0.385302
N	-1.224649249	-2.971811457	-1.1575500772	-0.550483
H	 1.0647112738	 1.4209869025	-0.5852668244	 0.298145
H	 0.8536187305	-0.759995172	-0.3419888633	 0.10968
H	 0.7361177285	-0.9382069454	 2.1406919944	 0.115104
H	-0.1426742925	 0.629315004	 2.202916679	 0.110445
H	-3.3655429192	 0.0921660776	 0.146312456	 0.129749
H	-2.2960301957	 0.9391551942	-1.0417824116	 0.139016
H	-1.7369366609	-3.420396565	-1.9192279231	 0.231425
61.6896	111.8056	134.1508	156.0491	237.2465	281.9606	391.0291	438.1628	524.9216	588.3458	663.6963	752.405	801.5752	866.6677	892.9013	902.3965	957.0675	997.2729	1014.0757	1034.9036	1073.9788	1139.1043	1149.0895	1169.302	1172.1376	1217.9235	1233.7359	1251.4364	1300.0328	1331.8169	1363.0409	1445.5519	1500.3812	1513.6168	1823.594	3031.2089	3057.9143	3076.4136	3091.9562	3150.0197	3474.6951	3840.6169
OC1COC11COC1=N	O[C@H]1CO[C@]21CO[C]2[NH]	
InChI=1S/C5H7NO3/c6-4-5(2-8-4)3(7)1-9-5/h3,6-7H,1-2H2	InChI=1S/C5H7NO3/c6-4-5(2-8-4)3(7)1-9-5/h3,6-7H,1-2H2/t3-,5-/m0/s1
