16
gdb 30331	2.98028	1.63437	1.14268	2.1736	71.38	-0.1969	0.0089	0.2058	1031.5112	0.126869	-437.890297	-437.882954	-437.88201	-437.922471	28.357	
O	 0.0755376751	 1.4562414225	 0.0398937632	-0.427208
C	 0.0825160198	 0.0299611095	 0.0133357608	-0.024013
C	-1.3536185884	-0.6308020772	-0.0544177138	-0.198987
N	-1.5046818511	-1.3618593565	-1.3528661717	-0.41587
C	-0.2493612339	-1.2449581608	-1.9711891742	 0.233757
C	 0.6542802171	-0.5734801369	-1.21664187	 0.26494
O	 1.8819013627	-0.5652762827	-1.806505749	-0.195937
C	 1.7201933139	-1.2459965136	-2.9758809975	-0.008154
C	 0.439443237	-1.6964126241	-3.1404944337	-0.323856
H	-0.1214197784	 1.7573538067	-0.8544898497	 0.273842
H	 0.5795067839	-0.2515617566	 0.9461131264	 0.102231
H	-1.4737314066	-1.3451588802	 0.7657147771	 0.121298
H	-2.1123806014	 0.1480229126	 0.0598114509	 0.115779
H	-2.2780736309	-1.0255706723	-1.9143614309	 0.231842
H	 2.605496734	-1.3354518003	-3.5845650266	 0.13608
H	 0.0681029472	-2.2662135701	-3.9773536512	 0.114256
61.4903	144.6588	266.6262	316.7161	338.5222	413.6673	488.9728	607.8551	619.8185	653.2338	709.1186	733.2155	750.5244	810.4858	819.6454	886.0198	921.0951	958.7698	1008.4878	1058.7402	1065.6703	1103.4111	1168.6	1220.2879	1237.7535	1277.9024	1285.5107	1336.2091	1346.1322	1393.3358	1430.7747	1487.9115	1502.5626	1513.6772	1661.6541	3049.305	3071.0443	3103.9135	3256.5062	3279.9518	3535.0469	3794.4341
OC1CNC2=C1OC=C2	O[C@H]1CNc2c1occ2	
InChI=1S/C6H7NO2/c8-5-3-7-4-1-2-9-6(4)5/h1-2,5,7-8H,3H2	InChI=1S/C6H7NO2/c8-5-3-7-4-1-2-9-6(4)5/h1-2,5,7-8H,3H2/t5-/m0/s1
