21
gdb 72932	2.64289	1.69684	1.43759	1.7246	80.87	-0.239	0.0669	0.3059	1022.6406	0.183565	-387.039067	-387.031265	-387.030321	-387.071225	31.498	
C	 0.2633203814	 1.6260596168	-0.0123649517	-0.490716
C	-0.0344166483	 0.1418236893	 0.0174538764	 0.369423
C	-1.4822585853	-0.291709207	 0.3934237695	-0.293004
C	-0.9200174724	-1.2839156881	 1.4587166141	-0.228035
C	 0.5244696596	-0.8244205778	 1.1302656571	-0.095271
C	 1.2691360704	-1.6385696226	 0.032487127	 0.115693
O	 0.5489623644	-2.7695755053	-0.5061385488	-0.290906
C	 0.0800679023	-1.9844411671	-1.6324364776	-0.09835
C	 0.720063321	-0.7023950743	-1.0734808565	-0.140657
H	 1.3388193317	 1.8199707654	-0.1000923556	 0.11255
H	-0.2301933447	 2.1090513546	-0.8654928151	 0.115386
H	-0.0911542174	 2.1196407538	 0.8994363389	 0.113295
H	-2.0505703933	 0.5328330501	 0.8335821923	 0.095019
H	-2.0931313087	-0.7232114475	-0.4034940855	 0.096161
H	-1.232297866	-1.0605883378	 2.4808860777	 0.09534
H	-1.1027359512	-2.3394885691	 1.2537658902	 0.120695
H	 1.1438826552	-0.4652712792	 1.9550554753	 0.056878
H	 2.3266867983	-1.8648149918	 0.1976605444	 0.071255
H	 0.5377632477	-2.3312655469	-2.5679176375	 0.100579
H	-1.0096706763	-2.0192594006	-1.7407299246	 0.104447
H	 1.3527132318	-0.128660735	-1.75156938	 0.070216
68.5499	223.3554	229.5688	263.6566	287.7683	326.8979	425.6831	495.788	602.7141	642.0799	726.8118	778.9935	801.814	828.8947	855.768	894.4155	911.3463	934.9055	952.1066	988.0493	999.6533	1011.7674	1026.4646	1069.092	1099.4922	1139.6598	1154.7933	1160.5238	1187.6034	1211.5199	1219.197	1225.7731	1252.5691	1265.3377	1271.5624	1297.5069	1316.4691	1350.5052	1357.2037	1408.7048	1468.9518	1487.3475	1489.6205	1493.6109	1524.275	3012.7862	3013.2052	3051.0048	3056.4386	3061.3849	3072.0972	3075.7823	3085.3341	3086.5297	3096.5094	3101.8555	3134.5324
CC12CCC1C1OCC21	C[C@]12CC[C@H]1[C@H]1OC[C@@H]21	
InChI=1S/C8H12O/c1-8-3-2-5(8)7-6(8)4-9-7/h5-7H,2-4H2,1H3	InChI=1S/C8H12O/c1-8-3-2-5(8)7-6(8)4-9-7/h5-7H,2-4H2,1H3/t5-,6+,7+,8-/m0/s1
