21
gdb 72792	2.5792	1.64178	1.2587	1.6803	84.35	-0.2332	0.0204	0.2536	1088.5655	0.183896	-387.086817	-387.078687	-387.077743	-387.118946	32.665	
C	-0.0489200352	 1.5397521151	-0.0717287561	-0.435537
C	 0.0572867771	 0.0201513557	 0.0358479754	 0.400518
C	 0.8196409666	-0.6195757811	-1.122019227	-0.271066
C	 2.3301059862	-0.458578693	-0.8295902633	-0.215266
C	 2.7861205324	-1.101752828	 0.5055478607	-0.234632
C	 1.7155173255	-1.1205615297	 1.5712191333	-0.207182
C	 0.5392809653	-0.5580196591	 1.3427655597	 0.201715
C	-0.9035773672	-0.752406571	 1.7315782849	-0.16978
O	-1.2769027175	-0.5222697507	 0.343229527	-0.350047
H	 0.9247834053	 2.0047116372	-0.2519858749	 0.116633
H	-0.7128438553	 1.795284863	-0.9043134544	 0.124051
H	-0.4668789432	 1.9709645999	 0.8419576356	 0.117011
H	 0.5483742347	-1.6793178462	-1.1725478313	 0.105201
H	 0.5711248296	-0.1626440873	-2.0865391649	 0.092276
H	 2.9131074221	-0.8869650445	-1.6509029807	 0.099486
H	 2.5720401141	 0.6101357482	-0.8165414674	 0.106226
H	 3.0803028327	-2.1465154802	 0.3292333742	 0.110639
H	 3.6987139319	-0.6053261413	 0.860665509	 0.107648
H	 1.9013678317	-1.7105953554	 2.4660538665	 0.086435
H	-1.1924871984	-1.7485183281	 2.0851856696	 0.11389
H	-1.3419165485	 0.0053024364	 2.3965281741	 0.101783
118.9585	213.7304	232.5975	240.0657	261.8832	355.0849	358.8922	432.216	461.6121	522.3385	615.6839	680.6403	761.4778	805.8272	842.8458	859.3029	900.8759	921.7748	938.7387	970.9258	985.0608	1003.3698	1030.9867	1079.1685	1106.0031	1113.9008	1128.0573	1140.6142	1211.9954	1224.9583	1259.1284	1281.7412	1316.3882	1344.1681	1353.1702	1366.677	1382.1951	1406.1874	1475.1545	1480.3681	1488.1167	1496.2734	1502.3217	1512.5952	1788.2413	2996.1047	3004.2738	3027.389	3035.7075	3038.3153	3046.0856	3059.2334	3077.1813	3089.3143	3109.5104	3116.784	3148.9865
CC12CCCC=C1CO2	C[C@@]12CCC[CH][C]1CO2	
InChI=1S/C8H12O/c1-8-5-3-2-4-7(8)6-9-8/h4H,2-3,5-6H2,1H3	InChI=1S/C8H12O/c1-8-5-3-2-4-7(8)6-9-8/h4H,2-3,5-6H2,1H3/t8-/m1/s1
