16
gdb 56737	2.09805	1.45954	1.27012	5.3783	69.83	-0.2788	-0.0481	0.2307	1081.9254	0.122812	-437.890392	-437.881614	-437.880669	-437.924035	31.961	
O	-0.2173152158	 1.3405327365	 0.0325631606	-0.413035
C	 0.0366994689	-0.0395921709	-0.0261102196	-0.106047
C	 0.7690010364	-0.4136357246	-1.2626033654	 0.267499
N	 1.3317001987	-0.7143349857	-2.2257081618	-0.322826
C	 0.7792918793	-0.5657709504	 1.2018931389	 0.246074
C	-0.0288899377	-1.0789885788	 2.3923115633	-0.316142
C	 0.7075016032	-2.0483453662	 1.5359335752	-0.300934
C	 2.0319811552	 0.147309043	 1.539310471	 0.122813
O	 2.4201559407	 1.1453744131	 0.9738668836	-0.287259
H	 0.6485208434	 1.7669213513	 0.1265572409	 0.309112
H	-0.9417377496	-0.5312416998	-0.0797767297	 0.134993
H	 0.353427068	-0.8662524566	 3.3847951244	 0.138133
H	-1.1065035627	-1.0038719295	 2.301734274	 0.146426
H	 0.148955461	-2.6664334617	 0.8416035627	 0.146321
H	 1.6041251623	-2.5169090476	 1.927182761	 0.138427
H	 2.6090601588	-0.2916117622	 2.382587711	 0.096446
69.4244	122.9024	150.5411	217.1809	233.7623	286.4277	316.328	342.4142	455.4728	516.5991	546.5225	593.5165	611.593	776.1425	840.8443	859.2713	916.4232	940.31	973.4663	1006.8587	1048.4022	1069.1508	1095.2014	1097.2135	1193.3767	1240.9226	1302.8778	1331.7269	1354.4042	1436.139	1451.9817	1471.3265	1499.1259	1792.0458	2356.0519	2895.3554	3049.5085	3138.9432	3141.2123	3219.1732	3232.9546	3714.9899
OC(C#N)C1(CC1)C=O	O[C@@H](C#N)C1(CC1)C=O	
InChI=1S/C6H7NO2/c7-3-5(9)6(4-8)1-2-6/h4-5,9H,1-2H2	InChI=1S/C6H7NO2/c7-3-5(9)6(4-8)1-2-6/h4-5,9H,1-2H2/t5-/m0/s1
