14
gdb 131712	5.09536	1.04805	0.87814	2.8875	67.67	-0.2521	-0.0827	0.1694	1226.4617	0.101542	-470.015474	-470.007787	-470.006843	-470.048426	28.114	
O	 0.2969905618	 1.0351738645	 0.6658687733	-0.419167
C	-0.02583045	 0.079912198	-0.3115464483	-0.115909
C	-1.4429397075	-0.4343689039	-0.172127844	 0.361063
N	-2.0313369846	-0.2675326576	 1.0261442606	-0.282529
C	-3.2557249331	-0.7364885565	 1.1507291256	-0.062453
C	-3.862183895	-1.3711132036	 0.0547175497	 0.428154
O	-5.1088290735	-1.8505555656	 0.1621307333	-0.405154
N	-3.2296450991	-1.5127369028	-1.1005077034	-0.276302
N	-1.9943823828	-1.0343324391	-1.2216297569	-0.228761
H	-0.2569997233	 0.8388663215	 1.4332428035	 0.293389
H	 0.0928848348	 0.5277067433	-1.3035816599	 0.135146
H	 0.6550867883	-0.7886619061	-0.2735616202	 0.113933
H	-3.774551664	-0.6252824151	 2.0988817322	 0.147191
H	-5.3324568522	-2.242930457	-0.6955475254	 0.311398
45.5644	113.6579	207.7431	334.8477	349.7567	395.6604	422.7541	437.761	499.5345	583.2357	612.9409	664.9096	775.397	805.3779	883.8848	954.4383	1030.9442	1060.9057	1105.2315	1152.6594	1205.002	1233.358	1300.0087	1306.1497	1340.9142	1423.1696	1438.7912	1482.5837	1505.655	1578.7166	1627.5578	2952.7118	3073.4581	3172.9669	3741.073	3752.5343
OCC1=NC=C(O)N=N1	OCc1ncc(O)nn1	
InChI=1S/C4H5N3O2/c8-2-3-5-1-4(9)7-6-3/h1,8H,2H2,(H,7,9)	InChI=1S/C4H5N3O2/c8-2-3-5-1-4(9)7-6-3/h1,8H,2H2,(H,7,9)
