22
gdb 60349	3.50718	0.6463	0.61166	3.5638	83.65	-0.2997	0.0131	0.3128	1897.4794	0.191756	-404.369403	-404.358353	-404.357409	-404.406446	39.377	
C	-0.0702792211	 1.567695309	-0.1367301765	-0.384421
C	 0.0210186303	 0.0374981512	-0.0458120565	 0.033825
C	 0.7372817783	-0.5316346215	-1.278245454	-0.3897
C	 0.7207911825	-0.4372205701	 1.2413409745	-0.172206
C	-0.0262323273	-0.098840325	 2.5357046733	-0.215958
C	 0.7036261349	-0.6326981576	 3.7814717332	-0.025152
O	 2.0150222102	-0.1170819426	 3.9282713989	-0.405987
C	-0.0985901	-0.3838893001	 4.9989175847	 0.257093
N	-0.7240912596	-0.1531770936	 5.9428857991	-0.316465
H	 0.9292422241	 2.0192091139	-0.119930566	 0.112451
H	-0.5541397753	 1.8727293012	-1.0701315396	 0.115674
H	-0.6473221669	 2.0009912532	 0.6856469792	 0.113983
H	-1.0034441426	-0.3629028915	-0.0373836864	 0.073334
H	 1.769162175	-0.1649341273	-1.3348591622	 0.114493
H	 0.7742283048	-1.6256812623	-1.2503636172	 0.111314
H	 0.2296422841	-0.2358147982	-2.2020190214	 0.112361
H	 0.8503769195	-1.5268164213	 1.1896973064	 0.093666
H	 1.7315435324	-0.0140789753	 1.2876741547	 0.108533
H	-0.1499122373	 0.984823409	 2.6506842299	 0.109182
H	-1.0366983128	-0.5255233532	 2.5176897817	 0.119847
H	 0.8346558479	-1.7168716418	 3.6857908745	 0.139523
H	 1.949317559	 0.8348873636	 4.0686039495	 0.29461
37.6253	68.2213	95.7026	134.4605	189.5297	223.062	238.8094	252.498	271.6292	325.8959	367.2088	395.4481	422.6502	468.2035	584.1707	592.9264	773.6935	809.6288	887.7309	923.6109	926.4925	965.3025	976.1125	1004.1644	1053.936	1094.2041	1129.0421	1150.7427	1192.8766	1219.8959	1264.6044	1289.8218	1327.4791	1341.2839	1363.8886	1371.312	1394.0572	1400.7558	1419.8189	1422.2867	1476.1279	1487.8354	1491.5719	1499.7548	1505.0449	1511.742	2353.7357	2995.7627	3014.4004	3024.1834	3029.2954	3031.4693	3051.0458	3059.2642	3080.5544	3089.9449	3095.6949	3100.7652	3104.8388	3797.157
CC(C)CCC(O)C#N	CC(C)CC[C@@H](O)C#N	
InChI=1S/C7H13NO/c1-6(2)3-4-7(9)5-8/h6-7,9H,3-4H2,1-2H3	InChI=1S/C7H13NO/c1-6(2)3-4-7(9)5-8/h6-7,9H,3-4H2,1-2H3/t7-/m1/s1
