16
gdb 67769	3.35795	1.67646	1.38812	4.1915	72.75	-0.2213	-0.0209	0.2005	942.6067	0.124495	-400.726262	-400.719194	-400.71825	-400.7574	28.309	
C	-0.0009307657	 1.4660744665	-0.0205205205	-0.496281
C	-0.017813364	-0.0398791932	 0.0483778882	 0.303695
C	-1.2544978815	-0.8303820581	-0.2960971863	-0.162264
C	-1.1251303333	-2.0516596248	 0.2212542225	-0.089114
N	 0.1749464266	-2.2065957321	 0.8674588911	-0.213359
C	 0.6464105195	-0.8015779014	 1.125810303	-0.067756
C	 1.3660858489	-0.7714166802	-0.2208829315	-0.274857
C	 1.1478224895	-2.2355201784	-0.2742838789	 0.444715
O	 1.572846907	-3.172162482	-0.8724691362	-0.314192
H	 0.9389008944	 1.873925554	 0.3636843365	 0.126978
H	-0.123297267	 1.8175488088	-1.0499285479	 0.135077
H	-0.8189873564	 1.8824103152	 0.5769583165	 0.13425
H	-2.0896900702	-0.4365987043	-0.8583707938	 0.113583
H	-1.7702873665	-2.9141825416	 0.1376779987	 0.129499
H	 0.9957491561	-0.4891272506	 2.1021636284	 0.114471
H	 2.2219822625	-0.2027800178	-0.5586162099	 0.115555
146.5254	205.1475	229.1816	302.0459	364.4661	425.7176	555.1104	574.402	623.3018	706.9017	750.0128	804.6043	821.6452	850.7535	860.9352	879.9484	890.4586	904.5075	935.5208	978.9743	1023.3464	1043.9012	1080.2038	1098.7295	1135.774	1170.134	1219.8392	1264.9258	1331.2634	1384.6541	1419.0981	1487.5887	1499.0977	1638.4719	1913.5824	3034.6956	3100.6133	3108.7887	3190.1293	3212.3902	3225.98	3253.5039
CC12C=CN3C1C2C3=O	C[C@]12C=CN3[C@H]1[C@H]2C3=O	
InChI=1S/C7H7NO/c1-7-2-3-8-5(7)4(7)6(8)9/h2-5H,1H3	InChI=1S/C7H7NO/c1-7-2-3-8-5(7)4(7)6(8)9/h2-5H,1H3/t4-,5-,7+/m0/s1
