21
gdb 83743	2.65038	1.53215	1.32238	2.523	82.21	-0.2141	0.0754	0.2894	1079.4575	0.184378	-383.220725	-383.212399	-383.211455	-383.253688	32.441	
C	-0.0635793523	 1.6351707656	-0.2738354166	-0.317547
N	 0.0650386894	 0.2108529557	-0.0179284458	-0.091752
C	 1.2902039265	-0.5464539397	-0.2057437939	-0.037603
C	 2.6402775935	 0.165221854	-0.274993725	-0.236749
C	 2.774769663	 0.9866039416	 1.0338458303	-0.332801
C	 1.670750272	 0.4752168272	 1.970243265	 0.372569
C	 1.9509287493	 0.1343245816	 3.3888781549	-0.299154
N	 1.1298871163	 1.3136221519	 3.0552175735	-0.361764
C	 0.7048733157	-0.3508112518	 1.1608605428	-0.096738
H	 0.8460417532	 2.2356974157	-0.1378596722	 0.098851
H	-0.4001602562	 1.7719641295	-1.3070248094	 0.119742
H	-0.8337129955	 2.039608893	 0.3892335635	 0.135527
H	 1.1814842795	-1.4727959298	-0.7656648865	 0.085366
H	 3.426039203	-0.5947227762	-0.3390085627	 0.107639
H	 2.7370889985	 0.7923272392	-1.1680822168	 0.105204
H	 3.766845635	 0.8735424223	 1.4814144843	 0.103868
H	 2.6391223987	 2.0564711529	 0.8412075774	 0.111253
H	 1.4110487995	-0.673421458	 3.8772660684	 0.116829
H	 2.9632683045	 0.2864087116	 3.7557235553	 0.106344
H	 1.691087003	 2.1579064425	 3.1468382112	 0.225961
H	 0.1299157134	-1.1096960788	 1.6862746224	 0.084954
75.7791	103.3774	186.4622	229.376	301.4779	326.5634	364.8209	443.874	496.0448	571.95	702.0133	735.1323	783.3506	809.3185	830.1014	878.3103	902.0866	934.3782	962.4566	974.2543	988.0825	1039.203	1041.0739	1070.5195	1111.1889	1124.7259	1137.8416	1156.1038	1178.6625	1197.6171	1238.5033	1264.309	1289.5739	1294.075	1311.4902	1327.2144	1345.7191	1393.0385	1421.0733	1458.5955	1481.0491	1486.3002	1501.9991	1510.3192	1511.8971	3008.387	3034.4704	3043.5495	3066.5709	3070.3848	3086.6908	3097.8596	3107.5468	3124.2064	3135.1516	3182.0957	3484.2585
CN1C2CCC3(CN3)C12	CN1[C@H]2CC[C@]3(CN3)[C@@H]12	
InChI=1S/C7H12N2/c1-9-5-2-3-7(4-8-7)6(5)9/h5-6,8H,2-4H2,1H3	InChI=1S/C7H12N2/c1-9-5-2-3-7(4-8-7)6(5)9/h5-6,8H,2-4H2,1H3/t5-,6-,7-,9?/m0/s1
