15
gdb 129839	6.70449	0.80003	0.72664	5.9215	69.86	-0.226	-0.0187	0.2073	1463.9206	0.111677	-453.95034	-453.941824	-453.94088	-453.984783	30.365	
N	 0.0318621917	 1.4268889215	 0.0853601827	-0.592927
C	-0.0927064799	 0.0627286574	 0.0312723951	 0.501483
C	-1.1651341266	-0.7869305406	 0.0505924871	-0.451387
C	-0.5682129618	-2.0640647076	-0.1237203441	 0.401246
C	-1.2383330682	-3.4052401481	-0.17133034	-0.398637
C	-0.4289157265	-4.4663569863	-0.9045046946	 0.180092
O	-0.3616038617	-5.6129822196	-0.5492122268	-0.244689
N	 0.7380899473	-1.9970111507	-0.2390763403	-0.210914
O	 1.0442741919	-0.6238085567	-0.1386144382	-0.2181
H	 0.9499090788	 1.7529400245	 0.3517423164	 0.270768
H	-0.7146098993	 1.9080154766	 0.5627412072	 0.268456
H	-2.2074377213	-0.5426127951	 0.1641962687	 0.109452
H	-1.4687480033	-3.7787857329	 0.8315378472	 0.148242
H	-2.1964183872	-3.3065365963	-0.7014619183	 0.138632
H	 0.0765660061	-4.108241176	-1.8251850721	 0.098283
30.9822	67.2526	158.4727	204.4685	277.8202	312.9514	369.145	428.7635	470.5784	561.6831	650.6766	661.0078	713.7384	737.996	759.9513	817.5023	921.918	1015.666	1030.2891	1052.4821	1056.4642	1083.8238	1171.6851	1211.7685	1275.7932	1376.3982	1424.8376	1442.6532	1487.7243	1543.2848	1623.6534	1672.5383	1837.8878	2923.2004	3022.4939	3085.1433	3277.5617	3576.8152	3683.3604
NC1=CC(CC=O)=NO1	Nc1cc(CC=O)no1	
InChI=1S/C5H6N2O2/c6-5-3-4(1-2-8)7-9-5/h2-3H,1,6H2	InChI=1S/C5H6N2O2/c6-5-3-4(1-2-8)7-9-5/h2-3H,1,6H2
