22
gdb 103215	3.31881	1.34736	1.16693	1.5104	86.26	-0.2238	0.0816	0.3054	1166.8256	0.193942	-367.121005	-367.112445	-367.1115	-367.153954	33.954	
C	 0.0381179855	 1.5682388144	 0.0688282952	-0.383441
C	 0.0001493807	 0.0460693222	-0.1246541892	-0.245455
C	-1.4110442356	-0.5497730022	-0.0957856885	 0.362348
C	-2.2455781575	-0.0765881271	-1.2816461249	-0.463576
C	-1.5615258691	-2.0140994002	 0.3510767663	-0.122207
C	-1.3171086221	-1.5925119643	 1.8324526425	-0.005152
C	-2.5885013373	-2.2594317534	 2.355204448	-0.269945
C	-2.9456239542	-1.6800671347	 0.9875195274	-0.006657
N	-2.1243808265	-0.3860284831	 1.2668829021	-0.19456
H	 1.0706047141	 1.9228045718	 0.1444457691	 0.108003
H	-0.4302246504	 2.0992118626	-0.7651591127	 0.115024
H	-0.4893842229	 1.8517194011	 0.9842978161	 0.137311
H	 0.4676164117	-0.2211235646	-1.0815325497	 0.091546
H	 0.6147178268	-0.4240788174	 0.6498174472	 0.093172
H	-1.7257522193	-0.2902518638	-2.2222286478	 0.113335
H	-3.2222822143	-0.5636777981	-1.3254084207	 0.113536
H	-2.4169992454	 1.0027881138	-1.2320559385	 0.128891
H	-1.2551860738	-2.944382295	-0.1433545494	 0.056292
H	-0.3673094529	-1.4387583839	 2.3441581263	 0.084193
H	-2.5767083472	-3.3487159107	 2.4440293078	 0.096897
H	-3.0622837052	-1.7848371603	 3.2186563054	 0.107033
H	-3.9187699651	-1.6287650169	 0.499692618	 0.083412
67.5343	170.3066	177.5269	220.8387	274.7874	303.7517	356.2301	385.1924	494.2756	535.5628	614.87	721.0703	777.4359	818.1624	828.5659	845.3041	849.801	898.5221	914.6484	938.1231	1003.7766	1008.6667	1022.0393	1025.4624	1035.5284	1056.3789	1114.8456	1131.1738	1149.9992	1152.129	1167.2649	1197.0254	1222.2763	1236.8144	1248.6282	1282.0381	1319.1835	1329.0729	1375.8876	1407.58	1412.0578	1481.5712	1490.4689	1491.9649	1500.8576	1507.0128	1514.2109	3022.3357	3025.0247	3040.2783	3042.8062	3055.2597	3067.173	3103.2064	3106.8154	3111.2393	3116.0624	3118.4478	3120.358	3125.1276
CCC1(C)C2C3CC2N13	CC[C@@]1(C)[C@H]2[C@@H]3C[C@H]2N13	
InChI=1S/C8H13N/c1-3-8(2)7-5-4-6(7)9(5)8/h5-7H,3-4H2,1-2H3	InChI=1S/C8H13N/c1-3-8(2)7-5-4-6(7)9(5)8/h5-7H,3-4H2,1-2H3/t5-,6+,7-,8-/m0/s1
