17
gdb 33421	2.54575	1.03229	0.79786	1.7274	80.26	-0.2624	0.0308	0.2932	1421.3606	0.132408	-384.590346	-384.580814	-384.57987	-384.625446	34.527	
C	-0.2198954224	-1.186045673	 0.1899377959	-0.46907
C	-0.0916155853	 0.0035771432	 0.0849587929	 0.343854
C	 0.0987767883	 1.4530797682	-0.0376344934	-0.335117
C	 1.6065614224	 1.8231984783	-0.1735159989	-0.225662
C	 2.3976589926	 1.4212904233	 1.0451126703	 0.08237
C	 3.4614564336	 2.2721127291	 1.59057741	-0.182307
O	 2.1791051713	 2.2159677142	 2.2173412796	-0.237384
C	-0.6738369652	 2.0011431872	-1.1559001098	 0.315447
C	-1.2799120909	 2.4737212264	-2.0786111615	-0.433139
H	-0.3512884717	-2.2358424393	 0.2826168534	 0.202233
H	-0.2555532872	 1.9243866331	 0.8901501476	 0.155896
H	 2.0131572338	 1.3363129224	-1.0658861255	 0.122334
H	 1.6755105	 2.9052561896	-0.3169806228	 0.119043
H	 2.4448126012	 0.3504345004	 1.2426050837	 0.109729
H	 4.2784993511	 1.8237023868	 2.1539081842	 0.117934
H	 3.7001909377	 3.2139713374	 1.0978095368	 0.11494
H	-1.8293488993	 2.8833164927	-2.8898329025	 0.198902
57.9048	76.4272	120.8618	128.734	193.3882	243.8715	341.1614	365.9045	432.9806	498.4326	562.5863	567.4833	633.0397	636.2747	650.9972	653.1831	790.3375	817.642	871.0022	952.1237	971.161	1014.1116	1043.5714	1098.3582	1127.5537	1159.5104	1170.0044	1218.3142	1275.4018	1295.4722	1328.7652	1345.5952	1444.9875	1469.968	1528.718	2238.9338	2245.2616	3011.3863	3054.7309	3082.0615	3103.309	3121.748	3169.1376	3503.0494	3505.0706
C#CC(CC1CO1)C#C	C#CC(C[C@H]1CO1)C#C	
InChI=1S/C8H8O/c1-3-7(4-2)5-8-6-9-8/h1-2,7-8H,5-6H2	InChI=1S/C8H8O/c1-3-7(4-2)5-8-6-9-8/h1-2,7-8H,5-6H2/t8-/m0/s1
