21
gdb 85605	1.97774	1.77703	1.16732	2.6106	83.63	-0.2353	-0.0126	0.2227	1143.503	0.183838	-387.124502	-387.115683	-387.114739	-387.158224	33.637	
C	-0.3640925682	 1.469328759	-0.058818937	-0.381762
C	-0.006486674	-0.0307114111	-0.010093803	-0.039242
C	 0.7014513332	-0.4920844315	-1.3124693823	-0.297703
C	 2.0318266964	 0.1981504949	-1.5613822171	 0.383951
O	 2.1384457062	 1.1020207073	-2.3612358273	-0.314065
C	 3.2156673339	-0.2656896702	-0.7289794398	-0.280726
C	 3.1514036344	 0.2671314627	 0.7211183727	-0.261715
C	 2.016058985	-0.2423354584	 1.577444942	-0.05381
C	 0.7227064795	-0.3737921379	 1.2721543495	-0.063283
H	 0.5335932309	 2.0911978631	-0.118679935	 0.132212
H	-0.9834079898	 1.693121788	-0.9334230291	 0.119463
H	-0.9177091341	 1.7631697762	 0.8378011413	 0.114494
H	-0.9527900487	-0.5845823583	 0.0114562571	 0.083436
H	 0.8548104033	-1.5757610504	-1.2607352173	 0.105311
H	 0.0523802597	-0.2678112938	-2.1636209679	 0.114476
H	 3.2513299728	-1.3606468264	-0.7052882479	 0.106926
H	 4.1232561008	 0.1089119507	-1.2090935681	 0.116721
H	 4.0971209702	 0.0115620502	 1.2094450978	 0.10983
H	 3.1268417237	 1.3655020153	 0.6832318558	 0.128754
H	 2.3049310452	-0.5107328305	 2.5917589503	 0.089202
H	 0.0719567895	-0.7321091089	 2.068108355	 0.087529
54.9334	109.7251	148.8877	235.4524	242.0106	306.6148	337.2071	420.467	453.1417	511.4229	545.3119	662.2686	695.4182	749.3336	780.6536	829.1158	855.9823	893.7184	940.8994	966.0426	989.6153	1007.7751	1036.9858	1051.0518	1094.8031	1134.4915	1156.751	1213.2813	1240.3828	1260.8883	1267.528	1305.3447	1332.458	1353.4418	1381.8598	1390.9351	1411.0287	1432.8176	1468.8025	1481.0624	1487.1737	1495.917	1498.8736	1722.6099	1801.1191	3012.327	3022.042	3037.5647	3039.4848	3046.3582	3069.3741	3100.614	3108.1157	3109.0737	3116.7086	3126.5509	3151.7621
CC1CC(=O)CCC=C1	C[C@H]1CC(=O)CCC=C1	
InChI=1S/C8H12O/c1-7-4-2-3-5-8(9)6-7/h2,4,7H,3,5-6H2,1H3	InChI=1S/C8H12O/c1-7-4-2-3-5-8(9)6-7/h2,4,7H,3,5-6H2,1H3/t7-/m1/s1
