15
gdb 15629	3.555	1.71632	1.17442	1.9938	65.96	-0.2422	-0.0214	0.2208	968.7111	0.119474	-399.817547	-399.810025	-399.80908	-399.849646	27.224	
O	-0.0006060638	 1.4189725158	 0.0075329667	-0.422114
C	 0.0020981685	 0.002492311	 0.0020433972	-0.183497
C	-1.4063447265	-0.4819159816	 0.012211278	 0.259296
C	-2.5448023801	 0.2129021543	 0.0240589228	-0.206981
C	-3.7000761438	-0.7423555038	 0.0304740894	-0.137568
O	-3.1020675933	-2.0440547459	 0.0210759522	-0.247911
C	-1.7364218473	-1.9162037545	 0.0101411982	 0.347901
N	-0.9061132499	-2.8735283409	 3.1779*^-6	-0.556746
H	 0.9129476178	 1.7175117568	 0.0014444621	 0.29361
H	 0.51158373	-0.4081557486	-0.8841356204	 0.119425
H	 0.5266643962	-0.4150260512	 0.8761140291	 0.119447
H	-2.6466357381	 1.2884826574	 0.0285741314	 0.13449
H	-4.3330902333	-0.6471045955	 0.9229553115	 0.129005
H	-4.3479086585	-0.6411028142	-0.8506405968	 0.129004
H	-1.3887872478	-3.7730731489	 0.0010077506	 0.222638
83.0968	174.9561	177.9804	228.9501	259.4592	341.6887	386.7469	541.2016	625.7709	722.0435	773.6758	832.0754	837.4849	873.7941	951.481	992.3727	1029.5973	1044.8068	1072.6459	1100.2208	1182.784	1196.4424	1208.2096	1240.5106	1264.498	1348.1128	1398.8993	1471.3312	1500.9893	1502.1058	1719.6366	1755.5233	2978.3977	2997.5366	3012.7378	3040.9461	3248.8371	3482.758	3842.5154
OCC1=CCOC1=N	OCC1=C(OC[CH]1)[NH]	
InChI=1S/C5H7NO2/c6-5-4(3-7)1-2-8-5/h1,6-7H,2-3H2	InChI=1S/C5H7NO2/c6-5-4(3-7)1-2-8-5/h1,6-7H,2-3H2
