18
gdb 127841	2.64565	1.59251	1.00657	1.8528	87.29	-0.1977	-0.0515	0.1462	1170.3661	0.148662	-398.138213	-398.129686	-398.128742	-398.171332	31.514	
C	-0.0755628954	 1.4013341151	-0.0850573654	-0.321564
N	-0.0099313663	-0.0454774177	-0.021984164	-0.338445
C	 0.5885588456	-0.5823372263	 0.9795825463	 0.396478
C	 1.2408978308	 0.050678221	 2.1124130751	-0.174485
C	 1.8227117546	-0.6971637873	 3.0791835994	-0.115791
C	 1.7860450155	-2.1179903222	 2.9689538766	-0.016134
N	 1.212121796	-2.7291308755	 1.969525246	-0.19449
N	 0.639703716	-1.9929827005	 1.0181508822	-0.043903
C	 0.0153877169	-2.7298778598	-0.0712972939	-0.304243
H	 0.9174291817	 1.8769002493	-0.1298132821	 0.104163
H	-0.6140081297	 1.6930361563	-0.9910591965	 0.117613
H	-0.6109225051	 1.8468130137	 0.7688352805	 0.104142
H	 1.2440306976	 1.1319848023	 2.1538460338	 0.119313
H	 2.313231375	-0.2368507279	 3.9307443277	 0.112652
H	 2.2359923528	-2.7627537632	 3.7145131075	 0.121349
H	 0.1576454323	-3.7897058623	 0.1314429925	 0.139123
H	-1.0468081108	-2.4780857933	-0.1314505672	 0.147057
H	 0.4708466626	-2.4447748317	-1.0233812387	 0.147168
105.2151	139.8199	159.9921	185.8226	223.7526	269.9846	351.0248	394.056	517.7023	539.5092	548.5983	606.3353	734.3748	756.4648	825.4052	873.006	887.4414	1000.5515	1007.1321	1054.2152	1074.9662	1112.7945	1149.6189	1154.5797	1173.2253	1203.0337	1296.9901	1325.7877	1404.836	1426.3163	1436.2867	1449.089	1463.4351	1493.5822	1504.8684	1507.2694	1559.9033	1633.4255	1703.2621	2960.1527	3002.6609	3054.2107	3089.0822	3113.2798	3176.9311	3180.6441	3203.8266	3220.6871
CN=C1C=CC=NN1C	C[N]C1=CCC=NN1C	
InChI=1S/C6H9N3/c1-7-6-4-3-5-8-9(6)2/h3-5H,1-2H3	InChI=1S/C6H10N3/c1-7-6-4-3-5-8-9(6)2/h4-5H,3H2,1-2H3
