19
gdb 57684	3.0129	0.8151	0.75239	4.6699	80.36	-0.3247	0.0161	0.3408	1543.3386	0.157656	-382.110497	-382.100274	-382.099329	-382.146069	36.408	
C	 0.0786314637	 1.573370611	-0.0131593433	-0.411572
C	 0.0287021788	 0.0293506778	 0.0406122604	 0.066769
C	 0.8551089032	-0.4960043222	 1.236614288	-0.411576
C	-1.4331605494	-0.5035109007	 0.0664711091	-0.193958
C	-2.2499307782	-0.0650004189	 1.3000216038	-0.371061
C	-3.6090794652	-0.6001531951	 1.2571075078	 0.263274
N	-4.6806234853	-1.0295478865	 1.2108092314	-0.295028
C	 0.6380833155	-0.4896022767	-1.1972988986	 0.26975
N	 1.1153051005	-0.8967031139	-2.1680027152	-0.332901
H	 1.1076640949	 1.91806167	-0.1418229426	 0.143173
H	-0.5155735863	 1.9590942759	-0.8459761729	 0.139709
H	-0.3027057595	 2.0033734927	 0.9172099325	 0.125586
H	 0.4795409366	-0.0806238359	 2.1759271911	 0.125587
H	 0.814782948	-1.5870207972	 1.2958595336	 0.139699
H	 1.9022840985	-0.199774071	 1.1368982116	 0.143178
H	-1.9483557537	-0.1662600295	-0.8378699435	 0.140514
H	-1.4117477874	-1.5966243738	 0.0259121196	 0.140506
H	-1.7784389204	-0.4081736687	 2.2266996394	 0.159177
H	-2.3158754441	 1.0262158927	 1.3609825978	 0.159172
56.3492	96.3048	100.3532	186.2456	192.9597	246.0429	246.7898	261.022	349.7936	358.6248	401.2751	419.3625	496.5326	581.2425	604.9064	729.7974	764.3732	877.2458	941.8088	942.874	980.4192	998.7908	1031.8746	1051.2506	1151.1912	1217.3648	1225.0715	1254.6947	1310.6128	1339.1855	1391.0808	1402.6189	1426.0447	1469.1342	1481.4691	1488.2078	1491.5607	1503.0101	1510.5601	2354.878	2365.7787	3045.392	3047.0596	3053.9363	3062.1183	3087.5565	3109.8591	3120.4468	3123.4145	3126.1662	3128.353
CC(C)(CCC#N)C#N	CC(C)(CCC#N)C#N	
InChI=1S/C7H10N2/c1-7(2,6-9)4-3-5-8/h3-4H2,1-2H3	InChI=1S/C7H10N2/c1-7(2,6-9)4-3-5-8/h3-4H2,1-2H3
