13
gdb 24876	3.72274	1.29888	0.96291	3.2868	78.14	-0.2376	-0.0837	0.1539	1123.559	0.091301	-411.794851	-411.787551	-411.786607	-411.826895	27.216	
N	-0.1665606198	 1.3039554285	 0.0089176242	-0.562452
C	 0.0105519139	 0.0448958086	 0.0010629589	 0.414067
N	-1.1375788213	-0.7785728925	 0.0028001415	-0.34269
C	-1.0558201303	-2.128123	-0.0051573514	 0.270576
N	 0.0862894501	-2.7655338758	-0.0148807777	-0.325222
C	 1.184823175	-1.9366188796	-0.0162499357	 0.058026
N	 1.2229295278	-0.6413981673	-0.0092984845	-0.28205
C	-2.2899321328	-2.8488170489	-0.0023688116	 0.238126
C	-3.3428069373	-3.4279043909	 0.000194117	-0.334535
H	 0.7426504945	 1.7632294612	 0.006489601	 0.230809
H	-2.0334734282	-0.3103238885	 0.0102786743	 0.283364
H	 2.1394869413	-2.4596768806	-0.0243033094	 0.130392
H	-4.2650780031	-3.9568428542	 0.0022749334	 0.221587
112.9615	136.4628	143.9437	322.338	413.9992	441.5123	491.9902	562.2964	587.3759	664.5332	681.2879	683.5283	746.1744	786.248	792.2005	862.4901	916.2378	1014.3109	1020.7962	1062.8576	1209.8402	1265.0555	1304.9304	1422.2383	1479.7261	1560.6041	1630.3103	1743.1231	2245.6424	3155.3328	3494.5628	3515.4229	3606.0887
N=C1NC(=NC=N1)C#C	[NH]C1=NC=N[C@H](N1)C#C	
InChI=1S/C5H4N4/c1-2-4-7-3-8-5(6)9-4/h1,3H,(H2,6,7,8,9)	InChI=1S/C5H5N4/c1-2-4-7-3-8-5(6)9-4/h1,3-4,6H,(H,7,8,9)/t4-/m1/s1
