21
gdb 60108	3.6185	1.03039	0.89596	3.117	79.53	-0.243	0.065	0.308	1369.1292	0.181571	-424.18792	-424.178815	-424.177871	-424.221984	34.894	
C	 0.0309309637	 1.523823155	-0.0007633283	-0.38636
C	-0.0207423722	 0.0010302729	 0.0279083048	 0.159312
O	 0.703073983	-0.4148808005	 1.1753879416	-0.450574
C	-1.470800424	-0.5259450239	 0.0643124579	-0.335141
C	-1.530304766	-2.014520373	-0.0931399022	 0.483638
C	-1.720510241	-2.8093851642	-1.3487993605	-0.326403
C	-2.6213841818	-3.0620282639	-0.1517555063	-0.199169
C	-1.8207926054	-3.7886900113	 0.9201976046	-0.089294
O	-0.7561407213	-2.8001865447	 0.8433952931	-0.332005
H	 1.0705564072	 1.8595616876	 0.0402867584	 0.124218
H	-0.4275387491	 1.9171759048	-0.9132823542	 0.104505
H	-0.4942373189	 1.9399510998	 0.8651467962	 0.118162
H	 0.4590729747	-0.386757502	-0.8881343524	 0.061691
H	 0.5349411676	-1.3572086131	 1.3066066828	 0.296921
H	-1.9165350528	-0.2266465732	 1.0210562345	 0.108351
H	-2.0558458394	-0.0646296336	-0.7392031919	 0.100512
H	-2.2002050218	-2.2827580393	-2.1680260952	 0.11716
H	-0.9760978514	-3.5441121623	-1.6442423995	 0.115787
H	-3.6975126623	-2.9596251316	-0.1842878654	 0.104322
H	-2.2875370519	-3.7707117799	 1.9109850039	 0.11515
H	-1.4612234469	-4.7997817934	 0.6960538381	 0.109218
53.9844	101.4288	154.0709	227.4407	259.6135	299.0206	313.6166	410.7547	447.3092	457.7675	472.1774	482.1904	718.3452	749.6307	821.8399	858.5904	893.378	908.0387	950.904	954.3699	969.3905	988.816	998.6426	1021.7153	1056.8071	1073.2291	1099.7583	1132.4173	1139.2905	1168.8585	1183.5671	1261.4109	1266.8105	1309.3882	1328.4076	1343.4213	1383.1841	1401.6544	1408.1557	1460.656	1466.1365	1485.1543	1490.1607	1500.5238	1519.1785	2941.5972	3027.2803	3028.7454	3039.0656	3078.172	3079.4574	3111.1503	3113.5105	3120.5464	3202.1103	3210.0916	3757.3144
CC(O)CC12CC1CO2	C[C@@H](O)C[C@]12C[C@H]1CO2	
InChI=1S/C7H12O2/c1-5(8)2-7-3-6(7)4-9-7/h5-6,8H,2-4H2,1H3	InChI=1S/C7H12O2/c1-5(8)2-7-3-6(7)4-9-7/h5-6,8H,2-4H2,1H3/t5-,6+,7+/m1/s1
