20
gdb 18986	3.58358	2.05731	1.94567	0.1249	76.65	-0.2446	0.0765	0.3211	821.2817	0.179837	-311.819102	-311.812577	-311.811633	-311.849797	27.119	
C	-0.1622231259	 1.3089043787	 0.4898466865	-0.233934
C	 1.1916624182	 1.6781760663	-0.1955735066	-0.236678
C	 1.4520930467	 0.1719717998	-0.5028564714	-0.023166
C	 0.0377953238	-0.1712330111	 0.0768602258	-0.0126
C	-0.4104280343	-0.6431776292	-1.3454871974	-0.023166
C	-0.9397442021	 0.4014570231	-2.3747884422	-0.236678
C	 0.4900243204	 0.5256309687	-2.9908333767	-0.233934
C	 1.0404246883	-0.4180434533	-1.8917838396	-0.0126
H	-0.1320328233	 1.4408417881	 1.5748094809	 0.095964
H	-1.0590289476	 1.8134421675	 0.1203406685	 0.097042
H	 1.1110176881	 2.3310355781	-1.0679773127	 0.099621
H	 1.9263047346	 2.122249729	 0.4804907366	 0.097762
H	 2.3699532164	-0.2388089973	-0.0785226891	 0.058599
H	-0.103728992	-0.9219834385	 0.8570357229	 0.05739
H	-0.8991195016	-1.6185882352	-1.3774576729	 0.058599
H	-1.6876899816	 0.0003529214	-3.0630153088	 0.097762
H	-1.3460312023	 1.3213601802	-1.9475571519	 0.099621
H	 0.5569872116	 0.0798939942	-3.986974791	 0.095964
H	 0.9198977494	 1.5292593172	-3.0482157506	 0.097042
H	 1.6704611232	-1.2451602676	-2.2253419403	 0.05739
65.5724	274.3572	276.7597	387.7922	462.2859	620.3672	673.2839	713.8048	726.3186	778.5714	816.6708	831.205	844.6001	881.3308	924.7694	929.7137	949.3209	962.268	977.9918	1041.4328	1056.0033	1091.1322	1098.8131	1127.4858	1135.9821	1171.5468	1204.146	1215.7487	1231.9043	1232.1903	1255.4942	1264.4191	1267.0979	1270.217	1299.9522	1320.4597	1322.7157	1325.799	1465.7841	1482.7266	1489.741	1507.0853	3051.0365	3053.3352	3061.6551	3064.1984	3066.797	3075.6631	3081.5929	3091.2482	3094.5638	3095.1781	3111.7073	3117.4819
C1CC2C1C1CCC21	C1C[C@H]2[C@@H]1[C@H]1CC[C@@H]21	
InChI=1S/C8H12/c1-2-6-5(1)7-3-4-8(6)7/h5-8H,1-4H2	InChI=1S/C8H12/c1-2-6-5(1)7-3-4-8(6)7/h5-8H,1-4H2/t5-,6+,7-,8+
