19
gdb 97755	6.72696	0.56231	0.55313	2.9633	87.24	-0.238	-0.0213	0.2168	2025.9281	0.157021	-385.879227	-385.869469	-385.868525	-385.915659	34.605	
C	 0.5013759993	 1.6692370326	-0.3617177381	-0.363853
C	-0.1763658307	 0.3462240084	 0.0394736749	-0.314613
C	 0.4109071305	-0.2598484288	 1.2303752864	 0.096485
C	 0.9156502472	-0.7358331327	 2.2162921043	 0.040857
C	 1.49907197	-1.3368037082	 3.3982975343	-0.171154
C	 0.5176211031	-1.8349239731	 4.5207647	-0.343284
C	 1.289614648	-3.1628358891	 4.534559886	 0.396105
O	 1.3151037102	-4.097010744	 5.2804143184	-0.285265
C	 2.0742760862	-2.7938626133	 3.2666032679	-0.343545
H	 1.562871378	 1.5135704216	-0.5724301386	 0.128174
H	 0.0287515932	 2.0835429413	-1.2572026216	 0.115167
H	 0.4220073367	 2.4057935249	 0.4424082517	 0.128192
H	-1.246748083	 0.5204625306	 0.2097293874	 0.128858
H	-0.1178958239	-0.3628954942	-0.7964493385	 0.128755
H	 2.2550689326	-0.6730847086	 3.8288778052	 0.108949
H	 0.4913999958	-1.2734278705	 5.4573957581	 0.133377
H	-0.5055026658	-1.9654705665	 4.155517649	 0.141731
H	 1.6913795995	-3.3189050212	 2.3862156313	 0.141672
H	 3.1588988231	-2.9165880791	 3.3089272622	 0.133389
30.6447	44.0475	98.8579	113.2452	192.6881	213.7061	315.162	399.4994	441.4102	458.3086	493.365	527.8376	607.4013	672.1936	713.4514	786.936	835.3306	909.421	926.4825	991.1222	991.345	1048.375	1080.5132	1099.2731	1106.3913	1173.8107	1190.8387	1193.1986	1230.1475	1240.3982	1287.1779	1345.6648	1360.9519	1410.1481	1425.5674	1444.6425	1475.8996	1494.9387	1505.6612	1898.1408	2362.3315	3018.5982	3044.7306	3045.1022	3056.2293	3062.6745	3067.6075	3118.146	3123.8657	3124.9209	3125.6514
CCC#CC1CC(=O)C1	CCC#CC1CC(=O)C1	
InChI=1S/C8H10O/c1-2-3-4-7-5-8(9)6-7/h7H,2,5-6H2,1H3	InChI=1S/C8H10O/c1-2-3-4-7-5-8(9)6-7/h7H,2,5-6H2,1H3
