20
gdb 19395	2.91687	2.13586	1.58834	0.2964	78.7	-0.2407	0.0938	0.3345	906.3024	0.177427	-311.827687	-311.820102	-311.819158	-311.859015	30.431	
C	-0.1305717279	 1.5692379238	-0.0450472674	-0.407266
C	 0.0491843958	 0.056888524	 0.0048823107	-0.061876
C	 1.0919127758	-0.6043139017	-0.9178354772	-0.053533
C	 2.500013348	-0.2484727296	-0.5221930853	-0.284476
C	 1.7611375768	-1.2829989981	 0.281303278	-0.13458
C	 0.7776865235	-0.5983957864	 1.2095413857	 0.390079
C	 1.0532228821	-0.0172903721	 2.5671254715	-0.325004
C	 0.1226331549	-1.2024313188	 2.4119004463	-0.344453
H	 0.8227283604	 2.0942172106	 0.0694465333	 0.115623
H	-0.5707126404	 1.8770824993	-0.999937836	 0.112469
H	-0.7982375196	 1.9156499403	 0.7522936156	 0.110191
H	-0.9225561403	-0.4308264985	-0.1337038468	 0.07286
H	 0.8714594528	-1.0264050658	-1.8910596526	 0.081021
H	 3.2697637886	-0.6327103196	-1.1844574702	 0.106576
H	 2.7356656382	 0.7173209039	-0.0824454054	 0.106787
H	 2.1083295361	-2.3052410924	 0.3779338486	 0.082431
H	 2.0297110836	-0.1852715904	 3.0105519288	 0.108994
H	 0.6116435119	 0.943265387	 2.8138427876	 0.108327
H	-0.9417905809	-1.0400713326	 2.5543238761	 0.107087
H	 0.4713213705	-2.1728291728	 2.7520675485	 0.108742
134.3905	203.1318	207.854	244.9082	267.6445	361.925	474.3095	538.0092	562.176	705.4265	765.8464	782.4123	800.2158	873.6814	904.552	909.7521	928.0036	942.7096	982.8171	1004.4727	1022.1212	1049.9836	1059.4568	1074.6346	1083.9424	1093.7258	1103.4927	1139.9293	1183.4857	1188.8431	1232.1531	1247.6737	1288.6803	1339.5386	1361.601	1399.9373	1411.0097	1462.876	1485.4979	1493.0392	1498.1039	1506.2906	3027.02	3035.6042	3088.3018	3104.3064	3112.883	3116.5078	3122.7162	3170.9345	3179.5566	3193.9343	3199.6133	3210.0124
CC1C2CC2C11CC1	C[C@H]1[C@H]2C[C@H]2C21CC2	
InChI=1S/C8H12/c1-5-6-4-7(6)8(5)2-3-8/h5-7H,2-4H2,1H3	InChI=1S/C8H12/c1-5-6-4-7(6)8(5)2-3-8/h5-7H,2-4H2,1H3/t5-,6+,7+/m0/s1
