17
gdb 116029	2.49948	1.48179	0.9625	4.3442	71.53	-0.2417	-0.0634	0.1783	1175.7231	0.135979	-458.97765	-458.969353	-458.968408	-459.010919	30.791	
O	 0.0370677772	 1.4039606899	-0.075799401	-0.425904
C	 0.0553040262	-0.0071453097	-0.0395178028	-0.065789
C	-1.3589500227	-0.5729852845	 0.037789534	-0.037431
O	-2.0401203056	-0.1089875044	-1.1266056858	-0.271712
C	-3.3832884263	-0.5271774838	-1.2139325868	-0.126437
C	-3.5402278282	-2.0069501928	-1.0221709342	-0.0698
C	-2.5832085806	-2.7443621525	-0.447838775	-0.143081
C	-1.387414032	-2.1012805625	 0.129805368	 0.364659
O	-0.5139986626	-2.721640727	 0.7017019387	-0.329054
H	-0.5563732956	 1.6464645959	-0.7960466679	 0.289019
H	 0.5584768218	-0.4340627346	-0.9207420763	 0.09847
H	 0.6131121541	-0.3141655272	 0.8468247486	 0.133132
H	-1.8532680669	-0.1710894981	 0.9414257456	 0.098459
H	-4.0160850444	 0.0086479587	-0.4803932603	 0.115331
H	-3.7358890303	-0.2333425929	-2.2088539252	 0.13148
H	-4.4692274823	-2.4543978966	-1.3675140361	 0.120159
H	-2.663278182	-3.8194906178	-0.3243341838	 0.1185
73.4434	116.025	166.0416	210.116	317.6181	321.2777	397.8222	429.1987	484.4772	510.9642	533.4967	632.3193	744.2137	810.084	846.1677	923.5765	928.9693	1008.24	1036.2368	1060.0327	1082.0964	1107.0648	1120.8479	1176.7526	1220.2753	1233.095	1274.8893	1310.7148	1347.1116	1389.6678	1397.1163	1406.0957	1428.1247	1476.5353	1496.4802	1683.5368	1781.097	2928.4064	2942.6131	2994.3451	3064.245	3123.3793	3160.9877	3193.8029	3798.437
OCC1OCC=CC1=O	OC[C@H]1OCC=CC1=O	
InChI=1S/C6H8O3/c7-4-6-5(8)2-1-3-9-6/h1-2,6-7H,3-4H2	InChI=1S/C6H8O3/c7-4-6-5(8)2-1-3-9-6/h1-2,6-7H,3-4H2/t6-/m1/s1
