21
gdb 72510	2.68652	1.68407	1.6775	0.3212	85.8	-0.2264	0.0119	0.2383	980.8726	0.185241	-349.975959	-349.968548	-349.967604	-350.006934	31.835	
C	-0.0342438411	 1.5397683185	 0.0324587842	-0.487256
C	-0.013185354	 0.0138549346	 0.0350022664	 0.224331
C	 0.7115482991	-0.5708227684	-1.2403415189	-0.203006
C	 0.7019000706	-2.1179715416	-1.1824328475	-0.200133
C	-0.0323714081	-2.566557441	 0.1368450024	-0.122578
C	 0.7392023582	-1.9109739091	 1.2688697939	-0.085396
C	 0.7475415042	-0.5813297723	 1.2138089114	-0.080801
C	-1.4148903688	-1.9427045296	 0.0592643811	-0.085392
C	-1.4020022662	-0.6129936576	 0.0067500339	-0.080801
H	 0.9818309546	 1.9485319179	 0.0194926472	 0.111595
H	-0.560405456	 1.9258220664	-0.8471903489	 0.111596
H	-0.5404877587	 1.927278052	 0.9231464575	 0.115894
H	 0.1977192587	-0.2071264659	-2.1356202445	 0.093089
H	 1.7350089847	-0.1844100513	-1.2725019097	 0.093086
H	 0.1816947494	-2.5409985395	-2.0465038199	 0.095759
H	 1.7197099959	-2.5182797305	-1.1827067562	 0.095762
H	-0.0619100023	-3.6540228955	 0.2180018635	 0.057778
H	 1.2614329689	-2.5032939602	 2.0115487457	 0.089112
H	 1.2758855965	 0.0657859135	 1.9063267818	 0.084124
H	-2.3073657173	-2.5558547459	 0.0075640627	 0.089112
H	-2.2825789583	 0.0133764155	-0.091912176	 0.084125
214.1168	226.9891	277.1488	296.3437	377.0333	413.5474	459.2711	492.5401	536.0342	650.4606	696.2812	697.1397	717.6976	728.5461	824.0946	831.2791	880.1623	925.0511	927.1327	945.635	955.5007	966.519	967.2235	1009.0381	1048.2651	1111.64	1116.4006	1147.2377	1160.2076	1201.414	1225.338	1232.0213	1273.3461	1306.253	1316.337	1343.0634	1347.2641	1390.2561	1412.2135	1484.94	1496.3157	1497.7751	1506.0822	1649.1393	1700.2384	3026.5452	3039.4895	3054.4794	3077.4389	3095.7028	3095.798	3097.6169	3100.0618	3171.1618	3172.6763	3198.3744	3201.4127
CC12CCC(C=C1)C=C2	C[C@@]12CC[C@@H](C=C1)C=C2	
InChI=1S/C9H12/c1-9-5-2-8(3-6-9)4-7-9/h2-3,5-6,8H,4,7H2,1H3	InChI=1S/C9H12/c1-9-5-2-8(3-6-9)4-7-9/h2-3,5-6,8H,4,7H2,1H3/t8-,9+
