19
gdb 66596	2.96929	1.97769	1.84228	1.2093	84.06	-0.1897	-0.0704	0.1193	873.388	0.159875	-348.611548	-348.604769	-348.603825	-348.642018	29.189	
C	 0.1583503129	 1.517315196	 0.0958469269	-0.510436
C	 0.0587468857	 0.0231928525	-0.033065659	 0.351182
C	 0.0630979965	-0.9065376454	 1.1670833639	-0.106887
C	 1.224646965	-0.9136433081	 0.2046878058	-0.126651
C	 0.6961613338	-2.1458281587	-0.5410543043	-0.091306
C	-0.1017891704	-1.6425776688	-1.7112248153	-0.086187
C	-0.8345623826	-0.6459407299	-1.1005931777	-0.081872
C	-1.8175881666	-1.5472013781	-0.3001945977	-0.250084
C	-0.5942232061	-2.1538641712	 0.5426281658	-0.054667
H	 0.8231609254	 1.797698081	 0.9205796886	 0.110626
H	 0.5523585707	 1.9693449703	-0.8211327091	 0.120158
H	-0.82251225	 1.9660142709	 0.2903953379	 0.117406
H	-0.0032891936	-0.5690634572	 2.1947740179	 0.080459
H	 2.2572326378	-0.6192399036	 0.3422134301	 0.082864
H	 1.304701827	-3.0454909078	-0.6226025914	 0.071948
H	-0.5844692121	-2.3635226511	-2.3711407779	 0.102247
H	-2.5213503071	-1.0245731099	 0.3574662503	 0.100359
H	-2.3518961771	-2.2844993089	-0.9024709886	 0.105797
H	-0.7691124994	-3.0146635419	 1.1946227938	 0.065043
197.4451	218.3911	262.7186	412.5476	427.9813	536.9992	556.9534	603.0636	664.284	686.7467	712.9038	767.6487	812.9589	840.4717	884.0521	894.4819	903.4563	930.0094	937.1791	957.4761	985.2558	1006.9148	1020.4351	1064.1826	1066.4322	1103.9676	1116.7153	1175.8525	1179.2662	1200.3503	1215.3289	1228.4502	1257.9461	1275.0924	1307.8549	1389.3577	1416.7781	1451.7607	1484.0472	1487.663	1500.4359	3021.7121	3038.9733	3075.5959	3084.3181	3090.6641	3109.5261	3118.7837	3126.5368	3175.3798	3193.7484
CC12C3C1C1C=C2CC31	C[C@]12[C@@H]3[C@H]1[C@@H]1[CH][C]2C[C@H]31	
InChI=1S/C9H10/c1-9-4-2-5-6(3-4)8(9)7(5)9/h2,5-8H,3H2,1H3	InChI=1S/C9H10/c1-9-4-2-5-6(3-4)8(9)7(5)9/h2,5-8H,3H2,1H3/t5-,6+,7-,8+,9-/m1/s1
