22
gdb 114731	2.34957	1.41794	1.08976	1.3668	80.69	-0.225	0.0678	0.2928	1203.3038	0.195458	-404.325194	-404.316263	-404.315319	-404.358502	34.792	
C	-0.8354689681	 1.2514217459	 0.1417392641	-0.396819
C	-0.0250474369	-0.0420862421	 0.0932045933	 0.031652
C	 0.6553476197	-0.4069579368	-1.2726448017	-0.05253
C	 0.8895906578	 0.7422537413	-2.2659246031	-0.07797
O	 1.5144431447	 0.2934798643	-3.4610538996	-0.417194
C	 1.9640504242	-1.1264734556	-0.852944964	-0.241197
C	 2.2098589049	-0.7007893912	 0.5868264167	-0.009692
C	 2.1919361514	 0.7492885065	 0.9067145491	-0.257939
N	 1.0024644267	-0.0805769681	 1.1570115122	-0.094509
H	-0.2227512048	 2.128215774	-0.0885670994	 0.1175
H	-1.6669070077	 1.2231269617	-0.5693949495	 0.113639
H	-1.2502004199	 1.3873258564	 1.1443510593	 0.126865
H	-0.7038978123	-0.8677444401	 0.3402660399	 0.08224
H	 0.0010445508	-1.1157255313	-1.7977055193	 0.06244
H	-0.0628275751	 1.2464052054	-2.4871218252	 0.089867
H	 1.5674485941	 1.5008843871	-1.8642057686	 0.114136
H	 0.9415565414	-0.3688410014	-3.8618078355	 0.27905
H	 1.8374660175	-2.2136157875	-0.8878144194	 0.099451
H	 2.788234114	-0.8797734799	-1.5284440945	 0.12179
H	 2.7532037187	-1.3836148328	 1.2347087825	 0.085596
H	 2.6795523424	 1.1130352567	 1.8069361939	 0.113971
H	 2.1865488166	 1.4636787476	 0.0892749788	 0.109653
101.8531	123.7284	191.321	227.423	250.7542	286.0957	301.4291	350.4631	405.5008	458.2782	504.2496	652.8001	717.4176	734.1733	796.2997	849.3206	874.1924	887.5921	940.1889	956.3048	994.4743	1036.8963	1060.8722	1066.8597	1092.6685	1103.6136	1106.7075	1136.7241	1156.5287	1162.4573	1188.3107	1237.8829	1251.5674	1281.5476	1330.405	1345.6896	1361.9321	1373.909	1391.8589	1397.9245	1409.1718	1423.5411	1489.9971	1496.9204	1497.5429	1504.3056	1516.807	2992.3759	3000.6703	3022.53	3041.3083	3049.7243	3084.9623	3093.1953	3109.648	3115.4151	3117.101	3139.6058	3197.3672	3805.8331
CC1C(CO)CC2CN12	C[C@H]1[C@@H](CO)C[C@H]2CN12	
InChI=1S/C7H13NO/c1-5-6(4-9)2-7-3-8(5)7/h5-7,9H,2-4H2,1H3	InChI=1S/C7H13NO/c1-5-6(4-9)2-7-3-8(5)7/h5-7,9H,2-4H2,1H3/t5-,6+,7-,8?/m0/s1
