19
gdb 77489	1.94323	1.85644	1.19296	1.9234	76.2	-0.234	0.0083	0.2424	1108.7402	0.156676	-423.002395	-422.992729	-422.991784	-423.036691	35.296	
C	-0.1233982469	 1.5642000912	 0.0672443882	-0.445889
C	 0.0813460867	 0.0561470952	 0.0407369858	-0.05093
C	 0.8951117406	-0.6338232652	-1.1304389976	 0.166394
C	 0.5630077775	-0.6645350778	-2.5931042798	-0.514933
C	 2.2058718903	-0.1066118063	-0.4373658395	-0.338079
C	 1.323019245	-0.5968335746	 0.7671231785	 0.268634
O	 1.626080326	-0.5465450596	 2.1046382564	-0.470799
C	 1.0307682816	-1.7954025701	-0.1340650677	 0.354395
O	 0.9587135282	-2.9872013979	-0.0696854417	-0.345952
H	 0.7796177631	 2.140270545	-0.1445698635	 0.124326
H	-0.8831391295	 1.8554025609	-0.6659552684	 0.122586
H	-0.4837157511	 1.8695941998	 1.0548660624	 0.133615
H	-0.8677372411	-0.4446111571	 0.2619732961	 0.081314
H	 0.516295524	 0.3452430831	-3.0140344438	 0.12572
H	 1.3160493992	-1.2278622662	-3.1533649446	 0.133067
H	-0.4059722259	-1.1456571608	-2.7612937929	 0.132064
H	 3.1276123864	-0.6573635865	-0.6367802331	 0.109966
H	 2.3676630911	 0.9683109416	-0.4943176578	 0.112718
H	 1.6362804147	-1.4493586548	 2.4436345829	 0.301783
75.0787	153.0825	156.2502	171.3932	179.1615	211.7646	221.1348	256.1813	376.761	429.724	519.2709	585.5463	605.8378	641.363	728.5667	745.8445	809.2403	856.5441	864.9629	955.0721	1006.6472	1032.3204	1059.1688	1093.7782	1111.4995	1127.1028	1151.5435	1175.6732	1186.5419	1311.8612	1336.5414	1386.6684	1411.3976	1416.1991	1439.491	1488.2836	1491.4984	1493.3946	1500.9284	1529.3519	1902.7289	3034.0444	3038.5143	3045.0425	3079.7611	3098.7584	3100.5961	3103.9535	3124.5427	3159.0814	3793.3263
CC1C2(C)CC1(O)C2=O	C[C@H]1[C@@]2(C)C[C@]1(O)C2=O	
InChI=1S/C7H10O2/c1-4-6(2)3-7(4,9)5(6)8/h4,9H,3H2,1-2H3	InChI=1S/C7H10O2/c1-4-6(2)3-7(4,9)5(6)8/h4,9H,3H2,1-2H3/t4-,6+,7+/m0/s1
