19
gdb 70907	2.77575	1.68307	1.30238	1.2515	74.45	-0.2371	0.0783	0.3154	1021.0991	0.159165	-423.001737	-422.993875	-422.992931	-423.033403	31.952	
C	 0.0182737713	 1.4948210476	 0.0989983424	-0.47623
C	-0.0431354102	-0.0085639293	-0.0045952831	 0.419243
C	 0.2874232526	-0.6847448692	-1.3861469565	-0.354048
C	-0.8982355237	-1.6141937135	-1.1296259855	 0.388527
O	-1.6739613627	-2.2122167733	-2.1052113651	-0.465131
C	-0.8705278883	-2.1277448712	 0.3052514768	-0.150958
C	 0.4146438452	-1.9763403426	 1.1090886312	-0.107882
O	 0.7425811352	-0.5874386008	 1.0392128922	-0.301589
C	-1.4069865426	-0.7523456503	 0.0022580118	-0.18564
H	 1.0489084651	 1.843361994	-0.0183704105	 0.127393
H	-0.5955011346	 1.9603061394	-0.6768860002	 0.119531
H	-0.3441044138	 1.8230352896	 1.0779225009	 0.125692
H	 0.0773523971	-0.0137833839	-2.2239509881	 0.104736
H	 1.2914844588	-1.1095231258	-1.4935490949	 0.088724
H	-1.236619391	-3.0235740938	-2.3864588315	 0.285018
H	-1.5706735163	-2.9228592841	 0.533022681	 0.093833
H	 0.2716023635	-2.2516144694	 2.1610729278	 0.103727
H	 1.2398104412	-2.5829817082	 0.7090351345	 0.091721
H	-2.3908913467	-0.3751112751	 0.2457616868	 0.093334
190.034	216.9919	229.4147	262.0935	310.7485	315.7049	373.9281	457.7288	462.161	570.5831	606.3892	716.7717	727.9067	768.4896	837.4692	890.502	896.3857	903.312	959.4554	982.0695	993.7254	1006.2252	1057.244	1072.2101	1108.8829	1135.2526	1152.084	1181.2569	1206.6706	1219.7556	1246.6892	1292.1894	1297.3434	1340.4486	1375.4489	1413.869	1439.6455	1483.0071	1493.7871	1497.9447	1527.2974	2996.4373	3037.0183	3042.1756	3044.1849	3099.2999	3112.6207	3121.5174	3190.0101	3209.2035	3793.9634
CC12CC3(O)C(CO1)C23	C[C@@]12C[C@@]3(O)[C@@H](CO1)[C@@H]23	
InChI=1S/C7H10O2/c1-6-3-7(8)4(2-9-6)5(6)7/h4-5,8H,2-3H2,1H3	InChI=1S/C7H10O2/c1-6-3-7(8)4(2-9-6)5(6)7/h4-5,8H,2-3H2,1H3/t4-,5-,6-,7+/m0/s1
