13
gdb 81089	2.09546	1.80013	1.18928	2.7052	61.32	-0.2687	-0.0558	0.2129	1003.7647	0.086193	-493.6302	-493.622379	-493.621435	-493.663025	28.272	
O	 0.09094799	 1.3599217598	-0.1509046741	-0.43253
C	 0.087164583	-0.0161056368	-0.085824147	 0.15885
C	-0.0256850477	-0.6689815196	 1.3303581664	-0.134284
O	-1.442087402	-0.2001236161	 1.3708983013	-0.336147
C	-1.3327425886	-0.7218366174	-0.0177592594	 0.113125
C	-2.4889488705	-0.6158857635	-0.9415135892	 0.0357
O	-3.529424573	-0.081338884	-0.657425933	-0.233479
C	-0.5868461212	-1.9300712186	 0.6512476576	 0.453201
O	-0.5736463764	-3.1115448622	 0.6839544141	-0.283201
H	-0.582571956	 1.6690091281	 0.4733422068	 0.305265
H	 0.8254883734	-0.4149270257	-0.7841893708	 0.124014
H	 0.5762068529	-0.5204344017	 2.2239202149	 0.131109
H	-2.3032496738	-1.0740559623	-1.9370262976	 0.098378
73.2386	147.2232	175.9926	210.4983	261.9484	308.9698	479.3619	556.5695	562.6546	583.1726	671.5659	700.6313	758.8354	799.5269	827.3256	928.6716	948.6225	1013.021	1042.8538	1111.2542	1160.9656	1169.6374	1205.0422	1288.2315	1311.7296	1421.1811	1443.2078	1813.0611	1948.1458	2900.8732	3109.9747	3162.1466	3738.0903
OC1C2OC1(C=O)C2=O	O[C@H]1[C@H]2O[C@]1(C=O)C2=O	
InChI=1S/C5H4O4/c6-1-5-3(7)2(9-5)4(5)8/h1-3,7H	InChI=1S/C5H4O4/c6-1-5-3(7)2(9-5)4(5)8/h1-3,7H/t2-,3+,5+/m1/s1
