19
gdb 90708	2.97436	1.3583	1.09851	1.3055	75.98	-0.238	0.0048	0.2428	1128.7279	0.160243	-423.014485	-423.006334	-423.00539	-423.047583	31.993	
O	 0.6937595034	 0.8548180755	-0.4480237224	-0.429624
C	 0.1512009996	-0.240398446	 0.2431650023	 0.150845
C	-0.0449951965	-0.1263244729	 1.7833737178	-0.282012
C	-1.5034340002	-0.6402189124	 1.6466227482	-0.065691
C	-1.3867058276	-0.5501682219	 0.0948878478	-0.099237
C	-1.7550347585	-1.9165992038	-0.4007699975	-0.079618
C	-1.9816682403	-2.7681983366	 0.6014145	-0.12173
C	-1.7812662	-2.1455871876	 1.9678831267	 0.084588
O	-0.7639613992	-2.8113473078	 2.7153266134	-0.426681
H	 0.2212992283	 1.647793067	-0.1726293703	 0.277745
H	 0.7620873951	-1.0994721361	-0.0498314421	 0.082709
H	 0.6212958604	-0.7101299604	 2.4212218882	 0.108437
H	-0.0027462327	 0.9177501296	 2.1097463522	 0.09336
H	-2.2570580206	-0.0057355802	 2.1147090646	 0.072018
H	-1.9262418459	 0.2680516005	-0.3922090392	 0.068303
H	-1.7910072431	-2.1712549663	-1.4552484262	 0.102073
H	-2.2336295556	-3.8181823751	 0.4958558284	 0.09953
H	-2.6709263642	-2.2432769244	 2.5995094122	 0.088607
H	-0.0297631423	-2.9858024811	 2.116033716	 0.276377
39.6935	152.7832	224.9175	296.1431	313.9758	348.5421	362.55	440.3962	500.9135	557.4249	617.3077	729.5089	772.5507	791.1957	805.9046	850.1319	902.3806	953.6729	980.4059	988.0424	992.572	1023.1479	1050.7316	1078.6282	1123.934	1128.8024	1134.0603	1167.3285	1213.9022	1241.6685	1248.5105	1253.7716	1271.0737	1315.0077	1328.2897	1341.6027	1370.9814	1428.9108	1430.952	1480.169	1670.508	3044.3319	3053.084	3057.3267	3066.7061	3094.8024	3118.7119	3176.2014	3201.9666	3798.8171	3803.5157
OC1CC2C1C=CC2O	O[C@H]1C[C@H]2[C@@H]1C=C[C@H]2O	
InChI=1S/C7H10O2/c8-6-2-1-4-5(6)3-7(4)9/h1-2,4-9H,3H2	InChI=1S/C7H10O2/c8-6-2-1-4-5(6)3-7(4)9/h1-2,4-9H,3H2/t4-,5-,6+,7-/m0/s1
