15
gdb 24278	4.17336	1.66332	1.30383	4.6425	69.79	-0.2028	0.0354	0.2382	923.0252	0.116101	-416.808855	-416.802735	-416.80179	-416.839303	24.858	
C	-0.0215893548	 1.4828876034	 0.1110272976	-0.337372
C	 1.2924885374	 0.7527234733	 0.0049598445	 0.067103
O	 2.0006591076	 0.43660465	 1.1936302421	-0.269151
C	 1.1948658675	-0.3935015046	 1.9138172199	 0.353478
C	 1.1421552192	-1.018748638	 3.1261109395	-0.221444
N	-0.0356175656	-1.7492898548	 3.1825532095	-0.267802
C	-0.6723062867	-1.5477654027	 2.0530931107	-0.021347
N	 0.0548972868	-0.7258319473	 1.2278126871	-0.041088
C	-0.0076620467	-0.0292324687	-0.021648458	-0.045824
H	-0.3153473098	 1.9030982453	 1.0663248408	 0.147649
H	-0.3197722038	 2.0523473308	-0.7624912707	 0.133185
H	 1.9495289412	 0.885621803	-0.8441433923	 0.127188
H	 1.8487901823	-1.0036462525	 3.9382944611	 0.115289
H	-1.6245751037	-1.9671822722	 1.7694412385	 0.131819
H	-0.4029381308	-0.554976915	-0.8812464202	 0.128316
127.1391	255.6488	364.666	445.0744	466.8715	646.1075	663.7243	686.2536	727.8554	757.8216	782.1236	787.6058	792.3546	825.9817	946.4448	962.3721	982.8479	1039.6204	1066.778	1083.791	1110.456	1130.4392	1177.8047	1186.8879	1249.3341	1275.1782	1299.1362	1361.8901	1421.7677	1432.9315	1460.4262	1506.1468	1622.5865	3138.9143	3195.792	3208.5782	3235.2712	3262.0639	3275.5875
C1C2OC3=CN=CN3C12	C1[C@H]2Oc3cncn3[C@@H]12	
InChI=1S/C6H6N2O/c1-4-5(1)9-6-2-7-3-8(4)6/h2-5H,1H2	InChI=1S/C6H6N2O/c1-4-5(1)9-6-2-7-3-8(4)6/h2-5H,1H2/t4-,5+/m0/s1
