13
gdb 132817	2.42125	1.83806	1.04487	2.0385	63.36	-0.2348	-0.0101	0.2247	1018.7054	0.089836	-497.914162	-497.906943	-497.905998	-497.945658	27.821	
O	 0.0985855099	 1.3659638701	 0.1144897697	-0.432288
C	 0.0705427744	 0.0177384467	 0.0610200293	 0.351591
C	 0.1154547911	-0.6517329068	-1.1625971865	 0.093013
O	 0.1886569112	 0.0873082995	-2.3084924224	-0.466236
C	 0.0818950353	-2.0400550238	-1.1276088917	 0.243751
F	 0.1266743031	-2.6599929554	-2.3205510915	-0.092607
N	 0.0122436779	-2.7802789598	-0.0534714758	-0.334007
C	-0.0302907846	-2.1260196313	 1.1179042982	-0.009381
C	-0.0042128657	-0.7438436136	 1.2286605253	-0.217165
H	 0.1520646611	 1.7022341426	-0.7900745089	 0.316633
H	 0.212596337	-0.5187938823	-3.058244303	 0.312227
H	-0.0881308002	-2.7459716307	 2.0069264273	 0.119364
H	-0.0402066604	-0.2490672851	 2.19116723	 0.115105
149.459	257.8541	277.3962	307.6421	320.2219	348.6237	483.7592	505.3148	540.1127	567.2157	584.3111	636.1416	728.4178	758.4987	847.8186	850.3154	960.9056	1024.6022	1095.397	1201.7047	1246.8785	1295.438	1326.025	1385.6773	1401.6499	1492.359	1545.6593	1650.4091	1660.6497	3179.0221	3215.3713	3777.2941	3811.4323
OC1=C(O)C(F)=NC=C1	Oc1c(O)c(F)ncc1	
InChI=1S/C5H4FNO2/c6-5-4(9)3(8)1-2-7-5/h1-2,9H,(H,7,8)	InChI=1S/C5H4FNO2/c6-5-4(9)3(8)1-2-7-5/h1-2,9H,(H,7,8)
