23
gdb 119885	4.06206	0.79201	0.71194	1.4273	89.31	-0.2322	0.0269	0.2591	1680.5464	0.206406	-388.307087	-388.297553	-388.296608	-388.342128	35.51	
C	-0.1171544232	 1.6084930742	 0.0556218005	-0.377598
C	-0.0893891482	 0.0779227128	 0.0422459892	-0.157949
C	 0.8026482382	-0.5097565037	 1.1531792772	-0.280865
C	 0.8328262992	-2.017748113	 1.1849074703	 0.314568
C	 1.8888965407	-2.726774492	 0.7821838013	-0.174628
C	 1.9418868724	-4.2294068007	 0.8363577624	-0.115802
O	 0.883929021	-4.8063753057	 1.5766041483	-0.245563
C	-0.3664603415	-4.2125175842	 1.2774118098	-0.081343
C	-0.3924860663	-2.7424963513	 1.6991120845	-0.298046
H	 0.8881619629	 2.0240938528	-0.0757032642	 0.114498
H	-0.7480139567	 2.0030668737	-0.746998811	 0.111763
H	-0.5090415759	 1.9894202667	 1.0054345142	 0.114056
H	-1.11222802	-0.3046472394	 0.1450611471	 0.097927
H	 0.2744738902	-0.2804163703	-0.9285149084	 0.099452
H	 1.8226856036	-0.1274471993	 1.0268656971	 0.096345
H	 0.4473445473	-0.1320235446	 2.1234980052	 0.095393
H	 2.775380638	-2.2297156824	 0.3931808451	 0.078627
H	 1.9627284555	-4.6407370516	-0.1912025308	 0.09204
H	 2.8672264835	-4.5612674831	 1.3232583688	 0.114244
H	-0.5805752626	-4.292796905	 0.1982350654	 0.086112
H	-1.1193814105	-4.7967420099	 1.8142780222	 0.103869
H	-0.4360968403	-2.6663929002	 2.7946649822	 0.112868
H	-1.3092230574	-2.2709361336	 1.3230234134	 0.100033
58.8412	76.2115	95.2375	188.077	240.756	268.5427	291.8783	328.9709	334.1392	463.3548	518.1818	555.15	711.4896	744.3829	803.1222	832.1533	866.0838	877.8608	901.5466	941.032	991.3275	1028.8994	1040.0297	1043.5898	1082.0787	1100.8341	1116.0103	1160.5343	1186.0384	1226.6228	1253.5936	1260.5868	1304.1734	1310.1804	1319.6708	1342.5019	1374.0112	1381.7831	1390.9618	1410.9006	1423.8286	1466.9653	1478.5625	1489.014	1492.2716	1497.8338	1502.5637	1509.4721	1739.5526	2920.0673	2964.3108	2997.0192	3010.7504	3027.1988	3029.1569	3042.5824	3044.869	3049.54	3066.345	3083.9597	3096.9522	3101.7719	3145.6934
CCCC1=CCOCC1	CCCC1=CCOCC1	
InChI=1S/C8H14O/c1-2-3-8-4-6-9-7-5-8/h4H,2-3,5-7H2,1H3	InChI=1S/C8H14O/c1-2-3-8-4-6-9-7-5-8/h4H,2-3,5-7H2,1H3
