15
gdb 24493	3.93184	1.70018	1.18694	3.9499	81.9	-0.2164	-0.0228	0.1936	967.4076	0.117814	-379.762053	-379.75592	-379.754975	-379.792261	25.319	
N	-0.0295600288	 1.3652833132	 0.0100055575	-0.386285
C	 1.2709530031	 1.8328091134	-0.0000672765	-0.051172
C	 2.1451868132	 0.7816816931	-0.0143159856	-0.266435
C	 1.3537665333	-0.4133468193	-0.0131888095	 0.32191
C	-0.0125779228	-0.008618533	 0.0023602117	 0.318221
C	-1.0255573761	-0.9602730669	 0.0070331472	-0.228459
C	-0.6140765801	-2.2858114919	-0.0042410065	-0.105538
C	 0.7576516201	-2.5971116385	-0.0193257166	-0.040855
N	 1.7381141016	-1.6997829924	-0.023978323	-0.349445
H	-0.8516411997	 1.9427019286	 0.0211913532	 0.262446
H	 1.4621298159	 2.8949139278	 0.0038899441	 0.12868
H	 3.2216998768	 0.8385063563	-0.0244713518	 0.10952
H	-2.0763149757	-0.6884636669	 0.018760923	 0.095494
H	-1.3428135309	-3.0884115665	-0.0015328076	 0.094759
H	 1.0642364902	-3.640766117	-0.0280317196	 0.097156
221.5996	250.8699	383.4029	429.6397	441.6943	556.8049	603.694	620.3883	631.3489	749.4609	770.8687	796.4405	832.0885	862.5016	897.2529	903.1137	940.5742	968.3239	1053.0997	1081.8005	1109.3882	1147.3068	1212.1107	1265.4019	1312.4048	1344.489	1388.9987	1426.3232	1449.8983	1528.5318	1551.7747	1597.4831	1655.9739	3148.7085	3174.4338	3199.691	3252.0441	3273.2072	3681.3295
N1C=CC2=C1C=CC=N2	[nH]1ccc2c1cccn2	
InChI=1S/C7H6N2/c1-2-6-7(8-4-1)3-5-9-6/h1-5,9H	InChI=1S/C7H6N2/c1-2-6-7(8-4-1)3-5-9-6/h1-5,9H
