17
gdb 64912	2.24894	1.44745	1.0539	3.6666	76.81	-0.2457	-0.0226	0.2231	1162.6189	0.131256	-421.786095	-421.776272	-421.775328	-421.820448	35.986	
C	-0.0721921293	 1.536647731	 0.1254082014	-0.457721
C	-0.0496892657	 0.0252110478	 0.0641911931	 0.160089
C	 1.2531198666	-0.7110373162	-0.2382684773	-0.384691
C	 0.6946234623	-0.7576791782	 1.1598418685	 0.186158
O	 1.2809226374	 0.0659693797	 2.1303234228	-0.444607
C	 0.164720238	-1.9977289711	 1.6715657012	 0.300867
C	-0.2239080765	-3.035765511	 2.1386888033	-0.467351
C	-1.2816674654	-0.6093083231	-0.4905716447	 0.118757
O	-2.2395604945	 0.0136886229	-0.8754582975	-0.261474
H	 0.8371677694	 1.9253347953	 0.58295131	 0.13219
H	-0.1727576923	 1.9460402964	-0.8838113262	 0.130375
H	-0.9307976378	 1.8819545057	 0.7069345822	 0.139802
H	 1.2093878517	-1.6125415849	-0.8402654548	 0.131364
H	 2.1298745475	-0.0901015546	-0.3835077064	 0.134618
H	 1.9867088386	-0.4387662521	 2.5507566111	 0.293331
H	-0.5878383512	-3.9460309579	 2.5478270667	 0.206052
H	-1.2550890988	-1.7190572797	-0.5435500434	 0.082241
90.6276	115.7512	133.9562	155.0576	240.9347	260.1751	267.066	288.2515	355.7581	412.7789	439.4568	490.0776	555.1774	604.1679	643.0097	678.3045	687.0115	774.1519	848.7605	902.7099	929.1396	982.0395	1030.9196	1057.6623	1109.4084	1127.8503	1220.578	1276.9183	1318.6184	1376.5447	1412.4893	1443.1248	1464.7394	1485.1739	1494.5703	1816.9208	2230.7158	2901.8987	3056.8306	3120.0064	3132.322	3156.5695	3229.8855	3499.1037	3797.446
CC1(CC1(O)C#C)C=O	C[C@]1(C[C@]1(O)C#C)C=O	
InChI=1S/C7H8O2/c1-3-7(9)4-6(7,2)5-8/h1,5,9H,4H2,2H3	InChI=1S/C7H8O2/c1-3-7(9)4-6(7,2)5-8/h1,5,9H,4H2,2H3/t6-,7+/m0/s1
