20
gdb 79013	3.69687	1.72128	1.55689	1.6177	80.58	-0.2312	0.0981	0.3293	935.7776	0.174893	-365.992752	-365.986235	-365.98529	-366.023214	27.985	
C	-0.1260001785	 1.5962991454	 0.0574081327	-0.428118
C	 0.0406521612	 0.0874024501	-0.0182031245	 0.044744
C	 0.8577085851	-0.5923720699	-1.1677579	-0.085745
C	 2.2473008581	 0.026995856	-0.9885248067	-0.044868
C	 3.1653048031	-0.9494437123	-0.3403339316	-0.038355
C	 2.5020909472	-2.3098996539	-0.322172666	-0.261776
C	 1.0764977823	-1.8031961824	-0.1900160734	-0.04087
C	 1.0935141392	-0.6477070563	 0.8546811518	-0.018446
N	 2.3947533981	 0.0149620849	 0.4982306651	-0.131471
H	 0.8383753535	 2.1087369284	 0.023790901	 0.135303
H	-0.7421873847	 1.9640023331	-0.7708751282	 0.109456
H	-0.6233084733	 1.8840091221	 0.9902760646	 0.113782
H	-0.9299975931	-0.4107915956	 0.0851006485	 0.068495
H	 0.4676081419	-0.7098737608	-2.1787574814	 0.060577
H	 2.5800049087	 0.9068660866	-1.5267690897	 0.088162
H	 4.2422974375	-0.8228214541	-0.3380360842	 0.088029
H	 2.6803321045	-2.8717175604	-1.2454484911	 0.10331
H	 2.8153093486	-2.9250099222	 0.5286960344	 0.103674
H	 0.2605211125	-2.5191258501	-0.1219269145	 0.070745
H	 0.9801751183	-0.7992495085	 1.9281747631	 0.063373
194.0707	221.6619	240.379	399.7541	508.705	514.8115	680.9414	704.7332	732.7507	771.0992	787.2058	830.5475	843.3509	871.3347	880.2807	925.6963	929.2134	967.6552	989.4371	998.8104	1015.6249	1047.2344	1056.1374	1074.642	1086.6983	1106.3293	1137.8726	1149.1808	1193.2165	1201.473	1217.5619	1233.8279	1249.2445	1272.2006	1284.6743	1297.4347	1337.8594	1372.3264	1399.2386	1415.078	1485.1907	1492.7978	1502.8264	3031.8901	3041.9152	3045.3349	3086.0393	3089.8674	3112.9501	3114.7306	3124.751	3146.5138	3171.4419	3182.4809
CC1C2C3C4CC2C1N34	C[C@H]1[C@H]2[C@@H]3[C@@H]4C[C@H]2[C@H]1N34	
InChI=1S/C8H11N/c1-3-6-4-2-5-8(6)9(5)7(3)4/h3-8H,2H2,1H3	InChI=1S/C8H11N/c1-3-6-4-2-5-8(6)9(5)7(3)4/h3-8H,2H2,1H3/t3-,4+,5-,6+,7-,8-,9?/m0/s1
