15
gdb 55486	4.84242	0.66525	0.58699	3.8613	73.2	-0.2474	-0.03	0.2174	1760.17	0.110871	-453.985122	-453.974918	-453.973974	-454.022692	34.469	
N	 0.4466994018	 0.0402145729	 0.3466142053	-0.523533
C	-0.6987396541	 0.4747163483	-0.2294015566	 0.428766
O	-0.9525320081	 1.6378141097	-0.4629903915	-0.357392
C	-1.727566847	-0.6230212265	-0.5991535248	-0.490088
C	-1.3427925945	-1.9862164033	-0.2832250481	 0.006231
C	-0.9453145781	-3.0866805919	 0.0117162993	 0.088133
C	-0.3090609204	-4.3263076208	 0.4316434345	 0.278366
N	-1.0431349189	-5.4497175783	 0.2030740082	-0.52201
O	 0.7949570527	-4.3319820813	 0.9450587922	-0.341799
H	 1.1397988163	 0.7241132715	 0.6010625596	 0.265806
H	 0.62038277	-0.9354866727	 0.5244003503	 0.285984
H	-2.6615709939	-0.3542407865	-0.0929654817	 0.170761
H	-1.9252426223	-0.512582743	-1.6713642645	 0.170793
H	-1.9526519129	-5.4096922353	-0.2220646712	 0.269896
H	-0.6563289205	-6.3391778227	 0.4729763189	 0.270088
28.2474	43.0956	45.99	130.0552	146.6663	179.5374	337.246	345.2265	367.0695	415.0697	511.1379	515.793	555.0941	573.1349	621.1747	683.3255	737.2568	771.0175	838.2155	944.0693	1082.8622	1090.6136	1103.6452	1211.3026	1289.5213	1350.1394	1364.5728	1437.8906	1608.3408	1616.3484	1768.0449	1812.0234	2340.9651	3048.7534	3082.7033	3593.3814	3604.0061	3727.7827	3745.6154
NC(=O)CC#CC(N)=O	NC(=O)CC#CC(=O)N	
InChI=1S/C5H6N2O2/c6-4(8)2-1-3-5(7)9/h2H2,(H2,6,8)(H2,7,9)	InChI=1S/C5H6N2O2/c6-4(8)2-1-3-5(7)9/h2H2,(H2,6,8)(H2,7,9)
