18
gdb 115403	2.82314	1.22758	1.07015	1.808	70.82	-0.2551	0.023	0.2781	1201.2815	0.146832	-476.225329	-476.216086	-476.215141	-476.260262	32.489	
C	-0.1216645118	 1.4348053647	 0.0584941388	-0.338235
N	-0.1559527793	 0.0045587702	 0.3153062632	-0.317408
C	-1.219040633	-0.6417468859	 0.1560312359	 0.391869
C	-1.4132646172	-2.1215401863	 0.3990730468	-0.178512
O	-2.6837289359	-2.4019011397	-0.1705774018	-0.261034
C	-3.3950153425	-1.1919209646	-0.2672064757	 0.204477
C	-4.3683177792	-0.9807458468	 0.89334383	-0.100037
O	-3.6988491951	-0.8649244704	 2.1322024825	-0.415764
O	-2.4275451887	-0.1380757654	-0.2672984354	-0.265674
H	 0.6664747653	 1.6453761832	-0.6726311431	 0.131153
H	-1.0648382313	 1.8527901341	-0.3119699539	 0.120275
H	 0.1572346088	 1.9574930972	 0.980782889	 0.127116
H	-0.6495972745	-2.7184606091	-0.1050933653	 0.13863
H	-1.3968265626	-2.3404142057	 1.4733611728	 0.138973
H	-3.9275476463	-1.1759193308	-1.2265066544	 0.099427
H	-4.9975410904	-0.104038153	 0.6766666909	 0.099284
H	-5.0179898037	-1.858706874	 0.9593505971	 0.128275
H	-3.2302823527	-0.0235164177	 2.1282736626	 0.297184
55.4351	74.3983	117.4141	141.1669	215.3041	242.3386	259.8183	338.2642	401.0853	483.1255	581.4106	626.4579	684.3475	821.8958	850.5857	864.1369	923.5155	1015.51	1030.1916	1039.9616	1061.9143	1095.5628	1125.0819	1134.4357	1177.3202	1201.3565	1212.9964	1244.5318	1345.471	1369.5253	1377.4664	1407.1915	1414.558	1442.019	1484.5466	1495.5335	1497.7755	1500.3656	1826.8013	2994.8849	3017.0145	3037.102	3039.5806	3079.4211	3087.8158	3094.6679	3103.4941	3816.8747
CN=C1COC(CO)O1	CN=C1CO[C@@H](CO)O1	
InChI=1S/C5H9NO3/c1-6-4-3-8-5(2-7)9-4/h5,7H,2-3H2,1H3	InChI=1S/C5H9NO3/c1-6-4-3-8-5(2-7)9-4/h5,7H,2-3H2,1H3/t5-/m1/s1
