15
gdb 47254	2.4656	1.81685	1.13666	4.9209	70.92	-0.2338	-0.0498	0.184	1027.6681	0.114234	-453.968148	-453.960446	-453.959502	-454.000967	28.548	
N	-0.0293992845	 1.2821723061	-0.3199460622	-0.445102
C	-0.0382705212	 0.0434465331	-0.0933279847	 0.252577
O	 1.0731955917	-0.7213262649	 0.1654784792	-0.251768
C	 1.6439413653	-1.4050584938	-0.9531291244	-0.160277
C	 0.7621069734	-2.470630636	-1.5241695616	-0.102261
C	-0.532306941	-2.684718897	-1.2789460485	 0.024183
N	-1.425714769	-1.9622963345	-0.4847950211	-0.353186
C	-1.3620521132	-0.690295725	 0.05085635	 0.392835
O	-2.3114609633	-0.2051889783	 0.622542688	-0.328325
H	 0.9346404446	 1.6257250898	-0.3431212492	 0.234097
H	 1.9365325063	-0.6742293618	-1.7242760974	 0.116201
H	 2.5676792983	-1.8488682693	-0.5671744449	 0.134863
H	 1.2483531375	-3.1562344275	-2.2107571039	 0.10451
H	-1.0165276715	-3.5327962512	-1.7509091775	 0.120216
H	-2.3426968735	-2.3668301097	-0.3587815616	 0.261437
49.9564	128.2762	186.635	284.6284	349.4668	384.2817	424.903	467.5978	586.7123	616.3016	702.1992	713.0151	732.6818	824.4441	860.8546	897.0032	951.3323	962.0875	979.3884	1048.8483	1095.6258	1117.3056	1232.6377	1278.1779	1283.5594	1379.3501	1404.8161	1449.8283	1489.9285	1492.5738	1745.6407	1748.8188	1797.2049	2974.2067	3067.9508	3175.7553	3196.0985	3452.7779	3609.944
N=C1OCC=CNC1=O	[NH][C]1OCC=CNC1=O	
InChI=1S/C5H6N2O2/c6-4-5(8)7-2-1-3-9-4/h1-2,6H,3H2,(H,7,8)	InChI=1S/C5H6N2O2/c6-4-5(8)7-2-1-3-9-4/h1-2,6H,3H2,(H,7,8)
