16
gdb 85223	2.50147	1.19565	0.96611	4.6855	68.53	-0.2417	-0.0295	0.2122	1228.4604	0.122723	-475.045293	-475.036384	-475.03544	-475.07982	31.782	
O	-0.102032674	 1.3596223856	-0.1536642978	-0.43911
C	-0.0493213225	-0.0456965407	 0.0003229794	 0.076153
C	 0.285517474	-0.4776948097	 1.4581600517	-0.376465
C	-1.2350786411	-0.4774116309	 1.7243791564	 0.377327
O	-1.9163644144	-0.3385068693	 2.6933327282	-0.284716
C	-1.5197717859	-0.5328314716	 0.2020123485	-0.059599
N	-2.5878486906	 0.2181166489	-0.3701230518	-0.278316
C	-3.5456707579	-0.349244388	-1.1576107112	 0.158321
O	-3.6125462784	-1.5290933413	-1.4260925973	-0.319401
H	 0.7910098047	 1.7114498181	-0.0858498285	 0.294445
H	 0.5172604878	-0.5268623495	-0.8032168363	 0.084891
H	 0.7110780567	-1.4841728706	 1.5240006289	 0.137074
H	 0.8847093975	 0.2126071572	 2.0554829144	 0.128944
H	-1.6377078395	-1.5747193243	-0.1125692353	 0.151261
H	-2.5751364781	 1.2183547936	-0.2474237648	 0.264529
H	-4.2711806984	 0.4001096825	-1.5269012345	 0.084661
47.0989	89.0768	151.4474	154.2429	233.8731	284.6286	319.1719	394.3079	421.2553	536.9784	545.8861	579.3143	702.3569	753.4913	797.6893	875.6899	895.3764	971.6792	1029.7416	1039.4676	1051.3951	1113.6358	1121.0373	1183.7804	1204.0885	1239.0088	1250.4447	1293.5111	1336.0191	1404.1523	1427.47	1431.6915	1525.9316	1803.2713	1906.434	2956.9893	3053.2258	3064.5749	3084.5989	3128.4068	3642.2364	3824.4769
OC1CC(=O)C1NC=O	O[C@H]1CC(=O)[C@H]1NC=O	
InChI=1S/C5H7NO3/c7-2-6-5-3(8)1-4(5)9/h2-3,5,8H,1H2,(H,6,7)	InChI=1S/C5H7NO3/c7-2-6-5-3(8)1-4(5)9/h2-3,5,8H,1H2,(H,6,7)/t3-,5-/m0/s1
