19
gdb 114151	4.918	0.9279	0.85543	1.0662	84.8	-0.2335	0.0377	0.2713	1382.2917	0.157472	-385.81949	-385.810471	-385.809527	-385.853233	34.033	
C	 0.0125367555	 1.3022582262	-0.1737971703	-0.237748
O	-0.0346789379	-0.0015015564	 0.3613662507	-0.243467
C	-1.2751950795	-0.6325962766	 0.1763520507	 0.14641
C	-1.6214454628	-1.2049196732	-1.2449737084	-0.332738
C	-1.7426072897	-2.6057747261	-0.6153204372	 0.191535
C	-0.4267796131	-2.9610985006	 0.0382083387	-0.310218
C	-1.3434738889	-2.0306743955	 0.7702344689	-0.136327
C	-2.7437840956	-3.5641538807	-0.933527572	 0.166349
C	-3.6012053452	-4.3598159932	-1.21926019	-0.408525
H	 1.0052756533	 1.7056541269	 0.0390621666	 0.12876
H	-0.1452552303	 1.3083830667	-1.2629151727	 0.108779
H	-0.7438111769	 1.9574950036	 0.2864330974	 0.105179
H	-2.0882005039	 0.0102642848	 0.5438102589	 0.072481
H	-2.5645124947	-0.8250745183	-1.6406861236	 0.114366
H	-0.8396617429	-1.1051835171	-2.0040397814	 0.10327
H	-0.3738611611	-3.9658102364	 0.4420913737	 0.126346
H	 0.4995996491	-2.5888358239	-0.3894246982	 0.122842
H	-1.759090297	-2.279478717	 1.7384029734	 0.099704
H	-4.3538680684	-5.0657460533	-1.4680463253	 0.183003
79.6001	104.5228	140.0912	195.099	207.4304	276.3277	370.2829	438.6896	451.1599	519.6359	547.4522	571.3434	607.1108	644.3446	708.4126	812.3963	847.8805	910.8284	961.2959	970.7852	976.1994	1031.9296	1052.9598	1087.7089	1091.0321	1129.4785	1163.6544	1183.6537	1202.2528	1219.8881	1243.329	1287.0371	1304.4397	1381.6252	1389.7658	1473.4252	1480.8997	1487.4727	1494.7763	1508.4445	2231.5136	2973.373	2995.6257	3021.6685	3056.0418	3116.4047	3125.4459	3125.7971	3195.7138	3221.2858	3504.5969
COC1CC2(CC12)C#C	CO[C@H]1C[C@]2(C[C@@H]12)C#C	
InChI=1S/C8H10O/c1-3-8-4-6(8)7(5-8)9-2/h1,6-7H,4-5H2,2H3	InChI=1S/C8H10O/c1-3-8-4-6(8)7(5-8)9-2/h1,6-7H,4-5H2,2H3/t6-,7-,8+/m0/s1
