17
gdb 74121	2.51372	1.79834	1.14161	6.1767	76.53	-0.2208	-0.006	0.2149	1048.8542	0.138677	-418.037611	-418.030029	-418.029085	-418.069515	29.674	
N	 0.0547121749	 1.4200247062	 0.0155111085	-0.590003
C	-0.0426448446	 0.0581292392	 0.0032216944	 0.363079
C	-1.1347227354	-0.7390018019	 0.0604273119	-0.344315
C	-0.7354242397	-2.1434735281	-0.1210589519	 0.376243
O	-1.4235576479	-3.1100174389	-0.3667730743	-0.381722
N	 0.6841902271	-2.1848733599	-0.0301940171	-0.126805
C	 1.4335793204	-2.5939351845	-1.2564193668	-0.170962
C	 1.8405477149	-1.1154212226	-1.4971161094	-0.255561
C	 1.1874234422	-0.8006392813	-0.1094275739	-0.061564
H	 0.9435179835	 1.826549351	 0.2592588513	 0.258889
H	-0.744171063	 1.9509521829	 0.324421488	 0.263769
H	-2.1676925084	-0.4340994278	 0.150241959	 0.101872
H	 2.2662008398	-3.263754603	-1.0259489928	 0.112992
H	 0.7922226581	-3.0634661468	-2.0059133327	 0.132929
H	 2.9094369985	-0.90904174	-1.5721635189	 0.109429
H	 1.3202625934	-0.642257833	-2.3315369788	 0.12332
H	 1.9200453963	-0.5549318017	 0.6709900935	 0.088409
118.7795	172.2422	225.6146	251.5605	324.7394	383.7376	458.5887	493.6293	596.4766	632.0744	654.7657	721.027	762.0013	774.9538	819.3749	843.8297	887.6331	940.7925	1007.5481	1062.0671	1077.4924	1084.9357	1110.7046	1173.2379	1197.0088	1222.479	1247.2484	1257.6948	1262.7985	1310.9481	1327.1442	1414.3216	1483.7749	1517.4656	1639.9058	1684.9935	1807.9905	3013.9899	3059.9421	3078.7858	3111.0952	3139.5864	3234.1602	3587.7885	3695.4028
NC1=CC(=O)N2CCC12	NC1=CC(=O)N2CC[C@@H]12	
InChI=1S/C6H8N2O/c7-4-3-6(9)8-2-1-5(4)8/h3,5H,1-2,7H2	InChI=1S/C6H8N2O/c7-4-3-6(9)8-2-1-5(4)8/h3,5H,1-2,7H2/t5-/m0/s1
