15
gdb 124293	2.66836	1.53032	0.98429	1.3669	68.35	-0.2752	-0.0797	0.1955	1139.5196	0.11056	-453.937372	-453.928735	-453.92779	-453.971443	30.055	
C	 0.057795473	 1.4941872198	-0.0186164795	-0.481737
C	 0.0488792808	-0.0143785104	 0.0401472622	 0.321232
O	 0.061055206	-0.6424050013	 1.0777828165	-0.303697
C	 0.0239322288	-0.7497318166	-1.2535909048	 0.177722
N	 0.0092439945	-0.144954553	-2.414824391	-0.139713
O	-0.0115449118	-1.1237705724	-3.3461297379	-0.148685
N	-0.0099818073	-2.3722237541	-2.7621154057	-0.130519
C	 0.0116444103	-2.1684582547	-1.4729341023	 0.261023
C	 0.0203839552	-3.2826624856	-0.4836545218	-0.484206
H	 0.9273574246	 1.8463613715	-0.5826758191	 0.158897
H	-0.8265197272	 1.8575798431	-0.5518491932	 0.158913
H	 0.0779929943	 1.8934149668	 0.995487353	 0.145576
H	 0.9074571562	-3.2225602209	 0.1522113287	 0.158314
H	-0.8449434403	-3.2113155772	 0.1803608304	 0.158337
H	 0.005957913	-4.2424558748	-1.0024054055	 0.148542
56.2658	118.9358	120.2295	168.5053	193.8279	292.6343	292.7734	399.9657	498.8302	575.0361	630.6922	650.4879	694.8689	749.6192	895.2332	946.8108	960.9731	1020.6991	1047.1242	1072.0278	1072.9412	1118.9551	1295.3808	1385.8518	1415.586	1431.1669	1457.6237	1467.7757	1472.9049	1475.0975	1501.1661	1607.925	1786.3154	3048.9414	3059.3828	3111.8791	3122.1473	3151.1762	3162.4301
CC(=O)C1=NON=C1C	CC(=O)c1nonc1C	
InChI=1S/C5H6N2O2/c1-3-5(4(2)8)7-9-6-3/h1-2H3	InChI=1S/C5H6N2O2/c1-3-5(4(2)8)7-9-6-3/h1-2H3
