19
gdb 38323	3.79813	1.42081	1.41836	1.8721	79.6	-0.2327	0.0886	0.3214	1001.3406	0.160809	-385.759405	-385.752821	-385.751877	-385.790097	27.967	
C	-0.0739846949	 1.5999852149	 0.0573198192	-0.226058
C	 1.4553214287	 1.2930938107	 0.0952297384	-0.160848
C	 1.1241558841	 0.1957410367	 1.1537874984	-0.226058
C	 0.0286936807	 0.0426635227	 0.0527214661	-0.145386
C	 1.1652807369	 0.2112938798	-0.9732955583	 0.571642
C	 1.0587792533	 0.2960804023	-2.5131960128	-0.085373
C	 2.5978625055	 0.156529827	-2.6088638766	-0.230502
C	 2.0647186562	-0.8829020613	-1.592624365	-0.085373
O	 0.9576547989	-1.1859626189	-2.5358881839	-0.31972
H	-0.4936299319	 2.0517390315	 0.9600573918	 0.091458
H	-0.4642082028	 2.0745672762	-0.8462538463	 0.092645
H	 2.2740867284	 2.0132529801	 0.1228499359	 0.071542
H	 1.8384347425	-0.6241749627	 1.260984693	 0.092645
H	 0.7811070187	 0.5577220591	 2.1266211075	 0.091458
H	-0.7873056522	-0.6778577589	 0.0216162136	 0.083007
H	 0.3734997889	 0.8538404543	-3.1520244048	 0.090887
H	 2.957877939	-0.2684498116	-3.5465383194	 0.105851
H	 3.2188532276	 0.9758425528	-2.2381435627	 0.097297
H	 2.5775341825	-1.7293280247	-1.1350332639	 0.090886
197.1702	209.5395	210.4509	401.8643	524.9802	532.4415	576.6865	642.0979	761.1514	800.4139	810.5513	826.8013	874.2158	897.6292	901.909	912.3477	947.1614	965.2724	1013.3423	1015.1675	1021.8894	1044.9014	1076.134	1088.2234	1088.6697	1112.535	1125.2293	1129.7188	1171.4767	1180.044	1187.192	1195.3715	1209.99	1243.9346	1247.5863	1254.5323	1269.1188	1377.5194	1481.8678	1497.6075	1536.424	3054.0059	3055.3282	3063.8474	3104.4573	3112.0337	3118.104	3119.9015	3121.9772	3128.2143	3148.1561
C1C2CC1C21C2CC1O2	C1[C@H]2C[C@@H]1[C@]12[C@H]2C[C@@H]1O2	
InChI=1S/C8H10O/c1-4-2-5(1)8(4)6-3-7(8)9-6/h4-7H,1-3H2	InChI=1S/C8H10O/c1-4-2-5(1)8(4)6-3-7(8)9-6/h4-7H,1-3H2/t4-,5+,6-,7+,8-
