18
gdb 128289	3.53484	1.15298	0.88573	2.7256	77.09	-0.1844	0.0409	0.2253	1314.9711	0.149432	-431.475107	-431.465593	-431.464649	-431.509615	33.715	
C	-0.1329821116	 1.3755555949	 0.1066566136	-0.318967
N	 0.1836022786	-0.0364729987	-0.0265352951	-0.374385
C	 0.7478597109	-0.7049162508	 1.0360731017	 0.436042
N	 0.6319390807	-2.0167425844	 1.1855326298	-0.380457
N	 1.4161694864	-2.239664115	 2.3031503891	 0.003388
C	 1.6116616769	-3.5719987968	 2.8141797693	-0.331418
C	 1.8957875655	-1.0657310257	 2.7514061903	 0.396702
N	 2.7533351521	-0.9520323487	 3.8356582092	-0.6061
N	 1.5022732649	-0.064091646	 1.9799248169	-0.395187
H	 0.7553200931	 1.9097876703	 0.4477267973	 0.153848
H	-0.4212201891	 1.7677653619	-0.872124602	 0.116498
H	-0.945322888	 1.581467837	 0.8208265683	 0.10682
H	-0.5131378368	-0.5929964281	-0.4994149782	 0.242024
H	 2.5228669338	-3.5926736373	 3.417064546	 0.141229
H	 0.7639133495	-3.9060208651	 3.4245886889	 0.133604
H	 1.7264494567	-4.2589855302	 1.973274349	 0.157285
H	 2.4456060388	-1.4389282934	 4.667278109	 0.25404
H	 2.9319522175	 0.0226451962	 4.0384255169	 0.265035
80.7856	112.8219	122.135	159.2367	190.659	237.574	259.1013	288.5652	366.1059	384.3549	544.0578	572.5642	654.5411	676.1332	711.6203	764.1156	785.5619	846.9411	1022.3412	1038.4881	1100.5891	1132.929	1152.8416	1158.1549	1178.7467	1260.549	1318.8713	1403.3416	1438.5195	1446.1633	1474.7187	1484.7373	1489.0978	1507.0986	1514.6054	1552.8579	1584.4296	1646.5562	1653.8477	2982.9162	3026.1775	3087.1133	3100.4984	3138.4307	3139.1624	3547.9763	3610.5862	3643.6867
CNC1=NN(C)C(N)=N1	CNc1nn(C)c(N)n1	
InChI=1S/C4H9N5/c1-6-4-7-3(5)9(2)8-4/h1-2H3,(H3,5,6,7,8)	InChI=1S/C4H9N5/c1-6-4-7-3(5)9(2)8-4/h1-2H3,(H3,5,6,7,8)
