17
gdb 92968	2.72112	1.50546	1.10762	5.3847	68.42	-0.2377	0.0011	0.2388	1082.656	0.137563	-455.198685	-455.190515	-455.189571	-455.23192	30.419	
C	-0.0148402815	 1.4987487603	-0.1996128072	-0.413332
C	-0.0911127455	-0.0151347433	 0.0040094681	 0.022102
N	 0.4977557278	-0.7586229877	-1.1351713872	-0.298207
C	 1.7449804032	-1.1773677489	-0.7466067117	 0.06492
N	 2.0060514968	-1.1440510634	 0.5071971042	-0.290248
H	 2.899216565	-0.2456927072	 1.9456981515	 0.312736
C	 0.7974847794	-0.5970291377	 1.1544288622	-0.130066
C	 1.171953563	 0.3768528573	 2.2760060905	 0.426507
O	 2.4773563123	 0.3768959331	 2.5737931019	-0.367796
O	 0.3678717393	 1.0596311833	 2.8542209315	-0.345588
H	 1.0233551356	 1.8285251221	-0.314583182	 0.126373
H	-0.5694872449	 1.7903498929	-1.0980194464	 0.109106
H	-0.4460255807	 2.0166352766	 0.6585859908	 0.16644
H	-1.1320708732	-0.3157917174	 0.1398221417	 0.103729
H	 0.3744494971	-0.3930808686	-2.0687624677	 0.247933
H	 2.4450207429	-1.5451992146	-1.4912762202	 0.138231
H	 0.2570352133	-1.420388737	 1.6412538802	 0.127159
68.2212	85.6734	189.9543	245.7315	271.6453	344.9409	375.9162	495.503	532.8369	556.414	601.0547	706.626	759.6164	772.667	837.8929	866.8087	915.5118	972.8381	981.9416	1022.4921	1085.8016	1090.2211	1122.8924	1156.1141	1230.7469	1270.7883	1283.9334	1307.4118	1345.7542	1381.0287	1406.7423	1416.5481	1446.8719	1490.6048	1500.6076	1680.6029	1861.3338	3013.5678	3035.4196	3079.6599	3103.7068	3145.8595	3187.1593	3533.9093	3601.7725
CC1NC=[NH+]C1C([O-])=O	C[C@H]1N[CH][N][C@H]1C(=O)O	
InChI=1S/C5H8N2O2/c1-3-4(5(8)9)7-2-6-3/h2-4H,1H3,(H,6,7)(H,8,9)	InChI=1S/C5H8N2O2/c1-3-4(5(8)9)7-2-6-3/h2-4H,1H3,(H,6,7)(H,8,9)/t3-,4-/m1/s1
