15
gdb 15330	3.67349	1.18607	0.97971	3.5369	72.33	-0.2477	-0.0017	0.246	1190.4298	0.116904	-362.629705	-362.621003	-362.620059	-362.665245	29.074	
C	-0.3654393125	 1.2631376039	-0.0784638367	-0.499028
C	-0.168838502	-0.1754224448	 0.0122047127	 0.071107
C	-0.0122119611	-1.3670078519	 0.0963422923	 0.1021
C	 0.1935813934	-2.7876273466	 0.1674407921	-0.206994
C	-0.5315424856	-3.6177409211	 1.2063048638	-0.232076
N	-0.886428943	-3.7136228656	-0.1851915434	-0.067415
C	-2.1214395762	-3.325656247	-0.6888397432	 0.151916
O	-3.1807699329	-3.5824962176	-0.1747982782	-0.28381
H	 0.4016460117	 1.7275308324	-0.707395059	 0.154869
H	-1.3418889235	 1.4990202181	-0.515042696	 0.158292
H	-0.3192597999	 1.7345301803	 0.9092199346	 0.155208
H	 1.1780824443	-3.1312513388	-0.1431827069	 0.124454
H	-0.0284137358	-4.4798597913	 1.6348271371	 0.13224
H	-1.229879816	-3.1026007863	 1.8594058749	 0.146631
H	-2.0209162609	-2.8135065937	-1.6631626141	 0.092505
13.4037	64.2051	124.8163	148.3812	216.3618	268.5442	325.3793	364.6817	489.2154	537.1494	631.9982	728.3162	825.174	943.7187	978.8882	1036.1721	1051.0871	1051.3817	1068.8661	1086.6277	1127.836	1158.4942	1211.7208	1362.7197	1396.9499	1413.885	1417.5546	1474.7144	1476.5885	1503.1452	1804.3442	2369.3571	2971.614	3030.1895	3092.5763	3094.5403	3115.9159	3126.867	3211.3551
CC#CC1CN1C=O	CC#C[C@H]1CN1C=O	
InChI=1S/C6H7NO/c1-2-3-6-4-7(6)5-8/h5-6H,4H2,1H3	InChI=1S/C6H7NO/c1-2-3-6-4-7(6)5-8/h5-6H,4H2,1H3/t6-,7?/m0/s1
