18
gdb 80058	2.48516	2.02762	1.51857	2.7497	73.96	-0.2175	-0.0065	0.211	931.8847	0.149443	-398.070625	-398.063108	-398.062164	-398.102004	30.384	
C	-0.0015030344	 1.5933241674	-0.0466534838	-0.432047
C	 0.0816134819	 0.0770816142	 0.0214632528	 0.003435
N	 1.0782286214	-0.6954294744	-0.9019922301	-0.202275
C	 2.2742686803	 0.1170872864	-0.8794983954	 0.010153
N	 2.9432667649	 0.1349290115	 0.2034954981	-0.192258
C	 2.2218205625	-0.7774609734	 1.0770777329	-0.043103
C	 1.3176291458	-1.6353503461	 0.2615818889	-0.073562
C	 0.6779388018	-0.6560154067	 1.2175423914	 0.260941
N	 0.1046616784	-0.9282220637	 2.490035184	-0.605264
H	 0.9422412157	 2.0758902127	 0.2163753981	 0.139961
H	-0.3044586916	 1.9275474743	-1.0446085146	 0.127118
H	-0.764565235	 1.9361646069	 0.6610244551	 0.117785
H	-0.8980831115	-0.3535327584	-0.2111967997	 0.087702
H	 2.5104161736	 0.7303270503	-1.743008239	 0.121225
H	 2.7317106357	-1.1531214891	 1.9537198726	 0.108307
H	 1.2765749346	-2.7119257144	 0.1540385722	 0.101489
H	 0.1626310468	-0.1228764793	 3.1051456157	 0.237873
H	-0.8743505009	-1.185841998	 2.4080162907	 0.232519
182.1197	199.2755	220.1858	263.3019	326.317	342.6235	455.4044	501.6742	577.1052	621.4441	722.3093	748.6323	776.1199	792.237	839.7197	878.9222	885.8793	920.6804	959.5294	974.0571	1017.3443	1020.5827	1045.726	1084.9798	1100.7833	1138.3219	1177.6633	1208.8556	1244.6078	1273.633	1278.6933	1318.9764	1378.9541	1404.0097	1435.6189	1490.7342	1502.6962	1655.096	1655.8728	3035.4611	3045.8408	3097.2591	3130.3166	3190.685	3197.2707	3219.3318	3491.3643	3569.6464
CC1N2C=NC3C2C13N	C[C@H]1N2[CH][N][C@@H]3[C@H]2[C@]13N	
InChI=1S/C6H9N3/c1-3-6(7)4-5(6)9(3)2-8-4/h2-5H,7H2,1H3	InChI=1S/C6H9N3/c1-3-6(7)4-5(6)9(3)2-8-4/h2-5H,7H2,1H3/t3-,4-,5+,6+/m1/s1
