15
gdb 127481	3.34098	1.25195	0.91695	3.3061	78.15	-0.2197	-0.0362	0.1835	1201.1684	0.114346	-413.02664	-413.018098	-413.017154	-413.06036	30.555	
C	 0.0163664268	 1.3686261243	-0.0344424796	-0.333361
N	 0.0278677968	-0.0770958014	 0.0352382567	-0.047375
N	 0.1190840214	-0.8025532608	-1.0946267625	-0.322994
C	 0.1113867013	-2.0808815952	-0.703404207	 0.40505
N	 0.2678158985	-3.1045606124	-1.6284596498	-0.594306
C	 0.0029554383	-2.1904257097	 0.6978203628	-0.411668
C	-0.0508982929	-0.8748092663	 1.1372949338	 0.323814
C	-0.1613792035	-0.3546586215	 2.448004676	 0.225069
N	-0.2530514742	 0.0830135627	 3.5169811167	-0.354755
H	 0.943694331	 1.7279780266	-0.4881841354	 0.155332
H	-0.8293294952	 1.7068163918	-0.6389180191	 0.15362
H	-0.0742519475	 1.7693265163	 0.9756447211	 0.167015
H	 0.0865448217	-2.7972752203	-2.5747053268	 0.256478
H	-0.2530178795	-3.941473912	-1.4085564273	 0.252697
H	-0.021798073	-3.0770743221	 1.3087033404	 0.125385
49.7762	136.8094	146.5441	175.9378	262.507	297.6023	334.4468	427.3841	511.4148	537.2674	587.5611	648.0968	670.336	678.5129	732.4278	794.4864	818.9784	1018.2426	1071.3912	1131.5307	1152.788	1173.2068	1208.9151	1329.9683	1425.1858	1463.2455	1474.4372	1483.9853	1514.7866	1534.5806	1586.5079	1650.122	2341.6464	3052.7639	3119.2399	3158.3128	3278.2242	3557.0466	3655.7506
CN1N=C(N)C=C1C#N	Cn1nc(N)cc1C#N	
InChI=1S/C5H6N4/c1-9-4(3-6)2-5(7)8-9/h2H,1H3,(H2,7,8)	InChI=1S/C5H6N4/c1-9-4(3-6)2-5(7)8-9/h2H,1H3,(H2,7,8)
