19
gdb 68395	2.56523	1.95387	1.44165	1.3973	73.67	-0.233	0.0735	0.3066	950.1604	0.160728	-422.991556	-422.984439	-422.983495	-423.022416	30.437	
O	-0.1573699091	 1.3809407614	 0.0532031824	-0.488543
C	 0.0321117901	-0.0065749717	 0.0331240773	 0.388932
C	 0.8824160593	-0.7076219446	-1.0792564156	-0.299908
C	 1.1175568187	-1.8099229334	-0.0056848345	 0.123483
C	 0.9705765959	-0.6963567311	 1.0656118327	-0.316727
O	 0.0510139879	-2.7512537996	 0.0641739754	-0.272831
C	-1.2321399192	-2.1849765834	-0.0446512172	 0.103648
C	-1.8916226522	-1.4975744408	 1.1297289054	-0.338453
C	-1.3289022022	-0.6858871503	-0.0177130292	-0.074052
H	 0.7091844022	 1.8009826743	 0.0688316533	 0.274821
H	 0.389431785	-0.9857629415	-2.0130429106	 0.102937
H	 1.8143777641	-0.1726135816	-1.2863683101	 0.08973
H	 2.0355890233	-2.3956715997	-0.0387364946	 0.081668
H	 1.9033312689	-0.1313045135	 1.1655446458	 0.090397
H	 0.6026635893	-0.9637525771	 2.0563754793	 0.105837
H	-1.8579813461	-2.7611518961	-0.7188800336	 0.097837
H	-2.9717764354	-1.5716702774	 1.200129533	 0.111486
H	-1.3828981471	-1.4995592716	 2.0852683157	 0.122
H	-2.0219943435	-0.1928547622	-0.6923647649	 0.097739
221.9552	243.9969	304.8302	332.0926	394.2272	440.8438	452.4438	494.4173	512.6787	613.6134	669.319	759.1954	813.1306	830.2387	838.3191	895.394	925.2619	943.846	966.0801	973.6689	1002.5233	1021.1933	1045.2619	1061.5246	1095.9111	1124.0467	1139.8908	1158.0332	1175.8217	1186.0217	1224.0241	1229.5335	1247.546	1269.1536	1335.1926	1365.7241	1406.2632	1415.8	1460.3923	1483.7264	1507.4375	3049.8733	3058.862	3119.4248	3122.2909	3130.0368	3141.0703	3150.2148	3160.8737	3230.9372	3807.0646
OC12CC(C1)OC1CC21	O[C@@]12C[C@@H](C1)O[C@H]1C[C@@H]21	
InChI=1S/C7H10O2/c8-7-2-4(3-7)9-6-1-5(6)7/h4-6,8H,1-3H2	InChI=1S/C7H10O2/c8-7-2-4(3-7)9-6-1-5(6)7/h4-6,8H,1-3H2/t4-,5-,6+,7-/m1/s1
