19
gdb 6953	2.55811	2.22683	1.63107	3.5571	71.04	-0.235	0.0382	0.2732	893.0905	0.16634	-365.123932	-365.115647	-365.114703	-365.156135	31.363	
C	-0.0350279939	 1.5832213654	-0.0452891782	-0.430405
C	 0.0335945064	 0.0545637356	-0.03788096	 0.177143
C	-1.3837388413	-0.5460982826	 0.0548101343	-0.422967
C	 0.8315107705	-0.5448542473	-1.2181356175	-0.247167
C	 1.5282772179	-1.7919780945	-0.6312507549	-0.174499
N	 1.6640119349	-1.4345050945	 0.769729814	-0.311011
C	 0.8221253838	-0.4430170942	 1.1927355579	 0.408167
O	 0.7011674905	-0.0474872647	 2.3330595323	-0.399597
H	 0.9622790279	 2.0258257836	-0.1350877337	 0.113742
H	-0.6443914371	 1.9442524982	-0.8806951717	 0.106762
H	-0.4757442449	 1.940460654	 0.8894307011	 0.138187
H	-1.9967427976	-0.2076821209	-0.7872995396	 0.112509
H	-1.3626582445	-1.6412035851	 0.0374740454	 0.113175
H	-1.8683008939	-0.2348733695	 0.9844139981	 0.137342
H	 0.2042996032	-0.7907131964	-2.0786753011	 0.103424
H	 1.5910165076	 0.1693332709	-1.5515410693	 0.107726
H	 0.919349762	-2.6981373964	-0.7622154502	 0.106273
H	 2.5029525977	-1.9788493069	-1.0928648541	 0.112463
H	 2.1639751807	-1.9943015547	 1.4423347773	 0.248732
97.3657	180.399	208.4467	223.2918	243.5352	293.4664	338.817	372.1081	511.6653	520.3245	585.8356	694.4833	714.5955	760.423	814.5395	917.0764	948.8319	956.7697	968.9985	1014.2034	1054.9871	1073.7969	1166.5355	1183.7707	1235.1639	1244.2002	1256.6712	1291.7086	1335.9273	1367.8409	1395.6261	1417.7722	1446.4061	1479.4413	1487.0446	1495.6292	1500.9517	1509.1184	1536.2386	1821.0475	2995.7367	3029.3214	3033.4493	3051.3951	3067.9842	3095.2576	3099.1003	3104.1974	3115.0715	3120.1372	3638.2258
CC1(C)CCNC1=O	CC1(C)CCNC1=O	
InChI=1S/C6H11NO/c1-6(2)3-4-7-5(6)8/h3-4H2,1-2H3,(H,7,8)	InChI=1S/C6H11NO/c1-6(2)3-4-7-5(6)8/h3-4H2,1-2H3,(H,7,8)
