12
gdb 132451	3.24512	1.44239	0.99922	5.754	64.57	-0.2217	-0.0658	0.1558	1053.411	0.076963	-513.955353	-513.94802	-513.947076	-513.98721	27.558	
N	 0.0763893277	 1.3475343223	 0.1716702084	-0.559912
C	-0.0688096785	-0.0077501823	 0.057967994	 0.432593
C	-1.2339086548	-0.7156591244	 0.0185278291	-0.174621
N	-1.2125629215	-2.081687546	-0.0219402039	-0.260161
C	-0.0903906615	-2.6879856668	-0.0289870992	 0.181288
F	-0.054145503	-4.0122590405	-0.0682803349	-0.050368
C	 1.2222974254	-2.0455481433	-0.0037405128	 0.311042
O	 2.3078201441	-2.5453133863	-0.0209929319	-0.314754
O	 1.1177771	-0.64587869	 0.0407465043	-0.233322
H	 0.9654751616	 1.7166835892	-0.1307398353	 0.27622
H	-0.7223917783	 1.9077780584	-0.0801072517	 0.27427
H	-2.1976893911	-0.2247810502	 0.0257230539	 0.117726
106.0695	175.5067	306.0437	317.5088	346.0648	403.1212	449.5272	486.0318	495.4376	525.3879	609.3883	694.2948	725.6026	768.6115	791.463	798.5932	1004.6517	1041.4911	1094.3923	1262.7942	1294.659	1364.2406	1445.2392	1591.2221	1636.926	1683.6026	1864.1825	3215.2245	3585.6273	3700.0583
NC1=CN=C(F)C(=O)O1	Nc1cnc(F)c(=O)o1	
InChI=1S/C4H3FN2O2/c5-3-4(8)9-2(6)1-7-3/h1H,6H2	InChI=1S/C4H3FN2O2/c5-3-4(8)9-2(6)1-7-3/h1H,6H2
