18
gdb 60501	3.06414	1.00771	0.89669	3.4893	79.07	-0.2447	-0.0624	0.1823	1345.1068	0.145149	-401.89658	-401.886856	-401.885912	-401.932203	34.662	
C	 0.0652688026	 1.2525818109	-0.2184868549	-0.404609
C	-0.0636641134	-0.2648897521	 0.0377222535	-0.137501
C	 0.6420809698	-0.6874270405	 1.308948721	 0.044847
C	 1.2571944801	-2.0292042744	 1.4224428274	-0.245632
N	 2.1076358013	-0.8258283851	 1.3222539021	-0.336591
C	-1.5421348452	-0.6523358142	 0.0786302695	 0.235215
O	-2.1181538439	-0.9737127563	 1.0945335667	-0.291191
C	-2.238178362	-0.593678747	-1.1992210365	 0.260414
C	-2.7959571206	-0.5552791959	-2.2655858131	-0.396102
H	 1.1196927705	 1.5312751681	-0.2952489511	 0.13177
H	-0.4380011369	 1.5434697015	-1.1442704908	 0.131855
H	-0.3757065638	 1.8200019601	 0.6070174519	 0.135788
H	 0.3830639608	-0.7927766036	-0.8172326897	 0.089265
H	 0.2422677822	-0.2333532816	 2.2114664396	 0.10752
H	 1.2883337583	-2.5351079739	 2.3825548494	 0.12568
H	 1.1937947706	-2.6940189862	 0.5641435022	 0.108494
H	 2.4723373685	-0.7465468461	 0.374780016	 0.225211
H	-3.306463429	-0.5257675135	-3.1977437832	 0.215566
30.1733	75.2561	123.4657	178.0776	200.0379	226.5689	267.5711	273.8681	375.9356	451.839	465.0023	610.3333	647.4343	703.8517	734.8759	793.1831	798.1541	864.1908	914.9299	959.3051	971.4366	1035.2	1060.2648	1091.5484	1107.207	1136.4754	1161.7483	1236.0737	1256.811	1287.6672	1300.5022	1329.7229	1406.5942	1433.6101	1495.2123	1500.9953	1514.0773	1767.4826	2207.9744	3007.1992	3043.2707	3108.7657	3117.1745	3124.4206	3149.0281	3195.9782	3479.4872	3493.1592
CC(C1CN1)C(=O)C#C	C[C@@H]([C@H]1CN1)C(=O)C#C	
InChI=1S/C7H9NO/c1-3-7(9)5(2)6-4-8-6/h1,5-6,8H,4H2,2H3	InChI=1S/C7H9NO/c1-3-7(9)5(2)6-4-8-6/h1,5-6,8H,4H2,2H3/t5-,6+/m0/s1
