19
gdb 77860	2.08749	1.57152	1.49362	1.7531	80.89	-0.2502	0.0346	0.2848	1048.1898	0.158232	-385.825766	-385.816966	-385.816022	-385.858628	34.36	
C	-0.3564901611	 1.5221532144	 0.0444642008	-0.420897
C	-0.015326007	 0.0389901382	-0.0048678303	-0.032595
C	 0.6931132134	-0.5790642254	-1.2178533768	-0.091961
C	 2.1440102542	-0.1630329766	-1.3700627127	-0.200809
C	 2.7232434461	 1.1249317008	-1.0858423474	 0.293202
C	 3.2709247983	 2.17918156	-0.883839832	-0.431342
C	 1.7723994965	-1.1957488622	-0.3254588834	-0.116355
C	 1.1297156275	-0.5546792369	 0.9149815254	 0.102923
O	 1.8897288029	 0.2877059755	 1.7364716808	-0.430915
H	 0.5068096447	 2.1558925436	-0.1627426928	 0.129811
H	-1.1316464775	 1.7625546765	-0.6914248247	 0.111169
H	-0.7401776948	 1.7881793535	 1.0348370022	 0.120739
H	-0.9262997	-0.537529572	 0.1899417589	 0.078103
H	 0.1899313027	-1.0350537474	-2.0628646332	 0.092086
H	 2.5965903095	-0.6274722126	-2.2442567332	 0.1208
H	 3.7377677578	 3.1170924399	-0.7084280823	 0.203002
H	 2.2154611177	-2.1841878464	-0.3640886889	 0.092743
H	 0.7203055111	-1.3201710569	 1.5789766011	 0.091764
H	 2.360230018	 0.916492104	 1.1750496585	 0.288532
129.7659	144.6109	172.9939	204.3978	219.4502	275.6857	378.2228	421.2616	460.2562	540.9493	558.2422	592.2477	650.0262	657.517	726.7351	766.1336	777.196	798.6669	902.678	947.1635	954.5666	992.0608	1007.1241	1054.8679	1077.9734	1095.8824	1145.9015	1157.5878	1188.5358	1219.4465	1272.3764	1290.06	1320.0587	1342.349	1372.033	1411.9347	1417.0717	1457.3502	1493.7433	1504.6108	2218.0866	3035.8729	3042.1212	3079.2147	3098.1096	3125.5795	3142.4101	3170.6444	3182.3971	3497.6179	3764.1471
CC1C2C(C#C)C2C1O	C[C@H]1[C@H]2[C@@H](C#C)[C@H]2[C@H]1O	
InChI=1S/C8H10O/c1-3-5-6-4(2)8(9)7(5)6/h1,4-9H,2H3	InChI=1S/C8H10O/c1-3-5-6-4(2)8(9)7(5)6/h1,4-9H,2H3/t4-,5+,6-,7+,8-/m0/s1
