13
gdb 125474	5.43361	1.32699	1.07364	2.8693	67.	-0.2504	-0.0419	0.2085	1037.1713	0.090708	-452.74266	-452.736064	-452.73512	-452.77378	24.878	
C	 0.0691815775	 1.4546837159	-0.0174058086	-0.49409
C	-0.0783815856	-0.0195249582	-0.0225621904	 0.358846
N	-1.1324092394	-0.7171028716	-0.2863075212	-0.377322
C	-0.698346632	-2.0348183548	-0.1406521088	 0.137059
C	-0.9878647463	-3.3608073767	-0.1869192039	-0.038964
O	 0.1352587277	-4.0538823248	 0.1272625894	-0.176183
N	 1.2205032346	-3.1862922246	 0.3953720867	-0.26996
C	 0.6637126425	-2.0233548205	 0.2207075722	 0.442626
O	 1.0828820716	-0.7388464808	 0.3023560221	-0.234432
H	 0.835157013	 1.766471491	-0.7346531273	 0.160234
H	-0.8848107107	 1.9101815642	-0.2811409086	 0.166193
H	 0.38241861	 1.8058317499	 0.9709997492	 0.160234
H	-1.856963133	-3.9595844892	-0.4038469509	 0.165759
125.7994	155.2389	290.9702	346.4018	372.182	543.9102	571.3196	581.8114	663.5106	763.244	776.1653	813.6556	830.7493	868.5326	887.0313	980.9906	1029.0515	1063.7001	1097.8824	1176.5042	1258.6831	1299.2865	1408.6507	1443.1125	1470.1878	1471.7356	1576.283	1657.6382	1688.8668	3049.0982	3106.2301	3166.5098	3281.3904
CC1=NC2=CON=C2O1	Cc1nc2conc2o1	
InChI=1S/C5H4N2O2/c1-3-6-4-2-8-7-5(4)9-3/h2H,1H3	InChI=1S/C5H4N2O2/c1-3-6-4-2-8-7-5(4)9-3/h2H,1H3
