19
gdb 101222	4.18337	0.79422	0.70231	2.404	72.53	-0.2485	-0.0255	0.2229	1554.3216	0.157042	-460.161811	-460.152341	-460.151397	-460.196974	34.806	
O	 0.0025580909	 1.4471842731	 0.0497448959	-0.421459
C	 0.0561962327	 0.0391033184	 0.0736793139	-0.063505
C	-1.350716888	-0.5635064979	 0.0317406442	 0.083764
O	-2.0582814392	-0.0127177205	-1.0863301993	-0.440854
C	-1.3617598151	-2.0838499789	 0.0156937735	-0.012454
C	-0.9844336598	-2.8073023294	 1.3500571081	-0.370063
C	-2.2870123596	-3.6171295292	 1.2165395979	 0.405856
O	-2.7209471743	-4.579739162	 1.7765507082	-0.283443
C	-2.766297556	-2.7660749141	 0.0303515291	-0.364304
H	-0.6867647255	 1.6663000207	-0.5910410269	 0.28561
H	 0.6390149242	-0.3602445234	-0.7782813642	 0.07155
H	 0.5776515361	-0.2568195794	 0.9904642137	 0.112286
H	-1.9078374176	-0.2010524474	 0.9052931553	 0.095715
H	-1.6833499974	-0.3944652758	-1.8894214105	 0.282906
H	-0.7496200213	-2.4486321786	-0.8174619078	 0.074775
H	-0.0611170335	-3.3909487662	 1.3759436734	 0.134222
H	-1.0008685513	-2.1466574016	 2.2246035948	 0.136244
H	-3.5752639956	-2.0810998627	 0.306060493	 0.142814
H	-3.0774239698	-3.3228226151	-0.8570439021	 0.130338
41.8856	77.9855	123.2005	146.2317	256.6064	287.3693	339.446	384.6387	405.2387	424.4171	501.6168	510.4156	543.4279	662.2805	689.5919	794.2846	871.138	925.343	934.4378	995.8111	1009.4305	1063.9693	1081.7097	1101.0862	1119.3373	1134.0019	1164.07	1192.5508	1214.5592	1237.4343	1258.8972	1276.5583	1302.5021	1381.6536	1385.4648	1421.1771	1428.2577	1443.477	1446.871	1505.0535	1898.2856	2924.2587	3030.0139	3045.0569	3048.5474	3058.741	3069.9417	3113.5209	3114.6689	3763.6386	3783.2692
OCC(O)C1CC(=O)C1	OC[C@@H](O)C1CC(=O)C1	
InChI=1S/C6H10O3/c7-3-6(9)4-1-5(8)2-4/h4,6-7,9H,1-3H2	InChI=1S/C6H10O3/c7-3-6(9)4-1-5(8)2-4/h4,6-7,9H,1-3H2/t6-/m1/s1
