14
gdb 27576	3.38424	1.27717	0.93259	4.3541	78.9	-0.2723	-0.0835	0.1888	1178.7262	0.102277	-395.796249	-395.788527	-395.787582	-395.829357	27.489	
C	 0.0081483097	 1.5043317355	-0.0092918703	-0.479131
C	-0.0038361613	 0.0020520143	 0.0094355685	 0.30733
N	 0.1038901298	-0.6316359046	-1.1605469911	-0.346375
C	 0.0917558142	-1.9688011265	-1.1281466245	 0.191507
C	-0.0274992766	-2.6861691289	 0.0669308897	-0.04452
N	-0.1352101219	-2.0597399269	 1.2361278876	-0.231376
C	-0.1228971236	-0.7288228585	 1.2013874426	-0.037893
C	 0.2066012651	-2.6724220143	-2.3774841754	 0.244558
N	 0.2966646256	-3.2746458583	-3.3607855801	-0.316371
H	 0.9377146787	 1.8705953842	-0.4554900523	 0.155457
H	-0.814350496	 1.8824797791	-0.6239654785	 0.155458
H	-0.0857831863	 1.9185893063	 0.9969813585	 0.131701
H	-0.0350082002	-3.7717815711	 0.0687965345	 0.142791
H	-0.2106982072	-0.2137896703	 2.1546829608	 0.126864
47.6594	141.3637	149.4977	192.161	342.5791	394.8377	468.4129	490.2037	560.4616	582.0358	640.5233	704.8128	780.5754	917.0239	948.9775	977.377	1017.3357	1043.0765	1062.8976	1199.1148	1238.9051	1255.9089	1297.5206	1411.2964	1436.9074	1451.2478	1474.5234	1493.5062	1579.9168	1603.5465	2352.6877	3047.2396	3110.5887	3133.209	3163.9509	3182.7104
CC1=NC(=CN=C1)C#N	Cc1nc(cnc1)C#N	
InChI=1S/C6H5N3/c1-5-3-8-4-6(2-7)9-5/h3-4H,1H3	InChI=1S/C6H5N3/c1-5-3-8-4-6(2-7)9-5/h3-4H,1H3
