19
gdb 67860	2.54317	1.6081	1.35361	2.8502	80.94	-0.2265	-0.0203	0.2063	1040.0992	0.15929	-385.919637	-385.911488	-385.910544	-385.952225	31.62	
C	-0.2710260026	 1.5015832688	 0.0633942121	-0.468499
C	 0.0336337408	 0.0103163154	-0.0260178488	 0.170662
C	-1.1774624756	-0.8746424114	-0.207413964	-0.122471
C	-1.2665001975	-1.8334030888	 0.71543621	-0.06234
C	-0.1350535101	-1.7941917927	 1.7154445272	-0.282962
C	 0.8228468022	-0.7461657017	 1.1177577074	-0.064407
C	 1.8485385949	-1.2763394926	 0.0681731338	-0.364473
C	 1.176690692	-0.3878310653	-0.9904264273	 0.373243
O	 1.4673757051	-0.0492723351	-2.1009218663	-0.3044
H	 0.6367290081	 2.08003111	 0.2634268018	 0.11892
H	-0.690732775	 1.8623208419	-0.8811422199	 0.134088
H	-0.9940145413	 1.7071791482	 0.8592033047	 0.119835
H	-1.8808414875	-0.7114455988	-1.0169409763	 0.103004
H	-2.0656321705	-2.5652875748	 0.769318906	 0.098128
H	-0.4983432675	-1.5154032179	 2.7136329495	 0.109101
H	 0.3550933768	-2.7697052011	 1.832606312	 0.108213
H	 1.28028333	-0.0939583056	 1.862876194	 0.075429
H	 2.9022629669	-1.0430844614	 0.2432444086	 0.128912
H	 1.7637744307	-2.3466076072	-0.1467410247	 0.130017
78.7927	170.3229	180.584	223.8403	271.7268	305.3511	424.7254	482.1175	510.3696	602.3964	646.2022	725.343	755.4013	780.5946	804.7297	876.4542	892.3967	945.7352	950.7786	979.2802	1015.4153	1028.3201	1061.7685	1099.1565	1110.4053	1137.8522	1168.8922	1198.5506	1207.6042	1224.1243	1255.78	1304.4601	1322.3671	1374.35	1404.5822	1436.7487	1483.7344	1489.8002	1490.9644	1671.2903	1881.9604	3014.1737	3031.9926	3040.1345	3055.2321	3096.7704	3102.7487	3106.4828	3113.6308	3179.4825	3204.2169
CC12C=CCC1CC2=O	C[C@]12C=CC[C@H]1CC2=O	
InChI=1S/C8H10O/c1-8-4-2-3-6(8)5-7(8)9/h2,4,6H,3,5H2,1H3	InChI=1S/C8H10O/c1-8-4-2-3-6(8)5-7(8)9/h2,4,6H,3,5H2,1H3/t6-,8-/m0/s1
