20
gdb 67652	2.93065	1.88134	1.6404	1.2677	81.27	-0.2278	0.0844	0.3122	931.2717	0.173652	-365.968546	-365.961724	-365.96078	-365.999241	28.991	
C	-0.0305500667	 1.5267807393	-0.027456446	-0.495146
C	 0.0725532779	 0.031329846	-0.0068737384	 0.326047
C	 0.545494167	-0.9681086989	-1.0316258267	-0.125942
C	 0.9444060776	-1.9331353596	 0.1139733759	-0.054006
C	-0.3897023669	-2.5710716931	 0.6812905302	-0.052124
C	-0.2501581212	-1.7025248102	 1.9633511838	-0.247239
C	 0.701348985	-0.7999796802	 1.1537945085	-0.074788
C	-1.4660833714	-1.9567083027	-0.223541005	-0.159752
N	-0.8790978046	-0.7470666914	-0.8228090225	-0.144404
H	 0.9308909332	 1.9899265666	 0.2202261001	 0.114418
H	-0.3435727766	 1.874676579	-1.0152175042	 0.130859
H	-0.7686121683	 1.8784810635	 0.7037974245	 0.119192
H	 0.9832643265	-0.8528019853	-2.0173599487	 0.083876
H	 1.8576961669	-2.5215441241	 0.0808958512	 0.065788
H	-0.4650480727	-3.6537890649	 0.7942605398	 0.064588
H	-1.1687159406	-1.2705973162	 2.3753073867	 0.089026
H	 0.2885375032	-2.2203182433	 2.7625409884	 0.094645
H	 1.5276207127	-0.2813119765	 1.6439400125	 0.063767
H	-1.736773223	-2.6266131424	-1.0478224816	 0.09938
H	-2.380598138	-1.7060898755	 0.3242707214	 0.101815
190.3531	209.4326	263.9435	326.5019	404.6582	500.0128	583.2238	626.7805	684.8072	723.2128	781.3817	819.6967	841.2817	842.4976	889.0503	895.3484	919.0703	948.3165	966.8159	989.7138	1008.2822	1019.9878	1056.6928	1085.2944	1112.2334	1124.5379	1142.1946	1175.305	1182.6723	1211.3833	1218.8808	1236.7617	1249.5166	1274.1804	1301.8206	1314.0754	1346.1739	1398.9839	1430.3671	1484.5834	1486.3669	1492.182	1501.465	3025.2928	3033.1574	3035.3746	3079.7728	3083.7608	3085.2453	3090.4988	3096.4906	3118.8745	3147.7662	3168.0306
CC12C3C4C(CC14)CN23	C[C@@]12[C@H]3[C@@H]4[C@@H](C[C@H]14)CN23	
InChI=1S/C8H11N/c1-8-5-2-4-3-9(8)7(8)6(4)5/h4-7H,2-3H2,1H3	InChI=1S/C8H11N/c1-8-5-2-4-3-9(8)7(8)6(4)5/h4-7H,2-3H2,1H3/t4-,5-,6+,7+,8-,9?/m0/s1
