13
gdb 14595	12.05749	0.63791	0.63378	2.6514	62.23	-0.2623	-0.0415	0.2208	1629.2923	0.091881	-435.753486	-435.745022	-435.744077	-435.787922	27.311	
O	-0.306556041	 0.4710949884	 0.774920975	-0.228433
C	 0.0946922042	 1.0414451068	-0.2032537201	 0.156701
C	 1.3092113669	 1.9657941094	-0.1985415958	-0.241837
N	 1.2031807364	 2.9452937195	-1.257117523	-0.202744
C	 1.3349987507	 4.1537221249	-0.9542251037	 0.139092
O	 1.2308208788	 5.1042849627	-1.9292919229	-0.154294
C	 1.3754290826	 6.4150138731	-1.5688122931	 0.187097
O	 1.2980539406	 7.2953195117	-2.362438284	-0.243796
H	-0.3794859201	 0.9250909581	-1.2011656922	 0.103887
H	 1.4381123828	 2.3798032735	 0.8125568332	 0.120369
H	 2.1783254313	 1.3231338513	-0.4067602387	 0.150415
H	 1.5354853155	 4.5503099331	 0.0498388212	 0.110777
H	 1.5659113412	 6.5454955576	-0.4886083858	 0.102767
44.2705	88.1352	108.6582	140.2748	171.1579	257.5544	366.0126	366.3932	455.848	581.7368	723.2074	749.8136	976.257	1033.467	1036.0437	1064.3085	1094.5858	1160.7161	1188.1254	1235.8707	1321.5843	1391.1627	1408.3273	1444.3388	1460.3812	1771.0748	1842.511	1899.2726	2914.036	2981.7556	2987.2114	3032.3139	3034.8444
O=CCN=COC=O	O=CCN=COC=O	
InChI=1S/C4H5NO3/c6-2-1-5-3-8-4-7/h2-4H,1H2	InChI=1S/C4H5NO3/c6-2-1-5-3-8-4-7/h2-4H,1H2
