19
gdb 116122	2.53315	1.30074	0.90191	1.8715	73.42	-0.2343	0.0132	0.2475	1273.9306	0.16125	-456.342123	-456.333478	-456.332533	-456.375854	32.468	
O	 0.0193219632	 1.4049681881	 0.0846180892	-0.421897
C	 0.0372299166	-0.0060240961	 0.0856714544	-0.062535
C	-1.3581820635	-0.5956483033	-0.0799595328	 0.089983
C	-1.4008908274	-2.1202717134	-0.0970038029	-0.193373
N	-2.7638269632	-2.6400810834	-0.0250715344	-0.292209
C	-3.437974428	-2.1270081555	 1.1660026024	-0.242462
C	-3.3137595935	-0.6311756696	 1.3906998085	 0.3716
N	-4.2223559507	 0.0226444048	 1.9782486128	-0.496872
O	-2.130383732	-0.0508298342	 1.0192729985	-0.28228
H	-0.6279521979	 1.6670405502	 0.7495315874	 0.291928
H	 0.6660994881	-0.3186613378	-0.7546800941	 0.112984
H	 0.4836111635	-0.4074639411	 1.0100966948	 0.094132
H	-1.8005595775	-0.2040251523	-1.00816637	 0.088314
H	-0.9162865683	-2.4872790609	-1.0077539389	 0.115183
H	-0.8395190186	-2.5182079077	 0.7588622122	 0.114831
H	-3.278061335	-2.3564584703	-0.8547090031	 0.223317
H	-4.4977630782	-2.3837162115	 1.1463591806	 0.140397
H	-3.0004560037	-2.625879105	 2.0424580172	 0.133758
H	-3.9457329241	 1.0020326292	 2.0811110382	 0.215201
87.0502	92.2892	123.0745	196.3236	290.2609	363.9129	419.373	421.4623	442.3068	476.3971	522.5271	554.7299	656.3658	787.892	834.056	902.0186	913.7723	929.3414	959.4159	1009.5127	1074.3061	1088.6526	1096.5925	1129.7009	1131.8516	1156.9034	1215.3314	1243.0219	1291.2236	1318.3043	1341.3527	1350.1063	1383.0934	1400.5185	1403.3502	1440.6395	1461.4931	1476.0854	1489.9828	1496.2174	1752.1058	2974.8037	3000.2758	3014.9671	3025.2097	3074.8786	3084.8572	3129.0983	3451.906	3499.7837	3801.9311
OCC1CNCC(=N)O1	OC[C@H]1CNC[C]([NH])O1	
InChI=1S/C5H10N2O2/c6-5-2-7-1-4(3-8)9-5/h4,6-8H,1-3H2	InChI=1S/C5H10N2O2/c6-5-2-7-1-4(3-8)9-5/h4,6-8H,1-3H2/t4-/m1/s1
