17
gdb 111670	2.43267	1.7376	1.31299	5.1631	67.49	-0.257	0.02	0.277	996.7235	0.138273	-455.152739	-455.144944	-455.143999	-455.185141	29.645	
O	 0.0372953343	 1.2210263205	 0.5860883674	-0.425481
C	 0.060207148	 0.0273324096	-0.1691930731	-0.081721
C	-1.3115449032	-0.6168547727	-0.2272331725	-0.03264
C	-1.5900002082	-2.0787150498	-0.1312269488	-0.05984
C	-0.5234811206	-3.0753063774	 0.3323598903	-0.204528
N	-0.2721278387	-2.6178569838	 1.6893193192	-0.296454
C	-0.9231442181	-1.4539461308	 2.0072836985	 0.388248
O	-0.7063283545	-0.7367732898	 2.9571851315	-0.383793
N	-1.9204907845	-1.1970085728	 1.0031923043	-0.150435
H	-0.2016821143	 0.9843774472	 1.4932479051	 0.304329
H	 0.3592429814	 0.3060597137	-1.1853719552	 0.11202
H	 0.8170587449	-0.6766915134	 0.2059259718	 0.093924
H	-2.0370971791	-0.0238521643	-0.7796104851	 0.115615
H	-2.4339064181	-2.4844759295	-0.679832074	 0.111245
H	-0.9271813068	-4.0938922611	 0.3164609063	 0.126294
H	 0.3846795112	-3.0638806169	-0.2835583306	 0.122737
H	 0.5365318164	-2.8906496687	 2.224773025	 0.260481
110.8492	121.4098	181.9655	219.6519	282.7853	458.5025	481.9955	493.5434	516.9442	543.1193	685.9892	720.8498	765.3308	811.8616	848.8654	881.4119	960.2997	989.1282	1020.0896	1055.7179	1076.4078	1105.2396	1123.5987	1144.5652	1218.2644	1228.7937	1241.3713	1299.2177	1332.7669	1353.8843	1391.8312	1436.5708	1443.1363	1449.0983	1501.3072	1534.0691	1830.1115	2998.4535	3020.1044	3054.3343	3069.475	3137.3753	3161.718	3646.9099	3745.7329
OCC1C2CNC(=O)N12	OC[C@H]1[C@H]2CNC(=O)N12	
InChI=1S/C5H8N2O2/c8-2-4-3-1-6-5(9)7(3)4/h3-4,8H,1-2H2,(H,6,9)	InChI=1S/C5H8N2O2/c8-2-4-3-1-6-5(9)7(3)4/h3-4,8H,1-2H2,(H,6,9)/t3-,4+,7?/m1/s1
