20
gdb 110016	2.32687	1.48234	1.04899	3.9122	75.65	-0.2507	0.0184	0.2691	1187.1848	0.172497	-440.311019	-440.302323	-440.301379	-440.344323	33.2	
C	 0.6232915292	 1.4984578041	-0.4016701325	-0.401345
C	 0.0309232176	 0.1575092455	 0.0511860431	-0.041274
C	 0.2251228724	-0.9402463003	-1.0094873783	-0.09837
O	 1.5100460886	-1.5336092155	-0.7242829827	-0.238034
C	 1.8423979808	-1.3039759099	 0.5717443102	 0.446964
N	 2.9097096798	-1.7033556807	 1.1260132908	-0.571999
C	 0.7590459295	-0.4915075907	 1.2523612261	-0.114629
C	 1.3137741497	 0.4104569862	 2.3652575846	-0.083549
O	 1.8746179079	-0.3503564896	 3.4083455318	-0.426856
H	 1.6849402466	 1.4052244306	-0.6539203612	 0.133266
H	 0.0996543403	 1.8628891086	-1.2912413037	 0.117375
H	 0.5288270686	 2.2618741195	 0.3751382161	 0.1302
H	-1.0332643878	 0.2888011934	 0.2670472352	 0.086449
H	-0.5431439805	-1.7198211011	-0.9413360378	 0.114118
H	 0.2584151814	-0.5643950314	-2.0349107971	 0.12065
H	 3.497066189	-2.2319582442	 0.4809344557	 0.226699
H	 0.0791958379	-1.2092483586	 1.7321780403	 0.112765
H	 2.0448862531	 1.11417214	 1.9384934838	 0.088644
H	 0.4998271345	 1.0036792258	 2.7977033299	 0.10076
H	 2.5439119613	-0.9145735917	 2.9851940356	 0.298167
83.1053	159.3931	171.9029	198.7996	255.819	264.7609	335.7331	402.9927	437.8284	476.7884	624.1873	636.1219	690.4806	726.8175	794.6269	842.8039	875.3162	934.0269	960.5973	986.9071	1009.37	1042.4431	1072.3619	1096.398	1123.6488	1138.1142	1169.8222	1230.3237	1237.4812	1269.1635	1281.9644	1291.4926	1357.173	1372.6405	1400.9762	1408.3124	1424.1921	1482.447	1497.6865	1500.4186	1511.2664	1521.7035	1760.057	2983.529	3018.6794	3032.5716	3037.4834	3058.5077	3068.059	3103.6518	3105.4327	3116.6551	3486.7822	3647.6729
CC1COC(=N)C1CO	C[C@H]1CO[C]([NH])[C@H]1CO	
InChI=1S/C6H11NO2/c1-4-3-9-6(7)5(4)2-8/h4-5,7-8H,2-3H2,1H3	InChI=1S/C6H11NO2/c1-4-3-9-6(7)5(4)2-8/h4-5,7-8H,2-3H2,1H3/t4-,5-/m0/s1
