21
gdb 112936	4.0537	0.77821	0.72867	2.642	79.66	-0.242	-0.0136	0.2284	1611.1819	0.180661	-424.234277	-424.224145	-424.223201	-424.270792	36.173	
C	 0.0645593477	 1.3981190384	-0.3043845747	-0.481225
C	 0.114420193	-0.0748049573	 0.0597981158	 0.372994
O	 1.1620968395	-0.6570022585	 0.2333910803	-0.30307
C	-1.2203925004	-0.7873110502	 0.1504815361	-0.075228
C	-1.7435636524	-1.3960619982	-1.1991121427	-0.265949
C	-2.1434034257	-2.6802272489	-0.4219285782	 0.028251
C	-1.8379874467	-4.0230455119	-1.0652098539	-0.08404
O	-2.1446213097	-5.1180144826	-0.2156736763	-0.420611
C	-1.2445745095	-2.2102723621	 0.758391861	-0.272665
H	 1.0698205898	 1.772406116	-0.5012625017	 0.141656
H	-0.5756264942	 1.5608092203	-1.1786045042	 0.13831
H	-0.3792869586	 1.9660189	 0.5220793914	 0.141615
H	-1.9750746726	-0.1252430392	 0.585504838	 0.078117
H	-2.5304433885	-0.8495153276	-1.7228153207	 0.105948
H	-0.9195917549	-1.5850224334	-1.8952889145	 0.112748
H	-3.2002752306	-2.6520408232	-0.1381273299	 0.078987
H	-2.4509968384	-4.1615464546	-1.963452917	 0.107926
H	-0.7824388084	-4.0466328648	-1.3840317369	 0.087072
H	-1.570972799	-5.0572252982	 0.5551645833	 0.286441
H	-0.2399814136	-2.6437512024	 0.7190288072	 0.120657
H	-1.6398255669	-2.3095080917	 1.7714823778	 0.102064
35.3373	47.7323	94.6495	133.8706	193.5217	207.2977	259.862	309.2298	350.6874	400.982	435.9069	580.286	596.7573	614.6166	761.6903	813.5545	876.0837	906.9433	937.0482	957.4576	983.3556	995.5937	1050.2539	1059.4914	1078.2528	1114.3012	1135.3373	1169.7331	1196.9808	1235.2895	1240.4126	1261.9126	1267.1572	1291.4875	1349.6407	1367.1147	1383.3172	1397.7811	1422.65	1462.7005	1473.7934	1476.1294	1492.5545	1505.7961	1804.8261	2966.6041	3033.2811	3048.3177	3052.6747	3055.7128	3062.285	3066.0905	3093.5661	3111.7082	3117.1617	3151.3104	3812.8358
CC(=O)C1CC(CO)C1	CC(=O)[C@H]1C[C@@H](CO)C1	
InChI=1S/C7H12O2/c1-5(9)7-2-6(3-7)4-8/h6-8H,2-4H2,1H3	InChI=1S/C7H12O2/c1-5(9)7-2-6(3-7)4-8/h6-8H,2-4H2,1H3/t6-,7+
