15
gdb 129690	3.29474	1.1923	0.91488	1.6601	70.36	-0.2067	0.0044	0.2111	1214.9503	0.113956	-450.123679	-450.1151	-450.114156	-450.158139	30.334	
N	-0.5625924338	 1.2379390956	 0.3599252972	-0.624466
C	-0.2055602671	-0.0958552958	 0.0931331059	 0.096517
C	-1.0421790206	-1.1097889293	-0.3295186694	 0.35294
N	-0.2985539427	-2.2477614888	-0.3965431331	-0.252117
N	 0.9800110323	-2.0439440045	-0.0455777232	-0.225353
C	 1.0397975907	-0.7473395494	 0.2591275672	-0.059338
O	-2.3525195961	-1.0985347063	-0.7075421272	-0.222181
C	-3.273636509	-0.8968302812	 0.2884925483	 0.106318
N	-4.4869529908	-0.7958551372	-0.0200369704	-0.425069
H	 0.2481060719	 1.8419629074	 0.405277086	 0.248741
H	-1.201500434	 1.6084357188	-0.3345506042	 0.253062
H	-0.6012926908	-3.1504678882	-0.7217083307	 0.281446
H	 1.9743799117	-0.3148538277	 0.5869868904	 0.108355
H	-2.8131119257	-0.8463594261	 1.2809261879	 0.120845
H	-5.0503407859	-0.6581482872	 0.8165253253	 0.2403
31.8715	96.7164	130.3326	169.6338	257.318	288.661	410.758	422.054	454.371	515.9645	674.65	696.5545	698.4909	797.5834	823.7225	831.4477	856.0902	946.5403	1022.9306	1047.4533	1090.5849	1143.1931	1252.2337	1256.9429	1280.1714	1305.7294	1401.0616	1415.2092	1445.1708	1538.0653	1653.6085	1670.1549	1751.413	3072.211	3237.4803	3523.3739	3523.5547	3614.7406	3672.698
NC1=C(NN=C1)OC=N	Nc1c([nH]nc1)O[CH][NH]	
InChI=1S/C4H6N4O/c5-2-9-4-3(6)1-7-8-4/h1-2,5H,6H2,(H,7,8)	InChI=1S/C4H6N4O/c5-2-9-4-3(6)1-7-8-4/h1-2,5H,6H2,(H,7,8)
