16
gdb 23206	2.20962	1.52821	0.99261	2.9962	69.25	-0.2586	-0.0089	0.2497	1161.9431	0.1223	-474.926095	-474.917494	-474.91655	-474.959665	31.776	
O	-0.0211336398	 1.411105374	 0.1556118021	-0.414126
C	 0.0419193659	 0.0006408499	 0.0531759948	-0.198224
C	-1.323677553	-0.5986840342	-0.0793659273	 0.328867
O	-2.1047048323	-0.9668630706	 1.0804142517	-0.27223
C	-1.9206896108	-1.950382522	 0.0637397059	-0.064878
C	-2.9834189121	-1.6734124537	-1.0272334288	-0.354163
C	-2.3286155175	-0.2951918147	-1.153452405	 0.402372
N	-2.3760429709	 0.7129192829	-1.9168600163	-0.273734
O	-3.4048108608	 0.6083921093	-2.862512103	-0.383614
H	-0.5085254972	 1.7307146259	-0.6143170465	 0.298162
H	 0.6532542994	-0.3155644528	-0.8072485204	 0.098702
H	 0.5202622004	-0.3698146535	 0.9641432416	 0.127251
H	-1.45685928	-2.8896169467	 0.3395553359	 0.12005
H	-2.8698381001	-2.2639538352	-1.9410175097	 0.135012
H	-4.0210556671	-1.7065913575	-0.6892787317	 0.139652
H	-3.3207351942	 1.432301029	-3.3552073333	 0.310901
74.2296	111.9668	150.0497	202.6877	271.4672	333.2635	377.4546	425.0248	452.6624	466.881	514.9633	576.8866	700.3721	753.6666	795.059	869.5185	940.0043	960.6278	986.8172	1022.1864	1027.1124	1061.1426	1080.8867	1132.511	1179.8535	1223.3739	1244.1226	1287.574	1368.2703	1404.1461	1423.6498	1449.8851	1476.0067	1488.2808	1794.0921	2977.6903	3068.6875	3094.5701	3127.2848	3199.0912	3775.7106	3813.6802
OCC12OC1CC2=NO	OC[C@]12O[C@H]1CC2=NO	
InChI=1S/C5H7NO3/c7-2-5-3(6-8)1-4(5)9-5/h4,7-8H,1-2H2	InChI=1S/C5H7NO3/c7-2-5-3(6-8)1-4(5)9-5/h4,7-8H,1-2H2/t4-,5+/m0/s1
