19
gdb 26093	3.16174	1.23436	1.09872	1.1626	77.81	-0.2174	0.0188	0.2362	1180.2619	0.157968	-423.061925	-423.05289	-423.051946	-423.095542	34.492	
C	-0.0838437597	 1.5198928837	-0.0723329982	-0.418475
C	 0.0207446865	-0.0122181072	 0.0076348999	 0.236112
C	 0.8093209735	-0.4412556923	 1.2520735014	-0.389677
O	-1.2738063606	-0.5953610453	 0.1564519425	-0.449775
C	 0.6542860991	-0.5721578616	-1.241151407	 0.348265
C	 0.3134515872	-1.6021969997	-2.0624418816	-0.293734
C	 1.318969838	-1.6556890676	-3.0849524301	-0.174576
C	 2.1930247825	-0.6570126392	-2.8052926933	-0.025539
O	 1.8031111351	 0.0153600325	-1.6858982679	-0.195002
H	 0.9032364592	 1.9776763495	-0.1752105967	 0.131412
H	-0.6824246201	 1.8212541992	-0.9391451946	 0.108377
H	-0.5632373363	 1.9019310725	 0.8330738428	 0.120218
H	 0.3434752515	-0.0267314065	 2.1506910019	 0.118509
H	 0.8150777168	-1.5310039088	 1.3305962779	 0.12784
H	 1.8415253272	-0.0873685499	 1.1905276604	 0.123714
H	-1.8056849187	-0.3145144943	-0.5968454032	 0.27678
H	-0.5386050736	-2.2510076716	-1.9419523019	 0.113898
H	 1.376671376	-2.3466732945	-3.9113661022	 0.110451
H	 3.0957471365	-0.3003121792	-3.2729211201	 0.131201
56.46	137.1396	185.7819	220.176	267.9093	321.1245	328.4324	344.4052	363.2934	459.4429	487.7318	610.2869	615.254	710.6286	744.6372	815.9376	851.5426	855.4073	900.8317	930.2224	945.265	975.4215	1015.2209	1026.9347	1101.9548	1113.3534	1136.2068	1193.4729	1211.89	1245.616	1281.7653	1361.7784	1392.5856	1403.9045	1416.8381	1478.5618	1480.3414	1494.8168	1504.3665	1539.6216	1627.5612	3035.6793	3047.2127	3107.2227	3123.1316	3130.6207	3133.9382	3253.4426	3271.464	3285.8305	3797.3101
CC(C)(O)C1=CC=CO1	CC(C)(O)c1ccco1	
InChI=1S/C7H10O2/c1-7(2,8)6-4-3-5-9-6/h3-5,8H,1-2H3	InChI=1S/C7H10O2/c1-7(2,8)6-4-3-5-9-6/h3-5,8H,1-2H3
