20
gdb 8363	5.19079	1.18959	1.16304	1.0035	76.77	-0.2521	0.0892	0.3412	1134.1526	0.177398	-348.943645	-348.935674	-348.93473	-348.976488	29.787	
C	-0.0118433191	 1.3461468167	 0.0050299107	-0.216448
O	 0.0025479269	-0.0599580823	 0.0037485369	-0.236619
C	 0.6475220784	-0.6034923763	-1.1295514566	-0.213784
C	 0.6064406756	-2.1012379883	-1.0299241442	 0.362431
C	-0.6599572967	-3.0093761374	-0.960296109	-0.24063
C	 0.5562310871	-3.9770845734	-0.9062316827	-0.044722
C	 1.1933907566	-3.1273090863	-2.0442744149	-0.265217
C	 1.2099182471	-2.9894086262	 0.1015687839	-0.240496
H	 1.0067015967	 1.7670264535	 0.0069488247	 0.101622
H	-0.5454918181	 1.7519689426	-0.8696714487	 0.101618
H	-0.5277737874	 1.6684187741	 0.9130006671	 0.125531
H	 0.1473233172	-0.2694146168	-2.0561371368	 0.083031
H	 1.6940675471	-0.2539023638	-1.1834140879	 0.083017
H	-1.2671254335	-2.9257641107	-0.0559637296	 0.096512
H	-1.2808575752	-3.050097336	-1.860455792	 0.082994
H	 0.5289032528	-5.064852264	-0.8377445929	 0.069208
H	 0.7110064142	-3.1772491068	-3.0251652978	 0.086205
H	 2.2835761689	-3.1603582747	-2.1322265563	 0.08621
H	 2.3015709868	-3.0118371284	 0.1740050976	 0.082997
H	 0.7429025946	-2.9041982254	 1.0854784184	 0.096539
73.9783	88.19	128.8643	222.7358	314.9794	343.8082	383.8356	542.0936	546.645	706.9483	774.7361	806.0451	886.8064	911.5499	943.5331	962.9006	978.6249	993.8957	1000.0954	1022.5633	1099.4081	1104.0876	1139.2066	1140.8789	1154.6693	1167.656	1168.876	1192.8745	1224.1497	1230.9288	1232.3133	1242.9817	1283.3912	1325.218	1421.8777	1478.8752	1483.8071	1498.2846	1498.6156	1500.4888	1521.4835	1556.5785	2936.8358	2964.0975	2966.1107	3006.9337	3039.7606	3045.3026	3051.7058	3104.1517	3108.3942	3111.0528	3115.223	3119.512
COCC12CC(C1)C2	COC[C@@]12C[C@@H](C1)C2	
InChI=1S/C7H12O/c1-8-5-7-2-6(3-7)4-7/h6H,2-5H2,1H3	InChI=1S/C7H12O/c1-8-5-7-2-6(3-7)4-7/h6H,2-5H2,1H3/t6-,7-
