15
gdb 29431	5.55272	0.99419	0.84321	3.5886	73.52	-0.1802	0.0019	0.1822	1279.7089	0.11532	-450.17576	-450.167898	-450.166953	-450.208117	29.893	
O	 0.0788309702	 1.3737731965	 0.0404834187	-0.441011
C	 0.0601825405	 0.0243519542	-0.0471086716	 0.342873
C	-0.0012206958	-0.7285778353	-1.189561921	-0.217253
N	 0.005096265	-2.0453902227	-0.7338061837	-0.277115
C	 0.0687659837	-1.9915696412	 0.6107074454	 0.491382
N	 0.0943145688	-3.1161354959	 1.4228792878	-0.381573
C	 0.0648623301	-4.4160407276	 1.005957338	 0.095547
N	 0.0054345146	-4.7461559155	-0.2303793604	-0.488366
N	 0.1040248758	-0.7561802812	 1.0775706668	-0.44487
H	 0.1250921126	 1.5808606864	 0.9811604175	 0.297581
H	-0.0475532914	-0.4742181354	-2.2323992471	 0.126781
H	-0.025097053	-2.9235353362	-1.23704967	 0.287349
H	 0.1434246347	-2.9164714778	 2.4082453734	 0.272646
H	 0.0973589407	-5.1171706266	 1.8454300799	 0.105543
H	-0.0076495765	-5.7564060717	-0.3323424736	 0.230485
83.2613	193.5168	197.2627	294.203	320.4895	345.0662	372.2863	476.1823	498.0926	589.0829	630.4572	658.567	705.4535	733.6373	738.8255	788.7903	831.4385	1003.9029	1025.3174	1033.7035	1112.0254	1132.6194	1182.4201	1240.7199	1299.2553	1328.1669	1394.9876	1425.3892	1462.2063	1561.3497	1635.3516	1662.5094	1707.9867	3077.6995	3302.5542	3538.1922	3561.1162	3664.1482	3811.5592
OC1=CNC(NC=N)=N1	Oc1c[nH]c(NC=N)n1	
InChI=1S/C4H6N4O/c5-2-7-4-6-1-3(9)8-4/h1-2,9H,(H3,5,6,7,8)	InChI=1S/C4H6N4O/c5-2-7-4-6-1-3(9)8-4/h1-2,9H,(H3,5,6,7,8)
