20
gdb 83774	2.7742	1.85098	1.66082	0.1703	77.35	-0.2137	0.0854	0.2991	933.2007	0.173803	-403.095551	-403.088372	-403.087428	-403.126958	29.342	
C	-0.1416126928	 1.6433770243	-0.0735733415	-0.441384
C	 0.0912542436	 0.1422260877	 0.0082827622	 0.06293
C	 1.13649849	-0.6065676206	-0.8551602398	 0.067199
O	 2.3572980342	 0.1155618778	-0.942796947	-0.271318
C	 2.7796402029	 0.6138159466	 0.3319000001	-0.095869
C	 2.1854887568	-0.2542928006	 1.4326969372	-0.017012
C	 2.4822190073	-1.7305726623	 1.0766725987	-0.243397
C	 1.1603271565	-1.6449843133	 0.3190127384	 0.002534
N	 0.6852933036	-0.5178942059	 1.2362225967	-0.17415
H	 0.7526827433	 2.205526153	-0.3434756362	 0.13313
H	-0.9024918029	 1.8609711804	-0.8301899422	 0.119553
H	-0.5131336098	 2.0151991306	 0.8872388138	 0.128915
H	-0.8774633636	-0.3614153173	-0.1034444411	 0.084906
H	 0.8961849669	-0.9303658442	-1.8711299895	 0.073229
H	 3.8749380565	 0.5607600782	 0.3533824865	 0.107689
H	 2.4963479887	 1.6654238471	 0.4543652541	 0.097638
H	 2.4351625728	 0.115961983	 2.4296578609	 0.076749
H	 3.3951837397	-1.9369602641	 0.5142977572	 0.107334
H	 2.4036994831	-2.4005370955	 1.9348369332	 0.111371
H	 0.5064658832	-2.5136121547	 0.2029645684	 0.069952
94.1089	203.695	245.6712	296.7584	393.4823	448.4042	525.7362	565.5783	643.3281	689.2661	750.7178	789.738	831.8811	856.0221	896.99	899.5169	940.8769	966.6213	987.5896	995.5017	1046.2027	1065.7199	1091.1473	1109.6401	1129.9654	1149.4083	1165.2022	1197.0216	1226.7808	1233.7031	1257.7622	1272.7293	1290.3659	1312.8625	1344.6409	1348.8602	1397.6412	1402.7106	1413.6527	1480.0152	1487.6107	1497.0251	1528.2111	3018.7038	3024.4728	3043.3325	3057.2029	3064.4025	3072.4682	3078.9539	3084.695	3101.8953	3131.2203	3143.1992
CC1C2OCC3CC2N13	C[C@H]1[C@H]2OC[C@@H]3C[C@H]2N13	
InChI=1S/C7H11NO/c1-4-7-6-2-5(3-9-7)8(4)6/h4-7H,2-3H2,1H3	InChI=1S/C7H11NO/c1-4-7-6-2-5(3-9-7)8(4)6/h4-7H,2-3H2,1H3/t4-,5-,6+,7+/m0/s1
