20
gdb 107688	3.05453	1.28483	1.07686	1.1269	74.56	-0.2245	0.0673	0.2918	1173.4897	0.172373	-440.247044	-440.238649	-440.237705	-440.280066	32.367	
O	 0.1898706665	 1.3670569064	 0.2023259747	-0.415327
C	 0.0256516225	 0.0012799579	-0.1575141247	-0.137621
C	-1.4077309714	-0.461738157	 0.0053678323	 0.259792
C	-1.8498819591	-1.0864033818	 1.2820871789	-0.288227
N	-1.5728597077	-1.920522376	 0.1085700211	-0.13499
C	-2.7363168959	-2.5478967482	-0.5460680185	-0.158804
C	-3.493451854	-1.6067414253	-1.4851007698	-0.083979
O	-3.672296089	-0.3325303463	-0.8896738865	-0.239579
C	-2.4295452206	 0.3360697834	-0.7942921059	-0.15105
H	-0.0190927317	 1.4469542466	 1.1390805362	 0.284692
H	 0.3230257692	-0.06307214	-1.2106020705	 0.110099
H	 0.6875708522	-0.664206437	 0.4139009738	 0.099647
H	-1.1576338169	-1.2069314513	 2.1136729434	 0.103545
H	-2.8911071807	-0.9455050599	 1.5643774199	 0.120609
H	-2.3822681358	-3.4177475002	-1.112718049	 0.106126
H	-3.4135159945	-2.9220839857	 0.2294954043	 0.109914
H	-2.9497100205	-1.4952543599	-2.4378210407	 0.092094
H	-4.4881885563	-2.0026435645	-1.7091089075	 0.110842
H	-2.6184602891	 1.3042570795	-0.3243796819	 0.119573
H	-2.0265809372	 0.5281086692	-1.8039179996	 0.092643
84.2892	124.8355	159.0236	269.6804	305.3862	346.1241	388.4496	405.2282	421.057	489.1861	552.2797	641.1598	747.1672	780.6537	872.5714	891.2335	932.8513	950.9634	956.9036	1009.5417	1056.7352	1067.559	1093.7019	1117.5071	1139.0076	1147.5019	1168.8237	1191.3098	1262.6444	1272.773	1282.5797	1320.8504	1353.496	1376.725	1387.2346	1404.79	1414.5931	1430.814	1488.222	1492.6251	1500.8885	1503.0167	1512.2456	2958.3778	2971.0195	3007.7763	3025.8454	3065.3416	3067.1115	3086.266	3088.4217	3096.1145	3174.5333	3807.9566
OCC12CN1CCOC2	OC[C@]12CN1CCOC2	
InChI=1S/C6H11NO2/c8-4-6-3-7(6)1-2-9-5-6/h8H,1-5H2	InChI=1S/C6H11NO2/c8-4-6-3-7(6)1-2-9-5-6/h8H,1-5H2/t6-,7?/m0/s1
