21
gdb 80868	2.13517	1.72696	1.45709	1.5282	77.42	-0.241	0.0825	0.3235	1052.1089	0.182651	-424.217169	-424.208576	-424.207632	-424.249586	34.413	
C	-0.0664675907	 1.4854247577	-0.0670007613	-0.420014
C	 0.0673683307	-0.0217446934	 0.0693955591	 0.109409
O	 0.9157340634	-0.5712723096	-0.9863032577	-0.318007
C	 1.9184939349	-1.2835544046	-0.2305749298	 0.040665
C	 2.28053588	-0.3265172106	 0.9197694813	-0.291797
C	 0.7892627543	-0.5825369285	 1.3110234488	 0.238077
C	 0.2095260082	-0.2956478283	 2.6744504837	-0.512823
C	 1.0513074331	-2.0547499296	 0.7865376114	 0.138962
O	 0.0027056297	-2.8433925641	 0.3107770731	-0.453108
H	 0.8857472862	 2.001063092	 0.0820190884	 0.119679
H	-0.4323593617	 1.7354073142	-1.0672125621	 0.12849
H	-0.7882956919	 1.8700846374	 0.6612674351	 0.117483
H	-0.9291086782	-0.4764925159	-0.015958857	 0.070017
H	 2.6333208033	-1.7411204567	-0.9128459293	 0.079799
H	 2.9814940658	-0.7610455077	 1.6357207646	 0.102774
H	 2.587742728	 0.6840347112	 0.6489638162	 0.105738
H	 0.1700786126	 0.7793468027	 2.8824541602	 0.119774
H	-0.810473269	-0.6893802062	 2.751684535	 0.127544
H	 0.8076377813	-0.764373442	 3.4625308786	 0.118198
H	 1.624424521	-2.6397590426	 1.5095464764	 0.084925
H	-0.2211267509	-2.497889715	-0.5633784948	 0.294213
174.6244	195.4881	198.0971	217.268	227.8989	280.6458	332.3422	401.8814	479.6866	490.0397	551.832	594.4045	639.9685	725.0746	798.4931	813.3879	838.3448	843.2269	912.2771	932.7693	968.5192	994.3356	1045.6105	1065.9702	1089.3895	1109.3516	1136.0339	1148.1503	1184.4436	1208.7351	1235.4508	1251.0666	1263.5919	1303.3992	1317.2385	1369.8293	1397.6215	1412.0086	1413.5821	1437.0672	1485.1694	1490.6624	1494.1817	1497.76	1502.59	3005.5333	3026.4998	3040.8666	3077.2644	3090.6717	3093.286	3097.2715	3109.176	3121.8518	3136.8552	3142.3831	3763.1871
CC1OC2CC1(C)C2O	C[C@H]1O[C@H]2C[C@]1(C)[C@H]2O	
InChI=1S/C7H12O2/c1-4-7(2)3-5(9-4)6(7)8/h4-6,8H,3H2,1-2H3	InChI=1S/C7H12O2/c1-4-7(2)3-5(9-4)6(7)8/h4-6,8H,3H2,1-2H3/t4-,5+,6+,7+/m1/s1
