14
gdb 132872	3.07544	1.4394	0.9816	3.8652	72.82	-0.1834	-0.0472	0.1361	1103.5548	0.10244	-474.184704	-474.177023	-474.176079	-474.216819	29.431	
N	 0.0873068419	 1.4326933178	 0.095366883	-0.5782
C	-0.0191775745	 0.0414363067	-0.0264477809	 0.309955
C	-1.1883820995	-0.6488331433	-0.0739227228	-0.078161
N	-1.1596262522	-2.0141120265	-0.2757802091	-0.328905
C	-0.0060883517	-2.7577592344	-0.4392973297	 0.259122
N	-0.0503213092	-4.0272886909	-0.6241569387	-0.571061
C	 1.169225985	-1.8820925654	-0.3591258641	 0.264235
F	 2.3295404972	-2.5137155597	-0.4930713056	-0.061842
N	 1.1827692185	-0.6223971542	-0.1732529828	-0.334715
H	 0.9910694089	 1.6978646675	 0.4640009878	 0.255393
H	-0.6592049721	 1.8610336584	 0.6251739253	 0.245966
H	-2.1647085696	-0.1966945499	 0.0295366812	 0.12436
H	-2.020065015	-2.5401751961	-0.3102785435	 0.269488
H	 0.8932516824	-4.3936779	-0.7208597501	 0.224366
98.0296	192.5951	236.142	318.9168	325.4119	333.7506	427.7461	490.4697	542.1459	589.2069	613.265	637.8187	694.844	721.4045	752.3495	789.9451	792.8779	840.7154	999.5242	1056.9607	1139.7808	1214.5038	1272.2995	1331.2806	1396.5965	1423.6035	1478.8534	1622.5149	1643.3808	1681.8529	1721.1967	3228.1972	3531.4382	3549.3524	3627.152	3649.9695
NC1=CNC(=N)C(F)=N1	NC1=CN[C@H]([NH])C(=N1)F	
InChI=1S/C4H5FN4/c5-3-4(7)8-1-2(6)9-3/h1H,(H2,6,9)(H2,7,8)	InChI=1S/C4H6FN4/c5-3-4(7)8-1-2(6)9-3/h1,4,7-8H,6H2/t4-/m0/s1
