18
gdb 90906	3.55327	1.51582	1.41782	1.6535	76.61	-0.2203	-0.0153	0.205	981.5072	0.147291	-401.786671	-401.779368	-401.778424	-401.817847	30.252	
C	-0.3354312418	 1.511900786	-0.0563751221	-0.382732
C	 0.017265917	 0.0393349653	 0.0011656583	-0.068093
N	 1.1223091342	-0.3399260923	-1.0287696892	-0.380243
C	 2.1076931993	-0.1856656629	 0.1410140612	 0.012294
C	 2.903350342	-0.9182829926	 1.3142559214	-0.050939
O	 1.9765479329	-0.1548999334	 2.2161481285	-0.364206
C	 1.0131061824	-0.4928356427	 1.0830407557	 0.326495
C	 1.0053617724	-2.0290963212	 1.191791129	-0.139741
C	 2.2980713026	-2.3146891434	 1.343487647	-0.06515
H	 0.5414483536	 2.1480314738	 0.0844607163	 0.131177
H	-0.7742118192	 1.749550144	-1.0294317709	 0.128984
H	-1.0648669769	 1.7565642335	 0.7222612745	 0.122956
H	-0.882758548	-0.5769887447	-0.1055572304	 0.08244
H	 0.9989487335	-1.330964493	-1.2420136642	 0.223676
H	 2.4185112976	 0.858252812	 0.1429253483	 0.110917
H	 3.9553749221	-0.7455245889	 1.5411610959	 0.086734
H	 0.1297050415	-2.6625557997	 1.1637117264	 0.107807
H	 2.8182889248	-3.2515878098	 1.4763032943	 0.117623
173.1881	206.0468	210.267	331.3423	351.1834	454.1196	487.4772	553.0208	578.6727	675.081	702.5546	727.1952	742.4077	785.3197	825.7882	842.2776	896.9333	904.7409	916.6652	957.6524	992.1086	1006.1955	1042.2178	1077.7324	1093.7308	1134.168	1135.1714	1193.4797	1236.3653	1245.1981	1267.3738	1286.1692	1324.6789	1364.3459	1396.2714	1418.0018	1488.9287	1492.3799	1623.0533	3039.9946	3047.1189	3115.0781	3118.9361	3128.1391	3131.931	3223.2838	3254.7052	3454.7519
CC1NC2C3OC12C=C3	C[C@H]1N[C@@H]2[C@H]3O[C@@]12C=C3	
InChI=1S/C7H9NO/c1-4-7-3-2-5(9-7)6(7)8-4/h2-6,8H,1H3	InChI=1S/C7H9NO/c1-4-7-3-2-5(9-7)6(7)8-4/h2-6,8H,1H3/t4-,5+,6-,7+/m1/s1
