21
gdb 72488	2.49197	1.81209	1.49621	0.6861	76.95	-0.2302	0.084	0.3143	1000.1138	0.185062	-424.24853	-424.240819	-424.239875	-424.280172	31.508	
C	-0.0545314383	 1.4950744464	 0.039811989	-0.465138
C	 0.0459723438	-0.0179150822	-0.0238162686	 0.360899
C	 0.7151625302	-0.5824140558	-1.3049559604	-0.249008
C	-0.0659005981	-1.8950323703	-1.5736590357	-0.21871
C	-1.0663266716	-1.9417957885	-0.3970751512	 0.070491
C	-0.4637934661	-2.6131358073	 0.8385750015	-0.083937
O	 0.7915638105	-2.0242341254	 1.1529826212	-0.260122
C	 0.7064036144	-0.6075920821	 1.2341007046	-0.09971
O	-1.2874897398	-0.5638653613	-0.079889993	-0.29788
H	 0.9396869035	 1.9512399065	 0.0032094889	 0.117629
H	-0.638203819	 1.8653285536	-0.8075706998	 0.126004
H	-0.5489507715	 1.817369581	 0.9612826386	 0.122851
H	 0.597678635	 0.1260808145	-2.1288875287	 0.097806
H	 1.7837714898	-0.7563791507	-1.159916426	 0.106645
H	-0.6033598331	-1.8476403213	-2.5235273596	 0.102013
H	 0.5834359929	-2.7732274917	-1.5967653111	 0.106481
H	-2.0320265911	-2.388519242	-0.6500657256	 0.075047
H	-1.1648149061	-2.5070747803	 1.6817666708	 0.092591
H	-0.2731998367	-3.6776806527	 0.6693924512	 0.103744
H	 1.7321872898	-0.2456736477	 1.3569252063	 0.102649
H	 0.1156613016	-0.3060971928	 2.1140223975	 0.089656
142.7562	200.4714	264.1679	270.8046	298.6259	383.9769	401.2184	464.5025	496.5491	590.9013	615.1576	795.463	809.2329	817.137	841.7648	877.856	903.4655	929.8098	962.2933	982.9218	997.5701	1043.2389	1043.3519	1087.4219	1122.4114	1149.6315	1176.4024	1206.4589	1230.1085	1254.6289	1275.7793	1290.3466	1307.3769	1324.1673	1349.186	1362.733	1381.8389	1408.8833	1415.8664	1474.7688	1483.506	1484.8653	1491.3723	1496.7931	1502.9992	2977.2316	2984.6088	3039.7816	3060.2359	3068.0852	3075.5256	3077.7058	3083.489	3102.8389	3111.9116	3117.6972	3122.7694
CC12CCC(COC1)O2	C[C@@]12CC[C@@H](COC1)O2	
InChI=1S/C7H12O2/c1-7-3-2-6(9-7)4-8-5-7/h6H,2-5H2,1H3	InChI=1S/C7H12O2/c1-7-3-2-6(9-7)4-8-5-7/h6H,2-5H2,1H3/t6-,7+/m0/s1
