17
gdb 34659	3.45734	1.1698	0.90563	1.8747	80.42	-0.236	-0.0272	0.2088	1245.1463	0.135722	-421.783988	-421.775644	-421.7747	-421.817473	31.113	
C	 0.0690347318	-1.1179977423	-0.445893675	-0.424531
C	 0.0001302559	 0.0520021193	-0.1651439776	 0.250396
C	-0.0013667567	 1.4359878017	 0.1779113136	 0.091177
C	-1.1384009027	 2.1461830682	 0.0928763268	-0.140277
C	-1.3668141554	 3.619320571	 0.2987443491	-0.145758
O	-0.5443976977	 4.2959056815	 1.226061782	-0.216475
C	 0.8286338685	 4.2519422636	 0.9683818591	 0.010283
O	 1.4319502539	 3.0718440086	 1.4144059473	-0.216905
C	 1.3808934289	 1.9762672169	 0.5303671649	-0.184397
H	 0.1075986654	-2.1490883755	-0.6966988299	 0.198614
H	-2.0275341762	 1.6127791762	-0.2356600833	 0.104485
H	-1.3066424799	 4.1151965584	-0.6896117718	 0.10945
H	-2.3900267995	 3.7724017197	 0.6565462198	 0.127101
H	 1.030014068	 4.4076476666	-0.1082842973	 0.073494
H	 1.2706431758	 5.0611280892	 1.554293436	 0.118494
H	 1.9576482152	 1.1817436045	 1.0100000361	 0.13275
H	 1.8976749647	 2.2227685024	-0.4144642898	 0.112101
44.7781	147.2562	158.0162	195.5018	327.3123	360.4029	387.1001	436.5444	523.6946	535.5725	577.4862	593.1203	647.4767	680.5104	819.3808	851.9472	938.0582	963.0066	1003.2784	1021.6531	1049.6072	1096.1211	1157.4157	1179.9847	1224.1814	1267.7149	1310.4958	1344.9638	1360.9622	1405.5729	1408.831	1446.6604	1475.5698	1482.0983	1502.209	1701.2922	2216.2282	2919.2076	2929.5021	2950.2792	3072.6022	3097.6961	3104.8269	3156.1477	3502.6127
C#CC1=CCOCOC1	C#CC1=CCOCOC1	
InChI=1S/C7H8O2/c1-2-7-3-4-8-6-9-5-7/h1,3H,4-6H2	InChI=1S/C7H8O2/c1-2-7-3-4-8-6-9-5-7/h1,3H,4-6H2
