21
gdb 91370	3.21955	1.15079	0.96525	2.1194	85.75	-0.231	0.015	0.2461	1292.9125	0.183121	-387.077775	-387.069193	-387.068249	-387.110874	33.764	
C	-0.0175104755	 1.562145302	 0.2004659978	-0.405384
C	 0.0172604752	 0.0511504121	 0.0284154012	-0.061555
C	 1.0925802803	-0.6103327516	-0.9253383258	-0.262312
C	 1.2679538132	-1.7613733406	 0.1262818287	-0.042377
C	 2.5717814176	-2.1860774992	 0.8273102715	-0.2797
C	 2.2998113283	-1.8917289992	 2.3429131454	 0.133858
O	 3.4592037217	-1.5049671535	 3.0650327149	-0.432069
C	 1.2175996441	-0.8096527351	 2.3009551751	-0.316689
C	 0.6354294833	-0.8127930501	 1.1064682477	 0.306723
H	 0.9687247928	 1.9431880801	 0.4852274735	 0.114207
H	-0.318636537	 2.0568907993	-0.7291514108	 0.116589
H	-0.7288771938	 1.8557848032	 0.979684206	 0.120786
H	-0.9755997493	-0.3216362191	-0.2535034329	 0.085784
H	 0.7623867708	-0.8831326404	-1.9309173525	 0.097884
H	 1.9875549606	 0.0156573683	-0.9923769459	 0.101363
H	 0.6368190868	-2.6182515356	-0.1360572577	 0.077788
H	 2.8704250587	-3.2221978629	 0.6466463416	 0.098811
H	 3.4037962377	-1.5439654367	 0.5111356911	 0.090306
H	 1.9582223917	-2.7965744862	 2.8621148307	 0.092424
H	 3.7652204286	-0.6721412519	 2.6875831872	 0.269757
H	 1.0600538742	-0.131930643	 3.132152703	 0.093804
84.6294	118.7019	207.8697	212.9239	293.4145	338.1473	359.3237	394.3268	476.8274	501.0873	582.9466	622.3211	663.5242	796.2967	829.9322	856.7357	860.6918	886.8509	914.9506	952.6623	997.0103	1022.5484	1056.7065	1064.3541	1091.7159	1097.875	1134.5783	1155.328	1175.7288	1219.4725	1230.2161	1235.974	1254.8786	1262.3763	1306.5838	1319.3965	1331.9528	1367.6636	1408.8056	1427.1166	1476.7062	1483.1538	1492.2202	1497.2839	1727.9718	3021.7056	3023.7307	3030.0241	3031.0963	3035.3181	3050.7823	3096.9607	3097.9645	3102.3341	3113.202	3198.411	3787.4642
CC1CC2CC(O)C=C12	C[C@H]1C[C@H]2C[C@@H](O)[CH][C]12	
InChI=1S/C8H12O/c1-5-2-6-3-7(9)4-8(5)6/h4-7,9H,2-3H2,1H3	InChI=1S/C8H12O/c1-5-2-6-3-7(9)4-8(5)6/h4-7,9H,2-3H2,1H3/t5-,6-,7+/m0/s1
