15
gdb 33712	3.85867	1.53727	1.28212	5.4298	74.64	-0.2538	-0.0277	0.2261	956.4064	0.11461	-379.631558	-379.62503	-379.624086	-379.6623	26.35	
N	 0.0844009931	-1.1161646323	-0.0155378309	-0.337647
C	 0.0229544587	 0.037639111	-0.0479034052	 0.221921
C	-0.1032410968	 1.4680602725	-0.0838335458	 0.192359
C	-1.2989018359	 2.1480353617	 0.4846677962	-0.154455
C	-1.3613905671	 3.3966062113	 0.0075674829	-0.089274
C	-0.1274546551	 3.6740333379	-0.8113500539	-0.141934
C	 1.0733453418	 3.6217819616	 0.2063755303	-0.147144
N	 1.2896245029	 2.1678094834	-0.0380785838	-0.175509
C	 0.4057169975	 2.2729804026	-1.2285498442	-0.071972
H	-1.9509293107	 1.6779925794	 1.2075064774	 0.126042
H	-2.0641851394	 4.1628682434	 0.309522489	 0.118553
H	-0.1637511818	 4.4908994906	-1.5282760011	 0.09167
H	 1.9570856212	 4.134618996	-0.1788879309	 0.131152
H	 0.8791230209	 3.9154290263	 1.2414275318	 0.116603
H	 0.6659912807	 1.8854593944	-2.2080151119	 0.119634
159.0738	162.2845	368.1772	383.5995	487.6679	510.6947	540.47	568.861	663.911	727.4862	754.0993	816.1264	864.5043	874.5009	883.7213	898.9446	936.305	972.1383	1007.8263	1041.318	1074.701	1115.8989	1150.6548	1189.9709	1209.5979	1227.811	1281.1082	1296.445	1312.6077	1379.3427	1489.2019	1637.1483	2364.0681	3061.4755	3126.8889	3143.8839	3172.007	3211.5305	3241.8109
N#CC12C=CC3CN1C23	N#C[C@@]12C=C[C@H]3CN1[C@@H]23	
InChI=1S/C7H6N2/c8-4-7-2-1-5-3-9(7)6(5)7/h1-2,5-6H,3H2	InChI=1S/C7H6N2/c8-4-7-2-1-5-3-9(7)6(5)7/h1-2,5-6H,3H2/t5-,6+,7+,9?/m0/s1
