15
gdb 45837	2.43086	1.7494	1.06929	1.7098	70.72	-0.2623	-0.0234	0.2389	1057.4642	0.116281	-450.180015	-450.172571	-450.171627	-450.212284	27.996	
N	-0.0967638663	 1.3887865097	-0.2686326567	-0.494079
C	-0.0321681077	 0.1535095079	 0.0237078162	 0.380254
C	-1.2957748842	-0.6714768945	 0.0830556914	-0.230333
N	-1.5537840875	-1.3099963476	 1.3691353913	-0.216159
C	-0.7522643559	-2.2029854305	 1.7668511748	 0.085634
N	 0.4483232763	-2.6132114442	 1.1793678918	-0.351864
C	 1.4526729135	-1.8492844695	 0.5870476971	 0.446533
O	 2.5632203596	-2.310039196	 0.4273488335	-0.379276
N	 1.1689334952	-0.5353761397	 0.2495770266	-0.386863
H	 0.8249406161	 1.8315249174	-0.285937548	 0.21115
H	-2.118808821	 0.0020037733	-0.1510329249	 0.147432
H	-1.2393044349	-1.4410868326	-0.7032796281	 0.125263
H	-0.995886515	-2.7700420115	 2.6663013492	 0.130923
H	 0.8368532973	-3.4859092241	 1.5101870896	 0.268834
H	 2.0143676244	-0.0561695379	-0.0306197639	 0.262552
99.2194	124.646	162.5301	328.8593	370.2275	414.1057	500.427	542.21	574.8748	608.2231	651.6852	661.7338	761.0047	848.186	887.4387	890.3321	961.7798	965.3442	991.4517	1038.7755	1122.3135	1166.0072	1250.5272	1325.0553	1357.6683	1404.5476	1437.0835	1445.	1474.0512	1484.7238	1729.019	1758.55	1809.1898	2987.4335	3124.2709	3141.6692	3442.8885	3595.8026	3602.5462
N=C1CN=CNC(=O)N1	[NH][C]1CN=CNC(=O)N1	
InChI=1S/C4H6N4O/c5-3-1-6-2-7-4(9)8-3/h2H,1H2,(H3,5,6,7,8,9)	InChI=1S/C4H6N4O/c5-3-1-6-2-7-4(9)8-3/h2H,1H2,(H3,5,6,7,8,9)
