21
gdb 116471	2.64957	1.22629	0.97274	0.9629	74.18	-0.2474	0.078	0.3254	1261.7015	0.183668	-461.362554	-461.353527	-461.352583	-461.396119	34.561	
O	-0.0384978147	 1.4389196535	-0.0312341271	-0.428101
C	 0.0388719133	 0.0195992109	 0.0233495534	-0.100934
C	-1.381582854	-0.5333377943	-0.0057476827	 0.015285
C	-2.141487805	-0.1294299297	-1.2816685125	-0.212788
C	-3.5098598099	-0.8090469328	-1.3340755879	-0.089305
O	-3.4037868896	-2.22361498	-1.1858117184	-0.259072
C	-2.8376911119	-2.573113232	 0.0697795277	-0.118225
C	-1.3948243375	-2.0692504233	 0.1418496973	 0.113071
O	-0.6160002642	-2.706737721	-0.866375221	-0.446299
H	 0.8534394603	 1.783918424	-0.1279124634	 0.287135
H	 0.6041551287	-0.3889435755	-0.8256587337	 0.102553
H	 0.5426684025	-0.3137013309	 0.945780696	 0.080885
H	-1.9148101219	-0.1172370468	 0.8617091039	 0.075735
H	-2.2529367873	 0.9571811786	-1.3262441959	 0.117329
H	-1.5576565792	-0.4279503212	-2.1617761366	 0.098327
H	-4.165233824	-0.4080113136	-0.5424477647	 0.090126
H	-4.0036597039	-0.642248318	-2.2955467231	 0.108542
H	-3.4382255809	-2.1598008237	 0.8964229957	 0.089384
H	-2.8622322482	-3.6650263015	 0.1274395369	 0.112838
H	-0.9486585076	-2.3570458323	 1.1018367097	 0.076653
H	-1.1900485548	-2.7805406804	-1.6391263637	 0.286859
99.5844	131.4703	163.6183	203.0094	250.9757	299.1663	320.7107	353.5954	423.814	437.3852	459.2545	549.3418	603.041	720.6518	797.6907	855.7736	882.6449	923.5067	978.2654	982.2902	1014.7418	1042.9642	1066.1095	1088.0757	1115.1244	1140.8643	1169.8055	1208.7797	1222.9575	1244.8422	1262.3656	1284.6326	1310.3531	1338.214	1345.43	1349.7161	1381.2722	1402.3487	1417.6295	1426.8345	1456.218	1484.0071	1486.9143	1502.455	1524.3212	2964.482	2966.5205	2977.2533	3001.8402	3026.4423	3034.1136	3039.1746	3087.0916	3091.3396	3100.9282	3773.8678	3835.0201
OCC1CCOCC1O	OC[C@H]1CCOC[C@H]1O	
InChI=1S/C6H12O3/c7-3-5-1-2-9-4-6(5)8/h5-8H,1-4H2	InChI=1S/C6H12O3/c7-3-5-1-2-9-4-6(5)8/h5-8H,1-4H2/t5-,6-/m1/s1
