16
gdb 105980	4.63239	1.16124	1.15597	2.3326	67.62	-0.2198	0.0538	0.2736	1082.0637	0.123366	-437.745641	-437.738098	-437.737154	-437.777525	29.624	
O	-0.0282666956	 1.3783312215	 0.0560184233	-0.416089
C	 0.0483473494	-0.029604256	-0.0280577619	-0.200242
C	-1.3315646163	-0.6019776134	-0.1496023825	 0.357281
C	-1.9635694798	-2.0074639359	 0.0268961672	-0.254993
C	-3.0950925962	-1.3308071988	 0.7839355578	-0.106346
N	-2.4582048118	 0.0462437759	 0.6235889466	-0.231888
C	-2.530915058	-0.109064652	-0.8783374257	-0.204752
C	-3.2016023941	-1.5131546743	-0.7115774526	 0.378738
O	-4.0260307029	-2.2642111796	-1.4962413752	-0.446115
H	-0.7339253359	 1.5653752114	 0.6912459332	 0.297126
H	 0.6556957677	-0.2724405588	-0.9075043253	 0.115889
H	 0.5491652356	-0.4691111842	 0.8516798521	 0.093629
H	-1.564072419	-3.009054782	 0.0906816517	 0.10737
H	-3.6991350521	-1.6448068238	 1.6259739943	 0.106908
H	-2.6765325106	 0.7372823231	-1.5394506257	 0.10753
H	-4.9197990203	-1.905106633	-1.4399530871	 0.295955
102.1885	160.9526	215.166	310.4651	344.0137	387.4235	426.4713	493.7296	602.1815	666.9179	669.4119	766.2135	767.5591	817.7898	853.5059	901.6715	902.7561	928.5122	972.6065	1009.0462	1029.5595	1035.9892	1057.2143	1086.0951	1123.3151	1167.3406	1212.4182	1222.3163	1266.535	1304.3966	1370.621	1402.8545	1452.1615	1475.547	1508.1067	2957.9923	3059.2145	3183.6996	3191.4492	3228.3113	3742.3241	3775.5013
OCC12C3C4N1C2C34O	OC[C@@]12[C@H]3[C@H]4N1[C@@H]2[C@@]34O	
InChI=1S/C6H7NO2/c8-1-5-2-3-6(2,9)4(5)7(3)5/h2-4,8-9H,1H2	InChI=1S/C6H7NO2/c8-1-5-2-3-6(2,9)4(5)7(3)5/h2-4,8-9H,1H2/t2-,3-,4+,5+,6-,7?/m1/s1
