18
gdb 64796	2.45686	1.24449	0.98938	3.6457	76.81	-0.2811	-0.0857	0.1954	1238.919	0.145617	-401.960298	-401.95083	-401.949886	-401.995582	33.987	
C	 0.0614705095	 1.5749919507	 0.3097823422	-0.462911
C	-0.1426887849	 0.1389636252	-0.1366345252	 0.350951
C	-1.3766332028	-0.0851867926	-1.0127834804	-0.376364
C	-2.6607709519	 0.2182259046	-0.2720313934	 0.304863
O	-3.3573705333	 1.1846812782	-0.4522386323	-0.262426
C	-3.0433563779	-0.7738657985	 0.7628873001	 0.238491
N	-3.3558636205	-1.5590590224	 1.5524613068	-0.31301
C	 1.0806810529	-0.6875344455	-0.4583080331	-0.31312
C	 0.2874075736	-0.9760230757	 0.7918242897	-0.292947
H	 0.9670296097	 1.6670563206	 0.9160394198	 0.121858
H	 0.1643402869	 2.2448448382	-0.5516472612	 0.124541
H	-0.7785909909	 1.9389807085	 0.9113952836	 0.131241
H	-1.352559733	 0.5692430465	-1.8899070802	 0.133803
H	-1.40639804	-1.1276608082	-1.3501140276	 0.127263
H	 1.0238694636	-1.3984350934	-1.2758909915	 0.115791
H	 2.0484830479	-0.2089143725	-0.3547177942	 0.119226
H	 0.714660239	-0.6956077747	 1.7482065627	 0.121991
H	-0.3034957177	-1.8842261492	 0.8254049942	 0.130759
28.4268	80.6889	127.8565	178.7764	220.9504	277.165	314.113	323.326	362.2934	414.186	452.5341	608.1005	640.9671	734.6488	784.5922	787.7685	873.2552	927.4861	934.337	956.9755	973.9584	1045.9594	1068.8684	1087.4957	1107.0472	1139.0614	1187.7733	1227.7893	1298.5968	1314.6229	1363.7978	1428.6238	1461.5823	1473.7287	1493.6685	1498.507	1509.9732	1795.2859	2334.3989	3029.2657	3038.435	3089.9517	3098.3835	3110.031	3131.9607	3141.4741	3211.9259	3227.6509
CC1(CC(=O)C#N)CC1	CC1(CC(=O)C#N)CC1	
InChI=1S/C7H9NO/c1-7(2-3-7)4-6(9)5-8/h2-4H2,1H3	InChI=1S/C7H9NO/c1-7(2-3-7)4-6(9)5-8/h2-4H2,1H3
