17
gdb 127298	3.18608	1.43671	0.99681	3.2185	85.95	-0.1816	-0.0096	0.172	1158.6456	0.138233	-414.20932	-414.200944	-414.2	-414.24229	31.849	
C	 0.0630586685	 1.4383165265	 0.0380789294	-0.311039
N	-0.0087573655	-0.0097814908	 0.0176412002	 0.002051
C	-1.1667806359	-0.6937723727	-0.0667120077	 0.037428
C	-1.1979397209	-2.0577425811	-0.0885020441	-0.259925
C	 0.0252876337	-2.8005574366	-0.0187363529	 0.246397
N	 0.2339082536	-4.0785211687	-0.0505563514	-0.588247
C	 1.2207587632	-1.9290220682	 0.0967884987	 0.397473
N	 2.4008976112	-2.5845271472	 0.2232787638	-0.544232
N	 1.2076038025	-0.6226725158	 0.0975486692	-0.352294
H	 0.6630087574	 1.7984960387	-0.8032768622	 0.144334
H	-0.9444531413	 1.850463651	-0.0344241204	 0.13304
H	 0.5289129321	 1.7814181344	 0.9670151606	 0.14526
H	-2.0640369993	-0.0883530848	-0.1191932819	 0.123782
H	-2.1474232777	-2.5734482598	-0.1651779759	 0.0949
H	-0.6465324369	-4.5866465652	-0.1410719988	 0.201502
H	 2.3510675157	-3.5740704539	 0.0259055015	 0.275708
H	 3.2575844495	-2.0780552758	 0.0824215521	 0.253862
69.4574	122.2591	182.6435	302.6578	315.348	332.4032	368.5734	460.2789	470.2955	522.6841	533.3642	578.4957	605.2296	719.9569	749.6704	804.6006	815.1091	852.2896	923.9149	969.3079	1044.7823	1122.4714	1143.1839	1153.237	1192.003	1277.2613	1343.1952	1377.3058	1431.5925	1463.4477	1468.335	1491.9262	1525.3809	1575.553	1620.4384	1650.8475	1665.4263	3039.2417	3099.1324	3143.8374	3192.3569	3209.5214	3461.2322	3566.0468	3720.8248
CN1C=CC(=N)C(N)=N1	CN1CC=C([NH])C(=N1)N	
InChI=1S/C5H8N4/c1-9-3-2-4(6)5(7)8-9/h2-3,6H,1H3,(H2,7,8)	InChI=1S/C5H9N4/c1-9-3-2-4(6)5(7)8-9/h2,6H,3H2,1H3,(H2,7,8)
