19
gdb 47545	2.69584	1.5072	1.05609	4.4438	75.41	-0.2545	0.013	0.2674	1136.2704	0.161253	-423.049036	-423.041152	-423.040208	-423.081815	30.453	
O	-0.0239606332	-0.0479195821	 0.5278739856	-0.307549
C	-0.057870057	 1.0616515237	 0.067797226	 0.393072
C	-1.3555004507	 1.8602572618	-0.0289093493	-0.346702
C	-1.7272308378	 2.3308106126	-1.4222999013	-0.012177
C	-2.2676203814	 3.7276705128	-1.6247747123	-0.322869
C	-0.8682380458	 3.3867686831	-2.0678879288	 0.006724
C	 0.3581494278	 3.8488631587	-1.3070148797	-0.25968
C	 1.3910950872	 2.7310903589	-1.1722050747	-0.040717
O	 1.1231693351	 1.6477389089	-0.2644924513	-0.238251
H	-2.132607059	 1.2138203858	 0.3838646578	 0.132711
H	-1.2620673843	 2.7182797469	 0.6457141929	 0.120756
H	-2.1217258629	 1.5532922539	-2.0692126167	 0.098154
H	-3.0239047959	 3.8834462641	-2.3859647984	 0.117901
H	-2.3873878659	 4.3532554472	-0.7453745019	 0.11396
H	-0.7132904939	 3.2888793646	-3.1391503663	 0.090346
H	 0.8462537314	 4.6741393425	-1.8404127053	 0.109676
H	 0.0986983214	 4.2423454906	-0.3188950174	 0.110887
H	 1.5773122207	 2.2888120535	-2.159888117	 0.113623
H	 2.3393822941	 3.1391180624	-0.8108969319	 0.120136
72.6109	99.4729	223.9535	282.8673	314.9507	348.8833	430.8784	490.2479	539.6854	583.8328	665.4825	758.1144	810.0498	831.1131	867.8606	908.602	915.4143	945.6894	992.2981	1045.6913	1053.547	1072.0023	1091.4122	1122.1951	1142.0484	1165.5845	1201.0477	1231.7571	1247.37	1278.7057	1301.5584	1318.1706	1353.2043	1393.0752	1430.4264	1438.1859	1468.7342	1488.0477	1499.434	1507.8547	1827.8591	3020.19	3033.9688	3051.7649	3078.7709	3088.0283	3113.2869	3127.3973	3138.4012	3155.7758	3214.1933
O=C1CC2CC2CCO1	O=C1C[C@H]2C[C@H]2CCO1	
InChI=1S/C7H10O2/c8-7-4-6-3-5(6)1-2-9-7/h5-6H,1-4H2	InChI=1S/C7H10O2/c8-7-4-6-3-5(6)1-2-9-7/h5-6H,1-4H2/t5-,6-/m1/s1
