17
gdb 82357	2.34336	1.72243	1.372	2.1176	72.43	-0.2454	0.0447	0.2901	995.8714	0.135511	-421.779096	-421.771037	-421.770093	-421.811515	31.33	
O	-0.010025714	 1.4020847072	 0.0652440394	-0.430823
C	-0.0096664852	 0.0023993625	-0.0317862984	 0.116356
C	-1.3805356373	-0.6523178847	-0.0016784528	 0.011447
O	-2.0731480133	-0.5733300245	-1.2566504799	-0.253671
C	-1.4010589057	-1.792994089	-0.9191022945	 0.054827
C	-0.0484408563	-1.9418444489	-1.5883823037	-0.261292
C	 0.6548865272	-0.5716883571	-1.3453671635	-0.234286
C	 0.5033281782	 0.353082994	-2.4611967148	 0.356932
C	 0.3970498447	 1.1404904594	-3.3644366551	-0.493737
H	-0.3394875769	 1.745015734	-0.77647985	 0.289876
H	 0.5598415009	-0.3570023682	 0.8339161434	 0.093165
H	-2.0020887946	-0.5779885963	 0.8867887148	 0.101311
H	-2.0442595119	-2.6567141814	-0.7709014595	 0.097942
H	 0.5095173731	-2.7479534469	-1.0983467197	 0.108958
H	-0.1222666832	-2.1837813704	-2.6513620075	 0.127038
H	 1.7251628942	-0.7174455755	-1.1713520855	 0.114253
H	 0.2988824003	 1.8183297657	-4.1761083327	 0.201706
93.666	143.8407	176.953	258.6449	349.5819	366.733	389.8374	470.1111	531.8336	564.4641	608.686	654.6844	674.8828	754.1758	802.7764	843.4078	876.3217	894.8653	925.5526	986.5106	1032.6107	1064.0902	1082.302	1118.5641	1124.2503	1191.7042	1214.3558	1261.6851	1271.6003	1316.575	1331.6173	1339.7355	1350.8461	1438.9534	1446.0436	1482.6982	2229.5401	3039.9478	3046.0011	3065.6593	3105.39	3144.6563	3158.0534	3502.2511	3755.9103
OC1C2OC2CC1C#C	O[C@H]1[C@H]2O[C@H]2C[C@H]1C#C	
InChI=1S/C7H8O2/c1-2-4-3-5-7(9-5)6(4)8/h1,4-8H,3H2	InChI=1S/C7H8O2/c1-2-4-3-5-7(9-5)6(4)8/h1,4-8H,3H2/t4-,5+,6-,7+/m1/s1
