13
gdb 42500	6.46953	0.62977	0.57806	3.9839	66.03	-0.3151	-0.1026	0.2125	1731.5305	0.08625	-452.744311	-452.73503	-452.734086	-452.780173	30.108	
O	-0.07608383	-0.0938703961	 0.0006007206	-0.224247
C	 0.0008094045	 1.1020004573	 0.0055027454	 0.287129
C	 1.28865207	 1.906350038	-0.0019068497	-0.16365
O	 2.3772523018	 1.0335465094	-0.0156383832	-0.220214
C	 3.6154860598	 1.7114237945	-0.023161896	-0.189274
C	 4.6992140534	 0.726772351	-0.0375565827	 0.27453
N	 5.5801828061	-0.0185704976	-0.0489877147	-0.278705
C	-1.2074048205	 1.9565429846	 0.0198228105	 0.210019
N	-2.1389438765	 2.6411125835	 0.030687189	-0.284752
H	 1.2682994202	 2.5732101379	-0.8832579479	 0.143085
H	 1.2837399798	 2.5646167535	 0.8861165685	 0.14308
H	 3.7136544178	 2.3589658415	-0.9090954254	 0.151499
H	 3.7292574537	 2.3501754225	 0.8672752355	 0.151501
37.2795	80.7673	84.2848	122.0505	150.0109	251.2841	275.7696	335.7215	383.2071	440.0391	581.3496	582.1386	610.0248	838.1578	968.2244	1003.7531	1030.701	1041.3373	1096.9687	1192.4212	1246.2856	1262.0821	1380.0009	1432.4705	1474.976	1503.5108	1827.0871	2340.7802	2378.6599	2946.3588	2971.5117	2980.329	3009.8961
O=C(COCC#N)C#N	O=C(COCC#N)C#N	
InChI=1S/C5H4N2O2/c6-1-2-9-4-5(8)3-7/h2,4H2	InChI=1S/C5H4N2O2/c6-1-2-9-4-5(8)3-7/h2,4H2
