21
gdb 114139	4.54032	0.89304	0.81814	0.9567	91.49	-0.2282	0.0419	0.2702	1473.509	0.181344	-349.90227	-349.892988	-349.892044	-349.936139	35.776	
C	 0.0174552008	 1.5492186358	-0.0284918456	-0.378525
C	 0.0211662993	 0.0303917299	 0.1738205139	-0.196029
C	-1.3612572303	-0.5935674062	 0.0000880477	 0.044606
C	-2.0196125295	-0.6294560344	-1.4235316653	-0.318585
C	-2.2181672017	-2.1526243854	-1.2850190931	 0.223671
C	-0.8715624772	-2.8100318712	-1.0797548986	-0.321712
C	-1.5040932492	-2.1197467718	 0.0895363879	-0.132055
C	-3.3787601955	-2.8684557827	-1.6886637952	 0.15245
C	-4.3734504704	-3.4519186108	-2.0361509913	-0.40853
H	 1.0188085309	 1.9710069659	 0.1012093446	 0.112733
H	-0.3274880752	 1.8154844058	-1.0335778462	 0.118992
H	-0.6475541139	 2.0422992104	 0.6893565606	 0.11408
H	 0.727593096	-0.43101052	-0.5273689045	 0.094055
H	 0.3928099322	-0.2064423571	 1.1795599813	 0.096085
H	-2.0568009352	-0.1190946673	 0.7008164817	 0.076321
H	-2.9598072494	-0.0788610233	-1.4743361342	 0.114702
H	-1.3860383095	-0.324876433	-2.2635447084	 0.096432
H	-0.8964555191	-3.8936520888	-1.0440774062	 0.125264
H	 0.0045855889	-2.3982990332	-1.5749631544	 0.109783
H	-1.7784199079	-2.6694713186	 0.9821797784	 0.095568
H	-5.2466607941	-3.9717356339	-2.342467293	 0.180697
89.8402	104.5218	126.5189	205.2897	209.4267	258.9062	354.0249	411.2788	434.6417	513.0207	538.3938	560.3331	589.175	641.0521	693.8982	778.1583	807.2698	839.6998	891.7775	930.0411	948.9922	965.8378	987.8942	1029.9454	1036.5923	1083.9293	1093.0397	1096.7148	1135.9299	1187.6137	1204.312	1241.1615	1271.5774	1290.4683	1293.9818	1343.7277	1376.7966	1400.6424	1413.2322	1480.4628	1483.8834	1498.1416	1500.3727	1506.7436	2228.989	3018.3806	3030.408	3038.0807	3045.2342	3056.1562	3097.0857	3103.4352	3113.4072	3122.2768	3182.0275	3210.8836	3505.1008
CCC1CC2(CC12)C#C	CC[C@H]1C[C@]2(C[C@@H]12)C#C	
InChI=1S/C9H12/c1-3-7-5-9(4-2)6-8(7)9/h2,7-8H,3,5-6H2,1H3	InChI=1S/C9H12/c1-3-7-5-9(4-2)6-8(7)9/h2,7-8H,3,5-6H2,1H3/t7-,8-,9-/m0/s1
