18
gdb 115699	2.56059	1.29861	0.94358	16.6056	74.29	-0.1594	-0.0414	0.1181	1229.3656	0.147325	-476.140628	-476.131441	-476.130497	-476.175809	32.777	
N	 0.1232721348	 0.8999794518	 0.0143032542	-0.444199
H	 0.6040623721	-0.0016582386	 0.0116217401	 0.31905
H	 0.8302961591	 1.6359479177	 0.0847504725	 0.319641
H	-0.3747782997	 1.0075266414	-0.8700840221	 0.326685
C	-0.8692452722	 1.0048196047	 1.2428127694	-0.204515
C	-0.0222129335	 0.8647039437	 2.4929268445	-0.06973
C	 1.0106295001	 1.9855319114	 2.7598191942	-0.087456
O	 0.263605204	 2.5133668139	 3.8437560177	-0.260291
C	-0.6954423813	 1.4018703101	 3.7859629467	 0.000396
C	-2.1945503343	 1.8289639791	 3.6956170116	 0.340378
O	-2.5646997791	 2.627668175	 4.5523859525	-0.438699
O	-2.8089797066	 1.2665774004	 2.7455306038	-0.496725
H	-1.352109779	 1.9713429765	 1.1345184255	 0.190671
H	-1.602416794	 0.21838996	 1.1017081696	 0.186868
H	 0.3748809359	-0.1549646022	 2.5582173356	 0.071427
H	 2.0039471763	 1.6194368703	 3.0601156285	 0.097532
H	 1.1601191315	 2.7330484205	 1.954841369	 0.059603
H	-0.5462358243	 0.7387377942	 4.6472038267	 0.089366
35.3453	61.8279	142.7404	202.7434	213.1082	230.4006	277.2718	351.293	391.1124	502.5575	581.1931	660.0802	746.7306	790.2065	809.436	849.2659	863.7208	920.8222	940.4136	975.2002	1019.4062	1057.8805	1109.1913	1143.2105	1183.1875	1218.7074	1226.1596	1262.7019	1279.1558	1299.5291	1351.4901	1357.7574	1381.0483	1410.8908	1445.6014	1514.2508	1646.9939	1657.4684	1773.0222	2891.1312	2989.1627	3022.7974	3041.1785	3162.4087	3238.1376	3405.3751	3505.2589	3529.509
[NH3+]CC1COC1C([O-])=O	[NH3]C[C@H]1CO[C@H]1C(=O)[O]	
InChI=1S/C5H9NO3/c6-1-3-2-9-4(3)5(7)8/h3-4H,1-2,6H2,(H,7,8)	InChI=1S/C5H9NO3/c6-1-3-2-9-4(3)5(7)8/h3-4H,1-2H2,6H3/t3-,4+/m0/s1
