17
gdb 57020	2.41237	1.38361	0.92446	1.2558	75.08	-0.255	-0.0355	0.2195	1236.3812	0.132626	-421.78632	-421.777054	-421.776109	-421.820882	33.393	
C	-0.0498973649	 1.4633203083	-0.148279339	-0.397622
C	 0.0092653692	-0.0628304197	 0.0624469232	-0.182527
C	 0.8050799424	-0.4248802132	 1.2312897666	 0.334209
C	 1.4409184873	-0.7045922889	 2.2117601209	-0.460678
C	-1.4127647715	-0.6375238719	 0.2014125756	 0.011593
O	-2.2363767893	-0.37923419	-0.9613562368	-0.290058
C	-2.4773039692	-1.7751001896	-1.2371835055	-0.193065
C	-1.6014720147	-2.1476525694	-0.0334877548	 0.339946
O	-1.2255172133	-3.1546515415	 0.4785631966	-0.261208
H	 0.9537435929	 1.8632303325	-0.3114586955	 0.129008
H	-0.6717614986	 1.6922208722	-1.0167302357	 0.140418
H	-0.4756909393	 1.9563733179	 0.7305807722	 0.127983
H	 0.4610286342	-0.5165959649	-0.8300686513	 0.110669
H	 2.009708116	-0.9681309696	 3.0690001114	 0.201556
H	-1.8807251489	-0.2656265696	 1.1229782975	 0.116667
H	-3.5345584808	-2.0533823185	-1.1439112593	 0.13648
H	-2.1023173415	-2.0915258441	-2.2183338161	 0.13663
57.9082	92.6856	121.8955	181.2883	211.1099	237.81	286.8415	366.1916	451.3275	500.7278	518.2347	571.1259	639.8846	654.8301	715.8045	796.6652	865.1905	929.517	963.862	1006.3581	1030.	1067.2383	1087.1656	1092.488	1135.6283	1149.6119	1245.7508	1267.0625	1298.6832	1328.2665	1358.7381	1402.1753	1482.0888	1493.9806	1497.1933	1928.1041	2238.862	3011.1998	3020.4371	3029.5034	3048.4471	3069.2825	3123.8111	3136.7588	3504.3415
CC(C#C)C1OCC1=O	C[C@@H](C#C)[C@H]1OCC1=O	
InChI=1S/C7H8O2/c1-3-5(2)7-6(8)4-9-7/h1,5,7H,4H2,2H3	InChI=1S/C7H8O2/c1-3-5(2)7-6(8)4-9-7/h1,5,7H,4H2,2H3/t5-,7+/m0/s1
