18
gdb 97227	3.19082	1.36357	1.04121	3.2917	75.98	-0.2506	0.0028	0.2533	1164.9267	0.148276	-439.074569	-439.066356	-439.065412	-439.10777	30.434	
C	-0.1414057642	 1.4061952927	 0.0261451403	-0.329729
N	-0.0721421252	-0.0439047764	 0.0731580105	-0.303082
C	 0.6123767086	-0.6141796587	 0.9688314676	 0.416932
O	 1.2753205705	 0.0564822648	 1.9613755232	-0.26079
C	 2.5219382864	-0.5111928898	 2.3880632568	-0.091625
C	 2.3666955742	-1.9241500777	 2.9457920566	-0.240863
C	 1.5246198705	-2.7777210327	 2.0124183663	 0.034606
O	 0.1182211226	-2.6893123374	 2.2184593493	-0.240558
C	 0.6607419965	-2.1049326323	 1.0222145301	-0.050062
H	 0.6425786543	 1.9117360824	 0.6002118326	 0.1197
H	-0.0939699624	 1.7260094404	-1.0196468359	 0.123121
H	-1.1142885878	 1.7315328677	 0.4144559764	 0.132886
H	 3.2194856349	-0.5141828165	 1.5392634716	 0.109552
H	 2.9089090089	 0.1786299768	 3.1412821522	 0.122527
H	 3.3605917979	-2.3641427689	 3.0790470289	 0.109257
H	 1.8798421892	-1.8990705023	 3.9258552727	 0.13236
H	 1.8816573317	-3.7824564722	 1.7891449952	 0.100233
H	 0.3712909932	-2.5932298998	 0.0964490455	 0.115537
72.9193	104.6034	168.3528	209.0564	265.2557	342.8893	385.0012	436.7857	476.4065	555.2449	702.9575	743.9158	778.3707	811.5424	881.3931	899.4039	953.0594	992.6974	1040.2252	1059.2227	1086.2462	1110.4684	1128.3825	1142.6452	1166.1256	1241.3602	1252.4716	1271.309	1297.5652	1363.9775	1372.8542	1415.7003	1434.3051	1450.7482	1468.5401	1489.7284	1495.6169	1508.2323	1767.3416	3013.0261	3019.7364	3049.2591	3078.6419	3093.7581	3097.1101	3108.4621	3116.9428	3165.9902
CN=C1OCCC2OC12	CN=C1OCC[C@H]2O[C@@H]12	
InChI=1S/C6H9NO2/c1-7-6-5-4(9-5)2-3-8-6/h4-5H,2-3H2,1H3	InChI=1S/C6H9NO2/c1-7-6-5-4(9-5)2-3-8-6/h4-5H,2-3H2,1H3/t4-,5-/m1/s1
