19
gdb 30782	3.25229	1.2532	0.92029	2.8556	80.65	-0.1831	0.0365	0.2196	1286.5385	0.158955	-419.244295	-419.234554	-419.23361	-419.279316	33.975	
C	-0.0657612143	 1.4259728517	-0.0212597232	-0.232295
O	-0.0057811119	 0.0063479691	 0.0004889757	-0.278799
C	-1.1980078146	-0.6315507452	 0.0057721705	 0.312682
C	-1.3470828367	-2.0005253494	 0.0259990072	 0.155279
C	-0.3474884154	-3.10298186	 0.046492218	-0.512357
N	-2.7262477002	-2.183943646	 0.0233346422	-0.039061
C	-3.420626754	-3.4521382261	 0.0414876315	-0.338144
C	-3.2966772977	-0.9520378605	 0.0028060022	-0.016438
N	-2.3985597143	 0.0145895269	-0.0087091159	-0.369522
H	 0.9706140175	 1.7689925977	-0.0226985728	 0.118589
H	-0.5816846982	 1.7902168737	-0.9162032615	 0.126903
H	-0.5881163185	 1.8171380564	 0.8584660992	 0.126883
H	-0.4297703691	-3.7364295586	 0.9395305311	 0.122111
H	-0.4221522329	-3.7623880404	-0.8282511877	 0.12214
H	 0.6530710534	-2.6648910287	 0.0443339897	 0.151818
H	-3.1765585306	-4.0236906229	 0.9430072947	 0.142035
H	-4.4962464357	-3.2660382369	 0.0284865572	 0.143574
H	-3.1610395249	-4.0570746681	-0.8334490779	 0.142112
H	-4.368351142	-0.8188531826	-0.0032942101	 0.122491
57.6746	111.0203	135.9143	144.6599	178.2633	197.7246	238.5497	247.4643	352.5795	354.3722	536.0135	601.2841	634.9089	727.5457	743.7823	762.9363	763.6694	952.6965	1054.9197	1064.2221	1082.3806	1151.6794	1165.2989	1181.4517	1194.344	1225.1811	1265.3712	1337.6941	1411.9222	1415.2561	1443.1517	1457.2892	1476.5351	1478.5515	1482.9994	1488.2989	1497.3543	1505.5383	1525.1038	1540.056	1651.6962	3006.8795	3026.857	3034.9172	3046.5801	3090.0845	3091.8583	3126.0254	3132.9932	3134.8411	3244.8385
COC1=C(C)N(C)C=N1	COc1c(C)n(C)cn1	
InChI=1S/C6H10N2O/c1-5-6(9-3)7-4-8(5)2/h4H,1-3H3	InChI=1S/C6H10N2O/c1-5-6(9-3)7-4-8(5)2/h4H,1-3H3
