20
gdb 37421	2.83978	2.0402	1.68909	1.5383	79.71	-0.2176	0.0746	0.2922	893.9901	0.175113	-365.958803	-365.952582	-365.951637	-365.988893	27.615	
C	 0.0660698221	 1.4799868292	-0.1850887554	-0.25243
C	 1.2988510141	 0.6666971844	-0.039736573	-0.024849
C	 1.9618872354	 0.4869471594	 1.3212696824	-0.038712
C	 1.6179602526	 1.466898396	 2.4943672407	-0.253434
C	 0.6530414478	 0.4257069179	 3.1168952709	-0.018383
C	-0.7675949889	 0.3836176848	 2.5003500124	-0.253341
C	-0.254360968	-0.5213300291	 1.3283729925	 0.005115
C	 1.1251451216	-0.6173956616	 2.0443835926	-0.037458
N	-0.0368443105	 0.0225149776	-0.0324570207	-0.106182
H	-0.2290464762	 2.1278913341	 0.6331088353	 0.111647
H	-0.2294293672	 1.8489223568	-1.1647011375	 0.11033
H	 1.9101394203	 0.4688765782	-0.9172893658	 0.084216
H	 3.0306427523	 0.2976437459	 1.212021982	 0.069911
H	 2.4913491757	 1.6303462254	 3.1310820999	 0.102087
H	 1.2064014702	 2.4460277543	 2.2326411304	 0.096214
H	 0.7263912476	 0.2715449748	 4.193598182	 0.063476
H	-1.4601661999	-0.1786708513	 3.1323131677	 0.102486
H	-1.2449460646	 1.3350813522	 2.2501212325	 0.09791
H	-0.817953695	-1.450288309	 1.2250189527	 0.080422
H	 1.5649579105	-1.5908269399	 2.2597068283	 0.060976
230.326	255.528	397.3795	408.6702	497.0998	587.8605	627.9371	679.6347	707.0304	741.4093	802.141	819.8744	862.7805	867.2706	889.5127	929.4735	938.4076	952.9074	982.3406	996.1799	1048.9264	1052.6161	1086.225	1093.4074	1114.8764	1127.441	1133.264	1154.6045	1172.9039	1174.2748	1217.9955	1247.5712	1251.9307	1271.7837	1279.5955	1291.8906	1306.1309	1333.0512	1341.2654	1386.1669	1475.853	1482.3707	1514.826	3052.5181	3054.1736	3080.2425	3087.497	3096.2017	3102.4163	3105.7952	3109.7837	3117.8958	3129.2189	3197.0884
C1C2C3CC4CC(C34)N12	C1[C@H]2[C@H]3C[C@H]4C[C@H]([C@@H]34)N12	
InChI=1S/C8H11N/c1-4-2-6-8(4)5(1)7-3-9(6)7/h4-8H,1-3H2	InChI=1S/C8H11N/c1-4-2-6-8(4)5(1)7-3-9(6)7/h4-8H,1-3H2/t4-,5+,6+,7-,8+,9?/m0/s1
