17
gdb 125294	2.91418	1.31421	1.03679	2.4348	80.22	-0.2321	0.019	0.2511	1171.0024	0.135905	-380.858688	-380.849982	-380.849038	-380.892615	31.783	
C	 0.1778316751	 1.4703997178	 0.1407386959	-0.511108
C	 0.0587060302	-0.0095781747	-0.0197800267	 0.369956
C	-0.0224364888	-0.8002663093	-1.1500637938	-0.303761
C	-0.1194938578	-2.1210223545	-0.668095765	-0.001068
N	-0.1005965135	-2.1650733422	 0.6590403191	-0.267831
N	 0.0042146202	-0.8697038867	 1.0376373381	-0.003792
C	 0.0798618738	-0.5578223438	 2.4555291457	-0.305212
C	 1.4070793518	-0.127842103	 2.8953974741	 0.323704
C	 2.4899456713	 0.2392524212	 3.2629867734	-0.456142
H	 1.0748824945	 1.746039846	 0.7052322075	 0.150177
H	 0.2320328057	 1.9453920867	-0.8408178918	 0.138668
H	-0.6844510757	 1.8963353512	 0.6683505685	 0.132866
H	-0.0152446197	-0.4600217968	-2.1733612716	 0.099476
H	-0.20689813	-3.0392423147	-1.2304961236	 0.110072
H	-0.6587683685	 0.2154341042	 2.6992221168	 0.146546
H	-0.2174565976	-1.4722055815	 2.9749543963	 0.169902
H	 3.4519072089	 0.5497994101	 3.589196807	 0.207547
51.0799	97.1227	128.7907	224.5241	254.0778	270.5753	323.7184	413.6967	470.0066	624.2939	643.4124	665.7059	671.755	676.0277	781.7034	793.3928	886.6725	938.1945	951.9374	961.9975	1001.9851	1063.6018	1065.2542	1141.5784	1225.2859	1240.1427	1331.6872	1367.6807	1374.3923	1416.1962	1426.4486	1460.6316	1481.9235	1486.108	1516.8251	1590.2064	2242.8798	3028.5646	3035.7491	3082.9695	3106.3976	3130.754	3241.2677	3264.5272	3503.5632
CC1=CC=NN1CC#C	Cc1ccnn1CC#C	
InChI=1S/C7H8N2/c1-3-6-9-7(2)4-5-8-9/h1,4-5H,6H2,2H3	InChI=1S/C7H8N2/c1-3-6-9-7(2)4-5-8-9/h1,4-5H,6H2,2H3
