14
gdb 123560	3.94706	1.66027	1.27531	4.6449	67.68	-0.2353	-0.0447	0.1906	920.8601	0.102226	-432.804222	-432.797696	-432.796752	-432.835071	25.2	
C	 0.02908374	 1.4639018879	-0.0065805052	-0.245214
C	 1.2733745649	 0.6565706102	 0.0422790904	-0.02314
C	 1.9698478828	 0.3796749884	 1.4007263347	-0.381734
C	 0.8710570863	-0.3675347992	 2.093586686	 0.371218
C	-0.1927690729	-0.5421994433	 1.2660561558	 0.261783
N	-1.1428703469	-1.2323124997	 1.9508159957	-0.174417
N	-0.7770658842	-1.495010786	 3.1090270916	-0.040709
O	 0.6617826578	-0.8967071311	 3.2643425614	-0.260477
N	-0.0721859466	-0.0181744325	-0.0424466743	-0.181308
H	-0.3055901434	 1.9612935315	 0.9001796307	 0.130321
H	-0.2467622806	 1.9561404253	-0.9338654575	 0.133795
H	 1.8811779053	 0.5784557022	-0.8521386702	 0.115982
H	 2.8658067933	-0.2364161024	 1.2678344694	 0.146797
H	 2.2747408441	 1.2924873386	 1.9227452818	 0.147102
168.0744	187.7777	224.7035	346.7998	446.3227	471.4418	603.988	647.9847	693.9561	731.537	751.7369	780.9425	829.5097	908.6296	957.4941	967.8016	1054.9562	1090.8064	1119.0102	1128.7205	1168.4605	1181.7366	1245.8295	1280.898	1362.7815	1368.8642	1468.9662	1477.1981	1486.7429	1498.8211	1591.4674	3047.3763	3083.199	3113.647	3175.8554	3207.9749
C1C2CC3=C(N=NO3)N12	C1[C@H]2Cc3c(nno3)N12	
InChI=1S/C5H5N3O/c1-3-2-8(3)5-4(1)9-7-6-5/h3H,1-2H2	InChI=1S/C5H5N3O/c1-3-2-8(3)5-4(1)9-7-6-5/h3H,1-2H2/t3-,8?/m1/s1
