13
gdb 130254	3.29419	1.42865	0.99765	4.5154	65.6	-0.2402	-0.0652	0.175	1080.3776	0.090026	-489.901101	-489.893754	-489.89281	-489.932794	28.213	
N	 0.0733895721	 1.4154323262	 0.1183909245	-0.558648
C	 0.0352849986	 0.0408626428	-0.0398227823	 0.424108
N	-1.1506029754	-0.4917958395	-0.1310863707	-0.197353
O	-1.1914596211	-1.8762834399	-0.4092346591	-0.245935
C	-0.099620426	-2.6475911449	-0.5100746617	 0.407517
O	-0.1802670099	-3.8404352384	-0.7260513373	-0.382559
C	 1.2137692889	-1.9981729801	-0.3590144514	 0.269519
O	 2.2513823297	-2.8221264505	-0.4750167515	-0.40134
C	 1.282228127	-0.6711012508	-0.1399449556	-0.290048
H	 0.8103238005	 1.760537289	 0.7158643607	 0.260557
H	-0.8294371076	 1.8183091683	 0.3313346699	 0.267212
H	 1.8560417558	-3.7005590185	-0.6425230512	 0.319075
H	 2.2266114074	-0.1469429435	-0.0558477145	 0.127894
125.0764	188.9553	299.181	323.4507	354.2674	380.2943	429.2284	480.7951	508.2766	613.0119	619.6253	682.7047	699.9836	711.6525	791.2825	824.757	882.1025	957.587	1033.7537	1158.812	1208.8013	1244.2704	1283.7237	1441.2424	1491.9159	1594.9126	1643.7372	1740.382	1778.8891	3203.7953	3559.1002	3594.8761	3666.4913
NC1=NOC(=O)C(O)=C1	Nc1noc(=O)c(O)c1	
InChI=1S/C4H4N2O3/c5-3-1-2(7)4(8)9-6-3/h1,7H,(H2,5,6)	InChI=1S/C4H4N2O3/c5-3-1-2(7)4(8)9-6-3/h1,7H,(H2,5,6)
