19
gdb 26402	4.20156	0.96025	0.9049	0.9625	78.52	-0.2176	0.0019	0.2195	1362.9732	0.159591	-419.222662	-419.213765	-419.212821	-419.2576	32.045	
C	-0.071697837	 1.4296103921	-0.1080077673	-0.313307
N	-0.0038830726	-0.0181311039	 0.0066538524	-0.055618
C	 0.8691864602	-0.4278952641	 1.0976910867	-0.320898
C	-1.3356995431	-0.6098601274	 0.111873463	-0.25469
C	-1.3276327643	-2.085890142	-0.1157716061	 0.382946
N	-1.5755536781	-3.0329880045	 0.7356954542	-0.297213
C	-1.4433041604	-4.2066239762	 0.0038906976	-0.11675
C	-1.1169614497	-3.8951256682	-1.2712517564	-0.039605
O	-1.0404964999	-2.5358505871	-1.3651769296	-0.16035
H	 0.9360553764	 1.8319362037	-0.2498927077	 0.12031
H	-0.673809532	 1.7081064296	-0.9786854834	 0.1183
H	-0.5089022527	 1.920888765	 0.7829964882	 0.092604
H	 0.53093574	-0.0542027879	 2.0832038883	 0.094076
H	 0.9162624154	-1.518307999	 1.1531387578	 0.134589
H	 1.8798092324	-0.0486488396	 0.9184425641	 0.117801
H	-1.80973913	-0.4384187269	 1.0945722323	 0.110498
H	-1.9706665658	-0.1414239137	-0.6485635174	 0.119586
H	-1.592139933	-5.1767944323	 0.4502551298	 0.123424
H	-0.9183339958	-4.4531114875	-2.1699264866	 0.144298
26.8082	73.9536	112.2744	239.5992	249.166	298.131	329.1608	361.5975	376.0532	463.9314	633.9644	699.3505	768.536	802.7475	859.2089	864.1756	933.8273	937.5377	997.093	1050.7651	1068.7249	1112.7124	1121.7256	1135.6785	1164.7752	1177.0449	1204.0494	1256.1839	1301.1006	1310.8975	1376.6003	1408.9396	1444.1727	1468.0174	1479.3678	1482.7275	1497.7186	1500.0085	1512.6456	1552.8381	1615.742	2918.9403	2929.4114	2955.6961	3059.0854	3061.177	3070.7078	3104.5082	3119.805	3264.1959	3299.3245
CN(C)CC1=NC=CO1	CN(C)Cc1ncco1	
InChI=1S/C6H10N2O/c1-8(2)5-6-7-3-4-9-6/h3-4H,5H2,1-2H3	InChI=1S/C6H10N2O/c1-8(2)5-6-7-3-4-9-6/h3-4H,5H2,1-2H3
