19
gdb 67973	3.07684	1.6253	1.23238	3.2471	79.59	-0.2303	-0.009	0.2213	1037.4928	0.160437	-385.879459	-385.872145	-385.871201	-385.910881	29.931	
C	 0.0150408214	 1.5190041795	-0.0464319602	-0.496493
C	 0.0385863166	 0.0052692003	-0.0074402448	 0.351792
C	 0.4744419299	-0.700652618	-1.2951611693	-0.412783
C	 0.3603999839	-2.1593733473	-0.8363401768	 0.409799
O	 0.5866643698	-3.1648336158	-1.4589186515	-0.330816
C	-0.106405839	-2.0154904814	 0.5870845233	-0.125746
C	 0.6465954148	-0.7857595976	 1.2138047782	-0.090692
C	-0.6192665144	-0.4807272767	 2.0501418767	-0.254792
C	-1.1364377808	-0.828505643	 0.6336301632	-0.090707
H	 1.0105580809	 1.9122506949	-0.2813104135	 0.121404
H	-0.6659912367	 1.8720415778	-0.8290025492	 0.121395
H	-0.304224872	 1.966557666	 0.897970755	 0.120959
H	-0.1827744564	-0.50054693	-2.148958081	 0.121807
H	 1.4985825827	-0.4600695543	-1.6020788207	 0.121781
H	-0.2774017125	-2.9133460666	 1.1786517143	 0.082592
H	 1.6890107874	-0.7814822553	 1.5404048826	 0.077346
H	-0.8587038579	-1.1981476871	 2.8388200733	 0.098256
H	-0.7597103794	 0.5415279085	 2.4065124993	 0.097547
H	-2.1705549985	-0.8740376839	 0.2845727709	 0.077354
126.4029	199.8325	257.8555	304.044	353.9708	380.717	518.7206	579.1115	604.6813	612.3125	691.0518	716.6982	812.7833	856.6966	868.442	907.5313	916.8435	940.0439	964.7429	1013.8397	1047.4767	1050.4064	1077.9511	1090.8872	1122.6161	1128.825	1178.4255	1190.7096	1202.0493	1224.5191	1239.1491	1242.4609	1262.1585	1293.9069	1330.5786	1417.7033	1459.3149	1492.6583	1493.9625	1531.1109	1857.1339	3032.6587	3042.0581	3062.2508	3082.6952	3085.5459	3088.684	3090.7604	3114.2109	3123.7463	3140.6407
CC12CC(=O)C3C1CC23	C[C@@]12CC(=O)[C@H]3[C@@H]1C[C@@H]23	
InChI=1S/C8H10O/c1-8-3-6(9)7-4(8)2-5(7)8/h4-5,7H,2-3H2,1H3	InChI=1S/C8H10O/c1-8-3-6(9)7-4(8)2-5(7)8/h4-5,7H,2-3H2,1H3/t4-,5+,7-,8+
