19
gdb 57651	3.11391	1.03083	0.95611	2.7905	71.86	-0.2489	-0.025	0.2239	1295.0197	0.155821	-460.148647	-460.138912	-460.137968	-460.183633	35.415	
C	 0.3065300279	 1.4721907184	 0.3698769584	-0.429689
C	-0.0329804618	 0.0060352549	 0.0323756965	 0.271171
O	 0.4014291285	-0.8631618845	 1.068128653	-0.483536
C	-1.5296833328	-0.2096539217	-0.2790251321	-0.269158
C	-2.4371425166	 0.2972540243	 0.8186164925	 0.062012
C	-3.3873296768	-0.5763893209	 1.5182170266	-0.174961
O	-2.1573416744	-0.1998325469	 2.1474772569	-0.248734
C	 0.8046788547	-0.3846608863	-1.1855608317	 0.153426
O	 0.4978553092	-0.1550490646	-2.326176782	-0.266036
H	 1.3832896413	 1.5774463067	 0.5310517679	 0.12911
H	 0.005493322	 2.1451635886	-0.4387948916	 0.127292
H	-0.1976775625	 1.7723925133	 1.2929291703	 0.132037
H	-0.2693979911	-0.8282462167	 1.7643054345	 0.297069
H	-1.7746317917	 0.2855978718	-1.2235224801	 0.129326
H	-1.6828986875	-1.2841558278	-0.4237519687	 0.112328
H	-2.655204625	 1.3645901145	 0.8094505704	 0.108994
H	-4.2804401847	-0.155123163	 1.9756094499	 0.125419
H	-3.460718474	-1.6226630315	 1.2268335838	 0.12622
H	 1.7548822254	-0.8940056085	-0.9128741344	 0.097712
61.2295	78.3551	113.3775	170.0393	234.8298	254.7939	286.3876	331.2295	380.1898	414.9848	423.2883	479.3329	539.8976	627.6355	758.0895	789.7191	869.6136	902.6359	910.1031	946.3921	981.6598	997.4857	1046.0207	1098.7334	1146.8487	1159.2858	1167.2958	1181.2173	1209.7669	1275.5824	1295.6459	1322.3767	1387.7517	1397.0176	1424.0721	1439.2998	1471.8069	1491.1489	1501.3816	1526.9291	1836.0284	2902.499	3039.0897	3051.1018	3092.6475	3099.2535	3115.7777	3120.265	3124.026	3183.3995	3739.8533
CC(O)(CC1CO1)C=O	C[C@@](O)(C[C@H]1CO1)C=O	
InChI=1S/C6H10O3/c1-6(8,4-7)2-5-3-9-5/h4-5,8H,2-3H2,1H3	InChI=1S/C6H10O3/c1-6(8,4-7)2-5-3-9-5/h4-5,8H,2-3H2,1H3/t5-,6+/m0/s1
