16
gdb 54361	2.12688	1.68678	1.18156	4.327	65.16	-0.2451	-0.0373	0.2078	1062.7749	0.122576	-475.041157	-475.032068	-475.031124	-475.076061	31.902	
N	 0.2324847445	 1.2194620683	 0.7287232662	-0.528196
C	 0.1209485528	 0.2417160899	-0.2007689687	 0.315669
O	 0.9053106503	 0.0295108976	-1.1065452822	-0.364178
C	-1.1135318818	-0.6413243658	-0.0346384584	 0.254489
C	-0.9180334591	-1.9919695979	 0.6817611506	-0.324858
C	-1.9488023417	-1.4502502211	 1.6903480342	-0.078885
O	-2.0392220059	-0.1764949488	 0.9878088288	-0.340381
C	-1.865256365	-0.7215362786	-1.3669220553	 0.143161
O	-2.161993568	-1.7498655651	-1.9105413501	-0.23952
H	 0.9841903996	 1.8847228645	 0.6543175836	 0.26754
H	-0.5258074568	 1.3689703585	 1.3746564102	 0.27541
H	-1.236559254	-2.8422155202	 0.0797405176	 0.14908
H	 0.0840144391	-2.1607063924	 1.0744265299	 0.130556
H	-2.9156399449	-1.9626126404	 1.704521331	 0.125177
H	-1.5958905557	-1.308977696	 2.7166393335	 0.116188
H	-2.1730379536	 0.2675879275	-1.7671493308	 0.098747
42.0076	71.848	97.078	188.8341	226.3624	254.1175	321.7324	363.7225	397.6841	472.5757	605.0185	637.0722	694.3886	759.4835	793.4312	850.4704	911.4162	952.4744	990.9025	997.4869	1063.6606	1099.4446	1151.841	1171.2083	1196.9699	1226.5409	1262.4135	1344.7133	1375.2962	1414.4687	1487.7247	1524.1279	1588.4771	1793.8449	1840.7959	2913.1425	3044.1476	3092.9893	3102.9161	3164.3888	3588.3977	3729.0155
NC(=O)C1(CCO1)C=O	NC(=O)[C@]1(CCO1)C=O	
InChI=1S/C5H7NO3/c6-4(8)5(3-7)1-2-9-5/h3H,1-2H2,(H2,6,8)	InChI=1S/C5H7NO3/c6-4(8)5(3-7)1-2-9-5/h3H,1-2H2,(H2,6,8)/t5-/m0/s1
