21
gdb 53508	4.43707	0.64644	0.60552	1.3055	88.41	-0.2371	0.0576	0.2947	1914.3061	0.179791	-387.051839	-387.04095	-387.040006	-387.089685	38.006	
C	 0.0307816501	 1.4967073728	-0.0033418239	-0.498019
C	 0.0003613608	 0.0423323562	 0.0568678025	 0.109218
C	-0.0253919568	-1.1604097131	 0.0996856784	 0.041254
C	-0.0750878208	-2.6155261944	 0.1608724146	-0.388694
C	-1.4768684963	-3.2046671777	-0.123905013	 0.11891
O	-1.9689878076	-2.7982338254	-1.3926736852	-0.424455
C	-1.4726732376	-4.7111318912	 0.0324249339	 0.016226
C	-1.7479335388	-5.3402816371	 1.3767594026	-0.267685
C	-2.7647276442	-5.4442097467	 0.2679125762	-0.278281
H	 0.9696166018	 1.8588953658	-0.4373480322	 0.143932
H	-0.7884769937	 1.8855528807	-0.6184002468	 0.148389
H	-0.0645915611	 1.941730332	 0.9934870907	 0.143677
H	 0.6343777735	-3.0473629671	-0.5614406318	 0.109512
H	 0.2537670876	-2.9660676845	 1.1476694604	 0.12917
H	-2.1840225357	-2.7740136652	 0.5948033632	 0.091363
H	-1.3706718149	-3.1392889021	-2.0666733785	 0.27504
H	-0.7357236859	-5.2176357243	-0.5896887723	 0.072623
H	-1.1899100257	-6.2272972829	 1.6550880507	 0.111836
H	-1.9714229422	-4.6801241436	 2.2089119904	 0.113755
H	-3.6683129405	-4.849219829	 0.3472555511	 0.12098
H	-2.9070457318	-6.4055288632	-0.2128582408	 0.111249
28.0255	47.4543	76.3415	78.1576	177.7302	208.9464	233.8062	263.2681	292.8716	347.6181	386.6001	418.5981	482.8649	548.2947	759.4498	778.6052	829.0403	853.6855	891.85	945.393	946.8849	1032.8743	1053.0761	1055.4198	1059.0926	1077.7047	1090.2275	1133.792	1153.2758	1169.9128	1193.127	1196.1787	1226.4219	1284.3584	1314.1554	1360.2357	1410.2886	1415.4731	1431.7907	1467.6359	1470.4979	1479.2227	1480.0118	1506.2693	2376.1033	2992.9691	3024.6266	3038.2862	3051.9635	3083.5233	3085.0377	3112.6038	3129.5051	3136.3793	3207.8962	3223.5341	3800.072
CC#CCC(O)C1CC1	CC#CC[C@@H](O)C1CC1	
InChI=1S/C8H12O/c1-2-3-4-8(9)7-5-6-7/h7-9H,4-6H2,1H3	InChI=1S/C8H12O/c1-2-3-4-8(9)7-5-6-7/h7-9H,4-6H2,1H3/t8-/m1/s1
