21
gdb 52394	6.34601	0.51666	0.49874	1.0168	80.23	-0.2487	-0.0238	0.2249	2139.1082	0.180841	-424.213521	-424.203497	-424.202552	-424.25108	34.146	
O	-0.2395037168	 0.0022913668	-0.066814301	-0.235339
C	-0.0317826236	 1.1857516952	 0.0033591758	 0.159211
C	 1.3229149921	 1.8417153609	-0.133268994	-0.273241
C	 1.3391608123	 2.8951733228	-1.25473846	-0.194583
C	 2.6732827552	 3.6453229489	-1.3482936179	-0.206921
C	 2.6943225076	 4.6926215659	-2.4553369215	-0.026488
C	 1.9004822081	 6.000310562	-2.2194158552	-0.074433
O	 3.0948576545	 6.8005864526	-2.3130420163	-0.269826
C	 3.9187824875	 5.6346645153	-2.5132931642	-0.090335
H	-0.8697046972	 1.90370828	 0.1740032947	 0.069503
H	 1.5498154541	 2.334353309	 0.8238517047	 0.119066
H	 2.0735007694	 1.063510234	-0.3004354249	 0.122651
H	 1.1266627512	 2.4058711955	-2.2138723847	 0.113287
H	 0.5250528059	 3.6139619348	-1.0895375502	 0.106637
H	 2.8887692833	 4.1306263592	-0.3861886124	 0.102036
H	 3.4847177709	 2.9246433421	-1.5167942004	 0.103983
H	 2.469289409	 4.2253992664	-3.4186311017	 0.080471
H	 1.1647734875	 6.2694690374	-2.9871477881	 0.102043
H	 1.4260862877	 6.0853518648	-1.2313975173	 0.093722
H	 4.6470891284	 5.5010365338	-1.7015509574	 0.097184
H	 4.4570684128	 5.6711535026	-3.4683283279	 0.101372
36.9732	49.7942	55.8275	89.2466	136.0067	137.8649	264.9783	282.8989	408.4244	433.0481	520.6331	737.2859	773.2608	806.5549	872.6882	891.6542	895.4917	966.793	981.2288	1011.8857	1037.1778	1048.2355	1049.648	1109.2227	1128.303	1153.8104	1165.071	1167.5352	1218.4245	1245.2095	1271.5829	1292.6558	1310.443	1330.785	1334.2591	1367.698	1391.6046	1404.204	1429.696	1463.4458	1483.3132	1502.4393	1512.7584	1538.034	1837.8049	2844.7976	2993.5204	3004.132	3008.5231	3010.4419	3018.2147	3036.981	3041.6419	3046.0559	3058.4708	3073.8129	3097.5471
O=CCCCC1COC1	O=CCCCC1COC1	
InChI=1S/C7H12O2/c8-4-2-1-3-7-5-9-6-7/h4,7H,1-3,5-6H2	InChI=1S/C7H12O2/c8-4-2-1-3-7-5-9-6-7/h4,7H,1-3,5-6H2
