22
gdb 76578	2.80384	1.18062	1.1315	2.4017	82.46	-0.2182	0.0811	0.2993	1241.6475	0.194088	-404.322371	-404.313034	-404.312089	-404.356475	35.042	
C	-0.0795915405	 1.5518841158	 0.3624502382	-0.421861
C	 0.0758461503	 0.0498174595	 0.2608336671	-0.056723
N	 1.3064327869	-0.6123527723	-0.1913652086	-0.137404
C	 2.4778229642	 0.1751028748	-0.5414263885	-0.320128
C	 0.903893533	-0.7524479252	 1.2100847001	 0.304295
C	 1.6930924729	-0.163550086	 2.3870254479	-0.321539
C	 1.45829513	-1.2091000501	 3.4924024979	-0.080442
O	 1.2792678364	-2.4424967887	 2.8149644095	-0.243373
C	 0.4812388351	-2.1503427762	 1.6779808113	-0.142295
H	 0.7840104894	 2.0440257128	 0.814244066	 0.122007
H	-0.2377397769	 1.9933804923	-0.6277241764	 0.124662
H	-0.956073022	 1.7946815405	 0.9731028842	 0.123126
H	-0.8177940584	-0.437899927	-0.1339274657	 0.082893
H	 2.6657804325	 1.0576249071	 0.0875720838	 0.101946
H	 3.362358912	-0.4679313196	-0.4859376207	 0.125735
H	 2.3781799128	 0.5145727159	-1.5774797822	 0.122609
H	 2.7586324121	-0.1036458664	 2.1432860069	 0.113666
H	 1.3622417791	 0.8340361783	 2.6856373087	 0.104421
H	 2.2990710905	-1.319098953	 4.1816324115	 0.10906
H	 0.5592476716	-0.9539093552	 4.0787496178	 0.086768
H	-0.5891249922	-2.1599389643	 1.947112806	 0.083131
H	 0.6617757011	-2.9097087833	 0.9140803651	 0.119446
60.6007	146.3173	167.6992	173.2279	232.7813	236.8438	266.0667	276.5894	416.4219	467.4326	527.8161	541.4034	648.4028	745.7072	756.1682	793.7858	881.3792	955.2484	967.5383	978.305	1028.0932	1047.2897	1068.7132	1105.0181	1122.4636	1135.356	1147.2338	1168.4897	1181.521	1217.2342	1233.7987	1243.2897	1273.2018	1310.2844	1341.4589	1368.2511	1401.3472	1407.6407	1437.0548	1462.1317	1483.7528	1488.5778	1492.5201	1503.2844	1504.9179	1507.6236	1519.4828	2952.2772	2961.9843	2990.1591	3036.0133	3052.8079	3066.4361	3075.5563	3091.6476	3094.7954	3098.0816	3104.0797	3104.9254	3126.1581
CC1N(C)C11CCOC1	C[C@H]1N(C)[C@]21CCOC2	
InChI=1S/C7H13NO/c1-6-7(8(6)2)3-4-9-5-7/h6H,3-5H2,1-2H3	InChI=1S/C7H13NO/c1-6-7(8(6)2)3-4-9-5-7/h6H,3-5H2,1-2H3/t6-,7-,8?/m1/s1
