17
gdb 37300	2.69154	2.0646	2.05021	1.7274	73.19	-0.2274	-0.0004	0.227	814.6078	0.13888	-384.667088	-384.661113	-384.660169	-384.696835	26.509	
O	-0.0315979896	 1.4475423866	-0.0738139368	-0.245659
C	 1.256091424	 0.826329088	 0.0126522625	 0.055217
C	 0.049676531	 0.020581758	 0.0194561077	 0.055217
C	-0.1573067636	-0.6579683604	 1.413148327	-0.182755
C	 1.1284375545	-1.4745947399	 1.5939829166	-0.064484
C	 2.2362913373	-0.7346662595	 1.5877481824	-0.064483
C	 1.9730217802	 0.7648612437	 1.4011339372	-0.182754
C	 0.9511176873	 1.1941952557	 2.4422833475	-0.04804
C	-0.15435112	 0.4558558513	 2.4485227218	-0.048041
H	 1.8857419681	 0.9292633269	-0.8673260638	 0.100823
H	-0.2934406786	-0.5261893984	-0.855031886	 0.100823
H	-1.0589105005	-1.2698047102	 1.4406847707	 0.064097
H	 1.097180973	-2.5500878885	 1.7168690038	 0.098755
H	 3.2426627498	-1.1171338301	 1.7047881723	 0.098755
H	 2.8837250177	 1.3634525326	 1.4184460911	 0.064097
H	 1.1234422936	 2.0628399023	 3.0651216252	 0.099216
H	-1.0178682841	 0.6326632121	 3.0772073608	 0.099216
312.367	327.3724	408.1007	461.4877	474.7197	543.538	645.3008	669.2022	693.4722	699.2815	735.756	793.6882	843.4076	864.3646	902.677	925.134	929.7234	933.4137	955.0315	979.3136	1010.9713	1020.9257	1021.9006	1107.6896	1114.7027	1148.8872	1223.4214	1260.0756	1261.4639	1285.5169	1286.9399	1307.4224	1325.961	1374.3582	1439.7634	1644.9599	1693.1544	3107.3431	3109.0811	3139.3414	3152.2678	3193.7157	3196.2293	3217.4345	3220.551
O1C2C1C1C=CC2C=C1	O1[C@@H]2[C@H]1[C@H]1C=C[C@@H]2C=C1	
InChI=1S/C8H8O/c1-2-6-4-3-5(1)7-8(6)9-7/h1-8H	InChI=1S/C8H8O/c1-2-6-4-3-5(1)7-8(6)9-7/h1-8H/t5-,6+,7-,8+
