21
gdb 99106	3.8457	0.85259	0.78896	3.2763	79.4	-0.2402	-0.0216	0.2185	1549.0426	0.179795	-424.240216	-424.230195	-424.229251	-424.275942	36.967	
C	 1.1066505593	 2.2729501782	-0.7646492253	-0.378251
C	 0.6546633974	 0.8180134932	-0.8595346336	-0.277951
C	 1.4536713097	-0.013419752	-1.8487345638	 0.394054
O	 2.2691415883	 0.4944901375	-2.5933768223	-0.318873
C	 1.1942877086	-1.5168003299	-1.8469746117	-0.38441
C	 1.6405444531	-2.2002796244	-3.1259380623	 0.455396
O	 3.0070682621	-2.0738746482	-3.3876400778	-0.47946
C	 1.041779984	-3.5123373235	-3.5228972231	-0.31916
C	 0.6960274675	-2.2578386907	-4.3052346798	-0.316058
H	 2.1440382831	 2.3388339481	-0.4259667387	 0.130772
H	 1.0519302414	 2.7607083834	-1.7406443522	 0.136622
H	 0.4786568434	 2.8271349146	-0.0619041394	 0.113218
H	 0.6944659093	 0.3156531748	 0.1166351716	 0.12363
H	-0.3995367001	 0.7509128817	-1.1659493801	 0.128539
H	 1.752182836	-1.9318139827	-0.9938800996	 0.136285
H	 0.1349536039	-1.705965167	-1.6403874029	 0.111486
H	 3.1680463723	-1.1190735106	-3.4298839576	 0.290721
H	 1.7163928753	-4.2207996472	-3.989528387	 0.125848
H	 0.2813722515	-3.9561406379	-2.8889120064	 0.106002
H	-0.3037638642	-1.8466954597	-4.207469698	 0.101369
H	 1.1425224483	-2.145339768	-5.2860904601	 0.120221
43.426	63.6078	104.8926	151.0239	188.1478	265.1801	298.4115	333.3587	349.9191	431.9906	464.7791	478.4749	601.5248	657.9436	721.2388	759.7974	775.3615	824.4782	888.4972	919.7975	935.589	951.127	992.5867	1002.8646	1045.4674	1049.4884	1076.0274	1089.2717	1129.395	1187.7714	1194.92	1277.4014	1285.993	1321.865	1340.2501	1378.8838	1413.7621	1422.2973	1444.8473	1450.9621	1455.0188	1492.1702	1498.1738	1509.6829	1784.5171	3006.9684	3015.3747	3043.3397	3052.8755	3070.7894	3122.8705	3129.8884	3130.8757	3134.9964	3217.3893	3231.2092	3712.1926
CCC(=O)CC1(O)CC1	CCC(=O)CC1(O)CC1	
InChI=1S/C7H12O2/c1-2-6(8)5-7(9)3-4-7/h9H,2-5H2,1H3	InChI=1S/C7H12O2/c1-2-6(8)5-7(9)3-4-7/h9H,2-5H2,1H3
