18
gdb 124634	4.31327	0.95807	0.87966	3.5768	75.22	-0.2303	0.0096	0.2398	1362.737	0.147928	-435.280551	-435.271675	-435.27073	-435.314903	32.207	
C	-0.0294399509	 1.5461885954	 0.0869308476	-0.385331
C	 0.0000990511	 0.0140047358	 0.0012887046	 0.051177
C	 0.7155329495	-0.4835137973	-1.2550119378	-0.403692
N	 0.6398477678	-0.5918174292	 1.1733043336	-0.40109
C	 0.0578566949	-0.6813254115	 2.3843189959	 0.559524
N	 0.6285695092	-1.0210532275	 3.5173923691	-0.383278
C	-0.4403865332	-0.9840544476	 4.3678265365	 0.053022
N	-1.5913163372	-0.6498943112	 3.8541953308	-0.144966
O	-1.2551129771	-0.4360328218	 2.4831919436	-0.223135
H	 0.9869719434	 1.9547571758	 0.1043266455	 0.115231
H	-0.5509913806	 1.9677603221	-0.7781236937	 0.121736
H	-0.550075008	 1.8733378974	 0.9905208042	 0.139824
H	-1.0304373384	-0.3551424072	-0.0094511957	 0.119894
H	 1.7611194764	-0.1521552133	-1.2662981218	 0.118273
H	 0.7000973455	-1.5751908447	-1.3103825621	 0.131505
H	 0.2336361738	-0.0825016777	-2.1503372789	 0.129996
H	 1.6468537369	-0.6467709611	 1.1920228575	 0.26224
H	-0.3605303432	-1.2153644164	 5.4211763811	 0.139067
52.179	65.2266	142.416	229.8333	258.7839	276.1991	321.3274	383.0015	444.3979	463.0204	504.2887	630.3409	765.1365	772.4033	853.0198	882.0535	932.8309	939.4944	952.8688	968.7975	980.7861	1034.6239	1146.8994	1171.2541	1190.7002	1219.5578	1281.4969	1325.5114	1362.0462	1389.6699	1401.3622	1423.143	1460.6704	1485.7001	1488.0261	1504.1149	1509.7246	1574.5613	1672.1466	3032.0855	3036.7732	3062.6509	3102.0642	3110.8009	3123.8091	3128.3199	3247.9099	3629.035
CC(C)NC1=NC=NO1	CC(C)Nc1ncno1	
InChI=1S/C5H9N3O/c1-4(2)8-5-6-3-7-9-5/h3-4H,1-2H3,(H,6,7,8)	InChI=1S/C5H9N3O/c1-4(2)8-5-6-3-7-9-5/h3-4H,1-2H3,(H,6,7,8)
