23
gdb 58447	2.9667	1.01989	0.97091	3.0238	85.72	-0.238	-0.0157	0.2223	1368.7008	0.202834	-388.312968	-388.302811	-388.301867	-388.347755	38.869	
C	 0.0840064228	 1.4512384223	-0.2383079265	-0.402978
C	-0.0451810992	-0.0519030847	 0.0509995522	-0.021673
C	 0.7789957032	-0.4411106181	 1.2875582075	-0.40298
C	-1.5131094726	-0.5175180958	 0.1421521115	 0.358896
C	-2.3038681448	 0.1177520557	 1.2903165878	-0.460338
C	-2.3082109667	-0.4253151091	-1.2108507963	-0.399741
C	-2.7032731421	-1.8950818137	-1.0243495862	 0.407844
O	-3.5252764116	-2.6038731465	-1.5290504046	-0.294781
C	-1.7011977695	-2.0781321832	 0.1216899644	-0.399741
H	 1.1286985543	 1.7179661902	-0.4281869893	 0.11411
H	-0.4992882165	 1.7471527885	-1.1162317426	 0.115643
H	-0.2567241677	 2.0551428207	 0.6093604822	 0.117966
H	 0.3861088548	-0.5865884605	-0.8085555778	 0.066439
H	 1.8385652311	-0.2148908035	 1.1303447133	 0.11411
H	 0.4570035229	 0.1117694222	 2.1763688329	 0.117967
H	 0.6969078895	-1.5098996705	 1.5100392666	 0.115642
H	-2.3513857929	 1.2068419274	 1.1947032063	 0.120174
H	-3.3346197569	-0.2536432256	 1.2992028342	 0.118659
H	-1.864292496	-0.1194373544	 2.2639850011	 0.120175
H	-3.1286814075	 0.2941186441	-1.2799195684	 0.123173
H	-1.6599241129	-0.2995798459	-2.0858325983	 0.12413
H	-0.8088483796	-2.6169551683	-0.2175167435	 0.12413
H	-2.0786841719	-2.5648847214	 1.0250740635	 0.123173
53.4343	89.2504	184.5342	230.0445	252.327	265.1944	270.1437	301.7953	338.8072	379.3334	404.3117	409.3879	459.937	527.5819	619.0276	690.6076	721.5765	847.3019	879.4021	882.9281	929.3139	931.4907	959.3131	966.967	1010.5432	1061.4311	1083.7456	1120.9774	1143.5178	1155.7871	1176.1891	1201.3951	1208.3835	1257.4174	1304.9652	1351.7134	1370.647	1400.5407	1413.3042	1424.4285	1425.848	1448.0689	1485.9664	1489.216	1498.3278	1507.7489	1508.8625	1512.7235	1891.2323	2985.441	3030.6032	3031.6242	3036.506	3040.3613	3045.9317	3093.9946	3095.4554	3101.0756	3102.3729	3104.4942	3104.6384	3104.7115	3109.7851
CC(C)C1(C)CC(=O)C1	CC(C)C1(C)CC(=O)C1	
InChI=1S/C8H14O/c1-6(2)8(3)4-7(9)5-8/h6H,4-5H2,1-3H3	InChI=1S/C8H14O/c1-6(2)8(3)4-7(9)5-8/h6H,4-5H2,1-3H3
