17
gdb 90539	4.71068	1.04461	0.95483	3.0782	75.02	-0.2522	0.02	0.2722	1227.6558	0.134496	-421.742024	-421.733661	-421.732716	-421.775304	31.556	
O	-0.1755809531	 1.5157066883	 0.3808835541	-0.420947
C	 0.0316746229	 0.1509899481	 0.1480425582	 0.133585
C	 0.3243451241	-0.8109958111	 1.3486282987	-0.304064
C	-0.8309245598	-1.733075667	 0.8656589044	-0.089937
C	-2.1822816391	-1.3957258936	 1.5398497963	-0.065735
O	-2.3869837195	-0.2833944131	 0.6250621634	-0.286612
C	-1.2450854919	-0.6502012534	-0.1737386731	 0.098358
C	-3.221308685	-2.4093056866	 1.435407013	 0.318631
C	-4.0646840592	-3.2615969498	 1.3486219217	-0.427808
H	 0.6794901484	 1.9336327198	 0.5229090544	 0.286799
H	 0.7652483052	-0.0224765666	-0.6552879292	 0.067883
H	 1.3184616724	-1.26264668	 1.3490174441	 0.100365
H	 0.1390655074	-0.3544223909	 2.3246525614	 0.109499
H	-0.6165764397	-2.7732098323	 0.6341049904	 0.090927
H	-2.1047560105	-1.0435264363	 2.5766145152	 0.107426
H	-1.5133653025	-0.8166694417	-1.2199515252	 0.081911
H	-4.81803915	-4.0067194638	 1.2758274323	 0.199721
56.362	123.6317	153.7577	240.3389	255.0149	342.28	389.3455	441.7551	516.3462	573.171	624.7158	667.4443	691.4253	772.3814	828.0739	885.7084	896.4031	917.1512	954.3939	990.3938	1039.2591	1063.1173	1069.2908	1105.3366	1149.4991	1190.9717	1211.4326	1218.159	1230.2941	1262.7258	1287.0636	1324.8927	1328.9109	1367.3137	1433.9	1478.1004	2233.2062	2972.8324	3019.9177	3061.3411	3078.4513	3118.9082	3148.6878	3502.6712	3820.7073
OC1CC2C(OC12)C#C	O[C@H]1C[C@H]2[C@@H](O[C@@H]12)C#C	
InChI=1S/C7H8O2/c1-2-6-4-3-5(8)7(4)9-6/h1,4-8H,3H2	InChI=1S/C7H8O2/c1-2-6-4-3-5(8)7(4)9-6/h1,4-8H,3H2/t4-,5-,6-,7+/m0/s1
