18
gdb 44751	3.04232	1.65156	1.28563	4.1796	80.43	-0.2386	-0.0379	0.2007	1007.4343	0.150648	-401.945063	-401.938	-401.937056	-401.976636	28.658	
N	-0.0880519675	 0.9728320093	-1.0120963632	-0.486717
C	-0.0135533514	 0.0661111559	-0.1167189056	 0.362868
O	-1.2102741416	-0.2765309779	 0.4331449169	-0.253175
C	-1.4038638533	-1.2517470729	 1.4462105153	 0.133199
C	-0.4974085468	-1.1197487283	 2.6956837762	-0.246888
C	 0.45709857	-2.1749398512	 2.0494645733	-0.079342
C	-0.7599640107	-2.6363793938	 1.1846550508	-0.246814
C	 1.5001471499	-1.5117720484	 1.2029865175	-0.091153
C	 1.2647479667	-0.5615812821	 0.2907414151	-0.132925
H	 0.8403327061	 1.1762465218	-1.376782436	 0.219388
H	-2.4815444861	-1.2304693687	 1.6123025331	 0.095508
H	-0.0859768993	-0.1334137322	 2.9168491445	 0.116775
H	-1.0032382493	-1.5157353671	 3.580091663	 0.109329
H	 0.9011224107	-2.9156797899	 2.7157593759	 0.071979
H	-1.3337020681	-3.4258921853	 1.6768840578	 0.109321
H	-0.5671882264	-2.9130676728	 0.1466955366	 0.116764
H	 2.5298591598	-1.829940549	 1.3434053771	 0.103641
H	 2.1111868274	-0.1601052674	-0.2587528081	 0.098243
67.0627	229.1347	315.2913	360.7487	368.772	452.2525	453.2635	556.4131	685.5429	701.6395	781.0316	783.2157	789.7648	840.0876	853.1777	873.2995	918.8681	925.6626	987.5426	990.5546	1013.6947	1088.2028	1088.6186	1101.9146	1142.5205	1158.9326	1227.6702	1240.3421	1254.0881	1274.5282	1277.1211	1349.6961	1373.0721	1418.0088	1437.6595	1462.9426	1487.5133	1656.5291	1704.7544	3064.0319	3067.7511	3095.5752	3104.6097	3130.654	3131.7744	3154.7386	3176.7839	3509.811
N=C1OC2CC(C2)C=C1	[NH]C1=C[CH][C@H]2C[C@@H](O1)C2	
InChI=1S/C7H9NO/c8-7-2-1-5-3-6(4-5)9-7/h1-2,5-6,8H,3-4H2	InChI=1S/C7H9NO/c8-7-2-1-5-3-6(4-5)9-7/h1-2,5-6,8H,3-4H2/t5-,6+
