20
gdb 94604	2.97303	1.02929	0.89227	16.6082	84.02	-0.156	-0.0294	0.1266	1345.6938	0.170887	-440.220527	-440.211194	-440.210249	-440.255922	34.048	
N	-0.0459252336	 1.6584316553	 0.0518926445	-0.398059
H	 0.8387477632	 1.1335887435	 0.2034860458	 0.299984
H	 0.1951369627	 2.6495830754	-0.0127207384	 0.321314
H	-0.4913011182	 1.3653466358	-0.8191584918	 0.31555
C	-0.8939461266	 1.3601464599	 1.280933885	-0.064632
C	-1.4436280838	-0.0755986945	 1.3722794233	-0.251928
C	-0.9398718991	-0.1158864093	 2.8473759362	-0.21197
C	-0.0328072635	 1.1209405077	 2.5581930276	 0.029183
C	 1.4267432518	 0.7563146452	 2.2997475156	-0.378903
C	 2.0024699933	 0.1621999624	 3.7026166796	 0.358207
O	 2.4298360248	 1.0411329713	 4.4552446743	-0.459686
O	 1.8466303509	-1.0652985786	 3.8015511838	-0.457022
H	-1.6472575526	 2.1476496737	 1.3393593129	 0.114993
H	-2.5109603128	-0.1949315056	 1.1749669651	 0.117895
H	-0.8911157934	-0.7741153636	 0.7360092334	 0.119375
H	-1.7382044176	 0.0993479375	 3.5601441476	 0.109087
H	-0.3784880132	-0.995841348	 3.1633273822	 0.178848
H	-0.0644099432	 1.9297915745	 3.2904606527	 0.106852
H	 1.5360505633	-0.0416718704	 1.5467677958	 0.07611
H	 2.0157321274	 1.6387516679	 2.0196953647	 0.074804
31.2404	75.4974	118.7286	162.405	193.7306	232.1813	344.2576	359.4859	438.3747	456.6648	621.4809	662.2585	744.5472	757.833	779.2255	836.6708	864.6145	885.6804	911.4398	928.7324	964.4255	978.275	1041.3256	1046.6926	1097.6882	1138.4239	1170.8266	1184.5733	1226.5717	1251.6383	1259.5948	1276.4328	1285.4811	1302.533	1337.3239	1375.4886	1439.0836	1461.1728	1481.9402	1501.4433	1610.9532	1634.9704	1812.322	2956.2716	3042.3448	3057.9895	3078.3088	3093.5712	3102.3216	3117.5009	3148.168	3167.5263	3445.3494	3517.1755
[NH3+]C1CCC1CC([O-])=O	[NH3][C@H]1CC[C@H]1CC(=O)[O]	
InChI=1S/C6H11NO2/c7-5-2-1-4(5)3-6(8)9/h4-5H,1-3,7H2,(H,8,9)	InChI=1S/C6H11NO2/c7-5-2-1-4(5)3-6(8)9/h4-5H,1-3H2,7H3/t4-,5-/m0/s1
