20
gdb 78991	2.85543	1.85354	1.47491	0.7185	82.01	-0.2155	0.0879	0.3035	979.3372	0.171455	-365.931761	-365.924228	-365.923283	-365.963161	30.912	
C	 0.0165053148	 1.5451732481	-0.0727374336	-0.324139
N	-0.0070527475	 0.0978457894	 0.0451494761	-0.069736
C	-1.2338405072	-0.5635117123	 0.5286163935	-0.093215
C	-1.4997352439	-0.1616282593	 2.0170777385	-0.079815
C	-0.0556013747	-0.1441909822	 2.5196117715	-0.079816
C	-0.8675088531	-1.4156651638	 2.5703281362	-0.181507
C	-0.3605505519	-1.7281430366	 1.1243110471	 0.373381
C	-0.1192417479	-3.0570838157	 0.4769655899	-0.535664
C	 0.6685690657	-0.540558008	 1.1906308616	-0.093204
H	 1.0330069949	 1.8758553522	-0.3119311288	 0.11608
H	-0.6387851522	 1.8556814153	-0.8937241648	 0.11608
H	-0.3087210887	 2.0658135886	 0.8437529074	 0.100979
H	-2.0687367865	-0.6758177219	-0.1644982288	 0.063363
H	-2.280905195	 0.4515282769	 2.445492979	 0.0845
H	 0.2775081032	 0.4824226656	 3.3357738635	 0.0845
H	-1.1493079008	-2.0464619139	 3.4020251107	 0.086313
H	-1.0369131016	-3.6557614132	 0.4437525352	 0.117858
H	 0.235860663	-2.92265267	-0.5500295967	 0.132819
H	 0.634371244	-3.635106025	 1.0243212406	 0.117858
H	 1.7555546355	-0.6296816339	 1.166300472	 0.063362
174.9608	217.448	224.5584	237.7642	271.1677	299.582	552.4282	596.1895	617.0249	691.4989	765.4907	796.6389	804.0537	815.9576	843.3676	850.1039	866.7948	901.0992	927.2632	949.4436	993.0755	1004.7806	1033.194	1062.4743	1104.9047	1117.9316	1151.7001	1152.4807	1155.6955	1186.6164	1201.7567	1229.1326	1238.1082	1264.2337	1277.8184	1342.9596	1366.8547	1409.8476	1443.8793	1485.1522	1487.8087	1491.4909	1505.1318	2965.6744	3022.3332	3058.0013	3082.4507	3094.8799	3099.811	3104.2635	3106.8627	3199.5757	3199.5806	3216.6072
CN1C2C3C4C3C2(C)C14	CN1[C@@H]2[C@@H]3[C@H]4[C@@H]3[C@]2(C)[C@@H]14	
InChI=1S/C8H11N/c1-8-5-3-4(5)7(8)9(2)6(3)8/h3-7H,1-2H3	InChI=1S/C8H11N/c1-8-5-3-4(5)7(8)9(2)6(3)8/h3-7H,1-2H3/t3-,4+,5-,6-,7+,8+
