15
gdb 83944	2.47908	1.79279	1.55841	0.9948	60.41	-0.2443	-0.0555	0.1888	897.3895	0.112558	-494.868701	-494.86121	-494.860266	-494.900925	28.157	
O	 0.1316475865	 1.362760287	-0.1271128313	-0.43412
C	-0.0009080827	-0.010010596	 0.0006649713	 0.157619
C	 0.1799686541	-0.6411733179	 1.4318235439	-0.061477
O	-0.4998525664	 0.2289692008	 2.3455660393	-0.27853
C	-1.8999907299	 0.1256365067	 2.1705129959	-0.001926
O	-2.2712675428	 0.2232591917	 0.8127143189	-0.270276
C	-1.451383625	-0.6326824951	 0.0108474372	-0.059722
C	-0.7913247958	-1.7300286597	 0.8937482609	 0.358592
O	-0.7987314106	-2.923678624	 0.8997136787	-0.292568
H	-0.3577964617	 1.7610102937	 0.6035886566	 0.293623
H	 0.6377412025	-0.4933787211	-0.7425833918	 0.114256
H	 1.1589659748	-0.8933330264	 1.8356676125	 0.108794
H	-2.2452511243	-0.8393846642	 2.5777417918	 0.12165
H	-2.3632794808	 0.9568622747	 2.7039909269	 0.135371
H	-1.9796275479	-0.8779967802	-0.9087643309	 0.108712
73.0985	134.2729	225.5861	304.7941	332.2639	361.3555	467.8983	538.5773	549.2532	593.6261	662.8296	768.5313	802.4132	827.1765	908.6154	961.3381	995.9315	1042.7509	1085.1659	1104.8649	1121.247	1143.9694	1183.8237	1218.6763	1225.5322	1268.5256	1318.2906	1323.2287	1336.9055	1424.5929	1439.062	1518.7289	1892.5233	2965.5198	3093.6589	3126.6026	3137.571	3140.6374	3787.7126
OC1C2OCOC1C2=O	O[C@H]1[C@H]2OCO[C@@H]1C2=O	
InChI=1S/C5H6O4/c6-2-4-3(7)5(2)9-1-8-4/h2,4-6H,1H2	InChI=1S/C5H6O4/c6-2-4-3(7)5(2)9-1-8-4/h2,4-6H,1H2/t2-,4+,5-
