19
gdb 84713	2.69785	1.77404	1.29936	1.5728	75.16	-0.25	0.0088	0.2588	1014.003	0.161425	-423.041008	-423.033385	-423.032441	-423.07331	29.578	
C	 0.1404845427	 1.6123956959	 0.0074944807	-0.387037
C	 0.0680749108	 0.081144991	-0.0075921042	-0.054467
C	 0.7764240178	-0.56771669	-1.1762947794	-0.064018
C	 1.5591029613	-1.5843098345	-0.8205186798	-0.114723
C	 1.5523023527	-1.8097425382	 0.6708936045	 0.037279
O	 2.832103154	-1.6654465342	 1.2896853571	-0.250336
C	 2.9647346881	-0.2906746207	 1.5420823218	 0.013801
O	 1.6839300759	 0.1856430638	 1.9041147823	-0.254986
C	 0.7166113232	-0.6145909075	 1.2261422861	 0.057658
H	 1.1759231045	 1.9586643485	 0.0435040602	 0.12621
H	-0.33100494	 2.0250217195	-0.8904957665	 0.108315
H	-0.3766138893	 2.0213257285	 0.8804218377	 0.121278
H	-0.9941104947	-0.2036292063	-0.0352244488	 0.083669
H	 0.6217210291	-0.2272581813	-2.1959480546	 0.098258
H	 2.1488147528	-2.2017191479	-1.4881689475	 0.10216
H	 1.178043029	-2.7971380717	 0.9566440487	 0.091679
H	 3.6518923875	-0.148025431	 2.3812219347	 0.117185
H	 3.3360763837	 0.2430602513	 0.6502349716	 0.084361
H	-0.0328679891	-0.9082749951	 1.9657855256	 0.083714
66.1746	178.9899	215.2148	247.9696	271.4147	366.4722	470.3147	521.7851	617.7289	732.8182	744.4798	774.6288	814.8439	870.3921	882.6784	919.301	972.714	983.5188	986.8223	1015.9565	1039.9021	1072.2128	1100.102	1117.6623	1132.7306	1160.4459	1182.8345	1230.3235	1251.3464	1291.6558	1316.7888	1332.006	1345.466	1363.3351	1385.1366	1413.239	1430.4569	1493.9156	1495.919	1540.5118	1683.1322	2950.6596	2991.9639	3041.4219	3062.6281	3075.1177	3085.5788	3107.6568	3127.5143	3173.2451	3208.1241
CC1C=CC2OCOC12	C[C@H]1C=C[C@H]2OCO[C@@H]12	
InChI=1S/C7H10O2/c1-5-2-3-6-7(5)9-4-8-6/h2-3,5-7H,4H2,1H3	InChI=1S/C7H10O2/c1-5-2-3-6-7(5)9-4-8-6/h2-3,5-7H,4H2,1H3/t5-,6+,7-/m0/s1
