18
gdb 115194	4.65683	0.98848	0.84749	3.345	78.76	-0.2525	-0.0361	0.2163	1347.9577	0.148196	-439.08973	-439.081194	-439.08025	-439.123327	31.368	
C	 0.0117951964	 1.4396576003	 0.0816219997	-0.240983
O	-0.0885183805	 0.0322790417	 0.1097146192	-0.242949
C	 0.6702679267	-0.5863736017	 1.1344462355	 0.057217
C	 0.0280391396	-1.9525830659	 1.368903134	-0.11343
O	 0.808385931	-2.7754514591	 2.2392296356	-0.264548
C	 2.1386944831	-2.9217436696	 1.9545354183	 0.384436
N	 2.8240332599	-3.8725794755	 2.445340335	-0.521381
C	 2.7649656309	-1.8955300407	 1.1112653684	-0.103386
C	 2.1125402779	-0.7900206827	 0.7469573112	-0.106263
H	 1.0369517492	 1.784771756	-0.1172787728	 0.111308
H	-0.6346470073	 1.7898678937	-0.7262001072	 0.135379
H	-0.3247401658	 1.887273481	 1.0291597756	 0.112079
H	 0.6106030111	 0.0161848871	 2.057379908	 0.088624
H	-0.9487111189	-1.8532791279	 1.8448372731	 0.123333
H	-0.1021805797	-2.4424468392	 0.3957630902	 0.123602
H	 2.2245068436	-4.4742062327	 3.0145099144	 0.221717
H	 3.7996230145	-2.082727568	 0.8513169525	 0.124306
H	 2.5985328984	-0.0170784667	 0.1594432392	 0.110939
72.1791	92.458	170.0693	191.4739	270.0295	279.0048	362.0307	413.3955	464.0486	510.4924	573.153	685.1981	754.1759	806.2042	826.2873	911.8887	935.3128	993.1369	1005.8656	1044.8666	1067.0181	1115.2096	1131.6719	1156.7102	1181.5829	1195.6727	1221.2001	1263.302	1311.3887	1343.6395	1361.9162	1410.9784	1426.0303	1479.5538	1490.0198	1506.859	1508.8139	1683.4082	1733.0437	2951.2421	2982.0086	3030.7433	3035.8374	3120.6141	3122.7373	3176.6588	3216.6625	3464.6614
COC1COC(=N)C=C1	CO[C@H]1COC(=C[CH]1)[NH]	
InChI=1S/C6H9NO2/c1-8-5-2-3-6(7)9-4-5/h2-3,5,7H,4H2,1H3	InChI=1S/C6H9NO2/c1-8-5-2-3-6(7)9-4-5/h2-3,5,7H,4H2,1H3/t5-/m1/s1
