20
gdb 116817	6.49809	0.42774	0.41809	3.8019	83.37	-0.2463	-0.0193	0.227	2546.7886	0.167319	-440.286437	-440.275434	-440.27449	-440.325252	36.062	
C	-0.1289786263	 1.472439003	 0.0582214799	-0.250114
O	 0.0139244251	 0.0642713405	-0.0879911988	-0.190726
C	-1.1242914251	-0.6484543258	-0.0029258507	 0.13093
N	-1.1084501269	-1.9015607799	-0.1169613362	-0.211164
C	-2.3758060739	-2.5979805876	-0.0249490342	-0.155713
C	-2.6526405097	-3.3848538284	-1.3122308013	-0.179244
C	-3.9431234762	-4.2164532204	-1.2264367828	-0.274377
C	-4.1425983472	-5.0655084772	-2.4604095032	 0.160548
O	-5.1142200399	-5.0388867041	-3.170709255	-0.238233
H	 0.8714320056	 1.8941751959	-0.0435572534	 0.148783
H	-0.7765949318	 1.8939263547	-0.7200721743	 0.128715
H	-0.5302707015	 1.7351905773	 1.044523878	 0.128587
H	-2.0300934041	-0.0454150845	 0.1730932872	 0.073419
H	-2.3201889879	-3.3050152872	 0.8140245437	 0.106945
H	-3.2222580806	-1.9190044108	 0.1832189933	 0.08235
H	-2.7171023907	-2.6845643255	-2.1534164746	 0.111336
H	-1.7938829904	-4.0358763319	-1.5131491405	 0.119149
H	-3.874319686	-4.8976764677	-0.3649929074	 0.117972
H	-4.8271320382	-3.586102125	-1.0908186141	 0.119371
H	-3.2874106042	-5.7460587455	-2.6866843756	 0.071468
34.1729	43.3902	71.2234	88.0119	92.2072	142.7676	174.7	225.4464	276.8571	302.5647	406.4361	469.6436	515.1602	615.149	756.5283	816.3307	921.8449	979.5647	998.5641	1024.9383	1052.6174	1071.6644	1106.303	1152.6373	1177.0103	1179.6297	1205.2641	1255.9856	1281.8842	1293.1934	1322.9434	1349.8566	1389.3807	1414.2173	1429.8904	1465.0371	1485.7012	1488.6987	1495.0226	1500.4373	1507.8866	1773.588	1836.904	2850.4408	2939.8272	2981.7656	3006.4212	3016.3323	3022.4564	3037.5077	3075.1774	3078.7091	3097.7841	3146.8326
COC=NCCCC=O	COC=NCCCC=O	
InChI=1S/C6H11NO2/c1-9-6-7-4-2-3-5-8/h5-6H,2-4H2,1H3	InChI=1S/C6H11NO2/c1-9-6-7-4-2-3-5-8/h5-6H,2-4H2,1H3
