18
gdb 72004	2.66142	1.6296	1.17459	3.2244	77.95	-0.2342	-0.0252	0.209	1065.1952	0.147293	-401.88531	-401.877371	-401.876427	-401.917655	30.5	
C	-0.0795351634	 1.5112965385	-0.0128106287	-0.513244
C	 0.0299273511	 0.0159786897	-0.0564733908	 0.25748
C	-0.0242876454	-0.9086040364	-1.2667526906	-0.218966
N	-0.2786208289	-2.0798628297	-0.3385258274	-0.167165
C	 1.0646038821	-2.1885147544	 0.3589320261	-0.235813
C	 0.8090802281	-0.8418385475	 1.0098489495	 0.199566
C	 1.4226723006	-0.2783071855	 2.2120016515	 0.037897
O	 2.3923006222	-0.7572703254	 2.7562818473	-0.271205
C	-0.6804610267	-1.0338340756	 0.7181595423	-0.11653
H	 0.8312297358	 1.9885329851	-0.3900622311	 0.135031
H	-0.9171089016	 1.8470225952	-0.6339914582	 0.130832
H	-0.2547111316	 1.8811186543	 1.0017690014	 0.130963
H	-0.9149171165	-0.7245300892	-1.8746125001	 0.114525
H	 0.8530243161	-1.0164539941	-1.9135739244	 0.10551
H	 1.0429819089	-3.004104581	 1.0847704024	 0.125262
H	 1.9171784126	-2.3157946647	-0.3152635132	 0.10909
H	 0.9278425388	 0.6310921786	 2.6228003361	 0.064155
H	-1.5436036822	-1.0709688078	 1.3685299679	 0.112611
103.7032	164.281	199.1816	229.7606	267.7137	323.2693	413.2354	483.5894	491.6841	590.2344	691.7315	717.9698	803.4588	851.3696	857.308	914.4739	938.6865	953.5321	962.465	1020.2566	1040.1124	1083.445	1106.065	1122.1651	1142.6724	1158.3907	1184.4539	1236.5728	1252.4011	1286.9001	1368.8626	1401.3684	1420.6924	1447.469	1488.2383	1498.4716	1501.3121	1522.4636	1791.1158	2864.871	3032.0512	3039.3056	3055.0185	3094.4256	3098.948	3106.5628	3117.8744	3213.9514
CC12CN3CC1(C=O)C23	C[C@@]12CN3C[C@]1(C=O)[C@@H]23	
InChI=1S/C7H9NO/c1-6-2-8-3-7(6,4-9)5(6)8/h4-5H,2-3H2,1H3	InChI=1S/C7H9NO/c1-6-2-8-3-7(6,4-9)5(6)8/h4-5H,2-3H2,1H3/t5-,6+,7+/m1/s1
