20
gdb 108829	2.87644	1.19932	0.94963	1.8887	80.84	-0.2294	0.017	0.2465	1287.4044	0.171675	-403.126571	-403.117842	-403.116898	-403.159942	33.448	
C	-0.0884780341	 1.585465501	 0.0215386599	-0.391856
C	 0.008785666	 0.0528998227	 0.0140392601	-0.022842
C	 0.7373955502	-0.5156712203	-1.1923511217	-0.192445
C	 1.7440660899	-1.3316228329	-0.8649106395	 0.314004
C	 2.6866061808	-2.0413869949	-1.7892744282	-0.172392
O	 2.5184445453	-1.7068101344	-3.1540146628	-0.40789
C	 1.8750917549	-1.4053845777	 0.6258299212	-0.168468
N	 2.2288000426	-0.0806880383	 1.2172755568	-0.335007
C	 0.8165663513	-0.5253106292	 1.1803158874	-0.048657
H	 0.9117563543	 2.0242949366	 0.0563925158	 0.136614
H	-0.6002521827	 1.9515064638	-0.8744321609	 0.108842
H	-0.6502374071	 1.9377460368	 0.8931798888	 0.108318
H	-1.0111335606	-0.3579766669	 0.0538341745	 0.078183
H	 0.4646583375	-0.2503396143	-2.2077986037	 0.091932
H	 3.7235443158	-1.8636184804	-1.4541160486	 0.10129
H	 2.5313523484	-3.1271528287	-1.727202042	 0.12024
H	 2.659166473	-0.7571165533	-3.2316405728	 0.284179
H	 2.2209408634	-2.3071357216	 1.1217460571	 0.085339
H	 2.5801046596	-0.2307107506	 2.1621447351	 0.226266
H	 0.3211862615	-0.7443383473	 2.1204443333	 0.084351
86.9913	133.1091	178.321	202.2501	228.521	279.3231	351.0587	401.1615	419.0508	518.1859	580.3959	654.6608	712.5337	804.0107	850.8925	860.5648	873.986	892.9227	922.0904	948.8173	1002.2751	1026.4391	1052.7252	1079.7231	1103.6408	1118.3489	1135.3351	1166.3601	1178.84	1212.6276	1248.4448	1262.7887	1316.3625	1330.4825	1367.9355	1390.2116	1402.1487	1416.3505	1425.6432	1491.2713	1493.5432	1504.5775	1705.2381	2952.7476	2990.6003	3028.9815	3035.0113	3097.5787	3125.8048	3154.5645	3165.7234	3194.8638	3470.9576	3809.5285
CC1C=C(CO)C2NC12	C[C@H]1C=C(CO)[C@H]2N[C@@H]12	
InChI=1S/C7H11NO/c1-4-2-5(3-9)7-6(4)8-7/h2,4,6-9H,3H2,1H3	InChI=1S/C7H11NO/c1-4-2-5(3-9)7-6(4)8-7/h2,4,6-9H,3H2,1H3/t4-,6-,7+/m0/s1
