17
gdb 85646	1.99678	1.73031	1.20886	4.8632	73.47	-0.2759	-0.002	0.2739	1081.464	0.137061	-418.048105	-418.039762	-418.038817	-418.08139	30.841	
C	 0.8526524611	 1.2894296553	-0.2635457914	-0.406335
C	 0.0483500825	 0.0187726196	-0.0208826477	 0.111258
C	 0.1635047998	-1.046901348	-1.1300756007	-0.259803
C	 1.3143847683	-1.9498348799	-0.631261755	-0.235608
C	 2.6207430341	-1.5577576658	-1.1612077776	 0.29886
N	 3.6388332586	-1.2326800522	-1.601193926	-0.329894
C	 1.250724677	-1.7568393116	 0.88881389	 0.409466
N	 1.7819838991	-2.5363439583	 1.7217279588	-0.524584
O	 0.5240565845	-0.6470427906	 1.1749319641	-0.239309
H	 1.8989514426	 1.0639151989	-0.4891087808	 0.154215
H	 0.429996252	 1.8431538816	-1.1078946412	 0.126136
H	 0.8187977855	 1.9311150421	 0.6207046604	 0.136849
H	-0.9974259363	 0.2716036287	 0.1745934142	 0.102753
H	-0.752965759	-1.6394649205	-1.1838468669	 0.128196
H	 0.352150319	-0.612520543	-2.1121203346	 0.137974
H	 1.1570465831	-3.0048955614	-0.8638371327	 0.157696
H	 1.6169001979	-2.2186291449	 2.6779789671	 0.232129
76.6952	102.9401	149.3722	226.5695	249.3204	335.432	412.4712	427.6936	457.7591	529.6958	660.582	665.967	746.3011	788.0019	860.8791	891.0853	896.7882	929.7068	981.733	1032.7105	1041.8396	1102.7145	1129.6697	1136.8039	1193.9429	1233.2132	1277.9656	1312.0497	1338.8771	1373.3871	1395.7508	1417.9555	1486.7684	1495.9567	1498.9329	1780.8093	2358.8307	3045.0542	3066.8308	3080.6375	3101.8382	3119.5877	3129.8065	3139.325	3482.5648
CC1CC(C#N)C(=N)O1	C[C@H]1C[C@@H](C#N)[C]([NH])O1	
InChI=1S/C6H8N2O/c1-4-2-5(3-7)6(8)9-4/h4-5,8H,2H2,1H3	InChI=1S/C6H8N2O/c1-4-2-5(3-7)6(8)9-4/h4-5,8H,2H2,1H3/t4-,5-/m0/s1
