13
gdb 131964	4.79525	1.1058	0.90375	6.7849	65.49	-0.2934	-0.0837	0.2097	1192.7068	0.089311	-485.975157	-485.967476	-485.966532	-486.008516	26.338	
C	-0.0063309026	 1.4400365913	 0.0275854808	-0.33589
N	-0.0010205949	-0.007951925	-0.0873740158	 0.063025
C	 0.0433790615	-0.7779816239	-1.1886423455	-0.122275
C	 0.0238060052	-2.0556830559	-0.6780807149	 0.379184
N	-0.0306657148	-2.0188546543	 0.6713211313	-0.220245
N	-0.0463468389	-0.7742516217	 1.0361840924	-0.115113
N	 0.0554761838	-3.281659716	-1.4394722154	 0.370749
O	 0.1046698057	-3.1469764496	-2.6604854911	-0.381357
O	 0.0317158434	-4.3375441661	-0.8328821963	-0.333044
H	 0.9033766091	 1.8597633623	-0.4080192692	 0.162365
H	-0.8810811505	 1.8586527885	-0.4754965113	 0.16239
H	-0.0467206746	 1.6745297846	 1.0908571508	 0.183222
H	 0.0837198678	-0.4016576142	-2.1952887958	 0.186988
62.1221	77.4724	151.369	189.2768	291.3843	360.8395	420.2798	552.4978	631.5491	706.9029	707.1873	785.2728	843.5649	851.9629	998.2557	1040.8072	1074.7108	1132.7361	1152.2637	1264.4817	1322.0306	1353.7261	1422.9271	1443.6587	1485.1951	1491.5951	1520.2273	1551.6946	1645.6187	3060.7748	3133.2863	3171.7612	3305.6171
CN1C=C(N=N1)N(=O)=O	Cn1cc(nn1)N(=O)=O	
InChI=1S/C3H4N4O2/c1-6-2-3(4-5-6)7(8)9/h2H,1H3	InChI=1S/C3H4N4O2/c1-6-2-3(4-5-6)7(8)9/h2H,1H3
