18
gdb 44684	3.3088	1.41102	1.08579	3.7081	77.28	-0.2417	0.0071	0.2487	1103.4065	0.150342	-401.986755	-401.979211	-401.978267	-402.018993	29.393	
O	 0.0166200077	-0.0200091619	-0.1622510974	-0.368663
C	-0.0058360545	 1.1761829414	-0.0444163147	 0.427057
N	-1.0286043965	 2.0784048624	 0.1278483212	-0.33995
C	-0.1750498215	 3.2812517572	 0.0776792416	 0.007315
C	-0.199660388	 4.2132220521	 1.2498572165	-0.076896
C	 0.8940772075	 4.4652246306	 1.9694127934	-0.045742
C	 2.2034178232	 3.7492869994	 1.7441595796	-0.263382
C	 1.9655338731	 2.3209826225	 1.2255004242	-0.215324
C	 1.0493534619	 2.3122698899	-0.0050138347	-0.186301
H	-2.0305050175	 1.9589516105	 0.0877757357	 0.24571
H	-0.3302447856	 3.8469170882	-0.8513059363	 0.091504
H	-1.1322280269	 4.7334697975	 1.4562835675	 0.088661
H	 0.8553416506	 5.203844923	 2.7662043355	 0.093904
H	 2.8279936285	 4.3156930592	 1.0379583839	 0.113556
H	 2.7720624836	 3.7123738306	 2.6797262969	 0.10812
H	 2.9128241359	 1.8271195791	 0.9911091755	 0.109055
H	 1.4982572347	 1.7416934109	 2.0291011617	 0.116345
H	 1.6144313036	 2.4069985273	-0.9351058999	 0.095032
71.6723	153.1568	207.7551	299.4032	335.4922	432.7522	478.4752	495.842	544.0666	681.5382	706.3094	743.7816	781.9812	809.8754	869.6055	910.9576	961.7817	981.2339	997.9787	1004.6114	1058.302	1070.1046	1116.1224	1140.8727	1179.1929	1193.2543	1222.9178	1256.0432	1276.0406	1323.7122	1352.2603	1363.5247	1374.7282	1389.976	1418.1562	1480.0825	1494.1354	1712.9798	1889.2342	3002.9606	3005.2695	3045.3532	3064.4737	3081.3445	3098.8131	3144.1218	3167.9012	3602.5792
O=C1NC2C=CCCC12	O=C1N[C@H]2C=CCC[C@@H]12	
InChI=1S/C7H9NO/c9-7-5-3-1-2-4-6(5)8-7/h2,4-6H,1,3H2,(H,8,9)	InChI=1S/C7H9NO/c9-7-5-3-1-2-4-6(5)8-7/h2,4-6H,1,3H2,(H,8,9)/t5-,6+/m1/s1
