20
gdb 12850	2.75067	2.35134	1.78576	1.2751	73.59	-0.24	0.0798	0.3198	858.1916	0.17845	-349.012641	-349.00521	-349.004266	-349.044076	29.466	
C	-0.2105862303	 1.5746083129	 0.2068106854	-0.460471
C	 0.1034864076	 0.1027424403	 0.0426609269	 0.440445
C	-1.0974368468	-0.8931620334	 0.1473695275	-0.27456
C	-0.387806249	-1.6321173985	 1.316820215	-0.228965
C	 0.8320991743	-0.6726325369	 1.1982078741	-0.06724
C	 2.0895905412	-1.235604174	 0.5263407325	-0.231719
C	 1.7122793092	-1.2114980474	-0.9643056131	-0.092078
O	 0.8965193649	-0.0596426452	-1.1286145481	-0.293238
H	 0.7121489599	 2.1580858365	 0.284263548	 0.117378
H	-0.775458407	 1.9428889297	-0.6560322081	 0.123771
H	-0.8100044735	 1.7464843833	 1.1060448127	 0.110202
H	-2.0498097752	-0.4238384244	 0.4068854331	 0.095845
H	-1.2414956326	-1.4839937889	-0.7603991556	 0.104459
H	-0.9109465857	-1.563940302	 2.273343589	 0.099933
H	-0.1600495636	-2.6862117693	 1.1326843696	 0.094766
H	 1.0567893162	-0.0987401786	 2.0992971318	 0.0647
H	 2.9420005589	-0.5722719487	 0.7046546877	 0.10406
H	 2.3588630281	-2.2360017234	 0.8780917777	 0.097931
H	 2.5684518361	-1.115412728	-1.6375225094	 0.106513
H	 1.1636621173	-2.1256434243	-1.2438106266	 0.088269
82.5812	216.8031	222.8655	256.4758	335.2812	381.9218	428.9705	598.3651	607.1093	654.3433	740.9487	804.2699	836.3329	874.7266	903.2166	916.7239	936.4972	960.566	969.5589	1006.3983	1050.3678	1080.787	1137.0702	1155.5536	1171.5453	1187.3345	1224.8116	1228.5648	1239.3874	1254.7924	1273.852	1313.1557	1325.085	1338.0202	1385.4442	1408.5488	1471.2869	1483.071	1485.3557	1491.1756	1493.1419	1524.2386	2971.3572	3033.8418	3047.571	3052.4386	3061.8589	3083.9257	3087.0408	3097.3365	3102.0618	3105.0628	3110.6416	3120.6031
CC12CCC1CCO2	C[C@]12CC[C@H]1CCO2	
InChI=1S/C7H12O/c1-7-4-2-6(7)3-5-8-7/h6H,2-5H2,1H3	InChI=1S/C7H12O/c1-7-4-2-6(7)3-5-8-7/h6H,2-5H2,1H3/t6-,7-/m0/s1
