19
gdb 96243	2.38368	1.54944	1.08682	3.3143	73.37	-0.2421	-0.0045	0.2376	1132.631	0.159765	-460.147554	-460.138813	-460.137869	-460.180987	33.273	
O	 0.0774953951	 1.4439613033	 0.1764221532	-0.441484
C	 0.0755196399	 0.0293162055	 0.0756637678	 0.115086
C	 0.7115694793	-0.5979872151	 1.3234915511	-0.114803
O	 1.162364433	-1.9167873338	 1.0760829739	-0.235291
C	 0.2111374222	-2.9347181163	 1.2572685097	-0.129407
C	-0.9899051881	-2.9397501785	 0.3446158621	-0.046884
C	-1.6079928686	-1.9334133995	-0.2746246051	-0.107442
C	-1.3541692272	-0.447771308	-0.2009142445	 0.041279
O	-2.1395758427	 0.1412904261	 0.8586819605	-0.451136
H	-0.706368354	 1.6706014368	 0.6936165939	 0.290859
H	 0.7049735314	-0.2351536703	-0.7805543788	 0.093832
H	 1.5946285372	-0.0051425011	 1.5775925599	 0.113581
H	 0.0145364884	-0.5653275579	 2.1736539638	 0.098814
H	 0.7595453017	-3.8726543982	 1.1142363902	 0.117258
H	-0.1530028748	-2.9440010133	 2.3026593693	 0.10462
H	-1.4152136808	-3.9349365942	 0.2153614782	 0.096342
H	-2.4789859007	-2.1936059188	-0.8754977374	 0.087941
H	-1.6579530262	 0.0069832029	-1.1551471224	 0.078828
H	-3.0641189851	-0.0797560095	 0.7122949046	 0.288006
61.0261	131.1004	197.1172	240.5282	292.4709	313.6877	331.6347	381.8793	410.2085	458.8235	490.6413	582.4813	647.653	714.7946	786.6743	838.0648	892.1415	954.7328	978.767	1006.3674	1032.081	1042.3212	1067.775	1097.1759	1117.6354	1171.7548	1224.8426	1244.5034	1277.2539	1291.264	1319.809	1356.2404	1365.228	1390.456	1412.5907	1424.7662	1433.3777	1449.7257	1474.2848	1496.9356	1731.616	2925.5552	2992.213	3004.367	3057.964	3063.6621	3094.3471	3115.1035	3139.8012	3770.5791	3832.7192
OC1COCC=CC1O	O[C@H]1COCC=C[C@H]1O	
InChI=1S/C6H10O3/c7-5-2-1-3-9-4-6(5)8/h1-2,5-8H,3-4H2	InChI=1S/C6H10O3/c7-5-2-1-3-9-4-6(5)8/h1-2,5-8H,3-4H2/t5-,6+/m1/s1
