16
gdb 14490	3.63985	2.03335	1.53039	2.1179	70.97	-0.2435	0.0411	0.2846	847.4416	0.128623	-346.493412	-346.48601	-346.485066	-346.524595	28.914	
C	-0.1681902149	 1.5748696395	-0.0149923447	-0.489075
C	-0.0004925396	 0.0533157403	 0.0050531986	 0.141706
C	-1.2835377307	-0.5972221859	-0.2176691389	 0.290324
C	-2.3831430845	-1.0447476568	-0.4079017737	-0.442288
C	 1.2215513555	-0.6467628401	-0.697366139	 0.021122
C	 2.1882243246	-0.0990186911	 0.3782650132	-0.24647
C	 0.920210463	-0.656511693	 1.0658175669	 0.021187
O	 1.0003123032	-1.8260245149	 0.1656496362	-0.296669
H	 0.7683709954	 2.1112544258	 0.145011866	 0.119859
H	-0.5832803389	 1.8902501049	-0.9767404914	 0.135541
H	-0.8750789163	 1.8810400578	 0.761758193	 0.1355
H	-3.3410525858	-1.4717996021	-0.5738300723	 0.190273
H	 1.3792293064	-0.8226202589	-1.7618376559	 0.101303
H	 3.0729620593	-0.7176294439	 0.5260305635	 0.115386
H	 2.4107444453	 0.9669311441	 0.4222511228	 0.100998
H	 0.715699588	-0.8440772756	 2.1202782558	 0.101304
151.4994	165.4249	175.9013	279.7852	334.3209	472.4893	506.5094	508.4743	632.2153	633.3864	635.3878	653.3612	745.439	784.4668	871.1404	882.1558	912.4355	945.5621	1023.8334	1032.0481	1095.3494	1115.2323	1132.1521	1168.5105	1193.8689	1202.8605	1220.0938	1274.7512	1285.2585	1414.3582	1485.417	1487.9176	1509.0969	2232.9134	3050.0304	3088.4891	3112.9879	3115.862	3122.732	3137.326	3164.5418	3503.6024
CC1(C#C)C2CC1O2	C[C@@]1(C#C)[C@H]2C[C@@H]1O2	
InChI=1S/C7H8O/c1-3-7(2)5-4-6(7)8-5/h1,5-6H,4H2,2H3	InChI=1S/C7H8O/c1-3-7(2)5-4-6(7)8-5/h1,5-6H,4H2,2H3/t5-,6+,7-
