16
gdb 98507	2.37857	1.36002	0.93415	1.844	72.86	-0.2652	-0.0443	0.2209	1217.321	0.121673	-437.833764	-437.824633	-437.823689	-437.867887	33.349	
O	 0.0140355431	 1.3939381625	 0.3459531814	-0.418838
C	-0.2350728201	 0.0649805306	 0.6910475395	-0.157281
C	-1.2011952662	-0.5875019709	-0.2763874377	 0.306321
O	-1.6082769448	 0.0342828442	-1.2397875285	-0.352371
C	-1.6482702095	-2.0039114756	-0.0329180888	 0.038845
C	-3.1391652181	-2.212454997	-0.2107238615	-0.242232
N	-2.2179277822	-2.7032840073	-1.2123151214	-0.328369
C	-0.9134417422	-2.7950318352	 0.9163097677	 0.235739
C	-0.3004893152	-3.4351818751	 1.7281234576	-0.387328
H	-0.4723871049	 1.5455618927	-0.4789554412	 0.295913
H	 0.6881484215	-0.537776512	 0.698151802	 0.134895
H	-0.6517234969	-0.0168250326	 1.7077431427	 0.130298
H	-3.6102303646	-2.9712491347	 0.4060993589	 0.144109
H	-3.7291130067	-1.3250825324	-0.4222094541	 0.141051
H	-2.1851198141	-2.0335524926	-1.9828349708	 0.256436
H	 0.243778681	-4.0094321047	 2.4369719042	 0.202811
64.2273	114.5748	128.7227	207.704	230.6589	268.8599	336.5638	378.425	388.1494	503.0556	525.819	553.001	590.8216	617.8967	677.7144	777.1883	828.4318	875.0218	954.4335	1005.9755	1009.8291	1052.6493	1114.0059	1135.6272	1164.8488	1239.557	1258.5627	1308.4804	1329.7962	1355.8706	1447.7992	1479.6385	1493.163	1767.8398	2242.3681	2981.8561	2999.8418	3117.6944	3217.7893	3458.9686	3499.9869	3704.8246
OCC(=O)C1(CN1)C#C	OCC(=O)[C@]1(CN1)C#C	
InChI=1S/C6H7NO2/c1-2-6(4-7-6)5(9)3-8/h1,7-8H,3-4H2	InChI=1S/C6H7NO2/c1-2-6(4-7-6)5(9)3-8/h1,7-8H,3-4H2/t6-/m1/s1
