12
gdb 23901	4.44808	1.17676	1.14955	3.0951	46.14	-0.2809	0.0094	0.2903	1003.4471	0.079516	-546.158059	-546.150343	-546.149399	-546.191361	26.208	
F	-0.300547686	 0.1220536001	 0.8778406251	-0.079176
C	-0.128956809	 1.3338310094	 0.3281909743	 0.278119
F	 1.1689979972	 1.4858246993	 0.0695667498	-0.061205
F	-0.7965709009	 1.3609257572	-0.834245885	-0.072922
C	-0.6597035298	 2.4320058268	 1.2452475642	-0.220596
O	 0.0147228697	 2.4378034692	 2.4813569713	-0.174199
C	-0.4773353463	 1.6285054883	 3.4561206315	 0.133825
N	 0.1465687628	 1.5238709033	 4.5426885791	-0.428198
H	-0.4785232919	 3.3966436527	 0.7669378261	 0.154568
H	-1.7408191557	 2.2873362996	 1.3586508791	 0.134835
H	-1.4212568681	 1.140886502	 3.1819466399	 0.097931
H	-0.355295982	 0.9076102321	 5.1783133846	 0.237017
62.1894	72.6542	135.9062	227.1293	293.1313	373.572	398.045	530.6448	533.4309	627.4389	696.0364	819.4433	844.3136	951.8358	1003.6061	1037.3937	1160.4006	1195.248	1200.1135	1260.4045	1307.0228	1352.2915	1411.3237	1431.4778	1482.6289	1755.5023	3038.7819	3048.3719	3128.1854	3525.0328
FC(F)(F)COC=N	FC(F)(F)CO[CH][NH]	
InChI=1S/C3H4F3NO/c4-3(5,6)1-8-2-7/h2,7H,1H2	InChI=1S/C3H4F3NO/c4-3(5,6)1-8-2-7/h2,7H,1H2
