21
gdb 22203	1.99711	1.18181	0.8894	9.2638	84.84	-0.1322	0.0199	0.152	1407.1269	0.180071	-457.416845	-457.405957	-457.405013	-457.453272	38.012	
C	-0.7880141159	 0.6733292275	 1.287457207	-0.34322
N	-0.2306644469	-0.6783889483	 1.0607374872	-0.254829
H	-0.0909520789	-1.2294563439	 1.9346150272	 0.306187
H	-0.8366042319	-1.2443854774	 0.4658648732	 0.288366
C	 1.2391873984	-0.7869075712	 0.3750063383	-0.262114
C	 1.7096057895	-2.1438490558	 0.5710202018	 0.190685
C	 2.035818789	-2.5860263533	 1.9538431255	-0.188964
O	 0.8334212666	-2.5847198878	 2.8136051378	-0.278024
C	 0.1404135652	-3.8274986036	 2.7495610193	-0.26412
N	 1.4863146299	-2.9824948633	-0.4616151617	-0.092119
O	 1.6858670872	-4.2122455957	-0.276248013	-0.437748
H	-0.8717539652	 1.1928428638	 0.3309731873	 0.164793
H	-1.7706705302	 0.611265657	 1.7596656739	 0.160228
H	-0.1072280547	 1.2246364501	 1.938136474	 0.169816
H	 1.0777330731	-0.5408679731	-0.6760717509	 0.133804
H	 1.7842942932	 0.005568636	 0.8996718144	 0.11401
H	 2.4491835997	-3.5982081191	 1.9177138011	 0.128901
H	 2.7284525567	-1.9129036275	 2.4709283011	 0.086263
H	-0.0316317831	-4.142219672	 1.7134536281	 0.150462
H	 0.7188889953	-4.6150145593	 3.2508068309	 0.12428
H	-0.8114824468	-3.7038604929	 3.2754708075	 0.103341
70.9486	90.5735	96.1602	113.3204	161.0391	179.7673	241.8231	253.9107	290.0719	315.2551	341.6047	364.6696	416.6351	542.8689	610.7706	712.753	821.6504	838.4095	875.0623	935.5667	988.44	1006.758	1046.3628	1087.303	1147.5042	1185.8862	1200.8648	1261.4661	1290.7739	1299.2946	1337.4424	1342.9807	1353.1015	1399.5812	1410.7975	1430.933	1452.2605	1458.9881	1462.7169	1484.1263	1490.0587	1495.5563	1500.0494	1513.7553	1680.3331	3004.4096	3033.6286	3038.5348	3062.2441	3069.7092	3100.9663	3105.3359	3108.9328	3132.852	3147.8511	3156.0982	3481.2191
C[NH2+]CC(COC)=N[O-]	C[NH2]CC(=N[O])COC	
InChI=1S/C5H12N2O2/c1-6-3-5(7-8)4-9-2/h6,8H,3-4H2,1-2H3	InChI=1S/C5H12N2O2/c1-6-3-5(7-8)4-9-2/h3-4,6H2,1-2H3
