23
gdb 13456	3.24481	1.14742	1.02566	1.2245	82.8	-0.2103	0.0788	0.2891	1308.9438	0.210123	-330.306524	-330.296372	-330.295428	-330.341741	36.57	
C	 1.7209062897	 0.6128229723	 1.0584997363	-0.381173
C	 0.9349881065	-0.5626874473	 0.4729605774	-0.162711
C	-0.3356842856	-0.8777114431	 1.2668388083	-0.117245
N	-0.9983980908	-2.0540499931	 0.716344546	-0.107801
C	-2.3608543371	-2.4086053933	 1.1240065156	-0.001893
C	-3.1595685181	-1.6179516557	 2.139389374	-0.412525
C	-2.0824528056	-1.9260018826	-0.2659371992	-0.000448
C	-2.5868957685	-0.6033073843	-0.8045979936	-0.416867
H	 2.6236351812	 0.8171997616	 0.4748840189	 0.112644
H	 1.1202337985	 1.5294456734	 1.0715978292	 0.111364
H	 2.0317035611	 0.4085822972	 2.0894076226	 0.113455
H	 0.6621778794	-0.3463440374	-0.5676721898	 0.095689
H	 1.5576409263	-1.4638031104	 0.4449731547	 0.106421
H	-0.0654127663	-1.1110311792	 2.3051270282	 0.09638
H	-0.9671063152	 0.0240113703	 1.3066736794	 0.076652
H	-2.4851415028	-3.4852507291	 1.2503649852	 0.081446
H	-3.1014715381	-0.5378721041	 1.9943947915	 0.118375
H	-4.2157166962	-1.9041420128	 2.0870631649	 0.119348
H	-2.8124596168	-1.8352829389	 3.1558551795	 0.12226
H	-2.0222227511	-2.6892740401	-1.0428258178	 0.082238
H	-2.7200080143	 0.1615325694	-0.0375956292	 0.120376
H	-1.8996477178	-0.2028935403	-1.5584469383	 0.12317
H	-3.5563779085	-0.7513745226	-1.2927530737	 0.120845
59.3787	83.9831	120.4859	153.305	158.4718	225.865	243.2179	263.8025	304.5427	365.3862	455.7679	512.8299	545.5645	734.3294	754.6127	771.3024	837.5845	895.2765	905.9445	958.4314	1021.4529	1033.5455	1053.9614	1062.2481	1116.0931	1130.3106	1161.0169	1175.0128	1190.3858	1198.9651	1271.8923	1321.3606	1327.4983	1350.011	1381.2958	1396.9326	1411.58	1414.9267	1421.8757	1440.9461	1481.0868	1488.8642	1491.8163	1498.9965	1499.6925	1503.7044	1512.0643	1517.665	2971.0378	3025.1326	3028.1723	3033.9263	3036.4437	3037.4947	3067.9434	3077.7411	3088.6075	3089.5374	3089.891	3095.9529	3102.8351	3126.2445	3136.9169
CCCN1C(C)C1C	CCCN1[C@@H](C)[C@H]1C	
InChI=1S/C7H15N/c1-4-5-8-6(2)7(8)3/h6-7H,4-5H2,1-3H3	InChI=1S/C7H15N/c1-4-5-8-6(2)7(8)3/h6-7H,4-5H2,1-3H3/t6-,7+,8?
