21
gdb 64292	2.54789	1.64136	1.32504	1.7673	77.	-0.2447	0.0689	0.3135	1059.4909	0.183	-424.228222	-424.219686	-424.218742	-424.260786	33.739	
C	-0.0785361188	 1.548593236	 0.0741224819	-0.455493
C	 0.0908446603	 0.0359269044	-0.0097273102	 0.365525
O	-1.176977883	-0.6287523556	-0.0890670061	-0.481525
C	 1.0163554661	-0.4446661151	-1.1496319832	-0.258254
C	 1.3921503773	-1.8860979534	-0.7512538921	-0.226423
C	 1.5291534767	-1.8378449649	 0.7789056686	-0.066971
C	 2.7537080583	-1.076846895	 1.3271850091	-0.082489
O	 1.9568002115	 0.0917419742	 1.6263728108	-0.302138
C	 0.7396543573	-0.5830851931	 1.2384770358	 0.127905
H	 0.8757054794	 2.027097412	 0.3073557269	 0.137753
H	-0.445779719	 1.9539064772	-0.8763429246	 0.100071
H	-0.7998647515	 1.805049382	 0.8556741626	 0.120658
H	-1.609918005	-0.3380275397	-0.8985947358	 0.276702
H	 0.5265769317	-0.3801381342	-2.1271050309	 0.083034
H	 1.9048713425	 0.1948188275	-1.1890966726	 0.109725
H	 0.5781471142	-2.5653026391	-1.0202358338	 0.109317
H	 2.3011893898	-2.2435232136	-1.2454933056	 0.092812
H	 1.3116778513	-2.787369688	 1.2676408211	 0.076513
H	 3.1984342704	-1.5019099394	 2.2357137038	 0.099662
H	 3.5543397797	-0.8578598742	 0.608815712	 0.097181
H	 0.0289426808	-0.6698525981	 2.0663485525	 0.076435
115.776	185.6071	208.7789	222.6953	250.803	316.2849	342.3632	360.9734	408.0505	496.963	579.0198	606.1123	753.9148	805.8643	851.4881	872.8876	898.2241	932.7323	946.8873	953.7453	976.5169	1009.4993	1033.3278	1044.0573	1077.6954	1113.2258	1154.9971	1161.1773	1174.7199	1205.5081	1210.2227	1257.1194	1267.3832	1301.8421	1321.8282	1346.1414	1347.5638	1370.1683	1392.7955	1402.5003	1477.007	1487.7376	1490.3069	1500.1491	1525.2422	3007.3399	3030.0749	3041.4352	3048.5616	3053.1645	3061.6328	3079.7413	3097.9918	3099.1733	3112.742	3129.6774	3808.3084
CC1(O)CCC2COC12	C[C@@]1(O)CC[C@H]2CO[C@@H]12	
InChI=1S/C7H12O2/c1-7(8)3-2-5-4-9-6(5)7/h5-6,8H,2-4H2,1H3	InChI=1S/C7H12O2/c1-7(8)3-2-5-4-9-6(5)7/h5-6,8H,2-4H2,1H3/t5-,6+,7+/m0/s1
