16
gdb 32549	2.76008	1.5273	0.99034	2.5144	77.85	-0.2003	-0.0239	0.1764	1145.1873	0.126177	-434.092449	-434.084315	-434.083371	-434.12541	30.025	
C	-0.1875768701	 1.3932432693	 0.0104944767	-0.328344
N	 0.0543668245	-0.0261488021	 0.0294140991	-0.359442
C	 0.6955938035	-0.6533673918	 1.0523690687	 0.25274
C	 1.3506541412	-0.0468623596	 2.0695445683	-0.081088
O	 2.0061128177	-0.7799727128	 3.0387278975	-0.173182
C	 1.954676277	-2.1113040761	 2.9368194845	 0.12017
N	 1.3545250376	-2.7992118899	 2.0429961437	-0.329232
C	 0.6598990701	-2.1289844009	 1.0300758813	 0.308834
N	-0.0016049268	-2.7137775339	 0.1032581626	-0.549754
H	 0.7568987687	 1.9530498113	-0.0210933315	 0.12847
H	-0.7567902865	 1.6492206076	-0.8847265073	 0.135768
H	-0.7516670613	 1.7377768992	 0.8916778883	 0.11983
H	-0.5065728843	-0.6527053287	-0.5300284279	 0.265188
H	 1.450381638	 1.0140472235	 2.2355810817	 0.126886
H	 2.5075698844	-2.5852508849	 3.742400516	 0.140749
H	 0.0598443262	-3.7253079001	 0.2238991384	 0.222406
88.0438	114.5283	172.7744	193.3286	301.8878	361.5166	425.4334	464.1785	512.5899	542.778	559.8369	603.8689	766.9161	775.9512	796.7435	893.4587	904.7385	955.4518	1011.7729	1069.3242	1114.7197	1158.7131	1184.7789	1233.8937	1281.1881	1357.074	1397.5026	1431.6117	1463.5773	1479.7919	1518.6737	1546.7983	1653.2077	1678.7585	1698.7184	2978.6122	3031.8531	3129.8654	3190.034	3259.3749	3481.8367	3599.4158
CNC1=COC=NC1=N	CNC1=C(N=COC1)[NH]	
InChI=1S/C5H7N3O/c1-7-4-2-9-3-8-5(4)6/h2-3,6-7H,1H3	InChI=1S/C5H8N3O/c1-7-4-2-9-3-8-5(4)6/h3,6-7H,2H2,1H3
