20
gdb 86149	2.12083	1.6569	1.17588	2.3725	74.34	-0.2306	-0.0322	0.1984	1128.4016	0.170264	-440.306674	-440.29731	-440.296366	-440.340567	35.344	
C	 0.8132125442	 1.3609141086	-0.3407162466	-0.369139
C	 0.0018945849	 0.1100082779	-0.0039521184	-0.04025
N	 0.1328910731	-0.9399781242	-1.0511506142	-0.313839
C	 1.2329633916	-1.8619500621	-0.6983055502	-0.085227
C	 2.4231416329	-1.8051017559	-1.6608485017	-0.370039
C	 1.6151375905	-1.4611700269	 0.7255079682	 0.356459
O	 2.6441858532	-1.6839459415	 1.3150045906	-0.337105
C	 0.49828226	-0.5877028522	 1.2828786346	 0.056981
O	 0.9378751634	 0.2301297796	 2.3268909233	-0.437013
H	 1.8822830956	 1.1365766582	-0.4236695369	 0.117524
H	 0.4797480901	 1.7736527642	-1.295973714	 0.11804
H	 0.6958617568	 2.1135030665	 0.4427054636	 0.132143
H	-1.0537554231	 0.3822378239	 0.0772904939	 0.082817
H	-0.7376533909	-1.4467945147	-1.1405974683	 0.224734
H	 0.8690129301	-2.8985125502	-0.660641582	 0.105813
H	 2.7951334247	-0.7817700402	-1.7572140883	 0.128137
H	 3.2357726571	-2.4370000812	-1.2911125104	 0.130691
H	 2.1221918825	-2.150791483	-2.6528771893	 0.119796
H	-0.3013706196	-1.2717944655	 1.6247411145	 0.087463
H	 1.8031500329	-0.1207438013	 2.5899542716	 0.292012
76.5586	103.8102	203.5412	207.0988	221.5969	249.3469	289.0819	356.3538	405.3149	422.5187	504.9279	509.6832	585.13	616.8413	697.4239	749.9255	803.3059	858.5996	891.3116	953.0643	1010.7748	1035.491	1075.6426	1093.4016	1106.896	1132.6878	1151.2341	1186.8655	1228.6764	1283.5884	1319.3354	1338.0619	1353.002	1381.5918	1397.7753	1407.3003	1415.8413	1457.8747	1484.7263	1487.1192	1493.7785	1495.7683	1838.3678	2927.5921	3005.6495	3041.8775	3048.0468	3069.2432	3112.1792	3127.543	3127.8616	3135.0696	3563.4981	3697.5111
CC1NC(C)C(=O)C1O	C[C@H]1N[C@@H](C)C(=O)[C@H]1O	
InChI=1S/C6H11NO2/c1-3-5(8)6(9)4(2)7-3/h3-5,7-8H,1-2H3	InChI=1S/C6H11NO2/c1-3-5(8)6(9)4(2)7-3/h3-5,7-8H,1-2H3/t3-,4+,5+/m1/s1
