20
gdb 120990	3.6864	1.00238	0.89324	1.8678	75.71	-0.2288	0.068	0.2968	1369.0164	0.171028	-440.21545	-440.206675	-440.20573	-440.249762	32.122	
C	-0.0080112603	 1.3554962349	 0.6847523987	-0.222636
O	-0.1209023739	-0.0463118025	 0.7119331634	-0.23993
C	 1.0785978962	-0.701153715	 0.3573204613	-0.049735
C	 0.8557471107	-2.1917997196	 0.513512235	-0.017636
N	 2.0220153843	-3.0314756295	 0.1019165619	-0.344022
C	 1.9734924345	-3.7945255981	 1.376177319	-0.055885
C	 2.9109506467	-3.1898643334	 2.4323082178	-0.060401
O	 1.9090585763	-2.2030159283	 2.7989097477	-0.293008
C	 0.9251918904	-2.8042893874	 1.9360177564	 0.10289
H	 0.248153714	 1.7257459939	-0.32124651	 0.100224
H	-0.9771104223	 1.7689691914	 0.9754323189	 0.123634
H	 0.7588075122	 1.7176411733	 1.3872373464	 0.108177
H	 1.3603616454	-0.4759285907	-0.6858644234	 0.080665
H	 1.9100082517	-0.3875430743	 1.0056626409	 0.10499
H	-0.0855276554	-2.4714332664	 0.0214528687	 0.074795
H	 1.8434436216	-3.5975539604	-0.718676111	 0.221206
H	 1.86867709	-4.8777652268	 1.3071565729	 0.07776
H	 3.1422866369	-3.8451991784	 3.2821362115	 0.097118
H	 3.8268984579	-2.7349954244	 2.0417261263	 0.109366
H	-0.0060163968	-3.0367226681	 2.4552778076	 0.082429
57.385	96.3075	105.8806	180.3857	223.0112	262.3743	368.6823	401.1672	417.673	572.007	642.0089	752.1244	795.2051	817.07	903.9435	951.6279	957.573	985.1364	1004.4615	1022.9037	1037.1832	1072.5166	1092.9347	1137.8443	1157.9367	1168.5235	1181.2727	1192.357	1204.6875	1227.2326	1239.743	1253.4345	1299.5534	1348.1292	1349.9275	1354.3562	1392.147	1426.4667	1479.2744	1485.259	1500.0913	1504.8743	1522.7318	2955.8642	2970.2578	3009.6342	3013.0133	3013.3014	3024.9733	3082.1822	3092.7818	3106.8555	3110.5459	3547.7312
COCC1NC2COC12	COC[C@H]1N[C@H]2CO[C@@H]12	
InChI=1S/C6H11NO2/c1-8-2-4-6-5(7-4)3-9-6/h4-7H,2-3H2,1H3	InChI=1S/C6H11NO2/c1-8-2-4-6-5(7-4)3-9-6/h4-7H,2-3H2,1H3/t4-,5+,6+/m1/s1
