20
gdb 38951	3.02363	1.68228	1.39726	1.6761	76.34	-0.2233	0.0692	0.2925	989.5071	0.17476	-403.131295	-403.124227	-403.123282	-403.162979	28.602	
C	 0.0198817417	 1.5269386265	 0.154702702	-0.236923
C	 1.2585212855	 0.7251017628	 0.0386944993	-0.040154
C	 1.9911268816	 0.364779872	 1.327060808	 0.090967
O	 2.0430826383	 1.4170408529	 2.2983167499	-0.269299
C	 1.3159920294	 1.0549294861	 3.4693269315	-0.075419
C	 1.2111972601	-0.4749825845	 3.4552637744	-0.24594
C	 1.1546602198	-0.7790873162	 1.9529205927	-0.026195
C	-0.2387559787	-0.6585093166	 1.2816080369	-0.191658
N	-0.071813083	 0.070493494	 0.0018776152	-0.096838
H	-0.1989862538	 1.9672480245	 1.1243884057	 0.11815
H	-0.3397695792	 2.1015660401	-0.6945248798	 0.112757
H	 1.8232860198	 0.7140699827	-0.889167978	 0.08726
H	 3.0233847157	 0.0690326518	 1.1083426276	 0.076213
H	 1.8515727272	 1.4446453084	 4.3408254673	 0.107469
H	 0.3166459862	 1.518311806	 3.4575009671	 0.088674
H	 2.1068847628	-0.9209013395	 3.899247969	 0.107587
H	 0.3424658966	-0.8440546915	 4.0073338347	 0.105459
H	 1.5915160541	-1.7515758955	 1.7150965651	 0.080719
H	-0.6599195547	-1.6445943084	 1.0661531161	 0.108602
H	-0.9546045796	-0.1376598756	 1.9300016951	 0.098569
71.9688	177.9668	224.065	342.3408	391.7398	483.0328	584.8739	646.0781	663.6294	744.0357	768.1468	820.356	853.2746	871.7	906.3201	930.3904	942.4856	977.4776	1008.0386	1018.1877	1025.5898	1057.2905	1095.1271	1109.2113	1119.918	1135.1911	1165.9418	1211.1751	1219.4557	1231.1263	1272.2508	1276.6886	1296.93	1325.4709	1330.1386	1359.8811	1367.7556	1387.802	1403.4303	1491.6792	1498.4625	1514.0427	1532.9523	2971.509	3025.5228	3036.5083	3050.0453	3069.1617	3072.3279	3089.4823	3103.0669	3104.8681	3145.4012	3189.089
C1C2C3OCCC3CN12	C1[C@H]2[C@H]3OCC[C@H]3CN12	
InChI=1S/C7H11NO/c1-2-9-7-5(1)3-8-4-6(7)8/h5-7H,1-4H2	InChI=1S/C7H11NO/c1-2-9-7-5(1)3-8-4-6(7)8/h5-7H,1-4H2/t5-,6-,7-,8?/m0/s1
