21
gdb 123119	2.87098	0.8294	0.7066	3.3745	77.1	-0.2306	-0.0114	0.2192	1650.3923	0.178469	-461.357124	-461.346123	-461.345179	-461.394863	37.481	
C	 0.936741543	 0.6202537943	 0.1777667384	-0.229095
O	 0.4121673909	-0.6794627534	 0.3146128274	-0.220804
C	-0.988507048	-0.7331035991	 0.1578912834	-0.062659
C	-1.4537733225	-2.1476018538	 0.4344127411	-0.079955
O	-1.3992866028	-2.3827258131	 1.8308991877	-0.236694
C	-1.3908268247	-3.7498932083	 2.1726174865	-0.169545
C	-0.0151570896	-4.4256673526	 2.0377464303	 0.346289
C	 1.1956031533	-3.5491240837	 2.271573131	-0.487665
O	 0.0535107984	-5.6107760093	 1.8079478672	-0.293047
H	 2.0189176368	 0.5511650461	 0.3094974622	 0.130979
H	 0.7258756486	 1.0418053293	-0.8177554133	 0.106078
H	 0.5279771707	 1.3065369984	 0.9354895807	 0.109595
H	-1.4890493955	-0.0413350988	 0.8543625788	 0.101839
H	-1.2758620632	-0.4456014382	-0.8675405791	 0.089122
H	-2.4827530172	-2.2824012001	 0.0651721996	 0.097849
H	-0.8052485872	-2.8462819735	-0.1144903026	 0.110691
H	-1.6767114401	-3.8087947879	 3.2312332393	 0.12895
H	-2.1217068082	-4.3357943778	 1.598448632	 0.114436
H	 2.1041871417	-4.1380130774	 2.1409074377	 0.132059
H	 1.189468263	-2.6823743818	 1.6038291424	 0.174526
H	 1.1599471425	-3.1455249691	 3.2910646694	 0.137052
40.9223	59.3343	74.0834	91.6359	146.8203	156.4039	224.2989	261.0957	278.62	317.843	344.8148	437.971	489.295	533.3814	608.5048	766.1378	845.8594	865.5397	890.3699	1008.437	1046.0172	1057.5422	1096.9885	1130.4183	1146.4879	1172.4436	1188.3337	1227.0372	1235.718	1260.1126	1280.2115	1309.717	1358.9934	1392.0582	1403.2504	1438.1788	1461.5097	1465.1976	1474.0232	1479.7827	1485.938	1497.8505	1506.351	1521.2123	1816.3093	2960.2882	2974.4892	2981.705	3001.5493	3009.094	3019.9208	3025.368	3036.644	3059.0861	3102.6778	3118.9362	3155.9635
COCCOCC(C)=O	COCCOCC(=O)C	
InChI=1S/C6H12O3/c1-6(7)5-9-4-3-8-2/h3-5H2,1-2H3	InChI=1S/C6H12O3/c1-6(7)5-9-4-3-8-2/h3-5H2,1-2H3
