19
gdb 61839	3.65988	0.78426	0.7371	2.6889	73.24	-0.2528	-0.023	0.2298	1570.778	0.155309	-460.147106	-460.136859	-460.135915	-460.183583	35.651	
C	 0.2209695251	 1.492846608	-0.3729064322	-0.422598
C	-0.004438316	 0.0599585544	 0.0317597567	 0.081921
O	 1.1513804978	-0.7790261917	 0.1959509943	-0.265411
C	 0.3358664258	-0.5203885088	 1.3402034818	 0.036166
C	 0.9827160953	 0.234906556	 2.4854726582	 0.0805
O	 0.0032459074	 0.6596426821	 3.424678607	-0.425475
C	 2.0779118557	-0.612906088	 3.1496647983	-0.303681
C	 2.732153793	 0.1296366112	 4.2940329286	 0.163574
O	 2.8427602825	-0.2968555926	 5.413380434	-0.237577
H	 1.0549870025	 1.9462254999	 0.1660017758	 0.130369
H	 0.4433988656	 1.5485527865	-1.4434443733	 0.133009
H	-0.6804246243	 2.0854621291	-0.1850184665	 0.132787
H	-0.8138302072	-0.434554254	-0.5095155615	 0.094104
H	-0.2507422283	-1.38243688	 1.6741673483	 0.083298
H	 1.4331696746	 1.1574009352	 2.1069407426	 0.0983
H	-0.3119045607	-0.113984327	 3.9060003978	 0.288375
H	 1.6740620216	-1.5594932976	 3.5276045152	 0.112216
H	 2.8398030804	-0.8450308077	 2.3935293951	 0.144366
H	 3.1232175992	 1.137301645	 4.0208268698	 0.075758
42.6116	73.2715	77.1635	125.2317	172.6811	205.1751	231.1427	284.4823	376.4959	401.4049	408.9363	480.8685	515.6747	593.4209	782.8765	784.9677	849.0008	930.0287	976.24	994.5908	1027.4317	1056.4511	1080.5433	1108.9857	1132.9739	1170.7904	1182.0165	1188.4831	1260.9455	1285.5469	1305.6529	1356.7992	1399.2172	1411.8899	1421.0551	1431.1592	1459.6367	1469.4023	1491.2754	1513.537	1838.9309	2863.7737	3027.5665	3043.1977	3052.6231	3070.0527	3087.104	3088.3804	3105.4195	3137.0526	3798.5612
CC1OC1C(O)CC=O	C[C@H]1O[C@H]1[C@@H](O)CC=O	
InChI=1S/C6H10O3/c1-4-6(9-4)5(8)2-3-7/h3-6,8H,2H2,1H3	InChI=1S/C6H10O3/c1-4-6(9-4)5(8)2-3-7/h3-6,8H,2H2,1H3/t4-,5+,6-/m1/s1
