15
gdb 16113	4.67121	1.65473	1.45077	1.2625	67.6	-0.251	0.0329	0.2839	867.8527	0.119742	-362.602876	-362.596045	-362.595101	-362.633672	26.461	
C	-0.0108975771	-1.197401174	 0.1080298905	-0.384611
C	 0.0361838207	 0.0023783147	 0.0498972435	 0.23683
C	 0.0525438169	 1.4293306505	-0.0711880442	 0.130605
C	-0.870587928	 2.0975770887	-1.0921146099	-0.16351
O	-0.3942064951	 3.4322511637	-1.2092845598	-0.259429
C	 1.0210488838	 3.4057152896	-1.0382684046	-0.110058
C	 1.2719264266	 2.2985201488	-0.031001401	-0.092898
N	 0.3729080828	 2.2444106888	 1.1204152901	-0.360487
H	-0.0435371489	-2.2566313277	 0.1760929019	 0.192548
H	-0.8118557848	 1.5538694459	-2.0472010583	 0.109561
H	-1.9171494758	 2.1439313305	-0.776222874	 0.122723
H	 1.5421470902	 3.1813523991	-1.9826248866	 0.105088
H	 1.3281470395	 4.3998691782	-0.6974313282	 0.119834
H	 2.2707509284	 1.9012467752	 0.1119733914	 0.112287
H	-0.2275860794	 3.0692605881	 1.1285685891	 0.241518
146.0713	154.9209	264.6968	326.3873	407.4627	499.5245	515.4116	566.145	612.2942	662.2263	697.8092	749.9582	860.8937	893.3986	938.0064	967.6141	1026.5401	1054.3812	1067.2614	1105.3657	1124.6649	1173.922	1212.2383	1255.3927	1267.773	1314.4337	1340.083	1368.9616	1435.7418	1504.4049	1518.2324	2243.8266	2983.1784	2995.6775	3074.9011	3085.1318	3180.7453	3462.5453	3502.6428
C#CC12COCC1N2	C#C[C@]12COC[C@H]1N2	
InChI=1S/C6H7NO/c1-2-6-4-8-3-5(6)7-6/h1,5,7H,3-4H2	InChI=1S/C6H7NO/c1-2-6-4-8-3-5(6)7-6/h1,5,7H,3-4H2/t5-,6+/m1/s1
