18
gdb 36252	5.29046	0.97135	0.94054	1.6237	81.83	-0.2335	0.0525	0.286	1278.2031	0.147346	-364.672832	-364.665157	-364.664212	-364.705392	30.059	
C	 0.0163171575	-1.2080794801	-0.2621072631	-0.450577
C	-0.0269064822	-0.0337866756	-0.009553981	 0.305469
C	-0.0414276055	 1.3946024672	 0.2884208965	-0.393828
C	 1.3425933732	 2.0333013879	 0.1523837311	 0.007475
C	 1.9137465515	 2.3125323332	-1.2428614789	-0.002987
C	 1.0639118227	 3.6018432967	-1.4752762076	-0.076263
C	 2.3456702758	 4.3699446519	-1.7697777479	-0.18442
N	 2.8367737394	 3.4275721373	-0.6744061073	-0.16469
C	 1.4602751173	 3.559209824	 0.034454753	-0.034662
H	 0.0426788854	-2.2466220287	-0.4811142234	 0.196583
H	-0.7539458174	 1.8993989489	-0.3766038355	 0.129283
H	-0.4141293095	 1.5515047489	 1.3091627078	 0.133088
H	 2.0645414451	 1.5817586911	 0.8400648653	 0.094746
H	 2.2890507035	 1.6170419147	-1.9952496163	 0.087785
H	 0.0659561005	 3.6912918258	-1.9167776622	 0.068662
H	 2.8364562965	 4.2077986002	-2.7351499763	 0.102075
H	 2.393097161	 5.4272161158	-1.4881808531	 0.100673
H	 1.3023802852	 4.3352815108	 0.7866109087	 0.081588
59.6009	113.8279	216.6012	270.9733	346.4149	419.2533	462.556	573.6963	621.2971	639.3518	711.8871	762.7052	807.7972	845.5793	853.2869	882.4781	914.3379	939.0641	969.6034	996.7785	1027.6414	1029.9059	1069.6884	1090.2898	1105.7257	1138.8325	1163.0888	1166.9475	1191.4451	1215.9751	1238.7486	1261.9472	1277.4832	1312.104	1332.0434	1399.6269	1470.7918	1520.0724	2239.0717	3018.1896	3033.1462	3045.088	3050.1179	3071.069	3092.3465	3094.1503	3107.4842	3507.2199
C#CCC1C2C3CN2C13	C#CC[C@H]1[C@H]2[C@@H]3CN2[C@H]13	
InChI=1S/C8H9N/c1-2-3-5-7-6-4-9(7)8(5)6/h1,5-8H,3-4H2	InChI=1S/C8H9N/c1-2-3-5-7-6-4-9(7)8(5)6/h1,5-8H,3-4H2/t5-,6-,7-,8+
