23
gdb 59670	2.38378	1.37034	0.97935	1.4792	85.93	-0.2529	0.0693	0.3221	1296.8537	0.204862	-388.268901	-388.259218	-388.258274	-388.30322	37.276	
C	-0.1675030843	 1.5329945386	-0.0054156324	-0.403199
C	-0.0081437336	 0.0136935382	-0.0639736064	 0.110773
O	 0.6204357472	-0.3944373126	-1.2828199243	-0.433234
C	 0.7336664077	-0.547921164	 1.1426160098	-0.048816
C	 0.0376642169	-0.482270372	 2.5368290781	-0.241084
C	 0.4724724247	-1.9519296896	 2.8068550538	-0.303281
C	 0.8250969101	-2.0756386044	 1.3180712456	 0.3689
C	 0.2761503701	-3.1150354047	 0.3791642179	-0.319765
C	 1.7599822916	-3.0443325224	 0.6635515926	-0.325739
H	 0.8127733974	 2.0247471577	 0.034862832	 0.103818
H	-0.6945462026	 1.8941620364	-0.8927399474	 0.122433
H	-0.7291574366	 1.8396312798	 0.8827883266	 0.12072
H	-1.0014652395	-0.4500334826	-0.1080299401	 0.085282
H	 1.4990672932	 0.0012672751	-1.3029218157	 0.275556
H	 1.733722857	-0.0913607698	 1.1859443255	 0.053046
H	 0.3926869309	 0.2795428033	 3.2340496354	 0.096256
H	-1.0481659141	-0.3859963031	 2.4402063965	 0.10095
H	 1.3506396797	-2.0157625935	 3.4579217358	 0.098337
H	-0.2944617311	-2.6288353169	 3.1935933184	 0.097138
H	-0.2892522263	-3.9353229499	 0.8109450502	 0.101252
H	-0.0536302883	-2.7966097	-0.6026632991	 0.132919
H	 2.4009223841	-2.6736745505	-0.1301485323	 0.104543
H	 2.2078258155	-3.8189385833	 1.2788724797	 0.103196
74.0483	96.5782	144.9855	213.032	244.0361	261.5235	282.4974	317.8213	356.3914	397.5706	453.8277	507.9876	578.7285	720.0477	781.2099	789.1347	861.4982	884.7004	899.7499	927.6292	939.6906	965.4227	967.2615	1008.1346	1046.583	1056.6687	1083.4734	1089.5213	1097.3311	1133.7634	1180.1881	1192.6857	1203.7857	1236.5872	1240.4827	1265.6672	1273.8681	1291.2974	1327.896	1371.4821	1394.3301	1401.0574	1417.5885	1455.6101	1479.2366	1490.5468	1494.0108	1495.6377	1501.8202	2990.0534	3023.0119	3037.479	3041.8998	3053.8763	3088.5244	3093.8322	3112.5759	3117.6615	3119.201	3128.9265	3201.6642	3224.8677	3796.0119
CC(O)C1CCC11CC1	C[C@@H](O)[C@H]1CCC21CC2	
InChI=1S/C8H14O/c1-6(9)7-2-3-8(7)4-5-8/h6-7,9H,2-5H2,1H3	InChI=1S/C8H14O/c1-6(9)7-2-3-8(7)4-5-8/h6-7,9H,2-5H2,1H3/t6-,7-/m1/s1
