18
gdb 35515	3.15315	1.42152	1.33666	4.3697	74.51	-0.2551	0.0301	0.2852	1014.5941	0.151214	-401.977425	-401.970362	-401.969418	-402.008985	28.14	
N	-0.1136064136	-1.1773542351	-0.1841973379	-0.334725
C	-0.0693265097	-0.0265221461	-0.0805152076	 0.268499
C	-0.0045070355	 1.4247475937	 0.0466964969	-0.141361
C	-0.6158770523	 1.9853605389	 1.387112565	-0.239527
C	 0.5475449093	 2.8441973773	 1.920893934	 0.111905
C	 1.1779991561	 3.4093188847	 0.6403560638	-0.242137
C	 1.4475284961	 1.9994410253	 0.0762127264	-0.056893
C	 2.1940920919	 1.3776864455	 1.2666066614	-0.086153
O	 1.5588781323	 1.9628438768	 2.4217453833	-0.276748
H	-0.5346368821	 1.8490631309	-0.8119637624	 0.124629
H	-1.5160919952	 2.5734591388	 1.1905908227	 0.111184
H	-0.8655377222	 1.191672263	 2.0923405872	 0.136906
H	 0.2803642512	 3.5454593865	 2.7115221335	 0.084126
H	 0.491131648	 4.0027891845	 0.0310724199	 0.103181
H	 2.0887314079	 3.9799191226	 0.8342287636	 0.11432
H	 1.972002305	 1.9244937325	-0.8758464235	 0.088295
H	 2.1071177898	 0.2865745824	 1.305980113	 0.130271
H	 3.2588425829	 1.6426107678	 1.2607678008	 0.104227
99.9871	158.3232	246.8515	355.1597	402.0782	442.88	515.4027	559.0401	591.6172	757.3947	780.1068	813.1669	850.837	889.116	932.7184	948.2304	952.3165	966.8703	987.2656	1027.3085	1046.5965	1051.2119	1103.7829	1133.745	1180.344	1194.9633	1202.7596	1252.5541	1270.9907	1290.0556	1314.122	1322.2452	1337.1472	1354.8987	1388.077	1479.2838	1492.6796	1532.556	2353.6134	3021.788	3055.8594	3066.1738	3071.9216	3072.8791	3121.433	3124.8356	3128.0589	3134.2175
N#CC1CC2CC1CO2	N#C[C@H]1C[C@@H]2C[C@H]1CO2	
InChI=1S/C7H9NO/c8-3-5-1-7-2-6(5)4-9-7/h5-7H,1-2,4H2	InChI=1S/C7H9NO/c8-3-5-1-7-2-6(5)4-9-7/h5-7H,1-2,4H2/t5-,6+,7-/m1/s1
