18
gdb 92692	2.99908	1.3657	0.9739	2.1385	75.8	-0.2274	-0.0262	0.2011	1199.4772	0.149779	-435.327627	-435.319098	-435.318154	-435.360444	32.887	
C	 0.0006729289	 1.5529496141	 0.0161061854	-0.410158
C	 0.0297456031	 0.0279187597	-0.0092544105	 0.036875
C	 0.6630902726	-0.5306047992	-1.2873234849	-0.146893
N	 0.8894347063	-1.9676477771	-1.2722612185	-0.321992
C	 1.140043332	-2.5079942247	-0.1399265939	 0.273092
N	 1.349560669	-3.8460849505	 0.0162778411	-0.541793
C	 1.2487198664	-1.7592242757	 1.1827328579	 0.387478
O	 1.7357105612	-2.2787511439	 2.1743375278	-0.389247
N	 0.798653218	-0.4823459183	 1.1279574659	-0.346046
H	 1.0130406757	 1.9633292846	-0.0532656025	 0.129828
H	-0.5864804363	 1.9338412955	-0.8242794701	 0.131036
H	-0.4593947597	 1.9255979783	 0.9379628636	 0.118515
H	-1.0039504993	-0.3477394975	 0.0540349056	 0.091198
H	 0.0116236566	-0.2905402808	-2.1348543835	 0.108017
H	 1.6178517714	-0.012653451	-1.4721835603	 0.103899
H	 1.5484191085	-4.380185006	-0.8137426324	 0.256981
H	 1.7983275121	-4.1109819289	 0.880182744	 0.271393
H	 0.7683006435	 0.0082349015	 2.0111662953	 0.247818
101.9542	128.8614	237.8776	261.7688	274.5847	334.9535	368.7783	433.325	447.1395	487.0088	531.2959	538.7619	573.8819	618.8813	678.8679	758.5955	820.8948	886.603	944.5005	974.7122	1011.4251	1080.7432	1131.8212	1197.3678	1205.4	1254.9755	1308.7652	1344.8152	1370.0597	1384.5995	1410.8133	1432.5539	1458.8914	1488.3938	1495.3069	1499.9293	1593.6983	1727.7676	1787.3096	2969.2332	2984.7723	3034.4514	3057.952	3101.9355	3119.8758	3580.7388	3596.1123	3712.2493
CC1CN=C(N)C(=O)N1	C[C@H]1CN=C(N)C(=O)N1	
InChI=1S/C5H9N3O/c1-3-2-7-4(6)5(9)8-3/h3H,2H2,1H3,(H2,6,7)(H,8,9)	InChI=1S/C5H9N3O/c1-3-2-7-4(6)5(9)8-3/h3H,2H2,1H3,(H2,6,7)(H,8,9)/t3-/m0/s1
