18
gdb 91717	2.64853	1.65592	1.49736	2.7237	71.12	-0.2637	0.0225	0.2861	976.6646	0.150154	-439.11223	-439.104963	-439.104018	-439.143847	28.963	
C	-0.1676002549	 1.560958471	 0.0145065486	-0.412778
C	 0.034633104	 0.0480970266	-0.0074858827	 0.00492
C	 0.8872577668	-0.50732734	-1.1956949403	-0.258588
C	 1.983797053	-1.2893397611	-0.4262529666	-0.034455
O	 1.2590599196	-1.791327778	 0.7170075617	-0.246098
C	 0.8508655341	-0.5264402146	 1.1731388942	 0.168021
O	 2.0905244074	 0.2193917854	 1.2851582394	-0.258986
C	 2.8643641198	-0.2568731153	 0.2532427302	 0.445845
N	 4.0243268646	 0.1131582428	-0.0649995441	-0.559323
H	 0.7899163929	 2.088426576	 0.0158992994	 0.134876
H	-0.7361588209	 1.8863451833	-0.8618624705	 0.121803
H	-0.7239790141	 1.8729565345	 0.9049890572	 0.118345
H	-0.9395410176	-0.4507005857	 0.0082037579	 0.090249
H	 0.3115227154	-1.184892812	-1.8286806579	 0.116012
H	 1.3110756418	 0.2807796486	-1.8221587558	 0.125761
H	 2.5064084046	-2.0838406477	-0.9499248911	 0.11486
H	 0.3786146757	-0.5789769327	 2.152415847	 0.103093
H	 4.3568110278	 0.8517713289	 0.5576358533	 0.226445
105.9584	194.5704	233.6559	266.4887	373.4841	415.3441	502.4928	542.2395	605.3696	710.4804	760.4323	775.8232	843.6491	860.0201	884.2873	901.5467	917.9602	945.891	961.8508	1003.3685	1016.6611	1062.7688	1089.8991	1120.8853	1129.7325	1196.1832	1234.3571	1252.0971	1263.6736	1311.575	1319.5054	1330.3747	1361.936	1379.6151	1415.9166	1490.0729	1497.5978	1500.8615	1807.2784	3038.7008	3056.0985	3075.6868	3102.1432	3122.2948	3127.3911	3150.1537	3181.4925	3470.3414
CC1CC2OC1OC2=N	C[C@H]1C[C@@H]2O[C@H]1O[C]2[NH]	
InChI=1S/C6H9NO2/c1-3-2-4-5(7)9-6(3)8-4/h3-4,6-7H,2H2,1H3	InChI=1S/C6H9NO2/c1-3-2-4-5(7)9-6(3)8-4/h3-4,6-7H,2H2,1H3/t3-,4-,6-/m0/s1
