17
gdb 32183	2.12036	1.63568	0.99057	1.6062	77.07	-0.2397	-0.0496	0.1901	1183.628	0.137013	-418.072193	-418.06386	-418.062916	-418.105545	30.269	
C	 0.009010459	 1.5338361937	-0.1430748811	-0.380246
C	-0.0333155078	 0.0085049166	 0.0665966208	-0.29838
C	-1.4193435941	-0.5564568601	 0.0778797925	 0.362026
N	-2.0930344941	-0.8564095621	 1.1535851051	-0.305146
C	-3.335958296	-1.304349835	 0.7228913639	-0.095428
C	-3.4202840288	-1.2764774113	-0.6305230307	-0.106881
N	-2.1871384166	-0.793585511	-1.0669689373	-0.097549
C	-1.8183617725	-0.6220711555	-2.4002539543	 0.171278
O	-2.546074033	-0.8539857838	-3.3287205011	-0.282727
H	 1.0393538765	 1.8970801129	-0.0905783609	 0.12478
H	-0.3996185135	 1.8231211732	-1.116526446	 0.119075
H	-0.574464742	 2.0419551311	 0.6294921995	 0.140844
H	 0.583404193	-0.4916040272	-0.6893278932	 0.113616
H	 0.3978924284	-0.2385760075	 1.0398213611	 0.142443
H	-4.0870581446	-1.6212659683	 1.4299084322	 0.12238
H	-4.1850581947	-1.5410645684	-1.3391675704	 0.159763
H	-0.7860291589	-0.2519070773	-2.50689566	 0.110153
81.6637	135.9983	144.1217	192.8214	234.3473	270.7643	352.1804	396.7337	543.8248	630.6558	638.091	733.5593	780.8244	794.1768	832.3769	882.198	923.5242	973.646	1033.6153	1054.0939	1080.2785	1089.2427	1151.0036	1177.1746	1267.5942	1305.6779	1343.078	1377.5769	1407.9156	1424.0805	1444.8829	1481.4683	1497.4904	1504.4104	1540.8262	1598.0788	1822.6917	3012.2325	3041.5776	3042.7791	3098.8213	3117.1404	3125.2447	3256.7248	3304.3744
CCC1=NC=CN1C=O	CCc1nccn1C=O	
InChI=1S/C6H8N2O/c1-2-6-7-3-4-8(6)5-9/h3-5H,2H2,1H3	InChI=1S/C6H8N2O/c1-2-6-7-3-4-8(6)5-9/h3-5H,2H2,1H3
