20
gdb 40025	3.41435	1.5365	1.44228	1.6618	81.12	-0.2251	0.0894	0.3144	998.2559	0.173843	-365.968623	-365.961684	-365.960739	-365.999717	29.176	
C	-0.0103404294	 1.5241944145	 0.017709675	-0.31064
C	 1.289461635	 0.7567228956	-0.0259189388	-0.336914
C	-0.0178780634	 0.0149690289	 0.0288244777	 0.392049
C	-0.4428263032	-0.811419311	 1.2484037874	-0.301963
C	-1.5151856204	-1.7216919673	 0.6579425653	 0.007423
C	-2.7040970585	-0.9351727323	 0.0421434388	-0.255407
C	-1.9721237994	-1.0726902865	-1.2839504482	-0.035601
C	-0.5194315126	-0.7777881646	-1.1529435874	-0.114232
N	-1.0138494536	-2.1126779615	-0.7398725766	-0.157045
H	-0.2662719107	 2.0458963322	 0.9344544978	 0.109855
H	-0.337013396	 2.0282534608	-0.8863245271	 0.11228
H	 1.8485617671	 0.7463603343	-0.9563826832	 0.11265
H	 1.9106969986	 0.7525411523	 0.8641800469	 0.111364
H	 0.3953019706	-1.4110244454	 1.62270523	 0.10768
H	-0.8211190542	-0.2014183218	 2.0750498356	 0.100376
H	-1.7677854764	-2.5901053202	 1.2657945813	 0.077617
H	-3.6271133684	-1.5188062312	 0.0523447055	 0.108586
H	-2.910858064	 0.0707553583	 0.4220319892	 0.098469
H	-2.4423985964	-1.1952840119	-2.2557335362	 0.086583
H	 0.0684315153	-0.7847467833	-2.0666002631	 0.086871
104.4899	236.3635	282.227	348.5644	373.5124	493.3661	516.1857	636.6392	755.6236	770.4361	789.6483	804.9889	821.6441	841.1992	858.1384	904.4396	942.4227	946.4987	980.9671	992.6566	1008.5875	1035.5454	1052.0771	1062.2349	1071.5992	1081.5413	1101.1476	1141.2159	1173.4673	1177.8967	1190.4021	1254.7047	1264.1739	1273.8143	1298.632	1314.7432	1337.4907	1370.998	1417.7798	1466.6821	1483.466	1493.1204	1503.8819	3032.3148	3043.9869	3082.0609	3104.251	3117.1178	3120.3112	3124.4724	3142.0878	3154.5441	3198.186	3213.6383
C1CC11CC2CC3C1N23	C1CC21C[C@H]1C[C@H]3[C@@H]2N13	
InChI=1S/C8H11N/c1-2-8(1)4-5-3-6-7(8)9(5)6/h5-7H,1-4H2	InChI=1S/C8H11N/c1-2-8(1)4-5-3-6-7(8)9(5)6/h5-7H,1-4H2/t5-,6+,7+,9?/m1/s1
