17
gdb 98250	2.46754	1.21662	0.94758	4.2819	66.43	-0.2661	-0.0424	0.2237	1268.9428	0.131969	-496.14562	-496.135332	-496.134388	-496.182003	34.901	
C	-0.2521620358	 1.3485400701	 0.0308033412	-0.24537
O	-0.2156128312	-0.0752937495	-0.1597830488	-0.232292
C	 0.6995080673	-0.5111264786	-1.0516806247	 0.397221
O	 1.4438460745	 0.1999885574	-1.6660672568	-0.334091
C	 0.6622692207	-2.0495787152	-1.1610144401	-0.066554
O	 1.1001204464	-2.468820288	-2.4085855264	-0.405205
C	 1.5600970272	-2.6484106605	-0.0522540661	 0.359658
C	 1.0810133993	-2.6024061594	 1.3751023486	-0.484219
O	 2.6053367717	-3.1545662404	-0.3910549661	-0.306151
H	 0.7112845674	 1.7124604489	 0.3960137888	 0.145049
H	-0.4849190553	 1.8511515777	-0.9106406514	 0.150684
H	-1.0356551394	 1.5294918954	 0.7662317304	 0.137259
H	-0.3735928278	-2.3684411848	-0.987314647	 0.118828
H	 2.0125641626	-2.7730950116	-2.2728849381	 0.299232
H	 0.6183647832	-1.6408456936	 1.6078417324	 0.157371
H	 0.307216526	-3.3689712776	 1.5065534618	 0.156676
H	 1.9073615931	-2.8162506204	 2.0539100223	 0.151903
46.1322	71.0111	108.8191	117.2496	120.1532	207.5724	230.9479	298.1439	330.4129	366.2345	413.0545	465.1564	526.3783	630.8843	683.1239	752.9636	844.5037	908.8561	975.2269	1009.5916	1046.3888	1155.5013	1166.8256	1178.4286	1207.5925	1224.8402	1238.1011	1346.3883	1388.5564	1437.4824	1466.5054	1468.7284	1473.8449	1481.2998	1496.8409	1803.5778	1848.0449	3035.7417	3043.3531	3055.9303	3115.7155	3133.6695	3162.7801	3164.024	3681.0757
COC(=O)C(O)C(C)=O	COC(=O)[C@@H](O)C(=O)C	
InChI=1S/C5H8O4/c1-3(6)4(7)5(8)9-2/h4,7H,1-2H3	InChI=1S/C5H8O4/c1-3(6)4(7)5(8)9-2/h4,7H,1-2H3/t4-/m0/s1
