12
gdb 129940	2.08424	1.99518	1.02158	5.224	70.11	-0.2058	-0.0807	0.1251	1043.6044	0.077605	-468.811545	-468.803861	-468.802916	-468.843908	27.926	
N	 0.2859539625	 1.2710973635	 0.1870032803	-0.613266
C	 0.0685896253	-0.0998267186	 0.0232367085	 0.115363
C	-1.0721386615	-0.8134306709	-0.0272024981	-0.047657
O	-0.8535716266	-2.1867144301	-0.0701348755	-0.208268
C	 0.5027326606	-2.4349788455	-0.0712258206	 0.408994
C	 1.1236136225	-1.1007456901	-0.0049538666	 0.168672
N	 2.4078456819	-0.9194262418	 0.0706640337	 0.095087
N	 3.5313048781	-0.7857932984	 0.1342443239	-0.210201
O	 0.9806107543	-3.5330300598	-0.1148893384	-0.357732
H	 0.9186108247	 1.6598021993	-0.5041374674	 0.253565
H	-0.5773277192	 1.8000770172	 0.1763547477	 0.254792
H	-2.1052446926	-0.5082269448	-0.0213501975	 0.140651
116.4102	131.6644	195.1636	241.4227	305.7273	356.3726	450.6812	519.7906	531.7081	552.2939	633.3507	692.8433	704.963	741.2802	759.5263	781.6606	1019.184	1092.8807	1104.6689	1169.5788	1314.9416	1346.0833	1476.4711	1645.3578	1696.4882	1863.6874	2219.3303	3278.0635	3513.7222	3609.3054
NC1=COC2=C1N=NO2	NC1=C(C(=O)O[CH]1)[N][N]	
InChI=1S/C4H3N3O2/c5-2-1-8-4-3(2)6-7-9-4/h1H,5H2	InChI=1S/C4H3N3O2/c5-2-1-9-4(8)3(2)7-6/h1H,5H2
