16
gdb 9809	3.56076	1.69113	1.26909	2.8056	72.73	-0.2603	-0.0569	0.2034	961.711	0.128005	-346.576599	-346.568209	-346.567264	-346.609515	30.885	
C	 0.0790157391	 1.4971088449	-0.2262093461	-0.487705
C	 0.082372193	-0.0138500439	-0.1118281565	 0.228991
C	 1.4193763974	-0.7452442149	-0.0162975883	-0.274739
C	 0.5515861154	-0.6558548975	 1.1917826742	-0.27476
C	-0.9842156545	-0.7901052733	-0.8205009784	 0.190184
O	-1.0536013782	-2.0046112041	-0.7804206145	-0.319116
C	-1.963003782	-0.0263205849	-1.5801413172	 0.247978
C	-2.7848667149	 0.5822275891	-2.2155808771	-0.408927
H	 0.9123359695	 1.9198756113	 0.3423816104	 0.114902
H	 0.1838357194	 1.8230094147	-1.2658327806	 0.128795
H	-0.8470014569	 1.9291042824	 0.1660414475	 0.128815
H	 1.4767295853	-1.703285755	-0.5193189934	 0.139614
H	 2.3096900147	-0.1286983663	-0.0717443045	 0.116966
H	 0.8286589276	 0.0237777304	 1.9900214588	 0.116968
H	 0.028109565	-1.5540882756	 1.4972706534	 0.139617
H	-3.5159600402	 1.1086887328	-2.7797538477	 0.212417
45.421	146.9548	202.6133	230.5622	273.8864	303.0308	336.4203	355.1123	472.1591	553.9034	642.7257	682.9148	700.9085	760.5229	795.7533	834.9935	847.1742	960.1067	961.132	1047.2664	1076.9625	1091.5792	1108.961	1120.6276	1205.8601	1316.3182	1330.3799	1422.3246	1451.3463	1482.6062	1490.2317	1498.9405	1735.5977	2209.3955	3036.9985	3103.1083	3109.4902	3138.8101	3140.5235	3228.3088	3241.8664	3494.113
CC1(CC1)C(=O)C#C	CC1(CC1)C(=O)C#C	
InChI=1S/C7H8O/c1-3-6(8)7(2)4-5-7/h1H,4-5H2,2H3	InChI=1S/C7H8O/c1-3-6(8)7(2)4-5-7/h1H,4-5H2,2H3
