22
gdb 58903	2.83733	1.20734	1.19378	2.1787	80.82	-0.229	0.071	0.3	1202.2628	0.194984	-404.33588	-404.326814	-404.325869	-404.369525	35.233	
C	 0.1231536714	 1.5158329322	-0.0148351552	-0.417244
C	-0.0186409717	-0.0066736896	-0.0226827654	 0.030411
O	 0.7948769535	-0.6228091243	 0.9753683818	-0.431639
C	-1.4618668953	-0.4760270685	 0.0935639487	 0.369247
C	-1.9465545462	-1.6138948541	-0.7304696788	-0.305863
N	-2.337323932	-0.2356056807	-1.0731791691	-0.135547
C	-3.6628937038	 0.147262603	-0.5514923461	-0.149733
C	-3.7181652805	-0.2333494483	 0.9474415051	-0.243262
C	-2.2362391502	-0.2075378073	 1.3825794823	-0.302154
H	 1.1714991021	 1.7934058591	-0.1538367054	 0.122324
H	-0.47034672	 1.9559307764	-0.8211198788	 0.135605
H	-0.2157684984	 1.9495578661	 0.9338199787	 0.103673
H	 0.3744793656	-0.3828778091	-0.9732266671	 0.091631
H	 0.5837586626	-0.2102215313	 1.8197034293	 0.278469
H	-1.2730703908	-2.0813436185	-1.4436935622	 0.11424
H	-2.6944652584	-2.2865018235	-0.3172446057	 0.105937
H	-3.7592286231	 1.2313051002	-0.6791194761	 0.105791
H	-4.4538897393	-0.3246603738	-1.1429758002	 0.105671
H	-4.3381080452	 0.4553318287	 1.5266034107	 0.102495
H	-4.1430508659	-1.2315204415	 1.0847753122	 0.109919
H	-2.0166459339	-0.9395975011	 2.1651950612	 0.109675
H	-1.9707713206	 0.7807418961	 1.77588236	 0.100354
57.2928	136.2176	199.697	246.0284	247.094	269.8788	286.7268	336.1383	434.4002	465.9015	520.251	611.1036	645.8287	701.5185	809.5409	822.9298	882.1021	896.8422	910.5496	933.8306	946.2111	996.0413	1025.3465	1030.8747	1068.9043	1086.9949	1112.933	1115.9113	1173.695	1191.7788	1205.275	1261.6612	1268.0173	1282.2949	1312.6397	1329.4403	1352.6413	1359.9839	1393.8551	1406.1609	1420.8421	1489.3942	1494.5072	1494.9892	1498.6366	1505.2966	1527.8281	3028.7446	3038.1244	3040.705	3053.8812	3060.1007	3082.1664	3084.7713	3101.5892	3104.2203	3109.6134	3125.3874	3186.6926	3806.0369
CC(O)C12CN1CCC2	C[C@@H](O)[C@]12CN1CCC2	
InChI=1S/C7H13NO/c1-6(9)7-3-2-4-8(7)5-7/h6,9H,2-5H2,1H3	InChI=1S/C7H13NO/c1-6(9)7-3-2-4-8(7)5-7/h6,9H,2-5H2,1H3/t6-,7+,8?/m1/s1
