17
gdb 125198	3.27	1.58055	1.09372	5.5955	75.53	-0.2074	0.0174	0.2249	1084.0832	0.139267	-414.187688	-414.179997	-414.179053	-414.220323	28.395	
C	-0.0637836871	 1.5167516071	 0.1003061739	-0.510786
C	-0.0560079683	 0.0324135765	-0.0581746552	 0.180286
C	 0.1179062711	-0.7679338632	-1.1680144499	 0.310191
N	 0.4502682658	-0.7718855152	-2.5251667275	-0.418278
C	 0.1641483331	-2.1522053318	-2.9989835992	-0.182266
C	 0.2989626765	-3.0275227066	-1.7219397402	-0.173414
N	 0.0078132732	-2.0294309172	-0.7092987899	 0.057487
N	-0.1882226688	-2.067002791	 0.6272109151	-0.19373
N	-0.2454188374	-0.8184526357	 1.0046793437	-0.245681
H	 0.8524143015	 1.9758898918	-0.2879571111	 0.125587
H	-0.9101628791	 1.9883148088	-0.4136647803	 0.120391
H	-0.1419249479	 1.7584746066	 1.1626065233	 0.14985
H	 0.0119068485	-0.0481891141	-3.0789579921	 0.249067
H	-0.8559717709	-2.2346391344	-3.3969504581	 0.12012
H	 0.8670319777	-2.4491579934	-3.7802129699	 0.128221
H	-0.4092757452	-3.8571814044	-1.6971413515	 0.144017
H	 1.3139387274	-3.4199297738	-1.5949935813	 0.138939
67.9554	137.7522	171.4341	240.4613	259.1136	339.5771	481.4476	563.8966	631.6503	663.9695	689.5675	720.1519	798.1311	852.1825	891.6682	950.0861	995.8866	1033.3745	1068.0917	1106.4428	1121.7657	1185.9383	1223.5273	1231.0245	1250.957	1293.4554	1328.5344	1340.7453	1358.2854	1415.5819	1433.049	1486.3343	1491.4095	1504.6371	1520.8949	1546.1835	1645.5973	3015.2201	3024.8683	3047.2757	3072.7815	3102.795	3121.9442	3128.6355	3576.7969
CC1=C2NCCN2N=N1	Cc1c2NCCn2nn1	
InChI=1S/C5H8N4/c1-4-5-6-2-3-9(5)8-7-4/h6H,2-3H2,1H3	InChI=1S/C5H8N4/c1-4-5-6-2-3-9(5)8-7-4/h6H,2-3H2,1H3
