13
gdb 24852	2.54846	1.80293	1.14119	1.7203	69.43	-0.2698	-0.1073	0.1626	993.0121	0.091539	-448.957359	-448.950228	-448.949284	-448.989353	26.32	
N	-0.0927203154	 1.1571130357	 0.592395506	-0.493911
C	 0.0161905475	 0.0201033218	 0.0390752367	 0.372923
N	-1.169932416	-0.6458412553	-0.3422191048	-0.341178
C	-1.4844222676	-1.9793098626	-0.2243807605	 0.383245
O	-2.5766446773	-2.4241384455	-0.5066942835	-0.338724
C	-0.4418201625	-2.8892255311	 0.3796919114	-0.041502
N	 0.8279404915	-2.8172982158	 0.3348053147	-0.202386
C	 1.5056073957	-1.779919703	-0.3118326429	 0.076955
N	 1.2254094007	-0.5402954582	-0.3903074169	-0.240063
H	 0.8314206268	 1.5785987635	 0.6849927732	 0.238105
H	-1.9698986992	-0.0396057655	-0.4827436862	 0.277869
H	-0.8936730752	-3.7366054397	 0.8975782714	 0.162401
H	 2.4571473011	-2.1059917142	-0.7311047385	 0.146267
93.0497	111.7766	251.6178	315.9275	384.0336	441.2741	479.288	517.6401	610.1545	671.4489	701.219	723.764	819.0492	865.3246	897.1329	945.1226	966.3001	1013.2848	1057.406	1122.297	1326.6645	1373.7779	1377.6984	1424.826	1435.3616	1679.4077	1715.6131	1725.5629	1786.6359	3131.1133	3142.2369	3500.0554	3574.829
N=C1NC(=O)C=NC=N1	[NH][C]1NC(=O)C=NC=N1	
InChI=1S/C4H4N4O/c5-4-7-2-6-1-3(9)8-4/h1-2H,(H2,5,8,9)	InChI=1S/C4H4N4O/c5-4-7-2-6-1-3(9)8-4/h1-2H,(H2,5,8,9)
