16
gdb 127039	3.42587	1.07937	0.82928	0.9747	68.16	-0.2116	0.0086	0.2202	1345.1335	0.124201	-471.20028	-471.191199	-471.190255	-471.234919	31.577	
C	-0.0260687193	 1.4999314017	 0.0026778557	-0.392493
C	-0.030620994	-0.0163770116	-0.0035252244	-0.041518
O	 0.7145677416	-0.4563933434	 1.1400194517	-0.273126
C	 0.8162653275	-1.7812458788	 1.2970122422	 0.342244
N	 0.2913870357	-2.6985333723	 0.4933947688	-0.298938
N	 0.6605902448	-3.8487624475	 1.0611456584	-0.112179
N	 1.3890014359	-3.7475634628	 2.1764988978	-0.294882
C	 1.5007768808	-2.4404258567	 2.346642595	 0.281655
O	 2.1644288282	-1.8592611389	 3.3632707869	-0.424746
H	 0.995947071	 1.8848555193	-0.0525728791	 0.13167
H	-0.5860035513	 1.8769841965	-0.8581792128	 0.120442
H	-0.4904030285	 1.8855249911	 0.9145098178	 0.131656
H	-1.0488789637	-0.4203086557	 0.0525449647	 0.116082
H	 0.4315698683	-0.4207491614	-0.912392339	 0.11604
H	 0.4077104152	-4.7385035139	 0.6707491471	 0.289884
H	 2.5248986178	-2.5646735555	 3.9144558992	 0.308209
68.3026	80.9776	119.013	136.0486	243.3987	286.0508	300.9245	340.0065	352.6504	430.5624	557.6548	674.4855	679.163	744.775	815.5611	823.4565	928.7527	967.1626	1069.3949	1131.1761	1155.6917	1183.8467	1191.1142	1260.9582	1293.0877	1311.8895	1397.5628	1422.0424	1435.7797	1480.6489	1483.8652	1498.4214	1522.1578	1603.8131	1637.4454	3024.9608	3047.4161	3061.3889	3122.2715	3126.1301	3704.8149	3803.1294
CCOC1=NNN=C1O	CCOc1n[nH]nc1O	
InChI=1S/C4H7N3O2/c1-2-9-4-3(8)5-7-6-4/h2H2,1H3,(H2,5,6,7,8)	InChI=1S/C4H7N3O2/c1-2-9-4-3(8)5-7-6-4/h2H2,1H3,(H2,5,6,7,8)
