22
gdb 76225	2.56354	1.48896	1.16066	1.4408	88.03	-0.2189	0.0221	0.241	1180.7594	0.193805	-367.213618	-367.204346	-367.203402	-367.246863	36.128	
C	-0.1154657797	 1.5221155278	 0.0341630182	-0.399999
C	 0.0061593397	-0.0076104783	-0.0158925411	-0.120524
C	 0.8007284417	-0.5406245301	-1.2071937806	 0.314894
C	 0.4562618399	-0.1627529332	-2.6129102749	-0.491812
C	 1.7956559453	-1.3435856143	-0.8128544709	-0.164203
C	 1.8637414688	-1.424835198	 0.671515147	-0.137667
N	 2.1356273946	-0.0944644241	 1.3067886011	-0.372557
C	 0.7456227418	-0.5980295974	 1.1972715805	 0.328069
C	-0.0310939184	-0.9196882544	 2.4468961448	-0.493908
H	 0.8769324496	 1.9731171739	 0.1127286893	 0.139609
H	-0.6125783598	 1.9150842878	-0.8581614925	 0.108076
H	-0.7044630782	 1.8362655002	 0.9026978892	 0.107644
H	-1.0108818709	-0.4300560884	-0.0509941743	 0.068503
H	 0.594226732	 0.911566618	-2.7872898993	 0.13129
H	 1.0780782738	-0.700288826	-3.3340467378	 0.121783
H	-0.59598828	-0.3816186239	-2.8378315457	 0.119494
H	 2.4944779863	-1.8444513052	-1.4734766352	 0.08699
H	 2.2170791559	-2.3176201759	 1.1781216442	 0.080592
H	 2.4494690197	-0.2546345489	 2.2642632634	 0.216984
H	-0.4159548369	-0.008468548	 2.9210456179	 0.123472
H	-0.8891087034	-1.5641477544	 2.2253212504	 0.122255
H	 0.5956728683	-1.437470587	 3.1811045462	 0.111015
108.0598	178.4591	196.3762	212.5945	231.9695	247.6975	258.4568	308.5379	377.6973	473.6428	493.7092	541.5173	593.939	690.3559	717.1139	798.0146	828.4406	854.4294	877.5747	923.5816	975.4606	1001.8799	1016.1691	1037.2338	1063.4424	1074.1563	1103.4217	1106.7834	1129.9377	1140.982	1197.2023	1268.0469	1289.7803	1318.0592	1345.2047	1359.3216	1401.3967	1411.7578	1412.9734	1436.7553	1477.2128	1483.3623	1486.6673	1498.5245	1500.1722	1505.3903	1701.8783	2974.2367	3015.1309	3019.534	3035.4872	3061.6165	3080.2025	3093.2649	3096.4655	3108.4515	3125.9122	3157.3079	3192.3901	3455.4241
CC1C(C)=CC2NC12C	C[C@H]1C(=C[C@H]2N[C@@]12C)C	
InChI=1S/C8H13N/c1-5-4-7-8(3,9-7)6(5)2/h4,6-7,9H,1-3H3	InChI=1S/C8H13N/c1-5-4-7-8(3,9-7)6(5)2/h4,6-7,9H,1-3H3/t6-,7+,8-/m0/s1
