18
gdb 10507	2.96032	1.57251	1.20546	2.8337	68.43	-0.2444	-0.0193	0.2251	1040.1442	0.150843	-384.922455	-384.913525	-384.912581	-384.956686	31.641	
C	-1.3443157456	 0.3531235958	-0.3190745482	-0.256434
O	 0.024262169	 0.0807946865	-0.0669609467	-0.280698
C	 0.6405546757	-0.7488173651	-1.0137283914	 0.43432
C	 0.8361170109	-0.1072374378	-2.3768867651	-0.355607
C	 1.5533562848	 1.22409846	-2.2542227251	 0.175589
O	 1.1814337993	 2.2473792276	-2.7666628407	-0.244496
C	 1.7064869618	-1.6312967065	-0.4339327114	-0.314249
C	 0.3941163291	-2.2329754172	-0.8975199871	-0.328826
H	-1.4840722846	 0.9820172663	-1.2082376653	 0.123912
H	-1.9224711917	-0.5728164411	-0.4445971534	 0.108488
H	-1.720767244	 0.8942139107	 0.5517907215	 0.131368
H	 1.45151419	-0.7705908819	-2.9986708479	 0.122019
H	-0.1091021872	 0.0551171614	-2.9037775879	 0.12094
H	 2.4807966309	 1.189829956	-1.6391076929	 0.080608
H	 2.6010051842	-1.8214577399	-1.016809979	 0.113607
H	 1.8650202096	-1.5511855739	 0.6348531951	 0.130302
H	-0.298382727	-2.5538422376	-0.1277193894	 0.12397
H	 0.3840607849	-2.8362802931	-1.798783805	 0.115186
43.3953	91.2405	121.5629	177.0096	213.5063	265.1969	317.319	347.8853	437.551	487.0249	555.4179	719.5957	769.163	807.0051	888.9812	912.1631	953.7799	970.0978	1033.9791	1053.384	1076.3085	1088.4462	1103.5559	1182.276	1185.2172	1189.9161	1222.5933	1279.9093	1307.3624	1350.9313	1426.1298	1450.5105	1458.0319	1475.669	1496.7024	1497.0875	1508.4857	1836.5124	2879.6475	2998.4856	3032.4393	3055.786	3091.9094	3122.2979	3134.9283	3140.5471	3220.2474	3235.1901
COC1(CC=O)CC1	COC1(CC=O)CC1	
InChI=1S/C6H10O2/c1-8-6(2-3-6)4-5-7/h5H,2-4H2,1H3	InChI=1S/C6H10O2/c1-8-6(2-3-6)4-5-7/h5H,2-4H2,1H3
