19
gdb 79081	3.03404	1.76038	1.29701	1.3587	79.54	-0.2163	0.0087	0.225	997.0306	0.15951	-385.831402	-385.823815	-385.822871	-385.862723	31.432	
C	 0.0699376662	 1.5821349901	-0.1908720701	-0.522031
C	 0.0617036694	 0.0710804904	-0.0730221586	 0.334856
C	 0.3545079261	-0.7223458428	-1.3474246865	-0.151344
C	 0.2858669855	-1.9996400052	-0.9790035062	-0.117284
C	-0.0444457703	-1.9265265127	 0.4999044261	-0.069207
C	 0.7797709409	-0.7286136179	 1.1022300045	-0.112406
C	-0.3947282064	-0.4674926516	 2.0583271676	 0.123143
O	-0.4521940552	 0.8095002903	 2.6533231508	-0.437005
C	-1.0684904619	-0.7482497814	 0.690112128	-0.144473
H	 1.0472817326	 1.9291476544	-0.5468761481	 0.111676
H	-0.6754171382	 1.9083215746	-0.9263772105	 0.108336
H	-0.1423960366	 2.0669599332	 0.7601272687	 0.142848
H	 0.5675272898	-0.2882052327	-2.3151370971	 0.096327
H	 0.4248558025	-2.9022902042	-1.5570313144	 0.102633
H	-0.1632330706	-2.8396545215	 1.0843092497	 0.061418
H	 1.8477756423	-0.726498268	 1.3368689935	 0.067664
H	-0.5532716827	-1.2500321503	 2.8139223941	 0.06159
H	-1.2963172697	 0.8883742639	 3.1081847184	 0.282668
H	-2.1353676537	-0.7714223085	 0.4464103201	 0.060592
192.7038	214.6927	252.3249	268.8877	330.0651	337.5916	436.4057	500.3771	520.2386	639.6907	682.1807	723.5262	766.3043	767.3344	803.4602	865.5906	905.4004	916.3009	927.9519	930.7423	976.4404	1038.0699	1064.83	1077.9889	1106.1905	1115.966	1136.6612	1145.1492	1174.0502	1192.6065	1208.4088	1249.6125	1282.636	1305.8381	1311.8776	1344.4478	1406.4986	1449.3447	1492.7831	1508.5706	1646.7517	2996.1627	3026.703	3064.6259	3076.9156	3080.0931	3111.2788	3166.9105	3212.8182	3243.1364	3821.6881
CC12C=CC3C1C(O)C23	C[C@@]12C=C[C@H]3[C@@H]1[C@@H](O)[C@@H]23	
InChI=1S/C8H10O/c1-8-3-2-4-5(8)7(9)6(4)8/h2-7,9H,1H3	InChI=1S/C8H10O/c1-8-3-2-4-5(8)7(9)6(4)8/h2-7,9H,1H3/t4-,5+,6-,7+,8+
