19
gdb 104232	2.16817	1.46866	1.07722	3.4641	75.07	-0.2315	0.023	0.2545	1193.6771	0.158481	-456.326347	-456.316674	-456.31573	-456.361048	35.137	
C	 0.018728235	 1.2722488153	 0.3355992772	-0.344055
N	-0.0988960662	-0.1777221065	 0.4146091553	-0.352599
C	-1.1571295089	-0.7196338906	-0.0217481773	 0.390733
N	-2.3516364093	-0.3146782832	-0.595422385	-0.359775
C	-2.9721863746	-1.653563855	-0.5187028929	-0.21691
C	-1.6095544497	-2.1891895224	 0.0092747851	 0.288024
O	-0.984035561	-3.0633924362	-0.8909592797	-0.47481
C	-1.5205940649	-2.7326687757	 1.4339408459	-0.124114
O	-0.1461582271	-2.8637769861	 1.7595144712	-0.434364
H	 1.0759183599	 1.5509643087	 0.3205744226	 0.129407
H	-0.4554479697	 1.6943989063	-0.5626716615	 0.10777
H	-0.4329833706	 1.7545370311	 1.2138794684	 0.117749
H	-2.8164384797	 0.5748997557	-0.494855749	 0.24741
H	-3.8034426574	-1.7298556656	 0.1910070414	 0.110177
H	-3.262989879	-2.064186875	-1.4882533657	 0.127791
H	-0.1854303742	-3.366898073	-0.4359884439	 0.290114
H	-2.0530559573	-2.0746963985	 2.1374059405	 0.0884
H	-1.9631219807	-3.7330674988	 1.489727874	 0.111999
H	 0.2415402254	-1.9785576203	 1.6412944334	 0.297054
64.2479	113.1724	128.9794	147.6849	195.1681	239.8678	311.6113	333.6336	347.5783	399.4701	467.4591	493.7366	580.1835	674.1556	724.4873	748.9679	802.6082	926.5796	940.7368	987.5417	1030.7686	1050.1109	1070.6448	1116.2433	1147.6897	1149.3976	1169.9277	1198.0473	1226.3903	1262.8124	1320.1173	1357.0802	1369.3337	1427.173	1437.9353	1468.5111	1489.5972	1496.944	1505.6369	1510.8752	1803.262	2985.876	2989.1057	3038.9809	3040.3481	3074.3185	3096.2924	3107.8737	3614.8038	3635.2394	3746.0944
CN=C1NCC1(O)CO	CN=C1NC[C@]1(O)CO	
InChI=1S/C5H10N2O2/c1-6-4-5(9,3-8)2-7-4/h8-9H,2-3H2,1H3,(H,6,7)	InChI=1S/C5H10N2O2/c1-6-4-5(9,3-8)2-7-4/h8-9H,2-3H2,1H3,(H,6,7)/t5-/m0/s1
