19
gdb 75797	3.00676	1.2734	1.06742	2.7849	75.57	-0.2329	-0.0208	0.2121	1176.6473	0.157389	-423.020756	-423.011906	-423.010962	-423.054841	32.683	
C	-0.6328518754	 1.214494155	 0.052110022	-0.422988
C	 0.0967536706	-0.1174209526	-0.0118180804	-0.151432
C	 1.3926924384	-0.2252603717	-0.8284850404	 0.389639
O	 1.7740127385	 0.2917999278	-1.8393869141	-0.301559
C	 2.0547073984	-1.1079879717	 0.2385066402	-0.420153
C	 0.901211133	-0.6952411392	 1.1964708235	 0.422792
C	 1.1904935097	 0.1299840355	 2.4690018924	-0.34953
C	 0.5466081308	-1.057947129	 3.208900764	-0.073377
O	 0.2704960548	-1.7339147636	 1.9626570632	-0.314621
H	 0.0321159625	 2.0188828181	 0.3819113433	 0.123144
H	-1.0083725511	 1.4864484665	-0.9385822279	 0.138603
H	-1.4848107565	 1.1693701031	 0.7379604549	 0.123299
H	-0.5812796458	-0.9178115278	-0.3408911876	 0.118316
H	 1.990229495	-2.1719964317	-0.0141701437	 0.142987
H	 3.0826588888	-0.8667875192	 0.5201398974	 0.126126
H	 2.2458881208	 0.3092269147	 2.6805760144	 0.115416
H	 0.6446297314	 1.0716431612	 2.5452367932	 0.118445
H	 1.2210299504	-1.64032841	 3.8475175633	 0.107093
H	-0.3717152245	-0.8391420153	 3.7651631023	 0.107801
63.8322	70.8428	169.0176	176.7281	212.1738	290.3189	343.1899	394.115	463.2109	497.1256	579.7029	718.8503	750.7923	782.905	820.1371	862.9442	868.7742	939.492	972.0574	1011.8706	1027.7689	1035.6918	1087.9409	1112.2813	1144.053	1160.4776	1163.3583	1197.4999	1224.4535	1236.4847	1245.1673	1287.587	1332.6288	1359.2147	1405.7877	1427.4649	1486.5917	1494.2509	1494.8398	1530.8714	1889.727	3019.9096	3024.6469	3037.2041	3053.9551	3066.8141	3080.7705	3105.7947	3113.2473	3116.2342	3134.9925
CC1C(=O)CC11CCO1	C[C@H]1C(=O)C[C@]21CCO2	
InChI=1S/C7H10O2/c1-5-6(8)4-7(5)2-3-9-7/h5H,2-4H2,1H3	InChI=1S/C7H10O2/c1-5-6(8)4-7(5)2-3-9-7/h5H,2-4H2,1H3/t5-,7-/m0/s1
