17
gdb 32878	5.51627	0.81597	0.74895	0.4665	73.56	-0.2019	0.0043	0.2062	1523.2734	0.136022	-455.158438	-455.149426	-455.148482	-455.193149	31.933	
C	-0.0342278461	 1.3510782203	-0.130800279	-0.221868
O	 0.0178076908	-0.0566941444	-0.1051867583	-0.2336
C	-1.2322204441	-0.6337091593	 0.2144712222	-0.173113
C	-1.1115147733	-2.1173759308	 0.1848202463	 0.394906
N	-1.2141242145	-2.938717909	 1.1865969648	-0.34359
C	-1.0319022736	-4.1957577602	 0.6318865513	 0.260095
N	-1.1440742259	-5.3290534487	 1.4288496146	-0.599401
C	-0.8219026758	-4.0596653753	-0.7060828236	-0.12095
O	-0.8790802569	-2.7145288708	-0.9971849872	-0.167655
H	 0.965646002	 1.7067548598	-0.3891827146	 0.131573
H	-0.749878151	 1.7197158737	-0.8829238396	 0.10579
H	-0.3195198948	 1.7684197811	 0.8478068411	 0.106939
H	-1.5655366425	-0.3454497457	 1.2214216075	 0.120089
H	-1.999597349	-0.3046651786	-0.5065567079	 0.105361
H	-0.95203108	-5.1184110465	 2.3991214934	 0.255625
H	-0.5921583915	-6.113861189	 1.1123691553	 0.248036
H	-0.6359956436	-4.7274214265	-1.5275908863	 0.131762
42.0436	82.9277	109.5242	225.6135	234.7182	278.6317	294.7163	343.7724	383.7269	457.386	645.824	654.1259	666.0017	736.5872	757.1277	814.9061	958.8043	985.9321	1012.1503	1049.9751	1108.8124	1130.916	1150.9003	1182.5756	1221.4288	1241.8236	1262.5218	1358.503	1395.2011	1421.5359	1477.7123	1484.9257	1495.934	1516.8877	1602.9573	1637.9544	1673.5529	2961.9488	2972.7283	3014.8086	3029.1478	3120.1547	3302.6695	3554.3217	3652.2761
COCC1=NC(N)=CO1	COCc1nc(N)co1	
InChI=1S/C5H8N2O2/c1-8-3-5-7-4(6)2-9-5/h2H,3,6H2,1H3	InChI=1S/C5H8N2O2/c1-8-3-5-7-4(6)2-9-5/h2H,3,6H2,1H3
