17
gdb 33893	3.94663	1.28776	1.17541	1.9792	79.8	-0.2306	0.0284	0.259	1074.8397	0.135777	-384.593432	-384.58601	-384.585066	-384.625072	29.839	
C	 0.0362410841	-1.2100731819	 0.003664313	-0.396285
C	 0.0282444387	-0.0056729021	-0.0079036123	 0.135614
C	 0.0001117439	 1.4137235086	 0.0205635041	 0.233682
C	 0.2623992472	 2.2895214793	-1.1814908489	-0.34408
C	 1.169744632	 2.4483740394	-0.002291257	-0.13174
C	 0.5262189414	 3.2364188915	 1.1587252336	-0.068644
C	-0.5266423772	 4.3130426987	 0.8264098909	-0.109094
O	-1.5708889529	 3.3052247754	 0.724807762	-0.292807
C	-0.663127831	 2.2634464769	 1.1455031211	 0.028617
H	 0.0425813258	-2.2715626391	 0.0045392808	 0.183218
H	 0.699198807	 1.7655222737	-2.0242675924	 0.129577
H	-0.4726783179	 3.0416387969	-1.4455929802	 0.137774
H	 2.2274812483	 2.2283489495	-0.0736245239	 0.10636
H	 1.155096299	 3.3730460963	 2.0360184023	 0.087688
H	-0.7334945436	 5.0084200165	 1.6484433467	 0.10689
H	-0.3989024463	 4.8778922611	-0.1039181067	 0.107
H	-1.0180240184	 1.6985788193	 2.0093466567	 0.086229
123.0211	142.0399	234.7558	317.2394	384.4332	456.5945	504.1585	524.2742	557.0142	611.4327	651.8123	714.3613	780.199	812.8909	856.5415	876.5656	911.4635	957.725	968.0155	981.2181	989.2342	1024.4547	1055.7075	1084.9585	1112.7445	1157.1055	1183.6485	1205.5237	1224.257	1241.9014	1290.1728	1306.3293	1353.4334	1379.512	1486.8331	1519.9164	2227.2593	3022.5448	3069.669	3097.6013	3135.0561	3140.1327	3193.8125	3227.5655	3503.9088
C#CC12CC1C1COC21	C#C[C@]12C[C@H]1[C@H]1CO[C@@H]21	
InChI=1S/C8H8O/c1-2-8-3-6(8)5-4-9-7(5)8/h1,5-7H,3-4H2	InChI=1S/C8H8O/c1-2-8-3-6(8)5-4-9-7(5)8/h1,5-7H,3-4H2/t5-,6+,7-,8+/m1/s1
