17
gdb 126310	2.10732	1.64456	0.99017	4.9262	78.11	-0.2556	-0.0468	0.2087	1185.2817	0.136917	-418.049686	-418.041387	-418.040443	-418.082946	30.191	
C	-0.2627392562	 1.5115297215	-0.0709080425	-0.374833
C	 0.0931659074	 0.0157995082	 0.0250333884	-0.309715
C	 0.8120936335	-0.5161422874	-1.1783124597	 0.406578
C	 2.1454729705	-0.7685765901	-1.3602662364	-0.323408
C	 2.2649620881	-1.2188965515	-2.7037335035	 0.026125
N	 1.1067676105	-1.2521233519	-3.3263585342	-0.22935
N	 0.2077240415	-0.818888255	-2.3921509613	-0.095683
C	-1.1588485334	-0.7476212164	-2.6966601398	 0.18269
O	-1.6401430072	-1.0181548721	-3.7588512458	-0.258735
H	 0.6365376226	 2.1127252854	-0.2315803447	 0.133055
H	-0.9488714045	 1.7128801324	-0.8989591755	 0.127099
H	-0.741596679	 1.8492527963	 0.8527123981	 0.12508
H	 0.749656965	-0.1419959522	 0.8861702206	 0.125175
H	-0.8113086318	-0.5700086565	 0.2256409333	 0.122067
H	 2.9276893421	-0.6503047995	-0.6270680031	 0.115094
H	 3.1602066068	-1.5224332348	-3.228265215	 0.127538
H	-1.7422247458	-0.4084897861	-1.8242418687	 0.101223
91.2046	136.3237	141.6668	194.5769	241.4312	270.4064	345.8032	392.5503	554.3742	616.1974	667.3545	707.6962	790.3351	821.2673	839.1948	917.1438	928.9641	962.1877	1025.1631	1047.7695	1055.5897	1084.9086	1129.9759	1235.577	1271.6677	1305.8139	1348.3831	1354.575	1398.6035	1413.2767	1457.067	1488.7997	1492.3575	1497.9606	1508.3181	1612.3105	1845.7326	2998.0624	3041.1137	3044.7651	3082.0603	3117.8718	3122.1337	3237.5355	3263.3812
CCC1=CC=NN1C=O	CCc1ccnn1C=O	
InChI=1S/C6H8N2O/c1-2-6-3-4-7-8(6)5-9/h3-5H,2H2,1H3	InChI=1S/C6H8N2O/c1-2-6-3-4-7-8(6)5-9/h3-5H,2H2,1H3
