12
gdb 5647	5.49493	2.24436	1.5935	2.8579	61.47	-0.2041	-0.002	0.2022	718.6025	0.087943	-377.553237	-377.547906	-377.546962	-377.58242	21.312	
N	 0.0172196185	 1.3422034723	 0.009601543	-0.233764
C	 1.3048754533	 1.8576711181	-0.0001931789	-0.236052
C	 2.1036594054	 0.7451643307	-0.0139795063	 0.294274
O	 3.419787605	 0.3728245406	-0.028809683	-0.223985
C	 3.339064949	-1.0060842814	-0.0354359234	 0.041258
N	 2.1647119758	-1.534906952	-0.0269758987	-0.346976
C	 1.3155143094	-0.4243157612	-0.0126676235	 0.229655
C	-0.0080010906	-0.0353506751	 0.002295159	-0.204587
H	-0.8076625041	 1.9161414834	 0.0207868325	 0.26751
H	 1.4908103763	 2.9167823799	 0.0037360011	 0.133876
H	 4.290034613	-1.5172058508	-0.0474601371	 0.145729
H	-0.9369269611	-0.5789080844	 0.0083567755	 0.133061
245.5638	348.4927	460.6591	492.1217	605.1064	626.8915	640.1791	707.6209	720.2201	740.6037	770.287	854.5835	914.6539	952.2827	1051.239	1062.279	1110.5054	1174.8254	1252.8043	1318.4986	1327.3187	1453.2512	1464.5244	1542.7168	1579.2502	1659.1029	3268.6033	3282.4988	3289.6517	3685.9991
N1C=C2OC=NC2=C1	[nH]1cc2ocnc2c1	
InChI=1S/C5H4N2O/c1-4-5(2-6-1)8-3-7-4/h1-3,6H	InChI=1S/C5H4N2O/c1-4-5(2-6-1)8-3-7-4/h1-3,6H
