16
gdb 18460	3.3619	1.80113	1.48269	3.0858	65.55	-0.2379	-0.0083	0.2296	892.3427	0.129563	-383.716027	-383.708514	-383.70757	-383.748174	27.614	
C	 0.138619289	 0.9735039312	 0.3819303416	-0.243088
O	-0.1503131438	-0.0624103064	-0.5412103779	-0.236523
C	-1.3630747253	-0.688485964	-0.2982634862	 0.136973
C	-1.5646708029	-2.0853432216	-0.7169836628	-0.123582
C	-0.2560085012	-2.8792779775	-0.5648940299	-0.350386
C	-0.313301944	-2.5548836265	 0.9477844254	 0.432374
O	 0.2955025382	-2.9667313014	 1.8942478784	-0.320254
C	-1.5520315618	-1.7192358075	 0.8148489475	-0.248033
H	 1.1018324743	 1.3980000022	 0.0925854162	 0.134592
H	-0.6254556409	 1.7642766299	 0.3499159467	 0.109139
H	 0.2045978841	 0.588469113	 1.408303929	 0.127189
H	-2.2301306321	-0.0309815712	-0.3975192038	 0.098495
H	-2.4192083085	-2.4068477652	-1.2977536143	 0.109234
H	-0.3751773057	-3.9546801136	-0.722687346	 0.129138
H	 0.6056539817	-2.5129068112	-1.1247643576	 0.136814
H	-2.354488361	-1.6327380005	 1.5376473039	 0.107917
73.1221	120.8949	188.6358	215.1951	302.2238	440.9523	457.1611	530.5225	628.3628	651.5617	745.3771	809.5327	877.1326	912.2858	944.0906	958.0677	994.4445	1025.3217	1078.171	1089.6532	1121.8982	1145.6715	1182.1973	1194.0235	1220.924	1250.5288	1288.0285	1328.7357	1420.6331	1452.9621	1487.4858	1490.8486	1508.244	1881.5252	2991.3991	3050.0325	3073.9118	3079.5884	3129.9284	3135.4245	3190.1423	3204.8391
COC1C2CC(=O)C12	CO[C@H]1[C@H]2CC(=O)[C@@H]12	
InChI=1S/C6H8O2/c1-8-6-3-2-4(7)5(3)6/h3,5-6H,2H2,1H3	InChI=1S/C6H8O2/c1-8-6-3-2-4(7)5(3)6/h3,5-6H,2H2,1H3/t3-,5-,6-/m0/s1
