15
gdb 29293	5.69125	0.98506	0.88992	1.5578	70.15	-0.2051	-0.0065	0.1986	1265.4324	0.113566	-453.946418	-453.938612	-453.937668	-453.979264	28.81	
N	-0.0359080257	 1.3885723635	-0.190650803	-0.599663
C	-0.0371254208	 0.0121816246	-0.0062731635	 0.260824
C	-1.0404062958	-0.8444554024	 0.3299700675	-0.121489
O	-0.4846394041	-2.1002502289	 0.4602024824	-0.176477
C	 0.8196600861	-1.9242078047	 0.1888911853	 0.413956
N	 1.1491573179	-0.6991227487	-0.095577604	-0.357596
C	 1.7248094704	-3.0826579464	 0.2417977527	-0.036936
C	 1.433242374	-4.2707660788	 1.0617306793	-0.17307
O	 1.2608522551	-4.3033988157	-0.3508799769	-0.225487
H	 0.746656683	 1.687287321	-0.7569970609	 0.257144
H	-0.9055443133	 1.7620290237	-0.5437401242	 0.249576
H	-2.0984643007	-0.7629389667	 0.5002084987	 0.1348
H	 2.7572726563	-2.8212103173	 0.0239779104	 0.121231
H	 2.2622823011	-4.8596755605	 1.4518700618	 0.122032
H	 0.5149390966	-4.2971394727	 1.6446243845	 0.131156
55.744	150.9745	166.8854	239.9178	316.2428	331.6915	429.5935	481.1655	640.8734	647.2617	662.2393	725.779	742.2564	771.9663	845.2572	902.1222	986.9161	998.3081	1022.8219	1097.1722	1104.0556	1130.9793	1159.3539	1169.9627	1252.0251	1273.3688	1367.6512	1389.2686	1414.8934	1516.065	1605.8594	1636.7404	1672.153	3088.5132	3154.1846	3183.5654	3304.5999	3556.3038	3654.7978
NC1=COC(=N1)C1CO1	Nc1coc(n1)[C@H]1CO1	
InChI=1S/C5H6N2O2/c6-4-2-9-5(7-4)3-1-8-3/h2-3H,1,6H2	InChI=1S/C5H6N2O2/c6-4-2-9-5(7-4)3-1-8-3/h2-3H,1,6H2/t3-/m1/s1
