15
gdb 19342	5.09596	1.69472	1.52428	3.2762	66.36	-0.2365	-0.0317	0.2048	834.2338	0.118543	-362.582853	-362.576241	-362.575297	-362.613484	25.613	
O	-0.8915586925	 1.2092637905	-0.0100347564	-0.280578
C	 0.2607144512	 0.8474533005	-0.1001660586	 0.080268
C	 1.4207127672	 1.7348258292	 0.0562263043	 0.248198
C	 1.309781929	 3.0984643834	 0.7036621239	-0.346024
C	 1.71542494	 3.0333032059	-0.7239320445	-0.096928
C	 3.1272770815	 2.4669756949	-0.9395477041	-0.034313
C	 3.844399237	 2.0682000264	 0.291541113	-0.253084
N	 2.7974619386	 1.1762295595	-0.2406771887	-0.17926
H	 0.5340268207	-0.2035424746	-0.3339808887	 0.086025
H	 0.2685647931	 3.3647887671	 0.8543033668	 0.156088
H	 1.976717781	 3.4196706231	 1.4948327726	 0.125571
H	 1.1111375831	 3.43403209	-1.5265406109	 0.12278
H	 3.5969424287	 2.4537855294	-1.9171820827	 0.109943
H	 4.8362737125	 1.6469346121	 0.1554415419	 0.132997
H	 3.711890259	 2.5836667225	 1.2353091321	 0.128316
126.5153	197.0702	221.0125	355.0065	439.5005	461.8208	558.4292	683.2267	714.5951	737.4034	784.8461	843.2313	918.5928	931.449	943.0407	974.4468	1016.6982	1053.1145	1065.6696	1073.1337	1076.0439	1112.0089	1143.9564	1171.1907	1233.6183	1285.5642	1344.8937	1369.0786	1412.4325	1469.3146	1518.6223	1790.2602	2910.4133	3129.2181	3143.8461	3169.025	3211.5895	3216.1207	3228.5692
O=CC12CC1C1CN21	O=C[C@]12C[C@H]1[C@H]1CN21	
InChI=1S/C6H7NO/c8-3-6-1-4(6)5-2-7(5)6/h3-5H,1-2H2	InChI=1S/C6H7NO/c8-3-6-1-4(6)5-2-7(5)6/h3-5H,1-2H2/t4-,5+,6+,7?/m0/s1
