15
gdb 65881	3.30394	1.13635	1.09427	2.0076	61.78	-0.2759	-0.0593	0.2166	1120.3422	0.111332	-494.949891	-494.941806	-494.940862	-494.983028	29.633	
O	 0.1141843274	 1.4802062155	-0.1105835718	-0.474606
C	-0.0057346358	 0.0968339193	 0.0312049126	 0.289934
C	 0.5360931626	-0.3804121127	 1.4098881273	-0.14539
O	-0.249318898	-1.5101879078	 1.7942812824	-0.212604
C	-1.4294314599	-1.5522040184	 1.1063404247	 0.435437
O	-2.2575569889	-2.3859161388	 1.3128879632	-0.321973
C	-1.4605553699	-0.4112903571	 0.097739745	-0.433312
C	 0.7485946763	-0.5995201329	-1.0908319072	 0.117901
O	 1.3256368485	 0.0257847863	-1.9454411521	-0.267391
H	 0.6371434751	 1.622089598	-0.9167699097	 0.299013
H	 1.5863070228	-0.6831588708	 1.3962017008	 0.132953
H	 0.4084253328	 0.4367108156	 2.1272187678	 0.142849
H	-2.0906160632	 0.3969113491	 0.4823688027	 0.166765
H	-1.8881785554	-0.7482295981	-0.8483426526	 0.148831
H	 0.7418297155	-1.707866377	-1.077186403	 0.121592
67.8574	111.8821	163.772	278.6488	287.8767	357.9525	373.9273	460.3377	493.4047	541.2599	555.0456	682.9722	731.2906	830.0391	848.2166	901.0348	938.3421	999.2679	1070.2164	1080.2104	1134.218	1152.8324	1168.0639	1205.9795	1258.8362	1294.2698	1383.2948	1389.0256	1442.0249	1457.6166	1516.7744	1816.7823	1895.9504	2942.3747	3053.1371	3071.4939	3108.2897	3126.6568	3677.8857
OC1(COC(=O)C1)C=O	O[C@]1(COC(=O)C1)C=O	
InChI=1S/C5H6O4/c6-2-5(8)1-4(7)9-3-5/h2,8H,1,3H2	InChI=1S/C5H6O4/c6-2-5(8)1-4(7)9-3-5/h2,8H,1,3H2/t5-/m0/s1
