16
gdb 19935	3.80725	2.37643	1.92718	1.1726	62.61	-0.2399	0.0651	0.305	731.9231	0.132375	-383.701336	-383.695307	-383.694363	-383.731492	24.058	
C	 0.0786898814	 1.5558652019	 0.2452795941	-0.316946
C	 1.3134958321	 0.749057243	-0.0183278435	 0.10103
O	 2.1257204257	 0.3646736519	 1.06645101	-0.267881
C	 1.4604222362	-0.5984407636	 1.8639676204	 0.06074
C	 0.7413184232	-0.0750436268	 3.1205731379	-0.103413
O	-0.5535133567	-0.2184897162	 2.4919447542	-0.289021
C	 0.0306075637	-0.7942703219	 1.2960057735	 0.074241
C	-0.0241884491	 0.0541130962	 0.0405698828	-0.085929
H	-0.1040874949	 1.9307650173	 1.245370423	 0.135676
H	-0.2865090724	 2.1890159533	-0.5562461206	 0.114698
H	 1.8791285208	 0.8786937148	-0.934352399	 0.10192
H	 2.1130033185	-1.4644322176	 2.0026498735	 0.089035
H	 0.8329918945	-0.7170869333	 4.0051864507	 0.102971
H	 0.971818553	 0.9619765905	 3.3884694365	 0.110273
H	-0.3279499081	-1.8143345631	 1.1305313563	 0.080622
H	-0.508829648	-0.3434758464	-0.8422099098	 0.091983
107.0871	215.3426	363.7375	418.5844	518.2248	654.7361	688.6267	750.9697	795.9024	833.9054	848.6316	906.5524	912.3194	954.3661	980.7252	1012.0501	1020.5059	1039.5705	1063.1317	1075.7601	1100.2474	1118.1168	1157.4083	1181.1492	1198.3081	1240.6564	1244.4586	1318.4943	1325.0108	1348.2371	1367.9234	1391.9067	1474.0678	1510.7089	3020.8688	3062.801	3072.4951	3081.6997	3138.0411	3172.4313	3189.5914	3230.3581
C1C2OC3COC3C12	C1[C@H]2O[C@H]3CO[C@H]3[C@@H]12	
InChI=1S/C6H8O2/c1-3-4(1)8-5-2-7-6(3)5/h3-6H,1-2H2	InChI=1S/C6H8O2/c1-3-4(1)8-5-2-7-6(3)5/h3-6H,1-2H2/t3-,4+,5-,6-/m0/s1
