16
gdb 54287	2.36395	1.45301	1.0489	3.2724	69.56	-0.2689	-0.0022	0.2667	1130.6232	0.12486	-434.089959	-434.081169	-434.080225	-434.123923	32.136	
N	 0.451039524	 0.9780441634	-0.4741021862	-0.546787
C	-0.0130113726	 0.0661911581	 0.4273288199	 0.35947
O	 0.5577189611	-0.1672626597	 1.4789207139	-0.372765
C	-1.2659012835	-0.7076592711	 0.0593483077	 0.227855
C	-2.0649129289	-0.3717549477	-1.1960900441	-0.437564
C	-2.5123317154	 1.0207511975	-1.2649665247	 0.258723
N	-2.8141912191	 2.1346999018	-1.3301345063	-0.308068
C	-1.2521525021	-2.1327612269	 0.5130957579	-0.257673
N	-2.0731550391	-1.1453218833	 1.2072142891	-0.328356
H	 1.2155497385	 1.5509420652	-0.1485399713	 0.269291
H	-0.1595467684	 1.3997910216	-1.1555781612	 0.275519
H	-1.4756562403	-0.5874105668	-2.095394603	 0.160859
H	-2.9458244753	-1.0192411582	-1.2218180502	 0.174761
H	-1.8000935007	-2.8728757951	-0.0644125594	 0.121324
H	-0.3427713074	-2.4774701366	 0.9936013141	 0.147685
H	-1.5795344706	-0.8541510424	 2.0511256137	 0.255727
63.0893	75.0468	130.7491	254.8334	299.28	331.2479	357.2136	388.0539	428.4864	456.4204	475.1127	574.8595	627.6788	716.2928	778.4524	829.143	898.8922	931.1387	966.8195	994.9249	1012.5883	1103.1405	1122.9721	1139.7976	1215.189	1277.2588	1304.6642	1319.2222	1376.5233	1407.9287	1452.4165	1493.1133	1636.0633	1778.1256	2357.0989	3046.8718	3101.288	3114.25	3215.9147	3477.3701	3579.1688	3698.4689
NC(=O)C1(CC#N)CN1	NC(=O)[C@@]1(CC#N)CN1	
InChI=1S/C5H7N3O/c6-2-1-5(3-8-5)4(7)9/h8H,1,3H2,(H2,7,9)	InChI=1S/C5H7N3O/c6-2-1-5(3-8-5)4(7)9/h8H,1,3H2,(H2,7,9)/t5-/m1/s1
