17
gdb 78373	4.12385	1.22851	1.13787	2.4107	75.17	-0.2254	0.0018	0.2272	1094.7433	0.136452	-421.754085	-421.746821	-421.745877	-421.785641	28.881	
O	 0.1560988974	 1.1200549626	 0.174588516	-0.433545
C	-0.0455002227	-0.2456392201	-0.0219722498	 0.11263
C	-1.4885501574	-0.6059330413	-0.093258737	-0.128069
C	-0.6053193118	-0.6676057398	-1.3805923008	-0.230278
C	-0.678945763	-2.166430425	-1.3129630557	 0.233973
C	-0.0202360777	-3.3172184938	-1.2451664031	-0.258054
C	-0.6553092036	-4.1090127187	-0.0982413003	-0.109695
O	-1.4180564642	-3.1486155993	 0.6631658091	-0.283362
C	-1.7388726872	-2.1229225118	-0.2578460168	 0.096685
H	 1.0225435267	 1.3471702806	-0.1784971718	 0.290975
H	 0.6660600212	-0.9038100025	 0.4773458186	 0.09962
H	-2.2403971209	 0.1287161472	 0.1664491801	 0.099984
H	-0.5838995758	-0.0000777803	-2.2311669214	 0.104274
H	 0.8612342175	-3.6514115938	-1.7770882667	 0.104947
H	-1.3115139906	-4.9237670695	-0.4477177505	 0.101731
H	 0.0994871413	-4.5516053851	 0.5625725162	 0.115059
H	-2.7576055893	-2.2549180095	-0.658777366	 0.083124
133.2819	165.9899	275.5929	293.3927	314.1993	377.6458	452.4498	540.3077	698.9454	715.3002	736.0173	786.8317	815.9685	855.4678	887.4084	915.6181	951.8261	969.3943	982.5206	1014.164	1028.2909	1090.5523	1092.397	1116.3483	1137.9175	1154.6987	1195.6825	1207.7787	1228.4826	1254.4881	1289.6093	1314.5982	1343.9353	1374.6042	1448.3183	1510.0004	1721.2533	2960.8632	2964.1234	3049.462	3096.538	3196.9955	3211.0222	3214.3214	3810.8625
OC1C2C1C1=CCOC21	O[C@H]1[C@H]2[C@@H]1[C]1[CH]CO[C@@H]21	
InChI=1S/C7H8O2/c8-6-4-3-1-2-9-7(3)5(4)6/h1,4-8H,2H2	InChI=1S/C7H8O2/c8-6-4-3-1-2-9-7(3)5(4)6/h1,4-8H,2H2/t4-,5+,6+,7+/m0/s1
