17
gdb 128576	5.09028	0.87476	0.7673	2.2931	72.74	-0.2105	0.0377	0.2482	1458.6237	0.136017	-455.140989	-455.131808	-455.130864	-455.175783	32.401	
C	 0.0154648359	 1.4404481571	-0.0569205076	-0.263755
O	 0.1664379521	 0.0394845784	 0.101618373	-0.256318
C	 0.6557016934	-0.6472492533	-0.9470779263	 0.521543
C	 0.8687895968	-2.0046292262	-1.0502823259	-0.442959
C	 1.3854197413	-2.1733234859	-2.3555483313	 0.383531
C	 1.8301034816	-3.4488026392	-2.9977649314	-0.184322
O	 0.884524654	-4.4660943568	-2.6878648352	-0.417592
N	 1.4849389561	-1.0244463352	-3.0156797535	-0.322133
N	 1.039181761	-0.0928241802	-2.1282373946	-0.296939
H	 0.9803271265	 1.9292749092	-0.2477877318	 0.126831
H	-0.683207635	 1.6794111076	-0.8697895035	 0.128351
H	-0.3915686365	 1.8138716079	 0.8830890443	 0.149991
H	 0.6649336487	-2.75405998	-0.3059197885	 0.114588
H	 1.9213391205	-3.2802845333	-4.0802313493	 0.1062
H	 2.8290985612	-3.7240891837	-2.6211613406	 0.095117
H	 1.2439456601	-5.3029493328	-2.9966417905	 0.286989
H	 1.0046073922	 0.8698401764	-2.4107366873	 0.270876
49.6081	64.8511	146.2936	193.068	218.4806	254.7804	269.6226	349.9101	403.002	468.7233	488.5839	629.4117	683.481	700.8409	756.8934	787.6502	996.2089	1020.4924	1022.5106	1065.6835	1078.5334	1151.033	1175.4924	1183.8645	1212.0901	1240.9259	1246.9145	1312.5829	1430.5632	1438.1189	1472.385	1491.5361	1504.6097	1511.0211	1513.7736	1539.0951	1631.2693	2962.8805	2999.3519	3017.8797	3058.5772	3145.1794	3289.777	3697.6453	3829.1566
COC1=CC(CO)=NN1	COc1cc(CO)n[nH]1	
InChI=1S/C5H8N2O2/c1-9-5-2-4(3-8)6-7-5/h2,8H,3H2,1H3,(H,6,7)	InChI=1S/C5H8N2O2/c1-9-5-2-4(3-8)6-7-5/h2,8H,3H2,1H3,(H,6,7)
