17
gdb 54206	2.99693	1.42337	1.19713	3.9447	67.58	-0.2521	0.0147	0.2668	1050.6943	0.137493	-455.129587	-455.121733	-455.120789	-455.162037	30.577	
N	 0.0516910249	 0.9322832526	 0.0463936002	-0.59807
H	 0.5010340273	 0.0505887233	 0.2822352894	 0.256687
H	 0.4319986644	 2.7991661263	-0.0751371656	 0.306125
H	-0.5519666593	 0.7543536695	-0.7519819712	 0.243324
C	-0.7329661268	 1.3636652949	 1.1985605959	 0.152085
C	-2.0045748657	 0.5546792417	 1.6689417691	-0.280845
C	-1.2677185657	 0.2223807218	 2.9649122718	-0.022914
N	-0.0151175529	-0.4757774747	 2.5722890247	-0.353445
C	-0.0777638403	 1.0042097851	 2.5530209299	-0.072847
C	-0.9853762547	 2.8783396182	 1.1182248464	 0.398153
O	-0.1145610971	 3.5128941928	 0.3220364297	-0.374269
O	-1.8436956246	 3.4489319975	 1.7378904856	-0.347149
H	-2.8502622046	 1.2256862987	 1.8201446796	 0.143377
H	-2.2803012172	-0.2995188061	 1.0458650715	 0.098496
H	-1.6884416243	 0.0878165265	 3.9526293033	 0.105425
H	 0.4723648948	-0.7422053011	 3.4270513802	 0.236675
H	 0.6138057017	 1.6105641329	 3.1242224095	 0.109193
77.4987	144.0057	197.1948	299.1249	354.2766	382.5786	399.1206	441.1704	496.8231	622.1189	688.7671	746.4423	773.4145	823.9608	846.1979	860.8933	883.7478	923.12	941.57	965.9203	989.5261	1023.6093	1079.7646	1105.3951	1140.3169	1152.7824	1194.8798	1214.1555	1251.7682	1294.8171	1307.5265	1333.9882	1377.4236	1424.8073	1458.4302	1653.473	1862.3246	3069.6446	3150.4226	3194.2227	3208.9647	3471.6278	3479.9803	3487.8643	3556.7059
[NH3+]C1(CC2NC12)C([O-])=O	N[C@]1(C[C@H]2N[C@@H]12)C(=O)O	
InChI=1S/C5H8N2O2/c6-5(4(8)9)1-2-3(5)7-2/h2-3,7H,1,6H2,(H,8,9)	InChI=1S/C5H8N2O2/c6-5(4(8)9)1-2-3(5)7-2/h2-3,7H,1,6H2,(H,8,9)/t2-,3-,5+/m1/s1
