15
gdb 49585	2.1603	1.84411	1.15573	6.4297	71.22	-0.2563	-0.0017	0.2546	1036.5402	0.112733	-416.794699	-416.78684	-416.785895	-416.827776	28.431	
O	 0.0267224225	 0.0260350839	 0.2024861453	-0.313996
C	 0.0555708602	 1.2275537802	 0.0650147259	 0.141924
N	 1.190645242	 1.9471626549	-0.1469225843	-0.047488
C	 1.4940419918	 3.3689883819	-0.1063107123	-0.018547
C	 2.2109185769	 3.7190011263	 1.1665801056	-0.296664
C	 2.9724070166	 3.0411600688	 0.0552797763	-0.084348
C	 2.6017670577	 1.5395613982	-0.0264469141	-0.145272
C	 2.9597833414	 0.7126113723	 1.1283033069	 0.317949
N	 3.2919604575	 0.0975375184	 2.0478762913	-0.324805
H	-0.8435221225	 1.8763894322	 0.0558145213	 0.085373
H	 0.9989682809	 4.0698674125	-0.7658762466	 0.128464
H	 2.4489683631	 4.7706061262	 1.2903208408	 0.135493
H	 1.9830864006	 3.187771053	 2.0858890407	 0.147042
H	 3.8307093305	 3.4738632672	-0.4362847273	 0.125982
H	 2.9614024408	 1.0583399542	-0.9414070394	 0.148892
60.2015	119.84	137.8885	222.2179	290.1426	356.6803	435.6637	498.2228	554.9133	607.8966	729.9449	779.9469	820.0016	885.5583	928.1546	972.1617	991.6384	1023.9103	1043.1036	1056.7376	1081.8487	1086.7835	1163.0777	1192.9313	1233.9166	1277.7574	1337.901	1346.7862	1390.9975	1438.1294	1477.6164	1799.6532	2362.7835	2934.0418	3065.1208	3126.7927	3200.8922	3217.9967	3234.3507
O=CN1C2CC2C1C#N	O=CN1[C@H]2C[C@H]2[C@H]1C#N	
InChI=1S/C6H6N2O/c7-2-6-4-1-5(4)8(6)3-9/h3-6H,1H2	InChI=1S/C6H6N2O/c7-2-6-4-1-5(4)8(6)3-9/h3-6H,1H2/t4-,5+,6-/m1/s1
