22
gdb 84435	2.45397	1.64366	1.21323	1.636	87.34	-0.2213	0.019	0.2403	1139.36	0.193671	-367.211831	-367.202579	-367.201634	-367.244892	36.336	
C	-0.1004934059	 1.5488251958	 0.0554476027	-0.39611
C	-0.0005677275	 0.0179847835	-0.0146339335	-0.070347
C	 0.7998579525	-0.4873699213	-1.2000449238	-0.087053
C	 1.7978233616	-1.2928748431	-0.8388346034	-0.109574
C	 1.8550763671	-1.4444954325	 0.6518143698	 0.253068
C	 2.3893850468	-2.7153581497	 1.2585696968	-0.501148
N	 2.1327266869	-0.1230682238	 1.3027585165	-0.406752
C	 0.7343132558	-0.6108629855	 1.1839749276	 0.268164
C	-0.0575869129	-0.9131944595	 2.4295009258	-0.496502
H	 0.8963612121	 1.9823247881	 0.1661739705	 0.141192
H	-0.5616555622	 1.9553709622	-0.850528545	 0.106602
H	-0.7120206836	 1.8640428846	 0.9079371323	 0.106606
H	-1.0213490786	-0.3922069112	-0.0587094475	 0.07122
H	 0.5777016297	-0.1762676543	-2.2155337673	 0.09117
H	 2.5086271358	-1.7686545416	-1.5054500334	 0.091749
H	 3.4601778024	-2.8244118156	 1.0497672106	 0.125907
H	 2.2617660947	-2.7348249481	 2.3451758869	 0.114121
H	 1.8811159351	-3.5929153706	 0.8441607611	 0.125545
H	 2.4395690189	-0.2995209164	 2.2604099261	 0.212566
H	-0.4079455529	 0.0122464391	 2.9024446809	 0.125609
H	-0.9404809076	-1.5201232545	 2.1996722889	 0.121859
H	 0.5381504418	-1.4552030158	 3.1704789574	 0.112107
129.6368	182.1197	191.5767	208.9504	226.2955	246.4335	284.8173	314.8002	378.6946	454.1799	516.0345	547.658	583.8311	672.8705	705.6815	765.386	790.5813	835.2572	896.8146	912.783	955.2631	966.2621	1015.0674	1041.1236	1052.0332	1087.2494	1095.2813	1108.6603	1115.7522	1134.7882	1176.5967	1261.254	1294.7751	1328.124	1342.1942	1388.7614	1401.9274	1416.7691	1419.3964	1430.0882	1480.6212	1491.2657	1492.4575	1494.8726	1505.3488	1509.9843	1675.752	2982.7745	3022.6162	3027.5916	3033.6155	3081.208	3085.5798	3094.6539	3098.7539	3106.2867	3127.6509	3177.0223	3202.8616	3444.8983
CC1C=CC2(C)NC12C	C[C@H]1C=C[C@@]2(C)N[C@@]12C	
InChI=1S/C8H13N/c1-6-4-5-7(2)8(6,3)9-7/h4-6,9H,1-3H3	InChI=1S/C8H13N/c1-6-4-5-7(2)8(6,3)9-7/h4-6,9H,1-3H3/t6-,7+,8-/m0/s1
