21
gdb 89845	2.78052	1.3467	1.16888	2.7899	77.92	-0.2549	0.0681	0.323	1159.4256	0.182535	-424.222906	-424.214094	-424.21315	-424.256202	34.483	
C	-0.5928108004	 1.4072377162	 0.1684050655	-0.400717
C	 0.0283513221	 0.0192139556	 0.0367216812	 0.017656
C	 0.9284027625	-0.1715069788	-1.2224768808	-0.308423
C	 2.1617498461	-0.9162901307	-0.7147262434	 0.41721
C	 3.294663018	-1.3372218544	-1.5365714303	-0.259763
O	 3.3972193179	-0.1592113299	-0.727231218	-0.286446
C	 1.7993292642	-1.5112506144	 0.6354445904	-0.31593
C	 0.9375402668	-0.3872002901	 1.2328983962	 0.125551
O	 1.741376268	 0.6818072788	 1.7128938778	-0.444774
H	 0.1854105276	 2.1669626747	 0.2789308464	 0.126619
H	-1.1973383163	 1.652741288	-0.7108701135	 0.106693
H	-1.2404806917	 1.4684036863	 1.0492918313	 0.113031
H	-0.7777369719	-0.7247949805	-0.0044146354	 0.069295
H	 0.410212124	-0.7382991653	-2.0021417046	 0.105774
H	 1.2383171474	 0.7811784357	-1.6617236152	 0.11716
H	 3.9131457983	-2.1769557266	-1.2203227126	 0.113865
H	 3.2792993573	-1.1578150452	-2.6111404309	 0.114545
H	 1.1984738137	-2.419201177	 0.5022757144	 0.10335
H	 2.6758523458	-1.7528035017	 1.2407588198	 0.112402
H	 0.3399119274	-0.7128252801	 2.0895329567	 0.072897
H	 2.4865246133	 0.7974507696	 1.1110265153	 0.300003
62.9689	130.5693	222.2444	248.9484	270.043	332.7484	369.4321	375.2097	394.9933	432.5091	480.5837	568.6291	691.9313	753.0983	804.9373	833.072	860.5405	908.0954	919.8632	929.6144	981.7864	993.2155	1020.4747	1058.3193	1098.458	1124.2673	1136.6665	1174.1496	1191.8838	1218.5408	1233.7064	1254.0972	1265.2084	1313.2346	1315.2809	1357.3582	1365.2215	1409.4826	1430.4557	1441.6945	1468.54	1485.0159	1493.2	1500.5104	1533.1472	3014.0425	3036.1729	3038.6431	3052.1558	3070.0275	3077.5784	3096.096	3099.748	3113.8203	3120.9267	3161.4764	3788.7604
CC1CC2(CO2)CC1O	C[C@H]1C[C@]2(CO2)C[C@H]1O	
InChI=1S/C7H12O2/c1-5-2-7(4-9-7)3-6(5)8/h5-6,8H,2-4H2,1H3	InChI=1S/C7H12O2/c1-5-2-7(4-9-7)3-6(5)8/h5-6,8H,2-4H2,1H3/t5-,6+,7+/m0/s1
