16
gdb 19668	4.71707	1.77827	1.6603	0.8568	73.31	-0.2462	0.0459	0.2921	821.1052	0.131279	-309.380272	-309.37385	-309.372906	-309.410568	26.135	
C	 0.041306066	-1.2495438517	-0.0411103379	-0.457092
C	 0.0408923304	-0.0474643117	 0.0113087364	 0.3118
C	 0.039119029	 1.4043958836	 0.0739687641	-0.163655
C	-0.144802475	 2.1366993125	 1.4112743268	-0.067956
C	 1.23753103	 2.2789266815	 2.0636844285	-0.055293
C	 2.2576125061	 1.6303353835	 1.1299637839	-0.233415
C	 1.3914357649	 2.1925856401	-0.0278116539	-0.068914
C	 0.789789602	 3.2436090146	 0.9912333728	-0.104043
H	 0.0412693068	-2.3104293584	-0.0848433125	 0.191917
H	-0.6682031363	 1.8112883873	-0.6565514086	 0.098679
H	-1.0532068165	 2.2117842635	 1.994497313	 0.090877
H	 1.3234314888	 2.4642983437	 3.1266415593	 0.085372
H	 3.2217527656	 2.1431037395	 1.1847248919	 0.098388
H	 2.4051739645	 0.5463835072	 1.1672470451	 0.106028
H	 1.8193772737	 2.400551429	-1.0057321243	 0.075647
H	 0.67359275	 4.3168238257	 0.9705801653	 0.091659
138.4131	156.7673	363.2267	404.7551	534.8373	542.1192	621.1503	631.175	726.7533	739.2964	789.9235	798.9447	815.1142	876.2875	921.2948	960.8705	989.3935	992.8875	1014.8511	1026.9079	1035.5496	1057.2138	1087.9213	1132.1802	1162.4884	1167.2835	1193.7996	1235.8858	1272.5966	1313.9391	1350.1315	1366.7708	1498.46	2227.7424	3048.8104	3050.8092	3104.6899	3142.3592	3194.853	3202.6011	3230.3632	3503.4196
C#CC1C2C3CC1C23	C#C[C@H]1[C@H]2[C@H]3C[C@@H]1[C@@H]23	
InChI=1S/C8H8/c1-2-4-5-3-6-7(4)8(5)6/h1,4-8H,3H2	InChI=1S/C8H8/c1-2-4-5-3-6-7(4)8(5)6/h1,4-8H,3H2/t4-,5+,6-,7+,8-/m1/s1
