14
gdb 49475	2.29007	1.5802	1.0972	5.4857	66.73	-0.2534	-0.0374	0.2159	1064.931	0.09982	-436.64588	-436.63813	-436.637186	-436.678806	27.896	
O	 0.062774461	-0.0059365837	-0.4816206198	-0.258821
C	 0.0144588089	 1.1374435608	-0.099814442	 0.146431
C	 1.2390575855	 1.9773640176	 0.0513777163	-0.131854
C	 1.2519788775	 3.4717941413	-0.1260401469	 0.07077
O	 0.0264479023	 4.0622657208	 0.3336807198	-0.28048
C	 0.3547578108	 3.691747404	 1.6983938757	-0.021026
C	-0.7238032547	 3.0174191366	 2.4216973261	 0.288544
N	-1.5619747051	 2.4917904045	 3.0184398938	-0.307305
C	 1.5783394773	 2.9047808363	 1.2256857349	-0.167333
H	-0.9476333811	 1.6317678079	 0.1304213626	 0.113959
H	 2.1332251043	 1.485479953	-0.3224324411	 0.12818
H	 1.8254819681	 4.0138155345	-0.8671449624	 0.135639
H	 0.6508208668	 4.5852849617	 2.2600589341	 0.148105
H	 2.5095847284	 2.8168526347	 1.7659657889	 0.135192
70.9162	130.6107	154.0545	207.7612	262.4931	391.0046	434.1568	531.567	547.3119	595.649	749.1295	799.9168	817.5438	928.2066	953.9786	983.6418	989.3505	1040.1415	1042.5233	1050.3592	1072.4973	1099.7327	1186.8551	1234.8442	1269.0548	1309.9335	1356.0404	1383.3865	1448.268	1811.1932	2359.9902	2963.7872	3048.2942	3162.7512	3202.4036	3226.6978
O=CC1C2OC(C#N)C12	O=C[C@H]1[C@H]2O[C@@H](C#N)[C@@H]12	
InChI=1S/C6H5NO2/c7-1-4-5-3(2-8)6(5)9-4/h2-6H	InChI=1S/C6H5NO2/c7-1-4-5-3(2-8)6(5)9-4/h2-6H/t3-,4+,5-,6-/m1/s1
