14
gdb 33441	2.22438	2.04104	1.21253	5.222	71.45	-0.2797	-0.0442	0.2356	977.4134	0.101916	-395.655003	-395.647756	-395.646811	-395.686729	27.378	
N	-0.0620373532	-1.1573023598	-0.0906866046	-0.320628
C	-0.0492196838	-0.0030858989	-0.0477372025	 0.257813
C	-0.053939582	 1.4573056228	 0.0257531707	 0.084601
C	-1.0086581901	 1.9859962601	-0.9474757941	 0.257857
N	-1.7790584301	 2.4025675917	-1.700591403	-0.320648
C	 0.0368006022	 2.1382897699	 1.4343771497	-0.084624
C	 1.4809013913	 1.599363277	 1.4551214194	-0.196248
N	 1.3611510856	 2.1307881405	 0.0055801071	-0.149569
C	 0.6449128349	 3.3315938867	 0.671156749	-0.196256
H	-0.7361659793	 2.1144945616	 2.2060692447	 0.109633
H	 2.2112410829	 2.1575457281	 2.0408717377	 0.128664
H	 1.6459857097	 0.5238154174	 1.5231153001	 0.150367
H	 0.0137884265	 3.9058370553	-0.0075345187	 0.150406
H	 1.3353877554	 3.9723752476	 1.2195235444	 0.128632
143.9277	148.8358	198.472	199.739	436.9703	484.6535	511.1841	540.3611	547.8144	601.448	639.244	770.2634	790.7565	874.8784	906.4955	925.2853	1016.8481	1023.1315	1062.4907	1080.9046	1137.1857	1176.6161	1191.244	1204.643	1226.9018	1230.3345	1272.8844	1518.9977	1556.4034	2359.9354	2361.6467	3082.3387	3090.2813	3097.8883	3161.5522	3163.2189
N#CC1(C#N)C2CN1C2	N#CC1(C#N)[C@H]2CN1C2	
InChI=1S/C6H5N3/c7-3-6(4-8)5-1-9(6)2-5/h5H,1-2H2	InChI=1S/C6H5N3/c7-3-6(4-8)5-1-9(6)2-5/h5H,1-2H2
