22
gdb 85052	2.32811	1.4805	1.04381	3.7792	82.26	-0.2339	0.0372	0.2711	1233.112	0.194719	-404.412438	-404.402946	-404.402002	-404.446176	36.528	
C	-0.291787609	 1.5446929455	-0.0495221991	-0.413809
C	 0.0605239415	 0.0622304913	 0.0143770705	 0.049678
N	 0.9233815587	-0.3530092097	-1.0864542071	-0.318894
C	 1.7468036356	-1.4051154719	-0.7892268965	 0.416626
O	 2.4808244595	-1.9847183138	-1.5610399458	-0.391639
C	 1.5373879721	-1.713683153	 0.7014731162	-0.105454
C	 2.794053622	-2.2518019301	 1.3785125355	-0.411746
C	 0.8788409877	-0.4207427596	 1.2510139614	-0.018864
C	 1.8935869376	 0.6121866479	 1.7545513453	-0.39901
H	 0.6037940231	 2.1703618647	-0.070764894	 0.130122
H	-0.8792795048	 1.76179288	-0.94818976	 0.115614
H	-0.8980707393	 1.8312767755	 0.8156352537	 0.12296
H	-0.8818355925	-0.5102545528	-0.0101273176	 0.075886
H	 0.7587757016	-0.0905423975	-2.0461448424	 0.244473
H	 0.7731792354	-2.5059038851	 0.71721609	 0.09787
H	 3.5997004427	-1.512888736	 1.3880631389	 0.123563
H	 2.5932763222	-2.5546937586	 2.4108624515	 0.107203
H	 3.1566825165	-3.1205615231	 0.8233911543	 0.139522
H	 0.1886349447	-0.6554072081	 2.0679955674	 0.072033
H	 2.6031033978	 0.9018240895	 0.9723163661	 0.128174
H	 1.3925558448	 1.5179768654	 2.1069832863	 0.114606
H	 2.4685979222	 0.2109650993	 2.5933344153	 0.121085
87.0819	125.5495	204.3713	239.7458	252.1893	255.9486	268.0677	319.5484	334.4145	433.8061	465.6388	519.7304	540.3549	614.0113	676.5981	715.7704	763.9135	814.732	854.0181	959.1636	979.2651	1023.9819	1034.6419	1063.6521	1084.9851	1105.6354	1144.2782	1166.2812	1201.6409	1253.9051	1259.6581	1303.3259	1330.2495	1365.7275	1380.1043	1394.1204	1407.0867	1410.5849	1416.3889	1432.5637	1488.6779	1491.6233	1496.0214	1498.9375	1510.1373	1515.7114	1825.6364	2950.8471	2991.5175	3038.2313	3041.4107	3045.5649	3050.3523	3100.447	3110.5879	3113.0591	3116.0838	3126.5038	3128.1544	3629.3112
CC1NC(=O)C(C)C1C	C[C@H]1NC(=O)[C@@H](C)[C@H]1C	
InChI=1S/C7H13NO/c1-4-5(2)7(9)8-6(4)3/h4-6H,1-3H3,(H,8,9)	InChI=1S/C7H13NO/c1-4-5(2)7(9)8-6(4)3/h4-6H,1-3H3,(H,8,9)/t4-,5+,6-/m1/s1
