17
gdb 47163	2.36173	1.90655	1.1476	4.1669	74.4	-0.2282	-0.021	0.2072	1045.6673	0.136435	-421.820059	-421.812464	-421.81152	-421.852688	28.789	
O	 0.1672516605	-0.0622280001	-0.0400828144	-0.299136
C	 0.0263023208	 1.1268009267	 0.0830718001	 0.355696
C	-1.3370814551	 1.7777099357	 0.3829061555	-0.30632
C	-1.315316021	 3.2516849644	 0.8760570827	-0.272467
C	-0.0662357712	 3.5558551757	 1.6849156862	-0.23561
C	 1.062770202	 3.0564171667	 1.2099348081	 0.273457
C	 2.4967251561	 2.706574409	 1.5187362569	-0.173897
O	 2.4806903371	 1.7143667126	 0.4503557554	-0.291133
C	 1.1668093364	 2.1360929546	 0.0299244079	-0.024216
H	-1.9554565119	 1.679284211	-0.516987063	 0.133276
H	-1.8021768991	 1.1348951622	 1.1368313845	 0.144734
H	-1.3772257314	 3.9358252229	 0.0191371476	 0.121528
H	-2.2144921071	 3.4395828692	 1.4695118431	 0.116009
H	-0.1335113315	 4.1260096311	 2.6057601937	 0.103288
H	 3.2379590359	 3.4923510209	 1.3214023185	 0.1184
H	 2.6960287256	 2.260495701	 2.5002010718	 0.129182
H	 1.1851685439	 2.6138734965	-0.9640210345	 0.107208
53.4413	127.8789	215.7357	260.8982	328.5574	423.8882	460.2417	517.0354	563.5491	637.4733	722.8214	740.358	832.4874	900.733	907.0649	931.2965	973.354	988.455	1030.6439	1032.6279	1064.0858	1101.1884	1135.9659	1153.9484	1184.2514	1210.1897	1248.2855	1296.0193	1310.8642	1319.0585	1348.017	1353.1967	1446.5434	1489.5974	1504.9163	1787.1002	1830.2149	2963.1401	3011.8102	3016.7044	3047.2024	3059.843	3080.1247	3094.8188	3182.4799
O=C1CCC=C2COC12	O=C1CC[CH][C]2CO[C@@H]12	
InChI=1S/C7H8O2/c8-6-3-1-2-5-4-9-7(5)6/h2,7H,1,3-4H2	InChI=1S/C7H8O2/c8-6-3-1-2-5-4-9-7(5)6/h2,7H,1,3-4H2/t7-/m1/s1
