16
gdb 21207	5.25726	1.34808	1.09288	2.8888	68.69	-0.1801	0.0486	0.2286	1063.197	0.132561	-376.112088	-376.103797	-376.102853	-376.14477	30.043	
C	 0.0612227347	 1.3792073876	 0.1855613997	-0.321512
N	-0.0452995234	 0.0045663616	-0.2689160131	-0.367569
C	-1.2594609762	-0.6533144356	-0.1288904727	 0.418584
N	-1.2888247438	-1.9718988424	 0.0288062063	-0.343152
N	-2.6289027503	-2.2635753966	 0.0781171331	-0.250702
C	-3.4106385219	-1.1679118859	-0.0417430763	 0.40348
N	-4.8038672694	-1.268176245	-0.0890755838	-0.607627
C	-2.5618744171	-0.0836401864	-0.1682793521	-0.375871
H	 1.0870240921	 1.7243684296	 0.0334781965	 0.121289
H	-0.5906271364	 2.0239658107	-0.4131179806	 0.128944
H	-0.2021201119	 1.5233034454	 1.2459936751	 0.106885
H	 0.7208208219	-0.585771012	 0.0245311789	 0.236747
H	-2.9192159011	-3.2248779137	 0.0607394071	 0.263258
H	-5.1899343272	-1.8265324139	 0.6634414535	 0.248223
H	-5.2428393997	-0.357398421	-0.0825123992	 0.25394
H	-2.8439520306	 0.9518740877	-0.2584175923	 0.085085
77.2569	148.6366	170.7398	199.1501	231.3973	290.2467	366.632	421.0441	492.3484	572.9254	651.0352	675.8058	703.9408	740.6944	772.8589	784.8826	986.2141	1049.5399	1080.2562	1111.2826	1133.2257	1154.9512	1197.7725	1214.4393	1338.0563	1415.1391	1454.6835	1475.6197	1488.849	1516.2951	1541.5992	1589.8874	1624.8747	1660.8667	2971.2918	3065.6538	3113.3747	3268.6957	3529.7785	3587.9874	3628.0576	3689.3993
CNC1=NNC(N)=C1	CNc1n[nH]c(N)c1	
InChI=1S/C4H8N4/c1-6-4-2-3(5)7-8-4/h2H,1H3,(H4,5,6,7,8)	InChI=1S/C4H8N4/c1-6-4-2-3(5)7-8-4/h2H,1H3,(H4,5,6,7,8)
