15
gdb 78828	2.86495	1.72501	1.31769	3.1676	68.06	-0.2741	0.0181	0.2922	943.9238	0.11391	-416.751938	-416.744736	-416.743792	-416.7836	27.527	
O	-0.0901763904	 1.4764561223	-0.0016472298	-0.416327
C	-0.0354439368	 0.0814299769	-0.0648352495	 0.133835
C	-1.3597858447	-0.636233599	-0.1347628306	-0.060701
C	-1.767625986	-0.7620479514	-1.5622143142	-0.059429
C	-0.710788077	-0.1274291098	-2.4589171277	-0.12622
C	-0.7490590557	 1.2785177669	-2.848410396	 0.269044
N	-0.7791393189	 2.3710887569	-3.2235404264	-0.333625
C	 0.2752499958	-0.6593564172	-1.3912495617	-0.096611
N	-0.7770797782	-1.7383339693	-0.98964105	-0.167623
H	 0.8022172014	 1.831879617	 0.0643678785	 0.294587
H	 0.5770251433	-0.3533208695	 0.7362471217	 0.095959
H	-2.0453211917	-0.8536081789	 0.6750379592	 0.110466
H	-2.7631378934	-1.0723034058	-1.8545897936	 0.118458
H	-0.6086904603	-0.7360887266	-3.3626561104	 0.139603
H	 1.2830126624	-0.9584886723	-1.6696969998	 0.098584
127.0053	137.2606	228.6047	268.2513	314.6643	444.0472	511.9054	539.6957	615.527	756.6414	774.6708	782.2348	818.6136	846.9185	921.5185	938.231	995.6607	1020.2198	1050.4365	1064.3344	1094.974	1126.9032	1148.026	1170.3284	1180.6685	1205.6192	1264.0943	1296.9718	1344.9857	1360.0597	1386.3875	1442.2475	2358.5187	3023.722	3071.6954	3150.3449	3193.8112	3204.9001	3820.0981
OC1C2C3C(C#N)C1N23	O[C@H]1[C@H]2[C@H]3[C@@H](C#N)[C@@H]1N23	
InChI=1S/C6H6N2O/c7-1-2-3-5-6(9)4(2)8(3)5/h2-6,9H	InChI=1S/C6H6N2O/c7-1-2-3-5-6(9)4(2)8(3)5/h2-6,9H/t2-,3-,4+,5-,6-,8?/m1/s1
