17
gdb 67345	2.79277	1.91241	1.31041	1.6561	71.66	-0.2338	-0.0226	0.2111	956.4116	0.135708	-421.791603	-421.784312	-421.783368	-421.823135	28.947	
C	-0.0674499371	 1.5393664394	 0.0238815265	-0.512701
C	-0.0429525679	 0.0361120405	 0.0243897949	 0.22169
C	 1.1303401159	-0.7775463583	-0.6446383454	 0.01203
O	 2.0489065236	-0.4337521665	 0.4473983056	-0.313306
C	 0.777769279	-0.7827112217	 1.0931122689	 0.012027
C	 0.59536061	-2.0037768742	 0.147820437	-0.050653
C	-0.8808469359	-2.2152287475	-0.1523400154	-0.372479
C	-1.3144844501	-0.7415050177	-0.2358652598	 0.355165
O	-2.4121649088	-0.3005097827	-0.4574226737	-0.317151
H	 0.9317193821	 1.9318902237	 0.2276440047	 0.136619
H	-0.4101340948	 1.9201251525	-0.9430668114	 0.131717
H	-0.7601383304	 1.9150054405	 0.7831432367	 0.131711
H	 1.4994692675	-0.7074657367	-1.6688234233	 0.102539
H	 0.7184778348	-0.7189125607	 2.1805576136	 0.102537
H	 1.2689104173	-2.8476047802	 0.2819610293	 0.093965
H	-1.0742117963	-2.7362918635	-1.0957027494	 0.133148
H	-1.4259850887	-2.741508967	 0.6380293412	 0.133141
112.6521	187.5712	241.0064	301.9514	319.6892	387.2248	533.3036	605.9749	607.7147	667.5871	695.2816	697.0517	785.9498	847.4148	873.7825	899.5728	912.7153	974.6766	992.2445	1034.8569	1040.9793	1088.8131	1101.7914	1145.5176	1165.9708	1181.7869	1211.271	1211.5726	1268.7585	1274.3152	1335.8617	1360.0316	1408.5491	1461.1385	1487.1181	1491.7934	1853.3844	3044.7779	3052.9929	3096.0739	3107.9912	3109.0185	3112.6412	3129.1262	3149.6489
CC12C3OC1C3CC2=O	C[C@@]12[C@H]3O[C@@H]1[C@H]3CC2=O	
InChI=1S/C7H8O2/c1-7-4(8)2-3-5(7)9-6(3)7/h3,5-6H,2H2,1H3	InChI=1S/C7H8O2/c1-7-4(8)2-3-5(7)9-6(3)7/h3,5-6H,2H2,1H3/t3-,5-,6+,7+
