18
gdb 95461	3.03375	1.1671	0.94414	3.627	78.45	-0.2437	-0.0064	0.2373	1249.1004	0.147164	-401.971102	-401.962154	-401.96121	-402.005693	32.087	
C	 0.2197161319	 1.5816915762	-0.1631140019	-0.393809
C	 0.0169860413	 0.0860917087	 0.0794763863	 0.050214
O	 0.4411940976	-0.6450273569	-1.0751396645	-0.276174
C	 1.3609079894	-1.6698444415	-0.716250859	-0.11115
C	 1.5696498857	-1.5077770815	 0.7600609427	-0.204738
C	 0.8127011739	-0.5172167969	 1.2193013014	 0.307149
C	 0.6651255378	-0.0841685533	 2.6557454667	-0.449703
C	 1.2581272032	 1.2258250931	 2.9471647682	 0.271081
N	 1.7292467293	 2.2542839548	 3.1820837533	-0.309526
H	 1.2817682481	 1.8137628508	-0.2789820919	 0.129419
H	-0.3038332522	 1.8714668022	-1.078132325	 0.127927
H	-0.1778156315	 2.1772094207	 0.6640615038	 0.125628
H	-1.0608474574	-0.0980785779	 0.2417966939	 0.078764
H	 0.9473890543	-2.6607813338	-0.9657700454	 0.107955
H	 2.2910463302	-1.5549300655	-1.2933377115	 0.114288
H	 2.2337173841	-2.1364121104	 1.3410642008	 0.110028
H	-0.3969190813	-0.0393364814	 2.93169631	 0.160461
H	 1.1317632058	-0.8208942872	 3.3176395922	 0.162186
43.349	79.1526	112.1327	226.237	240.2448	253.598	324.6135	384.6624	393.9654	450.1175	579.3488	688.066	779.8664	788.6894	833.3241	876.7075	925.0276	939.3049	965.8031	1040.4872	1050.0209	1076.4469	1113.9839	1120.8718	1187.907	1201.4111	1216.7992	1302.1256	1328.0669	1357.0075	1373.4198	1383.3056	1407.4782	1454.736	1481.9446	1494.0882	1520.0537	1729.8875	2362.3385	2929.8726	2970.2231	2996.7242	3027.2533	3045.4479	3082.667	3121.5147	3127.873	3209.4043
CC1OCC=C1CC#N	C[C@H]1OCC=C1CC#N	
InChI=1S/C7H9NO/c1-6-7(2-4-8)3-5-9-6/h3,6H,2,5H2,1H3	InChI=1S/C7H9NO/c1-6-7(2-4-8)3-5-9-6/h3,6H,2,5H2,1H3/t6-/m1/s1
