17
gdb 29631	2.38533	1.90529	1.07346	2.8619	78.16	-0.2336	-0.04	0.1935	1085.2675	0.137185	-418.088039	-418.07976	-418.078816	-418.121174	30.554	
C	-0.0219872338	 1.458304656	 0.0048071703	-0.362035
N	 0.0001745752	-0.0054506726	 0.0231903566	-0.174416
C	-0.0202061715	-0.6596415218	-1.2532897973	 0.419406
O	-0.054011294	-0.0090729983	-2.2833658303	-0.400873
C	 0.0036283233	-2.0955857032	-1.1422630378	-0.227437
C	 0.0412337715	-2.6880442494	 0.0778927047	 0.008002
N	 0.059262585	-2.0101397757	 1.2632560001	-0.332182
C	 0.038376468	-0.7059628805	 1.1976912529	 0.412835
C	 0.057433221	 0.0660888996	 2.4867532417	-0.488782
H	 0.8745855362	 1.8676810367	 0.4774460581	 0.139319
H	-0.0528281419	 1.7557615754	-1.0417664708	 0.185967
H	-0.9051647504	 1.8412306376	 0.5226092616	 0.139273
H	-0.0097833479	-2.6610820322	-2.0648702923	 0.118573
H	 0.0593631709	-3.7713564887	 0.1670321498	 0.116878
H	 0.088570929	-0.6479892786	 3.3081143587	 0.158585
H	 0.9299634599	 0.7251446472	 2.5485826056	 0.143416
H	-0.8315773507	 0.6971734985	 2.5912500386	 0.143471
66.2348	113.6802	183.5491	213.0268	261.0111	343.6556	392.4697	453.1334	487.1435	547.7165	572.0365	634.1176	694.8565	776.8852	827.0848	862.9446	932.5163	1011.5261	1012.7513	1061.4655	1074.0557	1150.3592	1167.4022	1184.1497	1226.4689	1289.1947	1382.0653	1410.9602	1435.9937	1459.3313	1465.1382	1479.0131	1497.1853	1513.0959	1579.5891	1638.8207	1780.5264	3041.7288	3052.6563	3096.4765	3116.8842	3162.6848	3167.6756	3174.6332	3223.3376
CN1C(=O)C=CN=C1C	Cn1c(=O)ccnc1C	
InChI=1S/C6H8N2O/c1-5-7-4-3-6(9)8(5)2/h3-4H,1-2H3	InChI=1S/C6H8N2O/c1-5-7-4-3-6(9)8(5)2/h3-4H,1-2H3
