19
gdb 87404	2.02249	1.60976	1.1132	2.5833	71.86	-0.2452	0.05	0.2952	1155.8353	0.157002	-460.126635	-460.117303	-460.116359	-460.160404	35.176	
C	-0.0310997649	 1.5140078708	-0.1224967209	-0.434854
C	-0.0334626263	 0.0191933914	 0.0735810485	-0.019893
O	 1.2178718554	-0.662585967	-0.1383859137	-0.301301
C	 0.6702589052	-0.6695508397	 1.1638767159	 0.363353
C	 1.3187181527	-0.1233069499	 2.4472831645	 0.056024
O	 1.2605191999	 1.2430389002	 2.7695155487	-0.422063
C	 0.4484603216	-1.1458375647	 3.2387392444	-0.314359
C	 0.1947497979	-1.9168644648	 1.9071397538	 0.037287
O	-1.1186564257	-2.3111763051	 1.5885671424	-0.429366
H	 0.8273628986	 1.9723509751	 0.3706595817	 0.147309
H	 0.0030361633	 1.7511221585	-1.1910438865	 0.128628
H	-0.9504244887	 1.9538445751	 0.2818457923	 0.113057
H	-0.8866417469	-0.5118679002	-0.3494558817	 0.1086
H	 2.379834142	-0.3890004763	 2.4788041298	 0.105822
H	 0.3343489379	 1.5068689848	 2.7819341685	 0.282318
H	 0.9179714787	-1.6779758686	 4.067352044	 0.105033
H	-0.4840702948	-0.6837974952	 3.5784966188	 0.103675
H	 0.9080355224	-2.74163186	 1.7738822665	 0.082256
H	-1.2851369182	-3.1725164644	 1.983144843	 0.288475
84.3366	140.8699	169.6811	219.1116	238.3131	245.473	291.1293	341.5968	372.0072	422.7958	488.6759	513.8472	551.5705	597.3447	698.2427	794.8868	840.8329	876.8644	946.6183	1015.2624	1038.3236	1042.8558	1051.8861	1103.5194	1125.0079	1145.4496	1166.5201	1187.7124	1190.7104	1232.8781	1266.1919	1296.6281	1314.837	1356.0784	1411.0845	1425.3403	1446.2092	1470.0285	1485.1811	1494.0033	1522.5867	3011.7928	3034.2693	3058.2589	3071.7548	3092.6895	3111.067	3129.279	3148.0827	3810.7261	3825.3666
CC1OC11C(O)CC1O	C[C@H]1O[C@]21[C@@H](O)C[C@H]2O	
InChI=1S/C6H10O3/c1-3-6(9-3)4(7)2-5(6)8/h3-5,7-8H,2H2,1H3	InChI=1S/C6H10O3/c1-3-6(9-3)4(7)2-5(6)8/h3-5,7-8H,2H2,1H3/t3-,4-,5+,6+/m1/s1
