15
gdb 84740	2.06613	1.80865	1.25553	5.0254	67.46	-0.2361	-0.0807	0.1554	1018.9811	0.111358	-457.782726	-457.774309	-457.773365	-457.816649	30.173	
O	-0.0217852798	 1.4293573533	 0.0452029548	-0.422807
C	 0.0179377089	-0.0023364171	-0.0289545699	-0.021481
C	 0.8047016024	-0.5938180265	 1.1090947676	-0.123808
C	 0.2374251802	-1.0903087379	 2.2109626479	-0.055656
C	-1.2459456039	-1.1908633163	 2.4507564599	-0.374447
C	-2.1003783981	-0.5627033706	 1.3542712636	 0.300924
O	-3.2187864859	-0.1569719746	 1.5346823977	-0.278526
C	-1.4243373641	-0.5181800784	-0.0349829037	 0.319569
O	-2.0102028365	-0.8713620704	-1.0252916937	-0.284624
H	-0.051903129	 1.6762557592	 0.9764491251	 0.288424
H	 0.4594714283	-0.238434216	-1.0015328059	 0.116412
H	 1.8869693714	-0.5533335405	 1.024000039	 0.114447
H	 0.8704974798	-1.4612081602	 3.0136011965	 0.114267
H	-1.5388327018	-2.2511362161	 2.5097679973	 0.160241
H	-1.5359043617	-0.7581179581	 3.4154964638	 0.147066
50.8241	58.7807	168.0909	242.6863	278.5101	324.1713	345.6457	445.6638	469.5419	531.1486	588.1404	636.9638	688.3519	782.9591	883.9041	922.7708	950.1423	977.5713	1011.8151	1035.6911	1104.2998	1137.4202	1190.2544	1238.9895	1263.3439	1326.647	1337.3738	1395.0018	1418.3493	1436.1897	1712.4899	1822.397	1829.6621	3000.8336	3060.9992	3076.9324	3153.6674	3177.8299	3804.4923
OC1C=CCC(=O)C1=O	O[C@H]1C=CCC(=O)C1=O	
InChI=1S/C6H6O3/c7-4-2-1-3-5(8)6(4)9/h1-2,4,7H,3H2	InChI=1S/C6H6O3/c7-4-2-1-3-5(8)6(4)9/h1-2,4,7H,3H2/t4-/m0/s1
