20
gdb 110423	4.6815	1.09885	1.00629	2.3974	79.64	-0.2353	0.0857	0.321	1256.5447	0.170478	-403.081509	-403.073009	-403.072065	-403.114439	32.382	
C	-0.0271501075	 1.2725397849	 0.2323657393	-0.239918
O	-0.1080131316	-0.0429314832	-0.2691516808	-0.251836
C	-1.3756754114	-0.6250046831	-0.101521468	 0.167194
C	-1.3448009763	-2.0631534549	-0.5684233968	-0.129915
N	-0.9771089992	-2.5913619142	 0.7961387692	-0.185769
C	-1.6222931109	-1.2552692507	 1.2915276591	-0.060784
C	-3.0162647498	-1.8961319278	 1.205406812	-0.295598
C	-2.3450044759	-2.8493597122	 0.2228255768	 0.332208
C	-2.7995786481	-4.2208523668	-0.1703575775	-0.496114
H	 0.9792025078	 1.6382603559	 0.0164178382	 0.131014
H	-0.7598566833	 1.9366813992	-0.252924106	 0.104062
H	-0.1913320024	 1.3164686389	 1.3193467775	 0.106737
H	-2.1590621825	 0.0471385327	-0.4905523002	 0.057151
H	-0.8774570074	-2.4454193057	-1.4690125534	 0.096435
H	-1.2484995408	-0.7860877644	 2.199459933	 0.085024
H	-3.2834834103	-2.4206225679	 2.1275695116	 0.10881
H	-3.8585613808	-1.2768322683	 0.875809359	 0.093118
H	-3.662725886	-4.1716958825	-0.8438574026	 0.121466
H	-1.9978682306	-4.7609140939	-0.68305623	 0.132095
H	-3.0880852628	-4.802409226	 0.7115903996	 0.124618
99.058	147.5866	173.7275	192.2992	244.886	298.1926	317.6049	401.7453	456.6401	505.7934	621.3519	747.2103	794.9802	818.9483	869.669	887.3676	942.4672	959.5733	988.3883	1003.8901	1026.9513	1040.1141	1059.2844	1086.4752	1142.2769	1154.7324	1175.9659	1185.448	1211.9782	1226.946	1242.7973	1277.1298	1286.9777	1314.8585	1382.3691	1407.1425	1431.8521	1480.816	1482.8415	1489.5909	1492.5106	1501.1656	1509.4601	2952.8059	2976.0743	3023.2827	3028.9831	3032.3181	3091.3136	3094.5383	3109.4889	3119.058	3139.5895	3182.7997
COC1C2N3C1CC23C	CO[C@H]1[C@H]2N3[C@@H]1C[C@@]23C	
InChI=1S/C7H11NO/c1-7-3-4-5(9-2)6(7)8(4)7/h4-6H,3H2,1-2H3	InChI=1S/C7H11NO/c1-7-3-4-5(9-2)6(7)8(4)7/h4-6H,3H2,1-2H3/t4-,5-,6-,7+,8?/m1/s1
