19
gdb 30814	2.3766	1.29576	0.89088	2.0019	79.49	-0.1899	0.0536	0.2435	1331.1888	0.159368	-419.269199	-419.259685	-419.258741	-419.303779	34.851	
C	 0.3453770292	 1.6392037527	-0.192252099	-0.365078
C	-0.070311536	 0.1781219508	 0.0620757391	-0.307647
C	 0.578856615	-0.4424410676	 1.255029588	 0.229945
C	 0.1145713781	-0.8465809716	 2.4785420384	 0.193995
C	-1.2763671197	-0.7999820655	 3.0204624814	-0.490503
N	 1.1541774321	-1.3574556336	 3.2554475032	-0.416415
C	 2.2120880355	-1.2548763294	 2.5030619296	 0.426883
O	 3.4676542817	-1.6227374883	 2.8170990719	-0.428073
N	 1.9533905905	-0.7144887706	 1.2887282665	-0.359311
H	 1.4248089253	 1.7258053286	-0.3570635084	 0.108174
H	-0.1586892456	 2.0409760523	-1.0769812683	 0.113326
H	 0.0919295621	 2.2693510034	 0.6652858865	 0.125696
H	-1.1546467123	 0.1291429441	 0.201049383	 0.11714
H	 0.1429642453	-0.417429609	-0.8372932598	 0.102233
H	-1.6208028012	-1.8005747179	 3.305101436	 0.129426
H	-1.3283650612	-0.1768660973	 3.9205756555	 0.128871
H	-1.9804436957	-0.3944574021	 2.2890669685	 0.113908
H	 3.4230815587	-1.9780747263	 3.7136708665	 0.312199
H	 2.6242867383	-0.5595181627	 0.5560436913	 0.26523
52.852	120.0225	130.8642	198.9353	218.2634	270.6228	280.4502	316.4706	402.7762	424.8401	456.5926	510.6534	612.5036	626.9986	692.0182	727.4337	775.494	804.801	965.7226	992.4572	1046.3722	1062.3348	1069.9155	1081.2885	1172.3996	1182.7273	1237.9851	1287.036	1311.3708	1353.8559	1405.5387	1410.9696	1425.4095	1474.2076	1476.204	1494.2537	1496.8024	1504.1256	1567.2238	1626.6513	1654.6941	3002.6899	3029.6226	3034.0354	3075.9485	3079.3667	3102.766	3113.9608	3114.9369	3673.6788	3805.2164
CCC1=C(C)N=C(O)N1	CCc1c(C)nc(O)[nH]1	
InChI=1S/C6H10N2O/c1-3-5-4(2)7-6(9)8-5/h3H2,1-2H3,(H2,7,8,9)	InChI=1S/C6H10N2O/c1-3-5-4(2)7-6(9)8-5/h3H2,1-2H3,(H2,7,8,9)
