25
gdb 59981	3.01506	0.79544	0.73256	2.25	85.78	-0.2562	0.0615	0.3177	1723.1419	0.225988	-426.639045	-426.627393	-426.626449	-426.675977	43.001	
C	 0.9908442792	-0.3253235403	-1.0458254879	-0.388193
C	 0.0543796561	 0.075252429	 0.1029044938	 0.047924
C	-0.030057681	 1.6026368331	 0.2232701185	-0.391226
C	-1.3530539123	-0.5281715083	-0.0478791298	-0.198824
C	-1.4084313444	-2.0605315394	 0.0421554944	 0.128537
O	-0.7942176426	-2.5447025147	 1.2304168766	-0.441464
C	-2.8538704565	-2.5861432196	-0.0371455427	 0.120331
C	-2.9119308265	-4.1045065417	-0.1793003283	-0.41891
O	-3.4720276911	-2.1531622728	 1.180986146	-0.452008
H	 1.9779805852	 0.1319360292	-0.9203684183	 0.107892
H	 1.1383380063	-1.4080990756	-1.0983152441	 0.117868
H	 0.5930338483	 0.0083860046	-2.0125809247	 0.103736
H	 0.4749180342	-0.3216208997	 1.034784812	 0.086541
H	-0.4532595495	 2.0474932757	-0.6859678223	 0.106342
H	-0.6642931884	 1.9028247456	 1.0642745806	 0.107086
H	 0.9607985932	 2.0438171761	 0.3756846985	 0.106125
H	-2.0087916054	-0.1202626802	 0.7310437795	 0.101701
H	-1.7851428721	-0.2174050139	-1.0105734547	 0.080892
H	-0.8430257854	-2.5008820334	-0.7871648049	 0.078983
H	-1.4385955049	-2.379205497	 1.9316436793	 0.284342
H	-3.3560856052	-2.1143501909	-0.8963814809	 0.066539
H	-2.3358560116	-4.5783117641	 0.6195425853	 0.137338
H	-3.9467884029	-4.4646491842	-0.1357547064	 0.100918
H	-2.4955208269	-4.418921374	-1.1416459637	 0.120339
H	-4.2885013559	-2.6467462636	 1.2996647943	 0.287191
40.5739	80.4139	116.8384	132.8587	224.3167	236.8091	241.797	252.9759	264.4023	298.8043	302.0279	355.3628	401.0227	425.925	451.8558	484.7631	552.5326	675.6506	809.1471	842.0401	863.3381	928.4767	934.209	961.2968	967.7953	1003.013	1019.673	1068.4885	1104.3923	1120.32	1147.1181	1170.6807	1195.2398	1214.349	1247.6286	1288.8064	1325.1334	1355.0377	1368.7717	1380.6081	1391.9402	1400.0129	1402.5569	1415.2858	1420.6707	1439.2248	1479.7488	1489.0406	1489.8476	1497.0497	1501.7186	1505.8802	1512.311	2977.2653	3004.6306	3020.1857	3023.592	3028.826	3036.9725	3043.3491	3065.037	3083.735	3091.5042	3095.0014	3096.35	3105.1477	3128.0479	3762.9827	3834.9165
CC(C)CC(O)C(C)O	CC(C)C[C@@H](O)[C@@H](C)O	
InChI=1S/C7H16O2/c1-5(2)4-7(9)6(3)8/h5-9H,4H2,1-3H3	InChI=1S/C7H16O2/c1-5(2)4-7(9)6(3)8/h5-9H,4H2,1-3H3/t6-,7-/m1/s1
