14
gdb 21272	5.14363	1.51086	1.17793	1.9078	59.64	-0.202	0.0452	0.2472	966.628	0.109261	-412.062993	-412.055362	-412.054418	-412.094935	27.338	
C	-0.0248002577	 1.376914848	 0.0303366671	-0.239562
O	 0.0455022291	-0.0525465863	-0.0251043852	-0.270399
C	 0.6346370881	-0.5465850008	-1.1107146347	 0.506785
N	 1.1649986315	 0.1130333624	-2.119713918	-0.424904
C	 1.6100616215	-0.9077647514	-2.9221988286	 0.398552
N	 2.1900481366	-0.6478744924	-4.1491120054	-0.579296
N	 1.3976287722	-2.131731785	-2.4725458772	-0.304691
N	 0.7498257479	-1.872667882	-1.2800647707	-0.298504
H	 0.9781824159	 1.8120076666	 0.0245979481	 0.14357
H	-0.5860150594	 1.7678255759	-0.8225189074	 0.146407
H	-0.5365452946	 1.6098807219	 0.9642125151	 0.135387
H	 2.6769737831	 0.2361330363	-4.1745920828	 0.255186
H	 2.7526830813	-1.4128184524	-4.4932820748	 0.255628
H	 0.4359064946	-2.6208218406	-0.6879702755	 0.275842
102.7547	140.3164	202.1628	238.3993	295.89	321.2992	407.4675	443.637	524.8043	632.6452	665.5539	724.1023	778.3383	806.3454	1014.7757	1036.4453	1080.1917	1113.8875	1173.4056	1183.1899	1221.0034	1314.7098	1430.429	1468.445	1479.7731	1495.7553	1511.2704	1602.1811	1625.5502	1659.7078	3048.0132	3122.8542	3157.6306	3568.6812	3673.931	3694.4247
COC1=NC(N)=NN1	COc1nc(N)n[nH]1	
InChI=1S/C3H6N4O/c1-8-3-5-2(4)6-7-3/h1H3,(H3,4,5,6,7)	InChI=1S/C3H6N4O/c1-8-3-5-2(4)6-7-3/h1H3,(H3,4,5,6,7)
