18
gdb 91887	2.43653	1.76046	1.1197	2.2339	74.01	-0.2578	0.0145	0.2723	1091.5567	0.148327	-439.090285	-439.082348	-439.081404	-439.122816	30.698	
C	 0.0154146782	 1.5010393868	 0.0057298173	-0.406725
C	 0.0251324655	-0.0087048437	-0.0447725856	 0.199609
O	 0.8367003521	-0.4206136042	-1.1079691849	-0.245863
C	 0.9133691955	-1.8180431174	-1.2202259301	 0.079534
C	 2.1684473069	-2.4454699712	-0.7091656943	-0.301582
C	 0.8652790342	-2.5974574216	 0.0716348105	-0.12549
C	 0.662446578	-1.8421452239	 1.3364250937	 0.383615
N	 0.6306231883	-2.4205026414	 2.4611019658	-0.523982
O	 0.5405679621	-0.4816614956	 1.2090107749	-0.256314
H	 1.0364941239	 1.8684245785	 0.1326705906	 0.140341
H	-0.3938245132	 1.898584046	-0.9256399106	 0.132238
H	-0.5953281951	 1.8432082405	 0.8436782732	 0.132899
H	-0.9891728139	-0.4215739699	-0.1641153079	 0.079492
H	 0.4220637604	-2.213800673	-2.1052346357	 0.104484
H	 2.5525477385	-3.3335423741	-1.197016858	 0.124939
H	 2.9156983559	-1.7680077984	-0.3134424022	 0.139243
H	 0.416125975	-3.582073975	 0.0735201154	 0.123772
H	 0.4688313376	-1.7328910523	 3.2001524977	 0.219792
84.1905	151.7071	208.9226	215.2812	283.285	412.6195	433.1661	474.2192	487.1539	580.2775	683.3111	736.8271	765.4865	816.3927	833.9691	897.4735	910.1526	921.4995	1002.2874	1008.5126	1042.5101	1055.8877	1092.4218	1117.8133	1127.2773	1153.2928	1175.455	1182.1144	1228.5317	1315.5327	1372.0393	1380.5271	1396.6754	1410.1765	1430.3164	1474.2709	1482.1457	1489.4111	1754.1881	2979.5905	3060.7288	3138.8412	3142.67	3145.796	3147.1508	3201.0692	3241.9961	3462.9523
CC1OC2CC2C(=N)O1	C[C@H]1O[C@H]2C[C@H]2[C]([NH])O1	
InChI=1S/C6H9NO2/c1-3-8-5-2-4(5)6(7)9-3/h3-5,7H,2H2,1H3	InChI=1S/C6H9NO2/c1-3-8-5-2-4(5)6(7)9-3/h3-5,7H,2H2,1H3/t3-,4+,5-/m0/s1
