21
gdb 61895	3.45643	0.711	0.65427	2.8206	85.47	-0.2423	-0.0127	0.2296	1769.3471	0.178319	-387.084943	-387.07382	-387.072876	-387.122438	39.146	
C	-0.1312212494	 1.5558859347	 0.1073345227	-0.39874
C	 0.0225200107	 0.0219953137	 0.0158025821	-0.086639
C	 0.7323526052	-0.4360108217	-1.2681239382	-0.168652
C	-0.0373698251	-0.092065887	-2.5599135872	-0.377113
C	 0.605492309	-0.6326411828	-3.7517607809	 0.292432
C	 1.1536786732	-1.0895421343	-4.7189296254	-0.429526
C	 0.8026877623	-0.4442362499	 1.2511732979	 0.383897
C	-0.0187366454	-0.8203400309	 2.4712085269	-0.481866
O	 2.0112075299	-0.4944193562	 1.2538193564	-0.307464
H	 0.8479212422	 2.0400760892	 0.0373450171	 0.138066
H	-0.7649116031	 1.9397102492	-0.6964281858	 0.125765
H	-0.5894083482	 1.8577961728	 1.0545853732	 0.118899
H	-0.9809057556	-0.4234513236	 0.0577080788	 0.074842
H	 1.7328030906	 0.0039361965	-1.3020978643	 0.131186
H	 0.8798556073	-1.5205247208	-1.2296613379	 0.111873
H	-1.0627394612	-0.4812890063	-2.4931964227	 0.125271
H	-0.1323055913	 0.9951275405	-2.6676216219	 0.132614
H	 1.63171463	-1.4882682123	-5.5788873405	 0.193527
H	-0.7786988984	-0.0622937088	 2.6881083574	 0.135469
H	-0.5553795597	-1.7557077994	 2.270038072	 0.143598
H	 0.6322499871	-0.9587978326	 3.3352318904	 0.142562
32.7411	67.4552	85.9469	96.5777	146.0365	208.864	221.6434	254.7801	301.178	313.5315	349.922	433.2994	521.8097	601.341	606.0489	617.3752	636.0565	757.7475	785.8161	886.8237	947.0185	954.5602	962.7961	1000.1743	1040.9876	1073.3342	1117.3709	1132.7743	1171.6252	1233.8605	1278.9025	1308.9537	1336.8552	1362.6441	1380.9149	1391.9298	1405.8603	1461.9477	1473.0045	1475.7756	1492.3939	1500.3035	1504.8161	1810.9492	2239.6131	3012.0073	3014.4002	3034.0019	3038.2643	3049.0256	3057.6915	3094.4614	3103.8959	3106.7461	3118.5602	3151.6254	3508.0228
CC(CCC#C)C(C)=O	C[C@@H](CCC#C)C(=O)C	
InChI=1S/C8H12O/c1-4-5-6-7(2)8(3)9/h1,7H,5-6H2,2-3H3	InChI=1S/C8H12O/c1-4-5-6-7(2)8(3)9/h1,7H,5-6H2,2-3H3/t7-/m0/s1
