14
gdb 68705	2.10377	1.77772	1.18863	5.0134	68.05	-0.2942	-0.0265	0.2677	1034.1191	0.099844	-436.701926	-436.693969	-436.693025	-436.734549	29.119	
C	-0.0970368467	 1.4775503003	 0.0655858192	-0.483525
C	 0.0497673653	-0.0031207824	 0.0372372535	 0.411395
C	 1.1920639545	-0.8410575494	-0.3803483164	-0.353865
C	 0.6207094042	-1.0003030298	 1.0543849354	-0.082123
C	 1.3954983816	-0.8197545526	 2.2302755569	 0.21318
N	 2.0273923236	-0.6581605314	 3.1860578251	-0.341599
C	-0.735264471	-1.6659708667	 0.918716701	 0.447728
O	-1.334686775	-2.5470553643	 1.4312747565	-0.303813
O	-1.1645579809	-0.8027139941	-0.0770479932	-0.285706
H	 0.8607483645	 1.9471030184	 0.3038539016	 0.151364
H	-0.4249470823	 1.841868536	-0.9132342357	 0.155313
H	-0.8351827264	 1.7775294205	 0.8136378402	 0.156928
H	 1.0490081152	-1.6494581381	-1.0893012036	 0.155005
H	 2.1661727734	-0.3623237564	-0.3977053604	 0.159719
112.0112	145.7125	149.7096	194.8839	303.2952	342.2353	416.2827	458.849	537.7857	552.5335	643.0613	682.6181	698.7188	783.3351	815.5172	922.4799	961.6134	977.0943	1016.5672	1049.88	1113.0756	1128.821	1225.8474	1321.2408	1395.7603	1433.5639	1472.1517	1487.4216	1504.1779	1960.4386	2354.0251	3047.8598	3118.6391	3133.1493	3135.4514	3230.7654
CC12CC1(C#N)C(=O)O2	C[C@@]12C[C@]1(C#N)C(=O)O2	
InChI=1S/C6H5NO2/c1-5-2-6(5,3-7)4(8)9-5/h2H2,1H3	InChI=1S/C6H5NO2/c1-5-2-6(5,3-7)4(8)9-5/h2H2,1H3/t5-,6+/m1/s1
