19
gdb 38159	2.4745	2.16273	1.45705	1.497	79.97	-0.218	0.0114	0.2293	941.7969	0.161275	-385.83682	-385.829923	-385.828979	-385.867559	29.312	
C	-0.0957900628	 1.546659682	 0.0238046861	-0.431852
C	 1.2390640098	 0.785944768	-0.0404546907	-0.061326
C	 2.3078284327	 0.3733548519	 0.9071501887	-0.127418
C	 2.5216060042	-0.9434518866	 1.0347400931	-0.04648
C	 1.714904398	-2.0593467238	 0.3653051525	-0.267604
C	 0.1733035978	-1.8921692995	 0.240380297	 0.081061
C	-0.3591059825	-0.8586801368	 1.2419114358	-0.29881
C	-0.054139647	 0.059487145	 0.0698593123	 0.421523
O	-0.2521225843	-1.0183879718	-0.8661377587	-0.324029
H	-0.4305903465	 2.0295306334	 0.9383684628	 0.119362
H	-0.3609458046	 2.0782580371	-0.8836033622	 0.12764
H	 1.586580421	 0.7794883567	-1.0748028751	 0.111383
H	 2.953804463	 1.0918750361	 1.4063847092	 0.086316
H	 3.353241232	-1.2837743883	 1.648918272	 0.087439
H	 2.1144810072	-2.2563816712	-0.6400305677	 0.126637
H	 1.8845137241	-2.9808052553	 0.9353146358	 0.105775
H	-0.313503302	-2.8662593789	 0.1529029005	 0.077209
H	-1.4358144624	-0.9524928482	 1.399863625	 0.105139
H	 0.1682689225	-0.7145227897	 2.1840208936	 0.108033
165.5949	285.9869	315.9837	353.6321	391.4632	434.7027	480.6274	539.5611	584.2028	728.1172	738.5565	775.1509	812.3275	836.3312	857.2659	874.5392	928.8744	953.905	976.8993	987.4843	999.032	1019.8531	1063.7853	1074.1505	1083.2107	1133.9355	1167.1153	1185.7576	1209.7575	1222.2689	1250.7927	1302.7981	1320.0378	1344.6105	1372.6	1395.2404	1427.9242	1457.1047	1480.4858	1498.1383	1673.4005	3010.586	3053.7605	3075.504	3088.7866	3089.3082	3119.0777	3134.7242	3147.7298	3158.886	3210.0752
C1C2C=CCC3CC12O3	C1[C@H]2C=CC[C@H]3C[C@@]12O3	
InChI=1S/C8H10O/c1-2-6-4-8(6)5-7(3-1)9-8/h1-2,6-7H,3-5H2	InChI=1S/C8H10O/c1-2-6-4-8(6)5-7(3-1)9-8/h1-2,6-7H,3-5H2/t6-,7+,8+/m1/s1
