20
gdb 53702	10.20044	0.40492	0.39419	4.2947	90.01	-0.2505	0.0355	0.2859	2659.6696	0.168767	-366.016319	-366.005216	-366.004272	-366.05549	36.939	
C	 0.0100077866	 1.5153786724	 0.0101846867	-0.497151
C	 0.0208983221	 0.0592296041	 0.0019285993	 0.113738
C	 0.0431620584	-1.144646034	-0.0047567991	 0.020871
C	 0.0325575123	-2.6033092315	-0.0124829123	-0.362314
C	-1.391871248	-3.1941261144	-0.0019289321	-0.175125
C	-1.3874383748	-4.7246084576	-0.0100693549	-0.179594
C	-2.8163788026	-5.3036437565	 0.000594842	-0.346838
C	-2.8325026533	-6.7648935226	-0.0067631695	 0.257201
N	-2.8251197028	-7.920448816	-0.0131049679	-0.304024
H	 1.0280515246	 1.9203985182	 0.0027601623	 0.148807
H	-0.5107961565	 1.9161700455	-0.8665535587	 0.146855
H	-0.4939770786	 1.9062422434	 0.9011229283	 0.146861
H	 0.570124933	-2.9736558164	-0.8959430727	 0.128219
H	 0.5870180762	-2.9830556299	 0.8564309758	 0.12822
H	-1.9237108012	-2.8251636653	 0.8832229817	 0.111921
H	-1.9405812526	-2.8158710596	-0.8727464278	 0.111921
H	-0.8586978784	-5.0962173653	-0.8953106048	 0.122091
H	-0.8418680789	-5.1054977891	 0.8608985558	 0.122089
H	-3.360108947	-4.9550432292	 0.8865627077	 0.153121
H	-3.3769401187	-4.9458544761	-0.8711253298	 0.153132
17.7974	37.0731	57.2524	96.1785	115.3996	125.0631	220.635	237.1816	309.6924	345.9955	386.8097	399.6497	499.8461	562.4987	732.8339	770.5283	776.5099	903.0765	931.3634	1010.6907	1052.6348	1054.0553	1054.7788	1056.7245	1105.1834	1164.3999	1169.4048	1246.8279	1272.3168	1318.7928	1321.4593	1326.5448	1372.6407	1396.0128	1415.6805	1467.3356	1475.3581	1478.8334	1479.5293	1487.7968	1506.6028	2362.6492	2374.8848	3008.3661	3026.3178	3030.0712	3034.4406	3035.2851	3045.7134	3061.0797	3074.3298	3086.2874	3086.9851	3094.5727
CC#CCCCCC#N	CC#CCCCCC#N	
InChI=1S/C8H11N/c1-2-3-4-5-6-7-8-9/h4-7H2,1H3	InChI=1S/C8H11N/c1-2-3-4-5-6-7-8-9/h4-7H2,1H3
