19
gdb 80633	2.66902	1.63583	1.27093	4.7099	78.47	-0.2481	0.0211	0.2691	1039.68	0.161758	-382.049657	-382.04195	-382.041006	-382.081652	30.401	
C	-0.157558714	 1.5494929026	-0.076962698	-0.416359
C	 0.0534067141	 0.0379970657	-0.0499808698	-0.003158
C	 1.0053478234	-0.5335976658	-1.1227094628	-0.028959
C	 1.2386725494	-1.9617590979	-0.5793050667	-0.18734
N	 1.9878744592	-1.2898893102	 0.5612909147	-0.124035
C	 2.3960014237	-0.2719285559	-0.4921221043	-0.193448
C	 0.8416680788	-0.5632251428	 1.1974723542	-0.141991
C	 1.3110649898	 0.4293847221	 2.1618122417	 0.301919
N	 1.6601000055	 1.2272966429	 2.9215554736	-0.336358
H	 0.7859833824	 2.10162788	-0.0504620946	 0.133631
H	-0.6929902832	 1.8389877946	-0.9868161554	 0.117072
H	-0.7517072654	 1.8810239948	 0.7797501429	 0.1344
H	-0.923112648	-0.4536284341	-0.1137293829	 0.083936
H	 0.7644517644	-0.3170563534	-2.1648122173	 0.071594
H	 0.3774479492	-2.5663448313	-0.2777325527	 0.103544
H	 1.9358135959	-2.5622036848	-1.1663930051	 0.11731
H	 3.2283755022	-0.6687279361	-1.0757022101	 0.117939
H	 2.6474521032	 0.7187392574	-0.106837017	 0.124302
H	 0.2299975894	-1.2891705376	 1.7403370695	 0.126
122.7813	152.1422	209.7578	233.2766	303.557	402.7537	471.2198	501.3188	522.3852	598.7589	692.0095	782.5037	815.3499	837.8839	860.7344	882.6973	908.2391	948.8878	1000.8879	1016.3864	1040.0202	1062.1413	1081.2437	1095.0568	1123.9683	1136.0985	1202.9895	1212.5903	1236.132	1245.2011	1272.83	1297.8665	1315.5081	1352.1635	1381.0068	1419.9527	1492.8767	1495.3107	1505.5915	1535.7508	2358.5116	3041.0498	3044.4842	3053.053	3072.8499	3075.7289	3103.3559	3108.3961	3117.0802	3125.8678	3135.3805
CC1C2CN(C2)C1C#N	C[C@H]1[C@@H]2CN(C2)[C@H]1C#N	
InChI=1S/C7H10N2/c1-5-6-3-9(4-6)7(5)2-8/h5-7H,3-4H2,1H3	InChI=1S/C7H10N2/c1-5-6-3-9(4-6)7(5)2-8/h5-7H,3-4H2,1H3/t5-,7-/m0/s1
