20
gdb 63673	4.36828	0.6664	0.63239	4.5034	80.81	-0.261	0.0376	0.2985	1761.0837	0.168854	-403.155069	-403.14499	-403.144045	-403.190658	36.692	
C	 0.0060213629	 1.5555346748	-0.2187430727	-0.450494
C	 0.0028921868	 0.0588150956	-0.0025447953	 0.380829
O	-1.1466504075	-0.5793787743	-0.5024925025	-0.465053
C	 1.2909833251	-0.7334754085	-0.0412812529	-0.355061
C	 0.5090268466	-0.5835522165	 1.2564972507	-0.02661
C	 1.0664532747	 0.1895405422	 2.4302683696	-0.225256
C	 2.0147104122	-0.6890424287	 3.2762629923	-0.33203
C	 2.5875772977	 0.0317080558	 4.4104967743	 0.25623
N	 3.0314880627	 0.6203183101	 5.3004958771	-0.305461
H	 0.8988085092	 2.0318117881	 0.1938303559	 0.121288
H	-0.0166044572	 1.7828346643	-1.2916972944	 0.111648
H	-0.8767392493	 2.0122787688	 0.2397896938	 0.130878
H	-1.1430220935	-0.4830453036	-1.4617290081	 0.280656
H	 1.2717739435	-1.6982422493	-0.5354191206	 0.11574
H	 2.2245969886	-0.1866867514	-0.1386917994	 0.109303
H	-0.0678224184	-1.4626300306	 1.5338147966	 0.100962
H	 1.6180884651	 1.0711821449	 2.0903747006	 0.118589
H	 0.2546634876	 0.5550406168	 3.0692176606	 0.12598
H	 1.4791499604	-1.5669956322	 3.6556366027	 0.15258
H	 2.8313532228	-1.0664956563	 2.6505952417	 0.155281
59.1919	73.5055	90.2508	196.0704	212.1865	226.6349	273.7068	310.7931	380.2352	397.5755	420.8566	425.626	516.2422	557.8884	703.703	764.6938	842.0871	890.252	917.1598	924.266	958.3052	993.0598	1015.1927	1041.545	1071.5152	1089.1113	1120.9956	1152.3063	1213.1508	1247.3519	1279.6389	1295.1211	1316.826	1353.7115	1376.4986	1416.6091	1425.1926	1467.2333	1477.8528	1488.0394	1492.158	1512.5403	2361.6233	3028.2316	3039.5691	3048.5487	3073.8251	3090.429	3095.0207	3121.3427	3124.6744	3142.1322	3216.9138	3789.0001
CC1(O)CC1CCC#N	C[C@@]1(O)C[C@H]1CCC#N	
InChI=1S/C7H11NO/c1-7(9)5-6(7)3-2-4-8/h6,9H,2-3,5H2,1H3	InChI=1S/C7H11NO/c1-7(9)5-6(7)3-2-4-8/h6,9H,2-3,5H2,1H3/t6-,7-/m1/s1
