22
gdb 97775	4.28823	0.6445	0.61169	1.3817	95.07	-0.2278	0.0465	0.2743	1961.2853	0.191897	-367.176898	-367.166049	-367.165105	-367.213906	38.999	
C	 0.0040912108	 1.6448211028	 0.0228560591	-0.363432
C	-0.0013544666	 0.1051852584	 0.002665808	-0.317184
C	 0.6707094371	-0.4555066696	-1.1647517473	 0.124954
C	 1.2413920691	-0.8977832151	-2.1302713775	 0.107502
C	 1.8890269401	-1.4184309377	-3.3024908443	-0.314871
N	 3.1922185975	-2.1210623715	-3.1318652538	-0.354512
C	 2.0257979404	-2.8858911796	-3.5969629193	 0.337646
C	 1.5045851283	-3.905898766	-2.6083094057	-0.436215
C	 1.9785912373	-3.3158710731	-5.0492428723	-0.456224
H	 1.0276487603	 2.0290932145	 0.0286037107	 0.129506
H	-0.5016705663	 2.0467661583	-0.8593186516	 0.126148
H	-0.5099136027	 2.0166509198	 0.9143498836	 0.11291
H	 0.4809313096	-0.2738724703	 0.9129430784	 0.130711
H	-1.0370831249	-0.257429266	 0.0389970923	 0.126265
H	 1.7964923482	-0.7823144799	-4.1815912574	 0.09711
H	 3.7958116438	-1.8866060495	-3.917689342	 0.225299
H	 1.5717576635	-3.5244900457	-1.5884260653	 0.138366
H	 0.4583294928	-4.1522495799	-2.8201371058	 0.112974
H	 2.0898615205	-4.8300485629	-2.6716789927	 0.113707
H	 2.6111713067	-4.1968218137	-5.2106744514	 0.12225
H	 0.9595380624	-3.5820381172	-5.3503815478	 0.125654
H	 2.329333592	-2.5202728058	-5.714969028	 0.111436
25.208	72.0432	93.3629	151.4259	181.2401	201.9398	234.6824	278.8378	321.2855	349.1811	387.158	404.0667	496.9838	511.2147	557.7956	704.463	752.0023	786.1672	835.0477	897.7653	957.6247	963.7328	976.15	1017.5097	1058.6103	1081.5539	1091.1245	1103.9496	1150.4309	1169.1685	1227.0201	1286.1749	1303.5292	1347.8755	1353.2067	1408.6713	1412.979	1422.8115	1436.428	1475.1547	1476.668	1487.4767	1494.5731	1496.2071	1505.9183	1509.0547	2361.6812	3017.1064	3022.4656	3034.6784	3043.804	3044.3866	3087.0088	3094.191	3097.7426	3110.9649	3116.8107	3123.5471	3140.7331	3482.3024
CCC#CC1NC1(C)C	CCC#C[C@H]1NC1(C)C	
InChI=1S/C8H13N/c1-4-5-6-7-8(2,3)9-7/h7,9H,4H2,1-3H3	InChI=1S/C8H13N/c1-4-5-6-7-8(2,3)9-7/h7,9H,4H2,1-3H3/t7-/m1/s1
