17
gdb 93543	3.52354	1.25436	0.97561	3.8891	71.29	-0.2543	-0.0038	0.2506	1184.5486	0.137074	-455.191257	-455.182922	-455.181978	-455.224737	30.777	
C	-0.0729327151	 1.5804202841	-0.0059038608	-0.386383
C	 0.0385229069	 0.0521819341	 0.0343816993	 0.051089
C	 0.6552259357	-0.4895812558	-1.2598565773	-0.187581
N	 0.599570104	-1.9386896396	-1.3419616299	-0.348736
C	 1.3021295734	-2.8243021364	-0.5914571352	 0.456783
O	 1.4078390257	-3.9971739777	-0.8256518039	-0.355908
O	 1.9667725849	-2.3018910706	 0.512028084	-0.234658
C	 1.5633775712	-1.2841314918	 1.3522239427	 0.13059
N	 0.7727442924	-0.3176070343	 1.2333156641	-0.249247
H	 0.9142831381	 2.0371485372	-0.1323993324	 0.122822
H	-0.7143690807	 1.9072022856	-0.8304159448	 0.110587
H	-0.4924222293	 1.9460158793	 0.9334968924	 0.135488
H	-0.9715287508	-0.3699211942	 0.1252723343	 0.103097
H	 0.1024213594	-0.1005793264	-2.1185862091	 0.120945
H	 1.6890723799	-0.1299844466	-1.3494127007	 0.127799
H	 0.1810973879	-2.3623802629	-2.1542516876	 0.265584
H	 2.1025697565	-1.4249811341	 2.2875209948	 0.137731
54.3979	87.9523	222.4188	230.7709	285.0481	330.1939	344.7114	403.5176	510.0753	530.3983	577.917	661.8317	744.7194	774.3266	830.2789	850.2388	917.1921	930.7248	960.615	1070.989	1102.0112	1118.4324	1141.0305	1161.548	1282.481	1296.1826	1319.9362	1374.6991	1400.558	1411.0347	1441.8008	1467.8753	1485.4907	1495.7131	1500.0233	1764.8116	1863.5903	3011.9796	3025.0991	3040.517	3098.7443	3109.902	3133.7584	3155.1944	3647.9213
CC1CNC(=O)OC=N1	C[C@H]1CNC(=O)OC=N1	
InChI=1S/C5H8N2O2/c1-4-2-6-5(8)9-3-7-4/h3-4H,2H2,1H3,(H,6,8)	InChI=1S/C5H8N2O2/c1-4-2-6-5(8)9-3-7-4/h3-4H,2H2,1H3,(H,6,8)/t4-/m0/s1
