17
gdb 5795	5.89961	1.44587	1.2805	2.0297	75.05	-0.201	0.0444	0.2455	972.0397	0.144278	-326.740004	-326.733072	-326.732128	-326.771854	26.888	
C	-0.1378867131	 1.4307673517	-0.1678273561	-0.285366
C	 1.2780347409	 0.9574860787	 0.0820290065	-0.285262
C	 0.1407018926	-0.0279008315	 0.0752556559	 0.079131
N	-0.2900354135	-0.6820132276	 1.2774745521	 0.027421
C	-0.3373425103	-0.1494517545	 2.5443798439	-0.104355
C	-0.8104970238	-1.1163987047	 3.4024935232	-0.171402
C	-1.0609693634	-2.2818827187	 2.6305827705	-0.178891
C	-0.7312604889	-1.9828404251	 1.3288253488	-0.096652
H	-0.6336401126	 1.9800250915	 0.6245384365	 0.128137
H	-0.418779255	 1.737679876	-1.1691378339	 0.121177
H	 1.9775071025	 0.9368439732	-0.7462413728	 0.121166
H	 1.7262430891	 1.1909965463	 1.0411346004	 0.128145
H	 0.0667806715	-0.696969249	-0.7736563464	 0.104941
H	-0.0331088321	 0.8670422258	 2.733760376	 0.1153
H	-0.9586364346	-0.9960248879	 4.464739494	 0.091407
H	-1.438265841	-3.2287051534	 2.984819553	 0.091885
H	-0.7703616182	-2.5790218009	 0.4308798984	 0.113219
35.5927	150.1005	206.3951	412.6107	413.6963	618.3146	621.001	634.8957	673.2786	736.3989	776.2037	789.25	807.6892	843.2096	883.6309	901.6931	944.0276	979.8643	1057.7065	1067.1082	1072.52	1090.0306	1108.1531	1119.5915	1128.1683	1196.8582	1218.467	1277.9205	1314.3938	1373.507	1424.9737	1447.7659	1465.3336	1506.1996	1534.766	1561.639	3137.2836	3139.9211	3182.3244	3218.7413	3233.1096	3239.9682	3250.5957	3264.0308	3271.9902
C1CC1N1C=CC=C1	C1CC1n1cccc1	
InChI=1S/C7H9N/c1-2-6-8(5-1)7-3-4-7/h1-2,5-7H,3-4H2	InChI=1S/C7H9N/c1-2-6-8(5-1)7-3-4-7/h1-2,5-7H,3-4H2
