19
gdb 107299	3.41179	1.27326	1.16614	1.4659	74.92	-0.2474	0.0603	0.3076	1126.7788	0.158948	-422.958267	-422.950127	-422.949183	-422.991048	31.429	
O	 0.1417970072	 1.3782078249	 0.2305694847	-0.418509
C	-0.0093740349	 0.0077478359	-0.1123510021	-0.21222
C	-1.4625909934	-0.3291745451	-0.0190930232	 0.427897
O	-1.8978938499	-1.5230216362	-0.6793234655	-0.288509
C	-2.5644647569	-0.2899602726	-1.0012913865	-0.056353
C	-3.6036629794	-0.0021749047	 0.1071805903	-0.050167
C	-4.2611531677	-1.2346670564	 0.7969278335	-0.223973
C	-3.0980915661	-1.2733259134	 1.8394412382	-0.231045
C	-2.4384453646	-0.0427550967	 1.1509879773	-0.098575
H	 1.0804366103	 1.5574305945	 0.3359124964	 0.292258
H	 0.3372384282	-0.2082381032	-1.1342381494	 0.101563
H	 0.5580184607	-0.6409809362	 0.5748858171	 0.096283
H	-2.5810509811	-0.0123277484	-2.050162857	 0.099171
H	-4.1987941964	 0.8980833976	-0.0450498986	 0.072637
H	-5.2359317401	-1.0096172813	 1.2359475319	 0.095419
H	-4.3523580659	-2.1212540479	 0.1670322653	 0.108543
H	-3.4207136235	-1.0692011117	 2.8631001847	 0.094606
H	-2.4979827286	-2.1853172128	 1.8326627388	 0.105657
H	-2.1781635881	 0.8310115235	 1.7461160038	 0.085316
82.1415	139.213	188.786	212.0499	245.6922	295.964	413.4235	513.8463	567.7719	623.9036	709.0305	732.2577	805.5495	824.4674	838.9322	873.1904	898.5632	954.4477	955.7299	988.2592	1015.0066	1051.7016	1053.6163	1080.6096	1107.1555	1138.2911	1160.5195	1205.8993	1216.9062	1234.5263	1247.1753	1257.3448	1266.7671	1280.67	1293.56	1319.2883	1421.1436	1461.9311	1478.8131	1497.1509	1513.218	2968.3053	3008.2943	3063.4397	3070.0882	3109.3764	3115.7058	3128.3664	3135.5736	3170.5098	3835.9106
OCC12OC1C1CCC21	OC[C@]12O[C@H]1[C@H]1CC[C@@H]21	
InChI=1S/C7H10O2/c8-3-7-5-2-1-4(5)6(7)9-7/h4-6,8H,1-3H2	InChI=1S/C7H10O2/c8-3-7-5-2-1-4(5)6(7)9-7/h4-6,8H,1-3H2/t4-,5+,6-,7+/m0/s1
