20
gdb 90885	2.37932	1.97195	1.44931	1.908	77.04	-0.2303	0.0651	0.2953	981.3937	0.172181	-403.122316	-403.114378	-403.113434	-403.154187	32.051	
C	 0.0221046446	 1.4899301401	 0.0303977362	-0.487648
C	 0.0238732269	-0.0197178824	 0.0175042804	 0.342701
C	 0.2899922339	-0.7353901331	-1.3385447428	-0.293493
C	-0.9625666773	-1.5431849363	-1.0389471048	-0.03817
C	-0.9691683307	-2.0566370481	 0.3532330033	-0.016593
C	 0.3387776993	-2.1500033024	 1.1222111168	-0.298406
C	 0.821912465	-0.6765485426	 1.1484710628	 0.10277
O	 2.2064861425	-0.4882279534	 0.9134498184	-0.440658
N	-1.3723792242	-0.6445675914	 0.1101041598	-0.192189
H	 1.0447977156	 1.8656311799	-0.075446906	 0.129639
H	-0.5854336126	 1.8896588629	-0.7863190717	 0.117643
H	-0.3896152921	 1.8656885153	 0.973508195	 0.117501
H	 0.1449138863	-0.058401242	-2.1831978712	 0.104948
H	 1.2406483342	-1.261426596	-1.4600722499	 0.109163
H	-1.689987195	-1.8800095497	-1.7721137792	 0.086901
H	-1.7956334757	-2.7026788043	 0.6325728592	 0.088804
H	 0.1832234495	-2.5525645743	 2.1272737221	 0.100294
H	 1.0801841415	-2.780167978	 0.6195101242	 0.10899
H	 0.524501879	-0.2072818907	 2.0992516078	 0.070421
H	 2.6932363392	-0.8356201938	 1.6665343795	 0.287381
120.5294	207.1587	242.608	261.8676	284.9262	325.1616	387.6113	454.1325	526.0809	557.483	643.6291	703.4515	766.874	791.956	798.1685	870.4627	886.0867	950.5276	969.2693	989.1287	1017.0707	1036.0779	1051.9563	1070.9137	1109.9918	1123.1695	1142.4945	1181.1151	1186.3695	1205.9836	1254.1909	1265.5662	1280.7669	1308.1567	1345.0687	1363.6084	1408.5173	1409.7227	1431.0813	1486.3921	1487.5917	1492.0103	1507.2082	2977.1735	3034.0776	3045.3146	3060.8229	3089.6517	3103.3796	3112.3575	3116.3089	3145.5573	3162.822	3829.1677
CC12CC3C(CC1O)N23	C[C@@]12C[C@H]3[C@@H](C[C@H]1O)N23	
InChI=1S/C7H11NO/c1-7-3-5-4(8(5)7)2-6(7)9/h4-6,9H,2-3H2,1H3	InChI=1S/C7H11NO/c1-7-3-5-4(8(5)7)2-6(7)9/h4-6,9H,2-3H2,1H3/t4-,5+,6-,7-,8?/m1/s1
