19
gdb 71587	2.777	1.63043	1.58314	1.9601	79.61	-0.2281	0.0097	0.2379	972.1162	0.160325	-385.847191	-385.839889	-385.838945	-385.878473	29.981	
C	 0.0300916759	 1.4675042912	-0.1268936896	-0.523046
C	-0.0026470577	-0.0229193639	-0.0070137975	 0.413687
O	 0.6958324672	-0.8379885519	-1.0288723429	-0.351662
C	 0.0980754459	-1.8111916368	-0.0994005852	 0.034793
C	 0.6001100715	-0.9552836648	 1.0951269593	-0.050652
C	-0.0841656041	-1.0624277948	 2.4556420839	-0.30854
C	-1.5805880445	-1.1391687093	 2.3114414039	-0.08571
C	-2.1206551524	-1.1074370445	 1.0937966166	-0.075433
C	-1.2254164383	-0.9973890603	-0.1036527241	-0.090352
H	 1.0564613136	 1.8399806484	-0.0503626189	 0.131115
H	-0.3841549279	 1.7848714868	-1.0888173864	 0.133068
H	-0.5650989859	 1.9200610319	 0.6726712805	 0.130185
H	 0.2488134128	-2.8710149328	-0.3073330087	 0.087115
H	 1.6896463076	-0.8961567725	 1.1523513755	 0.074713
H	 0.2936341989	-1.9426582263	 2.9956695978	 0.113785
H	 0.1955648139	-0.2017683346	 3.0807780489	 0.112723
H	-2.1876800528	-1.2185450308	 3.208310234	 0.091769
H	-3.1946364868	-1.1591868316	 0.9429885513	 0.089784
H	-1.7291572769	-0.9759920933	-1.0708292986	 0.072656
171.6816	182.1905	198.2234	317.6989	374.1533	464.6384	477.2972	533.422	597.3527	618.2572	714.6161	730.1046	783.2825	820.8769	876.2838	885.3156	930.6675	953.7307	982.0345	991.9854	1016.3847	1020.5509	1046.5018	1086.8217	1099.0877	1158.0638	1168.4626	1184.2577	1224.2627	1240.2244	1250.1553	1300.6607	1304.1916	1355.9043	1393.4451	1408.7784	1429.8445	1470.2655	1477.6953	1487.5909	1709.9013	2999.9348	3020.062	3036.7534	3087.9526	3106.7251	3110.8871	3112.4554	3116.0633	3161.9518	3185.085
CC12OC3C1CC=CC23	C[C@@]12O[C@H]3[C@@H]1CC=C[C@@H]23	
InChI=1S/C8H10O/c1-8-5-3-2-4-6(8)7(5)9-8/h2-3,5-7H,4H2,1H3	InChI=1S/C8H10O/c1-8-5-3-2-4-6(8)7(5)9-8/h2-3,5-7H,4H2,1H3/t5-,6+,7-,8+/m1/s1
