17
gdb 7866	3.5954	1.53309	1.30859	6.5701	64.17	-0.2392	0.0354	0.2746	965.8274	0.143682	-401.019554	-401.011875	-401.010931	-401.051672	28.998	
N	 0.1131404563	 0.135384076	 0.4856112739	-0.520567
H	 1.0205453182	-0.6590906035	 1.7646340662	 0.317894
H	 0.7120407196	 0.5820029439	-0.2028082811	 0.249136
H	-0.4683138105	-0.5341237382	-0.0102702107	 0.252626
C	-0.7001544052	 1.1171215123	 1.1791874407	-0.009294
C	-1.2934525592	 0.7133229337	 2.5049543043	-0.301241
C	-0.1510521564	 1.7009724471	 2.4606887782	-0.01275
C	 1.2546530558	 1.4072230331	 2.9897724345	-0.355624
C	 1.5580197563	-0.008734116	 3.4984022555	 0.385663
O	 1.9602792841	-0.2130068591	 4.6148074135	-0.3273
O	 1.3834775057	-1.0072152149	 2.6235104196	-0.383204
H	-1.2932362771	 1.7832106285	 0.554132227	 0.089476
H	-2.2841235801	 1.0750840541	 2.7545942668	 0.119208
H	-1.0783660431	-0.2903314267	 2.8536540705	 0.144484
H	-0.4371769705	 2.7356524516	 2.6247067297	 0.101033
H	 1.9967126896	 1.6519640448	 2.2169104753	 0.114572
H	 1.4546443665	 2.0645808432	 3.8374256061	 0.135887
87.8616	123.4599	214.075	240.3593	330.8013	395.0977	417.0261	478.0967	546.3594	586.0964	737.7586	774.6755	801.2342	858.9798	876.6884	907.9138	950.2756	999.4536	1031.2721	1067.5614	1077.2616	1112.3177	1136.8036	1173.8835	1210.0635	1250.8351	1260.4836	1305.461	1332.6566	1389.362	1419.3877	1474.8347	1493.5018	1500.4835	1652.0956	1852.9564	3017.8165	3103.098	3115.4114	3143.4024	3150.2912	3184.6954	3232.1075	3490.7181	3564.3395
[NH3+]C1CC1CC([O-])=O	N[C@H]1C[C@H]1CC(=O)O	
InChI=1S/C5H9NO2/c6-4-1-3(4)2-5(7)8/h3-4H,1-2,6H2,(H,7,8)	InChI=1S/C5H9NO2/c6-4-1-3(4)2-5(7)8/h3-4H,1-2,6H2,(H,7,8)/t3-,4-/m0/s1
