13
gdb 5480	3.44633	1.94598	1.24371	4.3172	66.	-0.2161	-0.0344	0.1817	889.707	0.096795	-398.651701	-398.644787	-398.643842	-398.682763	25.712	
O	 0.1113478549	 1.3882887659	-0.0452580372	-0.430233
C	 0.0755651232	 0.0355519892	 0.0092109866	 0.273973
C	 0.0239065054	-0.7753916581	-1.1264664144	 0.139799
N	 0.0000172836	-2.0820297574	-0.6694787372	-0.285294
C	 0.0338411702	-2.106490804	 0.6795375558	-0.041875
C	 0.0820195115	-0.8005020686	 1.1476377127	-0.293161
C	-0.0046811205	-0.4911030985	-2.5342918783	 0.065135
O	-0.0504687174	-1.3597412573	-3.3925403876	-0.33695
H	 0.1442681404	 1.7371825238	 0.8508150342	 0.305053
H	-0.0377018878	-2.8602802743	-1.3073855057	 0.280479
H	 0.0223371782	-3.0359250322	 1.2269690512	 0.136386
H	 0.1171825766	-0.4946191747	 2.1823057592	 0.10264
H	 0.0183327618	 0.5854607762	-2.7951059692	 0.084048
151.2471	168.0012	248.5292	305.1305	347.166	356.7688	538.9429	576.6493	648.1113	656.1729	703.4701	743.0935	816.6882	823.6915	917.1706	1028.5593	1080.1957	1090.5274	1153.4501	1276.9306	1289.4041	1349.261	1403.4467	1469.4586	1494.2666	1533.5113	1633.3334	1741.0607	2935.663	3242.2178	3265.7275	3665.062	3835.2527
OC1=C(NC=C1)C=O	Oc1c([nH]cc1)C=O	
InChI=1S/C5H5NO2/c7-3-4-5(8)1-2-6-4/h1-3,6,8H	InChI=1S/C5H5NO2/c7-3-4-5(8)1-2-6-4/h1-3,6,8H
