21
gdb 52683	3.39286	0.78888	0.68366	1.7598	88.7	-0.2455	0.0407	0.2863	1722.5956	0.179549	-387.050984	-387.039907	-387.038963	-387.089812	38.575	
C	 0.1977834073	 1.4504179428	 0.0660765192	-0.499106
C	 0.0734330339	 0.0006790141	 0.0189257086	 0.081497
C	-0.022666585	-1.20001469	-0.0039895557	 0.056511
C	-0.1776135652	-2.6571212554	-0.0837240763	-0.086963
O	-1.5569002334	-3.036697377	-0.0958658952	-0.420766
C	 0.5767078273	-3.2209255749	-1.2773794276	 0.002308
C	 2.0144901616	-3.6642806592	-1.1423959479	-0.295856
C	 0.9280724776	-4.6869891779	-1.3735455228	-0.006905
C	 0.547307539	-5.6939518024	-0.3090720643	-0.399898
H	 1.2476474051	 1.75850585	 0.0088634168	 0.150453
H	-0.3301712283	 1.9230557006	-0.7695437304	 0.147369
H	-0.2177898297	 1.8573344958	 0.9944525114	 0.150278
H	 0.2169636948	-3.1057561347	 0.8347980798	 0.107989
H	-1.9854393692	-2.526732981	-0.792026888	 0.278723
H	 0.3126669226	-2.7302209476	-2.2112680119	 0.078756
H	 2.7091026357	-3.4300948341	-1.9414232816	 0.109069
H	 2.4540267244	-3.6226508343	-0.149821349	 0.110392
H	 0.8771979424	-5.0859739954	-2.3838491215	 0.082182
H	 0.7049968301	-5.3042716239	 0.7007327046	 0.114819
H	-0.5069155533	-5.9766352476	-0.3908863385	 0.129361
H	 1.1537145424	-6.6012389878	-0.4040081497	 0.109785
9.1316	39.4386	79.0672	129.0027	155.3462	210.377	217.1813	246.7962	306.1209	334.3986	362.8296	406.398	485.3467	507.5305	586.4158	772.6009	802.0281	841.4397	859.123	909.8716	985.9154	1016.9334	1043.5257	1052.591	1054.2535	1068.1703	1109.6646	1143.5307	1147.4889	1168.5033	1197.0494	1236.3427	1264.275	1294.8604	1391.0053	1409.6633	1414.9807	1419.0518	1428.6677	1477.2468	1479.0521	1491.0396	1495.155	1502.4282	2365.5181	3027.402	3034.1024	3047.6153	3088.0183	3089.0585	3096.304	3106.3603	3124.4487	3127.4613	3138.4672	3209.379	3806.9341
CC#CC(O)C1CC1C	CC#C[C@@H](O)[C@H]1C[C@H]1C	
InChI=1S/C8H12O/c1-3-4-8(9)7-5-6(7)2/h6-9H,5H2,1-2H3	InChI=1S/C8H12O/c1-3-4-8(9)7-5-6(7)2/h6-9H,5H2,1-2H3/t6-,7+,8-/m1/s1
