15
gdb 8510	3.91667	2.12426	1.65494	1.7022	60.66	-0.2264	0.0651	0.2915	774.24	0.118718	-399.69569	-399.688978	-399.688034	-399.725989	27.028	
O	 0.1900781026	 1.3048192786	 0.0888814184	-0.473741
C	 0.109446577	-0.0627264682	 0.087117347	 0.450876
C	 0.7106179292	-0.986914082	 1.1518313047	-0.379937
C	 0.0182687678	-1.9400626171	 0.1416075149	 0.391348
O	-0.140503005	-3.3071972403	 0.1884165764	-0.46976
C	-1.1639452488	-0.9603274362	-0.1231472353	-0.140965
N	-1.0045664648	-0.9082071274	-1.6143194209	-0.368643
C	 0.39880216	-1.0458898182	-1.101232339	-0.175627
H	-0.2809980202	 1.6177939481	-0.6943479968	 0.296847
H	 1.8034422858	-1.0238052312	 1.2019220197	 0.096223
H	 0.2715488316	-0.9304462587	 2.1518162268	 0.106267
H	 0.73034103	-3.7192209127	 0.2024706302	 0.288954
H	-2.1246356185	-0.9080832371	 0.3905347271	 0.084156
H	-1.3164042363	-1.7887989163	-2.0312180935	 0.216273
H	 1.2800664497	-1.0934650411	-1.7433369698	 0.07773
236.0966	250.4892	263.9198	324.2767	384.4352	428.3397	454.0281	550.3627	610.5896	672.3065	707.0503	798.9677	880.4928	892.7323	913.4419	947.8932	991.3692	1036.8844	1053.2806	1086.3805	1117.5338	1135.0775	1146.1258	1162.7876	1165.9497	1275.4176	1275.9094	1295.6185	1334.6202	1393.1404	1432.6571	1526.0783	3045.9062	3102.0096	3108.8808	3114.7762	3415.7795	3775.9266	3803.6039
OC12CC3(O)C1NC23	O[C@@]12C[C@@]3(O)[C@@H]1N[C@@H]23	
InChI=1S/C5H7NO2/c7-4-1-5(8)2(4)6-3(4)5/h2-3,6-8H,1H2	InChI=1S/C5H7NO2/c7-4-1-5(8)2(4)6-3(4)5/h2-3,6-8H,1H2/t2-,3+,4+,5-
