15
gdb 34446	3.04604	1.78386	1.29386	5.1324	69.2	-0.2462	0.0109	0.2572	938.3212	0.114429	-416.740569	-416.733912	-416.732968	-416.771558	26.478	
N	-0.0667169546	-1.126831864	 0.0163300643	-0.326907
C	-0.0319239755	 0.0277896578	 0.0354824506	 0.204686
C	-0.0230602294	 1.4738168249	 0.051826204	 0.238123
N	-0.8338943097	 2.1102485804	 1.0694644405	-0.378964
C	-0.6622118185	 3.5560799587	 0.7421643464	-0.203077
C	 0.3656879243	 3.4720597417	-0.3759221038	-0.0798
C	 1.3172827402	 2.2690496892	-0.0854948765	 0.035499
O	 1.4171271269	 1.9500600828	-1.5059540652	-0.303317
C	 0.0078084404	 2.2801229855	-1.3126167024	 0.007565
H	-1.8022597885	 1.8146970553	 1.0168125659	 0.236946
H	-1.5975297307	 4.0221989716	 0.4125915029	 0.115563
H	-0.2955503579	 4.1102378529	 1.6126042879	 0.125223
H	 0.7857067993	 4.3742711232	-0.8146146437	 0.101933
H	 2.2106131917	 2.20400699	 0.5336116303	 0.116692
H	-0.6621559879	 2.22549703	-2.1702141812	 0.109835
149.862	160.4264	284.1217	389.1827	418.7659	518.8021	533.3411	616.1506	689.7172	701.5157	749.7005	801.2604	823.6688	899.8111	909.4054	941.4753	955.7109	999.4368	1035.4815	1061.0494	1079.305	1145.0917	1160.155	1172.6778	1214.113	1235.7231	1252.4508	1275.5278	1311.131	1363.2295	1417.2623	1517.0949	2365.347	3037.001	3074.7112	3128.3458	3139.6477	3159.7306	3540.9995
N#CC12NCC3C1OC23	N#C[C@@]12NC[C@H]3[C@@H]1O[C@@H]23	
InChI=1S/C6H6N2O/c7-2-6-4-3(1-8-6)5(6)9-4/h3-5,8H,1H2	InChI=1S/C6H6N2O/c7-2-6-4-3(1-8-6)5(6)9-4/h3-5,8H,1H2/t3-,4-,5+,6+
