17
gdb 73247	2.29276	1.91771	1.37063	1.3882	67.41	-0.255	-0.0384	0.2166	968.9854	0.136285	-458.973711	-458.966083	-458.965139	-459.005731	29.665	
O	 0.1432846501	 1.3912109193	-0.169848082	-0.477604
C	 0.0196609276	 0.0157022705	-0.0457325376	 0.265643
C	 0.2001112554	-0.8457777729	-1.321765024	-0.132247
O	-1.0153663801	-1.5695539027	-1.0492144081	-0.295717
C	-1.3662065573	-0.6890852868	 0.046320415	 0.068679
C	-1.4211258867	-1.4514667897	 1.3744273869	-0.240181
C	 0.0588411128	-1.737984867	 1.7182516139	-0.325507
C	 0.7745183526	-0.5096223881	 1.1790280655	 0.342959
O	 1.7034750887	 0.0888260701	 1.6650729276	-0.335183
H	 0.8899003855	 1.6428330681	 0.3963943184	 0.293272
H	 0.1269630816	-0.2259177873	-2.2238211752	 0.11926
H	 1.0740908445	-1.5041373598	-1.3936348798	 0.107824
H	-2.250712048	-0.0845358635	-0.1747801541	 0.090888
H	-1.8723372366	-0.8116565761	 2.1417939627	 0.115674
H	-2.026210564	-2.3571833112	 1.2891596648	 0.123854
H	 0.2705070409	-1.887992097	 2.7775999354	 0.132159
H	 0.4114672529	-2.6204840859	 1.1707917407	 0.146229
98.3167	165.0574	222.4586	285.3037	313.8938	398.1907	456.6891	480.3486	492.9586	615.432	659.5149	699.9426	782.415	811.6284	879.0696	914.7454	956.2722	993.2531	1019.345	1041.0848	1060.3537	1079.9518	1138.445	1152.7631	1158.5054	1191.459	1248.4095	1275.7646	1292.5006	1324.6186	1348.7293	1372.1568	1419.5361	1454.0231	1478.1435	1516.5631	1833.4253	3016.1387	3044.4391	3049.7239	3069.1137	3072.9417	3109.8179	3131.1817	3697.6123
OC12COC1CCC2=O	O[C@]12CO[C@H]1CCC2=O	
InChI=1S/C6H8O3/c7-4-1-2-5-6(4,8)3-9-5/h5,8H,1-3H2	InChI=1S/C6H8O3/c7-4-1-2-5-6(4,8)3-9-5/h5,8H,1-3H2/t5-,6-/m0/s1
