20
gdb 105273	2.78209	1.20249	0.98272	1.9408	74.73	-0.2415	0.0596	0.3011	1248.6184	0.170792	-440.226844	-440.217696	-440.216752	-440.260878	34.92	
O	 0.2126828815	 1.5168536699	-0.1275148594	-0.426299
C	 0.1432339593	 0.1157595964	-0.2748632518	-0.121259
C	-1.2335075576	-0.4949732829	 0.0169054862	 0.255842
C	-2.1374311237	 0.250254295	 0.9767310832	-0.390877
C	-2.4603415924	 0.205109827	-0.4974007009	 0.056078
O	-2.2826070543	 1.3440689755	-1.3088856199	-0.429753
C	-1.2011257529	-1.9988186544	-0.0263982168	-0.065737
C	-0.8936216079	-2.7969277308	 1.1882149938	-0.23659
N	-2.2358857327	-2.8475450533	 0.5807476032	-0.330651
H	-0.4601734601	 1.8771065997	-0.7215042762	 0.287655
H	 0.4544062019	-0.1983436369	-1.2852349977	 0.092672
H	 0.868029948	-0.3080837352	 0.4294858883	 0.112079
H	-2.7821075243	-0.2852041771	 1.6673935562	 0.105663
H	-1.7253953333	 1.1783334507	 1.3576829884	 0.134572
H	-3.293498569	-0.4244315332	-0.8072984804	 0.103801
H	-2.9804725215	 1.9737900238	-1.097353702	 0.29554
H	-0.8550348126	-2.3911961896	-0.9822533597	 0.095853
H	-0.3202905836	-3.7164378763	 1.1140912651	 0.119538
H	-0.7704827085	-2.2556986787	 2.1230385068	 0.11473
H	-2.8795661163	-2.2873545196	 1.1346303635	 0.227144
50.2625	138.3063	162.9941	213.986	236.9152	275.2228	313.2817	372.0217	412.734	472.543	487.9313	586.5042	600.4747	699.966	797.2701	820.9277	862.7538	906.1095	912.275	952.1173	998.2694	1026.032	1037.4863	1071.2098	1077.204	1092.5294	1119.1068	1153.1647	1160.5786	1191.7317	1218.5211	1250.3296	1257.4522	1286.5206	1303.8272	1328.3661	1384.439	1415.309	1422.5931	1467.0161	1493.5288	1507.1298	1509.3527	2964.1722	3058.4844	3105.9953	3108.6052	3111.6645	3123.4723	3194.1454	3217.8994	3495.0469	3742.8054	3800.409
OCC1(CC1O)C1CN1	OC[C@]1(C[C@H]1O)[C@H]1CN1	
InChI=1S/C6H11NO2/c8-3-6(1-5(6)9)4-2-7-4/h4-5,7-9H,1-3H2	InChI=1S/C6H11NO2/c8-3-6(1-5(6)9)4-2-7-4/h4-5,7-9H,1-3H2/t4-,5-,6-/m1/s1
