18
gdb 112109	2.46159	1.40176	0.94014	2.94	74.74	-0.2413	0.0114	0.2528	1222.902	0.14918	-439.123864	-439.115222	-439.114277	-439.157831	31.87	
O	-0.0043678377	 1.5308067169	 0.1549640058	-0.42
C	 0.0326249447	 0.1134144167	 0.1821468807	-0.069839
C	-1.349657855	-0.510621949	-0.1315927871	-0.201694
C	-1.8491233017	-0.1055085958	-1.4877663079	-0.043716
C	-2.272605386	-0.9704657735	-2.4018608341	-0.073168
C	-2.3085391351	-2.4499908581	-2.1795924677	-0.199956
N	-1.7577830608	-2.826583509	-0.8902519398	-0.327978
C	-1.2923879147	-2.0186181255	 0.1034416765	 0.398544
O	-0.8469966436	-2.4785247792	 1.142188702	-0.389241
H	-0.4617502719	 1.8287495985	 0.9477587051	 0.284718
H	 0.7520072484	-0.1836619819	-0.5880215513	 0.1152
H	 0.3810891665	-0.2771496592	 1.1442979863	 0.123445
H	-2.0359199439	-0.1244219534	 0.6391112492	 0.104436
H	-1.8279126876	 0.9594747023	-1.6980992867	 0.110168
H	-2.6191993579	-0.6334053922	-3.3741464693	 0.099527
H	-3.3451312468	-2.8135893368	-2.2664109104	 0.121137
H	-1.7479069994	-2.9547568699	-2.9815215652	 0.121768
H	-1.7002319873	-3.8102447308	-0.6679153261	 0.246647
50.7693	115.8255	124.8524	197.036	260.6766	314.3434	349.2127	459.9134	503.0829	519.909	560.645	591.3805	699.9286	733.2251	812.8134	855.6773	923.4581	974.3992	1009.1063	1028.4022	1029.6921	1078.3305	1091.1266	1130.2106	1170.4002	1183.3984	1246.377	1284.4327	1319.7372	1353.2297	1381.2166	1397.9869	1409.2195	1425.8023	1489.1141	1507.7991	1526.8046	1745.312	1774.9075	2973.4546	2979.3933	2988.9932	3040.9146	3094.0895	3167.2147	3187.965	3604.5874	3815.9054
OCC1C=CCNC1=O	OC[C@H]1C=CCNC1=O	
InChI=1S/C6H9NO2/c8-4-5-2-1-3-7-6(5)9/h1-2,5,8H,3-4H2,(H,7,9)	InChI=1S/C6H9NO2/c8-4-5-2-1-3-7-6(5)9/h1-2,5,8H,3-4H2,(H,7,9)/t5-/m1/s1
