19
gdb 16591	3.38078	1.72059	1.42719	1.074	71.33	-0.2261	0.0621	0.2882	954.5334	0.16462	-365.006922	-364.998588	-364.997644	-365.039184	31.591	
C	-0.0959425113	 1.5647478482	 0.0684553697	-0.408101
C	-0.0225341622	 0.0423094116	 0.0336823332	-0.052607
C	 0.7348343788	-0.5220738218	-1.1928938147	-0.051757
C	 1.7986491838	-1.1264197902	-0.3025613444	-0.109933
C	 1.0821659412	-0.5929833869	 0.9603680641	 0.118864
O	 1.8455873282	 0.2990113104	 1.7392258972	-0.427041
N	 0.9564653407	-1.9476723589	-1.1402683825	-0.078166
C	-0.0134567737	-2.8982101917	-0.6161618064	-0.31603
H	 0.8665778923	 2.0313548987	-0.1723404539	 0.100415
H	-0.8180010609	 1.9269173229	-0.6705610602	 0.118282
H	-0.4034704887	 1.9248192309	 1.0539750814	 0.130653
H	-1.0281582873	-0.3689680066	 0.1768419734	 0.070226
H	 0.8295575787	-0.0196434192	-2.1518446379	 0.087676
H	 2.8779232595	-1.1856671754	-0.4180113597	 0.090323
H	 0.7278580072	-1.3524987389	 1.6633220768	 0.085447
H	 2.2684602244	 0.9327830551	 1.150014254	 0.281521
H	-0.5940453534	-2.5553165551	 0.2513867907	 0.11016
H	-0.7179408406	-3.1507017242	-1.4146312844	 0.124146
H	 0.5149801234	-3.8127261289	-0.3303897064	 0.125922
110.8563	169.27	201.4039	217.4254	252.3728	291.9203	324.0081	358.5826	434.3316	559.0926	567.1635	725.7627	775.2541	808.761	862.2139	914.0622	944.9751	965.6083	1029.9278	1051.9216	1064.5697	1106.4552	1115.9685	1130.6392	1164.4636	1181.9906	1219.0967	1224.293	1268.9297	1274.9408	1296.065	1355.5279	1378.2257	1413.6141	1432.1255	1455.9914	1490.6102	1495.5483	1501.6227	1504.5128	3004.8521	3029.112	3034.7291	3065.7044	3076.121	3089.9293	3107.2422	3115.1557	3138.5366	3150.3315	3808.1182
CC1C2C(C1O)N2C	C[C@H]1[C@H]2[C@@H]([C@H]1O)N2C	
InChI=1S/C6H11NO/c1-3-4-5(6(3)8)7(4)2/h3-6,8H,1-2H3	InChI=1S/C6H11NO/c1-3-4-5(6(3)8)7(4)2/h3-6,8H,1-2H3/t3-,4-,5-,6-,7?/m0/s1
