19
gdb 39099	3.4091	1.66661	1.43007	1.9665	73.8	-0.2417	0.0771	0.3188	952.4465	0.162408	-422.986942	-422.980244	-422.9793	-423.017896	27.795	
C	-0.0748787579	 1.6070106522	 0.1838689077	-0.289299
C	 1.4534358081	 1.3840443776	 0.0129087049	-0.118171
C	 1.6975563322	 0.4756858583	 1.24570953	-0.086149
O	 0.5497800001	-0.4263000706	 1.1670753391	-0.34627
C	-0.0552118612	 0.0630014491	-0.0174568545	 0.464361
C	-1.1257027674	-0.6622092586	-0.7811544634	-0.181361
O	-0.9909492712	-0.1227002729	-2.1025897286	-0.282943
C	 0.3255301218	 0.4532027292	-2.3178653641	-0.118339
C	 1.1088592142	 0.2660092862	-1.0211964804	-0.050276
H	-0.4369288962	 1.9650508724	 1.1502398349	 0.098383
H	-0.5412623694	 2.1570510332	-0.6315133277	 0.121099
H	 2.1726064361	 2.1856309355	-0.1572663017	 0.074859
H	 2.6225695006	-0.108713027	 1.1877438154	 0.106003
H	 1.6745202757	 1.0243030698	 2.1932047179	 0.107169
H	-0.9475211626	-1.7480395415	-0.7638823542	 0.102023
H	-2.1482581252	-0.465520219	-0.4450208622	 0.111146
H	 0.8034751702	-0.0742290073	-3.1505495344	 0.104333
H	 0.1917218446	 1.4990897664	-2.6169480998	 0.104833
H	 1.8226313776	-0.5598191229	-1.083921889	 0.0786
106.074	271.4603	297.8743	349.1899	413.6955	478.028	541.8643	640.1918	686.6739	741.8554	810.1182	859.0489	865.2252	889.1933	900.9205	933.1399	945.472	969.2531	1010.8741	1032.9412	1066.7668	1083.9871	1100.6751	1106.9857	1127.0735	1158.5847	1180.3703	1206.76	1217.8381	1229.4006	1246.4686	1263.7169	1310.4918	1346.864	1363.6484	1382.758	1393.6439	1494.5485	1516.2602	1522.7085	1531.1132	2993.5309	3028.5476	3033.3035	3055.3738	3075.5355	3078.0237	3078.7179	3081.6238	3114.16	3156.2702
C1C2COC11COCC21	C1[C@H]2CO[C@]31COC[C@@H]23	
InChI=1S/C7H10O2/c1-5-2-9-7(1)4-8-3-6(5)7/h5-6H,1-4H2	InChI=1S/C7H10O2/c1-5-2-9-7(1)4-8-3-6(5)7/h5-6H,1-4H2/t5-,6-,7+/m0/s1
