18
gdb 58346	1.79593	1.59749	0.89269	4.6218	69.22	-0.2466	-0.0238	0.2228	1268.4295	0.144859	-476.263475	-476.253314	-476.252369	-476.299438	36.259	
C	-0.0511361371	 1.4556111166	 0.216748228	-0.407557
C	-0.2126113687	-0.0565020026	 0.3504191095	 0.087262
O	-0.008637206	-0.4585594091	 1.7122703245	-0.423757
C	-1.5808755657	-0.5735452289	-0.1781702518	-0.208714
C	-1.8642359166	-0.0576453353	-1.5887163868	 0.174107
O	-2.5868294485	 0.874722864	-1.824827013	-0.262343
C	-1.7365201715	-2.1034109246	-0.2242155061	 0.396701
N	-1.2129497328	-2.7979645376	 0.8134096983	-0.5327
O	-2.3322993778	-2.6223499927	-1.1541819858	-0.364887
H	 0.8963626119	 1.7618496386	 0.6675363877	 0.12959
H	-0.0602830458	 1.7735316892	-0.8285300097	 0.144505
H	-0.8693237256	 1.9819661255	 0.7224107381	 0.125067
H	 0.5912743019	-0.5597945538	-0.19849544	 0.110779
H	-0.5915673984	 0.0754094434	 2.265179881	 0.28829
H	-2.367183197	-0.1630072999	 0.4686223281	 0.113103
H	-1.3222414894	-0.5942931349	-2.3929636248	 0.099545
H	-0.6697641354	-2.3230549445	 1.5200841038	 0.271767
H	-1.2846064776	-3.8022331134	 0.7936004087	 0.259241
39.4428	68.2476	79.188	197.2555	227.1926	251.8672	280.5346	324.3205	349.9148	374.5291	423.9212	447.6206	481.7559	543.445	589.3283	652.9893	755.5531	853.4606	894.6178	921.4702	1008.1599	1060.2889	1066.8432	1110.3314	1131.6765	1150.9675	1206.2487	1239.9686	1317.2901	1362.7847	1375.9007	1412.0543	1422.6862	1430.5017	1486.1194	1491.3986	1606.9939	1773.1375	1831.1696	2932.6391	3034.3576	3036.2186	3056.6362	3110.8398	3132.6461	3546.2353	3703.6225	3791.1923
CC(O)C(C=O)C(N)=O	C[C@@H](O)[C@@H](C=O)C(=O)N	
InChI=1S/C5H9NO3/c1-3(8)4(2-7)5(6)9/h2-4,8H,1H3,(H2,6,9)	InChI=1S/C5H9NO3/c1-3(8)4(2-7)5(6)9/h2-4,8H,1H3,(H2,6,9)/t3-,4-/m1/s1
