19
gdb 39585	3.36725	1.54139	1.10998	1.2353	81.63	-0.2321	0.0155	0.2477	1087.1453	0.161993	-385.893095	-385.886067	-385.885122	-385.924278	28.949	
C	-0.0098854226	 1.6478608412	 0.1359540574	-0.315009
C	 1.4867029772	 1.8929654733	-0.0207404998	-0.055633
C	 2.2069330119	 0.8098254484	 0.285609611	-0.150224
C	 1.2788407778	-0.2693995683	 0.779758	 0.138735
O	 1.6013280814	-1.6184749679	 0.5146671583	-0.278454
C	 0.6431288722	-2.4739384361	 1.1331576123	-0.130835
C	-0.7808286985	-1.9574621172	 1.1339453709	-0.064596
C	-1.1288267818	-0.7538637841	 0.6739396888	-0.133843
C	-0.041898433	 0.1068279879	 0.0977402518	 0.009857
H	-0.3688520963	 2.0401772573	 1.0992022992	 0.109504
H	-0.6126405491	 2.1205864416	-0.6462154003	 0.103556
H	 1.8939005218	 2.8559760925	-0.3076466691	 0.095906
H	 3.2870617729	 0.7314522573	 0.2989571234	 0.101829
H	 1.164301006	-0.1500404274	 1.8756804973	 0.070595
H	 0.6971907723	-3.4291845244	 0.5967994593	 0.118702
H	 0.9429014353	-2.6824138094	 2.1771184049	 0.099714
H	-1.5173438395	-2.6377901079	 1.5547216079	 0.091876
H	-2.1639719801	-0.4233627058	 0.6801707752	 0.087287
H	 0.0939218122	-0.1661928209	-0.9589322085	 0.101034
144.3919	194.3842	283.5443	357.2902	396.3055	446.5074	491.6574	539.0976	568.5511	677.9338	730.3785	773.8765	805.5284	864.5684	888.3875	930.8045	963.4778	980.4647	1000.6275	1015.04	1046.0047	1087.3526	1092.105	1113.0561	1120.7831	1158.2658	1176.3767	1202.5109	1242.1795	1261.7086	1286.5718	1332.5117	1351.9504	1366.3231	1384.6875	1401.9377	1421.38	1487.4277	1490.683	1656.3396	1699.2881	2895.6133	2933.9345	2995.0384	3006.1969	3045.4353	3068.606	3149.4955	3172.1626	3189.8171	3218.0368
C1C=CC2OCC=CC12	C1C=C[C@@H]2OCC=C[C@@H]12	
InChI=1S/C8H10O/c1-3-7-4-2-6-9-8(7)5-1/h1-2,4-5,7-8H,3,6H2	InChI=1S/C8H10O/c1-3-7-4-2-6-9-8(7)5-1/h1-2,4-5,7-8H,3,6H2/t7-,8+/m1/s1
