17
gdb 127229	2.32464	1.43399	0.89691	5.5849	80.2	-0.2401	-0.0424	0.1978	1271.2817	0.135504	-418.045546	-418.036402	-418.035458	-418.080477	31.575	
C	-0.0472623756	 1.4465655509	 0.0320020866	-0.325504
N	 0.0188964727	-0.0010450535	-0.0285337623	 0.06094
C	 0.0539920531	-0.7818190085	-1.1452408656	-0.110591
C	 0.051735789	-2.094258274	-0.7268340359	 0.125215
C	 0.0932701645	-3.3221312073	-1.5858899653	-0.512677
C	 0.0107874312	-1.9937366607	 0.6934293528	 0.17098
C	-0.0007857153	-3.101454274	 1.6566825322	 0.09355
O	-0.0293336485	-2.994756454	 2.8603788042	-0.267929
N	-0.0109623798	-0.7128292256	 1.0951454169	-0.301262
H	 0.6162084489	 1.8798483167	-0.719962524	 0.143712
H	-1.0686039875	 1.799890689	-0.1426202962	 0.149232
H	 0.2733120227	 1.7522600196	 1.0272418783	 0.171351
H	 0.0807273389	-0.3492654167	-2.1334974783	 0.136802
H	 0.9776376038	-3.9344756898	-1.3797905856	 0.139342
H	-0.7838595949	-3.9589096826	-1.4288892079	 0.139327
H	 0.1190584396	-3.0533023819	-2.6453629658	 0.126565
H	 0.0187925773	-4.1045768877	 1.1729897659	 0.060948
42.277	100.3038	126.5972	166.8519	169.7152	230.6591	255.4685	340.8536	398.7465	538.6121	604.8953	644.4286	689.6701	704.5318	788.2992	880.0684	1007.8441	1030.6973	1043.1825	1067.0163	1082.927	1147.2332	1185.6473	1196.8212	1357.4741	1375.3499	1416.041	1431.7221	1436.9899	1463.8947	1480.8242	1485.8543	1487.6791	1502.904	1513.8529	1592.7414	1802.4012	2868.5392	3034.8711	3046.8672	3087.9404	3111.4088	3116.858	3168.3587	3253.307
CN1C=C(C)C(C=O)=N1	Cn1cc(C)c(C=O)n1	
InChI=1S/C6H8N2O/c1-5-3-8(2)7-6(5)4-9/h3-4H,1-2H3	InChI=1S/C6H8N2O/c1-5-3-8(2)7-6(5)4-9/h3-4H,1-2H3
