23
gdb 111310	2.24863	1.33142	1.11493	1.1875	85.1	-0.2401	0.0742	0.3143	1260.9659	0.204263	-388.267697	-388.257948	-388.257004	-388.301719	37.94	
C	 0.1361168968	 0.9072477758	-1.5353806653	-0.379918
C	-0.1604161031	 0.5639229031	-0.0711327836	-0.201884
C	-1.4450686804	-0.2451087733	 0.0899040753	-0.030856
C	-1.4882429763	-1.6933027197	-0.429294409	-0.05801
C	-0.5994797248	-2.5890283686	 0.3872850691	-0.300307
C	-1.9395583825	-2.1976682085	 0.940308096	-0.063976
C	-1.9264954911	-0.773771757	 1.5062717187	 0.376014
C	-1.0756544344	-0.4873739272	 2.7376241282	-0.45332
O	-3.2823012593	-0.4186759585	 1.75645485	-0.482236
H	 1.0592960668	 1.4872744326	-1.6309339736	 0.109578
H	 0.2493150019	-0.0012186625	-2.1364517092	 0.121711
H	-0.6760387301	 1.4962771927	-1.976309253	 0.112414
H	 0.6902927584	 0.0140374116	 0.3491757173	 0.092495
H	-0.2400710269	 1.4905255013	 0.5131264297	 0.08788
H	-2.2874001	 0.3179238664	-0.3261282235	 0.07101
H	-1.8486003816	-1.9941788772	-1.4055678033	 0.081886
H	-0.5333608154	-3.6149531885	 0.0388746103	 0.111886
H	 0.3235523273	-2.2224129407	 0.8283048246	 0.103555
H	-2.7080663547	-2.920286986	 1.1856983323	 0.08934
H	-0.0380999971	-0.8064267095	 2.609705829	 0.115982
H	-1.0623887933	 0.5869357174	 2.9619581235	 0.103203
H	-1.493773616	-1.0090858204	 3.6039560217	 0.122757
H	-3.2993482043	 0.5090449267	 2.0163527949	 0.270797
76.646	149.8695	160.106	222.9465	235.8795	271.1113	272.8696	295.4523	317.2402	381.1763	477.9075	503.9637	532.0738	618.145	744.5055	773.6791	801.35	834.1135	899.1996	935.4771	945.7615	963.0798	974.2793	993.2468	1019.7786	1049.5912	1070.222	1087.3664	1110.7627	1117.07	1128.5092	1167.6696	1190.1038	1202.6777	1248.2857	1274.8747	1289.8641	1340.4692	1357.1651	1381.3414	1393.0928	1407.1367	1410.7598	1482.988	1485.3388	1492.7155	1499.472	1501.8467	1509.1957	3015.6305	3024.9216	3029.7846	3041.4034	3058.3672	3091.1355	3097.3932	3102.3583	3116.484	3120.2023	3176.7256	3188.5475	3201.6479	3798.2198
CCC1C2CC2C1(C)O	CC[C@H]1[C@H]2C[C@H]2[C@]1(C)O	
InChI=1S/C8H14O/c1-3-6-5-4-7(5)8(6,2)9/h5-7,9H,3-4H2,1-2H3	InChI=1S/C8H14O/c1-3-6-5-4-7(5)8(6,2)9/h5-7,9H,3-4H2,1-2H3/t5-,6+,7-,8-/m1/s1
