15
gdb 31893	3.55944	1.10269	0.84846	6.5843	81.61	-0.2017	-0.0225	0.1792	1291.8201	0.113514	-416.847521	-416.839146	-416.838202	-416.880998	29.996	
C	 0.0295381237	 1.4778872489	-0.2038662442	-0.33444
N	 0.203863246	 0.0478058931	 0.0105636239	-0.399655
C	 0.6414727839	-0.7683833095	-0.9908086252	 0.438904
C	 0.6255255874	-2.1374232122	-1.1510694498	-0.273157
C	 1.2976198862	-2.3871082313	-2.3741424224	-0.245105
C	 1.6758978772	-1.1767979671	-2.8861496308	 0.231814
O	 1.2633677726	-0.1693124475	-2.023753807	-0.203618
C	 2.3553243358	-0.7991056375	-4.0533872145	 0.207184
N	 2.9186929031	-0.5034509858	-5.0245895956	-0.353213
H	 0.9683050725	 1.9143953421	-0.5502312164	 0.160992
H	-0.7506498597	 1.7115565366	-0.941216196	 0.131998
H	-0.2337616654	 1.9397347368	 0.749352741	 0.134855
H	-0.4558795452	-0.3889900817	 0.6341629317	 0.25687
H	 0.1933581733	-2.8584873039	-0.4769950988	 0.111843
H	 1.4843557686	-3.3451236312	-2.8334261859	 0.134729
83.7258	123.6543	135.8134	156.4552	234.7149	293.7475	415.3161	498.2617	514.5626	551.302	587.845	639.9262	703.3268	731.6999	741.1586	869.9993	966.4197	990.7657	1042.5082	1082.0841	1148.1254	1162.7988	1227.4182	1254.525	1336.1854	1390.2803	1451.6964	1487.8435	1491.9129	1516.4835	1590.2147	1652.2865	2322.8543	3011.6128	3103.8019	3144.5183	3260.4452	3273.5028	3636.9258
CNC1=CC=C(O1)C#N	CNc1ccc(o1)C#N	
InChI=1S/C6H6N2O/c1-8-6-3-2-5(4-7)9-6/h2-3,8H,1H3	InChI=1S/C6H6N2O/c1-8-6-3-2-5(4-7)9-6/h2-3,8H,1H3
