20
gdb 121651	4.63028	0.72578	0.65033	2.3607	78.01	-0.255	0.0347	0.2897	1768.6924	0.169677	-440.300062	-440.290097	-440.289152	-440.336419	34.533	
C	-0.1989320337	 1.3455590474	 0.0063061906	-0.383896
C	 0.1135135484	-0.1534335696	 0.0077810949	-0.189741
C	 0.7230998542	-0.6049288123	-1.309127165	-0.033964
O	 0.985354109	-2.016497698	-1.2103304915	-0.253629
C	 1.5420263083	-2.5751551437	-2.302931157	 0.468425
O	 1.7961172277	-1.9885640317	-3.3267307169	-0.390176
N	 1.8455679272	-3.9093559025	-2.0528283232	-0.121827
C	 0.840055139	-4.9025861674	-1.7185921586	-0.222723
C	 1.5598553077	-4.9336982389	-3.0332325623	-0.215983
H	 0.7067706928	 1.9417389801	-0.1488688146	 0.12151
H	-0.9066617256	 1.6053196841	-0.7884619998	 0.119992
H	-0.6404433858	 1.6534081271	 0.9581549474	 0.119902
H	 0.807211727	-0.3957899413	 0.8208156888	 0.111135
H	-0.7998252454	-0.7305797274	 0.1930841375	 0.106185
H	 0.0483219213	-0.4217731222	-2.1525951851	 0.116756
H	 1.6610487606	-0.0810289757	-1.5226757593	 0.120788
H	 1.1088658047	-5.5973707163	-0.9282777624	 0.128362
H	-0.1995821972	-4.5867281527	-1.7188114953	 0.13223
H	 1.0128133591	-4.6306256047	-3.921645724	 0.138422
H	 2.3529746407	-5.6558769244	-3.2020928541	 0.128232
43.5312	69.1247	83.9256	117.3182	160.647	224.2167	236.7756	255.8163	334.5535	359.4076	542.569	610.0186	760.7163	785.4626	820.5638	840.4591	891.9701	920.1963	953.6505	982.3174	1043.071	1049.9697	1069.3765	1131.7652	1136.3937	1147.6139	1172.8994	1178.2181	1190.1892	1233.4061	1269.4188	1312.2292	1331.9565	1384.088	1414.7481	1434.1624	1492.4667	1499.3418	1501.2199	1506.1687	1522.3803	1527.7023	1809.6804	3034.4596	3035.7608	3044.799	3064.9754	3087.9245	3105.6711	3111.9957	3114.2779	3118.9775	3197.6225	3211.5198
CCCOC(=O)N1CC1	CCCOC(=O)N1CC1	
InChI=1S/C6H11NO2/c1-2-5-9-6(8)7-3-4-7/h2-5H2,1H3	InChI=1S/C6H11NO2/c1-2-5-9-6(8)7-3-4-7/h2-5H2,1H3
