23
gdb 86029	3.18831	0.93537	0.86716	0.705	91.62	-0.2561	0.0529	0.3091	1475.8446	0.203384	-351.124817	-351.114639	-351.113695	-351.159674	39.02	
C	 0.1413685442	 1.5979676784	 0.1631681365	-0.407558
C	 0.0699914806	 0.0828964525	 0.0481346735	 0.058723
C	 1.0620022558	-0.6374943541	-0.9086006381	-0.286292
C	 1.2678242709	-1.7472276499	 0.1699608124	 0.348542
C	 0.4068640939	-2.9837104876	-0.0933251831	-0.446242
C	 2.7373807576	-2.1370182037	 0.4246770089	-0.42248
C	 2.9281381081	-2.9618562705	 1.6131044727	 0.314834
C	 3.0628842011	-3.6321340067	 2.6024249331	-0.456181
C	 0.628689155	-0.7803276187	 1.2144066095	-0.266321
H	 1.162218229	 1.927016529	 0.3897003318	 0.108665
H	-0.1653889185	 2.0842077814	-0.7699366826	 0.112662
H	-0.5118170531	 1.9682341218	 0.9614721675	 0.113856
H	-0.9575341509	-0.2169647691	-0.1830838314	 0.071206
H	 0.6866001105	-0.9580696756	-1.884776021	 0.092175
H	 1.9708049037	-0.0453274715	-1.0644976422	 0.088661
H	 0.7609120589	-3.5261823086	-0.9780375313	 0.108566
H	 0.4384888178	-3.6695275752	 0.7589497552	 0.12916
H	-0.6383825559	-2.709570584	-0.2689552698	 0.111385
H	 3.129303785	-2.666257363	-0.4552278525	 0.123834
H	 3.3379018487	-1.2237293719	 0.5240136898	 0.120091
H	 3.1936513165	-4.225881067	 3.4727790014	 0.192805
H	 1.3904211304	-0.2406350027	 1.7871440106	 0.09388
H	-0.0878331194	-1.2125959233	 1.9177095991	 0.096029
58.9371	87.7479	137.3009	225.1023	245.6704	275.5511	291.9108	313.8331	346.102	362.3175	399.7982	423.2295	471.1443	614.8307	628.5682	645.8119	744.3589	831.1005	868.6666	884.8125	901.5036	928.2613	946.1799	960.4709	965.6669	992.1443	1057.8693	1097.0742	1130.6033	1159.1224	1179.6451	1220.9194	1240.9567	1244.5285	1288.5529	1302.4049	1316.9974	1332.4649	1375.6923	1410.0319	1413.5512	1465.0409	1473.9004	1493.6795	1495.1854	1496.1053	1497.8628	1503.5604	2233.2883	3007.5118	3020.5318	3025.3575	3035.155	3041.4057	3042.7248	3047.583	3086.7368	3088.7651	3090.5021	3092.8291	3102.332	3107.183	3506.487
CC1CC(C)(CC#C)C1	C[C@H]1C[C@@](C)(CC#C)C1	
InChI=1S/C9H14/c1-4-5-9(3)6-8(2)7-9/h1,8H,5-7H2,2-3H3	InChI=1S/C9H14/c1-4-5-9(3)6-8(2)7-9/h1,8H,5-7H2,2-3H3/t8-,9+
