20
gdb 114441	3.76357	1.23271	1.10098	2.5731	76.95	-0.2293	0.0737	0.303	1146.8589	0.173512	-403.110449	-403.102743	-403.101799	-403.14267	30.528	
O	-0.1220222066	 1.4995477482	-0.0229596782	-0.420904
C	 0.036149778	 0.0912175396	 0.0880392401	-0.104985
C	-1.3417659032	-0.5362179737	-0.0441915993	 0.05485
C	-2.0479852834	-0.2858566474	-1.4023129778	-0.254401
C	-2.8364418137	-1.5719748648	-1.6111584151	-0.026574
C	-2.1217517097	-2.8701743862	-1.7238219775	-0.031944
C	-0.7226529566	-2.802099288	-1.1332089959	-0.258669
C	-1.3833245816	-2.0610926481	 0.0642446579	-0.027112
N	-2.7773700955	-2.4607652002	-0.4211283751	-0.15539
H	 0.7476560187	 1.9062233362	 0.0307323061	 0.287083
H	 0.7038895605	-0.2935358741	-0.6995399596	 0.084387
H	 0.480849166	-0.1827176353	 1.0587507351	 0.085893
H	-1.9703738609	-0.1290823823	 0.7573958378	 0.091378
H	-2.7031317771	 0.5867983052	-1.3651249077	 0.11474
H	-1.32480429	-0.1089232661	-2.2062467253	 0.103604
H	-3.8208990345	-1.5218375894	-2.0659814946	 0.08937
H	-2.5143088093	-3.6894888009	-2.3195134122	 0.087051
H	-0.3601091197	-3.7908389497	-0.8443619173	 0.110868
H	 0.0605118599	-2.292748249	-1.7048688299	 0.095234
H	-1.1606943516	-2.453737344	 1.0569465486	 0.075519
100.4235	139.2667	190.7921	273.8234	317.8444	399.8439	412.8856	472.5645	624.4144	703.8983	747.5854	783.5197	799.8349	828.8814	888.1592	920.4388	936.1575	972.1654	993.8223	1013.684	1042.3003	1062.9869	1070.8985	1098.8877	1106.4932	1127.2312	1143.9401	1185.8812	1202.6328	1218.2057	1258.4898	1260.7372	1275.4784	1292.8465	1316.8784	1329.0584	1355.0016	1378.7009	1409.865	1463.8143	1490.2994	1501.5121	1522.1538	2961.7728	2988.6803	3035.6358	3039.5073	3047.8261	3099.755	3104.6003	3111.8473	3145.2211	3163.7646	3830.1312
OCC1CC2C3CC1N23	OC[C@H]1C[C@H]2[C@H]3C[C@@H]1N23	
InChI=1S/C7H11NO/c9-3-4-1-6-7-2-5(4)8(6)7/h4-7,9H,1-3H2	InChI=1S/C7H11NO/c9-3-4-1-6-7-2-5(4)8(6)7/h4-7,9H,1-3H2/t4-,5+,6+,7-,8?/m1/s1
