19
gdb 91815	2.62009	1.45101	1.21012	1.5186	70.14	-0.2483	0.0567	0.305	1084.3852	0.158947	-460.146225	-460.13737	-460.136426	-460.17986	34.108	
O	 0.0067597254	 1.4358491819	 0.048528958	-0.442076
C	 0.0376803139	 0.0220112372	 0.012130154	 0.126454
C	 0.7748776801	-0.6502766878	 1.2008286912	-0.278612
C	 0.0895060509	-1.9977031432	 1.3806747598	-0.121482
C	-1.2318259181	-1.9984652349	 2.1231884499	-0.299843
C	-1.2391798533	-1.9749246891	 0.631378531	 0.406444
O	-1.7685227999	-3.1009611275	 0.0007603561	-0.47159
C	-1.3869507282	-0.6135060101	-0.0412809857	-0.012867
O	-2.3271079292	 0.2020521118	 0.6478352112	-0.433924
H	-0.3639362891	 1.6781572248	 0.9052846743	 0.278565
H	 0.5589033731	-0.2324012069	-0.917152114	 0.08861
H	 1.8439638664	-0.7484248376	 0.996013717	 0.107637
H	 0.6834332855	-0.0251924387	 2.0988304239	 0.097382
H	 0.6798556233	-2.9064338979	 1.402147612	 0.087645
H	-1.5396209444	-2.9385996324	 2.5665799582	 0.119389
H	-1.5393648798	-1.1072643885	 2.6586486314	 0.123561
H	-1.2706503866	-3.2571830288	-0.8092192751	 0.278567
H	-1.71288262	-0.7611339038	-1.0804821924	 0.064502
H	-2.3405959603	 1.0459695115	 0.1802027191	 0.281638
57.6734	90.3352	191.7474	276.2391	282.3577	301.4968	332.6637	415.0904	421.8703	496.7837	528.8187	575.2601	616.445	686.4834	729.29	830.1831	864.4532	900.813	923.2995	956.7851	977.6363	1041.587	1058.7673	1067.1331	1084.2348	1098.5145	1131.9055	1191.0815	1199.3141	1242.655	1266.1493	1284.5915	1303.6675	1320.7914	1332.2532	1352.3733	1409.0304	1428.453	1436.5824	1482.988	1495.7352	2999.6326	3022.1528	3052.7562	3093.5103	3138.8383	3177.1313	3231.4204	3784.8305	3791.5521	3794.0924
OC1CC2CC2(O)C1O	O[C@H]1C[C@H]2C[C@@]2(O)[C@H]1O	
InChI=1S/C6H10O3/c7-4-1-3-2-6(3,9)5(4)8/h3-5,7-9H,1-2H2	InChI=1S/C6H10O3/c7-4-1-3-2-6(3,9)5(4)8/h3-5,7-9H,1-2H2/t3-,4-,5-,6-/m0/s1
