17
gdb 28297	5.01452	1.23862	1.00076	1.338	84.68	-0.1681	0.0058	0.1738	1151.3367	0.13873	-380.907546	-380.900077	-380.899133	-380.939119	29.837	
N	 0.0127955538	 1.4158476985	 0.1491747521	-0.60212
C	 0.0063664994	 0.0110789904	 0.0451390307	 0.27371
C	-1.1020204129	-0.8151059489	 0.0255388892	-0.23121
N	-0.6262523567	-2.1113451102	 0.0083421212	-0.000661
C	-1.127403923	-3.4176076894	-0.0243164642	-0.013619
C	-0.1180186178	-4.298446485	-0.0453288422	-0.145423
C	 1.2076726812	-3.5506157898	-0.0262582098	-0.415845
C	 0.7500027332	-2.1179552539	 0.0077203129	 0.393957
C	 1.180482196	-0.8130124753	 0.0333363439	-0.421645
H	 0.7733133775	 1.8322664479	-0.3736406617	 0.23876
H	-0.8567841903	 1.8297882089	-0.1625216179	 0.236181
H	-2.1558652246	-0.5911916767	 0.0312433369	 0.10549
H	-2.1945251919	-3.5860830412	-0.0276342351	 0.126696
H	-0.2137308584	-5.3730327797	-0.068314742	 0.105101
H	 1.8155641213	-3.8233883161	 0.8465297043	 0.131917
H	 1.8175643675	-3.7807083608	-0.9098423121	 0.130527
H	 2.2016348758	-0.4630951589	 0.0522363937	 0.088184
123.157	183.3158	240.5418	294.6591	305.753	431.3501	495.9761	553.7971	604.566	637.8225	658.406	703.0154	730.6764	745.8876	771.8843	811.5037	892.1742	899.3053	942.3136	947.1718	995.8824	1082.8093	1100.0882	1140.4252	1156.9706	1189.3327	1223.2647	1270.7544	1321.4421	1385.3696	1438.9119	1458.4068	1461.2449	1546.2496	1625.5774	1652.0495	1659.1575	3019.5002	3040.5922	3239.1257	3242.1741	3263.506	3265.3567	3527.8553	3616.1392
NC1=CN2C=CCC2=C1	Nc1cn2C=CCc2c1	
InChI=1S/C7H8N2/c8-6-4-7-2-1-3-9(7)5-6/h1,3-5H,2,8H2	InChI=1S/C7H8N2/c8-6-4-7-2-1-3-9(7)5-6/h1,3-5H,2,8H2
