18
gdb 127156	4.28713	0.94663	0.88733	0.8043	74.04	-0.2197	-0.025	0.1946	1355.1934	0.147689	-435.249169	-435.240429	-435.239485	-435.283775	31.066	
C	-0.0060256387	 1.4896824152	 0.1361769257	-0.321303
N	-0.0258350991	 0.0396014149	 0.0102986664	-0.05097
C	 0.756553896	-0.6006560265	 1.0553538866	-0.314809
C	-1.3814704293	-0.4941102231	-0.0541313734	-0.257219
C	-2.03911107	-0.1812536898	-1.3638707885	 0.368957
N	-3.0308159522	 0.6652087623	-1.4645507471	-0.168263
O	-3.3394646337	 0.6525605839	-2.8309124018	-0.151957
C	-2.4878658698	-0.2102015531	-3.3891803277	 0.10422
N	-1.6623022134	-0.7613239444	-2.5613909403	-0.289656
H	 1.0259723404	 1.8470215036	 0.0706833148	 0.120211
H	-0.5782506874	 1.9478003215	-0.6744234183	 0.13213
H	-0.4333582509	 1.8446179151	 1.0937433357	 0.094103
H	 0.3590229685	-0.4224467152	 2.0733618323	 0.092849
H	 0.79114271	-1.6814621099	 0.8873569472	 0.121554
H	 1.782120757	-0.2202114966	 1.0264840478	 0.121765
H	-1.3229420791	-1.5837185694	 0.0330011799	 0.125698
H	-2.0307016449	-0.1259028418	 0.7606084886	 0.106798
H	-2.5725538734	-0.3634715264	-4.455194318	 0.165891
35.7579	77.4193	115.3835	241.5187	245.2328	309.6294	329.4204	356.3119	381.3961	464.7203	634.847	702.6052	809.7651	865.7759	905.475	907.6626	971.	986.2873	1022.3564	1060.3773	1069.719	1123.087	1142.2798	1172.884	1204.3056	1296.0547	1302.2959	1308.0579	1362.2853	1407.0308	1445.778	1469.2083	1481.0942	1484.8878	1498.5586	1499.6092	1512.3823	1524.1915	1600.7052	2919.5973	2927.9196	2948.8076	3062.0237	3071.8537	3077.2775	3107.2285	3119.9255	3265.787
CN(C)CC1=NOC=N1	CN(C)Cc1nocn1	
InChI=1S/C5H9N3O/c1-8(2)3-5-6-4-9-7-5/h4H,3H2,1-2H3	InChI=1S/C5H9N3O/c1-8(2)3-5-6-4-9-7-5/h4H,3H2,1-2H3
