20
gdb 56214	3.97139	0.87552	0.82967	6.4016	76.49	-0.2464	0.0307	0.277	1441.2044	0.17181	-440.303699	-440.294945	-440.294	-440.338	32.199	
O	-1.1893313433	 2.5224524114	-1.2651973208	-0.375636
C	-0.5512711562	 2.2563351678	-0.1158875323	 0.404163
O	 0.5765600494	 2.6208016358	 0.0882906545	-0.332366
C	-1.3716186847	 1.4873888481	 0.9284406485	-0.344544
C	-2.3484002561	 0.4510050691	 0.3572582381	-0.172424
N	-3.3424643192	 1.0811759317	-0.5068882277	-0.089647
H	-2.090150084	 2.1046549305	-1.2289436944	 0.299822
C	-4.48094972	 1.8129672301	 0.1129006138	-0.167338
C	-5.4019178271	 1.2582057138	-0.9993861345	-0.230807
C	-4.2874068481	 0.2167425187	-1.2577045701	-0.165235
H	-0.6646798953	 1.0121841386	 1.6110636444	 0.136623
H	-1.9283503895	 2.2276000548	 1.5186967906	 0.131678
H	-1.8021825163	-0.281080773	-0.2495449312	 0.124278
H	-2.8295648484	-0.1038559262	 1.1810629474	 0.095379
H	-4.7365206705	 1.4152859576	 1.1062853152	 0.101723
H	-4.3464513096	 2.8955114063	 0.1841910238	 0.121623
H	-6.376191651	 0.8786138874	-0.69343872	 0.116432
H	-5.5266934855	 1.9560718294	-1.8287691933	 0.125234
H	-3.9918426749	 0.0098031497	-2.2898211647	 0.120163
H	-4.4787025597	-0.7348294817	-0.7407074774	 0.10088
61.338	96.0262	110.7886	174.269	194.3838	313.0519	354.5201	391.7807	506.1063	577.4351	646.1832	706.2725	751.7564	823.997	842.5575	906.6751	932.5592	941.702	959.0473	978.2591	995.8336	1037.8916	1105.7919	1134.2063	1146.735	1196.4963	1208.3995	1221.1866	1240.2983	1265.8432	1272.956	1287.9765	1298.9529	1343.2242	1355.1802	1398.7145	1463.6879	1488.9364	1495.0677	1500.87	1504.5722	1534.1103	1859.3772	2956.0611	2994.6306	3002.1771	3031.3666	3059.4068	3083.1583	3087.1466	3095.16	3120.4157	3150.1318	3211.2444
[O-]C(=O)CC[NH+]1CCC1	OC(=O)CCN1CCC1	
InChI=1S/C6H11NO2/c8-6(9)2-5-7-3-1-4-7/h1-5H2,(H,8,9)	InChI=1S/C6H11NO2/c8-6(9)2-5-7-3-1-4-7/h1-5H2,(H,8,9)
