18
gdb 63839	2.73069	1.51204	1.22067	3.973	71.83	-0.2461	0.0249	0.271	1055.6342	0.146871	-439.092335	-439.083898	-439.082954	-439.12515	32.684	
C	-0.1613445038	 1.5822006446	 0.0104348582	-0.453522
C	 0.0142658101	 0.0718106808	 0.0004622061	 0.407925
O	-1.2326730653	-0.5878143202	-0.1715175032	-0.476071
C	 1.1255189105	-0.5350602284	-0.9286759105	-0.302752
C	 1.7612299214	-1.2488883884	 0.2970978624	 0.02527
N	 2.7709817092	-0.4715097245	 1.0208208984	-0.325885
C	 1.8698040941	 0.1986728504	 1.8289123692	 0.417649
O	 2.0022322938	 1.0855587794	 2.6286923198	-0.364853
C	 0.6920937988	-0.6049385489	 1.2354986831	-0.224702
H	 0.778890359	 2.0994534647	 0.2171911092	 0.135087
H	-0.5273408055	 1.9267208445	-0.965297342	 0.103056
H	-0.8878896681	 1.8741831095	 0.7740566156	 0.135858
H	-1.6363831175	-0.2481011323	-0.9783783826	 0.275886
H	 0.6954409002	-1.2236717718	-1.6591267012	 0.108283
H	 1.7828255532	 0.174750662	-1.4372789142	 0.096472
H	 1.9569333696	-2.3191128904	 0.2406259294	 0.091666
H	 3.7019754963	-0.1916775646	 0.7418655056	 0.245381
H	 0.0335871039	-1.1524773463	 1.9053365266	 0.105252
77.0562	139.8537	228.4721	258.9503	279.0455	353.3196	360.6913	383.4763	461.3821	486.688	510.8925	623.3293	689.5295	760.2834	816.032	858.9749	866.6705	898.6002	955.7178	967.5044	988.0756	1005.0595	1096.4054	1103.8497	1140.1911	1147.4871	1165.0816	1204.9406	1233.5033	1255.2177	1269.8317	1335.9694	1360.7294	1370.8741	1414.2106	1455.2746	1486.2825	1490.0886	1884.5413	3025.1994	3061.6047	3098.6453	3113.6808	3125.2448	3128.7042	3156.1426	3582.6275	3792.7777
CC1(O)CC2NC(=O)C12	C[C@@]1(O)C[C@H]2NC(=O)[C@@H]12	
InChI=1S/C6H9NO2/c1-6(9)2-3-4(6)5(8)7-3/h3-4,9H,2H2,1H3,(H,7,8)	InChI=1S/C6H9NO2/c1-6(9)2-3-4(6)5(8)7-3/h3-4,9H,2H2,1H3,(H,7,8)/t3-,4+,6-/m1/s1
