17
gdb 9072	3.78888	1.13212	1.00325	3.625	71.55	-0.253	0.0224	0.2754	1187.4236	0.140293	-363.858463	-363.8492	-363.848256	-363.893064	32.596	
C	-0.5699391758	 1.2153006177	 0.0468808423	-0.391704
C	 0.1993422735	-0.0975389017	-0.1883154134	-0.148901
C	 1.2622557541	 0.0357294642	-1.3115332253	-0.165452
N	 0.6973690853	 0.4039671073	-2.5993287299	-0.26959
C	 0.108403397	-0.507140731	-3.4189003514	 0.146975
O	-0.0142947317	-1.6864722755	-3.1630774198	-0.319981
C	 0.8464926581	-0.5605772357	 1.0359346043	 0.320232
C	 1.4074742249	-0.9187113547	 2.0372045955	-0.462341
H	 0.1070345839	 2.0083952784	 0.3811917273	 0.120612
H	-1.0609337791	 1.5380214896	-0.8756211571	 0.111639
H	-1.336322422	 1.0822737504	 0.8140604241	 0.133404
H	-0.5077257791	-0.8668283906	-0.5223017424	 0.136544
H	 2.0033393278	 0.7895180828	-1.0307048675	 0.115352
H	 1.7741759821	-0.9224707541	-1.4257186088	 0.147844
H	 0.7257745033	 1.3655995375	-2.8955863985	 0.251877
H	-0.2478478297	-0.049014235	-4.3632234292	 0.076995
H	 1.8881080773	-1.2512564594	 2.92373368	 0.196495
43.6073	70.2616	141.5043	191.5014	220.4013	237.2906	269.2943	332.4754	438.8986	507.0145	517.577	530.9492	630.234	645.0899	758.8476	824.2405	913.4647	932.5831	987.6894	1032.4444	1079.7912	1114.4346	1150.3073	1218.0134	1271.5202	1328.8412	1349.4996	1389.2632	1408.6273	1428.4383	1467.8856	1495.6711	1498.7467	1524.0092	1803.1363	2234.9629	2935.3967	3037.9621	3042.2809	3065.2422	3112.8335	3121.6287	3126.042	3504.8072	3646.7355
CC(CNC=O)C#C	C[C@@H](CNC=O)C#C	
InChI=1S/C6H9NO/c1-3-6(2)4-7-5-8/h1,5-6H,4H2,2H3,(H,7,8)	InChI=1S/C6H9NO/c1-3-6(2)4-7-5-8/h1,5-6H,4H2,2H3,(H,7,8)/t6-/m1/s1
