15
gdb 27437	2.50576	1.65396	1.05607	6.3125	80.18	-0.2263	-0.0761	0.1502	1084.9759	0.114305	-416.845113	-416.837499	-416.836555	-416.877162	29.291	
N	 0.0623221174	 1.3779789598	 0.3430221434	-0.571787
C	-0.0249921256	 0.0148520036	 0.0928499026	 0.335991
C	-1.2265672433	-0.6295839288	 0.1446347145	-0.264799
C	-1.480668646	-2.024243143	-0.2237701316	 0.323778
O	-2.4609744417	-2.343176933	-0.8662726682	-0.335218
N	-0.6387303789	-3.0264345812	 0.292657496	-0.231749
C	 0.6412203772	-3.0023805459	 0.2530119056	-0.000205
C	 1.5286598501	-1.9469455106	-0.189623832	-0.098428
C	 1.2366490976	-0.628120796	-0.2246605831	-0.109665
H	 0.8444380006	 1.8646041468	-0.0665898782	 0.254763
H	-0.7994349616	 1.8980419089	 0.28120533	 0.260448
H	-2.1270523672	-0.0422122889	 0.3061719293	 0.105792
H	 1.1480833146	-3.8934588655	 0.6359577644	 0.117674
H	 2.5534733994	-2.2439728499	-0.395341014	 0.111497
H	 2.0545232073	 0.0509648539	-0.4592555387	 0.101908
97.1933	156.6498	269.6449	322.0856	345.2388	369.5051	434.1697	464.6148	514.2533	546.9572	585.9917	689.7382	707.1532	804.447	840.7771	858.7026	865.5872	951.2809	974.0273	1000.4472	1017.5994	1117.8509	1237.7447	1251.4383	1271.5698	1382.9594	1437.6725	1484.4877	1579.9037	1648.7922	1666.9364	1703.1443	1759.0893	3077.3065	3139.2197	3159.9584	3172.3669	3581.5523	3685.8507
NC1=CC(=O)N=CC=C1	Nc1cc(=O)nccc1	
InChI=1S/C6H6N2O/c7-5-2-1-3-8-6(9)4-5/h1-4H,7H2	InChI=1S/C6H6N2O/c7-5-2-1-3-8-6(9)4-5/h1-4H,7H2
