17
gdb 25947	4.78226	1.00045	0.85964	3.2162	78.89	-0.2019	0.0078	0.2097	1333.279	0.136558	-418.041773	-418.033169	-418.032225	-418.076196	31.493	
C	-0.2034241552	 1.3580717921	-0.70006764	-0.464866
C	 0.0086042223	-0.1255192347	-0.5193899193	 0.362037
N	 0.9951985273	-0.7064050355	-1.0734522961	-0.508476
N	-0.9617703697	-0.7058153706	 0.3115441343	-0.443182
C	-1.1494828325	-2.0540384725	 0.5609586325	 0.438324
C	-2.2785322096	-2.8027385968	 0.7128320091	-0.286683
C	-1.8304496691	-4.121946204	 1.0556264138	-0.158438
C	-0.4767842636	-4.0785646262	 1.0698620067	-0.022579
O	-0.0420411163	-2.8106593661	 0.7813265178	-0.170429
H	 0.5870778159	 1.7511738749	-1.337063498	 0.156649
H	-1.1745024609	 1.5656165539	-1.1652200695	 0.12673
H	-0.1802963761	 1.8772409241	 0.2646931049	 0.133478
H	 1.0257291799	-1.6998665221	-0.8487779977	 0.22528
H	-1.75155865	-0.1265088939	 0.5461315966	 0.254594
H	-3.2942290952	-2.4647319099	 0.5844580162	 0.104918
H	-2.4452608714	-4.9864952787	 1.2505582262	 0.114487
H	 0.2996526943	-4.804808824	 1.2378460024	 0.138156
32.039	74.9578	146.9883	149.4632	310.1253	346.2138	386.0377	410.3287	553.9196	566.8158	609.3251	666.6819	714.4753	764.8538	791.1706	844.1518	894.9444	901.0762	910.8686	967.597	1018.3008	1036.2029	1072.9963	1097.2002	1144.2357	1181.7787	1241.3115	1299.3096	1331.3462	1399.5002	1418.6008	1470.5713	1486.0178	1497.6865	1564.0734	1652.2255	1738.5598	3033.2948	3088.1748	3169.4985	3254.0874	3265.9822	3296.3699	3504.4387	3638.1892
CC(=N)NC1=CC=CO1	CC(=N)Nc1ccco1	
InChI=1S/C6H8N2O/c1-5(7)8-6-3-2-4-9-6/h2-4H,1H3,(H2,7,8)	InChI=1S/C6H8N2O/c1-5(7)8-6-3-2-4-9-6/h2-4H,1H3,(H2,7,8)
