21
gdb 114893	3.04756	1.25944	1.14548	0.7703	77.91	-0.2444	0.0857	0.3301	1192.938	0.183815	-424.223902	-424.215518	-424.214574	-424.257123	32.04	
C	-0.392560476	 1.2498722278	 0.05106639	-0.382397
C	 0.06328139	-0.2080064165	-0.0708878128	-0.196557
C	 0.8516717344	-0.6636236487	 1.1402527709	 0.12872
O	 0.1077417825	-0.5997531399	 2.3915188932	-0.327568
C	 0.5514982987	-1.9224076219	 2.775915596	 0.106647
C	-0.5817928092	-2.9277583846	 2.9121925772	-0.24582
C	-0.9355400255	-3.2179206608	 1.445801681	-0.085415
O	 0.2872511967	-3.0867722627	 0.7120403288	-0.263049
C	 1.1388008316	-2.1684614965	 1.3682418344	 0.035252
H	 0.4636643003	 1.9290206041	 0.128928548	 0.112185
H	-0.9820032084	 1.5525974863	-0.8194201289	 0.110974
H	-1.0081750689	 1.3854291801	 0.9448839447	 0.135393
H	-0.7999977666	-0.8647579185	-0.2143790539	 0.108211
H	 0.7009791078	-0.3366649518	-0.9550256265	 0.100563
H	 1.7738560791	-0.0683068115	 1.2341792088	 0.065613
H	 1.2370816187	-1.8905697838	 3.628575253	 0.074826
H	-0.2115605823	-3.8286915707	 3.4130341193	 0.107555
H	-1.42236759	-2.5279877216	 3.4843161971	 0.117398
H	-1.3145011537	-4.2290318298	 1.2754346285	 0.11032
H	-1.6830180695	-2.5009646165	 1.0818985569	 0.103935
H	 2.1701956103	-2.5023816327	 1.2408250144	 0.083216
82.1913	120.566	148.8414	216.1709	230.9722	291.9929	367.7875	444.4981	525.3154	650.5618	669.3363	768.7109	802.7055	840.8775	863.6231	899.2546	918.5994	942.7616	958.3705	977.4838	984.9971	1035.5134	1059.0367	1092.9419	1125.8882	1145.2687	1165.4688	1194.8913	1226.9004	1240.6377	1266.644	1282.7256	1305.7109	1310.742	1329.9095	1349.4739	1365.3766	1395.0163	1408.594	1420.216	1467.7712	1475.9751	1499.6624	1510.0242	1517.7254	2975.6084	3018.7175	3033.6343	3036.6187	3048.4147	3062.7607	3081.8306	3091.9076	3097.2341	3105.7417	3116.8305	3118.6212
CCC1OC2CCOC12	CC[C@H]1O[C@H]2CCO[C@@H]12	
InChI=1S/C7H12O2/c1-2-5-7-6(9-5)3-4-8-7/h5-7H,2-4H2,1H3	InChI=1S/C7H12O2/c1-2-5-7-6(9-5)3-4-8-7/h5-7H,2-4H2,1H3/t5-,6+,7+/m1/s1
