23
gdb 57299	2.75375	1.09512	1.02444	2.5239	86.81	-0.237	-0.009	0.2279	1348.9882	0.203147	-388.311623	-388.301074	-388.30013	-388.347265	39.27	
C	-0.0237444209	 1.5321278698	 0.0090183982	-0.396762
C	-0.0012095056	-0.002721399	-0.002786948	 0.141339
C	 0.7786990247	-0.5208866236	 1.2256921982	-0.412764
C	-1.4475038112	-0.544342159	 0.0271560548	-0.412749
C	 0.6954798737	-0.4923848533	-1.2876690237	 0.379813
O	 1.1298194982	 0.28892536	-2.1107756643	-0.348426
C	 0.8282311955	-1.9667027791	-1.5046034613	-0.092524
C	 0.7629907474	-2.4601403357	-2.944053668	-0.253302
C	 2.0738482636	-2.4458867448	-2.2385058341	-0.253302
H	 0.9889384533	 1.9412203492	-0.0230970594	 0.121541
H	-0.5606440911	 1.9248836623	-0.857798378	 0.121578
H	-0.5168894289	 1.893185131	 0.9175263849	 0.099713
H	 0.3002245246	-0.1653571989	 2.1445256692	 0.11742
H	 0.8087485988	-1.6133538546	 1.2710255867	 0.115332
H	 1.810218576	-0.1541448395	 1.2223641468	 0.123545
H	-2.0185906594	-0.1940729455	-0.8387017689	 0.123557
H	-1.4840012747	-1.6375148588	 0.0361141788	 0.115338
H	-1.9567783388	-0.1895635559	 0.9295773445	 0.117417
H	 0.4263964332	-2.624255894	-0.7447376065	 0.087126
H	 0.268298386	-3.4086200388	-3.1190680646	 0.115436
H	 0.592268236	-1.6935837272	-3.6909710729	 0.13762
H	 2.778279647	-1.6698029712	-2.5143930384	 0.137616
H	 2.5083245525	-3.3842457834	-1.9134275241	 0.115439
47.7254	58.4592	181.5941	183.5539	213.7227	240.5848	256.5222	285.047	297.5016	322.2803	354.6239	377.2352	460.8173	572.7594	726.6646	759.6222	799.872	828.3331	833.0509	896.6952	904.4258	939.2729	945.504	962.7451	1016.1572	1039.5287	1060.1715	1088.8724	1096.3732	1111.2296	1129.0381	1211.0117	1223.2227	1224.1077	1246.2241	1280.6242	1397.9052	1398.4497	1400.0601	1429.7106	1452.4831	1475.9838	1480.1516	1483.3638	1485.1545	1497.5642	1503.3377	1516.1192	1772.3256	3030.1857	3032.4675	3043.3322	3098.0587	3100.0226	3105.9746	3108.3469	3114.3737	3126.8861	3140.1945	3141.846	3190.333	3228.3419	3242.9508
CC(C)(C)C(=O)C1CC1	CC(C)(C)C(=O)C1CC1	
InChI=1S/C8H14O/c1-8(2,3)7(9)6-4-5-6/h6H,4-5H2,1-3H3	InChI=1S/C8H14O/c1-8(2,3)7(9)6-4-5-6/h6H,4-5H2,1-3H3
