18
gdb 45438	2.55843	1.69277	1.67282	4.3592	70.59	-0.2297	0.029	0.2587	931.9622	0.151378	-439.131697	-439.124458	-439.123513	-439.163478	28.586	
O	-0.0004319089	-0.0424639969	 0.0319567852	-0.3864
C	-0.0083183917	 1.1702812969	 0.0073137892	 0.414883
N	-1.1227355264	 1.9629647546	 0.0078254633	-0.298223
C	-0.8936366226	 3.4061188631	 0.0245574717	-0.040978
C	-0.1000751474	 3.7613796312	 1.3003327307	-0.204901
C	 1.2231858753	 2.9436759086	 1.2714578487	-0.227634
C	 1.2237332132	 2.0878736606	-0.0088268928	-0.01842
O	 1.1641530644	 2.947568522	-1.1562133451	-0.278204
C	-0.0244808287	 3.7380692926	-1.1960877358	-0.048664
H	-2.0411060844	 1.5477505105	 0.0101061463	 0.250795
H	-1.849754503	 3.9302492409	-0.0241368472	 0.084576
H	 0.0973059718	 4.8374138485	 1.3241766359	 0.107003
H	-0.7005783289	 3.5175012338	 2.1803902561	 0.107998
H	 2.0962725519	 3.60142657	 1.2455352178	 0.113051
H	 1.3200978638	 2.3005170256	 2.1510439148	 0.118956
H	 2.124997959	 1.486238963	-0.1182500522	 0.101463
H	-0.565439338	 3.5169733577	-2.1248961448	 0.104398
H	 0.2472777108	 4.8025490573	-1.1961145119	 0.100302
73.7462	159.3106	289.843	368.8898	381.036	399.3773	436.9001	550.6705	561.5496	628.9916	769.6977	804.0105	827.5009	845.8528	882.0739	886.9222	953.7927	1008.6287	1018.941	1040.402	1066.1159	1098.1107	1107.9498	1168.7061	1216.8312	1246.204	1259.2274	1286.1046	1305.6188	1332.7157	1342.824	1358.7566	1372.4797	1403.9782	1441.8272	1477.0864	1497.0252	1521.8936	1824.4271	3005.596	3044.8159	3050.6014	3060.5925	3090.594	3100.1921	3110.8538	3134.0519	3633.8416
O=C1NC2CCC1OC2	O=C1N[C@H]2CC[C@@H]1OC2	
InChI=1S/C6H9NO2/c8-6-5-2-1-4(7-6)3-9-5/h4-5H,1-3H2,(H,7,8)	InChI=1S/C6H9NO2/c8-6-5-2-1-4(7-6)3-9-5/h4-5H,1-3H2,(H,7,8)/t4-,5-/m0/s1
