18
gdb 49440	2.70822	1.72912	1.60839	3.4021	74.18	-0.2331	-0.0298	0.2033	928.3238	0.149349	-401.915377	-401.908241	-401.907296	-401.947013	28.075	
O	-0.3278850689	 0.0727984953	-0.0784677989	-0.244573
C	-0.0616633364	 1.2314115715	-0.2747632246	 0.150192
C	 1.2469892679	 1.9037463578	 0.0456629268	-0.04415
C	 1.3756112376	 2.8554801568	 1.2801992342	-0.087333
C	 0.5175377039	 2.3640583203	 2.4553637401	-0.218999
C	 1.0055553997	 0.9071011512	 2.688135432	-0.24733
C	 2.3400301825	 0.8481580439	 1.9564261825	-0.004217
C	 2.7558652305	 2.175823611	 1.4725133611	-0.050982
N	 2.4199979003	 1.0830083244	 0.4812233727	-0.153781
H	-0.8054523052	 1.9196536642	-0.74427203	 0.072782
H	 1.5497582244	 2.442394449	-0.8625375881	 0.102756
H	 1.3277199424	 3.9252969356	 1.0801865867	 0.076412
H	 0.7125682544	 2.9851712911	 3.3364282211	 0.104267
H	-0.5550584893	 2.4247184025	 2.2440705008	 0.104724
H	 1.1532517604	 0.6947177045	 3.7513224548	 0.101972
H	 0.3088438404	 0.1630820616	 2.2970403679	 0.141437
H	 3.0843892648	 0.1223898561	 2.2652807762	 0.100054
H	 3.7346628606	 2.6363882633	 1.5292604947	 0.09677
95.3837	161.8289	216.7882	250.0422	404.6357	419.5237	585.0679	663.2956	696.4236	765.1486	779.7263	823.2723	835.2935	855.0217	891.7206	905.3762	933.7868	970.537	1010.0682	1042.4805	1052.8515	1066.4318	1085.229	1110.5262	1155.0851	1189.6135	1218.0584	1231.0001	1266.8281	1281.1432	1290.8687	1315.2798	1341.7297	1362.6169	1401.3602	1421.6246	1486.7218	1504.5387	1824.5629	2840.7421	3020.1173	3039.9544	3062.4858	3081.7611	3118.8565	3119.4804	3173.2302	3188.5942
O=CC1C2CCC3C2N13	O=C[C@H]1[C@H]2CC[C@@H]3[C@H]2N13	
InChI=1S/C7H9NO/c9-3-6-4-1-2-5-7(4)8(5)6/h3-7H,1-2H2	InChI=1S/C7H9NO/c9-3-6-4-1-2-5-7(4)8(5)6/h3-7H,1-2H2/t4-,5-,6+,7+,8?/m1/s1
