18
gdb 90689	3.38324	1.24371	1.09253	6.3854	72.85	-0.239	0.0235	0.2625	1146.1052	0.14826	-439.071974	-439.064012	-439.063067	-439.104569	30.401	
C	-0.1915065419	 1.3991287822	 0.098381302	-0.338651
N	 0.0662270265	-0.0307861009	 0.0951344953	-0.126834
H	-1.0217349518	-1.3774339888	 0.029698934	 0.303707
C	 1.067672648	-0.5211132258	-0.9115932966	-0.193275
C	 1.8598671112	-1.2114188998	 0.1990550631	-0.104928
C	 0.9321992436	-0.5451976349	 1.1909268808	-0.024736
C	 0.9683894772	-2.0466357965	 1.1172159429	-0.180128
C	-0.1708138377	-2.9467374597	 0.6880069295	 0.419269
O	-0.1456132277	-4.1295372609	 0.9113617041	-0.347283
O	-1.1960401485	-2.3576909672	 0.0602096985	-0.389914
H	 0.730294152	 2.0004085492	 0.1678333407	 0.108851
H	-0.7148408294	 1.6735121138	-0.821959978	 0.137692
H	-0.8359012663	 1.6534084872	 0.9453330531	 0.136798
H	 0.636426475	-1.1324318705	-1.7097490715	 0.13178
H	 1.6327045804	 0.3111732333	-1.3445931208	 0.117429
H	 2.9332722876	-1.3405487476	 0.2127629668	 0.113621
H	 1.1071032092	 0.0336742146	 2.0902729924	 0.111445
H	 1.5496176924	-2.5112001676	 1.9066192435	 0.125159
91.222	140.7066	196.9858	244.6778	290.0561	318.8105	374.559	441.97	516.6084	675.7525	728.6145	743.7997	792.9978	803.4264	872.1912	900.611	948.6464	977.9269	996.8547	1008.7936	1028.2296	1063.0094	1069.1515	1110.6564	1148.5859	1190.1315	1203.5007	1230.912	1270.588	1287.7843	1316.5667	1339.894	1405.1282	1455.6336	1488.0178	1500.7407	1503.5748	1517.8329	1848.4403	2968.1127	3041.1612	3075.9054	3097.8627	3116.4268	3161.3851	3178.574	3185.1062	3210.6558
C[NH+]1CC2C1C2C([O-])=O	CN1C[C@H]2[C@@H]1[C@H]2C(=O)O	
InChI=1S/C6H9NO2/c1-7-2-3-4(5(3)7)6(8)9/h3-5H,2H2,1H3,(H,8,9)	InChI=1S/C6H9NO2/c1-7-2-3-4(5(3)7)6(8)9/h3-5H,2H2,1H3,(H,8,9)/t3-,4+,5-/m1/s1
