14
gdb 44191	5.68072	1.04476	0.95761	4.2534	69.14	-0.2493	-0.0064	0.2429	1164.7659	0.100211	-436.631613	-436.624032	-436.623087	-436.663963	28.39	
O	-0.0211192006	 0.0281280792	 0.1344633156	-0.338719
C	 0.0000668077	 1.218802382	 0.0185010634	 0.415886
N	-1.0042478814	 2.1795191519	-0.0405547502	-0.328182
C	-0.1163929048	 3.3315183149	-0.0657406575	-0.048439
C	 0.4391260855	 3.7766559867	 1.3255813137	-0.100269
O	 1.4907416732	 2.770604441	 1.2519696857	-0.287104
C	 1.0772826236	 2.3439598933	-0.0631670213	-0.040805
C	 0.9638439624	 5.1276040634	 1.3835210248	 0.339696
C	 1.3780730507	 6.2555867342	 1.4018745182	-0.42658
H	-1.9760536404	 2.1125228257	 0.2309706707	 0.255013
H	-0.3199594368	 4.0956864831	-0.8125510124	 0.116926
H	-0.2395394271	 3.5809829682	 2.1639967637	 0.116988
H	 1.8899993435	 2.2853618798	-0.7862437195	 0.116463
H	 1.7496223345	 7.2504674765	 1.434050215	 0.209127
78.539	127.6802	176.4647	266.0919	365.6014	443.6259	457.1929	500.4206	541.3227	641.9968	678.6205	721.7156	756.0726	812.2198	872.5385	934.2466	943.9164	969.3798	1008.5892	1042.2655	1053.4711	1130.5927	1172.4226	1214.4929	1221.9259	1283.1824	1305.9808	1349.6202	1372.732	1905.852	2237.3175	3040.4344	3128.957	3144.5155	3499.9255	3587.7868
O=C1NC2C(OC12)C#C	O=C1N[C@H]2[C@@H](O[C@@H]12)C#C	
InChI=1S/C6H5NO2/c1-2-3-4-5(9-3)6(8)7-4/h1,3-5H,(H,7,8)	InChI=1S/C6H5NO2/c1-2-3-4-5(9-3)6(8)7-4/h1,3-5H,(H,7,8)/t3-,4-,5+/m0/s1
