21
gdb 90960	2.67147	1.58951	1.3626	2.0182	81.45	-0.2213	0.0783	0.2996	1063.0239	0.182688	-387.050091	-387.041937	-387.040993	-387.082327	32.672	
C	-0.2686458589	 1.5316494637	-0.0823164653	-0.408051
C	-0.0291461511	 0.02203122	-0.016143981	 0.006422
C	 0.8920293231	-0.5431744594	-1.1509687907	-0.271161
C	 1.9622639222	-1.2427280148	-0.3222515427	-0.06907
C	 1.3183116945	-1.8735808043	 0.9441243442	 0.03658
O	 2.5169529517	-1.5973896317	 1.7422562978	-0.354345
C	 2.3003648871	-0.378030827	 0.9362228058	 0.427456
C	 3.2751393804	 0.7470375899	 1.1013443379	-0.524524
C	 0.7567881452	-0.451500133	 1.2062458054	-0.074134
H	 0.6742800773	 2.0890825104	-0.0615420136	 0.115747
H	-0.7938542067	 1.8052781637	-1.0035762294	 0.115118
H	-0.87575436	 1.8758130619	 0.7619267515	 0.114548
H	-1.0033473983	-0.4817828931	-0.0405916292	 0.071999
H	 0.3635521044	-1.2305717057	-1.8189176759	 0.100156
H	 1.310017011	 0.2562404261	-1.7733440954	 0.097616
H	 2.7779758765	-1.7788421287	-0.807713468	 0.070897
H	 0.834333851	-2.8429748184	 1.0687175226	 0.084149
H	 4.2921329708	 0.3985030235	 0.8954368933	 0.133136
H	 3.0451280581	 1.5643507124	 0.4111393129	 0.126856
H	 3.2449400555	 1.1384163124	 2.1228712811	 0.132479
H	 0.4005077261	-0.2149082981	 2.2096732988	 0.068125
126.3495	164.6625	198.1615	227.1396	273.3893	316.319	391.7992	465.7268	504.6305	617.3865	665.8725	684.793	758.7709	771.5732	835.4374	888.2862	905.0609	927.5797	932.6596	947.787	995.6726	1003.6625	1021.6238	1045.2324	1077.6301	1117.2885	1125.1413	1168.4187	1181.491	1216.3133	1223.5645	1239.853	1262.5937	1272.6915	1296.7262	1317.5111	1369.3801	1391.4021	1409.6508	1421.7784	1474.039	1488.7622	1495.0942	1497.9066	1500.2701	3021.2011	3027.9591	3037.8381	3039.4568	3079.7604	3096.1036	3096.9014	3106.4451	3110.2831	3114.6009	3117.3581	3125.9856
CC1CC2C3OC2(C)C13	C[C@H]1C[C@@H]2[C@H]3O[C@]2(C)[C@@H]13	
InChI=1S/C8H12O/c1-4-3-5-7-6(4)8(5,2)9-7/h4-7H,3H2,1-2H3	InChI=1S/C8H12O/c1-4-3-5-7-6(4)8(5,2)9-7/h4-7H,3H2,1-2H3/t4-,5+,6-,7+,8-/m0/s1
