21
gdb 11674	3.35944	1.61761	1.35777	1.9426	78.71	-0.2204	0.0811	0.3015	1029.5731	0.189061	-329.057308	-329.049001	-329.048057	-329.089922	31.807	
C	 0.4215127788	 1.2979309183	 0.2743143945	-0.379767
C	 0.1687411895	-0.2063394603	 0.1178329626	-0.319934
C	-1.2975126912	-0.5597236836	 0.0091851414	 0.317373
C	-2.4458351266	-0.332322686	 1.0256553624	-0.203292
N	-3.1886871355	-1.023329175	-0.1296077057	-0.16096
C	-2.356135955	-0.0852009876	-1.0209522239	-0.218771
C	-1.956577034	-1.9615755073	-0.159310454	 0.044847
C	-1.754767555	-2.8563517514	-1.3678142421	-0.44351
H	 1.4913130717	 1.513457726	 0.3507131759	 0.114314
H	 0.0292466493	 1.8564390799	-0.582163678	 0.119018
H	-0.0629262213	 1.689703637	 1.1749564728	 0.119061
H	 0.690766694	-0.5780635363	-0.7739851279	 0.099222
H	 0.6006148348	-0.7460950099	 0.9712168792	 0.097916
H	-2.4383620263	-0.9149577401	 1.9521705051	 0.093391
H	-2.7849115665	 0.692076014	 1.2024660011	 0.094844
H	-2.6864323339	 0.9560719038	-0.9682881167	 0.096318
H	-2.2731357259	-0.404574618	-2.0605731404	 0.097223
H	-1.9335580565	-2.5787775588	 0.747655036	 0.064069
H	-1.6720844591	-2.3175990769	-2.3142532661	 0.11818
H	-0.8402439194	-3.4458453399	-1.240556621	 0.118883
H	-2.5917171718	-3.5575900879	-1.4523687654	 0.131577
78.8525	143.8127	160.3258	203.7773	248.8174	319.6014	368.603	430.8226	576.827	592.4495	624.3442	750.2537	766.6779	814.2726	821.4309	879.4373	946.531	952.2363	986.0784	994.6339	1035.5667	1060.7458	1065.2337	1110.8219	1144.864	1170.0248	1174.8431	1190.5522	1195.2443	1206.7629	1260.1458	1304.2677	1318.9659	1374.6849	1404.3616	1413.3483	1430.7815	1480.5	1489.5578	1493.8476	1501.1179	1506.1434	1519.4216	1555.7169	3013.0288	3020.8214	3034.6721	3038.7565	3043.1543	3044.8923	3060.9834	3098.6425	3101.7128	3106.7952	3109.305	3117.5244	3130.6665
CCC12CN(C1)C2C	CC[C@@]12CN(C1)[C@H]2C	
InChI=1S/C7H13N/c1-3-7-4-8(5-7)6(7)2/h6H,3-5H2,1-2H3	InChI=1S/C7H13N/c1-3-7-4-8(5-7)6(7)2/h6H,3-5H2,1-2H3/t6-/m0/s1
