18
gdb 11400	5.02673	1.16443	1.03584	2.2524	69.57	-0.2451	0.0144	0.2595	1136.4471	0.154004	-384.940901	-384.932669	-384.931724	-384.973905	30.579	
O	 0.0185169127	 1.3953388191	 0.0799672309	-0.422781
C	 0.028221862	-0.0233524294	 0.0228319412	-0.084206
C	-1.4212118705	-0.5037639095	 0.0336244712	-0.016722
C	-1.5678376788	-2.0418923155	-0.0738631917	-0.276284
C	-2.7196365289	-2.4396113217	 0.8907125041	 0.111873
O	-2.4889767828	-3.6470401457	 1.6073886249	-0.433508
C	-2.8660586765	-1.2164690786	 1.7662784605	-0.134271
C	-2.1630990685	-0.1811318222	 1.3118631556	-0.059008
H	 0.9283282329	 1.7042441632	 0.1142478217	 0.287976
H	 0.52907429	-0.3837779843	-0.8903426954	 0.086854
H	 0.5615184715	-0.45559028	 0.8856637412	 0.081176
H	-1.9213917076	-0.0085445147	-0.8107102402	 0.091693
H	-1.7342574909	-2.3874119757	-1.0966959696	 0.104166
H	-0.6521124642	-2.5303227841	 0.2836237004	 0.093039
H	-3.6465591833	-2.6378558449	 0.3376343086	 0.093349
H	-1.7465978637	-3.4874251335	 2.2011748956	 0.27113
H	-3.5033842846	-1.2231027916	 2.6440412061	 0.096392
H	-2.1216928487	 0.8072572992	 1.7545728149	 0.109133
51.6603	119.9077	209.8368	221.2274	265.7022	334.9024	356.3475	402.3672	465.2518	578.4019	616.8949	747.3232	791.9582	849.6916	864.4058	930.8638	989.277	1005.5982	1022.7463	1064.5999	1075.544	1104.5192	1116.1942	1142.6484	1166.6743	1237.793	1244.9108	1262.0565	1287.9956	1316.2579	1324.0265	1338.7395	1382.6375	1429.5969	1452.9153	1484.9275	1520.6201	1681.8486	2958.1565	2986.2651	3010.458	3025.6897	3032.5845	3102.5399	3185.7636	3214.112	3793.3068	3832.3691
OCC1CC(O)C=C1	OC[C@H]1C[C@@H](O)C=C1	
InChI=1S/C6H10O2/c7-4-5-1-2-6(8)3-5/h1-2,5-8H,3-4H2	InChI=1S/C6H10O2/c7-4-5-1-2-6(8)3-5/h1-2,5-8H,3-4H2/t5-,6+/m1/s1
