23
gdb 58630	2.07888	1.41527	1.1436	1.6828	85.	-0.2591	0.0823	0.3413	1241.9602	0.204214	-388.259245	-388.249329	-388.248385	-388.294351	37.464	
C	-1.483766967	-0.5754033962	-0.2188293182	-0.391779
C	-0.0480658047	-0.0449828201	-0.0856923129	-0.039158
C	 0.5461401146	-0.3859682722	 1.2899726225	-0.401915
C	 0.8437260731	-0.5080048982	-1.2454371589	 0.374847
C	 0.7823302373	 0.3094301867	-2.5113070729	-0.322993
C	 2.0009834228	 0.3917057556	-1.6268930226	-0.312746
C	 1.0838795659	-1.9869459488	-1.321736262	-0.001526
O	 0.0651111549	-2.8180140648	-1.903013267	-0.237756
C	 1.3306455363	-2.7455229971	-2.5550218716	-0.188654
H	-1.9213054902	-0.293963124	-1.1813651598	 0.114663
H	-1.5119617285	-1.6669537573	-0.152919817	 0.134905
H	-2.1189932393	-0.1709965585	 0.5763814168	 0.102663
H	-0.0897803906	 1.0508668368	-0.1558043722	 0.064899
H	 0.5448242924	-1.4652598453	 1.4768195708	 0.118321
H	 1.5770011233	-0.0281628078	 1.381282006	 0.111147
H	-0.0433690834	 0.0785229839	 2.0870439878	 0.111707
H	 0.8753923049	-0.1776269063	-3.4744417992	 0.114342
H	 0.0984290721	 1.1516767455	-2.5147777392	 0.112646
H	 2.1585864971	 1.2932483368	-1.0437044883	 0.111465
H	 2.9141837025	-0.0744075297	-1.9814963638	 0.110287
H	 1.5031100604	-2.415581297	-0.409799966	 0.090711
H	 1.3304452441	-2.2483429498	-3.5226528986	 0.11355
H	 1.936638782	-3.6503532324	-2.5088320138	 0.110376
36.1181	80.8813	177.4205	198.8578	240.5616	247.866	263.4364	281.505	321.6907	398.7654	443.6623	518.8131	540.2242	671.7106	774.9435	829.2194	850.8735	895.9171	923.3205	933.2129	948.6625	959.7608	962.7011	975.6336	1050.7427	1057.0964	1082.7404	1088.4967	1106.5826	1141.7308	1158.6028	1174.7407	1186.721	1190.3477	1275.7701	1284.1084	1319.5169	1348.9825	1396.4943	1401.9842	1423.6497	1445.7726	1467.7455	1485.4918	1494.047	1503.29	1505.9546	1511.3936	1532.6646	3001.1172	3030.6998	3037.5073	3082.0452	3091.208	3099.8562	3101.4523	3104.1584	3116.9774	3127.2027	3138.5316	3167.8454	3207.2094	3223.3835
CC(C)C1(CC1)C1OC1	CC(C)C1(CC1)[C@H]1OC1	
InChI=1S/C8H14O/c1-6(2)8(3-4-8)7-5-9-7/h6-7H,3-5H2,1-2H3	InChI=1S/C8H14O/c1-6(2)8(3-4-8)7-5-9-7/h6-7H,3-5H2,1-2H3/t7-/m0/s1
