21
gdb 133868	3.01698	1.89549	1.84489	0.2864	85.74	-0.2465	0.092	0.3384	895.6742	0.187833	-349.901681	-349.895706	-349.894762	-349.93142	27.489	
C	-0.9229659589	 1.7813827431	 0.4067573117	-0.338305
C	 0.5432155442	 1.5544642179	-0.1686949549	-0.09966
C	-0.072587739	 0.423991421	-1.0369812178	 0.018543
C	 0.5629873653	-0.9404529411	-1.3551014699	-0.258943
C	 0.4772133674	-1.6449942963	 0.0204648964	-0.014265
C	 1.461834412	-0.8262602402	 0.8900134258	-0.258942
C	 0.7346392072	 0.5265468609	 0.9792820388	 0.018541
C	-0.6847485531	 0.2421446132	 0.3896840282	 0.327173
C	-0.9552959214	-1.2420265759	 0.5734852877	-0.364456
H	-1.6592441011	 2.184672134	-0.2941799319	 0.09139
H	-0.9877578865	 2.2699879793	 1.3830400406	 0.091389
H	 1.2275613472	 2.3484608945	-0.4830632833	 0.060606
H	-0.76484389	 0.7740157539	-1.8079795096	 0.056061
H	 1.5904784115	-0.9084457926	-1.7321452888	 0.093276
H	-0.0470305977	-1.4468790557	-2.1110711759	 0.089852
H	 0.6704167422	-2.7200674874	-0.0022019832	 0.055434
H	 2.4645753268	-0.7974018139	 0.4511491958	 0.093276
H	 1.5582454381	-1.2429378452	 1.8985593797	 0.089852
H	 0.7518510753	 0.9667065996	 1.9803499796	 0.056061
H	-1.7623384891	-1.6462693765	-0.0453590836	 0.096558
H	-1.0995878406	-1.5620798926	 1.6100394245	 0.096558
304.6169	397.2249	404.7515	435.3884	453.2049	581.2621	597.5511	689.0141	767.6068	773.2022	788.2396	824.8397	850.6709	851.7429	923.618	934.0245	942.3767	945.9691	993.5542	1001.1885	1018.9546	1048.0455	1071.8732	1086.3767	1096.9544	1102.7246	1124.4249	1151.8003	1153.3451	1180.3455	1198.3511	1203.1537	1240.33	1254.0375	1256.1187	1275.1865	1304.1832	1324.8341	1332.7136	1362.8394	1412.8454	1483.4696	1484.4974	1508.6866	1513.6969	3034.7443	3035.1852	3043.4424	3047.7605	3053.4939	3056.3462	3068.1439	3076.5353	3082.0163	3087.2216	3101.5107	3113.0676
C1C2C3CC4CC2C13C4	C1[C@@H]2[C@H]3C[C@H]4C[C@@H]2[C@@]13C4	
InChI=1S/C9H12/c1-5-2-8-6-4-9(8,3-5)7(1)6/h5-8H,1-4H2	InChI=1S/C9H12/c1-5-2-8-6-4-9(8,3-5)7(1)6/h5-8H,1-4H2/t5-,6+,7+,8-,9-
