15
gdb 35617	2.32598	1.83112	1.18866	2.9105	70.38	-0.2577	-0.0086	0.2491	1013.3666	0.113467	-416.812607	-416.805106	-416.804162	-416.84517	27.976	
N	-0.0921661352	-1.1078599885	-0.4315165377	-0.320376
C	-0.0715087586	 0.0165702972	-0.1678782741	 0.297154
C	-0.0224065702	 1.4559318621	 0.111821617	-0.124594
O	-0.4088978458	 1.6994996778	 1.4817008302	-0.224123
C	 0.6530825876	 2.3449859457	 2.0490452048	 0.104392
N	 1.6726372634	 2.599568115	 1.3460529332	-0.282765
C	 1.3952612404	 2.0807111376	 0.0275851341	 0.32731
C	 2.5173672138	 1.5152510916	-0.7963329822	-0.314055
C	 1.884557048	 2.8298770755	-1.1816997544	-0.309737
H	-0.7425791447	 1.9630184101	-0.5389236122	 0.145934
H	 0.5136097841	 2.5921140454	 3.093957162	 0.158226
H	 3.5008638986	 1.5348963495	-0.3423912179	 0.139757
H	 2.3067559783	 0.6405579931	-1.4021872445	 0.142204
H	 1.2396366347	 2.8522466883	-2.0546739359	 0.123326
H	 2.4386251657	 3.7422743196	-0.9956536924	 0.137348
51.7456	141.5336	211.5614	285.7556	317.2867	368.7631	486.9485	523.1917	578.4506	614.6131	774.1091	805.4998	840.8364	907.675	930.1748	950.5944	963.535	978.3188	1000.7514	1038.1779	1060.7068	1086.7889	1098.3123	1192.1265	1233.9347	1266.3347	1329.5369	1350.075	1365.5649	1457.0475	1495.7275	1705.9757	2363.0246	3055.0165	3133.3411	3142.6357	3224.2462	3237.0618	3239.1122
N#CC1OC=NC11CC1	N#C[C@H]1OC=NC21CC2	
InChI=1S/C6H6N2O/c7-3-5-6(1-2-6)8-4-9-5/h4-5H,1-2H2	InChI=1S/C6H6N2O/c7-3-5-6(1-2-6)8-4-9-5/h4-5H,1-2H2/t5-/m1/s1
