19
gdb 39589	3.35553	1.53152	1.11381	1.2005	82.86	-0.2348	0.0157	0.2506	1095.9818	0.162036	-385.905773	-385.898622	-385.897678	-385.937191	29.033	
C	-0.056673682	 1.5300300045	 0.00580425	-0.362391
C	 1.420141038	 1.8795955487	 0.0419005421	-0.062657
C	 2.1976275668	 0.8407099832	-0.2653529362	-0.116298
C	 1.3719583006	-0.3691748662	-0.624846763	 0.040876
O	 1.8384239871	-1.5826766464	-0.0601775436	-0.263433
C	 0.8907058834	-2.6128815479	-0.2971969294	-0.077396
C	-0.4466838387	-2.3563967029	 0.4207464612	-0.257564
C	-0.8198205155	-0.895370276	 0.4033822944	-0.189045
C	 0.0007142624	 0.0201567929	-0.0976675905	 0.296729
H	-0.6066629264	 1.8751907881	 0.8892453358	 0.114382
H	-0.5454508899	 1.9958565983	-0.8637976515	 0.115316
H	 1.7734853011	 2.8802272216	 0.2648172966	 0.098071
H	 3.2787172592	 0.8432883348	-0.3334979865	 0.102882
H	 1.3570408307	-0.4889970694	-1.7276754825	 0.07057
H	 0.7156459577	-2.7101088087	-1.3821106975	 0.086745
H	 1.3484367001	-3.5423296576	 0.0519799805	 0.104997
H	-1.2280161936	-2.9725052849	-0.0439628218	 0.103898
H	-0.3853714451	-2.6881584329	 1.4667755192	 0.113234
H	-1.7476778559	-0.6073733893	 0.8934601728	 0.081085
111.7011	203.4734	275.1	333.0649	355.1997	421.0969	482.8271	524.5675	638.3333	688.1513	725.1275	783.4865	813.4191	877.5772	895.6428	910.1183	946.1497	966.7422	978.0893	1000.1903	1047.524	1067.1114	1091.0663	1106.8531	1143.9785	1154.7256	1169.1871	1235.2569	1274.0206	1283.0245	1300.5959	1344.3112	1352.245	1367.8563	1386.8816	1416.6657	1473.54	1476.5511	1497.3669	1675.621	1765.3379	2880.2798	2960.8915	2989.0736	3007.7827	3037.8857	3048.9269	3089.4872	3144.0365	3189.6774	3217.5961
C1C=CC2OCCC=C12	C1C=C[C@H]2OCCC=C12	
InChI=1S/C8H10O/c1-3-7-4-2-6-9-8(7)5-1/h1,4-5,8H,2-3,6H2	InChI=1S/C8H10O/c1-3-7-4-2-6-9-8(7)5-1/h1,4-5,8H,2-3,6H2/t8-/m1/s1
