21
gdb 74788	2.64154	1.65675	1.44313	0.4201	87.28	-0.2149	0.0149	0.2297	1037.9604	0.185548	-349.981276	-349.973713	-349.972769	-350.01277	31.318	
C	-0.0636458925	 1.5010125549	 0.0572242683	-0.505833
C	-0.0566712699	 0.0075330673	-0.0059742482	 0.352017
C	-0.051562131	-0.7749540334	-1.0891481408	-0.179899
C	 0.0670200966	-2.2422558646	-0.6720329472	-0.093461
C	-0.5958108693	-2.180492418	 0.7238796571	-0.217861
C	 0.0384692007	-0.8729104598	 1.2424024972	-0.105629
C	 1.5253919115	-1.1540995033	 1.5925046836	-0.255321
C	 2.1951191929	-2.0579530341	 0.5778147219	-0.042271
C	 1.5414779767	-2.5720143084	-0.4655215295	-0.060346
H	 0.8316886852	 1.8871993424	 0.5616502318	 0.12443
H	-0.1033054207	 1.9459815206	-0.9410704392	 0.121866
H	-0.9239167464	 1.8714999109	 0.6300673316	 0.121875
H	-0.0277966258	-0.4374401067	-2.1195775979	 0.083768
H	-0.4096386278	-2.9435540998	-1.3610888916	 0.057123
H	-1.6807624628	-2.0710973602	 0.6339589323	 0.089823
H	-0.3721593953	-3.0546522211	 1.3425253143	 0.089208
H	-0.4750266521	-0.4449658758	 2.1096602224	 0.054659
H	 2.0869356704	-0.2125717783	 1.6751664617	 0.101063
H	 1.5860192736	-1.6174362677	 2.5876834558	 0.103503
H	 3.2512410934	-2.268951476	 0.7292100563	 0.080572
H	 2.0487203029	-3.2045748489	-1.1884572998	 0.080714
145.7347	182.0233	224.901	316.9659	326.3425	423.2863	457.5556	480.5703	581.3174	615.7866	670.1282	731.8323	804.0477	827.2848	850.7795	856.3564	912.7263	925.0421	948.6486	974.8942	991.5513	1014.9	1021.9417	1037.6386	1068.1217	1073.9925	1134.0825	1155.7712	1191.4406	1205.0955	1256.6511	1271.8717	1294.2794	1309.4385	1326.7576	1344.1756	1371.6981	1400.1723	1413.3319	1466.5151	1479.4167	1487.9003	1494.2186	1700.5832	1706.1534	2999.5867	3012.059	3023.0471	3042.8341	3054.3199	3055.7708	3076.2663	3098.7634	3105.4025	3143.3808	3171.6948	3188.9782
CC1=CC2CC1CC=C2	CC1=C[C@@H]2C[C@H]1CC=C2	
InChI=1S/C9H12/c1-7-5-8-3-2-4-9(7)6-8/h2-3,5,8-9H,4,6H2,1H3	InChI=1S/C9H12/c1-7-5-8-3-2-4-9(7)6-8/h2-3,5,8-9H,4,6H2,1H3/t8-,9-/m1/s1
