21
gdb 68486	2.76863	1.66771	1.29775	0.964	77.73	-0.2371	0.0833	0.3204	1053.5125	0.18418	-424.224264	-424.21641	-424.215466	-424.255956	32.115	
C	-0.0579894388	 1.553017211	 0.009638338	-0.45687
C	 0.0371928734	 0.0404005884	-0.0245803239	 0.423848
C	 0.7231807681	-0.6021360782	-1.2583142207	-0.309725
C	-0.5449838699	-1.4704655543	-1.3165427577	 0.100217
C	-0.3804942013	-2.8508387789	-0.6892172756	-0.093992
O	 0.5129696676	-2.8666731064	 0.4099014469	-0.251467
C	 0.127184743	-2.0310774152	 1.4942906555	-0.073082
C	 0.5123748704	-0.5546215377	 1.3124546627	-0.256548
O	-1.2364226126	-0.567244681	-0.4152960234	-0.335018
H	 0.9128759393	 1.9943892167	 0.2609062417	 0.117312
H	-0.3775520418	 1.9428374884	-0.9607079905	 0.117811
H	-0.7832260292	 1.873711445	 0.7649094279	 0.124013
H	 0.8073389713	 0.0912472127	-2.0969810306	 0.099104
H	 1.6682252099	-1.1197299787	-1.0941743275	 0.114154
H	-1.0673338188	-1.5507666936	-2.2771492233	 0.073982
H	-1.3745103389	-3.2194650632	-0.3870218118	 0.098294
H	 0.0368087593	-3.5478813797	-1.4250997738	 0.104257
H	-0.956655298	-2.1062007167	 1.6551517111	 0.103634
H	 0.6323940445	-2.432212881	 2.379054727	 0.100217
H	 1.6004405869	-0.4345843319	 1.383663369	 0.103588
H	 0.0738995156	 0.0068671442	 2.1475672088	 0.096272
181.6827	207.0888	235.3465	261.2399	325.2716	370.7664	387.1269	407.7762	425.6714	582.468	594.2341	675.3497	801.775	835.1987	843.9615	870.2481	914.551	928.1208	938.8589	984.6972	1004.7094	1037.8145	1044.3711	1068.4611	1103.6416	1151.2893	1163.8024	1199.4439	1241.9555	1255.7643	1259.3975	1302.927	1310.4209	1339.5384	1358.5049	1378.1872	1392.2759	1406.6184	1421.042	1468.2173	1473.2935	1481.8444	1485.5357	1494.0097	1496.2796	2976.6613	3013.3702	3021.8627	3032.7887	3038.2025	3062.6089	3067.1136	3078.7426	3081.5148	3102.0618	3114.5427	3145.4408
CC12CC(COCC1)O2	C[C@@]12C[C@@H](COCC1)O2	
InChI=1S/C7H12O2/c1-7-2-3-8-5-6(4-7)9-7/h6H,2-5H2,1H3	InChI=1S/C7H12O2/c1-7-2-3-8-5-6(4-7)9-7/h6H,2-5H2,1H3/t6-,7-/m0/s1
