14
gdb 50272	2.42973	1.39238	1.03297	4.4852	68.07	-0.2637	-0.0493	0.2145	1121.6102	0.09937	-436.657135	-436.649208	-436.648264	-436.690383	28.379	
O	-0.0407969064	-0.0883364733	-0.1819415261	-0.242997
C	 0.0403662984	 1.0518332873	 0.1951764637	 0.15715
C	 1.2830829566	 1.8977780659	 0.0369260982	-0.17618
C	 1.1677592821	 3.1733239998	-0.8897939101	-0.271375
C	 1.4978714146	 4.0473297294	 0.3237337813	-0.038962
O	 0.5132102997	 3.7843563681	 1.3211409693	-0.261474
C	 1.6045489516	 2.8628020172	 1.2069345644	 0.299741
C	 2.4174593944	 2.6106399598	 2.3549622733	 0.212315
N	 3.0927126785	 2.3701758635	 3.2621893808	-0.326362
H	-0.8143871384	 1.5727530738	 0.6755298375	 0.105504
H	 2.1287456387	 1.2670040899	-0.2389551105	 0.123934
H	 1.9387599951	 3.1769377669	-1.6612991676	 0.139332
H	 0.1921301624	 3.3691353284	-1.339434174	 0.137167
H	 2.0151371926	 4.9974149833	 0.3759901997	 0.142208
59.5941	126.8984	165.3591	170.4808	287.2636	381.7106	427.0781	476.101	545.0529	573.4118	616.8724	754.953	832.9234	879.2958	915.0434	934.9859	990.451	1018.869	1069.1085	1103.303	1134.3102	1166.2564	1206.6116	1251.946	1264.5397	1296.6304	1402.1839	1429.5401	1474.406	1828.4777	2359.4764	2919.0331	3082.7802	3120.2771	3146.0663	3207.0199
O=CC1CC2OC12C#N	O=C[C@H]1C[C@H]2O[C@@]12C#N	
InChI=1S/C6H5NO2/c7-3-6-4(2-8)1-5(6)9-6/h2,4-5H,1H2	InChI=1S/C6H5NO2/c7-3-6-4(2-8)1-5(6)9-6/h2,4-5H,1H2/t4-,5-,6+/m1/s1
