17
gdb 12383	3.01143	2.17827	1.3456	1.7583	65.26	-0.2646	0.0126	0.2772	907.0988	0.143706	-401.014404	-401.006931	-401.005987	-401.046273	27.886	
C	-0.0076144401	 1.5633201914	-0.0429432018	-0.39698
C	 0.083806533	 0.039319098	 0.0184413519	-0.065651
C	 0.7480819001	-0.5567988551	-1.2301077804	-0.107118
O	 0.8808444389	-1.9654947901	-1.0894162548	-0.219982
C	 1.7018549965	-2.262406298	-0.0138460527	 0.008148
O	 1.205542839	-1.7685994067	 1.2330032445	-0.255402
C	 0.7809102921	-0.464183269	 1.271019929	 0.378742
N	 0.8753493942	 0.2336995011	 2.3208974493	-0.502967
H	 0.9880270764	 2.0145779574	-0.0950086336	 0.122939
H	-0.5748310663	 1.8757526105	-0.9258362978	 0.10831
H	-0.4974829997	 1.9545547672	 0.8491914346	 0.149453
H	-0.9290916468	-0.3858211899	 0.0593487498	 0.115599
H	 0.1385560953	-0.3824299355	-2.119623903	 0.120661
H	 1.7385159675	-0.1001330983	-1.3949940327	 0.098918
H	 1.7466582654	-3.3474968324	 0.0894723942	 0.129377
H	 2.7131933791	-1.8478079526	-0.1668237315	 0.094592
H	 1.3414090052	-0.3031193378	 3.0555408249	 0.221361
80.9822	155.3838	195.9569	286.9096	332.957	376.898	430.8073	463.9594	537.8665	622.2856	727.4625	780.4448	903.1479	927.634	948.9062	974.3892	1000.4009	1055.5853	1086.8715	1127.8924	1151.3227	1173.2819	1199.8972	1258.7923	1294.7951	1314.6656	1331.6974	1362.0962	1405.9566	1419.2141	1455.9817	1488.7018	1498.1682	1502.3318	1521.2457	1751.3955	2956.0698	2971.2983	3015.5884	3043.5428	3103.1628	3108.8199	3124.0558	3147.4454	3463.1603
CC1COCOC1=N	C[C@H]1COCO[C]1[NH]	
InChI=1S/C5H9NO2/c1-4-2-7-3-8-5(4)6/h4,6H,2-3H2,1H3	InChI=1S/C5H9NO2/c1-4-2-7-3-8-5(4)6/h4,6H,2-3H2,1H3/t4-/m0/s1
