21
gdb 81342	2.66567	1.36751	1.11993	1.904	85.19	-0.2141	0.0189	0.233	1217.5289	0.181286	-387.062293	-387.053162	-387.052218	-387.095623	34.828	
C	-0.1255875101	 1.4986850362	-0.0231986836	-0.425679
C	-0.0145881565	-0.0178148371	-0.0060648817	 0.035518
C	 1.2670926699	-0.6358389018	-0.6639693801	-0.043541
O	 2.00938861	-0.2469915862	 0.5404292191	-0.288758
C	 0.7622793662	-0.6517426549	 1.1989706097	-0.043542
C	 0.6968950884	-2.1553961404	 0.8633487417	 0.239555
C	 0.3277540485	-3.2493483611	 1.803033742	-0.520591
C	 1.0477047204	-2.1443459292	-0.4312282546	 0.239557
C	 1.2081862412	-3.2216111649	-1.4459940651	-0.520591
H	 0.8302877873	 1.9571503888	 0.2397790011	 0.135438
H	-0.4228088885	 1.8563400396	-1.0153754507	 0.111906
H	-0.8846523081	 1.8417913087	 0.6886791292	 0.111905
H	-0.9607838041	-0.5013851443	-0.2665891426	 0.065292
H	 1.7018750287	-0.2824318059	-1.6002049928	 0.06932
H	 0.6634042756	-0.3151488672	 2.2321199388	 0.06932
H	-0.6820192707	-3.107783857	 2.2100810676	 0.126037
H	 0.3541334853	-4.2279501505	 1.3146887586	 0.124905
H	 1.008786338	-3.2851087141	 2.6631507307	 0.131502
H	 0.9888341811	-4.2079833062	-1.0267176468	 0.124906
H	 0.5412984893	-3.0693566255	-2.3047440828	 0.126038
H	 2.230382428	-3.2464817268	-1.8452183474	 0.1315
147.5408	154.0989	168.2121	175.2937	224.9911	229.9397	250.5745	312.2028	379.2619	492.1777	584.4506	599.7207	615.4057	752.9194	787.4436	827.7821	846.1152	870.7109	912.0885	945.2238	1034.5869	1037.4276	1039.6647	1070.519	1071.1683	1118.3086	1130.7084	1164.3882	1192.4334	1197.0076	1231.3084	1238.6501	1297.328	1329.4051	1372.5878	1401.2952	1411.6564	1420.2363	1478.1456	1478.6793	1487.2204	1489.5297	1491.9513	1504.3025	1732.2424	3011.7895	3013.1593	3031.5769	3056.263	3056.4961	3063.3454	3088.7527	3099.9324	3102.3033	3110.4163	3113.9376	3130.4537
CC1C2OC1C(C)=C2C	C[C@H]1[C@H]2O[C@@H]1C(=C2C)C	
InChI=1S/C8H12O/c1-4-5(2)8-6(3)7(4)9-8/h6-8H,1-3H3	InChI=1S/C8H12O/c1-4-5(2)8-6(3)7(4)9-8/h6-8H,1-3H3/t6-,7-,8+
