22
gdb 59714	3.00401	1.21113	0.97246	2.0141	81.42	-0.2306	0.0718	0.3024	1282.9483	0.195474	-404.340012	-404.331078	-404.330134	-404.373472	34.933	
C	 0.0750528924	 1.5239116083	-0.0113875939	-0.410118
C	-0.0031328137	-0.0015552858	 0.0418817223	 0.130501
O	 0.7013881653	-0.5063209368	 1.1793186707	-0.440189
C	-1.4385985528	-0.5406235999	 0.0133698392	 0.019099
C	-2.2559541195	-0.1420115248	-1.2455890797	-0.242467
C	-3.2862136408	-1.2777916307	-1.4599608338	-0.216445
C	-2.6099892263	-2.5024312742	-0.8713135024	-0.033981
N	-1.2027918488	-2.6448514004	-1.3103901265	-0.342434
C	-1.5098323529	-2.0608907305	 0.0169309224	-0.037504
H	 1.1170519515	 1.8488717791	 0.0550052398	 0.121683
H	-0.3523602664	 1.9186066164	-0.9378898838	 0.121815
H	-0.4763982169	 1.9712195179	 0.8264621659	 0.100335
H	 0.5280645846	-0.4263807043	-0.8178186891	 0.103169
H	 0.3258532014	-0.085987118	 1.9611790282	 0.271281
H	-1.9570933973	-0.180053524	 0.9163659041	 0.05188
H	-2.7313678432	 0.8363200787	-1.1426746948	 0.093031
H	-1.584907078	-0.0937493412	-2.1074121394	 0.119665
H	-4.2110975284	-1.0802897497	-0.9041205978	 0.095092
H	-3.5543960085	-1.3999552876	-2.5142182119	 0.101347
H	-3.1867091697	-3.3992262206	-0.6670456917	 0.079537
H	-0.9098704674	-3.6101652918	-1.1842574027	 0.229124
H	-1.2218717046	-2.6094653502	 0.9060504647	 0.08558
84.9448	116.7946	165.9413	240.7738	265.4134	286.9697	338.559	372.6455	399.0622	463.9128	527.9113	633.0604	659.9491	799.2146	827.4432	861.6539	868.7786	904.2877	917.2381	937.1509	964.7771	988.3684	1003.6997	1047.8394	1074.9151	1077.9121	1108.4566	1127.1509	1158.7529	1170.8572	1193.8717	1232.0926	1247.2318	1267.9754	1304.9533	1319.3863	1335.8738	1342.9581	1368.5482	1395.3523	1401.8332	1423.3717	1426.5029	1481.3799	1491.5607	1494.3897	1497.1597	2976.776	3018.7936	3032.6719	3052.6278	3062.991	3079.0751	3093.7209	3109.6842	3118.8236	3156.5177	3182.4733	3506.2559	3793.6625
CC(O)C1CCC2NC12	C[C@@H](O)[C@H]1CC[C@H]2N[C@@H]12	
InChI=1S/C7H13NO/c1-4(9)5-2-3-6-7(5)8-6/h4-9H,2-3H2,1H3	InChI=1S/C7H13NO/c1-4(9)5-2-3-6-7(5)8-6/h4-9H,2-3H2,1H3/t4-,5-,6-,7+/m1/s1
