19
gdb 62075	4.66643	0.63543	0.61819	3.0607	73.78	-0.2671	-0.039	0.228	1797.2008	0.15663	-460.145914	-460.136263	-460.135319	-460.181794	34.065	
O	-0.2307511589	 1.3898426871	-0.0837124822	-0.432228
C	 0.0044524386	 0.010314929	-0.0072652694	 0.045673
C	 0.6122510713	-0.5365348046	-1.3117526752	-0.202281
C	-0.2868379082	-0.2621905483	-2.5238265436	-0.223093
C	 0.3196286733	-0.7749091742	-3.8066699387	 0.092984
C	 0.2163991194	-0.0420512481	-5.0741509353	-0.179328
O	 1.4319850118	-0.0373174105	-4.3238621272	-0.234969
C	 0.9087257006	-0.3047948634	 1.1662061642	 0.137505
O	 1.3446551881	 0.5613933923	 1.885410407	-0.259237
H	 0.2735577172	 1.7821492757	 0.6466642262	 0.295523
H	-0.9454253691	-0.527048703	 0.1788452179	 0.090111
H	 1.5876340741	-0.0646049412	-1.4758863474	 0.129642
H	 0.7828274306	-1.6162207765	-1.2026625287	 0.094442
H	-1.2664473205	-0.7374230091	-2.3771123848	 0.09855
H	-0.4558170779	 0.8155315806	-2.6027749303	 0.131218
H	 0.4540572094	-1.8579060877	-3.8617352938	 0.087501
H	 0.2512781053	-0.5815062548	-6.0197735468	 0.114124
H	-0.3194026627	 0.9060316507	-5.1002674912	 0.116007
H	 1.1538186976	-1.375004364	 1.3259534993	 0.097858
49.7392	66.2225	94.06	120.7935	175.4337	255.8193	292.8913	335.1232	395.292	437.7443	452.6085	522.8323	745.5329	770.5651	808.9169	841.6636	876.1306	936.3207	948.4762	981.2537	1041.6522	1068.175	1097.0379	1127.8647	1159.6696	1169.9259	1179.4067	1221.8554	1249.0552	1288.5573	1299.188	1322.9131	1353.2876	1378.6363	1404.6369	1437.3068	1447.8215	1471.114	1488.2445	1530.7925	1813.9693	2918.8887	2935.1948	3018.8887	3022.7014	3073.5299	3077.8116	3083.4651	3104.2896	3168.8623	3690.6755
OC(CCC1CO1)C=O	O[C@@H](CC[C@H]1CO1)C=O	
InChI=1S/C6H10O3/c7-3-5(8)1-2-6-4-9-6/h3,5-6,8H,1-2,4H2	InChI=1S/C6H10O3/c7-3-5(8)1-2-6-4-9-6/h3,5-6,8H,1-2,4H2/t5-,6-/m0/s1
