18
gdb 14182	2.69337	2.28948	2.16482	1.1087	72.13	-0.2518	0.0799	0.3317	796.2461	0.153411	-347.737598	-347.730334	-347.72939	-347.768388	29.148	
C	-0.0338422553	 1.469910376	-0.0220663246	-0.52248
C	 0.0181472964	-0.0324386122	-0.0645980273	 0.323073
C	 0.5719405248	-0.9530308849	-1.1778988722	-0.3144
C	 0.070712636	-1.9346368685	-0.1024120692	-0.111943
C	 0.5189021152	-1.0047280926	 1.0708459431	-0.082214
C	-0.8612768675	-1.0487665093	 1.7621969189	-0.335866
C	-1.1593743111	-1.0167156865	 0.2493781487	 0.3778
O	-2.3745612097	-0.9398262942	-0.406091235	-0.478915
H	 0.9690421292	 1.9023816424	-0.1087764991	 0.116782
H	-0.640399857	 1.8612065729	-0.8459814504	 0.127691
H	-0.4738973418	 1.8281119162	 0.9151446535	 0.119045
H	 0.0307746201	-0.9467931591	-2.1288978771	 0.097371
H	 1.653242824	-0.9187485861	-1.3490022524	 0.084428
H	 0.0891831541	-3.0258696564	-0.0904811614	 0.062978
H	 1.5077722797	-0.9939575778	 1.5251292455	 0.075061
H	-1.1090664467	-1.9718479478	 2.2979783332	 0.084097
H	-1.155999432	-0.1718998878	 2.3474316384	 0.094632
H	-2.8831789887	-1.7327887944	-0.2047191125	 0.28286
189.8331	205.6067	246.3368	258.8694	311.6512	398.6319	451.3633	468.7676	644.241	651.9877	699.1798	775.7818	862.6326	872.3671	901.1296	922.349	944.1714	982.6728	995.6248	1020.8536	1052.2828	1084.1961	1117.4581	1136.0216	1161.2702	1163.9121	1190.6232	1214.7658	1232.4225	1271.5245	1278.6796	1320.1327	1386.4809	1411.9671	1486.1964	1493.6186	1506.4224	1512.2155	3026.9913	3033.768	3038.4578	3091.3484	3093.0715	3096.1447	3096.8197	3097.5292	3136.9514	3804.3984
CC12CC3C1CC23O	C[C@@]12C[C@H]3[C@@H]1C[C@@]23O	
InChI=1S/C7H10O/c1-6-2-5-4(6)3-7(5,6)8/h4-5,8H,2-3H2,1H3	InChI=1S/C7H10O/c1-6-2-5-4(6)3-7(5,6)8/h4-5,8H,2-3H2,1H3/t4-,5-,6+,7-/m0/s1
