20
gdb 101299	2.46343	1.06808	0.88737	3.0872	77.96	-0.2494	-0.0378	0.2116	1373.3336	0.168443	-440.256971	-440.247068	-440.246124	-440.292344	35.798	
C	-1.1766081682	 1.3740788586	-2.3826131179	-0.382797
C	-0.5055436112	 0.1594149195	-1.739129068	 0.017009
C	 0.7237927486	 0.5527022272	-0.9086601341	-0.057007
O	 0.3910462922	 1.4365827467	 0.1418921881	-0.419062
N	-1.4692541172	-0.460581497	-0.8108524866	-0.090076
C	-2.4815375714	-1.3439159776	-1.3210647479	-0.253248
C	-1.3886467627	-1.885313246	-0.4359676804	-0.096387
C	-0.4113875305	-2.8343820985	-1.0330634002	 0.155619
O	 0.0505459489	-3.7701459385	-0.4279119222	-0.260735
H	-0.4995978861	 1.8379745171	-3.1060680922	 0.119471
H	-2.0914305743	 1.0861743297	-2.9090228137	 0.113253
H	-1.4271073904	 2.1142068276	-1.6197186837	 0.138653
H	-0.1855203135	-0.529537794	-2.5354740117	 0.068232
H	 1.2108946231	-0.3596671938	-0.5252627481	 0.09146
H	 1.4498155007	 1.0684707959	-1.5457771514	 0.10948
H	-0.3878386618	 1.0577878539	 0.5689486668	 0.289938
H	-3.4837463224	-1.240502444	-0.9140500477	 0.135235
H	-2.4395888431	-1.617907057	-2.3759344777	 0.122808
H	-1.604034886	-2.0919872361	 0.6089633778	 0.117341
H	-0.1408263446	-2.6472164537	-2.0948137091	 0.080815
45.4886	95.8738	119.8279	179.2468	208.5699	214.4273	276.5579	314.6577	335.2048	393.4293	428.183	445.7797	576.2099	632.4618	731.3838	856.3892	864.2549	914.0763	939.7723	972.9994	1006.5173	1026.359	1069.6111	1090.2956	1114.9085	1134.391	1145.9592	1156.1197	1184.3324	1242.6028	1305.7852	1331.5724	1338.9189	1359.5251	1388.0391	1411.445	1438.0258	1442.9221	1487.6636	1497.0177	1501.2848	1507.6726	1812.7325	2887.0752	2963.3268	2988.9719	3046.3381	3074.7151	3083.0015	3113.5033	3137.3442	3152.987	3179.1381	3772.8595
CC(CO)N1CC1C=O	C[C@@H](CO)N1C[C@H]1C=O	
InChI=1S/C6H11NO2/c1-5(3-8)7-2-6(7)4-9/h4-6,8H,2-3H2,1H3	InChI=1S/C6H11NO2/c1-5(3-8)7-2-6(7)4-9/h4-6,8H,2-3H2,1H3/t5-,6-,7?/m0/s1
