16
gdb 126414	4.79192	1.04704	0.86841	2.3368	75.3	-0.2467	-0.0799	0.1668	1292.6636	0.125531	-434.104724	-434.096716	-434.095771	-434.137773	29.501	
C	-0.0842527465	 1.5567118747	 0.1401858116	-0.376585
C	 0.0154743249	 0.0417721889	-0.0241339325	-0.256625
C	 0.7236308154	-0.4214776922	-1.2684096981	 0.380997
N	 1.1940839665	 0.4562791085	-2.105011406	-0.234433
N	 1.8152232419	-0.031735945	-3.1950880123	-0.262206
C	 2.0067767521	-1.3658957735	-3.5207938359	 0.406943
O	 2.5813109388	-1.72810052	-4.5299242648	-0.380635
C	 1.4237781105	-2.232940744	-2.4857452446	-0.084455
N	 0.8230568574	-1.794057408	-1.4311742	-0.246999
H	 0.9064367562	 2.0175662402	 0.1757732827	 0.12849
H	-0.6255243274	 2.0110499741	-0.6939043452	 0.128515
H	-0.6112433164	 1.8006175503	 1.066687607	 0.112877
H	 0.5305791225	-0.4090031175	 0.8340040985	 0.12863
H	-0.9824922687	-0.415404155	-0.0247645583	 0.128619
H	 2.175187984	 0.6646434213	-3.8354470449	 0.279933
H	 1.5170197487	-3.3066748528	-2.6404797873	 0.146934
63.8423	104.7178	190.0273	227.8643	319.5689	380.008	393.7991	467.2479	518.3411	532.7963	628.3884	729.688	752.5879	762.0853	817.2624	828.0441	973.9681	991.991	1004.734	1083.7695	1110.1861	1213.4417	1225.9389	1280.5794	1297.2361	1364.4873	1395.851	1417.6676	1436.3	1469.2606	1493.8794	1502.5212	1563.5184	1648.6325	1796.0326	3028.2443	3049.9362	3051.8104	3121.4633	3123.9878	3154.2066	3585.7496
CCC1=NNC(=O)C=N1	CCc1n[nH]c(=O)cn1	
InChI=1S/C5H7N3O/c1-2-4-6-3-5(9)8-7-4/h3H,2H2,1H3,(H,8,9)	InChI=1S/C5H7N3O/c1-2-4-6-3-5(9)8-7-4/h3H,2H2,1H3,(H,8,9)
