21
gdb 99602	2.18493	1.26221	0.99335	0.9773	84.42	-0.2501	0.0442	0.2943	1317.825	0.179526	-387.046487	-387.03629	-387.035346	-387.081368	38.517	
C	-0.1501860426	 1.5930433603	-0.1131175805	-0.395873
C	-0.1558678793	 0.0671655676	-0.20934311	-0.167683
C	 0.8084476279	-0.4949879698	-1.2806257987	-0.222372
C	 2.1994135934	-0.1206296476	-1.010777433	 0.313755
C	 3.3481822348	 0.1277120313	-0.75183502	-0.465846
C	 0.7165607597	-2.0217717995	-1.3728097415	 0.438131
O	 1.0944431602	-2.6842013777	-0.1978822147	-0.473183
C	-0.4169609033	-2.6586531209	-2.1103907691	-0.316063
C	 0.9896958872	-2.7112279191	-2.6839521986	-0.327816
H	 0.844367018	 1.9691735157	 0.144498684	 0.129541
H	-0.4453358401	 2.0540793655	-1.0627618267	 0.110294
H	-0.8505634281	 1.936589735	 0.654186168	 0.113665
H	 0.1074883967	-0.3802079126	 0.7538387934	 0.116284
H	-1.162167041	-0.2905026933	-0.455667652	 0.100143
H	 0.5219236617	-0.0810960378	-2.2571652797	 0.098606
H	 4.3599912774	 0.375785359	-0.5450231574	 0.197593
H	 2.0214062561	-2.4644451831	-0.0376669278	 0.28484
H	-0.8180799093	-3.5708990302	-1.6846851713	 0.125619
H	-1.1489008125	-2.0199899679	-2.5934414758	 0.111925
H	 1.2164119562	-2.1095434312	-3.5577319046	 0.111896
H	 1.5083057766	-3.6616975139	-2.633975054	 0.116545
75.3327	96.9689	130.2693	164.4314	181.1063	257.4577	300.6339	325.68	339.8939	396.1112	407.0324	500.0355	539.8019	560.1043	630.0928	648.28	761.7797	774.8305	814.2796	857.9822	902.5411	941.1406	947.1164	973.5611	987.7334	1048.2856	1056.9662	1078.3854	1119.4047	1123.257	1187.0147	1224.6996	1269.4927	1285.1205	1305.3246	1343.4729	1361.7061	1409.6314	1414.2701	1454.8081	1489.8552	1498.7507	1505.1101	1508.6747	2223.6309	3014.5287	3032.7503	3043.6421	3084.1645	3103.7461	3114.6987	3132.9767	3137.1295	3218.9004	3232.4706	3501.6518	3764.0889
CCC(C#C)C1(O)CC1	CC[C@@H](C#C)C1(O)CC1	
InChI=1S/C8H12O/c1-3-7(4-2)8(9)5-6-8/h1,7,9H,4-6H2,2H3	InChI=1S/C8H12O/c1-3-7(4-2)8(9)5-6-8/h1,7,9H,4-6H2,2H3/t7-/m1/s1
