21
gdb 37847	2.48697	2.48335	1.9076	0.1932	83.71	-0.267	0.0887	0.3557	858.2247	0.188646	-349.940969	-349.935316	-349.934371	-349.970443	26.578	
C	-0.0376334952	 1.5607586613	 0.0023072089	-0.229598
C	 1.5069902591	 1.4349111343	-0.0056587478	-0.03578
C	 2.0318611329	 0.8792625908	 1.3773686829	-0.035777
C	 0.8528385155	 0.6180680746	 2.3486807887	-0.229598
C	 0.5020181285	-0.5445847292	 1.3859116404	-0.035777
C	-0.0228574198	 0.0110678456	 0.0028826688	-0.03578
C	 1.3025378855	 0.1157737243	-0.8371669511	-0.001835
C	 2.2818411107	-0.9335064307	-0.3485415442	-0.259328
C	 2.0478422561	-0.6732287069	 1.1266800496	-0.00184
H	-0.5385388814	 2.1037775472	 0.8060811064	 0.089524
H	-0.4005678927	 1.9449715807	-0.9556191066	 0.088342
H	 2.1154633353	 2.2488294089	-0.4038105239	 0.053296
H	 2.9276942444	 1.3889722151	 1.7364041459	 0.053295
H	 1.2167016136	 0.2328561855	 3.3058536754	 0.088342
H	 0.1219717168	 1.4045301101	 2.5465170342	 0.089524
H	-0.0684220756	-1.399554942	 1.7531324093	 0.053295
H	-0.8806595967	-0.5396926765	-0.3870733806	 0.053295
H	 1.1693790963	 0.2524048444	-1.9109987511	 0.057048
H	 2.0112180408	-1.9508693689	-0.6545748105	 0.091151
H	 3.3141321759	-0.7382603281	-0.6618642477	 0.091151
H	 2.6003414699	-1.2624581507	 1.8595285329	 0.057048
371.6682	375.3282	468.7542	479.2538	554.3186	622.1768	699.2536	753.773	764.8297	781.6904	830.6892	841.7708	862.5578	868.239	917.9007	919.4586	935.3524	983.4755	994.639	1008.8283	1015.5228	1019.7357	1069.2254	1071.4866	1078.7815	1087.698	1089.7409	1116.3843	1163.3998	1193.5305	1233.0694	1237.8967	1238.1181	1244.2643	1252.381	1265.1536	1270.2479	1298.4405	1308.8463	1320.9873	1348.9793	1352.0897	1481.5583	1491.9641	1534.2967	3030.8848	3051.2896	3059.1231	3075.0673	3077.7425	3078.7461	3093.0955	3093.1283	3097.4949	3106.9583	3110.8419	3113.7738
C1C2C3CC4C1C2CC34	C1[C@H]2[C@H]3C[C@H]4[C@@H]1[C@@H]2C[C@@H]34	
InChI=1S/C9H12/c1-4-6-2-7-5(1)8(4)3-9(6)7/h4-9H,1-3H2	InChI=1S/C9H12/c1-4-6-2-7-5(1)8(4)3-9(6)7/h4-9H,1-3H2/t4-,5+,6+,7-,8+,9-
