15
gdb 64901	2.09062	1.71563	1.08529	6.2056	71.18	-0.3179	-0.0259	0.292	1102.9201	0.109409	-416.811966	-416.802583	-416.801638	-416.846041	33.038	
C	-0.0354385775	 1.5351710295	-0.1125888459	-0.474414
C	-0.0385873273	 0.0325382753	 0.0690953545	 0.183219
O	 1.1990073373	-0.6610328316	-0.1162256755	-0.273467
C	 0.6480879313	-0.6636187755	 1.2041994164	 0.183208
C	 1.4161440663	 0.0635606499	 2.2868849397	-0.474407
C	 0.1213607727	-1.9517329384	 1.6359511975	 0.284487
N	-0.2748927836	-2.9613414127	 2.0333597654	-0.322584
C	-1.1925571403	-0.619704889	-0.5359098189	 0.284478
N	-2.1283260368	-1.0823122996	-1.0304709785	-0.322586
H	 0.8577187069	 1.9830883602	 0.3215058649	 0.145828
H	-0.0556531648	 1.7700599134	-1.1802937642	 0.163639
H	-0.9236254053	 1.9742492271	 0.350068416	 0.156573
H	 1.8228323066	 1.0044372459	 1.9178972707	 0.145813
H	 0.7669916972	 0.2599134829	 3.144651309	 0.156575
H	 2.2463649573	-0.5631122774	 2.6239185688	 0.163639
111.9863	112.7388	140.0717	154.3193	192.7734	203.272	291.3712	329.6689	379.162	416.58	490.5381	573.837	599.5292	631.4353	646.1172	704.417	874.4417	879.7152	980.9614	1073.481	1102.7482	1118.3757	1194.2651	1234.4388	1394.0143	1406.917	1421.2142	1469.8156	1479.4429	1486.5755	1505.0307	2363.1264	2363.2689	3057.7876	3060.944	3127.0682	3127.7991	3156.8191	3168.7283
CC1(OC1(C)C#N)C#N	C[C@]1(O[C@]1(C)C#N)C#N	
InChI=1S/C6H6N2O/c1-5(3-7)6(2,4-8)9-5/h1-2H3	InChI=1S/C6H6N2O/c1-5(3-7)6(2,4-8)9-5/h1-2H3/t5-,6+
