23
gdb 118505	2.2504	0.97349	0.72146	1.6346	83.33	-0.2499	0.0802	0.3301	1632.9352	0.203672	-425.393385	-425.382497	-425.381552	-425.430162	38.567	
C	-0.0411407295	 1.2987038431	-0.1405836102	-0.226536
O	 0.0078625876	-0.0992835912	 0.0017275175	-0.235359
C	-1.2708039246	-0.7005582289	-0.0181239192	-0.06957
C	-1.1262836127	-2.2149113135	 0.1455090981	-0.022817
C	-0.4653561886	-2.5514153615	 1.4845441213	-0.080056
O	-0.1592417154	-3.938989778	 1.5033943032	-0.423579
C	-2.4753449207	-2.8889177704	-0.0218144714	 0.036595
C	-3.0093928982	-3.2003157825	-1.4012395884	-0.282812
C	-2.5745212567	-4.3164721049	-0.4860250044	-0.260664
H	 0.9871650895	 1.6682234431	-0.1185916775	 0.125548
H	-0.5051994578	 1.5968685841	-1.0944700864	 0.103132
H	-0.6074127299	 1.7748020692	 0.6762284179	 0.101695
H	-1.8991277532	-0.2859480717	 0.7914575552	 0.079178
H	-1.7845677111	-0.4793920977	-0.9676205142	 0.091728
H	-0.4531806086	-2.5702988711	-0.6457508051	 0.085608
H	 0.4394517357	-1.9400604571	 1.5963089704	 0.102699
H	-1.1530303985	-2.2854283707	 2.3063999073	 0.073676
H	 0.3238361744	-4.1254106959	 2.3132084821	 0.284584
H	-3.2168057879	-2.5773933042	 0.7120032922	 0.073314
H	-4.0689073717	-3.0652921204	-1.5893482533	 0.105866
H	-2.3765063928	-2.9664873174	-2.2517865306	 0.108355
H	-1.6475970943	-4.8317598757	-0.7074040887	 0.123955
H	-3.337632215	-4.9469155466	-0.0431228658	 0.10546
64.3675	78.7678	92.5926	110.6727	139.0274	201.9344	226.7582	247.5209	254.7943	327.2752	363.0673	390.1124	461.7342	582.0291	763.4227	816.2193	831.6761	892.26	926.7002	956.0283	993.1891	1004.1459	1058.3247	1069.1187	1076.3117	1105.4937	1125.3733	1137.5743	1162.0422	1179.0602	1192.1985	1197.7387	1226.8344	1232.2991	1238.0417	1260.9025	1278.0497	1312.9377	1342.8709	1410.525	1430.8524	1456.811	1474.1739	1480.5292	1485.0708	1502.7814	1508.9103	1524.1276	1527.425	2935.9531	2950.6557	2966.7478	2985.1555	3008.6938	3027.6381	3038.4772	3111.2075	3116.9379	3127.0563	3142.0306	3206.8405	3229.4008	3834.2296
COCC(CO)C1CC1	COC[C@@H](CO)C1CC1	
InChI=1S/C7H14O2/c1-9-5-7(4-8)6-2-3-6/h6-8H,2-5H2,1H3	InChI=1S/C7H14O2/c1-9-5-7(4-8)6-2-3-6/h6-8H,2-5H2,1H3/t7-/m1/s1
