18
gdb 34415	2.33725	1.70766	1.29893	4.2981	75.36	-0.2405	0.0248	0.2653	1031.6316	0.151103	-398.116223	-398.108544	-398.107599	-398.148477	29.748	
N	-0.0541706684	-1.1099638952	 0.1328131014	-0.347079
C	-0.0753183413	 0.0456213307	 0.1069181356	 0.274546
C	-0.0615678211	 1.5040332164	 0.050863712	 0.1321
C	-0.2767302993	 2.1632695182	-1.3359103672	-0.230338
N	 0.8314123197	 3.0988335618	-1.0378193918	-0.327533
C	 1.3382607242	 2.2248484257	 0.0567844305	-0.010698
C	 1.4709573671	 2.8951884022	 1.4324148791	-0.224116
C	 0.1791301193	 2.4538261668	 2.1772630019	-0.178496
N	-0.8203983358	 2.1014340395	 1.1517057318	-0.332639
H	-0.0820279195	 1.4573249863	-2.1515536164	 0.120482
H	-1.25366518	 2.6330100434	-1.4978445313	 0.115918
H	 1.4797309138	 3.2480153824	-1.8021092526	 0.228048
H	 2.186453033	 1.5918539429	-0.2210665609	 0.086262
H	 2.3761787114	 2.5896272135	 1.9641332717	 0.10575
H	 1.499397222	 3.9795496066	 1.2981038777	 0.114616
H	 0.3812860132	 1.5641049916	 2.7845177851	 0.125825
H	-0.2268737389	 3.2177768307	 2.8439214999	 0.112312
H	-1.2583881294	 2.9499868267	 0.8086254534	 0.235041
108.9742	136.5053	158.0578	233.0338	366.3661	377.4844	519.245	540.0924	578.33	616.8685	648.1736	729.134	790.8349	834.2066	871.8488	912.731	923.7298	957.2804	1015.7357	1029.7829	1036.4222	1061.8236	1089.8721	1133.1177	1146.3541	1180.6332	1209.9767	1234.4858	1269.7977	1312.9265	1317.4963	1356.2593	1360.2748	1382.7753	1469.441	1481.7269	1504.6547	1520.8947	2354.047	3023.662	3043.3937	3055.9142	3066.0287	3070.1893	3104.5824	3118.725	3528.4501	3544.0869
N#CC12CNC1CCN2	N#C[C@]12CN[C@H]1CCN2	
InChI=1S/C6H9N3/c7-3-6-4-8-5(6)1-2-9-6/h5,8-9H,1-2,4H2	InChI=1S/C6H9N3/c7-3-6-4-8-5(6)1-2-9-6/h5,8-9H,1-2,4H2/t5-,6-/m0/s1
