17
gdb 29731	3.34191	1.3242	0.95633	2.6842	89.49	-0.1763	0.0113	0.1875	1191.1018	0.135841	-380.876122	-380.866963	-380.866019	-380.909754	34.025	
C	-0.0623355577	 1.4158019272	 0.0322459621	-0.353403
N	-0.0094616178	-0.0305060715	 0.0129822291	-0.0967
C	 0.0044073276	-0.8026113561	-1.1157631038	 0.288682
N	-0.0913143893	-0.1978530954	-2.3778070516	-0.616614
C	 0.0262015747	-2.1356112391	-0.7424536476	-0.212214
C	 0.0306739484	-2.1715095489	 0.6699996455	-0.254131
C	 0.0220431651	-0.8661852293	 1.132520922	 0.158143
C	 0.036788678	-0.3604071628	 2.4430400511	 0.259731
C	 0.044832091	 0.0819544266	 3.5665961496	-0.480127
H	 0.9283402645	 1.8639458439	-0.1156531871	 0.127714
H	-0.7283167615	 1.7643732333	-0.7610940286	 0.149948
H	-0.4433485295	 1.7417563929	 1.0006603033	 0.157849
H	 0.6883488503	 0.4173211809	-2.5885751128	 0.247113
H	-0.1546480824	-0.8963238744	-3.107094788	 0.251544
H	 0.0436323224	-2.9772186028	-1.4177578382	 0.08803
H	 0.0502777883	-3.0470163049	 1.2996461355	 0.101253
H	 0.0564102778	 0.4571063704	 4.5592656695	 0.183181
90.8285	114.183	147.4559	184.1795	223.8722	280.5761	299.8808	408.6878	430.6722	476.5871	534.8214	579.6435	647.3656	659.6161	679.2301	702.5539	736.9709	756.4034	806.8054	819.9238	975.042	1047.3201	1113.2402	1153.6756	1175.8742	1233.6517	1258.7121	1351.7612	1389.6243	1443.647	1484.7184	1505.8414	1514.5896	1537.2798	1595.3432	1655.1156	2211.9429	3022.3427	3098.9601	3151.0054	3244.3015	3263.3732	3503.0181	3503.7929	3612.7025
CN1C(N)=CC=C1C#C	Cn1c(N)ccc1C#C	
InChI=1S/C7H8N2/c1-3-6-4-5-7(8)9(6)2/h1,4-5H,8H2,2H3	InChI=1S/C7H8N2/c1-3-6-4-5-7(8)9(6)2/h1,4-5H,8H2,2H3
