14
gdb 20770	3.32265	2.32517	1.37945	2.3238	68.65	-0.2387	-0.0471	0.1915	845.4922	0.107893	-378.707023	-378.700189	-378.699244	-378.73798	25.791	
C	 0.083988656	 1.470605658	 0.058412062	-0.451624
C	-0.0095526176	-0.0248294737	 0.022281346	 0.346937
N	-0.112241367	-0.5499706403	-1.1511508283	-0.141461
O	-0.2034329307	-1.946040573	-1.244935655	-0.239564
C	-0.1824021048	-2.6945859478	-0.1309707946	 0.102323
C	-0.0776577816	-2.2060323265	 1.114296679	-0.238848
C	 0.0212331881	-0.7745887641	 1.2997364122	 0.22726
N	 0.1277860914	-0.1082842342	 2.3945328358	-0.524653
H	 1.0110044629	 1.7711476063	 0.555156875	 0.153004
H	 0.047810444	 1.8769360795	-0.9527031476	 0.138007
H	-0.733427897	 1.8777721439	 0.6604735577	 0.153019
H	-0.2619182737	-3.7470439453	-0.3808378719	 0.147109
H	-0.0679349984	-2.8791646873	 1.9633151664	 0.115213
H	 0.1370997485	-0.7421871554	 3.1970387432	 0.213278
109.6437	179.4978	280.4253	308.5434	427.1064	456.8013	465.4169	507.9766	598.8947	720.7112	752.7614	814.9555	861.328	897.9468	905.7974	961.8501	1032.2173	1049.291	1059.8137	1136.0835	1239.7866	1261.2192	1388.5886	1407.456	1455.3208	1461.9502	1465.6276	1636.1789	1642.1982	1699.639	3054.9276	3115.6899	3157.7487	3193.58	3212.6195	3439.8321
CC1=NOC=CC1=N	CC1=NO[CH]C=C1[NH]	
InChI=1S/C5H6N2O/c1-4-5(6)2-3-8-7-4/h2-3,6H,1H3	InChI=1S/C5H6N2O/c1-4-5(6)2-3-8-7-4/h2-3,6H,1H3
