17
gdb 61079	3.60529	1.07615	0.89704	1.7665	65.16	-0.2643	-0.0397	0.2246	1257.4929	0.135139	-496.099257	-496.090708	-496.089763	-496.133341	30.492	
O	-0.1102840992	 1.3858857877	 0.082429064	-0.437381
C	 0.0552604404	-0.0036538302	 0.108508212	 0.027885
C	 0.6771569273	-0.4884093249	-1.184843133	 0.131031
O	 0.9532258552	 0.2872404241	-2.0704481549	-0.266396
C	 0.9233197318	-0.4103963151	 1.319336103	 0.078177
C	 0.2308760831	-0.099927425	 2.6571301336	-0.133379
O	-0.4488604194	-1.3166555852	 2.9408227346	-0.233358
C	 0.43732837	-2.3136472295	 2.5158185969	 0.022327
O	 1.0726111526	-1.8305338549	 1.3376777876	-0.277783
H	 0.2245962379	 1.6700874144	-0.7842047526	 0.297379
H	-0.9143670524	-0.5198631472	 0.222443082	 0.105293
H	 0.8672630046	-1.5731472214	-1.2665211302	 0.122208
H	 1.9038296078	 0.0720040189	 1.2404323762	 0.097753
H	 0.9695580265	 0.1299656364	 3.4387111024	 0.10276
H	-0.4966508376	 0.7090675841	 2.5906048307	 0.147896
H	 1.203450185	-2.5219215026	 3.283129085	 0.0927
H	-0.1275777037	-3.2219665096	 2.2868132428	 0.122888
71.0096	78.4861	118.3637	182.2664	255.1336	311.9163	349.7208	389.6134	431.867	487.6579	722.6761	747.5904	786.5538	829.495	928.5221	944.286	983.4168	989.1237	1038.112	1056.6481	1117.1879	1139.0202	1162.7844	1179.2438	1203.7175	1251.9056	1266.8894	1296.6467	1308.781	1353.798	1376.5106	1383.7874	1427.5361	1439.9926	1509.347	1545.0894	1804.2479	2950.7692	2959.8464	2989.9619	3001.4347	3053.1955	3085.9612	3139.0117	3670.056
OC(C=O)C1COCO1	O[C@@H](C=O)[C@H]1COCO1	
InChI=1S/C5H8O4/c6-1-4(7)5-2-8-3-9-5/h1,4-5,7H,2-3H2	InChI=1S/C5H8O4/c6-1-4(7)5-2-8-3-9-5/h1,4-5,7H,2-3H2/t4-,5+/m0/s1
