20
gdb 6097	4.59086	0.87161	0.79918	1.2829	72.27	-0.2416	-0.0062	0.2354	1480.5339	0.173416	-386.170418	-386.160242	-386.159297	-386.206511	35.605	
C	-0.1187849039	 1.535435049	-0.0898638813	-0.403098
C	-0.0239154137	 0.0109749862	-0.0379074269	 0.13046
O	 0.6892119339	-0.5008833813	-1.1653413061	-0.429349
C	 0.5854935999	-0.4882733294	 1.2779278105	-0.187577
C	 0.6352653473	-2.012406574	 1.364138094	-0.301963
C	 1.4864641465	-2.5437858137	 2.5082889361	 0.377132
C	 1.3749946028	-4.0333384795	 2.7861252074	-0.473264
O	 2.2160769661	-1.8279547035	 3.1568229245	-0.296828
H	 0.8735049652	 1.9896332781	 0.0257980263	 0.108961
H	-0.5344476621	 1.8587553407	-1.0479969875	 0.123202
H	-0.7539537137	 1.920563662	 0.7142562357	 0.117555
H	-1.0314431333	-0.4111208898	-0.1488160359	 0.084902
H	 1.565239983	-0.0981372065	-1.1586374757	 0.276889
H	 1.6029279998	-0.091495648	 1.3834863945	 0.107686
H	 0.0175683137	-0.0813100534	 2.1227778959	 0.101391
H	-0.3718076038	-2.4445202476	 1.4401358719	 0.109267
H	 1.0473566987	-2.4152433228	 0.4283697014	 0.13867
H	 1.4791374362	-4.6140766627	 1.863422594	 0.134978
H	 2.1340221676	-4.3361296136	 3.5084455234	 0.14072
H	 0.3814176095	-4.2586321602	 3.1917249775	 0.140266
34.7777	66.1668	114.4775	115.6842	147.7198	243.7378	259.5112	299.6917	316.7703	416.4718	462.8331	485.0324	496.6405	594.2702	741.0724	817.519	858.0047	906.4498	930.1378	963.2033	1004.1904	1055.3221	1086.1059	1114.1272	1153.7819	1180.1034	1181.7561	1273.2524	1299.9309	1340.9298	1363.3925	1382.4045	1394.5814	1406.6929	1421.7611	1453.7135	1464.8755	1476.9464	1480.3595	1494.2665	1496.4421	1809.203	3018.3036	3022.2178	3025.6614	3035.8038	3037.5454	3046.9274	3075.5739	3095.7075	3096.8604	3119.282	3151.1367	3791.5069
CC(O)CCC(C)=O	C[C@@H](O)CCC(=O)C	
InChI=1S/C6H12O2/c1-5(7)3-4-6(2)8/h5,7H,3-4H2,1-2H3	InChI=1S/C6H12O2/c1-5(7)3-4-6(2)8/h5,7H,3-4H2,1-2H3/t5-/m1/s1
