18
gdb 131807	5.78809	0.65992	0.62588	1.9099	73.77	-0.2557	0.0119	0.2676	1739.1044	0.149674	-435.290442	-435.281556	-435.280612	-435.326021	31.182	
O	 0.1354353865	 1.4291402797	-0.1614719812	-0.416956
C	 0.0602722578	 0.0253332586	 0.0122629202	-0.058611
C	-1.3716071003	-0.5040680968	-0.0728729394	-0.192236
C	-1.4412442671	-2.0360450127	 0.0509368749	-0.333561
C	-2.8469557869	-2.5418552676	 0.0862220867	 0.388514
N	-3.7823700881	-2.2110694664	 0.9629107142	-0.312422
C	-4.8617761768	-2.9313336812	 0.5514554884	 0.025315
N	-4.6661424593	-3.6854095795	-0.5167258569	-0.215605
N	-3.3666506424	-3.419634246	-0.799786679	-0.242727
H	-0.3616354579	 1.8412182905	 0.5526032345	 0.283324
H	 0.67077674	-0.4036028776	-0.7909298671	 0.109351
H	 0.5182866944	-0.2883383834	 0.9652642391	 0.08877
H	-1.9790599157	-0.0647580705	 0.7274102445	 0.122462
H	-1.8152435014	-0.1816802845	-1.0214758776	 0.11304
H	-0.9017285092	-2.5091320914	-0.7783739899	 0.104735
H	-0.9358291143	-2.3497197805	 0.9728100873	 0.134926
H	-5.817496192	-2.899519119	 1.0530987751	 0.124708
H	-2.9257233975	-3.8652177216	-1.5878470737	 0.276972
23.6282	81.8249	92.8557	129.3156	246.8675	308.0025	319.6033	341.0018	473.7817	566.6157	698.2791	707.3621	753.452	781.4868	855.6149	913.0242	982.1087	1021.1981	1037.6824	1052.6219	1079.4307	1090.504	1130.2056	1147.3043	1217.1654	1254.349	1271.4005	1306.2175	1316.1043	1323.6713	1374.2947	1400.8497	1420.2085	1426.7912	1475.9321	1492.5489	1505.9054	1516.17	1586.0769	2966.4375	3025.9858	3039.446	3055.8901	3062.4516	3092.2874	3260.1829	3660.9795	3814.2899
OCCCC1=NC=NN1	OCCCc1ncn[nH]1	
InChI=1S/C5H9N3O/c9-3-1-2-5-6-4-7-8-5/h4,9H,1-3H2,(H,6,7,8)	InChI=1S/C5H9N3O/c9-3-1-2-5-6-4-7-8-5/h4,9H,1-3H2,(H,6,7,8)
