18
gdb 46074	2.96241	1.32216	1.14363	3.6403	71.28	-0.2442	0.0567	0.301	1113.9993	0.150772	-435.284207	-435.276041	-435.275097	-435.317749	30.519	
O	 0.1850320828	 0.0089022984	 0.0086452102	-0.406277
C	 0.0972348746	 1.2152308655	-0.0191968762	 0.41727
N	-0.9721922271	 1.968839499	-0.49502796	-0.34229
C	-0.8537138844	 3.359366019	-0.0780627057	-0.17585
C	 0.6843241053	 3.5072413038	 0.1277375743	-0.026292
N	 1.0471589466	 2.1301634485	 0.4010327075	-0.335349
C	 1.3696829097	 4.135513999	-1.081221432	 0.019896
C	 2.6872444277	 3.6749944906	-1.5812717544	-0.250351
N	 1.4646915643	 3.4393536673	-2.3682612746	-0.312591
H	-1.8696407757	 1.5109760418	-0.5055627214	 0.255207
H	-1.222335473	 4.0464952083	-0.8444106412	 0.127203
H	-1.3898616119	 3.5594710835	 0.85984656	 0.108963
H	 0.8864019808	 4.1453372398	 0.9959335974	 0.094555
H	 1.9793089303	 1.8212521834	 0.6141058921	 0.257613
H	 1.1310668528	 5.194277367	-1.1819395281	 0.094804
H	 3.3849948749	 4.3881057578	-2.010847624	 0.122428
H	 3.1566428902	 2.823338183	-1.0959864379	 0.103572
H	 1.168650662	 2.4714063941	-2.2602789459	 0.247489
52.3979	75.5585	178.5766	236.2867	244.4978	399.7821	416.363	492.4638	527.6825	560.7236	713.6691	738.4421	766.9343	801.1328	855.3936	890.2781	953.163	972.1642	991.89	1000.7343	1033.2144	1094.3514	1106.4119	1143.0683	1155.931	1190.9024	1222.6279	1252.2004	1262.3774	1275.0217	1305.2107	1361.9808	1387.3839	1399.2595	1426.9891	1443.8162	1511.5374	1527.8913	1853.8009	3002.5564	3034.0974	3084.6449	3107.1044	3111.7858	3193.1943	3498.8109	3645.0347	3682.0783
O=C1NCC(N1)C1CN1	O=C1NC[C@@H](N1)[C@H]1CN1	
InChI=1S/C5H9N3O/c9-5-7-2-4(8-5)3-1-6-3/h3-4,6H,1-2H2,(H2,7,8,9)	InChI=1S/C5H9N3O/c9-5-7-2-4(8-5)3-1-6-3/h3-4,6H,1-2H2,(H2,7,8,9)/t3-,4-/m1/s1
