20
gdb 91434	2.77991	1.32801	1.03987	4.2747	81.02	-0.2378	0.0267	0.2645	1200.5356	0.17156	-403.148924	-403.140365	-403.139421	-403.182772	31.953	
C	-0.7405972609	 1.3008925316	 0.1271515281	-0.415339
C	-0.0219509372	-0.0315159504	-0.0060163019	 0.03984
C	 1.2210059414	-0.1336399291	-0.9499465983	-0.257533
C	 2.0451738416	-0.8046323721	 0.1846983643	-0.048681
C	 2.8991352286	 0.1792621392	 1.0246068755	-0.180244
N	 1.7003934143	 0.4682335141	 1.8207707121	-0.027056
C	 1.5884191757	 1.1590153677	 2.9778366043	 0.126118
O	 2.4799825947	 1.8147372559	 3.4774201946	-0.332738
C	 0.8550757225	-0.5412046028	 1.1745732166	-0.029018
H	-0.0466163021	 2.0932004417	 0.424666123	 0.127982
H	-1.1971405568	 1.5936660138	-0.8243174803	 0.119639
H	-1.537867003	 1.2522114893	 0.8773435427	 0.116259
H	-0.7400896894	-0.8199544036	-0.2581381477	 0.07797
H	 1.0682953521	-0.7499712209	-1.8382963889	 0.106363
H	 1.6260564447	 0.8313228724	-1.2700829143	 0.104686
H	 2.4545930704	-1.7953479981	 0.0001198509	 0.083454
H	 3.6926308652	-0.2840518123	 1.6215618273	 0.121785
H	 3.3137050258	 1.0421123416	 0.4933079306	 0.120415
H	 0.5759653994	 1.0587805807	 3.4221766819	 0.064994
H	 0.427153273	-1.2798373887	 1.8574182095	 0.081105
49.4341	85.2966	184.3804	225.6064	236.9135	311.5901	335.2415	384.4001	436.1648	602.3195	640.4541	756.3435	805.8825	833.9965	859.3175	887.4099	909.899	952.8121	980.002	1016.9092	1034.2521	1062.7792	1117.0452	1127.7546	1132.2834	1161.2099	1191.5441	1210.4087	1217.0788	1262.8672	1282.382	1296.4124	1311.1453	1333.2897	1359.7522	1396.9786	1410.8544	1440.3057	1485.6656	1494.2982	1500.7051	1515.0682	1789.3184	2914.3907	3029.9304	3034.9682	3039.1354	3054.7338	3072.9884	3081.7768	3094.7982	3106.3468	3110.8148	3138.3427
CC1CC2CN(C=O)C12	C[C@H]1C[C@H]2CN(C=O)[C@@H]12	
InChI=1S/C7H11NO/c1-5-2-6-3-8(4-9)7(5)6/h4-7H,2-3H2,1H3	InChI=1S/C7H11NO/c1-5-2-6-3-8(4-9)7(5)6/h4-7H,2-3H2,1H3/t5-,6-,7-/m0/s1
