19
gdb 54195	2.86715	1.39321	1.28438	2.9693	75.08	-0.2341	0.0367	0.2708	1074.7718	0.159257	-419.201982	-419.193219	-419.192275	-419.235484	33.712	
C	-0.2539238852	 1.5493521558	 0.3004686147	-0.450646
C	 0.0110134488	 0.0739714209	 0.0266785685	 0.239114
C	 1.1060087236	-0.3136149522	-1.0137894901	-0.302508
C	 1.7909337719	-1.0695365317	 0.1208792707	-0.007763
C	 2.0833333605	-0.1824066813	 1.2611158198	-0.246554
N	 0.712037235	-0.7058823532	 1.1284590688	-0.174524
C	-1.3302536642	-0.5973098423	-0.3131424736	 0.358032
N	-1.7572804312	-1.4966257088	 0.6042640148	-0.525367
O	-1.9401096687	-0.2961131274	-1.323797838	-0.389654
H	 0.6697416864	 2.1204847188	 0.4225051636	 0.111624
H	-0.8102227555	 1.9687599677	-0.5415778252	 0.152308
H	-0.8564107005	 1.6680817956	 1.2072404723	 0.127484
H	 0.719077422	-0.9419444981	-1.8160021806	 0.132563
H	 1.6786191136	 0.5075744574	-1.4542306467	 0.106083
H	 2.1815895982	-2.0799134571	 0.0583192895	 0.098288
H	 2.6055886683	-0.608390375	 2.1124058086	 0.125032
H	 2.277554739	 0.8739274163	 1.0986461466	 0.118481
H	-1.1492193522	-1.7342008049	 1.3729922899	 0.271067
H	-2.6210921999	-1.9865918105	 0.4433148962	 0.256942
39.5881	167.4831	203.7855	221.8014	276.1465	296.8749	349.2557	369.0764	433.5905	480.0115	532.3637	640.677	673.9643	757.8741	764.1543	793.2946	819.555	861.937	912.0477	934.1221	990.8855	1009.145	1065.3869	1099.9984	1112.3816	1120.0853	1138.6977	1161.4769	1188.834	1228.4931	1246.7877	1265.6772	1365.5515	1373.0338	1396.4181	1486.2069	1486.5319	1495.7451	1510.7914	1580.8521	1792.1361	3041.6062	3062.5083	3111.0282	3119.8398	3129.712	3135.1876	3165.9992	3204.1087	3571.1664	3722.0686
CC1(CC2CN12)C(N)=O	C[C@]1(C[C@H]2CN12)C(=O)N	
InChI=1S/C6H10N2O/c1-6(5(7)9)2-4-3-8(4)6/h4H,2-3H2,1H3,(H2,7,9)	InChI=1S/C6H10N2O/c1-6(5(7)9)2-4-3-8(4)6/h4H,2-3H2,1H3,(H2,7,9)/t4-,6-,8?/m0/s1
