15
gdb 6008	2.5849	1.72844	1.66178	3.1656	63.37	-0.2437	0.0103	0.254	895.5696	0.11538	-399.796851	-399.787613	-399.786669	-399.830389	33.594	
C	-0.2042312694	 1.5996368648	-0.066598148	-0.4048
C	 0.0336831211	 0.083343083	-0.0322101617	 0.097532
O	 0.8856452119	-0.2755829347	 1.067292274	-0.464517
C	-1.2324848276	-0.6499530235	 0.0573275635	 0.345912
C	-2.2678571449	-1.2472523327	 0.1839231243	-0.508731
C	 0.7514200211	-0.3472339616	-1.350098289	 0.389748
N	 1.7316776204	-1.2607951485	-1.1665695522	-0.520221
O	 0.411483597	 0.1044530583	-2.4235970094	-0.370673
H	 0.7600578094	 2.114108169	-0.0477609261	 0.127486
H	-0.7348457796	 1.8681218773	-0.9806904148	 0.157449
H	-0.7915825524	 1.9083086765	 0.8020559534	 0.112708
H	 0.3281088206	-0.3894470373	 1.843717617	 0.291506
H	-3.1833862088	-1.7785833104	 0.2740162437	 0.207564
H	 2.0136425714	-1.505918683	-0.2330015768	 0.275796
H	 2.2674119998	-1.5587469373	-1.9643031979	 0.263241
51.877	134.8957	172.6046	223.1117	231.4756	272.2742	316.2646	345.2911	390.6091	424.6009	470.2063	561.4502	602.0022	631.614	638.5594	675.6346	683.1594	773.7401	884.9365	946.7944	1089.3797	1118.7694	1130.2808	1176.1931	1306.8069	1380.8763	1399.8844	1482.2911	1488.7545	1589.8293	1811.3797	2230.7085	3052.5545	3128.5414	3157.5109	3500.1069	3603.4332	3743.9883	3823.6981
CC(O)(C#C)C(N)=O	C[C@@](O)(C#C)C(=O)N	
InChI=1S/C5H7NO2/c1-3-5(2,8)4(6)7/h1,8H,2H3,(H2,6,7)	InChI=1S/C5H7NO2/c1-3-5(2,8)4(6)7/h1,8H,2H3,(H2,6,7)/t5-/m1/s1
