20
gdb 67242	2.96044	1.62253	1.3307	1.6587	83.44	-0.2321	0.0938	0.3259	1046.7993	0.171238	-365.937407	-365.929628	-365.928683	-365.969192	31.575	
C	-0.1353249415	 1.5129074809	-0.0158843574	-0.531343
C	 0.0756351413	 0.0389245607	 0.0207994309	 0.364069
C	 0.3731308174	-1.0041069393	-0.9897187825	-0.093236
C	 1.4169578155	-1.6749220075	-0.0989524296	-0.242223
C	 0.6876221786	-0.9752076245	 1.0818911982	-0.229581
C	-0.6835972324	-1.6269424674	 1.0280424339	 0.455625
C	-1.1762698182	-2.9687044594	 1.4536208415	-0.350454
C	-1.7395002336	-1.6952552431	 2.0755631532	-0.355976
N	-0.9682255268	-0.9896105136	-0.2788722482	-0.226453
H	 0.8186722115	 2.0516405262	-0.0253080465	 0.121834
H	-0.6934757457	 1.787269738	-0.9164425626	 0.13508
H	-0.7080674005	 1.854059556	 0.8535955647	 0.127751
H	 0.3327267661	-0.9450194562	-2.0699973594	 0.093917
H	 1.4734156174	-2.7680178156	-0.0746298126	 0.097182
H	 2.4084515767	-1.2514961875	-0.2808654672	 0.100681
H	 1.1999968229	-0.7466932467	 2.0150885081	 0.071565
H	-1.8132548146	-3.5116425574	 0.7636402243	 0.120499
H	-0.5284078262	-3.593699991	 2.0605354424	 0.109408
H	-1.4707131862	-1.4651284369	 3.1016200845	 0.109784
H	-2.7439765516	-1.4006587058	 1.7911698844	 0.121872
129.0326	199.4459	218.059	254.7091	277.8357	310.6806	476.1719	499.789	571.1849	641.6526	715.2909	761.3612	781.0646	832.8076	869.0405	884.4951	902.9009	931.8932	958.762	971.2013	990.8172	1012.4039	1030.2012	1043.913	1072.1631	1081.9932	1096.0221	1123.5884	1146.7567	1164.5645	1184.6716	1206.1377	1234.1651	1265.6968	1277.0925	1389.1876	1402.2944	1448.6561	1451.9221	1480.2039	1490.9072	1493.3689	1510.765	3027.8606	3045.2328	3089.854	3103.565	3106.9754	3125.0915	3127.5233	3128.6784	3196.9631	3207.2889	3221.0246
CC12C3CC1C1(CC1)N23	C[C@@]12[C@H]3C[C@@H]1C1(CC1)N23	
InChI=1S/C8H11N/c1-7-5-4-6(7)9(7)8(5)2-3-8/h5-6H,2-4H2,1H3	InChI=1S/C8H11N/c1-7-5-4-6(7)9(7)8(5)2-3-8/h5-6H,2-4H2,1H3/t5-,6+,7-,9?/m0/s1
