15
gdb 132012	2.3302	1.83629	1.03347	2.5249	72.32	-0.2236	-0.0266	0.197	1071.5237	0.112818	-461.943993	-461.936265	-461.935321	-461.976284	29.028	
C	 0.1035219186	 1.5091905518	 0.0577709356	-0.481623
C	 0.000829755	 0.0133750791	 0.0275277812	-0.025632
C	-0.1321952182	-0.6755783712	-1.1150538765	 0.332551
F	-0.1862579619	-0.1245234024	-2.3111822845	-0.043724
O	-0.2318072997	-2.0120102861	-1.2453085492	-0.210375
C	-0.1939969229	-2.7427813237	-0.0958587494	 0.056713
C	-0.0650432133	-2.1914600957	 1.11493494	-0.222894
C	 0.0458859902	-0.7414436525	 1.2867866951	 0.239354
N	 0.1731943878	-0.1092946578	 2.4010379007	-0.531231
H	 1.0399254234	 1.8113150149	 0.5368057722	 0.147318
H	 0.055893917	 1.9362810806	-0.9448040781	 0.123741
H	-0.7015819546	 1.9282201085	 0.6691956546	 0.147305
H	-0.2812928053	-3.7996960704	-0.3072604444	 0.14844
H	-0.0426592842	-2.836649412	 1.9858899733	 0.114096
H	 0.1883269081	-0.7663729531	 3.1831690095	 0.205962
120.2476	139.8155	195.4807	267.9309	283.434	359.888	460.6592	492.6484	531.9969	540.039	638.095	680.8741	732.8101	808.953	842.0023	886.51	933.9205	945.7119	1040.1359	1064.8834	1106.7269	1162.3939	1222.2921	1277.5517	1305.8068	1404.2173	1417.3974	1449.9023	1474.5474	1484.3181	1634.7963	1687.4936	1744.3821	3048.7634	3102.2199	3145.711	3197.4203	3238.9556	3450.4274
CC1=C(F)OC=CC1=N	CC1=C(F)OCC=C1[NH]	
InChI=1S/C6H6FNO/c1-4-5(8)2-3-9-6(4)7/h2-3,8H,1H3	InChI=1S/C6H7FNO/c1-4-5(8)2-3-9-6(4)7/h2,8H,3H2,1H3
