22
gdb 121498	3.39844	0.6709	0.62486	1.9085	83.52	-0.2316	0.0302	0.2617	1911.2624	0.190936	-441.480748	-441.469518	-441.468574	-441.518352	39.346	
C	 0.0181566609	 1.1320321093	-1.0804938315	-0.373578
C	-0.1517668571	-0.0720675067	-0.163066108	-0.070249
O	 0.929685465	-0.9952308515	-0.2991090192	-0.201265
C	 0.7820407384	-1.9609131741	-1.2328234405	 0.113086
N	 1.743756953	-2.7371240331	-1.4746434899	-0.253865
C	 1.6261138768	-3.7991022738	-2.4552040689	-0.137436
C	 0.4506621112	-3.8000501478	-3.4459511676	 0.104433
C	 0.6227512423	-4.8820312906	-4.5134493877	-0.397217
O	-0.8154849189	-3.9264872302	-2.7921507493	-0.426033
H	 0.977763556	 1.6218410959	-0.8935619266	 0.13581
H	-0.0141292292	 0.8321649266	-2.1326678507	 0.124189
H	-0.7832391034	 1.8576560084	-0.9071506778	 0.118504
H	-0.1436869426	 0.2353762511	 0.8865167303	 0.118417
H	-1.1063731765	-0.5802630632	-0.3545976371	 0.109104
H	-0.2126553821	-1.9999009726	-1.6895675803	 0.109489
H	 2.556118952	-3.8023053128	-3.0396234299	 0.108946
H	 1.6278216955	-4.7622222454	-1.9178617526	 0.094837
H	 0.4038063033	-2.8191970203	-3.9358474195	 0.090445
H	 0.713572295	-5.873955823	-4.05346396	 0.108854
H	-0.2454985593	-4.8935090386	-5.1772636694	 0.124926
H	 1.5203441759	-4.709503778	-5.1155766634	 0.119356
H	-0.7938921761	-4.7362523393	-2.2696909706	 0.279247
37.6943	50.2472	99.5096	116.5047	150.6993	218.6194	231.4435	262.8773	285.3552	292.4596	333.5939	397.3827	420.1563	455.6418	517.715	631.2587	802.1136	838.0557	898.073	909.3358	935.6831	1005.991	1046.9104	1067.7929	1074.2323	1098.415	1114.0759	1152.7143	1172.6327	1232.0445	1245.8675	1322.2293	1335.3811	1343.4322	1392.1225	1397.7517	1403.9913	1412.2315	1423.4751	1433.2766	1472.4356	1485.7999	1492.8927	1493.5563	1496.2364	1513.2233	1766.3065	2972.6414	3019.1709	3023.8934	3029.6812	3038.5646	3039.7158	3069.5586	3085.7697	3097.5226	3112.835	3121.9011	3124.5742	3795.9914
CCOC=NCC(C)O	CCOC=NC[C@@H](C)O	
InChI=1S/C6H13NO2/c1-3-9-5-7-4-6(2)8/h5-6,8H,3-4H2,1-2H3	InChI=1S/C6H13NO2/c1-3-9-5-7-4-6(2)8/h5-6,8H,3-4H2,1-2H3/t6-/m1/s1
