17
gdb 109197	3.60458	0.98322	0.91384	3.3744	75.56	-0.2391	0.01	0.2491	1310.3687	0.135982	-417.979913	-417.971062	-417.970118	-418.01394	32.474	
O	 0.0531784353	 1.3653958886	 0.2090396098	-0.419787
C	-0.0144649002	-0.0152544107	-0.0170481433	-0.12823
C	-1.4395333969	-0.4931737704	-0.0714376424	 0.349587
N	-2.4190120465	 0.3191966777	 0.038083214	-0.311402
C	-3.6484993063	-0.4680109459	-0.0842635158	-0.177851
C	-3.1955928459	-1.9721077773	-0.0186251715	-0.16586
N	-1.7507110451	-1.8258082841	-0.3076447891	-0.343372
C	-3.4438258201	-2.6059752462	 1.2740306484	 0.336562
C	-3.6366056098	-3.1310098474	 2.3382749486	-0.47804
H	-0.8682916491	 1.6680625085	 0.2336448084	 0.29666
H	 0.4810059238	-0.2868759496	-0.9634023937	 0.116096
H	 0.5154840837	-0.5637213622	 0.7798319735	 0.105643
H	-4.3590042666	-0.2205584945	 0.7074558257	 0.127899
H	-4.1280484693	-0.257831463	-1.0474212914	 0.118846
H	-3.6768135716	-2.5606246708	-0.8057496332	 0.118208
H	-1.1394116231	-2.5309834817	 0.0816940311	 0.247399
H	-3.8134352623	-3.5916860609	 3.2790054709	 0.207643
56.6231	94.9742	152.7277	221.8782	230.9819	246.0931	350.7754	418.188	463.6156	543.849	560.5719	627.6671	645.582	666.065	717.9571	800.5862	818.7593	954.8789	1006.404	1027.0685	1038.8346	1052.7403	1082.822	1117.0931	1216.31	1232.0927	1252.2849	1258.9167	1322.58	1336.9633	1364.0611	1434.4692	1491.2044	1497.0028	1509.4668	1717.8899	2232.3958	2968.5119	2985.1827	3036.1904	3057.5974	3103.3814	3501.211	3587.5241	3687.4142
OCC1=NCC(N1)C#C	OC[C]1[N]C[C@@H](N1)C#C	
InChI=1S/C6H8N2O/c1-2-5-3-7-6(4-9)8-5/h1,5,9H,3-4H2,(H,7,8)	InChI=1S/C6H8N2O/c1-2-5-3-7-6(4-9)8-5/h1,5,9H,3-4H2,(H,7,8)/t5-/m0/s1
