19
gdb 22230	2.70295	1.07273	0.79637	4.4983	80.26	-0.1852	-0.064	0.1213	1438.7778	0.156642	-456.287463	-456.277515	-456.276571	-456.322498	35.321	
C	-0.9757109567	 1.5047642763	-0.3411119976	-0.320465
N	-0.9123626303	 0.0429139108	-0.3865840642	-0.312554
H	-2.0224216877	-1.0176269201	-1.1212827131	 0.314887
H	-0.0008564369	-0.2473168537	-0.7314425674	 0.239197
C	-1.1479198966	-0.6024626756	 0.9223783947	-0.246877
C	-1.2310207195	-2.1060636311	 0.7949448838	 0.134196
N	-0.5778963223	-2.7867805629	 1.8198839943	-0.07743
O	-0.6478002476	-4.0198016438	 1.8359067018	-0.328191
C	-1.9276082792	-2.6892474314	-0.2479605892	 0.349978
C	-2.1865568901	-4.1488067026	-0.419955189	-0.459037
O	-2.4271586382	-1.937483026	-1.2192442553	-0.376513
H	-0.7465223032	 1.9122807919	-1.3289429338	 0.132274
H	-1.9899842581	 1.8142353214	-0.0715135425	 0.138557
H	-0.2802787871	 1.9420481219	 0.390741032	 0.119588
H	-0.3774338622	-0.3594393522	 1.6667829719	 0.12365
H	-2.0965642606	-0.1909470963	 1.2963787665	 0.121066
H	-2.6784175435	-4.5638813741	 0.4630236739	 0.160588
H	-2.7929927593	-4.3020399576	-1.3148244387	 0.125211
H	-1.2412289406	-4.6938500549	-0.5001551682	 0.161875
81.9602	101.5957	134.3073	147.2615	201.2328	253.5133	268.2367	281.1284	304.6314	360.4041	374.388	428.3386	513.5517	640.6885	743.1203	769.4397	841.1256	955.8477	976.4309	989.4311	1042.6327	1109.619	1113.7482	1141.5857	1146.2184	1184.8798	1233.0463	1305.9841	1346.4198	1387.4547	1402.5134	1435.6676	1455.7931	1460.2505	1464.7238	1469.8856	1492.7363	1503.1813	1514.5324	1547.517	1652.484	2929.1114	2995.8146	3002.7765	3037.1632	3051.3742	3082.5018	3113.2485	3122.1266	3147.6265	3498.8192
C[NH2+]CC(=N[O-])C(C)=O	CNCC(=C(C)O)N=O	
InChI=1S/C5H10N2O2/c1-4(8)5(7-9)3-6-2/h6,9H,3H2,1-2H3	InChI=1S/C5H10N2O2/c1-4(8)5(7-9)3-6-2/h6,8H,3H2,1-2H3
