20
gdb 6371	5.06976	0.98406	0.85959	3.408	72.26	-0.2509	-0.0221	0.2288	1384.8064	0.174253	-386.174569	-386.164781	-386.163837	-386.209769	34.828	
C	 0.084447197	 1.5366647422	 0.0313088587	-0.378261
C	-0.106106487	 0.0367563254	-0.1782780718	-0.276143
C	-1.508562744	-0.4581998653	 0.1329771441	 0.383663
O	-2.4133203992	 0.3163391532	 0.3803053455	-0.320434
C	-1.7202146019	-1.9655122002	 0.1297385121	-0.309181
C	-3.1904204296	-2.3836817147	-0.0509782647	 0.143619
C	-3.3498985923	-3.8986879867	-0.0728431865	-0.384524
O	-3.9922760723	-1.8870673618	 1.0039716937	-0.442792
H	 1.1009558823	 1.8374384635	-0.236318524	 0.11307
H	-0.6197977929	 2.1065990704	-0.5791919686	 0.136177
H	-0.0929820985	 1.8118410649	 1.0744098365	 0.130773
H	 0.1087549303	-0.2474830921	-1.2187606571	 0.12847
H	 0.6012298118	-0.5506638694	 0.4229878218	 0.12365
H	-1.0812267221	-2.4217368995	-0.6363326086	 0.108112
H	-1.3584366523	-2.3432127908	 1.0975933782	 0.134325
H	-3.5376897725	-1.9777270731	-1.017194567	 0.064813
H	-2.7883397548	-4.3447200555	-0.8995674009	 0.106018
H	-2.9945938343	-4.3326697171	 0.8674969158	 0.119203
H	-4.4056133398	-4.1579053874	-0.1876632964	 0.126667
H	-3.8565255279	-0.9287253761	 1.0014130993	 0.292774
42.6744	70.5469	122.367	154.1482	192.2028	227.2839	277.3618	305.0183	357.4396	446.4851	452.7008	502.2703	610.9375	664.142	742.6196	824.8623	850.6736	903.3531	948.7638	999.2827	1024.7072	1036.6365	1073.1552	1127.5121	1136.1709	1168.4427	1223.3776	1286.7975	1311.9887	1334.232	1378.7229	1384.4329	1403.1085	1413.9233	1432.6483	1449.5003	1464.0524	1483.9156	1492.1522	1498.1109	1500.4588	1781.1894	2946.1354	3010.9299	3017.3368	3038.86	3043.3329	3052.6371	3062.3629	3110.4209	3121.9087	3122.5746	3130.5502	3730.6732
CCC(=O)CC(C)O	CCC(=O)C[C@@H](C)O	
InChI=1S/C6H12O2/c1-3-6(8)4-5(2)7/h5,7H,3-4H2,1-2H3	InChI=1S/C6H12O2/c1-3-6(8)4-5(2)7/h5,7H,3-4H2,1-2H3/t5-/m1/s1
