21
gdb 112751	2.48987	1.27054	0.96374	2.1388	79.6	-0.2516	0.068	0.3196	1309.4497	0.180492	-424.186925	-424.177346	-424.176402	-424.221503	35.27	
C	 0.2262694	 1.797762523	-0.6157738899	-0.23801
O	-0.3486374596	 0.5125665491	-0.7099527008	-0.246049
C	 0.5553105359	-0.4766140063	-1.1123605606	 0.065662
C	 1.5310130453	-1.102511405	-0.064068201	-0.287186
C	 1.1817379628	-2.517496375	-0.6254815333	-0.057304
C	 0.9961241522	-3.6778828413	 0.3398358713	-0.414882
C	-0.0445254547	-1.8670317144	-1.2800368745	 0.404425
C	-1.4585175881	-2.2234622755	-1.1747573825	-0.256368
O	-0.7409126227	-2.3316581246	-2.4168981384	-0.283283
H	 1.020996827	 1.8383848106	 0.143894097	 0.108911
H	 0.6513722054	 2.1221753704	-1.5782834166	 0.108068
H	-0.5695069654	 2.4893469106	-0.3293304046	 0.12835
H	 1.0943052835	-0.1672463904	-2.0223313872	 0.073957
H	 2.57729873	-0.7942771923	-0.0928740681	 0.100035
H	 1.1346113357	-0.965601392	 0.9463386187	 0.108635
H	 1.8960422853	-2.7931118793	-1.4102597951	 0.086141
H	 0.2915471879	-3.4194081666	 1.1375114631	 0.115337
H	 0.6118312431	-4.5636220503	-0.17779756	 0.124304
H	 1.9463039949	-3.9550068361	 0.8085583118	 0.117682
H	-1.7484895965	-3.1706735693	-0.7227436722	 0.112499
H	-2.2010560721	-1.4297546254	-1.1339992972	 0.129075
70.4167	90.54	155.9746	196.6407	205.8175	219.3026	261.5007	323.2463	328.5002	450.6471	488.9812	525.8084	554.0693	719.9285	814.599	861.0757	883.9603	922.1318	929.0427	977.8913	1012.6039	1083.0326	1102.8275	1120.407	1128.0519	1156.3842	1161.816	1167.1632	1173.2189	1184.4323	1219.8166	1248.9399	1270.5583	1288.5852	1370.3461	1394.8201	1410.0527	1434.741	1479.1649	1486.0445	1490.1858	1495.3126	1498.9393	1509.9186	1534.581	2973.7035	2981.1499	3026.5518	3028.2925	3038.9833	3062.5811	3090.5505	3096.2754	3099.8507	3116.4076	3126.3661	3183.9347
COC1CC(C)C11CO1	CO[C@H]1C[C@@H](C)[C@]21CO2	
InChI=1S/C7H12O2/c1-5-3-6(8-2)7(5)4-9-7/h5-6H,3-4H2,1-2H3	InChI=1S/C7H12O2/c1-5-3-6(8-2)7(5)4-9-7/h5-6H,3-4H2,1-2H3/t5-,6+,7+/m1/s1
