18
gdb 13778	3.05585	1.47705	1.30281	2.9943	69.25	-0.2594	-0.043	0.2164	1036.9494	0.150788	-384.932415	-384.923443	-384.922499	-384.966242	31.749	
C	-0.9187306059	 2.6317916155	 0.9587352753	-0.39345
C	-0.7058571349	 1.3269438463	 0.1751826117	-0.011972
C	 0.3658459672	 0.4399429071	 0.823316385	-0.395666
C	-2.0171743307	 0.5793485813	 0.0810998408	 0.084217
O	-3.0115423413	 1.0861512153	-0.7923914786	-0.23366
C	-2.4707360783	-0.1915284518	-1.1138967567	-0.057012
C	-1.6254404233	-0.3102408763	-2.3419382061	 0.143184
O	-1.111876	 0.6101591833	-2.9256234962	-0.246399
H	 0.0105635746	 3.2075901556	 1.006529582	 0.11653
H	-1.6815548907	 3.2517088544	 0.4796506134	 0.135341
H	-1.2397368331	 2.4303095965	 1.9878084539	 0.110323
H	-0.3985202655	 1.5827513741	-0.842888824	 0.117105
H	 0.5457824704	-0.4686424087	 0.2392442905	 0.11403
H	 1.3142963414	 0.97917755	 0.9041554744	 0.122499
H	 0.0715333761	 0.1357876038	 1.83502758	 0.114115
H	-2.410966406	 0.2206273206	 1.0371641309	 0.096184
H	-3.1416343598	-1.0362104999	-0.9471851704	 0.103906
H	-1.49083545	-1.362142987	-2.682459256	 0.080724
56.03	115.3388	146.1913	208.9446	216.7493	239.848	265.5302	321.102	361.6822	487.0254	491.9393	745.492	784.218	840.794	893.5137	927.1941	937.3209	969.205	973.0334	999.105	1094.7617	1116.9509	1155.9343	1183.1281	1205.8976	1272.9937	1316.668	1357.7225	1392.8176	1398.0605	1418.8203	1424.5043	1463.4704	1487.4163	1491.5106	1503.2315	1512.212	1824.4572	2874.3962	3026.4022	3030.3419	3060.6482	3075.0061	3091.9748	3100.2738	3102.8312	3108.0924	3117.633
CC(C)C1OC1C=O	CC(C)[C@H]1O[C@H]1C=O	
InChI=1S/C6H10O2/c1-4(2)6-5(3-7)8-6/h3-6H,1-2H3	InChI=1S/C6H10O2/c1-4(2)6-5(3-7)8-6/h3-6H,1-2H3/t5-,6+/m0/s1
