18
gdb 17896	3.83046	1.8903	1.68511	1.4842	66.9	-0.2499	0.0776	0.3275	831.48	0.156035	-384.920808	-384.914014	-384.91307	-384.951347	27.251	
O	-0.0553219044	 1.3856608027	-0.0429637583	-0.454365
C	 0.0114806753	-0.0251205889	 0.0095400965	 0.158418
C	 0.1506737554	-0.6176245713	 1.4398051174	-0.084677
C	-1.3889799767	-0.4374899428	 1.5829554186	-0.226865
C	-1.4152180334	-0.6172447931	 0.0356777057	-0.046768
C	-1.3275630912	-2.114763781	-0.285258797	-0.082213
O	-0.6212691727	-2.8252775111	 0.7251189104	-0.255537
C	 0.4622148033	-2.1152582078	 1.309878262	-0.076417
H	 0.8076872782	 1.7338190208	 0.2042830413	 0.279753
H	 0.7001519631	-0.4182765993	-0.7551945709	 0.053637
H	 0.8310283152	-0.124398358	 2.1407906274	 0.057265
H	-1.9316559618	-1.1643278666	 2.1903943387	 0.102387
H	-1.6503701094	 0.5798197017	 1.8710826171	 0.111608
H	-2.1763627242	-0.1131589372	-0.5638462288	 0.074129
H	-2.3246975372	-2.5664986159	-0.3208597303	 0.108561
H	-0.8553785779	-2.2622274309	-1.2711849042	 0.088569
H	 1.3866281072	-2.257381883	 0.723627141	 0.084855
H	 0.6182042512	-2.5716658584	 2.2934091534	 0.107658
179.6589	264.5935	278.1707	306.5688	318.6276	394.0842	451.4643	548.2611	663.4194	831.4549	849.8212	860.0008	874.601	909.7053	928.3019	965.6964	1017.3897	1023.0308	1070.7299	1080.0631	1085.0972	1135.9799	1150.2432	1157.7742	1203.6882	1243.9334	1252.0018	1272.8279	1296.0529	1305.9155	1313.7317	1335.0733	1379.5607	1410.2188	1425.9256	1479.0359	1505.571	1514.2279	2953.0452	2961.0982	2973.7113	3056.5877	3063.3891	3067.2447	3081.7117	3092.5791	3150.6028	3808.7984
OC1C2CC1COC2	O[C@H]1[C@H]2C[C@@H]1COC2	
InChI=1S/C6H10O2/c7-6-4-1-5(6)3-8-2-4/h4-7H,1-3H2	InChI=1S/C6H10O2/c7-6-4-1-5(6)3-8-2-4/h4-7H,1-3H2/t4-,5+,6-
