20
gdb 69952	3.56934	1.44773	1.28005	2.1747	77.46	-0.2311	0.0789	0.31	1054.7514	0.173368	-403.123134	-403.11563	-403.114686	-403.154672	30.445	
C	-0.039592794	 1.5421769215	-0.0041924366	-0.469672
C	-0.0124778023	 0.0364184861	 0.0739061003	 0.339173
C	-1.2380291145	-0.7507681379	-0.3899343938	-0.30934
C	-1.1672170397	-2.1028584912	 0.3245925811	 0.113246
O	-0.3652998132	-3.1169269351	-0.3459408429	-0.300685
C	 0.4351481016	-3.3131962169	 0.8469728298	-0.105541
C	-0.1212128886	-2.0149053635	 1.464695546	-0.076016
C	 0.6597271824	-0.7439780103	 1.1634182314	-0.085712
N	 1.2867754221	-0.6084132615	-0.16592046	-0.378054
H	 0.8946367076	 1.9601417444	 0.3786420487	 0.128697
H	-0.1543066017	 1.8774846133	-1.0415173738	 0.119628
H	-0.8734058008	 1.9543486922	 0.575386521	 0.110423
H	-2.1558514797	-0.2254953917	-0.0987886497	 0.101472
H	-1.2700207689	-0.88082299	-1.4780841741	 0.117205
H	-2.1532190085	-2.5075541003	 0.5805083127	 0.078049
H	 0.1411243121	-4.2266540928	 1.3795321634	 0.103478
H	 1.5068727772	-3.3512427692	 0.6240356518	 0.114361
H	-0.4624568473	-2.0575092569	 2.5002975009	 0.075322
H	 1.2051162928	-0.2630967507	 1.9709385253	 0.084849
H	 1.1605954534	-1.4596186295	-0.7108988014	 0.239117
167.2766	182.274	214.9599	264.2191	334.5339	387.992	392.6833	518.6738	578.5326	671.9372	712.5153	793.8601	841.4068	842.5515	857.5745	903.9716	920.3989	981.006	995.6947	1002.796	1016.8245	1049.1097	1066.8953	1099.1938	1108.2737	1133.3658	1163.2305	1180.1988	1206.2903	1231.6459	1267.1857	1294.0111	1310.6469	1323.2187	1335.8874	1355.5564	1370.9765	1408.9409	1440.2731	1472.9597	1487.4815	1497.4519	1524.2337	3015.8905	3025.4359	3029.0246	3041.68	3071.7297	3073.2407	3087.5422	3098.1823	3121.127	3143.4352	3483.7122
CC12CC3OCC3C1N2	C[C@]12C[C@H]3OC[C@H]3[C@H]1N2	
InChI=1S/C7H11NO/c1-7-2-5-4(3-9-5)6(7)8-7/h4-6,8H,2-3H2,1H3	InChI=1S/C7H11NO/c1-7-2-5-4(3-9-5)6(7)8-7/h4-6,8H,2-3H2,1H3/t4-,5-,6-,7+/m1/s1
