17
gdb 132727	2.31524	1.75579	1.01101	1.0592	78.3	-0.2506	-0.0122	0.2384	1129.2595	0.1356	-426.050296	-426.041966	-426.041022	-426.083266	30.99	
C	 0.0762430621	 1.4973418918	 0.0557729257	-0.479861
C	 0.0309943281	-0.0079664287	 0.0034004066	 0.261897
C	-0.0101353918	-0.6759076598	-1.2361965823	 0.085865
C	-0.0113689666	 0.0561441811	-2.552196947	-0.511837
C	-0.0500585788	-2.0639637892	-1.1802524717	 0.27366
F	-0.0904083873	-2.7655997124	-2.3181648603	-0.077325
C	-0.0493552012	-2.7475388071	 0.0258389306	-0.264584
C	-0.0067287198	-1.9785808909	 1.1799985816	-0.002946
N	 0.0326296528	-0.6440613188	 1.1811470195	-0.325972
H	 0.958549905	 1.891111425	-0.4624510522	 0.129472
H	-0.7997777599	 1.9428115288	-0.430273763	 0.129508
H	 0.1047113278	 1.8204459801	 1.0965717578	 0.143303
H	 0.8856838578	 0.6753318548	-2.6641396736	 0.136445
H	-0.0469643381	-0.6436233395	-3.3876747364	 0.140386
H	-0.8731414847	 0.7280092704	-2.6332741563	 0.13643
H	-0.0808438486	-3.8295858378	 0.0482592706	 0.112883
H	-0.0040535368	-2.4600184279	 2.1547293904	 0.112676
99.9079	133.6419	147.2989	239.1833	283.9085	296.6386	321.2242	477.2399	521.3055	522.0588	549.2063	606.6316	686.1478	770.267	844.9925	849.269	921.3753	974.0944	992.2538	1039.8276	1075.7248	1077.8058	1128.1957	1202.2414	1288.9215	1299.6349	1316.5244	1402.5153	1415.0009	1447.2462	1465.4415	1481.2023	1490.8398	1497.7858	1512.9643	1611.3433	1642.1755	3028.9234	3034.4615	3077.7084	3082.629	3144.5785	3149.4882	3157.9504	3213.9342
CC1=C(C)C(F)=CC=N1	Cc1c(C)c(F)ccn1	
InChI=1S/C7H8FN/c1-5-6(2)9-4-3-7(5)8/h3-4H,1-2H3	InChI=1S/C7H8FN/c1-5-6(2)9-4-3-7(5)8/h3-4H,1-2H3
