25
gdb 109914	2.09071	1.38605	1.06493	0.1241	93.41	-0.2354	0.0284	0.2638	1314.3333	0.229217	-352.37811	-352.368127	-352.367182	-352.412284	38.665	
C	 0.0555207216	 1.4891381282	 0.3840654346	-0.388373
C	 0.1748888387	-0.0248241518	 0.1709975375	-0.198614
C	-1.1738001621	-0.71613598	-0.0518848442	 0.020339
C	-1.9395006963	-0.3833230219	-1.3769445603	-0.035466
C	-1.0751409284	-0.1152805687	-2.6240323661	-0.400358
C	-2.7881493601	-1.6241552541	-1.5556003029	-0.073372
C	-2.3753842512	-2.6383186964	-0.7982539495	-0.071964
C	-1.1724367211	-2.2776199002	 0.0448973813	-0.052196
C	 0.1003231215	-2.9965709736	-0.4412790752	-0.394331
H	 1.035987747	 1.9437794801	 0.5577309448	 0.109243
H	-0.3918606777	 1.9888256881	-0.4811828947	 0.118163
H	-0.5741008894	 1.7136123085	 1.2525390029	 0.11252
H	 0.8535252209	-0.2274681784	-0.6655416873	 0.098154
H	 0.651830153	-0.4655357451	 1.0561999395	 0.091367
H	-1.8399400215	-0.3817694211	 0.7547403461	 0.071367
H	-2.5705271726	 0.5020338995	-1.2246031871	 0.07
H	-0.4010959912	-0.9508770306	-2.8352806095	 0.120674
H	-1.713232017	 0.0195473764	-3.5042623094	 0.109589
H	-0.470512304	 0.7905459684	-2.5154979458	 0.114806
H	-3.6039896883	-1.6668657074	-2.2705550301	 0.084733
H	-2.8027802112	-3.6362336192	-0.7994144181	 0.085153
H	-1.3251029482	-2.5720132626	 1.0922697143	 0.068479
H	 0.3306512378	-2.7528734116	-1.48284993	 0.119122
H	 0.969391719	-2.7352959849	 0.1707142564	 0.112392
H	-0.0307315093	-4.0824636915	-0.3804616674	 0.108573
102.5181	131.4945	172.848	201.8581	207.8851	236.4447	244.6125	283.8912	300.8628	364.3799	434.8651	494.7465	555.4714	690.6625	709.0839	761.557	780.0489	801.2228	840.9505	898.7446	938.014	951.6238	978.3251	1024.7152	1036.3213	1040.5897	1055.5774	1086.3714	1096.977	1115.1253	1141.3899	1171.1195	1176.5507	1269.8832	1285.818	1309.4688	1316.4669	1337.9618	1356.5027	1368.0158	1373.5007	1391.9034	1407.404	1410.3093	1413.9405	1482.4706	1491.9517	1498.1168	1500.378	1501.5207	1505.3315	1509.6905	1687.5994	2993.575	3006.1419	3019.5867	3020.7908	3031.1178	3032.1661	3035.122	3058.1682	3095.3636	3096.1425	3098.6938	3102.5617	3107.5785	3112.8613	3166.7867	3193.0213
CCC1C(C)C=CC1C	CC[C@H]1[C@@H](C)C=C[C@H]1C	
InChI=1S/C9H16/c1-4-9-7(2)5-6-8(9)3/h5-9H,4H2,1-3H3	InChI=1S/C9H16/c1-4-9-7(2)5-6-8(9)3/h5-9H,4H2,1-3H3/t7-,8+,9-
