17
gdb 29801	3.11492	1.27619	0.91566	3.5357	88.14	-0.2096	-0.0115	0.1981	1261.535	0.135119	-380.887861	-380.878642	-380.877698	-380.922166	33.05	
C	-0.0776396596	 1.4516101392	 0.0425354397	-0.347986
N	-0.0152826726	 0.0036385589	 0.0018759845	-0.044751
C	-0.0233430042	-0.7816205959	-1.1232217297	-0.195003
C	 0.0502704435	-2.0869789526	-0.6912978305	 0.266416
C	 0.0743785075	-3.3370707683	-1.5097810761	-0.497223
N	 0.1033188329	-2.1204406196	 0.6762390948	-0.357574
C	 0.062832238	-0.8564905309	 1.0726730524	 0.183509
C	 0.0933768361	-0.4013349299	 2.4110352696	 0.259873
C	 0.1185627721	 0.0025217214	 3.5456363995	-0.424789
H	 0.7752269972	 1.8903716282	-0.4841905647	 0.1437
H	-1.0025907869	 1.8118862735	-0.4178863506	 0.143702
H	-0.0528705247	 1.7715308482	 1.0845659498	 0.16158
H	-0.0797817099	-0.3500358252	-2.1097363562	 0.125703
H	 0.9888881453	-3.9101113565	-1.3238629297	 0.136161
H	-0.7695357117	-3.9876951137	-1.257255344	 0.136161
H	 0.0238606135	-3.1099818394	-2.5781334398	 0.115429
H	 0.1420461236	 0.3399735127	 4.552236731	 0.195092
71.7844	94.9609	138.8845	146.8505	170.0614	268.1752	299.513	379.7383	463.1866	551.3127	552.5209	573.2751	634.4123	654.6445	685.0419	726.9424	745.9876	804.1388	1004.4488	1023.4045	1063.3074	1078.8375	1152.3032	1190.6754	1206.2733	1324.0534	1388.7959	1411.9299	1431.6557	1473.7974	1476.2027	1484.0378	1489.3845	1505.1596	1517.413	1592.0702	2229.1347	3036.2466	3042.2294	3092.3665	3102.8388	3116.4525	3153.111	3261.6138	3501.2865
CN1C=C(C)N=C1C#C	Cn1cc(C)nc1C#C	
InChI=1S/C7H8N2/c1-4-7-8-6(2)5-9(7)3/h1,5H,2-3H3	InChI=1S/C7H8N2/c1-4-7-8-6(2)5-9(7)3/h1,5H,2-3H3
