19
gdb 32419	2.91325	1.22482	0.92867	0.6	79.25	-0.1795	0.0555	0.235	1289.7508	0.159219	-419.238299	-419.228245	-419.227301	-419.273593	36.282	
C	 0.0057492708	 1.5712204135	-0.1704877949	-0.365164
C	-0.0315217906	 0.0494117378	 0.0635285968	-0.323916
C	-1.4189905189	-0.5229984748	 0.060253977	 0.170773
C	-2.1434050037	-0.9850493098	 1.1425202357	-0.183627
N	-3.3739425341	-1.3825166848	 0.7027065479	-0.262808
C	-3.4767716247	-1.1968960181	-0.6619379243	 0.178875
N	-4.6624692933	-1.5569956061	-1.3401043373	-0.613649
C	-2.2749278293	-0.662652597	-1.0729089259	 0.1754
O	-2.0099991542	-0.3211223992	-2.3760168396	-0.459536
H	 1.0345122901	 1.9461343613	-0.1900618834	 0.105816
H	-0.470795386	 1.8357173718	-1.1203296255	 0.115251
H	-0.5368758672	 2.0954641169	 0.6218840595	 0.121019
H	 0.5862903857	-0.4442501375	-0.7025505116	 0.087411
H	 0.4521858586	-0.1839893347	 1.0186962817	 0.103281
H	-1.8663507973	-1.0562121739	 2.1823500186	 0.112245
H	-4.1085028776	-1.790696899	 1.2533876955	 0.25779
H	-4.4543449395	-2.1390904044	-2.145473192	 0.244351
H	-5.1528954756	-0.740646545	-1.6949569427	 0.242323
H	-1.0603044632	-0.203220587	-2.4696203356	 0.294165
53.058	78.9992	110.1453	190.773	194.9502	236.6341	260.8689	291.5888	310.1954	386.2975	471.6253	517.5863	572.581	641.5643	693.661	718.9342	724.2601	760.8509	796.6317	837.4509	952.0949	1015.9717	1064.7705	1084.6669	1107.943	1210.5124	1224.6406	1243.4324	1284.5515	1305.2552	1341.9815	1370.1044	1405.4477	1441.0389	1485.069	1494.2264	1504.7557	1509.3804	1557.8203	1657.6763	1681.584	2984.0755	3031.713	3055.461	3100.6617	3109.9397	3256.2843	3485.7744	3548.013	3688.4829	3837.066
CCC1=CNC(N)=C1O	CCc1c[nH]c(N)c1O	
InChI=1S/C6H10N2O/c1-2-4-3-8-6(7)5(4)9/h3,8-9H,2,7H2,1H3	InChI=1S/C6H10N2O/c1-2-4-3-8-6(7)5(4)9/h3,8-9H,2,7H2,1H3
