19
gdb 97592	2.93517	0.72543	0.6214	1.5237	81.24	-0.2568	0.027	0.2838	1804.7005	0.157073	-422.966268	-422.955881	-422.954937	-423.003491	36.359	
O	 0.2125529759	 1.0063703964	 0.7489036357	-0.401392
C	-0.1557941088	 0.2025684951	-0.3636706489	-0.194024
C	-1.4429270324	-0.47146556	-0.1991035131	 0.043048
C	-2.5244219131	-0.9852367592	-0.0573699909	 0.067692
C	-3.8129224241	-1.6486559065	 0.1748639525	-0.081532
O	-3.6440881645	-3.0394189933	 0.4435444183	-0.415058
C	-4.6024636456	-0.9404358523	 1.2638112326	 0.026691
C	-5.5184455467	 0.2018494462	 0.9046138867	-0.262022
C	-6.0935771116	-1.1265575881	 1.3281980975	-0.275257
H	-0.522223723	 1.6023306418	 0.9280996295	 0.287463
H	-0.1717494503	 0.7898527246	-1.2958402206	 0.120064
H	 0.6444752465	-0.5377803249	-0.4732019729	 0.142452
H	-4.4040040092	-1.6195201115	-0.7497763228	 0.109788
H	-2.9945048215	-3.1189397263	 1.1508445718	 0.282351
H	-4.0703810796	-0.8606705116	 2.2082409197	 0.085577
H	-5.5850260174	 1.0399835068	 1.5889365222	 0.113687
H	-5.5954759537	 0.478874183	-0.1419187291	 0.115468
H	-6.5547218103	-1.749123375	 0.5687241861	 0.120768
H	-6.5582602705	-1.2018932652	 2.3047486157	 0.114236
26.4511	59.0195	74.3099	128.6662	177.4611	235.6288	261.1074	270.7483	319.4596	361.6792	412.9892	464.1092	572.7711	602.6273	756.1612	799.9013	836.9055	868.9267	942.1124	960.5497	987.9318	1033.0185	1050.7369	1062.8949	1078.9419	1134.0277	1137.1428	1166.5545	1195.8036	1214.835	1224.4532	1267.3292	1298.1166	1359.4072	1411.1993	1414.3666	1420.3378	1472.6448	1489.6394	1506.1853	2351.7332	2976.838	3027.228	3063.2227	3132.1924	3136.103	3142.8071	3210.334	3225.1159	3807.3096	3816.942
OCC#CC(O)C1CC1	OCC#C[C@@H](O)C1CC1	
InChI=1S/C7H10O2/c8-5-1-2-7(9)6-3-4-6/h6-9H,3-5H2	InChI=1S/C7H10O2/c8-5-1-2-7(9)6-3-4-6/h6-9H,3-5H2/t7-/m1/s1
