20
gdb 19307	6.66967	0.87614	0.87081	1.6262	76.5	-0.2296	0.0863	0.3159	1387.945	0.177235	-345.113538	-345.105206	-345.104262	-345.147134	30.554	
C	-0.0965676878	 1.5180160325	 0.2348206309	-0.140437
C	 0.0846486062	 0.0010304626	 0.22474733	-0.140438
N	-1.2115672013	-0.6651029005	 0.2629991726	-0.060004
C	-1.821788497	-0.9703005216	-1.0278942201	-0.219294
C	-1.2382169747	-2.0510375659	-0.1866983678	-0.218936
N	 1.2002180401	 2.1838293713	 0.2549164002	-0.060003
C	 1.785027199	 2.5032075341	-1.0442813646	-0.219295
C	 1.21819011	 3.5746068639	-0.1800140191	-0.218937
H	-0.7097778212	 1.8241768764	-0.6333328709	 0.077782
H	-0.6486905811	 1.8049307509	 1.1362418433	 0.114611
H	 0.6806758043	-0.2955540284	-0.6585645114	 0.077782
H	 0.6543167296	-0.2956647058	 1.111973325	 0.11461
H	-2.8978456157	-0.8357673086	-1.0899480888	 0.11594
H	-1.2746831843	-0.694807192	-1.9288626353	 0.105553
H	-0.3038744002	-2.4945089275	-0.5281109588	 0.108549
H	-1.8798058771	-2.7207179699	 0.3789788063	 0.116238
H	 2.8596447772	 2.3694751363	-1.1289066593	 0.11594
H	 1.2203178917	 2.2375390695	-1.9373035418	 0.105553
H	 0.2773777117	 4.0216910505	-0.4981545434	 0.108548
H	 1.8708263505	 4.2381228222	 0.380264173	 0.116238
66.2014	73.0807	127.551	155.7075	290.8099	327.856	372.3924	443.121	474.5901	757.136	783.1447	811.9004	832.0083	861.3335	894.4396	913.6835	1008.7456	1025.5234	1033.1916	1046.0333	1086.7894	1108.8479	1115.43	1116.8595	1117.741	1128.2447	1165.8864	1171.8135	1186.9612	1211.0355	1262.8602	1310.7066	1320.5641	1327.814	1336.9358	1416.9656	1485.077	1489.3648	1494.9283	1503.1033	1522.6544	1522.832	2927.7172	2932.2838	3061.9095	3074.9791	3090.072	3090.3108	3095.4216	3095.9165	3174.4334	3174.6063	3188.7089	3188.9474
C(CN1CC1)N1CC1	C(CN1CC1)N1CC1	
InChI=1S/C6H12N2/c1-2-7(1)5-6-8-3-4-8/h1-6H2	InChI=1S/C6H12N2/c1-2-7(1)5-6-8-3-4-8/h1-6H2
