21
gdb 75332	2.66875	1.4264	1.05584	1.7897	84.58	-0.2318	0.0315	0.2633	1219.1703	0.182134	-387.108321	-387.099501	-387.098557	-387.141362	34.323	
C	-0.4142593839	 1.5223918919	 0.0536148331	-0.473805
C	-0.0275511461	 0.069745485	-0.0170773722	 0.328833
C	-0.10595798	-0.6318636743	-1.1481477842	-0.152072
C	 0.2569146764	-2.0828117673	-1.293120755	-0.292922
C	 0.9713730059	-2.6528590867	-0.0917052529	-0.000672
O	 2.1865404777	-1.9988613789	 0.2957997817	-0.298506
C	 1.0558369356	-1.9186015836	 1.1806495931	 0.395701
C	 1.2226837168	-2.6639704543	 2.4853142014	-0.467377
C	 0.4377064612	-0.5370365506	 1.285212625	-0.367124
H	 0.4361085673	 2.1421083878	 0.3669704939	 0.123796
H	-0.7683605012	 1.8936854342	-0.9116115413	 0.119519
H	-1.2078965433	 1.6887736104	 0.7940839332	 0.118434
H	-0.4604553862	-0.1378424784	-2.0503604145	 0.0763
H	-0.6473273193	-2.6826293255	-1.4778509847	 0.108904
H	 0.8864144202	-2.2265876539	-2.183010207	 0.116795
H	 1.0286695661	-3.742494836	-0.0577400119	 0.07797
H	 1.7346474277	-3.6151635718	 2.3198459624	 0.126689
H	 1.8182077607	-2.0749734153	 3.1921191459	 0.123312
H	 0.2517521834	-2.8642045718	 2.9512086071	 0.117988
H	 1.1667573729	 0.1336171387	 1.7646292373	 0.110699
H	-0.4106700319	-0.5828816498	 1.9848003099	 0.107538
90.4525	170.4693	195.0139	227.6599	265.1905	275.0713	347.3282	386.0893	408.2158	445.2867	483.0768	537.4076	676.5154	735.8544	804.0043	830.8683	888.3524	909.9797	919.2419	952.8063	982.3324	1006.9596	1052.1084	1061.213	1087.2127	1106.1189	1115.1298	1174.5517	1218.9877	1246.8933	1262.5203	1315.1376	1357.1957	1377.8133	1399.2948	1413.7071	1414.7305	1459.364	1466.1633	1473.5195	1478.7401	1490.3791	1492.5837	1509.761	1753.8716	2991.3867	2994.6268	3012.4648	3013.993	3019.6917	3032.0031	3056.7139	3088.8126	3094.0353	3111.526	3121.5633	3145.4042
CC1=CCC2OC2(C)C1	CC1=CC[C@H]2O[C@@]2(C)C1	
InChI=1S/C8H12O/c1-6-3-4-7-8(2,5-6)9-7/h3,7H,4-5H2,1-2H3	InChI=1S/C8H12O/c1-6-3-4-7-8(2,5-6)9-7/h3,7H,4-5H2,1-2H3/t7-,8+/m1/s1
