19
gdb 84229	2.89772	1.54175	1.33909	1.2241	82.52	-0.21	-0.0363	0.1738	1040.7559	0.158613	-385.78375	-385.775836	-385.774892	-385.815602	31.99	
C	 0.0494406893	 1.5532513133	-0.0662295957	-0.398239
C	-0.0069352529	 0.0215109445	-0.0362242451	-0.028977
C	 0.8458201268	-0.5659798275	-1.1672652506	-0.093807
C	 1.6035882235	-1.5797654601	-0.7031814651	-0.050965
C	 3.0172416258	-1.2140963961	-0.2134642593	-0.26401
C	 2.2713057938	-1.063279163	 1.1623106008	-0.155432
C	 0.7102051221	-0.6491208288	 1.1561557571	-0.095924
C	 1.1626359836	-1.9777275427	 0.731670419	 0.361798
O	 0.6913021603	-3.187631901	 1.1917399248	-0.468094
H	 1.0851962251	 1.9080953797	-0.0926901294	 0.118745
H	-0.4716425055	 1.9546515841	-0.941497259	 0.116052
H	-0.4243319908	 1.9692252094	 0.8290239224	 0.116983
H	-1.0629041992	-0.2868807548	-0.0230625671	 0.087692
H	 1.1828551461	 0.091214665	-1.9666824004	 0.093033
H	 3.7507822319	-2.0262236813	-0.1404939866	 0.09919
H	 3.4787952033	-0.3377145785	-0.6769819077	 0.101989
H	 2.7711316212	-1.0355351603	 2.1277942521	 0.092591
H	 0.3371551888	-0.5091671302	 2.1700026219	 0.081693
H	 1.330109037	-3.8715919015	 0.9606775976	 0.285681
123.7564	209.6311	240.0673	256.8044	287.7383	334.2748	415.2288	471.8962	550.0699	560.3006	595.8101	669.652	730.192	797.067	849.8276	854.4799	898.9942	919.5149	943.6249	962.6978	995.6908	1023.0409	1047.4141	1049.3709	1089.6331	1101.642	1110.7606	1145.1448	1170.6678	1227.9875	1261.1155	1270.1502	1283.6082	1322.5827	1350.1969	1404.1315	1482.3179	1493.1761	1496.923	1505.1224	1585.9104	2987.456	3021.8699	3029.9137	3091.1168	3101.0706	3102.501	3126.4479	3141.4184	3142.8749	3790.2814
CC1C=C2CC3C1C23O	C[C@H]1[CH][C]2C[C@H]3[C@@H]1[C@@]23O	
InChI=1S/C8H10O/c1-4-2-5-3-6-7(4)8(5,6)9/h2,4,6-7,9H,3H2,1H3	InChI=1S/C8H10O/c1-4-2-5-3-6-7(4)8(5,6)9/h2,4,6-7,9H,3H2,1H3/t4-,6-,7+,8+/m0/s1
