16
gdb 44364	3.5419	1.61731	1.35639	2.7647	66.74	-0.2535	0.0056	0.2591	932.7392	0.126879	-437.876641	-437.870168	-437.869224	-437.907599	26.078	
O	 0.0254114619	 0.1251417006	 0.8726390029	-0.322865
C	 0.0013423941	 1.0971922804	 0.1707145684	 0.416194
C	-1.3026977114	 1.7725140392	-0.256488427	-0.39468
C	-1.1904703507	 3.221711232	-0.7010480662	-0.021778
C	 0.1360891081	 3.8589213857	-0.7789764837	-0.073291
C	 1.1171982699	 2.754706947	-1.1566694177	 0.083668
C	 0.2986134073	 2.5919594061	-2.4612538958	-0.19389
N	-0.6929516243	 3.6357600604	-2.0345522437	-0.147085
O	 1.1678697117	 1.638992178	-0.2638889569	-0.227884
H	-1.7629219854	 1.1503521098	-1.0338376578	 0.151655
H	-1.9664257416	 1.7001047499	 0.6082010912	 0.15156
H	-2.0124461604	 3.8597940414	-0.391884425	 0.115185
H	 0.3779207354	 4.8426594898	-0.3944762059	 0.106186
H	 2.1538260642	 3.0536934602	-1.2994018922	 0.113079
H	 0.8370760187	 2.944969935	-3.3425303497	 0.12731
H	-0.1202661876	 1.6032851246	-2.671304191	 0.116635
89.8096	249.8483	371.4393	391.9872	452.2013	475.5813	557.3661	602.8569	729.2437	734.8618	758.507	795.2418	871.27	892.1942	936.5203	965.8038	969.7393	1021.8813	1046.4074	1066.2622	1091.9882	1124.5254	1174.1556	1186.4757	1227.2314	1236.1323	1256.0675	1294.4389	1325.8676	1341.8842	1400.0325	1423.6471	1454.3959	1502.1156	1852.7602	3046.3622	3061.407	3107.9121	3120.3427	3137.9755	3161.5025	3187.2019
O=C1CC2C3C(CN23)O1	O=C1C[C@H]2[C@H]3[C@H](CN23)O1	
InChI=1S/C6H7NO2/c8-5-1-3-6-4(9-5)2-7(3)6/h3-4,6H,1-2H2	InChI=1S/C6H7NO2/c8-5-1-3-6-4(9-5)2-7(3)6/h3-4,6H,1-2H2/t3-,4-,6-,7?/m0/s1
