15
gdb 34168	3.89106	1.62652	1.41888	4.9317	72.32	-0.25	0.0003	0.2503	900.3226	0.114705	-379.589763	-379.583557	-379.582613	-379.620254	25.29	
N	 0.036862382	-1.0938891271	-0.0408578689	-0.337936
C	-0.0058878893	 0.0612820984	-0.0181881446	 0.184279
C	-0.0488083805	 1.502987274	 0.0388046216	 0.237587
C	-1.083999303	 2.2734665598	 0.8860069584	-0.28342
C	-0.8081055811	 3.377382078	-0.1465084053	-0.023347
C	 0.6863039467	 3.7241746519	-0.1213028954	-0.096375
C	 0.9361252244	 2.8728263346	-1.3293683775	-0.021833
C	 1.2693104566	 2.30441855	 0.0140191171	-0.139961
N	-0.4764586332	 2.3098016074	-1.2183737023	-0.199136
H	-2.0823309194	 1.8472705	 0.7648409938	 0.136946
H	-0.8573328961	 2.4542601759	 1.9380117246	 0.118885
H	-1.5404530278	 4.141969665	-0.3996972624	 0.094978
H	 1.2034773768	 4.604251971	 0.2364324966	 0.105093
H	 1.4947574082	 3.0033885415	-2.2461217518	 0.111925
H	 2.2216402457	 2.0804585996	 0.4735340961	 0.112315
151.3973	166.9817	393.5126	470.3286	516.3797	540.3048	575.8986	744.6116	790.1876	797.9997	811.3012	837.0881	843.5301	891.7512	921.7869	935.6803	971.6564	1002.4855	1018.6665	1028.9646	1040.6855	1058.6102	1089.2269	1143.2036	1184.2309	1198.6306	1225.1555	1236.8581	1277.6337	1303.9415	1360.2645	1475.3134	2354.0575	3076.8	3134.7545	3143.9337	3202.2018	3209.2083	3224.2331
N#CC12CC3C4C(C14)N23	N#C[C@@]12C[C@H]3[C@@H]4[C@@H]([C@H]14)N23	
InChI=1S/C7H6N2/c8-2-7-1-3-4-5(7)6(4)9(3)7/h3-6H,1H2	InChI=1S/C7H6N2/c8-2-7-1-3-4-5(7)6(4)9(3)7/h3-6H,1H2/t3-,4-,5+,6-,7-/m0/s1
