17
gdb 102156	2.45299	1.20559	0.9115	1.7701	69.7	-0.2542	0.0063	0.2605	1276.1083	0.134237	-455.179619	-455.169673	-455.168729	-455.215199	34.716	
C	 0.1279588019	 1.5302072672	 0.8385577787	-0.251675
O	 0.3096471062	 0.2571286771	 0.2382905557	-0.2306
C	-0.8672777944	-0.3685062726	-0.1745721073	 0.027438
C	-0.3948879538	-1.6130362688	-0.9664680581	-0.351648
C	-1.4751066321	-2.2612220714	-1.7000467677	 0.260397
N	-2.363141137	-2.7347682715	-2.2690938905	-0.317787
C	-1.7632460313	-0.7844019985	 1.02239645	 0.358738
N	-3.0565156663	-1.0664220651	 0.6942764977	-0.516155
O	-1.3335778127	-0.8292070652	 2.1559367178	-0.347806
H	 1.1269345676	 1.9304367123	 1.0219673654	 0.134805
H	-0.4099856396	 2.2124420935	 0.1628991399	 0.105161
H	-0.4115473086	 1.4514173527	 1.7873387617	 0.144825
H	-1.4491782337	 0.2853832673	-0.8463567185	 0.09413
H	 0.376145033	-1.2849305067	-1.6700002336	 0.170146
H	 0.070792063	-2.3241105962	-0.2765332508	 0.177525
H	-3.3386678608	-1.2146783165	-0.2619389411	 0.275689
H	-3.6299180615	-1.4769947878	 1.4152986209	 0.266816
43.5981	83.5787	123.3332	142.8002	198.0451	214.8006	271.0311	298.3887	392.2575	404.8678	431.5373	453.3368	521.4138	574.1436	650.9771	747.8553	762.8647	944.7138	980.4534	1025.9095	1063.1058	1104.199	1166.9876	1177.9567	1195.2191	1233.2147	1284.6361	1308.0471	1351.5016	1407.9675	1465.5583	1480.0161	1484.3455	1513.4992	1629.2611	1808.3027	2358.1851	2962.6175	2992.6442	3061.9584	3086.1162	3107.4887	3134.1845	3576.7252	3703.4872
COC(CC#N)C(N)=O	CO[C@@H](CC#N)C(=O)N	
InChI=1S/C5H8N2O2/c1-9-4(2-3-6)5(7)8/h4H,2H2,1H3,(H2,7,8)	InChI=1S/C5H8N2O2/c1-9-4(2-3-6)5(7)8/h4H,2H2,1H3,(H2,7,8)/t4-/m0/s1
