16
gdb 45295	3.	1.73509	1.31659	4.8058	68.22	-0.2391	-0.0104	0.2286	958.9946	0.12569	-437.850101	-437.843263	-437.842319	-437.881422	26.731	
O	-0.2421126145	 0.1747847255	 0.2981274529	-0.325585
C	-0.0491204262	 1.2956236315	-0.0380900275	 0.437734
O	-0.9762703259	 2.2101035597	-0.5210525482	-0.268614
C	 0.0441379145	 3.219616319	-0.7951584359	 0.051989
C	 0.2516199745	 4.2113231832	 0.3668007844	-0.212832
N	 1.1949680249	 3.2634739648	 1.0462851769	-0.144153
C	 2.6450267655	 3.4536944806	 0.6883332395	-0.171528
C	 2.6046608394	 2.227712188	-0.2660475048	-0.36563
C	 1.0927403417	 2.2986112232	-0.1287035722	 0.156345
H	 0.0077900755	 3.5408631744	-1.8351221634	 0.106745
H	 0.7257834079	 5.1517067462	 0.0650857697	 0.113859
H	-0.6435112536	 4.4286162384	 0.9549892885	 0.130931
H	 2.8415871209	 4.4030337367	 0.175403529	 0.104627
H	 3.3061409097	 3.3789116614	 1.5546737517	 0.122702
H	 3.0220965268	 2.3398839976	-1.2677305562	 0.121168
H	 3.0036356389	 1.3182877199	 0.1885221557	 0.142242
129.509	154.7931	242.717	303.8206	419.1229	439.989	586.3937	671.4694	693.2482	729.2943	794.6814	809.9741	839.8356	884.1824	915.2037	945.0687	954.8592	1009.4628	1017.8486	1066.3161	1102.427	1145.1712	1164.1042	1178.0021	1204.9779	1224.6254	1259.6176	1289.4246	1303.3174	1316.4865	1353.4635	1476.1352	1477.1179	1513.1697	1942.0898	3028.1485	3042.9459	3078.7714	3097.1793	3105.8274	3126.0743	3134.7642
O=C1OC2CN3CCC123	O=C1O[C@H]2CN3CC[C@]123	
InChI=1S/C6H7NO2/c8-5-6-1-2-7(6)3-4(6)9-5/h4H,1-3H2	InChI=1S/C6H7NO2/c8-5-6-1-2-7(6)3-4(6)9-5/h4H,1-3H2/t4-,6+/m0/s1
