17
gdb 30930	2.2881	1.35867	0.8913	4.34	73.06	-0.1925	0.0265	0.219	1269.7045	0.13646	-455.20797	-455.198846	-455.197902	-455.242018	33.251	
C	 0.1390161007	 1.5635121183	 0.0641036573	-0.504184
C	-0.0251313037	 0.0839629598	 0.0223557922	 0.225494
C	-1.1311827897	-0.6993132587	-0.0125822222	 0.198404
C	-2.5830371637	-0.3745877738	-0.0362066163	-0.181947
O	-3.2711744371	-1.0330994538	-1.0985985764	-0.414118
N	-0.69606785	-2.0302510529	-0.0022395783	-0.388466
C	 0.6874541893	-2.1147086728	 0.0044214951	 0.434058
O	 1.3944972157	-3.1016271088	-0.0233605469	-0.429522
N	 1.0739964598	-0.7768706648	 0.0487126834	-0.395512
H	 0.7700775016	 1.9199951373	-0.7593747272	 0.134184
H	-0.8285081464	 2.0631727908	-0.0155779502	 0.139519
H	 0.6075102385	 1.894034103	 0.9994684455	 0.138672
H	-3.0807054459	-0.7301129898	 0.8743677431	 0.123747
H	-2.7159324648	 0.7156876321	-0.0732037353	 0.101498
H	-2.8397751832	-0.7779667058	-1.9216612016	 0.283876
H	-1.2863888658	-2.8302833569	-0.1498813218	 0.270791
H	 2.0421094447	-0.5077268331	 0.0603343396	 0.263507
71.9651	121.8329	160.0947	181.9924	242.8718	260.8227	295.4546	366.1931	415.4091	430.3532	519.4846	552.368	620.5985	625.4831	691.6848	756.8964	834.4602	966.3119	990.8984	1009.129	1040.5625	1063.5547	1115.321	1199.6928	1232.479	1262.4436	1321.8712	1368.4278	1400.3917	1415.2758	1427.9943	1448.1684	1476.1692	1494.304	1501.3869	1717.5838	1846.4613	3007.2669	3020.9078	3050.8784	3065.2395	3128.8544	3688.4898	3689.0127	3802.012
CC1=C(CO)NC(=O)N1	Cc1c(CO)[nH]c(=O)[nH]1	
InChI=1S/C5H8N2O2/c1-3-4(2-8)7-5(9)6-3/h8H,2H2,1H3,(H2,6,7,9)	InChI=1S/C5H8N2O2/c1-3-4(2-8)7-5(9)6-3/h8H,2H2,1H3,(H2,6,7,9)
