18
gdb 104599	2.32896	1.27425	1.06748	3.0432	68.12	-0.2578	0.048	0.3058	1206.8187	0.146004	-476.24462	-476.234993	-476.234048	-476.279438	35.235	
N	-2.1693931321	 0.5994223165	-1.8572564771	-0.560559
C	-2.0689074843	-0.7321705523	-1.5689866495	 0.470851
O	-2.4643066673	-1.6318765004	-2.2685053551	-0.388574
O	-1.4135271456	-0.8836250149	-0.3783617958	-0.319046
C	-1.1854947038	-2.2217625156	 0.0613640253	 0.438348
C	-0.0290432328	-2.8778966279	-0.6541062717	-0.137075
O	 1.195883017	-2.1964432071	-0.4350122875	-0.421386
C	-1.382482081	-2.4057915428	 1.5346901257	-0.31664
C	-2.3642459254	-3.0053065724	 0.5488045679	-0.30701
H	-2.7931480756	 0.8465201054	-2.6060512967	 0.270826
H	-2.0172202661	 1.2707109495	-1.1239347066	 0.265758
H	 0.1057906168	-3.891238697	-0.2636063654	 0.106931
H	-0.2644106557	-2.9569723825	-1.7240288837	 0.118438
H	 1.0626699168	-1.2843488896	-0.7141242036	 0.285236
H	-0.6904296953	-3.0572734279	 2.0559675482	 0.124527
H	-1.7071321452	-1.5396679224	 2.0994299938	 0.120696
H	-3.338278886	-2.5400769025	 0.4588285011	 0.125673
H	-2.3631811247	-4.0775105261	 0.3861563808	 0.123006
67.624	74.736	116.5158	177.1012	209.3167	296.6678	320.7668	341.7871	362.3674	409.3185	443.3308	519.3414	552.8716	662.1784	756.5229	769.2926	786.6956	871.7814	914.0698	923.2922	998.2488	1032.6785	1046.7553	1057.8513	1071.4343	1080.4809	1117.2886	1182.4558	1186.3763	1281.7208	1345.5171	1362.1298	1376.5736	1432.4267	1458.4095	1497.0333	1506.8844	1609.8788	1839.8819	3020.4514	3087.2625	3141.6039	3144.9641	3224.2646	3237.4081	3614.443	3744.7601	3813.5937
NC(=O)OC1(CO)CC1	NC(=O)OC1(CO)CC1	
InChI=1S/C5H9NO3/c6-4(8)9-5(3-7)1-2-5/h7H,1-3H2,(H2,6,8)	InChI=1S/C5H9NO3/c6-4(8)9-5(3-7)1-2-5/h7H,1-3H2,(H2,6,8)
