17
gdb 18964	6.48129	1.42307	1.41933	1.4047	69.02	-0.2334	0.0713	0.3047	934.7266	0.14243	-363.743162	-363.736274	-363.73533	-363.774422	26.104	
C	-0.2241681825	 1.350115076	 0.0932019748	-0.239168
O	 0.3746662775	 0.0963411999	-0.1597038217	-0.256558
C	 0.8640514881	-0.5247168814	 0.9909130891	 0.155776
C	-0.0943284664	-1.3610972994	 1.8593960852	-0.056227
C	-0.1536583197	-2.5392332612	 0.8379034157	-0.056937
C	 0.2702985855	-3.4907145913	 1.9500218556	-0.183992
N	 1.0924012459	-2.2555453185	 2.3180523144	-0.171015
C	 1.2993568547	-1.9727526276	 0.8024880087	-0.059006
H	 0.4809201377	 2.0447845901	 0.5747112058	 0.109378
H	-0.5266756225	 1.7649672909	-0.8709168975	 0.129854
H	-1.1127475789	 1.2599087742	 0.7353316968	 0.108822
H	 1.5599849206	 0.1187611046	 1.5495412047	 0.077957
H	-0.8595852285	-1.0608899176	 2.5774120954	 0.079612
H	-0.8437403361	-2.6753274101	 0.0016084112	 0.075587
H	-0.4679851105	-3.7625038889	 2.7119651119	 0.10044
H	 0.8854285247	-4.3577897272	 1.6867842764	 0.101332
H	 2.1643622405	-2.3785126425	 0.2757671436	 0.084144
84.5163	165.0384	185.7139	280.4944	374.8282	486.3254	551.3714	713.5255	802.2486	818.1394	847.6293	864.645	910.5978	928.3193	959.0611	1028.9421	1030.849	1033.7888	1072.7903	1101.9212	1126.4017	1157.07	1166.0379	1173.1892	1185.1698	1200.0967	1232.1886	1250.1621	1258.6673	1274.1684	1320.0525	1390.2244	1483.3797	1490.8192	1508.4382	1520.0793	2979.998	3002.9904	3029.5937	3033.8808	3074.7241	3092.3578	3100.0139	3110.0078	3119.2548
COC1C2C3CN2C13	CO[C@H]1[C@H]2[C@@H]3CN2[C@H]13	
InChI=1S/C6H9NO/c1-8-6-4-3-2-7(4)5(3)6/h3-6H,2H2,1H3	InChI=1S/C6H9NO/c1-8-6-4-3-2-7(4)5(3)6/h3-6H,2H2,1H3/t3-,4+,5-,6-
