20
gdb 12867	2.56086	2.2901	1.73701	0.217	79.56	-0.2211	0.0241	0.2452	891.3397	0.177424	-311.876721	-311.868838	-311.867894	-311.908223	31.064	
C	-0.0958702089	 1.5583150076	 0.0119567418	-0.420106
C	 0.0491817608	 0.0547618607	 0.0659632785	-0.040027
C	 1.3443005887	-0.7005825491	-0.2376619478	-0.136948
C	 2.6219896078	 0.0558067378	-0.1313879823	-0.070241
C	 2.8335005375	 0.5030538169	 1.1094539481	-0.077407
C	 1.731552727	 0.0776898569	 2.0552210632	-0.329749
C	 0.7479052248	-0.7053175901	 1.1699792373	 0.330127
C	 0.0868727589	-1.9256524944	 1.7675341119	-0.483343
H	 0.8341575025	 2.0704818463	 0.2690616586	 0.124121
H	-0.3862662915	 1.8840253232	-0.9931176989	 0.112336
H	-0.8723590972	 1.8997733038	 0.7064540855	 0.111551
H	-0.8302375794	-0.4693411721	-0.3052733669	 0.07654
H	 1.2844559871	-1.567673532	-0.8885697977	 0.07649
H	 3.2733600753	 0.2323126291	-0.9803638464	 0.089887
H	 3.6693853655	 1.1178435413	 1.4247579467	 0.089537
H	 2.1186858036	-0.5563517959	 2.8654104096	 0.10108
H	 1.2574229991	 0.9381987788	 2.5471028874	 0.106215
H	-0.5780980622	-1.6542105602	 2.5968327085	 0.114316
H	-0.5162899878	-2.4563387239	 1.0237119057	 0.111939
H	 0.8305436186	-2.6303442945	 2.1584473873	 0.113683
164.1206	193.36	212.3305	221.2496	228.7215	320.3812	392.3763	477.6471	549.1955	580.4629	710.2349	721.4656	760.5522	828.5659	865.9976	919.1771	949.7602	955.3601	961.5507	976.5979	1032.0926	1042.8581	1086.59	1104.8827	1119.0428	1121.8644	1150.5133	1185.3681	1232.4505	1278.7276	1316.1615	1346.0848	1377.0777	1406.0632	1417.1829	1444.8359	1477.0191	1489.2737	1495.9477	1500.3428	1502.2614	1666.8921	3004.7899	3016.9728	3028.2645	3029.9161	3073.6196	3082.3843	3093.5756	3107.7414	3123.5533	3150.7313	3180.3835	3205.469
CC1C2C=CCC12C	C[C@H]1[C@H]2C=CC[C@@]12C	
InChI=1S/C8H12/c1-6-7-4-3-5-8(6,7)2/h3-4,6-7H,5H2,1-2H3	InChI=1S/C8H12/c1-6-7-4-3-5-8(6,7)2/h3-4,6-7H,5H2,1-2H3/t6-,7+,8-/m0/s1
