19
gdb 109249	3.48711	1.22068	1.05458	1.8693	76.49	-0.2251	0.0173	0.2424	1178.3506	0.160401	-423.004218	-422.996256	-422.995312	-423.036788	30.902	
O	 0.0315381652	 1.4215401065	 0.0054871466	-0.41251
C	-0.0056709782	 0.0087219915	-0.0340132893	-0.189473
C	-1.4218033162	-0.4734866414	-0.0023083903	 0.334403
C	-2.5077614214	 0.3003336711	-0.0134916626	-0.162096
C	-3.8720372426	-0.3577191588	 0.0192457396	-0.264251
C	-3.6937142079	-1.881050198	 0.0990777494	 0.09215
C	-2.6737172913	-2.2885373929	 1.1864215375	-0.241442
C	-1.6835706579	-1.9703573564	 0.0412841839	-0.019238
O	-2.7337434616	-2.2864107581	-0.9226493274	-0.293471
H	 0.9466783672	 1.6998803178	-0.0875200764	 0.290583
H	 0.4828474536	-0.3820469032	-0.9453197809	 0.100508
H	 0.5470115503	-0.4309318739	 0.8173554632	 0.092315
H	-2.4326802278	 1.3807266955	-0.0596681033	 0.107879
H	-4.4626235953	 0.0006469302	 0.8738144124	 0.103867
H	-4.4441729914	-0.0987959867	-0.8816139002	 0.114146
H	-4.6360900995	-2.4296293923	 0.0208908447	 0.073697
H	-2.6098141147	-1.7023313671	 2.1050001695	 0.10065
H	-2.7265932371	-3.3569024773	 1.4030926636	 0.105436
H	-0.7925246234	-2.5887681666	-0.0987835301	 0.066847
81.125	158.9856	200.8558	234.6278	301.1077	357.7858	371.3226	447.456	552.0298	585.1643	675.9674	787.1584	819.6062	840.8773	870.7223	895.5816	946.3847	961.444	971.3551	999.8311	1045.501	1063.1683	1071.448	1098.8973	1114.3902	1168.5658	1176.1725	1216.6775	1228.1126	1250.4421	1251.779	1287.3784	1324.7246	1341.6187	1364.0269	1372.8428	1463.7994	1466.3101	1486.6011	1506.7046	1733.089	2926.6519	2941.4622	3011.6602	3040.9916	3066.4589	3072.3507	3080.2279	3136.2778	3199.6596	3840.4622
OCC1=CCC2CC1O2	OCC1=CC[C@@H]2C[C@H]1O2	
InChI=1S/C7H10O2/c8-4-5-1-2-6-3-7(5)9-6/h1,6-8H,2-4H2	InChI=1S/C7H10O2/c8-4-5-1-2-6-3-7(5)9-6/h1,6-8H,2-4H2/t6-,7-/m1/s1
