13
gdb 35595	3.98067	1.05475	0.90893	4.8864	71.73	-0.2837	-0.0615	0.2222	1216.8502	0.08882	-415.585472	-415.577538	-415.576594	-415.61889	28.227	
C	-0.3015334558	-1.2442321319	-0.2307281894	-0.445162
C	-0.0955515691	-0.0678622283	-0.1043963608	 0.333513
C	 0.1091378544	 1.3591537407	 0.0675457684	-0.095138
C	-0.4715988195	 1.9447148852	 1.3999287189	-0.205699
N	 0.6893837988	 2.4647511235	 2.1281541884	-0.29532
C	 1.6917153703	 2.2527393533	 1.3801723887	 0.328361
O	 1.5387699711	 1.6569865324	 0.1725477705	-0.248236
C	 3.042216457	 2.611639208	 1.7142925863	 0.291043
N	 4.1287958847	 2.9014923197	 1.9766623283	-0.307599
H	-0.4757396148	-2.2858279312	-0.3491312722	 0.217978
H	-0.2534428721	 1.9027851557	-0.8093567982	 0.136685
H	-1.1840510056	 2.7537186224	 1.2149711389	 0.140736
H	-0.9746653694	 1.1794607304	 1.9961201323	 0.148838
41.037	128.5872	168.1295	199.7526	235.4287	414.3074	475.689	491.0138	569.2017	604.5675	634.9626	691.1882	707.7577	753.694	828.4876	946.1797	961.6354	1016.8928	1042.868	1063.7374	1201.4886	1238.2419	1304.4062	1334.4384	1376.5001	1489.3858	1707.4043	2244.5505	2375.5125	3061.849	3070.7446	3108.8245	3498.8726
C#CC1CN=C(O1)C#N	C#C[C@H]1CN=C(O1)C#N	
InChI=1S/C6H4N2O/c1-2-5-4-8-6(3-7)9-5/h1,5H,4H2	InChI=1S/C6H4N2O/c1-2-5-4-8-6(3-7)9-5/h1,5H,4H2/t5-/m0/s1
