22
gdb 11460	4.65293	1.12288	0.99348	1.2073	78.04	-0.2615	0.0796	0.3411	1248.1849	0.201091	-350.223452	-350.2145	-350.213556	-350.257431	33.46	
C	-0.0532274584	 1.5463509344	 0.0286328728	-0.405778
C	 0.0961915254	 0.0284559514	-0.0420176388	 0.056919
C	 1.0938018752	-0.4808207622	-1.096451158	-0.201128
C	 1.3086513209	-1.9571028765	-0.7189832029	-0.220812
C	 1.1687730366	-2.0149905509	 0.8327885315	 0.047779
C	 2.4802946599	-2.3444737565	 1.5352320646	-0.088035
O	 2.8636492498	-3.663854323	 1.1741936523	-0.422657
C	 0.6246668807	-0.6232886775	 1.250625156	-0.23663
H	 0.9096757364	 2.0234429003	 0.2475321709	 0.109086
H	-0.4196758199	 1.9564978995	-0.9186207126	 0.110099
H	-0.7572772925	 1.8446294268	 0.813142225	 0.10953
H	-0.8864219418	-0.4105468187	-0.2695271777	 0.068001
H	 0.7412600015	-0.3459174628	-2.1238820416	 0.088171
H	 2.0333454151	 0.0812665947	-1.0028545534	 0.087786
H	 0.5364672431	-2.5766809292	-1.1866577636	 0.09482
H	 2.2706019885	-2.3554907315	-1.0517245075	 0.103094
H	 0.4569119295	-2.7998101205	 1.1087365646	 0.075687
H	 3.2495395223	-1.6117895156	 1.236005378	 0.078931
H	 2.3502824005	-2.2533966577	 2.6262834518	 0.081801
H	 3.7153935088	-3.8518620674	 1.5786331688	 0.284543
H	 1.4436384614	-0.0061840497	 1.6482433747	 0.086475
H	-0.1331297832	-0.6838975873	 2.0376065652	 0.092316
34.0387	124.476	151.9804	228.87	242.3117	270.3693	292.3668	372.7749	422.4808	436.2514	546.4445	631.1044	778.2587	829.5539	864.7484	906.3731	919.8037	941.8593	988.5759	993.2478	1030.1032	1055.8011	1068.5893	1092.3991	1128.4104	1161.0339	1181.8581	1223.4088	1244.2677	1257.5387	1265.31	1291.4846	1313.5359	1331.0391	1341.0671	1352.7646	1367.7598	1390.8286	1408.8938	1456.3461	1485.5138	1493.5498	1496.617	1500.2545	1506.3146	1519.5881	2949.4742	2979.6186	2991.0849	3004.1514	3016.4387	3023.4934	3041.352	3054.9207	3076.201	3079.9772	3088.8721	3093.0012	3099.0621	3831.055
CC1CCC(CO)C1	C[C@H]1CC[C@@H](CO)C1	
InChI=1S/C7H14O/c1-6-2-3-7(4-6)5-8/h6-8H,2-5H2,1H3	InChI=1S/C7H14O/c1-6-2-3-7(4-6)5-8/h6-8H,2-5H2,1H3/t6-,7+/m0/s1
