15
gdb 10901	3.21314	2.059	1.44591	4.4493	61.75	-0.2268	-0.0252	0.2016	862.2687	0.117907	-399.766208	-399.758576	-399.757632	-399.798066	28.227	
C	-0.0950533688	 1.5374926325	 0.0607621999	-0.514739
C	 0.1423148132	 0.064292251	-0.0289946011	 0.204367
N	-0.7544022102	-0.9463580135	 0.6462738831	-0.387232
C	 0.6858342815	-0.9475925855	 0.9484401246	-0.144123
C	 1.2833749946	-1.8285527659	-0.1634138836	 0.037293
O	 0.8409510071	-3.1466526868	-0.259379564	-0.428167
C	 0.7501939144	-0.7308576016	-1.1681722045	 0.360039
O	 0.9207435146	-0.5126803276	-2.3310637504	-0.303556
H	 0.7852738071	 2.090081918	-0.2812788875	 0.144083
H	-0.9394548853	 1.8347861012	-0.5696088708	 0.147764
H	-0.3129362466	 1.8444847951	 1.0892948722	 0.123331
H	-1.2395961809	-0.4435888607	 1.3893576243	 0.239999
H	 1.0640152701	-0.7711692929	 1.9472979356	 0.110878
H	 2.3780052726	-1.8360641781	-0.176487931	 0.113349
H	-0.1205405135	-3.1099410051	-0.1643356769	 0.296713
92.8674	172.1323	198.7249	223.8596	276.3052	326.8927	476.4334	497.2327	565.678	617.6677	652.2407	769.1161	810.0636	828.461	912.4132	956.5988	970.6415	1036.0428	1044.072	1083.794	1103.7523	1146.66	1202.0607	1263.1123	1292.0235	1338.576	1403.3821	1431.2694	1440.73	1479.8699	1494.1169	1894.6838	3034.0105	3075.8167	3101.235	3108.6685	3202.7827	3470.3161	3760.8664
CC12NC1C(O)C2=O	C[C@]12N[C@H]1[C@@H](O)C2=O	
InChI=1S/C5H7NO2/c1-5-3(6-5)2(7)4(5)8/h2-3,6-7H,1H3	InChI=1S/C5H7NO2/c1-5-3(6-5)2(7)4(5)8/h2-3,6-7H,1H3/t2-,3+,5+/m1/s1
