15
gdb 11740	5.40442	1.36045	1.2551	4.2378	61.78	-0.247	0.0072	0.2543	954.6412	0.118911	-399.783038	-399.775663	-399.774719	-399.814789	27.57	
O	 0.6131992137	 0.2076129181	 0.8889783096	-0.40334
C	-0.0409884137	 0.1800975722	-0.3672122266	-0.17641
C	-1.4343011148	-0.386274135	-0.2763073275	 0.353741
C	-2.3415742374	-0.3478523146	 0.9125022484	-0.330381
C	-1.9054495639	-1.699236276	 0.324800632	-0.263873
C	-2.6855960157	-1.898700025	-0.9631439213	 0.43331
O	-3.4443234926	-2.7094158327	-1.4092534194	-0.339116
N	-2.179195105	-0.6934293432	-1.507126437	-0.403646
H	 0.2733342247	 0.9578463441	 1.3860248834	 0.291223
H	-0.0747538477	 1.1797954291	-0.8286042438	 0.09747
H	 0.5600525281	-0.4560571408	-1.02528689	 0.13159
H	-1.877453633	-0.1257430313	 1.8690129304	 0.12232
H	-3.3715517892	-0.0173362739	 0.8132162014	 0.121444
H	-1.3606014517	-2.4308777629	 0.9033563371	 0.127017
H	-2.7723077119	-0.0218528781	-1.9839383064	 0.23865
79.2601	156.87	199.0456	299.4744	339.14	384.3311	453.1419	489.9546	594.8447	678.5195	708.5151	765.7404	828.8416	905.6777	938.3526	967.2741	987.0638	1028.0318	1060.8719	1076.1135	1091.7487	1114.3645	1200.8237	1219.8065	1247.3959	1324.4344	1384.0018	1394.1763	1415.7047	1483.6277	1502.8024	1902.7393	2980.6885	3075.8862	3116.6176	3207.3415	3232.6018	3531.8165	3828.0949
OCC12CC1C(=O)N2	OC[C@]12C[C@H]1C(=O)N2	
InChI=1S/C5H7NO2/c7-2-5-1-3(5)4(8)6-5/h3,7H,1-2H2,(H,6,8)	InChI=1S/C5H7NO2/c7-2-5-1-3(5)4(8)6-5/h3,7H,1-2H2,(H,6,8)/t3-,5+/m0/s1
