19
gdb 124594	3.91101	1.06972	0.90758	2.4147	78.43	-0.207	0.0238	0.2308	1322.6536	0.161036	-415.427513	-415.418535	-415.417591	-415.461412	33.605	
C	-0.5932075962	 1.5472277537	-0.2473734712	-0.412198
C	 0.0900986254	 0.1903032049	-0.084822095	 0.071182
C	-0.8872021206	-0.9082007226	 0.349514102	-0.380959
N	 0.779467229	-0.2032572101	-1.3131601149	 0.041192
C	 0.6850461179	 0.2526570793	-2.573012727	 0.008788
N	 1.4677722466	-0.4350610537	-3.3893871946	-0.340059
C	 2.0383776598	-1.3413724428	-2.5461300121	 0.401074
N	 2.9034927694	-2.3169698014	-3.0025154853	-0.581347
N	 1.6637313791	-1.2476900473	-1.2759313549	-0.337169
H	 0.1135322016	 2.3203618031	-0.5616413984	 0.13043
H	-1.4098942889	 1.5016779055	-0.9753217577	 0.128313
H	-1.0236476504	 1.848783753	 0.7108711145	 0.128598
H	 0.8750204848	 0.2771205596	 0.67488292	 0.108205
H	-1.7029471335	-1.0072201907	-0.3742780667	 0.120829
H	-0.368139513	-1.8658675172	 0.4209322442	 0.149146
H	-1.3180368568	-0.6657507583	 1.3257064022	 0.116247
H	 0.0528510622	 1.0775976971	-2.8601822714	 0.136655
H	 3.3920782069	-2.0439759009	-3.8425520524	 0.256598
H	 3.5199591566	-2.6783215611	-2.2894728814	 0.254476
46.7572	112.0451	195.2809	240.823	279.6389	293.8073	309.8536	336.2577	391.0726	446.5385	506.1432	618.4683	634.6572	652.2101	760.4863	792.4105	852.3281	888.8364	936.0421	956.8432	1024.3586	1037.3598	1111.115	1120.2243	1150.3358	1183.2126	1231.8701	1274.7501	1357.4122	1375.2557	1386.171	1397.1468	1418.5956	1477.232	1484.8435	1490.6944	1499.9191	1514.7178	1521.5346	1591.1785	1648.1248	3039.7459	3041.5957	3048.0447	3109.3706	3115.7435	3124.9397	3139.4799	3269.6499	3572.7623	3678.5709
CC(C)N1C=NC(N)=N1	CC(C)n1cnc(N)n1	
InChI=1S/C5H10N4/c1-4(2)9-3-7-5(6)8-9/h3-4H,1-2H3,(H2,6,8)	InChI=1S/C5H10N4/c1-4(2)9-3-7-5(6)8-9/h3-4H,1-2H3,(H2,6,8)
