18
gdb 97951	5.43099	0.50531	0.48075	3.3442	80.67	-0.2601	0.0201	0.2801	2248.1257	0.14448	-439.047365	-439.036638	-439.035694	-439.08524	36.013	
C	-0.2307321286	 1.3916695663	 0.3492904803	-0.445317
C	 0.057297197	-0.0489698285	 0.0368799965	 0.432304
N	 1.2361894812	-0.4691296337	-0.1682647998	-0.520552
O	-1.1105712983	-0.7552748434	 0.0199829133	-0.238719
C	-1.0279593061	-2.1540538557	-0.2610074381	-0.272269
C	-2.3588510312	-2.73396725	-0.2268562254	-0.02622
C	-3.4453221158	-3.2485163978	-0.1990419183	 0.227164
C	-4.7689409504	-3.8564128495	-0.1884758404	-0.218344
O	-4.9880806393	-4.5075729278	 1.0554559159	-0.407431
H	 0.7010228054	 1.9550395815	 0.3626106751	 0.147447
H	-0.9086980103	 1.8123161809	-0.3996953447	 0.140177
H	-0.7291174586	 1.4744743521	 1.3199748179	 0.141787
H	 1.2826594289	-1.466760535	-0.3675792428	 0.221463
H	-0.5686694034	-2.3081270804	-1.2480938353	 0.138599
H	-0.3839306904	-2.6464314872	 0.4816480524	 0.143278
H	-5.5188603395	-3.0690207035	-0.3687048138	 0.123981
H	-4.8429099368	-4.5639583143	-1.0305232758	 0.120525
H	-5.8725164639	-4.8869448439	 1.0295101229	 0.292127
31.056	47.0487	77.985	123.0197	133.2765	167.0924	218.8555	240.3586	287.4005	348.8275	387.7066	505.5034	556.7122	559.7836	603.3692	788.9221	861.0594	907.9994	981.0304	1022.5338	1034.416	1052.9272	1072.6336	1076.1003	1119.5451	1166.9199	1245.3891	1256.0612	1260.1534	1317.0452	1395.2281	1421.1415	1460.1285	1473.9222	1477.2846	1498.1359	1499.4515	1733.988	2380.4821	2965.5291	2984.7975	2994.3727	3025.8091	3052.4452	3111.0497	3170.3696	3505.4162	3819.1113
CC(=N)OCC#CCO	C[C]([NH])OCC#CCO	
InChI=1S/C6H9NO2/c1-6(7)9-5-3-2-4-8/h7-8H,4-5H2,1H3	InChI=1S/C6H9NO2/c1-6(7)9-5-3-2-4-8/h7-8H,4-5H2,1H3
