18
gdb 128472	3.80584	1.05612	0.86849	1.4273	73.84	-0.2537	-0.0013	0.2524	1327.4368	0.148344	-435.26191	-435.252928	-435.251983	-435.296875	31.724	
C	-0.1024925477	 1.366054196	 0.0329212274	-0.234137
O	 0.1120384116	-0.0242413446	-0.0429587898	-0.246856
C	 0.6840880262	-0.5997492148	 1.1228382301	 0.023977
C	-0.3260170616	-0.7542463432	 2.265630464	-0.400619
C	 1.2516085721	-1.9225493823	 0.6906472937	 0.305862
N	 1.7526362728	-2.8063096683	 1.5569042451	-0.294252
N	 2.1507853208	-3.8029058071	 0.7757009535	-0.068903
N	 1.9531895954	-3.6549296603	-0.5257082705	-0.201894
C	 1.3783709629	-2.4536742738	-0.6055207812	-0.120274
H	 0.824772185	 1.906391978	 0.2801706087	 0.106532
H	-0.4464952307	 1.6898778812	-0.9523494006	 0.129722
H	-0.8675128496	 1.6366182933	 0.774354377	 0.110718
H	 1.5125916705	 0.0422909674	 1.4693242563	 0.083848
H	 0.1429137536	-1.2738474423	 3.1048211658	 0.141384
H	-0.6791297693	 0.2191749637	 2.6169871982	 0.112614
H	-1.1849908592	-1.3407687955	 1.9276000996	 0.126859
H	 2.5781398389	-4.6317612969	 1.155700198	 0.291342
H	 1.0826478683	-2.0291612005	-1.5491101153	 0.134077
30.0611	75.8624	156.1861	171.2079	205.8352	245.7561	329.4761	370.2436	438.0622	482.3561	516.8218	693.4045	722.8189	763.0543	867.9933	896.3494	995.0854	1008.0065	1040.3806	1083.7646	1109.4564	1146.8881	1168.9189	1183.9737	1206.2107	1221.3884	1246.5207	1328.5365	1357.0589	1383.4373	1396.9213	1407.9021	1477.4976	1479.0308	1485.4532	1494.8269	1501.3156	1513.1982	1566.2981	2949.4436	2980.1814	3031.8627	3048.0331	3114.3956	3122.0126	3132.8579	3297.9953	3670.9433
COC(C)C1=NNN=C1	CO[C@@H](C)c1n[nH]nc1	
InChI=1S/C5H9N3O/c1-4(9-2)5-3-6-8-7-5/h3-4H,1-2H3,(H,6,7,8)	InChI=1S/C5H9N3O/c1-4(9-2)5-3-6-8-7-5/h3-4H,1-2H3,(H,6,7,8)/t4-/m0/s1
