17
gdb 17297	3.28948	2.44591	1.91755	0.6832	66.82	-0.2294	0.0573	0.2868	767.7294	0.142714	-363.785036	-363.778371	-363.777426	-363.815351	26.802	
C	-0.1185928029	 1.4652324018	-0.0424979288	-0.486231
C	 0.0363719559	-0.0271699114	 0.0480100458	 0.444858
O	-1.2266279301	-0.7501007463	-0.0436084238	-0.336467
C	-0.9491255643	-1.4692886409	 1.1880025165	-0.111602
C	 0.4497850998	-0.8504047732	 1.2765949277	-0.072578
N	 1.6114077071	-1.4900966512	 0.5331766793	-0.15553
C	 1.1129441476	-2.1558978592	-0.6881864258	-0.254484
C	 1.2086487207	-0.6897811295	-0.7073488512	-0.0708
H	 0.8419367295	 1.96423289	 0.1208489236	 0.126834
H	-0.4831297318	 1.7451280777	-1.0374281602	 0.133123
H	-0.8362739247	 1.8287540401	 0.6979365451	 0.126509
H	-1.6224395268	-1.1503704183	 1.9938088594	 0.106119
H	-1.021140434	-2.5565523453	 1.0714751191	 0.109122
H	 0.7874111304	-0.4277808171	 2.2215414275	 0.091729
H	 1.8990733886	-2.7130455391	-1.1886859033	 0.122797
H	 0.1368049883	-2.6270821461	-0.7129753732	 0.135677
H	 1.9468041666	-0.146762922	-1.2909997075	 0.090923
204.4498	212.5091	248.3166	336.336	355.9869	448.9518	544.6804	621.1515	685.6184	729.1835	758.1804	870.7539	878.4024	903.5975	913.8724	972.6231	985.2288	1013.2237	1052.7181	1078.6744	1107.8111	1136.8138	1144.0209	1162.9962	1169.2625	1190.5482	1236.3444	1284.3173	1306.2979	1341.152	1379.7633	1411.9955	1481.4819	1488.2219	1504.2793	1524.6132	3016.542	3034.2293	3064.67	3102.2065	3118.6547	3124.8127	3131.2136	3149.2511	3218.2598
CC12OCC1N1CC21	C[C@]12OC[C@H]1N1C[C@@H]21	
InChI=1S/C6H9NO/c1-6-4-2-7(4)5(6)3-8-6/h4-5H,2-3H2,1H3	InChI=1S/C6H9NO/c1-6-4-2-7(4)5(6)3-8-6/h4-5H,2-3H2,1H3/t4-,5+,6+,7?/m0/s1
