17
gdb 86514	3.21749	1.05143	0.90371	5.0106	74.19	-0.2514	-0.0832	0.1681	1307.2725	0.13525	-418.005004	-417.995958	-417.995014	-418.039727	32.118	
C	-0.5441805078	 1.1520288861	-0.027284847	-0.406493
C	 0.3371123362	 0.1572406354	-0.771165215	 0.078857
C	 1.8287369067	 0.5712490849	-0.9184328037	-0.278746
C	 2.1261611098	-0.460718619	 0.216214064	-0.06982
N	 0.7829419247	-1.0219218617	 0.0182583667	-0.324447
C	 3.256563939	-1.4314834084	-0.050521677	 0.310344
O	 4.3028484883	-1.4493812808	 0.5458622827	-0.270848
C	 3.0173398082	-2.3861116661	-1.1610410355	 0.233081
N	 2.9002262607	-3.1232678308	-2.0441595224	-0.314107
H	-0.0687292018	 1.4979704689	 0.8976142288	 0.118007
H	-0.7505907598	 2.0281758206	-0.651426601	 0.127405
H	-1.5063375357	 0.6971698577	 0.2334945895	 0.125349
H	-0.1489209685	-0.1374828756	-1.7075671522	 0.091509
H	 2.2647444084	 0.293971272	-1.8798471278	 0.132528
H	 2.0809395538	 1.6066264246	-0.688379545	 0.123502
H	 2.329380193	 0.0096639777	 1.1851549931	 0.098652
H	 0.2574912249	-1.2310585854	 0.8600627616	 0.225226
48.1385	69.3113	147.0307	149.6962	251.5246	279.5248	295.3478	359.0365	378.6431	474.6739	600.6398	657.0302	706.055	753.6285	810.4747	856.9683	907.616	939.065	955.7138	1036.532	1052.9758	1107.0163	1121.4161	1181.8878	1215.2947	1256.3879	1259.2559	1306.2313	1337.4651	1355.8806	1408.4803	1416.7809	1482.8341	1492.0083	1495.5994	1796.7639	2337.4315	3025.1389	3039.1732	3043.1615	3084.9541	3096.2263	3100.0652	3145.9604	3532.9539
CC1CC(N1)C(=O)C#N	C[C@H]1C[C@@H](N1)C(=O)C#N	
InChI=1S/C6H8N2O/c1-4-2-5(8-4)6(9)3-7/h4-5,8H,2H2,1H3	InChI=1S/C6H8N2O/c1-4-2-5(8-4)6(9)3-7/h4-5,8H,2H2,1H3/t4-,5+/m0/s1
