20
gdb 102875	2.39337	0.84357	0.65719	2.3701	81.37	-0.2503	-0.0404	0.2099	1734.7799	0.166431	-440.290533	-440.279555	-440.278611	-440.32911	36.955	
C	-0.1181579453	 1.5209162272	-0.3566408218	-0.401993
C	 0.0383997796	 0.0302935754	-0.0556041516	-0.175611
C	 0.8806326439	-0.7083987231	-1.0973915326	 0.011578
O	 2.2295309317	-0.2502425564	-1.0519166677	-0.212759
C	 2.8287251774	 0.0982233709	-2.2141598573	 0.127979
N	 4.0421218475	 0.4177323729	-2.2373021437	-0.205292
C	 4.608159128	 0.8043938697	-3.5126622381	-0.316628
C	 0.8744037786	-2.221013642	-0.8691642849	 0.138533
O	-0.1206334733	-2.8529400385	-0.633960322	-0.23985
H	 0.8551066589	 2.0182580454	-0.3950160259	 0.138156
H	-0.6206109242	 1.6825438894	-1.3170933332	 0.114314
H	-0.7154394694	 2.0105833961	 0.417620521	 0.123555
H	 0.507445602	-0.111694953	 0.9247161089	 0.1195
H	-0.9332794087	-0.4717797626	-0.0185383381	 0.128969
H	 0.4590318847	-0.5339119067	-2.100696006	 0.108728
H	 2.1595027589	 0.0812773911	-3.0896222513	 0.078118
H	 3.8936534917	 0.7673230471	-4.3513971634	 0.097311
H	 5.0046854556	 1.8236445749	-3.4442277968	 0.131338
H	 5.4538002185	 0.1498859284	-3.7517695209	 0.131173
H	 1.8795306437	-2.6919329062	-0.9431001346	 0.102881
14.6611	50.1312	86.5987	108.4176	159.6578	186.2225	202.0541	241.6001	268.6504	307.4306	358.2157	411.1676	463.1796	547.7857	655.2006	790.0521	824.5059	955.505	978.3082	989.0834	1027.9016	1056.976	1092.9142	1128.9605	1141.0357	1157.6101	1165.6344	1244.9726	1271.7409	1300.7753	1344.282	1374.0832	1396.1627	1412.4396	1422.1654	1450.6389	1480.3837	1480.9837	1497.1394	1504.7876	1509.1403	1780.02	1836.8295	2898.4213	2967.6752	2978.0217	2987.1856	3036.1613	3048.5376	3061.0311	3081.026	3091.2162	3108.0662	3121.4057
CCC(OC=NC)C=O	CC[C@@H](OC=NC)C=O	
InChI=1S/C6H11NO2/c1-3-6(4-8)9-5-7-2/h4-6H,3H2,1-2H3	InChI=1S/C6H11NO2/c1-3-6(4-8)9-5-7-2/h4-6H,3H2,1-2H3/t6-/m1/s1
