13
gdb 44931	3.31435	1.5183	1.5146	4.4491	57.31	-0.2862	-0.0294	0.2568	887.4605	0.091255	-493.762533	-493.756352	-493.755408	-493.793262	24.062	
O	-0.0081980611	-0.0001573227	-0.059126019	-0.32357
C	 0.0171606604	 1.1882664262	-0.0131461333	 0.474505
O	-1.1037606209	 1.9837089355	 0.0376859573	-0.242398
C	-0.634607799	 3.362812483	 0.0508529622	-0.05163
C	 0.6073785527	 3.3059343186	-0.8511577113	-0.270527
C	 1.1912917217	 2.180458045	 0.0158800111	-0.05165
O	 1.1682902321	 2.760380543	 1.3520521539	-0.242397
C	 0.0411500232	 3.5457211713	 1.4197112664	 0.474475
O	-0.2709525564	 4.1861965767	 2.3723345656	-0.323569
H	-1.4611792751	 4.0300131502	-0.1687853865	 0.133537
H	 0.3759413484	 3.0062922005	-1.874931949	 0.144846
H	 1.2133050953	 4.2136922381	-0.8341051567	 0.144844
H	 2.1738484086	 1.7665486445	-0.1838176306	 0.133535
128.326	214.1765	360.5188	410.8057	473.1617	490.1261	588.2159	700.3086	729.315	783.086	791.3153	860.8408	890.2524	938.4561	960.2105	962.1804	993.1497	1015.8778	1087.9959	1149.7483	1156.1646	1201.3869	1283.4585	1285.3318	1325.0562	1332.747	1482.0241	1914.2417	1925.8125	3083.7571	3149.3004	3193.5136	3195.4179
O=C1OC2CC1OC2=O	O=C1O[C@@H]2C[C@H]1OC2=O	
InChI=1S/C5H4O4/c6-4-2-1-3(9-4)5(7)8-2/h2-3H,1H2	InChI=1S/C5H4O4/c6-4-2-1-3(9-4)5(7)8-2/h2-3H,1H2/t2-,3-/m1/s1
