24
gdb 117765	2.42139	0.94927	0.83965	3.8102	89.69	-0.3073	0.0438	0.3511	1571.529	0.215266	-368.448656	-368.437242	-368.436298	-368.48529	41.131	
C	-0.0602374855	 1.6422087704	 0.1239524975	-0.381037
C	-0.0078382199	 0.1183797931	-0.0252232506	-0.198018
C	 0.7452388485	-0.5473365854	 1.1321654349	-0.184448
C	 0.7717696023	-2.1025061876	 1.1396688968	 0.077263
C	 1.4673697785	-2.6557043107	-0.1242406312	-0.412674
C	 1.5026573645	-2.5738235184	 2.430728997	-0.189005
C	 1.5440680015	-4.0858185043	 2.6663478877	-0.410303
C	-0.6148325401	-2.5993722981	 1.1773410929	 0.29109
N	-1.7031967556	-2.9888868789	 1.2142489787	-0.363651
H	 0.9460447664	 2.0752334211	 0.1517689143	 0.113605
H	-0.5973162688	 2.1021461086	-0.7108388628	 0.117082
H	-0.5708110378	 1.931938297	 1.0488273871	 0.11916
H	-1.0278272715	-0.2808455996	-0.0728609481	 0.124434
H	 0.4687825922	-0.1325951189	-0.9797344904	 0.100555
H	 1.7894158297	-0.2082336996	 1.1366020151	 0.098282
H	 0.306948619	-0.2116564335	 2.0800467551	 0.107795
H	 2.4983959109	-2.2891500069	-0.1602220959	 0.119517
H	 1.4891240267	-3.7472949648	-0.1217636205	 0.135249
H	 0.955324684	-2.3367795761	-1.0341180422	 0.136525
H	 2.5231558338	-2.174607812	 2.3828470539	 0.10161
H	 1.0192552194	-2.0894655047	 3.2866961053	 0.111904
H	 0.5364100165	-4.5119730872	 2.6844159489	 0.144269
H	 2.1195746315	-4.6089463222	 1.8971380176	 0.120782
H	 2.0157939839	-4.3017919412	 3.6294755489	 0.120015
66.1807	89.7779	92.3549	135.0082	158.9077	197.9789	216.3892	246.5231	270.6436	300.6609	319.7662	367.9234	378.1388	446.2799	582.785	628.9392	695.7277	748.3765	788.063	856.1829	883.009	917.3648	948.4798	997.6222	1018.2684	1050.1415	1068.5861	1103.8921	1116.4874	1177.8939	1196.4477	1229.1198	1276.3905	1317.5307	1323.2495	1358.0652	1363.8015	1397.1397	1411.4949	1416.3428	1416.882	1471.2428	1483.7208	1490.835	1494.1598	1497.5614	1500.9415	1506.5003	1511.0798	1514.2974	2345.7141	3016.8556	3029.4519	3030.2207	3036.0222	3043.3745	3048.7071	3052.9302	3068.5416	3074.9005	3099.9455	3106.8501	3111.1031	3117.4831	3124.708	3138.6962
CCCC(C)(CC)C#N	CCC[C@@](C)(CC)C#N	
InChI=1S/C8H15N/c1-4-6-8(3,5-2)7-9/h4-6H2,1-3H3	InChI=1S/C8H15N/c1-4-6-8(3,5-2)7-9/h4-6H2,1-3H3/t8-/m1/s1
