16
gdb 33984	2.31263	1.81031	1.23098	4.1216	74.4	-0.2497	-0.0125	0.2372	1017.637	0.125259	-396.860899	-396.853321	-396.852377	-396.893003	29.04	
N	 0.0189525121	-1.1419835636	 0.0851866941	-0.344323
C	 0.0118706235	 0.0135637186	 0.0206740025	 0.213362
C	-0.0838104903	 1.4400182576	-0.0105692317	 0.129158
C	 0.253764617	 2.2873473051	-1.1851287612	-0.271154
N	 1.115684794	 2.3906135638	-0.0050029083	-0.150705
C	 0.368769268	 3.2584351114	 0.9872875129	-0.237348
C	-0.7975910172	 2.2686578971	 1.045077262	 0.281716
C	-2.2503174536	 2.3785702523	 1.2928206134	-0.309029
N	-1.3441790978	 1.7638804022	 2.2868422198	-0.357742
H	 0.7365143374	 1.8019148111	-2.0273236348	 0.149382
H	-0.4147084396	 3.1076202624	-1.4388254683	 0.128704
H	 0.9177139458	 3.3087543063	 1.9284598253	 0.142437
H	 0.1703387202	 4.2664177148	 0.6112794063	 0.119098
H	-2.6832369788	 3.3271561851	 1.5981623242	 0.129966
H	-2.9126980073	 1.7371971697	 0.7162796284	 0.126254
H	-1.4173541735	 0.7481226162	 2.2684022453	 0.250222
105.5052	135.7758	185.6093	288.3965	329.0517	426.892	454.8127	500.5449	568.9341	582.5695	623.1343	772.8543	825.5923	854.6146	868.2418	906.7292	942.3337	983.7077	996.2233	1045.2997	1088.3101	1113.3604	1128.6509	1137.9082	1180.8511	1198.3762	1255.9071	1279.8439	1289.1481	1341.7267	1426.4029	1485.3852	1502.1275	1515.7382	2345.1534	3061.5287	3105.6381	3106.1718	3135.0125	3193.0982	3207.6276	3487.7145
N#CC12CN1CC21CN1	N#C[C@]12CN1C[C@]12CN1	
InChI=1S/C6H7N3/c7-1-6-4-9(6)3-5(6)2-8-5/h8H,2-4H2	InChI=1S/C6H7N3/c7-1-6-4-9(6)3-5(6)2-8-5/h8H,2-4H2/t5-,6+,9?/m0/s1
