17
gdb 27885	1.94698	1.77496	0.9345	1.2733	80.85	-0.2074	0.0049	0.2123	1216.8107	0.137198	-418.089407	-418.080949	-418.080005	-418.122367	32.608	
C	-0.0122825268	 1.4699593151	 0.0241322535	-0.465515
C	 0.0305200177	-0.0359258303	-0.0172539394	 0.349277
C	-0.004004674	-0.7229415496	-1.2259374819	-0.353538
C	 0.0362473829	-2.1221285579	-1.1954556553	 0.442783
O	 0.0030684302	-2.8762803566	-2.3231916579	-0.437436
C	 0.1139811301	-2.7765675775	 0.0230315466	-0.300126
C	 0.1451969327	-1.9900034211	 1.1835845602	 0.387095
N	 0.2756941953	-2.5743659505	 2.4299968274	-0.567245
N	 0.0990126736	-0.6522739389	 1.1701099792	-0.405047
H	 0.8885653723	 1.8612963731	 0.5079124775	 0.137413
H	-0.0885026914	 1.9033903975	-0.9760523187	 0.111852
H	-0.8656961875	 1.8088121372	 0.6201023491	 0.135507
H	-0.0658872633	-0.1886354078	-2.1687083822	 0.075529
H	-0.0456123027	-2.2925241375	-3.0877849938	 0.298812
H	 0.157069734	-3.8582895713	 0.0611486627	 0.09079
H	-0.0703320794	-3.5154302843	 2.5302440068	 0.248185
H	 0.0315897162	-1.9565239196	 3.1895464662	 0.251662
70.0408	194.6278	201.9739	239.5357	291.4743	325.9615	391.0112	415.979	512.045	526.1819	528.2222	553.9625	598.3885	621.4063	677.6434	762.3221	798.2927	850.7191	970.6263	991.0397	1010.7946	1056.5248	1066.5826	1117.7704	1188.081	1212.305	1269.1309	1351.1017	1399.6111	1423.7771	1467.353	1474.63	1502.9383	1513.2664	1625.7145	1631.1088	1664.4356	3040.3307	3100.3619	3124.1987	3171.4193	3200.446	3578.3568	3693.652	3817.7783
CC1=CC(O)=CC(N)=N1	Cc1cc(O)cc(N)n1	
InChI=1S/C6H8N2O/c1-4-2-5(9)3-6(7)8-4/h2-3H,1H3,(H3,7,8,9)	InChI=1S/C6H8N2O/c1-4-2-5(9)3-6(7)8-4/h2-3H,1H3,(H3,7,8,9)
