12
gdb 48359	2.30916	1.6225	1.09145	4.4379	61.56	-0.2875	-0.107	0.1804	1042.2189	0.074062	-472.606876	-472.598357	-472.597412	-472.641522	28.616	
O	 0.2979172198	-0.0998388561	-0.5245756226	-0.228808
C	 0.6353944824	 0.6510177744	 0.3489860724	 0.111252
C	 1.5125133898	 1.8577085328	 0.1530023407	 0.175154
C	 1.1820324625	 3.0772655088	 0.9487544817	-0.187749
O	 2.2378883353	 2.2246303544	 1.321924674	-0.224749
C	 2.2499617806	 2.0781354009	-1.1471144519	 0.239741
O	 3.3421706454	 2.5811713449	-1.1964639107	-0.251327
C	 1.5378805884	 1.7184878801	-2.3820879007	 0.254999
N	 1.0096868047	 1.5203974496	-3.3911712256	-0.307398
H	 0.3453986719	 0.5151161749	 1.4130249237	 0.113072
H	 1.4720359798	 4.0417634532	 0.5363148276	 0.159066
H	 0.3005799293	 3.0647988722	 1.5886953813	 0.146747
22.9164	106.0477	141.0772	184.7344	238.7608	284.1149	323.8572	361.3717	435.9025	518.2975	591.37	722.1034	760.0437	879.7618	903.8254	925.8186	1034.3442	1069.6891	1137.9453	1171.9772	1267.8609	1331.4897	1421.637	1511.4703	1791.6724	1836.8694	2342.1949	2913.0844	3089.1409	3190.0584
O=CC1(CO1)C(=O)C#N	O=C[C@]1(CO1)C(=O)C#N	
InChI=1S/C5H3NO3/c6-1-4(8)5(2-7)3-9-5/h2H,3H2	InChI=1S/C5H3NO3/c6-1-4(8)5(2-7)3-9-5/h2H,3H2/t5-/m0/s1
