14
gdb 131457	3.2205	1.28499	0.9185	3.9768	67.18	-0.2163	-0.0026	0.2137	1171.9534	0.102161	-469.996018	-469.988191	-469.987247	-470.02868	28.978	
O	 0.1003376551	 1.3302307403	 0.2377623613	-0.434226
C	 0.0694150033	-0.0021542734	 0.0503185677	 0.377023
N	 0.0556583157	-0.5659377336	-1.128091766	-0.244498
O	 0.024156557	-1.9343087122	-0.870332032	-0.182843
C	 0.0202253571	-2.140756083	 0.4641388795	 0.03391
C	 0.0483496959	-0.9459991076	 1.1171005719	 0.158015
N	 0.0570028339	-0.6096950143	 2.4645423523	-0.413318
C	 0.0358248184	-1.5047179228	 3.5001112269	 0.0776
N	 0.0058430197	-2.7660378435	 3.309637896	-0.462436
H	 0.1102465828	 1.7536128242	-0.6307385572	 0.316203
H	-0.0031074241	-3.1569631648	 0.8118388048	 0.183094
H	 0.0807559867	 0.3731938769	 2.6783377744	 0.267736
H	 0.0480846974	-1.001225881	 4.4728956125	 0.096941
H	-0.0057301789	-3.2583752452	 4.199013008	 0.226797
74.5548	166.447	193.4611	249.4874	302.75	369.1687	413.2311	471.5199	478.8294	583.5571	601.6856	716.6073	728.4882	797.3	833.7114	856.7675	926.2717	962.3411	1034.0368	1108.3219	1138.5869	1204.7771	1233.4959	1257.4435	1298.9831	1407.6995	1508.3849	1541.8582	1603.7644	1698.5145	1718.5884	3062.587	3324.7797	3524.9523	3662.0243	3788.3218
OC1=NOC=C1NC=N	Oc1nocc1NC=N	
InChI=1S/C4H5N3O2/c5-2-6-3-1-9-7-4(3)8/h1-2H,(H2,5,6)(H,7,8)	InChI=1S/C4H5N3O2/c5-2-6-3-1-9-7-4(3)8/h1-2H,(H2,5,6)(H,7,8)
