21
gdb 99297	5.81198	0.61882	0.59823	2.3688	81.89	-0.2289	0.0357	0.2646	1915.9171	0.181731	-420.407638	-420.397267	-420.396323	-420.445062	35.985	
C	 0.104364162	 1.3918442341	-0.0922738704	-0.333282
N	-0.0947145369	-0.0436738163	-0.1167001984	-0.312891
C	-1.2576085358	-0.6333454277	 0.2876267115	 0.415723
O	-2.2229022952	 0.0024657759	 0.6780584812	-0.380202
C	-1.2567239468	-2.1575469986	 0.2341250166	-0.314874
C	-2.6127087646	-2.7058755019	-0.2148100918	-0.134263
N	-2.6080322871	-4.164864858	-0.175489578	-0.067219
C	-3.0246860963	-4.7694387735	 1.0878080372	-0.223233
C	-3.9174649751	-4.8021742784	-0.1029634571	-0.220438
H	 0.9317669095	 1.6707181569	 0.5700903281	 0.12411
H	 0.3114005369	 1.784038493	-1.0943492335	 0.12446
H	-0.8177968978	 1.8383288385	 0.2813655297	 0.17182
H	 0.6570248795	-0.6323901968	-0.4334662356	 0.244861
H	-0.4634779565	-2.542388873	-0.4153921468	 0.102933
H	-1.0416499078	-2.522396189	 1.2469326148	 0.129683
H	-3.3995234407	-2.2615563683	 0.4148312669	 0.111704
H	-2.8141874712	-2.3976129434	-1.2475307368	 0.10593
H	-2.4776559131	-5.656521689	 1.3939495159	 0.114309
H	-3.3100493605	-4.1041016947	 1.9016457581	 0.113421
H	-4.7965867711	-4.1598902657	-0.0798767817	 0.112359
H	-4.0335685514	-5.7131985041	-0.6831956098	 0.115089
24.6707	53.1477	89.9728	108.2893	112.28	175.1429	262.646	280.3044	359.4993	408.2262	447.3267	484.0763	634.9872	711.208	778.9773	799.5436	851.8912	888.1804	923.1146	1010.6269	1025.204	1047.0873	1080.5703	1102.8312	1113.1238	1118.728	1153.986	1164.4337	1171.5173	1180.8375	1224.5431	1248.6491	1306.2057	1322.1581	1343.8388	1403.9765	1437.1986	1467.8024	1488.5395	1492.8748	1500.9265	1501.0392	1522.4242	1559.6612	1772.8636	2985.8471	3026.0884	3030.2056	3053.5089	3077.1053	3081.6936	3091.9074	3096.7854	3153.8633	3175.4922	3189.8502	3653.0732
CNC(=O)CCN1CC1	CNC(=O)CCN1CC1	
InChI=1S/C6H12N2O/c1-7-6(9)2-3-8-4-5-8/h2-5H2,1H3,(H,7,9)	InChI=1S/C6H12N2O/c1-7-6(9)2-3-8-4-5-8/h2-5H2,1H3,(H,7,9)
