23
gdb 60348	3.42538	0.67343	0.58557	1.3323	88.88	-0.264	0.0338	0.2979	1938.1863	0.202069	-388.262859	-388.251454	-388.25051	-388.300003	41.423	
C	-0.0451625131	 1.5649062916	-0.0336447161	-0.387451
C	 0.026063334	 0.0337950539	 0.0446445491	 0.033005
C	 0.8773097311	-0.4070560718	 1.2440354102	-0.381312
C	-1.3911552541	-0.56620017	 0.0729161131	-0.169192
C	-1.4449429063	-2.0946205582	-0.0167628638	-0.205684
C	-2.8856308655	-2.6222593962	-0.174078838	-0.063025
O	-3.530285078	-2.0931039372	-1.3318241969	-0.414316
C	-2.9167461598	-4.0881988713	-0.1693379534	 0.295364
C	-2.9120081092	-5.2899710539	-0.2081548269	-0.439768
H	 0.9547331325	 2.0065023547	-0.0998629167	 0.107654
H	-0.6177163073	 1.8934804079	-0.9073180437	 0.110452
H	-0.5320385258	 1.9796910232	 0.8573023374	 0.111269
H	 0.5204897347	-0.3261808875	-0.8699811219	 0.068471
H	 1.0095680419	-1.4924424903	 1.2790590645	 0.113583
H	 1.8741377129	 0.0445413929	 1.2041025617	 0.109702
H	 0.4112089372	-0.0967381897	 2.1873702972	 0.110047
H	-1.9006068587	-0.2390425478	 0.9914414792	 0.087838
H	-1.9715783479	-0.1558765666	-0.7607059118	 0.108971
H	-0.8552093913	-2.4471944058	-0.8742362481	 0.093765
H	-1.0081485407	-2.5612362428	 0.8728060094	 0.110733
H	-3.4862535137	-2.2514739153	 0.6664227339	 0.117401
H	-3.1533569559	-2.5391647904	-2.0986347341	 0.284201
H	-2.9259426769	-6.3518061396	-0.2285444044	 0.198293
40.7456	70.3158	91.5068	140.8251	187.6347	221.2254	230.4754	250.0265	262.9697	298.454	350.0883	411.3378	422.2665	459.171	563.8944	573.2549	630.5469	670.5218	765.4041	823.876	880.1703	926.651	952.0999	953.9963	967.02	1023.4539	1052.6314	1076.7985	1129.6876	1146.2731	1194.3086	1223.2978	1261.129	1285.6069	1321.251	1336.0039	1362.8091	1374.1718	1392.2654	1400.2826	1419.4294	1421.7872	1475.8552	1487.4452	1491.5326	1500.6671	1505.2916	1511.1179	2231.4216	2989.4261	3004.7777	3017.5675	3022.0733	3027.5197	3034.6118	3062.7631	3082.2152	3086.5022	3092.969	3098.5683	3104.3554	3502.4392	3803.301
CC(C)CCC(O)C#C	CC(C)CC[C@@H](O)C#C	
InChI=1S/C8H14O/c1-4-8(9)6-5-7(2)3/h1,7-9H,5-6H2,2-3H3	InChI=1S/C8H14O/c1-4-8(9)6-5-7(2)3/h1,7-9H,5-6H2,2-3H3/t8-/m0/s1
