21
gdb 99144	3.5993	0.83628	0.7357	3.6786	81.68	-0.2299	0.0436	0.2734	1612.1605	0.181576	-420.412325	-420.402034	-420.401089	-420.448598	36.415	
C	 0.1993950507	 1.4525854138	-0.9087283018	-0.331377
N	 0.2923621373	 0.0192496633	-1.076326854	-0.293025
C	 0.7065826006	-0.8112717247	-0.0887898501	 0.387761
O	 1.0433746236	-0.4562341857	 1.0280733696	-0.38725
C	 0.6905678161	-2.299608369	-0.466736002	-0.259815
N	 0.5957162243	-2.514343257	-1.9056020755	-0.099958
C	 1.8019144625	-2.9225312056	-2.6253662168	-0.256732
C	 0.6675112879	-3.8734007295	-2.4519014399	 0.034275
C	 0.7893273173	-5.0992937596	-1.5744701768	-0.414035
H	 0.825479931	 1.9814195832	-1.6365117409	 0.121172
H	-0.8329730004	 1.8045828448	-1.0195430126	 0.122108
H	 0.5472892235	 1.6877396944	 0.0983949614	 0.166011
H	 0.0423711823	-0.4257200526	-1.9477995158	 0.252892
H	 1.5742561321	-2.7483085517	 0.0058627367	 0.11904
H	-0.1902424721	-2.7382930544	 0.017743473	 0.13236
H	 1.9830485913	-2.430960936	-3.5774896343	 0.11597
H	 2.6979432214	-3.1084581945	-2.0344021099	 0.116454
H	 0.000047722	-4.0096863507	-3.3020909012	 0.093396
H	 1.5183046744	-4.9663089848	-0.7716447026	 0.126914
H	-0.1737276185	-5.3579486369	-1.1208337871	 0.127397
H	 1.1097350228	-5.9552884069	-2.1772971194	 0.126442
47.1062	76.3076	96.3437	123.981	153.2435	191.022	216.5619	300.6616	334.0968	418.1423	459.7743	484.8099	575.8372	663.2959	684.2654	760.813	838.1094	877.3742	903.2113	946.6219	1004.6401	1042.2445	1072.7016	1106.8663	1119.6583	1149.6641	1154.2984	1168.5562	1182.1884	1192.0985	1254.0425	1269.7674	1333.0473	1350.0724	1404.9722	1424.0533	1438.8466	1467.9998	1490.8244	1495.8714	1500.2587	1500.7376	1515.2629	1569.0292	1785.6332	3014.2669	3022.7961	3038.3541	3064.1013	3072.1159	3092.4307	3097.0518	3104.1961	3128.7058	3145.9679	3179.374	3598.4637
CNC(=O)CN1CC1C	CNC(=O)CN1C[C@H]1C	
InChI=1S/C6H12N2O/c1-5-3-8(5)4-6(9)7-2/h5H,3-4H2,1-2H3,(H,7,9)	InChI=1S/C6H12N2O/c1-5-3-8(5)4-6(9)7-2/h5H,3-4H2,1-2H3,(H,7,9)/t5-,8?/m1/s1
