19
gdb 47850	2.49964	1.52953	1.06455	3.3216	78.09	-0.229	-0.0221	0.2069	1142.5188	0.160093	-423.034584	-423.026361	-423.025417	-423.06763	31.475	
O	-0.0346475724	-0.1542414726	 0.2109791686	-0.286189
C	-0.0251423872	 1.04346206	 0.0562638728	 0.380722
C	-1.3601631115	 1.814167613	 0.0083348571	-0.170081
O	-1.5550101124	 2.5374995062	-1.1895886686	-0.229
C	-1.4307924578	 3.9428695658	-1.1291193934	-0.06214
C	 0.0033493807	 4.4465375102	-0.8341736157	-0.28633
C	 1.0261216922	 3.7260439735	-1.6614233562	-0.023347
C	 1.5529548078	 2.5501058391	-1.3190231349	-0.056651
C	 1.2931600492	 1.8263557417	-0.0165868708	-0.354171
H	-2.1483252467	 1.0588177832	 0.083364255	 0.12761
H	-1.4256044426	 2.4694915484	 0.8918099457	 0.100839
H	-1.7493256368	 4.2915941721	-2.116301181	 0.115733
H	-2.1235174488	 4.3619756656	-0.3823154822	 0.094277
H	 0.0220333097	 5.5263077518	-1.0193283473	 0.105371
H	 0.2117923462	 4.3107265841	 0.2337753997	 0.103546
H	 1.2789059755	 4.1554403298	-2.6277478797	 0.092838
H	 2.2265735127	 2.047817823	-2.0076688792	 0.101347
H	 1.2801738929	 2.5451733737	 0.8144838598	 0.120944
H	 2.0855495793	 1.1027740013	 0.1846777503	 0.124683
62.1735	126.919	202.1154	260.1113	276.3046	331.9321	406.604	454.2348	494.4405	546.8872	564.7129	646.7941	726.7924	840.4312	849.8179	867.5277	893.774	945.566	992.9774	997.2159	1018.1538	1026.6305	1124.7408	1137.5585	1165.0148	1233.4467	1248.4172	1264.8651	1280.1713	1299.7635	1314.1446	1344.0123	1377.249	1394.6469	1421.3007	1462.6347	1474.9536	1488.1015	1497.15	1713.5405	1808.8017	2978.9071	2983.2565	3014.6329	3034.4723	3068.7499	3084.779	3088.5265	3110.5013	3150.7828	3175.3511
O=C1COCCC=CC1	O=C1COCCC=CC1	
InChI=1S/C7H10O2/c8-7-4-2-1-3-5-9-6-7/h1-2H,3-6H2/b2-1-	InChI=1S/C7H10O2/c8-7-4-2-1-3-5-9-6-7/h1-2H,3-6H2/b2-1-
