18
gdb 32738	3.2233	0.98933	0.79689	0.5584	75.48	-0.2102	0.0058	0.216	1445.4034	0.14772	-439.128369	-439.119407	-439.118463	-439.162988	32.33	
C	 0.04214128	 1.6018909047	-0.2221446728	-0.381426
C	 0.0482699204	 0.0737194223	-0.1482110172	-0.15909
C	-1.3520178431	-0.5095205305	 0.1267855962	-0.315226
C	-1.3909297702	-1.9915978222	 0.1891314537	 0.2475
C	-1.6459292694	-2.9126131852	 1.1558618478	 0.238213
O	-1.9735745925	-2.6844883057	 2.4448243597	-0.432603
N	-1.5302797503	-4.1933078163	 0.6533148622	-0.337799
C	-1.2102132132	-4.0073409214	-0.5892156318	 0.069666
O	-1.1042973743	-2.7205509155	-0.9549397599	-0.180605
H	 1.0443373235	 1.9937507796	-0.4204491288	 0.114246
H	-0.6186560496	 1.9575505597	-1.0206250666	 0.11532
H	-0.3084057784	 2.0433452047	 0.7175257942	 0.116243
H	 0.4281256199	-0.3441325131	-1.0877487202	 0.108497
H	 0.7336705256	-0.262486381	 0.6387233697	 0.103636
H	-1.7292823298	-0.1347333782	 1.084872152	 0.12541
H	-2.0477530247	-0.1487605322	-0.6438358945	 0.112849
H	-2.0972842521	-3.548223319	 2.855694494	 0.30549
H	-1.0245873118	-4.7526661108	-1.3463000876	 0.149678
49.548	82.7812	109.2003	236.8251	250.1727	275.8548	312.2935	335.8744	376.5647	490.653	645.6305	679.9936	727.6064	745.42	783.7957	820.2893	866.5149	896.8152	958.6369	1033.6421	1043.5371	1106.8746	1111.941	1168.6058	1206.6905	1266.8865	1290.6037	1314.6068	1329.0291	1344.6083	1385.3942	1412.7108	1423.4714	1472.5409	1492.4691	1499.0972	1509.3521	1551.7357	1729.5737	3008.4613	3029.3979	3035.2747	3059.7424	3079.0655	3099.3761	3104.5939	3276.1301	3811.7391
CCCC1=C(O)N=CO1	CCCc1c(O)nco1	
InChI=1S/C6H9NO2/c1-2-3-5-6(8)7-4-9-5/h4,8H,2-3H2,1H3	InChI=1S/C6H9NO2/c1-2-3-5-6(8)7-4-9-5/h4,8H,2-3H2,1H3
