17
gdb 24223	3.87109	1.5848	1.23353	3.5224	77.69	-0.1999	0.033	0.2329	993.6515	0.14064	-380.898206	-380.891739	-380.890795	-380.928823	26.732	
C	-0.0347534605	 1.4581086645	 0.1000688359	-0.277988
C	 1.2941481257	 0.7472930453	 0.0364994346	-0.02287
C	 2.0549320309	 0.4357454136	 1.3482603473	-0.373424
C	 1.0783976964	-0.4814375239	 2.0181102088	 0.283674
C	-0.0292920511	-0.7736093212	 1.2757934827	 0.289211
N	-0.892344044	-1.5969493463	 1.9529856873	-0.348604
C	-0.2981502086	-1.7986296094	 3.1120486805	-0.017732
N	 0.9005294085	-1.1306636344	 3.2151419317	-0.371217
C	-0.0135837936	-0.052169485	-0.0214693727	-0.168859
H	-0.363419535	 1.8815809715	 1.0441124029	 0.111804
H	-0.3211643024	 2.0335353629	-0.7748927773	 0.108301
H	 1.8874758763	 0.8809338423	-0.8601293162	 0.086324
H	 3.020296889	-0.0439008186	 1.138211015	 0.109689
H	 2.2712007812	 1.3475386411	 1.9193072335	 0.112715
H	-0.6722508302	-2.4169239111	 3.9146748075	 0.123854
H	 1.5254812843	-1.1572486531	 4.0029411046	 0.262963
H	-0.357140787	-0.5226076582	-0.935213496	 0.092161
155.5278	222.3932	329.1633	417.2278	435.3259	501.5065	590.049	661.658	696.9025	738.2379	768.5139	781.6762	791.5105	810.9734	880.6061	956.2771	968.808	990.9054	1035.5574	1069.2703	1079.565	1092.6842	1099.3532	1146.0424	1177.959	1197.4704	1235.151	1274.9153	1288.4234	1352.9584	1374.7976	1410.7371	1452.7811	1476.5157	1491.4688	1518.9867	1610.2702	3010.5392	3040.4955	3119.5674	3175.7033	3181.9615	3207.8783	3248.4151	3667.1372
C1C2CC3=C(N=CN3)C12	C1[C@H]2Cc3c(nc[nH]3)[C@@H]12	
InChI=1S/C7H8N2/c1-4-2-6-7(5(1)4)9-3-8-6/h3-5H,1-2H2,(H,8,9)	InChI=1S/C7H8N2/c1-4-2-6-7(5(1)4)9-3-8-6/h3-5H,1-2H2,(H,8,9)/t4-,5-/m0/s1
