16
gdb 55435	2.77012	1.53473	1.00681	6.9865	66.78	-0.2427	0.0214	0.2641	1117.8314	0.126712	-471.28519	-471.276843	-471.275899	-471.318905	30.359	
N	 1.1603602413	-0.7379851639	-0.0664903958	-0.568733
C	 0.0317353921	 0.0711736949	-0.0959416968	 0.454063
O	 0.0896649268	 1.2711045844	 0.0115048203	-0.343574
N	-1.1647659379	-0.6581412655	-0.2059338005	-0.206304
C	-1.2587092413	-2.1023528783	 0.0085960096	-0.172426
C	-2.7590313798	-2.3913337249	-0.2047324423	-0.18217
N	-3.3463741376	-1.0927818769	 0.0566971129	-0.359156
C	-2.4506802015	-0.0549405388	-0.1590775082	 0.475312
O	-2.7274282496	 1.1072505265	-0.2767245392	-0.361351
H	 2.0087353449	-0.1997698116	-0.1602179129	 0.264918
H	 1.1612389791	-1.6095311879	-0.5722519308	 0.249911
H	-0.652451498	-2.6676964154	-0.7055963217	 0.11557
H	-0.9336105467	-2.3678875038	 1.0210720216	 0.136135
H	-2.9487034782	-2.7366993177	-1.2308980038	 0.114584
H	-3.1243361679	-3.1562510556	 0.4858473972	 0.125237
H	-4.3052383257	-0.8979519755	-0.1841041197	 0.257984
44.4719	104.5475	176.716	202.5501	223.0405	381.0595	396.0464	457.2461	519.557	557.2737	565.0048	680.1982	729.1587	742.1458	766.1195	784.2982	902.6164	973.9847	1051.1608	1100.4235	1122.9692	1138.2631	1208.5951	1239.5191	1248.3503	1255.5083	1341.646	1372.2957	1411.2991	1442.1526	1519.5199	1537.2016	1621.7275	1804.7526	1893.5204	2998.7066	3031.689	3069.0956	3084.032	3580.811	3645.2638	3695.7094
NC(=O)N1CCNC1=O	NC(=O)N1CCNC1=O	
InChI=1S/C4H7N3O2/c5-3(8)7-2-1-6-4(7)9/h1-2H2,(H2,5,8)(H,6,9)	InChI=1S/C4H7N3O2/c5-3(8)7-2-1-6-4(7)9/h1-2H2,(H2,5,8)(H,6,9)
