19
gdb 17814	4.16484	1.49816	1.35748	2.5418	71.9	-0.2384	0.0762	0.3145	985.5955	0.166479	-364.977017	-364.96943	-364.968485	-365.008987	29.455	
C	 0.8230788404	-0.1630655311	-1.3617857179	-0.39166
C	 0.0747720531	 0.0683552145	-0.0544664855	 0.087221
O	-0.0637475865	 1.4738285486	 0.1238003537	-0.44131
C	-1.3204346201	-0.5410761588	-0.0834395629	 0.072287
C	-1.7171726639	-1.9642024077	 0.3900863325	-0.087654
C	-1.4775884402	-1.4368640952	 1.8204490219	-0.178918
N	-2.2035902392	-0.2473569497	 1.1592487274	-0.17489
C	-3.1188172395	-1.3374914692	 0.5682651154	-0.16673
H	 1.7884402485	 0.3492890271	-1.3332781686	 0.127167
H	 1.0013409214	-1.2304138848	-1.5260532991	 0.112209
H	 0.2518658607	 0.2339308127	-2.20683467	 0.121632
H	 0.675601653	-0.3548535809	 0.7645088712	 0.06312
H	-0.7645708308	 1.5996950317	 0.7767495477	 0.29382
H	-1.8223421547	-0.1964674748	-0.9956379486	 0.075739
H	-1.4496213227	-2.9342370473	-0.0423693494	 0.068123
H	-2.0560726324	-1.8900791054	 2.6299675861	 0.102616
H	-0.4618094188	-1.2217904748	 2.1511339107	 0.109501
H	-3.6608692246	-1.0158243313	-0.3249726521	 0.104901
H	-3.7900381337	-1.7824334837	 1.3074077974	 0.102825
67.5009	155.3765	221.7964	259.0935	308.2543	443.1651	453.0277	489.0986	568.604	612.6597	765.0515	789.7824	842.7138	884.1933	904.5159	911.3871	927.9901	1001.3416	1018.4729	1061.5748	1070.375	1093.1452	1128.3125	1134.7624	1164.5229	1174.2615	1194.3333	1202.0918	1230.1771	1249.9992	1289.3235	1311.8487	1339.7455	1391.0366	1419.4396	1452.4213	1485.	1500.5283	1518.2845	1555.7531	2979.8541	3034.8416	3039.5278	3042.4747	3055.9685	3071.1439	3113.0308	3120.4776	3121.2426	3140.8273	3765.627
CC(O)C1C2CN1C2	C[C@@H](O)[C@H]1[C@H]2CN1C2	
InChI=1S/C6H11NO/c1-4(8)6-5-2-7(6)3-5/h4-6,8H,2-3H2,1H3	InChI=1S/C6H11NO/c1-4(8)6-5-2-7(6)3-5/h4-6,8H,2-3H2,1H3/t4-,6+/m1/s1
