18
gdb 73322	3.08499	2.00036	1.44744	1.2596	75.53	-0.2303	0.0785	0.3089	921.445	0.148442	-401.828127	-401.821317	-401.820373	-401.858808	28.388	
C	 0.0153943468	 1.5684071136	-0.1293578007	-0.506568
C	 0.0479709602	 0.0802706708	 0.06208802	 0.460135
O	 0.5211202378	-0.5760925896	-1.1550094802	-0.329835
C	 0.520535897	-2.0043301489	-0.8810137618	-0.194391
C	 0.0127455295	-1.9273047093	 0.544860265	 0.224295
C	-0.4433173132	-2.4074979906	 1.9302204049	-0.266347
N	-0.5984665662	-0.8816014977	 2.0793785783	-0.192523
C	 0.6775710879	-0.696483012	 1.2196742144	-0.09358
C	-1.0684526596	-0.8138496181	 0.6041981402	-0.09357
H	 1.0136682576	 1.9488329192	-0.3653823401	 0.129779
H	-0.6535932329	 1.836831968	-0.9523937909	 0.129773
H	-0.3388625652	 2.0538519679	 0.7841714975	 0.134519
H	-0.1492675879	-2.5153190863	-1.5809291046	 0.108181
H	 1.5355152251	-2.4020728362	-0.9870561553	 0.108181
H	-1.3898101995	-2.9515929431	 2.0017606134	 0.109679
H	 0.3073354631	-2.8375122713	 2.6000072809	 0.109679
H	 1.6687096368	-0.6429089502	 1.6718213935	 0.081296
H	-2.1222237572	-0.8977306461	 0.3355090055	 0.081295
214.0446	245.7745	252.0302	313.9329	375.154	456.2146	491.1059	617.9159	681.2741	727.2581	769.6123	826.7637	841.6984	848.098	868.7424	896.1972	897.3053	940.261	1023.5	1024.3555	1047.4747	1068.3475	1090.6993	1119.0139	1120.7554	1164.2815	1182.9336	1184.5025	1201.8015	1221.3486	1250.258	1279.9035	1330.7866	1383.5552	1428.0672	1481.1119	1493.8306	1513.1487	1518.6849	3032.9117	3043.7777	3045.1377	3078.9896	3106.9654	3109.4425	3111.9711	3114.1137	3123.4366
CC12OCC34CN(C13)C24	C[C@@]12OC[C@@]34CN([C@H]13)[C@@H]24	
InChI=1S/C7H9NO/c1-6-4-7(3-9-6)2-8(4)5(6)7/h4-5H,2-3H2,1H3	InChI=1S/C7H9NO/c1-6-4-7(3-9-6)2-8(4)5(6)7/h4-5H,2-3H2,1H3/t4-,5+,6-,7+
