17
gdb 97990	5.60553	0.46258	0.44183	1.5371	82.42	-0.2551	0.0151	0.2702	2385.9735	0.131332	-421.726587	-421.715805	-421.714861	-421.764643	35.939	
O	 0.140831244	 0.8669171736	 1.0459386276	-0.408249
C	-0.0762238352	 0.1760825836	-0.1777981887	-0.218445
C	-1.4095697012	-0.4091966181	-0.1851093526	 0.190156
C	-2.5030317144	-0.9094125033	-0.2118774204	-0.005646
C	-3.8391838534	-1.4809953273	-0.2430664447	-0.204372
O	-3.7809119613	-2.8752204797	 0.0109716308	-0.240293
C	-5.0706834633	-3.4589734954	-0.0016631183	-0.199849
C	-4.9700242103	-4.8885874034	 0.2537814021	 0.285516
C	-4.9183645887	-6.0698336994	 0.462020178	-0.410707
H	 1.0357474457	 1.2207883873	 1.0203126784	 0.290525
H	 0.0227830585	 0.85342735	-1.041969196	 0.117614
H	 0.6617813767	-0.6300886586	-0.3202287406	 0.123254
H	-4.4730784404	-0.9796105253	 0.5089989528	 0.122379
H	-4.3070593063	-1.2910085071	-1.2249996256	 0.117459
H	-5.7150940084	-2.9891507211	 0.7617746246	 0.12033
H	-5.5624984051	-3.2893128386	-0.9755513277	 0.118816
H	-4.8632373769	-7.1139847871	 0.6476448604	 0.201512
26.484	64.0922	67.4523	92.8985	140.4031	159.507	226.1829	289.6155	307.7168	332.9573	352.4457	443.3178	546.3265	591.5488	609.2527	677.4847	791.3188	979.0089	1009.3152	1020.4891	1025.8625	1047.4588	1051.6396	1121.2278	1164.6425	1243.0796	1250.2631	1256.8208	1261.1749	1373.3481	1442.2564	1459.772	1490.3165	1499.3765	1508.1044	2249.4335	2377.9074	2943.3724	2951.725	2962.4634	2963.6269	2968.5822	2983.0396	3506.6022	3818.1477
OCC#CCOCC#C	OCC#CCOCC#C	
InChI=1S/C7H8O2/c1-2-6-9-7-4-3-5-8/h1,8H,5-7H2	InChI=1S/C7H8O2/c1-2-6-9-7-4-3-5-8/h1,8H,5-7H2
