18
gdb 33796	3.50041	1.38812	1.19309	5.0744	76.01	-0.2361	0.0208	0.2569	1054.345	0.151456	-398.113567	-398.10622	-398.105276	-398.14512	29.376	
N	 0.1002026994	-1.1636988566	-0.0292768899	-0.340713
C	 0.0346905391	-0.01038127	 0.0021837632	 0.221433
C	-0.0280622874	 1.4475584438	 0.0555727264	 0.173432
C	-0.921827	 2.1360565935	 1.1328216978	-0.250238
C	-1.1236947849	 3.1929692545	 0.0163925345	 0.003138
C	 0.0491497749	 4.1785257747	 0.0006180945	-0.166305
N	 1.2480593197	 3.4803893091	 0.46739445	-0.308528
C	 1.3774041409	 2.0869289855	 0.0503180139	-0.202012
N	-0.8994465315	 2.0925867258	-0.9678389392	-0.32346
H	-1.8270802702	 1.5603307136	 1.3192056034	 0.129567
H	-0.4371973146	 2.4437025922	 2.0569390382	 0.129381
H	-2.0897848959	 3.6944566047	-0.0707320775	 0.082537
H	 0.1331298437	 4.5901943116	-1.022825989	 0.084425
H	-0.1449649134	 5.02427879	 0.6724202919	 0.108917
H	 2.0926719852	 4.004706861	 0.2833062849	 0.228421
H	 2.0416609366	 1.5670063835	 0.7508152261	 0.123113
H	 1.7960075815	 1.9441993382	-0.9630139975	 0.095934
H	-0.3966681432	 2.3727686949	-1.8100705916	 0.210957
148.2205	152.411	225.0135	318.6101	405.1198	429.1141	449.6526	534.1104	553.5081	576.9981	623.0048	709.5923	831.1066	864.6333	896.6975	918.9939	935.8385	958.9319	996.5079	1034.5628	1047.8676	1092.8365	1114.0084	1158.6187	1175.6827	1213.3952	1217.1448	1236.2758	1252.2251	1300.8263	1309.6525	1335.5163	1377.7536	1413.2741	1475.2884	1481.5321	1507.409	1517.0212	2358.0103	2922.1861	2932.2169	3035.1328	3047.1823	3087.8297	3109.498	3180.9768	3449.2786	3570.1058
N#CC12CC(CNC1)N2	N#C[C@@]12C[C@@H](CNC1)N2	
InChI=1S/C6H9N3/c7-3-6-1-5(9-6)2-8-4-6/h5,8-9H,1-2,4H2	InChI=1S/C6H9N3/c7-3-6-1-5(9-6)2-8-4-6/h5,8-9H,1-2,4H2/t5-,6-/m0/s1
