19
gdb 48878	3.15564	1.51005	1.26602	2.828	78.66	-0.2463	-0.0225	0.2238	1034.9827	0.16092	-385.883942	-385.876585	-385.875641	-385.915805	29.381	
O	-0.0755343847	-0.0212840432	 0.0374309272	-0.256186
C	 0.0282994424	 1.1776917943	-0.0441487878	 0.065593
C	 1.321381429	 1.9291906498	-0.0538140534	 0.235702
C	 1.3645700647	 3.1947894064	 0.8852920692	-0.286614
C	 1.9180250131	 4.0083921604	-0.2800378216	-0.064168
C	 3.0086519958	 3.2370791517	-1.0070241011	-0.029464
C	 3.7333634659	 2.1031012544	-0.2810819719	-0.253307
C	 2.6029075486	 1.10027491	 0.077576143	-0.255039
C	 1.5668770588	 2.9030530279	-1.2598521069	-0.124172
H	-0.8776037159	 1.8242212255	-0.1240448922	 0.069478
H	 0.3571184409	 3.5232308074	 1.1582562468	 0.106861
H	 1.9652730054	 3.0950769885	 1.7961776079	 0.100218
H	 1.815500358	 5.0800297458	-0.4051160607	 0.086561
H	 3.5343499091	 3.8043662296	-1.7677418473	 0.087604
H	 4.4872715437	 1.6433810406	-0.9267640317	 0.10348
H	 4.2575879278	 2.4648844618	 0.6099882623	 0.102678
H	 2.7115147262	 0.670740246	 1.0775494204	 0.104971
H	 2.5721190832	 0.2675441488	-0.6315152305	 0.11404
H	 1.053399828	 2.9211420644	-2.2119475619	 0.091765
80.283	180.6839	207.3885	308.0713	372.0158	397.2134	459.5982	593.0777	697.4366	711.2209	754.0332	777.403	812.5903	840.8818	875.1851	918.9968	955.1081	969.7027	993.4764	1002.1792	1014.0594	1043.6167	1058.2252	1084.7789	1107.8143	1144.5498	1155.5766	1207.0822	1222.2754	1226.9931	1266.5407	1273.6895	1309.6225	1320.054	1352.1326	1396.9283	1431.0242	1486.4502	1490.5607	1509.8587	1817.5446	2851.1824	3034.8311	3043.9043	3057.8537	3080.2839	3088.9905	3104.5195	3168.543	3177.4413	3202.2081
O=CC12CC3C(CC1)C23	O=C[C@@]12C[C@H]3[C@@H](CC1)[C@@H]23	
InChI=1S/C8H10O/c9-4-8-2-1-5-6(3-8)7(5)8/h4-7H,1-3H2	InChI=1S/C8H10O/c9-4-8-2-1-5-6(3-8)7(5)8/h4-7H,1-3H2/t5-,6+,7-,8+/m1/s1
