23
gdb 60821	1.99388	1.32507	0.8654	2.6674	86.22	-0.2414	-0.0136	0.2279	1407.8423	0.20314	-388.293375	-388.282813	-388.281868	-388.329441	38.489	
C	-0.0014058407	 1.5236616671	-0.0913445483	-0.427008
C	 0.0619975325	-0.0126865345	 0.0178256385	-0.051865
C	 0.8801708109	-0.5156038437	-1.1567711423	 0.176155
O	 0.4528093482	-1.1476763112	-2.0875629608	-0.261742
C	 0.6652280126	-0.5123399562	 1.3576054062	-0.004551
C	-0.1121652262	 0.012423867	 2.5747258059	-0.405211
C	 0.7284284234	-2.0322256593	 1.3836487768	 0.039276
C	 1.9084572555	-2.7866250228	 0.8207324151	-0.271
C	 1.6767182013	-2.7468023661	 2.3113817238	-0.286251
H	 0.9922439569	 1.9710663318	 0.028374159	 0.119657
H	-0.3916892432	 1.8274658814	-1.0674570533	 0.130648
H	-0.6552173967	 1.9479050153	 0.6737734843	 0.130294
H	-0.9464743422	-0.4269078951	-0.0998529754	 0.089656
H	 1.9542614831	-0.2084685498	-1.1191668094	 0.061912
H	 1.6965179258	-0.1320844806	 1.4225337197	 0.068343
H	 0.3063244452	-0.4022442347	 3.4963770668	 0.120621
H	-0.0756951492	 1.1020254017	 2.6533049674	 0.115276
H	-1.1655628877	-0.2871487834	 2.5249687785	 0.115691
H	-0.2394612132	-2.5096991192	 1.2441688215	 0.086691
H	 1.7221373905	-3.712117221	 0.2879995652	 0.120692
H	 2.7431468544	-2.2143240393	 0.4292157081	 0.110538
H	 2.3520492883	-2.141216194	 2.9079131954	 0.109469
H	 1.3373706306	-3.6492608135	 2.8074543174	 0.112707
48.7669	74.7482	99.7917	162.4227	200.018	204.0907	231.2313	283.6768	330.2215	332.6941	369.3971	432.625	488.1291	554.0624	764.7192	816.8882	830.7316	853.8981	901.596	930.3941	952.366	963.7141	980.0538	1022.0965	1055.1059	1063.6613	1084.0972	1113.1513	1141.2451	1155.1654	1171.1163	1197.3395	1210.7293	1228.673	1263.8976	1303.8309	1328.5051	1365.4028	1400.0642	1411.2939	1418.5146	1429.0066	1470.4528	1492.7837	1493.7974	1499.0947	1507.417	1511.3794	1835.0864	2828.6095	2985.9112	3032.7229	3035.2671	3045.2008	3101.2098	3102.157	3113.3919	3125.0915	3126.3584	3128.0583	3135.592	3206.7631	3222.6743
CC(C=O)C(C)C1CC1	C[C@@H](C=O)[C@@H](C)C1CC1	
InChI=1S/C8H14O/c1-6(5-9)7(2)8-3-4-8/h5-8H,3-4H2,1-2H3	InChI=1S/C8H14O/c1-6(5-9)7(2)8-3-4-8/h5-8H,3-4H2,1-2H3/t6-,7+/m0/s1
