18
gdb 55781	4.54511	0.91119	0.77	3.3511	77.38	-0.2151	-0.0015	0.2135	1454.5247	0.146843	-439.12335	-439.11399	-439.113046	-439.160204	32.377	
C	 0.0062338224	 1.5468393928	-0.1664819866	-0.502507
C	-0.000754714	 0.0537616633	 0.1227690181	 0.400298
O	-0.0040932756	-0.4107243079	 1.2434523372	-0.336872
N	-0.0032952498	-0.7351802409	-1.0113907553	-0.422493
C	-0.0095303523	-2.1274861485	-1.041089416	 0.365545
C	-0.0145227505	-3.0264485796	-0.0560271398	-0.22119
C	-0.0201173048	-4.4018426601	-0.6560671676	-0.100724
O	-0.017932489	-4.2081463447	-2.0754216563	-0.261737
C	-0.0113767297	-2.8277601044	-2.3785116269	-0.158605
H	 0.8934881928	 1.8315304461	-0.7421221111	 0.140735
H	-0.876181225	 1.8392788664	-0.7456596714	 0.140677
H	 0.0067248402	 2.0835858969	 0.7811533355	 0.157068
H	-0.000315493	-0.2626351516	-1.901616927	 0.252183
H	-0.0146060979	-2.8188072733	 1.0008787202	 0.13617
H	 0.8623282912	-4.9952310603	-0.3688195838	 0.10539
H	-0.9083666436	-4.9873163152	-0.3704782334	 0.105395
H	-0.8970513587	-2.5625638491	-2.9818484675	 0.100335
H	 0.8778627974	-2.5705901101	-2.9800803883	 0.100331
10.1536	73.695	88.2078	102.5275	160.6885	271.4189	330.0051	350.9144	476.2725	502.0621	565.4156	616.0639	742.5003	772.9653	829.2626	920.0562	930.8478	935.8194	993.8007	1018.6037	1028.846	1049.0585	1067.1001	1130.3188	1167.0254	1223.1555	1234.4876	1256.6123	1284.3706	1363.9656	1387.1911	1399.4281	1470.5933	1483.8823	1520.5155	1534.043	1548.2553	1731.0253	1797.404	2946.1632	2958.7946	2973.6554	2987.4117	3041.3491	3102.8469	3167.123	3282.9942	3627.7102
CC(=O)NC1=CCOC1	CC(=O)NC1=CCOC1	
InChI=1S/C6H9NO2/c1-5(8)7-6-2-3-9-4-6/h2H,3-4H2,1H3,(H,7,8)	InChI=1S/C6H9NO2/c1-5(8)7-6-2-3-9-4-6/h2H,3-4H2,1H3,(H,7,8)
