16
gdb 67239	2.92353	1.1778	0.98314	2.2456	74.59	-0.2229	-0.0775	0.1454	1200.1421	0.122396	-437.819324	-437.810696	-437.809752	-437.85251	32.31	
O	-0.3476041097	 1.4501816115	-0.10409685	-0.446259
C	 0.1075511211	 0.1501259385	-0.1151904389	 0.390218
C	-0.8835467679	-0.980306879	-0.2335279878	-0.004873
N	-0.9179057396	-1.9203459299	-1.3096379769	-0.517781
H	 0.0206433046	-2.2067768597	-1.5718314314	 0.234569
H	-1.4257140659	-2.7557701934	-1.0352923063	 0.235348
C	 1.5170075769	-0.3189088853	-0.4378905446	-0.306042
C	 1.4852389183	-1.2794054879	 0.513537201	 0.25027
C	 2.3824238131	-2.3979574228	 0.8153331547	 0.039683
O	 3.5119081444	-2.4994642574	 0.3874472978	-0.259466
C	 0.0773099081	-0.9361317966	 0.9810700327	-0.331765
H	 0.2428972465	 1.9755131792	 0.4486191024	 0.290846
H	-1.882769435	-0.6429801301	 0.0399049003	 0.116973
H	 2.2046606865	-0.0933965928	-1.2449734292	 0.132227
H	 1.9561257455	-3.1630187727	 1.5021077679	 0.072298
H	-0.268945777	-0.8248290916	 2.0007432484	 0.103755
88.2696	147.0703	182.6816	236.4455	241.1394	309.7309	351.429	380.0977	398.337	451.5407	549.2214	600.7803	671.2637	781.3632	807.6442	854.8607	874.2236	881.952	899.4382	978.7278	1017.0177	1033.2862	1106.5414	1121.7174	1165.3906	1197.8719	1221.8843	1265.2068	1322.7652	1363.1526	1430.4612	1475.7681	1623.7664	1652.6913	1774.4588	2881.5404	3131.897	3201.6583	3202.5197	3491.4729	3573.5439	3784.7298
OC12C3[NH2+]C1[C-](C=O)C23	O[C@@]12[C@@H](N)[C@H]2C(=C1)C=O	
InChI=1S/C6H6NO2/c8-1-2-3-5-6(3,9)4(2)7-5/h1,3-5,7,9H/q-1/p+1	InChI=1S/C6H7NO2/c7-5-4-3(2-8)1-6(4,5)9/h1-2,4-5,9H,7H2/t4-,5+,6+/m1/s1
