17
gdb 44549	3.1701	1.53535	1.4696	4.3341	70.59	-0.2352	-0.0066	0.2286	949.773	0.136728	-421.817215	-421.810255	-421.809311	-421.848838	27.726	
O	-0.0004192202	-0.0497934316	-0.2638422128	-0.310973
C	-0.0122101899	 1.1182483945	 0.0158999276	 0.404703
C	-1.2768800801	 1.9729753825	 0.2203369964	-0.327789
C	-0.823290534	 3.2195040491	 0.975799952	-0.072885
C	-0.7388875835	 3.1105544349	 2.5086534778	 0.023697
O	 0.0167833207	 1.927037191	 2.8021973454	-0.241874
C	 0.7319816616	 3.1301202679	 2.4874414482	 0.023678
C	 0.76908254	 3.2410447473	 0.9528360337	-0.072898
C	 1.2342067336	 2.0070381107	 0.1839670969	-0.327786
H	-1.6650545353	 2.2285195719	-0.7735994808	 0.125215
H	-2.0435226347	 1.3834749777	 0.7280391612	 0.136226
H	-1.2820372078	 4.1502129215	 0.6401292461	 0.08248
H	-1.4464671542	 3.4404604634	 3.260713401	 0.107136
H	 1.4519055971	 3.4790417105	 3.2189250145	 0.107142
H	 1.1926149594	 4.1837249156	 0.6045168876	 0.082501
H	 2.0309217296	 1.4387031773	 0.6689918229	 0.136216
H	 1.5863677578	 2.272696006	-0.8206717976	 0.125211
73.247	152.6907	255.8168	390.9589	432.0229	474.236	564.9482	642.268	649.2457	720.5744	768.4409	775.202	824.0864	863.7465	877.8082	895.6606	922.5359	974.6856	1029.8071	1040.6354	1061.4938	1079.5028	1110.3542	1112.8258	1149.0976	1211.1311	1231.495	1237.5018	1265.1441	1271.2312	1280.2412	1329.4626	1335.5025	1388.8008	1440.2317	1448.3265	1850.5111	3038.2337	3041.1733	3098.8805	3109.3222	3112.8553	3113.8535	3177.8613	3193.207
O=C1CC2C3OC3C2C1	O=C1C[C@H]2[C@H]3O[C@H]3[C@H]2C1	
InChI=1S/C7H8O2/c8-3-1-4-5(2-3)7-6(4)9-7/h4-7H,1-2H2	InChI=1S/C7H8O2/c8-3-1-4-5(2-3)7-6(4)9-7/h4-7H,1-2H2/t4-,5+,6-,7+
