20
gdb 79847	2.90098	1.73318	1.26763	1.1127	78.71	-0.23	0.0711	0.301	1030.6357	0.172077	-403.089062	-403.08124	-403.080296	-403.120721	31.82	
C	 0.0338237701	 1.5628768147	-0.168182116	-0.508936
C	 0.032091458	 0.0517946161	-0.0376381374	 0.369948
C	 0.3242349846	-0.7267258821	-1.3248752373	-0.291439
C	 0.2244078783	-2.1623452213	-0.7656431812	-0.167094
N	-0.0903359191	-1.9578762818	 0.6667895641	-0.135372
C	 0.7355701069	-0.753233619	 1.1206074123	-0.110171
C	-0.4084471509	-0.463428671	 2.1021975489	 0.140973
O	-0.4618600309	 0.8182900306	 2.6694887911	-0.433099
C	-1.0611753458	-0.7809705199	 0.7306921421	-0.138371
H	 1.0088738401	 1.9101482481	-0.5301644441	 0.111632
H	-0.712071683	 1.8780432319	-0.9078931166	 0.108611
H	-0.1804722814	 2.0588790441	 0.7765730293	 0.144186
H	-0.4133021202	-0.5116604926	-2.1057825524	 0.095558
H	 1.3126014257	-0.4852128418	-1.730837088	 0.09651
H	-0.5715839584	-2.7553432315	-1.2258139127	 0.102309
H	 1.1563239407	-2.7293309598	-0.8501162631	 0.103108
H	 1.8042338831	-0.8469108186	 1.3299719111	 0.072286
H	-0.5573396361	-1.2524531469	 2.8468238832	 0.084787
H	-1.2551892451	 0.8708567922	 3.2107129059	 0.288292
H	-2.1177325466	-0.9089278612	 0.4782605109	 0.066281
194.0007	199.9743	240.1614	250.5114	267.521	337.3836	359.3238	450.3446	504.3054	635.5595	712.2795	726.2044	731.7194	812.7821	831.97	843.7066	920.3368	927.0218	937.7731	973.2104	1032.0798	1033.5814	1083.8115	1088.312	1112.0459	1148.1404	1158.9664	1183.6941	1198.3225	1222.0445	1233.5079	1237.6992	1255.8508	1284.1128	1305.1834	1331.3123	1342.2426	1408.463	1444.1373	1489.1261	1494.9432	1509.3756	1511.1476	3026.9947	3037.7301	3051.0655	3054.1358	3071.6386	3071.9081	3077.828	3085.3414	3099.0711	3165.2415	3827.8034
CC12CCN3C1C(O)C23	C[C@@]12CCN3[C@@H]1[C@@H](O)[C@@H]23	
InChI=1S/C7H11NO/c1-7-2-3-8-5(7)4(9)6(7)8/h4-6,9H,2-3H2,1H3	InChI=1S/C7H11NO/c1-7-2-3-8-5(7)4(9)6(7)8/h4-6,9H,2-3H2,1H3/t4-,5-,6+,7-
