21
gdb 66156	3.41966	1.00427	0.9103	3.2231	79.07	-0.2394	0.0824	0.3218	1366.4556	0.181509	-424.189867	-424.180707	-424.179763	-424.224368	34.956	
O	 0.4095799261	 0.9883894338	-1.1909637547	-0.482333
C	 0.2506652443	-0.1301583977	-0.3662855029	 0.440272
C	 1.135133948	-1.321579112	-0.6974030049	-0.267177
C	 2.6315334293	-1.1329578635	-0.3727929295	-0.236842
C	 3.3840146584	-0.2181216554	-1.3101309989	 0.103939
O	 3.1933599002	 1.1969805807	-1.154967724	-0.24022
C	 4.4760471458	 0.6460340575	-0.8409832531	-0.184188
C	-0.1424782433	 0.1184664483	 1.0736322419	-0.320695
C	-1.1658950515	-0.365104859	 0.062273442	-0.302268
H	 1.2850135424	 1.3646824186	-1.0226730317	 0.298289
H	 0.7740831278	-2.1890958271	-0.133617857	 0.094388
H	 1.0127560979	-1.5644282465	-1.7610452507	 0.102979
H	 2.7404119492	-0.7613226788	 0.6532680647	 0.105377
H	 3.1279772951	-2.1115389133	-0.4103022727	 0.103293
H	 3.4036252932	-0.5315966204	-2.3551998178	 0.100558
H	 4.7370429494	 0.6486136361	 0.2162631226	 0.120786
H	 5.2773314225	 0.9348571773	-1.5187478237	 0.121969
H	 0.1917119918	-0.5736464812	 1.8402577633	 0.101626
H	-0.207912531	 1.1529631649	 1.3904127078	 0.114042
H	-1.896056887	 0.3547013564	-0.2886576074	 0.121199
H	-1.5289226087	-1.3843448286	 0.1399327265	 0.105008
46.9656	70.8143	161.6884	209.9896	216.9012	316.3864	345.0302	394.4777	423.3798	453.7494	548.0317	596.449	687.4552	756.5237	780.6575	837.47	863.7135	906.541	928.9242	932.4134	952.9606	981.5433	993.8213	1041.712	1044.461	1075.8948	1096.3288	1116.9103	1159.4045	1172.3942	1189.2755	1208.4061	1248.8955	1292.0317	1296.2909	1318.3976	1358.9003	1374.5207	1415.232	1445.1497	1453.5303	1467.2541	1474.1579	1501.5864	1528.6523	3019.6093	3024.2481	3063.5586	3070.0441	3088.865	3104.2792	3126.9581	3136.3979	3177.8463	3215.1681	3230.6836	3730.4782
OC1(CCC2OC2)CC1	OC1(CC[C@H]2OC2)CC1	
InChI=1S/C7H12O2/c8-7(3-4-7)2-1-6-5-9-6/h6,8H,1-5H2	InChI=1S/C7H12O2/c8-7(3-4-7)2-1-6-5-9-6/h6,8H,1-5H2/t6-/m1/s1
