16
gdb 128540	2.24687	1.79686	1.01557	3.3913	68.64	-0.2053	0.0116	0.2169	1124.7974	0.123565	-471.185999	-471.176751	-471.175807	-471.22127	31.76	
C	 0.1038691371	 1.4196572123	 0.4241731483	-0.254574
O	-0.2546678322	 0.419525137	-0.5325640896	-0.275763
C	-1.2719364443	-0.3865262967	-0.1801870361	 0.33278
C	-1.9086984614	-0.7488254626	 0.9915081863	 0.244862
O	-1.657628326	-0.3161765842	 2.2522852307	-0.446214
N	-2.8730386849	-1.6441834958	 0.7013428814	-0.278778
N	-2.8794302786	-1.8777582311	-0.5894607892	-0.174327
N	-1.9111952882	-1.1119418967	-1.1331988404	-0.01369
C	-1.645304005	-1.1382729609	-2.554478699	-0.331459
H	 0.9291719977	 1.9758227856	-0.0214096817	 0.138892
H	-0.738526727	 2.0933708425	 0.6156724304	 0.135447
H	 0.4227037781	 0.9671529691	 1.3671561477	 0.152932
H	-2.3049673635	-0.7527281416	 2.8202772189	 0.305685
H	-1.7172024988	-0.1317863924	-2.9747498392	 0.148017
H	-0.6464053445	-1.5353401877	-2.7558073158	 0.149599
H	-2.3973178484	-1.7848682566	-3.0060135427	 0.166591
23.9017	89.8763	146.8342	165.3454	191.3004	277.2466	294.3911	316.9722	354.014	402.0295	549.4588	598.2129	673.1246	710.1643	729.1497	828.0244	1039.0797	1061.2417	1111.4818	1153.6998	1175.7591	1179.6857	1222.7123	1266.7229	1299.6303	1376.5179	1414.7802	1445.4955	1478.6957	1482.7438	1489.0262	1501.8251	1506.6618	1561.7581	1694.6231	3034.8076	3052.1233	3110.1456	3117.053	3151.4922	3166.595	3794.2319
COC1=C(O)N=NN1C	COc1c(O)nnn1C	
InChI=1S/C4H7N3O2/c1-7-4(9-2)3(8)5-6-7/h8H,1-2H3	InChI=1S/C4H7N3O2/c1-7-4(9-2)3(8)5-6-7/h8H,1-2H3
