21
gdb 63699	2.446	1.66011	1.25851	1.3298	78.23	-0.2401	0.0654	0.3055	1103.5192	0.180035	-424.205311	-424.196042	-424.195098	-424.238588	35.656	
C	 0.2959832515	 1.4641021059	-0.0479494441	-0.438722
C	-0.0125049546	-0.0174233722	 0.0568130535	 0.385604
C	-1.4833259485	-0.3400074121	-0.1754006696	-0.42764
O	 0.8167556749	-0.8085215718	-0.8682642481	-0.378947
C	 1.3220534982	-1.6429236482	 0.1948494065	 0.403315
C	 1.210410911	-3.1159342841	-0.0910687161	-0.486002
C	 2.6080893322	-1.0582072363	 0.8160410619	-0.125631
O	 1.8349180486	-0.2519891985	 1.7430395459	-0.293171
C	 0.5942790348	-0.7877400866	 1.2576845334	-0.036237
H	 1.3332883225	 1.6618628701	 0.2272251333	 0.134048
H	 0.1276989507	 1.8058319811	-1.0741830351	 0.12093
H	-0.3537626855	 2.0426389384	 0.6169052701	 0.114624
H	-1.7740222353	-0.0564749568	-1.1915723904	 0.127468
H	-1.6766554954	-1.4105844482	-0.0553202918	 0.115431
H	-2.1166422402	 0.2055428519	 0.5324392468	 0.116126
H	 1.8360043259	-3.3776483754	-0.9521545826	 0.133001
H	 1.5434152475	-3.709565818	 0.7658337876	 0.122169
H	 0.179831739	-3.3909979229	-0.3314947195	 0.128262
H	 3.2410342752	-1.7753949671	 1.3541885176	 0.098992
H	 3.2157626225	-0.4561039346	 0.1325582533	 0.109991
H	-0.0684473248	-1.1272063448	 2.0572917373	 0.07639
104.8368	178.2047	198.7404	202.9495	227.5359	243.3349	307.7015	322.103	348.8358	400.6563	444.5368	529.6002	599.7177	674.0709	794.7033	836.5467	859.2499	913.7795	936.4851	951.3709	960.7157	971.609	994.3963	1011.8093	1049.2955	1121.2806	1151.3192	1164.262	1190.4891	1224.2663	1231.5577	1267.6245	1297.1878	1314.8501	1381.338	1398.2773	1410.8472	1413.7976	1473.8352	1476.346	1482.5573	1489.3992	1494.4957	1500.7823	1506.9896	3015.2602	3032.5994	3035.0421	3042.0958	3080.2268	3082.5313	3101.9407	3103.5046	3107.7039	3112.6626	3118.8571	3139.5286
CC1(C)OC2(C)COC12	CC1(C)O[C@@]2(C)CO[C@@H]12	
InChI=1S/C7H12O2/c1-6(2)5-7(3,9-6)4-8-5/h5H,4H2,1-3H3	InChI=1S/C7H12O2/c1-6(2)5-7(3,9-6)4-8-5/h5H,4H2,1-3H3/t5-,7-/m0/s1
