17
gdb 76783	2.40875	1.57693	1.13258	1.2177	70.04	-0.2485	-0.039	0.2095	1088.6194	0.134116	-458.945422	-458.936528	-458.935583	-458.979567	32.667	
O	 0.4189367839	 0.8081297821	 0.830317915	-0.4406
C	-0.0268423627	-0.3032079489	 0.0879288188	 0.004561
C	-1.5887425421	-0.3767959363	-0.104275133	-0.029121
O	-2.2183935266	 0.8314234642	 0.2298861764	-0.430539
C	-1.3524337756	-0.5579192149	-1.6182125178	 0.229252
C	-1.9354123506	-1.5923087012	-2.5646125207	-0.321574
C	-2.2468469066	-0.1474320446	-2.7636529326	-0.300068
C	 0.0908067395	-0.2123742039	-1.4496588701	 0.28581
O	 0.9814456577	 0.1540968754	-2.1685728707	-0.326124
H	 1.0289663152	 1.3053003514	 0.271795725	 0.307823
H	 0.3907901155	-1.2380220379	 0.4833552386	 0.108843
H	-2.0798030146	-1.2170927733	 0.39913168	 0.07415
H	-1.5458702674	 1.3654358999	 0.6791182647	 0.29162
H	-1.2465078612	-2.0761987465	-3.2487517186	 0.134254
H	-2.7036591979	-2.2384461887	-2.1523764704	 0.130609
H	-3.2270499468	 0.2227849437	-2.4853707632	 0.142889
H	-1.7659106795	 0.3775193596	-3.5820967613	 0.138213
34.6051	151.3602	169.9249	199.7433	215.9312	257.3907	269.9364	401.982	443.8965	514.7879	542.4739	636.8446	738.3552	764.4422	802.5706	824.7197	860.5135	930.0294	957.9359	978.6881	1029.3791	1057.9687	1083.1736	1111.8362	1137.6047	1152.1146	1197.3551	1225.2045	1256.388	1321.9959	1343.0483	1351.1827	1381.4452	1419.094	1460.599	1491.2593	1867.8375	3025.079	3043.9824	3130.9805	3139.1228	3216.8786	3234.5136	3708.0689	3787.7892
OC1C(O)C2(CC2)C1=O	O[C@H]1[C@@H](O)C2(CC2)C1=O	
InChI=1S/C6H8O3/c7-3-4(8)6(1-2-6)5(3)9/h3-4,7-8H,1-2H2	InChI=1S/C6H8O3/c7-3-4(8)6(1-2-6)5(3)9/h3-4,7-8H,1-2H2/t3-,4+/m0/s1
