20
gdb 36991	6.00768	0.6685	0.63311	2.8074	76.55	-0.2487	0.064	0.3126	1760.6182	0.17071	-440.213563	-440.20445	-440.203505	-440.249279	32.149	
C	 0.0274960253	 1.3921831075	-0.3113148071	-0.09474
O	 0.01311011	 0.0980268927	 0.2672511629	-0.250776
C	-1.216705895	-0.5581972608	 0.1429105012	 0.097585
C	-1.5332563437	-1.2721822201	-1.1963483715	-0.093949
O	-1.6714261624	-2.5381819989	-0.5198874328	-0.272015
C	-1.210713251	-1.9780281492	 0.7278789214	-0.099814
C	 1.400192895	 1.9823236723	-0.1464711019	 0.016793
C	 1.5424622658	 3.4464100864	 0.0521597849	-0.24641
N	 1.825591779	 2.5149296399	 1.1545230476	-0.302546
H	-0.2351243768	 1.3393369351	-1.3809375555	 0.09875
H	-0.7240353056	 2.0361964529	 0.1790042356	 0.081467
H	-2.0377373681	 0.077573153	 0.5042460851	 0.073886
H	-2.4515819038	-0.9850106309	-1.7210544445	 0.102149
H	-0.6878975188	-1.2644970353	-1.8978306411	 0.102124
H	-0.2014781437	-2.3164031175	 0.9936057197	 0.114323
H	-1.9001324917	-2.1843519992	 1.5535938558	 0.105555
H	 2.1853348017	 1.4447622879	-0.6733378266	 0.101873
H	 2.4091074983	 3.9664067804	-0.3451230573	 0.123334
H	 0.6356014954	 4.045781415	 0.0888386397	 0.110458
H	 1.0454592599	 2.4925128387	 1.8075834144	 0.231953
49.2955	54.1707	80.251	124.4528	140.8737	274.3171	328.0091	425.2897	451.355	503.4953	740.3399	811.9375	839.5709	872.1914	888.7765	934.4725	944.5405	986.4022	1012.4075	1028.7743	1046.0469	1058.4968	1076.3945	1128.4228	1136.8819	1153.8965	1157.0492	1165.3806	1207.9143	1220.3363	1251.3239	1274.5484	1280.7065	1303.0535	1313.6034	1344.1994	1374.769	1411.9819	1458.9015	1498.3754	1507.1091	1515.4216	1526.0971	2946.6714	2983.1831	2997.592	3006.6737	3025.286	3064.5398	3076.7789	3106.8113	3137.9869	3192.1751	3493.7115
C(OC1COC1)C1CN1	C(OC1COC1)[C@H]1CN1	
InChI=1S/C6H11NO2/c1-5(7-1)2-9-6-3-8-4-6/h5-7H,1-4H2	InChI=1S/C6H11NO2/c1-5(7-1)2-9-6-3-8-4-6/h5-7H,1-4H2/t5-/m1/s1
