12
gdb 130869	2.89217	1.52232	0.99735	3.1805	65.8	-0.2755	-0.1275	0.1479	1060.4828	0.076935	-472.6328	-472.625594	-472.62465	-472.664994	25.774	
O	-0.9226638241	 1.2388172713	-0.1391020397	-0.254458
C	 0.2038871237	 0.8541719861	 0.0665319345	 0.109629
C	 1.3857014744	 1.7597546318	-0.0277367204	-0.009128
C	 1.252717415	 3.0663361414	-0.3505127485	-0.160741
C	 2.4240110584	 3.8826206015	-0.4247733714	 0.037939
N	 3.6249896846	 3.456902528	-0.2020708394	-0.035314
O	 3.7736901121	 2.1311138678	 0.1268547004	-0.251367
C	 2.7157858793	 1.2177730408	 0.2357179994	 0.427251
O	 2.9865817954	 0.0872098959	 0.5305948641	-0.314174
H	 0.4371694056	-0.1903485903	 0.337357248	 0.130305
H	 0.2676407705	 3.4776721263	-0.5479381286	 0.162563
H	 2.3679179751	 4.9356242194	-0.6797270385	 0.157494
97.4081	135.926	200.2709	230.6611	365.4411	381.5235	518.8259	559.3627	568.2598	617.906	780.4933	818.3446	887.882	898.9806	911.8754	991.1992	1036.0114	1057.2442	1069.3813	1228.4975	1350.3195	1354.093	1425.1442	1586.6992	1665.9543	1797.7016	1847.3789	2994.1939	3191.0685	3202.6145
O=CC1=CC=NOC1=O	O=Cc1ccnoc1=O	
InChI=1S/C5H3NO3/c7-3-4-1-2-6-9-5(4)8/h1-3H	InChI=1S/C5H3NO3/c7-3-4-1-2-6-9-5(4)8/h1-3H
