20
gdb 38980	2.97899	1.64092	1.21956	1.1879	78.33	-0.2484	0.0913	0.3397	1047.6587	0.17447	-403.11364	-403.106517	-403.105573	-403.144946	29.421	
C	-0.0371007073	 1.5444473522	-0.1217811783	-0.275065
C	 1.4899767761	 1.5797245296	 0.044837706	-0.09611
N	 2.1471063702	 0.8150594296	-1.0149149726	-0.383747
C	 1.5584961774	 0.0732411887	 0.0857743198	 0.38517
C	 2.3355952085	-0.9480889446	 0.8615813733	-0.317638
C	 1.5117090125	-1.4086321193	 2.0742027838	-0.079842
O	 0.1775432115	-1.7316189867	 1.711381215	-0.244011
C	-0.541889899	-0.5859323418	 1.2870862078	-0.093762
C	 0.0240114177	-0.0176897398	-0.0204944888	-0.07909
H	-0.5894721133	 1.9969270101	 0.7063907616	 0.106627
H	-0.4112086346	 1.9674095538	-1.060026935	 0.09858
H	 2.0740153239	 2.3321866106	 0.5633312036	 0.092499
H	 1.5943417456	 0.7745299149	-1.870677171	 0.219993
H	 2.5259116277	-1.8130403131	 0.2130130975	 0.109219
H	 3.3087610653	-0.5563630017	 1.1760056788	 0.107465
H	 1.9384569088	-2.3127121478	 2.5167995914	 0.107279
H	 1.5054569353	-0.6211878948	 2.8468567948	 0.086786
H	-1.5848569255	-0.8960790808	 1.1745062729	 0.107402
H	-0.5007062992	 0.1855002913	 2.0753717455	 0.082143
H	-0.3491006719	-0.5873302906	-0.8793461663	 0.066102
147.9858	158.1119	314.8899	361.5535	391.3301	436.0644	457.6074	486.807	592.9854	644.7636	754.8388	792.6888	852.8539	861.8874	895.3878	921.8786	959.9559	977.9458	993.6552	1028.0971	1044.879	1063.9232	1100.3181	1120.0258	1134.6497	1147.0878	1184.4648	1212.1014	1231.395	1253.4492	1259.9306	1274.9417	1301.2913	1324.229	1340.0252	1358.6426	1385.221	1417.3589	1450.444	1473.5332	1486.5222	1492.2404	1502.5219	2954.2004	2964.5135	3025.4065	3035.0384	3046.2336	3079.4378	3082.9136	3090.6302	3097.8302	3172.9872	3443.9121
C1C2NC22CCOCC12	C1[C@@H]2N[C@]32CCOC[C@@H]13	
InChI=1S/C7H11NO/c1-2-9-4-5-3-6-7(1,5)8-6/h5-6,8H,1-4H2	InChI=1S/C7H11NO/c1-2-9-4-5-3-6-7(1,5)8-6/h5-6,8H,1-4H2/t5-,6+,7-/m1/s1
