19
gdb 108189	3.12145	1.49768	1.33473	2.4016	74.27	-0.2489	0.0094	0.2583	1025.8429	0.161226	-423.024446	-423.016916	-423.015972	-423.056223	30.525	
O	 0.0246400282	 1.4033519066	 0.06534544	-0.421786
C	 0.0153190621	-0.0103159549	 0.0332424527	-0.149657
C	-1.3927574341	-0.5522688797	-0.0595501419	 0.31778
C	-1.589832928	-2.1032341433	-0.0045013754	-0.258482
C	-3.0431682893	-2.1997907955	 0.5460837664	-0.213428
C	-3.4027827646	-0.6843701976	 0.6888177061	 0.007732
O	-2.1411311201	-0.1460929135	 1.107550986	-0.291188
C	-3.5364958016	-0.122365105	-0.7215539513	-0.090047
C	-2.2906690461	-0.0411226182	-1.185922583	-0.103775
H	-0.6543013597	 1.6577699635	 0.7019628558	 0.291574
H	 0.593221887	-0.3173849752	-0.8453269428	 0.107041
H	 0.503314199	-0.4411922151	 0.9221580746	 0.092664
H	-1.4606521725	-2.5748162114	-0.9807781713	 0.103004
H	-0.8729008174	-2.548132968	 0.690822947	 0.105361
H	-3.7271548003	-2.7333804063	-0.1173708658	 0.102332
H	-3.0643712704	-2.6839894438	 1.525183532	 0.107576
H	-4.1847780539	-0.4449451642	 1.4083800148	 0.079702
H	-4.4686019463	 0.0526874379	-1.2416184881	 0.104836
H	-1.9456849419	 0.2264381436	-2.1752500058	 0.108759
105.9588	161.8866	235.5112	320.7496	359.4169	415.1815	439.124	484.0491	601.0914	667.9592	718.6595	728.7561	798.7475	829.5948	848.0395	865.3886	895.8198	920.8956	941.4819	962.6845	1008.6453	1014.8739	1042.2614	1061.663	1096.2637	1105.7122	1171.4654	1187.674	1224.2458	1243.4333	1265.1058	1292.4267	1318.4412	1336.5157	1354.3581	1380.162	1444.433	1480.8663	1496.8827	1502.253	1646.2517	2980.49	3061.1793	3070.2586	3072.7095	3107.8074	3124.0249	3129.8815	3215.8923	3241.8906	3791.0379
OCC12CCC(O1)C=C2	OC[C@@]12CC[C@@H](O1)C=C2	
InChI=1S/C7H10O2/c8-5-7-3-1-6(9-7)2-4-7/h1,3,6,8H,2,4-5H2	InChI=1S/C7H10O2/c8-5-7-3-1-6(9-7)2-4-7/h1,3,6,8H,2,4-5H2/t6-,7+/m0/s1
