20
gdb 79895	3.88654	1.39802	1.20248	0.4328	79.25	-0.2117	0.0882	0.2999	1089.7977	0.173017	-403.076528	-403.069157	-403.068213	-403.107951	30.066	
C	-0.2092422984	 1.6109877967	-0.0420827206	-0.446058
C	 0.0120431258	 0.1085696569	 0.0168019133	 0.052037
C	 1.1993557169	-0.6009730265	-0.6877300926	-0.078719
C	 2.1537853945	-0.0546187947	 0.4125227183	 0.145659
O	 3.3712546069	-0.7107577935	 0.6336645803	-0.276591
C	 3.1938008599	-2.0384019537	 1.1085224525	-0.079416
C	 2.0267576098	-2.7111086647	 0.3885407866	-0.175831
N	 0.8824945178	-1.8007052519	 0.2006198173	-0.135011
C	 0.8580629201	-0.5756108368	 1.1235609297	-0.103002
H	 0.6958374889	 2.1997714248	 0.1244228219	 0.122423
H	-0.6123570333	 1.894910963	-1.0201243375	 0.123036
H	-0.9431048997	 1.9148898133	 0.7121856504	 0.122366
H	-0.9167151422	-0.4433144576	-0.14839125	 0.085971
H	 1.3860713968	-0.7284484035	-1.7566672355	 0.074651
H	 2.3728382603	 1.0145344919	 0.4248265141	 0.078018
H	 4.1391904841	-2.5661175353	 0.9534773091	 0.107021
H	 2.9955426944	-2.0126840257	 2.1913550967	 0.093827
H	 2.3275081282	-3.0655743779	-0.6047619683	 0.107521
H	 1.6913354775	-3.5859153043	 0.9580830297	 0.103501
H	 0.6299105016	-0.6572020605	 2.1882704346	 0.078596
169.4945	190.8248	237.5437	246.2866	315.8707	439.3887	481.2852	498.0034	579.35	684.5617	753.2217	770.3438	803.1784	821.0649	866.5637	888.0917	923.3887	980.6211	1009.6109	1031.821	1079.0812	1084.1116	1098.0954	1105.2943	1119.0354	1154.2656	1170.7661	1181.849	1190.3062	1234.222	1246.9627	1267.8549	1273.4327	1288.4682	1366.5559	1384.8074	1399.534	1417.042	1433.0446	1487.4982	1496.7891	1503.3988	1509.8057	2982.0822	3025.8702	3037.8099	3065.1907	3077.7254	3083.9733	3084.9767	3088.72	3094.7829	3099.7421	3122.1212
CC1C2C3OCCN2C13	C[C@H]1[C@H]2[C@@H]3OCCN2[C@H]13	
InChI=1S/C7H11NO/c1-4-5-7-6(4)8(5)2-3-9-7/h4-7H,2-3H2,1H3	InChI=1S/C7H11NO/c1-4-5-7-6(4)8(5)2-3-9-7/h4-7H,2-3H2,1H3/t4-,5-,6+,7-
