17
gdb 128184	3.80157	1.13065	0.87834	3.8081	84.56	-0.1895	-0.0364	0.1532	1289.9501	0.138262	-414.195696	-414.187262	-414.186318	-414.228894	31.555	
C	 0.0536188041	 1.4711095986	-0.0701375867	-0.328571
N	-0.1072206224	 0.0407947321	 0.1069734958	-0.376398
C	 0.5584408923	-0.6966673338	 1.0567461285	 0.369824
C	 0.6273461059	-2.0612320811	 1.0165868145	-0.252909
C	 1.2899499527	-2.8165977089	 2.0488024827	 0.396699
N	 1.368854365	-4.1009030641	 2.0437285239	-0.580265
N	 1.8395112897	-1.9929504301	 3.0522719209	-0.303134
N	 1.8054408817	-0.659962491	 3.1234978508	-0.184429
C	 1.1935828864	-0.0255880719	 2.1728172489	-0.056908
H	 1.0940722857	 1.7727864859	-0.2587315488	 0.127964
H	-0.5503116603	 1.7817987715	-0.9249158522	 0.134596
H	-0.3108320414	 2.0226587016	 0.8030180852	 0.141234
H	-0.3827564953	-0.4732961604	-0.713968606	 0.247504
H	 0.1829632359	-2.6353729874	 0.2117562768	 0.100862
H	 1.8792421223	-4.447549278	 2.8572587338	 0.187593
H	 2.329702491	-2.4315129668	 3.8176535686	 0.260071
H	 1.1848858667	 1.0528685239	 2.2641672832	 0.116267
73.1433	143.6609	162.1427	216.2096	222.8957	354.7171	408.7521	445.2668	471.4246	558.3806	594.9002	600.417	672.3141	722.3675	742.392	758.5295	865.1744	874.3957	932.4212	1011.8123	1071.0738	1121.4697	1151.2766	1174.2885	1190.1518	1277.1924	1337.1345	1375.004	1442.4146	1452.2976	1473.8143	1489.3696	1497.5846	1524.1401	1596.538	1667.5896	1709.3448	2998.1003	3067.8246	3126.6837	3198.6158	3213.7393	3456.0217	3614.0333	3632.8864
CNC1=CC(=N)NN=C1	CN[C@@H]1C=C([NH])NN=C1	
InChI=1S/C5H8N4/c1-7-4-2-5(6)9-8-3-4/h2-3H,1H3,(H3,6,7,9)	InChI=1S/C5H9N4/c1-7-4-2-5(6)9-8-3-4/h2-4,6-7,9H,1H3/t4-/m1/s1
