17
gdb 107121	3.87922	1.11637	1.073	2.9801	68.3	-0.2481	0.0413	0.2894	1181.0261	0.132963	-458.865612	-458.857094	-458.85615	-458.898866	32.057	
C	-0.2262606752	 1.5141303154	-0.0246351451	-0.51053
C	 0.1225734572	 0.0680795878	 0.076585882	 0.407884
O	-0.6548122427	-0.8060074499	 0.8930855141	-0.253482
C	 0.7581734464	-0.7616400173	 1.1035607832	-0.154385
C	 1.4592252355	-1.6308107677	-0.0170366592	 0.400966
C	 2.7690821073	-2.341687745	 0.06617655	-0.195275
O	 2.7069119525	-3.4600942813	 0.9359502749	-0.411728
O	 0.4247976237	-2.1860423883	-0.8423495857	-0.26328
C	 0.804548668	-0.8265235022	-1.0503554934	-0.170386
H	 0.6082706769	 2.0863282252	-0.4435734531	 0.127784
H	-1.0947579394	 1.6591241218	-0.6769977377	 0.137764
H	-0.4665463545	 1.9179897349	 0.9622576079	 0.140861
H	 1.1312134668	-0.5347617354	 2.0949049643	 0.114941
H	 3.08606118	-2.6235405364	-0.9489534668	 0.10432
H	 3.5320451888	-1.6761057854	 0.4847629861	 0.116203
H	 2.0159914618	-4.0431395132	 0.6019785802	 0.296155
H	 1.1265957368	-0.523486473	-2.0402039518	 0.112186
70.3066	115.2423	193.2946	207.9309	279.486	298.8053	385.6322	405.8119	448.4095	494.3035	579.5297	666.9916	720.2654	765.8546	789.8377	844.92	884.5085	951.4921	971.2428	986.6596	987.5508	1036.8161	1075.9821	1098.8971	1135.8575	1162.2588	1207.8621	1226.6887	1277.3833	1363.9341	1404.2944	1416.9932	1464.3738	1469.2259	1485.3544	1487.5917	1495.0784	2997.8904	3033.7053	3072.0896	3095.6342	3122.1748	3184.3414	3195.7552	3805.7329
CC12OC1C1(CO)OC21	C[C@]12O[C@H]1[C@@]1(CO)O[C@@H]21	
InChI=1S/C6H8O3/c1-5-3(8-5)6(2-7)4(5)9-6/h3-4,7H,2H2,1H3	InChI=1S/C6H8O3/c1-5-3(8-5)6(2-7)4(5)9-6/h3-4,7H,2H2,1H3/t3-,4+,5+,6-/m1/s1
