18
gdb 5305	4.32967	1.39381	1.36936	3.3226	73.63	-0.214	0.0375	0.2515	1006.5624	0.155191	-344.036044	-344.02795	-344.027006	-344.069566	29.827	
C	-0.051531089	 1.5768721886	 0.2001713045	-0.388777
C	-0.0415169792	 0.0474157214	 0.0206590763	-0.070265
C	 0.8354721817	-0.6345901608	 1.0870282775	-0.389208
C	-1.4305470013	-0.5215631137	-0.0118741113	 0.345306
N	-1.9850716903	-1.1405861696	-1.0331692417	-0.305181
C	-3.2533531872	-1.4866959694	-0.6227804754	-0.090248
C	-3.472849443	-1.0738279109	 0.6621508004	-0.113934
N	-2.2997994846	-0.4570863605	 1.0440746943	-0.277086
H	 0.966241824	 1.9771419372	 0.1517435127	 0.116327
H	-0.6485071391	 2.0612402867	-0.57748683	 0.129859
H	-0.4705874136	 1.8633559741	 1.1722567373	 0.100666
H	 0.3735436038	-0.1817179696	-0.965711034	 0.109298
H	 0.4584791701	-0.4434112288	 2.0990049508	 0.100518
H	 0.8651893756	-1.7177545528	 0.9399496096	 0.129661
H	 1.8607539773	-0.2533848144	 1.0433304495	 0.116584
H	-3.9320115014	-2.0125781864	-1.2769950122	 0.103133
H	-4.318118789	-1.1530892831	 1.3253111351	 0.122474
H	-2.1206275346	-0.035873038	 1.9397156865	 0.260871
18.2781	141.7361	200.9223	221.5285	258.4491	318.2043	391.3093	487.4933	533.8834	643.1101	646.3091	723.3815	762.1487	853.4367	886.272	927.4534	930.1594	962.8724	982.4974	1061.7686	1102.3009	1120.2881	1140.2795	1169.5411	1192.2975	1282.053	1329.0776	1343.8674	1391.9505	1398.0864	1422.2858	1456.5127	1483.9979	1491.5218	1499.8382	1505.3618	1518.8306	1591.1029	3025.4629	3029.0435	3064.318	3088.5859	3099.2855	3114.1591	3116.0199	3247.5066	3278.9278	3667.3585
CC(C)C1=NC=CN1	CC(C)c1ncc[nH]1	
InChI=1S/C6H10N2/c1-5(2)6-7-3-4-8-6/h3-5H,1-2H3,(H,7,8)	InChI=1S/C6H10N2/c1-5(2)6-7-3-4-8-6/h3-5H,1-2H3,(H,7,8)
