16
gdb 30465	4.78599	1.04975	0.86554	3.128	80.14	-0.1964	-0.0439	0.1525	1287.0365	0.123808	-437.906195	-437.897822	-437.896878	-437.939297	31.055	
C	-0.0238485255	 1.437376303	 0.007746431	-0.317619
N	 0.0319997833	-0.0126019944	 0.002839967	-0.325052
C	-1.0602761551	-0.6608352119	 0.0092177284	 0.411638
O	-2.2835559298	 0.0061652859	 0.0207890269	-0.248259
C	-3.4664586877	-0.6713979563	 0.0275934339	-0.067975
C	-3.5339898301	-2.0153792868	 0.0238102683	 0.252445
O	-4.6875176266	-2.7463217366	 0.030242291	-0.435578
C	-2.3027319631	-2.7638311785	 0.012048267	-0.116076
C	-1.1255854439	-2.1093748253	 0.0051460157	-0.171455
H	 0.993798051	 1.8351369042	-0.0003787622	 0.115661
H	-0.5573602782	 1.8344721547	-0.8676474571	 0.115547
H	-0.540972585	 1.8289375905	 0.8953957352	 0.115573
H	-4.3180282921	-0.0013794865	 0.0362310042	 0.117124
H	-5.4461494232	-2.1528071593	 0.0381255409	 0.300637
H	-2.3603821636	-3.8465214574	 0.009045061	 0.124149
H	-0.1729386504	-2.6225680753	-0.0037686011	 0.12924
76.3822	113.7419	198.2883	209.1452	305.6995	363.4733	367.7188	368.7764	423.4413	546.9227	565.4213	618.1579	725.5034	780.0458	784.3799	806.0587	841.1887	951.8954	1000.432	1049.4026	1106.2909	1116.8176	1171.8647	1179.3452	1198.9205	1242.1576	1309.9241	1387.525	1435.4688	1481.7852	1491.0389	1496.1311	1616.0666	1700.6414	1738.4237	2990.2536	3035.7093	3103.351	3199.8288	3200.4754	3229.3857	3817.9641
CN=C1OC=C(O)C=C1	C[N]C1=CCC(=CO1)O	
InChI=1S/C6H7NO2/c1-7-6-3-2-5(8)4-9-6/h2-4,8H,1H3	InChI=1S/C6H8NO2/c1-7-6-3-2-5(8)4-9-6/h3-4,8H,2H2,1H3
