13
gdb 129191	6.88663	0.86914	0.77888	1.8782	64.01	-0.2153	-0.0305	0.1847	1342.8269	0.089734	-486.086798	-486.078846	-486.077902	-486.119929	28.34	
N	-0.1696023895	 1.2840115276	-0.1073865621	-0.590931
C	-0.0080072078	 0.0243908617	-0.0346734421	 0.444785
N	 1.1103831426	-0.8094012552	 0.0110210489	-0.311871
N	 0.7751924016	-2.1508439272	 0.245036078	-0.314549
C	-0.5101816109	-2.145726641	 0.1724652704	 0.521233
N	-1.0522911275	-0.9079977103	-0.0228816626	-0.382021
O	-1.3266927349	-3.2131119602	 0.2741849046	-0.232079
C	-0.8389912816	-4.4402295678	-0.1518321119	 0.17235
O	-1.4635362578	-5.431091662	 0.0289932863	-0.234703
H	 0.7192490743	 1.777449533	-0.1087326747	 0.216495
H	 1.9975080013	-0.5057533118	 0.3763464927	 0.273911
H	-2.0274968556	-0.6655278946	-0.0482602228	 0.292694
H	 0.1351113456	-4.3404740922	-0.6498608548	 0.144684
61.4359	119.7569	156.1267	200.8631	344.0437	377.0657	415.2499	437.0943	472.7037	554.3691	687.4828	716.5309	724.3718	753.1435	842.2211	989.3433	1024.7349	1036.6168	1069.8681	1072.7191	1121.8791	1274.0456	1344.0137	1383.4401	1397.2362	1515.6259	1680.1865	1771.0556	1893.2052	3064.2797	3530.1848	3666.9736	3691.0189
N=C1NN=C(N1)OC=O	[NH][C@@H]1NN=C(N1)OC=O	
InChI=1S/C3H4N4O2/c4-2-5-3(7-6-2)9-1-8/h1H,(H3,4,5,6,7)	InChI=1S/C3H5N4O2/c4-2-5-3(7-6-2)9-1-8/h1-2,4,6H,(H,5,7)/t2-/m0/s1
