19
gdb 89706	3.05074	1.35993	1.14348	4.134	76.59	-0.2497	-0.0279	0.2219	1126.5017	0.158905	-423.01521	-423.007157	-423.006213	-423.047772	31.328	
C	-0.0960505308	 1.5022408196	-0.0492446816	-0.41391
C	 0.0783994364	-0.0022802511	 0.0640041411	 0.15677
O	 0.9450960574	-0.5104002907	-0.9897637577	-0.317652
C	 1.9252067431	-1.2339176059	-0.2539317078	 0.358231
C	 1.0910999077	-2.0076320213	 0.8177088011	-0.283024
C	 0.8258059699	-0.5464546337	 1.2962991578	-0.083913
C	 2.3090428631	-0.2611724489	 0.905918149	-0.282782
C	 2.9552642523	-1.9061355708	-1.102827846	 0.067002
O	 3.0083641848	-1.8710012976	-2.3036047225	-0.242714
H	 0.8458857575	 2.0367504765	 0.0989182927	 0.120974
H	-0.4765329367	 1.7587275984	-1.0419933763	 0.135581
H	-0.8182129388	 1.8560740489	 0.6944360991	 0.114552
H	-0.9022931668	-0.4871067637	-0.0341398246	 0.078759
H	 0.2501262249	-2.5946944814	 0.4414382597	 0.11267
H	 1.7004278518	-2.5872312774	 1.5124989729	 0.108085
H	 0.4161829408	-0.3119881983	 2.2781359599	 0.078632
H	 3.0195702345	-0.6888261479	 1.6146749398	 0.108901
H	 2.6053631346	 0.7476820737	 0.615243143	 0.114159
H	 3.7054754943	-2.4679343284	-0.4983191395	 0.069679
86.84	164.513	193.8839	218.2366	286.149	334.8291	442.0531	493.6011	499.9498	516.9341	644.8987	751.765	802.4317	823.7521	853.9567	874.5765	898.8397	956.3686	972.9251	1006.5153	1024.829	1033.5165	1070.1485	1098.316	1105.7078	1144.071	1150.6575	1168.6135	1223.3363	1230.8973	1291.7551	1301.4164	1331.8443	1396.7474	1412.9581	1430.6455	1472.0576	1489.4872	1495.8538	1510.1618	1834.5795	2858.2751	3009.5163	3041.4075	3070.3057	3081.2732	3111.5225	3123.9651	3126.2297	3140.585	3147.7255
CC1OC2(CC1C2)C=O	C[C@H]1O[C@@]2(C[C@H]1C2)C=O	
InChI=1S/C7H10O2/c1-5-6-2-7(3-6,4-8)9-5/h4-6H,2-3H2,1H3	InChI=1S/C7H10O2/c1-5-6-2-7(3-6,4-8)9-5/h4-6H,2-3H2,1H3/t5-,6-,7+/m1/s1
