18
gdb 64717	3.86453	1.08618	1.02522	5.7908	75.8	-0.2367	0.0345	0.2712	1193.572	0.148589	-398.090442	-398.082025	-398.081081	-398.123503	32.305	
N	-0.0840946802	 1.5239110542	-0.0662280281	-0.545411
C	-0.029091951	 0.0792972314	-0.0435518585	 0.319011
C	 0.9134024028	-0.4321511211	-1.1429440654	-0.411758
C	 2.3018279611	-0.0113383304	-0.9613107028	 0.289322
N	 3.407823645	 0.2909216945	-0.8202581251	-0.311219
C	 0.2871489897	-0.5367367456	 1.3741250532	-0.258141
C	-1.0382354338	-1.2956972084	 1.3053621813	-0.041007
N	-2.0892300977	-0.2557699738	 1.1628872418	-0.347782
C	-1.3576772899	-0.732034228	-0.0321946276	-0.111329
H	-0.3789025709	 1.8589443913	-0.9802774708	 0.220705
H	-0.7914391432	 1.8244044502	 0.599904705	 0.246156
H	 0.8838444843	-1.5271558239	-1.1739444124	 0.150017
H	 0.5648670259	-0.0813064475	-2.1230511002	 0.142531
H	 1.1723219385	-1.1762186804	 1.3644458171	 0.118958
H	 0.3717128661	 0.1899950293	 2.1843141852	 0.118857
H	-1.2737190034	-2.2668033693	 1.7211938489	 0.099356
H	-2.9939215292	-0.7251834517	 1.1725859082	 0.233389
H	-1.8861785542	-1.1627778208	-0.8761605998	 0.088345
69.5818	121.777	175.5945	263.9718	320.354	332.0512	391.8937	406.2741	419.2776	455.2193	593.3663	686.7138	774.4314	815.0517	841.0291	844.227	899.0114	929.9594	952.7232	960.7533	984.2891	1005.2542	1031.9359	1050.1395	1098.5944	1107.8759	1143.6377	1176.7995	1224.0993	1277.914	1314.2793	1321.49	1327.1409	1360.6746	1387.9542	1462.7015	1476.0204	1660.7609	2365.7978	3030.6041	3073.286	3075.9977	3132.9063	3166.3484	3201.4281	3474.5831	3480.5998	3556.5128
NC1(CC#N)CC2NC12	N[C@@]1(CC#N)C[C@H]2N[C@@H]12	
InChI=1S/C6H9N3/c7-2-1-6(8)3-4-5(6)9-4/h4-5,9H,1,3,8H2	InChI=1S/C6H9N3/c7-2-1-6(8)3-4-5(6)9-4/h4-5,9H,1,3,8H2/t4-,5-,6+/m1/s1
