18
gdb 15383	3.78534	1.08904	0.91924	1.661	74.86	-0.2593	0.0213	0.2806	1291.4356	0.151198	-347.754057	-347.745064	-347.74412	-347.788288	32.274	
C	-0.1625505847	 1.5166215009	 0.0323781229	-0.382119
C	-0.1550644064	-0.000613804	-0.1678170966	-0.16023
C	 1.0607946245	-0.4892587069	-0.9677893036	-0.22033
C	 1.0525941419	-1.9842707116	-1.1579082532	 0.076754
O	 0.110536504	-2.5191752939	-2.088471299	-0.246462
C	 1.5083575516	-2.655857509	-2.397112881	-0.158491
C	 2.0166939671	-1.9313156623	-3.5312164032	 0.341643
C	 2.4697895024	-1.3579394134	-4.4858568218	-0.433745
H	 0.7281874962	 1.8500616194	 0.5767843126	 0.113043
H	-0.1774806601	 2.0418472128	-0.9289508671	 0.118032
H	-1.0403167924	 1.8381625897	 0.6012114937	 0.113861
H	-0.1739211743	-0.5011961208	 0.8093408733	 0.094156
H	-1.066003551	-0.3136842182	-0.691068659	 0.116757
H	 1.0864064971	-0.0038875914	-1.9489122706	 0.116569
H	 1.9872986367	-0.2094848751	-0.4480053473	 0.100042
H	 1.136538761	-2.5723656279	-0.2403716227	 0.09287
H	 1.8789193725	-3.6772658231	-2.3091818582	 0.114504
H	 2.8621432439	-0.8475090851	-5.3307034495	 0.203145
61.0344	82.4009	104.8988	182.2411	224.9372	249.7571	323.8547	359.7799	469.5297	555.2337	597.8943	626.3953	669.0485	742.7727	807.9607	814.4255	883.2866	907.2494	970.5473	1014.2205	1051.8875	1082.6073	1115.1318	1155.7668	1178.2192	1263.4235	1280.3504	1302.6138	1326.2192	1376.4401	1394.5513	1412.7943	1459.4686	1474.352	1492.7444	1500.6499	1509.4495	2238.9212	3018.7034	3022.8626	3029.9852	3059.0305	3072.5187	3088.5946	3099.1557	3104.2679	3108.6806	3501.2924
CCCC1OC1C#C	CCC[C@H]1O[C@H]1C#C	
InChI=1S/C7H10O/c1-3-5-7-6(4-2)8-7/h2,6-7H,3,5H2,1H3	InChI=1S/C7H10O/c1-3-5-7-6(4-2)8-7/h2,6-7H,3,5H2,1H3/t6-,7+/m0/s1
