15
gdb 35447	2.42602	1.47901	1.10194	1.9988	79.36	-0.2476	0.0124	0.2601	1109.8941	0.109627	-383.377818	-383.369542	-383.368598	-383.410653	31.575	
C	 0.0605946141	-1.2205090751	-0.1302636926	-0.446196
C	 0.018374696	-0.0232727792	-0.0322515147	 0.342459
C	-0.037125152	 1.4171248557	 0.0922787074	-0.299326
C	-0.2301173823	 2.0561414687	 1.5254364914	-0.262155
C	 1.0911788991	 2.8011995655	 1.325380909	-0.06537
O	 2.105900245	 1.8214937596	 1.1141379072	-0.273478
C	 1.3068640617	 2.2011894609	-0.013462696	 0.300137
C	 1.9297679452	 2.6789830944	-1.1976772372	 0.220516
C	 2.4149126429	 3.0650847276	-2.2278926984	-0.399483
H	 0.107753048	-2.2776884029	-0.2177408815	 0.199087
H	-0.7648808639	 1.8400710719	-0.6063010907	 0.117652
H	-1.1061457066	 2.705753724	 1.5697656524	 0.117557
H	-0.2376284339	 1.3551304619	 2.3610426492	 0.129694
H	 1.401759895	 3.7670082239	 1.7059562048	 0.122665
H	 2.8562535016	 3.4070328631	-3.1314504503	 0.196243
90.4637	125.0237	160.0356	206.9547	301.9838	411.9113	443.2551	485.9883	543.8186	559.1572	613.4658	624.7819	634.9612	662.1567	672.3675	731.0684	805.2895	890.3124	928.4161	935.6541	1002.2092	1035.9462	1074.4708	1132.8553	1141.779	1186.431	1256.9225	1259.4382	1332.0686	1417.9933	1475.1081	2237.7016	2242.6193	3069.1926	3082.7991	3145.2011	3195.8025	3501.3889	3503.8091
C#CC1CC2OC12C#C	C#C[C@H]1C[C@H]2O[C@@]12C#C	
InChI=1S/C8H6O/c1-3-6-5-7-8(6,4-2)9-7/h1-2,6-7H,5H2	InChI=1S/C8H6O/c1-3-6-5-7-8(6,4-2)9-7/h1-2,6-7H,5H2/t6-,7+,8-/m0/s1
