14
gdb 125804	3.49537	1.74891	1.17422	5.0165	68.61	-0.233	-0.0211	0.212	972.2141	0.103095	-432.876879	-432.870136	-432.869192	-432.908001	25.739	
C	-0.0195254706	 1.5000171154	-0.0223707437	-0.497374
C	-0.0111815208	 0.01560999	 0.0201087028	 0.379303
N	-0.0392000524	-0.7397396243	-1.0404634783	-0.178279
O	-0.0193964667	-2.0861605235	-0.5919154439	-0.246681
C	 0.0204641935	-2.0546564199	 0.749484387	 0.521629
N	 0.0531560082	-2.9344716669	 1.7044451684	-0.398366
C	 0.0832006265	-2.1316090256	 2.8410846629	-0.071582
C	 0.0682199207	-0.789050664	 2.5542175901	-0.17125
N	 0.0265390702	-0.7494044632	 1.1622334127	-0.089766
H	 0.8786452067	 1.9054041249	 0.454755138	 0.156329
H	-0.0523983399	 1.8305095519	-1.0609381387	 0.172955
H	-0.8911357518	 1.8969836059	 0.5081072663	 0.156318
H	 0.1146101965	-2.5808271514	 3.8224529875	 0.124963
H	 0.0822723899	 0.0942250607	 3.1669943889	 0.141801
161.9089	170.976	250.5126	261.0696	379.2837	543.4398	606.7107	616.7915	631.671	673.2728	714.161	756.9536	804.6677	870.222	911.3173	956.0816	1032.8763	1068.451	1069.8663	1133.4751	1181.968	1257.2882	1329.0044	1391.836	1415.8626	1467.2062	1475.8065	1495.2202	1517.3556	1597.0181	1648.9542	3045.908	3104.5658	3157.6723	3252.6274	3301.5833
CC1=NOC2=NC=CN12	Cc1noc2nccn12	
InChI=1S/C5H5N3O/c1-4-7-9-5-6-2-3-8(4)5/h2-3H,1H3	InChI=1S/C5H5N3O/c1-4-7-9-5-6-2-3-8(4)5/h2-3H,1H3
