13
gdb 130993	7.45706	0.74389	0.67928	2.7632	61.57	-0.2574	-0.0543	0.2031	1498.6121	0.086707	-489.842221	-489.834109	-489.833165	-489.877075	27.119	
O	-0.1684481317	 0.1897859609	 0.551495448	-0.22814
C	 0.0669845898	 1.1099737699	-0.1827146021	 0.140928
C	 1.3767687119	 1.876989164	-0.1454553932	-0.16652
O	 1.2982341522	 2.8878083235	-1.1494035825	-0.277001
C	 2.3653613061	 3.6844014525	-1.2815057058	 0.351076
C	 2.5499947008	 4.7156621537	-2.1512165242	-0.068234
O	 3.7668660358	 5.2203738133	-1.9183425206	-0.148961
N	 4.3379086408	 4.4720039049	-0.8768822859	-0.00224
N	 3.5022496975	 3.5854491895	-0.5242517302	-0.200481
H	-0.6534205322	 1.4735692012	-0.9471967419	 0.103521
H	 1.524584087	 2.3156624219	 0.848924217	 0.159585
H	 2.214700178	 1.1947059309	-0.3336740261	 0.15959
H	 1.952087384	 5.1636205337	-2.9247067224	 0.176876
42.3228	50.2993	88.7475	119.2154	300.6868	340.0319	396.2474	572.0418	643.1777	713.7996	731.4272	733.3049	755.419	792.1869	989.0124	1028.5435	1053.8327	1091.107	1106.5867	1132.0483	1236.1957	1309.9859	1332.9486	1354.8172	1409.9694	1432.8678	1472.0305	1660.4295	1849.8962	2907.2878	3032.5535	3075.7631	3305.3159
O=CCOC1=CON=N1	O=CCOc1conn1	
InChI=1S/C4H4N2O3/c7-1-2-8-4-3-9-6-5-4/h1,3H,2H2	InChI=1S/C4H4N2O3/c7-1-2-8-4-3-9-6-5-4/h1,3H,2H2
