16
gdb 5267	6.72929	1.01243	0.93491	1.4303	66.34	-0.2212	0.0207	0.2419	1202.2561	0.131123	-383.760391	-383.752646	-383.751702	-383.79335	27.787	
O	-0.0739374666	 1.4641386903	 0.0544140553	-0.418027
C	 0.0260242401	 0.050440471	 0.1146696516	-0.060427
C	-1.3728623821	-0.5227571079	-0.1217976479	-0.308208
C	-1.4044220687	-2.0193239626	-0.0514784341	 0.234994
C	-1.5803567025	-2.8902750667	-1.0820596806	-0.100157
O	-1.5348571798	-4.1795046378	-0.6499509175	-0.141428
C	-1.3230433698	-4.1335331605	 0.6910130725	 0.005963
C	-1.23421606	-2.8476565133	 1.1149072271	-0.27965
H	 0.8032685956	 1.8342500043	 0.1882261347	 0.286441
H	 0.714602361	-0.3408501893	-0.6504981866	 0.090293
H	 0.4032334787	-0.2846011637	 1.0940600744	 0.087763
H	-2.0478894399	-0.086697782	 0.6242016836	 0.116158
H	-1.7245958893	-0.1818361516	-1.1010737068	 0.111162
H	-1.7505817048	-2.755099117	-2.1378559559	 0.132982
H	-1.2652831992	-5.0876501077	 1.1884119159	 0.134164
H	-1.0758222328	-2.5162663155	 2.1298847644	 0.107977
58.8154	91.6919	122.0394	255.6161	317.4995	347.8073	371.0131	623.2353	646.1154	729.6236	742.8634	787.8527	800.9876	834.6654	892.7641	982.3712	1011.8599	1056.7454	1061.4249	1079.677	1101.036	1200.4311	1217.9268	1238.6558	1269.2631	1277.5285	1310.6855	1345.1627	1409.4346	1455.666	1490.0124	1526.1636	1537.3936	1636.5633	2969.423	2998.4625	3037.6939	3084.6194	3248.1438	3271.2486	3283.6765	3832.2831
OCCC1=COC=C1	OCCc1cocc1	
InChI=1S/C6H8O2/c7-3-1-6-2-4-8-5-6/h2,4-5,7H,1,3H2	InChI=1S/C6H8O2/c7-3-1-6-2-4-8-5-6/h2,4-5,7H,1,3H2
