21
gdb 100132	3.98637	0.71855	0.70014	2.729	81.11	-0.2536	0.0565	0.3102	1672.3839	0.178672	-424.193252	-424.18226	-424.181316	-424.229255	40.426	
C	-0.0724481701	 1.5953989132	 0.1145816224	-0.429783
C	-0.024419226	 0.0642402727	-0.0279068059	 0.364247
O	 0.671549421	-0.5098023731	 1.0777980286	-0.47802
C	-1.4509918785	-0.5082748764	-0.0387098792	-0.11746
O	-2.0183501056	-0.2303613232	 1.2402486043	-0.435656
C	 0.7114775754	-0.3907578733	-1.2964342604	-0.198787
C	 2.203387278	 0.0017734036	-1.3205167575	-0.373167
C	 2.8948731776	-0.5244101601	-2.4907119528	 0.294963
C	 3.4412324401	-0.9668495915	-3.4660154692	-0.439338
H	 0.9298950568	 1.9972982494	 0.2780918356	 0.12314
H	-0.4973663553	 2.0658861213	-0.7787552005	 0.108038
H	-0.6935256925	 1.8704427128	 0.9708690012	 0.128876
H	 0.0591948365	-0.4642083319	 1.8231743328	 0.284366
H	-2.0453999386	-0.0517616406	-0.8439190899	 0.091679
H	-1.3985435556	-1.5914425885	-0.2132600536	 0.095809
H	-2.7988001355	-0.7781772304	 1.3573111575	 0.295885
H	 0.6437497562	-1.4815488012	-1.3652507178	 0.11051
H	 0.2097278644	 0.0213352107	-2.1788618509	 0.10315
H	 2.3084631049	 1.0928503527	-1.3032015129	 0.127875
H	 2.6769168287	-0.3696111002	-0.4054795503	 0.154236
H	 3.9382705781	-1.3530015158	-4.3207815617	 0.189436
60.8425	89.3302	105.4449	144.5404	207.5323	233.4298	243.5191	279.2596	332.4893	353.1865	364.4748	395.5445	443.7857	451.1174	507.0346	611.4295	633.6754	636.4983	762.4878	783.9394	907.2635	937.63	953.9734	981.3147	1005.084	1039.7974	1073.007	1144.0708	1147.2626	1184.1255	1224.2295	1241.8498	1283.4637	1300.6129	1343.8786	1369.5892	1397.3395	1415.6699	1445.2101	1470.6135	1486.2801	1493.4889	1503.1865	1511.3509	2238.1176	2988.531	3034.1141	3035.7028	3042.559	3045.6469	3073.0132	3094.4587	3114.0693	3132.2641	3507.6534	3773.789	3848.3559
CC(O)(CO)CCC#C	C[C@@](O)(CO)CCC#C	
InChI=1S/C7H12O2/c1-3-4-5-7(2,9)6-8/h1,8-9H,4-6H2,2H3	InChI=1S/C7H12O2/c1-3-4-5-7(2,9)6-8/h1,8-9H,4-6H2,2H3/t7-/m0/s1
