17
gdb 81417	3.44235	1.19075	1.06221	4.3416	77.84	-0.2457	-0.058	0.1877	1148.9004	0.136391	-421.804511	-421.79688	-421.795936	-421.836678	29.642	
O	 0.0054019321	 1.3735065511	-0.1072956572	-0.43493
C	 0.002618346	-0.0218757347	-0.015408814	 0.163413
C	 0.0335857875	-0.6366194875	 1.4627549943	-0.12765
C	-1.4692654953	-0.1897406814	 1.5316863685	-0.220885
C	-1.4471235617	-0.6173469481	 0.0274644781	-0.149278
C	-1.0838974526	-2.093328521	 0.1553829497	 0.258064
C	-1.6110134633	-3.2164001339	-0.6024356388	 0.031819
O	-2.4441332516	-3.1312888934	-1.4800543311	-0.279906
C	-0.1156949825	-2.0959206805	 1.098217249	-0.171007
H	 0.9177728229	 1.6773229636	-0.1387049019	 0.290245
H	 0.6945606281	-0.4845093555	-0.7306792505	 0.073331
H	 0.7759375021	-0.3409844964	 2.2033574437	 0.067671
H	-2.1244118144	-0.7486076499	 2.2033962907	 0.098092
H	-1.5789298002	 0.8865545834	 1.6675117599	 0.122217
H	-2.2100973368	-0.3314345059	-0.6922539547	 0.094117
H	-1.1812567662	-4.2014261056	-0.3096828022	 0.064423
H	 0.462936086	-2.9302081443	 1.4733163363	 0.120263
98.4481	162.3504	220.7495	263.4593	327.4543	342.4425	476.21	487.7447	557.9394	581.8325	694.7529	794.5485	800.7176	857.6137	872.4254	891.2436	922.3076	954.9569	996.7237	1036.9278	1050.4685	1083.0874	1107.659	1119.2475	1177.4236	1204.1873	1225.2801	1231.7511	1241.3838	1265.1057	1290.0076	1346.4041	1415.9851	1423.3321	1493.2815	1631.1451	1774.9065	2870.0198	3025.3195	3075.6436	3124.7712	3149.1769	3159.0551	3219.1049	3824.3089
OC1C2CC1C(C=O)=C2	O[C@H]1[C@H]2C[C@@H]1C(=C2)C=O	
InChI=1S/C7H8O2/c8-3-5-1-4-2-6(5)7(4)9/h1,3-4,6-7,9H,2H2	InChI=1S/C7H8O2/c8-3-5-1-4-2-6(5)7(4)9/h1,3-4,6-7,9H,2H2/t4-,6-,7+/m1/s1
