20
gdb 9757	3.39966	1.61746	1.5	1.3546	76.49	-0.2293	0.0194	0.2487	978.5952	0.17606	-349.018527	-349.009946	-349.009002	-349.051427	32.265	
C	 0.0093649948	 1.5109216588	-0.2226337085	-0.390806
C	-0.0877877259	-0.0030466834	-0.0128975017	-0.182981
C	-1.5261908215	-0.5311777491	 0.1908174196	 0.343199
C	-2.1967113407	 0.0648521837	 1.4370784862	-0.414581
O	-2.3211155918	-0.1814875149	-0.9637775021	-0.306278
C	-2.7675783292	-1.3457735063	-1.6489670581	-0.127832
C	-2.2522215342	-2.5005499527	-0.8372013975	-0.102393
C	-1.5583198162	-2.0428045992	 0.196417433	-0.114695
H	 1.0339849218	 1.7984484545	-0.4779405423	 0.107239
H	-0.6474432727	 1.823746523	-1.0387383197	 0.134295
H	-0.2734424196	 2.0698490235	 0.6746157109	 0.11325
H	 0.3289135976	-0.5187946432	-0.8855970173	 0.095917
H	 0.5208938433	-0.3064787294	 0.849000085	 0.086994
H	-2.3038393144	 1.1479196111	 1.3383033283	 0.126375
H	-3.1928560467	-0.3655831583	 1.5686562611	 0.116554
H	-1.6069022256	-0.1428751063	 2.3363643966	 0.107422
H	-3.866806137	-1.3388299815	-1.7213884287	 0.103243
H	-2.3798495509	-1.3541916374	-2.6807023821	 0.101849
H	-2.4394121581	-3.5362661179	-1.0919835424	 0.103747
H	-1.0616805329	-2.6299985952	 0.9590317296	 0.09948
78.1188	98.2959	196.7911	213.1811	241.6416	299.8988	345.3636	370.6338	436.2439	512.0105	633.1522	739.0133	773.4	782.5415	819.2099	889.5598	912.5954	957.1673	959.0512	993.8179	1004.8101	1046.2025	1066.645	1079.0236	1116.7648	1179.2297	1192.8924	1209.2056	1217.7065	1310.8514	1345.9122	1370.9175	1380.5731	1402.8723	1406.3092	1473.709	1486.1064	1493.0802	1506.317	1512.438	1521.7375	1693.814	2968.2611	2984.1587	3021.3808	3039.9316	3043.4223	3061.5612	3105.6294	3112.4497	3122.4512	3126.6431	3200.7704	3225.8576
CCC1(C)OCC=C1	CC[C@@]1(C)OCC=C1	
InChI=1S/C7H12O/c1-3-7(2)5-4-6-8-7/h4-5H,3,6H2,1-2H3	InChI=1S/C7H12O/c1-3-7(2)5-4-6-8-7/h4-5H,3,6H2,1-2H3/t7-/m1/s1
