17
gdb 68961	2.82029	1.67255	1.29109	2.8286	74.79	-0.2349	-0.0306	0.2044	992.7423	0.135433	-421.836349	-421.828676	-421.827732	-421.867987	30.677	
O	-0.163959229	 1.2782082702	 0.1241931665	-0.466664
C	-0.0500165263	-0.0881047521	 0.0434411362	 0.409095
C	-0.357203709	-0.9603688574	 1.1918386972	-0.365459
C	-1.3409064521	-1.0221840198	-0.0002677497	 0.13058
C	-2.6201480774	-0.339328189	 0.1375357509	 0.070727
O	-2.7901174601	 0.6267697789	 0.866774966	-0.318572
C	-1.028129078	-2.0424428799	-1.0364290918	-0.173592
C	 0.1753159272	-1.8463912209	-1.5823186554	-0.07706
C	 0.868005942	-0.6067129293	-1.0557942838	-0.325447
H	-0.9696049971	 1.4728770739	 0.6343003449	 0.304523
H	 0.2191054098	-1.8639286614	 1.3622792633	 0.124405
H	-0.7486083355	-0.469127496	 2.0772577647	 0.136567
H	-3.4465300214	-0.7095216386	-0.5042426715	 0.086652
H	-1.7024084857	-2.8558011239	-1.281897804	 0.104965
H	 0.6387877978	-2.4925016883	-2.3187464044	 0.104122
H	 0.977320413	 0.1601448454	-1.8321809237	 0.132283
H	 1.8736344019	-0.8199323517	-0.6740645453	 0.122876
151.3426	208.0987	216.7127	250.2982	346.5918	416.6424	449.5397	458.8495	533.3083	557.967	598.4973	637.7581	722.0035	754.3256	772.2514	876.0103	930.9135	950.676	958.8401	975.6506	988.8256	1041.6584	1069.6567	1109.3166	1155.0954	1165.4355	1219.8561	1263.7169	1306.6952	1367.7566	1370.6	1427.1394	1451.422	1467.0937	1474.1061	1664.818	1740.4032	2913.4624	3033.7811	3067.7512	3122.1345	3184.0942	3210.636	3221.2466	3645.0566
OC12CC1(C=O)C=CC2	O[C@@]12C[C@]1(C=O)C=CC2	
InChI=1S/C7H8O2/c8-5-6-2-1-3-7(6,9)4-6/h1-2,5,9H,3-4H2	InChI=1S/C7H8O2/c8-5-6-2-1-3-7(6,9)4-6/h1-2,5,9H,3-4H2/t6-,7-/m0/s1
