15
gdb 18317	4.1568	2.01907	1.46662	3.1892	68.3	-0.2068	-0.0051	0.2017	827.6042	0.121118	-362.672959	-362.666573	-362.665628	-362.703376	24.995	
O	-0.1523460501	-0.0333570292	-0.3403241007	-0.369337
C	-0.034518217	 1.1397997223	-0.0745357106	 0.393121
N	-1.0870858756	 2.0254139531	 0.1674818647	-0.310767
C	-0.641254029	 3.3196470229	 0.4944698846	-0.107142
C	 0.6747067025	 3.4135670327	 0.2598821031	 0.124201
C	 1.8977921695	 3.8328185577	 1.0468030158	-0.288016
C	 2.1791210748	 2.2900152097	 1.1569096516	-0.229628
C	 1.2069853007	 2.0373489407	-0.0600077149	-0.168398
H	-2.0481701624	 1.7271416103	 0.1292507379	 0.259063
H	-1.3110214121	 4.0028448175	 0.9996424661	 0.122624
H	 2.6613024045	 4.3405571645	 0.4491066915	 0.113228
H	 1.7427155475	 4.3871892999	 1.9748453316	 0.10974
H	 3.2095651009	 1.9600837613	 1.0106246208	 0.114954
H	 1.7859793077	 1.8744139492	 2.0861118866	 0.124469
H	 1.7630660779	 1.9044687473	-0.9916548184	 0.111889
130.0442	225.6227	265.8099	353.7508	485.8067	513.2811	618.0938	668.5606	701.7227	732.7291	799.4519	818.9491	845.213	884.8923	945.6386	993.4493	1013.6173	1060.1039	1096.5882	1119.5583	1169.1452	1183.2961	1213.2076	1244.511	1258.2108	1282.2588	1337.373	1389.9588	1476.1538	1495.34	1685.3604	1829.7192	3051.3853	3072.6306	3080.2817	3107.8075	3139.9266	3220.0691	3655.152
O=C1NC=C2CCC12	O=C1N[CH][C]2CC[C@@H]12	
InChI=1S/C6H7NO/c8-6-5-2-1-4(5)3-7-6/h3,5H,1-2H2,(H,7,8)	InChI=1S/C6H7NO/c8-6-5-2-1-4(5)3-7-6/h3,5H,1-2H2,(H,7,8)/t5-/m1/s1
