19
gdb 91580	2.96653	1.13388	0.961	3.8788	76.63	-0.2631	0.0042	0.2673	1274.5462	0.157907	-423.021005	-423.012188	-423.011244	-423.054853	32.711	
C	-0.1484631646	 1.5924155024	-0.1604911101	-0.418892
C	 0.0510831216	 0.083015032	-0.1515045066	-0.037869
C	 1.2780202167	-0.5525239272	-0.9023283099	-0.251077
C	 1.6737143813	-1.2873892515	 0.3851892095	-0.126662
C	 1.9624731799	-0.2808338506	 1.476162671	-0.340424
C	 0.5389873125	-0.607299471	 1.1274277094	 0.421935
O	-0.346698427	-1.1866616664	 2.0458207926	-0.230207
C	-0.6093957688	-0.4962767285	 3.1809559933	 0.14664
O	-1.3843563968	-0.885470149	 4.0003077945	-0.270394
H	 0.7530359339	 2.1218850368	 0.165251473	 0.116286
H	-0.3948079429	 1.947126601	-1.166851902	 0.122877
H	-0.9695198145	 1.8868369699	 0.502709173	 0.122179
H	-0.8643816942	-0.417696759	-0.4813662123	 0.094769
H	 0.9808260524	-1.2117190537	-1.7197050798	 0.112654
H	 2.0224058028	 0.1589928981	-1.2742400323	 0.101398
H	 2.0158909699	-2.3114031981	 0.45919506	 0.106701
H	 2.3045814414	-0.7174873139	 2.4091884604	 0.126823
H	 2.4015790758	 0.686904071	 1.2455868432	 0.115145
H	-0.0271003395	 0.4402892978	 3.252239703	 0.088119
64.5677	127.3583	145.0984	197.5449	215.2358	267.0698	348.0747	376.7931	449.6855	459.3138	569.6105	659.6535	771.1337	808.1455	851.2631	881.6732	942.3545	944.4077	979.74	1025.5193	1029.7173	1049.7843	1076.1015	1097.9191	1108.4074	1137.8999	1163.1564	1184.6665	1230.9572	1233.2789	1253.0039	1296.1502	1362.2344	1384.3131	1411.2013	1419.6931	1479.9435	1495.0938	1496.4541	1503.6976	1867.7529	2977.0375	3029.9717	3051.364	3060.6171	3095.6198	3101.8664	3110.2788	3117.0974	3197.6885	3205.9715
CC1CC2CC12OC=O	C[C@H]1C[C@H]2C[C@@]12OC=O	
InChI=1S/C7H10O2/c1-5-2-6-3-7(5,6)9-4-8/h4-6H,2-3H2,1H3	InChI=1S/C7H10O2/c1-5-2-6-3-7(5,6)9-4-8/h4-6H,2-3H2,1H3/t5-,6-,7+/m0/s1
