23
gdb 95831	2.75549	1.23066	0.96795	0.7507	82.45	-0.2365	0.0832	0.3197	1323.3493	0.205772	-425.432303	-425.422883	-425.421939	-425.466137	36.304	
C	 0.8668710716	 1.3818071566	 0.21583527	-0.395352
C	-0.1082853494	 0.267642417	-0.1704404531	 0.136316
C	 0.3500425252	-0.4928680789	-1.4292668622	-0.231125
C	-0.2757928543	-1.8824219987	-1.6002140871	-0.07626
O	 0.406317672	-2.885691463	-0.866820655	-0.259632
C	 0.1521455344	-2.9250405133	 0.5293406603	 0.129944
C	 0.9438485591	-4.1072308721	 1.0766158591	-0.401717
C	 0.5197860682	-1.6157027191	 1.2409611856	-0.09591
O	-0.3960727384	-0.577101395	 0.9440560524	-0.266918
H	 1.8525899229	 0.9754394586	 0.4672918637	 0.116347
H	 0.9999765109	 2.0843455681	-0.6139043001	 0.112833
H	 0.4909809704	 1.9334857671	 1.0816056259	 0.121336
H	-1.0831702658	 0.7222508538	-0.3868490935	 0.082727
H	 0.1098960243	 0.1266496136	-2.3020774073	 0.0984
H	 1.4391268374	-0.6213594643	-1.4321235868	 0.105072
H	-1.3445533564	-1.8643866457	-1.3353757715	 0.09427
H	-0.1951395837	-2.1914384375	-2.6473637825	 0.101385
H	-0.9267037123	-3.0846796858	 0.6979279508	 0.070193
H	 2.0194553521	-3.9371948156	 0.9626633889	 0.120615
H	 0.7263087813	-4.2657683265	 2.1368167507	 0.113952
H	 0.6857047074	-5.0157690061	 0.5273618241	 0.126884
H	 0.461315498	-1.7746531163	 2.3243863407	 0.101669
H	 1.5571336853	-1.3415637168	 1.0021392468	 0.094971
77.7784	135.113	198.6616	224.0542	233.0459	256.7334	308.6476	342.9774	360.2604	385.0484	464.0706	508.1024	547.3794	579.6867	755.0991	816.6514	859.7335	909.0455	916.8454	940.2104	991.1165	1005.1429	1027.5695	1068.5498	1120.1493	1128.2204	1149.1716	1156.8131	1160.9555	1197.5312	1257.4716	1289.9047	1307.4746	1327.1631	1343.2858	1383.5538	1385.9969	1395.5765	1403.1761	1407.5429	1412.9391	1420.196	1470.8791	1482.1951	1485.1337	1489.2664	1494.5144	1497.1272	1502.1087	2959.7373	2988.0234	3004.4756	3023.3981	3027.6412	3034.7159	3042.4252	3060.2931	3070.9019	3073.3062	3100.9166	3113.0653	3118.2108	3126.6015
CC1CCOC(C)CO1	C[C@H]1CCO[C@@H](C)CO1	
InChI=1S/C7H14O2/c1-6-3-4-8-7(2)5-9-6/h6-7H,3-5H2,1-2H3	InChI=1S/C7H14O2/c1-6-3-4-8-7(2)5-9-6/h6-7H,3-5H2,1-2H3/t6-,7-/m0/s1
