16
gdb 18623	3.13471	2.08415	1.77549	4.4851	64.01	-0.2612	0.0103	0.2716	810.943	0.131979	-383.77679	-383.769883	-383.768939	-383.807807	26.257	
C	-0.0682288065	 1.54765656	 0.0793150344	-0.427011
C	 0.0516829298	 0.0439733338	-0.0479635933	-0.011617
C	 0.6808405073	-0.6616052663	-1.2133836758	-0.091426
C	 1.6256310329	 0.1485818524	-2.0871595188	-0.102263
O	 2.6616634044	 0.6502888515	-1.2275468803	-0.227746
C	 2.6163036101	 0.0672713969	 0.0131657204	 0.44386
O	 3.4928909825	 0.2158453553	 0.8138898386	-0.342972
C	 1.3548238707	-0.7258183241	 0.1402158046	-0.208958
H	 0.8029783349	 2.071943084	-0.3202546694	 0.144964
H	-0.9536085013	 1.9066844369	-0.4565620192	 0.121562
H	-0.1752210554	 1.8358414484	 1.1297462351	 0.132235
H	-0.7944363934	-0.4948704746	 0.3714875297	 0.101641
H	 0.1951500592	-1.5241748053	-1.653130558	 0.10382
H	 2.0890122275	-0.4766894177	-2.8580642448	 0.1233
H	 1.1487861791	 1.0054961469	-2.5736404131	 0.123081
H	 1.3819180883	-1.597647128	 0.7795581	 0.117531
127.9974	196.1736	203.6517	236.9313	378.4677	471.506	495.9344	635.8094	702.9829	767.6976	780.4058	807.8561	855.6814	921.7571	961.5092	996.512	1014.3946	1048.4196	1078.0182	1084.8941	1132.3796	1137.5138	1182.4713	1217.3997	1238.4843	1325.4598	1357.8988	1383.9097	1424.9189	1439.5253	1498.5084	1503.402	1521.0583	1879.5926	3038.4904	3041.8772	3082.5711	3099.3	3120.4184	3142.3445	3185.9089	3211.9348
CC1C2COC(=O)C12	C[C@H]1[C@H]2COC(=O)[C@@H]12	
InChI=1S/C6H8O2/c1-3-4-2-8-6(7)5(3)4/h3-5H,2H2,1H3	InChI=1S/C6H8O2/c1-3-4-2-8-6(7)5(3)4/h3-5H,2H2,1H3/t3-,4+,5-/m0/s1
