17
gdb 12695	3.22767	1.97969	1.29416	3.6914	65.55	-0.2482	0.0253	0.2734	935.2053	0.143271	-401.046563	-401.038601	-401.037656	-401.078841	29.007	
C	-0.0200092744	 1.4070022746	-0.0602858206	-0.34738
N	 0.0024507955	-0.0364304058	-0.0818489772	-0.071143
C	-1.202960888	-0.85589694	-0.0362602997	-0.180207
C	-0.6986745777	-2.2591073839	-0.4410173205	-0.245986
C	 0.7637427187	-2.2469409972	 0.0105761168	 0.05068
O	 1.6142144265	-3.0499384929	-0.7646407914	-0.4413
C	 1.1468033308	-0.7687992434	-0.1041023277	 0.386135
O	 2.290349095	-0.3627381658	-0.2117777844	-0.417487
H	 1.0113972998	 1.7558694097	-0.1378053846	 0.166737
H	-0.6000036452	 1.802989288	-0.9024870142	 0.1275
H	-0.4608249656	 1.7861516986	 0.8702872737	 0.126905
H	-1.6447347643	-0.8515117318	 0.9709941892	 0.10991
H	-1.9583313938	-0.4647856717	-0.7267826514	 0.116086
H	-1.2930504735	-3.0610051766	-0.0004224265	 0.113566
H	-0.7168181665	-2.3693834944	-1.5292740288	 0.126275
H	 0.832684886	-2.5189119065	 1.0794422467	 0.086851
H	 2.4501393265	-2.561886701	-0.8117987293	 0.292856
106.8222	151.8658	158.4526	205.032	263.3787	299.5501	416.7643	434.0264	515.7289	548.4189	616.492	733.8195	784.5804	885.9344	956.9415	977.8328	1016.6847	1084.5647	1117.0542	1151.7481	1167.5027	1191.7655	1228.2332	1272.6901	1284.295	1309.941	1324.4012	1374.0707	1430.0787	1438.3349	1462.2075	1490.966	1494.034	1513.9995	1543.3613	1802.0628	2939.5997	2996.9906	3016.1867	3054.5389	3066.7229	3071.7475	3127.2304	3141.4271	3720.7769
CN1CCC(O)C1=O	CN1CC[C@@H](O)C1=O	
InChI=1S/C5H9NO2/c1-6-3-2-4(7)5(6)8/h4,7H,2-3H2,1H3	InChI=1S/C5H9NO2/c1-6-3-2-4(7)5(6)8/h4,7H,2-3H2,1H3/t4-/m1/s1
