21
gdb 118011	1.91575	1.15808	0.88352	2.4278	80.92	-0.2562	0.0415	0.2977	1444.8792	0.178366	-424.185225	-424.174139	-424.173194	-424.222086	39.622	
C	 0.1210575869	 1.5414591399	 0.0709728104	-0.387593
C	 0.0776363707	 0.0242640761	 0.0055996178	-0.036472
O	 0.7564863434	-0.4890026914	 1.1376240904	-0.276951
C	 0.7790920033	-1.9064174103	 1.2541266699	 0.123016
C	 1.9554300989	-2.512493277	 0.4900739564	-0.411889
C	 0.8851186849	-2.1733912794	 2.7742267519	-0.084765
O	 1.9959906648	-1.4782736227	 3.3173446187	-0.418621
C	-0.3694223248	-1.8294425616	 3.4570905622	 0.336677
C	-1.396681548	-1.5479371156	 4.0140075198	-0.453903
H	 1.1547976368	 1.8985758973	 0.0551067319	 0.126362
H	-0.4079989662	 1.9738462967	-0.7834196702	 0.117217
H	-0.3520417134	 1.8970809618	 0.9905543288	 0.130557
H	-0.964241835	-0.3335207557	 0.0028129326	 0.096039
H	 0.5484796421	-0.3318462482	-0.9239416621	 0.091036
H	-0.170827559	-2.3260978445	 0.8922442161	 0.078579
H	 1.9253100833	-3.60590168	 0.5393326426	 0.115692
H	 1.9270297604	-2.2240128298	-0.5642533002	 0.115725
H	 2.8959407755	-2.1682977971	 0.926603543	 0.139182
H	 1.0936089467	-3.2385332601	 2.9290887088	 0.111482
H	 1.8826886545	-0.5593956257	 3.0400585132	 0.293721
H	-2.2996618658	-1.3012911328	 4.515628748	 0.194908
49.9502	56.0677	90.1913	146.9276	161.8239	217.7887	232.413	252.7909	296.2252	307.2449	375.4034	426.4052	462.7125	523.3966	569.2538	627.0847	663.1342	694.3597	812.2791	821.9224	884.7116	949.1536	992.5151	1005.6243	1056.8324	1110.9601	1124.5544	1153.3474	1160.0877	1188.1837	1270.6931	1296.4977	1303.3209	1357.8197	1368.1676	1400.7328	1403.0258	1426.8036	1442.215	1483.7677	1488.4482	1496.4976	1501.1327	1529.1004	2233.2341	2971.7948	3001.2406	3002.8862	3042.9002	3045.2794	3048.5336	3111.3583	3119.9603	3123.2221	3134.9618	3503.1231	3773.6935
CCOC(C)C(O)C#C	CCO[C@@H](C)[C@@H](O)C#C	
InChI=1S/C7H12O2/c1-4-7(8)6(3)9-5-2/h1,6-8H,5H2,2-3H3	InChI=1S/C7H12O2/c1-4-7(8)6(3)9-5-2/h1,6-8H,5H2,2-3H3/t6-,7-/m0/s1
