16
gdb 34703	4.1352	1.47985	1.40938	4.2441	74.93	-0.26	0.0293	0.2893	931.2535	0.126715	-363.552672	-363.546419	-363.545475	-363.583353	25.632	
N	-0.0199236057	-1.2241734401	-0.0465191212	-0.334123
C	-0.0253257581	-0.0676764312	-0.0295869093	 0.270215
C	-0.011780842	 1.3851860215	 0.0147568977	-0.165555
C	-0.221197829	 2.1166058876	 1.376310757	-0.072035
C	 0.9590279731	 1.7282534234	 2.2916490916	-0.062146
C	 2.1104629111	 1.7483333252	 1.2831296227	-0.062142
C	 1.7276163877	 3.0060844379	 2.0328356285	-0.1077
C	 0.7148295474	 3.2831184992	 0.8820092328	-0.061434
C	 1.3508285368	 2.1439610562	-0.0006275847	-0.072037
H	-0.685667392	 1.7908998103	-0.7465355796	 0.120085
H	-1.2121943189	 2.2560823193	 1.8032553211	 0.083122
H	 0.9592725331	 1.0905046406	 3.1643459139	 0.102042
H	 2.9879601807	 1.1258897986	 1.3874592807	 0.102042
H	 2.2955723622	 3.6454000424	 2.6940117728	 0.096362
H	 0.3642138284	 4.2379885998	 0.5006854724	 0.080182
H	 1.9015829351	 2.3102639094	-0.9241112463	 0.083121
117.4897	156.8014	375.2806	462.7365	523.4251	641.7023	722.9339	765.4598	780.8429	785.5737	804.8758	828.5947	862.2288	868.4414	871.6431	950.314	968.9037	990.9016	992.3527	1021.5058	1038.2083	1038.99	1066.1927	1076.429	1135.4003	1164.5955	1179.2197	1193.0132	1224.8402	1248.9154	1257.2717	1299.8811	1343.2267	1361.1208	2349.8102	3069.5526	3138.8046	3139.2167	3158.9659	3208.0704	3212.1025	3225.5101
N#CC1C2C3C4C3C2C14	N#C[C@H]1[C@H]2[C@H]3[C@@H]4[C@H]3[C@H]2[C@H]14	
InChI=1S/C8H7N/c9-1-2-3-5-4(2)7-6(3)8(5)7/h2-8H	InChI=1S/C8H7N/c9-1-2-3-5-4(2)7-6(3)8(5)7/h2-8H/t2-,3+,4-,5+,6-,7+,8-
