22
gdb 86262	1.71625	1.62544	1.12788	4.1443	86.51	-0.2923	0.0344	0.3268	1240.4082	0.1933	-367.235662	-367.225728	-367.224784	-367.269779	37.636	
C	-1.3267858139	 0.5729458159	-1.2931903372	-0.422891
C	-0.0994397883	-0.2483653305	-0.9349683152	 0.017255
C	 1.3144865113	 0.2516718809	-1.3282165111	-0.267467
C	 1.866498696	-0.3430421604	-0.0070572127	 0.017256
C	 2.9834127718	 0.3653537954	 0.7412305612	-0.422892
C	 0.3931547203	-0.3268194526	 0.5647517718	 0.122398
C	 0.0537712083	 0.9093899047	 1.4099662036	-0.448084
C	-0.0013098369	-1.5368980916	 1.2769351267	 0.229983
N	-0.3076131633	-2.5076698544	 1.8271372143	-0.352867
H	-1.237854777	 1.6114289492	-0.9603072492	 0.116788
H	-1.4657962813	 0.5864787567	-2.379593329	 0.123002
H	-2.2347064624	 0.150667841	-0.8493517831	 0.128325
H	-0.2297254405	-1.2730574495	-1.2962735182	 0.095012
H	 1.7381650786	-0.1197386041	-2.2637610356	 0.104477
H	 1.3699937914	 1.3456736445	-1.3342229219	 0.100911
H	 2.1467585322	-1.3875007083	-0.1745854659	 0.095015
H	 2.7524228914	 1.4193033703	 0.9228844645	 0.116787
H	 3.1823208168	-0.1101158936	 1.7076693233	 0.128328
H	 3.9095981039	 0.3273739218	 0.1576918086	 0.123002
H	 0.3413239319	 1.8290040332	 0.8945104489	 0.124185
H	-1.0191613478	 0.95570296	 1.6143660184	 0.135739
H	 0.5786182076	 0.8787740713	 2.3684582278	 0.13574
105.3909	122.2522	171.5226	213.0895	217.8753	246.0196	258.303	289.2357	311.0155	359.7907	452.9174	463.5393	531.7923	557.2992	577.4671	669.9113	817.0925	869.2945	882.6599	908.9561	942.8298	968.783	988.4655	1049.2559	1078.7663	1144.9514	1145.1974	1163.0581	1181.1933	1200.8386	1223.4596	1259.0368	1274.5224	1324.6826	1362.5561	1393.6886	1411.2258	1416.8675	1419.094	1485.7036	1488.5485	1495.2259	1495.8769	1499.194	1506.0088	1508.7918	2342.4321	3032.9768	3033.0316	3046.2029	3051.8059	3057.1497	3061.3006	3097.6462	3097.8277	3105.1444	3107.9233	3112.4856	3122.7268	3127.1197
CC1CC(C)C1(C)C#N	C[C@H]1C[C@@H](C)[C@]1(C)C#N	
InChI=1S/C8H13N/c1-6-4-7(2)8(6,3)5-9/h6-7H,4H2,1-3H3	InChI=1S/C8H13N/c1-6-4-7(2)8(6,3)5-9/h6-7H,4H2,1-3H3/t6-,7+,8+
