13
gdb 16260	3.29349	2.00946	1.43423	5.4315	64.72	-0.2691	-0.0371	0.232	839.7811	0.095697	-361.466848	-361.460106	-361.459162	-361.497909	24.982	
O	-0.0210806084	 0.0291501082	-0.0571741892	-0.278647
C	-0.0135104306	 1.2159232481	 0.0526089285	 0.357973
C	-1.12688496	 2.2892301626	 0.1594986518	-0.352521
C	-0.0417238321	 3.3599100304	-0.0229985113	-0.094277
C	 0.9482493947	 3.2639299239	 1.0726628773	-0.307473
C	 1.0762204178	 2.2647732339	-0.0880232313	 0.094527
C	 2.253130487	 2.1812564465	-0.8840890761	 0.197092
N	 3.2016079419	 2.1038920261	-1.5427552947	-0.340545
H	-1.8075408865	 2.1911567093	-0.6905946172	 0.151461
H	-1.7078806051	 2.3317561482	 1.0845545964	 0.136548
H	-0.1056971108	 4.2117782619	-0.6854804669	 0.136495
H	 1.741309223	 4.003386739	 1.087825627	 0.157471
H	 0.656758799	 2.8907991721	 2.0501657057	 0.141896
117.698	147.7123	198.2861	382.5576	405.0818	495.3322	521.8696	596.6107	638.8641	661.4722	793.7758	838.0559	870.0444	948.121	981.757	1014.7264	1025.7391	1064.9855	1097.8744	1144.2256	1209.7118	1247.5023	1279.6657	1360.6389	1455.1471	1496.0153	1901.2061	2349.0861	3066.054	3121.3013	3128.2183	3219.0104	3227.7061
O=C1CC2CC12C#N	O=C1C[C@H]2C[C@@]12C#N	
InChI=1S/C6H5NO/c7-3-6-2-4(6)1-5(6)8/h4H,1-2H2	InChI=1S/C6H5NO/c7-3-6-2-4(6)1-5(6)8/h4H,1-2H2/t4-,6-/m0/s1
