19
gdb 67619	2.76437	1.72497	1.40605	1.4632	78.14	-0.2095	0.0807	0.2901	997.1644	0.159807	-385.848315	-385.840831	-385.839887	-385.879601	31.088	
C	-0.095628094	 1.5181990925	 0.0449128984	-0.513687
C	 0.0277006254	 0.0249353055	 0.0199753168	 0.365255
C	-0.0380219774	-0.8538726915	-1.2204634317	-0.115076
C	 1.0215538611	-1.9404158851	-1.1831882346	-0.237776
C	 1.0709117777	-2.1528875734	 0.3180479343	-0.109634
C	 0.7969997002	-0.8390870756	 1.0584738243	-0.25463
C	-0.2732956143	-1.9103759208	 0.9468521898	 0.402445
O	-0.8201007903	-2.7774090759	 1.8675540949	-0.464703
C	-1.0418426476	-1.0456635963	-0.0927641256	-0.237957
H	 0.8696774011	 2.0036191583	-0.1449104497	 0.118433
H	-0.7972096736	 1.8651897422	-0.721019428	 0.117446
H	-0.4601533781	 1.8767405616	 1.0148660683	 0.115001
H	-0.3727750214	-0.4178061123	-2.1557675545	 0.079486
H	 0.7139846982	-2.8442297274	-1.7218268311	 0.100411
H	 1.9802340824	-1.6013069985	-1.5921607638	 0.096244
H	 1.7259874354	-2.8764343541	 0.7884330816	 0.089485
H	 1.3770872927	-0.4855106055	 1.9006108508	 0.083638
H	-1.3457535172	-2.2633973137	 2.4906117362	 0.28471
H	-2.1153798702	-0.94654546	-0.1921583764	 0.080907
187.1839	207.6384	248.2067	288.3478	329.037	370.82	419.1642	537.6167	572.7215	609.3619	714.6181	738.1267	803.0256	807.175	833.7917	873.5521	894.266	910.9589	942.3077	955.0084	976.386	991.3491	1023.5261	1053.6075	1067.1899	1101.399	1115.4725	1130.007	1191.6819	1202.7867	1247.8179	1252.6576	1274.3835	1308.9737	1326.5985	1412.3932	1437.0063	1471.0134	1485.0776	1492.6284	1500.861	3016.825	3033.4038	3072.4982	3074.0693	3092.2194	3171.7394	3192.416	3194.3828	3203.5239	3790.4959
CC12C3CC4C1C4(O)C23	C[C@@]12[C@H]3C[C@H]4[C@@H]1[C@@]4(O)[C@@H]23	
InChI=1S/C8H10O/c1-7-3-2-4-6(7)8(4,9)5(3)7/h3-6,9H,2H2,1H3	InChI=1S/C8H10O/c1-7-3-2-4-6(7)8(4,9)5(3)7/h3-6,9H,2H2,1H3/t3-,4-,5+,6-,7-,8-/m0/s1
