21
gdb 58222	2.67746	1.05351	0.82537	3.0689	76.22	-0.2513	-0.0477	0.2036	1423.4766	0.179635	-461.374413	-461.364136	-461.363192	-461.409748	38.117	
C	 0.016879345	 1.5941150503	-0.0455529827	-0.396373
C	-0.0395450159	 0.0830932751	 0.1659270069	 0.148712
O	 0.452566	-0.1471412779	 1.4712189405	-0.446841
C	-1.4666826551	-0.5079751882	-0.0088329757	-0.04208
C	-2.144791039	-0.0235126323	-1.3004822506	-0.419279
C	-1.426502114	-2.066263039	-0.0014458438	 0.04656
O	-0.5246387754	-2.6107886578	 0.9389747037	-0.445721
C	-2.8019540988	-2.6476280676	 0.274014145	 0.139719
O	-2.9838206298	-3.4095064756	 1.1946074413	-0.263457
H	 1.0150306545	 1.9447690386	 0.2287537424	 0.129144
H	-0.1743739575	 1.8753087461	-1.0836215004	 0.110164
H	-0.7066678249	 2.1028854291	 0.6003712845	 0.117432
H	 0.6130510082	-0.3994005854	-0.5859610846	 0.060201
H	 0.3590193311	-1.0975775296	 1.626988141	 0.288611
H	-2.0434015202	-0.169180433	 0.8624018201	 0.088203
H	-1.5087399782	-0.2186544961	-2.1719208099	 0.125003
H	-3.1039958622	-0.5180441908	-1.4808293368	 0.113575
H	-2.3410720492	 1.0494124897	-1.2616424903	 0.135162
H	-1.1286741705	-2.3930361593	-1.0134384874	 0.1
H	-1.065565606	-3.1740227172	 1.5197883714	 0.300148
H	-3.6298609421	-2.3426555992	-0.3916491447	 0.111116
56.3811	83.6007	125.7076	200.4006	213.5916	248.0744	302.9103	330.2886	340.5541	366.7801	372.1007	444.6669	495.7156	511.286	542.3162	610.7941	756.7214	804.9767	837.2005	925.6839	944.6033	966.1091	994.3923	1055.4448	1079.6722	1128.4561	1139.0224	1166.9728	1173.6644	1245.5742	1293.074	1304.7066	1330.582	1361.5644	1376.4571	1394.8929	1402.6891	1418.6519	1439.8961	1469.444	1485.9135	1496.4178	1502.2872	1512.1775	1803.6207	2920.0266	2954.8113	2974.2607	3021.9051	3038.252	3043.6266	3098.7867	3115.6101	3127.5154	3134.5286	3639.6555	3725.569
CC(O)C(C)C(O)C=O	C[C@@H](O)[C@@H](C)[C@@H](O)C=O	
InChI=1S/C6H12O3/c1-4(5(2)8)6(9)3-7/h3-6,8-9H,1-2H3	InChI=1S/C6H12O3/c1-4(5(2)8)6(9)3-7/h3-6,8-9H,1-2H3/t4-,5-,6+/m1/s1
