21
gdb 84076	2.24982	1.49033	1.00447	2.6045	85.27	-0.2357	-0.0143	0.2214	1260.0673	0.180785	-387.141036	-387.131258	-387.130314	-387.175671	36.185	
C	-0.2828952334	 1.5926782945	-0.0097963485	-0.389394
C	-0.0155228763	 0.0804268476	-0.0271704007	-0.146896
C	 0.7652912686	-0.4463335794	-1.202849348	-0.184029
C	 1.836114694	-1.1714354548	-0.8620493727	 0.312211
C	 2.792550953	-1.8429135708	-1.7964630524	-0.491707
C	 1.9825954827	-1.2822206624	 0.642843228	-0.199431
C	 3.3479512394	-0.9011257063	 1.23370546	-0.397554
C	 0.8559596188	-0.3690166009	 1.1590768627	 0.396097
O	 0.7091012855	-0.0249076712	 2.3039845276	-0.324091
H	 0.6477767454	 2.1548284753	-0.1357051052	 0.118102
H	-0.9641458388	 1.8790502068	-0.816569308	 0.113669
H	-0.7299764562	 1.8809296284	 0.9451685809	 0.137901
H	-0.9843988602	-0.4361044722	 0.0643926871	 0.105117
H	 0.4632097489	-0.253237214	-2.2276984465	 0.089247
H	 2.5158258861	-1.6738900756	-2.8407858026	 0.12429
H	 3.8169304927	-1.4782325657	-1.6528638182	 0.131232
H	 2.8216251071	-2.9264746316	-1.6222137738	 0.125798
H	 1.7475219334	-2.3078299662	 0.9713702975	 0.104229
H	 3.6661403384	 0.0856484602	 0.8818501351	 0.119067
H	 3.2766008707	-0.865304467	 2.3237674579	 0.140717
H	 4.1187095503	-1.6264272247	 0.9582228897	 0.115426
46.1164	136.2312	187.6468	205.0035	209.0097	213.1908	231.8829	280.3391	304.9997	397.5542	514.1345	548.2192	569.6355	600.9607	679.6627	779.4161	815.2857	857.2022	911.9722	975.6112	1008.784	1021.1899	1028.202	1051.7135	1091.5961	1108.13	1120.3987	1153.2097	1194.2762	1267.8004	1284.3412	1295.8051	1320.9354	1349.3451	1399.8217	1402.2101	1413.5517	1477.0487	1486.4596	1493.6042	1497.7735	1499.6899	1500.7923	1710.5166	1842.1773	2975.7406	2979.7712	3017.7521	3039.348	3040.0613	3065.8268	3108.498	3109.24	3110.1666	3124.2975	3125.3721	3175.9646
CC1C=C(C)C(C)C1=O	C[C@H]1C=C(C)[C@@H](C)C1=O	
InChI=1S/C8H12O/c1-5-4-6(2)8(9)7(5)3/h4,6-7H,1-3H3	InChI=1S/C8H12O/c1-5-4-6(2)8(9)7(5)3/h4,6-7H,1-3H3/t6-,7+/m0/s1
