20
gdb 112058	1.99466	1.53135	0.95015	3.9443	84.35	-0.2574	0.0046	0.262	1270.8498	0.171875	-366.04759	-366.038626	-366.037682	-366.081633	33.341	
C	 0.1482803033	 1.5180568499	 0.2368675827	-0.39449
C	 0.282931132	-0.0049329649	 0.149693515	-0.17649
C	 0.5971740835	-0.5065146963	-1.2751253501	-0.047922
C	 1.9523659638	-0.0502288093	-1.7751603608	-0.063975
C	 2.8537677037	-1.0293870241	-1.7969651285	-0.075674
C	 2.2760934924	-2.3502562476	-1.3532363923	-0.264897
C	 0.7442766658	-2.0657099753	-1.4044974475	-0.168476
C	-0.0332097352	-2.8456436346	-0.4482922607	 0.274677
N	-0.6482999719	-3.468493718	 0.3072370552	-0.340872
H	 1.0847934147	 2.0245592536	-0.0170751539	 0.118078
H	-0.6263772658	 1.8871379678	-0.4449422712	 0.115856
H	-0.1284582031	 1.8254873122	 1.2495293632	 0.120624
H	 1.0689729605	-0.3470609519	 0.8341942031	 0.104334
H	-0.6479180424	-0.4727106939	 0.4885859477	 0.122202
H	-0.2109983586	-0.1645831239	-1.933817521	 0.086229
H	 2.1506530734	 0.9837393947	-2.0320278212	 0.10416
H	 3.8972492997	-0.9176057572	-2.0685789719	 0.102962
H	 2.5484944368	-3.1894191336	-2.0007788504	 0.121639
H	 2.6068752957	-2.6148771243	-0.3410530143	 0.131063
H	 0.3929308517	-2.3410319532	-2.404836033	 0.130972
77.7204	89.8312	132.5202	194.396	221.3815	258.3975	318.3407	371.2729	475.4811	521.1267	562.5367	662.4964	744.5864	746.6623	783.5074	821.6629	888.115	958.7619	971.3414	980.0072	998.3992	1032.8731	1045.284	1085.5225	1105.6379	1115.6146	1137.9657	1172.4547	1270.1061	1271.3554	1296.7805	1315.8099	1339.8597	1351.1148	1371.7043	1379.7105	1413.4848	1485.0587	1491.6564	1499.8982	1506.8856	1688.1427	2353.5142	3019.2212	3031.2686	3032.9119	3035.1214	3050.8339	3071.6735	3079.3347	3101.2796	3109.5135	3189.8123	3214.3736
CCC1C=CCC1C#N	CC[C@H]1C=CC[C@H]1C#N	
InChI=1S/C8H11N/c1-2-7-4-3-5-8(7)6-9/h3-4,7-8H,2,5H2,1H3	InChI=1S/C8H11N/c1-2-7-4-3-5-8(7)6-9/h3-4,7-8H,2,5H2,1H3/t7-,8-/m0/s1
