22
gdb 88980	3.32705	0.86191	0.77112	1.0148	83.03	-0.2188	0.0744	0.2932	1560.4046	0.19287	-404.293852	-404.284016	-404.283072	-404.329321	36.625	
C	 0.0920502868	 1.4976446615	-0.3977413943	-0.411893
C	 0.1685401203	 0.0186904419	-0.0828588909	 0.030456
C	 1.4794897633	-0.6711962573	 0.0906016008	-0.249474
N	 0.5722174033	-0.5104243366	 1.2220396002	-0.080876
C	 0.9631467335	 0.4031012073	 2.2927685787	-0.17619
C	 1.6763138594	-0.3550311788	 3.3901053686	-0.027564
C	 3.1841660353	-0.5264234669	 3.3506248252	-0.29634
C	 2.5638612122	 0.3704807027	 4.3749296474	 0.089694
O	 2.813636137	 1.7415521839	 4.2195820959	-0.419876
H	 0.9575936903	 2.0512395269	-0.0262912965	 0.122524
H	 0.0480014774	 1.6434525408	-1.4823780311	 0.121271
H	-0.8100929729	 1.9490502192	 0.0307004251	 0.120004
H	-0.6439549058	-0.558436686	-0.5241607042	 0.086217
H	 1.6363146072	-1.6877244285	-0.2615854931	 0.109405
H	 2.3690790131	-0.0416959481	 0.0592282378	 0.102891
H	 1.6023389393	 1.2326983286	 1.9565998402	 0.095053
H	 0.0413761692	 0.8483320059	 2.6920920617	 0.09192
H	 1.1070826448	-1.1920934438	 3.7843743455	 0.090313
H	 3.6210156753	-1.4662514451	 3.6681797986	 0.111688
H	 3.715590912	-0.0253274866	 2.5484703426	 0.119786
H	 2.5512090882	 0.0277561315	 5.4095402529	 0.084247
H	 2.0505006907	 2.2214430875	 4.5585585291	 0.286743
44.0195	75.1091	100.9174	179.581	221.39	254.0353	286.9896	326.2466	369.5293	425.3527	452.0009	514.4712	560.5587	755.1874	782.5893	809.5743	834.3701	891.4352	906.8916	922.3641	951.4544	1004.2312	1030.2908	1045.5658	1058.8627	1086.8474	1115.1608	1132.0005	1145.9476	1147.2441	1175.7771	1187.7329	1192.6958	1234.837	1280.4266	1298.7062	1336.487	1352.6038	1400.6739	1413.4402	1421.2869	1428.0702	1484.2266	1491.8741	1494.833	1501.8457	1516.1523	2986.3304	3027.8617	3033.6906	3082.0929	3090.4754	3096.026	3096.5022	3123.6782	3136.3773	3150.2878	3167.9547	3224.6494	3802.2992
CC1CN1CC1CC1O	C[C@H]1CN1C[C@H]1C[C@H]1O	
InChI=1S/C7H13NO/c1-5-3-8(5)4-6-2-7(6)9/h5-7,9H,2-4H2,1H3	InChI=1S/C7H13NO/c1-5-3-8(5)4-6-2-7(6)9/h5-7,9H,2-4H2,1H3/t5-,6+,7+,8?/m0/s1
