19
gdb 73227	2.17268	1.93941	1.36956	3.6391	74.38	-0.2296	-0.027	0.2026	1015.7041	0.159379	-423.045394	-423.037173	-423.036229	-423.078102	31.458	
C	 0.0845702462	 1.6144533081	 0.0171661247	-0.467015
C	 0.0844527646	 0.1086223323	 0.0780542462	 0.336797
O	-1.2401877267	-0.4561226608	 0.3307350145	-0.328531
C	-0.7696952974	-1.1525793377	 1.5061830542	-0.082806
C	 0.6786903807	-0.6810984297	 1.2762423186	-0.122329
C	 1.6440335441	-1.7329695678	 0.6935149541	-0.24057
C	 1.1926125042	-1.9456259974	-0.7650325897	-0.330005
C	 0.6325722152	-0.5869868336	-1.1861791205	 0.385587
O	 0.6178079602	-0.1213808824	-2.2954693995	-0.315179
H	 1.1092980737	 1.9961731768	-0.0449575529	 0.120874
H	-0.4510781975	 1.9469638289	-0.8763312448	 0.147751
H	-0.3967575168	 2.0379956287	 0.9026797279	 0.118782
H	-1.2528520991	-0.7747498955	 2.4152576106	 0.106506
H	-0.9375627293	-2.2354647743	 1.4412786231	 0.101118
H	 1.1165585243	-0.0997071277	 2.0882725968	 0.081825
H	 2.6659626938	-1.3379237891	 0.7091769528	 0.111479
H	 1.6474084978	-2.6568580439	 1.2793602506	 0.108195
H	 1.9792145417	-2.2768523511	-1.4447893115	 0.127148
H	 0.3761226903	-2.6762935039	-0.8255547951	 0.140372
81.3379	155.1267	192.8813	214.2374	264.4935	294.8471	370.3073	468.3449	503.2477	578.1371	638.0759	673.3625	788.92	813.884	855.1359	884.1362	894.6098	955.538	972.8841	1017.0236	1039.9999	1065.1256	1085.472	1125.1984	1160.303	1163.2293	1184.8849	1217.5201	1237.3386	1279.7426	1320.2569	1323.0204	1336.8925	1371.0551	1404.6143	1455.6855	1477.0938	1482.542	1496.3724	1525.319	1847.607	3010.8994	3040.0414	3040.3354	3043.84	3053.2373	3088.3508	3105.1852	3111.4393	3123.6658	3126.6424
CC12OCC1CCC2=O	C[C@]12OC[C@H]1CCC2=O	
InChI=1S/C7H10O2/c1-7-5(4-9-7)2-3-6(7)8/h5H,2-4H2,1H3	InChI=1S/C7H10O2/c1-7-5(4-9-7)2-3-6(7)8/h5H,2-4H2,1H3/t5-,7+/m1/s1
