22
gdb 111054	3.29196	1.03231	0.91463	2.905	82.39	-0.2339	0.0641	0.298	1377.4553	0.19479	-404.266715	-404.257539	-404.256595	-404.300977	34.899	
C	-0.7946356208	 1.8944834026	-0.1575801735	-0.380862
C	-0.5548732587	 0.3981636673	-0.3915999483	-0.320826
C	-1.7958806684	-0.4427941982	-0.1968080541	 0.30288
C	-2.688404311	-0.6036953383	 1.0654915317	-0.203198
N	-3.3940804013	-1.5329748587	 0.0640087086	-0.17388
C	-3.1604762131	-0.3849449797	-0.9335902702	-0.223591
C	-1.9556771653	-1.9888039162	-0.2871308768	-0.00189
C	-1.8351843402	-2.8344476643	-1.5427652936	-0.110733
O	-2.6118974367	-4.0122214077	-1.3936600859	-0.421124
H	 0.1241320483	 2.4689285698	-0.3067058085	 0.117371
H	-1.5492823429	 2.2879463947	-0.8467436495	 0.11991
H	-1.1452876685	 2.084449218	 0.8622641497	 0.120223
H	-0.1716050601	 0.2389066547	-1.4080067362	 0.102726
H	 0.2264491429	 0.036255075	 0.2896570128	 0.101951
H	-2.2707221365	-1.1288548966	 1.9295233749	 0.100822
H	-3.3063215185	 0.2441714062	 1.3732909596	 0.100054
H	-3.8051980628	 0.477765321	-0.7441877313	 0.100919
H	-3.2148036802	-0.6760114945	-1.983049517	 0.103568
H	-1.5202724713	-2.5505046114	 0.5478871574	 0.076664
H	-2.1159002524	-2.2861027425	-2.4532720726	 0.086871
H	-0.7945838844	-3.1539684934	-1.6707730005	 0.10704
H	-3.4557791381	-3.730151878	-1.0182934667	 0.295106
70.3783	84.972	129.8833	189.5396	210.3942	296.6796	316.5803	376.3069	433.6086	525.4021	580.7515	614.0818	628.8399	751.3886	770.4685	813.9687	856.4904	910.7498	943.8551	954.3993	985.6781	1007.7709	1042.6183	1059.1275	1068.6914	1094.5623	1136.1698	1163.631	1168.7537	1181.8402	1195.0816	1200.9036	1225.6926	1259.5087	1304.8049	1318.4914	1350.355	1376.2567	1413.3188	1420.6008	1452.5356	1480.8437	1499.9119	1504.7756	1506.4549	1523.584	1561.032	2996.7064	3016.5219	3035.3009	3035.8161	3047.2352	3048.5751	3062.3446	3065.5468	3103.1458	3109.1152	3114.2463	3133.4869	3773.2381
CCC12CN(C1)C2CO	CC[C@@]12CN(C1)[C@H]2CO	
InChI=1S/C7H13NO/c1-2-7-4-8(5-7)6(7)3-9/h6,9H,2-5H2,1H3	InChI=1S/C7H13NO/c1-2-7-4-8(5-7)6(7)3-9/h6,9H,2-5H2,1H3/t6-/m0/s1
