25
gdb 86396	2.47034	1.29273	0.96338	0.2575	92.61	-0.2572	0.084	0.3412	1360.1478	0.229703	-352.37001	-352.360547	-352.359603	-352.404403	37.518	
C	-0.1284176686	 1.5585143433	 0.0428788653	-0.406753
C	 0.060818313	 0.044746439	-0.0194995054	 0.039394
C	 1.0571854651	-0.4429047629	-1.0836454585	-0.214448
C	 1.3231009203	-1.9145335581	-0.712117067	-0.037517
C	 2.5985797147	-2.487935497	-1.3278042988	-0.414224
C	 1.2454340118	-1.9182937347	 0.8347399549	 0.375794
C	 0.9272216925	-3.1913417876	 1.5764712405	-0.312009
C	 2.294243491	-2.5668265277	 1.7048419365	-0.314589
C	 0.6256989517	-0.5823130266	 1.2713624861	-0.292134
H	 0.8241531912	 2.0632650252	 0.2435689631	 0.110323
H	-0.5212590388	 1.9518600188	-0.9009810817	 0.109486
H	-0.8278619835	 1.8416397561	 0.8369987473	 0.110103
H	-0.9117647358	-0.4220418707	-0.2316855452	 0.068823
H	 0.6891743584	-0.3251083178	-2.1082636351	 0.087048
H	 1.9889128521	 0.1359988713	-1.0040190981	 0.087809
H	 0.4746323474	-2.505895612	-1.0852728936	 0.069365
H	 3.4834122403	-1.9335777994	-0.9967948784	 0.114556
H	 2.7438760366	-3.5409870906	-1.0625700356	 0.111111
H	 2.5570899098	-2.4311926844	-2.420881167	 0.108797
H	 0.2525668432	-3.1399013544	 2.4255817993	 0.103691
H	 0.8431314284	-4.108296385	 0.9994919524	 0.103137
H	 3.131736774	-3.071226112	 1.2359346719	 0.107288
H	 2.5443608485	-2.0724618477	 2.6387517935	 0.102864
H	 1.4012871793	 0.0794257687	 1.6808602373	 0.091327
H	-0.1345222528	-0.7007704838	 2.0506100565	 0.09076
30.1816	131.6715	228.819	239.7978	253.6561	267.3907	295.348	356.8491	396.3361	421.0989	470.6529	497.7749	534.0613	685.949	781.8929	840.1658	854.1842	887.1395	899.8671	917.6709	939.8266	943.6101	964.9262	985.3767	1007.2341	1052.814	1065.6951	1080.1534	1091.0584	1126.4027	1142.6424	1176.4551	1189.3631	1192.7062	1247.2357	1265.8093	1282.3577	1294.4494	1329.833	1351.0681	1358.3677	1377.6646	1386.6338	1409.3143	1411.4604	1467.2	1484.7918	1494.656	1496.1466	1497.296	1500.4213	1502.9169	1510.3534	2991.3362	2995.5394	3006.8028	3014.2601	3023.4931	3026.5719	3064.9336	3072.6056	3089.6125	3090.5442	3093.1996	3098.1681	3111.9117	3126.6636	3191.6848	3213.6799
CC1CC(C)C2(CC2)C1	C[C@H]1C[C@@H](C)C2(CC2)C1	
InChI=1S/C9H16/c1-7-5-8(2)9(6-7)3-4-9/h7-8H,3-6H2,1-2H3	InChI=1S/C9H16/c1-7-5-8(2)9(6-7)3-4-9/h7-8H,3-6H2,1-2H3/t7-,8+/m0/s1
