23
gdb 114234	3.00149	0.97252	0.85409	1.8277	86.26	-0.2529	0.0777	0.3306	1487.4296	0.203965	-388.275942	-388.266086	-388.265142	-388.311089	37.038	
C	 0.111652568	 1.2202630758	-0.5926198437	-0.381112
C	-0.1487684647	-0.2500568272	-0.2537355506	-0.176515
C	-1.557402615	-0.5092079799	 0.2805372347	 0.032416
C	-2.691104625	-0.4560936257	-0.7978993293	-0.334105
C	-2.7407207834	-1.9855293936	-0.7462082074	 0.463178
C	-1.8882695109	-2.0168612603	 0.5237867259	-0.346715
O	-3.9069240054	-2.7663417788	-0.9463534192	-0.298054
C	-2.7991788333	-2.9556347384	-1.8453240312	-0.024483
C	-3.0185295078	-2.5655540002	-3.2833297771	-0.415378
H	 1.1252022816	 1.3667358562	-0.9786051318	 0.112404
H	-0.5885256753	 1.5858024547	-1.3514295346	 0.117472
H	-0.0030348491	 1.8542464197	 0.29367498	 0.114985
H	 0.0200678127	-0.8709141017	-1.144525889	 0.092546
H	 0.5803794357	-0.5884608462	 0.494073169	 0.095477
H	-1.7420838561	 0.1315410614	 1.1477043964	 0.068054
H	-3.6175396582	-0.008662908	-0.427267493	 0.111049
H	-2.4397173847	 0.0057121354	-1.7573350318	 0.100045
H	-1.0427202189	-2.7110999828	 0.5441579051	 0.098472
H	-2.501577638	-2.1814314849	 1.4144285939	 0.110269
H	-2.2788074479	-3.9046776108	-1.6958927645	 0.085267
H	-3.5159372543	-1.5949808442	-3.354700862	 0.127272
H	-2.0630265352	-2.5104922922	-3.8169599447	 0.118395
H	-3.6435711348	-3.3071430881	-3.7918883549	 0.12906
37.6387	107.9629	155.2493	180.765	204.6226	223.5502	260.647	327.3917	358.0142	420.6375	457.1157	473.8978	569.1648	756.9626	770.9215	805.8219	827.7549	832.7976	920.3067	933.407	967.0957	971.9844	985.8939	1030.1945	1048.2309	1073.4598	1122.7895	1130.9663	1142.8363	1162.7403	1190.8326	1213.093	1227.0137	1261.2161	1271.3616	1297.5289	1341.6912	1352.9524	1387.5122	1406.1075	1412.8914	1463.1825	1469.1423	1483.1414	1488.0873	1490.3172	1500.0768	1505.8549	1521.3283	3009.4034	3031.6824	3034.4214	3038.6228	3048.191	3051.9354	3063.0476	3078.763	3097.3234	3097.6795	3102.2649	3103.5001	3104.9342	3124.3015
CCC1CC2(C1)OC2C	CC[C@H]1C[C@@]2(C1)O[C@H]2C	
InChI=1S/C8H14O/c1-3-7-4-8(5-7)6(2)9-8/h6-7H,3-5H2,1-2H3	InChI=1S/C8H14O/c1-3-7-4-8(5-7)6(2)9-8/h6-7H,3-5H2,1-2H3/t6-,7-,8-/m0/s1
