17
gdb 103577	2.47142	1.24586	1.14662	2.6071	64.57	-0.2485	-0.0314	0.2171	1138.7869	0.132774	-496.090406	-496.080964	-496.08002	-496.124504	34.773	
O	-0.0221824012	 1.2962426247	-0.3378929427	-0.438037
C	-0.0617529026	-0.126427406	-0.2567876004	-0.132114
C	-1.4891945952	-0.4822160336	 0.132301496	 0.363857
O	-1.8554699858	 0.1693555136	 1.3181740486	-0.490457
C	-2.5045417681	-0.3802618162	-1.0702399323	-0.406863
C	-2.3106723841	-1.8860843163	-1.2301337413	 0.348897
O	-2.3022794532	-2.6562357869	-2.1513985274	-0.312946
C	-1.7416267157	-2.0242246221	 0.1806545082	-0.000842
O	-0.6832285714	-2.917621412	 0.3730010962	-0.434149
H	 0.8962168501	 1.579541045	-0.3379218007	 0.298314
H	 0.2115811412	-0.5916143922	-1.2149156509	 0.098446
H	 0.6192997739	-0.5069738785	 0.5143286731	 0.118947
H	-1.4982477608	 1.064946686	 1.2470284885	 0.288466
H	-3.5035058196	-0.1230873639	-0.7067481232	 0.140303
H	-2.2454130441	 0.2485718541	-1.9231509007	 0.139771
H	-2.545236758	-2.1902506842	 0.914303707	 0.119486
H	-0.6253500653	-3.4543066916	-0.4283457482	 0.298921
79.1247	114.4002	159.6587	188.5644	250.3689	277.0541	298.343	316.6123	373.3293	383.3898	462.7807	487.4266	559.7991	633.0814	691.7374	762.0882	771.3939	874.1409	905.3364	1000.5531	1038.9502	1063.2976	1093.3204	1117.6913	1156.5011	1181.5716	1195.6078	1231.9751	1252.4871	1295.212	1358.8463	1389.0072	1404.7091	1439.8934	1452.362	1506.6638	1877.5208	2999.1478	3002.2884	3054.3608	3071.8646	3140.3299	3760.6045	3764.8446	3842.9274
OCC1(O)CC(=O)C1O	OC[C@@]1(O)CC(=O)[C@H]1O	
InChI=1S/C5H8O4/c6-2-5(9)1-3(7)4(5)8/h4,6,8-9H,1-2H2	InChI=1S/C5H8O4/c6-2-5(9)1-3(7)4(5)8/h4,6,8-9H,1-2H2/t4-,5+/m1/s1
