19
gdb 39826	2.9406	1.49267	1.4697	2.8038	73.57	-0.2489	0.07	0.3189	1003.7798	0.161001	-422.989218	-422.981932	-422.980988	-423.020743	29.353	
C	-0.0154897973	 1.5356123178	 0.0106242746	-0.291997
O	 1.1618907021	 0.7017154055	-0.0056577388	-0.293318
C	-0.1031248748	 0.0812549884	 0.0032545119	 0.506439
C	-0.5132824023	-0.9746461647	 1.0224771784	-0.014667
C	-2.0193757545	-0.8739937263	 1.3116719832	-0.227342
C	-2.8007912615	-1.2398598414	 0.0222695912	-0.183455
C	-2.0448060565	-0.8593436302	-1.2780070566	-0.227342
C	-0.5333357137	-0.9630927297	-1.0195992287	-0.014667
O	-0.2965750023	-1.9922409677	-0.0065776014	-0.301886
H	-0.1785873343	 2.0889243782	 0.9347781991	 0.118294
H	-0.1966437292	 2.0993366032	-0.9038226031	 0.118295
H	 0.1197749193	-1.1234070699	 1.9005632245	 0.091798
H	-2.304523374	-1.5545501853	 2.1201025515	 0.105572
H	-2.251016133	 0.1414818309	 1.6549320378	 0.100203
H	-2.9383177837	-2.3231487322	 0.0174915959	 0.121412
H	-3.7996402331	-0.7948693471	 0.0345957251	 0.09509
H	-2.3458504049	-1.5307409742	-2.088330449	 0.105572
H	-2.2830289393	 0.1599250996	-1.6051408317	 0.100203
H	 0.0823430532	-1.101837825	-1.9115721739	 0.091798
125.0622	203.6694	210.9044	285.2573	373.0409	410.6697	445.76	566.3543	596.6084	668.0561	782.1241	832.9687	852.5836	859.068	879.6531	913.6191	917.4444	952.9797	965.3999	1006.4172	1059.8198	1059.9851	1106.8571	1119.6802	1122.3039	1159.9638	1186.1322	1196.9747	1228.6334	1267.3108	1302.8071	1307.9967	1312.0724	1341.4243	1366.6282	1374.802	1464.7391	1481.2686	1487.7666	1500.7933	1552.6426	3034.4077	3034.6807	3063.751	3074.4241	3076.0789	3080.5587	3089.9285	3092.4045	3111.4152	3165.269
C1OC11C2CCCC1O2	C1O[C@]21[C@H]1CCC[C@@H]2O1	
InChI=1S/C7H10O2/c1-2-5-7(4-8-7)6(3-1)9-5/h5-6H,1-4H2	InChI=1S/C7H10O2/c1-2-5-7(4-8-7)6(3-1)9-5/h5-6H,1-4H2/t5-,6+,7-
