16
gdb 73328	3.0817	2.03751	1.45663	0.5661	67.35	-0.2445	0.0516	0.2961	875.2155	0.124899	-437.749444	-437.742981	-437.742037	-437.779805	27.153	
O	 0.2324772179	 1.4295974933	 0.1806162499	-0.472905
C	 0.0265786588	 0.0668376458	 0.0452830464	 0.321204
C	 0.8453073825	-0.7634081656	 1.0965680802	-0.140184
O	 0.5000336185	-2.1497298796	 0.7958161991	-0.34139
C	-0.3735048501	-1.8944159709	-0.274073243	 0.408086
C	-1.3127326813	-2.4262116141	-1.3582057245	-0.247595
N	-1.3805324736	-0.892905634	-1.5655290733	-0.194638
C	-1.3087568492	-0.6972877803	-0.0299627559	-0.140391
C	 0.1285250333	-0.7955791603	-1.2269247491	-0.140393
H	-0.2921286558	 1.8845527845	-0.4867513424	 0.29494
H	 1.9237624259	-0.6181566603	 0.9804598541	 0.121552
H	 0.5514923425	-0.5243102675	 2.1232857649	 0.121552
H	-0.8777565859	-2.9617647935	-2.2061569258	 0.117212
H	-2.2648177784	-2.8669076242	-1.0510192321	 0.117212
H	-2.2062701097	-0.6626879297	 0.5865385777	 0.087869
H	 0.8954558745	-0.8748035536	-1.9965623562	 0.087869
257.4939	283.4162	291.5435	340.5292	447.7449	452.6082	503.5354	618.279	693.8399	710.3079	753.1204	820.338	828.8818	874.2768	880.9715	935.7451	943.1576	989.031	1023.8827	1032.214	1075.2756	1080.393	1095.7019	1125.7954	1166.9809	1169.8515	1196.0863	1213.5386	1244.6871	1271.0126	1323.649	1358.6635	1393.1402	1509.2295	1518.4277	3048.8461	3056.516	3101.1733	3124.1896	3124.8767	3129.3688	3815.9974
OC12COC34CN(C13)C24	O[C@@]12CO[C@@]34CN([C@H]13)[C@@H]24	
InChI=1S/C6H7NO2/c8-5-2-9-6-1-7(3(5)6)4(5)6/h3-4,8H,1-2H2	InChI=1S/C6H7NO2/c8-5-2-9-6-1-7(3(5)6)4(5)6/h3-4,8H,1-2H2/t3-,4+,5+,6+
