19
gdb 73703	2.67329	2.00557	1.35884	1.8766	74.54	-0.2329	0.0723	0.3052	971.7686	0.160168	-422.96783	-422.960576	-422.959632	-422.999012	29.857	
C	 0.0189456293	 1.5244153387	-0.1104438469	-0.466758
C	-0.0167795217	 0.015340944	-0.0127264954	 0.434592
O	 0.3117241163	-0.512833958	-1.2753464494	-0.313847
C	-0.1656002694	-1.8307407016	-1.5040133176	-0.0746
C	 0.079881947	-2.7335821844	-0.2952760924	-0.265745
C	-0.2369309613	-1.9342628814	 0.9638517492	-0.015351
C	 0.6089791622	-0.6668825898	 1.2503839842	-0.006751
O	-0.5081350949	-0.1293519785	 2.0521227577	-0.309663
C	-1.1480412878	-0.6737677736	 0.8432077313	-0.042596
H	 0.9991084842	 1.8473706208	-0.4744452449	 0.123636
H	-0.7313392966	 1.8725257553	-0.8268069336	 0.118994
H	-0.1724850202	 1.9731509219	 0.8640454145	 0.140122
H	-1.2467385507	-1.7950758736	-1.7139617964	 0.094787
H	 0.3377393271	-2.1905175724	-2.4052359353	 0.109673
H	-0.5528802072	-3.6250391763	-0.3668887591	 0.105524
H	 1.120767451	-3.0776533391	-0.2633182583	 0.109618
H	-0.434765809	-2.5271375339	 1.8586973076	 0.082769
H	 1.6161329514	-0.5865343888	 1.6630468568	 0.086962
H	-2.2346598597	-0.5943786693	 0.7791960778	 0.088633
188.0252	211.3423	224.4362	325.687	335.6178	432.4466	441.8882	502.4666	579.6204	655.9763	696.2868	767.2439	812.8176	837.2452	870.6857	884.6523	915.4814	933.9283	955.7107	1020.758	1062.5043	1091.9537	1109.1975	1121.2213	1143.5011	1150.7451	1183.508	1195.0972	1220.2784	1259.2057	1262.1876	1270.0401	1325.4121	1349.5983	1376.6547	1401.787	1415.6576	1483.7918	1490.6671	1492.2411	1509.5837	2974.5937	3031.5937	3048.4004	3073.7501	3092.2432	3097.7681	3101.1265	3108.9827	3111.7815	3158.3042
CC12OCCC3C1OC23	C[C@@]12OCC[C@H]3[C@@H]1O[C@@H]23	
InChI=1S/C7H10O2/c1-7-5-4(2-3-8-7)6(7)9-5/h4-6H,2-3H2,1H3	InChI=1S/C7H10O2/c1-7-5-4(2-3-8-7)6(7)9-5/h4-6H,2-3H2,1H3/t4-,5-,6+,7+
