14
gdb 128598	2.75479	1.5669	1.00522	4.0993	71.28	-0.2501	-0.0797	0.1704	1099.3829	0.099763	-469.948783	-469.940806	-469.939861	-469.981619	28.877	
C	 0.0621813178	 1.3613341984	-0.0687544526	-0.256408
O	-0.0333564585	-0.0611043643	-0.1016421924	-0.21446
C	-1.2350096002	-0.6081547661	 0.0097201084	 0.292898
C	-2.4127558598	 0.0473927696	 0.1549197661	-0.135029
N	-3.6115172248	-0.6417055504	 0.2616752307	-0.092999
N	-3.722808683	-1.8592972478	 0.2367052114	 0.022544
O	-2.4736184684	-2.6550943075	 0.0796906832	-0.301066
C	-1.2406608143	-2.081665056	-0.0342546413	 0.383271
N	-0.1745882671	-2.7537586259	-0.1681189401	-0.513127
H	 1.1220067367	 1.5895205067	-0.1746397614	 0.159539
H	-0.4990598026	 1.8089335042	-0.8965532074	 0.143477
H	-0.3095859448	 1.7550456441	 0.8838039278	 0.143477
H	-2.5097556896	 1.1214775169	 0.1977340565	 0.133849
H	-0.3868535616	-3.7529687519	-0.1757558089	 0.234034
84.1244	132.0696	184.6582	226.8519	257.0888	315.7567	439.231	453.2998	505.698	565.1495	621.3283	655.6253	775.2167	802.835	858.2771	880.6746	910.8517	1010.4732	1077.1486	1136.9721	1174.2562	1218.383	1269.0645	1338.9286	1424.3455	1480.7186	1492.408	1499.7497	1596.2049	1666.9036	1727.0152	3025.9746	3096.0866	3162.2516	3245.4604	3479.9569
COC1=CN=NOC1=N	COC1=C(O[N]N=C1)[NH]	
InChI=1S/C4H5N3O2/c1-8-3-2-6-7-9-4(3)5/h2,5H,1H3	InChI=1S/C4H5N3O2/c1-8-3-2-6-7-9-4(3)5/h2,5H,1H3
