18
gdb 17763	5.31373	1.24256	1.19995	0.7147	77.85	-0.2574	0.0585	0.316	1059.5011	0.154311	-310.580761	-310.573481	-310.572537	-310.612576	28.577	
C	 0.0413625146	-1.1953370163	 0.0146804141	-0.459919
C	-0.0147608311	-0.0006705778	 0.1364519576	 0.312204
C	-0.0465166754	 1.4516136233	 0.2780331796	-0.410939
C	 1.342002649	 2.0770762483	 0.0959740039	 0.074101
C	 2.0028290081	 2.2214979668	-1.3119842538	-0.037699
C	 1.0348158825	 3.4066662501	-1.6034224313	-0.224868
C	 1.5204594975	 3.6119412213	-0.1370706363	-0.065595
C	 2.9483558414	 3.2709306566	-0.6562662677	-0.219075
H	 0.0783545203	-2.2509477937	-0.0909243566	 0.193605
H	-0.7719357317	 1.8668501394	-0.4290842689	 0.12963
H	-0.4196191396	 1.7094075389	 1.2784624904	 0.129065
H	 2.0173859126	 1.6629051224	 0.8525311763	 0.072855
H	 2.2827063241	 1.4134944472	-1.9884564043	 0.076016
H	 1.3848700422	 4.1435125838	-2.3313348856	 0.091084
H	-0.0193323431	 3.1793704999	-1.7692754331	 0.091996
H	 1.2431709055	 4.4175620875	 0.5451131101	 0.067834
H	 3.6643642387	 2.8972448778	 0.0809150028	 0.089983
H	 3.4059943243	 4.0000851745	-1.3295620072	 0.089719
60.8883	118.2059	292.2332	311.0658	348.3326	445.6481	567.4776	590.8287	615.3644	634.9487	759.966	786.8473	825.5392	891.314	901.6499	904.2804	957.4258	972.5694	1008.5169	1026.296	1031.6323	1085.3553	1091.2876	1112.6084	1144.0826	1151.7894	1188.9131	1211.9184	1221.6415	1243.7023	1254.5906	1276.0229	1321.9065	1419.5861	1469.3818	1505.59	1544.0732	2237.1496	3020.0532	3041.8603	3050.1868	3062.0278	3072.6078	3095.8308	3111.249	3116.6442	3125.3959	3508.1287
C#CCC1C2CC1C2	C#CC[C@H]1[C@H]2C[C@@H]1C2	
InChI=1S/C8H10/c1-2-3-8-6-4-7(8)5-6/h1,6-8H,3-5H2	InChI=1S/C8H10/c1-2-3-8-6-4-7(8)5-6/h1,6-8H,3-5H2/t6-,7+,8-
