17
gdb 61339	3.40206	0.83721	0.73175	2.4734	82.22	-0.2602	-0.063	0.1972	1530.9617	0.131281	-384.638646	-384.628494	-384.62755	-384.674461	36.218	
C	-0.1685579204	 1.6579674117	 0.0659551766	-0.396518
C	-0.0363539749	 0.1216736632	 0.0314803828	-0.162464
C	 0.806779994	-0.4114804148	 1.2087641743	-0.3084
C	 2.2896651909	-0.1023039275	 1.085132125	 0.226747
O	 2.7911441064	 0.4016944478	 0.102985613	-0.293
C	 3.0921089177	-0.4803827438	 2.2374664286	 0.244605
C	 3.7359451333	-0.7988045688	 3.2033665738	-0.376716
C	-1.3493108946	-0.5207753473	 0.0263865769	 0.292523
C	-2.4327185087	-1.0416814416	 0.0451662977	-0.439871
H	 0.8194495474	 2.1205323363	 0.0188731763	 0.139312
H	-0.7579300597	 2.0096089019	-0.7843191412	 0.128756
H	-0.6724863299	 1.9809970925	 0.9823325629	 0.120328
H	 0.4906707055	-0.1490066133	-0.8915680682	 0.128033
H	 0.4409236204	-0.0192799962	 2.1657957148	 0.138458
H	 0.7128481193	-1.5023162836	 1.2884785259	 0.148311
H	 4.3209255283	-1.0735985504	 4.0475848913	 0.216476
H	-3.3888996849	-1.5033599962	 0.0441324095	 0.193421
40.6059	76.7691	101.9684	176.5235	200.4924	226.0412	239.6377	277.6343	335.928	437.9537	516.2798	535.596	580.1347	616.6076	628.0541	640.3796	646.5752	707.3873	810.3013	861.6233	895.6438	945.5225	1050.3592	1084.99	1117.4527	1134.7606	1233.8169	1290.7002	1336.5447	1375.0224	1406.2372	1441.5555	1496.2262	1502.5571	1765.4292	2211.8435	2235.668	3032.6469	3038.4769	3048.1017	3068.9556	3119.7275	3139.0077	3493.709	3504.3463
CC(CC(=O)C#C)C#C	C[C@@H](CC(=O)C#C)C#C	
InChI=1S/C8H8O/c1-4-7(3)6-8(9)5-2/h1-2,7H,6H2,3H3	InChI=1S/C8H8O/c1-4-7(3)6-8(9)5-2/h1-2,7H,6H2,3H3/t7-/m1/s1
