21
gdb 78521	2.32454	1.81966	1.18355	1.3175	84.18	-0.2078	0.0824	0.2903	1123.1904	0.180967	-383.164517	-383.155534	-383.154589	-383.197423	34.968	
C	-0.638387986	 1.4261838734	-0.4301639518	-0.328948
N	-0.4339073918	 0.0146618602	-0.1275021468	-0.115259
C	-1.2450444203	-0.5897322891	 0.9690110317	-0.132871
C	-0.1463424782	-1.6784833926	 1.2186497318	 0.355899
C	 0.0243385354	-3.0000329941	 0.5372709227	-0.529745
N	-0.0456622275	-1.4600118582	 2.6957634584	-0.40919
C	-0.3358086314	-0.0811929516	 2.167543204	 0.336446
C	-0.4563092248	 1.0769633278	 3.1172423493	-0.531693
C	 0.5813767629	-0.3355874418	 0.9082544421	-0.100867
H	 0.1920650534	 1.7812474934	-1.0499591609	 0.119669
H	-1.5571755212	 1.5343413988	-1.0166991608	 0.118508
H	-0.7155843496	 2.0898814247	 0.4449192202	 0.097991
H	-2.3316490246	-0.7072030829	 0.921989006	 0.069602
H	-0.0241134979	-2.8602524068	-0.5466475965	 0.140673
H	 0.9901947258	-3.4460513281	 0.7944166909	 0.129454
H	-0.7633534958	-3.7030942558	 0.8301096186	 0.116696
H	-0.8770723976	-1.8357343161	 3.1632192948	 0.196322
H	 0.4443200066	 1.1436409033	 3.7365928503	 0.13531
H	-0.590374262	 2.0277875253	 2.5972787306	 0.130719
H	-1.3124918964	 0.9360752948	 3.7876415599	 0.120544
H	 1.6523883611	-0.1581372144	 0.7957216255	 0.080738
150.4997	181.2773	193.7086	202.2735	223.3864	239.9174	257.8681	325.2055	392.6458	508.1418	557.2223	587.462	671.9331	731.3596	752.793	799.9104	825.53	843.0776	903.7878	909.44	1010.8381	1061.7784	1080.2986	1086.5081	1092.7036	1105.9912	1123.4611	1147.44	1164.2531	1192.5322	1208.4624	1231.5015	1274.543	1285.6326	1314.5221	1387.6359	1403.8336	1429.7113	1448.0539	1479.1708	1482.5773	1485.1961	1491.541	1496.3643	1498.0222	2984.6438	3031.1703	3033.3875	3060.5738	3074.0903	3092.9407	3093.2974	3098.3678	3105.1385	3118.4725	3126.0622	3376.9867
CN1C2C3(C)NC2(C)C13	CN1[C@H]2[C@]3(C)N[C@@]2(C)[C@H]13	
InChI=1S/C7H12N2/c1-6-4-7(2,8-6)5(6)9(4)3/h4-5,8H,1-3H3	InChI=1S/C7H12N2/c1-6-4-7(2,8-6)5(6)9(4)3/h4-5,8H,1-3H3/t4-,5+,6-,7+
