21
gdb 37280	4.11101	1.50512	1.44485	0.2045	84.62	-0.2453	0.0965	0.3418	995.1314	0.18743	-349.931987	-349.925693	-349.924748	-349.962134	28.135	
C	-0.0316276371	 1.5157072383	-0.0047754487	-0.30785
C	 1.3021781333	 0.8080935594	-0.0396535146	-0.04761
C	 0.0144006572	 0.0070738094	-0.0583731355	-0.04761
C	 0.1555854595	-0.6965572769	-1.4106075913	-0.034491
C	 1.6607346327	-1.1720833318	-1.4156350408	 0.003467
C	 1.9555634023	-1.6125667575	-2.8487847737	-0.240168
C	 1.2436025333	-0.4503036933	-3.6047806902	-0.239918
C	 0.7224664538	 0.3596324186	-2.4116055575	-0.014906
C	 1.8991949755	 0.3879947993	-1.3852569563	-0.034491
H	-0.3103891213	 1.9414445622	 0.9546694716	 0.102759
H	-0.3810946657	 2.097277233	-0.849666319	 0.109962
H	 1.9486471029	 0.8451853581	 0.8298032625	 0.081333
H	-0.3227259272	-0.5676598361	 0.7967757263	 0.081334
H	-0.6439928007	-1.373696205	-1.7205715018	 0.051982
H	 2.0339321355	-1.7912049658	-0.5965401781	 0.052435
H	 3.028356012	-1.6615843556	-3.059832777	 0.094274
H	 1.5299616891	-2.5936243894	-3.0816229319	 0.094274
H	 1.929516905	 0.133030362	-4.2271186787	 0.093761
H	 0.4304123667	-0.7994372317	-4.2489020773	 0.093761
H	 0.1643419955	 1.2626784053	-2.6583116446	 0.055718
H	 2.8662729277	 0.8097389074	-1.6695312634	 0.051983
249.1137	294.3068	297.515	368.0278	495.3318	583.7886	655.1372	677.8352	771.5312	803.948	810.5698	839.058	881.0248	890.5055	912.8129	914.6911	934.5383	952.5724	970.9645	1013.6547	1014.6599	1029.3605	1029.5686	1048.6404	1079.0958	1081.8016	1095.8774	1108.5106	1114.9323	1191.6056	1193.3455	1214.5164	1224.4304	1253.7284	1262.5811	1264.002	1265.0997	1294.1639	1314.5365	1325.755	1348.5656	1392.2966	1491.7961	1495.9727	1512.067	3041.0163	3050.6747	3074.115	3081.0871	3081.4481	3092.1451	3094.4351	3109.0778	3131.7619	3166.2414	3175.224	3211.067
C1C2C1C1C3CCC1C23	C1[C@H]2[C@@H]1[C@@H]1[C@H]3CC[C@@H]1[C@@H]23	
InChI=1S/C9H12/c1-2-5-8-4(1)9(5)7-3-6(7)8/h4-9H,1-3H2	InChI=1S/C9H12/c1-2-5-8-4(1)9(5)7-3-6(7)8/h4-9H,1-3H2/t4-,5+,6-,7+,8-,9+
