19
gdb 79528	3.09844	1.76446	1.66829	2.1051	73.01	-0.2478	0.0858	0.3336	915.3912	0.162111	-423.027937	-423.021238	-423.020294	-423.058647	28.101	
C	-0.1118887156	 1.5558686909	 0.039398304	-0.42107
C	 0.0216861902	 0.0374283938	 0.0040329896	-0.000024
C	 0.977928403	-0.5420168903	-1.0320422415	-0.107017
C	 2.4170017297	-0.2898111745	-0.4416855693	 0.091672
C	 2.7489211773	-1.781851882	-0.6706261763	-0.242709
C	 1.2260633929	-2.0201181117	-0.5634192301	 0.085572
O	 0.8369120008	-1.981962797	 0.8240321246	-0.277225
C	 0.8431435382	-0.5978763383	 1.1429764013	 0.172649
O	 2.150331885	-0.070240757	 0.9565279118	-0.277956
H	 0.8642185769	 2.0377197134	 0.1376115708	 0.132355
H	-0.5870915977	 1.927452094	-0.874134387	 0.114933
H	-0.7297746893	 1.8747452094	 0.885662144	 0.116925
H	-0.9599949681	-0.4435261719	-0.0479279219	 0.082937
H	 0.8213191566	-0.359084381	-2.0922128567	 0.076862
H	 3.0766122296	 0.4970402734	-0.8086185131	 0.078114
H	 3.1190649118	-1.9648150239	-1.6844355128	 0.096896
H	 3.3855142494	-2.2715691653	 0.0683306577	 0.110757
H	 0.7512453325	-2.8759477052	-1.0446084039	 0.077517
H	 0.5398094067	-0.4600376769	 2.1795446689	 0.088812
188.9961	207.143	252.9229	379.8597	390.6155	511.4464	578.5944	625.2999	660.0355	757.3868	795.0342	852.6107	856.9328	880.996	920.081	926.7096	938.2066	943.7581	977.7485	991.8483	1032.6718	1072.4572	1073.4437	1108.8084	1120.3221	1140.2131	1148.1284	1204.3407	1230.1619	1257.066	1263.9993	1286.8681	1293.1292	1300.7125	1348.149	1367.8814	1384.7008	1411.3055	1463.7276	1495.8416	1502.8292	3037.043	3055.4809	3065.8562	3097.291	3103.337	3105.9652	3122.3818	3128.3387	3145.9676	3153.6919
CC1C2C3CC2OC1O3	C[C@H]1[C@H]2[C@@H]3C[C@H]2O[C@H]1O3	
InChI=1S/C7H10O2/c1-3-6-4-2-5(6)9-7(3)8-4/h3-7H,2H2,1H3	InChI=1S/C7H10O2/c1-3-6-4-2-5(6)9-7(3)8-4/h3-7H,2H2,1H3/t3-,4-,5+,6-,7+/m0/s1
