14
gdb 127956	3.18005	1.36572	0.96107	1.1484	71.26	-0.2378	-0.0842	0.1536	1148.265	0.102117	-466.171379	-466.163521	-466.162577	-466.204403	28.173	
C	-0.0308645735	 1.4302908149	 0.1527205767	-0.33449
N	 0.1137250904	-0.0106771337	 0.0559101644	-0.346355
C	 0.6284811836	-0.5102700682	-0.9869143242	 0.47981
N	 0.7403206139	-1.9259470268	-1.0168894705	-0.232181
N	 1.2391579384	-2.6478082936	-1.9908408816	-0.014153
N	 1.6782435179	-2.0532997934	-3.0333046055	-0.312596
C	 1.5837178917	-0.6534623984	-3.0394574978	 0.485408
O	 2.0611337363	-0.1155368678	-4.1569276187	-0.371381
N	 1.109120677	 0.1170140854	-2.125656267	-0.351703
H	 0.5061554835	 1.7856822434	 1.0399713291	 0.124322
H	 0.3354034118	 1.9734520978	-0.7247651298	 0.137639
H	-1.0885037458	 1.6750585846	 0.3057471666	 0.124319
H	 0.4067238103	-2.4442204029	-0.2147755671	 0.291647
H	 2.3676383146	-0.8473799912	-4.7122781347	 0.319714
75.2036	101.9756	190.6733	206.7632	244.0336	424.1243	427.0015	497.9339	574.5085	578.5591	624.5203	713.1421	728.7816	767.3814	810.8959	966.8139	1017.0465	1067.957	1134.8104	1155.1227	1219.8278	1220.6496	1279.6162	1395.8325	1420.0817	1438.1656	1495.6258	1495.9979	1525.7671	1703.4758	1772.7611	3017.5171	3071.7068	3095.3313	3602.3967	3762.3832
CN=C1NN=NC(O)=N1	C[N]c1[nH]nnc(O)n1	
InChI=1S/C3H5N5O/c1-4-2-5-3(9)7-8-6-2/h1H3,(H2,4,5,6,7,9)	InChI=1S/C3H10N5O/c1-4-2-5-3(9)7-8-6-2/h2-3,5-9H,1H3
