19
gdb 52522	3.36617	0.92921	0.77955	3.3287	88.03	-0.2496	-0.0457	0.2039	1514.1515	0.156262	-385.879472	-385.869196	-385.868251	-385.916847	35.973	
C	-0.0862608299	 1.4431940261	-0.3272280711	-0.505306
C	 0.0145953643	 0.0195399479	-0.0565259223	 0.137098
C	 0.0856701785	-1.1635431966	 0.1733253846	-0.014348
C	 0.131990777	-2.5832381351	 0.4636253324	 0.165069
O	-0.8320106734	-3.1521620954	 0.9459206727	-0.327124
C	 1.4092612294	-3.3036376609	 0.1439696	 0.238059
C	 2.5564004612	-2.5153242926	-0.4541375568	-0.486472
C	 1.7223843074	-4.459510746	 1.0896732127	-0.276282
C	 1.2123260924	-4.756265927	-0.2797198693	-0.276283
H	 0.8346558405	 1.8370184266	-0.7694551609	 0.155905
H	-0.9105320991	 1.6484824045	-1.0189957458	 0.163199
H	-0.284996557	 1.9993855775	 0.5954377566	 0.163218
H	 2.8819109313	-1.7102805696	 0.2123885592	 0.124976
H	 3.41457263	-3.1701519862	-0.6318422449	 0.112309
H	 2.277387639	-2.0620740213	-1.4107098082	 0.124972
H	 2.7697918762	-4.6343763719	 1.309867586	 0.113137
H	 1.0366253741	-4.5981528289	 1.9170992433	 0.137368
H	 0.1860701878	-5.093007415	-0.3664575123	 0.13737
H	 1.90009679	-5.1403703961	-1.0250796558	 0.113136
16.3212	36.4053	82.1186	146.3355	204.5168	252.0581	284.3094	302.7088	347.4076	351.3163	398.1734	417.8202	553.5396	650.043	758.981	793.8645	819.473	837.1343	958.4265	958.4631	964.6428	1044.272	1054.8045	1058.5288	1076.0817	1088.6609	1120.1615	1192.334	1204.7938	1317.3977	1334.5309	1409.7395	1421.839	1450.1883	1470.4367	1473.8076	1481.7222	1489.1897	1499.2255	1727.5662	2336.6221	3030.8685	3034.6641	3094.1642	3097.6316	3100.2004	3106.3437	3136.5808	3138.5506	3226.3445	3239.8417
CC#CC(=O)C1(C)CC1	CC#CC(=O)C1(C)CC1	
InChI=1S/C8H10O/c1-3-4-7(9)8(2)5-6-8/h5-6H2,1-2H3	InChI=1S/C8H10O/c1-3-4-7(9)8(2)5-6-8/h5-6H2,1-2H3
