19
gdb 82809	2.94208	1.65212	1.6346	1.7269	73.46	-0.2318	0.0745	0.3063	933.3284	0.161948	-422.979505	-422.972611	-422.971667	-423.010374	29.196	
O	 0.1735272921	 1.3562992668	 0.0144326107	-0.426269
C	 0.0359813671	-0.0283747779	-0.0349956649	 0.085492
C	-0.4337765075	-0.7603830983	 1.1951496404	 0.010453
O	-0.9094236661	 0.0588053688	 2.2418428932	-0.290506
C	-2.3165942089	 0.3571355851	 2.1879798523	 0.126464
C	-2.6643719007	 1.1714396564	 0.9150785191	-0.25669
C	-2.6933512775	-0.207588871	 0.1930088838	-0.048139
C	-3.1438725035	-0.8026029072	 1.5699504146	-0.23834
C	-1.297703036	-0.7738675264	-0.0477589329	-0.101777
H	 0.150697396	 1.5925613524	 0.9522073176	 0.29296
H	 0.8217552061	-0.5011712668	-0.6203470215	 0.098693
H	 0.0851646763	-1.640580814	 1.5633293366	 0.093386
H	-2.5671995104	 0.7458071331	 3.175937926	 0.07657
H	-3.6749599181	 1.5824776009	 0.9899537657	 0.096876
H	-1.9739629667	 1.9356064668	 0.5692703164	 0.121573
H	-3.3387858703	-0.3200158108	-0.6794851828	 0.067406
H	-2.8600717866	-1.8296278073	 1.8111726667	 0.099847
H	-4.2094483079	-0.6529835686	 1.7601325528	 0.101984
H	-1.2852141474	-1.6924987019	-0.629105854	 0.090017
160.9675	209.2187	289.0765	407.3009	436.5584	459.7424	486.6067	578.2861	636.9207	687.0163	730.5773	769.0994	804.4055	832.5181	866.8777	882.2876	929.9479	935.5711	984.7426	999.9916	1044.1723	1054.2615	1084.2556	1104.7204	1116.649	1124.8959	1139.592	1150.1292	1190.4244	1238.7358	1244.409	1266.2058	1274.2187	1320.5192	1342.1057	1356.9006	1370.1834	1389.8085	1433.9484	1473.2553	1506.1989	3062.3631	3070.7623	3091.8946	3103.9662	3122.9653	3123.9264	3133.8599	3146.9156	3176.5768	3740.459
OC1C2OC3CC(C3)C12	O[C@H]1[C@H]2O[C@H]3C[C@H](C3)[C@@H]12	
InChI=1S/C7H10O2/c8-6-5-3-1-4(2-3)9-7(5)6/h3-8H,1-2H2	InChI=1S/C7H10O2/c8-6-5-3-1-4(2-3)9-7(5)6/h3-8H,1-2H2/t3-,4+,5-,6+,7-/m0/s1
