20
gdb 117969	1.95697	1.18732	0.86252	1.0229	73.02	-0.2445	0.0133	0.2578	1436.7605	0.16874	-477.432022	-477.420991	-477.420047	-477.469476	37.174	
C	-0.8664203918	 1.1936723984	-0.6021868782	-0.227414
O	-1.0167751875	-0.2060893615	-0.6203255892	-0.236174
C	-0.7537386331	-0.8035656327	 0.6277413891	-0.03243
C	-1.0037307373	-2.3105939454	 0.5114983434	-0.133456
N	-0.7712154805	-2.9160522522	 1.8229735148	-0.512412
C	-2.4322708318	-2.5339106769	 0.0119019315	 0.454233
O	-3.4096393256	-2.3848384291	 0.7062872863	-0.384576
O	-2.4723087449	-2.9284005242	-1.2693188243	-0.223706
C	-3.7855419187	-3.1163569818	-1.8145779732	-0.241192
H	-1.0924924107	 1.5599340541	-1.6064261015	 0.127659
H	-1.5547577775	 1.6683275437	 0.1144606979	 0.108562
H	 0.1611469562	 1.4894758459	-0.3384667075	 0.105969
H	 0.2863964969	-0.6386192129	 0.9464041283	 0.101514
H	-1.4152513647	-0.3897304992	 1.4074319253	 0.09719
H	-0.3025146658	-2.7287173946	-0.2145351841	 0.105565
H	-1.5842205506	-2.7246380071	 2.4053370686	 0.241516
H	-0.7276676236	-3.9264977429	 1.7303526981	 0.233668
H	-4.3326003145	-3.8753464729	-1.2496997081	 0.139014
H	-4.3493156796	-2.1807677323	-1.7836940651	 0.142991
H	-3.6361172549	-3.4385891562	-2.8449643723	 0.133478
37.8348	65.4298	95.0551	117.8555	142.6193	170.7844	215.5661	229.1965	275.559	291.551	326.4413	357.7285	451.1922	510.5627	682.798	780.8257	861.2602	915.4029	985.7316	992.2079	1034.1906	1066.7555	1140.0164	1162.6702	1177.0865	1182.0246	1200.2984	1213.3221	1225.3932	1238.6205	1273.7818	1358.5147	1390.7179	1422.7383	1471.9141	1480.3045	1481.5691	1485.9354	1495.3006	1500.9143	1522.5902	1665.8691	1807.9268	2963.5668	2976.0186	3013.2899	3019.4007	3052.7659	3094.6836	3115.6445	3128.166	3160.4401	3479.9554	3560.3813
COCC(N)C(=O)OC	COC[C@@H](N)C(=O)OC	
InChI=1S/C5H11NO3/c1-8-3-4(6)5(7)9-2/h4H,3,6H2,1-2H3	InChI=1S/C5H11NO3/c1-8-3-4(6)5(7)9-2/h4H,3,6H2,1-2H3/t4-/m1/s1
