16
gdb 24652	4.56515	1.22901	1.0085	3.1087	79.62	-0.2392	-0.0253	0.2139	1140.7748	0.127505	-396.956806	-396.949709	-396.948765	-396.988833	26.68	
C	-0.1738341985	 1.2192302975	-0.405221052	-0.235385
C	 1.2433510772	 1.0682575677	 0.0552777029	-0.212531
N	 0.3116260143	-0.0336453868	 0.1529582838	-0.113834
C	-0.1143471131	-0.5288771349	 1.377260431	 0.365548
N	 0.8047448951	-0.706479222	 2.3321328914	-0.307257
C	 0.3759599275	-1.2545568511	 3.4700436987	 0.07423
N	-0.8615358908	-1.6379896805	 3.7749275365	-0.265046
C	-1.768354976	-1.4445809739	 2.8051011772	 0.027137
C	-1.4542257974	-0.8938927563	 1.5774387503	-0.196863
H	-0.8398145951	 1.8188869514	 0.2113460366	 0.129026
H	-0.4134585014	 1.2048243782	-1.4644403523	 0.129205
H	 2.0402510127	 0.9473936987	-0.6722134388	 0.129186
H	 1.5319906306	 1.5542661286	 0.9826836716	 0.139137
H	 1.1305487988	-1.398414642	 4.2407065047	 0.116311
H	-2.7885987109	-1.7471758178	 3.0303432065	 0.115844
H	-2.197586753	-0.7531357369	 0.8022266619	 0.105292
76.8831	131.0394	200.4247	279.4137	388.5782	468.5624	517.9415	580.4486	681.408	758.5969	805.6795	818.1847	864.8095	948.1945	955.7861	988.0456	1002.1957	1022.6437	1040.8718	1090.3068	1124.5416	1133.4786	1167.2127	1170.8375	1199.1253	1225.6281	1259.566	1343.3437	1404.2476	1434.3762	1495.3814	1508.1168	1522.8548	1588.2004	1620.653	3106.554	3120.9596	3154.5491	3157.7747	3193.4445	3205.3711	3212.0749
C1CN1C1=NC=NC=C1	C1CN1c1ncncc1	
InChI=1S/C6H7N3/c1-2-7-5-8-6(1)9-3-4-9/h1-2,5H,3-4H2	InChI=1S/C6H7N3/c1-2-7-5-8-6(1)9-3-4-9/h1-2,5H,3-4H2
