17
gdb 8507	3.72367	2.14581	1.64618	1.2704	68.55	-0.2313	0.072	0.3033	832.3784	0.140851	-363.763988	-363.756666	-363.755722	-363.794965	28.63	
C	 0.0513429769	 1.4069920357	-0.1348188654	-0.531677
C	 0.0073805122	-0.0793006508	-0.015510949	 0.495181
O	 0.5303138622	-0.9173020637	-1.0931992164	-0.381637
C	 0.0689474624	-1.8958353169	-0.1107286528	 0.460566
C	 0.2209853577	-3.3532572176	-0.4014737636	-0.530113
C	 0.5014871724	-1.0258864429	 1.1229842374	-0.176209
N	-0.8448254662	-1.0188468787	 1.7831860473	-0.344921
C	-1.1754534097	-1.0406639762	 0.3207994472	-0.17624
H	 1.0830127553	 1.7554363821	-0.242680737	 0.133066
H	-0.5195800865	 1.7416975671	-1.0062585267	 0.133038
H	-0.3808235065	 1.8561462667	 0.7640611235	 0.144696
H	 1.2756908582	-3.6107173981	-0.5382978269	 0.137633
H	-0.176313408	-3.948603997	 0.4273501874	 0.123624
H	-0.3220770655	-3.6223601684	-1.3125637268	 0.137768
H	 1.4481804382	-1.0114932717	 1.6658548854	 0.08299
H	-1.0371615426	-1.932388844	 2.2021013371	 0.209242
H	-2.1923021805	-1.0434852854	-0.0756234706	 0.082996
197.7333	206.6237	218.1359	220.0028	261.333	354.3858	534.0697	539.1455	595.1864	681.2141	737.4769	757.0246	772.5411	844.7592	853.5928	901.1241	931.015	1007.3132	1046.8741	1075.0799	1101.5495	1110.7891	1149.3723	1166.2785	1168.0225	1218.3633	1270.2878	1286.2982	1286.408	1390.6614	1406.509	1455.7596	1472.526	1476.8102	1488.4952	1492.1461	3036.7271	3041.0702	3102.8655	3108.2527	3109.4042	3111.9362	3112.6318	3123.0374	3405.4393
CC12OC3(C)C1NC23	C[C@@]12O[C@@]3(C)[C@@H]1N[C@@H]23	
InChI=1S/C6H9NO/c1-5-3-6(2,8-5)4(5)7-3/h3-4,7H,1-2H3	InChI=1S/C6H9NO/c1-5-3-6(2,8-5)4(5)7-3/h3-4,7H,1-2H3/t3-,4+,5-,6+
