16
gdb 79429	2.88564	1.57304	1.16086	3.486	70.53	-0.2347	-0.0462	0.1885	1040.4296	0.121515	-437.759046	-437.751233	-437.750289	-437.791627	29.25	
C	-0.4955425632	 1.4339714271	-0.4596937944	-0.336266
N	-0.3218101606	 0.020762175	-0.1456180732	-0.101021
C	-1.1955315541	-0.5497870978	 0.9117832701	-0.12342
C	-0.1281845804	-1.6168380912	 1.283036738	 0.079351
O	-0.1687024016	-1.3751583006	 2.7119995244	-0.327745
C	-0.3299010965	-0.0487416396	 2.1607966136	 0.374361
C	-0.480572055	 1.1034352953	 3.0971159428	 0.014516
O	-0.4752418806	 0.9913284853	 4.2944345651	-0.234267
C	 0.6499358183	-0.3199157076	 0.9251263331	-0.123454
H	 0.3570008694	 1.7752199461	-1.0550276648	 0.131132
H	-1.3972519254	 1.5567844866	-1.067589194	 0.131131
H	-0.5840331311	 2.0941430979	 0.420062102	 0.098782
H	-2.2794241349	-0.6420746083	 0.8326447728	 0.106
H	 0.000933951	-2.6319539776	 0.914702963	 0.116183
H	-0.600158876	 2.0893340671	 2.596327137	 0.088718
H	 1.7243705207	-0.1433456077	 0.8617411446	 0.105998
73.4882	166.3278	190.3459	226.026	240.804	342.8929	391.5759	546.3149	585.6846	707.7773	709.4392	746.8276	806.6374	813.9757	847.8901	904.4323	948.8239	1001.0533	1010.5142	1069.7068	1085.403	1119.9872	1131.0069	1143.5481	1149.2694	1175.1577	1207.9065	1275.6508	1298.844	1331.559	1414.6577	1453.4801	1492.3519	1493.4016	1819.0702	2883.7733	2962.2916	3070.2974	3108.2998	3116.8256	3119.0669	3156.6876
CN1C2C3OC2(C=O)C13	CN1[C@H]2[C@@H]3O[C@@]2(C=O)[C@H]13	
InChI=1S/C6H7NO2/c1-7-4-3-5(7)6(4,2-8)9-3/h2-5H,1H3	InChI=1S/C6H7NO2/c1-7-4-3-5(7)6(4,2-8)9-3/h2-5H,1H3/t3-,4-,5+,6+
