21
gdb 75275	2.51191	1.39351	1.18755	1.4298	84.54	-0.2111	0.027	0.2381	1168.9581	0.181514	-387.097023	-387.087938	-387.086994	-387.130019	35.685	
C	 0.0006766914	 1.5092385141	 0.0565851983	-0.498128
C	 0.0146201525	 0.0132420193	-0.0061695189	 0.335266
C	 0.0258532992	-0.7525260002	-1.1050504317	-0.183619
C	 0.054414168	-2.2329550794	-0.7893673491	-0.286031
C	 0.0031324356	-2.2778783767	 0.7388209414	-0.089164
C	-0.0002588538	-0.8272283136	 1.2290771015	-0.221982
C	-1.196516405	-1.7508291627	 1.4680216	 0.400818
C	-2.5530341499	-1.5460000518	 0.8380978379	-0.461572
O	-1.2592097726	-2.2832838348	 2.7711075985	-0.465861
H	 0.854831211	 1.8876146426	 0.6325412017	 0.125128
H	 0.0411618907	 1.9558651848	-0.9405729553	 0.122091
H	-0.9011217152	 1.8789880859	 0.5609486316	 0.123699
H	-0.0059888787	-0.3741146094	-2.1215362994	 0.083591
H	-0.7832460613	-2.7725820104	-1.2523648995	 0.106535
H	 0.9678165981	-2.7104926796	-1.1688807828	 0.106378
H	 0.5726715294	-3.0318738413	 1.268679158	 0.093906
H	 0.5540100291	-0.5188899216	 2.110476598	 0.078919
H	-2.4797099151	-1.1020567367	-0.155923122	 0.129121
H	-3.0812407066	-2.5019532415	 0.7600320602	 0.123271
H	-3.1641905109	-0.8771453086	 1.4577393465	 0.101174
H	-1.7077943258	-1.6374206383	 3.328640955	 0.276459
134.8994	175.8238	195.1706	205.5616	236.791	269.919	303.2225	360.1104	404.9459	408.5575	469.8571	559.4587	595.3302	690.1914	735.8729	814.251	828.5298	883.1184	929.4869	947.817	963.2808	988.5043	996.6551	1031.8199	1048.6967	1062.6781	1080.0977	1099.14	1153.5264	1179.3987	1206.6126	1255.4015	1280.1652	1312.3367	1317.8502	1359.8962	1411.7549	1414.2433	1434.8731	1479.0087	1479.1254	1489.3772	1493.6345	1502.0432	1701.4021	3008.3989	3017.2141	3022.6134	3030.082	3062.6434	3084.5166	3110.0646	3135.4372	3154.367	3184.1414	3186.4841	3788.9278
CC1=CCC2C1C2(C)O	CC1=CC[C@H]2[C@@H]1[C@]2(C)O	
InChI=1S/C8H12O/c1-5-3-4-6-7(5)8(6,2)9/h3,6-7,9H,4H2,1-2H3	InChI=1S/C8H12O/c1-5-3-4-6-7(5)8(6,2)9/h3,6-7,9H,4H2,1-2H3/t6-,7+,8+/m0/s1
