23
gdb 58950	2.46634	1.30767	1.07162	1.4162	86.	-0.2409	0.0734	0.3144	1266.866	0.204845	-388.267415	-388.257596	-388.256651	-388.301685	37.623	
C	-0.2177166376	 1.4835264709	 0.0310116622	-0.410921
C	 0.0433084967	-0.0249756201	-0.0350138263	 0.006793
O	 0.8346000798	-0.3586594591	-1.177705055	-0.440855
C	 0.7783061075	-0.5254945248	 1.175439151	 0.406972
C	 2.2619970233	-0.227534786	 1.4544922865	-0.300282
C	 2.4492589409	-1.6967306492	 1.9511309182	-0.226181
C	 0.9659491257	-1.9674819223	 1.6750643839	-0.13427
C	 0.0698047097	-1.0059313863	 2.4156078585	-0.06964
C	 0.2976625804	-0.4892180524	 3.8211156258	-0.420913
H	 0.7258265158	 2.0325302687	 0.1096421325	 0.126852
H	-0.7414553173	 1.8306643076	-0.8679436071	 0.100547
H	-0.8396234088	 1.733839095	 0.8960587822	 0.120227
H	-0.9262074552	-0.5494460828	-0.0891408116	 0.057287
H	 0.450645681	 0.0831430402	-1.9416180447	 0.278301
H	 2.8073329499	-0.0364494703	 0.5294718643	 0.11763
H	 2.4805988777	 0.5742954758	 2.167332735	 0.085793
H	 3.10770799	-2.268416007	 1.294106446	 0.104917
H	 2.7875583083	-1.8358181522	 2.9832418071	 0.091023
H	 0.5722335974	-2.8814603425	 1.2445903913	 0.080145
H	-0.9798168344	-1.2174650627	 2.2119180812	 0.07718
H	 1.3533009847	-0.3005021397	 4.0310029478	 0.121275
H	-0.243301558	 0.4493054723	 3.9869405569	 0.112573
H	-0.0599396775	-1.2131253731	 4.5617572143	 0.115548
66.3007	127.3717	187.0244	197.1492	244.1708	252.3057	267.4223	278.3128	318.1024	334.589	484.2384	500.941	560.5017	652.0033	731.2232	763.9585	808.7812	863.8151	905.4274	928.5721	951.7224	976.022	992.5686	1019.2868	1055.0916	1074.4784	1086.7794	1099.508	1135.0365	1141.5029	1157.206	1206.9106	1222.7824	1241.0992	1256.1733	1269.2106	1328.9918	1337.1598	1359.4934	1401.3376	1412.92	1421.1616	1468.4581	1474.8864	1492.2124	1499.3619	1501.6491	1509.238	1512.0011	2948.4998	3025.112	3031.7301	3043.21	3051.0596	3086.5748	3092.2048	3102.6446	3104.8489	3114.4623	3123.2976	3127.4446	3171.5693	3817.3317
CC(O)C12CCC1C2C	C[C@@H](O)[C@]12CC[C@H]1[C@H]2C	
InChI=1S/C8H14O/c1-5-7-3-4-8(5,7)6(2)9/h5-7,9H,3-4H2,1-2H3	InChI=1S/C8H14O/c1-5-7-3-4-8(5,7)6(2)9/h5-7,9H,3-4H2,1-2H3/t5-,6-,7+,8-/m1/s1
