16
gdb 127162	4.29358	1.05778	0.85328	1.5287	75.88	-0.2166	-0.0164	0.2002	1278.3584	0.125232	-434.050358	-434.042076	-434.041132	-434.084471	29.678	
C	-0.0339828643	 1.4581739261	-0.0218983949	-0.359813
N	-0.0186513826	 0.0035395073	 0.0326721779	-0.17218
C	-0.0208470089	-0.6420156661	 1.2499184559	 0.091039
N	-0.0358949297	-0.015417919	 2.3593912965	-0.491672
C	-0.0020428803	-0.6891511178	-1.1720795239	 0.228539
C	 0.0022057202	-0.1645981539	-2.433358403	-0.025313
O	 0.0194631898	-1.1554686736	-3.3483583114	-0.16674
N	 0.0270950114	-2.3712292987	-2.6998992249	-0.124034
C	 0.0145310532	-2.097951827	-1.4192353356	-0.045262
H	 0.8572354192	 1.830265104	-0.5406820745	 0.131496
H	-0.9248332054	 1.8107983975	-0.5547193076	 0.131499
H	-0.04603252	 1.8321735106	 0.9998179519	 0.18188
H	-0.0084238204	-1.7299488513	 1.1473225976	 0.103583
H	-0.034798847	-0.67177734	 3.1353981813	 0.228732
H	-0.0051036569	 0.8395303095	-2.8211206249	 0.151168
H	 0.0176059217	-2.9188268975	-0.7182844005	 0.137078
27.724	106.6818	171.4445	192.1922	251.4673	331.3638	367.2587	455.1981	475.1852	610.1798	666.6813	761.1746	771.8343	786.1552	874.349	928.2751	943.1378	953.5867	1030.942	1038.7983	1114.1007	1147.5191	1159.8061	1220.0765	1251.8671	1319.6807	1366.8845	1425.9746	1430.5338	1455.1444	1488.8106	1499.6856	1513.1262	1674.0273	1717.6641	3022.3502	3075.8046	3092.2047	3175.8431	3256.7242	3289.2294	3529.7276
CN(C=N)C1=CON=C1	CN(C=N)c1conc1	
InChI=1S/C5H7N3O/c1-8(4-6)5-2-7-9-3-5/h2-4,6H,1H3	InChI=1S/C5H7N3O/c1-8(4-6)5-2-7-9-3-5/h2-4,6H,1H3
