19
gdb 111808	2.98837	1.41424	1.34226	1.9032	70.57	-0.2404	0.0758	0.3162	1054.168	0.160546	-460.141987	-460.134182	-460.133238	-460.174443	29.867	
C	 0.1308629025	 1.3091989504	 0.1013988014	-0.243541
O	-0.2029599456	-0.0361942427	-0.1705641256	-0.251386
C	 0.5528552012	-0.6053171065	-1.20061195	 0.137285
C	 1.9646767192	-1.1298341109	-0.8316291008	 0.026503
C	 1.6013152633	-2.1893217736	 0.2133673035	-0.07763
O	 0.3810393374	-2.7560372104	-0.3101155287	-0.279791
C	 0.103281735	-2.0391177939	-1.5173138957	 0.030547
C	 1.1655251462	-2.4337179412	-2.5473981697	-0.086562
O	 2.3602011143	-1.7876564308	-2.0387056957	-0.284845
H	 1.1662303116	 1.4196968053	 0.4552505733	 0.109142
H	 0.0008612959	 1.9452107596	-0.7875206123	 0.109695
H	-0.5463471991	 1.6549713677	 0.8854553349	 0.133353
H	 0.5886306584	 0.0409013891	-2.0885013395	 0.076627
H	 2.7355991753	-0.4148035654	-0.547222348	 0.083096
H	 2.3743508405	-2.9612430848	 0.2855101417	 0.107321
H	 1.4117699588	-1.7589686988	 1.2037322291	 0.106259
H	-0.9368191437	-2.196389231	-1.7990282359	 0.089882
H	 1.3072579945	-3.5190367599	-2.572800817	 0.11321
H	 0.9529475042	-2.0705860823	-3.5609270051	 0.100834
83.1026	171.7067	186.0282	221.694	283.6345	354.0349	407.0172	451.8012	539.1987	645.0648	782.7011	837.7739	866.4178	879.7736	907.5677	945.3319	958.031	1002.2343	1023.1578	1039.7861	1053.0704	1095.5669	1097.9696	1167.5624	1177.2725	1187.4485	1191.8346	1226.3704	1237.3409	1258.6144	1283.6864	1307.1258	1321.5136	1365.9514	1378.7594	1405.2025	1484.3888	1490.7567	1501.3111	1507.8579	1513.9589	2981.1226	3015.4194	3022.3409	3030.4589	3031.1385	3075.4491	3081.5302	3120.9192	3133.2525	3140.3545
COC1C2COC1CO2	CO[C@H]1[C@H]2CO[C@@H]1CO2	
InChI=1S/C6H10O3/c1-7-6-4-2-8-5(6)3-9-4/h4-6H,2-3H2,1H3	InChI=1S/C6H10O3/c1-7-6-4-2-8-5(6)3-9-4/h4-6H,2-3H2,1H3/t4-,5-/m1/s1
