22
gdb 117348	2.67097	0.77867	0.69457	1.3472	80.08	-0.222	-0.0142	0.2078	1735.2246	0.190703	-441.479157	-441.467883	-441.466939	-441.516894	39.166	
C	 0.5777858532	 0.4380992883	-0.7811375254	-0.321449
N	-0.4132720418	-0.3163886026	-0.0254791301	-0.057039
C	 0.1573011138	-0.8764555854	 1.1904837606	-0.312987
C	-1.6071206326	 0.4734197855	 0.2319772203	-0.237228
C	-2.4849910588	 0.6803344191	-1.0075394192	 0.351415
O	-3.015839105	 1.748924445	-1.2153657591	-0.305841
C	-2.6991675909	-0.5205275573	-1.9075297462	-0.27346
C	-3.6446166926	-0.2364084207	-3.0641603649	-0.074879
O	-3.7570741454	-1.4346682457	-3.8193319348	-0.426239
H	 1.4205516542	-0.2111055558	-1.0368681926	 0.1222
H	 0.1413950539	 0.8090801082	-1.7137963277	 0.124977
H	 0.9700688298	 1.3096729322	-0.2239538962	 0.099823
H	 0.5079956336	-0.1068717324	 1.9038511419	 0.09612
H	-0.5859068035	-1.498006351	 1.6991839958	 0.119632
H	 1.0123704577	-1.5102917984	 0.9351623586	 0.121
H	-2.2274590469	-0.0686206276	 0.9589779136	 0.117893
H	-1.3995727211	 1.4698043683	 0.6608527946	 0.100862
H	-1.7296670536	-0.8716152842	-2.2777171531	 0.144344
H	-3.0795333342	-1.3526888147	-1.3001019174	 0.127365
H	-4.6190258052	 0.0923663357	-2.6753277607	 0.098587
H	-3.2478898071	 0.5907436058	-3.6702451791	 0.098763
H	-4.3575619274	-1.2683406424	-4.5515838688	 0.286141
42.8463	56.9061	82.224	95.4682	137.6155	202.2331	241.0441	251.2166	270.404	326.5001	370.3141	377.4593	405.3341	455.0222	534.9151	624.3371	762.8043	837.0312	873.3447	930.4606	1033.6451	1065.501	1066.6416	1069.4468	1079.9315	1123.0208	1139.1683	1182.9663	1192.4682	1218.4884	1257.465	1295.4695	1302.888	1306.0223	1353.1234	1372.294	1441.2709	1447.0819	1461.5597	1467.2005	1479.391	1482.7262	1497.151	1500.2186	1513.1839	1522.4406	1801.4628	2928.9884	2935.9972	2954.0997	2993.7894	3020.9236	3034.2253	3041.0702	3060.775	3063.7329	3081.8693	3104.6611	3108.1843	3830.8507
CN(C)CC(=O)CCO	CN(C)CC(=O)CCO	
InChI=1S/C6H13NO2/c1-7(2)5-6(9)3-4-8/h8H,3-5H2,1-2H3	InChI=1S/C6H13NO2/c1-7(2)5-6(9)3-4-8/h8H,3-5H2,1-2H3
