16
gdb 41058	3.31268	2.16964	1.9277	1.5427	70.05	-0.2314	0.041	0.2723	775.5241	0.126397	-400.594863	-400.589171	-400.588227	-400.624491	24.575	
C	 0.0498212597	 1.5159157003	 0.1648162982	-0.173417
O	 1.4689365701	 1.5603088962	-0.2200618552	-0.321524
C	 1.3919089154	 0.2181712681	-0.6704644623	 0.34336
C	 0.9130054094	-0.3884334549	-2.0094304984	-0.135416
C	-0.3170433014	-0.8154877361	-1.27515642	-0.107893
N	 0.9167382511	-1.7011473101	-1.3106129353	-0.139122
C	 1.697580119	-1.189827736	-0.0846598831	-0.060255
C	 0.652023454	-0.9717925848	 1.0224551387	-0.291023
C	 0.0032830134	-0.012552065	-0.0223630891	 0.133752
H	-0.0956459909	 1.890147112	 1.1823077623	 0.119776
H	-0.565098658	 2.0921159682	-0.5350318868	 0.117722
H	 1.152349262	-0.2705317557	-3.0592865143	 0.103572
H	-1.2413887381	-1.258637947	-1.6294776964	 0.096793
H	 2.6530117175	-1.7018418066	 0.0322305305	 0.083
H	 0.0805294107	-1.8348856849	 1.3709307242	 0.111618
H	 1.0679836162	-0.4243714637	 1.872049987	 0.119057
251.4329	326.2851	388.2489	480.4816	546.5723	602.9395	731.957	769.9146	774.0469	786.0012	814.3109	846.0172	891.0607	914.4583	927.9108	938.3051	971.0468	999.394	1016.4442	1042.6452	1067.5735	1089.8101	1127.3254	1151.0294	1173.8326	1188.619	1210.9624	1228.7643	1250.4809	1264.8288	1296.0401	1304.2011	1337.3226	1471.8627	1505.124	3036.2692	3066.3046	3095.0754	3113.7894	3127.8607	3165.0173	3190.2644
C1OC23C4C5N4C2CC135	C1O[C@@]23[C@@H]4[C@H]5N4[C@@H]2C[C@@]135	
InChI=1S/C7H7NO/c1-3-7-5-4(8(3)5)6(1,7)2-9-7/h3-5H,1-2H2	InChI=1S/C7H7NO/c1-3-7-5-4(8(3)5)6(1,7)2-9-7/h3-5H,1-2H2/t3-,4-,5+,6+,7-,8?/m1/s1
