21
gdb 59701	2.13564	1.37147	0.91325	3.8708	79.74	-0.2354	-0.0117	0.2236	1313.5071	0.180815	-424.224214	-424.214472	-424.213527	-424.259062	36.008	
C	-0.0136089516	 1.531246013	 0.0305242608	-0.403061
C	-0.0498244398	 0.0152730116	-0.1696177928	 0.117083
O	 0.9586626045	-0.6304127505	 0.6045434135	-0.421472
C	-1.4336955185	-0.5688184533	 0.1245101692	-0.026481
C	-2.4838699381	-0.3404783401	-1.0026813294	-0.233668
C	-2.2652639139	-1.8018408821	-1.469617705	-0.241139
C	-1.5824306296	-2.117709712	-0.1045870492	-0.069642
C	-0.3586054639	-2.9998367673	-0.120810748	 0.16221
O	-0.1837718116	-3.925784593	 0.6311456754	-0.269599
H	 0.9852818943	 1.9167317179	-0.1891340102	 0.1287
H	-0.7328555761	 2.0399165628	-0.6186618755	 0.12204
H	-0.2599123653	 1.7882413509	 1.0682614769	 0.109355
H	 0.2262102578	-0.2099382355	-1.2076023979	 0.088541
H	 0.7593640342	-0.4858393222	 1.5367371416	 0.281625
H	-1.741370184	-0.2463713796	 1.1264147422	 0.066161
H	-3.4879899753	-0.1758565766	-0.6047970459	 0.108512
H	-2.2672907542	 0.4516627396	-1.7246577615	 0.101134
H	-3.1465408771	-2.3936894422	-1.7236511947	 0.111073
H	-1.5548799302	-1.8692192742	-2.2999147285	 0.108122
H	-2.2870945605	-2.5424161316	 0.6143869436	 0.089071
H	 0.374261059	-2.7686610958	-0.9249008247	 0.071434
62.545	94.5269	118.983	176.5964	227.152	258.9635	309.0133	316.8013	356.0249	368.5292	431.3554	485.4445	542.9928	691.1091	793.6579	810.7235	880.5599	894.7091	934.4	956.9709	985.1967	1008.12	1046.1284	1070.6361	1084.9086	1104.4395	1142.3853	1168.352	1221.0836	1237.9954	1249.6446	1266.3654	1275.8629	1298.3568	1314.5571	1333.1445	1394.1133	1401.7065	1420.1807	1432.5705	1482.7184	1490.4338	1493.3297	1499.6573	1820.3821	2884.0912	3021.4958	3026.6856	3039.678	3054.257	3060.5441	3083.893	3098.1745	3104.8981	3121.4122	3122.9684	3797.0169
CC(O)C1CCC1C=O	C[C@@H](O)[C@H]1CC[C@H]1C=O	
InChI=1S/C7H12O2/c1-5(9)7-3-2-6(7)4-8/h4-7,9H,2-3H2,1H3	InChI=1S/C7H12O2/c1-5(9)7-3-2-6(7)4-8/h4-7,9H,2-3H2,1H3/t5-,6+,7-/m1/s1
