15
gdb 44400	3.79133	1.54213	1.52051	2.6489	71.73	-0.2377	-0.0322	0.2054	900.3341	0.113403	-416.651215	-416.644774	-416.64383	-416.681772	26.704	
N	 0.0221883663	 1.2383147176	-0.3139061806	-0.550365
C	 0.0216956588	 0.0292172741	-0.0126730523	 0.348461
O	 1.1196631003	-0.8649756595	 0.2258386258	-0.291961
C	 0.1763494539	-1.7037324115	 1.0062849788	 0.124082
C	-0.7574740081	-2.9928754038	 0.8931697257	-0.137229
N	-1.8583697765	-1.9119450597	 1.1623990631	-0.382189
C	-0.9500242431	-1.1300908132	 0.2094567506	 0.14819
C	-0.9520410664	-1.9966727963	-1.0770131284	-0.115399
C	-0.8374252509	-3.2368218862	-0.604710516	-0.068098
H	 0.9700019367	 1.6100706285	-0.3940337778	 0.242294
H	 0.2427153453	-1.3812198917	 2.0446366137	 0.125398
H	-0.7131256105	-3.8189378998	 1.6022442542	 0.090268
H	-2.7288396031	-2.1839816724	 0.7001923015	 0.219138
H	-1.0146593819	-1.6106399354	-2.0834963255	 0.124708
H	-0.7776376307	-4.1895674207	-1.1095580427	 0.122701
136.9994	263.4081	299.77	432.0256	509.5965	556.4332	586.1948	644.406	683.5283	708.9311	721.3454	789.895	811.6674	847.2764	859.3203	869.3047	912.2231	932.9936	983.3886	996.6769	1018.7249	1036.8869	1093.1563	1122.691	1183.6386	1205.8796	1235.048	1249.6356	1289.031	1302.7297	1384.4789	1622.299	1824.9758	3118.4362	3132.8157	3234.2109	3262.2144	3433.3007	3482.5848
N=C1OC2C3NC12C=C3	[NH][C]1O[C@@H]2[C@H]3N[C@@]12C=C3	
InChI=1S/C6H6N2O/c7-5-6-2-1-3(8-6)4(6)9-5/h1-4,7-8H	InChI=1S/C6H6N2O/c7-5-6-2-1-3(8-6)4(6)9-5/h1-4,7-8H/t3-,4+,6+/m0/s1
