18
gdb 120374	2.7278	1.30297	0.97106	2.061	75.29	-0.2171	0.0018	0.2189	1219.9127	0.148958	-435.284117	-435.275307	-435.274363	-435.318692	31.772	
O	-0.1635740663	 1.5043495618	 0.1838371644	-0.416877
C	 0.0605339369	 0.1121206771	 0.0121888311	-0.07657
C	-1.3023192135	-0.5622900659	-0.0850231062	-0.170324
N	-2.0384742947	-0.1735080293	-1.2704204411	-0.064001
C	-2.6948205456	 1.0302974615	-1.4963123475	 0.070935
N	-3.2636617822	 1.1671756915	-2.6326735846	-0.270796
C	-2.9941120566	-0.0841841994	-3.3534634759	-0.269212
C	-2.1567298988	-0.9558975195	-2.4154685839	 0.34107
N	-1.633012213	-2.1118715692	-2.5199657194	-0.558343
H	 0.6655035463	 1.9700900891	 0.0441808409	 0.294003
H	 0.6350452682	-0.0970187948	-0.9008810882	 0.111035
H	 0.6091800207	-0.3150081076	 0.8661471091	 0.094099
H	-1.1772658351	-1.6467634188	-0.1314636591	 0.150824
H	-1.8890546241	-0.3119426044	 0.8058752658	 0.12198
H	-2.6871042306	 1.7809015118	-0.7151995857	 0.147139
H	-3.9330491587	-0.5821233955	-3.6229036189	 0.138338
H	-2.4591996609	 0.1178397757	-4.2887911022	 0.137143
H	-1.842636722	-2.5216712041	-3.4284080185	 0.219556
34.5082	94.6498	135.9869	167.6164	242.7521	258.6524	344.8871	437.3242	459.822	501.0858	597.967	651.3133	711.3446	821.43	873.0878	905.9158	933.0999	945.5746	981.9874	1006.0473	1016.3763	1073.6271	1094.6327	1164.6302	1192.2888	1232.4931	1261.7462	1284.012	1287.4652	1316.0799	1381.8594	1403.4332	1419.6058	1449.2119	1454.1639	1470.4401	1514.2971	1677.8549	1732.7925	2982.2549	3027.0395	3038.3642	3052.0403	3069.7915	3120.1003	3222.8524	3499.5257	3840.7645
OCCN1C=NCC1=N	OCCN1C=NC[C]1[NH]	
InChI=1S/C5H9N3O/c6-5-3-7-4-8(5)1-2-9/h4,6,9H,1-3H2	InChI=1S/C5H9N3O/c6-5-3-7-4-8(5)1-2-9/h4,6,9H,1-3H2
