21
gdb 63053	2.78313	1.57966	1.56269	1.2486	81.07	-0.2477	0.0782	0.3258	1002.0972	0.183184	-387.05244	-387.044594	-387.04365	-387.083991	32.7	
C	-0.1511331881	 1.6015000726	-0.0082654923	-0.46033
C	 0.0425545168	 0.0939093965	 0.0093068233	 0.420197
O	-1.2148569915	-0.5697120133	-0.1275297006	-0.483083
C	 1.0714502194	-0.579723387	-0.9465554912	-0.091417
C	 2.5006846067	 0.0169265814	-0.9055559906	-0.248204
C	 2.7699307842	-0.6944595031	 0.4430162121	-0.033039
C	 2.0774987311	-0.0072095641	 1.6458633442	-0.250442
C	 0.7139581511	-0.6043982394	 1.2195824481	-0.054376
C	 1.4681876897	-1.5537072632	 0.2209380645	-0.030517
H	 0.7851336811	 2.1442904476	 0.1441345382	 0.117344
H	-0.5653297085	 1.9247171295	-0.9719986499	 0.101908
H	-0.854434525	 1.8979047306	 0.7764842047	 0.123288
H	-1.5572954255	-0.3656887051	-1.0052658036	 0.270324
H	 0.6763420815	-0.8942464117	-1.9154564414	 0.049495
H	 3.1120664162	-0.4237033321	-1.6991945105	 0.099139
H	 2.6164339137	 1.1053009255	-0.9490866596	 0.088209
H	 3.7670203697	-1.1054796281	 0.6038037384	 0.06088
H	 2.4040748267	-0.4618294692	 2.586065732	 0.100786
H	 2.1676343293	 1.0801318361	 1.7428028016	 0.088722
H	 0.0223952179	-0.9334613618	 1.9951550463	 0.069729
H	 1.4077039535	-2.6382815618	 0.1991239362	 0.061387
176.5475	199.3363	226.0843	289.4277	351.9793	367.3708	376.3316	404.058	475.8834	610.6973	625.8808	711.4932	810.6375	836.7558	840.7547	850.1281	887.1037	925.58	948.3919	961.9307	979.337	1001.3168	1012.746	1050.5183	1077.3626	1096.3428	1104.5641	1130.218	1154.3755	1179.7251	1186.286	1201.2666	1228.5786	1239.4442	1252.563	1274.5971	1287.088	1312.7803	1327.1743	1380.5669	1404.3357	1475.0694	1482.2925	1496.8089	1498.2212	3023.249	3036.1914	3038.6226	3071.8161	3084.1673	3085.9981	3090.3252	3099.0671	3108.3941	3118.8137	3151.4252	3790.3746
CC1(O)C2CC3CC1C23	C[C@@]1(O)[C@H]2C[C@H]3C[C@@H]1[C@@H]23	
InChI=1S/C8H12O/c1-8(9)5-2-4-3-6(8)7(4)5/h4-7,9H,2-3H2,1H3	InChI=1S/C8H12O/c1-8(9)5-2-4-3-6(8)7(4)5/h4-7,9H,2-3H2,1H3/t4-,5-,6+,7+,8+
