15
gdb 55606	4.00038	0.76959	0.68058	4.7559	65.58	-0.2543	-0.0381	0.2162	1567.748	0.110528	-491.151741	-491.142179	-491.141235	-491.188374	32.625	
N	-0.3730760887	 1.3076436256	-0.4715261582	-0.565486
C	 0.1000558308	 0.0952726524	 0.0022678101	 0.468271
O	 1.2483643453	-0.1160925827	 0.2893398449	-0.323498
N	-0.9550851216	-0.8333722757	 0.1755507611	-0.405337
C	-0.8211714126	-2.1910556175	 0.4434660073	 0.414918
O	 0.2189716141	-2.7993484617	 0.4255053168	-0.311363
C	-2.1491770412	-2.8956337421	 0.7294431183	-0.401952
C	-2.3352684268	-4.0806640661	-0.210518899	 0.166116
O	-3.3804013037	-4.3501219625	-0.7391594566	-0.233316
H	 0.367236635	 1.9477821786	-0.7175191656	 0.271801
H	-1.1549684108	 1.3077679849	-1.1090478576	 0.25622
H	-1.8902419249	-0.4573868447	 0.1899479791	 0.256865
H	-2.0654293113	-3.3013294948	 1.7461264074	 0.168753
H	-3.0343509139	-2.2570037471	 0.6825786187	 0.119238
H	-1.4154017095	-4.6800291464	-0.3634101967	 0.118768
23.6704	48.6063	100.158	108.4927	167.0079	250.0977	333.9658	400.2404	417.5586	476.263	533.3705	555.1493	563.0085	640.2711	741.2265	770.1952	819.3743	919.3597	970.6753	1043.7633	1059.8457	1109.5156	1141.2266	1221.8605	1287.0135	1328.365	1403.0226	1444.1307	1507.3395	1628.377	1801.3871	1837.9423	1874.5047	2942.6789	3039.3935	3111.919	3574.3208	3630.8059	3689.8758
NC(=O)NC(=O)CC=O	NC(=O)NC(=O)CC=O	
InChI=1S/C4H6N2O3/c5-4(9)6-3(8)1-2-7/h2H,1H2,(H3,5,6,8,9)	InChI=1S/C4H6N2O3/c5-4(9)6-3(8)1-2-7/h2H,1H2,(H3,5,6,8,9)
