13
gdb 33562	2.23457	1.6786	1.24444	6.878	67.47	-0.2706	-0.0236	0.2469	1000.5134	0.090609	-411.804867	-411.797054	-411.796109	-411.837606	27.916	
N	-0.1424284041	-1.1885166382	-0.0652861332	-0.322477
C	-0.0704863258	-0.0367001091	-0.0459606364	 0.302082
C	 0.0091414826	 1.4304046254	 0.0423015811	-0.008389
C	-0.6054793041	 1.9559167097	 1.3995672101	-0.227239
N	 0.4056466365	 2.9428264913	 1.7766684977	-0.289431
C	 1.5272350181	 2.6874224329	 1.0319771802	 0.082789
N	 1.4293335674	 1.8780523616	 0.0419261451	-0.259812
C	-0.6875332893	 2.0335834772	-1.1125995173	 0.313198
N	-1.2427317799	 2.5367566418	-1.990841237	-0.32188
H	-1.5895012914	 2.4039373542	 1.2570785213	 0.160458
H	-0.6780412147	 1.1398078453	 2.1259424979	 0.148539
H	 0.4878643903	 3.2356324764	 2.7381196207	 0.266091
H	 2.4548644844	 3.1982867417	 1.2704518198	 0.156071
78.4757	130.6583	175.4952	188.6875	270.141	431.8352	458.9792	496.0597	523.8536	572.4216	590.3193	599.2356	778.0599	873.9433	926.8596	976.9874	1011.5314	1021.9259	1091.1635	1148.3021	1152.5531	1240.0144	1307.6509	1335.4169	1457.1802	1517.8857	1668.8087	2365.6804	2373.0149	3051.6299	3126.392	3202.1267	3629.637
N#CC1(CNC=N1)C#N	N#CC1(CN[CH][N]1)C#N	
InChI=1S/C5H4N4/c6-1-5(2-7)3-8-4-9-5/h4H,3H2,(H,8,9)	InChI=1S/C5H4N4/c6-1-5(2-7)3-8-4-9-5/h4H,3H2,(H,8,9)
