15
gdb 45446	2.6456	1.79832	1.77494	4.317	60.03	-0.2585	-0.0015	0.2571	856.2978	0.115194	-494.930667	-494.92413	-494.923185	-494.961666	25.398	
O	-0.0085582674	-0.0072403991	 0.0049130186	-0.342551
C	 0.0068357469	 1.1866934481	 0.0099228423	 0.47253
O	-1.1379541109	 1.9335571888	 0.0288063841	-0.24532
C	-0.8362504534	 3.3473253978	 0.031399183	 0.023457
C	 0.0094328699	 3.6411424961	 1.2679395023	-0.074235
O	 1.2263121086	 2.8895738728	 1.1699323119	-0.259949
C	 1.2371409497	 2.1046162088	-0.0020800835	 0.023022
O	 1.1952119012	 2.9005834788	-1.1659319461	-0.259957
C	-0.0237880423	 3.652833328	-1.2244370247	-0.074246
H	-1.7908176547	 3.874049771	 0.0465974382	 0.11378
H	 0.2517373903	 4.7090127747	 1.3238408851	 0.121681
H	-0.5254494734	 3.3488668895	 2.1789028962	 0.12701
H	 2.1628017067	 1.5336952494	-0.0170902584	 0.126095
H	-0.5827788795	 3.369013161	-2.1235221365	 0.127004
H	 0.2170337084	 4.7212191344	-1.2767730626	 0.121681
122.0444	188.0465	315.6741	380.0408	407.632	437.8027	555.742	591.7047	665.0041	790.1045	831.3009	856.1231	901.7213	914.4517	950.6416	988.2528	993.6723	1064.6822	1105.0871	1105.6417	1152.2976	1204.971	1222.8357	1247.6063	1310.0496	1331.7082	1346.3359	1375.8378	1395.0462	1407.8753	1505.4911	1517.9897	1891.592	3027.5495	3031.2045	3071.8872	3075.8716	3121.1201	3161.6269
O=C1OC2COC1OC2	O=C1O[C@H]2CO[C@@H]1OC2	
InChI=1S/C5H6O4/c6-4-5-7-1-3(9-4)2-8-5/h3,5H,1-2H2	InChI=1S/C5H6O4/c6-4-5-7-1-3(9-4)2-8-5/h3,5H,1-2H2/t3-,5+
