18
gdb 18296	3.15839	2.07183	1.79212	0.7145	67.32	-0.2247	0.0772	0.3019	834.3395	0.154752	-384.91024	-384.902756	-384.901812	-384.942208	28.045	
C	-0.3631962875	 1.4735664892	-0.1592147617	-0.407352
C	-0.052937747	 0.0007445691	-0.0116555597	-0.080658
C	 1.3318372246	-0.5514923151	-0.309841594	 0.027748
O	 2.3540360933	 0.3539243473	-0.6140816994	-0.249946
C	 3.2663124703	 0.4696244904	 0.4724957967	-0.094489
C	 2.5549984708	 1.0567991111	 1.6792369371	-0.06375
O	 1.4046472074	 0.3057040735	 2.0623819042	-0.266471
C	 0.820208191	-0.5332311781	 1.1065383761	 0.072037
H	 0.5492940022	 2.0721132292	-0.1817785184	 0.128564
H	-0.8982130082	 1.6597500035	-1.0958663507	 0.11721
H	-0.9891081627	 1.8311002054	 0.6645737491	 0.121486
H	-0.8665593732	-0.6660449218	-0.2872154863	 0.084438
H	 1.4257605433	-1.4996646282	-0.8379012516	 0.088487
H	 3.7020265241	-0.5115732234	 0.7131699058	 0.099745
H	 4.0684688856	 1.1374099212	 0.146093957	 0.1132
H	 3.223817184	 1.0793489441	 2.5473851539	 0.106583
H	 2.2580401984	 2.0905340041	 1.451278854	 0.104759
H	 0.5313563638	-1.4755601115	 1.563263238	 0.098408
73.9978	129.7801	172.1532	224.7682	332.4625	447.2587	487.9456	524.9699	606.1407	731.222	751.1959	764.2479	844.6409	902.5404	920.7209	977.7462	998.1582	1068.9171	1083.6347	1099.1705	1117.2471	1138.1693	1144.8107	1176.4279	1193.1979	1258.1356	1265.2834	1309.3115	1341.2158	1365.538	1403.736	1408.6773	1415.4995	1443.0105	1492.5027	1495.1511	1498.97	1512.0181	2994.5899	3004.2214	3042.0293	3061.2123	3095.8909	3099.4875	3100.527	3125.6324	3137.2531	3147.0292
CC1C2OCCOC12	C[C@H]1[C@H]2OCCO[C@@H]12	
InChI=1S/C6H10O2/c1-4-5-6(4)8-3-2-7-5/h4-6H,2-3H2,1H3	InChI=1S/C6H10O2/c1-4-5-6(4)8-3-2-7-5/h4-6H,2-3H2,1H3/t4-,5+,6-
