15
gdb 33888	3.55134	1.52505	1.33065	3.7232	69.48	-0.2604	0.0042	0.2646	947.558	0.114919	-416.746809	-416.740298	-416.739354	-416.777706	26.173	
N	 0.0829148671	-1.0868573246	-0.0377838842	-0.340172
C	 0.0600567152	 0.0693631431	 0.0092079835	 0.201949
C	-0.0057076237	 1.4956269786	 0.0463552018	 0.222717
N	 0.321037947	 2.3073945255	-1.1595331999	-0.36324
C	 1.1853816283	 2.3948471472	 0.0282422528	-0.094213
C	 0.7122899583	 3.414562592	 1.0947793019	 0.061073
C	-0.7511326581	 3.728905111	 0.7108168384	-0.235945
C	-0.8462379647	 2.2450018281	 1.1239957732	-0.000899
O	 0.188982802	 2.5064634513	 2.1273669096	-0.292891
H	 0.7608492694	 1.7018853038	-1.8526092895	 0.253439
H	 2.2019142847	 2.0226399754	 0.006201372	 0.129379
H	 1.426411227	 4.1473809574	 1.4655865382	 0.096636
H	-1.2161090448	 4.3601302498	 1.4662542834	 0.122203
H	-0.9977949491	 4.0305353107	-0.3039678374	 0.138059
H	-1.7381329083	 1.7558950208	 1.5098134563	 0.101906
136.135	157.0462	367.5113	410.2868	474.2134	538.8104	559.0928	591.6559	628.8077	711.6335	799.9299	857.0647	862.9334	870.8296	907.1316	921.154	944.1739	991.3172	1016.3625	1036.8413	1074.7316	1098.8878	1148.1587	1191.1224	1232.4439	1240.5209	1255.2439	1293.2901	1301.7584	1327.8739	1396.6881	1472.6615	2348.7612	3111.8204	3145.0476	3153.3939	3187.2231	3203.4617	3477.7066
N#CC12NC1C1CC2O1	N#C[C@]12N[C@H]1[C@H]1C[C@@H]2O1	
InChI=1S/C6H6N2O/c7-2-6-4-1-3(9-4)5(6)8-6/h3-5,8H,1H2	InChI=1S/C6H6N2O/c7-2-6-4-1-3(9-4)5(6)8-6/h3-5,8H,1H2/t3-,4+,5+,6-/m1/s1
