17
gdb 17743	3.81004	2.62439	2.14315	1.6468	70.3	-0.2237	0.0817	0.3054	712.3974	0.143584	-326.645276	-326.639259	-326.638315	-326.674862	25.205	
C	 0.0167313536	 1.4965141746	 0.0051621723	-0.497922
C	-0.0269692689	 0.0008561189	 0.124041326	 0.371999
C	-1.3131377482	-0.8263364859	 0.324166365	-0.280066
C	-0.3334768352	-1.95755953	 0.7106221859	-0.072019
C	 0.5855995553	-2.1380873681	-0.5143660174	-0.045536
C	 1.6932853557	-1.3305755007	 0.0476633937	-0.0615
C	 0.7315914102	-0.8817956573	 1.1739536741	-0.124404
N	 0.7784300875	-0.7192882587	-0.9660956048	-0.178659
H	 1.0509709465	 1.8544000833	-0.0298568756	 0.123574
H	-0.4787061575	 1.8202312068	-0.9170008723	 0.127151
H	-0.4847988388	 1.9745904678	 0.8527147599	 0.112877
H	-1.8805371043	-0.4664789371	 1.1889274509	 0.098541
H	-1.9785478149	-0.9713439787	-0.5321374749	 0.100331
H	-0.6140505354	-2.8271770127	 1.3012982059	 0.072051
H	 0.5857931532	-2.9129684178	-1.2708781212	 0.09268
H	 2.7691581075	-1.3750023361	-0.071034918	 0.091606
H	 0.9396540737	-0.6235839483	 2.2092635104	 0.069293
216.9232	257.977	285.3541	414.5747	547.7392	590.1136	728.9236	755.2376	785.7141	814.6252	827.1313	846.1155	873.2017	884.6082	912.0495	941.7412	953.8242	995.9519	1006.7217	1036.2286	1071.1128	1078.7943	1135.654	1147.4166	1185.3471	1190.2536	1211.7466	1219.7009	1262.7796	1281.403	1330.7227	1332.6668	1413.2615	1481.6484	1483.4917	1488.9431	3029.7316	3044.4167	3097.7257	3102.3642	3105.3997	3136.5542	3147.5114	3178.8688	3193.821
CC12CC3C4C(C13)N24	C[C@]12C[C@H]3[C@@H]4[C@H]([C@@H]13)N24	
InChI=1S/C7H9N/c1-7-2-3-4(7)6-5(3)8(6)7/h3-6H,2H2,1H3	InChI=1S/C7H9N/c1-7-2-3-4(7)6-5(3)8(6)7/h3-6H,2H2,1H3/t3-,4+,5-,6+,7+,8?/m1/s1
