13
gdb 14821	2.4648	2.18744	1.28796	4.0797	58.38	-0.2674	-0.0563	0.2111	895.2267	0.094253	-398.587524	-398.579882	-398.578938	-398.620969	25.577	
O	-0.5658073251	 0.8667723825	 0.9003649339	-0.221352
C	 0.1431335029	 0.7864751739	-0.0654686864	 0.136712
C	 1.4388961441	 1.5723821469	-0.2083189664	 0.046513
O	 2.3627381783	 0.9534904152	-1.1144612192	-0.273876
C	 2.3878006996	 2.0943791373	-1.9911831681	-0.07332
C	 1.3783480326	 2.8657727501	-1.0947275052	-0.233277
C	 0.1050876404	 3.215019836	-1.7002945589	 0.288286
N	-0.9021187703	 3.4841609283	-2.1993904053	-0.312112
H	-0.0863400986	 0.1334377279	-0.9351375118	 0.105594
H	 1.8646420309	 1.7464915798	 0.7857136387	 0.121221
H	 3.3813612823	 2.5499260296	-2.0511734287	 0.128195
H	 2.027831049	 1.854760346	-2.996173986	 0.138041
H	 1.7975070039	 3.7408538864	-0.5962857165	 0.149375
49.1932	55.0513	132.9581	217.1875	274.3207	352.6388	459.99	537.4979	566.8041	755.0898	836.3309	887.3104	967.2689	1000.6598	1046.4864	1060.7716	1099.7825	1115.0332	1166.6996	1196.128	1252.9877	1303.2012	1344.9683	1353.3525	1399.3348	1524.7283	1838.4356	2359.5351	2909.0463	3043.3393	3059.4691	3095.6278	3111.0073
O=CC1OCC1C#N	O=C[C@H]1OC[C@H]1C#N	
InChI=1S/C5H5NO2/c6-1-4-3-8-5(4)2-7/h2,4-5H,3H2	InChI=1S/C5H5NO2/c6-1-4-3-8-5(4)2-7/h2,4-5H,3H2/t4-,5-/m1/s1
