21
gdb 117876	3.42483	0.56611	0.51342	4.0122	92.58	-0.2613	-0.0561	0.2052	2170.2591	0.17939	-387.081705	-387.070468	-387.069524	-387.120497	38.104	
C	-0.0879912232	 1.6256012551	 0.0407768495	-0.385756
C	-0.0184156371	 0.0954934289	 0.0357428718	-0.177425
C	-1.4073103253	-0.5498301176	 0.0991740143	-0.158185
C	-1.3913601863	-2.0987965906	 0.0062562533	-0.177228
C	-0.6980984569	-2.7709076693	 1.2101720084	-0.387137
C	-2.757305512	-2.5943455953	-0.1342912075	 0.108031
C	-3.8982730131	-2.9861225439	-0.2146957844	 0.021586
C	-5.2486417936	-3.4600561921	-0.3609278021	 0.020809
O	-6.0264126926	-3.6202783087	 0.5526428419	-0.231946
H	 0.9117747707	 2.06796118	-0.004010391	 0.115819
H	-0.6578491189	 1.9994876517	-0.816810955	 0.117928
H	-0.5762160926	 1.996162456	 0.9486827691	 0.119218
H	 0.498468906	-0.2457748811	-0.8711892219	 0.097706
H	 0.5925457167	-0.2399701009	 0.8815989201	 0.104446
H	-1.9150568251	-0.2593703482	 1.0274205361	 0.111133
H	-2.0211535295	-0.1611087692	-0.7217556431	 0.108644
H	-0.8391470117	-2.370917515	-0.9047457909	 0.110422
H	 0.35104423	-2.4708260982	 1.268126111	 0.123924
H	-1.1936810722	-2.4901275829	 2.1442601815	 0.132804
H	-0.735662274	-3.8594796754	 1.1208446528	 0.130621
H	-5.5410766093	-3.6771606834	-1.4091098841	 0.094585
17.6111	66.5427	72.0092	86.2969	120.7803	193.4636	220.6349	246.8814	262.8636	297.8152	322.3332	366.7599	492.5949	566.5538	628.1949	745.9956	795.5614	855.7567	875.647	928.3819	1003.4993	1010.7477	1023.2197	1053.0727	1095.8643	1123.6605	1153.2311	1198.6243	1260.0993	1292.9931	1325.8149	1341.2608	1353.2211	1393.4974	1408.5449	1414.7636	1424.0071	1482.0326	1493.9713	1495.2323	1499.5958	1502.0312	1511.719	1765.9341	2323.1573	2911.7801	3002.4903	3018.4731	3030.2409	3034.1006	3046.8188	3053.2634	3076.1224	3101.3531	3106.1178	3122.6067	3127.375
CCCC(C)C#CC=O	CCC[C@@H](C)C#CC=O	
InChI=1S/C8H12O/c1-3-5-8(2)6-4-7-9/h7-8H,3,5H2,1-2H3	InChI=1S/C8H12O/c1-3-5-8(2)6-4-7-9/h7-8H,3,5H2,1-2H3/t8-/m1/s1
