19
gdb 117895	4.17566	0.51904	0.47996	1.6841	78.02	-0.261	0.0265	0.2875	2229.3734	0.156052	-460.11098	-460.099719	-460.098774	-460.149343	38.214	
O	-0.0388272003	 1.3970370366	-0.1861242108	-0.42459
C	 0.0332648324	-0.0096688995	-0.0085234299	-0.080529
C	-1.3898417987	-0.5511196711	-0.0645810947	-0.175316
C	-1.4433119342	-2.0776165465	 0.1231255314	-0.076713
O	-0.8419492172	-2.4864574885	 1.3534505122	-0.416784
C	-2.8136488597	-2.5792984057	-0.0066700003	 0.004395
C	-3.954152934	-2.9620124532	-0.0862236611	 0.11305
C	-5.3131398577	-3.4947269719	-0.178309461	-0.193287
O	-5.3863607139	-4.7599391268	-0.8189269533	-0.400547
H	 0.8479567813	 1.756122047	-0.0906304769	 0.286241
H	 0.6392203812	-0.482307558	-0.7998915197	 0.083866
H	 0.4889844404	-0.2764571926	 0.9546875004	 0.101911
H	-1.9932210761	-0.0671480084	 0.7127815139	 0.105767
H	-1.8427180392	-0.289465123	-1.0268154838	 0.119539
H	-0.8211499935	-2.5481964199	-0.6495010196	 0.118861
H	-1.4438127753	-2.2342784958	 2.0629352187	 0.283252
H	-5.7556900106	-3.5281159884	 0.8305302374	 0.118618
H	-5.9407175622	-2.8222915591	-0.7737646825	 0.143258
H	-4.7463130926	-5.3377489449	-0.3902471704	 0.289008
24.5968	65.3744	84.6426	88.9361	142.3781	164.3507	242.219	261.5453	269.395	311.3809	339.5046	365.4738	417.8651	524.5248	563.7529	590.5799	790.3838	808.2498	919.0347	986.2607	1023.9218	1045.7802	1069.0315	1083.8132	1089.7045	1157.3656	1209.4847	1216.2506	1232.5592	1277.4132	1304.1012	1320.1792	1356.7928	1362.3591	1414.9686	1421.1581	1461.6428	1485.3302	1489.6036	1532.2391	2352.4516	2961.3052	2973.4086	3024.8523	3026.1761	3042.8362	3063.0011	3090.6933	3802.1668	3816.2813	3831.7996
OCCC(O)C#CCO	OCC[C@@H](O)C#CCO	
InChI=1S/C6H10O3/c7-4-1-2-6(9)3-5-8/h6-9H,3-5H2	InChI=1S/C6H10O3/c7-4-1-2-6(9)3-5-8/h6-9H,3-5H2/t6-/m0/s1
