21
gdb 70469	3.2858	0.96806	0.86917	3.0398	83.74	-0.2441	-0.0186	0.2254	1405.2072	0.180974	-387.077212	-387.067892	-387.066948	-387.112126	34.502	
C	-0.1055805667	 1.5215584239	 0.0030325966	-0.499755
C	 0.0245185996	 0.0254024676	 0.0417932537	 0.352103
C	-0.8225587645	-0.8467039306	 0.9317892938	-0.328282
C	 0.6722612764	-0.8957782164	 1.0850153833	-0.089992
C	 1.2717458863	-1.7756348791	-0.0168476861	-0.249935
C	 0.6546222052	-0.8118730121	-1.0883330104	-0.050499
C	-0.2598521008	-1.3878437369	-2.1792558881	-0.298491
C	 0.5276935247	-2.1905301718	-3.1879254632	 0.163683
O	 0.3816186926	-3.3657960035	-3.4064512018	-0.24013
H	 0.8315810813	 1.9972987613	-0.309510077	 0.115177
H	-0.8877359863	 1.8390092703	-0.6980747727	 0.119234
H	-0.3701212561	 1.9205608712	 0.9878031361	 0.12035
H	-1.3541038152	-0.3097559132	 1.7116369163	 0.109479
H	-1.3641021797	-1.7085352187	 0.5478658125	 0.10624
H	 1.1627732875	-0.6270838533	 2.013213638	 0.085417
H	 2.3634698649	-1.7839620133	-0.0382416203	 0.104775
H	 0.9163478845	-2.8115259344	-0.0405543871	 0.107036
H	 1.4545465811	-0.2325348851	-1.5642266476	 0.074215
H	-1.0402542603	-2.0276012422	-1.7588976579	 0.118431
H	-0.7408868807	-0.5557326737	-2.7139056764	 0.113586
H	 1.304578306	-1.6018262301	-3.7328706616	 0.067357
46.7005	67.0388	152.1653	160.489	202.5397	258.6686	306.8869	372.4615	428.5437	458.6574	538.6521	609.6769	712.6835	781.9511	812.4471	861.7275	870.7165	910.0953	959.5498	966.1912	995.4279	1023.7516	1045.1473	1052.1995	1085.3887	1091.7708	1109.4309	1145.9416	1169.5592	1216.7016	1228.0551	1247.0824	1267.2277	1287.5396	1303.8449	1370.6647	1400.4744	1423.1801	1428.1247	1462.1367	1484.7661	1486.7667	1497.7949	1507.3097	1832.5612	2841.9976	3010.8885	3016.2123	3032.3349	3045.3074	3072.2473	3093.7206	3100.2498	3105.6062	3108.9228	3177.2959	3193.1276
CC12CC1CC2CC=O	C[C@]12C[C@H]1C[C@H]2CC=O	
InChI=1S/C8H12O/c1-8-5-7(8)4-6(8)2-3-9/h3,6-7H,2,4-5H2,1H3	InChI=1S/C8H12O/c1-8-5-7(8)4-6(8)2-3-9/h3,6-7H,2,4-5H2,1H3/t6-,7-,8-/m1/s1
