18
gdb 85969	3.34626	1.19638	1.02645	5.7341	68.02	-0.2528	0.0152	0.2679	1175.3242	0.148016	-476.244887	-476.236346	-476.235402	-476.278216	33.03	
N	 0.0160443126	 0.160969345	 0.3983197279	-0.515285
H	-0.6837334772	-0.671675794	 2.1909064148	 0.287595
H	 1.0186687753	 0.184686603	 0.2329860773	 0.238497
H	-0.4183164397	-0.1239887264	-0.4753270858	 0.238513
C	-0.4661385149	 1.4934840224	 0.7960810207	-0.024273
C	-1.919005494	 1.3708043154	 1.3259030828	-0.25488
C	-1.3229834818	 1.0599804625	 2.7336403632	 0.273012
O	-1.1436261642	-0.3222815877	 2.975052027	-0.521288
C	-0.0238858905	 1.7789735524	 2.2553139334	-0.254953
C	-2.0418236845	 1.6714358812	 3.9307543632	 0.401314
O	-2.3373473378	 0.8069316355	 4.9118801868	-0.375572
O	-2.3208917203	 2.8403085503	 3.9873892049	-0.352856
H	-0.2703498868	 2.2763221277	 0.0532156757	 0.066844
H	-2.4325560834	 2.3335960785	 1.3332312575	 0.133918
H	-2.5581857683	 0.598494252	 0.8904667336	 0.102977
H	-2.0097408728	-0.0638449207	 4.625306981	 0.319534
H	 0.9207333533	 1.3479448653	 2.5967205382	 0.102939
H	-0.0672505551	 2.8430820577	 2.4931174877	 0.133965
55.1688	137.5018	163.9809	259.5452	321.7042	372.7074	384.3252	420.1987	434.7159	477.2595	544.7865	612.422	705.2571	727.2258	732.2071	829.7229	852.3904	864.1985	921.1675	923.7722	939.6992	1012.9316	1031.0961	1077.5744	1107.9979	1167.16	1171.4114	1205.0605	1235.8644	1259.1871	1275.119	1329.6495	1375.4032	1400.2851	1444.2289	1452.8449	1479.1374	1650.1614	1863.711	3017.9401	3066.0252	3071.098	3139.9545	3141.7605	3482.7315	3561.5496	3609.6709	3662.0638
[NH3+]C1CC(O)(C1)C([O-])=O	N[C@H]1C[C@@](O)(C1)C(=O)O	
InChI=1S/C5H9NO3/c6-3-1-5(9,2-3)4(7)8/h3,9H,1-2,6H2,(H,7,8)	InChI=1S/C5H9NO3/c6-3-1-5(9,2-3)4(7)8/h3,9H,1-2,6H2,(H,7,8)/t3-,5+
