19
gdb 51242	3.36446	1.12675	0.98274	4.1393	75.94	-0.2678	0.0056	0.2734	1243.7596	0.158557	-423.024389	-423.015731	-423.014786	-423.059769	31.361	
O	-0.0703513714	 0.0201934621	-0.2511280558	-0.276441
C	-0.0277888805	 1.2050588731	-0.0980721552	 0.145694
O	 1.1258678228	 1.8981510225	-0.1016473471	-0.23886
C	 1.032780769	 3.3065620888	 0.0912341528	 0.432725
C	 0.4741072713	 4.1413396042	-1.0896951482	-0.287738
C	 1.7648056539	 5.0189724008	-1.0662304773	-0.223994
C	 2.337063161	 4.1643553611	 0.0982155528	-0.079553
C	 1.9743891926	 4.6792066049	 1.5184982775	-0.224012
C	 0.6858483094	 3.7981031847	 1.5200757155	-0.287741
H	-0.9190333244	 1.8423860449	 0.0587297853	 0.079139
H	 0.3829391173	 3.5450344416	-2.000402638	 0.119677
H	-0.4753724908	 4.6519787697	-0.907777212	 0.10223
H	 2.3450806142	 4.956234773	-1.9888111327	 0.113145
H	 1.6141502443	 6.0747098141	-0.8273348843	 0.103832
H	 3.3232684176	 3.7227869228	-0.0397814838	 0.083015
H	 2.6921259363	 4.3939396957	 2.2900457562	 0.113146
H	 1.809624767	 5.7574895094	 1.5856344902	 0.103839
H	-0.2696826368	 4.3182867901	 1.6283547655	 0.102243
H	 0.7279435969	 2.9861448567	 2.2496216587	 0.119655
26.9188	34.9168	126.9962	150.1217	275.47	324.7703	396.1955	418.3159	500.3164	618.5225	735.4801	752.3738	753.8138	857.0565	875.0456	892.7419	929.8462	954.5548	993.9403	1018.1947	1031.9339	1047.8512	1083.2142	1131.8636	1173.7091	1183.6372	1185.9142	1225.5345	1233.6866	1233.7811	1252.9711	1275.1031	1288.5852	1299.7646	1306.854	1430.6904	1466.4263	1475.6445	1484.087	1501.4981	1860.7426	2953.6924	3057.0135	3059.1098	3065.8797	3068.3818	3106.0646	3106.1067	3119.1843	3123.5186	3130.4474
O=COC12CCC1CC2	O=CO[C@]12CC[C@H]1CC2	
InChI=1S/C7H10O2/c8-5-9-7-3-1-6(7)2-4-7/h5-6H,1-4H2	InChI=1S/C7H10O2/c8-5-9-7-3-1-6(7)2-4-7/h5-6H,1-4H2/t6-,7-
