20
gdb 71664	2.75995	2.01286	1.77346	1.7916	80.49	-0.2302	0.093	0.3232	898.0872	0.174398	-365.995886	-365.989286	-365.988342	-366.026317	28.503	
C	-0.0432005469	 1.5568209148	 0.0021817836	-0.510238
C	-0.00871618	 0.0468143834	 0.0354113403	 0.317598
C	-1.2253770605	-0.8352848063	 0.4655451404	-0.262695
C	-0.1283412979	-1.9109080999	 0.6191020333	-0.006951
C	 0.8510402785	-0.7858560571	 1.0645483593	-0.077167
C	 2.2065331725	-1.0999996002	 0.4553390088	-0.262114
C	 1.6891193181	-1.5023995548	-0.910445785	-0.03887
C	 0.4654727769	-0.7116504686	-1.2151567321	-0.083531
N	 0.3429226348	-2.1345447238	-0.7898804307	-0.131724
H	 0.9496207959	 1.9742758634	-0.2007485229	 0.118357
H	-0.717825279	 1.9185060776	-0.7828075518	 0.118451
H	-0.3919681576	 1.9685201762	 0.9548452319	 0.115283
H	-1.6521698464	-0.5252995457	 1.4236769972	 0.092833
H	-2.0179630476	-1.0189828972	-0.2649417526	 0.098623
H	-0.2708664223	-2.8402622944	 1.1693886943	 0.066456
H	 0.7938228333	-0.4616195674	 2.1020704282	 0.068516
H	 2.8757530324	-0.2338190219	 0.4091485361	 0.102723
H	 2.7274923411	-1.9146791128	 0.9705277739	 0.103385
H	 2.3335837109	-1.9037585402	-1.6847877172	 0.088019
H	 0.1409368537	-0.4440959452	-2.2153973953	 0.083046
207.6346	230.6877	269.7606	398.1714	434.509	508.6198	587.0037	675.0147	704.2794	744.923	787.946	811.5209	843.0905	874.1043	878.3222	919.3394	923.1216	950.9279	962.1288	990.1228	1012.4156	1021.2052	1048.3082	1063.5358	1093.3525	1111.8389	1137.37	1175.9741	1206.4799	1213.7935	1230.3095	1234.0214	1250.3279	1255.2357	1278.2889	1302.6349	1361.7509	1378.3592	1413.8826	1484.9983	1492.5737	1493.7665	1497.5021	3023.6097	3040.6657	3053.7321	3082.9784	3085.525	3095.3196	3113.5087	3119.7987	3138.3225	3160.2144	3178.8681
CC12CC3C1CC1C2N31	C[C@]12C[C@@H]3[C@H]1C[C@@H]1[C@H]2N31	
InChI=1S/C8H11N/c1-8-3-6-4(8)2-5-7(8)9(5)6/h4-7H,2-3H2,1H3	InChI=1S/C8H11N/c1-8-3-6-4(8)2-5-7(8)9(5)6/h4-7H,2-3H2,1H3/t4-,5-,6-,7-,8+,9?/m1/s1
