17
gdb 9617	3.12264	1.5979	1.29327	5.3178	70.01	-0.2698	0.0333	0.3031	999.3766	0.140266	-363.856451	-363.847698	-363.846754	-363.889644	31.36	
C	 0.129609052	 1.250631278	 0.23240362	-0.250271
O	-0.2305970051	-0.0313797537	-0.2529115525	-0.269862
C	 0.5951276325	-0.5364835442	-1.2532811201	 0.436892
C	 0.4299826453	 0.0938959357	-2.6191586229	-0.457605
C	 1.925484725	-1.0887909416	-0.8237909496	-0.342029
C	 0.7825484103	-2.0428941952	-1.1766968183	-0.249984
C	 0.1465111267	-2.7975101731	-0.1345092441	 0.309258
N	-0.3602823493	-3.431077637	 0.6897453443	-0.341563
H	 1.1698030016	 1.27226702	 0.5854104725	 0.112052
H	-0.0002293139	 2.0328512404	-0.527524189	 0.114357
H	-0.536529956	 1.4620974429	 1.0708725883	 0.140939
H	 0.7413665142	 1.1432914439	-2.6094124325	 0.128781
H	 1.0389440262	-0.4231414403	-3.3656761401	 0.12389
H	-0.6176103984	 0.0488811009	-2.9311961624	 0.139836
H	 2.7670272067	-1.0517985179	-1.5061314108	 0.127539
H	 2.1752796342	-1.0167763308	 0.2278475392	 0.144448
H	 0.8543127681	-2.5698208881	-2.122318462	 0.13332
92.9655	120.8661	143.1929	182.3978	217.0298	274.9012	319.4086	366.2677	397.4858	458.4003	561.0828	647.4556	697.8575	791.6183	855.8601	926.2629	936.5972	1000.4223	1067.9012	1082.4256	1101.6754	1117.8558	1133.4543	1181.2345	1219.1529	1257.2436	1305.7185	1394.4968	1417.6858	1473.4436	1475.464	1481.3414	1492.7024	1503.0845	1509.8535	2358.7397	2998.2995	3040.6268	3053.4404	3108.2805	3121.2787	3130.7944	3144.2343	3168.648	3240.4246
COC1(C)CC1C#N	CO[C@@]1(C)C[C@H]1C#N	
InChI=1S/C6H9NO/c1-6(8-2)3-5(6)4-7/h5H,3H2,1-2H3	InChI=1S/C6H9NO/c1-6(8-2)3-5(6)4-7/h5H,3H2,1-2H3/t5-,6-/m0/s1
