19
gdb 35849	3.20203	1.16783	0.90113	4.5795	81.39	-0.237	-0.0019	0.2351	1274.0621	0.161745	-382.080661	-382.072259	-382.071315	-382.114136	31.832	
N	-0.1353205966	-1.131150804	-0.2751267341	-0.321886
C	-0.0657566712	 0.0161397613	-0.1581493924	 0.283911
C	 0.0049077088	 1.4774365253	 0.0329067591	-0.124365
C	-0.8368687192	 1.8702490223	 1.2716383546	-0.188035
C	-1.0983410723	 3.377782406	 1.4036616998	-0.273306
C	 0.1016239597	 4.2666935813	 1.6341693058	-0.050401
C	 1.2659863479	 4.2450290454	 0.9842879833	-0.063252
C	 1.6744012464	 3.3016638389	-0.1312285238	-0.220174
N	 1.4081121614	 1.8741371118	 0.0394097562	-0.275581
H	-0.4523311831	 1.9350044044	-0.8560792621	 0.125529
H	-1.8003875407	 1.3510228248	 1.214146265	 0.118683
H	-0.3283941585	 1.4946442226	 2.1673386847	 0.111749
H	-1.6317930364	 3.7219989032	 0.5038695486	 0.117236
H	-1.8042760502	 3.5213913985	 2.2281614204	 0.111378
H	-0.0308366202	 5.0303709113	 2.3976020705	 0.094163
H	 2.0102490136	 4.9928110651	 1.2520510576	 0.091915
H	 1.1953966505	 3.6115891934	-1.0720923269	 0.121567
H	 2.7510404035	 3.4040842115	-0.3026659815	 0.115597
H	 1.8557880867	 1.5318238269	 0.8837693753	 0.225274
46.2514	150.1085	163.5988	203.0303	318.9372	325.6282	363.919	451.1498	484.112	545.302	554.7289	691.1687	709.4675	751.1937	813.3156	871.2775	895.4738	923.1946	995.3135	1005.2311	1016.6325	1054.8581	1078.4754	1105.5767	1164.667	1191.4756	1240.4597	1272.2487	1300.3719	1307.2057	1365.7034	1366.4432	1377.8496	1388.6025	1422.6804	1469.1861	1475.1493	1479.9513	1506.1097	1724.9264	2360.1772	2992.0173	3001.5266	3015.3501	3034.0249	3065.8497	3067.9031	3078.794	3132.8443	3157.7516	3520.4578
N#CC1CCC=CCN1	N#C[C@H]1CCC=CCN1	
InChI=1S/C7H10N2/c8-6-7-4-2-1-3-5-9-7/h1,3,7,9H,2,4-5H2	InChI=1S/C7H10N2/c8-6-7-4-2-1-3-5-9-7/h1,3,7,9H,2,4-5H2/t7-/m1/s1
