23
gdb 75611	1.76403	1.71588	1.13108	2.789	85.73	-0.2307	-0.0094	0.2213	1234.0097	0.202443	-388.318841	-388.308167	-388.307223	-388.353864	39.675	
C	-1.2829260913	 0.5771359415	-1.3066841679	-0.419455
C	-0.1103669268	-0.3015004244	-0.8974677373	-0.117402
C	 1.3044324902	 0.0802598588	-1.3450479633	 0.372243
O	 1.7352638781	 0.7102689108	-2.270865019	-0.314488
C	 1.9220123317	-0.4292718011	-0.038640295	-0.117403
C	 3.118496314	 0.3004265433	 0.5532396598	-0.419455
C	 0.4666662697	-0.3431460577	 0.5745021488	 0.278876
C	 0.2284678702	 0.9646654166	 1.3327525713	-0.440176
C	 0.0375956081	-1.5455188949	 1.4109773841	-0.45752
H	-1.1261549633	 1.621689752	-1.0242478574	 0.124292
H	-1.4097236749	 0.548076028	-2.3930667455	 0.133317
H	-2.2178735134	 0.2366243562	-0.8496975026	 0.116273
H	-0.2926391146	-1.336898704	-1.2170448825	 0.09401
H	 2.1663280541	-1.4914879871	-0.1779560508	 0.09401
H	 2.919333955	 1.3673595853	 0.6852556701	 0.124292
H	 3.4020025396	-0.1166812591	 1.5251229135	 0.116273
H	 3.9795045324	 0.2092553858	-0.1157161118	 0.133317
H	 0.5291037741	 1.8427139991	 0.7519596764	 0.123322
H	-0.8310144182	 1.0820361947	 1.5833185193	 0.116732
H	 0.7942790173	 0.979852011	 2.2701367451	 0.116731
H	 0.5974916502	-1.5939080032	 2.3521860758	 0.115921
H	-1.0273017552	-1.4917756448	 1.6655447679	 0.115922
H	 0.205879193	-2.4848510668	 0.8730501011	 0.110369
66.8157	160.6303	163.9146	171.5056	186.7421	230.2154	235.982	239.4252	257.6437	309.4745	340.3963	416.276	474.8972	523.62	586.1776	633.7712	742.5143	761.1559	794.5471	942.5127	948.9475	953.7982	968.2205	998.5187	1030.7186	1061.3525	1100.2107	1117.953	1150.9424	1169.8412	1190.9711	1227.3071	1265.9785	1291.015	1329.5628	1371.8767	1403.952	1403.9972	1405.7903	1425.2889	1479.5466	1483.5682	1492.4397	1494.3199	1494.9136	1496.887	1506.5947	1507.1766	1875.4943	3011.8891	3017.9987	3020.8242	3029.9648	3039.2285	3040.4783	3084.9806	3090.9078	3097.4977	3097.7076	3105.5917	3106.0024	3116.3665	3117.1601
CC1C(=O)C(C)C1(C)C	C[C@H]1C(=O)[C@@H](C)C1(C)C	
InChI=1S/C8H14O/c1-5-7(9)6(2)8(5,3)4/h5-6H,1-4H3	InChI=1S/C8H14O/c1-5-7(9)6(2)8(5,3)4/h5-6H,1-4H3/t5-,6+
