17
gdb 31544	3.3671	1.05263	0.85031	1.5691	72.92	-0.1668	0.0558	0.2226	1343.41	0.135458	-455.15293	-455.143399	-455.142455	-455.187459	34.778	
C	 0.2636017391	 1.0151595325	 0.6538312455	-0.32147
N	-0.0572098239	 0.105869571	-0.4532982279	-0.385639
C	-1.3010995036	-0.5485399219	-0.3629770531	 0.285911
C	-2.5899330674	-0.1879080164	-0.6886533033	-0.340156
C	-3.4319496728	-1.2993351351	-0.3721718502	 0.155341
O	-4.7893640374	-1.4681777308	-0.5703860739	-0.464783
C	-2.6313293485	-2.2907070525	 0.1377246438	 0.313176
O	-2.9225524918	-3.5415508256	 0.5754705462	-0.446391
N	-1.3424236461	-1.8398078782	 0.1419519822	-0.32456
H	 1.253731946	 1.4506464734	 0.4860066338	 0.114025
H	-0.4641547336	 1.8312240077	 0.7828822033	 0.104985
H	 0.298870037	 0.4476247159	 1.58833209	 0.125964
H	 0.0224290071	 0.5927141619	-1.3375243815	 0.230945
H	-2.9008906619	 0.7601582397	-1.1009496224	 0.086672
H	-5.2607279404	-0.7908173732	-0.0742329442	 0.294198
H	-3.8736657476	-3.6522798493	 0.456313634	 0.307641
H	-0.5299851142	-2.3846967991	 0.3742176576	 0.264142
44.3133	121.4063	183.5318	203.9727	245.0542	267.3493	270.3549	314.3723	351.5528	383.5442	454.6026	519.6987	590.0022	647.6845	664.8746	671.8426	747.793	771.8088	826.8239	994.817	1051.2973	1134.4133	1141.6782	1161.1307	1176.8438	1189.3232	1256.6742	1286.4857	1388.4437	1411.9795	1451.8538	1481.1256	1488.765	1513.5065	1554.973	1576.7426	1684.551	2982.4339	3070.869	3110.0813	3242.936	3547.0571	3681.342	3794.4355	3804.8193
CNC1=CC(O)=C(O)N1	CNc1cc(O)c(O)[nH]1	
InChI=1S/C5H8N2O2/c1-6-4-2-3(8)5(9)7-4/h2,6-9H,1H3	InChI=1S/C5H8N2O2/c1-6-4-2-3(8)5(9)7-4/h2,6-9H,1H3
