20
gdb 113109	5.77501	0.67073	0.6457	3.6216	78.17	-0.2254	-0.0243	0.2011	1744.5958	0.168208	-440.247162	-440.237352	-440.236408	-440.283112	34.183	
C	-0.3816570018	 1.3400131734	 0.1565249668	-0.239261
O	 0.2441892622	 0.1057943584	-0.1151274842	-0.240946
C	 0.8556166574	-0.4660158648	 1.0097562633	 0.137695
C	-0.0919850954	-1.2447964966	 1.9696345191	-0.202542
N	 0.310523924	-2.4993666177	 1.3035062051	-0.079975
C	 0.5237360411	-3.6851407213	 2.0939427119	-0.240767
C	 0.6791344099	-4.9161630939	 1.2132982646	 0.157404
O	 1.3874792296	-5.8536314764	 1.4706964592	-0.236387
C	 1.4685940422	-1.8372762012	 0.6641887204	-0.200846
H	 0.3361785487	 2.0811635886	 0.542115211	 0.105937
H	-0.7974101238	 1.7057373201	-0.7850173492	 0.132099
H	-1.1985838627	 1.2401690568	 0.8868897156	 0.107996
H	 1.5236720722	 0.257194221	 1.4959380328	 0.071112
H	 0.2301143746	-1.1749891493	 3.0203119722	 0.088333
H	-1.1618427048	-1.0179152034	 1.9048527737	 0.108772
H	 1.3852306769	-3.6315461332	 2.7848488962	 0.100937
H	-0.3745817232	-3.8584013661	 2.7058725334	 0.129767
H	 0.0542620416	-4.879560111	 0.2926034514	 0.086803
H	 1.5897923391	-2.0430655239	-0.4035237459	 0.120305
H	 2.4219876124	-2.0179662993	 1.1844820323	 0.093562
50.9199	61.2	100.6573	114.8716	179.3762	217.3799	254.348	307.8516	368.1613	421.8073	462.3166	488.1064	706.3452	791.4811	832.7201	863.4811	931.214	1003.5467	1020.1805	1025.2945	1062.5755	1103.4392	1139.0722	1141.6772	1158.7042	1183.7714	1188.0744	1238.2022	1246.6276	1254.1938	1275.6658	1291.2628	1334.6378	1353.2262	1397.0221	1404.6419	1454.3122	1482.3132	1485.4398	1490.3945	1509.4098	1511.8792	1838.3884	2886.7382	2939.6505	2974.8656	2978.3813	2985.2554	3016.4282	3020.8271	3024.1327	3061.6122	3080.7362	3119.7588
COC1CN(CC=O)C1	COC1CN(CC=O)C1	
InChI=1S/C6H11NO2/c1-9-6-4-7(5-6)2-3-8/h3,6H,2,4-5H2,1H3	InChI=1S/C6H11NO2/c1-9-6-4-7(5-6)2-3-8/h3,6H,2,4-5H2,1H3
