18
gdb 14265	3.01885	2.61007	1.83201	1.2002	72.1	-0.2341	0.0144	0.2485	786.4123	0.156441	-347.784291	-347.777844	-347.776899	-347.814474	26.417	
C	 0.0683815871	 1.595396098	-0.1930002457	-0.224291
C	 1.5657485188	 1.4208637675	 0.1850742737	 0.137363
C	 1.1708483339	 0.1016919551	 0.9025293826	-0.261766
C	-0.1032490072	 0.0527559296	 0.0027756495	-0.058371
C	 0.1297868354	-0.7137600977	-1.2721957613	-0.066409
C	 1.2630604608	-0.6868715905	-1.97428909	-0.07356
C	 2.528128967	 0.0658924905	-1.6256530143	-0.120468
O	 2.4147893204	 1.3048859422	-0.943285744	-0.272163
H	-0.4739761889	 2.1670023316	 0.5664665129	 0.093826
H	-0.1363223041	 2.0043057768	-1.1839589802	 0.103164
H	 2.0142367308	 2.2053213117	 0.8006852956	 0.076838
H	 1.8595340237	-0.7444530689	 0.8632618746	 0.105357
H	 0.9175492807	 0.3024370057	 1.9469879379	 0.101506
H	-1.0263793897	-0.2751657397	 0.4853639124	 0.062575
H	-0.6975380447	-1.312924366	-1.6439874632	 0.086414
H	 1.3379506169	-1.2848555364	-2.8800797455	 0.090854
H	 3.2001032161	-0.6118801849	-1.0702343948	 0.10444
H	 3.055938623	 0.3171943055	-2.5519650101	 0.114692
161.4986	232.8561	336.8187	368.8515	404.1763	469.4955	536.6083	693.2484	745.9153	774.0102	800.1226	825.4769	886.7388	900.2216	918.8063	950.1469	982.3276	1004.254	1027.704	1072.4672	1083.8491	1090.0017	1143.3849	1159.0949	1209.3764	1247.7066	1252.9751	1269.9428	1276.5798	1288.2526	1361.4161	1381.901	1410.5238	1413.4988	1459.7185	1483.083	1500.1442	1717.5901	2947.5322	3051.6444	3059.7608	3061.4528	3071.7288	3081.8328	3121.9209	3125.4995	3141.4417	3165.9892
C1C2CC1C=CCO2	C1[C@H]2C[C@@H]1C=CCO2	
InChI=1S/C7H10O/c1-2-6-4-7(5-6)8-3-1/h1-2,6-7H,3-5H2	InChI=1S/C7H10O/c1-2-6-4-7(5-6)8-3-1/h1-2,6-7H,3-5H2/t6-,7+
