21
gdb 59259	2.54986	1.27604	1.05663	1.6596	79.1	-0.2288	0.0764	0.3052	1249.984	0.18046	-424.186036	-424.176375	-424.17543	-424.22049	36.212	
C	 0.160422358	 1.3315448381	-0.3856016439	-0.399116
C	 0.0715423143	-0.0920851534	 0.1682240294	 0.088724
O	 0.4358200996	-0.1324123776	 1.5502851866	-0.442939
C	-1.3326039749	-0.6453986376	 0.1059627945	-0.039587
C	-2.0356765313	-1.1305288469	-1.1517994392	-0.21926
C	-1.0790098492	-1.9507917348	-2.005637631	-0.098284
O	-0.6808388282	-2.7557028169	-0.8663965706	-0.318511
C	-1.6607454331	-2.0999364251	-0.0385097682	 0.437958
C	-2.4227100523	-2.9546736158	 0.9193236784	-0.488191
H	 1.184446571	 1.7161833409	-0.3113322608	 0.101681
H	-0.1312005068	 1.3612024759	-1.4404580652	 0.11686
H	-0.4966951835	 2.0025729424	 0.1768953534	 0.120101
H	 0.7341603247	-0.7526085443	-0.4082083208	 0.080954
H	 1.34155448	 0.1845440369	 1.6241178261	 0.27851
H	-2.0177971455	-0.1296451199	 0.7769474489	 0.091358
H	-2.9997569694	-0.7547022566	-1.4687272872	 0.09465
H	-1.5918496319	-2.5703266467	-2.7505222832	 0.107213
H	-0.2293931706	-1.44337444	-2.4782303718	 0.100962
H	-1.749981474	-3.3575135541	 1.6846135665	 0.139078
H	-3.1942288047	-2.3676693643	 1.4256325533	 0.123763
H	-2.8990130122	-3.79543436	 0.4052810748	 0.124076
53.407	120.44	174.9355	199.6982	233.8771	240.4899	264.3705	303.2438	332.0046	385.1543	459.442	519.6347	559.9938	671.1446	793.1176	802.6117	868.6909	892.0179	929.831	957.9512	970.6424	996.0408	1011.239	1037.4284	1083.1391	1099.5827	1121.1082	1125.3562	1153.0368	1170.4415	1203.5308	1244.6209	1289.5804	1313.8133	1340.856	1365.1386	1400.9248	1404.2293	1423.9473	1473.6644	1481.2044	1490.0976	1497.3876	1514.2237	1524.9068	3009.8444	3020.8354	3025.7182	3034.1408	3064.3519	3092.1806	3098.8238	3110.4837	3116.288	3131.5977	3194.3167	3816.218
CC(O)C1C2COC12C	C[C@@H](O)[C@H]1[C@H]2CO[C@@]12C	
InChI=1S/C7H12O2/c1-4(8)6-5-3-9-7(5,6)2/h4-6,8H,3H2,1-2H3	InChI=1S/C7H12O2/c1-4(8)6-5-3-9-7(5,6)2/h4-6,8H,3H2,1-2H3/t4-,5-,6+,7-/m1/s1
