17
gdb 32471	3.07276	1.10034	0.85067	2.1948	74.73	-0.1911	0.0199	0.2111	1342.6605	0.135007	-455.155343	-455.145781	-455.144836	-455.191013	33.124	
C	 0.0854477469	 1.426882221	 0.0533953388	-0.320116
N	 0.0956794837	-0.0239828081	-0.0050471882	-0.381904
C	 0.6443092638	-0.6573004994	 0.9373965124	 0.509551
N	 0.7487162917	-2.0297723965	 1.0666936719	-0.369867
C	 1.3819904365	-2.341700537	 2.26450166	-0.189561
C	 1.6953726557	-1.1867109494	 2.8638815032	 0.321036
C	 2.3997928409	-0.818186895	 4.1160457889	-0.182719
O	 3.6546425339	-0.1862626892	 3.8915230639	-0.410118
O	 1.261896846	-0.1302545547	 2.0615629643	-0.267729
H	 1.0487007	 1.8524125756	-0.2631750224	 0.112418
H	-0.6778770832	 1.8052162249	-0.632208049	 0.117167
H	-0.1300775042	 1.8194859101	 1.0570643287	 0.109505
H	 0.2987542914	-2.6616807264	 0.4301377976	 0.273987
H	 1.5659372542	-3.3557181363	 2.5753579065	 0.153511
H	 1.7478796865	-0.1796524891	 4.7331174671	 0.106772
H	 2.6066987391	-1.7286355623	 4.685469227	 0.125184
H	 3.4884893771	 0.5913832219	 3.3479255796	 0.292884
39.0629	66.3033	118.9933	125.7243	187.0684	235.5785	273.635	334.1324	351.2753	439.254	531.0496	596.8005	672.4106	723.9235	764.9999	789.0427	899.2363	953.644	984.9681	1038.7445	1071.0822	1084.5414	1126.4463	1139.7761	1180.8996	1219.7983	1273.2846	1360.2383	1374.0811	1413.7329	1421.4262	1448.0069	1485.8872	1492.7209	1502.4878	1723.5967	1815.8154	2979.7693	2988.7371	3034.6181	3092.4034	3095.5996	3288.1345	3708.1599	3814.2866
CN=C1NC=C(CO)O1	CN=c1[nH]cc(CO)o1	
InChI=1S/C5H8N2O2/c1-6-5-7-2-4(3-8)9-5/h2,8H,3H2,1H3,(H,6,7)	InChI=1S/C5H8N2O2/c1-6-5-7-2-4(3-8)9-5/h2,8H,3H2,1H3,(H,6,7)
