21
gdb 41952	2.25719	1.94598	1.62563	0.4287	76.74	-0.2281	0.0774	0.3055	968.9035	0.187178	-424.243819	-424.236732	-424.235788	-424.274862	29.698	
C	-0.025010668	 1.5312214494	-0.1920352465	-0.204148
C	 1.4017995676	 2.0816310285	-0.0198830066	-0.204906
C	 2.1097652288	 1.486152472	 1.2081269822	 0.089049
C	 1.5179414487	 1.8935579991	 2.5616650872	-0.087146
O	 0.2091567899	 1.3721256844	 2.7443141593	-0.250813
C	 0.182302588	-0.0366986649	 2.5635958347	-0.087146
C	 0.770887289	-0.4487843737	 1.2100621499	 0.089049
C	-0.0370518468	 0.0022109977	-0.0178034193	-0.204906
O	 2.1088939563	 0.0559842993	 1.1229734886	-0.280761
H	-0.6881969781	 1.9908491922	 0.5445309491	 0.119891
H	-0.4095669892	 1.7963234423	-1.1831860437	 0.087292
H	 2.0041980775	 1.8196352672	-0.8981479053	 0.100246
H	 1.3929728986	 3.175791352	 0.0475016583	 0.091692
H	 3.1661691259	 1.7779888773	 1.1970665738	 0.078474
H	 2.1836827742	 1.5262683725	 3.3600663332	 0.092267
H	 1.4358083195	 2.9814622113	 2.6494345124	 0.104596
H	 0.7614147223	-0.5291869921	 3.3621210822	 0.092266
H	-0.864654907	-0.3431535492	 2.6527608323	 0.104596
H	 0.8701040344	-1.5402704326	 1.2003844894	 0.078474
H	-1.0640463657	-0.3750783381	 0.0510518522	 0.091692
H	 0.4196270449	-0.4703774636	-0.8958578135	 0.100246
161.317	261.5494	274.5094	337.7595	402.7533	416.3027	420.4646	470.9491	568.966	718.4819	758.552	784.2797	820.6883	860.6782	866.9578	875.4531	937.7632	977.3814	983.1145	984.6638	1052.7228	1066.2663	1095.6721	1108.3114	1148.5917	1149.0538	1196.8097	1227.3487	1263.7692	1285.6322	1307.3405	1339.2422	1350.0075	1353.2178	1363.0298	1389.5721	1390.7688	1400.7243	1401.2487	1422.783	1469.1872	1479.1786	1482.8929	1493.8159	1507.905	2969.0574	2974.241	3024.1811	3024.8012	3043.0883	3046.3655	3050.7117	3063.6125	3066.642	3081.0904	3082.6895	3107.4838
C1CC2COCC(C1)O2	C1C[C@H]2COC[C@@H](C1)O2	
InChI=1S/C7H12O2/c1-2-6-4-8-5-7(3-1)9-6/h6-7H,1-5H2	InChI=1S/C7H12O2/c1-2-6-4-8-5-7(3-1)9-6/h6-7H,1-5H2/t6-,7+
