21
gdb 82240	2.49891	1.8469	1.37865	1.7357	80.46	-0.2519	0.0814	0.3333	1025.3787	0.184554	-387.077518	-387.069804	-387.06886	-387.109409	31.17	
C	 0.01191012	 1.6017865245	-0.0935119626	-0.400722
C	 0.0409609638	 0.0722242304	-0.0200377108	-0.02053
C	 0.7272787555	-0.598167983	-1.2015503663	 0.041516
O	 2.1559376317	-0.4644089417	-1.1968170605	-0.261963
C	 1.5817277929	-1.7033323981	-0.7412432895	 0.023975
C	 1.5143995032	-1.823016236	 0.7681501744	-0.052112
C	 2.7721120333	-1.3471642742	 1.5509242209	-0.222521
C	 2.1186043976	 0.0540796348	 1.7208682986	-0.224357
C	 0.7591182086	-0.5271629469	 1.2167360045	-0.023517
H	 1.021922218	 2.0120002055	-0.1752150196	 0.132185
H	-0.5576456866	 1.9420088055	-0.9648198694	 0.111155
H	-0.4576403711	 2.0295826093	 0.7981189898	 0.113079
H	-0.9969792501	-0.2918023324	-0.0173678609	 0.071478
H	 0.2674503159	-0.5771440362	-2.188402073	 0.086551
H	 1.8136378451	-2.5658892401	-1.362342302	 0.088511
H	 1.0917689784	-2.790458696	 1.0544318474	 0.063948
H	 2.8927631744	-1.8780860655	 2.4985078722	 0.0958
H	 3.7193915105	-1.3809192576	 1.0085581215	 0.105459
H	 2.1110103154	 0.4614883282	 2.7350015069	 0.087805
H	 2.5466748475	 0.7948168547	 1.0459924135	 0.117636
H	 0.0592510758	-0.6807582553	 2.0413358949	 0.066625
125.1584	175.4843	208.0094	228.5865	263.8682	401.0489	484.7565	506.6097	629.644	662.4625	733.6662	752.5117	799.0771	837.939	869.466	876.4515	909.7788	936.0686	957.8627	979.8152	1011.3162	1029.0802	1051.1317	1063.4011	1105.9817	1111.5748	1150.1353	1161.7555	1184.6067	1228.3252	1249.7272	1257.411	1267.6864	1277.1462	1306.9762	1319.5457	1344.0314	1347.418	1370.1955	1407.5146	1428.8668	1471.5915	1490.8175	1496.9195	1502.9876	2997.3909	3036.4548	3057.5607	3064.8632	3066.8277	3080.4102	3098.0216	3112.4817	3118.0053	3122.759	3138.8845	3141.6043
CC1C2OC2C2CCC12	C[C@H]1[C@H]2O[C@H]2[C@H]2CC[C@@H]12	
InChI=1S/C8H12O/c1-4-5-2-3-6(5)8-7(4)9-8/h4-8H,2-3H2,1H3	InChI=1S/C8H12O/c1-4-5-2-3-6(5)8-7(4)9-8/h4-8H,2-3H2,1H3/t4-,5+,6+,7-,8+/m1/s1
