14
gdb 25102	3.21611	1.50558	1.13114	3.9235	75.75	-0.2504	-0.0781	0.1724	1028.098	0.104066	-429.060236	-429.053018	-429.052074	-429.092467	27.051	
N	-0.1297632836	 1.219722532	 0.7626024014	-0.504336
C	-0.0183762934	 0.1496432884	 0.0770091554	 0.351656
N	-1.1947871703	-0.4734758265	-0.3360493906	-0.324683
C	-1.3609576745	-1.6414828773	-1.0442182981	 0.091893
N	-0.5518230104	-2.2480976799	-1.8192637007	-0.281339
C	 0.6998260972	-1.7046047031	-2.1678739622	 0.340935
N	 1.1132385682	-1.6338438471	-3.3658875984	-0.457694
N	 1.6016542463	-1.3165320364	-1.1497072835	-0.183804
C	 1.2813425133	-0.5259278335	-0.2132466396	-0.041962
H	 0.7845482303	 1.5607554939	 1.0562160852	 0.237377
H	-2.021813747	-0.0545577449	 0.0696988106	 0.269876
H	-2.3576754452	-2.0637728728	-0.9119318972	 0.137318
H	 0.3745685723	-1.9625722641	-3.9905189258	 0.229784
H	 2.0614888368	-0.2566214886	 0.5039464735	 0.13498
59.8594	116.9905	280.4749	335.9769	367.0111	429.6718	473.8713	549.2237	621.4873	654.8304	719.0686	748.3239	818.7556	842.6641	865.2801	898.8796	925.5849	963.4339	979.1639	1018.268	1096.5933	1204.2146	1315.3093	1391.5976	1426.9569	1454.6986	1490.6517	1687.0421	1703.3619	1714.9925	1741.2194	3093.8782	3130.1443	3475.2537	3500.5529	3584.4819
N=C1NC=NC(=N)N=C1	[NH][C]1NC=N[C]([NH])N=C1	
InChI=1S/C4H5N5/c5-3-1-7-4(6)9-2-8-3/h1-2H,(H3,5,6,8,9)	InChI=1S/C4H5N5/c5-3-1-7-4(6)9-2-8-3/h1-2H,(H3,5,6,8,9)
