17
gdb 60799	2.24972	1.42449	1.20864	2.2946	65.91	-0.2594	-0.0477	0.2117	1097.6442	0.131223	-496.114014	-496.104278	-496.103334	-496.148532	35.191	
C	 0.535059993	 1.038673029	 1.2342920211	-0.429445
C	 0.0756930618	-0.0339163814	 0.2418679609	 0.245868
O	-0.0811273601	-1.2386694992	 0.96358052	-0.464269
C	-1.280772453	 0.3947147699	-0.3279003188	 0.120941
O	-1.4086824121	 1.1078263359	-1.2902181748	-0.242217
C	 1.0926818196	-0.261436809	-0.9076612569	 0.011591
O	 0.8123435918	-1.4970270213	-1.5166039598	-0.458428
C	 1.1371517158	 0.8249846903	-1.9740554781	 0.153672
O	 1.0793792647	 0.5286988271	-3.1437917641	-0.27809
H	 1.486683447	 0.7371446567	 1.680376887	 0.139396
H	 0.6509171334	 2.0111994216	 0.7486479125	 0.134046
H	-0.1978302431	 1.1386725121	 2.0398532586	 0.141609
H	-0.0753290477	-1.947206333	 0.3040926748	 0.301781
H	-2.1491871663	 0.0041538358	 0.2446298019	 0.106758
H	 2.094628222	-0.2847036353	-0.4435163441	 0.104211
H	 0.7510996771	-1.3040347903	-2.468935726	 0.303537
H	 1.3055041661	 1.8628868613	-1.6374009743	 0.10904
72.495	93.9008	148.4004	199.8621	213.0677	233.302	295.5318	339.7425	350.5048	392.6742	412.9088	483.1038	533.7681	552.4128	599.8793	731.5144	810.4972	895.2974	908.4452	958.1428	983.5109	1016.2043	1099.0527	1159.1369	1186.2254	1212.3297	1272.5347	1329.868	1368.6649	1389.0886	1392.2285	1404.5203	1427.7501	1479.5096	1496.3544	1797.6826	1824.5291	2914.2495	2956.154	2983.144	3046.4755	3122.3761	3130.6626	3638.0764	3744.5618
CC(O)(C=O)C(O)C=O	C[C@@](O)(C=O)[C@@H](O)C=O	
InChI=1S/C5H8O4/c1-5(9,3-7)4(8)2-6/h2-4,8-9H,1H3	InChI=1S/C5H8O4/c1-5(9,3-7)4(8)2-6/h2-4,8-9H,1H3/t4-,5+/m0/s1
