19
gdb 89643	4.75532	0.99026	0.93413	2.6434	76.12	-0.2483	0.0696	0.3179	1281.6158	0.158875	-422.967623	-422.959268	-422.958324	-423.000783	31.99	
O	-0.248181089	 1.4381114729	-0.2237941223	-0.430603
C	-0.1332870245	 0.0385736511	-0.083749379	 0.123009
C	 0.4727866132	-0.5347471665	 1.2483014214	-0.356104
C	-0.8617920183	-1.2460135923	 1.5120736494	 0.375975
C	-1.9677924514	-0.2373058397	 1.5740937179	-0.33573
C	-1.4539468307	-0.6536594176	 0.2205401777	-0.108523
C	-0.985721265	-2.6286331231	 2.038154335	-0.059554
C	-1.5399277156	-2.9250163419	 3.3692727323	-0.175845
O	-2.3102184067	-3.1471570829	 2.1859803511	-0.233462
H	 0.6297090751	 1.7976110584	-0.387093521	 0.282565
H	 0.3620121046	-0.4050470346	-0.9576847286	 0.070269
H	 1.3085280856	-1.2170144187	 1.0685473276	 0.098811
H	 0.7699452996	 0.2094849482	 1.9942655157	 0.096328
H	-2.9385719332	-0.6509193106	 1.8248433982	 0.128413
H	-1.7797886226	 0.7676846547	 1.9404936807	 0.115884
H	-2.1004680644	-1.1233546305	-0.5103619439	 0.092485
H	-0.2767112049	-3.3474592098	 1.6209120879	 0.086741
H	-1.2303889408	-3.8247494788	 3.8991993747	 0.114253
H	-1.8785307611	-2.1013223883	 3.9953786953	 0.115089
73.4781	109.1272	170.8754	233.4742	283.106	319.8383	352.6548	429.4256	498.3012	564.5559	657.0655	694.4349	825.2402	850.1446	860.9502	873.952	925.766	961.3877	977.513	979.9557	1013.2466	1047.8805	1072.633	1092.4879	1102.721	1114.7983	1151.5377	1168.7244	1172.7095	1206.2955	1219.1925	1245.9948	1271.9739	1296.5177	1323.2544	1391.241	1423.4452	1449.0556	1473.377	1501.1827	1523.015	3007.433	3042.7197	3079.1643	3086.0797	3099.1327	3122.7958	3175.4757	3189.6318	3218.984	3814.0955
OC1CC2(CC12)C1CO1	O[C@H]1C[C@]2(C[C@@H]12)[C@H]1CO1	
InChI=1S/C7H10O2/c8-5-2-7(1-4(5)7)6-3-9-6/h4-6,8H,1-3H2	InChI=1S/C7H10O2/c8-5-2-7(1-4(5)7)6-3-9-6/h4-6,8H,1-3H2/t4-,5-,6+,7-/m0/s1
