17
gdb 40065	3.34542	1.5696	1.46159	2.5032	66.29	-0.2527	0.0757	0.3285	941.2468	0.137796	-458.942236	-458.93552	-458.934576	-458.973337	27.004	
C	 0.0925021552	 1.5172572491	-0.0086970907	-0.264989
O	 1.226228463	 0.633915278	-0.0099159981	-0.278453
C	-0.07736127	 0.0684162469	 0.0261177007	 0.477334
C	-0.4981135451	-0.7970230943	 1.2234690796	-0.333841
C	-1.1530287614	-1.9784096355	 0.4694724762	 0.032765
C	-2.4630223011	-1.4993207563	-0.1833456108	-0.081163
O	-1.9693640285	-0.6551040306	-1.2388614196	-0.271031
C	-0.5487416955	-0.7774138685	-1.1564859593	 0.064005
O	-0.3212847467	-2.0946347587	-0.7024374902	-0.244317
H	-0.044066985	 2.0988216502	 0.901900643	 0.11669
H	-0.0762189673	 2.0636002562	-0.9360228702	 0.121211
H	 0.3881133803	-1.1253054413	 1.7713113259	 0.131197
H	-1.1790970558	-0.2924645433	 1.9128899072	 0.11243
H	-1.1982387184	-2.9282768007	 0.9983636815	 0.096859
H	-3.0384932262	-2.3269113138	-0.612269509	 0.112011
H	-3.1013075698	-0.9238446759	 0.4954566564	 0.105488
H	-0.0852882777	-0.5883975015	-2.1233563924	 0.103805
108.0847	228.8424	302.4816	322.5845	389.866	476.0672	532.1556	587.4184	731.6331	806.9567	835.2655	850.5707	862.365	911.0331	927.911	930.5737	959.6027	973.3269	999.1859	1032.0848	1084.8382	1100.0349	1122.5061	1160.7457	1173.5162	1192.976	1219.8501	1258.5069	1260.7791	1283.9939	1320.3903	1330.7335	1371.2475	1441.4845	1478.4745	1520.8795	1538.6489	3034.7271	3070.6213	3081.0713	3082.094	3124.0707	3146.4829	3151.0116	3167.8021
C1OC11CC2COC1O2	C1O[C@]21C[C@H]1CO[C@@H]2O1	
InChI=1S/C6H8O3/c1-4-2-7-5(9-4)6(1)3-8-6/h4-5H,1-3H2	InChI=1S/C6H8O3/c1-4-2-7-5(9-4)6(1)3-8-6/h4-5H,1-3H2/t4-,5+,6-/m0/s1
