19
gdb 106568	2.57276	1.55306	1.32763	2.2895	80.29	-0.2408	0.0044	0.2452	1064.4036	0.159121	-385.886155	-385.877921	-385.876977	-385.918926	31.903	
C	-0.2169350486	 1.5285318884	 0.0053575871	-0.390477
C	 0.074062032	 0.0232266625	-0.0684690272	-0.30758
C	 0.7600908506	-0.5113502251	 1.1695046096	 0.194112
C	 0.9423775254	-2.0388478725	 1.4737492456	-0.271916
C	 1.2009874833	-1.5810135975	 2.9426851624	-0.185105
C	 2.3931756743	-0.6598101233	 2.7540210532	-0.095538
C	 2.1146143858	 0.0200583069	 1.6264108218	-0.12579
C	 0.0897662627	-0.5010376958	 2.6136754044	 0.404162
O	-0.8392573339	 0.0091756787	 3.146730834	-0.314919
H	 0.7048871627	 2.1124020942	 0.0953420915	 0.115412
H	-0.7369361631	 1.8685375434	-0.89499572	 0.113962
H	-0.8455440914	 1.7581351017	 0.8703693195	 0.144935
H	-0.8680836487	-0.5202635526	-0.20957079	 0.10326
H	 0.6907264268	-0.1982027843	-0.9492989878	 0.101535
H	 0.0208200785	-2.6174933306	 1.3476513949	 0.106253
H	 1.7911455083	-2.5164636002	 0.9769861291	 0.105177
H	 1.1560107806	-2.2511170524	 3.7973999391	 0.083513
H	 3.2010013892	-0.517157981	 3.4575303426	 0.110554
H	 2.6430513456	 0.8535231696	 1.1850961903	 0.108449
80.7004	135.9251	171.3481	201.5878	267.7745	385.1778	404.0123	450.1102	564.7143	591.3699	654.7169	692.2336	772.9018	782.9163	808.3867	835.1653	859.5143	905.7144	947.1746	958.9061	983.2119	999.3086	1024.5754	1074.9896	1089.2604	1112.9926	1153.2403	1179.2201	1195.9589	1248.5315	1276.9689	1302.9936	1355.9596	1376.3761	1412.602	1478.3258	1486.699	1500.128	1510.2413	1589.3652	1903.9367	3020.1386	3040.3763	3042.6139	3053.9154	3106.4019	3117.3461	3120.642	3156.4951	3219.072	3244.0038
CCC12CC(C=C1)C2=O	CC[C@@]12C[C@@H](C=C1)C2=O	
InChI=1S/C8H10O/c1-2-8-4-3-6(5-8)7(8)9/h3-4,6H,2,5H2,1H3	InChI=1S/C8H10O/c1-2-8-4-3-6(5-8)7(8)9/h3-4,6H,2,5H2,1H3/t6-,8+/m1/s1
