13
gdb 42678	2.65954	1.71421	1.20163	3.336	67.7	-0.2791	-0.0432	0.2358	972.1522	0.089454	-415.523637	-415.516854	-415.515909	-415.555113	25.702	
O	-0.0309824052	-0.0696811304	 0.0037985978	-0.297879
C	-0.0224868275	 1.1166453482	 0.001255848	 0.515733
C	-0.9735624595	 2.3107466565	 0.018707371	-0.212609
N	 0.0210297044	 3.0689582276	 0.958136471	-0.157263
C	 0.0001912216	 4.2597958324	-6.1048*^-6	-0.224325
C	-0.038451772	 3.0917370818	-0.9827155811	 0.224546
C	-0.0828902181	 3.0864682161	-2.4274727278	 0.164255
N	-0.118310971	 3.0987028838	-3.5829163007	-0.324054
C	 0.945009671	 2.2968804549	-0.0402542505	-0.212609
H	-2.0502782641	 2.4209507404	 0.1283934977	 0.128355
H	-0.8940578021	 4.8808412071	 0.0899645845	 0.133747
H	 0.9071521007	 4.8678230058	 0.0346101453	 0.133747
H	 2.0279077146	 2.391476416	 0.0030628398	 0.128355
99.8248	177.1316	209.5405	340.9597	490.7923	496.1404	520.3334	556.9765	647.1715	691.8327	778.33	793.0494	858.653	866.1607	922.3074	1010.4714	1042.2046	1058.4874	1075.1609	1093.4045	1108.0379	1159.0169	1193.2208	1203.2924	1256.3508	1281.1781	1527.8298	1944.8531	2351.4154	3065.6847	3132.1367	3155.7224	3158.2938
O=C1C2N3CC2(C#N)C13	O=C1[C@H]2N3C[C@@]2(C#N)[C@H]13	
InChI=1S/C6H4N2O/c7-1-6-2-8-4(6)3(9)5(6)8/h4-5H,2H2	InChI=1S/C6H4N2O/c7-1-6-2-8-4(6)3(9)5(6)8/h4-5H,2H2/t4-,5+,6-
