20
gdb 52668	2.56757	0.84985	0.75035	4.2006	86.29	-0.242	0.028	0.27	1621.4748	0.167968	-403.152305	-403.141125	-403.140181	-403.190568	37.792	
C	 0.0740510033	 1.4836338474	 0.0133428576	-0.498277
C	 0.0329023975	 0.0287323368	-0.0238007788	 0.024933
C	 0.0111554608	-1.1750356496	-0.0472425307	 0.130247
C	-0.0402489197	-2.6423223302	-0.0796825308	-0.179098
C	-1.491334914	-3.1535273908	 0.0108872091	-0.383939
N	 0.6648899203	-3.1855822544	-1.2430924805	-0.016961
C	 0.2208050698	-2.8316451892	-2.5818010336	-0.349537
C	 1.7775066984	-3.9594891183	-1.0829545371	 0.157364
O	 2.4389724821	-4.4417270787	-1.9777340863	-0.345344
H	 0.8827974088	 1.8717921916	-0.6151543301	 0.154663
H	-0.8649789319	 1.9194760003	-0.3445107175	 0.15077
H	 0.2429548774	 1.8476734172	 1.0325872195	 0.152944
H	 0.5005707652	-3.0233551717	 0.7960094741	 0.117066
H	-1.5038042308	-4.247146596	 0.0092440191	 0.12417
H	-1.9538364404	-2.7937120983	 0.9334246538	 0.131539
H	-2.0902172295	-2.7913415577	-0.8281509054	 0.131931
H	 0.1147184639	-1.7458596654	-2.6690784259	 0.134386
H	 0.9764202068	-3.1891031357	-3.2811312714	 0.167005
H	-0.7389035681	-3.3009743622	-2.8254906767	 0.125022
H	 2.0192329499	-4.1107962052	-0.0120286886	 0.071118
25.2685	39.3699	82.2782	116.4782	132.0688	174.5181	246.6194	274.1411	288.44	318.887	332.8978	370.3087	414.7436	470.1516	551.2396	693.188	757.0075	854.8649	968.1671	1026.0982	1044.5043	1052.488	1053.803	1091.3717	1093.3938	1160.66	1176.1493	1262.7408	1315.4667	1324.0478	1401.7663	1414.4158	1430.5556	1440.3834	1447.9833	1477.0611	1478.2402	1487.5217	1492.949	1504.2126	1518.2613	1795.4364	2368.9743	2930.0654	3025.4805	3030.1723	3032.2625	3048.5834	3091.0055	3092.0152	3093.1506	3127.1319	3131.6994	3158.644
CC#CC(C)N(C)C=O	CC#C[C@@H](C)N(C)C=O	
InChI=1S/C7H11NO/c1-4-5-7(2)8(3)6-9/h6-7H,1-3H3	InChI=1S/C7H11NO/c1-4-5-7(2)8(3)6-9/h6-7H,1-3H3/t7-/m1/s1
