13
gdb 130138	3.24428	1.48441	1.01947	4.8624	65.22	-0.2211	-0.0598	0.1614	1056.642	0.091563	-486.113917	-486.106525	-486.105581	-486.145726	28.333	
N	-0.0130747796	 1.3838379964	 0.1602973312	-0.565381
C	-0.021536196	 0.0081678759	 0.0411980543	 0.316122
N	-1.1358915767	-0.654604909	 0.0117028241	-0.250863
N	-1.0256352054	-1.9995281491	-0.0127129771	-0.285306
C	 0.142543946	-2.7610902521	-0.0279725274	 0.447719
O	 0.1019025802	-3.9707430454	-0.0449658506	-0.38184
N	 1.3194894049	-2.0073598961	-0.0288634953	-0.410344
C	 1.2325143091	-0.7249696653	 0.0065287257	 0.408456
O	 2.3403674853	 0.0306834926	-0.0061351495	-0.403892
H	 0.7912090469	 1.8416116954	-0.2411483326	 0.269597
H	-0.8947006803	 1.8229510494	-0.0635533221	 0.263502
H	-1.9006040725	-2.5019433381	-0.0238190808	 0.278344
H	 3.0927848981	-0.5800225746	-0.0438377499	 0.313887
94.7904	210.1753	290.2286	330.1449	375.2763	386.9845	415.8273	509.3996	548.8674	584.152	606.7885	613.0239	639.2431	730.3738	764.6281	801.3178	835.436	976.3077	1086.1344	1195.8424	1213.1231	1307.0732	1341.8592	1438.9205	1512.1509	1613.8959	1628.7579	1703.3554	1816.6622	3570.0339	3628.3798	3683.6286	3738.7723
NC1=NNC(=O)N=C1O	Nc1n[nH]c(=O)nc1O	
InChI=1S/C3H4N4O2/c4-1-2(8)5-3(9)7-6-1/h(H2,4,6)(H2,5,7,8,9)	InChI=1S/C3H4N4O2/c4-1-2(8)5-3(9)7-6-1/h(H2,4,6)(H2,5,7,8,9)
