17
gdb 18705	3.2229	2.2607	1.5389	2.5081	68.71	-0.2438	0.0222	0.266	839.5783	0.145018	-363.848263	-363.841494	-363.84055	-363.879025	27.024	
O	-0.1675206625	 1.4324154135	 0.383269622	-0.441622
C	 0.0364278811	 0.0849555373	-0.0393877979	 0.090126
C	 0.9943628138	-0.6228401085	 0.8831330154	-0.080519
C	 0.7931159049	-1.8193543722	 1.4304071332	-0.053566
C	-0.4226637901	-2.6709174584	 1.1925268046	-0.267854
C	-1.5352885125	-1.9453382787	 0.4675180403	-0.02404
N	-2.0431618105	-0.7129211936	 1.0983757208	-0.345093
C	-1.2977110961	-0.6260971215	-0.173528011	-0.064681
H	-0.6863916924	 1.3610534049	 1.1954940467	 0.286567
H	 0.4912261441	 0.1705061056	-1.0350771463	 0.088972
H	 1.8980850351	-0.0615664746	 1.1061705981	 0.093186
H	 1.5463892895	-2.2369201542	 2.0946346571	 0.088349
H	-0.1388065582	-3.5590047494	 0.6091968611	 0.111828
H	-0.800364802	-3.0549726689	 2.1500014224	 0.114507
H	-2.2742961268	-2.5915822854	-0.0017894455	 0.083981
H	-3.0399992679	-0.6181005052	 0.9267629861	 0.233305
H	-1.8637865994	-0.3787921509	-1.068050757	 0.086556
103.2932	233.1946	289.5136	354.7245	434.5831	460.1091	485.684	529.884	655.6326	728.7726	776.4337	821.0824	868.1538	888.3789	915.236	938.7366	990.9657	1007.9175	1019.1291	1060.3134	1072.7845	1127.8341	1168.1475	1178.8964	1218.2986	1235.8414	1265.9215	1279.789	1353.1557	1377.5476	1386.9668	1414.7324	1442.2219	1461.0507	1466.9262	1729.8059	3003.7258	3023.1887	3031.1826	3122.6797	3140.5688	3145.3315	3171.2847	3510.766	3765.268
OC1C=CCC2NC12	O[C@H]1C=CC[C@H]2N[C@@H]12	
InChI=1S/C6H9NO/c8-5-3-1-2-4-6(5)7-4/h1,3-8H,2H2	InChI=1S/C6H9NO/c8-5-3-1-2-4-6(5)7-4/h1,3-8H,2H2/t4-,5+,6-/m1/s1
