18
gdb 109325	1.97748	1.4933	0.89585	3.0027	78.57	-0.2489	0.0097	0.2586	1275.2145	0.148031	-401.973134	-401.96416	-401.963216	-402.007357	32.367	
O	-0.0013628593	 1.4363183098	 0.0357060005	-0.41462
C	-0.0019017083	 0.0224265748	-0.0119743291	-0.183929
C	-1.4116892106	-0.4713776649	-0.0349985111	 0.314608
C	-2.5303890242	 0.2500323199	-0.0500210151	-0.156978
C	-3.7755290928	-0.5990931082	-0.0157647779	-0.26554
C	-3.2443795069	-2.0202412381	-0.3203031464	-0.223983
C	-1.7280422012	-1.9640271183	 0.0382525427	-0.239444
C	-0.8963625358	-2.7934856942	-0.8361963816	 0.273503
N	-0.2323442717	-3.4395258935	-1.5280437471	-0.33875
H	 0.9040123368	 1.7385778759	-0.0773629534	 0.293808
H	 0.5285437746	-0.3553293139	-0.9020340679	 0.121001
H	 0.5199028931	-0.4122733709	 0.8604175807	 0.098902
H	-2.5445782231	 1.3322936259	-0.0415886113	 0.119283
H	-4.2551315075	-0.5462447325	 0.9717096035	 0.113585
H	-4.5318161318	-0.2801027771	-0.7409465231	 0.114486
H	-3.7634897355	-2.8104615696	 0.2255228694	 0.115511
H	-3.3455307271	-2.2332941572	-1.3873668418	 0.131162
H	-1.5596123988	-2.323083468	 1.0646275189	 0.127396
84.9516	86.4571	123.0544	208.3023	217.6918	238.4342	246.48	399.1239	438.3173	504.409	565.3613	640.3372	686.9393	808.3302	845.126	874.4839	930.816	943.784	1011.2974	1034.9031	1044.4835	1060.0144	1089.9822	1153.6319	1185.5269	1222.2436	1230.7855	1249.1547	1271.2218	1296.8187	1310.8364	1330.0612	1354.7504	1469.9334	1485.8532	1501.2286	1506.8953	1731.6966	2352.327	2936.7838	2973.9601	2994.7629	3012.0797	3060.3786	3075.7586	3122.6017	3224.591	3841.1276
OCC1=CCCC1C#N	OCC1=CCC[C@H]1C#N	
InChI=1S/C7H9NO/c8-4-6-2-1-3-7(6)5-9/h3,6,9H,1-2,5H2	InChI=1S/C7H9NO/c8-4-6-2-1-3-7(6)5-9/h3,6,9H,1-2,5H2/t6-/m0/s1
