21
gdb 91932	2.09597	1.71922	1.50855	1.4892	77.34	-0.2592	0.0717	0.3309	1037.9709	0.182167	-424.226071	-424.217181	-424.216237	-424.258621	35.776	
C	-0.7526808349	 1.3946327523	-0.0011830711	-0.444137
C	 0.0002537952	 0.0672415386	-0.0014503843	 0.374897
O	-0.9187044551	-1.0330667236	-0.0693817222	-0.479054
C	 0.9262185029	-0.1434512677	-1.1910770146	-0.027476
C	 2.2784637608	 0.5257396162	-1.183729197	-0.308977
C	 2.1442092733	-0.904934164	-0.7222996818	-0.036799
C	 1.9885436806	-1.1516161086	 0.7712971987	-0.244469
C	 0.9090445031	-0.1517728526	 1.2468739755	 0.044911
O	 1.4488889097	 1.101766248	 1.6617408031	-0.428942
H	-0.0638473259	 2.2404034671	 0.0138046201	 0.138225
H	-1.3816855942	 1.4589011505	-0.8940523447	 0.115166
H	-1.3979872669	 1.4788372911	 0.8819833519	 0.100281
H	-1.6057340823	-0.8780404516	 0.5880429812	 0.272599
H	 0.4433438853	-0.3607156548	-2.1368379419	 0.083739
H	 2.7378828399	 0.6881839836	-2.1530078033	 0.103177
H	 2.4803747572	 1.2952710796	-0.4489425769	 0.128328
H	 2.5794638887	-1.6900632907	-1.330157572	 0.078737
H	 1.6318243493	-2.1735815595	 0.9369158981	 0.110851
H	 2.9188842528	-1.0319306269	 1.3409666912	 0.080744
H	 0.3002752401	-0.5771014791	 2.0580408963	 0.054873
H	 2.0982012203	 0.9289698421	 2.3504565536	 0.283326
132.5141	211.6626	224.8056	244.3748	272.9494	311.3098	323.9208	344.8649	377.9915	418.8152	451.0764	521.501	598.1096	696.9332	769.523	804.248	833.7448	869.956	903.2176	918.5583	952.4251	999.9659	1022.2916	1041.5868	1080.8706	1083.4031	1108.4343	1109.5586	1115.013	1152.5672	1202.3019	1207.5534	1220.7058	1228.9139	1301.4909	1315.2288	1351.2925	1385.1762	1388.1477	1406.0442	1427.2971	1471.9522	1484.6662	1490.0767	1492.5289	2986.3463	3025.6119	3029.4745	3075.5204	3097.2996	3137.6479	3142.4636	3167.3511	3179.1052	3230.3607	3801.8114	3819.6628
CC1(O)C2CC2CC1O	C[C@@]1(O)[C@H]2C[C@H]2C[C@H]1O	
InChI=1S/C7H12O2/c1-7(9)5-2-4(5)3-6(7)8/h4-6,8-9H,2-3H2,1H3	InChI=1S/C7H12O2/c1-7(9)5-2-4(5)3-6(7)8/h4-6,8-9H,2-3H2,1H3/t4-,5-,6+,7+/m0/s1
