17
gdb 14482	3.89879	2.17578	2.14784	1.3437	65.47	-0.2286	0.064	0.2926	727.3397	0.145263	-363.854036	-363.848015	-363.84707	-363.883611	25.543	
O	-0.0893843204	 1.3575459202	 0.0204646173	-0.494554
C	 0.0010485154	-0.0379155986	 0.0095109165	 0.358657
C	 0.7345453884	-0.7541220768	 1.173845562	-0.286832
C	 0.4899207569	-2.1675057417	 0.6702299505	-0.030746
C	-0.8186904736	-2.1631408443	-0.048334829	-0.033596
C	-1.3679986515	-0.7460872368	 0.0160055267	-0.251579
N	 0.4561037598	-2.1592320295	-0.8222667787	-0.130232
C	 0.6610069228	-0.7429835638	-1.1980204852	-0.20273
H	 0.8030220236	 1.718912049	 0.0042363358	 0.280261
H	 1.7970981904	-0.4912075804	 1.2294591374	 0.091472
H	 0.2690708582	-0.5561404707	 2.1439949211	 0.106607
H	 0.9109100346	-3.0468396489	 1.1427760824	 0.090741
H	-1.4492902661	-3.0380449788	-0.148521358	 0.090651
H	-1.9365936046	-0.5482955691	 0.9294768606	 0.105981
H	-1.9789645462	-0.4709255047	-0.8486875098	 0.107364
H	 0.1631049286	-0.519690156	-2.1461548391	 0.106799
H	 1.7311770937	-0.5284913191	-1.2967530505	 0.091736
257.163	324.4477	334.8923	443.9375	458.2785	465.9165	621.246	656.1627	666.9963	787.5538	807.9575	834.3288	918.7226	941.7141	946.363	957.2335	968.7661	1009.4308	1038.2349	1054.9719	1112.5415	1125.8866	1150.3464	1180.5908	1193.4218	1215.5185	1232.2653	1256.0161	1278.9325	1298.973	1337.849	1371.4098	1406.9404	1485.2553	1490.3915	1519.1883	3037.3072	3043.6942	3057.7452	3092.8437	3096.8602	3105.3775	3179.1426	3190.3664	3809.9561
OC12CC3C(C1)N3C2	O[C@@]12C[C@H]3[C@@H](C1)N3C2	
InChI=1S/C6H9NO/c8-6-1-4-5(2-6)7(4)3-6/h4-5,8H,1-3H2	InChI=1S/C6H9NO/c8-6-1-4-5(2-6)7(4)3-6/h4-5,8H,1-3H2/t4-,5+,6-,7?
