17
gdb 108993	3.32615	1.16676	1.10003	2.6945	75.26	-0.2523	-0.0059	0.2464	1177.0105	0.135195	-421.803726	-421.795636	-421.794692	-421.837	30.188	
C	 0.0340317794	 1.4874640737	 0.2417358611	-0.372789
C	-0.0870590923	-0.0084674559	-0.1005015901	-0.31947
C	-1.4956686343	-0.5029244045	-0.081191817	 0.359034
C	-2.285101174	-1.0113452644	-1.0514914941	-0.209503
C	-3.540313638	-1.3976649155	-0.3067602959	-0.097202
O	-3.7076307007	-0.3040951984	 0.6418947015	-0.261815
C	-2.385354046	-0.6404521233	 1.1431991485	-0.159334
C	-2.8577305694	-2.1483406722	 0.9209683256	 0.428453
O	-2.8238354003	-3.2038522982	 1.4489277279	-0.294836
H	 1.0820673507	 1.8008584692	 0.230737688	 0.119015
H	-0.5148721825	 2.0982078166	-0.4808393299	 0.129268
H	-0.3708155834	 1.7028597155	 1.2354189988	 0.123499
H	 0.3490719058	-0.2002904345	-1.086895354	 0.112339
H	 0.507903224	-0.5882391416	 0.6186064517	 0.11839
H	-2.0622608558	-1.2022240767	-2.0912042493	 0.11859
H	-4.4469017394	-1.713074154	-0.8161389697	 0.104697
H	-2.1251612639	-0.198004576	 2.1017312168	 0.101663
59.6549	99.4138	166.6485	198.349	281.0551	367.3516	425.9832	522.3707	570.478	585.5441	686.884	756.4601	792.2251	822.6232	840.9806	882.9297	908.7841	937.5599	954.3277	966.0958	1048.7356	1055.8617	1087.3951	1105.9182	1151.5811	1199.0318	1232.1582	1270.7699	1293.7649	1337.1329	1352.2999	1409.9016	1478.1413	1496.7719	1504.5301	1637.788	1929.5939	3015.7533	3041.0254	3066.5053	3112.434	3117.8053	3162.1725	3170.4403	3240.4287
CCC1=CC2OC1C2=O	CCC1=C[C@@H]2O[C@H]1C2=O	
InChI=1S/C7H8O2/c1-2-4-3-5-6(8)7(4)9-5/h3,5,7H,2H2,1H3	InChI=1S/C7H8O2/c1-2-4-3-5-6(8)7(4)9-5/h3,5,7H,2H2,1H3/t5-,7+/m0/s1
