15
gdb 31944	6.48443	0.82948	0.74251	7.4806	75.86	-0.2362	-0.0553	0.1809	1433.155	0.112775	-453.980156	-453.971683	-453.970739	-454.014322	29.58	
O	 0.0653196811	 1.32777916	 0.3423488501	-0.401498
C	 0.0103853792	-0.0350179429	-0.0304834768	-0.19671
C	-1.4245037483	-0.4514394801	-0.0154590084	 0.308997
C	-2.5941191326	 0.2856184834	-0.0875773512	-0.135244
N	-3.6832323012	-0.5279351079	-0.0638299367	-0.272064
C	-3.2108664109	-1.761145857	 0.0206866483	 0.246434
N	-1.8323005741	-1.7511529687	 0.0544920047	-0.350593
C	-3.9481501348	-3.0213246184	 0.076808652	 0.087546
O	-5.148886013	-3.1401076736	 0.0535939649	-0.253663
H	 0.9378881227	 1.6656533526	 0.1211984703	 0.297786
H	 0.4355849937	-0.190723796	-1.0363834372	 0.114661
H	 0.5912225328	-0.6712829388	 0.660217145	 0.10096
H	-2.678937644	 1.3591299426	-0.1454328034	 0.131835
H	-1.2369271811	-2.5607789713	 0.1321951602	 0.270236
H	-3.2782907894	-3.9133822538	 0.1462503483	 0.051318
35.7248	105.9775	148.2516	214.854	237.8349	260.9723	301.1222	376.8757	556.8363	560.0954	651.9109	694.6228	706.4786	798.1713	878.9774	995.6781	1012.7879	1031.7589	1046.0107	1097.647	1169.1328	1197.36	1235.5932	1255.3597	1284.8131	1384.876	1425.3238	1458.3249	1464.6298	1506.3046	1514.1418	1603.2995	1807.2446	2825.771	2945.0275	2964.8423	3267.4587	3642.1001	3838.2158
OCC1=CN=C(N1)C=O	OCc1cnc([nH]1)C=O	
InChI=1S/C5H6N2O2/c8-2-4-1-6-5(3-9)7-4/h1,3,8H,2H2,(H,6,7)	InChI=1S/C5H6N2O2/c8-2-4-1-6-5(3-9)7-4/h1,3,8H,2H2,(H,6,7)
