16
gdb 6297	4.38522	1.10374	1.03357	3.5147	67.8	-0.2447	-0.0172	0.2275	1161.3538	0.126365	-383.719782	-383.710373	-383.709429	-383.754631	32.905	
C	-0.7266974585	 1.0469742626	 0.1938698498	-0.481614
C	 0.3392870031	-0.0158302486	 0.0533987869	 0.395952
O	 1.1198238368	-0.2849542584	 0.9363970544	-0.306712
C	 0.3704600686	-0.797249253	-1.2632572568	-0.295055
C	-0.1443114118	-2.2344041536	-1.0156562204	-0.040297
O	-1.4889475389	-2.2215138586	-0.5365800961	-0.426087
C	-0.0041263403	-3.0658799438	-2.2104327539	 0.287662
C	 0.0717061067	-3.7204463894	-3.2159810112	-0.434323
H	-0.6533314453	 1.5346814982	 1.1664737579	 0.141218
H	-0.6404702034	 1.7899091695	-0.6072736383	 0.134747
H	-1.7069623744	 0.5681215702	 0.0861803551	 0.149303
H	-0.2358296659	-0.3226653035	-2.0410275271	 0.101328
H	 1.4074216434	-0.8474458462	-1.6086605458	 0.137709
H	 0.4505265129	-2.6570150679	-0.1979965861	 0.143744
H	-2.0698543283	-2.1643105285	-1.3032245137	 0.288254
H	 0.1508445353	-4.3169944691	-4.0914144946	 0.204171
37.8819	71.4104	124.0181	183.6009	185.7088	242.7454	285.6523	350.6061	394.3134	479.7032	550.9641	572.0997	596.7827	635.6608	678.6382	806.5605	843.5183	918.7566	977.6558	1014.0475	1060.8004	1087.431	1159.1495	1224.4747	1279.7223	1287.9826	1349.5717	1375.6262	1421.7358	1460.7967	1470.7353	1475.1359	1815.2496	2233.6418	3033.5124	3049.9983	3059.135	3096.8361	3110.1535	3153.9398	3502.1991	3809.5559
CC(=O)CC(O)C#C	CC(=O)C[C@@H](O)C#C	
InChI=1S/C6H8O2/c1-3-6(8)4-5(2)7/h1,6,8H,4H2,2H3	InChI=1S/C6H8O2/c1-3-6(8)4-5(2)7/h1,6,8H,4H2,2H3/t6-/m0/s1
