19
gdb 15863	2.45703	2.06981	1.31821	3.9882	75.44	-0.2983	0.0323	0.3306	993.5547	0.165454	-327.945839	-327.937329	-327.936385	-327.978612	31.576	
C	-0.0680333595	 1.6011487977	-0.1212066758	-0.41814
C	 0.0715269708	 0.0958790963	 0.0232003365	 0.038943
C	 1.0239470829	-0.6800347318	-0.9235980463	-0.242625
C	 1.4276140019	-1.5988151761	 0.2589694398	 0.038947
C	 2.8666064113	-2.0663220077	 0.389002241	-0.418142
C	 0.8610469197	-0.5084922321	 1.2463168525	-0.20202
C	 1.8759492289	 0.3794053151	 1.7911561105	 0.290585
N	 2.6882983032	 1.0879638418	 2.211983789	-0.34641
H	 0.9061811887	 2.0968673653	-0.0737513489	 0.139183
H	-0.5288816578	 1.8491384864	-1.0833638242	 0.118558
H	-0.6971032777	 2.0233841548	 0.6697008241	 0.122359
H	-0.9169784852	-0.3749095276	 0.0176039305	 0.085287
H	 0.5894765592	-1.1508051874	-1.8084437103	 0.101679
H	 1.8643034333	-0.0512505408	-1.2376037923	 0.112114
H	 0.7486142586	-2.456402815	 0.3071796142	 0.085287
H	 3.5607745042	-1.2206213572	 0.3878306868	 0.139184
H	 3.0239545063	-2.6269857972	 1.316600768	 0.122358
H	 3.1295331631	-2.7228136176	-0.4473685849	 0.118559
H	 0.2500160483	-0.8825744771	 2.0719608499	 0.114294
84.4736	138.6709	168.1221	218.4688	229.0886	290.5437	349.4853	390.8594	416.302	496.7084	618.2335	636.5375	762.2303	805.387	892.2652	894.8607	936.305	965.9735	970.	1030.4862	1110.3723	1123.3141	1131.1917	1163.8007	1181.8394	1234.4978	1258.4126	1276.0862	1278.209	1348.5118	1351.9037	1386.2744	1415.3375	1418.8612	1492.3291	1493.8319	1495.6953	1497.2642	1500.2739	2344.1066	3033.3733	3033.5134	3046.1676	3049.7799	3054.117	3077.6008	3099.0933	3099.1085	3107.619	3112.9223	3115.4927
CC1CC(C)C1C#N	C[C@H]1C[C@@H](C)[C@H]1C#N	
InChI=1S/C7H11N/c1-5-3-6(2)7(5)4-8/h5-7H,3H2,1-2H3	InChI=1S/C7H11N/c1-5-3-6(2)7(5)4-8/h5-7H,3H2,1-2H3/t5-,6+,7-
