18
gdb 37148	4.00759	1.8266	1.60701	2.0379	78.12	-0.2229	0.0848	0.3077	869.0986	0.150595	-364.672478	-364.666695	-364.665751	-364.702133	25.888	
C	-0.0201253049	 1.5371041988	-0.1146340256	-0.295722
C	 1.3129729912	 0.8298901926	 0.0097525965	-0.047249
C	-0.0006600466	 0.0314590316	 0.0027763653	-0.198498
C	 0.2546536989	-0.7288185449	-1.2856157183	 0.297659
C	-0.0532190645	-1.7209066244	-2.4235383356	-0.276412
N	 1.3371531869	-1.2178464925	-2.8502406024	-0.196554
C	 1.7472994933	-1.1553343055	-1.3608951461	-0.004367
C	 2.0515537256	 0.3603495903	-1.2735603661	-0.095193
C	 0.9529930542	 0.1852576222	-2.3260944279	-0.026738
H	-0.3580367181	 2.0944474714	 0.7535965515	 0.111653
H	-0.3033868067	 1.9907382897	-1.0583861755	 0.114133
H	 1.8823150347	 0.949626791	 0.9243915044	 0.090484
H	-0.3657363976	-0.4579175083	 0.8976356633	 0.090922
H	-0.0774243308	-2.7894353619	-2.1869292096	 0.103531
H	-0.8440637566	-1.4617798119	-3.1346050549	 0.104175
H	 2.2261674363	-2.0044673793	-0.8694456506	 0.077302
H	 3.0290796186	 0.7932749831	-1.490034561	 0.070077
H	 0.4854924661	 0.9097155482	-2.9939781474	 0.080794
277.9021	327.0799	414.9832	464.6912	516.3342	649.3551	688.8621	777.7876	793.3378	801.4205	815.1044	857.3201	863.367	884.8463	894.8354	908.0125	926.4235	954.2537	1004.078	1022.682	1052.2924	1068.4327	1087.1761	1091.1562	1098.5439	1117.7242	1128.7501	1178.7554	1182.0673	1191.6145	1195.4437	1202.0772	1247.5311	1290.2197	1297.3867	1328.9957	1362.5796	1482.7782	1514.5896	3039.4515	3093.9798	3098.1292	3102.4926	3111.926	3128.5397	3174.6814	3183.7202	3209.8666
C1C2C1C13CN4C1C2C34	C1[C@H]2[C@@H]1[C@]13CN4[C@H]1[C@H]2[C@H]34	
InChI=1S/C8H9N/c1-3-4(1)8-2-9-6(8)5(3)7(8)9/h3-7H,1-2H2	InChI=1S/C8H9N/c1-3-4(1)8-2-9-6(8)5(3)7(8)9/h3-7H,1-2H2/t3-,4+,5-,6-,7+,8+/m0/s1
