18
gdb 110520	2.71325	1.45044	1.19846	1.8424	70.51	-0.2446	0.0571	0.3016	1074.7152	0.14788	-439.004974	-438.997048	-438.996104	-439.037387	31.219	
O	 0.0408920742	 1.3995751713	-0.174225109	-0.422723
C	 0.1506477105	 0.0104689516	 0.0932502828	-0.088591
C	-1.2256075583	-0.6335043619	 0.0869365231	-0.014972
N	-1.943870832	-0.5999945736	-1.2351430342	-0.172008
C	-1.6078979755	-1.9161904521	-1.9075118871	-0.030797
C	-0.688654208	-2.7433359275	-1.0123996544	-0.28765
C	-1.4941290457	-2.1516860411	 0.163071702	 0.339092
O	-1.5100431881	-2.8707547711	 1.3387259425	-0.470421
C	-2.6731039983	-1.8453611807	-0.8848545369	-0.140817
H	-0.5047231958	 1.4820018037	-0.9656184004	 0.294662
H	 0.8161209672	-0.4791794247	-0.6322039154	 0.090588
H	 0.6119839479	-0.0862745659	 1.0824654614	 0.110268
H	-1.8672317302	-0.0939023629	 0.7962189328	 0.079202
H	-1.6951824414	-1.9302549436	-2.9853699882	 0.103252
H	-0.9102388376	-3.8080109975	-1.1213725123	 0.11805
H	 0.3928246513	-2.5842769125	-1.0362648194	 0.10319
H	-1.979442635	-2.360159202	 2.0077412172	 0.287688
H	-3.7489586352	-1.9609139996	-0.9083890645	 0.101986
77.9592	177.1385	211.3173	266.6847	350.6755	357.9434	397.8513	414.4522	542.3394	578.0659	635.0679	703.4243	738.3394	816.9761	844.9088	881.1335	915.6622	947.0989	969.3235	1011.7974	1030.2972	1051.9495	1077.6178	1090.2844	1114.24	1145.0254	1153.4569	1199.898	1207.8751	1233.3934	1252.4389	1310.4546	1327.8864	1349.2354	1394.7432	1411.1617	1440.328	1502.4842	1507.7715	3000.2922	3025.6828	3059.905	3069.4422	3115.5804	3196.7224	3214.6869	3789.0036	3801.9473
OCC1N2C3CC1(O)C23	OC[C@H]1N2[C@H]3C[C@]1(O)[C@@H]23	
InChI=1S/C6H9NO2/c8-2-4-6(9)1-3-5(6)7(3)4/h3-5,8-9H,1-2H2	InChI=1S/C6H9NO2/c8-2-4-6(9)1-3-5(6)7(3)4/h3-5,8-9H,1-2H2/t3-,4+,5-,6+,7?/m0/s1
