12
gdb 5364	5.65047	1.62069	1.25945	2.7982	65.01	-0.2559	-0.0904	0.1655	873.3862	0.085655	-377.56982	-377.563653	-377.562709	-377.600464	22.098	
O	-0.0872570317	-0.01870471	-0.002117264	-0.238114
C	 0.0003994293	 1.1809234079	 0.0062597437	 0.106237
C	 1.2842400828	 1.9449425179	-0.0015170332	 0.209907
N	 2.4413636667	 1.2668269295	-0.0196716587	-0.266019
C	 3.5467140147	 2.0001842522	-0.0257081936	-0.013295
C	 3.5119767814	 3.3999993591	-0.0138209895	 0.003585
N	 2.3677221046	 4.0806273956	 0.0041858719	-0.234802
C	 1.2559259632	 3.340561475	 0.0101901861	-0.036323
H	-0.9025677767	 1.8320849683	 0.0211392159	 0.080271
H	 4.4955064482	 1.469528835	-0.0403649073	 0.129265
H	 4.4322258045	 3.9785363442	-0.018932875	 0.130732
H	 0.3088327329	 3.8757254552	 0.0247326737	 0.128556
99.0713	217.2108	219.4224	397.1365	441.2746	477.7075	628.9745	714.2525	779.292	865.1701	870.582	974.1892	1007.6289	1032.0527	1036.265	1072.6125	1197.5017	1236.843	1247.9662	1330.8398	1418.7143	1445.4871	1504.2891	1579.0226	1610.9143	1824.5048	2879.7692	3155.8714	3157.6752	3176.1063
O=CC1=NC=CN=C1	O=Cc1nccnc1	
InChI=1S/C5H4N2O/c8-4-5-3-6-1-2-7-5/h1-4H	InChI=1S/C5H4N2O/c8-4-5-3-6-1-2-7-5/h1-4H
