19
gdb 31794	4.65165	0.94735	0.80036	1.3166	87.45	-0.2255	0.0064	0.2319	1436.2672	0.15986	-385.958985	-385.949932	-385.948987	-385.994282	32.893	
C	-0.0706334038	 1.5289544728	 0.0584191603	-0.492179
C	-0.0091280708	 0.022230904	-0.0018916919	 0.299024
C	-0.2085715359	-0.6590492864	-1.2062805019	-0.17906
C	-0.1173535589	-2.0450428767	-1.2693433576	-0.183774
C	 0.163646518	-2.7958938138	-0.126602089	 0.271013
C	 0.2055754574	-4.3039781992	-0.1990000603	-0.170997
O	 0.99747727	-4.8131283907	 0.8626620251	-0.413504
C	 0.3605949829	-2.1239030188	 1.0796517394	-0.172006
C	 0.2763486557	-0.7357073298	 1.1362229537	-0.183656
H	 0.9023013645	 1.9783099591	-0.1771004862	 0.132284
H	-0.792712612	 1.9295892554	-0.65955327	 0.123242
H	-0.3548028355	 1.8774388053	 1.0556672026	 0.123494
H	-0.4310307802	-0.0957815052	-2.1082587988	 0.084909
H	-0.2682744001	-2.5489690144	-2.2205369959	 0.082487
H	-0.8223350635	-4.7005298907	-0.1398356195	 0.100692
H	 0.6059863033	-4.6105214792	-1.1787615741	 0.094224
H	 0.8716563118	-5.7653874157	 0.8971948561	 0.289311
H	 0.5873624502	-2.6973169298	 1.9702336073	 0.108819
H	 0.4347262571	-0.2309989462	 2.0853394408	 0.08568
27.7619	43.8697	124.5177	203.627	239.0062	307.4771	339.549	404.3464	415.0011	493.6131	550.0155	651.6515	720.4634	737.7286	820.2443	837.5028	866.5378	945.3147	965.0945	1003.9423	1033.2855	1038.7914	1062.2949	1079.3683	1139.6193	1193.2439	1210.7619	1232.4215	1246.2442	1256.7984	1333.9587	1342.0236	1412.4869	1433.7025	1459.0541	1487.9424	1494.488	1511.7176	1549.3634	1615.9646	1658.4069	2951.7235	2979.2299	3025.0699	3082.4727	3110.4527	3151.8754	3161.7086	3171.3691	3209.4491	3837.9809
CC1=CC=C(CO)C=C1	Cc1ccc(CO)cc1	
InChI=1S/C8H10O/c1-7-2-4-8(6-9)5-3-7/h2-5,9H,6H2,1H3	InChI=1S/C8H10O/c1-7-2-4-8(6-9)5-3-7/h2-5,9H,6H2,1H3
