18
gdb 78613	3.21105	1.45998	1.2098	1.0101	71.97	-0.2075	0.0585	0.266	1055.7771	0.146066	-438.974468	-438.966146	-438.965202	-439.00675	32.543	
C	 0.0440852177	 1.5161906069	-0.2594842305	-0.338342
N	 0.0523857865	 0.0662772186	-0.0684875665	-0.112109
C	-1.0265254285	-0.4927843788	 0.7996894047	-0.071174
C	-0.127185643	-1.7072133668	 1.2009107698	-0.111913
C	-0.4454800994	-1.5324590288	 2.6941884336	 0.0593
O	 0.481634279	-1.9368091731	 3.676388954	-0.451644
C	-0.3915284744	-0.0856199052	 2.1769742593	 0.337664
O	-0.6319902557	 1.0702133045	 2.8860967154	-0.468724
C	 0.7785085943	-0.4359501737	 1.1333676287	-0.124399
H	 1.0073262623	 1.8223870969	-0.6820901086	 0.114572
H	-0.7317541514	 1.7730643214	-0.9886146357	 0.116963
H	-0.1347323855	 2.0920474365	 0.6600683482	 0.124782
H	-2.0809970231	-0.5127340362	 0.5213190261	 0.084887
H	 0.0069219902	-2.6078384768	 0.6087321569	 0.093434
H	-1.424332581	-1.8876921303	 3.0296849116	 0.090887
H	 1.3704651484	-1.7950418773	 3.3325720027	 0.28548
H	-0.2707487774	 0.9510892719	 3.7730740277	 0.293257
H	 1.8629253712	-0.3620654397	 1.2405140726	 0.077079
160.7933	189.2888	203.3243	217.8048	276.7715	294.4003	317.4679	376.7737	417.4663	547.6068	597.5681	669.8305	738.7646	779.2533	828.4644	856.3539	867.5964	909.8536	945.3022	975.1998	1024.6956	1066.1986	1081.7519	1117.288	1120.7987	1142.5219	1163.707	1179.2217	1204.6677	1224.0044	1241.9671	1276.6606	1290.9941	1326.0998	1392.7142	1448.2771	1451.7683	1492.0333	1506.0077	3000.0945	3071.1035	3075.124	3087.8885	3093.5677	3110.614	3168.4403	3781.2889	3806.0701
CN1C2C3C(O)C2(O)C13	CN1[C@H]2[C@@H]3[C@@H](O)[C@@]2(O)[C@H]13	
InChI=1S/C6H9NO2/c1-7-3-2-4(7)6(3,9)5(2)8/h2-5,8-9H,1H3	InChI=1S/C6H9NO2/c1-7-3-2-4(7)6(3,9)5(2)8/h2-5,8-9H,1H3/t2-,3-,4+,5-,6-/m1/s1
