22
gdb 60070	2.27518	1.12315	0.95947	1.7431	88.43	-0.2431	0.043	0.286	1387.0513	0.191905	-367.159088	-367.148815	-367.147871	-367.194158	38.788	
C	-0.1354733763	 1.6296514562	 0.2577263266	-0.399418
C	 0.0157313541	 0.1133280863	 0.0735221672	 0.045229
C	 0.7675101598	-0.5120625878	 1.2558907358	-0.392715
C	-1.3376473799	-0.5947538657	-0.1272977054	-0.269343
C	-2.1172379635	-0.1725179934	-1.3692610147	 0.085427
C	-3.6065823527	-0.3119849861	-1.3548897883	-0.273627
N	-3.0009755183	 1.022591176	-1.3117677924	-0.331373
C	-1.4215026787	-0.3497443703	-2.6228833145	 0.358596
C	-0.8274127381	-0.5340875221	-3.6519206069	-0.463406
H	 0.8427015574	 2.1031922364	 0.3906487173	 0.112112
H	-0.6177076961	 2.0976940796	-0.6047135277	 0.139036
H	-0.7326723209	 1.8596367669	 1.1498758911	 0.101465
H	 0.6075690923	-0.0579930732	-0.8348700732	 0.092969
H	 0.2117984427	-0.3787060874	 2.1923324395	 0.109253
H	 0.9212049075	-1.5867078961	 1.1108963001	 0.110929
H	 1.750149763	-0.0475760422	 1.3869601376	 0.111844
H	-1.1653487871	-1.6770407154	-0.1831631843	 0.10749
H	-1.9762866945	-0.4261062927	 0.7514678572	 0.085485
H	-4.1288472952	-0.5472326716	-2.2768580905	 0.128375
H	-4.0572668209	-0.7196269761	-0.4530440742	 0.113704
H	-3.0089822862	 1.3747597697	-0.357041485	 0.233175
H	-0.3110491586	-0.683110151	-4.5677118753	 0.194793
58.8422	93.8144	134.9608	192.0395	225.0994	235.2486	267.5918	312.4754	322.2434	377.4836	423.7987	445.5659	551.9503	567.8506	610.062	649.4305	710.6844	809.2296	837.5537	891.5967	907.9099	932.2807	949.6625	970.1788	979.0287	987.7968	1066.7477	1122.0859	1134.1659	1152.4391	1196.133	1248.1164	1253.601	1296.6483	1326.6652	1358.9937	1374.7272	1390.6666	1401.6426	1423.0481	1471.4446	1491.2312	1495.2578	1505.1954	1506.6779	1515.0063	2236.5819	3005.6554	3018.0078	3021.896	3029.9141	3053.1301	3084.279	3091.1151	3100.0637	3108.1536	3115.1566	3200.9396	3493.6919	3503.1095
CC(C)CC1(CN1)C#C	CC(C)C[C@]1(CN1)C#C	
InChI=1S/C8H13N/c1-4-8(6-9-8)5-7(2)3/h1,7,9H,5-6H2,2-3H3	InChI=1S/C8H13N/c1-4-8(6-9-8)5-7(2)3/h1,7,9H,5-6H2,2-3H3/t8-/m0/s1
