20
gdb 83153	2.4927	1.49178	1.32492	1.5795	78.17	-0.2234	-0.0161	0.2073	1075.7581	0.172009	-403.149897	-403.141602	-403.140658	-403.182902	32.118	
C	-0.3541777646	 1.467199414	 0.076205232	-0.435176
C	-0.0395788831	-0.0108323628	 0.0116127784	 0.013811
C	 0.6313369524	-0.6368028889	-1.1643703618	-0.049114
C	 1.0900869573	 0.1879639175	-2.3651115101	-0.33153
C	 2.2653105636	 1.1170386665	-2.0835145575	 0.395968
O	 2.4073688613	 2.1739869193	-2.6529318378	-0.322417
C	 3.221258378	 0.5924792284	-1.03293589	-0.294546
C	 2.4605470466	 0.3598011424	 0.2865190489	-0.168832
N	 1.3216101366	-0.5544970044	 0.1340976613	-0.113032
H	 0.2781914778	 2.0814581504	-0.5693321119	 0.140129
H	-1.3920917027	 1.631800647	-0.2317675414	 0.126953
H	-0.2547739639	 1.8445191827	 1.1005559929	 0.128054
H	-0.7699913275	-0.6208544072	 0.543067962	 0.088311
H	 0.3399269243	-1.6539986752	-1.4210438971	 0.091493
H	 1.4451288259	-0.5056501786	-3.1398542544	 0.132963
H	 0.2790128189	 0.767551198	-2.8160423408	 0.129498
H	 3.6304793069	-0.3671991609	-1.3750248123	 0.121169
H	 4.0434282507	 1.2983191768	-0.8979389936	 0.121802
H	 3.14540645	-0.0781794595	 1.0208290194	 0.113674
H	 2.1435082615	 1.3273929444	 0.6950027037	 0.110819
60.599	130.5036	185.13	234.1655	280.2538	385.4148	414.0714	452.0842	496.6916	532.9108	568.5917	675.5035	731.5611	763.2802	782.6612	829.1306	892.1657	939.8374	964.9598	993.3165	1050.984	1057.2518	1088.1554	1105.8627	1154.8528	1178.0212	1195.5718	1211.6916	1230.6266	1249.6172	1303.3741	1331.5443	1348.5035	1382.5615	1387.1492	1423.1927	1434.8069	1457.3492	1468.0175	1493.5347	1503.0325	1521.912	1817.8914	3022.082	3024.4054	3030.2202	3035.3711	3057.8518	3085.4813	3092.539	3094.0309	3109.0556	3117.8643	3125.7811
CC1C2CC(=O)CCN12	C[C@H]1[C@H]2CC(=O)CCN12	
InChI=1S/C7H11NO/c1-5-7-4-6(9)2-3-8(5)7/h5,7H,2-4H2,1H3	InChI=1S/C7H11NO/c1-5-7-4-6(9)2-3-8(5)7/h5,7H,2-4H2,1H3/t5-,7+,8?/m0/s1
