21
gdb 118972	2.50925	1.09006	0.99524	2.6432	75.73	-0.2421	0.0601	0.3022	1342.9145	0.179229	-461.328046	-461.31755	-461.316606	-461.363978	37.221	
C	-0.00060172	 1.3741300841	 0.0934987409	-0.222774
O	 0.0083451047	-0.0317113239	 0.0950325803	-0.238473
C	-1.2712116841	-0.5861579903	-0.1110064186	-0.075107
C	-1.1659662909	-2.1080658467	-0.0357214712	 0.368547
C	-0.0673341672	-2.6602454089	-0.9276272557	-0.443849
O	-0.9992974915	-2.5599501988	 1.3422270035	-0.318069
C	-2.35395125	-3.0403261657	 1.4086870323	-0.105903
C	-2.5468261763	-2.8144542095	-0.1051975863	 0.009072
O	-3.6029933659	-1.9886871784	-0.534823799	-0.426698
H	 1.026773202	 1.7086961376	 0.2575130558	 0.125506
H	-0.3588692697	 1.78087509	-0.8661452061	 0.100822
H	-0.6387263951	 1.7798091383	 0.8946500819	 0.1044
H	-1.9803800565	-0.2246590511	 0.6483125165	 0.09321
H	-1.6732325399	-0.2962546533	-1.0959732797	 0.094055
H	 0.8959915046	-2.2339073844	-0.6417725056	 0.14777
H	-0.0159081278	-3.7485816365	-0.835784202	 0.110125
H	-0.2600526815	-2.4032426038	-1.9750828792	 0.114534
H	-2.4101844036	-4.0699360588	 1.7812339221	 0.097522
H	-3.0016291275	-2.3944975627	 2.0176927798	 0.09733
H	-2.5023535218	-3.742427834	-0.6891039967	 0.076985
H	-4.4042569922	-2.5172966632	-0.5930532028	 0.290996
57.431	88.4928	100.2962	140.6661	199.0874	206.0602	234.6415	260.1392	286.521	342.7591	362.4721	428.0861	500.6885	539.365	686.6569	788.9483	868.9391	914.6801	946.2959	987.527	1000.5208	1021.9307	1069.4945	1128.9489	1145.6655	1160.0976	1172.977	1177.7394	1188.2323	1208.4811	1240.3506	1265.6884	1304.8815	1314.3131	1334.1124	1399.2916	1420.9918	1439.6337	1476.9318	1482.8719	1484.7835	1492.7049	1497.5708	1513.97	1518.3486	2962.8163	2974.71	3002.1865	3009.2201	3013.6419	3017.8616	3040.9972	3058.6627	3110.5515	3111.9371	3140.3561	3829.2121
COCC1(C)OCC1O	COC[C@@]1(C)OC[C@H]1O	
InChI=1S/C6H12O3/c1-6(4-8-2)5(7)3-9-6/h5,7H,3-4H2,1-2H3	InChI=1S/C6H12O3/c1-6(4-8-2)5(7)3-9-6/h5,7H,3-4H2,1-2H3/t5-,6-/m1/s1
