23
gdb 102379	1.75543	1.50156	1.07666	1.3613	87.46	-0.2502	0.0448	0.295	1304.9181	0.201448	-388.250605	-388.239193	-388.238249	-388.28652	41.708	
C	-0.1269914863	 1.5351717558	 0.1061860914	-0.393277
C	 0.0388307799	 0.0162184119	 0.0419195484	-0.214227
C	 0.7380549274	-0.4944534883	-1.2453249008	 0.169709
C	 0.8152713824	-2.043750601	-1.225770074	-0.214249
C	 1.453106292	-2.6566139722	-2.4733353868	-0.393283
O	 0.0907728493	-0.0076663993	-2.4328049552	-0.278526
C	-1.2538620676	-0.3890512539	-2.6373293116	-0.245321
C	 2.1000133774	 0.0575735837	-1.3081096932	 0.358731
C	 3.2228062858	 0.4855616607	-1.3158347798	-0.470487
H	 0.8457173513	 2.0341475517	 0.083438778	 0.131668
H	-0.7088589384	 1.9080391046	-0.7409532279	 0.126512
H	-0.6387426036	 1.8271937952	 1.0280904642	 0.107931
H	 0.6280516996	-0.3344381478	 0.8961631339	 0.107411
H	-0.9368888581	-0.4769206058	 0.1230822181	 0.095283
H	 1.3810348332	-2.3325736259	-0.3333759263	 0.10741
H	-0.1978778278	-2.4376449118	-1.0837185664	 0.095286
H	 0.906623596	-2.3767050802	-3.3779112572	 0.126522
H	 2.4845757285	-2.3134862174	-2.5916035023	 0.131666
H	 1.4626885672	-3.7484272102	-2.4031550926	 0.107934
H	-1.3794679691	-1.4758577541	-2.7348786159	 0.109366
H	-1.9246054433	-0.0316242753	-1.8443729639	 0.109364
H	-1.5573371886	 0.0766917208	-3.5784245644	 0.130151
H	 4.2122728627	 0.8710615788	-1.3361966557	 0.194427
101.8067	111.4574	112.5056	144.2978	159.0623	189.3279	204.1749	212.5942	265.7078	302.8962	328.9557	392.3221	434.8333	463.0407	540.016	615.1983	623.5774	659.3617	678.2956	774.6298	783.8274	919.752	953.0383	959.7562	1028.2389	1068.1151	1081.4476	1103.113	1112.6067	1166.4902	1179.6588	1205.0309	1247.3453	1280.2578	1340.1313	1348.9088	1371.1961	1409.9121	1414.6679	1469.6368	1470.7688	1491.9345	1493.8434	1498.3154	1501.3902	1501.9854	1507.3397	1516.3735	2236.1004	2997.8815	3031.7766	3041.4438	3046.1214	3046.8011	3050.4198	3068.9743	3077.3192	3110.8329	3114.5742	3114.9754	3123.3921	3124.5758	3501.0642
CCC(CC)(OC)C#C	CCC(CC)(OC)C#C	
InChI=1S/C8H14O/c1-5-8(6-2,7-3)9-4/h1H,6-7H2,2-4H3	InChI=1S/C8H14O/c1-5-8(6-2,7-3)9-4/h1H,6-7H2,2-4H3
