16
gdb 45189	2.96218	1.93477	1.63901	3.8288	67.45	-0.2384	-0.0013	0.237	854.5675	0.127918	-437.876046	-437.869987	-437.869042	-437.906361	25.191	
O	-0.0051621857	 0.0193565165	-0.2248072158	-0.339552
C	 0.0236238717	 1.1961486879	-0.0020615914	 0.416196
O	-1.1310301443	 1.9230337263	 0.1252772938	-0.23588
C	-0.9275071521	 3.2216362871	 0.7005378519	 0.074121
C	-0.1385600556	 3.0680385214	 2.0216995697	-0.262841
C	 1.1356590462	 3.1857809086	 1.1719658546	-0.046688
C	 0.3506873186	 3.9365481615	 0.0616117728	-0.005388
N	 1.0350903811	 3.1703574994	-0.9747075137	-0.302944
C	 1.2513093253	 2.0897952994	 0.0399736289	-0.139263
H	-1.894312864	 3.7223082404	 0.6892484941	 0.096369
H	-0.2539920694	 3.9454259152	 2.6645199017	 0.115872
H	-0.329464055	 2.1597164424	 2.5994236968	 0.121746
H	 2.0848626026	 3.5236902766	 1.5837381781	 0.090922
H	 0.2858920738	 5.0194992411	-0.0559597707	 0.084614
H	 0.4747706149	 2.898953636	-1.781993807	 0.230659
H	 2.1685223518	 1.5110892303	-0.064205694	 0.102058
138.7442	323.0761	386.7773	430.2513	460.4676	546.8045	640.2617	687.8787	766.3654	786.9256	800.3066	822.8604	838.2454	899.1246	949.2229	977.1325	997.741	1012.6717	1036.0577	1064.2268	1092.8673	1128.0631	1134.2019	1176.662	1196.7437	1220.0756	1239.7206	1263.9723	1293.5971	1310.3238	1318.3146	1368.5639	1376.0572	1480.0608	1864.6359	3057.415	3098.6277	3114.9291	3120.9868	3129.6103	3134.5723	3464.3487
O=C1OC2CC3C2NC13	O=C1O[C@H]2C[C@@H]3[C@H]2N[C@H]13	
InChI=1S/C6H7NO2/c8-6-5-2-1-3(9-6)4(2)7-5/h2-5,7H,1H2	InChI=1S/C6H7NO2/c8-6-5-2-1-3(9-6)4(2)7-5/h2-5,7H,1H2/t2-,3+,4-,5+/m1/s1
