18
gdb 98211	2.21897	1.00882	0.74988	2.1709	77.58	-0.241	0.0089	0.2499	1554.7952	0.144611	-439.082159	-439.070896	-439.069951	-439.122131	36.711	
C	-0.2221445108	 1.3156317512	 0.0584425047	-0.239094
O	-0.1596774638	-0.1099419082	 0.2077127657	-0.219946
C	 0.7484217655	-0.5590490473	 1.0851647214	 0.426286
O	 1.4988613751	 0.1451612595	 1.7108915766	-0.363472
C	 0.7505640626	-2.1053776279	 1.1545689392	-0.247961
N	 1.804325482	-2.6354910773	 2.0176137343	-0.496515
C	-0.5636526641	-2.5979977678	 1.5626271267	 0.116462
C	-1.6366333489	-2.9959280742	 1.9342120054	 0.040793
C	-2.9355857363	-3.4865428268	 2.3706533735	-0.498097
H	 0.7402599062	 1.7094012744	-0.2778051842	 0.141686
H	-0.9942715419	 1.5019565479	-0.6876812255	 0.136568
H	-0.4843934873	 1.7892609372	 1.0077099159	 0.143123
H	 0.9460709832	-2.4420467075	 0.1254869225	 0.133073
H	 2.6501256957	-2.0950907942	 1.8498353168	 0.237022
H	 1.5527005316	-2.443823464	 2.9836360994	 0.236459
H	-2.9372186908	-4.578280316	 2.4602914741	 0.152728
H	-3.2111447224	-3.0719120678	 3.3464380141	 0.149578
H	-3.7209426258	-3.2102199411	 1.6587043793	 0.151306
14.416	16.1624	69.1377	118.4155	127.863	150.9036	188.1286	206.4623	283.0956	315.1914	339.6283	418.425	429.3103	558.2104	595.9479	749.0589	836.9545	877.6213	955.6126	1014.2219	1052.4803	1053.2014	1091.6246	1178.1029	1186.0792	1199.2933	1211.4809	1245.9751	1314.9379	1396.0767	1414.4121	1472.191	1477.0437	1478.4033	1482.598	1496.2161	1664.5989	1821.1858	2377.4712	2999.2326	3029.1789	3053.0179	3090.6045	3091.742	3128.4828	3162.04	3484.6684	3560.0032
COC(=O)C(N)C#CC	COC(=O)[C@@H](N)C#CC	
InChI=1S/C6H9NO2/c1-3-4-5(7)6(8)9-2/h5H,7H2,1-2H3	InChI=1S/C6H9NO2/c1-3-4-5(7)6(8)9-2/h5H,7H2,1-2H3/t5-/m0/s1
