21
gdb 71630	2.70701	1.52848	1.50438	2.0998	81.36	-0.2246	0.0748	0.2993	1036.885	0.18433	-387.052722	-387.045044	-387.0441	-387.084414	31.405	
C	 0.0492546763	 1.4658489123	-0.0895476573	-0.521536
C	-0.0027529125	-0.0275982354	 0.0028518067	 0.412754
O	 0.6961315831	-0.8221777871	-1.0394568827	-0.350393
C	 0.0970649293	-1.815984134	-0.1299251925	 0.01549
C	 0.6001173054	-0.9781795076	 1.0811199288	-0.03399
C	-0.0957213758	-1.0962466917	 2.4364233861	-0.246191
C	-1.5022375191	-1.6926428262	 2.2715323252	-0.199764
C	-2.2023869876	-1.1097197628	 1.0341357318	-0.246187
C	-1.2216711396	-0.9898331235	-0.1315397684	-0.033994
H	 1.0844724256	 1.8183035893	-0.0460672969	 0.132266
H	-0.3953626927	 1.8091701676	-1.0288208526	 0.132232
H	-0.5040942251	 1.9193872242	 0.7394853503	 0.123927
H	 0.2618051184	-2.867790153	-0.3673067132	 0.083217
H	 1.6895478083	-0.9119007407	 1.1361055826	 0.071868
H	 0.4995862541	-1.7169896279	 3.1151748319	 0.099318
H	-0.1475434404	-0.1017367781	 2.9006963459	 0.097546
H	-1.4035261925	-2.7767434527	 2.1336517641	 0.101963
H	-2.1039922868	-1.5469632463	 3.1741491633	 0.092742
H	-3.0527573674	-1.7397086536	 0.7505836446	 0.099316
H	-2.6194875914	-0.1175426579	 1.2552516713	 0.097547
H	-1.6933722398	-0.9335178448	-1.1157158688	 0.071868
166.573	168.6479	194.7718	250.0721	341.9663	399.2664	449.8267	473.8825	583.8422	632.2511	675.7239	726.6999	775.2316	803.3653	869.2993	873.0056	898.2403	912.1056	958.1807	978.9285	1020.8141	1027.7661	1053.3637	1098.3835	1101.3294	1116.844	1171.9539	1190.9908	1206.5152	1216.2136	1226.7076	1257.1076	1281.5682	1310.4829	1329.1394	1358.5336	1363.3713	1380.8877	1400.2518	1432.3162	1475.3726	1487.863	1490.3376	1491.7222	1505.5158	3013.4262	3013.9371	3025.0512	3035.3998	3058.6034	3060.7923	3078.4306	3084.9271	3086.1408	3107.2747	3108.8156	3111.4215
CC12OC3C1CCCC23	C[C@@]12O[C@H]3[C@@H]1CCC[C@@H]23	
InChI=1S/C8H12O/c1-8-5-3-2-4-6(8)7(5)9-8/h5-7H,2-4H2,1H3	InChI=1S/C8H12O/c1-8-5-3-2-4-6(8)7(5)9-8/h5-7H,2-4H2,1H3/t5-,6+,7-,8+
