12
gdb 130296	3.61506	1.68744	1.15159	2.3102	61.45	-0.244	-0.0143	0.2297	946.0298	0.08012	-468.78663	-468.780239	-468.779295	-468.81731	24.802	
N	 0.0123867768	 1.3758243044	 0.1702931698	-0.589247
C	 0.0620614122	 0.0108337996	 0.0466219605	 0.3135
N	-1.0546347183	-0.707646106	-0.0022700193	-0.241629
O	-0.6599577487	-2.1106515645	-0.0427890124	-0.248181
C	 0.651785773	-2.0737738487	-0.0326310697	 0.492327
C	 1.206876443	-0.8424173603	 0.019900383	 0.080914
N	 2.5927741975	-0.9785672713	 0.0283165511	-0.336501
C	 2.7595971201	-2.257707962	-0.0179228985	 0.034774
O	 1.5896331096	-3.029102835	-0.0575174747	-0.209905
H	 0.7924106823	 1.8725499172	-0.231991593	 0.270782
H	-0.8852594832	 1.7854074067	-0.0461817293	 0.268698
H	 3.6768364356	-2.8234147	-0.0314489074	 0.164469
183.6753	258.4429	263.2356	352.5678	422.4619	545.4175	572.6923	631.6789	640.4857	670.4658	689.2234	769.8361	774.5121	802.0954	869.9847	910.5685	1015.297	1119.2279	1139.4934	1271.0419	1333.6111	1443.7664	1518.656	1544.3542	1574.0242	1640.5916	1665.9628	3290.2611	3573.0806	3681.9597
NC1=NOC2=C1N=CO2	Nc1noc2c1nco2	
InChI=1S/C4H3N3O2/c5-3-2-4(9-7-3)8-1-6-2/h1H,(H2,5,7)	InChI=1S/C4H3N3O2/c5-3-2-4(9-7-3)8-1-6-2/h1H,(H2,5,7)
