21
gdb 112825	2.42639	1.26099	1.07113	1.949	76.08	-0.2351	0.0673	0.3024	1261.6509	0.180386	-461.320379	-461.310395	-461.309451	-461.355255	36.245	
C	 0.1555718825	 0.9300366662	-0.7744468588	-0.236953
O	-0.0263533637	-0.3361205849	-0.1768012113	-0.241575
C	-1.3317741799	-0.5378108737	 0.3288395255	 0.054889
C	-2.328097538	-0.9949545445	-0.7794933363	-0.286772
C	-1.9089133419	-2.4682955542	-0.4898646991	 0.095902
O	-0.8588565603	-2.9469855179	-1.2953343341	-0.439986
C	-1.4235130478	-1.9682926093	 0.9140091931	 0.107311
O	-0.2433756673	-2.4729527125	 1.4497807215	-0.232911
C	-0.347559452	-3.8297428377	 1.8380427798	-0.24253
H	 1.1949121138	 0.9827064234	-1.1062986086	 0.132004
H	-0.50274391	 1.0818291822	-1.6420636366	 0.110358
H	-0.0310917913	 1.739612226	-0.0529746788	 0.110769
H	-1.6223714165	 0.2988227128	 0.9785093432	 0.065359
H	-3.3705086939	-0.7875859465	-0.5221731294	 0.103123
H	-2.125582972	-0.6407018655	-1.7920279526	 0.111747
H	-2.6975254949	-3.2238255845	-0.5159656142	 0.077147
H	-0.103461175	-2.3632353597	-1.1407573516	 0.291635
H	-2.2551109238	-2.0184950828	 1.6367823227	 0.064561
H	-1.1368609796	-3.9737810202	 2.5927255989	 0.099796
H	-0.5543689303	-4.4782804954	 0.9774955963	 0.129125
H	 0.612935502	-4.1114787313	 2.2756238004	 0.127001
91.2979	104.3425	130.2596	146.0075	185.2069	208.8384	247.3113	296.851	339.4133	375.7216	417.6038	443.0295	575.9975	622.8236	734.2161	829.5666	859.7119	899.3598	935.7608	1006.341	1015.7107	1056.275	1094.1378	1142.7555	1149.1911	1168.4869	1178.6532	1185.7815	1191.3792	1226.7191	1247.176	1252.8574	1266.5674	1279.8356	1334.5506	1373.9786	1387.6446	1450.8517	1468.7807	1481.9494	1482.8787	1488.2415	1489.8831	1508.4605	1509.6273	2961.3038	2980.645	2984.2466	3011.1472	3034.7517	3053.1079	3064.7669	3085.6536	3119.5363	3120.3042	3128.1271	3754.7725
COC1CC(O)C1OC	CO[C@H]1C[C@@H](O)[C@H]1OC	
InChI=1S/C6H12O3/c1-8-5-3-4(7)6(5)9-2/h4-7H,3H2,1-2H3	InChI=1S/C6H12O3/c1-8-5-3-4(7)6(5)9-2/h4-7H,3H2,1-2H3/t4-,5+,6-/m1/s1
