17
gdb 67865	2.52375	1.71213	1.42969	5.005	73.57	-0.2235	-0.0232	0.2003	975.803	0.136035	-418.029073	-418.021044	-418.0201	-418.061628	30.573	
C	 0.1075122595	 1.5674634624	-0.0006147196	-0.45209
C	-0.0051180866	 0.0549880234	 0.0828219337	 0.202369
N	-1.400892847	-0.3968683956	 0.0375367727	-0.273982
C	-1.5576043348	-1.221630963	 1.0046141386	 0.05117
N	-0.4511080692	-1.5576613732	 1.7630321053	-0.290582
C	 0.6687740899	-0.7624333334	 1.2696722572	-0.082668
C	 1.591376802	-1.5120816926	 0.2692195206	-0.352641
C	 0.9211053565	-0.7390866658	-0.8862868061	 0.379327
O	 1.0786628572	-0.7207008068	-2.0694296659	-0.289258
H	 1.1503414108	 1.8944996402	 0.0675195687	 0.111731
H	-0.3002493276	 1.91156983	-0.9548016223	 0.149324
H	-0.4613092825	 2.0380667512	 0.8072353805	 0.12051
H	-2.5110541455	-1.691012586	 1.2312096314	 0.12934
H	-0.5547847217	-1.7489720675	 2.7475297937	 0.247581
H	 1.1740149478	-0.2108161914	 2.0643360792	 0.083811
H	 2.6589341916	-1.2875810911	 0.3611606144	 0.131905
H	 1.4582331697	-2.5972330509	 0.239848298	 0.134151
66.8034	177.8013	190.6287	239.2956	289.0654	341.1906	386.7513	483.7782	494.9341	585.525	610.3646	661.5272	779.8733	793.0636	821.0442	905.1559	925.2055	949.6916	965.3847	1031.0956	1051.8569	1110.7408	1117.6044	1126.8237	1159.8147	1179.0597	1222.3932	1266.4438	1312.4958	1349.7305	1400.3914	1418.3558	1440.7123	1481.5312	1487.9636	1660.3918	1895.2011	3035.954	3054.7161	3094.1884	3106.1968	3114.4612	3124.168	3182.5605	3620.6437
CC12N=CNC1CC2=O	C[C@]12N=CN[C@H]1CC2=O	
InChI=1S/C6H8N2O/c1-6-4(2-5(6)9)7-3-8-6/h3-4H,2H2,1H3,(H,7,8)	InChI=1S/C6H8N2O/c1-6-4(2-5(6)9)7-3-8-6/h3-4H,2H2,1H3,(H,7,8)/t4-,6-/m0/s1
