18
gdb 125994	3.83871	1.40168	1.1751	3.6732	78.11	-0.1967	0.0418	0.2385	1073.4652	0.151704	-398.151454	-398.144071	-398.143127	-398.183337	28.877	
C	 0.2145213224	 1.4614268309	 0.0443807778	-0.400456
C	-0.0506337266	-0.0430341551	-0.0503371945	 0.023224
C	 0.698537429	-0.7011178323	-1.25022133	-0.180783
N	 1.8701169199	-1.2144654922	-0.578018313	 0.047441
N	 3.0067783892	-1.7916276737	-1.0342770394	-0.31045
C	 3.6013450592	-2.1924897363	 0.0889862307	 0.016959
C	 2.848333606	-1.9103921491	 1.2607984957	-0.387232
C	 1.7234108735	-1.2837269767	 0.7613174718	 0.43778
N	 0.4725530189	-0.7872915499	 1.1328093517	-0.417644
H	 1.2895389909	 1.6645490448	 0.0876248843	 0.138983
H	-0.2006454681	 1.9836917487	-0.8237117887	 0.125067
H	-0.2535178473	 1.8835648084	 0.9401786244	 0.118309
H	-1.1264421301	-0.2210077688	-0.1342185092	 0.094646
H	 0.1159569463	-1.5118224289	-1.7037951971	 0.125572
H	 0.9571117736	 0.0223074865	-2.0277431669	 0.129074
H	 4.5660986385	-2.6768351122	 0.0323969398	 0.104893
H	 3.095695209	-2.1333602608	 2.2845843895	 0.0957
H	 0.4594773056	-0.2487711033	 1.9894448531	 0.238916
85.4729	157.6609	250.4764	266.7052	347.8416	397.3224	468.0338	620.7223	649.5304	661.2517	709.0095	744.8196	765.804	823.3164	855.9258	879.914	938.4105	946.2316	961.7754	1050.4731	1053.1694	1115.6383	1137.5635	1147.9222	1219.1109	1223.2752	1300.556	1310.7085	1341.6504	1351.0374	1369.9372	1393.7748	1408.5213	1458.3318	1494.3987	1496.3159	1514.2808	1548.9229	1609.4299	3030.0788	3031.7019	3063.8291	3093.1612	3102.0795	3112.9555	3236.4206	3278.2825	3566.5019
CC1CN2N=CC=C2N1	C[C@H]1Cn2nccc2N1	
InChI=1S/C6H9N3/c1-5-4-9-6(8-5)2-3-7-9/h2-3,5,8H,4H2,1H3	InChI=1S/C6H9N3/c1-5-4-9-6(8-5)2-3-7-9/h2-3,5,8H,4H2,1H3/t5-/m0/s1
