23
gdb 104469	1.99961	1.28466	1.0839	3.2143	87.61	-0.2424	-0.0114	0.231	1309.3759	0.203282	-388.304833	-388.294115	-388.293171	-388.340102	39.254	
C	 2.8188555445	 0.5338340081	 0.9114687451	-0.388545
C	 1.5822194739	-0.2888341146	 0.5223600574	-0.264082
C	 1.5628038988	-0.707550761	-0.9388726381	 0.223519
C	 1.3504898877	 0.3963053686	-1.9090391164	 0.124076
O	 1.1530302591	 1.5533634585	-1.6243821313	-0.279701
C	 2.4067942431	-1.8734474943	-1.4803515489	-0.062837
C	 3.3751691796	-2.6371534836	-0.6013096721	-0.416298
C	 0.9212558439	-2.0316871017	-1.4031187709	-0.076288
C	 0.2161101355	-2.9655005367	-0.4425525092	-0.415863
H	 3.7425458562	-0.0330928743	 0.7583628057	 0.1105
H	 2.8747508453	 1.4482627721	 0.3172015938	 0.143911
H	 2.7734237021	 0.8185567668	 1.9673442707	 0.109235
H	 1.5071172587	-1.1672278907	 1.1685975677	 0.091019
H	 0.6837619186	 0.309967124	 0.7098999518	 0.114121
H	 1.3703139271	 0.069349159	-2.9774049352	 0.060804
H	 2.7921324513	-1.7105580358	-2.4855625523	 0.087648
H	 3.0295292027	-2.7292602549	 0.4300990915	 0.123644
H	 3.5251905491	-3.6496796613	-0.9924189149	 0.122311
H	 4.3519169609	-2.1440464184	-0.5793165214	 0.128147
H	 0.4078149151	-1.9547055769	-2.359887953	 0.089926
H	 0.7596268941	-3.1082324441	 0.4931679018	 0.123443
H	-0.7824436282	-2.59142377	-0.1938713904	 0.127762
H	 0.0948785709	-3.9520735289	-0.9031577414	 0.123546
98.8196	108.909	130.4055	174.0479	184.3834	210.4845	217.5755	244.6069	281.0564	302.7315	315.7361	404.6066	505.4946	547.1766	563.849	717.0757	754.1105	796.6412	797.6236	946.8062	981.7465	998.4336	1008.6136	1032.5216	1047.9191	1054.8085	1103.4548	1123.3684	1136.7777	1160.2658	1192.4398	1256.7034	1313.6815	1324.8038	1371.3663	1380.4585	1409.7572	1417.4866	1422.8456	1436.83	1450.1682	1476.8396	1490.4912	1492.6567	1499.5951	1501.4312	1511.3308	1517.0487	1807.5892	2830.3251	3037.5128	3039.6099	3043.8261	3046.5061	3085.8497	3094.0774	3096.0026	3106.2158	3106.7749	3116.0126	3129.0764	3135.3672	3139.5695
CCC1(C=O)C(C)C1C	CC[C@@]1(C=O)[C@@H](C)[C@H]1C	
InChI=1S/C8H14O/c1-4-8(5-9)6(2)7(8)3/h5-7H,4H2,1-3H3	InChI=1S/C8H14O/c1-4-8(5-9)6(2)7(8)3/h5-7H,4H2,1-3H3/t6-,7+,8+
