18
gdb 78888	2.56883	2.17929	1.49772	1.4938	72.9	-0.2278	0.0602	0.2879	911.0249	0.148141	-401.883622	-401.87636	-401.875416	-401.914741	29.918	
C	 0.0606479432	 1.5735426714	-0.033095514	-0.39069
C	 0.007933135	 0.0526198684	 0.0013084267	-0.019404
N	 0.7581704781	-0.5542983635	-1.1053463921	-0.125314
C	 2.1643855277	-0.7527056531	-0.6848887183	-0.071803
C	 1.219986211	-1.9035957047	-0.7130912579	-0.070729
C	 1.2021921541	-1.9503220287	 0.8365159396	-0.185815
C	 2.164922177	-0.7702463709	 0.8657823734	-0.13096
C	 0.7109075558	-0.5633893969	 1.2089170887	 0.380033
O	 0.3812319693	-0.2235806326	 2.5127469037	-0.479982
H	 1.0980633147	 1.9227400874	-0.023859391	 0.120084
H	-0.4246112959	 1.9601774682	-0.9330437913	 0.120235
H	-0.4426343728	 1.9885371618	 0.8452822663	 0.118777
H	-1.0325414911	-0.2928906792	-0.0614525661	 0.069921
H	 2.9692872587	-0.460966633	-1.3471431424	 0.093845
H	 1.1045982575	-2.7286447766	-1.4046628672	 0.094424
H	 1.1592479989	-2.813847165	 1.4846135035	 0.092134
H	 2.9820457563	-0.5680604728	 1.5423241276	 0.097903
H	-0.4562881374	-0.6474452701	 2.7307323707	 0.28734
180.8967	209.8687	231.1523	283.1895	331.4366	381.5714	541.8728	579.6718	595.9008	714.9104	735.7489	751.5617	788.3951	812.679	841.9802	877.5783	911.425	926.795	936.32	960.3014	984.7995	1003.2682	1044.4631	1077.0402	1111.9196	1129.8148	1146.9818	1185.216	1212.4073	1233.593	1259.4162	1285.3006	1307.966	1330.1651	1370.9799	1406.245	1433.4866	1489.7173	1495.4	3021.1669	3041.6615	3112.6003	3121.5314	3184.9756	3198.1466	3218.5464	3231.4752	3794.7869
CC1N2C3C2C2C3C12O	C[C@H]1N2[C@@H]3[C@H]2[C@H]2[C@@H]3[C@@]12O	
InChI=1S/C7H9NO/c1-2-7(9)3-4(7)6-5(3)8(2)6/h2-6,9H,1H3	InChI=1S/C7H9NO/c1-2-7(9)3-4(7)6-5(3)8(2)6/h2-6,9H,1H3/t2-,3-,4+,5-,6+,7-,8?/m1/s1
