15
gdb 16193	3.22896	2.44596	1.56556	4.6701	68.91	-0.2141	-0.0274	0.1867	801.2249	0.12026	-362.684684	-362.677986	-362.677042	-362.715319	26.142	
O	 0.1284564674	-0.0079019435	-0.0132002296	-0.382629
C	 0.013355612	 1.2044595222	 0.0009473141	 0.360379
C	-1.171404513	 2.0533159664	 0.0343116273	-0.274966
C	-0.7570737608	 3.34711938	 0.0346610855	-0.012472
N	 0.6037122133	 3.4908888071	-0.0936442792	-0.359743
C	 1.1824283715	 2.1729040266	-0.0321971136	 0.243285
C	 2.4478279364	 1.8525660251	 0.7264510133	-0.304225
C	 2.4393362308	 1.7857193071	-0.772422559	-0.29003
H	-2.1912102282	 1.7029542819	 0.0500420562	 0.111861
H	-1.3689265858	 4.2389518874	 0.0955580642	 0.13185
H	 1.0658415083	 4.2698546833	 0.3503631166	 0.251087
H	 2.9733824971	 2.673969003	 1.2030981004	 0.11341
H	 2.4359627567	 0.9202218569	 1.2811891338	 0.146416
H	 2.4176309162	 0.8055899484	-1.236894227	 0.146323
H	 2.950652708	 2.5652633581	-1.325741123	 0.119452
126.6897	220.6876	241.4105	319.5646	444.9491	460.6455	548.3981	580.3166	699.8565	731.4251	778.129	797.3086	815.787	904.7003	920.4625	941.8477	965.08	996.7319	1063.5741	1084.6856	1090.6492	1124.3517	1163.2157	1201.8206	1299.7712	1309.2271	1390.9713	1443.7994	1450.1629	1482.0213	1603.7785	1781.6994	3126.6384	3135.0297	3213.177	3216.8167	3235.0325	3264.0999	3613.5041
O=C1C=CNC11CC1	O=C1C=CNC21CC2	
InChI=1S/C6H7NO/c8-5-1-4-7-6(5)2-3-6/h1,4,7H,2-3H2	InChI=1S/C6H7NO/c8-5-1-4-7-6(5)2-3-6/h1,4,7H,2-3H2
