14
gdb 19127	3.36234	1.80665	1.34644	2.7685	63.48	-0.2653	0.0161	0.2815	897.7851	0.10469	-382.448813	-382.441248	-382.440303	-382.480883	27.678	
C	 0.8467662687	-1.2257647037	-0.3080311795	-0.421559
C	 0.4662568552	-0.0945434023	-0.166631083	 0.288534
C	-0.0187708311	 1.2598682971	-0.0543327707	 0.222457
C	-0.193771154	 1.8921681006	 1.2685955011	-0.218223
O	 0.9199393144	 2.2286357627	 0.4450501902	-0.267795
C	-0.8485208883	 1.7248905434	-1.222492787	-0.043741
C	-2.307209611	 1.5634986529	-1.2306959617	-0.166142
O	-1.7013481856	 2.8392045966	-1.000093514	-0.220231
H	 1.1921713899	-2.2241734944	-0.4190905026	 0.202954
H	-0.9485539572	 2.6683418268	 1.3675483962	 0.140121
H	 0.0391392717	 1.3144384435	 2.1608157493	 0.122656
H	-0.3163614307	 1.7377377643	-2.1735032089	 0.114893
H	-2.8316291821	 1.4586045136	-2.178294542	 0.125753
H	-2.79980045	 1.119064239	-0.3676560374	 0.120323
75.0521	140.0971	199.2555	238.1134	262.554	419.9442	490.2674	519.7718	583.7103	631.9329	668.8833	671.1919	852.2758	861.8982	889.5439	927.7987	964.6214	1054.2412	1098.1045	1136.2982	1154.8362	1167.2084	1177.6325	1224.8928	1282.7569	1372.3275	1426.0427	1504.6917	1526.5919	2240.0013	3092.6181	3097.8532	3118.3013	3183.632	3198.6811	3499.9606
C#CC1(CO1)C1CO1	C#C[C@]1(CO1)[C@H]1CO1	
InChI=1S/C6H6O2/c1-2-6(4-8-6)5-3-7-5/h1,5H,3-4H2	InChI=1S/C6H6O2/c1-2-6(4-8-6)5-3-7-5/h1,5H,3-4H2/t5-,6+/m1/s1
