15
gdb 31418	3.02354	1.37198	0.94932	7.0656	72.97	-0.2455	-0.0398	0.2057	1171.8191	0.113294	-454.013411	-454.005073	-454.004128	-454.047423	29.581	
C	-0.0041403898	 1.4600017684	 0.0079915643	-0.31501
N	-0.0414566761	 0.0073551005	 0.0034233624	-0.346423
C	-1.1908101944	-0.6962142159	 0.0097478293	 0.443033
N	-2.3236277449	-0.0247689335	 0.0201094378	-0.429198
C	-3.5148295783	-0.673092278	 0.0268242148	 0.435245
O	-4.6100137177	-0.1954894979	 0.0360824294	-0.34412
O	-3.4866626746	-2.1283054602	 0.0223429961	-0.222443
C	-2.3237847626	-2.7667646452	 0.0119104672	 0.117316
C	-1.1348198671	-2.1366548915	 0.0050480332	-0.281627
H	 1.0392677309	 1.7796465763	-0.000723395	 0.124917
H	-0.5160193987	 1.8659198069	-0.869132452	 0.155891
H	-0.4994873342	 1.8602735959	 0.8971707222	 0.155674
H	 0.825409237	-0.50082325	-0.003698948	 0.257361
H	-2.4390963959	-3.8466763673	 0.0095708398	 0.142965
H	-0.2044242938	-2.6875652587	-0.0034251216	 0.106417
38.4389	97.5903	147.5461	198.01	214.679	363.3172	425.0125	429.0351	523.4508	575.2937	603.2731	670.6345	739.682	781.3198	787.6301	826.6171	964.4563	974.1401	1064.6016	1114.3509	1151.7173	1158.0242	1243.3544	1292.1588	1331.0855	1450.5811	1460.1397	1473.0673	1512.9533	1563.5049	1591.8414	1694.9808	1885.7898	3048.2524	3109.5727	3142.1854	3183.2329	3225.6739	3673.0683
CNC1=NC(=O)OC=C1	CNc1nc(=O)occ1	
InChI=1S/C5H6N2O2/c1-6-4-2-3-9-5(8)7-4/h2-3H,1H3,(H,6,7,8)	InChI=1S/C5H6N2O2/c1-6-4-2-3-9-5(8)7-4/h2-3H,1H3,(H,6,7,8)
