19
gdb 94895	2.77985	1.4683	1.01602	2.937	77.86	-0.2236	0.0206	0.2442	1167.5679	0.160771	-423.032747	-423.02453	-423.023586	-423.065806	30.816	
O	-0.0699058656	 1.4758239365	 0.0432016536	-0.435727
C	-0.0215588599	 0.0533457737	-0.0156874394	-0.020308
C	 0.6396639546	-0.6065165131	 1.2389938396	-0.237762
C	-0.2571324068	-1.8158928226	 1.6453043673	-0.351767
C	-1.5252719301	-1.518563685	 0.8995861013	 0.223527
C	-1.4020055696	-0.5238882644	 0.0275887823	 0.260891
C	-2.6795319713	-0.3210687971	-0.7199545715	-0.190923
O	-3.5740810938	-1.2916442393	-0.1533350273	-0.277048
C	-2.9046782494	-2.092871999	 0.8279499728	-0.181002
H	 0.8211348994	 1.808930478	-0.1022021076	 0.283059
H	 0.4957431999	-0.2524039254	-0.9412144324	 0.070088
H	 1.6812052253	-0.8927202009	 1.0677624075	 0.09394
H	 0.6259015915	 0.1489958147	 2.0302954792	 0.117366
H	 0.1802940129	-2.7704396958	 1.3230101226	 0.110943
H	-0.3930561038	-1.8928221391	 2.730388335	 0.10991
H	-3.1017977913	 0.6854904237	-0.5908957313	 0.117467
H	-2.5764484541	-0.4955971228	-1.8032868295	 0.10029
H	-2.9121421292	-3.1509541446	 0.5181761185	 0.101361
H	-3.4483553888	-2.0335163974	 1.7837147793	 0.105696
89.4111	124.1488	157.887	201.2149	259.1445	280.1346	425.4617	438.9622	530.5951	560.6899	673.7059	694.1796	834.9456	867.2988	909.5145	921.9798	958.5604	984.3351	1002.5121	1049.8163	1056.3295	1082.726	1095.267	1154.6318	1175.7216	1207.0204	1214.2205	1223.3602	1241.5563	1260.4055	1290.0372	1322.5522	1342.2613	1390.4055	1397.5614	1447.9101	1483.1372	1500.5029	1516.3777	1526.7492	1744.9118	2946.1055	2964.4488	2972.702	2988.194	3012.3617	3016.548	3048.8841	3058.1162	3105.2894	3819.5444
OC1CCC2=C1COC2	O[C@H]1CCC2=C1COC2	
InChI=1S/C7H10O2/c8-7-2-1-5-3-9-4-6(5)7/h7-8H,1-4H2	InChI=1S/C7H10O2/c8-7-2-1-5-3-9-4-6(5)7/h7-8H,1-4H2/t7-/m0/s1
