21
gdb 103808	2.33522	1.35235	1.03291	3.2054	80.14	-0.2415	0.0434	0.2849	1255.8079	0.181485	-420.433853	-420.423825	-420.422881	-420.468443	37.639	
C	 0.4169322962	 1.4960635725	-0.0981863725	-0.395864
C	 0.2885690447	-0.0217521574	 0.0829686908	-0.232324
C	 0.773087004	-0.5529426385	 1.4275234243	 0.324662
C	 0.1468409349	 0.0714884315	 2.6595893437	-0.451117
C	 1.1795064227	-2.0007022807	 1.4890374243	-0.308553
N	 2.1699781266	-0.9396992226	 1.6001735784	-0.140635
C	 3.2001732825	-0.7178004097	 0.6826612823	 0.40872
N	 3.9678277575	-1.841587984	 0.4469039	-0.534909
O	 3.4321331217	 0.3582251879	 0.1683403703	-0.378021
H	 1.4591751433	 1.8022214378	 0.0095437004	 0.161154
H	 0.0717421273	 1.785753704	-1.0955308609	 0.107732
H	-0.1915610905	 2.0437413144	 0.6282881994	 0.108059
H	-0.7631390834	-0.3193373049	-0.0259235834	 0.094838
H	 0.838707369	-0.5290793258	-0.7164411044	 0.107196
H	-0.9446323656	-0.0144376088	 2.6214167411	 0.116642
H	 0.5040859001	-0.4230862452	 3.5661473274	 0.120385
H	 0.4011035818	 1.1324548366	 2.7333096626	 0.135864
H	 0.9993223355	-2.5836906382	 2.3898582505	 0.112404
H	 1.156403506	-2.5694636404	 0.561613353	 0.124568
H	 3.9499028243	-2.5806976783	 1.1317058442	 0.257666
H	 4.8674721514	-1.6472997102	 0.0355823983	 0.261534
70.8004	133.2148	138.4491	160.7936	208.7059	233.1518	278.2558	326.2433	375.1153	390.6835	453.5895	472.0466	511.6753	539.3942	594.2862	703.1136	740.8802	783.7674	795.2827	907.6573	946.4302	966.114	1013.5661	1036.3157	1070.0188	1107.7497	1115.5429	1129.6694	1146.7091	1165.2128	1273.9305	1292.8226	1346.3829	1365.7108	1407.9464	1412.6172	1428.9338	1472.9456	1488.7598	1493.7211	1509.4845	1514.3463	1517.8102	1616.1901	1792.2665	3017.6838	3039.6785	3044.142	3070.3475	3091.7467	3103.9294	3109.7598	3124.3071	3144.223	3178.5789	3584.3601	3705.8449
CCC1(C)CN1C(N)=O	CC[C@@]1(C)CN1C(=O)N	
InChI=1S/C6H12N2O/c1-3-6(2)4-8(6)5(7)9/h3-4H2,1-2H3,(H2,7,9)	InChI=1S/C6H12N2O/c1-3-6(2)4-8(6)5(7)9/h3-4H2,1-2H3,(H2,7,9)/t6-,8?/m0/s1
