19
gdb 71495	3.08336	1.7417	1.64249	1.5111	78.45	-0.2288	0.0095	0.2384	924.7655	0.161453	-385.87856	-385.87177	-385.870826	-385.909183	28.994	
C	-0.0987254961	 1.4999737459	 0.0331179502	-0.501616
C	 0.0388061887	 0.005348363	-0.0006009924	 0.403603
C	 0.4559365958	-0.7188060891	-1.2912392904	-0.242007
C	 0.5261379264	-2.1648606229	-0.6713068454	-0.108361
C	 1.9343043099	-2.3186901666	-0.1372967577	-0.090878
C	 2.0914561985	-1.4700898101	 0.8879224987	-0.10088
C	 0.7665444884	-0.8284812333	 1.161054561	-0.11626
C	-0.2937646237	-1.8129552651	 0.6317217503	 0.097744
O	-1.1921324086	-0.7394845124	 0.3024759126	-0.331789
H	 0.8725939491	 1.9718733648	-0.1475977655	 0.123117
H	-0.7943295848	 1.844845933	-0.7392326872	 0.128862
H	-0.4726820232	 1.8342952354	 1.0049971775	 0.126369
H	-0.3397947383	-0.6154262848	-2.032551082	 0.105653
H	 1.4083329859	-0.3977973749	-1.7179783022	 0.09457
H	 0.1449408768	-2.964524274	-1.3044819932	 0.066059
H	 2.7025430901	-2.9227073819	-0.6053649005	 0.09725
H	 3.0058161035	-1.2668296634	 1.4311233978	 0.097768
H	 0.5774924838	-0.3987433836	 2.144154698	 0.070975
H	-0.7304503321	-2.6227940899	 1.2173794903	 0.079821
194.1725	225.9744	281.2142	376.6124	406.6536	513.9125	539.3206	589.264	634.9038	715.5446	758.4401	799.641	807.6871	828.51	869.0286	878.9125	925.9842	944.5416	954.9689	959.3239	987.0346	1003.6648	1023.6084	1079.7707	1112.6919	1121.2526	1136.8211	1182.1233	1216.1433	1228.5761	1260.6892	1266.9786	1286.0977	1311.3271	1358.4297	1366.9061	1414.3609	1471.4638	1479.3283	1494.46	1636.9655	3035.9331	3068.2989	3104.7419	3112.9329	3114.2294	3122.7544	3125.9414	3130.215	3192.8455	3218.5321
CC12CC3C=CC1C3O2	C[C@@]12C[C@H]3C=C[C@@H]1[C@H]3O2	
InChI=1S/C8H10O/c1-8-4-5-2-3-6(8)7(5)9-8/h2-3,5-7H,4H2,1H3	InChI=1S/C8H10O/c1-8-4-5-2-3-6(8)7(5)9-8/h2-3,5-7H,4H2,1H3/t5-,6-,7+,8-/m1/s1
