21
gdb 118931	2.4212	1.29882	1.07963	2.295	79.33	-0.2391	-0.0227	0.2164	1235.6558	0.180003	-424.226224	-424.216131	-424.215187	-424.261754	36.351	
C	 0.3776107851	 0.812133481	 0.4096267936	-0.254802
O	-0.3476307895	 0.2768322213	-0.6849805574	-0.232998
C	 0.3923855725	-0.5657325983	-1.5335371894	-0.121242
C	 0.485437605	-2.0393979046	-1.0853269797	 0.166281
C	-0.8770441106	-2.5668175194	-0.6223341692	-0.430998
C	 1.2036965275	-2.9616158783	-2.1326889818	-0.279089
C	 2.2048444947	-3.4618349629	-1.0513825756	-0.335823
C	 1.6177865974	-2.4140310974	-0.0970349642	 0.370909
O	 1.9443967812	-2.0100763062	 0.9837688238	-0.302311
H	 0.7196229137	 0.0354275942	 1.1028004346	 0.145756
H	 1.2552219031	 1.3788327078	 0.0616024364	 0.101046
H	-0.2987921268	 1.4966598546	 0.9274437475	 0.120885
H	-0.1316204897	-0.5562965105	-2.4983265878	 0.107315
H	 1.4034234289	-0.1601704904	-1.7040860805	 0.084648
H	-1.6049080309	-2.4952365269	-1.4381271616	 0.120607
H	-0.8169184631	-3.6154642998	-0.3133583438	 0.111451
H	-1.2514285929	-1.9772372412	 0.2167980762	 0.144638
H	 0.5687694399	-3.7271370686	-2.5816391781	 0.108557
H	 1.6887032361	-2.3960258452	-2.9328948531	 0.108329
H	 2.0275194122	-4.4849709755	-0.7054857147	 0.135508
H	 3.2724899863	-3.3536457537	-1.2596174351	 0.131332
44.7814	75.6564	127.6095	161.8277	201.1912	221.1387	245.2208	271.5218	314.7311	392.1107	453.4384	501.6307	522.197	694.8805	703.997	754.6995	854.42	921.179	931.5614	948.3797	971.6355	983.4008	1059.7435	1075.7492	1135.8634	1156.6028	1181.9727	1192.939	1208.0644	1218.8846	1236.9399	1251.8389	1279.1814	1343.1424	1392.198	1411.8246	1437.6518	1474.0445	1482.945	1490.2879	1491.928	1494.5463	1499.1087	1519.7617	1873.2639	2966.3894	2986.563	3033.4133	3039.3876	3059.5136	3066.936	3069.0265	3097.1854	3108.2952	3119.7631	3126.4274	3133.7026
COCC1(C)CCC1=O	COC[C@@]1(C)CCC1=O	
InChI=1S/C7H12O2/c1-7(5-9-2)4-3-6(7)8/h3-5H2,1-2H3	InChI=1S/C7H12O2/c1-7(5-9-2)4-3-6(7)8/h3-5H2,1-2H3/t7-/m1/s1
