22
gdb 63464	2.71396	1.28421	1.02626	2.4842	82.29	-0.239	0.0735	0.3125	1258.2151	0.191415	-404.307789	-404.297567	-404.296622	-404.342734	38.	
C	-0.0168064778	 1.4158104596	-0.2861954954	-0.438729
C	 0.0571924581	-0.0497585036	 0.1015141368	 0.28946
C	-0.9871943072	-0.8949919731	-0.608575316	-0.465205
N	 1.4262060783	-0.5927147748	 0.2425328158	-0.408716
C	 0.5732730684	-0.476726085	 1.4449421447	 0.232971
C	 1.0473832078	 0.5206386019	 2.4882973161	-0.451236
C	-0.0277095919	-1.701065805	 2.0918518758	 0.011186
C	 0.4213964382	-3.0825577414	 1.8651246633	-0.179206
O	 0.7930535208	-2.3854958209	 3.049143881	-0.234378
H	 0.8059173519	 1.9920101353	 0.1368081117	 0.129183
H	 0.0354663598	 1.5157761052	-1.3764351369	 0.116602
H	-0.9624252818	 1.8611811521	 0.0432684985	 0.112438
H	-0.8384133114	-0.8422230399	-1.6935159072	 0.120693
H	-0.948489745	-1.9456938554	-0.3130695415	 0.11799
H	-1.9983703986	-0.5256712368	-0.4019877426	 0.121663
H	 1.4539223743	-1.5542362191	-0.0890114955	 0.217084
H	 1.5753277405	 1.3568616593	 2.0305454342	 0.12696
H	 0.2050830759	 0.9121327265	 3.0704544277	 0.111241
H	 1.7311891979	 0.0217092236	 3.1808464394	 0.14028
H	-1.0548118464	-1.5666860054	 2.4393366023	 0.098101
H	-0.2804796959	-3.9057558014	 1.99906633	 0.115409
H	 1.2373662841	-3.2874706415	 1.1731604277	 0.116211
54.6882	139.6028	149.7349	160.3866	178.1512	203.5292	273.0716	293.5711	322.7168	378.4307	403.4894	462.0235	501.2445	554.3864	674.2877	716.9753	823.9845	851.701	882.6352	950.8527	957.1953	987.3856	1001.9372	1020.1496	1048.0431	1077.8516	1098.467	1116.7855	1159.2004	1164.8403	1174.0625	1198.2017	1246.8082	1296.7369	1320.2184	1405.3128	1407.5585	1419.5024	1421.2142	1429.2374	1475.21	1484.4478	1485.7213	1497.816	1505.7065	1516.6044	1528.4029	3027.2848	3033.5299	3039.8908	3074.0975	3080.3872	3082.5591	3089.1236	3106.1522	3122.0668	3141.8861	3154.5356	3157.7966	3492.1869
CC1(C)NC1(C)C1CO1	CC1(C)N[C@]1(C)[C@H]1CO1	
InChI=1S/C7H13NO/c1-6(2)7(3,8-6)5-4-9-5/h5,8H,4H2,1-3H3	InChI=1S/C7H13NO/c1-6(2)7(3,8-6)5-4-9-5/h5,8H,4H2,1-3H3/t5-,7-/m1/s1
