18
gdb 43623	3.51833	1.16104	1.11222	3.5189	73.03	-0.2532	0.0315	0.2847	1163.9818	0.148309	-439.065474	-439.057412	-439.056468	-439.09905	29.718	
N	 0.3888692486	 0.8051308265	 0.7787177023	-0.540729
C	 0.1311522986	-0.2329954747	 0.1277095651	 0.453049
C	-1.1047490283	-1.0727678616	-0.1067003194	-0.377228
C	-0.1649271413	-1.9157544939	-0.9985079366	 0.096081
O	 0.9460647038	-1.0142669706	-0.6732593419	-0.268851
C	 0.1098653125	-3.3360263143	-0.560938763	 0.123435
C	 1.5247410442	-3.8956675947	-0.8409214371	-0.294709
C	 1.6449371936	-3.9538004378	 0.6946966786	-0.056357
O	 0.3040144031	-3.4376234442	 0.8641116023	-0.291437
H	 1.3694751674	 1.0726036786	 0.6780283453	 0.226339
H	-1.4674642645	-1.5853774315	 0.7846181433	 0.156962
H	-1.9234539432	-0.5600657272	-0.6123978259	 0.134289
H	-0.3729821628	-1.8773264273	-2.0732077833	 0.092514
H	-0.7213050234	-3.9723820981	-0.8983855248	 0.081347
H	 1.5501595893	-4.857907442	-1.3528172377	 0.113683
H	 2.1998126813	-3.1952595668	-1.3325921066	 0.130113
H	 1.7477630863	-4.9553483317	 1.1276016467	 0.105546
H	 2.3928412449	-3.2882817888	 1.1385962428	 0.115953
64.2422	90.8195	100.0229	199.4851	256.0941	377.9894	481.0806	494.5834	613.4548	682.8639	767.451	804.8835	841.8353	865.4016	919.7872	926.445	938.9151	976.6005	988.6906	1015.7046	1030.6604	1044.6415	1100.7359	1129.7991	1143.0844	1167.2191	1215.8961	1223.0008	1243.0799	1260.1714	1269.1097	1309.8129	1352.5468	1384.2366	1386.3476	1454.5604	1483.6406	1528.8945	1830.4263	2998.5764	3030.1045	3057.92	3075.6112	3092.1098	3096.8754	3151.332	3156.9139	3476.5457
N=C1CC(O1)C1CCO1	[NH][C]1C[C@@H](O1)[C@H]1CCO1	
InChI=1S/C6H9NO2/c7-6-3-5(9-6)4-1-2-8-4/h4-5,7H,1-3H2	InChI=1S/C6H9NO2/c7-6-3-5(9-6)4-1-2-8-4/h4-5,7H,1-3H2/t4-,5-/m1/s1
