19
gdb 78733	4.54378	1.10998	1.02161	3.5064	81.86	-0.2424	-0.016	0.2264	1208.2211	0.159173	-385.857463	-385.849525	-385.848581	-385.8898	30.925	
C	-0.1373181186	 1.4520242771	 0.0118333972	-0.410734
C	 0.0505191269	-0.0600040761	 0.0269991657	 0.01628
C	 0.8694538083	-0.5881172699	-1.1550315617	-0.111188
C	 2.143499395	-0.5163076849	-0.3857429256	-0.120912
C	 1.2383267112	-0.5524846446	 0.9139905606	-0.070066
C	 1.173592095	-2.0981786667	 0.802357159	-0.303736
C	 1.5425177111	-1.903386729	-0.6634078169	 0.258372
C	 2.0679183293	-2.8824903491	-1.6132542568	 0.044249
O	 2.1686052072	-4.0676275482	-1.3926312507	-0.27275
H	 0.8143088397	 1.966769583	-0.1600432853	 0.118225
H	-0.8306960721	 1.7577324261	-0.7789999442	 0.1172
H	-0.5453664556	 1.8021713635	 0.9659432787	 0.117064
H	-0.906273247	-0.5612077336	 0.2194934532	 0.069442
H	 0.7132234125	-0.4210249008	-2.214224207	 0.094656
H	 3.130187717	-0.1428361812	-0.6185083931	 0.103934
H	 1.4611716787	-0.05942563	 1.8583446771	 0.076502
H	 1.9853488492	-2.5942186525	 1.3393367868	 0.114031
H	 0.221186592	-2.5799774257	 1.0466866473	 0.100253
H	 2.3924548203	-2.4482775376	-2.5890426142	 0.059176
97.1508	151.8034	234.0231	239.3825	269.3384	303.6515	405.5136	436.1663	531.1595	693.049	736.2874	774.3567	791.7435	833.7528	873.8036	892.0446	916.5268	945.8654	987.6904	1005.027	1020.7614	1043.5043	1055.4703	1087.8288	1112.2022	1130.7616	1143.4919	1176.5281	1189.17	1238.3069	1249.2699	1283.0511	1319.5993	1364.5299	1385.7721	1412.9433	1438.4066	1494.619	1499.0603	1504.3858	1800.1568	2843.464	3025.4766	3028.8129	3048.6458	3096.0235	3099.9886	3112.168	3135.2806	3186.8169	3224.1951
CC1C2C3C1CC23C=O	C[C@H]1[C@H]2[C@H]3[C@@H]1C[C@@]23C=O	
InChI=1S/C8H10O/c1-4-5-2-8(3-9)6(4)7(5)8/h3-7H,2H2,1H3	InChI=1S/C8H10O/c1-4-5-2-8(3-9)6(4)7(5)8/h3-7H,2H2,1H3/t4-,5-,6+,7-,8-/m1/s1
