16
gdb 16972	3.43322	2.2147	2.00571	2.3303	58.49	-0.2499	0.0657	0.3156	741.2095	0.132939	-420.876247	-420.869894	-420.86895	-420.906583	25.168	
O	-0.0123054218	 1.4489006589	-0.0301854864	-0.433228
C	 0.0269624932	 0.0368480865	 0.0396644139	 0.119474
C	 0.5993921763	-0.5615573772	 1.3667098608	-0.278117
C	-0.6248486044	-1.3611574433	 1.8492563624	 0.191053
O	-1.5899615637	-0.4624275858	 2.3800102465	-0.275431
C	-2.1901967903	 0.1471073376	 1.2197396455	-0.085572
C	-1.4123039033	-0.5310709418	 0.0785817399	 0.017337
O	-1.1929229215	-1.8344980118	 0.6365401314	-0.253305
H	 0.8911634381	 1.7768711115	-0.0549902045	 0.290726
H	 0.552433646	-0.3788975651	-0.8292096118	 0.0775
H	 1.4590162627	-1.2134887902	 1.191336229	 0.103205
H	 0.8751219989	 0.2225253329	 2.0751119277	 0.111944
H	-0.458321571	-2.1788201285	 2.5499364666	 0.091855
H	-3.2574751914	-0.0971239212	 1.1895625548	 0.103225
H	-2.0513852911	 1.2298256974	 1.2405880857	 0.128087
H	-1.9245699368	-0.60006526	-0.8789853913	 0.091246
129.9757	254.3717	283.1906	364.8292	418.4418	524.8636	550.6386	644.7783	781.9642	810.4353	836.7226	865.624	896.5543	970.0203	970.824	982.5778	1020.7908	1040.3827	1073.8596	1088.6403	1112.8821	1191.3538	1196.303	1210.6602	1259.0763	1266.9633	1310.3244	1329.4701	1332.5661	1362.0239	1379.2252	1422.0617	1474.1985	1516.5484	3017.4693	3044.1486	3065.6645	3115.1615	3123.8408	3133.0462	3147.4038	3833.5754
OC1CC2OCC1O2	O[C@H]1C[C@H]2OC[C@@H]1O2	
InChI=1S/C5H8O3/c6-3-1-5-7-2-4(3)8-5/h3-6H,1-2H2	InChI=1S/C5H8O3/c6-3-1-5-7-2-4(3)8-5/h3-6H,1-2H2/t3-,4-,5-/m0/s1
