23
gdb 110301	2.18733	1.38522	1.25332	1.1012	86.23	-0.2417	0.0772	0.3189	1208.1857	0.204951	-388.252368	-388.242569	-388.241625	-388.286591	36.874	
C	-0.423561082	 0.8503035586	-0.1306322783	-0.24206
O	-0.4081322155	-0.5430917273	 0.0892363693	-0.236176
C	 0.4988712873	-0.9533589768	 1.0872398134	 0.113693
C	 0.3190939153	-2.3844372117	 1.5790788943	-0.123189
C	 0.6329898475	-3.426599637	 0.5397973874	 0.014081
C	 0.1981168413	-3.4217257943	-0.9145714695	-0.42598
C	 1.7811804318	-2.7044654393	 1.1916406737	-0.09486
C	 2.0045489333	-1.2639294501	 0.7097424697	-0.016128
C	 2.5546603795	-0.9914552086	-0.6870541335	-0.413961
H	 0.5386937722	 1.2268169747	-0.5058704502	 0.109101
H	-1.1938966504	 1.0524493352	-0.8790300384	 0.125845
H	-0.6718464372	 1.3996451355	 0.7912162251	 0.103894
H	 0.4593815467	-0.2411602857	 1.9240236101	 0.065641
H	-0.2117514269	-2.6358489803	 2.4900298017	 0.079827
H	 0.5407357986	-4.4193296507	 0.9816283507	 0.083174
H	 0.9212303054	-3.9532242314	-1.5438023017	 0.105377
H	-0.7636970528	-3.9383462468	-1.0100301027	 0.108752
H	 0.0589465036	-2.4143485486	-1.302847194	 0.146742
H	 2.508704887	-3.2509521595	 1.7816669382	 0.07877
H	 2.640773314	-0.7474383671	 1.4370981609	 0.069856
H	 1.9026711573	-1.3656683863	-1.4773050231	 0.126608
H	 2.6991540738	 0.0820777104	-0.8516035333	 0.108497
H	 3.5316055601	-1.4736524928	-0.8063041796	 0.112498
110.57	118.4435	153.6775	172.6229	184.6744	223.1675	262.996	271.2049	309.8548	378.3746	478.6389	545.9083	647.3724	690.8402	719.1371	790.5921	803.1923	879.6782	938.2613	962.6275	980.3672	1018.6375	1031.4426	1065.6729	1073.5512	1090.4698	1103.4563	1145.095	1151.5582	1158.9201	1182.8637	1221.6198	1231.2314	1240.5806	1285.5456	1319.632	1357.5794	1372.7485	1395.232	1410.667	1416.5254	1454.9209	1480.5947	1484.4308	1491.9532	1494.2762	1504.372	1511.5234	1516.2945	2976.322	2990.015	3029.6158	3031.033	3032.5964	3040.7008	3082.3503	3087.6685	3100.4002	3112.4743	3140.6449	3163.7519	3165.709	3176.3811
COC1C2C(C)C2C1C	CO[C@H]1[C@H]2[C@@H](C)[C@H]2[C@H]1C	
InChI=1S/C8H14O/c1-4-6-5(2)8(9-3)7(4)6/h4-8H,1-3H3	InChI=1S/C8H14O/c1-4-6-5(2)8(9-3)7(4)6/h4-8H,1-3H3/t4-,5+,6-,7-,8+/m0/s1
