20
gdb 26319	3.8068	1.01824	0.85468	0.9065	82.03	-0.2275	0.0137	0.2412	1415.0652	0.170223	-403.205034	-403.195554	-403.19461	-403.239702	34.539	
C	 0.5292834398	 1.5364594535	-0.483759661	-0.397294
C	 0.0367154596	 0.1925617906	 0.0661748574	-0.078111
C	 0.205429311	-0.9373537808	-0.9662483226	-0.382615
C	 0.7070721897	-0.1674232371	 1.3592160127	 0.258818
C	 1.7165847214	 0.4384093774	 2.0292681348	-0.138778
O	 1.9773020848	-0.2838549996	 3.1658822763	-0.177622
C	 1.0930467103	-1.3124166589	 3.1256969834	 0.377411
C	 1.1217063133	-2.2923094245	 4.2427283294	-0.488546
N	 0.3204603355	-1.2962300967	 2.0866621226	-0.350262
H	 1.5984326614	 1.4953399436	-0.7219119868	 0.115473
H	-0.0038289478	 1.7929873389	-1.4039531203	 0.113905
H	 0.3725457168	 2.3471866929	 0.2347896359	 0.115281
H	-1.037773007	 0.280408919	 0.2796913199	 0.092521
H	 1.2579654101	-1.0484456617	-1.2499711997	 0.111415
H	-0.1374406773	-1.8895268656	-0.5545700252	 0.136411
H	-0.3700545706	-0.721087909	-1.8722585356	 0.106503
H	 2.3195184143	 1.3152036587	 1.8726188363	 0.140157
H	 2.0966943118	-2.7863308861	 4.3091164287	 0.144886
H	 0.9362195236	-1.8007287999	 5.2033410552	 0.144814
H	 0.3519634892	-3.0452326947	 4.0727409988	 0.155633
52.0378	96.3024	138.2022	170.0142	236.4848	251.348	278.774	305.1298	347.5849	441.0611	472.221	608.6607	665.4702	714.1558	732.2368	766.7206	885.0367	929.6586	942.5629	968.3996	996.7181	1042.3387	1066.3294	1105.0371	1126.688	1135.0811	1176.9204	1231.1091	1250.3213	1334.3711	1343.0643	1376.5254	1395.7772	1411.8758	1416.8433	1476.2043	1481.4217	1488.8718	1492.2398	1501.4405	1514.0415	1621.7744	1632.7359	3007.2419	3029.6728	3033.9495	3044.0657	3095.3359	3098.0316	3100.5153	3108.7116	3125.4902	3157.6816	3298.5587
CC(C)C1=COC(C)=N1	CC(C)c1coc(C)n1	
InChI=1S/C7H11NO/c1-5(2)7-4-9-6(3)8-7/h4-5H,1-3H3	InChI=1S/C7H11NO/c1-5(2)7-4-9-6(3)8-7/h4-5H,1-3H3
