17
gdb 39145	3.5555	1.40101	1.25437	2.6911	67.43	-0.2516	0.0699	0.3215	1021.1642	0.136374	-458.916215	-458.908919	-458.907975	-458.948369	27.767	
C	-0.0491040249	 1.4737924164	-0.0676367024	-0.12645
O	 1.3783861514	 1.6111001439	 0.107500446	-0.272846
C	 1.5210735912	 0.2119619044	 0.4187404591	-0.134443
C	 0.0630588964	-0.0621653798	-0.0351305987	 0.357108
O	-0.8141478488	-0.6974604476	 0.8745680023	-0.30361
C	-1.1434240519	-2.0151246586	 0.4339330515	-0.124004
C	-0.8405410954	-2.0336793868	-1.0468560583	 0.022641
O	-1.4466422439	-0.9429275825	-1.7471043589	-0.251899
C	-0.0804677373	-0.8164119357	-1.3352476712	-0.053588
H	-0.6153787282	 1.8684516386	 0.7847733337	 0.11293
H	-0.4049030846	 1.9318695451	-0.9960871385	 0.115425
H	 2.3344470454	-0.2589654326	-0.1470070238	 0.099483
H	 1.6632579424	 0.0307785335	 1.4920176516	 0.106621
H	-0.5369158719	-2.7746118131	 0.9506866726	 0.102727
H	-2.1988297837	-2.1931437188	 0.6637923048	 0.124952
H	-0.732344813	-2.9658876174	-1.5936022113	 0.109403
H	 0.660071617	-0.7202592392	-2.1238524785	 0.115549
87.1255	112.156	199.9861	322.4611	342.9704	391.1824	458.2191	527.6235	728.2871	793.8442	834.2496	848.4462	881.916	901.9769	946.619	962.1473	975.2078	1002.8415	1026.464	1048.5619	1076.608	1097.7185	1120.9134	1146.8601	1160.1939	1187.9864	1224.9643	1250.6517	1263.7511	1295.2301	1335.1852	1372.4963	1380.3318	1442.7725	1500.1675	1508.4739	1527.0575	2993.2253	3008.1127	3027.7596	3060.3467	3076.9315	3084.1269	3157.5248	3169.7225
C1OCC11OCC2OC12	C1OCC21OC[C@H]1O[C@@H]21	
InChI=1S/C6H8O3/c1-4-5(9-4)6(8-1)2-7-3-6/h4-5H,1-3H2	InChI=1S/C6H8O3/c1-4-5(9-4)6(8-1)2-7-3-6/h4-5H,1-3H2/t4-,5-/m1/s1
