20
gdb 32847	4.55231	0.81235	0.6974	1.5609	84.91	-0.1552	0.0638	0.219	1636.1322	0.171998	-399.351197	-399.341402	-399.340458	-399.386024	36.362	
C	 0.063374986	 1.5523232344	 0.0089843014	-0.398526
C	 0.0148819087	 0.0285640222	 0.0520249282	-0.103151
N	 0.7332784389	-0.4774645296	 1.2159897395	-0.406694
C	 0.7832828	-1.8687140769	 1.3625921592	 0.390299
C	 0.2972004971	-2.8936822364	 0.5794285483	-0.301922
C	 0.7354264813	-4.1228609009	 1.173802511	 0.261946
N	 0.3575564651	-5.405702143	 0.7246571858	-0.60604
C	 1.4680371263	-3.8096304657	 2.2898058152	-0.183702
N	 1.4633659784	-2.4181515088	 2.4158946994	-0.333728
H	 1.0976260859	 1.9078921692	-0.0095318597	 0.127306
H	-0.4511979159	 1.9285267742	-0.8797264735	 0.11976
H	-0.4299370689	 1.9892973906	 0.885343864	 0.112653
H	-1.0336637282	-0.3147338695	 0.0294875937	 0.093461
H	 0.4981394925	-0.3887950796	-0.838770556	 0.116234
H	 0.4157972037	-0.0214163201	 2.0649856549	 0.223754
H	-0.3397104527	-2.7948124502	-0.2851632627	 0.078314
H	 0.3654513958	-5.4651116589	-0.2866774834	 0.23483
H	 0.965022185	-6.129214558	 1.089499435	 0.232776
H	 1.9374267649	-4.4343752732	 3.0315102097	 0.095006
H	 2.112977376	-1.8991634	 2.9802314302	 0.247424
67.7209	80.7442	126.2358	193.0257	221.3009	247.7514	284.2433	313.7796	366.5376	406.1368	471.3807	585.2157	608.5403	638.7128	651.9609	695.4787	737.5239	785.2681	806.2722	828.4759	930.1346	991.8859	1013.2746	1079.5331	1101.7306	1116.2728	1149.4895	1173.7634	1214.3462	1281.4232	1298.6687	1311.3388	1381.8148	1410.9895	1447.7643	1454.7946	1490.509	1498.8733	1518.8697	1526.8109	1586.4427	1643.4702	1661.6063	2953.6553	3032.0774	3053.9764	3100.1388	3120.4595	3253.4523	3265.7054	3513.5903	3519.5904	3607.4455	3678.2282
CCNC1=CC(N)=CN1	CCNc1cc(N)c[nH]1	
InChI=1S/C6H11N3/c1-2-8-6-3-5(7)4-9-6/h3-4,8-9H,2,7H2,1H3	InChI=1S/C6H11N3/c1-2-8-6-3-5(7)4-9-6/h3-4,8-9H,2,7H2,1H3
