19
gdb 12823	3.36777	2.01125	1.5283	0.7102	70.7	-0.2399	0.0731	0.3131	891.4142	0.16745	-365.046003	-365.03865	-365.037706	-365.077185	28.952	
C	-0.0073802064	 1.5157223021	-0.0228257331	-0.456707
C	 0.0068153007	 0.004165679	 0.0353901127	 0.30306
C	-1.2159906331	-0.6809727379	-0.5848866291	-0.15366
O	-1.7729838902	-1.7293103122	 0.1881904345	-0.235087
C	-0.8044496678	-2.6652829228	 0.614603342	-0.09531
C	 0.1469714857	-2.0342467366	 1.6355436738	-0.233414
C	 0.7003060844	-0.7119068002	 1.1427186514	-0.032638
N	 1.3409856422	-0.6018788334	-0.1794078886	-0.373235
H	 0.9269952602	 1.9196290039	 0.3743528836	 0.128219
H	-0.1101868057	 1.8671099151	-1.0564957959	 0.118033
H	-0.8429172647	 1.923937089	 0.5566761036	 0.116875
H	-2.0217036229	 0.0482686377	-0.7090879663	 0.11195
H	-0.9540259295	-1.0547724365	-1.5915932316	 0.089742
H	-1.3516933508	-3.4990922843	 1.0628703235	 0.112498
H	-0.2491896928	-3.0674155378	-0.2518579361	 0.083202
H	-0.4061737635	-1.8549165592	 2.5650758405	 0.112829
H	 0.961709267	-2.7301396217	 1.8739726951	 0.102208
H	 1.1941872806	-0.1133318481	 1.9069079945	 0.084925
H	 1.2521312765	-1.4801994564	-0.6875306643	 0.216511
129.3035	200.6927	228.9881	320.8815	332.3002	391.8849	396.378	457.9574	542.7622	631.7804	719.4281	797.3337	846.6359	896.5151	920.8538	951.988	981.8827	1014.9171	1019.0099	1061.7956	1089.4427	1120.7131	1143.6955	1159.6348	1196.2761	1249.6058	1264.9337	1292.129	1334.2792	1345.1412	1370.0476	1378.7751	1412.8866	1423.71	1456.1442	1477.2929	1489.9762	1491.1255	1496.8694	1504.8773	2935.4752	2945.0531	3023.9758	3026.432	3064.8469	3081.707	3087.4133	3088.7573	3112.6987	3121.5821	3473.2374
CC12COCCC1N2	C[C@]12COCC[C@H]1N2	
InChI=1S/C6H11NO/c1-6-4-8-3-2-5(6)7-6/h5,7H,2-4H2,1H3	InChI=1S/C6H11NO/c1-6-4-8-3-2-5(6)7-6/h5,7H,2-4H2,1H3/t5-,6+/m1/s1
