19
gdb 108470	2.27737	1.60131	1.27648	1.4319	70.8	-0.2492	0.0469	0.2961	1075.2952	0.158234	-460.118779	-460.110017	-460.109073	-460.152413	32.664	
C	-0.605453965	 1.3001561341	 0.0043981901	-0.410374
C	 0.086285946	-0.0329048205	-0.153852618	 0.1163
O	 1.3292083019	 0.0331107643	-0.924949695	-0.321696
C	 2.0753752908	-0.6313782539	 0.1049503745	-0.002746
C	 2.6917608581	 0.3400535529	 1.1189969985	-0.101918
O	 1.457019466	 0.370881091	 1.8880008434	-0.342757
C	 0.8504541823	-0.6430033279	 1.0431572397	 0.365815
C	 0.2561376736	-1.7473902814	 1.8771115363	-0.16538
O	-0.7395767478	-1.2155432085	 2.7361224837	-0.417615
H	-0.8499926032	 1.717967079	-0.9767160347	 0.124637
H	-1.5346279995	 1.1683170983	 0.5681126847	 0.129221
H	 0.0340948242	 2.0024906563	 0.5432434875	 0.131421
H	-0.5844772108	-0.771992723	-0.6148406047	 0.077334
H	 2.6494438326	-1.4881648239	-0.2527402748	 0.089648
H	 3.5161138413	-0.0715418681	 1.7148900126	 0.106299
H	 2.9644557198	 1.3221756318	 0.7209146618	 0.117772
H	-0.234400451	-2.4919461317	 1.241661126	 0.113361
H	 1.0513996079	-2.2555513622	 2.4445161427	 0.092364
H	-0.3111424274	-0.5135975966	 3.2412561258	 0.298313
70.455	104.865	156.9612	201.242	241.0325	290.9772	343.2525	407.8101	428.7765	455.1894	547.0981	674.9459	695.412	842.99	850.0148	883.6335	914.4892	984.7208	988.8895	1031.6784	1046.5342	1057.5019	1088.7199	1099.1344	1133.0982	1154.1869	1157.024	1178.4759	1245.0605	1258.7183	1303.6983	1338.3826	1353.6703	1379.5988	1383.3776	1403.6343	1433.7717	1481.3208	1493.0567	1497.6639	1502.0049	2984.0957	3001.7082	3020.6383	3044.479	3079.0692	3088.9223	3095.7845	3114.6135	3135.9941	3788.4788
CC1OC2COC12CO	C[C@H]1O[C@H]2CO[C@@]12CO	
InChI=1S/C6H10O3/c1-4-6(3-7)5(9-4)2-8-6/h4-5,7H,2-3H2,1H3	InChI=1S/C6H10O3/c1-4-6(3-7)5(9-4)2-8-6/h4-5,7H,2-3H2,1H3/t4-,5+,6+/m1/s1
