18
gdb 11895	4.58114	1.46179	1.22445	2.1961	75.79	-0.2307	0.017	0.2478	1025.2001	0.153642	-347.807788	-347.80004	-347.799096	-347.840256	29.152	
C	 0.0089190554	 1.50190054	 0.025483812	-0.48721
C	 0.012199671	 0.0074104782	-0.0102928412	 0.320606
C	-0.1881471533	-0.7802845798	-1.0704234145	-0.251713
C	-0.1234516802	-2.2186461328	-0.7149170616	 0.447657
C	-0.8803553577	-3.2722956768	-1.4096849898	-0.250901
O	 0.5236158138	-3.1258334899	-1.6267294196	-0.283334
C	 0.2789562618	-2.2775051006	 0.7641223889	-0.31811
C	 0.2362093085	-0.806260565	 1.2498293925	-0.309597
H	 0.9668872005	 1.887014413	 0.3978081448	 0.12836
H	-0.1717930435	 1.9326271878	-0.9627431538	 0.126049
H	-0.7622494932	 1.8789354521	 0.7095352094	 0.12678
H	-0.381380974	-0.4459951181	-2.0835312298	 0.093181
H	-1.1811232012	-4.1653172651	-0.8607033951	 0.107205
H	-1.5164985796	-3.0203713237	-2.2588267743	 0.106507
H	-0.3762410157	-2.9297745374	 1.3467130253	 0.105664
H	 1.2897910593	-2.6896416992	 0.8294900767	 0.12444
H	 1.1554629049	-0.5040694885	 1.766964367	 0.106474
H	-0.5795728067	-0.6365235141	 1.9652628532	 0.107941
45.0107	145.2485	187.1401	258.3211	329.972	396.0812	403.5994	493.9304	514.7421	592.5477	763.5386	824.2276	848.7294	866.5157	882.195	918.0288	963.4599	984.5724	1017.0194	1026.9458	1085.5238	1128.578	1145.6031	1172.3509	1180.6579	1230.5745	1250.3384	1277.1256	1304.8129	1345.3831	1412.295	1419.6162	1478.16	1479.4052	1487.4513	1498.8284	1528.1811	1718.0599	3014.6384	3019.3257	3042.4188	3062.9567	3064.7665	3065.2143	3106.8555	3113.7691	3149.1657	3197.1586
CC1=CC2(CO2)CC1	CC1=C[C@]2(CO2)CC1	
InChI=1S/C7H10O/c1-6-2-3-7(4-6)5-8-7/h4H,2-3,5H2,1H3	InChI=1S/C7H10O/c1-6-2-3-7(4-6)5-8-7/h4H,2-3,5H2,1H3/t7-/m0/s1
