21
gdb 53494	4.05351	0.65672	0.62138	2.7209	88.55	-0.2361	-0.0121	0.224	1884.8309	0.17826	-387.098552	-387.086974	-387.08603	-387.137456	39.253	
C	 0.028277294	 1.5063477251	-0.0143135529	-0.498681
C	 0.0197155516	 0.0499110943	-0.0263218978	 0.111892
C	 0.0311628562	-1.1546967318	-0.0362464982	 0.018516
C	 0.0216250676	-2.6130337902	-0.0399788798	-0.361841
C	-1.4038789385	-3.2102276724	-0.0249487467	-0.07463
C	-2.1987393115	-2.8219266192	-1.2879427289	-0.397405
C	-1.3404056332	-4.7355174662	 0.0780038456	 0.384763
C	-2.5309969797	-5.4239422444	 0.7215034348	-0.482169
O	-0.3900710917	-5.3604733027	-0.3359758444	-0.306506
H	 0.7879681762	 1.8940664864	 0.673609623	 0.14735
H	 0.2446140221	 1.9135427266	-1.0083191926	 0.146463
H	-0.9397303468	 1.9094848753	 0.3037885739	 0.14461
H	 0.5520792469	-3.0016893419	-0.9164769391	 0.143048
H	 0.5760175094	-2.9901151965	 0.8280704971	 0.127879
H	-1.9433651327	-2.8249772349	 0.8492610936	 0.087237
H	-2.2382192095	-1.7336737817	-1.3793199731	 0.139094
H	-1.7144890047	-3.2251254844	-2.1834666711	 0.13142
H	-3.2246431218	-3.2005095587	-1.2558231186	 0.115645
H	-3.4777851325	-5.0382780951	 0.3306268707	 0.13666
H	-2.4696008124	-6.5015874781	 0.5652339434	 0.142553
H	-2.5256905791	-5.2164386996	 1.7986612211	 0.144101
27.6293	45.5679	49.9725	82.2726	134.0545	206.0549	209.6243	225.5686	256.0232	295.7959	309.3915	387.2	402.3635	518.9575	580.3102	601.6223	749.1852	810.2603	872.102	902.1509	954.2417	992.8191	1052.5291	1053.4498	1062.3464	1100.8241	1121.7503	1168.5168	1177.4213	1249.8325	1304.0321	1331.2859	1373.6029	1383.6887	1404.6711	1415.9279	1462.7793	1467.0483	1475.6228	1479.2467	1480.0135	1497.247	1503.5028	1806.6384	2370.3317	3025.2486	3029.8403	3033.0902	3036.8901	3040.3888	3070.3561	3084.6507	3085.3051	3098.3866	3110.7576	3124.3192	3152.2563
CC#CCC(C)C(C)=O	CC#CC[C@@H](C)C(=O)C	
InChI=1S/C8H12O/c1-4-5-6-7(2)8(3)9/h7H,6H2,1-3H3	InChI=1S/C8H12O/c1-4-5-6-7(2)8(3)9/h7H,6H2,1-3H3/t7-/m1/s1
