20
gdb 70532	2.59625	1.4741	1.16205	2.7644	78.55	-0.2418	-0.0207	0.2211	1130.5568	0.172171	-403.164688	-403.156284	-403.15534	-403.197719	32.526	
C	-0.0049017854	 1.535694467	-0.002867147	-0.446086
C	-0.0068126448	 0.0234806477	 0.05811558	 0.302142
C	-1.2579332792	-0.6367528477	-0.5100648598	-0.360846
C	-1.3404333027	-2.1276310307	-0.2068038324	 0.358932
O	-1.587925914	-2.9528039582	-1.0548296061	-0.308961
C	-1.087060694	-2.4745777469	 1.2487658946	-0.288519
C	 0.3231990275	-2.0284921155	 1.6985069929	-0.250787
C	 0.761615609	-0.6865839523	 1.1256139271	-0.04218
N	 1.2927080375	-0.6023599272	-0.2517658675	-0.365668
H	 0.9491652931	 1.9306654601	 0.3542491302	 0.129684
H	-0.1471427319	 1.881236655	-1.0330805881	 0.122029
H	-0.8106740567	 1.9565892165	 0.6090370496	 0.112084
H	-2.1468737917	-0.1613036982	-0.0708101162	 0.120285
H	-1.3146454687	-0.4927288192	-1.5940174284	 0.124325
H	-1.8344059913	-1.9391687122	 1.8489491744	 0.117275
H	-1.2339426548	-3.5466806477	 1.3939430148	 0.12186
H	 0.3479461622	-1.9795597872	 2.7915499786	 0.113465
H	 1.0571560537	-2.7927208362	 1.4140759011	 0.122131
H	 1.3256543383	-0.0670901881	 1.820384642	 0.09025
H	 1.1543040341	-1.490984629	-0.7321145397	 0.228587
74.5849	111.5563	196.3434	234.1038	301.31	358.7485	387.2641	406.0892	490.5048	508.1361	553.0631	629.4912	744.1227	781.8118	801.1201	861.3923	878.1478	906.4575	961.3211	1007.5669	1009.7122	1040.3392	1080.7685	1098.8027	1129.7353	1171.3366	1183.7258	1221.5641	1241.4552	1256.1485	1285.5601	1316.3946	1341.2775	1355.1502	1376.9362	1414.8705	1441.3781	1467.0362	1476.4832	1487.9059	1494.8307	1499.2694	1819.3003	3010.6352	3027.0991	3030.1249	3032.358	3076.164	3079.3417	3091.6317	3115.7341	3118.7387	3123.1229	3466.4835
CC12CC(=O)CCC1N2	C[C@]12CC(=O)CC[C@H]1N2	
InChI=1S/C7H11NO/c1-7-4-5(9)2-3-6(7)8-7/h6,8H,2-4H2,1H3	InChI=1S/C7H11NO/c1-7-4-5(9)2-3-6(7)8-7/h6,8H,2-4H2,1H3/t6-,7+/m1/s1
