15
gdb 75980	2.20673	1.9685	1.14989	4.3598	64.17	-0.2764	-0.0076	0.2689	1014.2174	0.11351	-491.091306	-491.083638	-491.082694	-491.123606	29.044	
O	 0.5312074318	 0.3066647284	-0.9468983136	-0.412613
C	-0.0591491117	-0.4831432842	 0.0224448529	-0.026427
C	 0.5499933608	-0.2539305984	 1.3984425018	 0.39103
N	 1.5430126757	 0.5118547192	 1.5252107972	-0.542099
O	-0.0762999337	-0.8863801567	 2.4247370786	-0.228835
C	-1.2048277629	-1.6622084638	 2.043929147	-0.002363
O	-2.105368687	-0.932578037	 1.2476555843	-0.238812
C	-1.5701184651	-0.2920541291	 0.1462528283	 0.366822
N	-2.2618985691	 0.3828334763	-0.6541818112	-0.482746
H	 1.1814633011	 0.8553392039	-0.4779605547	 0.303768
H	 0.0942696515	-1.5523079695	-0.222206917	 0.122972
H	 1.8483030638	 0.6049556184	 2.4929603868	 0.239801
H	-0.8721313675	-2.5722817879	 1.5270741849	 0.127483
H	-1.7267580004	-1.9183261333	 2.9650873103	 0.151024
H	-3.2462184973	 0.3690512036	-0.3799669157	 0.230995
93.0581	122.1574	274.834	307.7341	331.7158	356.2314	410.6782	476.1228	529.3353	549.2119	563.3986	645.7219	771.0383	869.9088	888.4937	914.2796	926.8833	984.04	1015.4046	1054.9288	1119.399	1173.0108	1199.5701	1236.1129	1261.7092	1287.9611	1323.6765	1397.8967	1446.4425	1455.1362	1526.6312	1768.4857	1800.3296	2920.5053	3017.6075	3146.7012	3474.6261	3509.7223	3674.5216
OC1C(=N)OCOC1=N	O[C@H]1[C]([NH])OCO[C]1[NH]	
InChI=1S/C4H6N2O3/c5-3-2(7)4(6)9-1-8-3/h2,5-7H,1H2	InChI=1S/C4H6N2O3/c5-3-2(7)4(6)9-1-8-3/h2,5-7H,1H2
