17
gdb 69203	2.78585	1.5705	1.15718	4.0694	75.29	-0.2437	-0.0563	0.1874	1070.9114	0.135784	-421.849877	-421.842033	-421.841089	-421.882065	30.232	
C	-0.0828283023	 1.5276454142	 0.058164416	-0.469301
C	-0.0400405535	 0.0172757898	 0.0528149318	 0.392419
C	-1.1262296345	-0.6821765845	-0.745737941	-0.344459
C	-1.236441346	-2.1582735826	-0.5010682187	-0.034582
C	-0.6462256948	-2.80614773	 0.5093759318	-0.169822
C	 0.1777177496	-2.1109152796	 1.5154199052	 0.405014
O	 0.4862181396	-2.6119032851	 2.579247505	-0.33659
C	 0.6067140255	-0.7107109358	 1.1700040926	-0.146905
O	 1.2561018703	-0.5557782343	-0.104885255	-0.281479
H	 0.7699537004	 1.9320451157	 0.6080082585	 0.137847
H	-0.0447869033	 1.9153742963	-0.965888798	 0.130159
H	-1.0053014917	 1.8908642404	 0.522646038	 0.127079
H	-2.0975226227	-0.2122092674	-0.5332609777	 0.129468
H	-0.9463486348	-0.5000498591	-1.8145695372	 0.131829
H	-1.8695509999	-2.7087113246	-1.1933583717	 0.112473
H	-0.7949449665	-3.8686251851	 0.6715163272	 0.114579
H	 1.0632881947	-0.1633786384	 1.9926982133	 0.10227
106.4586	157.8282	208.8786	276.5007	329.3904	366.894	386.5553	460.0889	481.0363	530.6909	653.2403	663.8159	749.5997	841.3526	859.0348	893.1914	904.2188	949.5879	992.6813	1021.8241	1030.7508	1084.1258	1100.8102	1172.8047	1214.5337	1242.9536	1275.2313	1307.7027	1379.9132	1409.7519	1413.7647	1437.3027	1454.9216	1485.749	1496.7787	1690.4246	1774.4085	3008.3718	3034.3878	3036.9815	3100.9504	3129.7048	3137.653	3154.8242	3194.5648
CC12CC=CC(=O)C1O2	C[C@]12CC=CC(=O)[C@H]1O2	
InChI=1S/C7H8O2/c1-7-4-2-3-5(8)6(7)9-7/h2-3,6H,4H2,1H3	InChI=1S/C7H8O2/c1-7-4-2-3-5(8)6(7)9-7/h2-3,6H,4H2,1H3/t6-,7+/m1/s1
