13
gdb 55669	2.72223	1.03778	0.87487	5.6822	60.72	-0.2865	-0.0569	0.2296	1287.1461	0.086429	-489.930909	-489.9216	-489.920655	-489.966605	31.12	
N	-0.1986920237	 1.3445410076	-0.1152383258	-0.563568
C	 0.0313010795	 0.0317669734	 0.1088614431	 0.527154
O	 1.0451443555	-0.4628074245	 0.5345664212	-0.378352
O	-1.1094963004	-0.6853478944	-0.1946397732	-0.267765
C	-0.9920602226	-2.0963272592	-0.0521754612	-0.129105
C	-2.0612481271	-2.5701159265	 0.9457512253	 0.157815
O	-2.6092774685	-3.6313567683	 0.8937702248	-0.210911
C	-1.0988630222	-2.7523371153	-1.3568760131	 0.299324
N	-1.1803561296	-3.2620672617	-2.3891357707	-0.3044
H	 0.5813373075	 1.9734870333	-0.0405802548	 0.284412
H	-1.0224749572	 1.6355158937	-0.6123674095	 0.280607
H	-0.0076236322	-2.3164580844	 0.389024111	 0.192477
H	-2.2500368591	-1.8171406337	 1.7396972231	 0.112312
37.1125	73.0361	85.2976	145.7132	188.1745	259.9586	287.1104	342.1859	392.4001	474.8545	533.4721	568.491	636.7151	704.7175	774.3321	809.6902	919.6722	1028.5462	1073.4163	1106.7963	1115.6956	1277.5269	1320.418	1368.2621	1403.9923	1612.0936	1853.8311	1858.397	2373.6151	2923.003	3009.0682	3623.7784	3756.5738
NC(=O)OC(C=O)C#N	NC(=O)O[C@@H](C=O)C#N	
InChI=1S/C4H4N2O3/c5-1-3(2-7)9-4(6)8/h2-3H,(H2,6,8)	InChI=1S/C4H4N2O3/c5-1-3(2-7)9-4(6)8/h2-3H,(H2,6,8)/t3-/m1/s1
