17
gdb 52903	2.03971	1.11245	0.78353	4.3311	79.64	-0.2478	0.0043	0.2521	1471.8041	0.132499	-421.807841	-421.797944	-421.797	-421.844688	33.868	
C	-0.1166076795	 1.5486894225	-0.0039727233	-0.500844
C	-0.0663641668	 0.0948177713	-0.0221503433	 0.02902
C	-0.0254649169	-1.1091556019	-0.0439252283	 0.089259
C	 0.046513063	-2.5430247538	-0.0770327981	 0.224363
C	-0.3207694555	-3.3686393814	 1.1425128894	-0.314175
C	-1.2052464032	-3.3810412471	-0.076331383	-0.306877
O	 1.0711253134	-3.0777338996	-0.9139877262	-0.217228
C	 2.3451235207	-2.8689032859	-0.5081258678	 0.160257
O	 3.2823929757	-3.2681275166	-1.1299597955	-0.270891
H	 0.62195137	 1.970066486	-0.6944298392	 0.159743
H	-1.1023314551	 1.9166795263	-0.3086676198	 0.154385
H	 0.0968364477	 1.9455205639	 0.9944887533	 0.152512
H	 0.2884156634	-4.2454550188	 1.3302833205	 0.13524
H	-0.6513274199	-2.834377853	 2.0249397401	 0.134542
H	-2.1522424297	-2.8572782152	-0.0412193415	 0.135002
H	-1.1797335313	-4.2596507413	-0.710021039	 0.142586
H	 2.4088481639	-2.3029583655	 0.4382003518	 0.093106
22.1035	57.6203	104.0351	125.8532	145.9648	209.4406	289.8551	302.7083	359.7848	425.7651	488.375	548.6921	577.6071	690.0276	779.4465	889.4988	926.4838	951.4473	989.6498	1045.0058	1049.829	1054.0194	1063.5019	1072.1442	1086.8789	1163.4148	1194.0856	1245.9436	1353.3338	1414.256	1428.2502	1452.3677	1474.0911	1477.9894	1485.981	1867.4661	2366.4322	2985.5436	3029.9564	3091.4138	3094.7464	3144.3531	3151.0732	3234.5096	3249.301
CC#CC1(CC1)OC=O	CC#CC1(CC1)OC=O	
InChI=1S/C7H8O2/c1-2-3-7(4-5-7)9-6-8/h6H,4-5H2,1H3	InChI=1S/C7H8O2/c1-2-3-7(4-5-7)9-6-8/h6H,4-5H2,1H3
