20
gdb 39210	2.64636	1.89555	1.43657	2.2635	77.53	-0.2222	0.0794	0.3015	971.1141	0.174528	-403.103016	-403.096134	-403.09519	-403.133852	29.016	
C	 0.0769154884	 1.5784096134	 0.0631361579	-0.263892
C	 1.2987722565	 0.7357459213	-0.0378719668	 0.005556
C	 2.3508398551	 0.6105531141	 1.0384686673	 0.080385
C	 1.9079315693	 0.5873292858	 2.5165315228	-0.291966
C	 1.8833719542	-0.9417430077	 2.3040725042	 0.112479
C	 0.5244824052	-1.5383407796	 1.9171250046	-0.207667
C	-0.4736314532	-0.5427373501	 1.3083162712	-0.161119
N	-0.0266525296	 0.1228734192	 0.0747008373	-0.081155
O	 2.7370727166	-0.7912227596	 1.1368711992	-0.291286
H	-0.0950534353	 2.1056077876	 1.0016961209	 0.104125
H	-0.3179186351	 2.0879123234	-0.812939981	 0.11433
H	 1.7337343022	 0.591271059	-1.0275475292	 0.097021
H	 3.2127127009	 1.2415176429	 0.7936010749	 0.07893
H	 2.7242110869	 0.8939226105	 3.1723440965	 0.111476
H	 0.9949394988	 1.1018960768	 2.8139235687	 0.102734
H	 2.3755255959	-1.5577789802	 3.0636448103	 0.076674
H	 0.7182532154	-2.3595297961	 1.2176861446	 0.12145
H	 0.0500127935	-1.9763361169	 2.8047763525	 0.095822
H	-1.3929224538	-1.0856644394	 1.0580799584	 0.106399
H	-0.7589399318	 0.1908313354	 2.0768155355	 0.089704
194.5057	215.2611	328.1619	348.446	387.6836	410.7165	469.3411	541.5458	624.847	713.8224	749.642	800.7038	876.7518	889.4104	897.202	935.4132	944.7011	958.0215	987.7323	1032.2949	1055.4328	1067.9311	1081.0692	1098.506	1129.5264	1139.625	1146.5715	1166.4145	1223.3633	1251.2143	1262.9285	1272.0287	1321.2616	1341.9016	1356.508	1375.3464	1387.998	1402.7201	1417.4627	1460.9781	1493.3082	1508.6893	1534.3019	2989.6673	3023.7584	3040.9671	3041.9673	3054.6982	3077.1793	3081.1033	3091.3939	3097.8902	3145.0365	3163.8013
C1C2C3CC(CCN12)O3	C1[C@H]2[C@H]3C[C@@H](CCN12)O3	
InChI=1S/C7H11NO/c1-2-8-4-6(8)7-3-5(1)9-7/h5-7H,1-4H2	InChI=1S/C7H11NO/c1-2-8-4-6(8)7-3-5(1)9-7/h5-7H,1-4H2/t5-,6+,7-,8?/m1/s1
