21
gdb 106412	2.73894	1.35181	1.14941	1.7284	83.02	-0.2513	0.0908	0.3421	1182.2997	0.182188	-387.022692	-387.014182	-387.013237	-387.055805	33.245	
C	 0.0318914479	 1.5250575297	 0.06148201	-0.382544
C	-0.0597449565	-0.0011001538	-0.0511740054	-0.314008
C	-1.4714846038	-0.5272223938	-0.0307688773	 0.241237
C	-2.5639056688	-0.3432054235	 1.0857546611	-0.267923
C	-3.2546098261	-1.2317910728	 0.0038167994	-0.156109
C	-2.6268507997	-0.2825283956	-1.0618460766	-0.264343
C	-1.9298222406	-1.9970447521	-0.0611833205	 0.514815
C	-1.4493989635	-3.2286885703	-0.6658896899	-0.319924
O	-1.4907398205	-3.0380453154	 0.7743642711	-0.30926
H	 1.0739280796	 1.8579274171	 0.0443249374	 0.1136
H	-0.4897250414	 2.0164363406	-0.7665199693	 0.117582
H	-0.4172396489	 1.8800194059	 0.9947496294	 0.120675
H	 0.4281808713	-0.3321813901	-0.9777692675	 0.097656
H	 0.496124456	-0.4689708174	 0.7715075615	 0.111054
H	-2.360478222	-0.8119212619	 2.0508442042	 0.109677
H	-2.9668890594	 0.6667957461	 1.1987655144	 0.089489
H	-4.2665516904	-1.6343807723	 0.0209388928	 0.079066
H	-3.0353133868	 0.7304406731	-1.0839498352	 0.095147
H	-2.4863259751	-0.6844787425	-2.0691997905	 0.091063
H	-2.1538242397	-3.9652820441	-1.049881575	 0.117279
H	-0.4479485816	-3.2830520768	-1.0907000439	 0.115771
71.962	134.0709	199.2936	213.1495	261.5253	272.2582	350.7815	466.1631	482.8904	606.9787	616.1142	660.1919	754.7966	778.585	824.7263	886.5698	903.7176	922.492	942.0251	967.1277	996.5804	1023.0711	1038.5582	1059.7535	1078.5582	1096.2307	1110.5953	1118.1743	1160.1648	1170.015	1177.2089	1211.7121	1214.6098	1228.6277	1301.5606	1316.9285	1379.8784	1411.2301	1452.7777	1481.7105	1489.4254	1500.1921	1507.2634	1521.6397	1566.5212	3014.7584	3035.5621	3048.6194	3051.8677	3056.6646	3082.2499	3104.1813	3107.7453	3120.273	3125.7804	3128.4143	3166.7624
CCC12CC(C1)C21CO1	CC[C@@]12C[C@@H](C1)[C@]12CO1	
InChI=1S/C8H12O/c1-2-7-3-6(4-7)8(7)5-9-8/h6H,2-5H2,1H3	InChI=1S/C8H12O/c1-2-7-3-6(4-7)8(7)5-9-8/h6H,2-5H2,1H3/t6-,7+,8-/m0/s1
