20
gdb 89096	4.11598	0.71306	0.65471	2.1667	83.26	-0.2269	0.0295	0.2564	1731.8506	0.167768	-403.05922	-403.049055	-403.048111	-403.095516	36.124	
C	-0.4220306211	 1.3511192551	 0.3076516925	-0.312091
N	 0.0272449114	-0.0270296727	 0.1698463354	-0.067681
C	 1.3849498868	-0.2672435844	-0.2940901241	-0.261964
C	 0.9978700646	-0.5723953841	 1.1150952838	 0.005975
C	 1.5775120029	 0.2302794947	 2.2499131157	-0.075091
O	 0.6146406125	 0.2876592798	 3.2885688109	-0.246793
C	 1.1010386086	 0.9543571142	 4.4365631688	-0.202839
C	 0.0726348039	 0.9893247957	 5.4676900238	 0.281173
C	-0.7568464866	 1.0331994644	 6.3346448457	-0.412573
H	 0.3822397025	 2.079013125	 0.4991811394	 0.09454
H	-0.9229442739	 1.6477477584	-0.6192245312	 0.121546
H	-1.1416062576	 1.411645049	 1.1286745498	 0.138962
H	 1.517079588	-1.0667115666	-1.0185252046	 0.116561
H	 2.0306381636	 0.5974952689	-0.452822861	 0.102873
H	 0.7922225121	-1.6061610685	 1.387981614	 0.098066
H	 2.4989479298	-0.2598889445	 2.6089009228	 0.094061
H	 1.8580526079	 1.2455766461	 1.9293054205	 0.088642
H	 2.0003208956	 0.4460704405	 4.8259860313	 0.118167
H	 1.4084288315	 1.9845760436	 4.1853992665	 0.117218
H	-1.4955231025	 1.0672718053	 7.0968443801	 0.201246
35.5725	75.8147	94.0802	124.0519	170.2685	221.4234	288.9757	334.4575	345.0779	350.3975	424.9563	521.0623	582.1219	609.9504	676.5721	754.9156	804.4945	911.4654	971.939	1002.7671	1024.2286	1032.2104	1049.5172	1095.278	1117.2618	1126.7834	1140.6913	1158.4517	1191.0671	1204.6371	1250.4276	1264.6965	1339.3616	1356.5371	1407.0226	1447.8706	1455.18	1486.5014	1493.6415	1502.3117	1512.947	1525.552	2248.825	2947.155	2959.7726	2965.9558	2973.8355	3000.1728	3070.4843	3079.9913	3115.8609	3120.4617	3170.0597	3506.6977
CN1CC1COCC#C	CN1C[C@H]1COCC#C	
InChI=1S/C7H11NO/c1-3-4-9-6-7-5-8(7)2/h1,7H,4-6H2,2H3	InChI=1S/C7H11NO/c1-3-4-9-6-7-5-8(7)2/h1,7H,4-6H2,2H3/t7-,8?/m0/s1
