18
gdb 16078	3.13215	1.67846	1.41641	2.5876	67.77	-0.2453	0.0707	0.316	949.586	0.153639	-384.899029	-384.890899	-384.889955	-384.931432	30.621	
O	 0.1357778095	 1.3822592159	-0.0686489826	-0.414102
C	 0.0580865844	-0.0239345614	 0.1318757546	-0.169221
C	-1.3567742043	-0.5217360398	 0.132177512	 0.290482
C	-2.3926071724	-0.207184067	 1.2237772944	-0.268696
C	-2.9516984974	-1.658870039	 1.1075114699	-0.220509
C	-1.9275758687	-1.9607366666	 0.0064581767	-0.181258
C	-2.0547533722	-0.9683566105	-1.1140900203	 0.050116
O	-3.2686224375	-0.376789241	-1.4835723896	-0.422319
H	-0.3646832519	 1.5853855434	-0.8663236596	 0.284987
H	 0.6476937896	-0.5730229418	-0.6214993923	 0.080308
H	 0.5295425364	-0.2043316442	 1.1048987287	 0.106128
H	-1.922786984	-0.0152089791	 2.1909491755	 0.102952
H	-3.0873753268	 0.6032677265	 0.9957629934	 0.11148
H	-2.7827630766	-2.2463218114	 2.0119311322	 0.1031
H	-4.0019389214	-1.7545301809	 0.8171922946	 0.093268
H	-1.3983066023	-2.8983144094	-0.1266774043	 0.083785
H	-1.3787686753	-1.1617606477	-1.9499064187	 0.081669
H	-3.823041429	-1.0556982658	-1.8826575347	 0.28783
82.9672	137.9832	210.4382	245.1808	282.8967	299.8061	340.2485	395.0146	469.5285	567.8105	698.3687	763.2607	789.9812	811.91	907.9696	942.1751	954.5684	963.4598	1007.263	1031.7618	1053.4928	1086.4417	1133.7408	1138.0182	1201.8688	1221.8166	1243.3407	1250.3134	1268.4022	1296.388	1318.3812	1346.2633	1369.0046	1424.3795	1464.9466	1472.7394	1500.6048	1507.9177	2961.7659	3056.461	3057.0489	3071.5242	3079.9412	3107.5832	3128.1933	3166.2244	3803.7205	3806.6967
OCC12CCC1C2O	OC[C@]12CC[C@H]1[C@H]2O	
InChI=1S/C6H10O2/c7-3-6-2-1-4(6)5(6)8/h4-5,7-8H,1-3H2	InChI=1S/C6H10O2/c7-3-6-2-1-4(6)5(6)8/h4-5,7-8H,1-3H2/t4-,5+,6+/m0/s1
