17
gdb 37050	2.84993	1.82195	1.55605	1.4914	66.39	-0.2365	0.054	0.2905	904.3483	0.137179	-458.895642	-458.88875	-458.887806	-458.926739	27.769	
C	-0.0079765552	 1.5201145107	-0.1676703785	-0.395712
C	 1.3078718045	 0.7998809634	 0.0193042215	 0.336328
C	 2.1643383118	 0.7971701916	 1.2484508046	-0.187788
O	 1.7855803329	-0.3236295461	 2.0718546575	-0.230814
C	 0.4231029779	-0.3253039672	 2.3614504815	-0.001482
O	-0.4207113984	-0.6006371256	 1.2308711488	-0.299517
C	 0.0240958696	 0.0284951375	 0.0836001101	 0.310069
C	 0.5580824143	-0.7233470016	-1.131462051	-0.139447
O	 1.725122165	 0.1531506121	-1.191601876	-0.325937
H	-0.3404480785	 2.1210433642	 0.6729172088	 0.123697
H	-0.2613326612	 1.9114766075	-1.1483195075	 0.121611
H	 3.2161203914	 0.6517300965	 0.9964443285	 0.137993
H	 2.0576239312	 1.7262720619	 1.8262813992	 0.106556
H	 0.2378059522	-1.134076161	 3.0695028766	 0.12871
H	 0.1236188738	 0.642715609	 2.8020258223	 0.085429
H	 0.8517478777	-1.7485289728	-0.8847521779	 0.122529
H	-0.0275498089	-0.7027506402	-2.0569854884	 0.107776
118.4241	220.1404	323.5591	355.4655	386.8488	417.9078	506.1736	519.1053	567.2006	684.887	780.788	819.9234	866.3465	903.0126	925.9742	936.1888	947.2093	970.9605	988.158	1035.6804	1058.9419	1086.5347	1138.1048	1157.7217	1186.3334	1226.0724	1271.2476	1288.7656	1324.4128	1340.7432	1382.3947	1393.639	1445.727	1472.6527	1480.9589	1510.0895	1515.249	2939.636	3006.4735	3034.8202	3094.7738	3121.5258	3122.2487	3124.2104	3217.2995
C1C23COCOC12CO3	C1[C@@]23COCO[C@@]12CO3	
InChI=1S/C6H8O3/c1-5-2-7-4-9-6(1,5)3-8-5/h1-4H2	InChI=1S/C6H8O3/c1-5-2-7-4-9-6(1,5)3-8-5/h1-4H2/t5-,6-/m1/s1
