17
gdb 23205	3.25797	1.12256	0.91363	2.593	73.39	-0.225	0.0121	0.2372	1257.7387	0.134817	-455.043031	-455.034136	-455.033192	-455.076742	32.82	
O	 0.525899819	-0.072905908	 0.9756956905	-0.425098
C	-0.18439412	 0.4810485588	-0.1248420146	-0.220783
C	-1.5133175921	-0.2044424897	-0.1932479695	 0.263469
N	-2.3007149375	-0.4979914252	 1.0466204322	-0.376074
C	-1.936181798	-1.605674005	 0.1410973429	-0.103618
C	-2.9965228862	-1.6068967506	-0.9795819168	-0.321118
C	-2.4968158606	-0.1994556951	-1.3160497836	 0.406113
N	-2.6240038776	 0.6234378843	-2.2693073107	-0.272789
O	-3.5928357682	 0.1827299306	-3.191693219	-0.389338
H	 1.3078799864	 0.4632035347	 1.1329487839	 0.297638
H	-0.3350972969	 1.5642935111	-0.0002846261	 0.111594
H	 0.3532636374	 0.3298069238	-1.0729768656	 0.109044
H	-1.5963305753	-0.4940069942	 1.7877140867	 0.243939
H	-1.3220496792	-2.4314182765	 0.4739750022	 0.112984
H	-2.7985171353	-2.3068400986	-1.795845684	 0.127706
H	-4.0337987784	-1.6998237258	-0.6505514032	 0.130197
H	-3.5826348876	 0.8879231056	-3.8475191153	 0.306134
86.8934	110.6624	163.1922	197.5671	239.1663	246.3042	342.8666	368.3209	426.5961	451.1435	523.0409	631.454	649.534	720.5313	819.133	854.0551	899.8532	942.741	992.5791	1005.7517	1024.6567	1070.8682	1082.4073	1099.4888	1135.6269	1173.3839	1200.4351	1233.8361	1246.3635	1310.7603	1348.6038	1389.9923	1421.9048	1454.3766	1491.1317	1517.6136	1790.5968	2981.7896	3011.2171	3068.1103	3124.5106	3212.9322	3451.9131	3819.4014	3844.3262
OCC12NC1CC2=NO	OC[C@]12N[C@H]1CC2=NO	
InChI=1S/C5H8N2O2/c8-2-5-3(6-5)1-4(5)7-9/h3,6,8-9H,1-2H2	InChI=1S/C5H8N2O2/c8-2-5-3(6-5)1-4(5)7-9/h3,6,8-9H,1-2H2/t3-,5-/m0/s1
