19
gdb 82932	2.21101	1.81698	1.54465	3.1411	73.73	-0.2292	0.0722	0.3014	986.8184	0.159861	-423.001334	-422.993571	-422.992627	-423.033078	31.364	
C	-0.0134819356	 1.5299357196	-0.010943032	-0.491008
C	 0.0391756498	 0.0200043696	 0.0353522109	 0.239484
C	-0.850173281	-0.7650087069	 0.9880586731	 0.09477
O	-1.6105845511	-1.875985465	 0.6589741867	-0.434224
C	 0.6433929896	-0.7749958151	 1.2112965878	-0.156287
C	 1.4871907875	-1.9238201129	 0.6467843542	-0.275201
C	 1.3875136711	-1.8197560831	-0.8694947895	 0.037836
O	 0.0707564805	-2.0483499118	-1.408257393	-0.279393
C	 0.5211817572	-0.6819649273	-1.2169630799	-0.023894
H	 0.9490510144	 1.9606797272	-0.3135201278	 0.115706
H	-0.7751321026	 1.8833617789	-0.7158578282	 0.124509
H	-0.259584327	 1.9396882507	 0.9731248514	 0.121955
H	-1.3993371968	-0.1419510021	 1.6907614714	 0.097263
H	-1.2192469327	-2.2535689986	-0.1439528581	 0.299877
H	 1.027174907	-0.2586467912	 2.0863124293	 0.08308
H	 2.5341021966	-1.8058345835	 0.9448555436	 0.11132
H	 1.1561621599	-2.9072274534	 1.0007825506	 0.12658
H	 2.1910892295	-2.1846873455	-1.5042068262	 0.104149
H	 0.6181911037	-0.1158039497	-2.1392198541	 0.103478
149.9214	189.3853	228.7781	267.887	294.6308	334.8828	410.8265	533.618	559.511	607.4385	639.6224	692.336	739.1216	784.2639	820.3473	852.1345	856.5539	921.2598	942.2923	978.7033	1009.4839	1042.8931	1068.2208	1097.7592	1120.4508	1126.8014	1170.4034	1205.4893	1219.174	1262.5093	1280.4352	1303.8473	1336.9832	1343.0679	1382.4331	1417.8813	1441.3721	1474.026	1487.5391	1494.2352	1499.6798	3019.1736	3042.0382	3076.7006	3083.215	3102.3606	3129.2566	3145.4062	3148.4134	3159.3246	3676.84
CC12C(O)C1CC1OC21	C[C@]12[C@@H](O)[C@H]1C[C@H]1O[C@@H]21	
InChI=1S/C7H10O2/c1-7-3(5(7)8)2-4-6(7)9-4/h3-6,8H,2H2,1H3	InChI=1S/C7H10O2/c1-7-3(5(7)8)2-4-6(7)9-4/h3-6,8H,2H2,1H3/t3-,4-,5+,6-,7-/m1/s1
