12
gdb 21856	4.13828	1.91409	1.31088	5.6492	63.08	-0.2223	-0.0582	0.1641	841.8605	0.084476	-410.808117	-410.80125	-410.800306	-410.839277	25.269	
O	 0.042745777	 1.362781206	 0.1471363476	-0.417234
C	-0.0320697222	 0.0177931466	 0.0496507678	 0.523995
C	-1.1883510596	-0.6662050884	 0.0587472898	-0.30177
C	-1.1331545719	-2.1124220592	-0.0040061379	 0.393633
N	-2.1741132971	-2.8524049212	-0.0451881228	-0.522434
N	 0.176629665	-2.7187814292	-0.0182277881	-0.236887
N	 1.2319822125	-2.0479209594	-0.0229594481	-0.040657
N	 1.1568343049	-0.6759239376	-0.0445850653	-0.338677
H	 0.813694146	 1.6953028788	-0.327899338	 0.308667
H	-2.1407910678	-0.1576450325	 0.0951994005	 0.135444
H	-1.8810184415	-3.8306529698	-0.0881788683	 0.222197
H	 2.0423152646	-0.239835774	 0.1611074127	 0.273723
90.6523	197.4774	225.0911	349.2751	378.9792	473.8667	490.4365	529.9753	561.7589	650.6867	746.2675	748.9564	857.1594	902.7072	925.4676	1005.9025	1047.6641	1118.257	1191.3841	1262.7417	1326.2224	1372.1127	1442.8289	1607.3897	1695.8654	1742.6264	3243.6659	3463.2339	3635.5295	3796.4218
OC1=CC(=N)N=NN1	Oc1cc([NH])nn[nH]1	
InChI=1S/C3H4N4O/c4-2-1-3(8)6-7-5-2/h1H,(H3,4,5,6,8)	InChI=1S/C3H9N4O/c4-2-1-3(8)6-7-5-2/h2-8H,1H2
