17
gdb 65023	2.03143	1.67287	1.10399	1.9142	68.69	-0.2581	-0.0515	0.2066	1109.3935	0.132483	-458.956071	-458.946932	-458.945988	-458.990618	33.023	
O	-0.1370102392	 1.3395964542	-0.4419865385	-0.473701
C	-0.015506661	 0.0000448465	-0.0750154514	 0.441111
C	-0.1301858338	-0.3483230775	 1.3879787184	-0.31885
C	-1.2778338641	-0.6258066319	 0.4330963652	-0.331103
C	 0.9742152915	-0.7604716196	-0.9711389979	-0.265127
C	 2.387718646	-0.2005903008	-0.8287831624	 0.179773
O	 2.6349447823	 0.8930851002	-0.3816903506	-0.265563
C	 0.9739052274	-2.2609063869	-0.7550278369	 0.123976
O	 1.8381772418	-2.8425577545	-0.1475449606	-0.238375
H	 0.735206906	 1.7321107697	-0.2880157924	 0.294858
H	 0.4346017567	-1.1898108146	 1.7748378487	 0.129576
H	-0.2391667014	 0.4847289341	 2.0719453441	 0.127013
H	-2.1350115775	 0.0356276763	 0.4787081996	 0.134355
H	-1.5163432807	-1.6541237418	 0.1861208674	 0.113724
H	 0.6640913434	-0.5753533963	-2.0132116571	 0.130746
H	 3.1982021393	-0.8614485861	-1.1932319295	 0.116345
H	 0.1104393034	-2.8071855807	-1.1901212762	 0.101242
62.7471	77.3361	91.7718	210.471	241.8586	250.0388	331.6436	367.8269	405.666	457.6308	587.8763	621.7242	649.0302	696.4777	773.8711	845.3244	907.5843	911.2293	940.4817	988.2113	1017.3378	1050.9881	1060.3775	1082.8739	1083.9978	1188.1316	1213.373	1274.7189	1301.7715	1306.3325	1406.8965	1420.7844	1427.3049	1458.3097	1505.0862	1809.622	1816.1876	2906.1125	2947.9612	2985.9024	3139.7652	3143.2092	3225.0167	3237.283	3725.0514
OC1(CC1)C(C=O)C=O	OC1(CC1)C(C=O)C=O	
InChI=1S/C6H8O3/c7-3-5(4-8)6(9)1-2-6/h3-5,9H,1-2H2	InChI=1S/C6H8O3/c7-3-5(4-8)6(9)1-2-6/h3-5,9H,1-2H2
