22
gdb 118737	3.04735	0.88916	0.8017	4.0632	83.45	-0.2435	0.0396	0.2831	1543.0799	0.192643	-404.388305	-404.378169	-404.377225	-404.423799	37.586	
C	-0.0380998152	 1.6143153291	-0.0778310746	-0.378633
C	 0.0127853054	 0.0837979942	-0.0472010407	-0.179631
C	-1.3738729114	-0.5476820051	 0.1290130599	-0.208278
C	-1.4025476196	-2.0815223025	 0.0882704795	 0.343536
C	-0.6137415024	-2.7348125792	 1.2235339867	-0.441161
C	-2.830506168	-2.6864057809	-0.1302135835	-0.454577
C	-2.2905136429	-3.2177977191	-1.4786497359	 0.437506
O	-2.7210031196	-3.8777936813	-2.386421936	-0.365136
N	-1.0692409329	-2.6369979604	-1.2453359053	-0.353321
H	 0.9601188172	 2.0436747303	-0.2066944875	 0.114232
H	-0.6650866026	 1.9731574365	-0.9013409748	 0.118726
H	-0.4552889455	 2.0141516082	 0.8529907706	 0.1163
H	 0.459986445	-0.282750156	-0.9806986537	 0.092768
H	 0.6787379671	-0.2388030357	 0.7618794372	 0.100699
H	-1.8085571278	-0.217042936	 1.0820389283	 0.097751
H	-2.0359793103	-0.1750627198	-0.6626402448	 0.098255
H	-0.9762017967	-2.3869867553	 2.1965897521	 0.12232
H	-0.71698735	-3.8230962136	 1.1861689403	 0.122579
H	 0.4531516147	-2.498555911	 1.1616945471	 0.121067
H	-3.117716883	-3.4701960341	 0.5731333689	 0.125944
H	-3.6393593793	-1.9591027436	-0.2223167056	 0.12518
H	-0.1993403221	-2.6973175848	-1.7546326081	 0.243875
51.4299	84.1097	96.4583	167.2096	234.9323	249.4686	311.7574	329.5014	344.3166	361.0714	384.0108	477.677	531.9667	562.9359	671.0492	745.6953	792.1775	859.968	887.3423	897.9357	936.0896	961.755	979.7934	1040.1	1050.4318	1083.2584	1096.6719	1139.6438	1186.8915	1197.6702	1239.5527	1271.985	1295.0708	1319.9152	1342.6227	1372.1604	1401.0064	1410.2597	1414.4681	1459.0294	1474.122	1491.5616	1492.8159	1498.852	1501.2702	1509.6147	1892.1901	3012.1721	3021.542	3031.4782	3036.2189	3044.76	3066.3294	3082.1328	3099.3158	3104.2559	3105.68	3112.7353	3140.5356	3603.4834
CCCC1(C)CC(=O)N1	CCC[C@@]1(C)CC(=O)N1	
InChI=1S/C7H13NO/c1-3-4-7(2)5-6(9)8-7/h3-5H2,1-2H3,(H,8,9)	InChI=1S/C7H13NO/c1-3-4-7(2)5-6(9)8-7/h3-5H2,1-2H3,(H,8,9)/t7-/m0/s1
