19
gdb 67961	2.23887	1.85716	1.31717	3.8705	76.08	-0.236	0.0226	0.2586	1037.0441	0.16117	-419.21756	-419.209635	-419.208691	-419.249749	31.331	
C	-0.1930667063	 1.592337527	 0.1051661975	-0.467146
C	 0.0060626807	 0.0948679919	 0.0905585464	 0.425144
C	-1.2243815411	-0.7755611634	-0.1636555963	-0.263518
C	-0.8723819885	-2.1219867826	 0.5177230836	-0.193403
N	-0.0137666121	-1.7971925036	 1.6716996686	-0.275617
C	 0.7540328604	-0.6330054587	 1.2634852226	-0.193603
C	 1.8112711871	-0.9035709218	 0.197977971	 0.438886
N	 2.9282405373	-1.4723226265	 0.1885106454	-0.550839
O	 1.1156142293	-0.2789152522	-0.8159165473	-0.301835
H	 0.7475592305	 2.1073037642	 0.3207554111	 0.129698
H	-0.559843101	 1.9476972264	-0.8633030175	 0.132689
H	-0.9263187542	 1.872468893	 0.8683753561	 0.120693
H	-2.0940999038	-0.3177424447	 0.3219636468	 0.09907
H	-1.4413379557	-0.8703124632	-1.2309068159	 0.116598
H	-1.7481642956	-2.6893375545	 0.8391375364	 0.107086
H	-0.3048492232	-2.7554806691	-0.1730031962	 0.130505
H	-0.5888615823	-1.5499056319	 2.4705858644	 0.2221
H	 1.099007272	-0.0441752732	 2.1138296787	 0.099064
H	 3.3458940964	-1.4504403972	-0.7442340053	 0.22443
100.4627	181.2708	215.8719	252.8501	303.6591	333.6478	382.7282	457.1687	589.7705	617.1723	623.8499	704.0758	775.2375	808.7292	834.2034	874.6402	892.2319	917.4366	928.5629	966.9113	978.6253	1018.4983	1036.4095	1115.9651	1129.0948	1146.6076	1195.5785	1195.8426	1233.4125	1261.4855	1295.8299	1333.819	1351.7618	1376.3019	1412.2456	1462.9601	1471.0089	1482.3795	1495.7092	1502.6544	1821.7577	3035.4426	3042.6328	3048.8157	3102.8679	3106.5955	3113.5708	3115.4596	3117.4882	3465.2335	3518.8952
CC12CCNC1C(=N)O2	C[C@]12CCN[C@H]1[C]([NH])O2	
InChI=1S/C6H10N2O/c1-6-2-3-8-4(6)5(7)9-6/h4,7-8H,2-3H2,1H3	InChI=1S/C6H10N2O/c1-6-2-3-8-4(6)5(7)9-6/h4,7-8H,2-3H2,1H3/t4-,6-/m0/s1
