18
gdb 83692	2.26035	1.58731	1.06371	4.09	73.16	-0.2289	-0.0299	0.199	1144.0322	0.146137	-439.031931	-439.023397	-439.022453	-439.065773	30.911	
C	-0.2338454591	 1.6192289393	 0.0854951638	-0.334239
N	-0.167244076	 0.1735708977	 0.1039957123	-0.09466
C	-1.0284894879	-0.574453339	 1.0466100472	-0.042876
C	-1.5925202996	-1.8570055449	 0.4143433043	-0.075188
O	-0.3456522966	-2.5604225854	 0.6761819441	-0.293451
C	 0.1798304011	-1.4567967287	 1.4318094243	 0.081775
C	 1.0641269332	-0.4644796225	 0.6182732846	-0.086345
C	 1.9759857936	-1.0656821131	-0.4317395846	 0.165313
O	 3.1601585306	-1.2213954085	-0.279140527	-0.248482
H	 0.5073255188	 2.0110066545	-0.6185664298	 0.131453
H	-1.2222624748	 1.9393604427	-0.2595433701	 0.126742
H	-0.0449245242	 2.0843810125	 1.0707262454	 0.098239
H	-1.6360942368	 0.017390949	 1.7341646369	 0.083261
H	-2.4230466373	-2.3206711021	 0.9612892038	 0.103908
H	-1.8237188386	-1.7961500454	-0.6532711554	 0.114166
H	 0.5148925527	-1.7402623321	 2.4303022553	 0.096863
H	 1.6550704551	 0.1692740419	 1.2965691231	 0.084637
H	 1.4502777458	-1.3686509761	-1.3618103482	 0.088885
55.2443	101.5225	174.3542	202.6305	209.8264	265.4722	321.1415	404.0041	477.5724	523.0708	665.6175	777.3665	817.5538	847.4369	919.2634	945.5881	991.3706	997.602	1015.7642	1052.8481	1082.2208	1097.1206	1151.3067	1156.6043	1182.0508	1190.7843	1216.2377	1244.5325	1261.6049	1277.2624	1306.9184	1349.4415	1357.3577	1405.0866	1457.5519	1492.6879	1501.4624	1503.361	1827.3553	2913.9309	2936.3185	2997.698	3020.7732	3061.251	3087.2221	3092.6717	3103.9403	3106.5947
CN1C2COC2C1C=O	CN1[C@H]2CO[C@H]2[C@H]1C=O	
InChI=1S/C6H9NO2/c1-7-4(2-8)6-5(7)3-9-6/h2,4-6H,3H2,1H3	InChI=1S/C6H9NO2/c1-7-4(2-8)6-5(7)3-9-6/h2,4-6H,3H2,1H3/t4-,5+,6+/m1/s1
