16
gdb 41013	3.19324	1.99197	1.49346	1.3229	67.56	-0.2336	0.0444	0.278	865.1029	0.125861	-437.746853	-437.740798	-437.739854	-437.776981	25.708	
C	-0.0485989368	 1.5034736058	 0.2151644597	-0.240441
N	 1.4492573127	 1.5073507304	-0.0114591682	-0.442292
C	 1.2525221116	 0.3300459613	-0.8466459628	 0.384741
C	 0.0326025542	-0.0365511149	-0.0624339031	 0.088479
O	-0.6937665733	-0.8858777467	-0.9528778632	-0.2843
C	 0.27641779	-1.0591380618	-1.9746058306	 0.091825
C	 0.843325037	 0.2993029983	-2.3862948662	-0.041528
O	 2.1274444647	-0.2896160521	-2.7681177909	-0.311748
C	 1.8318518342	-0.9459262957	-1.5025472855	-0.111573
H	-0.3495813806	 1.8246614432	 1.2143407436	 0.115623
H	-0.6148119534	 2.0462135517	-0.5507205471	 0.111441
H	 1.8233373565	 2.3226011079	-0.4867803439	 0.232566
H	 0.228799986	-0.5696655661	 0.872427763	 0.103343
H	-0.0029922208	-1.8129476782	-2.7066125451	 0.111331
H	 0.415914883	 1.0715936333	-3.0258271728	 0.095747
H	 2.5216362451	-1.7065044865	-1.1377967869	 0.096786
207.7188	316.9717	333.5736	421.7453	493.5398	582.9456	633.8831	669.8222	695.4985	758.2569	770.1246	851.5049	864.2258	907.9552	919.1704	941.3045	974.9953	1011.0226	1030.3178	1057.1315	1092.1311	1109.9441	1118.3306	1138.1333	1156.6064	1163.3543	1194.9786	1225.3207	1252.8505	1295.1736	1318.6352	1326.8154	1368.1916	1381.6783	1503.2999	3035.6437	3066.4148	3115.3902	3120.906	3128.6642	3170.6446	3521.9467
C1NC23C1OC1C2OC31	C1N[C@@]23[C@@H]1O[C@H]1[C@@H]2O[C@@H]31	
InChI=1S/C6H7NO2/c1-2-6(7-1)4-3(8-2)5(6)9-4/h2-5,7H,1H2	InChI=1S/C6H7NO2/c1-2-6(7-1)4-3(8-2)5(6)9-4/h2-5,7H,1H2/t2-,3-,4-,5+,6-/m1/s1
