18
gdb 64030	2.30214	1.62311	1.22233	5.6766	76.03	-0.2438	0.0055	0.2493	1072.696	0.148101	-398.160537	-398.151845	-398.150901	-398.193656	32.902	
C	 0.0792976921	 1.4923948992	-0.2196728573	-0.432469
C	-0.0330676619	-0.0253003583	-0.0210971816	 0.2598
C	-1.4917779363	-0.4659415431	 0.0933139417	-0.430373
N	 0.6706476776	-0.741113882	-1.1130218537	-0.319404
C	 1.9273485002	-1.0615098304	-0.644931955	 0.063601
N	 2.1335606869	-0.9930259527	 0.6157219708	-0.254563
C	 0.8415759329	-0.5546510847	 1.1847179895	-0.139576
C	 1.0132765084	 0.4151137291	 2.2687234031	 0.301074
N	 1.1108243374	 1.1832874338	 3.1260957103	-0.337546
H	 1.1259523235	 1.8065946389	-0.2659899085	 0.138393
H	-0.4148726002	 1.7860939536	-1.1522133534	 0.111406
H	-0.3995632124	 2.0330230434	 0.6006587454	 0.148225
H	-2.0690647634	-0.141279411	-0.7785639072	 0.118936
H	-1.5637835147	-1.554425954	 0.1634477687	 0.127226
H	-1.9549297556	-0.0248833783	 0.9817408049	 0.135072
H	 0.5924540246	-0.3611885721	-2.0467790212	 0.243599
H	 2.6859626411	-1.3998452214	-1.3452061715	 0.135249
H	 0.3458005799	-1.4344201398	 1.6194648652	 0.131349
69.1249	152.719	202.9858	234.961	281.9309	293.8071	333.8337	379.2819	407.1406	495.7186	547.3673	561.276	582.8583	654.8435	802.2606	820.5275	920.2116	942.0637	963.3446	974.6132	1004.588	1027.7908	1049.5435	1132.3569	1173.8884	1210.2971	1235.0639	1287.9437	1336.6439	1343.9205	1403.1254	1420.3992	1429.1762	1480.9069	1486.7888	1502.9429	1505.4871	1681.5115	2362.7487	3003.939	3035.0775	3039.7331	3104.0385	3109.6699	3121.3088	3127.5229	3185.564	3586.1301
CC1(C)NC=NC1C#N	CC1(C)N[CH][N][C@H]1C#N	
InChI=1S/C6H9N3/c1-6(2)5(3-7)8-4-9-6/h4-5H,1-2H3,(H,8,9)	InChI=1S/C6H9N3/c1-6(2)5(3-7)8-4-9-6/h4-5H,1-2H3,(H,8,9)/t5-/m0/s1
