21
gdb 118081	4.02678	0.7206	0.63477	0.3669	72.55	-0.2592	0.0625	0.3216	1763.5824	0.179681	-498.475091	-498.464026	-498.463082	-498.511739	39.066	
C	-0.1461742045	 1.3623279568	-0.0352656478	-0.228082
O	-0.0708864991	-0.0439685994	-0.0645037285	-0.253757
C	 0.7729989527	-0.5412801679	-1.0899519872	-0.089634
C	 0.6457592474	-2.060497434	-1.0480100201	 0.106884
O	-0.7162129894	-2.4406574536	-1.1571399467	-0.454624
C	 1.4055846304	-2.7266731177	-2.1912236227	 0.136757
O	 2.7681020979	-2.3514426922	-2.0782131805	-0.455315
C	 1.2760438016	-4.246192031	-2.1545976478	-0.111966
O	 2.1310322317	-4.7320833194	-3.1902824217	-0.437791
H	 0.8383285248	 1.8161223852	 0.154298925	 0.110811
H	-0.535694529	 1.7686739472	-0.981518941	 0.108418
H	-0.8246574554	 1.6379550899	 0.7757970326	 0.127704
H	 0.4412731457	-0.1633005469	-2.0712769236	 0.088771
H	 1.8157659877	-0.2351680471	-0.9334711241	 0.115756
H	 1.0727518804	-2.411359825	-0.0937164671	 0.073768
H	-1.2017199135	-1.8196949883	-0.5999580254	 0.292119
H	 0.982295337	-2.3729890939	-3.1463893604	 0.075215
H	 3.251309032	-2.9776614027	-2.6321874283	 0.292288
H	 1.6025350182	-4.6149451789	-1.1708799904	 0.09143
H	 0.2323958666	-4.5407683616	-2.314393971	 0.117232
H	 2.2317072369	-5.6817140397	-3.0848754131	 0.294016
58.6154	95.6295	97.9803	118.9873	138.4275	229.1604	233.7259	246.4699	280.8345	325.7137	365.4451	417.4775	433.4158	470.3318	488.0546	570.3621	607.3243	889.1881	920.1711	973.3569	1024.4037	1070.8149	1079.7116	1103.967	1119.6804	1142.0073	1164.8581	1184.1594	1212.0783	1231.7223	1243.8661	1256.6937	1271.4259	1305.9617	1350.6725	1378.6875	1387.1141	1417.1728	1445.8687	1479.0224	1485.4771	1487.1346	1500.7711	1511.6337	1522.2462	2961.0568	2964.7309	2975.8858	2981.8691	2996.8675	3025.588	3044.2462	3064.0144	3114.6027	3775.7605	3781.9215	3846.4513
COCC(O)C(O)CO	COC[C@@H](O)[C@@H](O)CO	
InChI=1S/C5H12O4/c1-9-3-5(8)4(7)2-6/h4-8H,2-3H2,1H3	InChI=1S/C5H12O4/c1-9-3-5(8)4(7)2-6/h4-8H,2-3H2,1H3/t4-,5+/m0/s1
