19
gdb 92489	2.5546	1.68871	1.66427	2.6105	69.	-0.2457	0.0692	0.3149	941.0308	0.162595	-460.171764	-460.164483	-460.163539	-460.203534	29.288	
O	 0.0872819741	 1.4202032272	 0.0642634287	-0.442234
C	 0.0205748621	 0.0059364747	 0.0462717384	 0.120794
C	-1.4363980166	-0.543128502	 0.0205721428	-0.253322
C	-1.6208345653	-1.344680448	-1.2792544101	-0.072626
C	-1.2852113679	-0.442073851	-2.4712977763	-0.072628
O	 0.0698490223	 0.0305666051	-2.3478274063	-0.292183
C	 0.7189304494	-0.5328321808	-1.212921896	 0.167351
O	 0.722460206	-1.9364554086	-1.242952185	-0.269522
C	-0.6025618016	-2.4877284819	-1.2838413838	-0.060281
H	-0.0515478164	 1.7047186612	-0.8486716333	 0.284561
H	 0.5565909613	-0.3392981404	 0.9345005993	 0.093167
H	-1.6361631084	-1.178460713	 0.8892108989	 0.102527
H	-2.1259494773	 0.3049986616	 0.0671870094	 0.107528
H	-2.6366009132	-1.7386430572	-1.3771496246	 0.077409
H	-1.3743341438	-0.9900467097	-3.4183404803	 0.106851
H	-1.9557259668	 0.4258393693	-2.5162179445	 0.101302
H	 1.7597172156	-0.210105135	-1.2705970854	 0.096778
H	-0.7393949028	-3.1479847453	-0.4172647749	 0.100864
H	-0.6924588808	-3.095438306	-2.193690957	 0.103662
67.4408	213.7055	298.4449	311.4682	405.1973	437.9636	452.675	461.7383	541.1997	640.6633	692.4296	805.8565	835.8988	861.4516	901.5736	922.9943	970.2746	977.7865	1004.0087	1022.1848	1063.0273	1078.1334	1106.8289	1125.5201	1164.9248	1187.5744	1214.8348	1225.4181	1269.1786	1290.0796	1335.2657	1343.7887	1351.9898	1357.9777	1370.8963	1404.3665	1415.5347	1440.1617	1486.169	1517.4979	1531.7482	3005.1823	3008.5841	3040.6856	3045.092	3046.5381	3071.2859	3074.8408	3097.5246	3111.6196	3763.7207
OC1CC2COC1OC2	O[C@H]1C[C@H]2CO[C@@H]1OC2	
InChI=1S/C6H10O3/c7-5-1-4-2-8-6(5)9-3-4/h4-7H,1-3H2	InChI=1S/C6H10O3/c7-5-1-4-2-8-6(5)9-3-4/h4-7H,1-3H2/t4-,5-,6+/m0/s1
