19
gdb 39207	2.89616	1.79349	1.28777	1.7625	79.11	-0.2442	0.0202	0.2645	1005.9655	0.161721	-385.897406	-385.890354	-385.889409	-385.928882	28.776	
C	 0.0461229342	 1.4469645517	 0.5641988823	-0.238682
C	 1.1400351432	 2.1267375544	-0.3094375085	-0.227563
C	 2.0309552939	 0.9765873691	-0.8622318366	-0.105412
C	 2.3677605455	 0.9835609886	-2.3329972057	-0.084446
C	 1.9717495901	-0.1314090584	-2.9526632874	-0.072348
C	 1.2923609914	-1.1150097056	-2.0225189982	-0.393784
C	 1.1560765866	-0.2814383494	-0.758764174	 0.467335
O	 1.025493204	-0.8406415276	 0.5425237592	-0.313597
C	-0.0297146237	 0.0148742445	 0.0509964187	-0.053484
H	 0.3183616509	 1.4391373953	 1.6247521595	 0.116404
H	-0.9176761144	 1.9570564403	 0.4769303401	 0.101335
H	 0.6604278764	 2.6409077536	-1.1496424494	 0.102258
H	 1.7113558165	 2.8780104253	 0.242472255	 0.099376
H	 2.9345755983	 0.8706650931	-0.2472407501	 0.087332
H	 2.8895351188	 1.80571851	-2.8112973111	 0.093954
H	 2.1245586362	-0.3455429005	-4.0048063375	 0.094773
H	 0.3313243684	-1.4790928193	-2.4038392845	 0.111287
H	 1.9156903797	-2.0018168806	-1.8432322958	 0.12228
H	-0.9857281262	-0.4828983044	-0.0943345762	 0.092984
81.7663	207.0108	239.0623	370.4625	428.0649	452.6174	536.229	573.6208	611.0884	718.3176	769.5804	795.6463	829.7552	861.4695	879.8124	921.5959	951.385	957.8957	977.0966	986.4632	1032.0189	1052.7696	1059.651	1098.045	1132.139	1159.9691	1183.644	1206.6767	1219.6494	1269.8172	1277.9719	1299.6407	1312.1272	1322.3135	1349.8875	1375.6449	1464.9174	1477.5318	1482.5652	1499.3163	1671.6882	3014.1462	3017.735	3042.3951	3050.6992	3055.033	3086.8553	3101.787	3140.1081	3178.285	3203.1765
C1CC2C=CCC22OC12	C1C[C@@H]2C=CC[C@]32O[C@@H]13	
InChI=1S/C8H10O/c1-2-6-3-4-7-8(6,5-1)9-7/h1-2,6-7H,3-5H2	InChI=1S/C8H10O/c1-2-6-3-4-7-8(6,5-1)9-7/h1-2,6-7H,3-5H2/t6-,7-,8+/m0/s1
