18
gdb 111350	2.52045	1.40981	1.06457	2.6397	71.49	-0.2399	0.0622	0.3022	1148.9435	0.147102	-438.998483	-438.990116	-438.989171	-439.031736	31.627	
O	 0.0066542725	 1.5020814894	-0.1084052818	-0.421627
C	 0.081619473	 0.0918422047	 0.0600655605	-0.092251
C	-1.2957388862	-0.5554506826	 0.0696463704	-0.106963
C	-2.088266546	-0.5891339067	-1.258414747	-0.077688
N	-1.2981727191	-1.4205601884	-2.1993947679	-0.341064
C	-2.1998657588	-2.0737882741	-1.210741356	-0.169013
C	-1.4130662967	-2.1031191254	 0.0854422479	 0.471355
C	-0.5778408508	-3.1508621484	 0.6667525014	-0.264018
O	-1.8595279712	-2.8056897733	 1.2265789101	-0.282521
H	-0.2617465874	 1.6681275628	-1.0174867237	 0.285328
H	 0.7004869627	-0.3746163346	-0.7174016148	 0.110059
H	 0.5750465354	-0.0693025296	 1.0247599668	 0.10914
H	-1.9097011283	-0.1423624376	 0.875773056	 0.099902
H	-2.8057748597	 0.1382054922	-1.6164148297	 0.100947
H	-1.7908717318	-1.4217795594	-3.0924426759	 0.233833
H	-3.0017174677	-2.7336025921	-1.5170685987	 0.107553
H	-0.5241779569	-4.127768641	 0.1888321091	 0.117752
H	 0.2800109468	-2.8862863858	 1.2828797035	 0.119276
73.4149	128.3443	151.2746	244.408	273.9286	297.3029	315.6814	453.4713	489.1144	562.6765	616.9174	774.1721	816.4433	838.7776	849.4836	886.8714	908.5261	914.3099	987.3113	1012.4965	1039.2022	1066.3457	1094.2474	1107.7943	1110.7409	1122.7182	1155.8261	1160.3727	1191.7959	1219.5452	1273.0936	1309.0038	1349.0493	1356.7006	1398.539	1412.6019	1449.5899	1501.0191	1538.5398	3021.5648	3068.2776	3083.11	3085.6084	3172.7436	3191.1117	3204.4016	3471.2465	3820.7124
OCC1C2NC2C11CO1	OC[C@H]1[C@H]2N[C@H]2[C@]21CO2	
InChI=1S/C6H9NO2/c8-1-3-4-5(7-4)6(3)2-9-6/h3-5,7-8H,1-2H2	InChI=1S/C6H9NO2/c8-1-3-4-5(7-4)6(3)2-9-6/h3-5,7-8H,1-2H2/t3-,4+,5+,6+/m0/s1
