23
gdb 101372	2.71477	1.2323	1.00106	1.1293	85.65	-0.2392	0.0825	0.3217	1308.2794	0.204973	-388.251303	-388.241645	-388.2407	-388.286182	36.178	
C	-0.1697822301	 1.5815890553	-0.1595676065	-0.234261
O	-0.0607979043	 0.1980126047	 0.0731814931	-0.238637
C	-1.2909590069	-0.5190115644	 0.0204842299	 0.113077
C	-1.7269747968	-0.7628478219	-1.4297616679	-0.404981
C	-1.1219888209	-1.8347045889	 0.7803101767	 0.020974
C	 0.1434999995	-2.7314856575	 0.5378720326	-0.2541
C	 0.3550188512	-2.7978602387	 2.0580535294	-0.0428
C	 0.5810545928	-1.4226440996	 2.6136991943	-0.270318
C	-0.8264355148	-1.8504679726	 2.2885394394	-0.084904
H	 0.8245588596	 2.0121486591	-0.0149837275	 0.124771
H	-0.502448625	 1.8167621256	-1.1813228566	 0.10513
H	-0.8674940268	 2.0588400448	 0.5466024535	 0.103636
H	-2.0676934024	 0.0752009739	 0.533916339	 0.059974
H	-2.6967204866	-1.26990031	-1.4594853054	 0.113042
H	-1.8270582798	 0.1738974747	-1.9851602112	 0.113453
H	-0.9928145422	-1.3888852134	-1.9467479711	 0.126024
H	-2.021351966	-2.4300873317	 0.5908901882	 0.069719
H	-0.1019786454	-3.6917869777	 0.0794483421	 0.094766
H	 0.9568011858	-2.266212498	-0.0256071875	 0.107251
H	 0.6179520751	-3.6918861167	 2.609989076	 0.078817
H	 0.801574485	-1.389204984	 3.6765659611	 0.099887
H	 1.0758461695	-0.6626058491	 2.0209011718	 0.124973
H	-1.5906034904	-1.897978254	 3.0563897965	 0.074508
63.0356	65.6594	144.3471	172.2457	199.0039	233.2106	271.5616	332.4236	369.1776	409.9677	507.662	630.406	664.4304	773.2468	790.6574	809.0836	862.8702	914.3427	935.3982	955.4282	989.2786	1005.6766	1019.8354	1050.6434	1063.2995	1088.751	1106.9346	1114.6227	1126.8704	1147.1504	1173.1508	1183.7539	1207.4791	1226.5735	1245.1608	1266.1861	1301.2256	1337.1669	1361.6446	1380.1691	1389.6893	1403.2281	1477.5938	1479.6047	1482.2348	1493.3277	1497.2966	1502.1164	1512.3231	2944.0841	2976.1118	3023.465	3038.3159	3047.6949	3061.3535	3107.3752	3109.1709	3113.0604	3114.2032	3130.0021	3165.4237	3184.7365	3220.627
COC(C)C1CC2CC12	CO[C@@H](C)[C@H]1C[C@H]2C[C@@H]12	
InChI=1S/C8H14O/c1-5(9-2)7-3-6-4-8(6)7/h5-8H,3-4H2,1-2H3	InChI=1S/C8H14O/c1-5(9-2)7-3-6-4-8(6)7/h5-8H,3-4H2,1-2H3/t5-,6-,7+,8+/m0/s1
