20
gdb 13215	4.11329	1.17611	0.99641	2.5498	70.85	-0.2439	0.0628	0.3066	1214.8596	0.17607	-386.117752	-386.108628	-386.107684	-386.152176	32.506	
C	-0.0398342945	 1.5861305691	-0.027663118	-0.38203
C	-0.0356388204	 0.0559063427	-0.0541284183	-0.194773
C	 0.7634968182	-0.5252142445	-1.226422344	 0.124892
O	 2.1228102873	-0.0892693262	-1.2093510533	-0.433619
C	 0.6928622978	-2.0482708545	-1.2875282014	-0.047569
C	-0.6260065216	-2.6686936211	-1.8036750601	-0.085309
O	 0.0199014615	-3.1775854944	-2.9854429167	-0.273095
C	 1.3086816271	-2.6943783202	-2.5462486534	-0.087902
H	 0.9823887073	 1.9730900388	-0.0131788943	 0.12833
H	-0.5347451985	 1.992562638	-0.9164451205	 0.117187
H	-0.5670669258	 1.9665781468	 0.852091155	 0.110681
H	 0.3885973359	-0.3355803672	 0.8827361511	 0.084822
H	-1.0641741611	-0.3239212506	-0.1019921218	 0.101764
H	 0.3637102808	-0.120772886	-2.166576084	 0.090306
H	 2.5153915091	-0.3903317515	-0.3816595956	 0.276494
H	 1.0483694447	-2.4726123933	-0.342096839	 0.065295
H	-1.0474898152	-3.4715749622	-1.1855915207	 0.098103
H	-1.4249438415	-1.9544010334	-2.0453243711	 0.097687
H	 1.7570384717	-1.9922800359	-3.2586513891	 0.112999
H	 2.011970957	-3.5167792643	-2.3652803848	 0.095737
52.5901	90.2882	111.224	155.5285	218.6354	254.4402	303.5514	317.1367	402.8991	467.2433	504.2752	774.0811	823.2253	847.2708	886.5247	917.3142	969.7042	987.2446	1027.0693	1042.	1053.8716	1084.0177	1101.514	1132.7284	1152.2326	1164.7171	1178.8666	1250.1786	1263.7381	1284.162	1309.8954	1333.1004	1368.7549	1385.0419	1405.2667	1408.2973	1421.5269	1480.7614	1496.2482	1509.1676	1513.6246	1539.762	2997.2712	3000.3641	3015.9117	3022.1107	3036.7008	3038.9149	3046.455	3054.0587	3067.6107	3104.1232	3122.5557	3789.9926
CCC(O)C1COC1	CC[C@@H](O)C1COC1	
InChI=1S/C6H12O2/c1-2-6(7)5-3-8-4-5/h5-7H,2-4H2,1H3	InChI=1S/C6H12O2/c1-2-6(7)5-3-8-4-5/h5-7H,2-4H2,1H3/t6-/m1/s1
