19
gdb 114529	2.55441	1.36987	1.07289	1.6928	70.64	-0.25	0.0529	0.303	1159.3244	0.15924	-460.112328	-460.103783	-460.102839	-460.14576	32.535	
O	-0.2211513738	 1.4551979437	-0.4581486317	-0.418613
C	 0.0025699763	 0.0633123471	-0.3470285334	-0.076109
C	-1.2543192272	-0.6217659422	 0.1621784678	 0.110918
O	-2.3439367644	-0.4642735358	-0.7924725023	-0.325037
C	-2.6029058346	-1.8836550913	-0.7892112351	 0.125399
C	-1.8427023812	-2.6398180642	-1.9079565843	-0.297811
C	-0.7792859325	-3.0753665833	-0.8482326967	 0.137591
O	 0.594247924	-3.0226077168	-1.1281421461	-0.426603
C	-1.445230115	-2.1556978631	 0.217517438	-0.163666
H	-1.0097726442	 1.5593431458	-1.004531944	 0.295808
H	 0.2998297634	-0.352768302	-1.3229141253	 0.05976
H	 0.8324156027	-0.0794959956	 0.352810497	 0.121263
H	-1.5304519012	-0.1452892592	 1.1125566455	 0.093271
H	-3.6551924724	-2.1172667039	-0.6175682958	 0.083428
H	-2.3720795896	-3.4600566134	-2.3982255348	 0.108513
H	-1.4705274568	-1.9509504594	-2.6711300196	 0.107084
H	-0.9654962589	-4.111561165	-0.5490427954	 0.101264
H	 0.7933106465	-2.1840571419	-1.5550215618	 0.283816
H	-1.573287521	-2.5726462995	 1.2156293481	 0.079722
75.2665	107.3416	154.3637	212.5489	277.2702	360.6266	391.1002	408.5726	447.4505	466.1469	607.4484	615.0939	739.9795	779.8932	858.8649	870.1544	903.6473	957.117	1001.2086	1006.5207	1042.5014	1055.1856	1089.7397	1100.1179	1139.8125	1152.2622	1169.4171	1204.7144	1220.1227	1224.3965	1263.3142	1294.2589	1308.3634	1333.325	1339.9855	1357.4846	1401.9565	1428.1707	1439.1813	1470.4483	1488.1211	2967.6189	3015.3344	3059.2247	3062.3624	3081.7957	3091.6609	3117.6034	3122.9835	3789.5004	3826.6926
OCC1OC2CC(O)C12	OC[C@H]1O[C@H]2C[C@@H](O)[C@@H]12	
InChI=1S/C6H10O3/c7-2-5-6-3(8)1-4(6)9-5/h3-8H,1-2H2	InChI=1S/C6H10O3/c7-2-5-6-3(8)1-4(6)9-5/h3-8H,1-2H2/t3-,4+,5-,6-/m1/s1
