16
gdb 52347	7.51445	0.42785	0.41166	3.8702	85.6	-0.2659	-0.0498	0.216	2428.2078	0.122142	-400.749199	-400.739421	-400.738477	-400.785828	32.635	
O	-0.686583186	 0.884940549	 0.8410120891	-0.227742
C	 0.0287973547	 1.0279483312	-0.1148267568	 0.156174
C	 1.3038319003	 1.845182817	-0.1253078382	-0.276916
C	 1.2843045135	 2.9135084162	-1.2295605691	-0.19231
C	 2.6219943867	 3.6810052999	-1.3094275786	-0.377985
C	 2.6261188067	 4.6982356163	-2.3468187161	 0.045466
C	 2.6059701727	 5.5367883274	-3.2164528005	 0.099592
C	 2.5880823065	 6.4850066956	-4.1984396159	 0.20713
N	 2.5722379491	 7.2912359605	-5.0347149503	-0.334881
H	-0.2150577546	 0.5491960262	-1.0924005436	 0.077883
H	 1.4410611165	 2.2880722295	 0.8655776818	 0.129583
H	 2.1377214882	 1.151123088	-0.3077479395	 0.124462
H	 1.0808735355	 2.4481868615	-2.2005277859	 0.126979
H	 0.4733420608	 3.6258926055	-1.0457579922	 0.136352
H	 2.8363449651	 4.1541033366	-0.3424498517	 0.155133
H	 3.4437386742	 2.9767756596	-1.4951584923	 0.151081
42.2905	61.8403	80.0021	102.1126	164.2347	181.3965	254.3486	325.6054	368.9809	473.7065	523.7445	577.4956	582.2053	723.4753	744.9051	807.1336	903.3312	978.3144	1031.7489	1088.76	1111.043	1173.9415	1183.0762	1251.7149	1284.5369	1325.9489	1335.3804	1384.0247	1430.3678	1462.2822	1466.3493	1500.3176	1840.7918	2267.0234	2403.1899	2857.5748	3010.1081	3021.0456	3046.7676	3053.4553	3085.4625	3103.9106
O=CCCCC#CC#N	O=CCCCC#CC#N	
InChI=1S/C7H7NO/c8-6-4-2-1-3-5-7-9/h7H,1,3,5H2	InChI=1S/C7H7NO/c8-6-4-2-1-3-5-7-9/h7H,1,3,5H2
