20
gdb 101460	4.01938	0.94985	0.9154	1.1135	75.55	-0.2529	0.0134	0.2663	1364.2059	0.171384	-440.303741	-440.294547	-440.293603	-440.338301	33.532	
C	 0.0160770436	 1.5965919514	 0.0152820247	-0.383825
C	-0.088469959	 0.0719013552	-0.0628733085	-0.189787
C	 0.7774076184	-0.5267580835	-1.1778423116	 0.123059
O	 2.1486838416	-0.1770536534	-1.0417538457	-0.438949
C	 0.6369551826	-2.0577098811	-1.2720302756	-0.005389
C	 1.4050459455	-2.6712039068	-2.471269299	-0.12692
O	 2.272170282	-3.6675860173	-1.8666792994	-0.214801
C	 2.1005336438	-3.5253240411	-0.5384687157	 0.122288
N	 1.2510442291	-2.6979494027	-0.0864551423	-0.29052
H	 1.0562974579	 1.9042544476	 0.1496967332	 0.128462
H	-0.3519464271	 2.0668422085	-0.9037377209	 0.109705
H	-0.5716411389	 1.9903411983	 0.8498403697	 0.109228
H	 0.2104721254	-0.3828792081	 0.8891369455	 0.114546
H	-1.1312210695	-0.2267623154	-0.2318175472	 0.090803
H	 0.4691218094	-0.0961283311	-2.1404299066	 0.082225
H	 2.4617529667	-0.6275932631	-0.2463087922	 0.285103
H	-0.4285663632	-2.3149339731	-1.2981493327	 0.086761
H	 0.7670707264	-3.1768229636	-3.1985175611	 0.119649
H	 2.0399582832	-1.9372294318	-2.9743750975	 0.134044
H	 2.7293470021	-4.170756409	 0.0659497828	 0.144318
67.2103	86.5642	98.4836	174.9498	217.718	266.1231	296.0153	348.7146	422.5769	482.9348	498.5847	705.2057	721.2877	785.0471	818.1045	887.0045	908.8295	960.1167	968.5567	981.1324	993.8163	1031.6587	1061.9481	1073.0911	1116.787	1150.4625	1155.3429	1228.8551	1250.8664	1274.5839	1309.9839	1317.3309	1336.2245	1363.3655	1384.3696	1393.3915	1407.6274	1428.9888	1485.3994	1496.5858	1502.6853	1509.4488	1696.2804	3017.6605	3022.9848	3034.7533	3035.5527	3065.7861	3067.0484	3101.0945	3122.2248	3122.8429	3210.0881	3764.4891
CCC(O)C1COC=N1	CC[C@@H](O)[C@H]1COC=N1	
InChI=1S/C6H11NO2/c1-2-6(8)5-3-9-4-7-5/h4-6,8H,2-3H2,1H3	InChI=1S/C6H11NO2/c1-2-6(8)5-3-9-4-7-5/h4-6,8H,2-3H2,1H3/t5-,6-/m1/s1
