19
gdb 120427	3.6787	0.88919	0.76698	4.6433	78.86	-0.267	-0.0427	0.2243	1514.8912	0.159213	-423.086269	-423.077478	-423.076533	-423.120501	32.225	
C	 0.0346753552	 1.5469452155	 0.0561727741	-0.385389
C	-0.0008586513	 0.016792657	 0.05245143	-0.169208
C	-1.4257859569	-0.5402218791	-0.0376477603	-0.181833
C	-1.4771703471	-2.0712967611	-0.021654779	 0.051792
O	-0.9398832756	-2.5763752074	 1.2084351808	-0.23323
C	-1.8694762481	-3.3607607901	 1.8506817447	 0.424525
O	-1.6511778091	-3.8894441968	 2.9031238114	-0.345653
C	-3.0862191733	-3.386363321	 1.0016537747	-0.235241
C	-2.8637892364	-2.6490954773	-0.0838300839	-0.08114
H	 1.0619716463	 1.9180509901	 0.1191551599	 0.118158
H	-0.4133684983	 1.9591193731	-0.85504129	 0.112646
H	-0.5185575771	 1.9536639389	 0.9097854027	 0.1192
H	 0.5890393063	-0.3644270923	-0.7916434242	 0.095727
H	 0.4728440105	-0.3716351414	 0.9600137	 0.127224
H	-2.033408889	-0.1661864032	 0.7955590494	 0.110443
H	-1.9070286107	-0.1943937995	-0.9623535232	 0.098977
H	-0.8540527141	-2.4644439215	-0.838816514	 0.108405
H	-3.9712804689	-3.9362301814	 1.2851637708	 0.135284
H	-3.5397844626	-2.4543858325	-0.9067341138	 0.129314
69.4449	92.1035	125.3273	157.5054	245.5395	277.3535	316.17	385.5532	502.6691	536.8462	676.0425	714.5726	747.2788	789.9809	835.8742	856.6876	905.4744	908.8756	940.5364	977.438	1032.027	1041.3205	1064.0548	1111.6656	1129.8099	1144.381	1165.6973	1255.8374	1274.4633	1327.8691	1339.2616	1350.7264	1368.4247	1395.609	1415.0887	1474.1929	1493.678	1500.2968	1509.8796	1662.5266	1871.5954	3000.9282	3018.407	3024.107	3030.8965	3061.1101	3078.1818	3101.1801	3106.2294	3217.9946	3257.678
CCCC1OC(=O)C=C1	CCC[C@H]1OC(=O)C=C1	
InChI=1S/C7H10O2/c1-2-3-6-4-5-7(8)9-6/h4-6H,2-3H2,1H3	InChI=1S/C7H10O2/c1-2-3-6-4-5-7(8)9-6/h4-6H,2-3H2,1H3/t6-/m1/s1
