17
gdb 109556	2.1674	1.5367	1.095	1.7234	64.06	-0.262	-0.0476	0.2144	1111.5915	0.134333	-496.084905	-496.075754	-496.07481	-496.118716	33.556	
O	 0.0379981668	 1.3818127952	-0.1497703272	-0.428059
C	 0.0116893743	-0.0029989987	 0.1271837623	-0.059749
C	-1.4148202098	-0.5467964455	 0.1252906586	-0.151218
C	-2.0549625221	-0.5703917994	-1.3193059533	 0.045868
O	-1.5314228556	 0.2570653246	-2.3252784414	-0.434095
C	-1.5661017843	-2.0142288564	-1.3452935668	 0.279008
O	-0.9145914727	-2.5759978298	-2.1895772788	-0.323822
C	-1.5162702244	-2.1299277915	 0.172158679	 0.053
O	-0.4964792541	-2.9043804682	 0.7176658254	-0.424778
H	-0.3513961887	 1.4837786226	-1.0279149223	 0.293145
H	 0.6347046468	-0.5690021077	-0.5856352707	 0.081225
H	 0.4576690814	-0.1451799008	 1.1153755795	 0.126564
H	-2.0238187235	-0.0347217032	 0.8709208146	 0.099209
H	-3.1432095013	-0.4631004994	-1.2700528705	 0.117374
H	-0.9949744954	-0.3079738821	-2.8993837293	 0.305176
H	-2.4748279632	-2.4216632749	 0.6142791371	 0.119789
H	 0.0908415758	-3.160200635	-0.0054410561	 0.301363
94.5195	149.5698	159.1593	165.1018	207.4567	237.0564	303.6025	342.8366	373.2911	472.4524	521.8725	575.2467	620.3441	632.6695	783.4761	797.9826	841.8031	908.0853	961.9386	1022.6446	1044.5597	1082.4508	1106.5415	1145.6158	1158.5617	1204.1266	1231.4926	1260.8762	1298.1879	1324.2697	1354.2958	1399.8134	1413.3345	1422.7495	1444.3223	1505.6791	1837.1412	2963.8527	3054.51	3062.8178	3089.5279	3111.0115	3741.488	3768.1	3768.8517
OCC1C(O)C(=O)C1O	OC[C@H]1[C@@H](O)C(=O)[C@H]1O	
InChI=1S/C5H8O4/c6-1-2-3(7)5(9)4(2)8/h2-4,6-8H,1H2	InChI=1S/C5H8O4/c6-1-2-3(7)5(9)4(2)8/h2-4,6-8H,1H2/t2-,3+,4-
