21
gdb 107197	3.62425	1.27137	1.12809	1.2527	81.44	-0.2291	0.0794	0.3085	1177.9872	0.182938	-387.064366	-387.056174	-387.055229	-387.096915	32.89	
C	 0.1998255503	 1.529915174	-0.1221418748	-0.374132
C	-0.0881861875	 0.0396513221	 0.0969313652	-0.253961
C	 0.6662222574	-0.5362362998	 1.267742679	 0.45368
C	 2.0835257091	-1.0412025565	 1.1465128146	-0.357648
C	 0.9600964021	-1.9962789284	 1.5185771886	-0.138203
C	 0.6261772286	-2.2497821218	 2.9721864941	-0.070411
C	 1.4210295545	-1.5589896567	 4.0654189466	-0.32846
C	 0.1783982896	-0.9138872377	 3.5098663337	 0.093365
O	 0.305602709	 0.0607276433	 2.503857582	-0.30281
H	 1.2623699126	 1.6986782477	-0.3260681947	 0.114608
H	-0.3740808258	 1.9212639259	-0.9676160016	 0.106282
H	-0.0658524578	 2.1058568026	 0.7683980327	 0.134713
H	-1.1626265843	-0.1108633933	 0.2608351755	 0.099948
H	 0.1794007326	-0.5305742378	-0.8005326352	 0.093977
H	 2.4864573033	-1.1376286814	 0.1428854436	 0.108517
H	 2.816192987	-0.7515790617	 1.8896306253	 0.116294
H	 0.6743196981	-2.7593505479	 0.8039020371	 0.088405
H	 0.1026857325	-3.1684373945	 3.2073576178	 0.090335
H	 1.3437319071	-1.9827217471	 5.0617336556	 0.110532
H	 2.3885109357	-1.1266102455	 3.8412329729	 0.119532
H	-0.692382704	-0.7606849255	 4.138835582	 0.09544
89.1149	133.0171	199.8926	256.2076	281.9694	360.9139	379.2359	471.9837	511.9691	641.4955	705.5275	716.1717	775.5799	783.3182	793.6251	849.2693	868.6815	920.9249	958.1768	970.2861	977.161	995.1051	1022.7513	1030.7944	1045.1085	1062.068	1095.1559	1096.7616	1107.0308	1134.0968	1156.5134	1197.809	1221.899	1263.9726	1303.3103	1345.3906	1356.33	1378.3844	1400.967	1408.3434	1470.299	1474.3999	1494.127	1497.4145	1510.0102	3024.8109	3039.0584	3063.3431	3105.9667	3121.4191	3131.4882	3136.8067	3160.6343	3171.3783	3186.6425	3219.6801	3226.8894
CCC12CC1C1CC1O2	CC[C@]12C[C@H]1[C@H]1C[C@H]1O2	
InChI=1S/C8H12O/c1-2-8-4-6(8)5-3-7(5)9-8/h5-7H,2-4H2,1H3	InChI=1S/C8H12O/c1-2-8-4-6(8)5-3-7(5)9-8/h5-7H,2-4H2,1H3/t5-,6+,7-,8+/m1/s1
