18
gdb 78371	4.09126	1.2691	1.17424	1.9952	79.93	-0.2209	-0.0008	0.2201	1109.3208	0.147777	-401.857056	-401.849578	-401.848634	-401.88883	29.415	
C	-0.2469076076	 1.1275677856	 0.1786410972	-0.318223
N	 0.1552288646	-0.2492348017	-0.1081132841	-0.087907
C	 0.9097502261	-0.3665205729	-1.3590518197	-0.10328
C	 1.6291039053	-0.4522271697	-0.03056386	-0.158052
C	 1.7622685142	-1.9462742827	-0.2136101583	 0.221503
C	 1.4721639925	-3.1428164956	 0.2756101988	-0.225811
C	 0.7957926928	-3.9235322232	-0.8509891507	-0.105924
O	 0.4572219777	-2.9502839213	-1.862445117	-0.280012
C	 1.304782858	-1.8479818627	-1.6372050228	 0.098278
H	 0.4784631808	 1.8894256959	-0.1536875786	 0.098436
H	-1.20159328	 1.3234715193	-0.3194004827	 0.130654
H	-0.3931662055	 1.2387476891	 1.2572404258	 0.127034
H	 0.906125495	 0.4433186116	-2.0795563765	 0.091315
H	 2.2638737542	 0.2711798199	 0.4630357976	 0.104325
H	 1.5400050312	-3.5141677377	 1.2898755654	 0.108742
H	 1.4352783757	-4.7100260939	-1.2845756996	 0.101776
H	-0.1293654518	-4.4007255324	-0.5045213456	 0.119053
H	 2.133814607	-1.8198811176	-2.3653131192	 0.078095
122.5197	167.962	233.8266	262.946	295.3539	331.7996	450.378	549.2039	694.46	714.0679	736.6157	783.5719	822.2801	836.9709	859.8942	912.1725	937.0233	963.6983	973.7945	1001.7989	1021.9107	1075.114	1116.6585	1119.6032	1124.3674	1145.1705	1193.4766	1218.4748	1224.5127	1263.0995	1267.5064	1327.4042	1351.9844	1379.5641	1449.3324	1491.1806	1498.4009	1508.107	1730.57	2952.7915	2959.8092	2967.2663	3042.7897	3070.4208	3108.1739	3180.5347	3210.0262	3217.8618
CN1C2C1C1=CCOC21	CN1[C@H]2[C@@H]1[C]1[CH]CO[C@@H]21	
InChI=1S/C7H9NO/c1-8-5-4-2-3-9-7(4)6(5)8/h2,5-7H,3H2,1H3	InChI=1S/C7H9NO/c1-8-5-4-2-3-9-7(4)6(5)8/h2,5-7H,3H2,1H3/t5-,6-,7+,8?/m0/s1
