23
gdb 87677	3.23308	1.08303	0.97739	1.479	86.7	-0.2177	0.0855	0.3033	1363.802	0.202994	-388.278767	-388.268788	-388.267844	-388.313424	38.306	
C	 0.2986062308	 1.4799023167	-0.4926427658	-0.406563
C	 0.1548813589	 0.0121867055	-0.1599314517	-0.072297
C	 1.3838316618	-0.8777160095	 0.0076031911	-0.367202
C	 0.5291928518	-0.5261611625	 1.183659521	 0.455931
C	 0.8845701031	 0.1991632608	 2.4733683171	-0.416451
C	 0.0098134016	-0.8916241978	 3.1522744569	 0.427368
C	 0.7624986964	-1.8688755918	 4.043927225	-0.427592
C	-1.2802702603	-0.3958418443	 3.789379369	-0.427892
O	-0.2682953887	-1.5035494607	 1.8502842388	-0.346847
H	 1.1587120272	 1.9203577907	 0.0232861738	 0.113647
H	 0.4490190591	 1.6306706437	-1.5674578892	 0.118521
H	-0.5911977138	 2.0475390196	-0.1973637413	 0.116239
H	-0.7026115056	-0.4836407007	-0.6090108431	 0.093089
H	 1.325876848	-1.8960362324	-0.3621083166	 0.118011
H	 2.3653153498	-0.4182316368	-0.072101469	 0.105507
H	 1.9407759432	 0.1818240687	 2.7512334073	 0.104686
H	 0.5025834119	 1.2189369287	 2.562368214	 0.105236
H	 1.0456941613	-1.394075925	 4.9899408693	 0.111988
H	 0.1356614528	-2.7373458238	 4.2706871221	 0.121911
H	 1.6702206112	-2.2232082736	 3.5477770452	 0.119843
H	-1.8096795546	 0.2817891239	 3.113846811	 0.118363
H	-1.9419176412	-1.2385378611	 4.0148679814	 0.12214
H	-1.0726891547	 0.1366141116	 4.7241842435	 0.112365
41.2252	137.2184	177.4625	202.4619	212.4777	250.0827	299.6089	323.1069	336.2143	392.9698	413.4502	450.5488	493.4444	534.6045	711.9724	783.4077	849.7506	874.1755	882.6545	907.1789	912.3686	928.98	960.6851	988.6612	999.6131	1021.2833	1031.3149	1101.1027	1119.536	1144.158	1153.5461	1179.4486	1216.3978	1243.1167	1281.344	1284.1533	1342.7245	1400.7833	1408.705	1413.58	1420.3828	1474.8446	1480.4498	1482.5519	1490.0612	1491.6774	1498.2654	1506.4482	1509.6784	3023.7296	3029.7822	3035.3151	3062.4271	3086.3608	3090.7428	3099.1986	3106.222	3111.4358	3116.2022	3117.03	3117.1966	3138.7212	3209.8378
CC1CC11CC(C)(C)O1	C[C@H]1C[C@]21CC(C)(C)O2	
InChI=1S/C8H14O/c1-6-4-8(6)5-7(2,3)9-8/h6H,4-5H2,1-3H3	InChI=1S/C8H14O/c1-6-4-8(6)5-7(2,3)9-8/h6H,4-5H2,1-3H3/t6-,8+/m0/s1
