13
gdb 25348	3.81306	1.21793	0.92309	4.6715	69.66	-0.252	-0.1005	0.1515	1147.6377	0.090831	-452.818142	-452.810982	-452.810038	-452.850246	26.166	
O	-0.9015168307	 1.1891230287	 0.1396085181	-0.240969
C	 0.2294400678	 0.8419981102	-0.0874718029	 0.121481
C	 1.4085895265	 1.7771119396	-0.0207400116	 0.222277
N	 2.5635602518	 1.2286020513	-0.2980728242	-0.367731
C	 3.7140695463	 2.0066143997	-0.2643886363	 0.441617
O	 4.8315360833	 1.6114734388	-0.5010031445	-0.369806
N	 3.5110541067	 3.3706585335	 0.0809538542	-0.334153
C	 2.3088731615	 3.9193168675	 0.3644121961	 0.055748
C	 1.1947969918	 3.1390461576	 0.3255405426	-0.213708
H	 0.5069835544	-0.1935154368	-0.3656263945	 0.112709
H	 4.3550184172	 3.9263565641	 0.1021299969	 0.277147
H	 2.30178655	 4.9748824321	 0.6123272638	 0.154626
H	 0.2036775835	 3.5087072336	 0.5398891721	 0.140763
100.7853	130.4394	203.7211	242.4595	408.4352	414.3212	511.9714	566.6644	620.7531	663.412	724.5678	797.5991	810.3799	818.096	902.7548	980.0838	1002.7683	1045.0226	1103.842	1129.6119	1214.2269	1270.0109	1376.9395	1437.2505	1484.6827	1579.2344	1668.5199	1817.7569	1819.3446	2957.8028	3200.4436	3257.3992	3608.8981
O=CC1=NC(=O)NC=C1	O=Cc1nc(=O)[nH]cc1	
InChI=1S/C5H4N2O2/c8-3-4-1-2-6-5(9)7-4/h1-3H,(H,6,7,9)	InChI=1S/C5H4N2O2/c8-3-4-1-2-6-5(9)7-4/h1-3H,(H,6,7,9)
