18
gdb 52535	3.19215	0.92229	0.72889	4.3066	85.25	-0.235	-0.0133	0.2217	1559.451	0.14636	-401.93912	-401.929077	-401.928133	-401.978107	33.116	
C	 0.0142259644	 1.4517905155	-0.0628903933	-0.504056
C	 0.0451214316	-0.0013772005	-0.0819626777	 0.110074
C	 0.0546200228	-1.2068557919	-0.0997584097	-0.016219
C	 0.0053047791	-2.6608062607	-0.1254435917	 0.220149
O	-1.0270577047	-3.2973425618	-0.2710514824	-0.368774
N	 1.2154803807	-3.2551941738	 0.0224692576	-0.064716
C	 2.5664182134	-2.7789206396	 0.327080762	-0.166777
C	 3.006652072	-4.2690040796	 0.4443034302	-0.242967
C	 1.5338672821	-4.6762471881	 0.1415202689	-0.165227
H	 1.0209341776	 1.8759345005	-0.1395455338	 0.152531
H	-0.5811574945	 1.8410919199	-0.895749078	 0.1608
H	-0.4353714304	 1.8193185529	 0.8660437057	 0.159507
H	 3.0318341343	-2.2087365926	-0.483876866	 0.118949
H	 2.6332287811	-2.1937505099	 1.2506382528	 0.119471
H	 3.7286434997	-4.5862711923	-0.3083108804	 0.118967
H	 3.3676684077	-4.5600108996	 1.4307685961	 0.119065
H	 0.998313391	-5.1755371167	 0.9557406232	 0.12511
H	 1.3718393921	-5.2431852916	-0.7808413434	 0.124112
8.6156	25.4798	71.6009	90.7359	128.8465	195.3648	201.6876	318.0946	388.5075	453.4469	481.5837	650.3849	746.8624	768.1412	842.6514	853.804	920.3687	934.817	991.1063	1047.5771	1054.7102	1138.1787	1141.072	1152.5196	1197.5285	1202.1622	1226.6217	1271.0515	1297.8583	1334.484	1411.075	1439.0639	1473.1024	1474.8067	1492.212	1510.2778	1532.7154	1731.8276	2352.3564	3030.5576	3031.4942	3041.9183	3073.0639	3081.4074	3093.8094	3094.4511	3095.6459	3148.9594
CC#CC(=O)N1CCC1	CC#CC(=O)N1CCC1	
InChI=1S/C7H9NO/c1-2-4-7(9)8-5-3-6-8/h3,5-6H2,1H3	InChI=1S/C7H9NO/c1-2-4-7(9)8-5-3-6-8/h3,5-6H2,1H3
