20
gdb 54845	3.00303	1.34937	1.24182	1.6326	79.92	-0.2296	-0.0213	0.2084	1124.2068	0.171616	-403.152262	-403.143634	-403.14269	-403.186052	32.227	
C	 0.9379383859	 0.1176457875	 1.2604177833	-0.486844
C	 0.4833499788	-0.4393807034	-0.0784893835	 0.390238
O	 1.1477791184	-0.2861610769	-1.0849313023	-0.33509
C	-0.8166226505	-1.173556023	-0.0381856117	-0.109685
C	-1.8711103343	-0.9996566814	-1.1075570529	-0.040649
C	-1.5139925844	-0.3559251755	-2.4410955706	-0.231077
C	-0.5937862802	-1.3822700026	-3.1554507887	-0.197288
C	-0.3722511579	-2.5329120135	-2.1381063363	-0.153437
N	-1.211353355	-2.2819551757	-0.943264341	-0.11418
H	 1.8403454195	 0.7139726696	 1.1231875198	 0.14085
H	 0.1500934844	 0.7293829186	 1.714223031	 0.139112
H	 1.1435816497	-0.7027278348	 1.9581142294	 0.145025
H	-1.182453029	-1.3380691587	 0.9732178998	 0.08912
H	-2.9005131898	-0.9333773095	-0.7620695312	 0.095705
H	-2.4317191171	-0.168490949	-3.0057037049	 0.101297
H	-1.0113937206	 0.6052484242	-2.3108879867	 0.120728
H	-1.0706833767	-1.7600203354	-4.0644863574	 0.092842
H	 0.3540466405	-0.9256013453	-3.4364866879	 0.126782
H	-0.7019062614	-3.4950469537	-2.5416450763	 0.10444
H	 0.6770951597	-2.6321941016	-1.8557308019	 0.122109
54.5799	103.9069	139.9496	179.7109	199.0881	307.8941	364.038	409.2929	605.5567	628.2315	681.198	700.707	743.8496	763.5939	831.3951	868.9225	894.1901	911.0586	950.621	974.0499	986.3495	1023.3501	1060.0679	1094.0409	1122.8266	1129.4138	1183.9442	1202.663	1256.8429	1268.9253	1280.7761	1296.7981	1328.1583	1340.1359	1376.5104	1384.9773	1407.1965	1463.7857	1474.4135	1480.5305	1493.7259	1509.0401	1779.7703	3033.7452	3051.5179	3059.5938	3069.9099	3093.7529	3102.2601	3112.5961	3121.0747	3131.8693	3143.7903	3154.3464
CC(=O)C1C2CCCN12	CC(=O)[C@H]1[C@H]2CCCN12	
InChI=1S/C7H11NO/c1-5(9)7-6-3-2-4-8(6)7/h6-7H,2-4H2,1H3	InChI=1S/C7H11NO/c1-5(9)7-6-3-2-4-8(6)7/h6-7H,2-4H2,1H3/t6-,7+,8?/m1/s1
