21
gdb 120669	4.41585	0.73576	0.69275	1.0985	79.81	-0.2222	0.0764	0.2986	1668.1636	0.181282	-424.183294	-424.173658	-424.172714	-424.218694	34.977	
O	 0.0047377922	 1.4546656235	 0.2835513076	-0.422719
C	 0.0168679565	 0.0357551975	 0.3362696212	-0.062385
C	-1.2765266498	-0.4671357489	-0.2962175097	-0.203006
C	-1.3839139412	-1.9758917368	-0.2846402524	-0.093654
C	-1.8675178357	-2.7197895309	 0.9609791364	-0.364428
C	-2.709723869	-2.6642642524	-0.2713610564	 0.451175
C	-4.1165569388	-2.1133568972	-0.4845211013	-0.355783
C	-4.3164046637	-3.398465982	-1.3169182674	-0.072542
O	-2.9587040605	-3.8281448271	-1.0636543777	-0.308594
H	 0.818563878	 1.7773557153	 0.6809966749	 0.285011
H	 0.8805469613	-0.3773190471	-0.2102903397	 0.084157
H	 0.0851665731	-0.3277520346	 1.3738688249	 0.088651
H	-2.1197235364	-0.0229557674	 0.2467834299	 0.102199
H	-1.3319778863	-0.0869434465	-1.3238679669	 0.106965
H	-0.622095024	-2.5015383481	-0.8569997351	 0.093905
H	-1.3978470817	-3.6680907804	 1.1995469877	 0.120154
H	-2.1773682364	-2.1336553627	 1.822049895	 0.109668
H	-4.7324135255	-2.0345001995	 0.4133002979	 0.113313
H	-4.1733569638	-1.1786614492	-1.046021526	 0.116878
H	-5.0476462218	-4.1119201763	-0.9202076594	 0.105232
H	-4.5018188564	-3.2503032691	-2.3867928633	 0.105804
63.4629	80.5581	98.7544	108.2798	204.4422	263.2548	264.468	310.2085	366.4102	465.3725	491.7395	597.123	787.8416	793.2311	844.2181	870.4335	875.3972	907.3367	923.6318	970.4006	1007.047	1021.088	1037.6393	1057.7279	1085.1714	1101.8121	1126.033	1163.5753	1172.6644	1194.399	1214.2425	1237.3493	1243.7735	1247.0444	1309.2082	1316.2903	1342.399	1367.4252	1419.6525	1460.4199	1483.367	1490.2613	1494.3182	1527.852	1533.1633	2963.5923	2991.9341	3024.9479	3026.6626	3066.8035	3067.6649	3073.6404	3118.0311	3126.4174	3131.2505	3210.8379	3831.2187
OCCC1CC11CCO1	OCC[C@H]1C[C@]21CCO2	
InChI=1S/C7H12O2/c8-3-1-6-5-7(6)2-4-9-7/h6,8H,1-5H2	InChI=1S/C7H12O2/c8-3-1-6-5-7(6)2-4-9-7/h6,8H,1-5H2/t6-,7-/m0/s1
