21
gdb 65660	3.60557	0.89604	0.84822	2.5282	78.08	-0.2385	0.0618	0.3003	1442.0505	0.180971	-424.181392	-424.171702	-424.170758	-424.217336	34.947	
O	 0.0505187956	 1.3945025562	 0.3256736626	-0.472384
C	 0.0277310514	 0.0086963315	 0.0769385015	 0.440148
C	-1.4015146236	-0.488254917	 0.1330076208	-0.270215
C	-2.3118335642	 0.1548582897	-0.9078565277	-0.00867
C	-2.2634718735	-0.3601396787	-2.3657114321	-0.078472
O	-3.6769456018	-0.6447100462	-2.3609431279	-0.273235
C	-3.7828802152	-0.3135704411	-0.9612121325	-0.095952
C	 1.0163616187	-0.5883816309	-0.8900046303	-0.332846
C	 1.1455356336	-0.8493924489	 0.6043960382	-0.32843
H	 0.8946786486	 1.7510987895	 0.0345934367	 0.282397
H	-1.40806572	-1.5785583856	 0.0175206466	 0.096188
H	-1.7965742568	-0.2732952181	 1.1349940205	 0.109325
H	-2.2175116765	 1.2401804252	-0.8472274449	 0.098607
H	-1.9931204032	 0.3671978216	-3.1403084566	 0.099929
H	-1.6659226756	-1.2711830147	-2.5136137998	 0.088772
H	-4.0043522068	-1.1985341528	-0.3468290915	 0.091101
H	-4.5512386499	 0.4462139502	-0.7747495301	 0.100366
H	 0.7026956192	-1.4031852094	-1.5336059902	 0.120635
H	 1.7443881673	 0.0746257609	-1.3496030894	 0.106444
H	 1.9492314945	-0.34683698	 1.1326762017	 0.110388
H	 0.9179616581	-1.8423943214	 0.9776545045	 0.115904
44.9538	68.3103	85.2108	95.3216	153.1924	274.886	296.2078	359.343	400.7658	429.3049	502.9849	735.8583	745.1226	767.7099	857.4969	883.5636	892.0986	899.7132	934.5327	944.4182	983.6875	989.5701	1036.1867	1048.198	1067.0059	1072.6199	1089.6616	1135.7329	1159.3568	1163.0446	1185.5719	1187.0332	1238.5766	1271.6636	1309.743	1322.1146	1345.9312	1371.8248	1400.0035	1434.5379	1459.2	1473.6897	1501.1941	1511.4248	1537.4285	2988.2629	2999.5438	3019.6224	3046.634	3047.8996	3063.2995	3106.1749	3119.0516	3127.761	3200.915	3217.6058	3834.1337
OC1(CC2COC2)CC1	OC1(CC2COC2)CC1	
InChI=1S/C7H12O2/c8-7(1-2-7)3-6-4-9-5-6/h6,8H,1-5H2	InChI=1S/C7H12O2/c8-7(1-2-7)3-6-4-9-5-6/h6,8H,1-5H2
