20
gdb 116760	2.88601	0.80088	0.67293	2.6288	85.78	-0.2446	0.0229	0.2675	1734.8347	0.166947	-403.109892	-403.099135	-403.098191	-403.14686	37.998	
C	-0.4916543527	 1.2830772994	-0.4997422503	-0.397875
C	-0.3033090088	 0.1287166452	 0.490377784	-0.110007
N	-0.9416330239	-1.1471974873	 0.2133102699	-0.227513
C	-1.6290550696	-1.3083778883	-0.8241068447	 0.128734
O	-2.2038034749	-2.5147776849	-1.0638019464	-0.208306
C	-2.9763662982	-2.6175053665	-2.2694164323	-0.05451
C	-3.2683806067	-4.1037320536	-2.4695891421	-0.393914
C	-4.2018404856	-1.8165940126	-2.1960405107	 0.351546
C	-5.2076623582	-1.1617333682	-2.1382980099	-0.482308
H	 0.0465154917	 2.1649441551	-0.1393079118	 0.115161
H	-0.0990560823	 1.03919354	-1.4929186837	 0.117304
H	-1.5459805544	 1.5589558157	-0.6085860294	 0.122584
H	 0.7696432332	-0.071795871	 0.6120834658	 0.112349
H	-0.6479001727	 0.4463334634	 1.4835520792	 0.113658
H	-1.8297657137	-0.5590533674	-1.5984918168	 0.087375
H	-2.3688036031	-2.2528280359	-3.1109652177	 0.110358
H	-3.8531718805	-4.4855422399	-1.6298698736	 0.144999
H	-3.8337268388	-4.2545771814	-3.3921422714	 0.130548
H	-2.3278226743	-4.6565419102	-2.527016827	 0.133038
H	-6.0956730565	-0.5812487815	-2.0840622913	 0.206779
29.8592	57.9771	112.3332	159.5725	178.0805	215.8822	237.2496	248.7356	269.5842	327.0592	404.398	427.4196	529.1902	575.345	629.5828	639.2431	678.8795	779.0662	824.0128	886.4925	954.4081	973.954	1051.6711	1076.4015	1085.7826	1114.4678	1147.2347	1156.8704	1230.53	1314.3419	1340.5992	1356.6191	1378.3493	1399.1853	1406.2405	1431.3365	1482.4831	1484.4353	1494.0296	1494.8328	1506.8481	1781.01	2235.7782	2993.6176	3015.1342	3030.8879	3034.7135	3052.8769	3056.7622	3099.6994	3107.0369	3138.8483	3142.2581	3502.1083
CCN=COC(C)C#C	CCN=CO[C@@H](C)C#C	
InChI=1S/C7H11NO/c1-4-7(3)9-6-8-5-2/h1,6-7H,5H2,2-3H3	InChI=1S/C7H11NO/c1-4-7(3)9-6-8-5-2/h1,6-7H,5H2,2-3H3/t7-/m0/s1
