23
gdb 118647	1.40515	1.12716	0.66056	4.9256	87.68	-0.2358	0.038	0.2738	1770.5283	0.204323	-384.481379	-384.470061	-384.469116	-384.519117	39.645	
C	-0.1261961456	 1.342872226	-0.1481568742	-0.386332
C	 0.0086787125	-0.1782239613	-0.0290633451	-0.17707
C	 0.7704761945	-0.5997171932	 1.2309426867	-0.178089
C	 0.915181156	-2.1316018622	 1.393305104	-0.138899
N	 1.6861539774	-2.8003317587	 0.3485235936	-0.280788
C	 0.9278790513	-3.5451893959	-0.6533106147	-0.115401
C	 1.8717989695	-4.1780923988	-1.6707933849	-0.391765
C	 1.5126120037	-2.4210384699	 2.7172436799	 0.295509
N	 1.978328025	-2.6245569967	 3.7550798983	-0.330243
H	 0.8563180673	 1.8255597568	-0.1894707873	 0.119261
H	-0.6728802276	 1.622088151	-1.0537454928	 0.118004
H	-0.6637791134	 1.7614722537	 0.7094259214	 0.121365
H	-0.9886040347	-0.6370820906	-0.0211793385	 0.10122
H	 0.51868442	-0.5686856572	-0.9176868133	 0.102255
H	 1.7753161155	-0.1564724779	 1.2297499235	 0.112028
H	 0.2664661675	-0.2033395871	 2.1205871038	 0.119289
H	-0.0902285082	-2.5720461802	 1.4050617819	 0.123095
H	 2.3359449747	-2.1550881247	-0.0853021335	 0.219824
H	 0.371633449	-4.333918865	-0.1317306872	 0.112997
H	 0.1781702368	-2.9287053487	-1.180370493	 0.083785
H	 1.3115113176	-4.7714153237	-2.3989053411	 0.120599
H	 2.4257152527	-3.4113291817	-2.2250807387	 0.11379
H	 2.5978290786	-4.8257546638	-1.1718814387	 0.135566
48.2889	57.5866	98.6676	103.6236	119.9385	171.948	237.8853	247.0553	260.6282	303.1749	323.0815	412.0331	425.9524	558.2233	577.6588	661.4708	750.7875	817.242	854.6186	903.9013	923.742	941.4043	997.0563	1038.8399	1068.3864	1096.0047	1118.0859	1141.7051	1167.8418	1206.0873	1249.6313	1285.0534	1299.6495	1327.7364	1338.7359	1350.8226	1393.1913	1400.8423	1415.5215	1419.7119	1473.3022	1485.8272	1492.5791	1498.4754	1499.9269	1502.9515	1510.9831	1526.9248	2354.9198	2943.7718	3017.1102	3023.8739	3031.6382	3033.9652	3034.7716	3042.2063	3050.1125	3072.7441	3101.8125	3102.1975	3107.8776	3125.0316	3540.6775
CCCC(NCC)C#N	CCC[C@@H](NCC)C#N	
InChI=1S/C7H14N2/c1-3-5-7(6-8)9-4-2/h7,9H,3-5H2,1-2H3	InChI=1S/C7H14N2/c1-3-5-7(6-8)9-4-2/h7,9H,3-5H2,1-2H3/t7-/m1/s1
