19
gdb 69784	3.11069	1.35293	1.2814	1.2265	74.55	-0.2446	0.0804	0.3251	1065.2784	0.159273	-423.004091	-422.996057	-422.995113	-423.035979	32.937	
O	-0.0415751982	 1.3957299684	-0.048285101	-0.473063
C	 0.0124048477	 0.002601904	 0.0330518596	 0.411161
C	-0.412646833	-0.8186623968	-1.1598053799	-0.356529
C	-1.283814553	-0.7687687015	 0.0838085967	-0.091757
C	-1.1139978706	-1.8946683808	 1.0567138883	-0.091757
C	-0.8992455135	-1.5012747504	 2.5083064405	-0.356528
C	 0.2825688105	-1.8142440429	 1.6231965305	 0.411162
O	 0.9895031411	-3.0008301571	 1.8295776893	-0.473062
C	 1.023800533	-0.6286205827	 0.9959598725	-0.376296
H	 0.6788354878	 1.6889752174	-0.6167634861	 0.280857
H	-0.7679999388	-0.2601825772	-2.0190894553	 0.110163
H	 0.1168726203	-1.7382539804	-1.3905025574	 0.115057
H	-2.2244640652	-0.2310877107	 0.0262127315	 0.093968
H	-1.5485058278	-2.8673441644	 0.8509358404	 0.093968
H	-1.0866596887	-0.4734673485	 2.8045303688	 0.115056
H	-1.147829518	-2.2508023702	 3.2519183567	 0.110163
H	 1.508325977	-2.9020688349	 2.6353204431	 0.280857
H	 1.9231926886	-0.990967599	 0.4844444259	 0.098289
H	 1.3327818997	 0.1159668137	 1.7389064907	 0.09829
125.0341	206.0759	284.9903	287.8651	342.9423	377.6365	406.246	417.0296	427.2378	458.1609	549.4275	609.7041	722.9996	752.561	811.8108	886.3867	910.7169	912.4089	926.8999	935.0876	993.5556	1007.7505	1019.7907	1048.3571	1056.4837	1078.9543	1105.1078	1128.7234	1160.5446	1223.5291	1242.4173	1271.3599	1289.8673	1297.8927	1321.6	1354.5309	1402.9172	1403.8965	1469.9225	1485.7772	1499.8505	3026.6654	3069.5969	3122.3773	3122.7441	3163.7479	3169.35	3216.438	3216.7295	3795.426	3795.5725
OC12CC1C1CC1(O)C2	O[C@]12C[C@H]1[C@@H]1C[C@]1(O)C2	
InChI=1S/C7H10O2/c8-6-1-4(6)5-2-7(5,9)3-6/h4-5,8-9H,1-3H2	InChI=1S/C7H10O2/c8-6-1-4(6)5-2-7(5,9)3-6/h4-5,8-9H,1-3H2/t4-,5-,6-,7-/m0/s1
