15
gdb 11386	4.51696	1.55558	1.23042	2.9012	66.15	-0.2585	-0.0384	0.2201	963.8105	0.119205	-399.813448	-399.806104	-399.805159	-399.8454	26.629	
C	-0.0201554303	 1.3875845474	-0.0948682163	-0.242133
O	-0.0088624156	-0.0299826484	-0.00062318	-0.228081
C	-1.2710370046	-0.602922407	 0.0078991981	 0.165207
O	-1.9303983399	-0.469678492	-1.2650548988	-0.257173
C	-2.1694984051	-1.7154090856	-1.7964833497	 0.394806
N	-2.7257839612	-1.9430193064	-2.9090028318	-0.539959
C	-1.6815761974	-2.7176819539	-0.8361133748	-0.133671
C	-1.1634549788	-2.0907596982	 0.2163389786	-0.119111
H	 1.0174040227	 1.716436779	-0.0152275088	 0.135433
H	-0.4362249953	 1.7200426127	-1.0523898569	 0.134403
H	-0.6043441217	 1.8345118623	 0.722927226	 0.111606
H	-1.9153968591	-0.0976710047	 0.7467666324	 0.085416
H	-2.9580651932	-1.0672964364	-3.380383792	 0.225347
H	-1.7573140641	-3.7781407636	-1.0249272818	 0.136719
H	-0.7022543863	-2.5153874952	 1.0967066757	 0.131193
93.5549	125.1543	177.7938	208.9775	326.0394	412.6144	476.9216	539.546	670.8408	704.4133	798.547	832.4505	889.5496	902.8161	946.9655	976.3606	1009.7745	1028.4055	1073.3397	1107.8396	1154.4839	1177.7197	1222.7942	1265.4066	1356.0573	1386.1475	1396.9458	1478.325	1485.0452	1509.7845	1670.3735	1765.1783	2967.0527	2998.6918	3073.9624	3135.4353	3237.4093	3263.4032	3478.999
COC1OC(=N)C=C1	CO[C@H]1OC(=C[CH]1)[NH]	
InChI=1S/C5H7NO2/c1-7-5-3-2-4(6)8-5/h2-3,5-6H,1H3	InChI=1S/C5H7NO2/c1-7-5-3-2-4(6)8-5/h2-3,5-6H,1H3/t5-/m0/s1
