19
gdb 79989	2.14593	1.67143	1.56778	2.2624	75.61	-0.2259	0.0132	0.2391	1008.8741	0.158442	-422.991753	-422.983278	-422.982334	-423.023962	33.938	
C	-0.1310654271	 1.647934168	 0.0360151629	-0.438255
C	 0.0253491342	 0.1389114781	 0.0277886405	-0.006245
C	 1.1656770953	-0.5841638277	-0.7781814697	-0.161013
C	 2.4259029754	-0.0212029777	-0.1271159713	-0.095711
C	 2.139895387	-0.0463079906	 1.180477339	-0.125431
C	 0.7310123931	-0.6243363844	 1.2178612926	 0.352485
O	 0.1590697023	-0.8074614217	 2.4675440292	-0.501778
C	 0.9343910354	-1.8088426314	 0.2067621869	 0.085099
O	-0.2490907428	-2.5582995044	 0.0685986938	-0.45012
H	 0.8181978861	 2.1560728427	 0.2236444401	 0.118566
H	-0.5269982736	 2.0057186967	-0.9209783823	 0.108782
H	-0.8375839358	 1.9509594907	 0.8167151227	 0.117895
H	-0.9322325812	-0.3424624111	-0.1912734238	 0.082898
H	 1.1255630538	-0.6996351839	-1.8604396117	 0.059589
H	 3.3362018161	 0.2751304718	-0.6286823115	 0.100176
H	 2.7303572368	 0.2197318788	 2.0451937725	 0.1061
H	-0.5988637426	-1.3912820819	 2.3457056351	 0.287962
H	 1.8084414821	-2.4477010542	 0.3790114473	 0.068725
H	-0.0761643345	-3.3099716378	-0.5053107623	 0.290277
182.3395	197.684	217.2341	230.222	235.0891	302.9674	363.601	384.1476	424.7964	510.0098	553.8934	630.3775	654.031	716.215	719.6006	760.1137	845.6166	908.9253	912.2624	943.3126	952.0274	1002.9433	1047.9165	1059.5571	1072.8073	1113.1558	1132.4838	1160.6856	1185.5455	1188.4788	1252.4977	1267.4149	1285.1979	1310.7945	1382.8057	1399.9481	1408.4776	1438.4086	1493.7376	1501.066	1618.2186	3031.9416	3040.6526	3073.0808	3089.5005	3118.6083	3127.3108	3220.9805	3248.9531	3796.4567	3833.9668
CC1C2C=CC1(O)C2O	C[C@H]1[C@H]2C=C[C@]1(O)[C@H]2O	
InChI=1S/C7H10O2/c1-4-5-2-3-7(4,9)6(5)8/h2-6,8-9H,1H3	InChI=1S/C7H10O2/c1-4-5-2-3-7(4,9)6(5)8/h2-6,8-9H,1H3/t4-,5+,6-,7+/m0/s1
