12
gdb 125807	3.53813	1.79392	1.19927	4.8633	60.98	-0.2944	-0.0636	0.2308	925.7898	0.078592	-464.924785	-464.918261	-464.917317	-464.955889	23.886	
C	-0.0181292918	 1.4937814144	 0.0225943361	-0.490865
C	-0.0125044968	 0.0113425493	 0.0224364372	 0.401505
N	-0.0486055821	-0.7338962945	-1.04408995	-0.159173
O	-0.0269348833	-2.0994547434	-0.6100286617	-0.234019
C	 0.0215063363	-2.0705624189	 0.7199595414	 0.573537
N	 0.0618284401	-2.9000827787	 1.7322398455	-0.346865
N	 0.0973150729	-2.0580296631	 2.816623705	-0.074686
N	 0.0823843531	-0.7988543819	 2.5070035118	-0.153409
N	 0.0319351745	-0.7944046709	 1.1419289274	-0.04378
H	 0.8857747694	 1.8759103943	 0.5063219172	 0.17499
H	-0.0626306261	 1.8557522152	-1.004637484	 0.177811
H	-0.8809111762	 1.8691637582	 0.5808548542	 0.174955
145.9212	175.2074	240.926	264.0493	394.3988	517.6607	625.8053	635.1179	692.1013	695.1078	775.2286	807.7811	889.0901	979.0429	1030.1616	1068.2906	1095.808	1168.0997	1191.5052	1313.519	1408.6996	1433.6177	1449.7999	1471.0155	1478.0908	1577.7585	1635.4154	3055.3531	3118.4394	3164.7956
CC1=NOC2=NN=NN12	Cc1noc2nnnn12	
InChI=1S/C3H3N5O/c1-2-5-9-3-4-6-7-8(2)3/h1H3	InChI=1S/C3H3N5O/c1-2-5-9-3-4-6-7-8(2)3/h1H3
