19
gdb 40612	3.50092	1.35599	1.18226	1.7013	78.26	-0.2081	0.0712	0.2793	1092.8702	0.15952	-385.776927	-385.769364	-385.76842	-385.809393	30.028	
C	 1.3482413322	 0.8287893246	 0.0843231085	-0.174265
O	 1.0577193288	-0.2298625863	-0.8239726098	-0.226918
C	 0.0125673313	 0.2146172575	 0.0488689565	 0.022327
C	-0.4464306272	-0.6956026085	 1.1577798291	-0.046218
C	-1.7334954642	-1.4712807902	 1.2988087189	-0.101772
C	-2.2138162188	-2.288381799	 0.0672690338	-0.061305
C	-1.3355210003	-2.209191293	-1.1529317637	-0.306074
C	-0.8813475447	-3.0183344348	 0.0292010747	-0.044395
C	-0.3955571653	-2.2020917709	 1.2594472124	-0.07954
H	 2.0293180076	 0.5699453996	 0.8950287818	 0.112092
H	 1.5125560773	 1.8076478471	-0.365126863	 0.111158
H	-0.7747769912	 0.7690412178	-0.4633900837	 0.100517
H	-0.1925903341	-0.2720775766	 2.1303765264	 0.097678
H	-2.3802857549	-1.3131238984	 2.1532864726	 0.084327
H	-3.2088979294	-2.7124999005	 0.0287498508	 0.086435
H	-1.6986087946	-2.823870677	-1.9729350714	 0.107609
H	-0.8285476021	-1.3157920895	-1.4858929824	 0.144478
H	-0.7039722021	-4.0837325357	-0.0389706471	 0.087201
H	 0.1256996516	-2.6814302762	 2.0788234055	 0.086664
56.23	135.3894	172.6977	308.8602	330.2422	422.7644	540.6778	661.4117	693.087	698.7112	709.5482	755.7537	834.4029	863.6378	879.88	905.3472	911.4319	931.9942	947.971	1007.9691	1021.8093	1033.8562	1053.1952	1060.4215	1073.0785	1080.1211	1098.0146	1114.2138	1158.058	1173.3441	1183.4474	1228.7133	1263.9826	1288.8492	1296.5738	1329.9134	1352.1347	1396.1451	1454.7526	1505.1347	1524.9251	3075.0978	3096.7939	3098.3283	3134.9296	3161.4513	3173.3636	3184.3581	3188.6275	3199.8104	3249.5962
C1OC1C1C2C3CC3C12	C1O[C@H]1[C@H]1[C@H]2[C@H]3C[C@H]3[C@@H]12	
InChI=1S/C8H10O/c1-3-4(1)7-6(3)8(7)5-2-9-5/h3-8H,1-2H2	InChI=1S/C8H10O/c1-3-4(1)7-6(3)8(7)5-2-9-5/h3-8H,1-2H2/t3-,4+,5-,6-,7+,8-/m1/s1
