18
gdb 58862	2.63137	1.50574	1.13309	4.4272	72.21	-0.2213	0.0032	0.2244	1112.4842	0.14601	-439.057758	-439.049012	-439.048068	-439.091507	32.446	
C	-0.0734111637	 1.5057681508	 0.2334734727	-0.345236
N	-0.0099207538	 0.0578723085	 0.0471323888	-0.150319
C	 0.8680395234	-0.6004168787	 0.9988693979	-0.336956
C	-1.2974110987	-0.5163194457	-0.0831895751	 0.181359
C	-2.266943186	-0.9822137561	 1.0482256888	-0.348091
C	-1.8432093045	-1.9133880098	-0.0350633808	 0.010283
O	-2.684265668	-1.6712127647	-1.2033248753	-0.261976
C	-2.1409606122	-0.4010254954	-1.3362204256	 0.453248
O	-2.3282091958	 0.3846065219	-2.2064960652	-0.336262
H	 0.9324996406	 1.9245544601	 0.1356552767	 0.122067
H	-0.7058661938	 1.942236142	-0.5428356974	 0.155221
H	-0.475290466	 1.793832515	 1.2213129677	 0.099074
H	 0.5609230748	-0.4665645555	 2.0526200601	 0.100645
H	 0.9160223436	-1.6719546241	 0.7845792669	 0.124814
H	 1.8767248868	-0.1897160368	 0.8948699062	 0.13133
H	-1.7798491945	-1.1128466163	 2.0101241844	 0.130985
H	-3.2991930383	-0.649277521	 1.0884052002	 0.135261
H	-1.3792081337	-2.8865757443	 0.0386509691	 0.134552
41.0623	151.11	186.4664	215.9497	255.0356	261.3345	319.1108	378.4243	425.1198	472.5954	543.8319	637.709	681.5124	787.1303	855.1572	873.8031	893.1197	932.382	976.8607	1030.5989	1048.5569	1058.5362	1074.2099	1077.46	1121.6017	1183.0299	1202.0021	1232.9674	1274.2752	1301.9356	1414.6139	1442.8147	1468.8203	1483.202	1485.9912	1498.6164	1501.3758	1522.4706	1941.6164	2935.5368	2950.2105	3067.9238	3076.9586	3112.8896	3123.4073	3129.4709	3216.4873	3225.8396
CN(C)C12CC1OC2=O	CN(C)[C@]12C[C@H]1OC2=O	
InChI=1S/C6H9NO2/c1-7(2)6-3-4(6)9-5(6)8/h4H,3H2,1-2H3	InChI=1S/C6H9NO2/c1-7(2)6-3-4(6)9-5(6)8/h4H,3H2,1-2H3/t4-,6-/m1/s1
