20
gdb 80981	2.4583	1.8521	1.36357	1.8921	78.04	-0.2415	0.0204	0.2619	1020.3353	0.171977	-403.154451	-403.146451	-403.145507	-403.186244	32.225	
C	-0.110139157	 1.5267110249	-0.0880002777	-0.430837
C	 0.017413818	 0.0103036665	-0.0052257151	-0.01906
C	 1.1938955538	-0.596060459	-0.8183906076	 0.104426
C	 2.0910615764	-0.4086299655	 0.4265807153	-0.287345
C	 0.7706219451	-0.5904996241	 1.2414459173	 0.313943
C	 0.6173790934	 0.0073573437	 2.620744507	-0.471672
N	 0.4716062138	-2.0381987773	 1.2691814496	-0.291555
C	 0.5889649308	-2.6088693542	 0.1437838203	 0.096066
O	 0.9501827416	-2.0058818056	-1.0157961835	-0.239788
H	 0.8388230967	 2.0451710447	 0.0801189911	 0.118446
H	-0.4763177376	 1.825182249	-1.0765929907	 0.119582
H	-0.8238265237	 1.8975648733	 0.6544408767	 0.126504
H	-0.9526037013	-0.4569338126	-0.2011977787	 0.080702
H	 1.4742971703	-0.1907840211	-1.790622882	 0.084054
H	 2.8879131385	-1.1364427355	 0.592149265	 0.108434
H	 2.4903865313	 0.6046972782	 0.486496662	 0.107405
H	 0.8346280536	 1.0795566734	 2.6194979244	 0.106171
H	-0.4015302992	-0.1441374472	 2.9919514629	 0.122272
H	 1.2994269309	-0.4839917619	 3.321970949	 0.124112
H	 0.4077764847	-3.6713585197	 0.0028360346	 0.12814
196.6771	208.3377	215.5816	234.2358	281.1752	332.7947	377.339	431.4541	468.0115	505.9528	602.17	642.6519	773.862	813.0968	850.0384	866.1209	881.338	922.6891	955.6172	961.9207	999.8953	1046.8153	1068.3971	1087.4187	1124.1677	1128.4678	1155.0793	1201.449	1218.8199	1249.5574	1260.2917	1306.8074	1331.5544	1368.854	1389.7609	1412.1636	1415.3063	1478.5795	1483.919	1490.3556	1499.5012	1502.8927	1697.8823	3032.5295	3035.6895	3057.1546	3076.5007	3095.5036	3104.1738	3106.347	3112.6265	3115.0421	3138.3969	3176.4037
CC1C2CC1(C)N=CO2	C[C@H]1[C@H]2C[C@]1(C)[N][CH]O2	
InChI=1S/C7H11NO/c1-5-6-3-7(5,2)8-4-9-6/h4-6H,3H2,1-2H3	InChI=1S/C7H11NO/c1-5-6-3-7(5,2)8-4-9-6/h4-6H,3H2,1-2H3/t5-,6+,7-/m0/s1
