17
gdb 75622	2.05935	1.76203	1.09754	1.6548	68.53	-0.2476	-0.0401	0.2076	1104.5611	0.132781	-458.93783	-458.928606	-458.927661	-458.971954	33.049	
C	-0.7447363326	 1.2531501981	-0.0758057105	-0.411694
C	 0.0041143263	-0.0700724612	-0.0251130424	-0.196486
C	 1.360837057	-0.168063783	-0.7459914893	 0.329926
O	 1.8671316604	 0.4294796317	-1.6544519503	-0.307474
C	 1.9816444016	-1.0168987195	 0.3747250825	-0.026825
O	 3.3078209129	-0.7766104723	 0.7371161578	-0.43047
C	 0.801756472	-0.4956946305	 1.2286002935	 0.378916
C	 0.878568966	 0.1383036095	 2.5407713251	-0.255727
O	 0.2747648458	-1.1575583766	 2.3533701676	-0.274492
H	-0.0973794866	 2.0834862151	 0.2210193799	 0.126285
H	-1.0995703946	 1.4527524262	-1.0908656345	 0.13899
H	-1.6120593605	 1.2356863076	 0.5909690868	 0.131608
H	-0.6428979627	-0.9011388421	-0.3364048594	 0.120911
H	 1.8324830877	-2.0909255471	 0.1876857265	 0.120481
H	 3.6306545206	-0.0537020287	 0.1848183118	 0.29855
H	 1.827502043	 0.1349800188	 3.0729654971	 0.135516
H	 0.186870254	 0.9369271437	 2.8022036377	 0.121982
70.9839	131.6259	174.8748	183.1949	195.2261	203.2114	235.72	289.3006	422.665	472.8607	530.2018	595.3338	628.716	754.4946	830.9066	845.0841	904.7237	939.3661	957.9673	1036.1957	1055.3967	1094.7394	1120.7452	1130.5558	1159.5317	1177.3725	1212.155	1237.8342	1322.4057	1355.8047	1395.8333	1407.2421	1438.5542	1494.1512	1496.1735	1533.3757	1880.2857	3004.4553	3029.998	3042.6097	3093.6132	3114.9305	3117.8271	3186.9079	3779.1573
CC1C(=O)C(O)C11CO1	C[C@H]1C(=O)[C@@H](O)[C@]21CO2	
InChI=1S/C6H8O3/c1-3-4(7)5(8)6(3)2-9-6/h3,5,8H,2H2,1H3	InChI=1S/C6H8O3/c1-3-4(7)5(8)6(3)2-9-6/h3,5,8H,2H2,1H3/t3-,5+,6+/m0/s1
