16
gdb 76873	2.60066	1.84927	1.50002	2.9727	62.95	-0.245	0.0022	0.2472	905.2545	0.125654	-475.009615	-475.002246	-475.001301	-475.041717	28.505	
O	 0.4148897468	 1.2274924414	-0.1859754568	-0.440775
C	 0.1293961757	-0.1470312285	-0.0405505812	 0.047467
C	 0.2345433724	-0.5842891996	 1.4653007166	 0.143015
O	 0.8935723602	 0.2978951338	 2.3082145574	-0.423438
C	-1.3340050326	-0.7034102584	 1.5280279271	-0.090183
N	-2.0394027156	 0.4551662277	 2.0906002165	-0.227874
C	-2.4719596796	 1.1234852256	 1.109327722	 0.098076
O	-2.2183433274	 0.7013279364	-0.172610757	-0.243095
C	-1.3960214241	-0.4746793168	-0.0120870494	 0.039564
H	-0.3822894862	 1.6478185581	-0.5340541243	 0.300948
H	 0.7223399979	-0.7342036959	-0.7505637221	 0.081566
H	 0.6930292916	-1.5723710401	 1.5751596941	 0.089588
H	 0.7921526892	 1.173094114	 1.9076799634	 0.291226
H	-1.7257680882	-1.6275110288	 1.958399398	 0.088307
H	-3.0564009574	 2.0348957298	 1.1649580271	 0.151091
H	-1.7546883627	-1.2492607287	-0.6885777312	 0.094518
55.0928	200.0519	245.8018	284.6719	322.5141	431.3642	480.9913	518.8937	599.4044	636.7504	686.4647	799.4396	828.855	844.7206	872.5406	902.4091	943.9771	963.8802	1032.9182	1049.1214	1072.4277	1109.279	1162.252	1167.9897	1239.5978	1245.8295	1265.6578	1286.0814	1308.3507	1328.386	1346.4855	1357.4401	1383.2907	1448.2997	1699.5884	3037.6463	3059.4541	3085.5048	3124.8851	3221.8105	3741.683	3764.0816
OC1C(O)C2N=COC12	O[C@H]1[C@@H](O)[C@H]2N=CO[C@@H]12	
InChI=1S/C5H7NO3/c7-3-2-5(4(3)8)9-1-6-2/h1-5,7-8H	InChI=1S/C5H7NO3/c7-3-2-5(4(3)8)9-1-6-2/h1-5,7-8H/t2-,3+,4+,5-/m1/s1
