13
gdb 27026	3.00096	1.37468	0.94375	3.992	74.14	-0.1993	-0.0094	0.1898	1146.8487	0.088236	-452.730575	-452.722443	-452.721499	-452.763171	30.415	
N	 0.1989894834	 1.3639677689	 0.1651450237	-0.604649
C	 0.0029414347	 0.017301958	 0.0531218217	 0.253716
C	-1.0976748192	-0.7622459028	 0.0197884023	 0.118134
O	-0.6470153179	-2.1052667451	 0.0047867277	-0.256204
C	 0.709118346	-2.0754418757	 0.0007672269	 0.488336
N	 1.5320363399	-3.0216000005	-0.0312340089	-0.583079
O	 1.1232963302	-0.7590910303	 0.0396285046	-0.198506
C	-2.4570375326	-0.4596955879	 0.0064889147	 0.209761
C	-3.6302526894	-0.1761676325	-0.0109123525	-0.413591
H	 1.0310527781	 1.7053686802	-0.2967633715	 0.274825
H	-0.6226967555	 1.9174213116	-0.0312821972	 0.275488
H	 1.0479368383	-3.9151453488	-0.0589691477	 0.240063
H	-4.6637850059	 0.0670413449	-0.0173333039	 0.195706
116.9954	127.6096	190.873	251.3011	309.4739	338.7137	418.6674	428.0052	494.9836	554.9028	597.147	615.9696	676.4578	687.0124	721.1155	729.4587	780.5678	815.4709	953.8121	1014.901	1052.8059	1150.5444	1268.9884	1313.7488	1439.816	1625.0317	1743.9578	1821.5712	2214.8688	3501.0218	3548.6361	3559.4217	3667.0963
NC1=C(OC(=N)O1)C#C	NC1=C(O[C@H]([NH])O1)C#C	
InChI=1S/C5H4N2O2/c1-2-3-4(6)9-5(7)8-3/h1,7H,6H2	InChI=1S/C5H5N2O2/c1-2-3-4(6)9-5(7)8-3/h1,5,7H,6H2/t5-/m0/s1
