17
gdb 73890	2.21927	1.6684	1.0283	4.5437	77.45	-0.2485	-0.0607	0.1878	1144.486	0.134956	-421.835666	-421.827472	-421.826528	-421.868549	30.42	
C	 0.0750150668	 1.4960675479	 0.1105435908	-0.495292
C	 0.0108408183	 0.0086592359	-0.0117142334	 0.204903
C	 0.0019723087	-0.7532044691	-1.130521897	 0.156669
C	-0.0315951927	-0.2993761863	-2.5190042146	 0.059713
O	-0.0749823247	-1.0510795616	-3.4706650278	-0.27535
C	 0.0340681944	-2.2054541694	-0.7714922991	-0.064536
O	 1.2196301346	-2.5689725902	-0.0273452725	-0.255694
C	 0.0254071344	-2.2807808099	 0.6977595404	 0.030731
C	-0.0309665073	-0.858116897	 1.2360533705	-0.329158
H	 0.9978750576	 1.7938079235	 0.6241572477	 0.146854
H	 0.0439972695	 2.0080059128	-0.8522706397	 0.14103
H	-0.7544052895	 1.8665336686	 0.7256432816	 0.139141
H	-0.0293388791	 0.8011678956	-2.6692716623	 0.065563
H	-0.3506900769	-2.963264113	-1.443483165	 0.118062
H	-0.4017343291	-3.107817576	 1.2577027921	 0.101853
H	 0.8042216187	-0.639334574	 1.9128031186	 0.133836
H	-0.9538356335	-0.6741699177	 1.8029130998	 0.121675
110.3734	142.4543	170.5248	190.3958	233.4111	306.4647	369.1763	434.4811	516.5394	574.9799	622.2698	707.2078	801.8231	844.1116	862.2881	891.4195	918.5101	972.6132	1003.5466	1030.0947	1064.6988	1100.1183	1116.0394	1187.9763	1201.1088	1244.7539	1262.7595	1309.3746	1376.0439	1406.4779	1418.8345	1430.9229	1448.7889	1475.7962	1479.0769	1672.7041	1772.1415	2898.358	3021.3207	3027.0247	3061.3047	3071.4439	3136.628	3155.2325	3197.4251
CC1=C(C=O)C2OC2C1	CC1=C(C=O)[C@H]2O[C@H]2C1	
InChI=1S/C7H8O2/c1-4-2-6-7(9-6)5(4)3-8/h3,6-7H,2H2,1H3	InChI=1S/C7H8O2/c1-4-2-6-7(9-6)5(4)3-8/h3,6-7H,2H2,1H3/t6-,7+/m0/s1
