18
gdb 32110	3.61379	1.10124	0.85044	0.9347	85.39	-0.1893	0.0157	0.205	1335.4778	0.149181	-402.013899	-402.005449	-402.004504	-402.046685	32.714	
C	 0.0596379982	 1.4572216602	-0.1024865392	-0.320979
N	-0.1196920433	 0.0354918396	 0.0994059641	-0.371505
C	 0.5547532898	-0.6569831315	 1.092998899	 0.392704
C	 1.1898681974	 0.0030826197	 2.1594695239	-0.233493
C	 1.815359493	-0.7408044698	 3.1541686405	-0.069408
C	 1.8376077551	-2.1302549744	 3.1209719238	-0.289739
C	 1.2108375369	-2.7839393273	 2.0555135914	 0.413209
O	 1.1909425941	-4.144994995	 1.9470871604	-0.447834
C	 0.5778065412	-2.0598304937	 1.0538464788	-0.306311
H	 1.1124888809	 1.7513349339	-0.2365629785	 0.116334
H	-0.4981727002	 1.7584577076	-0.9920648073	 0.122691
H	-0.3420072736	 2.0249093256	 0.7445107176	 0.133881
H	-0.2815619658	-0.4957562854	-0.7407205224	 0.236392
H	 1.1935987267	 1.0838085967	 2.2133038277	 0.083803
H	 2.3018554874	-0.2219207744	 3.974229567	 0.089826
H	 2.3321999236	-2.7005557839	 3.9016518365	 0.073759
H	 1.6598322485	-4.5203130122	 2.6992224719	 0.294028
H	 0.09636342	-2.5988978057	 0.2442754347	 0.082644
92.5628	177.8407	220.6717	238.6322	249.0445	342.8273	362.1849	425.1097	462.6165	472.3441	532.6023	616.3534	639.764	703.9092	754.9096	758.0864	816.8603	856.0128	937.6135	947.131	1001.947	1086.1774	1110.8672	1152.6796	1175.168	1190.4855	1196.3634	1254.799	1328.2492	1347.7361	1370.6123	1460.6852	1469.1861	1483.4919	1524.3583	1532.7154	1554.8976	1626.8465	1667.1144	2980.054	3056.2852	3118.1749	3160.8835	3178.0274	3180.7379	3212.4997	3629.2695	3825.5198
CNC1=CC=CC(O)=C1	CNc1cccc(O)c1	
InChI=1S/C7H9NO/c1-8-6-3-2-4-7(9)5-6/h2-5,8-9H,1H3	InChI=1S/C7H9NO/c1-8-6-3-2-4-7(9)5-6/h2-5,8-9H,1H3
