18
gdb 79909	2.56723	1.53477	1.30125	2.8839	78.35	-0.2297	-0.0606	0.1691	1063.2826	0.147056	-401.948685	-401.940143	-401.939199	-401.981787	31.84	
C	-0.2234993138	 1.4877672392	-0.1261431082	-0.319135
N	 0.0343746632	 0.061561577	 0.0196008648	-0.09278
C	 1.3650360697	-0.5317424252	-0.1564352385	-0.074581
C	 2.5732334826	 0.3541402076	-0.0733346512	-0.179959
C	 2.7189248636	 0.9129317818	 1.1392051138	 0.184186
C	 3.735758074	 1.8900507308	 1.6295744728	-0.493323
C	 1.6155809585	 0.4229605993	 2.0288594703	 0.343005
O	 1.4792012197	 0.6828127065	 3.2020146913	-0.32242
C	 0.7250778785	-0.4869231861	 1.1919611331	-0.159784
H	 0.6075032493	 2.1478727568	 0.1551951294	 0.110261
H	-0.4798776024	 1.683907456	-1.171856705	 0.126324
H	-1.090677133	 1.7415964	 0.4900465726	 0.135566
H	 1.396347921	-1.4256690296	-0.7721082658	 0.103469
H	 3.2143766288	 0.5418439136	-0.9283144213	 0.11347
H	 3.2556656512	 2.8167261906	 1.9634454926	 0.143977
H	 4.2626039186	 1.4881410522	 2.5016658541	 0.146862
H	 4.4684718189	 2.1349183356	 0.8568853234	 0.123696
H	 0.2435185318	-1.3255057761	 1.684920762	 0.111165
102.5586	121.767	144.3221	189.7253	251.8306	297.021	328.678	426.0163	474.3584	522.3717	621.7275	665.8845	724.0452	757.3143	827.3586	843.6964	913.5969	928.5187	944.1036	1026.3371	1060.7806	1076.9523	1084.4564	1123.0992	1157.2265	1171.6948	1228.3409	1273.5314	1302.9787	1335.3061	1360.9895	1412.6348	1447.6947	1471.8732	1482.6956	1488.129	1503.6954	1684.8767	1809.8351	3010.7235	3036.5123	3081.6696	3089.9031	3112.3481	3123.6971	3153.2947	3165.3106	3188.7246
CN1C2C=C(C)C(=O)C12	CN1[C@H]2C=C(C)C(=O)[C@@H]12	
InChI=1S/C7H9NO/c1-4-3-5-6(7(4)9)8(5)2/h3,5-6H,1-2H3	InChI=1S/C7H9NO/c1-4-3-5-6(7(4)9)8(5)2/h3,5-6H,1-2H3/t5-,6-,8?/m0/s1
