18
gdb 36742	4.35352	0.821	0.79008	4.5424	73.01	-0.2823	0.0157	0.298	1470.6867	0.148371	-439.099062	-439.090367	-439.089423	-439.134026	30.748	
N	 0.1357583316	-0.9456278306	-0.7160980247	-0.296653
C	 0.1021176263	 0.1740483356	-0.4366117309	 0.26219
C	 0.0203353905	 1.5925575576	-0.0815360754	-0.197121
O	 1.3259580838	 2.1284017237	-0.0267556886	-0.256923
C	 1.3345151102	 3.5153480159	 0.2787517252	 0.232694
C	 2.8070702485	 3.9676394824	 0.3012968356	-0.266327
C	 2.9158262298	 4.9392581237	-0.895973024	-0.21184
C	 1.6534485299	 4.6172336915	-1.7027711982	-0.093248
O	 0.6804031095	 4.2701078035	-0.7097155737	-0.248906
H	-0.5928138443	 2.115755899	-0.8266130968	 0.159028
H	-0.4907480709	 1.6846797607	 0.8905478656	 0.138389
H	 0.7831207479	 3.6809803488	 1.2143807869	 0.078722
H	 3.0597151012	 4.445407478	 1.2494540101	 0.115845
H	 3.4443731937	 3.0893131463	 0.1836321448	 0.132991
H	 2.886396777	 5.9777039679	-0.5546317619	 0.114122
H	 3.8315634507	 4.7991375691	-1.4741746708	 0.11276
H	 1.2551504752	 5.4591774972	-2.2724853709	 0.114899
H	 1.8187534393	 3.7731684095	-2.3859093823	 0.109376
37.8722	63.2542	126.8692	141.5232	218.5182	280.8663	379.2745	384.7254	527.3445	597.9379	624.3149	746.991	840.4147	869.1772	919.0037	933.3756	954.4969	972.7687	992.5996	1034.7351	1054.3953	1076.8545	1119.2117	1142.4213	1212.9653	1232.6755	1248.1791	1258.2406	1312.9858	1321.7863	1357.8458	1367.3198	1399.526	1426.7861	1482.8316	1498.0892	1500.3529	1521.171	2373.3299	2983.718	3015.9014	3017.5627	3046.3591	3064.4833	3084.5402	3108.8613	3116.7642	3136.099
N#CCOC1CCCO1	N#CCO[C@H]1CCCO1	
InChI=1S/C6H9NO2/c7-3-5-9-6-2-1-4-8-6/h6H,1-2,4-5H2	InChI=1S/C6H9NO2/c7-3-5-9-6-2-1-4-8-6/h6H,1-2,4-5H2/t6-/m0/s1
