18
gdb 63289	1.91553	1.6705	1.10095	3.9907	79.3	-0.2419	0.0265	0.2684	1160.1629	0.144692	-401.947158	-401.937596	-401.936652	-401.981367	35.757	
C	-0.0284126	 1.541168468	-0.1239483946	-0.426655
C	-0.0110906154	 0.0200977002	-0.0126377748	 0.333044
C	-1.3975101333	-0.5875812801	-0.212218261	-0.432069
N	 1.0323233245	-0.614588074	-0.8448711104	-0.359354
C	 1.8035402506	-1.0994529115	 0.1725250735	 0.446731
O	 2.8392941867	-1.7015167901	 0.2118463601	-0.359253
C	 0.7777252854	-0.5643002035	 1.2337687803	-0.421985
C	 1.2720422231	 0.3377352729	 2.2448379809	 0.352654
C	 1.690491935	 1.0907391813	 3.0837035345	-0.460134
H	 0.9684116299	 1.9586039082	 0.0328760043	 0.135447
H	-0.3821295013	 1.8445108971	-1.1155013467	 0.112219
H	-0.7011303524	 1.9750862056	 0.6216059224	 0.130123
H	-1.7985984451	-0.3255430433	-1.1975178055	 0.119322
H	-1.3619913374	-1.6782833533	-0.1384872373	 0.12462
H	-2.0953422695	-0.2094179294	 0.5414838704	 0.130183
H	 1.1700669248	-0.637824619	-1.8451686801	 0.248513
H	 0.2368408816	-1.4002782599	 1.6890020628	 0.125365
H	 2.0670264527	 1.747827431	 3.8280494211	 0.201228
55.1568	118.9729	149.0798	212.8658	246.059	295.0906	332.9341	336.3008	367.3837	404.8622	439.6923	509.5816	571.9788	611.7345	617.9977	649.6632	703.334	799.0374	871.9567	893.4719	944.2606	978.5878	1012.9445	1085.3831	1114.0285	1143.4096	1212.0461	1236.904	1269.788	1329.3867	1377.4111	1403.1757	1420.6946	1476.8195	1483.5141	1498.4396	1502.8992	1904.3921	2236.2315	3032.3138	3039.7766	3061.7474	3100.0783	3107.8175	3115.836	3132.1842	3502.6008	3602.5774
CC1(C)NC(=O)C1C#C	CC1(C)NC(=O)[C@H]1C#C	
InChI=1S/C7H9NO/c1-4-5-6(9)8-7(5,2)3/h1,5H,2-3H3,(H,8,9)	InChI=1S/C7H9NO/c1-4-5-6(9)8-7(5,2)3/h1,5H,2-3H3,(H,8,9)/t5-/m1/s1
