15
gdb 60756	2.24175	1.26552	0.94749	3.7559	68.65	-0.2566	-0.0616	0.195	1226.6608	0.107798	-457.740735	-457.731126	-457.730182	-457.776238	33.516	
O	-0.5468591455	 0.5449893862	-0.5604097171	-0.408971
C	 0.2492318624	-0.3638608141	 0.1221246385	-0.047678
C	 1.6378202173	-0.4410130615	-0.5147831637	 0.132071
O	 1.9468130483	 0.3356721906	-1.3837721429	-0.252355
C	 0.4099282139	 0.0419026422	 1.6150841467	 0.35471
O	 0.4098459853	 1.1951182628	 1.9455790364	-0.271218
C	 0.5001918934	-1.0857537867	 2.6610034691	-0.448999
C	 1.2274330779	-2.274236639	 2.2416381805	 0.286636
C	 1.8384789444	-3.2486134281	 1.8909160995	-0.439974
H	 0.0563659457	 1.0561313609	-1.1236135284	 0.301534
H	-0.1896735906	-1.3729882791	 0.0889668932	 0.11939
H	 2.3230515505	-1.2192015054	-0.1366843363	 0.12412
H	 0.9313422691	-0.6508644624	 3.5676162026	 0.167724
H	-0.5385722929	-1.3546482154	 2.9040045727	 0.169921
H	 2.3731691307	-4.117793541	 1.5950841494	 0.213089
43.2584	67.5803	107.5841	126.3277	222.4983	290.1993	323.4475	332.5232	342.5506	421.8188	459.1012	543.7295	632.7326	652.6391	672.2373	744.4464	791.0445	869.9043	904.2157	987.0809	1031.6988	1088.8215	1168.7796	1203.7345	1231.528	1292.1785	1334.6868	1391.2087	1429.9197	1440.123	1800.8291	1843.0091	2235.2015	2991.8355	3005.8214	3013.5335	3090.0456	3500.0953	3689.9206
OC(C=O)C(=O)CC#C	O[C@@H](C=O)C(=O)CC#C	
InChI=1S/C6H6O3/c1-2-3-5(8)6(9)4-7/h1,4,6,9H,3H2	InChI=1S/C6H6O3/c1-2-3-5(8)6(9)4-7/h1,4,6,9H,3H2/t6-/m0/s1
