19
gdb 57708	2.89416	0.97245	0.91714	5.2515	76.98	-0.2688	0.0098	0.2787	1349.8233	0.157718	-419.255513	-419.245268	-419.244324	-419.29105	36.425	
C	-0.5445880604	 1.3732948726	-0.1372938616	-0.399477
C	-0.0603474465	-0.0803187459	 0.0472909227	 0.071529
C	 0.901705828	-0.1840746892	 1.2502015643	-0.413201
C	-1.2669616272	-1.0558193097	 0.2169462032	-0.176345
N	-2.0657855295	-0.7988191111	 1.400155815	-0.284129
C	-3.2657641932	-0.150661685	 1.3509818012	 0.15436
O	-3.7397724118	 0.3572791882	 0.3590692996	-0.314815
C	 0.6540726639	-0.508261607	-1.166177404	 0.27277
N	 1.2105430769	-0.8591010346	-2.1167265587	-0.337773
H	 0.3037799408	 2.0399467658	-0.3120466261	 0.129067
H	-1.2366313519	 1.4557243149	-0.977661247	 0.151174
H	-1.0651605935	 1.7036608368	 0.764620775	 0.131762
H	 0.3807165851	 0.1208969072	 2.1623342097	 0.119443
H	 1.2710506107	-1.2058661382	 1.3789466399	 0.12963
H	 1.763914018	 0.473489458	 1.115423401	 0.141521
H	-1.9287643534	-0.9624362677	-0.6464867997	 0.160712
H	-0.8923021828	-2.0833807016	 0.2546050169	 0.125327
H	-1.8003392707	-1.2292586148	 2.2711831737	 0.253912
H	-3.7656558124	-0.1368976287	 2.339243145	 0.084535
51.6174	75.4507	140.5276	184.6952	210.56	222.1638	246.7796	257.3616	303.9403	357.4327	377.207	475.7546	530.4267	568.1285	580.1394	725.0141	750.9822	866.9007	936.6303	963.2897	988.2211	1000.7214	1033.4355	1050.6941	1180.1048	1209.1611	1221.3731	1234.228	1328.2674	1392.3403	1398.9096	1424.4936	1429.5915	1468.3635	1478.4192	1487.3381	1500.8721	1506.5901	1526.3845	1808.9161	2352.4921	2945.0283	3042.6571	3055.1813	3058.9944	3117.0721	3125.4308	3127.3074	3131.1098	3141.4295	3639.986
CC(C)(CNC=O)C#N	CC(C)(CNC=O)C#N	
InChI=1S/C6H10N2O/c1-6(2,3-7)4-8-5-9/h5H,4H2,1-2H3,(H,8,9)	InChI=1S/C6H10N2O/c1-6(2,3-7)4-8-5-9/h5H,4H2,1-2H3,(H,8,9)
