19
gdb 12822	3.33438	2.03848	1.62	0.4193	71.13	-0.2183	0.0885	0.3068	873.9614	0.166997	-365.038114	-365.030746	-365.029802	-365.069328	28.93	
C	 0.0108898844	 1.5322464826	 0.0200653038	-0.457769
C	-0.0688777925	 0.0216463368	 0.0199006993	 0.310628
C	-0.8811527534	-0.6962450389	 1.0353590758	-0.278819
N	 0.5804982422	-0.6484795098	 1.1628755122	-0.132542
C	 1.3007547392	-1.9138529971	 0.93214148	-0.157034
C	 1.4994665213	-2.2504186323	-0.5468282673	-0.083244
O	 0.3132515343	-2.0087474007	-1.2862749287	-0.23842
C	 0.0636525256	-0.6191846075	-1.3551965909	-0.153637
H	 0.9653915684	 1.87600068	-0.3946735445	 0.116686
H	-0.7944833088	 1.9678699384	-0.5832697843	 0.114365
H	-0.0725167865	 1.9179915451	 1.0386869491	 0.129405
H	-1.4356216747	-0.1430606044	 1.7902989982	 0.104477
H	-1.3279655044	-1.6420742713	 0.7348641447	 0.115444
H	 2.2807276556	-1.8456797063	 1.4209642514	 0.102996
H	 0.7514470645	-2.7235651698	 1.425505221	 0.107645
H	 2.3245133419	-1.6539515835	-0.9707997271	 0.090263
H	 1.749155825	-3.3078054066	-0.6739939299	 0.109338
H	-0.859805536	-0.4897661539	-1.9296237378	 0.11291
H	 0.8774476439	-0.1203278708	-1.910894215	 0.087307
125.3793	183.6164	219.1275	325.1637	338.8703	405.3495	426.2482	460.2561	526.1249	613.9496	730.2005	750.9208	868.1077	887.8803	922.0052	941.9788	970.9699	1019.0752	1023.539	1097.1468	1108.8023	1124.4766	1144.0985	1154.7676	1177.1333	1261.3618	1272.6892	1274.9654	1322.1012	1369.2984	1379.3491	1398.6337	1412.9615	1430.0795	1484.2003	1488.5268	1493.6127	1497.2726	1503.9345	1513.0894	2949.5127	2967.9611	3021.5018	3026.8741	3061.0856	3067.0441	3086.4207	3087.1248	3089.411	3123.4911	3175.5628
CC12CN1CCOC2	C[C@]12CN1CCOC2	
InChI=1S/C6H11NO/c1-6-4-7(6)2-3-8-5-6/h2-5H2,1H3	InChI=1S/C6H11NO/c1-6-4-7(6)2-3-8-5-6/h2-5H2,1H3/t6-,7?/m1/s1
