20
gdb 39817	2.8278	1.56176	1.54535	1.3518	78.32	-0.2343	0.0843	0.3186	994.3846	0.174115	-403.103895	-403.096613	-403.095669	-403.135271	29.896	
C	 0.0393472397	 1.4470215515	-0.020912154	-0.343846
N	 1.2672708048	 0.6172400513	 0.0532377532	-0.385656
C	-0.032543863	-0.0234024054	 0.0279450905	 0.433553
C	-0.6037743537	-0.9724460638	 1.0913435683	-0.119253
C	-1.6955343274	-1.326932269	 0.032400133	-0.263775
C	-0.6185046092	-0.9638309335	-1.0320769352	 0.019962
O	 0.2954394974	-2.0255408153	-1.2769565141	-0.27798
C	 0.4983804575	-2.8740042468	-0.1420163371	-0.068013
C	 0.3977544774	-2.1359571092	 1.2130759244	-0.229203
H	-0.1614588395	 2.0380558707	 0.8692237532	 0.117745
H	-0.1992703683	 1.9458592072	-0.9579006543	 0.111185
H	 1.7079703321	 0.5439995865	-0.8616758849	 0.234874
H	-0.9090211898	-0.5673173037	 2.0581991358	 0.067319
H	-2.1099730265	-2.33681354	 0.0190882479	 0.101407
H	-2.5084620227	-0.5977929206	 0.0240345326	 0.105752
H	-0.9180066221	-0.5737664501	-2.0080278169	 0.072775
H	-0.241563891	-3.6860888469	-0.1701492619	 0.096094
H	 1.4831036528	-3.3305097291	-0.2756661109	 0.108606
H	 1.3683005608	-1.7259752211	 1.5103773145	 0.124039
H	 0.0874193306	-2.8520333425	 1.9822042161	 0.094414
133.7623	225.8894	240.3702	250.8933	379.5586	415.5849	471.2711	529.1206	619.9234	638.6205	809.5363	814.7975	837.7634	860.0512	888.7177	928.6778	938.3717	943.1547	950.2077	974.3065	1026.6886	1051.7397	1072.4708	1089.8148	1109.5757	1138.0673	1160.0757	1162.7422	1216.6043	1231.3374	1252.6542	1265.1821	1274.92	1294.8387	1308.204	1347.3987	1363.7334	1411.4823	1435.8136	1485.8954	1489.4221	1519.0289	1525.9011	2998.9714	3039.3232	3070.743	3077.3056	3082.1084	3089.2331	3091.8087	3097.2937	3129.4322	3180.9067	3486.3175
C1NC11C2CC1OCC2	C1N[C@]21[C@H]1C[C@@H]2OCC1	
InChI=1S/C7H11NO/c1-2-9-6-3-5(1)7(6)4-8-7/h5-6,8H,1-4H2	InChI=1S/C7H11NO/c1-2-9-6-3-5(1)7(6)4-8-7/h5-6,8H,1-4H2/t5-,6+,7-/m1/s1
