16
gdb 88345	4.08745	0.92854	0.84034	5.7345	69.98	-0.2495	-0.0403	0.2092	1349.2344	0.123311	-475.054322	-475.045659	-475.044715	-475.08851	31.34	
O	 0.1189510793	 1.2178642276	-0.419262743	-0.415958
C	 0.0003760866	-0.115086417	-0.0988019248	 0.162258
C	-0.2655054357	-0.596775316	 1.2800961124	-0.322253
C	-1.3776990816	-0.7419811842	 0.233017213	-0.24039
C	-2.5080745658	 0.2093641923	 0.3215422807	 0.49738
O	-2.3745167348	 1.3607108126	 0.6937570091	-0.364606
N	-3.740131865	-0.3159504055	-0.0848120585	-0.371545
C	-4.9719844981	 0.3351329431	-0.1575445431	 0.167285
O	-5.1957759418	 1.4792656725	 0.1180163413	-0.246126
H	-0.5986444211	 1.6907566736	 0.0375663629	 0.310143
H	 0.6329885783	-0.7241109848	-0.7366590981	 0.118428
H	 0.1999237843	-1.5124185848	 1.6273251103	 0.124554
H	-0.4440527271	 0.1565443754	 2.0401709017	 0.145645
H	-1.5834727063	-1.735753809	-0.1502757061	 0.088362
H	-3.7471721281	-1.2870146938	-0.3600809925	 0.258826
H	-5.748258743	-0.3714349423	-0.5167645052	 0.087999
52.0491	78.3816	150.7134	211.7756	242.183	284.227	325.0797	439.4671	468.5546	580.2064	597.6386	617.5799	726.9692	760.1784	792.7058	841.6128	906.7298	937.6149	1012.9773	1028.654	1061.3173	1076.0812	1105.8243	1130.5492	1142.319	1170.9575	1240.9388	1361.7718	1399.3267	1445.2761	1450.917	1483.8287	1509.6566	1759.9668	1863.2283	2923.0419	3134.5929	3158.0808	3170.2571	3231.004	3616.6776	3636.3976
OC1CC1C(=O)NC=O	O[C@H]1C[C@H]1C(=O)NC=O	
InChI=1S/C5H7NO3/c7-2-6-5(9)3-1-4(3)8/h2-4,8H,1H2,(H,6,7,9)	InChI=1S/C5H7NO3/c7-2-6-5(9)3-1-4(3)8/h2-4,8H,1H2,(H,6,7,9)/t3-,4+/m1/s1
