18
gdb 66741	2.54098	2.27355	1.80343	1.9128	80.57	-0.206	-0.0458	0.1602	860.1076	0.148101	-364.685258	-364.678404	-364.67746	-364.715921	28.588	
C	-0.1281300961	 1.6047868194	-0.1247488469	-0.515381
C	 0.0294019574	 0.1172130062	-0.0430311033	 0.348373
C	 1.0362558428	-0.7472871109	-0.8178067048	-0.078909
C	 2.2982789032	-0.7305205698	 0.1151886292	-0.274913
C	 1.6021911615	-0.9208787301	 1.4689417879	-0.114565
C	 0.298502326	-0.6395818908	 1.2806990886	 0.006362
C	-0.7161936625	-1.6322585344	 0.7558957004	-0.091706
C	-0.0941944575	-1.8171344663	-0.6369888658	-0.059565
N	-1.1705712292	-0.7950082793	-0.3759054082	-0.198702
H	 0.8019986902	 2.1067653403	 0.1631575811	 0.124003
H	-0.3908650343	 1.9130780016	-1.1417853755	 0.126518
H	-0.9190399501	 1.9462774064	 0.5507453771	 0.131921
H	 1.214618957	-0.5171890096	-1.8727437472	 0.071703
H	 2.9986755178	-1.5602331434	-0.0358440318	 0.113266
H	 2.869125376	 0.1935004206	-0.0497720928	 0.114426
H	 1.9645287273	-1.6605098397	 2.176290456	 0.10138
H	-1.3443236957	-2.3844558922	 1.2208915185	 0.100267
H	-0.2893076038	-2.6877551482	-1.2545617126	 0.095521
194.1268	214.9907	232.5851	320.8577	384.2545	517.1258	582.7935	624.8027	671.8228	741.021	765.8021	778.3115	813.5857	825.075	845.7264	884.0764	902.5538	916.4562	963.4791	990.6566	996.3057	1023.0379	1049.789	1113.0051	1121.2545	1133.1755	1174.331	1187.8117	1236.0025	1241.4501	1279.8865	1299.8307	1305.1747	1353.5912	1408.5758	1465.1692	1477.7124	1489.7198	1591.0598	3010.9634	3031.6444	3061.9859	3070.9498	3103.0007	3105.5205	3163.9796	3169.2774	3174.448
CC12C3CC=C1C1C3N21	C[C@@]12[C@H]3C[CH][C]1[C@@H]1[C@H]3N21	
InChI=1S/C8H9N/c1-8-4-2-3-5(8)7-6(4)9(7)8/h2,5-7H,3H2,1H3	InChI=1S/C8H9N/c1-8-4-2-3-5(8)7-6(4)9(7)8/h2,5-7H,3H2,1H3/t5-,6+,7-,8-,9?/m0/s1
