18
gdb 82126	3.40163	1.1598	1.00177	3.2808	76.86	-0.24	0.0625	0.3026	1204.9097	0.147135	-401.862859	-401.854333	-401.853389	-401.896365	32.731	
O	-0.0468565535	 1.4127014349	 0.1687766603	-0.427617
C	 0.014345581	 0.0235839495	 0.0334279851	 0.136225
C	-1.3343315128	-0.7111907779	 0.0698516672	-0.084353
N	-2.0932920114	-0.0938131589	-1.0494125087	-0.358682
C	-1.1494426739	-1.2106169239	-1.3183835052	-0.08243
C	 0.245201746	-0.5901322508	-1.4193648762	-0.030287
C	 0.5320623107	 0.36298678	-2.584248176	-0.360706
C	 1.8858223425	 0.9031703266	-2.5521920066	 0.310997
C	 3.0135280546	 1.3174817538	-2.518518036	-0.45408
H	-0.8504949544	 1.6827218968	-0.2969277193	 0.292486
H	 0.7465827197	-0.3462927987	 0.7530209309	 0.092437
H	-1.8514617323	-1.1498229543	 0.9142789027	 0.096886
H	-3.0361425159	-0.477964495	-1.0334612444	 0.236107
H	-1.5040163715	-2.1297756466	-1.7688780492	 0.096703
H	 1.015876134	-1.3639852533	-1.3684023665	 0.08625
H	 0.3767679375	-0.1740836637	-3.5297292043	 0.123623
H	-0.198558113	 1.1782104317	-2.5725883886	 0.135163
H	 4.0020680127	 1.7030293298	-2.4875416653	 0.191278
55.515	96.9675	169.3683	224.6649	270.8415	339.8513	413.6302	466.6631	519.3548	592.5578	613.5415	636.268	639.004	683.3591	781.4467	830.7874	846.5848	900.3988	937.8792	959.8269	962.855	1003.2515	1036.23	1087.5957	1104.4349	1108.9639	1142.6403	1168.3657	1202.2246	1242.4123	1273.7512	1301.1426	1319.6568	1331.7279	1378.3697	1380.7994	1447.5859	1469.9422	2239.6267	3019.9767	3068.5313	3081.7771	3104.0435	3182.8812	3196.9682	3493.8869	3508.4854	3747.9641
OC1C2NC2C1CC#C	O[C@H]1[C@H]2N[C@H]2[C@H]1CC#C	
InChI=1S/C7H9NO/c1-2-3-4-5-6(8-5)7(4)9/h1,4-9H,3H2	InChI=1S/C7H9NO/c1-2-3-4-5-6(8-5)7(4)9/h1,4-9H,3H2/t4-,5+,6+,7-/m1/s1
