18
gdb 15604	3.51824	1.56046	1.28688	3.8055	68.07	-0.2396	-0.0136	0.2259	984.4185	0.153984	-384.961524	-384.953345	-384.952401	-384.995145	29.63	
O	-0.1387238979	 1.4235130142	 0.5164181363	-0.441006
C	 0.0308086061	 0.0867920527	 0.0472303172	 0.103566
C	 0.7174701974	-0.7956511663	 1.0966919533	-0.231767
C	-0.3676704052	-0.9862695937	 2.1724645554	-0.193356
C	-1.710756342	-1.0016589684	 1.3897309814	-0.231599
C	-1.3765154351	-0.5425788704	-0.0608857442	-0.063404
C	-2.4105264522	 0.4023635506	-0.6354752833	 0.155634
O	-2.954928073	 0.2497079799	-1.6995558064	-0.264125
H	 0.7338474486	 1.8034273614	 0.6578252851	 0.286639
H	 0.5472366291	 0.0834404717	-0.922089893	 0.073571
H	 0.9905011601	-1.7536172663	 0.6378200824	 0.103035
H	 1.639149301	-0.3437185189	 1.4799776565	 0.088547
H	-0.2176979059	-1.8946713283	 2.760940752	 0.099569
H	-0.3496430092	-0.1418575683	 2.8658049614	 0.111296
H	-2.1656782372	-1.9950125152	 1.3725644947	 0.111207
H	-2.4398923212	-0.3301629458	 1.8542333661	 0.109809
H	-1.3132888701	-1.4001797487	-0.7362294961	 0.091938
H	-2.6508012733	 1.2680398296	 0.0175104812	 0.090444
36.0253	68.101	171.3882	237.374	285.9202	314.3048	378.9279	449.1726	472.7032	637.9986	733.0992	821.7402	831.4944	863.1599	898.5501	928.6413	980.3424	1012.6056	1030.3898	1035.9662	1085.0473	1115.7098	1186.0621	1201.0122	1207.9858	1253.0551	1294.23	1304.9047	1318.1296	1329.1145	1339.8222	1370.1325	1414.7001	1428.4345	1479.377	1484.7752	1505.9526	1826.8296	2909.8389	3011.1153	3035.0803	3052.0551	3065.7626	3074.2614	3077.066	3093.8743	3116.0906	3822.6314
OC1CCCC1C=O	O[C@H]1CCC[C@H]1C=O	
InChI=1S/C6H10O2/c7-4-5-2-1-3-6(5)8/h4-6,8H,1-3H2	InChI=1S/C6H10O2/c7-4-5-2-1-3-6(5)8/h4-6,8H,1-3H2/t5-,6-/m0/s1
