21
gdb 68362	2.74236	1.50652	1.1697	2.8733	81.8	-0.2339	-0.0141	0.2197	1122.256	0.183218	-387.12279	-387.114634	-387.11369	-387.155524	32.788	
C	-0.0460362499	 1.5565761748	 0.0600108873	-0.474303
C	 0.0603734026	 0.0436659923	-0.0338397424	 0.319483
C	 1.2421145271	-0.5782249812	-0.8408692704	-0.257828
C	 1.2140341291	-1.7492253785	 0.1801618923	-0.027733
C	 0.5969229404	-0.7500553904	 1.1976968171	-0.257836
C	 0.1677083854	-2.783207719	-0.2381484002	-0.31057
C	-1.1721871636	-2.1349943421	-0.6074643108	 0.383655
O	-2.1205900512	-2.7925264363	-0.9625287533	-0.315751
C	-1.249348063	-0.6062161565	-0.5031391412	-0.345601
H	 0.8982488916	 1.9979126713	 0.3960070914	 0.11055
H	-0.2956654403	 1.9980393601	-0.9121483549	 0.115254
H	-0.827434897	 1.8563805563	 0.7684111798	 0.115256
H	 1.0785997625	-0.8105931129	-1.8988263629	 0.091001
H	 2.1499270712	 0.0238120802	-0.7437781378	 0.096987
H	 2.1636559449	-2.2215975694	 0.4408954357	 0.066306
H	 1.3669836164	-0.1847083658	 1.7300387296	 0.096987
H	-0.1306050145	-1.1326301727	 1.9218125771	 0.091012
H	 0.5003636891	-3.3674113534	-1.1051894992	 0.127005
H	-0.0272068929	-3.5080822061	 0.5620213232	 0.127014
H	-2.0764094627	-0.3660849175	 0.1778028839	 0.124559
H	-1.5489450151	-0.2257632532	-1.4884710845	 0.124552
46.3794	211.5536	232.4753	259.8523	362.6515	376.9646	380.1674	430.4466	477.0708	501.8739	565.9803	645.0915	762.8577	771.5102	846.9934	860.8817	886.8447	896.1191	904.8132	948.7452	1010.8166	1029.0039	1044.1486	1052.5414	1078.4011	1114.9716	1170.6371	1192.6013	1208.9547	1218.4255	1245.293	1251.5866	1288.6062	1294.1006	1319.2789	1348.2686	1366.0877	1411.3024	1445.2196	1445.7758	1479.1845	1491.8041	1492.4543	1509.2581	1817.151	3018.4147	3022.8955	3030.2604	3036.395	3042.5304	3059.1561	3067.6219	3078.4395	3083.6039	3091.9389	3096.2508	3100.6106
CC12CC(C1)CC(=O)C2	C[C@@]12C[C@@H](C1)CC(=O)C2	
InChI=1S/C8H12O/c1-8-3-6(4-8)2-7(9)5-8/h6H,2-5H2,1H3	InChI=1S/C8H12O/c1-8-3-6(4-8)2-7(9)5-8/h6H,2-5H2,1H3/t6-,8+
