20
gdb 62879	2.81813	1.5657	1.156	1.3841	76.05	-0.2307	0.0742	0.305	1101.6543	0.168927	-440.207653	-440.198472	-440.197528	-440.240493	36.401	
C	-0.1122193544	 1.6056527438	 0.3775793525	-0.471217
C	-0.0992795732	 0.0928877028	 0.2034683345	 0.464209
O	-1.4003545438	-0.3545571608	-0.1099303161	-0.479491
C	 1.0472611384	-0.546442404	-0.6288040483	-0.162046
N	 1.9715547612	-0.0744141704	 0.4840671887	-0.348795
C	 0.7971649545	-0.7440407438	 1.1897504094	-0.163678
C	 0.868892656	-1.9122302207	 0.1539449938	 0.449731
C	-0.2374168551	-2.9236585659	-0.1081888408	-0.4956
O	 2.0855464561	-2.6350505983	 0.3296768414	-0.479213
H	 0.8806782178	 1.9933230877	 0.5933101957	 0.158213
H	-0.4998920165	 2.0767146237	-0.5317900982	 0.118529
H	-0.7807584151	 1.8794944968	 1.2053232848	 0.100011
H	-2.0214857463	 0.1791212938	 0.3947743012	 0.280761
H	 1.2840081795	-0.3839914917	-1.6835619702	 0.069158
H	 2.7548606477	-0.7270728287	 0.5206137256	 0.231934
H	 0.745028705	-0.811290305	 2.2791518965	 0.071411
H	-0.019097926	-3.4729248575	-1.0345304437	 0.099616
H	-0.2544156644	-3.6531822289	 0.7083135335	 0.119867
H	-1.215527315	-2.4649613406	-0.208500174	 0.157352
H	 2.1508999937	-3.2748368322	-0.3863006062	 0.279247
149.9064	180.6439	216.5432	232.3864	240.4022	272.7805	288.3958	365.6614	401.5569	417.4446	471.4786	474.7608	580.0455	599.4956	660.1766	731.0485	773.8001	793.6208	864.6306	896.7046	940.8536	969.4884	1059.9036	1069.3676	1077.3277	1101.5803	1129.1016	1140.7164	1153.8967	1174.891	1194.0286	1241.7631	1246.2833	1303.6361	1313.2214	1374.9152	1391.002	1403.3948	1412.9987	1486.8983	1488.922	1506.8852	1510.1994	3016.1394	3016.9806	3080.9123	3083.1435	3083.4089	3089.5503	3175.6221	3202.9859	3459.4375	3816.827	3822.7295
CC1(O)C2NC1C2(C)O	C[C@@]1(O)[C@H]2N[C@@H]1[C@]2(C)O	
InChI=1S/C6H11NO2/c1-5(8)3-6(2,9)4(5)7-3/h3-4,7-9H,1-2H3	InChI=1S/C6H11NO2/c1-5(8)3-6(2,9)4(5)7-3/h3-4,7-9H,1-2H3/t3-,4+,5-,6-
