27
gdb 100941	2.13637	0.98778	0.75348	1.3943	92.32	-0.2593	0.0708	0.3301	1679.9298	0.249727	-390.704124	-390.692052	-390.691108	-390.741684	44.055	
C	 0.0880101064	 1.2300097905	-0.8228019765	-0.378404
C	-0.0176314478	-0.2410810416	-0.410103295	-0.200813
C	-1.4676333411	-0.7432063112	-0.3459820158	 0.127531
O	-2.135954224	-0.48373165	-1.5848838308	-0.429683
C	-1.6080903755	-2.2353710026	 0.0431267407	 0.015253
C	-0.8470234299	-2.6184313678	 1.3337066902	-0.201732
C	-1.2740690155	-1.8779100886	 2.6082674964	-0.379198
C	-3.0977935735	-2.637669475	 0.0808699599	-0.174954
C	-3.3533549796	-4.1465750343	 0.1495158746	-0.39397
H	 1.1333843802	 1.5441698547	-0.8995883024	 0.105938
H	-0.3983177978	 1.3998096241	-1.7861751921	 0.125652
H	-0.4024863399	 1.8784439378	-0.0881211481	 0.11275
H	 0.5407213458	-0.8707418005	-1.1195116839	 0.081957
H	 0.4637658518	-0.3813787633	 0.5633277756	 0.103132
H	-2.0194194521	-0.131117339	 0.3794080194	 0.083686
H	-1.6920231463	-1.0048181374	-2.2641922426	 0.273049
H	-1.1373416294	-2.8070963871	-0.7752276515	 0.049193
H	-0.9675978891	-3.69560391	 1.4946426915	 0.096103
H	 0.2269186357	-2.4703482902	 1.1766031112	 0.095871
H	-1.1071693165	-0.7984110785	 2.5330681052	 0.118167
H	-2.3332609655	-2.0318683529	 2.8360155798	 0.120706
H	-0.7001379862	-2.2367502676	 3.4684278036	 0.112248
H	-3.5876309795	-2.1440157454	 0.930232622	 0.091859
H	-3.5742421218	-2.2296839489	-0.8147033731	 0.11068
H	-2.9794502605	-4.5927007751	 1.0766741722	 0.114936
H	-4.4255578216	-4.3607460288	 0.0959319273	 0.111319
H	-2.870986247	-4.6688728112	-0.6851272076	 0.108725
55.8772	69.8679	80.9922	126.1177	169.5982	193.5326	217.3195	225.2003	277.4206	288.8092	300.5602	328.7421	339.5592	409.8417	456.5132	530.8706	566.8029	753.7761	774.9285	784.6289	850.8198	872.8903	915.4833	978.8165	992.6969	1017.0486	1025.4262	1048.5658	1056.4385	1097.6053	1102.3486	1123.5326	1170.7527	1181.93	1235.0612	1268.7355	1280.9375	1303.0641	1335.0341	1345.5035	1357.7719	1379.6561	1388.2813	1394.4669	1404.5459	1410.6524	1415.3944	1421.5489	1479.8991	1490.6522	1492.0973	1494.3665	1501.1095	1503.5788	1509.5649	1510.302	1517.8944	2951.776	2997.0244	3025.9103	3028.7875	3030.9333	3036.9821	3039.2535	3041.1388	3062.3013	3072.9264	3081.7081	3095.1417	3099.4778	3100.8691	3105.4456	3108.5818	3127.228	3786.6828
CCC(O)C(CC)CC	CC[C@@H](O)C(CC)CC	
InChI=1S/C8H18O/c1-4-7(5-2)8(9)6-3/h7-9H,4-6H2,1-3H3	InChI=1S/C8H18O/c1-4-7(5-2)8(9)6-3/h7-9H,4-6H2,1-3H3/t8-/m1/s1
