17
gdb 39828	2.86498	1.61618	1.54714	1.5284	67.23	-0.2456	0.0748	0.3204	936.6639	0.136733	-458.904709	-458.897689	-458.896745	-458.936001	27.793	
C	-0.0648174775	 1.5291946705	 0.0112207884	-0.283364
O	 1.1268977645	 0.7135668156	-0.0051517785	-0.293943
C	-0.1264074534	 0.0763671014	 0.0035318221	 0.521504
C	-0.5162946928	-0.9988077571	 1.0173081127	-0.050651
C	-2.0279690904	-0.9848456846	 1.2204125368	-0.071458
O	-2.6803069167	-0.5598622431	 0.0250103856	-0.274276
C	-2.0516477683	-0.9710933054	-1.1877627428	-0.071458
C	-0.5362736804	-0.9872035814	-1.014594853	-0.05065
O	-0.2462081188	-2.0066415728	-0.0071863564	-0.304846
H	-0.2397514103	 2.0770757687	 0.9356848221	 0.121941
H	-0.2578308568	 2.0875737882	-0.9033107777	 0.121941
H	 0.0712720021	-1.1376950404	 1.9276919733	 0.09879
H	-2.3506496315	-1.9946334702	 1.5143293996	 0.107716
H	-2.3297606681	-0.2763727658	 1.9995890286	 0.111124
H	-2.3801606947	-1.9774938719	-1.4867921042	 0.107716
H	-2.3686205564	-0.2538012835	-1.9527129961	 0.111124
H	 0.0332616894	-1.1156195182	-1.9378835107	 0.09879
134.6707	224.0325	226.4139	287.8399	388.5456	410.3615	448.7457	576.2923	596.6259	721.3168	849.3814	858.3467	861.1645	877.6831	906.524	942.4666	950.1527	1014.7521	1017.4996	1065.2794	1108.1668	1112.585	1138.3164	1157.0463	1171.6396	1194.4228	1233.8545	1264.3322	1279.5405	1307.4783	1322.2167	1365.3582	1403.197	1468.4273	1483.9068	1495.8502	1555.5859	2996.4051	3002.5961	3070.0868	3071.751	3088.0158	3096.9721	3098.9097	3174.3019
C1OC11C2COCC1O2	C1O[C@]21[C@H]1COC[C@@H]2O1	
InChI=1S/C6H8O3/c1-4-6(3-8-6)5(9-4)2-7-1/h4-5H,1-3H2	InChI=1S/C6H8O3/c1-4-6(3-8-6)5(9-4)2-7-1/h4-5H,1-3H2/t4-,5+,6-
