20
gdb 102839	2.03316	1.20323	0.83774	3.5995	81.81	-0.2501	0.0316	0.2816	1417.6839	0.168224	-403.148004	-403.137328	-403.136384	-403.18485	37.625	
C	-0.2019418307	 1.482380236	-0.3352212135	-0.389396
C	-0.1054894282	-0.0293728119	-0.1213880099	-0.173063
C	 0.6892723718	-0.4277517897	 1.1342611144	 0.03403
C	 0.6463925819	-1.9612654154	 1.3443123222	-0.383534
C	 1.3306468264	-2.4093083999	 2.5494253333	 0.301257
C	 1.8994102237	-2.7618822016	 3.5474049595	-0.428766
N	 2.0662157016	 0.0434111927	 1.0822422227	-0.266311
C	 2.5684860941	 0.9902977551	 1.9222975893	 0.161437
O	 1.9306187013	 1.6087728204	 2.7466665388	-0.323571
H	 0.7893402448	 1.9280510136	-0.4561694173	 0.123868
H	-0.7861023184	 1.7113142762	-1.2314624458	 0.112728
H	-0.6820115053	 1.9726284959	 0.5173864947	 0.132126
H	-1.1122623709	-0.4567101144	-0.0359712028	 0.101693
H	 0.3535141998	-0.503703892	-1.0004962224	 0.088692
H	 0.2551782506	 0.0626929304	 2.0099090987	 0.134075
H	-0.4036674259	-2.2762861431	 1.3752975522	 0.137934
H	 1.0816839981	-2.4566201091	 0.4643369779	 0.122147
H	 2.3948162427	-3.0734645008	 4.4333456528	 0.197897
H	 2.7114287384	-0.424039127	 0.4635529814	 0.243767
H	 3.6533820641	 1.1459425947	 1.7569198239	 0.072994
33.2372	63.621	99.3876	112.7158	176.412	202.5397	234.5907	275.2774	343.1205	344.0798	414.0121	435.1516	519.9403	574.265	624.5909	641.7994	749.1765	793.8609	859.0836	913.8991	957.4261	990.6689	1027.7601	1039.0185	1080.944	1130.8455	1141.6898	1194.4493	1240.9583	1292.0545	1300.8999	1354.2446	1371.563	1388.509	1416.5276	1432.2173	1465.4809	1480.1882	1497.4362	1506.4589	1530.7288	1806.5825	2241.8899	2932.5987	3004.4169	3009.7942	3043.252	3047.8054	3054.6207	3094.3249	3111.9077	3118.3225	3506.9169	3618.4157
CCC(CC#C)NC=O	CC[C@@H](CC#C)NC=O	
InChI=1S/C7H11NO/c1-3-5-7(4-2)8-6-9/h1,6-7H,4-5H2,2H3,(H,8,9)	InChI=1S/C7H11NO/c1-3-5-7(4-2)8-6-9/h1,6-7H,4-5H2,2H3,(H,8,9)/t7-/m0/s1
