16
gdb 96646	2.97419	1.09838	0.85288	6.7648	71.14	-0.2512	-0.0374	0.2138	1323.905	0.121994	-471.240205	-471.230432	-471.229487	-471.27538	33.764	
C	-0.0092672554	 1.4057793926	-0.2881755546	-0.342289
N	-0.0742757995	-0.0389345673	-0.3917867661	-0.265641
C	-1.1113774222	-0.6380572029	 0.0297218097	 0.391054
N	-2.2956666918	-0.0839326455	 0.4798317289	-0.554371
N	-1.1259355323	-2.0663903819	 0.0323680787	-0.180547
C	-2.2715848996	-2.7488404288	-0.4352197994	 0.149889
O	-2.4305856238	-3.9356045275	-0.420775531	-0.255321
C	 0.0872934156	-2.7254441139	 0.3733649811	 0.173353
O	 0.2695035451	-3.9059054273	 0.3137912308	-0.257966
H	 1.0277027542	 1.7278337362	-0.4086288199	 0.139179
H	-0.5957525171	 1.8916583547	-1.0808462621	 0.129539
H	-0.367889389	 1.7944562569	 0.679899307	 0.102607
H	-2.3049569573	 0.9187418003	 0.5819988119	 0.267292
H	-2.7904907162	-0.5775513018	 1.2073263993	 0.268637
H	-3.0172133645	-2.0338063288	-0.825033092	 0.113143
H	 0.8349940839	-1.987102325	 0.7004488077	 0.12144
53.1627	110.9467	128.0965	151.7551	166.9556	238.5586	267.2607	303.632	335.8331	422.6265	449.5368	472.8649	517.6124	539.5796	715.6062	753.9694	929.3328	967.0924	1021.6129	1040.3667	1112.3837	1117.6025	1132.3847	1185.0553	1267.8773	1368.2338	1430.1273	1438.1977	1462.1547	1489.6642	1509.7562	1637.0018	1750.509	1804.1997	1880.2331	2960.7786	2982.2198	3027.3738	3029.1993	3105.8783	3580.8013	3690.9932
CN=C(N)N(C=O)C=O	CN=C(N)N(C=O)C=O	
InChI=1S/C4H7N3O2/c1-6-4(5)7(2-8)3-9/h2-3H,1H3,(H2,5,6)	InChI=1S/C4H7N3O2/c1-6-4(5)7(2-8)3-9/h2-3H,1H3,(H2,5,6)
