13
gdb 125345	5.97233	1.05742	0.9034	6.1985	75.2	-0.2622	-0.0959	0.1663	1204.3021	0.089542	-411.809926	-411.80225	-411.801306	-411.842929	26.934	
C	-0.0232688525	 1.4980970826	 0.0352605276	-0.488698
C	-0.0003688745	 0.0002012921	-0.0106035569	 0.354918
C	 0.070452509	-0.7205479332	-1.2152618973	-0.050086
N	 0.0896282975	-2.0401741727	-1.2310215623	-0.255395
C	 0.0363113172	-2.6092604292	-0.0169289005	 0.276284
N	-0.0319019048	-1.9807676849	 1.1581777777	-0.208942
N	-0.0501971262	-0.6540533732	 1.1539569412	-0.228448
C	 0.0537247774	-4.0505164613	 0.0367759377	 0.303753
N	 0.0681080252	-5.2053193265	 0.0716387934	-0.311624
H	 0.8792662607	 1.9174633404	-0.4221184028	 0.151524
H	-0.881718063	 1.8936737411	-0.5180395888	 0.151368
H	-0.084016652	 1.8317384294	 1.0717756899	 0.163626
H	 0.111662856	-0.2098988946	-2.1751056688	 0.14172
55.2717	87.3164	161.0439	251.3517	340.66	387.8703	432.8253	462.1934	567.5605	597.2114	670.857	713.8291	837.5511	865.3066	966.3705	996.6405	1069.1353	1071.7347	1131.741	1244.2014	1305.815	1343.158	1408.807	1426.9783	1468.8719	1481.4957	1548.0004	1594.4305	2365.8416	3042.2051	3098.928	3152.5033	3156.745
CC1=CN=C(N=N1)C#N	Cc1cnc(nn1)C#N	
InChI=1S/C5H4N4/c1-4-3-7-5(2-6)9-8-4/h3H,1H3	InChI=1S/C5H4N4/c1-4-3-7-5(2-6)9-8-4/h3H,1H3
