21
gdb 119342	4.07789	1.0019	0.97181	1.237	83.68	-0.2332	0.0852	0.3185	1339.9474	0.182922	-387.025976	-387.017436	-387.016492	-387.059862	32.142	
C	-0.8096826486	 1.4904010313	-0.4997983416	-0.216524
O	-0.9140833145	 0.0945024249	-0.6388569317	-0.235222
C	-0.5832024291	-0.6016112221	 0.5462826093	-0.246112
C	-0.7280251708	-2.0607548217	 0.2829272959	 0.38465
C	-0.3124177329	-2.9307362668	-0.8764564979	-0.104667
C	 0.3994806648	-3.9187973783	 0.0441500818	-0.226269
C	-0.5138799538	-3.3620542375	 1.1718641589	-0.131274
C	-1.942093264	-3.8157454213	 0.7590366682	-0.22627
C	-1.7877952922	-2.8657731095	-0.4259791894	-0.104687
H	-1.0830396224	 1.936203203	-1.4593449962	 0.126488
H	-1.488085798	 1.8767219656	 0.2777889191	 0.102829
H	 0.2157236406	 1.8011451825	-0.2426985895	 0.10283
H	 0.4497807275	-0.3591233942	 0.8564626092	 0.085419
H	-1.2443471824	-0.2842804263	 1.3734745943	 0.085424
H	-0.0272391623	-2.6020980124	-1.8671308052	 0.088945
H	 0.3350182445	-4.9928367586	-0.168545026	 0.084537
H	 1.4462208652	-3.6384171917	 0.1939760285	 0.09504
H	-0.1972232571	-3.3888492296	 2.2131175921	 0.066342
H	-2.0936746367	-4.8859389642	 0.5728592951	 0.084539
H	-2.7008560327	-3.4560073722	 1.4601623788	 0.095041
H	-2.549353825	-2.491011421	-1.0970600036	 0.08894
61.7467	78.9268	120.4035	206.4017	242.3553	325.3371	351.1885	448.0115	468.292	698.3473	710.732	734.0657	819.5456	868.7101	878.4592	913.9599	954.3059	963.1946	982.0391	992.4839	1015.4995	1020.0163	1079.7532	1084.1395	1104.3289	1127.8898	1131.05	1157.6339	1181.7514	1185.108	1219.772	1223.1319	1229.8044	1247.2682	1260.0761	1286.1913	1315.8844	1409.6964	1469.3653	1481.0284	1483.4603	1491.5193	1504.5348	1509.1162	1528.0792	2927.1053	2945.4695	2967.6273	3009.5912	3022.9654	3029.6428	3087.3661	3089.5695	3112.5848	3128.7443	3199.5617	3208.7765
COCC12C3CC1CC23	COC[C@@]12[C@H]3C[C@@H]1C[C@@H]23	
InChI=1S/C8H12O/c1-9-4-8-5-2-6(8)7(8)3-5/h5-7H,2-4H2,1H3	InChI=1S/C8H12O/c1-9-4-8-5-2-6(8)7(8)3-5/h5-7H,2-4H2,1H3/t5-,6+,7-,8+
