15
gdb 72008	2.76052	1.66686	1.21969	4.0473	67.58	-0.2331	-0.0279	0.2052	991.6067	0.110945	-457.692313	-457.684859	-457.683915	-457.724183	28.739	
O	-0.1081644207	 1.3496563347	-0.0283306461	-0.44327
C	 0.0358445386	-0.0118633834	-0.0367821189	 0.287662
C	 0.969679119	-0.8924458719	-0.8730390956	-0.301932
C	 0.0627032455	-2.0495657217	-0.377863377	 0.061587
O	 0.3739648184	-2.1659077582	 1.0389908992	-0.306043
C	-0.310558909	-0.9383372649	 1.2099141288	 0.316102
C	-0.7004911204	-0.3957981536	 2.5088736369	 0.03336
O	-0.4221450123	-0.8876641576	 3.5763772829	-0.269015
C	-1.0808926481	-1.0043449146	-0.095071249	-0.227922
H	 0.6515972366	 1.7433308666	 0.4168346148	 0.300734
H	 0.8333095241	-0.6926764666	-1.9385909516	 0.121126
H	 2.0289817002	-0.9594136682	-0.6108725613	 0.112882
H	-0.0215875908	-3.0027182526	-0.8922832869	 0.105542
H	-1.285293033	 0.5469701762	 2.4224415216	 0.08507
H	-2.1380424281	-0.9414355641	-0.3129911478	 0.124117
108.5165	160.856	240.6627	283.6376	349.8711	385.436	436.8135	483.3954	546.8917	626.1558	697.7543	721.6334	805.8788	824.4283	903.0103	928.1375	936.6365	986.0902	1011.9637	1034.9375	1044.2309	1111.2264	1122.8612	1130.718	1235.8835	1237.303	1278.3033	1286.3097	1371.6438	1426.0063	1445.476	1490.133	1803.6072	2885.001	3060.4625	3127.6447	3164.778	3215.7416	3789.2204
OC12CC3OC1(C=O)C23	O[C@@]12C[C@H]3O[C@]1(C=O)[C@@H]23	
InChI=1S/C6H6O3/c7-2-6-4-3(9-6)1-5(4,6)8/h2-4,8H,1H2	InChI=1S/C6H6O3/c7-2-6-4-3(9-6)1-5(4,6)8/h2-4,8H,1H2/t3-,4-,5-,6-/m1/s1
