16
gdb 80349	2.22316	1.55003	1.38293	2.9159	68.59	-0.267	0.0215	0.2885	1013.5063	0.123483	-437.859042	-437.850561	-437.849617	-437.89188	31.828	
O	 0.0694453367	 1.3743973559	 0.3187135777	-0.413513
C	-0.0531015693	 0.0004862634	 0.1147666437	 0.024335
C	-0.4576295414	-0.8812372128	 1.2640811838	-0.145223
C	-1.4895470845	-0.1422841565	 2.1240436186	-0.245118
C	-2.4503882455	-0.0599524063	 0.8817786856	-0.205361
C	-2.9274245023	 1.2382328126	 0.4218999948	 0.255835
N	-3.2867875021	 2.2590852585	 0.012659585	-0.34274
C	-1.3589981221	-0.7417032502	 0.0299601016	 0.317272
O	-1.6400139728	-1.6861388809	-0.9319793164	-0.449075
H	-0.3807276065	 1.8475205364	-0.3895002523	 0.302153
H	 0.7110177472	-0.4450090619	-0.5238863369	 0.102639
H	 0.1458524137	-1.7200797372	 1.5853877075	 0.108738
H	-1.9168533283	-0.7498456295	 2.9217551302	 0.120036
H	-1.1605086448	 0.8187103714	 2.5187974457	 0.139111
H	-3.3004432607	-0.7345966848	 1.0061839928	 0.135516
H	-1.6927391073	-1.254230378	-1.7925552213	 0.295395
106.0559	128.8725	206.1388	253.4264	270.0397	282.7082	316.2333	352.8266	467.171	510.1148	555.2207	595.8248	659.5404	773.3895	816.3404	820.6768	912.788	955.1732	1011.1116	1031.1024	1054.9243	1079.6651	1128.7772	1139.5138	1180.2738	1223.3193	1239.9988	1283.8787	1309.2242	1316.9131	1331.9532	1346.6249	1459.7306	1495.6003	2344.5842	3089.9078	3095.3698	3102.859	3154.5435	3204.0295	3786.5031	3809.6621
OC1C2CC(C#N)C12O	O[C@H]1[C@H]2C[C@@H](C#N)[C@@]12O	
InChI=1S/C6H7NO2/c7-2-3-1-4-5(8)6(3,4)9/h3-5,8-9H,1H2	InChI=1S/C6H7NO2/c7-2-3-1-4-5(8)6(3,4)9/h3-5,8-9H,1H2/t3-,4+,5-,6-/m0/s1
