17
gdb 97352	6.36321	0.57946	0.55402	9.5406	82.41	-0.216	-0.0215	0.1945	1919.8702	0.13433	-455.166315	-455.156512	-455.155568	-455.202044	34.267	
N	 0.0289421872	 1.3184469972	-0.3729649122	-0.495347
C	 0.088054219	-0.0293657706	-0.2029758087	 0.118602
N	 1.0553044131	-0.6159111501	 0.3815980622	-0.256279
H	 2.9245209894	-0.7980520528	 0.4920566465	 0.299188
C	 1.0596762345	-2.0640215788	 0.4559730335	-0.252767
C	 2.4718387939	-2.5661603963	 0.1812201118	 0.384887
O	 3.4174364469	-1.6349282989	 0.3552825585	-0.393186
C	 2.7455235763	-3.8417352604	-0.1659718888	-0.284236
H	 1.9215325838	-4.5375467465	-0.2838166681	 0.087426
C	 4.0857301242	-4.3547200604	-0.3931638511	 0.130687
O	 4.3376313266	-5.505167713	-0.7005996083	-0.309607
H	 0.6911740612	 1.8882025902	 0.1296211642	 0.267048
H	-0.8446809331	 1.7459250799	-0.6246420264	 0.2695
H	-0.7619515596	-0.5666648816	-0.6419104995	 0.107441
H	 0.7895077367	-2.3714294919	 1.477401398	 0.138739
H	 0.3488207754	-2.5494747701	-0.2266262922	 0.116585
H	 4.8987855447	-3.6086578259	-0.2691939296	 0.071318
35.9693	87.171	122.8461	152.6956	197.376	216.6176	287.7125	300.117	345.8336	373.4269	481.9191	559.0634	569.1699	594.6949	718.3748	739.6533	845.1804	931.8869	970.6919	1007.543	1036.5063	1038.3037	1112.7814	1163.7594	1185.2548	1231.7165	1297.905	1341.9011	1359.8342	1417.7899	1433.0548	1447.257	1475.3868	1631.6076	1717.2501	1764.9944	1773.3765	2906.5729	2988.5021	3030.2598	3050.0501	3188.4039	3496.5813	3603.3066	3733.5631
NC=[NH+]CC(=O)[CH-]C=O	NC=NCC(=CC=O)O	
InChI=1S/C5H7N2O2/c6-4-7-3-5(9)1-2-8/h1-2,4H,3H2,(H2,6,7)/q-1/p+1	InChI=1S/C5H8N2O2/c6-4-7-3-5(9)1-2-8/h1-2,4,9H,3H2,(H2,6,7)
