19
gdb 70541	2.56834	1.57148	1.19291	4.3218	75.33	-0.2524	0.0168	0.2692	1092.5956	0.159737	-423.06544	-423.057304	-423.056359	-423.098019	31.735	
C	 0.0715961496	 1.351869407	-0.224097483	-0.445595
C	-0.0688242069	-0.1105780273	 0.1123876327	 0.417128
C	-0.8528992788	-0.57500062	 1.3062453508	-0.337131
C	 0.6539151974	-0.7509551038	 1.2666655197	-0.079534
C	 1.284880357	-2.1060865891	 0.9855227773	-0.247419
C	 1.8212574383	-2.1038164855	-0.4539997956	-0.334691
C	 0.7226912007	-1.7932163446	-1.4560807205	 0.401951
O	 0.6245621058	-2.3088426381	-2.5346422158	-0.323173
O	-0.227306189	-0.8972949239	-1.0639319109	-0.262566
H	 0.9753087502	 1.5342176832	-0.8154569248	 0.124079
H	-0.7893555777	 1.6955020173	-0.8057969099	 0.137205
H	 0.1322272159	 1.9509678011	 0.688838595	 0.119446
H	-1.2730019387	 0.1743480578	 1.9681757585	 0.116837
H	-1.4613075801	-1.4640495582	 1.1776138547	 0.125981
H	 1.2390372853	-0.0777802429	 1.8861049117	 0.094876
H	 2.0929514946	-2.3129084744	 1.6926488056	 0.111971
H	 0.5530209656	-2.9123704342	 1.1029852302	 0.117786
H	 2.6035681522	-1.3403948875	-0.5531029624	 0.129729
H	 2.2586238285	-3.0586963771	-0.7508662732	 0.133121
87.5232	147.328	203.953	225.0373	310.6808	390.9261	429.5816	437.114	464.8141	518.5914	586.7139	660.2191	741.6459	785.6853	819.5586	884.5778	917.207	943.4007	951.9123	989.1429	1028.0904	1055.285	1061.4207	1114.4973	1119.4697	1139.292	1179.6642	1213.1826	1263.8818	1265.7673	1305.3882	1339.5889	1362.7375	1406.1928	1425.5256	1469.0515	1480.614	1481.6151	1496.6852	1504.6264	1852.165	3035.5548	3036.2535	3048.2387	3090.0721	3102.7237	3117.4139	3120.7004	3131.857	3150.8606	3222.2632
CC12CC1CCC(=O)O2	C[C@]12C[C@H]1CCC(=O)O2	
InChI=1S/C7H10O2/c1-7-4-5(7)2-3-6(8)9-7/h5H,2-4H2,1H3	InChI=1S/C7H10O2/c1-7-4-5(7)2-3-6(8)9-7/h5H,2-4H2,1H3/t5-,7+/m1/s1
