15
gdb 133501	2.38772	1.37935	1.08188	2.3447	54.39	-0.2613	0.0141	0.2754	1093.7121	0.107948	-585.497917	-585.488714	-585.48777	-585.532711	32.978	
C	-0.4783673044	 1.8179553127	 0.2334389274	-0.398593
C	 0.1501095089	 0.4303937793	 0.0825986264	-0.246233
C	 1.0224590232	 0.090610682	 1.3169614957	 0.392532
N	 1.6989224166	-1.0907576541	 1.2492216216	-0.521823
O	 1.135366875	 0.8637358708	 2.2445532147	-0.347187
C	-0.9212293828	-0.6272494803	-0.1650129452	 0.286772
F	-1.7299528074	-0.2816443984	-1.1746671864	-0.070115
F	-0.3819130603	-1.8250840307	-0.5017172807	-0.095082
F	-1.6838728803	-0.8307764565	 0.915836178	-0.069961
H	 0.3043562113	 2.5569189312	 0.4057474885	 0.141996
H	-1.0372627225	 2.0850141808	-0.6651942496	 0.124686
H	-1.149711629	 1.8429865259	 1.0940567432	 0.147495
H	 0.7964009217	 0.403152517	-0.8027771503	 0.125816
H	 1.4500627266	-1.7933864481	 0.5743297623	 0.265407
H	 2.2003445035	-1.3752600618	 2.0757243142	 0.264292
43.6232	65.3879	174.6266	193.3873	236.8386	288.9346	344.702	361.8728	392.1894	484.377	493.8267	538.0686	576.7408	619.4009	636.8356	736.6698	816.1043	849.3582	1013.0512	1065.5551	1093.6656	1123.7943	1161.1992	1197.6713	1269.0529	1292.2731	1352.0404	1375.6089	1414.4045	1487.0876	1495.8074	1627.7551	1808.0997	3051.9035	3070.1089	3147.3382	3156.3547	3597.1871	3730.7794
CC(C(N)=O)C(F)(F)F	C[C@@H](C(=O)N)C(F)(F)F	
InChI=1S/C4H6F3NO/c1-2(3(8)9)4(5,6)7/h2H,1H3,(H2,8,9)	InChI=1S/C4H6F3NO/c1-2(3(8)9)4(5,6)7/h2H,1H3,(H2,8,9)/t2-/m0/s1
