25
gdb 119079	2.43441	1.03398	0.8638	1.4306	88.86	-0.2397	0.0811	0.3209	1526.9284	0.227669	-389.489332	-389.478637	-389.477693	-389.525544	39.245	
C	 0.0453623657	 1.6206566753	 0.0779210025	-0.382708
C	 0.0292815513	 0.0897483494	 0.0395193624	-0.1721
C	 0.4694744096	-0.4689432379	-1.3198082036	-0.221326
C	 0.6845816886	-1.9868286417	-1.3542063304	 0.437861
C	-0.6087974453	-2.7751945179	-1.1241670584	-0.226142
C	-0.4328257662	-4.2913127968	-1.0030876975	-0.399752
C	 1.5891136368	-2.4532582254	-2.5288656569	-0.341601
C	 2.6282160846	-2.7539974999	-1.4345564632	-0.0621
O	 1.7156574278	-2.3701835942	-0.3876976907	-0.322894
H	 1.049606355	 2.0109701079	-0.1218476561	 0.113134
H	-0.6286621955	 2.0463411929	-0.6743673264	 0.110184
H	-0.2691878868	 1.9973936284	 1.0562827972	 0.110488
H	 0.6994293183	-0.3102786493	 0.8086104232	 0.118151
H	-0.9781960803	-0.2636369145	 0.2878302611	 0.0952
H	-0.256858433	-0.1965841857	-2.0987553205	 0.088837
H	 1.4168258677	 0.0090227479	-1.6016007236	 0.088109
H	-1.0788802934	-2.4050311756	-0.2062292336	 0.106878
H	-1.3001828297	-2.5348037034	-1.9430508241	 0.094353
H	 0.2755462328	-4.528953341	-0.2052708127	 0.135027
H	-1.3875930486	-4.7702494476	-0.7661750595	 0.110084
H	-0.0649013035	-4.7429580899	-1.9301114946	 0.110801
H	 1.2311896327	-3.3249643191	-3.0779455404	 0.106943
H	 1.8565153302	-1.6697720751	-3.2402825966	 0.103505
H	 2.9380785506	-3.8017419	-1.3412154734	 0.1002
H	 3.5253113005	-2.122118207	-1.447711074	 0.098868
69.7356	75.738	85.9322	116.1755	162.3302	233.4517	249.2634	258.1904	313.3748	323.9069	368.1771	427.9069	547.3144	669.4106	743.703	768.8079	790.3032	843.6593	862.4338	899.5045	932.5271	950.094	974.8987	997.1875	1027.883	1048.6126	1056.4289	1072.5322	1108.5514	1164.3125	1172.1455	1195.9039	1212.5701	1235.3955	1260.9668	1285.8169	1307.3441	1321.9593	1343.1209	1356.9229	1379.1294	1398.7501	1407.9325	1411.1923	1470.3505	1476.7398	1486.667	1493.9624	1499.7174	1506.0026	1509.9013	1511.6341	1532.8745	3005.0641	3012.7287	3022.6918	3026.7182	3034.1964	3041.0495	3042.9982	3051.6419	3066.6141	3072.9576	3080.0974	3097.9746	3100.31	3103.5643	3123.3194	3134.0136
CCCC1(CC)CCO1	CCC[C@@]1(CC)CCO1	
InChI=1S/C8H16O/c1-3-5-8(4-2)6-7-9-8/h3-7H2,1-2H3	InChI=1S/C8H16O/c1-3-5-8(4-2)6-7-9-8/h3-7H2,1-2H3/t8-/m0/s1
