14
gdb 25247	3.36141	1.68959	1.13243	3.9909	72.24	-0.2329	-0.0295	0.2034	990.8941	0.103988	-436.717664	-436.711221	-436.710277	-436.748567	25.085	
N	-0.0905770698	 1.3111311605	 0.0111819239	-0.556525
C	-0.0722637942	 0.0479345776	 0.0038473071	 0.346527
O	 1.0698554008	-0.7400242212	-0.0066328541	-0.272057
C	 0.755691626	-2.155872674	-0.0130976768	-0.200154
C	-0.737566948	-2.186428816	-0.0054720711	 0.22034
C	-1.1667698793	-0.9025608179	 0.0041229468	 0.234759
O	-2.5110085906	-0.8131039252	 0.0116777698	-0.18351
C	-2.9478968341	-2.1074413228	 0.006538325	 0.002272
C	-1.9100581769	-2.9985673621	-0.0039795521	-0.369705
H	 0.8600379689	 1.683077838	 0.008347466	 0.227328
H	 1.2067134954	-2.6033031095	-0.9064012904	 0.135974
H	 1.2159921412	-2.6134759969	 0.8702644588	 0.135974
H	-4.0185420215	-2.2313280258	 0.0114225908	 0.150364
H	-1.9986126579	-4.0733018046	-0.0096670638	 0.128412
154.4885	204.7482	256.1176	295.828	533.8875	599.5444	609.0275	620.5632	642.3534	741.8324	769.3094	780.2224	831.6007	860.4447	923.1826	957.0752	1024.4264	1027.7181	1058.9333	1092.9803	1163.9232	1191.4326	1226.241	1289.6267	1331.6893	1424.7359	1478.4444	1504.2036	1507.7921	1630.6606	1782.3452	3031.9838	3066.2621	3259.6058	3285.4199	3486.7765
N=C1OCC2=C1OC=C2	[NH][C]1OCc2c1occ2	
InChI=1S/C6H5NO2/c7-6-5-4(3-9-6)1-2-8-5/h1-2,7H,3H2	InChI=1S/C6H5NO2/c7-6-5-4(3-9-6)1-2-8-5/h1-2,7H,3H2
