15
gdb 128075	4.49973	1.04488	0.85254	1.0862	69.53	-0.2554	-0.0418	0.2136	1289.7149	0.113342	-453.972202	-453.963916	-453.962972	-454.006148	28.933	
C	 0.0461687849	 1.430659269	 0.0504582367	-0.336908
N	-0.0830573067	-0.0111728509	 0.0974605127	-0.324495
C	-1.2658735737	-0.6462698658	-0.0931281522	 0.344129
O	-2.3309235049	-0.096518334	-0.3201754855	-0.380505
C	-1.1857611398	-2.13891055	-0.004360973	 0.301344
N	-0.0568884884	-2.7654043641	 0.2383235797	-0.210796
O	-0.3658024258	-4.1120001156	 0.24685744	-0.165229
C	-1.6828165855	-4.2554459246	 0.0069082406	 0.081753
C	-2.2692172591	-3.0457688387	-0.1628119666	-0.320674
H	 0.7352446384	 1.7416396747	-0.7425150535	 0.130678
H	-0.9422599069	 1.8433656582	-0.1542294701	 0.171241
H	 0.4092775497	 1.8274376854	 1.0049579854	 0.130666
H	 0.7269601	-0.5847101967	 0.2777755096	 0.268619
H	-2.0436936137	-5.2717206115	-0.0105994186	 0.160423
H	-3.2967264585	-2.8021834454	-0.3675813553	 0.149755
64.7783	84.1518	112.4826	153.3383	238.1025	311.5033	389.0633	493.3025	540.2917	612.0163	653.6534	793.4887	810.5769	828.5426	888.1426	923.5266	967.5262	982.2414	1036.3018	1072.2785	1146.7611	1153.6292	1178.2616	1223.1292	1314.8038	1441.1995	1458.7881	1462.8617	1498.8543	1499.6122	1584.4991	1591.7589	1777.1137	3029.2413	3081.4679	3154.1805	3271.1758	3305.6385	3623.1318
CNC(=O)C1=NOC=C1	CNC(=O)c1nocc1	
InChI=1S/C5H6N2O2/c1-6-5(8)4-2-3-9-7-4/h2-3H,1H3,(H,6,8)	InChI=1S/C5H6N2O2/c1-6-5(8)4-2-3-9-7-4/h2-3H,1H3,(H,6,8)
