27
gdb 118840	2.46056	0.82681	0.69826	0.0842	97.48	-0.2536	0.0865	0.3402	1821.6858	0.250297	-353.562456	-353.550939	-353.549995	-353.599562	42.465	
C	 0.1892127212	 1.5883495651	-0.1200616511	-0.380142
C	 0.292107856	 0.0604801147	-0.1263146487	-0.16388
C	 0.4020810822	-0.5312669592	 1.2873838867	-0.247597
C	 0.582583427	-2.0437124832	 1.3256875471	 0.344044
C	-0.5874324258	-2.8372269514	 0.766662683	-0.459699
C	 1.9694075183	-2.6097644793	 1.0970566334	-0.327862
C	 1.3384504173	-2.6925069349	 2.470287864	-0.028959
C	 1.9253741197	-1.9536097055	 3.6573649188	-0.204349
C	 3.0128703348	-2.7703297544	 4.3666810716	-0.372086
H	 1.0667152582	 2.043068955	 0.3536632528	 0.111406
H	 0.1146173228	 1.9889648211	-1.1359791665	 0.10927
H	-0.69400969	 1.9241413177	 0.4351457205	 0.112411
H	-0.5817860672	-0.3569209743	-0.6401220783	 0.096976
H	 1.1671038917	-0.2491859222	-0.7120892437	 0.096627
H	 1.2412107256	-0.0443315854	 1.7962254368	 0.090046
H	-0.4966889159	-0.2596837135	 1.8603521013	 0.087759
H	-0.7527919759	-2.6279134557	-0.2957088695	 0.115898
H	-0.4145715661	-3.9136169512	 0.8635262859	 0.109486
H	-1.516121215	-2.6000794635	 1.3002568576	 0.109988
H	 2.0765697422	-3.5146538894	 0.5071939184	 0.101388
H	 2.7848543795	-1.9029167291	 0.9687370134	 0.100938
H	 0.9612477337	-3.6784213584	 2.7394221221	 0.071869
H	 2.3502121498	-0.9957195544	 3.3384845669	 0.095591
H	 1.1281110797	-1.7109316658	 4.3728924681	 0.093922
H	 3.837485027	-3.0012630393	 3.6841568224	 0.117439
H	 3.4240443345	-2.2265418722	 5.223056799	 0.107354
H	 2.6142096848	-3.7217485313	 4.7359413279	 0.112162
53.732	72.1587	92.5539	115.0776	172.3989	211.7913	233.0194	244.251	270.7107	292.9595	317.6125	366.2865	422.9002	448.0408	556.004	712.8676	744.3728	774.9912	805.3158	869.7376	885.9724	898.6009	943.5033	947.1971	966.9487	1008.1904	1046.6139	1049.7013	1058.1103	1071.8984	1101.963	1126.1563	1135.1972	1158.9918	1198.8539	1245.8803	1287.8035	1301.1938	1305.4384	1331.4629	1339.2838	1353.5267	1391.8697	1408.7702	1411.0906	1417.1694	1435.045	1474.3056	1483.5393	1492.764	1494.6626	1497.2333	1498.862	1499.3816	1507.3658	1508.4623	1511.2954	2999.8975	3015.6553	3021.8094	3025.0226	3027.346	3030.2613	3046.6271	3057.5342	3070.5384	3083.4583	3094.274	3097.0712	3098.5694	3099.5932	3103.5059	3111.0377	3116.4392	3197.7906
CCCC1(C)CC1CC	CCC[C@@]1(C)C[C@H]1CC	
InChI=1S/C9H18/c1-4-6-9(3)7-8(9)5-2/h8H,4-7H2,1-3H3	InChI=1S/C9H18/c1-4-6-9(3)7-8(9)5-2/h8H,4-7H2,1-3H3/t8-,9+/m1/s1
