17
gdb 86105	3.20094	1.24048	0.97505	3.0762	69.63	-0.227	-0.0262	0.2008	1188.9121	0.135415	-455.180492	-455.171565	-455.17062	-455.215296	32.286	
C	 0.0769244215	 1.7025307055	-0.0274729966	-0.402278
C	 0.1816053729	 0.1862208759	-0.0118133168	 0.091009
O	 1.0285259603	-0.2426489277	-1.1139012986	-0.259051
C	 2.0906513313	-0.8755726243	-0.5571069432	 0.475176
N	 3.0043776504	-1.3256901192	-1.4645384824	-0.576538
N	 2.133120112	-1.0376632015	 0.7095253712	-0.36801
C	 0.8857292012	-0.482017161	 1.2249949058	-0.090151
C	 1.1449268218	 0.4275043339	 2.4207452843	 0.140941
O	 0.3038573414	 1.1073374945	 2.9516284474	-0.253696
H	 1.0569611972	 2.1667690807	 0.1209562954	 0.1217
H	-0.3211746257	 2.0356299699	-0.9896924844	 0.122847
H	-0.5850713783	 2.0416298799	 0.7716654034	 0.152383
H	-0.8017459817	-0.2584118567	-0.1838217136	 0.101588
H	 3.0473702853	-0.8189184293	-2.3344444851	 0.265673
H	 3.8927835092	-1.5893489872	-1.0692877613	 0.271046
H	 0.2439180039	-1.286537213	 1.6178392195	 0.112319
H	 2.1937338872	 0.3889856297	 2.7874959049	 0.095042
26.1797	71.2164	155.533	203.3442	273.2006	290.3992	370.8333	400.4513	414.1947	466.7018	519.9531	571.6022	697.6473	734.726	755.5704	758.1215	896.6858	968.4511	995.3164	1029.0538	1046.8746	1081.148	1116.8956	1153.443	1183.6312	1259.0681	1310.72	1317.4917	1377.757	1397.9395	1410.5617	1439.3109	1486.8134	1496.0432	1617.3854	1752.3598	1825.2111	2902.498	2973.6151	3046.7556	3073.5308	3119.3139	3143.6287	3596.5105	3712.6851
CC1OC(N)=NC1C=O	C[C@H]1OC(=N[C@H]1C=O)N	
InChI=1S/C5H8N2O2/c1-3-4(2-8)7-5(6)9-3/h2-4H,1H3,(H2,6,7)	InChI=1S/C5H8N2O2/c1-3-4(2-8)7-5(6)9-3/h2-4H,1H3,(H2,6,7)/t3-,4+/m1/s1
