17
gdb 88496	2.59328	1.29267	1.13997	1.7672	74.89	-0.2651	0.0171	0.2823	1153.0548	0.132602	-421.744755	-421.735747	-421.734802	-421.778663	33.306	
C	 0.8481729208	 1.15989524	-0.7518960289	-0.440238
C	 0.1163384499	 0.0362494663	-0.0666040773	 0.089686
O	 0.8793787554	-1.1111933727	 0.3531446321	-0.256726
C	 0.2480404382	-0.3294165825	 1.3547260702	-0.069349
C	 1.1418445874	 0.3596668432	 2.3598470555	 0.218591
C	 2.4142440776	-0.2904556534	 2.7496014612	-0.215424
O	 2.4055723938	 0.85167206	 1.8988836966	-0.258656
C	 0.4373593783	 1.1971667042	 3.3019163174	 0.277606
C	-0.1907868336	 1.8809366194	 4.0649122016	-0.4182
H	 1.8016581875	 1.3631561442	-0.2672166919	 0.164421
H	 1.0285573824	 0.8990194303	-1.800090155	 0.125319
H	 0.2360087699	 2.0682141343	-0.7359296267	 0.123451
H	-0.8313845699	-0.2411156705	-0.5336164425	 0.092343
H	-0.6085136633	-0.8043771237	 1.8384323595	 0.099269
H	 2.8099149287	-0.1267882605	 3.7495189422	 0.125701
H	 2.6773287904	-1.2264306448	 2.2618461403	 0.139536
H	-0.7318764334	 2.4923247162	 4.7444843955	 0.20267
52.8107	133.0178	167.9534	199.4767	225.9555	237.7078	310.0309	389.8769	478.0556	489.4307	545.9888	588.31	626.9195	675.003	718.2794	788.7843	836.4846	877.9325	926.7896	973.5785	999.5646	1049.4582	1097.0447	1131.5517	1156.8597	1171.6349	1181.5691	1213.2258	1292.826	1360.4311	1392.2777	1418.1289	1465.7724	1498.6021	1505.372	1508.8294	2239.967	3042.0632	3078.2856	3091.2148	3097.3259	3098.9081	3173.2871	3198.1059	3500.8934
CC1OC1C1(CO1)C#C	C[C@H]1O[C@H]1[C@]1(CO1)C#C	
InChI=1S/C7H8O2/c1-3-7(4-8-7)6-5(2)9-6/h1,5-6H,4H2,2H3	InChI=1S/C7H8O2/c1-3-7(4-8-7)6-5(2)9-6/h1,5-6H,4H2,2H3/t5-,6-,7-/m1/s1
