14
gdb 27126	3.21147	1.19035	0.90811	3.9092	66.07	-0.2077	-0.0078	0.1999	1205.4819	0.100619	-473.855312	-473.847134	-473.84619	-473.888966	29.227	
N	-0.2336689329	 1.2982641397	 0.3568805141	-0.617598
C	-0.068518954	-0.0598786353	 0.0652540726	 0.13194
C	-1.0230691503	-0.955487132	-0.308127636	 0.329494
O	-2.3335123891	-0.7837810486	-0.6340711349	-0.223773
C	-3.2586195159	-1.0936830255	 0.3361482608	 0.162712
O	-4.4255555495	-0.997810298	 0.1397407445	-0.246118
O	-0.5111259842	-2.213155729	-0.4377998223	-0.166009
C	 0.8092513761	-2.1129972694	-0.1365858594	-0.003445
C	 1.1390594165	-0.8340186513	 0.1790621382	-0.236459
H	 0.5659517989	 1.8557477578	 0.0858533901	 0.251307
H	-1.0702016117	 1.6844774935	-0.0631271579	 0.253909
H	-2.7732640102	-1.4198019607	 1.2726918776	 0.105553
H	 1.3714633536	-3.0301266733	-0.1871857944	 0.143832
H	 2.1143033727	-0.4711052177	 0.4644975871	 0.114656
45.1941	123.0315	149.8398	223.9881	267.1608	289.8472	400.2056	459.7846	519.9	615.441	657.3804	684.9228	733.8299	775.2389	816.6855	852.3812	909.9916	1041.375	1047.0813	1076.191	1094.1999	1169.132	1225.6485	1293.5441	1324.9948	1401.1342	1466.2281	1547.8339	1652.6969	1715.4799	1888.8128	2993.4357	3253.6836	3289.5475	3535.4519	3625.5558
NC1=C(OC=O)OC=C1	Nc1c(OC=O)occ1	
InChI=1S/C5H5NO3/c6-4-1-2-8-5(4)9-3-7/h1-3H,6H2	InChI=1S/C5H5NO3/c6-4-1-2-8-5(4)9-3-7/h1-3H,6H2
