19
gdb 103223	3.5271	1.36041	1.17032	2.3731	74.5	-0.2297	0.073	0.3028	1098.01	0.157076	-422.917802	-422.909508	-422.908564	-422.950591	31.968	
C	 0.0654859882	 1.3593721025	-0.1537126381	-0.251089
O	-0.0560651839	-0.000572256	 0.206604741	-0.291655
C	-1.364349512	-0.53861437	 0.1413641981	 0.417335
C	-2.3011296764	 0.0694514521	 1.1763809942	-0.468727
C	-1.9055441021	-0.7967751905	-1.2909189491	-0.164314
C	-0.9366571323	-2.0066773629	-1.4880317658	 0.088808
O	-1.9860155536	-2.9319345158	-1.9048803192	-0.332966
C	-2.5913145326	-2.1285954482	-0.8508445751	 0.073322
C	-1.3035256007	-2.0719913078	 0.0280685185	-0.152902
H	 1.1345818553	 1.5834160974	-0.1866601494	 0.128723
H	-0.3660791011	 1.5628474968	-1.1448815956	 0.105696
H	-0.4067967955	 2.0334917962	 0.574536231	 0.109279
H	-2.5040248835	 1.1252758496	 0.9718557659	 0.120565
H	-3.2626324982	-0.4519842248	 1.1889050552	 0.121251
H	-1.8573551222	-0.0028059363	 2.1744343385	 0.127772
H	-2.2601741353	-0.1081426793	-2.0577152178	 0.081241
H	 0.0336029993	-2.0569565019	-1.9758279216	 0.105815
H	-3.6251861959	-2.3256250945	-0.5717920628	 0.097431
H	-0.9660538073	-2.8082155266	 0.756828312	 0.084416
77.9225	163.62	196.4731	205.2555	239.7881	296.6328	369.6385	421.1513	547.703	593.1693	632.7671	768.696	800.5888	806.66	836.3977	879.5868	897.7075	901.122	930.0975	970.4499	1028.283	1088.6981	1100.7518	1110.8427	1117.9313	1144.2792	1157.2268	1177.2525	1180.4346	1185.7495	1191.4949	1215.5436	1246.2933	1326.2902	1341.3943	1409.9255	1474.7594	1483.6119	1489.8065	1504.6393	1510.1619	2986.9785	3035.1264	3041.4758	3105.1742	3112.18	3113.2216	3117.5321	3124.5059	3134.7809	3156.5042
COC1(C)C2C3OC2C13	CO[C@@]1(C)[C@H]2[C@@H]3O[C@H]2[C@H]13	
InChI=1S/C7H10O2/c1-7(8-2)3-5-4(7)6(3)9-5/h3-6H,1-2H3	InChI=1S/C7H10O2/c1-7(8-2)3-5-4(7)6(3)9-5/h3-6H,1-2H3/t3-,4+,5-,6+,7-
