19
gdb 26159	2.55597	1.43825	0.96284	1.5754	78.96	-0.1786	0.05	0.2286	1219.9598	0.160437	-419.240936	-419.231824	-419.230879	-419.274525	35.126	
C	 0.229158093	 1.1770000977	 1.1758842632	-0.396141
C	-0.2146725842	 0.4842331218	-0.1115541135	 0.003287
O	 0.7827887762	-0.4650108485	-0.5473699685	-0.428143
C	-1.5681683862	-0.1659374475	-0.0130820338	 0.20407
C	-2.0877069618	-1.0252625445	-0.9673990281	 0.206323
N	-1.5184436095	-1.5747655663	-2.1301928002	-0.61888
N	-3.3432637017	-1.3951056949	-0.5650950808	-0.273675
C	-3.6510715471	-0.787048888	 0.6341617757	-0.097133
C	-2.5692157046	-0.0284292759	 1.0011306609	-0.263507
H	 1.2358274772	 1.5829867733	 1.0483584411	 0.117671
H	-0.4473904361	 1.9973908606	 1.4349751979	 0.119371
H	 0.2412337603	 0.4715336927	 2.0143471764	 0.111057
H	-0.2097575739	 1.2269812083	-0.9212174255	 0.087532
H	 0.7427565067	-1.2049375455	 0.070769615	 0.275381
H	-1.9275360846	-1.2004901969	-2.9813964465	 0.237686
H	-0.5236294435	-1.3699681916	-2.1279577485	 0.255932
H	-3.8968150232	-2.0911104504	-1.0341178805	 0.256426
H	-4.6049164551	-0.9457738564	 1.1093872568	 0.113771
H	-2.5031473318	 0.5785566318	 1.890933329	 0.088973
57.2776	169.1002	187.147	248.7282	264.6338	283.414	309.8659	363.9187	425.9684	457.652	484.4765	515.6347	624.574	637.1366	666.0726	711.7696	743.2777	818.0891	874.7554	885.5488	915.9382	1015.2824	1041.8995	1084.1985	1096.7153	1108.2574	1156.6593	1212.4545	1265.2432	1282.5318	1335.0834	1363.532	1400.2326	1408.5147	1423.6581	1491.185	1494.1686	1517.3601	1518.1203	1610.825	1659.2754	3006.9128	3034.1582	3103.6874	3122.4963	3245.665	3273.9172	3480.9676	3567.173	3676.485	3782.027
CC(O)C1=C(N)NC=C1	C[C@@H](O)c1c(N)[nH]cc1	
InChI=1S/C6H10N2O/c1-4(9)5-2-3-8-6(5)7/h2-4,8-9H,7H2,1H3	InChI=1S/C6H10N2O/c1-4(9)5-2-3-8-6(5)7/h2-4,8-9H,7H2,1H3/t4-/m1/s1
