18
gdb 36490	4.02103	1.03071	0.89751	3.8853	75.02	-0.2745	0.0359	0.3104	1275.8662	0.149145	-401.963513	-401.955553	-401.954609	-401.996617	29.945	
N	-0.0171496109	-1.157951919	-0.0172699189	-0.311664
C	-0.0061468435	-0.0032635828	 0.0300422401	 0.263665
C	 0.0342476397	 1.4561838485	 0.0942644625	-0.357345
C	 1.469132174	 2.0183684184	 0.0392296397	-0.006009
C	 2.2295110481	 1.6719711578	-1.2693441426	-0.230229
C	 3.194649971	 2.8546676458	-1.5225211372	-0.249459
C	 2.5081685406	 4.0312807466	-0.8590023394	 0.052074
O	 1.1079654944	 4.13515344	-1.1677970667	-0.262775
C	 1.4945935522	 3.5370827648	 0.0778262182	 0.023191
H	-0.5444237608	 1.8655658167	-0.7415604306	 0.166499
H	-0.4665181412	 1.7736948233	 1.0164055286	 0.148693
H	 2.0247146244	 1.6480314472	 0.9100928486	 0.095731
H	 2.7437828849	 0.711597816	-1.2036458403	 0.121686
H	 1.5137731326	 1.6022536483	-2.0923171712	 0.123221
H	 4.1642625693	 2.69455948	-1.0353620198	 0.109738
H	 3.3864458846	 3.0178463506	-2.5871296946	 0.116662
H	 3.0211426185	 4.9793540275	-0.7196738367	 0.099444
H	 1.192101452	 4.0776182403	 0.9721506903	 0.096878
68.2455	100.3802	155.0024	239.7879	322.8686	384.8467	401.6927	456.2398	539.5	662.455	686.8027	811.6354	829.7171	842.9501	874.658	927.6895	938.8895	951.9331	969.6852	1020.2464	1051.9181	1084.7215	1098.6502	1114.5622	1175.8337	1220.366	1242.5931	1262.1025	1289.1957	1316.3582	1328.4015	1334.8721	1355.4933	1380.2244	1440.3416	1468.4395	1483.0155	1495.6795	2360.9406	3031.7295	3040.0894	3041.5323	3073.1248	3084.0904	3090.819	3124.6332	3137.592	3154.7001
N#CCC1CCC2OC12	N#CC[C@H]1CC[C@H]2O[C@@H]12	
InChI=1S/C7H9NO/c8-4-3-5-1-2-6-7(5)9-6/h5-7H,1-3H2	InChI=1S/C7H9NO/c8-4-3-5-1-2-6-7(5)9-6/h5-7H,1-3H2/t5-,6-,7+/m1/s1
