18
gdb 55191	3.13688	1.29139	1.23721	5.1361	70.8	-0.248	0.0148	0.2628	1080.6015	0.149631	-439.084166	-439.076532	-439.075588	-439.116846	29.437	
O	-0.3042220676	-0.0367825236	 0.1990665278	-0.373762
C	-0.1010357327	 1.2655319572	-0.06207998	 0.428441
O	 0.9829587378	 1.7337017537	-0.2842982076	-0.342097
C	-1.3812895378	 2.0934142499	-0.0051805535	-0.12898
N	-2.6168523422	 1.2783193808	 0.1630773117	-0.35587
H	-3.2188287142	 1.2443806302	-0.6515457085	 0.234062
H	-1.2742377994	-0.1233568275	 0.3263859203	 0.299934
C	-3.1037268729	 2.160633144	 1.2694698194	 0.01355
C	-2.8826613897	 1.5438263468	 2.6663174811	-0.212482
C	-1.4090709213	 2.0647390251	 2.6442068116	-0.245749
C	-1.6988455949	 2.8389636397	 1.3219430526	-0.03948
H	-1.3923328326	 2.7755512839	-0.8610069011	 0.103614
H	-4.0350209054	 2.6896027078	 1.0571227042	 0.076567
H	-3.4879948136	 2.0290445918	 3.4368800044	 0.106208
H	-3.0297747563	 0.4631771441	 2.7288044338	 0.107045
H	-1.1472422164	 2.7111940046	 3.4835844274	 0.112472
H	-0.6438296529	 1.2899987023	 2.5629604676	 0.128806
H	-1.5348421779	 3.9140668291	 1.3279865486	 0.087721
69.5028	104.7842	165.1846	264.9423	384.9862	392.8879	462.8402	596.8404	665.5918	713.4089	749.8383	758.3663	792.9541	827.7587	857.7972	887.2375	921.2041	936.7611	954.5521	1017.3515	1034.8489	1066.9091	1076.1393	1104.1563	1157.7393	1197.3626	1216.6633	1221.5305	1245.6844	1269.6465	1280.0623	1288.7311	1311.4819	1358.9379	1374.5888	1425.7987	1469.0534	1492.7727	1871.1866	3059.5519	3060.8023	3077.335	3085.9998	3111.9481	3128.9389	3140.1162	3484.7934	3542.7862
[O-]C(=O)C1[NH2+]C2CCC12	OC(=O)[C@H]1N[C@H]2CC[C@@H]12	
InChI=1S/C6H9NO2/c8-6(9)5-3-1-2-4(3)7-5/h3-5,7H,1-2H2,(H,8,9)	InChI=1S/C6H9NO2/c8-6(9)5-3-1-2-4(3)7-5/h3-5,7H,1-2H2,(H,8,9)/t3-,4+,5+/m1/s1
