23
gdb 96575	2.27458	1.37804	0.99462	1.5001	87.08	-0.24	0.0143	0.2543	1281.0091	0.207888	-388.300017	-388.291125	-388.290181	-388.333045	35.519	
O	-0.181193057	 1.5564409316	-0.101771553	-0.445919
C	-0.0269279216	 0.1401948742	-0.0071754911	 0.089769
C	-1.4476273862	-0.4372555891	 0.083546302	-0.183383
C	-1.5527942595	-1.9696822552	 0.0217566297	-0.193808
C	-0.6685401763	-2.7697909039	 1.0094176348	-0.184921
C	 0.6487146797	-3.344939382	 0.4504371317	-0.175948
C	 1.7699742258	-2.3355016385	 0.1109308234	-0.24723
C	 1.5201031591	-1.4967682981	-1.1206905083	-0.060019
C	 0.7451658112	-0.4130459721	-1.1728055707	-0.081588
H	 0.699584825	 1.9416826893	-0.148788339	 0.277962
H	 0.5021790081	-0.1091851999	 0.9256287661	 0.06493
H	-1.8907524769	-0.066275817	 1.0159067175	 0.10041
H	-2.0361360017	-0.0023856365	-0.7332430093	 0.102699
H	-2.6031070572	-2.2207522754	 0.2088991554	 0.092444
H	-1.3432466981	-2.3093038339	-0.9986391103	 0.09929
H	-0.4555106643	-2.1636424317	 1.9005745767	 0.091459
H	-1.2497922848	-3.6249199925	 1.3737601721	 0.094281
H	 1.0495399163	-4.0457370895	 1.1939162996	 0.090603
H	 0.4247327262	-3.9444519327	-0.4417486862	 0.095806
H	 1.9309757573	-1.690038878	 0.9844158874	 0.104366
H	 2.7009872404	-2.8959419278	-0.0285062838	 0.094791
H	 1.9935334727	-1.8408809627	-2.0382631332	 0.086637
H	 0.5910369118	 0.1097563313	-2.1152239314	 0.087369
112.3294	171.6235	185.6162	239.7599	279.8522	309.9822	321.6578	356.2268	415.6695	441.322	501.1522	560.8673	606.8438	723.8611	771.6645	786.5182	856.9472	874.5206	890.0673	975.6833	994.5893	1000.6066	1010.6235	1021.6416	1070.0729	1094.426	1107.9066	1142.0578	1145.0116	1222.1103	1236.7504	1243.7676	1275.2102	1289.9617	1302.4514	1345.6871	1355.7632	1362.1826	1374.0092	1387.1103	1392.3463	1408.641	1429.1211	1481.4746	1487.5196	1489.2753	1496.1434	1496.9088	1717.0734	2970.2225	3011.5123	3014.3101	3017.853	3024.7055	3033.5689	3051.2605	3056.2338	3062.7422	3064.5406	3077.3197	3132.4734	3156.1678	3816.5927
OC1CCCCCC=C1	O[C@H]1CCCCCC=C1	
InChI=1S/C8H14O/c9-8-6-4-2-1-3-5-7-8/h4,6,8-9H,1-3,5,7H2/b6-4-	InChI=1S/C8H14O/c9-8-6-4-2-1-3-5-7-8/h4,6,8-9H,1-3,5,7H2/b6-4-/t8-/m1/s1
