19
gdb 93902	2.74843	1.54358	1.23266	2.8754	70.77	-0.2486	0.0763	0.3249	1068.7423	0.159692	-460.148153	-460.139987	-460.139043	-460.180651	31.841	
C	 0.0006786521	 1.5050631367	-0.0342224322	-0.404492
C	 0.0328042424	-0.0174924903	 0.0032403106	 0.09709
O	 0.6109582677	-0.4580649499	-1.214249117	-0.263148
C	 0.7840917101	-1.8640043724	-1.2694095977	-0.10974
C	 1.8907543047	-2.3292950816	-0.3176396804	 0.106993
O	 3.1789268611	-2.018140867	-0.8112627196	-0.433368
C	 1.6899842358	-1.7038198809	 1.0635762341	-0.009
O	 2.216556534	-0.3710957692	 1.1723258885	-0.256536
C	 0.7974084792	-0.5428986479	 1.205875372	 0.044138
H	 1.020536836	 1.8976720074	-0.0590605349	 0.139042
H	-0.5285393549	 1.8453976088	-0.9275331299	 0.128863
H	-0.5085077825	 1.9033574357	 0.8484150556	 0.115641
H	-0.9978104197	-0.4112948654	 0.0829699471	 0.068385
H	-0.1620961179	-2.37992728	-1.0307390181	 0.081236
H	 1.0657971621	-2.1037287098	-2.2979296919	 0.118406
H	 1.8462364273	-3.421028273	-0.2322971182	 0.084662
H	 3.2927472276	-1.0709683099	-0.6564913636	 0.294759
H	 1.8998554664	-2.3293591015	 1.9295250985	 0.100845
H	 0.3384141484	-0.3380552697	 2.1740204671	 0.096221
87.1747	192.0307	213.5083	247.342	282.4806	337.3418	376.5735	411.5214	465.8772	513.0528	570.4688	689.69	755.7587	774.0672	835.0812	869.4533	896.7978	944.7548	962.7244	1027.1549	1031.0228	1085.4755	1104.81	1121.0111	1138.2381	1165.0084	1183.5287	1267.9181	1278.7032	1312.7965	1335.483	1343.9706	1362.4245	1377.7096	1406.7232	1408.487	1443.445	1461.4493	1482.3135	1484.7599	1501.0108	2932.3789	2959.6092	3048.4269	3051.3141	3100.4544	3103.7601	3123.5955	3126.433	3133.092	3768.663
CC1OCC(O)C2OC12	C[C@H]1OC[C@@H](O)[C@H]2O[C@@H]12	
InChI=1S/C6H10O3/c1-3-5-6(9-5)4(7)2-8-3/h3-7H,2H2,1H3	InChI=1S/C6H10O3/c1-3-5-6(9-5)4(7)2-8-3/h3-7H,2H2,1H3/t3-,4-,5+,6-/m1/s1
