17
gdb 55713	2.54208	1.19117	1.0234	5.0652	74.05	-0.259	0.0062	0.2651	1240.272	0.134468	-418.040408	-418.030908	-418.029964	-418.075865	33.572	
C	 0.1059181774	 1.4816809835	-0.017065248	-0.498045
C	-0.3126674177	 0.0210413115	-0.0257593739	 0.399986
O	-1.0902988918	-0.4570391698	 0.7706670628	-0.345394
N	 0.2688588447	-0.7255472308	-1.0366739472	-0.385191
C	 0.1636623565	-2.1513097889	-1.0949134685	 0.209926
C	-1.2149582671	-2.7562898377	-1.2736821281	-0.259763
C	-0.2584292112	-2.7740485163	-2.4223384078	-0.307864
C	 1.1280333251	-2.8805045681	-0.2972189744	 0.255938
N	 1.9209912926	-3.4489980105	 0.3240851704	-0.344436
H	 1.0573428639	 1.5843492713	 0.5163385622	 0.156089
H	 0.2374068049	 1.8839163914	-1.02572694	 0.128307
H	-0.649827235	 2.0591974738	 0.5148402892	 0.157579
H	 1.0152790645	-0.3024685766	-1.5675092212	 0.25243
H	-1.412904462	-3.680337735	-0.7453405391	 0.149475
H	-2.0322143424	-2.047938263	-1.2810378873	 0.153461
H	-0.4165407262	-2.0752954895	-3.2355441242	 0.13268
H	 0.210930674	-3.7102405151	-2.699052655	 0.14482
46.3462	65.7658	79.284	158.6718	191.8711	225.3978	341.4067	358.296	408.2588	488.87	572.3658	577.5345	601.8809	627.619	736.5477	779.6958	875.2875	923.5945	944.7815	977.4025	1017.7851	1047.8308	1053.0698	1075.1167	1096.3428	1192.4417	1248.863	1289.7909	1319.1014	1390.2954	1460.757	1466.7747	1484.6079	1490.0254	1508.4708	1805.92	2349.1799	3045.6035	3110.8498	3148.0675	3161.1526	3167.5472	3239.5989	3262.6897	3611.9374
CC(=O)NC1(CC1)C#N	CC(=O)NC1(CC1)C#N	
InChI=1S/C6H8N2O/c1-5(9)8-6(4-7)2-3-6/h2-3H2,1H3,(H,8,9)	InChI=1S/C6H8N2O/c1-5(9)8-6(4-7)2-3-6/h2-3H2,1H3,(H,8,9)
