19
gdb 67584	2.2746	2.16387	1.50629	1.2873	77.89	-0.2133	0.0751	0.2885	953.7654	0.159738	-385.848031	-385.840444	-385.8395	-385.879447	31.148	
C	-0.0920853434	 1.4938123492	 0.0911647088	-0.514664
C	-0.0516636288	 0.0008477591	-0.0126624007	 0.263503
C	 1.0073390202	-0.8432998544	-0.6983799789	-0.125967
C	 0.3840144475	-1.9669781997	-1.5090762452	-0.237096
C	-0.835842869	-2.2223607055	-0.6446338068	-0.15531
C	-0.5190704893	-1.9527823493	 0.8321813393	-0.145029
C	 0.722529674	-1.0314392903	 0.7860678802	-0.129992
C	-1.2970835003	-0.9469206612	 0.0313198777	 0.339698
O	-2.6037773307	-0.5439216029	 0.2109631815	-0.462975
H	 0.9122125453	 1.9019758644	 0.2457587072	 0.117477
H	-0.4978815073	 1.9546372396	-0.8181951616	 0.111513
H	-0.7184862546	 1.8147361531	 0.9306647164	 0.128287
H	 1.9382401448	-0.3753261359	-1.0006765008	 0.079551
H	 0.1179598685	-1.652166764	-2.5255755261	 0.091773
H	 1.0412511515	-2.84126058	-1.5808797388	 0.09831
H	-1.574995696	-2.9805819258	-0.8764066441	 0.08442
H	-0.8339331734	-2.5957688563	 1.6418681579	 0.090619
H	 1.4505208877	-0.8833845365	 1.5726395363	 0.081387
H	-2.9838017166	-0.3494543436	-0.6533529121	 0.284495
180.0453	200.7961	204.9524	257.5965	321.2921	396.9233	419.9221	525.1934	596.9307	614.6738	699.795	735.4896	782.725	826.8069	849.9119	874.979	883.8673	914.52	935.644	958.4297	982.1425	990.422	1014.8776	1032.318	1068.3572	1109.3382	1127.8283	1183.6078	1197.7674	1207.2839	1225.333	1257.2354	1288.1334	1299.6953	1318.9834	1411.1492	1437.5805	1464.5008	1484.0323	1493.0309	1501.1375	3018.4389	3028.0254	3067.6621	3075.9692	3096.2823	3171.6815	3187.1493	3197.4624	3217.1148	3782.0215
CC12C3CC4C(C13)C24O	C[C@@]12[C@@H]3C[C@H]4[C@@H]([C@H]13)[C@@]24O	
InChI=1S/C8H10O/c1-7-3-2-4-6(5(3)7)8(4,7)9/h3-6,9H,2H2,1H3	InChI=1S/C8H10O/c1-7-3-2-4-6(5(3)7)8(4,7)9/h3-6,9H,2H2,1H3/t3-,4+,5-,6+,7-,8-/m1/s1
