14
gdb 12218	4.15982	1.56066	1.21168	3.0741	61.42	-0.2593	-0.0357	0.2236	943.0511	0.106874	-415.867974	-415.860142	-415.859197	-415.900634	27.158	
O	 0.3961961342	 1.1773760606	 0.4967432993	-0.425785
C	 0.0237072207	-0.1073339996	 0.0759392395	 0.039862
C	-1.5074624222	-0.2552079453	-0.1784396263	-0.199268
N	-1.1794158637	-0.5936689392	-1.5798774293	-0.110418
C	-1.9276510736	-0.876319657	-2.6896281679	 0.138627
O	-1.4541803356	-1.0677883009	-3.7874739998	-0.300019
C	 0.2092944596	-0.3990377572	-1.4154785566	 0.372692
N	 1.2182816337	-0.3920183494	-2.1647753022	-0.544564
H	 1.2769757167	 1.3493488704	 0.1432443859	 0.305113
H	 0.4329218632	-0.8928869492	 0.7249724868	 0.102745
H	-2.0122035727	-1.0553595934	 0.3670817408	 0.129651
H	-2.0431541935	 0.6903305295	-0.0692075339	 0.141688
H	-3.0123872842	-0.9139053325	-2.4719100153	 0.09502
H	 0.9604404074	-0.5877014569	-3.1334118208	 0.254655
71.3092	125.5733	173.7658	193.274	241.4134	290.3575	388.264	468.8088	518.9231	674.9139	767.5996	827.1372	881.9445	919.1762	966.1511	1030.0149	1032.9675	1142.3597	1148.9924	1181.5234	1209.9713	1253.1107	1289.8505	1340.2218	1392.2109	1402.9937	1434.9553	1503.0601	1759.1919	1824.7361	2951.4276	3020.5908	3068.4867	3130.9844	3485.5035	3800.6402
OC1CN(C=O)C1=N	O[C@H]1CN(C=O)[C]1[NH]	
InChI=1S/C4H6N2O2/c5-4-3(8)1-6(4)2-7/h2-3,5,8H,1H2	InChI=1S/C4H6N2O2/c5-4-3(8)1-6(4)2-7/h2-3,5,8H,1H2/t3-/m0/s1
