15
gdb 125075	3.10459	1.37681	0.97676	1.7565	70.52	-0.2306	-0.0066	0.224	1133.5117	0.114223	-450.157941	-450.149779	-450.148835	-450.191806	28.982	
C	-0.9497441927	 1.0183093278	-0.5003546173	-0.531808
C	-0.1833940452	-0.2315930714	-0.2256664569	 0.256372
C	 0.4639896627	-1.1914898371	-0.9836504207	 0.313781
N	 0.6383383485	-1.379718063	-2.359158493	-0.388548
C	-0.1380570732	-0.9431880631	-3.3905837638	 0.142709
O	-1.1066323211	-0.2188380532	-3.3063382193	-0.310237
N	 1.068823152	-2.0943670137	-0.1618018758	-0.26264
N	 0.8362471694	-1.7666535424	 1.0758917804	-0.119007
N	 0.0850218211	-0.6587429256	 1.0404777114	-0.205747
H	-0.304336572	 1.9022130728	-0.4307312461	 0.138889
H	-1.3690999759	 0.9761593673	-1.5045862141	 0.200387
H	-1.7630406444	 1.1435991828	 0.2223445037	 0.126278
H	 1.3519161757	-2.0618416207	-2.5755185727	 0.268183
H	 0.2377115125	-1.3323122424	-4.3554902189	 0.089806
H	-0.2185566975	-0.2407908382	 1.9063524131	 0.281581
30.4639	107.7824	197.0469	223.2168	248.8263	286.5607	388.3382	434.9627	581.0126	601.6106	626.0921	694.5521	697.1429	745.1577	874.2866	994.9592	1019.919	1028.9241	1069.5111	1117.968	1152.9625	1235.9738	1272.1742	1302.7702	1376.2732	1416.7788	1435.8296	1465.4902	1490.8173	1506.6959	1571.5713	1647.6014	1802.3083	2960.1315	3029.8822	3083.7697	3165.5409	3605.0493	3648.3548
CC1=C(NC=O)N=NN1	Cc1c(NC=O)nn[nH]1	
InChI=1S/C4H6N4O/c1-3-4(5-2-9)7-8-6-3/h2H,1H3,(H2,5,6,7,8,9)	InChI=1S/C4H6N4O/c1-3-4(5-2-9)7-8-6-3/h2H,1H3,(H2,5,6,7,8,9)
