19
gdb 74650	3.76011	1.51015	1.38051	1.8495	79.36	-0.2254	0.0152	0.2406	997.3752	0.161791	-385.876838	-385.870021	-385.869077	-385.907715	28.566	
C	-0.0190840375	 1.5013218606	 0.0648431733	-0.504691
C	-0.0645676216	 0.0123791001	-0.0394447802	 0.321659
C	-0.0655608826	-0.7538752481	-1.1424800198	-0.206147
C	-0.0938428199	-2.1898577747	-0.7235821594	-0.070939
C	 1.0678743407	-2.7546470761	 0.2155516528	 0.056757
C	 1.4800753467	-1.5565950999	 1.0779684971	-0.213633
C	 0.0421321496	-0.9147213543	 1.1598386958	-0.152939
C	-0.734757188	-2.2000679204	 0.6800691607	 0.096423
O	 0.0432374594	-3.3498116993	 1.0701973043	-0.300085
H	 0.8961708824	 1.8383573621	 0.5687440465	 0.127982
H	-0.0570593185	 1.9744861395	-0.920411315	 0.124427
H	-0.8580610208	 1.8827873603	 0.6605589821	 0.127124
H	-0.0395097302	-0.4020584683	-2.1669915159	 0.091385
H	-0.4587997417	-2.9410056283	-1.4221906302	 0.075037
H	 1.8209422876	-3.4585420218	-0.1360166341	 0.079179
H	 1.8412052364	-1.9116824691	 2.0454791662	 0.10832
H	 2.2160037904	-0.8876673784	 0.6269969639	 0.0965
H	-0.2285838591	-0.4956537913	 2.1286498558	 0.063057
H	-1.8059632331	-2.2754368524	 0.870773326	 0.080584
159.2892	185.0325	271.8099	381.6103	425.3512	517.265	534.9607	567.1169	716.2842	757.6718	772.7388	804.9557	841.4276	861.5871	886.2669	899.1167	923.3255	951.126	959.5198	983.8184	1008.8372	1032.6161	1048.7458	1063.3541	1098.3158	1125.5939	1170.8197	1195.4245	1206.3164	1238.5728	1260.4663	1266.3971	1298.7403	1309.5465	1335.0211	1346.5336	1412.7009	1472.6859	1477.4874	1486.7829	1683.5611	3015.0781	3060.7876	3071.0704	3107.6543	3110.5385	3119.7963	3127.8075	3129.6479	3138.4447	3198.5465
CC1=CC2C3CC1C2O3	CC1=C[C@H]2[C@H]3C[C@@H]1[C@@H]2O3	
InChI=1S/C8H10O/c1-4-2-6-7-3-5(4)8(6)9-7/h2,5-8H,3H2,1H3	InChI=1S/C8H10O/c1-4-2-6-7-3-5(4)8(6)9-7/h2,5-8H,3H2,1H3/t5-,6-,7+,8-/m0/s1
