23
gdb 100316	1.87693	1.4377	1.00492	2.8973	81.45	-0.2523	0.0574	0.3096	1321.4611	0.202853	-425.407548	-425.396812	-425.395868	-425.443071	39.669	
C	-1.5113871152	-0.8023334702	-0.4113940579	-0.408917
C	-0.104750804	-0.2612655638	-0.1232039049	-0.221072
C	 0.950758969	-0.5680635295	-1.207985195	 0.30408
O	 0.6053531458	 0.0418464949	-2.4511023379	-0.462787
C	 2.3377386045	-0.0027549142	-0.8399516478	-0.176509
C	 2.3992222985	 1.5180469084	-0.6739457276	-0.400675
C	 1.0920798909	-2.0867658767	-1.3647403977	 0.071519
C	 0.6427555985	-2.827514751	-2.5511072934	-0.186308
O	 2.0263630181	-2.5538289384	-2.3348738876	-0.239721
H	-1.9419458767	-0.3729427654	-1.324604776	 0.108528
H	-1.5196824459	-1.8909930745	-0.5203107553	 0.126662
H	-2.1943591305	-0.5436885373	 0.4029427308	 0.123456
H	-0.1558818788	 0.824155281	 0.0036858245	 0.11039
H	 0.2503373985	-0.6715941079	 0.8300478401	 0.100116
H	-0.3319707863	-0.1052178778	-2.6103179584	 0.277888
H	 2.6817171526	-0.4999427285	 0.0755473813	 0.087893
H	 3.0178631594	-0.3133504244	-1.6390188447	 0.125768
H	 1.9878062688	 2.0157812237	-1.5553770626	 0.134125
H	 1.8449209783	 1.8647093195	 0.2039487879	 0.109112
H	 3.4368027336	 1.8433089422	-0.5511794819	 0.109832
H	 1.1401688528	-2.6290313714	-0.4171611766	 0.087492
H	 0.348379113	-3.8725580717	-2.457639405	 0.108946
H	 0.197925955	-2.2851618472	-3.3821693442	 0.110184
82.4307	91.0015	107.3477	181.7375	192.5724	212.1871	240.8588	267.666	306.7161	322.6675	358.2033	386.4136	430.776	549.9386	588.477	710.4541	773.9681	790.1169	866.0367	889.5195	937.2616	959.409	982.6068	1016.9433	1034.8103	1051.564	1080.2342	1093.3413	1120.757	1167.1044	1173.84	1188.5186	1217.2612	1289.161	1293.4974	1332.8581	1338.3974	1374.082	1390.3973	1406.1608	1416.0898	1425.1696	1479.1317	1482.5008	1500.215	1501.8173	1506.6281	1511.2071	1517.7638	3024.5918	3031.8141	3037.3719	3042.4171	3076.2146	3078.658	3083.5184	3087.0731	3094.7956	3105.5873	3115.4516	3127.7024	3176.7576	3822.3811
CCC(O)(CC)C1CO1	CCC(O)(CC)[C@H]1CO1	
InChI=1S/C7H14O2/c1-3-7(8,4-2)6-5-9-6/h6,8H,3-5H2,1-2H3	InChI=1S/C7H14O2/c1-3-7(8,4-2)6-5-9-6/h6,8H,3-5H2,1-2H3/t6-/m1/s1
