18
gdb 64932	4.42078	0.69	0.64893	2.6157	84.58	-0.2407	0.0201	0.2608	1749.1403	0.146128	-401.864628	-401.855329	-401.854385	-401.90041	33.286	
C	-0.4252769753	 1.2790306335	-0.5096429459	-0.461412
C	 0.0380976407	-0.0906453895	-0.0429345757	 0.088492
C	 1.1813697994	-0.7438679152	-0.7536209046	-0.258458
N	 1.3717970854	-0.2138545455	 0.6009771234	-0.326041
C	-0.9926549275	-0.9188016786	 0.5354319513	 0.118464
C	-1.8876997645	-1.586908737	 0.9884654696	 0.117706
C	-2.9155773205	-2.4055289925	 1.5698418562	-0.122684
C	-4.349706391	-2.1411324819	 1.3391321731	-0.160831
O	-3.7026616143	-3.2239342407	 0.684981283	-0.2158
H	 0.4003510077	 1.8276980683	-0.9746973367	 0.112885
H	-1.2315998345	 1.1877828374	-1.2436234254	 0.136794
H	-0.802957802	 1.8677108136	 0.3323805385	 0.133695
H	 1.2149257189	-1.8260243418	-0.8290113864	 0.131539
H	 1.6090804509	-0.209380241	-1.5985232957	 0.114995
H	 1.837709029	 0.6902181985	 0.5572018015	 0.231719
H	-2.6405592152	-2.9075527863	 2.4969487816	 0.118877
H	-5.0698541433	-2.413421814	 2.1099928455	 0.11854
H	-4.6339964938	-1.3071357574	 0.7001435167	 0.121519
22.1962	80.9551	92.7103	195.5852	205.0978	240.6729	312.3509	358.6877	477.9781	482.8685	546.9841	560.4693	639.1014	788.6357	820.3332	833.0274	894.6645	932.1474	970.4661	981.7886	1009.4798	1055.9825	1078.875	1109.8725	1128.5499	1151.2789	1158.0441	1170.4273	1264.1133	1279.0167	1316.2992	1368.1333	1411.5585	1414.6919	1479.9931	1499.4056	1506.5104	1519.5797	2361.4683	3032.91	3083.6584	3105.2582	3108.8942	3109.3568	3115.0931	3176.3395	3202.7719	3488.3762
CC1(CN1)C#CC1CO1	C[C@]1(CN1)C#C[C@H]1CO1	
InChI=1S/C7H9NO/c1-7(5-8-7)3-2-6-4-9-6/h6,8H,4-5H2,1H3	InChI=1S/C7H9NO/c1-7(5-8-7)3-2-6-4-9-6/h6,8H,4-5H2,1H3/t6-,7+/m0/s1
