22
gdb 13216	3.40197	1.35167	1.15317	1.127	78.84	-0.2485	0.0823	0.3308	1162.3822	0.199476	-350.190122	-350.180833	-350.179889	-350.224311	33.901	
C	-0.1257857427	 1.5028606633	-0.0528090895	-0.232449
O	-0.0731930604	 0.1192522679	 0.1943529758	-0.243212
C	-1.306916956	-0.5721733471	 0.0256954393	 0.108856
C	-1.6431720839	-0.7782657487	-1.4552502119	-0.404092
C	-1.1923773019	-1.8957746531	 0.774043259	 0.047206
C	 0.0200326507	-2.8294825844	 0.4821513942	-0.222593
C	 0.0931994363	-3.14214306	 2.0013391516	-0.210534
C	-0.7667771336	-1.8777036747	 2.2684182599	-0.2377
H	 0.8513429771	 1.9152178162	 0.2126703968	 0.124606
H	-0.3254763076	 1.7407394079	-1.1080751435	 0.105135
H	-0.8958134631	 1.9967504488	 0.5611030864	 0.101711
H	-2.1104568595	 0.0234735773	 0.4954934456	 0.057929
H	-2.5979702685	-1.3035771122	-1.5599016941	 0.1134
H	-1.7296086648	 0.1730572575	-1.9879761143	 0.11306
H	-0.8654950265	-1.3738991447	-1.9433290958	 0.126301
H	-2.1343860293	-2.4415377286	 0.6499693389	 0.062707
H	-0.1336698618	-3.666498946	-0.2034557657	 0.087314
H	 0.8819567413	-2.2474033892	 0.1477868854	 0.116234
H	-0.4447370159	-4.0610414071	 2.2531256256	 0.095601
H	 1.0837611274	-3.185469572	 2.4603530028	 0.093547
H	-0.1451101409	-1.0037061811	 2.4760107863	 0.111237
H	-1.5555930863	-1.9447937001	 3.0223137973	 0.085736
72.5871	86.1331	113.5894	183.5948	204.6029	230.7298	258.7136	341.4613	374.1562	481.2806	562.2945	657.1929	750.5037	783.9038	845.4956	895.777	934.3542	943.0838	956.7049	986.4928	1011.2389	1039.689	1124.3755	1129.9446	1145.8339	1173.2751	1183.5573	1207.1695	1222.5924	1251.3993	1259.0683	1261.287	1278.7335	1288.2739	1347.731	1374.8211	1388.1951	1401.8917	1475.7452	1477.6111	1482.8023	1486.5622	1493.4042	1503.7242	1509.2256	1514.4137	2937.3375	2974.2262	3022.1283	3038.5488	3044.5532	3052.2421	3058.9195	3065.3328	3097.4717	3105.934	3108.8252	3115.0596	3117.2432	3126.7865
COC(C)C1CCC1	CO[C@@H](C)C1CCC1	
InChI=1S/C7H14O/c1-6(8-2)7-4-3-5-7/h6-7H,3-5H2,1-2H3	InChI=1S/C7H14O/c1-6(8-2)7-4-3-5-7/h6-7H,3-5H2,1-2H3/t6-/m0/s1
