25
gdb 58261	2.69846	1.04099	0.80118	2.0195	88.34	-0.2407	0.0701	0.3108	1515.3824	0.227791	-389.476206	-389.465685	-389.46474	-389.511838	39.158	
C	-0.0087095975	 1.6006925491	 0.0669782693	-0.400162
C	 0.0077618024	 0.0634648993	 0.0340420351	 0.050078
C	 0.8353444805	-0.4588012632	 1.2191700292	-0.397054
C	-1.4222733285	-0.536365819	-0.0242292987	 0.010295
C	-2.179547762	-0.0585124276	-1.2768917258	-0.407581
C	-1.4295840595	-2.0691051284	 0.0080828991	-0.008329
C	-1.2332383047	-2.8477185604	 1.3328424845	-0.102928
O	-2.4170690912	-3.6334965828	 1.1000040073	-0.277254
C	-2.7957213846	-2.7977585199	-0.0101010567	-0.098405
H	 1.0108047052	 1.9928378413	 0.1410606132	 0.110412
H	-0.4613633697	 2.0360821048	-0.826990369	 0.115191
H	-0.565847383	 1.9671680404	 0.9379182824	 0.111868
H	 0.5209160964	-0.2454979679	-0.8895055439	 0.068928
H	 0.3513205587	-0.2259441516	 2.1749334287	 0.1127
H	 0.9939494179	-1.5391087388	 1.1745717172	 0.118586
H	 1.8232922845	 0.0131406429	 1.2304340095	 0.108632
H	-1.9719740892	-0.1822023348	 0.86218967	 0.066476
H	-1.6325381596	-0.3277296648	-2.1886253495	 0.112698
H	-3.1718672081	-0.5150850132	-1.3399471165	 0.117041
H	-2.3237677057	 1.0240646962	-1.2818871991	 0.118779
H	-0.7716484785	-2.4561177014	-0.7781124009	 0.076606
H	-0.3383751762	-3.4741750824	 1.4232367304	 0.102762
H	-1.3272532315	-2.2311831205	 2.2378583764	 0.095516
H	-3.6507010092	-2.1534520608	 0.2435175278	 0.092735
H	-3.046485967	-3.3823355865	-0.9025568799	 0.102411
53.3044	96.7585	122.4792	166.4577	207.9406	211.8216	251.1596	293.6331	302.6081	343.5042	370.9704	438.9573	451.8987	495.8266	725.786	802.3694	870.6909	894.0207	920.6132	925.3089	961.4243	965.7737	992.4173	996.563	1023.1726	1039.5318	1060.4935	1103.6716	1144.4432	1171.066	1175.9359	1184.1569	1194.3864	1214.2004	1272.9071	1281.7252	1313.2688	1319.7377	1348.8453	1369.2934	1377.5504	1399.0019	1400.9834	1412.5179	1422.4137	1486.2708	1492.1596	1497.6774	1504.4765	1507.5896	1511.7961	1521.3322	1535.2942	2976.8216	2987.7833	2991.0362	3003.8564	3027.5643	3032.0452	3033.4438	3037.7267	3052.9742	3063.2267	3088.3456	3095.3695	3097.7519	3111.9231	3115.7306	3124.715
CC(C)C(C)C1COC1	CC(C)[C@@H](C)C1COC1	
InChI=1S/C8H16O/c1-6(2)7(3)8-4-9-5-8/h6-8H,4-5H2,1-3H3	InChI=1S/C8H16O/c1-6(2)7(3)8-4-9-5-8/h6-8H,4-5H2,1-3H3/t7-/m1/s1
