19
gdb 42008	3.17362	1.57131	1.13801	3.0732	76.09	-0.2236	0.031	0.2547	1080.0866	0.1635	-419.217163	-419.209713	-419.208769	-419.249484	29.016	
C	-0.0082008512	 1.3639570714	-0.1657612511	-0.158566
C	 1.4693711282	 1.8333144475	-0.0730824973	-0.259196
C	 2.1229680152	 0.696367698	 0.726727556	-0.06409
N	 3.5291662967	 0.3827510721	 0.4285330379	-0.327103
C	 3.768928444	-1.0363688062	 0.1509655375	-0.173058
C	 2.858430357	-1.8858491243	 1.0243648542	-0.076402
O	 1.482319733	-1.7055935306	 0.6537751171	-0.249724
C	 1.1394999856	-0.4281335588	 0.4147995524	 0.404813
N	 0.0037454196	-0.1002595852	-0.0471300311	-0.299504
H	-0.6134179704	 1.791554285	 0.6454098573	 0.106694
H	-0.4850594335	 1.662123438	-1.1044888453	 0.108474
H	 1.9121630861	 1.8680587369	-1.0763138408	 0.100473
H	 1.5886256651	 2.8174858501	 0.3851908388	 0.10695
H	 2.037311508	 0.9125380696	 1.8042941149	 0.100714
H	 3.8553553765	 0.9513338747	-0.343054485	 0.221763
H	 3.5782056274	-1.3198886256	-0.8982058636	 0.102214
H	 4.8146013078	-1.2823072722	 0.3731919737	 0.109891
H	 3.0609972003	-2.9495642347	 0.889121648	 0.126239
H	 2.9947734544	-1.6350452957	 2.0846647064	 0.119419
62.362	119.693	255.1679	312.5	380.1855	414.2384	455.5028	520.2664	590.7185	647.1259	688.6641	744.8167	814.6542	867.9767	901.4915	935.6538	954.4892	986.1341	1041.5757	1059.5005	1091.3852	1112.0647	1136.3426	1179.212	1192.8223	1230.7954	1245.9245	1260.3966	1292.4294	1310.6803	1330.9545	1343.3762	1358.9728	1387.682	1427.434	1478.8095	1487.988	1508.1741	1509.5222	1510.0523	1738.412	2955.5334	2959.9914	3013.9147	3024.6409	3032.7748	3045.1511	3073.2998	3108.9817	3120.4877	3547.1381
C1CC2NCCOC2=N1	C1C[C@@H]2NCCO[C]2[N]1	
InChI=1S/C6H10N2O/c1-2-8-6-5(1)7-3-4-9-6/h5,7H,1-4H2	InChI=1S/C6H10N2O/c1-2-8-6-5(1)7-3-4-9-6/h5,7H,1-4H2/t5-/m0/s1
