18
gdb 107857	3.65236	1.36839	1.32591	1.0573	70.32	-0.2365	0.0621	0.2986	1014.6906	0.149632	-439.022579	-439.015426	-439.014481	-439.054263	28.868	
O	 0.0109281782	 1.4223519227	-0.1797997924	-0.415314
C	 0.0235057985	 0.0150774646	-0.0043882555	-0.187546
C	-1.3675663901	-0.5406150177	 0.1083480785	 0.384132
C	-2.361525376	-0.0729455758	 1.1884287105	-0.244791
C	-3.37364843	-1.1946942885	 0.8652571292	-0.066756
N	-2.6426471134	-2.4572986027	 1.178343482	-0.309872
C	-1.7714111163	-2.1010631369	 0.0582019477	-0.119041
C	-2.9412745282	-1.4227330538	-0.6628352257	 0.118281
O	-2.1692023082	-0.3089594554	-1.1035904937	-0.341681
H	-0.5487379778	 1.5980926496	-0.9450458525	 0.297102
H	 0.5515499915	-0.4878524424	-0.8292942022	 0.095995
H	 0.5786327579	-0.1841790199	 0.9188843589	 0.111234
H	-1.9919052465	-0.1391206037	 2.2161472921	 0.093817
H	-2.7059711371	 0.9415626274	 0.9829927501	 0.115641
H	-4.4055193206	-1.1120438647	 1.2024852326	 0.077664
H	-2.1981749106	-2.4627270197	 2.0964752289	 0.211242
H	-1.0766248034	-2.8265277347	-0.3633959775	 0.0837
H	-3.6248509079	-1.8588760782	-1.3870016009	 0.096194
83.1989	155.6601	281.3765	324.786	405.1593	455.7267	528.5033	537.3122	672.7501	698.6035	769.6118	791.3765	831.7773	849.0427	864.9367	909.7554	936.0137	958.1712	1008.5252	1018.9508	1029.7021	1054.0322	1073.9414	1080.4504	1111.9088	1148.5947	1173.5166	1203.3056	1215.8863	1235.7601	1273.0751	1284.839	1315.0336	1335.6525	1356.1266	1383.5233	1433.4531	1475.943	1493.513	2987.0427	3062.4755	3071.9395	3126.5528	3129.2042	3134.8017	3158.6835	3448.9145	3801.7157
OCC12CC3NC1C3O2	OC[C@]12C[C@@H]3N[C@H]1[C@@H]3O2	
InChI=1S/C6H9NO2/c8-2-6-1-3-4(9-6)5(6)7-3/h3-5,7-8H,1-2H2	InChI=1S/C6H9NO2/c8-2-6-1-3-4(9-6)5(6)7-3/h3-5,7-8H,1-2H2/t3-,4+,5-,6+/m0/s1
