18
gdb 104838	2.12401	1.47851	1.35024	4.9233	68.22	-0.2508	0.0176	0.2684	1069.442	0.148061	-476.232286	-476.223391	-476.222447	-476.265786	33.048	
O	 0.2640781313	 1.337214852	 0.1484727591	-0.422777
C	 0.1162414745	-0.0408001199	-0.0884888965	-0.0955
C	-1.3423712604	-0.5229399036	-0.071478318	 0.082043
C	-2.193598429	 0.1350628687	-1.1640939576	-0.128423
O	-2.3219749412	 1.5313855597	-0.9126048146	-0.424639
C	-1.4970020308	-2.0649419425	 0.1250304105	-0.229339
N	-2.0587263216	-1.7736339276	 1.453444342	-0.328464
C	-2.0790606599	-0.4141385354	 1.2845607907	 0.427875
O	-2.5855319532	 0.4944350344	 1.8980325869	-0.382604
H	-0.4392303791	 1.7868942243	-0.3423246902	 0.291964
H	 0.555358327	-0.3404335571	-1.0586300549	 0.083133
H	 0.6817739917	-0.5621033067	 0.693221095	 0.106073
H	-1.7187884254	 0.0370242844	-2.1467914623	 0.117238
H	-3.1822879969	-0.3454545039	-1.2208317401	 0.100803
H	-2.6724336759	 1.6202922688	-0.011832569	 0.30857
H	-2.2052626979	-2.5428438618	-0.5599212419	 0.117954
H	-0.5634846814	-2.6345417633	 0.1470554478	 0.121224
H	-2.574365212	-2.3588472204	 2.0952845832	 0.25487
103.8835	116.3957	147.9699	198.8432	236.9745	288.0681	301.8141	397.2195	439.332	470.971	498.4976	522.5136	696.6719	737.9238	762.6862	801.8904	918.4244	941.6045	977.4944	986.0777	1043.6018	1055.2676	1110.6099	1150.3301	1165.6283	1192.1834	1206.379	1261.7896	1279.4703	1323.7785	1361.3391	1389.4853	1399.4986	1449.4698	1474.8661	1504.4596	1518.5052	1523.1085	1863.5644	2926.3606	2985.1629	3041.1052	3047.2292	3065.5776	3092.6579	3600.5633	3695.4063	3718.5678
OCC1(CO)CNC1=O	OCC1(CO)CNC1=O	
InChI=1S/C5H9NO3/c7-2-5(3-8)1-6-4(5)9/h7-8H,1-3H2,(H,6,9)	InChI=1S/C5H9NO3/c7-2-5(3-8)1-6-4(5)9/h7-8H,1-3H2,(H,6,9)
