18
gdb 6168	3.59232	1.42832	1.27515	4.7095	69.83	-0.2384	0.0226	0.261	1034.2706	0.152357	-381.13818	-381.128923	-381.127979	-381.172061	33.47	
C	-0.0427715043	 1.5908146446	-0.3922765137	-0.446926
C	-0.0554871667	 0.1121326109	-0.065192053	 0.323279
C	-1.2508899668	-0.6509970151	-0.6044171095	-0.453511
N	 1.2556297331	-0.5392415189	-0.090605338	-0.338806
C	 0.5662900239	-0.4072046505	 1.2055354263	-0.183091
C	 1.2065339186	 0.4865903004	 2.2369877563	 0.434465
N	 0.8666699938	 0.1652943202	 3.5244710073	-0.534717
O	 1.9502604579	 1.4112671058	 1.9767913655	-0.360174
H	 0.8468772011	 2.0648947752	 0.020360816	 0.171318
H	-0.0492034968	 1.7281286523	-1.4794725597	 0.111148
H	-0.932890293	 2.0849286202	 0.0130917284	 0.105768
H	-1.2782572852	-0.5904078304	-1.6986841942	 0.126653
H	-1.2162151449	-1.7091256038	-0.3238503044	 0.107831
H	-2.1907775356	-0.2316596383	-0.2293518732	 0.124726
H	 1.1771232831	-1.5001108568	-0.4166693852	 0.227591
H	 0.099993428	-1.3034448243	 1.613623478	 0.068432
H	 0.1735615071	-0.5283176012	 3.7425764489	 0.255425
H	 1.1783513767	 0.7802939497	 4.258131324	 0.26059
52.9265	119.9029	157.4322	178.3982	206.5482	242.0032	320.7543	353.5923	387.6523	436.3225	449.3927	564.9603	641.5601	680.4874	768.1154	823.3626	877.6851	946.4099	963.5715	974.462	1023.0206	1073.9464	1083.6568	1110.8185	1154.4982	1199.4894	1282.939	1320.3713	1359.0654	1411.1285	1421.1838	1464.9169	1479.9828	1487.2409	1504.7287	1510.0239	1615.9469	1798.9476	3022.7334	3033.2761	3087.2165	3091.3951	3096.5697	3102.987	3163.6429	3488.3812	3603.8573	3739.535
CC1(C)NC1C(N)=O	CC1(C)N[C@H]1C(=O)N	
InChI=1S/C5H10N2O/c1-5(2)3(7-5)4(6)8/h3,7H,1-2H3,(H2,6,8)	InChI=1S/C5H10N2O/c1-5(2)3(7-5)4(6)8/h3,7H,1-2H3,(H2,6,8)/t3-/m0/s1
