14
gdb 49869	2.48507	1.47737	1.00898	1.9394	64.3	-0.2805	-0.0547	0.2258	1111.0672	0.100378	-473.886112	-473.878292	-473.877348	-473.919758	27.778	
N	-0.2439108458	 1.2176610804	 0.0506902929	-0.50604
C	-0.1289053249	-0.0293520458	 0.0044314592	 0.412444
C	-1.2407036331	-1.048632557	 0.1029464152	-0.328615
C	-0.5205654159	-2.3937222998	 0.0974975205	-0.259324
C	-0.9636993284	-3.3686323643	-0.9952119593	 0.149409
O	-1.895367481	-3.1682256523	-1.725081026	-0.218786
C	 0.9571886494	-2.0478635728	-0.0985629103	 0.423378
O	 1.8794421121	-2.7946330685	-0.2096938522	-0.315106
O	 1.0947758887	-0.6845132556	-0.1527357217	-0.20696
H	 0.6599733581	 1.6826218785	-0.042538952	 0.242552
H	-1.8363058265	-0.8686669423	 0.9987840672	 0.1552
H	-1.9087706906	-0.9673979037	-0.7594192154	 0.176552
H	-0.5897945725	-2.9411715752	 1.0457024176	 0.150461
H	-0.3432560396	-4.2841618215	-1.0595181057	 0.124835
40.3903	99.7016	138.128	212.7113	288.9238	382.5107	511.9788	527.177	596.3577	629.4932	660.4374	717.3617	798.2215	886.9037	910.3198	925.5258	964.3884	1042.4704	1058.3468	1094.7713	1139.4613	1185.1611	1208.7154	1297.4781	1300.9565	1325.7124	1409.6445	1472.6101	1799.1066	1835.2992	1903.7733	2949.0754	3047.9921	3079.4844	3130.5768	3489.6144
N=C1CC(C=O)C(=O)O1	[NH][C]1C[C@@H](C=O)C(=O)O1	
InChI=1S/C5H5NO3/c6-4-1-3(2-7)5(8)9-4/h2-3,6H,1H2	InChI=1S/C5H5NO3/c6-4-1-3(2-7)5(8)9-4/h2-3,6H,1H2/t3-/m0/s1
