15
gdb 43210	3.03894	1.07674	0.95743	5.6681	76.14	-0.2594	-0.0801	0.1793	1246.1051	0.112645	-416.809427	-416.800686	-416.799741	-416.843629	30.625	
O	 0.0982052766	 0.2541843526	 0.8898353673	-0.287419
C	 0.1134559216	 1.3026075835	 0.320436918	 0.314112
C	-0.9682611643	 2.3794376742	-0.0368396042	-0.162217
C	-1.7783723066	 2.9764122794	 1.1139514575	-0.174331
N	-0.8968038724	 3.564627715	 2.1224026047	-0.519704
H	-1.4453857109	 4.075368652	 2.8062034167	 0.238207
H	-0.4139733829	 2.8330767903	 2.6370445186	 0.241844
C	 0.2400151051	 3.1534578173	-0.5562176788	-0.155432
C	 1.1619215514	 2.2000678511	-0.2918785011	 0.139843
C	 2.5576236997	 2.0894620583	-0.4882499823	 0.201442
N	 3.6991553293	 1.9597412138	-0.63393012	-0.333441
H	-1.6460161076	 2.0335304799	-0.8268629974	 0.116534
H	-2.4146720938	 3.7751310046	 0.7151123157	 0.115763
H	-2.4543087562	 2.1913748369	 1.4912139627	 0.111416
H	 0.3287732909	 4.1409275112	-0.9895290075	 0.153382
63.5091	84.1088	136.9895	177.5729	223.2222	262.0397	278.8468	413.085	464.3638	546.9805	590.0789	650.8823	763.245	797.414	849.2023	879.0787	909.9718	929.8688	1013.837	1034.4821	1104.6932	1136.2197	1175.2896	1222.8713	1245.2532	1302.2391	1360.2644	1420.046	1500.0208	1635.0317	1664.5682	1892.5035	2342.6659	2969.5636	3042.1641	3056.1428	3235.7841	3495.7268	3575.6047
O=C1C2C[NH2+]C2[C-]1C#N	O=C1[C@@H](CN)C=C1C#N	
InChI=1S/C6H5N2O/c7-1-3-5-4(2-8-5)6(3)9/h4-5,8H,2H2/q-1/p+1	InChI=1S/C6H6N2O/c7-2-4-1-5(3-8)6(4)9/h1,4H,2,7H2/t4-/m1/s1
