14
gdb 47964	3.1156	0.8304	0.69092	5.9878	81.21	-0.276	-0.074	0.2021	1547.887	0.099085	-399.52128	-399.512362	-399.511417	-399.556167	30.611	
O	-0.1590524873	 0.0675925706	 0.36105073	-0.221741
C	 0.0140490731	 1.1592986814	-0.1282800721	 0.014192
C	 1.2550820987	 1.8885217577	-0.0751248731	 0.092734
C	 2.2812188956	 2.5263382975	-0.0483241824	 0.014837
C	 3.4943343226	 3.2857370557	-0.0195310663	 0.019043
C	 3.8206292815	 4.1855214056	-1.2297059077	-0.276009
C	 3.3909017991	 4.8240301685	 0.0393496425	-0.276014
C	 4.6167891515	 2.6842870168	 0.6631554799	 0.230685
N	 5.5292021263	 2.224276749	 1.2035888998	-0.328554
H	-0.7958196442	 1.6907822406	-0.6683925777	 0.102111
H	 4.8658259926	 4.2321950893	-1.5099517757	 0.160845
H	 3.118786795	 4.1285858049	-2.0522131696	 0.153522
H	 2.3853054724	 5.21845288	 0.1138676503	 0.153512
H	 4.1337282331	 5.3200161125	 0.6520164121	 0.160838
58.2409	67.0746	128.5672	173.6168	204.0112	221.1644	272.5506	444.4255	474.0173	499.3177	593.0124	603.471	694.0207	786.1564	820.087	867.6393	963.3337	975.2006	1017.6517	1072.2729	1080.2054	1103.4183	1200.7392	1269.1825	1335.6937	1422.067	1464.3653	1491.0626	1768.5977	2320.9674	2360.9317	2918.8594	3156.1415	3158.6382	3246.4505	3260.2729
O=CC#CC1(CC1)C#N	O=CC#CC1(CC1)C#N	
InChI=1S/C7H5NO/c8-6-7(3-4-7)2-1-5-9/h5H,3-4H2	InChI=1S/C7H5NO/c8-6-7(3-4-7)2-1-5-9/h5H,3-4H2
