21
gdb 112681	3.25078	1.01016	0.81214	2.3343	79.59	-0.2365	-0.0165	0.2201	1449.3637	0.181187	-424.257197	-424.247589	-424.246644	-424.292011	35.216	
C	-0.0427899381	 1.4458807534	 0.0544551829	-0.240406
O	 0.0074531828	 0.0478128661	-0.1216649524	-0.241606
C	-1.2485885178	-0.5874288011	-0.044964311	 0.126904
C	-1.1028405503	-2.0510012737	-0.490778027	-0.257877
C	-2.3444815224	-2.7576564523	 0.0729666331	-0.082744
C	-2.2647822044	-4.2719656302	 0.250307496	-0.405463
C	-2.6291163931	-2.0037390897	 1.3818887221	 0.399766
O	-3.3459352259	-2.3919497198	 2.2679901862	-0.321015
C	-1.84344588	-0.6885957219	 1.3742231252	-0.352203
H	 0.9720274933	 1.8255517137	-0.0859251029	 0.129576
H	-0.7057593407	 1.9243341599	-0.6836082596	 0.105124
H	-0.3873169337	 1.7280779968	 1.0602889312	 0.108807
H	-1.9646058509	-0.0683681496	-0.705474021	 0.06738
H	-0.994658486	-2.1459332312	-1.5735817464	 0.10701
H	-0.1933975623	-2.4560114808	-0.0295799473	 0.113536
H	-3.2054748828	-2.5225830347	-0.5740750824	 0.104105
H	-1.3890926775	-4.5485554378	 0.8470473862	 0.119427
H	-3.1538667461	-4.6362356198	 0.7712843424	 0.138763
H	-2.1901685015	-4.780991527	-0.7149905992	 0.114676
H	-1.0232860901	-0.7850224446	 2.0983590843	 0.140216
H	-2.4688554225	 0.1478484143	 1.6938246496	 0.126026
72.0588	85.7812	112.0331	191.1962	202.3734	238.2991	262.9522	336.9637	386.3614	436.8446	499.3683	538.7323	565.3534	611.5772	730.3525	857.5621	888.2111	909.1599	948.6441	999.6216	1009.2811	1034.4914	1118.806	1143.6244	1149.5166	1164.1443	1177.026	1186.7302	1201.7734	1239.0292	1255.5017	1284.6775	1310.806	1345.9148	1356.211	1395.3903	1408.1127	1443.8389	1481.8692	1490.8067	1495.0129	1498.699	1500.8887	1510.4783	1842.5733	2950.4024	2976.704	2980.1118	3025.3735	3035.7208	3039.2217	3043.002	3104.1276	3107.6544	3109.9693	3116.001	3124.9192
COC1CC(C)C(=O)C1	CO[C@H]1C[C@@H](C)C(=O)C1	
InChI=1S/C7H12O2/c1-5-3-6(9-2)4-7(5)8/h5-6H,3-4H2,1-2H3	InChI=1S/C7H12O2/c1-5-3-6(9-2)4-7(5)8/h5-6H,3-4H2,1-2H3/t5-,6+/m1/s1
