18
gdb 72821	2.63749	1.56426	1.31975	2.8994	71.58	-0.2245	-0.0271	0.1974	1033.4682	0.147432	-439.079396	-439.07118	-439.070236	-439.112363	31.095	
C	-0.206643921	 1.5863822153	 0.0229948668	-0.451002
C	 0.0365839846	 0.0939068147	 0.0353050156	 0.417357
C	-1.1605887687	-0.8514740253	 0.3383408772	-0.209032
N	-0.2826814195	-1.6464484306	 1.2315580831	-0.324235
C	 0.7690664998	-0.5940584043	 1.2150896388	-0.199163
C	 2.0382352728	-1.1804424162	 0.6077324109	 0.421382
O	 3.0203889646	-1.5747653257	 1.1766056819	-0.310689
C	 1.7951753639	-1.1828834988	-0.9040423373	-0.195335
O	 0.7492476006	-0.2591863841	-1.1589640176	-0.313453
H	 0.743116492	 2.1293048867	 0.0033855859	 0.12568
H	-0.7724412035	 1.8639410355	-0.8722356148	 0.133782
H	-0.7743435954	 1.9023267143	 0.9027349973	 0.116153
H	-1.9873160819	-0.3388945302	 0.8472887444	 0.09557
H	-1.5538486638	-1.4066611841	-0.5190569713	 0.112036
H	-0.6509763143	-1.8722504969	 2.146673949	 0.231005
H	 0.9352190425	-0.0287902374	 2.1355504272	 0.083964
H	 2.6972963315	-0.8776549843	-1.4437909868	 0.133448
H	 1.5276244355	-2.1999321285	-1.2266155602	 0.132533
75.3264	103.4208	201.1157	213.9868	286.7918	337.7644	375.914	455.3682	544.15	589.813	598.5703	651.0651	712.8303	814.0308	859.8209	893.6399	929.7038	961.7005	997.8505	1012.5948	1025.1839	1095.3984	1101.1494	1141.8543	1177.8815	1194.373	1210.0331	1220.3549	1245.0369	1296.3429	1341.1841	1352.7219	1374.4844	1414.0929	1483.7039	1485.577	1490.2578	1506.5802	1862.5039	3002.5103	3013.2291	3039.2283	3076.6739	3078.1203	3080.6969	3110.8632	3117.8752	3561.6186
CC12CNC1C(=O)CO2	C[C@]12CN[C@H]1C(=O)CO2	
InChI=1S/C6H9NO2/c1-6-3-7-5(6)4(8)2-9-6/h5,7H,2-3H2,1H3	InChI=1S/C6H9NO2/c1-6-3-7-5(6)4(8)2-9-6/h5,7H,2-3H2,1H3/t5-,6-/m0/s1
