18
gdb 17190	4.92193	1.5959	1.43486	1.8996	72.45	-0.253	0.0982	0.3512	925.2272	0.154075	-347.726092	-347.719061	-347.718116	-347.756915	28.025	
C	-0.1244150938	 1.5886755368	 0.0090768998	-0.441753
C	 0.0268817537	 0.0750936879	 0.0242570537	 0.063586
C	 1.1734565866	-0.6402996111	-0.774577993	-0.165407
C	 2.1710322833	-0.1808082487	 0.340082188	-0.242373
C	 0.8941957182	-0.6492244897	 1.1140452023	-0.165378
C	 0.8917841982	-1.8382891307	 0.1430915607	 0.56168
C	 0.1907957468	-3.1068685739	 0.0334468436	-0.322482
O	 1.6261090042	-3.0295119308	 0.2460424971	-0.306562
H	 0.817036141	 2.1242201585	 0.149499852	 0.120774
H	-0.5531373443	 1.9171263401	-0.9440485987	 0.118763
H	-0.8090609394	 1.9091201284	 0.8019928818	 0.11877
H	-0.9537839396	-0.3927601793	-0.122942121	 0.06561
H	 1.3316170896	-0.6447141059	-1.8532711459	 0.075181
H	 3.0624111089	-0.7969447956	 0.4689653898	 0.114265
H	 2.4164323731	 0.8799596586	 0.3813987392	 0.094809
H	 0.7334198069	-0.6638177179	 2.1922631343	 0.075174
H	-0.3757243572	-3.4994657233	 0.8767390666	 0.117671
H	-0.1068955761	-3.4908721233	-0.9413051604	 0.117671
173.671	179.6507	230.194	287.9614	367.6256	403.595	462.6019	600.6486	647.4381	732.425	788.3524	798.4083	872.7188	881.0284	899.0014	988.2085	1003.6338	1023.5896	1027.8239	1083.7557	1086.8804	1110.0984	1112.4379	1125.0963	1137.4706	1154.3265	1168.6454	1207.335	1216.9341	1248.5443	1254.7448	1405.0262	1420.5169	1459.0794	1495.1266	1495.8466	1522.6432	1563.3618	3031.0304	3038.102	3082.7447	3083.3307	3091.3903	3111.9423	3117.0447	3121.6508	3149.5164	3167.7477
CC1C2CC1C21CO1	C[C@H]1[C@H]2C[C@@H]1[C@]12CO1	
InChI=1S/C7H10O/c1-4-5-2-6(4)7(5)3-8-7/h4-6H,2-3H2,1H3	InChI=1S/C7H10O/c1-4-5-2-6(4)7(5)3-8-7/h4-6H,2-3H2,1H3/t4-,5+,6-,7+
