19
gdb 117145	3.10496	0.887	0.69905	0.7598	77.23	-0.2594	-0.0217	0.2376	1590.5922	0.157554	-456.349067	-456.33891	-456.337966	-456.385092	35.171	
C	-0.1506830652	 1.1929833876	 0.2546300056	-0.23234
O	-0.1403708197	-0.2120377936	 0.152032866	-0.204516
C	 0.5622566772	-0.6552450863	-0.966722482	-0.144329
C	 0.5370303926	-2.177758935	-1.0238283478	 0.3716
N	-0.0756542413	-2.8194323961	-0.1174724058	-0.480784
N	 1.2178227218	-2.7748110079	-2.1121496003	-0.135497
C	 1.2286020676	-4.2319717473	-2.214207103	-0.375348
C	 1.8799558019	-2.0626063536	-3.0971863401	 0.16385
O	 2.4635632417	-2.5643047472	-4.0306144824	-0.322115
H	 0.8667488374	 1.6051908367	 0.3487324158	 0.105881
H	-0.6328286367	 1.664628453	-0.6165893773	 0.105896
H	-0.7188647567	 1.4435078632	 1.1527202558	 0.137126
H	 0.1231980589	-0.2461083007	-1.8949516617	 0.108682
H	 1.6107971482	-0.3067819277	-0.9367804409	 0.108662
H	-0.0290851819	-3.8274731666	-0.2528917095	 0.22178
H	 0.2099206533	-4.6211892107	-2.3077296509	 0.143653
H	 1.7982386975	-4.4892033431	-3.1049910464	 0.177711
H	 1.7045015529	-4.677784646	-1.3352187329	 0.143678
H	 1.8312601805	-0.9739973387	-2.9585874822	 0.106411
42.5026	90.4035	110.423	149.638	174.8651	216.6452	245.8707	286.3404	334.318	355.0003	389.4785	425.0115	520.1672	553.4398	736.2248	860.3281	882.2614	947.3021	1016.612	1029.6266	1051.8139	1086.5149	1154.5553	1175.3285	1184.5901	1205.8881	1238.2764	1292.9194	1309.5902	1363.2283	1427.4675	1446.2088	1463.5073	1479.232	1486.7956	1497.1264	1503.1036	1513.6265	1527.801	1721.3006	1797.8731	2931.2311	2952.9388	2969.4975	3013.0467	3039.6523	3049.0174	3100.4801	3124.9142	3175.5041	3508.9119
COCC(=N)N(C)C=O	COCC(=N)N(C)C=O	
InChI=1S/C5H10N2O2/c1-7(4-8)5(6)3-9-2/h4,6H,3H2,1-2H3	InChI=1S/C5H10N2O2/c1-7(4-8)5(6)3-9-2/h4,6H,3H2,1-2H3
