25
gdb 115500	2.31818	1.0868	0.78729	1.1614	89.64	-0.2458	0.0843	0.3301	1575.0613	0.228948	-389.520039	-389.509656	-389.508711	-389.556432	38.114	
C	-0.0028245285	 1.5362987056	 0.1372464651	-0.382173
C	 0.0253719527	 0.0064287888	 0.0892554631	-0.19686
C	-1.360819108	-0.622818691	 0.0888296432	 0.166841
C	-1.3884473503	-2.1679143653	 0.033795997	-0.248516
C	-2.5844270216	-2.5495605322	 0.9406209538	-0.248501
C	-3.1281625154	-1.1867726038	 1.4287401713	 0.166837
C	-3.6347126424	-1.161441296	 2.8640934503	-0.196859
C	-4.16828109	 0.2071825608	 3.2951086116	-0.382174
O	-2.0316675107	-0.2881859226	 1.2990247745	-0.274695
H	 1.0099588971	 1.9504319524	 0.1527802947	 0.107267
H	-0.5189106869	 1.9492916191	-0.7368186427	 0.109877
H	-0.5294804209	 1.8827051449	 1.030183708	 0.134279
H	 0.5556815968	-0.3340175393	-0.8090694248	 0.093664
H	 0.5775796163	-0.3876929314	 0.9516495477	 0.098955
H	-1.9411437947	-0.2209174173	-0.7622458572	 0.05379
H	-1.4978825227	-2.5317906818	-0.9910782384	 0.099029
H	-0.4525601778	-2.5757156944	 0.4276643869	 0.101191
H	-3.3516941084	-3.123440753	 0.4145874593	 0.099027
H	-2.2534029644	-3.1503098606	 1.7931722505	 0.10119
H	-3.9388914332	-0.858436184	 0.7523190551	 0.053788
H	-4.4198100662	-1.9216685569	 2.9630700117	 0.093665
H	-2.811276306	-1.4689523942	 3.5208871868	 0.098956
H	-4.5072513461	 0.1900095708	 4.3354365005	 0.107268
H	-3.3910299661	 0.9697009808	 3.1994670869	 0.134278
H	-5.0164220825	 0.5141567506	 2.6727570849	 0.109877
32.0994	89.6228	111.1183	115.1736	174.1215	210.1892	235.0331	244.679	379.4095	409.7406	451.4772	459.9598	609.1079	633.1572	762.2434	792.0464	818.8992	877.5826	882.1963	954.3767	961.8373	967.9011	1009.9575	1011.5683	1020.7364	1057.2222	1101.8628	1127.1946	1139.8298	1164.3528	1169.1848	1215.5817	1257.069	1270.7045	1299.0073	1302.3045	1306.2647	1340.0726	1343.6514	1354.4768	1393.2581	1400.0556	1407.474	1408.4919	1431.1759	1473.9263	1474.7862	1487.1426	1496.3813	1497.3846	1507.7105	1508.3553	1509.439	2922.4976	2929.6889	3022.726	3023.0717	3035.0704	3035.3488	3048.0177	3059.6802	3060.2509	3060.6769	3088.6031	3099.2298	3099.4737	3108.8751	3122.1	3122.4849
CCC1CCC(CC)O1	CC[C@H]1CC[C@@H](CC)O1	
InChI=1S/C8H16O/c1-3-7-5-6-8(4-2)9-7/h7-8H,3-6H2,1-2H3	InChI=1S/C8H16O/c1-3-7-5-6-8(4-2)9-7/h7-8H,3-6H2,1-2H3/t7-,8+
