14
gdb 5021	3.38021	2.31532	1.38571	7.041	66.48	-0.2307	-0.0207	0.2101	840.6768	0.109338	-378.786231	-378.77935	-378.778406	-378.817295	25.597	
C	-0.0251017082	 1.5157675333	-0.0066392401	-0.473649
C	-0.0438854965	 0.0187567346	 0.0033999584	 0.145086
C	-1.1683997182	-0.7097818895	-0.1515019698	-0.072947
N	-1.109075999	-2.087336737	-0.1311360166	-0.297976
C	 0.0941336916	-2.7031624022	 0.0463950109	 0.099802
N	 1.2168792189	-2.0977357066	 0.2020476629	-0.307646
C	 1.2442416337	-0.6846598569	 0.1937264994	 0.325597
O	 2.2879294462	-0.0760259127	 0.3377977326	-0.356777
H	 0.6367418726	 1.8822498726	-0.7980247976	 0.148327
H	-1.0243805367	 1.9352818672	-0.1535784573	 0.10698
H	 0.3885308298	 1.8970075427	 0.9326289903	 0.148308
H	-2.1523258639	-0.2782645534	-0.2960716418	 0.130889
H	-1.9447554945	-2.6367634873	-0.2479047757	 0.271185
H	 0.0550233442	-3.7919551148	 0.0498209545	 0.132822
107.6724	160.6867	272.7246	286.3579	423.8439	462.7014	496.7353	534.0096	584.3609	595.9755	742.3031	812.3804	891.3994	909.7075	963.7937	1017.9717	1045.498	1066.1178	1103.8239	1227.7457	1246.5692	1384.4804	1415.7654	1424.9397	1465.5829	1485.8987	1519.9971	1636.4358	1710.2504	1761.4163	3037.8933	3097.7255	3117.4164	3138.6082	3196.4774	3648.6026
CC1=CNC=NC1=O	Cc1c[nH]cnc1=O	
InChI=1S/C5H6N2O/c1-4-2-6-3-7-5(4)8/h2-3H,1H3,(H,6,7,8)	InChI=1S/C5H6N2O/c1-4-2-6-3-7-5(4)8/h2-3H,1H3,(H,6,7,8)
