20
gdb 84036	2.74962	1.45393	1.17452	1.9136	74.39	-0.2238	0.0716	0.2954	1110.987	0.172997	-440.236495	-440.228529	-440.227585	-440.268726	31.322	
C	-0.2976639305	 1.5236160907	-0.0658219696	-0.321262
N	 0.0181445023	 0.1093899656	 0.0519733822	-0.105786
C	 1.3393347839	-0.427835395	-0.2788869576	-0.023884
C	 2.5482922852	 0.4193226201	-0.6525963271	-0.120797
O	 3.7114456594	 0.0385147467	 0.0742883948	-0.229593
C	 3.804051096	 0.5920833177	 1.3592862814	 0.018896
O	 2.9349444414	 0.0519850733	 2.3180253324	-0.229593
C	 1.5727262346	 0.4362469095	 2.1663482425	-0.120797
C	 0.8502198881	-0.419348986	 1.1344303205	-0.023884
H	 0.4990325329	 2.2311348468	 0.2056395922	 0.105016
H	-0.5843329918	 1.7287257018	-1.1024116841	 0.127548
H	-1.1629625011	 1.7387756781	 0.5695770421	 0.127547
H	 1.2920222622	-1.3746046995	-0.8145012097	 0.096698
H	 2.7925461329	 0.2702606106	-1.7083760096	 0.114115
H	 2.3542026567	 1.4914833341	-0.5100204089	 0.092594
H	 4.8141442365	 0.3692469087	 1.7101921373	 0.117783
H	 3.652458588	 1.6873293235	 1.3002485671	 0.071991
H	 1.1116022607	 0.2994212985	 3.1487908737	 0.114115
H	 1.51226097	 1.5060897598	 1.922818184	 0.092594
H	 0.4784546425	-1.360490835	 1.5363459464	 0.096698
120.2723	163.355	230.6121	280.246	292.5532	352.8287	371.6325	453.4613	475.0587	506.8285	604.7347	615.341	731.0536	846.5703	860.8476	930.2179	945.8811	996.364	1026.7695	1045.6946	1077.2208	1098.2257	1132.2803	1146.1668	1166.049	1179.6546	1192.8487	1195.5015	1278.0395	1303.1455	1347.9618	1349.0492	1370.7714	1400.8031	1412.627	1440.0406	1448.6941	1457.4277	1483.1733	1493.497	1495.5911	1509.7705	1511.4774	2918.591	2988.1679	3004.1982	3018.3784	3065.4759	3079.754	3081.8585	3099.802	3108.1698	3111.1539	3121.208
CN1C2COCOCC12	CN1[C@H]2COCOC[C@@H]12	
InChI=1S/C6H11NO2/c1-7-5-2-8-4-9-3-6(5)7/h5-6H,2-4H2,1H3	InChI=1S/C6H11NO2/c1-7-5-2-8-4-9-3-6(5)7/h5-6H,2-4H2,1H3/t5-,6+,7?
