17
gdb 98490	2.80694	1.19345	0.92522	1.781	75.53	-0.2521	-0.0293	0.2228	1283.7558	0.131654	-421.784461	-421.774797	-421.773853	-421.819546	34.593	
C	-0.268165009	 1.5771925491	 0.3033558248	-0.386561
C	-0.3526677217	 0.0778730702	 0.5777647348	-0.284202
C	 1.0113656792	-0.5627705859	 0.7604444822	 0.294538
O	 2.0508432779	 0.0267086474	 0.5949761675	-0.290929
C	 1.0311042452	-2.0368261135	 1.1591231068	 0.111775
C	 0.3369467978	-2.4292766316	 2.4157856404	-0.200937
O	-0.2455469267	-2.7057389632	 1.1562905053	-0.255118
C	 2.1610047008	-2.8059529309	 0.7075727959	 0.280628
C	 3.0981119187	-3.4453061996	 0.3139838573	-0.386861
H	 0.3406508329	 1.7769015185	-0.5815343336	 0.137057
H	-1.2661511116	 1.9933001001	 0.1415797046	 0.112934
H	 0.1946787724	 2.1052450534	 1.1414316391	 0.128764
H	-0.9774329754	-0.1381169649	 1.4526868359	 0.126307
H	-0.8468859147	-0.4562912637	-0.2448670588	 0.144821
H	 0.7223647656	-3.2877596939	 2.9617410072	 0.139588
H	-0.1572322333	-1.6656247822	 3.0148016746	 0.124891
H	 3.9297106818	-4.0066613892	-0.0347771439	 0.203303
53.2993	67.3202	128.1725	187.7162	200.9424	225.2467	274.5703	298.4194	406.9389	451.7517	507.744	573.9345	594.6476	631.9345	673.9679	713.5018	797.6218	847.5052	864.941	953.2965	974.4712	1017.1517	1088.5274	1107.2532	1138.6412	1166.8883	1258.3292	1272.9131	1332.2104	1376.6411	1415.7034	1436.198	1493.4299	1498.52	1518.1175	1813.1356	2247.0416	3034.8282	3052.4491	3062.7868	3089.3616	3122.5669	3130.9628	3185.761	3502.0083
CCC(=O)C1(CO1)C#C	CCC(=O)[C@]1(CO1)C#C	
InChI=1S/C7H8O2/c1-3-6(8)7(4-2)5-9-7/h2H,3,5H2,1H3	InChI=1S/C7H8O2/c1-3-6(8)7(4-2)5-9-7/h2H,3,5H2,1H3/t7-/m1/s1
