16
gdb 25379	3.6829	1.29253	0.96853	5.295	82.99	-0.2201	-0.0361	0.184	1160.8515	0.126048	-400.768993	-400.761537	-400.760593	-400.801429	27.584	
O	-0.1142139246	-0.1061580462	 0.2257971747	-0.289937
C	-0.0298280758	 1.0837397716	-0.0044160792	 0.07638
C	 1.2059469339	 1.8246293826	-0.1092808479	 0.140989
C	 2.5414572582	 1.4118328785	 0.0175691098	-0.181844
C	 3.4095224308	 2.5124200167	-0.1707458932	-0.31921
C	 2.5687237167	 3.5912933797	-0.4107795612	 0.336102
C	 2.1889740782	 5.0309215112	-0.7156234985	-0.376771
C	 0.7038945978	 4.500547444	-0.6630191028	-0.17397
N	 1.2867033201	 3.1770168707	-0.3712203375	-0.043788
H	-0.9439878815	 1.7050884388	-0.1562564347	 0.048818
H	 2.8289588449	 0.3930589461	 0.2296083008	 0.128717
H	 4.4869865404	 2.5025860283	-0.1329153272	 0.110341
H	 2.436425744	 5.7667754158	 0.053272114	 0.134366
H	 2.5002905599	 5.4138838617	-1.6904627642	 0.134488
H	 0.0867424135	 4.89865349	 0.1461620682	 0.13756
H	 0.1539051034	 4.5412937406	-1.6064212512	 0.137757
80.5798	140.9689	161.8208	236.665	284.8593	387.4518	541.6299	616.0694	648.1315	680.1938	778.6843	798.6755	810.9449	839.421	866.4006	906.9903	1024.641	1034.3934	1045.995	1058.0862	1138.9464	1140.1701	1178.2329	1225.4909	1240.1128	1273.9136	1336.1216	1385.3556	1431.6226	1464.5447	1482.5521	1490.9015	1524.8581	1564.8381	1773.8843	2845.8205	3063.5691	3069.9313	3110.8603	3124.9931	3252.0453	3267.2077
O=CC1=CC=C2CCN12	O=Cc1ccc2CCn12	
InChI=1S/C7H7NO/c9-5-7-2-1-6-3-4-8(6)7/h1-2,5H,3-4H2	InChI=1S/C7H7NO/c9-5-7-2-1-6-3-4-8(6)7/h1-2,5H,3-4H2
