19
gdb 65481	3.51575	1.10822	0.98797	4.8257	80.67	-0.2336	0.0253	0.2589	1251.5207	0.158747	-382.049646	-382.040865	-382.039921	-382.083043	33.781	
C	-0.3049525749	 1.6138233751	 0.0187965741	-0.447837
C	-0.0269063623	 0.107727371	-0.0184571018	 0.175471
C	 0.7940235418	-0.3588477005	-1.2677658539	-0.365235
C	 1.9792754651	-0.4744874645	-0.3085494056	 0.399715
C	 3.1748036701	-1.3631727078	-0.3810792288	-0.324691
C	 3.336348151	 0.1484104326	-0.4487526737	-0.334294
N	 1.09141142	-0.3486507181	 0.8558057646	-0.37542
C	-1.2687880508	-0.6411354539	 0.2240398162	 0.262632
N	-2.2555575525	-1.2179079836	 0.39533841	-0.343388
H	 0.6148179136	 2.1622736424	-0.2043911122	 0.12867
H	-1.0653955816	 1.8900243375	-0.7177930649	 0.141043
H	-0.6658978467	 1.9157781427	 1.0069476659	 0.137537
H	 0.4575009429	-1.313268144	-1.675274655	 0.132963
H	 0.8686488048	 0.3788762017	-2.0685673011	 0.118007
H	 3.4796689605	-1.8626118655	 0.5325739308	 0.124618
H	 3.3373483997	-1.9399379971	-1.2859428342	 0.118728
H	 3.608415919	 0.5998431655	-1.3980643542	 0.11719
H	 3.7602983719	 0.647063213	 0.4180715809	 0.114536
H	 1.3700597082	 0.3390796533	 1.5500274129	 0.219755
56.2174	152.4257	184.9519	236.3164	260.7317	319.8316	338.3203	362.3027	422.0397	475.0946	575.4759	590.1945	676.9208	734.8724	763.3227	826.3171	900.9912	913.4082	919.2532	927.3238	944.5133	979.6846	1011.8773	1052.4209	1072.4497	1115.9388	1153.4138	1170.5786	1185.9939	1220.1997	1262.6706	1283.0302	1342.3672	1406.2061	1409.4311	1456.0864	1482.1988	1490.1122	1493.5606	1504.7994	2354.6703	3037.547	3078.4405	3113.8056	3117.3249	3119.538	3128.7378	3137.1159	3198.8743	3218.9089	3502.9019
CC1(CC2(CC2)N1)C#N	C[C@]1(CC2(CC2)N1)C#N	
InChI=1S/C7H10N2/c1-6(5-8)4-7(9-6)2-3-7/h9H,2-4H2,1H3	InChI=1S/C7H10N2/c1-6(5-8)4-7(9-6)2-3-7/h9H,2-4H2,1H3/t6-/m0/s1
