17
gdb 21199	6.26835	1.29364	1.097	1.4256	73.42	-0.1855	0.035	0.2205	1093.088	0.143596	-360.05911	-360.050805	-360.049861	-360.092481	29.323	
C	 0.0813150244	 1.3194924735	 0.1476263063	-0.322053
N	-0.1228920827	-0.0056354004	-0.4076593765	-0.366281
C	-1.3205622408	-0.6572028985	-0.1549054438	 0.417054
N	-1.3767518994	-1.9901945657	-0.1816685831	-0.379603
N	-2.6842594131	-2.2835189451	 0.0399389123	 0.064219
C	-3.1039452775	-3.6630164719	 0.0769811594	-0.31259
C	-3.4331681438	-1.1743472286	 0.2144195446	-0.017526
C	-2.5925347145	-0.0853331097	 0.0997871733	-0.321132
H	 1.0861235977	 1.6617229665	-0.1118403794	 0.12238
H	-0.6283746984	 2.0259035538	-0.2958804454	 0.130286
H	-0.0331198186	 1.3682812276	 1.2425468426	 0.10902
H	 0.6655793842	-0.6278438323	-0.2997725654	 0.238417
H	-4.179784372	-3.7008791774	 0.2577542747	 0.132807
H	-2.8815665304	-4.155687604	-0.8743479566	 0.144117
H	-2.585879867	-4.2012666778	 0.8768352251	 0.141963
H	-4.4935300962	-1.2367719219	 0.4051517202	 0.122475
H	-2.8600972319	 0.9545237818	 0.1803727816	 0.096449
54.6167	77.6828	148.6198	193.1531	207.6425	316.7205	353.2484	481.5229	570.0948	608.7979	709.7792	718.9161	737.5729	747.129	809.7151	998.0673	1011.7663	1055.4738	1091.9217	1100.0446	1152.6509	1155.1342	1184.8968	1268.7586	1329.5945	1372.1163	1446.7743	1455.501	1464.2284	1470.3412	1484.6669	1489.2474	1518.6883	1527.6367	1548.8818	1613.248	2973.111	3039.7906	3064.6924	3099.9122	3115.4904	3139.4726	3250.572	3278.5797	3594.9041
CNC1=NN(C)C=C1	CNc1nn(C)cc1	
InChI=1S/C5H9N3/c1-6-5-3-4-8(2)7-5/h3-4H,1-2H3,(H,6,7)	InChI=1S/C5H9N3/c1-6-5-3-4-8(2)7-5/h3-4H,1-2H3,(H,6,7)
