19
gdb 90355	2.79987	1.621	1.25892	1.4296	77.48	-0.2398	0.0098	0.2496	1043.142	0.160684	-423.007655	-422.99984	-422.998896	-423.039831	30.865	
O	-0.2275220221	 1.3596972509	-0.1015612896	-0.441286
C	-0.0067942682	-0.0175822373	 0.0820509521	 0.101846
C	 0.2064117234	-0.3620259691	 1.5933977648	-0.341538
C	-1.2805738789	-0.6560567994	 1.6450364728	 0.30408
C	-2.3345123512	-0.4215733569	 2.4129453243	-0.24366
C	-3.666402939	-0.4024560073	 1.6933662186	-0.262385
C	-3.4839493089	 0.3415637685	 0.3568763554	-0.067529
O	-2.4907578653	-0.2403688013	-0.4978250695	-0.286605
C	-1.3665361424	-0.8012029966	 0.1513489283	 0.039734
H	-0.9679994431	 1.4269343659	-0.7190535988	 0.290886
H	 0.7470541458	-0.4023173669	-0.6169923451	 0.063966
H	 0.8455727101	-1.2409973529	 1.7257301235	 0.109014
H	 0.5775121243	 0.4552575078	 2.2149280277	 0.124587
H	-2.2632566221	-0.1313313643	 3.4566131519	 0.092867
H	-4.0490677279	-1.413657613	 1.5036702575	 0.116771
H	-4.4284757186	 0.1195373226	 2.2810625146	 0.107544
H	-4.407143957	 0.3317355654	-0.2306634486	 0.106232
H	-3.2216318442	 1.3861643507	 0.5747375902	 0.099592
H	-1.2459438649	-1.8328549668	-0.2042135202	 0.085885
91.7105	160.0069	206.7283	283.5392	340.1783	374.3684	431.4711	473.3077	495.1314	541.5752	681.4531	750.6373	769.0076	847.8243	858.7981	865.0468	915.4724	954.265	961.3822	1008.9193	1032.6461	1071.2306	1085.3079	1111.6761	1135.9078	1153.2676	1188.1832	1226.7589	1253.3137	1255.9464	1286.5299	1325.548	1341.6839	1350.8282	1366.5248	1392.4642	1414.4526	1461.2897	1473.8957	1505.1297	1766.8825	3004.1607	3007.7701	3020.9483	3024.8167	3053.8057	3079.3364	3081.0017	3118.6201	3173.6711	3757.6214
OC1CC2=CCCOC12	O[C@H]1C[C]2[CH]CCO[C@@H]12	
InChI=1S/C7H10O2/c8-6-4-5-2-1-3-9-7(5)6/h2,6-8H,1,3-4H2	InChI=1S/C7H10O2/c8-6-4-5-2-1-3-9-7(5)6/h2,6-8H,1,3-4H2/t6-,7+/m0/s1
