16
gdb 132744	2.31413	1.7722	1.00984	0.3678	75.4	-0.2198	0.0021	0.222	1109.7144	0.124175	-445.928044	-445.920089	-445.919145	-445.96037	30.599	
C	-0.0121064927	 1.5398685051	 0.0270163666	-0.486071
C	 0.0027276458	 0.0340972466	 0.0269990145	 0.216674
C	 0.0682305353	-0.6538642882	-1.1893419308	 0.182704
O	 0.1178720452	 0.0450377389	-2.3569302994	-0.437489
C	 0.0818220503	-2.0472959065	-1.1905731135	 0.189713
F	 0.1462110414	-2.650009802	-2.3991046569	-0.102995
C	 0.0327521492	-2.7921272008	-0.0281581569	-0.256736
C	-0.032605276	-2.1112317813	 1.1858082071	-0.11343
C	-0.046874607	-0.7185080936	 1.2025993468	-0.193546
H	 0.883018489	 1.9459561573	-0.4564633114	 0.137753
H	-0.8703196632	 1.9287157676	-0.5318427867	 0.137691
H	-0.0599655634	 1.9289090149	 1.0467597097	 0.120187
H	 0.1593576046	-0.5940018496	-3.0789415378	 0.302265
H	 0.0461432244	-3.8738422722	-0.08787827	 0.111492
H	-0.0721337769	-2.6683603749	 2.1146296593	 0.099639
H	-0.0977833661	-0.1945704513	 2.1518617793	 0.092149
112.0464	150.0184	244.945	277.7732	300.4996	305.6028	450.6114	485.1554	501.841	533.5659	565.8346	571.9946	692.7523	723.5158	779.9849	840.4155	888.2657	933.6596	947.6028	1030.6198	1061.1403	1095.6011	1177.9014	1243.4892	1252.0224	1288.3152	1323.4529	1389.3609	1416.056	1478.3534	1478.994	1517.4424	1526.908	1639.0912	1661.0953	3035.3969	3087.6881	3122.438	3174.0985	3194.9666	3210.3351	3795.6982
CC1=C(O)C(F)=CC=C1	Cc1c(O)c(F)ccc1	
InChI=1S/C7H7FO/c1-5-3-2-4-6(8)7(5)9/h2-4,9H,1H3	InChI=1S/C7H7FO/c1-5-3-2-4-6(8)7(5)9/h2-4,9H,1H3
