12
gdb 24751	3.75786	1.23262	0.92817	2.4773	69.2	-0.2683	-0.0779	0.1904	1138.7277	0.077262	-435.48842	-435.480985	-435.48004	-435.521089	26.5	
O	-0.0034954363	-0.0361637268	 0.0043105664	-0.303797
C	-0.0322422166	 1.1809870115	 0.0078991024	 0.131528
C	 1.1792111808	 1.9778857664	 0.0012709354	 0.299168
C	 2.2066512204	 2.6036871235	-0.0044574268	-0.418447
C	-1.308067664	 1.9192411964	 0.0190343984	 0.173718
C	-2.5578110291	 1.376193024	 0.0266255718	-0.067472
O	-3.4551968017	 2.3893303642	 0.035749685	-0.133302
C	-2.6935122313	 3.5192843717	 0.0332935572	 0.061033
N	-1.4237171556	 3.3079555205	 0.0234871198	-0.305006
H	 3.1127396947	 3.1591511241	-0.0094030822	 0.215194
H	-2.9382144067	 0.3700455344	 0.0267238086	 0.183304
H	-3.2248452647	 4.4576679502	 0.0395953238	 0.164078
65.5516	117.9799	187.3894	233.2997	277.9826	442.2001	495.49	624.5978	650.3429	667.1896	679.0183	707.6577	786.215	836.5195	868.4629	927.6416	946.3053	1069.0439	1100.1958	1139.736	1240.8178	1312.6718	1351.1491	1561.4502	1585.6505	1732.712	2219.6172	3282.7087	3307.5678	3496.7609
O=C(C#C)C1=COC=N1	O=C(C#C)c1cocn1	
InChI=1S/C6H3NO2/c1-2-6(8)5-3-9-4-7-5/h1,3-4H	InChI=1S/C6H3NO2/c1-2-6(8)5-3-9-4-7-5/h1,3-4H
