19
gdb 110914	2.35659	1.39787	1.07507	3.5883	76.04	-0.2475	-0.0284	0.2191	1194.8839	0.157414	-422.985302	-422.976452	-422.975507	-423.019286	32.449	
C	 0.2209264933	 1.6206169425	 0.0117425972	-0.381003
C	-0.1409071621	 0.1325758015	-0.0709506559	-0.225603
C	 0.5513747747	-0.5459471602	-1.235827479	-0.005429
C	 1.8782835609	-1.2263076618	-1.1482984139	 0.084288
O	 2.0425058027	-1.9096758996	 0.1045612446	-0.280594
C	 0.9964440813	-2.8306268297	-0.2472021739	 0.042155
C	-0.0746557175	-3.0900641962	 0.7832808712	 0.149116
O	-0.1290550099	-2.6163224243	 1.8868161196	-0.240004
C	 0.6498511174	-2.0400111323	-1.5185398022	-0.219337
H	 1.2989956435	 1.7549270337	 0.1480585324	 0.122027
H	-0.0691422421	 2.1556119596	-0.8998588339	 0.108499
H	-0.2850950472	 2.1000815178	 0.8548118328	 0.11661
H	 0.1399507048	-0.3653780778	 0.8595841132	 0.146205
H	-1.2273286085	 0.0213128962	-0.177042055	 0.094407
H	 0.4509088004	-0.0125762972	-2.1822038786	 0.091325
H	 2.7793489042	-0.9781994209	-1.6969637139	 0.108287
H	 1.4264199593	-3.8101244682	-0.5154987866	 0.106802
H	-0.8437020103	-3.8114975172	 0.4149873755	 0.076847
H	 0.361801345	-2.4848151259	-2.4611177437	 0.105402
79.3903	101.1315	128.2594	176.3661	224.8601	238.7633	281.4542	361.481	489.0565	593.2049	694.3616	712.0311	733.2053	798.7677	823.654	868.5119	888.2787	950.15	997.5641	1014.3282	1022.6694	1047.6292	1060.9814	1071.5925	1092.6059	1123.887	1144.7426	1210.0174	1230.7781	1267.8676	1311.0906	1320.4275	1359.8098	1371.4145	1409.4997	1418.6701	1451.7178	1489.354	1499.3255	1505.9025	1839.4074	2843.7025	2973.1868	3030.4635	3031.8988	3089.9093	3103.3459	3109.195	3122.3279	3181.7058	3206.7217
CCC1C2OC(C=O)C12	CC[C@H]1[C@H]2O[C@@H](C=O)[C@@H]12	
InChI=1S/C7H10O2/c1-2-4-6-5(3-8)9-7(4)6/h3-7H,2H2,1H3	InChI=1S/C7H10O2/c1-2-4-6-5(3-8)9-7(4)6/h3-7H,2H2,1H3/t4-,5+,6-,7-/m1/s1
