17
gdb 62906	3.06287	1.46364	1.11973	1.8132	75.37	-0.239	0.0396	0.2786	1087.6213	0.132599	-421.713472	-421.704888	-421.703944	-421.746069	33.491	
C	 0.0556388157	 1.673263145	 0.0106279294	-0.47268
C	-0.0582189855	 0.1579192856	-0.0076389601	 0.422477
O	-1.3678099199	-0.2634118352	-0.2617083095	-0.458963
C	 1.1450459755	-0.6460001407	-0.6303301075	-0.044007
O	 1.9503035412	-0.2120244125	 0.5286601092	-0.306667
C	 0.6644141395	-0.6472652572	 1.1089814256	-0.014097
C	 0.7593887261	-1.9178295647	 0.194133751	-0.154846
C	-0.3327494995	-2.8100732726	-0.1219850162	 0.315449
C	-1.1612810526	-3.6448307012	-0.3721435718	-0.453677
H	 1.070319871	 1.9916770908	 0.2468350723	 0.148143
H	-0.2173480753	 2.0828960157	-0.9702984021	 0.107327
H	-0.6379283222	 2.0889438034	 0.7480756697	 0.127597
H	-1.6989808149	 0.2118219875	-1.030842049	 0.283686
H	 1.6076440865	-0.5891392318	-1.6169099737	 0.095358
H	 0.5514768676	-0.5959356045	 2.1924297224	 0.100788
H	 1.6618975359	-2.4809369528	 0.44514782	 0.114732
H	-1.9215605091	-4.3516635948	-0.5945518497	 0.189379
121.2499	149.2239	223.75	236.8305	249.941	292.4522	389.8285	407.9892	439.0476	509.8998	547.5161	619.7614	639.0219	648.2863	678.1752	745.5999	837.5158	882.4341	884.5844	903.137	962.9382	1031.6966	1068.2683	1087.074	1122.0769	1137.2227	1177.4963	1196.9267	1228.8085	1248.0757	1252.5145	1355.0622	1395.1381	1399.9168	1489.4315	1503.0149	2233.5291	3028.8386	3081.8953	3093.7621	3108.9327	3119.5816	3158.3522	3504.7912	3812.4247
CC1(O)C2OC1C2C#C	C[C@@]1(O)[C@H]2O[C@@H]1[C@H]2C#C	
InChI=1S/C7H8O2/c1-3-4-5-7(2,8)6(4)9-5/h1,4-6,8H,2H3	InChI=1S/C7H8O2/c1-3-4-5-7(2,8)6(4)9-5/h1,4-6,8H,2H3/t4-,5-,6+,7+
