17
gdb 35140	4.42684	0.95314	0.87372	0.2969	86.38	-0.2499	0.0066	0.2565	1328.2369	0.134662	-347.493907	-347.485275	-347.484331	-347.527448	32.885	
C	-0.0297437233	-1.2729472539	-0.0675350508	-0.465555
C	-0.0044589783	-0.0711419196	-0.0498849495	 0.31321
C	 0.0296722873	 1.3864484825	-0.0208519502	-0.19111
C	-0.6628333418	 2.0029790804	 1.2313353005	-0.234498
C	 0.152274243	 3.2907905597	 1.5631635902	-0.218259
C	 1.4943784349	 3.002633247	 0.9017290049	-0.079369
C	 1.4282268639	 1.9825339821	 0.0541488203	-0.060108
C	-0.4501998896	 4.5174065475	 1.0401554864	 0.342748
C	-0.9421307357	 5.5225970473	 0.6001607416	-0.491905
H	-0.0531094352	-2.3342629319	-0.0866108793	 0.1956
H	-0.4590681418	 1.755477784	-0.9351803357	 0.120518
H	-1.7222963919	 2.2046614924	 1.0701823342	 0.120276
H	-0.5690328632	 1.301255231	 2.0633589503	 0.120201
H	 0.2591741728	 3.4016363934	 2.6495238007	 0.109556
H	 2.3645827779	 3.6211461475	 1.0854255457	 0.109923
H	 2.2394746701	 1.6088242317	-0.5587210736	 0.111477
H	-1.3759599691	 6.4123281389	 0.2160039645	 0.197296
52.1799	112.9525	161.0426	189.865	258.08	365.8633	438.9322	493.1817	518.717	557.9571	619.0293	620.9204	632.3736	637.5316	662.4674	748.7746	796.3941	837.0561	864.67	951.3206	969.5049	996.8187	1042.5278	1054.9709	1069.3086	1135.0984	1191.6031	1240.8347	1275.2348	1296.6962	1311.8351	1341.5538	1369.3867	1486.5805	1689.1208	2230.5638	2236.1672	2988.89	3021.9535	3077.7171	3135.5565	3197.3073	3222.1844	3504.1982	3505.0642	52.1795	112.9523	161.0421	189.8648	258.0795	365.8629	438.9321	493.1813	518.717	557.9568	619.0288	620.9202	632.3734	637.531	662.4674	748.7746	796.3942	837.0561	864.67	951.3207	969.505	996.8187	1042.528	1054.9709	1069.3087	1135.0986	1191.6034	1240.8346	1275.2355	1296.6962	1311.8355	1341.5538	1369.3869	1486.5812	1689.1208	2230.5636	2236.1672	2988.8899	3021.9535	3077.7171	3135.5565	3197.3073	3222.1845	3504.1983	3505.0642
C#CC1CC(C=C1)C#C	C#C[C@H]1C[C@@H](C=C1)C#C	
InChI=1S/C9H8/c1-3-8-5-6-9(4-2)7-8/h1-2,5-6,8-9H,7H2	InChI=1S/C9H8/c1-3-8-5-6-9(4-2)7-8/h1-2,5-6,8-9H,7H2/t8-,9-/m1/s1
