18
gdb 52195	3.48412	0.72148	0.63423	3.1556	80.43	-0.2459	-0.0192	0.2267	1705.7599	0.145121	-401.894299	-401.884685	-401.883741	-401.930212	34.053	
O	-0.3164211874	 0.4252141918	 0.7434517765	-0.23801
C	 0.1362448659	 0.9359239114	-0.2484190026	 0.155763
C	 1.4089624279	 1.7469886729	-0.305907906	-0.267415
C	 1.1704833614	 3.1465868698	-0.9027975414	-0.21917
C	 2.4666985517	 3.8993286312	-1.0890372656	-0.005611
N	 3.3037513334	 3.4790216892	-2.2149312143	-0.322689
C	 2.6995208601	 4.8351222012	-2.2370389318	-0.254363
C	 1.7014165383	 5.1071038865	-3.2345894751	 0.379037
C	 0.8633962944	 5.3701051867	-4.0556333945	-0.441507
H	-0.3849556328	 0.8393931231	-1.2305306427	 0.073296
H	 1.8380027092	 1.7970515974	 0.6994210949	 0.115224
H	 2.1151829386	 1.2169926562	-0.9607113466	 0.135431
H	 0.6718046881	 3.056220564	-1.8731858528	 0.125677
H	 0.5058073552	 3.7262148473	-0.2510298767	 0.114929
H	 2.9754974577	 4.1718714405	-0.1645349691	 0.094248
H	 4.2912013786	 3.5536351923	-1.9851701352	 0.239392
H	 3.3641059731	 5.6723327208	-2.0331233244	 0.113885
H	 0.1272767867	 5.5939378277	-4.7876480626	 0.201885
55.5367	59.0947	83.9241	120.7436	172.9112	226.06	303.7283	345.0549	448.4882	508.7364	552.1938	603.4927	623.0804	662.0586	763.5313	806.5361	825.975	854.7038	918.9128	968.2041	990.6602	1022.8388	1059.3154	1090.9261	1136.1041	1178.5352	1206.1386	1241.2606	1257.3779	1272.8613	1316.9278	1359.8019	1407.059	1429.3124	1459.0826	1464.3269	1486.7286	1835.8587	2240.4123	2852.6833	3019.2575	3040.6013	3082.2905	3098.9503	3111.9069	3126.5713	3503.2357	3506.786
O=CCCC1NC1C#C	O=CCC[C@H]1N[C@H]1C#C	
InChI=1S/C7H9NO/c1-2-6-7(8-6)4-3-5-9/h1,5-8H,3-4H2	InChI=1S/C7H9NO/c1-2-6-7(8-6)4-3-5-9/h1,5-8H,3-4H2/t6-,7+/m0/s1
