15
gdb 129352	4.54444	0.90904	0.81103	1.3552	69.09	-0.2664	-0.0226	0.2437	1355.3497	0.11284	-453.927495	-453.919447	-453.918503	-453.961947	27.999	
N	-0.4370737036	 0.9467940184	-0.6504377499	-0.43269
C	-0.6161570501	-0.1019411497	 0.0226217501	 0.133705
O	-0.4224525984	-1.3110188815	-0.5577567383	-0.173262
C	-0.804665666	-2.4454949489	 0.2018566474	-0.211449
C	-2.2565192172	-2.7572753751	 0.0095589379	 0.406997
C	-3.1967335944	-2.2934828009	-0.8552280504	-0.321663
C	-4.3569314529	-3.029585903	-0.4897671355	 0.034048
N	-4.1358924392	-3.8575742264	 0.4996945163	-0.134784
O	-2.7875236144	-3.6833799416	 0.8238406715	-0.211434
H	-0.5902696539	 1.767534778	-0.0684491913	 0.235796
H	-0.9090888936	-0.1680597165	 1.0794476887	 0.097132
H	-0.183569008	-3.27437145	-0.1521065453	 0.155831
H	-0.5884735818	-2.3074730432	 1.2703020315	 0.136465
H	-3.0774331774	-1.553229214	-1.6273442515	 0.146583
H	-5.348540829	-2.9816188457	-0.9175657013	 0.138724
40.8152	54.4672	110.3774	206.2904	232.7614	347.4024	398.6222	640.3653	647.6394	653.2092	718.5886	823.5613	828.3537	911.0707	923.3336	940.2908	966.1285	1017.7922	1039.9484	1046.1321	1051.7921	1148.4848	1210.3666	1230.2083	1245.8321	1324.7727	1356.3306	1406.5405	1426.3236	1487.9154	1517.4957	1638.279	1751.3767	3016.084	3028.2462	3081.5959	3245.743	3293.657	3522.976
N=COCC1=CC=NO1	[NH][CH]OCc1ccno1	
InChI=1S/C5H6N2O2/c6-4-8-3-5-1-2-7-9-5/h1-2,4,6H,3H2	InChI=1S/C5H6N2O2/c6-4-8-3-5-1-2-7-9-5/h1-2,4,6H,3H2
