17
gdb 75916	2.80608	1.4498	1.153	4.4138	67.66	-0.266	0.0053	0.2713	1080.3783	0.135474	-458.98698	-458.978784	-458.97784	-459.020279	30.305	
C	 0.1041380922	 1.6228885461	-0.1446757178	-0.402896
C	 0.0089571761	 0.1046297529	 0.0783420966	-0.24602
C	 0.6300898592	-0.6399420966	-1.1063616775	 0.446383
O	 0.2401410161	-0.6691554501	-2.2359146482	-0.340953
O	 1.7647472534	-1.2860194096	-0.7126217601	-0.223322
C	 2.0599339948	-1.0426497381	 0.6690570853	-0.14562
C	 0.7963991272	-0.4317885161	 1.2596565809	 0.386968
C	 0.6883939003	 0.0125744941	 2.6487680908	-0.250113
O	 0.0969405444	-1.220673821	 2.2248875147	-0.265987
H	 1.14566013	 1.9576686999	-0.1879782407	 0.125488
H	-0.3753068701	 1.8866729233	-1.090446437	 0.151048
H	-0.3939743647	 2.1652023622	 0.6632883623	 0.125105
H	-1.0396488042	-0.1921972115	 0.1628752874	 0.132299
H	 2.3058990162	-1.9904037648	 1.1530845635	 0.141264
H	 2.9215922207	-0.3676945143	 0.7293745413	 0.122849
H	 1.5440655889	-0.0835417714	 3.317152654	 0.120337
H	-0.0123677607	 0.8036911647	 2.9113340147	 0.12317
44.3149	157.136	207.3927	223.2513	238.9247	289.0764	356.1137	469.4946	491.1029	547.5728	680.5634	716.5092	780.4522	815.8539	831.9781	903.7066	966.5589	1004.2255	1034.2335	1070.4889	1081.5213	1116.331	1126.8027	1163.7105	1172.5666	1229.2075	1254.21	1263.2403	1318.1002	1365.6891	1406.0001	1445.5272	1496.1405	1499.2323	1509.4732	1536.1835	1884.8444	3038.3111	3042.8313	3079.5628	3085.0491	3112.3524	3115.243	3130.1467	3165.0298
CC1C(=O)OCC11CO1	C[C@H]1C(=O)OC[C@]21CO2	
InChI=1S/C6H8O3/c1-4-5(7)8-2-6(4)3-9-6/h4H,2-3H2,1H3	InChI=1S/C6H8O3/c1-4-5(7)8-2-6(4)3-9-6/h4H,2-3H2,1H3/t4-,6+/m0/s1
