18
gdb 51908	3.48191	0.78038	0.66075	3.2243	79.33	-0.2498	-0.0205	0.2293	1656.04	0.148043	-435.259757	-435.250611	-435.249667	-435.294868	32.283	
O	-0.3311380253	 0.9449024746	 1.3597643903	-0.2937
C	-0.0442725502	 1.4761525246	 0.3138606254	 0.158538
N	 1.1097967686	 1.2444914688	-0.3976165657	-0.30889
C	 2.1082243623	 0.3579901814	-0.0057909315	 0.118233
N	 3.1300555945	 0.2083380444	-0.7389513742	-0.268677
C	 4.1804095498	-0.7190822885	-0.3405261344	-0.157785
C	 3.9454349197	-1.5706883959	 0.8870416541	 0.007079
C	 5.084092274	-1.9617003265	 1.7522322106	-0.253704
N	 4.0832128872	-0.9972484278	 2.2397533519	-0.310444
H	-0.6899024928	 2.2185171909	-0.1926022775	 0.089549
H	 1.2629115239	 1.7308672159	-1.2700970987	 0.262217
H	 1.8933206939	-0.1319248057	 0.9448836468	 0.164262
H	 4.3747338096	-1.3726873846	-1.2022134997	 0.119437
H	 5.1021577791	-0.1338942566	-0.20570448	 0.105529
H	 3.111366658	-2.2662994622	 0.8071384498	 0.101639
H	 5.078584997	-2.9227306163	 2.2580143271	 0.12284
H	 6.0736541094	-1.5973954987	 1.4862985447	 0.112549
H	 4.4602437212	-0.0538729778	 2.171920471	 0.231328
56.8176	74.5322	107.6958	176.116	197.8404	225.4053	340.8715	353.3079	380.6493	419.2875	620.683	659.2687	777.2277	807.2137	831.4977	929.6059	932.4631	981.8265	1029.2314	1037.872	1043.6352	1055.4378	1096.4671	1129.1919	1163.992	1199.209	1244.9228	1255.5526	1281.164	1313.9147	1341.466	1371.5879	1425.8539	1438.5453	1467.4854	1503.8563	1513.2795	1747.8602	1820.9695	2956.5082	2999.6818	3028.6321	3106.563	3119.1411	3134.0976	3192.4067	3484.3264	3608.1143
O=CNC=NCC1CN1	O=CNC=NC[C@H]1CN1	
InChI=1S/C5H9N3O/c9-4-7-3-6-1-5-2-8-5/h3-5,8H,1-2H2,(H,6,7,9)	InChI=1S/C5H9N3O/c9-4-7-3-6-1-5-2-8-5/h3-5,8H,1-2H2,(H,6,7,9)/t5-/m0/s1
