22
gdb 6219	3.54316	1.4626	1.39326	1.4863	77.61	-0.238	0.0751	0.3131	1054.1624	0.199796	-350.227605	-350.218659	-350.217715	-350.260739	34.187	
C	-0.198314946	 1.3825216235	 0.2519420042	-0.396693
C	-0.0325925932	-0.0840014408	-0.1282120424	 0.152265
C	 1.067265901	-0.3562250249	-1.1722497445	-0.269305
C	 1.7043731285	-1.6863108917	-0.7096141075	 0.284805
C	 0.8705600252	-2.8890240569	-1.1845125322	-0.42347
C	 3.1621701859	-1.8391452064	-1.1507496356	-0.445048
C	 1.5644130602	-1.5101795508	 0.8140599347	-0.090543
O	 0.3221851835	-0.8576195964	 1.0314151283	-0.279981
H	 0.7459742627	 1.794896129	 0.6227942542	 0.114199
H	-0.5158814706	 1.9726590211	-0.6148522569	 0.109489
H	-0.951964563	 1.4925542487	 1.0367974613	 0.122775
H	-0.9987641748	-0.4669740094	-0.4870627314	 0.071921
H	 0.6721769272	-0.4039053731	-2.1909717705	 0.097538
H	 1.8163951121	 0.4442145875	-1.1450355933	 0.091798
H	 0.8439068539	-2.9416099412	-2.278398301	 0.108581
H	 1.2973212998	-3.8283954495	-0.8161981388	 0.110617
H	-0.159827149	-2.8283130217	-0.821963057	 0.1271
H	 3.7691727173	-0.9881496225	-0.8236121678	 0.110965
H	 3.6080263651	-2.7494400974	-0.7338140917	 0.113308
H	 3.2397256649	-1.9070860978	-2.2412751232	 0.114464
H	 1.5506262942	-2.4610283613	 1.3585393968	 0.098105
H	 2.3985194251	-0.906016088	 1.2083746542	 0.077112
55.0957	148.772	230.8417	232.4191	249.3873	293.6548	301.0444	339.1539	405.168	410.7455	457.5908	565.3905	659.5704	789.6778	824.6893	891.9084	914.5275	934.1724	946.7953	958.9569	992.0628	1027.2983	1035.7843	1083.1985	1100.8797	1139.02	1202.0242	1215.2306	1228.4456	1261.9933	1305.4578	1311.3532	1358.8278	1384.0687	1395.6822	1402.582	1406.9836	1426.2179	1484.3715	1484.9014	1488.2689	1493.9052	1498.2502	1506.2454	1509.9336	1522.7484	2959.2103	2991.2253	3023.9912	3028.4651	3031.187	3035.8515	3058.0703	3087.9041	3091.3287	3094.3684	3096.9888	3102.8635	3108.891	3114.6576
CC1CC(C)(C)CO1	C[C@H]1CC(C)(C)CO1	
InChI=1S/C7H14O/c1-6-4-7(2,3)5-8-6/h6H,4-5H2,1-3H3	InChI=1S/C7H14O/c1-6-4-7(2,3)5-8-6/h6H,4-5H2,1-3H3/t6-/m0/s1
