17
gdb 32293	2.73308	1.49614	0.97353	2.2167	83.15	-0.1785	-0.0105	0.168	1177.6023	0.138403	-418.08288	-418.07464	-418.073696	-418.115883	31.031	
C	-0.0032730685	 1.4230028967	 0.1488305547	-0.320708
N	-0.0378240998	 0.0051040088	-0.0904301973	-0.346993
C	 0.6073753626	-0.6006697912	-1.1262597345	 0.214066
C	 1.2263417133	 0.0215334494	-2.1845980191	-0.216875
C	 1.8397643445	-0.7432107736	-3.2175839967	-0.134107
C	 1.8241862664	-2.0975222437	-3.1540024221	-0.014823
N	 1.2138385431	-2.7122540829	-2.0833962826	-0.364643
C	 0.5930869295	-2.0670841121	-1.0331190021	 0.401789
O	 0.0803352109	-2.6804698429	-0.0988826042	-0.427773
H	 1.0226014048	 1.8066967347	 0.2634204171	 0.119802
H	-0.4749333773	 1.9773706776	-0.6737607282	 0.127919
H	-0.5572370381	 1.6459506698	 1.0626177673	 0.131283
H	-0.3117031929	-0.6336551497	 0.6415006827	 0.258784
H	 1.2471933659	 1.103798932	-2.2431369771	 0.092356
H	 2.3188243104	-0.2488543818	-4.0525569458	 0.098655
H	 2.2634937949	-2.7531763189	-3.8928527463	 0.12253
H	 1.2021867702	-3.7200006521	-2.0143319658	 0.258738
72.9986	136.4644	181.4162	198.3173	280.5075	358.5054	448.9854	460.3037	531.3206	569.2848	572.473	582.6979	696.9591	733.2603	774.3902	793.0479	856.2549	896.7524	903.5715	1059.2989	1080.6664	1109.8121	1159.2865	1187.4591	1199.4793	1276.148	1303.8418	1392.1095	1428.9635	1462.8558	1478.8916	1480.2798	1518.6234	1536.8191	1618.9862	1669.0124	1744.0496	2980.3024	3030.3261	3126.039	3190.0736	3213.455	3233.8127	3610.5175	3613.3368
CNC1=CC=CNC1=O	CNc1ccc[nH]c1=O	
InChI=1S/C6H8N2O/c1-7-5-3-2-4-8-6(5)9/h2-4,7H,1H3,(H,8,9)	InChI=1S/C6H8N2O/c1-7-5-3-2-4-8-6(5)9/h2-4,7H,1H3,(H,8,9)
