19
gdb 69785	2.55174	1.83142	1.28345	3.0657	78.64	-0.2318	-0.0172	0.2147	1027.354	0.160083	-385.894767	-385.886933	-385.885989	-385.926759	31.245	
C	 0.057884505	 1.5602394528	-0.0085506195	-0.472427
C	 0.0637177259	 0.0518954437	 0.0482874495	 0.221727
C	-0.8733090256	-0.6840092975	 0.9932779932	-0.340446
C	 0.6140862757	-0.7956519275	 1.1795189864	-0.089674
C	 1.3540740793	-1.9969248807	 0.5870301254	-0.043338
C	 0.5746911073	-3.0560254391	-0.1312907141	-0.304523
C	 1.2190872532	-1.9262132474	-0.9209099345	-0.138063
C	 0.4482590293	-0.665185672	-1.2363886984	 0.346332
O	 0.3009385548	-0.2016936187	-2.3421939777	-0.332794
H	 1.0406720173	 1.9531647777	-0.2892894448	 0.123115
H	-0.6600363669	 1.9081859559	-0.7574906467	 0.139083
H	-0.2175626217	 1.9881839254	 0.9600391613	 0.10998
H	-1.4103435997	-0.0492166971	 1.6914129829	 0.117488
H	-1.4559438746	-1.5286155122	 0.647689306	 0.120917
H	 1.0573272545	-0.3295684512	 2.0521404141	 0.092315
H	 2.2947172205	-2.2692700092	 1.0504489313	 0.09465
H	 1.0491238731	-4.0242711716	-0.2516681016	 0.12222
H	-0.5022220332	-3.1135107865	-0.0390692509	 0.124937
H	 2.0116915456	-2.1795762547	-1.614501372	 0.108501
123.9192	166.897	184.9943	259.1611	281.0821	382.0888	453.9134	487.4702	581.5167	598.5221	657.675	756.8521	785.9396	805.3287	820.566	855.9917	911.1906	943.8564	962.5895	977.4178	1006.536	1017.9965	1044.4131	1068.7022	1076.4592	1104.956	1120.2946	1122.0054	1149.964	1194.0777	1265.8412	1302.1841	1329.626	1360.8397	1390.0729	1413.8	1481.9117	1482.384	1498.1098	1511.4306	1815.6725	3035.2036	3101.1236	3111.8291	3133.8489	3144.2961	3170.3946	3182.1666	3189.691	3216.0317	3229.5208
CC12CC1C1CC1C2=O	C[C@]12C[C@H]1[C@H]1C[C@H]1C2=O	
InChI=1S/C8H10O/c1-8-3-6(8)4-2-5(4)7(8)9/h4-6H,2-3H2,1H3	InChI=1S/C8H10O/c1-8-3-6(8)4-2-5(4)7(8)9/h4-6H,2-3H2,1H3/t4-,5+,6-,8-/m0/s1
