21
gdb 86438	2.15913	1.63278	1.00503	0.8805	88.74	-0.2157	-0.0269	0.1888	1241.8621	0.182385	-387.10167	-387.092729	-387.091785	-387.135245	34.589	
C	-0.2713734464	 1.4624456213	 0.0116683528	-0.401975
C	 0.0406681575	-0.0306111991	 0.0506389877	 0.067706
O	 0.5755852214	-0.3794944442	-1.2293359389	-0.264929
C	 0.303661927	-1.6874771671	-1.6869760854	 0.076004
C	 0.9347921168	-1.7804246628	-3.081858543	-0.394266
C	 0.8054522822	-2.7992203176	-0.8008285022	-0.07351
C	 1.3853054058	-2.7373238296	 0.4076151671	-0.094156
C	 1.5934923248	-1.5799775742	 1.2725249263	-0.078311
C	 1.0017799745	-0.3848565986	 1.1598155435	-0.069407
H	 0.6424826097	 2.032594906	-0.1821967623	 0.128841
H	-0.9889433407	 1.6824025291	-0.7822399524	 0.118078
H	-0.6903762113	 1.7934783425	 0.9669810368	 0.113614
H	-0.8971904072	-0.5908894894	 0.2034778669	 0.082366
H	-0.7894020668	-1.8203875684	-1.8053237274	 0.070947
H	 2.0198583472	-1.6650008581	-3.0115336909	 0.130187
H	 0.7134372038	-2.7467408254	-3.5434841836	 0.11253
H	 0.5387145704	-0.9869052076	-3.7202027504	 0.123335
H	 0.7022828668	-3.7835768276	-1.2557511188	 0.090219
H	 1.7310450965	-3.6804157735	 0.826777483	 0.087145
H	 2.2679837669	-1.7425325724	 2.1100964278	 0.08856
H	 1.2243202111	 0.3909500666	 1.8880662535	 0.087023
51.9584	158.366	218.9703	229.4432	245.2553	272.9433	346.9896	370.4053	408.4604	426.101	494.8543	618.4768	655.8344	722.1037	794.0585	805.8959	830.7709	878.6175	904.5096	975.7237	983.1876	993.2903	1009.7483	1047.3078	1078.1172	1110.2777	1127.7186	1149.1074	1192.8386	1246.0998	1266.7897	1321.1382	1321.6429	1344.5305	1394.0182	1400.4292	1409.1972	1419.0926	1455.5272	1484.9376	1486.4119	1496.7764	1498.7417	1677.9006	1711.6214	2902.7091	2956.3743	3041.494	3046.2645	3113.6004	3121.4487	3125.9385	3126.0659	3128.7484	3140.3955	3150.7793	3167.9115
CC1OC(C)C=CC=C1	C[C@H]1O[C@@H](C)C=CC=C1	
InChI=1S/C8H12O/c1-7-5-3-4-6-8(2)9-7/h3-8H,1-2H3	InChI=1S/C8H12O/c1-7-5-3-4-6-8(2)9-7/h3-8H,1-2H3/t7-,8+
