21
gdb 89533	4.36485	1.083	0.99274	1.9464	83.14	-0.2298	0.0848	0.3146	1274.2077	0.182485	-387.011045	-387.002995	-387.002051	-387.043584	32.284	
C	 0.019823562	 1.6376010222	 0.0530198129	-0.406271
C	 0.0338870393	 0.1177111145	 0.0071958419	 0.052828
C	 1.0452346652	-0.5872465106	-0.946805011	-0.346167
C	 1.3346905316	-1.59910618	 0.1843896629	 0.443331
C	 0.6645668221	-0.6596113523	 1.2020643899	-0.326024
C	 0.9919925941	-3.110852077	 0.1307957115	-0.01839
C	 2.2497936331	-3.3610823887	-0.7329653865	-0.233306
C	 2.6150331081	-2.4246594001	 0.442530862	-0.037938
O	 1.8216344834	-3.2993132945	 1.3456643024	-0.320097
H	 1.0244134245	 2.0329099461	 0.2439852945	 0.11011
H	-0.330949111	 2.0636268296	-0.8938019545	 0.11321
H	-0.6383806796	 2.0058691908	 0.8479624461	 0.115371
H	-0.9769773836	-0.2577842607	-0.1862437605	 0.070991
H	 0.6628292072	-0.9727988954	-1.8957978786	 0.09792
H	 1.9123029636	 0.049720493	-1.1552471583	 0.098743
H	 1.3994463694	-0.0476056338	 1.7368918054	 0.096272
H	-0.0076103787	-1.1112351466	 1.9342268022	 0.107848
H	 0.0191592548	-3.6049399164	 0.1057210907	 0.089908
H	 2.661740877	-4.3683897798	-0.6624479451	 0.10571
H	 2.2745169288	-2.9567127441	-1.7476659644	 0.098951
H	 3.5946210187	-2.0966371959	 0.7945421664	 0.086999
69.6207	177.1116	215.627	254.778	298.5457	331.7022	399.3754	441.2025	544.1754	639.4055	706.8874	735.2011	780.5535	833.6569	852.4987	880.7939	896.7367	905.1488	919.3377	951.0519	1012.1017	1018.4019	1047.4072	1059.1831	1107.9151	1122.7927	1126.3724	1170.159	1171.8068	1176.7368	1193.4954	1208.4866	1231.7566	1250.7098	1271.1415	1273.8318	1288.5958	1345.3254	1377.4293	1411.9628	1472.4074	1484.3626	1493.3528	1496.0804	1498.9375	3021.6024	3037.187	3038.5661	3047.8859	3066.6202	3088.445	3090.2277	3096.7024	3101.085	3108.2759	3112.8838	3148.1264
CC1CC2(C1)C1CC2O1	C[C@H]1C[C@@]2(C1)[C@H]1C[C@@H]2O1	
InChI=1S/C8H12O/c1-5-3-8(4-5)6-2-7(8)9-6/h5-7H,2-4H2,1H3	InChI=1S/C8H12O/c1-5-3-8(4-5)6-2-7(8)9-6/h5-7H,2-4H2,1H3/t5-,6-,7+,8-/m0/s1
