20
gdb 55759	3.42085	1.08868	0.95038	2.1212	79.82	-0.2333	-0.0084	0.2249	1298.0982	0.170187	-403.13158	-403.122526	-403.121582	-403.16634	33.472	
C	-0.0561129719	 0.7549916718	 1.0284808235	-0.480671
C	 0.0376399726	 0.1103135068	-0.3390716529	 0.382479
O	 1.022831168	 0.1890436906	-1.0364932678	-0.306827
C	-1.1789996478	-0.7087898342	-0.779362817	-0.390694
C	-0.9970926501	-2.1418629742	-0.3429687134	 0.354276
C	-0.0461092291	-3.1681118628	-0.9849012641	-0.283851
C	-1.0792023943	-4.2933946233	-0.6383965894	-0.23907
C	-1.9826556756	-3.2273408997	-0.0035755536	-0.097796
N	-1.2754203595	-2.4985023252	 1.0480570638	-0.35361
H	 0.9123709648	 1.1583209282	 1.3269978917	 0.13491
H	-0.7940126736	 1.5662561842	 0.9983233557	 0.139064
H	-0.4208655451	 0.0261110206	 1.7601283939	 0.159539
H	-2.0970426334	-0.314046261	-0.3340722385	 0.111774
H	-1.2501742956	-0.6589302695	-1.869813607	 0.118096
H	 0.0709634088	-3.0292733059	-2.0617804941	 0.117269
H	 0.9495801596	-3.2363040247	-0.5355455871	 0.103918
H	-1.5099431622	-4.749837301	-1.5325353593	 0.111358
H	-0.7471855492	-5.0908120624	 0.0350980102	 0.100109
H	-3.0669883533	-3.2131202269	 0.0116077203	 0.095446
H	-0.533035313	-3.0519710215	 1.4737135649	 0.224282
45.1484	63.6769	113.8963	174.0361	221.7564	290.0582	353.5206	405.6395	470.3948	510.391	550.9489	705.2481	751.6152	780.8882	790.2652	840.3211	894.0455	922.3644	937.9267	950.1221	984.3458	1030.7348	1044.1371	1071.6737	1095.2408	1114.819	1166.2449	1188.1333	1214.5762	1224.5656	1236.7276	1259.9395	1281.3252	1301.9384	1322.8084	1381.5794	1423.6707	1460.4763	1470.8352	1473.974	1480.2124	1501.1164	1811.9899	3032.0006	3044.6066	3051.8682	3056.5929	3095.2645	3101.467	3110.3982	3119.5969	3152.1299	3173.6264	3452.5478
CC(=O)CC12CCC1N2	CC(=O)C[C@]12CC[C@H]1N2	
InChI=1S/C7H11NO/c1-5(9)4-7-3-2-6(7)8-7/h6,8H,2-4H2,1H3	InChI=1S/C7H11NO/c1-5(9)4-7-3-2-6(7)8-7/h6,8H,2-4H2,1H3/t6-,7-/m1/s1
