20
gdb 126720	3.13864	1.10103	0.88378	2.2664	84.62	-0.1861	0.0357	0.2218	1384.356	0.171334	-399.357501	-399.347608	-399.346664	-399.39282	35.633	
C	 0.2549520992	 1.4934646001	 0.1303981371	-0.3706
C	-0.1237721333	 0.0397051947	-0.1619941457	-0.138469
N	 0.6228131084	-0.5271063229	-1.2689235496	 0.056541
C	 1.7503207832	-1.2940889258	-1.2114668236	-0.111441
C	 2.1584782041	-1.4965109207	-2.5152827681	 0.084224
N	 3.300433722	-2.1692722075	-2.9912654749	-0.610578
C	 1.2070856926	-0.7990297661	-3.3018665926	 0.331825
C	 1.1614184471	-0.6873916407	-4.7917210651	-0.504873
N	 0.2856561797	-0.2170322579	-2.5302160277	-0.335963
H	 1.3103780701	 1.5753088719	 0.4069779983	 0.122916
H	 0.0814380019	 2.1109522773	-0.7542612635	 0.144726
H	-0.3497607335	 1.8850906396	 0.9545108369	 0.1145
H	 0.0548756066	-0.5928735875	 0.7130319805	 0.112429
H	-1.1854340976	-0.032497338	-0.4145962491	 0.128371
H	 2.1589984634	-1.6312361832	-0.2717308693	 0.113369
H	 3.6579644591	-2.8445121033	-2.3274857381	 0.238535
H	 3.1231437569	-2.6452154659	-3.8676848658	 0.241315
H	 1.0332182626	-1.6654448052	-5.2742961773	 0.114594
H	 0.3228818124	-0.0547060899	-5.0901748704	 0.139482
H	 2.0846001753	-0.250575639	-5.1905736121	 0.129097
45.0187	94.7157	104.7444	166.7	207.4614	235.9345	252.5404	296.2841	310.4117	404.5488	496.0684	606.4424	637.8058	643.132	687.6983	728.6849	781.6812	794.7013	809.39	954.7181	1012.5707	1028.6497	1064.4335	1097.4994	1108.1502	1117.6596	1211.0451	1245.6876	1274.6587	1379.0485	1391.9384	1404.8673	1408.3918	1412.9591	1469.4319	1481.0826	1482.5902	1488.4175	1495.6523	1507.0742	1535.7227	1627.9032	1658.4224	3015.5054	3042.2715	3055.4148	3063.7105	3097.9406	3115.504	3128.9593	3133.7489	3252.1198	3525.4792	3613.7206
CCN1C=C(N)C(C)=N1	CCn1cc(N)c(C)n1	
InChI=1S/C6H11N3/c1-3-9-4-6(7)5(2)8-9/h4H,3,7H2,1-2H3	InChI=1S/C6H11N3/c1-3-9-4-6(7)5(2)8-9/h4H,3,7H2,1-2H3
