13
gdb 44999	3.6324	1.32798	1.11154	5.413	63.49	-0.2796	-0.0085	0.2711	1032.9945	0.090006	-452.780169	-452.772972	-452.772028	-452.811987	27.002	
O	 0.0466625401	 0.0055307605	 0.0359228338	-0.361368
C	-0.0246618983	 1.1947195029	-0.0280163328	 0.468301
N	-1.1455409477	 1.9954054317	-0.0856493049	-0.363448
C	-0.8396506685	 3.3831085123	 0.0078659623	-0.060067
C	-0.0588967852	 3.8530957572	 1.2142214428	-0.348153
C	 0.6782760825	 3.3706432036	-0.0213072257	 0.278018
O	 1.0890704261	 2.0235431915	-0.0427961252	-0.267276
C	 1.4752598216	 4.2565194056	-0.8209714494	 0.250336
N	 2.1014711431	 4.9984040764	-1.4479831786	-0.328362
H	-2.0437616165	 1.5977437333	 0.1324949275	 0.278332
H	-1.4241394358	 4.0721835341	-0.5891147016	 0.147507
H	-0.0314404656	 4.9210956623	 1.3968950571	 0.155366
H	-0.0116277557	 3.2165472286	 2.0908594847	 0.150813
110.6475	157.3864	177.9918	343.5624	383.2614	454.017	472.814	500.0782	564.6501	610.0138	721.499	759.1974	774.758	860.3675	905.8906	916.4643	972.9586	1026.7121	1047.6606	1074.8666	1138.1496	1187.8163	1262.8492	1297.8103	1393.0187	1406.3672	1459.0113	1917.054	2364.718	3141.686	3193.4096	3243.2298	3668.3691
O=C1NC2CC2(O1)C#N	O=C1N[C@H]2C[C@]2(O1)C#N	
InChI=1S/C5H4N2O2/c6-2-5-1-3(5)7-4(8)9-5/h3H,1H2,(H,7,8)	InChI=1S/C5H4N2O2/c6-2-5-1-3(5)7-4(8)9-5/h3H,1H2,(H,7,8)/t3-,5-/m0/s1
