20
gdb 75833	2.43485	1.63911	1.19193	2.0007	78.34	-0.2273	-0.0235	0.2038	1103.951	0.170058	-403.161627	-403.152809	-403.151864	-403.194804	33.824	
C	 0.2132052946	 1.6745111195	-0.0388802123	-0.402144
C	 0.1416727335	 0.1492725523	 0.0450094712	-0.16049
C	 0.8201172424	-0.5487356993	-1.1446357115	 0.366481
O	 0.828189801	-0.1555845462	-2.2813587335	-0.309727
C	 1.4744290401	-1.8326693051	-0.614994513	-0.274228
N	 1.5300787036	-1.7356194594	 0.8455511173	-0.139533
C	 2.2572716209	-0.5366479301	 1.2958447967	-0.295467
C	 0.7700887296	-0.5175513201	 1.2602850045	 0.336065
C	-0.0375372432	-0.6194779887	 2.5297864197	-0.477279
H	 1.2420181414	 2.0273649796	 0.081109323	 0.121288
H	-0.1447738166	 2.0064798799	-1.0172323464	 0.139637
H	-0.3991716226	 2.1446748734	 0.7356686416	 0.117779
H	-0.9164436	-0.1546352034	-0.0029069533	 0.104166
H	 0.8527907076	-2.6907078877	-0.9021668047	 0.134389
H	 2.4636185042	-1.9822741984	-1.057805561	 0.136284
H	 2.774804035	-0.6459370206	 2.2445536738	 0.118809
H	 2.8066047187	 0.0402000468	 0.5519903572	 0.113679
H	-0.2335692222	 0.3730476273	 2.9507464596	 0.121003
H	-1.0034875468	-1.1015012887	 2.3408890636	 0.119485
H	 0.4948446187	-1.211504251	 3.2784395374	 0.129803
76.6518	178.4118	191.3529	202.0777	229.6517	262.6717	307.4973	421.4137	457.7507	485.187	542.415	578.7707	645.303	702.5825	773.871	777.7455	869.2026	924.6414	928.7358	987.4879	1026.3197	1051.652	1066.4393	1097.9661	1107.8532	1124.0764	1168.4354	1174.3945	1221.3693	1231.068	1292.3538	1306.5283	1345.8756	1383.2555	1406.2054	1418.5658	1458.9424	1485.6634	1493.2718	1494.0064	1498.0728	1509.1059	1848.8677	2985.1942	3029.1597	3030.551	3042.8789	3087.1852	3090.6507	3091.9757	3113.1093	3119.7309	3122.3258	3180.2326
CC1C(=O)CN2CC12C	C[C@H]1C(=O)CN2C[C@@]12C	
InChI=1S/C7H11NO/c1-5-6(9)3-8-4-7(5,8)2/h5H,3-4H2,1-2H3	InChI=1S/C7H11NO/c1-5-6(9)3-8-4-7(5,8)2/h5H,3-4H2,1-2H3/t5-,7-,8?/m0/s1
