16
gdb 77336	3.04754	1.26953	0.94433	2.6521	70.61	-0.2472	0.0009	0.2482	1185.9836	0.124417	-437.885655	-437.87706	-437.876116	-437.919068	31.617	
N	 0.2311126671	 1.0647509331	 0.6519175586	-0.508877
C	 0.0815689948	-0.1351601943	-0.1466203283	-0.124037
C	-1.3614646133	-0.6733142321	-0.2398743866	-0.206394
C	-1.2934963508	-1.4796753772	-1.5573762958	-0.098659
O	-0.3484279277	-0.785234126	-2.3883289216	-0.216606
C	 0.466552463	-0.0040819541	-1.6307260377	 0.409502
O	 1.3289017921	 0.6820356414	-2.0965556153	-0.340742
C	-1.8251870677	-1.4496618808	 0.8949863644	 0.315523
C	-2.2041289338	-2.1164050136	 1.819779334	-0.427929
H	 1.2073764373	 1.3482360669	 0.6343908258	 0.247645
H	-0.2798707895	 1.8299436943	 0.2175868059	 0.232961
H	 0.7207536758	-0.9175541148	 0.2833208358	 0.127748
H	-2.0283897832	 0.1863662876	-0.3934119617	 0.117299
H	-0.9374521382	-2.4992116259	-1.3757401004	 0.131059
H	-2.2450113203	-1.5214291337	-2.0889655947	 0.138104
H	-2.5403991057	-2.6932332608	 2.6457343375	 0.203404
76.563	130.3879	168.2578	197.9265	233.8566	267.4923	360.9042	435.4146	478.0512	554.4276	581.6322	641.0222	644.1782	651.6698	719.7533	844.9428	873.0256	955.134	1027.2999	1039.5875	1059.4593	1067.4011	1147.6542	1176.3951	1201.599	1244.9726	1272.4369	1309.447	1349.4755	1388.512	1423.0946	1520.6278	1668.0086	1882.5911	2244.2489	3012.3408	3035.7326	3055.5541	3128.1625	3482.4553	3503.5395	3557.5651
NC1C(COC1=O)C#C	N[C@H]1[C@@H](COC1=O)C#C	
InChI=1S/C6H7NO2/c1-2-4-3-9-6(8)5(4)7/h1,4-5H,3,7H2	InChI=1S/C6H7NO2/c1-2-4-3-9-6(8)5(4)7/h1,4-5H,3,7H2/t4-,5+/m1/s1
