21
gdb 62074	4.99866	0.61343	0.572	2.176	80.93	-0.2684	-0.0364	0.232	1927.1319	0.18048	-424.223581	-424.213637	-424.212693	-424.259711	35.865	
O	 0.1857583631	 1.5280318061	 0.0318843698	-0.433043
C	 0.0075627105	 0.1385936193	-0.0319061549	 0.045871
C	 0.618742509	-0.4553776104	-1.3141750815	-0.198013
C	-0.0086017731	 0.1336092555	-2.584187398	-0.20615
C	 0.6178568246	-0.407273529	-3.8514641161	 0.03062
C	 0.1554020257	-1.7201180234	-4.4352958969	-0.257301
C	-0.1557235875	-0.4236715121	-5.1439411937	-0.275787
C	 0.604776817	-0.5232108642	 1.1915283273	 0.136615
O	 1.1606482573	 0.1127211027	 2.0548167764	-0.261807
H	 0.6583988264	 1.6921844896	 0.8633114475	 0.29395
H	-1.0717514609	-0.107945486	-0.0227488939	 0.089858
H	 1.6978844628	-0.2560306935	-1.3065524074	 0.107348
H	 0.4903101444	-1.5456312383	-1.3060751841	 0.09736
H	-1.0857530673	-0.0835100751	-2.5894648607	 0.088603
H	 0.0882865526	 1.224261831	-2.5490105786	 0.124872
H	 1.6820818446	-0.2018025407	-3.9437631811	 0.08197
H	 0.8909116085	-2.3852839985	-4.8741407135	 0.110296
H	-0.6641908645	-2.2325166577	-3.9407272824	 0.105814
H	-1.1814049715	-0.0697471397	-5.1239089025	 0.110762
H	 0.3707929143	-0.2004540477	-6.0652553566	 0.111471
H	 0.5100047839	-1.6271762678	 1.2494999807	 0.09669
52.4179	60.8239	81.4125	129.4462	160.2658	248.8306	287.3446	330.4651	388.5342	411.1234	438.3875	504.806	739.1333	768.9575	779.8321	821.5495	831.0996	849.9764	908.7607	941.1219	969.5411	998.6392	1042.0465	1063.8725	1068.636	1078.1939	1138.5389	1152.5376	1174.6439	1197.613	1227.9911	1244.489	1249.0202	1294.3782	1318.5383	1351.7249	1374.9307	1401.4999	1419.6397	1438.5649	1467.9046	1472.7826	1493.8755	1508.6254	1811.9004	2917.8371	2934.4395	3013.2721	3020.9611	3057.8725	3079.5533	3126.0821	3129.4819	3133.5398	3204.4822	3220.1469	3689.4494
OC(CCC1CC1)C=O	O[C@@H](CCC1CC1)C=O	
InChI=1S/C7H12O2/c8-5-7(9)4-3-6-1-2-6/h5-7,9H,1-4H2	InChI=1S/C7H12O2/c8-5-7(9)4-3-6-1-2-6/h5-7,9H,1-4H2/t7-/m0/s1
