18
gdb 116098	2.48773	1.53876	1.06484	3.6251	70.05	-0.2512	0.0493	0.3005	1145.1451	0.148207	-476.233761	-476.225221	-476.224277	-476.267935	31.096	
C	 0.4455874547	 1.3363769908	-0.0373179945	-0.251249
O	 0.5607118268	-0.0820095379	-0.0094793518	-0.231226
C	 0.4513583187	-0.6400934138	 1.2531841302	 0.23253
C	 0.4666594626	-2.165585544	 1.1040691508	-0.273944
C	 1.4128094629	-2.747256656	 2.1410318197	-0.085528
O	 2.7015267682	-2.1376530843	 1.9838070735	-0.251814
C	 2.7233104866	-0.778948164	 2.0269096402	 0.451133
N	 3.7746475459	-0.0850057256	 2.0378632851	-0.556178
O	 1.5082652145	-0.184162891	 2.123774298	-0.243691
H	 1.2654174043	 1.8109881408	 0.5101609734	 0.152856
H	 0.4846012192	 1.6304826045	-1.0874203802	 0.133235
H	-0.5123184577	 1.6613557762	 0.393758997	 0.109428
H	-0.4459464623	-0.2729405666	 1.7696500582	 0.085181
H	-0.5415428441	-2.574449553	 1.2114933193	 0.11751
H	 0.8295089634	-2.406316695	 0.101356318	 0.138233
H	 1.0462196249	-2.5800066407	 3.1614074762	 0.120889
H	 1.5743831534	-3.816940908	 1.9985925638	 0.126277
H	 4.5881218379	-0.6980616322	 2.062528603	 0.226359
41.0659	90.1041	130.8542	197.1515	245.1634	312.1625	383.0101	462.7372	496.7953	536.4688	588.8013	684.5572	756.1045	800.2452	848.6958	907.8838	926.049	965.239	988.6307	1049.1771	1067.76	1113.6149	1137.2002	1164.8618	1182.3347	1211.2194	1259.1098	1269.7982	1298.7171	1349.7569	1403.5092	1412.9695	1430.8484	1474.6838	1482.8853	1485.4074	1509.0323	1511.943	1772.6264	3002.7814	3016.2698	3034.7722	3067.7486	3090.2782	3116.8587	3124.0366	3140.1725	3513.2578
COC1CCOC(=N)O1	CO[C@H]1CCO[C]([NH])O1	
InChI=1S/C5H9NO3/c1-7-4-2-3-8-5(6)9-4/h4,6H,2-3H2,1H3	InChI=1S/C5H9NO3/c1-7-4-2-3-8-5(6)9-4/h4,6H,2-3H2,1H3/t4-/m1/s1
