20
gdb 86709	3.32843	1.11876	0.95164	3.5667	79.64	-0.2323	-0.0154	0.2169	1277.1944	0.17176	-403.150953	-403.142423	-403.141479	-403.184467	32.397	
C	 0.0767836366	 1.5783793405	-0.0106726158	-0.403799
C	 0.0323099896	 0.0501437377	 0.0335942084	 0.033217
C	 0.7178483114	-0.6256674912	-1.1832018924	-0.261272
C	 1.2041494548	-2.0193152622	-0.6932169784	-0.066238
C	 2.4459708016	-2.4762011205	-1.423611584	 0.15006
O	 2.5298676321	-3.4780782392	-2.0881717556	-0.256481
C	 1.4460111866	-1.8002581642	 0.7983678133	-0.072508
N	 2.2178897294	-0.5670058864	 1.0801641791	-0.336889
C	 0.7466284475	-0.5669294573	 1.2262359661	-0.040817
H	 1.1141123586	 1.9268198414	 0.0129501623	 0.132044
H	-0.3925672223	 1.9624566256	-0.9222195879	 0.114546
H	-0.4492740307	 2.0176924256	 0.8436320013	 0.109739
H	-1.0147109046	-0.2795068283	 0.0803337498	 0.075758
H	 0.054306546	-0.7085745882	-2.0470027129	 0.108842
H	 1.5807197746	-0.0253235364	-1.487905602	 0.119873
H	 0.4308046197	-2.7822284568	-0.8287099999	 0.089443
H	 3.3140671774	-1.7904522351	-1.2962581245	 0.087139
H	 1.5655225259	-2.6574015961	 1.4528141371	 0.095891
H	 2.6504578301	-0.6473545819	 1.9964705888	 0.234815
H	 0.3208022558	-0.4736387572	 2.2207620773	 0.086637
69.1708	94.0807	170.8533	236.0593	244.1074	341.0849	349.0671	399.1767	463.6972	535.6765	605.306	684.3049	801.121	838.17	870.4845	888.0819	909.3619	934.2009	950.9313	961.7582	1036.3203	1057.4968	1071.1409	1090.6321	1119.3815	1133.6315	1139.8281	1187.4548	1226.8489	1251.8063	1264.2242	1304.0899	1324.3019	1343.0028	1347.5028	1385.683	1406.1765	1418.2998	1424.1231	1486.3474	1497.7636	1503.0436	1827.0298	2881.7586	3012.3472	3032.1025	3058.4394	3064.7695	3097.5911	3107.839	3111.8916	3154.2797	3169.2189	3510.6631
CC1CC(C=O)C2NC12	C[C@H]1C[C@@H](C=O)[C@H]2N[C@@H]12	
InChI=1S/C7H11NO/c1-4-2-5(3-9)7-6(4)8-7/h3-8H,2H2,1H3	InChI=1S/C7H11NO/c1-4-2-5(3-9)7-6(4)8-7/h3-8H,2H2,1H3/t4-,5-,6-,7+/m0/s1
