17
gdb 117075	4.61198	0.69553	0.61117	2.6981	66.34	-0.2426	-0.0848	0.1578	1739.9705	0.131339	-496.106632	-496.095993	-496.095049	-496.143915	35.569	
O	-0.1289065844	 1.4383604034	 0.0110629537	-0.421233
C	 0.0271708249	 0.0287619679	 0.001702997	-0.079938
C	-1.3694579041	-0.5733912484	 0.0119824324	-0.279881
C	-1.3625416909	-2.0799809203	 0.0036349724	 0.265427
O	-0.3576315452	-2.7573339323	-0.0095597911	-0.294252
C	-2.7458763182	-2.7723659127	 0.0132919783	 0.292634
O	-3.7601514237	-2.1226840935	 0.0265046777	-0.259822
C	-2.7003037557	-4.2891189655	 0.0049727462	-0.170199
O	-4.0108166562	-4.7877930752	 0.0150316205	-0.398576
H	 0.7462168839	 1.8367049713	 0.0045871577	 0.289099
H	 0.5721494566	-0.3162081482	-0.889191755	 0.101198
H	 0.5893874851	-0.3260348816	 0.87790474	 0.101207
H	-1.9359956594	-0.2290524517	 0.8862408319	 0.151505
H	-1.9529119667	-0.2195135357	-0.8472036967	 0.151497
H	-2.1205307298	-4.5976579316	-0.8807375958	 0.127445
H	-2.1035766481	-4.6067862125	 0.8760782696	 0.127446
H	-3.962563348	-5.7480448035	 0.0094748912	 0.296442
39.0273	59.1437	96.4956	102.1465	109.3732	229.626	237.1051	272.5527	285.9617	320.9355	357.2103	392.7362	523.3598	589.1066	720.2682	782.0491	812.5662	916.1977	961.3404	1038.4283	1075.4365	1082.5264	1135.3025	1188.1602	1199.6156	1234.0961	1241.0021	1263.9065	1293.9158	1360.3408	1435.1205	1444.929	1469.4501	1476.8429	1523.0968	1791.0388	1824.3514	2973.9862	2990.0018	2994.2201	3017.7223	3045.6861	3074.487	3832.14	3838.1686
OCCC(=O)C(=O)CO	OCCC(=O)C(=O)CO	
InChI=1S/C5H8O4/c6-2-1-4(8)5(9)3-7/h6-7H,1-3H2	InChI=1S/C5H8O4/c6-2-1-4(8)5(9)3-7/h6-7H,1-3H2
