21
gdb 87795	2.65133	1.4022	1.17826	1.5912	82.49	-0.2232	0.07	0.2932	1148.3047	0.18159	-387.037184	-387.028171	-387.027227	-387.070607	34.887	
C	 0.0106655192	 1.5709597535	 0.067201682	-0.424416
C	 0.1298271653	 0.0606307737	 0.07359405	 0.002891
C	 1.3946265951	-0.7171656121	-0.1843097119	-0.067945
C	 2.6338719277	-0.0384715946	 0.4252037737	-0.335484
C	 1.925379486	-0.0685248425	 1.7970163082	 0.331682
C	 2.6083344902	-0.3775091161	 3.1111714933	-0.416504
C	 1.986743695	 0.9763439359	 2.8673903849	 0.081644
O	 2.7521903226	 2.1401343716	 2.7141488993	-0.428363
C	 0.7165794714	-0.7622020516	 1.1947012477	-0.163855
H	 0.856306593	 2.0591543154	 0.5573175767	 0.138912
H	-0.0513400503	 1.9516352397	-0.9585517479	 0.111473
H	-0.8971384476	 1.8878743581	 0.5926242563	 0.114055
H	-0.7300303891	-0.4381169727	-0.3719001489	 0.08257
H	 1.4399544596	-1.4941436066	-0.9378932375	 0.083561
H	 3.516749328	-0.6827266664	 0.398792999	 0.106739
H	 2.9021655641	 0.9429399177	 0.0141900608	 0.092153
H	 2.1226334364	-1.0531498796	 3.8093864484	 0.113385
H	 3.6932051781	-0.4477762662	 3.1047572795	 0.105667
H	 1.0741859753	 1.2154736217	 3.404645456	 0.105118
H	 3.4810819739	 1.9479661967	 2.1151432598	 0.285145
H	 0.1769739161	-1.5783406856	 1.6619120006	 0.081571
100.6881	128.8293	136.3927	198.82	235.595	265.5077	303.4817	405.173	444.1525	477.4836	559.2452	605.2241	719.4561	778.8159	800.3046	823.9023	872.0561	898.4363	919.2403	960.4821	978.1714	989.6749	1014.2442	1024.7659	1056.1409	1071.9186	1088.0401	1097.7661	1128.2989	1146.8683	1169.0278	1203.4687	1207.9819	1250.3646	1282.7294	1301.8195	1324.0518	1370.1726	1417.8983	1433.9464	1439.1205	1482.7545	1488.6269	1502.3531	1506.9049	3020.0302	3031.7915	3086.7115	3087.9319	3108.4549	3111.5064	3128.5595	3160.3952	3168.5539	3182.5801	3195.5415	3816.3173
CC1C2CC3(CC3O)C12	C[C@H]1[C@H]2C[C@]3(C[C@H]3O)[C@@H]12	
InChI=1S/C8H12O/c1-4-5-2-8(7(4)5)3-6(8)9/h4-7,9H,2-3H2,1H3	InChI=1S/C8H12O/c1-4-5-2-8(7(4)5)3-6(8)9/h4-7,9H,2-3H2,1H3/t4-,5+,6+,7-,8+/m0/s1
