15
gdb 54439	3.33534	1.29286	1.05122	1.4252	66.94	-0.2683	-0.0484	0.2199	1110.7693	0.110342	-457.781519	-457.773314	-457.772369	-457.814939	29.725	
C	 0.8732969422	 1.0181070271	 0.0560418828	-0.486643
C	-0.3093401672	 0.096744328	-0.117574774	 0.299004
O	-1.2178968313	-0.0002657506	 0.6773303948	-0.309147
C	-0.3256608514	-0.740494751	-1.3494945592	 0.33979
C	-1.4950342856	-1.4469975186	-1.9381849205	-0.322256
C	-0.3046437173	-2.2647918687	-1.453281612	-0.29137
C	 0.8523027177	-2.0221468347	-2.3876760152	 0.455775
O	 1.6708198749	-2.6530423174	-2.9668667036	-0.310979
O	 0.7271190234	-0.6318753574	-2.3485078725	-0.294711
H	 1.807668538	 0.4475829478	 0.0272890078	 0.155366
H	 0.9216589136	 1.7272488442	-0.777555271	 0.158812
H	 0.7827661354	 1.5525222325	 1.0017294843	 0.146767
H	-2.3649825856	-1.5103283061	-1.2933370344	 0.164534
H	-1.6849925984	-1.3368578675	-3.0003420144	 0.146453
H	-0.3737921185	-3.0132182575	-0.6776111328	 0.148606
64.1689	108.6583	132.9789	177.582	276.2921	353.4065	431.726	466.7442	504.6119	585.2445	636.4347	694.9058	755.3689	833.7053	876.9835	928.2505	947.3497	966.7512	980.8727	1018.8933	1053.7812	1073.1206	1098.264	1155.2106	1225.4428	1245.9704	1376.9488	1402.925	1454.7522	1466.6249	1469.8344	1796.2714	1952.874	3043.9152	3104.4165	3137.0948	3162.1068	3234.2339	3239.6362
CC(=O)C12CC1C(=O)O2	CC(=O)[C@]12C[C@H]1C(=O)O2	
InChI=1S/C6H6O3/c1-3(7)6-2-4(6)5(8)9-6/h4H,2H2,1H3	InChI=1S/C6H6O3/c1-3(7)6-2-4(6)5(8)9-6/h4H,2H2,1H3/t4-,6+/m0/s1
