19
gdb 41160	2.91502	1.85364	1.4305	1.6993	74.29	-0.2409	0.0677	0.3086	944.3359	0.162194	-422.972496	-422.965855	-422.96491	-423.003126	28.086	
C	 0.0583553265	 1.5486310614	 0.1032495703	-0.21454
O	 1.5005944475	 1.4258747474	-0.0960638544	-0.31015
C	 1.2951475196	 0.1064829779	-0.6523339647	 0.129252
C	 2.1613674224	-1.0900819031	-0.2808219397	-0.12531
O	 1.297495333	-2.2397773942	-0.2831796461	-0.287258
C	 0.004242239	-2.0234449159	 0.2900662541	 0.137361
C	 0.033951455	-0.8572452806	 1.304258953	-0.284561
C	-0.0704770908	 0.0217891441	 0.0349254872	 0.285601
C	-0.9049196346	-1.1062713368	-0.60844205	-0.330021
H	-0.1831895835	 2.0370680235	 1.0522173163	 0.109572
H	-0.412600825	 2.0929418403	-0.7271603699	 0.101823
H	 1.1895069584	 0.1785246187	-1.7460919496	 0.073522
H	 2.9495041441	-1.3084034778	-1.0050310261	 0.111068
H	 2.6292334293	-0.9389059628	 0.7001797403	 0.108062
H	-0.3695899708	-3.0056909672	 0.5817833052	 0.082567
H	-0.8901993874	-0.8184742593	 1.8870734492	 0.100706
H	 0.8904209766	-0.751973983	 1.9720513847	 0.110133
H	-0.834435721	-1.231364565	-1.6916761849	 0.102391
H	-1.9488887584	-1.1506343875	-0.2846238248	 0.099783
189.952	251.2243	335.3731	377.9447	419.1037	459.173	499.0522	534.9361	591.7512	778.6519	804.6363	824.3613	838.7401	876.8926	932.9457	957.7695	967.2654	974.9453	986.3346	1021.7705	1055.1263	1064.2976	1110.6367	1139.2444	1153.2169	1167.7304	1189.0947	1204.6865	1230.7726	1243.4481	1266.2706	1277.7128	1299.0978	1337.7029	1356.574	1380.8845	1406.893	1475.2242	1502.5069	1511.7425	1532.2632	2976.5478	3007.1824	3026.5663	3053.6024	3068.8652	3081.7994	3101.214	3106.139	3118.2792	3126.6354
C1OC2COC3CC12C3	C1O[C@H]2CO[C@H]3C[C@@]12C3	
InChI=1S/C7H10O2/c1-5-2-7(1)4-9-6(7)3-8-5/h5-6H,1-4H2	InChI=1S/C7H10O2/c1-5-2-7(1)4-9-6(7)3-8-5/h5-6H,1-4H2/t5-,6-,7+/m0/s1
