19
gdb 40871	3.93316	1.40094	1.29272	2.1928	77.68	-0.24	0.0849	0.325	1026.2458	0.16078	-385.810685	-385.803639	-385.802695	-385.842394	28.318	
C	-0.034680531	 1.4505930274	 0.2193075196	-0.240372
C	 1.4689077811	 1.44180332	-0.0527158271	-0.072313
C	 1.3751961986	 0.165407662	-0.8498257381	-0.078417
C	 2.0267829863	 0.1279513809	 0.5169335958	-0.153948
C	 0.8600965517	-0.6521595478	 1.097411258	 0.349464
C	 0.9707307068	-2.1840812814	 1.246892783	-0.146637
O	 0.4414418941	-2.127853539	 2.5874289711	-0.277192
C	 0.3931024113	-0.6857968728	 2.5644067737	-0.155557
C	 0.0176942679	-0.0752218627	-0.0682015576	-0.142635
H	-0.3982699485	 1.7685853071	 1.2041236762	 0.091244
H	-0.5771630525	 1.989654213	-0.5622476958	 0.100723
H	 2.124265554	 2.2847698937	-0.23149692	 0.087553
H	 1.7353852213	-0.1124465158	-1.8289472197	 0.092901
H	 3.0788260314	 0.0174043899	 0.7501430395	 0.086149
H	 0.3414814295	-2.7860534105	 0.5782306442	 0.097693
H	 1.9939582037	-2.5837066909	 1.2274261191	 0.095076
H	 1.0857960834	-0.2390314506	 3.2905821588	 0.096794
H	-0.6181676041	-0.3030014212	 2.7575184887	 0.096674
H	-0.857026545	-0.6134041414	-0.4297476893	 0.072799
71.0951	163.4496	218.526	323.8997	417.488	459.1565	549.5091	745.0266	782.728	788.5301	793.0832	833.1096	862.0984	882.4924	918.8176	957.1517	965.9792	989.7736	993.1647	1009.9657	1027.4234	1032.2509	1038.6611	1057.5712	1106.9308	1145.9518	1147.8966	1157.2961	1161.6302	1175.7341	1195.0871	1220.5685	1235.5434	1277.5464	1304.1011	1338.5508	1362.1552	1391.8666	1499.9435	1505.4719	1530.7977	2991.394	3003.5	3026.5244	3038.6083	3039.6146	3093.9449	3128.9446	3186.7031	3196.9767	3229.8727
C1C2C3C2C2(COC2)C13	C1[C@@H]2[C@H]3[C@@H]2C2(COC2)[C@@H]13	
InChI=1S/C8H10O/c1-4-6-5(1)8(7(4)6)2-9-3-8/h4-7H,1-3H2	InChI=1S/C8H10O/c1-4-6-5(1)8(7(4)6)2-9-3-8/h4-7H,1-3H2/t4-,5+,6-,7-/m1/s1
