22
gdb 62949	2.0372	1.85184	1.43538	1.5405	85.46	-0.2278	0.0849	0.3127	1071.2968	0.193222	-367.158917	-367.150054	-367.14911	-367.191511	35.616	
C	-0.079809387	 1.5855267099	-0.0476944117	-0.449767
C	 0.0067738917	 0.061728394	 0.0053825589	 0.223607
C	-1.3591600755	-0.5741474387	-0.2657746489	-0.436565
C	 1.106470612	-0.6150157936	-0.8323746362	-0.058009
C	 2.4694046779	-0.3273762224	-0.3485139538	-0.258057
N	 1.6820840434	-1.3542660017	 0.36731588	-0.171203
C	 0.7269687192	-0.5859436902	 1.2118085322	 0.357189
C	 1.1041535284	-0.0180712059	 2.5443109447	-0.334298
C	 0.1416261111	-1.1877849929	 2.4435657625	-0.346448
H	 0.8901925581	 2.0592159094	 0.1252493942	 0.114926
H	-0.4495816826	 1.9192071799	-1.0238597919	 0.114202
H	-0.7744773871	 1.9623717549	 0.7122471484	 0.112448
H	-1.7324060326	-0.2812320316	-1.2539868915	 0.109836
H	-1.300777123	-1.6659383489	-0.2324862321	 0.126858
H	-2.0979681493	-0.2516420771	 0.4757567563	 0.111538
H	 0.9223787737	-1.1331062417	-1.7694451514	 0.089149
H	 3.296665215	-0.7477871586	-0.9128124058	 0.117074
H	 2.6946285344	 0.605743164	 0.1614808055	 0.113814
H	 2.1069751573	-0.217643616	 2.9083700273	 0.117929
H	 0.7062019204	 0.95132457	 2.8276645629	 0.111802
H	-0.906580841	-1.0135159869	 2.664274623	 0.110668
H	 0.5092539055	-2.167551026	 2.7293939773	 0.123306
134.0514	196.3852	204.7387	230.2882	255.3099	282.027	291.5817	341.8716	394.4313	505.1207	547.3469	572.0738	634.7924	755.0036	765.639	787.1062	863.1796	890.9316	918.7652	951.0015	961.8477	984.4068	994.3639	1006.9908	1036.2343	1047.503	1061.0363	1075.7243	1110.6558	1140.844	1183.0103	1188.592	1213.1894	1219.1447	1239.0193	1271.7046	1348.6214	1379.727	1401.1275	1423.6171	1452.4108	1481.6785	1484.569	1492.2183	1499.3325	1506.3247	1508.5662	3024.6673	3029.4469	3085.7125	3092.1633	3107.1732	3110.0601	3111.4862	3122.4206	3128.7135	3147.4949	3197.757	3203.7933	3219.7454
CC1(C)C2CN2C11CC1	CC1(C)[C@H]2CN2C21CC2	
InChI=1S/C8H13N/c1-7(2)6-5-9(6)8(7)3-4-8/h6H,3-5H2,1-2H3	InChI=1S/C8H13N/c1-7(2)6-5-9(6)8(7)3-4-8/h6H,3-5H2,1-2H3/t6-,9?/m1/s1
