17
gdb 84225	2.99409	1.56156	1.31954	1.3385	75.91	-0.2124	-0.0342	0.1782	991.7838	0.135285	-421.711367	-421.703848	-421.702904	-421.742879	30.602	
O	 0.1848644077	 1.4362584106	 0.2913840835	-0.432009
C	 0.0783728105	 0.0465172665	 0.0118789745	 0.084897
C	 0.6439045249	-0.7536114634	 1.2052679276	-0.145668
C	-0.2653324044	-1.6618761053	 1.6052642817	 0.050088
C	-1.259332832	-1.257268547	 2.6908485619	-0.322188
C	-2.126197314	-0.8820531966	 1.4185567239	 0.378126
O	-3.5024493857	-0.7687396625	 1.4702668903	-0.452065
C	-1.3763780043	-0.4100471213	 0.0877366776	-0.116866
C	-1.3782245571	-1.8318626537	 0.5544392686	-0.183654
H	 1.0653039985	 1.7284077763	 0.0342865718	 0.285484
H	 0.4963013654	-0.1692114184	-0.9845273388	 0.068583
H	 1.3098262255	-0.2338516206	 1.8889569279	 0.094733
H	-1.7878913758	-2.0605097271	 3.2169083238	 0.111611
H	-0.9429716258	-0.4781366533	 3.3902313388	 0.102237
H	-3.7187034151	 0.1298376071	 1.7436485942	 0.290471
H	-2.0863003455	-0.0882614148	-0.6710941009	 0.086326
H	-1.6889274829	-2.7262044568	 0.0310717335	 0.099893
121.5645	212.37	300.0385	325.4662	356.7513	380.0509	413.7056	457.4663	536.1347	556.5235	639.5908	707.1827	721.1482	803.0288	844.6947	907.9117	911.2387	947.1983	954.384	997.2855	1009.6823	1033.1826	1040.6686	1080.7719	1090.8998	1153.7496	1191.5038	1205.9477	1224.1314	1246.8673	1269.2771	1286.3478	1311.3693	1407.9106	1429.249	1497.0543	1600.342	2958.3381	3030.9073	3098.7732	3144.5522	3162.7075	3204.0278	3794.8369	3816.2901
OC1C=C2CC3(O)C1C23	O[C@H]1[CH][C]2C[C@@]3(O)[C@@H]1[C@@H]23	
InChI=1S/C7H8O2/c8-4-1-3-2-7(9)5(3)6(4)7/h1,4-6,8-9H,2H2	InChI=1S/C7H8O2/c8-4-1-3-2-7(9)5(3)6(4)7/h1,4-6,8-9H,2H2/t4-,5+,6-,7-/m0/s1
