15
gdb 43256	2.34026	2.02123	1.18393	0.9329	73.74	-0.2499	-0.0916	0.1583	991.8925	0.113152	-420.67223	-420.664797	-420.663853	-420.704244	28.066	
O	 0.0272538658	-0.0068003957	 0.0066835556	-0.329879
C	 0.0090696816	 1.2026597942	 0.0106762339	 0.323062
C	-1.2095680149	 2.074395072	 0.0307811527	-0.176017
C	-0.8622791939	 3.3700350203	 0.0310706363	-0.176017
C	 0.6290007692	 3.5154007167	 0.0121549558	 0.323063
O	 1.2496537636	 4.5536265384	 0.0079374923	-0.32988
C	 1.1833623287	 2.127354797	-0.0004508671	 0.086714
C	 2.4774958511	 1.7800594164	 0.7231913074	-0.288764
C	 2.4585946647	 1.7859490655	-0.759567528	-0.288798
H	-2.2092536423	 1.6577791961	 0.0425325784	 0.140059
H	-1.5195720468	 4.2307894728	 0.0431596583	 0.140059
H	 2.9596655799	 2.6050978009	 1.2356112051	 0.144104
H	 2.4822255985	 0.8239398468	 1.2346209662	 0.144107
H	 2.4501774481	 0.8339248446	-1.278536948	 0.144091
H	 2.9276204069	 2.615082604	-1.2775443591	 0.144093
89.6618	202.8581	206.0345	230.9051	280.6038	344.058	531.0909	564.8392	655.1431	665.0292	696.7934	769.701	798.0968	831.3568	850.1289	920.8816	980.968	987.9804	1009.8579	1054.6623	1072.4476	1086.3135	1102.9605	1170.6782	1210.2252	1270.4935	1333.8918	1377.5612	1444.8589	1482.4647	1621.2813	1800.3733	1832.4863	3138.6703	3139.2441	3208.9588	3229.7216	3230.9949	3243.5875
O=C1C=CC(=O)C11CC1	O=C1C=CC(=O)C21CC2	
InChI=1S/C7H6O2/c8-5-1-2-6(9)7(5)3-4-7/h1-2H,3-4H2	InChI=1S/C7H6O2/c8-5-1-2-6(9)7(5)3-4-7/h1-2H,3-4H2
