15
gdb 51150	3.16474	1.15734	0.94277	3.3345	65.6	-0.2592	-0.0345	0.2247	1194.5432	0.110679	-457.763306	-457.755157	-457.754212	-457.797399	28.936	
O	 0.1966507515	-0.2062258878	-0.0530455844	-0.231421
C	 0.0683794281	 0.9863665347	-0.135552069	 0.158326
C	 1.2081124647	 1.9802316046	 0.0499303256	-0.395942
C	 1.2635705468	 2.9693990159	-1.0825427586	 0.095391
C	 1.9621242215	 2.726632985	-2.4359573375	-0.329467
C	 2.3138571167	 3.913028083	-1.6201897416	 0.038911
O	 1.3232741654	 4.9549713203	-1.8493290284	-0.261873
C	 0.3451178993	 4.1533411647	-1.2744590494	 0.443668
O	-0.776531017	 4.4434517249	-1.0136914275	-0.32603
H	-0.9155966572	 1.455615398	-0.3541920992	 0.108073
H	 1.0301704985	 2.5141720667	 0.9939490218	 0.141408
H	 2.1435006339	 1.4220222645	 0.1447148262	 0.130802
H	 2.6636808547	 1.8972108858	-2.4153252752	 0.141677
H	 1.4272316703	 2.8610359546	-3.3705288937	 0.145795
H	 3.2736749028	 4.218847535	-1.2296310292	 0.140683
45.3939	64.9283	142.8309	206.1653	242.1859	347.6829	438.0619	467.2108	523.2443	671.4899	707.3818	779.7095	817.1902	843.5284	897.9215	916.1106	939.8323	998.11	1034.0188	1063.3708	1070.9424	1090.3457	1098.8163	1192.0623	1252.3143	1290.4197	1305.0652	1395.0126	1425.2397	1454.3843	1484.7895	1838.3053	1937.6804	2903.6268	3020.0664	3102.5488	3124.8064	3217.4522	3232.3851
O=CCC12CC1OC2=O	O=CC[C@]12C[C@H]1OC2=O	
InChI=1S/C6H6O3/c7-2-1-6-3-4(6)9-5(6)8/h2,4H,1,3H2	InChI=1S/C6H6O3/c7-2-1-6-3-4(6)9-5(6)8/h2,4H,1,3H2/t4-,6+/m1/s1
