14
gdb 5415	5.1463	1.58507	1.22104	1.8841	65.9	-0.2425	-0.0454	0.1971	927.8068	0.109097	-378.759993	-378.753047	-378.752103	-378.791808	24.897	
O	 0.0047181678	 1.4277846123	 0.0086077241	-0.415747
C	-0.0007301689	 0.0135613598	 0.0034009968	-0.152111
C	-1.4247387744	-0.4839930465	 0.0140105563	 0.286298
N	-1.5816222388	-1.8111081742	 0.0119996014	-0.293855
C	-2.8350353925	-2.2621812734	 0.021149012	-0.022045
C	-3.9293136725	-1.4006130184	 0.0322761483	-0.011761
N	-3.7798159882	-0.0755506637	 0.0343629584	-0.238919
C	-2.5243244605	 0.37830828	 0.0251898934	-0.043913
H	 0.9178046899	 1.7265091991	 0.0018168213	 0.296543
H	 0.5019478775	-0.3973347775	-0.8862258245	 0.115495
H	 0.5174307557	-0.4040074419	 0.8809281257	 0.115514
H	-2.9726456	-3.3407114458	 0.0196042861	 0.113901
H	-4.9452704364	-1.7869708001	 0.0396465634	 0.114235
H	-2.3778217187	 1.4520582602	 0.0267050474	 0.136365
49.2707	176.1813	222.2219	222.9461	418.6979	445.8271	474.5315	593.3439	647.5627	779.0431	833.9755	857.8328	972.6082	992.756	1034.38	1044.4394	1075.1881	1103.4264	1185.7848	1211.425	1237.9425	1241.7529	1276.1341	1330.3784	1435.9255	1452.3769	1501.0926	1511.7019	1584.6957	1618.3679	2976.1901	3001.6709	3152.4068	3171.8301	3206.3086	3847.9013
OCC1=NC=CN=C1	OCc1nccnc1	
InChI=1S/C5H6N2O/c8-4-5-3-6-1-2-7-5/h1-3,8H,4H2	InChI=1S/C5H6N2O/c8-4-5-3-6-1-2-7-5/h1-3,8H,4H2
