14
gdb 21079	3.56894	1.92506	1.26052	2.3864	67.89	-0.2602	-0.0627	0.1975	901.5287	0.108228	-378.753065	-378.745805	-378.744861	-378.785072	25.379	
C	-0.0278608352	 1.4403856259	 0.0155808215	-0.335599
N	-0.0092617635	-0.0117478488	 0.0530921693	-0.021933
N	-0.0327348719	-0.6912969002	-1.0974643381	-0.245065
C	-0.0076973684	-1.9843533769	-0.747480744	-0.000118
C	 0.032209959	-2.1400293475	 0.640667992	-0.274909
C	 0.030434414	-0.8424175689	 1.1417240047	 0.269717
C	 0.062685395	-0.3772982526	 2.5239328448	 0.075907
O	 0.0981417209	-1.1161909772	 3.4828664216	-0.267911
H	 0.8708081629	 1.8560120849	 0.4798960768	 0.150219
H	-0.0585018429	 1.7266263501	-1.0347310904	 0.170239
H	-0.9111420531	 1.8344444944	 0.5259793801	 0.150215
H	-0.0197236825	-2.7414403292	-1.5169317225	 0.124609
H	 0.0591116593	-3.0429168769	 1.2276983946	 0.135611
H	 0.0534831265	 0.7271651929	 2.6543329397	 0.069018
77.6872	143.8767	191.003	197.1895	271.7039	348.4181	531.9252	655.1586	662.315	668.2339	824.5004	830.7853	908.5845	943.9316	1026.1009	1038.2793	1063.5715	1148.2248	1172.6607	1228.8864	1333.3504	1352.0355	1404.0893	1432.5105	1457.1741	1487.3809	1496.0943	1508.2828	1559.6431	1785.4205	2886.2939	3049.3566	3113.3892	3170.6202	3253.792	3284.2161
CN1N=CC=C1C=O	Cn1nccc1C=O	
InChI=1S/C5H6N2O/c1-7-5(4-8)2-3-6-7/h2-4H,1H3	InChI=1S/C5H6N2O/c1-7-5(4-8)2-3-6-7/h2-4H,1H3
