19
gdb 106124	2.65895	1.38776	1.15602	1.9807	74.92	-0.2462	0.0654	0.3116	1123.1533	0.159565	-422.962849	-422.954584	-422.95364	-422.995683	32.151	
O	 0.179645781	 1.4286154413	 0.2781166051	-0.409483
C	 0.0617459232	 0.0791933125	-0.1556680329	-0.218535
C	-1.3418971961	-0.4212768956	-0.1459913627	 0.316995
C	-2.2652389052	-0.7837073981	 1.0012280837	-0.134958
C	-3.3820207052	 0.1147581821	 0.4656677744	-0.236992
C	-2.6806015289	-0.0166757803	-0.9099128081	-0.149299
C	-2.8551681027	-1.5194926013	-1.2751222443	 0.164202
O	-2.3183955824	-1.8998059792	-2.5220254268	-0.446494
C	-1.9444006277	-1.8167721092	-0.0839578599	-0.173989
H	-0.2127463763	 1.4793884326	 1.1561369286	 0.281071
H	 0.4775070409	 0.0700848386	-1.1703842006	 0.107278
H	 0.6863854202	-0.5971878299	 0.4519996962	 0.091603
H	-1.9921274296	-0.9746301784	 2.0327938404	 0.086623
H	-4.4192121454	-0.2339462008	 0.5338885634	 0.092746
H	-3.3090505577	 1.1275697291	 0.8710626369	 0.100982
H	-2.7817628891	 0.741666443	-1.6835487339	 0.08066
H	-3.8772418921	-1.9129285463	-1.2633706703	 0.080231
H	-1.3857706867	-1.6538928457	-2.5277463603	 0.277176
H	-1.4456198403	-2.7491332745	 0.1534445312	 0.090182
88.088	120.7157	187.0885	272.0871	294.9895	342.363	372.1081	403.7134	451.6109	521.4354	634.4418	742.5893	789.4567	835.4172	860.985	912.0311	922.1974	937.2051	967.3261	994.8521	1015.9004	1019.8195	1040.9757	1060.6939	1090.2033	1121.3475	1136.8113	1161.0245	1201.3215	1223.186	1232.4016	1245.2969	1284.598	1293.7607	1308.2589	1363.2562	1415.1837	1433.7	1447.5117	1493.1716	1500.7535	2963.0024	3031.0067	3048.5022	3055.8493	3094.6703	3143.0873	3176.4942	3189.9863	3788.5433	3809.774
OCC12C3CC1C(O)C23	OC[C@@]12[C@H]3C[C@@H]1[C@@H](O)[C@@H]23	
InChI=1S/C7H10O2/c8-2-7-3-1-4(7)6(9)5(3)7/h3-6,8-9H,1-2H2	InChI=1S/C7H10O2/c8-2-7-3-1-4(7)6(9)5(3)7/h3-6,8-9H,1-2H2/t3-,4+,5-,6+,7+/m0/s1
