13
gdb 20641	3.99333	1.86837	1.28298	3.3545	64.33	-0.2476	-0.0648	0.1828	884.7583	0.095178	-398.602203	-398.595341	-398.594397	-398.633422	25.026	
C	 0.0372193064	 1.5124320365	 0.0313233515	-0.467233
C	-0.0598630954	 0.0207668841	 0.0276118895	 0.432127
C	-1.1814972688	-0.7050566099	-0.1764007996	-0.350717
C	-1.1165737557	-2.1494260705	-0.1502260251	 0.369433
O	-2.0448258444	-2.9240045038	-0.3173829186	-0.36087
C	 0.2606716075	-2.6329609784	 0.1135742732	-0.056669
N	 1.3113916831	-1.9206386146	 0.3044022061	-0.044156
O	 1.1491839267	-0.53824277	 0.2605227054	-0.270075
H	 0.7395573589	 1.8499133553	-0.7374620634	 0.159311
H	-0.9404145121	 1.9578536517	-0.1570866498	 0.147373
H	 0.4131921716	 1.8667924882	 0.9963383693	 0.159308
H	-2.1278320696	-0.2120170926	-0.359200417	 0.126382
H	 0.4284348416	-3.706271696	 0.1555094585	 0.155785
118.8106	153.473	187.239	307.1617	419.2804	468.8666	516.217	535.0731	572.6233	722.3258	751.2873	883.605	884.1984	939.8224	959.9467	998.4588	1042.1666	1065.6437	1183.1572	1246.7266	1311.0554	1380.3076	1413.5174	1468.8651	1479.9415	1632.271	1673.039	1763.3383	3047.4055	3107.9142	3149.664	3178.8335	3216.1247
CC1=CC(=O)C=NO1	Cc1cc(=O)cno1	
InChI=1S/C5H5NO2/c1-4-2-5(7)3-6-8-4/h2-3H,1H3	InChI=1S/C5H5NO2/c1-4-2-5(7)3-6-8-4/h2-3H,1H3
