15
gdb 11331	4.58594	1.4951	1.14656	1.1525	66.5	-0.2286	-0.0026	0.226	1000.2881	0.120133	-396.033958	-396.026217	-396.025273	-396.066492	27.65	
C	 0.070863504	 1.4234757378	 0.0371149693	-0.336481
N	 0.037673022	-0.0223502068	-0.0634141502	-0.339297
C	-1.0811097359	-0.6134524624	-0.0852203019	 0.472997
N	-1.2421467896	-1.9868900462	-0.2009450409	-0.355224
C	-2.6090221134	-2.3887461744	 0.0706064213	-0.289294
C	-3.3642747078	-1.0548118289	 0.072319262	 0.415122
O	-4.5539310784	-0.8765005151	 0.1362850505	-0.351504
N	-2.3835719034	-0.0879461745	-0.0088800666	-0.379969
H	 1.0456497187	 1.7332553391	 0.4242633412	 0.130317
H	-0.0494556648	 1.9019511173	-0.9458150962	 0.119312
H	-0.6922602241	 1.8462712473	 0.7113480031	 0.094986
H	-0.4609602633	-2.5519473134	 0.0893626933	 0.25875
H	-3.022706489	-3.0510689132	-0.6971127007	 0.146358
H	-2.7445136921	-2.8750608267	 1.04664191	 0.140362
H	-2.5951447028	 0.8953819201	-0.0375939045	 0.273565
64.8151	131.7797	153.039	216.3703	250.938	438.7091	463.183	520.0103	547.021	599.6582	627.037	708.8548	723.0405	878.3971	958.2265	1015.097	1052.8635	1101.4197	1123.0769	1162.067	1196.6382	1214.5296	1303.1374	1355.5708	1391.8167	1431.074	1447.7978	1493.5715	1503.2873	1513.4359	1798.6624	1864.3008	2962.5073	3015.1732	3020.8092	3068.8448	3090.4748	3652.8936	3672.0164
CN=C1NCC(=O)N1	CN=C1NCC(=O)N1	
InChI=1S/C4H7N3O/c1-5-4-6-2-3(8)7-4/h2H2,1H3,(H2,5,6,7,8)	InChI=1S/C4H7N3O/c1-5-4-6-2-3(8)7-4/h2H2,1H3,(H2,5,6,7,8)
