16
gdb 8137	4.32045	1.80979	1.49282	1.4319	65.54	-0.2166	0.0548	0.2714	869.4555	0.13147	-379.933233	-379.92603	-379.925086	-379.96412	28.326	
C	-0.0216590253	 1.5172772965	 0.0000131575	-0.465578
C	 0.0555521588	 0.0144618006	 0.0070662867	 0.334684
C	-0.8219934909	-0.8308991176	 0.9175264529	-0.356283
C	 0.6736143424	-0.8497956824	 1.0907369171	 0.020753
O	 1.3757195285	-1.8799914831	 0.4087826137	-0.246238
C	 1.12601841	-1.648893269	-0.914775065	 0.44508
N	 1.6135156291	-2.6156752241	-1.7523687734	-0.579644
N	 0.4374251908	-0.6206288722	-1.238805397	-0.383545
H	 0.9210794909	 1.9538725367	-0.3449824856	 0.120457
H	-0.8150584048	 1.8545189279	-0.674939075	 0.129515
H	-0.238467858	 1.9052409508	 0.9998512109	 0.109203
H	-1.3779016642	-0.3119256031	 1.6919692609	 0.112779
H	-1.3112467661	-1.7057539983	 0.5018205924	 0.121658
H	 1.175368071	-0.528509301	 1.9946069663	 0.106624
H	 2.442250062	-3.0868923722	-1.421569259	 0.262259
H	 1.6522473059	-2.3282861897	-2.7183287833	 0.268276
173.7462	188.3448	239.9483	288.6778	368.2581	418.7274	449.6616	480.6618	576.2411	610.5611	702.2313	743.6826	776.9647	804.0344	877.5339	940.9589	959.3509	962.5546	1000.3925	1033.5285	1100.8183	1114.4863	1132.6501	1152.7057	1255.1374	1283.38	1380.0242	1419.8561	1420.9768	1469.4089	1479.2144	1499.3124	1614.4348	1734.674	3034.311	3101.6328	3109.436	3124.4501	3192.8083	3218.0268	3580.8927	3694.0279
CC12CC1OC(N)=N2	C[C@]12C[C@H]1OC(=N2)N	
InChI=1S/C5H8N2O/c1-5-2-3(5)8-4(6)7-5/h3H,2H2,1H3,(H2,6,7)	InChI=1S/C5H8N2O/c1-5-2-3(5)8-4(6)7-5/h3H,2H2,1H3,(H2,6,7)/t3-,5+/m1/s1
