23
gdb 74447	2.61992	1.37354	1.16527	0.3198	91.95	-0.2251	0.0325	0.2576	1217.9119	0.206239	-351.175931	-351.167003	-351.166059	-351.209014	35.363	
C	-0.1067424043	 1.5329580274	 0.0239604503	-0.488389
C	-0.0063013174	 0.039762856	-0.0029328615	 0.327441
C	-0.0969362257	-0.7562858393	-1.0726958279	-0.239001
C	 0.020405903	-2.2260672002	-0.7556909862	 0.331739
C	-1.2088239675	-3.0319162817	-1.1643934988	-0.467872
C	 1.4095790076	-2.8443702288	-1.1177564535	-0.264729
C	 1.9072315974	-2.5262067571	 0.3181787173	-0.223524
C	 0.4519609424	-2.1871398598	 0.7565992265	-0.043881
C	 0.2022559412	-0.7607108609	 1.2712254457	-0.325527
H	 0.8080796477	 1.9850123751	 0.4285919478	 0.122591
H	-0.2780625015	 1.9469408587	-0.9734865377	 0.120752
H	-0.927036575	 1.8623462624	 0.6751647341	 0.12259
H	-0.2587090955	-0.4011329713	-2.0874119248	 0.07668
H	-1.3450268504	-3.0203861584	-2.2527063514	 0.110776
H	-1.1154431169	-4.0786101109	-0.8540543596	 0.107218
H	-2.11928065	-2.6227268573	-0.712641359	 0.112165
H	 1.3412412384	-3.9192371545	-1.3131259213	 0.090686
H	 1.9531108091	-2.3783314194	-1.9442773313	 0.090613
H	 2.3928642542	-3.3466077164	 0.851927193	 0.093525
H	 2.5670757502	-1.6549927408	 0.3597457887	 0.097462
H	 0.0022218687	-2.9618124986	 1.3819173421	 0.056535
H	 1.0486552447	-0.3830235108	 1.8619363873	 0.095771
H	-0.6786419605	-0.6888450733	 1.92572923	 0.096381
112.1863	126.3036	184.9796	218.0279	252.5422	275.4791	348.5438	370.3492	409.6312	471.1385	560.5294	612.1588	649.5422	755.8165	800.4037	851.0785	864.1452	883.3157	901.7213	924.1101	951.6995	965.8838	1003.636	1020.4321	1044.6441	1053.1774	1110.6266	1132.3736	1147.6509	1184.9451	1203.2278	1217.3938	1241.2021	1257.6745	1271.9765	1274.0759	1315.8787	1325.8984	1360.7888	1404.8265	1412.3796	1475.1028	1479.0756	1483.8153	1487.6796	1492.0372	1493.0683	1497.1093	1713.5	2996.9909	3014.3381	3017.8303	3025.0445	3044.3233	3055.9328	3058.4114	3076.0091	3082.5	3090.2255	3092.9747	3108.1139	3111.9953	3159.9452
CC1=CC2(C)CCC2C1	CC1=C[C@@]2(C)CC[C@H]2C1	
InChI=1S/C9H14/c1-7-5-8-3-4-9(8,2)6-7/h6,8H,3-5H2,1-2H3	InChI=1S/C9H14/c1-7-5-8-3-4-9(8,2)6-7/h6,8H,3-5H2,1-2H3/t8-,9+/m0/s1
