20
gdb 93504	2.92194	1.28101	1.05338	3.1313	75.33	-0.2343	0.0328	0.2671	1194.3557	0.172286	-440.337575	-440.328593	-440.327648	-440.371058	34.168	
C	 0.0462835724	 1.5800786222	 0.0002949512	-0.410635
C	 0.0407873908	 0.0492302621	 0.0206596309	 0.018235
C	 0.704330379	-0.5213958091	-1.2377184317	-0.148109
N	 0.831300813	-1.9727186074	-1.1716464776	-0.314825
C	 0.9892455745	-2.7270580503	-0.0426833715	 0.401751
O	 1.3374119735	-3.8928608364	-0.0862188233	-0.379641
C	 0.6163234265	-2.0470751542	 1.2725584347	-0.352196
C	 0.7420326553	-0.522773543	 1.2595741611	 0.105676
O	 2.105330081	-0.1120690502	 1.1891161853	-0.436391
H	 1.0696435081	 1.9619080782	 0.040195328	 0.140274
H	-0.4327418573	 1.9654297515	-0.90564147	 0.111615
H	-0.4971028588	 1.981167114	 0.8616438212	 0.114
H	-0.9974177514	-0.3056426899	 0.0524441125	 0.080763
H	 0.1048080631	-0.2641238965	-2.1179948149	 0.105089
H	 1.6905067082	-0.0546704921	-1.3617176554	 0.123041
H	 1.124941533	-2.4534977827	-2.010661602	 0.242955
H	-0.4192760558	-2.3293818373	 1.5010283239	 0.12837
H	 1.235014835	-2.4951732075	 2.0565822094	 0.116251
H	 0.2706919256	-0.109428081	 2.1655722373	 0.065657
H	 2.5859724142	-0.5322604904	 1.9087846009	 0.288121
79.766	129.542	193.9527	213.0228	257.6567	275.6151	305.3084	369.4573	405.836	455.3305	526.166	573.8973	619.991	672.3601	735.5083	766.4767	885.9503	892.4164	931.3569	968.9188	1014.2282	1036.5423	1084.5918	1105.4458	1134.5667	1160.1059	1210.0734	1226.504	1286.8204	1293.4173	1314.5324	1338.883	1379.4281	1389.5204	1405.9916	1407.8048	1431.4824	1462.7374	1484.0331	1494.8767	1505.213	1524.7551	1790.502	2967.9717	3013.7215	3026.2226	3038.9587	3040.4321	3059.8542	3086.6604	3102.6106	3124.9191	3596.8834	3825.8316
CC1CNC(=O)CC1O	C[C@H]1CNC(=O)C[C@H]1O	
InChI=1S/C6H11NO2/c1-4-3-7-6(9)2-5(4)8/h4-5,8H,2-3H2,1H3,(H,7,9)	InChI=1S/C6H11NO2/c1-4-3-7-6(9)2-5(4)8/h4-5,8H,2-3H2,1H3,(H,7,9)/t4-,5+/m0/s1
