20
gdb 103797	2.60987	1.17851	1.04966	3.9373	76.8	-0.2494	0.0061	0.2555	1260.985	0.167944	-440.291869	-440.281448	-440.280503	-440.327832	36.938	
C	-0.0175198284	 1.2785046311	-0.1475049671	-0.477522
C	-0.0069927983	-0.2290311249	 0.0109207851	 0.374267
O	 0.9535835529	-0.9268406853	-0.2432902242	-0.353287
N	-1.1575899536	-0.7728913762	 0.5601856215	-0.099556
C	-2.5517250125	-0.5944896059	 0.2262690774	-0.310307
C	-1.8869713022	-1.944327403	 0.1054607206	 0.259188
C	-1.5978088511	-2.4966059068	-1.2758263929	-0.440405
C	-2.0708852085	-2.9837479996	 1.1962832574	-0.095162
O	-0.9034677103	-3.7697185478	 1.3437491387	-0.41853
H	 1.0030692919	 1.6303151061	-0.2973197349	 0.14984
H	-0.6189891985	 1.5598209627	-1.0194823279	 0.13968
H	-0.4608727775	 1.7634890418	 0.726438514	 0.141975
H	-3.2181409218	-0.3780887743	 1.0585648495	 0.123266
H	-2.7995532309	-0.0819430834	-0.7014174976	 0.123283
H	-1.4507251836	-1.6970495281	-2.006362281	 0.115603
H	-0.6970590054	-3.1126268397	-1.2566838508	 0.156778
H	-2.4347881807	-3.1191902345	-1.6084031672	 0.120153
H	-2.3429522102	-2.4774689731	 2.1349739766	 0.087418
H	-2.8793235843	-3.6760136736	 0.9362153372	 0.10786
H	-0.1566088071	-3.1606324252	 1.4062030956	 0.29546
64.212	77.1191	88.8991	127.3655	143.8863	181.5746	251.9767	311.5688	360.1253	399.096	417.9209	442.9247	517.1128	582.8368	622.7031	695.2812	778.5356	903.178	909.0737	965.5742	994.3231	1009.0262	1050.9937	1068.7593	1096.3425	1111.9358	1134.6231	1139.911	1208.5894	1288.3568	1299.2266	1371.3145	1388.2308	1413.8037	1427.109	1446.1654	1468.1347	1477.6001	1478.6769	1495.2559	1501.409	1512.9627	1775.1187	2988.5018	3043.6673	3046.1265	3070.0237	3091.5783	3109.5382	3114.4078	3141.4338	3161.1525	3176.9691	3776.5941
CC(=O)N1CC1(C)CO	CC(=O)N1C[C@]1(C)CO	
InChI=1S/C6H11NO2/c1-5(9)7-3-6(7,2)4-8/h8H,3-4H2,1-2H3	InChI=1S/C6H11NO2/c1-5(9)7-3-6(7,2)4-8/h8H,3-4H2,1-2H3/t6-,7?/m1/s1
