16
gdb 16620	3.32667	2.18167	1.52427	1.99	65.2	-0.2444	-0.0058	0.2386	840.6107	0.130552	-383.726766	-383.719563	-383.718619	-383.757949	27.682	
C	-0.0498186151	 1.5098532321	 0.0489387705	-0.486198
C	-0.0804198665	 0.0194111366	-0.0215378804	 0.27263
C	-0.0691769828	-0.7656847416	-1.1044898885	-0.197417
C	 0.0155347019	-2.2045895517	-0.7115284352	 0.009972
O	 1.2282214879	-2.5273057753	 0.0327758224	-0.272812
C	 0.0173439569	-2.2540047156	 0.751179664	-0.006
C	-0.0132983001	-0.8119584985	 1.2661637599	 0.032967
O	 1.1247089102	-0.4925812488	 2.0519399413	-0.432327
H	 0.8114476082	 1.8387621016	 0.6411380535	 0.14552
H	 0.0077759595	 1.9658681159	-0.9425764818	 0.123203
H	-0.9421152345	 1.898197073	 0.5568366545	 0.128134
H	-0.069354474	-0.4273224811	-2.1341243515	 0.100118
H	-0.3537243239	-3.0083079575	-1.3400297705	 0.102088
H	-0.3779844028	-3.0742847384	 1.3429431412	 0.101129
H	-0.8828909575	-0.6318699173	 1.9096924323	 0.088617
H	 1.8784324725	-0.8478124933	 1.5609892384	 0.290377
127.5672	177.3043	222.561	245.5181	338.9831	466.5865	491.5101	511.9643	582.0088	689.1764	713.8741	796.2834	832.5392	875.5382	888.8451	916.9825	975.2857	1031.0404	1047.0829	1066.7185	1079.9926	1113.2809	1191.7677	1250.676	1266.6616	1283.1634	1306.1727	1344.3032	1405.076	1419.9567	1431.5514	1473.9546	1487.5031	1703.0867	3023.0346	3042.8557	3077.6341	3119.0485	3156.7726	3174.7085	3200.6266	3756.6959
CC1=CC2OC2C1O	CC1=C[C@H]2O[C@H]2[C@H]1O	
InChI=1S/C6H8O2/c1-3-2-4-6(8-4)5(3)7/h2,4-7H,1H3	InChI=1S/C6H8O2/c1-3-2-4-6(8-4)5(3)7/h2,4-7H,1H3/t4-,5+,6-/m1/s1
