17
gdb 96749	3.98186	0.77352	0.65341	2.402	81.56	-0.2346	-0.0706	0.164	1645.2227	0.131951	-417.968207	-417.957815	-417.956871	-418.004639	35.725	
C	-0.0685723375	 1.4563938206	 0.1668440066	-0.308853
N	-0.0043568946	 0.0085387067	 0.0705495745	-0.302986
C	 0.5660960044	-0.582478458	-0.9066322498	 0.30962
N	 0.6763001211	-1.958030195	-0.9183874451	-0.348522
C	-0.0296121249	-2.7353847596	 0.0911175274	-0.272026
C	 0.1304217458	-4.1639097126	-0.145052887	 0.255753
C	 0.2575538673	-5.339163083	-0.3582094461	-0.40905
C	 1.2183748385	 0.0457024931	-2.1146778776	 0.105078
O	 1.2385479264	 1.2259850947	-2.3478405822	-0.237957
H	 0.9155090478	 1.9347067361	 0.1003097991	 0.128634
H	-0.6843258729	 1.8958639932	-0.6272276027	 0.128964
H	-0.5170469083	 1.7142815252	 1.1303013503	 0.113791
H	 0.8110449809	-2.4124609244	-1.8079035712	 0.250669
H	 0.3605996319	-2.4568768618	 1.0772523651	 0.158486
H	-1.0963368424	-2.4647677099	 0.1144597558	 0.145145
H	 0.3664488598	-6.3814809468	-0.5306839478	 0.203323
H	 1.6991623767	-0.6845247285	-2.8079309492	 0.079932
37.1337	69.5811	100.9527	137.8694	181.6417	214.6255	243.5033	268.5277	333.1787	367.0979	394.3916	430.0236	527.0886	548.7983	617.6727	676.9855	773.1407	849.1343	963.7822	996.7407	1007.7073	1086.3833	1106.2761	1116.5133	1159.3935	1235.7536	1270.8627	1362.2685	1434.9829	1444.711	1479.4517	1493.6791	1500.0328	1508.3436	1695.4618	1829.0183	2246.9163	2849.7465	2994.0869	3015.3081	3049.8844	3070.8511	3095.9806	3504.9498	3629.4
CN=C(NCC#C)C=O	CN=C(NCC#C)C=O	
InChI=1S/C6H8N2O/c1-3-4-8-6(5-9)7-2/h1,5H,4H2,2H3,(H,7,8)	InChI=1S/C6H8N2O/c1-3-4-8-6(5-9)7-2/h1,5H,4H2,2H3,(H,7,8)
