23
gdb 115051	2.25183	1.28616	0.89425	0.8531	87.89	-0.2428	0.0158	0.2586	1399.4838	0.205342	-388.296278	-388.286404	-388.28546	-388.33143	36.386	
C	 0.1802297717	 1.72171789	 0.0641314563	-0.388775
C	 0.4644731201	 0.2242624472	-0.0913433182	-0.179062
C	 0.5940835681	-0.5064938979	 1.247318706	 0.002206
C	-0.6788736554	-0.5185436558	 2.1342898296	-0.265711
C	-0.5627016543	-1.824570605	 2.8791107395	-0.060515
C	 0.3739207795	-2.6195315797	 2.3640414428	-0.091137
C	 1.0135800466	-1.9968426299	 1.1382533422	 0.069415
O	 0.501609667	-2.5466518972	-0.0759507868	-0.244722
C	 0.9674826528	-3.8431903823	-0.3596475804	-0.232588
H	 0.9729241018	 2.2217622958	 0.6328831708	 0.108769
H	 0.1124959124	 2.2126937533	-0.9117761754	 0.109581
H	-0.7643113613	 1.9009722104	 0.5888654087	 0.115247
H	-0.3255739261	-0.2498111757	-0.6824355825	 0.111214
H	 1.3901027083	 0.0865167481	-0.6636547446	 0.091605
H	 1.3840509753	-0.0186709118	 1.8336120129	 0.074172
H	-0.7302492576	 0.3466978203	 2.8044186366	 0.102098
H	-1.5975586486	-0.4969419881	 1.5304498243	 0.111391
H	-1.1944611724	-2.0714767891	 3.7263893482	 0.093528
H	 0.6224865295	-3.6117816251	 2.7227727318	 0.091654
H	 2.1103985723	-2.1063165892	 1.1265595192	 0.055336
H	 2.0689088052	-3.8846124532	-0.3801773738	 0.098693
H	 0.610869617	-4.5881393087	 0.367181035	 0.103732
H	 0.5882775879	-4.1154501963	-1.3482003823	 0.123869
64.5395	95.4206	106.0383	151.7335	196.29	223.6497	263.472	290.658	340.2488	408.2309	480.1119	529.2138	683.5926	740.7802	784.6456	796.0373	839.0151	913.9036	951.2184	958.4816	973.9375	983.1959	990.2175	1046.0346	1069.8937	1120.8497	1135.6594	1140.9675	1162.0944	1182.547	1193.2353	1220.4767	1277.6913	1293.9147	1309.448	1326.5812	1343.8611	1378.527	1381.4427	1387.2137	1411.8475	1477.2286	1479.5508	1487.0671	1488.7733	1501.0411	1507.4688	1510.705	1682.4689	2960.7946	2969.6766	3007.6363	3016.8961	3017.6917	3027.7588	3033.1616	3060.2264	3073.8063	3098.1369	3100.9575	3106.2056	3176.1926	3204.5586
CCC1CC=CC1OC	CC[C@H]1CC=C[C@H]1OC	
InChI=1S/C8H14O/c1-3-7-5-4-6-8(7)9-2/h4,6-8H,3,5H2,1-2H3	InChI=1S/C8H14O/c1-3-7-5-4-6-8(7)9-2/h4,6-8H,3,5H2,1-2H3/t7-,8+/m0/s1
