17
gdb 7637	4.52729	1.27381	1.22296	3.6365	65.18	-0.2539	0.0232	0.2771	1036.6939	0.141591	-401.024471	-401.016294	-401.01535	-401.057078	30.474	
C	-0.0135959751	 1.5925617623	 0.0446504282	-0.404491
C	 0.0311001775	 0.0634600598	-0.0109604972	 0.122363
O	 0.8484237909	-0.4704624552	 1.0178767436	-0.433453
C	-1.3701336847	-0.5538636981	 0.0276123222	 0.03764
C	-1.4652409015	-2.1000245563	 0.1807341643	-0.403014
C	-2.2684856471	-1.8133739034	 1.4680207293	 0.421459
O	-2.893617282	-2.4517151306	 2.267294758	-0.344003
N	-2.0303662671	-0.4508603754	 1.3483824455	-0.346256
H	 1.0013269511	 1.9970925854	 0.0322192219	 0.13264
H	-0.5654880815	 2.0077624371	-0.805458289	 0.114378
H	-0.5009734594	 1.9329659272	 0.9662232918	 0.108215
H	 0.504997262	-0.2492896322	-0.9498946744	 0.095506
H	 0.3623430321	-0.3567672919	 1.8446254281	 0.283881
H	-1.9836846036	-0.1606296671	-0.7911664809	 0.084372
H	-2.0340610227	-2.6235891011	-0.5887007074	 0.131795
H	-0.5073608564	-2.5922815655	 0.351733243	 0.149492
H	-2.5656538925	 0.3086585449	 1.747222653	 0.249475
86.9378	97.2374	207.8457	243.9462	269.4332	345.9758	395.8447	449.8964	466.8115	514.4792	575.5003	634.2925	723.8134	787.1575	896.5511	929.7613	966.942	987.4058	1030.7316	1045.9609	1083.788	1121.0774	1154.7142	1166.5224	1205.5211	1264.5897	1290.2533	1345.8118	1368.4351	1383.9431	1404.3946	1424.347	1448.5158	1490.9846	1498.7882	1900.3017	3027.5974	3036.7426	3044.5058	3095.4966	3096.269	3123.8398	3158.9356	3587.745	3771.5704
CC(O)C1CC(=O)N1	C[C@@H](O)[C@H]1CC(=O)N1	
InChI=1S/C5H9NO2/c1-3(7)4-2-5(8)6-4/h3-4,7H,2H2,1H3,(H,6,8)	InChI=1S/C5H9NO2/c1-3(7)4-2-5(8)6-4/h3-4,7H,2H2,1H3,(H,6,8)/t3-,4-/m1/s1
