17
gdb 50232	2.87614	1.76939	1.41404	3.498	71.	-0.2411	-0.012	0.2291	938.6559	0.135321	-421.767739	-421.760397	-421.759453	-421.799841	28.271	
O	-0.3772579984	 0.4806156175	 0.8467518487	-0.261883
C	-0.0272020555	 1.1355722887	-0.1014299669	 0.164355
C	 1.1941701685	 2.0216860891	-0.1063876688	-0.092648
C	 1.1464748884	 3.3464814664	-0.9346869096	-0.271529
C	 1.4501973378	 4.1528613751	 0.3626865292	-0.058273
C	 0.222435964	 4.5887088375	 1.1983277804	 0.013009
O	-0.7937735681	 3.5925700127	 1.0265275145	-0.236648
C	 0.2469965736	 3.3313322454	 1.9741884695	 0.028145
C	 1.4846216901	 2.8269341177	 1.1949363057	-0.061798
H	-0.5858377733	 1.1039612861	-1.0656504498	 0.074151
H	 2.0442557172	 1.3906933245	-0.3923748713	 0.105762
H	 1.9290237341	 3.4238054287	-1.6917773744	 0.103627
H	 0.1798814407	 3.5628650501	-1.3953617257	 0.114685
H	 2.2916895258	 4.8441691913	 0.3644146423	 0.079648
H	-0.1141518546	 5.5877337446	 1.452942417	 0.105814
H	-0.0636285383	 3.097503704	 2.9852442134	 0.112941
H	 2.3436591683	 2.5544345608	 1.8055598357	 0.080642
87.99	115.1125	165.3208	296.8102	351.4369	406.5668	568.0332	650.6319	690.987	731.7427	804.3722	814.3508	832.6254	869.9432	884.0597	912.9271	930.6203	979.5303	994.4991	1026.4981	1041.398	1053.5356	1084.0074	1110.4014	1149.4569	1189.8167	1209.6072	1225.0887	1247.1816	1267.7719	1281.7339	1302.0768	1313.2915	1377.6119	1412.9651	1473.969	1822.8235	2861.6577	3041.1393	3069.2098	3118.8051	3126.3233	3133.5199	3174.7689	3196.9349
O=CC1CC2C3OC3C12	O=C[C@H]1C[C@H]2[C@H]3O[C@H]3[C@@H]12	
InChI=1S/C7H8O2/c8-2-3-1-4-5(3)7-6(4)9-7/h2-7H,1H2	InChI=1S/C7H8O2/c8-2-3-1-4-5(3)7-6(4)9-7/h2-7H,1H2/t3-,4-,5+,6-,7+/m1/s1
