16
gdb 13443	3.4301	1.40247	1.24906	3.2898	61.84	-0.2585	-0.0072	0.2513	1007.8276	0.128049	-420.872861	-420.864168	-420.863223	-420.906504	30.253	
C	-0.0013728167	 1.4921366338	 0.4292011408	-0.410562
C	 0.0567244712	 0.0038859657	 0.1708193706	-0.084817
C	 1.3396493177	-0.6390612343	-0.3277605519	 0.090365
O	 2.4810563041	 0.143786376	-0.4726519454	-0.42257
C	 0.8498433042	-0.9347326858	 1.0627657761	 0.015917
O	 1.6920934652	-0.3986441247	 2.066483235	-0.203352
C	 1.1093614634	-0.0255964578	 3.2320450962	 0.179345
O	 1.7373108568	 0.4156095552	 4.143942401	-0.264592
H	 0.9852300883	 1.889543398	 0.673174599	 0.138543
H	-0.3521085609	 2.0136731787	-0.4664539417	 0.1306
H	-0.6880514635	 1.7343824285	 1.2472277592	 0.117892
H	-0.8604417944	-0.4358197448	-0.2131196122	 0.096263
H	 1.2682643661	-1.4291192904	-1.0709377882	 0.105078
H	 2.9487446354	 0.1437122246	 0.371542559	 0.305493
H	 0.4615404121	-1.918596416	 1.3085014455	 0.114409
H	 0.016055061	-0.1863651167	 3.2278601872	 0.091987
70.6851	119.308	141.2287	152.2517	197.7654	263.5614	293.4778	313.0431	490.1712	538.8674	641.7524	697.2958	767.4789	786.9785	912.4358	986.5775	1018.8211	1050.5828	1069.3194	1118.082	1138.8622	1151.9914	1165.4629	1176.0714	1250.2316	1347.2493	1352.0261	1379.0182	1415.221	1418.3522	1444.0558	1491.6359	1502.1257	1872.3934	2980.8404	3042.1066	3101.4157	3131.0778	3136.336	3143.7869	3154.5844	3782.6394
CC1C(O)C1OC=O	C[C@H]1[C@@H](O)[C@H]1OC=O	
InChI=1S/C5H8O3/c1-3-4(7)5(3)8-2-6/h2-5,7H,1H3	InChI=1S/C5H8O3/c1-3-4(7)5(3)8-2-6/h2-5,7H,1H3/t3-,4+,5-/m0/s1
