22
gdb 93861	2.18802	1.72253	1.11015	2.2511	81.51	-0.2382	0.0654	0.3036	1171.632	0.194708	-404.332851	-404.323723	-404.322779	-404.366738	35.033	
C	-0.6631335365	 1.3440744781	 0.0193361876	-0.428861
C	 0.1489430961	 0.0546895658	-0.0427705696	-0.078513
C	 1.3026807737	 0.0768811793	-1.0551756123	-0.070271
O	 2.2443454975	-0.9068025054	-0.6369561241	-0.284909
C	 1.9587290802	-1.3407692823	 0.699976417	 0.116523
C	 3.2494058311	-1.4392191824	 1.494224229	-0.415437
C	 0.8995599318	-0.3696833203	 1.2186096279	 0.294362
C	 1.0846797153	 0.5220893659	 2.3913445951	-0.290652
N	 0.2406067408	-0.6888248185	 2.4818692832	-0.372411
H	-0.0213949414	 2.214346868	 0.1896396146	 0.124584
H	-1.2047253741	 1.5063772007	-0.9178580635	 0.122986
H	-1.4104327756	 1.3122830374	 0.8210493858	 0.112865
H	-0.5237062881	-0.7739613527	-0.3082069821	 0.084765
H	 0.9771763322	-0.1527328723	-2.0764040749	 0.100106
H	 1.7791441884	 1.0703835877	-1.0689063356	 0.088101
H	 1.4951131346	-2.3398030712	 0.6526064076	 0.073874
H	 3.7565321895	-0.4708995124	 1.5383562032	 0.115843
H	 3.0406214534	-1.7832300171	 2.5122734911	 0.128294
H	 3.9252621603	-2.1569158917	 1.0213623652	 0.122407
H	 1.9982773754	 0.4828818347	 2.9762110959	 0.119105
H	 0.5976476732	 1.4927924547	 2.3846748333	 0.109808
H	-0.7435641979	-0.4302147659	 2.4451644055	 0.22743
49.728	109.4468	222.8698	228.4778	262.8532	276.3171	294.8622	313.4616	415.32	457.8393	497.5443	546.5906	629.3019	705.4063	837.9336	859.8287	893.8933	912.8017	939.069	965.1091	977.3574	1011.4857	1046.7944	1073.1407	1088.4357	1125.6078	1129.8891	1144.5582	1147.9474	1166.3708	1229.8204	1266.2822	1273.9003	1322.5247	1347.9731	1352.8285	1389.5812	1395.9961	1408.0465	1411.7883	1420.5494	1489.6967	1496.5648	1497.4611	1502.1939	1519.2485	1528.2456	2962.9629	2972.0136	2999.3553	3028.142	3040.163	3050.5939	3090.0498	3106.7186	3116.1362	3117.9689	3120.6984	3201.7499	3477.6396
CC1COC(C)C11CN1	C[C@H]1CO[C@@H](C)[C@]21CN2	
InChI=1S/C7H13NO/c1-5-3-9-6(2)7(5)4-8-7/h5-6,8H,3-4H2,1-2H3	InChI=1S/C7H13NO/c1-5-3-9-6(2)7(5)4-8-7/h5-6,8H,3-4H2,1-2H3/t5-,6-,7+/m0/s1
