16
gdb 77222	3.37603	1.09811	0.90244	4.2053	70.37	-0.2667	-0.0474	0.2193	1248.9997	0.122147	-437.880376	-437.871388	-437.870443	-437.915382	31.05	
C	 0.0348216371	 1.640322079	-0.0175639454	-0.419519
C	 0.0652756751	 0.1243648135	-0.1072465852	-0.08722
C	 0.7195535889	-0.5065674725	-1.3765874399	 0.04256
O	 1.7482183961	-1.1363456921	-0.6006401963	-0.26753
C	 1.2016711588	-0.6492024749	 0.6364623054	-0.00321
C	 2.1564455658	 0.157938522	 1.3996840057	 0.285442
N	 2.8913617864	 0.8060914287	 2.0120869493	-0.318555
C	-0.1727757547	-1.4792595794	-2.1161037046	 0.13862
O	-0.1519417569	-2.6712857687	-1.9727856508	-0.229672
H	 1.0146518352	 2.0746196924	-0.2354652102	 0.147586
H	-0.6880145359	 2.0474698693	-0.731494873	 0.128429
H	-0.2618009386	 1.9660987222	 0.9839301844	 0.142387
H	-0.9159304876	-0.2978616053	 0.1218606885	 0.110832
H	 1.1262620857	 0.2300764618	-2.0840568574	 0.108908
H	 0.8503078038	-1.471558215	 1.2701347154	 0.140418
H	-0.8956553394	-0.9772310211	-2.8020040659	 0.080523
30.9845	83.9377	132.1721	170.0213	225.308	268.5827	272.2593	301.7749	394.6245	529.421	583.8789	735.2341	763.213	796.8433	837.8911	938.2227	965.8091	971.0861	1037.877	1083.4964	1105.3697	1119.1018	1137.3897	1236.2143	1242.6	1280.6916	1331.8245	1368.0057	1374.9286	1415.3245	1420.0955	1492.5483	1493.9712	1843.8897	2357.2307	2855.8727	3013.198	3041.9488	3046.3908	3082.0279	3112.5407	3122.5275
CC1C(OC1C#N)C=O	C[C@H]1[C@@H](O[C@H]1C#N)C=O	
InChI=1S/C6H7NO2/c1-4-5(2-7)9-6(4)3-8/h3-6H,1H3	InChI=1S/C6H7NO2/c1-4-5(2-7)9-6(4)3-8/h3-6H,1H3/t4-,5+,6+/m1/s1
