17
gdb 70179	3.51637	1.30987	1.09673	3.5289	75.47	-0.2379	-0.0529	0.185	1096.9248	0.136083	-421.844798	-421.837005	-421.83606	-421.876936	30.717	
O	-0.0700026861	 1.4026944325	 0.2748026699	-0.46976
C	 0.0104126525	 0.0312522578	 0.0066063193	 0.358877
C	-0.5253114917	-0.4743217099	-1.3283918162	-0.343157
C	-1.2991964373	-0.7159819559	-0.057045117	-0.082328
C	-1.3905090914	-2.0896834546	 0.5734810295	-0.337348
C	-0.0592890312	-2.8206118875	 0.7708532048	 0.352548
O	-0.0195157965	-4.031075024	 0.8711463599	-0.336466
C	 1.1488707351	-1.9851631958	 0.9126439914	-0.168257
C	 1.1614943499	-0.6803951761	 0.6030846788	-0.103825
H	 0.55152284	 1.8600812449	-0.3025456764	 0.285813
H	-0.9126402801	 0.2815480461	-2.0033208654	 0.120524
H	-0.0065266442	-1.3022510885	-1.8003953312	 0.126723
H	-2.1706173532	-0.0828216561	 0.0728838902	 0.110019
H	-1.828989962	-2.000810874	 1.5769742369	 0.136916
H	-2.0546080309	-2.7501554271	 0.0076047098	 0.133406
H	 2.0324872414	-2.4928072544	 1.2849971623	 0.110793
H	 2.0585927056	-0.0847697872	 0.7613783433	 0.105521
79.8254	197.4575	254.0481	288.803	342.9944	366.061	405.3688	469.5301	474.7051	562.3338	619.4626	692.0294	720.3387	759.9671	829.4065	861.7572	913.8242	933.7948	939.2415	999.4675	1019.4282	1052.4249	1083.2365	1102.6363	1161.3118	1213.3093	1227.1589	1242.8828	1285.7432	1324.7821	1348.9793	1409.6633	1416.7873	1451.4281	1477.0619	1672.2889	1771.1886	3024.9609	3085.1651	3127.1962	3147.6273	3166.4917	3193.6927	3223.1591	3794.4018
OC12CC1CC(=O)C=C2	O[C@]12C[C@H]1CC(=O)C=C2	
InChI=1S/C7H8O2/c8-6-1-2-7(9)4-5(7)3-6/h1-2,5,9H,3-4H2	InChI=1S/C7H8O2/c8-6-1-2-7(9)4-5(7)3-6/h1-2,5,9H,3-4H2/t5-,7-/m1/s1
