17
gdb 45104	2.80932	1.78506	1.26714	3.8898	72.25	-0.2293	0.022	0.2513	983.0532	0.139519	-418.006476	-417.999509	-417.998565	-418.037806	28.223	
O	 0.0233927636	-0.043938589	-0.2551494562	-0.385765
C	 0.0161690078	 1.1604193656	-0.0731506084	 0.442027
N	-1.1419783826	 1.8602023463	 0.1353494169	-0.32837
C	-1.3202698402	 3.2805733294	 0.1912442444	 0.015966
C	-0.9545322931	 4.0844347382	 1.4166507021	-0.310778
C	-0.0868685503	 4.144313094	 0.1781627521	-0.036849
C	 1.2455664959	 3.4472666268	 0.1371198219	-0.057332
N	 1.5892399438	 2.5891692081	 1.2716383625	-0.331336
C	 1.2836868178	 1.9660722667	-0.0395943854	-0.151638
H	-1.9643205286	 1.2763314455	 0.1880850842	 0.247426
H	-2.1737140572	 3.6190009412	-0.3894930611	 0.102048
H	-1.5621780019	 4.9483242072	 1.6617858069	 0.112047
H	-0.5421522722	 3.536750746	 2.2554520514	 0.146631
H	-0.1372688817	 5.0411544565	-0.4292819537	 0.094205
H	 2.0470688907	 4.0136677185	-0.3295425338	 0.091141
H	 2.5938221235	 2.581509304	 1.4249196553	 0.241694
H	 2.0950381747	 1.5019624952	-0.5898192291	 0.108885
98.5901	209.6439	261.0361	405.1449	415.0962	470.1955	508.9537	555.4607	581.8509	695.4575	746.5616	766.4861	816.2164	853.1628	860.4805	903.9793	916.8654	927.3701	999.2133	1053.8025	1063.1046	1074.8374	1093.1247	1124.5624	1141.937	1161.5727	1195.8985	1234.9361	1258.034	1325.7699	1391.2102	1404.052	1417.7722	1438.2911	1464.524	1495.5009	1787.0171	3137.4806	3139.2181	3141.4477	3170.0461	3176.6822	3240.7635	3512.2752	3606.1285
O=C1NC2CC2C2NC12	O=C1N[C@H]2C[C@H]2[C@H]2N[C@@H]12	
InChI=1S/C6H8N2O/c9-6-5-4(8-5)2-1-3(2)7-6/h2-5,8H,1H2,(H,7,9)	InChI=1S/C6H8N2O/c9-6-5-4(8-5)2-1-3(2)7-6/h2-5,8H,1H2,(H,7,9)/t2-,3+,4-,5-/m1/s1
