15
gdb 131190	3.41958	1.57875	1.08733	2.4799	74.44	-0.1963	0.0051	0.2014	1035.9831	0.115269	-416.829585	-416.822452	-416.821508	-416.86085	27.959	
O	 0.0910157705	 1.3394849841	 0.2565530907	-0.424949
C	 0.0602292688	 0.0165056822	-0.0224990179	 0.258811
C	 0.0506428616	-0.74693792	-1.1692546324	 0.109218
C	 0.061972912	-0.7898248888	-2.624834362	-0.239531
C	 0.0329214354	-2.0785616601	-3.0212145931	-0.085604
C	-0.0013593703	-3.0416704162	-1.839626462	-0.402438
C	 0.0129962421	-2.0800817898	-0.6832556887	 0.339562
N	-0.0005247342	-2.1734271497	 0.6310846202	-0.343398
N	 0.0296244107	-0.8591229331	 1.0200066144	-0.251923
H	 0.1116444678	 1.8275396709	-0.5721042037	 0.313997
H	 0.0891161327	 0.0668645354	-3.2868746834	 0.089502
H	 0.0330333417	-2.4192295514	-4.0485018958	 0.095978
H	-0.8961209633	-3.676907588	-1.8543101181	 0.133106
H	 0.8604245373	-3.7211318723	-1.8393543451	 0.133105
H	 0.0270252569	-0.6231278832	 1.9974939069	 0.274563
185.0074	207.4309	231.3563	283.5012	320.7854	440.4846	459.5858	539.4803	609.6786	655.9621	673.4812	691.3959	741.9632	806.1766	862.476	929.6091	938.6607	946.2603	1033.3036	1114.0677	1139.2109	1144.8763	1155.8767	1242.6844	1258.2926	1347.1543	1357.2079	1428.1254	1444.414	1513.6797	1576.4986	1602.5419	1673.2788	3030.7559	3057.9781	3199.6154	3225.9435	3681.1293	3847.4419
OC1=C2C=CCC2=NN1	Oc1c2C=CCc2n[nH]1	
InChI=1S/C6H6N2O/c9-6-4-2-1-3-5(4)7-8-6/h1-2H,3H2,(H2,7,8,9)	InChI=1S/C6H6N2O/c9-6-4-2-1-3-5(4)7-8-6/h1-2H,3H2,(H2,7,8,9)
