21
gdb 108247	2.48361	1.33806	1.29772	2.5845	77.76	-0.2429	0.0576	0.3005	1141.1845	0.181789	-424.196426	-424.187272	-424.186327	-424.230384	34.713	
C	-0.279226934	 1.532454346	-0.0057501236	-0.500439
C	 0.0353339007	 0.0539890319	 0.0334903801	 0.226559
C	 1.0890648489	-0.5101365981	-0.9686343861	-0.282587
C	 1.8601274071	-1.199429576	 0.2010469144	-0.262927
C	 0.7791930486	-0.7071509355	 1.1861240457	 0.397426
C	 1.1335749562	-0.1959112063	 2.5617073722	-0.146736
O	 1.4779930542	-1.2785456819	 3.409721092	-0.420741
O	-0.3119119727	-1.6670320206	 1.2841970571	-0.350255
C	-1.1057179537	-0.9400606057	 0.316165681	-0.117306
H	 0.6339846451	 2.137215626	-0.0034181734	 0.119457
H	-0.8346112445	 1.7849826933	-0.9174983604	 0.122197
H	-0.8904618528	 1.8405643736	 0.8493689596	 0.120437
H	 0.6850103187	-1.1786636424	-1.733645524	 0.100852
H	 1.6643076963	 0.2723506159	-1.4698771164	 0.101796
H	 1.95637936	-2.2853194043	 0.1530604064	 0.112114
H	 2.8456388433	-0.7633333819	 0.3856380735	 0.103142
H	 2.0034996876	 0.4681404629	 2.5204198895	 0.103588
H	 0.2877095524	 0.3807062578	 2.9706728797	 0.082503
H	 0.7524328321	-1.9108308281	 3.3329621193	 0.294955
H	-1.9912151584	-0.4891371733	 0.7848112537	 0.096388
H	-1.4290671052	-1.5780512634	-0.5159398404	 0.099577
71.935	88.6156	137.6041	216.7175	245.3577	299.9364	329.831	348.6342	393.2978	465.778	496.8046	597.5385	662.4069	733.4024	756.782	848.0421	893.5749	921.5908	940.6762	963.0569	984.2544	1003.2615	1025.5052	1054.2177	1088.5756	1134.5542	1149.769	1174.5281	1210.0375	1223.6816	1236.586	1252.1336	1262.3418	1291.0487	1315.4988	1365.2034	1379.0494	1413.5195	1437.0398	1462.3703	1487.2123	1492.9688	1494.0024	1499.8093	1524.7284	2969.1231	2998.7506	3021.6155	3047.1583	3055.5559	3064.669	3072.507	3083.1161	3095.6144	3103.5925	3129.2441	3781.8513
CC12CCC1(CO)OC2	C[C@@]12CC[C@]1(CO)OC2	
InChI=1S/C7H12O2/c1-6-2-3-7(6,4-8)9-5-6/h8H,2-5H2,1H3	InChI=1S/C7H12O2/c1-6-2-3-7(6,4-8)9-5-6/h8H,2-5H2,1H3/t6-,7+/m0/s1
