21
gdb 119392	4.08066	1.04144	0.99106	0.9298	83.68	-0.2264	0.0141	0.2405	1310.6791	0.182626	-387.052689	-387.044289	-387.043345	-387.08599	33.018	
C	-0.1069677093	 1.5274840493	 0.0103461598	-0.384927
C	-0.0353178208	 0.0157670451	 0.1390939187	-0.065381
O	-1.3279650989	-0.5138837	-0.1128887891	-0.311504
C	-1.4094007922	-1.8950522409	-0.0459839307	 0.42022
C	-1.0834471859	-2.7377038831	 1.2472104915	-0.272564
C	-1.9493925725	-3.785203428	 0.4672549792	-0.083722
C	-2.8161813978	-2.5631245909	-0.0016693802	-0.26245
C	-1.0792155593	-4.0032230133	-0.780051425	-0.081385
C	-0.7177021816	-2.7655379004	-1.1220288848	-0.156996
H	 0.8726179125	 1.97417614	 0.2052759933	 0.1137
H	-0.425737176	 1.8127052743	-0.9963041665	 0.126362
H	-0.82551146	 1.9386548055	 0.7250920849	 0.126819
H	 0.6948291341	-0.3996042088	-0.5729325746	 0.09055
H	 0.2985268549	-0.2726247375	 1.1480732493	 0.09424
H	-0.0413664496	-2.9983521344	 1.4438692632	 0.091615
H	-1.575111876	-2.3469006302	 2.143629993	 0.095227
H	-2.3891681047	-4.6487971685	 0.9611686423	 0.066442
H	-3.4550933413	-2.151554317	 0.7855504565	 0.096577
H	-3.3570119599	-2.6580527063	-0.9452925804	 0.095764
H	-0.8520585784	-4.9513732348	-1.2468917106	 0.100286
H	-0.1222123775	-2.4038686503	-1.9480038997	 0.101127
66.3264	92.3247	146.2977	245.5111	336.0165	363.0016	378.7538	467.9447	540.8902	546.3234	674.7083	691.3603	713.5911	819.7957	833.8075	835.7938	885.8495	908.8886	919.7318	943.5706	949.8647	993.9821	1030.0051	1046.1308	1066.3894	1084.1473	1108.6903	1133.4281	1160.3877	1186.1697	1189.8853	1215.6896	1225.241	1260.5842	1275.0251	1296.5303	1341.4633	1400.7357	1429.0399	1476.2092	1483.4265	1500.1265	1516.2756	1529.1633	1630.3433	2976.1661	3004.0287	3044.4895	3047.0413	3058.7705	3118.9044	3121.2342	3121.7654	3128.7205	3140.8871	3216.9549	3245.282
CCOC12CC(C1)C=C2	CCO[C@@]12C[C@@H](C1)C=C2	
InChI=1S/C8H12O/c1-2-9-8-4-3-7(5-8)6-8/h3-4,7H,2,5-6H2,1H3	InChI=1S/C8H12O/c1-2-9-8-4-3-7(5-8)6-8/h3-4,7H,2,5-6H2,1H3/t7-,8-
