19
gdb 92989	3.10759	1.20231	0.92485	4.3268	81.98	-0.2155	0.0041	0.2196	1258.1321	0.159606	-382.08308	-382.074216	-382.073271	-382.117108	32.563	
C	-0.1861075758	 1.5068039882	 0.0756580067	-0.344158
N	-0.081456314	 0.0596143293	 0.1359617528	-0.068002
C	-1.3625833655	-0.6506190806	 0.0422193319	-0.200644
C	-1.1753367809	-1.8449415529	 0.9325513203	-0.084298
C	-0.0372055559	-1.7511921034	 1.6107419941	-0.085679
C	 0.7062664195	-0.4917725934	 1.241800399	-0.012641
C	 2.1705988991	-0.8055666489	 0.8217790607	-0.327574
C	 2.9593515556	 0.3855875583	 0.5206630239	 0.272908
N	 3.5761865975	 1.3371992164	 0.2957748837	-0.319956
H	 0.807405437	 1.9602043575	 0.0810041762	 0.152927
H	-0.6783165521	 1.799775289	-0.8571774653	 0.122439
H	-0.7683689587	 1.9332889199	 0.9142035648	 0.093202
H	-2.2078294941	-0.0313576958	 0.3980382579	 0.096265
H	-1.5964782692	-0.9232639772	-0.997574337	 0.111001
H	-1.9042500587	-2.6422642696	 1.0081199896	 0.108925
H	 0.342875597	-2.4566939094	 2.3397250632	 0.105086
H	 0.7521804109	 0.1993170366	 2.1035256738	 0.08421
H	 2.6746500848	-1.3531787307	 1.6271391835	 0.142042
H	 2.1484280434	-1.4524660534	-0.0605533299	 0.153948
53.2309	103.5319	142.1774	204.93	238.1725	275.989	351.4303	396.0096	399.516	456.0699	556.6968	635.8286	719.1018	790.3424	802.6104	941.3538	946.3763	963.7374	967.9618	1008.9868	1036.6819	1054.1221	1074.9294	1135.6765	1151.0569	1183.5788	1214.8738	1228.6649	1252.4992	1284.7585	1328.021	1364.8072	1372.9021	1391.7766	1452.7532	1468.4005	1496.6762	1504.0297	1519.5618	1696.6315	2356.6415	2920.4449	2924.2202	2933.3764	2996.0733	3042.7028	3070.8815	3096.559	3128.0716	3199.0784	3224.3345
CN1CC=CC1CC#N	CN1CC=C[C@H]1CC#N	
InChI=1S/C7H10N2/c1-9-6-2-3-7(9)4-5-8/h2-3,7H,4,6H2,1H3	InChI=1S/C7H10N2/c1-9-6-2-3-7(9)4-5-8/h2-3,7H,4,6H2,1H3/t7-/m0/s1
