17
gdb 99940	3.64781	0.68966	0.67336	1.304	77.71	-0.2733	-0.0718	0.2015	1684.1566	0.131932	-458.932935	-458.922509	-458.921565	-458.969306	36.215	
C	 0.0460761035	 1.5609369199	 0.0881852803	-0.396825
C	-0.0758219705	 0.0376462973	-0.0379312554	 0.113501
O	 0.5011489473	-0.511119279	 1.1600918976	-0.454942
C	-1.5669920437	-0.4048328005	-0.0819716315	-0.064871
O	-2.2099690451	-0.0647913344	 1.1201804779	-0.415192
C	 0.6126384268	-0.4619281395	-1.2263466883	 0.109385
C	 1.1596357587	-0.9339258447	-2.1957291243	 0.005163
C	 1.8052762078	-1.4638474056	-3.3704349805	 0.021774
O	 2.5766308249	-2.3950964484	-3.3618332606	-0.226268
H	 1.0910272512	 1.8433921159	 0.2279281619	 0.135887
H	-0.3416876902	 2.0497443806	-0.8085913095	 0.12763
H	-0.5379652972	 1.8881221017	 0.9504837313	 0.143487
H	 0.729899934	-1.4319507046	 0.9880377835	 0.29442
H	-2.0899333265	 0.1036108812	-0.8972074417	 0.121002
H	-1.6033479886	-1.4887426352	-0.2769678454	 0.090892
H	-1.6239552133	-0.3723461267	 1.8250552547	 0.289363
H	 1.5346611908	-0.9413833981	-4.3100270399	 0.105594
40.8338	75.6109	95.2845	148.772	205.7673	220.1294	240.6238	296.3225	307.6734	360.7336	363.2095	435.8969	524.8273	541.6845	565.3849	659.9538	753.6903	863.519	931.6738	950.0676	1020.3471	1051.1929	1090.9072	1113.9912	1164.7175	1193.5223	1240.0677	1340.7106	1386.2366	1408.9134	1420.8171	1431.0451	1482.7272	1490.6072	1503.1387	1767.7441	2315.3837	2925.1243	2975.4543	3060.5894	3090.5964	3141.6489	3150.5123	3760.9019	3803.1129
CC(O)(CO)C#CC=O	C[C@@](O)(CO)C#CC=O	
InChI=1S/C6H8O3/c1-6(9,5-8)3-2-4-7/h4,8-9H,5H2,1H3	InChI=1S/C6H8O3/c1-6(9,5-8)3-2-4-7/h4,8-9H,5H2,1H3/t6-/m0/s1
