15
gdb 29892	3.2979	1.45763	1.01724	4.7959	73.28	-0.2351	-0.0461	0.189	1100.6155	0.113725	-454.009627	-454.00173	-454.000786	-454.042434	28.945	
C	-0.0079747836	 1.4157885556	-0.3229529827	-0.323987
N	-0.0041698496	-0.0031711712	 0.0193885276	-0.127131
C	-1.1306576191	-0.6553829113	 0.4208314656	 0.055978
C	-1.153764016	-1.9658036724	 0.742111618	-0.323853
C	 0.0595144871	-2.7414028556	 0.6663230855	 0.432465
O	 0.2244348202	-3.9011896533	 0.9106600102	-0.32604
O	 1.1927060272	-2.0057988545	 0.243039651	-0.264813
C	 1.2101379806	-0.6834566689	-0.0796946399	 0.47575
N	 2.2534709912	-0.0704561947	-0.4538052902	-0.568776
H	 0.6823488117	 1.9618858554	 0.3236430295	 0.162034
H	 0.317522914	 1.5557544621	-1.3560967874	 0.16199
H	-1.020649581	 1.8010277446	-0.196156119	 0.13065
H	-2.0219635474	-0.040302622	 0.4656362507	 0.144459
H	-2.0591512215	-2.4610328918	 1.0580033859	 0.132087
H	 3.046499066	-0.707698072	-0.4720277647	 0.239186
95.0963	104.4981	141.7473	225.4264	344.3399	379.5381	400.284	476.4366	513.8674	611.4703	713.5736	736.8184	739.0842	800.6117	801.2287	828.9816	921.0828	975.7897	1029.7307	1082.0619	1149.3187	1159.3377	1175.7622	1217.134	1360.0611	1394.44	1456.1229	1465.9636	1475.3057	1522.8891	1684.262	1735.6656	1866.7881	3058.7031	3129.6578	3151.314	3205.5395	3255.7505	3533.789
CN1C=CC(=O)OC1=N	CN1C=CC(=O)O[C]1[NH]	
InChI=1S/C5H6N2O2/c1-7-3-2-4(8)9-5(7)6/h2-3,6H,1H3	InChI=1S/C5H6N2O2/c1-7-3-2-4(8)9-5(7)6/h2-3,6H,1H3
