18
gdb 9070	4.80539	0.8432	0.75496	2.3246	75.51	-0.2519	-0.0249	0.227	1461.8673	0.150318	-347.784626	-347.775065	-347.77412	-347.819775	33.402	
C	-0.1879990366	 1.5380050178	 0.0755116102	-0.386938
C	 0.0465541847	 0.0140478696	 0.0477953027	-0.159974
C	 0.7459569933	-0.4641348688	-1.2485899197	-0.188593
C	-0.080760205	-0.2292037725	-2.5241718352	-0.286878
C	 0.5512159021	-0.9044318902	-3.7213820749	 0.158781
O	 0.8601063385	-0.3507466022	-4.744077247	-0.234769
C	 0.8194228924	-0.4088872495	 1.2150433585	 0.313831
C	 1.4754187335	-0.7473460139	 2.1640065574	-0.453011
H	 0.7619944128	 2.0740677173	-0.0121494342	 0.129254
H	-0.8392563547	 1.8503684762	-0.7452647888	 0.120689
H	-0.6584197637	 1.8357435046	 1.0157121639	 0.13055
H	-0.9341806659	-0.4813990859	 0.0959650412	 0.105857
H	 1.715070036	 0.0406871877	-1.3359690392	 0.122358
H	 0.9613671172	-1.5342263571	-1.148408608	 0.114575
H	-1.0804215605	-0.6701935599	-2.3909747359	 0.117951
H	-0.2034394807	 0.8316667472	-2.7547848591	 0.127719
H	 0.7252345987	-1.9987993795	-3.5876727152	 0.072327
H	 2.0445620879	-1.0506066409	 3.0076262032	 0.196271
56.0273	69.5732	96.1633	139.6217	194.8175	230.8479	289.0173	301.2061	379.8736	503.9154	530.7833	555.7404	630.7882	639.9427	767.1578	815.2521	853.7709	927.7835	979.7784	1015.1317	1045.1992	1103.9663	1122.0272	1161.1284	1216.5158	1258.3254	1301.7745	1332.1419	1346.024	1381.6629	1409.0875	1431.5149	1464.406	1489.7227	1494.9694	1502.6392	1838.2309	2234.8141	2850.6325	2998.8387	3004.6222	3036.2334	3045.4027	3075.7457	3109.4132	3119.7664	3125.9491	3504.0111
CC(CCC=O)C#C	C[C@@H](CCC=O)C#C	
InChI=1S/C7H10O/c1-3-7(2)5-4-6-8/h1,6-7H,4-5H2,2H3	InChI=1S/C7H10O/c1-3-7(2)5-4-6-8/h1,6-7H,4-5H2,2H3/t7-/m1/s1
