18
gdb 65381	3.42233	0.90436	0.89668	0.8964	75.11	-0.2619	-0.0353	0.2265	1366.2315	0.145333	-439.046203	-439.037027	-439.036083	-439.080897	32.88	
C	-0.2684892764	 1.6558907376	 0.1372171569	-0.455961
C	 0.026981827	 0.1830206471	-0.0160679565	 0.205071
N	 1.3388824451	-0.2062191755	-0.5823735601	-0.361983
C	 1.0571894277	-0.5551081306	 0.8019650819	-0.08017
C	 1.8610360327	 0.1160425447	 1.8676122795	 0.081715
C	 1.6279502884	-0.1784829163	 3.2872104265	-0.180559
O	 2.7451040654	-0.7396179715	 2.5977297478	-0.23151
C	-1.1230698455	-0.6768795612	-0.421042223	 0.122417
O	-2.2543999912	-0.2909351572	-0.5659509488	-0.255557
H	 0.6437109599	 2.2213874144	 0.3314990687	 0.127986
H	-0.7257486752	 2.041097023	-0.7783047403	 0.139153
H	-0.9762924714	 1.8233065834	 0.9537354858	 0.134681
H	 1.2538006035	-1.0182963062	-1.1922896441	 0.240373
H	 0.8396710733	-1.5982744695	 1.0325905244	 0.09934
H	 2.2911253854	 1.0767438031	 1.5922942206	 0.112007
H	 1.8656033649	 0.5726535969	 4.0386484616	 0.122877
H	 0.8488399882	-0.886122429	 3.568742924	 0.116975
H	-0.8420031818	-1.744356263	-0.6003925351	 0.063146
55.9042	91.5862	122.0662	155.0126	210.4205	258.6671	324.166	371.229	386.9365	440.7685	499.8036	606.8934	761.803	798.544	850.3822	858.5576	922.366	956.3291	991.9733	1010.4975	1061.5932	1090.1291	1097.5749	1122.3718	1127.6932	1157.0343	1168.8398	1231.686	1269.0466	1288.3439	1351.4891	1366.6514	1412.7402	1437.0555	1475.061	1484.0081	1499.1586	1530.8188	1822.9199	2828.0794	3055.3399	3083.8013	3109.8786	3120.407	3135.554	3148.152	3171.7377	3472.8922
CC1(NC1C1CO1)C=O	C[C@]1(N[C@H]1[C@H]1CO1)C=O	
InChI=1S/C6H9NO2/c1-6(3-8)5(7-6)4-2-9-4/h3-5,7H,2H2,1H3	InChI=1S/C6H9NO2/c1-6(3-8)5(7-6)4-2-9-4/h3-5,7H,2H2,1H3/t4-,5+,6+/m1/s1
