14
gdb 33488	2.25283	1.73966	1.19505	5.6108	70.32	-0.2744	-0.0123	0.2621	1015.6222	0.101572	-395.695726	-395.688073	-395.687129	-395.72803	28.348	
N	 0.079009278	-1.1704077633	-0.0817958931	-0.323823
C	 0.0431295317	-0.0168926727	-0.0440770947	 0.287741
C	 0.002158095	 1.4433371341	 0.0134134077	 0.006203
C	-0.2379216563	 2.0996858938	 1.4508869027	-0.267659
C	 1.1249676019	 2.7814892881	 1.3211523664	-0.027748
N	 2.1058487451	 1.6847067807	 1.1759571698	-0.319294
C	 1.3810829824	 2.1686706554	-0.0066291668	-0.087169
C	-0.9143702831	 1.9845397268	-0.9875294344	 0.25172
N	-1.6222070541	 2.4537463487	-1.7704132787	-0.319662
H	-1.0889548133	 2.7794252788	 1.4292048375	 0.150183
H	-0.3327219056	 1.3813829647	 2.2656639497	 0.14785
H	 1.4110377188	 3.7535828381	 1.6986911608	 0.12081
H	 3.0418362605	 2.0864567457	 1.146265289	 0.249372
H	 1.8763975592	 2.5340899811	-0.895810446	 0.131478
124.2697	133.15	164.3863	187.4143	319.5207	430.4051	486.1301	499.7286	558.6045	590.0777	592.5759	764.5726	828.2368	844.7009	900.0385	937.3265	949.234	979.2837	1013.4789	1077.1535	1092.8747	1121.6937	1145.9945	1225.9386	1249.5154	1282.8842	1315.5608	1378.085	1470.3223	2364.057	2368.0661	3096.0693	3166.6778	3210.3628	3222.7381	3493.7719
N#CC1(CC2NC12)C#N	N#CC1(C[C@H]2N[C@@H]12)C#N	
InChI=1S/C6H5N3/c7-2-6(3-8)1-4-5(6)9-4/h4-5,9H,1H2	InChI=1S/C6H5N3/c7-2-6(3-8)1-4-5(6)9-4/h4-5,9H,1H2/t4-,5-/m1/s1
