15
gdb 5273	4.83891	1.59645	1.20942	1.9588	71.89	-0.2235	-0.0359	0.1876	955.0463	0.120054	-362.733999	-362.726638	-362.725694	-362.766112	26.806	
C	 0.0684936229	 1.5088679418	 0.0072502698	-0.490436
C	 0.0214885276	-0.007423882	 0.0011015105	 0.301279
O	 1.0385674463	-0.685983182	-0.0086338476	-0.359103
C	-1.2893450685	-0.6472697996	 0.0097352879	 0.230615
C	-2.5985024072	-0.1800546335	 0.022260291	-0.23235
C	-3.4515050952	-1.304014057	 0.025281472	-0.146239
C	-2.6439822623	-2.4310674949	 0.0147003717	-0.069963
N	-1.3514881742	-2.021740409	 0.0054801341	-0.270238
H	 1.1093209411	 1.8336345545	-0.0004286384	 0.14096
H	-0.4494108705	 1.9141223068	-0.8683819332	 0.14041
H	-0.4338874958	 1.9064484735	 0.8953778933	 0.140529
H	-2.8973314241	 0.8569224358	 0.0283894052	 0.104459
H	-4.5303444475	-1.3016193004	 0.0341432099	 0.104249
H	-2.9011759254	-3.4785738689	 0.0131153139	 0.129493
H	-0.5150996673	-2.584003195	-0.0034251501	 0.276334
68.1942	120.4856	175.146	184.4612	370.6563	509.9295	553.5276	599.5008	628.1193	654.5873	702.6829	757.8042	823.1769	872.311	894.8435	935.8768	975.9839	1043.7278	1061.9453	1088.0678	1135.965	1166.231	1278.143	1338.2823	1382.7296	1435.3186	1456.6497	1467.8882	1475.1912	1485.3634	1586.5518	1739.3668	3042.0141	3104.8125	3154.9212	3245.3743	3257.0716	3270.8873	3653.7651
CC(=O)C1=CC=CN1	CC(=O)c1ccc[nH]1	
InChI=1S/C6H7NO/c1-5(8)6-3-2-4-7-6/h2-4,7H,1H3	InChI=1S/C6H7NO/c1-5(8)6-3-2-4-7-6/h2-4,7H,1H3
