19
gdb 65278	3.88717	0.7524	0.70761	1.9065	84.43	-0.2392	-0.0223	0.2169	1643.0047	0.158065	-419.226065	-419.216601	-419.215657	-419.261019	34.5	
C	 0.4207767087	 1.7676221957	-0.3265037134	-0.430134
C	 0.0549660443	 0.3541078219	 0.0840866123	 0.361599
C	 1.1035018759	-0.7316353246	-0.0311296267	-0.315958
C	 0.6857551422	-0.2078905809	 1.3301459872	-0.278166
N	-1.3489465296	 0.0941605828	-0.1202902901	-0.302531
C	-1.7001034028	-0.8136865007	-0.9291153995	 0.103608
N	-3.0497632789	-1.0636590467	-1.1511242882	-0.307141
C	-3.525608928	-2.0333490871	-2.0019424922	 0.159482
O	-2.8351476266	-2.7819025149	-2.6520840435	-0.296986
H	 1.4609573876	 1.9913398002	-0.0729619169	 0.112168
H	 0.2948952439	 1.9063171388	-1.4058720615	 0.116572
H	-0.2244492044	 2.4895599539	 0.1838391228	 0.126001
H	 0.7999106026	-1.740273429	-0.28703835	 0.115671
H	 2.0811562121	-0.4584969304	-0.4137681529	 0.112727
H	 1.3755473663	 0.4189673905	 1.8854195016	 0.109792
H	 0.0740388195	-0.8602728731	 1.94379981	 0.11502
H	-1.0438116728	-1.4634726003	-1.5100977303	 0.142839
H	-3.701705299	-0.4819034557	-0.6435554171	 0.2645
H	-4.631626211	-2.0486800906	-2.0222284919	 0.090937
44.6423	107.8771	126.652	172.5764	218.4342	268.0358	307.344	327.169	351.2361	437.9607	481.689	520.6274	659.6578	716.0221	781.0422	810.5451	858.8194	931.0415	941.812	974.1208	1020.6072	1031.6398	1036.8934	1063.3957	1076.8271	1094.3973	1128.4157	1187.1141	1240.4511	1292.1709	1325.4061	1348.6071	1413.3569	1438.2213	1460.5045	1483.1984	1493.7625	1498.8157	1509.4724	1742.8157	1817.9845	2959.2506	3032.7532	3098.6452	3113.7298	3125.647	3129.9848	3136.4097	3210.6793	3224.35	3609.6798
CC1(CC1)N=CNC=O	CC1(CC1)N=CNC=O	
InChI=1S/C6H10N2O/c1-6(2-3-6)8-4-7-5-9/h4-5H,2-3H2,1H3,(H,7,8,9)	InChI=1S/C6H10N2O/c1-6(2-3-6)8-4-7-5-9/h4-5H,2-3H2,1H3,(H,7,8,9)
