13
gdb 99427	1.7346	1.486	1.28977	5.1074	67.37	-0.2876	-0.0335	0.2542	1084.6997	0.087601	-411.789216	-411.779414	-411.77847	-411.825845	32.493	
N	 0.0543602035	 1.4723530614	-0.0325444281	-0.493194
C	 0.055849268	 0.0400928687	-0.0345532958	-0.185989
C	 0.8691673349	-0.5170925775	 1.2267062525	-0.225921
C	 0.2214180085	-0.0306338685	 2.4576230552	 0.337153
N	-0.3334112123	 0.3513349943	 3.3942862477	-0.305405
C	 0.8525522822	-1.990641956	 1.195557281	 0.314152
N	 0.8001461311	-3.1402155108	 1.1098621973	-0.300832
C	 2.2561754121	-0.0258534154	 1.1475429175	 0.337161
N	 3.3371945008	 0.3599672251	 1.030857226	-0.305419
H	 0.5332238265	 1.8833877773	-0.8192902712	 0.261245
H	-0.861294285	 1.8806583835	 0.0773839367	 0.26124
H	-0.9458390061	-0.3914565865	 0.0437845707	 0.152919
H	 0.542686826	-0.3886920957	-0.9148382698	 0.152892
11.2545	116.432	120.4496	132.2476	148.3734	167.1612	221.6424	348.9742	369.3914	483.1005	496.9021	561.5706	578.9557	581.0852	589.5813	702.5416	866.3067	944.6503	1059.6454	1110.6794	1133.8705	1248.5162	1374.306	1384.3417	1480.2185	1664.4593	2371.1249	2373.3173	2379.2273	3056.63	3115.7014	3583.9617	3675.6606
NCC(C#N)(C#N)C#N	NCC(C#N)(C#N)C#N	
InChI=1S/C5H4N4/c6-1-5(2-7,3-8)4-9/h1,6H2	InChI=1S/C5H4N4/c6-1-5(2-7,3-8)4-9/h1,6H2
