18
gdb 38148	2.85283	1.90181	1.39157	0.6987	75.29	-0.2345	-0.0044	0.2301	946.9079	0.151021	-401.931559	-401.924778	-401.923834	-401.962597	27.661	
C	 0.0428185237	 1.3468122107	 0.1539773687	-0.070669
C	 1.4630680176	 1.9131145672	-0.0083472572	-0.329091
C	 2.2450456789	 0.6227689687	-0.0588879466	 0.319356
N	 3.6870425162	 0.4864531991	-0.1372187777	-0.405602
C	 2.9688127486	-0.0541656621	 1.0541110726	-0.121972
C	 2.5120805875	-1.4761523442	 1.0312891437	-0.084346
C	 1.5939076668	-1.6834997587	 0.0800409372	-0.121485
C	 1.3201643113	-0.4159440579	-0.7048874436	 0.045102
O	 0.0002872286	 0.1191032838	-0.5848948692	-0.279358
H	-0.1755060004	 1.1577935452	 1.2156184479	 0.097303
H	-0.7376962451	 2.0000479414	-0.2457700551	 0.109107
H	 1.563310475	 2.4663899209	-0.9488878352	 0.111733
H	 1.7556691774	 2.5708485635	 0.8125983642	 0.112499
H	 3.9442539009	-0.2739827422	-0.7653727246	 0.227417
H	 3.228893591	 0.4321124543	 1.9890173731	 0.09668
H	 2.9002259088	-2.2290880933	 1.7085422852	 0.105809
H	 1.1426946138	-2.6363646096	-0.1719841234	 0.105552
H	 1.5184173994	-0.5676211266	-1.7765056699	 0.081965
136.0643	165.7059	303.1703	364.7117	384.7624	506.2806	572.7306	609.6474	664.1906	737.3525	789.5008	794.9483	866.6034	903.7799	916.6983	933.8572	960.6603	966.0285	982.7207	1010.9734	1060.1935	1071.1378	1103.6447	1110.1216	1134.9765	1164.7545	1190.8887	1232.2899	1270.6673	1294.7854	1304.8632	1321.1583	1343.3038	1372.1607	1381.1003	1446.4936	1488.6918	1522.2302	1649.8307	2989.975	2993.3986	3046.2662	3086.8725	3115.3222	3161.474	3186.3064	3211.0325	3466.2541
C1CC23NC2C=CC3O1	C1C[C@@]23N[C@@H]2C=C[C@H]3O1	
InChI=1S/C7H9NO/c1-2-6-7(3-4-9-6)5(1)8-7/h1-2,5-6,8H,3-4H2	InChI=1S/C7H9NO/c1-2-6-7(3-4-9-6)5(1)8-7/h1-2,5-6,8H,3-4H2/t5-,6-,7-/m1/s1
