22
gdb 12703	3.24731	1.69958	1.31875	1.5318	77.52	-0.237	0.0768	0.3138	1037.0611	0.200401	-350.223742	-350.214833	-350.213889	-350.256688	33.784	
C	-0.7171113311	 1.3035471147	-0.0310166649	-0.424557
C	 0.1174253974	 0.0249468725	 0.0000895947	 0.010276
C	 1.2305362843	-0.0267267402	-1.0686385314	-0.07152
O	 2.2949110524	-0.805532908	-0.5287549514	-0.278446
C	 1.9036882217	-1.3228201273	 0.7471522832	 0.154219
C	 3.1570366085	-1.6110299192	 1.5567028841	-0.410185
C	 0.9015710504	-0.2880396982	 1.3005815206	-0.02041
C	 1.5698975095	 0.9340731584	 1.9406970549	-0.402318
H	-0.0970143679	 2.1952446374	 0.1034999844	 0.120358
H	-1.2346491121	 1.4045150686	-0.9912083664	 0.115298
H	-1.4802788849	 1.301380954	 0.7543999051	 0.114996
H	-0.5560954625	-0.8237807619	-0.1747272936	 0.075115
H	 0.8752363977	-0.472058495	-2.0077593781	 0.092249
H	 1.6126783651	 0.9773451873	-1.301601203	 0.091738
H	 1.3593883981	-2.2729372607	 0.5999468337	 0.056546
H	 3.7513323918	-0.7057977366	 1.7036458083	 0.122781
H	 2.8959145804	-2.0247733062	 2.5362368818	 0.110117
H	 3.7787932583	-2.3420579442	 1.0323006103	 0.123946
H	 0.2415859692	-0.759639266	 2.0376615109	 0.064942
H	 2.2712495695	 1.4182705782	 1.2533579533	 0.126278
H	 0.8265496617	 1.6779075315	 2.2414219884	 0.113025
H	 2.1279079127	 0.6517681007	 2.838165265	 0.11555
97.1534	113.8079	221.6552	225.8967	237.7922	259.5107	304.7209	317.211	367.5345	465.666	510.2062	637.3411	675.5815	771.4181	809.1093	871.1547	917.8148	961.6927	978.5314	1019.6378	1032.1874	1054.4272	1069.8695	1095.5963	1146.431	1167.0867	1182.434	1194.5963	1224.8841	1271.3264	1329.5313	1341.8793	1358.9297	1381.1175	1390.6	1400.3378	1409.3851	1414.928	1424.837	1482.4794	1493.0976	1496.6606	1500.0619	1507.0833	1514.7844	1530.3839	2931.4595	2995.5358	3008.8369	3031.7315	3032.0735	3040.6448	3042.5728	3045.35	3094.3777	3104.6714	3109.4002	3110.5735	3113.0566	3127.0932
CC1COC(C)C1C	C[C@H]1CO[C@@H](C)[C@H]1C	
InChI=1S/C7H14O/c1-5-4-8-7(3)6(5)2/h5-7H,4H2,1-3H3	InChI=1S/C7H14O/c1-5-4-8-7(3)6(5)2/h5-7H,4H2,1-3H3/t5-,6-,7-/m0/s1
