20
gdb 95915	2.09953	1.49723	1.20831	3.8246	78.42	-0.2658	0.0349	0.3007	1145.5997	0.171144	-403.173132	-403.163907	-403.162963	-403.207476	34.306	
C	-0.4931226827	 1.3867905025	-0.0028582655	-0.426674
C	 0.0499866978	-0.0377846858	-0.0522268545	-0.00675
C	 1.1141835761	-0.3046901106	-1.1212071607	-0.100044
O	 1.6609498715	-1.5642930601	-0.7753023418	-0.242345
C	 1.7846134067	-1.6118632311	 0.6347735126	-0.111342
C	 0.7778286642	-0.5622617751	 1.2375814299	 0.087145
C	 1.534949989	 0.5329198823	 2.0167013072	-0.442121
C	-0.1813827342	-1.2048834343	 2.1379893397	 0.251378
N	-0.9414303791	-1.7025685273	 2.8535907766	-0.349977
H	 0.3009728237	 2.1271930586	 0.1320183265	 0.122485
H	-1.0097377873	 1.6231244357	-0.9383868635	 0.126163
H	-1.2150487467	 1.5093878292	 0.8103015427	 0.136896
H	-0.7787620504	-0.7252340019	-0.2507603245	 0.107551
H	 0.7038431408	-0.3797828135	-2.1314481171	 0.119652
H	 1.8851604177	 0.4854824026	-1.1192988785	 0.088993
H	 1.5765816006	-2.6335226295	 0.9617348924	 0.132713
H	 2.8055784314	-1.348450236	 0.9466257932	 0.101633
H	 2.2362106114	 1.0512153648	 1.3565208789	 0.127379
H	 0.8501985074	 1.2675067385	 2.445958536	 0.139361
H	 2.1074096219	 0.0861778809	 2.8342185105	 0.137906
31.8702	144.4945	185.0945	208.4493	242.4787	268.8991	287.1549	325.927	361.4464	477.3959	488.4505	562.494	587.6319	637.7744	728.6653	888.8868	908.6519	918.2844	956.1154	967.8419	980.7408	1075.9828	1087.9406	1126.3695	1150.7615	1165.3533	1178.9063	1204.1497	1258.3176	1271.7728	1328.3673	1363.2224	1376.0659	1399.6078	1413.2258	1423.0043	1487.9299	1492.8114	1504.1806	1508.2472	1513.4461	1524.4241	2349.3561	2955.5127	2997.435	3040.6772	3047.6659	3054.1474	3094.6724	3097.6481	3107.1211	3114.1075	3120.2294	3132.2538
CC1COCC1(C)C#N	C[C@H]1COC[C@]1(C)C#N	
InChI=1S/C7H11NO/c1-6-3-9-5-7(6,2)4-8/h6H,3,5H2,1-2H3	InChI=1S/C7H11NO/c1-6-3-9-5-7(6,2)4-8/h6H,3,5H2,1-2H3/t6-,7-/m0/s1
