21
gdb 110109	1.82973	1.35514	0.96606	3.1394	84.09	-0.2447	0.0159	0.2606	1349.9695	0.181329	-383.262364	-383.252196	-383.251251	-383.297877	36.547	
C	-1.5548869324	-0.0926240465	 0.3143119472	-0.385144
C	-0.1531845229	 0.5287144593	 0.267845042	-0.219067
C	 0.7478250129	-0.0561389722	 1.3377932126	 0.008199
C	 1.5973682955	-1.279683494	 1.0835793288	-0.182907
C	 1.6213498079	-1.8490813337	-0.2419707265	 0.294467
N	 1.6577211561	-2.3166963094	-1.3001781403	-0.349323
N	 2.1995672774	 0.0326059606	 1.3481986253	-0.106826
C	 2.9333790835	 0.7264504666	 0.2868142334	-0.126803
C	 3.1236054831	 2.1939369562	 0.6612093851	-0.382649
H	-2.0145522348	 0.0366638873	 1.3001358049	 0.118516
H	-2.2115960931	 0.3752666228	-0.4242770244	 0.122503
H	-1.5164151476	-1.1646847413	 0.0982788508	 0.134614
H	 0.2764946345	 0.3807347145	-0.7263280844	 0.127615
H	-0.2241516191	 1.6120497476	 0.4261691826	 0.109549
H	 0.3205079373	 0.0010757948	 2.3396061953	 0.103589
H	 1.7383005367	-2.0164927244	 1.870595851	 0.132931
H	 3.9071827427	 0.2313024005	 0.2059630144	 0.117492
H	 2.4567397764	 0.6431699342	-0.6995226955	 0.110756
H	 3.7311861869	 2.7020896267	-0.0933433752	 0.120424
H	 2.1630928049	 2.7147135527	 0.7264825047	 0.121069
H	 3.6229575339	 2.2823321177	 1.6299158382	 0.130995
65.3625	83.8408	112.9674	144.4131	182.2611	219.4224	239.0091	262.6659	322.4388	382.5549	408.1859	527.696	600.9696	643.0796	711.0076	781.7358	811.6433	833.1151	855.323	962.4686	977.5368	1020.1713	1038.2474	1065.2504	1101.5755	1140.8201	1150.3046	1163.7164	1195.2742	1288.7434	1306.4186	1330.7391	1342.0494	1363.0498	1387.7939	1409.9735	1413.8356	1430.6689	1484.6348	1489.3897	1496.6362	1500.4802	1506.7769	1513.9685	2343.3375	3011.1246	3034.0075	3038.087	3043.2231	3064.8517	3086.915	3099.0344	3113.6583	3114.0546	3117.1507	3123.377	3137.3261
CCC1C(C#N)N1CC	CC[C@H]1[C@@H](C#N)N1CC	
InChI=1S/C7H12N2/c1-3-6-7(5-8)9(6)4-2/h6-7H,3-4H2,1-2H3	InChI=1S/C7H12N2/c1-3-6-7(5-8)9(6)4-2/h6-7H,3-4H2,1-2H3/t6-,7+,9?/m0/s1
