16
gdb 77649	2.2062	1.45804	1.29812	1.1222	73.79	-0.218	0.0189	0.2368	1065.9354	0.122367	-437.789898	-437.781116	-437.780172	-437.823033	33.325	
O	-0.0113437418	 1.3660473454	 0.0310504987	-0.432704
C	-0.0833149002	-0.0191187351	 0.0428174213	 0.017562
C	-1.3675523232	-0.8005303924	 0.0677958566	 0.25639
O	-1.678432274	-1.7922700317	 0.9659419716	-0.443971
C	-2.4244473054	-0.1107134963	-0.78719727	-0.233072
N	-1.4353057052	 0.0783527722	-1.9050958885	-0.387951
C	-0.4516506448	-0.7943958177	-1.207072759	 0.097368
C	 0.337781354	-1.7657722312	-1.8648567498	 0.158781
C	 0.9913297654	-2.6035811354	-2.4325235503	-0.409641
H	-0.3862112754	 1.6321951242	-0.824468786	 0.301362
H	 0.7176388428	-0.4755051573	 0.6203412351	 0.115323
H	-1.2855438707	-1.5768039688	 1.8185130749	 0.296979
H	-3.2286734715	-0.8037174708	-1.0492659546	 0.123598
H	-2.8476530458	 0.823502009	-0.4034733839	 0.114043
H	-1.755247915	-0.3521867824	-2.7657313253	 0.237053
H	 1.5764038908	-3.3379971018	-2.9280559808	 0.18888
98.2253	143.8541	159.194	213.0469	255.2718	294.6144	354.3716	408.2336	506.055	521.5481	538.826	550.3333	600.4279	658.5009	671.4004	709.4988	781.0098	819.7833	847.2955	992.3623	1001.1712	1042.7773	1090.1596	1123.9493	1164.8187	1195.6348	1246.4332	1268.0916	1284.1605	1344.4066	1386.7319	1407.1708	1476.2665	1510.1292	2224.1116	3044.4959	3102.1229	3149.0357	3501.8538	3539.0579	3680.3017	3806.0026
OC1C2(O)CNC12C#C	O[C@H]1[C@@]2(O)CN[C@@]12C#C	
InChI=1S/C6H7NO2/c1-2-5-4(8)6(5,9)3-7-5/h1,4,7-9H,3H2	InChI=1S/C6H7NO2/c1-2-5-4(8)6(5,9)3-7-5/h1,4,7-9H,3H2/t4-,5+,6+/m1/s1
