18
gdb 10985	2.7839	2.31214	1.91737	1.5648	66.62	-0.2411	0.0836	0.3247	807.5525	0.15488	-384.923378	-384.916289	-384.915345	-384.954096	28.586	
C	-0.0092775921	 1.5288660134	 0.0414476504	-0.509401
C	-0.0255165708	 0.0213559926	-0.0118037082	 0.243801
C	 0.377040832	-0.8202462029	-1.2661800729	-0.28136
C	-0.3721022977	-1.9257419927	-0.4975095268	 0.042219
O	 0.4170013589	-2.1256459314	 0.6969179746	-0.299977
C	 0.7356048126	-0.7575800784	 1.0681884975	-0.126439
C	-1.3579923545	-0.8316865203	-0.0325046772	 0.144543
O	-2.0848227171	-1.0439778505	 1.1392591685	-0.452923
H	 1.0125707696	 1.9233934604	-0.0001849751	 0.117979
H	-0.5668864496	 1.9590307161	-0.7966379774	 0.11946
H	-0.4693376968	 1.8889542267	 0.9685245842	 0.128866
H	-0.1367362437	-0.5024685412	-2.1759366261	 0.103752
H	 1.440102563	-0.9823560498	-1.4549952754	 0.104932
H	-0.6606371067	-2.8913622481	-0.9090441406	 0.081568
H	 1.8200448555	-0.6024145425	 1.0373855971	 0.103151
H	 0.3722276253	-0.5500772371	 2.0814214978	 0.100636
H	-2.0421515197	-0.4883884904	-0.8117791243	 0.086116
H	-1.5794778282	-1.686506114	 1.6551751638	 0.293078
192.8186	212.8226	250.6296	295.7037	318.1595	444.2545	472.6472	503.7183	591.6852	627.1148	751.4769	801.2674	831.4507	854.1885	901.3733	933.0863	949.8652	971.0885	993.7975	1028.979	1083.391	1114.2562	1141.9984	1176.8071	1193.9674	1222.4077	1235.8913	1250.7282	1267.8257	1300.6008	1316.4858	1390.6695	1414.1669	1435.5816	1488.448	1493.6176	1494.7856	1526.4577	3023.9917	3027.9054	3067.7255	3071.1756	3089.0315	3094.9391	3098.9197	3135.2432	3141.5055	3759.66
CC12CC(OC1)C2O	C[C@@]12C[C@@H](OC1)[C@H]2O	
InChI=1S/C6H10O2/c1-6-2-4(5(6)7)8-3-6/h4-5,7H,2-3H2,1H3	InChI=1S/C6H10O2/c1-6-2-4(5(6)7)8-3-6/h4-5,7H,2-3H2,1H3/t4-,5-,6-/m1/s1
