19
gdb 101061	2.25248	1.32522	0.93494	5.0622	76.25	-0.2669	0.0199	0.2868	1285.7319	0.158164	-419.193601	-419.183772	-419.182828	-419.228483	35.586	
C	 0.1449019112	 1.5048217986	 0.2080463545	-0.414288
C	 0.1721268704	-0.02385424	 0.1173323587	-0.190462
C	 0.6069450646	-0.5394979763	-1.2618911942	 0.020972
O	 1.9298187378	-0.1353516914	-1.5916308006	-0.446158
C	 0.6136554725	-2.0717158626	-1.3265154264	 0.174558
C	 1.5102114264	-2.7747537305	-2.2921055072	-0.268141
N	 1.8039206204	-2.8080000398	-0.8550180195	-0.337455
C	-0.6599089133	-2.679945094	-1.0019863842	 0.271094
N	-1.6974566385	-3.1346995617	-0.7708468346	-0.347323
H	 1.1425536202	 1.9429114319	 0.0838769898	 0.110259
H	-0.5148907375	 1.939329831	-0.5514915677	 0.124603
H	-0.2193209587	 1.8281788163	 1.1868083155	 0.133147
H	 0.8499440669	-0.43543389	 0.8745522642	 0.112961
H	-0.8253435132	-0.4208907089	 0.3335634057	 0.134883
H	-0.102596241	-0.1723383089	-2.0213708188	 0.090706
H	 1.9714433471	 0.8240646749	-1.5504551017	 0.297628
H	 1.1876689375	-3.7202076674	-2.7161660314	 0.137835
H	 2.1170194696	-2.1429033378	-2.9311699836	 0.142166
H	 2.5188032076	-2.1089492935	-0.6573698085	 0.253015
69.1636	86.5908	138.4164	184.584	200.5691	244.3534	252.6976	294.4897	323.6761	392.0538	443.9106	518.1085	572.97	592.2023	722.5493	783.7319	866.9272	887.3998	918.1012	964.4863	997.334	1004.2031	1062.7661	1083.8414	1134.1285	1143.7861	1155.7546	1220.3611	1267.8728	1296.4253	1307.6062	1339.129	1368.1506	1389.3955	1409.1284	1426.0082	1479.5015	1495.6045	1499.5135	1511.6951	2356.4302	2971.5081	3025.9308	3041.1734	3075.9397	3098.6374	3113.0796	3129.0392	3227.3187	3491.3611	3846.3772
CCC(O)C1(CN1)C#N	CC[C@@H](O)[C@]1(CN1)C#N	
InChI=1S/C6H10N2O/c1-2-5(9)6(3-7)4-8-6/h5,8-9H,2,4H2,1H3	InChI=1S/C6H10N2O/c1-2-5(9)6(3-7)4-8-6/h5,8-9H,2,4H2,1H3/t5-,6-/m1/s1
