21
gdb 95961	2.62448	1.51675	1.24546	1.2118	77.67	-0.2459	0.0813	0.3272	1109.1803	0.182856	-424.223214	-424.214532	-424.213588	-424.257127	32.826	
C	 0.1127934416	 1.7264306362	-0.2951062761	-0.405902
C	 0.0086021483	 0.2385552646	 0.0261928602	 0.076421
O	 0.6026311819	-0.5324430062	-1.0273031319	-0.281016
C	 1.8406342911	-1.0398883351	-0.5615648039	 0.00922
O	 2.0867997028	-0.4687855664	 0.6989809208	-0.285809
C	 0.8079972708	-0.22004036	 1.2621179001	 0.408348
C	 0.8177946908	 0.6533675572	 2.5322888047	-0.299211
C	-0.2250108385	-0.3109853765	 3.1627937295	-0.216621
C	 0.1530870222	-1.3680520229	 2.0898438764	-0.290265
H	 1.1545435792	 2.0585501108	-0.2552081428	 0.126193
H	-0.2693717629	 1.9078917403	-1.3032297877	 0.124702
H	-0.4748569594	 2.3287220281	 0.4050539334	 0.111781
H	-1.0436313412	-0.0597484321	 0.0983018465	 0.082398
H	 1.7767787841	-2.1394839849	-0.4962720437	 0.088255
H	 2.6569931657	-0.7568677142	-1.2372580985	 0.10776
H	 1.7920216244	 0.5756450598	 3.0213819174	 0.118727
H	 0.5581315754	 1.7086450572	 2.4306889037	 0.102872
H	-0.0785853642	-0.5872089994	 4.2082605947	 0.104597
H	-1.2486159525	 0.0536311692	 3.0416196544	 0.105514
H	-0.6515893851	-1.9403002629	 1.6218031607	 0.102771
H	 0.9227507556	-2.0561779628	 2.4494424621	 0.109265
44.2437	101.5607	131.8282	213.2508	262.2699	314.8859	329.4881	418.8337	481.6144	515.4978	680.6827	740.5331	769.9725	790.6865	828.7735	882.0425	907.7091	933.3508	963.9747	1003.983	1014.7246	1041.8731	1063.455	1088.0528	1132.5047	1142.5204	1161.232	1168.4497	1192.5936	1204.4571	1217.9058	1249.5081	1271.8443	1286.1498	1292.6507	1339.2228	1380.066	1401.1429	1432.7242	1470.1287	1483.1898	1491.8437	1494.1716	1506.8821	1553.5709	2953.717	3038.3976	3039.701	3043.5045	3059.3262	3065.4027	3072.2469	3109.0051	3112.2661	3120.4477	3122.5801	3131.6523
CC1OCOC11CCC1	C[C@H]1OCOC21CCC2	
InChI=1S/C7H12O2/c1-6-7(3-2-4-7)9-5-8-6/h6H,2-5H2,1H3	InChI=1S/C7H12O2/c1-6-7(3-2-4-7)9-5-8-6/h6H,2-5H2,1H3/t6-/m1/s1
