20
gdb 85358	2.73882	1.37401	0.96447	3.8163	83.62	-0.2213	-0.0498	0.1715	1238.2343	0.170879	-403.169771	-403.160913	-403.159969	-403.203257	33.592	
C	-0.0169915351	 1.5739792136	-0.0399645314	-0.410031
C	-0.0033861726	 0.0362329911	 0.0144107822	 0.030514
C	 0.6487323322	-0.4960954595	-1.2342687876	-0.041752
C	 1.506130022	-1.5204149145	-1.2602066836	-0.177887
C	 1.7745853182	-2.296463951	-0.0398345748	 0.368973
O	 2.5345912143	-3.242332643	-0.0064026335	-0.327771
C	 0.9494662031	-1.8876380909	 1.1738180772	-0.263301
N	 0.6757815352	-0.455155503	 1.2143933203	-0.092603
C	-0.0060405692	-0.1028671728	 2.4514337766	-0.32081
H	 1.0037474336	 1.9606118443	 0.0286520628	 0.134518
H	-0.4580624201	 1.911201471	-0.9825862402	 0.11848
H	-0.6088149652	 2.0059327616	 0.7692185028	 0.124194
H	-1.0636600242	-0.3060531816	-0.0055944199	 0.070465
H	 0.3891141373	 0.0245279507	-2.1530700264	 0.110803
H	 1.9886684524	-1.855134663	-2.1728243559	 0.10986
H	 0.0208848182	-2.499299137	 1.1605034558	 0.095734
H	 1.5040950346	-2.1771479852	 2.0700271125	 0.127327
H	 0.5682950998	-0.4892326739	 3.2983630045	 0.12591
H	-0.0732546272	 0.9807142455	 2.5667001299	 0.123969
H	-1.0286636476	-0.5220978523	 2.5166224085	 0.093409
69.8416	123.1036	202.32	218.3823	238.7235	318.734	352.9453	372.451	414.6046	448.459	516.2164	537.7355	619.8982	705.5769	772.2607	822.7919	864.0424	931.812	991.4213	1013.648	1037.8741	1058.5871	1099.8282	1107.1529	1141.3021	1156.0815	1189.8248	1249.7309	1269.3762	1291.1782	1333.3337	1348.4864	1381.9109	1399.8531	1414.1184	1457.6365	1478.8926	1487.2723	1500.982	1505.9027	1510.1865	1688.9195	1788.4178	2833.7093	2870.0909	2926.4718	3048.0553	3078.4761	3092.3706	3117.9281	3123.6733	3136.2829	3156.9199	3191.5013
CC1C=CC(=O)CN1C	C[C@H]1C=CC(=O)CN1C	
InChI=1S/C7H11NO/c1-6-3-4-7(9)5-8(6)2/h3-4,6H,5H2,1-2H3	InChI=1S/C7H11NO/c1-6-3-4-7(9)5-8(6)2/h3-4,6H,5H2,1-2H3/t6-/m0/s1
