14
gdb 98932	4.51012	0.83982	0.77488	4.0917	67.37	-0.2787	-0.0665	0.2122	1440.6761	0.099321	-470.045899	-470.036334	-470.03539	-470.082429	31.502	
C	-0.1186712096	 1.3648280051	-0.1420264324	-0.332462
N	-0.0894768831	-0.0312366495	 0.2513041537	-0.340539
C	 0.8795186901	-0.5343740805	 1.0403118187	 0.52624
O	 1.8013056884	 0.0335787939	 1.5497552984	-0.356758
O	 0.6820406473	-1.9366289215	 1.1208983308	-0.283467
C	 1.0202745748	-2.585105176	 2.2616033769	 0.327791
N	 0.912929983	-2.0803401062	 3.41187826	-0.460812
C	 1.4556099633	-3.9405040489	 1.9776301084	 0.25361
N	 1.7975579616	-5.0324619376	 1.8133561282	-0.315245
H	-0.0238303284	 1.4721140312	-1.2276266501	 0.13796
H	-1.0484525485	 1.8427486861	 0.1821986516	 0.139583
H	 0.7228399485	 1.863132546	 0.3396490414	 0.178061
H	-0.7902920585	-0.6683929654	-0.0887158853	 0.266552
H	 1.2025266512	-2.7350066767	 4.1361970398	 0.259486
35.2614	46.669	63.6923	128.8107	155.5239	222.7569	284.2282	316.8731	431.6775	461.9226	499.0435	602.0721	677.1297	732.338	761.6585	865.8911	890.9199	913.323	1061.0279	1104.9821	1157.6489	1179.8533	1224.8247	1342.5756	1450.0409	1494.5732	1495.841	1560.5776	1714.186	1892.6773	2352.734	3038.3345	3095.3289	3160.3144	3523.574	3657.8155
CNC(=O)OC(=N)C#N	CNC(=O)O[C]([NH])C#N	
InChI=1S/C4H5N3O2/c1-7-4(8)9-3(6)2-5/h6H,1H3,(H,7,8)	InChI=1S/C4H5N3O2/c1-7-4(8)9-3(6)2-5/h6H,1H3,(H,7,8)
