17
gdb 78965	2.50264	2.10941	1.56869	1.6534	69.44	-0.2284	0.0727	0.3012	885.5029	0.136153	-421.743516	-421.736384	-421.73544	-421.774609	29.347	
O	 0.1167202106	 1.4265645725	-0.1171738638	-0.44783
C	 0.0562757898	 0.026746722	-0.0170522034	 0.077773
C	 0.2702301139	-0.6893950055	 1.3359387285	-0.118065
C	-0.8916143808	-0.249018396	 2.2639333903	-0.092604
C	-1.7041443183	-1.5015876174	 2.0292794274	-0.094453
C	-2.0607337285	-0.246438819	 1.268743919	-0.171437
C	-1.3135697723	-0.6990899792	-0.0231367664	 0.359022
O	-2.0274279055	-0.9843423059	-1.1771267691	-0.488043
C	-0.7116696709	-1.8381431723	 0.8734278031	-0.103746
H	-0.4005729373	 1.7839476401	 0.6141368728	 0.283499
H	 0.7068670289	-0.3830946461	-0.7965164241	 0.09355
H	 1.2548901521	-0.8647057458	 1.7637665731	 0.07047
H	-0.8607684297	 0.3824784062	 3.1426872335	 0.089329
H	-2.2855375803	-2.1055219435	 2.7121180919	 0.091925
H	-2.932148768	 0.388106357	 1.3675564659	 0.08681
H	-2.248650533	-0.1484276353	-1.6041845961	 0.284471
H	-0.4010708909	-2.8085348816	 0.4989577474	 0.079331
169.0277	181.3731	263.6665	324.2743	343.9856	375.3107	566.2525	580.8711	655.7654	745.0715	765.7443	784.3446	788.1401	820.4733	843.9092	865.289	902.605	930.4664	977.9048	993.9344	996.7071	1026.1307	1033.7604	1057.3581	1093.8084	1121.2215	1165.5754	1176.4287	1186.1845	1220.7937	1236.8011	1248.3564	1291.1171	1313.2318	1339.9348	1390.1326	1434.3994	3073.1958	3138.3914	3168.2602	3188.1801	3194.3137	3212.3843	3788.9972	3790.239
OC1C2C3C4C3C1(O)C24	O[C@H]1[C@H]2[C@@H]3[C@H]4[C@@H]3[C@]1(O)[C@@H]24	
InChI=1S/C7H8O2/c8-6-3-1-2-4(1)7(6,9)5(2)3/h1-6,8-9H	InChI=1S/C7H8O2/c8-6-3-1-2-4(1)7(6,9)5(2)3/h1-6,8-9H/t1-,2-,3-,4+,5+,6-,7-/m0/s1
