21
gdb 78526	2.29637	1.55241	1.23845	1.4431	83.36	-0.1973	0.0766	0.2739	1142.0834	0.180687	-387.020662	-387.011525	-387.010581	-387.053628	36.019	
C	 0.0389088204	 1.526689201	 0.0341933946	-0.48746
C	-0.0080718249	 0.0267955152	 0.0438425405	 0.354925
C	-0.9261470624	-0.7796452144	 0.9256553681	-0.357698
C	 0.5703433201	-0.9513307425	 1.0493170277	-0.157509
C	 1.2638950598	-1.7523191291	-0.0882434345	 0.309249
C	 2.695254459	-2.1801690445	 0.0734544172	-0.488387
C	 0.3721939559	-2.2691222512	-1.1640835204	 0.032106
O	-0.8345776961	-2.9544273028	-0.9537944108	-0.419741
C	 0.6230372722	-0.782959128	-1.124432705	-0.241634
H	 1.0380745685	 1.8968736636	-0.2259732173	 0.113498
H	-0.6663454901	 1.9443116012	-0.6962334696	 0.114754
H	-0.2230541949	 1.9326881922	 1.0166723093	 0.116074
H	-1.3533014145	-0.1983487507	 1.7399746728	 0.098192
H	-1.5555805519	-1.5721758757	 0.5505937182	 0.13227
H	 1.1011131017	-0.7271655473	 1.9670761414	 0.080778
H	 2.7804343571	-2.9961716345	 0.8025116786	 0.12325
H	 3.1166777417	-2.532153755	-0.8733567414	 0.115161
H	 3.3190751022	-1.3530475689	 0.4323871755	 0.117232
H	 0.9686911406	-2.7227134802	-1.962018749	 0.084332
H	-1.4178124374	-2.7457279136	-1.692214827	 0.283312
H	 1.1047789231	-0.2803171548	-1.9570752188	 0.077296
126.2278	192.9775	204.6657	216.8865	256.6447	273.0197	298.2183	308.3876	334.7853	427.5905	515.3187	568.802	595.052	639.0775	754.9127	799.8455	815.9946	882.9775	910.1678	937.6438	940.8188	980.7899	993.3065	1014.4209	1040.6771	1082.7531	1091.814	1101.1215	1118.4329	1168.8575	1190.1198	1223.4056	1275.0465	1286.1209	1320.8668	1349.3285	1391.2886	1413.3736	1418.948	1480.3091	1482.9617	1486.201	1488.8482	1500.708	1503.5036	3011.3022	3015.6637	3047.1075	3065.0173	3071.9511	3093.4437	3098.328	3123.3059	3158.4812	3177.4474	3251.7411	3795.2003
CC12CC1C1(C)C(O)C21	C[C@]12C[C@H]1[C@@]1(C)[C@@H](O)[C@@H]21	
InChI=1S/C8H12O/c1-7-3-4(7)8(2)5(7)6(8)9/h4-6,9H,3H2,1-2H3	InChI=1S/C8H12O/c1-7-3-4(7)8(2)5(7)6(8)9/h4-6,9H,3H2,1-2H3/t4-,5+,6+,7+,8-/m1/s1
