21
gdb 107477	2.18711	1.64407	1.22347	1.7299	82.38	-0.2215	0.0791	0.3006	1137.9646	0.181123	-387.033918	-387.025069	-387.024124	-387.067299	34.397	
C	-0.2530976683	 1.5723705905	-0.0870734031	-0.375671
C	-0.0514595419	 0.0519369312	-0.020560709	-0.300192
C	 0.7260353997	-0.4240576414	 1.1791501097	 0.184179
C	 0.3385516519	-1.6180017147	 2.0432878604	-0.357369
C	 0.5128937132	-0.2682967357	 2.6693736925	 0.056926
O	 1.8974196998	-0.0013238988	 2.9258763792	-0.323265
C	 2.1696946562	-0.1011643019	 1.515952509	 0.436966
C	 3.4560166234	-0.6649820714	 1.0105493983	-0.338226
C	 3.1428486306	 0.8197936544	 0.8611056282	-0.349572
H	 0.6999696012	 2.1074222998	-0.1110968187	 0.126302
H	-0.8179244894	 1.8507288868	-0.982344235	 0.111255
H	-0.8075282658	 1.9291864461	 0.7868114401	 0.117409
H	-1.0304284578	-0.4414581075	-0.0222806248	 0.101681
H	 0.453201102	-0.2957078286	-0.9329752227	 0.100457
H	-0.6892709204	-1.9467536526	 1.9166684029	 0.107805
H	 1.0544930265	-2.404803016	 2.264380073	 0.114577
H	-0.2207980813	 0.2652312503	 3.2621465596	 0.103725
H	 4.1949856567	-0.9462843634	 1.7527632138	 0.125338
H	 3.4388553713	-1.2900813451	 0.1234718754	 0.114914
H	 2.9215527521	 1.2005762462	-0.1304393308	 0.116264
H	 3.6709372802	 1.5128473117	 1.507176972	 0.126495
78.849	134.7617	161.9416	185.3383	236.0595	256.794	367.2864	426.5903	469.8526	519.3195	587.8211	614.0732	758.9307	759.3769	826.214	865.9382	869.8443	877.7484	921.7091	964.2212	975.8361	991.2473	1004.0656	1022.562	1042.4562	1046.84	1068.975	1082.0727	1101.2458	1105.598	1173.1785	1188.3915	1243.3659	1269.7846	1313.1601	1348.1817	1388.8092	1406.7081	1414.5639	1447.2799	1472.7989	1484.2258	1495.4287	1506.1913	1507.0463	3010.2355	3040.4354	3053.0244	3105.5767	3110.7594	3119.8196	3128.3686	3131.1762	3180.781	3203.2356	3211.662	3225.8413
CCC12CC1OC21CC1	CC[C@]12C[C@H]1OC12CC1	
InChI=1S/C8H12O/c1-2-7-5-6(7)9-8(7)3-4-8/h6H,2-5H2,1H3	InChI=1S/C8H12O/c1-2-7-5-6(7)9-8(7)3-4-8/h6H,2-5H2,1H3/t6-,7+/m1/s1
