18
gdb 100284	1.97582	1.45149	1.18504	2.7057	63.14	-0.2557	0.0061	0.2618	1131.0643	0.146473	-513.381729	-513.371733	-513.370789	-513.41743	35.876	
N	 0.0453579856	 1.1188105843	-0.0420308532	-0.55898
H	-1.3198139672	-0.0991115961	-0.1064962824	 0.312629
H	 1.0130686812	 0.858886709	 0.1082659216	 0.250639
H	-0.0143813488	 1.8617721761	-0.732344461	 0.255178
C	-0.6074468177	 1.5507356591	 1.2026560323	 0.06906
C	 0.1266715941	 0.9579049559	 2.4260799997	-0.107883
O	 0.4400687672	-0.4130488694	 2.279589965	-0.422734
C	-0.6953661514	 3.0795023663	 1.3302882458	-0.105117
O	-1.3311908504	 3.6506227415	 0.1981459879	-0.432353
C	-2.0452680732	 0.9697156376	 1.1961746201	 0.407228
O	-2.1739549245	-0.0926618681	 0.3981474568	-0.372547
O	-2.9396423297	 1.4091091019	 1.8753717967	-0.365596
H	 1.0889966525	 1.4701749619	 2.5418369399	 0.114313
H	-0.4726283712	 1.1543925747	 3.3253073193	 0.124804
H	-0.3818647043	-0.9155740799	 2.2496200139	 0.296712
H	-1.2124508149	 3.3430318646	 2.2596218962	 0.124141
H	 0.3164453111	 3.4977890487	 1.3603688436	 0.108009
H	-2.2783341784	 3.4995660716	 0.2985292177	 0.302497
32.4454	84.3556	96.5657	177.0685	198.0366	282.895	292.6859	347.9127	360.6714	389.1205	406.8441	450.4022	508.7762	577.182	616.1908	769.1435	778.6523	844.0579	922.4615	957.2407	968.7891	997.7252	1066.922	1085.0544	1119.6206	1188.7062	1200.2191	1215.8122	1278.4608	1320.0024	1386.7915	1400.3835	1409.5442	1424.1325	1452.6345	1486.0872	1501.08	1619.8003	1846.9829	3013.2757	3036.696	3066.9767	3088.7807	3320.4511	3501.8223	3602.9017	3799.5559	3802.4436
[NH3+]C(CO)(CO)C([O-])=O	NC(CO)(CO)C(=O)O	
InChI=1S/C4H9NO4/c5-4(1-6,2-7)3(8)9/h6-7H,1-2,5H2,(H,8,9)	InChI=1S/C4H9NO4/c5-4(1-6,2-7)3(8)9/h6-7H,1-2,5H2,(H,8,9)
