25
gdb 100954	2.05296	1.17264	0.96479	1.3754	88.96	-0.2563	0.0777	0.3341	1413.7637	0.226682	-389.482488	-389.471283	-389.470339	-389.5183	41.843	
C	 0.7316203364	 0.7900947304	-0.9298882569	-0.404237
C	-0.0485008559	 0.589354871	 0.3784351736	-0.030068
C	-1.3949448452	-0.0946301085	 0.1183279738	-0.088881
O	-2.1772504098	 0.7733202282	-0.6930546669	-0.424132
C	 0.7651504656	-0.1440412743	 1.4473511361	 0.366177
C	 1.159627458	-1.5777105255	 1.1214012244	-0.472732
C	 1.7746791776	 0.6688360522	 2.2301477428	-0.345204
C	 0.5313698329	 0.155186033	 2.9197107072	-0.035094
C	-0.5205158551	 1.1032578515	 3.4559608434	-0.418686
H	 0.9842729033	-0.1666915465	-1.3997742484	 0.107717
H	 0.1296746973	 1.3599375403	-1.6411766917	 0.129294
H	 1.6652923377	 1.3313127558	-0.7487546105	 0.109299
H	-0.294198769	 1.5857713831	 0.7628477582	 0.07852
H	-1.2373441732	-1.0620826045	-0.3839208083	 0.083353
H	-1.8977420971	-0.2977868443	 1.0767161635	 0.085947
H	-2.9883847884	 0.3147243177	-0.9290659216	 0.284846
H	 1.7406811666	-1.6406188202	 0.1951300326	 0.117447
H	 1.7767562311	-1.9980312617	 1.92168911	 0.110867
H	 0.285112175	-2.2287519912	 1.0101097491	 0.113168
H	 2.7348655206	 0.2219905872	 2.4681896176	 0.101864
H	 1.8237576034	 1.7352660327	 2.0287576588	 0.104002
H	 0.692553606	-0.7041176787	 3.5676686479	 0.075235
H	-0.640072604	 1.9911779286	 2.8295350973	 0.122167
H	-1.5001620169	 0.6181941181	 3.5361097834	 0.114066
H	-0.2431689969	 1.4502840255	 4.4578886947	 0.115065
63.0062	96.5369	153.0754	196.8092	202.5995	219.274	230.7133	248.4814	258.8879	292.4244	318.3609	351.6744	429.9372	458.2298	476.927	538.0478	721.7982	776.9966	855.4324	880.2824	919.0777	928.4589	935.6177	966.386	1020.8136	1038.1968	1054.9206	1067.7102	1098.1144	1128.8527	1135.3753	1140.344	1170.074	1189.5645	1230.2203	1270.2191	1280.9199	1308.4526	1352.6944	1371.2698	1400.9838	1409.3711	1417.819	1431.5776	1456.6635	1489.3983	1493.4551	1494.6696	1495.5014	1502.6555	1508.316	1515.4905	1523.4957	2969.0171	2998.4099	3027.1396	3029.7189	3038.0281	3045.2051	3081.7493	3090.5724	3096.9348	3102.7959	3105.048	3116.6237	3124.6069	3127.4291	3198.4334	3834.1667
CC(CO)C1(C)CC1C	C[C@@H](CO)[C@@]1(C)C[C@H]1C	
InChI=1S/C8H16O/c1-6-4-8(6,3)7(2)5-9/h6-7,9H,4-5H2,1-3H3	InChI=1S/C8H16O/c1-6-4-8(6,3)7(2)5-9/h6-7,9H,4-5H2,1-3H3/t6-,7+,8+/m1/s1
