17
gdb 39983	3.68189	1.58521	1.43067	1.1249	70.24	-0.2343	0.065	0.2993	935.0887	0.137224	-421.764224	-421.757664	-421.75672	-421.795085	26.993	
C	 0.0010768037	 1.4873457714	-0.0231688839	-0.261378
O	 1.1785821528	 0.6665846316	-0.0158566866	-0.284243
C	-0.1012822996	 0.0300929834	 0.0118647324	 0.479691
C	-0.4750771595	-0.8114369547	 1.2393788092	-0.320844
C	-0.6598886485	-2.2148577458	 0.6616351125	-0.095523
C	-1.6188488137	-2.3594345483	-0.5037617071	 0.099817
O	-1.9086134972	-1.0810187577	-1.076582003	-0.306438
C	-0.4673262252	-0.8254344981	-1.181776702	-0.014198
C	-0.1486143496	-2.279827677	-0.7699860582	-0.154902
H	-0.1727108628	 2.0589181557	 0.8875338006	 0.11647
H	-0.1884596307	 2.0268803998	-0.9504518019	 0.116268
H	 0.3411956708	-0.7829266738	 1.9664963263	 0.12043
H	-1.3818403504	-0.4375795152	 1.7239036958	 0.116777
H	-0.5298157606	-3.0854243012	 1.2944323442	 0.093763
H	-2.3539373946	-3.146818701	-0.6205939998	 0.104937
H	-0.1793196774	-0.445668514	-2.1620486537	 0.086124
H	 0.5727226124	-2.9667455051	-1.1878787848	 0.103249
104.8692	263.173	311.0253	357.4448	426.1093	510.1523	552.1713	721.2957	740.2441	797.2043	802.2553	821.5412	840.1808	890.8187	902.4235	937.2294	950.4993	980.494	1000.6669	1023.5355	1036.9739	1062.7414	1077.5513	1107.2559	1123.2044	1157.5063	1200.1359	1219.6305	1230.7023	1246.1808	1270.5274	1284.1574	1318.3161	1392.3849	1442.1523	1478.3012	1535.4728	3057.2506	3080.8873	3104.2256	3120.186	3166.406	3180.4114	3188.6964	3219.9521
C1OC11CC2C3OC1C23	C1O[C@]21C[C@H]1[C@H]3O[C@@H]2[C@@H]13	
InChI=1S/C7H8O2/c1-3-4-5(3)9-6(4)7(1)2-8-7/h3-6H,1-2H2	InChI=1S/C7H8O2/c1-3-4-5(3)9-6(4)7(1)2-8-7/h3-6H,1-2H2/t3-,4+,5-,6-,7+/m1/s1
