14
gdb 33348	5.79415	0.72399	0.6953	1.2794	84.99	-0.2518	-0.035	0.2168	1560.8824	0.100614	-399.500825	-399.49269	-399.491746	-399.534625	29.151	
C	-0.1160977298	-3.8574508029	-0.162237019	-0.558274
C	-0.051683645	-2.6534013233	-0.1013705628	 0.312256
C	 0.0184812861	-1.2968685097	-0.0342160901	-0.347556
C	 0.0875559976	-0.0903931245	 0.0281922762	 0.520389
C	 0.116755514	 1.3571559484	 0.109697906	-0.131787
C	-0.4855317814	 1.9513537794	 1.4311669334	-0.195005
N	 0.6178548203	 2.7005701798	 2.044082771	-0.252618
C	 1.6092805562	 2.5640172759	 1.2709297652	 0.128232
O	 1.4947852761	 1.840002094	 0.129473464	-0.217639
H	-0.1701406297	-4.9167599026	-0.2144737766	 0.198194
H	-0.3541275771	 1.788548836	-0.7797209999	 0.130155
H	-1.3285148365	 2.6170403036	 1.2251606667	 0.128019
H	-0.8325200033	 1.1655296473	 2.1072025131	 0.136127
H	 2.5954556623	 2.9862770385	 1.4286110328	 0.149505
49.9787	83.5409	123.3092	231.5741	265.6969	418.811	468.3165	501.1736	536.2972	556.0216	595.3537	616.7311	713.0577	757.2829	868.3686	916.9383	957.9298	965.6474	986.0258	1043.6091	1112.6615	1190.3539	1209.4253	1288.782	1312.1164	1334.3283	1366.8529	1498.4534	1714.9217	2183.8186	2362.055	3049.8123	3060.7364	3102.3953	3219.4885	3502.6754
C#CC#CC1CN=CO1	C#CC#C[C@H]1CN=CO1	
InChI=1S/C7H5NO/c1-2-3-4-7-5-8-6-9-7/h1,6-7H,5H2	InChI=1S/C7H5NO/c1-2-3-4-7-5-8-6-9-7/h1,6-7H,5H2/t7-/m0/s1
