12
gdb 12163	3.63806	1.57622	1.20847	3.845	56.11	-0.2721	-0.0251	0.247	929.9851	0.084025	-414.677051	-414.669646	-414.668702	-414.709157	25.816	
N	-0.0166409329	 1.3583470042	 0.2745922784	-0.507557
C	 0.0359495585	-0.0289426845	-0.072110372	-0.173849
C	-1.3143078838	-0.7950277934	-0.2708961527	 0.001741
O	-0.8663642936	-1.2610799065	-1.5785475811	-0.242506
C	 0.2888566349	-0.5019245139	-1.5236834657	 0.433137
O	 1.0803825397	-0.3245862461	-2.3868785903	-0.300633
C	-1.6131475823	-1.8883839868	 0.6422027258	 0.2828
N	-1.8383250199	-2.736831965	 1.3932930949	-0.304525
H	 0.8731429698	 1.6888588051	 0.6259487007	 0.259157
H	-0.2787187909	 1.9428856417	-0.511569525	 0.251345
H	 0.6873327683	-0.5640887386	 0.6226704339	 0.151181
H	-2.1750873879	-0.1296240862	-0.3715160869	 0.149707
89.2639	148.6584	167.0581	234.4148	261.5731	362.3274	462.1191	509.145	580.5527	706.8854	738.5446	759.169	887.6204	938.2445	941.976	1041.0499	1103.1854	1174.3223	1195.0074	1202.8305	1263.7949	1363.9243	1425.6544	1672.5898	1952.406	2363.8795	3092.4502	3102.7356	3526.749	3614.4378
NC1C(OC1=O)C#N	N[C@H]1[C@@H](OC1=O)C#N	
InChI=1S/C4H4N2O2/c5-1-2-3(6)4(7)8-2/h2-3H,6H2	InChI=1S/C4H4N2O2/c5-1-2-3(6)4(7)8-2/h2-3H,6H2/t2-,3-/m0/s1
