19
gdb 79998	2.74245	1.7849	1.54418	1.648	79.27	-0.2266	-0.0003	0.2263	955.2647	0.160298	-385.795305	-385.788213	-385.787269	-385.82621	29.791	
C	-0.0860253799	 1.6239427453	 0.0593382782	-0.439177
C	 0.0510626841	 0.1133636327	 0.0870261442	 0.039164
C	 1.1625815358	-0.6256256652	-0.718078742	-0.167749
C	 2.4279082306	-0.0336314609	-0.0366695079	-0.076812
C	 2.1648995951	-0.0256667301	 1.2838025375	-0.215753
C	 0.7757288229	-0.6442098347	 1.2955868341	 0.219014
C	-0.1766521422	-1.5986655385	 2.01570773	-0.195488
O	-0.2680681236	-2.3972793013	 0.7832790582	-0.313033
C	 0.9792448093	-1.8038201576	 0.3158527205	 0.144212
H	 0.8615861427	 2.1304986604	 0.2582626759	 0.11734
H	-0.4470891421	 1.9545371237	-0.9212370433	 0.115184
H	-0.8167435635	 1.9602152877	 0.8035333294	 0.11224
H	-0.9198189696	-0.3541620164	-0.0920564594	 0.093102
H	 1.1703963612	-0.7155150502	-1.8061021889	 0.059109
H	 3.3118447716	 0.3129525692	-0.5529611105	 0.103275
H	 2.7753667266	 0.3170653419	 2.1064982069	 0.109239
H	 0.2692046763	-2.188284881	 2.827207071	 0.107292
H	-1.1554612458	-1.2150114028	 2.3202584867	 0.110117
H	 1.8094706403	-2.5087755924	 0.4151393896	 0.078721
211.239	228.2705	256.8138	314.7581	335.6197	416.9244	522.7815	563.9304	597.6521	701.2544	722.1964	751.3077	768.0906	834.0339	888.9032	893.5707	896.475	921.621	945.744	972.8689	1003.8796	1055.1656	1065.0709	1081.6576	1097.8256	1137.7119	1156.2089	1181.2381	1200.3816	1217.5454	1241.8709	1254.306	1311.0997	1330.1973	1352.9343	1391.6132	1409.3558	1492.5375	1501.8824	1509.2839	1572.7812	3015.9317	3030.799	3069.8182	3082.2396	3084.0403	3087.1291	3095.0602	3119.2254	3222.3793	3247.3303
CC1C2C=CC11COC21	C[C@H]1[C@H]2C=C[C@]31CO[C@@H]23	
InChI=1S/C8H10O/c1-5-6-2-3-8(5)4-9-7(6)8/h2-3,5-7H,4H2,1H3	InChI=1S/C8H10O/c1-5-6-2-3-8(5)4-9-7(6)8/h2-3,5-7H,4H2,1H3/t5-,6+,7-,8+/m0/s1
