17
gdb 9390	3.29954	1.12254	0.93921	4.0177	65.36	-0.2725	0.0096	0.2821	1257.2296	0.139926	-400.994113	-400.984635	-400.983691	-401.029602	32.266	
C	-1.1487984475	-0.1605115466	-0.3060894655	-0.387604
C	 0.3083289032	 0.2940674557	-0.2844028074	-0.043095
O	 1.1107425182	-0.3215864778	-1.2839607593	-0.242571
C	 1.4820159927	-1.6461435133	-1.0151886051	-0.080757
C	 2.372103688	-2.1205009709	-2.1744646827	-0.024282
O	 2.9255839941	-3.3960864583	-1.9225454299	-0.407549
C	 1.631602827	-2.0949680592	-3.4518394438	 0.261336
N	 1.0407089959	-2.1357052568	-4.4437833588	-0.319068
H	-1.5804104336	-0.0073267834	-1.2991557539	 0.138773
H	-1.2561689656	-1.2169567267	-0.0424280108	 0.120781
H	-1.7292317262	 0.4201923673	 0.4180796673	 0.121309
H	 0.3687254058	 1.3665193462	-0.4927702504	 0.116991
H	 0.7533108287	 0.1237536116	 0.7088028844	 0.092236
H	 2.0698087093	-1.7277704851	-0.0875235428	 0.107837
H	 0.6134836809	-2.3182513946	-0.9274132979	 0.095033
H	 3.2174969955	-1.4302744356	-2.2579862613	 0.152076
H	 2.2206074438	-4.0514951025	-1.977565982	 0.298553
28.9422	69.2137	125.4293	156.5559	206.6258	236.4503	259.1681	317.2928	341.9316	418.1119	457.5756	590.0328	610.0666	800.5267	814.2712	884.6667	1018.5369	1042.4799	1079.9185	1094.5484	1117.394	1159.6511	1206.5816	1229.9952	1269.4013	1325.9119	1339.4083	1393.738	1412.3174	1415.83	1422.8764	1489.1	1489.6485	1507.217	1522.8665	2358.4474	2970.8527	2984.967	3011.3358	3042.6254	3078.729	3079.6834	3111.7632	3124.0578	3803.5486
CCOCC(O)C#N	CCOC[C@@H](O)C#N	
InChI=1S/C5H9NO2/c1-2-8-4-5(7)3-6/h5,7H,2,4H2,1H3	InChI=1S/C5H9NO2/c1-2-8-4-5(7)3-6/h5,7H,2,4H2,1H3/t5-/m0/s1
