16
gdb 33033	4.93686	0.89753	0.81169	1.4192	71.81	-0.2683	-0.0499	0.2184	1372.8188	0.126207	-434.110991	-434.102768	-434.101824	-434.145428	28.673	
O	-0.0728298411	 1.4219784348	 0.0097886024	-0.415739
C	 0.0221892451	 0.0090333681	 0.0019692386	-0.072888
C	-1.410088392	-0.5381102339	 0.0127506833	-0.251327
C	-1.4148879859	-2.038554069	 0.0046938472	 0.330674
N	-1.4080830182	-2.6591266965	-1.1838273929	-0.266826
C	-1.3918430509	-3.9884144835	-1.1220797185	 0.080387
N	-1.3799229707	-4.7250910187	-0.0103536919	-0.239229
C	-1.3783532567	-4.0007387924	 1.1094717604	 0.080422
N	-1.393796142	-2.6721782747	 1.1861037247	-0.266884
H	 0.818231217	 1.7836149677	 0.0029903076	 0.289431
H	 0.5447411416	-0.3585217871	-0.8946216696	 0.10229
H	 0.5615616191	-0.3671942674	 0.8849173999	 0.102141
H	-1.9145413019	-0.1769499236	 0.9118796057	 0.13122
H	-1.9312313177	-0.1673100832	-0.8728741396	 0.131256
H	-1.3894422311	-4.5248994232	-2.0688519739	 0.132533
H	-1.3645023647	-4.5476174773	 2.0501801167	 0.132539
28.2107	97.4492	99.2094	236.1747	247.6178	343.5003	354.6451	372.3343	545.441	653.0598	706.9512	811.6929	830.3121	893.9394	981.3525	1010.5339	1011.4229	1047.1767	1050.2027	1085.8809	1185.1424	1185.4711	1227.1752	1238.8481	1292.4134	1295.7975	1319.8317	1356.6992	1424.1926	1449.8555	1465.6573	1488.3167	1528.9467	1578.6274	1607.113	2976.243	3010.3997	3074.5544	3134.6828	3158.5184	3162.2949	3830.3844
OCCC1=NC=NC=N1	OCCc1ncncn1	
InChI=1S/C5H7N3O/c9-2-1-5-7-3-6-4-8-5/h3-4,9H,1-2H2	InChI=1S/C5H7N3O/c9-2-1-5-7-3-6-4-8-5/h3-4,9H,1-2H2
