16
gdb 125926	4.51948	1.27732	1.04127	4.9324	70.58	-0.2447	-0.0042	0.2405	1113.8903	0.125982	-437.880206	-437.873047	-437.872103	-437.912191	27.506	
C	 0.1825069645	 1.5226453897	 0.1011659203	-0.400266
C	 0.0475538737	 0.0188372553	-0.0277257475	 0.12495
C	 0.7438686601	-0.6045270818	-1.2910210647	-0.410557
C	 1.4392711664	-1.7792441604	-0.6812023254	 0.106236
C	 2.1735781277	-2.9016004279	-0.8357556594	-0.069222
O	 2.4787239601	-3.4222716051	 0.375247951	-0.183852
N	 1.9276958227	-2.61540221	 1.4019998706	-0.2775
C	 1.3355631919	-1.6709126538	 0.7264766237	 0.471741
O	 0.6479774274	-0.6054148751	 1.1596811916	-0.273043
H	 1.236912292	 1.8149712534	 0.1092772657	 0.132608
H	-0.3095343326	 2.0159521905	-0.7431363788	 0.125411
H	-0.2829255304	 1.8750535453	 1.0251080996	 0.139317
H	-1.0094690729	-0.2710075671	-0.0144518328	 0.10368
H	 0.0054471943	-0.8586884344	-2.0559076224	 0.130588
H	 1.4470939303	 0.1095125138	-1.7357392333	 0.127818
H	 2.5548029248	-3.4536667023	-1.6809040284	 0.152093
55.8298	228.1896	244.9516	295.4072	324.3882	436.5621	497.5572	568.5644	601.1864	713.6219	737.6056	781.7059	831.5136	836.5102	876.8939	908.2262	931.2413	968.4566	1057.6135	1103.4369	1115.1232	1133.6325	1185.4828	1213.3327	1263.0336	1307.3024	1349.0007	1378.4122	1412.1707	1464.9889	1483.9729	1492.3459	1499.9643	1586.6241	1699.3409	3034.875	3039.3044	3043.6374	3091.4633	3116.8221	3127.4324	3262.1423
CC1CC2=CON=C2O1	C[C@H]1Cc2conc2O1	
InChI=1S/C6H7NO2/c1-4-2-5-3-8-7-6(5)9-4/h3-4H,2H2,1H3	InChI=1S/C6H7NO2/c1-4-2-5-3-8-7-6(5)9-4/h3-4H,2H2,1H3/t4-/m0/s1
