18
gdb 86104	3.13244	1.22697	0.96796	2.2503	73.24	-0.2413	-0.0308	0.2105	1229.4585	0.145792	-439.123728	-439.114465	-439.11352	-439.158857	32.708	
C	 0.0616126001	 1.7308436892	-0.0005498184	-0.401611
C	 0.1948913129	 0.2165888841	-0.0199961165	 0.08847
O	 1.0800913672	-0.1668710642	-1.1092062139	-0.259233
C	 2.1318833534	-0.8230789918	-0.5570784685	 0.406173
C	 3.1957928745	-1.2303795197	-1.5175014181	-0.474085
N	 2.128197447	-1.0363924317	 0.697695394	-0.325087
C	 0.877216842	-0.4729228848	 1.212505347	-0.097629
C	 1.1387047053	 0.401139166	 2.4339855224	 0.140104
O	 0.3097721901	 1.1036825142	 2.9531607415	-0.249792
H	 1.0292260836	 2.209590706	 0.1786339353	 0.123114
H	-0.3217906655	 2.0781212401	-0.963570501	 0.124989
H	-0.6226026134	 2.0397363547	 0.7919637511	 0.151459
H	-0.7757007212	-0.2406623603	-0.2291048844	 0.101363
H	 3.5838550386	-0.3543291049	-2.045983589	 0.147844
H	 4.0037260317	-1.7279522198	-0.9825858309	 0.154066
H	 2.782519563	-1.9077807314	-2.2713815894	 0.149022
H	 0.2398770577	-1.289581778	 1.583220748	 0.120302
H	 2.171788713	 0.3103683322	 2.8332042609	 0.100531
34.4607	72.5539	133.5928	157.4608	202.1177	271.0791	282.0361	354.4646	390.6431	443.9779	563.7938	627.5327	678.041	742.9796	757.8989	881.3397	958.3346	983.3547	1007.6433	1026.654	1066.3372	1070.4938	1098.3567	1124.1972	1157.2044	1244.936	1282.2213	1304.1399	1356.8969	1382.1376	1401.662	1411.2711	1415.3039	1474.5327	1475.609	1485.897	1495.7313	1734.4306	1826.1818	2908.3298	2993.3413	3048.6338	3052.6206	3070.0943	3110.7886	3121.0856	3144.908	3167.8912
CC1OC(C)=NC1C=O	C[C@H]1OC(=N[C@H]1C=O)C	
InChI=1S/C6H9NO2/c1-4-6(3-8)7-5(2)9-4/h3-4,6H,1-2H3	InChI=1S/C6H9NO2/c1-4-6(3-8)7-5(2)9-4/h3-4,6H,1-2H3/t4-,6+/m1/s1
