13
gdb 49949	2.27833	1.28607	0.98691	2.2323	71.55	-0.272	-0.0629	0.2091	1175.0746	0.086459	-415.551937	-415.543271	-415.542327	-415.585748	30.642	
O	-0.3097226674	 0.5232062437	 0.8250471744	-0.237941
C	 0.2514879681	 0.8461692978	-0.1878800011	 0.179331
C	 1.4371805165	 1.7650692443	-0.1958597448	-0.157109
N	 2.3243115288	 1.6477070447	-1.3494657743	-0.335315
C	 1.5176441703	 2.8770661645	-1.2406880438	-0.020012
C	 0.4802203022	 3.081570279	-2.2196522221	 0.29723
C	-0.3922515901	 3.2766061744	-3.0204651677	-0.388582
C	 2.1887520495	 4.08202341	-0.792855803	 0.244073
N	 2.7498427312	 5.0284600761	-0.4379927923	-0.322336
H	-0.0539663919	 0.4870667572	-1.1909417742	 0.111315
H	 1.840876619	 2.0030866759	 0.784641804	 0.140291
H	 3.2909515887	 1.8324132232	-1.0906783183	 0.270558
H	-1.1614650248	 3.4457599792	-3.7340925268	 0.218498
78.4673	106.5038	130.7409	182.2732	213.9979	299.3422	338.4805	459.6556	476.9776	518.0309	588.3194	621.9561	629.5669	649.4525	688.8537	803.0067	958.6548	963.6477	1006.1675	1063.4135	1082.6803	1202.7788	1209.8167	1322.1374	1367.4482	1432.6318	1832.0962	2251.3799	2355.9547	2943.2841	3163.4633	3497.6915	3512.2435
O=CC1NC1(C#C)C#N	O=C[C@H]1N[C@]1(C#C)C#N	
InChI=1S/C6H4N2O/c1-2-6(4-7)5(3-9)8-6/h1,3,5,8H	InChI=1S/C6H4N2O/c1-2-6(4-7)5(3-9)8-6/h1,3,5,8H/t5-,6-/m1/s1
