19
gdb 70913	2.61687	1.84029	1.34929	2.1271	74.69	-0.2109	0.0838	0.2948	1013.3289	0.158397	-422.994082	-422.986089	-422.985145	-423.025978	31.765	
C	 0.000149583	 1.4534722726	-0.0971953702	-0.502266
C	-0.0216115264	-0.0347829649	-0.003215192	 0.43614
O	 0.8231316072	-0.7791923958	-0.8868085541	-0.364092
C	-0.0786175397	-1.9363574822	-0.7639158734	 0.38733
C	-0.3996360908	-2.5677851884	-2.0918516386	-0.489726
C	 0.5360497185	-2.8119261926	 0.3267491761	-0.094696
O	 0.5651859716	-1.9732872474	 1.4867787896	-0.269339
C	-0.2890422527	-0.88297143	 1.2313136622	 0.036427
C	-1.121133827	-1.0780328061	-0.0032822541	-0.318895
H	 1.0007791738	 1.8344170507	 0.1345132896	 0.137248
H	-0.269555889	 1.7883933981	-1.1040734614	 0.128249
H	-0.7047227227	 1.892049059	 0.6154564913	 0.124124
H	 0.507880446	-2.9735387104	-2.5504087822	 0.132145
H	-1.1188692359	-3.3840560642	-1.9679704171	 0.12271
H	-0.8245766459	-1.82702058	-2.7736729857	 0.13269
H	-0.066256064	-3.7137605113	 0.5180650847	 0.088278
H	 1.5601911995	-3.105071577	 0.0758871131	 0.114736
H	-0.6870931049	-0.422214515	 2.1279032668	 0.104862
H	-2.1967632406	-1.0545234749	-0.1219421046	 0.094073
184.4246	197.0676	201.6401	241.4939	261.3949	297.0444	352.3511	432.1308	532.9517	583.659	637.4989	727.5968	760.8718	788.1047	847.1473	864.9864	891.0999	921.9745	936.7617	981.8789	996.6296	1004.0462	1079.4452	1098.6841	1108.2116	1128.3598	1145.7862	1197.7656	1232.1442	1263.1685	1271.8315	1302.2389	1379.4617	1406.9722	1411.1893	1453.2373	1473.0914	1482.4887	1492.0153	1499.8235	1500.0607	2983.3642	3033.0934	3039.6515	3081.3532	3099.0454	3108.8894	3113.0201	3123.265	3184.2636	3193.4523
CC12OC3(C)COC1C23	C[C@@]12O[C@@]3(C)CO[C@@H]1[C@@H]23	
InChI=1S/C7H10O2/c1-6-3-8-5-4(6)7(5,2)9-6/h4-5H,3H2,1-2H3	InChI=1S/C7H10O2/c1-6-3-8-5-4(6)7(5,2)9-6/h4-5H,3H2,1-2H3/t4-,5-,6+,7+/m1/s1
