23
gdb 107470	2.11996	1.5257	1.25029	1.7467	84.95	-0.2424	0.0721	0.3145	1185.4228	0.203616	-388.272459	-388.26263	-388.261686	-388.306539	37.892	
C	-0.1693168496	-0.1938870111	 0.7441984344	-0.380701
C	 0.8934340241	 0.5364715721	-0.0902442252	-0.310544
C	 1.1770102686	-0.1380307701	-1.3990201977	 0.41763
O	 1.9002864781	-1.3808980122	-1.3566770797	-0.30416
C	 2.4197317785	-0.3160391706	-2.1690329549	-0.054158
C	 1.6736771616	-0.3650037433	-3.5024115437	-0.303055
C	 0.3218315716	-0.1676682391	-2.7066974384	 0.270307
C	-0.6774490806	-1.3162122908	-2.8133987201	-0.452848
C	-0.3243202735	 1.1838677351	-3.0072989638	-0.452791
H	-1.1359809966	-0.2179524624	 0.2311011818	 0.119655
H	 0.1355860973	-1.2268933075	 0.9346038028	 0.13523
H	-0.3159597217	 0.3026981769	 1.7079515792	 0.112382
H	 0.5769025576	 1.5696023536	-0.277904337	 0.102706
H	 1.8315343865	 0.5897541905	 0.4739226864	 0.108811
H	 3.4330434815	 0.009515025	-1.9587191477	 0.096429
H	 1.8968640922	 0.4774959809	-4.1623861698	 0.099397
H	 1.7824632142	-1.3016256323	-4.0555278635	 0.104487
H	-0.2096932964	-2.2576742887	-2.5153769334	 0.132324
H	-1.5522445448	-1.1474240259	-2.1750393795	 0.108996
H	-1.0374160903	-1.4220335468	-3.8433762126	 0.108447
H	-0.7205061231	 1.2036162639	-4.0285533563	 0.116064
H	-1.1571240952	 1.3864340945	-2.3243968203	 0.114137
H	 0.39460974	 2.0053804183	-2.912858051	 0.111253
71.6383	127.4747	192.5206	203.3449	236.1568	251.502	276.4386	296.3895	336.744	394.9912	414.7401	491.003	515.2799	631.9289	665.273	756.4471	811.3161	836.9193	896.2795	925.6165	938.9976	958.3483	967.8035	989.1658	1003.697	1033.8544	1066.0043	1104.5681	1127.7721	1165.0964	1204.8116	1225.2908	1260.5335	1271.3315	1281.8011	1323.7916	1353.2527	1396.473	1407.6388	1414.9142	1450.5301	1473.7346	1478.8369	1485.3811	1489.7027	1497.8597	1503.5658	1508.8117	1513.1412	3021.017	3026.6803	3033.2849	3040.335	3056.6931	3069.5898	3083.5617	3090.0492	3092.1469	3108.6922	3113.0378	3118.5578	3121.5814	3172.9498
CCC12OC1CC2(C)C	CC[C@]12O[C@H]1CC2(C)C	
InChI=1S/C8H14O/c1-4-8-6(9-8)5-7(8,2)3/h6H,4-5H2,1-3H3	InChI=1S/C8H14O/c1-4-8-6(9-8)5-7(8,2)3/h6H,4-5H2,1-3H3/t6-,8-/m0/s1
