15
gdb 126359	3.32756	1.2333	0.96804	3.2637	70.65	-0.259	-0.0765	0.1825	1193.5205	0.112028	-453.950722	-453.942576	-453.941632	-453.984826	28.851	
C	 0.3515506897	 0.9430880864	 0.7134283981	-0.387726
C	-0.4233301105	 0.316262254	-0.4604693059	-0.263014
C	 0.4973959232	-0.2230942043	-1.5148992604	 0.440204
N	 0.6920464668	 0.3719625343	-2.6353018497	-0.351408
C	 1.5981073468	-0.2066234336	-3.5285865644	 0.367477
O	 1.8553624102	 0.2573475891	-4.6150970033	-0.32459
C	 2.2387987772	-1.453877974	-3.0454028565	-0.046297
N	 2.0170742844	-2.0187425124	-1.9183632826	-0.044818
O	 1.0827875928	-1.3721015501	-1.0994632553	-0.250028
H	 0.9955814141	 0.2048825129	 1.1981423959	 0.141222
H	 0.9740714848	 1.7736533201	 0.3689978467	 0.140206
H	-0.3492919438	 1.3281638192	 1.4582483412	 0.132641
H	-1.0525790447	-0.5019889961	-0.0949541801	 0.135839
H	-1.0609734922	 1.0583080686	-0.9441309216	 0.145878
H	 2.9624637313	-1.954471044	-3.6826525522	 0.164413
30.9754	90.7342	133.1947	208.2784	288.2767	334.1874	406.0264	483.6397	546.5796	567.6985	703.6994	729.3092	786.6154	803.2431	891.7236	926.8895	958.8739	967.6785	991.8675	1077.1244	1111.8367	1198.7486	1265.2995	1299.2926	1335.7153	1349.0056	1409.4707	1472.9511	1497.7492	1507.1068	1635.4234	1679.2077	1804.6377	3050.0141	3060.1241	3117.7427	3127.3794	3138.6811	3187.5081
CCC1=NC(=O)C=NO1	CCc1nc(=O)cno1	
InChI=1S/C5H6N2O2/c1-2-5-7-4(8)3-6-9-5/h3H,2H2,1H3	InChI=1S/C5H6N2O2/c1-2-5-7-4(8)3-6-9-5/h3H,2H2,1H3
