18
gdb 81202	3.11796	1.389	1.28938	3.1498	78.08	-0.2254	-0.0367	0.1887	1056.0153	0.146689	-401.809953	-401.802229	-401.801285	-401.841955	30.606	
C	-0.0614095372	 1.5432257804	 0.0507028546	-0.453695
C	 0.1708418319	 0.0463194584	-0.0035763069	 0.07356
N	 1.3922703004	-0.488370674	-0.789650337	-0.188228
C	 2.2211867067	-0.121880978	 0.4784466746	-0.26694
C	 0.9296392419	-0.7525126529	 1.0981303823	 0.221174
C	 0.1162223039	-1.6766146186	 2.028206868	-0.44209
C	-0.1862793393	-2.4858416433	 0.6814205132	 0.332589
O	-1.0082525146	-3.2848485116	 0.3720965991	-0.267403
C	 1.094525119	-1.8069581107	 0.0340901676	-0.080736
H	-0.2154409348	 1.9284452522	-0.9627772212	 0.137527
H	-0.9691338048	 1.7522892639	 0.6266896864	 0.125435
H	 0.7558665711	 2.106453962	 0.5058242191	 0.122792
H	-0.7428793982	-0.4397996893	-0.3687199248	 0.093257
H	 3.1476828971	-0.692680823	 0.5711197837	 0.113816
H	 2.4069151022	 0.9474561645	 0.5777036411	 0.11325
H	 0.7242851409	-2.2978971834	 2.6938472575	 0.137038
H	-0.7431660652	-1.2843157291	 2.5774270237	 0.129526
H	 1.9563771392	-2.4818557273	 0.0590276989	 0.099128
109.562	155.2771	212.5641	261.1005	332.3548	399.2186	467.8953	487.086	545.2015	605.9197	657.6328	722.6396	767.4499	779.5984	815.0552	868.5111	879.1536	941.8736	989.1741	992.537	1035.9462	1054.7796	1080.8415	1119.9131	1131.2853	1151.5288	1174.2092	1187.1573	1209.533	1220.1026	1270.4563	1293.2669	1408.5517	1436.9893	1447.0981	1492.5343	1493.7738	1537.1454	1899.7843	3023.5592	3041.5551	3054.4713	3061.2377	3078.1065	3102.3415	3119.0916	3124.3416	3149.4166
CC1N2CC11CC(=O)C21	C[C@H]1N2C[C@]31CC(=O)[C@@H]23	
InChI=1S/C7H9NO/c1-4-7-2-5(9)6(7)8(4)3-7/h4,6H,2-3H2,1H3	InChI=1S/C7H9NO/c1-4-7-2-5(9)6(7)8(4)3-7/h4,6H,2-3H2,1H3/t4-,6-,7+/m1/s1
