17
gdb 49077	2.8417	1.73347	1.23346	2.9025	71.93	-0.2343	-0.0298	0.2045	996.3626	0.136522	-421.777105	-421.770025	-421.769081	-421.808685	27.864	
O	-0.0831594688	-0.0118319278	 0.136478477	-0.256927
C	 0.0239008737	 1.1773607035	-0.0516712883	 0.051934
C	 1.3270033483	 1.9013654098	-0.0381222284	 0.25436
C	 2.6282468487	 1.1561862093	 0.2215640959	-0.307299
C	 3.6510120679	 2.3303646285	 0.1305453491	-0.262529
C	 2.7129932847	 3.4952428189	-0.161878892	-0.034703
C	 1.5684035116	 3.0311805945	-1.1077572048	 0.01012
O	 0.6040368486	 3.9217236404	-0.4517455809	-0.3156
C	 1.3879682174	 3.3233790743	 0.6349306566	 0.010116
H	-0.8583026045	 1.8191414893	-0.2506784732	 0.096385
H	 2.6241786494	 0.6667918224	 1.1988368225	 0.119377
H	 2.8026993629	 0.3776058121	-0.525402959	 0.119382
H	 4.206268539	 2.4764616518	 1.0616225244	 0.111371
H	 4.385224758	 2.1865365918	-0.6674564173	 0.111371
H	 3.1020699707	 4.504703604	-0.2908515371	 0.087421
H	 1.5376674279	 2.9536991807	-2.1952548883	 0.102611
H	 1.1384989346	 3.6001251865	 1.6600045237	 0.102609
104.0635	191.4006	203.4552	314.4763	371.9484	385.0647	581.5064	632.979	700.9709	703.1494	764.8412	779.3683	817.1062	887.8103	903.608	915.4778	943.4036	1008.2673	1009.5792	1040.0881	1071.178	1080.399	1144.0358	1170.079	1170.7373	1217.6652	1218.0354	1231.4931	1249.6844	1268.6853	1298.8565	1346.7659	1353.5734	1416.967	1488.0047	1509.8797	1808.2517	2931.4294	3055.4752	3071.0226	3091.0434	3111.1376	3113.751	3114.2387	3135.4033
O=CC12CCC3C1OC23	O=C[C@@]12CC[C@H]3[C@@H]1O[C@@H]23	
InChI=1S/C7H8O2/c8-3-7-2-1-4-5(7)9-6(4)7/h3-6H,1-2H2	InChI=1S/C7H8O2/c8-3-7-2-1-4-5(7)9-6(4)7/h3-6H,1-2H2/t4-,5-,6+,7-
