23
gdb 101168	2.52923	1.04392	0.88547	2.585	82.15	-0.2457	0.06	0.3057	1450.2043	0.204289	-425.414184	-425.403698	-425.402754	-425.449554	39.282	
C	-1.3616122678	 1.793990806	 1.123183226	-0.386271
C	-1.2233797605	 0.2814740133	 1.3073955306	-0.187581
C	-1.4763932444	-0.5153551057	 0.0243074317	 0.109774
O	-0.5666283401	-0.1112588363	-1.0260355098	-0.437173
C	-1.4013319925	-2.0140356609	 0.2523743329	-0.120632
C	-2.613986358	-2.9326650395	 0.1255977667	-0.047802
C	-4.0060658631	-2.420778058	-0.1729190414	-0.409478
C	-1.5489171961	-2.9312748035	-0.9423469297	 0.082919
O	-1.8510133176	-2.3564488224	-2.1776696439	-0.430204
H	-1.1275466663	 2.3283050597	 2.0486867281	 0.110706
H	-0.6889490099	 2.1509223343	 0.3389810393	 0.128212
H	-2.3828628458	 2.0624955572	 0.8314847589	 0.116912
H	-0.217070595	 0.0362285415	 1.67783582	 0.085789
H	-1.9222612178	-0.076894585	 2.0734668893	 0.10664
H	-2.4562403853	-0.2395717166	-0.3745731608	 0.098203
H	 0.3202811014	-0.3745698139	-0.7535850303	 0.281076
H	-0.6628561699	-2.3077465278	 0.9964885169	 0.075444
H	-2.5870972283	-3.7868685543	 0.797244459	 0.082573
H	-4.0065787485	-1.7683866537	-1.0484077378	 0.138873
H	-4.6720755713	-3.2604961359	-0.3971204988	 0.117791
H	-4.4343369741	-1.8760668276	 0.6757979934	 0.109056
H	-0.8895656315	-3.7970411405	-1.0039064771	 0.080386
H	-1.3111920075	-1.5547636904	-2.2451129331	 0.294787
66.212	96.0596	139.0747	166.3697	198.348	221.6574	241.6554	278.3308	304.6846	357.5513	417.5686	448.0819	508.0545	575.3875	621.4054	658.2332	764.1732	776.6463	820.268	877.6443	919.25	957.4459	986.3939	995.2177	1051.7761	1069.1312	1088.4654	1110.2915	1115.8399	1148.4487	1169.4129	1181.9712	1244.7779	1258.1615	1286.1976	1325.4657	1367.2035	1373.5542	1399.193	1404.4169	1408.6855	1415.2985	1426.9591	1440.9456	1479.8249	1494.7595	1496.5168	1507.9138	1509.178	3003.1786	3034.7091	3038.8211	3051.9091	3083.2796	3090.6147	3092.8918	3103.6809	3113.9528	3122.7284	3126.5449	3143.3685	3704.8071	3791.9564
CCC(O)C1C(C)C1O	CC[C@@H](O)[C@H]1[C@@H](C)[C@H]1O	
InChI=1S/C7H14O2/c1-3-5(8)6-4(2)7(6)9/h4-9H,3H2,1-2H3	InChI=1S/C7H14O2/c1-3-5(8)6-4(2)7(6)9/h4-9H,3H2,1-2H3/t4-,5-,6-,7-/m1/s1
