18
gdb 23396	2.94013	1.34331	1.25439	1.3683	74.46	-0.2473	0.0063	0.2536	1080.9472	0.148979	-439.026417	-439.01865	-439.017705	-439.058742	30.214	
O	-0.1534206038	 1.3380749934	-0.0924564501	-0.398365
N	 0.0175423953	-0.0632553704	-0.0701193961	-0.275421
C	-1.0974846299	-0.6503923774	-0.0264707793	 0.458032
C	-2.5708424364	-0.3400897717	 0.0794663683	-0.003976
C	-3.2002183574	-0.3837667292	-1.3252394794	-0.231599
C	-3.1034558025	-1.8342880597	-1.8683385816	-0.186259
C	-1.8622771054	-2.6093201766	-1.351778598	-0.230128
C	-1.5077237045	-2.0970486574	 0.05716269	-0.002913
O	-2.7394832644	-1.6503897461	 0.7173248498	-0.305904
H	 0.757275732	 1.6518667921	-0.0889811925	 0.30831
H	-2.9020673958	 0.4869517751	 0.7097879126	 0.103042
H	-4.2490528274	-0.0730540247	-1.2849964243	 0.106937
H	-2.6761068292	 0.3328459218	-1.9672601255	 0.118908
H	-3.991842205	-2.3725334897	-1.5312308018	 0.12066
H	-3.1296966041	-1.837034962	-2.9615727511	 0.099142
H	-2.0820117602	-3.6813595814	-1.3236635883	 0.106536
H	-0.9921394423	-2.4747170515	-2.0039508188	 0.115068
H	-0.9264210489	-2.7920994847	 0.6665274161	 0.097929
90.8334	165.3036	176.3112	260.5389	321.8567	398.3683	421.1827	481.4029	567.3908	586.3477	684.281	750.1046	791.0341	853.0368	862.2661	884.5191	896.9512	934.8144	965.8825	990.5085	1054.7609	1056.2805	1095.6429	1110.0553	1168.9018	1193.5538	1224.3016	1265.4909	1290.2709	1303.9441	1320.7829	1340.6125	1367.3347	1375.0757	1414.9269	1480.6528	1486.0354	1500.0271	1820.3183	3041.1265	3042.2768	3065.799	3078.0554	3082.6864	3097.5569	3104.8926	3112.1528	3817.9154
ON=C1C2CCCC1O2	ON=C1[C@H]2CCC[C@@H]1O2	
InChI=1S/C6H9NO2/c8-7-6-4-2-1-3-5(6)9-4/h4-5,8H,1-3H2	InChI=1S/C6H9NO2/c8-7-6-4-2-1-3-5(6)9-4/h4-5,8H,1-3H2/t4-,5+
