20
gdb 94924	3.16406	1.26585	1.20283	3.7191	79.13	-0.2462	0.0095	0.2557	1136.0775	0.172217	-403.165339	-403.156986	-403.156041	-403.198239	31.846	
C	 0.3947739839	 1.3881174997	-0.2101917298	-0.395776
C	-0.103845118	 0.0336858419	 0.3127425531	 0.001152
C	 0.0530369903	-1.110727943	-0.7278286759	-0.251637
C	 1.4299303079	-1.7660535402	-0.455207086	-0.223324
C	 1.7056982323	-1.4952073583	 1.0140720384	-0.028704
C	 0.7569030211	-0.4157931587	 1.4907148881	-0.050048
N	 0.6456261838	-1.7835725594	 1.9481313979	-0.065261
C	-0.3825758591	-2.6904580284	 1.8590402791	 0.141308
O	-0.2785018423	-3.8208481605	 1.4415700105	-0.308405
H	 1.4360326778	 1.3257510809	-0.5455243614	 0.120387
H	-0.2108548866	 1.7217959937	-1.0580756747	 0.120052
H	 0.340715331	 2.1602347394	 0.5645800166	 0.117213
H	-1.1535624991	 0.1426150325	 0.6091736376	 0.081581
H	-0.7405047141	-1.8519605166	-0.6065310633	 0.125763
H	-0.0255253634	-0.7330880946	-1.7507567576	 0.100618
H	 1.4279794525	-2.8339106641	-0.6871629813	 0.133866
H	 2.2229889017	-1.2968848598	-1.0479966138	 0.105217
H	 2.7169027472	-1.5848290962	 1.4007274159	 0.100996
H	 1.045809895	 0.3153642166	 2.2421041715	 0.096713
H	-1.3207714619	-2.288539125	 2.291053575	 0.078289
100.8016	120.6583	184.824	223.1141	248.6316	277.3836	354.6961	386.6728	489.5074	632.7926	684.904	705.7385	786.5307	821.7647	843.0132	872.0092	917.8868	965.0478	987.0234	1019.5994	1032.6364	1041.4462	1069.6223	1092.2746	1108.0425	1142.1169	1166.8286	1205.8092	1220.3371	1299.3319	1307.2314	1316.063	1344.7495	1358.0057	1371.9327	1410.4919	1420.3756	1452.1773	1482.9321	1496.3486	1499.7909	1513.9666	1787.3844	2934.6725	3031.0829	3035.9425	3048.8554	3069.47	3098.0075	3100.34	3107.4773	3113.6884	3137.9186	3154.7059
CC1CCC2C1N2C=O	C[C@H]1CC[C@H]2[C@@H]1N2C=O	
InChI=1S/C7H11NO/c1-5-2-3-6-7(5)8(6)4-9/h4-7H,2-3H2,1H3	InChI=1S/C7H11NO/c1-5-2-3-6-7(5)8(6)4-9/h4-7H,2-3H2,1H3/t5-,6-,7+,8?/m0/s1
