17
gdb 12435	3.43584	1.98162	1.35573	2.8085	70.87	-0.2547	-0.0043	0.2504	905.7252	0.144129	-363.869748	-363.862481	-363.861537	-363.901594	27.458	
N	-0.0480139056	 1.3523614686	-0.0829251275	-0.47347
C	-0.0000381284	 0.0918876826	 0.0384721825	 0.353133
C	-1.2806029106	-0.7131807686	 0.0590825185	-0.239547
C	-1.4414458476	-1.7393051656	 1.202440124	-0.274589
C	-0.5391823885	-2.938155488	 1.0573641131	-0.046031
C	 0.7852850609	-2.8434517352	 0.9585166767	-0.062786
C	 1.5159498217	-1.5284822927	 1.0405821788	-0.135122
O	 1.2014826211	-0.5708975864	 0.0111734746	-0.253373
H	 0.9039830519	 1.7250376799	-0.1243029581	 0.216622
H	-2.0927392911	 0.0152465578	 0.0929008833	 0.129579
H	-1.3509909275	-1.2479030568	-0.8965011081	 0.123352
H	-1.2591488338	-1.2399940992	 2.1647487664	 0.120549
H	-2.4861975119	-2.0617317253	 1.2226305084	 0.110322
H	-1.0105728757	-3.9159252335	 0.9991133869	 0.097555
H	 1.390054172	-3.7362279296	 0.8282618893	 0.097009
H	 1.3475095845	-1.0547675165	 2.0190593746	 0.114833
H	 2.5915176286	-1.6828170514	 0.9350823564	 0.121965
57.2143	163.6054	209.7031	290.6699	346.1374	443.4592	478.0598	523.2797	649.951	698.5338	742.3502	772.4106	882.0154	908.33	936.2978	950.7833	989.8402	1018.8115	1036.1144	1057.6766	1072.901	1136.281	1196.9921	1235.0607	1262.5075	1292.6573	1320.784	1340.6411	1378.2279	1407.1517	1424.0553	1469.1032	1485.6207	1497.9031	1721.7301	1734.0333	2995.0389	3010.4851	3037.1317	3083.4763	3106.4516	3119.1618	3153.323	3178.2352	3451.2122
N=C1CCC=CCO1	[NH][C]1CCC=CCO1	
InChI=1S/C6H9NO/c7-6-4-2-1-3-5-8-6/h1,3,7H,2,4-5H2	InChI=1S/C6H9NO/c7-6-4-2-1-3-5-8-6/h1,3,7H,2,4-5H2
