19
gdb 126231	1.88974	1.74847	0.97721	2.9834	79.08	-0.1895	0.0447	0.2342	1227.6389	0.160583	-415.411777	-415.401855	-415.400911	-415.446909	36.027	
C	-0.018566355	 1.5745701816	 0.140390461	-0.362662
C	-0.0489605901	 0.0395054213	 0.016073857	-0.333934
C	 0.6490013909	-0.4940275937	-1.1990070529	 0.115883
C	 0.1128987952	-0.8198904831	-2.433696661	 0.288764
N	-1.2085983032	-0.8463874276	-2.8949077799	-0.609163
N	 1.1349111431	-1.2375141915	-3.2173935341	-0.260089
N	 2.3412793632	-1.2201649163	-2.5668739676	-0.322165
C	 2.0365658341	-0.7754621316	-1.3567245822	 0.290074
N	 3.0130968023	-0.6784367394	-0.3593147227	-0.593147
H	 1.0101129924	 1.9499710879	 0.1693891141	 0.11156
H	-0.5098511571	 2.048014691	-0.7160272241	 0.11063
H	-0.5238435899	 1.9103616235	 1.0523134674	 0.10909
H	 0.4079307644	-0.4027071988	 0.9103199827	 0.114889
H	-1.0940711336	-0.2977218525	 0.028932581	 0.090515
H	-1.845738038	-0.4597890232	-2.2107858669	 0.251149
H	-1.3327109021	-0.3509287278	-3.7706618786	 0.248543
H	 1.0661170006	-1.6973856352	-4.1077691444	 0.262567
H	 3.9380250434	-0.8095822864	-0.7509952104	 0.246161
H	 2.9774682693	 0.1960588118	 0.1488103316	 0.241336
38.1071	110.4254	139.747	187.7884	191.2521	259.2877	277.368	289.0112	293.454	418.3703	431.2813	516.0733	583.5077	652.8726	692.6646	722.7746	759.2024	774.7485	798.3283	828.6865	963.8857	1003.2295	1075.0329	1079.1137	1103.5174	1177.2237	1195.5161	1259.2451	1301.9963	1341.3013	1364.5144	1407.9868	1457.3337	1482.0918	1494.6219	1503.5874	1534.6389	1569.7805	1626.5343	1645.8196	1670.205	3011.6502	3028.4134	3045.6284	3096.8871	3100.8856	3523.9967	3530.2294	3618.2306	3622.8039	3686.7608
CCC1=C(N)NN=C1N	CCc1c(N)[nH]nc1N	
InChI=1S/C5H10N4/c1-2-3-4(6)8-9-5(3)7/h2H2,1H3,(H5,6,7,8,9)	InChI=1S/C5H10N4/c1-2-3-4(6)8-9-5(3)7/h2H2,1H3,(H5,6,7,8,9)
