17
gdb 103165	2.02721	1.58797	1.19129	2.9921	64.7	-0.2329	-0.036	0.1969	1090.1586	0.13303	-496.089809	-496.080398	-496.079454	-496.124161	34.551	
O	 0.0704778167	 1.3411327831	 0.0710158267	-0.432688
C	 0.0261163607	-0.0742896066	 0.2085858824	-0.12112
C	-1.4152764671	-0.538389721	-0.0481017475	 0.271775
O	-1.878311036	-0.0298912651	-1.2675262489	-0.479562
C	-1.6835012007	-2.0532007372	 0.1612412415	 0.058854
O	-0.5070873572	-2.8248740178	 0.1338912864	-0.431389
C	-2.3393298972	-1.769167351	 1.5544252777	-0.405159
C	-2.2769822533	-0.2726135819	 1.2145493735	 0.351733
O	-2.6974824206	 0.7319130545	 1.7185736712	-0.315127
H	-0.4801307917	 1.7203258355	 0.7687161009	 0.301238
H	 0.6807787911	-0.4889790497	-0.5620284419	 0.137051
H	 0.3946048267	-0.4078458911	 1.186726571	 0.107203
H	-1.4685303546	 0.8429606591	-1.3585604048	 0.290636
H	-2.4213020695	-2.3959716986	-0.5739314527	 0.098213
H	-0.7444394514	-3.7538904409	 0.2094083972	 0.293479
H	-3.3358166257	-2.1778801378	 1.7366987936	 0.136578
H	-1.6848705502	-2.0322943435	 2.3924093837	 0.138284
56.1654	100.5635	160.7241	185.6366	241.2587	266.9609	308.9524	330.6538	410.4978	450.6284	478.6093	505.578	560.509	585.662	671.9806	727.4475	824.6496	887.04	944.1106	1021.007	1032.9531	1054.8434	1079.7275	1118.8953	1131.1602	1169.3064	1191.0658	1229.1243	1273.1233	1309.5036	1357.4979	1395.4122	1416.1686	1417.601	1447.4794	1491.4173	1876.275	3028.4662	3038.6871	3056.8249	3107.7081	3121.0757	3731.7569	3770.0719	3828.6856
OCC1(O)C(O)CC1=O	OC[C@@]1(O)[C@@H](O)CC1=O	
InChI=1S/C5H8O4/c6-2-5(9)3(7)1-4(5)8/h3,6-7,9H,1-2H2	InChI=1S/C5H8O4/c6-2-5(9)3(7)1-4(5)8/h3,6-7,9H,1-2H2/t3-,5+/m0/s1
