19
gdb 102334	1.67453	1.53557	1.16393	4.4145	81.54	-0.2446	0.0048	0.2494	1213.5182	0.156255	-382.030416	-382.01987	-382.018926	-382.065544	38.134	
C	 0.1360197486	 1.5332322935	-0.0813442745	-0.412459
C	 0.0451949264	 0.0083521904	-0.0410287279	-0.194452
C	-1.4271217139	-0.5253030136	 0.0356421178	-0.107937
N	-2.2155600357	-0.0738513527	 1.1921161628	-0.299542
C	-1.6287630249	-0.2969974535	 2.5093710412	-0.340518
C	-2.1554763737	-0.1445177642	-1.1842780567	 0.339498
C	-2.7311271985	 0.2036923185	-2.1783074416	-0.423841
C	-1.3523968829	-2.0087718743	 0.0915670432	 0.323841
N	-1.2472417961	-3.1572981762	 0.1517660675	-0.347126
H	 1.1810345147	 1.8446672484	-0.1624091491	 0.12697
H	-0.4056865021	 1.9391151635	-0.9403323454	 0.136534
H	-0.2729049849	 1.9887741094	 0.8261879384	 0.118386
H	 0.5095634819	-0.4255133089	-0.9319117323	 0.126874
H	 0.5896462467	-0.387371245	 0.8218230616	 0.120271
H	-2.4661945404	 0.8974001657	 1.0529804701	 0.234149
H	-1.4533863273	-1.3678378624	 2.6508439264	 0.152329
H	-0.6817322404	 0.2325901976	 2.6984474615	 0.106731
H	-2.3523354937	 0.0221759845	 3.2640257393	 0.131547
H	-3.2521314339	 0.4928099291	-3.0580903023	 0.208747
99.7194	115.001	128.67	137.5074	173.964	192.9644	219.5187	275.9027	292.1189	346.8118	429.2563	491.3436	517.2207	567.1801	579.2317	647.5168	648.7365	673.8522	716.3855	781.328	954.7838	972.7545	1002.6136	1051.1396	1091.0828	1126.0758	1155.305	1190.8269	1236.9743	1310.1598	1357.2999	1406.9818	1455.7484	1471.9345	1483.7301	1496.224	1499.383	1505.3039	1522.2108	2245.0479	2361.2122	2977.224	3042.6496	3055.7968	3077.4318	3092.3762	3112.4833	3118.7599	3123.0133	3498.9113	3558.4133
CCC(NC)(C#C)C#N	CC[C@@](NC)(C#C)C#N	
InChI=1S/C7H10N2/c1-4-7(5-2,6-8)9-3/h1,9H,5H2,2-3H3	InChI=1S/C7H10N2/c1-4-7(5-2,6-8)9-3/h1,9H,5H2,2-3H3/t7-/m0/s1
