15
gdb 55413	2.47428	1.6349	1.15642	1.6016	61.62	-0.259	-0.0425	0.2165	1046.2328	0.111266	-494.950729	-494.942382	-494.941438	-494.984402	29.228	
C	 0.0234810342	 1.4436728456	 0.0477927889	-0.495924
C	 0.0102643078	-0.0651127143	 0.0358638145	 0.362358
O	-0.0688206927	-0.7616890894	 1.0156448846	-0.283003
C	 0.0705567343	-0.7156665415	-1.3678624414	-0.149875
O	 0.3787892343	-2.0864113552	-1.3280649355	-0.229295
C	-0.8425227068	-2.7858717578	-1.3590984967	 0.023454
O	-1.7954541771	-1.9331362021	-2.0041970187	-0.213637
C	-1.3264788518	-0.6649915797	-2.0030926677	 0.423432
O	-1.9301446962	 0.283000895	-2.4088703461	-0.328058
H	 1.0109740688	 1.8050500344	-0.2634240396	 0.148812
H	-0.7024346777	 1.8273495399	-0.6773796488	 0.175037
H	-0.1985760812	 1.8125651717	 1.0494442278	 0.151285
H	 0.7885772024	-0.1898449685	-2.0043041138	 0.138024
H	-0.7238942275	-3.6943729953	-1.9540806769	 0.138363
H	-1.2052312307	-3.0124960129	-0.3497554007	 0.139026
73.0412	97.7632	156.722	161.8658	192.4247	276.9225	360.6402	458.3678	535.6006	593.4842	672.8455	697.867	751.1864	849.5906	897.3722	956.2321	994.0707	1046.7367	1056.5865	1115.4554	1145.4738	1178.8567	1209.8134	1224.3978	1244.6438	1342.8307	1386.3899	1439.8675	1465.6083	1473.3784	1541.635	1829.5818	1886.7802	3036.2335	3039.7651	3077.3888	3100.5176	3113.6763	3158.4435
CC(=O)C1OCOC1=O	CC(=O)[C@H]1OCOC1=O	
InChI=1S/C5H6O4/c1-3(6)4-5(7)9-2-8-4/h4H,2H2,1H3	InChI=1S/C5H6O4/c1-3(6)4-5(7)9-2-8-4/h4H,2H2,1H3/t4-/m1/s1
