18
gdb 54816	2.75543	1.55653	1.40613	3.064	76.33	-0.2386	-0.0085	0.2301	1011.2713	0.147711	-401.963906	-401.95574	-401.954795	-401.997065	30.617	
C	-0.2630079148	 1.3215376817	 0.2351878113	-0.478255
C	-0.2127843089	-0.191823533	 0.1597916009	 0.387928
O	 0.7056739597	-0.8529277697	 0.5947272171	-0.344403
N	-1.2775198413	-0.7688515015	-0.5285221794	-0.093365
C	-1.9418494336	-2.0022059273	-0.1885055759	-0.039784
C	-1.8898990135	-2.4824220846	 1.2616472198	-0.280287
C	-2.575415742	-1.3707030009	 2.0273058335	-0.072835
C	-3.0447260888	-0.4105712659	 1.2250542456	-0.083579
C	-2.7018370612	-0.6888830072	-0.2054669523	-0.098079
H	 0.7394286046	 1.7034017456	 0.4300183651	 0.144837
H	-0.6638535309	 1.7548806814	-0.6843275802	 0.135849
H	-0.9174935866	 1.6207519895	 1.0612804313	 0.142587
H	-2.0238302186	-2.7278520504	-0.991518806	 0.10295
H	-2.4213343807	-3.43549495	 1.3726302778	 0.113169
H	-0.8594147397	-2.640581599	 1.5954064709	 0.154485
H	-2.6361408424	-1.3654674948	 3.1097812699	 0.106198
H	-3.5813954197	 0.4760740393	 1.5400834114	 0.102536
H	-3.3591256716	-0.382824313	-1.0137774008	 0.100049
74.3628	99.9281	124.138	169.1735	309.4298	372.5703	428.4308	502.1463	611.8558	623.7555	663.0587	734.8983	771.0405	801.6742	868.9355	882.4377	937.9881	958.3893	961.6788	997.7501	1014.8801	1038.5746	1045.9851	1062.2502	1117.5603	1138.1632	1187.539	1197.3144	1298.3935	1304.3249	1344.7147	1371.1238	1383.4212	1416.2088	1459.4145	1470.5921	1477.0926	1659.4318	1784.3063	3037.0599	3047.5472	3088.9359	3116.0105	3154.1246	3158.3183	3163.0267	3191.113	3216.6381
CC(=O)N1C2CC=CC12	CC(=O)N1[C@H]2CC=C[C@@H]12	
InChI=1S/C7H9NO/c1-5(9)8-6-3-2-4-7(6)8/h2-3,6-7H,4H2,1H3	InChI=1S/C7H9NO/c1-5(9)8-6-3-2-4-7(6)8/h2-3,6-7H,4H2,1H3/t6-,7+,8?/m1/s1
