16
gdb 48580	4.01683	1.22256	1.11601	1.3744	69.64	-0.2532	-0.05	0.2031	1076.3041	0.125096	-437.899191	-437.891787	-437.890843	-437.931354	28.44	
O	-0.1297379036	 0.0295433045	-0.2705770237	-0.242619
C	 0.0154849735	 1.1425950871	 0.1665130501	 0.046879
C	 1.2948468071	 1.9115262269	 0.056285804	 0.250191
C	 2.6757520532	 1.289123785	-0.2982295334	-0.267435
C	 3.0007767862	 2.7969778785	-0.6136819388	-0.167271
C	 1.5364012918	 2.8906479615	-1.1452371356	-0.251049
C	 2.8359703355	 3.3715453964	 0.8003204458	 0.425809
O	 3.5737168878	 4.0464690208	 1.4665717347	-0.359526
N	 1.5863875174	 2.8375575393	 1.1757376314	-0.373317
H	-0.8164434425	 1.6922789486	 0.6610184435	 0.091812
H	 3.225097244	 0.8009044591	 0.5099503023	 0.115111
H	 2.6509119032	 0.6604057167	-1.1890816504	 0.128625
H	 3.8695142414	 3.1247600974	-1.1778373693	 0.100337
H	 1.4060704707	 2.4023980612	-2.1117468248	 0.127354
H	 1.0252424119	 3.8537033037	-1.1029846337	 0.123661
H	 1.4989604224	 2.5140665334	 2.130809068	 0.251437
71.249	159.0849	208.9561	259.2083	402.8601	450.0225	495.683	513.0685	539.2175	680.4125	709.3624	751.0218	796.8898	848.1579	884.0058	897.1518	952.2916	992.788	1010.7516	1043.0309	1062.1354	1089.7904	1135.5583	1154.4362	1210.5008	1220.7648	1242.8079	1267.2496	1292.9826	1358.2661	1416.8849	1481.9065	1518.6113	1826.7549	1876.7767	2886.8261	3074.5143	3081.4543	3145.8264	3154.306	3164.4785	3582.6794
O=CC12CC(C1)C(=O)N2	O=C[C@@]12C[C@@H](C1)C(=O)N2	
InChI=1S/C6H7NO2/c8-3-6-1-4(2-6)5(9)7-6/h3-4H,1-2H2,(H,7,9)	InChI=1S/C6H7NO2/c8-3-6-1-4(2-6)5(9)7-6/h3-4H,1-2H2,(H,7,9)/t4-,6+
