20
gdb 108805	3.40188	1.01048	0.82939	3.3065	84.62	-0.2011	0.0034	0.2045	1439.7385	0.170388	-403.206882	-403.197308	-403.196363	-403.241672	34.584	
C	-0.2820825155	 1.5155019492	-0.0094960047	-0.37158
C	 0.105082426	 0.0262267225	 0.0333359062	-0.285952
C	 0.8020712897	-0.4536033016	-1.2005072676	 0.253349
C	 2.0526131155	-0.9207146306	-1.3031339541	-0.120336
N	 2.3824717186	-1.2912965641	-2.6198767484	-0.078841
C	 3.6474468683	-1.8337594472	-3.0571121534	-0.35062
C	 1.30941724	-1.0754728323	-3.4672236521	 0.414774
O	 1.2913313872	-1.3018986641	-4.6578831215	-0.387079
C	 0.191820146	-0.5023510392	-2.583344296	-0.460937
H	 0.6043054621	 2.1460775725	-0.130275911	 0.119462
H	-0.9593145479	 1.7278392373	-0.8429585885	 0.119884
H	-0.7893202016	 1.8120773172	 0.9137794016	 0.114239
H	 0.7505433603	-0.1572307823	 0.9005604749	 0.100595
H	-0.8058016367	-0.567096386	 0.19895974	 0.102964
H	 2.7941031839	-1.0428486164	-0.5245989374	 0.119125
H	 3.8734153159	-2.7802772648	-2.552327236	 0.128591
H	 3.5660540085	-2.0120353667	-4.1308216187	 0.167814
H	 4.4693876547	-1.1327850447	-2.8709859077	 0.12856
H	-0.6932138684	-1.1470365581	-2.646083716	 0.141618
H	-0.1096333163	 0.4775544192	-2.9708553795	 0.144368
64.0591	103.1211	129.0157	158.2081	188.4535	202.6172	279.3181	320.9318	387.7239	455.4035	502.329	568.726	595.5531	655.4274	785.5555	802.4839	858.7296	900.2835	948.1287	964.5844	1025.2665	1066.9331	1089.2325	1110.4663	1151.839	1156.0883	1184.1748	1230.9203	1280.0634	1325.1241	1341.4807	1353.8383	1406.9977	1410.9874	1434.2381	1456.9428	1479.5823	1494.8384	1497.6807	1506.8773	1513.4465	1708.6047	1813.9767	3000.9686	3020.9856	3035.8646	3042.1522	3052.4336	3072.9272	3075.0373	3106.4978	3109.8304	3142.7999	3222.0516
CCC1=CN(C)C(=O)C1	CCC1=CN(C)C(=O)C1	
InChI=1S/C7H11NO/c1-3-6-4-7(9)8(2)5-6/h5H,3-4H2,1-2H3	InChI=1S/C7H11NO/c1-3-6-4-7(9)8(2)5-6/h5H,3-4H2,1-2H3
