19
gdb 120541	6.1514	0.64747	0.61918	1.8077	72.57	-0.2465	-0.0339	0.2127	1758.4433	0.156787	-460.14407	-460.13426	-460.133316	-460.180534	33.874	
O	-0.1848242705	 1.6568484001	-0.0343516461	-0.417889
C	-0.1408475262	 0.2675580493	 0.2494624729	-0.064413
C	-1.4712769221	-0.435277281	-0.0363828057	-0.219707
C	-1.4353937012	-1.9138768915	 0.2985765547	 0.150727
C	-2.6109445583	-2.7982382756	-0.1757097815	-0.322404
C	-1.5323543776	-3.5651066721	-0.9587609128	 0.058759
O	-0.4968298318	-2.6482468423	-0.5477425698	-0.317059
C	-1.2163809227	-4.9707618274	-0.481850739	 0.131598
O	-2.0349184231	-5.7433898734	-0.0562415366	-0.234206
H	-0.2750420201	 1.7597761564	-0.9869483787	 0.281769
H	 0.6661273373	-0.2352673482	-0.3024038415	 0.110073
H	 0.0983534015	 0.1908735796	 1.3161905563	 0.111478
H	-2.266395998	 0.0460064791	 0.5469330599	 0.111058
H	-1.7291052853	-0.3175657499	-1.0979135384	 0.088884
H	-1.1727301108	-2.0594857566	 1.3556547713	 0.085762
H	-3.1241229458	-3.3879128548	 0.5841526836	 0.133785
H	-3.3430847374	-2.2776618843	-0.7946933023	 0.114699
H	-1.6454188895	-3.5902265938	-2.053350373	 0.104395
H	-0.1352305385	-5.2269069537	-0.5513802732	 0.092688
32.2241	71.2081	86.1255	107.9172	135.0792	225.1777	282.8515	293.5271	395.6104	403.6528	502.0728	585.9559	743.3497	782.6946	819.7082	898.6575	923.9599	935.1544	989.9087	1034.9206	1046.4599	1073.9098	1081.3067	1093.6428	1123.7888	1142.578	1209.7284	1249.6354	1254.9603	1272.1469	1316.8596	1328.737	1343.0096	1387.6539	1401.0754	1414.9204	1420.9164	1471.5867	1496.4046	1513.8468	1832.7314	2889.063	2991.0771	3004.2746	3006.5673	3016.9	3055.8498	3078.1609	3088.8571	3147.6307	3817.6831
OCCC1CC(O1)C=O	OCC[C@H]1C[C@@H](O1)C=O	
InChI=1S/C6H10O3/c7-2-1-5-3-6(4-8)9-5/h4-7H,1-3H2	InChI=1S/C6H10O3/c7-2-1-5-3-6(4-8)9-5/h4-7H,1-3H2/t5-,6+/m0/s1
