23
gdb 117708	3.69716	0.74691	0.73613	3.0926	83.64	-0.2475	-0.0222	0.2253	1660.5272	0.201377	-425.43071	-425.419264	-425.418319	-425.468252	40.154	
C	 0.1066993394	 1.4358228758	-0.0184742448	-0.229038
O	 0.079799446	 0.0301672502	 0.041266391	-0.239291
C	 0.5619452459	-0.5832550203	-1.1331458786	-0.056176
C	 0.5097384073	-2.1136473686	-0.9756971739	 0.209315
C	 1.3866776857	-2.536456832	 0.2169648829	-0.408482
C	-0.9505612325	-2.5472318261	-0.7450178491	-0.41721
C	 1.0779177178	-2.7106445385	-2.294384219	-0.296232
C	 1.1059854013	-4.2219693506	-2.3293506317	 0.150785
O	 2.1119615488	-4.8844956114	-2.3678386455	-0.243092
H	 1.129851047	 1.8188873783	-0.1585918834	 0.106278
H	-0.5183821614	 1.8219338225	-0.8392253195	 0.105006
H	-0.2843140803	 1.8115388817	 0.9300994074	 0.128886
H	-0.0471400795	-0.2739227657	-2.0012546976	 0.08002
H	 1.5992334101	-0.2620597895	-1.3319236165	 0.084398
H	 1.041172077	-2.0496805638	 1.1314702926	 0.132876
H	 1.3571919753	-3.6199715643	 0.3679590683	 0.119099
H	 2.4326540351	-2.2538660197	 0.0555083335	 0.114087
H	-1.5728104736	-2.3328050896	-1.6215433778	 0.105813
H	-1.0273908288	-3.6170126456	-0.5303219846	 0.113669
H	-1.3684318258	-2.0017333914	 0.1039018766	 0.138187
H	 0.4533543113	-2.3734685896	-3.1344326744	 0.108388
H	 2.1010015597	-2.3581604484	-2.4605227765	 0.115623
H	 0.1067602342	-4.7130163234	-2.3256204893	 0.077092
34.1654	63.6644	92.3557	116.4055	144.064	216.5767	242.6957	249.1195	269.5977	313.0738	327.8368	338.0074	398.571	413.9057	502.9162	570.2891	747.8349	842.8819	918.7397	936.4401	963.9909	968.6865	992.1837	997.2944	1066.2208	1086.1278	1158.5426	1177.3885	1193.6266	1202.4973	1228.5815	1247.5733	1256.4373	1324.578	1329.0134	1399.0618	1402.8104	1430.333	1435.358	1464.969	1480.5935	1482.0113	1485.3266	1494.3643	1497.8631	1505.3836	1514.2386	1527.2949	1827.9242	2875.7557	2938.2954	2970.3262	2972.174	3008.5079	3015.3631	3033.0779	3039.0207	3087.2885	3099.1678	3102.1259	3115.113	3127.4886	3131.3608
COCC(C)(C)CC=O	COCC(C)(C)CC=O	
InChI=1S/C7H14O2/c1-7(2,4-5-8)6-9-3/h5H,4,6H2,1-3H3	InChI=1S/C7H14O2/c1-7(2,4-5-8)6-9-3/h5H,4,6H2,1-3H3
