21
gdb 68473	2.73412	1.70244	1.29634	1.3866	83.03	-0.236	0.0141	0.25	1062.6134	0.184121	-387.09133	-387.083389	-387.082444	-387.123147	32.442	
C	-0.2043823893	 1.6673432341	-0.0361387162	-0.466267
C	-0.0499036768	 0.1592787678	 0.0127088638	 0.368405
C	 0.6182915914	-0.5493701339	-1.1998188005	-0.299789
C	-0.6065562749	-1.4820313627	-1.1236309282	 0.112553
C	-0.3918568441	-2.8108645393	-0.376752285	-0.229018
C	-0.4654307058	-2.6757140611	 1.1604691387	-0.240991
C	 0.346168622	-1.5690829388	 1.7978351267	-0.080271
C	 0.5118184787	-0.3328915873	 1.3258587081	-0.066649
O	-1.3094875573	-0.517396377	-0.2989573688	-0.32171
H	 0.7675140298	 2.1572048321	 0.0887687115	 0.116239
H	-0.6325216893	 1.9757392801	-0.9932003137	 0.118563
H	-0.8654272139	 2.0117352677	 0.7659699033	 0.128103
H	 0.619904722	 0.0708339662	-2.0997420672	 0.098711
H	 1.6056420294	-0.9849122805	-1.0414842936	 0.100606
H	-1.1365837098	-1.647287547	-2.0673857244	 0.072422
H	-1.1534958873	-3.5361910957	-0.685335094	 0.097952
H	 0.575397425	-3.232513312	-0.6766176609	 0.100072
H	-1.5161673817	-2.5261828798	 1.4371164105	 0.131116
H	-0.1705679933	-3.6334582052	 1.6031347554	 0.093189
H	 0.8017823674	-1.8128351139	 2.7553539472	 0.08846
H	 1.1106279478	 0.3781450463	 1.8909063872	 0.078304
142.1884	194.2442	235.3373	263.9681	308.0059	365.6603	388.6603	408.0322	492.9172	615.0894	653.3307	670.5004	745.2036	772.9791	860.0866	863.7394	871.9448	904.1002	933.7399	948.2558	988.2424	995.714	1023.05	1038.9243	1086.6037	1114.3506	1137.5437	1183.3966	1192.2888	1240.0931	1258.3638	1269.1121	1283.666	1307.3237	1348.5391	1374.5886	1389.7204	1403.9121	1422.1077	1470.1531	1480.5704	1482.4066	1491.8351	1496.0033	1714.6102	3024.5102	3032.1145	3034.3074	3044.6232	3062.1862	3067.7599	3072.322	3103.6047	3120.6392	3130.9281	3135.8224	3159.8656
CC12CC(CCC=C1)O2	C[C@@]12C[C@@H](CCC=C1)O2	
InChI=1S/C8H12O/c1-8-5-3-2-4-7(6-8)9-8/h3,5,7H,2,4,6H2,1H3	InChI=1S/C8H12O/c1-8-5-3-2-4-7(6-8)9-8/h3,5,7H,2,4,6H2,1H3/t7-,8+/m1/s1
