18
gdb 32239	2.55367	1.59229	0.99373	2.3556	84.96	-0.2081	-0.0249	0.1831	1183.7425	0.149039	-398.190063	-398.181371	-398.180426	-398.223337	32.016	
C	-0.0148956468	 1.4695194503	 0.0276058079	-0.313829
N	-0.077559233	 0.0212563328	 0.0966076175	-0.356936
C	 0.5950014134	-0.6799571177	 1.0638919712	 0.35589
N	 1.1569216417	 0.0107563483	 2.0567546175	-0.332181
C	 1.7719350881	-0.6990561436	 3.0098189944	-0.022801
C	 1.8410736453	-2.0792112333	 2.9748133042	-0.055265
N	 1.2818511161	-2.7773846832	 1.9717780424	-0.288053
C	 0.6590838654	-2.1050142689	 1.0183558813	 0.268917
C	 0.0196649324	-2.8794032793	-0.1013989334	-0.505603
H	 1.0019152683	 1.8415659838	-0.1561259703	 0.126045
H	-0.6697267266	 1.8076014994	-0.7786134739	 0.118478
H	-0.358093791	 1.9036463012	 0.969123959	 0.150559
H	-0.2674832875	-0.4666600742	-0.7614574277	 0.24533
H	 2.224826487	-0.1339965935	 3.8209360166	 0.105683
H	 2.3467486393	-2.6446374903	 3.7511400264	 0.102449
H	-1.0546476138	-2.6677986349	-0.1742018688	 0.131068
H	 0.4653808673	-2.6327814827	-1.0750856465	 0.123411
H	 0.1570267243	-3.9467381042	 0.0756216522	 0.146838
113.5692	124.0693	156.4216	188.3444	209.6753	295.7382	316.5436	384.3429	477.4404	498.3525	562.2397	585.99	619.0058	775.2614	805.8097	862.3926	898.5013	967.3516	988.8712	1056.4219	1076.9005	1103.8569	1142.1624	1155.65	1211.9975	1250.2832	1300.8277	1357.2713	1400.0156	1409.182	1454.8284	1475.9355	1477.573	1484.3619	1503.8159	1511.7273	1548.7045	1595.6775	1618.128	3009.0213	3015.1812	3058.3736	3094.5629	3135.4006	3143.9222	3153.3118	3180.8663	3664.8674
CNC1=NC=CN=C1C	CNc1nccnc1C	
InChI=1S/C6H9N3/c1-5-6(7-2)9-4-3-8-5/h3-4H,1-2H3,(H,7,9)	InChI=1S/C6H9N3/c1-5-6(7-2)9-4-3-8-5/h3-4H,1-2H3,(H,7,9)
