17
gdb 36050	2.43246	1.33729	1.06621	4.4641	78.17	-0.2458	0.0194	0.2651	1172.3898	0.135307	-380.826235	-380.817305	-380.81636	-380.86022	32.841	
C	-0.0589830474	-1.2525570769	 0.0695740254	-0.473107
C	-0.0649274569	-0.0501693095	 0.0585537577	 0.335583
C	-0.0399053197	 1.41050084	 0.0382932272	 0.111984
C	-0.9901583678	 1.9718575619	-1.0433764349	-0.389462
C	-0.6123555302	 1.5564561399	-2.3921574041	 0.273359
N	-0.3021835624	 1.2301870637	-3.4561165736	-0.308635
C	-0.1855004841	 2.0389727711	 1.4650666067	-0.280621
C	 1.3529961913	 2.1946362463	 1.442491852	-0.15447
N	 1.3244777875	 2.0001258941	-0.0276774357	-0.322647
H	-0.0541969359	-2.3149307033	 0.0697426782	 0.207392
H	-2.0170084279	 1.6471765998	-0.8425211459	 0.153718
H	-0.9582164294	 3.0642958297	-0.9922762927	 0.153172
H	-0.7141063757	 2.9939116552	 1.4357164171	 0.115468
H	-0.6187004145	 1.3983847843	 2.2311870243	 0.12354
H	 1.7657280984	 3.157841213	 1.7554554913	 0.111581
H	 1.8579692103	 1.3932795585	 1.9958183407	 0.109376
H	 2.0343944644	 1.3867962621	-0.4133582936	 0.23377
63.0569	107.9675	124.8458	187.1117	198.0004	313.279	374.3075	392.4104	470.4864	498.6063	546.4894	641.9716	655.7813	709.1993	716.1487	768.6513	870.2445	936.0181	939.4002	965.2968	974.9895	1027.791	1065.443	1118.4805	1161.3208	1193.3375	1210.0422	1259.3587	1269.1578	1313.8934	1339.3865	1393.9187	1450.0348	1482.7798	1523.961	2228.1476	2364.8955	3024.2011	3051.64	3078.5342	3088.7329	3102.0437	3157.0592	3498.6694	3535.8979
C#CC1(CC#N)CCN1	C#C[C@@]1(CC#N)CCN1	
InChI=1S/C7H8N2/c1-2-7(3-5-8)4-6-9-7/h1,9H,3-4,6H2	InChI=1S/C7H8N2/c1-2-7(3-5-8)4-6-9-7/h1,9H,3-4,6H2/t7-/m1/s1
