19
gdb 72577	2.27982	1.57037	1.41677	2.2428	75.44	-0.2415	-0.025	0.2165	1052.2109	0.156601	-423.024464	-423.015392	-423.014448	-423.058059	33.861	
C	-0.4334720678	 1.4658667351	 0.0156903718	-0.475913
C	 0.0389082389	 0.0371736514	-0.0094348489	 0.400429
C	 1.170763815	-0.3885547894	-0.9856945998	-0.403248
C	 1.8255950339	-1.158642541	 0.1780692638	 0.373217
O	 2.8436064872	-1.7782097871	 0.2957978205	-0.304667
C	 0.736433832	-0.740642141	 1.1778395129	 0.092832
C	 1.1466508529	-0.2148523225	 2.5333188079	-0.497671
C	-0.5001085899	-1.6677433274	 1.0641576175	-0.120911
O	-1.0470189171	-0.9201501798	-0.0395486461	-0.329519
H	 0.4109361479	 2.1581535477	 0.0927065792	 0.120216
H	-0.9793138944	 1.6970393505	-0.9056785417	 0.136052
H	-1.1075777844	 1.6395600662	 0.8593589784	 0.126554
H	 0.8540209565	-0.9768538967	-1.8501512714	 0.137861
H	 1.808441948	 0.4355560425	-1.3248989519	 0.130625
H	 1.8903978632	 0.5837162707	 2.4476030563	 0.126342
H	 0.2855921302	 0.1770578095	 3.084537404	 0.123146
H	 1.5957079279	-1.0165265049	 3.1294990234	 0.141864
H	-0.3161386377	-2.7198498082	 0.8167415368	 0.114985
H	-1.1527079921	-1.6171998358	 1.9455266572	 0.107805
70.1698	159.9729	168.4123	179.8604	202.9764	268.78	312.2217	339.7561	393.6893	501.0771	517.2561	596.4783	622.1262	698.0574	748.3378	848.8878	867.9434	917.6035	942.1898	980.7615	1009.2316	1044.7398	1054.8205	1128.9191	1147.3423	1163.3335	1181.055	1199.6821	1209.0676	1284.1174	1305.6718	1356.4424	1406.6422	1411.8943	1418.5115	1478.0914	1485.8869	1491.6412	1492.389	1525.0056	1884.5574	3008.7502	3031.5458	3035.0214	3050.7275	3058.6844	3100.625	3102.8599	3103.5799	3114.1875	3118.3141
CC12CC(=O)C1(C)CO2	C[C@@]12CC(=O)[C@]1(C)CO2	
InChI=1S/C7H10O2/c1-6-4-9-7(6,2)3-5(6)8/h3-4H2,1-2H3	InChI=1S/C7H10O2/c1-6-4-9-7(6,2)3-5(6)8/h3-4H2,1-2H3/t6-,7+/m0/s1
