15
gdb 124173	7.06913	0.73138	0.66595	3.5854	82.54	-0.2177	-0.0129	0.2048	1638.0466	0.112015	-416.785174	-416.776232	-416.775288	-416.821782	31.449	
C	 0.0046246439	 1.4643208137	-0.0059096593	-0.511073
C	 0.006427028	 0.0108108585	-0.0008403524	 0.277221
C	 0.0203413758	-1.1941487185	 0.0041343207	-0.116175
C	 0.0000772461	-2.6123111251	 0.0103438857	 0.257745
N	 1.1289115915	-3.3016757707	-0.0047615776	-0.231456
O	 0.721775246	-4.6483842338	 0.007165223	-0.207742
C	-0.6164790365	-4.7107637872	 0.0306401237	 0.470433
N	-1.1580726098	-5.9705592765	 0.1079038257	-0.607203
C	-1.1503933571	-3.4541819006	 0.0318813337	-0.444446
H	 1.0259891035	 1.8583348493	-0.0368230097	 0.158334
H	-0.5320785459	 1.8571711752	-0.8766036046	 0.153105
H	-0.4807726107	 1.8631255525	 0.8917727029	 0.153762
H	-0.5493031606	-6.7022840949	-0.2309405103	 0.267861
H	-2.0992789651	-6.0494095774	-0.2460372699	 0.266149
H	-2.1850482692	-3.1607629743	 0.0525007485	 0.113485
4.3152	86.625	90.6311	229.6904	264.0766	293.6302	348.2178	392.1061	444.473	490.7069	547.3764	581.186	692.357	724.1478	730.3273	769.1237	921.7839	949.0184	1027.4605	1051.232	1052.739	1061.423	1094.057	1210.6985	1355.7953	1411.7522	1474.3936	1474.7479	1477.357	1508.4848	1619.3042	1670.8141	2370.0107	3027.9473	3088.0667	3094.1565	3288.7408	3572.1124	3677.6697	4.2395	86.6241	90.6308	229.6903	264.0759	293.6303	348.2183	392.1062	444.4729	490.7078	547.3759	581.1856	692.3576	724.1481	730.3272	769.1237	921.7848	949.0183	1027.4607	1051.2326	1052.7396	1061.4232	1094.0572	1210.6985	1355.7958	1411.7527	1474.3945	1474.7488	1477.3573	1508.485	1619.3044	1670.8142	2370.0109	3027.9473	3088.0667	3094.1565	3288.7409	3572.1123	3677.6696
CC#CC1=NOC(N)=C1	CC#Cc1noc(N)c1	
InChI=1S/C6H6N2O/c1-2-3-5-4-6(7)9-8-5/h4H,7H2,1H3	InChI=1S/C6H6N2O/c1-2-3-5-4-6(7)9-8-5/h4H,7H2,1H3
