20
gdb 88080	3.29813	1.25562	1.16199	2.3875	78.61	-0.2297	0.0742	0.3039	1155.383	0.171776	-403.109063	-403.100907	-403.099963	-403.141644	32.074	
C	-0.0510383227	 1.5364637224	-0.0466702737	-0.39791
C	-0.0381188916	 0.0319760896	 0.0902129768	-0.054989
N	 1.2501171699	-0.6524572035	-0.1558407735	-0.382881
C	 0.6509015362	-0.6883073224	 1.1891200651	 0.32142
C	 1.417449715	-0.0048990367	 2.3251124412	-0.158175
O	 1.7868042915	-1.0351642667	 3.2464158442	-0.261126
C	 0.9309506155	-2.1307739295	 3.0610931198	 0.123923
C	-0.555634178	-1.9047515781	 3.1168407461	-0.339346
C	 0.1657821872	-1.9848517934	 1.7755631474	-0.169802
H	 0.8750151902	 1.9735845386	 0.3350869531	 0.127399
H	-0.1480412306	 1.8268568409	-1.0982567034	 0.121662
H	-0.8932733465	 1.9725387568	 0.5016431573	 0.116504
H	-0.9306905153	-0.4606534251	-0.295712407	 0.080484
H	 1.1007361498	-1.5365579684	-0.6371647007	 0.225281
H	 2.3278195739	 0.4823565451	 1.9695766231	 0.125974
H	 0.7907886656	 0.7447035227	 2.8298515059	 0.097321
H	 1.3714130755	-3.0576374109	 3.4083410659	 0.103891
H	-1.1759542385	-2.753019823	 3.3857579622	 0.114493
H	-0.9345217172	-0.9464847242	 3.4558959779	 0.12002
H	-0.0360139999	-2.8153555943	 1.1079822121	 0.085857
96.751	153.4361	191.8796	195.0477	288.0148	384.1239	391.6249	448.8619	494.2704	541.5336	704.3062	739.9665	789.04	800.7918	841.1339	876.4143	931.9225	963.6766	969.1317	987.2617	1027.6783	1032.0517	1051.914	1059.121	1085.2615	1094.1873	1096.326	1128.1818	1163.5249	1195.1705	1232.6169	1237.6056	1280.5635	1315.0795	1322.8987	1381.2689	1395.4814	1411.8728	1471.6342	1475.7028	1490.3962	1503.6997	1515.2123	2994.6234	3034.6449	3095.8375	3099.6251	3102.3661	3125.7337	3131.7957	3163.3482	3187.5665	3219.6632	3489.2613
CC1NC11COC2CC12	C[C@H]1N[C@]21CO[C@H]1C[C@@H]21	
InChI=1S/C7H11NO/c1-4-7(8-4)3-9-6-2-5(6)7/h4-6,8H,2-3H2,1H3	InChI=1S/C7H11NO/c1-4-7(8-4)3-9-6-2-5(6)7/h4-6,8H,2-3H2,1H3/t4-,5-,6+,7+/m1/s1
