21
gdb 114966	2.84653	1.3369	1.06521	1.3592	84.1	-0.2347	0.0069	0.2416	1213.33	0.183266	-387.060036	-387.051554	-387.05061	-387.093245	32.605	
C	-0.0658436767	 1.5471830213	 0.077643582	-0.392115
C	-0.0013497454	 0.0198904297	-0.0132460761	-0.159748
C	 0.7421013946	-0.4907028467	-1.2577637011	-0.043234
C	 2.3045410654	-0.3082918589	-1.1485723383	-0.260882
C	 2.7757926953	-1.6206285695	-0.5210392266	-0.205657
C	 1.86180442	-2.5524502521	-0.7580859493	 0.204055
C	 1.0167919804	-3.6485639551	-0.1613656282	-0.157595
O	-0.169146912	-2.8785692524	-0.5329816852	-0.306881
C	 0.6377832634	-2.0250917264	-1.4254336335	 0.094615
H	 0.9306423191	 2.0005479885	 0.1125264466	 0.114026
H	-0.590456957	 1.9729402981	-0.7851830929	 0.113195
H	-0.5999116385	 1.8628169368	 0.9793738918	 0.113079
H	 0.475443749	-0.3901581081	 0.8850357224	 0.098712
H	-1.0173803488	-0.3889534381	-0.0225724449	 0.110601
H	 0.3505477632	 0.0296398376	-2.139365933	 0.06317
H	 2.7550722353	-0.123311214	-2.1328093683	 0.106753
H	 2.5736387929	 0.549958138	-0.5234405403	 0.106473
H	 3.6559950508	-1.6974841691	 0.1062469123	 0.098521
H	 1.0338918711	-4.6149202688	-0.6824660506	 0.107798
H	 1.0957230744	-3.8119546908	 0.9186927739	 0.119263
H	 0.4499597033	-2.3260886	-2.4649880908	 0.075851
87.7686	106.6534	165.2163	223.9102	260.0706	290.5319	339.9521	387.884	480.6932	654.9469	722.6194	736.131	770.7429	831.5441	837.479	876.8639	896.4468	916.6631	953.0591	960.2243	977.0502	1004.1582	1039.4134	1067.1377	1097.2326	1110.1846	1126.4726	1141.038	1205.5446	1228.2958	1243.1703	1281.3567	1291.1475	1315.324	1331.1685	1345.1196	1358.228	1389.1903	1412.422	1478.4263	1486.7167	1500.9979	1504.8429	1509.3632	1748.1607	3002.6854	3012.7963	3015.9881	3029.3382	3035.904	3045.6458	3066.9869	3070.4613	3071.7584	3098.5153	3101.1056	3201.5852
CCC1CC=C2COC12	CC[C@H]1C[CH][C]2CO[C@@H]12	
InChI=1S/C8H12O/c1-2-6-3-4-7-5-9-8(6)7/h4,6,8H,2-3,5H2,1H3	InChI=1S/C8H12O/c1-2-6-3-4-7-5-9-8(6)7/h4,6,8H,2-3,5H2,1H3/t6-,8-/m0/s1
