21
gdb 94721	3.18476	1.18885	1.02221	2.0256	77.83	-0.2492	0.0727	0.3219	1223.9093	0.183425	-424.225147	-424.216532	-424.215588	-424.257804	34.719	
O	-0.1461007668	 1.4508739499	 0.0860054331	-0.44245
C	 0.0207050326	 0.039980429	 0.0222248338	 0.144352
C	 0.8012531718	-0.5089326551	 1.2215096604	-0.244039
C	 1.0403928046	-2.0167083162	 1.0621640802	-0.284476
C	-0.2292633427	-2.7911462376	 0.7512116746	 0.41612
O	-0.0021399669	-4.0627067633	 0.19517976	-0.471239
C	-1.4669572888	-2.6293209369	 1.5928491819	-0.349298
C	-1.4182433792	-2.0693076117	 0.177751894	-0.072335
C	-1.386354195	-0.5600306554	-0.0503524298	-0.226198
H	 0.7283387333	 1.8526366393	 0.1050613776	 0.277339
H	 0.5699000111	-0.2363511703	-0.8945477678	 0.064253
H	 1.7661597524	 0.0072083864	 1.3042678223	 0.08356
H	 0.2481615233	-0.2855056945	 2.1421889295	 0.10495
H	 1.7300915924	-2.187742984	 0.225976484	 0.107126
H	 1.5262582422	-2.4258073281	 1.958252953	 0.086878
H	 0.3593823182	-4.6253440465	 0.8894349084	 0.277268
H	-2.0649594424	-3.5187253383	 1.7577565646	 0.108291
H	-1.4588143957	-1.9232977046	 2.4180241764	 0.107471
H	-1.9720603051	-2.6471825825	-0.554220683	 0.096175
H	-1.9998584598	-0.0441196818	 0.6981122254	 0.109713
H	-1.8220771994	-0.3181898981	-1.0240848386	 0.10654
95.1859	196.6231	256.2813	289.834	294.4297	326.9921	348.2374	370.3114	401.5511	446.992	492.0874	516.3074	612.2066	687.2662	779.5539	846.9958	888.7648	898.569	911.5885	934.4973	977.8439	1024.712	1035.7442	1064.0519	1077.6953	1098.8853	1113.2888	1134.1588	1176.1473	1214.9437	1226.8217	1243.7808	1280.8272	1301.6588	1329.2934	1340.7966	1348.8973	1377.137	1404.0185	1412.4313	1436.187	1481.0366	1490.001	1495.0241	1509.7111	2947.2087	3009.6097	3023.8099	3037.1309	3046.2841	3066.8574	3084.9342	3123.4556	3166.8134	3215.0587	3788.3512	3815.401
OC1CCC2(O)CC2C1	O[C@H]1CC[C@@]2(O)C[C@H]2C1	
InChI=1S/C7H12O2/c8-6-1-2-7(9)4-5(7)3-6/h5-6,8-9H,1-4H2	InChI=1S/C7H12O2/c8-6-1-2-7(9)4-5(7)3-6/h5-6,8-9H,1-4H2/t5-,6+,7-/m1/s1
