13
gdb 35149	2.49137	1.33664	1.03121	2.5123	74.62	-0.2873	-0.0325	0.2548	1126.9649	0.087673	-378.441691	-378.433207	-378.432263	-378.475	30.505	
C	-0.0562380689	-1.2022346508	 0.0145100674	-0.388381
C	-0.0479604232	-0.0020823549	 0.0234955397	 0.254314
C	-0.0298226736	 1.434007708	 0.0377891784	-0.000946
C	 0.4846907443	 2.1607883141	 1.2765525975	-0.297976
C	 1.3366376417	 2.1795108585	 0.0383852144	-0.210698
C	 2.5475409996	 1.4120626521	-0.0279307244	 0.313071
N	 3.5311599507	 0.8074216653	-0.082481052	-0.315728
C	-1.0760678428	 2.0887748179	-0.7163249537	 0.246735
N	-1.9045337034	 2.6317415425	-1.3116920334	-0.324568
H	-0.0588810054	-2.2648502229	 0.0014548215	 0.218527
H	-0.0123297083	 3.0823437057	 1.5527534117	 0.164809
H	 0.7986489556	 1.5247827807	 2.0940938019	 0.170832
H	 1.3502958437	 3.0977576238	-0.5381747991	 0.170008
98.9042	109.1502	135.1068	200.9593	237.2196	269.4147	433.4203	458.6713	495.8999	555.0547	583.5588	611.1133	635.0599	673.1027	693.4432	784.6772	857.0554	937.8642	983.3995	1041.3816	1098.3169	1132.8344	1228.9876	1287.519	1384.4209	1472.4942	2252.8405	2361.2538	2365.5234	3160.3993	3184.0104	3262.4336	3498.637
C#CC1(CC1C#N)C#N	C#C[C@]1(C[C@H]1C#N)C#N	
InChI=1S/C7H4N2/c1-2-7(5-9)3-6(7)4-8/h1,6H,3H2	InChI=1S/C7H4N2/c1-2-7(5-9)3-6(7)4-8/h1,6H,3H2/t6-,7-/m0/s1
