23
gdb 64397	2.10831	1.42059	1.08905	2.8784	85.54	-0.2433	-0.0188	0.2245	1244.0632	0.205189	-388.32398	-388.314318	-388.313374	-388.359817	36.688	
C	-0.12537531	 1.5900943216	 0.0393612058	-0.447223
C	 0.0492901297	 0.0628171035	-0.0393789767	 0.309969
C	-1.3358587868	-0.5899118034	-0.1748324861	-0.430599
C	 0.9729792962	-0.3158283445	-1.2409976821	-0.237053
C	 1.9275750363	-1.4028429206	-0.7302801154	-0.209971
C	 2.1851163478	-0.9761107539	 0.7209185154	-0.235622
C	 0.7884234601	-0.5582995721	 1.222775491	-0.086499
C	 0.8436986114	 0.3567718067	 2.4214017914	 0.143243
O	 0.1760185319	 0.2316250199	 3.4171981242	-0.260386
H	 0.8313426739	 2.1088434721	 0.1598866413	 0.111321
H	-0.5808652991	 1.9589618639	-0.8860310517	 0.114818
H	-0.7780314561	 1.8846877965	 0.8682433944	 0.126597
H	-1.8840525577	-0.1696530538	-1.0254113823	 0.110869
H	-1.2524755467	-1.671139836	-0.329477068	 0.112406
H	-1.9361700504	-0.4273602298	 0.7268736414	 0.126246
H	 0.3908519509	-0.6309587234	-2.1123115217	 0.096075
H	 1.5545535206	 0.5612306038	-1.5481211348	 0.094538
H	 1.4393648799	-2.3848406829	-0.7457732721	 0.102122
H	 2.8416040783	-1.4852198271	-1.3252786956	 0.097462
H	 2.6346387431	-1.7585359791	 1.3389042	 0.106229
H	 2.8659260996	-0.1137520755	 0.7414401435	 0.098707
H	 0.2322316457	-1.4454809938	 1.5407417926	 0.08895
H	 1.5771731613	 1.192877338	 2.3332885755	 0.0678
12.296	63.1851	193.3212	251.5026	269.3389	281.156	310.8042	331.2716	370.1396	399.0176	442.9819	459.5211	560.2716	577.8997	723.637	820.0485	876.6225	903.142	922.343	945.3554	956.8274	972.3669	1012.1131	1021.651	1044.0275	1057.1477	1104.615	1134.1523	1178.64	1214.7768	1227.3527	1240.8491	1266.7176	1298.4492	1331.4557	1337.6746	1350.5288	1356.761	1401.3957	1423.1889	1429.3409	1484.3965	1486.925	1490.9696	1495.6627	1505.7088	1507.1833	1510.9826	1823.0365	2847.5526	3015.1905	3022.5976	3026.4497	3033.4156	3036.5429	3059.5222	3080.7131	3088.5677	3091.6474	3093.2551	3095.8492	3098.0276	3099.4269
CC1(C)CCCC1C=O	CC1(C)CCC[C@H]1C=O	
InChI=1S/C8H14O/c1-8(2)5-3-4-7(8)6-9/h6-7H,3-5H2,1-2H3	InChI=1S/C8H14O/c1-8(2)5-3-4-7(8)6-9/h6-7H,3-5H2,1-2H3/t7-/m0/s1
