13
gdb 5164	8.01949	1.26192	1.09035	2.2057	63.12	-0.2182	0.0049	0.223	1010.1421	0.097445	-394.813323	-394.806423	-394.805479	-394.845195	24.561	
N	-0.1788440583	 1.2956259771	 0.0101449914	-0.431476
C	-0.0345499319	 0.0463178685	 0.0035430679	 0.111734
O	-1.1655235304	-0.7274912754	 0.0082405038	-0.227537
C	-1.0058730134	-2.0710525	 0.0010722447	 0.505166
N	 0.098692193	-2.7638163349	-0.0098823199	-0.353444
C	-0.3238197738	-4.0839613236	-0.0127878639	-0.085644
C	-1.6855217654	-4.159283083	-0.0034520357	-0.107486
N	-2.1215967283	-2.8410812491	 0.0055436	-0.332827
H	 0.7345055379	 1.7459499443	 0.0053520003	 0.239075
H	 0.8805987551	-0.5471413258	-0.0059415143	 0.153773
H	 0.3890794574	-4.8933400365	-0.0214749559	 0.115897
H	-2.3752529568	-4.9855511615	-0.0022363874	 0.135753
H	-3.0691449653	-2.50343782	 0.013817979	 0.277018
59.6223	101.1129	184.866	311.9648	457.7453	500.5971	501.0182	636.7596	692.1655	737.2532	813.5703	837.9159	845.1927	925.3425	999.9884	1063.7806	1066.7092	1086.1753	1138.8203	1195.8719	1262.6893	1300.1818	1382.8637	1395.0633	1512.0438	1540.9357	1600.2292	1749.2614	3133.8571	3258.0608	3291.7516	3517.4383	3672.7552
N=COC1=NC=CN1	[NH][CH]Oc1ncc[nH]1	
InChI=1S/C4H5N3O/c5-3-8-4-6-1-2-7-4/h1-3,5H,(H,6,7)	InChI=1S/C4H5N3O/c5-3-8-4-6-1-2-7-4/h1-3,5H,(H,6,7)
