16
gdb 10994	2.95756	2.41814	1.76597	2.2274	59.55	-0.2347	0.0531	0.2878	774.978	0.130962	-420.841165	-420.834225	-420.833281	-420.87174	27.744	
O	-0.1675328397	 1.3890290202	-0.1406052313	-0.449913
C	-0.0063193259	-0.0065920467	-0.0192818428	 0.058271
C	 0.0489003721	-0.6135753897	 1.4140599532	 0.051033
C	-1.4511885164	-0.2781650021	 1.5556609791	-0.310297
C	-1.4145938212	-0.6820529083	 0.0370864877	 0.356697
O	-2.4089875704	-0.4109587231	-0.8829547919	-0.484865
C	-0.9962772303	-2.1481492126	 0.1529256958	-0.11038
O	 0.0673622745	-2.0235815269	 1.1278921614	-0.279868
H	 0.6900153684	 1.8103781723	-0.0297247397	 0.293205
H	 0.720961285	-0.408373286	-0.7363373064	 0.07312
H	 0.8073098988	-0.368133434	 2.1549736811	 0.080549
H	-2.0412138975	-0.8912807258	 2.2394709411	 0.100761
H	-1.6388210587	 0.7853152145	 1.6963601543	 0.113214
H	-2.4275142942	 0.5454894329	-1.0069667691	 0.293779
H	-1.7949066668	-2.7962305461	 0.5312436973	 0.107913
H	-0.609788758	-2.5599986384	-0.7856969799	 0.10678
185.8435	261.357	273.3358	338.3746	359.359	388.0946	439.153	468.1672	571.6154	624.8838	668.2719	833.7541	876.469	900.2505	931.5444	968.8651	992.4395	1008.9279	1058.3945	1086.7185	1128.4376	1142.4478	1158.8496	1193.684	1197.7925	1235.1054	1265.1222	1275.0835	1304.5064	1355.0967	1412.4401	1424.3339	1482.7427	1532.6989	3025.9577	3030.9086	3074.5949	3084.8977	3143.1326	3161.947	3793.8957	3826.3774
OC1C2CC1(O)CO2	O[C@H]1[C@H]2C[C@]1(O)CO2	
InChI=1S/C5H8O3/c6-4-3-1-5(4,7)2-8-3/h3-4,6-7H,1-2H2	InChI=1S/C5H8O3/c6-4-3-1-5(4,7)2-8-3/h3-4,6-7H,1-2H2/t3-,4+,5+/m1/s1
