15
gdb 48606	2.60516	1.43084	1.09703	4.2573	71.5	-0.2718	-0.0606	0.2112	1085.5786	0.11268	-416.748606	-416.740828	-416.739884	-416.781606	28.335	
O	-0.6079960662	 0.7965203283	 0.6810111328	-0.231903
C	 0.3286711696	 0.7874745473	-0.0754836883	 0.031499
C	 1.4481905892	 1.7801469535	 0.0000720496	 0.248033
C	 1.8241647424	 2.767646673	 1.1328907929	-0.283469
C	 2.8957909835	 2.8946679254	 0.0151783126	-0.02579
N	 2.9087078643	 1.386327227	-0.1776400622	-0.343397
C	 1.7386531203	 2.9380852245	-1.0281435099	-0.180281
C	 2.0278275334	 2.5892957044	-2.4074270383	 0.287328
N	 2.2169546799	 2.3628887931	-3.5248085702	-0.320852
H	 0.429010799	 0.042341801	-0.8928886958	 0.112392
H	 1.1610517722	 3.6150316079	 1.3247930739	 0.118399
H	 2.163873704	 2.2994373418	 2.0587845452	 0.116549
H	 3.8109922358	 3.4848003625	-0.0032589769	 0.11503
H	 3.2363854159	 0.9410239847	 0.6853712946	 0.221884
H	 1.0653471967	 3.7937247056	-0.9659170501	 0.134577
61.7638	113.8307	176.0563	207.9516	272.1057	413.3904	445.1509	499.7554	565.0911	628.6951	713.9557	766.8848	822.3776	893.4057	905.6165	944.5762	1003.1526	1015.9337	1055.6542	1069.4566	1085.3632	1124.1247	1170.0744	1186.4076	1206.5043	1266.7439	1293.9764	1313.6476	1371.9266	1408.9681	1513.6287	1822.6098	2361.1767	2916.8332	3062.62	3117.2811	3132.8108	3137.0167	3394.2479
O=CC12CC(N1)C2C#N	O=C[C@@]12C[C@@H](N1)[C@H]2C#N	
InChI=1S/C6H6N2O/c7-2-4-5-1-6(4,3-9)8-5/h3-5,8H,1H2	InChI=1S/C6H6N2O/c7-2-4-5-1-6(4,3-9)8-5/h3-5,8H,1H2/t4-,5-,6-/m1/s1
