20
gdb 105986	2.68651	1.58013	1.21368	1.8912	82.28	-0.2054	0.0737	0.2791	1114.7601	0.16965	-365.903549	-365.895019	-365.894075	-365.936575	32.823	
C	-0.0028818002	 1.4955494507	 0.2495383525	-0.376015
C	-0.0491805712	 0.0080785963	-0.1264009818	-0.326987
C	-1.4222073367	-0.5664429328	-0.0315867717	 0.361109
C	-2.3221531692	-0.9435780444	 1.1284707734	-0.228566
C	-3.518095705	-0.4592994786	 0.2781551121	-0.048774
C	-3.1978177777	-1.4454148641	-0.7850579559	-0.118014
N	-2.6151418458	-0.0580314074	-0.8567680304	-0.213125
C	-1.9808377156	-1.9699230577	 0.027019806	 0.262034
C	-1.326612738	-3.3068926989	 0.1343899735	-0.52971
H	 1.0052607985	 1.9012738395	 0.1235979532	 0.108608
H	-0.6852531607	 2.0699467307	-0.3835182828	 0.139529
H	-0.3043871551	 1.6464681687	 1.2909984234	 0.115122
H	 0.3205317502	-0.1259275369	-1.1518636443	 0.108215
H	 0.6197568541	-0.5708024815	 0.5235440459	 0.10092
H	-2.1304391607	-1.001614882	 2.1913034277	 0.088486
H	-4.4288229573	 0.0805809197	 0.5100747624	 0.093071
H	-3.7923770504	-1.8630298349	-1.5901616213	 0.091338
H	-0.9525331606	-3.6513749406	-0.8371050127	 0.124758
H	-0.4745280073	-3.2673032245	 0.8217907112	 0.123751
H	-2.0208817813	-4.0659190611	 0.5138116296	 0.124247
86.4402	124.5607	189.7315	213.3821	225.5197	261.995	313.2076	415.5653	567.9692	635.8182	689.8807	740.527	772.0079	789.4411	808.1607	861.4245	869.1788	885.519	896.3592	948.1406	959.8132	988.4387	997.341	1014.5706	1093.0596	1100.8199	1120.1667	1155.0219	1167.9823	1208.2236	1240.3912	1289.157	1312.1337	1337.5981	1361.774	1406.5443	1414.3369	1467.4166	1475.8541	1483.2215	1496.2778	1501.9759	1511.9379	3014.3042	3018.8308	3039.498	3050.3681	3075.978	3091.081	3108.9048	3118.3128	3164.3308	3179.5427	3207.8527
CCC12C3C4C(N14)C23C	CC[C@@]12[C@H]3[C@@H]4[C@@H](N14)[C@@]23C	
InChI=1S/C8H11N/c1-3-8-5-4-6(9(4)8)7(5,8)2/h4-6H,3H2,1-2H3	InChI=1S/C8H11N/c1-3-8-5-4-6(9(4)8)7(5,8)2/h4-6H,3H2,1-2H3/t4-,5+,6-,7+,8+,9?/m1/s1
