18
gdb 74108	2.664	1.56778	1.05774	4.7488	79.88	-0.2388	-0.0362	0.2026	1137.9085	0.148569	-401.968441	-401.96041	-401.959466	-402.001243	30.546	
C	-0.2542364256	 1.4984966232	 0.0731708876	-0.476255
C	-0.068544864	 0.0129221621	-0.0218334331	 0.308824
C	-0.2500329099	-0.6745546113	-1.1575728981	-0.24128
C	 0.0923464422	-2.1108925719	-1.2650043198	 0.352986
O	 0.4509432985	-2.6283939977	-2.3004614424	-0.342668
N	-0.0416599877	-2.8453050089	-0.072367308	-0.105373
C	 1.1113175375	-3.2080950891	 0.7385005769	-0.249295
C	 0.1229735278	-2.1857028262	 1.2146155743	-0.022486
C	 0.4154629519	-0.6899884627	 1.2327168854	-0.339151
H	 0.6680827592	 1.9862604881	 0.4139243621	 0.133992
H	-0.5403051434	 1.9343334699	-0.8866028058	 0.134277
H	-1.026582796	 1.7460087019	 0.8126292422	 0.134365
H	-0.5194784557	-0.1818054561	-2.0858408063	 0.106978
H	 1.1048230699	-4.2114774838	 1.1551311058	 0.127229
H	 2.0851592219	-2.8569690119	 0.4043194569	 0.128509
H	-0.604522137	-2.51480434	 1.9540068076	 0.103485
H	 1.4886983988	-0.4880754563	 1.3536437697	 0.12758
H	-0.0644064484	-0.2403046093	 2.1091137349	 0.118283
64.4556	148.6709	197.401	224.7238	296.1133	377.1026	426.0332	439.2183	491.8249	514.9492	683.2806	721.5284	743.388	860.0442	866.3091	898.9925	915.014	938.7539	1003.6521	1033.3498	1054.7733	1093.6015	1110.5119	1128.5924	1151.0057	1174.5548	1223.3962	1228.6093	1314.4293	1360.543	1376.7636	1410.3845	1413.9563	1473.6015	1478.3678	1483.6463	1511.5113	1702.0602	1786.0812	3013.6285	3019.8343	3058.5925	3066.7195	3104.4201	3121.1097	3124.9774	3190.8615	3192.9983
CC1=CC(=O)N2CC2C1	CC1=CC(=O)N2C[C@H]2C1	
InChI=1S/C7H9NO/c1-5-2-6-4-8(6)7(9)3-5/h3,6H,2,4H2,1H3	InChI=1S/C7H9NO/c1-5-2-6-4-8(6)7(9)3-5/h3,6H,2,4H2,1H3/t6-,8?/m1/s1
