15
gdb 34901	1.9717	1.9363	1.20124	2.0228	76.35	-0.2498	0.0255	0.2753	1038.6221	0.109742	-383.371088	-383.362845	-383.361901	-383.403991	31.193	
C	-0.2930334547	-1.253203234	 0.0200077609	-0.443753
C	-0.1666203878	-0.0582462124	 0.0318692054	 0.363802
C	-0.0216590426	 1.3792871515	 0.0393322408	-0.259522
C	-0.2647829163	 2.1229560967	 1.3709990255	 0.020271
O	 0.7325331869	 1.6991496564	 2.2955868727	-0.222131
C	 1.0772556603	 2.7178677212	 1.3615136381	 0.0203
C	 1.4493552653	 2.0313540371	 0.0289894715	-0.259539
C	 2.6117513582	 1.1733810811	 0.0123067903	 0.363838
C	 3.5819498394	 0.4646015118	-0.0074606595	-0.443766
H	-0.3981783632	-2.3097703836	 0.0190692802	 0.197952
H	-0.6056417043	 1.83089922	-0.7686139965	 0.113387
H	-1.2068374799	 2.4793166198	 1.7694395275	 0.118915
H	 1.4504960623	 3.6572701995	 1.7506607671	 0.118909
H	 1.4973490648	 2.7631559846	-0.7833784893	 0.113386
H	 4.4354502214	-0.1669586197	-0.0150988648	 0.197952
95.3014	98.0911	155.8031	199.9487	305.1662	385.5215	409.4128	519.5599	582.0422	623.0165	624.1771	640.1969	640.5202	662.1354	759.1098	768.7366	863.6138	879.536	896.0577	929.4552	1029.3311	1045.8519	1064.6819	1064.9889	1158.9359	1221.2867	1233.3636	1247.0829	1324.3014	1338.2899	1397.4709	2238.9598	2241.7759	3055.9856	3069.0958	3189.2542	3204.178	3504.2168	3504.7324
C#CC1C2OC2C1C#C	C#C[C@H]1[C@H]2O[C@H]2[C@H]1C#C	
InChI=1S/C8H6O/c1-3-5-6(4-2)8-7(5)9-8/h1-2,5-8H	InChI=1S/C8H6O/c1-3-5-6(4-2)8-7(5)9-8/h1-2,5-8H/t5-,6+,7-,8+
