18
gdb 45357	2.92964	1.6421	1.44001	3.2524	72.09	-0.2551	0.0238	0.279	965.4526	0.150816	-439.1099	-439.102862	-439.101918	-439.141669	28.054	
N	-0.062190548	 1.2921171272	 0.5454016281	-0.514151
C	-0.0235296725	 0.1247827322	 0.0609958658	 0.387379
C	-1.3045296212	-0.6707413842	-0.1466207548	-0.287447
C	-1.0979225312	-1.9297339139	-0.9909627	 0.088475
C	 0.1412730963	-2.6699558522	-0.4804252496	-0.254816
C	 1.1834725099	-1.6872439056	-1.0148307409	 0.083356
C	 0.6597273568	-1.4352459732	-2.4321189965	-0.088341
O	-0.7627349694	-1.5738795922	-2.3408046533	-0.276672
O	 1.1739300614	-0.4756015068	-0.2387967862	-0.26892
H	 0.8844947652	 1.6668711101	 0.6364604949	 0.218228
H	-1.6929490234	-0.9452525557	 0.8414151075	 0.129469
H	-2.0434469558	-0.0123814475	-0.6080155116	 0.144857
H	-2.0078021493	-2.532759103	-1.029312599	 0.086632
H	 0.183065267	-2.7828949284	 0.6044888335	 0.117152
H	 0.2484010999	-3.6489398186	-0.9552744655	 0.114728
H	 2.2161627895	-2.0353731982	-0.9871278724	 0.095547
H	 0.9237599696	-0.4327397271	-2.7851142896	 0.119961
H	 1.0586667854	-2.1752021927	-3.1386893405	 0.104564
67.4602	140.0911	340.5062	377.8573	408.5292	432.4554	517.6249	537.2278	593.8677	749.739	763.3798	843.8196	862.8829	870.444	908.1894	915.4261	941.476	967.0081	990.6635	1026.5095	1040.8907	1089.3178	1091.3432	1108.5253	1172.9106	1207.2758	1229.7645	1248.1769	1293.2454	1307.4167	1326.1806	1334.608	1376.5212	1385.6058	1405.5352	1456.9781	1482.1637	1515.328	1750.1973	3015.5477	3047.0364	3068.9027	3073.2231	3091.0269	3115.3758	3119.773	3129.9713	3462.509
N=C1CC2CC(CO2)O1	[NH][C]1C[C@@H]2C[C@@H](CO2)O1	
InChI=1S/C6H9NO2/c7-6-2-4-1-5(9-6)3-8-4/h4-5,7H,1-3H2	InChI=1S/C6H9NO2/c7-6-2-4-1-5(9-6)3-8-4/h4-5,7H,1-3H2/t4-,5-/m0/s1
