14
gdb 130444	2.04118	1.74832	0.99535	2.238	69.78	-0.2592	-0.0452	0.2141	1120.8132	0.102405	-432.866033	-432.858012	-432.857068	-432.899331	28.557	
N	-0.3761059843	 1.3317308402	 0.2626318652	-0.502157
C	 0.1482963001	-0.0008936043	-0.0392081695	-0.289593
C	 0.8765546658	-0.5375134961	 1.1567070936	 0.341816
N	 2.1401301135	-0.8637256215	 1.0848772315	-0.191398
O	 2.5005218314	-1.3108531137	 2.3605927011	-0.157856
C	 1.4417472281	-1.2362450016	 3.1623308047	 0.010146
C	 0.3631672769	-0.7517468494	 2.4822378621	-0.015841
C	-0.9474302016	-0.5386217036	 2.9704186542	 0.22184
N	-2.0204483314	-0.3885538185	 3.3774399672	-0.341156
H	 0.3746557845	 2.0147627472	 0.252382933	 0.239423
H	-1.0452632545	 1.6126842717	-0.4454545077	 0.242096
H	-0.7043796978	-0.6572135268	-0.248138059	 0.136816
H	 0.8266852202	-0.0601786464	-0.9026016326	 0.124094
H	 1.5804373591	-1.5548176473	 4.183764346	 0.18177
60.4252	120.6696	177.7608	185.2284	249.8838	322.6765	411.4554	529.7986	552.8873	588.4909	616.9054	684.432	755.5692	842.434	873.1875	894.3483	933.8664	981.9661	1071.1153	1167.6508	1178.3032	1197.7969	1301.1312	1314.0462	1400.7198	1434.5635	1494.0888	1526.0821	1627.2226	1661.4971	2357.7297	3001.046	3065.2517	3272.209	3506.8159	3591.4751
NCC1=NOC=C1C#N	NCc1nocc1C#N	
InChI=1S/C5H5N3O/c6-1-4-3-9-8-5(4)2-7/h3H,2,7H2	InChI=1S/C5H5N3O/c6-1-4-3-9-8-5(4)2-7/h3H,2,7H2
