19
gdb 115406	2.60044	1.2665	0.92176	2.8984	75.85	-0.2145	0.066	0.2805	1303.2167	0.158944	-456.355755	-456.346055	-456.345111	-456.391769	33.55	
C	-0.1673324909	 1.4179597355	-0.2403598953	-0.247972
O	-0.2519875355	 0.0007660322	-0.2151748865	-0.231872
C	 0.6651038989	-0.6349579534	-1.0431216087	 0.198969
C	 0.5035694272	-2.1581423147	-0.8726424386	-0.208516
N	 0.0052406581	-2.5617903227	-2.172338027	-0.360039
C	-0.213677261	-1.4735347517	-2.9962044421	 0.479363
O	 0.3982149214	-0.3784705573	-2.4226498657	-0.254131
N	-0.8262168688	-1.5040845593	-4.0953539161	-0.36107
C	-0.9694504043	-0.2879943835	-4.8719492189	-0.324965
H	 0.8393317297	 1.7594931815	 0.0424346379	 0.111092
H	-0.4113985835	 1.8157904618	-1.2312996037	 0.135779
H	-0.8888855564	 1.789824532	 0.4891795867	 0.134081
H	 1.6805502894	-0.2635150214	-0.8504238315	 0.082825
H	 1.4579380713	-2.6401172685	-0.6319653617	 0.116016
H	-0.2024072091	-2.3487578608	-0.0582032997	 0.130099
H	-0.6327095618	-3.3339862797	-2.267359941	 0.258059
H	-2.0097271468	-0.19078105	-5.2034375103	 0.114708
H	-0.6908373815	 0.6259070841	-4.3324162556	 0.111184
H	-0.3539115162	-0.3458192641	-5.7790960223	 0.11639
31.1231	76.3162	99.9368	125.044	187.7805	223.6025	233.4722	278.5116	410.2332	449.3974	514.7671	533.8384	703.6967	722.8313	794.5137	866.1786	907.0984	996.7443	1030.727	1061.0329	1079.0291	1112.5329	1137.9648	1142.9429	1163.7676	1181.1124	1212.7473	1247.1171	1266.3112	1336.7834	1391.1317	1403.3718	1440.1617	1449.8896	1480.9272	1485.4827	1495.6328	1502.6872	1511.5269	1525.1296	1822.7154	2998.2687	3003.7302	3016.811	3033.2522	3056.5938	3071.7609	3076.0318	3077.3359	3134.9117	3663.7772
COC1CNC(O1)=NC	CO[C@H]1CNC(=NC)O1	
InChI=1S/C5H10N2O2/c1-6-5-7-3-4(8-2)9-5/h4H,3H2,1-2H3,(H,6,7)	InChI=1S/C5H10N2O2/c1-6-5-7-3-4(8-2)9-5/h4H,3H2,1-2H3,(H,6,7)/t4-/m1/s1
