18
gdb 88887	4.55206	0.85234	0.77677	4.0661	78.65	-0.2271	0.0148	0.2419	1479.3041	0.147332	-439.056888	-439.048385	-439.047441	-439.090825	31.555	
O	 0.1336933882	 1.369259077	 0.6560217609	-0.435712
C	 0.1231689207	 0.0329173442	 0.271408997	 0.133336
C	-0.6519745157	-0.9797881351	 1.0692622525	-0.33507
C	-1.1567297883	-0.5388561411	-0.3019164757	-0.030036
N	-2.2370716172	 0.393884077	-0.3138803226	-0.352161
C	-3.2046982878	 0.2422827826	-1.0938515775	 0.47529
C	-4.4684378994	 1.012130131	-1.4056499163	-0.378764
C	-4.7083613683	-0.1290701821	-2.4162960956	-0.075671
O	-3.4582504481	-0.765528138	-2.006535261	-0.259945
H	-0.7689934349	 1.6889466101	 0.5079357353	 0.288312
H	 1.0638072802	-0.2714162711	-0.1780945556	 0.097468
H	-0.2718488363	-1.9915948995	 1.1611663642	 0.111589
H	-1.1995880962	-0.6076135966	 1.927691145	 0.120722
H	-1.1011196638	-1.2542821662	-1.1176195804	 0.100985
H	-5.180526661	 1.0784378841	-0.5813194227	 0.142402
H	-4.3105926662	 2.0047425895	-1.8307055381	 0.14202
H	-5.5605853061	-0.782840328	-2.2178789823	 0.127603
H	-4.6774091199	 0.1454409523	-3.4731142568	 0.127632
52.7592	115.5185	131.2172	171.2359	233.5145	331.2513	428.6431	440.3763	477.7015	553.7751	638.9914	776.6888	790.9169	796.4762	803.9437	891.3538	913.3979	966.1497	994.7205	1012.961	1033.6073	1047.8349	1057.3832	1114.1159	1132.9673	1141.2689	1159.0094	1175.4892	1199.9901	1225.2755	1244.4983	1348.8611	1357.4258	1382.2377	1433.2198	1468.4062	1478.2284	1521.4284	1840.9808	3068.357	3087.7092	3122.3005	3132.6504	3139.7125	3143.9518	3153.5921	3229.5311	3709.4831
OC1CC1N=C1CCO1	O[C@H]1C[C@H]1N=C1CCO1	
InChI=1S/C6H9NO2/c8-5-3-4(5)7-6-1-2-9-6/h4-5,8H,1-3H2	InChI=1S/C6H9NO2/c8-5-3-4(5)7-6-1-2-9-6/h4-5,8H,1-3H2/t4-,5+/m1/s1
