16
gdb 77202	3.40331	1.06299	0.91216	3.0438	74.59	-0.2677	-0.0021	0.2656	1244.5385	0.125532	-396.94378	-396.93517	-396.934226	-396.97743	31.361	
N	 0.5089293484	 1.034210047	-0.4450147965	-0.508623
C	-0.0850696011	-0.2269310191	-0.1423282358	 0.03756
C	-0.1442151727	-0.6365741629	 1.363548162	-0.13417
C	-1.5113014402	-1.335018756	 1.0973828621	-0.248653
C	-1.6573420474	-0.5059554876	-0.2156334642	-0.225368
C	-2.4253988423	 0.7149140109	-0.0580591717	 0.278536
N	-2.9767218501	 1.7232408197	 0.0769658075	-0.322509
C	 0.9480945219	-1.427940725	 1.8993509468	 0.267914
N	 1.8097530584	-2.0848952348	 2.3025796507	-0.317604
H	 0.6376035532	 1.1663182488	-1.4416003694	 0.245579
H	-0.0449763271	 1.8103995918	-0.0947472842	 0.251128
H	 0.4162390198	-1.0098675274	-0.7159009089	 0.120239
H	-0.284459527	 0.2583055939	 1.9775678983	 0.140614
H	-1.3883794681	-2.3956533918	 0.875137497	 0.140588
H	-2.2817474419	-1.2065423958	 1.8559967352	 0.144778
H	-2.0039884836	-1.0495536118	-1.0965838889	 0.129992
63.7755	122.141	147.9594	190.452	248.2802	288.1281	356.551	418.295	474.7661	518.7603	560.2074	619.7052	686.2299	770.0576	810.5255	833.5101	881.8807	963.2894	1000.1429	1034.1576	1069.7466	1118.7892	1147.1936	1183.2332	1204.0498	1245.0089	1258.803	1271.6182	1339.5377	1361.9359	1427.9351	1489.5466	1669.1769	2346.3946	2357.1696	3070.8767	3092.279	3094.8375	3103.4595	3162.7861	3505.3852	3593.5038
NC1C(CC1C#N)C#N	N[C@H]1[C@@H](C[C@H]1C#N)C#N	
InChI=1S/C6H7N3/c7-2-4-1-5(3-8)6(4)9/h4-6H,1,9H2	InChI=1S/C6H7N3/c7-2-4-1-5(3-8)6(4)9/h4-6H,1,9H2/t4-,5-/m0/s1
