21
gdb 71794	3.62217	1.65391	1.50659	0.1313	84.91	-0.2506	0.0995	0.3501	975.7128	0.186203	-349.952909	-349.946216	-349.945272	-349.983391	29.262	
C	 0.0294596934	 1.4867168539	 0.0243786845	-0.500729
C	-0.053741686	-0.016520219	-0.0114810732	 0.334056
C	-1.3095373189	-0.7438488507	-0.4688792842	-0.296875
C	-0.8030591216	-2.1659522859	-0.2909470989	-0.029446
C	 0.6575547987	-2.2703563865	-0.8576342339	-0.052578
C	 0.9814888746	-3.1960810354	 0.351164862	-0.227649
C	-0.0434549963	-2.277763581	 1.0786934384	-0.052578
C	 0.6169260407	-0.8888894463	 1.0376354301	-0.098664
C	 1.1352373031	-0.8834421649	-0.3939187731	-0.098671
H	 1.00917246	 1.8226177083	 0.3798876456	 0.113913
H	-0.1266289895	 1.9183704416	-0.9712513193	 0.114966
H	-0.7283087368	 1.911979663	 0.6928895245	 0.114966
H	-2.1773982119	-0.5195804614	 0.1636258922	 0.090389
H	-1.5719143947	-0.5131897914	-1.5088282649	 0.090387
H	-1.4659855	-2.9951833881	-0.5341142587	 0.063409
H	 0.8619580474	-2.5634557228	-1.8878303463	 0.054974
H	 0.6091361142	-4.2157735718	 0.2124477531	 0.089009
H	 2.0099715883	-3.2187892181	 0.7234184084	 0.086026
H	-0.5451826026	-2.5783308147	 1.9989760055	 0.054973
H	 1.1728723466	-0.4745591476	 1.8690051997	 0.075061
H	 2.0935522315	-0.4648855111	-0.6738568314	 0.075062
207.816	240.1282	270.2104	376.4517	432.781	507.9729	555.6374	682.9331	684.0069	739.1044	813.1607	821.801	831.5148	856.0506	882.4127	913.3192	924.5995	934.873	960.287	990.134	995.425	1005.3134	1042.1317	1052.161	1055.6714	1072.2238	1095.7722	1114.5235	1149.1858	1164.5021	1221.3811	1222.9131	1233.8387	1250.3819	1264.1818	1278.8212	1289.6782	1302.3282	1335.4159	1409.9071	1421.3672	1489.0233	1490.6427	1499.4802	1501.0486	3020.0043	3024.4077	3045.3171	3064.5565	3079.4689	3093.1248	3101.8424	3105.7456	3106.8214	3128.7608	3185.6737	3195.4644
CC12CC3C4CC3C1C24	C[C@]12C[C@H]3[C@@H]4C[C@H]3[C@H]1[C@H]24	
InChI=1S/C9H12/c1-9-3-6-4-2-5(6)8(9)7(4)9/h4-8H,2-3H2,1H3	InChI=1S/C9H12/c1-9-3-6-4-2-5(6)8(9)7(4)9/h4-8H,2-3H2,1H3/t4-,5+,6-,7+,8-,9+
