21
gdb 40287	2.94511	1.41153	1.12179	2.0845	78.34	-0.247	0.0805	0.3276	1150.1869	0.184081	-424.211806	-424.203598	-424.202654	-424.244528	32.413	
C	-0.3901696375	 1.527336699	-0.0386933334	-0.329703
C	 1.0945751897	 1.2134131736	 0.0094134384	-0.318275
C	 0.0653358194	 0.1043334881	 0.0079360585	 0.447831
C	-0.1343590883	-0.7288630999	 1.2631086333	-0.256821
C	 0.9762985035	-1.7730387836	 1.4705892387	-0.238662
C	 0.8396831399	-3.0269662576	 0.5911595461	-0.063965
O	 0.2818427154	-2.8143214711	-0.7014683646	-0.233637
C	 0.7101815472	-1.6899135846	-1.4142924782	 0.002651
O	-0.1158046638	-0.5687923942	-1.2128351128	-0.277953
H	-0.8604318369	 1.9493176017	 0.8427282521	 0.11142
H	-0.7944136857	 1.8741360815	-0.982485681	 0.124287
H	 1.6602340467	 1.3635618179	-0.9029893132	 0.116132
H	 1.6398449584	 1.4239259116	 0.923811686	 0.108872
H	-0.1480589155	-0.0487159247	 2.1215526719	 0.095547
H	-1.1167016617	-1.2137345894	 1.220537762	 0.112757
H	 1.9440583505	-1.2886415528	 1.2961681609	 0.106125
H	 0.9897076586	-2.1070070357	 2.5146707771	 0.099873
H	 1.8186469554	-3.5228873864	 0.5021971976	 0.092295
H	 0.1572271136	-3.7411087625	 1.0633706838	 0.112116
H	 1.7605543762	-1.4441037884	-1.1860636515	 0.0777
H	 0.6074034648	-1.9350335224	-2.4743651019	 0.111411
81.923	126.7515	218.4887	271.1679	304.354	336.6265	375.2268	395.4155	501.2394	579.446	627.0475	686.2279	772.8251	807.648	868.8158	888.3125	899.5293	923.7563	959.7839	973.3295	990.4109	1041.7923	1064.9149	1074.3437	1079.4689	1114.7408	1134.2618	1187.4339	1191.0825	1196.5557	1258.4397	1283.3181	1301.4111	1329.3065	1342.0797	1384.4414	1388.3403	1417.3749	1443.3908	1453.719	1472.6927	1487.727	1494.6508	1504.1376	1514.8424	2965.174	2985.5672	3032.8615	3036.0854	3057.8317	3078.6873	3082.0929	3097.786	3130.047	3138.6843	3216.6662	3232.0795
C1CC11CCCOCO1	C1CC21CCCOCO2	
InChI=1S/C7H12O2/c1-2-7(3-4-7)9-6-8-5-1/h1-6H2	InChI=1S/C7H12O2/c1-2-7(3-4-7)9-6-8-5-1/h1-6H2
