23
gdb 106375	3.30415	1.18884	1.08788	1.1244	85.43	-0.2408	0.0876	0.3284	1252.057	0.20668	-388.279767	-388.270956	-388.270012	-388.312903	34.875	
C	-0.1540654641	 1.3839424444	 0.047257178	-0.261391
O	 0.0731460309	-0.0077972148	-0.0312144963	-0.298725
C	 0.6974069988	-0.5625312332	 1.0801119022	 0.462918
C	 0.0335466932	-0.6194877492	 2.4984371454	-0.298397
C	 1.0253400726	-1.8052298274	 2.6646033873	-0.030127
C	 0.775544493	-2.1045073336	 1.1585493046	-0.28546
C	 2.3923083621	-1.0755370597	 2.6552845903	 0.05537
C	 3.6179683387	-1.9811039131	 2.5561370661	-0.415603
C	 2.1506230174	-0.1445064921	 1.4187703467	-0.297789
H	 0.7825015308	 1.9585741021	 0.0747955034	 0.109333
H	-0.7106392448	 1.6669755649	-0.8492329913	 0.125763
H	-0.7506472531	 1.6498819902	 0.9321768998	 0.108789
H	 0.144359106	 0.2370228805	 3.1704639187	 0.083242
H	-1.0099677716	-0.9381905565	 2.4467156923	 0.097581
H	 0.8756105537	-2.5677015118	 3.4287350573	 0.05929
H	-0.1966279102	-2.5672684457	 0.9772357112	 0.100203
H	 1.550866353	-2.6119698746	 0.578919536	 0.090913
H	 2.4830417332	-0.4723400849	 3.5663522392	 0.065594
H	 3.5811316535	-2.6205624998	 1.6680138648	 0.116146
H	 4.5383736699	-1.3901018038	 2.4975460289	 0.113061
H	 3.6968289442	-2.6332795113	 3.4332726539	 0.110238
H	 2.8302882766	-0.3596932776	 0.5880462491	 0.097431
H	 2.2433577363	 0.9161691468	 1.6674301326	 0.091618
83.3459	151.4512	191.6216	226.5895	228.508	275.6187	381.8981	407.6848	442.0598	491.636	523.401	575.923	665.5397	796.9234	822.085	837.9381	899.7767	909.597	941.7887	957.0844	987.2005	1003.786	1022.5382	1045.8138	1071.0071	1083.4807	1123.1943	1150.1436	1168.1257	1179.7281	1182.2515	1207.6916	1221.7452	1235.5269	1242.2023	1266.6285	1276.0056	1323.1689	1335.6943	1380.3316	1412.2847	1483.2948	1483.8275	1490.4729	1493.5583	1498.888	1500.3584	1509.192	1530.2052	2987.9501	3025.793	3027.6655	3037.2123	3048.8771	3050.6024	3064.1139	3091.1003	3095.0244	3100.3488	3114.2412	3115.6518	3118.3984	3126.294
COC12CC(C1)C(C)C2	CO[C@@]12C[C@@H](C1)[C@@H](C)C2	
InChI=1S/C8H14O/c1-6-3-8(9-2)4-7(6)5-8/h6-7H,3-5H2,1-2H3	InChI=1S/C8H14O/c1-6-3-8(9-2)4-7(6)5-8/h6-7H,3-5H2,1-2H3/t6-,7-,8-/m0/s1
