21
gdb 73292	2.86551	1.80241	1.30487	1.3675	82.25	-0.2318	0.0911	0.3229	1039.0183	0.182836	-387.061353	-387.053348	-387.052404	-387.093105	32.748	
C	 0.038432364	 1.5169090533	-0.0728083816	-0.50708
C	 0.0280333972	 0.0079439656	 0.0119113344	 0.3133
C	 0.4418412596	-0.7637662307	-1.2367935269	-0.144103
O	 0.314520981	-2.1158861127	-0.797222119	-0.319722
C	-0.123558793	-1.9733991774	 0.5482204613	 0.493626
C	-0.3105461904	-3.3302357503	 1.1717890487	-0.492682
C	 0.6393509549	-0.7870282258	 1.2286875742	-0.157434
C	-0.6289183606	-0.4709362324	 2.0536692349	-0.275914
C	-1.1646789404	-0.8074232435	 0.6434328848	-0.157406
H	 1.0415761212	 1.8858678205	-0.3158745526	 0.11971
H	-0.639223531	 1.8669140443	-0.860074046	 0.119717
H	-0.2699336185	 1.9901719236	 0.8631508352	 0.122801
H	-0.2193238096	-0.575570743	-2.0936869608	 0.09471
H	 1.4760829026	-0.5564139869	-1.5436684641	 0.09471
H	 0.6315182763	-3.8865898579	 1.1513883042	 0.128288
H	-0.64655828	-3.2563587534	 2.2084443247	 0.121436
H	-1.0511765904	-3.9048936456	 0.6072786055	 0.128265
H	 1.6813112706	-0.7750961892	 1.55590731	 0.06437
H	-0.8833213364	-1.1604167772	 2.8618804484	 0.092926
H	-0.7493894443	 0.5604955526	 2.3890789437	 0.09612
H	-2.2002996629	-0.8189877138	 0.2966546111	 0.064365
186.0145	192.2297	203.1522	262.2055	280.178	351.774	376.2254	441.3548	469.1109	578.5402	670.423	691.1037	715.2637	725.2048	820.4853	882.2388	889.2146	923.3617	931.2332	999.1125	1003.9343	1026.5159	1044.8556	1073.6266	1104.558	1109.0888	1120.239	1148.23	1166.5611	1171.743	1206.9234	1230.0687	1239.9566	1274.9183	1282.0551	1326.5736	1385.3774	1413.6569	1420.8395	1478.056	1491.2946	1492.5529	1495.993	1520.9984	1524.7833	3001.9702	3028.9949	3037.0315	3045.5042	3066.1293	3084.6929	3086.7336	3094.698	3108.6015	3109.546	3121.0973	3128.9973
CC12COC3(C)C1CC23	C[C@@]12CO[C@@]3(C)[C@@H]1C[C@@H]23	
InChI=1S/C8H12O/c1-7-4-9-8(2)5(7)3-6(7)8/h5-6H,3-4H2,1-2H3	InChI=1S/C8H12O/c1-7-4-9-8(2)5(7)3-6(7)8/h5-6H,3-4H2,1-2H3/t5-,6+,7-,8+
