20
gdb 124566	4.12719	0.89159	0.87324	2.9467	80.28	-0.2542	0.0147	0.269	1429.301	0.172502	-399.371811	-399.362711	-399.361767	-399.406898	33.117	
C	-0.0159860422	 1.5526175655	 0.0197431846	-0.396542
C	 0.0440830083	 0.0219606007	 0.0752524483	 0.055751
C	 0.7563385491	-0.4622769827	 1.3438733401	-0.391968
C	-1.3773031479	-0.57421866	-0.0434490122	-0.320688
C	-1.3856599774	-2.0609741013	-0.1930139656	 0.381664
N	-0.8169379894	-2.7616973004	-1.1627289547	-0.312059
C	-1.1126264363	-4.0484591458	-0.8314051217	 0.023068
N	-1.8238989996	-4.2006609219	 0.2728592042	-0.217384
N	-1.9864300916	-2.9132506728	 0.6670772976	-0.241417
H	 0.9883166631	 1.9851832936	 0.0674541125	 0.115617
H	-0.4887102134	 1.9024074227	-0.9039813811	 0.114178
H	-0.5899767156	 1.9562890846	 0.8628865602	 0.110317
H	 0.6084775584	-0.3380876881	-0.7933094026	 0.107126
H	 0.828446637	-1.5536177443	 1.3739345234	 0.126518
H	 1.7729650332	-0.0604583129	 1.3972171589	 0.117434
H	 0.2235274174	-0.1324648749	 2.2447865455	 0.105239
H	-1.9727581538	-0.2905913131	 0.8341333064	 0.094887
H	-1.8751950063	-0.137641338	-0.9171124668	 0.129422
H	-0.7964727307	-4.8963324427	-1.4207844521	 0.123305
H	-2.5047827223	-2.7082682482	 1.5056684649	 0.275533
28.8062	68.7196	114.3867	225.7934	249.6375	283.4575	315.7287	347.9806	416.3166	424.806	563.7255	698.6214	701.2385	785.9224	828.9353	884.5766	913.0975	933.4277	956.4374	969.0994	983.1584	1050.2181	1103.2281	1129.5305	1138.9203	1191.4476	1216.6568	1232.6075	1288.6666	1306.8908	1324.1016	1370.7966	1375.9925	1403.1941	1418.8742	1423.9967	1469.925	1487.135	1494.1192	1502.399	1506.4563	1509.7446	1584.5369	3021.733	3022.89	3026.0309	3041.4404	3067.9011	3088.4028	3095.8158	3102.9189	3108.9792	3259.4029	3660.9269
CC(C)CC1=NC=NN1	CC(C)Cc1ncn[nH]1	
InChI=1S/C6H11N3/c1-5(2)3-6-7-4-8-9-6/h4-5H,3H2,1-2H3,(H,7,8,9)	InChI=1S/C6H11N3/c1-5(2)3-6-7-4-8-9-6/h4-5H,3H2,1-2H3,(H,7,8,9)
