19
gdb 35974	3.0756	1.18781	0.92211	4.2384	76.27	-0.2384	0.0307	0.269	1253.3706	0.161596	-419.205953	-419.197517	-419.196573	-419.239221	31.753	
N	 0.0652193383	-1.1869154872	 0.0419783081	-0.322022
C	 0.038624026	-0.0322044129	 0.0145425783	 0.285339
C	-0.0076780023	 1.4407185728	 0.0191350086	-0.11973
C	-0.8075731228	 1.92886276	 1.2588226078	-0.238133
C	-1.3928039069	 3.3474665252	 1.0923497638	-0.089954
O	-0.6884163862	 4.1918607545	 0.2033490843	-0.240641
C	 0.7002644236	 4.3466022969	 0.4498099185	-0.083507
C	 1.5090906868	 3.3567550737	-0.3992866408	-0.162132
N	 1.3641831837	 1.9420589412	-0.073329311	-0.282961
H	-0.5323397816	 1.7554676546	-0.891453103	 0.142155
H	-1.6305457714	 1.2385670523	 1.4729929359	 0.128812
H	-0.1334925609	 1.877909441	 2.1213067304	 0.109862
H	-2.3992599909	 3.2841090171	 0.667500898	 0.120396
H	-1.4843125205	 3.8175608989	 2.0841489795	 0.099878
H	 0.9618850385	 5.3713138588	 0.1584199047	 0.110861
H	 0.9314169049	 4.2372580176	 1.5205095242	 0.088294
H	 1.2088638026	 3.5026942717	-1.4445285848	 0.12159
H	 2.5753582344	 3.6016053775	-0.3340181214	 0.107824
H	 1.8623083546	 1.7149033163	 0.7811212186	 0.22407
82.6903	118.1538	166.0501	208.5375	291.3774	324.083	345.0987	407.4229	520.1104	537.4596	557.7845	576.9062	731.3852	794.8555	842.4646	891.2016	910.9176	932.1581	1011.2923	1024.0189	1041.1305	1097.0524	1122.9783	1162.0098	1174.7571	1240.1565	1256.911	1283.7167	1302.0696	1326.0316	1362.1801	1372.6756	1387.7092	1395.4814	1418.617	1469.6967	1477.0453	1490.8621	1506.3987	1507.7381	2360.8887	2981.8446	2988.9791	3027.694	3037.4357	3048.2851	3056.5667	3070.078	3078.3701	3091.1637	3522.1336
N#CC1CCOCCN1	N#C[C@H]1CCOCCN1	
InChI=1S/C6H10N2O/c7-5-6-1-3-9-4-2-8-6/h6,8H,1-4H2	InChI=1S/C6H10N2O/c7-5-6-1-3-9-4-2-8-6/h6,8H,1-4H2/t6-/m1/s1
