20
gdb 79162	2.6216	1.84203	1.35073	1.6243	86.34	-0.1969	-0.0302	0.1667	1020.2954	0.170579	-365.89631	-365.888259	-365.887315	-365.928416	32.147	
C	-0.6080645466	 1.2441320031	 0.1923419034	-0.407446
C	-0.0732760216	-0.1675982188	-0.0729224929	-0.077831
C	 0.9739700066	-0.2822451645	-1.2041656998	-0.021553
C	 1.7351433904	-1.5073619984	-0.9786015304	-0.082773
N	 2.5280475093	-0.248586425	-1.0451201354	-0.161456
C	 3.0617836546	-0.5268444712	 0.3648009632	-0.168096
C	 1.8252872001	-1.4226654962	 0.548338907	-0.090902
C	 0.7649101299	-0.7508796985	 1.0719553301	 0.245662
C	 0.7657872311	-0.1813842429	 2.4561710043	-0.473805
H	 0.197770379	 1.9417235247	 0.4395358382	 0.125887
H	-1.1097935943	 1.6238453591	-0.7033341812	 0.119087
H	-1.3351380014	 1.2544221018	 1.0100947936	 0.119386
H	-0.9243944	-0.795000904	-0.3824476521	 0.090091
H	 0.7363073724	 0.0757582627	-2.2025760305	 0.094578
H	 1.9111865186	-2.3553242449	-1.6313682368	 0.089821
H	 4.0289231495	-1.0195761936	 0.2226727507	 0.113759
H	 3.1712920613	 0.3358292658	 1.0295208075	 0.106198
H	 1.6670414315	-0.4855041436	 2.9964266722	 0.12554
H	 0.6960445297	 0.912334229	 2.4750886256	 0.123702
H	-0.0939195402	-0.5536592147	 3.0301500233	 0.130152
110.0488	152.5661	220.9427	271.0789	286.2832	316.9972	416.138	478.0146	533.6657	561.05	604.2222	701.2243	754.3534	774.9033	794.0128	860.4318	904.5799	942.39	977.47	997.9392	1011.618	1032.495	1046.9694	1069.7441	1085.7359	1097.2691	1119.429	1132.2991	1189.2891	1226.6927	1247.8675	1271.0372	1286.454	1323.1829	1362.0836	1402.4775	1411.4931	1464.3474	1482.7468	1498.8068	1503.9024	1511.4326	1588.512	2968.6984	3012.6689	3035.5427	3036.9172	3058.8983	3093.7679	3103.5531	3107.8067	3111.5132	3152.1713	3169.8755
CC1C2C3N2CC3=C1C	C[C@H]1[C@@H]2[C@H]3N2C[C]3[C]1C	
InChI=1S/C8H11N/c1-4-5(2)7-8-6(4)3-9(7)8/h5,7-8H,3H2,1-2H3	InChI=1S/C8H11N/c1-4-5(2)7-8-6(4)3-9(7)8/h5,7-8H,3H2,1-2H3/t5-,7-,8+,9?/m1/s1
