19
gdb 56397	3.33394	0.71556	0.62638	0.7448	92.42	-0.2334	0.0371	0.2706	1821.3379	0.156857	-348.679989	-348.669924	-348.668979	-348.716797	36.25	
C	-0.0715649077	 1.6455477872	 0.308487875	-0.375564
C	-0.0452038613	 0.1219391187	 0.0249565262	-0.323754
C	 0.7452650225	-0.5865305786	 1.0392455387	 0.348125
C	 1.4094854788	-1.1423657508	 1.8716095629	-0.473404
C	-1.4041757046	-0.4219222632	-0.0788191764	 0.105641
C	-2.5287488522	-0.8456857355	-0.1671943756	 0.060668
C	-3.8656760851	-1.3551763451	-0.2705334548	-0.156071
C	-4.1694838618	-2.5351098812	-1.1809909744	-0.252392
C	-4.2117022178	-2.7189855462	 0.3068452623	-0.250899
H	 0.9480663258	 2.0373474952	 0.3440080731	 0.12544
H	-0.6271024833	 2.1599340672	-0.4794863603	 0.125404
H	-0.5573543946	 1.8431864217	 1.2664777593	 0.13695
H	 0.4564962437	-0.0222566324	-0.9434976021	 0.132397
H	 1.989307356	-1.6445931597	 2.6057342257	 0.196645
H	-4.6470360013	-0.6038673885	-0.1994067128	 0.108894
H	-5.1047045458	-2.5106975342	-1.7289202096	 0.117522
H	-3.3359749423	-2.9641588785	-1.7239953896	 0.12668
H	-3.4065591345	-3.2716928128	 0.7755994771	 0.129899
H	-5.1763536347	-2.8215895233	 0.7908347255	 0.11782
16.4241	65.7604	99.173	168.1502	187.2238	208.4444	236.3658	326.199	433.215	456.8528	510.2522	546.6337	573.7487	627.2228	640.2923	702.3764	789.3958	822.5321	829.4656	897.0783	909.5488	993.0196	1048.3428	1062.5147	1073.5559	1080.1084	1117.6637	1118.4483	1190.4709	1201.0028	1231.3014	1300.0649	1325.6744	1392.0243	1402.1135	1467.3961	1488.8381	1496.5581	1498.2571	2239.9451	2364.4796	2992.2747	3050.8038	3131.2381	3137.5966	3140.7942	3142.1909	3147.2044	3225.8256	3240.9449	3505.3095
CC(C#C)C#CC1CC1	C[C@@H](C#C)C#CC1CC1	
InChI=1S/C9H10/c1-3-8(2)4-5-9-6-7-9/h1,8-9H,6-7H2,2H3	InChI=1S/C9H10/c1-3-8(2)4-5-9-6-7-9/h1,8-9H,6-7H2,2H3/t8-/m0/s1
