17
gdb 79828	2.20423	1.98054	1.73443	0.6681	65.74	-0.2379	0.0645	0.3024	891.9545	0.136763	-458.923468	-458.916187	-458.915243	-458.954693	29.696	
O	 0.1429873884	 1.4362848966	 0.1082144724	-0.44582
C	 0.0429747864	 0.0420266439	-0.0377809415	 0.083017
C	-1.3247012264	-0.6273710142	 0.0454794896	-0.165308
C	-2.0156592094	-0.4583357523	-1.2902134541	 0.095995
O	-1.610263184	 0.6221998566	-2.1234590099	-0.283852
C	-0.2649987932	 0.3419732396	-2.5370854555	-0.148061
C	 0.2496833642	-0.6155745265	-1.4570076491	 0.321615
O	 1.4525710769	-1.2708281499	-1.7256160074	-0.497852
C	-0.9772075322	-1.5113487968	-1.1676707883	-0.158862
H	-0.5895635807	 1.8186672276	-0.3907678749	 0.29415
H	 0.7531513013	-0.4095577666	 0.6605459136	 0.097293
H	-1.8640722673	-0.8841356651	 0.9504256381	 0.090754
H	-3.0708754543	-0.6876552349	-1.3693168119	 0.111229
H	-0.2428813679	-0.133081016	-3.5276899082	 0.105474
H	 0.2874908115	 1.2865958373	-2.5708898188	 0.108706
H	 2.1665172383	-0.6269426596	-1.6576106689	 0.2873
H	-1.0718218019	-2.5743951998	-1.3364982953	 0.104221
161.9349	225.1465	268.228	282.9164	338.0144	390.775	499.6291	532.1354	560.1331	602.3938	685.7687	724.0591	770.4639	811.2689	844.0725	898.3273	932.7261	956.7226	1005.1269	1020.1055	1035.9547	1063.703	1073.4298	1107.9383	1128.2901	1170.606	1193.8872	1209.245	1226.6932	1257.7303	1294.0339	1311.1446	1349.9429	1382.1993	1419.6501	1434.2074	1509.2228	3009.5921	3080.9519	3081.6293	3172.7027	3199.3483	3222.8237	3785.1612	3802.0721
OC1C2C3OCC1(O)C23	O[C@H]1[C@H]2[C@H]3OC[C@]1(O)[C@@H]23	
InChI=1S/C6H8O3/c7-5-2-3-4(2)9-1-6(3,5)8/h2-5,7-8H,1H2	InChI=1S/C6H8O3/c7-5-2-3-4(2)9-1-6(3,5)8/h2-5,7-8H,1H2/t2-,3+,4-,5+,6+/m1/s1
