16
gdb 34744	3.02513	1.70689	1.51606	0.8769	72.94	-0.2337	0.0255	0.2591	913.1506	0.125273	-400.657109	-400.65019	-400.649246	-400.68828	27.732	
C	-0.2223420713	-1.2697469942	-0.3145266156	-0.431324
C	-0.1053724878	-0.0857185042	-0.1396707828	 0.355326
C	 0.0181710466	 1.3452450572	 0.050378844	-0.208243
C	-0.2449953695	 1.9873452232	 1.4540178877	 0.074074
O	 0.0857338931	 1.1115975252	 2.5075647387	-0.254094
C	 1.4710808761	 0.7728454626	 2.3370194323	-0.112966
C	 2.017036029	 1.8072224267	 1.3649333462	-0.047576
C	 1.0014409351	 2.8511769195	 1.1636819224	-0.079643
N	 1.4048839051	 1.9623713743	 0.0091718279	-0.157612
H	-0.3244970162	-2.3161782783	-0.4642488882	 0.200323
H	-0.5621976623	 1.8720081518	-0.7146357918	 0.114902
H	-1.2201904066	 2.4312074748	 1.6468895003	 0.096152
H	 1.9749816748	 0.8439117202	 3.3078811169	 0.112412
H	 1.5660214778	-0.2514346071	 1.9619162324	 0.126219
H	 3.0755069811	 2.039726241	 1.3690795628	 0.108903
H	 1.1284205251	 3.9257232673	 1.1696323067	 0.103146
138.4178	141.4568	266.9295	355.6682	380.715	538.5351	580.0976	621.2144	657.3774	667.9191	693.2895	794.2279	798.4369	841.0748	855.6878	900.5061	940.9066	963.908	987.4006	1040.5248	1049.6663	1064.5314	1082.0551	1113.3672	1183.8522	1207.5454	1225.7367	1250.6603	1269.8485	1322.8828	1343.8857	1366.7253	1404.4178	1512.7175	2230.6179	3035.7557	3051.2678	3078.301	3136.2805	3187.0972	3204.2925	3502.7558
C#CC1C2OCC3C2N13	C#C[C@H]1[C@H]2OC[C@@H]3[C@H]2N13	
InChI=1S/C7H7NO/c1-2-4-7-6-5(3-9-7)8(4)6/h1,4-7H,3H2	InChI=1S/C7H7NO/c1-2-4-7-6-5(3-9-7)8(4)6/h1,4-7H,3H2/t4-,5+,6+,7+,8?/m0/s1
