21
gdb 93097	2.20617	1.62636	1.40333	1.7815	78.83	-0.2446	0.0236	0.2682	1068.9516	0.181933	-424.244781	-424.235611	-424.234667	-424.277681	36.395	
C	 0.0181487873	 1.5518125675	-0.0088798066	-0.447503
C	 0.0074012158	 0.0229988215	-0.0073487053	 0.349333
O	-1.3359085138	-0.4675613693	 0.0714972131	-0.473664
C	 0.7129437034	-0.541665817	-1.2595424322	-0.289183
C	 1.0841888179	-1.9968954364	-1.1377014087	-0.054869
C	 1.0279813475	-2.6794776204	 0.0066616321	-0.067147
C	 0.574046948	-2.0634928304	 1.3053451076	-0.284954
C	 0.6909616276	-0.5359556997	 1.2622933879	 0.108585
O	 2.0493948021	-0.1125295121	 1.325954054	-0.44766
H	 1.035844341	 1.928468396	 0.1157736193	 0.136267
H	-0.3848118405	 1.9460166422	-0.9501535142	 0.096606
H	-0.59829419	 1.9292347092	 0.8126013005	 0.118233
H	-1.8358053562	-0.0779589586	-0.6531572886	 0.276105
H	 0.055232039	-0.3932138797	-2.1276958884	 0.094249
H	 1.6112413763	 0.0535731715	-1.4762878601	 0.110574
H	 1.4216162906	-2.4908961609	-2.0460912218	 0.084666
H	 1.3073660909	-3.7300587323	 0.0216510961	 0.086175
H	-0.4662750718	-2.3440571704	 1.5075167502	 0.133308
H	 1.1740317397	-2.4388273851	 2.1427493001	 0.102388
H	 0.2013732135	-0.0989402755	 2.1385993165	 0.084652
H	 2.5563296719	-0.7003739302	 0.7537625384	 0.283838
127.8967	154.8678	232.329	239.533	250.3752	304.6076	339.8047	361.5967	367.5378	404.4922	444.2247	490.2853	540.6811	594.0363	677.5244	709.0773	858.744	884.1854	902.295	915.4291	928.4187	972.5505	1003.1044	1007.4821	1047.7249	1083.6286	1104.1326	1130.8609	1164.1489	1199.4622	1220.3283	1245.4452	1286.601	1325.2914	1355.5667	1364.3164	1394.5676	1405.8011	1413.6985	1423.8482	1459.6878	1462.6645	1487.9318	1500.395	1718.2945	3003.0075	3026.1631	3027.4583	3033.1927	3061.147	3069.1915	3095.6964	3131.5912	3141.4397	3165.5347	3789.0864	3810.3456
CC1(O)CC=CCC1O	C[C@@]1(O)CC=CC[C@H]1O	
InChI=1S/C7H12O2/c1-7(9)5-3-2-4-6(7)8/h2-3,6,8-9H,4-5H2,1H3	InChI=1S/C7H12O2/c1-7(9)5-3-2-4-6(7)8/h2-3,6,8-9H,4-5H2,1H3/t6-,7-/m1/s1
