15
gdb 47709	2.23077	1.77134	1.10986	3.8579	62.58	-0.2581	-0.0412	0.2168	1045.6467	0.112282	-494.938738	-494.930893	-494.929949	-494.972007	28.363	
O	 0.1885914605	 0.7945012034	-1.2443508222	-0.282631
C	-0.0339658664	 1.2542157428	-0.1548628942	 0.363961
C	-1.4406208743	 1.6944338258	 0.2575185608	-0.192168
O	-1.473599877	 2.0903451672	 1.6170258646	-0.220164
C	-1.0515031821	 3.3922517461	 1.8479359964	 0.011044
O	 0.2430171926	 3.7373192664	 1.3434070877	-0.238618
C	 1.3130810674	 2.8961617993	 1.2386700377	 0.401695
O	 2.4188812612	 3.3483642538	 1.2981478064	-0.289593
C	 1.0349723123	 1.4292330651	 0.9205211709	-0.423636
H	-1.7863687173	 2.4924318426	-0.4150598218	 0.141013
H	-2.1191565383	 0.8436911235	 0.1485747882	 0.154837
H	-1.7153646246	 4.1247650662	 1.3697173919	 0.123315
H	-1.055975361	 3.524274846	 2.9338367917	 0.135965
H	 0.6910337369	 0.9352799356	 1.8359278783	 0.158165
H	 1.97014018	 0.9819608563	 0.5875876736	 0.156815
58.3016	99.0401	122.8981	297.7386	327.9272	384.791	445.4121	494.5977	511.0061	538.751	650.1835	720.7548	764.7574	819.5728	913.2338	978.69	1025.4579	1041.0289	1069.9496	1144.7426	1173.5306	1212.5902	1240.1977	1276.9018	1279.8317	1320.7047	1352.7098	1440.9415	1450.7352	1468.1865	1517.3873	1832.1045	1858.6502	3015.8485	3018.9501	3061.9189	3093.9774	3101.8085	3160.3512
O=C1COCOC(=O)C1	O=C1COCOC(=O)C1	
InChI=1S/C5H6O4/c6-4-1-5(7)9-3-8-2-4/h1-3H2	InChI=1S/C5H6O4/c6-4-1-5(7)9-3-8-2-4/h1-3H2
