17
gdb 55543	3.92922	0.94289	0.80493	5.3959	72.35	-0.2478	-0.015	0.2328	1419.5581	0.134493	-455.180427	-455.170952	-455.170008	-455.216363	32.55	
C	-0.1203779954	 1.4363644745	 0.1724224758	-0.501837
C	 0.1003233167	-0.0482350169	-0.0785558039	 0.414136
O	 1.1126441766	-0.5040732595	-0.5426260317	-0.296677
N	-1.0094601592	-0.8220325963	 0.2861750867	-0.392932
C	-1.1249297749	-2.2139365518	 0.2592326502	 0.458435
O	-0.2397900013	-2.9881942773	 0.00985146	-0.322654
N	-2.4420837885	-2.5827887485	 0.640046975	-0.158093
C	-3.4745531832	-2.6732352383	-0.4064387481	-0.240034
C	-2.9060741924	-3.8952929542	 0.2283301924	-0.207951
H	 0.7627066831	 1.9797225483	-0.1608749958	 0.158068
H	-0.9984093941	 1.8015371742	-0.3711438789	 0.139081
H	-0.2840755716	 1.6289244173	 1.2381870073	 0.145349
H	-1.8158365194	-0.3384241547	 0.6515551997	 0.258821
H	-4.4575725992	-2.3067502934	-0.1257672739	 0.127656
H	-3.1719024304	-2.4540345001	-1.4272732018	 0.138468
H	-2.2084033122	-4.4912417792	-0.3519378086	 0.15203
H	-3.4814223345	-4.4337013741	 0.9747462655	 0.128133
47.1501	55.4909	89.5074	105.4106	147.9954	235.6898	283.56	352.1734	409.9979	570.8273	573.1024	635.8617	642.0261	783.2643	821.9469	842.0274	908.68	938.1264	984.4218	1038.1971	1047.2156	1051.9896	1116.6585	1138.3599	1171.8072	1179.5675	1184.9443	1224.0977	1338.1567	1386.0275	1466.2904	1482.9055	1492.6874	1500.2995	1521.3116	1807.2053	1865.4894	3041.0747	3103.5706	3111.085	3126.8125	3167.6171	3199.1665	3220.9364	3625.0082
CC(=O)NC(=O)N1CC1	CC(=O)NC(=O)N1CC1	
InChI=1S/C5H8N2O2/c1-4(8)6-5(9)7-2-3-7/h2-3H2,1H3,(H,6,8,9)	InChI=1S/C5H8N2O2/c1-4(8)6-5(9)7-2-3-7/h2-3H2,1H3,(H,6,8,9)
