19
gdb 55632	2.29682	1.18985	1.07242	3.5412	77.26	-0.2541	-0.0273	0.2268	1267.8325	0.154356	-423.018484	-423.008066	-423.007121	-423.05406	38.178	
C	-1.1164658088	 0.8431219081	-3.0186259642	-0.47739
C	-1.2989002799	-0.4156840122	-2.2009864331	 0.40442
O	-2.3017146284	-1.0946712098	-2.2975251216	-0.314905
C	-0.171028254	-0.774451615	-1.2395838588	-0.335899
C	-0.0574200764	-2.2919385511	-0.9396034564	 0.164674
C	 1.0356920046	-2.5470407466	 0.1064830324	-0.401519
O	-1.2664678174	-2.7743436943	-0.3775642379	-0.448005
C	 0.2726840817	-3.0068119315	-2.1901220651	 0.356456
C	 0.5465800586	-3.580074266	-3.2106705309	-0.515552
H	-0.8033449994	 1.6779257897	-2.3820918873	 0.141001
H	-0.3140405909	 0.6828153339	-3.7487699129	 0.153567
H	-2.0402516784	 1.0914125609	-3.5420958889	 0.146891
H	 0.7791153529	-0.3823358877	-1.6161503419	 0.118013
H	-0.3808365217	-0.2550914516	-0.2940065145	 0.137182
H	 0.7855014448	-2.0169482363	 1.0297134016	 0.120146
H	 1.0881274927	-3.616340248	 0.3218141877	 0.13858
H	 2.0115045013	-2.2107965469	-0.2528303556	 0.118427
H	-1.9668633049	-2.5106617604	-0.9958038101	 0.295936
H	 0.7749378235	-4.1010436851	-4.1076808726	 0.197977
38.9917	92.5889	146.9494	168.4829	190.4912	217.817	232.057	319.4125	327.9164	404.7364	410.2239	489.2922	546.265	565.5431	619.4329	638.6936	648.4971	661.2745	742.4925	814.2164	860.0682	939.3339	951.7169	979.6749	1028.4997	1085.3397	1152.6505	1189.4392	1193.3257	1269.554	1346.9148	1384.4017	1400.8181	1434.2001	1445.4923	1460.6273	1474.4233	1478.6681	1492.9206	1790.5684	2228.0693	3023.7506	3035.569	3049.0447	3084.2297	3096.6115	3127.6448	3138.0935	3154.7982	3500.4164	3682.2825
CC(=O)CC(C)(O)C#C	CC(=O)C[C@@](C)(O)C#C	
InChI=1S/C7H10O2/c1-4-7(3,9)5-6(2)8/h1,9H,5H2,2-3H3	InChI=1S/C7H10O2/c1-4-7(3,9)5-6(2)8/h1,9H,5H2,2-3H3/t7-/m0/s1
