18
gdb 116431	2.56388	1.48068	1.08564	4.3198	68.52	-0.2432	0.0016	0.2447	1128.9131	0.14927	-476.241382	-476.23303	-476.232086	-476.274839	31.093	
O	 0.2320669281	 1.4179229487	 0.2553340245	-0.419137
C	 0.0508724914	 0.021612415	 0.2527385295	-0.076778
C	-1.4200928805	-0.4086983904	 0.1112739223	-0.128053
N	-2.1837794917	-0.1871208591	 1.3332012187	-0.30394
C	-3.5797251839	-0.5397397894	 1.1304266121	-0.186096
C	-4.1533881684	 0.4590226807	 0.1434133119	-0.044817
O	-3.3759713898	 0.556964012	-1.0669443447	-0.233739
C	-2.0510282123	 0.3244697439	-1.0754531633	 0.458112
O	-1.4024027692	 0.6443996591	-2.0405034202	-0.34861
H	 0.055507502	 1.710742491	-0.6470779681	 0.298693
H	 0.6291853983	-0.463142338	-0.5445315121	 0.106373
H	 0.4295947707	-0.3499476456	 1.2121997146	 0.10128
H	-1.4252738356	-1.4781296534	-0.1910991679	 0.086991
H	-1.7766048851	-0.7209833276	 2.0929871839	 0.227326
H	-3.7201660269	-1.5686131102	 0.747765227	 0.091697
H	-4.1277586284	-0.4559077365	 2.0741140804	 0.116685
H	-5.1607930101	 0.1821790562	-0.1765224059	 0.122502
H	-4.1810967087	 1.4558291536	 0.5955531573	 0.131511
63.222	105.0398	149.0941	218.1893	291.4484	337.7021	408.1025	466.0703	487.245	513.2306	571.8035	649.3561	688.6743	773.9733	856.6706	906.4352	917.0833	956.8894	1015.2547	1049.0386	1107.9181	1111.8327	1144.5087	1156.5342	1209.8235	1243.8987	1261.6674	1273.9069	1330.5574	1336.4869	1405.3464	1410.9732	1425.1379	1443.0949	1478.4743	1491.8346	1496.3648	1507.4543	1816.8953	2870.3505	2924.2068	3017.5139	3052.942	3067.03	3081.2358	3112.1053	3529.8639	3789.5723
OCC1NCCOC1=O	OC[C@H]1NCCOC1=O	
InChI=1S/C5H9NO3/c7-3-4-5(8)9-2-1-6-4/h4,6-7H,1-3H2	InChI=1S/C5H9NO3/c7-3-4-5(8)9-2-1-6-4/h4,6-7H,1-3H2/t4-/m1/s1
