23
gdb 68235	2.64882	1.7822	1.56732	0.0382	88.14	-0.2705	0.0919	0.3625	1007.4292	0.210137	-351.109036	-351.101981	-351.101037	-351.139808	31.35	
C	-0.0638199329	 1.5323777055	 0.0095825793	-0.499953
C	 0.0491578147	 0.0198224647	 0.0024987221	 0.35655
C	 0.9812824541	-0.6971251791	-1.0294413754	-0.249034
C	 0.9575852467	-1.8607074376	 0.0081735162	-0.034755
C	 0.9418877301	-0.7098481433	 1.0600336918	-0.249017
C	-0.4646199116	-2.5675011091	-0.022881191	-0.015076
C	-1.3629491666	-1.8554822233	-1.0808015639	-0.217726
C	-1.3766077535	-0.7030654886	-0.0287155328	-0.062242
C	-1.4021939824	-1.8681395888	 1.0091105988	-0.21771
H	 0.9245425416	 2.003964062	 0.0310001478	 0.107166
H	-0.5897861515	 1.8950318005	-0.8818092873	 0.112926
H	-0.6229384967	 1.8842757412	 0.8849640433	 0.112926
H	 0.6567815554	-0.8558759449	-2.0561680882	 0.08789
H	 1.9639272573	-0.217201029	-1.0535275362	 0.083156
H	 1.7762574059	-2.5826160668	 0.0192128674	 0.055081
H	 1.9228163319	-0.2304811751	 1.1269950387	 0.083145
H	 0.5789301718	-0.88102015	 2.0717847964	 0.087894
H	-0.384732401	-3.6564845625	-0.0279765345	 0.05389
H	-1.0021625243	-1.6837480126	-2.0927323346	 0.089589
H	-2.3435017907	-2.3345566431	-1.1442674085	 0.086954
H	-2.1923336623	 0.0240276831	-0.0396285604	 0.051811
H	-2.3843289285	-2.3477235793	 1.0299243056	 0.086942
H	-1.0796712675	-1.708744154	 2.0358744354	 0.089593
190.8187	231.2446	293.0757	353.8502	444.5184	494.8555	514.8219	574.3132	597.1468	622.7606	750.3142	786.5785	819.2461	836.4896	854.8581	858.614	863.092	892.9949	916.2852	965.6097	988.5822	1023.0676	1032.5776	1040.4888	1041.1343	1048.8965	1082.3933	1096.1241	1105.8104	1129.3154	1138.6799	1197.0974	1205.3687	1233.9304	1240.1771	1241.4779	1243.9921	1258.3012	1272.0365	1313.8785	1329.2928	1358.8061	1409.469	1481.3224	1491.084	1492.0162	1523.681	1541.9762	1579.8092	3017.0689	3057.484	3064.6188	3066.4617	3067.4404	3076.3462	3079.3171	3082.1191	3091.3378	3096.3994	3118.3415	3123.1249	3148.3295	3148.6959
CC12CC(C1)C1CC2C1	C[C@@]12C[C@@H](C1)[C@@H]1C[C@H]2C1	
InChI=1S/C9H14/c1-9-4-7(5-9)6-2-8(9)3-6/h6-8H,2-5H2,1H3	InChI=1S/C9H14/c1-9-4-7(5-9)6-2-8(9)3-6/h6-8H,2-5H2,1H3/t6-,7-,8+,9+
