20
gdb 118363	2.80277	0.88291	0.73068	2.2059	75.93	-0.25	-0.0418	0.2082	1559.5578	0.168899	-440.249908	-440.239736	-440.238791	-440.286379	35.518	
O	-0.1752552948	 1.5230453337	 0.0852710024	-0.416373
C	-0.0059204335	 0.1235232408	-0.0501808015	-0.084499
C	-1.3819052105	-0.5227623147	 0.0626378393	-0.197613
C	-1.3352611724	-2.0545370992	-0.0493008193	-0.092099
C	-0.6166986118	-2.6613301546	 1.1484867256	 0.128128
O	-0.0095398618	-3.7015912018	 1.1303994264	-0.24971
C	-2.7413778331	-2.6460744203	-0.1886052426	 0.003116
C	-3.0129095882	-4.0907327559	-0.0078566062	-0.254604
N	-3.539248726	-3.1104589247	 0.9618263262	-0.322688
H	 0.6858102781	 1.9429344321	 0.001430114	 0.289476
H	 0.4436893658	-0.1374500903	-1.0225613446	 0.092498
H	 0.6663815345	-0.2742895282	 0.729613865	 0.08983
H	-1.835615987	-0.2296786364	 1.0178302085	 0.117207
H	-2.0247586316	-0.1130253946	-0.723180484	 0.116237
H	-0.7676614685	-2.3495073014	-0.9418886848	 0.106149
H	-0.7069637644	-2.0726757401	 2.0924256693	 0.086368
H	-3.3423258997	-2.1074211119	-0.9195142186	 0.098475
H	-3.7678165993	-4.5774647282	-0.6186085791	 0.120288
H	-2.18403048	-4.7256664748	 0.291867876	 0.137887
H	-2.9798408357	-3.1325168895	 1.8113195278	 0.231928
49.2484	68.8261	87.9103	104.075	148.8649	241.8352	263.0577	272.078	329.7969	344.5045	423.8078	519.8074	601.3437	771.8591	786.848	829.2439	910.6822	950.4266	957.4297	990.1072	1015.6732	1064.0785	1069.4827	1097.5221	1116.9068	1138.8047	1156.5443	1194.2039	1217.5505	1239.324	1251.9637	1292.994	1300.2809	1306.3184	1328.2833	1360.0466	1398.1456	1431.1648	1467.0242	1493.3069	1514.0785	1524.7647	1823.4823	2846.7774	2950.9115	2978.4862	3024.8694	3038.549	3084.4798	3114.3822	3118.6412	3204.0682	3492.8119	3830.3248
OCCC(C=O)C1CN1	OCC[C@@H](C=O)[C@H]1CN1	
InChI=1S/C6H11NO2/c8-2-1-5(4-9)6-3-7-6/h4-8H,1-3H2	InChI=1S/C6H11NO2/c8-2-1-5(4-9)6-3-7-6/h4-8H,1-3H2/t5-,6+/m0/s1
