17
gdb 84547	3.77967	1.33843	1.08411	2.9473	74.13	-0.2474	-0.0156	0.2318	1103.8348	0.137308	-418.035398	-418.027786	-418.026842	-418.06785	28.844	
C	-0.0997251098	 1.5448743533	-0.0137917967	-0.392393
C	 0.0447522005	 0.025168888	-0.0389535466	 0.023753
N	 0.8948397358	-0.40864492	-1.1768790961	-0.213179
C	 1.8152089707	-1.164994126	-0.7369115182	 0.016375
N	 1.8531319852	-1.3650488279	 0.6661362134	-0.139276
C	 0.7364183367	-0.5498720994	 1.2276901401	 0.009505
C	 0.2102475597	-1.810174379	 1.9675670407	-0.405886
C	 1.370716749	-2.5655269741	 1.2915107294	 0.404948
O	 1.7591525336	-3.6900134905	 1.2263707474	-0.303281
H	 0.8754445963	 2.0229692005	 0.1252350715	 0.124501
H	-0.5225281681	 1.9037853306	-0.955094671	 0.134687
H	-0.7562731137	 1.8566134509	 0.8051758961	 0.116409
H	-0.9472589277	-0.4206168898	-0.1948803577	 0.093214
H	 2.5470385183	-1.6626328362	-1.3638614273	 0.150045
H	 1.0973116	 0.2406240147	 1.890637943	 0.095511
H	 0.2306815841	-1.7931916811	 3.0592443122	 0.140779
H	-0.7662860506	-2.168767214	 1.6311985697	 0.144287
64.3506	134.8407	233.2064	263.0936	299.6593	353.009	472.3592	524.6733	575.4216	644.102	725.7189	740.9699	808.6065	845.295	901.8038	944.3208	974.3146	1016.4048	1030.6031	1069.9812	1079.0728	1097.0522	1131.0561	1169.4944	1180.7934	1224.071	1261.3082	1287.0472	1316.9393	1332.0362	1380.8304	1408.5392	1449.124	1488.697	1497.7654	1674.6462	1906.099	3009.5123	3037.5522	3071.2683	3074.2305	3106.966	3127.3521	3130.5972	3206.3212
CC1N=CN2C1CC2=O	C[C@H]1N=CN2[C@@H]1CC2=O	
InChI=1S/C6H8N2O/c1-4-5-2-6(9)8(5)3-7-4/h3-5H,2H2,1H3	InChI=1S/C6H8N2O/c1-4-5-2-6(9)8(5)3-7-4/h3-5H,2H2,1H3/t4-,5-/m1/s1
