16
gdb 15753	5.21043	1.03326	0.98282	3.0445	67.97	-0.2475	-0.0373	0.2102	1197.322	0.12838	-383.755749	-383.747388	-383.746444	-383.790469	28.895	
O	 0.7180209658	-0.2377444236	-0.1426537338	-0.233824
C	 0.3562333375	 0.8772776906	-0.407621317	 0.162846
C	 1.0833311717	 2.1354235329	 0.0500453661	-0.381379
C	 1.1397067711	 3.1705275747	-1.073700643	 0.368818
O	 0.1184086761	 3.4980901441	-1.6449527883	-0.339693
C	 2.4689238845	 3.7263221962	-1.437771034	-0.113085
C	 2.7012575007	 4.0586076911	-2.9099629749	-0.243956
C	 2.5049880027	 5.1663464364	-1.9396293316	-0.246339
H	-0.5498877124	 1.0810556115	-1.0140338506	 0.110128
H	 0.4725113504	 2.5757588463	 0.8504087929	 0.15863
H	 2.0584657102	 1.8682254444	 0.4604917706	 0.127763
H	 3.3188900519	 3.3740196027	-0.8662126884	 0.096215
H	 3.6934732946	 3.8677404091	-3.3015890191	 0.124788
H	 1.877987315	 3.8224236603	-3.5739685542	 0.14283
H	 1.5491366117	 5.6771548711	-1.9503238951	 0.142474
H	 3.3575074886	 5.7654964022	-1.6419198496	 0.123783
25.771	53.3523	105.1217	192.596	253.717	277.2133	354.2096	468.8119	592.1931	698.8874	760.7937	799.1416	823.9757	838.2081	875.7582	921.2364	1010.9004	1050.5596	1061.1284	1097.3421	1100.7211	1117.8517	1124.9682	1192.0246	1211.7806	1223.4246	1285.5314	1405.018	1405.5294	1441.3332	1453.6846	1484.4423	1769.0037	1837.6068	2932.716	3029.7463	3125.6753	3143.0341	3144.7393	3185.2234	3231.3185	3245.9061
O=CCC(=O)C1CC1	O=CCC(=O)C1CC1	
InChI=1S/C6H8O2/c7-4-3-6(8)5-1-2-5/h4-5H,1-3H2	InChI=1S/C6H8O2/c7-4-3-6(8)5-1-2-5/h4-5H,1-3H2
