21
gdb 52548	3.64315	0.65863	0.60531	3.3067	90.83	-0.2524	-0.0444	0.2081	1948.9906	0.178418	-387.09735	-387.085963	-387.085018	-387.136475	38.986	
C	 0.1131654313	 1.4829504	-0.0697634652	-0.504572
C	 0.0288213526	 0.0327735854	-0.051415455	 0.161842
C	-0.0617526965	-1.1708193482	-0.0331879501	-0.0198
C	-0.1530104913	-2.6185573187	-0.0150759808	 0.199495
O	-1.2233065968	-3.1878186807	 0.0568691128	-0.299934
C	 1.1813414571	-3.3500476	-0.0669337596	-0.293921
C	 1.0731904211	-4.8764601587	-0.1868903532	 0.049947
C	 0.561282672	-5.2968036707	-1.5717300187	-0.389337
C	 2.421193132	-5.537077103	 0.1291874261	-0.40362
H	 1.1202577944	 1.8248179004	-0.3298502927	 0.156616
H	-0.5891659427	 1.9055238775	-0.7962834589	 0.163281
H	-0.1402186172	 1.8959404999	 0.9128571009	 0.163425
H	 1.7735502095	-2.9259780114	-0.8898543966	 0.119787
H	 1.7237943919	-3.0669004462	 0.8471362245	 0.124236
H	 0.3386962832	-5.2077787936	 0.5567730793	 0.093631
H	 0.4648871802	-6.3855026365	-1.6362545804	 0.109415
H	-0.4174733266	-4.8586808318	-1.7792893877	 0.135058
H	 1.2570738154	-4.9794190323	-2.358590605	 0.103412
H	 2.7702183246	-5.2799288455	 1.1352380963	 0.10816
H	 2.3449875179	-6.6276600349	 0.0696108628	 0.113004
H	 3.194279908	-5.221349091	-0.582043649	 0.109873
14.4791	35.5225	70.1253	94.1884	148.1517	187.5076	229.8961	259.9476	281.7057	338.4389	356.3834	379.8565	419.0715	445.0149	577.2022	582.7129	779.8367	837.8082	893.4876	930.202	949.7503	970.9083	1000.3525	1044.422	1054.6539	1113.9879	1133.5923	1192.1236	1201.5421	1244.7265	1316.1116	1361.3634	1386.9097	1399.3201	1410.0351	1419.9972	1443.2091	1470.2878	1474.1023	1488.8763	1493.8133	1505.4535	1515.108	1756.8104	2338.4623	3008.7898	3021.4921	3026.1726	3032.0305	3034.0806	3047.5045	3085.6165	3092.7618	3095.3924	3098.7717	3098.933	3127.4382
CC#CC(=O)CC(C)C	CC#CC(=O)CC(C)C	
InChI=1S/C8H12O/c1-4-5-8(9)6-7(2)3/h7H,6H2,1-3H3	InChI=1S/C8H12O/c1-4-5-8(9)6-7(2)3/h7H,6H2,1-3H3
