19
gdb 77829	2.50678	1.49975	1.32908	3.9261	76.25	-0.2316	0.0195	0.2511	1071.0236	0.159525	-419.225561	-419.216798	-419.215854	-419.258588	33.151	
C	-0.1956360283	 1.4980461104	 0.0013429566	-0.328347
N	 0.0624706324	 0.0668714109	 0.0949002373	-0.124633
C	 1.3760361666	-0.5160731423	-0.1928459835	-0.210723
C	 2.5842455251	 0.3953211524	-0.1546334289	 0.410669
O	 3.3627958838	 0.6271835002	-1.0536430192	-0.381311
N	 2.6337752372	 0.9211446425	 1.1131175093	-0.311711
C	 1.6742272992	 0.3745670294	 2.053558366	-0.240857
C	 0.7929568412	-0.5408781618	 1.1921354341	 0.315835
C	 0.1736703516	-1.7476262355	 1.8514205919	-0.473586
H	 0.6165085006	 2.1477334262	 0.3543059057	 0.117108
H	-0.3974265616	 1.7432468712	-1.0452177062	 0.136133
H	-1.0975835738	 1.7217987682	 0.5796986888	 0.123469
H	 1.4006094529	-1.3549627867	-0.880759478	 0.106078
H	 3.3444908609	 1.5904397598	 1.3628479648	 0.251905
H	 2.1653239147	-0.2104110336	 2.8419810425	 0.115158
H	 1.0872879173	 1.1634447155	 2.5432135985	 0.114186
H	-0.5014064813	-1.4468417587	 2.6614218279	 0.12211
H	-0.4095640538	-2.3137835037	 1.1222411784	 0.137362
H	 0.9402234451	-2.4028337044	 2.278549614	 0.121156
103.1936	162.0512	190.024	204.3262	228.0696	250.8001	304.4221	421.7383	438.8844	491.3869	520.0588	558.5743	672.8561	696.9056	765.6315	799.369	906.0151	928.7093	961.7415	984.3365	1057.9637	1076.498	1119.4873	1148.6833	1157.3262	1169.0142	1217.3568	1225.2533	1268.7483	1299.0087	1334.8535	1402.7356	1425.1884	1441.5517	1462.3589	1487.238	1489.4426	1494.7226	1503.2643	1524.8671	1826.9064	3005.5583	3009.2109	3030.7903	3036.5726	3079.4194	3091.1685	3110.2267	3131.5059	3167.892	3639.5281
CN1C2C(=O)NCC12C	CN1[C@H]2C(=O)NC[C@@]12C	
InChI=1S/C6H10N2O/c1-6-3-7-5(9)4(6)8(6)2/h4H,3H2,1-2H3,(H,7,9)	InChI=1S/C6H10N2O/c1-6-3-7-5(9)4(6)8(6)2/h4H,3H2,1-2H3,(H,7,9)/t4-,6+,8?/m0/s1
