22
gdb 96255	2.40031	1.48154	1.02807	2.2173	82.87	-0.2485	0.0093	0.2578	1226.1101	0.195812	-404.355724	-404.346958	-404.346014	-404.388844	34.063	
C	 0.038746655	 1.5734540947	 0.0268845845	-0.399617
C	 0.0039826976	 0.0360868066	 0.0089444669	 0.050068
C	 0.5835555305	-0.4848406544	-1.3296170264	-0.213647
C	-0.057530005	-1.7682416447	-1.8609679328	-0.090524
O	-0.1289937606	-2.8068761918	-0.8776748555	-0.222058
C	 1.0848098775	-3.1565827728	-0.3487696377	 0.091074
N	 1.4757870592	-2.8455743743	 0.8054883859	-0.208779
C	 0.5954550918	-1.9915259731	 1.6109098986	-0.168201
C	 0.72359843	-0.4942931218	 1.2717110808	-0.181836
H	 1.0680843909	 1.9437513477	-0.0508980173	 0.115576
H	-0.528005825	 1.992416874	-0.8111771764	 0.108685
H	-0.3870653584	 1.972293617	 0.953283686	 0.111772
H	-1.0485153536	-0.2753456151	 0.0679052025	 0.076568
H	 0.4446066281	 0.2728920544	-2.111100696	 0.094958
H	 1.66763513	-0.6210518172	-1.23324223	 0.109988
H	-1.0976506603	-1.5913609499	-2.1493365614	 0.117463
H	 0.4844842539	-2.1254733803	-2.7500067841	 0.098666
H	 1.7133875053	-3.7628040842	-1.0072731453	 0.106473
H	-0.453334256	-2.2989651708	 1.5190675244	 0.108333
H	 0.8929515675	-2.1294826951	 2.6547472837	 0.09817
H	 1.789968114	-0.2380495935	 1.2131049003	 0.102748
H	 0.3251673177	 0.0588304944	 2.1314207292	 0.094121
91.4595	169.4498	192.8693	234.5191	244.6258	289.5954	320.7066	349.0692	413.6025	463.2893	514.892	607.8366	704.8877	762.5729	839.3619	854.149	871.3938	948.9476	956.9752	991.4826	996.7523	1006.8609	1038.4167	1061.5992	1093.4633	1126.912	1154.9868	1164.3916	1223.6266	1274.4163	1278.7799	1306.078	1328.5273	1341.5519	1371.6834	1383.6735	1391.4938	1396.7617	1410.3356	1418.2342	1470.1987	1484.7885	1498.3837	1499.2203	1499.8729	1502.0281	1749.0909	2991.7301	3002.9024	3015.1929	3022.614	3026.9166	3029.3865	3055.6635	3060.0879	3076.5901	3089.8782	3092.1922	3095.0907	3099.4863
CC1CCOC=NCC1	C[C@H]1CCOC=NCC1	
InChI=1S/C7H13NO/c1-7-2-4-8-6-9-5-3-7/h6-7H,2-5H2,1H3/b8-6-	InChI=1S/C7H13NO/c1-7-2-4-8-6-9-5-3-7/h6-7H,2-5H2,1H3/b8-6-/t7-/m1/s1
