12
gdb 33282	3.385	0.84477	0.70751	4.595	81.53	-0.2853	-0.0661	0.2192	1481.1982	0.074873	-398.263248	-398.254767	-398.253823	-398.297042	30.01	
C	 0.0238606045	-1.1726356471	-0.0348514105	-0.43196
C	 0.003686239	 0.0268298829	 0.0135325095	 0.263194
C	-0.0420550825	 1.4668746575	 0.0694247287	 0.079546
C	 0.554578432	 2.1898768333	 1.2290338181	-0.19882
O	 1.2222216539	 2.1579558206	-0.0178115739	-0.239296
C	-1.1279224885	 2.0876714493	-0.6494168061	 0.077089
C	-2.043958262	 2.5973808995	-1.2486104251	 0.071388
C	-3.0787420755	 3.179003892	-1.9224555	 0.203172
N	-3.9607492018	 3.6743590264	-2.4933069406	-0.326989
H	 0.0466971042	-2.2341224209	-0.0814920274	 0.216625
H	 0.1297110903	 3.1488958893	 1.5189449324	 0.141794
H	 0.9970765263	 1.5917878872	 2.023077455	 0.144257
67.2174	99.5146	164.3944	213.6953	238.8718	257.9994	425.4481	464.0877	518.7223	560.4417	568.7207	589.6679	599.756	642.3753	684.5143	814.0341	852.2894	942.4411	1035.5742	1136.3319	1168.9161	1283.0119	1323.5699	1509.5936	2248.4152	2269.142	2400.5434	3093.4507	3194.9841	3497.7452
C#CC1(CO1)C#CC#N	C#C[C@]1(CO1)C#CC#N	
InChI=1S/C7H3NO/c1-2-7(6-9-7)4-3-5-8/h1H,6H2	InChI=1S/C7H3NO/c1-2-7(6-9-7)4-3-5-8/h1H,6H2/t7-/m1/s1
