20
gdb 103868	3.21167	0.9695	0.90531	1.4086	77.12	-0.229	0.0669	0.2959	1377.1231	0.169131	-440.222996	-440.213447	-440.212503	-440.257545	35.698	
O	-0.1077813551	 1.3912364921	-0.3482874305	-0.436951
C	 0.012917753	 0.0411012241	 0.1090917858	-0.150972
C	-1.376781492	-0.537054865	 0.0607495535	 0.414545
O	-2.2938434328	 0.1855242137	 0.833593628	-0.48174
C	-1.8774566638	-1.1894426099	-1.2131584989	-0.368225
C	-1.6051266641	-2.0150697919	 0.0274778994	-0.01976
N	-0.4695844527	-2.8964669909	 0.0211570378	-0.069141
C	-0.2902355828	-3.7342276968	 1.2052235099	-0.225298
C	-0.7611104063	-4.3244501831	-0.0781729783	-0.219295
H	 0.6849525837	 1.869472767	-0.090675269	 0.29072
H	 0.6969806523	-0.5441683799	-0.5157813996	 0.107361
H	 0.3803495865	 0.0158727569	 1.1454743061	 0.092442
H	-2.1759263283	 1.1072184981	 0.5690959583	 0.287412
H	-2.9132895678	-1.0204338787	-1.4826498168	 0.114608
H	-1.1828286761	-1.2936310428	-2.0390575125	 0.117978
H	-2.4863342433	-2.3474591896	 0.5835009453	 0.083857
H	 0.7355165609	-3.8746453026	 1.5340411535	 0.115667
H	-1.018531116	-3.6400720418	 2.0085655879	 0.116853
H	-1.8054225416	-4.6256638472	-0.1350097679	 0.113676
H	-0.0848796336	-4.9021600716	-0.7017240721	 0.116263
66.8112	113.9543	118.7955	160.1337	239.0788	256.0758	317.0416	349.5363	375.5753	412.2496	462.0135	475.0369	624.8826	731.6529	751.3926	826.6087	890.5508	902.8981	930.494	944.0261	1001.6257	1015.3067	1040.6852	1049.774	1063.6129	1085.8845	1114.3571	1118.2099	1119.6959	1175.9401	1197.7436	1215.8593	1228.4663	1284.059	1294.5376	1322.3251	1381.4901	1420.5865	1452.8413	1491.6089	1504.1569	1512.067	1520.6312	2995.9744	3059.9743	3062.132	3098.252	3102.5346	3139.2269	3179.6629	3194.297	3235.7837	3771.1837	3840.7193
OCC1(O)CC1N1CC1	OC[C@@]1(O)C[C@H]1N1CC1	
InChI=1S/C6H11NO2/c8-4-6(9)3-5(6)7-1-2-7/h5,8-9H,1-4H2	InChI=1S/C6H11NO2/c8-4-6(9)3-5(6)7-1-2-7/h5,8-9H,1-4H2/t5-,6+/m1/s1
