18
gdb 12196	2.68227	1.80518	1.62838	1.3478	72.96	-0.2498	0.0377	0.2874	917.6773	0.15241	-347.762683	-347.754212	-347.753268	-347.795193	32.184	
C	 0.8643523114	 1.4301070609	-0.0091201878	-0.407791
C	 0.0821009939	 0.1197348948	 0.0110038156	-0.01714
C	 0.616418692	-0.9770824427	-0.9553338823	-0.24477
C	 1.3000956745	-1.716637527	 0.2454116435	-0.230055
C	 2.7203227668	-1.4721190164	 0.3937349703	 0.31526
C	 3.8865190134	-1.2275492343	 0.5717391819	-0.460369
C	 0.4218924118	-0.8269025697	 1.2091878864	 0.143025
O	 0.9994881612	-0.3130024064	 2.3708351035	-0.423499
H	 1.9452730757	 1.2594171121	 0.0232031322	 0.120775
H	 0.6472269183	 1.9925046732	-0.9231875516	 0.113095
H	 0.5968267162	 2.0543140326	 0.8488455149	 0.125557
H	-0.986535867	 0.3329229672	-0.0877094307	 0.069926
H	-0.1746352604	-1.5856917153	-1.3987403123	 0.105301
H	 1.2894947203	-0.6413739175	-1.7462974808	 0.110977
H	 1.1023138006	-2.7904110144	 0.3093826115	 0.102825
H	 4.9247627545	-1.0430178335	 0.698686464	 0.201661
H	-0.4623628618	-1.3887438177	 1.523388009	 0.090015
H	 1.9229336885	-0.1071191059	 2.1752426029	 0.285207
84.7679	137.7689	200.0794	223.4169	247.1066	341.4207	348.5241	387.4021	477.4355	532.6489	603.5242	621.3903	641.8125	739.0508	782.0728	806.1919	846.5794	908.6276	941.2321	1028.7893	1040.528	1085.4345	1110.7075	1147.0924	1159.5069	1208.8463	1247.6425	1254.0216	1274.7135	1320.2761	1338.9974	1370.2089	1409.5377	1438.6641	1482.9549	1496.4606	1506.1411	2218.4395	3035.2545	3049.469	3060.1537	3067.4786	3077.9508	3103.098	3110.7532	3127.3886	3501.0137	3757.8402
CC1CC(C#C)C1O	C[C@H]1C[C@@H](C#C)[C@H]1O	
InChI=1S/C7H10O/c1-3-6-4-5(2)7(6)8/h1,5-8H,4H2,2H3	InChI=1S/C7H10O/c1-3-6-4-5(2)7(6)8/h1,5-8H,4H2,2H3/t5-,6+,7-/m0/s1
