17
gdb 40873	4.06101	1.43285	1.31585	2.5702	70.14	-0.2381	0.0716	0.3097	978.82	0.136511	-421.722782	-421.715969	-421.715025	-421.754284	26.921	
C	-0.0067749701	 1.5028050428	-0.1446732404	-0.152334
O	 1.4093661662	 1.5277578618	 0.1499173796	-0.275683
C	 1.4226101283	 0.1183930602	 0.4533408286	-0.143542
C	-0.0373656394	-0.0252363285	-0.0182451921	 0.356037
C	-1.0365060675	-0.8896564401	 0.731883031	-0.232282
C	-2.0603709565	-1.3004415636	-0.3405248688	 0.088904
O	-1.7170626291	-0.6325438556	-1.5570528997	-0.292777
C	-0.3339878518	-0.9439382467	-1.2280496356	-0.024771
C	-0.7918385199	-2.0655915844	-0.2225547977	-0.141782
H	-0.5916918281	 2.0440420813	 0.6113055846	 0.098359
H	-0.2387719734	 1.9093461295	-1.1357834501	 0.111857
H	 2.1847183934	-0.4246758219	-0.1209977095	 0.100938
H	 1.5838762047	-0.0701501974	 1.5235414003	 0.097363
H	-1.2475762803	-0.9154953454	 1.7936500708	 0.095286
H	-3.0937038908	-1.5555507518	-0.148065246	 0.115835
H	 0.3223175178	-1.0148216154	-2.0935301383	 0.091868
H	-0.5440403437	-3.1058002449	-0.0683876966	 0.106724
83.5794	155.7087	222.8702	324.7159	432.8461	565.5754	579.2349	768.2808	772.5949	791.4796	818.3167	844.1097	869.1352	890.3285	928.8911	969.3067	974.2746	984.9162	1023.651	1027.428	1034.871	1046.7059	1072.0241	1125.2368	1145.4748	1149.3239	1158.8254	1166.9591	1205.4316	1225.7201	1245.3315	1300.3855	1340.8755	1365.7349	1391.8386	1507.0371	1532.1791	2995.7717	3010.4294	3039.5664	3061.8232	3141.6568	3195.8661	3209.8885	3225.3095
C1OCC11C2C3OC1C23	C1OCC21[C@H]1[C@H]3O[C@@H]2[C@@H]13	
InChI=1S/C7H8O2/c1-7(2-8-1)4-3-5(4)9-6(3)7/h3-6H,1-2H2	InChI=1S/C7H8O2/c1-7(2-8-1)4-3-5(4)9-6(3)7/h3-6H,1-2H2/t3-,4+,5-,6+/m0/s1
