15
gdb 11822	3.84571	1.67159	1.32302	3.1487	62.9	-0.2402	-0.0391	0.2012	915.2092	0.117772	-399.76387	-399.756074	-399.75513	-399.796462	28.015	
O	-0.1083401068	 1.494226795	-0.0133734277	-0.437733
C	 0.025789671	 0.0995011565	 0.0390945428	 0.054018
C	-1.286062866	-0.7389786851	 0.1577548788	-0.364641
C	-0.7869941086	-1.6323653351	-0.9964868892	 0.225385
C	-0.6525837902	-3.1186871335	-1.0080972842	-0.28635
N	-1.5242284742	-2.4367080208	-1.9668146432	-0.346408
C	 0.2840455099	-0.6130637358	-1.3085508397	 0.318879
O	 0.9636557734	-0.3244395104	-2.2518038414	-0.309445
H	 0.4482480605	 1.8042445483	-0.7383998633	 0.299042
H	 0.7617344618	-0.2113159619	 0.7969108375	 0.09817
H	-1.4722460619	-1.2201541707	 1.1189069813	 0.114334
H	-2.1477824391	-0.1310170234	-0.1306836252	 0.128547
H	 0.2350330721	-3.5720015036	-1.4402114364	 0.139937
H	-1.0926027059	-3.6591422492	-0.1732705113	 0.124165
H	-2.4974309759	-2.5062537803	-1.6763491487	 0.2421
52.8582	134.1323	204.8668	225.6253	249.3087	303.4936	385.085	501.4042	557.125	718.1758	734.2225	818.652	829.1314	914.1803	924.6938	976.1118	986.548	1009.7858	1051.1862	1121.2713	1135.8105	1157.9268	1187.1012	1236.8788	1252.3586	1274.7187	1351.7405	1370.1793	1397.5025	1478.2915	1504.7892	1887.5253	2983.8602	3069.1155	3104.9242	3132.5413	3197.0606	3492.9566	3782.8662
OC1CC2(CN2)C1=O	O[C@H]1C[C@]2(CN2)C1=O	
InChI=1S/C5H7NO2/c7-3-1-5(2-6-5)4(3)8/h3,6-7H,1-2H2	InChI=1S/C5H7NO2/c7-3-1-5(2-6-5)4(3)8/h3,6-7H,1-2H2/t3-,5-/m0/s1
