17
gdb 45092	2.79059	1.73544	1.26949	3.3779	71.78	-0.231	-0.0152	0.2158	985.7996	0.138758	-417.977824	-417.970845	-417.969901	-418.009191	28.099	
O	 0.0365792702	-0.0399718063	 0.0227413472	-0.325085
C	 0.0083022854	 1.1699510594	-0.0025743783	 0.423044
C	-1.2851666798	 1.979146708	 0.0213044517	-0.323921
C	-1.3366459006	 3.0081888096	-1.109619826	-0.05121
N	-1.0893419214	 4.4174859758	-0.7605344102	-0.31709
C	-0.0746631974	 3.6744625849	-1.5258640087	-0.029669
C	 1.2097458785	 3.2904797422	-0.835806009	-0.02909
N	 1.2225728121	 3.2791793044	 0.6183338506	-0.317255
C	 1.2658940248	 1.9809634972	-0.0920235709	-0.151387
H	-2.1206849324	 1.2788985651	-0.0322515475	 0.117109
H	-1.3271158823	 2.514593253	 0.9754225233	 0.155137
H	-2.067869872	 2.8043984354	-1.8876479506	 0.095023
H	-1.6107781199	 5.0278986652	-1.3847553817	 0.232802
H	 0.0476299883	 3.9109064291	-2.5801556036	 0.084858
H	 2.1211627665	 3.5870942406	-1.3497393708	 0.09313
H	 2.1475772621	 3.5106761188	 0.968979845	 0.244338
H	 2.183779198	 1.4014745877	-0.1059004506	 0.099269
101.648	205.0496	253.5983	376.233	431.6086	458.7643	466.1744	551.3477	614.665	706.8351	747.3726	821.2143	831.8443	864.8449	888.0884	918.2623	924.5351	950.1396	987.9977	1005.6529	1049.4075	1095.7549	1133.509	1159.2107	1169.7952	1194.9659	1226.1205	1229.2051	1262.9023	1266.3104	1306.6332	1380.0701	1395.3552	1440.5699	1451.6335	1460.5466	1807.7035	3060.2749	3121.3366	3125.3898	3136.7515	3143.8177	3165.8706	3500.7855	3518.0979
O=C1CC2NC2C2NC12	O=C1C[C@H]2N[C@H]2[C@H]2N[C@@H]12	
InChI=1S/C6H8N2O/c9-3-1-2-4(7-2)6-5(3)8-6/h2,4-8H,1H2	InChI=1S/C6H8N2O/c9-3-1-2-4(7-2)6-5(3)8-6/h2,4-8H,1H2/t2-,4-,5+,6-/m1/s1
