21
gdb 103702	2.80838	1.15063	0.95547	5.1701	83.96	-0.245	0.0316	0.2766	1314.2604	0.180792	-383.273242	-383.262713	-383.261769	-383.308452	38.732	
C	 0.1111404274	 1.4242352857	-0.399190646	-0.379949
C	-0.0520134489	 0.0250098495	 0.2094402951	-0.246735
C	-1.4777889299	-0.5053612996	 0.1538840061	 0.314153
C	-2.4719740545	 0.2402041215	 1.025463407	-0.471055
C	-1.9753935414	-1.0814792365	-1.1458418872	-0.351523
C	-1.6517980485	-2.0391096134	-0.0126490949	 0.084057
N	-0.5582327264	-2.9650122308	-0.1684251967	-0.56267
C	-2.7746940948	-2.6447867363	 0.6767475645	 0.298925
N	-3.6604772645	-3.1182636175	 1.2510916169	-0.360366
H	 1.1587433472	 1.7382363617	-0.366910258	 0.117534
H	-0.2121602007	 1.439522665	-1.44540273	 0.118956
H	-0.4741072542	 2.1739723056	 0.1410017732	 0.125027
H	 0.6194987945	-0.6674987105	-0.308281747	 0.081798
H	 0.2773483279	 0.0427777228	 1.257004504	 0.102628
H	-2.5862901614	 1.27459671	 0.6851272729	 0.121752
H	-3.4595549638	-0.2256498613	 1.00819205	 0.144284
H	-2.1352737681	 0.2650522761	 2.0678428424	 0.124081
H	-3.017122686	-0.9486450503	-1.4149399536	 0.136307
H	-1.298265467	-1.1129036373	-1.9948088634	 0.117917
H	-0.0150210609	-2.7782618022	-0.9999933656	 0.241577
H	 0.0608712441	-2.9663324222	 0.6345473203	 0.243301
65.7394	106.6055	144.6176	155.8286	187.1569	228.2143	231.2355	269.3379	301.8853	372.5669	399.3362	430.7886	451.7768	582.1628	618.9447	682.5362	705.1403	760.1711	788.159	859.0549	907.4536	940.1736	969.1625	1023.1652	1031.9933	1068.3602	1083.0221	1117.2134	1129.4834	1221.3461	1272.3011	1289.8979	1327.3282	1362.2996	1383.0935	1410.4558	1422.9367	1475.0016	1481.6753	1494.26	1498.4835	1505.4512	1511.1682	1650.0233	2346.7729	3020.6446	3035.5659	3039.0866	3068.0912	3095.5674	3106.3517	3114.1557	3124.0045	3127.0591	3215.8226	3524.0596	3624.5384
CCC1(C)CC1(N)C#N	CC[C@@]1(C)C[C@]1(N)C#N	
InChI=1S/C7H12N2/c1-3-6(2)4-7(6,9)5-8/h3-4,9H2,1-2H3	InChI=1S/C7H12N2/c1-3-6(2)4-7(6,9)5-8/h3-4,9H2,1-2H3/t6-,7-/m0/s1
