21
gdb 105112	2.76842	1.16091	1.0091	0.603	78.07	-0.2451	0.0706	0.3157	1266.3413	0.182267	-424.177201	-424.167884	-424.16694	-424.212136	34.374	
O	-0.0079601888	 1.4299414029	-0.0454352426	-0.422658
C	-0.0047900469	 0.0099371687	-0.1091397166	-0.162542
C	-1.4349238785	-0.4986110385	-0.0078873259	 0.357213
C	-2.3945466104	 0.2737723532	 0.8675258108	-0.307405
C	-2.524213859	 0.3396429736	-0.6360177919	-0.307431
C	-1.6093214222	-2.003125866	-0.0586687078	-0.112101
C	-0.8921838667	-2.7797307921	-1.1928714646	-0.090823
O	 0.0396006487	-3.3656839756	-0.260078538	-0.277133
C	-0.7151816926	-2.869738407	 0.8650552924	-0.09082
H	 0.9017787453	 1.7316528039	-0.1123468501	 0.291469
H	 0.4463553719	-0.3312461985	-1.0533544272	 0.094476
H	 0.599286063	-0.4100365204	 0.7094958714	 0.094535
H	-3.1374010009	-0.2853476943	 1.4269256948	 0.102132
H	-2.0131116187	 1.155052956	 1.3679396953	 0.129086
H	-2.2271502853	 1.2639092812	-1.1156811186	 0.129013
H	-3.3559602001	-0.1741568032	-1.1067351185	 0.102139
H	-2.6747029126	-2.2318690858	 0.0229794096	 0.073605
H	-1.5144991319	-3.5425361216	-1.6800499468	 0.094849
H	-0.3893807968	-2.189743601	-1.9671675715	 0.10377
H	-0.0834337304	-2.345336167	 1.5905473533	 0.103783
H	-1.2510493472	-3.6765005185	 1.3832119123	 0.094842
46.6293	68.9691	108.8489	216.1096	237.8398	247.3899	291.655	340.1993	347.7167	484.0375	519.6869	669.3163	790.5427	835.0891	858.4147	871.3164	884.2015	931.5106	953.7378	991.7246	1034.0272	1049.5073	1055.1792	1058.8072	1077.8334	1080.5557	1106.0229	1108.9491	1156.7339	1168.2807	1195.756	1212.8403	1245.6745	1279.2014	1298.8588	1305.6295	1321.7221	1373.2468	1415.0793	1457.263	1466.1495	1502.0168	1513.5373	1515.8872	1542.4734	2974.9314	2999.0608	3004.6003	3012.1133	3060.3578	3062.2677	3076.852	3135.0849	3138.647	3224.3611	3236.722	3844.8659
OCC1(CC1)C1COC1	OCC1(CC1)C1COC1	
InChI=1S/C7H12O2/c8-5-7(1-2-7)6-3-9-4-6/h6,8H,1-5H2	InChI=1S/C7H12O2/c8-5-7(1-2-7)6-3-9-4-6/h6,8H,1-5H2
