23
gdb 109697	2.77831	1.04603	0.93739	1.8337	86.24	-0.2501	0.0665	0.3165	1390.2261	0.205017	-388.263045	-388.253034	-388.25209	-388.298223	37.198	
C	-0.1926557337	 0.9117005604	-1.985569187	-0.419547
C	 0.0175235932	-0.2466319079	-1.0324661119	-0.08367
C	 1.3598062445	-0.5596977672	-0.3813789516	-0.139216
C	 2.5933921997	 0.2746631244	-0.6309157917	-0.076807
O	 3.2881244992	-0.1058796935	-1.8124478867	-0.421168
C	 0.216106769	-0.0415847722	 0.4468657684	 0.342672
C	 0.0867452515	 1.2955656629	 1.2003954612	-0.29254
C	-0.9642519496	 0.6169832345	 2.1277846242	-0.20548
C	-0.5510824519	-0.7720404249	 1.5584265864	-0.295016
H	 0.4130807755	 1.7832338795	-1.7233687797	 0.123167
H	 0.0568982084	 0.631660118	-3.0160342094	 0.111458
H	-1.240333916	 1.2336582152	-1.9838220415	 0.119791
H	-0.5672115499	-1.1279470505	-1.2905500387	 0.081199
H	 1.5809299965	-1.6194319532	-0.2676822227	 0.083796
H	 2.3409850691	 1.3458233118	-0.6458524769	 0.084559
H	 3.3112369073	 0.1328675255	 0.1849301924	 0.108476
H	 2.6533049769	-0.0803844336	-2.5355996921	 0.280864
H	 0.9998102135	 1.577891176	 1.7342402177	 0.101751
H	-0.2543489017	 2.1610869226	 0.6260510145	 0.097996
H	-0.8369957367	 0.7644583993	 3.2022663425	 0.098239
H	-1.9885710159	 0.8881139794	 1.8604866916	 0.103438
H	-1.3592028735	-1.4393898718	 1.2445265686	 0.096125
H	 0.1095643443	-1.3246738045	 2.2348007322	 0.099912
67.8372	82.004	119.5675	162.4317	188.3599	219.8867	250.6584	291.3847	341.9956	403.6743	457.3415	526.1216	623.8802	704.0969	774.5336	790.0801	820.458	872.458	928.5653	940.5236	956.9239	992.454	1006.6305	1017.4423	1060.8485	1075.7172	1116.3488	1135.5627	1141.8376	1160.6984	1191.3563	1211.5582	1227.8161	1232.7144	1254.1365	1270.1286	1278.7536	1321.0499	1342.5764	1385.5212	1415.7121	1425.1061	1463.0864	1475.9823	1481.6284	1491.7117	1503.078	1506.2749	1516.3431	2989.8189	3025.4646	3039.5507	3045.8074	3058.9433	3065.3777	3077.7612	3085.3036	3091.3963	3103.8473	3118.1881	3120.8443	3128.6973	3816.2845
CC1C(CO)C11CCC1	C[C@H]1[C@@H](CO)C21CCC2	
InChI=1S/C8H14O/c1-6-7(5-9)8(6)3-2-4-8/h6-7,9H,2-5H2,1H3	InChI=1S/C8H14O/c1-6-7(5-9)8(6)3-2-4-8/h6-7,9H,2-5H2,1H3/t6-,7+/m0/s1
