17
gdb 32224	2.73063	1.47831	1.03847	3.1668	77.22	-0.2443	-0.0356	0.2087	1146.3505	0.13739	-418.06811	-418.059914	-418.05897	-418.101167	30.537	
C	-0.001508976	 1.5744730552	-0.0941203797	-0.382703
C	-0.026656122	 0.0392977259	 0.0324167207	-0.311369
C	-1.4271975304	-0.5227803258	 0.0056827608	 0.22168
N	-2.0059012504	-0.8060893616	 1.1776988742	-0.293357
C	-3.250292526	-1.2793196069	 1.1540541979	 0.050044
N	-3.9941471082	-1.5106404672	 0.0717660966	-0.247353
C	-3.4228120378	-1.2309859049	-1.098020648	-0.036273
C	-2.1287205154	-0.7243097131	-1.1916657128	 0.270685
O	-1.6302555951	-0.4579085434	-2.4288358194	-0.433757
H	 1.0256727568	 1.949049279	-0.0640214894	 0.124426
H	-0.4579257626	 1.9120361021	-1.0307912966	 0.11951
H	-0.5580967096	 2.0312828002	 0.7286828315	 0.142931
H	 0.5837207379	-0.4125453323	-0.7630417534	 0.097443
H	 0.426305219	-0.261293105	 0.9801534675	 0.135815
H	-3.7039128618	-1.5026344638	 2.1158751849	 0.115037
H	-3.9971334274	-1.408995462	-2.0041656277	 0.123201
H	-0.720114861	-0.1539418365	-2.3531777672	 0.304041
65.1355	118.5469	209.6928	225.5184	312.1443	329.0071	350.2766	440.5489	487.9947	543.3481	610.306	621.636	743.8096	790.1937	812.3017	879.4823	942.2749	980.5291	989.5662	1046.0259	1079.1284	1155.839	1173.8303	1230.4689	1267.5281	1280.1788	1303.293	1349.5752	1358.1254	1411.7704	1449.0772	1484.8111	1492.3083	1499.5982	1511.1325	1595.7959	1629.6777	3003.4699	3039.0251	3095.0557	3113.2995	3123.4841	3161.5898	3172.4066	3828.4186
CCC1=NC=NC=C1O	CCc1ncncc1O	
InChI=1S/C6H8N2O/c1-2-5-6(9)3-7-4-8-5/h3-4,9H,2H2,1H3	InChI=1S/C6H8N2O/c1-2-5-6(9)3-7-4-8-5/h3-4,9H,2H2,1H3
