20
gdb 70183	3.4442	1.31459	1.12967	3.3697	80.42	-0.251	0.0313	0.2823	1144.2003	0.172424	-403.163263	-403.155015	-403.15407	-403.195799	32.432	
C	-0.3901344694	 1.5212609788	 0.1667583778	-0.47101
C	-0.0114237153	 0.0616618381	 0.0446108095	 0.310061
C	-0.7621169271	-0.9818305287	 0.8373063449	-0.335071
C	 0.6759108102	-0.6521805811	 1.1768065671	-0.070077
C	 1.7974988185	-1.5995022749	 0.791741659	-0.300105
C	 1.5203632624	-2.3606390189	-0.4837887987	 0.381461
N	 1.9001379003	-3.5593983702	-0.6332655454	-0.517754
O	 0.8193837411	-1.7155300178	-1.4644436735	-0.250061
C	 0.5087189874	-0.3257628711	-1.3276095254	-0.139062
H	 0.4523135923	 2.1764187108	-0.0859969469	 0.118192
H	-1.222348183	 1.7764654107	-0.5000708429	 0.120744
H	-0.6990967011	 1.7585987026	 1.1889693292	 0.121843
H	-1.5309618553	-0.6311496031	 1.5171790203	 0.110023
H	-0.9794743752	-1.937942645	 0.3737363439	 0.132584
H	 0.8484265502	-0.093703881	 2.0923077488	 0.086287
H	 2.7216183475	-1.0198929598	 0.6542927629	 0.123044
H	 2.0049405196	-2.3401553471	 1.5670053904	 0.138817
H	 1.6370432124	-3.8939723449	-1.5630931272	 0.215744
H	-0.2372666564	-0.1295302427	-2.1045310425	 0.119024
H	 1.4008139712	 0.2733737053	-1.5663939113	 0.105316
85.2785	187.8738	201.8242	226.1689	292.4736	342.5777	375.2982	429.5921	469.5736	512.5681	592.6719	682.2635	730.3403	770.5215	831.001	891.765	906.2176	913.7226	944.7669	971.2661	1032.849	1037.5875	1057.3991	1070.8572	1099.7907	1119.2761	1151.7532	1153.6193	1227.1129	1251.477	1283.6138	1307.5644	1336.2428	1343.9781	1416.0134	1423.8284	1435.4438	1473.8761	1490.7019	1496.9174	1505.1774	1517.9743	1749.0924	2988.2635	3012.8043	3021.5209	3071.0593	3078.9481	3104.848	3106.5626	3135.3905	3147.65	3220.6786	3457.847
CC12CC1CC(=N)OC2	C[C@]12C[C@H]1C[C]([NH])OC2	
InChI=1S/C7H11NO/c1-7-3-5(7)2-6(8)9-4-7/h5,8H,2-4H2,1H3	InChI=1S/C7H11NO/c1-7-3-5(7)2-6(8)9-4-7/h5,8H,2-4H2,1H3/t5-,7-/m1/s1
