18
gdb 12796	3.48656	2.01536	1.5737	1.475	72.54	-0.2236	0.02	0.2436	860.1857	0.155316	-347.805344	-347.798256	-347.797312	-347.836031	28.827	
O	-0.0524016606	 1.3612802884	 0.1253243668	-0.473533
C	 0.0131697993	-0.0333227195	-0.0324655786	 0.411883
C	-0.5720060574	-0.5974072265	-1.2971546115	-0.351578
C	-1.3215300405	-0.7204520139	 0.0374546823	-0.105893
C	-1.3803281076	-2.0394135655	 0.7132925299	-0.038321
C	-0.2851205957	-2.7330585246	 1.0294658627	-0.081255
C	 1.1060799213	-2.2239165014	 0.7430937945	-0.274534
C	 1.1755008962	-0.6853528368	 0.6933865396	-0.270578
H	 0.668853482	 1.7479427943	-0.3840997584	 0.278125
H	-0.9590241855	 0.1214381311	-2.0109030662	 0.111393
H	-0.1685052173	-1.5073436754	-1.7284455023	 0.11404
H	-2.1814507778	-0.0692093366	 0.1482705009	 0.094787
H	-2.3655263231	-2.4448862639	 0.9269824587	 0.085571
H	-0.3755881757	-3.7125230462	 1.4905482813	 0.085098
H	 1.8050071155	-2.586662516	 1.5052375955	 0.104774
H	 1.4672720257	-2.6498498238	-0.2040851824	 0.11097
H	 2.1266546602	-0.3688433066	 0.2457807521	 0.085766
H	 1.1615536511	-0.2899275472	 1.7160547851	 0.113283
186.9531	193.1148	285.2455	322.2135	384.5587	411.1593	436.8844	500.0684	559.4647	665.9895	721.1631	750.7327	816.5756	876.9385	900.3819	912.5195	946.242	988.5001	994.2401	1014.8616	1051.0244	1058.3503	1087.8834	1105.8155	1180.3592	1192.9678	1233.5682	1250.033	1291.4625	1341.2951	1348.7341	1381.7159	1410.8011	1421.5366	1477.2473	1483.3777	1502.7644	1711.0413	3002.1849	3017.9092	3051.4711	3063.9676	3130.0438	3151.7477	3170.349	3179.2651	3223.2738	3787.689
OC12CC1C=CCC2	O[C@]12C[C@H]1C=CCC2	
InChI=1S/C7H10O/c8-7-4-2-1-3-6(7)5-7/h1,3,6,8H,2,4-5H2	InChI=1S/C7H10O/c8-7-4-2-1-3-6(7)5-7/h1,3,6,8H,2,4-5H2/t6-,7-/m1/s1
