21
gdb 108988	2.69174	1.43847	1.16456	1.8013	83.56	-0.2218	0.0096	0.2314	1165.2198	0.181815	-387.058185	-387.049366	-387.048422	-387.091585	34.24	
C	-0.153667324	 1.4748494927	 0.0335202184	-0.372285
C	 0.0817057957	-0.0478274668	-0.0050696786	-0.3213
C	 0.7696358076	-0.5182079121	-1.2445756174	 0.338471
C	 2.029392983	-0.9044449205	-1.4697039418	-0.2159
C	 1.9913021656	-1.251348553	-2.9656729338	 0.02271
C	 0.6991222356	-2.1098056937	-3.0505862857	-0.250572
C	 0.1487652989	-0.6950286126	-2.6669435401	 0.305323
C	-1.2402542979	-0.2188384137	-2.9907406885	-0.515494
O	 1.2152804096	-0.1336973549	-3.5132139261	-0.316522
H	 0.7960347424	 2.0129343282	-0.0357949747	 0.12672
H	-0.7851365542	 1.8072512751	-0.795071606	 0.123911
H	-0.6461721658	 1.7637874797	 0.9673578546	 0.112358
H	 0.6793640945	-0.3383173423	 0.8666639231	 0.106336
H	-0.8849693105	-0.5594208905	 0.0994238114	 0.1023
H	 2.8696807296	-0.9847147634	-0.7948229072	 0.101705
H	 2.9106573308	-1.4732423727	-3.5054725927	 0.076048
H	 0.4373477269	-2.3908675049	-4.0745805206	 0.098954
H	 0.5696282362	-2.9369881099	-2.3492083952	 0.091632
H	-1.9708660697	-0.6580128087	-2.3036760714	 0.121282
H	-1.3040775598	 0.8703641559	-2.9104484311	 0.13644
H	-1.5140851645	-0.4996364619	-4.0112438465	 0.127882
66.5612	128.2456	176.8742	202.0818	252.1329	280.5493	336.4124	393.7792	497.6546	550.8723	600.9316	640.4794	678.5064	760.0892	786.4924	804.7028	827.6657	855.3316	901.1756	906.0251	941.8123	970.4224	1031.1372	1041.6308	1071.5152	1081.3879	1109.5685	1158.6256	1175.9964	1217.6315	1236.6707	1249.0475	1280.5366	1307.8543	1335.5886	1350.0625	1406.4487	1413.7717	1473.3588	1482.4164	1485.7021	1490.5953	1500.6206	1505.7762	1678.9889	3011.3791	3040.9298	3042.6093	3054.2496	3056.7326	3110.8216	3112.8924	3117.5629	3122.7338	3126.6508	3135.1633	3232.1862
CCC1=CC2CC1(C)O2	CCC1=C[C@H]2C[C@]1(C)O2	
InChI=1S/C8H12O/c1-3-6-4-7-5-8(6,2)9-7/h4,7H,3,5H2,1-2H3	InChI=1S/C8H12O/c1-3-6-4-7-5-8(6,2)9-7/h4,7H,3,5H2,1-2H3/t7-,8-/m0/s1
