19
gdb 65662	3.51229	1.10917	0.97828	3.0143	76.28	-0.2475	-0.0203	0.2272	1235.5259	0.156913	-422.960619	-422.95191	-422.950966	-422.994666	32.527	
C	-0.22081758	 1.5587111767	 0.0836762306	-0.487346
C	 0.0115036081	 0.051815646	-0.0076835412	 0.318423
C	-1.2998351107	-0.6768056548	-0.3446231	-0.339569
C	-1.8325065907	-0.3240375428	-1.7128699697	 0.160531
O	-2.9501716444	 0.0594447502	-1.946969741	-0.246182
C	 1.3073047358	-0.5246594451	-0.6900310967	 0.009281
C	 2.1814502841	-0.0082868789	 0.4758720592	-0.23934
C	 0.9118796543	-0.6808766205	 1.0479801659	 0.005038
O	 1.1198347204	-1.7802191074	 0.0761506415	-0.3095
H	 0.6739150055	 2.1314719976	 0.3287691328	 0.12234
H	-0.6123221009	 1.9454245528	-0.8635691022	 0.135505
H	-0.9753533459	 1.7741743587	 0.8481984571	 0.13159
H	-1.1016788242	-1.7544910949	-0.3360858792	 0.144706
H	-2.0746013827	-0.4499336245	 0.3946696216	 0.112278
H	-1.0941198695	-0.4577044046	-2.5394268529	 0.068803
H	 1.5553200362	-0.6190135344	-1.7483368812	 0.09776
H	 3.0924924069	-0.5858454244	 0.6302507141	 0.11539
H	 2.33822007	 1.0614744271	 0.6070887797	 0.103892
H	 0.6752953876	-0.9610900969	 2.0757891216	 0.0964
58.0055	71.1446	158.3675	171.5031	256.0359	309.8379	385.6515	416.6352	465.1392	552.058	620.3506	683.8998	738.6065	783.7686	833.5825	867.5771	884.6052	915.5601	952.1749	985.5944	1022.5394	1034.9331	1048.3456	1111.5804	1121.3597	1140.2506	1170.6413	1177.8698	1203.9575	1212.3657	1251.9733	1276.8396	1300.2852	1322.0426	1420.7735	1431.6131	1459.9849	1484.6154	1496.1017	1510.0213	1830.974	2845.5173	3038.6206	3044.4119	3091.4439	3092.6829	3101.0597	3104.6752	3113.1786	3138.0128	3168.2361
CC1(CC=O)C2CC1O2	C[C@@]1(CC=O)[C@H]2C[C@@H]1O2	
InChI=1S/C7H10O2/c1-7(2-3-8)5-4-6(7)9-5/h3,5-6H,2,4H2,1H3	InChI=1S/C7H10O2/c1-7(2-3-8)5-4-6(7)9-5/h3,5-6H,2,4H2,1H3/t5-,6+,7-
