17
gdb 79336	2.62213	1.87076	1.53347	1.9352	65.53	-0.235	0.0818	0.3168	922.2234	0.136974	-458.950859	-458.943747	-458.942803	-458.982053	28.843	
C	 0.0384797452	 1.4497547759	-0.0815219229	-0.502041
C	-0.0121216652	-0.0410180783	-0.0273730652	 0.399192
O	 1.0282803486	-0.7275243242	-0.7314346637	-0.300378
C	 0.6885253363	-2.0620389095	-0.3555393139	 0.086163
O	 0.5708331536	-2.0347658091	 1.0539552316	-0.245691
C	-0.3165616575	-0.9290511402	 1.1528265151	 0.000544
C	-1.2419872744	-0.9485838688	-0.0553302788	-0.266025
C	-0.7779177977	-2.1658724543	-0.8534796894	 0.163694
O	-0.9073029485	-2.0633928305	-2.2483905415	-0.448604
H	 1.0028492497	 1.8165729849	 0.2831787421	 0.139232
H	-0.1050965108	 1.8152437692	-1.1035859916	 0.131151
H	-0.7509310818	 1.8761627894	 0.5436426341	 0.128991
H	 1.4337929322	-2.7760684289	-0.6941285521	 0.104169
H	-0.5576855245	-0.6191388551	 2.1592489114	 0.117606
H	-2.2604298627	-0.587332902	-0.0482783774	 0.101515
H	-1.2518434035	-3.0984033018	-0.541471427	 0.103023
H	-0.3476607589	-1.3234929967	-2.5173259907	 0.28746
161.1422	197.6273	253.7194	298.0063	344.8284	435.5488	522.5841	587.549	610.2641	630.0623	716.5571	770.1902	828.4303	857.542	874.9581	901.7491	910.884	940.741	997.2943	1023.3283	1037.5491	1041.5399	1092.6935	1115.8398	1123.6994	1178.1967	1199.7652	1221.6217	1269.5511	1282.3457	1320.2166	1329.6958	1408.8534	1434.7142	1448.4991	1478.0116	1501.3098	3038.8971	3104.2794	3106.9997	3119.0752	3182.0761	3221.1349	3230.8852	3774.3639
CC12OC3OC1C2C3O	C[C@@]12O[C@H]3O[C@@H]1[C@@H]2[C@H]3O	
InChI=1S/C6H8O3/c1-6-2-3(7)5(9-6)8-4(2)6/h2-5,7H,1H3	InChI=1S/C6H8O3/c1-6-2-3(7)5(9-6)8-4(2)6/h2-5,7H,1H3/t2-,3+,4+,5+,6-/m0/s1
