17
gdb 128519	3.37088	1.27186	0.93753	3.5604	73.2	-0.2017	0.0121	0.2138	1232.4452	0.136162	-451.310269	-451.300839	-451.299894	-451.34488	32.649	
C	-0.0745826837	 1.4138502754	-0.0197440497	-0.24002
O	 0.0061112359	-0.0084495273	 0.039113239	-0.285011
C	-1.1782747157	-0.6525123586	 0.0369367562	 0.363076
C	-1.3335327935	-2.026779144	 0.0180131897	 0.170653
N	-0.4355879781	-3.0989454182	-0.0705370532	-0.618364
N	-2.6843211315	-2.1825576928	-0.0036326485	 0.047596
C	-3.4343568502	-3.4182116551	-0.0317369638	-0.331746
N	-3.3152854205	-0.9944391554	 0.0238952863	-0.186148
N	-2.3889007954	-0.0602697928	 0.0328392325	-0.290381
H	 0.9559728957	 1.771956031	-0.0194863016	 0.124622
H	-0.5881593925	 1.7418447225	-0.9295304662	 0.135501
H	-0.6133195755	 1.813570927	 0.8454237163	 0.137194
H	 0.4750357375	-2.7613908596	-0.361303475	 0.260897
H	-0.3170205826	-3.5891212348	 0.811565667	 0.251736
H	-3.4703071378	-3.8861619127	 0.9577591415	 0.138796
H	-4.4481741197	-3.1788355958	-0.3521077881	 0.165379
H	-2.9659288125	-4.1100449388	-0.7355445524	 0.156222
69.7414	105.5769	142.9111	161.9878	182.2015	194.3265	255.6024	285.3419	353.7993	383.6857	555.9331	622.345	665.5523	729.3165	771.2548	785.7513	837.7616	1022.8013	1046.8233	1104.34	1152.6225	1181.4036	1210.8078	1236.8945	1250.4197	1295.0103	1311.495	1411.6545	1440.9457	1476.9187	1478.8363	1485.8185	1503.6728	1505.2932	1554.7328	1647.5297	1670.352	3032.3793	3043.7336	3099.0478	3115.1309	3142.1688	3165.5055	3492.5288	3586.1426
COC1=C(N)N(C)N=N1	COc1c(N)n(C)nn1	
InChI=1S/C4H8N4O/c1-8-3(5)4(9-2)6-7-8/h5H2,1-2H3	InChI=1S/C4H8N4O/c1-8-3(5)4(9-2)6-7-8/h5H2,1-2H3
