19
gdb 96228	2.4443	1.51721	0.98291	3.9337	79.22	-0.2543	-0.0597	0.1947	1191.8338	0.160829	-423.060298	-423.052157	-423.051213	-423.093105	31.633	
O	-0.1307605058	 1.4595976713	 0.0720439004	-0.444472
C	-0.0726819693	 0.0602221493	 0.016286668	 0.046495
C	-1.4813965777	-0.5112418024	-0.1823528593	-0.220469
C	-1.5961715822	-2.0016590849	 0.1475756784	-0.214683
C	-1.073559669	-2.9624248505	-0.925435307	-0.256172
C	 0.3370443631	-2.8105855011	-1.4202773407	-0.031997
C	 1.1640580243	-1.7561229722	-1.4599753597	-0.139661
C	 0.9559374775	-0.3573866577	-1.039378269	 0.335177
O	 1.6675624468	 0.5162127936	-1.5125663349	-0.351888
H	 0.6132009879	 1.7610118522	-0.4767023961	 0.290552
H	 0.3176238466	-0.3449426239	 0.9710159282	 0.08607
H	-2.1302724946	 0.0601014564	 0.4886309651	 0.120731
H	-1.8290392642	-0.3029466027	-1.2018507281	 0.102494
H	-1.0767588909	-2.2006287223	 1.0939386151	 0.105908
H	-2.6488765835	-2.2487550632	 0.323056916	 0.104705
H	-1.1893383116	-3.9919689973	-0.5640702655	 0.115254
H	-1.7248172966	-2.9068428137	-1.8128088597	 0.129223
H	 0.7212201955	-3.7170197078	-1.8877793674	 0.110721
H	 2.1221863937	-1.8785271533	-1.9585878337	 0.112013
80.699	111.1781	249.5246	292.3112	316.6265	348.9158	386.1021	413.7706	488.5837	533.6868	587.2673	636.6937	688.964	759.6916	815.7273	838.97	896.2791	929.0786	945.469	1034.0591	1050.703	1089.2492	1100.6085	1136.5308	1165.8487	1205.0885	1241.0825	1270.148	1291.027	1315.5527	1339.581	1384.7608	1386.9793	1403.4074	1430.3028	1453.1867	1462.3604	1490.556	1492.4612	1694.8099	1734.1698	2906.407	2987.6117	3023.5986	3035.0036	3044.5119	3069.6498	3086.0713	3128.7852	3168.07	3653.9366
OC1CCCC=CC1=O	O[C@H]1CCCC=CC1=O	
InChI=1S/C7H10O2/c8-6-4-2-1-3-5-7(6)9/h2,4,7,9H,1,3,5H2	InChI=1S/C7H10O2/c8-6-4-2-1-3-5-7(6)9/h2,4,7,9H,1,3,5H2/t7-/m0/s1
