21
gdb 26383	4.00248	0.89782	0.86933	3.1943	85.05	-0.2136	0.0374	0.251	1452.7035	0.183555	-383.325626	-383.31627	-383.315326	-383.36119	34.604	
C	-0.0125149905	 1.5501183768	 0.003197684	-0.395954
C	 0.0437536073	 0.0203923815	 0.0830685146	 0.062561
C	 0.7463793593	-0.4440999094	 1.3643629024	-0.390689
C	-1.3747047407	-0.5816817862	-0.039288858	-0.310599
C	-1.3801363216	-2.0718275636	-0.1797870864	 0.349321
N	-0.8524554976	-2.7549320378	-1.1749525919	-0.298603
C	-1.0794259931	-4.0803591668	-0.8849395781	-0.087523
C	-1.7532477572	-4.2072285884	 0.2992347668	-0.119233
N	-1.9385203421	-2.9142312241	 0.7413311048	-0.275775
H	 0.9918356222	 1.9834621697	 0.0490132845	 0.111811
H	-0.4802743499	 1.8853824664	-0.9285210293	 0.112359
H	-0.5907627399	 1.9689846162	 0.8362933355	 0.1071
H	 0.6150640075	-0.3539213314	-0.7750052592	 0.104065
H	 0.8090495343	-1.5352765442	 1.4141756708	 0.124128
H	 1.7658196959	-0.0487532245	 1.4179726845	 0.11335
H	 0.2101150674	-0.093898315	 2.2558482942	 0.100686
H	-1.9740472571	-0.291034762	 0.8340787926	 0.084351
H	-1.8681899623	-0.1468335398	-0.9164162332	 0.12184
H	-0.7470171275	-4.8659098284	-1.5466244762	 0.102962
H	-2.1115469492	-5.0583705331	 0.8535544998	 0.123371
H	-2.4029991651	-2.6380759158	 1.5900642279	 0.260471
20.213	63.7841	111.4937	224.6184	247.0267	277.3514	316.2967	351.5308	413.5083	420.9583	533.6048	646.5623	694.1998	720.1257	777.3048	825.4327	856.7749	882.4155	928.2612	930.8774	952.5516	968.5601	996.3606	1090.6356	1106.8184	1136.5527	1140.615	1190.4912	1196.2519	1230.5058	1285.121	1317.2856	1369.3484	1370.1291	1394.6817	1400.8443	1420.4305	1462.2222	1478.074	1488.224	1494.5011	1504.0245	1504.6702	1509.2305	1586.7595	3015.2557	3019.0856	3023.0381	3039.1808	3062.1927	3084.3471	3092.417	3100.2839	3107.5035	3246.3616	3280.9456	3663.4969
CC(C)CC1=NC=CN1	CC(C)Cc1ncc[nH]1	
InChI=1S/C7H12N2/c1-6(2)5-7-8-3-4-9-7/h3-4,6H,5H2,1-2H3,(H,8,9)	InChI=1S/C7H12N2/c1-6(2)5-7-8-3-4-9-7/h3-4,6H,5H2,1-2H3,(H,8,9)
