23
gdb 89709	3.17825	1.00132	0.93195	1.2854	86.9	-0.2418	0.0758	0.3176	1397.4723	0.20378	-388.272746	-388.262784	-388.26184	-388.307129	38.359	
C	-0.0561189906	 1.5140467863	 0.0891190751	-0.452427
C	-0.0231395449	-0.0021794743	 0.0512304856	 0.278372
C	-1.2736253265	-0.6407487161	-0.5230359904	-0.452323
C	 1.3086029024	-0.6782290882	-0.2170730736	-0.3943
C	 0.6966331893	-0.722380985	 1.1585997359	 0.343952
C	 1.335034401	-0.1513439579	 2.4347717888	-0.317396
C	 1.3003010382	-1.5782885648	 3.0248440959	 0.144355
O	 0.8825002613	-1.6212519986	 4.369529274	-0.433814
C	 0.2934143665	-1.9995894525	 1.9121157289	-0.343738
H	 0.8639311742	 1.9283056216	 0.5115517128	 0.114594
H	-0.1772934825	 1.9293055388	-0.9185451332	 0.111745
H	-0.8937266055	 1.8763786675	 0.6975859866	 0.112542
H	-1.4433277458	-0.3124334134	-1.5554700846	 0.111984
H	-1.2047709909	-1.7324843347	-0.5278635986	 0.113129
H	-2.1613305006	-0.3661270826	 0.0598429391	 0.112058
H	 1.3113146218	-1.5914090335	-0.8059959984	 0.101567
H	 2.1820911314	-0.0499599979	-0.3685407931	 0.102649
H	 2.3095547589	 0.3367228351	 2.356494886	 0.097264
H	 0.6505380063	 0.4982904326	 2.9903879752	 0.109849
H	 2.2658064582	-2.0856853662	 2.8902489172	 0.066918
H	 0.8677343927	-2.5414026756	 4.6516995885	 0.280578
H	-0.7327493148	-1.9537605448	 2.2928728046	 0.101719
H	 0.4548561497	-2.9624231558	 1.4190575576	 0.090723
64.3213	142.9336	168.9815	202.2814	209.4815	260.789	271.9621	334.6342	344.3352	378.2103	424.3274	454.6599	469.8853	536.5422	693.8411	725.8651	833.953	886.6981	896.9423	917.6942	927.0049	969.6187	986.216	991.7317	1024.3177	1046.764	1059.7649	1067.1008	1147.2937	1153.8432	1175.8585	1182.9815	1216.8077	1225.823	1257.8265	1267.7545	1294.2981	1327.2359	1408.1396	1409.4524	1423.148	1428.6741	1467.6734	1480.3587	1489.7504	1492.4651	1493.3224	1499.7114	1518.2452	2998.4166	3017.271	3021.7793	3038.5985	3049.2095	3074.2682	3077.5349	3095.5276	3101.8641	3102.9625	3105.2858	3109.0617	3191.6389	3813.9903
CC1(C)CC11CC(O)C1	CC1(C)C[C@]21C[C@@H](O)C2	
InChI=1S/C8H14O/c1-7(2)5-8(7)3-6(9)4-8/h6,9H,3-5H2,1-2H3	InChI=1S/C8H14O/c1-7(2)5-8(7)3-6(9)4-8/h6,9H,3-5H2,1-2H3/t6-,8+
