22
gdb 116321	2.93427	1.29674	1.00079	2.4375	82.39	-0.2394	0.0704	0.3097	1266.1432	0.196175	-404.33567	-404.327041	-404.326097	-404.368943	33.522	
C	-0.0123133963	 1.5355769742	 0.0475711363	-0.386032
C	 0.0069106264	 0.0066745505	-0.0156915614	-0.18668
C	 0.7250776244	-0.5400735013	-1.2483604788	 0.140667
O	 2.0627314318	-0.0651070808	-1.2110501011	-0.255997
C	 2.859297644	-0.5679424804	-2.2670582682	-0.07204
C	 3.1483831187	-2.0632273148	-2.093515236	-0.210573
C	 1.8712533515	-2.8200470815	-1.755187313	-0.040147
N	 1.4659986415	-2.7936712472	-0.3355786859	-0.323152
C	 0.6670708337	-2.0574379197	-1.3246253208	-0.058542
H	 1.0052803322	 1.9330974822	 0.0497674746	 0.13553
H	-0.5374484885	 1.9626201041	-0.8146564036	 0.105404
H	-0.5198367217	 1.884188686	 0.9522377983	 0.106432
H	 0.5048485327	-0.4087254032	 0.8669161073	 0.120637
H	-1.0186354437	-0.3842457881	-0.0178579241	 0.084961
H	 0.2355905723	-0.1499863144	-2.1620149964	 0.054153
H	 2.3555192802	-0.3928122408	-3.2333701287	 0.081743
H	 3.7844789757	 0.0157286447	-2.262113003	 0.103681
H	 3.5893846807	-2.4563093209	-3.0164930076	 0.092415
H	 3.8751608701	-2.21063892	-1.288501712	 0.117492
H	 1.7032764603	-3.7474451079	-2.2975835563	 0.082337
H	 0.9991972617	-3.6618969062	-0.0880087758	 0.228138
H	-0.3113368675	-2.4532893444	-1.5925883641	 0.079573
89.611	112.0948	167.7185	207.2268	281.1661	296.0465	368.8639	401.9855	451.4176	487.7053	609.0372	708.2459	763.3171	780.7143	824.1398	874.6145	884.2961	919.4812	929.2032	966.9322	980.6109	1037.5236	1053.1253	1088.0667	1108.5202	1115.8596	1143.3634	1166.541	1173.7023	1215.3532	1257.3299	1261.3134	1282.1278	1307.3705	1323.904	1361.642	1366.6635	1390.3197	1403.6355	1408.0414	1425.8059	1457.8115	1471.3261	1479.9262	1496.273	1500.2098	1509.1362	2913.3425	2957.495	3029.5088	3035.0638	3040.5943	3077.5207	3079.4964	3090.9132	3099.958	3114.9869	3127.5225	3131.505	3503.8465
CCC1OCCC2NC12	CC[C@H]1OCC[C@H]2N[C@@H]12	
InChI=1S/C7H13NO/c1-2-6-7-5(8-7)3-4-9-6/h5-8H,2-4H2,1H3	InChI=1S/C7H13NO/c1-2-6-7-5(8-7)3-4-9-6/h5-8H,2-4H2,1H3/t5-,6-,7-/m1/s1
