14
gdb 127781	3.61156	1.64253	1.13718	3.5031	71.62	-0.2122	-0.0428	0.1694	992.3398	0.103019	-432.845952	-432.839074	-432.838129	-432.877415	25.863	
C	 0.0447153699	 1.4301872853	-0.0391775576	-0.347572
N	 0.0262748256	-0.0097711812	 0.0498351683	-0.158312
N	-0.034578128	-0.77470666	-1.0943796772	-0.11784
N	-0.041652242	-2.0264466624	-0.8130728135	-0.293733
C	 0.01574302	-2.1450886784	 0.5644760388	 0.220174
C	 0.0472592521	-3.0338156675	 1.6057940788	-0.091477
O	 0.1077848258	-2.3250779003	 2.7592592561	-0.137656
C	 0.1167004449	-0.9798839886	 2.4903135822	-0.134666
C	 0.0602669969	-0.8381050319	 1.1349416248	 0.303776
H	 0.9625078341	 1.8372636101	 0.398070184	 0.143544
H	 0.002759251	 1.6914975045	-1.0969787497	 0.169078
H	-0.8186673548	 1.8647874165	 0.4755305644	 0.143544
H	 0.03488434	-4.1049062602	 1.7025958119	 0.155954
H	 0.1633364145	-0.3273173558	 3.3424607187	 0.145184
113.4647	147.2322	261.0107	285.9504	348.7703	536.8474	599.9059	624.8569	631.7751	648.8056	704.7206	716.6602	775.4234	837.94	943.4453	973.2856	1046.6466	1132.9753	1153.8686	1174.988	1223.3878	1262.3305	1279.8342	1376.8934	1405.517	1424.2433	1453.0232	1481.0652	1512.1585	1570.13	1690.0967	3033.8522	3091.9384	3155.5027	3296.4525	3305.1252
CN1N=NC2=COC=C12	Cn1nnc2cocc12	
InChI=1S/C5H5N3O/c1-8-5-3-9-2-4(5)6-7-8/h2-3H,1H3	InChI=1S/C5H5N3O/c1-8-5-3-9-2-4(5)6-7-8/h2-3H,1H3
