18
gdb 66976	2.85514	1.50679	1.1524	2.0598	76.84	-0.2493	-0.0245	0.2247	1079.6367	0.147099	-401.892784	-401.884872	-401.883928	-401.925319	30.248	
C	 0.015254112	 1.5074729779	 0.0861713322	-0.500788
C	-0.0535993125	 0.0132896644	 0.0518630761	 0.344525
C	 0.1145059185	-1.0064955215	 1.1226553684	-0.110699
C	-0.4435879871	-2.0560673798	 0.0908674457	-0.099472
C	 0.9851336383	-2.0728465378	-0.4721870074	-0.157348
N	 1.2407297605	-0.7482094631	 0.1780813313	-0.18947
C	-1.0787925501	-0.8628848114	-0.6980118915	-0.154039
C	-2.4774773195	-0.5793830242	-0.2307694969	 0.156696
O	-3.4105684834	-0.3352651604	-0.9534520219	-0.263693
H	 0.7793138173	 1.8346940995	 0.7958893865	 0.138768
H	 0.2784865318	 1.9056720999	-0.8997857452	 0.132975
H	-0.9450896181	 1.942828944	 0.3808532816	 0.128404
H	 0.1971108871	-0.9571058841	 2.2002744846	 0.105187
H	-1.0207252273	-2.9569014198	 0.291967328	 0.08826
H	 1.625498577	-2.8200796472	 0.0034853304	 0.115821
H	 1.1194499221	-2.1000770308	-1.5594822867	 0.105308
H	-1.0494739742	-0.896246076	-1.7912711684	 0.086051
H	-2.6012963825	-0.6126912197	 0.8776044133	 0.073515
79.8505	156.8339	193.2673	236.5773	267.952	341.2926	415.2461	474.326	513.2317	614.8879	740.0497	753.1595	817.4333	829.2219	907.043	936.3952	960.754	979.7151	998.9973	1023.6442	1029.2277	1072.2287	1083.6735	1132.2566	1149.668	1163.8583	1170.4671	1209.0465	1224.5915	1257.4912	1293.49	1313.6134	1392.9677	1426.5979	1436.0888	1483.2313	1490.6925	1509.4465	1824.8526	2852.444	3036.2391	3039.0436	3072.4364	3098.8501	3105.8145	3122.5792	3132.7995	3205.2669
CC12C3C(CN13)C2C=O	C[C@]12[C@H]3[C@H](CN13)[C@H]2C=O	
InChI=1S/C7H9NO/c1-7-5(3-9)4-2-8(7)6(4)7/h3-6H,2H2,1H3	InChI=1S/C7H9NO/c1-7-5(3-9)4-2-8(7)6(4)7/h3-6H,2H2,1H3/t4-,5-,6-,7+,8?/m1/s1
