21
gdb 115353	2.1525	1.4832	1.21487	1.2988	73.94	-0.2556	0.0763	0.3319	1163.7923	0.182361	-461.366092	-461.356483	-461.355539	-461.400924	35.232	
C	-0.5070180422	 0.9759378647	-0.1145129618	-0.246208
O	-0.1495826313	-0.3840234755	 0.0614164584	-0.268337
C	 0.7337284871	-0.6118310337	 1.1424159887	 0.178457
O	 0.1484891026	-0.3889832069	 2.3883445058	-0.256885
C	-0.5903491065	-1.5629094884	 2.7818455785	-0.09215
C	-0.0865939715	-2.7473385052	 1.9243804475	-0.049057
C	-1.1779501407	-3.3553671514	 1.0396744817	-0.407905
C	 1.0829885627	-2.1084675012	 1.1072196553	 0.096842
O	 1.2819989526	-2.6114246615	-0.1890859614	-0.435577
H	 0.3779112117	 1.5931886619	-0.3278283295	 0.112574
H	-1.1889068567	 1.0234251041	-0.9660346728	 0.12852
H	-1.006543062	 1.372038134	 0.7768137713	 0.130886
H	 1.5946402775	 0.0655172753	 1.0643203036	 0.07648
H	-0.4165149758	-1.700998984	 3.8527887388	 0.107246
H	-1.6627818246	-1.3885808078	 2.6297448854	 0.101822
H	 0.3169877332	-3.5310857731	 2.5715685284	 0.078605
H	-1.6429456721	-2.5899396749	 0.4108751613	 0.12433
H	-0.7606132206	-4.1259057799	 0.3869175784	 0.12859
H	-1.9609500881	-3.8113994436	 1.6540630421	 0.108113
H	 2.0221909571	-2.2491919349	 1.6509806849	 0.091565
H	 0.6703998777	-2.1251209779	-0.7572597246	 0.292089
49.0671	90.4599	131.9385	183.2595	214.6433	247.2577	270.6467	322.8473	369.4464	432.2741	479.7499	532.6929	560.0751	703.1388	747.0334	798.2992	889.9622	940.7726	947.088	983.7661	1024.8196	1074.4949	1096.574	1107.2056	1134.8205	1152.3224	1166.0149	1182.5821	1206.7193	1246.9485	1267.2905	1296.7746	1333.0552	1339.7185	1369.3458	1390.1827	1399.1877	1412.6882	1451.6844	1478.8482	1484.6785	1495.2074	1510.1174	1512.9776	1525.2324	2998.2305	3022.5539	3025.6725	3040.2303	3051.3417	3067.2944	3070.8734	3084.7655	3108.4154	3125.8829	3127.781	3770.3416
COC1OCC(C)C1O	CO[C@H]1OC[C@@H](C)[C@H]1O	
InChI=1S/C6H12O3/c1-4-3-9-6(8-2)5(4)7/h4-7H,3H2,1-2H3	InChI=1S/C6H12O3/c1-4-3-9-6(8-2)5(4)7/h4-7H,3H2,1-2H3/t4-,5-,6+/m1/s1
