19
gdb 104356	2.31485	1.4596	1.18989	2.9374	71.16	-0.247	-0.0299	0.2171	1123.9493	0.15792	-460.186584	-460.177377	-460.176432	-460.220701	34.058	
C	-0.0674410103	 1.5883921107	 0.0479068505	-0.427658
C	-0.0461994574	 0.0558724431	 0.0443219184	 0.226529
C	-1.4647639895	-0.5365080598	 0.0383762817	-0.073027
O	-2.160464836	-0.189446142	-1.1399995668	-0.422514
O	 0.611801249	-0.45567917	-1.1229776159	-0.312432
C	 1.9760102114	-0.751533979	-0.8101748902	-0.100214
C	 1.9663523873	-1.2367158127	 0.6401513037	-0.33675
C	 0.7688959325	-0.4882158903	 1.225333819	 0.360955
O	 0.4927258201	-0.3409842878	 2.3868713394	-0.320001
H	 0.9342599013	 1.9987937201	-0.1094245415	 0.115375
H	-0.724320142	 1.940645388	-0.7502758594	 0.140505
H	-0.4418255167	 1.9518370307	 1.0090087355	 0.137667
H	-1.3962271702	-1.6289546906	 0.15614687	 0.086502
H	-2.0304997826	-0.138645867	 0.8851215862	 0.12675
H	-1.6089069232	-0.4847247263	-1.8745704439	 0.293532
H	 2.3230723481	-1.4973807977	-1.528354897	 0.119423
H	 2.6010092947	 0.1473410163	-0.919502874	 0.104974
H	 1.7562306404	-2.3113014064	 0.7009111627	 0.142811
H	 2.877421683	-1.0370164595	 1.2069398315	 0.137571
60.524	114.8464	157.3398	175.7263	227.3863	251.1874	326.97	330.4601	434.0865	459.0754	533.9103	555.1264	608.9507	673.3247	728.6679	835.2651	872.5956	918.158	943.2147	971.4503	1026.3205	1041.2935	1074.3801	1104.1814	1134.6358	1188.1164	1202.514	1235.3832	1252.4795	1256.4613	1285.0644	1383.4451	1386.5945	1399.5099	1424.0086	1445.7464	1483.955	1495.1192	1497.2273	1521.9065	1849.0716	2984.9545	2994.3235	3046.4155	3048.5295	3100.1535	3103.3839	3119.5089	3125.4448	3138.3879	3792.1351
CC1(CO)OCCC1=O	C[C@@]1(CO)OCCC1=O	
InChI=1S/C6H10O3/c1-6(4-7)5(8)2-3-9-6/h7H,2-4H2,1H3	InChI=1S/C6H10O3/c1-6(4-7)5(8)2-3-9-6/h7H,2-4H2,1H3/t6-/m0/s1
