22
gdb 117643	2.72431	0.9833	0.86887	14.8345	82.44	-0.1661	-0.0138	0.1523	1444.5281	0.192271	-441.455378	-441.444443	-441.443499	-441.491722	39.252	
C	-0.0173923144	 1.5788157438	 0.0068665571	-0.344299
N	 0.0168853649	 0.0910658074	-0.0258175547	-0.253921
H	 0.4895305011	-0.2775744062	 0.8026983714	 0.307188
H	-0.9305733504	-0.2926939283	 0.0019890959	 0.30719
C	 0.7192528101	-0.5266104211	-1.2597249471	-0.208229
C	 0.6925065347	-2.0400744685	-1.1831870174	 0.124054
C	 1.4617559493	-2.5749497363	 0.0305080709	-0.440298
C	-0.7350899532	-2.5988106477	-1.2083695463	-0.4403
C	 1.4540188431	-2.5336644683	-2.5238436816	 0.37096
O	 1.8489440092	-1.5936719233	-3.2417486492	-0.482164
O	 1.5258827314	-3.7617889995	-2.6268981834	-0.466293
H	 1.008783439	 1.9466736518	-0.0082571059	 0.188054
H	-0.5414690231	 1.9301612383	-0.8822253467	 0.188047
H	-0.528749942	 1.9235586585	 0.9073984656	 0.166786
H	 0.1898083696	-0.1450036849	-2.131863243	 0.157791
H	 1.7331190477	-0.1283410865	-1.2617856466	 0.157822
H	 0.9419076856	-2.4303882854	 0.9947373494	 0.05513
H	 1.5962915913	-3.6500419361	-0.1116122875	 0.16651
H	 2.4600218957	-2.1270990354	 0.1055317315	 0.112178
H	-1.3230553353	-2.1681938789	-2.0278817032	 0.11217
H	-0.6653616693	-3.6746031456	-1.3870394329	 0.166496
H	-1.2935981549	-2.4546206477	-0.2659545863	 0.055131
51.1566	80.7237	97.0644	133.8292	216.0552	228.6753	262.9734	269.0619	273.8657	304.3307	336.3867	365.9737	386.0686	508.624	627.2002	770.2353	778.9101	780.7755	785.6319	811.5858	918.5885	951.0319	992.3473	1008.4022	1008.8244	1060.6548	1123.2676	1174.4459	1232.0111	1263.2727	1285.0111	1293.2638	1328.6616	1352.7255	1375.2047	1382.0365	1408.7526	1455.9913	1458.7778	1469.4997	1491.7164	1494.4616	1498.1832	1499.1502	1511.8601	1654.3586	1792.0308	2934.6397	2942.5003	3053.9909	3055.9081	3073.1533	3115.0297	3120.6995	3123.8234	3163.85	3175.3473	3180.2736	3424.6139	3479.7358
C[NH2+]CC(C)(C)C([O-])=O	C[NH2]CC(C)(C)C(=O)[O]	
InChI=1S/C6H13NO2/c1-6(2,4-7-3)5(8)9/h7H,4H2,1-3H3,(H,8,9)	InChI=1S/C6H13NO2/c1-6(2,4-7-3)5(8)9/h4,7H2,1-3H3
