16
gdb 77363	3.01553	1.27752	0.95046	1.4058	66.64	-0.2681	-0.0391	0.229	1173.5211	0.123914	-475.044302	-475.035873	-475.034929	-475.07811	30.313	
O	 0.5932075397	 0.9716984351	 0.5848464453	-0.437478
C	 0.1751159759	-0.2550938101	 0.0641591454	 0.042756
C	-1.3580019251	-0.4039378635	-0.0800928832	-0.131908
C	-1.4602640223	-1.4177167411	-1.2256040958	-0.10944
O	-0.2868640946	-1.2008855549	-2.0480834891	-0.234932
C	 0.6243734432	-0.4691372203	-1.3700961291	 0.395654
N	 1.6946733815	 0.030299558	-1.8121682536	-0.565771
C	-2.0427276061	-0.8234480504	 1.1987667617	 0.128531
O	-2.5909584917	-1.8851546741	 1.357707437	-0.240637
H	 1.3563550927	 1.2341706746	 0.0465710774	 0.301815
H	 0.5612724328	-1.0934667576	 0.6703879631	 0.109535
H	-1.7416729743	 0.5809600708	-0.3748152231	 0.11803
H	-1.4562340154	-2.4440123888	-0.8484989624	 0.143451
H	-2.3370319362	-1.277310213	-1.8590805712	 0.136518
H	 1.843508163	-0.1695416178	-2.8007323432	 0.235638
H	-1.9912592633	-0.070657717	 2.0139349207	 0.108238
62.3945	83.228	157.2267	193.0647	270.4869	305.8366	361.462	391.4928	493.5739	544.3353	636.1046	683.3113	716.603	843.9717	876.93	897.1014	952.1759	986.5292	1024.0494	1093.8351	1105.1251	1110.7613	1156.5157	1215.398	1245.9015	1265.5139	1282.3521	1349.7487	1373.2389	1410.8964	1419.2511	1434.0355	1521.8384	1784.8604	1822.017	2912.4802	2950.6404	3043.5383	3075.3759	3131.6346	3501.0696	3706.0476
OC1C(COC1=N)C=O	O[C@H]1[C@@H](CO[C]1[NH])C=O	
InChI=1S/C5H7NO3/c6-5-4(8)3(1-7)2-9-5/h1,3-4,6,8H,2H2	InChI=1S/C5H7NO3/c6-5-4(8)3(1-7)2-9-5/h1,3-4,6,8H,2H2/t3-,4+/m1/s1
