14
gdb 19245	3.20386	2.10614	1.62061	3.7173	61.36	-0.2591	0.0016	0.2607	798.301	0.107685	-378.676036	-378.668988	-378.668044	-378.707318	26.102	
O	-0.1795250233	 1.4532763811	 0.1194778898	-0.411785
C	-0.0379023234	 0.0689285822	-0.0081414323	 0.098187
C	-1.3587691326	-0.6780030916	-0.0076710476	-0.032035
C	-2.1600161685	-0.33256831	-1.1956049313	-0.242391
N	-1.089845198	-1.3358663742	-1.3616295863	-0.130181
C	 0.2039213668	-0.5606070012	-1.4362441481	-0.189432
C	 0.3521261449	 0.3624767453	-2.5507093904	 0.311229
N	 0.4828452192	 1.1196236696	-3.4147638369	-0.327208
H	 0.6879762194	 1.8681907405	 0.0583600983	 0.297178
H	 0.6818365805	-0.3422729925	 0.7092893147	 0.0946
H	-1.752623354	-1.2447511499	 0.8277742771	 0.10938
H	-3.1470865418	-0.776666257	-1.267825324	 0.135832
H	-2.0582538	 0.6434763568	-1.6604550225	 0.154749
H	 1.0364907907	-1.2677542491	-1.4388917605	 0.131877
118.4595	132.9077	213.8671	296.2943	345.3111	403.2251	513.4149	557.9149	625.2748	757.8979	768.4033	793.0342	825.3429	951.8919	984.3984	1020.2619	1041.6797	1067.2256	1115.9544	1140.8788	1145.9833	1194.7721	1230.9695	1240.1012	1305.7474	1344.2474	1372.8717	1436.6442	1500.7005	2351.3048	3035.901	3089.637	3129.1806	3186.1265	3221.0217	3809.4556
OC1C2CN2C1C#N	O[C@H]1[C@H]2CN2[C@H]1C#N	
InChI=1S/C5H6N2O/c6-1-3-5(8)4-2-7(3)4/h3-5,8H,2H2	InChI=1S/C5H6N2O/c6-1-3-5(8)4-2-7(3)4/h3-5,8H,2H2/t3-,4+,5+,7?/m0/s1
