17
gdb 100865	2.25483	1.13632	0.80836	1.9625	66.26	-0.2666	-0.0698	0.1968	1360.4003	0.131857	-496.098863	-496.088734	-496.08779	-496.135449	34.669	
O	 0.2722671054	 1.3470986602	-0.0532804461	-0.418252
C	 0.2087287159	-0.0597390415	-0.090103657	-0.075266
C	-1.2367555483	-0.5394037033	 0.0482518543	 0.088658
O	-2.0507948246	 0.1074327614	-0.9403688448	-0.444144
C	-1.4073664389	-2.0572794592	-0.0392819598	-0.221352
C	-0.8205521712	-2.8237294895	 1.1465386397	 0.136364
O	-0.3754686606	-2.3045185812	 2.1356372375	-0.226281
C	-2.8917763819	-2.4416256858	-0.1236676853	 0.152622
O	-3.2896114416	-3.4214576598	-0.6934549543	-0.241968
H	-0.4678284208	 1.6609603897	-0.5883716297	 0.286247
H	 0.6288310951	-0.460938735	-1.0329053029	 0.070082
H	 0.8136352102	-0.441795051	 0.7358516231	 0.136596
H	-1.6273538874	-0.1830405978	 1.0065148592	 0.122635
H	-1.7710063458	-0.2062045103	-1.8095940541	 0.287643
H	-0.93731901	-2.4721988041	-0.9422108588	 0.115514
H	-0.860146268	-3.9268054354	 1.0291279797	 0.117598
H	-3.5731637577	-1.7572013574	 0.4213729692	 0.113305
32.8253	71.8519	90.884	118.059	158.9704	209.6968	279.0344	326.7266	368.3548	373.5977	389.8651	488.5152	510.6927	589.1096	708.6901	852.6224	879.7245	895.3477	1000.8564	1051.6715	1066.0158	1098.5978	1123.9444	1124.8863	1204.5443	1214.688	1236.2853	1299.7615	1361.5705	1381.5765	1405.4033	1416.2457	1422.0874	1443.8694	1508.1689	1803.7982	1843.53	2917.8339	2919.4226	2929.2438	3022.7745	3079.7984	3106.9114	3772.4778	3778.161
OCC(O)C(C=O)C=O	OC[C@@H](O)C(C=O)C=O	
InChI=1S/C5H8O4/c6-1-4(2-7)5(9)3-8/h1-2,4-5,8-9H,3H2	InChI=1S/C5H8O4/c6-1-4(2-7)5(9)3-8/h1-2,4-5,8-9H,3H2/t5-/m1/s1
