18
gdb 43089	3.19256	1.72131	1.63612	3.3785	73.97	-0.2414	-0.0175	0.2239	897.5358	0.151674	-401.959211	-401.952963	-401.952019	-401.989623	26.428	
O	-0.0118901168	 0.018182375	 0.0835820062	-0.319599
C	-0.0211158068	 1.2123063554	 0.0309541035	 0.453146
C	-1.0871821818	 2.3014400998	-0.0322989964	-0.128688
C	-1.2788284094	 2.9010677954	 1.403335321	-0.249929
C	-0.0344917472	 3.8075080341	 1.5071243438	-0.018414
C	 1.2224556107	 2.9199299959	 1.3928312407	-0.24993
C	 1.0278267864	 2.3173931897	-0.0411910837	-0.12869
N	-0.039049197	 3.1892034399	-0.6881422	-0.118672
C	-0.0451410065	 4.4366731013	 0.1012580822	-0.172125
H	-2.0079102811	 2.1370339421	-0.59319758	 0.096132
H	-2.2010842536	 3.4875924516	 1.4561685713	 0.110096
H	-1.3279514205	 2.1268791027	 2.1741410515	 0.117764
H	-0.0360480131	 4.4884626344	 2.3593301599	 0.071574
H	 2.1361740851	 3.5202970771	 1.4379537617	 0.110096
H	 1.2897191881	 2.1466143065	 2.1631433597	 0.117764
H	 1.946192951	 2.1668686549	-0.6098059147	 0.096132
H	-0.9409003906	 5.0261496523	-0.1158011718	 0.106672
H	 0.839772503	 5.0395768421	-0.1232801849	 0.106672
144.0828	256.6852	383.4862	435.066	479.2932	544.3042	588.6053	677.646	772.2587	788.788	831.0297	867.738	868.0786	882.2508	896.1712	906.7307	953.4718	961.0076	981.5727	1032.7188	1058.9872	1074.0281	1097.0394	1119.3691	1125.3775	1153.4488	1214.2136	1228.7043	1246.9661	1250.9718	1293.2915	1295.8547	1296.4943	1319.3856	1342.6377	1491.5695	1493.0221	1516.296	1910.1848	3052.0735	3053.4998	3056.948	3098.0385	3101.4594	3106.0947	3108.5089	3109.0196	3112.8213
O=C1C2CC3CC1N2C3	O=C1[C@H]2C[C@H]3C[C@@H]1N2C3	
InChI=1S/C7H9NO/c9-7-5-1-4-2-6(7)8(5)3-4/h4-6H,1-3H2	InChI=1S/C7H9NO/c9-7-5-1-4-2-6(7)8(5)3-4/h4-6H,1-3H2/t4-,5+,6-
