17
gdb 31555	3.28268	1.1351	0.8584	2.3276	73.06	-0.1653	0.0632	0.2285	1316.5069	0.137213	-451.352808	-451.343368	-451.342423	-451.386962	34.345	
C	 0.0472938627	 1.2929689564	-0.2529803335	-0.337019
N	-0.0388624867	-0.0547527658	 0.282298434	-0.373594
C	-1.221029667	-0.7608897637	 0.1575887373	 0.439644
N	-1.2991787037	-2.0812403077	 0.1265176574	-0.435927
C	-2.6421285908	-2.3522881555	 0.0781125082	 0.300834
O	-3.0972806868	-3.6286314565	 0.0335790045	-0.448413
C	-3.403006953	-1.2177070045	 0.0681592858	 0.129941
N	-4.7757432034	-0.9158814413	 0.0084438513	-0.622151
N	-2.443194993	-0.1821052281	 0.1129169226	-0.324327
H	 1.0724673846	 1.6517067912	-0.1408414431	 0.135253
H	-0.2379524603	 1.3697198984	-1.3138266499	 0.118798
H	-0.592432245	 1.9724280691	 0.3224997411	 0.126854
H	 0.7474366127	-0.648811298	 0.0616810754	 0.249936
H	-2.3130348969	-4.1892771058	 0.058158982	 0.295368
H	-5.2833930306	-1.2747109902	 0.8105912311	 0.242916
H	-5.2168311694	-1.2965561628	-0.8223620774	 0.242855
H	-2.6725131736	 0.795391525	 0.1559263934	 0.259032
66.0468	139.6541	175.8762	196.3852	213.261	268.1826	271.532	335.0904	348.8997	374.1346	449.035	545.7959	572.788	669.5796	690.1659	709.33	747.0639	772.1417	844.5828	1021.6382	1090.1403	1133.5617	1155.8508	1188.2078	1214.2678	1233.0113	1265.4856	1365.0248	1404.9422	1438.0479	1468.7299	1488.6524	1516.6713	1543.0341	1629.9225	1664.2082	1714.8714	2981.0751	3054.4108	3123.5757	3494.5806	3552.6861	3606.4782	3681.6044	3809.2765
CNC1=NC(O)=C(N)N1	CNc1nc(O)c(N)[nH]1	
InChI=1S/C4H8N4O/c1-6-4-7-2(5)3(9)8-4/h9H,5H2,1H3,(H2,6,7,8)	InChI=1S/C4H8N4O/c1-6-4-7-2(5)3(9)8-4/h9H,5H2,1H3,(H2,6,7,8)
