18
gdb 23418	3.36306	1.26853	1.04756	2.1607	75.45	-0.246	-0.0048	0.2412	1153.9871	0.148961	-439.036904	-439.029116	-439.028172	-439.06943	29.99	
O	-0.189514185	 1.3188930463	 0.2003877791	-0.387488
N	-0.085188663	-0.0699521936	 0.361680315	-0.232432
C	-1.1199592664	-0.6761857226	-0.063599878	 0.426367
C	-2.4150939717	-0.1261790465	-0.6126742577	-0.319613
C	-3.468292701	-1.1455808103	-0.112397881	-0.234432
C	-2.7364419917	-2.4977609845	-0.0204853716	-0.077243
C	-2.4061454458	-3.1951947359	-1.3552012821	-0.076522
O	-1.0207104062	-2.795418195	-1.2827162938	-0.293485
C	-1.2151514346	-2.1745487688	 0.0178184284	 0.038898
H	 0.6335723684	 1.6315356814	 0.5913703076	 0.308145
H	-2.5992357012	 0.8967883574	-0.2823191525	 0.131815
H	-2.3688116269	-0.1112355429	-1.708618351	 0.132115
H	-3.8118988964	-0.8518614222	 0.8851832933	 0.110503
H	-4.3510222968	-1.1928291477	-0.7573053152	 0.104265
H	-3.1326603904	-3.1489192549	 0.7586647699	 0.082051
H	-2.5118914445	-4.287136296	-1.3527077275	 0.102179
H	-2.9073306693	-2.7926723081	-2.2453550854	 0.099131
H	-0.5696939073	-2.6150214859	 0.7813006926	 0.085746
81.8533	141.5944	195.2075	238.071	348.0038	368.1151	407.283	460.676	568.6124	641.5505	686.3242	776.0226	812.3205	862.5084	875.4136	901.784	950.5082	956.7551	971.441	1005.3515	1024.028	1076.7373	1093.1663	1157.8257	1174.3507	1190.1054	1230.3447	1242.0191	1271.7785	1297.3764	1303.2067	1334.7297	1339.9832	1367.2856	1411.9383	1475.3038	1493.6482	1526.0943	1756.0767	3007.5812	3040.2524	3045.7776	3049.3362	3085.6868	3089.5221	3111.5453	3126.6611	3814.6425
ON=C1CCC2COC12	ON=C1CC[C@H]2CO[C@@H]12	
InChI=1S/C6H9NO2/c8-7-5-2-1-4-3-9-6(4)5/h4,6,8H,1-3H2	InChI=1S/C6H9NO2/c8-7-5-2-1-4-3-9-6(4)5/h4,6,8H,1-3H2/t4-,6+/m0/s1
