18
gdb 87587	2.59512	1.46041	1.27239	2.3108	72.28	-0.2326	0.0751	0.3078	1061.8735	0.147442	-439.00685	-438.998662	-438.997718	-439.039429	32.087	
O	-0.1212365129	 1.4102170294	-0.098178684	-0.424431
C	-0.0396593685	 0.015837415	-0.0463951731	 0.046528
C	-0.4411395937	-0.7035129109	 1.2258599915	-0.418767
C	-1.3298295952	-0.718946848	 0.0103745615	 0.352603
C	-2.7259090405	-0.1591606513	-0.112954854	-0.144604
N	-2.9932239271	-0.0783121955	-1.5763183549	-0.356252
C	-3.1787919536	-1.3655598679	-0.8613106147	-0.077105
C	-1.7614908541	-1.9730319445	-0.8115997607	 0.04552
O	-1.1309143201	-2.2064035871	-2.0373816411	-0.438203
H	 0.6411868869	 1.7681757318	 0.3686619381	 0.287171
H	 0.7503618429	-0.4323756408	-0.6495908446	 0.095256
H	 0.0793693871	-1.6157752798	 1.5026839539	 0.112926
H	-0.7500173884	-0.0793790392	 2.0591460713	 0.111752
H	-3.2657077373	 0.4633990236	 0.5882389406	 0.098946
H	-3.9145506795	 0.3389723089	-1.7009496102	 0.232808
H	-4.1323578954	-1.8783905058	-0.8663999305	 0.094068
H	-1.7019137412	-2.8945988886	-0.2268082061	 0.089298
H	-1.3243322995	-1.4229034594	-2.5718819129	 0.292488
108.8335	134.5687	178.3897	233.3329	306.307	318.5179	436.3724	476.1293	485.8174	546.485	602.8836	694.0926	755.2674	816.3973	832.7579	835.2755	888.8863	905.3574	958.8791	973.4358	1005.768	1026.6696	1038.5398	1074.902	1090.3279	1109.0927	1130.8286	1164.311	1177.6665	1216.6693	1257.4321	1287.4203	1296.0416	1314.5899	1346.3754	1385.7912	1432.7426	1442.7634	1501.6388	3084.0946	3099.894	3115.5812	3190.4828	3205.1866	3207.1157	3482.9528	3743.1225	3803.6328
OC1CC11C2NC2C1O	O[C@H]1C[C@]21[C@H]1N[C@H]1[C@H]2O	
InChI=1S/C6H9NO2/c8-2-1-6(2)4-3(7-4)5(6)9/h2-5,7-9H,1H2	InChI=1S/C6H9NO2/c8-2-1-6(2)4-3(7-4)5(6)9/h2-5,7-9H,1H2/t2-,3+,4-,5+,6-/m0/s1
