17
gdb 43640	4.69069	0.94818	0.8297	2.4222	75.7	-0.2421	-0.0494	0.1927	1336.2064	0.136149	-421.836393	-421.828486	-421.827542	-421.869846	29.285	
O	-0.4272116572	-0.0211166451	 0.4260108526	-0.325214
C	-0.1399780036	 1.1255063093	 0.1776138846	 0.380737
C	-1.1268763764	 2.3041861328	 0.0901401663	-0.364623
C	-0.2638478919	 3.5517985162	-0.1966739039	-0.073276
C	 1.1420546861	 2.995806216	-0.3014333216	-0.050882
C	 1.2083827391	 1.6756759737	-0.1015420086	-0.186676
C	-0.667387905	 4.2926941898	-1.457295614	 0.085137
C	-1.4790770713	 5.5146094448	-1.4223826988	-0.182331
O	-0.0696033596	 5.5730520636	-1.6581476853	-0.239118
H	-1.8494450995	 2.1033667071	-0.7081184608	 0.133385
H	-1.697448143	 2.3796738052	 1.0192364201	 0.136166
H	-0.3061586293	 4.2729145733	 0.6293370151	 0.096992
H	 1.9792631911	 3.6479488318	-0.5258011016	 0.131836
H	 2.0943601619	 1.0541106911	-0.1219627493	 0.119617
H	-0.7090201337	 3.6740000558	-2.3564446033	 0.100366
H	-2.1065108297	 5.7751627764	-2.2730742525	 0.1212
H	-1.808232648	 5.9110637282	-0.4625827591	 0.116682
53.3228	74.43	169.3238	235.9023	318.1379	360.0584	435.2293	508.3467	575.2372	656.9111	754.605	803.7384	826.534	829.3709	870.5039	909.9311	946.7714	990.3827	1011.1717	1048.9514	1089.0889	1107.3738	1128.2267	1158.8398	1173.4302	1174.3717	1207.6935	1252.7575	1283.7665	1292.3368	1296.9334	1360.4282	1437.6462	1454.5228	1528.7154	1650.0807	1819.39	3027.5511	3059.763	3084.4381	3090.6023	3107.4628	3173.1076	3196.1386	3228.8785
O=C1CC(C=C1)C1CO1	O=C1C[C@@H](C=C1)[C@H]1CO1	
InChI=1S/C7H8O2/c8-6-2-1-5(3-6)7-4-9-7/h1-2,5,7H,3-4H2	InChI=1S/C7H8O2/c8-6-2-1-5(3-6)7-4-9-7/h1-2,5,7H,3-4H2/t5-,7-/m1/s1
