16
gdb 124709	4.0168	0.98997	0.95805	4.8613	66.06	-0.2981	-0.0429	0.2552	1246.9723	0.123763	-467.329347	-467.320642	-467.319697	-467.363922	30.034	
C	-0.0744780927	 1.5613045597	 0.0106898907	-0.399744
C	 0.0399317153	 0.0383901554	-0.0221868534	 0.039645
C	 0.754557355	-0.4851935479	-1.2760869907	-0.084409
O	-0.0577863983	-0.1173163175	-2.3730625157	-0.412614
N	 0.7384277063	-0.4631570746	 1.1665456969	 0.150221
N	 1.9867335749	-0.1574494501	 1.4808379866	-0.12861
N	 2.2286275407	-0.8025051135	 2.5830105211	-0.079711
N	 1.1299822098	-1.4953201458	 2.9335628573	-0.087969
N	 0.1990574311	-1.2873019209	 2.0518239853	-0.113296
H	 0.9164684579	 2.0216657138	 0.0451908116	 0.147347
H	-0.5847480983	 1.8900846712	-0.8960356277	 0.155644
H	-0.6456086267	 1.8912468942	 0.8819503393	 0.136828
H	-0.9498200562	-0.4209586837	 0.0267283702	 0.1437
H	 1.7587247489	-0.0414178797	-1.3344913365	 0.12105
H	 0.8678205734	-1.5765858736	-1.1961417357	 0.110989
H	 0.3936482388	-0.364886197	-3.1849913394	 0.300929
36.5027	102.5546	118.2859	201.2883	223.0101	236.7872	295.7098	371.8774	407.1514	488.9643	731.607	752.7222	767.8382	886.7686	942.9058	983.3067	1021.8963	1076.5015	1102.8619	1117.3703	1141.7475	1162.6748	1179.7352	1251.7842	1258.7717	1265.0684	1331.4875	1360.6619	1382.0776	1407.564	1425.4888	1462.5404	1492.9089	1500.4342	1526.4412	2989.7994	3031.0475	3057.5105	3104.1414	3134.6176	3152.456	3841.0168
CC(CO)N1N=NN=N1	C[C@@H](CO)n1nnnn1	
InChI=1S/C3H7N5O/c1-3(2-9)8-6-4-5-7-8/h3,9H,2H2,1H3	InChI=1S/C3H7N5O/c1-3(2-9)8-6-4-5-7-8/h3,9H,2H2,1H3/t3-/m0/s1
