21
gdb 50528	2.23863	1.27402	0.89925	2.8932	83.46	-0.242	-0.0185	0.2235	1343.1026	0.182061	-387.073869	-387.0648	-387.063856	-387.108693	33.597	
O	-0.0712567319	-0.0567227385	-0.0683792663	-0.260267
C	-0.0440861293	 1.1474187359	-0.0253964851	 0.171082
C	 1.2068858672	 1.9797788923	 0.0051749736	-0.112099
C	 1.102728272	 3.2451678595	-0.9079883206	-0.241075
C	 0.7513204338	 4.103166173	 0.3334167419	-0.241815
C	 1.2920896622	 2.962259522	 1.2402733664	 0.023708
C	 0.5885924809	 2.6293801788	 2.5270512463	 0.012993
C	 1.2744615213	 1.784868603	 3.5737725008	-0.266533
C	 1.0496365674	 3.2541620181	 3.8229404313	-0.279402
H	-0.9946488931	 1.7336625987	-0.0191963546	 0.065181
H	 2.0621517904	 1.3178583588	-0.1422642729	 0.085559
H	 2.0753216186	 3.4999813713	-1.3347718927	 0.11358
H	 0.3700236883	 3.2081780471	-1.7184516571	 0.106978
H	 1.22215661	 5.0845841953	 0.4249515196	 0.102426
H	-0.32945243	 4.2305088217	 0.4507437077	 0.104998
H	 2.3546609892	 3.130970735	 1.4486337664	 0.076406
H	-0.4850910619	 2.4846020023	 2.4360347858	 0.081983
H	 0.6783352235	 1.0683517372	 4.127187205	 0.117919
H	 2.2876352801	 1.4539080808	 3.3703990873	 0.113555
H	 1.9113688033	 3.9130340153	 3.7872545347	 0.110998
H	 0.2989368081	 3.5466375522	 4.5485402926	 0.113824
50.9719	74.3478	104.2377	159.2693	219.5154	285.3299	328.7652	391.5438	447.0575	484.5331	663.6266	743.5536	792.7339	828.5184	868.99	880.4851	891.635	919.6109	939.8935	967.7302	991.5049	1022.4037	1035.2942	1058.9306	1078.9157	1093.771	1128.8318	1136.7476	1196.8837	1200.5645	1217.2046	1229.173	1248.4494	1254.2136	1266.853	1277.5373	1312.8857	1330.5539	1432.9459	1438.4738	1470.6952	1482.2968	1499.2113	1505.9257	1825.6027	2836.7388	3036.7678	3053.1247	3062.3047	3095.5537	3101.5812	3119.7934	3129.4927	3133.0098	3136.5678	3208.421	3223.859
O=CC1CCC1C1CC1	O=C[C@H]1CC[C@H]1C1CC1	
InChI=1S/C8H12O/c9-5-7-3-4-8(7)6-1-2-6/h5-8H,1-4H2	InChI=1S/C8H12O/c9-5-7-3-4-8(7)6-1-2-6/h5-8H,1-4H2/t7-,8+/m1/s1
