20
gdb 23169	2.10688	1.33538	0.88536	0.5416	80.54	-0.2465	-0.0026	0.2439	1346.4503	0.168305	-440.222273	-440.212248	-440.211304	-440.257702	36.127	
C	 0.3995142236	 1.3739110101	-0.0552770562	-0.240413
O	-0.1184324301	 0.0889402698	 0.2293592211	-0.237995
C	 0.5824351026	-0.5793651807	 1.2521889439	 0.018532
C	 0.0499627205	-2.0418923326	 1.4441162558	-0.003343
C	-1.2978855562	-2.391128283	 0.8330970236	-0.400053
C	 1.3391668716	-2.5973670854	 0.7495188418	-0.340729
C	 1.906061666	-1.1966747058	 0.8109278149	 0.406805
N	 3.0390189317	-0.650264944	 0.6594282801	-0.243367
O	 4.0068899756	-1.590423991	 0.2617874342	-0.386932
H	 1.4470710055	 1.3266884607	-0.3796553475	 0.130273
H	-0.2114227356	 1.7933739207	-0.8580783984	 0.124163
H	 0.3380807166	 2.0328908795	 0.8248875088	 0.103773
H	 0.6294372846	 0.0452655775	 2.1570182248	 0.070352
H	 0.0598899013	-2.2889161149	 2.5099601971	 0.080773
H	-1.3336444017	-2.1111476027	-0.2224176339	 0.131537
H	-1.4845404332	-3.46731778	 0.9138679247	 0.11099
H	-2.1128658223	-1.8677914994	 1.3428987028	 0.118834
H	 1.9099758121	-3.3663748173	 1.275707682	 0.124139
H	 1.1644907482	-2.9397309046	-0.2766349481	 0.126321
H	 4.8042768393	-1.0522915869	 0.2092471784	 0.306342
41.9557	104.5601	138.3808	179.2644	184.6383	221.4024	227.3151	307.6458	359.1542	373.7852	411.6595	462.1075	531.6873	617.9553	687.7966	787.7661	854.5985	891.9287	930.0984	969.0659	980.2187	1064.8119	1076.4991	1120.1554	1142.3747	1161.4358	1185.6761	1195.6138	1222.7131	1227.9307	1268.0382	1287.1044	1355.9321	1361.3445	1401.9116	1411.4301	1458.7828	1478.3379	1484.9885	1490.3454	1499.064	1512.3521	1773.5819	2981.4912	2987.8197	3038.114	3047.3831	3051.0254	3060.4143	3101.5876	3105.7137	3118.9416	3126.483	3814.934
COC1C(C)CC1=NO	CO[C@H]1[C@@H](C)CC1=NO	
InChI=1S/C6H11NO2/c1-4-3-5(7-8)6(4)9-2/h4,6,8H,3H2,1-2H3	InChI=1S/C6H11NO2/c1-4-3-5(7-8)6(4)9-2/h4,6,8H,3H2,1-2H3/t4-,6-/m0/s1
