17
gdb 37644	3.29029	2.37358	2.10697	0.2218	72.24	-0.2067	0.0611	0.2678	748.9678	0.140666	-380.779944	-380.774758	-380.773813	-380.809101	23.402	
C	-0.0515832791	 1.5670835717	-0.0824874018	-0.252007
C	 1.4922076016	 1.4532351867	 0.0122356941	-0.02973
C	 2.0881015154	 1.181081667	-1.3493210502	-0.039284
C	 2.659546664	-0.1728993011	-1.4367978294	-0.047204
C	 1.8898930841	-0.9194931692	-0.3455509323	-0.039884
C	 0.6030560498	-0.7196698252	-1.1721266017	-0.011822
C	-0.0203771289	 0.036935053	 0.0220814719	 0.011143
N	 1.362137668	 0.0864623592	 0.6666896725	-0.150235
N	 1.3665791313	 0.1582105493	-2.1633745688	-0.170142
H	-0.4963722222	 2.0174885721	 0.8068696303	 0.11309
H	-0.4655579255	 2.0237903076	-0.9837350084	 0.112383
H	 2.0487058195	 2.1990177789	 0.585838267	 0.076564
H	 2.4834470042	 1.9952604169	-1.9488684582	 0.098207
H	 3.565014122	-0.4616650781	-1.9577546976	 0.098612
H	 2.2532088029	-1.8546207919	 0.0768870849	 0.078947
H	 0.0545053719	-1.49937778	-1.7015295502	 0.078528
H	-0.8115119788	-0.4945238168	 0.5579815078	 0.072834
318.3041	410.7572	549.5844	629.4759	675.0518	689.4375	715.7729	761.0009	795.1127	831.0562	864.0155	868.0341	898.7765	922.596	932.0319	960.3937	980.004	987.6543	995.2637	1040.82	1048.9579	1060.0293	1094.9974	1124.989	1180.7204	1189.6972	1205.4444	1230.1181	1243.6879	1247.3805	1257.1419	1285.0176	1302.6517	1323.7059	1347.6149	1385.0477	1480.4133	3064.1207	3068.8348	3077.2908	3100.5889	3127.436	3131.4108	3160.82	3182.0045
C1C2C3C4C5C(C1N25)N34	C1[C@@H]2[C@H]3[C@H]4[C@@H]5[C@@H]([C@H]1N25)N34	
InChI=1S/C7H8N2/c1-2-4-6-7-5(9(4)7)3(1)8(2)6/h2-7H,1H2	InChI=1S/C7H8N2/c1-2-4-6-7-5(9(4)7)3(1)8(2)6/h2-7H,1H2/t2-,3+,4+,5-,6-,7-,9?/m0/s1
