22
gdb 7199	2.70691	1.04462	0.79936	1.7884	75.69	-0.2458	0.0814	0.3272	1483.9115	0.197478	-387.337184	-387.326549	-387.325605	-387.373649	37.048	
C	-0.0706146127	 1.5062765734	-0.0793339511	-0.382992
C	-0.0217999839	 0.0054333275	 0.1576817079	-0.036456
O	-1.3126223256	-0.5223274339	-0.0749996107	-0.258299
C	-1.4169372612	-1.9415749393	-0.006153532	 0.139378
C	-1.446683047	-2.4397712871	 1.4416337104	-0.401739
C	-2.6850695067	-2.3244988933	-0.7710939076	-0.204199
C	-2.630795502	-1.9579600516	-2.255075048	-0.06652
O	-3.802239273	-2.3486336361	-2.9581251663	-0.421117
H	 0.914341916	 1.9519875578	 0.0892962339	 0.113721
H	-0.3802592541	 1.7235524397	-1.1056096659	 0.124849
H	-0.7858340902	 1.978116439	 0.6004914424	 0.125796
H	 0.7078634604	-0.4690529158	-0.5201203678	 0.084848
H	 0.3127904781	-0.2022346776	 1.1861720511	 0.087898
H	-0.5449767419	-2.3866778884	-0.5178361277	 0.06256
H	-1.5256314291	-3.5311210843	 1.4699852959	 0.115684
H	-0.5388557435	-2.1590339378	 1.9830317724	 0.115952
H	-2.3062577057	-2.0158964155	 1.9705713177	 0.121554
H	-2.8592075256	-3.4019458418	-0.6752084661	 0.101412
H	-3.5376518425	-1.8159260729	-0.2999335074	 0.09209
H	-2.4324031954	-0.8833482469	-2.3615187058	 0.102809
H	-1.8058818381	-2.4922816911	-2.7407306367	 0.103399
H	-4.534131646	-1.8251801238	-2.6167377586	 0.279372
50.2755	76.9461	81.1904	114.4403	173.6997	211.293	227.6472	255.5823	293.758	329.583	357.2382	432.7429	487.7804	537.0256	774.4077	820.2259	842.2108	911.5452	953.2457	974.2959	1015.4089	1076.072	1094.6433	1105.4179	1124.1759	1146.6358	1161.3359	1187.2081	1223.4278	1292.3679	1296.1506	1317.6049	1365.3153	1371.2927	1402.8701	1403.1259	1406.4311	1419.6556	1436.1739	1473.6714	1483.4627	1491.0547	1496.9693	1500.2247	1517.5162	1530.8	2942.8449	2961.3887	2991.9452	3015.9396	3020.3831	3038.9628	3043.9874	3059.542	3083.5636	3110.8557	3114.2042	3118.4231	3120.4598	3816.3056
CCOC(C)CCO	CCO[C@@H](C)CCO	
InChI=1S/C6H14O2/c1-3-8-6(2)4-5-7/h6-7H,3-5H2,1-2H3	InChI=1S/C6H14O2/c1-3-8-6(2)4-5-7/h6-7H,3-5H2,1-2H3/t6-/m0/s1
