23
gdb 118411	2.13619	0.76878	0.58635	1.8991	91.99	-0.2467	0.0527	0.2994	1974.8758	0.203059	-388.27365	-388.261851	-388.260907	-388.312347	40.686	
C	-0.1324126927	 1.6206555127	 0.0707503283	-0.38539
C	-0.0031344854	 0.0978892244	-0.0297944953	-0.175855
C	 0.7542755906	-0.505104629	 1.1598347537	-0.17094
C	 0.8063005483	-2.0503552547	 1.1691588877	-0.188598
C	 1.6209189522	-2.6290642816	-0.012419313	-0.048669
O	 1.6735831268	-4.0388660599	 0.006703004	-0.423982
C	 1.3649843403	-2.5562881944	 2.4251009841	 0.023014
C	 1.8641858637	-2.9871271155	 3.4348645579	 0.089567
C	 2.4427008662	-3.490637078	 4.673666399	-0.499659
H	 0.8521293362	 2.1003498212	 0.1026732963	 0.115719
H	-0.6751403751	 2.031794028	-0.7859790141	 0.113254
H	-0.6708759097	 1.9127996606	 0.979105633	 0.115462
H	-1.003214865	-0.3522165752	-0.0866243167	 0.098081
H	 0.49995151	-0.1582446985	-0.9696890333	 0.104057
H	 1.7800611514	-0.1148625316	 1.1877577804	 0.101799
H	 0.2797607951	-0.1747989343	 2.0912712032	 0.104547
H	-0.21911429	-2.4343137396	 1.0700229485	 0.104898
H	 1.1472242175	-2.3551384447	-0.9590534613	 0.107322
H	 2.6290653186	-2.1824460951	 0.0027140085	 0.08606
H	 1.9841872995	-4.2903670276	 0.8855478092	 0.280825
H	 2.0439491842	-4.4787635019	 4.9284161962	 0.149346
H	 3.5319116261	-3.5814644773	 4.5989061218	 0.148411
H	 2.2243438415	-2.820037728	 5.512050222	 0.150732
38.2972	64.5349	71.1396	79.182	122.9985	140.9121	206.5729	247.733	249.5646	311.1326	320.807	337.3389	420.15	454.6398	516.6573	584.6759	727.0418	743.0617	848.1395	902.3644	956.4823	989.988	1031.4668	1052.6813	1055.1158	1068.602	1090.4574	1121.2925	1141.557	1176.2662	1218.7567	1250.172	1296.2592	1314.3447	1336.6874	1358.2356	1380.3594	1395.5637	1412.9297	1414.9996	1439.5797	1478.6523	1479.6667	1483.1839	1493.2981	1499.3509	1508.0823	1511.1004	2358.8437	2966.0592	3006.6652	3016.564	3026.3631	3027.5331	3031.2148	3046.3239	3070.2889	3088.2163	3088.9389	3091.3934	3098.4526	3103.6831	3769.8296
CCCC(CO)C#CC	CCC[C@@H](CO)C#CC	
InChI=1S/C8H14O/c1-3-5-8(7-9)6-4-2/h8-9H,3,5,7H2,1-2H3	InChI=1S/C8H14O/c1-3-5-8(7-9)6-4-2/h8-9H,3,5,7H2,1-2H3/t8-/m1/s1
