18
gdb 74538	4.77006	1.44735	1.28889	1.9674	81.28	-0.2205	0.004	0.2245	1010.7971	0.148371	-364.680346	-364.673531	-364.672587	-364.711137	28.308	
C	-0.0836771518	 1.5131537392	 0.0325288242	-0.50007
C	-0.0178738465	 0.0237367465	-0.0076652462	 0.339822
C	-0.0758849487	-0.8151339482	-1.0595931589	-0.39389
C	 0.0508078439	-2.1654027424	-0.3700208475	 0.27012
C	 0.1382963205	-3.6917330918	-0.1939935972	-0.270991
N	 0.2522169631	-3.228650739	 1.2735688938	-0.204192
C	 1.0726655348	-2.0096925716	 0.7856886652	 0.019288
C	 0.1409896818	-0.8708379098	 1.2605962772	-0.20314
C	-0.7525722691	-2.0948690061	 0.9542541276	 0.019286
H	 0.8211344294	 1.9417410623	 0.4827493601	 0.12859
H	-0.1957189618	 1.9360263251	-0.9696374524	 0.126286
H	-0.9269277511	 1.8601643462	 0.6437465422	 0.128595
H	-0.1838653181	-0.5747232414	-2.1074447714	 0.106257
H	-0.7584232568	-4.2873625257	-0.3920010789	 0.106148
H	 1.0348366832	-4.2036746396	-0.557612428	 0.106149
H	 2.1630058839	-2.0460555169	 0.7232350808	 0.079087
H	 0.2083568591	-0.3848754645	 2.2356011053	 0.063568
H	-1.8278668957	-2.2322950222	 1.0918056739	 0.079087
165.1267	179.6504	267.3912	399.0773	424.1818	452.7938	553.7034	570.6155	734.208	742.5233	786.5922	794.9351	829.3453	858.3823	869.1881	886.3514	906.4016	926.1228	997.5866	1015.0385	1035.7973	1063.4051	1088.7447	1089.4576	1107.6927	1127.8229	1169.9627	1171.6245	1191.5653	1225.8044	1242.6072	1286.2337	1290.752	1307.1387	1413.553	1477.0781	1485.0929	1512.6303	1647.7274	3013.708	3041.0587	3057.3114	3084.5201	3085.6474	3103.7746	3104.9212	3109.0758	3233.5359
CC1=CC23CN4C2C1C34	CC1=C[C@@]23CN4[C@@H]2[C@@H]1[C@@H]34	
InChI=1S/C8H9N/c1-4-2-8-3-9-6(8)5(4)7(8)9/h2,5-7H,3H2,1H3	InChI=1S/C8H9N/c1-4-2-8-3-9-6(8)5(4)7(8)9/h2,5-7H,3H2,1H3/t5-,6-,7+,8-
