18
gdb 125985	4.54941	1.14548	0.97249	3.1807	79.82	-0.2408	0.026	0.2669	1248.6906	0.148893	-398.131319	-398.122881	-398.121937	-398.164999	30.448	
C	-0.3571034726	 1.5422605505	-0.0147197907	-0.399711
C	 0.0383598727	 0.072518591	 0.0466943642	-0.145418
C	 0.7498733472	-0.5383661379	-1.2444089203	-0.185751
N	 1.9056663418	-0.7596739868	-0.3586609855	 0.080607
N	 3.1234999577	-1.3015503153	-0.1225294707	-0.336156
C	 3.2188187247	-1.0757580794	 1.1976685949	 0.331282
C	 4.4339691622	-1.4669053265	 1.9707426285	-0.481538
N	 2.134093889	-0.4579164174	 1.7953434844	-0.418827
C	 1.3470878151	-0.2943714152	 0.7495385475	 0.36293
H	 0.4778752584	 2.1616379672	-0.3565902272	 0.130117
H	-1.1995655894	 1.69023467	-0.6977207691	 0.124155
H	-0.6578422824	 1.8988297105	 0.9746066338	 0.141005
H	-0.8052818161	-0.5445296814	 0.3699011948	 0.111072
H	 0.3075519365	-1.4584090182	-1.6339304636	 0.138125
H	 0.9401008178	 0.1682733693	-2.0562632608	 0.134401
H	 4.9258459951	-0.585158563	 2.3940858398	 0.137476
H	 4.1645461416	-2.1202307419	 2.8062014244	 0.137889
H	 5.1400442407	-1.9876209554	 1.3218793955	 0.138343
52.9764	99.1043	143.4595	210.0564	246.4948	258.3813	334.5535	428.8141	511.7895	596.4699	697.9036	729.8549	759.4307	791.302	871.5636	918.9863	974.0689	1018.725	1036.4924	1065.8007	1082.4057	1122.7428	1139.9875	1171.2982	1218.7931	1257.2926	1296.2045	1306.8022	1360.4156	1399.4379	1412.4783	1466.2894	1477.0933	1486.9008	1493.793	1495.7907	1507.4585	1518.4414	1581.0952	3039.3233	3045.671	3062.9069	3069.2194	3101.6173	3111.4228	3116.8963	3124.1429	3144.4394
CC1CN2N=C(C)N=C12	C[C@H]1Cn2nc(C)nc12	
InChI=1S/C6H9N3/c1-4-3-9-6(4)7-5(2)8-9/h4H,3H2,1-2H3	InChI=1S/C6H9N3/c1-4-3-9-6(4)7-5(2)8-9/h4H,3H2,1-2H3/t4-/m0/s1
