19
gdb 8524	4.32159	1.9397	1.62385	1.598	75.64	-0.2269	0.0833	0.3101	863.2318	0.165334	-327.832328	-327.82513	-327.824185	-327.863046	29.024	
C	-0.134870438	 1.5796234213	 0.0027138466	-0.466653
C	-0.0507674958	 0.05684186	-0.0043252666	 0.327417
C	-1.3903466137	-0.5914613621	-0.3443055172	-0.460674
C	 1.1997728275	-0.5747032184	-0.6553370031	-0.040278
C	 2.1515786461	-0.2270213275	 0.5301499705	-0.079241
C	 2.564154355	-1.6905048044	 0.604661534	-0.191678
N	 1.0929711661	-1.8416155151	 0.2414383183	-0.166739
C	 0.7625966433	-0.607104219	 1.1288676324	-0.040274
H	 0.8222783421	 2.0499518534	 0.2458801452	 0.114349
H	-0.4527795315	 1.9539014833	-0.9770153297	 0.116478
H	-0.8728464887	 1.922782172	 0.7366434553	 0.116477
H	-1.7374772398	-0.2676617236	-1.332386229	 0.108832
H	-1.3102320391	-1.6802099717	-0.3446156363	 0.143168
H	-2.1574078745	-0.2990704457	 0.3821775385	 0.108835
H	 1.4633239994	-0.6743024566	-1.7119236205	 0.073634
H	 2.7379555433	 0.6831983797	 0.6903587988	 0.066137
H	 3.2438447478	-2.0777919326	-0.1620739038	 0.098287
H	 2.8157839872	-2.1095269054	 1.5849445817	 0.098288
H	 0.5088121133	-0.7450435978	 2.1835335049	 0.073634
201.3051	229.3232	237.3669	240.0647	312.9702	347.6886	467.1855	540.3333	610.5481	732.1187	803.0043	834.4658	845.6115	857.2644	892.5236	927.3264	952.5649	963.6721	1009.5305	1028.3438	1028.4458	1084.1164	1104.7687	1114.1717	1158.1962	1168.9658	1188.4782	1203.095	1211.2985	1236.5127	1281.5503	1288.1898	1354.3025	1398.6773	1420.1842	1485.6759	1485.8343	1506.5864	1510.5821	1519.0639	3025.863	3029.968	3030.7314	3049.1164	3074.0297	3082.3377	3082.6225	3088.6884	3088.8429	3107.4648	3131.8605
CC1(C)C2C3CN2C13	CC1(C)[C@H]2[C@@H]3CN2[C@H]13	
InChI=1S/C7H11N/c1-7(2)5-4-3-8(5)6(4)7/h4-6H,3H2,1-2H3	InChI=1S/C7H11N/c1-7(2)5-4-3-8(5)6(4)7/h4-6H,3H2,1-2H3/t4-,5+,6-
