18
gdb 32142	3.64892	1.13326	0.8742	1.759	83.82	-0.2263	-0.0181	0.2082	1326.9896	0.148442	-402.005584	-401.996968	-401.996024	-402.039691	31.369	
C	-0.1024572925	 1.3908829299	-0.0436743703	-0.246733
O	-0.0504049791	-0.0224842889	 0.0440712907	-0.264835
C	 0.6300972901	-0.5739580073	 1.0821026548	 0.353526
C	 1.2916591377	 0.1441041667	 2.0845402948	-0.125316
N	 1.946080208	-0.4533607469	 3.0831638217	-0.266025
C	 1.9655512889	-1.783340072	 3.1200064826	-0.074288
C	 1.3394426007	-2.6016641152	 2.1721620222	 0.278315
C	 1.3996898164	-4.1045139104	 2.2722119388	-0.49521
C	 0.6615385886	-1.9676905917	 1.1375210893	-0.252734
H	 0.8991680647	 1.8264563757	-0.1486745676	 0.129165
H	-0.6880068254	 1.617046562	-0.9360819512	 0.136945
H	-0.59386045	 1.8323957478	 0.8324512408	 0.129162
H	 1.2984277599	 1.2290302493	 2.0889943796	 0.101552
H	 2.5084430378	-2.2343398174	 3.9481829319	 0.096658
H	 0.3976178849	-4.5394858057	 2.3550887561	 0.134676
H	 1.8699172238	-4.5450279141	 1.3861917407	 0.134663
H	 1.9744760523	-4.4183130672	 3.1474717408	 0.128265
H	 0.1504503363	-2.531258965	 0.3631143184	 0.102211
38.6714	84.5911	205.3801	219.1072	223.5038	276.2243	325.6998	460.4346	469.4035	537.0265	575.0017	584.0438	724.4703	737.8496	891.4285	926.5255	939.4099	946.9697	1012.2645	1037.0101	1065.2673	1087.493	1177.4651	1183.7936	1193.61	1229.4959	1295.9679	1323.4064	1346.0088	1414.3207	1462.1982	1480.3116	1485.0719	1486.1367	1490.3602	1504.2019	1514.5731	1604.3177	1642.1659	3008.3336	3033.4251	3069.8032	3088.012	3116.5659	3136.1036	3145.711	3178.5094	3181.0566
COC1=CN=CC(C)=C1	COc1cncc(C)c1	
InChI=1S/C7H9NO/c1-6-3-7(9-2)5-8-4-6/h3-5H,1-2H3	InChI=1S/C7H9NO/c1-6-3-7(9-2)5-8-4-6/h3-5H,1-2H3
