21
gdb 38363	2.38858	1.96317	1.37221	1.5887	83.65	-0.2203	0.011	0.2314	1012.196	0.185458	-387.058162	-387.050846	-387.049902	-387.089306	30.86	
C	-0.1824453704	 1.6367440709	 0.2377422423	-0.300356
C	 1.3409500773	 1.6562595187	-0.057473332	 0.147819
C	 2.4252499949	 2.0185878249	 0.9835191666	-0.213952
C	 2.3443350595	 1.4187742862	 2.4317955175	-0.253398
C	 1.7690257712	 0.0485470643	 2.2582207567	-0.023605
C	 0.448522265	-0.1474041177	 2.3211018718	-0.097749
C	-0.245633263	-0.8554113286	 1.199089509	-0.262554
C	-0.0893688711	 0.1085941071	-0.0226790826	 0.145228
O	 1.2984184556	 0.2438580292	-0.4062138153	-0.289967
H	-0.5014953642	 1.9540744861	 1.2286821037	 0.107791
H	-0.7672369682	 2.171664041	-0.5128028103	 0.103379
H	 1.5815342641	 2.2420909164	-0.955177984	 0.076548
H	 3.3692051287	 1.6894398263	 0.5303288151	 0.115905
H	 2.4845224488	 3.1135479863	 1.0414497497	 0.098976
H	 3.3464381551	 1.4524980598	 2.8750778144	 0.095314
H	 1.6841973642	 2.0315435028	 3.0557959353	 0.097896
H	 2.3730023769	-0.6471799641	 1.679396699	 0.094123
H	-0.1547521604	 0.5686494481	 2.8782672048	 0.07675
H	 0.2335982297	-1.8013741904	 0.9229743032	 0.115301
H	-1.3072372244	-1.0526220435	 1.3843187484	 0.093075
H	-0.6884531093	-0.2561306837	-0.8661858133	 0.073477
171.3392	252.9369	290.3165	325.9513	353.7222	370.3186	406.2149	499.526	548.3738	623.4523	696.593	764.9062	807.518	843.3022	880.9306	890.6554	922.9405	933.3257	950.045	993.6148	1009.7488	1020.4002	1040.4479	1087.6306	1107.151	1116.2684	1134.1397	1174.2208	1216.4466	1229.697	1255.1685	1270.9164	1276.6175	1309.2146	1339.0457	1347.3063	1353.5406	1366.8388	1371.134	1406.3838	1459.9047	1469.2127	1487.7155	1497.708	1698.6696	2998.0735	3019.3468	3021.8412	3029.8261	3041.1397	3053.393	3076.5265	3084.4678	3086.9729	3122.9173	3147.9229	3152.7208
C1C2CCC=CCC1O2	C1[C@H]2CC[CH][CH]C[C@@H]1O2	
InChI=1S/C8H12O/c1-2-4-7-6-8(9-7)5-3-1/h1-2,7-8H,3-6H2/b2-1-	InChI=1S/C8H12O/c1-2-4-7-6-8(9-7)5-3-1/h1-2,7-8H,3-6H2/t7-,8+/m0/s1
