17
gdb 9888	3.94037	1.26364	1.19688	3.7294	66.55	-0.2577	0.0244	0.2821	1070.8183	0.140361	-400.974915	-400.966288	-400.965344	-401.008755	30.439	
C	-0.1390638448	 1.6238361913	-0.1481597201	-0.462324
C	-0.2235472439	 0.1224296692	-0.0059473209	 0.402172
C	-1.611788365	-0.4838361318	-0.0574334338	-0.155216
O	-2.4840528605	 0.091343579	 0.9129306125	-0.186924
C	-2.3615538298	-0.3696950811	 2.1800084085	 0.129567
N	-3.045666439	 0.155736245	 3.1000857486	-0.441639
C	 0.9167147604	-0.7371723212	-0.3551452291	-0.228028
O	 0.6154905272	-0.4526096915	 1.0128857608	-0.270204
H	-0.49259637	 1.9384293573	-1.1359908232	 0.123747
H	-0.7645504093	 2.1123559211	 0.6036233046	 0.155174
H	 0.8922470732	 1.9598763338	-0.0204904695	 0.129297
H	-2.0818664341	-0.2827409772	-1.0246317257	 0.124655
H	-1.5456453462	-1.5701871451	 0.0793377755	 0.111083
H	-1.6461570584	-1.1948163621	 2.2773611173	 0.105611
H	-2.8541161952	-0.3146560284	 3.9823139676	 0.229537
H	 0.753131914	-1.7686993001	-0.6663456666	 0.113722
H	 1.8278531914	-0.2802872282	-0.7383837965	 0.119771
61.7785	73.3781	118.623	189.2235	242.9915	304.0018	349.7015	382.5298	405.5326	491.5549	658.911	736.8435	822.4895	839.5511	893.5796	931.961	958.9725	986.4642	1042.9968	1067.0871	1112.5306	1131.9985	1136.3367	1173.9398	1240.2305	1299.1644	1325.3237	1381.4796	1406.4939	1420.1307	1436.7925	1478.6474	1487.5033	1499.8408	1533.3753	1745.2199	3030.5801	3044.2518	3056.9865	3081.5174	3096.6013	3114.0235	3135.841	3167.11	3517.1882
CC1(COC=N)CO1	C[C@@]1(CO[CH][NH])CO1	
InChI=1S/C5H9NO2/c1-5(3-8-5)2-7-4-6/h4,6H,2-3H2,1H3	InChI=1S/C5H9NO2/c1-5(3-8-5)2-7-4-6/h4,6H,2-3H2,1H3/t5-/m1/s1
