18
gdb 45185	2.87399	1.86934	1.58709	3.7815	74.74	-0.2348	0.0257	0.2605	903.1861	0.151733	-401.958303	-401.951919	-401.950975	-401.988773	27.189	
O	-0.0178111777	-0.0028469263	 0.1539102694	-0.381667
C	 0.0076325281	 1.2026845052	 0.0256414063	 0.388649
N	-1.1114362631	 1.993220224	-0.1509190647	-0.290898
C	-0.938531103	 3.4075209598	 0.1596086905	-0.025367
C	-0.2474345604	 3.5476456267	 1.5518358483	-0.240524
C	 1.0795900064	 3.4145662355	 0.7882442775	-0.029935
C	 0.3934852995	 3.949791367	-0.5075254841	-0.015109
C	 1.1428436575	 2.9154730453	-1.3508769266	-0.238951
C	 1.2588431355	 2.0671588097	-0.0405272109	-0.148354
H	-1.9986634046	 1.5535297022	 0.0502050083	 0.243858
H	-1.8635711721	 3.9489106064	-0.0375363994	 0.080797
H	-0.3474584986	 4.5594572262	 1.9572736544	 0.10373
H	-0.5200764842	 2.8139764259	 2.3166428972	 0.103751
H	 2.0083263949	 3.8187994415	 1.191902488	 0.073333
H	 0.3628096227	 5.0046544489	-0.7825660394	 0.069382
H	 0.6494438588	 2.455364903	-2.2105284781	 0.112149
H	 2.1178973483	 3.308071699	-1.6528084683	 0.106315
H	 2.1477008117	 1.4630498499	 0.1284474716	 0.08884
138.0317	330.0551	358.0832	420.867	460.4852	491.0941	556.584	641.0356	675.8857	761.7485	787.4616	790.7693	821.6899	833.7005	894.3303	940.4504	955.5531	979.9132	994.2676	1031.8213	1068.1601	1070.9195	1079.2317	1106.8764	1133.1247	1175.6616	1214.137	1231.8599	1239.1902	1262.1092	1280.2545	1284.6638	1295.9592	1331.7149	1368.0777	1431.7662	1482.7411	1488.1249	1817.7005	3043.5429	3056.4382	3098.4754	3101.5883	3107.1568	3112.6225	3115.8507	3140.9532	3600.555
O=C1NC2CC3C2CC13	O=C1N[C@H]2C[C@@H]3[C@H]2C[C@H]13	
InChI=1S/C7H9NO/c9-7-5-1-4-3(5)2-6(4)8-7/h3-6H,1-2H2,(H,8,9)	InChI=1S/C7H9NO/c9-7-5-1-4-3(5)2-6(4)8-7/h3-6H,1-2H2,(H,8,9)/t3-,4-,5+,6+/m1/s1
