18
gdb 48158	2.88324	1.12905	0.8863	2.1903	76.54	-0.2204	-0.0859	0.1345	1310.2309	0.145668	-439.067155	-439.05789	-439.056946	-439.103046	32.002	
O	 2.1481626711	 0.8603808036	-0.2850114988	-0.222385
C	 1.0108484968	 1.2405528632	-0.3941365345	 0.085078
C	 0.3821665591	 2.3118229557	 0.5062301154	 0.317735
O	-0.8190266551	 2.4384456115	 0.4933163537	-0.283817
C	 1.3522114421	 3.1527036713	 1.3212775793	-0.259556
N	 2.1782878196	 3.8710810367	 0.3670062218	-0.081295
C	 3.63195213	 3.6460159498	 0.2727574539	-0.150531
C	 3.8048112841	 5.1468543043	-0.0699963843	-0.232945
C	 2.357996113	 5.3330808054	 0.4517196757	-0.157861
H	 0.2857089067	 0.7987457646	-1.1104627336	 0.105249
H	 0.7708268188	 3.8421510502	 1.9418356482	 0.122521
H	 1.9578863743	 2.5118122287	 1.9779904314	 0.119907
H	 4.0847916501	 3.372530346	 1.2394156473	 0.088895
H	 3.9322737903	 2.9041211026	-0.4720967107	 0.120676
H	 4.589759066	 5.6856802905	 0.4605200089	 0.109859
H	 3.8975525208	 5.3311678938	-1.1412820396	 0.117453
H	 1.662830643	 5.9182604823	-0.1594463012	 0.109582
H	 2.325325569	 5.7144842795	 1.4845383271	 0.091434
28.4325	64.3409	97.4291	138.0984	158.8504	223.8021	311.7711	355.5657	451.3046	529.5743	560.5769	691.255	772.727	799.0834	844.6019	917.9959	937.9999	941.7726	988.9759	1018.3314	1082.3009	1132.5521	1149.6248	1196.2036	1203.1764	1230.0001	1242.4279	1265.1672	1280.5929	1319.8762	1329.7924	1361.8208	1370.7656	1451.057	1489.0693	1509.5885	1535.6563	1810.419	1814.4293	2918.1095	2972.3596	2980.2636	3000.7059	3059.1625	3080.7014	3085.6545	3091.2052	3145.7562
O=CC(=O)CN1CCC1	O=CC(=O)CN1CCC1	
InChI=1S/C6H9NO2/c8-5-6(9)4-7-2-1-3-7/h5H,1-4H2	InChI=1S/C6H9NO2/c8-5-6(9)4-7-2-1-3-7/h5H,1-4H2
