24
gdb 113921	2.75906	0.90034	0.80221	2.1465	86.84	-0.2164	0.0657	0.282	1583.6243	0.21526	-405.514565	-405.50363	-405.502686	-405.551043	39.843	
C	 0.2360929415	 1.5242964916	-0.0381773526	-0.391465
C	 0.0943496862	 0.0007115907	 0.071600474	 0.045584
C	 0.6474720724	-0.5091844718	 1.4082567479	-0.381668
C	-1.3702837019	-0.410066332	-0.1432360851	-0.133145
N	-1.5086308711	-1.8641242884	-0.2339729177	-0.09723
C	-2.0191064287	-2.6055600364	 0.9173414559	-0.247701
C	-2.8401886679	-2.4618809657	-0.3150328922	 0.004106
C	-4.1281364143	-1.6626568498	-0.3247976004	-0.116982
O	-4.2610207696	-0.8897403654	 0.8591753663	-0.404967
H	 1.2808698887	 1.8312289445	 0.0755169933	 0.108896
H	-0.1177757261	 1.8927637927	-1.0073196426	 0.105598
H	-0.3432610271	 2.0325782141	 0.7424245746	 0.109455
H	 0.6766458017	-0.4626607213	-0.7356702018	 0.077198
H	 0.5996058404	-1.5993873864	 1.4694827734	 0.12502
H	 1.6933682881	-0.2108853104	 1.538052253	 0.104369
H	 0.0786042574	-0.096663062	 2.2509398166	 0.104811
H	-2.0040825848	 0.0265058473	 0.6433420716	 0.100958
H	-1.7117960018	 0.0105125866	-1.0986044108	 0.084527
H	-1.5186857154	-3.5444982704	 1.1420596556	 0.105348
H	-2.3473862333	-2.0362469541	 1.7831653723	 0.130383
H	-2.8865457276	-3.3016706947	-1.0086832561	 0.087023
H	-4.1511688005	-1.0190121972	-1.2193007555	 0.095271
H	-4.9621556182	-2.3765796417	-0.4217129128	 0.095018
H	-4.9922349682	-0.2773244298	 0.736616893	 0.289595
42.6266	85.533	114.7593	119.5707	210.6029	221.7891	228.7445	257.0322	264.5579	332.43	350.117	421.9498	437.9158	472.1762	619.5117	752.756	808.9465	831.4389	911.2282	925.6157	927.3945	962.7794	967.3337	980.4093	1033.4965	1049.4885	1100.2639	1123.4421	1140.7231	1147.6766	1174.2291	1193.0829	1198.8209	1234.8711	1278.1981	1290.3832	1322.118	1335.6558	1374.0302	1388.4934	1397.6275	1417.6873	1420.1836	1456.249	1485.7652	1490.0593	1497.2581	1503.9632	1509.2746	1513.1724	1516.9282	2963.0888	2986.1966	2990.678	3016.7014	3020.6269	3026.7631	3038.3144	3083.438	3089.4249	3097.2539	3098.2597	3102.5204	3115.902	3188.1225	3830.6985
CC(C)CN1CC1CO	CC(C)CN1C[C@H]1CO	
InChI=1S/C7H15NO/c1-6(2)3-8-4-7(8)5-9/h6-7,9H,3-5H2,1-2H3	InChI=1S/C7H15NO/c1-6(2)3-8-4-7(8)5-9/h6-7,9H,3-5H2,1-2H3/t7-,8?/m0/s1
