23
gdb 115475	3.3649	0.84437	0.71992	1.2297	89.57	-0.2235	0.0335	0.257	1654.3459	0.20573	-388.309382	-388.299339	-388.298395	-388.344858	36.962	
C	 0.2261415498	 1.5466103277	-0.2296802541	-0.372347
C	-0.0942550505	 0.0677744011	 0.0524879316	-0.28699
C	 0.6150350362	-0.4806793364	 1.255677282	 0.333855
C	 0.0571627258	-0.9224948578	 2.385236067	-0.179618
C	 1.0721703288	-1.3781821537	 3.4075843105	-0.001041
C	 0.7241836267	-2.698283511	 4.0895256397	-0.085209
O	-0.4542008746	-2.4991629862	 4.8581493841	-0.423879
C	 2.3802414239	-1.4478642274	 2.5772453909	-0.241202
C	 2.1296123826	-0.5573396102	 1.3367416709	-0.303512
H	 1.2955243959	 1.6975948948	-0.4080742848	 0.118214
H	-0.3117474439	 1.8991615333	-1.1151610942	 0.111401
H	-0.063457881	 2.1768646401	 0.6171988029	 0.119879
H	-1.1755914767	-0.0530414448	 0.1823821859	 0.100229
H	 0.1818807962	-0.5236325655	-0.8327026908	 0.098091
H	-1.0073227349	-0.94182839	 2.5911015567	 0.092599
H	 1.1568571257	-0.6270614184	 4.2076638635	 0.081386
H	 0.574592829	-3.475833105	 3.322484403	 0.081016
H	 1.5651525929	-3.0183201862	 4.7269515998	 0.081138
H	-0.705012473	-3.3404960676	 5.2500161811	 0.285477
H	 3.2626125562	-1.148755383	 3.1490565398	 0.094884
H	 2.5424501871	-2.4829089651	 2.2526368419	 0.096799
H	 2.5817241286	-0.9669988597	 0.4248498248	 0.095035
H	 2.5626036593	 0.444668041	 1.4657865779	 0.103795
59.355	86.9824	126.0388	129.1663	195.4662	225.1231	251.8249	268.7031	348.3432	412.3582	484.7971	502.868	607.7262	628.015	787.7742	831.9058	871.0297	883.2579	891.2232	944.4011	958.4937	975.4652	1030.2861	1062.5001	1071.0839	1078.1973	1103.1559	1115.6364	1163.131	1184.3898	1241.7019	1247.4792	1252.3321	1260.0986	1299.6026	1308.9907	1328.4633	1350.0007	1353.124	1379.2151	1407.1408	1453.2768	1479.2608	1482.9483	1498.2813	1500.1699	1508.1903	1519.7016	1715.2132	2955.2814	2978.0035	2997.0102	3001.1761	3006.3171	3027.9423	3035.8246	3045.2432	3058.874	3092.5826	3106.4527	3108.2988	3196.3905	3831.8561
CCC1=CC(CO)CC1	CCC1=C[C@@H](CO)CC1	
InChI=1S/C8H14O/c1-2-7-3-4-8(5-7)6-9/h5,8-9H,2-4,6H2,1H3	InChI=1S/C8H14O/c1-2-7-3-4-8(5-7)6-9/h5,8-9H,2-4,6H2,1H3/t8-/m0/s1
