18
gdb 70701	2.31606	1.86156	1.22899	3.3595	71.99	-0.233	-0.0221	0.2109	1038.258	0.148262	-439.079503	-439.07137	-439.070425	-439.112079	31.056	
C	 0.0462916061	 1.5357237031	 0.0142420761	-0.48049
C	 0.1222539453	 0.0300612892	-0.0209024968	 0.195904
N	-0.7912910051	-0.7859511243	 0.8337734932	-0.362708
C	 0.6402543984	-0.7588032657	 1.1425770102	-0.100861
C	 1.3939040137	-2.0612294579	 0.9033950968	-0.079016
O	 1.7548072588	-2.2636208245	-0.4513544906	-0.249983
C	 0.6765420334	-2.0735161272	-1.3552166135	-0.195508
C	 0.2824439361	-0.5985196325	-1.3796607116	 0.385632
O	 0.1386591012	 0.0298085825	-2.4026382443	-0.316728
H	 0.9543353554	 1.9807141929	-0.4030796031	 0.140791
H	-0.7954481213	 1.8913122477	-0.5864381691	 0.144556
H	-0.0726836983	 1.8949015456	 1.0413188292	 0.108921
H	-1.3045635471	-0.1600103394	 1.4506931307	 0.237687
H	 0.9573900244	-0.1796782191	 2.0076668142	 0.097451
H	 2.3356790119	-2.0575482948	 1.4596008611	 0.114904
H	 0.7764698555	-2.8978833426	 1.2668420043	 0.104135
H	 1.0271340654	-2.3602388412	-2.3481118972	 0.131887
H	-0.1942768439	-2.6893849717	-1.0815808296	 0.123426
84.0594	172.5556	212.6172	216.625	289.8259	318.083	387.8153	449.9667	478.0185	502.213	599.8854	651.0398	756.4111	786.6417	857.7935	885.2467	952.2529	965.6229	986.5065	1033.9418	1074.3368	1088.5316	1120.156	1138.4408	1168.6113	1201.2285	1251.7681	1303.6296	1317.3626	1357.9254	1378.8141	1406.3936	1416.4708	1440.6784	1469.4065	1476.5992	1490.5945	1497.1736	1816.2968	2983.0805	2991.6961	3040.2205	3086.745	3112.3816	3118.2689	3123.9367	3127.5646	3494.1522
CC12NC1COCC2=O	C[C@]12N[C@H]1COCC2=O	
InChI=1S/C6H9NO2/c1-6-4(7-6)2-9-3-5(6)8/h4,7H,2-3H2,1H3	InChI=1S/C6H9NO2/c1-6-4(7-6)2-9-3-5(6)8/h4,7H,2-3H2,1H3/t4-,6-/m0/s1
