20
gdb 91628	2.92309	1.68826	1.479	2.9861	76.55	-0.2306	0.079	0.3096	981.3205	0.174402	-403.127694	-403.120658	-403.119714	-403.15877	29.521	
C	-0.2307068166	 1.5558287913	-0.0275270668	-0.420085
C	 0.0384205793	 0.0515152688	 0.0026781446	 0.0526
C	 0.9229841663	-0.4977474316	-1.170784787	-0.248024
C	 1.98844427	-1.3131306329	-0.3925057318	 0.064404
O	 1.2529270132	-1.7719545452	 0.7467261841	-0.244321
C	 0.8305044445	-0.4937621586	 1.2287297071	 0.03798
C	 2.1513783445	 0.2777692908	 1.3350448272	-0.049814
N	 3.3107304968	-0.5967444895	 1.6197532336	-0.334643
C	 2.9508648539	-0.2886411228	 0.2214070803	-0.05468
H	 0.6966521271	 2.1350795296	-0.0811687557	 0.113971
H	-0.8344588335	 1.8248580279	-0.900186469	 0.117974
H	-0.7802070599	 1.8806499353	 0.8633004281	 0.114072
H	-0.9215800339	-0.4740760412	-0.0065942552	 0.080611
H	 0.3483876697	-1.1378330451	-1.8438982231	 0.103553
H	 1.3687988492	 0.3054341809	-1.766610489	 0.093019
H	 2.4298364771	-2.1649038814	-0.9095810363	 0.081498
H	 0.2554289409	-0.6198649985	 2.1467474618	 0.078354
H	 2.1760393336	 1.3240877627	 1.6126317984	 0.094273
H	 4.0925789686	 0.0015199517	 1.8798285292	 0.228618
H	 3.6033734792	 0.3077390879	-0.4064044102	 0.090641
139.8643	231.659	263.3096	336.2531	377.0332	430.1884	518.2642	575.1948	615.9116	754.4777	787.0845	803.1092	856.681	869.3456	874.9059	891.4476	921.6803	943.8728	963.5938	967.7369	1010.902	1019.1785	1052.9874	1079.5189	1110.9441	1127.0668	1132.1772	1150.6568	1188.6383	1231.1022	1242.3499	1259.2326	1273.4893	1307.5421	1323.673	1345.0316	1355.8642	1376.9427	1408.6185	1412.489	1491.7647	1499.2292	1504.8558	3030.0176	3048.7064	3053.1624	3093.354	3101.1323	3105.7324	3114.1269	3123.5367	3174.6899	3193.3536	3489.9186
CC1CC2OC1C1NC21	C[C@H]1C[C@@H]2O[C@H]1[C@H]1N[C@@H]21	
InChI=1S/C7H11NO/c1-3-2-4-5-6(8-5)7(3)9-4/h3-8H,2H2,1H3	InChI=1S/C7H11NO/c1-3-2-4-5-6(8-5)7(3)9-4/h3-8H,2H2,1H3/t3-,4-,5-,6-,7+/m0/s1
