21
gdb 118988	3.17013	1.02943	0.9761	1.1062	81.4	-0.2314	0.0193	0.2508	1349.7191	0.180583	-424.221327	-424.211592	-424.210648	-424.256315	35.389	
C	 0.022450623	 1.4281835235	 0.7132454113	-0.222905
O	-0.1237520583	 0.0564062583	 0.9914127463	-0.240194
C	 0.7848652552	-0.751912872	 0.2751255056	-0.079206
C	 0.5305003984	-2.2250270603	 0.6374284269	 0.307579
C	-0.8837809365	-2.6525085536	 0.2310110275	-0.413847
O	 1.4970788124	-3.003168533	-0.0923441586	-0.313709
C	 2.3328557745	-3.7372133163	 0.7987767316	-0.130518
C	 1.8576368186	-3.3666082745	 2.1753324864	-0.102225
C	 0.845159177	-2.5138408034	 2.0859763125	-0.104238
H	-0.1461260051	 1.647852805	-0.3528322958	 0.105508
H	-0.7215518474	 1.9652717294	 1.3067998286	 0.125661
H	 1.0254321735	 1.7948343032	 0.9831016055	 0.105115
H	 0.6594905563	-0.6173635196	-0.8121550656	 0.090554
H	 1.8254639066	-0.4939722578	 0.5278279588	 0.086986
H	-1.0007328295	-2.5630366105	-0.8534758692	 0.11817
H	-1.0639034723	-3.6926041048	 0.5149175025	 0.113459
H	-1.6273156883	-2.0140298787	 0.7145011878	 0.129793
H	 2.2410529844	-4.8164817375	 0.5976733015	 0.10391
H	 3.3876996401	-3.4685046268	 0.6305264964	 0.103607
H	 2.3020822748	-3.7601949881	 3.0810221555	 0.103975
H	 0.2933628524	-2.0571712823	 2.8962975745	 0.112525
61.6023	93.0799	105.3729	166.2798	218.8725	230.2633	254.953	327.7659	348.4343	391.0725	417.108	533.9126	683.6985	753.112	777.0402	832.6304	885.0616	945.987	958.0816	969.7873	978.7661	999.4768	1047.3639	1060.6954	1112.7364	1148.2669	1170.3317	1174.0465	1189.1667	1208.9579	1225.2346	1237.3311	1277.4427	1361.435	1377.8824	1388.372	1407.0858	1478.713	1485.0307	1487.1303	1491.0769	1502.892	1522.5323	1523.1767	1692.0905	2959.7767	2972.7262	2974.4732	2988.3979	3002.1783	3015.7867	3043.5223	3112.3327	3117.0147	3132.2897	3208.2763	3238.7673
COCC1(C)OCC=C1	COC[C@@]1(C)OCC=C1	
InChI=1S/C7H12O2/c1-7(6-8-2)4-3-5-9-7/h3-4H,5-6H2,1-2H3	InChI=1S/C7H12O2/c1-7(6-8-2)4-3-5-9-7/h3-4H,5-6H2,1-2H3/t7-/m0/s1
