19
gdb 67708	2.27354	1.96422	1.70536	1.8867	73.48	-0.2352	0.0891	0.3243	935.0336	0.161243	-423.01997	-423.012624	-423.01168	-423.051459	29.27	
C	 0.0014037225	 1.4837549218	 0.0026832125	-0.51165
C	 0.0107137139	-0.0209035108	-0.0006359811	 0.286551
C	 0.6461411506	-0.9133511473	-1.0473408834	-0.167261
C	 1.458338087	-1.9724064538	-0.3177556925	-0.097357
O	 1.3414217212	-1.6836027505	 1.0790550591	-0.267995
C	 0.1992930165	-0.8597560026	 1.2831733495	 0.011007
C	-1.0869597276	-1.6941754795	 1.3209525401	-0.091776
O	-1.3865571954	-1.9791451303	-0.0515449684	-0.265595
C	-0.8552303564	-0.927494413	-0.822007762	 0.047164
H	 0.9570603362	 1.8864160648	 0.3568894807	 0.126391
H	-0.1704963374	 1.8759269993	-1.004715999	 0.120985
H	-0.7902360143	 1.8798515921	 0.6490336966	 0.121531
H	 1.0264956444	-0.4964437881	-1.9737694115	 0.089396
H	 1.0860005339	-2.9839474007	-0.5269443204	 0.108459
H	 2.518652907	-1.9263969755	-0.5882208611	 0.104018
H	 0.3608962963	-0.2726261867	 2.1905770472	 0.083999
H	-0.9587470439	-2.6400395293	 1.8524122616	 0.117541
H	-1.9092781797	-1.1232672602	 1.7800594223	 0.089477
H	-1.5254133748	-0.56707741	-1.5961856802	 0.095116
158.5078	192.3574	210.1241	241.6689	269.1666	400.8913	530.4046	558.5434	617.8232	720.4164	754.7068	773.0178	850.2019	874.229	886.5077	926.8586	958.6369	977.5918	1003.6203	1015.6637	1050.0939	1069.7193	1079.7613	1102.6645	1135.2903	1138.7456	1201.9693	1231.7146	1235.451	1249.0375	1277.7782	1315.4301	1342.2712	1367.0154	1383.3667	1418.6548	1453.782	1490.164	1498.5911	1499.9351	1516.2387	2983.9561	3015.6326	3024.6182	3065.5497	3085.641	3088.7356	3098.9791	3106.8905	3157.3327	3171.7148
CC12C3COC1COC23	C[C@@]12[C@H]3CO[C@@H]1CO[C@@H]23	
InChI=1S/C7H10O2/c1-7-4-2-8-5(7)3-9-6(4)7/h4-6H,2-3H2,1H3	InChI=1S/C7H10O2/c1-7-4-2-8-5(7)3-9-6(4)7/h4-6H,2-3H2,1H3/t4-,5+,6+,7+/m0/s1
