21
gdb 108915	3.69441	1.07044	1.01435	1.5066	84.44	-0.2172	0.0179	0.2351	1289.0387	0.182497	-387.065376	-387.056681	-387.055737	-387.098586	34.315	
C	-0.0018857282	 1.5116223296	 0.2815283474	-0.371875
C	-0.0599265527	 0.0256598305	-0.1175335461	-0.320138
C	-1.4424562776	-0.5366402394	-0.0971319179	 0.386258
C	-2.2254371642	-1.0195198471	-1.0670658379	-0.320987
C	-3.5169130477	-1.4180633167	-0.3235736401	 0.388742
O	-4.6071787792	-1.908662177	-1.0352860089	-0.483665
C	-3.7120388209	-0.1763621466	 0.5948874235	-0.239123
C	-2.3363497469	-0.6829441471	 1.1533834139	-0.127607
C	-2.9025193502	-2.1279467185	 0.9400411541	-0.273377
H	 1.0304949033	 1.8746815502	 0.2811721651	 0.112607
H	-0.580650538	 2.1248358322	-0.4159442782	 0.121594
H	-0.411974007	 1.6700183429	 1.2841140909	 0.12029
H	 0.3689217059	-0.1039730142	-1.1178772132	 0.102629
H	 0.5778115555	-0.5467828386	 0.5714477879	 0.103707
H	-2.0463272812	-1.1193939045	-2.1296831018	 0.092277
H	-4.3089872388	-2.6493272943	-1.5738465092	 0.278168
H	-3.7354111702	 0.8040663118	 0.1145268025	 0.093067
H	-4.5387123102	-0.2936806563	 1.3023127854	 0.096083
H	-1.9486031817	-0.3542298686	 2.1161511054	 0.062773
H	-3.6583871219	-2.4146492711	 1.6778647393	 0.094152
H	-2.1815599282	-2.9323692572	 0.7735011278	 0.084425
72.2517	120.949	188.9451	240.9527	277.0612	305.3757	348.1425	414.1022	505.6251	523.7529	567.2584	639.2927	652.3893	774.2668	779.9474	806.9336	834.6077	865.2411	914.7481	942.2616	953.7464	996.0681	1008.9452	1052.2821	1054.9585	1085.8287	1097.7627	1128.1584	1134.5696	1160.9723	1213.0403	1222.0773	1224.5177	1274.5948	1296.5558	1335.8017	1344.7724	1368.8147	1406.6157	1476.1368	1478.567	1496.9463	1506.149	1518.2724	1691.1143	3002.7119	3036.5094	3043.773	3055.6631	3057.2464	3106.9566	3110.8753	3115.0349	3124.8709	3129.214	3214.4671	3808.27
CCC1=CC2(O)CC1C2	CCC1=C[C@]2(O)C[C@H]1C2	
InChI=1S/C8H12O/c1-2-6-3-8(9)4-7(6)5-8/h3,7,9H,2,4-5H2,1H3	InChI=1S/C8H12O/c1-2-6-3-8(9)4-7(6)5-8/h3,7,9H,2,4-5H2,1H3/t7-,8-
