17
gdb 83918	2.66647	1.47137	1.20826	1.4318	74.88	-0.2328	0.0426	0.2754	1066.6035	0.135593	-421.772179	-421.764118	-421.763174	-421.804521	31.54	
O	-0.0339291914	 1.3853444502	 0.0014089944	-0.423157
C	-0.0437894501	 0.002352671	-0.0238131864	 0.056296
C	-0.4599669698	-0.7362682262	 1.2094954559	-0.026185
O	-1.0280965595	 0.1073459984	 2.1794303348	-0.283784
C	-2.4443868009	 0.1928775998	 1.9243824098	-0.076184
C	-2.6057533097	 0.070889695	 0.3993712992	-0.323861
C	-1.386269268	-0.771105275	-0.0056036726	 0.099823
C	-1.5339886759	-1.9352742773	-0.8175697952	 0.169681
C	-1.6444780851	-2.9133548177	-1.5107041494	-0.383068
H	-0.2088904558	 1.6346735208	 0.9211246488	 0.296829
H	 0.7300344652	-0.4243171389	-0.6541897798	 0.115152
H	 0.054047509	-1.6133649568	 1.5888780439	 0.113759
H	-2.9564364726	-0.6293223739	 2.4424881234	 0.111791
H	-2.7936795296	 1.1422563456	 2.3379964148	 0.116512
H	-3.5360465688	-0.426234607	 0.1210048994	 0.122303
H	-2.5708797027	 1.0509180307	-0.084931268	 0.127787
H	-1.7458627744	-3.7741672387	-2.123664833	 0.186307
128.5273	150.7024	161.9959	234.9207	290.1428	428.9425	473.8782	489.2694	510.9658	561.7482	590.8445	629.2375	652.6756	659.0291	754.2244	836.026	861.7765	882.6835	956.6183	990.7281	1014.6716	1047.4709	1080.7972	1128.353	1140.0865	1197.2572	1234.2724	1243.1961	1266.4053	1304.0321	1322.7199	1356.4766	1394.9915	1439.4759	1487.3987	1517.2024	2231.7247	3015.4501	3066.5133	3101.5422	3129.7573	3160.4567	3169.4438	3503.1101	3720.9176
OC1C2OCCC12C#C	O[C@H]1[C@H]2OCC[C@@]12C#C	
InChI=1S/C7H8O2/c1-2-7-3-4-9-6(7)5(7)8/h1,5-6,8H,3-4H2	InChI=1S/C7H8O2/c1-2-7-3-4-9-6(7)5(7)8/h1,5-6,8H,3-4H2/t5-,6+,7-/m0/s1
