21
gdb 99787	2.00323	1.29019	0.95816	3.2005	74.97	-0.2549	0.0693	0.3242	1332.9725	0.179538	-461.325497	-461.315045	-461.314101	-461.361286	37.335	
C	 0.9722237446	 0.0229927463	 0.3401407062	-0.237658
O	 0.0499519356	-0.9617683554	-0.0750073732	-0.263819
C	-1.3221816194	-0.6292737376	 0.0947494573	 0.063717
C	-2.1035926187	-1.6924302136	-0.6987109091	 0.133242
C	-1.9076430316	-1.5479389273	-2.2083355145	-0.412258
O	-1.7394405247	-2.9895731906	-0.2436448003	-0.446361
C	-1.7270126748	-0.6398413116	 1.5568868858	 0.07116
C	-1.8082309965	 0.5886852436	 2.3580943699	-0.184957
O	-2.9865856879	-0.020654285	 1.8329469546	-0.236755
H	 1.9663853548	-0.3306100667	 0.0561332872	 0.131088
H	 0.7828925648	 0.9856383879	-0.1582256877	 0.109109
H	 0.9515928276	 0.1831873717	 1.426172407	 0.116626
H	-1.5320815734	 0.3701329038	-0.3196503296	 0.069797
H	-3.1640656967	-1.5764422057	-0.4504247428	 0.10527
H	-0.8440342797	-1.5909459861	-2.4617597139	 0.121068
H	-2.4240427848	-2.3596805339	-2.7267014393	 0.123157
H	-2.3080479262	-0.5943978822	-2.5693985633	 0.110094
H	-0.7762038504	-3.0267896685	-0.2954897383	 0.286612
H	-1.5680044577	-1.5915614812	 2.0619814088	 0.110398
H	-1.6962297064	 0.5368701369	 3.4402343955	 0.118726
H	-1.5388626286	 1.5444153451	 1.9090463895	 0.111745
77.2062	84.8773	90.4358	160.9597	175.9949	191.916	239.8034	261.6196	317.2322	362.7094	399.9884	433.7001	468.7989	526.3437	655.7033	839.8921	870.5859	873.6181	930.795	963.936	986.1866	1059.3972	1065.8322	1105.621	1124.0219	1149.7145	1158.453	1165.3052	1180.4562	1183.8528	1213.7171	1279.4396	1289.9235	1309.4097	1345.593	1371.4121	1399.0523	1431.0869	1445.7567	1478.7092	1487.089	1491.7604	1499.7569	1510.7795	1527.9094	2979.2481	2989.0504	3037.4687	3045.8076	3061.718	3079.5752	3108.9135	3115.6888	3125.6587	3129.1255	3166.3734	3783.001
COC(C(C)O)C1CO1	CO[C@@H]([C@@H](C)O)[C@H]1CO1	
InChI=1S/C6H12O3/c1-4(7)6(8-2)5-3-9-5/h4-7H,3H2,1-2H3	InChI=1S/C6H12O3/c1-4(7)6(8-2)5-3-9-5/h4-7H,3H2,1-2H3/t4-,5-,6+/m1/s1
