23
gdb 70995	2.87298	1.52859	1.38609	0.102	90.71	-0.227	0.0819	0.3089	1085.6042	0.208121	-351.083011	-351.075324	-351.07438	-351.114337	33.069	
C	-0.0896465351	 1.5818811691	-0.0080939682	-0.493286
C	-0.0376150376	 0.071554803	 0.0006632925	 0.281708
C	 1.0613398007	-0.7395961938	-0.8604248998	-0.358917
C	 0.7007190203	-1.8601916845	 0.1708665629	 0.315559
C	 1.2074419709	-2.8061564903	 1.3033907634	-0.32767
C	 0.3853984176	-1.8654096807	 2.2959649654	-0.302811
C	 0.5837276714	-0.759667178	 1.1974295644	 0.009359
C	-0.7660644175	-2.150319429	-0.2546716683	-0.24074
C	-1.3162144928	-0.7001336966	-0.3558423607	-0.239638
H	 0.8726020491	 2.0187582558	 0.2789190652	 0.110908
H	-0.345977484	 1.9639966506	-1.0033216747	 0.113491
H	-0.8484589469	 1.9501069241	 0.6922685053	 0.115952
H	 0.8398485277	-0.8967486066	-1.9227391472	 0.083242
H	 2.0645118364	-0.3263873536	-0.7369870215	 0.096231
H	 0.9314610702	-3.8637335416	 1.2527541412	 0.09384
H	 2.2804556408	-2.7243192699	 1.4956580641	 0.104302
H	-0.6384405854	-2.2130364544	 2.4409588938	 0.110758
H	 0.8304927081	-1.6661305397	 3.2737610207	 0.094926
H	 1.5793512699	-0.3384127278	 1.382757659	 0.068941
H	-0.7888323885	-2.6795643155	-1.2127011516	 0.090951
H	-1.315800249	-2.7631487553	 0.4630869127	 0.091339
H	-2.124487144	-0.5016902083	 0.3556322988	 0.091894
H	-1.6841997124	-0.444295277	-1.3547988473	 0.089661
211.2511	223.684	244.801	260.8515	349.4061	367.4254	452.05	488.7113	562.5321	579.9607	632.9554	674.8637	748.6869	800.3279	831.155	840.7325	858.3137	905.2188	914.5726	961.7671	977.9437	982.0059	1019.3258	1023.0701	1040.4721	1063.7525	1096.2128	1135.3406	1151.4271	1168.8689	1192.5728	1197.9293	1214.575	1224.9141	1239.6205	1248.0101	1255.2907	1263.8024	1321.0842	1329.7038	1409.8875	1414.3323	1479.8339	1486.6761	1491.4189	1492.6546	1494.7768	1502.4864	1528.5394	3016.7704	3021.0784	3031.2171	3040.0315	3049.1541	3053.2883	3071.5002	3077.5273	3083.6626	3093.0277	3102.1594	3107.0201	3116.622	3135.8574
CC12CC3(CCC13)CC2	C[C@@]12C[C@]3(CC[C@H]13)CC2	
InChI=1S/C9H14/c1-8-4-5-9(6-8)3-2-7(8)9/h7H,2-6H2,1H3	InChI=1S/C9H14/c1-8-4-5-9(6-8)3-2-7(8)9/h7H,2-6H2,1H3/t7-,8-,9+/m1/s1
