13
gdb 34478	1.92044	1.7781	0.93413	4.1279	74.98	-0.2802	-0.1032	0.177	1144.1032	0.089697	-415.634137	-415.626042	-415.625098	-415.668924	27.381	
N	 0.1310516653	-1.1450322613	-0.0453766625	-0.316893
C	 0.0330957072	 0.0081272516	-0.0058994658	 0.223173
C	-0.0268863672	 1.4213443164	 0.0427627753	 0.089248
C	-1.1227393455	 2.199058522	 0.0626891935	 0.089249
C	-0.7035101448	 3.6513617364	 0.109285463	-0.151494
O	 0.7140776042	 3.6239890041	 0.1443669206	-0.257759
C	 1.2065790891	 2.2957934806	 0.0745533962	-0.151494
C	-2.4774101529	 1.7898042882	 0.0397502558	 0.223174
N	-3.5989554345	 1.5021107357	 0.0224478268	-0.316895
H	-1.0616635469	 4.1994363539	-0.7744601943	 0.141577
H	-1.0993494676	 4.1587726012	 1.0001791692	 0.143268
H	 1.8375329646	 2.0745010476	 0.9467764342	 0.143268
H	 1.8205689389	 2.1539492336	-0.8268692121	 0.141577
15.7567	105.2135	138.355	179.2641	198.4343	366.2198	473.7604	494.8244	522.1619	581.306	619.4038	659.1442	816.415	949.7621	1005.3786	1033.7105	1064.4685	1108.7599	1166.4495	1172.8299	1226.1699	1261.5379	1368.2903	1389.8424	1511.0881	1522.8796	1683.9863	2337.8015	2348.7908	2995.3324	3000.8	3025.7446	3028.5027	15.7523	105.2137	138.3548	179.2642	198.4344	366.2195	473.7606	494.8244	522.162	581.306	619.4038	659.1439	816.415	949.762	1005.3787	1033.7105	1064.4687	1108.7598	1166.4495	1172.83	1226.17	1261.5381	1368.2903	1389.8423	1511.0882	1522.8797	1683.9862	2337.8015	2348.7908	2995.3324	3000.7999	3025.7445	3028.5027
N#CC1=C(COC1)C#N	N#CC1=C(COC1)C#N	
InChI=1S/C6H4N2O/c7-1-5-3-9-4-6(5)2-8/h3-4H2	InChI=1S/C6H4N2O/c7-1-5-3-9-4-6(5)2-8/h3-4H2
