19
gdb 64453	2.19934	1.7717	1.28895	3.2876	71.57	-0.2515	0.009	0.2605	1058.4132	0.158396	-460.202752	-460.193883	-460.192939	-460.236125	33.417	
C	 0.233797071	 1.4531079353	-0.1109088366	-0.404869
C	-0.0404651047	-0.051443927	-0.017975151	 0.196513
C	-1.550761345	-0.3297913926	 0.0823369463	-0.407734
O	 0.484340176	-0.61775565	-1.2252054559	-0.28324
C	 0.8549538591	-1.9724291414	-1.1011195251	-0.112914
C	 1.9746984945	-2.0805076157	-0.0907812505	-0.069376
O	 1.5656822491	-1.5573882509	 1.1836354727	-0.235301
C	 0.6336450067	-0.582463462	 1.2660823082	 0.399909
O	 0.3284558711	-0.1534508588	 2.3464922518	-0.339505
H	 1.3064928089	 1.642762092	-0.2044860738	 0.122872
H	-0.2645901569	 1.8551425581	-0.9971031244	 0.124088
H	-0.1396246823	 1.9587915859	 0.7806219495	 0.144328
H	-2.0537982579	 0.1101833999	-0.782687691	 0.123521
H	-1.7621850441	-1.4033049928	 0.0952398007	 0.118846
H	-1.9525671866	 0.1044292059	 0.9994735478	 0.147192
H	 0.0054054734	-2.6048267405	-0.7994971761	 0.105004
H	 1.1936182699	-2.3056281557	-2.0864790871	 0.121831
H	 2.2696855076	-3.118225864	 0.0898232463	 0.123965
H	 2.8495092403	-1.5171574458	-0.4351692517	 0.124872
64.5951	145.2231	201.335	242.7052	250.4992	297.0562	308.5036	340.176	428.9488	455.2983	487.3759	531.0369	642.6705	684.4707	748.5339	847.7063	901.4332	938.9882	941.0386	986.4706	1024.2438	1082.5019	1126.9069	1136.1543	1172.5472	1190.2161	1217.64	1261.6459	1272.644	1318.1752	1388.8959	1400.1197	1412.346	1425.3489	1475.8244	1480.4398	1492.3509	1498.9684	1503.732	1508.432	1832.1907	2990.9896	3041.9111	3047.4554	3052.2258	3092.1234	3099.3201	3116.9459	3123.1875	3144.8067	3153.316
CC1(C)OCCOC1=O	CC1(C)OCCOC1=O	
InChI=1S/C6H10O3/c1-6(2)5(7)8-3-4-9-6/h3-4H2,1-2H3	InChI=1S/C6H10O3/c1-6(2)5(7)8-3-4-9-6/h3-4H2,1-2H3
