16
gdb 52074	2.99749	1.09947	0.90456	4.7335	68.83	-0.2619	-0.0516	0.2103	1276.7815	0.12145	-474.993843	-474.984708	-474.983764	-475.028906	31.519	
N	-0.2772442479	 1.198899607	 0.3063153679	-0.440178
C	-0.4045581178	 0.0410690369	-0.1732111167	 0.134908
O	-0.7539733554	-0.9815505227	 0.6443861449	-0.187841
C	-0.8742006862	-2.2762832019	 0.0755032032	-0.1607
C	-2.3239575234	-2.6882556635	-0.0290736612	 0.303429
C	-2.7260786285	-4.0926991385	 0.2222372256	-0.223104
O	-2.9824928767	-3.0847321172	 1.180510533	-0.247945
C	-3.2022087768	-1.9085659969	-0.961256334	 0.121817
O	-2.7824886569	-1.1834534281	-1.8267586915	-0.256238
H	-0.0110703958	 1.8497677427	-0.4294664371	 0.231482
H	-0.2663459757	-0.2626842609	-1.2172333069	 0.104136
H	-0.4133445572	-2.313872922	-0.9189962907	 0.125375
H	-0.3470475849	-2.9704714392	 0.7360179968	 0.125196
H	-3.599350142	-4.5040151198	-0.2825481906	 0.131769
H	-1.949493329	-4.8122791921	 0.4780359299	 0.13461
H	-4.2877758659	-2.0693755637	-0.7859604526	 0.103284
56.5103	63.7349	119.8096	143.7993	183.6551	257.2384	312.4119	347.8033	392.3359	462.7616	539.0962	659.3657	795.6922	814.4024	863.2777	889.6184	932.1717	979.3919	1026.1397	1032.3485	1056.1352	1134.4451	1139.2552	1167.2537	1242.1724	1299.7696	1336.7577	1358.2335	1388.0212	1420.2472	1440.5628	1479.6555	1523.2235	1746.6406	1822.9873	2911.7708	3035.9071	3058.3234	3084.0577	3098.3055	3174.0025	3521.0866
N=COCC1(CO1)C=O	[NH][CH]OC[C@]1(CO1)C=O	
InChI=1S/C5H7NO3/c6-4-8-2-5(1-7)3-9-5/h1,4,6H,2-3H2	InChI=1S/C5H7NO3/c6-4-8-2-5(1-7)3-9-5/h1,4,6H,2-3H2/t5-/m0/s1
