19
gdb 36442	4.31599	0.9519	0.89618	4.4976	80.59	-0.2305	0.0232	0.2537	1335.7397	0.160175	-382.037626	-382.02938	-382.028436	-382.071224	30.81	
N	 0.0235525284	-1.1590510966	-0.2750955674	-0.304911
C	-0.0100535377	-0.0150175325	-0.1197472163	 0.276365
C	-0.0524697978	 1.4360360989	 0.1048633974	-0.292875
N	 1.273303771	 2.0084874621	 0.0991278852	-0.083603
C	 2.1675333438	 1.7497278896	 1.2536314043	-0.18067
C	 2.5958082623	 3.229299806	 1.2322125388	-0.041841
C	 3.5639500139	 3.6441981069	 0.0820871156	-0.224579
C	 2.3480681744	 4.1083956688	-0.7824581282	-0.213848
C	 1.39942254	 3.4820249665	 0.2607282218	 0.016604
H	-0.6412468639	 1.8900781644	-0.7012373692	 0.15434
H	-0.6092640792	 1.6115745005	 1.0472145348	 0.122856
H	 1.6161749984	 1.4947647226	 2.1727268421	 0.093076
H	 2.9299363447	 0.9837058007	 1.0753696401	 0.115772
H	 2.7157577392	 3.7360480241	 2.1878531345	 0.078304
H	 4.2678492976	 4.4373284109	 0.3422655868	 0.104361
H	 4.1285012914	 2.8081491467	-0.3379454236	 0.111895
H	 2.2588350416	 5.1981761366	-0.82001534	 0.099817
H	 2.2700943767	 3.7062610158	-1.794745567	 0.106681
H	 0.4752319551	 4.0004840678	 0.5388948404	 0.062256
55.7003	86.338	139.0709	232.7572	294.2896	352.046	385.9506	394.2134	515.8608	663.1038	727.0531	789.9448	811.0457	828.6084	884.9437	925.4387	948.7254	962.08	976.6634	994.3392	1036.083	1072.5957	1090.2251	1129.0114	1173.5771	1183.3235	1199.0315	1214.0476	1240.3625	1259.0557	1272.0471	1279.2406	1305.1106	1322.219	1343.8635	1391.3747	1465.8887	1470.8257	1486.9224	1513.0922	2365.74	2903.893	2974.8054	3039.6429	3055.6233	3058.7141	3063.2818	3067.8622	3108.5211	3122.8148	3131.6175
N#CCN1CC2CCC12	N#CCN1C[C@H]2CC[C@@H]12	
InChI=1S/C7H10N2/c8-3-4-9-5-6-1-2-7(6)9/h6-7H,1-2,4-5H2	InChI=1S/C7H10N2/c8-3-4-9-5-6-1-2-7(6)9/h6-7H,1-2,4-5H2/t6-,7-/m1/s1
