19
gdb 38590	3.54699	1.69138	1.5278	1.4948	78.44	-0.2411	0.0791	0.3202	930.718	0.161994	-385.791427	-385.785156	-385.784212	-385.821584	27.644	
C	-0.011729225	 1.516052547	 0.1300297225	-0.311728
C	 1.2918813457	 0.7825414444	-0.023048185	 0.102008
O	 2.0792321208	 0.4956443867	 1.1378274399	-0.299381
C	 1.6380692651	-0.7979938819	 1.5500617327	 0.150001
C	 1.0204872863	-1.2306637721	 2.9164017345	-0.113014
C	-0.0145966019	-0.100182465	 2.7453257898	-0.257605
C	 0.1331981039	-0.7462083986	 1.318747586	 0.327779
C	 0.0651348303	-2.1314042183	 2.0332812776	-0.321428
C	-0.024539713	 0.0024481023	 0.0104860688	-0.240642
H	-0.2552403254	 1.9639110959	 1.0855326697	 0.124547
H	-0.3506965756	 2.0846107912	-0.7309094286	 0.11215
H	 1.8807367042	 0.9029327675	-0.9268060972	 0.096689
H	 2.2097008294	-1.5763054157	 1.0284753181	 0.061776
H	 1.5296582533	-1.5359246846	 3.8306096004	 0.076497
H	-0.9800930895	-0.2392722794	 3.2382655301	 0.086342
H	 0.3661017264	 0.9116585146	 2.8752309624	 0.111846
H	 0.5207220516	-2.9782877555	 1.5126455102	 0.099139
H	-0.8812461521	-2.4081323268	 2.5026343007	 0.101573
H	-0.4281806146	-0.4720105817	-0.8757874828	 0.093452
226.1821	270.5056	369.8649	444.3497	480.9633	507.3636	576.3042	680.0499	728.0478	770.3198	774.146	813.5338	856.053	898.2239	902.4834	929.5361	954.2252	965.6039	973.0332	1020.7254	1031.2503	1058.9331	1074.4579	1087.1306	1093.0856	1094.2934	1112.4955	1141.277	1156.5208	1175.5856	1184.2401	1206.1395	1219.8125	1242.0017	1276.4187	1338.4217	1346.7846	1399.3655	1472.2449	1492.0122	1530.16	3020.6926	3056.4975	3068.1791	3112.8954	3125.4815	3131.9089	3151.4542	3156.9295	3182.433	3226.6679
C1C2OC3C4CC3(C4)C12	C1[C@H]2O[C@H]3[C@H]4C[C@@]3(C4)[C@@H]12	
InChI=1S/C8H10O/c1-5-6(1)9-7-4-2-8(5,7)3-4/h4-7H,1-3H2	InChI=1S/C8H10O/c1-5-6(1)9-7-4-2-8(5,7)3-4/h4-7H,1-3H2/t4-,5-,6+,7-,8+/m0/s1
