15
gdb 52504	4.75868	0.49327	0.45509	4.5784	90.81	-0.2473	-0.0305	0.2168	2303.8845	0.109317	-420.599863	-420.589677	-420.588732	-420.639208	32.876	
C	-0.2168141469	 1.1891691122	-0.1933232245	-0.519088
C	-0.0931076344	-0.2467169847	-0.0259297958	 0.263764
C	 0.0077513187	-1.4444856172	 0.1150309732	-0.191346
C	 0.1182192872	-2.7893796415	 0.2732102418	-0.280091
C	 0.2166491372	-3.987581612	 0.4143529498	 0.377884
C	 0.3318858046	-5.4269971851	 0.5773694362	-0.284126
O	-0.9479813454	-6.0857672467	 0.6463663119	-0.165736
C	-1.548287964	-6.3573113143	-0.5325319795	 0.183607
O	-2.6207273677	-6.8743830012	-0.5996056435	-0.265041
H	 0.0994926927	 1.5002764749	-1.19510728	 0.161094
H	-1.2546930773	 1.5117814754	-0.0544661704	 0.163637
H	 0.4001790753	 1.7259403974	 0.5358475942	 0.161669
H	 0.9306711868	-5.8608607854	-0.2349871769	 0.145967
H	 0.8280244391	-5.6760889855	 1.5195778174	 0.163081
H	-0.9374624359	-6.0611587163	-1.4073006339	 0.084725
6.7848	30.8392	74.3754	95.0149	132.6189	198.2677	240.8568	325.7546	356.1686	376.0678	439.06	550.8147	555.6374	617.7978	693.0385	953.8189	985.7428	1027.7471	1043.5682	1046.433	1048.0103	1142.3771	1289.9217	1294.9368	1387.1047	1412.6146	1432.7394	1469.41	1470.4496	1479.504	1872.977	2280.3124	2385.8015	2952.4991	3018.1796	3026.6171	3089.3196	3090.5193	3090.8334	6.8129	30.84	74.3761	95.015	132.6188	198.2684	240.8593	325.7549	356.1686	376.069	439.0598	550.8144	555.6374	617.7978	693.0385	953.819	985.743	1027.7472	1043.5681	1046.4327	1048.01	1142.3772	1289.9216	1294.9367	1387.1046	1412.6143	1432.7394	1469.4095	1470.4491	1479.504	1872.9767	2280.3128	2385.8016	2952.4991	3018.1796	3026.6172	3089.3196	3090.5194	3090.8334
CC#CC#CCOC=O	CC#CC#CCOC=O	
InChI=1S/C7H6O2/c1-2-3-4-5-6-9-7-8/h7H,6H2,1H3	InChI=1S/C7H6O2/c1-2-3-4-5-6-9-7-8/h7H,6H2,1H3
