17
gdb 44862	3.3426	1.65964	1.50946	3.3975	70.25	-0.2329	0.0236	0.2565	907.6912	0.140688	-418.01773	-418.011468	-418.010524	-418.048098	26.647	
O	 0.007050062	 0.0049634972	 0.1059840453	-0.382778
C	 0.0104625939	 1.2076262364	-0.0064674649	 0.413304
N	-1.0998712949	 2.0403361113	-0.0781699927	-0.298266
C	-0.6455907491	 3.4398422382	 0.0297916381	-0.033262
C	 0.620733763	 3.3462117122	-0.8476479699	-0.22723
C	 1.2137462829	 2.1815432633	-0.0263332381	-0.155932
C	 1.1679296372	 2.7556338544	 1.4078529557	-0.027084
N	 1.2772500714	 4.23102653	 1.501174329	-0.349522
C	-0.0552378923	 3.5917554394	 1.448754294	-0.035458
H	-1.9764162126	 1.7204066276	 0.3063825622	 0.24606
H	-1.4135954524	 4.1502859776	-0.2745409106	 0.081079
H	 0.3757318206	 3.061246229	-1.8715832348	 0.109008
H	 1.2299844203	 4.2461168094	-0.8274243237	 0.136997
H	 2.1483575378	 1.728150444	-0.3486351531	 0.087334
H	 1.4798366471	 2.1387632278	 2.242509	 0.106409
H	 1.486268202	 4.4790944224	 2.4657974148	 0.235543
H	-0.712596317	 3.6261232898	 2.3109425387	 0.093801
155.6988	314.1847	384.9846	449.8488	482.9591	503.3307	544.3544	603.8628	719.5393	750.837	787.8369	826.7383	865.7963	882.6983	890.5682	925.9445	933.0795	960.3911	967.1876	1012.9717	1018.883	1078.1602	1101.6032	1145.8352	1151.6161	1194.1439	1215.103	1227.0179	1250.3202	1287.1039	1297.464	1338.7862	1350.9782	1374.2105	1412.9262	1486.5641	1843.7287	3099.5602	3121.2775	3147.8449	3169.5106	3175.0162	3186.1252	3497.8001	3620.5502
O=C1NC2CC1C1NC21	O=C1N[C@@H]2C[C@H]1[C@H]1N[C@@H]21	
InChI=1S/C6H8N2O/c9-6-2-1-3(7-6)5-4(2)8-5/h2-5,8H,1H2,(H,7,9)	InChI=1S/C6H8N2O/c9-6-2-1-3(7-6)5-4(2)8-5/h2-5,8H,1H2,(H,7,9)/t2-,3+,4+,5-/m0/s1
