14
gdb 132767	2.42283	1.83313	1.05032	2.2227	66.45	-0.2608	-0.0269	0.2339	1037.4138	0.101771	-478.052338	-478.044768	-478.043823	-478.084858	27.754	
C	-0.0293203881	 1.5655899493	-0.0260178002	-0.503989
C	-0.0047603968	 0.0644359127	-0.0169124862	 0.001894
C	-0.1510441782	-0.731149635	-1.1449773368	 0.306839
F	-0.3254424639	-0.1373089962	-2.3197830378	-0.059962
N	-0.133894531	-2.0521043554	-1.168520484	-0.319152
C	 0.0415227794	-2.632620173	 0.0151026138	 0.065852
N	 0.1966805741	-2.0186629844	 1.1861967188	-0.352973
C	 0.1712657624	-0.6875182046	 1.1520443985	 0.391999
O	 0.3243781384	-0.0323496931	 2.313064947	-0.400212
H	 0.9075022983	 1.974808008	 0.3659841243	 0.145109
H	-0.1776089887	 1.9419531253	-1.0384390297	 0.143496
H	-0.8336285011	 1.9477636867	 0.6109958933	 0.14511
H	 0.0602063536	-3.7188302	 0.0283428835	 0.12992
H	 0.4308633015	-0.7102346903	 2.9959506755	 0.30607
69.9758	132.8339	244.8936	268.9944	284.1175	357.4512	519.475	539.9363	551.3422	571.0704	571.4897	712.3029	714.8328	816.372	883.6063	953.8955	991.5579	1063.9634	1114.2205	1159.5171	1258.4678	1323.3636	1342.4043	1361.5857	1414.9614	1469.692	1486.3139	1488.3338	1499.1518	1626.9094	1654.988	3043.6924	3094.9192	3149.5776	3176.3122	3759.6647
CC1=C(F)N=CN=C1O	Cc1c(F)ncnc1O	
InChI=1S/C5H5FN2O/c1-3-4(6)7-2-8-5(3)9/h2H,1H3,(H,7,8,9)	InChI=1S/C5H5FN2O/c1-3-4(6)7-2-8-5(3)9/h2H,1H3,(H,7,8,9)
