20
gdb 119921	2.10725	1.32493	0.99001	5.1853	79.75	-0.2588	0.02	0.2788	1277.2733	0.16995	-403.150108	-403.140083	-403.139139	-403.18593	35.924	
C	-0.0705216369	 1.6122970263	 0.1037149611	-0.415936
C	 0.1127174788	 0.1115827184	 0.0575627974	-0.04133
C	 0.5281326673	-0.6308578161	-1.1812558674	-0.024165
C	 0.746057087	 0.0263447789	-2.531536087	-0.252617
C	 1.7664211105	-0.6927844194	-3.4370379507	-0.045901
O	 3.0913414337	-0.2212389667	-3.3085863179	-0.417537
C	 1.5064103357	-0.5159963413	-0.0036732575	-0.203856
C	 2.6732865636	 0.3069169745	-0.1121479367	 0.287359
N	 3.6317892573	 0.9491685267	-0.2192837328	-0.348411
H	 0.6971424873	 2.1425141453	-0.4638705601	 0.146889
H	-1.0481458297	 1.8929870755	-0.3014743659	 0.127403
H	-0.01974975	 1.9706555953	 1.1365622243	 0.132012
H	-0.5625800826	-0.4321441574	 0.7128710729	 0.104528
H	 0.119410848	-1.6353223543	-1.26597372	 0.104402
H	-0.2272879542	 0.0449429162	-3.0386249414	 0.107441
H	 1.0664563814	 1.0675638075	-2.4336079057	 0.124304
H	 1.7015909321	-1.7823370361	-3.2728788066	 0.078761
H	 1.5009614193	-0.5149909486	-4.4842684153	 0.107625
H	 3.3650663737	-0.2508770192	-2.3855751598	 0.29459
H	 1.6714625277	-1.4135358358	 0.5831051391	 0.13444
29.228	108.2141	123.3302	130.8988	165.2542	211.4893	266.9951	324.4504	365.4559	382.8041	424.5095	522.8323	591.8611	629.5837	727.5303	776.7672	814.9289	884.4564	936.648	969.1418	977.6858	1027.5066	1052.0934	1090.3173	1105.1425	1134.0999	1149.3957	1174.8665	1223.8968	1242.0623	1261.4255	1339.9149	1365.6153	1386.1624	1395.7251	1424.0498	1431.3326	1439.3079	1471.3084	1494.5163	1503.0433	1511.9856	2337.7696	2955.3427	3027.344	3042.9879	3070.3355	3093.4023	3104.2769	3125.3643	3131.4678	3147.0662	3167.4068	3808.8107
CC1C(CCO)C1C#N	C[C@H]1[C@@H](CCO)[C@H]1C#N	
InChI=1S/C7H11NO/c1-5-6(2-3-9)7(5)4-8/h5-7,9H,2-3H2,1H3	InChI=1S/C7H11NO/c1-5-6(2-3-9)7(5)4-8/h5-7,9H,2-3H2,1H3/t5-,6+,7-/m0/s1
