15
gdb 129766	3.54432	1.62327	1.12308	4.3066	76.92	-0.1988	-0.0321	0.1668	1017.1294	0.116094	-412.991113	-412.984175	-412.98323	-413.02232	26.967	
N	 0.0517943176	 1.4216782039	 0.1505502999	-0.594945
C	-0.0661747738	 0.0379615969	 0.046897092	 0.153315
C	-1.1841462096	-0.7786551071	 0.0370382593	 0.345487
C	-2.6262042367	-0.9295461552	 0.0502030729	-0.22882
C	-2.9257150759	-2.2421409964	 0.0133810765	-0.101994
C	-1.6610640228	-3.0812582746	-0.0271378639	-0.232984
N	-0.6487664568	-2.0345036252	-0.0087754828	 0.050934
N	 0.6778320897	-2.0307657768	-0.0140862571	-0.179804
N	 1.0389037707	-0.7626485713	 0.0129556109	-0.256736
H	 1.0069694401	 1.7078317423	-0.0266293446	 0.255855
H	-0.5830895225	 1.9325553467	-0.4485075962	 0.247046
H	-3.3324561177	-0.1125579142	 0.0893978203	 0.120353
H	-3.9122414418	-2.6833652911	 0.0153965455	 0.117793
H	-1.5579372848	-3.7433527617	 0.8401224952	 0.153224
H	-1.5796787657	-3.6947039363	-0.9318708779	 0.151277
157.874	196.4582	236.882	274.0917	350.5003	466.666	517.6447	630.8079	653.5949	675.5509	696.0099	739.5899	780.0517	847.9693	877.6916	939.9053	942.6108	983.4772	1069.7144	1092.2877	1162.1133	1178.7644	1227.7108	1259.9694	1277.6587	1333.1331	1363.0919	1416.1189	1461.746	1483.1728	1603.5037	1635.0109	1664.4395	3040.2579	3074.5273	3229.9182	3250.1361	3537.426	3631.0968
NC1=C2C=CCN2N=N1	Nc1c2C=CCn2nn1	
InChI=1S/C5H6N4/c6-5-4-2-1-3-9(4)8-7-5/h1-2H,3,6H2	InChI=1S/C5H6N4/c6-5-4-2-1-3-9(4)8-7-5/h1-2H,3,6H2
