18
gdb 31788	3.30992	1.2656	0.9263	0.2091	75.92	-0.1606	0.0722	0.2328	1241.3281	0.146531	-439.102289	-439.092537	-439.091593	-439.137368	34.446	
C	 0.1181017488	 0.738878672	-0.9176232421	-0.242566
O	 0.4756147322	 1.0211838302	 0.421828757	-0.266815
C	 1.0237178165	-0.0237273182	 1.088555747	 0.394401
C	 1.3369254133	-1.3115739094	 0.7475119303	-0.300843
C	 1.9076704127	-1.9204475209	 1.9225712776	-0.308478
C	 1.9028862251	-0.9676722592	 2.902069258	 0.356648
O	 2.3126300321	-0.9560515123	 4.2015701985	-0.444663
N	 1.3586873381	 0.1983444489	 2.409865125	-0.133351
C	 1.207001614	 1.4467994561	 3.1274314636	-0.342024
H	 0.9974725804	 0.4487616808	-1.5075534818	 0.123646
H	-0.6222692829	-0.070387347	-0.9664125566	 0.123298
H	-0.3112369573	 1.6547184593	-1.326610496	 0.131023
H	 1.1871491701	-1.7806055835	-0.2104323141	 0.092749
H	 2.268720036	-2.9328765897	 2.0151594578	 0.082503
H	 2.5765288237	-1.8505638837	 4.4352966831	 0.305117
H	 0.2743802292	 1.9282649804	 2.8276267748	 0.145241
H	 1.1809094376	 1.2356277875	 4.196810524	 0.151252
H	 2.0351016604	 2.1356767487	 2.9240137137	 0.132859
54.1704	77.3787	123.8388	184.1505	205.1531	209.4874	252.4307	288.7806	342.0039	369.4315	553.046	612.9044	617.3626	661.5375	685.5051	712.3109	717.3611	780.7589	966.0483	1031.8427	1090.2594	1133.9019	1155.342	1185.0409	1211.2174	1222.6062	1253.3032	1277.0521	1319.5609	1432.9095	1453.0915	1475.7812	1481.03	1490.4054	1510.1277	1518.162	1548.3946	1617.9509	1627.5394	3003.4159	3034.8609	3059.337	3111.0799	3136.4023	3156.8183	3244.8831	3270.3657	3853.1207
COC1=CC=C(O)N1C	COc1ccc(O)n1C	
InChI=1S/C6H9NO2/c1-7-5(8)3-4-6(7)9-2/h3-4,8H,1-2H3	InChI=1S/C6H9NO2/c1-7-5(8)3-4-6(7)9-2/h3-4,8H,1-2H3
