21
gdb 70455	3.38249	1.00142	0.89751	0.9849	88.59	-0.2426	0.0593	0.3019	1381.5452	0.18117	-349.899558	-349.890267	-349.889323	-349.933608	35.71	
C	-0.1034006177	 1.5342522231	 0.1052792448	-0.500134
C	 0.0234036923	 0.0382707036	 0.0434094572	 0.350004
C	-0.8137155404	-0.8868756243	 0.8894646691	-0.330057
C	 0.6828048422	-0.947951409	 1.0176059421	-0.092451
C	 1.2636387367	-1.7575919015	-0.1471783156	-0.243591
C	 0.6382522047	-0.7264110112	-1.1443610277	-0.030646
C	-0.2947948159	-1.2254821099	-2.2599185881	-0.380002
C	 0.4058981131	-2.0148439818	-3.2663365711	 0.304915
C	 1.0143668236	-2.6603088965	-4.0780419154	-0.451532
H	 0.8299914754	 2.0269950092	-0.1912908798	 0.115739
H	-0.8953539986	 1.8987789098	-0.5609875768	 0.118295
H	-0.3504325766	 1.8690257815	 1.1182658375	 0.117726
H	-1.3343920536	-0.3996124835	 1.7084181077	 0.107677
H	-1.3617747514	-1.7236056136	 0.4611361684	 0.101451
H	 1.1861849774	-0.7382539999	 1.9542539806	 0.08274
H	 2.3544104774	-1.769239744	-0.1858554003	 0.104648
H	 0.9034372797	-2.7887685737	-0.2316582893	 0.098469
H	 1.4327142264	-0.1273178083	-1.6000315042	 0.081095
H	-1.1057366277	-1.8252666634	-1.8284059999	 0.126519
H	-0.7766259587	-0.3637620662	-2.7412405793	 0.12697
H	 1.5387554619	-3.2328358404	-4.80204679	 0.192164
59.8099	112.2801	157.516	191.5333	226.4363	299.1815	335.1094	350.0178	414.8362	483.5595	503.5794	608.0923	617.5684	632.5628	727.8578	805.8273	829.5129	866.4537	876.4478	948.9539	965.8922	967.755	1003.2171	1022.9794	1042.3903	1080.3001	1089.0252	1101.8919	1123.2077	1167.4547	1220.8426	1240.3355	1247.3457	1268.3486	1302.1674	1319.0049	1369.9862	1401.668	1423.3337	1468.7642	1485.0478	1486.6813	1498.5174	1508.2434	2235.7554	3015.7602	3017.3073	3043.5665	3044.8816	3062.3717	3073.1318	3093.0023	3102.2054	3111.3254	3174.7514	3191.259	3507.527
CC12CC1CC2CC#C	C[C@]12C[C@H]1C[C@H]2CC#C	
InChI=1S/C9H12/c1-3-4-7-5-8-6-9(7,8)2/h1,7-8H,4-6H2,2H3	InChI=1S/C9H12/c1-3-4-7-5-8-6-9(7,8)2/h1,7-8H,4-6H2,2H3/t7-,8-,9-/m1/s1
