18
gdb 45504	4.12027	1.24852	1.01755	3.6375	78.95	-0.236	0.007	0.243	1154.9096	0.150806	-402.009155	-402.001896	-402.000952	-402.040891	28.945	
O	-0.0408055826	-0.0293115131	-0.1227021886	-0.369797
C	-0.0436219629	 1.1723043529	 0.0078680471	 0.409495
C	-1.288964931	 2.0886322461	 0.1184256101	-0.472492
C	-0.6824529864	 3.4006147591	 0.4874545161	 0.354194
C	-0.9594184867	 4.4344311083	 1.2754198976	-0.22406
C	 0.2721951666	 5.2961935116	 1.4921393687	-0.247155
C	 1.432075352	 4.3425819126	 1.0820416783	-0.239881
C	 0.7724071907	 3.4064210021	 0.0513176626	-0.020715
N	 1.0705372688	 1.9816615246	 0.0651171031	-0.325716
H	-1.7770580192	 2.0911122117	-0.8655535227	 0.138311
H	-2.0063205315	 1.6897748138	 0.8382007742	 0.141472
H	-1.9150092741	 4.6400088458	 1.7441464437	 0.097592
H	 0.2525627721	 6.2000933443	 0.8669120501	 0.109748
H	 0.3648202258	 5.6408102025	 2.5273127346	 0.109564
H	 2.3098174167	 4.8698284838	 0.698721334	 0.095775
H	 1.7384135845	 3.7482725626	 1.9489721872	 0.113109
H	 0.8932903943	 3.8143563939	-0.9667270906	 0.082694
H	 1.9666662026	 1.5934189574	-0.1865645156	 0.247862
97.2271	158.4708	251.6359	335.5539	363.5664	468.5592	510.872	549.198	603.9559	608.0981	684.9934	746.0283	818.8126	840.2163	850.663	876.954	917.0007	969.2901	975.1193	1001.442	1068.1651	1103.8764	1138.338	1166.2956	1176.1163	1221.0606	1223.9901	1249.6314	1286.1517	1294.6509	1317.033	1340.6835	1385.4269	1420.1092	1453.5024	1484.4538	1498.9239	1747.6764	1838.029	2947.5915	3009.4128	3026.8925	3052.1813	3069.0956	3105.8903	3114.9712	3198.059	3630.2935
O=C1CC2=CCCC2N1	O=C1CC2=CCC[C@H]2N1	
InChI=1S/C7H9NO/c9-7-4-5-2-1-3-6(5)8-7/h2,6H,1,3-4H2,(H,8,9)	InChI=1S/C7H9NO/c9-7-4-5-2-1-3-6(5)8-7/h2,6H,1,3-4H2,(H,8,9)/t6-/m1/s1
