17
gdb 98642	4.68409	0.89537	0.77935	3.4429	71.79	-0.2509	-0.0355	0.2154	1424.0949	0.134694	-455.176384	-455.167067	-455.166123	-455.211557	32.37	
C	-0.0165033401	 1.4126492643	-0.061129268	-0.324592
N	-0.0356874725	-0.0388395759	-0.091303548	-0.351725
C	-1.2299876244	-0.7185354549	-0.0432973064	 0.459343
O	-2.3076879428	-0.1936194235	 0.1770262561	-0.401777
N	-1.1123314563	-2.0849804557	-0.264983729	-0.149987
C	-0.0094164856	-2.9518303684	 0.2074958819	-0.317457
C	-1.091447755	-3.9980955986	 0.5576268205	 0.391151
O	-1.069128463	-5.1188863276	 0.960605245	-0.268253
C	-2.1900435073	-3.0021021362	 0.1531266967	-0.282462
H	 0.8665074765	 1.7665505334	 0.4787439327	 0.123215
H	-0.0164164521	 1.8539106623	-1.0662468935	 0.123962
H	-0.9153701993	 1.7451075415	 0.4582451481	 0.16999
H	 0.7433145399	-0.5024657416	-0.5303382611	 0.246102
H	 0.7071144124	-3.2627470194	-0.5615255542	 0.137649
H	 0.5350164626	-2.5631928236	 1.0778691711	 0.143512
H	-2.7954661753	-2.6197684019	 0.9833455427	 0.156832
H	-2.8558434376	-3.3316669543	-0.6509998944	 0.144498
60.7586	65.6832	103.8961	137.6879	159.7455	240.996	306.121	410.1525	437.4507	461.0373	478.0883	566.4144	713.7342	768.3633	775.8359	807.8825	927.6894	1015.9644	1053.3034	1068.1587	1094.3454	1134.5961	1148.23	1157.302	1176.5892	1197.3874	1257.4726	1288.0703	1339.6754	1443.0712	1464.5164	1483.669	1493.9853	1502.4091	1557.1181	1776.1657	1928.7574	3019.1008	3019.5751	3043.0922	3070.2433	3087.3617	3089.6195	3158.4734	3634.2413
CNC(=O)N1CC(=O)C1	CNC(=O)N1CC(=O)C1	
InChI=1S/C5H8N2O2/c1-6-5(9)7-2-4(8)3-7/h2-3H2,1H3,(H,6,9)	InChI=1S/C5H8N2O2/c1-6-5(9)7-2-4(8)3-7/h2-3H2,1H3,(H,6,9)
