15
gdb 21174	7.13025	1.27509	1.09415	3.7942	66.13	-0.1985	0.0352	0.2337	1052.0977	0.119952	-395.972837	-395.964966	-395.964022	-396.004973	28.795	
C	-0.0599993145	 1.4510964154	-0.1194980371	-0.329763
N	 0.1467162587	 0.0210106675	 0.0621114322	-0.393357
C	 0.6465915035	-0.7454814821	-0.9523852085	 0.558429
C	 0.6887998516	-2.0993358454	-1.1545718512	-0.472164
C	 1.4203435506	-2.2160883457	-2.3688355605	 0.440843
N	 1.8158303088	-3.394344293	-2.9847560132	-0.590901
N	 1.7736464009	-1.0519945995	-2.8732042582	-0.253625
O	 1.2725845053	-0.0979750852	-1.9414126227	-0.228162
H	 0.8720197692	 1.9140308123	-0.4485684828	 0.161024
H	-0.838189259	 1.6864873648	-0.8587355281	 0.126612
H	-0.3413767125	 1.8858950664	 0.8418317045	 0.127799
H	-0.5337355851	-0.4512907853	 0.6354664261	 0.251081
H	 0.3003869852	-2.8826829654	-0.5263493366	 0.096492
H	 1.1221035734	-4.127593877	-2.9459867727	 0.249657
H	 2.1391756738	-3.2427025779	-3.9314541511	 0.256036
83.3301	137.2318	201.312	219.3651	295.9175	355.0603	385.6835	453.6462	523.5392	635.0565	658.6791	694.362	701.8716	760.0825	777.5073	921.6421	990.9036	1028.0472	1077.5639	1137.343	1149.134	1162.1725	1223.5096	1365.1224	1446.6468	1466.3799	1489.0095	1516.2218	1529.4552	1579.9676	1647.2981	1677.1446	3008.5083	3100.9896	3143.1494	3273.0796	3551.266	3634.863	3650.5706
CNC1=CC(N)=NO1	CNc1cc(N)no1	
InChI=1S/C4H7N3O/c1-6-4-2-3(5)7-8-4/h2,6H,1H3,(H2,5,7)	InChI=1S/C4H7N3O/c1-6-4-2-3(5)7-8-4/h2,6H,1H3,(H2,5,7)
