21
gdb 103478	2.28826	1.65815	1.20509	1.5909	78.89	-0.221	0.0731	0.2941	1134.05	0.179883	-424.174181	-424.164442	-424.163498	-424.208157	36.209	
C	-0.5249253004	 1.0559658705	 0.1035599954	-0.252409
O	 0.3696001282	-0.0299680309	-0.0791684814	-0.283765
C	 0.8607054187	-0.5809181165	 1.1086110719	 0.369343
C	 2.0446506875	 0.1591269854	 1.6973221774	-0.465768
C	-0.0784580999	-1.2390282548	 2.0901837874	-0.034486
O	-1.2550363682	-1.7127329033	 1.4442687555	-0.291635
C	-0.4550009289	-2.5903973388	 0.6059785534	-0.124703
C	 0.8541195651	-2.0914794567	 1.2248523347	 0.174187
C	 2.0384752663	-2.9742827977	 1.4959880042	-0.503589
H	-0.0470675512	 1.9066918654	 0.6101393914	 0.100948
H	-0.8325349581	 1.3782833344	-0.8941974813	 0.12294
H	-1.4089127998	 0.7457530004	 0.6722444954	 0.132178
H	 1.7974064614	 1.2147125418	 1.8480594183	 0.123524
H	 2.3357050077	-0.2500877657	 2.6690094915	 0.119633
H	 2.9099682263	 0.1065755236	 1.0287519574	 0.127931
H	-0.1301289139	-1.0280255303	 3.1544566426	 0.09557
H	-0.6674377277	-3.6389164778	 0.8450429214	 0.100925
H	-0.6083944946	-2.3992954966	-0.4598137428	 0.116177
H	 2.5257674711	-3.2704577555	 0.5588741635	 0.126996
H	 2.7921366975	-2.4753675087	 2.1105096037	 0.124011
H	 1.7369253832	-3.8901825182	 2.0162421807	 0.121991
114.4414	147.1	153.446	165.8873	199.4221	249.6016	262.9034	277.7302	326.2705	356.1897	393.1792	487.1272	605.7436	657.0714	686.8258	798.9098	872.1367	927.7638	963.2213	975.6623	988.5735	997.4265	1051.9782	1075.3586	1113.7939	1132.4573	1159.5302	1175.8797	1185.2049	1199.6825	1235.8489	1240.2638	1297.8004	1325.4272	1408.1417	1420.4047	1441.5918	1473.6429	1482.9102	1488.3333	1491.1356	1496.8405	1502.9645	1505.2117	1511.9761	2997.1071	3024.543	3031.8919	3037.5351	3068.8735	3080.7067	3096.3133	3102.3413	3108.9437	3116.1429	3118.8089	3153.4514
COC1(C)C2OCC12C	CO[C@@]1(C)[C@H]2OC[C@@]12C	
InChI=1S/C7H12O2/c1-6-4-9-5(6)7(6,2)8-3/h5H,4H2,1-3H3	InChI=1S/C7H12O2/c1-6-4-9-5(6)7(6,2)8-3/h5H,4H2,1-3H3/t5-,6+,7-/m0/s1
