23
gdb 40232	2.59311	1.56021	1.18403	0.2292	88.86	-0.2381	0.0808	0.3189	1150.4459	0.20887	-351.149499	-351.141552	-351.140608	-351.181579	33.139	
C	 0.058913258	 1.5262918724	-0.0041087862	-0.325424
C	 1.3195693888	 0.6922120725	 0.0015490401	-0.312661
C	-0.0371717928	 0.021118961	-0.0007012571	 0.410114
C	-0.4714330608	-0.6804743092	 1.2777482909	-0.292398
C	-0.1078066978	-2.1698690654	 1.2214100418	-0.191686
C	-0.8673583395	-2.892677489	 0.0956910072	-0.218184
C	-0.8502976547	-2.1355427823	-1.2345781292	-0.029465
C	-1.8897180993	-1.0729127642	-1.5128597046	-0.304337
C	-0.4559146095	-0.6703525784	-1.2695892508	-0.077003
H	-0.2051992002	 2.0583734334	 0.9045643089	 0.10428
H	-0.200396387	 2.0527905989	-0.9169200013	 0.106984
H	 1.9116676564	 0.6586359136	-0.9074303427	 0.105994
H	 1.9083398361	 0.6598828734	 0.912848805	 0.105287
H	 0.005602374	-0.1979765374	 2.1380333117	 0.089053
H	-1.555146995	-0.5704030204	 1.4266186145	 0.092328
H	 0.9729758124	-2.2593522796	 1.0530207257	 0.097304
H	-0.3206581198	-2.6549548985	 2.180558405	 0.086461
H	-0.4358389971	-3.8886530905	-0.0496554388	 0.094696
H	-1.9054401551	-3.0580781793	 0.4119099728	 0.096651
H	-0.5441912788	-2.7264054992	-2.0924033926	 0.079075
H	-2.2849980833	-0.9796970432	-2.5188048591	 0.103033
H	-2.6183013501	-0.8720026132	-0.7331267774	 0.107151
H	 0.0918938652	-0.3427907252	-2.1495336939	 0.072747
94.0691	192.8727	227.7232	284.5459	334.8215	378.0837	415.6218	453.43	495.7022	620.7648	686.3092	759.0446	779.7519	825.3459	838.7514	856.6519	878.3924	913.0039	931.539	954.0954	959.3124	988.1106	1019.5806	1045.7252	1053.1501	1059.0183	1069.8238	1077.1591	1115.1253	1130.9655	1134.5359	1187.2272	1195.389	1216.4066	1228.7512	1268.0591	1305.507	1323.4013	1367.7945	1371.0463	1374.3819	1392.3114	1431.1817	1468.374	1483.1237	1490.3926	1493.3217	1502.2357	1509.0089	3006.0426	3017.7716	3023.3441	3059.5425	3062.1237	3071.6356	3120.6492	3122.4055	3124.6588	3129.833	3147.0044	3198.1257	3206.0521	3212.9909
C1CC11CCCC2CC12	C1CC21CCC[C@H]1C[C@@H]21	
InChI=1S/C9H14/c1-2-7-6-8(7)9(3-1)4-5-9/h7-8H,1-6H2	InChI=1S/C9H14/c1-2-7-6-8(7)9(3-1)4-5-9/h7-8H,1-6H2/t7-,8+/m0/s1
