19
gdb 57873	3.16512	1.01908	0.8683	1.8513	76.31	-0.2589	-0.0264	0.2326	1368.9983	0.157928	-456.37747	-456.367313	-456.366369	-456.412959	36.07	
C	-0.0065051567	 1.5731254466	 0.3151413524	-0.399373
C	 0.0282132077	 0.0587615869	 0.0343022744	 0.033521
O	 0.8443915345	-0.5997302072	 0.9707064446	-0.433671
C	-1.3895309796	-0.5229647798	 0.1409436189	 0.411749
O	-1.7298668891	-1.0335013148	 1.196426786	-0.387027
N	-2.241993361	-0.4178281188	-0.9437261124	-0.120754
C	-1.8101823701	 0.07323418	-2.2541325893	-0.360682
C	-3.5590297592	-0.8678281044	-0.7928727593	 0.099103
N	-4.388249639	-0.8331991443	-1.7536540166	-0.471145
H	 1.0184307072	 1.9513502548	 0.3241900246	 0.137043
H	-0.5786991786	 2.131263469	-0.4321193712	 0.117922
H	-0.4504206421	 1.7533436617	 1.2987501455	 0.132649
H	 0.4468550628	-0.1221303654	-0.9618286375	 0.092823
H	 0.2318138128	-0.942692079	 1.6407456382	 0.292527
H	-1.0559414584	-0.5871180568	-2.6914061702	 0.144188
H	-2.6898617815	 0.0807989894	-2.895569379	 0.184522
H	-1.4063395323	 1.0848808497	-2.1857598832	 0.141436
H	-3.7423436178	-1.226401988	 0.2189771653	 0.148655
H	-5.2903869797	-1.1942192997	-1.4505179212	 0.236514
57.9004	87.9098	100.4468	173.3578	192.2743	228.8108	249.2148	302.7941	341.5568	371.1555	394.963	453.3641	480.7398	549.3666	719.5499	741.6978	792.3451	836.3546	902.8339	962.4216	1044.0617	1083.9845	1088.5271	1100.3839	1152.2128	1157.4958	1188.7874	1279.3937	1338.6919	1350.8271	1355.0151	1396.9881	1407.694	1456.0043	1461.572	1487.9014	1496.7286	1506.9908	1511.9338	1713.874	1757.6601	3041.9511	3047.7545	3057.0741	3116.2915	3125.2792	3130.6723	3150.8315	3170.1304	3512.5625	3694.1566
CC(O)C(=O)N(C)C=N	C[C@@H](O)C(=O)N(C)C=N	
InChI=1S/C5H10N2O2/c1-4(8)5(9)7(2)3-6/h3-4,6,8H,1-2H3	InChI=1S/C5H10N2O2/c1-4(8)5(9)7(2)3-6/h3-4,6,8H,1-2H3/t4-/m1/s1
