15
gdb 10598	2.99805	1.79629	1.35619	2.4099	64.04	-0.244	-0.0512	0.1929	921.5365	0.116019	-399.781971	-399.773747	-399.772803	-399.81458	28.999	
C	-0.4198710206	 1.3629300666	-0.0155376274	-0.3341
N	 0.03379137	-0.0268341533	 0.0494292516	-0.115654
C	 1.4268213692	-0.3107497633	-0.0712554979	-0.254488
C	 0.7353474774	-0.5219222813	 1.2659140526	 0.102955
C	 1.1237167195	 0.3883542425	 2.3900964646	 0.087549
O	 1.5685100521	 1.5037174945	 2.2440998297	-0.270374
C	 0.3315389396	-1.9126126558	 1.6363607018	 0.122881
O	 0.4890408964	-2.3944462385	 2.7301918896	-0.258658
H	 0.2867370241	 2.0835742828	 0.4085262611	 0.153772
H	-0.5883763119	 1.5967717317	-1.0707171041	 0.134754
H	-1.3754676644	 1.4463136334	 0.5093208871	 0.133339
H	 1.6992978264	-1.1850512355	-0.6584082378	 0.133519
H	 2.1357535344	 0.5161330274	-0.0783996449	 0.149405
H	 0.9597228721	-0.048123448	 3.3929799026	 0.120975
H	-0.1389976143	-2.4714383434	 0.7987940514	 0.094127
94.1147	148.6816	194.8597	206.1824	236.53	243.9289	319.5014	401.3643	433.9676	476.6106	674.3127	707.333	761.4699	912.0582	940.2156	1020.5566	1045.6538	1067.3942	1105.2218	1146.5557	1152.5757	1212.1048	1283.914	1341.5239	1412.191	1421.834	1445.3665	1485.9183	1495.2504	1509.9144	1796.2376	1819.2311	2907.038	2967.7051	3034.8523	3089.9556	3110.8898	3118.5926	3185.0178
CN1CC1(C=O)C=O	CN1CC1(C=O)C=O	
InChI=1S/C5H7NO2/c1-6-2-5(6,3-7)4-8/h3-4H,2H2,1H3	InChI=1S/C5H7NO2/c1-6-2-5(6,3-7)4-8/h3-4H,2H2,1H3
