20
gdb 94587	3.24841	1.03158	0.85597	2.3751	75.76	-0.2649	0.058	0.3229	1388.2984	0.170548	-440.327524	-440.317916	-440.316971	-440.363416	35.135	
C	-0.1005876947	 1.576606087	 0.0402496156	-0.384964
C	-0.0032852038	 0.0536827991	-0.0078509366	-0.039119
C	 1.2054233617	-0.477803886	-0.8419687781	-0.230958
C	 2.002692618	-0.6735187562	 0.4792523858	-0.249276
C	 0.6576445626	-0.6032164218	 1.2311706896	 0.17786
O	 0.5925135045	 0.1803849877	 2.4229827702	-0.270848
C	 0.9522063647	-0.456830614	 3.5662302665	 0.487674
N	 0.9059022903	 0.4175564956	 4.6169180846	-0.565153
O	 1.2909803486	-1.6149498294	 3.6376218724	-0.400268
H	 0.8610883459	 2.0375294582	 0.2874412344	 0.117496
H	-0.4183396883	 1.9646404276	-0.9331871389	 0.11184
H	-0.8253498863	 1.9040724882	 0.7913503485	 0.116976
H	-0.9781422982	-0.3662105774	-0.273227217	 0.06952
H	 0.9861095763	-1.4246565414	-1.34134306	 0.104285
H	 1.6256526608	 0.2137840071	-1.5760081047	 0.099695
H	 2.5943100707	-1.5815507003	 0.6033232937	 0.112469
H	 2.6273103736	 0.1928260736	 0.7121784229	 0.109486
H	 0.2625624876	-1.598515375	 1.442567054	 0.103175
H	 0.4006157447	 1.28005538	 4.5056075898	 0.262696
H	 0.9439138715	 0.0077797775	 5.5342308573	 0.267412
17.8875	83.0154	113.137	160.995	231.3038	243.2208	346.1879	352.284	381.6573	412.5719	504.0283	554.2434	618.9902	711.0833	770.1483	784.2759	833.242	885.1621	917.8046	933.1013	953.9306	989.9978	1032.8919	1076.1317	1113.0751	1125.461	1159.64	1172.2161	1215.1679	1245.2878	1258.9632	1285.2354	1293.3798	1347.3537	1367.9237	1407.0547	1415.8298	1480.1745	1494.5678	1497.9419	1499.7366	1610.7575	1831.3446	3035.4662	3051.5862	3063.8243	3071.6361	3095.0816	3103.4018	3109.0608	3112.3592	3133.6843	3613.9573	3743.6428
CC1CCC1OC(N)=O	C[C@H]1CC[C@H]1OC(=O)N	
InChI=1S/C6H11NO2/c1-4-2-3-5(4)9-6(7)8/h4-5H,2-3H2,1H3,(H2,7,8)	InChI=1S/C6H11NO2/c1-4-2-3-5(4)9-6(7)8/h4-5H,2-3H2,1H3,(H2,7,8)/t4-,5+/m0/s1
