14
gdb 48521	2.81659	1.6904	1.21233	3.449	66.92	-0.2423	-0.0478	0.1944	973.7183	0.100442	-436.629973	-436.622748	-436.621803	-436.662018	26.867	
O	-0.8483041479	 1.3339148206	-0.3523488225	-0.268912
C	 0.2089571428	 0.9290626314	 0.0751472575	 0.042785
C	 1.4295337799	 1.749450979	 0.1281396657	 0.083481
C	 1.3711519727	 3.2911734603	 0.1677997871	-0.059232
N	 2.6481191497	 3.7230922982	 0.783117787	-0.325914
C	 3.3007077547	 2.7616925987	-0.1836023349	-0.196549
C	 1.9712981555	 2.6949304676	-1.0368315937	-0.110237
C	 2.8589806376	 1.4071088101	 0.4138979889	 0.437285
O	 3.4282168397	 0.4069359565	 0.741252433	-0.331303
H	 0.3294007805	-0.1066817363	 0.4528497519	 0.106871
H	 0.4118470982	 3.7672955123	 0.3250623774	 0.138621
H	 2.8329784219	 4.6668850933	 0.4425614589	 0.232208
H	 4.314186274	 2.9542079385	-0.5220021418	 0.108749
H	 1.7079247006	 2.57841701	-2.0787963945	 0.142148
95.4276	144.8517	175.8604	220.8215	344.2378	468.1759	587.2838	589.5886	651.635	689.8538	774.4681	798.7649	848.1704	875.2298	910.1866	960.5316	965.04	972.4649	1031.5639	1059.5586	1070.2261	1143.4142	1150.7972	1169.6428	1244.3395	1298.8036	1346.7099	1391.0048	1429.8242	1790.9781	1890.191	2929.1017	3178.8163	3209.6459	3225.4308	3456.3215
O=CC12C3NC(C13)C2=O	O=C[C@]12[C@H]3N[C@H]([C@@H]13)C2=O	
InChI=1S/C6H5NO2/c8-1-6-2-3(5(6)9)7-4(2)6/h1-4,7H	InChI=1S/C6H5NO2/c8-1-6-2-3(5(6)9)7-4(2)6/h1-4,7H/t2-,3-,4+,6-/m1/s1
