18
gdb 97305	4.33593	0.84129	0.80692	3.9852	83.5	-0.2545	-0.009	0.2456	1471.5506	0.145687	-398.115219	-398.105602	-398.104658	-398.149758	34.312	
C	-0.546006231	 1.1435658772	-0.3554467284	-0.314354
N	-0.2036876323	-0.2471250115	-0.1349369675	-0.174476
C	 0.8037148878	-0.7092610715	-0.7434697088	 0.047279
N	 1.2971696629	-1.996882293	-0.5091511854	-0.100353
C	 0.4130257703	-3.0807698824	-0.1564644572	-0.255646
C	 1.1147311502	-3.0788381879	-1.4921546956	 0.129258
C	 0.3134978857	-2.8567839006	-2.7626039924	-0.46478
C	 2.2806594669	-3.9277698756	-1.6599450724	 0.268602
N	 3.1901979232	-4.6223299409	-1.8214435676	-0.331884
H	 0.098789115	 1.6518823662	-1.0896619033	 0.102574
H	-1.5854073876	 1.2128400651	-0.6953581591	 0.129488
H	-0.4863017795	 1.6895836687	 0.5929664464	 0.135121
H	 1.4229737414	-0.13713575	-1.4471670182	 0.099428
H	 0.7626186921	-3.7386914357	 0.6327408716	 0.143778
H	-0.6539866903	-2.8744979231	-0.167909204	 0.145831
H	-0.5437811307	-2.2108122965	-2.5602973777	 0.145601
H	 0.9286662657	-2.3939201045	-3.539587875	 0.145013
H	-0.0520128797	-3.812965184	-3.1470728755	 0.149522
78.6495	103.1097	144.6876	181.7723	206.6461	218.9048	246.0119	301.552	348.4908	401.833	437.108	534.746	568.8298	642.1417	701.0001	836.6654	892.1424	941.135	988.539	1011.5775	1044.7714	1094.4813	1117.5029	1135.3418	1139.9793	1162.4221	1224.1066	1256.8445	1380.9039	1390.2921	1416.298	1444.8188	1479.3077	1482.8539	1498.9785	1500.8576	1503.3884	1735.3098	2359.5767	2977.8566	3034.1081	3049.2531	3064.2672	3081.5272	3118.6962	3119.1562	3136.6431	3214.2462
CN=CN1CC1(C)C#N	CN=CN1C[C@]1(C)C#N	
InChI=1S/C6H9N3/c1-6(3-7)4-9(6)5-8-2/h5H,4H2,1-2H3	InChI=1S/C6H9N3/c1-6(3-7)4-9(6)5-8-2/h5H,4H2,1-2H3/t6-,9?/m0/s1
