12
gdb 129895	5.6685	1.3679	1.10328	7.9262	62.9	-0.236	-0.0144	0.2215	983.5737	0.079763	-464.952391	-464.945841	-464.944897	-464.983279	24.793	
N	 0.1085333623	 1.333261734	 0.1745069095	-0.589341
C	-0.074175624	-0.0202712796	 0.0520123107	 0.361667
C	-1.1691091179	-0.822841209	-0.0054799727	-0.215844
N	-0.6368460607	-2.1216787147	-0.0069985154	 0.027862
N	-0.9809908954	-3.4275363671	-0.0591328599	-0.167238
N	 0.1588669189	-4.069479369	-0.0508103418	-0.10542
N	 1.2439763139	-3.239221089	 0.0010790407	-0.348409
C	 0.6983221488	-2.0502185316	 0.0282601489	 0.54038
O	 1.0976866442	-0.761041025	 0.0723659991	-0.2251
H	 0.9440810658	 1.6771691243	-0.2805690945	 0.277765
H	-0.7060187953	 1.8855878064	-0.0506612476	 0.273939
H	-2.2186715508	-0.6001439798	-0.041257737	 0.169739
149.6073	186.7044	314.686	323.5233	353.8849	515.578	586.1874	613.3646	637.8778	689.8533	700.1319	761.2423	808.859	870.6825	957.6065	993.4308	1090.036	1105.3399	1135.9508	1209.3719	1268.4724	1382.0578	1388.2888	1493.8361	1594.6291	1625.8764	1710.7089	3318.5224	3559.681	3666.0532
NC1=CN2N=NN=C2O1	Nc1cn2nnnc2o1	
InChI=1S/C3H3N5O/c4-2-1-8-3(9-2)5-6-7-8/h1H,4H2	InChI=1S/C3H3N5O/c4-2-1-8-3(9-2)5-6-7-8/h1H,4H2
