20
gdb 59080	2.09968	1.47546	1.09655	5.0147	80.91	-0.2302	0.031	0.2612	1198.634	0.170403	-399.305012	-399.295079	-399.294134	-399.33953	36.366	
C	 0.6195703488	 0.1775652172	-1.2602461712	-0.317896
N	-0.0488993348	 0.0395797914	 0.029036112	-0.05544
C	 0.0536643628	 1.2568729687	 0.8280376934	-0.324489
C	-1.3912518413	-0.421500137	-0.1249897523	-0.008436
C	-1.6176549159	-1.9140147534	-0.2330323602	-0.008981
N	-0.564392577	-2.8845331701	-0.16506688	-0.508951
C	-2.0353765605	-1.1878162442	 1.0391715912	-0.24407
C	-1.3005352445	-1.4047617735	 2.2512167402	 0.313657
N	-0.7221711434	-1.5791148851	 3.2385123855	-0.355212
H	 1.6706455524	 0.4363007535	-1.1010314482	 0.125688
H	 0.5772539247	-0.7702120016	-1.8030046967	 0.113126
H	 0.1681678161	 0.9610210178	-1.8963920321	 0.098987
H	-0.4452606859	 2.1215738867	 0.3536848984	 0.093887
H	-0.3890266647	 1.0943612361	 1.8127593864	 0.143312
H	 1.1089010067	 1.509379067	 0.9684489159	 0.124619
H	-2.0861862836	 0.2315353079	-0.6674121871	 0.076958
H	-2.4454755643	-2.2347348075	-0.8580325972	 0.110772
H	-0.2368386155	-3.107724602	-1.0998054375	 0.235404
H	 0.2253398442	-2.5010793384	 0.3469554673	 0.252838
H	-3.0978801645	-1.0335400537	 1.1939545424	 0.134227
88.1767	111.2437	140.717	168.6382	228.2594	238.8771	242.7764	282.0393	335.6413	370.9683	395.978	433.1691	586.9063	657.9891	660.4495	760.9812	771.4709	837.3879	877.9652	957.6473	1003.2191	1047.8777	1065.9025	1098.9332	1119.9129	1125.0851	1131.9903	1183.7252	1220.8644	1241.5016	1276.1617	1320.8501	1355.8384	1383.6259	1442.9531	1455.0598	1477.7974	1482.3672	1496.3776	1499.0881	1513.7665	1661.7306	2349.545	2939.8307	2946.6938	3014.1339	3070.924	3077.433	3117.9208	3130.805	3158.321	3170.936	3493.8664	3575.9945
CN(C)C1C(N)C1C#N	CN(C)[C@H]1[C@@H](N)[C@H]1C#N	
InChI=1S/C6H11N3/c1-9(2)6-4(3-7)5(6)8/h4-6H,8H2,1-2H3	InChI=1S/C6H11N3/c1-9(2)6-4(3-7)5(6)8/h4-6H,8H2,1-2H3/t4-,5+,6-/m1/s1
