14
gdb 123374	3.72262	1.05603	0.93224	4.1551	68.49	-0.2279	-0.0337	0.1942	1217.8388	0.100105	-432.791291	-432.783218	-432.782274	-432.825036	29.152	
C	 0.3006756668	-0.0445108288	-1.2420363612	-0.448988
C	 0.1036931842	 0.6012393262	-0.2478656485	 0.30905
C	-0.1059199329	 1.3976352058	 0.9670982934	-0.335706
N	 1.0042274148	 2.2641614523	 1.3453340817	-0.370328
C	 1.3700261674	 3.2773277782	 0.4777948064	 0.322899
C	 0.7461407505	 3.8588552075	-0.5843080756	-0.046762
O	 1.5281904666	 4.8636521937	-1.0191021599	-0.158018
N	 2.6660599154	 4.8777887408	-0.206345103	-0.000541
N	 2.5555010139	 3.9560058347	 0.6532571214	-0.202392
H	 0.4723568295	-0.61708671	-2.1202406767	 0.209217
H	-1.0003417973	 2.0226024426	 0.849210834	 0.149739
H	-0.3101710969	 0.7350864008	 1.8142450649	 0.151364
H	 1.8075246431	 1.7714953482	 1.7124165496	 0.257712
H	-0.169877845	 3.679424298	-1.1174781064	 0.162756
49.9391	62.6368	170.8651	211.4801	326.1309	352.8663	410.6704	556.3695	609.3047	635.0189	640.2167	674.1957	716.217	720.8587	754.234	766.2502	924.6843	972.6167	1016.7656	1058.8358	1110.4004	1126.0947	1254.4651	1282.5571	1347.7103	1374.1885	1426.4984	1468.0229	1514.9729	1665.8193	2234.1005	3030.9241	3078.3297	3308.4092	3502.5685	3585.7533
C#CCNC1=CON=N1	C#CCNc1conn1	
InChI=1S/C5H5N3O/c1-2-3-6-5-4-9-8-7-5/h1,4,6H,3H2	InChI=1S/C5H5N3O/c1-2-3-6-5-4-9-8-7-5/h1,4,6H,3H2
