18
gdb 23435	2.57984	1.18128	0.96811	1.6721	76.17	-0.2361	0.0068	0.2429	1253.4284	0.146904	-439.002237	-438.99347	-438.992526	-439.03616	32.972	
O	 0.1559478924	 1.1976911758	 0.4615643623	-0.418461
C	 0.0716398188	-0.0654603969	-0.1795413547	-0.094165
C	-1.3219996138	-0.6495137103	-0.0822804469	-0.031311
C	-1.6834208138	-2.1018159193	-0.110670243	-0.085562
C	-0.6318654485	-2.9862145422	 0.5926416162	-0.337662
C	-0.8517873028	-2.1347627639	 1.8381733322	 0.437712
N	-0.4674757672	-2.1695304998	 3.0455736946	-0.265889
O	 0.4827680125	-3.1927956227	 3.2377886438	-0.39431
C	-1.8810069579	-1.2769983243	 1.1893046558	-0.182148
H	-0.0502932654	 1.0569314037	 1.3921510019	 0.288412
H	 0.3249746127	 0.1163586669	-1.2296336046	 0.111577
H	 0.8199641038	-0.7636909357	 0.219247667	 0.099165
H	-2.0696856834	-0.0218121585	-0.5635040503	 0.102707
H	-2.4571496456	-2.4833776731	-0.7644368506	 0.100417
H	-0.9843889487	-4.0077274289	 0.7632995308	 0.1332
H	 0.3739082783	-3.0323904898	 0.1675555542	 0.123692
H	 0.666643728	-3.1225794784	 4.1804351636	 0.306699
H	-2.7882748193	-0.9129646126	 1.6540611477	 0.105925
49.6031	110.3702	171.1797	210.5695	270.1404	313.0163	346.1258	387.818	474.0494	484.9482	509.1444	611.1629	695.4165	755.0643	810.6741	849.7702	899.3568	949.7142	963.4134	981.7366	1008.2338	1031.3882	1045.1206	1065.8642	1085.871	1133.1746	1175.2336	1180.4109	1230.9234	1247.8918	1294.6527	1321.6569	1370.6046	1410.6255	1415.7286	1450.3049	1475.0167	1504.5315	1782.2408	3013.742	3061.2095	3070.6845	3106.736	3135.274	3193.4284	3203.2024	3805.5918	3820.608
OCC1C2CC(=NO)C12	OC[C@H]1[C@H]2CC(=NO)[C@@H]12	
InChI=1S/C6H9NO2/c8-2-4-3-1-5(7-9)6(3)4/h3-4,6,8-9H,1-2H2	InChI=1S/C6H9NO2/c8-2-4-3-1-5(7-9)6(3)4/h3-4,6,8-9H,1-2H2/t3-,4+,6-/m1/s1
