17
gdb 29899	4.2702	1.05033	0.85191	5.0668	78.47	-0.2331	-0.0272	0.2059	1335.1541	0.135975	-418.074384	-418.065394	-418.064449	-418.109209	31.315	
C	-0.0437501019	 1.4485848312	 0.0017429874	-0.339599
N	-0.040932045	-0.0025789709	 0.0261390991	 0.011485
C	-0.2450164233	-0.8393224812	-1.0422448977	-0.005328
N	-0.1821702378	-2.1013161348	-0.7033196478	-0.324208
C	 0.0756991995	-2.099022713	 0.6534986188	 0.176695
C	 0.1649498094	-0.8028060694	 1.1146503031	-0.175998
C	 0.2281682017	-3.3223681861	 1.4637391421	 0.298604
C	 0.0886458837	-4.6446730132	 0.7380892556	-0.478107
O	 0.4551286878	-3.251714876	 2.6575476429	-0.326952
H	 0.9239722162	 1.8434939058	 0.3235788947	 0.153595
H	-0.2372109648	 1.7849036131	-1.0182967172	 0.150369
H	-0.8249530674	 1.8456846537	 0.6559994903	 0.153595
H	-0.4328501991	-0.4509893168	-2.0331029751	 0.132864
H	 0.3526232231	-0.4099070544	 2.0996147678	 0.155726
H	 0.8265347346	-4.7147394905	-0.0673569365	 0.144599
H	 0.2222090752	-5.461973315	 1.4474372785	 0.128059
H	-0.8932182819	-4.7124370827	 0.2590524941	 0.144602
50.4414	74.9355	108.6612	150.3579	159.911	260.1414	318.5162	384.6631	517.893	565.1531	610.1397	645.5714	710.3414	718.6809	791.0681	841.8406	931.9142	997.0924	1045.2633	1060.7885	1079.6477	1108.9669	1151.4446	1226.2161	1254.7815	1333.2404	1376.3416	1381.2036	1431.0611	1455.7554	1461.0002	1466.9051	1483.577	1510.4472	1535.879	1571.5484	1770.9279	3047.5329	3047.6363	3109.7312	3113.1317	3142.4326	3156.8188	3241.8521	3284.4917
CN1C=NC(=C1)C(C)=O	Cn1cnc(c1)C(=O)C	
InChI=1S/C6H8N2O/c1-5(9)6-3-8(2)4-7-6/h3-4H,1-2H3	InChI=1S/C6H8N2O/c1-5(9)6-3-8(2)4-7-6/h3-4H,1-2H3
