19
gdb 112160	3.274	1.10866	0.8826	4.3875	79.45	-0.2643	-0.034	0.2303	1357.3333	0.158448	-423.096078	-423.086888	-423.085944	-423.130347	33.34	
C	 0.004696838	 1.5618109134	-0.0607754076	-0.385447
C	-0.0270438609	 0.0431592279	 0.1262209464	-0.182705
C	-1.4382800755	-0.5428374881	 0.0171828781	 0.069133
O	-1.9830135982	-0.2844027475	-1.2863705957	-0.235735
C	-2.3385215387	-1.463131773	-1.8868433661	 0.384493
O	-2.8154388269	-1.5166662303	-2.9864622583	-0.3491
C	-2.0270269562	-2.5770069021	-0.9473021303	 0.164505
C	-2.3011217928	-3.9941085322	-1.3213951796	-0.48857
C	-1.5110631784	-2.0368457952	 0.1577098933	-0.214838
H	 1.0277534223	 1.9414393539	 0.0130526918	 0.116731
H	-0.3940834951	 1.8390229467	-1.03985199	 0.144976
H	-0.5961044258	 2.067169915	 0.7034092096	 0.115973
H	 0.607054263	-0.4490205165	-0.6201912542	 0.11093
H	 0.3724653929	-0.2277561697	 1.1116633563	 0.101635
H	-2.0933817291	-0.0448228479	 0.7475320338	 0.104982
H	-3.3655181184	-4.1339714555	-1.5384982548	 0.14921
H	-1.7626829327	-4.26005665	-2.2372429289	 0.149151
H	-2.0094827903	-4.685465942	-0.527588612	 0.124693
H	-1.1710875971	-2.5546025168	 1.0463959583	 0.119983
85.4782	110.2115	121.6216	137.2052	226.1719	251.1913	268.6396	357.4183	390.6283	484.0673	558.0556	611.3811	712.917	770.5639	792.8733	820.6587	866.8905	903.4208	975.1637	999.8482	1033.1971	1061.2072	1067.9767	1093.8489	1125.7001	1146.4473	1220.6291	1283.7053	1301.0313	1330.8879	1364.7451	1380.1213	1412.0585	1415.3214	1472.9837	1476.6261	1484.1128	1496.9241	1508.2912	1720.1942	1861.5467	2999.4137	3029.8708	3039.6508	3040.2869	3071.4306	3095.0432	3107.0771	3127.2742	3128.2213	3210.5872
CCC1OC(=O)C(C)=C1	CC[C@H]1OC(=O)C(=C1)C	
InChI=1S/C7H10O2/c1-3-6-4-5(2)7(8)9-6/h4,6H,3H2,1-2H3	InChI=1S/C7H10O2/c1-3-6-4-5(2)7(8)9-6/h4,6H,3H2,1-2H3/t6-/m1/s1
