16
gdb 19402	3.13098	2.16881	1.61649	0.6478	63.98	-0.2523	0.073	0.3253	829.7886	0.129215	-383.672561	-383.665428	-383.664484	-383.703721	27.245	
C	-0.0574979342	 1.5892879474	-0.1138443407	-0.412488
C	 0.0366174366	 0.0785255357	 0.0328639979	-0.105704
C	 1.051044707	-0.6738791051	-0.8589498265	 0.022063
O	 2.3604503018	-0.230510608	-0.4829854409	-0.242218
C	 1.7386285493	-1.2607035568	 0.3040076461	-0.093309
C	 0.7934376496	-0.5335646937	 1.2471871733	 0.438315
C	 0.9885408447	-0.0778393927	 2.619864223	-0.262737
O	 0.1144677734	-1.1792977863	 2.3048503577	-0.277278
H	 0.9403801053	 2.0355952388	-0.0996677126	 0.13496
H	-0.5444432521	 1.8643815193	-1.055584667	 0.117993
H	-0.6432447007	 2.0279409524	 0.7007133009	 0.119575
H	-0.9484272726	-0.3982427418	-0.0230520894	 0.096551
H	 0.923724237	-1.057568322	-1.8644620413	 0.108226
H	 2.2653830831	-2.1984951389	 0.4344127882	 0.115531
H	 1.8981278028	-0.3416914961	 3.1571661652	 0.120642
H	 0.4865764689	 0.8239028179	 2.9669636561	 0.119878
124.8466	203.4608	221.5533	235.8914	314.3041	389.4781	495.4967	576.8975	614.5723	748.5151	833.554	848.8264	858.1684	876.995	903.6271	962.6367	974.5596	1039.8699	1061.0447	1092.19	1116.4038	1132.6788	1151.556	1169.5947	1217.7373	1224.8376	1263.9013	1353.2702	1371.4372	1407.017	1445.5478	1494.6903	1501.5618	1538.0603	3035.0136	3056.8002	3086.191	3096.8948	3121.2299	3173.858	3183.9763	3199.8907
CC1C2OC2C11CO1	C[C@H]1[C@H]2O[C@H]2[C@]21CO2	
InChI=1S/C6H8O2/c1-3-4-5(8-4)6(3)2-7-6/h3-5H,2H2,1H3	InChI=1S/C6H8O2/c1-3-4-5(8-4)6(3)2-7-6/h3-5H,2H2,1H3/t3-,4+,5+,6+/m0/s1
