15
gdb 27212	3.51303	1.61139	1.11237	2.6882	76.71	-0.1843	-0.0143	0.17	1018.2195	0.116005	-416.853911	-416.847175	-416.846231	-416.8849	26.654	
O	 0.0862304582	 1.3810076884	 0.0092478258	-0.432086
C	 0.070986943	 0.0319839606	-0.0551451565	 0.21428
C	 0.0361319858	-0.7535517623	-1.1863109852	 0.2667
C	 0.0013036848	-0.8292269863	-2.6272033685	-0.22041
C	-0.0206459021	-2.1220882524	-3.0029382099	-0.110183
C	-0.001159088	-3.0343299014	-1.7873392397	-0.243503
N	 0.0343735518	-2.0587270981	-0.7007062339	-0.037837
C	 0.066982787	-1.9994602148	 0.6472385912	-0.012899
N	 0.089836319	-0.7404822743	 1.0691959155	-0.362628
H	 0.1108175964	 1.6019745767	 0.9485283457	 0.300131
H	-0.0055027569	 0.0297958113	-3.2825659914	 0.122065
H	-0.0484058316	-2.5073122188	-4.0119594543	 0.108997
H	-0.8920723305	-3.6716811197	-1.7220242306	 0.137231
H	 0.8787846102	-3.6895818862	-1.7638461369	 0.137234
H	 0.073209663	-2.8706552728	 1.2838282688	 0.132908
159.9439	196.623	287.4155	345.7412	384.3501	467.4105	529.9102	634.7696	638.6293	677.3841	706.0202	741.3837	788.0105	820.3845	875.2329	939.8044	941.6465	994.3818	1054.4512	1106.3593	1160.1494	1188.1094	1242.8498	1277.1279	1278.0608	1351.5692	1371.6278	1407.5931	1451.5757	1481.3186	1514.1303	1609.4974	1686.9436	3020.2747	3048.8408	3232.1349	3252.742	3257.4681	3798.641
OC1=C2C=CCN2C=N1	Oc1c2C=CCn2cn1	
InChI=1S/C6H6N2O/c9-6-5-2-1-3-8(5)4-7-6/h1-2,4,9H,3H2	InChI=1S/C6H6N2O/c9-6-5-2-1-3-8(5)4-7-6/h1-2,4,9H,3H2
