22
gdb 93946	3.80756	1.00758	0.88235	2.1166	83.21	-0.2364	0.0851	0.3216	1398.0812	0.194612	-404.326381	-404.317333	-404.316389	-404.361091	33.874	
C	-0.2227336579	 1.3969464878	-0.1222816193	-0.401748
C	 0.1500324634	-0.0733972327	-0.1893915447	 0.16102
C	 1.3383229499	-0.4241801841	-1.0919383779	-0.235641
C	 1.8009699893	-1.7715235082	-0.51583049	 0.000192
C	 1.3952251843	-1.6514852061	 0.9750010489	-0.072534
O	 0.5705694628	-0.4998457864	 1.1078751287	-0.272875
N	 1.0671712822	-2.8669457928	-1.1498648294	-0.063688
C	 1.6704734994	-3.4497981314	-2.3424916635	-0.223602
C	 1.6664912941	-4.193246346	-1.0519206627	-0.223823
H	 0.6400017059	 1.9976368206	 0.1829448913	 0.116383
H	-0.5685599743	 1.7499817655	-1.0989672883	 0.111922
H	-1.0251389031	 1.556754445	 0.6034205997	 0.124389
H	-0.7237302874	-0.6657135146	-0.5059301838	 0.075693
H	 1.0766383068	-0.4959409282	-2.1502145438	 0.103298
H	 2.1247865937	 0.329592102	-0.974699035	 0.095737
H	 2.8898510814	-1.9111870863	-0.6208558821	 0.054354
H	 0.8555795254	-2.555628761	 1.2869560871	 0.100263
H	 2.2649389615	-1.5239518951	 1.6298179794	 0.095633
H	 0.9839115601	-3.7208186313	-3.1393253332	 0.117478
H	 2.6254088186	-3.0494022366	-2.6804938263	 0.109766
H	 2.6198244375	-4.2868051784	-0.5333150052	 0.109335
H	 0.9776024264	-5.0168173718	-0.8882792	 0.118448
36.3834	87.7766	110.1922	214.796	228.6045	298.8932	305.4793	338.9975	463.0087	493.0025	619.5627	727.0054	756.0511	824.1831	852.4997	879.9816	903.7208	918.5316	928.7135	996.7418	1010.4593	1025.8248	1048.5946	1097.4895	1111.0125	1118.7336	1125.9604	1131.3072	1155.119	1173.947	1193.3823	1208.1521	1250.0109	1269.4309	1315.0598	1322.8688	1359.7284	1371.5667	1391.8432	1402.0802	1412.1744	1475.7796	1484.1844	1490.9866	1499.3626	1514.0917	1519.9315	2949.8927	2971.0771	3011.3613	3037.4989	3047.5788	3055.8585	3090.9591	3095.3215	3108.4369	3113.256	3115.845	3175.1795	3189.2589
CC1CC(CO1)N1CC1	C[C@H]1C[C@@H](CO1)N1CC1	
InChI=1S/C7H13NO/c1-6-4-7(5-9-6)8-2-3-8/h6-7H,2-5H2,1H3	InChI=1S/C7H13NO/c1-6-4-7(5-9-6)8-2-3-8/h6-7H,2-5H2,1H3/t6-,7-/m0/s1
