18
gdb 15345	6.42535	0.92832	0.87315	4.9243	73.48	-0.2492	0.0265	0.2756	1326.8847	0.153136	-343.965789	-343.957031	-343.956087	-343.999846	30.972	
C	-1.4648655524	 0.56088321	 0.5749798252	-0.385002
C	-0.0947708329	 0.1532604089	 0.0184257034	-0.202541
C	 0.8219336678	-0.3467259304	 1.1179265332	 0.029308
C	 0.9147870261	-1.795365801	 1.4615987998	-0.249738
N	 2.0613336514	-1.0969340776	 0.8813628916	-0.093368
C	 2.4359903184	-1.4355426234	-0.4850992639	-0.289574
C	 3.414445465	-2.5302198252	-0.4869426484	 0.283266
N	 4.1729157534	-3.4008172436	-0.5065380789	-0.300621
H	-1.3653368054	 1.344897995	 1.3330401786	 0.123332
H	-2.1123105748	 0.9443816063	-0.218682719	 0.120004
H	-1.9690696482	-0.2911409051	 1.0419462463	 0.124858
H	-0.2331623581	-0.6133893139	-0.7512591934	 0.100974
H	 0.3689359125	 1.0163043152	-0.4771702278	 0.107445
H	 0.9382216945	 0.3658501311	 1.9345121063	 0.09945
H	 1.0367840625	-2.1300619191	 2.4875207816	 0.127548
H	 0.3666977378	-2.4869471685	 0.82185233	 0.113991
H	 1.5982938836	-1.7416823139	-1.131875786	 0.134219
H	 2.8997973189	-0.5591204748	-0.9527963186	 0.156447
48.3261	84.4691	111.78	194.1005	229.6928	278.9257	327.9185	387.9273	432.424	476.9965	583.1678	750.3873	794.9126	844.4635	908.7359	940.4757	968.0056	999.5418	1007.7155	1066.4375	1073.8391	1121.0615	1149.1223	1167.6302	1194.4887	1269.5468	1294.4104	1334.7954	1347.4332	1378.5124	1411.0744	1430.2232	1471.5012	1485.3544	1499.5255	1507.4119	1512.011	2368.3946	2978.0565	3022.7513	3037.6408	3059.7634	3066.212	3090.0758	3103.1895	3111.0096	3113.3238	3184.2271
CCC1CN1CC#N	CC[C@H]1CN1CC#N	
InChI=1S/C6H10N2/c1-2-6-5-8(6)4-3-7/h6H,2,4-5H2,1H3	InChI=1S/C6H10N2/c1-2-6-5-8(6)4-3-7/h6H,2,4-5H2,1H3/t6-,8?/m0/s1
