15
gdb 57227	3.01801	0.81411	0.74581	4.9538	84.08	-0.3033	-0.0604	0.2429	1522.4001	0.110805	-379.673165	-379.663608	-379.662664	-379.707845	33.568	
C	-0.028732684	 1.5477543844	-0.0033554794	-0.397943
C	 0.0006159455	-0.0053007765	 0.0011409669	-0.158549
C	 0.7490776257	-0.5338360083	 1.255447932	-0.397945
C	-1.3874964621	-0.5114621285	 0.0218317119	 0.301292
N	-2.4772775558	-0.8912117163	 0.0672726109	-0.324805
C	 0.663270982	-0.4919667292	-1.2130419177	 0.214798
C	 1.2461139462	-0.8704567675	-2.1997076775	-0.018445
C	 1.9035546145	-1.3001930144	-3.317463301	 0.214013
N	 2.4664645072	-1.6630662712	-4.2660973261	-0.325634
H	 0.9949971062	 1.9286903104	-0.0170803105	 0.143791
H	-0.5593077162	 1.9247914519	-0.8793257212	 0.155589
H	-0.5326827523	 1.9058407378	 0.8974928649	 0.147232
H	 0.24591374	-0.177905346	 2.1575886625	 0.147228
H	 0.7671040148	-1.6249479557	 1.2673181442	 0.155586
H	 1.7761340885	-0.1618007809	 1.2471249302	 0.143791
71.2644	89.945	177.2423	186.528	232.2415	234.5623	246.475	284.5515	334.6327	443.5307	493.9612	513.8806	571.0656	579.7863	598.3796	644.6585	814.3328	933.5495	946.6232	1041.9953	1076.2875	1132.2572	1212.8354	1271.502	1397.9908	1421.1811	1478.0552	1481.7988	1492.8853	1506.3251	2269.6074	2362.7205	2406.1358	3055.3642	3057.7923	3138.1101	3142.076	3147.2398	3148.2399
CC(C)(C#N)C#CC#N	CC(C)(C#N)C#CC#N	
InChI=1S/C7H6N2/c1-7(2,6-9)4-3-5-8/h1-2H3	InChI=1S/C7H6N2/c1-7(2,6-9)4-3-5-8/h1-2H3
