20
gdb 105391	1.74862	1.5119	1.09266	2.8692	75.81	-0.2457	0.0244	0.2702	1231.4869	0.169221	-440.295927	-440.285958	-440.285014	-440.330975	36.468	
C	-0.9429760765	 1.3020693432	 0.4193267916	-0.384973
C	-0.0871125481	 0.1030181487	-0.0014472801	-0.241838
C	 0.8405340806	-0.3921995354	 1.0954846073	 0.293575
C	 0.2934962293	-1.2983466574	 2.1850227133	-0.364514
C	 1.2211894898	-1.8566625717	 1.149595831	 0.098259
O	 0.6824259221	-2.7510312692	 0.2284727072	-0.418528
N	 1.8835296674	 0.5204959268	 1.4898601259	-0.331675
C	 3.0039543657	 0.7104283369	 0.7390521169	 0.14609
O	 3.2735068049	 0.1005676607	-0.2747258034	-0.330623
H	-0.3188628327	 2.1530505767	 0.7127773976	 0.107914
H	-1.5838785776	 1.6333058256	-0.4031244382	 0.117259
H	-1.5888683365	 1.0514866806	 1.2679594613	 0.114017
H	-0.7263235572	-0.7292383955	-0.3101005887	 0.113635
H	 0.5275982235	 0.3672161008	-0.8699822579	 0.118321
H	 0.662680572	-1.1882825578	 3.198822556	 0.112307
H	-0.7528583524	-1.5711707412	 2.1030808909	 0.12856
H	 2.2420675294	-2.0666992277	 1.4624141345	 0.101425
H	 1.1876864606	-2.6578983748	-0.5877523217	 0.297357
H	 1.7262539249	 1.1397877987	 2.2705479469	 0.247462
H	 3.6638205207	 1.4897772019	 1.1711119094	 0.07597
61.5569	95.7653	122.5459	173.0557	205.5445	219.8045	268.9709	293.0111	372.8805	425.6819	439.3594	454.8854	539.952	583.442	669.9779	789.3834	802.5221	851.7649	903.5251	962.7398	978.3877	1011.5515	1032.3311	1050.6332	1068.5425	1099.5812	1127.6775	1180.5818	1199.8065	1260.269	1281.4611	1306.8686	1333.5616	1372.8696	1407.568	1424.9464	1430.456	1485.029	1493.204	1498.4407	1500.5736	1509.4907	1798.3856	2929.5989	3031.734	3043.3578	3083.962	3105.6905	3106.7257	3123.362	3136.1771	3227.0712	3610.9494	3792.3991
CCC1(CC1O)NC=O	CC[C@]1(C[C@H]1O)NC=O	
InChI=1S/C6H11NO2/c1-2-6(7-4-8)3-5(6)9/h4-5,9H,2-3H2,1H3,(H,7,8)	InChI=1S/C6H11NO2/c1-2-6(7-4-8)3-5(6)9/h4-5,9H,2-3H2,1H3,(H,7,8)/t5-,6-/m1/s1
