17
gdb 43919	4.36954	1.08074	0.99723	1.877	75.28	-0.2441	-0.0541	0.1899	1185.1146	0.136576	-421.835839	-421.828147	-421.827203	-421.86896	28.736	
O	 0.1357825397	-0.0592560263	-0.0002884008	-0.321452
C	 0.0700913416	 1.1465471574	 0.00797336	 0.376662
C	-1.2221570769	 1.9835397839	 0.03161825	-0.44126
C	-0.7701638345	 3.4504688083	 0.0337492551	 0.243513
C	-1.3813127654	 4.4579803025	-0.9831769146	-0.117362
O	-1.7110357231	 5.3923560125	 0.0587653126	-0.269509
C	-1.3515491007	 4.4458231823	 1.0796786148	-0.117365
C	 0.7321062478	 3.3632891664	 0.011536825	-0.089889
C	 1.1979556138	 2.1097395705	-0.002658881	-0.208564
H	-1.834650407	 1.7299099078	-0.8392366278	 0.136082
H	-1.8091721879	 1.7195423714	 0.9168227097	 0.136077
H	-0.6943216418	 4.8862530613	-1.7225413353	 0.108409
H	-2.2745285341	 4.0795832049	-1.4983900442	 0.103679
H	-2.2295943931	 4.0612305834	 1.6159517312	 0.103677
H	-0.643441806	 4.8654712678	 1.8039123729	 0.108408
H	 1.3389834063	 4.2639259088	 0.0081042645	 0.12684
H	 2.2334744412	 1.7951997671	-0.019526292	 0.122054
53.4109	71.4232	195.0808	301.6825	325.7063	405.3703	410.4391	501.2743	600.181	678.699	802.2639	830.1908	831.3541	846.9753	873.8012	920.694	981.3159	995.0609	1010.4718	1044.1905	1052.8041	1086.8184	1146.9567	1160.4912	1164.674	1194.6186	1205.4734	1272.9549	1283.0167	1306.5301	1368.237	1375.6406	1449.2	1508.8939	1535.7065	1647.1342	1819.9509	2999.8908	3010.8837	3056.9824	3057.0202	3059.935	3098.9817	3179.5988	3228.0875
O=C1CC2(COC2)C=C1	O=C1CC2(COC2)C=C1	
InChI=1S/C7H8O2/c8-6-1-2-7(3-6)4-9-5-7/h1-2H,3-5H2	InChI=1S/C7H8O2/c8-6-1-2-7(3-6)4-9-5-7/h1-2H,3-5H2
