19
gdb 122753	4.32164	0.4774	0.45607	1.2853	78.83	-0.2621	0.0244	0.2864	2374.9102	0.156438	-460.103172	-460.09227	-460.091326	-460.141776	36.635	
O	 0.1369244796	 1.2251045909	-0.3997075919	-0.420233
C	 0.0135425171	-0.1685065695	-0.2043632521	-0.060079
C	-1.4394182062	-0.5742194402	-0.0136149377	-0.061433
O	-2.1239206473	-0.1804478452	-1.1917426906	-0.259167
C	-3.5270604133	-0.3558398919	-1.1049678641	-0.20596
C	-4.1680471859	 0.0944396055	-2.3312815965	-0.023971
C	-4.730607875	 0.4674444562	-3.3285538959	 0.141984
C	-5.3703610452	 0.884362371	-4.5752285512	-0.195403
O	-5.5939491707	-0.1813744919	-5.4865071794	-0.400295
H	-0.497886196	 1.4491579289	-1.0906302574	 0.290861
H	 0.4343008357	-0.7351933513	-1.050304333	 0.09541
H	 0.5886411537	-0.4247729056	 0.6914162456	 0.109592
H	-1.5282150135	-1.6609649118	 0.1494485347	 0.089962
H	-1.8621462177	-0.0576365353	 0.8630284116	 0.097704
H	-3.7676257644	-1.417657256	-0.9268691974	 0.122201
H	-3.9299543126	 0.206087125	-0.2451587264	 0.123643
H	-6.3581547318	 1.3093588943	-4.3651375707	 0.143385
H	-4.7719357681	 1.6882092891	-5.0332764358	 0.12275
H	-4.7547078785	-0.6376613522	-5.6081203916	 0.289048
23.8003	44.6348	68.7522	96.0311	135.2549	166.3454	225.321	288.6474	304.1165	339.0781	367.1461	433.9448	469.115	553.7536	579.2248	791.0144	875.4871	911.6627	983.5977	1023.8465	1045.0934	1049.0167	1084.4537	1133.9814	1138.5787	1167.4701	1215.5966	1238.465	1252.064	1266.7712	1359.0669	1374.6718	1387.7428	1418.5379	1432.2914	1444.6716	1487.7626	1491.3434	1499.3201	1514.849	2365.3557	2955.3293	2968.0101	2976.2573	2978.1117	2979.5597	3009.4788	3064.2292	3080.0467	3793.708	3815.5954
OCCOCC#CCO	OCCOCC#CCO	
InChI=1S/C6H10O3/c7-3-1-2-5-9-6-4-8/h7-8H,3-6H2	InChI=1S/C6H10O3/c7-3-1-2-5-9-6-4-8/h7-8H,3-6H2
