23
gdb 94690	3.18126	1.29717	1.13121	1.6199	84.45	-0.254	0.0723	0.3263	1188.0582	0.207611	-388.298097	-388.289568	-388.288623	-388.330479	34.961	
C	-0.0005096243	 1.6063695016	-0.043541936	-0.478967
C	 0.0206940608	 0.0876482021	-0.051067697	 0.353877
C	 1.2187410504	-0.6369197278	-0.7340095913	-0.254043
C	 1.0341399858	-1.7607936777	 0.3175450713	-0.044737
C	 0.4285490331	-0.6728060377	 1.2522326103	-0.276261
C	-0.0387054349	-2.7429919015	-0.178937779	 0.141558
O	-0.1350588283	-3.9103201484	 0.6290453704	-0.440497
C	-1.4030917192	-2.0256063711	-0.2942322129	-0.231383
C	-1.2806447009	-0.5183134787	-0.6172430669	-0.250387
H	 0.9493582572	 2.0148316332	 0.3182104053	 0.107386
H	-0.1731503977	 2.0046204878	-1.050852311	 0.112628
H	-0.7988879219	 1.9903629171	 0.6025970296	 0.111276
H	 1.1180245118	-0.9031670343	-1.7922396032	 0.084763
H	 2.1567766137	-0.0927736684	-0.5891113922	 0.090248
H	 1.9164094711	-2.3092061785	 0.6547314414	 0.065107
H	 1.2124151699	-0.133348953	 1.7915682527	 0.093837
H	-0.3554566654	-0.9519291778	 1.9642362466	 0.078578
H	 0.277145672	-3.1241641293	-1.1575379951	 0.084979
H	-0.4106558191	-3.6334313481	 1.5100831344	 0.273033
H	-2.0483406098	-2.5387331143	-1.0128783397	 0.100525
H	-1.8980430103	-2.1353920543	 0.678592652	 0.090947
H	-2.1510836355	 0.0082636846	-0.2075056693	 0.091113
H	-1.3007306187	-0.3476165954	-1.7010524607	 0.096421
121.7149	200.162	219.0606	261.967	286.9116	328.6994	384.886	399.9882	414.6887	437.3687	544.8676	565.8613	646.2012	767.5744	808.9482	850.8951	878.5931	896.0364	905.6097	938.8663	967.7815	1005.6565	1018.6867	1041.3241	1046.3033	1063.2557	1080.836	1109.88	1163.8233	1185.65	1198.8348	1223.2622	1240.5151	1266.7775	1280.8647	1289.5127	1303.	1327.9484	1350.0812	1364.1158	1382.066	1411.0083	1431.7103	1477.2978	1489.153	1492.4779	1494.0267	1499.4209	1520.1747	3015.6179	3020.1422	3022.2129	3032.1102	3038.1461	3041.9469	3055.5856	3080.4106	3082.4542	3086.2167	3089.0047	3091.3651	3096.079	3795.0818
CC12CC(C1)C(O)CC2	C[C@@]12C[C@@H](C1)[C@@H](O)CC2	
InChI=1S/C8H14O/c1-8-3-2-7(9)6(4-8)5-8/h6-7,9H,2-5H2,1H3	InChI=1S/C8H14O/c1-8-3-2-7(9)6(4-8)5-8/h6-7,9H,2-5H2,1H3/t6-,7-,8+/m0/s1
