24
gdb 5892	3.87346	0.96653	0.94974	0.8989	82.83	-0.2497	0.0789	0.3286	1423.0133	0.220119	-351.416447	-351.405627	-351.404683	-351.452117	39.121	
C	-0.0331344524	 1.5081176938	 0.0105183093	-0.386027
C	-0.0123801838	-0.0110577563	 0.0021270703	-0.024869
O	-1.3427096789	-0.4828143065	 0.012256242	-0.25105
C	-1.440593075	-1.8909392116	 0.0056843364	-0.047449
C	-2.9172508911	-2.3141750531	 0.0175247341	 0.238011
C	-3.6227447586	-1.7596534052	-1.2330808614	-0.397596
C	-2.9713744945	-3.8514437091	 0.0097626424	-0.411155
C	-3.5986496412	-1.773224423	 1.2872873822	-0.397596
H	 0.986947128	 1.9038071802	 0.0029381744	 0.113532
H	-0.5602744406	 1.8897447656	-0.8685831921	 0.125715
H	-0.5433998623	 1.8801838212	 0.9035643731	 0.125715
H	 0.5171105341	-0.3859046085	-0.8908202593	 0.083588
H	 0.5339850763	-0.3954605498	 0.8807302251	 0.083587
H	-0.9404560404	-2.3014955119	-0.8893969848	 0.076355
H	-0.9234965295	-2.3109672783	 0.88662208	 0.076356
H	-3.1680599841	-2.1540186321	-2.1491149059	 0.102004
H	-4.6814155923	-2.0401624891	-1.2384839504	 0.103697
H	-3.5538610737	-0.6696709928	-1.26548682	 0.126777
H	-2.4720752937	-4.274462713	 0.8888241935	 0.108088
H	-4.0093331234	-4.2001990371	 0.0177570288	 0.111754
H	-2.48893171	-4.2649177752	-0.8831443851	 0.108088
H	-3.529131411	-0.6836406232	 1.3300617662	 0.126773
H	-4.6570291264	-2.0539691081	 1.3099559285	 0.103698
H	-3.1265109655	-2.1773083467	 2.1901618926	 0.102004
56.9012	75.8677	126.6736	148.1502	206.9303	248.9562	250.6556	252.1042	284.1665	309.9026	333.9122	379.7255	415.9035	477.5726	521.7152	758.7308	820.0439	903.5657	927.1805	929.2498	943.6629	958.7974	963.758	1033.7422	1060.6827	1085.9432	1145.4312	1163.3849	1186.9977	1233.1171	1247.034	1285.4285	1294.4405	1312.0383	1383.4362	1395.9472	1398.6311	1404.7339	1424.2234	1453.9817	1477.1349	1483.9181	1486.6805	1489.8397	1495.8138	1499.2316	1504.9544	1513.2682	1522.3262	1536.0671	2935.7746	2952.8437	2966.9582	2972.6992	3022.5792	3027.3191	3033.8842	3044.1241	3087.4653	3091.3423	3091.5368	3097.9121	3118.3479	3120.2389	3120.7869	3124.5717
CCOCC(C)(C)C	CCOCC(C)(C)C	
InChI=1S/C7H16O/c1-5-8-6-7(2,3)4/h5-6H2,1-4H3	InChI=1S/C7H16O/c1-5-8-6-7(2,3)4/h5-6H2,1-4H3
