20
gdb 11355	4.54025	1.19624	1.05613	2.1127	77.63	-0.2395	0.0173	0.2568	1183.8131	0.177353	-349.024977	-349.016277	-349.015333	-349.058682	32.105	
C	 0.0065859326	 1.5015029891	 0.3562464043	-0.373491
C	-0.08015464	 0.0811720824	-0.2312255335	-0.287226
C	-1.459503491	-0.5092998585	-0.1741262617	 0.346269
C	-2.242916184	-0.8127568138	-1.2142059234	-0.228529
C	-3.5327147709	-1.4790716995	-0.8066973633	 0.108206
O	-3.5681455888	-2.8552897922	-1.1984484033	-0.435009
C	-3.5694903328	-1.2562100816	 0.729764261	-0.241234
C	-2.1299921879	-0.8640421694	 1.1406655841	-0.309018
H	 1.0283954734	 1.8865456887	 0.2862310254	 0.115345
H	-0.652840518	 2.1876386203	-0.1842517969	 0.122047
H	-0.2837342815	 1.5194880908	 1.4111267957	 0.120411
H	 0.2655311096	 0.0966666851	-1.2707310017	 0.103596
H	 0.6138611136	-0.5695618543	 0.3197372984	 0.102098
H	-1.9711129821	-0.6826826175	-2.2568838305	 0.086394
H	-4.4137647676	-1.0478020476	-1.2932987517	 0.082032
H	-2.7124765248	-3.235040128	-0.9695759945	 0.270281
H	-4.2583339732	-0.4390923962	 0.9647147316	 0.103228
H	-3.9414767864	-2.1511093859	 1.2344084674	 0.104857
H	-1.5878323715	-1.6819004653	 1.6362214018	 0.102537
H	-2.1204207988	-0.0300073366	 1.8512366307	 0.107207
55.12	87.0952	119.9817	210.1531	238.5768	320.3133	329.1096	405.1101	497.942	511.2915	588.2511	752.892	766.5949	789.5894	855.2177	878.0981	899.252	954.6006	969.3765	990.8054	1048.5216	1063.2997	1073.2321	1096.8995	1157.0925	1180.9424	1232.8654	1260.2459	1269.5181	1291.3812	1304.1172	1334.0442	1353.6684	1365.1423	1407.3733	1430.41	1475.2712	1479.5847	1494.8486	1498.6557	1508.0872	1707.0681	3005.8241	3010.8488	3038.3319	3046.8703	3054.9183	3061.9442	3066.6075	3108.9078	3109.9249	3112.0342	3184.259	3796.9569
CCC1=CC(O)CC1	CCC1=C[C@@H](O)CC1	
InChI=1S/C7H12O/c1-2-6-3-4-7(8)5-6/h5,7-8H,2-4H2,1H3	InChI=1S/C7H12O/c1-2-6-3-4-7(8)5-6/h5,7-8H,2-4H2,1H3/t7-/m0/s1
