19
gdb 94659	3.87085	0.77079	0.68668	1.7812	72.99	-0.2548	-0.0344	0.2204	1616.0281	0.155666	-460.13711	-460.127183	-460.126239	-460.173989	33.691	
C	-0.1770409053	 1.5521495236	-0.0494393505	-0.391588
C	 0.1653075457	 0.0775917952	-0.1009157613	 0.118922
O	 1.4877863246	-0.1753429149	-0.6411549119	-0.289632
C	 1.9062611275	-0.877794482	 0.5435398809	-0.098418
C	 0.5367935082	-0.6395208997	 1.219416406	 0.069988
O	 0.523167522	 0.2140576123	 2.3355678726	-0.25257
C	 0.9163190106	-0.4059375286	 3.5352494677	-0.155128
C	 0.7749827588	 0.606741989	 4.6595430097	 0.139061
O	 1.0773565486	 0.378810563	 5.7996999528	-0.234412
H	 0.5349892275	 2.0990246985	 0.5714216771	 0.130078
H	-0.1530753474	 1.9641555748	-1.0627723735	 0.126767
H	-1.1816555778	 1.6999035527	 0.3594816274	 0.119412
H	-0.5904879981	-0.4706474241	-0.6796545236	 0.078286
H	 2.1650653862	-1.9235444599	 0.3365005396	 0.102547
H	 2.7503773272	-0.3851996565	 1.0429627007	 0.105386
H	-0.039178738	-1.5503027865	 1.4321962681	 0.077312
H	 0.286485891	-1.281623267	 3.7680161316	 0.125567
H	 1.9598780878	-0.7580291429	 3.5049412129	 0.128593
H	 0.3589621411	 1.583763863	 4.3292552137	 0.09983
43.7618	53.0805	77.9026	99.3934	114.4555	199.8789	240.4551	314.0316	382.4388	443.9592	475.0797	594.566	741.8126	756.8473	848.1398	876.1217	912.058	1000.6093	1022.3952	1043.2059	1062.1459	1095.8044	1111.7606	1118.8785	1157.1738	1168.792	1209.3544	1238.1444	1266.9123	1293.5144	1340.7618	1355.3862	1380.8619	1395.0544	1404.4827	1421.0503	1481.9839	1482.7079	1490.4234	1512.354	1846.5581	2902.6002	2965.2657	2998.983	3002.922	3008.4274	3020.1496	3045.5624	3058.6208	3113.7804	3138.9212
CC1OCC1OCC=O	C[C@H]1OC[C@H]1OCC=O	
InChI=1S/C6H10O3/c1-5-6(4-9-5)8-3-2-7/h2,5-6H,3-4H2,1H3	InChI=1S/C6H10O3/c1-5-6(4-9-5)8-3-2-7/h2,5-6H,3-4H2,1H3/t5-,6-/m1/s1
