18
gdb 97188	2.69462	1.34868	0.92725	1.9439	78.94	-0.2412	-0.0095	0.2318	1246.396	0.14895	-435.278839	-435.270248	-435.269304	-435.312435	31.733	
C	 0.1181886086	 1.4035015771	 0.2162373712	-0.346458
N	 0.0595822386	-0.0484246926	 0.2015715373	-0.289152
C	-1.0323053282	-0.6177957712	-0.1122610167	 0.380681
C	-1.1321902411	-2.1296281583	-0.0746433331	-0.166581
O	-2.0607216572	-2.6254295762	-1.0164814699	-0.235581
C	-3.3542779154	-2.1178021929	-0.7703209316	-0.139562
C	-3.4029598694	-0.6031467604	-0.8423277798	 0.37057
N	-4.4799328572	-0.0229063969	-1.1912870625	-0.51684
N	-2.212452998	 0.0234654088	-0.4833043619	-0.395268
H	 1.0992455109	 1.72030565	 0.5771282464	 0.133735
H	-0.0146753605	 1.8358040347	-0.7879668603	 0.1177
H	-0.6381817847	 1.8554681423	 0.8779184751	 0.111273
H	-0.1535116505	-2.5468650468	-0.3109247336	 0.146914
H	-1.4087370204	-2.4472776215	 0.9457678451	 0.111834
H	-4.026809703	-2.5219884665	-1.5267470004	 0.149605
H	-3.7167102635	-2.4365054387	 0.222343745	 0.114929
H	-4.3976635117	 0.9959514202	-1.1570862747	 0.205699
H	-2.1923556274	 1.0306868889	-0.5550629855	 0.246502
80.2637	104.3412	140.492	204.219	231.2487	320.7819	401.8358	451.3971	471.7533	510.2677	542.4966	603.2253	629.1738	680.8111	858.4705	885.7586	928.5115	975.3028	1007.1533	1029.3232	1075.6277	1105.6855	1132.2327	1161.8479	1175.3363	1232.2272	1311.3628	1319.5919	1357.8872	1390.4038	1404.5045	1423.8407	1443.9338	1473.2561	1483.7414	1498.1346	1510.3832	1739.5039	1753.7801	2959.6424	2963.9645	2965.8304	3014.1732	3106.2122	3138.1696	3140.2051	3438.4666	3604.8993
CN=C1COCC(=N)N1	CN=C1COC[C]([NH])N1	
InChI=1S/C5H9N3O/c1-7-5-3-9-2-4(6)8-5/h2-3H2,1H3,(H2,6,7,8)	InChI=1S/C5H9N3O/c1-7-5-3-9-2-4(6)8-5/h2-3H2,1H3,(H2,6,7,8)
