18
gdb 69525	2.38927	1.66107	1.31505	2.1423	71.94	-0.2048	0.0585	0.2633	1036.8627	0.145204	-438.987365	-438.978533	-438.977589	-439.020114	34.439	
C	-0.0223772764	 1.5016606124	-0.0571808928	-0.503312
C	 0.098130173	 0.0114337906	-0.0255167123	 0.272349
N	-0.822603257	-0.8663371862	 0.7469188261	-0.377105
C	 0.6501669764	-0.9192599137	 0.979395854	-0.196835
C	 1.3149499972	-1.7885152665	-0.1370075482	 0.288914
O	 2.6017360975	-2.2771014741	-0.0220217468	-0.457805
C	 0.2991480572	-2.2838274966	-1.1470634804	-0.392229
C	 0.743248939	-0.8438365765	-1.1793330443	 0.294211
O	 1.2697801483	-0.2889773875	-2.3291369624	-0.445923
H	 0.8888261967	 1.9633100562	-0.4525394453	 0.118056
H	-0.8538820104	 1.8203462807	-0.6961519946	 0.135614
H	-0.1919169796	 1.9015778219	 0.9483831241	 0.117208
H	-1.2259594869	-0.296911083	 1.492904452	 0.221808
H	 1.0878865099	-0.717484975	 1.9499062571	 0.092985
H	 2.5547424384	-3.1954332312	 0.2671653164	 0.28926
H	 0.7687249218	-2.8544423551	-1.9438093845	 0.113374
H	-0.7048345552	-2.5777715261	-0.8684221238	 0.137636
H	 2.0913324501	 0.1611685396	-2.1029720541	 0.291793
136.8443	151.2385	189.9688	223.9166	277.7172	298.3012	340.2573	364.3935	417.1109	453.4341	510.2347	545.9389	580.6555	660.2227	752.532	807.518	820.1563	858.3329	875.3703	933.1573	975.8508	988.3241	1037.7648	1055.3576	1090.2557	1109.7109	1127.5481	1157.2444	1248.8553	1280.4047	1282.3772	1313.9238	1364.6734	1401.9902	1407.1549	1439.7064	1479.2234	1493.3746	1507.0481	3024.9846	3087.0744	3096.731	3131.4289	3185.9357	3232.0516	3447.1115	3781.8189	3792.0996
CC12NC1C1(O)CC21O	C[C@]12N[C@H]1[C@@]1(O)C[C@@]21O	
InChI=1S/C6H9NO2/c1-4-3(7-4)5(8)2-6(4,5)9/h3,7-9H,2H2,1H3	InChI=1S/C6H9NO2/c1-4-3(7-4)5(8)2-6(4,5)9/h3,7-9H,2H2,1H3/t3-,4+,5+,6-/m1/s1
