19
gdb 5602	3.22115	1.8267	1.28428	2.0015	78.83	-0.1913	0.0473	0.2386	1001.2727	0.166274	-327.969196	-327.960695	-327.959751	-328.00291	30.888	
C	-0.2187378367	 1.4853435779	 0.0100408582	-0.36791
C	 0.0641194522	-0.0292880719	 0.0132420897	-0.296581
C	 0.7845435609	-0.5241259156	-1.2029852894	 0.285323
C	 2.1292058269	-0.770037096	-1.391377717	-0.231177
C	 2.3164265226	-1.1915934476	-2.7347933878	-0.162519
C	 1.0786185671	-1.1932942275	-3.3300714602	-0.110973
N	 0.1478733758	-0.787484189	-2.4012666796	-0.026975
C	-1.2724238076	-0.6796936467	-2.657797234	-0.342613
H	 0.7144119548	 2.0492116016	-0.07904054	 0.125275
H	-0.8599584353	 1.7754576616	-0.8285696282	 0.114349
H	-0.719414827	 1.7916019085	 0.9345486833	 0.109291
H	 0.6795878678	-0.2733085977	 0.8854802366	 0.112758
H	-0.87976402	-0.5730651604	 0.1517792534	 0.097459
H	 2.8913070649	-0.6602899416	-0.6338142307	 0.084657
H	 3.2464933767	-1.4680688741	-3.2071314224	 0.08895
H	 0.7704802862	-1.4526054842	-4.3308681128	 0.107224
H	-1.8513924091	-1.2583774776	-1.9308748267	 0.137912
H	-1.6160245573	 0.3600186241	-2.6236779939	 0.136628
H	-1.4816468129	-1.0775071738	-3.6523319586	 0.13892
34.695	94.6179	147.0109	202.4979	203.7115	297.6883	378.8102	421.1964	616.5228	620.2902	680.564	705.415	715.671	773.564	785.7155	831.6642	900.0788	962.9958	1022.9705	1066.1661	1077.1698	1080.0906	1113.7018	1149.0907	1201.9311	1252.0443	1298.3921	1331.4503	1357.5733	1396.0807	1407.1001	1451.5618	1470.812	1477.0171	1485.6718	1497.0589	1505.1976	1513.6885	1530.5044	1593.6907	3017.9394	3031.7758	3034.6352	3068.5116	3086.4707	3102.3603	3113.5305	3134.5766	3234.044	3245.9257	3264.2154
CCC1=CC=CN1C	CCc1cccn1C	
InChI=1S/C7H11N/c1-3-7-5-4-6-8(7)2/h4-6H,3H2,1-2H3	InChI=1S/C7H11N/c1-3-7-5-4-6-8(7)2/h4-6H,3H2,1-2H3
