19
gdb 115995	2.09499	1.65722	1.02234	2.8406	79.85	-0.2148	-0.0642	0.1506	1192.4213	0.159504	-419.228758	-419.219566	-419.218621	-419.263582	32.518	
C	 0.3460485432	 1.6527840665	-0.1757163903	-0.387185
C	 0.2156084134	 0.1302129944	-0.0409474139	-0.154703
N	 0.7385702976	-0.6245160789	-1.171900693	-0.120322
C	 0.0184228389	-0.6837119308	-2.4494009191	-0.19514
C	 1.0641761392	-1.3798641581	-3.3607393009	-0.174252
N	 2.3443740587	-1.3118942997	-2.6366019145	-0.296664
C	 2.0580122412	-0.8905968865	-1.4518686775	 0.28195
C	 3.1807310457	-0.76801643	-0.4797021714	 0.116324
O	 3.0906398196	-0.390139276	 0.6638039288	-0.271018
H	 1.3989291374	 1.9467835697	-0.2096817746	 0.132191
H	-0.1485424012	 2.0274380116	-1.0774005369	 0.117808
H	-0.1141355469	 2.1454900982	 0.6866555159	 0.121334
H	 0.7366539976	-0.2025787906	 0.8567053212	 0.148535
H	-0.8395334639	-0.1468292073	 0.0678485798	 0.103614
H	-0.9151521076	-1.2465714791	-2.3478611394	 0.113454
H	-0.234443217	 0.3250417585	-2.8070241784	 0.106623
H	 0.8153234175	-2.4354628545	-3.5305412995	 0.120939
H	 1.1549356123	-0.9109774411	-4.3445202476	 0.120197
H	 4.1422698243	-1.0688580362	-0.9376986686	 0.116315
60.3131	68.4222	117.0694	145.2545	209.7775	245.3118	288.2262	357.7225	388.3495	483.257	601.2017	641.1428	747.3909	774.8907	789.1793	856.3953	943.4415	966.4792	1005.1676	1031.4376	1036.6078	1088.6598	1108.0992	1177.6548	1200.7714	1245.4772	1260.1855	1301.8746	1340.7407	1350.4844	1392.5529	1395.4007	1407.6559	1465.3826	1485.6481	1490.5999	1494.1685	1500.5312	1533.2803	1646.7062	1804.5413	2963.6198	2991.943	3022.5296	3039.9561	3040.4766	3061.6504	3083.5873	3105.5427	3117.6871	3139.6315
CCN1CCN=C1C=O	CCN1CC[N][C]1C=O	
InChI=1S/C6H10N2O/c1-2-8-4-3-7-6(8)5-9/h5H,2-4H2,1H3	InChI=1S/C6H10N2O/c1-2-8-4-3-7-6(8)5-9/h5H,2-4H2,1H3
