19
gdb 126727	3.15204	1.1028	0.88382	0.5082	80.22	-0.2009	0.0299	0.2308	1361.7541	0.158756	-419.23464	-419.224933	-419.223988	-419.269829	34.674	
C	 0.3001808599	 1.502570581	 0.1277112072	-0.371639
C	-0.1262924597	 0.0602480041	-0.153192	-0.138599
N	 0.6053853574	-0.5402782989	-1.2539267203	 0.056307
C	 1.7035257442	-1.3443163402	-1.1832182048	-0.115834
C	 2.0925613767	-1.5712001017	-2.4862620924	 0.158188
O	 3.1485992197	-2.3432763204	-2.874435159	-0.446119
C	 1.1724860064	-0.8568519562	-3.287583827	 0.252713
C	 1.1248084506	-0.7692040131	-4.7797421955	-0.520613
N	 0.2765976115	-0.2308858526	-2.5181402995	-0.326467
H	 1.3563077512	 1.5515466669	 0.4091829926	 0.124278
H	 0.1509051683	 2.1183029565	-0.7626147207	 0.144352
H	-0.2949100062	 1.9208365523	 0.9455373721	 0.11676
H	 0.0288848169	-0.5714508772	 0.7265248374	 0.11651
H	-1.1883271294	 0.0205149863	-0.4106616049	 0.130318
H	 2.1079358494	-1.6914766306	-0.246853731	 0.12769
H	 3.1899917657	-2.339727949	-3.8353411918	 0.297634
H	 0.9814783081	-1.7522466227	-5.246409866	 0.123395
H	 0.2915401579	-0.1316162955	-5.0821387777	 0.148301
H	 2.0448743912	-0.339588669	-5.1960924788	 0.122825
46.0232	93.7864	98.9461	200.6675	207.5752	239.3396	248.6606	303.8846	316.7397	411.4106	509.9351	606.8805	641.7197	651.1229	688.034	761.0091	794.8148	802.9767	955.3784	1007.9386	1028.4892	1062.947	1101.5026	1116.9503	1149.6885	1214.3609	1263.3833	1274.9114	1378.7339	1393.2021	1406.6548	1410.4673	1412.4545	1476.6141	1484.4987	1484.7654	1488.7365	1497.3065	1507.3579	1535.8926	1644.8211	3015.2956	3043.128	3058.7927	3059.2703	3101.0097	3116.951	3129.5425	3134.1537	3269.5163	3837.5706
CCN1C=C(O)C(C)=N1	CCn1cc(O)c(C)n1	
InChI=1S/C6H10N2O/c1-3-8-4-6(9)5(2)7-8/h4,9H,3H2,1-2H3	InChI=1S/C6H10N2O/c1-3-8-4-6(9)5(2)7-8/h4,9H,3H2,1-2H3
