13
gdb 25418	5.19649	1.04023	0.86673	1.4917	72.3	-0.2599	-0.0785	0.1814	1210.1329	0.089626	-456.63506	-456.627885	-456.626941	-456.66707	26.351	
O	-0.1200653903	-0.0114446974	 0.0010671168	-0.273314
C	-0.0347137998	 1.1953133753	 0.0098097628	 0.096709
C	 1.2375584598	 1.9282225476	 0.0015150444	 0.050788
C	 1.2496966325	 3.2861625572	 0.0122073647	 0.055954
O	 2.359203191	 4.0120213766	 0.0056412589	-0.214946
C	 3.6596881493	 3.4125811346	-0.0136743664	 0.43307
O	 4.5936593185	 4.1583203155	-0.0177961403	-0.314992
C	 3.6551906493	 1.9620625721	-0.0250220875	-0.254202
C	 2.5052649029	 1.2532257721	-0.01791265	-0.105551
H	-0.9407517284	 1.8403101282	 0.0249062346	 0.078021
H	 0.3517577766	 3.8978450761	 0.0270717056	 0.155802
H	 4.6319530401	 1.4954371348	-0.0394783684	 0.140622
H	 2.5008965985	 0.1683600972	-0.0264503852	 0.15204
88.6713	167.4635	190.1214	295.2067	396.4474	405.5636	461.5745	510.0782	614.6495	642.6181	726.8174	758.617	797.6561	861.475	930.9907	952.8072	1026.5572	1042.5815	1088.077	1166.8888	1250.7851	1290.0307	1354.8132	1431.0443	1459.1374	1594.7313	1681.1512	1792.7909	1868.2356	2889.9659	3181.0002	3199.0888	3223.6846
O=CC1=COC(=O)C=C1	O=Cc1coc(=O)cc1	
InChI=1S/C6H4O3/c7-3-5-1-2-6(8)9-4-5/h1-4H	InChI=1S/C6H4O3/c7-3-5-1-2-6(8)9-4-5/h1-4H
