20
gdb 39347	2.80693	1.7415	1.30414	1.202	77.44	-0.2347	0.0684	0.3031	1016.6292	0.174711	-403.137308	-403.130004	-403.129059	-403.169003	29.326	
C	-0.0408744363	 1.5286115465	 0.2254388747	-0.213685
C	 1.4172356927	 2.0078017829	-0.0269592268	-0.251758
C	 2.0832218395	 0.9305692214	-0.9108380678	-0.052367
C	 1.9197401245	 1.024973944	-2.4327854459	-0.082743
O	 1.941038835	-0.3254966176	-2.9121757946	-0.268238
C	 1.4650595187	-1.2107587196	-1.8948632482	-0.17498
C	 1.2705256606	-0.3330311993	-0.6799694575	 0.328922
N	 1.0468495765	-0.7119642494	 0.7153563838	-0.414896
C	-0.0087830169	 0.0333767732	-0.0298995595	-0.082782
H	-0.3877948716	 1.7874146083	 1.2305769491	 0.10658
H	-0.7378720009	 1.9866717759	-0.486023431	 0.101651
H	 1.4540755368	 3.0055674393	-0.4746796843	 0.098427
H	 1.9543689214	 2.0618066663	 0.9224306584	 0.119352
H	 3.1406478109	 0.7956042723	-0.6604439097	 0.079308
H	 0.9658831663	 1.5118068584	-2.6943766526	 0.085639
H	 2.7268735067	 1.5645229157	-2.9358523635	 0.107068
H	 0.5354607819	-1.7011405531	-2.2168875021	 0.09634
H	 2.221076989	-1.9910109176	-1.7282819942	 0.103169
H	 0.7764867758	-1.6925985265	 0.7686167785	 0.229963
H	-0.9277414004	-0.494930351	-0.2662813567	 0.085029
106.7674	172.0452	207.2089	288.5699	354.5688	415.6398	517.3205	570.2194	657.5453	681.4935	769.4464	807.788	845.4979	858.4663	923.8526	927.2633	943.3578	973.3765	997.5447	1015.2754	1046.3484	1072.0998	1082.7596	1101.0411	1132.2246	1146.6053	1194.5527	1203.1076	1222.5787	1239.0776	1271.4673	1301.0776	1316.2267	1327.2587	1341.4873	1351.9482	1364.7612	1408.4385	1458.5447	1481.5072	1495.8088	1517.7649	1528.5501	2969.4546	2993.3926	3021.9541	3039.0579	3050.7966	3063.5599	3079.8603	3087.1105	3109.8598	3153.9944	3481.7251
C1CC2COCC22NC12	C1C[C@@H]2COC[C@]32N[C@@H]13	
InChI=1S/C7H11NO/c1-2-6-7(8-6)4-9-3-5(1)7/h5-6,8H,1-4H2	InChI=1S/C7H11NO/c1-2-6-7(8-6)4-9-3-5(1)7/h5-6,8H,1-4H2/t5-,6+,7-/m1/s1
