16
gdb 33259	5.60691	0.80191	0.73304	1.5514	67.3	-0.2236	-0.0022	0.2215	1485.5425	0.124679	-475.033293	-475.024961	-475.024017	-475.067808	29.594	
O	-0.0244222992	 1.4169078964	-0.0549855888	-0.419556
C	-0.0095560456	 0.0050768266	 0.0116319621	-0.065889
C	-1.4100840985	-0.578626045	 0.0540220484	-0.079222
O	-2.0361115194	-0.1858997606	-1.1786872025	-0.29686
C	-3.3250925907	-0.5222711112	-1.3410868093	 0.35227
C	-4.128667169	-0.1951233027	-2.388431079	-0.157049
O	-5.3566416415	-0.761663526	-2.1386368452	-0.135879
C	-5.2112083309	-1.3877662808	-0.9613375543	 0.087837
N	-4.0311167301	-1.287167105	-0.4327206222	-0.335569
H	-0.583524065	 1.6464453069	-0.8056143676	 0.29077
H	 0.540442965	-0.4350917738	-0.835245331	 0.096365
H	 0.5183906939	-0.2673868072	 0.9312583209	 0.114768
H	-1.3896124291	-1.6712590823	 0.1352442754	 0.116665
H	-1.9772263635	-0.1747952214	 0.8991039681	 0.12603
H	-4.0154230413	 0.3643793645	-3.2978431746	 0.149153
H	-6.071542575	-1.9069238283	-0.5699227504	 0.156166
42.3006	52.0626	133.3914	180.5062	288.0131	329.1594	399.7544	472.3536	490.3565	639.324	669.9043	731.5645	738.8602	832.0274	888.4251	903.8687	937.397	1004.6518	1063.5892	1085.0067	1098.1761	1128.3448	1165.6891	1231.324	1252.3764	1262.697	1334.4065	1350.4875	1386.5327	1394.888	1437.0282	1496.0911	1500.515	1548.6623	1656.6447	2984.6698	3038.9358	3082.4741	3093.3931	3278.6211	3316.0359	3807.293
OCCOC1=COC=N1	OCCOc1cocn1	
InChI=1S/C5H7NO3/c7-1-2-9-5-3-8-4-6-5/h3-4,7H,1-2H2	InChI=1S/C5H7NO3/c7-1-2-9-5-3-8-4-6-5/h3-4,7H,1-2H2
