23
gdb 112559	2.5558	1.14795	1.00671	2.5896	81.68	-0.2426	0.0599	0.3025	1344.7759	0.203434	-425.42607	-425.41556	-425.414616	-425.460993	39.731	
C	 0.298821555	 1.2715003622	 0.6114863725	-0.38644
C	 0.2860305874	-0.1952734821	 0.1710320347	-0.183104
C	 0.4678060722	-0.3657435563	-1.3375552199	-0.024973
C	 1.9294502813	-0.2055288289	-1.8609133441	-0.291082
C	 2.0595068899	-1.7535418516	-1.9689621336	 0.361644
C	 2.738628332	-2.3546168626	-3.186773018	-0.460471
O	 2.5699090913	-2.3285621198	-0.763569036	-0.485871
C	 0.5072239235	-1.8479203672	-1.8434201583	 0.116082
O	-0.0120269219	-2.8778823845	-1.0522864518	-0.436938
H	 1.2396535125	 1.7643842093	 0.3417809752	 0.111168
H	-0.5135130712	 1.8342848758	 0.1379567716	 0.112256
H	 0.1781165192	 1.3612096648	 1.6957819209	 0.109994
H	 1.0739029626	-0.745737837	 0.6977657166	 0.097347
H	-0.6620704729	-0.6625900527	 0.4621793705	 0.104934
H	-0.2678705458	 0.2548224271	-1.8602840893	 0.060416
H	 1.9932367828	 0.2903918097	-2.8332860067	 0.096169
H	 2.6397044449	 0.2711678585	-1.1785761713	 0.090708
H	 3.8125545281	-2.1277756398	-3.1926127836	 0.104555
H	 2.6195152072	-3.4425386868	-3.1904851712	 0.131073
H	 2.3115664387	-1.9542451421	-4.1114849135	 0.1174
H	 3.5055867038	-2.1143360434	-0.6925637497	 0.282079
H	 0.0432402758	-1.9311881281	-2.8316360357	 0.077344
H	 0.6483466235	-3.0485483144	-0.3684287491	 0.29571
83.8764	104.4748	160.9444	185.9633	205.7086	227.1692	249.4086	268.717	308.1354	341.0927	392.8805	418.8074	442.3612	534.6833	590.7773	694.0892	772.5304	777.0389	805.13	860.7144	902.6123	939.9127	958.4662	983.6082	1015.9038	1059.4578	1085.736	1112.1324	1151.1577	1170.2828	1189.5936	1208.5226	1218.2403	1268.04	1285.8786	1295.2371	1329.1924	1335.9921	1366.4821	1395.0322	1405.9133	1412.3543	1442.8246	1472.0674	1487.1451	1491.5572	1493.446	1500.5198	1508.6144	3020.3563	3026.9898	3033.4896	3038.7233	3047.9256	3058.861	3069.0462	3087.6266	3095.0105	3099.0729	3103.5498	3113.5552	3775.649	3816.9145
CCC1CC(C)(O)C1O	CC[C@H]1C[C@@](C)(O)[C@H]1O	
InChI=1S/C7H14O2/c1-3-5-4-7(2,9)6(5)8/h5-6,8-9H,3-4H2,1-2H3	InChI=1S/C7H14O2/c1-3-5-4-7(2,9)6(5)8/h5-6,8-9H,3-4H2,1-2H3/t5-,6-,7+/m0/s1
