23
gdb 81235	2.66983	1.51623	1.38	0.282	89.54	-0.2594	0.0862	0.3456	1102.9643	0.208628	-351.102731	-351.094809	-351.093864	-351.134863	32.684	
C	-0.1068704384	 1.5771919737	 0.1122652034	-0.448947
C	 0.0499158436	 0.0665932181	 0.002085577	 0.041605
C	 1.2055311544	-0.5964406437	-0.7973941954	-0.101776
C	 2.1794890147	-0.1973241619	 0.3725924906	-0.328301
C	 0.8924297891	-0.7586795043	 1.0498175428	 0.339489
C	 0.3380998752	-1.3158629986	 2.3384819656	-0.355009
C	-0.7217215557	-2.3406562219	 1.7911617344	-0.193045
C	-0.349210808	-2.7022193846	 0.2963680961	-0.283512
C	 0.9387867155	-1.9072935863	 0.0256372961	 0.0323
H	 0.8253179366	 2.1045832495	 0.3291832135	 0.116464
H	-0.5070484708	 1.9882058215	-0.8217813742	 0.11431
H	-0.8192203483	 1.8295539838	 0.906306737	 0.113589
H	-0.929357785	-0.3682824012	-0.2154412998	 0.060057
H	 1.4106581734	-0.501242604	-1.8662671738	 0.061407
H	 3.0805134437	-0.80892087	 0.4765565309	 0.088691
H	 2.4161571736	 0.8604213094	 0.4899667373	 0.090895
H	 1.1224108886	-1.8332617131	 2.9031442567	 0.099088
H	-0.1169365971	-0.5773631197	 3.0057463574	 0.094746
H	-0.7634480708	-3.2333378055	 2.4213211861	 0.098207
H	-1.7187377026	-1.8917514155	 1.8259187712	 0.102465
H	-0.1702633222	-3.7746085021	 0.1835808533	 0.093392
H	-1.176860293	-2.4570524871	-0.3737524762	 0.105896
H	 1.8259225634	-2.5440190565	 0.1111489601	 0.05799
94.9571	165.4864	199.2251	250.7222	332.518	386.3675	440.751	523.3167	577.49	647.7965	681.7286	738.082	775.8706	795.8735	818.6097	848.4867	866.2371	922.0145	942.3578	954.9964	977.0291	1015.8881	1026.4341	1057.2356	1071.083	1086.5514	1110.6671	1120.4317	1141.7644	1155.3959	1200.8493	1209.8609	1214.0278	1222.3774	1236.9394	1253.0703	1275.6066	1294.649	1312.5584	1340.5245	1402.2681	1410.9103	1428.9599	1482.9127	1493.5294	1496.5567	1499.1428	1511.5929	1531.7284	3029.4807	3034.9276	3039.33	3052.1578	3059.0218	3060.7024	3068.5993	3077.2755	3082.6109	3083.5039	3089.817	3108.6292	3114.5248	3132.9494
CC1C2CC11CCCC21	C[C@H]1[C@H]2C[C@]31CCC[C@@H]23	
InChI=1S/C9H14/c1-6-7-5-9(6)4-2-3-8(7)9/h6-8H,2-5H2,1H3	InChI=1S/C9H14/c1-6-7-5-9(6)4-2-3-8(7)9/h6-8H,2-5H2,1H3/t6-,7+,8-,9-/m0/s1
