19
gdb 44049	2.48646	1.68804	1.54543	2.8597	78.42	-0.2364	-0.0233	0.213	982.9053	0.159148	-385.845807	-385.838074	-385.83713	-385.878183	30.661	
O	-0.0626545767	 0.1356178155	-0.6875761626	-0.290222
C	-0.0460767719	 1.2251870396	-0.1953005659	 0.338161
C	-1.1429124644	 2.1375649892	 0.4436615095	-0.432426
C	-0.0353166013	 3.1942085704	 0.6982228448	 0.291034
C	 0.7440605413	 3.1918363077	 2.0451607584	-0.296543
C	 1.8349279698	 2.2561551964	 1.4056784221	-0.30308
C	 1.040086889	 2.2853356002	 0.0652203759	 0.159266
C	 1.3391607812	 3.3607909016	-1.0226238943	-0.303079
C	 0.2512210787	 4.2900211063	-0.368907133	-0.296543
H	-1.9386487749	 2.4254247513	-0.2517569628	 0.129725
H	-1.6153109871	 1.7049182354	 1.332099699	 0.129725
H	 1.1119560569	 4.1724674806	 2.3587232789	 0.104978
H	 0.2017133213	 2.7527109585	 2.8870450661	 0.105235
H	 2.8350139607	 2.6923471063	 1.3368622773	 0.109754
H	 1.9304483097	 1.2685009016	 1.8632465637	 0.117025
H	 2.3598760565	 3.7510172793	-0.9904573309	 0.109754
H	 1.1317140921	 3.0481247745	-2.0488596759	 0.117025
H	-0.5955489012	 4.5292513934	-1.0181298872	 0.105235
H	 0.6379249103	 5.2287922824	 0.0366483467	 0.104978
56.1059	139.5936	237.2255	301.9954	307.6456	379.4168	458.3578	584.0913	607.7179	652.8348	708.6591	713.8187	716.3499	807.6425	829.6969	888.6791	902.371	906.5601	909.9475	989.5416	1009.9246	1030.1401	1040.8822	1078.4251	1164.023	1191.525	1207.9226	1216.6592	1236.8231	1241.7632	1250.6282	1260.264	1266.7963	1282.1667	1287.8563	1423.2169	1465.8843	1474.4511	1474.9805	1490.2627	1876.5156	3042.5611	3051.715	3052.9144	3058.3153	3060.2207	3094.4468	3096.9924	3098.5324	3114.795	3118.1419
O=C1CC23CCC12CC3	O=C1C[C@@]23CC[C@@]12CC3	
InChI=1S/C8H10O/c9-6-5-7-1-3-8(6,7)4-2-7/h1-5H2	InChI=1S/C8H10O/c9-6-5-7-1-3-8(6,7)4-2-7/h1-5H2/t7-,8+
