18
gdb 65369	3.36215	0.94662	0.92221	2.1894	80.53	-0.2332	0.0291	0.2623	1347.9067	0.145697	-401.86077	-401.851592	-401.850648	-401.894882	34.597	
O	-0.1387756581	 1.3783823847	-0.3436001497	-0.44762
C	-0.002856092	 0.0224470261	-0.0088530892	 0.189982
C	-0.1774179616	-0.3634802967	 1.4515439133	-0.357584
C	-1.2839317126	-0.6441338003	 0.4594564981	-0.075198
C	-2.5626013638	 0.1270947747	 0.4976092542	 0.028182
C	-3.7160377987	-0.3078017654	-0.32749553	-0.246048
N	-3.7532228404	-0.4636008421	 1.1389539386	-0.329976
C	 0.9226245293	-0.7219755506	-0.8237419024	 0.296554
C	 1.716951104	-1.3218411137	-1.49943553	-0.459877
H	 0.7145330491	 1.8023071998	-0.1980340999	 0.289904
H	 0.4032492337	-1.1913804267	 1.8410476244	 0.12473
H	-0.3274963998	 0.4667573238	 2.1336932318	 0.12665
H	-1.3921470672	-1.6803701826	 0.1496223193	 0.098436
H	-2.4441527592	 1.1873968148	 0.6957740254	 0.106004
H	-4.4082167609	 0.4268851141	-0.7286437953	 0.12094
H	-3.5922266763	-1.1943590165	-0.9448533923	 0.110058
H	-3.5645978818	-1.4333088454	 1.3845783342	 0.226879
H	 2.4088869863	-1.8538906778	-2.1042618005	 0.197983
64.148	103.8763	128.9087	199.8889	253.0402	294.1287	332.3308	372.6884	421.8149	470.5268	554.1348	579.5074	607.4983	676.4044	704.7067	783.4032	845.4948	881.6685	890.3793	921.236	950.2098	962.2019	1032.1784	1054.1974	1075.1296	1095.8249	1135.5882	1162.7925	1224.9667	1239.6418	1248.7675	1265.5646	1298.5629	1319.5743	1369.9545	1448.3161	1481.4411	1513.2218	2230.6952	3106.2715	3134.9494	3141.9987	3165.5581	3192.289	3231.5947	3486.9492	3501.1378	3798.1657
OC1(CC1C1CN1)C#C	O[C@]1(C[C@H]1[C@H]1CN1)C#C	
InChI=1S/C7H9NO/c1-2-7(9)3-5(7)6-4-8-6/h1,5-6,8-9H,3-4H2	InChI=1S/C7H9NO/c1-2-7(9)3-5(7)6-4-8-6/h1,5-6,8-9H,3-4H2/t5-,6+,7-/m0/s1
