21
gdb 108494	2.57786	1.5642	1.23877	0.9062	83.65	-0.2418	0.0182	0.26	1114.903	0.183202	-387.08344	-387.075043	-387.074099	-387.116259	32.774	
C	-0.1608249227	 1.3983189379	-0.0369951274	-0.25627
O	 0.0673668843	 0.0067882105	 0.009821265	-0.287791
C	 0.7120704034	-0.5242554455	-1.130629101	 0.416916
C	-0.1071096102	-0.5324201889	-2.457113188	-0.289537
C	 0.2796814625	-2.0266565866	-2.6375614746	-0.233189
C	 0.7862476205	-2.0796557342	-1.1641229079	-0.060392
C	 2.2535283988	-2.4825884601	-0.9444052728	-0.288534
C	 2.9860441882	-1.1742199027	-1.1466780377	-0.05377
C	 2.1674433708	-0.127648989	-1.257533239	-0.152172
H	 0.7741184387	 1.9773029348	-0.029420055	 0.105406
H	-0.7408876939	 1.6910858972	-0.9250526972	 0.105291
H	-0.7352350298	 1.6587023031	 0.8555813638	 0.124645
H	-1.1732198738	-0.4042324233	-2.2489176715	 0.10393
H	 0.1903338787	 0.1625767304	-3.2463924401	 0.092753
H	-0.5336887755	-2.7079378669	-2.8948350716	 0.099839
H	 1.0907850109	-2.1688236307	-3.356640434	 0.101448
H	 0.0794197934	-2.5577349879	-0.4850069634	 0.075302
H	 2.4424773997	-2.8906911438	 0.0576288389	 0.108684
H	 2.5760826311	-3.252969072	-1.6565313097	 0.10332
H	 4.0693861544	-1.1184827064	-1.1898785565	 0.093073
H	 2.4864189205	 0.897844694	-1.4088788004	 0.091049
97.81	130.3851	189.4191	205.0073	240.5222	316.7067	375.3969	445.5391	463.289	620.1884	644.1753	725.1004	756.4974	779.9636	829.037	867.9757	895.2957	941.2783	947.9122	975.0693	987.0892	1030.9442	1061.0166	1080.1688	1099.9702	1124.3151	1157.1375	1180.9268	1182.3965	1204.47	1219.1333	1229.4219	1253.0458	1268.9145	1271.241	1308.4534	1326.0031	1384.6217	1471.834	1477.556	1479.7815	1491.1212	1493.2601	1509.2243	1675.4881	2983.1696	3014.7125	3030.528	3043.4983	3053.1282	3063.6251	3099.7613	3107.5606	3109.8429	3123.2342	3172.9123	3200.1387
COC12CCC1CC=C2	CO[C@]12CC[C@H]1CC=C2	
InChI=1S/C8H12O/c1-9-8-5-2-3-7(8)4-6-8/h2,5,7H,3-4,6H2,1H3	InChI=1S/C8H12O/c1-9-8-5-2-3-7(8)4-6-8/h2,5,7H,3-4,6H2,1H3/t7-,8-/m1/s1
