16
gdb 48921	3.92253	1.53198	1.36036	2.1411	72.47	-0.2421	-0.032	0.2101	936.6826	0.125083	-400.664466	-400.657887	-400.656943	-400.695622	26.118	
O	-0.0441874686	-0.0328079759	 0.0357928273	-0.254743
C	 0.0582582761	 1.1682525888	 0.1111082404	 0.032145
C	 1.3419963704	 1.9081902964	 0.0725058252	 0.248403
C	 2.7257430305	 1.2669449223	-0.1586404453	-0.289403
C	 3.111321471	 2.6713463975	-0.6450650538	 0.002951
C	 1.6485162207	 2.9847561863	-1.0819549752	-0.13344
C	 1.6192231275	 4.1314236961	-0.0478919269	-0.055324
C	 1.5878647593	 3.1087373704	 1.0232157935	-0.108168
N	 2.9036813304	 3.6293850587	 0.5270325421	-0.146001
H	-0.844184041	 1.8173215213	 0.1956586745	 0.072473
H	 3.2564422354	 0.8489953826	 0.6995899495	 0.115807
H	 2.6958551485	 0.5450556869	-0.9789830759	 0.123599
H	 4.0039377926	 2.8950062536	-1.2264153866	 0.087156
H	 1.2284601927	 2.924959485	-2.0822815266	 0.091582
H	 1.3407518684	 5.1771769742	-0.0747474263	 0.10575
H	 1.3748501661	 3.1863247558	 2.0815943439	 0.107213
89.2566	169.3656	269.5992	397.4107	430.4227	540.6769	685.9914	742.1997	771.436	792.1804	795.5634	832.3423	854.8634	879.6241	908.4734	937.3839	956.9176	1001.6753	1009.3939	1030.5957	1054.0074	1074.6957	1094.4168	1154.6384	1158.0675	1198.2309	1230.7033	1235.3979	1251.1559	1255.4222	1308.024	1332.9271	1427.1846	1481.7372	1807.7211	2861.4802	3068.4455	3130.5435	3134.6212	3156.4543	3190.3744	3203.6734
O=CC12CC3C1C1C2N31	O=C[C@@]12C[C@H]3[C@@H]1[C@H]1[C@@H]2N31	
InChI=1S/C7H7NO/c9-2-7-1-3-4(7)5-6(7)8(3)5/h2-6H,1H2	InChI=1S/C7H7NO/c9-2-7-1-3-4(7)5-6(7)8(3)5/h2-6H,1H2/t3-,4+,5-,6-,7-,8?/m0/s1
