18
gdb 47913	2.32067	1.68999	1.15612	4.3064	70.42	-0.2569	0.0141	0.2711	1078.7032	0.149453	-476.205929	-476.197981	-476.197037	-476.238844	30.054	
N	-0.1254091111	 1.2762906662	-0.623207766	-0.493813
C	-0.0252484526	 0.1337985884	-0.0863744274	 0.392501
C	-1.2928740799	-0.6906019252	 0.1098102982	-0.166801
O	-1.8383871719	-0.6436998382	 1.4193184893	-0.220702
C	-1.2223172439	-1.4163406966	 2.4056898789	 0.015147
O	 0.004116261	-0.8804302477	 2.8343634322	-0.227767
C	 1.184577071	-1.5333593365	 2.4121381395	-0.077239
C	 1.3442106597	-1.6266927787	 0.8959271935	-0.109834
O	 1.200066722	-0.3610314548	 0.2643081888	-0.241515
H	 0.797643078	 1.7114145544	-0.6956298029	 0.219477
H	-2.0380663532	-0.2266223436	-0.5351272945	 0.149328
H	-1.1565283399	-1.732954141	-0.2141471129	 0.101156
H	-1.9072412242	-1.38045965	 3.257249013	 0.122543
H	-1.0970542649	-2.4623080579	 2.0741566426	 0.076311
H	 2.0018835301	-0.9390535049	 2.8303418107	 0.128673
H	 1.2547810799	-2.5504847352	 2.8315931889	 0.097356
H	 2.3604266755	-1.9636759181	 0.6680467378	 0.124336
H	 0.6574160844	-2.3618225704	 0.4657488901	 0.110844
55.3645	146.2397	210.3831	253.441	286.7045	377.3389	410.2719	465.8058	504.6723	556.0999	580.2408	670.3499	818.1405	853.9927	905.7617	917.4388	958.8012	982.5864	1014.8104	1052.4858	1089.8067	1118.4191	1168.7968	1175.8252	1210.0463	1265.927	1296.6765	1304.3169	1334.5019	1356.5114	1398.9173	1412.8924	1416.6436	1445.5383	1479.8223	1489.8583	1502.0912	1518.3096	1738.7893	2947.2954	2978.8384	2997.7426	3055.0903	3085.126	3091.701	3104.1696	3143.3541	3454.1736
N=C1COCOCCO1	[NH][C]1COCOCCO1	
InChI=1S/C5H9NO3/c6-5-3-8-4-7-1-2-9-5/h6H,1-4H2	InChI=1S/C5H9NO3/c6-5-3-8-4-7-1-2-9-5/h6H,1-4H2
