20
gdb 8138	3.95174	1.61255	1.35066	0.2425	81.41	-0.2145	0.0294	0.2439	1008.7128	0.177271	-311.883322	-311.875361	-311.874417	-311.914963	31.324	
C	 0.0454330551	 1.4988928495	 0.0722845791	-0.486832
C	-0.0103193038	 0.0053961206	 0.0064069154	 0.316405
C	-0.0784085519	-0.7602037247	-1.0882490886	-0.245982
C	-0.0485662984	-2.2245642237	-0.7817278595	 0.3449
C	-0.8826786012	-3.183197888	-1.5981537399	-0.483135
C	 1.2468511713	-2.6817416083	-0.1342174495	-0.316929
C	 0.0785035232	-2.2807123893	 0.7348025493	-0.083791
C	 0.0276454219	-0.8500213337	 1.2636307347	-0.31838
H	 0.97987001	 1.8456872816	 0.5324855181	 0.122706
H	-0.0271038577	 1.9494287408	-0.9215481415	 0.121242
H	-0.7695663291	 1.900592232	 0.6888353297	 0.120836
H	-0.1222220201	-0.3830468581	-2.1056240766	 0.079383
H	-0.5453796035	-3.2162220342	-2.6412404827	 0.114518
H	-0.8164879118	-4.2007898732	-1.2000695263	 0.112415
H	-1.9392309503	-2.8916921015	-1.6006664717	 0.115638
H	 1.480130595	-3.7418808703	-0.1756917521	 0.101534
H	 2.1112545912	-2.0273183955	-0.1926154362	 0.10375
H	-0.4182015529	-3.063855356	 1.2968496486	 0.078392
H	 0.8897473105	-0.6029881281	 1.8985771727	 0.10292
H	-0.8644034576	-0.6768337198	 1.882622847	 0.100411
149.9399	181.6112	208.1589	225.676	265.0499	359.7041	389.1714	411.431	487.5566	566.4848	617.2908	754.3689	812.7671	851.787	858.4687	873.3789	929.935	954.1274	971.7748	997.9441	1027.109	1057.7566	1063.293	1094.3941	1103.5871	1113.5053	1171.7343	1195.9727	1252.912	1278.7131	1330.1819	1337.2261	1395.354	1413.5122	1418.3687	1474.8864	1478.739	1484.9227	1489.0453	1493.4397	1502.3218	1709.4835	3001.3336	3012.9648	3020.6948	3028.5351	3055.7338	3078.5237	3097.2635	3106.7848	3114.1544	3167.2353	3175.0243	3201.7389
CC1=CC2(C)CC2C1	CC1=C[C@@]2(C)C[C@H]2C1	
InChI=1S/C8H12/c1-6-3-7-5-8(7,2)4-6/h4,7H,3,5H2,1-2H3	InChI=1S/C8H12/c1-6-3-7-5-8(7,2)4-6/h4,7H,3,5H2,1-2H3/t7-,8+/m1/s1
