19
gdb 69526	2.45144	1.65426	1.32177	3.0052	75.01	-0.2338	0.0672	0.301	1054.6295	0.156476	-422.977482	-422.968463	-422.967519	-423.010395	34.76	
C	 0.062491328	 1.5265599262	 0.0292030484	-0.498628
C	-0.0854486289	 0.0402902981	 0.0912214882	 0.368909
O	 1.0377388806	-0.7778148512	-0.2792755174	-0.335039
C	 0.4675909105	-0.9633038005	 1.0342555174	 0.261857
C	 1.3763169473	-0.848761122	 2.2155374152	-0.514925
C	-0.7907631826	-1.8091565541	 0.8808134947	 0.358493
O	-0.8253559857	-3.1823290771	 0.7267067616	-0.459665
C	-2.0115237375	-0.9956158234	 1.2467549712	-0.3634
C	-1.348306978	-0.7831976643	-0.1007472282	-0.208167
H	 1.0152011312	 1.8425157528	 0.4623398802	 0.130189
H	 0.0341058791	 1.8738259482	-1.0097152512	 0.133114
H	-0.7534253571	 2.0187367827	 0.5684080898	 0.124502
H	 2.0314188053	 0.0212515035	 2.1205851397	 0.133338
H	 0.7998862487	-0.7559771564	 3.1421466641	 0.120348
H	 2.0112839712	-1.737964214	 2.3001228182	 0.13504
H	-0.9785502937	-3.5813974926	 1.589683068	 0.287133
H	-2.9435546782	-1.5527517551	 1.2145020459	 0.116398
H	-1.9746324101	-0.2234894695	 2.0114669842	 0.107025
H	-1.8508768403	-0.9842166715	-1.0384324798	 0.103477
156.7513	181.7319	185.8526	198.0631	217.4893	242.046	262.2861	345.5955	443.2642	455.8032	518.6457	583.4933	613.0589	654.0843	719.0174	759.9653	824.7693	884.4824	925.062	932.7879	974.9772	996.9959	1030.1815	1080.8615	1086.2734	1106.1297	1119.5892	1180.1765	1196.2291	1262.6572	1281.3881	1318.854	1393.9154	1408.817	1411.7743	1468.4101	1476.1555	1489.0754	1490.7281	1498.694	1511.7785	3032.134	3034.8862	3093.0418	3095.4431	3107.051	3117.15	3119.6734	3193.5071	3201.9469	3802.2418
CC12OC1(C)C1(O)CC21	C[C@@]12O[C@]1(C)[C@@]1(O)C[C@@H]21	
InChI=1S/C7H10O2/c1-5-4-3-7(4,8)6(5,2)9-5/h4,8H,3H2,1-2H3	InChI=1S/C7H10O2/c1-5-4-3-7(4,8)6(5,2)9-5/h4,8H,3H2,1-2H3/t4-,5-,6-,7+/m0/s1
