18
gdb 18473	3.52891	1.50838	1.3299	1.9007	67.62	-0.2378	0.0726	0.3104	991.7586	0.153266	-384.887989	-384.879951	-384.879007	-384.920387	30.13	
C	 1.0378002543	 0.6211495027	-1.8728180501	-0.415563
C	 1.4653145015	-0.6734412841	-1.212213257	 0.158017
O	 2.9098205616	-0.896382415	-1.1591163203	-0.306091
C	 2.8006196832	-1.3387902935	 0.1989239154	 0.064843
C	 2.4146818842	-0.2127081121	 1.1067756498	-0.045701
C	 2.930952057	 1.2019166922	 0.9577559311	-0.102959
O	 4.095762542	 1.4045970391	 1.7493137924	-0.420271
C	 1.3449044192	-0.9286082385	 0.2911480267	-0.193692
H	 1.4178967579	 0.6608761676	-2.8989758221	 0.129613
H	-0.0559065393	 0.663784767	-1.9183255557	 0.120589
H	 1.3930885774	 1.5033816873	-1.3380317694	 0.128455
H	 1.0183356192	-1.519712981	-1.7525417662	 0.085346
H	 3.3242113536	-2.2465887578	 0.477237733	 0.10264
H	 2.3640289579	-0.5234728054	 2.1496507696	 0.09855
H	 3.1282826099	 1.4247392146	-0.097024353	 0.105753
H	 2.1940972832	 1.9228197266	 1.3271066926	 0.10873
H	 4.7814047281	 0.826674388	 1.3985465789	 0.283403
H	 0.510859719	-1.4284846277	 0.7656580443	 0.098338
85.527	153.4039	191.0116	210.9146	262.7463	312.219	346.7683	427.4442	549.8451	608.5555	718.8408	757.0955	800.6885	864.383	887.3936	947.8246	980.151	1007.6575	1039.027	1047.5483	1058.7318	1070.6025	1095.6179	1121.9218	1157.6435	1186.6444	1232.3308	1263.1307	1306.5113	1327.896	1380.8366	1398.024	1409.2919	1414.7005	1447.0543	1485.0714	1495.291	1507.2066	3002.6034	3034.2771	3042.2907	3081.1259	3104.0572	3126.9744	3141.7066	3173.2632	3199.4842	3812.8557
CC1OC2C(CO)C12	C[C@H]1O[C@H]2[C@@H](CO)[C@@H]12	
InChI=1S/C6H10O2/c1-3-5-4(2-7)6(5)8-3/h3-7H,2H2,1H3	InChI=1S/C6H10O2/c1-3-5-4(2-7)6(5)8-3/h3-7H,2H2,1H3/t3-,4+,5-,6+/m1/s1
