15
gdb 51438	3.3248	1.17452	0.9735	2.5169	68.03	-0.2525	-0.0343	0.2182	1185.8225	0.111859	-453.906456	-453.898321	-453.897377	-453.940556	28.676	
N	-0.1129986024	 1.2884882827	 0.0283722398	-0.432684
C	-0.0931718127	 0.0368003156	-0.1042014703	 0.129973
O	-1.1283801414	-0.6979689477	 0.3783095407	-0.195783
C	-1.0721501012	-2.0862399838	 0.1411000457	-0.011307
C	-2.2436256568	-2.8899622464	 0.6733249082	-0.061862
C	-3.4793283641	-2.5755112578	-0.0507691519	-0.239267
N	-2.5145174845	-3.5134320261	-0.7145659907	-0.17669
C	-1.4894714442	-2.6378730243	-1.25103179	 0.371595
O	-1.097869493	-2.5062083239	-2.3657245427	-0.285839
H	 0.7297561312	 1.6958586052	-0.371449601	 0.236758
H	 0.6892311719	-0.5668879321	-0.5801085336	 0.106328
H	-0.10385065	-2.5075948684	 0.440969109	 0.12337
H	-2.2119913942	-3.5257151004	 1.5482094949	 0.125925
H	-4.3890492376	-3.0805209273	 0.2539792488	 0.150773
H	-3.6220086108	-1.5870295652	-0.4771104869	 0.15871
44.3395	85.2525	100.7177	201.1892	234.3569	321.351	461.1484	497.7414	596.244	661.4268	740.2767	750.4331	823.2011	839.6015	872.7687	984.1543	1008.0981	1024.0106	1039.8598	1046.715	1064.8038	1122.3526	1143.8181	1166.4845	1215.7301	1254.7331	1276.0811	1362.8779	1376.0246	1427.177	1507.1362	1750.8872	1925.3975	3031.1821	3050.9298	3132.0988	3211.0465	3227.1236	3521.7575
N=COC1C2CN2C1=O	[NH][CH]O[C@H]1[C@H]2CN2C1=O	
InChI=1S/C5H6N2O2/c6-2-9-4-3-1-7(3)5(4)8/h2-4,6H,1H2	InChI=1S/C5H6N2O2/c6-2-9-4-3-1-7(3)5(4)8/h2-4,6H,1H2/t3-,4+,7?/m1/s1
