22
gdb 102542	1.81545	1.46154	1.02446	2.462	77.67	-0.2426	0.0635	0.3061	1273.2609	0.19356	-441.450248	-441.440179	-441.439235	-441.484987	37.912	
C	 0.1761784794	 1.2904093631	-0.9108513849	-0.486294
C	 0.0134536517	 0.0040736798	-0.1254613875	 0.365678
C	 1.2095878662	-0.8590006841	 0.0454188374	-0.285569
N	 0.6958047214	-0.0874627379	 1.1938012798	-0.365237
C	-1.3806221266	-0.638011468	-0.1168569392	-0.120972
C	-2.2880196547	-0.0003192735	 0.9552145496	-0.054075
O	-1.9138795635	-0.3639907788	 2.2640339697	-0.434147
C	-2.0540766487	-0.6054985435	-1.4943846589	-0.087491
O	-1.227299976	-1.0789545733	-2.5486921503	-0.417214
H	 1.1861472364	 1.6939412186	-0.7833056442	 0.107008
H	 0.0174811188	 1.1085525991	-1.9769611844	 0.154313
H	-0.5337124546	 2.0570925844	-0.5811123157	 0.125095
H	 1.0998550123	-1.9364394612	 0.135527164	 0.116715
H	 2.1447955873	-0.5376189797	-0.4048752188	 0.115705
H	 1.2721693081	 0.7355732961	 1.347852491	 0.233465
H	-1.2640474297	-1.6889848289	 0.1827234397	 0.074539
H	-2.2958127237	 1.0968904678	 0.8230579781	 0.075849
H	-3.3219538871	-0.338910255	 0.809993009	 0.094151
H	-0.9430387465	-0.3215955567	 2.2838795696	 0.29291
H	-2.9974110634	-1.170135176	-1.4448361781	 0.097622
H	-2.3129790341	 0.4228141204	-1.769030971	 0.114235
H	-0.9890945729	-1.9902688227	-2.3502943549	 0.283712
68.5396	113.9952	154.9625	179.8273	232.2119	236.4865	274.0783	311.41	342.936	390.9441	402.5854	405.808	489.5766	581.555	628.935	677.3963	828.5833	870.5858	927.3759	936.7419	974.0931	981.5693	1014.2561	1052.4519	1072.2799	1081.2664	1103.3471	1108.1157	1127.8204	1151.4996	1193.2557	1232.9921	1270.4901	1287.2865	1327.542	1341.7034	1385.5632	1391.1971	1404.9636	1422.3797	1424.3444	1485.4971	1487.8789	1499.0831	1509.9263	1516.2108	1519.1613	2936.0987	2989.9554	3009.7301	3031.8796	3036.4481	3071.9941	3094.7374	3107.5142	3119.7245	3192.6336	3503.7084	3632.9485	3814.8362
CC1(CN1)C(CO)CO	C[C@]1(CN1)C(CO)CO	
InChI=1S/C6H13NO2/c1-6(4-7-6)5(2-8)3-9/h5,7-9H,2-4H2,1H3	InChI=1S/C6H13NO2/c1-6(4-7-6)5(2-8)3-9/h5,7-9H,2-4H2,1H3/t6-/m0/s1
