17
gdb 94362	2.77457	1.13186	1.01867	3.7615	71.14	-0.2386	-0.0214	0.2172	1217.1986	0.133436	-458.927284	-458.918438	-458.917493	-458.961446	31.99	
O	 0.0540619076	 1.2224023057	-0.4037697183	-0.422497
C	 0.0780090273	-0.0866868606	 0.1005453925	-0.03256
C	-0.0450963253	-0.2978347529	 1.6324598132	-0.108344
O	-1.2384941518	-1.1033067278	 1.450957109	-0.303077
C	-1.2805116686	-0.7764847358	 0.0708388082	 0.446966
C	-2.5073978482	-0.3480585225	-0.6255496541	-0.36069
C	-1.8933343305	-1.7221327082	-0.9457354074	-0.199635
C	-1.2128698074	-1.9152656168	-2.2425931129	 0.161039
O	-1.1154217314	-2.9679860552	-2.8248163283	-0.269477
H	 0.9589766369	 1.5278345866	-0.5179063078	 0.295234
H	 0.8816023979	-0.6822575176	-0.3482680928	 0.095999
H	 0.7496974565	-0.8598564783	 2.1320924999	 0.11207
H	-0.2578153841	 0.6316162167	 2.1727437489	 0.114476
H	-3.4366290778	-0.3555418959	-0.0678244497	 0.139276
H	-2.4132017338	 0.430145913	-1.3764141308	 0.140695
H	-2.3842975058	-2.5985981022	-0.5366366154	 0.120339
H	-0.7727522916	-0.9808857983	-2.6661288543	 0.070187
66.0359	86.5874	139.4829	181.7812	233.7817	269.9932	345.2608	394.2351	421.6817	464.1578	574.8674	584.3767	780.4634	849.4565	871.8314	891.0072	924.4133	980.4468	1003.8713	1041.7487	1044.73	1063.5966	1072.5818	1146.6174	1164.3627	1176.1277	1192.26	1220.1626	1274.8951	1302.6805	1338.6356	1379.9212	1441.8865	1451.9709	1475.4994	1516.7329	1815.0717	2845.205	3031.8773	3034.1053	3095.7375	3135.3206	3182.565	3232.105	3831.4671
OC1COC11CC1C=O	O[C@H]1CO[C@]21C[C@H]2C=O	
InChI=1S/C6H8O3/c7-2-4-1-6(4)5(8)3-9-6/h2,4-5,8H,1,3H2	InChI=1S/C6H8O3/c7-2-4-1-6(4)5(8)3-9-6/h2,4-5,8H,1,3H2/t4-,5-,6+/m0/s1
