19
gdb 39340	2.74757	1.84736	1.38186	1.958	74.09	-0.2297	0.0905	0.3202	973.8817	0.161663	-423.015242	-423.007983	-423.007038	-423.047032	28.742	
C	 0.0180974237	 1.4601121195	 0.0404135116	-0.422348
C	 1.3214698837	 0.6929758315	-0.055391209	 0.086126
O	 2.0836852911	 0.4415551953	 1.0914477313	-0.259354
C	 1.2682836629	-0.2560290785	 2.0390254449	-0.118514
C	 0.0540630238	-0.8284775653	 1.2835345253	 0.068875
O	 0.2060748601	-2.1924954884	 0.8881366019	-0.283105
C	 0.1342839424	-2.3162510765	-0.5369824997	-0.062673
C	-0.4845375719	-1.009963744	-1.0660894882	-0.344635
C	 0.0184950775	-0.0473870309	-0.0199891775	 0.285794
H	-0.2470995802	 1.9453161521	 0.9748470963	 0.117457
H	-0.2987191636	 1.9989021539	-0.8471370704	 0.116848
H	 1.9341436887	 0.7810773267	-0.9460637098	 0.100946
H	 1.8653257953	-1.0457367798	 2.5034313411	 0.123093
H	 0.9317234022	 0.4360396106	 2.8233184515	 0.096276
H	-0.8564370388	-0.745412363	 1.8917682762	 0.07702
H	 1.1446019649	-2.456221474	-0.947107972	 0.100055
H	-0.4577693838	-3.2055824715	-0.7746526312	 0.104929
H	-0.153086902	-0.7712121582	-2.0799957948	 0.105937
H	-1.5796694359	-1.0616605695	-1.0679683276	 0.107274
101.5108	132.7463	206.6666	320.5147	355.6171	424.4765	518.2989	588.386	663.732	730.2772	810.608	821.1011	833.8279	890.7939	903.1378	935.6876	961.9953	980.3709	1002.0409	1014.8914	1035.2563	1039.9498	1090.7716	1103.6708	1120.4197	1167.0973	1183.5108	1227.7952	1238.2843	1253.4673	1297.1	1301.7777	1321.9955	1363.257	1374.833	1394.4357	1419.4793	1483.5044	1490.6881	1506.6971	1525.4803	2999.736	3001.0699	3020.4451	3036.5566	3073.4946	3092.2994	3099.7292	3121.8395	3172.0904	3208.4734
C1C2OCC3OCCC123	C1[C@H]2OC[C@@H]3OCC[C@]123	
InChI=1S/C7H10O2/c1-2-8-6-4-9-5-3-7(1,5)6/h5-6H,1-4H2	InChI=1S/C7H10O2/c1-2-8-6-4-9-5-3-7(1,5)6/h5-6H,1-4H2/t5-,6+,7+/m1/s1
