19
gdb 12788	3.56137	1.59902	1.3561	1.5679	71.95	-0.2288	0.0754	0.3043	999.2207	0.164559	-365.010151	-365.001785	-365.000841	-365.042855	30.871	
C	-0.2860110472	 1.3352742516	 0.0919265342	-0.238295
O	 0.2478577655	 0.0538775199	-0.1592226981	-0.246905
C	 0.7975546176	-0.5505254819	 0.9835146349	 0.070482
C	-0.1382516089	-1.2203245937	 2.0309266467	-0.199969
N	 0.5365753611	-2.552982085	 1.8462493335	-0.168471
C	 0.3106838786	-2.8886943039	 0.4267485	-0.276894
C	 1.3911624767	-1.9308369396	 0.7385472203	 0.324532
C	 2.8513543218	-2.2193527349	 0.5584195839	-0.500823
H	 0.4812961533	 2.0272288155	 0.4736918529	 0.10536
H	-0.668746863	 1.7203186983	-0.8560898123	 0.129064
H	-1.1112780376	 1.3033908947	 0.819371964	 0.108109
H	 1.5181468928	 0.1289677983	 1.4633552755	 0.068416
H	-0.0019003152	-0.8612748786	 3.0530206819	 0.107714
H	-1.2052035245	-1.22874581	 1.783467091	 0.104886
H	 0.6122272841	-3.9019320519	 0.1784737413	 0.11636
H	-0.599621325	-2.5489479003	-0.0611844696	 0.118311
H	 3.1840210936	-1.9114277702	-0.4396352381	 0.128899
H	 3.4579641911	-1.6841448795	 1.2970151169	 0.119927
H	 3.0510892251	-3.2891059387	 0.6679336511	 0.129297
90.4692	141.2038	167.0384	185.9675	223.9909	288.1079	336.7429	430.2941	479.6987	519.2076	636.7924	729.306	783.2249	847.7785	881.6401	968.2598	989.2773	1026.7828	1032.3462	1069.5753	1097.7961	1120.0641	1125.3445	1155.2409	1183.1385	1202.5116	1216.9338	1251.3996	1276.1563	1329.2145	1368.7995	1403.5077	1425.1272	1481.4542	1482.3024	1486.3451	1488.398	1493.9624	1508.1948	1512.7702	2972.7888	2988.3681	3020.8241	3029.1406	3044.6569	3090.884	3108.6818	3112.1695	3113.2055	3116.8231	3199.0797
COC1CN2CC12C	CO[C@H]1CN2C[C@@]12C	
InChI=1S/C6H11NO/c1-6-4-7(6)3-5(6)8-2/h5H,3-4H2,1-2H3	InChI=1S/C6H11NO/c1-6-4-7(6)3-5(6)8-2/h5H,3-4H2,1-2H3/t5-,6-,7?/m0/s1
