21
gdb 26368	2.46691	1.35942	1.08579	1.5505	85.6	-0.1854	0.0552	0.2407	1229.9209	0.183084	-383.308779	-383.29906	-383.298116	-383.343783	36.269	
C	-0.123457137	 1.4912412235	 0.0072835634	-0.378721
C	 0.0684502155	-0.0305586249	-0.028619625	 0.03706
C	 0.7962004751	-0.4896456193	-1.2978129567	-0.384353
N	 0.750234669	-0.5068732817	 1.1755707615	-0.002942
C	 2.0645233408	-0.269498867	 1.50850554	-0.108806
C	 2.3368560262	-0.9033678481	 2.6973471096	-0.16406
C	 1.1394809984	-1.5404096123	 3.1195382848	-0.227158
C	 0.1757729306	-1.2793773022	 2.1678713375	 0.248785
N	-1.1737350139	-1.6916121823	 2.0462154973	-0.606723
H	 0.8401335996	 2.0112852233	-0.0017279596	 0.119361
H	-0.6949772289	 1.824001131	-0.8649667745	 0.114588
H	-0.662492031	 1.7957662516	 0.9089147603	 0.118881
H	-0.9122992512	-0.5121182708	 0.0020592004	 0.112728
H	 1.7859770098	-0.0299749152	-1.383879247	 0.117921
H	 0.9230995659	-1.5754272916	-1.3005728806	 0.128071
H	 0.2189980265	-0.2061629623	-2.1834554188	 0.114445
H	 2.6952637545	 0.3311488031	 0.8735197313	 0.10912
H	 3.286806486	-0.9028877435	 3.2097764953	 0.087296
H	 0.9894199023	-2.1196830988	 4.0184187824	 0.078653
H	-1.2957977615	-2.623387391	 2.4244280429	 0.244648
H	-1.8106443568	-1.0775964014	 2.5460478256	 0.241206
34.2486	99.1102	122.5481	206.1922	224.9255	250.0844	260.4676	298.6518	405.069	416.9765	530.7417	618.0368	631.7274	649.0419	706.0461	724.153	756.986	815.6157	828.9877	880.5015	910.6613	933.3638	950.487	1039.1891	1083.7928	1103.0927	1146.2803	1160.957	1184.4124	1211.8723	1262.7709	1316.667	1344.824	1369.7132	1399.6759	1418.8877	1442.2493	1466.4843	1483.7592	1488.0113	1496.8839	1507.2598	1513.402	1589.1824	1656.5183	3034.432	3039.7809	3078.0399	3102.9258	3113.3388	3114.6085	3121.3652	3233.6411	3247.6229	3268.1393	3488.6329	3581.4862
CC(C)N1C=CC=C1N	CC(C)n1cccc1N	
InChI=1S/C7H12N2/c1-6(2)9-5-3-4-7(9)8/h3-6H,8H2,1-2H3	InChI=1S/C7H12N2/c1-6(2)9-5-3-4-7(9)8/h3-6H,8H2,1-2H3
