17
gdb 69147	2.8629	1.67655	1.30684	4.8318	72.08	-0.2361	-0.0167	0.2194	996.343	0.136923	-417.982031	-417.974568	-417.973624	-418.013677	29.437	
C	-0.0818381023	 1.5083953004	 0.0067205288	-0.506976
C	 0.0788148032	 0.012318887	-0.0086872733	 0.332956
N	-0.4986691584	-0.8272247625	 1.0544489175	-0.371657
C	 0.9842203517	-0.7507080883	 0.8881394039	-0.221909
C	 1.4656115139	-1.9703694459	 0.1244018092	 0.433317
O	 2.1567703259	-2.8560122497	 0.5438963882	-0.317283
N	 1.0061558213	-1.8822648708	-1.235379086	-0.147113
C	-0.4445117148	-2.0810291193	-1.4826510446	-0.255685
C	 0.1180443832	-0.7140639106	-1.3493494818	-0.075342
H	 0.6534716383	 1.9885955243	-0.6472521351	 0.136942
H	-1.0794746082	 1.7997164801	-0.3402756435	 0.135875
H	 0.0554109456	 1.9070874478	 1.0167454343	 0.123011
H	-0.7594652129	-0.2405635179	 1.8451197449	 0.238018
H	 1.5927848193	-0.3235411952	 1.6770026708	 0.110301
H	-0.6747909715	-2.4760220261	-2.4677999696	 0.127156
H	-1.0444580634	-2.4588706033	-0.6631720245	 0.159048
H	 0.2677263291	-0.0979213099	-2.2320394191	 0.099342
128.5686	207.5834	207.7761	274.3729	312.1305	379.6456	452.7573	521.6857	577.7647	627.2243	703.55	745.0502	779.8506	851.5375	852.8077	875.0652	939.6567	967.8981	1010.0498	1018.3903	1064.4161	1080.7631	1092.9236	1119.1055	1122.6992	1159.4789	1175.4223	1279.0837	1288.9215	1309.8753	1376.1351	1416.628	1445.9949	1483.6474	1491.5197	1500.3566	1859.9345	3030.6203	3096.2191	3105.8014	3125.6928	3144.7173	3183.2186	3231.0765	3484.5661
CC12NC1C(=O)N1CC21	C[C@]12N[C@H]1C(=O)N1C[C@@H]21	
InChI=1S/C6H8N2O/c1-6-3-2-8(3)5(9)4(6)7-6/h3-4,7H,2H2,1H3	InChI=1S/C6H8N2O/c1-6-3-2-8(3)5(9)4(6)7-6/h3-4,7H,2H2,1H3/t3-,4-,6+,8?/m0/s1
