19
gdb 111932	3.89769	1.21523	1.12406	2.1966	82.5	-0.206	-0.0271	0.1789	1135.8015	0.159597	-385.777796	-385.77013	-385.769185	-385.809932	30.576	
O	-0.0758090868	 1.4623253658	-0.124305358	-0.418216
C	 0.0106038237	 0.0464655853	-0.0979561706	-0.091015
C	-1.4012954981	-0.5119841533	 0.0544834638	-0.021028
C	-2.1872862491	-0.3138927402	-1.2414570257	-0.099267
C	-2.8421385688	-1.4479853107	-1.5585193314	 0.040271
C	-2.1097210427	-2.4218120484	-2.494165028	-0.258646
C	-1.6129166493	-3.0106785857	-1.1204648288	-0.067181
C	-1.4814481546	-2.0510685342	 0.1400650359	-0.068669
C	-2.8038413562	-2.4574821087	-0.3939563946	-0.120334
H	 0.803222374	 1.8168565571	-0.2861606842	 0.287516
H	 0.4647181512	-0.3476832566	-1.0211781911	 0.087951
H	 0.6252102465	-0.3035544594	 0.747548183	 0.086575
H	-1.8323505131	-0.0688994365	 0.9641208457	 0.087217
H	-1.7976329594	 0.3699500376	-1.9903066463	 0.101451
H	-2.7208002676	-3.1797228835	-2.998847559	 0.103188
H	-1.3915818393	-1.9881042659	-3.1962659755	 0.098006
H	-1.2115817571	-4.0165125372	-1.0163964361	 0.087736
H	-1.0610129111	-2.5642056537	 1.004508947	 0.075904
H	-3.6297391622	-2.9589198218	 0.0929634141	 0.088542
95.5519	133.3065	209.8739	265.1584	368.5046	377.9433	448.4445	515.5375	613.0522	677.3448	729.9061	768.237	798.3185	823.5448	872.3991	899.8279	915.8475	960.9439	980.9432	1004.8484	1018.5955	1037.7074	1054.4075	1065.2829	1075.337	1091.0409	1113.5091	1129.5176	1210.4108	1219.0282	1228.1157	1236.9121	1267.5209	1281.6961	1292.3145	1329.316	1377.5713	1450.0967	1500.2009	1517.2504	1591.7959	2962.3646	2985.4684	3004.098	3022.9428	3088.3845	3117.4963	3132.6954	3168.1411	3196.832	3829.5654
OCC1C=C2CC3C1C23	OC[C@H]1[CH][C]2C[C@H]3[C@@H]1[C@@H]23	
InChI=1S/C8H10O/c9-3-5-1-4-2-6-7(4)8(5)6/h1,5-9H,2-3H2	InChI=1S/C8H10O/c9-3-5-1-4-2-6-7(4)8(5)6/h1,5-9H,2-3H2/t5-,6-,7+,8-/m1/s1
