19
gdb 106220	3.43717	1.4961	1.28584	1.0619	79.5	-0.2196	0.0159	0.2355	1042.5966	0.159897	-385.843833	-385.836301	-385.835356	-385.875621	30.337	
C	-0.3140734036	 1.248946259	 0.1494045792	-0.255663
O	 0.262564337	-0.0283692023	-0.052541094	-0.302544
C	 0.8669681372	-0.5603336292	 1.0774020461	 0.433887
C	 2.192716964	-0.0635516498	 1.5568600343	-0.165271
C	 2.7767176082	-1.0188164279	 2.2870014884	-0.085833
C	 1.8153075268	-2.1758805817	 2.4473480875	-0.117146
C	 0.6255910384	-1.6740755755	 3.3694388732	-0.230611
C	-0.0986335648	-1.2223485035	 2.1106523058	-0.124777
C	 0.8282728757	-2.0467081398	 1.2392864273	-0.13879
H	 0.4405298274	 2.002111909	 0.416843987	 0.109862
H	-0.780897965	 1.5400541479	-0.7943432673	 0.126387
H	-1.0772791447	 1.2283972024	 0.9396193167	 0.108916
H	 2.5699641333	 0.9313437439	 1.3573428367	 0.096718
H	 3.7095060905	-0.9346267045	 2.8311849724	 0.096732
H	 2.2443392957	-3.145497658	 2.6940218416	 0.07171
H	 0.1078819974	-2.5237557331	 3.8226347551	 0.104164
H	 0.8727564964	-0.9369755212	 4.1409431722	 0.090009
H	-1.1639716321	-1.0609999449	 1.9951321409	 0.088301
H	 0.6236123922	-2.7481569207	 0.4398664468	 0.093948
103.8055	171.5627	182.8509	338.9809	368.56	384.6966	414.9125	563.031	603.4121	694.9056	719.1538	742.4932	813.4467	849.5875	855.9622	870.5381	916.82	928.3937	942.5126	990.3748	999.0255	1021.4955	1043.8494	1071.0773	1105.8068	1119.6883	1180.7557	1182.7456	1184.3159	1211.375	1223.14	1256.7113	1263.7163	1310.358	1354.9198	1384.3715	1478.8947	1487.6811	1489.5462	1506.5535	1642.9934	2992.4704	3038.3897	3044.4261	3098.3271	3119.5584	3124.5882	3179.7274	3192.7608	3197.8522	3223.564
COC12C=CC3CC1C23	CO[C@@]12C=C[C@H]3C[C@@H]1[C@@H]23	
InChI=1S/C8H10O/c1-9-8-3-2-5-4-6(8)7(5)8/h2-3,5-7H,4H2,1H3	InChI=1S/C8H10O/c1-9-8-3-2-5-4-6(8)7(5)8/h2-3,5-7H,4H2,1H3/t5-,6+,7-,8-/m0/s1
