14
gdb 132791	2.40525	1.82535	1.03885	3.9665	68.57	-0.208	-0.0013	0.2067	1040.3683	0.102045	-478.035417	-478.027913	-478.026968	-478.067054	29.29	
N	-0.0038433666	 1.4357483967	-0.1538175197	-0.601899
C	-0.0082860002	 0.048341772	-0.0695964653	 0.074287
C	-1.1912710478	-0.6993616948	-0.0948099871	 0.350893
O	-2.3517666232	 0.0127255969	-0.1332597707	-0.447551
C	-1.1268632471	-2.0919552793	-0.0729967458	-0.256427
C	 0.1192674746	-2.7007759449	-0.0211311333	-0.016252
N	 1.2651344949	-2.0090166694	 0.0154161653	-0.331433
C	 1.1673501139	-0.7049944665	-0.007259921	 0.293437
F	 2.3118598676	-0.0057923822	 0.0425318501	-0.089185
H	 0.8326865641	 1.8627670884	 0.2157793701	 0.257698
H	-0.8513040923	 1.8696087587	 0.1824718181	 0.2606
H	-3.0998886366	-0.5929804734	-0.1288818822	 0.304177
H	-2.0351712781	-2.686272497	-0.0943130815	 0.089079
H	 0.2064282068	-3.7824738453	-0.0051145669	 0.112576
147.4606	257.4244	284.036	303.1155	334.293	335.7022	365.0961	501.0792	544.9261	564.2484	567.23	626.6809	640.4031	726.9398	767.7979	811.9564	858.2242	932.6267	985.0091	1107.8914	1164.5999	1237.221	1289.6291	1326.75	1356.6987	1376.4584	1494.3337	1533.1165	1621.5409	1643.338	1663.5773	3167.9007	3185.0995	3566.5736	3674.0522	3829.436
NC1=C(O)C=CN=C1F	Nc1c(O)ccnc1F	
InChI=1S/C5H5FN2O/c6-5-4(7)3(9)1-2-8-5/h1-2H,7H2,(H,8,9)	InChI=1S/C5H5FN2O/c6-5-4(7)3(9)1-2-8-5/h1-2H,7H2,(H,8,9)
