20
gdb 50382	3.81722	1.11146	0.95189	4.4624	80.92	-0.2376	0.0264	0.264	1264.3391	0.173437	-403.17696	-403.168874	-403.16793	-403.210576	30.373	
O	 0.0537967289	-0.0212663303	 0.8740747193	-0.333331
C	 0.0518276915	 1.1687039314	 0.629577685	 0.123835
N	 1.047281429	 1.8247137629	-0.0053387437	-0.034328
C	 2.3878302916	 1.3600292918	-0.3673520044	-0.190391
C	 2.7577339874	 2.8321424761	-0.7155015665	-0.027781
C	 2.8045444202	 3.2389344565	-2.2006559864	-0.22848
C	 1.7887809859	 4.3934850051	-2.3105060618	-0.194305
C	 0.6299712941	 3.9675558775	-1.3847117443	-0.230452
C	 1.3347685116	 3.2526402741	-0.210346959	 0.013626
H	-0.7846147682	 1.8482289835	 0.8979986327	 0.062834
H	 2.9290286813	 0.9249877251	 0.4791663171	 0.121816
H	 2.4078022385	 0.6490609066	-1.2000530202	 0.119462
H	 3.5948320138	 3.233518735	-0.1438738857	 0.082469
H	 3.8070795073	 3.5230860647	-2.5312543994	 0.103079
H	 2.4822973577	 2.4016668106	-2.831101511	 0.106329
H	 2.2401072866	 5.3210789933	-1.9371384461	 0.103106
H	 1.4656807092	 4.5841693273	-3.3378077031	 0.103453
H	 0.0138930026	 4.8103978184	-1.0605638678	 0.101861
H	-0.025214308	 3.2562197483	-1.8979352231	 0.111591
H	 1.302691049	 3.8321416221	 0.7181306283	 0.085607
43.3031	87.9209	174.5333	194.9146	308.151	355.0925	391.5488	507.9891	558.0523	681.6513	737.1717	807.1613	847.7548	861.8417	870.5022	904.5825	939.839	982.2124	985.7684	1031.8744	1038.6172	1059.7509	1106.0941	1150.4314	1158.971	1182.0611	1196.1427	1214.7695	1262.0216	1271.5249	1301.4108	1312.4582	1334.8564	1340.3043	1341.3323	1361.3918	1399.1689	1442.6261	1486.1465	1489.4873	1503.6695	1518.0705	1789.3252	2910.588	3031.5609	3037.4142	3039.5276	3045.8808	3052.582	3081.7135	3088.1389	3093.0074	3104.1248	3113.1226
O=CN1CC2CCCC12	O=CN1C[C@H]2CCC[C@@H]12	
InChI=1S/C7H11NO/c9-5-8-4-6-2-1-3-7(6)8/h5-7H,1-4H2	InChI=1S/C7H11NO/c9-5-8-4-6-2-1-3-7(6)8/h5-7H,1-4H2/t6-,7-/m1/s1
