23
gdb 115875	2.38893	1.3628	1.03624	1.5666	84.57	-0.2232	0.0798	0.303	1277.5883	0.205857	-388.289457	-388.280163	-388.279219	-388.323189	35.933	
C	-0.0746781795	 1.5683902895	 0.0085433694	-0.387095
C	 0.0119295664	 0.0379351679	-0.0045917469	-0.189151
C	 0.7385830764	-0.5484067875	 1.2105749842	-0.046047
C	 0.0267693499	-0.2803707475	 2.5590476108	-0.108856
O	 0.3443141222	-1.3652926879	 3.4280568422	-0.26047
C	 0.6360186221	-2.4811415738	 2.6277030742	 0.071809
C	-0.344529861	-2.875700743	 1.5499834671	-0.379903
C	 0.9065129286	-2.0705414854	 1.2106648952	 0.305169
C	 1.9924174421	-2.6788949542	 0.357251633	-0.48678
H	 0.922596722	 2.0203086117	 0.0538202164	 0.115142
H	-0.5687928809	 1.9436617141	-0.8929259479	 0.113716
H	-0.64250943	 1.9343967512	 0.8707341619	 0.120086
H	-0.9974240556	-0.3899046473	-0.0593946539	 0.096471
H	 0.5288826865	-0.2847978579	-0.9167421988	 0.097629
H	 1.749599421	-0.1179438346	 1.2520519557	 0.06969
H	 0.347283487	 0.643196371	 3.0483593117	 0.109837
H	-1.0622977929	-0.2174735435	 2.4084963843	 0.091153
H	 1.2105532001	-3.2279395073	 3.1642158668	 0.096905
H	-0.3512980624	-3.9170820841	 1.2441927573	 0.108269
H	-1.3203443385	-2.4023174897	 1.5260582362	 0.112733
H	 1.7838355262	-2.5522017386	-0.711909905	 0.118548
H	 2.964895605	-2.2158961348	 0.563378364	 0.116295
H	 2.0878738152	-3.7533539183	 0.5438731122	 0.114848
93.8433	121.5838	171.509	209.0861	238.4364	251.1521	279.0549	311.7707	413.0376	455.7106	478.0499	564.2009	683.166	704.476	779.4376	828.32	852.7548	901.9338	947.0481	960.1746	973.0987	998.9395	1012.2877	1028.8673	1040.0869	1066.8351	1095.9101	1112.6298	1142.3331	1153.6168	1174.746	1232.4912	1262.411	1284.2622	1294.5267	1320.1117	1343.1211	1376.5762	1384.1584	1413.1755	1414.3949	1422.0261	1483.9516	1486.2535	1490.1591	1500.7335	1502.6756	1506.6879	1526.9706	2977.0785	2999.2554	3018.7876	3020.8376	3030.6879	3053.249	3076.3823	3085.7149	3094.5193	3097.4081	3102.7809	3127.4875	3175.9453	3211.8757
CCC1COC2CC12C	CC[C@H]1CO[C@H]2C[C@@]12C	
InChI=1S/C8H14O/c1-3-6-5-9-7-4-8(6,7)2/h6-7H,3-5H2,1-2H3	InChI=1S/C8H14O/c1-3-6-5-9-7-4-8(6,7)2/h6-7H,3-5H2,1-2H3/t6-,7-,8-/m0/s1
