21
gdb 115807	3.76346	1.06391	0.94476	1.5349	78.79	-0.2437	0.0818	0.3255	1309.7392	0.182378	-424.213091	-424.204105	-424.20316	-424.246591	34.629	
C	-0.2132492754	 1.3288896078	 0.0416043803	-0.234903
O	 0.1767326009	-0.0165141787	-0.1013014366	-0.24582
C	 0.8005239876	-0.5581023312	 1.0487092486	 0.149477
C	-0.1768671304	-0.8271548323	 2.2275156686	-0.264893
C	 0.4050653625	-2.0484693843	 2.9682699985	-0.284655
C	 1.1635580814	-2.8256544303	 1.8989216763	 0.403545
O	 2.1835809917	-3.6834399594	 2.3160280844	-0.474254
C	 0.4628391301	-3.0861729554	 0.5916741825	-0.348195
C	 1.4116997502	-1.9072425671	 0.7348556979	-0.103663
H	 0.6384233109	 1.9734607769	 0.3135940033	 0.100857
H	-0.6067553498	 1.6571266664	-0.9238097533	 0.124898
H	-0.9977069333	 1.4614579388	 0.8018936145	 0.103485
H	 1.5999382648	 0.1281083577	 1.3779355068	 0.062447
H	-0.3004439838	 0.0376425994	 2.8837068242	 0.100025
H	-1.1606800102	-1.0569127032	 1.8050381844	 0.112851
H	 1.1297079864	-1.7381844518	 3.729641908	 0.10882
H	-0.3669310821	-2.6408204582	 3.4738846302	 0.090441
H	 1.7767459775	-4.5021828852	 2.6195874437	 0.280939
H	 0.8462208501	-3.9185492112	 0.0121709604	 0.111803
H	-0.6025209675	-2.9109591461	 0.4875305777	 0.113843
H	 2.3499717585	-1.9462161026	 0.1949925796	 0.09295
82.9793	116.7989	190.7915	219.7932	246.4542	276.3542	330.019	382.4407	409.423	454.2695	513.322	556.166	629.2777	695.1261	821.6148	862.4452	916.2536	920.0954	954.2019	973.0022	987.2806	1002.0875	1041.1948	1069.0422	1073.4209	1123.5664	1142.241	1173.206	1184.294	1213.0779	1228.3474	1252.0518	1265.2372	1307.1844	1330.8975	1335.9075	1349.3782	1391.4859	1412.5014	1479.9069	1484.0371	1489.5376	1494.8384	1510.1962	1514.2421	2949.652	2970.3577	3017.0518	3029.9371	3054.196	3070.7285	3104.2828	3109.7288	3134.3143	3187.2679	3223.3047	3797.9048
COC1CCC2(O)CC12	CO[C@H]1CC[C@@]2(O)C[C@@H]12	
InChI=1S/C7H12O2/c1-9-6-2-3-7(8)4-5(6)7/h5-6,8H,2-4H2,1H3	InChI=1S/C7H12O2/c1-9-6-2-3-7(8)4-5(6)7/h5-6,8H,2-4H2,1H3/t5-,6-,7+/m0/s1
