21
gdb 119882	3.04002	0.94935	0.78357	2.6457	81.58	-0.232	0.025	0.257	1495.1055	0.182224	-424.232482	-424.222667	-424.221723	-424.26786	35.773	
O	-0.1444273428	 1.4316115307	-0.1433248982	-0.419193
C	-0.0449623972	 0.0191229476	-0.2490036178	-0.070452
C	-1.3920634048	-0.567361848	 0.1772257071	-0.294791
C	-1.4290919478	-2.0646297158	 0.1403815082	 0.33759
C	-1.6572503354	-2.9028506812	 1.1530922521	-0.188419
C	-1.619677975	-4.3540602221	 0.7388134585	-0.254174
C	-1.6551492933	-4.2641391219	-0.8060485346	-0.245035
C	-1.166183338	-2.8358071188	-1.1401153006	 0.036035
O	-1.853942432	-2.2185775515	-2.2248326342	-0.437878
H	 0.6829411121	 1.8141992879	-0.4489591746	 0.283906
H	 0.1786202624	-0.2872388809	-1.2819737713	 0.093251
H	 0.7546353177	-0.3752010813	 0.3988681931	 0.08256
H	-1.6270257465	-0.2073337957	 1.1841338643	 0.104988
H	-2.1533886549	-0.1647651677	-0.5013138665	 0.129198
H	-1.8275807407	-2.592742301	 2.1791925252	 0.086746
H	-0.7004596022	-4.8410715334	 1.0941191636	 0.104565
H	-2.4511811188	-4.938510883	 1.1488985432	 0.10394
H	-1.0732415287	-5.0476900786	-1.2999704522	 0.086784
H	-2.6890173046	-4.3358344118	-1.1592548385	 0.112933
H	-0.0827664123	-2.8360802686	-1.3552859933	 0.065204
H	-1.5866584671	-2.6604513151	-3.0364906634	 0.282245
51.8201	91.1603	105.2589	133.6221	243.9815	252.4984	267.1802	289.9635	341.3021	405.9647	422.843	572.9915	637.351	705.874	799.7796	806.2076	849.263	886.1061	934.1166	949.7676	1002.0772	1020.6663	1062.1865	1074.6838	1077.9852	1100.3979	1161.8314	1187.1176	1215.3206	1228.0539	1242.8234	1247.0675	1286.031	1301.4127	1315.7283	1337.4932	1342.3239	1360.5371	1428.3209	1454.8231	1480.9159	1484.3887	1501.6072	1528.197	1722.5192	2931.291	2967.2447	3004.1183	3007.4277	3039.5286	3045.9494	3055.6745	3088.1296	3098.979	3182.035	3823.4381	3831.5989
OCCC1=CCCC1O	OCCC1=CCC[C@H]1O	
InChI=1S/C7H12O2/c8-5-4-6-2-1-3-7(6)9/h2,7-9H,1,3-5H2	InChI=1S/C7H12O2/c8-5-4-6-2-1-3-7(6)9/h2,7-9H,1,3-5H2/t7-/m1/s1
