17
gdb 20884	6.81815	1.10424	1.01811	3.3283	69.71	-0.2596	0.0115	0.2712	1170.793	0.144556	-360.07571	-360.068029	-360.067085	-360.108652	27.143	
C	-0.0117088676	 1.5331030228	-0.0268298952	-0.382449
C	 0.127289108	 0.0097763118	-0.064331078	-0.172203
C	 0.6342723731	-0.5514107509	 1.2676213795	-0.146725
N	 0.7400516397	-2.0008912335	 1.2609863598	 0.055204
C	 1.8372450449	-2.7846799022	 1.2706460461	 0.012309
N	 1.4999890197	-4.0614151968	 1.2289280298	-0.278084
C	 0.141816178	-3.9997153701	 1.1916813578	 0.038982
N	-0.3691835834	-2.7782079604	 1.2086209084	-0.254261
H	 0.9487764954	 2.019595374	 0.1770284737	 0.116956
H	-0.3800017849	 1.9146164536	-0.9830636837	 0.124537
H	-0.7158415487	 1.8492459466	 0.7505129949	 0.122807
H	-0.8365280868	-0.4579420607	-0.2882347061	 0.133936
H	 0.8175047107	-0.2901914612	-0.8616641715	 0.107553
H	 1.6281043377	-0.1579235206	 1.5038116976	 0.121038
H	-0.0393275612	-0.2661733163	 2.0821716354	 0.134286
H	 2.839996308	-2.3859055478	 1.3130724789	 0.140026
H	-0.4885806026	-4.8757332283	 1.1551576327	 0.126088
57.729	91.8539	114.344	234.1477	291.6994	345.432	383.8894	666.3918	696.8433	754.5471	761.4635	852.7454	881.9826	904.2517	907.4387	974.6719	1030.5317	1045.5531	1115.9968	1132.4967	1170.944	1232.6666	1245.0668	1306.3539	1312.4097	1331.5224	1350.7647	1382.9729	1407.4217	1416.9122	1473.9786	1484.9317	1494.6581	1500.5078	1511.6161	1549.2998	3032.7399	3039.9989	3053.0369	3078.5207	3094.6155	3111.6977	3113.0907	3253.4673	3259.5677
CCCN1C=NC=N1	CCCn1cncn1	
InChI=1S/C5H9N3/c1-2-3-8-5-6-4-7-8/h4-5H,2-3H2,1H3	InChI=1S/C5H9N3/c1-2-3-8-5-6-4-7-8/h4-5H,2-3H2,1H3
