15
gdb 46497	4.22868	1.22235	1.04459	5.0021	69.76	-0.2715	-0.0609	0.2106	1102.2581	0.113081	-457.778506	-457.771211	-457.770267	-457.81052	27.623	
O	-0.0299993104	 0.0585071134	 0.4485832455	-0.331357
C	-0.0218823501	 1.1925595196	 0.0471126503	 0.416686
O	-1.1996169993	 1.8319011961	-0.1858766724	-0.237601
C	-1.2019365973	 3.047480145	-0.941098871	-0.155014
C	-0.0665927276	 3.9831756429	-0.5985869043	 0.356335
C	-0.1188995832	 5.3764945917	-1.0690458827	-0.233138
O	-0.3469332029	 5.0748840454	 0.3028223646	-0.26434
C	 1.2169877672	 3.2902326869	-0.369494263	-0.109237
C	 1.2243834294	 1.9766798759	-0.128390216	-0.211119
H	-1.150325885	 2.7944312269	-2.0087296802	 0.12391
H	-2.1612327769	 3.5280590143	-0.7392417174	 0.139872
H	 0.8077855872	 5.9035685299	-1.2932207981	 0.124478
H	-0.9906318328	 5.7152188296	-1.6290443951	 0.1241
H	 2.1301407217	 3.8780446566	-0.3759098738	 0.122668
H	 2.13494029	 1.4173777957	 0.0497496637	 0.133757
75.6868	183.4912	224.8427	298.2758	356.0926	397.0706	450.3084	485.8428	589.418	691.2524	722.1027	780.2661	801.5857	849.3733	916.218	920.2638	982.4566	1011.917	1037.2527	1090.252	1129.7433	1132.7675	1170.4288	1231.249	1277.0559	1324.2822	1349.3928	1413.9925	1441.4309	1489.7276	1526.3116	1690.6454	1826.4524	3019.0953	3077.2878	3117.1555	3164.4353	3175.6505	3215.5756
O=C1OCC2(CO2)C=C1	O=C1OC[C@]2(CO2)C=C1	
InChI=1S/C6H6O3/c7-5-1-2-6(3-8-5)4-9-6/h1-2H,3-4H2	InChI=1S/C6H6O3/c7-5-1-2-6(3-8-5)4-9-6/h1-2H,3-4H2/t6-/m0/s1
