17
gdb 51685	4.13861	0.98686	0.92047	0.9646	70.89	-0.2627	0.0086	0.2713	1271.5813	0.137333	-455.190239	-455.181838	-455.180894	-455.224649	30.273	
N	-0.340721629	 0.8087985235	 0.9522251541	-0.539594
C	-0.1267484713	-0.2140096388	 0.2452824244	 0.411787
C	-1.0622692244	-0.7755390457	-0.8073085588	-0.346774
C	-0.6007172986	-2.2299617893	-0.9398106296	 0.020053
C	 0.9011923143	-2.082475034	-0.6286630531	-0.088592
O	 0.9897532566	-0.9993853278	 0.3134866267	-0.236649
N	-1.2854837617	-3.076103391	 0.0277438103	-0.280333
C	-1.1833183172	-4.4306599774	-0.0151573953	 0.156101
O	-0.5298541045	-5.0386535291	-0.8375304496	-0.326825
H	 0.4504819029	 0.9880296848	 1.5731979771	 0.225492
H	-2.1103863266	-0.6506013497	-0.5330387009	 0.138167
H	-0.9007329599	-0.2432054033	-1.7504155759	 0.145188
H	-0.7507900618	-2.6563589687	-1.9331086611	 0.116682
H	 1.3315347575	-2.9754333411	-0.1758302858	 0.144464
H	 1.4668641107	-1.8261241191	-1.5326706213	 0.116459
H	-1.8185269923	-2.6484589268	 0.7686509819	 0.259277
H	-1.7709435745	-4.9231982765	 0.783935797	 0.085098
29.8681	76.7865	154.3345	188.7312	240.8336	353.1088	396.9801	449.6433	500.7237	530.0734	671.7861	769.1545	783.9307	841.8765	893.5758	901.8641	910.7292	978.8797	988.7398	1033.3072	1068.0461	1095.6216	1107.2401	1176.7347	1201.2916	1256.3954	1263.5103	1277.8628	1318.631	1385.6644	1399.0701	1425.1285	1469.4433	1513.15	1519.9887	1780.6418	1798.4869	2946.6065	3037.6843	3065.0987	3103.8195	3132.1922	3140.651	3472.3889	3632.1192
N=C1CC(CO1)NC=O	[NH][C]1C[C@@H](CO1)NC=O	
InChI=1S/C5H8N2O2/c6-5-1-4(2-9-5)7-3-8/h3-4,6H,1-2H2,(H,7,8)	InChI=1S/C5H8N2O2/c6-5-1-4(2-9-5)7-3-8/h3-4,6H,1-2H2,(H,7,8)/t4-/m0/s1
