16
gdb 18688	3.14437	2.33287	1.47919	4.1441	64.76	-0.2326	0.016	0.2487	836.9218	0.134159	-379.935387	-379.928705	-379.927761	-379.966312	25.815	
O	 0.0399451183	-0.0047598982	-0.375063991	-0.379228
C	 0.0154596488	 1.1768632581	-0.0870685746	 0.428881
N	-1.1428858888	 1.8535172952	 0.1863967922	-0.314951
C	-1.26864869	 3.3084998969	 0.1515918049	-0.165422
C	-0.1309607997	 3.9776845607	 0.9289956844	-0.197922
C	 1.2240703956	 3.3992095607	 0.5348984119	-0.050237
N	 1.7100411199	 2.3142901452	 1.398376479	-0.321434
C	 1.2725143061	 2.0029335495	 0.0183710004	-0.136107
H	-1.9764163226	 1.3005247602	 0.046084505	 0.245638
H	-1.2759843347	 3.6747043953	-0.8867587653	 0.107221
H	-2.234047269	 3.5757864668	 0.5910737975	 0.115436
H	-0.1574076954	 5.0555669761	 0.7414488565	 0.10292
H	-0.2761173698	 3.8191784734	 2.0014832376	 0.127248
H	 1.9584104543	 4.0965027964	 0.1397886656	 0.091527
H	 2.7265576702	 2.3099236734	 1.4312539442	 0.237771
H	 2.0302350069	 1.7154870803	-0.7035731583	 0.108658
93.0788	217.7548	225.232	404.1512	424.6577	451.9651	525.2123	582.4857	696.1333	741.489	780.4541	814.8242	892.5233	913.3362	922.4261	951.578	1004.6778	1059.9368	1093.6475	1137.372	1169.2448	1188.7048	1247.2002	1253.0906	1274.8871	1319.9384	1369.2503	1393.2108	1408.1649	1441.2349	1468.2747	1479.971	1519.6454	1797.376	2981.508	3052.6785	3079.7433	3101.9529	3137.7807	3166.4398	3500.2025	3605.6048
O=C1NCCC2NC12	O=C1NCC[C@H]2N[C@@H]12	
InChI=1S/C5H8N2O/c8-5-4-3(7-4)1-2-6-5/h3-4,7H,1-2H2,(H,6,8)	InChI=1S/C5H8N2O/c8-5-4-3(7-4)1-2-6-5/h3-4,7H,1-2H2,(H,6,8)/t3-,4-/m1/s1
