15
gdb 5268	6.87436	1.0405	0.96082	1.2868	62.39	-0.2413	0.0018	0.2431	1160.9667	0.119963	-399.824249	-399.816763	-399.815819	-399.856941	26.475	
O	 0.11689096	 1.4288614993	 0.1124601378	-0.415815
C	 0.0621528725	 0.0141739801	 0.1666459223	-0.056734
C	-1.3632263928	-0.5255695525	-0.046319228	-0.3273
C	-1.4198807716	-2.0162974236	 0.0004367957	 0.248871
C	-1.9838422369	-2.8422472965	 0.9156009063	-0.116287
O	-1.7512489469	-4.1363438092	 0.5339762116	-0.137637
C	-1.043857719	-4.019146778	-0.6101675634	 0.076494
N	-0.8128394991	-2.804380831	-0.9818515525	-0.301768
H	-0.0644296454	 1.6963061871	-0.7941595449	 0.282965
H	 0.7410613457	-0.4515800694	-0.5614729226	 0.111853
H	 0.4138590454	-0.2630075878	 1.1658264207	 0.113496
H	-2.0245481174	-0.0964370582	 0.7127953944	 0.113196
H	-1.7254423074	-0.1833156912	-1.0248087771	 0.108749
H	-2.5476058516	-2.70212027	 1.8215559467	 0.148236
H	-0.7490682355	-4.936955559	-1.094446177	 0.151681
64.0838	95.7255	122.1716	292.5271	330.5816	361.1324	375.315	640.6808	687.462	752.4087	779.1193	792.6068	849.3053	936.4197	982.2928	1016.5327	1046.2317	1075.9856	1096.987	1132.729	1156.2287	1244.8754	1276.9871	1294.8235	1323.8648	1352.0897	1397.8371	1414.5592	1476.9741	1512.4098	1558.5411	1630.7601	3009.9166	3022.7855	3073.7801	3094.9262	3274.9358	3294.8201	3816.0831
OCCC1=COC=N1	OCCc1cocn1	
InChI=1S/C5H7NO2/c7-2-1-5-3-8-4-6-5/h3-4,7H,1-2H2	InChI=1S/C5H7NO2/c7-2-1-5-3-8-4-6-5/h3-4,7H,1-2H2
