21
gdb 40175	2.98984	1.49712	1.295	1.1378	81.14	-0.2401	0.0833	0.3234	1074.3742	0.184645	-387.068325	-387.060638	-387.059694	-387.100158	31.682	
C	-0.0845397861	 1.5080407507	-0.0500412927	-0.322426
C	 1.2634943781	 0.810957082	-0.0295167114	-0.33239
C	 0.0123124809	-0.0013787807	 0.0263751382	 0.430714
C	-0.3628354692	-0.7635711513	 1.2835437014	-0.275576
C	-1.7704332543	-1.3314609932	 1.2026652072	-0.014625
C	-2.9568916375	-0.4602963158	 0.8874521485	-0.291757
C	-2.4303800562	-1.4188548829	-0.157095481	-0.045473
C	-1.6676934417	-0.8779465579	-1.3644111018	-0.106056
O	-0.2690422456	-0.7234023669	-1.141546183	-0.286136
H	-0.3965904728	 2.0595411964	 0.8304913124	 0.110353
H	-0.4008655617	 1.9392460405	-0.9932650173	 0.117465
H	 1.8186193597	 0.7791203328	-0.959903511	 0.122638
H	 1.8723583734	 0.8803226906	 0.8657794801	 0.109757
H	 0.3438225448	-1.5957640066	 1.3963335778	 0.10495
H	-0.247429956	-0.1224154613	 2.1655753587	 0.094629
H	-1.9561890694	-2.1598482383	 1.8799141167	 0.081576
H	-3.9020150858	-0.6877419764	 1.3685095656	 0.106198
H	-2.785354556	 0.5981732506	 0.7179557861	 0.115755
H	-3.0309377934	-2.3003158965	-0.3560941743	 0.085368
H	-1.747528268	-1.5744273139	-2.2033323355	 0.106399
H	-2.0946489932	 0.084497338	-1.6872824847	 0.088637
101.3142	180.2643	262.6023	294.352	344.25	372.5701	420.0151	500.1554	513.8701	657.9779	742.7582	771.5662	778.5158	814.546	843.2784	881.8506	906.2213	926.1305	943.7153	966.8222	986.4465	1036.1016	1048.3951	1053.0163	1070.0935	1078.177	1093.3534	1124.4629	1133.1739	1171.2843	1189.2108	1220.0052	1235.6097	1276.541	1300.1032	1320.3852	1372.0268	1376.4424	1409.1353	1420.9002	1452.4898	1479.8809	1490.1041	1494.4512	1504.0975	2977.0116	3018.7316	3057.5952	3085.5672	3126.8673	3131.2243	3135.4973	3142.9032	3157.8185	3212.3075	3215.585	3229.9143
C1CC11CC2CC2CO1	C1CC21C[C@H]1C[C@H]1CO2	
InChI=1S/C8H12O/c1-2-8(1)4-6-3-7(6)5-9-8/h6-7H,1-5H2	InChI=1S/C8H12O/c1-2-8(1)4-6-3-7(6)5-9-8/h6-7H,1-5H2/t6-,7+/m1/s1
