18
gdb 44852	3.22716	1.63611	1.46989	2.5136	73.91	-0.2308	-0.0098	0.221	937.973	0.151374	-401.954888	-401.948424	-401.947479	-401.985545	27.377	
O	 0.0164075031	 0.0302240622	 0.0602280472	-0.329281
C	 0.0008649922	 1.2315051808	 0.0295340258	 0.427965
C	-1.2537236681	 2.1393737414	 0.0210095455	-0.324964
C	-0.6309595468	 3.5552928018	 0.0397691608	-0.042846
C	 0.6144634313	 3.3362717065	-0.8567100499	-0.24634
C	 1.2069455149	 2.1886010541	-0.0060161036	-0.130639
C	 1.184592472	 2.7954614445	 1.4059770209	-0.038637
N	 1.3522528396	 4.2663960814	 1.4555011762	-0.352449
C	-0.0056112474	 3.6872265639	 1.4325766907	-0.024869
H	-1.8261732198	 1.9505958168	-0.8938495349	 0.126196
H	-1.9044821597	 1.9100759828	 0.8701953246	 0.120661
H	-1.3008856177	 4.3610737205	-0.2633147582	 0.071178
H	 0.3474198942	 3.0131049071	-1.8665972334	 0.097468
H	 1.2676661086	 4.2045793284	-0.9062507898	 0.135402
H	 2.1370894238	 1.7241066586	-0.3291081301	 0.081081
H	 1.480852025	 2.1921887577	 2.2564140971	 0.103006
H	 1.5815062802	 4.5281654656	 2.4114070376	 0.234593
H	-0.6421091054	 3.7721941659	 2.3072294934	 0.092475
120.23	295.8047	338.7986	435.452	466.6354	519.9748	545.9662	596.4983	696.7343	766.6135	790.7138	816.0175	859.4586	884.7239	911.1489	918.4869	932.3533	944.7666	955.4358	999.3189	1005.4201	1082.6973	1100.4144	1111.4354	1142.7223	1146.8681	1163.3542	1211.0414	1222.232	1232.8744	1270.5413	1295.9661	1306.7885	1319.9891	1360.0929	1405.5103	1453.9017	1493.8643	1855.9199	3050.6283	3073.8783	3096.5266	3102.3945	3134.5878	3160.1146	3164.8486	3181.9738	3503.8049
O=C1CC2CC1C1NC21	O=C1C[C@@H]2C[C@H]1[C@H]1N[C@@H]21	
InChI=1S/C7H9NO/c9-5-2-3-1-4(5)7-6(3)8-7/h3-4,6-8H,1-2H2	InChI=1S/C7H9NO/c9-5-2-3-1-4(5)7-6(3)8-7/h3-4,6-8H,1-2H2/t3-,4+,6-,7+/m0/s1
