18
gdb 113917	2.52316	1.28602	0.99606	5.303	68.18	-0.2481	0.0246	0.2727	1199.6754	0.148548	-476.232551	-476.223902	-476.222957	-476.266217	32.024	
N	-1.4037036729	 1.8074666855	 1.237737914	-0.528225
H	-0.5992524987	 2.4091739205	 1.0820645753	 0.256941
H	-2.4970103778	 2.1136527182	 2.6105986998	 0.324392
H	-1.9211866524	 1.7606572525	 0.3657208595	 0.253162
C	-0.9256390656	 0.4707419259	 1.6154658217	-0.216694
C	 0.0397297496	 0.5011469647	 2.7806091067	 0.086364
O	 1.0438078517	 1.5201053366	 2.788115671	-0.267623
C	 0.1143684301	 1.4739842467	 3.887245183	 0.054208
C	-0.7692374152	 2.6884987814	 4.1308531687	-0.364055
C	-2.2060782334	 2.2992711144	 4.502418469	 0.387688
O	-2.5894781592	 2.2268538939	 5.6402595936	-0.326937
O	-3.0036342358	 2.0264599488	 3.4623032876	-0.383321
H	-1.7886234697	-0.1432546711	 1.898308137	 0.140101
H	-0.420100411	-0.0438213364	 0.7842130863	 0.115621
H	 0.4255280281	-0.4965118267	 3.0037038416	 0.100154
H	 0.5613275088	 1.0833924969	 4.8022279103	 0.115463
H	-0.3606922988	 3.2543884714	 4.9702425557	 0.132863
H	-0.7654534976	 3.3295550869	 3.2478200692	 0.1199
74.4622	127.2815	140.1281	212.024	229.4759	278.2653	366.2391	410.6472	436.8823	481.2635	615.6371	650.9493	729.5467	766.0672	814.155	890.6374	902.9448	951.0463	972.547	987.4612	1034.5315	1065.9103	1098.3089	1147.6523	1151.9468	1181.6052	1202.4058	1297.8684	1305.2036	1313.9914	1325.4091	1408.4838	1435.7068	1474.9591	1488.4166	1500.1854	1504.9469	1636.324	1860.5351	2989.7639	3064.2488	3081.4514	3082.818	3103.1418	3138.2825	3200.1272	3496.2543	3576.826
[NH3+]CC1OC1CC([O-])=O	NC[C@H]1O[C@H]1CC(=O)O	
InChI=1S/C5H9NO3/c6-2-4-3(9-4)1-5(7)8/h3-4H,1-2,6H2,(H,7,8)	InChI=1S/C5H9NO3/c6-2-4-3(9-4)1-5(7)8/h3-4H,1-2,6H2,(H,7,8)/t3-,4+/m0/s1
