18
gdb 125369	2.41766	1.73744	1.02364	3.2347	85.41	-0.1984	-0.0207	0.1777	1153.1219	0.149161	-398.155565	-398.147065	-398.146121	-398.188318	32.568	
C	-0.0199606527	 1.5179160622	 0.0153676471	-0.473876
C	-0.0048661997	 0.0208896329	 0.0028019257	 0.255817
C	-0.0253798544	-0.7026158001	-1.1410213096	-0.076
N	-0.0103832919	-2.0675741118	-1.1192258788	-0.246157
N	 0.0242261456	-2.8045517838	 0.0022123947	-0.254392
C	 0.0454569869	-2.1701744647	 1.1379144647	 0.291047
C	 0.0840500605	-3.0200947533	 2.3745547598	-0.484206
C	 0.0334729787	-0.6971634213	 1.2714980381	 0.131579
N	 0.0535321426	-0.0371758086	 2.3831638237	-0.545294
H	 0.8626244634	 1.9048460641	 0.5357522483	 0.143677
H	-0.0496088559	 1.9306809223	-0.9970216985	 0.103328
H	-0.8830534616	 1.8868220705	 0.5796457873	 0.143726
H	-0.0540046872	-0.2556599568	-2.128643195	 0.124598
H	-0.0272095587	-2.6063023025	-1.9680606357	 0.273434
H	 0.0899262423	-4.0757330015	 2.1007979003	 0.137362
H	 0.9768855728	-2.802291465	 2.9730196288	 0.13646
H	-0.7848764117	-2.8228631331	 3.0139892155	 0.136497
H	 0.0794005512	-0.6699066796	 3.1826477138	 0.202399
88.8189	171.7974	210.8123	264.1434	279.459	295.2814	336.1007	406.7751	470.492	486.9427	513.2318	561.2076	583.4877	685.8878	780.2095	840.4683	881.0379	891.3106	910.0656	985.7477	1034.0233	1055.8508	1064.8294	1106.4812	1219.6989	1264.7992	1287.8793	1347.2986	1404.1376	1414.8336	1435.2391	1462.0826	1476.4728	1478.7532	1486.008	1523.2894	1615.2247	1644.6613	1686.903	3025.8408	3034.4484	3075.1632	3090.6007	3115.541	3145.049	3193.6554	3476.2091	3665.6845
CC1=CNN=C(C)C1=N	CC1=C(C(=NNC1)C)[NH]	
InChI=1S/C6H9N3/c1-4-3-8-9-5(2)6(4)7/h3H,1-2H3,(H2,7,8)	InChI=1S/C6H10N3/c1-4-3-8-9-5(2)6(4)7/h7-8H,3H2,1-2H3
