13
gdb 43912	2.87174	1.5147	1.15728	4.2361	63.45	-0.2669	-0.0274	0.2395	1007.4422	0.089723	-452.735024	-452.727798	-452.726853	-452.766996	26.67	
O	-0.0697009146	 0.1181245411	 0.5220120209	-0.296155
C	 0.0255638295	 1.221022922	 0.1098062905	 0.492086
O	-1.0038884749	 2.054630178	-0.3236555913	-0.28155
C	-0.0847362672	 3.124801277	-0.6787663624	 0.299802
C	 0.1984858338	 4.1123919401	 0.481334099	-0.220821
N	 1.2063079528	 3.1728335563	 1.0473300898	-0.314164
C	 1.1106000655	 2.2852615395	-0.132532577	-0.26114
C	-0.2674134502	 3.6088919471	-2.0258285629	 0.239859
N	-0.3770730025	 4.0272255306	-3.0975889652	-0.322262
H	 0.6173432555	 5.0549603633	 0.1156538947	 0.137675
H	-0.6555455967	 4.3117452489	 1.1335184754	 0.145834
H	 2.123946627	 3.5808283581	 1.1702273635	 0.247282
H	 2.016737342	 2.0157308579	-0.672361185	 0.133555
102.9997	155.5712	194.5365	246.3322	362.2683	441.2772	489.2105	531.6738	577.5545	662.9494	698.2871	793.7638	833.4332	864.9316	965.7685	984.4758	1008.7148	1027.3164	1064.2874	1131.4238	1140.8903	1169.9004	1242.016	1267.1923	1341.9913	1385.2386	1491.55	1967.7996	2360.8704	3052.9825	3113.7179	3141.115	3571.726
O=C1OC2(CNC12)C#N	O=C1O[C@]2(CN[C@@H]12)C#N	
InChI=1S/C5H4N2O2/c6-1-5-2-7-3(5)4(8)9-5/h3,7H,2H2	InChI=1S/C5H4N2O2/c6-1-5-2-7-3(5)4(8)9-5/h3,7H,2H2/t3-,5-/m0/s1
