19
gdb 108534	2.74546	1.70419	1.27073	1.2275	74.42	-0.2352	0.0738	0.309	1040.3647	0.159392	-422.965033	-422.957404	-422.95646	-422.997082	30.233	
C	-0.012727334	 1.5580441979	 0.0523351567	-0.383044
C	-0.038828684	 0.0341582765	-0.1152787894	-0.288421
C	-1.4232916032	-0.544479579	-0.0335597412	 0.476212
O	-2.2931043213	-0.0553418198	-1.0301983393	-0.322103
C	-3.5375445013	-0.7332265918	-0.7582902828	-0.118197
C	-3.1605125583	-1.5786187375	 0.4439528884	-0.092843
C	-1.6961480106	-2.0656748494	 0.2260135968	-0.02199
O	-1.383469973	-1.9036489681	 1.6484706018	-0.317447
C	-2.1948734453	-0.7276005537	 1.322141734	-0.013324
H	 1.0097420702	 1.9390648316	-0.0234006189	 0.112486
H	-0.6187271441	 2.044622702	-0.7162900897	 0.134468
H	-0.4074175262	 1.8547243695	 1.0298870704	 0.114119
H	 0.3960216176	-0.2413140959	-1.0836460523	 0.105911
H	 0.559386545	-0.4527583662	 0.6616500039	 0.121564
H	-4.3232998354	 0.0017088513	-0.5459174575	 0.110101
H	-3.837003132	-1.3240331093	-1.6321583826	 0.110482
H	-3.8879822168	-2.2359115556	 0.9156699058	 0.089168
H	-1.3240285876	-2.9533851337	-0.2861154979	 0.091188
H	-2.4201404096	-0.0200895188	 2.1202834639	 0.091667
97.1761	163.3805	197.9032	286.2574	310.4303	350.4645	453.2383	527.6472	651.7278	684.5738	724.8535	768.7942	785.3608	832.1531	892.7421	907.0577	923.8393	949.8374	972.5713	986.2838	1002.312	1029.3216	1068.8813	1096.4739	1121.7824	1153.3853	1163.2023	1170.5765	1215.9486	1221.4969	1260.9271	1295.2635	1310.1483	1326.9905	1374.7086	1404.7234	1409.8953	1476.3391	1497.9249	1508.9371	1520.7186	3024.4822	3036.5707	3041.2599	3062.8516	3084.5245	3107.2844	3114.8868	3119.8907	3124.7114	3152.3755
CCC12OCC3C1OC23	CC[C@@]12OC[C@H]3[C@@H]1O[C@@H]23	
InChI=1S/C7H10O2/c1-2-7-5-4(3-8-7)6(7)9-5/h4-6H,2-3H2,1H3	InChI=1S/C7H10O2/c1-2-7-5-4(3-8-7)6(7)9-5/h4-6H,2-3H2,1H3/t4-,5-,6+,7+
