15
gdb 19672	4.77516	1.84527	1.7255	1.8508	69.73	-0.2399	0.0282	0.2681	787.6804	0.119499	-325.417605	-325.411308	-325.410363	-325.447806	25.232	
C	-0.0201408945	-1.2407926519	-0.0051542608	-0.442322
C	 0.0013870735	-0.0391215092	 0.037966249	 0.339002
C	 0.013434933	 1.41156733	 0.0934824001	-0.133839
C	-0.2612384312	 2.1497099193	 1.4270673046	-0.088814
C	 0.8132203434	 1.55845917	 2.3769803764	-0.248674
C	 1.8305940489	 2.2075745018	 1.4405909496	-0.027263
C	 0.830686124	 3.1694861371	 0.9235660588	-0.062463
N	 1.3532398901	 2.1116922992	 0.0119794523	-0.148748
H	-0.0344449742	-2.3018890821	-0.0488520958	 0.198911
H	-0.59652492	 1.8245519917	-0.7159989964	 0.109126
H	-1.2733677976	 2.3536812396	 1.7695337918	 0.0806
H	 0.8081221863	 2.0647032623	 3.3454752551	 0.107778
H	 0.8270862145	 0.4738194083	 2.5142200829	 0.11434
H	 2.898540326	 2.3247785491	 1.5659787669	 0.101113
H	 0.8440386977	 4.2276902347	 0.7009769953	 0.101254
143.5178	159.2214	365.8753	404.3916	540.5392	546.2139	627.4616	654.1477	713.5779	753.3581	795.4212	829.1083	853.5727	910.6829	936.9098	962.8102	985.5266	992.3972	1021.4278	1052.8325	1072.6253	1124.6061	1139.4736	1171.0218	1208.3666	1224.914	1250.1624	1284.4452	1336.5621	1366.0889	1494.2367	2230.547	3059.9627	3061.3221	3117.4202	3141.1503	3203.0543	3217.0114	3502.2462
C#CC1C2CC3C2N13	C#C[C@H]1[C@H]2C[C@@H]3[C@H]2N13	
InChI=1S/C7H7N/c1-2-5-4-3-6-7(4)8(5)6/h1,4-7H,3H2	InChI=1S/C7H7N/c1-2-5-4-3-6-7(4)8(5)6/h1,4-7H,3H2/t4-,5+,6-,7+,8?/m1/s1
