18
gdb 67480	2.52279	1.60293	1.23793	1.1253	83.13	-0.2242	0.0345	0.2586	1070.2466	0.146024	-364.687918	-364.679671	-364.678727	-364.720219	32.667	
C	-0.0057187201	 1.4758625634	 0.0422647917	-0.4732
C	 0.0283791753	-0.0202743794	 0.0026695823	 0.327356
C	-0.9288809427	-0.8918924659	 0.8119031941	-0.242363
C	-1.9399418929	-1.838046208	 0.4242988067	 0.275223
C	-2.8525808864	-2.5865940889	 0.1865394594	-0.413249
C	 0.5768560785	-1.0658145813	 0.947873257	-0.158049
C	 1.2635482064	-1.6963833667	-0.2716021859	-0.036285
C	 0.3881727993	-2.0312647514	-1.4110812273	-0.266151
N	 0.7553985925	-0.6153212878	-1.192882998	-0.185639
H	 0.9898561167	 1.8847322002	-0.1556597452	 0.132805
H	-0.6845421016	 1.8638616184	-0.7260349575	 0.132363
H	-0.3474344394	 1.8394172305	 1.0158455499	 0.117517
H	-1.2792504909	-0.2879455382	 1.6497428298	 0.123462
H	-3.6392615517	-3.2601500692	-0.048161535	 0.194086
H	 1.0686693198	-0.9469867357	 1.9054109499	 0.097359
H	 2.3203155081	-1.9428023346	-0.2543884633	 0.102019
H	 0.88460123	-2.4300300479	-2.2923192208	 0.120174
H	-0.6295180908	-2.3664553374	-1.2745721078	 0.152574
118.4077	172.9068	198.2341	206.2114	309.2089	358.3409	365.8099	441.5415	546.8429	586.0948	608.5414	639.5059	661.6703	695.7205	754.1292	766.9237	847.0678	895.8527	922.9346	946.0484	969.1039	990.1037	1044.3333	1053.4152	1106.8603	1112.7103	1114.6155	1153.3163	1196.0248	1227.6692	1265.0725	1338.1872	1351.7984	1411.0428	1455.3162	1474.061	1497.0694	1503.4189	2222.7048	3031.1308	3095.6629	3101.8045	3114.8356	3128.0117	3160.383	3187.7932	3247.6983	3500.8467
CC12C(C#C)C1C1CN21	C[C@]12[C@@H](C#C)[C@H]1[C@H]1CN21	
InChI=1S/C8H9N/c1-3-5-7-6-4-9(6)8(5,7)2/h1,5-7H,4H2,2H3	InChI=1S/C8H9N/c1-3-5-7-6-4-9(6)8(5,7)2/h1,5-7H,4H2,2H3/t5-,6+,7-,8-,9?/m0/s1
