15
gdb 15977	2.88835	2.07754	1.38501	1.0784	61.83	-0.2476	-0.0403	0.2073	878.7395	0.117729	-399.748037	-399.740541	-399.739597	-399.780503	26.661	
O	-0.6300496489	 1.3617961913	 0.770750504	-0.248729
C	 0.1929305314	 0.9408538158	-0.0024175164	 0.123994
C	 1.5152409278	 1.6324210905	-0.2518864657	-0.022355
O	 2.3644852196	 0.9200504114	-1.1649683189	-0.294287
C	 2.4307979444	 2.0380570719	-2.0879250114	-0.128266
C	 1.4567441425	 2.8282911942	-1.2215015398	 0.265353
C	 0.3093910481	 3.6966296534	-1.5526492127	-0.301087
N	 1.5318254373	 4.2396981106	-0.9204609319	-0.351567
H	 0.0304970422	 0.0320861393	-0.6233118966	 0.097995
H	 2.0062242472	 1.8516590948	 0.7070541657	 0.109808
H	 3.4377039378	 2.4673129266	-2.1446640925	 0.120627
H	 2.0874996063	 1.7596502744	-3.0906567621	 0.115716
H	 0.1472683341	 4.0158474006	-2.5785755101	 0.127518
H	-0.5896768172	 3.5939036429	-0.9511760515	 0.141686
H	 1.3780448773	 4.4075090524	 0.07134405	 0.243593
69.7458	87.9591	175.4973	238.2554	319.0834	364.2703	446.3999	492.9821	589.9945	810.9625	846.353	884.3146	934.2467	960.8952	997.9529	1002.1705	1036.6749	1058.9437	1082.9286	1115.8845	1132.087	1149.8075	1224.7204	1257.2392	1271.2596	1302.9814	1327.8563	1387.9676	1433.6526	1515.8895	1518.0312	1820.0525	2896.0756	3008.3901	3028.2591	3078.5462	3110.871	3200.8638	3497.0396
O=CC1OCC11CN1	O=C[C@H]1OC[C@]21CN2	
InChI=1S/C5H7NO2/c7-1-4-5(2-6-5)3-8-4/h1,4,6H,2-3H2	InChI=1S/C5H7NO2/c7-1-4-5(2-6-5)3-8-4/h1,4,6H,2-3H2/t4-,5+/m1/s1
