22
gdb 113807	3.83174	0.84217	0.75467	1.7049	84.44	-0.2229	0.0828	0.3057	1574.185	0.192742	-404.293981	-404.283956	-404.283012	-404.329705	36.801	
C	-0.245044778	 1.5122592284	-0.1064881627	-0.410899
C	-0.0492041665	 0.0221832322	 0.0666682892	 0.031973
C	 1.2622624041	-0.6282767451	-0.2224225064	-0.256875
N	 0.7569269542	-0.5584741044	 1.1456533909	-0.08448
C	 1.4362994613	 0.299282478	 2.0769015529	 0.037653
C	 0.8220035882	 0.4700885999	 3.4415030862	-0.302389
C	 2.0913280389	-0.3330605539	 3.2844033401	-0.013184
C	 2.0679294652	-1.8229783867	 3.4950531064	-0.097225
O	 2.1422878731	-2.0684217678	 4.8969826305	-0.424213
H	 0.6869640003	 2.0715412291	 0.0049035264	 0.119677
H	-0.6388187046	 1.7208354129	-1.1069165217	 0.120981
H	-0.963916588	 1.9029947907	 0.6217513742	 0.127154
H	-0.9479369664	-0.5609951319	-0.1320402331	 0.088208
H	 1.3176932372	-1.6195241762	-0.6657834328	 0.110323
H	 2.0872365781	 0.032202879	-0.4899732477	 0.104692
H	 1.9586973153	 1.163675249	 1.6635813668	 0.072446
H	 0.8677281692	 1.4427352199	 3.9181026321	 0.108096
H	-0.0864416811	-0.0900125778	 3.6343316859	 0.120103
H	 3.006562853	 0.1437671866	 3.6242225747	 0.086765
H	 1.1518231833	-2.2394104367	 3.0569065702	 0.10076
H	 2.9221053092	-2.2845953147	 2.9727117189	 0.078583
H	 2.1483828141	-3.0212894107	 5.027397099	 0.281853
37.0192	85.1413	111.3238	157.9601	209.1322	211.2489	255.4126	294.3196	360.0947	406.8898	437.7027	501.5572	606.0218	729.1759	792.0478	807.7092	855.2628	896.037	910.3918	927.6077	995.0244	1009.1583	1044.9214	1058.7208	1066.4219	1070.7008	1106.4769	1118.0532	1134.2712	1150.2223	1169.3098	1188.7538	1199.5789	1226.4107	1256.289	1271.0865	1334.3166	1379.1704	1402.6761	1412.017	1422.9048	1464.7967	1487.4441	1491.5266	1498.5008	1510.9886	1526.3921	2964.6444	3035.6898	3036.6765	3072.0019	3082.4679	3095.8575	3100.795	3125.6341	3136.4744	3147.1568	3168.2586	3224.9076	3825.1404
CC1CN1C1CC1CO	C[C@H]1CN1[C@H]1C[C@H]1CO	
InChI=1S/C7H13NO/c1-5-3-8(5)7-2-6(7)4-9/h5-7,9H,2-4H2,1H3	InChI=1S/C7H13NO/c1-5-3-8(5)7-2-6(7)4-9/h5-7,9H,2-4H2,1H3/t5-,6-,7-,8?/m0/s1
