15
gdb 43266	3.88141	1.20689	1.0998	3.0077	78.79	-0.241	-0.0599	0.1811	1099.5589	0.112226	-383.473319	-383.4658	-383.464856	-383.505196	29.43	
O	 0.0370373802	-0.0237925378	-0.0433628428	-0.328286
C	-0.0057186253	 1.1820851434	 0.0041146871	 0.399726
C	-1.2197993261	 2.0433294337	 0.0946920241	-0.213176
C	-0.8786930688	 3.335554821	 0.0194863249	-0.131825
C	 0.6102122168	 3.5303037277	-0.072050078	 0.14612
C	 1.3589387231	 3.0271258579	 1.1626404039	-0.304046
C	 1.1847392363	 2.1226155687	-0.0362246507	-0.206971
C	 1.1520367971	 4.5882869135	-0.8692525415	 0.178559
C	 1.5918228293	 5.4877189347	-1.5353362813	-0.391534
H	-2.2142135128	 1.6354411405	 0.2168581421	 0.124848
H	-1.5525255187	 4.1834977678	 0.0514567841	 0.130468
H	 2.3530430874	 3.4269605219	 1.3292746073	 0.1402
H	 0.7735340997	 2.8381318431	 2.0556717201	 0.134029
H	 2.0569247179	 1.8440791712	-0.6122336853	 0.12757
H	 1.9833356837	 6.2767071325	-2.1284029439	 0.194318
104.4592	145.7267	210.5857	321.1322	396.8545	419.3931	489.9566	515.4523	567.9983	592.6105	649.9925	662.2004	734.9241	758.9421	797.6436	839.662	887.4845	939.0348	963.702	980.1033	988.0872	1052.2997	1081.4856	1113.3262	1168.2357	1229.3377	1247.0339	1330.6231	1373.89	1477.0255	1634.2099	1818.9517	2241.1856	3135.5233	3205.9352	3214.1563	3233.4035	3236.4125	3502.6131
O=C1C=CC2(CC12)C#C	O=C1C=C[C@]2(C[C@@H]12)C#C	
InChI=1S/C8H6O/c1-2-8-4-3-7(9)6(8)5-8/h1,3-4,6H,5H2	InChI=1S/C8H6O/c1-2-8-4-3-7(9)6(8)5-8/h1,3-4,6H,5H2/t6-,8-/m0/s1
