18
gdb 11426	4.45756	1.28995	1.05126	2.3885	68.48	-0.2375	-0.017	0.2205	1114.6738	0.153152	-384.966067	-384.957929	-384.956984	-384.99908	29.673	
C	-0.050789128	 1.4027885221	 0.0903307788	-0.240614
O	-0.0463270742	 0.0266168871	-0.2176947382	-0.241145
C	-1.2896633427	-0.6099172056	-0.0332301493	 0.135131
C	-1.2225608428	-2.0249832281	-0.6345547724	-0.2466
C	-2.3741471062	-2.7856217305	 0.0348390308	-0.322439
C	-2.5411420576	-2.1245745209	 1.4093849392	 0.399684
O	-3.2251740565	-2.5352844866	 2.3095080274	-0.309816
C	-1.6947171861	-0.8469784488	 1.4347832158	-0.34495
H	 0.9421467909	 1.7901512027	-0.1498528942	 0.129932
H	-0.7985482862	 1.9493385927	-0.5056617369	 0.105674
H	-0.2537366136	 1.5919836256	 1.1546790381	 0.10917
H	-2.0805240076	-0.0289707322	-0.5390567963	 0.068393
H	-1.2738926013	-2.0116906875	-1.7251018364	 0.109366
H	-0.2565398591	-2.459224145	-0.3538860441	 0.118672
H	-3.3195997397	-2.6492266794	-0.5068303451	 0.132728
H	-2.2212988422	-3.862728954	 0.1346556973	 0.132429
H	-0.7897746523	-1.0547030778	 2.0223370775	 0.138756
H	-2.2296327049	-0.0310986838	 1.9249179179	 0.125628
77.2745	94.4263	141.068	190.9559	258.4863	388.3445	434.9281	466.9865	502.7426	549.0868	583.0095	732.6348	806.7138	867.3464	921.9673	949.4571	988.5508	1008.716	1089.6254	1135.748	1157.6078	1163.2065	1177.9289	1188.4363	1235.1072	1243.0275	1252.8665	1299.0227	1317.2543	1352.0242	1395.7878	1445.6327	1451.1133	1482.2317	1490.3109	1501.7479	1510.0463	1849.3117	2949.3284	2977.4279	3026.2667	3032.0731	3034.0754	3054.4846	3106.2932	3113.7233	3114.8014	3116.5559
COC1CCC(=O)C1	CO[C@H]1CCC(=O)C1	
InChI=1S/C6H10O2/c1-8-6-3-2-5(7)4-6/h6H,2-4H2,1H3	InChI=1S/C6H10O2/c1-8-6-3-2-5(7)4-6/h6H,2-4H2,1H3/t6-/m0/s1
