23
gdb 77975	2.3776	1.48165	1.24848	0.1666	91.05	-0.2206	0.0214	0.242	1179.8291	0.205679	-351.163573	-351.154281	-351.153337	-351.196659	36.663	
C	 0.1756370599	 2.0255895441	 0.7949648548	-0.419094
C	 0.1757673587	 0.5146985485	 0.6978305649	-0.03683
C	 1.2144488071	-0.3543468348	 0.0113151416	-0.124515
C	 2.6280682194	 0.1514593353	-0.3018761284	-0.030539
C	 2.737678684	 1.2427007407	-1.3788934269	-0.399281
C	 3.1544888022	 0.5400860771	 1.0685809316	-0.08335
C	 2.312168217	 0.2041750901	 2.0472299205	-0.148962
C	 1.0507471691	-0.4150510622	 1.5288714099	 0.292254
C	 0.4448605858	-1.5809279534	 2.2764095909	-0.485453
H	 1.1627604983	 2.4252920469	 1.0348075511	 0.123271
H	-0.1556625943	 2.4803031784	-0.1452138793	 0.112834
H	-0.5156167046	 2.3553829369	 1.5795185372	 0.108064
H	-0.8274751433	 0.1121997666	 0.561272063	 0.07649
H	 0.8311979942	-1.1608684672	-0.6058594612	 0.073567
H	 3.2169942057	-0.7061828413	-0.6643687727	 0.08007
H	 2.1911797508	 2.1472424549	-1.1022134152	 0.122478
H	 3.7847557112	 1.5198172114	-1.5438140403	 0.108661
H	 2.3355949122	 0.8857277993	-2.332527481	 0.112915
H	 4.1089777	 1.0394542995	 1.2014386034	 0.087728
H	 2.4840892105	 0.3641363057	 3.1071006851	 0.08686
H	 0.107844993	-1.2815635462	 3.2764935692	 0.114068
H	-0.4234445338	-1.9821842591	 1.7441696487	 0.112939
H	 1.1674938472	-2.3956445514	 2.4017117032	 0.115828
147.554	181.4478	191.7614	211.0748	238.4059	240.4569	268.364	281.841	343.9039	449.0385	525.0849	549.6781	639.4359	696.9112	718.4771	765.5707	810.8867	838.5419	893.3071	930.5094	956.8188	961.7688	987.4493	1022.1614	1042.6524	1078.9963	1103.8288	1110.1205	1122.7281	1126.2816	1136.9529	1182.179	1246.4995	1279.4801	1314.2167	1336.0166	1349.0921	1381.9208	1408.8886	1412.7019	1416.8238	1446.8997	1488.3703	1493.8418	1496.6264	1500.437	1505.7441	1507.4913	1669.9228	2967.8679	3018.9096	3028.1325	3035.8649	3076.2538	3080.3693	3095.9036	3096.367	3104.2675	3124.0773	3130.3043	3152.8697	3168.1724	3194.1271
CC1C2C(C)C=CC12C	C[C@H]1[C@H]2[C@@H](C)C=C[C@@]12C	
InChI=1S/C9H14/c1-6-4-5-9(3)7(2)8(6)9/h4-8H,1-3H3	InChI=1S/C9H14/c1-6-4-5-9(3)7(2)8(6)9/h4-8H,1-3H3/t6-,7-,8+,9-/m0/s1
