15
gdb 33615	3.57585	1.63248	1.42989	1.6481	74.92	-0.2447	0.0255	0.2702	914.7744	0.112681	-383.369207	-383.362764	-383.36182	-383.399861	26.736	
C	 0.0019354698	-1.2343036852	 0.0231893787	-0.331958
C	-0.0192978647	-0.0307934274	 0.0383179447	-0.042449
C	-0.0516060418	 1.3905307804	 0.0666275406	 0.321595
C	-0.7049682382	 2.3428384423	 1.1278422497	-0.185058
C	-0.9351641333	 3.3357183308	 0.0151539313	-0.096
C	 0.3724831581	 3.349541511	 0.8076273314	-0.095994
C	 1.1792389319	 2.3710869939	-0.0867833679	 0.017308
O	 0.8601227561	 2.6591889999	-1.4606306675	-0.287971
C	-0.5006850645	 2.3531117722	-1.1046232056	 0.017366
H	 0.0251427017	-2.2955876746	 0.0042168462	 0.180979
H	-1.2526172517	 2.1374900975	 2.0350757614	 0.106308
H	-1.6105570134	 4.177640577	-0.0315043521	 0.101306
H	 0.7132882019	 4.2021746929	 1.3768634345	 0.101304
H	 2.2245422187	 2.1362643821	 0.1012903467	 0.096629
H	-1.1475230106	 2.1001718172	-1.941756182	 0.096635
143.4974	156.5592	431.4245	463.3832	500.9058	572.8264	598.6921	617.3827	641.8681	755.8584	764.9191	809.1422	824.5938	839.4178	858.8436	896.8677	899.3726	923.4529	956.2164	995.4102	1016.8839	1034.6868	1040.6394	1082.8689	1139.4001	1154.4966	1196.6929	1207.3786	1263.1517	1286.5152	1330.1178	1344.0071	2230.7804	3150.1729	3153.1108	3217.7007	3221.254	3238.3418	3502.6249
C#CC12C3C4C3C1OC24	C#C[C@@]12[C@@H]3[C@H]4[C@@H]3[C@@H]1O[C@@H]24	
InChI=1S/C8H6O/c1-2-8-5-3-4(5)7(8)9-6(3)8/h1,3-7H	InChI=1S/C8H6O/c1-2-8-5-3-4(5)7(8)9-6(3)8/h1,3-7H/t3-,4+,5-,6-,7+,8+
