18
gdb 53142	2.79469	1.14236	0.96681	1.9996	81.31	-0.2237	0.0412	0.2649	1293.1232	0.146289	-401.867218	-401.857929	-401.856985	-401.902602	33.273	
C	 0.0804702013	 1.5575052971	-0.1581968498	-0.501359
C	 0.0317917763	 0.1075615447	-0.0487464279	 0.06667
C	-0.00843073	-1.0906750059	 0.0697030552	 0.140116
C	-0.0140093231	-2.5252903369	 0.1319016099	-0.219206
C	-0.4644142579	-3.3552797893	 1.2819411593	-0.049212
C	-1.6346668988	-2.7693235612	 2.0490007866	 0.105256
O	-1.3280808292	-1.6584512133	 2.8544524883	-0.424649
C	-2.345527663	-2.6018259624	 0.6733317843	-0.215485
N	-1.2417894029	-3.3548913574	-0.0281360048	-0.151323
H	 1.1121834813	 1.9092679491	-0.2690337508	 0.150719
H	-0.4843092273	 1.9131452956	-1.0272650679	 0.147999
H	-0.3393642329	 2.0371138571	 0.7329525534	 0.150352
H	 0.8032997207	-2.9876596706	-0.4187973274	 0.114914
H	 0.1202118433	-4.212657779	 1.6017936204	 0.095038
H	-2.1265595031	-3.5580141225	 2.634177511	 0.080878
H	-2.123215861	-1.4032837116	 3.3330197505	 0.284175
H	-3.2868286103	-3.1460887152	 0.5787564093	 0.105407
H	-2.4642911133	-1.5735274281	 0.3240808506	 0.119709
26.737	75.3765	104.8479	165.2651	242.4797	264.5879	300.8903	361.175	425.9294	458.5459	530.4376	575.4024	729.025	754.0422	764.5983	828.7388	892.6005	967.3027	985.6243	1018.8744	1051.4052	1052.5836	1064.7451	1085.3633	1132.9079	1156.2703	1194.0506	1212.1553	1251.8473	1279.2665	1317.222	1357.9467	1411.1805	1418.2363	1441.8399	1476.238	1478.2169	1488.1227	2367.4487	3008.0484	3026.0678	3068.7799	3086.0664	3088.5356	3123.067	3130.2682	3156.8309	3816.2448
CC#CC1C2C(O)CN12	CC#C[C@H]1[C@H]2[C@@H](O)CN12	
InChI=1S/C7H9NO/c1-2-3-5-7-6(9)4-8(5)7/h5-7,9H,4H2,1H3	InChI=1S/C7H9NO/c1-2-3-5-7-6(9)4-8(5)7/h5-7,9H,4H2,1H3/t5-,6-,7-,8?/m0/s1
