17
gdb 66518	4.21751	1.58588	1.44853	0.3235	78.32	-0.1924	-0.0331	0.1593	918.2307	0.136114	-384.557517	-384.550861	-384.549917	-384.5879	28.416	
O	-0.2081511828	 1.3792399616	-0.0315972399	-0.458177
C	 0.0518456246	 0.03385469	-0.006514081	 0.389782
C	-0.927906806	-1.0964718659	 0.1079716983	-0.134228
C	 0.1977837141	-1.0025718515	-1.0734866968	-0.216236
C	 1.2437661307	-1.7846825152	-0.3124892599	 0.075612
C	 1.1339677167	-3.0909837185	 0.0024876544	-0.120357
C	 0.393782263	-3.1615049572	 1.3400434052	-0.26346
C	-0.2197468345	-1.7152466816	 1.365495598	-0.011154
C	 0.975252933	-0.8503957545	 0.9012451132	-0.19063
H	 0.5368182924	 1.824372966	-0.4518405035	 0.289437
H	-1.974059881	-1.1132126503	-0.1731638002	 0.092476
H	-0.1463681025	-1.0149549197	-2.1006765354	 0.097298
H	 0.9911532515	-3.8672597451	-0.7435784696	 0.091923
H	-0.3328699588	-3.9820567993	 1.3068966976	 0.106455
H	 0.9922637409	-3.3083593153	 2.2507609996	 0.108367
H	-0.7345012304	-1.4371743576	 2.2906600722	 0.068962
H	 1.7754130092	-0.5104583859	 1.5562098878	 0.073932
231.7482	260.1004	309.628	336.4996	400.3719	533.0923	550.8194	568.3197	646.5307	672.9802	763.8969	781.2294	814.5387	854.2552	861.0624	884.0584	909.9506	921.2527	941.7655	998.6461	1003.8323	1027.2355	1060.519	1098.1319	1109.7958	1143.5525	1152.7742	1169.7074	1215.2828	1222.0214	1254.9635	1280.1788	1310.6099	1323.9489	1465.0955	1490.2683	1589.8693	2999.5133	3057.3572	3066.2659	3132.7395	3161.9762	3187.3793	3195.4063	3787.9286
OC12C3C1C1=CCC3C21	O[C@@]12[C@H]3[C@@H]1[C]1[CH]C[C@H]3[C@H]21	
InChI=1S/C8H8O/c9-8-5-3-1-2-4(5)7(8)6(3)8/h1,4-7,9H,2H2	InChI=1S/C8H8O/c9-8-5-3-1-2-4(5)7(8)6(3)8/h1,4-7,9H,2H2/t4-,5+,6-,7+,8+/m0/s1
