17
gdb 74620	3.06728	1.50975	1.45441	1.9245	73.07	-0.2114	0.0136	0.2251	987.3048	0.137198	-417.971224	-417.963714	-417.96277	-418.002753	29.983	
C	-0.0110439928	 1.5660959069	-0.0524579934	-0.5213
C	-0.0209315698	 0.071306455	 0.0249939414	 0.264917
C	 0.4724770591	-1.0451931813	-0.8511229423	 0.035258
O	 1.1555652546	-1.7311642608	 0.1878373855	-0.29299
C	 0.465904	-0.8684560702	 1.1679696417	-0.10253
C	-0.7675814951	-1.6866072958	 1.5033709931	 0.417715
N	-0.9283355507	-2.326011788	 2.7076492927	-0.593333
N	-1.581223756	-1.7657809616	 0.5098231437	-0.293282
C	-1.0401131191	-0.9105541447	-0.5137533502	-0.089232
H	 0.9893958941	 1.9778098796	 0.1222459803	 0.1236
H	-0.3376610704	 1.8965476085	-1.0437570972	 0.127927
H	-0.6936782042	 2.0080718829	 0.6824880959	 0.128657
H	 0.8889421089	-1.1029667157	-1.8504181393	 0.106829
H	 1.1375112946	-0.5315723208	 1.9587825218	 0.081536
H	-0.0848121508	-2.5501454625	 3.2120008533	 0.257132
H	-1.6032227896	-3.0783875054	 2.6927095272	 0.259944
H	-1.6995497927	-0.617071396	-1.3226864545	 0.089152
149.4915	188.5567	234.4657	260.8046	353.7473	385.6618	413.1825	543.6652	571.3669	602.0032	661.7585	705.7156	756.2367	797.2619	842.7514	870.4608	889.7133	921.4718	957.1207	986.4533	1034.97	1043.3591	1071.9403	1126.3503	1173.1848	1184.1673	1204.5687	1229.4961	1248.788	1301.4583	1411.8171	1422.2338	1453.4357	1484.529	1497.5718	1623.7256	1694.0087	3023.6993	3084.2137	3099.0219	3108.7872	3178.2957	3187.2463	3565.1525	3679.1201
CC12C3OC1C(N)=NC23	C[C@@]12[C@H]3O[C@@H]1[C](N)[N][C@@H]23	
InChI=1S/C6H8N2O/c1-6-2-3(6)9-4(6)5(7)8-2/h2-4H,1H3,(H2,7,8)	InChI=1S/C6H8N2O/c1-6-2-3(6)9-4(6)5(7)8-2/h2-4H,1H3,(H2,7,8)/t2-,3+,4-,6-/m1/s1
