25
gdb 101809	4.00072	0.56865	0.55585	2.4126	85.97	-0.2549	0.0622	0.3171	2123.3083	0.226588	-426.633358	-426.6218	-426.620856	-426.670886	42.084	
C	 0.0135349962	 1.5825467824	-0.1271010711	-0.382392
C	 0.0432094553	 0.0499768911	-0.0356041202	 0.040629
C	 0.7605753606	-0.5454272493	-1.2550863207	-0.389241
C	 0.6944884365	-0.4512862651	 1.2661236055	-0.16227
C	-0.0744601031	-0.1149904122	 2.5497125343	-0.225979
C	 0.5917708158	-0.658636115	 3.8132052206	 0.097128
O	 1.9114341518	-0.126859041	 4.0051764095	-0.43913
C	-0.2250119965	-0.4095466237	 5.0837655713	-0.061825
O	 0.4630782082	-0.8695392201	 6.2260085748	-0.425488
H	 1.0302801054	 1.9931182768	-0.0938443518	 0.110147
H	-0.4433374742	 1.9093343136	-1.0669722632	 0.112056
H	-0.55707885	 2.0361919543	 0.6888180374	 0.110629
H	-0.996516583	-0.3096148072	-0.0500729301	 0.069124
H	 1.8085747305	-0.2237795625	-1.2885085535	 0.112569
H	 0.7507062855	-1.6401794568	-1.2298565224	 0.11008
H	 0.286802132	-0.2264307128	-2.1893835253	 0.108857
H	 0.8034070732	-1.5424345871	 1.2065788123	 0.091421
H	 1.7140411722	-0.0525078898	 1.3424890194	 0.100107
H	-0.1906014743	 0.9729428798	 2.6582092204	 0.088858
H	-1.0926029323	-0.5230987176	 2.4897007023	 0.10077
H	 0.7531202696	-1.7392871594	 3.715604579	 0.095911
H	 1.844149193	 0.8351040979	 3.9661948296	 0.280915
H	-0.4535456355	 0.6707688999	 5.1574724236	 0.068292
H	-1.1817054904	-0.9416105148	 5.0346320078	 0.105076
H	 1.3880801234	-0.6349067315	 6.0726824807	 0.283755
39.8057	60.631	96.3515	124.8105	158.3193	223.4232	239.8918	248.2888	263.3163	328.01	355.767	393.8929	399.9298	454.7342	490.2807	524.4517	586.8539	768.32	817.6423	865.9363	917.5862	925.1164	954.2802	965.8702	1008.073	1039.1138	1075.5887	1090.1998	1103.9785	1125.2765	1159.1729	1192.8088	1208.6401	1222.5807	1261.4152	1298.3006	1322.3512	1339.9156	1362.8073	1371.1825	1386.2998	1397.1165	1400.2603	1421.7592	1422.5736	1446.8524	1474.7003	1487.8008	1491.1874	1500.028	1505.3078	1508.749	1512.1655	2924.7014	2990.9789	3004.0406	3016.2798	3022.8425	3027.9561	3034.1564	3046.5197	3060.9621	3069.5061	3087.3973	3093.4385	3098.3438	3103.1217	3759.2911	3781.4653
CC(C)CCC(O)CO	CC(C)CC[C@@H](O)CO	
InChI=1S/C7H16O2/c1-6(2)3-4-7(9)5-8/h6-9H,3-5H2,1-2H3	InChI=1S/C7H16O2/c1-6(2)3-4-7(9)5-8/h6-9H,3-5H2,1-2H3/t7-/m1/s1
