14
gdb 42762	2.72566	1.59012	1.28731	3.8811	67.09	-0.2558	-0.0486	0.2073	971.0302	0.101503	-436.677366	-436.670183	-436.669239	-436.709121	27.051	
O	-0.0013748092	-0.011178237	 0.0263075791	-0.279992
C	-0.0420693768	 1.1719121279	-0.0199807829	 0.429699
C	-1.0652222424	 2.3268926198	 0.0517417471	-0.029995
C	-0.039344	 2.9921297902	 1.0102040778	-0.284543
C	 1.0089398853	 2.3527322912	 0.0259147751	 0.015918
C	 0.6035129313	 3.0531874115	-1.2919080288	-0.112078
O	-0.8419275474	 3.0000136927	-1.1920294779	-0.271422
C	 2.4005201726	 2.1833480255	 0.3298194012	 0.178321
N	 3.5209166829	 2.0362901506	 0.5752383315	-0.328532
H	-2.1256653838	 2.2132739454	 0.2541439095	 0.122529
H	-0.0616150516	 4.0822909525	 1.038421098	 0.139844
H	-0.006215257	 2.5560131364	 2.0093232431	 0.147384
H	 0.9384239744	 4.0939426459	-1.3418427389	 0.132829
H	 0.9469474016	 2.5133131373	-2.1796631337	 0.140037
129.2375	146.2555	179.0079	284.9017	387.5248	448.7285	496.4261	533.2468	565.7833	668.5998	708.38	764.014	830.084	881.5573	912.3431	956.0773	998.6018	1022.1172	1055.8547	1085.1992	1135.5368	1176.0293	1194.3182	1214.347	1255.333	1284.4767	1371.7062	1475.4566	1529.905	1932.5709	2356.1523	3044.1155	3087.45	3094.9406	3162.7545	3185.8415
O=C1C2CC1(CO2)C#N	O=C1[C@H]2C[C@@]1(CO2)C#N	
InChI=1S/C6H5NO2/c7-2-6-1-4(5(6)8)9-3-6/h4H,1,3H2	InChI=1S/C6H5NO2/c7-2-6-1-4(5(6)8)9-3-6/h4H,1,3H2/t4-,6+/m1/s1
