21
gdb 74525	4.09269	1.27122	1.1695	0.5462	89.89	-0.2241	0.02	0.2441	1149.2357	0.184564	-349.896584	-349.889184	-349.88824	-349.927948	31.095	
C	 0.0417798572	 1.5027903822	 0.0059109178	-0.487263
C	-0.0429914432	 0.00872926	 0.000931622	 0.341174
C	-0.0192879573	-0.7972188089	-1.0772897067	-0.358695
C	 0.0096227711	-2.210689835	-0.5971330775	 0.345778
C	-0.5923713341	-3.6438630945	-0.7162166092	-0.302361
C	 0.1032497537	-3.5715851696	 0.7012708377	-0.090793
C	 1.2985287901	-2.9047061514	-0.0124511664	-0.245081
C	-0.5654153089	-2.1585350545	 0.831063159	 0.041394
C	-0.0948393271	-0.7811586028	 1.3289715891	-0.394119
H	 0.9315681253	 1.8475985967	 0.5491238492	 0.124493
H	 0.0861284099	 1.9095352719	-1.0080538696	 0.122616
H	-0.8223083946	 1.9474980002	 0.5163788752	 0.123534
H	 0.0767047687	-0.4546230277	-2.1014919875	 0.088873
H	-1.6834643749	-3.7182458526	-0.7243111119	 0.091736
H	-0.1356597407	-4.3275739546	-1.4373777851	 0.087836
H	 0.1383497991	-4.3756642082	 1.4388580407	 0.066116
H	 1.8680965719	-3.5294498119	-0.7058019411	 0.084722
H	 1.9648165617	-2.2852254778	 0.5909213856	 0.089261
H	-1.6599505132	-2.2031893345	 0.8568792095	 0.06302
H	 0.8965787077	-0.7768908045	 1.7997807085	 0.111085
H	-0.7817029523	-0.3282121825	 2.0524099207	 0.096673
136.3102	185.4082	276.7206	313.8119	369.7282	442.5397	478.3867	498.0138	556.0372	631.0364	743.205	753.4126	782.1807	832.1808	848.1381	877.5796	897.9121	952.1403	959.6082	971.0837	1005.4391	1018.6205	1033.2508	1067.1952	1084.7716	1109.9882	1116.6406	1135.0718	1147.422	1177.861	1182.2044	1205.9295	1225.5078	1240.1902	1242.6219	1297.0762	1332.9278	1407.6194	1412.242	1475.9611	1478.7873	1485.7376	1500.3805	1539.8406	1661.6309	3013.1803	3026.9072	3033.9536	3044.9051	3057.3798	3057.7151	3065.7461	3091.9139	3109.322	3112.5701	3120.5403	3189.8447
CC1=CC23CC(C2)C3C1	CC1=C[C@@]23C[C@@H](C2)[C@H]3C1	
InChI=1S/C9H12/c1-6-2-8-7-4-9(8,3-6)5-7/h3,7-8H,2,4-5H2,1H3	InChI=1S/C9H12/c1-6-2-8-7-4-9(8,3-6)5-7/h3,7-8H,2,4-5H2,1H3/t7-,8-,9+/m1/s1
