18
gdb 63840	2.81746	1.48221	1.21765	1.5146	72.84	-0.2565	0.0218	0.2783	1061.7714	0.146815	-439.070712	-439.062429	-439.061485	-439.103419	32.249	
C	-0.4450553367	 1.5606918757	 0.0368125151	-0.455764
C	-0.0129264076	 0.1060628902	-0.0265535041	 0.405032
O	-1.0477352003	-0.7232272856	-0.5279051453	-0.470393
C	 1.2821639589	-0.2509682741	-0.8192512999	-0.283374
C	 1.887103397	-0.8863674016	 0.4441637962	 0.109124
O	 2.667058746	 0.0744032192	 1.2302284412	-0.273408
C	 1.573088602	 0.367360636	 2.0281557275	 0.431084
N	 1.4738107618	 1.1258404674	 3.0227636837	-0.553667
C	 0.6266642462	-0.5316894673	 1.2739034192	-0.233515
H	 0.3592552076	 2.2057409376	 0.3981605769	 0.137035
H	-0.7505104796	 1.8984512152	-0.9584094805	 0.125885
H	-1.2936356111	 1.6843976704	 0.7205403698	 0.117613
H	-1.8409866718	-0.5556592377	-0.0059835673	 0.278196
H	 1.0636478584	-0.9681430872	-1.612371498	 0.126764
H	 1.8558971871	 0.5861048332	-1.2207773152	 0.115985
H	 2.3779717904	-1.8571374187	 0.4053582522	 0.098402
H	 2.3663964865	 1.5751261741	 3.2361535624	 0.227297
H	 0.0060642752	-1.2285387365	 1.8326057061	 0.097707
76.0437	141.8205	228.7313	255.7664	311.0172	356.5382	374.5212	397.7883	457.6305	462.4738	613.0667	635.852	750.0179	821.7692	849.7644	868.1468	883.7401	887.9716	952.4388	962.6476	990.9464	1003.3855	1015.2275	1097.8038	1118.2047	1152.1954	1163.1842	1190.6823	1208.8736	1262.2052	1275.156	1278.6954	1340.315	1379.1425	1413.8741	1453.3456	1485.7583	1490.1292	1814.3224	3030.5982	3079.6849	3098.4211	3127.8304	3130.1105	3144.0815	3147.602	3471.5553	3793.1411
CC1(O)CC2OC(=N)C12	C[C@@]1(O)C[C@H]2O[C]([NH])[C@@H]12	
InChI=1S/C6H9NO2/c1-6(8)2-3-4(6)5(7)9-3/h3-4,7-8H,2H2,1H3	InChI=1S/C6H9NO2/c1-6(8)2-3-4(6)5(7)9-3/h3-4,7-8H,2H2,1H3/t3-,4+,6-/m1/s1
