21
gdb 71069	3.3306	1.54872	1.2524	0.8414	89.33	-0.2179	0.0016	0.2195	1075.7024	0.184217	-349.901303	-349.89368	-349.892735	-349.932701	31.81	
C	-0.2584168526	 1.4970643018	-0.1511009275	-0.486633
C	 0.0393827767	 0.0236439652	-0.0587728258	 0.324818
C	 0.7789550229	-0.7395447306	-1.2067858362	-0.331969
C	 0.0980259596	-1.9741221441	-0.6415514016	 0.165331
C	 0.7205119215	-2.9997574729	-0.0542258983	-0.132482
C	 0.4010944363	-3.2043126352	 1.4037844966	-0.24101
C	 0.7192247704	-1.7962883141	 2.0242757645	-0.22919
C	-0.1084003105	-0.7129725682	 1.3093308543	-0.052338
C	-0.9219716426	-1.137880024	 0.1201881643	-0.202501
H	 0.6436961542	 2.0976880089	 0.0166105243	 0.119251
H	-0.6514498067	 1.7594939368	-1.1402819744	 0.115467
H	-1.0007013607	 1.8009497925	 0.5945351539	 0.117014
H	 0.379798164	-0.3746327965	-2.1612054214	 0.100084
H	 1.8740058994	-0.7380586552	-1.2442899149	 0.090596
H	 1.6799910184	-3.3498055406	-0.4299520172	 0.085281
H	-0.6518984328	-3.4412704764	 1.5864921073	 0.110961
H	 1.0046857468	-3.9895301562	 1.8661525881	 0.093903
H	 0.4680242761	-1.7830853288	 3.0921158321	 0.091599
H	 1.7974364731	-1.6145601715	 1.9556012827	 0.100972
H	-0.6331594965	-0.0531990335	 1.9989703314	 0.077815
H	-2.0030261368	-1.1743803272	 0.057747908	 0.083031
182.3726	190.1856	240.7402	276.1464	328.4138	393.9083	450.1911	469.5114	536.5937	614.1922	662.9872	715.6562	777.5897	825.6634	854.8902	879.1435	897.8998	906.2796	921.8737	973.771	980.0908	1007.2896	1025.9668	1044.9373	1080.0964	1082.9702	1111.1991	1149.3062	1181.4851	1194.2615	1205.3326	1231.3635	1252.7443	1295.3368	1308.7551	1329.4388	1346.9841	1411.657	1418.5186	1484.3466	1484.684	1492.2087	1494.0193	1500.2764	1690.5175	3016.7183	3020.6681	3025.7821	3049.6249	3065.9796	3071.2383	3078.1814	3092.9344	3100.8935	3115.6424	3144.6175	3177.7338
CC12CC3=CCCC1C23	C[C@@]12C[C]3[CH]CC[C@@H]1[C@@H]23	
InChI=1S/C9H12/c1-9-5-6-3-2-4-7(9)8(6)9/h3,7-8H,2,4-5H2,1H3	InChI=1S/C9H12/c1-9-5-6-3-2-4-7(9)8(6)9/h3,7-8H,2,4-5H2,1H3/t7-,8+,9-/m1/s1
