18
gdb 24170	5.01648	0.96089	0.85153	3.0572	78.89	-0.2013	0.0442	0.2455	1346.2439	0.148959	-401.952994	-401.944984	-401.94404	-401.986937	29.817	
C	 0.024341586	 1.4528953951	 0.3962525271	-0.20177
C	-0.0476142186	-0.0358977117	 0.1423501878	 0.093668
C	-1.2822828151	-0.664899685	-0.3405822689	-0.180003
O	-0.1819797753	-0.4369960335	-1.2224838902	-0.225888
N	 1.352805024	 1.9921509683	 0.1798568247	 0.026225
C	 2.151002028	 2.570596291	 1.139034101	-0.100325
C	 3.3340074743	 2.9453209002	 0.547127249	-0.171783
C	 3.2518820528	 2.5792766539	-0.8250643356	-0.164503
C	 2.0225911455	 1.9950901958	-1.0222125811	-0.098079
H	-0.6982045008	 1.9580584716	-0.2556594301	 0.123275
H	-0.2561579685	 1.6628012382	 1.4330881522	 0.122832
H	 0.6573629458	-0.6376007001	 0.7168586701	 0.10856
H	-1.4848936182	-1.7074074219	-0.101881494	 0.122128
H	-2.1636046926	-0.0513844407	-0.5245594036	 0.117354
H	 1.8002286538	 2.6690566782	 2.1545056341	 0.110536
H	 4.1614238466	 3.4307722092	 1.0414495998	 0.091778
H	 4.0073342134	 2.7276909191	-1.5814800416	 0.092273
H	 1.563588959	 1.5686471922	-1.8993626405	 0.133721
35.1935	76.5391	106.9865	272.5553	303.5588	364.8612	450.2837	622.886	627.5468	685.4248	734.6478	747.0229	798.2042	802.324	852.2913	864.1936	885.0595	948.2796	965.26	989.2658	1080.5448	1088.9653	1099.5372	1115.0892	1125.8957	1157.7491	1166.2911	1237.7846	1291.155	1302.2125	1319.284	1349.0798	1419.4726	1430.6515	1447.7813	1469.3777	1527.9521	1533.2015	1563.1708	3035.9765	3085.0641	3090.809	3115.3189	3172.78	3238.8741	3249.5252	3263.2809	3276.1769
C(C1CO1)N1C=CC=C1	C([C@H]1CO1)n1cccc1	
InChI=1S/C7H9NO/c1-2-4-8(3-1)5-7-6-9-7/h1-4,7H,5-6H2	InChI=1S/C7H9NO/c1-2-4-8(3-1)5-7-6-9-7/h1-4,7H,5-6H2/t7-/m0/s1
