16
gdb 34321	2.34839	1.85391	1.33779	3.3171	75.06	-0.2485	0.0047	0.2532	983.8967	0.124709	-400.685555	-400.678026	-400.677082	-400.717411	29.304	
C	-0.1026415572	-1.2201353608	-0.0595041628	-0.477883
C	-0.1040563022	-0.0180716842	-0.0338356213	 0.336863
C	-0.1367012748	 1.4297082751	-0.0014674332	-0.047695
C	-0.0980691092	 2.00638089	 1.4604577389	-0.147681
O	 1.3320437312	 2.3646654882	 1.2962133411	-0.267633
C	 1.1898567393	 2.1534292286	-0.0426557082	 0.413729
N	 1.618646732	 2.6926113554	-1.094284216	-0.303941
C	 0.5704874837	 2.3330909943	-2.0997355362	-0.158135
C	-0.7426852443	 2.0743388256	-1.2730143832	-0.302746
H	-0.0885860599	-2.2818184255	-0.0840103824	 0.203519
H	-0.6886733619	 2.9119331496	 1.6195159506	 0.133076
H	-0.2284847976	 1.2814416171	 2.2626816743	 0.140525
H	 0.4558268951	 3.1644739719	-2.7988934649	 0.120896
H	 0.8648539304	 1.4480933856	-2.6768136406	 0.123613
H	-1.4699132282	 1.4415001047	-1.7839388762	 0.117247
H	-1.2120585964	 3.0329320745	-1.0300446301	 0.116247
117.2449	141.9837	224.1548	277.471	324.6478	390.0252	503.0737	553.9097	617.2217	646.2681	648.5833	657.7293	702.6938	777.874	848.0008	888.7444	892.4708	938.3733	963.3277	992.0268	1021.0981	1131.0814	1139.3452	1164.7657	1184.1752	1222.6402	1265.7991	1296.4156	1308.8812	1348.9221	1477.3432	1491.7284	1499.7811	1781.1658	2233.6971	3039.0348	3059.49	3071.7117	3105.1634	3130.8499	3161.621	3500.2908
C#CC12COC1=NCC2	C#C[C@@]12CO[C]1[N]CC2	
InChI=1S/C7H7NO/c1-2-7-3-4-8-6(7)9-5-7/h1H,3-5H2	InChI=1S/C7H7NO/c1-2-7-3-4-8-6(7)9-5-7/h1H,3-5H2/t7-/m1/s1
