19
gdb 88870	3.39733	1.20467	1.05695	1.7602	71.14	-0.2564	0.0849	0.3414	1186.8006	0.159291	-460.136981	-460.128383	-460.127438	-460.171113	31.185	
C	 0.1014558575	 1.5609237673	-0.2252556375	-0.433188
C	 0.1316209139	 0.0859704709	 0.0787636255	 0.080162
O	 1.4080869663	-0.5797869252	 0.1279322705	-0.262326
C	 0.6193671451	-0.5445723313	 1.316461278	 0.034514
C	 1.2221283108	 0.1323725438	 2.5323729105	 0.045545
C	 2.3492126208	-0.7461542499	 3.1615322951	-0.124337
O	 3.4285769661	 0.1534302688	 3.3504963231	-0.232526
C	 3.2677174695	 1.1163343823	 2.3425931361	 0.015855
O	 1.8771497971	 1.3657654126	 2.2572979279	-0.245216
H	 0.8393678707	 2.1033381418	 0.361918405	 0.156577
H	 0.2929919951	 1.7226615104	-1.291520255	 0.123329
H	-0.8941802856	 1.9622202957	-0.0047592519	 0.117868
H	-0.6142983116	-0.4947004348	-0.4703762198	 0.088421
H	 0.1683561274	-1.5071310732	 1.5829311838	 0.087009
H	 0.4221531815	 0.3333130756	 3.2555447853	 0.094057
H	 2.0777397102	-1.1691042454	 4.1309496964	 0.118975
H	 2.6296754572	-1.5592927654	 2.4770590662	 0.113636
H	 3.7789310097	 2.0362040625	 2.6381204498	 0.119261
H	 3.6453825784	 0.7467189236	 1.375247731	 0.102383
55.3618	67.2932	169.7244	192.4154	226.5205	262.1369	307.2298	393.6278	496.2738	669.2768	688.647	745.166	782.2574	793.6116	887.0712	950.7725	956.2985	985.3694	1027.2064	1030.083	1066.6277	1109.1416	1115.9904	1126.51	1177.8281	1185.3875	1191.1312	1220.145	1264.6894	1301.7103	1304.2426	1359.2888	1376.138	1395.6766	1416.3148	1434.2803	1472.8365	1501.6418	1510.3601	1513.2683	1540.7095	2973.5057	3006.1299	3030.805	3039.2507	3045.6083	3074.5891	3094.2978	3099.1981	3106.6418	3180.3425
CC1OC1C1COCO1	C[C@H]1O[C@H]1[C@H]1COCO1	
InChI=1S/C6H10O3/c1-4-6(9-4)5-2-7-3-8-5/h4-6H,2-3H2,1H3	InChI=1S/C6H10O3/c1-4-6(9-4)5-2-7-3-8-5/h4-6H,2-3H2,1H3/t4-,5-,6-/m1/s1
