13
gdb 46465	4.2351	1.19784	1.08023	4.2892	65.35	-0.2667	-0.0281	0.2386	1070.9974	0.088121	-456.538413	-456.531048	-456.530104	-456.57038	27.552	
O	-0.0280065415	 0.014994041	 0.3050729509	-0.331958
C	 0.000916417	 1.1789862839	 0.0408712258	 0.491022
O	-1.1209048496	 1.9287937586	-0.1583900524	-0.234908
C	-0.8197640512	 3.2289974817	-0.6846830056	-0.157822
C	 0.6949057857	 3.3746551257	-0.6070735677	 0.24617
O	 1.1528845136	 3.2014611205	 0.7422765753	-0.272163
C	 1.2053786853	 2.0715128533	-0.1377054988	-0.229302
C	 1.3892122827	 4.2923067448	-1.4559581331	 0.187603
C	 1.9278937887	 5.0814434699	-2.1841678465	-0.33377
H	-1.1706896932	 3.2855564489	-1.7194438535	 0.139086
H	-1.3331208535	 3.9796575186	-0.0785906277	 0.147071
H	 2.1805436851	 1.6566075532	-0.3631080344	 0.142273
H	 2.417491581	 5.7756358198	-2.8226437423	 0.206698
108.272	144.2085	186.0807	274.3129	383.8824	424.2264	492.1458	536.805	563.8813	638.6657	669.0871	691.031	728.0973	794.1599	846.9648	889.545	960.2572	1037.1591	1061.2442	1071.0662	1155.9652	1218.755	1237.495	1248.8391	1370.5591	1429.171	1500.3763	1892.257	2248.7705	3060.8179	3116.2607	3202.3577	3497.8944
O=C1OCC2(OC12)C#C	O=C1OC[C@]2(O[C@@H]12)C#C	
InChI=1S/C6H4O3/c1-2-6-3-8-5(7)4(6)9-6/h1,4H,3H2	InChI=1S/C6H4O3/c1-2-6-3-8-5(7)4(6)9-6/h1,4H,3H2/t4-,6+/m0/s1
