21
gdb 97973	7.93918	0.44963	0.44189	1.7503	89.71	-0.2418	0.0578	0.2996	2506.5508	0.180631	-387.048777	-387.038252	-387.037307	-387.086538	36.411	
C	-0.0175747143	 1.5844435285	 0.0321288908	-0.362423
C	-0.0124204713	 0.0447382048	 0.0208870534	-0.313162
C	-1.3525013172	-0.5321136268	 0.0718941168	 0.123622
C	-2.4718793325	-0.9753532001	 0.1193883013	 0.003723
C	-3.810574064	-1.5521887663	 0.1654372069	-0.346834
C	-3.8435637001	-3.0342136807	-0.267902733	-0.206431
C	-5.2421369351	-3.5965264933	-0.2291458933	 0.093662
C	-5.529127445	-4.9687459411	 0.2045497363	-0.181805
O	-5.7869289674	-3.8610272403	 1.0688653324	-0.236961
H	 1.00538161	 1.9708327645	-0.0077779243	 0.112217
H	-0.5685038068	 1.9771214226	-0.8268644297	 0.126316
H	-0.4947651716	 1.9641557956	 0.9396472119	 0.127718
H	 0.5051210746	-0.3114030573	-0.8794210456	 0.124927
H	 0.5771380243	-0.324035918	 0.8703276509	 0.126118
H	-4.2198322906	-1.4775154021	 1.180537798	 0.143698
H	-4.4860294816	-0.9719129295	-0.4781101616	 0.122475
H	-3.4414917656	-3.1272371958	-1.2836952102	 0.110734
H	-3.1962307641	-3.6194543355	 0.392840944	 0.114029
H	-5.9545657696	-3.1255118736	-0.9105484098	 0.090427
H	-6.4112915554	-5.4852653872	-0.1715641671	 0.114126
H	-4.7073456067	-5.6166000084	 0.5077246619	 0.113823
25.1407	51.0697	69.1814	96.3376	152.7127	184.9806	211.9346	269.4242	363.3684	395.8258	446.1608	484.4926	525.181	736.7671	767.373	786.9404	810.6618	875.5303	942.4818	967.033	999.7175	1030.5137	1079.4122	1099.1678	1105.1158	1120.237	1159.6609	1166.666	1171.8266	1221.2622	1280.3695	1287.0601	1297.8537	1316.5969	1352.182	1374.3607	1408.9775	1447.8744	1471.1456	1477.2768	1485.9544	1494.5972	1505.6523	1531.3981	2367.5325	3013.3631	3017.0735	3040.5458	3043.1487	3043.3537	3051.4003	3077.4548	3082.2471	3098.2442	3116.1115	3122.9034	3166.8675
CCC#CCCC1CO1	CCC#CCC[C@H]1CO1	
InChI=1S/C8H12O/c1-2-3-4-5-6-8-7-9-8/h8H,2,5-7H2,1H3	InChI=1S/C8H12O/c1-2-3-4-5-6-8-7-9-8/h8H,2,5-7H2,1H3/t8-/m0/s1
