19
gdb 63857	2.24253	1.62455	1.27524	4.5505	80.17	-0.2574	-0.0011	0.2563	1082.3978	0.158633	-382.046893	-382.038101	-382.037157	-382.07982	33.716	
C	-0.0316518329	 1.5923616815	-0.032868339	-0.456339
C	 0.0164932407	 0.0675035134	 0.0191236235	 0.243619
C	-1.3727658578	-0.5329623978	-0.201986198	-0.450369
C	 1.104753711	-0.6608248705	-0.8282760511	-0.207629
N	 1.6791105597	-1.3766582745	 0.3695813919	-0.149546
C	 2.1882639284	-0.3214878434	 1.2482111598	-0.276895
C	 0.7228493525	-0.5613870354	 1.2459434442	 0.168864
C	 0.0398657306	-1.1084134708	 2.3805628362	 0.214992
N	-0.5429711612	-1.5118465476	 3.2954299019	-0.347701
H	 0.9497221694	 2.0464494303	 0.130040147	 0.116142
H	-0.3937775202	 1.9277802938	-1.0109260689	 0.123578
H	-0.7153121801	 1.9857940708	 0.7270841387	 0.130699
H	-1.7569339736	-0.2396029456	-1.1845353136	 0.119662
H	-1.349002996	-1.6257481861	-0.1566313229	 0.135616
H	-2.0791456713	-0.1812974766	 0.5568665282	 0.13463
H	 0.7003114422	-1.382969117	-1.5392474989	 0.121185
H	 1.8392213386	-0.0261253824	-1.3343989478	 0.109627
H	 2.7439438831	-0.7032639972	 2.0987050162	 0.146383
H	 2.582997017	 0.594276945	 0.8143158026	 0.123482
114.2869	139.5651	193.3614	212.6422	256.8804	289.7535	342.6994	360.8781	436.7871	466.2356	518.3338	576.7356	615.3232	638.5317	776.7081	850.7516	871.1201	897.6094	933.4916	967.023	997.1406	1005.8606	1034.1622	1108.858	1137.4499	1159.5013	1191.3835	1232.0172	1254.0469	1264.2322	1318.2843	1334.7873	1407.3952	1426.0348	1481.9602	1482.7498	1490.9932	1500.9099	1506.8119	1512.8779	2344.151	3030.9277	3035.6805	3051.0647	3097.5499	3105.8316	3106.5414	3111.8549	3112.8676	3121.2564	3207.7297
CC1(C)CN2CC12C#N	CC1(C)CN2C[C@@]12C#N	
InChI=1S/C7H10N2/c1-6(2)4-9-5-7(6,9)3-8/h4-5H2,1-2H3	InChI=1S/C7H10N2/c1-6(2)4-9-5-7(6,9)3-8/h4-5H2,1-2H3/t7-,9?/m0/s1
