17
gdb 113038	3.59554	1.03241	0.86409	2.5211	76.45	-0.2476	-0.0017	0.2459	1319.404	0.134616	-421.782144	-421.773432	-421.772488	-421.816096	32.346	
O	 0.1512083125	 1.3578978375	-0.2099006599	-0.421295
C	 0.1470546065	-0.0517577595	-0.1453165723	-0.055684
C	-1.2299504161	-0.5790682469	 0.2703320492	 0.053339
O	-2.1932946013	-0.0760517095	-0.6730637093	-0.29147
C	-2.9336340782	-1.1528942447	-1.2636253485	-0.096649
C	-2.3216599544	-2.4034024368	-0.6669464424	-0.095068
C	-1.3813719654	-2.0710651536	 0.2070079276	-0.104438
C	-4.3685926945	-1.0303381893	-0.9860958741	 0.33522
C	-5.5479378101	-0.9462026535	-0.7726567149	-0.466151
H	-0.6024898765	 1.5988306584	-0.7622244229	 0.292788
H	 0.4244086447	-0.5080802511	-1.1093859968	 0.085607
H	 0.8991783554	-0.3427503636	 0.5965947721	 0.10473
H	-1.4691128316	-0.1744930858	 1.2659478996	 0.098338
H	-2.7892858727	-1.1174613901	-2.3547407254	 0.116592
H	-2.6611734392	-3.3950617435	-0.9335506746	 0.124162
H	-0.7833508197	-2.7497350517	 0.8018391085	 0.117066
H	-6.5893265794	-0.8649557863	-0.5799970459	 0.202914
57.0921	106.058	118.5958	201.9787	226.348	329.5505	436.7982	456.0611	465.3228	515.7727	554.5018	623.1251	673.379	730.7936	763.2852	811.245	848.1528	921.4127	959.3139	992.0399	999.8298	1042.5005	1075.9502	1087.8714	1101.6946	1135.9851	1220.1465	1269.0926	1301.8014	1335.6408	1349.6397	1369.1705	1392.7052	1433.0931	1498.4044	1691.7921	2235.9448	2972.4414	2978.5449	2992.5498	3069.6961	3212.6882	3239.9639	3501.7616	3789.8961
OCC1OC(C=C1)C#C	OC[C@H]1O[C@@H](C=C1)C#C	
InChI=1S/C7H8O2/c1-2-6-3-4-7(5-8)9-6/h1,3-4,6-8H,5H2	InChI=1S/C7H8O2/c1-2-6-3-4-7(5-8)9-6/h1,3-4,6-8H,5H2/t6-,7+/m1/s1
