18
gdb 38503	3.12329	1.77449	1.59179	1.775	74.07	-0.2414	0.0751	0.3166	911.7278	0.150041	-401.883853	-401.877179	-401.876235	-401.91454	27.947	
C	-0.0015036056	 1.6039014844	 0.0543557241	-0.29372
C	 1.5704213804	 1.5860464787	 0.1612065477	-0.294126
C	 1.516406761	 0.0706620785	-0.1064216922	 0.333031
O	 0.6984923163	-0.5367564376	 0.9014556384	-0.309677
C	 0.0516531111	 0.087698895	-0.2131885767	 0.322719
C	-0.4519060812	-0.871905715	-1.2734827554	-0.321149
C	 0.8643855708	-1.4566192492	-1.8157195452	-0.008575
N	 1.7132165321	-0.4460684272	-2.4846251425	-0.339519
C	 2.0581937474	-0.8846162638	-1.1139016543	-0.177053
H	-0.5620628765	 1.9070015643	 0.9414219555	 0.107536
H	-0.3476811472	 2.1730886859	-0.8110902687	 0.113857
H	 2.0436597983	 2.1356604427	-0.6541116624	 0.120963
H	 2.0120744706	 1.8825729665	 1.1149470345	 0.106793
H	-1.1023354575	-1.6501277038	-0.8618785226	 0.111245
H	-0.9990043497	-0.3458453151	-2.0620544815	 0.114281
H	 0.8843069452	-2.4745927303	-2.1919985183	 0.089586
H	 2.3302294433	-0.908715817	-3.1481368813	 0.233092
H	 2.9572662011	-1.470518797	-0.949584939	 0.090717
159.0929	210.3374	314.0773	375.7541	465.6818	474.2508	515.9202	636.5086	690.1272	748.1832	768.432	793.3322	819.0287	846.9212	887.0887	903.7211	928.4475	946.8314	962.4644	969.8878	1052.1139	1072.1236	1115.0676	1147.2636	1149.7355	1175.7347	1195.6866	1213.1552	1224.8047	1233.3686	1271.2198	1273.9233	1329.845	1370.0487	1401.9252	1434.3309	1460.6988	1472.3203	1485.7626	3049.063	3067.0078	3075.1347	3094.6181	3121.4105	3139.9252	3153.4549	3165.3057	3499.4604
C1CC23OC12CC1NC31	C1C[C@@]23O[C@@]12C[C@H]1N[C@@H]31	
InChI=1S/C7H9NO/c1-2-7-5-4(8-5)3-6(1,7)9-7/h4-5,8H,1-3H2	InChI=1S/C7H9NO/c1-2-7-5-4(8-5)3-6(1,7)9-7/h4-5,8H,1-3H2/t4-,5-,6-,7+/m1/s1
