15
gdb 43073	2.93539	2.1052	1.6029	4.1393	68.38	-0.2238	-0.0144	0.2094	835.0689	0.115368	-416.773051	-416.766877	-416.765933	-416.803455	25.198	
O	-0.0100454598	 0.0146425855	 0.1933696575	-0.305946
C	-0.0665337216	 1.1912416749	 0.029076206	 0.445528
C	-1.1578795345	 2.2786114292	-0.0734165092	-0.179166
N	-1.3689656813	 2.8338398084	 1.313643076	-0.327731
C	-0.2335907359	 3.8309170623	 1.1094138643	-0.076125
C	 1.0385245995	 3.4410709851	 1.8407812996	-0.061324
C	 1.6754327115	 2.4944027838	 1.1475428091	-0.075735
N	 1.0034623446	 2.1788391739	-0.0932458166	-0.162447
C	 0.0035130929	 3.2725094765	-0.3056278031	-0.004789
H	-2.0422520412	 2.1280417482	-0.6914393234	 0.09686
H	-2.2632334277	 3.3129812673	 1.3534838891	 0.228493
H	-0.536359009	 4.8730929168	 1.2204969749	 0.08541
H	 1.3447443122	 3.8317102206	 2.8014989714	 0.11246
H	 2.5660018897	 1.9416187065	 1.4135989041	 0.132281
H	 0.1790198905	 3.8994959909	-1.1778922398	 0.092231
146.396	228.2414	321.5406	416.8771	543.3535	611.6677	656.9988	707.5481	740.774	762.0055	796.2097	832.7683	854.0945	883.7114	917.6148	930.6376	947.1782	957.9122	996.7414	1028.2253	1054.4101	1105.9412	1154.0555	1171.0522	1188.9521	1228.7966	1253.2496	1275.8063	1313.7543	1341.9171	1379.5081	1640.7204	1913.9333	3100.1125	3119.9567	3132.3906	3221.1583	3245.115	3519.16
O=C1C2NC3C=CN1C23	O=C1[C@H]2N[C@H]3C=CN1[C@@H]23	
InChI=1S/C6H6N2O/c9-6-4-5-3(7-4)1-2-8(5)6/h1-5,7H	InChI=1S/C6H6N2O/c9-6-4-5-3(7-4)1-2-8(5)6/h1-5,7H/t3-,4-,5+/m0/s1
