13
gdb 132848	3.14054	1.40838	0.97233	3.8052	65.75	-0.2032	-0.0376	0.1656	1078.1551	0.090487	-494.076837	-494.06945	-494.068506	-494.108852	28.02	
F	 0.1109688793	 0.0407438001	-0.3353774029	-0.061261
C	-0.0506500902	 1.3278706986	-0.0556502346	 0.323305
C	-1.2313984698	 1.9327296549	 0.0786463586	-0.188797
N	-1.2509389877	 3.2924572288	 0.3739548225	-0.364343
C	-0.1294170272	 4.0790811961	 0.5417343063	 0.28388
N	-0.2231372088	 5.3212452675	 0.811550407	-0.523568
C	 1.2058037312	 3.3746756662	 0.3853171061	 0.379441
O	 2.2581664423	 3.9631312784	 0.5107854089	-0.356811
N	 1.1372712863	 2.0284634745	 0.0933800803	-0.429319
H	-2.1711506625	 1.4165002373	-0.0309441994	 0.150997
H	-2.1338405542	 3.7678008762	 0.4792003512	 0.269237
H	 0.721173491	 5.7006979549	 0.8914588113	 0.24198
H	 2.0142042304	 1.5371184366	-0.0153897554	 0.275261
95.107	151.795	306.1214	342.7492	349.1462	390.6796	459.8328	522.0572	523.9812	566.8546	611.1904	623.1948	693.6769	764.2096	791.7732	810.9469	877.1718	1020.1186	1070.8067	1198.5994	1256.4278	1268.3619	1354.9506	1433.6537	1452.3476	1493.3753	1713.2629	1776.3343	1803.1183	3267.8084	3486.161	3607.9295	3635.4258
FC1=CNC(=N)C(=O)N1	FC1=CN[C]([NH])C(=O)N1	
InChI=1S/C4H4FN3O/c5-2-1-7-3(6)4(9)8-2/h1H,(H2,6,7)(H,8,9)	InChI=1S/C4H4FN3O/c5-2-1-7-3(6)4(9)8-2/h1H,(H2,6,7)(H,8,9)
