18
gdb 104753	2.73173	1.16071	0.94086	2.784	72.79	-0.2828	-0.0077	0.2751	1265.6318	0.145553	-439.072401	-439.062655	-439.061711	-439.107495	34.703	
C	 0.0887230408	-0.5696125199	 1.2383882167	-0.398095
C	-0.3237481032	-0.1422689974	-0.1738703009	-0.282022
C	 0.6996200856	-0.3974183131	-1.2731575538	 0.350323
C	 0.6892150437	 0.6078151439	-2.4151365349	-0.124878
O	 0.9999644802	 1.9090616648	-1.9578864448	-0.407517
O	 2.0350287534	-0.7628531701	-0.8708099637	-0.264054
C	 1.262610532	-1.734409781	-1.5786587549	-0.158281
C	 0.8654014949	-2.9320095606	-0.8703594757	 0.312106
N	 0.539027524	-3.9149456345	-0.3568938617	-0.331716
H	 0.225612842	-1.6492930969	 1.3242075516	 0.149765
H	 1.0231734935	-0.0872440578	 1.5352135519	 0.129479
H	-0.6888546937	-0.2749277656	 1.9488456978	 0.117703
H	-1.2624470001	-0.6308767898	-0.4635050853	 0.119877
H	-0.5178775809	 0.9352115404	-0.1813108798	 0.131103
H	 1.3837220669	 0.2792416003	-3.2018651434	 0.09917
H	-0.3146495252	 0.6645154315	-2.8494447557	 0.125011
H	 1.8954577237	 1.8810092798	-1.6017588822	 0.297213
H	 1.6035425524	-1.9376898841	-2.5935123912	 0.134813
57.1967	81.4165	130.7729	148.7509	207.7057	238.6915	264.3485	323.6551	353.5139	426.4621	437.2999	499.7841	575.3689	652.4577	697.7217	780.0631	828.8645	939.7852	958.6771	983.7705	1017.1864	1066.3122	1077.504	1114.2927	1128.5012	1183.8802	1243.2706	1303.0919	1325.4455	1378.6727	1399.718	1417.8664	1420.7649	1451.4084	1485.6539	1490.8285	1497.8487	1509.7922	2358.0744	2999.9139	3035.374	3055.6811	3079.6476	3080.5262	3116.9772	3122.9446	3141.7224	3800.9839
CCC1(CO)OC1C#N	CC[C@@]1(CO)O[C@H]1C#N	
InChI=1S/C6H9NO2/c1-2-6(4-8)5(3-7)9-6/h5,8H,2,4H2,1H3	InChI=1S/C6H9NO2/c1-2-6(4-8)5(3-7)9-6/h5,8H,2,4H2,1H3/t5-,6-/m0/s1
