14
gdb 42458	7.49646	0.65507	0.60692	2.3315	69.64	-0.2807	-0.0145	0.2662	1694.8275	0.097615	-436.68534	-436.675871	-436.674926	-436.721887	31.778	
O	-0.1200498353	-0.2125826647	 0.0024474156	-0.323935
C	-0.0718776414	 0.9846304964	 0.0052217738	 0.475783
C	 1.1726776971	 1.864388825	 0.0005924285	-0.505929
C	 2.4184669035	 1.1180051054	-0.0153287339	 0.328343
C	 3.4601106712	 0.5228789041	-0.028538131	-0.423906
O	-1.1740827772	 1.7790603311	 0.0139130565	-0.238808
C	-2.4122633885	 1.0596211383	 0.0201118052	-0.202679
C	-3.5001347544	 2.034890792	 0.0308233278	 0.269285
N	-4.3838862198	 2.777280348	 0.0393402735	-0.285192
H	 1.0996691711	 2.5335842583	-0.8657741027	 0.173545
H	 1.1145749608	 2.5205966011	 0.8780449245	 0.173627
H	 4.3765784372	-0.0136217733	-0.0403456176	 0.206962
H	-2.4860774921	 0.4187281667	-0.8642717551	 0.176446
H	-2.4738531721	 0.4128420816	 0.9011293549	 0.176458
20.4482	39.8846	91.1551	156.6341	159.9517	278.1078	321.4714	344.2091	375.9799	423.7634	557.6982	576.6422	638.9905	668.4477	728.1515	901.0819	956.186	978.0828	992.927	1016.8889	1054.1193	1178.9614	1221.5061	1248.7668	1351.038	1395.8947	1439.3815	1483.2911	1847.5204	2257.1849	2377.807	3036.1053	3059.2266	3065.2608	3099.3152	3505.9319
O=C(CC#C)OCC#N	O=C(CC#C)OCC#N	
InChI=1S/C6H5NO2/c1-2-3-6(8)9-5-4-7/h1H,3,5H2	InChI=1S/C6H5NO2/c1-2-3-6(8)9-5-4-7/h1H,3,5H2
