16
gdb 68514	2.65514	1.88287	1.45342	2.8263	68.24	-0.2454	-0.0105	0.2349	925.0559	0.124194	-437.832326	-437.825029	-437.824085	-437.863887	28.611	
C	 0.0578608372	 1.5048763685	-0.0354697072	-0.511219
C	-0.0272021044	 0.0124096965	 0.0477349977	 0.302816
O	 0.4020828543	-0.7209648604	-1.1469631863	-0.294955
C	-0.2880342811	-1.8892062843	-0.6271439098	-0.057916
C	 0.4504003666	-2.1795873622	 0.6893041196	-0.069251
N	 1.801002475	-1.5808375015	 0.7305730055	-0.319312
C	 0.6405122361	-0.7870685443	 1.1856309117	-0.123601
C	-1.3389051736	-0.8349993056	-0.141545134	 0.400068
O	-2.5133459936	-0.6633150321	-0.150840433	-0.308257
H	 1.099474009	 1.824103639	-0.1368285726	 0.14502
H	-0.5122743415	 1.8797345498	-0.8891643478	 0.142062
H	-0.3512053052	 1.9517835199	 0.8759610568	 0.133317
H	-0.4781849514	-2.6685769542	-1.3606316047	 0.108393
H	 0.1803281208	-3.0199854311	 1.3161888138	 0.109036
H	 2.2690452232	-1.9420875291	 1.5599409326	 0.23844
H	 0.5277324685	-0.4864881189	 2.2200896576	 0.105358
132.764	170.1704	200.6175	297.1245	302.026	418.7417	534.2278	564.8698	616.75	715.5327	736.5353	752.929	814.1879	839.9549	873.2265	875.6776	895.0222	930.0907	940.6142	1019.6092	1050.3483	1092.1015	1124.5336	1130.9991	1154.1385	1176.0506	1214.6193	1269.5966	1296.807	1338.4346	1396.0203	1419.9332	1476.2857	1489.9736	1920.4393	3044.6713	3115.8098	3126.5207	3163.3773	3189.4062	3200.5652	3493.6479
CC12OC(C3NC13)C2=O	C[C@@]12O[C@@H]([C@H]3N[C@@H]13)C2=O	
InChI=1S/C6H7NO2/c1-6-4-2(7-4)3(9-6)5(6)8/h2-4,7H,1H3	InChI=1S/C6H7NO2/c1-6-4-2(7-4)3(9-6)5(6)8/h2-4,7H,1H3/t2-,3+,4-,6-/m1/s1
