20
gdb 32787	3.09734	0.98191	0.78827	1.6943	82.3	-0.2258	0.0113	0.2371	1498.8036	0.170798	-403.201909	-403.192467	-403.191522	-403.237106	33.762	
C	 0.2001739694	 1.6628354141	-0.1442378572	-0.3819
C	 0.1386191206	 0.1340691639	-0.139428163	-0.152235
C	 0.5288171107	-0.4734214365	 1.2203330383	-0.304724
C	 0.5414878617	-1.968057926	 1.211708008	 0.177784
C	-0.2401229484	-2.8584789392	 1.8785731277	 0.254217
C	-1.3602089845	-2.762905964	 2.8479536131	-0.49657
O	 0.1688699487	-4.1226728112	 1.5166012025	-0.178852
C	 1.1798018263	-3.9149972744	 0.6448848483	 0.059355
N	 1.4521856554	-2.6752144076	 0.4192487284	-0.305543
H	 1.2106989208	 2.0186246857	 0.0857877637	 0.115693
H	-0.080810773	 2.0687710235	-1.12094041	 0.112373
H	-0.4782410292	 2.0924797495	 0.6018708815	 0.109888
H	-0.8722004337	-0.2008485259	-0.4035711437	 0.093032
H	 0.807671179	-0.2727994092	-0.9054518107	 0.121043
H	 1.5283559138	-0.1119838432	 1.4955073295	 0.113979
H	-0.1566712814	-0.1141281276	 1.9970444375	 0.095369
H	-2.2720809976	-3.2283558915	 2.4568505365	 0.141131
H	-1.1171278373	-3.2605172688	 3.793598702	 0.141258
H	-1.5797315287	-1.7148464681	 3.0622949275	 0.140233
H	 1.6529135675	-4.7926179933	 0.2323807502	 0.144471
48.9138	85.6784	114.2756	133.8011	234.4451	239.2115	257.45	317.8004	355.5869	431.5291	645.1377	652.3829	699.8653	747.9814	784.2986	834.8449	872.8958	899.5217	953.4684	968.3417	1044.9073	1049.1026	1066.0124	1112.3265	1129.3154	1174.6494	1217.1061	1270.0923	1286.9014	1320.7694	1328.1211	1363.1069	1388.4034	1411.8613	1421.121	1472.6035	1476.368	1489.8464	1493.3689	1499.1705	1510.0178	1566.17	1676.7284	3018.4532	3027.4091	3031.6884	3033.4657	3055.6471	3075.0109	3081.7771	3098.2539	3102.2989	3130.8953	3271.3836
CCCC1=C(C)OC=N1	CCCc1c(C)ocn1	
InChI=1S/C7H11NO/c1-3-4-7-6(2)9-5-8-7/h5H,3-4H2,1-2H3	InChI=1S/C7H11NO/c1-3-4-7-6(2)9-5-8-7/h5H,3-4H2,1-2H3
