17
gdb 96885	2.46758	1.28983	1.05727	1.4821	71.96	-0.2416	-0.0353	0.2063	1192.4927	0.133757	-455.131353	-455.121708	-455.120763	-455.166857	33.19	
C	 0.1284359549	 1.3600540595	-0.2038696889	-0.340473
N	 0.2936307982	-0.0846091501	-0.1457308277	-0.321362
C	 0.702475407	-0.6114483645	 0.920884087	 0.372342
N	 1.0896208136	-0.1885156625	 2.2047086025	-0.346463
C	 0.9424695214	-1.5429107196	 2.7643534302	-0.115674
C	-0.3073730369	-1.7483690605	 3.5894967506	 0.16883
O	-1.0741271633	-0.8584217256	 3.8570633295	-0.252366
C	 0.8122195691	-2.0859449384	 1.2912158541	 0.01984
O	-0.3213503367	-2.8615456851	 1.00734081	-0.42652
H	 0.4626481855	 1.7199865641	-1.181685229	 0.132866
H	-0.9335893888	 1.6188867717	-0.1112322278	 0.132149
H	 0.6847788649	 1.9080373812	 0.5695389545	 0.109301
H	 0.6371704084	 0.5892564209	 2.671438373	 0.254945
H	 1.8139966834	-1.9032867777	 3.324683686	 0.104054
H	-0.4617921361	-2.7856572357	 3.9515268872	 0.098351
H	 1.7262471553	-2.5806408964	 0.942823154	 0.105926
H	-0.7973095899	-2.4001301212	 0.3048625348	 0.304253
56.8055	60.3454	107.4042	149.6976	179.5989	209.5139	255.5398	296.8126	310.8593	494.437	507.6396	576.3412	681.9881	709.7228	793.5818	815.8338	889.5278	953.3688	1025.2599	1043.8305	1098.3866	1124.1835	1139.0882	1154.4702	1191.618	1204.3189	1269.4341	1311.1793	1355.3419	1368.8194	1388.0871	1413.9068	1441.4842	1486.0919	1506.6584	1821.7661	1829.5901	2924.5483	2997.4891	3033.6768	3045.9654	3062.6364	3091.1612	3559.5773	3774.9774
CN=C1NC(C=O)C1O	CN=C1N[C@@H](C=O)[C@H]1O	
InChI=1S/C5H8N2O2/c1-6-5-4(9)3(2-8)7-5/h2-4,9H,1H3,(H,6,7)	InChI=1S/C5H8N2O2/c1-6-5-4(9)3(2-8)7-5/h2-4,9H,1H3,(H,6,7)/t3-,4+/m0/s1
