15
gdb 25194	2.60385	1.7262	1.03804	6.2032	83.87	-0.2196	-0.0696	0.1501	1076.3548	0.115398	-416.837424	-416.830017	-416.829072	-416.870254	28.045	
N	-0.0240202774	 1.129846422	-0.8591996171	-0.448548
C	-0.0336366384	 0.1295667916	-0.0704548468	 0.239505
N	 1.1583511423	-0.4575396582	 0.392294103	-0.378889
C	 1.4709257598	-1.5034065187	 1.2163037304	 0.012595
C	 0.6545986917	-2.350588754	 1.8832267773	-0.125434
C	-0.7720683703	-2.3465847358	 1.8797598245	-0.075749
C	-1.6378090843	-1.527083371	 1.2347425257	-0.177013
C	-1.4213434995	-0.3927917658	 0.341861887	 0.338392
O	-2.3789142406	 0.1952140875	-0.1203462362	-0.296396
H	 0.9257595076	 1.4280270987	-1.0946790727	 0.20573
H	 1.9685292206	 0.0167915858	 0.0189134531	 0.251207
H	 2.5439877484	-1.6294496349	 1.3159516421	 0.127559
H	 1.1469904712	-3.1086372575	 2.480372209	 0.102671
H	-1.2276244624	-3.1228234257	 2.4906537966	 0.11064
H	-2.7002484285	-1.702338214	 1.372708354	 0.113731
36.1641	98.3727	339.2357	354.7833	374.537	404.4801	445.4012	529.6666	583.0435	627.7804	644.2266	744.7049	768.1123	788.9125	872.9695	888.9623	896.8242	951.767	972.3862	1016.362	1032.8628	1166.1555	1206.8373	1264.5841	1307.272	1394.5378	1429.1367	1487.6819	1521.8549	1620.4969	1692.6165	1697.8541	1741.867	3150.884	3182.401	3185.0186	3206.0317	3436.3002	3590.5665
N=C1NC=CC=CC1=O	[NH][C]1NC=CC=CC1=O	
InChI=1S/C6H6N2O/c7-6-5(9)3-1-2-4-8-6/h1-4H,(H2,7,8,9)	InChI=1S/C6H6N2O/c7-6-5(9)3-1-2-4-8-6/h1-4H,(H2,7,8,9)
