20
gdb 110262	2.03694	1.59841	1.03831	2.4793	76.54	-0.2166	0.0659	0.2824	1204.6754	0.16987	-440.196549	-440.187677	-440.186733	-440.230028	34.421	
C	-0.1403540584	 1.5586649941	 0.1596126336	-0.373023
C	-0.0667883167	 0.0416180018	-0.0093233362	-0.133956
N	 0.671531214	-0.5450493517	 1.114419259	-0.150132
C	 2.1927192808	-0.6242787032	 1.1267715614	-0.142098
C	 1.9843669248	-1.6179827698	 2.3206927113	 0.195771
O	 1.4657541355	-1.1286178831	 3.503731131	-0.445068
C	 0.9882283639	-2.0304564522	 1.1789065211	-0.110044
C	 2.1817317823	-1.8888272589	 0.2085592833	 0.144391
O	 1.8842124585	-1.8086572957	-1.1595445434	-0.427304
H	 0.8561754007	 2.0110978037	 0.1071055523	 0.111501
H	-0.7488743549	 2.0048782267	-0.6331583213	 0.111528
H	-0.5778214642	 1.8225440062	 1.1270402338	 0.117154
H	-1.0791252088	-0.379879465	 0.0365282739	 0.097721
H	 0.3455963995	-0.2142403526	-0.9893113747	 0.113114
H	 2.8237138896	 0.2653561288	 1.0844614984	 0.081488
H	 2.7983364811	-2.3086165086	 2.5433419665	 0.08677
H	 0.7571962754	-0.5323467482	 3.2038565357	 0.277244
H	 0.2035343116	-2.7885823067	 1.1931529044	 0.085558
H	 3.0106676331	-2.5912777132	 0.3870956958	 0.07133
H	 2.6916361422	-1.5740353524	-1.6279602159	 0.288056
62.1158	162.9706	205.6893	243.5745	257.4651	267.4717	290.7069	397.5106	408.3594	463.6049	533.0119	655.0987	677.3025	710.3624	766.8162	810.2823	840.8165	847.3538	902.2156	923.0532	975.3438	1057.8512	1073.7766	1091.3979	1119.9034	1128.6169	1137.9793	1159.3213	1185.949	1200.3957	1216.0098	1221.2526	1281.6137	1301.0752	1315.5036	1323.1233	1381.0132	1407.2506	1446.2922	1479.8775	1490.0416	1498.2924	1514.5344	2975.2819	3027.1691	3034.3455	3081.4751	3099.0239	3103.0825	3107.4682	3116.5163	3121.4286	3649.3881	3817.0061
CCN1C2C(O)C1C2O	CCN1[C@H]2[C@@H](O)[C@@H]1[C@H]2O	
InChI=1S/C6H11NO2/c1-2-7-3-5(8)4(7)6(3)9/h3-6,8-9H,2H2,1H3	InChI=1S/C6H11NO2/c1-2-7-3-5(8)4(7)6(3)9/h3-6,8-9H,2H2,1H3/t3-,4+,5+,6-
