15
gdb 22798	2.60018	1.53386	0.9705	4.2345	76.14	-0.2382	-0.0528	0.1854	1137.3673	0.114005	-453.945884	-453.938045	-453.937101	-453.978601	29.286	
O	-0.0951438626	 1.3308074032	 0.2594715164	-0.378575
N	 0.0239410486	-0.0477340118	 0.1673239471	-0.160933
C	-1.1086157839	-0.62301838	-0.045982603	 0.202041
C	-2.3940725223	 0.0479143811	-0.1829769936	-0.114712
C	-3.5177018613	-0.6400272307	-0.404125606	-0.083288
C	-3.5559956524	-2.1264503128	-0.527926808	-0.203375
N	-2.2498204282	-2.7326411539	-0.3829646335	-0.352728
C	-1.0410374774	-2.1242093922	-0.155366695	 0.380582
O	-0.0158607413	-2.7661192109	-0.0545034483	-0.358168
H	 0.8154240099	 1.6044048942	 0.4160432743	 0.317483
H	-2.4046615403	 1.1268915581	-0.098636064	 0.127534
H	-4.4712329738	-0.1310811911	-0.504805706	 0.113218
H	-4.2493008959	-2.5327974025	 0.2267347971	 0.130021
H	-3.9935365775	-2.3954772369	-1.5033438073	 0.130018
H	-2.1810851317	-3.737453454	-0.4528771301	 0.250881
73.7701	122.8444	233.7651	238.5708	323.6626	372.0506	452.6524	496.4902	542.2743	547.4247	591.0971	601.1892	738.0776	771.0421	830.7986	873.7812	927.0969	1006.9092	1009.4757	1019.0614	1102.2521	1174.754	1238.291	1248.9541	1339.3771	1380.756	1405.3663	1436.1118	1479.462	1515.0251	1665.509	1708.855	1798.8322	2967.7917	2976.3387	3180.7827	3223.6426	3614.2865	3813.8349
ON=C1C=CCNC1=O	ON=C1C=CCNC1=O	
InChI=1S/C5H6N2O2/c8-5-4(7-9)2-1-3-6-5/h1-2,9H,3H2,(H,6,8)	InChI=1S/C5H6N2O2/c8-5-4(7-9)2-1-3-6-5/h1-2,9H,3H2,(H,6,8)
