21
gdb 106558	1.96537	1.575	1.16482	1.4853	79.06	-0.2343	0.0672	0.3015	1195.6743	0.180366	-424.168153	-424.158607	-424.157663	-424.20219	36.142	
C	 0.0927229426	 1.5199418276	 0.028635263	-0.38241
C	 0.0192349464	-0.0071556167	-0.0822149102	-0.32811
C	 0.6415116226	-0.5367190171	-1.3397530619	 0.393389
O	 2.0663004401	-0.192781212	-1.6303493367	-0.349527
C	 1.6447814205	-1.0508375628	-2.7557565768	-0.02187
C	 0.942928604	-2.0123574545	-1.7646381992	-0.021114
C	 1.7909103891	-2.8790139103	-0.8531136886	-0.435519
C	 0.3520078305	-0.1830522064	-2.8210284062	 0.081931
O	-0.8438057225	-0.6724296667	-3.3633891564	-0.432708
H	 1.1299948966	 1.8607741755	-0.0289044601	 0.137906
H	-0.4644709899	 2.0025207457	-0.7805864587	 0.119848
H	-0.3304226567	 1.8620031958	 0.9774371364	 0.111784
H	 0.5189356011	-0.4732434611	 0.7758508833	 0.111089
H	-1.0244523035	-0.3449643926	-0.0599174857	 0.11475
H	 2.3894603505	-1.2606514788	-3.5252829929	 0.08248
H	 0.0819836276	-2.5405487832	-2.1809541458	 0.086317
H	 2.6393944861	-2.3136536279	-0.4612825673	 0.13324
H	 1.2017845856	-3.2538202251	-0.0087984847	 0.113348
H	 2.1748094474	-3.751277772	-1.3933698436	 0.112153
H	 0.5508404509	 0.8647972698	-3.0699120843	 0.082595
H	-0.8558072492	-0.4717493172	-4.3042614737	 0.290428
72.7181	149.0124	177.3916	212.9989	217.5874	239.6132	255.9434	264.269	352.5588	426.2462	449.7287	599.2404	627.8474	670.8855	726.4318	783.8025	810.629	838.1039	898.7841	940.9687	953.3013	995.0021	1034.7276	1073.5664	1086.9107	1125.8602	1133.4653	1144.9469	1170.1324	1200.5755	1217.203	1236.5419	1272.2623	1294.1169	1317.0166	1374.3935	1390.3394	1407.1526	1409.1958	1446.3582	1470.7884	1494.1445	1497.3086	1505.8751	1507.8907	3028.5388	3033.8679	3042.337	3058.4917	3064.0389	3088.7289	3089.3716	3106.0938	3110.0569	3122.7963	3129.7112	3823.8664
CCC12OC(C1C)C2O	CC[C@@]12O[C@@H]([C@H]1C)[C@H]2O	
InChI=1S/C7H12O2/c1-3-7-4(2)5(9-7)6(7)8/h4-6,8H,3H2,1-2H3	InChI=1S/C7H12O2/c1-3-7-4(2)5(9-7)6(7)8/h4-6,8H,3H2,1-2H3/t4-,5+,6-,7-/m1/s1
