19
gdb 47823	2.39075	1.7168	1.15184	4.4224	75.94	-0.2548	0.0043	0.2591	1087.1208	0.161548	-423.052281	-423.044459	-423.043515	-423.085104	30.285	
O	-0.1408070503	 0.4234892937	 1.193144993	-0.317622
C	-0.1273064159	 1.29317281	 0.3634556165	 0.380367
O	-1.3106737334	 1.8629786461	-0.018813541	-0.239977
C	-1.6473374593	 2.0396281771	-1.4003238554	-0.073495
C	-1.0061259886	 3.2463396545	-2.075073793	-0.21758
C	 0.4530160889	 3.0253797078	-2.4770387337	-0.228455
C	 1.4298986493	 2.7273926267	-1.3572248248	-0.023317
C	 1.3829644806	 3.3745717861	-0.0114781385	-0.291618
C	 1.1586097583	 1.8655271362	-0.1326144893	-0.126169
H	-1.417637004	 1.1197947836	-1.9550080685	 0.109979
H	-2.7343568922	 2.1532752911	-1.3889982775	 0.123628
H	-1.5844459405	 3.4662194968	-2.9808120626	 0.105798
H	-1.1147827163	 4.119586267	-1.4216819536	 0.11499
H	 0.4930393296	 2.198755301	-3.1995657041	 0.10502
H	 0.8154265065	 3.9124399486	-3.0119013849	 0.106539
H	 2.4358851119	 2.560177708	-1.7350644129	 0.098317
H	 2.3019349096	 3.7074203418	 0.4568291137	 0.124189
H	 0.5085584155	 3.9616323149	 0.2450611147	 0.133311
H	 1.9829084101	 1.2411540689	 0.1907709019	 0.116094
44.6988	156.2804	220.8057	276.5065	322.2468	351.8092	416.4304	477.868	550.1355	644.1591	686.7517	729.1747	784.5321	845.0222	886.894	896.0299	930.5512	951.8492	967.9845	1015.094	1071.8827	1076.9908	1094.5514	1128.2	1147.0881	1154.822	1215.5129	1225.0242	1260.8003	1289.388	1321.7643	1376.1535	1387.9361	1393.6989	1417.9917	1427.9865	1478.5677	1484.8735	1499.7423	1503.8274	1820.8966	3011.7995	3018.1631	3032.9061	3048.4306	3076.9973	3096.2353	3131.7076	3144.9003	3185.234	3232.3974
O=C1OCCCC2CC12	O=C1OCCC[C@H]2C[C@@H]12	
InChI=1S/C7H10O2/c8-7-6-4-5(6)2-1-3-9-7/h5-6H,1-4H2	InChI=1S/C7H10O2/c8-7-6-4-5(6)2-1-3-9-7/h5-6H,1-4H2/t5-,6+/m0/s1
