21
gdb 103793	3.33894	0.92454	0.86864	3.7596	80.87	-0.2407	-0.0114	0.2293	1433.9563	0.179488	-424.237415	-424.226898	-424.225954	-424.273021	38.034	
C	-0.1369917136	 1.4617180052	 0.1628443259	-0.482966
C	 0.0383936122	-0.0208749254	-0.1165020601	 0.388652
O	 1.12163024	-0.4882996954	-0.4052101465	-0.325159
C	-1.1983793791	-0.8502180095	-0.0156885174	-0.183315
C	-1.2489068332	-2.1951431602	-0.7207571081	-0.311281
C	-1.2043247378	-2.175749844	 0.7711531736	 0.350271
C	 0.0356028465	-2.6541146712	 1.4994179322	-0.475728
C	-2.5021061611	-2.4586845476	 1.5006917428	-0.133634
O	-2.6457628353	-3.8679102828	 1.6156637588	-0.418597
H	 0.8244628695	 1.9707747201	 0.0891238346	 0.139938
H	-0.8418522779	 1.9001300213	-0.5532291771	 0.138852
H	-0.5638762414	 1.6139540966	 1.1608622885	 0.13685
H	-2.1218778286	-0.2813336408	 0.0365692944	 0.078591
H	-2.1748111361	-2.4659381564	-1.2162839395	 0.115549
H	-0.339947686	-2.4702993935	-1.2444189063	 0.136548
H	 0.9415406484	-2.4246147806	 0.938605247	 0.151974
H	 0.1145958915	-2.1844869306	 2.4874324007	 0.103912
H	-0.0314186092	-3.7349589141	 1.6494466417	 0.134309
H	-2.4747920225	-1.9828580009	 2.4944578797	 0.08678
H	-3.3472956728	-2.0204032663	 0.9460547974	 0.079991
H	-3.3760175035	-4.0479260338	 2.2147186177	 0.288465
64.3057	88.686	134.07	144.0576	174.266	223.9452	233.2586	271.6903	311.9872	332.8222	376.8155	406.6878	495.225	598.9476	634.6889	714.4865	781.2441	851.4004	936.4796	949.9945	951.5273	982.2907	993.8294	1046.7271	1073.8117	1077.2343	1093.4211	1114.8127	1126.9381	1194.5771	1236.738	1250.3876	1288.9857	1359.3463	1376.7375	1414.4762	1420.6799	1461.884	1464.2364	1474.5109	1476.6361	1497.8638	1509.2109	1519.2518	1786.3095	2960.0942	2992.0912	3032.9665	3034.1284	3092.731	3103.9732	3134.2894	3150.3887	3153.8875	3154.5281	3227.3555	3832.2982
CC(=O)C1CC1(C)CO	CC(=O)[C@H]1C[C@]1(C)CO	
InChI=1S/C7H12O2/c1-5(9)6-3-7(6,2)4-8/h6,8H,3-4H2,1-2H3	InChI=1S/C7H12O2/c1-5(9)6-3-7(6,2)4-8/h6,8H,3-4H2,1-2H3/t6-,7-/m1/s1
