18
gdb 48168	3.9337	0.72305	0.63653	1.4059	74.16	-0.24	-0.0956	0.1443	1708.129	0.144689	-439.067453	-439.057897	-439.056953	-439.103842	32.916	
O	-0.8297795141	 1.582817361	 0.5209133106	-0.216427
C	 0.1265219071	 1.0846632307	-0.0108587041	 0.093998
C	 1.4141420795	 1.8542724699	-0.3442223345	 0.284612
O	 2.3219337469	 1.2373472519	-0.8545982728	-0.278827
C	 1.44436223	 3.3222890674	-0.0091383372	-0.304597
C	 2.7798137954	 3.9874765044	-0.3289730927	-0.149481
N	 2.7008618279	 5.4177758326	-0.0621543936	-0.064331
C	 3.0656211135	 5.8456659841	 1.2863016263	-0.222718
C	 3.9709349029	 6.1059567524	 0.1333197964	-0.220265
H	 0.178165281	 0.0163357908	-0.3107393744	 0.10793
H	 0.6270974875	 3.8167693143	-0.5505266226	 0.152703
H	 1.177746581	 3.4374738252	 1.0497550201	 0.141582
H	 3.5869872548	 3.4946739354	 0.2409026253	 0.093327
H	 3.0151131696	 3.846841994	-1.3890491603	 0.120595
H	 2.4641276117	 6.6442506297	 1.7103482416	 0.12017
H	 3.3783919643	 5.0821321482	 1.9978133069	 0.109067
H	 4.8850003696	 5.5166299504	 0.0776941822	 0.11286
H	 4.0420571414	 7.0987158476	-0.3014255871	 0.119803
30.2106	64.5676	96.8737	124.3235	135.3463	214.9616	265.8693	375.2111	439.4656	464.2067	509.253	637.1531	756.0445	765.0537	819.7605	855.8757	910.7504	950.764	1019.0507	1034.6671	1077.2876	1091.3457	1113.7774	1119.3045	1150.4961	1165.8547	1183.3731	1228.0906	1304.7072	1324.776	1335.963	1363.8306	1410.863	1437.8402	1487.7376	1496.7935	1521.5903	1799.1881	1826.1983	2921.8072	2951.8117	3035.1108	3057.9321	3076.9744	3091.4794	3097.7619	3177.9369	3192.0585
O=CC(=O)CCN1CC1	O=CC(=O)CCN1CC1	
InChI=1S/C6H9NO2/c8-5-6(9)1-2-7-3-4-7/h5H,1-4H2	InChI=1S/C6H9NO2/c8-5-6(9)1-2-7-3-4-7/h5H,1-4H2
