20
gdb 6505	2.84912	1.78501	1.36141	0.8193	82.19	-0.2352	0.056	0.2913	1009.4639	0.173766	-311.836502	-311.826969	-311.826025	-311.869636	36.151	
C	-0.0564021116	 1.5272534351	-0.0260451406	-0.452975
C	-0.0031521853	 0.0096934224	-0.0072915617	 0.304593
C	-1.2478348174	-0.6296721567	-0.5954599291	-0.452865
C	 1.3168614725	-0.6775531608	-0.2351119341	-0.356438
C	 0.6995555841	-0.7055140226	 1.1624595572	 0.105663
C	 1.3705766464	 0.0837483898	 2.2819816654	-0.459745
C	 0.1477073039	-1.95508616	 1.6204463644	 0.29415
C	-0.2962415035	-2.9870204559	 2.0532502928	-0.474468
H	 0.8699268596	 1.9927885305	 0.3158829198	 0.115237
H	-0.2388294713	 1.8786540245	-1.0483324341	 0.118124
H	-0.8740894293	 1.9020555215	 0.6004140531	 0.118903
H	-1.3727987542	-0.322433768	-1.6403087162	 0.110114
H	-1.2017732485	-1.7196942558	-0.5619349038	 0.129699
H	-2.1445554314	-0.3183826877	-0.0472956444	 0.116145
H	 1.3279298847	-1.6041020151	-0.7984129551	 0.117735
H	 2.2050375535	-0.0653427833	-0.358254015	 0.108576
H	 1.8690333149	 0.9802414014	 1.908192117	 0.11457
H	 0.6417972403	 0.3874264435	 3.0403523123	 0.125945
H	 2.1252832054	-0.5364363967	 2.7752331815	 0.128649
H	-0.6902007927	-3.9006794863	 2.4232928304	 0.18839
123.0201	154.2408	172.6599	177.7122	197.0917	251.2069	297.0789	365.9326	373.0356	391.4034	437.7117	546.8251	558.8681	581.8748	640.3337	645.8012	704.3048	854.5681	913.8135	938.5165	952.0436	975.6497	1029.4042	1039.1137	1064.6825	1104.8652	1148.0933	1188.4253	1233.5538	1309.9741	1371.6623	1408.5558	1414.9802	1427.2443	1477.8609	1484.0058	1487.6835	1490.4305	1497.5528	1505.3126	1516.9089	2226.4293	3025.9146	3030.536	3041.9362	3081.7594	3085.4706	3103.5259	3118.4644	3124.2877	3129.7889	3133.7252	3214.9842	3503.4213
CC1(C)CC1(C)C#C	CC1(C)C[C@]1(C)C#C	
InChI=1S/C8H12/c1-5-8(4)6-7(8,2)3/h1H,6H2,2-4H3	InChI=1S/C8H12/c1-5-8(4)6-7(8,2)3/h1H,6H2,2-4H3/t8-/m0/s1
