15
gdb 25253	3.17898	1.68294	1.11003	3.5475	76.48	-0.198	-0.0245	0.1736	1016.4045	0.116415	-416.863934	-416.857097	-416.856153	-416.895068	27.071	
O	-0.0543906679	-0.0515777172	-0.0091074411	-0.38
C	 0.0033136362	 1.162869649	-0.0052474068	 0.275019
C	-1.2301885088	 2.1206515458	 0.0179943695	-0.283611
N	-0.7098430328	 3.4955875797	-0.1317514787	-0.423181
C	 0.6741450697	 3.3949591041	-0.0360102411	 0.328649
C	 1.1096512368	 2.0781367779	-0.0261375735	 0.193792
N	 2.4879126949	 2.0872549292	-0.0106564478	-0.390561
C	 2.9029950866	 3.3866289614	 0.0063900406	-0.039511
C	 1.8063464477	 4.2404072409	-0.0091823695	-0.306386
H	-1.9158531245	 1.8610980653	-0.7945193801	 0.138809
H	-1.7637324965	 1.9867943345	 0.9662252225	 0.132639
H	-1.1559574452	 4.2003309364	 0.4385369317	 0.240829
H	 3.0819425647	 1.2768610125	-0.0174912416	 0.277364
H	 3.9551231771	 3.6279270962	 0.0237383607	 0.131891
H	 1.8473215922	 5.3179153043	-0.0046991647	 0.104258
141.1895	189.5026	292.945	308.5256	445.2929	532.9526	543.5742	559.397	608.684	638.8725	660.3589	728.6512	755.1527	775.6175	831.2321	927.9905	963.6373	1037.659	1042.1575	1083.6318	1091.6635	1165.4824	1186.7471	1274.6171	1289.0026	1346.1505	1405.2678	1458.5628	1470.6669	1486.7075	1565.7852	1587.5917	1789.1247	3043.0836	3089.7425	3247.8005	3265.6207	3582.0949	3687.4391
O=C1CNC2=C1NC=C2	O=C1CNc2c1[nH]cc2	
InChI=1S/C6H6N2O/c9-5-3-8-4-1-2-7-6(4)5/h1-2,7-8H,3H2	InChI=1S/C6H6N2O/c9-5-3-8-4-1-2-7-6(4)5/h1-2,7-8H,3H2
