17
gdb 37211	3.20243	2.01081	1.66683	1.6117	75.89	-0.2312	-0.0207	0.2105	848.5846	0.138322	-384.604336	-384.598289	-384.597345	-384.634375	25.955	
C	 0.0608164983	 1.5463549416	 0.2017024424	-0.268846
C	 1.5325789885	 1.8232733691	-0.0088527817	-0.050927
C	 2.159872929	 0.7847020463	-0.5859498361	 0.032032
C	 3.2543399228	 0.1012356919	 0.2105664877	-0.050244
O	 2.9515718985	 0.1814414947	 1.631756944	-0.251978
C	 2.4665317262	-0.941646801	 0.8957894198	 0.063176
C	 1.0573961828	-1.0274551458	 0.2707893897	-0.080495
C	-0.0073885867	 0.0551647496	-0.1296596582	-0.057231
C	 1.1404468466	-0.2682724619	-1.0281686817	-0.126166
H	-0.1993747028	 1.7914486278	 1.2389679943	 0.121505
H	-0.6342516734	 2.1067162627	-0.439966717	 0.110252
H	 2.0486089023	 2.5701126748	 0.5848053718	 0.110065
H	 4.3052697754	 0.0146405945	-0.0430968755	 0.101734
H	 2.895452221	-1.894890051	 1.1991957277	 0.09663
H	 0.6283447399	-2.0255341266	 0.2961169906	 0.083123
H	-0.9858817791	-0.3800370208	-0.3182994284	 0.083005
H	 1.0916526106	-0.6900963458	-2.0260397896	 0.084366
192.9924	265.1933	359.5127	481.155	551.2614	598.0344	663.298	699.35	749.3478	772.9091	807.8074	813.5866	850.4992	860.5887	877.3989	930.1488	943.8911	976.2479	996.0052	1020.2795	1030.1381	1047.6252	1085.8928	1096.592	1107.6698	1143.3833	1198.6074	1246.7401	1256.3393	1289.1201	1299.767	1315.5884	1334.7094	1362.9328	1402.9228	1467.5054	1626.0804	3005.0849	3050.2342	3125.0113	3137.82	3147.6342	3165.8169	3172.5332	3190.9338
C1C=C2C3OC3C3C1C23	C1[CH][C]2[C@H]3O[C@H]3[C@H]3[C@@H]1[C@@H]23	
InChI=1S/C8H8O/c1-2-4-5-3(1)6(5)8-7(4)9-8/h2-3,5-8H,1H2	InChI=1S/C8H8O/c1-2-4-5-3(1)6(5)8-7(4)9-8/h2-3,5-8H,1H2/t3-,5-,6-,7+,8-/m0/s1
