18
gdb 95489	2.25091	1.72892	1.03137	3.2493	78.45	-0.246	-0.0325	0.2135	1151.3669	0.1483	-439.102161	-439.093931	-439.092986	-439.135094	31.214	
C	-0.4019271171	 1.3179156449	-0.0446113951	-0.401536
C	 0.0432760344	-0.1282486019	-0.129143955	 0.194029
O	 1.1069647781	-0.2202764732	-1.0311954196	-0.237357
C	 1.1975456629	-1.4503949449	-1.7184519447	-0.143984
C	 1.2191086629	-2.6764189499	-0.8619311892	-0.092386
C	 1.0441550793	-2.7949321908	 0.4574600343	-0.083863
C	 0.790764862	-1.7807228268	 1.49527716	 0.352761
N	 0.9123139668	-2.1347385376	 2.7132381394	-0.51033
O	 0.4473933731	-0.4960531348	 1.1877140569	-0.255703
H	 0.4475021726	 1.9405531846	 0.2468161265	 0.142724
H	-0.7677342615	 1.6499724363	-1.0187120199	 0.125561
H	-1.1956750616	 1.4279982936	 0.6971088191	 0.13032
H	-0.7794543919	-0.7872737538	-0.4451412894	 0.082144
H	 0.3750914394	-1.5442757583	-2.4511584106	 0.110999
H	 2.1231223359	-1.3973698249	-2.3045211993	 0.134378
H	 1.4009300182	-3.590268985	-1.4255175189	 0.108475
H	 1.1228953493	-3.7812353784	 0.9014320597	 0.124091
H	 0.7102666873	-1.3396087689	 3.3229719358	 0.219678
83.7305	119.3865	210.5902	221.0816	304.8649	339.1897	374.9584	407.6035	443.7848	566.1392	614.3403	655.0689	761.0959	810.9776	854.967	861.7914	909.5338	914.1587	971.3924	1020.4086	1038.0065	1066.0614	1116.3864	1142.4525	1159.5157	1182.7758	1247.4859	1283.0648	1353.0947	1379.644	1403.7399	1413.1822	1426.1765	1430.5824	1479.2442	1484.502	1490.0991	1683.2107	1732.8179	2941.628	2994.0517	3052.1597	3059.1079	3140.9198	3142.9922	3143.895	3197.6324	3466.6234
CC1OCC=CC(=N)O1	C[C@H]1OC[CH]C=C([NH])O1	
InChI=1S/C6H9NO2/c1-5-8-4-2-3-6(7)9-5/h2-3,5,7H,4H2,1H3	InChI=1S/C6H9NO2/c1-5-8-4-2-3-6(7)9-5/h2-3,5,7H,4H2,1H3/t5-/m0/s1
