19
gdb 45365	2.65053	1.64326	1.48682	1.9784	73.39	-0.2398	-0.0162	0.2236	978.9964	0.162285	-423.07249	-423.06525	-423.064306	-423.10444	28.898	
O	 0.0011220189	-0.0824564246	-0.1305587614	-0.310634
C	-0.0133874844	 1.121845402	-0.0311224104	 0.379924
C	-1.3048393738	 1.9285822971	 0.0653898104	-0.306879
C	-1.1506750531	 3.0746038764	 1.0880892462	 0.07672
C	-0.7760032829	 2.562740261	 2.4984442322	-0.232143
C	 0.7785725883	 2.5831372362	 2.4775922376	-0.232152
C	 1.1017326465	 3.1042213665	 1.057895975	 0.076724
C	 1.2585197123	 1.9623075757	 0.0310083131	-0.306879
O	-0.039923242	 3.8842993301	 0.6999822425	-0.256499
H	-1.5034490281	 2.3742041956	-0.917664337	 0.126547
H	-2.1312656362	 1.2553649649	 0.3086398715	 0.118139
H	-2.0375877081	 3.7121118656	 1.0838044232	 0.085055
H	-1.1643363941	 3.2377388662	 3.2640498641	 0.110696
H	-1.1839314494	 1.5684046489	 2.6959567347	 0.115471
H	 1.1694647865	 3.2683078927	 3.2327882422	 0.110696
H	 1.2175866813	 1.5998991209	 2.6636826394	 0.115474
H	 1.9711418368	 3.7648293236	 1.0300899973	 0.085055
H	 2.1085957482	 1.3111474396	 0.2517651654	 0.118139
H	 1.4189038234	 2.4126679117	-0.9568540259	 0.126547
84.9401	98.1848	319.063	355.8263	379.7827	455.883	491.6026	504.8116	637.3764	738.7198	754.099	799.4038	819.9877	837.4677	849.3423	890.3535	920.4956	968.1908	981.8581	1014.7052	1036.0669	1072.0528	1075.0684	1159.588	1167.0054	1207.8072	1218.2308	1245.2367	1256.8428	1281.7725	1301.9688	1314.3618	1330.7128	1362.266	1373.97	1387.4329	1447.4784	1458.3011	1487.4376	1509.1917	1818.1667	3032.956	3037.021	3064.927	3072.8018	3084.557	3090.3676	3102.8088	3105.3981	3106.6039	3124.2339
O=C1CC2CCC(C1)O2	O=C1C[C@H]2CC[C@@H](C1)O2	
InChI=1S/C7H10O2/c8-5-3-6-1-2-7(4-5)9-6/h6-7H,1-4H2	InChI=1S/C7H10O2/c8-5-3-6-1-2-7(4-5)9-6/h6-7H,1-4H2/t6-,7+
