15
gdb 49491	2.239	1.69369	1.1776	5.1936	71.42	-0.2583	-0.055	0.2034	1037.2663	0.112854	-416.74622	-416.738565	-416.737621	-416.778907	28.205	
O	-0.726740669	 0.8202962245	 0.514923151	-0.237872
C	 0.1736397875	 0.9767033161	-0.2707564337	 0.126977
C	 1.3056083248	 1.9601100725	-0.1135558857	-0.127944
C	 1.1447869077	 3.4731195222	-0.5366948516	-0.063752
C	 0.2390580275	 3.7024491002	 0.6976544784	-0.239707
C	 1.4654385942	 2.8572365289	 1.1540150682	 0.24172
N	 2.3160796484	 3.8409664078	 0.3537950626	-0.332044
C	 1.8248834263	 2.4326291882	 2.4851495118	 0.169423
N	 2.1205678748	 2.0801850176	 3.5452115155	-0.340847
H	 0.2254790256	 0.3797378882	-1.2095172319	 0.092166
H	 2.2402341969	 1.5169160264	-0.4766812562	 0.099177
H	 1.041558187	 3.8702536017	-1.5448543128	 0.110963
H	 0.2363642748	 4.7237676508	 1.0748376419	 0.13325
H	-0.7290315868	 3.2113966674	 0.7313985772	 0.148406
H	 3.1638860804	 3.3647962777	 0.0271078154	 0.220084
71.7868	122.4669	179.0158	225.1773	278.4282	423.1555	514.312	532.8199	550.4335	586.7773	728.8607	757.161	801.3773	891.9772	904.2525	933.5189	974.5689	1008.0674	1065.2449	1077.9726	1094.401	1126.9543	1175.9822	1206.1176	1210.7233	1262.9746	1265.1919	1298.7756	1387.5974	1423.7856	1503.3489	1820.6569	2359.9722	2875.3895	3050.7477	3116.2801	3140.7176	3208.5806	3381.5782
O=CC1C2CC1(N2)C#N	O=C[C@H]1[C@H]2C[C@@]1(N2)C#N	
InChI=1S/C6H6N2O/c7-3-6-1-5(8-6)4(6)2-9/h2,4-5,8H,1H2	InChI=1S/C6H6N2O/c7-3-6-1-5(8-6)4(6)2-9/h2,4-5,8H,1H2/t4-,5+,6+/m0/s1
