16
gdb 46601	2.83518	1.81569	1.452	5.1041	67.62	-0.2412	0.0039	0.2451	918.7751	0.126667	-437.859734	-437.852915	-437.851971	-437.890845	27.036	
O	-0.0190925548	-0.0104460267	 0.1904813312	-0.3357
C	 0.0129782736	 1.1711092037	 0.02233239	 0.417559
O	-1.1385570456	 1.9255169026	-0.1018074956	-0.239512
C	-0.8804530867	 3.2478633662	-0.6390722081	-0.150476
C	 0.6130018727	 3.4565709827	-0.5250636074	 0.16235
C	 1.2353362639	 3.2953718921	 0.8282667052	-0.359333
C	 1.1741122627	 2.1084730779	-0.1015473871	 0.11071
N	 2.1584098814	 2.0925417546	-1.1841283795	-0.359789
C	 1.6857256243	 3.4429758273	-1.6325890007	-0.226401
H	-1.2127481422	 3.270030781	-1.682899091	 0.124577
H	-1.484644051	 3.9526345142	-0.061560507	 0.126511
H	 2.2090541691	 3.733341967	 1.0256031449	 0.124283
H	 0.5575268782	 3.2847059563	 1.6750202885	 0.142765
H	 3.1239748565	 2.0498566665	-0.8722002321	 0.228125
H	 1.2730782104	 3.4032285666	-2.6457328913	 0.122835
H	 2.4254245777	 4.2495487978	-1.58038882	 0.111496
138.9369	181.2238	271.5712	324.5621	380.4098	445.3438	584.4682	628.8474	661.1099	705.7845	750.6634	786.1768	842.4174	880.2971	929.9991	949.066	966.2258	981.3112	1004.7692	1018.3736	1035.7455	1076.3255	1140.266	1165.9788	1221.4961	1274.6949	1295.6353	1334.5747	1354.787	1380.6935	1393.5851	1476.0815	1505.4882	1517.5245	1886.9659	3031.1554	3044.1919	3081.1594	3095.2297	3127.7584	3221.252	3508.3159
O=C1OCC23CC12NC3	O=C1OC[C@@]23C[C@@]12NC3	
InChI=1S/C6H7NO2/c8-4-6-1-5(6,2-7-6)3-9-4/h7H,1-3H2	InChI=1S/C6H7NO2/c8-4-6-1-5(6,2-7-6)3-9-4/h7H,1-3H2/t5-,6+/m0/s1
