22
gdb 6136	2.95017	1.66106	1.36952	1.3001	77.9	-0.2497	0.0706	0.3203	1041.5002	0.198259	-350.20793	-350.198455	-350.197511	-350.241066	36.364	
C	-0.8859946981	 0.9774642455	-0.1131145471	-0.41224
C	 0.166342085	-0.1160180589	 0.0026041268	 0.049479
C	 1.5273906997	 0.0797230007	-0.7200827797	-0.30227
C	 2.2361380253	-0.5765893018	 0.5010928435	 0.422004
C	 2.5506349364	-2.0564138251	 0.3024703846	-0.446532
O	 3.3621428721	 0.1070147949	 1.0240671208	-0.47576
C	 0.94628128	-0.3270617034	 1.3472091548	-0.042721
C	 1.0196183562	 0.8794897231	 2.2788572319	-0.394916
H	-0.4902649633	 1.9541271471	 0.1822762064	 0.115452
H	-1.2394818151	 1.0638823474	-1.1468407362	 0.111167
H	-1.7577139214	 0.7659828778	 0.516469227	 0.111837
H	-0.2791597188	-1.0684293348	-0.3050845489	 0.066974
H	 1.6608319686	-0.3868917485	-1.7009685974	 0.083598
H	 1.798627631	 1.137422274	-0.7886459123	 0.098769
H	 3.3514484427	-2.1887734706	-0.4368087152	 0.100881
H	 2.8768646684	-2.503985593	 1.246581467	 0.121217
H	 1.6770300784	-2.6081543205	-0.0588984731	 0.117673
H	 4.1132461319	-0.0720631105	 0.4484100111	 0.272119
H	 0.6217621139	-1.2019767016	 1.9214367011	 0.057422
H	 1.3630814884	 1.7801746053	 1.7630818523	 0.119743
H	 0.0380081838	 1.0893543195	 2.7165487908	 0.10411
H	 1.7231118949	 0.6892076133	 3.0938197418	 0.121994
87.1919	207.7348	224.9292	226.7277	234.2073	249.5598	262.3105	273.8067	337.9765	365.3534	437.424	494.1482	507.3809	605.8768	735.8248	780.8421	867.5322	879.0179	915.9539	949.8244	984.5201	1001.418	1029.3416	1040.3587	1106.2578	1121.3229	1152.7327	1187.0316	1196.3574	1220.4098	1265.1649	1285.7381	1287.4052	1346.2292	1377.7031	1384.0909	1405.7171	1410.9249	1412.9685	1481.304	1487.2195	1488.7672	1491.2651	1495.4902	1501.9373	1504.2612	3017.6698	3025.9395	3028.6404	3039.1286	3042.0826	3046.9168	3085.1331	3087.1521	3099.0839	3103.2422	3107.7134	3110.1881	3119.4056	3803.9013
CC1CC(C)(O)C1C	C[C@H]1C[C@@](C)(O)[C@H]1C	
InChI=1S/C7H14O/c1-5-4-7(3,8)6(5)2/h5-6,8H,4H2,1-3H3	InChI=1S/C7H14O/c1-5-4-7(3,8)6(5)2/h5-6,8H,4H2,1-3H3/t5-,6-,7+/m0/s1
