21
gdb 108789	2.87022	1.03882	0.91106	2.0707	81.69	-0.2322	0.0231	0.2553	1382.2138	0.18075	-424.23783	-424.227847	-424.226903	-424.27261	37.192	
C	-0.0981489498	 1.5737658215	-0.0564840689	-0.432616
C	 0.0147296649	 0.0496457304	 0.0169016346	 0.359361
O	-1.3085080887	-0.5257590058	-0.000444537	-0.475339
C	 0.7780203511	-0.5793569439	-1.1724980013	-0.233539
C	 1.5589445345	-1.777445193	-0.5854213111	-0.315506
C	 1.6185684594	-1.456434417	 0.8928659924	 0.304675
C	 2.4848787084	-2.241842003	 1.8213459511	-0.178567
O	 2.3103498207	-1.7873250693	 3.1509446154	-0.414176
C	 0.7986834266	-0.4553591541	 1.2114455594	-0.214257
H	 0.8895336137	 2.0457746822	-0.065928389	 0.112561
H	-0.6408722596	 1.8713695909	-0.9590303065	 0.119122
H	-0.6464211204	 1.9623376185	 0.809905032	 0.101125
H	-1.716210095	-0.3410632233	 0.8524745989	 0.270345
H	 0.082082184	-0.8602034471	-1.9658550047	 0.109847
H	 1.4789236269	 0.1538973036	-1.5821257576	 0.097262
H	 1.0350750297	-2.7288401316	-0.7487008746	 0.113651
H	 2.5526490714	-1.8911935357	-1.0356448622	 0.096233
H	 2.2332231955	-3.3135882472	 1.7246588628	 0.096851
H	 3.5373933549	-2.147063797	 1.4984398427	 0.094984
H	 2.8919987223	-2.2984700007	 3.7203574647	 0.289413
H	 0.6527770295	-0.0720582783	 2.2149143389	 0.09857
78.4244	92.2727	141.9647	167.4455	233.9341	240.279	256.5827	313.8444	356.0386	398.3836	424.3934	434.7001	510.1824	599.9799	645.572	772.8676	836.4931	876.0757	918.5136	927.1462	937.453	982.0843	995.3425	1032.1632	1065.4185	1109.7686	1115.6156	1162.7297	1179.7608	1208.5741	1217.0984	1251.3186	1262.7839	1295.4288	1326.1878	1346.8705	1377.5457	1402.7385	1465.1214	1472.7297	1489.5823	1490.4631	1493.4793	1505.2934	1724.1082	2937.2226	2949.2362	3017.5554	3025.9014	3045.1539	3064.0062	3092.5605	3110.447	3117.218	3200.487	3806.3952	3838.9467
CC1(O)CCC(CO)=C1	C[C@@]1(O)CCC(=C1)CO	
InChI=1S/C7H12O2/c1-7(9)3-2-6(4-7)5-8/h4,8-9H,2-3,5H2,1H3	InChI=1S/C7H12O2/c1-7(9)3-2-6(4-7)5-8/h4,8-9H,2-3,5H2,1H3/t7-/m1/s1
