21
gdb 112865	2.1294	1.45161	1.07631	2.9281	81.32	-0.2405	0.0089	0.2494	1232.4764	0.181572	-424.229178	-424.219391	-424.218447	-424.26478	35.798	
C	 0.5399917182	 0.7264693752	 0.155090151	-0.23934
O	-0.0914052878	-0.5089675249	-0.0923207828	-0.253965
C	-1.5236954544	-0.5087109212	 0.0005964761	 0.010704
C	-2.029876217	-1.739824878	-0.7660442709	-0.262398
C	-2.0507414015	-2.8615548455	 0.2953768743	 0.10531
O	-0.8330420549	-3.6019251356	 0.3563909925	-0.441175
C	-2.2934111926	-2.0766512782	 1.567790259	-0.196793
C	-2.0014657681	-0.7801037031	 1.4286515863	 0.333062
C	-2.0750748254	 0.2798513078	 2.4844484416	-0.508729
H	 1.5937942426	 0.607533171	-0.1109002606	 0.12913
H	 0.1095131072	 1.5292433767	-0.4630799034	 0.106409
H	 0.4818157828	 1.034998498	 1.2081574443	 0.108578
H	-1.9045309428	 0.4397856778	-0.406021337	 0.059265
H	-3.0453662926	-1.550230097	-1.1274292941	 0.100462
H	-1.3918207407	-1.984553737	-1.6172425605	 0.110848
H	-2.8242472705	-3.6090237028	 0.0959052492	 0.078253
H	-0.1305867107	-2.9524857971	 0.4891885323	 0.280542
H	-2.5950916502	-2.5527826465	 2.4951426515	 0.092573
H	-2.5360520551	-0.1032602179	 3.3991301445	 0.127532
H	-1.0827296619	 0.6641595083	 2.748608977	 0.134941
H	-2.6619366045	 1.1410720896	 2.1414592598	 0.124793
24.5072	84.9233	133.7826	162.9734	208.2439	231.8286	294.6306	343.0394	400.2983	413.7914	452.5109	467.5232	598.2463	626.0553	790.5616	803.1437	866.0933	890.9395	917.1249	957.7252	996.0207	1025.7415	1050.116	1065.3877	1077.1508	1131.1337	1160.9198	1180.0041	1192.1617	1225.3496	1265.9925	1282.5563	1310.8426	1329.331	1346.3716	1372.1256	1413.2787	1445.4087	1468.3807	1475.8351	1477.3806	1485.3058	1498.3781	1509.871	1708.7939	2981.9436	2995.3774	3022.6537	3035.5523	3057.6697	3072.4265	3073.147	3106.9567	3109.1886	3124.4337	3185.7741	3774.0097
COC1CC(O)C=C1C	CO[C@H]1C[C@@H](O)C=C1C	
InChI=1S/C7H12O2/c1-5-3-6(8)4-7(5)9-2/h3,6-8H,4H2,1-2H3	InChI=1S/C7H12O2/c1-5-3-6(8)4-7(5)9-2/h3,6-8H,4H2,1-2H3/t6-,7-/m0/s1
