15
gdb 5644	5.07212	2.07083	1.48387	1.723	74.63	-0.1874	0.013	0.2005	806.8925	0.122616	-325.569873	-325.563952	-325.563008	-325.599488	24.344	
C	-0.0589411586	 1.5256422895	 0.0108388231	-0.423799
C	 1.4152428118	 1.9125434672	-0.0012031655	-0.086295
C	 2.2178150704	 0.8311597535	-0.0147110167	-0.207707
C	 1.396917109	-0.3727841787	-0.0133550577	 0.279999
C	 1.4445634747	-1.7466545041	-0.0212438095	-0.248857
N	 0.1356330837	-2.1818396875	-0.0110622709	-0.240498
C	-0.7402834203	-1.1126614603	 0.0032409922	-0.233487
C	 0.0229189683	 0.0232895287	 0.0019647512	 0.249605
H	-0.5712568318	 1.9280074352	 0.8954096993	 0.119539
H	-0.5881212889	 1.9374956082	-0.859318182	 0.119538
H	 1.7447540016	 2.944200538	 0.001196432	 0.089911
H	 3.3007096259	 0.8506653315	-0.0249876792	 0.09105
H	 2.2610911001	-2.4503568278	-0.0329015566	 0.117324
H	-0.1443034843	-3.1467330066	-0.0136199605	 0.257156
H	-1.8059040116	-1.2785656068	 0.0126008108	 0.116521
217.2581	260.5842	417.6717	446.4425	456.9074	617.6878	660.7459	676.7421	688.625	699.0455	738.3256	761.4041	853.7925	921.6	944.7704	947.1753	953.3585	1057.0545	1070.1949	1130.5865	1146.1702	1175.3573	1221.0968	1277.3123	1307.9972	1346.4603	1410.8652	1455.6562	1463.699	1569.4285	1602.1016	1650.8572	3015.4498	3037.465	3197.8572	3221.3899	3255.6989	3262.0108	3685.2618
C1C=CC2=CNC=C12	C1C=Cc2c[nH]cc12	
InChI=1S/C7H7N/c1-2-6-4-8-5-7(6)3-1/h1-2,4-5,8H,3H2	InChI=1S/C7H7N/c1-2-6-4-8-5-7(6)3-1/h1-2,4-5,8H,3H2
