15
gdb 7129	6.60555	0.83455	0.75879	2.7578	60.32	-0.2746	-0.0284	0.2462	1402.6713	0.11643	-436.953847	-436.944944	-436.943999	-436.988434	29.848	
O	-0.2492520196	 1.4029796717	 0.1265726667	-0.42201
C	 0.0475506073	 0.020264196	 0.0092476139	-0.076775
C	-1.2900087029	-0.706644221	-0.0245654711	-0.255499
C	-1.1671673317	-2.1931996281	-0.1571463085	 0.400607
N	-0.067713787	-2.8111594001	-0.1722025395	-0.485129
O	-2.4289577004	-2.7741091211	-0.3013689214	-0.199239
C	-2.6984560033	-3.9462522748	 0.3422702948	 0.155894
O	-3.6991668548	-4.5591367122	 0.1451398058	-0.247995
H	 0.5817706084	 1.8856860837	 0.1509003347	 0.290383
H	 0.6122259152	-0.2022440408	-0.9070402312	 0.106318
H	 0.6469952678	-0.3442949884	 0.8547928261	 0.106781
H	-1.8636506502	-0.4776215553	 0.8822021279	 0.139542
H	-1.8984969377	-0.3332579691	-0.8568709689	 0.147964
H	-0.1688404426	-3.8142883584	-0.3231182599	 0.234687
H	-1.9106536084	-4.2228856422	 1.0636051108	 0.104469
55.2764	85.5899	105.8313	144.9418	186.9517	257.6072	272.467	342.4066	407.9841	532.0451	564.253	714.1499	805.4708	898.5233	936.9103	1023.2583	1041.9439	1053.6911	1088.1617	1098.6737	1129.8503	1213.7167	1222.1867	1268.5214	1301.1717	1370.5011	1417.3504	1461.8051	1469.9041	1523.4641	1753.7437	1876.2618	2997.677	3000.6843	3030.836	3042.8566	3078.0226	3495.8346	3836.5448
OCCC(=N)OC=O	OCC[C]([NH])OC=O	
InChI=1S/C4H7NO3/c5-4(1-2-6)8-3-7/h3,5-6H,1-2H2	InChI=1S/C4H7NO3/c5-4(1-2-6)8-3-7/h3,5-6H,1-2H2
