17
gdb 52269	3.86113	0.89718	0.75703	3.0514	71.54	-0.2515	0.0095	0.261	1433.6052	0.136921	-455.16756	-455.158928	-455.157984	-455.202259	30.566	
N	-0.2643935677	 1.0963637573	-0.5180636379	-0.55521
C	-0.1333392355	-0.1009263053	-0.1613972052	 0.453155
O	 0.9849805196	-0.85093928	 0.1109599577	-0.249745
C	 0.1626043069	-1.9867376605	 0.5428780377	-0.110913
C	-1.1182842095	-1.1955126238	 0.1987888158	-0.143373
C	-2.0954089157	-0.8259784546	 1.3157990157	-0.183149
N	-2.9460752732	 0.2682975825	 0.888608652	-0.274959
C	-4.3027739945	 0.1940404714	 0.9114990005	 0.153822
O	-4.9471329497	-0.7440549949	 1.3337500473	-0.326982
H	 0.634633092	 1.5675844604	-0.627481451	 0.235117
H	 0.3704523887	-2.8720646234	-0.0604300461	 0.131624
H	 0.3255582718	-2.1968095966	 1.6030675096	 0.1295
H	-1.6594188048	-1.5814015904	-0.668305519	 0.124111
H	-2.750634894	-1.6620917655	 1.5696213078	 0.152479
H	-1.5341628034	-0.5482904929	 2.2183371437	 0.113412
H	-2.4926717076	 1.0655378172	 0.4615881048	 0.271606
H	-4.7685504833	 1.109073309	 0.4966629667	 0.079507
39.1972	84.6755	116.6961	168.5135	228.825	291.3564	341.2312	397.3551	473.9105	636.4412	669.0316	744.2776	762.3733	844.0278	863.3042	900.0604	950.6707	977.9277	1027.8521	1034.5111	1068.9403	1086.5961	1136.1592	1163.0561	1215.8871	1229.5134	1243.1291	1273.8677	1318.4578	1378.4745	1394.1705	1427.9605	1502.5579	1513.8802	1545.5501	1801.2512	1814.2415	2946.3152	3012.6886	3068.3526	3091.1846	3117.8122	3132.5466	3483.1198	3583.2465
N=C1OCC1CNC=O	[NH][C]1OC[C@H]1CNC=O	
InChI=1S/C5H8N2O2/c6-5-4(2-9-5)1-7-3-8/h3-4,6H,1-2H2,(H,7,8)	InChI=1S/C5H8N2O2/c6-5-4(2-9-5)1-7-3-8/h3-4,6H,1-2H2,(H,7,8)/t4-/m1/s1
