16
gdb 53873	4.08418	0.78827	0.66608	4.0043	68.32	-0.2557	-0.1012	0.1545	1599.3316	0.12062	-475.078468	-475.0684	-475.067456	-475.116061	33.344	
C	 0.2405220245	 1.4715167272	 0.0276577874	-0.477268
C	 0.2022389778	-0.0337594673	 0.0486429935	 0.31349
O	 0.2010392147	-0.7107560956	 1.0492394962	-0.266078
C	 0.162027242	-0.7333696221	-1.3283199521	 0.254141
O	 0.1619874074	-0.0874886022	-2.3520913776	-0.290303
C	 0.1236616832	-2.2442011348	-1.3064630394	-0.22136
N	 0.0889778945	-2.7488950667	-2.6535644721	-0.293991
C	 0.0511964572	-4.0778206153	-2.9254103614	 0.156953
O	 0.0429294182	-4.9498514039	-2.0826703804	-0.321698
H	 1.1157629403	 1.8164402944	-0.5323660736	 0.160445
H	-0.6337101012	 1.861319039	-0.5037781251	 0.160448
H	 0.2669636078	 1.852819045	 1.0482887962	 0.149321
H	 0.9924292366	-2.6164043832	-0.7469609325	 0.166289
H	-0.7445515898	-2.5718294456	-0.7189119441	 0.16627
H	 0.0944069425	-2.0628709562	-3.3945671959	 0.262047
H	 0.0285079643	-4.2786246428	-4.0144419794	 0.081294
16.3767	54.6988	93.2434	101.939	111.2857	226.8765	280.5435	291.6716	345.5728	351.5928	522.1725	560.4	585.86	602.9678	737.0903	864.6376	921.808	924.3214	1035.6159	1044.27	1052.963	1098.5973	1209.8577	1221.4337	1254.6402	1365.7037	1388.3617	1424.4134	1451.7296	1458.9428	1459.5407	1518.6613	1791.154	1810.4895	1812.1594	2944.9985	3030.4557	3045.6632	3049.3424	3109.9775	3165.2774	3608.8652
CC(=O)C(=O)CNC=O	CC(=O)C(=O)CNC=O	
InChI=1S/C5H7NO3/c1-4(8)5(9)2-6-3-7/h3H,2H2,1H3,(H,6,7)	InChI=1S/C5H7NO3/c1-4(8)5(9)2-6-3-7/h3H,2H2,1H3,(H,6,7)
