17
gdb 92405	2.24794	1.63252	1.29937	4.0757	73.19	-0.2604	0.0013	0.2617	1035.4015	0.137565	-417.980686	-417.972891	-417.971947	-418.013048	30.128	
O	 0.4157546569	 0.9944854433	-0.7050118415	-0.427185
C	 0.1950047255	-0.1865949362	-0.011936245	 0.12211
C	 0.2668555742	-0.1774876386	 1.5554960808	-0.27868
C	-1.1701279642	-0.756338397	 1.6531992007	-0.100079
C	-2.2916636229	 0.2979035664	 1.7550242728	-0.170014
N	-2.1418332679	 0.59964228	 0.3008897967	-0.369017
C	-1.3093190884	-0.6189908341	 0.0912123145	 0.199783
C	-1.8431076604	-1.6328524903	-0.7860979646	 0.165095
N	-2.2683398053	-2.449397355	-1.4875726824	-0.339525
H	-0.3502959876	 1.5542306492	-0.4952100266	 0.285006
H	 0.8219016544	-0.9656172786	-0.452582182	 0.108734
H	 1.0467480734	-0.8196999025	 1.9687555226	 0.115774
H	 0.3777452715	 0.8242882494	 1.9785490644	 0.111903
H	-1.3032258097	-1.7011226685	 2.1741879252	 0.10118
H	-3.2613172592	-0.1439008793	 2.0114230804	 0.116056
H	-2.1067868193	 1.1583805629	 2.4062759219	 0.114589
H	-3.0036040112	 0.620766929	-0.231244618	 0.244271
99.2111	130.731	175.1325	277.4069	342.0752	369.4206	482.3358	510.7493	544.1271	579.8497	608.7681	660.7705	737.145	790.3224	840.3257	925.3832	954.2545	981.4233	1012.0034	1026.395	1063.3566	1078.2701	1118.5553	1146.878	1160.5915	1176.3205	1195.0868	1242.4811	1261.7436	1306.0175	1321.7496	1341.4573	1382.5787	1451.0327	1474.7331	1514.0521	2339.8038	3029.4472	3067.8599	3080.0804	3086.6031	3124.6094	3148.2059	3554.5078	3670.2425
OC1CC2CNC12C#N	O[C@H]1C[C@H]2CN[C@@]12C#N	
InChI=1S/C6H8N2O/c7-3-6-4(2-8-6)1-5(6)9/h4-5,8-9H,1-2H2	InChI=1S/C6H8N2O/c7-3-6-4(2-8-6)1-5(6)9/h4-5,8-9H,1-2H2/t4-,5-,6+/m0/s1
