14
gdb 12950	2.62262	2.26734	1.76848	3.634	58.14	-0.2241	0.0062	0.2303	793.2584	0.107507	-415.831682	-415.824289	-415.823345	-415.862976	27.899	
N	-0.1427795493	 1.4949462111	-0.1779574996	-0.600308
C	-0.0643668858	 0.0896088114	-0.0224635158	 0.121218
C	-0.3474180061	-0.8361314614	-1.1890472085	 0.066576
O	 0.611018259	-1.7761533654	-1.5650960981	-0.414019
C	-1.1848271932	-0.9791589478	 0.0469587415	-0.107509
N	-0.4541199353	-1.6647279739	 1.1153631088	-0.341435
C	 0.6230223113	-0.7475398318	 1.0605686969	 0.363461
O	 1.643206202	-0.6793194964	 1.681190983	-0.334957
H	-0.1897930353	 1.959876653	 0.7229294	 0.244925
H	 0.6755026685	 1.8513280462	-0.6617487304	 0.247595
H	-0.8352130579	-0.3085026109	-2.0106171068	 0.10593
H	 0.1682247913	-2.475649508	-2.0580413242	 0.291713
H	-2.254762171	-0.8295273749	 0.1090181558	 0.115983
H	-0.266541388	-2.6603546214	 1.0696231874	 0.240826
131.5798	205.6822	239.5649	264.4553	293.353	320.0055	426.2216	502.272	571.4591	655.8602	694.595	751.8012	758.8902	805.1136	863.8142	923.3931	939.9006	1000.3715	1062.0254	1092.7364	1159.5657	1220.9181	1261.5587	1273.2555	1306.1818	1324.607	1360.9067	1481.6885	1663.1949	1901.8822	3099.5271	3205.884	3502.1485	3545.1991	3577.684	3802.7638
NC12C(O)C1NC2=O	N[C@]12[C@@H](O)[C@H]1NC2=O	
InChI=1S/C4H6N2O2/c5-4-1(2(4)7)6-3(4)8/h1-2,7H,5H2,(H,6,8)	InChI=1S/C4H6N2O2/c5-4-1(2(4)7)6-3(4)8/h1-2,7H,5H2,(H,6,8)/t1-,2+,4+/m1/s1
