16
gdb 44446	3.15439	1.80861	1.60854	4.283	67.06	-0.2255	0.0254	0.2509	866.5668	0.127904	-437.913143	-437.906821	-437.905877	-437.943699	26.111	
O	-0.0130756526	-0.0589389342	-0.0286003269	-0.388136
C	-0.0194324535	 1.1543117446	 0.0048933764	 0.428438
N	-1.1440428546	 1.9328317668	 0.0643027537	-0.313688
C	-1.0222874176	 3.3602622417	 0.1426609972	-0.028745
C	 0.0965956259	 4.0277121328	-0.6517799668	-0.135973
C	 1.1106175998	 3.0393487992	-1.2006184607	-0.246108
C	 1.2169723314	 2.0574488393	-0.0110850469	-0.073128
O	 1.1481502392	 2.8961756609	 1.1604816504	-0.255088
C	 0.2060646512	 3.8882764224	 0.8509177713	 0.08453
H	-2.0394200495	 1.4798671976	 0.1609603028	 0.253445
H	-1.9652064619	 3.8816098402	 0.2462437488	 0.110565
H	-0.0773230961	 4.9763205363	-1.1438172266	 0.098557
H	 0.7906087048	 2.5317596186	-2.1147738976	 0.125216
H	 2.0681304616	 3.5340357935	-1.3880767873	 0.11782
H	 2.1253437951	 1.4607863253	 0.0381911254	 0.110308
H	 0.1828040469	 4.6954515849	 1.5716041867	 0.111986
118.5042	306.763	373.3722	416.4541	438.9788	511.9506	555.66	671.1288	698.345	759.0829	774.0615	784.9727	813.7041	868.3743	929.3645	938.17	966.9798	1000.298	1033.8503	1055.222	1071.7	1086.0684	1106.0125	1143.601	1175.7648	1238.8889	1279.7386	1284.1819	1319.5801	1339.3553	1373.5524	1402.9485	1460.0063	1488.0839	1818.8821	3058.4356	3107.2666	3151.5886	3189.921	3194.8602	3206.1409	3631.4502
O=C1NC2C3CC1OC23	O=C1N[C@@H]2[C@@H]3C[C@H]1O[C@H]23	
InChI=1S/C6H7NO2/c8-6-3-1-2-4(7-6)5(2)9-3/h2-5H,1H2,(H,7,8)	InChI=1S/C6H7NO2/c8-6-3-1-2-4(7-6)5(2)9-3/h2-5H,1H2,(H,7,8)/t2-,3+,4+,5-/m0/s1
