19
gdb 91463	2.50616	1.91603	1.42889	2.6359	74.21	-0.2307	0.0159	0.2466	960.4965	0.161133	-423.031811	-423.024283	-423.023339	-423.063134	31.53	
O	-0.1367295422	 1.3936763014	-0.0424711245	-0.452185
C	 0.0177141803	-0.0274379843	 0.0025689687	 0.063484
C	 0.6154426047	-0.5508476983	 1.3386413956	-0.242118
C	-0.5706438347	-1.3734874913	 1.9493845297	-0.071491
C	-1.7666933401	-0.4879987934	 1.5320760068	-0.27314
C	-1.4378178984	-0.6076981507	 0.0167724492	 0.415686
O	-2.2826358918	-0.0127568442	-0.9204676517	-0.526666
C	-1.2964218288	-2.112228729	-0.1163690453	-0.119176
C	-0.7866065633	-2.5715817906	 1.0289339679	-0.086872
H	 0.7025871316	 1.7891645824	-0.2928989617	 0.290051
H	 0.5687136628	-0.3698658258	-0.8803157999	 0.068702
H	 1.5142557401	-1.1560571873	 1.1998672977	 0.095854
H	 0.8681501512	 0.3025821059	 1.9749799468	 0.100411
H	-0.4557090951	-1.5980587655	 3.009926057	 0.062203
H	-2.7377385075	-0.9252642655	 1.7713490328	 0.099287
H	-1.7062459157	 0.5394759174	 1.9028784025	 0.098297
H	-2.0137382765	 0.9148440994	-0.9601923839	 0.282389
H	-1.5000646635	-2.6458476192	-1.0356904596	 0.100737
H	-0.473587253	-3.5842317315	 1.2514262119	 0.094548
148.3865	218.8577	283.0346	347.2762	375.3659	407.3632	417.4109	463.0239	533.128	550.2352	630.4707	686.2438	733.4932	780.637	806.613	870.3343	872.9816	924.3153	932.7013	942.0178	956.7744	1026.6424	1065.2918	1068.5772	1082.671	1101.9406	1141.5939	1168.5739	1191.0504	1225.8277	1242.5415	1256.5936	1292.298	1308.3663	1328.0654	1347.5224	1406.8914	1430.7868	1479.9428	1500.4788	1649.5413	3037.0781	3056.761	3063.7005	3107.7773	3109.4992	3129.4414	3199.1774	3227.6378	3761.8487	3840.3327
OC1CC2CC1(O)C=C2	O[C@H]1C[C@H]2C[C@]1(O)C=C2	
InChI=1S/C7H10O2/c8-6-3-5-1-2-7(6,9)4-5/h1-2,5-6,8-9H,3-4H2	InChI=1S/C7H10O2/c8-6-3-5-1-2-7(6,9)4-5/h1-2,5-6,8-9H,3-4H2/t5-,6-,7+/m0/s1
