16
gdb 34645	3.50581	1.20426	0.97156	1.9822	80.77	-0.2361	-0.0413	0.1948	1183.7988	0.124449	-400.713223	-400.705047	-400.704103	-400.746321	30.4	
C	 0.2352392468	-1.110279985	-0.6680349169	-0.410611
C	 0.0428278928	 0.0139355822	-0.2783379989	 0.235787
C	-0.1249215754	 1.3368165495	 0.2121133431	 0.12461
C	-1.2821907254	 2.0009818204	 0.0727915569	-0.157776
C	-1.4556869639	 3.3902426234	 0.6131135363	-0.136293
O	-0.6056240065	 4.3690447543	-0.0115386786	-0.217659
C	 0.7391947112	 4.2332094595	 0.1040694905	 0.143723
N	 1.4853905673	 3.2976443835	 0.4996783616	-0.260083
C	 1.0734233468	 1.9696875234	 0.9245653542	-0.263025
H	 0.3886956949	-2.1001813671	-1.0205369251	 0.200816
H	-2.1181817682	 1.5388854752	-0.440995483	 0.107652
H	-2.4670509135	 3.7584569401	 0.4352844962	 0.126633
H	-1.2751254016	 3.4160273113	 1.6968880879	 0.123878
H	 1.1989655806	 5.1619621275	-0.2361976406	 0.122737
H	 0.8818794473	 1.9763087951	 2.0086445488	 0.128583
H	 1.9361212466	 1.3129969467	 0.7859413676	 0.131028
62.8799	126.7729	160.5038	217.7946	298.0684	360.3799	402.863	508.7787	524.2678	562.5503	607.5045	623.4373	640.7835	743.9282	848.3783	863.9553	935.6991	938.0958	978.7279	995.7104	1017.0004	1079.5376	1159.4856	1183.502	1263.2121	1287.7635	1335.369	1381.2369	1403.5166	1437.0315	1479.46	1499.9653	1694.567	1763.6453	2216.2615	2990.2632	3009.4999	3081.486	3119.3939	3131.8616	3189.3672	3502.2131
C#CC1=CCOC=NC1	C#CC1=CCOC=NC1	
InChI=1S/C7H7NO/c1-2-7-3-4-9-6-8-5-7/h1,3,6H,4-5H2	InChI=1S/C7H7NO/c1-2-7-3-4-9-6-8-5-7/h1,3,6H,4-5H2
