15
gdb 45843	2.39451	1.77153	1.06936	4.5405	71.23	-0.2446	-0.0223	0.2222	1058.1993	0.115894	-450.173572	-450.166016	-450.165072	-450.206008	28.334	
N	-0.1213187646	 1.1763739077	-0.7276253008	-0.540163
C	 0.016290476	 0.1143716087	-0.0348236843	 0.426611
N	 1.2181488826	-0.332404748	 0.5247586805	-0.35441
C	 1.529678669	-1.6007138405	 1.0244701594	 0.08244
N	 0.8157718916	-2.3659486144	 1.7340917993	-0.216224
C	-0.4757560524	-1.8892786511	 2.2023750877	-0.283317
C	-1.4956258457	-1.5839400718	 1.1160545928	 0.397889
O	-2.6119730617	-2.047010234	 1.1068432037	-0.333036
N	-1.1017751886	-0.7022351836	 0.1163063609	-0.330135
H	 0.7544567706	 1.6808306813	-0.8445436021	 0.214243
H	 2.0117568132	 0.1981272888	 0.1970797246	 0.256124
H	 2.5439520523	-1.9139821362	 0.7724163545	 0.127504
H	-0.9290479401	-2.6452484706	 2.8432615714	 0.145055
H	-0.3425737717	-0.9699053568	 2.7956159563	 0.131907
H	-1.8669505206	-0.4045155195	-0.4760894139	 0.275511
93.8985	123.1977	141.6038	324.2425	366.7369	419.8265	492.6683	534.1978	574.2909	581.7196	645.539	681.5474	739.8229	791.3984	848.9138	877.9428	947.6169	964.0928	990.9826	1033.6181	1114.9926	1173.6304	1237.1006	1327.1171	1343.6665	1397.0007	1428.7024	1455.8052	1477.4084	1484.6798	1730.8235	1759.0107	1812.6904	2984.2648	3120.5052	3132.0815	3514.9038	3591.0602	3612.4681
N=C1NC=NCC(=O)N1	[NH][C]1NC=NCC(=O)N1	
InChI=1S/C4H6N4O/c5-4-7-2-6-1-3(9)8-4/h2H,1H2,(H3,5,6,7,8,9)	InChI=1S/C4H6N4O/c5-4-7-2-6-1-3(9)8-4/h2H,1H2,(H3,5,6,7,8,9)
