20
gdb 52654	3.35305	0.8193	0.68296	4.3979	88.98	-0.259	0.0284	0.2874	1658.6185	0.16818	-366.017552	-366.006489	-366.005545	-366.05488	38.219	
C	-0.0434477319	 1.491707118	 0.0262889161	-0.499946
C	-0.0024134299	 0.0359919907	 0.0094734521	 0.086368
C	 0.0329634325	-1.168170288	 0.0088598305	 0.050909
C	 0.0361534999	-2.6303781679	-0.0035132303	-0.155221
C	-1.3990945996	-3.1825031514	 0.0996279155	-0.405374
C	 0.7776536883	-3.1587617098	-1.2753354059	-0.12455
C	 2.2275149216	-2.6507066537	-1.3787885775	-0.400632
C	 0.7589047404	-4.6253264812	-1.3028163765	 0.27003
N	 0.7580709087	-5.7813864657	-1.3159366799	-0.333919
H	 0.7541498067	 1.9054677169	 0.6529339252	 0.151249
H	 0.0780374476	 1.9046658894	-0.9810585495	 0.150274
H	-0.9983100429	 1.8566085689	 0.420116122	 0.152262
H	 0.6048820781	-2.9880362066	 0.8658918773	 0.117112
H	-1.3926296372	-4.2749909002	 0.1320929096	 0.144899
H	-1.8815430729	-2.8086510301	 1.0056525931	 0.129361
H	-1.9979162398	-2.8612504334	-0.7582187811	 0.125915
H	 0.2156503875	-2.810600086	-2.1510606686	 0.131295
H	 2.7025419	-3.0174208983	-2.291768456	 0.134691
H	 2.2310778121	-1.5591522162	-1.3892137333	 0.140576
H	 2.8192185307	-2.9938899754	-0.5250570927	 0.134702
34.1882	50.5396	83.7387	147.1862	163.4384	218.5855	232.9385	255.3933	265.144	306.7166	322.1653	394.0562	473.1016	521.2541	546.8648	582.5468	752.1192	809.3032	890.7247	976.4421	1008.0682	1051.442	1053.1162	1061.1396	1095.4224	1111.0304	1150.8765	1200.742	1267.8568	1324.413	1330.3748	1359.7751	1409.741	1411.2488	1415.1881	1477.9782	1478.4977	1494.0824	1495.403	1498.2864	1499.7066	2352.8062	2367.8162	3010.7543	3028.9751	3039.6958	3046.8919	3052.5262	3090.4998	3090.8812	3121.0044	3125.5667	3131.7758	3142.3457
CC#CC(C)C(C)C#N	CC#C[C@@H](C)[C@@H](C)C#N	
InChI=1S/C8H11N/c1-4-5-7(2)8(3)6-9/h7-8H,1-3H3	InChI=1S/C8H11N/c1-4-5-7(2)8(3)6-9/h7-8H,1-3H3/t7-,8+/m1/s1
