18
gdb 55219	3.49707	1.08854	0.8804	5.2211	73.06	-0.2431	-0.0291	0.214	1301.8088	0.147317	-439.157278	-439.148286	-439.147341	-439.191902	32.373	
C	-0.063212805	 1.4836661692	-0.2030191856	-0.483108
C	-0.0027597332	 0.0272870852	 0.2099862411	 0.373631
O	 0.9899216012	-0.4777153962	 0.6804510842	-0.295979
C	-1.2865335126	-0.7843751174	 0.0348614708	-0.065056
C	-1.8184443885	-0.8612657333	-1.4258849052	-0.240993
C	-2.4673498263	-2.2526682567	-1.4932698478	-0.33247
C	-1.6913186937	-3.0756410038	-0.4545649919	 0.408262
O	-1.6169653355	-4.2800308142	-0.3773751261	-0.370785
N	-1.1040444511	-2.1696909394	 0.390676545	-0.300346
H	-0.1903899752	 1.5644514966	-1.2884375454	 0.150908
H	-0.9235921908	 1.9821985751	 0.2563014974	 0.141835
H	 0.8586179701	 1.9867864795	 0.0898396374	 0.151254
H	-2.0473405109	-0.301504973	 0.6732791348	 0.098954
H	-2.4987789713	-0.0407627188	-1.6608497013	 0.113558
H	-0.9752357772	-0.8118944103	-2.1232088253	 0.121528
H	-3.5227069507	-2.2260161558	-1.1984474606	 0.131175
H	-2.4088333765	-2.7277938087	-2.4732599288	 0.134929
H	-0.4135222528	-2.4449864082	 1.0718300874	 0.262706
56.7888	78.2822	111.0498	148.3874	184.374	316.0384	341.5697	438.1288	488.4833	542.7549	562.6688	599.3187	642.2006	694.3415	814.015	827.56	907.3067	954.2296	962.0167	985.3394	1017.0807	1077.0421	1139.431	1161.9035	1198.9189	1230.254	1261.2791	1291.5279	1324.3905	1333.1964	1375.2281	1390.5149	1418.3441	1462.7178	1470.5691	1476.4295	1499.8437	1812.5757	1838.7914	2942.8705	3040.4371	3049.5352	3054.0348	3100.9306	3113.3851	3130.2137	3156.2333	3642.3312
CC(=O)C1CCC(=O)N1	CC(=O)[C@H]1CCC(=O)N1	
InChI=1S/C6H9NO2/c1-4(8)5-2-3-6(9)7-5/h5H,2-3H2,1H3,(H,7,9)	InChI=1S/C6H9NO2/c1-4(8)5-2-3-6(9)7-5/h5H,2-3H2,1H3,(H,7,9)/t5-/m1/s1
