23
gdb 102378	1.65869	1.50673	1.06621	4.3686	85.64	-0.2361	0.0341	0.2702	1315.2786	0.204296	-384.480684	-384.469608	-384.468663	-384.516355	40.485	
C	-0.1351167131	 1.4894583612	 0.1611863723	-0.408544
C	-0.0385301429	-0.0234895495	-0.0425451613	-0.205984
C	 0.7611616976	-0.4894284213	-1.2902901295	 0.088057
C	 2.2225230256	 0.0581875697	-1.3096897926	-0.193694
C	 3.0819423284	-0.4049200843	-0.130962464	-0.412474
N	 0.6467350924	-1.9535868002	-1.3366898705	-0.301434
C	 1.320572847	-2.6459188701	-2.4299358489	-0.339724
C	 0.0828569005	 0.0426146255	-2.4946198399	 0.319264
N	-0.4263227109	 0.4830074702	-3.4340874572	-0.360673
H	 0.8390927127	 1.9424842814	 0.3683617947	 0.120916
H	-0.5580699602	 1.9829874563	-0.7190775378	 0.144676
H	-0.7859007525	 1.7107663221	 1.0120015413	 0.121721
H	 0.4265694621	-0.4877555277	 0.8353053021	 0.098715
H	-1.0382050147	-0.4586541439	-0.1295304632	 0.127785
H	 2.6895210698	-0.2526252755	-2.249490379	 0.116025
H	 2.1870195761	 1.1514705112	-1.3426940071	 0.117312
H	 2.713369748	-0.0212083869	 0.8250957431	 0.125662
H	 3.1213801486	-1.4970491375	-0.0623909403	 0.11619
H	 4.1090412315	-0.0490951475	-0.2520486593	 0.125886
H	 0.9351958819	-2.3306793295	-0.4415006136	 0.222262
H	 0.9286689015	-2.2828822642	-3.3850006259	 0.149703
H	 2.4169679857	-2.53838022	-2.4496923141	 0.102402
H	 1.0875813149	-3.7121894396	-2.3608547592	 0.125952
88.6609	106.4239	124.3839	143.5177	168.7734	217.3081	227.8077	242.0049	286.1825	303.5449	327.9756	411.3207	428.7294	459.7155	568.3411	603.5148	664.1735	713.2326	772.9646	797.5958	934.3664	936.2235	969.6507	1020.8957	1044.2173	1078.5613	1108.3897	1137.9827	1155.7276	1180.1968	1190.5309	1249.8878	1301.7338	1308.7165	1360.6547	1374.8909	1412.4132	1418.7214	1458.8765	1476.8056	1484.7179	1491.647	1499.6056	1502.5872	1506.1285	1509.4744	1514.2329	1525.7288	2353.0267	2972.3856	3036.672	3042.0584	3043.6973	3056.6694	3073.8798	3084.8306	3088.2021	3108.398	3113.2947	3114.6265	3114.8884	3118.6748	3544.3833
CCC(CC)(NC)C#N	CCC(CC)(NC)C#N	
InChI=1S/C7H14N2/c1-4-7(5-2,6-8)9-3/h9H,4-5H2,1-3H3	InChI=1S/C7H14N2/c1-4-7(5-2,6-8)9-3/h9H,4-5H2,1-3H3
