15
gdb 28773	3.27972	1.73973	1.14488	3.0227	75.92	-0.1862	-0.0169	0.1693	992.666	0.115513	-416.848938	-416.842018	-416.841074	-416.880121	27.005	
O	 0.0903419542	 1.3355357515	 0.2453990582	-0.436911
C	 0.0693525372	-0.0019315971	 0.0406967099	 0.313495
C	 0.0622327206	-0.8168429349	-1.0745727283	-0.233726
N	 0.0374127534	-2.1499008148	-0.7037112902	-0.355099
C	 0.0303000871	-2.1257837103	 0.6075877551	 0.37692
C	 0.008099597	-3.0318480051	 1.7398029566	-0.184696
C	 0.0136244985	-2.3069190275	 2.8737554885	-0.110871
C	 0.0407050718	-0.8187679007	 2.5633375308	-0.237331
N	 0.0491852788	-0.8414216784	 1.1128801623	-0.062536
H	 0.1060852365	 1.7745483244	-0.6110039218	 0.311895
H	 0.0734871756	-0.5125572349	-2.1104901553	 0.097785
H	-0.0096788063	-4.1085356351	 1.6549308916	 0.124059
H	 0.0012166065	-2.6808920144	 3.8872962448	 0.113423
H	-0.8380193858	-0.2904095462	 2.9533207934	 0.141814
H	 0.931955985	-0.3203516966	 2.9641692143	 0.141781
153.5606	196.1585	257.824	270.2782	344.223	468.0388	557.1558	632.814	642.1976	685.8505	689.1887	759.0925	770.1247	792.1412	873.6012	939.2051	946.7354	989.4766	1052.6881	1106.0515	1161.7866	1179.2948	1184.7382	1257.3975	1293.5662	1302.3068	1346.9431	1382.2081	1482.8376	1532.7768	1577.0429	1589.2152	1627.1525	3029.3269	3059.662	3235.6684	3240.0122	3256.9445	3838.9019
OC1=CN=C2C=CCN12	Oc1cnc2C=CCn12	
InChI=1S/C6H6N2O/c9-6-4-7-5-2-1-3-8(5)6/h1-2,4,9H,3H2	InChI=1S/C6H6N2O/c9-6-4-7-5-2-1-3-8(5)6/h1-2,4,9H,3H2
