19
gdb 83185	2.44361	1.56688	1.37855	3.2376	74.24	-0.2317	-0.0039	0.2278	1032.9036	0.160515	-423.041242	-423.033121	-423.032176	-423.074081	31.521	
O	-0.0704882907	 1.390092665	 0.1285802058	-0.408072
C	-0.0183179593	-0.0045806093	 0.0442694074	 0.084902
C	-1.3563908632	-0.6963018273	 0.0571554978	-0.079992
C	-2.6221042327	 0.1528425643	 0.1503848497	-0.228693
C	-3.1728589148	 0.5760949141	-1.2270694977	-0.292305
C	-2.0828095275	 1.1325367342	-2.1257266682	 0.399543
O	-2.1336881639	 2.2273520948	-2.6343960048	-0.320123
C	-0.9343505898	 0.1652925791	-2.4009875205	-0.325417
C	-0.5113374117	-0.6815913604	-1.2110649596	-0.092792
H	 0.5928311848	 1.763979452	-0.4610749953	 0.297504
H	 0.8057092375	-0.4630835941	 0.589760789	 0.086011
H	-1.3894213959	-1.6407017238	 0.5901141708	 0.090669
H	-3.3956175216	-0.4059685324	 0.6848500464	 0.101182
H	-2.4139816459	 1.0520117068	 0.7374792673	 0.134844
H	-3.5916454002	-0.3068365129	-1.7304166194	 0.110697
H	-3.9647594395	 1.3219363723	-1.1300099113	 0.117415
H	-1.2933178813	-0.5039702907	-3.1957870415	 0.125936
H	-0.1008026171	 0.7337928161	-2.8270816333	 0.110659
H	-0.0156274471	-1.6123940378	-1.4715295123	 0.088033
62.917	122.3254	193.5511	252.643	311.0873	383.1219	426.728	466.1832	507.7328	577.2572	584.4967	700.7308	743.4266	773.6333	789.4696	856.6158	891.9573	934.5716	972.6304	1009.9578	1039.2673	1069.9345	1094.6096	1127.0376	1133.4171	1166.0875	1216.0984	1227.9172	1242.2812	1250.6365	1288.6104	1317.5737	1338.0767	1357.2703	1379.7634	1382.3069	1442.3776	1464.4452	1470.7059	1493.0439	1820.8651	3012.7452	3018.6346	3054.3571	3069.1117	3094.4951	3103.0571	3111.9703	3140.8771	3161.1107	3808.1181
OC1C2CCC(=O)CC12	O[C@H]1[C@H]2CCC(=O)C[C@@H]12	
InChI=1S/C7H10O2/c8-4-1-2-5-6(3-4)7(5)9/h5-7,9H,1-3H2	InChI=1S/C7H10O2/c8-4-1-2-5-6(3-4)7(5)9/h5-7,9H,1-3H2/t5-,6+,7-/m0/s1
