21
gdb 89110	4.68434	0.5911	0.56706	2.7482	81.55	-0.2519	-0.0259	0.226	1977.7951	0.179351	-424.212152	-424.201775	-424.200831	-424.249295	36.122	
C	 0.2592190512	 1.6141541879	-0.0930655221	-0.396616
C	 0.1210604966	 0.1090446192	-0.0357759979	-0.028003
C	 1.3480702765	-0.7696282203	 0.1288804106	-0.323391
C	 0.3401794527	-0.635914606	 1.2467943713	 0.123773
O	 0.6673236087	 0.1188118295	 2.3733209756	-0.246867
C	 1.44831335	-0.5905218908	 3.3151611904	-0.061728
C	 1.7509284922	 0.3520783205	 4.4795460058	-0.281034
C	 2.3750905668	-0.3724504102	 5.6497109029	 0.153635
O	 3.4188002561	-0.0741438586	 6.1693093155	-0.23262
H	 1.0168640117	 1.9635357442	 0.6118371932	 0.127053
H	 0.5453322385	 1.9412057605	-1.0982457202	 0.114998
H	-0.6845129752	 2.1065992332	 0.1649362089	 0.118424
H	-0.6643711646	-0.2973563434	-0.6677588091	 0.087101
H	 1.4138297282	-1.7055047172	-0.4152643008	 0.111245
H	 2.294828716	-0.2574598095	 0.2689470676	 0.117348
H	-0.2985162489	-1.49390663	 1.4632600738	 0.082401
H	 0.8999612682	-1.4781591776	 3.6743644078	 0.091616
H	 2.3799021285	-0.9489597049	 2.8522753431	 0.107542
H	 2.4041853455	 1.1709052241	 4.1695191499	 0.129607
H	 0.7958986185	 0.7778181784	 4.8180843729	 0.132666
H	 1.778527733	-1.2382269091	 6.0239807507	 0.07285
44.2784	53.8078	71.4723	115.3162	128.1787	195.4468	218.9519	286.9257	339.4591	366.4921	471.3375	531.6078	571.624	755.3076	785.8834	832.0494	861.6608	886.4512	923.1061	972.1921	1015.1412	1023.7654	1057.0435	1092.2144	1108.4681	1123.334	1139.8561	1149.7927	1188.001	1196.2672	1227.2054	1251.9137	1275.9053	1304.6606	1369.1211	1397.8911	1419.7547	1432.4241	1436.8528	1467.1737	1484.3099	1495.3805	1505.0318	1525.9664	1838.1921	2850.0981	2959.9915	3006.6341	3027.7908	3036.5005	3083.6605	3094.3461	3116.7339	3122.6452	3129.1569	3143.85	3217.1912
CC1CC1OCCC=O	C[C@H]1C[C@H]1OCCC=O	
InChI=1S/C7H12O2/c1-6-5-7(6)9-4-2-3-8/h3,6-7H,2,4-5H2,1H3	InChI=1S/C7H12O2/c1-6-5-7(6)9-4-2-3-8/h3,6-7H,2,4-5H2,1H3/t6-,7+/m0/s1
