17
gdb 44622	4.02967	1.41447	1.33068	2.6823	71.97	-0.2363	-0.0117	0.2247	977.1227	0.138693	-421.832398	-421.826048	-421.825103	-421.863025	26.257	
O	 0.0373290578	 0.0513779762	-0.0301137922	-0.333409
C	 0.0201222695	 1.2541598901	-0.0056479535	 0.416378
C	-1.2014154994	 2.1929855756	 0.0096849411	-0.359236
C	-0.4545665184	 3.5237019868	 0.062443338	-0.052171
C	 0.7402695344	 3.3765654495	-0.9442325739	-0.085008
C	 1.6635908592	 4.5203898546	-0.5385052656	-0.098838
O	 1.5992388361	 4.4109263995	 0.8986901533	-0.274058
C	 0.7149128193	 3.3170522898	 1.0682237719	 0.113452
C	 1.1764535598	 2.2177923815	 0.0364399389	-0.15455
H	-1.8143759278	 2.0639348287	-0.8881926947	 0.128715
H	-1.8352191801	 1.9974509355	 0.8809532645	 0.128152
H	-1.0312881874	 4.4487186151	 0.0943578991	 0.078931
H	 0.5828756707	 3.189415496	-2.0072194842	 0.085987
H	 2.6983531591	 4.3993074801	-0.8779791189	 0.111203
H	 1.2944214463	 5.5020558336	-0.8580984725	 0.109992
H	 0.5710514115	 3.1045566437	 2.127457282	 0.09672
H	 2.1871960393	 1.8144722338	 0.0476330367	 0.08774
135.5948	298.917	308.2224	351.6549	471.4682	554.275	596.3598	629.3422	685.6617	750.958	826.864	899.3183	901.6987	928.2719	948.7502	960.1552	978.4747	993.3985	1009.0153	1029.0382	1063.0195	1078.2518	1127.8446	1160.8597	1165.9032	1201.7077	1211.1673	1225.9154	1238.9346	1270.9426	1273.1553	1289.7454	1330.9338	1383.7216	1464.6787	1523.4049	1859.7053	3028.504	3051.8638	3070.485	3095.2734	3110.5056	3116.4311	3130.8615	3147.9672
O=C1CC2C3COC2C13	O=C1C[C@@H]2[C@H]3CO[C@@H]2[C@@H]13	
InChI=1S/C7H8O2/c8-5-1-3-4-2-9-7(3)6(4)5/h3-4,6-7H,1-2H2	InChI=1S/C7H8O2/c8-5-1-3-4-2-9-7(3)6(4)5/h3-4,6-7H,1-2H2/t3-,4-,6-,7+/m1/s1
