22
gdb 88436	2.99472	1.10161	1.0184	2.6538	82.92	-0.2287	0.0713	0.3	1311.0538	0.192259	-404.307961	-404.297857	-404.296913	-404.343378	37.944	
C	 0.9534459827	 1.1266407535	-0.8050384775	-0.401694
C	 0.6571861413	-0.2571808461	-0.2774256596	-0.029587
N	 1.7889263861	-1.0521642581	 0.2222368605	-0.363687
C	 0.7256134143	-0.6721216579	 1.1601455749	 0.31387
C	 1.1520867003	 0.2799737626	 2.2613923268	-0.451907
C	-0.2918271591	-1.6838380873	 1.6346817283	-0.080835
C	-0.5563453564	-3.0049786906	 0.9437516288	-0.361787
C	 0.1031910783	-2.9708037711	 2.3025830912	 0.096477
O	 1.47482576	-3.2256686361	 2.3957286467	-0.41306
H	 1.7328282963	 1.6206304192	-0.2215673003	 0.125451
H	 1.3025349368	 1.0718482029	-1.842347888	 0.11662
H	 0.054720218	 1.7533821233	-0.7876980264	 0.110756
H	-0.0946858344	-0.795581003	-0.8554653315	 0.073649
H	 1.7217824447	-2.0301731614	-0.0413040358	 0.219547
H	 1.8884366692	 1.0001768749	 1.901801718	 0.122822
H	 0.2931584637	 0.8295846727	 2.6638657764	 0.104005
H	 1.6084500584	-0.2853365042	 3.0804034293	 0.132465
H	-1.1715490967	-1.2092630264	 2.0643362322	 0.090068
H	-1.580590085	-3.3505695696	 0.8542100824	 0.112691
H	 0.0816834751	-3.27913452	 0.1086239182	 0.109797
H	-0.481402355	-3.2985534332	 3.1623449156	 0.085515
H	 1.6079377613	-4.176852844	 2.3258808999	 0.288825
25.4864	127.0969	152.3256	171.7283	195.6414	222.2643	273.5051	320.0766	357.6229	390.9989	418.6012	476.9107	520.5001	596.777	687.1932	781.8914	798.1151	833.345	860.5472	905.2767	963.1565	978.3584	1001.5	1024.5341	1053.1302	1066.1607	1078.4598	1098.4466	1115.7997	1134.6784	1167.3352	1180.6496	1221.8643	1238.5541	1269.5377	1289.0395	1334.4009	1396.456	1407.1781	1416.1165	1424.9265	1455.135	1478.7694	1488.5953	1492.6441	1497.1725	1511.0644	3031.3924	3034.4453	3089.0138	3094.4295	3095.1352	3096.2767	3121.3388	3127.0682	3129.2241	3139.5135	3208.2658	3521.7627	3804.4219
CC1NC1(C)C1CC1O	C[C@H]1N[C@]1(C)[C@H]1C[C@H]1O	
InChI=1S/C7H13NO/c1-4-7(2,8-4)5-3-6(5)9/h4-6,8-9H,3H2,1-2H3	InChI=1S/C7H13NO/c1-4-7(2,8-4)5-3-6(5)9/h4-6,8-9H,3H2,1-2H3/t4-,5+,6-,7+/m1/s1
