19
gdb 90668	4.59011	1.06443	1.03813	1.3927	76.	-0.2142	0.0619	0.2761	1232.6116	0.158378	-422.958019	-422.949806	-422.948862	-422.990993	31.244	
C	-0.0717008622	 1.4550253638	 0.0569464936	-0.399106
C	-0.0032500398	-0.0550133058	 0.1516459473	 0.141338
O	 0.9415562618	-0.602116906	-0.8271387538	-0.302249
C	 1.7905347922	-1.0669581307	 0.2222942841	-0.007843
C	 0.8145354754	-0.6206150631	 1.3107739	-0.245803
C	 1.0833498286	-2.078989826	 1.0554495336	 0.456227
C	 0.2086466168	-3.2666944929	 0.6774897101	-0.358731
C	 1.0925502142	-4.0199879286	 1.6972242116	-0.079798
O	 1.8181023857	-2.8095530162	 2.0355192093	-0.324127
H	 0.9168173557	 1.8970976505	 0.2113553438	 0.1256
H	-0.4364422724	 1.7529375811	-0.9307190229	 0.127588
H	-0.7570937294	 1.8541679989	 0.8129668065	 0.115463
H	-0.998526572	-0.4983093818	 0.0121003516	 0.079551
H	 2.8662214833	-0.9868542287	 0.1093046878	 0.107674
H	 0.9825728755	-0.1590524524	 2.2753731642	 0.105062
H	-0.8428483429	-3.1781938635	 0.958326856	 0.11371
H	 0.283938771	-3.5900401472	-0.3612778993	 0.125935
H	 0.5785526396	-4.4345891108	 2.5704421656	 0.109611
H	 1.7575067688	-4.7798578504	 1.2718906507	 0.1099
80.4281	115.7666	167.9177	228.879	265.9381	288.4605	407.1826	426.7904	504.2284	618.8983	770.0371	789.4934	802.377	863.7817	872.7312	906.2376	919.4307	959.9162	973.5366	1012.652	1017.7048	1032.9274	1075.299	1096.5646	1109.4751	1129.8652	1161.3251	1167.4856	1206.9397	1208.4303	1225.3019	1260.86	1304.9654	1351.5914	1384.4021	1405.2586	1441.9517	1483.6668	1490.0516	1491.2613	1530.0666	3012.9683	3032.1327	3034.8892	3075.2574	3080.6302	3106.6937	3119.9111	3135.6772	3173.0037	3198.7432
CC1OC2C1C21CCO1	C[C@H]1O[C@H]2[C@@H]1[C@]12CCO1	
InChI=1S/C7H10O2/c1-4-5-6(9-4)7(5)2-3-8-7/h4-6H,2-3H2,1H3	InChI=1S/C7H10O2/c1-4-5-6(9-4)7(5)2-3-8-7/h4-6H,2-3H2,1H3/t4-,5-,6+,7+/m1/s1
