18
gdb 60931	2.5513	1.29474	1.05019	5.2258	69.63	-0.2348	0.0303	0.2652	1178.1542	0.145871	-476.207335	-476.19769	-476.196746	-476.241914	34.642	
C	 1.1623236554	-0.197608406	 0.9579911108	-0.348162
N	 0.013757921	-0.0929895137	 0.0645970233	-0.044591
C	-0.9465709284	 0.86035794	 0.2986567233	 0.152352
O	-0.9749133693	 1.5929936728	 1.2644781181	-0.345177
C	 0.0409537144	-0.8008234078	-1.1723938587	-0.095896
C	 0.0201600734	-2.323554629	-1.1691920253	 0.00527
O	-0.1025129336	-2.9214864998	 0.0931099858	-0.415254
C	-1.1952472226	-1.5656315003	-1.6405280456	 0.073321
O	-2.3360602566	-1.6136324988	-0.8512494381	-0.422904
H	 1.3091392642	-1.2361227743	 1.2615310274	 0.143947
H	 2.0744928519	 0.1636568282	 0.4661352376	 0.117258
H	 0.9588231137	 0.424773272	 1.8291939355	 0.16459
H	-1.7102896994	 0.8744821295	-0.4967877713	 0.096837
H	 0.6579107322	-0.3627966324	-1.9582569706	 0.102099
H	 0.6669959117	-2.84328085	-1.8728544046	 0.101638
H	-0.4958976073	-3.7931673935	-0.029881414	 0.30275
H	-1.4436240328	-1.528915135	-2.6954792278	 0.118205
H	-2.0543539479	-1.9146696019	 0.0238020741	 0.293717
73.2161	114.3114	141.3464	157.9627	205.8492	238.2019	280.2923	293.3604	325.5373	355.088	491.2031	533.0914	589.9903	688.403	729.4568	775.8422	803.4841	881.1409	988.4295	1023.9566	1054.8022	1071.873	1112.1422	1122.7255	1154.7138	1163.3175	1216.1243	1267.0785	1289.954	1322.8451	1368.293	1384.0009	1412.6927	1440.5642	1442.2897	1475.6198	1500.5156	1515.7843	1793.525	3000.1371	3024.2026	3082.9346	3109.0896	3124.3966	3164.4283	3176.2233	3753.7817	3795.7907
CN(C=O)C1C(O)C1O	CN(C=O)[C@H]1[C@@H](O)[C@H]1O	
InChI=1S/C5H9NO3/c1-6(2-7)3-4(8)5(3)9/h2-5,8-9H,1H3	InChI=1S/C5H9NO3/c1-6(2-7)3-4(8)5(3)9/h2-5,8-9H,1H3/t3-,4+,5-
