14
gdb 7035	7.08725	0.82461	0.76668	0.6112	61.05	-0.2547	-0.0469	0.2079	1372.1393	0.102336	-419.705362	-419.696383	-419.695439	-419.742415	28.778	
O	 0.5410894299	-0.1572470954	 0.4159031476	-0.231134
C	 0.2417550601	 0.8632491573	-0.143814371	 0.163684
C	 1.0376266483	 2.1542160807	-0.0014885984	-0.389539
C	 1.1111910498	 2.9429567921	-1.3043551637	 0.361702
O	 0.1773948318	 2.9786699171	-2.0726867864	-0.301676
C	 2.410356424	 3.6848848367	-1.5988119052	-0.389511
C	 2.1769256113	 5.0156545371	-2.3022726207	 0.163681
O	 2.8295741488	 5.9996214204	-2.078333584	-0.231121
H	-0.6411039557	 0.9409056764	-0.8083792769	 0.116621
H	 0.4965521686	 2.7913931085	 0.715181704	 0.169397
H	 2.0183770696	 1.9402670259	 0.4289829374	 0.140948
H	 3.030411226	 3.8370634454	-0.7126298325	 0.140929
H	 2.9799436586	 3.0470078708	-2.2923868706	 0.169398
H	 1.3524544989	 5.003712667	-3.0420211996	 0.116621
11.57	33.8812	81.6385	89.617	163.1911	250.4153	331.4968	452.766	478.3657	500.1528	690.3777	698.8695	794.564	887.2173	953.4783	996.6156	1063.446	1072.5287	1089.611	1165.5425	1211.2795	1278.6758	1325.8969	1409.2926	1410.4137	1423.5675	1432.3902	1791.3675	1834.552	1842.6547	2948.2019	2949.2745	3013.3486	3014.2337	3111.4564	3118.2976
O=CCC(=O)CC=O	O=CCC(=O)CC=O	
InChI=1S/C5H6O3/c6-3-1-5(8)2-4-7/h3-4H,1-2H2	InChI=1S/C5H6O3/c6-3-1-5(8)2-4-7/h3-4H,1-2H2
