23
gdb 120156	3.01748	0.96139	0.84933	1.4621	86.9	-0.2623	0.0794	0.3417	1466.0872	0.205655	-388.240274	-388.230808	-388.229864	-388.274788	36.146	
C	 0.1742736319	 1.3589946084	 0.1328660777	-0.514812
C	 0.0912044495	-0.1442281603	 0.0657882307	 0.335572
C	 0.6007883056	-1.0609903854	-1.0905255794	-0.255238
C	 0.0116800717	-2.0286728614	-0.0277724553	-0.068699
C	 0.750513047	-1.1740400793	 1.0393377537	-0.263533
C	-1.1989524075	-1.0500849933	 0.0754427607	 0.020928
C	-2.1682494758	-1.0990668907	 1.2504008136	-0.238209
C	-3.188124626	 0.0351657966	 1.2156580163	-0.070559
O	-4.0764306058	-0.1444324643	 2.3090548725	-0.420815
H	 1.2149813154	 1.6964270043	 0.0691125006	 0.116586
H	-0.3779734042	 1.8232286361	-0.6920783758	 0.114766
H	-0.2402713378	 1.7410943794	 1.0723279236	 0.119425
H	 0.0686630981	-0.990332294	-2.0444042753	 0.082472
H	 1.6841889287	-1.0979243806	-1.2372892782	 0.083675
H	-0.0332727598	-3.1173513904	-0.0839633781	 0.065631
H	 1.8437046301	-1.2175623192	 1.0195709201	 0.084258
H	 0.3838465268	-1.2092269984	 2.0664844012	 0.091427
H	-1.7686918863	-0.9817246926	-0.861561661	 0.052476
H	-2.7213963817	-2.0467999511	 1.2230872061	 0.105192
H	-1.6560942006	-1.0700460949	 2.2167317037	 0.105893
H	-2.673853819	 1.0076259755	 1.2777597661	 0.087322
H	-3.7301258347	 0.0170767901	 0.2554846856	 0.082261
H	-4.7221121254	 0.5678198955	 2.291997551	 0.283981
73.2134	84.1709	121.9245	213.2397	237.5877	265.5352	298.1788	327.6717	373.5421	393.9664	568.1572	606.4063	630.1768	739.8196	779.7679	814.1806	867.7787	903.2766	906.2613	959.0499	998.5327	1005.7588	1022.016	1029.6429	1061.2825	1069.0134	1092.8089	1124.3575	1149.0178	1151.8382	1177.0583	1200.5507	1219.9495	1221.0264	1235.2132	1250.8663	1255.9184	1311.9408	1320.1546	1337.0893	1408.99	1433.0439	1460.3352	1488.1855	1490.6921	1491.6592	1504.1989	1528.4814	1545.0959	2960.1366	2987.5828	3006.4771	3022.7433	3031.8644	3039.7997	3054.2295	3085.7923	3088.9165	3090.7635	3100.1797	3104.6568	3120.6184	3829.5526
CC12CC(C1)C2CCO	C[C@@]12C[C@@H](C1)[C@H]2CCO	
InChI=1S/C8H14O/c1-8-4-6(5-8)7(8)2-3-9/h6-7,9H,2-5H2,1H3	InChI=1S/C8H14O/c1-8-4-6(5-8)7(8)2-3-9/h6-7,9H,2-5H2,1H3/t6-,7-,8+/m1/s1
