14
gdb 24829	2.70684	1.74458	1.07524	6.9527	76.	-0.2423	-0.0634	0.1789	1033.5763	0.104077	-432.901612	-432.894354	-432.893409	-432.934612	26.929	
N	-0.0722760701	 1.3164073417	 0.214665085	-0.464549
C	-0.0225275649	 0.0471261331	 0.0708380675	 0.149788
C	-1.2786056786	-0.6879028022	 0.0196479814	-0.095873
C	-1.5095482428	-2.00531191	-0.0769079313	-0.011546
N	-0.5843855836	-3.0377772687	-0.0633017734	-0.307876
C	 0.7714305985	-2.9660819225	 0.0768231441	 0.117217
N	 1.5881028607	-1.9827560705	 0.0488061901	-0.303463
C	 1.3479747286	-0.6243728115	-0.1349110587	 0.316123
O	 2.2745097999	 0.10143958	-0.4227505762	-0.305832
H	 0.8859701025	 1.6778120879	 0.1520376379	 0.243008
H	-2.1509955479	-0.0439321141	 0.0223091881	 0.125716
H	-2.5294402177	-2.3649329285	-0.1484376095	 0.13493
H	-0.9648988155	-3.9718451214	-0.0643098237	 0.26918
H	 1.2020289208	-3.9591947432	 0.2252413287	 0.133177
24.1013	115.5622	342.6629	345.6817	375.6482	407.4658	461.067	532.3943	573.8464	629.5558	663.8502	762.836	785.2961	850.34	933.3716	950.5025	971.4556	980.7306	995.5355	1042.6087	1160.8753	1226.7123	1320.1272	1384.5046	1447.0251	1480.7231	1538.5265	1658.9184	1688.9469	1719.2563	1771.2219	3103.0095	3191.2545	3208.5175	3417.7447	3622.5459
N=C1C=CNC=NC1=O	[NH]C1=C[CH]NC=NC1=O	
InChI=1S/C5H5N3O/c6-4-1-2-7-3-8-5(4)9/h1-3H,(H2,6,7,8,9)	InChI=1S/C5H5N3O/c6-4-1-2-7-3-8-5(4)9/h1-3H,(H2,6,7,8,9)
