19
gdb 92171	2.22145	2.02781	1.5045	1.4504	73.72	-0.2427	0.0731	0.3158	957.4577	0.16044	-422.996896	-422.989251	-422.988307	-423.028425	31.453	
O	-0.0151843319	 1.4364161024	-0.0876404202	-0.441728
C	 0.051120727	 0.0135706444	 0.0214322878	 0.013961
C	 0.6928678553	-0.505465316	 1.3368011149	-0.237429
C	-0.5055596952	-0.9177546905	 2.2043772675	-0.056921
C	-1.462038594	 0.2986039817	 2.4526679102	-0.237804
C	-2.2686458286	-0.1500659569	 1.2392690132	-0.112433
C	-1.5500319004	-1.4960890944	 1.2034199303	-0.137872
C	-1.3666857361	-0.5375129272	 0.0704265159	 0.446013
O	-2.0090763764	-0.8249280983	-1.1322322793	-0.494106
H	 0.8787152775	 1.7657208438	-0.2238123768	 0.28172
H	 0.5584413675	-0.4021051626	-0.8602276986	 0.068541
H	 1.3234682978	-1.3760618595	 1.1238133012	 0.096501
H	 1.3196881334	 0.2594054734	 1.8080369264	 0.089352
H	-0.248927515	-1.5113340768	 3.0814743059	 0.067646
H	-2.0325217373	 0.1760293353	 3.3775990058	 0.095632
H	-1.013610557	 1.2961067028	 2.4264881504	 0.099952
H	-3.3138964918	 0.0507512615	 1.033162621	 0.080302
H	-1.9322398809	-2.503540617	 1.1085019462	 0.09095
H	-2.2423225938	 0.0169811738	-1.5394071718	 0.287724
127.7068	236.6201	284.9713	300.7164	327.4231	372.6263	378.0259	431.1499	545.2717	583.1866	656.2331	671.6473	807.3355	843.7544	850.0677	860.4401	886.9405	935.081	956.0307	981.4388	1004.425	1022.5668	1040.6994	1052.7529	1098.3641	1122.9526	1147.4353	1183.6451	1210.9666	1229.087	1231.1038	1257.7001	1278.3479	1290.222	1321.4687	1336.835	1352.6215	1422.8593	1446.8712	1474.2968	1494.0589	3000.1449	3035.8087	3047.879	3081.1727	3098.838	3111.9168	3174.2528	3206.9798	3794.193	3817.8829
OC1CC2CC3C2C13O	O[C@H]1C[C@H]2C[C@@H]3[C@H]2[C@]13O	
InChI=1S/C7H10O2/c8-5-2-3-1-4-6(3)7(4,5)9/h3-6,8-9H,1-2H2	InChI=1S/C7H10O2/c8-5-2-3-1-4-6(3)7(4,5)9/h3-6,8-9H,1-2H2/t3-,4-,5+,6+,7-/m1/s1
