15
gdb 64905	2.03775	1.72164	1.10771	3.0897	73.73	-0.242	0.0035	0.2454	1085.6853	0.109865	-416.75217	-416.742863	-416.741919	-416.78574	34.628	
N	 0.0585066109	 1.4305360776	 0.023042206	-0.556212
C	 0.053217279	-0.0082309955	 0.0228601798	 0.083808
C	-0.4891010089	-0.7211502204	 1.2367284081	-0.364304
C	-1.3215671325	-0.7464145436	-0.0340858965	 0.18189
O	-2.4062614008	 0.1277100044	-0.1185700889	-0.446548
C	-1.4670144921	-1.9761402853	-0.7716741965	 0.258365
N	-1.6079859664	-2.9635272588	-1.3583535277	-0.347969
C	 1.155559256	-0.606037387	-0.6802035218	 0.338036
C	 2.0703734151	-1.0962180139	-1.2848819519	-0.437382
H	 0.2177156273	 1.764281044	-0.9233863358	 0.244954
H	-0.8578594685	 1.7688381942	 0.3033010721	 0.246817
H	-0.0026148163	-1.6359300569	 1.5517435923	 0.153298
H	-0.8777233579	-0.0946007146	 2.0333115467	 0.134347
H	-3.1299987641	-0.2297286423	 0.4095099881	 0.302816
H	 2.8754225192	-1.539748762	-1.8173800841	 0.208085
102.5257	114.5176	185.1864	198.6003	229.6418	273.8813	324.3022	335.673	427.051	434.631	456.2895	547.6768	586.2984	616.5876	636.382	674.1037	682.4071	753.1502	821.107	885.8005	930.8419	970.9983	1050.7616	1082.3655	1193.2288	1219.172	1304.6713	1341.8536	1396.7239	1459.8959	1661.3156	2247.8947	2342.9377	3137.0456	3239.8571	3493.6487	3501.6903	3575.072	3789.2484
NC1(CC1(O)C#N)C#C	N[C@]1(C[C@]1(O)C#N)C#C	
InChI=1S/C6H6N2O/c1-2-5(8)3-6(5,9)4-7/h1,9H,3,8H2	InChI=1S/C6H6N2O/c1-2-5(8)3-6(5,9)4-7/h1,9H,3,8H2/t5-,6-/m0/s1
