15
gdb 33806	3.59181	1.5387	1.3721	4.6978	72.63	-0.2361	-0.0361	0.1999	938.1174	0.114973	-379.64559	-379.639019	-379.638074	-379.676298	27.019	
N	-0.0072440006	-1.139108694	 0.0091168177	-0.336008
C	-0.0055347612	 0.0157708089	 0.0265481547	 0.163795
C	-0.0082151882	 1.4699144302	 0.0102879346	 0.125138
N	-0.5820872939	 2.1220467063	 1.2292576501	-0.298275
C	-0.3767712921	 3.4976947496	 0.679172525	-0.131238
C	 1.1449267694	 3.4066263444	 0.4403629531	-0.061741
C	 1.3800430349	 2.1671864885	 0.0302537542	-0.068697
C	-1.062233838	 3.3853105362	-0.7094286063	-0.094599
C	-0.8405276468	 2.1435640196	-1.1283476655	-0.109036
H	-1.5847620883	 1.9282563482	 1.2413971107	 0.221166
H	-0.7214561761	 4.294094638	 1.3362953715	 0.084479
H	 1.8367515053	 4.2280751954	 0.553976386	 0.121842
H	 2.2958594719	 1.6857009599	-0.2763205552	 0.131662
H	-1.5438125562	 4.1976679334	-1.2355752137	 0.120767
H	-1.0845576602	 1.6664695854	-2.0661318567	 0.130745
153.291	169.0663	414.846	438.1386	495.0986	520.2914	543.6383	576.4085	598.6178	676.7108	724.3687	750.9576	803.8179	828.8529	883.8549	906.3195	910.4391	928.7445	937.0397	950.8227	1030.8395	1079.2579	1085.2871	1133.6407	1234.3224	1238.173	1264.7089	1281.1152	1301.7253	1391.9402	1616.0992	1662.4516	2368.5785	3138.2185	3226.15	3237.7328	3255.2752	3265.9085	3444.7168
N#CC12NC(C=C1)C=C2	N#C[C@@]12N[C@@H](C=C1)C=C2	
InChI=1S/C7H6N2/c8-5-7-3-1-6(9-7)2-4-7/h1-4,6,9H	InChI=1S/C7H6N2/c8-5-7-3-1-6(9-7)2-4-7/h1-4,6,9H/t6-,7+
