18
gdb 46900	3.11555	1.49298	1.17556	2.7332	73.27	-0.2572	0.0182	0.2754	1062.2491	0.149496	-439.067047	-439.059439	-439.058494	-439.099334	29.691	
N	-0.0333369261	 0.6400783961	 1.0656944464	-0.49244
C	 0.0107876798	-0.0813079452	 0.0250044105	 0.336164
C	-1.3330781056	-0.5616610301	-0.5338033581	-0.146512
O	-1.3480804101	-1.7434233669	-1.3157668573	-0.248926
C	-0.6414672675	-2.8021927652	-0.7445912203	 0.113555
C	 0.0603618074	-3.692784645	-1.7170339878	-0.330875
C	 0.8602440838	-2.7082155305	-0.8844568009	-0.068826
C	 1.3342831918	-1.4261229914	-1.5188587795	-0.090283
O	 1.1862603445	-0.3083028136	-0.6228501899	-0.255945
H	 0.9055192214	 0.9674648531	 1.3030482755	 0.219607
H	-2.001729545	-0.6441050895	 0.3311062339	 0.133149
H	-1.7289972925	 0.2235282471	-1.1868025294	 0.137047
H	-1.077441092	-3.2226814713	 0.160779245	 0.097561
H	 0.1448396069	-4.7466954825	-1.4796905311	 0.123304
H	-0.0787854812	-3.4706318395	-2.7693975629	 0.130472
H	 1.4786002967	-3.100755524	-0.0837721485	 0.101429
H	 2.4040158729	-1.4528884993	-1.7393881322	 0.119506
H	 0.7953123147	-1.2313735624	-2.4500427033	 0.122012
68.6624	147.0062	251.9494	283.6899	345.7567	391.0743	441.3103	486.7054	517.9536	649.7798	689.809	787.7963	798.4409	828.1623	863.7687	915.7076	962.5051	977.626	1014.5491	1030.128	1058.1246	1066.8161	1113.3277	1121.3346	1141.98	1169.1194	1181.2825	1217.4161	1285.1863	1290.6623	1321.3904	1368.6492	1384.3569	1405.9997	1431.9425	1478.4669	1486.3375	1507.5312	1731.4144	3037.4838	3063.277	3082.7158	3110.1521	3111.659	3141.8457	3165.7099	3231.6086	3463.0754
N=C1COC2CC2CO1	[NH][C]1CO[C@H]2C[C@H]2CO1	
InChI=1S/C6H9NO2/c7-6-3-8-5-1-4(5)2-9-6/h4-5,7H,1-3H2	InChI=1S/C6H9NO2/c7-6-3-8-5-1-4(5)2-9-6/h4-5,7H,1-3H2/t4-,5-/m0/s1
