20
gdb 84657	2.24762	1.80647	1.29945	1.7246	79.38	-0.2315	0.01	0.2415	1050.8931	0.172956	-403.132614	-403.124398	-403.123454	-403.164949	32.85	
C	-0.5973117235	 1.3619390267	 0.0068386857	-0.412245
C	-0.0390514118	-0.0786208193	-0.0309540337	-0.068397
C	 0.6606247684	-0.3344119457	-1.3446029389	-0.084638
C	 1.9835563007	-0.288455692	-1.5022590633	-0.027633
C	 2.8928952693	-0.0256664148	-0.3597987742	-0.086126
N	 2.6518997234	 1.2256422092	 0.4239789599	-0.343407
C	 2.3289284508	-0.0877632046	 1.0103316141	-0.063794
C	 0.8622497836	-0.4220681224	 1.1927012461	 0.118955
O	 0.3646429527	 0.1306788648	 2.4065836068	-0.441994
H	 0.2156280274	 2.0911913775	-0.0156200376	 0.144505
H	-1.2390715812	 1.5394616173	-0.8618727496	 0.108241
H	-1.2030525032	 1.5146782621	 0.9043896394	 0.116197
H	-0.9053803976	-0.750123428	 0.0291147633	 0.081318
H	 0.0214059428	-0.5091630865	-2.2069276577	 0.089807
H	 2.4325031364	-0.4418988752	-2.4791822699	 0.087822
H	 3.9311321633	-0.3182703321	-0.4897460406	 0.084922
H	 3.5363815876	 1.557821984	 0.8024642737	 0.23114
H	 2.9653817331	-0.452169059	 1.8141561534	 0.087938
H	 0.8082175056	-1.507064056	 1.3438150655	 0.091429
H	 0.5308114422	 1.0793404841	 2.3687818975	 0.285957
97.361	173.1193	233.6853	255.5206	299.5205	343.208	388.646	428.7478	462.6991	502.122	597.2824	677.9273	723.829	755.1493	798.3862	839.5693	875.9406	908.7382	932.6408	967.3854	985.5739	992.9478	1062.3264	1078.5491	1085.7615	1108.8764	1145.0047	1163.7414	1199.5617	1211.7595	1270.8704	1276.2911	1330.1994	1338.0128	1365.2482	1381.3131	1391.0881	1422.2326	1439.4708	1457.4737	1497.5413	1517.7881	1713.4577	3012.0991	3039.522	3042.0309	3107.3464	3126.2959	3136.1865	3143.4638	3149.2824	3176.9308	3486.2046	3803.127
CC1C=CC2NC2C1O	C[C@H]1C=C[C@H]2N[C@H]2[C@H]1O	
InChI=1S/C7H11NO/c1-4-2-3-5-6(8-5)7(4)9/h2-9H,1H3	InChI=1S/C7H11NO/c1-4-2-3-5-6(8-5)7(4)9/h2-9H,1H3/t4-,5+,6+,7-/m0/s1
