15
gdb 125794	3.41867	1.63003	1.1114	4.8678	74.25	-0.216	-0.0067	0.2092	1031.999	0.114971	-416.818971	-416.811821	-416.810876	-416.850406	27.592	
C	-0.0174914591	 1.5119184257	-0.0677415966	-0.510036
C	-0.0083417908	 0.022932874	 0.057725489	 0.271859
N	-0.0386618073	-0.7269555291	-1.0290100847	-0.212666
O	-0.0215229536	-2.0805176799	-0.6281953319	-0.248729
C	 0.0193255136	-2.0967290298	 0.7152352715	 0.414674
C	 0.0295589813	-0.8089967811	 1.2048763823	 0.140848
N	 0.0715348148	-0.8880870403	 2.5778161236	-0.415294
C	 0.086662184	-2.2246134244	 2.9207810962	-0.048834
C	 0.0551861636	-3.0193939344	 1.7884377622	-0.329898
H	 0.8792699487	 1.9510473332	 0.3828562631	 0.133416
H	-0.051491626	 1.7928294848	-1.121749159	 0.156794
H	-0.8873179166	 1.9448517128	 0.4382339715	 0.13337
H	 0.0887269176	-0.1258747412	 3.2305055345	 0.267785
H	 0.1192063477	-2.5172980745	 3.9589116107	 0.129307
H	 0.058345772	-4.0960604957	 1.7652862977	 0.117402
144.7038	171.9902	244.3572	270.1334	343.7058	411.3705	517.4317	610.3701	616.6418	621.9881	683.0699	720.4969	760.2213	799.9962	820.0074	912.6118	933.1129	1026.4588	1065.0099	1070.9431	1088.1858	1146.6384	1253.5796	1314.9581	1389.3546	1414.632	1439.0133	1474.8297	1482.5717	1484.8144	1529.0739	1597.613	1605.0138	3036.8285	3090.3548	3141.3739	3254.9495	3279.9326	3698.2699
CC1=NOC2=C1NC=C2	Cc1noc2c1[nH]cc2	
InChI=1S/C6H6N2O/c1-4-6-5(9-8-4)2-3-7-6/h2-3,7H,1H3	InChI=1S/C6H6N2O/c1-4-6-5(9-8-4)2-3-7-6/h2-3,7H,1H3
