18
gdb 107343	2.98003	1.41226	1.26186	1.617	72.07	-0.2291	0.0142	0.2433	1061.2581	0.148121	-439.063996	-439.055786	-439.054842	-439.096907	30.713	
C	-1.2447633825	-0.2440870828	-0.336368023	-0.258734
O	 0.1144826349	-0.0024122932	-0.0062755723	-0.28267
C	 0.5416291779	-0.5452554603	 1.2046055838	 0.368082
C	 1.9016798491	-1.162439242	 1.1938937506	-0.338468
C	 0.6657574365	-2.0402969365	 1.3778773486	-0.065984
N	 0.41357429	-2.6238359956	 2.6607931284	-0.252902
C	 0.3079770243	-1.8406013676	 3.6486580488	 0.115735
O	 0.3554251547	-0.4828249776	 3.6654461055	-0.229393
C	 0.0673697194	 0.2038356149	 2.4388868242	-0.146488
H	-1.9384922756	 0.3001001942	 0.3186724396	 0.113206
H	-1.3839874207	 0.111351665	-1.3596079546	 0.133033
H	-1.4873135588	-1.3134654617	-0.2899600327	 0.119348
H	 2.3972703092	-1.2094816988	 0.2312957701	 0.128624
H	 2.5507891745	-1.0235229502	 2.0518037307	 0.127813
H	 0.4057926184	-2.6807369157	 0.5421230557	 0.102697
H	 0.1901206915	-2.2243912639	 4.6593820407	 0.126566
H	 0.5453783982	 1.1842412948	 2.5210887146	 0.127073
H	-1.0179128309	 0.3552679969	 2.3805230313	 0.112462
91.6119	122.046	160.2583	189.666	282.0176	338.0344	380.6206	482.4303	488.6946	533.4487	578.8924	710.4438	815.8576	859.5154	909.5291	924.7307	934.2573	973.988	1006.1038	1036.513	1072.5376	1091.559	1105.0598	1138.4448	1167.3189	1180.0152	1213.059	1252.0819	1278.9587	1319.9041	1368.4262	1408.2416	1416.0483	1467.9407	1485.4374	1493.5615	1506.2911	1514.4991	1719.4415	2999.7899	3024.8882	3058.0453	3084.7589	3123.8405	3137.3617	3166.8067	3170.8347	3233.9788
COC12CC1N=COC2	CO[C@]12C[C@H]1N=COC2	
InChI=1S/C6H9NO2/c1-8-6-2-5(6)7-4-9-3-6/h4-5H,2-3H2,1H3	InChI=1S/C6H9NO2/c1-8-6-2-5(6)7-4-9-3-6/h4-5H,2-3H2,1H3/t5-,6+/m1/s1
