17
gdb 47857	2.5055	1.74153	1.16281	1.8026	71.17	-0.2458	-0.0156	0.2302	1043.1083	0.138225	-455.17731	-455.169426	-455.168481	-455.210164	29.435	
O	-0.0147531432	 0.0107176377	-0.3145317912	-0.36874
C	-0.0254671308	 1.1827192188	-0.0428484115	 0.455673
N	-1.1671273466	 1.8703644897	 0.3047190427	-0.360171
C	-1.3884354286	 3.2540341847	 0.4864884431	 0.100767
N	-0.8608357121	 4.2896515461	 0.0020380993	-0.214672
C	 0.1824198911	 4.4593923587	-0.9906172892	-0.129654
C	 0.603975955	 3.3138367071	-1.9352373505	-0.246129
C	 1.5845793803	 2.3494372434	-1.2776879359	-0.09078
O	 1.0815930822	 1.9736761417	 0.0131832642	-0.241246
H	-1.9559510499	 1.2693008821	 0.4974508352	 0.264631
H	-2.2204612173	 3.4020205114	 1.1807156712	 0.115712
H	-0.1534445522	 5.3017502377	-1.6075367445	 0.117353
H	 1.0695303931	 4.8318778766	-0.4587331973	 0.122851
H	-0.2804305459	 2.7783363709	-2.2995837595	 0.119858
H	 1.0832072381	 3.7502437675	-2.8198561815	 0.107366
H	 1.7674721542	 1.4537549943	-1.8820394653	 0.126807
H	 2.5409586425	 2.8385326015	-1.0764435292	 0.120373
71.328	102.0468	207.5761	215.3828	332.0994	339.4227	445.9108	487.9344	556.1087	603.5724	630.5666	746.718	809.0389	838.9261	859.9624	888.9709	917.4066	933.5296	972.8254	1041.5558	1080.8971	1124.9268	1135.0564	1246.5119	1264.6145	1272.701	1319.0641	1378.5861	1396.38	1412.4911	1448.1891	1467.9271	1483.4291	1497.4328	1507.5455	1785.8399	1836.8372	3012.4027	3031.4226	3045.2018	3050.4646	3073.4467	3083.2866	3110.1853	3608.0724
O=C1NC=NCCCO1	O=C1NC=NCCCO1	
InChI=1S/C5H8N2O2/c8-5-7-4-6-2-1-3-9-5/h4H,1-3H2,(H,6,7,8)	InChI=1S/C5H8N2O2/c8-5-7-4-6-2-1-3-9-5/h4H,1-3H2,(H,6,7,8)
