16
gdb 44150	3.42778	1.14146	1.04211	2.5919	69.5	-0.2517	0.0008	0.2525	1162.3387	0.124599	-437.845071	-437.837527	-437.836583	-437.877907	28.401	
O	-0.2057256814	 0.0947143212	-0.0135546989	-0.339289
C	-0.1099287074	 1.2872427052	-0.0520360866	 0.413698
N	-1.0792833743	 2.3095342233	 0.0005874979	-0.341539
C	-0.0622625748	 3.3627983665	-0.0259906999	-0.023777
C	 0.9517334058	 3.2268942446	 1.0731763168	-0.049518
C	 0.6472842324	 2.741776521	 2.4511332321	 0.068976
C	 1.606422115	 2.9092028129	 3.5498831937	-0.184405
O	 0.4640403337	 3.7604491671	 3.4407461569	-0.238205
C	 1.0220974998	 2.3064541752	-0.1562531261	-0.252693
H	-1.8716443272	 2.2962679344	 0.6328181279	 0.248744
H	-0.2073350995	 4.2547529416	-0.6207020504	 0.120346
H	 1.7159476826	 4.0020285892	 1.0516507882	 0.108997
H	-0.0607637316	 1.917259831	 2.5236525547	 0.107884
H	 1.5959316071	 2.2115331757	 4.3857286554	 0.123181
H	 2.5658223523	 3.3876255488	 3.3564582781	 0.115839
H	 1.8865509172	 2.2661778625	-0.8029906499	 0.121758
58.3868	106.1619	176.4174	269.3953	334.8162	449.8625	459.9997	554.1363	632.8846	732.1307	755.1647	807.0998	829.8815	857.0183	875.9494	914.3921	939.2792	969.7531	1021.5156	1055.0894	1075.3088	1080.4315	1097.3886	1134.538	1157.0566	1166.1235	1217.2329	1258.5195	1300.1171	1315.1954	1330.5434	1352.6796	1479.4975	1530.708	1899.1741	3083.4494	3120.758	3135.3091	3171.7822	3207.3033	3228.9487	3551.1396
O=C1NC2C(C3CO3)C12	O=C1N[C@H]2[C@@H]([C@H]3CO3)[C@@H]12	
InChI=1S/C6H7NO2/c8-6-4-3(2-1-9-2)5(4)7-6/h2-5H,1H2,(H,7,8)	InChI=1S/C6H7NO2/c8-6-4-3(2-1-9-2)5(4)7-6/h2-5H,1H2,(H,7,8)/t2-,3+,4-,5+/m1/s1
