17
gdb 61738	3.79853	0.82194	0.72337	3.6685	76.96	-0.2555	-0.0685	0.187	1511.2374	0.131144	-421.815354	-421.805131	-421.804187	-421.852164	34.993	
C	 0.2977655186	 1.4596563292	 0.0302728923	-0.406186
C	-0.038792684	-0.0433745878	-0.0223465376	-0.120354
C	-1.554317265	-0.3029014825	-0.0642769525	-0.280719
C	-2.1947258967	-0.0352071425	 1.277263197	 0.15399
O	-3.0895148409	 0.7438652297	 1.4788358042	-0.238938
C	 0.6588521784	-0.7273418845	-1.1992963712	 0.230152
O	 0.0677757503	-1.3571724379	-2.0485556774	-0.291177
C	 2.1070665131	-0.5946363197	-1.2361352156	 0.261311
C	 3.3070946649	-0.500508921	-1.2552812485	-0.386867
H	 1.3754222969	 1.6226558813	 0.1014922284	 0.136658
H	-0.07022961	 1.9699358114	-0.8655686307	 0.136008
H	-0.178867313	 1.9239832777	 0.8979985703	 0.139749
H	 0.3841621987	-0.5120157916	 0.8804134708	 0.109598
H	-2.0414748157	 0.3108074199	-0.826293427	 0.129639
H	-1.7263471815	-1.3555197571	-0.3217825983	 0.138504
H	-1.7618811932	-0.6363454574	 2.1135768141	 0.070443
H	 4.3672236389	-0.4248563973	-1.2884017284	 0.218188
37.5146	51.588	61.4502	133.6196	194.8399	214.628	235.2501	276.0276	346.1585	371.0939	441.8302	536.8535	602.8061	648.1782	704.0523	718.8652	783.0275	802.3523	918.2573	956.1728	1008.799	1069.4022	1094.2608	1122.6488	1167.345	1235.8973	1266.5191	1312.0709	1366.7174	1415.5462	1430.2718	1459.1577	1496.589	1503.508	1766.5854	1836.8533	2209.8401	2838.1521	2990.708	3042.0158	3045.8891	3111.5773	3116.0167	3132.4997	3492.1759
CC(CC=O)C(=O)C#C	C[C@@H](CC=O)C(=O)C#C	
InChI=1S/C7H8O2/c1-3-7(9)6(2)4-5-8/h1,5-6H,4H2,2H3	InChI=1S/C7H8O2/c1-3-7(9)6(2)4-5-8/h1,5-6H,4H2,2H3/t6-/m0/s1
