18
gdb 70536	2.83231	1.49678	1.14907	3.6325	71.71	-0.2584	0.0047	0.263	1087.4894	0.148572	-439.108314	-439.100267	-439.099323	-439.140862	30.786	
C	 0.2236740966	 1.5237676526	-0.1646840525	-0.449404
C	-0.0014210498	 0.048475081	 0.0749740595	 0.30162
C	-1.431716164	-0.4282490533	-0.1183792313	-0.413683
C	-1.6584139735	-1.9170489629	 0.0989316039	 0.391508
O	-2.4992974206	-2.5472844193	-0.4784225836	-0.316884
O	-0.8458726223	-2.5559972133	 0.9831553711	-0.225477
C	 0.0705685694	-1.8270883013	 1.809591736	-0.112398
C	 0.7762958938	-0.7029632886	 1.0856079421	-0.060441
N	 1.1135478996	-0.8309421962	-0.3375923126	-0.3707
H	 1.2753891008	 1.776730265	-0.0123371412	 0.133625
H	-0.0437119252	 1.7948132403	-1.1920983728	 0.126071
H	-0.3858739762	 2.1311939697	 0.5136118538	 0.116429
H	-2.0875938714	 0.1105043652	 0.5803211122	 0.139502
H	-1.803604346	-0.2018662338	-1.1219271174	 0.143895
H	-0.4627212639	-1.4310829129	 2.6848098472	 0.12155
H	 0.7812250148	-2.578765913	 2.1652023263	 0.135683
H	 1.5233299554	-0.1931392663	 1.6915707679	 0.098867
H	 0.7770140824	-1.718619683	-0.7060219389	 0.240238
91.9798	152.5393	197.4344	239.7323	285.8575	354.631	377.5427	444.722	505.3501	549.856	603.9417	710.718	742.1878	802.3151	829.992	884.1974	937.5308	970.0034	992.0109	1053.9372	1071.9775	1098.5024	1118.9177	1153.6798	1176.3473	1196.3119	1241.7044	1265.8881	1291.9114	1330.4956	1355.1723	1408.9394	1422.083	1452.8391	1469.6448	1489.8711	1499.9066	1513.4505	1852.6474	3015.7205	3020.4142	3032.3261	3086.0812	3090.2372	3093.9473	3124.8418	3127.0122	3488.2171
CC12CC(=O)OCC1N2	C[C@]12CC(=O)OC[C@H]1N2	
InChI=1S/C6H9NO2/c1-6-2-5(8)9-3-4(6)7-6/h4,7H,2-3H2,1H3	InChI=1S/C6H9NO2/c1-6-2-5(8)9-3-4(6)7-6/h4,7H,2-3H2,1H3/t4-,6+/m1/s1
