14
gdb 15750	6.92588	1.07058	0.99179	1.4764	62.95	-0.2697	-0.0356	0.2341	1139.5219	0.107275	-415.86041	-415.85271	-415.851766	-415.893275	26.504	
N	-0.048305395	 1.2588012332	 0.5056447384	-0.41431
C	 0.012623148	 0.0669239803	 0.1131142743	 0.115964
O	-1.1452111671	-0.6762969487	 0.1467007091	-0.206333
C	-1.0933474991	-1.9678748238	-0.2989635869	 0.485396
O	-0.1000652799	-2.5067795625	-0.7185702962	-0.368954
C	-2.4271398061	-2.6103446914	-0.1875956315	-0.137126
C	-2.8673225136	-3.4173887439	-1.3722387878	-0.216892
N	-2.4557670203	-4.0800274469	-0.1440900902	-0.299896
H	 0.8701810868	 1.6941658803	 0.4330456268	 0.243102
H	 0.8667712342	-0.495666661	-0.2632461608	 0.14703
H	-3.1574845524	-2.0924983211	 0.4224538926	 0.124982
H	-3.9287473802	-3.4616862479	-1.5960054816	 0.136404
H	-2.2003399177	-3.4393784099	-2.2290333043	 0.138055
H	-1.4967042277	-4.4100518966	-0.2501111522	 0.252578
67.4238	106.8161	140.4223	167.7165	286.4196	310.1274	388.5477	532.503	721.3938	765.1438	834.2408	854.5024	879.1689	934.4969	978.6501	1011.0582	1034.3908	1071.5217	1117.5459	1135.6098	1176.6012	1198.1476	1258.8336	1284.9265	1317.1096	1386.5424	1411.0798	1496.9935	1748.912	1815.7379	3118.6306	3142.8806	3190.5782	3213.7534	3480.4677	3509.2631
N=COC(=O)C1CN1	[NH][CH]OC(=O)[C@H]1CN1	
InChI=1S/C4H6N2O2/c5-2-8-4(7)3-1-6-3/h2-3,5-6H,1H2	InChI=1S/C4H6N2O2/c5-2-8-4(7)3-1-6-3/h2-3,5-6H,1H2/t3-/m1/s1
