20
gdb 74495	2.88215	1.40107	1.05957	1.6052	82.59	-0.2256	0.0318	0.2575	1190.9661	0.17181	-403.166347	-403.157956	-403.157011	-403.199191	32.608	
C	 0.007317837	 1.452873319	-0.046337806	-0.453437
C	-0.064507111	-0.0428064078	 0.0317206261	 0.377136
N	-1.1689199798	-0.6690644233	-0.0197040156	-0.347442
C	-1.1622643064	-2.1045978986	-0.0088123287	 0.380429
C	-2.1158159012	-2.7527648075	 0.9747525017	-0.30514
C	-2.4287562095	-2.7595730835	-0.4997472178	-0.314074
C	 0.1806639798	-2.7435789698	-0.3034887558	-0.301141
C	 1.2447298442	-1.97435577	 0.469345753	-0.078612
O	 1.185667221	-0.5778440481	 0.1566226444	-0.262116
H	 0.6453806857	 1.7575848296	-0.8824098631	 0.136407
H	-0.9937203674	 1.8605461169	-0.1805964785	 0.141798
H	 0.4550586369	 1.8618724497	 0.8653934401	 0.134449
H	-1.8064607287	-3.6817931915	 1.4430698162	 0.106102
H	-2.6889365019	-2.0881260591	 1.6097319954	 0.1208
H	-3.2080970903	-2.0943202159	-0.8518506234	 0.121884
H	-2.3399617908	-3.6950392085	-1.0423227995	 0.106891
H	 0.1991675846	-3.8013474442	-0.0224793058	 0.100908
H	 0.4015222344	-2.6810383722	-1.3763525494	 0.111294
H	 1.0995859373	-2.0990025013	 1.5506471386	 0.110799
H	 2.2591932462	-2.2923428539	 0.2173300282	 0.113064
98.6215	136.2277	175.3096	223.5076	260.4913	345.6613	391.8486	411.1817	469.418	525.8015	614.0313	642.3375	740.3695	779.0044	853.0847	884.925	894.466	930.0163	945.5774	966.0293	998.2844	1051.9143	1062.9909	1067.7448	1075.2201	1097.0796	1116.9592	1192.9723	1211.5712	1236.9794	1274.9442	1314.4621	1336.133	1378.4526	1403.3864	1414.8385	1454.3564	1476.077	1476.3851	1478.8883	1494.1809	1511.3155	1738.1051	3019.3477	3031.1262	3045.2075	3083.2588	3099.8575	3100.6003	3130.6418	3135.1609	3165.6993	3219.9869	3233.7676
CC1=NC2(CC2)CCO1	CC1=NC2(CC2)CCO1	
InChI=1S/C7H11NO/c1-6-8-7(2-3-7)4-5-9-6/h2-5H2,1H3	InChI=1S/C7H11NO/c1-6-8-7(2-3-7)4-5-9-6/h2-5H2,1H3
