21
gdb 39993	3.13166	1.47545	1.24268	0.1036	87.03	-0.2323	0.0284	0.2607	1091.915	0.184652	-349.943305	-349.93574	-349.934796	-349.975431	31.032	
C	-0.4704054631	 1.2765447318	 0.2478179128	-0.321122
C	 0.9867292738	 1.0314059359	-0.066951923	-0.324789
C	 0.0357257823	-0.1233341045	 0.050772473	 0.394992
C	 0.0747214695	-1.2321610649	 1.113151626	-0.319536
C	-0.5047737041	-2.218772977	 0.0487576333	-0.049902
C	-1.9895597786	-2.4463023889	 0.1159316285	-0.073814
C	-2.6576862766	-1.7663473378	-0.8158944266	-0.055786
C	-1.7515076931	-0.9611284537	-1.7204513312	-0.271107
C	-0.3645836519	-1.1167674674	-1.0613014531	-0.10882
H	-0.7354505078	 1.5813263924	 1.2556053142	 0.109202
H	-1.0900453883	 1.7207796345	-0.5250241681	 0.110324
H	 1.3448664124	 1.2991290695	-1.0566697828	 0.107258
H	 1.7169671969	 1.1762875311	 0.7236170824	 0.107483
H	 1.0874915025	-1.4900626923	 1.4390570509	 0.093996
H	-0.5489967757	-1.0761254207	 1.9986958667	 0.094895
H	 0.0635971003	-3.1458545136	-0.0747286404	 0.067759
H	-2.4440895908	-3.0908415397	 0.8617332249	 0.087046
H	-3.7354197306	-1.7815057361	-0.9425355475	 0.087354
H	-1.7660660292	-1.3522411662	-2.7471803259	 0.099718
H	-2.063965678	 0.0883811441	-1.7921821289	 0.100904
H	 0.4338665701	-1.2805676565	-1.788979915	 0.063945
55.1839	208.554	241.7548	277.1826	324.9136	428.1764	454.8732	539.6887	686.6819	746.9324	765.5395	768.7391	788.5131	845.838	851.2791	890.4639	906.6162	921.5017	944.4004	967.4741	977.5684	1018.8966	1023.9457	1041.4892	1051.0425	1069.8227	1077.4547	1128.4176	1138.2226	1172.3001	1187.9371	1197.2651	1230.4674	1250.88	1273.1974	1292.5373	1304.678	1327.4345	1373.8583	1378.8449	1463.1909	1480.2845	1483.0952	1501.65	1680.5139	3008.9543	3037.4974	3040.9784	3051.5384	3075.9245	3089.2063	3116.175	3122.3669	3171.3413	3193.1055	3197.2946	3208.9926
C1CC11CC2C=CCC12	C1CC21C[C@H]1C=CC[C@@H]21	
InChI=1S/C9H12/c1-2-7-6-9(4-5-9)8(7)3-1/h1-2,7-8H,3-6H2	InChI=1S/C9H12/c1-2-7-6-9(4-5-9)8(7)3-1/h1-2,7-8H,3-6H2/t7-,8-/m1/s1
