19
gdb 84510	2.98125	1.63822	1.40474	1.9987	78.94	-0.221	0.0047	0.2257	999.7034	0.160205	-385.838219	-385.830768	-385.829824	-385.869635	30.37	
C	-0.1104501831	 1.6203060008	-0.0099046994	-0.392337
C	 0.000519357	 0.0880283472	-0.0064537685	-0.117094
C	 0.8006753423	-0.4717821108	-1.1899924388	-0.057484
C	 1.7854492182	-1.3089031622	-0.8339796982	-0.18881
C	 1.858152064	-1.3884635854	 0.6448267717	 0.363582
C	 2.1883589704	-0.193527571	 1.4840528584	-0.371261
C	 0.7369500257	-0.5254513911	 1.1855210524	 0.140728
C	 0.3485300799	-1.8038614991	 1.9400035274	-0.142293
O	 1.5106464394	-2.5328936852	 1.4449567799	-0.325305
H	 0.8755301972	 2.0917734243	 0.0469052065	 0.118055
H	-0.5973690482	 1.9759885929	-0.9239948266	 0.112699
H	-0.7000027784	 1.9674419578	 0.8437967552	 0.12021
H	-1.0222168769	-0.3152746804	-0.0428976916	 0.085004
H	 0.5957897074	-0.1626983683	-2.2120750279	 0.09588
H	 2.4595439609	-1.8163227363	-1.5143744537	 0.104678
H	 2.5636858471	-0.3536123746	 2.4906229727	 0.119727
H	 2.6068589394	 0.6605553111	 0.9646252055	 0.123441
H	 0.3280452112	-1.7669458244	 3.0360101039	 0.103862
H	-0.5799891435	-2.2541216257	 1.5686204611	 0.106719
140.1486	221.4448	240.9293	269.6496	320.8763	403.5643	427.3857	537.6173	573.5393	641.6707	691.8456	778.029	788.8413	821.228	852.815	894.9975	919.6031	947.5548	966.5799	975.8634	997.4276	1024.5697	1061.8963	1064.8311	1094.6418	1128.7774	1151.8433	1158.6278	1214.4736	1232.0829	1297.5527	1323.5791	1348.6851	1369.8107	1381.2436	1411.168	1466.5853	1496.5661	1500.031	1510.3715	1637.4229	2992.5462	3013.3931	3035.5898	3064.02	3102.6168	3111.5413	3125.235	3162.4595	3202.7686	3225.532
CC1C=CC23CC12CO3	C[C@H]1C=C[C@@]23C[C@@]12CO3	
InChI=1S/C8H10O/c1-6-2-3-8-4-7(6,8)5-9-8/h2-3,6H,4-5H2,1H3	InChI=1S/C8H10O/c1-6-2-3-8-4-7(6,8)5-9-8/h2-3,6H,4-5H2,1H3/t6-,7+,8+/m0/s1
