18
gdb 23037	4.10279	0.95582	0.93782	1.7044	77.85	-0.239	-0.0034	0.2356	1308.873	0.146089	-439.046903	-439.037794	-439.03685	-439.081639	32.834	
C	 1.2438200963	 0.6288767841	 0.2433991713	-0.471675
C	-0.0160752003	-0.1827854837	 0.1585908589	 0.36668
N	-0.9930388763	-0.1065908034	 0.9785879322	-0.177143
O	-0.7412343199	 0.8202598211	 2.0000452114	-0.396798
C	-0.1959201682	-1.1838171377	-0.963678659	 0.002186
O	 0.0227435784	-0.5386041707	-2.2242252163	-0.275449
C	 0.9645627009	-1.2709595737	-3.0057807703	-0.11477
C	 1.4585917148	-2.3626039159	-2.0989132479	-0.103946
C	 0.8015207104	-2.3182776405	-0.9465226304	-0.091386
H	 1.9637281471	 0.3141762117	-0.5126490847	 0.124566
H	 1.0197692404	 1.6904365992	 0.0966247881	 0.148499
H	 1.6912954978	 0.5364877247	 1.2376386615	 0.141711
H	-1.5501628755	 0.7731754816	 2.5205687695	 0.306458
H	-1.2280012332	-1.5587778645	-0.9015510918	 0.09767
H	 0.4773590157	-1.6743654317	-3.908506315	 0.107624
H	 1.7648632443	-0.5962722171	-3.3441348827	 0.109041
H	 2.2205582743	-3.075329755	-2.3881610357	 0.110577
H	 0.912481263	-2.9809878785	-0.0982515589	 0.116156
57.805	70.6322	91.8565	160.6413	234.2441	284.1863	350.6369	380.7529	407.2882	450.2291	577.0991	664.7431	727.6696	771.9079	816.4651	840.9883	924.8759	934.1158	960.635	980.9231	1022.9754	1037.8044	1049.728	1053.9599	1104.5881	1121.3362	1197.8577	1274.9567	1290.1673	1325.4722	1347.0996	1381.0293	1400.1223	1404.3884	1469.9802	1483.9114	1521.3014	1687.5903	1729.7144	2971.3008	2998.5229	3002.453	3047.9068	3103.66	3148.3099	3209.1264	3234.5705	3818.0181
CC(=NO)C1OCC=C1	CC(=NO)[C@H]1OCC=C1	
InChI=1S/C6H9NO2/c1-5(7-8)6-3-2-4-9-6/h2-3,6,8H,4H2,1H3	InChI=1S/C6H9NO2/c1-5(7-8)6-3-2-4-9-6/h2-3,6,8H,4H2,1H3/t6-/m0/s1
