22
gdb 59474	2.88273	1.08636	0.99316	1.4948	83.17	-0.2243	0.0835	0.3078	1338.6443	0.19249	-404.297042	-404.287323	-404.286379	-404.33177	36.204	
C	-1.4636827458	 0.878375624	 0.2151326518	-0.383532
C	-0.2395789677	 0.0052354899	-0.0689533242	 0.071888
C	 0.8921692891	 0.8199313881	-0.7001229281	-0.386306
N	 0.2360878054	-0.5507423024	 1.206981985	-0.09641
C	-0.453522315	-1.7188551403	 1.7453540347	-0.261812
C	 0.9386376144	-1.8360560918	 1.2314620184	-0.031483
C	 1.2308762385	-2.6461031082	 0.0027403093	 0.044066
C	 0.9243815925	-4.0839778391	-0.0507491308	-0.175888
O	 0.1345094214	-3.1367437872	-0.7715614189	-0.22163
H	-1.2051866867	 1.6823056605	 0.9117995793	 0.119658
H	-1.8400386774	 1.3263115937	-0.7097723141	 0.109393
H	-2.2723830646	 0.2903227617	 0.6597996772	 0.112579
H	-0.5362418463	-0.7914147751	-0.767765314	 0.094178
H	 1.2043125293	 1.6230651247	-0.0249944432	 0.12093
H	 1.766991487	 0.1961291695	-0.9079965056	 0.107967
H	 0.5659416339	 1.2657604102	-1.6448824534	 0.11073
H	-0.6513232614	-1.7101611385	 2.814195291	 0.109145
H	-1.2256980668	-2.1801918318	 1.1322371909	 0.125637
H	 1.7640470715	-1.8598417493	 1.9438056047	 0.092781
H	 2.0679321736	-2.2944245457	-0.6025015333	 0.10114
H	 1.532076013	-4.7460742395	-0.6651357896	 0.11803
H	 0.4291560319	-4.5511997033	 0.7986851529	 0.118938
67.5456	86.7009	128.7918	200.1147	216.9133	241.0071	262.3505	289.2158	345.705	399.397	473.4303	544.1567	636.7579	715.2112	751.3629	858.4502	891.0588	906.0905	930.1405	936.8689	961.4971	988.1053	1020.7958	1059.1097	1097.0549	1102.8439	1122.9686	1145.1488	1153.7218	1168.223	1173.7774	1189.255	1197.1674	1286.7169	1322.3695	1366.0952	1376.2095	1396.568	1401.1066	1415.7801	1427.1046	1482.3094	1486.6037	1495.2449	1501.651	1509.9022	1522.2348	2993.8191	3033.5104	3038.3157	3087.9599	3092.8792	3094.7883	3102.2826	3106.5502	3107.9172	3108.58	3115.0683	3179.022	3181.6902
CC(C)N1CC1C1CO1	CC(C)N1C[C@H]1[C@H]1CO1	
InChI=1S/C7H13NO/c1-5(2)8-3-6(8)7-4-9-7/h5-7H,3-4H2,1-2H3	InChI=1S/C7H13NO/c1-5(2)8-3-6(8)7-4-9-7/h5-7H,3-4H2,1-2H3/t6-,7+,8?/m0/s1
