16
gdb 112145	3.28326	1.13249	0.87342	3.0598	67.86	-0.2629	-0.074	0.1888	1259.844	0.123923	-475.04592	-475.037521	-475.036577	-475.079886	30.579	
O	 0.1341221542	 1.3280457775	 0.1791872586	-0.416655
C	 0.0266911733	-0.0590581523	-0.0416206601	-0.066355
C	-1.4212662958	-0.5251111524	-0.0669902987	 0.083929
C	-1.6241490281	-2.0315873202	-0.2410531502	-0.376797
C	-2.6758359601	-2.3861838467	 0.8042442737	 0.334395
O	-3.2992596457	-3.40404057	 0.9047572352	-0.26725
C	-2.7815048052	-1.1797555764	 1.7240166304	 0.308991
N	-3.4744851429	-1.1404579657	 2.7770545267	-0.493955
O	-1.9994824113	-0.1831945484	 1.2309053577	-0.266825
H	-0.3130310801	 1.5158812588	 1.0122316419	 0.295953
H	 0.487852897	-0.265177808	-1.0136531293	 0.121714
H	 0.5713321107	-0.642607087	 0.719377129	 0.09621
H	-1.9749549043	 0.050440171	-0.8166818624	 0.111466
H	-1.9429003941	-2.3256790167	-1.2420501269	 0.153269
H	-0.7091555892	-2.5894682174	-0.00375732	 0.149538
H	-3.3928290685	-0.2314925261	 3.2381074644	 0.232371
44.6873	104.2862	119.1337	218.1646	327.1865	361.1955	385.003	415.4459	435.9572	570.55	601.8867	632.4784	698.3463	736.8522	857.7287	892.0196	915.5186	1002.3969	1040.4131	1058.3211	1093.0134	1101.0655	1151.1788	1183.208	1236.7245	1257.6374	1296.6564	1337.5152	1375.9269	1399.8547	1433.8732	1449.6827	1492.3547	1757.9739	1868.0288	2971.2459	3039.5798	3055.4286	3078.1293	3127.823	3465.3096	3806.2408
OCC1CC(=O)C(=N)O1	OC[C@H]1CC(=O)[C]([NH])O1	
InChI=1S/C5H7NO3/c6-5-4(8)1-3(2-7)9-5/h3,6-7H,1-2H2	InChI=1S/C5H7NO3/c6-5-4(8)1-3(2-7)9-5/h3,6-7H,1-2H2/t3-/m1/s1
