18
gdb 75036	2.15051	1.78749	1.06231	2.6739	83.7	-0.2082	-0.0189	0.1892	1134.1797	0.149403	-402.011222	-402.003113	-402.002169	-402.043777	31.351	
C	-0.0606830816	 1.5087212925	 0.0501853984	-0.478388
C	 0.0204199235	 0.0116182717	-0.0279726896	 0.261922
C	 0.0692630524	-0.6606128068	-1.1938135578	-0.156975
C	 0.0119570388	-2.1002138255	-1.3228385311	-0.109528
C	-0.6550617224	-2.9411515158	-0.5047368809	-0.023595
N	-1.3961440418	-2.5929293212	 0.618300439	-0.308977
C	-1.2242424322	-1.5338267364	 1.4971540954	 0.382179
O	-2.0364939443	-1.3029217639	 2.3675319713	-0.357088
C	 0.060472285	-0.7455141988	 1.2811273168	-0.402939
H	 0.7838628165	 1.9248695285	 0.614575647	 0.126779
H	-0.0726078622	 1.966379034	-0.9423127303	 0.122281
H	-0.9700165651	 1.820337599	 0.5805221747	 0.14105
H	 0.1460221787	-0.0948546827	-2.1201653132	 0.087628
H	 0.4827058446	-2.5506339358	-2.1914841094	 0.094995
H	-0.6895633146	-4.0020848006	-0.7323248074	 0.11194
H	-2.1595714765	-3.2004173604	 0.8812413302	 0.255584
H	 0.9002053025	-1.4524210432	 1.2737387457	 0.128218
H	 0.1688384486	-0.0735437744	 2.1330250911	 0.124916
107.7273	125.5824	197.0007	250.5125	332.6831	353.1486	379.6773	462.3158	488.3277	573.5598	594.6414	621.1625	680.7594	763.8647	817.2356	859.1965	900.1578	922.735	948.8958	965.3679	980.9745	1055.3581	1065.1224	1104.4544	1157.8232	1242.3752	1252.7251	1306.3622	1323.1021	1370.9018	1411.4779	1453.9825	1467.12	1476.2763	1478.1863	1490.8566	1659.7213	1701.2448	1797.349	3014.0195	3024.7325	3060.3716	3114.0941	3130.0953	3143.3817	3165.8224	3184.8267	3603.1176
CC1=CC=CNC(=O)C1	CC1=CC=CNC(=O)C1	
InChI=1S/C7H9NO/c1-6-3-2-4-8-7(9)5-6/h2-4H,5H2,1H3,(H,8,9)	InChI=1S/C7H9NO/c1-6-3-2-4-8-7(9)5-6/h2-4H,5H2,1H3,(H,8,9)
