17
gdb 74713	2.30198	1.71321	1.4563	1.733	74.64	-0.2349	-0.0003	0.2346	993.318	0.134605	-421.820963	-421.812613	-421.811669	-421.853659	31.768	
C	-0.0332257029	 1.4867086193	-0.0536834248	-0.511319
C	 0.0668938427	 0.002136868	-0.0476296747	 0.296416
C	 0.075435568	-0.9071772415	-1.0422686597	-0.198563
C	 0.0300616261	-2.252758584	-0.3348968094	-0.194715
C	 1.0156111794	-2.0073764313	 0.8492821342	-0.275813
C	 0.0220185548	-0.8489015666	 1.2174805407	 0.211213
O	-0.0012139351	-0.1594024975	 2.4130728367	-0.481801
C	-1.086008684	-1.872154195	 0.7184554542	 0.357029
O	-2.1684226063	-2.2252682233	 1.0545493824	-0.312228
H	 0.8011966306	 1.945848439	 0.488697701	 0.138292
H	-0.0419345998	 1.8759491313	-1.075328387	 0.125153
H	-0.9483603681	 1.8176568879	 0.4513253004	 0.14273
H	-0.0112757818	-0.745113042	-2.1074717208	 0.107248
H	 0.0149576607	-3.1751147577	-0.9075315757	 0.089367
H	 1.0348271309	-2.820003089	 1.5842230374	 0.101458
H	 2.0206430717	-1.6856036522	 0.5670718714	 0.110718
H	-0.3685184769	-0.7341819656	 3.0931465536	 0.294813
99.911	148.6706	167.5609	233.2055	238.7202	284.6821	404.8424	458.2902	488.3764	561.8352	576.4596	667.0507	743.5815	751.6704	790.3209	820.0793	843.9148	937.8506	953.1598	961.7593	1014.2388	1032.6998	1063.1755	1090.6361	1133.9116	1154.317	1221.1294	1248.4798	1285.3083	1290.8661	1399.4194	1412.6951	1471.6581	1479.141	1484.7999	1661.7874	1904.384	3028.4461	3042.2216	3078.9537	3115.6671	3125.9673	3170.871	3229.2344	3812.6599
CC1=CC2CC1(O)C2=O	CC1=C[C@H]2C[C@]1(O)C2=O	
InChI=1S/C7H8O2/c1-4-2-5-3-7(4,9)6(5)8/h2,5,9H,3H2,1H3	InChI=1S/C7H8O2/c1-4-2-5-3-7(4,9)6(5)8/h2,5,9H,3H2,1H3/t5-,7+/m0/s1
