18
gdb 19208	2.60714	2.56523	2.49379	1.1405	65.84	-0.2402	0.0766	0.3168	739.0754	0.15765	-384.947598	-384.941271	-384.940327	-384.977961	25.368	
C	-0.0368791011	 1.5502774939	-0.0085304867	-0.21197
C	 1.4315876287	 2.0609993203	 0.0179256456	-0.211993
C	 2.3450643036	 0.8274809343	 0.02146744	 0.083119
C	 2.0316581173	-0.0513728392	 1.2331920381	-0.071922
O	 0.6483102106	-0.4246207734	 1.2103568639	-0.282166
C	 0.0118191339	 0.0162532005	 0.0087895303	 0.083102
C	 0.8084649919	-0.4948758434	-1.1925070211	-0.071923
O	 2.1249525567	 0.0708065705	-1.171088381	-0.282168
H	-0.5978409723	 1.8970225465	 0.8632632841	 0.106592
H	-0.5678308518	 1.8990436255	-0.9003000991	 0.100107
H	 1.6605865086	 2.6691740841	-0.8610514325	 0.106594
H	 1.6275224533	 2.6758460171	 0.9024568123	 0.100105
H	 3.4026353819	 1.1036218976	 0.0126650707	 0.077937
H	 2.653132142	-0.9566158104	 1.2085299005	 0.101555
H	 2.2394745541	 0.4837774996	 2.1697473622	 0.096764
H	-0.9890579129	-0.4229737259	 0.018850036	 0.077941
H	 0.8822954241	-1.5900009323	-1.1528722046	 0.101562
H	 0.3178895514	-0.2166211653	-2.1351891089	 0.096765
97.2224	293.4906	305.0436	378.2594	411.9051	526.0588	554.6843	693.6248	812.5436	824.3599	835.1584	873.4989	884.2359	930.3846	950.0981	963.4122	1032.4695	1066.2608	1086.065	1095.9508	1103.0559	1136.9831	1209.0725	1234.8312	1244.0994	1268.5172	1271.2085	1333.3524	1340.6575	1347.3301	1362.4776	1374.8439	1406.4613	1409.9016	1477.0706	1495.2593	1514.2318	1521.6054	3000.5383	3002.8487	3036.2995	3039.3348	3044.6279	3053.6661	3080.4602	3082.529	3087.6148	3106.5814
C1CC2COC1CO2	C1C[C@H]2CO[C@@H]1CO2	
InChI=1S/C6H10O2/c1-2-6-4-7-5(1)3-8-6/h5-6H,1-4H2	InChI=1S/C6H10O2/c1-2-6-4-7-5(1)3-8-6/h5-6H,1-4H2/t5-,6-/m0/s1
