21
gdb 112568	3.66796	0.91889	0.88443	1.755	80.83	-0.2423	0.0172	0.2595	1414.0714	0.18102	-424.233848	-424.224047	-424.223103	-424.268541	36.917	
C	-0.0203990574	 1.5700326408	-0.0116273329	-0.434508
C	 0.0238249004	 0.0407463889	 0.0244625779	 0.359568
O	-1.3208109169	-0.4758085333	-0.00686218	-0.473638
C	 0.7615218051	-0.5935242154	-1.1792558616	-0.27048
C	 1.5405533611	-1.8111706334	-0.6246277668	-0.021119
C	 2.9202393189	-1.9789625476	-1.2560457087	-0.089831
O	 3.5242707382	-3.132381064	-0.6883844152	-0.42362
C	 1.5817291787	-1.5346029035	 0.8608128282	-0.069083
C	 0.7864968314	-0.5260443811	 1.2079879605	-0.132945
H	 0.9874452235	 1.9973528214	-0.0111725241	 0.113741
H	-0.549527543	 1.9138184944	-0.905683152	 0.121702
H	-0.5501294952	 1.9619011898	 0.8650339063	 0.100749
H	-1.7409807944	-0.2506078217	 0.830220212	 0.270531
H	 0.0479286244	-0.8560558769	-1.9629305689	 0.112975
H	 1.4664684357	 0.1339588146	-1.5971306321	 0.092843
H	 0.9938415228	-2.7468136278	-0.8051844413	 0.096422
H	 2.8153034448	-2.0801430088	-2.3485367335	 0.085926
H	 3.5226308658	-1.075892478	-1.0631529897	 0.082575
H	 4.4090693268	-3.2216319876	-1.0537171085	 0.286869
H	 2.1894095817	-2.1294990358	 1.5327924056	 0.107798
H	 0.6344461677	-0.1568561549	 2.218339555	 0.083526
43.6347	119.4654	183.1187	214.5214	235.3433	249.3832	265.2317	307.4292	315.179	397.1492	412.6483	478.4177	569.8637	617.4939	705.6709	796.1143	826.0202	852.524	883.749	933.9936	942.0514	982.8792	1001.381	1050.6651	1070.4271	1090.4777	1123.2719	1127.3897	1148.6117	1184.2915	1222.043	1242.823	1265.8798	1294.0572	1323.4136	1342.8951	1357.7872	1393.4805	1405.0392	1454.897	1474.5685	1490.1436	1491.7812	1520.7374	1684.4904	2958.3712	2987.4382	3018.8624	3025.024	3046.0259	3091.407	3110.5321	3114.1166	3167.3699	3209.734	3804.4571	3832.7924
CC1(O)CC(CO)C=C1	C[C@@]1(O)C[C@@H](CO)C=C1	
InChI=1S/C7H12O2/c1-7(9)3-2-6(4-7)5-8/h2-3,6,8-9H,4-5H2,1H3	InChI=1S/C7H12O2/c1-7(9)3-2-6(4-7)5-8/h2-3,6,8-9H,4-5H2,1H3/t6-,7-/m0/s1
