15
gdb 123970	3.81361	1.62024	1.14742	4.5325	72.82	-0.1967	0.0154	0.2121	986.2815	0.117394	-413.016198	-413.009357	-413.008413	-413.047483	26.606	
C	 0.0126641032	 1.4623943778	-0.0898508281	-0.266377
N	 1.3156096708	 2.0704952189	 0.2112726388	-0.259038
C	 2.3544528781	 1.348261388	 0.3350669754	 0.076741
N	 2.4560925381	-0.0312031868	 0.2101395051	-0.442438
C	 1.2573266928	-0.7355765213	 0.1265196412	 0.250166
C	 0.9223444255	-2.0706859995	 0.1494294804	-0.172042
N	-0.437246458	-2.0942961887	 0.0250271808	-0.188886
N	-0.9906965952	-0.8708613564	-0.0788673997	-0.304782
C	 0.0407095428	-0.0371465811	-0.0192700301	 0.29273
H	-0.7293958582	 1.8754424674	 0.6050139725	 0.126116
H	-0.30001012	 1.8045732261	-1.0872888345	 0.123342
H	 3.3089218426	 1.8310535558	 0.5466535491	 0.109534
H	 3.2911852005	-0.4824690366	 0.5444116131	 0.249704
H	 1.5066485352	-2.9710492377	 0.2451264879	 0.1299
H	-1.0335501883	-2.9026377459	 0.003221858	 0.275329
84.899	236.9017	320.1272	332.1962	415.8223	426.572	499.7341	541.6414	623.2591	648.9475	699.3231	739.4302	756.4423	905.4159	937.7201	954.4891	962.7012	1025.206	1066.7979	1105.8753	1184.7759	1216.8989	1241.6713	1313.1295	1337.1205	1401.3656	1420.1372	1467.753	1482.1859	1494.1582	1540.8695	1656.8207	1735.146	2994.7188	3030.5203	3127.8017	3267.7174	3644.6651	3689.2294
C1N=CNC2=CNN=C12	C1N=CNc2c[nH]nc12	
InChI=1S/C5H6N4/c1-5-4(2-8-9-5)7-3-6-1/h2-3H,1H2,(H,6,7)(H,8,9)	InChI=1S/C5H6N4/c1-5-4(2-8-9-5)7-3-6-1/h2-3H,1H2,(H,6,7)(H,8,9)
