18
gdb 83710	2.62553	1.70477	1.22063	3.6849	71.78	-0.2423	0.0281	0.2704	1036.8645	0.149406	-439.116797	-439.108936	-439.107992	-439.149346	29.961	
C	-0.6978069899	 1.378840949	 0.1416157397	-0.398481
C	-0.0319254517	 0.0147611955	-0.036139475	-0.133921
C	 0.8517886421	-0.1432383576	-1.270807999	 0.10908
O	 1.6378100031	 1.0293655721	-1.5908326878	-0.285453
C	 2.8773516204	 0.3084150716	-1.4245315404	-0.080817
C	 2.132675592	-0.9081046769	-0.8346000461	-0.06378
N	 2.0241426073	-0.9400839591	 0.6017954714	-0.309801
C	 0.9075868363	-0.3376565421	 1.1320415378	 0.404355
O	 0.7008716149	-0.1494521089	 2.3091747501	-0.375726
H	 0.0332863996	 2.1796523412	 0.0108479326	 0.139751
H	-1.5016701019	 1.5252682596	-0.5853592641	 0.111894
H	-1.1150762834	 1.4457781741	 1.1492369877	 0.141071
H	-0.8029047619	-0.767697721	-0.054245574	 0.103066
H	 0.3271893352	-0.5207909499	-2.1542279162	 0.081622
H	 3.3648543341	 0.1118959855	-2.3885161032	 0.102982
H	 3.5738675885	 0.8244451175	-0.7549706769	 0.110415
H	 2.3512657321	-1.8870171433	-1.2671211501	 0.092586
H	 2.7810793531	-1.2131325375	 1.2094580936	 0.251157
81.6154	132.3745	206.2501	234.4151	251.9948	396.2656	460.9453	483.5299	518.4361	636.8707	661.9969	721.3377	784.3934	836.202	875.9503	902.9282	937.3808	975.2573	1017.0812	1053.4235	1063.4224	1118.1423	1119.369	1139.9114	1168.2501	1222.274	1239.9221	1268.7198	1292.524	1324.0778	1352.7538	1360.9053	1379.9198	1403.9794	1426.7981	1492.1867	1506.3776	1513.6406	1830.7469	3012.7842	3019.1422	3050.8782	3055.4735	3072.683	3083.4726	3123.5895	3139.0569	3631.9984
CC1C2OCC2NC1=O	C[C@H]1[C@H]2OC[C@H]2NC1=O	
InChI=1S/C6H9NO2/c1-3-5-4(2-9-5)7-6(3)8/h3-5H,2H2,1H3,(H,7,8)	InChI=1S/C6H9NO2/c1-3-5-4(2-9-5)7-6(3)8/h3-5H,2H2,1H3,(H,7,8)/t3-,4+,5+/m0/s1
