20
gdb 115744	2.97701	1.10131	0.87803	3.4946	75.69	-0.2391	0.0654	0.3044	1342.8474	0.170818	-440.219997	-440.211012	-440.210068	-440.254629	32.898	
O	 0.0014604155	 1.3993175264	-0.1548859775	-0.426236
C	-0.0124289621	 0.0697669964	 0.3324813106	-0.068034
C	-1.3812595063	-0.5452914856	 0.0813873974	 0.092604
O	-1.6850105904	-0.4917768898	-1.3410552555	-0.305762
C	-1.6484879677	-1.9326201238	-1.4486444395	-0.090277
C	-1.5119860877	-2.0903112737	 0.0789544252	-0.024322
N	-0.3598605465	-2.8404745368	 0.5323787051	-0.060035
C	-0.3975408045	-3.3116039228	 1.9162678813	-0.225022
C	-0.5819446266	-4.2630118447	 0.7883894517	-0.226116
H	-0.314840571	 1.3429611573	-1.0655111219	 0.290667
H	 0.7650483276	-0.5480907443	-0.1369567353	 0.101011
H	 0.1975640931	 0.1149448315	 1.4066091295	 0.104205
H	-2.1451649578	-0.0040121348	 0.652168605	 0.081062
H	-2.5606808823	-2.3285269065	-1.9077429042	 0.104751
H	-0.7716995666	-2.2878768335	-2.0030869209	 0.110208
H	-2.4458722462	-2.4293144282	 0.5548676028	 0.065021
H	 0.5452408683	-3.266936805	 2.4528493771	 0.124384
H	-1.2756160022	-3.0705175322	 2.5132237234	 0.114971
H	-1.5839205881	-4.6590173274	 0.6306337175	 0.113604
H	 0.2232736414	-4.9260825426	 0.4870581782	 0.123315
60.8591	81.0484	115.8358	130.6307	229.396	284.1469	315.4948	422.5846	472.7995	480.9946	556.5334	721.3299	807.0039	827.0964	878.9583	897.4332	926.5273	940.7223	1013.6167	1024.8037	1041.1994	1076.8122	1091.5734	1101.4662	1112.6456	1121.7679	1132.0904	1165.8795	1175.0479	1201.9996	1215.5729	1261.3525	1284.7091	1321.4911	1333.7232	1348.3195	1394.9598	1396.9055	1435.6552	1490.1385	1502.6984	1516.291	1519.492	2963.7612	3014.2972	3025.2082	3038.6582	3076.0697	3078.5032	3096.3063	3101.1506	3182.8924	3196.803	3777.2944
OCC1OCC1N1CC1	OC[C@H]1OC[C@H]1N1CC1	
InChI=1S/C6H11NO2/c8-3-6-5(4-9-6)7-1-2-7/h5-6,8H,1-4H2	InChI=1S/C6H11NO2/c8-3-6-5(4-9-6)7-1-2-7/h5-6,8H,1-4H2/t5-,6-/m1/s1
