22
gdb 86389	2.48007	1.45423	1.09603	2.4429	81.07	-0.2321	0.0698	0.3019	1197.6624	0.194883	-404.348099	-404.338956	-404.338012	-404.381422	35.88	
C	 0.0010682603	 1.5230720314	-0.0536050107	-0.407215
C	-0.0202624238	-0.0061122885	-0.0025724906	-0.010689
C	 0.6534250857	-0.678184815	-1.2217267089	-0.269699
C	 1.2226574419	-2.0362690482	-0.73151405	 0.153315
O	 2.4003104615	-2.4392885243	-1.4074509562	-0.443685
C	 1.4212715511	-1.8270840396	 0.7595844638	-0.135473
N	 2.1863032714	-0.5769343203	 1.0134285443	-0.391102
C	 0.7119836512	-0.6068273961	 1.2018558605	 0.34143
C	 0.1378703698	-0.4355961914	 2.5843936383	-0.497572
H	 1.0337342757	 1.8863773342	-0.0382715589	 0.128794
H	-0.4762175207	 1.8924568591	-0.96703977	 0.112578
H	-0.5288634619	 1.9657123128	 0.7965904642	 0.107497
H	-1.0641409977	-0.3448191467	 0.0626097559	 0.067712
H	-0.0287537936	-0.7971432923	-2.0671675964	 0.096844
H	 1.4917416465	-0.0642761966	-1.5651962219	 0.106652
H	 0.5021677673	-2.8457646587	-0.8947486978	 0.083646
H	 3.0770640824	-1.7975650239	-1.157652447	 0.284136
H	 1.5789529675	-2.6794166317	 1.413547878	 0.081877
H	 2.6349509507	-0.6454765613	 1.924217754	 0.225979
H	 0.1543462041	 0.6149839855	 2.8958239117	 0.127498
H	-0.9034951728	-0.7745340124	 2.6206966718	 0.124212
H	 0.7035846732	-1.0128760561	 3.3233803358	 0.113266
99.1242	134.3775	213.7734	219.2774	235.6966	254.007	310.0097	394.9146	423.0713	449.5128	487.3679	547.1733	585.2416	639.1747	669.293	828.1633	866.755	878.6086	926.6554	929.5832	977.44	1004.4854	1019.2351	1045.5304	1059.7782	1081.4077	1109.8928	1122.6849	1143.3133	1156.487	1209.1262	1268.8495	1294.5697	1299.5867	1331.3208	1335.7942	1356.6924	1377.5141	1403.6966	1414.4392	1434.039	1448.2811	1483.2403	1485.2348	1496.5641	1502.6569	1503.3999	3002.8218	3024.7722	3030.9782	3048.5708	3058.6995	3087.951	3094.9626	3096.5561	3104.348	3108.598	3158.1514	3492.2968	3777.8189
CC1CC(O)C2NC12C	C[C@H]1C[C@@H](O)[C@H]2N[C@@]12C	
InChI=1S/C7H13NO/c1-4-3-5(9)6-7(4,2)8-6/h4-6,8-9H,3H2,1-2H3	InChI=1S/C7H13NO/c1-4-3-5(9)6-7(4,2)8-6/h4-6,8-9H,3H2,1-2H3/t4-,5+,6+,7-/m0/s1
