19
gdb 72856	2.98697	1.25259	1.0626	1.8824	81.58	-0.2408	0.0411	0.2819	1193.3842	0.157826	-385.8259	-385.817214	-385.816269	-385.859399	33.246	
C	-0.6569832099	 1.5415503061	-0.091832771	-0.499622
C	-0.1294004074	 0.1270694547	-0.0259442163	 0.308029
C	-1.1133122296	-1.0161301217	 0.304141947	-0.124208
O	-0.2424884973	-1.5380382922	 1.3369650067	-0.289408
C	 0.7066723355	-0.4802315564	 1.1408417313	 0.06402
C	 1.8457509281	-0.8904643301	 0.1483790155	-0.184423
C	 0.9839524058	-0.2955103389	-1.0272150092	-0.310498
C	 3.1275973252	-0.2537596494	 0.3644738209	 0.305616
C	 4.1733160208	 0.3082666079	 0.560043722	-0.453896
H	 0.1608102755	 2.2695528821	-0.1040075965	 0.125888
H	-1.249344826	 1.6955337104	-1.0021957247	 0.121689
H	-1.2991807264	 1.7686055519	 0.7659908138	 0.121603
H	-2.0712209531	-0.6845393594	 0.7259093135	 0.100396
H	-1.3059978975	-1.7482057763	-0.490433421	 0.099418
H	 0.9920612964	 0.0238617556	 2.0675537478	 0.085185
H	 1.9515573926	-1.9784581051	 0.1156765842	 0.11309
H	 0.6870522185	-1.0117502762	-1.7974799377	 0.104801
H	 1.4728131515	 0.5545516807	-1.5063263452	 0.11725
H	 5.1056880273	 0.7869170262	 0.7297713788	 0.195069
48.7737	145.9388	176.4434	214.4374	256.1081	331.294	364.5482	379.3287	455.4683	520.7539	614.166	625.2742	629.9872	685.647	804.5554	851.4448	883.6653	912.132	961.8249	989.9398	997.1691	1018.6801	1023.7018	1036.5107	1108.69	1150.4797	1166.9642	1178.1919	1219.506	1234.5529	1257.9661	1275.676	1303.6908	1331.8484	1381.4184	1414.2485	1478.4306	1492.069	1494.6163	1523.3325	2230.4796	3003.8815	3022.7947	3049.9874	3063.6966	3069.8558	3081.9099	3085.9837	3099.3773	3125.9143	3504.4008
CC12COC1C(C2)C#C	C[C@]12CO[C@H]1[C@@H](C2)C#C	
InChI=1S/C8H10O/c1-3-6-4-8(2)5-9-7(6)8/h1,6-7H,4-5H2,2H3	InChI=1S/C8H10O/c1-3-6-4-8(2)5-9-7(6)8/h1,6-7H,4-5H2,2H3/t6-,7+,8+/m1/s1
