20
gdb 92094	2.89736	1.45944	1.05883	2.01	80.37	-0.2353	0.0234	0.2587	1167.0742	0.172291	-403.141794	-403.133673	-403.132729	-403.174334	31.941	
C	-0.5942281446	 1.3946831825	 0.0482996173	-0.383668
C	 0.1352782604	 0.0457543281	 0.0204975401	 0.064476
C	 0.7984578459	-0.2110093402	-1.3445050105	-0.238662
C	 1.1851902413	-1.6659516299	-1.4912656893	-0.043694
C	 2.5559928247	-2.0834304647	-1.9793598517	-0.32737
C	 2.1853329003	-2.2362299354	-0.5331072865	 0.115713
O	 2.851523877	-1.409857462	 0.3952410527	-0.23553
C	 2.160312835	-0.576043472	 1.2345540672	 0.118425
N	 1.0575422653	 0.0222335343	 1.152116857	-0.256719
H	 0.1065517292	 2.2135043762	-0.1471552582	 0.115663
H	-1.3839272982	 1.4286972117	-0.7092597438	 0.102994
H	-1.0396719853	 1.5631334471	 1.0314618803	 0.123199
H	-0.613588715	-0.742643875	 0.1930791993	 0.084859
H	 0.1153208085	 0.0761144708	-2.1522831899	 0.099643
H	 1.677278656	 0.438072736	-1.4353788099	 0.106766
H	 0.3588799436	-2.3283226109	-1.7374016849	 0.092151
H	 2.6593563919	-2.9777629956	-2.5833674505	 0.11668
H	 3.2572546964	-1.2898987644	-2.2140949848	 0.126735
H	 2.0312164873	-3.2370540498	-0.1381401245	 0.101308
H	 2.7804926503	-0.4184268368	 2.1182194708	 0.117032
85.4331	150.3559	234.5883	265.6853	302.9992	349.9167	370.4024	399.1	447.0415	574.754	609.8686	750.0127	791.7236	821.2995	830.7072	872.049	906.8444	929.6389	963.326	993.1491	1016.4477	1048.4655	1069.4276	1104.0786	1110.3499	1134.7816	1138.4083	1175.4094	1180.6135	1245.137	1256.2288	1307.3185	1351.6864	1360.6124	1387.897	1406.0673	1417.8103	1437.8557	1480.237	1486.4314	1491.7251	1499.4071	1758.4483	2983.8924	3030.6686	3037.1259	3070.5538	3103.9174	3125.3362	3125.7601	3130.6623	3136.3021	3142.5944	3226.5919
CC1CC2CC2OC=N1	C[C@H]1C[C@H]2C[C@H]2OC=N1	
InChI=1S/C7H11NO/c1-5-2-6-3-7(6)9-4-8-5/h4-7H,2-3H2,1H3	InChI=1S/C7H11NO/c1-5-2-6-3-7(6)9-4-8-5/h4-7H,2-3H2,1H3/t5-,6-,7+/m0/s1
