20
gdb 88699	3.31356	1.05503	0.87679	0.8031	87.42	-0.2291	0.0345	0.2636	1368.6782	0.168968	-365.932122	-365.922754	-365.92181	-365.966522	35.405	
C	-0.0452480706	 1.6287446677	-0.0055801768	-0.401977
C	-0.0219081032	 0.1167535406	-0.0325612203	-0.017487
C	 1.2717317199	-0.6309532026	-0.2631595717	-0.308355
C	 0.6010636647	-0.6899947244	 1.084143515	 0.060398
N	 1.2297951262	 0.0273543053	 2.1602757043	-0.087901
C	 0.6223876347	-0.0597216948	 3.4750851882	-0.246035
C	 1.9331816414	-0.7427937443	 3.2059793177	-0.176147
C	 2.0013360589	-2.1779985744	 3.1723219622	 0.345556
C	 2.0979334977	-3.3767765103	 3.141242981	-0.474092
H	 0.8392093195	 2.0220218594	 0.5002554881	 0.131879
H	-0.0718179475	 2.0355430277	-1.0224377318	 0.111577
H	-0.927650211	 2.003404316	 0.5256140157	 0.110538
H	-0.9070280943	-0.3388255871	-0.4697204648	 0.082188
H	 1.2724071554	-1.5222841067	-0.8803995647	 0.109515
H	 2.177660596	-0.036845132	-0.320354732	 0.117262
H	 0.109450309	-1.6259239282	 1.3514592981	 0.085112
H	 0.604260306	 0.8562973106	 4.0597686535	 0.119969
H	-0.2438329316	-0.7070104473	 3.599000117	 0.121688
H	 2.842117434	-0.2576536849	 3.5546747644	 0.116644
H	 2.1782973947	-4.4353495604	 3.118194687	 0.199668
48.3157	103.8647	161.0278	187.86	210.6651	245.4466	309.209	355.4097	437.0933	498.451	535.3894	595.3958	634.9515	664.0095	733.0283	783.738	798.9927	850.0264	875.8988	913.2632	957.8428	1001.3215	1030.2491	1055.2886	1073.906	1087.6697	1113.8274	1117.7118	1144.331	1148.4285	1188.2177	1197.1737	1231.563	1326.2985	1370.222	1382.9178	1413.6729	1421.7391	1484.4883	1496.7382	1502.4538	1506.4665	2232.4506	3031.3572	3086.1542	3090.2009	3096.3864	3122.2006	3128.0044	3134.5346	3140.7327	3185.8831	3222.449	3503.4975
CC1CC1N1CC1C#C	C[C@H]1C[C@H]1N1C[C@H]1C#C	
InChI=1S/C8H11N/c1-3-7-5-9(7)8-4-6(8)2/h1,6-8H,4-5H2,2H3	InChI=1S/C8H11N/c1-3-7-5-9(7)8-4-6(8)2/h1,6-8H,4-5H2,2H3/t6-,7+,8+,9?/m0/s1
