18
gdb 32921	4.71823	0.84386	0.74908	2.6929	76.84	-0.2003	0.0306	0.2308	1532.9165	0.148666	-435.296711	-435.287679	-435.286735	-435.331194	33.064	
C	 0.0541993456	 1.4921898582	 0.0492367999	-0.394196
C	 0.4245007633	 0.0134094355	 0.0185602455	-0.119105
N	 0.2998616454	-0.5209879574	-1.3467322242	-0.408464
C	 0.7086130253	-1.8242051217	-1.5518082121	 0.303937
C	 1.7174188427	-2.4029236559	-2.2367510162	-0.137209
N	 1.6935776754	-3.7869778002	-2.0863226657	-0.344056
C	 0.6629615472	-3.9880905218	-1.3209642399	 0.458242
N	 0.143859232	-5.1978924914	-0.9259218505	-0.586618
O	-0.001426671	-2.885216786	-0.934343801	-0.220612
H	 0.6900225033	 2.0652825365	-0.6314903043	 0.129476
H	-0.9886744517	 1.644468426	-0.2530192589	 0.113845
H	 0.1668487268	 1.8967592757	 1.0592442044	 0.1192
H	 1.4677773523	-0.1239942003	 0.3226117612	 0.114027
H	-0.194614108	-0.5441403118	 0.7391538503	 0.095606
H	-0.6271911457	-0.3406889996	-1.7199469405	 0.228899
H	 2.4674279102	-1.9086776066	-2.8337902111	 0.118107
H	 0.8064995766	-5.9528295187	-1.0270706961	 0.268189
H	-0.3174851097	-5.1866090606	-0.0279997209	 0.260732
58.9784	73.6193	104.1654	243.5029	254.3774	292.4278	318.3593	348.4233	417.2666	483.3894	607.6724	623.0503	658.4427	732.1621	759.8809	795.2775	822.635	876.288	913.5485	927.8062	1006.9584	1060.9791	1088.8359	1136.4455	1168.888	1178.7232	1205.1054	1289.067	1296.872	1381.1357	1412.6155	1438.9188	1476.1134	1496.4942	1499.0954	1521.3681	1598.1408	1670.2796	1701.4007	2977.567	3033.6238	3064.2219	3101.9801	3121.8352	3264.5523	3501.7653	3572.135	3680.3768
CCNC1=CN=C(N)O1	CCNc1cnc(N)o1	
InChI=1S/C5H9N3O/c1-2-7-4-3-8-5(6)9-4/h3,7H,2H2,1H3,(H2,6,8)	InChI=1S/C5H9N3O/c1-2-7-4-3-8-5(6)9-4/h3,7H,2H2,1H3,(H2,6,8)
