19
gdb 103867	2.7635	1.19108	0.97531	2.3854	71.91	-0.2389	0.058	0.2969	1245.2568	0.157674	-460.113645	-460.104442	-460.103498	-460.147823	34.477	
O	 0.3967919681	 0.7722566956	 0.4324204072	-0.42909
C	-0.1802971993	 0.078898246	-0.6790470923	-0.162918
C	-1.5176998146	-0.5027375124	-0.2844764748	 0.394701
O	-2.3715206205	 0.4626756964	 0.2601203604	-0.470572
C	-2.1808666796	-1.5568303177	-1.110498187	-0.360521
C	-1.6562592139	-1.9178916639	 0.2666366802	-0.10689
C	-0.5142621767	-2.8682881744	 0.4357082839	 0.039715
C	-0.4522631551	-4.162079865	-0.2622264389	-0.172295
O	 0.3616806435	-3.0629547524	-0.6804236421	-0.231224
H	 0.726819387	 0.1090103673	 1.0476902885	 0.287422
H	-0.3353486725	 0.8438144541	-1.4470462619	 0.119031
H	 0.4898218402	-0.6886646712	-1.0774104218	 0.130651
H	-1.807260181	 1.0049984832	 0.8282980157	 0.285036
H	-3.2538919879	-1.4785427207	-1.2415217482	 0.124124
H	-1.6303589906	-1.9417935562	-1.962827328	 0.128606
H	-2.4071077741	-1.9970455983	 1.0483391587	 0.09898
H	 0.01117217	-2.8027680672	 1.3916859687	 0.08728
H	 0.0880022546	-4.996079777	 0.1825731144	 0.11727
H	-1.2543551476	-4.4301127561	-0.9473062227	 0.120693
72.1534	88.4814	154.9859	181.7319	237.2964	308.4426	318.8846	343.1158	381.7649	482.5411	518.0319	545.929	598.6634	753.0837	775.3242	847.5122	889.8235	923.7246	931.8415	949.2162	999.5722	1009.3113	1044.4149	1081.9947	1089.3868	1108.7034	1119.5028	1159.5456	1173.4336	1189.9506	1252.0809	1273.9013	1305.1609	1363.3846	1378.1297	1406.3502	1421.6789	1438.6934	1494.7689	1502.9155	1520.3147	3050.3572	3073.1227	3089.5723	3103.535	3134.77	3149.9766	3180.4222	3228.6382	3752.0574	3812.7384
OCC1(O)CC1C1CO1	OC[C@@]1(O)C[C@H]1[C@H]1CO1	
InChI=1S/C6H10O3/c7-3-6(8)1-4(6)5-2-9-5/h4-5,7-8H,1-3H2	InChI=1S/C6H10O3/c7-3-6(8)1-4(6)5-2-9-5/h4-5,7-8H,1-3H2/t4-,5+,6-/m0/s1
