16
gdb 125069	3.03097	1.37558	0.98646	2.7213	74.96	-0.213	0.0051	0.2181	1153.269	0.126543	-430.255405	-430.247102	-430.246157	-430.288927	30.164	
C	 1.0634208728	 0.9022228497	-0.5175825668	-0.522573
C	 0.1989038787	-0.2721486858	-0.2081965204	 0.266761
C	-0.549393716	-1.1729018659	-0.946572232	 0.303302
N	-0.7810038128	-1.3331810807	-2.3148710433	-0.373682
C	 0.0874187511	-1.1477991408	-3.3568624675	 0.074958
N	 1.2530245855	-0.6417457136	-3.2405766796	-0.456297
N	-1.2187197403	-2.0084468941	-0.1027019062	-0.2635
N	-0.9306383086	-1.6952682436	 1.1281107985	-0.124965
N	-0.0788876777	-0.6637371516	 1.0669956813	-0.210635
H	 1.5757757266	 0.7293989495	-1.4654816108	 0.193297
H	 0.4704912556	 1.8204939785	-0.6077023504	 0.134714
H	 1.8037453167	 1.0610805985	 0.2735756679	 0.117726
H	-1.5840786655	-1.9146458034	-2.4999331683	 0.262501
H	-0.3612402516	-1.4778710636	-4.3010181964	 0.095833
H	 1.7011314757	-0.5845509292	-4.1512559062	 0.224625
H	 0.2843049295	-0.272106204	 1.9219093802	 0.277936
45.1993	124.1605	198.4569	214.3951	243.4695	289.9817	368.6282	430.532	528.5184	573.5268	605.0643	695.0477	697.417	740.2771	793.748	838.4616	997.2267	1028.885	1039.2065	1068.781	1115.4028	1129.0213	1198.9641	1251.0546	1292.273	1306.9605	1376.9106	1415.3248	1416.3508	1469.6047	1489.2318	1511.7307	1580.0003	1647.0502	1726.3928	3024.9986	3053.0875	3082.3734	3137.2995	3522.1165	3629.1182	3649.7972
CC1=C(NC=N)N=NN1	Cc1c(NC=N)nn[nH]1	
InChI=1S/C4H7N5/c1-3-4(6-2-5)8-9-7-3/h2H,1H3,(H3,5,6,7,8,9)	InChI=1S/C4H7N5/c1-3-4(6-2-5)8-9-7-3/h2H,1H3,(H3,5,6,7,8,9)
