18
gdb 41771	3.37359	1.56905	1.12685	3.6442	78.52	-0.2365	0.0018	0.2383	1069.654	0.150719	-401.973045	-401.965789	-401.964844	-402.005123	28.18	
C	-0.055913959	 1.5042992337	 0.200356544	-0.154805
C	 1.4356955512	 1.9336607694	 0.1625602384	-0.247432
C	 2.154844168	 0.6143402299	 0.4945119541	-0.159012
C	 3.4706756781	 0.3029120959	-0.15870835	-0.078371
C	 3.7490813318	-0.9622907505	-0.459514371	-0.093925
C	 2.771045661	-2.0651780848	-0.1668151028	-0.121402
O	 1.3909198823	-1.6677666047	-0.1701022745	-0.257074
C	 1.0890144702	-0.379586356	 0.0515432452	 0.4135
N	-0.0881033308	 0.0683215954	-0.1095793642	-0.291334
H	-0.4994451438	 1.6776149861	 1.191176014	 0.101463
H	-0.6688425335	 2.0557436722	-0.5191230252	 0.107612
H	 1.7067328437	 2.2576314114	-0.8481848866	 0.108804
H	 1.6746755998	 2.7455162304	 0.8536028274	 0.100164
H	 2.2705076283	 0.5234754477	 1.5876068368	 0.107877
H	 4.1687667259	 1.1091632927	-0.3642699994	 0.102542
H	 4.6927378793	-1.2558339223	-0.9088636707	 0.105025
H	 2.8420095201	-2.8573492314	-0.9186916263	 0.131786
H	 2.9924581973	-2.5286626852	 0.8069236809	 0.124583
72.4336	116.0613	259.1864	286.9529	411.8621	446.9225	514.508	551.3127	629.5484	667.5183	698.9468	809.3439	830.7508	876.906	924.0575	943.4471	978.015	983.3394	1015.1468	1044.5373	1080.5831	1106.2326	1127.6573	1178.1713	1192.6317	1213.2686	1257.8829	1270.5864	1290.5722	1299.3481	1332.6126	1343.2732	1404.5666	1436.9051	1490.4739	1504.778	1509.3381	1716.5033	1731.9859	2962.0586	2988.6937	3006.7653	3047.0842	3073.3327	3073.8462	3106.4444	3164.1301	3187.2609
C1CC2C=CCOC2=N1	C1C[C@@H]2C=CCO[C]2[N]1	
InChI=1S/C7H9NO/c1-2-6-3-4-8-7(6)9-5-1/h1-2,6H,3-5H2	InChI=1S/C7H9NO/c1-2-6-3-4-8-7(6)9-5-1/h1-2,6H,3-5H2/t6-/m0/s1
