19
gdb 57786	3.57016	0.73715	0.64648	2.4735	83.16	-0.244	0.0262	0.2702	1747.0897	0.156306	-422.977063	-422.966666	-422.965722	-423.014195	37.029	
C	-0.217854687	 1.4859669532	-0.0385072382	-0.38557
C	 0.0222516738	-0.0301855647	-0.0021513682	-0.025827
O	-1.1964208581	-0.7521532904	 0.1697457778	-0.412692
C	 0.7612897373	-0.4857796568	-1.1849448318	 0.124155
C	 1.3430983584	-0.8325135084	-2.1858902214	-0.014834
C	 2.0008918916	-1.3495312033	-3.3463042897	-0.234222
C	 3.2990668775	-2.1498489652	-3.1840662028	-0.31381
C	 2.0246558283	-2.8687625421	-3.5036551531	 0.151974
O	 1.4036434486	-3.6752314766	-2.5608734059	-0.426258
H	 0.7300414869	 2.0308274046	-0.0682021886	 0.127357
H	-0.7960556369	 1.7609004947	-0.9266946135	 0.117655
H	-0.7764331868	 1.7851167323	 0.8520862276	 0.127484
H	 0.6053481934	-0.2710904647	 0.8950542281	 0.119647
H	-1.7011576008	-0.6613739225	-0.6464624414	 0.281774
H	 1.898216645	-0.7626319731	-4.2537132864	 0.114124
H	 4.0507918853	-2.034169465	-3.957186801	 0.119551
H	 3.6809398858	-2.2530667323	-2.175166612	 0.131228
H	 1.8959673202	-3.2506987684	-4.5126670588	 0.106797
H	 0.9735724375	-3.1020185013	-1.9112052108	 0.291466
16.5295	64.8352	96.3577	148.2437	174.4598	238.9236	254.918	301.7808	352.0596	389.8131	405.4338	499.0967	528.3006	544.6941	636.6222	710.5787	775.1493	810.4433	874.4769	919.968	983.3981	1017.9065	1040.6819	1050.3619	1085.9782	1107.2866	1113.5078	1143.5063	1192.396	1231.7852	1282.215	1334.6784	1358.4458	1370.6633	1398.7039	1414.5159	1423.1029	1472.4954	1487.2232	1491.5795	2337.0035	3036.7475	3040.9717	3114.7033	3128.5339	3137.997	3145.2048	3155.6805	3235.5295	3733.9045	3800.8483
CC(O)C#CC1CC1O	C[C@@H](O)C#C[C@H]1C[C@H]1O	
InChI=1S/C7H10O2/c1-5(8)2-3-6-4-7(6)9/h5-9H,4H2,1H3	InChI=1S/C7H10O2/c1-5(8)2-3-6-4-7(6)9/h5-9H,4H2,1H3/t5-,6+,7-/m1/s1
