17
gdb 125591	3.05942	1.37099	0.95788	3.2134	80.23	-0.2289	-0.0512	0.1777	1206.6327	0.136699	-418.069608	-418.061144	-418.0602	-418.102646	31.363	
C	-0.0111676852	 1.5251273531	-0.0585670648	-0.475627
C	-0.0356590989	 0.0306306947	-0.0073081939	 0.187007
C	-1.1560987779	-0.7326438544	-0.0786775229	-0.238663
C	-1.0930752812	-2.1649615452	-0.0213323923	 0.340659
C	-2.3410914277	-2.9991071087	-0.1011686021	-0.475816
N	 0.0435448211	-2.7942067672	 0.101507244	-0.252605
N	 1.1463950367	-2.0291043647	 0.1711127647	-0.276262
C	 1.2573961687	-0.64285279	 0.1310176508	 0.367217
O	 2.3457684952	-0.0930474216	 0.2072819386	-0.387489
H	 0.6094790603	 1.8670145735	-0.893764183	 0.152142
H	-1.0157418923	 1.9413105702	-0.1620283935	 0.118502
H	 0.4560167308	 1.9290695372	 0.8459663006	 0.152155
H	-2.1304879456	-0.2617150349	-0.1816348842	 0.104424
H	-2.8766689144	-2.8194129555	-1.0403630975	 0.133827
H	-2.0855317122	-4.0579006375	-0.0405336929	 0.145563
H	-3.0312040849	-2.7561959322	 0.714895116	 0.133831
H	 2.0139116975	-2.5406057967	 0.2657527623	 0.271133
114.0048	134.5661	145.3198	193.9867	262.9103	319.6291	345.8478	414.4125	465.333	517.9214	570.1583	593.2949	719.974	734.3714	783.9396	798.363	927.9751	960.5618	985.8421	1035.9732	1063.3687	1067.5104	1159.398	1220.064	1245.3879	1319.3361	1405.9902	1412.5514	1419.3762	1444.5541	1465.3892	1481.4388	1482.0761	1483.8652	1591.5712	1672.7274	1768.6343	3032.2887	3039.0424	3083.7154	3093.6331	3129.0257	3144.117	3159.336	3595.0808
CC1=CC(C)=NNC1=O	Cc1cc(C)n[nH]c1=O	
InChI=1S/C6H8N2O/c1-4-3-5(2)7-8-6(4)9/h3H,1-2H3,(H,8,9)	InChI=1S/C6H8N2O/c1-4-3-5(2)7-8-6(4)9/h3H,1-2H3,(H,8,9)
