21
gdb 105546	2.31108	1.34206	1.05726	3.2675	78.03	-0.2351	0.0688	0.3038	1229.0936	0.182004	-424.17611	-424.16668	-424.165736	-424.21175	34.617	
O	 0.0575419126	 1.4890360081	 0.0145440747	-0.417134
C	 0.0960491706	 0.0732249112	 0.1262016274	-0.181625
C	-1.3320696342	-0.4555017034	 0.0708053028	 0.285614
C	-2.3478012479	 0.2831199632	 0.9873008902	-0.108337
O	-3.1845056951	 0.6227872764	-0.1358257905	-0.278673
C	-2.2097287419	 0.1253959904	-1.0735414922	-0.108288
C	-1.4487415482	-1.9640425872	 0.1783629699	-0.038792
C	-0.481631127	-2.9433184805	-0.4425201359	-0.287264
C	-0.5805572183	-2.8286633844	 1.0606686604	-0.287298
H	 0.9595751281	 1.8189177721	 0.0501683173	 0.291124
H	 0.6873107421	-0.3639061666	-0.6930172838	 0.092785
H	 0.5681999044	-0.2277877764	 1.0739634672	 0.092804
H	-2.8722202518	-0.3421651707	 1.7202122342	 0.091171
H	-1.9441618822	 1.1744254328	 1.479757031	 0.10669
H	-1.7353473914	 0.9358440188	-1.6374426222	 0.106726
H	-2.6386318591	-0.6090413164	-1.7662124174	 0.091178
H	-2.4892376325	-2.2776925338	 0.1337396144	 0.095095
H	-0.8898817439	-3.8255481777	-0.9231930745	 0.11425
H	 0.4183722837	-2.5663305407	-0.9154373353	 0.11287
H	 0.2538720722	-2.3756521437	 1.5843829283	 0.112858
H	-1.0566743305	-3.6322087715	 1.6117317739	 0.114246
19.3105	78.1969	120.7147	192.8057	215.7563	252.5996	308.7647	320.6693	360.6776	473.2983	512.0544	638.7239	779.3195	809.9247	831.1182	873.7434	886.9611	918.4626	956.4797	990.1588	1014.6611	1041.2158	1056.7863	1057.9726	1079.7448	1106.1251	1134.931	1147.4603	1154.5322	1166.5711	1168.6788	1199.7239	1228.5801	1263.4554	1290.0361	1311.537	1311.5712	1381.7806	1415.379	1457.1492	1471.215	1502.6705	1507.6068	1518.4563	1532.7479	2972.335	3004.2133	3013.9292	3023.8412	3071.4942	3072.542	3127.9814	3133.2461	3138.4872	3208.3282	3223.767	3839.883
OCC1(COC1)C1CC1	OCC1(COC1)C1CC1	
InChI=1S/C7H12O2/c8-3-7(4-9-5-7)6-1-2-6/h6,8H,1-5H2	InChI=1S/C7H12O2/c8-3-7(4-9-5-7)6-1-2-6/h6,8H,1-5H2
