18
gdb 75230	3.59208	1.15469	1.03147	2.6863	80.49	-0.2405	-0.0284	0.2121	1205.0264	0.147376	-401.951893	-401.943663	-401.942718	-401.984625	31.299	
C	 0.0017396258	 1.495565137	 0.102370412	-0.501104
C	-0.0052001896	 0.0036451391	-0.0041438349	 0.373518
C	 0.019732148	-0.7483604493	-1.109815378	-0.177293
C	-0.0125481287	-2.2338772311	-0.8274172009	-0.327423
C	-0.0156237947	-2.2952299333	 0.6920752368	 0.239394
N	 1.1886273555	-1.71445817	 1.3381564773	-0.35713
C	-0.0088035118	-0.8749206871	 1.2117138841	-0.201127
C	-0.779695085	-3.3204262926	 1.4287528161	 0.083028
O	-1.4607702495	-4.17708765	 0.9207476145	-0.265702
H	 0.8939994226	 1.851651308	 0.6321702951	 0.135006
H	-0.0183473401	 1.9646350782	-0.884708327	 0.129353
H	-0.8660808652	 1.8593523997	 0.6671324535	 0.126429
H	 0.0836316741	-0.3544063461	-2.1185013415	 0.095786
H	-0.9081505659	-2.7242672283	-1.2262546159	 0.133478
H	 0.8547496306	-2.7558973289	-1.2475236252	 0.125919
H	 1.2530259396	-2.0738045357	 2.2926203984	 0.231761
H	-0.5425655607	-0.586052287	 2.1134959298	 0.097998
H	-0.677335195	-3.2403478527	 2.5391565857	 0.058108
89.5247	173.4869	193.7179	205.71	261.6585	303.5945	381.2713	392.7812	491.6531	576.1518	615.2829	688.2898	778.3647	801.8779	831.421	871.8936	941.1947	965.3412	968.1512	1015.8182	1034.6054	1041.094	1069.4842	1106.3865	1154.3594	1182.6777	1193.4263	1249.2159	1277.996	1319.2229	1377.3924	1407.4452	1415.9277	1433.6414	1470.3584	1479.3961	1489.938	1709.9164	1810.6214	2827.6255	3019.2241	3041.0397	3066.2989	3075.1204	3114.6492	3147.1468	3191.8143	3437.5951
CC1=CCC2(NC12)C=O	CC1=CC[C@]2(N[C@@H]12)C=O	
InChI=1S/C7H9NO/c1-5-2-3-7(4-9)6(5)8-7/h2,4,6,8H,3H2,1H3	InChI=1S/C7H9NO/c1-5-2-3-7(4-9)6(5)8-7/h2,4,6,8H,3H2,1H3/t6-,7-/m0/s1
