23
gdb 119411	3.07584	0.92079	0.8222	1.0676	86.78	-0.2376	0.0816	0.3192	1511.9286	0.204812	-388.266707	-388.256728	-388.255784	-388.301749	37.341	
C	 0.1266617419	 1.5251932723	 0.0301110022	-0.494606
C	 0.0008544333	 0.0289698633	 0.0721120217	 0.294659
C	 1.1471854028	-0.9018045585	-0.2281349978	-0.372246
C	 0.4743969047	-0.9918010064	 1.1217458806	 0.33619
C	 1.2092931376	-0.791052788	 2.4181888134	-0.304179
C	 1.9640082131	-2.0382228495	 2.8726949014	-0.064247
O	 2.5984492318	-1.7376704025	 4.1073825912	-0.420927
C	-0.8346742327	-1.7814252211	 0.9612339357	-0.283032
C	-1.3165945549	-0.7412851746	-0.1007937747	-0.276185
H	 1.1108590626	 1.8551817196	 0.37888528	 0.116938
H	-0.0015440393	 1.90440889	-0.9915812454	 0.118029
H	-0.6303084932	 2.0091766553	 0.6584528929	 0.113525
H	 1.0404446264	-1.7015079587	-0.9598201474	 0.095312
H	 2.1296083394	-0.4373821886	-0.223274484	 0.103656
H	 1.9295254751	 0.0306698662	 2.3242150946	 0.102146
H	 0.5095822553	-0.5049749176	 3.2141340105	 0.10076
H	 1.2605265862	-2.8797083116	 2.9810085713	 0.086434
H	 2.6981056466	-2.3245547452	 2.1029154071	 0.087545
H	 3.0705062781	-2.5219419693	 4.4015039535	 0.283868
H	-0.7360842706	-2.8197383973	 0.6256634993	 0.089687
H	-1.4525512991	-1.7679212697	 1.8634500393	 0.098636
H	-2.1865045753	-0.1747327842	 0.2425686866	 0.09781
H	-1.5255429099	-1.1189773242	-1.1079158319	 0.090228
71.8517	95.9502	104.1252	190.9535	197.929	232.9907	263.4337	328.2193	334.9373	355.5743	442.8441	484.5906	597.9871	722.1575	774.0458	788.0131	801.452	844.4001	928.4701	942.6993	961.5286	989.0993	1010.0579	1024.9277	1029.0791	1064.9192	1075.1632	1098.9757	1146.2	1187.1526	1211.6097	1238.5976	1240.9701	1243.8596	1246.1901	1276.3738	1317.5617	1327.3931	1352.1051	1403.6863	1426.4461	1458.8602	1479.3389	1485.0332	1486.7577	1488.5647	1498.499	1520.949	1527.2344	2964.9646	2992.14	3016.2872	3022.133	3032.4261	3040.9547	3065.9273	3072.5146	3080.7806	3089.6117	3092.5231	3100.3638	3181.3612	3830.2502
CC12CC1(CCO)CC2	C[C@@]12C[C@]1(CCO)CC2	
InChI=1S/C8H14O/c1-7-2-3-8(7,6-7)4-5-9/h9H,2-6H2,1H3	InChI=1S/C8H14O/c1-7-2-3-8(7,6-7)4-5-9/h9H,2-6H2,1H3/t7-,8-/m1/s1
