17
gdb 57989	3.48875	0.82491	0.72792	2.8965	70.56	-0.2728	-0.0061	0.2666	1524.2526	0.134385	-455.186804	-455.176865	-455.175921	-455.223213	34.557	
C	-0.0381786363	 1.5357444333	-0.116086913	-0.393253
C	-0.0009082571	 0.0248222232	 0.1640826102	 0.041248
O	 0.5606552327	-0.2380625037	 1.4215840355	-0.432479
C	-1.4131746911	-0.5761384424	 0.123944329	 0.405963
O	-1.9538589794	-0.9572333536	 1.1496060762	-0.38527
N	-2.0075728654	-0.6509579298	-1.099828102	-0.318645
C	-3.3697863164	-1.1233594248	-1.2544443717	-0.285711
C	-4.2530626209	-0.1027245681	-1.8324112468	 0.256872
N	-4.9327038162	 0.698253593	-2.3125139817	-0.291941
H	 0.9710927945	 1.9401678914	-0.0091019664	 0.140475
H	-0.3960049174	 1.7606954777	-1.1264105447	 0.107189
H	-0.6892707746	 2.0376628347	 0.6054441985	 0.136371
H	 0.6068960263	-0.4690592311	-0.6103295096	 0.089426
H	-0.1734893444	-0.5656315129	 1.9663308261	 0.2955
H	-1.5198876794	-0.3055551963	-1.9108236655	 0.267655
H	-3.4119281466	-2.0206562739	-1.8830325805	 0.164943
H	-3.7202501882	-1.3971858968	-0.2549358837	 0.201656
33.1668	53.7877	65.926	199.0899	212.5731	234.2013	288.0456	353.4311	372.2784	380.2612	430.962	469.8709	479.6024	596.9176	670.5596	749.6778	845.7414	923.8488	933.34	1025.7239	1060.2928	1081.6246	1099.5831	1173.751	1232.3527	1270.1017	1292.8917	1361.9955	1375.1515	1404.9574	1442.2977	1468.7364	1486.4319	1495.8766	1545.4542	1769.9825	2365.9003	2982.6887	3039.8652	3042.818	3106.132	3113.523	3131.7783	3643.5781	3681.5685
CC(O)C(=O)NCC#N	C[C@@H](O)C(=O)NCC#N	
InChI=1S/C5H8N2O2/c1-4(8)5(9)7-3-2-6/h4,8H,3H2,1H3,(H,7,9)	InChI=1S/C5H8N2O2/c1-4(8)5(9)7-3-2-6/h4,8H,3H2,1H3,(H,7,9)/t4-/m1/s1
