21
gdb 103067	2.07666	1.32541	1.12169	2.2781	75.34	-0.2308	0.066	0.2968	1229.2955	0.178213	-461.33505	-461.323913	-461.322969	-461.370402	40.799	
C	-0.033670248	 1.5338352499	-0.1147333722	-0.452868
C	 0.0144540335	 0.0290343403	 0.0230255783	 0.262781
O	-1.1539552858	-0.6136183842	-0.4369819064	-0.456774
C	 1.3258071756	-0.7188878919	-0.1418316224	-0.017277
O	 2.5290115808	-0.0268800877	-0.3155326064	-0.414465
C	 0.6684462242	-0.6365014387	 1.2226235117	 0.261626
C	 1.3136946394	 0.2071309043	 2.3083271225	-0.470955
C	 0.0410634582	-1.9146659877	 1.7424641755	-0.141667
O	 1.0799239924	-2.7140100309	 2.3022827338	-0.423552
H	 0.9134711029	 1.9987201719	 0.1621812483	 0.133392
H	-0.2464648714	 1.8075363962	-1.1567498065	 0.098063
H	-0.8301327529	 1.9560487484	 0.5058211911	 0.127026
H	-1.204025099	-0.4857788026	-1.3910084735	 0.276791
H	 1.2703078099	-1.6870651241	-0.6411539989	 0.086121
H	 2.5731976115	 0.2763601001	-1.2283022161	 0.286782
H	 1.9862101334	 0.9601153839	 1.8972626362	 0.130609
H	 0.5535987668	 0.7087142331	 2.918268239	 0.106136
H	 1.8989586931	-0.444131209	 2.9624193333	 0.139558
H	-0.7130649795	-1.6613891746	 2.5054747374	 0.083451
H	-0.4758877401	-2.4410292324	 0.9324849777	 0.100431
H	 0.6725801151	-3.4872095043	 2.7031482176	 0.284792
82.1151	148.0722	153.9545	176.0059	187.8036	228.7297	234.8848	247.7126	279.6175	298.1653	307.5676	336.6916	372.759	414.9565	489.4763	547.9687	585.5369	713.1766	729.8715	888.5892	947.6919	979.8077	1002.9419	1018.7929	1057.1804	1076.8319	1094.1436	1148.9564	1185.9735	1194.4863	1238.4923	1255.3389	1276.0438	1295.5673	1335.3705	1357.3636	1402.6615	1413.5385	1454.4555	1461.163	1481.7436	1491.8426	1503.9173	1519.3787	1523.6996	2969.9787	3020.4858	3038.49	3053.7403	3086.7519	3093.256	3110.122	3139.4558	3150.2936	3787.7953	3804.4417	3830.7602
CC1(O)C(O)C1(C)CO	C[C@@]1(O)[C@@H](O)[C@]1(C)CO	
InChI=1S/C6H12O3/c1-5(3-7)4(8)6(5,2)9/h4,7-9H,3H2,1-2H3	InChI=1S/C6H12O3/c1-5(3-7)4(8)6(5,2)9/h4,7-9H,3H2,1-2H3/t4-,5-,6+/m0/s1
