23
gdb 120634	4.67115	0.66837	0.64181	2.0002	83.62	-0.2387	0.0638	0.3025	1848.1757	0.203418	-425.412763	-425.401882	-425.400938	-425.44902	39.799	
C	-0.0209904172	 1.5436290162	 0.1905027973	-0.379561
C	-0.0850539445	 0.0163929746	 0.2758943227	-0.15622
C	-1.3780435736	-0.5608823208	-0.3144285541	-0.191669
C	-1.4390940476	-2.0729298045	-0.2400741312	-0.071839
C	-1.8803450102	-2.771519358	 1.0372451296	-0.346029
C	-2.7527906884	-2.7932746148	-0.1982153989	 0.420858
O	-3.9025298591	-1.9929579129	-0.2091763933	-0.476417
C	-2.9436814661	-4.0775986505	-0.9621982431	-0.147152
O	-4.0471063922	-4.7538212858	-0.3565524161	-0.432545
H	 0.9100414868	 1.9304141063	 0.6168902936	 0.108274
H	-0.0781749642	 1.8852435821	-0.8492037301	 0.111923
H	-0.8534274877	 2.0048212771	 0.7335968543	 0.114067
H	 0.7788898915	-0.4167391133	-0.2460073649	 0.088775
H	 0.0046037317	-0.300593958	 1.3226462667	 0.09711
H	-2.2464429462	-0.1410894379	 0.2038246941	 0.112106
H	-1.4707621135	-0.2451723465	-1.3627551666	 0.09169
H	-0.6520818214	-2.5786561935	-0.7976150617	 0.07644
H	-1.3752740672	-3.6799956853	 1.3478012498	 0.106131
H	-2.2242966175	-2.1380903794	 1.8480707995	 0.112706
H	-4.6211035815	-2.5781537724	 0.062288886	 0.287047
H	-3.1619097516	-3.8462957337	-2.0151071646	 0.095396
H	-2.0300931083	-4.6888569279	-0.9237158771	 0.087288
H	-4.389741472	-5.3986040411	-0.9814192719	 0.29162
64.6666	81.9621	85.2321	137.7883	174.5322	243.2376	243.6727	267.1808	293.0825	314.2304	385.5705	404.5041	452.3926	486.1764	636.4357	719.5432	747.5966	853.622	857.0612	901.2469	903.5824	927.9553	979.2405	1007.6717	1041.9827	1048.3801	1050.0432	1088.4726	1109.9579	1138.1778	1193.388	1208.9462	1242.4592	1249.6653	1276.8795	1299.2734	1316.2567	1329.5267	1368.3175	1395.9833	1410.4881	1428.0485	1452.5227	1485.195	1495.6103	1498.7992	1504.8049	1510.5393	1511.8378	2984.1219	3012.9034	3017.6045	3024.1668	3028.1048	3046.6665	3078.8926	3095.4449	3099.5153	3116.4108	3127.7962	3218.0091	3776.6896	3839.937
CCCC1CC1(O)CO	CCC[C@H]1C[C@]1(O)CO	
InChI=1S/C7H14O2/c1-2-3-6-4-7(6,9)5-8/h6,8-9H,2-5H2,1H3	InChI=1S/C7H14O2/c1-2-3-6-4-7(6,9)5-8/h6,8-9H,2-5H2,1H3/t6-,7-/m0/s1
