19
gdb 107345	3.21958	1.35255	1.10977	2.1739	76.42	-0.2271	0.0098	0.2369	1127.834	0.160003	-423.007067	-422.998904	-422.99796	-423.03968	31.939	
O	 0.0346148291	 1.3667106726	 0.3555816535	-0.420853
C	-0.0504727579	 0.0537722894	-0.1663446873	-0.113234
C	-1.4218389082	-0.5444988836	 0.0322830758	 0.402238
C	-1.7735035405	-1.2264663061	 1.3182876292	-0.352476
C	-1.6193163242	-2.0409614259	 0.0227751616	-0.152702
C	-2.8480173521	-2.5075728482	-0.6593858482	-0.042851
C	-3.8158668096	-1.6558596495	-1.0004088034	-0.104832
C	-3.6903001767	-0.1808316554	-0.7332227642	-0.135765
O	-2.3378509759	 0.2613899339	-0.6642328149	-0.317181
H	-0.7148690126	 1.8463866316	-0.0154094769	 0.290284
H	 0.1890214863	 0.0345708972	-1.2414025826	 0.093411
H	 0.6974228506	-0.5482581483	 0.3583582687	 0.103092
H	-0.99656016	-1.3089602453	 2.0706516853	 0.122238
H	-2.7777752228	-1.1389001186	 1.717077315	 0.122307
H	-0.7425335993	-2.675297985	-0.0608101432	 0.089529
H	-2.9391523454	-3.5673477471	-0.8782641647	 0.095458
H	-4.7259113502	-1.9965410412	-1.4838921035	 0.096374
H	-4.1406465177	 0.3982856727	-1.5465713096	 0.118799
H	-4.2279286427	 0.1014899669	 0.1880860893	 0.106166
93.0291	135.4748	178.1252	242.5412	357.3415	358.8721	405.5874	424.0603	454.4611	572.5204	589.9014	685.6675	731.0998	812.8388	846.964	886.82	915.2612	929.1373	958.101	984.1181	1008.3409	1037.3096	1048.3927	1065.2504	1078.0256	1096.3251	1131.7827	1184.6544	1211.1538	1251.3295	1273.6094	1297.5613	1376.7275	1393.1277	1403.9734	1423.8585	1446.1871	1482.7628	1496.6653	1505.1853	1710.1089	2954.4852	2981.6072	3062.3311	3085.0969	3134.494	3151.8627	3165.5723	3187.4009	3223.3008	3802.8539
OCC12CC1C=CCO2	OC[C@]12C[C@H]1C=CCO2	
InChI=1S/C7H10O2/c8-5-7-4-6(7)2-1-3-9-7/h1-2,6,8H,3-5H2	InChI=1S/C7H10O2/c8-5-7-4-6(7)2-1-3-9-7/h1-2,6,8H,3-5H2/t6-,7-/m1/s1
