16
gdb 23489	3.58412	1.48393	1.26756	1.3009	76.59	-0.2236	-0.0024	0.2212	992.2574	0.125336	-400.671537	-400.664633	-400.663689	-400.7027	28.092	
O	-0.2036575156	 1.3177496789	 0.0706308473	-0.403117
N	-0.0133771119	-0.0859974319	 0.0740434571	-0.293199
C	-1.1281752974	-0.6877290114	 0.0885076971	 0.485372
C	-1.4443497243	-2.1222681126	-0.0595747513	-0.174718
C	-2.7639136908	-2.4732372963	 0.6955986533	-0.084934
C	-3.2149709759	-1.5650975911	 1.7950836346	-0.083177
C	-3.1823577795	-0.2992936671	 1.3694164044	-0.090933
C	-2.6052182621	-0.2653665158	-0.0346372783	-0.197039
C	-2.8278259282	-1.7182693758	-0.5917622968	-0.076553
H	 0.7032392008	 1.6380496709	 0.029137821	 0.303679
H	-0.7708378615	-2.9028166664	-0.3863182874	 0.105721
H	-2.9879213853	-3.5338176988	 0.7076217502	 0.094575
H	-3.4789142534	-1.9111148772	 2.7859220555	 0.103078
H	-3.3758889924	 0.5912801982	 1.952292958	 0.111607
H	-2.8081906368	 0.605838581	-0.6527772996	 0.095908
H	-3.3190535157	-2.0110524243	-1.5103945952	 0.103731
114.1168	193.8979	280.3653	368.4797	400.226	469.7388	546.066	646.0554	691.9346	697.7912	753.3684	772.1643	807.2087	822.6487	842.5967	883.6958	925.3845	947.6063	955.1724	979.6307	985.3936	1023.5134	1057.8961	1080.6938	1120.7657	1138.844	1164.4957	1237.8405	1254.7321	1289.9555	1344.2437	1366.1357	1414.0496	1644.8833	1779.3767	3150.2519	3180.2198	3198.9354	3210.7235	3214.4907	3235.5374	3824.8578
ON=C1C2C3C=CC1C23	ON=C1[C@H]2[C@H]3C=C[C@@H]1[C@@H]23	
InChI=1S/C7H7NO/c9-8-7-4-2-1-3-5(4)6(3)7/h1-6,9H	InChI=1S/C7H7NO/c9-8-7-4-2-1-3-5(4)6(3)7/h1-6,9H/t3-,4+,5-,6-/m0/s1
