20
gdb 113901	2.69627	1.1562	0.94209	6.4179	75.79	-0.2388	0.035	0.2738	1301.5478	0.171524	-440.301576	-440.292442	-440.291498	-440.335788	33.794	
C	 0.6870292607	 0.5492791569	 0.8210508843	-0.324367
N	-0.0051414521	-0.4025720766	-0.0565957372	-0.305003
H	 0.0838102345	-2.0517583155	 0.4959128028	 0.315796
H	-0.9888396581	-0.1530357092	-0.1126148205	 0.237512
C	 0.5476040414	-0.4720128648	-1.3918826841	 0.011514
C	 1.7282114248	-1.3841641017	-1.6213876164	-0.300082
C	 0.3710301798	-1.7511234375	-2.1748545844	-0.045441
C	-0.4558503336	-2.9416347538	-1.6841789795	-0.358571
C	 0.0464318718	-3.7264393726	-0.4636471813	 0.384439
O	 0.2192912068	-4.9175420741	-0.5007767412	-0.327701
O	 0.2507300408	-3.0228566577	 0.6565013137	-0.384732
H	 1.7166776349	 0.2140186326	 0.9697048683	 0.146738
H	 0.7136749402	 1.5692078726	 0.4098551104	 0.115662
H	 0.1890888569	 0.5755611461	 1.7936323294	 0.133291
H	 0.5292401121	 0.4604786507	-1.9588835564	 0.085015
H	 2.5013317174	-1.0613925092	-2.3088925103	 0.118779
H	 2.0885075187	-1.9456356898	-0.7669510425	 0.144558
H	 0.255302635	-1.5924342541	-3.2430054429	 0.101551
H	-1.4829936596	-2.6135195189	-1.470558689	 0.114469
H	-0.5233054123	-3.6767317537	-2.487884253	 0.136574
80.593	100.3051	134.3211	185.6037	207.0893	226.9815	303.2041	368.4709	452.2556	480.3216	543.997	583.222	733.2833	771.0835	808.0873	839.4391	868.856	896.8634	926.6779	1015.9491	1027.7001	1049.1788	1068.476	1085.5089	1119.6802	1138.8213	1145.3306	1192.5417	1202.059	1212.909	1259.2746	1304.1854	1331.8955	1386.1377	1412.0711	1457.7192	1462.0058	1474.3045	1491.5791	1498.3115	1507.3934	1516.6236	1852.6346	2996.8421	3015.465	3075.4626	3090.0862	3114.1145	3120.7951	3129.6326	3144.114	3149.1388	3233.0589	3498.6454
C[NH2+]C1CC1CC([O-])=O	CN[C@H]1C[C@H]1CC(=O)O	
InChI=1S/C6H11NO2/c1-7-5-2-4(5)3-6(8)9/h4-5,7H,2-3H2,1H3,(H,8,9)	InChI=1S/C6H11NO2/c1-7-5-2-4(5)3-6(8)9/h4-5,7H,2-3H2,1H3,(H,8,9)/t4-,5-/m0/s1
