22
gdb 117339	4.42222	0.68547	0.62844	4.8501	81.62	-0.2464	0.0219	0.2683	1862.3243	0.192729	-441.533708	-441.522887	-441.521942	-441.571349	38.621	
C	 0.3317795304	 1.3200462739	 0.1534236168	-0.373947
C	-0.3667095153	 0.0137876615	-0.2282938247	-0.148287
N	 0.2434631829	-0.6360153608	-1.3797917889	-0.313206
C	 0.9295109262	-1.8061791299	-1.302648532	 0.433062
O	 1.032590209	-2.4384067088	-0.2544516748	-0.397446
C	 1.5711606876	-2.2840838132	-2.599514151	-0.340585
C	 1.5657039601	-3.8231470411	-2.7118259184	 0.15838
C	 2.1619478739	-4.2928833459	-4.0330891215	-0.385822
O	 2.3203764305	-4.4029189296	-1.6694751132	-0.443235
H	 1.3778613306	 1.1383731923	 0.4160117328	 0.134306
H	 0.3070960336	 2.0427786814	-0.6697502188	 0.112291
H	-0.1649018658	 1.7787680082	 1.013992108	 0.124349
H	-0.3116370765	-0.7084085676	 0.5882575043	 0.154664
H	-1.4269389686	 0.1978387889	-0.4405882759	 0.109414
H	 0.2147557528	-0.1601776577	-2.2671095559	 0.245453
H	 1.0769555405	-1.8326360093	-3.467588273	 0.093081
H	 2.6158026625	-1.9465575743	-2.600484409	 0.134065
H	 0.5144441564	-4.159658306	-2.6602588438	 0.061568
H	 3.1930338597	-3.9383729662	-4.1336347239	 0.117597
H	 2.1758181631	-5.3855987574	-4.0624144263	 0.126426
H	 1.5790726054	-3.9280997028	-4.8848195934	 0.102664
H	 1.9945900009	-3.9853173055	-0.8547969773	 0.295206
23.9957	39.2984	82.96	126.3779	177.8824	227.5746	237.5018	294.6836	311.9309	374.3461	414.0513	462.6263	480.136	499.3673	627.3438	654.1411	732.6881	797.0103	847.6108	898.5787	928.7259	932.8423	965.0554	1067.8946	1075.3661	1101.5999	1124.4462	1158.4647	1175.8374	1221.8077	1249.5078	1316.2106	1323.7978	1355.7577	1382.5603	1395.2662	1402.545	1412.392	1446.7306	1473.5014	1486.2245	1488.146	1492.7554	1500.4299	1502.9594	1553.9767	1739.0262	2934.3937	3025.1317	3033.3754	3035.2533	3038.0524	3072.983	3098.6187	3109.274	3118.799	3121.0021	3131.7992	3638.7415	3656.7722
CCNC(=O)CC(C)O	CCNC(=O)C[C@@H](C)O	
InChI=1S/C6H13NO2/c1-3-7-6(9)4-5(2)8/h5,8H,3-4H2,1-2H3,(H,7,9)	InChI=1S/C6H13NO2/c1-3-7-6(9)4-5(2)8/h5,8H,3-4H2,1-2H3,(H,7,9)/t5-/m1/s1
