18
gdb 28768	3.10806	1.70486	1.11625	1.7854	88.56	-0.178	-0.0064	0.1716	1073.0556	0.149999	-364.869097	-364.861576	-364.860632	-364.900913	29.492	
C	-0.0210372735	 1.471256525	 0.1304293545	-0.50007
C	-0.0091818838	-0.0131268116	-0.0062440821	 0.270914
C	-0.0264424721	-0.8257133507	-1.1296845806	-0.219556
C	-0.0027588576	-2.1873724631	-0.7138303835	-0.31284
C	 0.0282704357	-2.1719367986	 0.6660095607	 0.346372
C	 0.0638184973	-2.987026385	 1.8616173437	-0.202434
C	 0.080476752	-2.1892487476	 2.9461053915	-0.112067
C	 0.056097631	-0.7328423567	 2.5237389547	-0.245699
N	 0.0240664894	-0.8520978579	 1.0755995411	-0.062657
H	 0.8711411355	 1.8460697356	 0.6496648668	 0.124444
H	-0.0517061585	 1.9376010977	-0.8567022823	 0.134954
H	-0.8925126719	 1.827538625	 0.6957717702	 0.12437
H	-0.053466121	-0.4656022858	-2.1479170254	 0.087667
H	-0.008210056	-3.0596293137	-1.3487870873	 0.093094
H	 0.0748584896	-4.0683304448	 1.862504017	 0.109608
H	 0.1072159662	-2.4934377084	 3.9825719188	 0.105178
H	-0.8253080733	-0.1993397924	 2.9052638468	 0.129355
H	 0.9431268611	-0.181497927	 2.8647016453	 0.129367
130.9083	163.4396	182.6595	236.2697	293.516	446.9395	504.1263	611.2558	621.5278	655.7118	672.5562	739.2623	754.9239	780.8961	801.5472	868.0449	939.3042	946.2003	989.3235	991.0053	1038.6895	1058.5632	1061.6892	1113.6243	1180.9712	1196.8437	1239.3537	1280.7338	1330.7573	1351.543	1390.7949	1415.9118	1444.5231	1476.3183	1488.1387	1502.6748	1544.6664	1589.8827	1627.547	3006.9481	3007.6338	3031.8707	3046.9272	3123.5005	3225.4733	3234.2452	3247.6151	3255.2734
CC1=CC=C2C=CCN12	Cc1ccc2C=CCn12	
InChI=1S/C8H9N/c1-7-4-5-8-3-2-6-9(7)8/h2-5H,6H2,1H3	InChI=1S/C8H9N/c1-7-4-5-8-3-2-6-9(7)8/h2-5H,6H2,1H3
