18
gdb 54968	2.84488	1.11584	0.95761	2.5803	75.48	-0.2506	-0.0576	0.193	1279.8223	0.144368	-439.094319	-439.084541	-439.083597	-439.129352	34.566	
C	 0.667329107	 1.3912373651	 0.060192843	-0.486965
C	-0.3218676095	 0.2455835469	-0.0376844478	 0.406342
O	-1.0506487116	-0.0628273001	 0.8765266348	-0.298621
C	-0.3400164531	-0.4664163011	-1.3672183103	-0.166271
N	-0.8467669555	-1.8343289206	-1.4163111054	-0.335658
C	-1.656185558	-0.8097586647	-2.0641120738	 0.217438
C	-3.0082350021	-0.4851641757	-1.4751474031	-0.48765
C	-1.5412127593	-0.7469410797	-3.5595400846	 0.109128
O	-0.6630672332	-1.2959012624	-4.1820811463	-0.26861
H	 1.6906177573	 1.0179692276	-0.0650379381	 0.146937
H	 0.4951884067	 2.1167513684	-0.743430385	 0.141461
H	 0.5714556616	 1.8811185984	 1.0293293655	 0.147098
H	 0.475141419	-0.2129612357	-2.0414449409	 0.105907
H	-0.3343369644	-2.3350697334	-2.144670341	 0.25105
H	-2.9577825247	-0.4931542551	-0.3871315413	 0.179353
H	-3.3537547812	 0.4989961075	-1.8102412672	 0.117759
H	-3.7448712506	-1.2300008286	-1.7947587636	 0.129949
H	-2.3334617782	-0.1613321467	-4.0720316951	 0.091356
58.6984	104.3636	137.2385	159.8519	172.241	204.0518	250.9445	314.1197	355.0806	381.7722	406.1034	569.2495	614.2652	654.2437	747.1012	796.9363	856.8499	921.8435	959.3643	992.0615	1019.7338	1053.9828	1076.5407	1103.4993	1126.959	1189.7627	1234.7161	1273.6777	1340.0602	1379.6115	1416.6991	1424.9936	1449.5697	1464.2043	1473.827	1488.7287	1502.0016	1798.7445	1812.2458	2914.1629	3032.8405	3038.2867	3091.8512	3097.2528	3137.0035	3156.9218	3164.5271	3451.4309
CC(=O)C1NC1(C)C=O	CC(=O)[C@H]1N[C@]1(C)C=O	
InChI=1S/C6H9NO2/c1-4(9)5-6(2,3-8)7-5/h3,5,7H,1-2H3	InChI=1S/C6H9NO2/c1-4(9)5-6(2,3-8)7-5/h3,5,7H,1-2H3/t5-,6-/m1/s1
