15
gdb 127821	4.5232	1.05038	0.86862	5.6743	73.23	-0.2542	-0.0589	0.1954	1275.2698	0.112069	-450.101309	-450.092877	-450.091933	-450.13493	30.199	
C	 0.0669886425	 1.3957482332	-0.1273288792	-0.34387
N	 0.1211425274	-0.0525453048	-0.0999500116	-0.25909
C	 0.5659933354	-0.6185621338	 0.9519095887	 0.248845
N	 1.0841839417	-0.0097847983	 2.0877032452	-0.565976
C	 0.642296375	-2.0902830338	 0.9924087415	 0.406732
C	 1.3914548603	-2.9504801082	 1.7417361867	-0.209863
N	 1.0548184217	-4.2213300636	 1.3480704645	-0.114598
N	 0.1796051668	-4.1821064855	 0.4437532752	-0.002391
O	-0.1218423507	-2.8146700987	 0.1779026788	-0.198769
H	 1.072601646	 1.842102401	-0.1414432522	 0.127105
H	-0.4522007109	 1.7199831839	-1.0316816037	 0.137684
H	-0.4716156876	 1.8217712787	 0.7361216352	 0.107568
H	 0.9097956449	 0.9791198769	 2.178928086	 0.262547
H	 0.987188404	-0.5143037672	 2.9558962125	 0.259975
H	 2.1454063732	-2.7626556097	 2.4863743124	 0.144102
61.8468	122.3489	140.478	151.0605	297.4553	303.8367	391.8132	413.1258	457.5637	525.8151	655.5157	694.6877	701.2301	734.6913	767.6844	838.9598	967.149	992.8461	1047.1011	1097.7102	1107.9614	1124.1306	1193.4757	1205.4442	1332.5299	1386.7397	1430.2978	1448.0123	1487.8431	1506.5296	1592.3973	1639.7268	1728.2779	2958.7367	3018.7186	3110.6805	3291.8505	3580.0807	3686.2777
CN=C(N)C1=CN=NO1	CN=C(N)c1cnno1	
InChI=1S/C4H6N4O/c1-6-4(5)3-2-7-8-9-3/h2H,1H3,(H2,5,6)	InChI=1S/C4H6N4O/c1-6-4(5)3-2-7-8-9-3/h2H,1H3,(H2,5,6)
