17
gdb 88245	3.40917	0.741	0.63626	1.5735	83.37	-0.2518	0.0192	0.271	1719.3471	0.132376	-384.60479	-384.59492	-384.593976	-384.641817	34.657	
C	-0.6817305912	 1.2769354128	 0.5783505375	-0.42532
C	-0.0020251481	 0.0143406855	 0.1225029511	 0.098229
O	 1.3430508779	 0.1209961495	-0.3382444462	-0.243452
C	 1.1063146109	-0.6243491388	 0.8708688006	-0.164792
C	 1.6219146206	-0.085152692	 2.1000079984	 0.095667
C	 2.0593196292	 0.3334339012	 3.140407095	 0.124768
C	 2.6005106576	 0.8507455605	 4.398145818	-0.495968
C	 1.6316051526	 1.6164735951	 5.1849742059	 0.315913
C	 0.8460363062	 2.2463940958	 5.8384006096	-0.441325
H	-0.0320542986	 1.852046207	 1.2410375842	 0.143669
H	-0.9428481104	 1.8976805389	-0.2848657836	 0.129435
H	-1.6062824527	 1.0373529134	 1.1141533892	 0.124475
H	-0.6169318575	-0.6579446515	-0.4799894844	 0.092921
H	 1.2374132482	-1.7000895555	 0.7522804781	 0.111222
H	 2.9808385068	 0.015400644	 5.002161098	 0.164726
H	 3.4747043035	 1.4813136923	 4.1842522109	 0.1675
H	 0.1486430251	 2.8032891018	 6.4137531676	 0.202332
11.7786	56.7453	117.742	138.4256	188.0924	267.3007	306.9177	323.8327	368.6067	400.3062	455.0301	558.3558	615.8944	625.1875	652.2406	759.1084	792.7873	865.0512	931.8973	941.7127	961.4474	1017.7761	1079.0915	1137.4026	1164.6994	1194.3149	1230.9237	1287.9117	1335.6872	1379.8085	1414.2748	1448.3131	1449.3482	1485.112	1497.1855	2248.0722	2371.0525	3009.609	3034.5751	3041.1802	3083.5458	3104.4921	3107.1713	3139.723	3506.5917
CC1OC1C#CCC#C	C[C@H]1O[C@H]1C#CCC#C	
InChI=1S/C8H8O/c1-3-4-5-6-8-7(2)9-8/h1,7-8H,4H2,2H3	InChI=1S/C8H8O/c1-3-4-5-6-8-7(2)9-8/h1,7-8H,4H2,2H3/t7-,8+/m1/s1
