18
gdb 90369	2.50324	1.43436	1.21469	3.6323	72.22	-0.2235	-0.0211	0.2024	1096.48	0.145758	-439.057895	-439.049131	-439.048186	-439.091168	33.361	
C	-0.9194393463	 1.2159207329	 0.0278632655	-0.406477
C	-0.0413842973	-0.0201038675	-0.0358747715	 0.005233
N	 1.1847622367	 0.0961151756	-0.8731099463	-0.338459
C	 1.9973246593	-0.6851186896	 0.1049123389	-0.188014
C	 2.8827407414	 0.3088182333	 0.8753747948	 0.463232
O	 4.026127024	 0.6476720174	 0.8096512816	-0.301134
C	 1.717635052	 0.6688013928	 1.8320110358	-0.432399
C	 0.85941349	-0.4488389105	 1.1552785003	 0.372669
O	 0.4327874672	-1.494887529	 1.9730415957	-0.477793
H	-0.3361507173	 2.1056813164	 0.2803184046	 0.125274
H	-1.3999226698	 1.3996487063	-0.9391337236	 0.122631
H	-1.7140840379	 1.0892856623	 0.772138966	 0.111057
H	-0.6470017652	-0.8991233476	-0.3026244031	 0.076643
H	 1.12990265	-0.3176297486	-1.7956125321	 0.230111
H	 2.3711271833	-1.6642569575	-0.2009695413	 0.091419
H	 1.9647422031	 0.4288884356	 2.871257513	 0.131411
H	 1.3571246323	 1.6980381478	 1.7769416518	 0.130386
H	-0.1059095954	-1.1298365301	 2.6834548299	 0.284211
67.9452	159.8889	202.2288	213.2561	240.0488	277.5509	356.4937	403.0686	421.1167	500.1368	518.8311	571.6707	631.2511	683.9619	750.85	853.5558	889.9172	911.2642	928.9327	984.7479	1011.8794	1063.5875	1079.2406	1103.8331	1133.5636	1142.4148	1174.3592	1183.5207	1221.1435	1260.9504	1312.9517	1365.0697	1374.8659	1393.0877	1412.6745	1426.1868	1483.2573	1499.7836	1900.6038	2991.0605	3031.5578	3060.5819	3094.9069	3097.5046	3114.8231	3125.5925	3552.855	3801.9103
CC1NC2C(=O)CC12O	C[C@H]1N[C@H]2C(=O)C[C@@]12O	
InChI=1S/C6H9NO2/c1-3-6(9)2-4(8)5(6)7-3/h3,5,7,9H,2H2,1H3	InChI=1S/C6H9NO2/c1-3-6(9)2-4(8)5(6)7-3/h3,5,7,9H,2H2,1H3/t3-,5+,6-/m1/s1
