21
gdb 92626	2.66593	1.51286	1.44665	0.8437	77.44	-0.2426	0.0828	0.3254	1052.0412	0.184565	-424.249084	-424.240936	-424.239991	-424.282282	31.401	
C	 0.8631486322	 1.4156084734	 0.0267709808	-0.395329
C	 0.142742661	 0.0744548588	-0.0690698297	 0.145605
C	 0.5604157755	-0.7803912728	-1.2866399734	-0.27573
C	 1.4937231155	-1.8339480148	-0.6918191006	 0.114796
O	 2.8432750156	-1.3687079652	-0.6025504198	-0.284868
C	 3.2977438338	-1.3836122453	 0.7548575542	-0.070166
C	 2.284807641	-2.2254566203	 1.5399392859	-0.247677
C	 1.001170031	-1.9785517748	 0.7522560309	 0.101395
O	 0.4484584711	-0.7123389829	 1.0969864681	-0.298339
H	 1.9446629722	 1.278444516	-0.0628160353	 0.132726
H	 0.5336012362	 2.0838329412	-0.776176277	 0.109193
H	 0.6461342543	 1.8965970307	 0.9846949161	 0.120037
H	-0.9414886765	 0.2499871426	-0.076223552	 0.07203
H	-0.3076484463	-1.2733794648	-1.735749059	 0.099961
H	 1.0596280116	-0.1973364738	-2.0633588261	 0.11691
H	 1.4766912852	-2.7753602534	-1.2544738942	 0.070982
H	 4.3120593911	-1.7950789197	 0.7770589626	 0.102678
H	 3.3336412193	-0.3574115325	 1.1435572967	 0.101021
H	 2.5410658893	-3.2895908064	 1.5025090401	 0.102663
H	 2.1917050366	-1.9243040791	 2.5851683086	 0.115567
H	 0.2525485303	-2.7718616671	 0.8790552032	 0.066544
51.2098	100.4167	167.8256	253.2711	317.4523	354.5431	373.3241	415.2209	574.3364	678.5899	730.049	788.0951	827.6775	844.5544	867.3374	877.9937	904.7506	929.7221	951.4732	1001.4092	1019.6708	1043.0996	1065.3396	1073.8178	1117.9995	1138.8737	1148.7531	1203.8659	1224.4393	1232.1947	1273.3238	1305.1235	1317.9328	1337.5328	1347.4009	1362.0882	1374.4685	1390.1584	1400.7817	1408.0222	1477.5175	1478.7152	1489.4735	1496.0902	1526.8418	3002.5496	3011.1487	3015.1982	3028.867	3037.2127	3053.8616	3060.6177	3072.9986	3108.0383	3116.2035	3122.2382	3123.0503
CC1CC2OCCC2O1	C[C@H]1C[C@H]2OCC[C@H]2O1	
InChI=1S/C7H12O2/c1-5-4-7-6(9-5)2-3-8-7/h5-7H,2-4H2,1H3	InChI=1S/C7H12O2/c1-5-4-7-6(9-5)2-3-8-7/h5-7H,2-4H2,1H3/t5-,6+,7+/m0/s1
