18
gdb 47820	2.43247	1.7217	1.27573	3.475	71.58	-0.2445	0.0089	0.2534	1027.059	0.150416	-439.103412	-439.095685	-439.094741	-439.135644	29.895	
O	 0.1382834837	 0.0123406015	-0.0194758853	-0.373326
C	 0.0123926095	 1.2211934661	 0.0833997596	 0.376731
N	-1.2066589683	 1.8320953473	 0.0562337816	-0.324724
C	-1.5080655552	 3.2380336527	 0.3110561821	-0.161618
C	-1.0338808171	 4.2069556924	-0.7959474998	-0.190443
C	 0.2529566281	 3.8035453424	-1.5431837172	-0.250957
C	 1.3930810028	 3.2940740583	-0.6744782921	 0.042977
O	 1.2590609831	 3.3794586606	 0.7444541619	-0.247648
C	 1.2573265999	 2.0749753697	 0.1489191908	-0.044323
H	-1.9710488833	 1.1780343353	-0.0182087005	 0.248779
H	-2.5941832907	 3.3110171204	 0.412934317	 0.106665
H	-1.073306796	 3.5365434942	 1.2654409767	 0.143298
H	-1.8211937505	 4.326697056	-1.5482821293	 0.102703
H	-0.8941013574	 5.1891552868	-0.3322726694	 0.113048
H	 0.0221887337	 3.0271641001	-2.2827062721	 0.124955
H	 0.6025474076	 4.6692610036	-2.1153645123	 0.110549
H	 2.396913293	 3.5225205775	-1.0330539446	 0.104872
H	 2.1364895369	 1.471292955	 0.359348693	 0.118461
97.5582	132.2942	251.8024	265.7003	298.1139	366.4844	437.2194	472.635	541.617	606.3934	696.691	742.5876	747.9949	779.8704	850.2418	864.5803	897.7554	964.5804	989.1426	1059.4374	1080.6334	1091.7995	1136.2789	1153.3078	1227.0173	1270.7448	1281.5087	1311.3905	1342.0458	1368.0516	1386.0208	1405.2929	1420.2492	1449.8761	1464.5989	1485.8739	1498.0546	1508.1831	1774.1094	3033.5986	3041.052	3067.9266	3070.4905	3082.9852	3109.7853	3122.9161	3155.9648	3622.4035
O=C1NCCCC2OC12	O=C1NCCC[C@H]2O[C@@H]12	
InChI=1S/C6H9NO2/c8-6-5-4(9-5)2-1-3-7-6/h4-5H,1-3H2,(H,7,8)	InChI=1S/C6H9NO2/c8-6-5-4(9-5)2-1-3-7-6/h4-5H,1-3H2,(H,7,8)/t4-,5-/m1/s1
