19
gdb 65965	2.27547	1.43721	1.39368	3.4174	75.6	-0.2486	-0.0249	0.2238	1079.2308	0.156805	-423.006245	-422.997227	-422.996283	-423.040137	33.498	
C	-0.3903188607	 1.6521858536	 0.3551438275	-0.479381
C	-0.0423814541	 0.1827228666	 0.1307171735	 0.119885
C	 1.1270350074	-0.1791002767	-0.8305166937	-0.270641
C	 1.687497897	-1.1837813494	 0.2206812542	-0.318022
C	 0.7527129105	-0.5502764333	 1.2471608166	 0.41892
C	 1.0333023627	-0.0946359776	 2.6095345254	-0.265016
O	 0.1706609745	-1.214326252	 2.3535266465	-0.271747
C	-1.3051055697	-0.6094050068	-0.1701624651	 0.140305
O	-1.4403712319	-1.3788034026	-1.0864715456	-0.252495
H	 0.4951003826	 2.2155543467	 0.6633825035	 0.124689
H	-0.7785750879	 2.1083143401	-0.5620333617	 0.131268
H	-1.1535430933	 1.7683562795	 1.1333581418	 0.126926
H	 0.8125456708	-0.6087910595	-1.781359707	 0.129035
H	 1.7909751697	 0.6699974129	-1.0053981984	 0.101946
H	 1.3994070105	-2.214940387	 0.0005104581	 0.132609
H	 2.7572884071	-1.1487488597	 0.4363880685	 0.108073
H	 1.9900631877	-0.3410564177	 3.0686455655	 0.119769
H	 0.540824159	 0.790843828	 3.0085849833	 0.117289
H	-2.1308923918	-0.4295721951	 0.553513177	 0.086586
67.4572	78.8697	193.5642	211.6703	240.0579	278.0341	299.6997	336.6685	415.4757	447.7006	531.6079	595.5335	698.7575	757.0822	849.3012	872.447	882.4937	910.8965	929.825	956.4058	998.7478	1008.2058	1119.1116	1130.2732	1138.3825	1157.9072	1171.8561	1205.941	1223.8969	1236.4888	1271.814	1285.2469	1401.5669	1415.8601	1425.666	1468.0928	1487.9039	1493.9442	1495.6857	1531.5161	1823.9569	2887.7465	3027.7375	3068.3601	3079.2254	3081.9039	3093.4953	3107.7089	3121.3266	3147.4955	3168.9529
CC1(CCC11CO1)C=O	C[C@]1(CC[C@]21CO2)C=O	
InChI=1S/C7H10O2/c1-6(4-8)2-3-7(6)5-9-7/h4H,2-3,5H2,1H3	InChI=1S/C7H10O2/c1-6(4-8)2-3-7(6)5-9-7/h4H,2-3,5H2,1H3/t6-,7+/m0/s1
