21
gdb 111733	2.91568	1.08265	0.92873	3.349	85.54	-0.241	-0.0156	0.2254	1353.6429	0.181946	-387.083432	-387.074267	-387.073323	-387.117662	34.238	
C	 0.2091751406	 1.4509911904	 0.1909524427	-0.37463
C	-0.1993569866	 0.0012016391	-0.0977156394	-0.212115
C	 0.584201393	-0.5930133388	-1.2528314218	-0.05616
C	 1.9401566483	-1.2026800203	-1.1660422181	-0.111637
C	 2.1425619179	-2.0452414147	 0.1012159211	-0.229378
C	 0.8924664075	-2.9078022472	-0.2590962338	-0.304983
C	 0.6915495443	-2.0824400322	-1.5326765953	 0.244396
C	 0.3940796106	-2.6406852873	-2.8524715111	 0.056236
O	 0.1052583095	-3.7967781098	-3.0634762164	-0.275944
H	 1.2686493999	 1.5158055457	 0.4596438775	 0.121278
H	 0.0501752581	 2.0901819495	-0.6844070454	 0.116599
H	-0.3747231935	 1.8671415428	 1.0174170256	 0.116017
H	-0.0669054457	-0.6008681515	 0.8063273399	 0.106372
H	-1.2690135623	-0.0414935822	-0.3374538157	 0.10578
H	 0.459071376	-0.0296050113	-2.1785998934	 0.091309
H	 2.733768372	-0.9100898304	-1.8440498957	 0.098537
H	 3.0671882569	-2.6240952201	 0.0702241018	 0.113481
H	 2.1122256188	-1.4962360891	 1.04737995	 0.104723
H	 1.1445043221	-3.941909009	-0.4974822773	 0.129187
H	 0.0638118262	-2.907721062	 0.4541396658	 0.103583
H	 0.4692719665	-1.9037172916	-3.6876434809	 0.057349
62.0465	98.0991	162.1554	198.2581	226.764	258.2357	271.0824	310.1591	396.9322	515.7218	547.5823	692.9065	734.4052	770.2701	789.6067	815.0896	877.0365	932.3422	938.6823	952.728	1000.529	1010.5547	1048.8684	1059.8501	1087.7615	1120.6078	1137.5425	1144.3337	1219.8546	1235.6925	1242.2706	1257.2677	1293.6069	1328.5034	1341.1118	1363.208	1410.5075	1424.0415	1466.6224	1477.6828	1493.4778	1498.0711	1506.0924	1508.6842	1794.6441	2842.8204	3032.8693	3034.5026	3054.3381	3066.1478	3074.8362	3099.8593	3108.1004	3108.5531	3110.7264	3132.1881	3178.5863
CCC1C2CCC12C=O	CC[C@H]1[C@H]2CC[C@@]12C=O	
InChI=1S/C8H12O/c1-2-6-7-3-4-8(6,7)5-9/h5-7H,2-4H2,1H3	InChI=1S/C8H12O/c1-2-6-7-3-4-8(6,7)5-9/h5-7H,2-4H2,1H3/t6-,7+,8+/m0/s1
