23
gdb 101571	4.35004	0.64416	0.62264	2.9299	82.97	-0.2641	-0.0239	0.2402	1897.5601	0.202499	-425.454895	-425.443699	-425.442755	-425.492395	39.822	
C	 0.0313585266	 1.5744195082	 0.0764222498	-0.392533
C	 0.0119254908	 0.0523145829	-0.0954379354	-0.176131
C	 0.8696837953	-0.472815525	-1.2613696952	 0.055862
C	 2.3632844924	-0.1640340173	-1.0821737979	-0.400241
C	 0.6448319007	-1.9828345979	-1.4440836283	-0.316111
C	 1.1723611865	-2.5498137345	-2.7465301225	 0.353738
O	 1.3647656403	-1.8772013845	-3.7390436848	-0.326276
C	 1.4492813413	-4.0468716607	-2.8118902019	-0.128155
O	 1.8096445807	-4.4455955307	-4.0991664145	-0.420272
H	 1.0247634862	 1.9449400392	 0.3459933372	 0.120664
H	-0.273081963	 2.0793733129	-0.8471919177	 0.11728
H	-0.6586479787	 1.8845573434	 0.8672325008	 0.113973
H	 0.3398347041	-0.426418197	 0.8381792442	 0.091872
H	-1.0252960485	-0.2715964506	-0.252458389	 0.091135
H	 0.5320713461	 0.0139430247	-2.1848321788	 0.095816
H	 2.9467741267	-0.5463740461	-1.9240089958	 0.128165
H	 2.5451234718	 0.9120618853	-1.0222361211	 0.120371
H	 2.7502523235	-0.6193248284	-0.1618794287	 0.107315
H	 1.0665615086	-2.5529334714	-0.6051376308	 0.112733
H	-0.43260042	-2.2078868566	-1.4357181304	 0.130091
H	 2.2456797182	-4.26663759	-2.0785551073	 0.113427
H	 0.5554709723	-4.5882645656	-2.4613529251	 0.11387
H	 1.8592479581	-3.6204783903	-4.6091334667	 0.293408
30.9866	62.0654	89.3103	111.8195	149.4582	215.2235	246.1613	263.8903	281.5914	329.6313	368.2836	408.3147	420.7538	485.9718	502.6865	697.2326	773.4781	795.6401	828.7054	891.5795	925.4096	967.943	976.371	1026.2079	1042.6732	1067.4119	1131.9612	1144.1727	1164.4272	1187.6377	1226.9517	1263.0438	1284.6292	1308.1136	1317.2264	1370.7403	1378.8653	1394.4912	1409.9888	1412.5604	1446.9917	1452.5216	1484.6585	1491.3705	1496.6257	1497.8349	1507.633	1515.5652	1790.7663	2956.7927	2988.4511	3003.3676	3007.4623	3026.1036	3032.0168	3034.7803	3040.2837	3052.6915	3100.4672	3101.5464	3108.8723	3120.9982	3675.5681
CCC(C)CC(=O)CO	CC[C@@H](C)CC(=O)CO	
InChI=1S/C7H14O2/c1-3-6(2)4-7(9)5-8/h6,8H,3-5H2,1-2H3	InChI=1S/C7H14O2/c1-3-6(2)4-7(9)5-8/h6,8H,3-5H2,1-2H3/t6-/m1/s1
