19
gdb 40053	3.25584	1.57274	1.49797	2.3034	74.	-0.2322	0.0869	0.3192	968.2747	0.161604	-423.018664	-423.011773	-423.010829	-423.049732	28.733	
C	 0.0034535048	 1.4988541248	 0.0511143461	-0.34677
C	 1.3155559649	 0.7220602112	 0.019392585	-0.357128
C	 0.0024259547	 0.0088184017	-0.0473378447	 0.509491
O	-0.4067333554	-0.7429985843	 1.1005500355	-0.30987
C	-1.0750622032	-1.8790059671	 0.5655152024	 0.203856
C	-0.2564281388	-2.22441822	-0.6823949656	-0.262164
C	-0.504222969	-0.8021794719	-1.2343969085	-0.167117
C	-2.0441176143	-0.7672648371	-1.1646263658	-0.074435
O	-2.3374757129	-1.4997348948	 0.0464769698	-0.269327
H	-0.29735348	 1.9287100378	 0.9997702543	 0.128304
H	-0.2722727737	 2.082676476	-0.8215360772	 0.111465
H	 1.9306741788	 0.7795126621	-0.8729186695	 0.111205
H	 1.8661573818	 0.6425838058	 0.9501680638	 0.124604
H	-1.2191578766	-2.6110806463	 1.3574598586	 0.092185
H	 0.7914167196	-2.4375533328	-0.4663304738	 0.112903
H	-0.7020050016	-3.021232376	-1.2808306748	 0.106356
H	-0.0721376286	-0.5382768779	-2.1986679239	 0.079731
H	-2.4417449117	 0.2495371546	-1.0829291535	 0.10983
H	-2.514384879	-1.2695024957	-2.0194114181	 0.09688
118.642	230.2568	275.977	327.5457	421.9132	502.0959	530.9752	559.6374	675.794	762.6514	806.2665	827.491	861.6546	889.9538	907.6529	915.6107	934.3082	952.2413	957.165	976.7956	987.1321	1043.386	1056.5932	1066.6946	1071.7264	1083.2642	1124.9759	1173.2718	1187.1581	1223.7704	1233.4053	1272.1834	1278.7545	1307.7945	1350.6131	1378.2145	1396.5367	1450.7106	1486.9506	1502.6613	1523.7009	3020.4596	3073.7228	3080.4443	3127.3299	3129.2229	3132.0854	3143.24	3155.2153	3213.134	3226.9566
C1CC11OC2CC1CO2	C1CC21O[C@@H]1C[C@H]2CO1	
InChI=1S/C7H10O2/c1-2-7(1)5-3-6(9-7)8-4-5/h5-6H,1-4H2	InChI=1S/C7H10O2/c1-2-7(1)5-3-6(9-7)8-4-5/h5-6H,1-4H2/t5-,6+/m0/s1
