21
gdb 89453	2.25141	1.50149	1.3701	1.7	77.77	-0.2413	0.0582	0.2995	1100.2319	0.180315	-424.201675	-424.192174	-424.19123	-424.235619	36.129	
C	-0.5718468504	 1.4350277119	-0.0009437696	-0.471176
C	-0.0024197754	 0.0400135182	-0.0241724936	 0.407831
C	 1.1481031794	-0.3160864676	-0.9948273467	-0.316533
C	 1.8353512867	-1.159621554	 0.1193157279	 0.109522
O	 3.1745387511	-0.8417163179	 0.4219760438	-0.4316
C	 0.7331475754	-0.7099761524	 1.1458305985	 0.177063
C	 1.1715309287	-0.1192787032	 2.4643358611	-0.491193
C	-0.4841610833	-1.6481882242	 1.1057588482	-0.119644
O	-1.0378343178	-0.9775601201	-0.0473948864	-0.336287
H	 0.2208293711	 2.1851542364	 0.0878877239	 0.109337
H	-1.1206707239	 1.6310465288	-0.9292709909	 0.131015
H	-1.2678383956	 1.5608906065	 0.8338071809	 0.123018
H	 0.8475402887	-0.8356033444	-1.9072540915	 0.112203
H	 1.7589117142	 0.5530700596	-1.2670064071	 0.087915
H	 1.8319995718	-2.2388561055	-0.0595214991	 0.087747
H	 3.2707753368	 0.1161999296	 0.4192397476	 0.277479
H	 1.9366945443	 0.6531014741	 2.3354193169	 0.103792
H	 0.3272037144	 0.3314586887	 2.9963324144	 0.118698
H	 1.6039645542	-0.8914884396	 3.1107662697	 0.13013
H	-0.2837663846	-2.7113517335	 0.9167900062	 0.096652
H	-1.1504288858	-1.5619823315	 1.9752551758	 0.09403
56.2407	169.4261	180.023	194.2105	224.1845	274.9618	276.8003	328.8381	362.4413	382.7462	447.331	494.5683	585.7168	677.1989	689.3969	799.287	845.3144	897.503	908.7158	940.9514	954.8524	987.4375	1014.5168	1051.592	1099.8142	1141.6534	1150.9671	1165.9817	1189.7264	1217.307	1220.2957	1265.4206	1275.5457	1304.6124	1316.4201	1364.8059	1406.4234	1415.0569	1434.0064	1457.2943	1477.5672	1486.2063	1488.1484	1493.9724	1522.8837	2993.9511	3027.8505	3029.54	3036.9406	3038.1202	3064.8308	3091.3584	3097.3392	3097.7677	3108.7335	3113.6571	3810.7494
CC12CC(O)C1(C)CO2	C[C@@]12C[C@@H](O)[C@]1(C)CO2	
InChI=1S/C7H12O2/c1-6-4-9-7(6,2)3-5(6)8/h5,8H,3-4H2,1-2H3	InChI=1S/C7H12O2/c1-6-4-9-7(6,2)3-5(6)8/h5,8H,3-4H2,1-2H3/t5-,6+,7-/m1/s1
