15
gdb 64926	2.23473	1.55385	1.11857	1.4438	65.71	-0.2591	-0.0619	0.1972	1073.6871	0.10869	-494.899627	-494.890862	-494.889918	-494.932886	32.416	
O	-0.1336114725	 1.2818964709	 0.0108922129	-0.462317
C	-0.0546142716	-0.0966412009	 0.1013331236	 0.269955
C	-0.5855735952	-0.7388470769	 1.346243837	-0.381164
C	-1.4865175185	-0.773242682	 0.1386647638	 0.258229
O	-2.532600867	 0.1178754952	 0.0109916079	-0.465415
C	-1.711025411	-2.0690908365	-0.5553873549	 0.105052
O	-1.0005122491	-3.039948191	-0.4330038394	-0.274585
C	 1.0278754704	-0.6741370636	-0.7264999661	 0.079672
O	 1.6888705525	 0.0517236881	-1.4405266574	-0.291429
H	 0.4780532677	 1.5113670346	-0.712816641	 0.308062
H	-0.149559559	-1.6898965683	 1.6352296571	 0.154556
H	-0.8662082032	-0.0621227868	 2.145173654	 0.149133
H	-2.1403582376	 0.9928114855	-0.1425269575	 0.303886
H	-2.61221498	-2.0650738495	-1.2024360713	 0.104363
H	 1.1799773739	-1.7630594987	-0.6715513486	 0.142001
102.9843	121.5578	192.0429	210.2728	266.6381	310.7628	331.0432	363.322	426.5706	449.6356	527.5591	547.0827	580.3366	651.5982	693.645	784.7358	856.7989	937.0232	944.7229	1036.0548	1046.074	1082.9512	1115.9683	1227.5834	1277.1093	1328.4647	1374.4526	1380.3079	1424.8807	1427.6263	1472.2936	1769.378	1800.6696	2932.029	3029.7335	3133.3397	3239.1605	3628.4268	3684.4395
OC1(CC1(O)C=O)C=O	O[C@]1(C[C@]1(O)C=O)C=O	
InChI=1S/C5H6O4/c6-2-4(8)1-5(4,9)3-7/h2-3,8-9H,1H2	InChI=1S/C5H6O4/c6-2-4(8)1-5(4,9)3-7/h2-3,8-9H,1H2/t4-,5+
