25
gdb 100688	2.68457	0.98042	0.88606	2.3094	85.39	-0.2465	0.0763	0.3228	1481.6591	0.224752	-426.615968	-426.603984	-426.60304	-426.652847	43.707	
C	-0.0389423648	 1.3066421626	-0.18185308	-0.243404
O	-0.016109039	-0.0732884251	 0.0955548785	-0.280607
C	 0.7220901832	-0.5315694868	 1.2445816274	 0.35775
C	 2.1433959504	 0.053699627	 1.2701982898	-0.436596
C	-0.0409602928	-0.1310599536	 2.5190769591	-0.426359
C	 0.7160972344	-2.0764363241	 1.0468028345	 0.035692
C	 1.4070701347	-2.5163912494	-0.2522929757	-0.411317
C	 1.2743236546	-2.858133523	 2.2406689615	-0.098548
O	 1.0404673166	-4.2401288144	 1.9936846755	-0.422117
H	 0.9452359776	 1.6983864102	-0.4743413571	 0.105451
H	-0.7231396819	 1.438159276	-1.0246363465	 0.125642
H	-0.4137691666	 1.9107274794	 0.6569692549	 0.101891
H	 2.128717745	 1.1271978374	 1.4800608756	 0.11265
H	 2.7390092567	-0.4196213153	 2.0559738086	 0.116455
H	 2.6527923804	-0.1017447144	 0.3160898835	 0.126714
H	-1.0214483533	-0.6153130199	 2.5486303311	 0.120277
H	 0.5096776196	-0.4034506342	 3.4235847559	 0.114225
H	-0.1945175425	 0.9512489954	 2.5559451755	 0.111204
H	-0.3445456327	-2.3474935798	 0.9674650204	 0.088307
H	 1.2345359359	-3.5811235276	-0.4194784522	 0.128488
H	 1.0174558177	-1.9529481701	-1.1013409033	 0.123948
H	 2.4915952599	-2.3645647006	-0.2037826727	 0.100188
H	 2.3533103387	-2.6615007124	 2.3524337269	 0.081144
H	 0.7824558633	-2.5503709639	 3.173687672	 0.084271
H	 1.415945885	-4.7407820536	 2.7233165666	 0.284652
54.9282	82.6354	98.1371	169.6305	182.6804	222.5698	235.4001	249.6069	264.2793	287.0695	303.0531	333.7618	349.3846	376.0331	394.0289	457.1703	503.3282	578.9557	729.5443	822.4793	898.8787	912.0104	926.8123	949.4138	996.3354	1046.5906	1071.5859	1086.0075	1117.539	1169.2734	1174.2643	1182.8795	1203.6235	1217.8413	1250.2081	1277.3019	1287.5558	1335.0231	1370.0909	1394.5575	1395.8796	1413.6282	1458.2416	1473.3679	1479.831	1482.7391	1492.8182	1500.2282	1502.0665	1507.8698	1513.3298	1515.7642	1526.0092	2966.0858	2988.5874	3012.6207	3030.0735	3035.1063	3040.2556	3045.2636	3048.6596	3102.8255	3107.2241	3113.3345	3114.8908	3118.1035	3125.5882	3147.4521	3834.5296
COC(C)(C)C(C)CO	COC(C)(C)[C@@H](C)CO	
InChI=1S/C7H16O2/c1-6(5-8)7(2,3)9-4/h6,8H,5H2,1-4H3	InChI=1S/C7H16O2/c1-6(5-8)7(2,3)9-4/h6,8H,5H2,1-4H3/t6-/m0/s1
