18
gdb 66961	2.56572	1.72526	1.28602	1.9692	81.33	-0.2248	0.0278	0.2527	1031.074	0.147025	-364.702143	-364.694197	-364.693253	-364.73423	31.479	
C	 0.0323368779	 1.4939691552	 0.1273035386	-0.513945
C	-0.0147587556	 0.0027500344	-0.0103622305	 0.331553
C	-1.0028043454	-0.8923547933	 0.7707577566	-0.131893
C	-1.0665993201	-2.210988819	 0.0233460304	-0.18504
N	 0.4168876665	-2.0772696621	-0.2755670846	-0.182161
C	 0.4827399724	-1.0775514129	 0.9036902577	-0.095818
C	 0.44593308	-0.8497916132	-1.1941706995	-0.203848
C	-0.3132473889	-0.8942708222	-2.4310454871	 0.327237
C	-0.9377666768	-0.9058179488	-3.4591942079	-0.441545
H	 1.0211793867	 1.8857102675	-0.136260713	 0.123
H	-0.704091533	 1.9722734098	-0.5278842282	 0.132796
H	-0.1849795945	 1.804006746	 1.1546790642	 0.123256
H	-1.6929268888	-0.4584999758	 1.4842496498	 0.089334
H	-1.209418388	-3.0657110803	 0.6894755547	 0.108851
H	-1.7029685614	-2.312293385	-0.8603606305	 0.115213
H	 1.184103873	-1.11890558	 1.7247789829	 0.100285
H	 1.5000762749	-0.6489433895	-1.415092505	 0.104632
H	-1.4878333791	-0.9224347007	-4.3675899686	 0.198092
121.8084	144.6582	206.1863	250.9272	281.8516	377.4904	413.3403	521.0968	558.195	615.71	628.5312	659.7653	729.6278	799.0567	832.6125	839.0104	867.9428	894.3489	929.0304	968.428	984.9793	990.8638	1045.3044	1083.8142	1093.1185	1116.9113	1142.5584	1167.4588	1212.6404	1234.4664	1260.287	1309.5238	1353.6299	1410.626	1435.4767	1486.314	1498.8622	1509.1758	2227.5989	3026.7925	3045.6823	3055.7487	3089.1064	3098.1082	3110.8398	3186.4607	3219.9011	3500.6477
CC12C3CN(C13)C2C#C	C[C@]12[C@H]3CN([C@@H]13)[C@H]2C#C	
InChI=1S/C8H9N/c1-3-6-8(2)5-4-9(6)7(5)8/h1,5-7H,4H2,2H3	InChI=1S/C8H9N/c1-3-6-8(2)5-4-9(6)7(5)8/h1,5-7H,4H2,2H3/t5-,6-,7+,8+/m0/s1
