13
gdb 129794	3.66535	1.64526	1.13757	6.9627	67.54	-0.2031	-0.0205	0.1825	969.1568	0.092203	-448.916114	-448.909152	-448.908208	-448.947357	26.402	
N	 0.0485346506	 1.4398958331	 0.1614767701	-0.604598
C	-0.0988586714	 0.0704248296	 0.0446694869	 0.336069
C	-1.1462632306	-0.7977472388	 0.031249169	 0.15844
N	-2.5141476287	-1.0359854626	 0.0322849444	-0.451606
C	-2.6349689692	-2.4115380937	-0.0020235139	 0.025925
N	-1.5124379996	-3.0788737433	-0.0586065933	-0.332968
C	-0.5475081528	-2.0829302602	-0.0383408155	 0.425081
N	 0.7702191299	-2.0563920146	-0.0547070114	-0.281064
O	 1.0383621401	-0.6609789242	-0.0075085294	-0.216016
H	 1.0085554435	 1.7288013402	 0.0215911468	 0.268681
H	-0.5768033873	 1.9728066019	-0.4285911015	 0.260552
H	-3.2602502446	-0.3874888657	 0.2106882167	 0.270256
H	-3.6155901699	-2.8693270118	 0.0088595611	 0.14125
165.9573	187.4719	252.0828	280.5126	301.1162	414.9446	571.9144	603.4179	618.7402	631.7032	693.2449	727.3088	783.1003	816.8342	895.8886	907.4897	949.3542	1048.2429	1085.5515	1136.7792	1262.7357	1307.7559	1373.3404	1403.5394	1431.9225	1545.3978	1576.5236	1640.4026	1761.5149	3232.9688	3542.0403	3637.7565	3684.9303
NC1=C2NC=NC2=NO1	Nc1c2[nH]cnc2no1	
InChI=1S/C4H4N4O/c5-3-2-4(8-9-3)7-1-6-2/h1H,5H2,(H,6,7,8)	InChI=1S/C4H4N4O/c5-3-2-4(8-9-3)7-1-6-2/h1H,5H2,(H,6,7,8)
