22
gdb 9845	3.16513	1.4071	1.18186	1.6621	77.78	-0.2573	0.0846	0.3419	1145.8854	0.198195	-350.196553	-350.186885	-350.185941	-350.230913	35.817	
C	 0.1922034613	 1.453873226	-0.2437734427	-0.394092
C	-0.0477196092	-0.0543886754	-0.3648981729	-0.161614
C	-1.4433525865	-0.5269599797	 0.1056130216	-0.026232
C	-2.5552958942	 0.0283623358	-0.7937140255	-0.417555
C	-1.4566172207	-2.0573612292	 0.2125375207	 0.414646
C	-0.7164665641	-2.6421227163	 1.4008934232	-0.462941
C	-2.5094443292	-2.8852780976	-0.4012564554	-0.230026
O	-1.2314523627	-2.7525584144	-1.0281573161	-0.280515
H	 1.2174145441	 1.7056568837	-0.533010431	 0.113061
H	-0.4771359914	 2.0345732578	-0.8853985273	 0.118682
H	 0.0456468753	 1.7980349834	 0.7866810231	 0.110793
H	 0.0905338132	-0.3769422668	-1.4036121943	 0.112668
H	 0.7236074326	-0.5726938636	 0.2152579097	 0.094641
H	-1.6031934963	-0.1426262471	 1.123508272	 0.067366
H	-3.5481870253	-0.2038660378	-0.3978486576	 0.11125
H	-2.4859099638	 1.1157066983	-0.8767239395	 0.114247
H	-2.4791407605	-0.3898129392	-1.8031478369	 0.131074
H	-1.2045877103	-2.3502984024	 2.3373213962	 0.118993
H	-0.7040399927	-3.7330266174	 1.3405919288	 0.125383
H	 0.3205576874	-2.2963307338	 1.4433605677	 0.127043
H	-2.7207458292	-3.8680754215	 0.0208067732	 0.102729
H	-3.3398950877	-2.4328169228	-0.9365694869	 0.1104
55.0993	72.9633	174.5111	200.2654	225.5246	255.9662	305.0141	325.7254	344.5588	373.9572	429.399	472.5648	540.3906	707.0206	774.0772	819.2062	839.3568	918.9534	921.7296	972.2214	989.694	1017.1506	1039.2648	1078.0751	1109.0378	1137.3794	1145.8104	1175.8026	1184.6016	1237.7308	1288.6123	1329.1328	1365.4013	1380.9308	1385.526	1407.034	1414.9394	1418.7124	1482.4688	1484.852	1495.4062	1498.5185	1508.1419	1509.4121	1514.5123	1534.5979	3000.7339	3031.8453	3035.3825	3039.3796	3040.9583	3069.1991	3083.5201	3097.2269	3103.2699	3107.2424	3108.5491	3119.0817	3124.0355	3175.883
CCC(C)C1(C)CO1	CC[C@@H](C)[C@@]1(C)CO1	
InChI=1S/C7H14O/c1-4-6(2)7(3)5-8-7/h6H,4-5H2,1-3H3	InChI=1S/C7H14O/c1-4-6(2)7(3)5-8-7/h6H,4-5H2,1-3H3/t6-,7-/m1/s1
