23
gdb 119311	2.47137	1.02773	0.85738	2.6302	86.38	-0.245	-0.0193	0.2256	1487.6913	0.204078	-388.298243	-388.287966	-388.287022	-388.334646	37.108	
C	 0.1765901171	 1.7148996713	 0.1130568157	-0.378094
C	 0.1314257522	 0.1843563245	 0.154128773	-0.180732
C	-1.2685809233	-0.3656041391	-0.1583686584	-0.260242
C	-1.4564787568	-1.8817017907	 0.023576857	 0.237153
C	-1.3017586253	-2.4393413746	 1.4846666633	-0.264805
C	-2.6025548062	-3.2596281256	 1.275751569	-0.210724
C	-2.9143794205	-2.4205258911	 0.0071908492	-0.269851
C	-0.5506920177	-2.6648419898	-0.9035224176	 0.11546
O	-0.9153920392	-3.4577017987	-1.7355460884	-0.256003
H	 1.1799151746	 2.0899455354	 0.3368400402	 0.114187
H	-0.1077290987	 2.0929259493	-0.8751669645	 0.117845
H	-0.5139589683	 2.1506153961	 0.8436787917	 0.115218
H	 0.8650805993	-0.2139544843	-0.556205571	 0.103
H	 0.4463220746	-0.1642205723	 1.1462130364	 0.101989
H	-1.9939992263	 0.1309457501	 0.5000130015	 0.096858
H	-1.552636853	-0.0885022939	-1.1829853534	 0.10522
H	-0.3866462843	-2.993752633	 1.715060753	 0.101147
H	-1.4123524945	-1.6414071435	 2.2252382513	 0.103538
H	-2.3978057087	-4.3058467867	 1.0364273324	 0.115721
H	-3.3342894523	-3.226809932	 2.0853985212	 0.099812
H	-3.6426222046	-1.6263302802	 0.1917967093	 0.093653
H	-3.1966456123	-2.969611101	-0.891935929	 0.122773
H	 0.536199594	-2.4762556504	-0.747597972	 0.076877
41.0346	66.4531	83.1976	118.9443	164.3297	244.5895	269.0045	299.705	324.886	349.1212	383.0146	615.57	644.9298	734.7241	742.5409	793.4314	854.292	867.7714	894.8904	908.3599	948.2592	967.5414	986.6308	1025.28	1052.6112	1067.6931	1092.1837	1150.6247	1181.525	1202.8376	1217.8755	1250.7515	1256.333	1276.579	1286.1343	1300.0214	1328.3136	1345.2058	1392.199	1413.0571	1427.2811	1470.8935	1477.8619	1484.4552	1492.4057	1499.9448	1502.4203	1510.1057	1817.4031	2868.2927	3005.2612	3024.7365	3030.7312	3036.9911	3043.7894	3063.1984	3065.5228	3069.2417	3090.3865	3098.7597	3104.3748	3118.3816	3134.957
CCCC1(CCC1)C=O	CCCC1(CCC1)C=O	
InChI=1S/C8H14O/c1-2-4-8(7-9)5-3-6-8/h7H,2-6H2,1H3	InChI=1S/C8H14O/c1-2-4-8(7-9)5-3-6-8/h7H,2-6H2,1H3
