19
gdb 79966	1.83953	1.7763	1.59403	1.7833	75.56	-0.2291	0.0011	0.2303	1020.3598	0.158681	-423.011247	-423.002561	-423.001616	-423.043789	34.184	
C	-0.1051813785	 1.5668134553	-0.0807787524	-0.442243
C	 0.0545485593	 0.0685688967	 0.0677215129	-0.067132
C	 1.3529292088	-0.7094213959	-0.1953090501	-0.163832
C	 2.6271660574	 0.0663760667	-0.0995334813	-0.070687
C	 2.836051054	 0.5265818144	 1.1362766335	-0.139433
C	 1.7500317687	 0.0726976152	 2.0956407208	 0.010148
O	 1.1840914295	 1.0952062768	 2.9101869774	-0.440978
C	 0.7578801183	-0.6685556801	 1.187811184	 0.359393
O	 0.1544831948	-1.8134054714	 1.7121008944	-0.474184
H	 0.8266785466	 2.1047120209	 0.115132331	 0.119729
H	-0.4130934923	 1.8205081254	-1.1012114899	 0.120906
H	-0.8769679025	 1.9520692306	 0.5956214413	 0.119364
H	-0.8144536974	-0.4968922421	-0.2620312251	 0.094444
H	 1.2946328252	-1.6000098463	-0.8104488266	 0.099323
H	 3.2698978267	 0.2454919153	-0.9547226399	 0.101203
H	 3.6655450999	 1.143440383	 1.4626922062	 0.102474
H	 2.1478196903	-0.6537852819	 2.8163119537	 0.102922
H	 0.888936416	 1.8020832267	 2.3273160888	 0.283338
H	-0.479880195	-1.5253050191	 2.3786827413	 0.285245
131.3655	186.9292	223.3167	238.0063	267.2889	299.9254	317.3388	339.9473	389.4068	479.9774	540.974	593.8351	608.7417	704.9229	762.6167	779.4937	834.1552	894.4037	946.5238	966.8438	982.7735	1011.4555	1027.7411	1076.7366	1082.2265	1112.7494	1120.58	1149.8962	1197.0853	1247.5882	1260.363	1305.1878	1318.8519	1347.9627	1371.2084	1412.6849	1425.5691	1459.1986	1505.0581	1509.4057	1665.3953	3026.7719	3027.9638	3082.2852	3102.7596	3136.2289	3177.3652	3185.4022	3209.4939	3788.0932	3820.68
CC1C2C=CC(O)C12O	C[C@H]1[C@H]2C=C[C@@H](O)[C@@]12O	
InChI=1S/C7H10O2/c1-4-5-2-3-6(8)7(4,5)9/h2-6,8-9H,1H3	InChI=1S/C7H10O2/c1-4-5-2-3-6(8)7(4,5)9/h2-6,8-9H,1H3/t4-,5+,6+,7+/m0/s1
