21
gdb 121283	2.73848	0.98087	0.77001	2.502	81.69	-0.2283	0.0215	0.2497	1510.3369	0.181388	-424.231509	-424.221626	-424.220682	-424.26694	35.554	
C	-0.1009397612	 1.5169595737	-0.0624165903	-0.498647
C	 0.0150845569	 0.0270377988	-0.0276293659	 0.315892
C	 0.1551226993	-0.8196992393	-1.0440113746	-0.209958
C	 0.1886975902	-2.2348848926	-0.5485087753	-0.116289
O	 0.1048059195	-2.1306382554	 0.8708021802	-0.281282
C	-0.049210671	-0.7624299179	 1.2630242332	 0.033271
C	 1.0208180461	-0.395444933	 2.297532281	-0.211045
C	 0.9435506635	-1.260897318	 3.5571502541	-0.064423
O	 1.8978818073	-0.8819099235	 4.5390908297	-0.421848
H	 0.7157856848	 1.9979661885	 0.4888443301	 0.134436
H	-0.0841720107	 1.8935908297	-1.0881617231	 0.127563
H	-1.0344746254	 1.8509050952	 0.4079914514	 0.130103
H	 0.2196921826	-0.5576762821	-2.093198583	 0.098181
H	-0.653692055	-2.8328509009	-0.9337588306	 0.102242
H	 1.1119302643	-2.7673541789	-0.8254431722	 0.103167
H	-1.04178304	-0.6380992123	 1.7351942574	 0.075006
H	 2.0098211734	-0.5042941225	 1.8320511206	 0.086399
H	 0.9075438241	 0.656059049	 2.5874112702	 0.101609
H	-0.035542238	-1.135640749	 4.0338246233	 0.106556
H	 1.0399785649	-2.3200608805	 3.283715866	 0.109735
H	 2.7713657343	-1.0823558589	 4.1884921776	 0.279333
65.3456	92.9539	107.218	137.0812	168.4151	238.4129	256.5263	295.2501	339.4558	369.4614	459.1057	577.1197	605.2005	765.8388	783.4056	809.473	873.6812	929.6739	946.9275	1010.5794	1024.4721	1048.0648	1051.8676	1071.031	1076.9349	1099.3196	1116.813	1170.8627	1199.7697	1210.6601	1265.1405	1295.604	1312.5405	1353.8915	1372.8057	1383.5316	1401.2128	1415.8255	1420.1244	1473.9358	1481.3597	1489.5011	1514.5226	1524.3467	1734.0968	2922.6069	2966.0678	2987.0569	3014.2606	3019.3303	3022.7892	3057.1021	3070.5129	3080.3301	3116.3215	3207.2687	3817.2171
CC1=CCOC1CCO	CC1=CCO[C@H]1CCO	
InChI=1S/C7H12O2/c1-6-3-5-9-7(6)2-4-8/h3,7-8H,2,4-5H2,1H3	InChI=1S/C7H12O2/c1-6-3-5-9-7(6)2-4-8/h3,7-8H,2,4-5H2,1H3/t7-/m0/s1
