19
gdb 60651	2.95108	1.21633	0.99402	5.2944	72.41	-0.2322	0.0491	0.2814	1230.4457	0.159737	-456.34696	-456.337581	-456.336636	-456.381688	33.778	
C	-0.0341596822	 1.4524915562	 0.054220342	-0.36332
N	 0.0940130413	 0.008493548	-0.0803952068	-0.111007
C	 0.0892008811	-0.8149259538	 1.1144403588	 0.007028
C	-0.8347430373	-2.051037986	 1.2566241567	-0.090028
O	 0.2535357443	-2.8166811572	 1.8113118734	-0.274428
C	 1.225372545	-1.8245137753	 1.4199675953	-0.087842
C	 0.1980539735	-0.5909024638	-1.3182692059	 0.447883
N	 0.1051680816	 0.2674047129	-2.4093295026	-0.56725
O	 0.4051910736	-1.7851605032	-1.465796365	-0.408453
H	 0.6314590295	 1.9642100894	-0.6464774986	 0.147331
H	-1.0615697315	 1.8103007198	-0.1132907021	 0.120999
H	 0.2577135263	 1.7500513712	 1.0629903688	 0.140109
H	-0.0563321866	-0.1389613195	 1.9578075994	 0.088417
H	-1.6737494898	-1.9601760785	 1.9569640526	 0.09045
H	-1.1798715551	-2.4582679389	 0.3023002241	 0.126483
H	 1.791732539	-2.128083591	 0.5359339212	 0.130849
H	 1.9051150055	-1.5688358929	 2.2416155711	 0.09007
H	-0.5042153995	 1.0684492109	-2.3521057203	 0.251097
H	 0.0243281213	-0.2492036683	-3.2722897822	 0.261612
75.8079	85.9879	98.0014	146.441	175.5508	255.7137	362.9506	379.034	392.7049	436.9446	500.9734	571.0617	618.9116	668.0408	781.7155	847.595	890.0333	909.1912	1008.2125	1020.7589	1034.3077	1102.2726	1108.0709	1117.911	1147.1661	1160.8446	1172.4965	1241.8045	1260.0923	1281.0453	1310.1608	1361.5978	1408.4109	1432.7964	1490.2149	1495.4668	1500.9281	1525.012	1527.3121	1624.6259	1773.5451	2986.5638	3023.1508	3030.6999	3080.4079	3087.8061	3097.1393	3109.3172	3129.4586	3578.9024	3691.1122
CN(C1COC1)C(N)=O	CN(C1COC1)C(=O)N	
InChI=1S/C5H10N2O2/c1-7(5(6)8)4-2-9-3-4/h4H,2-3H2,1H3,(H2,6,8)	InChI=1S/C5H10N2O2/c1-7(5(6)8)4-2-9-3-4/h4H,2-3H2,1H3,(H2,6,8)
