16
gdb 17048	5.21325	1.39506	1.32119	2.9317	65.65	-0.2405	0.0041	0.2446	956.6637	0.130171	-383.689415	-383.682154	-383.681209	-383.721108	26.992	
C	 0.1753197224	 1.2851511031	 0.1582453159	-0.247114
O	-0.3099528553	 0.0214924001	-0.2509648313	-0.251533
C	 0.4514896967	-0.5581007127	-1.2640938125	 0.178851
C	 1.7876306666	-1.3151867884	-0.870410322	-0.230933
C	 0.845631075	-2.3832905726	-0.2040658792	-0.234516
C	 0.107844943	-2.0494323162	-1.5547055326	-0.224535
C	 1.5222983362	-2.1113827434	-2.1503941241	 0.448659
O	 2.1049826353	-2.5732811357	-3.0821088149	-0.322478
H	 1.1729151992	 1.2117488692	 0.61415651	 0.11382
H	 0.2292126844	 1.9878149041	-0.6866930101	 0.113326
H	-0.5270015496	 1.6740090127	 0.8984812602	 0.134355
H	 0.5227746014	 0.1127406912	-2.130714114	 0.083859
H	 2.7193092912	-0.9038527011	-0.489627091	 0.092629
H	 1.2412545167	-3.3925946681	-0.0875668857	 0.114874
H	 0.3246365551	-2.0299502796	 0.6825170983	 0.132444
H	-0.8301472083	-2.4519729026	-1.9284873172	 0.098291
93.3551	144.0115	180.9057	231.7672	360.3684	405.6699	499.7073	540.3748	698.582	717.4853	770.7949	793.1584	876.8244	929.4895	977.0207	1028.2206	1030.647	1034.3599	1063.4691	1122.3359	1133.873	1151.1016	1181.5142	1188.1352	1197.3396	1220.3581	1245.5151	1253.586	1411.6736	1481.3127	1488.5137	1502.7734	1511.3297	1920.9375	2985.8562	3016.9164	3038.8766	3094.6002	3124.8011	3151.9278	3158.4727	3180.2966
COC1C2CC1C2=O	CO[C@H]1[C@H]2C[C@@H]1C2=O	
InChI=1S/C6H8O2/c1-8-6-3-2-4(6)5(3)7/h3-4,6H,2H2,1H3	InChI=1S/C6H8O2/c1-8-6-3-2-4(6)5(3)7/h3-4,6H,2H2,1H3/t3-,4+,6-
