19
gdb 113255	4.8886	0.77849	0.75064	0.6634	78.25	-0.2498	0.0413	0.2911	1533.3903	0.155855	-422.967245	-422.95707	-422.956126	-423.00267	37.298	
O	-0.1412298436	 1.2671510016	-0.7144526839	-0.422308
C	-0.0318287584	 0.0818840733	 0.0668586929	-0.1032
C	-1.3882244377	-0.5714107437	 0.1037929899	-0.051558
C	-1.8500300746	-1.4238136861	-1.0680227027	-0.331398
C	-1.5222016965	-2.0569532932	 0.2601610502	 0.393327
O	-0.3218484465	-2.7682710293	 0.3798444795	-0.469834
C	-2.6442478302	-2.6201420683	 1.1292479219	-0.40171
C	-2.9269679335	-4.0127992391	 0.7902670303	 0.279153
C	-3.0984397323	-5.1623734586	 0.4810884189	-0.440421
H	 0.7171220084	 1.7011366086	-0.7115834303	 0.284312
H	 0.7005306645	-0.6181641612	-0.3557652329	 0.102692
H	 0.2930597969	 0.3163422657	 1.093232116	 0.086415
H	-2.1526207378	 0.0317251964	 0.5872761459	 0.089153
H	-2.8846794608	-1.3588086046	-1.3869733349	 0.111129
H	-1.1331314782	-1.5763503358	-1.8673133144	 0.118158
H	-0.4980384104	-3.6699910407	 0.0827390125	 0.287463
H	-2.3471848124	-2.5535279502	 2.1836076477	 0.138003
H	-3.5482915173	-2.0120500525	 1.0107047108	 0.130852
H	-3.2816461695	-6.1757128524	 0.2215146725	 0.199774
52.5798	69.0823	113.6649	168.2678	206.6886	261.6618	299.4167	340.6476	363.6811	367.1151	404.7834	431.9005	478.75	621.9202	651.8413	656.2052	728.883	854.8831	881.8706	913.4329	926.7829	957.1587	981.2198	1035.4302	1055.6786	1073.0266	1097.4089	1163.8802	1197.0468	1232.3953	1256.0204	1276.427	1302.2533	1315.9709	1361.2646	1424.2994	1458.9257	1467.2931	1504.1858	1524.3082	2232.4526	2973.544	3026.7206	3035.0026	3068.7238	3133.0254	3140.9259	3223.5332	3504.8384	3769.8807	3825.6229
OCC1CC1(O)CC#C	OC[C@H]1C[C@]1(O)CC#C	
InChI=1S/C7H10O2/c1-2-3-7(9)4-6(7)5-8/h1,6,8-9H,3-5H2	InChI=1S/C7H10O2/c1-2-3-7(9)4-6(7)5-8/h1,6,8-9H,3-5H2/t6-,7-/m1/s1
