14
gdb 62438	4.00032	1.28695	1.25086	2.674	66.68	-0.2594	-0.0072	0.2522	994.8062	0.102579	-432.859081	-432.851727	-432.850783	-432.890809	27.78	
N	-0.1003726679	 1.4581208474	 0.035354355	-0.552286
C	-0.0466203461	 0.0318309924	 0.0094971535	 0.073698
C	 1.0053107809	-0.6107956676	-0.743750351	 0.248024
N	 1.8609482595	-1.0985793553	-1.3529625732	-0.33683
C	-0.4716612827	-0.7351244247	 1.2650440779	 0.03252
O	-1.1811917869	 0.0257387909	 2.2128438342	-0.199652
C	-2.3292282158	 0.3970641467	 1.5828232908	 0.124173
N	-2.546919102	-0.03599062	 0.406472561	-0.256373
C	-1.3707106932	-0.778703906	 0.0516600541	-0.069056
H	 0.7525042298	 1.8530275102	 0.4159487898	 0.250524
H	-0.2515871416	 1.8411573143	-0.8913565684	 0.253087
H	 0.1405953612	-1.5176869553	 1.6917410679	 0.142199
H	-2.9831512777	 1.031003425	 2.1666716523	 0.157169
H	-1.4799462076	-1.6122700378	-0.6292950941	 0.132804
134.6446	151.5787	222.523	242.2707	309.5486	410.2187	475.986	531.4456	584.1021	615.3452	725.945	754.0233	780.8085	872.7987	899.0919	905.72	947.3992	1025.1047	1033.6477	1077.861	1096.4703	1114.1557	1148.1993	1255.1733	1279.9566	1304.5936	1328.3311	1367.3733	1656.3649	1661.6872	2333.1596	3205.6279	3215.6569	3248.7427	3513.8674	3597.6706
NC1(C#N)C2OC=NC12	N[C@@]1(C#N)[C@H]2OC=N[C@@H]12	
InChI=1S/C5H5N3O/c6-1-5(7)3-4(5)9-2-8-3/h2-4H,7H2	InChI=1S/C5H5N3O/c6-1-5(7)3-4(5)9-2-8-3/h2-4H,7H2/t3-,4+,5-/m1/s1
