20
gdb 119829	4.71644	0.77188	0.70505	1.3034	76.66	-0.2402	0.0321	0.2723	1634.0189	0.17039	-440.309514	-440.299768	-440.298823	-440.345557	34.374	
C	-0.4043726547	 1.4549820453	 0.0117819695	-0.39611
C	 0.0518373751	 0.0053646284	 0.0565610908	 0.103892
C	 0.9050793274	-0.4527421362	-1.1592246932	-0.200352
N	 2.2258334777	-0.7736350844	-0.6042633509	-0.32203
C	 2.1422737285	-0.5976014781	 0.6520234452	 0.418277
C	 3.2317345275	-0.8041806511	 1.6518806209	-0.290936
C	 4.5382862587	-1.2738694107	 1.0263721754	-0.072815
O	 5.4691836089	-1.4272361469	 2.0886829431	-0.423586
O	 0.9573496991	-0.1819938671	 1.1778358706	-0.269559
H	 0.4485421434	 2.1210385251	-0.153841423	 0.1269
H	-1.1170251409	 1.5991760216	-0.8070802956	 0.120842
H	-0.8922469504	 1.7420540189	 0.9473089945	 0.129072
H	-0.8034659002	-0.6556247277	 0.2299293396	 0.090381
H	 0.4854038243	-1.3328198748	-1.6585948013	 0.112636
H	 0.9944869572	 0.3360941314	-1.9156827952	 0.109364
H	 3.3961934291	 0.1314269153	 2.1994194924	 0.134479
H	 2.8949324165	-1.5316149588	 2.400038592	 0.135237
H	 4.372348758	-2.2176350987	 0.4886658747	 0.103835
H	 4.8800949092	-0.5367021486	 0.2866507901	 0.103446
H	 6.3021356254	-1.7249516329	 1.7124268605	 0.287027
35.7885	62.8624	87.4128	135.3096	215.0577	240.4795	256.091	318.8644	350.3542	407.7433	458.5507	606.7034	714.0005	749.7825	803.0495	840.1098	913.228	936.1107	966.3686	1027.4507	1036.8998	1072.116	1080.4306	1090.5997	1122.314	1141.6512	1195.2504	1210.6719	1230.2272	1257.8662	1298.5569	1317.3261	1336.1277	1374.1707	1405.4959	1411.2287	1465.5767	1473.5443	1485.2642	1495.0867	1505.0057	1523.4432	1736.4769	3000.8541	3029.6323	3030.5367	3037.4478	3043.9385	3047.0941	3067.3384	3078.7568	3110.0155	3119.7741	3836.4511
CC1CN=C(CCO)O1	C[C@H]1CN=C(CCO)O1	
InChI=1S/C6H11NO2/c1-5-4-7-6(9-5)2-3-8/h5,8H,2-4H2,1H3	InChI=1S/C6H11NO2/c1-5-4-7-6(9-5)2-3-8/h5,8H,2-4H2,1H3/t5-/m0/s1
