20
gdb 39503	2.38888	1.75972	1.20658	1.8108	74.64	-0.2261	0.0809	0.307	1064.0422	0.173522	-440.229791	-440.222026	-440.221082	-440.261887	30.756	
C	 0.0874745567	 1.471081745	 0.0006980883	-0.256251
C	 1.3241812157	 0.6276887806	-0.0125187241	-0.024718
C	 2.2678103371	 0.711573459	 1.1719802969	-0.097636
O	 2.9133176887	-0.5067289241	 1.5093360776	-0.24609
C	 2.0443493581	-1.5789153185	 1.7770471328	 0.023947
O	 1.1210682235	-1.3440823788	 2.8043391182	-0.257562
C	-0.0962454987	-0.6499487579	 2.527494408	-0.0745
C	-0.6299259218	-0.7250659926	 1.0931475086	-0.186648
N	-0.0094911312	 0.0279244414	 0.0037750088	-0.074103
H	-0.1106246077	 2.0181932579	 0.9236406996	 0.106062
H	-0.2618902422	 1.9727149567	-0.8992809869	 0.11601
H	 1.8378376016	 0.4706116009	-0.96072366	 0.098862
H	 3.0765230227	 1.401802982	 0.9100415735	 0.11433
H	 1.762206323	 1.128283561	 2.0509578486	 0.100896
H	 1.5371237142	-1.9001835687	 0.8564791242	 0.096422
H	 2.6901133437	-2.384942732	 2.1337676594	 0.116045
H	-0.8485453959	-1.117144827	 3.1746147572	 0.110094
H	-0.0073720927	 0.3961229211	 2.8516850135	 0.098398
H	-0.6502766988	-1.7792662973	 0.78992336	 0.12268
H	-1.6775179358	-0.4032355187	 1.1316199858	 0.113763
97.3137	218.0458	235.8516	257.468	293.0048	377.0867	400.3895	440.798	528.4769	564.5115	614.9388	696.565	803.6295	827.0495	894.7454	934.1675	965.5096	984.7969	1016.9678	1047.9697	1082.0622	1098.1972	1106.1996	1129.9259	1143.6924	1154.0204	1183.8113	1201.5666	1267.8699	1289.9162	1329.1137	1332.5522	1355.4074	1375.5949	1393.2467	1414.3612	1426.6427	1452.0669	1478.2437	1496.3764	1512.5913	1520.1076	1523.1426	3001.0008	3006.8415	3025.1723	3034.1681	3051.3252	3065.3177	3072.7733	3076.1465	3102.0715	3108.8191	3157.801
C1C2COCOCCN12	C1[C@H]2COCOCCN12	
InChI=1S/C6H11NO2/c1-2-8-5-9-4-6-3-7(1)6/h6H,1-5H2	InChI=1S/C6H11NO2/c1-2-8-5-9-4-6-3-7(1)6/h6H,1-5H2/t6-,7?/m0/s1
