15
gdb 48021	4.58989	0.72955	0.70044	4.4187	79.3	-0.2587	-0.0627	0.1961	1585.7118	0.111218	-420.594294	-420.585725	-420.584781	-420.629459	29.234	
O	-0.1338513302	 0.2560460341	-0.7329125436	-0.227253
C	 0.1335557414	 1.0727002407	 0.1181066083	 0.025741
C	 1.3343492211	 1.8665796789	 0.1428628499	-0.030046
C	 2.3302497935	 2.549068946	 0.1939198498	 0.174198
C	 3.5357709788	 3.3834522359	 0.2588554587	-0.107546
O	 4.4905909263	 3.0237685422	-0.7386325376	-0.253562
C	 4.6528737182	 4.0925582882	-1.6728429466	-0.117012
C	 3.8600066988	 5.2337418229	-1.1040901309	-0.086439
C	 3.2281188939	 4.8456078304	-0.0049387692	-0.084946
H	-0.5536263126	 1.2716455012	 0.9661210024	 0.098928
H	 3.9961400204	 3.2337628606	 1.2482907562	 0.12518
H	 5.7236041266	 4.3213900785	-1.76690841	 0.118772
H	 4.2908960546	 3.791804858	-2.6682776369	 0.120173
H	 3.8255828948	 6.215942683	-1.5575990201	 0.119635
H	 2.5666937143	 5.4228476795	 0.6259611096	 0.124178
38.8302	63.5054	90.4306	136.9988	223.4939	265.923	391.7499	415.8652	531.2113	652.825	711.9584	769.1887	817.6031	855.384	923.3582	933.3838	957.2682	998.0372	1020.6662	1045.3702	1100.3894	1112.3628	1152.2532	1198.5055	1269.5148	1336.5852	1344.1051	1380.979	1422.1022	1516.8739	1691.8731	1768.8763	2318.9628	2914.5426	2978.0187	2986.9922	3021.0467	3217.1958	3245.043
O=CC#CC1OCC=C1	O=CC#C[C@H]1OCC=C1	
InChI=1S/C7H6O2/c8-5-1-3-7-4-2-6-9-7/h2,4-5,7H,6H2	InChI=1S/C7H6O2/c8-5-1-3-7-4-2-6-9-7/h2,4-5,7H,6H2/t7-/m1/s1
