16
gdb 29675	2.38559	1.99321	1.0933	3.2579	76.05	-0.2353	-0.0328	0.2025	1048.024	0.126286	-434.102492	-434.094502	-434.093558	-434.135498	29.705	
C	-0.5743377351	 1.292145563	 0.0143766419	-0.330785
N	-0.0722139546	-0.0843255413	 0.0279363353	-0.182733
C	 0.159978222	-0.6525877056	-1.2091286495	 0.474386
N	-0.0487669811	-0.0223159079	-2.2879078959	-0.569268
O	 0.6353228477	-1.9527115419	-1.2356494402	-0.231874
C	 0.8574090043	-2.6242141058	-0.0811544373	 0.060819
C	 0.6417801038	-2.1000215567	 1.1238966627	-0.22851
C	 0.1410475395	-0.7356732382	 1.2527322685	 0.379381
N	-0.1061566938	-0.1185919595	 2.3468376489	-0.546501
H	 0.1404161867	 1.9404173128	-0.497425	 0.143952
H	-1.519451243	 1.3346251439	-0.5315509601	 0.143997
H	-0.7081548712	 1.6006129801	 1.0476458788	 0.172557
H	 0.1813300551	-0.6087305531	-3.0863903255	 0.22994
H	 1.2264721864	-3.6241530489	-0.2731263981	 0.14528
H	 0.8339848546	-2.675486291	 2.0188033438	 0.119871
H	 0.0980009988	-0.72142625	 3.1406198965	 0.219489
61.7796	125.9957	131.8396	219.836	366.2833	401.1872	407.1552	513.0213	539.3196	553.1215	697.5665	702.4916	718.2524	776.0622	808.1507	840.3936	858.0058	949.3514	951.4595	1039.422	1073.0087	1131.4755	1162.2699	1174.0206	1261.4386	1283.5606	1348.1713	1408.8482	1433.4952	1475.0918	1491.2058	1508.822	1657.0713	1727.7273	1751.5797	3064.5059	3126.1502	3195.4305	3214.1038	3236.3999	3512.863	3535.3883
CN1C(=N)OC=CC1=N	CN1[C@H]([NH])OCC=C1[NH]	
InChI=1S/C5H7N3O/c1-8-4(6)2-3-9-5(8)7/h2-3,6-7H,1H3	InChI=1S/C5H9N3O/c1-8-4(6)2-3-9-5(8)7/h2,5-7H,3H2,1H3/t5-/m0/s1
