13
gdb 128927	4.31409	1.00216	0.91627	6.3377	66.22	-0.2463	-0.0184	0.228	1221.112	0.089957	-448.916998	-448.909194	-448.90825	-448.950822	27.306	
N	 0.1546759403	-0.9854070223	-0.4485834849	-0.30888
C	 0.1138545913	 0.1205920183	-0.1170403233	 0.270953
C	 0.0735402686	 1.5292874255	 0.3081670173	-0.294851
N	 1.3860035409	 2.1598240219	 0.2462694313	-0.392705
C	 1.7356981107	 2.6621409536	-0.8614549394	 0.573224
N	 2.9337855759	 3.3005025678	-1.1276968003	-0.367332
C	 2.8993063949	 3.7084190041	-2.4283692295	 0.088072
N	 1.803495405	 3.3987830914	-3.0292307717	-0.113286
O	 1.0376806558	 2.7141128393	-2.0353313091	-0.243876
H	-0.6840123891	 2.04332328	-0.2995378255	 0.15754
H	-0.2708430638	 1.5542085919	 1.347018686	 0.155232
H	 3.6738079003	 3.4071519516	-0.4562683663	 0.296843
H	 3.7038709392	 4.2394996568	-2.9139235645	 0.179064
27.4418	94.8664	180.9717	210.1596	307.3674	374.2359	423.5278	461.06	609.413	622.7959	699.558	735.8747	879.5511	891.555	911.433	932.7051	950.6784	1020.9066	1085.0417	1127.6345	1204.8996	1268.6588	1329.3225	1361.9375	1438.8138	1477.2984	1651.1325	1792.1148	2359.8309	3015.7607	3075.1573	3270.4046	3694.3225
N#CCN=C1NC=NO1	N#CCN=c1[nH]cno1	
InChI=1S/C4H4N4O/c5-1-2-6-4-7-3-8-9-4/h3H,2H2,(H,6,7,8)	InChI=1S/C4H4N4O/c5-1-2-6-4-7-3-8-9-4/h3H,2H2,(H,6,7,8)
