18
gdb 89142	2.06366	1.71573	1.14374	1.3006	79.38	-0.2008	0.0428	0.2436	1113.3543	0.145094	-401.855724	-401.846648	-401.845704	-401.88895	34.602	
C	-0.4374357468	 1.3924840373	 0.0436224776	-0.337512
N	 0.0503195504	 0.0242549407	-0.0020685738	-0.068271
C	 1.0725389289	-0.388305557	-1.0029591544	-0.257904
C	 1.8577943201	-1.0709582866	 0.1293773863	 0.342552
O	 2.3696805944	-2.3484747792	 0.0795519693	-0.454997
C	 2.3054050234	-0.043768984	 1.1622746791	-0.315875
C	 2.8087623003	 1.2588979378	 0.8448345449	 0.331249
C	 3.2815246694	 2.3328400594	 0.5720663291	-0.443448
C	 0.8340099777	-0.5256616265	 1.0837414123	-0.085027
H	 0.3518792667	 2.1500220224	 0.1455562245	 0.12251
H	-1.0053700765	 1.5993444648	-0.8696142568	 0.117982
H	-1.1248847704	 1.4937749175	 0.890176265	 0.120215
H	 0.6709924398	-1.0931696559	-1.7380262733	 0.113588
H	 1.5921024668	 0.4321877201	-1.5128582731	 0.107275
H	 3.2679159284	-2.3035836281	-0.2675802188	 0.291628
H	 2.809407707	-0.5365269554	 1.9922816359	 0.115844
H	 3.6772080498	 3.2908403975	 0.342223464	 0.193189
H	 0.3678558505	-0.963685865	 1.9604429224	 0.107003
127.5455	133.6157	176.0201	184.9699	246.4024	272.9924	341.1756	376.4617	394.1222	415.8187	543.9054	564.8044	599.6961	648.114	653.0338	692.3905	816.3594	839.1635	912.114	964.2835	985.6456	1035.6507	1048.1217	1072.1604	1120.7483	1162.6037	1202.8031	1208.6295	1228.4583	1271.6048	1289.1217	1319.0709	1346.4113	1449.5256	1467.5964	1484.3294	1501.9787	1509.9109	2220.8681	3005.7985	3023.3197	3071.5701	3079.7688	3097.0985	3125.9962	3164.7781	3502.1219	3790.4189
CN1CC2(O)C(C#C)C12	CN1C[C@@]2(O)[C@@H](C#C)[C@@H]12	
InChI=1S/C7H9NO/c1-3-5-6-7(5,9)4-8(6)2/h1,5-6,9H,4H2,2H3	InChI=1S/C7H9NO/c1-3-5-6-7(5,9)4-8(6)2/h1,5-6,9H,4H2,2H3/t5-,6+,7+/m0/s1
