18
gdb 70059	3.05195	1.66191	1.30091	2.2795	77.7	-0.2311	-0.0042	0.2269	1009.2763	0.148739	-401.878931	-401.871542	-401.870598	-401.910398	29.546	
C	-0.0378912742	 1.5581867027	 0.1171383503	-0.505243
C	 0.1268676044	 0.0630685897	 0.0109908842	 0.282681
N	-0.775561974	-0.8250360013	 0.7659189284	-0.355479
C	 0.6722552129	-0.7958191074	 1.1265709051	-0.123944
C	 1.3266900777	-2.0007141523	 0.5105141199	-0.172634
C	 1.3418218919	-1.8256726024	-0.8095121491	 0.135465
C	 0.8593882201	-2.4656248601	-2.0891948293	-0.141315
O	-0.0366499375	-1.323528654	-2.2544651434	-0.303735
C	 0.7133891287	-0.5430697724	-1.25955527	 0.086443
H	 0.8490393155	 2.0810605759	-0.2564814205	 0.126063
H	-0.896303165	 1.8975264549	-0.4739519073	 0.134714
H	-0.1990294263	 1.8714000386	 1.1539104298	 0.113732
H	-1.2916118343	-0.246885554	 1.4285461283	 0.226371
H	 0.9640768298	-0.3743248456	 2.0832000792	 0.090566
H	 1.4823119668	-2.9259362055	 1.052347458	 0.106463
H	 1.5833260586	-2.5208889808	-2.9129256281	 0.104216
H	 0.319433845	-3.413443219	-2.0010247917	 0.124135
H	 1.3472185497	 0.1894203329	-1.7793757038	 0.071502
160.4672	195.6672	217.6191	255.9871	322.6224	369.6379	486.6516	520.9543	576.3669	664.6923	755.5772	775.3786	833.0798	836.6326	903.8844	909.856	917.3193	943.1008	983.1036	995.5865	1030.857	1050.3786	1067.3629	1100.99	1112.9357	1138.3816	1155.3971	1233.2164	1267.779	1289.6505	1322.9958	1329.9151	1357.1434	1418.1601	1428.9826	1488.027	1499.7981	1510.0557	1719.8621	2998.1232	3012.6009	3026.6326	3081.7413	3090.5194	3098.5805	3162.3357	3203.6989	3468.7798
CC12NC1C=C1COC21	C[C@]12N[C@H]1[CH][C]1CO[C@@H]21	
InChI=1S/C7H9NO/c1-7-5(8-7)2-4-3-9-6(4)7/h2,5-6,8H,3H2,1H3	InChI=1S/C7H9NO/c1-7-5(8-7)2-4-3-9-6(4)7/h2,5-6,8H,3H2,1H3/t5-,6+,7-/m0/s1
