23
gdb 61585	4.27984	0.81178	0.76103	1.4026	87.	-0.2232	0.0862	0.3095	1591.2911	0.205293	-384.399398	-384.389752	-384.388807	-384.434518	36.199	
C	 0.2054193535	 0.3532989166	 0.8099101785	-0.416593
C	 0.3803178653	-0.6723366356	-0.3185888877	 0.052129
C	-0.9364494445	-1.3839175413	-0.6671403222	-0.136265
N	-1.4919355038	-2.0999999841	 0.4767338221	-0.06746
C	-2.5969568703	-1.4679482718	 1.1924956207	-0.219504
C	-2.8366449889	-2.6355775843	 0.3029206686	-0.219237
N	 0.9389455242	-0.1892547232	-1.591518942	-0.072204
C	 0.7802043538	 1.1953316975	-2.0163974694	-0.22355
C	 2.1130826997	 0.664717921	-1.6105504018	-0.227313
H	 1.1337463558	 0.8918486953	 1.0238941238	 0.11343
H	-0.572027909	 1.0894990178	 0.5785832112	 0.111739
H	-0.0897082656	-0.1649075931	 1.7253456046	 0.13603
H	 1.076379533	-1.4439791347	 0.0326469249	 0.09238
H	-1.6505053253	-0.6504784406	-1.0872538176	 0.075938
H	-0.7217464317	-2.1111522929	-1.4562691802	 0.112519
H	-2.5945169155	-1.5855731543	 2.2726166361	 0.114665
H	-2.9436312099	-0.4971572796	 0.8410500183	 0.108441
H	-3.3437410002	-2.4434285353	-0.6416702725	 0.108235
H	-3.0108889463	-3.6240175935	 0.718978363	 0.114902
H	 0.5357964936	 1.3390520637	-3.0657160009	 0.112219
H	 0.3131493384	 1.9106779492	-1.343391377	 0.108355
H	 2.5207923438	 1.0283695334	-0.6690630756	 0.107906
H	 2.8632432698	 0.4128574299	-2.3560970448	 0.113236
53.1294	75.0371	101.917	150.0725	265.6991	285.1969	311.2134	325.5326	327.2194	422.2896	493.6003	517.3725	730.0486	778.2297	823.6542	838.6774	871.7281	893.2745	911.3909	926.6176	978.247	1025.8528	1031.3802	1038.6438	1092.3205	1111.5311	1118.443	1120.2926	1122.4974	1128.1799	1151.269	1167.6896	1175.7745	1189.2491	1201.1178	1276.5492	1321.6642	1322.5484	1337.2759	1374.4567	1388.9434	1407.1582	1484.1472	1487.6598	1491.928	1499.092	1514.5504	1522.0471	1527.5267	2926.4887	3033.631	3039.2872	3076.8963	3090.3838	3093.6024	3095.0431	3102.3277	3105.3969	3123.8841	3170.2593	3172.3623	3186.8837	3187.0273
CC(CN1CC1)N1CC1	C[C@@H](CN1CC1)N1CC1	
InChI=1S/C7H14N2/c1-7(9-4-5-9)6-8-2-3-8/h7H,2-6H2,1H3	InChI=1S/C7H14N2/c1-7(9-4-5-9)6-8-2-3-8/h7H,2-6H2,1H3/t7-/m0/s1
