23
gdb 82887	2.37718	1.89091	1.4152	0.2145	88.74	-0.2585	0.0875	0.346	1053.3388	0.207718	-351.136008	-351.127967	-351.127023	-351.167862	33.37	
C	-0.2198162873	 1.6049375442	-0.0313961029	-0.438539
C	 0.0427077513	 0.103904336	-0.0049519966	-0.003749
C	 1.1165366707	-0.5870116579	-0.8988445308	-0.067072
C	 2.4127101305	 0.1438631026	-0.4987625008	-0.213562
C	 2.3764970044	-0.3288669654	 0.9702699808	-0.07859
C	 2.5538381693	-1.8603529964	 0.7820576234	-0.248173
C	 1.1514059799	-1.769465758	 0.1676808458	-0.063743
C	 0.8015220644	-0.5903592734	 1.1427250236	 0.36155
C	 0.2427861596	-0.7450338536	 2.5352097572	-0.513947
H	 0.6688267893	 2.1942201338	 0.2114925614	 0.115569
H	-0.5754193606	 1.9270043421	-1.0170857884	 0.112928
H	-0.9932914838	 1.8715807715	 0.6975408945	 0.113211
H	-0.9094156139	-0.4288408764	-0.1331459973	 0.061072
H	 0.9342080878	-0.7737106011	-1.957510391	 0.052143
H	 3.3014529037	-0.2187141345	-1.0241654489	 0.088139
H	 2.3565716742	 1.2253288597	-0.6381343233	 0.089863
H	 2.9476812738	 0.2275875844	 1.713975912	 0.053698
H	 3.397547479	-2.2041630654	 0.1744762076	 0.084098
H	 2.5355256765	-2.4143273238	 1.724612382	 0.09391
H	 0.4918198546	-2.6217455962	 0.0027325538	 0.057915
H	 0.8574402569	-1.4098680186	 3.1522823009	 0.115566
H	 0.1952997368	 0.222434585	 3.0499285718	 0.115735
H	-0.772688807	-1.1568576786	 2.5119795754	 0.111977
159.1875	191.9412	213.6573	216.0851	290.6414	303.9187	466.4643	485.007	523.5799	593.1286	650.9945	695.1226	760.5151	818.7049	846.5453	848.6512	875.7191	924.9439	932.815	948.2141	980.2265	990.5434	1009.2922	1031.0223	1067.9865	1081.0382	1087.8185	1111.6746	1126.6396	1157.1611	1172.6766	1201.6607	1210.5532	1223.9005	1244.1489	1249.5435	1263.1942	1303.8345	1316.6384	1339.53	1400.4456	1407.2755	1415.6131	1487.1376	1490.5594	1491.53	1496.2971	1502.4788	1525.8333	3012.3321	3018.5375	3029.5829	3040.4559	3056.0401	3077.7797	3086.3914	3087.105	3097.3585	3099.2356	3104.2565	3107.2361	3113.6246	3115.6413
CC1C2CC3CC2C13C	C[C@H]1[C@H]2C[C@@H]3C[C@H]2[C@]13C	
InChI=1S/C9H14/c1-5-7-3-6-4-8(7)9(5,6)2/h5-8H,3-4H2,1-2H3	InChI=1S/C9H14/c1-5-7-3-6-4-8(7)9(5,6)2/h5-8H,3-4H2,1-2H3/t5-,6+,7+,8+,9+/m0/s1
