17
gdb 55314	2.48628	1.53629	1.12581	3.8269	68.36	-0.249	0.0107	0.2597	1085.4413	0.137432	-455.127624	-455.119649	-455.118705	-455.160706	29.87	
O	-0.2512524562	-0.0617076031	 0.0911579304	-0.367154
C	-0.0590369689	 1.2542743524	-0.0476250619	 0.437812
O	 1.0236312602	 1.764821548	-0.177389201	-0.355581
C	-1.344373748	 2.0680772719	 0.0377445766	-0.215397
N	-2.5681076352	 1.2373439816	 0.1962834838	-0.350244
H	-3.2056000743	 1.265095867	-0.5913697337	 0.237971
H	-1.2217000576	-0.1647637926	 0.2131585914	 0.304691
C	-3.0123583205	 2.0263781699	 1.3886486672	-0.233902
C	-1.6365489584	 2.6960750323	 1.4167190112	 0.33894
C	-0.6863115923	 2.9130061653	 2.525613419	-0.300622
N	-1.3643179405	 4.0467338932	 1.856597474	-0.363098
H	-1.3660058661	 2.7976764481	-0.7794855307	 0.106938
H	-3.8183147911	 2.7379137642	 1.1779445082	 0.120284
H	-3.2904955394	 1.406040562	 2.2454502716	 0.122502
H	-1.0007571025	 2.7360040889	 3.5504264096	 0.124048
H	 0.3675622109	 2.7447955296	 2.3231963222	 0.148628
H	-0.7222711502	 4.5058804513	 1.2138386721	 0.244183
66.843	114.5013	143.2539	255.9455	306.527	341.0773	408.6753	461.9803	568.9161	631.858	716.3443	765.9105	830.6593	853.7679	899.2581	916.2004	934.717	957.6258	975.3877	1000.3189	1030.5887	1051.7741	1095.1444	1133.1258	1138.7356	1217.069	1238.8949	1263.0047	1274.6271	1285.8885	1333.888	1368.2905	1426.1123	1432.8345	1510.9599	1513.2111	1859.3587	3038.7029	3049.7835	3092.6834	3112.8009	3205.2479	3468.1988	3492.7002	3542.0979
[O-]C(=O)C1[NH2+]CC11CN1	OC(=O)[C@H]1NC[C@]21CN2	
InChI=1S/C5H8N2O2/c8-4(9)3-5(1-6-3)2-7-5/h3,6-7H,1-2H2,(H,8,9)	InChI=1S/C5H8N2O2/c8-4(9)3-5(1-6-3)2-7-5/h3,6-7H,1-2H2,(H,8,9)/t3-,5-/m1/s1
