16
gdb 50254	2.39472	1.67202	1.25901	2.5866	68.98	-0.2435	-0.0435	0.2	1012.3471	0.123089	-437.855763	-437.847844	-437.8469	-437.889403	28.68	
O	-0.6637593731	 0.7184958847	-0.6306803472	-0.239924
C	 0.3441984701	 0.7952169786	 0.0251831571	 0.142027
C	 1.3149887846	 1.9480101974	-0.0473455909	-0.107446
C	 0.9420389626	 3.1612242755	-0.9298092874	-0.198233
N	 1.0485317364	 4.1085666521	 0.2309946484	-0.123325
C	-0.270243102	 4.3900476801	 0.8804835453	-0.30689
C	-0.0476763678	 3.2090984268	 1.8451940768	 0.404346
O	-0.6432703508	 2.7192798884	 2.7553624285	-0.278428
C	 1.3099517169	 2.9427208062	 1.1625567888	-0.141698
H	 0.6185161129	 0.001194431	 0.7540527902	 0.092351
H	 2.319522996	 1.548527658	-0.2181754293	 0.110835
H	 1.6560752468	 3.3989431479	-1.7210846751	 0.118641
H	-0.0606099048	 3.0879547261	-1.3617699091	 0.13145
H	-0.293106612	 5.3649462175	 1.3799424993	 0.143105
H	-1.1465227675	 4.3087550988	 0.2278319926	 0.142983
H	 2.1936317616	 2.961052641	 1.805535202	 0.110207
54.6956	58.6154	124.1813	238.9729	323.4801	394.9337	411.2076	530.159	620.395	624.8457	725.9369	743.3955	850.972	883.1613	918.4332	936.6358	958.469	993.1243	1045.1232	1067.5403	1089.4431	1099.0706	1162.787	1171.9085	1188.3276	1196.4959	1254.7357	1279.7706	1304.7715	1337.8746	1423.2128	1449.5358	1506.2844	1820.0516	1903.3032	2893.9863	3038.8841	3057.2556	3063.4486	3082.7652	3089.8924	3111.9591
O=CC1CN2CC(=O)C12	O=C[C@H]1CN2CC(=O)[C@@H]12	
InChI=1S/C6H7NO2/c8-3-4-1-7-2-5(9)6(4)7/h3-4,6H,1-2H2	InChI=1S/C6H7NO2/c8-3-4-1-7-2-5(9)6(4)7/h3-4,6H,1-2H2/t4-,6-/m1/s1
