23
gdb 80856	1.80479	1.73741	1.59259	1.6521	84.38	-0.2367	0.0794	0.3161	1097.634	0.205746	-388.286739	-388.277632	-388.276688	-388.31964	36.178	
C	-0.1422692822	 1.62659853	-0.0684943877	-0.445484
C	 0.0038065637	 0.1133393387	 0.0005674213	 0.009751
C	 1.0738214776	-0.6846762223	-0.7785397027	 0.054524
C	 2.4249046176	-0.1097787694	-0.3047798244	-0.255108
C	 2.1569359398	-0.1944376896	 1.2340172403	 0.028312
C	 2.4475672816	 1.0503452537	 2.0713828446	-0.433668
C	 0.6870172017	-0.6998211552	 1.147754213	 0.370958
C	-0.0219053192	-1.1099217231	 2.408854671	-0.504038
O	 0.8638084016	-1.7815444574	 0.1626448347	-0.333721
H	 0.8132345091	 2.1544333104	-0.0827605661	 0.122578
H	-0.6830975213	 1.907725703	-0.97902421	 0.117194
H	-0.7211188537	 2.0061794787	 0.7808519974	 0.11878
H	-0.9635420194	-0.3642434299	-0.1808939678	 0.08142
H	 0.9602833472	-0.9681674274	-1.8256357304	 0.070457
H	 3.2610694903	-0.7357642941	-0.6239358902	 0.102458
H	 2.6071373059	 0.9096422333	-0.6592001498	 0.093737
H	 2.7364443588	-1.0251914977	 1.6504909364	 0.07911
H	 1.8819671942	 1.9267110587	 1.7465251733	 0.117992
H	 2.2092056617	 0.8759448162	 3.1264638573	 0.114342
H	 3.5109789407	 1.3071764362	 2.0187183579	 0.116958
H	-0.1730684084	-0.2456093492	 3.0639792971	 0.121906
H	-0.9981768225	-1.5473876005	 2.1826355564	 0.125227
H	 0.5679918052	-1.8516113731	 2.9583681485	 0.126314
152.138	178.1273	196.3377	206.0645	234.5185	257.1806	270.8894	342.7867	382.1669	444.8566	530.5289	599.0584	605.0889	691.6165	731.2638	803.8781	823.524	856.9664	892.8222	912.6569	927.4047	966.1428	1017.2261	1041.3807	1075.9197	1093.7321	1102.086	1127.5329	1148.1868	1178.7318	1199.5519	1210.1921	1262.7201	1282.2905	1284.5333	1312.0292	1342.7337	1365.0892	1400.5773	1407.8443	1412.1199	1421.2241	1480.8905	1487.1223	1492.5282	1496.3458	1498.325	1505.5386	1513.6795	3034.4984	3035.0179	3036.6752	3044.5599	3055.2792	3066.3716	3089.0933	3091.6504	3102.9306	3106.1175	3113.8968	3115.2644	3120.6738	3133.8562
CC1C2CC(C)C1(C)O2	C[C@H]1[C@H]2C[C@@H](C)[C@]1(C)O2	
InChI=1S/C8H14O/c1-5-4-7-6(2)8(5,3)9-7/h5-7H,4H2,1-3H3	InChI=1S/C8H14O/c1-5-4-7-6(2)8(5,3)9-7/h5-7H,4H2,1-3H3/t5-,6+,7-,8+/m1/s1
