21
gdb 57500	4.06662	0.63226	0.62485	4.0169	90.92	-0.2629	-0.0574	0.2055	1870.7738	0.178253	-387.085132	-387.074072	-387.073128	-387.122409	39.099	
C	-0.0995306099	 1.55249119	 0.0829737577	-0.401549
C	-0.0232686713	 0.0171018864	 0.0523697824	 0.2575
C	 0.6681100572	-0.5018523211	 1.3239241447	-0.401549
C	-1.4410971921	-0.5711447295	-0.0443912422	-0.406501
C	 0.7674212706	-0.4477926243	-1.2063617549	-0.373977
C	 2.1430206444	 0.0190378583	-1.2844108999	 0.07376
C	 3.28789409	 0.4004826009	-1.3611327045	 0.06128
C	 4.6464699612	 0.8698887629	-1.4243360634	 0.014115
O	 5.4211789557	 0.6188171503	-2.3196023942	-0.23054
H	 0.898514219	 1.9984942724	 0.1283867872	 0.12321
H	-0.6026112215	 1.9424053347	-0.8089539874	 0.110953
H	-0.6619576147	 1.892457029	 0.9585593675	 0.114186
H	 0.1162116684	-0.1901061442	 2.2165456288	 0.114186
H	 0.7197293791	-1.5963709936	 1.3286793427	 0.110952
H	 1.6888169969	-0.1164998146	 1.4059903116	 0.12321
H	-1.9577182183	-0.2217360397	-0.945254047	 0.112152
H	-1.4179585904	-1.6662254921	-0.0726816962	 0.112152
H	-2.0421546221	-0.2731880502	 0.8206629729	 0.115162
H	 0.7716814294	-1.5455649415	-1.2466265672	 0.137957
H	 0.2376976142	-0.1164547889	-2.1098833227	 0.137957
H	 4.9475257743	 1.502031875	-0.5635732259	 0.095386
27.4547	64.8246	73.996	171.2021	184.6914	220.6812	266.8219	268.408	288.2208	320.1546	378.5454	391.9215	398.8202	412.8343	510.0874	619.0003	745.2827	833.933	879.0539	911.2772	940.9892	941.0381	963.0555	1022.2399	1048.3664	1058.7589	1158.1018	1179.4645	1226.7877	1262.0851	1303.9065	1334.4326	1400.4863	1400.5645	1423.2838	1431.5171	1449.6941	1480.4193	1485.0197	1486.9948	1505.9515	1507.246	1516.7863	1766.2672	2322.3391	2911.9074	3011.179	3024.0771	3028.2994	3035.0484	3044.5182	3091.1825	3096.1956	3096.8888	3102.478	3107.4355	3111.8866
CC(C)(C)CC#CC=O	CC(C)(C)CC#CC=O	
InChI=1S/C8H12O/c1-8(2,3)6-4-5-7-9/h7H,6H2,1-3H3	InChI=1S/C8H12O/c1-8(2,3)6-4-5-7-9/h7H,6H2,1-3H3
