19
gdb 76925	1.97861	1.53351	1.00121	1.8829	76.65	-0.2495	-0.0328	0.2167	1222.9524	0.156066	-423.048333	-423.03846	-423.037516	-423.083749	34.815	
C	-1.1879081048	 1.023825559	-0.2950963914	-0.419845
C	-0.123505645	-0.0633414534	-0.2298849018	-0.100755
C	 0.7861053494	-0.4434093743	-1.4682277502	-0.162963
C	 0.9476071134	 0.6782381164	-2.4563940354	 0.175216
O	 0.7812895753	 0.567684183	-3.6446329925	-0.256078
C	 2.0135449001	-0.5912701381	-0.479862982	-0.100756
C	 3.4155653776	-0.1133934043	-0.8335711307	-0.419844
C	 1.1783991298	 0.1924294339	 0.5426478535	 0.37235
O	 1.4595413011	 0.8888518279	 1.475329177	-0.301105
H	-0.7749765447	 1.9808116132	-0.6251567303	 0.130164
H	-1.9950809515	 0.7459339244	-0.9793951553	 0.131547
H	-1.6206385228	 1.1788267198	 0.6973367456	 0.139898
H	-0.5618342716	-0.9965524992	 0.1454473542	 0.117024
H	 0.4999200143	-1.3463523311	-2.0078827891	 0.09415
H	 1.2414782441	 1.6586730216	-2.0147059801	 0.082365
H	 2.0436158796	-1.6401934966	-0.1593251408	 0.117024
H	 3.42813932	 0.9424802688	-1.1168503828	 0.130164
H	 4.0754042704	-0.2282508493	 0.0310820132	 0.139899
H	 3.8338307753	-0.6940371717	-1.661171861	 0.131546
55.8234	65.9147	156.1146	164.5253	174.2003	188.2029	215.9463	274.3236	380.1267	441.12	446.6034	531.8166	546.6835	725.6363	761.9424	765.8476	925.8945	942.9538	962.8161	963.6153	1018.5583	1057.2504	1096.2166	1129.5547	1154.8173	1156.0779	1171.3027	1232.8828	1256.0782	1309.5012	1315.2505	1364.5004	1409.0015	1409.474	1437.8669	1492.9701	1493.8949	1494.375	1495.7611	1826.5188	1884.3123	2857.5707	3033.8876	3039.5447	3045.1741	3045.7146	3115.0241	3116.2007	3116.4539	3119.194	3120.0405
CC1C(C=O)C(C)C1=O	C[C@H]1[C@@H](C=O)[C@@H](C)C1=O	
InChI=1S/C7H10O2/c1-4-6(3-8)5(2)7(4)9/h3-6H,1-2H3	InChI=1S/C7H10O2/c1-4-6(3-8)5(2)7(4)9/h3-6H,1-2H3/t4-,5+,6+
