14
gdb 31318	2.21164	1.76166	0.98935	1.6909	74.04	-0.2351	-0.0342	0.2009	1108.0297	0.100259	-436.676931	-436.668686	-436.667742	-436.710513	29.667	
O	 0.6626110526	 0.4368229351	 0.7860478731	-0.406481
C	-0.0523496198	 0.118636647	-0.3867648674	-0.182366
C	-1.3847889131	-0.5219752353	-0.1385230054	 0.125994
C	-2.0878617687	-0.6650630097	 1.0263361094	 0.145806
O	-3.2715358495	-1.3091073275	 0.7113650284	-0.176088
C	-3.1999204125	-1.5062425123	-0.6157776031	 0.063673
N	-2.1210682323	-1.0660193531	-1.1788027731	-0.298267
C	-1.867771584	-0.2932308814	 2.3615650225	 0.242051
C	-1.6991015337	 0.0403548658	 3.5071750429	-0.422358
H	 0.1234052142	 1.0227753265	 1.327540212	 0.290673
H	-0.1993494866	 0.9973486495	-1.0369569154	 0.115714
H	 0.5721595301	-0.5801356734	-0.9541237314	 0.141284
H	-4.0359498878	-2.0084225871	-1.0777752738	 0.157397
H	-1.5364506389	 0.3180786958	 4.5194489613	 0.202967
40.9235	131.888	165.9994	218.51	243.1574	327.1145	417.8747	458.9959	517.579	545.7356	628.2588	654.3577	699.1319	707.9929	727.3039	855.9526	959.4196	998.2072	1068.7979	1100.1022	1167.2758	1193.9215	1223.5042	1293.6503	1340.5774	1383.0072	1427.3205	1491.0232	1541.8766	1626.5489	2229.3429	2967.5884	3068.3599	3273.2304	3499.0077	3814.8717
OCC1=C(OC=N1)C#C	OCc1c(ocn1)C#C	
InChI=1S/C6H5NO2/c1-2-6-5(3-8)7-4-9-6/h1,4,8H,3H2	InChI=1S/C6H5NO2/c1-2-6-5(3-8)7-4-9-6/h1,4,8H,3H2
