23
gdb 92472	2.42657	1.56467	1.54528	1.472	83.29	-0.2323	0.0707	0.303	1060.4136	0.209739	-388.317567	-388.309594	-388.30865	-388.350024	32.412	
C	-0.2595233757	 1.5407721139	 0.008826953	-0.42151
C	 0.0277326336	 0.0370551837	 0.0010579307	 0.063807
C	 0.8173612642	-0.42315882	-1.2612804149	-0.23154
C	 1.9657777113	-1.3438172591	-0.8220666334	 0.113744
C	 2.9894556142	-0.5606481972	 0.0126108993	-0.211564
C	 2.2564264463	 0.0484532918	 1.241457859	-0.217423
C	 0.8025909977	-0.463536277	 1.2430267724	-0.030683
C	 0.8461752123	-1.9947672627	 1.1746761583	-0.068627
O	 1.4427480628	-2.4298411231	-0.0522936597	-0.282062
H	 0.6622768224	 2.1321736168	-0.0110153682	 0.115013
H	-0.8463802705	 1.8253003941	-0.871225885	 0.113763
H	-0.8276944457	 1.8350178395	 0.8983464912	 0.108765
H	-0.9405446473	-0.4792394807	 0.0083794708	 0.070024
H	 0.1636143453	-0.9552683777	-1.9583119556	 0.099903
H	 1.2294800126	 0.4384629063	-1.8012835448	 0.088781
H	 2.4452282	-1.8115981976	-1.6862698078	 0.068455
H	 3.7840702524	-1.244021288	 0.3261282133	 0.102001
H	 3.4558984283	 0.2153142342	-0.6035879447	 0.093614
H	 2.7488011704	-0.249896643	 2.1727448823	 0.096747
H	 2.279551661	 1.1417416132	 1.2173910506	 0.096685
H	 0.2864682084	-0.1581309827	 2.1600295075	 0.057145
H	 1.4225712351	-2.4028439967	 2.0188526269	 0.084563
H	-0.1669416792	-2.4172652181	 1.2295008689	 0.090399
52.6999	215.8312	249.081	276.0749	303.2317	368.0322	386.1848	433.1378	528.5512	565.964	655.6558	765.4704	813.251	815.4651	841.9445	868.7247	904.1619	939.2999	952.652	989.191	997.2557	1008.2598	1056.5521	1071.0569	1081.9826	1100.3455	1133.3077	1161.1133	1177.8661	1219.835	1243.1423	1262.2637	1271.1293	1309.7074	1324.2152	1340.8472	1347.1959	1354.005	1374.8278	1382.0841	1384.5369	1410.8309	1416.6423	1479.8635	1488.1398	1495.1597	1497.6552	1510.685	1527.6115	2980.1437	3010.9013	3017.0143	3024.879	3029.7276	3037.3143	3043.1898	3053.9383	3071.9397	3073.7165	3084.0433	3092.9171	3093.6338	3098.8888
CC1CC2CCC1CO2	C[C@H]1C[C@H]2CC[C@@H]1CO2	
InChI=1S/C8H14O/c1-6-4-8-3-2-7(6)5-9-8/h6-8H,2-5H2,1H3	InChI=1S/C8H14O/c1-6-4-8-3-2-7(6)5-9-8/h6-8H,2-5H2,1H3/t6-,7+,8+/m0/s1
