21
gdb 95339	3.12723	1.33823	1.08059	2.4924	78.42	-0.2387	0.0804	0.3191	1183.1947	0.184162	-424.217154	-424.20899	-424.208046	-424.24991	31.742	
C	-0.0676746108	 1.537078154	 0.090391339	-0.40168
C	 0.0081862091	 0.0194025371	 0.0179995459	 0.137484
C	 0.6209442748	-0.4849437192	-1.2939749956	-0.209604
C	 0.7798437183	-2.0173827297	-1.3129907555	-0.091983
C	 2.2067458511	-2.5101505982	-1.6340527606	-0.080874
O	 2.4920179599	-2.6992270969	-0.2323763303	-0.290827
C	 1.0824799159	-2.6285768057	 0.0806554512	 0.143675
C	 0.7399902808	-1.8100830998	 1.3113180447	-0.11426
O	 0.8128007802	-0.4148541224	 1.1100954495	-0.251537
H	 0.9328469611	 1.9714003075	-0.0000455198	 0.126189
H	-0.6925219769	 1.932051176	-0.7163787695	 0.112018
H	-0.4912053289	 1.8525206024	 1.0474798866	 0.122843
H	-1.0075815741	-0.4020944206	 0.1337486896	 0.05717
H	 0.0163795068	-0.1541624326	-2.1453884257	 0.094843
H	 1.602823744	-0.0075311874	-1.3910221957	 0.108243
H	-0.0309568303	-2.4973202866	-1.8648680962	 0.073571
H	 2.2418701316	-3.4602247409	-2.1861495718	 0.092673
H	 2.8912091396	-1.7940148216	-2.1025105176	 0.104322
H	 0.6690943997	-3.6424130613	 0.1994802646	 0.065674
H	-0.2758212169	-2.0930511082	 1.6411132879	 0.081912
H	 1.4394431451	-2.0526107761	 2.1180150694	 0.120149
99.9321	108.6911	210.234	232.1609	298.7065	331.8482	382.5913	458.5347	472.1032	490.0288	704.069	765.1418	815.2491	848.6848	855.7636	884.5443	917.8263	946.6309	1001.0935	1010.2887	1033.1978	1079.8439	1098.0295	1110.8747	1153.3573	1155.2448	1168.0778	1178.7411	1232.8112	1252.7917	1279.826	1306.7718	1312.751	1362.6082	1366.7224	1376.2802	1380.9633	1396.2174	1410.7854	1418.0009	1472.5128	1475.5694	1485.1103	1501.2449	1524.6979	2929.5081	2945.6369	2979.328	2998.554	3033.4902	3042.8315	3060.5752	3071.4371	3079.8581	3091.6951	3115.4869	3122.2076
CC1CC2COC2CO1	C[C@H]1C[C@H]2CO[C@H]2CO1	
InChI=1S/C7H12O2/c1-5-2-6-3-9-7(6)4-8-5/h5-7H,2-4H2,1H3	InChI=1S/C7H12O2/c1-5-2-6-3-9-7(6)4-8-5/h5-7H,2-4H2,1H3/t5-,6-,7-/m0/s1
