19
gdb 34969	4.0708	1.33859	1.28134	0.6835	84.91	-0.2529	0.0479	0.3008	1047.2059	0.161554	-348.6897	-348.682759	-348.681814	-348.720784	29.301	
C	-0.1787684821	-1.3017648419	-0.1462853718	-0.444257
C	-0.0909436462	-0.1046535499	-0.0591958362	 0.300385
C	 0.018365451	 1.3375733186	 0.0399207663	-0.169543
C	-0.0992914814	 2.0672291294	 1.4231271221	-0.059323
C	 0.9925401414	 1.3604230458	 2.2486374001	-0.213712
C	 2.1616522853	 1.8474503626	 1.3649237147	-0.038888
C	 2.0809068447	 3.3833113097	 1.5834947282	-0.239606
C	 0.7670150031	 3.2486955765	 0.8012419831	-0.038961
C	 1.3818236763	 2.0628396653	-0.0063511254	-0.03944
H	-0.2571667842	-2.3576986364	-0.2249824248	 0.190239
H	-0.6502984309	 1.8138576267	-0.6864232046	 0.097379
H	-1.0749594541	 2.2358156458	 1.8768531544	 0.06665
H	 1.0718036589	 1.7259865999	 3.2763098995	 0.090377
H	 0.8612035007	 0.2765653429	 2.2675764013	 0.111242
H	 3.1063113845	 1.3077257832	 1.4094890997	 0.064572
H	 2.0721382181	 3.7552194756	 2.6132935963	 0.089191
H	 2.8232673031	 3.9342443798	 0.9981339781	 0.096616
H	 0.2348366295	 4.0784864132	 0.337368857	 0.065986
H	 1.9643419624	 2.1841561031	-0.9184203779	 0.071091
124.9677	151.7242	350.875	378.613	470.8902	499.056	537.1624	616.9635	628.1598	690.8287	714.5138	772.5005	824.8357	829.7112	840.9938	899.895	921.1833	949.6148	965.4823	974.7443	982.7114	1012.7087	1031.8152	1070.3232	1077.0413	1090.5416	1122.6997	1162.3129	1183.1861	1187.5623	1215.2051	1228.5704	1259.2473	1263.4105	1284.8552	1318.1918	1321.3989	1365.5515	1493.0548	1516.0722	2226.8796	3041.278	3042.2612	3061.8768	3096.7831	3113.3752	3116.3092	3122.7249	3125.9373	3134.1686	3503.2097
C#CC1C2CC3CC2C13	C#C[C@H]1[C@H]2C[C@@H]3C[C@H]2[C@H]13	
InChI=1S/C9H10/c1-2-6-7-3-5-4-8(7)9(5)6/h1,5-9H,3-4H2	InChI=1S/C9H10/c1-2-6-7-3-5-4-8(7)9(5)6/h1,5-9H,3-4H2/t5-,6+,7-,8-,9+/m1/s1
