14
gdb 46311	3.3384	1.3783	1.26245	4.0608	61.97	-0.2622	-0.0125	0.2497	991.5456	0.102387	-473.851967	-473.844868	-473.843924	-473.884156	25.7	
O	 0.0466879209	 0.0987569762	 0.32919669	-0.319932
C	 0.021885266	 1.2438147434	 0.0194812485	 0.434687
O	-1.0251310887	 1.9746005867	-0.4708922714	-0.240304
C	-0.2295209634	 3.2041414145	-0.511096475	-0.117095
C	 0.9999436535	 2.4438719328	 0.0308048031	 0.094453
C	 1.6392771884	 2.8104800428	 1.389851258	-0.180309
O	 3.0502304027	 2.9240064182	 1.0887557209	-0.211098
C	 3.1619094755	 2.6089722919	-0.2165533735	 0.1241
N	 2.1250993831	 2.3307098905	-0.8962764473	-0.293575
H	-0.123446287	 3.5700519958	-1.5326511774	 0.14259
H	-0.6599252852	 3.9636452567	 0.1458046847	 0.124026
H	 1.2940180018	 3.763931551	 1.7970233624	 0.13358
H	 1.5125781829	 2.0223889501	 2.1363746549	 0.151551
H	 4.1747558595	 2.6280173993	-0.602061128	 0.157326
81.5883	129.835	174.171	257.087	342.336	425.8577	518.1051	635.4769	725.45	769.6757	818.0539	866.4545	887.7703	940.3681	964.6643	968.0037	976.5347	1097.7724	1121.7745	1139.4002	1150.5256	1172.0957	1218.93	1243.8867	1317.6682	1351.6045	1377.5959	1503.6276	1506.4759	1687.7564	1944.4455	3063.7038	3072.7032	3117.0754	3147.9576	3226.4499
O=C1OCC11COC=N1	O=C1OC[C@]21COC=N2	
InChI=1S/C5H5NO3/c7-4-5(2-9-4)1-8-3-6-5/h3H,1-2H2	InChI=1S/C5H5NO3/c7-4-5(2-9-4)1-8-3-6-5/h3H,1-2H2/t5-/m0/s1
