23
gdb 87964	3.51434	0.98189	0.89483	1.3467	85.88	-0.2552	0.0747	0.3299	1413.2953	0.20605	-388.295161	-388.285748	-388.284803	-388.329736	36.388	
C	 0.0463199166	 1.5091711296	-0.2543696575	-0.410485
C	 0.0674256583	 0.012028407	-0.0407166221	-0.041185
C	 1.3687425941	-0.7533110022	-0.0479730843	-0.346512
C	 0.5784133242	-0.6182670168	 1.2345146634	 0.370751
C	 1.1357832704	 0.2067226214	 2.4149715033	-0.298956
C	 0.6306095059	-0.5197207009	 3.6782353756	-0.241608
C	 0.4586461462	-1.9802011044	 3.2273517284	 0.132882
O	-0.4017573232	-2.7586052471	 4.0409776554	-0.438126
C	-0.1394610244	-1.8337386481	 1.8257318479	-0.286447
H	 0.9371273945	 1.9892291115	 0.1624824031	 0.115048
H	 0.0154303838	 1.7496543618	-1.3228902822	 0.115507
H	-0.8299730305	 1.9719489557	 0.2146633487	 0.113958
H	-0.7781107311	-0.5060299934	-0.4898799396	 0.078124
H	 1.4053388866	-1.7231481648	-0.5349779913	 0.10397
H	 2.2862756314	-0.1769995671	-0.1359336257	 0.100947
H	 2.2312103882	 0.2166842444	 2.3902392629	 0.098716
H	 0.8119959343	 1.2513755948	 2.3944598778	 0.101308
H	 1.3016278665	-0.4057107275	 4.5358968756	 0.08383
H	-0.356201432	-0.145915678	 3.9760901987	 0.104644
H	 1.4508409139	-2.4562397056	 3.1516197202	 0.063157
H	 0.0041730756	-2.842364487	 4.9092699397	 0.279555
H	-1.2141622139	-1.6424334259	 1.9428561897	 0.104547
H	-0.0306309154	-2.7370555176	 1.2192406322	 0.096377
30.1363	129.6285	185.2439	206.447	227.9476	271.2842	295.5053	394.1144	413.252	426.8889	474.2124	509.7758	558.9194	735.2625	767.1289	834.4163	870.643	888.1474	908.5315	939.1491	954.5783	983.468	1011.0171	1042.1514	1055.0503	1061.8768	1095.9015	1112.0102	1132.6249	1171.8963	1188.7553	1210.0777	1213.4747	1250.6126	1260.2132	1296.2112	1301.6764	1315.2824	1351.4854	1375.8442	1405.5031	1425.5254	1434.0249	1484.6483	1488.8716	1492.6669	1494.7048	1503.8525	1509.9765	2956.7045	3024.6135	3025.6883	3034.9379	3037.681	3074.4952	3083.5189	3086.7152	3090.0506	3095.7748	3108.9885	3121.1738	3194.1196	3820.4941
CC1CC11CCC(O)C1	C[C@H]1C[C@]21CC[C@@H](O)C2	
InChI=1S/C8H14O/c1-6-4-8(6)3-2-7(9)5-8/h6-7,9H,2-5H2,1H3	InChI=1S/C8H14O/c1-6-4-8(6)3-2-7(9)5-8/h6-7,9H,2-5H2,1H3/t6-,7+,8+/m0/s1
