17
gdb 12476	3.52814	1.91616	1.36222	2.9076	65.68	-0.2562	0.0208	0.277	903.1182	0.144593	-401.006614	-400.99941	-400.998465	-401.038268	27.063	
N	-0.067063317	 1.3117013723	 0.3151798564	-0.489902
C	-0.0098599283	 0.0870576155	-0.0063507956	 0.371874
C	-1.2767474847	-0.7372306046	-0.0816850587	-0.250864
C	-1.4568671406	-1.5200958827	-1.3940147901	-0.249782
C	-0.6714684258	-2.8356381149	-1.3972321636	-0.07263
O	 0.5842148147	-2.7451881962	-0.7231002482	-0.225113
C	 1.3633220982	-1.6491650918	-1.0600679863	 0.013666
O	 1.2022143031	-0.5238199033	-0.1974138189	-0.251496
H	 0.8761751842	 1.7062348412	 0.3384878314	 0.217003
H	-1.2868528046	-1.4359740326	 0.7638375998	 0.128812
H	-2.095520923	-0.0313560274	 0.0608668931	 0.13317
H	-2.5166346224	-1.7545247497	-1.5402815867	 0.113544
H	-1.1690902772	-0.888966342	-2.242282714	 0.115447
H	-1.2195360955	-3.6072573497	-0.8486696118	 0.120655
H	-0.5213596898	-3.1981072925	-2.4246893703	 0.101679
H	 2.4095925832	-1.9299686849	-0.9231438998	 0.127085
H	 1.1955311856	-1.3379844566	-2.1019871868	 0.096853
87.0208	132.2173	237.3922	291.862	360.7652	381.9218	467.3313	530.7556	628.7086	700.9833	742.9088	851.0115	900.6463	931.4688	937.4624	947.965	1016.6981	1067.4486	1102.3579	1105.966	1138.8519	1194.9748	1222.4696	1247.4309	1286.6322	1330.8504	1333.9978	1369.6962	1377.9879	1412.8021	1460.5969	1472.3457	1492.3855	1506.2452	1521.5904	1737.4053	2990.4255	3001.2836	3039.7443	3046.3595	3072.2609	3093.5515	3110.0989	3129.8895	3456.4293
N=C1CCCOCO1	[NH][C]1CCCOCO1	
InChI=1S/C5H9NO2/c6-5-2-1-3-7-4-8-5/h6H,1-4H2	InChI=1S/C5H9NO2/c6-5-2-1-3-7-4-8-5/h6H,1-4H2
