15
gdb 124156	6.77584	0.76697	0.69501	2.4269	82.45	-0.2459	-0.0278	0.218	1599.2969	0.112362	-412.957999	-412.949044	-412.9481	-412.994605	29.768	
C	-0.0472077689	 1.4380324228	 0.0310743458	-0.509273
C	 0.0090312197	-0.0135960999	 0.0186723261	 0.208714
C	 0.0579164586	-1.2170403133	 0.0083595754	-0.005511
C	 0.0861698047	-2.6292993783	-0.0030315929	 0.216823
N	 1.2079803142	-3.3580949704	-0.0344840827	-0.291293
N	 0.7240006366	-4.5895374093	-0.0325450001	 0.117758
C	 1.5600144582	-5.7730581312	-0.0608617917	-0.320999
N	-0.6042833331	-4.6505458271	-0.0022795555	-0.129578
N	-1.0288622816	-3.4174449969	 0.0168309565	-0.263955
H	 0.8101768044	 1.8606478019	 0.5656810723	 0.157981
H	-0.0393722925	 1.8422360051	-0.9872091951	 0.158083
H	-0.959224875	 1.7907768503	 0.5241768591	 0.160071
H	 2.2113884176	-5.7859278652	 0.8153954974	 0.16386
H	 0.8973638387	-6.6373551398	-0.051950862	 0.173455
H	 2.1699826484	-5.7725511087	-0.9665224727	 0.163863
7.8212	86.5577	92.8543	96.3994	207.4087	289.2518	321.0353	377.5637	468.9096	500.3595	553.9412	696.2005	736.4974	787.9915	996.0122	1032.0802	1049.5954	1052.281	1054.782	1130.8027	1151.8764	1245.3758	1283.0605	1392.7549	1411.6815	1417.1809	1451.104	1472.7284	1473.7294	1476.357	1504.7126	1522.3866	2376.2358	3030.1905	3066.227	3092.2027	3097.0882	3139.7979	3178.2333
CC#CC1=NN(C)N=N1	CC#Cc1nn(C)nn1	
InChI=1S/C5H6N4/c1-3-4-5-6-8-9(2)7-5/h1-2H3	InChI=1S/C5H6N4/c1-3-4-5-6-8-9(2)7-5/h1-2H3
