16
gdb 24632	4.37854	1.32648	1.10105	2.2179	78.05	-0.2067	0.0337	0.2404	1074.8701	0.125935	-400.72098	-400.71398	-400.713035	-400.752644	27.237	
C	 0.1549929989	 1.5327135612	-0.0298806876	-0.257451
O	 1.2782315357	 0.6343715481	-0.0575580005	-0.258628
C	-0.0187213426	 0.0807061986	-0.0005580609	 0.251184
C	-0.5142603837	-0.8476957926	 1.1572357137	-0.25279
N	-1.046682229	-1.6994467595	 0.0787775474	 0.001484
C	-1.8109651302	-2.7293378704	-0.3766652205	-0.155297
C	-1.8399605887	-2.5861608774	-1.7596380495	-0.121507
C	-1.0992874942	-1.4243365903	-2.1370344954	-0.35245
C	-0.6248999517	-0.9056742984	-0.951341974	 0.310301
H	 0.0440468774	 2.1135799587	 0.885021901	 0.119026
H	-0.0302009504	 2.0765022598	-0.9546687901	 0.125981
H	 0.2826625295	-1.3123880971	 1.7442085859	 0.137998
H	-1.2792688489	-0.4268326553	 1.8163010978	 0.130543
H	-2.2451294454	-3.475485379	 0.2682460323	 0.122422
H	-2.3394189845	-3.2618611354	-2.438465684	 0.096878
H	-0.9474567221	-1.0536633211	-3.1379385757	 0.102305
85.2543	141.9389	245.6551	302.774	445.6355	515.3653	529.2417	602.4749	688.8563	710.8879	744.8677	770.4848	829.8769	835.7318	848.4444	900.9985	958.0234	1003.6706	1051.6232	1062.7285	1082.9894	1121.0418	1138.728	1143.2347	1164.595	1237.7555	1251.2946	1291.4531	1391.6548	1413.1466	1462.4688	1476.6988	1512.7531	1531.8804	1593.5519	3051.9235	3082.8421	3109.4634	3172.431	3238.4602	3263.3182	3273.0684
C1OC11CN2C=CC=C12	C1O[C@]21Cn1cccc21	
InChI=1S/C7H7NO/c1-2-6-7(5-9-7)4-8(6)3-1/h1-3H,4-5H2	InChI=1S/C7H7NO/c1-2-6-7(5-9-7)4-8(6)3-1/h1-3H,4-5H2/t7-/m0/s1
