21
gdb 101567	3.78623	0.71927	0.66744	3.6451	76.07	-0.2456	-0.015	0.2305	1741.9246	0.179411	-461.379827	-461.368938	-461.367994	-461.417192	38.441	
C	-0.3214917872	 1.4824345195	 0.5312128795	-0.377152
C	-0.2090451226	-0.0175842508	 0.7852923386	-0.287271
C	 1.2196446293	-0.5092745548	 0.9327570248	 0.395408
O	 2.1746715977	 0.2302347985	 0.8684015166	-0.307915
C	 1.4154574435	-1.9994091878	 1.2190183738	-0.321241
C	 1.6355071848	-2.2431502096	 2.719951371	 0.104037
O	 0.4763189197	-1.9102816643	 3.4955739017	-0.440227
C	 2.053052457	-3.680039677	 3.0383556097	-0.066566
O	 2.2102640083	-3.8638470592	 4.4265859701	-0.420886
H	 0.1990979649	 1.7623074031	-0.3883055044	 0.130551
H	-1.3688430165	 1.7838665929	 0.4419470977	 0.109362
H	 0.1344559749	 2.0491577455	 1.346786233	 0.135306
H	-0.7327972284	-0.3122144496	 1.7056057922	 0.127956
H	-0.6855246278	-0.598761988	-0.0172043385	 0.116571
H	 0.5602379965	-2.5926188001	 0.8714053029	 0.092584
H	 2.3065679443	-2.3276793115	 0.6746140584	 0.130923
H	 2.4128803431	-1.5625107294	 3.0824023843	 0.124662
H	-0.2495542706	-2.4695149158	 3.1909931243	 0.28255
H	 1.2995432202	-4.374212711	 2.6186035145	 0.070785
H	 3.0112083303	-3.912882834	 2.5615547112	 0.114591
H	 1.4879226586	-3.3722378666	 4.8386636787	 0.285972
29.9717	66.7043	72.7041	128.8529	152.0965	198.8946	239.9977	249.3048	318.9792	373.6227	413.8319	442.4685	474.5019	512.4868	587.7372	637.5838	762.0584	814.3037	861.7294	903.3567	988.0376	1001.5023	1041.0656	1072.9837	1076.3755	1098.0779	1113.7235	1136.9899	1198.5672	1222.6209	1261.09	1286.4504	1315.2426	1350.2706	1370.9304	1381.0201	1414.1736	1419.9675	1443.4718	1451.4659	1467.2903	1493.1432	1497.7399	1508.2411	1808.5983	2920.5735	3012.9258	3029.1668	3044.3466	3051.8591	3067.7467	3075.9685	3096.4576	3122.4987	3128.2256	3767.706	3774.8133
CCC(=O)CC(O)CO	CCC(=O)C[C@@H](O)CO	
InChI=1S/C6H12O3/c1-2-5(8)3-6(9)4-7/h6-7,9H,2-4H2,1H3	InChI=1S/C6H12O3/c1-2-5(8)3-6(9)4-7/h6-7,9H,2-4H2,1H3/t6-/m1/s1
