14
gdb 25277	3.36535	1.77487	1.17057	2.2409	68.19	-0.2378	-0.0151	0.2227	958.1325	0.104891	-432.949158	-432.942397	-432.941452	-432.98076	25.268	
O	-0.0352125441	-0.0911695638	 0.0259232389	-0.383749
C	-0.0257856606	 1.1111403857	 0.0290350163	 0.496527
N	-1.0815803698	 1.9892765119	 0.0560822933	-0.376051
C	-0.7153462089	 3.4039423183	 0.0510693481	-0.292739
C	 0.7804634164	 3.2850342744	 0.0160260338	 0.388335
N	 1.8192388462	 4.0711767753	-0.0064626027	-0.359551
C	 2.898311492	 3.1933977944	-0.0339930853	-0.093033
C	 2.4900853318	 1.8840912953	-0.0276964045	-0.13961
N	 1.1140913695	 1.9603308788	 0.0049362873	-0.086354
H	-2.02555182	 1.6458447639	 0.0765947732	 0.272456
H	-1.1123052749	 3.9284311729	-0.8264016566	 0.150013
H	-1.0712816733	 3.9240109439	 0.9485260147	 0.150011
H	 3.9112976555	 3.5652313331	-0.0568850548	 0.119025
H	 3.0155455402	 0.9453762759	-0.0422457416	 0.154719
79.3733	148.7191	246.8923	314.913	386.9957	568.9607	625.9278	650.0868	680.3168	687.8201	750.0124	761.9626	790.785	867.485	949.4816	1020.9906	1046.7703	1066.4437	1125.4292	1150.6824	1180.9751	1215.3645	1275.8206	1323.3353	1411.204	1430.612	1450.8287	1502.7676	1510.4655	1607.9766	1878.9691	3028.4997	3059.6658	3254.7533	3299.6797	3690.7978
O=C1NCC2=NC=CN12	O=C1NCc2nccn12	
InChI=1S/C5H5N3O/c9-5-7-3-4-6-1-2-8(4)5/h1-2H,3H2,(H,7,9)	InChI=1S/C5H5N3O/c9-5-7-3-4-6-1-2-8(4)5/h1-2H,3H2,(H,7,9)
