13
gdb 131917	4.06204	1.30659	0.9886	3.6918	70.1	-0.2801	-0.0977	0.1824	1084.6194	0.091363	-452.722219	-452.715543	-452.714598	-452.754042	24.628	
O	-0.057630175	-0.0073220744	 0.0035099776	-0.356798
N	-0.0233583599	 1.2162658179	 0.0067417267	 0.384244
O	 0.9958652834	 1.8929560219	 0.0017371871	-0.35247
C	-1.3097844176	 1.9286988408	 0.0175089548	 0.269915
C	-1.3272400853	 3.320907729	 0.021355535	-0.015516
N	-2.4653410644	 4.0142372402	 0.0310394976	-0.26277
C	-3.609397256	 3.3224872832	 0.0370717659	 0.022169
C	-3.6791051969	 1.9296609249	 0.0338293406	-0.117519
C	-2.4948296015	 1.2057572303	 0.0237297678	-0.13634
H	-0.394349677	 3.8729021891	 0.016409274	 0.157747
H	-4.5214241623	 3.9140705264	 0.0449376932	 0.128952
H	-4.6394891083	 1.4277066929	 0.0391075908	 0.123114
H	-2.4661289492	 0.1241165077	 0.0206284089	 0.155273
59.9609	172.1855	252.4697	399.8493	403.824	444.2171	524.6497	621.7062	721.3669	721.4367	752.7033	859.4509	868.6687	973.2812	1013.8508	1016.9538	1034.6813	1060.0461	1120.272	1156.5521	1223.5414	1308.3675	1342.5187	1397.3947	1457.0201	1499.4528	1607.0496	1616.2473	1659.8723	3165.7387	3204.6458	3209.4988	3234.431
O=N(=O)C1=CN=CC=C1	O=N(=O)c1cnccc1	
InChI=1S/C5H4N2O2/c8-7(9)5-2-1-3-6-4-5/h1-4H	InChI=1S/C5H4N2O2/c8-7(9)5-2-1-3-6-4-5/h1-4H
