15
gdb 13036	4.78153	1.23104	1.02175	2.2958	68.03	-0.2457	-0.0321	0.2136	1097.1897	0.117158	-362.617398	-362.609413	-362.608469	-362.650352	28.813	
O	 0.0079048767	-0.0174575829	-0.050170989	-0.286181
C	-0.0581631718	 1.1710458418	 0.0328358598	 0.387341
C	-1.1849396953	 2.209450115	 0.1515090297	-0.283591
N	-0.1467602849	 3.2064647551	 0.523343692	-0.318269
C	 0.9741575867	 2.3104794825	 0.1372773729	-0.087719
C	 2.1026302915	 2.1565129691	 1.1648110144	-0.344572
C	 2.9627119677	 3.3308773138	 1.2265192666	 0.292362
C	 3.6538630516	 4.3139691471	 1.2478772991	-0.439536
H	-1.6895030736	 2.3747871445	-0.8112616705	 0.125217
H	-1.9441007816	 2.0251987134	 0.9191178472	 0.136945
H	-0.1871352203	 4.0748392483	 0.0046198927	 0.231704
H	 1.4058307545	 2.5257231555	-0.8518336706	 0.105796
H	 1.6569262286	 1.9652727719	 2.1476356455	 0.138739
H	 2.6899480856	 1.2683849901	 0.8989157846	 0.144765
H	 4.2749973545	 5.1743330649	 1.2836332757	 0.197
60.9012	107.2306	125.8069	205.1567	332.444	366.7888	407.4071	522.0113	554.8999	621.4149	641.8439	649.0317	750.3652	804.4467	890.6372	947.2456	998.7352	1001.1705	1028.2569	1086.0525	1099.2328	1123.208	1206.0647	1229.7708	1267.1139	1330.6569	1363.3744	1370.8019	1457.619	1477.1428	1915.4915	2239.2862	2994.8437	3008.0225	3030.3184	3071.8648	3072.1607	3506.799	3560.9488
O=C1CNC1CC#C	O=C1CN[C@H]1CC#C	
InChI=1S/C6H7NO/c1-2-3-5-6(8)4-7-5/h1,5,7H,3-4H2	InChI=1S/C6H7NO/c1-2-3-5-6(8)4-7-5/h1,5,7H,3-4H2/t5-/m0/s1
