21
gdb 120897	5.62227	0.69899	0.67465	1.792	80.75	-0.2557	0.0776	0.3334	1719.2663	0.180881	-424.181564	-424.172134	-424.17119	-424.216677	34.384	
C	 0.2378732594	 1.3690058033	-0.0117537745	-0.224864
O	 0.1897172072	-0.036953276	-0.0272482352	-0.233216
C	 0.6051263296	-0.6170236019	 1.1901300892	-0.06871
C	 0.5380014722	-2.1227234215	 1.0531971138	 0.015595
C	 1.5572636435	-2.8095102238	 0.0922859531	-0.319134
C	 1.7818941645	-3.8560513096	 1.1844955437	 0.466397
C	 1.7733594203	-5.3153550028	 1.0758749181	-0.265811
O	 2.9732145606	-4.5891361024	 1.3864161847	-0.271296
C	 1.1014728808	-2.9732176547	 2.2337460145	-0.347669
H	 1.2590963847	 1.7421005724	 0.1669908138	 0.103447
H	-0.0992481152	 1.7201007159	-0.9901403422	 0.126953
H	-0.4201546839	 1.7929217813	 0.7638004243	 0.102562
H	 1.6369142773	-0.3047637734	 1.4334622854	 0.080939
H	-0.0386257771	-0.2761911088	 2.0208219915	 0.084607
H	-0.4863181394	-2.4161575953	 0.8076417603	 0.083533
H	 1.1932173375	-3.1513990393	-0.8784215368	 0.109171
H	 2.4494480836	-2.1935264738	-0.0605992548	 0.11233
H	 1.3712592523	-5.9193022777	 1.8889243506	 0.112948
H	 1.7555726523	-5.7868685654	 0.0936943126	 0.114476
H	 1.8406767312	-2.4196010156	 2.8230095554	 0.111635
H	 0.3867094285	-3.4428121709	 2.9133524825	 0.106107
48.0224	80.8983	101.7979	154.29	232.0708	291.6452	306.5268	327.2622	377.6441	428.1358	452.9181	566.9649	751.1697	823.0928	849.4156	881.0608	889.2426	926.8414	963.2195	977.824	1025.6593	1059.8332	1094.4423	1126.4743	1145.0272	1159.3003	1173.3583	1184.7945	1195.6345	1212.2842	1220.587	1228.7808	1256.7247	1262.6099	1289.8529	1358.6373	1420.9915	1438.1133	1466.5595	1481.1535	1485.5041	1491.1902	1503.4496	1525.8304	1538.049	2934.2224	2961.4689	2967.9942	3009.8812	3047.2591	3055.8949	3071.1768	3075.2839	3108.3461	3112.4268	3117.2679	3161.6544
COCC1CC2(CO2)C1	COC[C@H]1C[C@]2(CO2)C1	
InChI=1S/C7H12O2/c1-8-4-6-2-7(3-6)5-9-7/h6H,2-5H2,1H3	InChI=1S/C7H12O2/c1-8-4-6-2-7(3-6)5-9-7/h6H,2-5H2,1H3/t6-,7+
