20
gdb 58792	3.48218	1.11124	0.98984	4.1507	79.41	-0.2447	-0.0072	0.2375	1267.9295	0.169529	-403.141795	-403.132717	-403.131773	-403.175615	34.416	
C	 0.1756168187	 1.5960177535	-0.1393210212	-0.39084
C	 0.0351974833	 0.0725856439	 0.022344437	-0.073399
C	 0.4704136449	-0.6723393426	-1.2454337514	-0.408394
C	 0.7714591039	-0.3843778299	 1.2592688036	 0.356663
C	 2.1329452257	-0.9332002733	 1.3118319301	-0.290905
N	 0.9961727785	-1.8799130834	 1.5773819926	-0.217157
C	 0.5809863487	-1.5921198664	 2.9393849928	 0.414
O	 0.4404056951	-2.3450041404	 3.8505731535	-0.296942
C	 0.280933724	-0.105874951	 2.6864112346	-0.447599
H	 1.2212829914	 1.8758005133	-0.3091117399	 0.118685
H	-0.4086101798	 1.9469664906	-0.9954203455	 0.119419
H	-0.1754699735	 2.1316855251	 0.7485097421	 0.118797
H	-1.0275163297	-0.1515801429	 0.1936272606	 0.083765
H	 1.4872249698	-0.394283684	-1.5440016303	 0.114437
H	 0.4376144581	-1.7548369924	-1.0956207026	 0.143975
H	-0.1932360518	-0.4198012692	-2.0776915506	 0.117055
H	 2.6411210547	-1.1715873774	 0.3845044542	 0.138961
H	 2.7971237437	-0.6821766068	 2.1358377125	 0.127761
H	 0.826090776	 0.6296647981	 3.283206662	 0.131459
H	-0.7914110316	 0.0972180151	 2.757326466	 0.140259
63.3703	100.0657	178.8433	228.5208	254.2789	282.13	301.7753	367.3712	427.322	453.0826	514.1188	568.9092	647.0111	654.7278	760.8329	836.9359	864.3301	929.8138	932.9258	959.2709	970.998	1001.8168	1028.7792	1088.986	1106.9438	1117.2906	1136.7234	1165.4683	1185.7429	1213.6085	1249.8399	1339.5887	1379.7225	1387.8921	1398.2712	1420.5146	1455.6447	1489.9103	1491.473	1503.2201	1510.9966	1516.8969	1917.9664	3000.6229	3030.8487	3036.7687	3064.1916	3098.2665	3102.6657	3107.5194	3115.3732	3118.215	3121.5219	3214.9032
CC(C)C12CN1C(=O)C2	CC(C)[C@]12CN1C(=O)C2	
InChI=1S/C7H11NO/c1-5(2)7-3-6(9)8(7)4-7/h5H,3-4H2,1-2H3	InChI=1S/C7H11NO/c1-5(2)7-3-6(9)8(7)4-7/h5H,3-4H2,1-2H3/t7-,8?/m0/s1
