13
gdb 128971	4.22123	1.65608	1.18944	6.3141	72.34	-0.2306	-0.0613	0.1693	928.6839	0.094294	-411.805425	-411.799658	-411.798714	-411.835532	22.924	
N	 0.0042797321	 1.3354107803	 0.0098700289	-0.158333
C	 1.2350514588	 1.8898911862	 0.0006170167	-0.172639
C	 2.116524517	 0.8109818717	-0.0140885951	 0.191674
C	 3.5119521009	 0.5786466049	-0.0291966647	-0.071671
N	 4.0224239411	-0.6282893416	-0.0410018837	-0.221543
N	 3.2057632908	-1.7323888178	-0.039077041	-0.208591
C	 1.9023260831	-1.6042448062	-0.0254426758	-0.034421
C	 1.273229798	-0.3351831113	-0.0121288229	 0.292273
N	-0.028978288	-0.0075173347	 0.0025922362	-0.320337
H	-0.8744879088	 1.8306919792	 0.0214200007	 0.291298
H	 1.3797517352	 2.9579183053	 0.0051112659	 0.160643
H	 4.2302233669	 1.3951076639	-0.0317839263	 0.120073
H	 1.3228083029	-2.52346676	-0.0248368378	 0.131572
213.0839	227.2766	403.2653	447.0833	575.3304	607.2026	630.7336	639.3781	706.3738	760.2355	809.1608	826.2393	928.3556	932.888	944.2658	978.078	978.4698	1079.8723	1191.6458	1253.5109	1298.0717	1312.9219	1337.1959	1395.2674	1474.9962	1494.9021	1504.5108	1550.7651	1642.6438	3158.0489	3172.244	3272.3143	3643.9702
N1C=C2C=NN=CC2=N1	[nH]1cc2cnncc2n1	
InChI=1S/C5H4N4/c1-4-2-8-9-5(4)3-7-6-1/h1-3H,(H,8,9)	InChI=1S/C5H4N4/c1-4-2-8-9-5(4)3-7-6-1/h1-3H,(H,8,9)
