21
gdb 64203	2.47832	1.39656	1.30516	3.1742	77.74	-0.2374	0.0626	0.3	1117.5867	0.181295	-424.194344	-424.185212	-424.184268	-424.228014	34.989	
C	-0.1248437613	 1.5250136873	 0.0489363177	-0.452522
C	-0.0110095644	 0.0037289456	-0.0045801739	 0.344435
O	-1.2825274104	-0.5921055012	-0.1737313108	-0.473316
C	 1.1311676844	-0.4939308387	-0.9433847557	-0.279384
C	 2.0334736241	-0.6610595733	 0.3079396535	-0.305107
C	 0.7678469408	-0.6116346603	 1.1952324385	 0.272272
C	 0.7446894971	-0.0680427509	 2.6334334625	-0.146917
O	 0.2941687023	-1.3287610971	 3.1622076712	-0.276636
C	 0.2478390085	-1.9139939468	 1.8430559501	-0.129215
H	 0.8436688441	 1.9977943857	 0.2398347873	 0.121432
H	-0.4932718107	 1.91141906	-0.9098041269	 0.107936
H	-0.8222530473	 1.8336988357	 0.8331173056	 0.128843
H	-1.7389884372	-0.1379458249	-0.8898951204	 0.276542
H	 0.8609857565	-1.4564025929	-1.3846671204	 0.108903
H	 1.469166405	 0.1833644608	-1.7323962126	 0.090917
H	 2.6379481645	-1.5688871905	 0.373569896	 0.105188
H	 2.6867340674	 0.2014249672	 0.4726832878	 0.102453
H	 1.7226997943	 0.2260847294	 3.0387543472	 0.094131
H	 0.0248295801	 0.7385674137	 2.8271861302	 0.096431
H	-0.7680762014	-2.2009272892	 1.5556175849	 0.122641
H	 0.9163018238	-2.7809461496	 1.7556394682	 0.090974
73.7952	97.2874	202.8493	237.4138	259.4248	275.2626	295.9044	335.7814	395.4028	427.0395	484.9069	546.4308	645.0427	745.1986	851.3653	870.3815	887.1434	897.8999	937.9866	956.7904	967.7223	992.1044	997.6654	1043.275	1091.4191	1150.9336	1163.8043	1178.6212	1184.6643	1188.6429	1215.4547	1227.8639	1235.4515	1272.828	1287.5507	1310.1582	1371.2691	1383.4527	1406.9745	1477.1555	1491.2404	1493.5953	1496.6789	1506.3996	1531.9693	2993.8607	3011.1179	3023.4188	3035.4772	3051.0362	3058.5707	3083.3899	3089.7883	3100.4567	3114.3855	3120.5992	3807.0948
CC1(O)CCC11COC1	C[C@@]1(O)CCC21COC2	
InChI=1S/C7H12O2/c1-6(8)2-3-7(6)4-9-5-7/h8H,2-5H2,1H3	InChI=1S/C7H12O2/c1-6(8)2-3-7(6)4-9-5-7/h8H,2-5H2,1H3/t6-/m1/s1
