17
gdb 28940	2.90018	1.28605	1.03211	3.4644	79.68	-0.2148	0.0198	0.2347	1179.0104	0.135761	-380.874282	-380.865512	-380.864568	-380.908608	31.925	
C	-0.0597123363	 1.4746035754	 0.0242677674	-0.508829
C	-0.0054446124	-0.015278954	-0.0339758581	 0.341731
N	 0.0011380093	-0.7391531411	-1.1330414859	-0.305221
C	 0.0468519651	-2.0509847937	-0.7193750982	-0.100203
C	 0.0689545394	-2.1232263075	 0.6444222306	-0.133587
N	 0.0438040465	-0.8127116871	 1.0834038994	-0.008964
C	 0.0060726551	-0.3777343821	 2.4720860602	-0.341226
C	-1.3409683725	-0.0797395739	 2.9587604276	 0.328013
C	-2.4453509092	 0.1741630754	 3.3561837788	-0.446714
H	 0.8341620659	 1.9046474047	 0.4931087795	 0.127961
H	-0.1233443043	 1.8529643746	-0.9964723383	 0.156587
H	-0.9304972909	 1.8308387425	 0.5859977869	 0.141374
H	 0.0663456455	-2.8644839135	-1.4285018379	 0.105752
H	 0.1001307968	-2.9482845022	 1.3370398578	 0.12434
H	 0.4604359739	-1.1638679362	 3.0836620519	 0.154066
H	 0.6422412112	 0.507472832	 2.5814789062	 0.154644
H	-3.4241509632	 0.3924842867	 3.7064805423	 0.210276
33.6318	89.1795	138.015	222.7973	256.841	270.0449	321.9798	409.9906	470.4677	631.9876	633.0086	671.1436	679.2509	694.2494	724.5115	768.3203	847.0542	922.9113	949.8474	970.9485	997.6689	1063.5461	1099.367	1157.1709	1186.9588	1252.8142	1303.5033	1372.0954	1398.6019	1408.4601	1449.496	1469.4494	1483.1648	1491.5621	1529.8622	1575.3908	2243.7307	3024.8776	3045.6042	3076.3137	3082.8514	3149.6993	3246.3466	3274.4863	3503.1069
CC1=NC=CN1CC#C	Cc1nccn1CC#C	
InChI=1S/C7H8N2/c1-3-5-9-6-4-8-7(9)2/h1,4,6H,5H2,2H3	InChI=1S/C7H8N2/c1-3-5-9-6-4-8-7(9)2/h1,4,6H,5H2,2H3
