23
gdb 114516	2.64913	1.22824	0.9899	1.699	85.31	-0.2337	0.0745	0.3081	1319.1704	0.20553	-388.263278	-388.253917	-388.252972	-388.297828	35.486	
C	-0.1417793078	 1.9552411217	 0.1803783221	-0.381056
C	 0.1989006074	 0.4881985794	-0.1081093914	-0.205313
C	 0.3564233837	-0.3287101924	 1.1714294214	 0.055876
C	-0.899090433	-0.7092909633	 2.0258937706	-0.267117
C	-0.3372953875	-2.1445454528	 2.1734480699	 0.128518
O	-0.9301546552	-3.0747990689	 1.2486425536	-0.313078
C	 0.1717062906	-2.9151797918	 0.3134564385	 0.159336
C	-0.2916033039	-2.7140895783	-1.1160319582	-0.410274
C	 0.8255273935	-1.8173574716	 1.1945059741	-0.159933
H	 0.6459683068	 2.436056504	 0.7713038825	 0.112653
H	-0.2602999305	 2.5263770958	-0.7455418209	 0.111679
H	-1.0766482359	 2.0405000493	 0.7450820039	 0.120196
H	-0.5832896421	 0.0589776639	-0.7414006315	 0.099918
H	 1.1291953988	 0.4349260465	-0.6891622023	 0.093044
H	 1.0569888192	 0.2114132456	 1.8211552202	 0.073737
H	-1.0241613843	-0.141770324	 2.9515550314	 0.096411
H	-1.8451689559	-0.7102818993	 1.4778469072	 0.106175
H	-0.2174537191	-2.5634528566	 3.1762383472	 0.071271
H	 0.8053110395	-3.8152086534	 0.3499463356	 0.073686
H	 0.5587944081	-2.4997070883	-1.7720448477	 0.115393
H	-0.7734593249	-3.6293548307	-1.4756381347	 0.123357
H	-1.0157449005	-1.9021948093	-1.198537281	 0.127083
H	 1.8806186232	-1.9804886852	 1.4167245694	 0.068439
53.7957	85.2308	130.2771	195.5493	227.1321	254.8698	315.0974	356.1457	395.3728	419.6997	571.1654	620.1861	709.5171	768.7049	776.4351	843.6385	860.8335	897.0917	925.0151	953.0166	965.9453	998.319	1021.1843	1065.4927	1074.8215	1092.5268	1109.2682	1139.0738	1163.6336	1181.0977	1201.8153	1215.9336	1251.8493	1272.507	1291.5572	1301.7523	1334.3824	1338.8885	1352.4532	1393.3494	1397.4673	1410.0025	1413.8951	1471.6089	1475.4963	1487.1655	1497.6258	1501.2404	1505.7107	2969.9353	3013.4862	3022.6507	3029.2515	3040.1057	3055.2829	3068.2507	3075.0901	3098.986	3100.0914	3102.435	3103.1003	3114.4223	3139.4545
CCC1CC2OC(C)C12	CC[C@H]1C[C@H]2O[C@@H](C)[C@@H]12	
InChI=1S/C8H14O/c1-3-6-4-7-8(6)5(2)9-7/h5-8H,3-4H2,1-2H3	InChI=1S/C8H14O/c1-3-6-4-7-8(6)5(2)9-7/h5-8H,3-4H2,1-2H3/t5-,6-,7+,8-/m0/s1
