19
gdb 82142	3.20167	1.10692	0.95959	4.6328	78.65	-0.2353	0.0274	0.2627	1279.4209	0.158974	-419.1536	-419.144728	-419.143784	-419.188211	32.451	
C	-0.0808906085	 1.6216219424	-0.1631304556	-0.401628
C	 0.0094788003	 0.1086157951	-0.0410052005	-0.041527
C	 0.6816227817	-0.6722691364	-1.1833709744	-0.05521
N	 2.0567736393	-0.1440368701	-1.2832562594	-0.316772
C	 1.7515673265	-1.1901417304	-0.2788975662	-0.098101
C	 1.1141654871	-0.5015979218	 0.9170920526	 0.141292
O	 1.9543443796	 0.3923972452	 1.6226487299	-0.180359
C	 1.7373031783	 0.5465765894	 2.9424119775	 0.125991
N	 2.402172984	 1.3918351777	 3.6029982441	-0.443604
H	 0.8862285347	 2.0402161544	-0.4458962829	 0.155953
H	-0.8204393319	 1.9013543042	-0.9211296154	 0.108576
H	-0.3864941417	 2.0741633824	 0.7856850318	 0.11643
H	-0.9637893728	-0.3241380017	 0.2107274157	 0.07298
H	 0.2023261982	-1.1628862474	-2.0209854141	 0.09615
H	 2.5128246857	-0.6146810803	-2.0639300782	 0.233067
H	 2.2801365533	-2.1352700569	-0.2836258857	 0.096709
H	 0.6737347814	-1.2291109968	 1.6087127495	 0.083425
H	 0.9639632611	-0.1274297805	 3.3400368342	 0.079846
H	 2.1237938735	 1.3603274115	 4.5815687174	 0.22678
36.7388	100.7237	111.9821	195.0791	215.3428	235.2007	325.4368	430.0758	457.7873	596.0139	669.5866	692.0243	809.1883	820.0039	822.2804	842.9902	896.4097	915.2649	988.2875	1014.6634	1024.3995	1042.9634	1062.1218	1089.181	1111.5484	1118.9378	1153.5491	1157.0238	1187.8586	1264.8716	1286.5346	1295.7082	1331.8325	1361.8655	1379.8549	1397.2157	1410.4759	1429.9108	1487.8554	1501.574	1744.0713	3002.5497	3034.4954	3039.0874	3061.1034	3099.3256	3144.5478	3187.3676	3201.1708	3480.5326	3516.9273
CC1C2NC2C1OC=N	C[C@H]1[C@H]2N[C@H]2[C@H]1O[CH][NH]	
InChI=1S/C6H10N2O/c1-3-4-5(8-4)6(3)9-2-7/h2-8H,1H3	InChI=1S/C6H10N2O/c1-3-4-5(8-4)6(3)9-2-7/h2-8H,1H3/t3-,4+,5+,6-/m0/s1
