18
gdb 14901	4.43813	1.44615	1.17649	0.9277	79.35	-0.2417	0.02	0.2617	1035.9023	0.154894	-310.654362	-310.646799	-310.645855	-310.68606	29.5	
C	-0.0195222986	-1.231380767	-0.0495745183	-0.458305
C	-0.0088230261	-0.0296021992	-0.01788942	 0.304283
C	 0.006513323	 1.4320862926	 0.0330176066	-0.193829
C	-0.7666285569	 1.9642459807	 1.2627888991	-0.197311
C	-0.5449730118	 3.4706522864	 1.4310169193	-0.216863
C	 0.9393662617	 3.7864325027	 1.6655048012	-0.238143
C	 1.8352048278	 3.0041920107	 0.7409997497	-0.064579
C	 1.4291576317	 1.9690436437	 0.0088708844	-0.043125
H	-0.0303882131	-2.2924640323	-0.0828548112	 0.191553
H	-0.5071112663	 1.7938000682	-0.8726925995	 0.111517
H	-1.8300435108	 1.7305047939	 1.1542300424	 0.102738
H	-0.4117466862	 1.4336132553	 2.1539186431	 0.110533
H	-0.8874835219	 3.9889185737	 0.5259591237	 0.100204
H	-1.1503610095	 3.8528343291	 2.2595279272	 0.093639
H	 1.124432356	 4.8604755847	 1.5381919056	 0.103342
H	 1.2138543154	 3.5658983983	 2.7079954364	 0.110395
H	 2.8745163739	 3.3195294057	 0.6799368486	 0.087603
H	 2.1225206318	 1.4524940328	-0.6484072783	 0.096349
88.1757	149.0351	220.8456	276.5453	381.9842	418.299	448.4207	525.3782	573.1989	618.8111	634.8476	665.738	735.831	805.5254	865.414	906.0205	933.2343	957.5583	1008.0303	1048.6188	1063.4619	1072.0238	1091.8223	1151.1284	1211.6891	1248.4966	1269.7812	1299.6519	1319.8011	1354.7317	1373.3222	1378.6094	1415.8616	1474.8029	1489.7188	1497.166	1723.2062	2234.6698	2966.624	2998.3958	3021.8798	3040.3365	3042.8472	3073.9357	3087.9532	3145.2436	3176.3239	3505.605
C#CC1CCCC=C1	C#C[C@H]1CCCC=C1	
InChI=1S/C8H10/c1-2-8-6-4-3-5-7-8/h1,4,6,8H,3,5,7H2	InChI=1S/C8H10/c1-2-8-6-4-3-5-7-8/h1,4,6,8H,3,5,7H2/t8-/m1/s1
