21
gdb 41821	2.29863	1.94226	1.47321	2.3318	76.88	-0.2296	0.0716	0.3012	993.1492	0.18674	-424.235099	-424.227796	-424.226852	-424.266594	29.821	
C	 0.3724435446	 1.6736823145	 0.2450391689	-0.068833
O	 1.4384473723	 2.0312140728	-0.6366376058	-0.264157
C	 2.0306915234	 0.8470782153	-1.157665123	 0.105431
C	 0.8661618792	-0.15259606	-1.2266157991	-0.251766
C	 0.1059001507	 0.1523657049	 0.0798190101	-0.023314
C	 0.584517744	-0.6914823717	 1.2798691146	-0.22337
C	 2.0960887074	-0.9622639294	 1.3237414571	-0.066496
O	 2.8870861065	 0.1881079509	 1.0774416824	-0.242082
C	 3.2123257169	 0.4086956107	-0.2820830945	-0.093362
H	 0.6423256189	 1.9219832026	 1.2784004587	 0.10158
H	-0.5046716384	 2.270699125	-0.0339239189	 0.09255
H	 2.4268123041	 1.0871660072	-2.1524595029	 0.074644
H	 0.2442305015	 0.0844923058	-2.0947901221	 0.104242
H	 1.1845170156	-1.1943817527	-1.3186191881	 0.098093
H	-0.9670005589	-0.0186912236	-0.043996894	 0.074327
H	 0.2793385792	-0.1889989215	 2.2053890213	 0.104353
H	 0.0759942277	-1.6642632878	 1.2750560723	 0.094186
H	 2.370434836	-1.3224601595	 2.3217215798	 0.103672
H	 2.3652962196	-1.7575582759	 0.6114945272	 0.088148
H	 3.6829522518	-0.4892285793	-0.7204323454	 0.078347
H	 3.9535476177	 1.2138191819	-0.2768218486	 0.113807
122.9847	186.315	288.2277	305.0535	343.1085	373.3551	446.5389	516.3291	605.1463	705.4175	767.8674	796.3893	828.4777	852.8028	886.7409	903.2064	938.0569	971.8786	1004.5363	1015.803	1048.4442	1064.1858	1075.4867	1118.5759	1125.1876	1176.9098	1205.0537	1220.4652	1235.8711	1258.3417	1285.084	1318.4717	1328.5698	1337.4137	1355.9265	1363.8351	1381.2851	1402.485	1408.8598	1424.1926	1477.7651	1482.3444	1488.6196	1511.7031	1524.5274	2952.9185	2986.0114	3014.3963	3021.4579	3030.9383	3049.0886	3053.2818	3056.9293	3067.0938	3072.812	3083.4903	3103.1026
C1OC2CC1CCOC2	C1O[C@@H]2C[C@H]1CCOC2	
InChI=1S/C7H12O2/c1-2-8-5-7-3-6(1)4-9-7/h6-7H,1-5H2	InChI=1S/C7H12O2/c1-2-8-5-7-3-6(1)4-9-7/h6-7H,1-5H2/t6-,7-/m1/s1
