19
gdb 116017	2.595	1.13874	0.8356	2.6069	74.16	-0.2308	0.0178	0.2486	1360.4801	0.15842	-460.151762	-460.142331	-460.141387	-460.186655	33.807	
O	 0.021231236	 1.4095970917	-0.2389330549	-0.423249
C	 0.0796503489	 0.0069809749	-0.0948038042	-0.057518
C	-1.3109196662	-0.5665473512	 0.2067813856	 0.002224
O	-2.2026800156	-0.1166352938	-0.823025998	-0.295744
C	-2.7867997937	-1.2335407508	-1.4979511609	-0.120393
C	-2.2303441761	-2.4416974867	-0.8048094595	-0.198341
C	-1.4042419198	-2.0716099646	 0.168616491	 0.293383
C	-0.6570536598	-2.9465172518	 1.1201173216	-0.184008
O	-0.9938649451	-4.2989325418	 0.8763046054	-0.413464
H	-0.711197092	 1.5737756417	-0.8463009709	 0.291024
H	 0.4748141349	-0.4817058574	-1.0009027382	 0.083603
H	 0.7679867959	-0.2035199924	 0.7319777244	 0.099397
H	-1.6518821076	-0.1488689693	 1.168408155	 0.084866
H	-3.88367352	-1.1720699641	-1.4256063209	 0.10931
H	-2.5314028682	-1.2002354872	-2.5684954289	 0.107487
H	-2.4843149195	-3.4591698271	-1.0671851063	 0.122335
H	 0.4277460909	-2.7764776823	 1.0039241355	 0.104716
H	-0.9041604195	-2.6474855923	 2.1546092443	 0.101931
H	-0.4831978435	-4.8481339157	 1.47770379	 0.292442
69.962	86.2727	122.9759	153.8888	209.7104	231.1742	244.7705	331.3238	377.457	479.4054	523.8918	528.5214	675.09	769.1549	813.6681	834.9544	944.5806	956.1685	1025.2127	1037.3655	1045.5547	1074.6016	1084.2647	1090.7213	1114.1568	1187.5463	1193.7961	1217.3719	1226.6551	1252.4976	1282.1437	1322.181	1352.6634	1382.1828	1389.1491	1437.612	1470.2255	1500.4333	1508.013	1524.2685	1735.0264	2942.1619	2956.2115	2961.4981	2976.0762	2979.3728	2996.166	3061.9648	3239.8647	3779.475	3839.1285
OCC1OCC=C1CO	OC[C@H]1OCC=C1CO	
InChI=1S/C6H10O3/c7-3-5-1-2-9-6(5)4-8/h1,6-8H,2-4H2	InChI=1S/C6H10O3/c7-3-5-1-2-9-6(5)4-8/h1,6-8H,2-4H2/t6-/m1/s1
