16
gdb 33471	2.54019	1.44674	1.15185	3.2265	68.87	-0.269	-0.0034	0.2656	1092.3862	0.123541	-437.845936	-437.837588	-437.836644	-437.879992	29.581	
N	-0.4482910649	-1.1242918777	 0.3726142105	-0.337764
C	-0.2922470967	 0.0165747775	 0.2763469341	 0.267864
C	-0.1257999847	 1.4521096064	 0.1174216564	 0.248769
C	 0.6422372795	 2.1908263304	 1.1394942274	-0.209936
O	 1.2137775851	 1.8882850514	-0.1303872663	-0.254776
C	-1.2055063393	 2.1546746576	-0.6832898933	 0.082015
C	-1.6879651855	 1.5045742793	-1.9992634781	-0.317178
C	-3.0575353392	 1.4377351204	-1.2930517182	-0.062499
O	-2.4975476584	 1.9937427765	-0.0754844998	-0.289582
H	 0.3981784423	 3.2374535911	 1.3117499159	 0.137241
H	 1.0613990266	 1.6486224647	 1.9836756403	 0.145569
H	-0.9113587747	 3.2088848792	-0.7692357181	 0.090472
H	-1.6301186462	 2.1435594105	-2.8801734988	 0.123501
H	-1.2379074851	 0.5361141668	-2.2214885338	 0.138085
H	-3.8359602311	 2.0871539918	-1.7085382225	 0.111282
H	-3.4680039375	 0.4373227842	-1.1256825656	 0.126939
49.7879	70.9431	146.6566	173.9262	250.8679	280.1174	363.3786	449.599	575.0552	607.3494	673.0879	787.3678	827.3841	879.6092	885.4855	945.8462	952.432	985.8734	1029.9055	1044.765	1102.7284	1133.349	1163.9485	1167.2949	1215.7829	1262.3418	1265.0433	1278.9248	1315.0154	1357.0375	1409.8814	1489.3971	1518.9357	1527.4487	2360.2071	3021.1851	3037.3136	3086.7708	3092.1587	3097.5849	3150.0832	3196.1983
N#CC1(CO1)C1CCO1	N#C[C@]1(CO1)[C@H]1CCO1	
InChI=1S/C6H7NO2/c7-3-6(4-9-6)5-1-2-8-5/h5H,1-2,4H2	InChI=1S/C6H7NO2/c7-3-6(4-9-6)5-1-2-8-5/h5H,1-2,4H2/t5-,6+/m1/s1
