17
gdb 67342	2.88541	1.91831	1.33676	3.6269	72.22	-0.2419	0.0079	0.2498	943.5628	0.137674	-417.975959	-417.968776	-417.967832	-418.007206	28.873	
C	-0.0622248047	 1.5310323129	 0.0361365364	-0.505102
C	-0.0270152583	 0.0275023406	 0.0570000568	 0.221583
C	 1.0885929499	-0.8117190339	-0.6870675844	-0.086725
N	 2.0658230238	-0.444463986	 0.3962436064	-0.334291
C	 0.7905728741	-0.7946236819	 1.1210826	-0.072968
C	 0.4925146837	-1.983779558	 0.1674578567	-0.011255
N	-0.9499272323	-2.0622923116	 0.0116587691	-0.352266
C	-1.3302620642	-0.7373797341	-0.1866229032	 0.375729
O	-2.412641933	-0.3135543941	-0.5084829989	-0.3643
H	 0.9416824528	 1.9368057885	 0.1775650282	 0.139709
H	-0.4651475731	 1.8905218248	-0.9153474055	 0.131774
H	-0.7144555427	 1.911607671	 0.8283197507	 0.129058
H	 1.3480838695	-0.7823099428	-1.7478848892	 0.087906
H	 2.7483118089	-1.2010136411	 0.5150413152	 0.208248
H	 0.6936290156	-0.7518197954	 2.2077599684	 0.090591
H	 1.0203088834	-2.9306711269	 0.27485318	 0.09173
H	-1.4093056736	-2.799562302	-0.5019835867	 0.250578
151.3373	187.3971	249.6267	307.5757	382.5032	418.328	425.9575	567.1984	618.4851	679.5899	696.9141	728.9715	802.1292	843.7139	870.9661	892.0113	905.8139	931.0783	1018.2908	1035.1487	1086.4972	1116.7535	1130.9361	1146.5603	1148.6764	1151.8917	1210.5798	1230.3442	1285.5557	1288.7162	1322.444	1346.9049	1398.3736	1411.3388	1488.3381	1492.4177	1855.9337	3045.9704	3090.3892	3099.4792	3108.5534	3134.2761	3135.239	3372.3198	3620.3926
CC12C3NC1C3NC2=O	C[C@@]12[C@H]3N[C@@H]1[C@H]3NC2=O	
InChI=1S/C6H8N2O/c1-6-3-2(4(6)8-3)7-5(6)9/h2-4,8H,1H3,(H,7,9)	InChI=1S/C6H8N2O/c1-6-3-2(4(6)8-3)7-5(6)9/h2-4,8H,1H3,(H,7,9)/t2-,3-,4+,6+
