16
gdb 45206	3.65951	1.56268	1.33804	3.0585	68.22	-0.2445	-0.0056	0.2389	943.3246	0.127073	-437.822146	-437.815808	-437.814864	-437.852774	25.849	
O	-0.2233947459	 0.0471269387	 0.3744904671	-0.318849
C	-0.0750904304	 1.1758082322	 0.0472598904	 0.358463
O	-1.0617587686	 2.0876644224	-0.3487899787	-0.276103
C	-0.0152055853	 2.987832353	-0.8966407808	 0.118927
C	 0.3835357205	 4.4498180019	-0.5662577179	-0.234453
N	 1.6504404667	 4.2194218099	 0.2268418079	-0.127758
C	 1.0867238145	 3.2074572929	 1.1894825107	-0.186241
C	 1.005579677	 2.2673186835	-0.0445809855	 0.072373
C	 2.3125274631	 2.9982905151	-0.4516981041	-0.273155
H	 0.0393060475	 2.7791491699	-1.9677209718	 0.105516
H	 0.5944981521	 5.0107092866	-1.479281661	 0.120311
H	-0.3210925347	 5.0169590553	 0.0438605635	 0.13703
H	 1.840507509	 2.886393027	 1.9108418211	 0.124149
H	 0.1630208093	 3.4974129004	 1.6951224245	 0.124417
H	 2.5246879636	 3.1052058297	-1.5177391164	 0.121156
H	 3.2122909514	 2.7382585916	 0.105028581	 0.134218
153.8744	245.6643	275.4666	423.6694	469.5283	530.3027	624.3194	693.8057	697.2664	715.8279	796.6631	803.5624	838.3732	881.5618	938.392	970.6943	976.3411	986.1978	1030.1478	1056.1422	1075.3247	1113.6046	1158.7957	1198.1207	1214.2167	1221.7361	1233.8528	1270.3012	1272.3169	1322.8235	1394.3167	1486.9242	1497.9671	1533.1875	1940.8501	3069.6427	3073.0822	3078.1294	3086.3655	3134.1331	3140.2031	3154.8733
O=C1OC2CN3CC12C3	O=C1O[C@H]2CN3C[C@@]12C3	
InChI=1S/C6H7NO2/c8-5-6-2-7(3-6)1-4(6)9-5/h4H,1-3H2	InChI=1S/C6H7NO2/c8-5-6-2-7(3-6)1-4(6)9-5/h4H,1-3H2/t4-/m0/s1
