23
gdb 90878	3.05063	1.5253	1.35773	0.1211	88.15	-0.2702	0.0841	0.3542	1077.944	0.209492	-351.133973	-351.126564	-351.12562	-351.165329	31.602	
C	-0.1841912882	 1.5986665389	-0.1606894061	-0.415455
C	 0.0081587268	 0.0933742613	-0.0137248344	 0.033205
C	 0.972668333	-0.6755759009	-0.976367814	-0.282778
C	 1.6242116671	-1.3915507263	 0.2445227498	 0.014702
C	 3.0373437857	-0.983497701	 0.7055865471	-0.030853
C	 2.843743989	-0.9806512021	 2.2559904046	-0.218439
C	 1.9122536923	 0.236669299	 1.932970212	-0.03545
C	 2.9494507398	 0.5636775982	 0.8178006739	-0.232495
C	 0.7656985745	-0.5042808989	 1.215391961	-0.016352
H	 0.7585668066	 2.151148464	-0.1161563777	 0.118055
H	-0.6605832981	 1.8358295978	-1.1189001996	 0.111109
H	-0.8311912189	 1.9885509608	 0.6334234426	 0.111646
H	-0.980955838	-0.375977491	-0.0593970198	 0.069155
H	 0.4712384572	-1.3389924978	-1.6855429033	 0.090445
H	 1.6570708754	-0.0382051457	-1.5438189231	 0.095286
H	 1.4663751563	-2.4715254269	 0.281465382	 0.060068
H	 3.8889331936	-1.4723705535	 0.230169057	 0.054497
H	 2.3916722855	-1.8631902668	 2.7198311313	 0.084976
H	 3.7479825309	-0.6899393673	 2.7960409252	 0.091577
H	 1.6472898798	 0.9714458887	 2.6943155745	 0.055081
H	 3.8637938249	 0.9920640025	 1.2354817177	 0.092611
H	 2.6443843419	 1.1437574535	-0.0527692313	 0.091123
H	 0.121929373	-1.0115875967	 1.9390762206	 0.058285
162.3875	188.7626	203.5298	318.967	362.4204	431.7656	494.5624	562.522	582.08	703.9048	767.7014	798.354	842.5249	848.7168	858.2616	879.1763	887.9727	908.1268	942.2178	969.4386	999.0974	1015.2135	1026.2719	1033.1798	1052.7422	1078.7205	1098.3761	1115.8768	1129.4085	1139.0514	1162.3219	1198.8994	1220.0701	1235.073	1242.6666	1249.4607	1259.5168	1281.481	1295.5748	1319.3762	1329.5127	1345.0998	1375.9593	1409.9873	1481.9699	1493.5209	1497.5464	1499.7632	1529.9828	3026.3278	3030.8204	3045.9115	3052.8207	3062.336	3074.9432	3078.5188	3086.2748	3100.3997	3101.9979	3105.37	3107.2308	3113.7977	3140.2775
CC1CC2C3CC(C3)C12	C[C@H]1C[C@H]2[C@@H]3C[C@@H](C3)[C@@H]12	
InChI=1S/C9H14/c1-5-2-8-6-3-7(4-6)9(5)8/h5-9H,2-4H2,1H3	InChI=1S/C9H14/c1-5-2-8-6-3-7(4-6)9(5)8/h5-9H,2-4H2,1H3/t5-,6-,7+,8-,9+/m0/s1
