18
gdb 93374	3.18943	1.4041	1.08229	3.7622	72.67	-0.2293	-0.0328	0.1965	1119.074	0.147932	-439.080196	-439.07209	-439.071146	-439.112941	30.958	
C	-0.1390312183	 1.5190112484	 0.06130684	-0.409155
C	 0.0032424216	-0.0040625821	 0.022969564	 0.013509
N	 0.6760739372	-0.401127943	-1.2079940246	-0.304996
C	 0.8550479467	-1.8342953382	-1.3739720602	-0.277717
C	 1.5793721777	-2.49603101	-0.2052184005	 0.405681
O	 1.9976234563	-3.6278710741	-0.277812321	-0.308475
C	 1.6239469266	-1.7335650974	 1.0902956308	-0.08011
O	 2.2261410737	-0.4291197326	 1.0748992323	-0.228611
C	 0.8166031926	-0.5024215384	 1.2075960044	 0.067509
H	 0.8475947242	 1.9871092995	 0.0123535319	 0.145258
H	-0.7341680006	 1.8746529032	-0.7863981498	 0.113717
H	-0.6409337904	 1.8414590506	 0.9784000764	 0.118871
H	-1.0042342438	-0.4583610794	 0.1265673089	 0.059455
H	 0.1949247952	-0.0106231731	-2.009015727	 0.225547
H	-0.0962324456	-2.3987739063	-1.4659029327	 0.109982
H	 1.4253705653	-2.0351027039	-2.285397043	 0.13843
H	 1.8609755794	-2.3415206178	 1.9613989209	 0.109628
H	 0.4294920322	-0.2374907355	 2.1920593595	 0.101477
65.838	171.7784	210.6996	237.2856	277.7825	339.0472	401.2007	421.2873	478.2469	597.272	598.9689	647.0429	743.9213	755.8635	876.9144	878.4003	912.8563	960.7844	998.9055	1022.3312	1049.0886	1114.43	1130.8027	1134.9019	1191.7903	1242.4298	1252.0578	1272.4024	1304.6301	1340.5758	1363.735	1397.2489	1406.7747	1437.6809	1462.5505	1481.5784	1501.0723	1512.058	1812.4738	2881.0927	2892.2252	3039.0606	3087.3235	3105.3702	3110.2382	3128.2356	3139.6807	3546.8248
CC1NCC(=O)C2OC12	C[C@H]1NCC(=O)[C@H]2O[C@@H]12	
InChI=1S/C6H9NO2/c1-3-5-6(9-5)4(8)2-7-3/h3,5-7H,2H2,1H3	InChI=1S/C6H9NO2/c1-3-5-6(9-5)4(8)2-7-3/h3,5-7H,2H2,1H3/t3-,5+,6-/m1/s1
