16
gdb 56126	4.87487	0.72243	0.63416	2.6651	68.47	-0.2605	-0.0802	0.1802	1675.6268	0.120233	-475.046271	-475.036317	-475.035373	-475.083813	32.967	
C	 0.0198098604	 1.445402338	 0.0288968502	-0.484512
C	-0.0250153782	-0.0707580678	 0.0671247212	 0.35416
O	-0.090802117	-0.7038325302	 1.089842456	-0.267735
C	 0.0216203822	-0.738423614	-1.3034698208	-0.166819
O	 0.0156657066	-2.1469854211	-1.1378583862	-0.217954
C	 0.0339146797	-2.8751787093	-2.2646990976	 0.316183
N	 0.0572949124	-2.3862025452	-3.4329582224	-0.508187
C	 0.0220948857	-4.3537899482	-1.937097921	 0.105357
O	 0.0351327792	-5.1911317568	-2.8003165613	-0.233768
H	 0.9704570801	 1.786361171	-0.3970776774	 0.147196
H	-0.7770519793	 1.8440337699	-0.6086038193	 0.143729
H	-0.0856077098	 1.8375698038	 1.0406521981	 0.152118
H	-0.8369587641	-0.4211315497	-1.9098221061	 0.146661
H	 0.916256798	-0.4210776436	-1.8550092616	 0.144653
H	 0.0662040815	-3.1584089676	-4.1033256675	 0.249369
H	 0.0007312225	-4.5958182491	-0.8570104643	 0.119549
18.691	44.0495	82.9045	106.0278	136.415	210.0562	255.9876	275.4405	356.2822	472.3904	495.5359	569.9894	590.0419	724.3706	839.0937	851.2696	907.4599	927.4789	974.5799	1042.0194	1060.5773	1092.5275	1142.0807	1191.5705	1255.7217	1340.5841	1378.2138	1386.5553	1436.8503	1461.1226	1475.6178	1482.508	1718.0235	1831.275	1837.5863	2959.9289	3025.0693	3039.3478	3058.2788	3098.9785	3157.2566	3466.4457
CC(=O)COC(=N)C=O	CC(=O)CO[C]([NH])C=O	
InChI=1S/C5H7NO3/c1-4(8)3-9-5(6)2-7/h2,6H,3H2,1H3	InChI=1S/C5H7NO3/c1-4(8)3-9-5(6)2-7/h2,6H,3H2,1H3
