20
gdb 113866	3.26423	1.03738	0.92056	3.4853	75.35	-0.2429	0.065	0.3078	1332.4052	0.17165	-440.226625	-440.21755	-440.216606	-440.261544	32.934	
O	 0.0186957622	 1.2106403959	-0.7764640688	-0.424774
C	 0.088819515	 0.0825139307	 0.0881510254	-0.09041
C	-1.2702718049	-0.5690219601	 0.2028706036	-0.031569
N	-1.6879333717	-1.393677827	-0.954385389	-0.348784
C	-1.5430668246	-2.0236059062	 0.3655037909	-0.052131
C	-0.5330608879	-3.1374436263	 0.5167768056	 0.132691
C	-0.7844386074	-4.385107096	-0.3684384442	-0.287321
C	 0.5561975317	-4.0090651276	-1.0267799949	-0.05624
O	 0.7427349015	-2.9042851719	-0.11580436	-0.276638
H	-0.2280980392	 0.8662180196	-1.6420494958	 0.285356
H	 0.8280069112	-0.6484122681	-0.2497951402	 0.128622
H	 0.4012997415	 0.4677411082	 1.0649368889	 0.101179
H	-2.0291172642	 0.0970241091	 0.6137174708	 0.088429
H	-2.6685415234	-1.2377569682	-1.1694268636	 0.232078
H	-2.4627002208	-2.2602085004	 0.9048880445	 0.082845
H	-0.4017555472	-3.3519831586	 1.5865941347	 0.078886
H	-0.7936941054	-5.33717247	 0.1636036274	 0.1101
H	-1.6588588014	-4.3151443741	-1.0166862752	 0.113397
H	 1.3626403458	-4.7458942594	-0.9369756807	 0.101584
H	 0.4887336794	-3.6678380696	-2.0655719396	 0.112701
64.2129	65.823	87.4812	151.2616	212.322	252.8443	300.6608	403.784	457.7773	542.5	643.7225	719.4314	793.6356	819.9196	847.7603	903.5787	930.2742	952.132	964.026	996.048	1006.8219	1037.4253	1056.7708	1083.164	1105.0545	1138.313	1167.0083	1178.4108	1215.5713	1221.0509	1261.074	1272.3982	1276.3437	1279.1423	1355.878	1363.0844	1388.0085	1405.5474	1435.3234	1480.2964	1485.8161	1507.6555	1524.7688	3004.7577	3027.1338	3050.7591	3071.4424	3081.6752	3085.6623	3099.9323	3118.1609	3142.5221	3506.8491	3802.5404
OCC1NC1C1CCO1	OC[C@H]1N[C@H]1[C@H]1CCO1	
InChI=1S/C6H11NO2/c8-3-4-6(7-4)5-1-2-9-5/h4-8H,1-3H2	InChI=1S/C6H11NO2/c8-3-4-6(7-4)5-1-2-9-5/h4-8H,1-3H2/t4-,5-,6-/m1/s1
