17
gdb 15119	8.70765	0.76361	0.73534	3.7772	70.01	-0.2636	0.0323	0.2959	1494.438	0.141217	-363.852506	-363.843974	-363.84303	-363.88673	29.77	
N	-0.1157409792	-0.9433791126	-0.6065725412	-0.301611
C	-0.0091178332	 0.1211042206	-0.1702980897	 0.247372
C	 0.1471707561	 1.4672652394	 0.3705413854	-0.339454
C	 1.4964546269	 2.0890383875	-0.0098058277	-0.055428
O	 1.5218985961	 3.3758156362	 0.5688270493	-0.250003
C	 2.7100975746	 4.0670404137	 0.3227627004	 0.142302
C	 2.8693392734	 4.8176484252	-0.9748611703	-0.287518
C	 2.6223115117	 5.5565207	 0.3264874176	-0.285805
H	-0.6626164843	 2.1044333356	 0.0000392699	 0.161841
H	 0.0577634563	 1.4345248002	 1.4613061819	 0.16332
H	 2.3198171498	 1.4664104981	 0.3717750853	 0.111852
H	 1.5991218857	 2.142481219	-1.1029953261	 0.115112
H	 3.5939715295	 3.5954510963	 0.7536150939	 0.089927
H	 3.851435012	 4.8686108028	-1.4314458365	 0.118716
H	 2.0425328617	 4.7697798871	-1.6747990632	 0.121593
H	 1.6354341405	 5.9801191794	 0.472719434	 0.128297
H	 3.4322789224	 6.1203450214	 0.774557437	 0.119485
51.9316	69.1142	102.7437	141.3206	219.7198	326.1034	399.4838	417.616	452.3633	560.9693	755.9948	794.9485	820.302	830.849	946.7654	969.0505	988.8547	1050.0117	1064.4447	1075.7178	1093.0709	1109.2097	1130.3341	1193.2933	1201.9907	1227.548	1246.2415	1299.6721	1303.4389	1379.5554	1435.8077	1453.4429	1471.2982	1498.3351	1527.1869	2366.5623	2989.4184	3027.2829	3057.1859	3096.705	3100.2937	3137.3072	3144.7676	3221.9631	3237.0159
N#CCCOC1CC1	N#CCCOC1CC1	
InChI=1S/C6H9NO/c7-4-1-5-8-6-2-3-6/h6H,1-3,5H2	InChI=1S/C6H9NO/c7-4-1-5-8-6-2-3-6/h6H,1-3,5H2
