13
gdb 49747	3.63713	1.31798	0.96742	1.2794	70.3	-0.2632	-0.1026	0.1605	1101.92	0.090313	-452.804882	-452.797547	-452.796602	-452.836988	26.707	
N	-0.0836945353	 1.2917311266	 0.0066666167	-0.497045
C	-0.0049587948	 0.0330207671	-0.0001598738	 0.290034
N	-1.1056259521	-0.8477229123	 0.001737327	-0.130105
C	-2.4530882125	-0.4996264221	 0.0112639302	 0.17055
O	-3.339913322	-1.3156332274	 0.0122258873	-0.301389
C	-0.6293652301	-2.1618006729	-0.0077325733	 0.017666
C	 0.7188429454	-2.2345514912	-0.0159313234	-0.29633
C	 1.2423451118	-0.8683254254	-0.0117331175	 0.336925
O	 2.3706076439	-0.4329741263	-0.0162775973	-0.321536
H	 0.8681698096	 1.6718324662	 0.0031771072	 0.258935
H	-2.5891345335	 0.5913979122	 0.0176216204	 0.143363
H	-1.3684346216	-2.9502061526	-0.0075602409	 0.184374
H	 1.3116241211	-3.1353255519	-0.0240800589	 0.144559
92.568	179.5659	204.0843	266.6616	302.5381	349.1053	419.2898	555.2004	565.6595	684.4435	758.7689	761.0865	835.7615	841.1298	936.8226	945.6682	990.3187	1043.5308	1067.255	1139.9281	1222.3047	1278.8365	1345.5782	1413.8965	1428.4048	1614.6567	1761.6042	1808.3236	1815.9302	3050.1681	3253.1212	3272.6272	3437.8639
N=C1N(C=O)C=CC1=O	[NH][C]1N(C=O)C=CC1=O	
InChI=1S/C5H4N2O2/c6-5-4(9)1-2-7(5)3-8/h1-3,6H	InChI=1S/C5H4N2O2/c6-5-4(9)1-2-7(5)3-8/h1-3,6H
