21
gdb 114077	3.32474	1.1521	1.03595	0.4905	78.24	-0.2408	0.0786	0.3194	1245.0273	0.182751	-424.210426	-424.201727	-424.200783	-424.243535	33.951	
C	-0.0181987461	 1.5033234978	 0.0672259496	-0.495311
C	-0.0062947114	 0.0043854517	-0.0269048489	 0.419532
C	 0.9036895397	-0.8037381395	-0.9886832581	-0.274774
C	 0.7198241404	-1.8073614447	 0.1640610413	 0.052806
O	 0.671375914	-0.67921621	 1.0911006037	-0.332521
C	-0.7694780782	-2.2162865985	 0.0653907576	 0.033502
C	-1.2661189746	-2.9548271409	 1.2966900391	-0.102706
O	-2.6698058171	-3.1417271851	 1.1615691498	-0.425063
C	-1.3441998399	-0.7710830251	-0.0868691525	-0.261345
H	 0.9978995165	 1.8998903523	 0.1448419778	 0.124788
H	-0.4944545512	 1.9356754311	-0.8189707952	 0.121593
H	-0.5835919556	 1.8266065955	 0.9475706805	 0.128014
H	 0.5342971759	-1.0580088832	-1.9860073765	 0.090915
H	 1.9168490775	-0.4005986257	-1.0243341744	 0.103908
H	 1.4598584933	-2.5648162664	 0.4258861153	 0.072614
H	-0.9607600953	-2.8306092212	-0.8204335159	 0.074228
H	-0.7466270833	-3.9236922331	 1.3846136835	 0.078087
H	-1.0220453967	-2.3602553085	 2.1888099254	 0.100684
H	-2.9998007472	-3.5245248494	 1.9794795686	 0.285417
H	-2.0045408939	-0.501214687	 0.740458283	 0.109265
H	-1.885150687	-0.6147048001	-1.0237439637	 0.096369
91.8692	152.5971	180.7894	208.5979	266.2612	297.4065	325.6227	391.4275	437.5296	484.534	570.8417	619.9729	731.3647	803.9065	835.0479	848.0884	884.7675	913.9041	928.0706	932.9585	997.7647	1014.131	1034.1074	1056.5405	1078.6161	1100.6815	1142.4699	1176.7962	1196.5209	1212.8597	1230.3591	1239.0374	1259.513	1282.3218	1289.0681	1306.2207	1346.9608	1376.8828	1414.8134	1457.1426	1479.2578	1482.0031	1493.7799	1498.7356	1528.3582	2960.4126	3015.9846	3036.6912	3057.3493	3060.074	3069.8499	3105.4218	3112.568	3115.5476	3117.0474	3136.0477	3830.8275
CC12CC(O1)C(CO)C2	C[C@@]12C[C@@H](O1)[C@@H](CO)C2	
InChI=1S/C7H12O2/c1-7-2-5(4-8)6(3-7)9-7/h5-6,8H,2-4H2,1H3	InChI=1S/C7H12O2/c1-7-2-5(4-8)6(3-7)9-7/h5-6,8H,2-4H2,1H3/t5-,6-,7-/m1/s1
