20
gdb 122699	5.85261	0.56055	0.54356	2.2884	80.31	-0.2479	0.0302	0.2781	2042.9833	0.170042	-440.271481	-440.261561	-440.260616	-440.308361	34.369	
O	-0.0901720133	 1.4881530117	 0.4344012818	-0.421456
C	-0.0117260186	 0.0900137255	 0.1971742839	-0.072665
C	-1.4320118685	-0.4513695096	 0.1112327678	-0.153076
C	-1.4706492863	-1.9587296734	-0.156068815	-0.181644
N	-2.8492884425	-2.4386636894	-0.1331518199	-0.325035
C	-3.2878585518	-3.0978397451	-1.0989584971	 0.4617
C	-4.6164476111	-3.7354698445	-1.4486111081	-0.373287
C	-3.8856025435	-4.1539346051	-2.7404936671	-0.076481
O	-2.6655651129	-3.5035474826	-2.2749612123	-0.262828
H	 0.8055798587	 1.8336501949	 0.486022781	 0.283702
H	 0.5287601561	-0.1240808003	-0.7399395498	 0.082971
H	 0.5333397414	-0.4210965279	 1.0084533394	 0.082198
H	-1.9593609764	-0.233896446	 1.0458781981	 0.1148
H	-1.9658768918	 0.0791199309	-0.6853363534	 0.105765
H	-0.9600948882	-2.1905556579	-1.1008423189	 0.10865
H	-0.9252916476	-2.4799875512	 0.6425579247	 0.104563
H	-4.9217169828	-4.5478386052	-0.7870483352	 0.138437
H	-5.4437660337	-3.0342241479	-1.5687117581	 0.139038
H	-3.7268754252	-5.2256768255	-2.8831793585	 0.12212
H	-4.242546922	-3.6985744111	-3.6676089631	 0.122528
22.3736	74.3208	95.8778	113.262	147.0777	220.2241	241.8189	264.5505	333.1082	452.0033	538.3608	578.5327	750.5186	774.4277	790.2005	884.5289	905.7968	962.8009	992.5979	1027.0393	1035.0612	1056.8548	1073.4802	1090.3783	1118.9168	1159.3684	1173.746	1200.4814	1224.2891	1238.7967	1243.7489	1306.5751	1307.107	1320.2948	1350.0949	1398.4272	1464.6091	1467.9723	1492.767	1505.977	1522.1843	1529.7977	1845.9387	2953.8101	2978.1535	3000.0546	3034.5843	3046.3468	3061.52	3087.8099	3093.745	3114.2082	3143.2584	3829.8646
OCCCN=C1CCO1	OCCCN=C1CCO1	
InChI=1S/C6H11NO2/c8-4-1-3-7-6-2-5-9-6/h8H,1-5H2	InChI=1S/C6H11NO2/c8-4-1-3-7-6-2-5-9-6/h8H,1-5H2
