21
gdb 82451	2.26219	1.77276	1.37778	1.7009	82.15	-0.2197	0.0875	0.3072	1072.1841	0.180667	-387.043033	-387.034008	-387.033064	-387.076025	34.96	
C	 0.0761416524	 1.5880620146	-0.1089674831	-0.422633
C	 0.0897871073	 0.0718800443	 0.0160126977	-0.025856
C	 1.1475572214	-0.7408622456	-0.7809758859	 0.046919
O	 2.4153864003	-0.153009808	-0.3758748103	-0.326696
C	 2.2000871411	-0.7693671502	 0.9026690452	 0.430842
C	 3.3444200585	-0.8317433349	 1.8558745688	-0.508567
C	 1.2137669473	-1.7746106639	 0.3965108927	-0.255676
C	 0.6990635025	-0.6115773189	 1.2528641877	 0.235449
C	 0.1422731948	-0.6305352052	 2.6453336214	-0.513391
H	 1.0902060086	 1.9848931345	-0.0189975235	 0.131781
H	-0.3293310783	 1.9004504482	-1.0780701645	 0.10951
H	-0.5461935869	 2.043098868	 0.6695431426	 0.109113
H	-0.90282874	-0.3570273251	-0.167244368	 0.067902
H	 1.0789216372	-0.9288450133	-1.8509043696	 0.077361
H	 3.661128651	 0.1764819779	 2.1448049549	 0.13145
H	 3.0656201611	-1.3735739163	 2.7637687725	 0.125744
H	 4.1995878059	-1.3415074269	 1.4012484839	 0.132135
H	 1.1239184296	-2.8497162274	 0.4772838157	 0.092029
H	 0.7152852242	-1.2936371041	 3.3020737809	 0.118371
H	 0.1573516684	 0.3692868695	 3.09475093	 0.124329
H	-0.8960878365	-0.9822982772	 2.6522178009	 0.119884
154.4975	170.2894	171.4319	191.4816	200.6579	227.0996	285.019	341.3031	381.8893	537.3633	581.1603	615.3986	653.0621	734.8977	757.5084	802.9269	833.8228	886.2968	902.4891	926.0784	937.1759	974.2319	1029.2908	1061.9494	1094.3137	1103.4341	1130.0287	1138.6591	1155.5026	1161.1596	1225.0361	1242.3671	1284.8747	1337.191	1384.0365	1400.3865	1409.397	1416.5391	1449.5373	1471.6703	1486.6822	1491.0248	1493.0254	1502.5252	1507.4997	3020.9883	3029.5527	3035.5364	3038.7718	3079.2002	3088.4629	3090.5276	3099.2023	3117.9703	3124.8791	3136.2411	3200.1667
CC1C2OC3(C)C2C13C	C[C@H]1[C@H]2O[C@]3(C)[C@H]2[C@]13C	
InChI=1S/C8H12O/c1-4-5-6-7(4,2)8(6,3)9-5/h4-6H,1-3H3	InChI=1S/C8H12O/c1-4-5-6-7(4,2)8(6,3)9-5/h4-6H,1-3H3/t4-,5+,6+,7-,8+/m0/s1
