21
gdb 76330	1.8856	1.74499	1.24284	3.3114	73.73	-0.2395	0.0424	0.282	1121.1095	0.180808	-461.351298	-461.341519	-461.340575	-461.385126	37.904	
C	-0.2129693785	 1.5087132711	-0.0506216916	-0.428609
C	-0.0448015322	-0.01049643	-0.0037719874	 0.244237
C	-1.3850229121	-0.7143489678	-0.202664237	-0.458674
C	 1.1248961129	-0.5298007617	-0.9306487543	 0.10518
O	 1.6271853944	 0.3132376419	-1.9253946834	-0.43281
C	 2.0371717045	-0.7007188334	 0.3204084056	 0.034283
O	 2.919126669	 0.4000490334	 0.4438414032	-0.450481
C	 0.7793096076	-0.5176323904	 1.2227588673	 0.033059
O	 0.9444187759	 0.4351038528	 2.263550175	-0.424746
H	 0.7294239568	 2.0385061708	 0.1020791519	 0.107182
H	-0.6030528952	 1.8049704098	-1.0284187647	 0.123221
H	-0.9117431053	 1.8431805523	 0.7217753356	 0.114944
H	-1.8284336591	-0.4396164573	-1.1661135466	 0.122914
H	-1.2709354677	-1.8044193126	-0.1888844066	 0.105565
H	-2.0985356372	-0.4421594648	 0.5838908144	 0.114823
H	 0.8655672877	-1.4882540557	-1.3939984172	 0.070675
H	 2.2834842245	 0.8679111259	-1.4780704624	 0.291289
H	 2.6014152129	-1.6358285267	 0.409545337	 0.067629
H	 2.6034891594	 0.8996879923	 1.2134556664	 0.293282
H	 0.3961639049	-1.4652795852	 1.6172169255	 0.071087
H	 1.2510119466	-0.0225359848	 3.0530346691	 0.29595
70.5703	195.0722	212.6598	236.2404	246.5998	271.4058	282.4509	294.6696	300.6907	337.2253	437.3111	486.9172	521.3071	546.2455	609.9631	673.49	706.9602	795.6891	846.7375	870.3669	888.2464	960.6203	989.5664	1007.5713	1097.6021	1112.8927	1144.6439	1161.8118	1174.861	1216.6416	1237.445	1251.2432	1274.9329	1298.2356	1339.6623	1351.7157	1398.4858	1406.7296	1411.199	1432.8371	1449.2194	1484.7484	1485.8403	1501.6241	1508.9582	3018.6189	3029.7668	3039.7233	3047.3749	3053.2618	3085.036	3092.3278	3116.5508	3127.5442	3686.4605	3720.6771	3818.4866
CC1(C)C(O)C(O)C1O	CC1(C)[C@@H](O)[C@@H](O)[C@H]1O	
InChI=1S/C6H12O3/c1-6(2)4(8)3(7)5(6)9/h3-5,7-9H,1-2H3	InChI=1S/C6H12O3/c1-6(2)4(8)3(7)5(6)9/h3-5,7-9H,1-2H3/t3-,4+,5-
