21
gdb 96237	2.3154	1.54113	1.09082	1.7604	80.56	-0.2439	-0.0005	0.2435	1180.01	0.182818	-424.220142	-424.210891	-424.209946	-424.254266	34.874	
C	 0.0732731831	 1.5815749321	-0.0625223667	-0.406388
C	 0.0470200752	 0.0461564335	-0.0245792337	 0.007386
C	 0.8296730963	-0.5380017325	-1.2073789573	-0.081412
O	 0.457690935	-1.872594363	-1.5074407868	-0.241085
C	 1.1145901876	-2.8730100925	-0.7705628578	-0.132706
C	 0.815387592	-2.9436552379	 0.7077050845	-0.043864
C	 0.543499648	-1.9572407719	 1.56313442	-0.132321
C	 0.551693294	-0.4612955044	 1.3343560623	 0.096539
O	 1.886990911	 0.0491534067	 1.4978937642	-0.441139
H	 1.0964616337	 1.9590807989	 0.0143124888	 0.13618
H	-0.3637497796	 1.9543984645	-0.9942254054	 0.108723
H	-0.4992865741	 2.0043958618	 0.7693942055	 0.110536
H	-0.9895652093	-0.2956700059	-0.1316529744	 0.081535
H	 0.6039061492	 0.0389395869	-2.1105458595	 0.096992
H	 1.910424491	-0.4638756613	-1.0185104799	 0.103046
H	 0.8118762405	-3.8188181976	-1.2335698222	 0.113028
H	 2.210706859	-2.7965006144	-0.9036050997	 0.101661
H	 0.8584277598	-3.95543465	 1.1102491673	 0.093298
H	 0.3690140912	-2.2417048414	 2.6005316014	 0.088001
H	-0.0931176459	-0.0089848259	 2.1053926687	 0.061665
H	 2.3166208223	-0.4663829958	 2.1871650405	 0.280327
46.1197	124.0859	182.9582	214.2247	244.5253	270.1362	312.6997	320.1357	384.2532	396.3989	495.0063	559.0722	633.5625	710.4284	774.262	827.5985	877.925	912.5735	951.5011	981.2035	994.8475	1003.5109	1035.9976	1046.9803	1098.0562	1131.0291	1162.7943	1174.6354	1243.0127	1264.922	1294.6453	1313.9262	1328.838	1355.7625	1379.9495	1396.168	1405.5489	1417.142	1426.6873	1448.2959	1476.2084	1495.393	1496.6469	1508.6284	1728.857	2926.9057	2958.3882	3005.8011	3036.9081	3040.1788	3059.2316	3069.9686	3101.274	3115.1347	3120.9009	3140.5973	3825.4462
CC1COCC=CC1O	C[C@H]1COCC=C[C@H]1O	
InChI=1S/C7H12O2/c1-6-5-9-4-2-3-7(6)8/h2-3,6-8H,4-5H2,1H3	InChI=1S/C7H12O2/c1-6-5-9-4-2-3-7(6)8/h2-3,6-8H,4-5H2,1H3/t6-,7+/m0/s1
