15
gdb 44768	2.77863	1.69661	1.2572	4.258	71.4	-0.2594	0.0066	0.266	981.846	0.112941	-420.606676	-420.599536	-420.598591	-420.63816	28.253	
O	-0.0380752888	 0.0545528818	-0.0433325427	-0.338793
C	 0.028503217	 1.2420106175	-0.0096470428	 0.450604
O	-1.049896452	 2.0906218304	 0.0152263411	-0.246473
C	-0.410472096	 3.4024494816	 0.0520406411	 0.073713
C	 0.6822977485	 3.2663037164	-1.0265404262	-0.267627
C	 1.2277577047	 2.2105813972	 0.0170196617	 0.03451
C	 0.6838188663	 3.2053335789	 1.1196036951	-0.267627
C	 2.5548959609	 1.6699799684	 0.0007193499	 0.083892
C	 3.6749533094	 1.2351310633	-0.0124191428	-0.332496
H	-1.1725081432	 4.1762387328	 0.0745635679	 0.108032
H	 0.3810141231	 2.900323903	-2.0094905783	 0.13037
H	 1.3379707364	 4.1341607236	-1.1053207117	 0.126207
H	 1.3396373941	 4.0673449156	 1.2465985586	 0.126207
H	 0.3839128979	 2.7841276932	 2.0806167946	 0.13037
H	 4.6600303017	 0.8383508364	-0.0243466754	 0.189111
133.9869	145.8174	207.3573	395.6532	460.2255	481.1124	506.5468	516.2109	601.0462	643.8388	651.7937	669.6355	751.0454	790.7617	866.0254	919.3916	922.7467	938.9342	972.2141	992.6779	1051.3384	1057.9161	1111.538	1176.27	1188.4659	1237.0532	1238.5105	1300.4823	1346.1878	1476.5719	1512.4659	1919.2912	2246.6556	3081.0173	3085.1317	3152.3892	3156.497	3168.8486	3501.7766
O=C1OC2CC1(C2)C#C	O=C1O[C@@H]2C[C@]1(C2)C#C	
InChI=1S/C7H6O2/c1-2-7-3-5(4-7)9-6(7)8/h1,5H,3-4H2	InChI=1S/C7H6O2/c1-2-7-3-5(4-7)9-6(7)8/h1,5H,3-4H2/t5-,7+
