16
gdb 63615	2.96425	1.04338	0.94944	3.9046	74.51	-0.2731	-0.0825	0.1906	1264.684	0.121686	-437.896014	-437.88684	-437.885896	-437.930151	33.409	
C	-0.1978377412	 1.5253291789	-0.0117441757	-0.478812
C	 0.0277229363	 0.0342962753	-0.0286458589	 0.419363
O	-1.0483147276	-0.7274389187	-0.4680080765	-0.439376
C	 1.3413733614	-0.5580670608	-0.3413821122	-0.318465
C	 0.8689088874	-0.6642594088	 1.1073798351	-0.211005
C	 1.5424189405	 0.1327110384	 2.1369109458	 0.302047
O	 2.2298940046	 1.1148154392	 1.9452978507	-0.314736
C	 1.3084337716	-0.3333379237	 3.5231257542	 0.216514
N	 1.1243030655	-0.7000517542	 4.6043300578	-0.306464
H	 0.6775427191	 2.057007722	 0.3619877496	 0.167033
H	-0.4147640943	 1.8682684384	-1.0282153296	 0.138849
H	-1.0529143433	 1.7834689091	 0.6246678661	 0.119348
H	-1.8391046458	-0.4392385901	 0.0024017431	 0.292138
H	 1.354886813	-1.4817220274	-0.9076332985	 0.14107
H	 2.1738886047	 0.118215038	-0.5006548345	 0.150473
H	 0.4482895582	-1.6094530556	 1.4272938335	 0.122023
55.3638	117.3938	164.3794	211.7757	239.2986	298.8153	312.7388	355.1004	386.246	409.6558	462.514	491.9037	611.2932	636.3538	755.9649	801.5857	818.5753	938.3538	958.9611	972.0353	1032.3082	1073.4351	1104.2748	1110.8252	1133.5767	1220.5494	1302.2906	1364.1472	1413.3595	1428.6923	1470.4868	1495.8988	1514.1877	1750.098	2336.1017	3033.1323	3097.6403	3144.0252	3153.7291	3197.86	3243.3837	3795.8538
CC1(O)CC1C(=O)C#N	C[C@@]1(O)C[C@H]1C(=O)C#N	
InChI=1S/C6H7NO2/c1-6(9)2-4(6)5(8)3-7/h4,9H,2H2,1H3	InChI=1S/C6H7NO2/c1-6(9)2-4(6)5(8)3-7/h4,9H,2H2,1H3/t4-,6+/m0/s1
