21
gdb 40151	2.42425	1.63554	1.28188	1.6678	81.91	-0.2529	0.0767	0.3296	1090.6282	0.182672	-387.048959	-387.040682	-387.039738	-387.081952	32.517	
C	 0.0894539815	 1.4222169644	-0.3708895494	-0.267453
O	 1.2126470259	 0.525345369	-0.3483633431	-0.273503
C	-0.0782019872	-0.0087165385	-0.1105820706	 0.413348
C	-0.5191798193	-0.7023878989	 1.1793167776	-0.322084
C	-1.4984326263	-1.546700877	 0.3089182211	-0.322176
C	-0.7517303078	-1.0879960343	-0.971736099	 0.286128
C	-1.4037118666	-0.7480228513	-2.3322608859	-0.299255
C	-0.1397279652	-1.3054450464	-3.0411125377	-0.205681
C	 0.232397222	-2.0334920673	-1.7218117322	-0.266368
H	 0.0427915481	 2.1305629616	 0.4560518542	 0.112381
H	-0.1531018657	 1.8366678938	-1.3484118629	 0.115202
H	 0.2888136586	-1.30304568	 1.6063016048	 0.117161
H	-0.9477219284	-0.0767548975	 1.9655955847	 0.10394
H	-1.5170481905	-2.6232932737	 0.4938392961	 0.100535
H	-2.5232148288	-1.1659553565	 0.3467973102	 0.103424
H	-2.2836086502	-1.3738750142	-2.514277039	 0.099525
H	-1.68108396	 0.294953493	-2.5111512031	 0.091644
H	-0.2886168004	-1.9174849759	-3.93342957	 0.093991
H	 0.5771691187	-0.5137841877	-3.2731011728	 0.11309
H	 1.278640398	-2.0065576638	-1.4096880634	 0.111567
H	-0.1224398962	-3.0688348188	-1.7066774997	 0.094584
69.7226	99.305	196.6487	249.1472	272.2372	328.3564	423.8903	478.3157	493.744	586.9431	679.2205	738.6962	784.6746	849.0543	860.6444	884.1198	889.8017	902.9462	935.1343	937.564	947.8274	973.6029	1046.5333	1113.8287	1124.4318	1136.1093	1158.1313	1166.0833	1174.4882	1187.289	1209.9281	1219.7192	1245.5892	1254.023	1259.5281	1278.111	1291.3384	1311.4128	1422.2836	1469.0576	1473.2759	1480.3264	1491.7706	1502.9242	1534.2294	3042.0544	3050.4281	3054.717	3061.2417	3063.2827	3076.9468	3088.9101	3102.5463	3107.736	3118.8226	3122.3263	3162.6974
C1OC11CCC11CCC1	C1O[C@]21CCC12CCC1	
InChI=1S/C8H12O/c1-2-7(3-1)4-5-8(7)6-9-8/h1-6H2	InChI=1S/C8H12O/c1-2-7(3-1)4-5-8(7)6-9-8/h1-6H2/t8-/m0/s1
