21
gdb 58500	1.91343	1.35585	1.1246	3.9928	80.62	-0.2325	-0.0084	0.2241	1241.7159	0.17955	-424.229025	-424.218747	-424.217802	-424.264003	37.983	
C	 0.2602040829	 0.6310733535	 1.2025937405	-0.419285
C	-0.1989635001	 0.2519057029	-0.2080637564	 0.06274
O	 0.7656139327	-0.5750194892	-0.8543723851	-0.436388
C	-1.554484704	-0.4542075077	-0.2302678399	 0.334461
C	-2.7198407781	 0.475170843	 0.0692200491	-0.465054
C	-1.7953391124	-1.5657474282	-1.1971576777	-0.347268
C	-1.7200014935	-1.8910815173	 0.2929973721	-0.134115
C	-0.6025324636	-2.7170346416	 0.8112151631	 0.139361
O	-0.7009872183	-3.4232785714	 1.7894366745	-0.286988
H	 1.2163321047	 1.1661768846	 1.1619721814	 0.107898
H	-0.4592554287	 1.2923983413	 1.6931842789	 0.126661
H	 0.3897919771	-0.2605051981	 1.8226930499	 0.142456
H	-0.3247780316	 1.1786715396	-0.7939236577	 0.071035
H	 1.6333769332	-0.1843821859	-0.7131295249	 0.286643
H	-2.7489668367	 1.3044302441	-0.6471556199	 0.121554
H	-3.670892314	-0.0592153635	-0.0027824056	 0.12388
H	-2.6570216268	 0.9020628767	 1.075261222	 0.126098
H	-2.7672157935	-1.6431859774	-1.672549977	 0.115181
H	-0.9582047133	-1.8928112588	-1.801813368	 0.142718
H	-2.6532902509	-2.0869010966	 0.8120240837	 0.097083
H	 0.3395119547	-2.6556111497	 0.233456627	 0.091329
72.3563	86.8102	145.861	209.7418	226.8413	250.4589	253.7669	271.9207	314.1422	335.1808	403.8936	431.4894	451.3205	522.0489	574.9863	677.338	838.6592	859.2171	893.6029	935.1721	946.8384	1013.4718	1044.8886	1056.069	1064.5226	1083.9821	1099.6133	1134.4899	1134.7134	1191.5321	1231.4969	1261.8022	1318.0497	1364.1057	1379.8679	1409.5441	1417.3732	1424.5246	1444.8235	1483.0296	1489.5383	1498.5731	1500.8059	1503.4817	1797.2801	2948.7619	2955.2854	3030.4276	3033.2733	3093.3023	3100.6415	3112.5503	3125.8339	3139.9388	3161.778	3234.8684	3827.4639
CC(O)C1(C)CC1C=O	C[C@@H](O)[C@@]1(C)C[C@H]1C=O	
InChI=1S/C7H12O2/c1-5(9)7(2)3-6(7)4-8/h4-6,9H,3H2,1-2H3	InChI=1S/C7H12O2/c1-5(9)7(2)3-6(7)4-8/h4-6,9H,3H2,1-2H3/t5-,6+,7-/m1/s1
