16
gdb 49494	2.57912	1.45358	1.11362	3.3186	77.01	-0.253	-0.0422	0.2107	1097.5154	0.123112	-400.63228	-400.624352	-400.623408	-400.66497	30.036	
O	-0.2650834531	 0.1013236309	-0.3937210507	-0.238075
C	-0.0245674199	 1.18070754	 0.0843723615	 0.129054
C	 1.261910963	 1.9477079174	-0.0593937058	-0.084742
N	 2.4591313427	 1.3020847358	-0.765309488	-0.158347
C	 1.7139597427	 1.6030743915	-2.0824115764	-0.21368
C	 1.4893923887	 2.9164620909	-1.2831809022	 0.22921
C	 2.9815081635	 2.7435543108	-0.8997342482	-0.198999
C	 0.7618860315	 4.1043619965	-1.6367640836	 0.007748
C	 0.151602446	 5.0982535303	-1.9312779106	-0.332329
H	-0.7795431989	 1.7172997138	 0.7040666284	 0.087266
H	 1.5200515096	 2.383956434	 0.9133927437	 0.09694
H	 2.3786505824	 1.667014405	-2.9464581657	 0.112249
H	 0.8658591681	 0.9481216522	-2.2671608543	 0.145645
H	 3.3231490088	 3.1844724214	 0.0398879681	 0.112281
H	 3.7177950961	 2.8628369125	-1.6973521281	 0.115254
H	-0.3867875212	 5.9755418669	-2.1939431482	 0.190524
83.0121	130.6033	170.0105	221.9936	280.6157	409.6672	485.2433	520.3519	536.8679	605.8229	649.2672	659.2016	714.7303	793.1237	810.58	857.8128	907.0967	962.0894	986.6812	1000.6386	1063.1493	1084.9563	1101.2309	1129.9074	1164.3563	1175.4053	1198.9408	1254.4947	1282.426	1391.5776	1425.4233	1514.2662	1550.6902	1824.0188	2230.3446	2868.6286	3040.121	3061.1923	3083.0379	3133.9498	3179.0059	3497.5679
O=CC1N2CC1(C2)C#C	O=C[C@H]1N2C[C@@]1(C2)C#C	
InChI=1S/C7H7NO/c1-2-7-4-8(5-7)6(7)3-9/h1,3,6H,4-5H2	InChI=1S/C7H7NO/c1-2-7-4-8(5-7)6(7)3-9/h1,3,6H,4-5H2/t6-/m1/s1
