18
gdb 126851	1.88996	1.7372	1.03244	3.4668	74.28	-0.2546	-0.0073	0.2473	1180.7406	0.14867	-435.265718	-435.256848	-435.255904	-435.300003	31.815	
C	 0.1956089789	 1.2413503245	-0.060130659	-0.381886
C	-0.0924001703	-0.2426638592	-0.2914662098	-0.158861
N	-1.5125808702	-0.5603319459	-0.1787342267	 0.00468
N	-2.0328331601	-0.8907576103	 1.0187701855	-0.148731
N	-3.3107420206	-1.0963201008	 0.8576345088	-0.193598
C	-3.618665106	-0.9030128149	-0.4514160354	-0.158106
C	-2.4768668375	-0.5537849462	-1.1393864127	 0.28028
C	-2.2309383362	-0.256766503	-2.5834629657	-0.193234
O	-1.2756323507	-1.1281820878	-3.1830297433	-0.40369
H	 1.272244497	 1.4243104227	-0.1241401268	 0.127712
H	-0.2992929963	 1.8665760791	-0.8093120367	 0.126517
H	-0.1512699976	 1.5490048868	 0.9296938504	 0.147185
H	 0.2319816053	-0.5655008656	-1.2828398376	 0.148305
H	 0.4159071886	-0.8531683441	 0.4580005765	 0.142184
H	-4.6239471509	-1.0234709364	-0.8239864928	 0.122658
H	-3.193838959	-0.2861210234	-3.1115097524	 0.117896
H	-1.8212275108	 0.7499808773	-2.718297587	 0.130208
H	-1.5909515337	-2.0310299426	-3.0643728652	 0.290482
57.1564	92.0204	141.0804	167.375	209.2925	261.7171	366.2006	378.9298	423.2551	439.8126	663.9349	688.0652	720.5187	758.6372	804.3246	852.1446	963.2048	976.557	993.4202	1044.168	1070.7108	1103.2075	1141.8844	1189.4108	1222.4534	1244.9177	1288.0574	1330.5366	1357.3919	1371.2746	1395.016	1410.9925	1418.6899	1473.4291	1489.9809	1493.0761	1504.3065	1506.1095	1584.0262	3015.498	3045.1559	3070.5134	3081.408	3113.7463	3124.7756	3143.0016	3261.0571	3805.9997
CCN1N=NC=C1CO	CCn1nncc1CO	
InChI=1S/C5H9N3O/c1-2-8-5(4-9)3-6-7-8/h3,9H,2,4H2,1H3	InChI=1S/C5H9N3O/c1-2-8-5(4-9)3-6-7-8/h3,9H,2,4H2,1H3
