21
gdb 87808	2.82309	1.31443	1.13702	1.759	82.65	-0.2453	0.085	0.3303	1190.2796	0.181328	-387.048509	-387.039638	-387.038694	-387.081754	34.384	
C	-0.0446964283	 1.512725927	-0.1096837947	-0.416982
C	 0.0787299786	 0.0107036695	 0.0438553331	-0.001166
C	 1.3333599016	-0.792605173	-0.1662713785	-0.077254
C	 2.587739013	-0.0542435467	 0.3374788141	-0.331724
C	 1.9179828237	 0.046528645	 1.7210779236	 0.454092
O	 2.6040176751	-0.3594002725	 2.8952706242	-0.308704
C	 2.0947923011	 0.9883067806	 2.8315180877	-0.029627
C	 3.117638975	 2.0944071815	 2.8178152768	-0.417881
C	 0.6911035075	-0.6956707658	 1.2309635312	-0.17418
H	 0.8343831465	 2.0426140333	 0.2652749575	 0.123373
H	-0.1748887445	 1.7872934206	-1.1622835282	 0.116438
H	-0.913789947	 1.8880043091	 0.4416927965	 0.117321
H	-0.7981749673	-0.5244948841	-0.317741515	 0.087749
H	 1.3583084836	-1.6463313791	-0.8323141404	 0.087732
H	 3.4607917397	-0.7086983844	 0.3939506073	 0.12051
H	 2.8672219773	 0.8719637698	-0.1751643396	 0.097168
H	 1.2363358177	 1.1559522062	 3.485625011	 0.084673
H	 3.9246601559	 1.8717054129	 2.1150126719	 0.1267
H	 2.6524587517	 3.0432797746	 2.5281128019	 0.11993
H	 3.5572521983	 2.2272938731	 3.8120898129	 0.128354
H	 0.1637134508	-1.4478763876	 1.8053442268	 0.093477
91.6328	150.2165	177.1742	195.8838	212.9025	269.6075	339.5997	407.0667	453.5279	473.951	543.7561	598.677	718.74	784.8533	793.965	821.5404	884.7596	902.3724	951.9959	971.4891	978.8981	988.9674	1042.8693	1051.5827	1065.9867	1085.4556	1121.3902	1133.5382	1139.9149	1171.4995	1198.6141	1206.1261	1246.4514	1288.1989	1319.5216	1359.0728	1408.0931	1413.7555	1438.1691	1468.5999	1481.6544	1491.7244	1495.8932	1503.6701	1523.5659	3033.5527	3033.6647	3047.4257	3082.9345	3090.2466	3096.3471	3109.2207	3111.4898	3123.4127	3127.6604	3180.1597	3190.8232
CC1C2CC3(OC3C)C12	C[C@H]1[C@H]2C[C@]3(O[C@H]3C)[C@@H]12	
InChI=1S/C8H12O/c1-4-6-3-8(7(4)6)5(2)9-8/h4-7H,3H2,1-2H3	InChI=1S/C8H12O/c1-4-6-3-8(7(4)6)5(2)9-8/h4-7H,3H2,1-2H3/t4-,5-,6+,7-,8+/m0/s1
