18
gdb 33498	2.65047	1.17799	0.90666	2.7825	77.7	-0.2443	0.029	0.2733	1291.3608	0.146003	-401.859801	-401.850786	-401.849842	-401.894213	33.316	
C	-0.5819591762	-1.1154845521	 0.2280066822	-0.462444
C	-0.3490304895	 0.0619463145	 0.1429052	 0.307296
C	-0.0710820415	 1.4717531076	 0.0225304897	 0.124417
C	-1.0818499144	 2.2961711896	-0.7626353547	-0.303056
C	-1.1395423602	 1.9000023789	-2.2202052079	 0.104631
C	-2.1464906704	 0.9670820266	-2.7377751551	-0.167181
O	-2.2654502575	 2.3742281216	-2.9606733129	-0.241024
C	 0.71919085	 2.1081592665	 1.122062989	-0.274062
N	 1.3444520093	 1.8806304362	-0.1844286373	-0.344089
H	-0.7864027174	-2.1545796197	 0.3082903924	 0.20013
H	-2.0770087435	 2.1943206389	-0.3171573393	 0.111441
H	-0.7900542414	 3.3493449551	-0.6902525389	 0.117681
H	-0.1899172571	 1.9754436846	-2.7507756266	 0.103303
H	-1.9299028135	 0.3693065775	-3.6217987479	 0.113866
H	-2.8773563217	 0.5378030984	-2.0541688524	 0.114682
H	 0.5283339614	 3.1498926383	 1.3652222613	 0.125955
H	 1.0085262716	 1.4832692757	 1.9613341759	 0.126237
H	 1.9428419321	 1.0593427517	-0.1422961678	 0.242216
60.3255	70.8885	134.9695	176.343	229.3212	289.0354	363.9614	405.8167	420.7334	550.1512	568.1841	601.4691	658.5593	714.2764	812.7041	833.8675	871.1279	898.9548	925.7729	936.9108	987.5773	1010.7924	1077.011	1087.3876	1124.2865	1137.9212	1154.4833	1182.5147	1215.9001	1265.1951	1284.5679	1309.965	1337.9706	1371.6262	1442.3373	1471.8052	1504.7766	1532.3809	2230.9246	3044.9429	3085.5577	3090.3952	3113.4111	3113.6405	3172.9193	3205.3038	3500.8108	3507.9947
C#CC1(CC2CO2)CN1	C#C[C@@]1(C[C@H]2CO2)CN1	
InChI=1S/C7H9NO/c1-2-7(5-8-7)3-6-4-9-6/h1,6,8H,3-5H2	InChI=1S/C7H9NO/c1-2-7(5-8-7)3-6-4-9-6/h1,6,8H,3-5H2/t6-,7+/m0/s1
