17
gdb 37998	3.34585	1.86326	1.53512	1.9016	77.48	-0.2326	-0.019	0.2136	884.8167	0.138111	-384.58722	-384.58103	-384.580086	-384.617411	26.404	
C	-0.0905940537	 1.3469975985	 0.2274293835	-0.277187
C	 1.3987563186	 1.5092945943	-0.2102840949	-0.077298
C	 2.3694610957	 0.2835259464	-0.2153946749	-0.044136
C	 2.4594205345	-1.0780120262	 0.456998483	 0.058506
O	 1.9050182769	-1.4102393838	 1.7261057914	-0.256794
C	 1.2591822131	-1.9362130826	 0.5319911033	-0.032639
C	 0.0015172234	-1.157502457	 0.3554957422	-0.152327
C	 0.0572093128	-0.0398813425	-0.3772832095	 0.158989
C	 1.2624388065	 0.39123986	-1.2153185848	-0.162569
H	-0.3621835938	 1.4038078298	 1.2849225071	 0.109767
H	-0.6786518881	 2.0640630541	-0.3566288611	 0.109162
H	 1.8566225565	 2.4805333563	-0.3737605191	 0.095156
H	 3.3446718762	 0.6321371515	-0.5525859411	 0.085044
H	 3.4236091469	-1.5554868671	 0.2769947941	 0.089167
H	 1.3295986714	-3.0158270347	 0.4248514017	 0.099036
H	-0.7171416292	-1.229683237	 1.1698291734	 0.10308
H	 1.3476146022	 0.3950506799	-2.2943712641	 0.095041
180.2605	265.414	397.9185	434.2168	507.3848	517.6269	604.3173	640.4516	752.7796	775.0129	811.4074	813.2932	844.7044	867.2593	887.6872	922.4562	938.3388	989.1187	1008.0368	1044.8798	1046.6099	1063.8581	1074.0034	1084.6209	1116.0939	1143.7077	1171.2798	1224.6724	1243.4263	1271.3167	1312.5884	1331.9012	1360.6931	1394.459	1437.0013	1492.2355	1681.3795	3034.4318	3093.2919	3099.8969	3118.4838	3137.0217	3143.3616	3153.3334	3191.6294
C1C2C3C4OC4C=C1C23	C1[C@H]2[C@H]3[C@H]4O[C@H]4[CH][C]1[C@@H]23	
InChI=1S/C8H8O/c1-3-2-5-8(9-5)7-4(1)6(3)7/h2,4-8H,1H2	InChI=1S/C8H8O/c1-3-2-5-8(9-5)7-4(1)6(3)7/h2,4-8H,1H2/t4-,5+,6+,7-,8+/m1/s1
