18
gdb 13419	5.80711	1.00812	0.9171	0.8498	64.06	-0.2546	0.0786	0.3332	1245.6233	0.15396	-422.066371	-422.057918	-422.056974	-422.100548	29.405	
O	-0.1126465671	 1.4295923437	-0.0886554528	-0.422997
C	 0.0141684314	 0.0160956539	-0.0378157054	-0.075641
C	-1.3905908299	-0.571921666	-0.0026993213	-0.190492
C	-1.3949804406	-2.0917803023	 0.0913405581	 0.110017
C	-2.7999980686	-2.7270867574	 0.0910365864	-0.129964
O	-2.6271353724	-3.9192258018	-0.6585472121	-0.233246
C	-1.6912124282	-3.5757386524	-1.6460208257	 0.026769
O	-0.7645258943	-2.6865908876	-1.0537695747	-0.273563
H	 0.7671873609	 1.8057571905	-0.1821329471	 0.28604
H	 0.5489728346	-0.3757672056	-0.9143796365	 0.107034
H	 0.5720442546	-0.3023541074	 0.8588094049	 0.082225
H	-1.9263322801	-0.1560096601	 0.8603484877	 0.106756
H	-1.9318345537	-0.2572743785	-0.9024487117	 0.108311
H	-0.834081287	-2.4129537175	 0.9806440872	 0.081235
H	-3.1627426029	-2.9921231471	 1.085864217	 0.120812
H	-3.530308457	-2.0590611225	-0.3928327254	 0.096261
H	-1.176250236	-4.4829907096	-1.977598218	 0.117135
H	-2.1871730038	-3.0872753822	-2.5050073705	 0.083308
40.0738	97.0754	104.1344	157.8303	262.1135	263.0395	332.4236	375.9454	495.2376	678.8036	741.5508	793.1451	868.5958	958.8254	975.2745	998.5736	1034.8263	1059.5072	1088.5447	1109.5491	1121.2828	1152.2612	1183.2801	1207.882	1228.5763	1243.3421	1269.6603	1307.5759	1316.4195	1351.8251	1368.977	1405.7676	1435.2483	1462.7585	1478.8752	1509.903	1530.3078	1547.7724	2931.525	2961.5125	2980.152	3001.1801	3018.7588	3031.1527	3074.8411	3079.321	3112.8846	3832.6281
OCCC1COCO1	OCC[C@H]1COCO1	
InChI=1S/C5H10O3/c6-2-1-5-3-7-4-8-5/h5-6H,1-4H2	InChI=1S/C5H10O3/c6-2-1-5-3-7-4-8-5/h5-6H,1-4H2/t5-/m0/s1
