18
gdb 50627	3.27146	1.1208	0.888	1.3682	74.55	-0.2497	-0.0361	0.2136	1269.8432	0.148058	-439.093436	-439.084849	-439.083905	-439.128099	30.663	
O	 0.0337900797	-0.0719154565	 0.2107439227	-0.240529
C	 0.0176608903	 1.1208474481	 0.0543845893	 0.146205
C	 1.2494976582	 2.0095869868	 0.0231731022	-0.089864
C	 1.2702386229	 2.8148363829	-1.2844110989	-0.233982
C	 2.5778426421	 3.5818840316	-1.5159318151	-0.157834
N	 2.933665047	 4.6534862457	-0.6054904836	-0.238336
C	 2.8700149735	 4.6072989599	 0.6498546404	 0.116566
O	 2.4039960485	 3.6607839121	 1.5171921405	-0.229275
C	 1.210642856	 2.9277598288	 1.253328557	-0.078567
H	-0.9455852079	 1.6661775216	-0.0886238823	 0.077026
H	 2.1245962842	 1.3541324934	 0.0916457519	 0.105554
H	 1.1289604247	 2.1385969479	-2.136589982	 0.114262
H	 0.4264786928	 3.5175108289	-1.2958414297	 0.108641
H	 3.4108553354	 2.863130588	-1.5233839995	 0.120722
H	 2.5437058652	 4.0133532751	-2.5220771039	 0.113757
H	 3.298303652	 5.425752346	 1.230228307	 0.122347
H	 0.3728937294	 3.6331649895	 1.1580675204	 0.111228
H	 1.056692116	 2.3368502101	 2.1601598939	 0.132079
36.32	55.8523	162.3238	181.6975	264.0641	290.7057	370.9942	395.2984	473.2572	525.3263	573.0612	751.1056	819.3884	867.5547	898.1247	954.9586	964.4754	970.2269	998.7645	1053.3088	1095.4866	1125.5799	1134.1369	1166.7162	1219.932	1243.7261	1310.7454	1315.7107	1350.3588	1376.0266	1394.9773	1427.8027	1430.9446	1434.3651	1481.5571	1489.5206	1498.3641	1765.3265	1834.5875	2849.2165	3001.9172	3006.94	3018.3766	3056.1603	3060.0739	3069.2667	3095.7055	3129.6828
O=CC1CCN=COC1	O=C[C@H]1CCN=COC1	
InChI=1S/C6H9NO2/c8-3-6-1-2-7-5-9-4-6/h3,5-6H,1-2,4H2	InChI=1S/C6H9NO2/c8-3-6-1-2-7-5-9-4-6/h3,5-6H,1-2,4H2/t6-/m1/s1
