16
gdb 14892	4.83557	1.52049	1.20549	1.4397	72.4	-0.2479	0.0162	0.2641	975.3394	0.13043	-346.56917	-346.561847	-346.560902	-346.600592	28.027	
C	 0.0218253203	-1.1953239428	-0.0439066278	-0.407751
C	 0.0349628966	 0.005086543	-0.0079147737	 0.297268
C	 0.0036733383	 1.4623532822	 0.0580993967	-0.067818
C	-0.6961902203	 1.9768604178	 1.3307670516	-0.252559
C	-0.4828060376	 3.4618461491	 1.4586823188	-0.073011
C	 0.4596353536	 4.0924765443	 0.7627912299	-0.064172
C	 1.399689242	 3.3553791147	-0.1500525773	-0.11209
O	 1.3424660629	 1.9484558333	 0.0031036578	-0.260213
H	 0.0207885756	-2.2565102491	-0.0846551276	 0.196076
H	-0.5538723609	 1.8427240823	-0.8156002846	 0.096385
H	-1.7652628257	 1.7395147514	 1.2775350383	 0.114727
H	-0.3008470074	 1.4432069632	 2.2040379531	 0.126553
H	-1.1351158058	 4.0097197807	 2.1330516394	 0.092265
H	 0.5873974902	 5.1696551537	 0.8273627622	 0.093525
H	 1.2054121112	 3.6388706084	-1.2014463338	 0.098994
H	 2.438543557	 3.6337792679	 0.0631251769	 0.12182
114.2779	150.7703	191.8503	293.9744	393.6237	431.4366	486.9587	527.7694	560.8655	621.9636	671.235	672.8127	773.9292	871.4143	924.9574	955.5571	994.0539	1004.2764	1038.6455	1056.7781	1075.3962	1118.0023	1205.3255	1209.3378	1261.028	1307.5213	1358.8117	1378.6199	1396.4482	1411.2386	1468.5258	1485.5903	1727.1794	2245.5514	2932.3123	2949.1947	3029.8397	3052.4487	3065.7771	3154.8439	3177.4083	3504.7856
C#CC1CC=CCO1	C#C[C@H]1CC=CCO1	
InChI=1S/C7H8O/c1-2-7-5-3-4-6-8-7/h1,3-4,7H,5-6H2	InChI=1S/C7H8O/c1-2-7-5-3-4-6-8-7/h1,3-4,7H,5-6H2/t7-/m0/s1
