22
gdb 64235	2.47318	1.11053	1.01381	3.6075	84.06	-0.2451	0.0308	0.2759	1328.546	0.193318	-404.377403	-404.367465	-404.366521	-404.412795	36.986	
C	-0.1147701359	 1.4986585206	 0.0899279945	-0.443823
C	 0.0232140102	-0.0248648006	 0.0326729077	 0.317972
C	-1.3446091009	-0.6916330795	-0.0620250866	-0.454538
C	 1.104163069	-0.4713683638	-1.0051350898	-0.25615
C	 2.1512705046	-0.5514790196	 0.1376219439	-0.263341
C	 0.9792621698	-0.5896760069	 1.1468058542	 0.039177
N	 1.1196287305	 0.1013861558	 2.4051783735	-0.287614
C	 0.7492268857	-0.4259579349	 3.6053067729	 0.150066
O	 0.2633677113	-1.5242076745	 3.7719372505	-0.322436
H	 0.8580034881	 2.0027738183	 0.1238596506	 0.101802
H	-0.6390032564	 1.8676522429	-0.7981569352	 0.118934
H	-0.6867625769	 1.8112957459	 0.9702773463	 0.116148
H	-1.88737077	-0.3592007642	-0.9548629013	 0.110478
H	-1.2525358257	-1.7815015382	-0.1124381264	 0.114943
H	-1.9615505455	-0.4506462728	 0.811336889	 0.122966
H	 0.8812436402	-1.4553602412	-1.4266448878	 0.102963
H	 1.3127587518	 0.2194286916	-1.8257533519	 0.096833
H	 2.8443059778	-1.39532695	 0.1462718825	 0.107443
H	 2.7331998771	 0.3716731743	 0.2242252871	 0.096014
H	 0.697992504	-1.6143503561	 1.3954080276	 0.11813
H	 1.5030796971	 1.0336152948	 2.4037911983	 0.243535
H	 0.950607124	 0.2770329279	 4.4387885603	 0.070498
27.1811	97.9477	170.545	198.4304	214.5313	249.9356	254.4513	305.7356	348.1791	368.3831	431.9967	512.9273	544.5513	597.6157	705.0785	759.2433	843.6185	867.7973	911.8374	946.1078	959.4646	971.0712	1000.6858	1020.8389	1033.3665	1085.0164	1131.16	1179.7387	1199.9856	1217.0532	1239.4546	1255.1193	1267.8502	1284.9581	1317.902	1370.8059	1402.5556	1420.3913	1433.2481	1479.8848	1482.9907	1489.4047	1499.5922	1504.4501	1507.5749	1533.4281	1805.9666	2927.9522	3020.1031	3024.5573	3052.0052	3059.2737	3085.9337	3087.3462	3094.8562	3096.4772	3100.8059	3108.5939	3120.7389	3628.0717
CC1(C)CCC1NC=O	CC1(C)CC[C@H]1NC=O	
InChI=1S/C7H13NO/c1-7(2)4-3-6(7)8-5-9/h5-6H,3-4H2,1-2H3,(H,8,9)	InChI=1S/C7H13NO/c1-7(2)4-3-6(7)8-5-9/h5-6H,3-4H2,1-2H3,(H,8,9)/t6-/m1/s1
