18
gdb 100443	2.9601	0.88591	0.70545	17.5494	81.18	-0.1736	-0.0485	0.1251	1561.079	0.14634	-438.986505	-438.976248	-438.975304	-439.022627	35.507	
C	-0.1105714888	 2.0008321951	-0.2443407567	-0.390864
C	-0.0773341794	 0.5372734531	 0.2198894838	-0.073264
C	 0.8753199677	-0.3452743903	-0.6079532112	-0.217449
N	 0.2558313757	-0.7544348665	-1.9601006637	-0.431285
H	-0.5953212983	-1.2943463723	-1.7885860857	 0.336518
H	 0.006972993	 0.0568790945	-2.5302579221	 0.324832
H	 0.8991581634	-1.3451758042	-2.4920934481	 0.336947
C	 0.3984538698	 0.3061339548	 1.597753142	-0.212606
C	 1.0291741057	-0.5323086001	 2.2270841934	 0.07953
C	 1.8018673415	-1.8050233911	 2.5314835501	 0.305378
O	 1.864138698	-2.415048027	 1.4229650784	-0.455296
O	 2.2184854985	-2.0676741688	 3.6467139324	-0.43156
H	 0.8800557572	 2.4559015329	-0.1518337419	 0.142049
H	-0.4421340801	 2.1033102647	-1.288563493	 0.070743
H	-0.8022987418	 2.5760621657	 0.3752326634	 0.151245
H	-1.0985555099	 0.1270596259	 0.1294424179	 0.08867
H	 1.7988930747	 0.1816891774	-0.8571490732	 0.15175
H	 1.1217954132	-1.2819299238	-0.0730817957	 0.224663
54.2165	80.13	89.6051	139.8157	185.9984	217.7493	234.6241	250.0878	310.5094	346.4031	426.2365	509.4784	562.5624	573.5244	769.0319	773.7132	792.3004	808.8456	861.9957	912.3146	971.3427	1035.4398	1106.2774	1140.7178	1177.8902	1267.2553	1294.6747	1317.9744	1365.3694	1408.4747	1443.4023	1449.4378	1481.3731	1495.4643	1503.7388	1650.9	1657.0319	1791.6752	2176.3089	2900.9081	2940.8695	2994.9599	3089.1104	3122.2468	3131.2203	3408.5613	3505.5015	3508.5235
CC(C[NH3+])C#CC([O-])=O	C[C@@H](C[NH3])[C]=C=[C](=O)[O]	
InChI=1S/C6H9NO2/c1-5(4-7)2-3-6(8)9/h5H,4,7H2,1H3,(H,8,9)	InChI=1S/C6H9NO2/c1-5(4-7)2-3-6(8)9/h5H,4H2,1,7H3/t5-/m1/s1
