24
gdb 5986	3.91061	1.03545	1.01914	0.9966	82.33	-0.2512	0.077	0.3282	1339.7471	0.220348	-351.407938	-351.397068	-351.396124	-351.443504	39.108	
C	-0.0994068895	 1.5128660821	 0.1563062389	-0.401723
C	 0.0287034427	-0.0012874041	-0.0446829483	-0.184499
C	 0.7593449151	-0.4636770306	-1.3301454465	 0.24335
C	 0.0181320594	 0.0136601332	-2.5926339007	-0.409589
C	 2.2152836722	 0.0372185393	-1.3524674006	-0.409647
C	 0.7603448397	-2.0023019559	-1.3027769292	-0.058988
O	 1.4113064397	-2.5105583215	-2.4484222807	-0.23895
C	 1.4459753252	-3.9151056711	-2.4831976586	-0.226231
H	 0.8777553561	 2.0012992606	 0.2164969709	 0.118546
H	-0.6608706023	 1.9868360843	-0.6543519603	 0.118536
H	-0.6296504676	 1.7273659307	 1.0895655699	 0.111582
H	 0.5506730906	-0.4276133158	 0.8227849088	 0.088938
H	-0.9773000671	-0.4424479797	-0.0404511694	 0.088955
H	 0.0542708047	 1.10240141	-2.6917029936	 0.108107
H	 0.4707944536	-0.4234960459	-3.4857335322	 0.128882
H	-1.035886533	-0.2870685822	-2.5679795959	 0.101236
H	 2.7432742404	-0.2453953275	-0.4341192031	 0.101234
H	 2.7533774162	-0.4000432669	-2.1967951323	 0.128867
H	 2.2637134217	 1.1259814237	-1.4458851914	 0.108132
H	 1.2697794585	-2.3607414134	-0.390730441	 0.077224
H	-0.2777655439	-2.3772203908	-1.2628253659	 0.077212
H	 1.9864408104	-4.3333416902	-1.6186795681	 0.102019
H	 0.4334746375	-4.3500218311	-2.4934330407	 0.102019
H	 1.9649488999	-4.2094815971	-3.3989330198	 0.124788
64.8472	86.6143	112.9942	148.25	187.6863	236.9311	241.9448	265.2328	280.745	327.345	332.1101	360.2551	415.1671	420.2279	563.4361	744.433	784.8641	877.0175	933.0589	958.9627	971.1324	995.6359	998.4073	1032.9462	1084.2281	1098.3917	1158.9302	1182.8855	1211.0039	1228.7607	1234.4912	1273.3187	1279.4429	1346.7567	1369.345	1395.3905	1400.4778	1411.7881	1430.0299	1477.1984	1481.0266	1482.8149	1485.4107	1490.8791	1497.0518	1506.561	1507.2855	1508.4937	1514.6421	1526.1484	2936.724	2966.9	2967.2956	3004.6544	3008.1415	3029.6934	3034.5494	3038.303	3041.0873	3095.948	3098.3659	3104.9111	3110.3717	3111.8155	3123.1861	3126.4601
CCC(C)(C)COC	CCC(C)(C)COC	
InChI=1S/C7H16O/c1-5-7(2,3)6-8-4/h5-6H2,1-4H3	InChI=1S/C7H16O/c1-5-7(2,3)6-8-4/h5-6H2,1-4H3
