16
gdb 127674	3.54619	1.12818	0.86058	1.801	76.68	-0.2232	-0.0013	0.222	1284.3414	0.126489	-430.278182	-430.269513	-430.268569	-430.312887	29.873	
C	-0.4096407478	 1.3200186195	 0.0808878052	-0.350526
N	 0.0021287706	-0.0601755804	-0.0428051337	-0.057457
N	 0.370669349	-0.5882139637	-1.2554683132	-0.256698
C	 0.6641502569	-1.8321194637	-0.9379639546	 0.033169
N	 0.5188446061	-2.1609491533	 0.3770657193	-0.351756
C	 0.1021289809	-1.021252212	 0.9026217682	 0.533523
N	-0.1991934417	-0.801738245	 2.2248391385	-0.407786
C	-0.1060825446	-1.7652103965	 3.2120228905	 0.098499
N	-0.405673314	-1.4735906488	 4.4122958126	-0.479131
H	-0.3543750186	 1.7622956267	-0.9128247035	 0.176974
H	-1.4393970728	 1.3951832196	 0.4472376318	 0.145519
H	 0.2545585788	 1.8730459187	 0.7541330129	 0.145517
H	 0.998612988	-2.5406297332	-1.6810946447	 0.127604
H	-0.5108603997	 0.1095275577	 2.5260703351	 0.262853
H	 0.2357324228	-2.72562491	 2.8207790693	 0.147008
H	-0.285186294	-2.2860110755	 5.0128649565	 0.232687
41.0121	85.4504	113.4974	143.3141	189.0056	296.3095	314.5032	453.5097	518.3296	535.2193	663.623	694.2437	745.5711	815.0301	887.7514	903.9625	991.1937	1010.191	1076.6814	1101.5316	1150.8121	1178.2118	1236.9028	1296.0371	1304.8321	1318.6206	1385.0811	1409.2521	1449.0883	1470.0086	1488.3644	1507.4951	1576.2345	1624.6077	1734.7647	3030.9085	3088.671	3121.495	3167.7678	3258.7876	3519.0119	3625.5694
CN1N=CN=C1NC=N	Cn1ncnc1NC=N	
InChI=1S/C4H7N5/c1-9-4(6-2-5)7-3-8-9/h2-3H,1H3,(H2,5,6,7,8)	InChI=1S/C4H7N5/c1-9-4(6-2-5)7-3-8-9/h2-3H,1H3,(H2,5,6,7,8)
