23
gdb 94537	2.28756	1.42672	1.14496	2.4796	81.41	-0.2432	0.0552	0.2984	1211.028	0.203207	-425.41072	-425.40026	-425.399316	-425.445458	39.307	
C	-0.0430608693	 1.5842046759	-0.0352967463	-0.42952
C	 0.0344376528	 0.0476363119	 0.0278499397	 0.252386
C	 0.7617715062	-0.4089086108	 1.30576102	-0.420901
C	-1.39847167	-0.5231205479	 0.0121213014	-0.41008
C	 0.7606350162	-0.5465271071	-1.1923922268	 0.120007
O	 0.2168849732	-0.090915531	-2.4605941114	-0.297157
C	 1.4756473184	 0.4763934109	-2.870155113	-0.100781
C	 2.183502212	-0.0897612071	-1.6211804601	 0.030898
O	 2.83676086	 0.8125361223	-0.7577677141	-0.412805
H	 0.9477915004	 2.0385942469	 0.0116155735	 0.130529
H	-0.530145553	 1.9027167587	-0.9616228666	 0.119282
H	-0.6369028874	 1.9630958165	 0.8035670415	 0.099912
H	 0.2182116514	-0.068022375	 2.1935453634	 0.107244
H	 0.8227116089	-1.5025669907	 1.3585358711	 0.100839
H	 1.7763902383	-0.0063583042	 1.347802585	 0.132033
H	-1.9096071214	-0.2635893221	-0.9196437139	 0.129631
H	-1.3946871201	-1.6150639864	 0.1049154388	 0.102179
H	-1.9806608727	-0.118521715	 0.846803999	 0.105107
H	 0.6863972277	-1.6416246232	-1.1283849443	 0.070241
H	 1.8028646276	 0.093799794	-3.844487356	 0.097136
H	 1.4508749252	 1.5736135623	-2.8927186841	 0.102487
H	 2.8329135905	-0.9442485146	-1.8471210793	 0.080952
H	 3.7322885051	 0.9491580957	-1.0812556276	 0.290379
80.5462	106.6236	182.6101	204.8529	210.07	241.0184	248.4779	277.4237	282.9243	324.5911	375.031	386.2709	425.6316	503.4968	570.5628	723.677	772.3796	844.9991	903.8628	935.8276	943.2807	963.6078	973.296	1023.707	1033.516	1041.2623	1063.0057	1080.7206	1154.7304	1174.7334	1203.3376	1235.276	1243.9918	1285.7022	1292.7653	1314.3477	1346.5626	1379.4863	1392.2549	1394.637	1426.7623	1442.8981	1478.1132	1492.4402	1495.0915	1503.3157	1507.9719	1513.8909	1530.2224	2991.04	3010.3207	3023.339	3024.6656	3029.0909	3040.0639	3062.6256	3085.2546	3093.5022	3101.9598	3111.7739	3125.4847	3141.3458	3825.4723
CC(C)(C)C1OCC1O	CC(C)(C)[C@H]1OC[C@H]1O	
InChI=1S/C7H14O2/c1-7(2,3)6-5(8)4-9-6/h5-6,8H,4H2,1-3H3	InChI=1S/C7H14O2/c1-7(2,3)6-5(8)4-9-6/h5-6,8H,4H2,1-3H3/t5-,6+/m1/s1
