19
gdb 70261	3.69707	1.10841	0.97508	4.105	79.73	-0.2309	0.0221	0.253	1243.8496	0.161066	-382.073895	-382.065625	-382.064681	-382.106575	32.111	
C	-0.6589725445	 1.5107009114	 0.2505616866	-0.48088
C	-0.0605193945	 0.1341416104	 0.0916541409	 0.328477
C	-0.757438855	-1.0807653116	 0.6813503985	-0.335376
C	 0.5754582157	-0.6452806639	 1.2268030354	-0.030291
N	 1.748811314	-1.3829089271	 0.7793079964	-0.309477
C	 1.6707733812	-1.3775900424	-0.7017868421	-0.117933
C	 0.8157854833	-0.1379832831	-1.1237591445	-0.293603
C	 2.9997636335	-1.3936281955	-1.3082694081	 0.261971
N	 4.0505259889	-1.3846875627	-1.7890749187	-0.317714
H	 0.1112567648	 2.2885290037	 0.1886248159	 0.118602
H	-1.4036328192	 1.7190565733	-0.5266655531	 0.122478
H	-1.1600653576	 1.6123067242	 1.2184693164	 0.118551
H	-1.6247689943	-0.8878601483	 1.3038035009	 0.114877
H	-0.8276813366	-2.0033653269	 0.1139161459	 0.11629
H	 0.6413489274	-0.2622799421	 2.2386973551	 0.097413
H	 2.5781066133	-0.8689202784	 1.0638232131	 0.234686
H	 1.1582861848	-2.291359256	-1.0225011714	 0.13637
H	 0.2594945484	-0.3404719517	-2.0437136315	 0.117484
H	 1.4638996563	 0.7259747368	-1.3082400157	 0.118076
93.1694	152.357	210.8166	224.49	286.0915	321.667	361.6849	427.259	515.6921	545.4929	576.0139	633.9032	721.0665	793.2576	843.8031	859.3993	910.6583	928.5827	970.9895	992.6077	1013.0105	1035.88	1053.5365	1073.5992	1106.9662	1129.1648	1152.8264	1201.9781	1240.9312	1293.095	1304.0365	1319.3249	1359.8822	1402.7179	1420.7022	1468.7257	1488.983	1492.3796	1498.5262	1509.0169	2362.0002	3021.2408	3040.3043	3045.9612	3079.8415	3094.1125	3097.8557	3128.9151	3179.3151	3211.0342	3504.7547
CC12CC1NC(C2)C#N	C[C@]12C[C@H]1N[C@@H](C2)C#N	
InChI=1S/C7H10N2/c1-7-2-5(4-8)9-6(7)3-7/h5-6,9H,2-3H2,1H3	InChI=1S/C7H10N2/c1-7-2-5(4-8)9-6(7)3-7/h5-6,9H,2-3H2,1H3/t5-,6+,7-/m0/s1
