17
gdb 47947	2.29758	1.8085	1.25136	3.4499	64.28	-0.2777	0.0185	0.2962	1014.4144	0.137677	-496.130063	-496.12242	-496.121476	-496.162471	28.859	
O	 0.1888643527	 0.037984886	 0.4518968437	-0.362597
C	 0.0359117086	 1.1731075654	 0.1115185555	 0.483989
O	-1.1769249218	 1.719205211	-0.0609984946	-0.24487
C	-1.2795714467	 2.9509328087	-0.8057472314	-0.075121
C	-1.1941642446	 2.7207902413	-2.3171542732	-0.214402
C	 0.0230748819	 1.9305619932	-2.8197851023	-0.090575
O	 1.2740695457	 2.4693227784	-2.3920035445	-0.226035
C	 1.8313875761	 1.8378158906	-1.2879690565	-0.012969
O	 1.0590821283	 2.0583500277	-0.1041578318	-0.25909
H	-2.2605179922	 3.3504936511	-0.5412297016	 0.124256
H	-0.5091096315	 3.6459767734	-0.4732649562	 0.141668
H	-2.0883012019	 2.1866530819	-2.6608471107	 0.118137
H	-1.2068880225	 3.7083276221	-2.7936540539	 0.118903
H	-0.0516566104	 0.8748524885	-2.5234845736	 0.124792
H	 0.0286293196	 1.9569321474	-3.9139769183	 0.118655
H	 1.9315770543	 0.7531648968	-1.4358745778	 0.122586
H	 2.8006901945	 2.3035566265	-1.1103306127	 0.132671
91.3861	127.4238	198.5649	260.7671	345.2201	375.9691	410.2857	505.6728	572.5658	609.5378	627.6353	773.8478	802.1666	836.9665	859.3723	926.8649	981.7937	1026.6557	1058.7698	1095.2635	1106.2177	1134.1144	1184.3577	1219.5108	1268.7221	1288.542	1312.696	1332.33	1390.6507	1402.887	1418.3112	1439.3176	1466.6764	1498.4234	1504.6172	1515.4114	1868.5114	3008.8504	3014.0475	3034.5591	3074.6856	3082.4493	3091.2126	3141.327	3148.1956
O=C1OCCCOCO1	O=C1OCCCOCO1	
InChI=1S/C5H8O4/c6-5-8-3-1-2-7-4-9-5/h1-4H2	InChI=1S/C5H8O4/c6-5-8-3-1-2-7-4-9-5/h1-4H2
