21
gdb 122610	3.74862	0.71508	0.62821	3.2904	80.09	-0.2373	-0.0176	0.2197	1782.2149	0.180792	-424.232596	-424.222527	-424.221583	-424.268844	35.788	
O	-0.2436164254	 1.5966697136	 0.0179552752	-0.420377
C	-0.0408807271	 0.1957454483	-0.085605208	-0.075221
C	-1.3932764015	-0.4868696021	 0.0687465814	-0.170855
C	-1.3067451884	-2.0103846597	-0.0799788929	-0.217972
C	-2.6539073783	-2.701216542	 0.1161281279	-0.08247
C	-2.75356815	-4.2611183503	 0.069830035	-0.262149
C	-3.6186166679	-4.2599685092	 1.3662971933	-0.331438
C	-3.2282185769	-2.7837621657	 1.5449072837	 0.392568
O	-3.2396270767	-2.0279899744	 2.4742718707	-0.296381
H	 0.612244105	 2.0301418751	-0.0452764457	 0.28462
H	 0.4031821176	-0.0712443344	-1.0598097003	 0.07847
H	 0.6488166521	-0.1668568677	 0.6944663903	 0.084795
H	-1.812829561	-0.2341283732	 1.0475237714	 0.137777
H	-2.075868712	-0.075138309	-0.6852936974	 0.10134
H	-0.9152027123	-2.2700335884	-1.0729042635	 0.098215
H	-0.5902099175	-2.4143380932	 0.6483026757	 0.097602
H	-3.407709247	-2.2504426227	-0.5436675355	 0.100852
H	-3.215735033	-4.6876178412	-0.8211566495	 0.108112
H	-1.7806801346	-4.7346689439	 0.2244601264	 0.112166
H	-4.6907974976	-4.370237774	 1.1729956387	 0.131966
H	-3.3421922775	-4.9345878761	 2.1800996227	 0.12838
54.3215	72.9068	81.7935	124.7977	148.658	206.9033	261.6007	294.5335	316.3935	438.3388	483.8887	542.8135	686.5149	734.2475	756.1441	770.4336	862.3871	917.5713	931.0696	980.6452	999.9861	1037.014	1048.7661	1068.1409	1093.2122	1108.0701	1158.619	1194.2383	1204.5704	1226.9021	1236.4259	1251.4328	1262.009	1293.7183	1310.459	1320.728	1347.4913	1388.304	1441.2248	1464.7957	1487.3597	1493.8784	1504.6988	1529.4025	1881.1962	2951.7605	2978.3742	3006.807	3020.6689	3033.7708	3045.4393	3057.6437	3071.6416	3097.2494	3113.1399	3132.5565	3831.0741
OCCCC1CCC1=O	OCCC[C@H]1CCC1=O	
InChI=1S/C7H12O2/c8-5-1-2-6-3-4-7(6)9/h6,8H,1-5H2	InChI=1S/C7H12O2/c8-5-1-2-6-3-4-7(6)9/h6,8H,1-5H2/t6-/m0/s1
