16
gdb 14379	3.96617	2.34357	1.98358	1.0449	63.82	-0.2473	0.0544	0.3017	721.3735	0.132299	-383.64599	-383.640243	-383.639299	-383.675471	24.061	
C	 0.0220179248	 1.5210473437	 0.1329745967	-0.209599
O	 1.4609608308	 1.4351315352	-0.1611610174	-0.312562
C	 1.2055884328	 0.1464953736	-0.8328119703	 0.142451
C	 1.8117322765	-1.2710439743	-0.6955614771	-0.311569
C	 0.5691384491	-1.8566632814	 0.0849436031	 0.061079
C	 0.4873475528	-0.862374658	 1.2465061324	-0.247902
C	 0.0116470312	-0.0142427093	 0.0574486693	 0.377609
O	-0.6494949589	-1.2040562551	-0.4835522554	-0.369128
H	-0.1720796843	 1.9922952305	 1.0997519361	 0.118293
H	-0.5179083855	 2.0357389847	-0.6709689096	 0.116781
H	 0.9392294054	 0.3588885607	-1.8739560998	 0.087038
H	 1.9870195658	-1.7304646633	-1.6698322329	 0.112973
H	 2.7188101359	-1.3578348128	-0.0936615485	 0.123415
H	 0.4586871141	-2.9355607843	 0.1812834718	 0.089827
H	-0.3398105919	-1.0774783511	 1.9239992903	 0.111336
H	 1.3961870814	-0.5747350589	 1.7781529312	 0.109959
237.7988	307.3681	380.3127	415.3202	546.572	572.9981	657.218	719.6925	769.6049	801.8562	825.8686	892.8476	899.8703	914.181	964.3286	997.6473	999.6304	1054.0654	1066.3044	1095.5114	1126.9395	1150.4609	1171.1855	1206.5236	1220.9317	1244.4636	1271.8719	1286.2197	1316.4425	1325.3262	1394.7909	1474.1851	1496.8305	1506.308	3030.0202	3041.4815	3076.8333	3081.5204	3106.8482	3133.0568	3140.8175	3150.4394
C1OC2CC3CC12O3	C1O[C@H]2C[C@H]3C[C@@]12O3	
InChI=1S/C6H8O2/c1-4-2-6(8-4)3-7-5(1)6/h4-5H,1-3H2	InChI=1S/C6H8O2/c1-4-2-6(8-4)3-7-5(1)6/h4-5H,1-3H2/t4-,5-,6+/m0/s1
