20
gdb 36908	4.97483	0.8929	0.85918	1.5673	79.45	-0.2337	0.0785	0.3122	1411.8712	0.171094	-403.069834	-403.061583	-403.060639	-403.103548	31.519	
C	-0.1428668796	 0.9355040867	-0.5246425091	-0.286612
C	 1.0433602554	 1.2368718999	 0.3714676172	-0.286416
C	 0.4705529079	-0.1410174477	 0.3353931717	 0.138386
O	-0.2041117599	-0.5617729803	 1.4830097009	-0.26392
C	-1.2078047605	-1.5185831588	 1.2267441016	 0.128544
C	-0.8116090092	-3.0099911834	 1.0150677542	-0.203567
N	-1.6662080422	-3.4484222613	 2.1759288494	-0.129205
C	-1.0887469084	-2.773656712	 3.3491120363	-0.230704
C	-1.9585148787	-1.9768943757	 2.4621058744	-0.06614
H	-1.1046433102	 1.3258974334	-0.2109696172	 0.12047
H	 0.0060661965	 0.8963846219	-1.5980833938	 0.113833
H	 2.0139674718	 1.4072445956	-0.0802086601	 0.114644
H	 0.8489128961	 1.8139984747	 1.26810792	 0.127225
H	 1.0431073718	-0.9236917633	-0.1630118623	 0.086404
H	-1.8759078734	-1.1626049101	 0.4328816924	 0.080148
H	-1.1817073609	-3.4436570542	 0.0841564265	 0.111204
H	 0.2501953403	-3.2484629227	 1.1369691428	 0.106874
H	-1.5202218978	-3.1110523259	 4.2863249193	 0.121206
H	-0.0202042051	-2.5748816601	 3.3784554438	 0.122834
H	-2.944222264	-1.6363340066	 2.7605836819	 0.094795
60.4628	75.4194	119.3472	193.2319	321.8587	368.2902	450.976	481.8343	536.9423	717.2575	757.4109	760.9642	791.1788	819.0388	832.6933	878.8481	953.6753	973.5112	980.8489	1001.3447	1012.9843	1050.0112	1062.8908	1070.9262	1073.8364	1110.5778	1116.9911	1130.1631	1150.3296	1193.2769	1195.7174	1205.3074	1225.7923	1242.0922	1272.5464	1302.4737	1366.0227	1378.3969	1418.1169	1453.2884	1484.2689	1497.3451	1506.4147	3027.9563	3047.7034	3096.0225	3111.8406	3117.032	3135.5812	3142.3321	3168.8989	3204.182	3220.0084	3234.9748
C1CC1OC1CN2CC12	C1CC1O[C@H]1CN2C[C@@H]12	
InChI=1S/C7H11NO/c1-2-5(1)9-7-4-8-3-6(7)8/h5-7H,1-4H2	InChI=1S/C7H11NO/c1-2-5(1)9-7-4-8-3-6(7)8/h5-7H,1-4H2/t6-,7-,8?/m0/s1
