13
gdb 129988	3.22832	1.50665	1.02724	1.8734	66.53	-0.2309	-0.0584	0.1725	1053.4737	0.090447	-486.066788	-486.059305	-486.058361	-486.098735	28.563	
N	 0.0123344656	 1.264607548	-0.111778929	-0.536774
C	-0.0205028098	-0.0679800535	-0.0529745201	 0.379818
N	-1.1369300946	-0.7344731007	-0.0264467964	-0.369603
C	-0.9939201388	-2.0888685022	 0.0341621344	 0.473189
O	-2.1649506909	-2.7466157723	 0.0587053298	-0.390081
N	 0.0787742916	-2.8167188291	 0.0689664839	-0.247972
O	 1.2964879811	-2.076026982	 0.0394113865	-0.2703
C	 1.3076702811	-0.7321204686	-0.0199911448	 0.392576
N	 2.3688378453	-0.0307266226	-0.0482067296	-0.55252
H	 0.9156283337	 1.7124745119	-0.1292571169	 0.293547
H	-0.8458730207	 1.7884908698	-0.1374207705	 0.27854
H	-1.9583050973	-3.6910149206	 0.1006896754	 0.312221
H	 3.2054109238	-0.6140303181	-0.0201795427	 0.23736
90.4326	179.7402	303.7559	330.0919	336.2361	377.9771	446.7268	503.0549	526.1659	533.6521	588.974	644.0371	699.8933	730.5577	803.6799	815.7788	864.8754	928.7508	1011.9265	1103.9184	1176.9888	1261.9047	1313.9264	1427.4681	1490.5365	1584.927	1631.1455	1685.2708	1723.6105	3492.223	3586.8038	3732.9034	3773.6666
NC1=NC(O)=NOC1=N	NC1=C(ON=C([N]1)O)[NH]	
InChI=1S/C3H4N4O2/c4-1-2(5)9-7-3(8)6-1/h5H,(H3,4,6,7,8)	InChI=1S/C3H4N4O2/c4-1-2(5)9-7-3(8)6-1/h5H,(H3,4,6,7,8)
