18
gdb 82679	2.85915	1.5654	1.21898	1.0119	83.31	-0.2242	0.0347	0.2589	1060.0335	0.147233	-364.704978	-364.697052	-364.696108	-364.737065	31.522	
C	-0.0631533545	 1.6050268051	-0.0843214015	-0.430451
C	 0.0899277023	 0.0996172033	 0.028370255	-0.003736
N	 1.0943094185	-0.6195856226	-0.8641907667	-0.194168
C	 2.4197713386	-0.0017308284	-0.4572071685	-0.188101
C	 2.2651034801	-0.64479092	 0.9076004036	-0.136492
C	 1.3010506617	-1.6105627937	 0.2998311309	-0.08007
C	 0.7444104725	-0.5669519722	 1.2428140431	 0.227577
C	 0.2445565334	-0.7163983255	 2.5638077716	 0.10012
C	-0.2098298961	-0.8218152768	 3.6739972558	-0.379826
H	 0.8241602968	 2.1504900206	 0.2449990091	 0.121684
H	-0.2810316035	 1.8855803047	-1.1204458765	 0.129701
H	-0.9009252915	 1.9341440356	 0.5386466083	 0.129135
H	-0.8743970042	-0.3820377765	-0.1622841015	 0.090278
H	 3.2139182812	-0.4744809796	-1.0412964622	 0.115349
H	 2.4892663197	 1.0841488233	-0.5608025938	 0.104022
H	 2.9839190119	-0.8179187347	 1.6983951169	 0.102757
H	 1.2067152374	-2.6858107835	 0.2535184448	 0.110856
H	-0.6060119743	-0.9179572492	 4.6541689918	 0.181366
125.2754	152.5044	175.796	235.96	310.0673	432.9304	489.9197	506.742	554.501	575.0494	597.4702	653.1763	686.7071	765.9482	795.4989	843.4397	860.1565	905.104	937.6758	939.8508	975.6002	1007.2415	1088.104	1096.4386	1118.9058	1127.8526	1140.0213	1173.6018	1209.2399	1229.0583	1264.8152	1301.9904	1371.3904	1400.0681	1418.124	1487.1262	1494.9866	1525.206	2229.8515	3040.0283	3054.6927	3060.0425	3106.7941	3108.5163	3125.7489	3198.6699	3226.7069	3503.1597
CC1N2CC3C2C13C#C	C[C@H]1N2C[C@@H]3[C@H]2[C@]13C#C	
InChI=1S/C8H9N/c1-3-8-5(2)9-4-6(8)7(8)9/h1,5-7H,4H2,2H3	InChI=1S/C8H9N/c1-3-8-5(2)9-4-6(8)7(8)9/h1,5-7H,4H2,2H3/t5-,6-,7+,8-/m1/s1
