15
gdb 57744	8.16155	0.46021	0.44371	1.3091	110.89	-0.2377	-0.0556	0.1821	2346.6752	0.109363	-383.416012	-383.406111	-383.405167	-383.451429	35.048	
C	-0.0737614903	 1.5567386295	-0.0433986551	-0.389034
C	-0.0358709446	 0.0209457576	-0.0226266195	-0.064814
O	 0.529327925	-0.51381521	-1.2147507968	-0.405394
C	 0.648972962	-0.4810919514	 1.1715217036	 0.300939
C	 1.2502879213	-0.8843042433	 2.1457221092	-0.490894
C	 1.9192074718	-1.3327426338	 3.2306878512	 0.580406
C	 2.5240454915	-1.7349883282	 4.208988769	-0.009481
C	 3.1953158437	-2.1822542808	 5.2949818036	 0.176556
C	 3.7960520618	-2.5816199271	 6.2660213538	-0.697573
H	 0.9417595626	 1.9653267492	-0.0462150443	 0.122841
H	-0.5916358944	 1.8897652548	-0.9463548906	 0.132052
H	-0.595521591	 1.946467608	 0.8351117401	 0.13242
H	-1.0661891603	-0.3562069089	-0.0158123979	 0.13
H	 1.4681063319	-0.2943261598	-1.2178971974	 0.28702
H	 4.3221640887	-2.9342853959	 7.118351051	 0.194954
55.4326	60.4407	141.0114	155.9855	243.5876	265.3248	269.7815	309.9118	357.2846	463.6909	469.7273	489.46	521.9018	556.3101	579.8642	621.7049	656.2968	675.9278	836.9604	929.4244	1033.4779	1081.5123	1114.1984	1277.3388	1299.5846	1337.1355	1399.3539	1413.7583	1487.3339	1490.4085	2153.1235	2293.0361	2334.5356	3035.8554	3042.1218	3117.967	3131.0827	3502.1802	3800.741
CC(O)C#CC#CC#C	C[C@@H](O)C#CC#CC#C	
InChI=1S/C8H6O/c1-3-4-5-6-7-8(2)9/h1,8-9H,2H3	InChI=1S/C8H6O/c1-3-4-5-6-7-8(2)9/h1,8-9H,2H3/t8-/m1/s1
