19
gdb 105492	2.08447	1.7309	1.17548	4.3985	71.12	-0.2307	0.0177	0.2484	1102.7385	0.160744	-456.342332	-456.333626	-456.332682	-456.37556	32.817	
C	 0.6639072911	-0.6121237537	 1.5962452375	-0.335211
N	 0.1609640008	-0.0622751281	 0.3313104715	-0.343555
C	-1.0871162622	-0.6376520371	-0.0977208295	 0.146608
C	-1.4102534687	-0.5780427585	-1.6280454016	-0.216051
N	-1.9740628256	-1.9483374677	-1.4987912105	-0.346697
H	-3.3428639854	-1.3113378372	-0.3701304756	 0.313711
H	-1.8384960992	-2.574963256	-2.284665476	 0.235075
C	-1.1215656727	-2.1818304009	-0.3035837084	-0.209425
C	-2.3116722717	-0.1364740045	 0.7056288388	 0.406792
O	-2.2201055267	 0.7161726741	 1.5507687428	-0.349949
O	-3.4911139971	-0.6891933991	 0.3804339427	-0.38318
H	 1.583269589	-0.0848257451	 1.8642984384	 0.122834
H	-0.0433335074	-0.5245445133	 2.4325648465	 0.127368
H	 0.920814434	-1.6684295794	 1.4633109368	 0.117763
H	 0.0031334058	 0.9321200172	 0.4736281364	 0.23042
H	-2.1157738182	 0.175084136	-1.9899418613	 0.121529
H	-0.4738900422	-0.5278144725	-2.1952550038	 0.118425
H	-0.116473564	-2.5495140998	-0.5435135574	 0.119856
H	-1.5749843697	-2.8068175746	 0.4703557925	 0.123685
106.9757	115.1291	195.5173	226.3708	247.1717	250.8819	298.9526	376.4615	443.5119	466.1385	554.6219	672.2393	737.6376	751.9022	814.1672	844.5097	895.9288	946.8718	973.3993	993.1848	1008.1538	1042.359	1065.3617	1119.8106	1138.2846	1173.5553	1192.2442	1211.5764	1248.0725	1263.7515	1286.5741	1356.3983	1369.063	1453.0651	1456.2896	1489.5247	1497.9963	1501.8519	1527.6315	1530.6512	1847.3505	3007.571	3026.9991	3034.9774	3076.3248	3096.7161	3098.4142	3110.6195	3382.8432	3503.8433	3529.0825
CNC1(C[NH2+]C1)C([O-])=O	CNC1(CNC1)C(=O)O	
InChI=1S/C5H10N2O2/c1-6-5(4(8)9)2-7-3-5/h6-7H,2-3H2,1H3,(H,8,9)	InChI=1S/C5H10N2O2/c1-6-5(4(8)9)2-7-3-5/h6-7H,2-3H2,1H3,(H,8,9)
