17
gdb 62014	3.60035	0.76951	0.68374	2.9334	66.42	-0.2793	-0.0459	0.2334	1612.3317	0.132007	-496.140806	-496.130677	-496.129733	-496.177896	34.1	
C	-1.144006158	 0.9799260112	-0.1445605756	-0.480591
C	-0.0327285881	-0.0350784172	-0.045834942	 0.434581
O	 0.7637433794	-0.1313197998	 0.8498610411	-0.336749
O	-0.0365972365	-0.8565420277	-1.1257437194	-0.251545
C	 0.9838150056	-1.8654071494	-1.1414154063	-0.097587
C	 0.8469898558	-2.6268408781	-2.4669552243	 0.026848
O	 1.9179203554	-3.5147813692	-2.6032053233	-0.431533
C	-0.4749484381	-3.3696243691	-2.5418258402	 0.139626
O	-0.510638798	-4.5636553743	-2.7198156771	-0.258757
H	-1.1182568638	 1.6301442703	 0.7287186109	 0.15407
H	-1.0308231211	 1.5733448073	-1.0562004794	 0.152759
H	-2.1115672849	 0.473375462	-0.2038393642	 0.151105
H	 1.974702064	-1.408780683	-1.0813249229	 0.145047
H	 0.8690331688	-2.5366208631	-0.2847013816	 0.133405
H	 0.8396666246	-1.8805213847	-3.2812264669	 0.105875
H	 1.5164163437	-4.3904043963	-2.7254328769	 0.298736
H	-1.3922867389	-2.7633801088	-2.4239423118	 0.114709
33.748	56.1161	73.2758	118.2691	130.7773	200.5955	247.2458	317.9212	329.1341	419.7363	453.8521	503.3533	604.1207	644.2717	730.2658	834.5868	901.3598	914.7544	986.0067	1063.1237	1066.5679	1074.3244	1121.6675	1166.373	1222.8045	1255.9424	1290.288	1317.8774	1381.8316	1390.3823	1403.3543	1446.2857	1469.1271	1476.2325	1511.4813	1811.7992	1835.6344	2954.3803	2973.4725	3057.8267	3061.8316	3116.4922	3122.5173	3171.7731	3681.7579
CC(=O)OCC(O)C=O	CC(=O)OC[C@@H](O)C=O	
InChI=1S/C5H8O4/c1-4(7)9-3-5(8)2-6/h2,5,8H,3H2,1H3	InChI=1S/C5H8O4/c1-4(7)9-3-5(8)2-6/h2,5,8H,3H2,1H3/t5-/m0/s1
