18
gdb 111267	3.03479	1.23989	0.97854	3.2819	73.77	-0.2214	-0.0279	0.1935	1245.7671	0.145403	-439.05011	-439.040842	-439.039898	-439.084378	33.35	
C	-0.7385056658	 1.1047225349	 0.1457094452	-0.319114
N	 0.4885079636	 0.3578950645	-0.1104736297	-0.275643
C	 1.0553300589	-0.2730326102	 1.0462683527	-0.119786
C	 0.4538518726	-1.5919472108	 1.6071314962	-0.066872
O	 0.5610427333	-2.5297051822	 0.5344236833	-0.283874
C	 1.7111289331	-2.3612841484	 1.4114002981	 0.281141
C	 2.2985444629	-3.5588983735	 2.0765508208	-0.5132
C	 2.3788247514	-1.1021586347	 0.8593600279	 0.365068
O	 3.4956262492	-0.8212594428	 0.5454705309	-0.295828
H	-0.5227299584	 1.9320999911	 0.8310554875	 0.124607
H	-1.1009458961	 1.5356820754	-0.7917431002	 0.126337
H	-1.5557395002	 0.5080297323	 0.5859927542	 0.099824
H	 0.3330375376	-0.34613253	-0.8248199238	 0.231508
H	 1.2211127891	 0.4738724872	 1.8341536002	 0.103369
H	-0.3136085353	-1.7619335804	 2.3536152304	 0.115733
H	 1.5105225969	-4.2030708723	 2.4748251132	 0.139153
H	 2.8933071257	-4.139217727	 1.3641379984	 0.148552
H	 2.9581553316	-3.2553881031	 2.8951342746	 0.139025
82.0121	99.4903	150.2649	164.2164	193.391	231.7755	274.3652	319.2407	326.6748	513.0166	581.5176	634.8008	678.5797	755.7903	778.3168	818.4283	843.5661	906.4965	961.9965	984.711	1030.2916	1050.4892	1089.9067	1130.9559	1157.1797	1178.39	1220.9158	1236.7684	1261.815	1336.4665	1398.0973	1447.3307	1457.1201	1478.39	1488.2853	1489.2337	1499.8843	1521.8972	1900.0319	2956.9303	3033.9793	3043.758	3059.2015	3107.923	3110.6607	3126.5647	3187.5493	3526.0306
CNC1C2OC2(C)C1=O	CN[C@H]1[C@H]2O[C@@]2(C)C1=O	
InChI=1S/C6H9NO2/c1-6-4(8)3(7-2)5(6)9-6/h3,5,7H,1-2H3	InChI=1S/C6H9NO2/c1-6-4(8)3(7-2)5(6)9-6/h3,5,7H,1-2H3/t3-,5-,6+/m1/s1
