16
gdb 34749	3.00947	1.67742	1.48596	4.8586	71.02	-0.2581	0.0234	0.2815	918.1362	0.126876	-400.731606	-400.724909	-400.723965	-400.76276	26.466	
N	-0.1821062962	-1.19670123	-0.2289839413	-0.337573
C	-0.1001724746	-0.0494024672	-0.1105976236	 0.290427
C	-0.0025106642	 1.3954582221	 0.0511620877	-0.197867
C	-0.2340187528	 2.0343053038	 1.4271625097	-0.084631
C	 1.0061898146	 1.9193849806	 2.2982590579	-0.069199
C	 2.0771314218	 0.9011042271	 1.927540324	-0.116905
O	 2.4230353691	 1.2037928889	 0.5640778407	-0.247061
C	 1.4344770528	 2.0681521653	 0.0649033712	 0.079825
C	 0.9528965891	 2.9667865858	 1.2296536551	-0.104283
H	-0.6300602034	 1.8832540424	-0.7006942244	 0.125279
H	-1.2064929204	 2.2512558423	 1.8509647581	 0.105223
H	 0.8874635522	 2.2102250654	 3.3349072063	 0.105075
H	 2.9736970481	 1.015252396	 2.5466312165	 0.114021
H	 1.7289801704	-0.1351441056	 2.0000047119	 0.131522
H	 1.7755020037	 2.5017067937	-0.872941135	 0.101932
H	 1.0546798599	 4.0354297095	 1.3509057451	 0.104214
124.6865	145.9701	251.3962	377.7049	401.0977	538.2825	594.5933	671.8198	715.4341	772.0256	808.0438	813.2597	831.7905	897.3238	927.6098	967.6987	978.6149	1002.9156	1042.8336	1047.916	1058.1858	1078.9592	1089.5632	1126.5166	1167.3525	1218.9812	1224.4086	1256.9112	1298.4378	1329.6979	1334.989	1371.9251	1410.9749	1523.3543	2351.1312	3036.565	3070.0408	3076.2907	3145.2989	3189.7516	3197.9844	3223.8624
N#CC1C2C3COC1C23	N#C[C@H]1[C@H]2[C@H]3CO[C@@H]1[C@@H]23	
InChI=1S/C7H7NO/c8-1-3-5-4-2-9-7(3)6(4)5/h3-7H,2H2	InChI=1S/C7H7NO/c8-1-3-5-4-2-9-7(3)6(4)5/h3-7H,2H2/t3-,4+,5-,6+,7-/m0/s1
