21
gdb 106821	2.38983	1.4588	1.08756	0.8871	78.37	-0.249	0.075	0.324	1182.3774	0.182676	-424.221882	-424.212783	-424.211839	-424.25536	35.317	
O	-0.0064086427	 1.2843583901	-0.4883391895	-0.427669
C	-0.0103983426	-0.0158081598	 0.0971716049	-0.17816
C	-1.4205507598	-0.5299961344	 0.094179761	 0.335828
C	-1.9665374339	-1.1418618689	-1.1896043335	-0.394912
C	-1.727026499	-2.0076054312	 0.0216761042	 0.351043
O	-0.6710803251	-2.925408177	 0.0098959502	-0.475516
C	-2.9120964006	-2.2987887609	 0.932253556	-0.268742
C	-3.585878018	-0.9256530288	 1.1469440806	-0.233393
C	-2.4435237168	 0.1115901813	 1.0240477939	-0.263675
H	 0.889039354	 1.6307137088	-0.429983917	 0.283517
H	 0.6354972937	-0.71097671	-0.4577366792	 0.09328
H	 0.3633232959	 0.0236302191	 1.1337305445	 0.081319
H	-2.9772369456	-0.915014076	-1.5139884061	 0.105292
H	-1.2483657089	-1.245778521	-1.9961036929	 0.111109
H	-0.9068660397	-3.6427817335	-0.5877956264	 0.282012
H	-3.6012650705	-3.0459286132	 0.5215538388	 0.087799
H	-2.5179509476	-2.6988702656	 1.8740187051	 0.105418
H	-4.3398713244	-0.7508514008	 0.3728847471	 0.104727
H	-4.1045343619	-0.8620878344	 2.1069118747	 0.098696
H	-1.971399506	 0.2808888902	 2.000558689	 0.093915
H	-2.7950958605	 1.0833706758	 0.6652507444	 0.108111
77.3847	139.9582	201.1894	228.745	263.7916	271.3315	302.0424	344.6152	379.5069	455.4787	496.3344	575.0125	613.5628	684.4281	750.1269	821.2023	900.9386	907.9866	910.9297	937.0076	958.2954	983.866	1022.8767	1041.5607	1054.9977	1091.4605	1098.8562	1170.7799	1206.5184	1219.8567	1233.6198	1258.978	1262.6506	1287.8241	1314.2405	1326.9234	1339.1925	1366.2169	1407.7846	1464.5038	1486.1287	1491.259	1495.3855	1516.0144	1523.0647	2963.0853	3016.3371	3024.5479	3029.9071	3050.4751	3069.3885	3082.7775	3100.1961	3125.4897	3212.8047	3801.256	3824.7555
OCC12CC1(O)CCC2	OC[C@@]12C[C@]1(O)CCC2	
InChI=1S/C7H12O2/c8-5-6-2-1-3-7(6,9)4-6/h8-9H,1-5H2	InChI=1S/C7H12O2/c8-5-6-2-1-3-7(6,9)4-6/h8-9H,1-5H2/t6-,7-/m1/s1
