17
gdb 29394	5.21547	0.95242	0.81332	1.4837	76.63	-0.2093	-0.0397	0.1696	1378.374	0.135802	-418.070777	-418.062056	-418.061111	-418.105488	31.051	
C	-0.5926026673	 1.4915699927	-0.5282257605	-0.487941
C	-0.1182389	 0.1287379057	-0.1401308301	 0.275613
C	 0.6314422955	-0.7578129384	-0.8727216009	-0.191761
N	 0.7965186391	-1.8621574823	-0.0682193664	-0.268706
C	 0.1511873122	-1.6066313039	 1.1017701132	 0.355744
C	 0.0901071062	-2.5616641917	 2.2526568891	-0.423936
C	 0.7871814353	-3.8898348176	 2.1056902906	 0.167555
O	 1.4030555528	-4.2737040366	 1.1389736975	-0.257058
N	-0.4112441718	-0.4158815678	 1.0927738764	-0.364171
H	-0.211550574	 2.2540169516	 0.1599470951	 0.12971
H	-0.2628138225	 1.7493969565	-1.53846674	 0.114822
H	-1.686035375	 1.5527933213	-0.5003591177	 0.129706
H	 1.0508245401	-0.7069063812	-1.8638595531	 0.122488
H	 1.2899835243	-2.7215919368	-0.2568763168	 0.278639
H	 0.4935087658	-2.0922066563	 3.1627420334	 0.159998
H	-0.9561701536	-2.7801814495	 2.5148847544	 0.16
H	 0.694178773	-4.5393435056	 3.0026378459	 0.099297
22.4167	107.0346	157.6755	181.8942	187.5386	271.0002	308.3542	395.6448	560.431	608.3532	673.3674	701.6228	715.5015	733.6033	749.9365	803.1378	934.0428	992.2902	1014.7302	1025.5921	1046.2599	1065.4641	1121.7691	1216.7632	1245.1599	1291.7306	1332.4212	1374.1082	1415.7514	1419.4751	1439.7805	1475.0897	1476.5125	1498.0185	1556.4896	1605.9875	1813.5755	2905.2273	3009.9604	3025.2594	3032.403	3085.6093	3113.5513	3271.7718	3628.002
CC1=CNC(CC=O)=N1	Cc1c[nH]c(CC=O)n1	
InChI=1S/C6H8N2O/c1-5-4-7-6(8-5)2-3-9/h3-4H,2H2,1H3,(H,7,8)	InChI=1S/C6H8N2O/c1-5-4-7-6(8-5)2-3-9/h3-4H,2H2,1H3,(H,7,8)
