19
gdb 67645	3.26033	1.76605	1.58006	1.5327	77.59	-0.2202	0.0887	0.3089	931.1972	0.161352	-385.847374	-385.840625	-385.83968	-385.878062	28.431	
C	-0.0055149893	 1.5453932771	 0.0594567789	-0.519305
C	-0.0141326537	 0.0477014088	 0.0000569703	 0.313245
C	 1.0590377183	-0.8519431893	-0.5074727264	 0.047231
O	 0.628997771	-1.7231326732	-1.5251127019	-0.261378
C	-0.7240910563	-2.0325754406	-1.2193373515	 0.079995
C	-0.7917541461	-3.0532531502	-0.0509846288	-0.249975
C	-0.750079669	-1.8433579039	 0.9101452437	-0.037225
C	 0.5793648539	-1.0546320812	 0.9187193434	-0.17977
C	-1.2205551144	-0.8900765243	-0.230633844	-0.136388
H	 0.992190195	 1.9220301796	 0.3089046761	 0.119738
H	-0.2902240338	 1.9789010243	-0.9069980691	 0.123725
H	-0.7018011271	 1.9286193496	 0.8140629771	 0.11878
H	 2.0689966639	-0.4928539296	-0.6666983149	 0.09994
H	-1.2537654087	-2.2470830009	-2.1490303974	 0.074112
H	-1.7644382398	-3.5541116691	-0.0111649834	 0.095044
H	 0.0095023912	-3.7953993531	-0.0139203672	 0.099873
H	-1.2594715908	-1.8795880353	 1.8738840914	 0.066062
H	 1.2577801617	-0.9613958676	 1.7603642179	 0.079388
H	-2.2347890059	-0.5081865611	-0.3179569943	 0.06691
195.5656	205.4933	244.0679	335.9804	420.2213	534.6991	578.615	643.2621	680.2712	715.4573	797.8931	828.5832	839.7085	870.8266	888.5946	902.6744	920.6147	950.2313	971.6295	1000.8044	1023.9146	1046.1785	1060.8506	1093.3177	1106.4507	1116.2784	1144.5906	1178.5347	1192.6233	1220.8446	1232.5497	1267.8213	1281.0183	1284.3173	1320.5804	1354.5586	1413.9666	1460.325	1474.0717	1486.1021	1499.064	3019.4321	3047.9402	3078.1814	3092.305	3095.745	3097.8339	3110.4344	3146.8348	3161.0092	3192.6309
CC12C3OC4CC(C13)C24	C[C@@]12[C@@H]3O[C@H]4C[C@@H]([C@H]13)[C@@H]24	
InChI=1S/C8H10O/c1-8-5-3-2-4(5)9-7(8)6(3)8/h3-7H,2H2,1H3	InChI=1S/C8H10O/c1-8-5-3-2-4(5)9-7(8)6(3)8/h3-7H,2H2,1H3/t3-,4+,5-,6+,7-,8+/m1/s1
