20
gdb 47833	2.51063	1.5235	1.05769	3.2907	82.65	-0.2478	0.0019	0.2497	1166.9758	0.173361	-403.160831	-403.152684	-403.151739	-403.1935	31.971	
N	-0.0201995254	 1.2798846177	 0.4081948955	-0.496448
C	-0.0219623423	 0.079595869	 0.0022165946	 0.386733
C	-1.317427672	-0.7044447705	-0.0713309169	-0.334712
C	-1.3872299345	-1.6886172061	 1.0725381467	-0.046392
C	-0.9090670565	-2.9309725301	 1.0367767661	-0.045323
C	-0.2612269872	-3.5860812163	-0.1599502109	-0.257226
C	 1.1490918083	-3.0626444833	-0.5104928425	-0.189791
C	 1.2258975299	-1.6819166217	-1.1693901276	-0.079509
O	 1.1484941201	-0.568979438	-0.2700753203	-0.245931
H	 0.9386293174	 1.6352930442	 0.4274458459	 0.215895
H	-2.1256482619	 0.0246805033	-0.0077853135	 0.134047
H	-1.4048259291	-1.2214917086	-1.0323956485	 0.109963
H	-1.8073955098	-1.3026450918	 1.9972216298	 0.103128
H	-0.9690316978	-3.5322660996	 1.9409981308	 0.091047
H	-0.1877581703	-4.662817595	 0.0227867294	 0.104017
H	-0.9016821942	-3.4768706251	-1.046327913	 0.107402
H	 1.7855783208	-3.0574826537	 0.3814454943	 0.116507
H	 1.6065755964	-3.7650518676	-1.2195260365	 0.100038
H	 2.2103014231	-1.5735894177	-1.6350875504	 0.118417
H	 0.4810547251	-1.5841791989	-1.968274233	 0.108136
81.1149	159.4924	195.4396	254.1883	276.8259	354.8427	431.3863	458.9959	487.788	553.3749	584.1166	683.5499	715.4781	788.2001	833.7592	884.7219	912.8972	929.8295	945.654	982.4025	1002.71	1023.5767	1033.5023	1087.4172	1115.2009	1132.4433	1198.5661	1222.3079	1266.5414	1282.7106	1305.	1317.1614	1340.2802	1363.1526	1388.6268	1416.7242	1423.0728	1468.4957	1475.7387	1489.2526	1509.4446	1720.2695	1740.0157	3010.6589	3022.3245	3032.8772	3056.006	3070.7833	3076.2659	3085.4729	3128.2588	3147.3673	3174.812	3455.5682
N=C1CC=CCCCO1	[NH][C]1CC=CCCCO1	
InChI=1S/C7H11NO/c8-7-5-3-1-2-4-6-9-7/h1,3,8H,2,4-6H2/b3-1-,8-7?	InChI=1S/C7H11NO/c8-7-5-3-1-2-4-6-9-7/h1,3,8H,2,4-6H2/b3-1-,8-7?
