21
gdb 97587	2.88849	0.73789	0.6103	1.9731	88.38	-0.2462	0.0522	0.2984	1870.7543	0.180169	-387.049676	-387.039069	-387.038124	-387.087254	37.147	
C	 0.2504135674	 1.4765612249	 0.1146285913	-0.363203
C	 0.1077672698	-0.0338140006	-0.1479479376	-0.313555
C	-1.273338116	-0.5008972016	-0.0739090199	 0.063283
C	-2.4215010701	-0.8629908942	-0.0206642555	 0.062571
C	-3.8076422857	-1.3199290398	 0.0812245174	-0.183527
C	-3.9107014383	-2.8589677814	 0.0644395608	-0.390571
C	-4.4555498001	-0.7584265189	 1.3398972278	 0.109192
C	-5.2494095017	 0.472331543	 1.325590186	-0.17859
O	-5.8806733021	-0.8120643251	 1.384328382	-0.240465
H	 1.2998246369	 1.7787750308	 0.0475120255	 0.114069
H	-0.3222831925	 2.0533462063	-0.6166620989	 0.127343
H	-0.1194967478	 1.7341895803	 1.1108092701	 0.126567
H	 0.519533406	-0.2734788402	-1.1368622342	 0.128823
H	 0.7199981033	-0.5898951682	 0.5737305979	 0.127781
H	-4.3793286136	-0.931097557	-0.7722416186	 0.10375
H	-4.9592385855	-3.1598410655	 0.1388727253	 0.132468
H	-3.4896459767	-3.2639274432	-0.8590644313	 0.123028
H	-3.3610421269	-3.2917199303	 0.9059054803	 0.122381
H	-3.9637455415	-1.0461592828	 2.2706508424	 0.097603
H	-5.3351251505	 1.0766166836	 2.2272823734	 0.11595
H	-5.3801385143	 1.0135985598	 0.3894122059	 0.115101
21.0307	54.384	88.2221	125.3597	179.5445	206.9014	234.1682	240.2398	323.9746	351.2551	431.0525	455.0165	512.6104	564.2163	736.5535	786.0378	812.2034	868.8224	922.7747	956.987	969.9324	1025.8307	1079.1335	1089.2947	1104.0613	1107.0437	1144.8878	1157.8012	1174.4416	1194.2756	1286.9019	1289.3747	1291.8701	1325.6548	1351.7169	1400.1377	1408.6646	1439.2549	1475.9751	1494.5491	1495.0159	1497.8042	1505.6586	1530.6287	2362.9548	3015.2721	3019.2367	3043.516	3044.0249	3045.8938	3084.1071	3100.5586	3117.0841	3118.6264	3123.2767	3127.9505	3171.4474
CCC#CC(C)C1CO1	CCC#C[C@@H](C)[C@H]1CO1	
InChI=1S/C8H12O/c1-3-4-5-7(2)8-6-9-8/h7-8H,3,6H2,1-2H3	InChI=1S/C8H12O/c1-3-4-5-7(2)8-6-9-8/h7-8H,3,6H2,1-2H3/t7-,8-/m1/s1
