20
gdb 55813	3.48091	1.08383	1.00025	1.149	80.33	-0.2467	0.0337	0.2804	1288.9701	0.170844	-403.127763	-403.118891	-403.117946	-403.162294	32.933	
C	 0.1682282931	 1.3689887858	-0.2179949163	-0.463431
C	-0.0023384151	-0.122250983	-0.0757942161	 0.39603
N	-0.5220753491	-0.7749001125	 0.8806433295	-0.51992
O	 0.5131649026	-0.7472829062	-1.1601980746	-0.251339
C	 0.4305084203	-2.1598574418	-1.1853105714	 0.169485
C	-0.6882331307	-2.8767532455	-1.8609443025	-0.091916
C	-1.1901236093	-2.0870466005	-3.0749922606	-0.224189
C	 0.2553525382	-2.0801233716	-3.6660709291	-0.221871
C	 0.7532380808	-2.8705824063	-2.448960541	-0.127315
H	-0.2454196643	 1.8944398921	 0.6441097701	 0.125459
H	 1.2292813842	 1.6185395833	-0.3153136392	 0.146641
H	-0.3302031251	 1.7214388962	-1.1261495016	 0.145328
H	-0.8413402364	-0.1405723905	 1.609275043	 0.218261
H	 0.7803456144	-2.6149989213	-0.2654128368	 0.11556
H	-1.2316939055	-3.665935229	-1.3548651276	 0.088634
H	-1.8835333383	-2.662540945	-3.6912181033	 0.102686
H	-1.6401048886	-1.1143089901	-2.8564097086	 0.099223
H	 0.3228756409	-2.6548567388	-4.5918064546	 0.101816
H	 0.7218959887	-1.1037795312	-3.8203693168	 0.104872
H	 1.4956005391	-3.660149084	-2.4780015722	 0.085984
44.8494	82.3594	117.205	142.8987	233.1162	253.5258	377.3189	449.4004	555.3355	578.5694	629.6786	734.7538	754.2558	791.4491	818.3006	855.0773	910.9737	935.5407	957.9833	976.2817	977.7844	1021.5629	1034.1905	1048.929	1067.6006	1078.2118	1102.1387	1132.655	1154.7419	1195.4626	1228.4217	1249.2247	1268.6342	1300.1925	1340.3126	1374.047	1409.4727	1448.0353	1471.4857	1478.0189	1482.3319	1502.2896	1727.3872	3048.269	3056.6211	3066.0097	3104.496	3111.4412	3123.0553	3143.3496	3169.5727	3175.0348	3188.446	3513.5547
CC(=N)OC1C2CCC12	C[C]([NH])O[C@H]1[C@H]2CC[C@@H]12	
InChI=1S/C7H11NO/c1-4(8)9-7-5-2-3-6(5)7/h5-8H,2-3H2,1H3	InChI=1S/C7H11NO/c1-4(8)9-7-5-2-3-6(5)7/h5-8H,2-3H2,1H3/t5-,6+,7-
