19
gdb 97467	2.62272	0.89451	0.69073	4.8304	77.03	-0.239	0.0067	0.2457	1603.936	0.158372	-456.369368	-456.359378	-456.358434	-456.405817	34.367	
C	-0.0428408194	 0.1509318322	 1.0705468781	-0.323427
N	-0.8528980107	-0.9317630309	 0.5410255906	-0.238353
C	-1.1662613945	-0.8846826375	-0.6832086367	 0.150256
O	-1.9252521911	-1.7753810358	-1.3275435031	-0.226156
C	-2.6260360732	-2.7913554245	-0.5779840756	-0.094389
C	-1.7831077859	-4.0177620493	-0.242360851	-0.14451
N	-0.9947870501	-3.8435822562	 0.9625737703	-0.277559
C	-0.7110913716	-4.8799516843	 1.7854962697	 0.150307
O	-1.0316927163	-6.0369228286	 1.5927007074	-0.336286
H	 0.8867870428	-0.2513912071	 1.4880290148	 0.132687
H	 0.2160144796	 0.9124001062	 0.3198624705	 0.109047
H	-0.5769217875	 0.6440916481	 1.8900118025	 0.135031
H	-0.8498965247	-0.0981785981	-1.3775283471	 0.112927
H	-3.0462115988	-2.3453493318	 0.3288193583	 0.131217
H	-3.4365183429	-3.0845282341	-1.2484417287	 0.127807
H	-2.4447379741	-4.8749118688	-0.0813893242	 0.142128
H	-1.154316747	-4.2617595428	-1.1099314215	 0.120587
H	-0.7378631659	-2.891528416	 1.2015814535	 0.260399
H	-0.1425852587	-4.5528070006	 2.6790687822	 0.068286
30.911	73.6685	100.5646	154.1831	193.1509	216.2651	231.5128	272.7434	320.8789	377.3702	403.4887	496.6533	670.6034	681.0101	759.0182	858.1864	889.8444	998.5316	1023.9614	1034.2523	1064.4565	1091.906	1108.3401	1143.3773	1151.7386	1246.3551	1256.522	1265.7324	1325.021	1386.2693	1398.7837	1418.4942	1426.6091	1453.0968	1478.4855	1483.0353	1499.3339	1506.3957	1546.7772	1741.4418	1796.576	2931.7798	2990.8708	3015.1321	3060.4062	3068.6726	3072.5734	3084.9378	3085.6954	3123.8688	3507.9969
CN=COCCNC=O	CN=COCCNC=O	
InChI=1S/C5H10N2O2/c1-6-5-9-3-2-7-4-8/h4-5H,2-3H2,1H3,(H,7,8)	InChI=1S/C5H10N2O2/c1-6-5-9-3-2-7-4-8/h4-5H,2-3H2,1H3,(H,7,8)
