15
gdb 77147	2.69867	1.38372	1.05721	2.667	61.85	-0.2542	-0.001	0.2532	1100.1266	0.112571	-491.125619	-491.116932	-491.115987	-491.159604	31.455	
N	 0.0821034577	 1.1856331881	 0.3657794464	-0.522913
C	 0.0575249527	-0.0674315183	-0.1629610936	 0.396322
O	 0.9838735995	-0.586184604	-0.7557486266	-0.369112
C	-1.2873204359	-0.794922309	-0.059559298	-0.125131
N	-1.1218487887	-2.2450421585	 0.1062944676	-0.309693
C	-1.5577647923	-2.2728326537	 1.4089477892	 0.380079
O	-1.4918985333	-3.0726901271	 2.303142887	-0.353782
C	-2.0699360247	-0.8115406145	 1.3048278355	-0.023536
O	-1.6900058189	 0.0677423346	 2.3330257338	-0.429864
H	 0.974969842	 1.6562368193	 0.3582565575	 0.261345
H	-0.5547392429	 1.3924525292	 1.1231664105	 0.275897
H	-1.8938548404	-0.5167446109	-0.9286269649	 0.119879
H	-0.4229633044	-2.8179507862	-0.3482937032	 0.269474
H	-3.150929576	-0.7401978835	 1.1507272776	 0.121263
H	-1.2103233045	-0.4407445356	 2.9980403813	 0.309772
55.2447	79.9486	165.1417	204.9986	245.9512	284.8617	382.3081	450.0773	484.6355	533.0602	538.8312	605.6075	622.2867	700.5561	736.2352	778.7464	829.3392	936.1128	980.5246	1036.8754	1122.2578	1147.1895	1176.4243	1202.4088	1259.1305	1320.9498	1333.1093	1353.1729	1380.7006	1411.1229	1631.61	1799.6646	1893.816	3048.4452	3069.3393	3547.371	3595.2255	3679.338	3790.2745
NC(=O)C1NC(=O)C1O	NC(=O)[C@H]1NC(=O)[C@H]1O	
InChI=1S/C4H6N2O3/c5-3(8)1-2(7)4(9)6-1/h1-2,7H,(H2,5,8)(H,6,9)	InChI=1S/C4H6N2O3/c5-3(8)1-2(7)4(9)6-1/h1-2,7H,(H2,5,8)(H,6,9)/t1-,2-/m0/s1
