17
gdb 32294	3.06315	1.4393	1.00604	2.4975	84.92	-0.1848	-0.0302	0.1546	1156.547	0.137638	-418.031008	-418.022824	-418.02188	-418.063931	30.924	
C	-0.4392408337	 1.3783706908	-0.0510460698	-0.336827
N	 0.3149803703	 0.1292101978	 0.059629519	-0.360845
C	 0.7633047762	-0.5934678411	-1.0353116049	 0.233287
C	 0.6829924974	-1.9559819426	-1.0828286661	-0.184541
C	 1.2566916834	-2.702338469	-2.1611150608	-0.169394
C	 1.8431085411	-2.0331104348	-3.1639862848	 0.042897
O	 1.917928201	-0.6771291562	-3.1688097791	-0.235256
C	 1.4530676756	 0.1096607325	-2.1294607874	 0.3711
N	 1.6445281251	 1.368290925	-2.1663320996	-0.542359
H	 0.1303212501	 2.092733073	-0.6412932281	 0.185246
H	-1.4279799015	 1.2393508021	-0.5150862242	 0.103417
H	-0.5849954167	 1.7744600362	 0.9574601775	 0.116222
H	-0.0791284859	-0.4870333121	 0.7576734629	 0.231126
H	 0.180645827	-2.4860801291	-0.2790885034	 0.089502
H	 1.2070905052	-3.7828140863	-2.1843180223	 0.107039
H	 2.3060745614	-2.4607048333	-4.0425753628	 0.129782
H	 2.1561112041	 1.620713657	-3.0119557763	 0.219605
86.421	110.3116	156.6857	240.676	284.8686	356.2041	449.4953	469.0013	530.1316	553.3941	574.8248	690.4907	713.5143	759.7345	771.8234	838.8674	875.7366	903.033	906.2778	980.8017	1044.2602	1075.1701	1114.3388	1152.6007	1173.6914	1258.2123	1274.0003	1314.7582	1399.1913	1430.0874	1451.3441	1492.8784	1513.4924	1534.9392	1615.8466	1666.8227	1715.8617	2982.9865	3090.4463	3168.4441	3176.8057	3217.1399	3239.9426	3488.7484	3571.7869
CNC1=CC=COC1=N	CNC1=C(OC=CC1)[NH]	
InChI=1S/C6H8N2O/c1-8-5-3-2-4-9-6(5)7/h2-4,7-8H,1H3	InChI=1S/C6H9N2O/c1-8-5-3-2-4-9-6(5)7/h2,4,7-8H,3H2,1H3
