17
gdb 106904	2.89717	1.29596	1.06192	3.5193	70.43	-0.2508	-0.0029	0.2479	1144.7779	0.13516	-455.084337	-455.075504	-455.07456	-455.118124	32.551	
O	 0.0672394934	 1.4331266887	 0.0951174859	-0.411813
C	 0.0210157584	 0.0214262445	-0.0870876488	-0.192369
C	-1.3959022292	-0.4701551021	-0.0387688156	 0.277454
C	-2.0419706364	-1.0799169851	 1.1371668931	-0.292484
N	-1.7664524286	-1.95992527	-0.0389646639	-0.182099
C	-2.8459017388	-1.6437822716	-0.9608280824	 0.361665
N	-3.7137060283	-2.4372046851	-1.395891646	-0.505196
C	-2.4344312402	-0.1773502624	-1.1297129819	-0.052548
O	-3.4535302581	 0.7628845004	-0.9205331855	-0.424006
H	-0.2360766632	 1.6217418514	 0.9896465925	 0.287711
H	 0.45321237	-0.1626367492	-1.0763451167	 0.121946
H	 0.638977861	-0.51416602	 0.6477174271	 0.106254
H	-1.4145843223	-1.3253421786	 1.9888571173	 0.130909
H	-3.0754932662	-0.8465464363	 1.3769072578	 0.143906
H	-4.3503925174	-1.9511037205	-2.0308269167	 0.235887
H	-1.9321069073	-0.031188146	-2.0978742422	 0.099669
H	-3.0868392467	 1.6405433219	-1.0736420938	 0.295114
72.0761	87.6103	162.6061	223.8419	258.2876	269.892	342.0763	363.8737	392.0951	500.5754	526.8595	659.3733	683.5514	758.7102	809.9652	848.1032	911.5007	922.2929	953.0755	989.6415	1008.8011	1055.2955	1111.8145	1126.9003	1151.2565	1171.628	1181.6034	1255.8709	1288.3498	1320.332	1359.8978	1402.0001	1419.8457	1428.1281	1497.5198	1509.5582	1813.942	2997.0207	3005.833	3076.5893	3118.5266	3209.4571	3464.684	3808.2783	3809.3575
OCC12CN1C(=N)C2O	OC[C@]12CN1[C]([NH])[C@H]2O	
InChI=1S/C5H8N2O2/c6-4-3(9)5(2-8)1-7(4)5/h3,6,8-9H,1-2H2	InChI=1S/C5H8N2O2/c6-4-3(9)5(2-8)1-7(4)5/h3,6,8-9H,1-2H2/t3-,5+,7?/m1/s1
