20
gdb 22589	3.69022	1.01772	0.85254	1.1989	79.77	-0.2444	0.0056	0.25	1376.5315	0.170924	-440.259339	-440.250423	-440.249479	-440.292813	34.154	
C	-0.0397723299	 1.5268670527	 0.0605970052	-0.402853
C	 0.0092460018	 0.0081109643	-0.0147823228	 0.149144
C	 0.6988505118	-0.5141204288	-1.279840877	-0.19982
C	 0.7757323536	-2.0507472796	-1.2540374073	-0.30259
C	 1.2993968488	-2.5346327693	 0.0725117802	 0.375619
C	 0.7282211886	-1.8506822972	 1.294528117	-0.171799
O	 0.7114479159	-0.4405846925	 1.1411158129	-0.258513
N	 2.169577026	-3.4677028205	 0.067531082	-0.195022
O	 2.5423632592	-3.8652043035	 1.3641606417	-0.396825
H	 0.9729920181	 1.9412163355	 0.041664861	 0.125597
H	-0.5993636591	 1.9363277557	-0.7856848821	 0.113546
H	-0.5228790452	 1.8474725686	 0.9872425598	 0.124257
H	-1.0211280555	-0.3930823973	 0.0168394528	 0.058453
H	 0.1582314858	-0.1770872812	-2.1710763011	 0.096653
H	 1.7086482334	-0.0888736262	-1.3234769123	 0.10952
H	-0.2385923516	-2.4546611955	-1.3922093372	 0.110143
H	 1.394023845	-2.4486180624	-2.0622625082	 0.118372
H	-0.2942086914	-2.2297640036	 1.4744387754	 0.098226
H	 1.3316367458	-2.0664762673	 2.1753060903	 0.141086
H	 3.229536119	-4.5146990919	 1.1834156797	 0.306807
67.0057	174.1041	199.8343	221.2769	256.9422	307.3313	319.7543	359.7994	402.7015	463.923	481.3507	508.4184	577.2808	697.8534	780.5381	815.3869	879.809	911.5362	953.2041	966.1148	1007.8718	1019.0856	1073.7178	1122.3536	1132.4504	1158.8418	1217.7037	1230.7907	1269.5048	1286.2977	1331.2326	1349.7914	1368.1074	1386.9765	1397.4635	1411.2542	1420.097	1472.2262	1479.8315	1483.6671	1486.2906	1500.8438	1741.4244	2926.9902	2943.4332	2999.0289	3033.6457	3043.4648	3081.0609	3100.876	3116.6517	3122.7181	3142.4444	3824.5307
CC1CCC(CO1)=NO	C[C@H]1CCC(=NO)CO1	
InChI=1S/C6H11NO2/c1-5-2-3-6(7-8)4-9-5/h5,8H,2-4H2,1H3	InChI=1S/C6H11NO2/c1-5-2-3-6(7-8)4-9-5/h5,8H,2-4H2,1H3/t5-/m0/s1
