19
gdb 124787	3.53809	1.093	0.8855	4.0751	79.29	-0.2347	0.0165	0.2513	1340.332	0.159181	-419.233001	-419.22344	-419.222496	-419.269015	33.915	
C	 0.3111378731	 1.2648683431	-0.420452552	-0.381938
C	-0.0481113672	-0.0229516714	 0.32788001	 0.055704
O	 0.1960999487	 0.1611001127	 1.7100552015	-0.446726
C	-1.475209648	-0.4459069469	 0.0800637348	 0.345195
N	-2.2837848963	-0.6251759876	 1.1224776883	-0.370412
N	-3.4672729169	-1.0074406976	 0.6034002294	 0.063069
C	-4.5853721365	-1.2787610948	 1.4797539948	-0.320471
C	-3.4232885313	-1.0734801792	-0.7491185505	-0.012904
C	-2.1471770293	-0.7178418952	-1.1322573757	-0.332595
H	 1.3453515389	 1.5401392847	-0.196243665	 0.122373
H	 0.2129427105	 1.1347794511	-1.5030415536	 0.105521
H	-0.343180409	 2.0816762136	-0.1025276462	 0.11985
H	 0.6104500117	-0.8266614079	-0.0443199776	 0.078641
H	-0.6045168398	-0.1180821038	 2.173602508	 0.291385
H	-5.4378402435	-1.5939179568	 0.8760244575	 0.140344
H	-4.3296264894	-2.0743074944	 2.1847657944	 0.151186
H	-4.85541754	-0.3814521063	 2.043527466	 0.150645
H	-4.289749966	-1.3627416865	-1.3233805406	 0.134135
H	-1.7607762696	-0.6662465469	-2.1370008533	 0.106996
29.0866	33.1048	139.3566	176.9379	203.5376	243.3456	266.5145	337.3357	377.4855	469.306	499.9734	622.1281	635.5968	717.7125	750.1992	773.3392	833.5808	909.2737	997.2506	1026.0127	1048.2138	1076.4634	1094.2602	1102.8248	1146.0526	1152.1947	1231.6881	1286.5627	1334.5069	1361.5494	1394.6354	1403.178	1426.8181	1447.4496	1459.6545	1473.6696	1484.374	1492.647	1509.2505	1532.2038	1567.379	2947.0016	3038.7969	3048.8857	3113.4522	3114.4982	3122.8525	3146.6904	3252.0081	3273.4181	3747.9368
CC(O)C1=NN(C)C=C1	C[C@@H](O)c1nn(C)cc1	
InChI=1S/C6H10N2O/c1-5(9)6-3-4-8(2)7-6/h3-5,9H,1-2H3	InChI=1S/C6H10N2O/c1-5(9)6-3-4-8(2)7-6/h3-5,9H,1-2H3/t5-/m1/s1
