17
gdb 45808	2.6586	1.74249	1.24129	3.2861	75.43	-0.2104	-0.0162	0.1942	1005.2417	0.138684	-418.01212	-418.004683	-418.003739	-418.044098	29.045	
O	-0.1964388852	-0.1051985862	 0.3124105325	-0.349451
C	-0.0798784071	 1.087603748	 0.1133677931	 0.34866
C	-1.2390085857	 1.9372996487	-0.4214218162	-0.248409
N	-1.6957848317	 3.1065153973	 0.3244057934	-0.096376
C	-1.3256752972	 3.2842194639	 1.7171500471	-0.260357
C	-0.7461907271	 4.1730620849	 0.6488777614	-0.061456
C	 0.6883849348	 4.1209209976	 0.2792900341	-0.065518
C	 1.486339197	 3.054430134	 0.1551390238	-0.033298
N	 1.1403494674	 1.707054532	 0.292212346	-0.317257
H	-0.9752402191	 2.2734132845	-1.4324483932	 0.128545
H	-2.0763116163	 1.2408131852	-0.506400798	 0.140429
H	-2.1102149546	 3.6552729269	 2.3715577488	 0.120621
H	-0.6500860489	 2.5688554709	 2.1811031838	 0.128111
H	-1.1799705747	 5.1648105836	 0.5422644413	 0.095285
H	 1.1526990347	 5.0838161023	 0.0948558471	 0.098829
H	 2.5382620317	 3.1982312703	-0.069527291	 0.117505
H	 1.876455772	 1.0572754961	 0.5330063759	 0.254137
88.6174	133.807	268.3171	284.3305	354.8901	436.9587	469.7233	547.9465	576.7759	627.6167	675.1413	733.366	748.0186	814.572	839.7634	880.8944	932.7701	950.3612	998.0717	1025.4746	1045.5445	1095.675	1113.8694	1141.9899	1164.9885	1243.9379	1283.3376	1337.7288	1350.8993	1364.018	1408.4512	1450.5514	1468.6291	1483.4689	1510.5732	1726.5234	1786.3796	3033.8316	3099.9599	3108.4646	3125.1488	3172.7786	3184.2495	3193.5928	3593.0502
O=C1CN2CC2C=CN1	O=C1CN2C[C@H]2C=CN1	
InChI=1S/C6H8N2O/c9-6-4-8-3-5(8)1-2-7-6/h1-2,5H,3-4H2,(H,7,9)	InChI=1S/C6H8N2O/c9-6-4-8-3-5(8)1-2-7-6/h1-2,5H,3-4H2,(H,7,9)/t5-,8?/m1/s1
