20
gdb 121076	5.33539	0.70446	0.6433	4.5303	75.89	-0.2369	0.0366	0.2735	1689.4769	0.17196	-440.329185	-440.319863	-440.318919	-440.36399	33.928	
O	-0.0584532197	 1.4541092242	-0.0971403392	-0.418779
C	 0.03980719	 0.0444979894	 0.0266316473	-0.078353
C	-1.3722893762	-0.5253465844	-0.0489870931	-0.190774
C	-1.4257420782	-2.0508835931	 0.0274144568	 0.012126
C	-0.9281519331	-2.6478223104	 1.3705995827	-0.176226
N	-1.6598636551	-3.8977864437	 1.4537974461	-0.303611
C	-2.7959130418	-3.9538504177	 0.6875682337	 0.400501
O	-3.602861302	-4.8565161155	 0.677765286	-0.378101
C	-2.8357398281	-2.6518126931	-0.1183541442	-0.355488
H	 0.8269122661	 1.8253222201	-0.0430780272	 0.287102
H	 0.6560808039	-0.3864498867	-0.7801227889	 0.086627
H	 0.5134929097	-0.236415795	 0.9815943948	 0.087346
H	-1.9712793149	-0.089443337	 0.7606209851	 0.107018
H	-1.8249504786	-0.1876930803	-0.9884424786	 0.112504
H	-0.7963646989	-2.4703549968	-0.7679662684	 0.086197
H	 0.1531945464	-2.818051959	 1.3781763334	 0.111603
H	-1.1663721663	-1.9755871618	 2.2099381338	 0.104086
H	-1.5016129549	-4.5885471043	 2.1702920748	 0.249206
H	-3.5974206739	-2.002567911	 0.3322559458	 0.126939
H	-3.1385811344	-2.8421710039	-1.1493903307	 0.130076
64.5208	96.9484	104.793	164.6533	177.7648	269.798	311.4504	336.5486	440.1116	498.3219	500.0602	581.0027	647.5067	699.7596	794.5509	852.0504	879.7872	926.2489	981.6358	1008.6179	1062.7365	1071.9643	1085.6801	1109.6344	1132.485	1185.007	1216.0762	1242.5102	1249.3293	1267.0288	1280.3449	1316.2197	1325.1122	1339.3135	1361.4548	1390.8416	1447.9639	1464.7429	1471.1267	1492.9137	1526.992	1533.2396	1834.3615	2956.3888	2977.0217	2982.357	3019.4927	3031.2244	3040.9993	3064.2186	3076.633	3119.6825	3639.9364	3830.6008
OCCC1CNC(=O)C1	OCC[C@H]1CNC(=O)C1	
InChI=1S/C6H11NO2/c8-2-1-5-3-6(9)7-4-5/h5,8H,1-4H2,(H,7,9)	InChI=1S/C6H11NO2/c8-2-1-5-3-6(9)7-4-5/h5,8H,1-4H2,(H,7,9)/t5-/m1/s1
