15
gdb 54808	2.52138	1.71537	1.14457	1.5704	66.21	-0.2523	-0.0377	0.2146	1023.3796	0.112396	-453.943001	-453.935027	-453.934083	-453.976	29.654	
N	-0.1008040916	 1.3152448163	 0.0850358162	-0.519982
C	 0.1070923253	-0.0033665779	-0.2019991239	 0.382545
O	 1.1657865629	-0.4687926801	-0.5665343168	-0.353435
C	-1.1637173515	-0.829266347	-0.0327794609	-0.207387
N	-1.0603639752	-2.3274329276	-0.0152768299	-0.107022
C	-0.2393875855	-2.6535305181	 1.1386850184	-0.225468
C	-1.6811947055	-2.340939611	 1.394860912	-0.162971
C	-1.8699762111	-0.8603585357	 1.3406413258	 0.406109
O	-2.4669656105	-0.0362456718	 1.9742756094	-0.325088
H	 0.7060910154	 1.9191025572	 0.105753845	 0.266357
H	-0.9191669256	 1.5967033369	 0.6043376789	 0.276427
H	-1.8940494149	-0.5252037744	-0.7906755365	 0.147479
H	 0.0260833125	-3.7045858716	 1.1978058099	 0.143339
H	 0.5423596529	-1.9700583475	 1.4527263121	 0.147629
H	-2.3953815576	-3.0838409078	 1.7287846302	 0.131466
57.6383	121.3416	164.1096	220.7946	356.3795	397.3269	423.3718	466.2367	537.4262	589.6852	632.4099	697.0911	703.0233	743.2609	837.0746	863.1378	954.2016	968.4182	1029.4326	1057.1006	1100.2439	1107.8546	1124.7113	1140.8163	1185.4273	1215.8678	1271.914	1305.2668	1354.3888	1510.5687	1626.874	1808.384	1879.2856	3066.1034	3130.7368	3198.2857	3220.0079	3568.1005	3701.926
NC(=O)C1N2CC2C1=O	NC(=O)[C@H]1N2C[C@H]2C1=O	
InChI=1S/C5H6N2O2/c6-5(9)3-4(8)2-1-7(2)3/h2-3H,1H2,(H2,6,9)	InChI=1S/C5H6N2O2/c6-5(9)3-4(8)2-1-7(2)3/h2-3H,1H2,(H2,6,9)/t2-,3-,7?/m0/s1
