23
gdb 121237	2.8416	0.87051	0.72218	2.0665	83.4	-0.2444	0.0747	0.319	1679.4068	0.203914	-425.401898	-425.391346	-425.390402	-425.43869	37.102	
C	 0.0914233778	 1.501191591	 0.300034682	-0.381939
C	 0.0061897746	-0.0175919063	 0.1306271168	-0.168608
C	-1.4208907362	-0.5088465057	-0.1386171852	-0.170691
C	-1.4891243024	-2.0211435573	-0.2624093886	 0.092132
O	-1.1061338475	-2.7066069003	 0.9606118786	-0.293415
C	-2.397048692	-3.3325682455	 1.0870647841	-0.098256
C	-2.8826844587	-2.6922663714	-0.2347412513	 0.062829
O	-3.944136674	-1.7815049813	-0.1562072475	-0.235986
C	-5.2073761938	-2.4041097332	-0.0748838236	-0.238326
H	 1.1192691227	 1.8236263663	 0.4942362723	 0.109826
H	-0.2570441019	 2.0222722623	-0.5990031729	 0.110515
H	-0.5279741073	 1.8408424968	 1.137589987	 0.114128
H	 0.6613689386	-0.3331285489	-0.6926001822	 0.088938
H	 0.3832608701	-0.5160986595	 1.0307518492	 0.116666
H	-2.0916338159	-0.1843898781	 0.6639263365	 0.105179
H	-1.8078954761	-0.0665716251	-1.066218784	 0.096251
H	-0.8579484472	-2.3611468011	-1.0957740902	 0.071049
H	-2.3239408003	-4.4268248765	 1.1053433762	 0.097862
H	-2.9426816634	-2.9878877601	 1.9752294102	 0.101972
H	-3.056099004	-3.4137134019	-1.0460748326	 0.070952
H	-5.3074464447	-3.0184868291	 0.8326481617	 0.10984
H	-5.9584443502	-1.6115281355	-0.0461691069	 0.131623
H	-5.3978270382	-3.0467431396	-0.9486882097	 0.107459
51.2807	77.9294	96.879	103.2412	112.4739	197.9419	227.8141	250.3316	311.8134	327.9442	428.6573	492.7717	529.6334	742.5618	788.8224	835.4503	879.0857	886.2976	919.8323	958.179	1021.7127	1039.9966	1053.4641	1070.1328	1096.2334	1124.488	1157.3274	1169.5328	1184.2204	1186.682	1230.7763	1254.8837	1272.5167	1280.0382	1303.8758	1324.3158	1350.9306	1380.2325	1399.6585	1405.825	1414.6346	1473.9504	1483.1159	1489.5842	1494.379	1499.7713	1508.6748	1510.4894	1512.5822	2975.2319	2989.5571	3002.8989	3011.2314	3017.9894	3024.355	3026.0617	3029.2276	3056.9495	3061.3247	3082.5738	3097.8135	3100.3356	3119.3953
CCCC1OCC1OC	CCC[C@H]1OC[C@H]1OC	
InChI=1S/C7H14O2/c1-3-4-6-7(8-2)5-9-6/h6-7H,3-5H2,1-2H3	InChI=1S/C7H14O2/c1-3-4-6-7(8-2)5-9-6/h6-7H,3-5H2,1-2H3/t6-,7-/m1/s1
