21
gdb 50576	3.52552	1.06923	0.91492	2.8511	82.57	-0.2443	-0.0183	0.226	1311.0934	0.184233	-387.105182	-387.096826	-387.095881	-387.138692	32.204	
O	-0.2150118563	 0.0292483833	-0.0109696701	-0.25112
C	-0.0565428949	 1.2224220564	 0.0163598089	 0.147648
C	 1.2770258149	 1.9332449206	-0.0178421354	-0.045334
C	 1.3803455799	 2.805592218	-1.285755729	-0.229785
C	 2.7833520417	 3.4190889709	-1.4063557021	-0.227679
C	 3.2494909964	 4.119640763	-0.1427912602	 0.000616
C	 2.3929132699	 5.146348685	 0.5495830721	-0.28792
C	 2.598717271	 3.7898776296	 1.1858352675	-0.031603
C	 1.4420856651	 2.7929795133	 1.2569036697	-0.244409
H	-0.933279004	 1.9143196532	 0.0675598371	 0.064892
H	 2.055152639	 1.1624913638	-0.051711821	 0.09023
H	 1.1717716949	 2.2019707246	-2.1755867331	 0.109958
H	 0.6128979806	 3.5905147996	-1.256415388	 0.102019
H	 3.4902957649	 2.611945076	-1.6386425298	 0.103006
H	 2.8141822865	 4.1112074718	-2.2568840282	 0.100005
H	 4.3191799607	 4.3069945246	-0.1133334632	 0.082887
H	 2.8795864255	 6.0075107994	 0.9944665502	 0.108685
H	 1.4103988316	 5.3611777975	 0.1393474896	 0.107021
H	 3.2581389693	 3.7700785794	 2.0475071225	 0.086115
H	 0.5014372323	 3.3282698795	 1.4471591262	 0.101652
H	 1.5879504109	 2.1262199206	 2.1126104761	 0.113114
57.1039	82.5566	180.2641	282.4857	299.6871	328.8696	370.2255	410.4413	501.5628	542.2925	637.8253	747.9029	789.6767	826.1375	851.4323	893.77	915.3502	922.8319	961.3286	997.3601	1022.2954	1058.9024	1091.0743	1098.2933	1108.9092	1128.7573	1135.9435	1151.4429	1201.2313	1230.6559	1240.4941	1275.3473	1299.7515	1325.0632	1365.5147	1368.1495	1377.8239	1388.0825	1417.7019	1429.9902	1486.0426	1490.417	1491.4814	1506.788	1833.6808	2830.1524	3009.4733	3016.7224	3020.7888	3049.5904	3052.2719	3069.8634	3075.0505	3122.8018	3139.0356	3153.4798	3206.6357
O=CC1CCC2CC2C1	O=C[C@H]1CC[C@H]2C[C@H]2C1	
InChI=1S/C8H12O/c9-5-6-1-2-7-4-8(7)3-6/h5-8H,1-4H2	InChI=1S/C8H12O/c9-5-6-1-2-7-4-8(7)3-6/h5-8H,1-4H2/t6-,7-,8+/m0/s1
