25
gdb 117986	2.33804	1.03291	0.87745	1.8955	85.72	-0.256	0.0666	0.3226	1505.3829	0.224894	-426.619136	-426.607262	-426.606318	-426.656226	43.37	
C	-0.450683089	 1.3330404952	-0.5009353841	-0.227411
O	-0.7203953203	-0.0437670379	-0.613273989	-0.225065
C	-0.879157975	-0.6735699528	 0.6384366428	-0.09762
C	-1.0739132576	-2.1879371813	 0.4694829347	 0.090498
O	-0.7946478945	-2.8062720166	 1.7265664786	-0.439442
C	-2.4297433273	-2.6773853033	-0.1219324379	 0.254164
C	-2.6624539717	-2.0898129019	-1.5260479611	-0.400197
C	-2.3602237626	-4.213512536	-0.2346464668	-0.402169
C	-3.6099517488	-2.2946689511	 0.7921360665	-0.430002
H	-0.3305437186	 1.7274441145	-1.5128274917	 0.12815
H	-1.2725639707	 1.8728214538	-0.0039088167	 0.103068
H	 0.4738840239	 1.5208493149	 0.0675886892	 0.106222
H	 0.022655642	-0.5341761827	 1.2554290763	 0.098157
H	-1.7226573186	-0.2252091936	 1.1935198055	 0.076646
H	-0.276032209	-2.5373392313	-0.1965119458	 0.093868
H	-1.4540594725	-2.5029020587	 2.3596343055	 0.280447
H	-1.8207461185	-2.3107236907	-2.1905452498	 0.111187
H	-3.5631442962	-2.5309456726	-1.9675553163	 0.098812
H	-2.7825053897	-1.0055942897	-1.504822645	 0.120728
H	-2.1534782318	-4.6713782595	 0.7351849174	 0.120673
H	-3.304675454	-4.6145161612	-0.6175974398	 0.101267
H	-1.5652705573	-4.5183576888	-0.9243755295	 0.10725
H	-3.726037504	-1.2102922963	 0.8882312868	 0.113362
H	-4.5460121847	-2.6849659351	 0.3797915321	 0.117811
H	-3.5084644137	-2.7206508273	 1.7974216082	 0.099598
32.285	85.7674	113.1773	174.3099	210.2559	234.0452	246.1332	254.7066	260.1651	290.8596	297.3195	317.7794	353.719	382.0264	398.5701	458.7329	543.2059	554.1898	719.6676	857.3589	933.0646	938.53	960.9251	991.4221	999.8566	1030.2966	1055.5144	1069.6766	1105.5537	1162.9244	1183.6757	1208.7506	1223.3989	1237.1636	1256.2235	1269.4194	1294.402	1361.7004	1392.962	1401.2166	1408.6129	1418.3264	1434.4743	1477.3238	1479.8035	1482.5059	1485.466	1488.886	1500.164	1502.2868	1510.0027	1519.5165	1530.9008	2945.3901	2970.2316	2992.4391	3013.6157	3024.928	3029.6063	3035.3369	3048.0207	3087.2255	3091.0578	3096.1814	3101.5604	3114.4938	3124.5139	3135.2254	3808.1236
COCC(O)C(C)(C)C	COC[C@@H](O)C(C)(C)C	
InChI=1S/C7H16O2/c1-7(2,3)6(8)5-9-4/h6,8H,5H2,1-4H3	InChI=1S/C7H16O2/c1-7(2,3)6(8)5-9-4/h6,8H,5H2,1-4H3/t6-/m1/s1
