18
gdb 77294	3.01221	0.98376	0.82219	3.838	74.17	-0.2518	-0.0363	0.2155	1389.5011	0.14568	-439.118729	-439.109207	-439.108263	-439.154733	33.274	
C	-0.2097373978	 1.5744925304	 0.2004897792	-0.406918
C	 0.007340829	 0.0717604094	 0.095454992	-0.180044
C	 0.6470358311	-0.5499088321	-1.1987468831	 0.030773
C	 1.0805561118	 0.3923578305	-2.3285444349	-0.283123
C	 1.7765077243	-0.3843547947	-3.4254951645	 0.149499
O	 2.9363683767	-0.2651645807	-3.7233410891	-0.230803
N	 1.733373925	-1.0320983375	-0.3402521267	-0.332825
C	 1.2468501977	-0.5015247301	 0.8315257571	 0.438405
O	 1.6530291321	-0.5000395559	 1.961512759	-0.360789
H	 0.6905814036	 2.1393217078	-0.056936674	 0.129215
H	-1.0237503205	 1.9091005082	-0.4506602303	 0.120081
H	-0.4746619312	 1.8315294941	 1.2300329043	 0.143263
H	-0.9009590617	-0.4652576064	 0.3851455171	 0.106991
H	 0.0426204554	-1.3661102332	-1.615726821	 0.089212
H	 0.1835191993	 0.8602270936	-2.7563919554	 0.123378
H	 1.7545370211	 1.1689928998	-1.9610366817	 0.129166
H	 1.1241103815	-1.1244567701	-3.9467874937	 0.076796
H	 2.5672557225	-1.5652473832	-0.5414829542	 0.257724
26.7255	74.0374	83.9233	162.0238	200.1131	212.9106	277.5039	359.1584	409.1799	467.4396	517.2133	539.3967	691.5178	744.5884	776.9335	827.0352	876.3326	934.4989	1012.9035	1034.9991	1063.4634	1073.0788	1134.3089	1152.0687	1184.4856	1201.3648	1211.2436	1265.1877	1309.4764	1349.1521	1381.5859	1402.8339	1413.4653	1429.8632	1454.9496	1495.7465	1499.4507	1835.5271	1896.7584	2852.9837	3014.2929	3028.3755	3041.8277	3069.6052	3109.7604	3118.3308	3124.8497	3603.5758
CC1C(CC=O)NC1=O	C[C@H]1[C@@H](CC=O)NC1=O	
InChI=1S/C6H9NO2/c1-4-5(2-3-8)7-6(4)9/h3-5H,2H2,1H3,(H,7,9)	InChI=1S/C6H9NO2/c1-4-5(2-3-8)7-6(4)9/h3-5H,2H2,1H3,(H,7,9)/t4-,5+/m0/s1
