18
gdb 90421	2.16152	1.7728	1.44276	1.5169	71.43	-0.2259	-0.0287	0.1972	1001.3615	0.146729	-439.049641	-439.041208	-439.040264	-439.082728	31.889	
C	 0.6128824273	 1.5601508566	 0.1790206903	-0.421067
C	 0.20234495	 0.0983543666	 0.0734637006	-0.081703
N	 0.6012517616	-0.7230386531	-1.1379829573	-0.151573
C	 1.8856200694	-0.325630541	-1.801715596	-0.184282
C	 2.7302013054	-1.2156960173	-0.8650053335	 0.103026
O	 3.540948983	-0.4310954209	-0.0173026586	-0.421845
C	 1.3702105783	-1.6954255536	-0.2592233003	-0.177434
C	 0.9364612551	-0.9081279708	 0.9797234567	 0.409799
O	 1.1102701286	-1.0270057225	 2.1567224684	-0.30632
H	 1.6985103218	 1.6743559186	 0.2195051557	 0.145317
H	 0.2235489862	 2.1339459496	-0.6683958912	 0.128732
H	 0.1945602775	 1.9843924814	 1.0962528797	 0.136223
H	-0.8849727948	 0.0120030661	 0.1978850689	 0.11427
H	 1.8880741996	-0.6560722214	-2.8440588317	 0.113828
H	 2.1394146314	 0.7358137777	-1.7674410581	 0.121148
H	 3.3095830097	-2.0083120801	-1.3554920598	 0.079906
H	 3.8373085697	-0.9752118308	 0.7212604538	 0.295296
H	 1.1324066602	-2.760917225	-0.3127058975	 0.096678
71.6846	112.9865	194.8117	216.1688	287.9192	309.1388	364.1965	405.6814	463.8283	527.5609	612.9632	637.9784	740.7798	767.2121	840.5842	883.5365	897.3178	948.1594	985.26	1004.4126	1048.917	1053.3927	1099.4462	1143.2084	1156.2908	1177.692	1200.3028	1217.7264	1234.4433	1259.9254	1304.1399	1325.8273	1334.1102	1400.5423	1411.0182	1482.3519	1490.8712	1513.3993	1893.2277	3015.451	3021.4324	3042.4371	3061.7156	3081.6915	3113.2056	3118.4144	3131.6851	3801.5075
CC1N2CC(O)C2C1=O	C[C@H]1N2C[C@@H](O)[C@H]2C1=O	
InChI=1S/C6H9NO2/c1-3-6(9)5-4(8)2-7(3)5/h3-5,8H,2H2,1H3	InChI=1S/C6H9NO2/c1-3-6(9)5-4(8)2-7(3)5/h3-5,8H,2H2,1H3/t3-,4-,5+/m1/s1
