19
gdb 40210	3.08397	1.41965	1.08199	1.6236	86.21	-0.2192	-0.0314	0.1878	1136.7163	0.161071	-385.885683	-385.877967	-385.877023	-385.917994	30.599	
C	-0.053282584	 1.4746866358	 0.0099805309	-0.230104
O	 1.2358514737	 0.8778916713	 0.0066201437	-0.279914
C	 0.0736332694	 0.0013295828	 0.0210407108	 0.380073
C	-0.1471200266	-0.7131695352	 1.3362802469	-0.282905
C	 0.6362057462	-2.0331481084	 1.4684721436	-0.264811
C	 0.0132609299	-3.177058331	 0.7194030153	-0.082515
C	-0.4317632063	-3.131603402	-0.5451487139	-0.072499
C	-0.3668785802	-2.0134036253	-1.4783021138	-0.09039
C	-0.1256557454	-0.7088167272	-1.261818254	-0.10059
H	-0.3364264285	 1.9894403564	 0.9279620961	 0.110034
H	-0.3398632349	 1.9851434149	-0.909304449	 0.110919
H	 0.1567890193	-0.0287925647	 2.1343365213	 0.104852
H	-1.2181294282	-0.911878735	 1.4638945854	 0.108416
H	 1.6657563873	-1.8648236267	 1.1199329514	 0.129159
H	 0.7146646637	-2.2971169159	 2.5277104988	 0.101302
H	-0.0804970244	-4.118146111	 1.2556034873	 0.090796
H	-0.8474761383	-4.0451720325	-0.964056872	 0.08624
H	-0.5269343303	-2.2958150489	-2.5172046053	 0.091163
H	-0.0670709524	-0.0588084076	-2.1314448637	 0.090774
62.1902	183.2508	239.9052	311.7083	322.2152	376.7266	429.1057	459.9129	551.9075	623.0521	677.1148	720.9888	785.2526	822.1188	853.264	891.5494	898.1992	948.2749	965.5611	980.5436	999.0608	1012.753	1045.3617	1072.5751	1133.3664	1161.5922	1191.9822	1228.6027	1253.6552	1272.0507	1329.3862	1338.4625	1360.2101	1402.77	1437.0534	1462.7553	1476.4526	1478.3434	1525.5059	1671.2059	1708.7785	3006.8964	3034.9983	3071.5516	3072.8616	3086.6355	3132.4043	3144.9539	3156.9801	3161.3185	3168.5564
C1OC11CCC=CC=C1	C1O[C@]21CCC=CC=C2	
InChI=1S/C8H10O/c1-2-4-6-8(5-3-1)7-9-8/h1-3,5H,4,6-7H2	InChI=1S/C8H10O/c1-2-4-6-8(5-3-1)7-9-8/h1-3,5H,4,6-7H2/t8-/m0/s1
