22
gdb 89093	4.24455	0.61991	0.58018	1.3027	89.5	-0.2238	0.0547	0.2785	1943.567	0.191943	-367.148116	-367.137711	-367.136767	-367.184374	37.876	
C	-0.4123153425	 1.3759058974	 0.1638230018	-0.314033
N	 0.0039391871	-0.0167522614	 0.1162214047	-0.076304
C	 1.3739311636	-0.2980411975	-0.2947309707	-0.264782
C	 0.940205945	-0.5516277364	 1.1096032197	 0.021611
C	 1.5041367746	 0.2448377237	 2.2694436217	-0.221035
C	 0.5670258388	 0.2778895445	 3.4839503143	-0.171957
C	 1.190674558	 1.0149897513	 4.6860991796	-0.356187
C	 0.314620922	 1.0529130926	 5.8505146693	 0.291235
C	-0.4270920585	 1.0700555339	 6.796299067	-0.434827
H	 0.375243913	 2.088143398	 0.4572537601	 0.097612
H	-0.7642079238	 1.6658354712	-0.8316405516	 0.124619
H	-1.2505315194	 1.4840421398	 0.8600051622	 0.124154
H	 1.5094469173	-1.1145725859	-0.999846964	 0.112004
H	 2.0397677223	 0.5510269943	-0.4542843623	 0.100579
H	 0.7018323396	-1.5815094963	 1.3785026653	 0.08717
H	 2.4580720568	-0.2154403442	 2.5624168802	 0.102081
H	 1.7487011565	 1.2663037698	 1.9576660504	 0.098251
H	-0.3787143029	 0.7624076117	 3.2182978516	 0.116968
H	 0.3140737749	-0.7453470495	 3.7852300014	 0.112493
H	 2.1387661122	 0.5315575031	 4.9576615146	 0.128745
H	 1.4500524236	 2.0406983339	 4.3913738472	 0.128328
H	-1.0742825379	 1.090810296	 7.6375779176	 0.193276
48.0617	77.4204	90.51	122.0324	172.4666	217.0773	274.0216	327.5603	342.2746	349.3854	424.5735	511.0306	545.6958	616.054	634.8389	729.1744	752.3628	784.9106	859.9796	920.8214	957.5252	1010.9207	1037.5562	1047.9229	1062.2451	1092.8003	1116.6087	1133.3073	1141.1737	1168.5661	1204.238	1214.8034	1257.2594	1295.3268	1321.8979	1341.4005	1343.0649	1386.4418	1426.8627	1450.996	1472.6537	1478.238	1489.1682	1500.1533	1507.0476	1517.0268	2239.1061	2973.9108	3012.0318	3015.3278	3038.7965	3042.5259	3058.343	3064.9074	3078.6015	3086.1793	3096.6733	3098.4422	3165.5119	3507.563
CN1CC1CCCC#C	CN1C[C@H]1CCCC#C	
InChI=1S/C8H13N/c1-3-4-5-6-8-7-9(8)2/h1,8H,4-7H2,2H3	InChI=1S/C8H13N/c1-3-4-5-6-8-7-9(8)2/h1,8H,4-7H2,2H3/t8-,9?/m1/s1
