16
gdb 46708	3.11808	1.79987	1.412	5.0736	67.	-0.2379	0.0057	0.2436	910.5906	0.127507	-437.867826	-437.861318	-437.860374	-437.898689	26.215	
O	 0.1120289653	-0.0538157664	 0.2336909064	-0.342679
C	 0.0022032465	 1.1068466804	-0.0584314043	 0.46759
O	-1.1702340004	 1.5838944736	-0.5294905844	-0.2352
C	-1.3540152731	 2.9991931077	-0.7450469938	-0.082828
C	-0.1253676028	 3.7227505765	-1.274583692	-0.073433
C	 0.9522697274	 4.1724510192	-0.3229030172	-0.028744
N	 0.8566723763	 3.3032896702	 0.8687496311	-0.336546
C	 1.1430705579	 2.1079309146	-0.0127938729	-0.175873
C	 1.2073095367	 3.0103954241	-1.256276486	-0.104039
H	-2.1732748204	 3.0575449274	-1.4644121348	 0.121826
H	-1.6811981923	 3.441152274	 0.2005862916	 0.135191
H	-0.2844081274	 4.3653535232	-2.1339278511	 0.104277
H	 1.3475828714	 5.1796963397	-0.2849747162	 0.103411
H	 1.6428009074	 3.4474943675	 1.493557425	 0.233652
H	 2.0632375903	 1.5846958418	 0.2423041554	 0.106196
H	 1.8374842572	 2.8749798165	-2.1248683571	 0.1072
128.451	198.1043	295.544	424.6068	429.4879	475.2833	597.3814	697.3216	726.9592	742.6805	786.518	807.6856	862.7296	892.2497	896.8866	957.1678	984.426	1002.0901	1041.3664	1047.2849	1057.9566	1069.8556	1096.1856	1156.9162	1210.9272	1233.1193	1265.5225	1280.7888	1292.0454	1338.5162	1358.809	1428.5355	1440.29	1495.3369	1845.9084	3060.6317	3112.901	3129.6984	3172.8202	3190.7196	3205.0716	3532.2885
O=C1OCC2C3NC1C23	O=C1OC[C@H]2[C@H]3N[C@@H]1[C@@H]23	
InChI=1S/C6H7NO2/c8-6-5-3-2(1-9-6)4(3)7-5/h2-5,7H,1H2	InChI=1S/C6H7NO2/c8-6-5-3-2(1-9-6)4(3)7-5/h2-5,7H,1H2/t2-,3+,4-,5-/m1/s1
