16
gdb 63869	2.33065	1.61582	1.29346	3.4023	70.07	-0.2733	-0.0053	0.268	1025.9712	0.122193	-437.858586	-437.850114	-437.84917	-437.89135	32.019	
C	-0.0593744126	 1.5517184312	 0.0472614643	-0.462986
C	 0.026965721	 0.0416496318	-0.069388242	 0.302714
O	-1.1876174086	-0.5590859012	-0.4512398326	-0.456629
C	 1.1644302778	-0.5766320819	-0.9552714932	-0.280685
C	 1.7164331889	-1.2814618949	 0.2859522597	-0.055118
O	 2.0287578497	-0.2752599034	 1.2563392211	-0.278327
C	 0.6688180871	-0.703015582	 1.1512969941	 0.29942
C	-0.0195302394	-1.2065308257	 2.2966013305	 0.188427
N	-0.6454747238	-1.580055515	 3.1949063938	-0.339529
H	 0.8974245617	 1.9666107632	 0.3723940807	 0.144677
H	-0.3269558087	 1.9877943725	-0.9197877425	 0.133575
H	-0.8242661634	 1.8411846403	 0.7778834891	 0.12076
H	-1.878905666	-0.2619656391	 0.1523917739	 0.291336
H	 0.7318043047	-1.2618386471	-1.6854661221	 0.138152
H	 1.8530807318	 0.1186661582	-1.438322091	 0.121036
H	 2.2326758298	-2.2294637271	 0.3755601362	 0.133177
111.1158	128.7592	183.4633	248.6317	289.1466	322.5014	366.4859	378.5121	448.8596	485.298	535.0822	594.2054	611.1251	659.6422	804.0112	867.1127	912.5129	941.7387	953.6884	969.5985	1023.1548	1095.222	1107.7511	1133.9459	1183.3106	1256.4369	1262.9432	1268.4495	1371.5005	1402.8738	1420.5657	1465.2051	1486.9532	1497.5392	2351.7572	3032.1541	3083.2198	3102.4522	3133.424	3150.7089	3202.8221	3792.8115
CC1(O)CC2OC12C#N	C[C@@]1(O)C[C@H]2O[C@@]12C#N	
InChI=1S/C6H7NO2/c1-5(8)2-4-6(5,3-7)9-4/h4,8H,2H2,1H3	InChI=1S/C6H7NO2/c1-5(8)2-4-6(5,3-7)9-4/h4,8H,2H2,1H3/t4-,5-,6-/m1/s1
