22
gdb 116458	2.26789	1.46538	1.05559	2.1634	78.61	-0.2327	0.0787	0.3114	1215.3508	0.195966	-441.470139	-441.461224	-441.46028	-441.503561	34.426	
C	-0.0312212754	 1.485834913	 0.0404210385	-0.329437
N	 0.073493164	 0.0292681839	 0.0332937404	-0.096861
C	-1.2467268152	-0.5708185462	-0.1757286375	-0.141303
C	-1.1654347267	-2.0900532358	-0.1690882362	-0.092931
O	-0.6190639362	-2.5511628371	 1.0505474679	-0.244893
C	 0.687325721	-2.0405009777	 1.2245633219	-0.08888
C	 0.7427821444	-0.5047156911	 1.2329784119	 0.005302
C	 2.2160507275	-0.0600686617	 1.2358495589	-0.074082
O	 2.8316485143	-0.3203730451	-0.0102581395	-0.427987
H	 0.957889803	 1.9490186212	 0.0444466417	 0.13301
H	-0.5475406976	 1.8117309661	-0.8675063174	 0.121289
H	-0.597219915	 1.8674637116	 0.909520891	 0.101848
H	-1.9585684659	-0.2507055171	 0.608457023	 0.086929
H	-1.6392421303	-0.2224450319	-1.1383534563	 0.101382
H	-2.1643293577	-2.5261775213	-0.2583764937	 0.108096
H	-0.5536161683	-2.4361288775	-1.0186844691	 0.092013
H	 1.0456479827	-2.4190587956	 2.185869226	 0.109631
H	 1.3551760193	-2.4132056576	 0.432910701	 0.103138
H	 0.2515070747	-0.1382268788	 2.1540920282	 0.060225
H	 2.2928909327	 1.0042472205	 1.5049663686	 0.088136
H	 2.7613598609	-0.6203268929	 2.0050471649	 0.104064
H	 2.1233573638	-0.2194149588	-0.6635260941	 0.281312
91.2401	121.4196	171.7741	227.9482	266.1591	338.7117	349.0265	383.1321	395.3353	437.8889	485.6248	515.9005	601.6155	656.2934	788.8775	869.3667	906.0338	934.3613	944.04	1011.6255	1069.3479	1083.7548	1100.6575	1111.5804	1121.4183	1151.4808	1164.0095	1186.3796	1227.877	1242.7176	1271.9008	1296.3437	1325.1008	1335.8108	1360.5526	1367.1748	1398.2392	1405.5982	1429.5256	1447.3451	1463.794	1485.7116	1488.7676	1497.929	1502.5595	1505.629	1530.6623	2922.5824	2929.9597	2947.8475	2973.2	2987.7593	2996.5494	3049.2772	3052.7274	3076.0414	3090.7459	3093.5919	3121.4333	3709.3396
CN1CCOCC1CO	CN1CCOC[C@H]1CO	
InChI=1S/C6H13NO2/c1-7-2-3-9-5-6(7)4-8/h6,8H,2-5H2,1H3	InChI=1S/C6H13NO2/c1-7-2-3-9-5-6(7)4-8/h6,8H,2-5H2,1H3/t6-/m1/s1
