16
gdb 36019	3.1902	0.90229	0.75949	3.7124	80.36	-0.2725	0.0146	0.2871	1453.0969	0.121012	-363.557108	-363.547309	-363.546365	-363.592446	34.798	
C	-0.0946004408	-1.2282129131	-0.0402422839	-0.417664
C	-0.0589357793	-0.0280508675	-0.0106742531	 0.297053
C	 0.0010704267	 1.4258121604	 0.0058424187	-0.370552
C	 1.4554214016	 1.9760841788	 0.0482698358	-0.169336
C	 1.4233872049	 3.5219609729	-0.1074587269	-0.351755
C	 2.7536580324	 4.1129503205	-0.2212785603	 0.268468
N	 3.8045251798	 4.5803289235	-0.3287706424	-0.298768
C	 2.1437379002	 1.5877666109	 1.2738708052	 0.355027
C	 2.6934027606	 1.2969338541	 2.3012576445	-0.457913
H	-0.1309572559	-2.2893916206	-0.0582631467	 0.20243
H	-0.4938741505	 1.8230359274	-0.8895654118	 0.134448
H	-0.5499599034	 1.8146792625	 0.8708735892	 0.143665
H	 1.9951160615	 1.5606391537	-0.810610311	 0.140885
H	 0.8499373339	 3.7852793653	-1.0034148655	 0.153046
H	 0.9098939219	 3.9673866139	 0.7514298941	 0.16214
H	 3.1947349563	 1.0289774473	 3.198570514	 0.208826
54.0258	77.7923	100.5844	143.1181	215.1847	219.6962	300.3726	341.5364	392.6418	444.161	471.5818	527.4529	628.3302	634.9256	648.5317	655.8196	660.0073	799.4443	891.6687	919.4994	994.0672	1029.8505	1045.4687	1077.845	1200.6798	1229.1455	1279.7107	1345.8784	1349.2098	1372.7857	1460.961	1472.4201	2243.6848	2245.8015	2367.3623	3022.455	3041.7055	3047.9349	3064.0492	3091.3503	3503.3605	3506.0782
C#CCC(CC#N)C#C	C#CC[C@@H](CC#N)C#C	
InChI=1S/C8H7N/c1-3-5-8(4-2)6-7-9/h1-2,8H,5-6H2	InChI=1S/C8H7N/c1-3-5-8(4-2)6-7-9/h1-2,8H,5-6H2/t8-/m0/s1
