18
gdb 13984	4.68954	1.26276	1.13751	2.722	68.84	-0.2293	0.0798	0.3091	1098.5094	0.152766	-384.877367	-384.869281	-384.868337	-384.91037	29.249	
C	-0.2350672003	 1.3897741584	-0.4669580501	-0.221214
O	-0.26193805	 0.0265723432	-0.8153767165	-0.233809
C	 0.9446981342	-0.6428229954	-0.5083902311	-0.18746
C	 0.7951738235	-2.0944244772	-0.8252502152	 0.27264
C	 1.9406947131	-2.9949514338	-1.249162056	-0.359891
C	 0.738978553	-2.8552140339	-2.1316100691	 0.074746
O	-0.3204074752	-3.7021793596	-1.688461909	-0.286997
C	-0.3922681357	-2.9714276528	-0.4310679957	-0.126055
H	-0.0642335223	 1.5337679428	 0.6120192969	 0.103805
H	 0.5507806127	 1.9366419262	-1.0123154241	 0.103568
H	-1.2067585381	 1.8140296323	-0.7305862912	 0.129409
H	 1.7845398357	-0.2150374799	-1.0827634761	 0.086962
H	 1.1904717409	-0.5045230181	 0.5605672542	 0.088202
H	 2.830103936	-2.4675346571	-1.5822578457	 0.113252
H	 2.125546212	-3.9359560119	-0.7378336305	 0.114598
H	 0.7443770421	-2.540665512	-3.1688009635	 0.106722
H	-0.2798585151	-3.6276449113	 0.4404724607	 0.098775
H	-1.3285998064	-2.4092865999	-0.3680854481	 0.122748
80.4257	85.5836	129.1437	228.645	284.4249	325.4003	341.7732	443.3805	475.4538	682.3439	771.44	827.7735	895.8521	933.8256	971.9381	986.3144	995.1254	1016.6109	1033.0191	1077.9375	1085.4989	1110.5297	1151.9697	1162.3682	1182.6125	1219.4525	1230.0967	1273.8449	1306.0797	1317.4001	1392.5371	1436.4144	1480.0557	1485.3375	1489.1401	1500.442	1513.595	1521.2071	2934.2038	2964.2273	2969.5357	3010.6096	3026.9488	3092.9502	3111.4198	3115.7587	3182.339	3203.3296
COCC12CC1OC2	COC[C@]12C[C@H]1OC2	
InChI=1S/C6H10O2/c1-7-3-6-2-5(6)8-4-6/h5H,2-4H2,1H3	InChI=1S/C6H10O2/c1-7-3-6-2-5(6)8-4-6/h5H,2-4H2,1H3/t5-,6+/m1/s1
