15
gdb 29073	2.67774	1.73515	1.05289	2.5525	84.12	-0.2175	-0.066	0.1515	1064.3715	0.115733	-416.840842	-416.833671	-416.832727	-416.873083	27.714	
O	-0.0497421389	 1.3274923474	-0.0752895255	-0.376017
C	-0.0007347753	-0.0181133714	-0.0482699965	 0.36351
N	 1.1727634453	-0.5385221388	-0.1131696493	-0.372398
C	 1.5314017635	-1.858045972	-0.1071306846	-0.012366
C	 0.7656978081	-2.9758904155	-0.0312083354	-0.093501
C	-0.6600020038	-3.0450942436	 0.0645910256	-0.0992
C	-1.5649552986	-2.0381505232	 0.1010548482	-0.082122
C	-1.3801120835	-0.5967659335	 0.0549862787	 0.200299
N	-2.4285203197	 0.1480160345	 0.1059180158	-0.507065
H	 0.8716802281	 1.6203757648	-0.1421849272	 0.303113
H	 2.6084773011	-1.9927323734	-0.175135307	 0.111846
H	 1.2963441591	-3.9231177538	-0.0447025911	 0.10145
H	-1.0693772938	-4.0510267885	 0.1148940419	 0.107126
H	-2.6159838714	-2.3007679889	 0.17655644	 0.117703
H	-2.1675673901	 1.132871486	 0.0657011865	 0.23762
40.2682	187.7188	346.4244	358.4084	385.165	409.7525	459.9262	514.426	597.4831	651.2524	679.1319	733.0705	733.1464	815.8818	885.1473	897.4492	922.43	963.3959	986.3525	1037.5635	1045.1589	1147.5881	1226.8966	1262.2174	1333.4598	1372.7168	1413.7661	1445.8884	1492.4547	1583.3889	1616.9976	1662.5469	1682.8325	3148.5196	3155.8988	3179.701	3186.703	3495.8788	3744.1122
OC1=NC=CC=CC1=N	OC1=N[CH]C=CC=C1[NH]	
InChI=1S/C6H6N2O/c7-5-3-1-2-4-8-6(5)9/h1-4H,(H2,7,8,9)	InChI=1S/C6H6N2O/c7-5-3-1-2-4-8-6(5)9/h1-4H,(H2,7,8,9)
