18
gdb 99393	4.14916	0.65673	0.59549	3.018	70.09	-0.2457	-0.0135	0.2322	1802.496	0.144775	-476.252048	-476.241494	-476.24055	-476.28976	35.3	
O	 0.2950435918	 1.1477414732	 0.0075186538	-0.394725
C	-0.1451413985	-0.1269196151	-0.3757065139	-0.170965
C	-1.4202747315	-0.4877240573	 0.3775617931	 0.383698
O	-2.0137079891	 0.3051988428	 1.0665141105	-0.288087
C	-1.8868497762	-1.9260929257	 0.1956855007	-0.310596
C	-3.3678613263	-2.099363649	 0.550007827	-0.161607
N	-3.7946316599	-3.4922163363	 0.5373247465	-0.271014
C	-3.9372386403	-4.1944770163	-0.6141777308	 0.149035
O	-3.6876588079	-3.7609665307	-1.7211776528	-0.327303
H	 1.0611010287	 1.3728290652	-0.5281410105	 0.29425
H	-0.3861598987	-0.1921401222	-1.4519221372	 0.118301
H	 0.6008151501	-0.9175674306	-0.1802073736	 0.105597
H	-1.7053479052	-2.2667854242	-0.8285507397	 0.147415
H	-1.267621131	-2.5600472855	 0.8460841318	 0.125001
H	-3.5617527077	-1.6845774913	 1.5399718635	 0.131822
H	-3.9762807177	-1.5377259452	-0.1655555441	 0.140663
H	-4.0397746297	-3.9389888427	 1.4054923931	 0.252075
H	-4.3105775308	-5.2226002991	-0.4350592075	 0.076437
34.1631	47.6876	69.2263	101.5826	140.5854	201.9533	225.7522	253.8241	287.6535	350.6591	421.2844	474.0323	509.8763	679.9248	717.2388	808.0505	842.6134	934.4487	966.737	1021.105	1033.8531	1082.3782	1106.4095	1151.388	1198.6326	1234.362	1237.3369	1265.8416	1307.831	1346.0464	1406.0828	1427.6689	1443.7774	1459.4772	1477.9054	1492.4425	1523.2875	1798.4598	1824.8179	2935.1284	2947.3977	2968.5559	3021.658	3065.9351	3087.91	3133.0213	3645.9233	3836.9812
OCC(=O)CCNC=O	OCC(=O)CCNC=O	
InChI=1S/C5H9NO3/c7-3-5(9)1-2-6-4-8/h4,7H,1-3H2,(H,6,8)	InChI=1S/C5H9NO3/c7-3-5(9)1-2-6-4-8/h4,7H,1-3H2,(H,6,8)
