16
gdb 124360	5.04454	0.96637	0.81512	5.4979	74.39	-0.2134	0.0116	0.225	1349.2629	0.125709	-434.118199	-434.109624	-434.10868	-434.153479	30.455	
C	-0.1346150809	 1.5525930461	 0.0252916142	-0.493037
C	 0.1071750415	 0.0513691659	 0.0603305265	 0.399911
O	 1.2178905664	-0.4249866764	 0.1909249062	-0.355422
N	-1.0287180064	-0.7132928109	-0.0524465618	-0.449304
C	-1.0773659082	-2.1122239004	-0.0232799381	 0.280803
C	-2.2218167022	-2.880789771	-0.1325602847	-0.151979
N	-1.8073413232	-4.1715941521	-0.0543937034	-0.173131
N	-0.4809112007	-4.2958895719	 0.0969088054	-0.21772
C	-0.0210597345	-3.0472678221	 0.1177112855	-0.065307
H	 0.5736264052	 2.0023598276	-0.673951904	 0.157111
H	-1.1510110661	 1.8334254152	-0.2634640504	 0.110781
H	 0.0755140662	 1.9674089158	 1.0157449814	 0.155947
H	-1.9068467641	-0.232705686	-0.1574548154	 0.249196
H	-3.2595897125	-2.6148063147	-0.2551412935	 0.125986
H	-2.3751960041	-4.9998816811	-0.0975530772	 0.276518
H	 1.0277331137	-2.8379365937	 0.2294625293	 0.149646
17.6842	59.3865	102.2103	167.5754	347.3185	355.9871	358.7517	477.5867	481.8908	573.2364	616.5741	657.5306	694.3736	741.4445	777.8691	898.6854	945.3464	957.9255	999.4662	1029.766	1048.5814	1072.3187	1162.8929	1237.4402	1263.0995	1321.3028	1392.1768	1396.179	1408.6461	1468.4731	1487.9166	1503.9246	1533.8479	1638.6354	1784.5215	3047.7997	3119.3188	3135.9392	3258.68	3308.6804	3646.0775	3682.8419
CC(=O)NC1=CNN=C1	CC(=O)Nc1c[nH]nc1	
InChI=1S/C5H7N3O/c1-4(9)8-5-2-6-7-3-5/h2-3H,1H3,(H,6,7)(H,8,9)	InChI=1S/C5H7N3O/c1-4(9)8-5-2-6-7-3-5/h2-3H,1H3,(H,6,7)(H,8,9)
