13
gdb 24518	4.12624	1.71297	1.21046	1.4966	71.2	-0.261	-0.0465	0.2145	919.5344	0.094148	-415.688132	-415.682519	-415.681575	-415.71809	22.377	
O	-0.0559579544	 1.3391865194	 0.0097524647	-0.200957
C	 1.24975535	 1.7292177883	-0.0003055354	 0.066805
N	 2.1364008548	 0.7934922627	-0.0140072936	-0.328082
C	 1.3737140787	-0.3776832394	-0.0134872837	 0.268466
C	 0.0210736825	-0.0300047201	 0.0012316371	 0.271571
C	-0.9840692522	-0.981490636	 0.0052746488	-0.091869
N	-0.6556568882	-2.273770284	-0.0051824354	-0.273175
C	 0.6442314996	-2.6192788598	-0.0193913139	 0.017768
C	 1.7130653685	-1.7269374844	-0.0243714372	-0.256148
H	 1.4193567976	 2.7958064717	 0.0041682465	 0.162973
H	-2.0380257189	-0.7199987362	 0.0166904598	 0.127071
H	 0.8395678614	-3.6882287878	-0.0273265369	 0.115602
H	 2.7417776406	-2.0650662445	-0.0359850008	 0.119974
230.4052	259.3268	419.9835	427.6389	556.7196	622.2936	641.8228	642.7954	812.2273	815.2148	859.0706	884.6533	897.2845	940.1142	946.1658	986.0722	1044.1047	1103.641	1170.4564	1205.0651	1269.3094	1314.9924	1329.853	1339.5646	1461.6708	1490.9711	1558.3389	1630.9737	1642.7266	3165.409	3173.8522	3214.7355	3268.684
O1C=NC2=C1C=NC=C2	o1cnc2c1cncc2	
InChI=1S/C6H4N2O/c1-2-7-3-6-5(1)8-4-9-6/h1-4H	InChI=1S/C6H4N2O/c1-2-7-3-6-5(1)8-4-9-6/h1-4H
