16
gdb 12711	2.93203	2.27359	1.71749	4.1391	63.98	-0.2664	0.0123	0.2787	816.2332	0.130725	-383.759731	-383.752562	-383.751618	-383.791014	26.926	
C	-0.1025714209	 1.5329846069	 0.0633001671	-0.496355
C	 0.024795316	 0.028891102	 0.0320117443	 0.129511
C	-1.2509014075	-0.868865145	 0.2061191048	-0.283691
C	-0.5031794094	-1.7339993091	 1.2669661731	-0.233737
C	 0.7664230203	-0.8925732993	 1.044414234	 0.074687
O	 1.5883545926	-1.4278682347	-0.0427165864	-0.263397
C	 0.9900176348	-0.6031952584	-0.970746578	 0.431775
O	 1.2400235924	-0.5153253281	-2.1300978641	-0.33367
H	 0.8760799059	 2.0185897204	 0.1299042693	 0.132439
H	-0.588234946	 1.8878221263	-0.8518237437	 0.14392
H	-0.7074439477	 1.8597406128	 0.9152020052	 0.121524
H	-2.0899523693	-0.3061996925	 0.6211155963	 0.115416
H	-1.5902844922	-1.3797233872	-0.6968189038	 0.124911
H	-0.9143446142	-1.6273587061	 2.2734581581	 0.114063
H	-0.3808565404	-2.7953587587	 1.0444599543	 0.125398
H	 1.3863796455	-0.5614328691	 1.8765629197	 0.097206
124.1503	174.2138	194.7738	263.5956	278.5812	375.3287	506.444	646.5326	670.8275	730.2017	764.4036	814.3219	866.96	885.9623	925.0776	950.4494	978.3261	1007.7867	1089.3606	1116.9956	1151.0306	1187.0655	1212.1238	1221.9057	1243.3979	1274.384	1320.9621	1349.6876	1413.0134	1466.9162	1487.1945	1490.7405	1494.227	1929.1904	3033.9474	3070.3925	3076.2628	3104.325	3106.2616	3119.7028	3126.7853	3137.6899
CC12CCC1OC2=O	C[C@]12CC[C@H]1OC2=O	
InChI=1S/C6H8O2/c1-6-3-2-4(6)8-5(6)7/h4H,2-3H2,1H3	InChI=1S/C6H8O2/c1-6-3-2-4(6)8-5(6)7/h4H,2-3H2,1H3/t4-,6+/m1/s1
