16
gdb 44727	2.43608	1.67516	1.17368	1.9488	74.31	-0.2386	-0.036	0.2026	1046.0189	0.123154	-400.677392	-400.669481	-400.668537	-400.710396	29.905	
O	 0.1415432951	 0.0413771759	-0.6241568181	-0.276021
C	 0.045213524	 1.1430271248	-0.1786879052	 0.403202
C	-1.0853210243	 1.9888380174	 0.4438939108	-0.306887
N	-0.1437373268	 3.1430643453	 0.5874971816	-0.126588
C	 0.5829752104	 3.1308928769	 1.8963384059	-0.189307
C	 1.8474665663	 2.4680982845	 1.2544995481	-0.197861
C	 2.3811892107	 1.2643748016	 1.8527987722	 0.324279
C	 2.8036944843	 0.2603683083	 2.3616024893	-0.445671
C	 0.9871926599	 2.3540166807	-0.0461007232	-0.131931
H	-1.9016058088	 2.2006485191	-0.2557449942	 0.141261
H	-1.5147749153	 1.6093780168	 1.3777331317	 0.134566
H	 0.7488482084	 4.1344116627	 2.2949115025	 0.120334
H	 0.1034763327	 2.5172637138	 2.6653633997	 0.115902
H	 2.6456902528	 3.20099241	 1.1085844855	 0.120632
H	 3.1803556439	-0.630048477	 2.8010995371	 0.203967
H	 1.4387232868	 2.7189442393	-0.9723189037	 0.110125
57.6831	87.749	183.9234	240.7679	396.3055	407.8318	452.159	492.4545	563.9037	624.2439	642.6855	646.7914	690.8555	748.785	852.7346	902.0238	936.4726	938.3811	980.8424	1028.0003	1046.1996	1087.9128	1104.1764	1162.6592	1180.0282	1191.0147	1197.3248	1254.2356	1280.1675	1305.1152	1343.7861	1451.3763	1506.1183	1906.4052	2236.6568	3036.5425	3049.5443	3064.8273	3082.1401	3087.3872	3106.9869	3503.206
O=C1CN2CC(C#C)C12	O=C1CN2C[C@@H](C#C)[C@@H]12	
InChI=1S/C7H7NO/c1-2-5-3-8-4-6(9)7(5)8/h1,5,7H,3-4H2	InChI=1S/C7H7NO/c1-2-5-3-8-4-6(9)7(5)8/h1,5,7H,3-4H2/t5-,7+/m1/s1
