17
gdb 109136	4.30746	1.05656	0.87948	3.0263	70.75	-0.2291	-0.0205	0.2085	1283.3201	0.136474	-455.174792	-455.166118	-455.165174	-455.20892	31.071	
C	 0.1802154569	 1.3835805013	-0.1925628001	-0.228566
O	 0.1051253648	-0.0337784604	-0.0303317355	-0.265624
C	 0.5735214171	-0.5179772997	 1.136292262	 0.48282
N	 1.1378800648	 0.2165664721	 2.0094917417	-0.367895
C	 1.462278297	-0.4236559495	 3.2719543952	-0.262965
C	 1.8429761064	-1.8981217188	 3.1953470497	 0.374764
O	 2.5351264641	-2.4486197442	 4.015101093	-0.301262
C	 1.3025438283	-2.6607945029	 1.9849642733	-0.271692
N	 0.3297125491	-1.8727082636	 1.2414882487	-0.366158
H	 1.2205206037	 1.7189108338	-0.1909920348	 0.139681
H	-0.2881025287	 1.5931039353	-1.1551115496	 0.12716
H	-0.3506192098	 1.895041345	 0.6144954297	 0.137991
H	 2.2762755101	 0.1092852331	 3.7719568118	 0.136031
H	 0.5986426626	-0.3702531034	 3.9573597133	 0.133336
H	 2.1770895794	-2.937874111	 1.374952626	 0.1369
H	 0.8472049851	-3.5903882813	 2.3388295416	 0.14473
H	-0.0228424208	-2.2905617957	 0.3923052942	 0.250751
43.2395	111.7273	151.3124	162.4612	226.7645	268.0919	409.2003	420.6693	454.7875	523.2007	574.2627	614.8856	722.8046	740.1952	769.2669	843.038	958.0528	1033.5155	1042.3212	1094.0677	1160.4395	1184.1053	1200.7702	1217.5041	1246.212	1259.2377	1293.6812	1303.2868	1351.088	1454.3177	1462.3291	1474.033	1477.1887	1501.6373	1539.8331	1746.6551	1827.9829	2965.5705	2983.5757	3049.4554	3082.67	3084.5172	3123.7825	3151.3452	3600.0996
COC1=NCC(=O)CN1	COC1=NCC(=O)CN1	
InChI=1S/C5H8N2O2/c1-9-5-6-2-4(8)3-7-5/h2-3H2,1H3,(H,6,7)	InChI=1S/C5H8N2O2/c1-9-5-6-2-4(8)3-7-5/h2-3H2,1H3,(H,6,7)
