21
gdb 64474	2.52824	1.4504	1.16699	2.3239	80.78	-0.2365	0.0042	0.2407	1158.6346	0.182102	-424.224446	-424.215222	-424.214278	-424.258517	35.41	
C	 0.2984532759	 1.5815346686	-0.020926848	-0.424123
C	-0.0955147064	 0.0948665413	-0.0025538525	 0.303677
O	-1.5231219285	-0.0246948873	-0.0974976895	-0.456291
C	 0.4485033165	-0.5542513965	-1.2884668088	-0.076426
O	 0.0793811637	-1.8937361977	-1.5077291868	-0.238609
C	 0.7865964652	-2.8549800686	-0.7548984102	-0.069929
C	 0.274693364	-3.0149893661	 0.6785140906	-0.254987
C	 0.5203311385	-1.8350834802	 1.5837824575	-0.075093
C	 0.3971636579	-0.5398439554	 1.2896427271	-0.103991
H	 1.3860673797	 1.7097250418	 0.0087878196	 0.116421
H	-0.0911289635	 2.0680986992	-0.9190772107	 0.122237
H	-0.1219884725	 2.0935942783	 0.8513387126	 0.107792
H	-1.8894111045	 0.1803789166	 0.7690129526	 0.274217
H	 0.0336277222	 0.0027204214	-2.1349722561	 0.108163
H	 1.5446051699	-0.4427865586	-1.3016284113	 0.082557
H	 0.6585572591	-3.8032584709	-1.2884812365	 0.10221
H	 1.8632478121	-2.6171617429	-0.7424395044	 0.084782
H	-0.8022639734	-3.2278254127	 0.6349789662	 0.130216
H	 0.7485495771	-3.9049551374	 1.1098376875	 0.097785
H	 0.8163326339	-2.0822099946	 2.601933313	 0.090245
H	 0.610628983	 0.1731760817	 2.085228058	 0.079145
32.7711	160.4045	213.4337	227.7392	259.6995	274.5863	298.2402	351.6706	406.7667	416.7141	454.294	535.536	580.486	653.5356	744.8532	795.5847	818.4205	889.8241	907.2799	959.9935	990.0043	998.1259	1012.3285	1054.0916	1081.2914	1113.259	1140.5176	1165.5696	1197.3871	1240.0756	1272.4954	1306.8239	1342.7476	1370.0226	1387.1733	1395.5	1399.592	1426.9531	1439.8531	1459.6192	1470.8956	1489.2599	1492.6475	1495.7504	1720.9235	2968.5781	2979.8275	3017.9794	3030.3042	3059.842	3064.3536	3075.0058	3096.7968	3117.3159	3120.081	3146.0648	3812.5112
CC1(O)COCCC=C1	C[C@@]1(O)COCCC=C1	
InChI=1S/C7H12O2/c1-7(8)4-2-3-5-9-6-7/h2,4,8H,3,5-6H2,1H3	InChI=1S/C7H12O2/c1-7(8)4-2-3-5-9-6-7/h2,4,8H,3,5-6H2,1H3/t7-/m0/s1
