17
gdb 109099	3.00945	1.25346	0.95073	4.8017	76.86	-0.2312	-0.0917	0.1395	1235.5877	0.135096	-421.877933	-421.869242	-421.868298	-421.911887	31.432	
C	 0.1329198767	 1.5420742786	-0.1315099429	-0.382666
C	-0.0747186614	 0.029441612	 0.0665476647	-0.291259
C	 0.657263196	-0.5021037218	 1.260620605	 0.222873
C	 0.1469198484	-0.992869545	 2.4062635528	-0.181215
C	 1.17047734	-1.442790209	 3.4168476623	-0.384038
C	 2.4938209934	-1.1646563331	 2.7045598179	 0.325793
O	 3.6046325616	-1.3641254806	 3.1103444807	-0.272083
C	 2.1347298443	-0.5585519058	 1.317195465	 0.235598
O	 2.9340218101	-0.2201232074	 0.4768217455	-0.305608
H	 1.1938946113	 1.7699115164	-0.2581957002	 0.150487
H	-0.4005209765	 1.886860339	-1.0218757329	 0.119355
H	-0.2409953703	 2.1062010549	 0.7286909436	 0.11622
H	-1.1424458567	-0.1974799669	 0.1597904798	 0.103928
H	 0.2906189969	-0.4942910036	-0.8253343819	 0.126034
H	-0.9180933737	-1.0710586255	 2.6053088242	 0.118635
H	 1.1137875905	-0.8894569583	 4.3624546387	 0.149068
H	 1.0834097693	-2.5054071139	 3.6748705877	 0.148878
66.2393	73.2708	160.4773	199.7044	258.2204	285.5759	320.7258	362.1399	482.3882	549.5931	574.6976	671.754	710.7112	756.4656	793.5626	849.1697	910.3828	973.0667	988.0843	1011.9122	1058.1147	1094.4844	1110.02	1148.1468	1249.9468	1276.9146	1290.9057	1353.9202	1370.7419	1405.9398	1444.6424	1478.2139	1497.8971	1511.4355	1673.0525	1808.0726	1863.2089	3030.816	3034.7581	3044.0077	3064.9413	3071.7937	3112.8683	3132.8769	3174.3677
CCC1=CCC(=O)C1=O	CCC1=CCC(=O)C1=O	
InChI=1S/C7H8O2/c1-2-5-3-4-6(8)7(5)9/h3H,2,4H2,1H3	InChI=1S/C7H8O2/c1-2-5-3-4-6(8)7(5)9/h3H,2,4H2,1H3
