15
gdb 53918	1.8544	1.57861	1.24155	2.6207	74.04	-0.2519	-0.031	0.2209	1103.497	0.106085	-420.556207	-420.545938	-420.544994	-420.591513	36.606	
C	 0.7544705534	 1.1903745958	 0.1468622192	-0.478162
C	-0.3531983308	 0.1870540052	-0.0655612547	 0.387284
O	-1.2419778076	-0.019328636	 0.7131969853	-0.277618
C	-0.2625275201	-0.6399063025	-1.4085811159	-0.147284
O	 0.2810466273	 0.2521848387	-2.3805733943	-0.430515
C	 0.6522538605	-1.7629089499	-1.1505686393	 0.342697
C	 1.4299595593	-2.6531604151	-0.9338880813	-0.481063
C	-1.5832352213	-1.1328189171	-1.8073821764	 0.355171
C	-2.6551185489	-1.5206777682	-2.1836721892	-0.440298
H	 1.7300026626	 0.7291438082	-0.0307294144	 0.152217
H	 0.653619198	 2.0038912001	-0.5771835151	 0.16491
H	 0.6911461374	 1.5806706425	 1.1629723213	 0.140649
H	 0.3902701281	-0.2441247104	-3.1999104016	 0.294522
H	 2.1054222407	-3.4513535752	-0.7449212717	 0.211515
H	-3.6094248887	-1.8644124161	-2.4994575319	 0.205977
44.1869	119.0379	127.5451	151.0422	152.7643	220.6461	277.0529	284.3874	363.2791	401.8856	454.229	511.7881	556.5084	588.9121	610.5724	646.7482	647.8614	667.7858	671.6289	674.0396	910.8288	966.6988	1012.6751	1084.9117	1131.7052	1179.8322	1342.7307	1380.7505	1457.3939	1466.6992	1844.4667	2228.5825	2242.7311	3055.3908	3123.8686	3160.8218	3498.2798	3500.3046	3805.2843
CC(=O)C(O)(C#C)C#C	CC(=O)C(O)(C#C)C#C	
InChI=1S/C7H6O2/c1-4-7(9,5-2)6(3)8/h1-2,9H,3H3	InChI=1S/C7H6O2/c1-4-7(9,5-2)6(3)8/h1-2,9H,3H3
