15
gdb 50392	5.98348	0.8712	0.76773	0.5599	76.08	-0.2584	-0.0615	0.1968	1370.7185	0.113612	-416.856352	-416.848241	-416.847297	-416.890106	28.497	
O	 0.0022944889	 0.0067254389	-0.005948628	-0.330628
C	 0.0439682017	 1.2191849568	 0.0045645827	 0.147217
N	 1.194371923	 1.9392560256	-0.0011011651	-0.077194
C	 2.5045121072	 1.2878419466	-0.0209559309	-0.191076
C	 3.4402995821	 2.4569628903	-0.0203514958	-0.181115
C	 2.7754037384	 3.617831468	-0.002890796	 0.200645
C	 1.2761105043	 3.3986428231	 0.0109829505	-0.267784
C	 3.3430891572	 4.9189496208	 0.0027745896	 0.21564
N	 3.7758708472	 5.9930487385	 0.0078399955	-0.321504
H	-0.8581737882	 1.8622732359	 0.0199399819	 0.080443
H	 2.6417785807	 0.6340976124	 0.851229121	 0.148133
H	 2.6230682572	 0.6500364294	-0.9075746939	 0.148127
H	 4.5167630615	 2.3513360788	-0.0326956905	 0.14146
H	 0.7941914091	 3.8523692618	-0.8655302456	 0.143816
H	 0.8128325899	 3.8366421832	 0.9053585247	 0.14382
33.801	134.5887	163.1439	189.4343	236.1354	325.5976	387.3938	426.0547	564.1316	564.6984	612.503	771.974	856.2715	871.677	894.611	999.46	1020.8712	1036.0492	1048.1429	1167.976	1186.4049	1200.8496	1239.9786	1286.5825	1331.434	1356.7068	1405.7249	1445.2005	1503.0915	1520.4638	1687.4927	1795.6663	2345.2463	2939.4348	3005.9001	3013.3628	3031.795	3034.1693	3235.7431
O=CN1CC=C(C1)C#N	O=CN1CC=C(C1)C#N	
InChI=1S/C6H6N2O/c7-3-6-1-2-8(4-6)5-9/h1,5H,2,4H2	InChI=1S/C6H6N2O/c7-3-6-1-2-8(4-6)5-9/h1,5H,2,4H2
