14
gdb 80323	3.7986	1.26054	1.20752	0.8596	71.16	-0.2435	-0.0365	0.2071	1040.3775	0.10002	-436.630472	-436.622782	-436.621838	-436.662707	28.907	
O	-0.0205894299	 1.4435561419	 0.2967166259	-0.412572
C	-0.0329493567	 0.0648781335	 0.152500732	 0.069492
C	-0.4865182298	-0.7733063756	 1.3117934467	 0.005729
O	-1.2628832424	-0.106310034	 2.2833890768	-0.230904
C	-2.375859331	 0.3400430021	 1.6290344461	 0.266126
N	-2.5247344079	 0.0075370855	 0.4001442625	-0.325632
C	-1.3385476208	-0.7115607431	 0.032184123	-0.120974
C	-3.2801461661	 1.1174469328	 2.3996532193	 0.270829
C	-4.0412081728	 1.772792623	 3.0587128888	-0.360633
H	-0.5632277651	 1.826866969	-0.4016507442	 0.300194
H	 0.7936360805	-0.3610805407	-0.4159129349	 0.10436
H	 0.0738517574	-1.6082182172	 1.711376955	 0.119375
H	-1.4449309411	-1.4966920457	-0.706585813	 0.106079
H	-4.7186227743	 2.3523431786	 3.636792746	 0.20853
99.1464	162.0042	167.6017	231.3709	270.031	392.4401	516.191	570.3577	589.4907	647.4123	661.5284	678.1204	697.1413	772.9298	776.9526	833.5275	923.6279	963.8932	1022.4761	1029.281	1079.238	1120.2703	1124.4303	1214.7934	1244.1243	1320.992	1323.1749	1352.7916	1426.1164	1646.8681	2252.5923	3107.0433	3182.9703	3203.5941	3500.4806	3798.5053
OC1C2OC(=NC12)C#C	O[C@H]1[C@H]2OC(=N[C@@H]12)C#C	
InChI=1S/C6H5NO2/c1-2-3-7-4-5(8)6(4)9-3/h1,4-6,8H	InChI=1S/C6H5NO2/c1-2-3-7-4-5(8)6(4)9-3/h1,4-6,8H/t4-,5+,6-/m0/s1
