19
gdb 78883	2.5616	2.10035	1.46301	1.3436	76.61	-0.2152	0.0694	0.2846	941.0944	0.159847	-385.842039	-385.834647	-385.833703	-385.87325	30.813	
C	 0.0975372968	 1.5909218242	-0.0156527073	-0.392917
C	 0.0078150902	 0.0650257844	-0.0178705873	-0.06472
C	 0.812855902	-0.6224753426	-1.1022245958	-0.077202
C	 2.2423083279	-0.8693180963	-0.6397078288	-0.087727
C	 1.2494262129	-2.0146901825	-0.674059159	-0.104109
C	 1.158423527	-1.9873224096	 0.8693583199	-0.172419
C	 2.1533314151	-0.8349853145	 0.9037563113	-0.11733
C	 0.690467071	-0.575126635	 1.1877148327	 0.386326
O	 0.3501359228	-0.2159579449	 2.4864878082	-0.483758
H	 1.1431630518	 1.9156843113	-0.0289015207	 0.119055
H	-0.4033269896	 2.0221701105	-0.8883554527	 0.104861
H	-0.3695739906	 2.0022050405	 0.8845677479	 0.117613
H	-1.0457354184	-0.2467563178	-0.0626014159	 0.060385
H	 0.6265260404	-0.4307949957	-2.1524882555	 0.082793
H	 3.1220119532	-0.698842054	-1.2449698108	 0.084553
H	 1.2211795323	-2.8866257957	-1.3134751089	 0.085087
H	 1.0578464583	-2.8228356521	 1.5486525314	 0.0847
H	 2.9408052606	-0.6310051166	 1.6153443699	 0.091197
H	-0.5011803736	-0.6171743336	 2.6937940315	 0.283611
175.033	199.0968	229.3067	289.5953	333.313	382.7177	530.6103	568.5739	589.9533	693.6335	717.3792	745.1931	756.36	812.2486	842.4234	876.8521	912.605	920.5103	940.0604	946.1273	962.1033	975.3191	1036.6836	1038.6336	1051.1105	1093.6461	1104.6857	1123.7666	1148.7741	1195.102	1220.1053	1252.3314	1281.1209	1300.3889	1311.2802	1357.1022	1378.9586	1405.9029	1427.0097	1493.1193	1497.4097	3002.3896	3033.5547	3102.5789	3106.9021	3183.192	3194.2624	3205.5647	3208.4437	3220.0776	3791.5054
CC1C2C3C2C2C3C12O	C[C@H]1[C@H]2[C@@H]3[C@H]2[C@H]2[C@@H]3[C@@]12O	
InChI=1S/C8H10O/c1-2-3-4-5(3)7-6(4)8(2,7)9/h2-7,9H,1H3	InChI=1S/C8H10O/c1-2-3-4-5(3)7-6(4)8(2,7)9/h2-7,9H,1H3/t2-,3-,4+,5-,6+,7-,8-/m0/s1
