15
gdb 44693	3.31883	1.40557	1.19826	3.2341	67.1	-0.2294	-0.0474	0.182	1021.8359	0.113518	-453.96647	-453.959101	-453.958157	-453.999098	27.871	
N	-0.2740817765	 1.2860303238	-0.3021491493	-0.576752
C	-0.0966611713	 0.0638486217	-0.0407653786	 0.446934
N	-1.0564593375	-0.9268579966	-0.1742376057	-0.323535
C	-0.6456814655	-2.1555492109	 0.4542288674	-0.135725
C	 0.8563301754	-1.8671382676	 0.7701538293	 0.080694
C	 0.6152387247	-2.0499080289	 2.2935241407	-0.375038
C	-0.8837862821	-2.260109077	 1.9941928686	 0.388135
O	-1.8573888965	-2.4159565271	 2.6663607156	-0.276948
O	 1.0776176517	-0.5142698095	 0.3805359474	-0.24865
H	 0.5838441939	 1.8116321236	-0.1558816097	 0.227936
H	-2.0206627875	-0.6347644957	-0.1869440599	 0.27299
H	-0.9042307639	-3.0477809451	-0.1238779339	 0.112922
H	 1.6171325889	-2.4980917237	 0.3123403362	 0.108918
H	 1.0848361599	-2.9392825832	 2.7258157715	 0.14456
H	 0.8641388463	-1.1830826736	 2.9110814106	 0.15356
46.651	106.161	207.4521	370.5556	406.7813	444.6678	474.8881	513.2371	618.3712	684.7351	716.4879	754.0473	786.733	797.9828	867.4779	911.8936	933.7842	974.5493	1039.3825	1056.9901	1066.4397	1125.3651	1150.0955	1187.9757	1238.1716	1250.5339	1297.0278	1325.3645	1396.3727	1403.1622	1418.992	1792.2299	1903.0556	3060.7477	3064.1567	3118.8742	3126.6074	3539.0167	3651.6719
N=C1NC2C(CC2=O)O1	[NH][C]1N[C@H]2[C@H](CC2=O)O1	
InChI=1S/C5H6N2O2/c6-5-7-4-2(8)1-3(4)9-5/h3-4H,1H2,(H2,6,7)	InChI=1S/C5H6N2O2/c6-5-7-4-2(8)1-3(4)9-5/h3-4H,1H2,(H2,6,7)/t3-,4+/m0/s1
