16
gdb 60701	3.45383	0.64725	0.61792	3.4616	78.02	-0.2576	-0.0454	0.2122	1804.6961	0.120973	-437.898047	-437.8875	-437.886556	-437.936411	35.001	
C	 0.1931168134	 1.4051571783	 0.1686794478	-0.398944
C	-0.0875562112	-0.1064156148	-0.0238297032	-0.228682
C	-1.607674726	-0.3135709971	-0.0971845	 0.171285
O	-2.2601017785	-0.7697127431	 0.8004626919	-0.236079
C	 0.5350079296	-0.6193984213	-1.2364076349	 0.053658
C	 1.0041222443	-1.0329829854	-2.2677140258	 0.032473
C	 1.5292451826	-1.4859454649	-3.5498596448	 0.266032
N	 2.532272256	-2.4048061566	-3.4413001912	-0.520175
O	 1.1119367306	-1.0678144246	-4.6120772425	-0.330931
H	 1.269750409	 1.5856784054	 0.2039660571	 0.142516
H	-0.2221044481	 1.985380852	-0.6601121235	 0.142425
H	-0.2555282616	 1.7503866498	 1.1037968086	 0.139123
H	 0.264092715	-0.6579733752	 0.8547353715	 0.129084
H	-2.0643441377	 0.0255048732	-1.0522852845	 0.102487
H	 2.7959446512	-2.7929275927	-2.5526402424	 0.267562
H	 2.9011552215	-2.8068554131	-4.2876814442	 0.268165
13.1529	49.4496	80.1736	99.9844	160.0688	196.322	225.8185	234.5489	302.0053	394.2077	444.9207	514.7016	533.7219	571.5562	617.9646	728.0501	772.1396	878.4741	924.4401	1009.4563	1077.8295	1090.5307	1106.7843	1148.1823	1264.7783	1322.9411	1351.6718	1399.2157	1416.5328	1491.819	1497.5918	1608.9615	1775.7447	1840.461	2341.6883	2902.7953	3048.5623	3057.8926	3128.4094	3134.1342	3601.0099	3742.4445
CC(C=O)C#CC(N)=O	C[C@@H](C=O)C#CC(=O)N	
InChI=1S/C6H7NO2/c1-5(4-8)2-3-6(7)9/h4-5H,1H3,(H2,7,9)	InChI=1S/C6H7NO2/c1-5(4-8)2-3-6(7)9/h4-5H,1H3,(H2,7,9)/t5-/m1/s1
