25
gdb 85946	2.43006	1.30167	1.08099	0.1395	94.1	-0.2357	0.03	0.2657	1303.1913	0.229106	-352.389768	-352.380089	-352.379145	-352.423248	38.705	
C	 0.0158270027	 1.6073047265	-0.0047145079	-0.400858
C	 0.0222742794	 0.0712863298	 0.0498430996	-0.034268
C	 0.6114515867	-0.5317039991	-1.2367762603	-0.203817
C	 0.9130101763	-2.0432660306	-1.1393774104	 0.258368
C	-0.376471214	-2.8411698892	-0.8650163916	-0.411755
C	 1.5255614777	-2.5255837447	-2.4635718149	-0.422421
C	 1.9225054365	-2.2655891406	 0.0108045099	-0.260693
C	 1.6091857782	-1.4602832318	 1.2452918191	-0.083266
C	 0.7632347818	-0.431102641	 1.2646162383	-0.028527
H	 1.0359057845	 2.0003509506	-0.0783400783	 0.115604
H	-0.547867882	 1.9668134008	-0.8722153179	 0.10956
H	-0.4427918748	 2.0339182991	 0.8937581948	 0.108933
H	-1.0281270736	-0.2487212184	 0.1369453155	 0.080489
H	-0.066688094	-0.3417493636	-2.0786768058	 0.083924
H	 1.5483603554	-0.0060625539	-1.4690108072	 0.086896
H	-1.1413905952	-2.6231070721	-1.6189098834	 0.104956
H	-0.1768698685	-3.9180172415	-0.8982061445	 0.105306
H	-0.7949957266	-2.6139545955	 0.1192370333	 0.121034
H	 2.4255169159	-1.9538281369	-2.7162443001	 0.106446
H	 1.8064480596	-3.5835401438	-2.4065444869	 0.106268
H	 0.8151380845	-2.4145486796	-3.290546576	 0.10649
H	 1.9623387685	-3.3334174008	 0.2660810787	 0.095368
H	 2.9369759049	-2.0144648363	-0.3343869227	 0.099246
H	 2.1178184726	-1.7539664599	 2.1612110903	 0.08063
H	 0.5792094535	 0.0972682923	 2.1986454285	 0.076086
108.0707	152.8806	228.8133	239.1732	241.2375	273.2371	302.5366	311.8465	330.5713	406.0205	420.0296	463.3847	491.9588	529.7243	683.0783	725.2188	796.5786	845.9231	895.952	911.6055	918.6625	947.1714	965.7423	996.6958	1001.9533	1006.8149	1027.6548	1067.1267	1081.1474	1137.3601	1163.0861	1173.3138	1203.3046	1245.6168	1284.922	1305.9801	1318.1797	1335.3186	1367.4801	1378.5224	1397.5253	1402.2662	1416.5024	1427.1993	1470.6251	1479.924	1487.53	1495.1287	1497.3392	1501.0254	1503.2522	1512.5925	1721.8106	2971.6714	2990.0744	3005.4078	3019.9535	3024.7922	3026.1027	3029.2418	3047.188	3085.6667	3090.4133	3091.3803	3095.8651	3097.5453	3110.4003	3129.1975	3154.6003
CC1CC(C)(C)CC=C1	C[C@H]1CC(C)(C)CC=C1	
InChI=1S/C9H16/c1-8-5-4-6-9(2,3)7-8/h4-5,8H,6-7H2,1-3H3	InChI=1S/C9H16/c1-8-5-4-6-9(2,3)7-8/h4-5,8H,6-7H2,1-3H3/t8-/m1/s1
