15
gdb 128643	2.76666	1.61831	1.02766	0.8108	73.84	-0.2179	-0.0472	0.1707	1096.6569	0.114686	-450.130461	-450.122646	-450.121702	-450.163031	28.696	
C	-0.1257582925	 1.3625463077	 0.0481818307	-0.23767
O	-0.0571001926	-0.0677686582	 0.0926621942	-0.217922
C	 0.6542230409	-0.6011237088	 1.070601481	 0.451233
N	 1.2628444599	 0.1242180455	 1.950262868	-0.369117
C	 1.9751236688	-0.5354699663	 2.9248864295	 0.072288
N	 2.1019768138	-1.8154972815	 3.0563500099	-0.197593
N	 1.4529145915	-2.5514076275	 2.1197576969	-0.301853
C	 0.6858864777	-2.0826136946	 1.0611498118	 0.304111
N	 0.0734574259	-2.7741226742	 0.1771882505	-0.536941
H	 0.8725828507	 1.7921841521	-0.0664129316	 0.144172
H	-0.7477913276	 1.5931943376	-0.8160770054	 0.141978
H	-0.5738017793	 1.7548080772	 0.9645887768	 0.144161
H	 2.4823210038	 0.0796634217	 3.6582937473	 0.132448
H	 1.5597277694	-3.5484069736	 2.2331995214	 0.265738
H	 0.2069518997	-3.7764841171	 0.327901379	 0.204968
98.8791	145.1506	163.4994	224.5226	264.4427	356.0207	469.104	526.1091	562.8309	565.0145	598.8622	649.0132	783.0589	793.3203	830.363	915.2576	922.7557	1032.0764	1089.1168	1147.1145	1176.7215	1186.0044	1239.1954	1325.6563	1386.0536	1404.693	1449.7182	1479.4146	1488.5039	1494.67	1599.1497	1642.4584	1709.6947	3052.2686	3127.6022	3165.1092	3212.0751	3447.0434	3618.9691
COC1=NC=NNC1=N	COc1ncn[nH]c1[NH]	
InChI=1S/C4H6N4O/c1-9-4-3(5)8-7-2-6-4/h2H,1H3,(H2,5,8)	InChI=1S/C4H11N4O/c1-9-4-3(5)8-7-2-6-4/h3-8H,2H2,1H3
