16
gdb 61008	3.56302	0.99377	0.87235	4.4221	67.45	-0.2461	-0.0491	0.197	1291.4758	0.121729	-475.000009	-474.991001	-474.990057	-475.035008	31.707	
O	-0.5650109764	 1.1812553878	-0.0361728109	-0.423146
C	-0.1230072898	-0.1414673535	-0.0302065839	 0.038801
C	 0.8652701134	-0.3681415449	-1.1655141716	 0.146813
O	 1.2178051924	 0.5342481747	-1.882262292	-0.250135
C	 0.5417257505	-0.5620290952	 1.2810948017	-0.048691
N	 1.5782071299	 0.3001828446	 1.8262281802	-0.32654
C	 0.3315353972	 0.1325493995	 2.5949066467	-0.1242
C	-0.5071857486	 1.361342323	 2.7930256691	 0.179416
O	-1.4112975368	 1.3940581825	 3.5897480451	-0.26362
H	 0.0000616402	 1.647851131	-0.6732265381	 0.302352
H	-0.9754152326	-0.8232855723	-0.1949336436	 0.109613
H	 1.2525522605	-1.4000362143	-1.2874994583	 0.100811
H	 0.6779338791	-1.6418480552	 1.3576381191	 0.099232
H	 2.3381477848	-0.2344948173	 2.2362786667	 0.245937
H	 0.3283218991	-0.5221969891	 3.4646102126	 0.110892
H	-0.2073922329	 2.2320597989	 2.1846825472	 0.102462
40.9797	65.7258	97.8819	212.0239	246.9696	294.7821	313.7876	335.5033	423.0609	451.262	521.2328	668.8147	717.94	799.691	839.5759	866.149	918.3949	985.2952	995.3497	1029.0992	1047.9949	1106.7903	1150.3517	1199.5894	1223.8956	1239.736	1265.6558	1343.4927	1363.7849	1393.7872	1415.5956	1432.5921	1464.8601	1816.8062	1821.8941	2930.3065	2967.6202	2990.6567	3095.6842	3133.0775	3519.7837	3685.1921
OC(C=O)C1NC1C=O	O[C@@H](C=O)[C@H]1N[C@H]1C=O	
InChI=1S/C5H7NO3/c7-1-3-5(6-3)4(9)2-8/h1-6,9H	InChI=1S/C5H7NO3/c7-1-3-5(6-3)4(9)2-8/h1-6,9H/t3-,4-,5-/m0/s1
