20
gdb 58041	1.96937	1.33672	0.96848	2.7058	75.46	-0.2796	0.0291	0.3087	1304.5392	0.167923	-440.30452	-440.293733	-440.292789	-440.340248	38.825	
C	 0.760426884	-0.3264123093	-1.3062536819	-0.422645
C	-0.0788433712	 0.2803420066	-0.1845864338	 0.115506
O	-0.3751677697	 1.6498351777	-0.4444639828	-0.4369
C	-1.4656853765	-0.3839985837	-0.0227826455	-0.143003
C	-1.3545212623	-1.8373834524	 0.1005499835	 0.266154
N	-1.2833088116	-2.980789947	 0.2592555418	-0.343052
C	-2.2200210701	 0.1758188483	 1.222460733	 0.123478
C	-3.6844714547	-0.252700934	 1.2634042741	-0.427633
O	-1.5301885	-0.1591974456	 2.4152900291	-0.433962
H	 1.7137678725	 0.2061594556	-1.3918185308	 0.111489
H	 0.9818216063	-1.3799609061	-1.1142563351	 0.145145
H	 0.2383154661	-0.2436462425	-2.2648589541	 0.126611
H	 0.443404052	 0.1761475915	 0.7764008674	 0.10137
H	 0.4491418333	 2.1445344683	-0.4136643751	 0.290234
H	-2.046986784	-0.1537655881	-0.9244540806	 0.128188
H	-2.1495569233	 1.2632908938	 1.1465046793	 0.120979
H	-4.2259766966	 0.1058750405	 0.3821182019	 0.122018
H	-3.7771936498	-1.3445354653	 1.2958222082	 0.132101
H	-4.1628682048	 0.1596931145	 2.1553128487	 0.131868
H	-1.6311447196	-1.1079234728	 2.5628568926	 0.292054
69.2596	78.2687	139.6634	169.1711	177.0177	218.1771	246.6634	249.0162	305.3441	349.5838	379.8788	413.1096	432.1556	469.6773	493.8606	551.7272	675.953	815.8376	877.6163	920.4626	962.0792	971.1301	1050.5897	1060.7575	1089.9404	1109.2909	1124.8336	1166.2791	1228.3479	1258.6693	1298.4112	1332.5136	1354.7594	1375.0362	1407.2736	1411.1367	1417.3433	1436.0329	1491.5333	1493.8301	1496.8771	1498.7697	2348.8942	3016.4307	3033.2957	3035.4847	3045.9877	3090.5192	3103.8299	3109.8124	3123.5948	3124.0831	3777.4388	3832.5531
CC(O)C(C#N)C(C)O	C[C@@H](O)[C@@H](C#N)[C@@H](C)O	
InChI=1S/C6H11NO2/c1-4(8)6(3-7)5(2)9/h4-6,8-9H,1-2H3	InChI=1S/C6H11NO2/c1-4(8)6(3-7)5(2)9/h4-6,8-9H,1-2H3/t4-,5-/m1/s1
