16
gdb 52752	1.9545	1.01066	0.71853	3.7759	81.84	-0.252	0.0185	0.2705	1571.9091	0.120782	-400.705533	-400.695067	-400.694123	-400.743669	35.095	
C	-0.0674724434	 1.3509706797	 0.2321674831	-0.499271
C	-0.0140572407	-0.0914369122	 0.0476164181	 0.076982
C	 0.0359772512	-1.2841218692	-0.1010213121	 0.094851
C	 0.0904154588	-2.7394071446	-0.2831934533	-0.345804
N	-1.2391257969	-3.3472429134	-0.1901061143	-0.255228
C	-1.5501404581	-4.2540224797	 0.775728754	 0.165431
O	-0.7878276438	-4.6505181546	 1.6304177039	-0.31963
C	 0.7507643489	-3.0979995506	-1.5462624384	 0.335857
C	 1.2811125516	-3.3951024982	-2.5816277839	-0.441497
H	 0.5895178445	 1.6694539016	 1.0485338728	 0.155697
H	 0.2458848422	 1.8783792642	-0.6751595486	 0.153924
H	-1.0834229648	 1.6802438979	 0.4756388147	 0.152677
H	 0.6461682443	-3.1916654804	 0.5492768119	 0.177353
H	-1.9383764117	-3.0671360306	-0.8594744497	 0.258615
H	-2.5995538414	-4.5961124257	 0.6915158384	 0.085986
H	 1.7594006993	-3.6582494641	-3.4927198066	 0.204058
17.8413	34.4046	84.3327	105.0415	142.3163	216.1118	242.3599	279.8154	336.9271	371.0062	490.3653	516.8557	543.7176	550.4557	634.2353	659.9123	716.8052	863.4912	971.7026	1029.0458	1035.967	1052.8421	1054.0364	1172.1266	1190.557	1318.099	1322.4067	1413.7691	1424.1975	1475.9587	1477.4042	1507.2059	1801.958	2243.2643	2377.5983	2949.844	3030.3505	3032.4994	3092.9755	3094.1722	3502.7846	3640.2629
CC#CC(NC=O)C#C	CC#C[C@@H](NC=O)C#C	
InChI=1S/C7H7NO/c1-3-5-7(4-2)8-6-9/h2,6-7H,1H3,(H,8,9)	InChI=1S/C7H7NO/c1-3-5-7(4-2)8-6-9/h2,6-7H,1H3,(H,8,9)/t7-/m0/s1
