15
gdb 128060	4.5515	1.0763	0.87528	2.2845	69.84	-0.225	-0.0448	0.1802	1258.1871	0.114683	-446.297921	-446.289425	-446.288481	-446.332306	29.132	
C	-0.0379129709	 1.3668617404	 0.0740793993	-0.310914
N	-0.0046254881	-0.0675492942	-0.1047918546	-0.311603
C	 0.6694744755	-0.6364874468	-1.1405656034	 0.304722
N	 1.2592727204	 0.0652477909	-2.037064422	-0.558559
C	 0.6350938637	-2.1198556748	-1.1116158699	 0.372507
N	 1.1982807068	-2.8969494331	-2.0318691481	-0.271536
N	 0.9014355012	-4.0981542506	-1.5661022288	-0.064699
N	 0.2048055501	-4.1059659078	-0.4382946376	-0.093069
N	 0.0274299054	-2.8481674423	-0.1365626619	-0.272436
H	 0.9661823976	 1.7764549384	 0.2382703302	 0.135847
H	-0.4479506949	 1.8553706874	-0.8156030627	 0.14553
H	-0.6669903046	 1.6012653268	 0.9348539039	 0.120153
H	-0.3784469251	-0.6764742746	 0.6025026345	 0.266162
H	 1.6886857563	-0.5425417328	-2.731366625	 0.229006
H	 1.1816290566	-4.9497179568	-2.030922324	 0.308889
48.0285	73.7225	111.6175	160.2339	234.0729	295.1031	347.0745	403.5473	488.8207	601.5371	659.6354	738.1509	793.9551	803.8681	852.1091	1001.8834	1052.5227	1068.6334	1120.5365	1160.9067	1186.2654	1194.6404	1209.4683	1277.3818	1320.8432	1337.9005	1454.7771	1463.1466	1471.6682	1512.7421	1526.1301	1594.2119	1704.8221	3027.1259	3082.2751	3133.6012	3516.2317	3642.9302	3667.9467
CNC(=N)C1=NNN=N1	CNC(=N)c1n[nH]nn1	
InChI=1S/C3H6N6/c1-5-2(4)3-6-8-9-7-3/h1H3,(H2,4,5)(H,6,7,8,9)	InChI=1S/C3H6N6/c1-5-2(4)3-6-8-9-7-3/h1H3,(H2,4,5)(H,6,7,8,9)
