12
gdb 132338	2.03539	1.97179	1.00154	3.6486	60.49	-0.2434	-0.0385	0.2048	1044.1873	0.079858	-510.15921	-510.152418	-510.151473	-510.190746	25.637	
O	-0.0758439005	 1.2863811999	 0.0104023653	-0.387196
C	 0.0317799448	-0.0365765682	 0.0024446369	 0.53665
N	 1.2054914197	-0.6095803283	-0.0069153138	-0.436751
C	 1.1226034879	-1.9654603631	-0.0141646984	 0.333105
F	 2.3031189263	-2.5455240463	-0.023147217	-0.044812
N	 0.0927480543	-2.7359596473	-0.0129180665	-0.366594
C	-1.1522727807	-2.1283794947	-0.0029710199	 0.422607
N	-2.2954866196	-2.6811720954	 0.0000239596	-0.559151
N	-1.1250284836	-0.7061809357	 0.0047603017	-0.34901
H	 0.8272264277	 1.6374434642	 0.0076292395	 0.326894
H	-2.1754211648	-3.6923727241	-0.0061931084	 0.234568
H	-2.0116314914	-0.221874741	 0.0121283309	 0.289691
130.613	203.555	209.067	357.3108	379.0984	538.6964	554.8233	564.3659	616.4226	639.6772	662.9563	734.542	743.6981	798.1766	861.3838	954.5303	1024.4738	1086.3431	1158.0032	1221.7638	1304.4374	1334.3259	1434.0131	1566.9202	1615.4648	1699.8301	1755.5673	3520.8896	3620.4752	3762.3269
OC1=NC(F)=NC(=N)N1	O[C@@H]1N=C(F)N=C([NH])N1	
InChI=1S/C3H3FN4O/c4-1-6-2(5)8-3(9)7-1/h(H3,5,6,7,8,9)	InChI=1S/C3H4FN4O/c4-1-6-2(5)8-3(9)7-1/h3,5,9H,(H,6,7,8)/t3-/m1/s1
