18
gdb 30354	3.00535	1.53145	1.12476	3.1354	78.4	-0.2061	0.0327	0.2388	1081.7066	0.150931	-401.989282	-401.981658	-401.980714	-402.02127	30.226	
O	-0.3578684375	 1.4939946669	-0.2796390645	-0.43597
C	 0.0431597973	 0.1456159876	-0.0122494298	-0.006365
C	-1.1628666954	-0.8147236757	 0.2345760005	-0.225177
C	-1.4583148225	-1.5506681799	-1.108870434	-0.365361
C	-0.1345643543	-1.4508184691	-1.8165823993	 0.265892
C	 0.5357380111	-1.9634474064	-2.8987815021	-0.248478
N	 1.7720448809	-1.3482091287	-2.9268130945	-0.233422
C	 1.8988490928	-0.4581053428	-1.8867180337	-0.254357
C	 0.7200449118	-0.5096568808	-1.1807207426	 0.230739
H	-0.6240112608	 1.5305876539	-1.2044678482	 0.273045
H	 0.6675560993	 0.2214957772	 0.8833029166	 0.081311
H	-0.8718814795	-1.553881767	 0.9887802433	 0.101546
H	-2.0190213939	-0.2597041752	 0.6257531125	 0.101372
H	-1.7959451636	-2.5783718047	-0.942082636	 0.105818
H	-2.2566659075	-1.0495942087	-1.6715903112	 0.105115
H	 0.270330216	-2.6974766622	-3.6426177204	 0.119329
H	 2.4906701287	-1.5433845293	-3.6021703152	 0.259853
H	 2.8051747172	 0.1097451249	-1.7504451213	 0.125111
103.2488	148.7482	239.1792	270.418	336.6325	427.9911	461.9172	490.755	621.4774	635.8191	677.6909	693.0548	697.5408	759.1852	788.8124	809.6489	906.8715	934.0254	970.5356	1015.4697	1050.6849	1069.99	1086.0388	1161.2207	1166.7048	1188.2851	1250.8302	1261.3241	1279.2367	1305.5715	1328.3065	1337.4671	1415.2283	1432.8388	1463.5319	1473.9772	1499.6123	1555.8434	1624.2396	3019.7164	3043.9622	3062.9799	3071.264	3108.0809	3258.4878	3261.6385	3677.5615	3807.6127
OC1CCC2=CNC=C12	O[C@H]1CCc2c[nH]cc12	
InChI=1S/C7H9NO/c9-7-2-1-5-3-8-4-6(5)7/h3-4,7-9H,1-2H2	InChI=1S/C7H9NO/c9-7-2-1-5-3-8-4-6(5)7/h3-4,7-9H,1-2H2/t7-/m0/s1
