18
gdb 128290	3.59185	1.09428	0.85509	2.2117	77.42	-0.1818	0.0525	0.2343	1346.7874	0.147746	-435.279405	-435.269677	-435.268733	-435.314814	34.189	
C	 0.0569614268	 1.3391036462	-0.1714228924	-0.321489
N	-0.0748687985	-0.0175477622	 0.3280213454	-0.366691
C	-1.2931156188	-0.665802072	 0.1899086383	 0.438445
N	-1.3347915611	-1.991166534	 0.0926568081	-0.391405
N	-2.6741159221	-2.2902738941	 0.0445659258	-0.015955
C	-3.108180411	-3.6600994503	-0.0704981471	-0.32383
C	-3.4276962249	-1.1759627051	 0.0937015151	 0.473311
O	-4.7755210003	-1.2920424908	 0.0453417945	-0.43915
C	-2.587668954	-0.0823073416	 0.1865447525	-0.482644
H	 1.0848874803	 1.6758259243	-0.0155786911	 0.122378
H	-0.1888760746	 1.449411902	-1.2398764099	 0.108603
H	-0.5947890057	 2.0128192144	 0.3948511821	 0.128228
H	 0.6899684813	-0.6275149075	 0.0739860778	 0.237788
H	-2.744449605	-4.2456685265	 0.7792628761	 0.140667
H	-4.1982253288	-3.6810562231	-0.0849223646	 0.150852
H	-2.7243214167	-4.1071009892	-0.9930076675	 0.138408
H	-5.1589465677	-0.4129052257	 0.1159227895	 0.311066
H	-2.8686745192	 0.955126585	 0.2537898674	 0.091416
40.9869	70.9503	131.7782	163.8816	198.0213	232.0613	243.2983	286.6553	367.1756	406.5076	542.6232	564.4364	648.0611	663.9049	675.2159	715.8482	741.1286	835.9085	998.995	1044.8111	1086.4701	1137.7968	1154.6801	1156.397	1184.6405	1208.7523	1293.2593	1306.3667	1408.0135	1452.6113	1455.0618	1478.0159	1487.186	1492.6073	1514.1047	1519.7709	1555.9346	1605.5224	1632.8196	2973.515	3040.5864	3065.1048	3097.536	3114.0746	3155.6923	3265.5116	3588.3359	3850.5182
CNC1=NN(C)C(O)=C1	CNc1nn(C)c(O)c1	
InChI=1S/C5H9N3O/c1-6-4-3-5(9)8(2)7-4/h3,9H,1-2H3,(H,6,7)	InChI=1S/C5H9N3O/c1-6-4-3-5(9)8(2)7-4/h3,9H,1-2H3,(H,6,7)
