15
gdb 28714	5.71419	0.94655	0.81617	4.9284	73.53	-0.2194	-0.0144	0.2051	1345.6007	0.112824	-454.005329	-453.997019	-453.996075	-454.039194	29.253	
C	 0.22903632	 1.4970154908	 0.0601320413	-0.494362
C	-0.0623780344	 0.0467751119	-0.0305459312	 0.323951
C	-1.1645785421	-0.7103267996	-0.2292971484	-0.187899
N	-0.8355277399	-2.066141606	-0.2182373713	-0.309042
C	 0.4374844104	-2.0587278249	-0.0151369201	 0.520916
N	 1.3408431745	-3.0986238989	 0.0970780131	-0.418994
C	 1.0836358547	-4.4559262614	 0.0147754471	 0.1519
O	 0.012891887	-4.9668680712	-0.1713371627	-0.259488
O	 1.0015429216	-0.8310137471	 0.1122177915	-0.233126
H	 0.9365326163	 1.81814595	-0.7129352146	 0.14109
H	-0.6967101759	 2.0620433075	-0.0700748801	 0.14493
H	 0.6585756769	 1.7649215644	 1.0322618521	 0.14109
H	-2.1813851852	-0.3841811152	-0.3813926314	 0.12514
H	 2.2960580926	-2.8164853375	 0.2578479567	 0.26836
H	 2.0257456736	-5.023747803	 0.1475457481	 0.085533
36.098	148.0346	151.0719	172.5548	243.6094	259.0486	370.7837	412.9442	546.5439	605.0231	633.2038	700.9831	740.8239	853.8116	868.2406	969.0205	984.3053	1014.2274	1036.6589	1067.8079	1134.3001	1177.4487	1230.0583	1246.4056	1324.6025	1419.5624	1441.5356	1471.1842	1490.5195	1554.5887	1648.1018	1660.3807	1841.7404	2938.7235	3029.0745	3079.344	3128.7417	3263.3281	3629.3727
CC1=CN=C(NC=O)O1	Cc1cnc(NC=O)o1	
InChI=1S/C5H6N2O2/c1-4-2-6-5(9-4)7-3-8/h2-3H,1H3,(H,6,7,8)	InChI=1S/C5H6N2O2/c1-4-2-6-5(9-4)7-3-8/h2-3H,1H3,(H,6,7,8)
