15
gdb 11349	4.67256	1.34188	1.05621	5.874	64.8	-0.2376	-0.0198	0.2177	1052.4325	0.118894	-399.839836	-399.831742	-399.830798	-399.873904	28.032	
O	 0.0027922041	 1.4012613587	 0.0071599231	-0.407414
C	-0.0205164191	-0.0104145726	 0.0023916442	-0.170874
C	-1.4365324943	-0.4799993808	 0.0124107858	 0.3076
C	-2.5547637818	 0.2499347755	 0.0234593997	-0.310552
C	-3.7468236942	-0.6480442957	 0.0303894321	 0.43094
O	-4.9239499942	-0.3566006363	 0.0384443913	-0.389427
N	-3.2241973935	-1.9273404648	 0.0248743604	-0.344097
C	-1.783028887	-1.9541174172	 0.0110752356	-0.249357
H	 0.919985974	 1.6889714112	 0.0000408221	 0.294593
H	 0.4897654183	-0.4237596989	-0.8861253557	 0.104179
H	 0.504363086	-0.4300124042	 0.8793931891	 0.104182
H	-2.6322103902	 1.3260325777	 0.0270120182	 0.133839
H	-3.8123090143	-2.7422266527	 0.0216035635	 0.252433
H	-1.379809793	-2.4602777869	-0.8792294995	 0.121973
H	-1.3631291909	-2.4659465731	 0.8903264501	 0.121981
22.6029	77.2273	173.1546	177.8792	232.8074	395.6359	414.5893	441.0581	484.0606	625.2332	721.3917	734.0504	881.4623	909.5304	929.8294	977.9652	1061.5524	1067.2118	1090.4818	1147.0534	1189.7436	1190.4723	1238.5441	1254.3233	1317.9368	1330.545	1425.8981	1470.2852	1500.0686	1506.2931	1699.932	1823.7249	2940.2898	2953.0327	2987.9351	3007.6897	3266.0593	3680.257	3840.6869
OCC1=CC(=O)NC1	OCC1=CC(=O)NC1	
InChI=1S/C5H7NO2/c7-3-4-1-5(8)6-2-4/h1,7H,2-3H2,(H,6,8)	InChI=1S/C5H7NO2/c7-3-4-1-5(8)6-2-4/h1,7H,2-3H2,(H,6,8)
