16
gdb 98103	3.84032	1.07345	0.86349	1.7716	68.53	-0.251	-0.0524	0.1986	1311.8712	0.122521	-475.037721	-475.028433	-475.027489	-475.073151	31.419	
C	-0.0406987506	 1.3327155121	 0.1400356392	-0.240703
O	-0.1103369282	-0.1003959172	 0.1598927239	-0.203667
C	-1.3406845446	-0.6085077446	 0.2099361771	 0.378324
O	-2.3593213728	 0.0365476879	 0.2348961044	-0.358364
C	-1.2909394706	-2.1514852783	 0.1964032848	 0.251282
O	-0.3005670533	-2.7694628632	-0.113273209	-0.317867
N	-2.4630084663	-2.7168959044	 0.6421250424	-0.061968
C	-3.7849507087	-2.6057190265	 0.0654048643	-0.207795
C	-3.0551126702	-3.9194594999	 0.1077655484	-0.227254
H	 1.0208344226	 1.575038462	 0.1096020688	 0.14335
H	-0.5520068432	 1.7277616791	-0.7413528037	 0.144216
H	-0.5071210423	 1.7508707169	 1.035571663	 0.145405
H	-4.589869069	-2.4073160316	 0.7664976949	 0.136366
H	-3.8739045586	-2.1001777151	-0.8909469715	 0.142732
H	-2.6307564669	-4.3060582336	-0.8149567199	 0.141896
H	-3.3419234772	-4.6702914836	 0.8379148827	 0.134046
31.9912	101.6093	116.5024	138.8704	164.2951	206.7975	247.1673	338.5125	388.6169	449.0378	568.4681	669.3968	800.4745	816.6025	840.2788	897.7704	986.2555	1011.2696	1049.5582	1120.4839	1135.4202	1140.1423	1171.8467	1176.6054	1177.6056	1212.0392	1300.0465	1428.9633	1473.5117	1482.3026	1493.4445	1497.4471	1525.9856	1796.7623	1808.8301	3053.8412	3117.5444	3125.3048	3128.9578	3168.1567	3203.3675	3218.3159
COC(=O)C(=O)N1CC1	COC(=O)C(=O)N1CC1	
InChI=1S/C5H7NO3/c1-9-5(8)4(7)6-2-3-6/h2-3H2,1H3	InChI=1S/C5H7NO3/c1-9-5(8)4(7)6-2-3-6/h2-3H2,1H3
