15
gdb 48537	3.17642	1.5507	1.51054	3.5111	69.99	-0.2456	-0.0411	0.2045	919.5341	0.113805	-416.758255	-416.751575	-416.750631	-416.789534	25.871	
O	-0.1542667314	-0.0110096519	 0.0256653629	-0.257384
C	-0.0074993097	 1.1794660375	 0.1441204931	 0.036812
C	 1.2680905056	 1.8945307852	 0.0425661378	 0.274547
C	 1.8683401317	 3.0396811368	 0.8609567789	-0.146025
C	 3.1101043236	 2.1825021764	 1.0167842525	-0.180948
N	 2.6262269644	 1.2645708792	-0.1255221136	-0.207088
C	 3.1321770677	 1.954520312	-1.2955924539	 0.014756
N	 2.5757973003	 3.0580514914	-1.6033959578	-0.18372
C	 1.5303582444	 3.2317833942	-0.6146244754	-0.058661
H	-0.8654363856	 1.8631150362	 0.3468241331	 0.070911
H	 1.3913593601	 3.6477488282	 1.6197076801	 0.117288
H	 4.0920503538	 2.6372879082	 0.8508325403	 0.124853
H	 3.1114765067	 1.611653394	 1.9460410546	 0.138706
H	 4.0039946211	 1.5537576517	-1.8021122186	 0.135408
H	 0.7177811374	 3.9067983206	-0.8507939141	 0.120545
92.9188	174.5362	252.3283	361.8154	439.5151	469.4021	545.0606	689.2012	745.6999	780.4123	803.1704	828.9931	861.7013	908.41	937.3322	965.1254	981.2206	1002.6896	1040.8052	1057.4597	1062.0065	1094.1896	1139.132	1174.2345	1229.1258	1275.637	1303.786	1314.6388	1373.5822	1440.7694	1500.8296	1652.7085	1813.517	2854.0612	3052.8008	3128.3084	3194.5492	3202.9627	3210.1659
O=CC12C3CN1C=NC23	O=C[C@@]12[C@H]3CN1[CH][N][C@@H]23	
InChI=1S/C6H6N2O/c9-2-6-4-1-8(6)3-7-5(4)6/h2-5H,1H2	InChI=1S/C6H6N2O/c9-2-6-4-1-8(6)3-7-5(4)6/h2-5H,1H2/t4-,5+,6-/m0/s1
