14
gdb 130710	3.44773	1.72291	1.15703	3.3243	69.53	-0.2155	-0.0196	0.196	971.3106	0.10402	-432.914588	-432.907882	-432.906938	-432.945714	25.81	
O	-0.0312194057	-0.0727018963	 0.0457492095	-0.423423
C	-0.0049445718	 1.1377832952	 0.0467316296	 0.450935
N	-1.0443248077	 2.0566018945	 0.0746694204	-0.31877
N	-0.6571504809	 3.3893566215	 0.0663264096	-0.317733
C	 0.6330005192	 3.3116572439	 0.0330904179	 0.424483
C	 1.8162142973	 4.2386648603	 0.0039809543	-0.405431
C	 2.9631796075	 3.2333009401	-0.0265174976	-0.139647
C	 2.4924906737	 1.9800357937	-0.0161679696	-0.015779
N	 1.0896747687	 2.0107265758	 0.0196870433	-0.124951
H	-2.020216546	 1.8189440389	 0.0992116686	 0.281404
H	 1.8076478942	 4.893864901	-0.8750828278	 0.153848
H	 1.8525425502	 4.891702643	 0.8839404428	 0.153848
H	 4.0053451614	 3.512769931	-0.0527955849	 0.12193
H	 3.00848547	 1.0324717876	-0.030624186	 0.159284
140.8562	170.9824	268.5642	298.9915	429.2254	471.84	577.1679	658.075	669.3323	687.8631	724.7677	738.8859	810.849	891.4676	922.2233	936.3785	952.0152	1041.9967	1072.0042	1148.0355	1168.0839	1181.8732	1263.738	1288.0953	1379.603	1396.5447	1417.9435	1453.6661	1644.0511	1679.4376	1845.5899	3039.686	3067.5014	3250.8129	3274.2255	3697.1269
O=C1NN=C2CC=CN12	O=c1[nH]nc2CC=Cn12	
InChI=1S/C5H5N3O/c9-5-7-6-4-2-1-3-8(4)5/h1,3H,2H2,(H,7,9)	InChI=1S/C5H5N3O/c9-5-7-6-4-2-1-3-8(4)5/h1,3H,2H2,(H,7,9)
