18
gdb 128156	3.18182	1.21178	0.90128	2.718	76.91	-0.1863	0.0472	0.2336	1295.3621	0.147462	-435.275968	-435.266074	-435.26513	-435.311094	34.938	
C	 0.0360578033	 1.3117657469	-0.3734506178	-0.335602
N	 0.0080810743	-0.0062970641	 0.2477768726	-0.393383
C	-1.1355492988	-0.7785011118	 0.1191108534	 0.390629
C	-1.2618196658	-2.1548143393	 0.0305483013	 0.019371
O	-0.1999145558	-3.0290336837	-0.0778578697	-0.453341
C	-2.651550377	-2.4127585306	-0.0311160852	 0.284194
C	-3.3313776435	-3.7387527425	-0.1420900076	-0.496179
N	-3.3476178122	-1.280470568	 0.0203389631	-0.311335
N	-2.4035984642	-0.2983252719	 0.1066021871	-0.284248
H	 1.037484274	 1.7325865011	-0.2603377555	 0.13384
H	-0.2250371354	 1.3033913944	-1.4427697757	 0.121757
H	-0.654533522	 1.9883151595	 0.1424376447	 0.126821
H	 0.8215987502	-0.5672508279	 0.0311305652	 0.248499
H	-0.1298347966	-3.5402063892	 0.7355527103	 0.296175
H	-3.1731565111	-4.3536851732	 0.7523281888	 0.116431
H	-4.4062783907	-3.5938476541	-0.2683644159	 0.139228
H	-2.9499026387	-4.3092692908	-0.9957626322	 0.130322
H	-2.7035790699	 0.6578018453	 0.1657020631	 0.266821
46.8066	103.278	131.3023	182.0854	199.0772	227.4038	238.9832	299.254	311.1503	354.5827	422.3307	547.3159	559.4354	673.6668	692.2441	717.4956	770.9908	781.7151	994.7644	1014.5146	1064.36	1112.3092	1130.4948	1154.8945	1176.3092	1220.2317	1279.9908	1332.2299	1401.453	1425.3324	1463.3968	1476.2495	1482.2473	1490.3151	1497.1488	1516.2688	1529.2597	1574.4557	1664.3043	2986.1787	3027.8481	3061.9007	3079.1134	3121.9569	3131.9554	3577.2349	3695.6441	3786.8221
CNC1=C(O)C(C)=NN1	CNc1c(O)c(C)n[nH]1	
InChI=1S/C5H9N3O/c1-3-4(9)5(6-2)8-7-3/h9H,1-2H3,(H2,6,7,8)	InChI=1S/C5H9N3O/c1-3-4(9)5(6-2)8-7-3/h9H,1-2H3,(H2,6,7,8)
