19
gdb 38506	3.63594	1.42213	1.12848	1.9861	80.8	-0.2144	0.0242	0.2385	1096.3301	0.162058	-385.886308	-385.879116	-385.878171	-385.917932	28.615	
C	-0.0491193533	 1.4592499075	 0.1419507235	-0.27725
C	 1.2838932819	 0.7645196178	 0.0420383625	-0.023042
C	 2.0257804272	 0.3960555048	 1.3392761993	-0.36591
C	 1.054584119	-0.5451945395	 2.0043395348	 0.214525
C	-0.0136431762	-0.8061727322	 1.2516787156	 0.254721
C	-0.9419923726	-1.7279133246	 1.9761091286	-0.190116
O	-0.2730747299	-2.0028898376	 3.2142709543	-0.275079
C	 0.9449553381	-1.2516848371	 3.3175352294	-0.18204
C	-0.0116057191	-0.0486431124	-0.0250078593	-0.183819
H	-0.3704619124	 1.8517211825	 1.1017636293	 0.111837
H	-0.3570767732	 2.0512853941	-0.7140939284	 0.110273
H	 1.8690649007	 0.9352911789	-0.8538681281	 0.087641
H	 2.989254267	-0.0873000414	 1.1280437422	 0.109186
H	 2.2516147921	 1.2796927945	 1.9502125837	 0.112301
H	-1.927319596	-1.274995935	 2.1735975681	 0.102965
H	-1.1228930401	-2.6744769411	 1.4438661014	 0.104019
H	 1.7800874705	-1.942279727	 3.5137827181	 0.102813
H	 0.8877086244	-0.5636061132	 4.1771919452	 0.099514
H	-0.3730586782	-0.490326519	-0.9471048603	 0.087461
123.695	153.6902	196.738	320.8566	373.1005	390.7265	524.3512	585.745	675.7692	731.3667	786.3965	806.5297	856.3551	877.2622	912.0824	950.0905	961.0213	992.863	1025.649	1055.9011	1064.3806	1072.1512	1084.2827	1098.235	1113.6852	1158.0691	1185.4125	1193.5405	1214.1237	1218.8493	1232.3415	1314.1612	1334.7673	1372.2783	1397.8023	1413.8721	1473.8521	1486.6314	1518.6275	1528.5608	1721.5591	2961.467	2969.5714	2984.5116	2990.4736	3013.2776	3041.3503	3120.9645	3167.5291	3178.8247	3209.8186
C1C2CC3=C(COC3)C12	C1[C@H]2CC3=C(COC3)[C@@H]12	
InChI=1S/C8H10O/c1-5-2-7(5)8-4-9-3-6(1)8/h5,7H,1-4H2	InChI=1S/C8H10O/c1-5-2-7(5)8-4-9-3-6(1)8/h5,7H,1-4H2/t5-,7+/m1/s1
