21
gdb 60482	5.82794	0.51033	0.48611	0.6604	82.88	-0.253	0.0348	0.2878	2241.8706	0.178236	-424.178166	-424.166996	-424.166052	-424.215647	39.201	
C	-0.0360661653	 1.5481351786	 0.0649354812	-0.402661
C	-0.0190542954	 0.020311227	 0.0300087795	 0.134307
O	 0.7335186139	-0.5138592802	 1.1200789576	-0.429668
C	-1.4316178504	-0.5737129094	-0.0222875228	-0.212871
C	-1.4298254709	-2.0930924014	-0.1127581941	-0.040942
O	-2.7736361203	-2.5380667605	-0.1316056561	-0.248154
C	-2.8722197304	-3.9453532727	-0.1999419347	-0.206041
C	-4.2724276657	-4.3497549388	-0.2065193112	 0.280431
C	-5.4175158201	-4.7111024224	-0.2137901403	-0.415946
H	 0.9842183494	 1.9366455309	 0.1221219065	 0.124672
H	-0.5179810683	 1.9609755514	-0.8270113087	 0.11863
H	-0.5910058713	 1.9098283047	 0.9397860838	 0.107996
H	 0.535322239	-0.3075114902	-0.8590087933	 0.089685
H	 0.3248683098	-0.2012722868	 1.9354436689	 0.276731
H	-1.9908723439	-0.2713631404	 0.8736231474	 0.097359
H	-1.9735964305	-0.1639688755	-0.8824708549	 0.108099
H	-0.9048616278	-2.4222386423	-1.0267897181	 0.084519
H	-0.8877195614	-2.5231167328	 0.7428253161	 0.100676
H	-2.3736855662	-4.325399317	-1.1088578731	 0.116797
H	-2.3558092804	-4.4123724931	 0.6567916194	 0.117329
H	-6.4321569841	-5.024355809	-0.2199984631	 0.199052
37.0935	71.2815	79.4357	116.3276	142.4181	170.1609	240.9486	282.7375	297.0678	313.3203	335.316	426.3965	468.6186	497.177	570.7825	606.4083	674.2313	801.3747	853.3045	937.5489	970.627	976.6937	1022.6903	1032.7523	1056.5522	1093.3536	1126.6039	1149.0013	1170.1042	1218.3525	1254.5455	1290.1253	1295.7325	1335.2677	1371.8783	1391.8288	1404.0413	1420.8802	1446.8378	1481.3587	1493.4271	1495.5651	1499.5416	1531.1062	2247.9249	2945.6551	2955.1573	2965.3481	3007.1769	3018.7603	3023.6912	3033.9097	3072.8758	3096.151	3120.0071	3506.6203	3792.3447
CC(O)CCOCC#C	C[C@@H](O)CCOCC#C	
InChI=1S/C7H12O2/c1-3-5-9-6-4-7(2)8/h1,7-8H,4-6H2,2H3	InChI=1S/C7H12O2/c1-3-5-9-6-4-7(2)8/h1,7-8H,4-6H2,2H3/t7-/m1/s1
