14
gdb 129567	3.38886	1.1147	1.03752	2.7252	67.06	-0.2731	-0.0263	0.2468	1153.6219	0.104108	-429.049687	-429.041772	-429.040828	-429.083488	27.962	
N	-0.2672454425	 1.3683550167	 0.1027161005	-0.498271
C	 0.0223708696	-0.0612446102	-0.0299604511	-0.238306
C	 0.8160332554	-0.392845735	-1.2401140446	 0.263239
N	 1.4086496649	-0.6067936164	-2.2094010229	-0.324175
C	 0.7109453353	-0.5686467799	 1.2085558514	 0.368557
N	 1.8460939862	-0.0160345822	 1.6426000217	-0.267044
N	 2.1169801551	-0.7077374394	 2.7368956215	-0.059886
N	 1.2659157077	-1.6690026171	 3.0615168598	-0.188768
C	 0.3520525088	-1.5981843502	 2.0926436578	-0.138537
H	 0.6017444965	 1.8654746563	 0.277192514	 0.256965
H	-0.6472916926	 1.7262166396	-0.768903555	 0.24637
H	-0.9310831177	-0.5936905561	-0.1247882377	 0.141706
H	 2.9344272787	-0.5151298406	 3.2941736839	 0.301583
H	-0.4944172855	-2.2656374555	 2.0742247707	 0.136564
27.7483	107.2717	180.9111	212.6413	284.3266	346.339	416.7383	470.2894	558.0562	594.0028	723.5376	744.965	782.4588	860.3017	886.1438	961.8425	998.3063	1028.0527	1104.7674	1153.7731	1179.7441	1218.401	1255.2975	1319.6769	1354.6171	1390.6676	1415.9334	1496.3258	1561.7836	1656.4228	2346.8132	3050.436	3273.8179	3494.8595	3578.2396	3662.4525
NC(C#N)C1=NNN=C1	N[C@@H](C#N)c1n[nH]nc1	
InChI=1S/C4H5N5/c5-1-3(6)4-2-7-9-8-4/h2-3H,6H2,(H,7,8,9)	InChI=1S/C4H5N5/c5-1-3(6)4-2-7-9-8-4/h2-3H,6H2,(H,7,8,9)/t3-/m0/s1
