18
gdb 124534	3.9288	1.0385	0.87702	3.3989	73.97	-0.2192	0.0224	0.2415	1328.6676	0.1484	-435.325444	-435.316402	-435.315457	-435.359625	33.16	
C	-0.014131154	 1.5909716882	 0.0027440249	-0.37688
C	-0.04394953	 0.0585288407	-0.0143207694	-0.096202
C	 0.7497218101	-0.5346079854	 1.1679887038	-0.385936
C	-1.4514829384	-0.4598085588	-0.0262905046	 0.415563
N	-2.5213631727	 0.2538327152	 0.1560225186	-0.273364
N	-3.5587078664	-0.6500284222	 0.0758602792	-0.299651
C	-3.1619231746	-1.9470193975	-0.1667496806	 0.455014
O	-3.8183847531	-2.95662165	-0.2985626085	-0.422543
N	-1.7705428878	-1.7867351272	-0.2227281279	-0.407281
H	 1.0209475333	 1.9432931374	-0.0235440635	 0.110135
H	-0.5478658353	 2.0080790186	-0.854172248	 0.130069
H	-0.4891296055	 1.9779586063	 0.9082058684	 0.136299
H	 0.4335097711	-0.2881012766	-0.9425673663	 0.093233
H	 0.324132538	-0.2032191839	 2.1204032695	 0.133192
H	 0.7433710094	-1.6290689332	 1.1604931664	 0.11147
H	 1.7922044905	-0.2056267719	 1.125986092	 0.123409
H	-4.5089507419	-0.3387386899	 0.1694529202	 0.279661
H	-1.1418776328	-2.5510579599	-0.3975372441	 0.273813
41.9424	120.748	180.8496	212.8621	221.6535	260.1224	313.9623	372.3991	418.0921	469.2726	507.7097	534.3633	632.0195	725.4619	761.7331	768.2931	884.5175	933.3631	969.573	994.5654	1014.9471	1077.9491	1117.603	1136.1402	1173.6991	1227.4461	1269.6622	1333.5032	1354.4728	1386.7944	1401.6175	1423.7293	1464.8757	1483.5237	1488.5301	1501.3795	1512.9698	1640.4098	1857.2281	2998.9711	3037.3396	3050.0469	3107.4262	3114.1544	3122.6285	3130.4164	3688.5173	3700.6085
CC(C)C1=NNC(=O)N1	CC(C)c1n[nH]c(=O)[nH]1	
InChI=1S/C5H9N3O/c1-3(2)4-6-5(9)8-7-4/h3H,1-2H3,(H2,6,7,8,9)	InChI=1S/C5H9N3O/c1-3(2)4-6-5(9)8-7-4/h3H,1-2H3,(H2,6,7,8,9)
