25
gdb 111102	2.79016	1.13326	1.04212	0.0856	92.39	-0.2777	0.0914	0.3692	1355.1016	0.230905	-352.356875	-352.347847	-352.346903	-352.390295	36.052	
C	 0.0304747863	 1.5949617539	 0.0089404463	-0.37842
C	 0.0122316082	 0.0705192314	 0.1743954712	-0.222979
C	-1.3919924316	-0.5181580568	 0.0507947434	 0.06948
C	-2.0347259383	-0.6274948199	-1.3712677796	-0.019516
C	-1.2415964234	-1.9560363006	-1.537902228	-0.241093
C	-1.5249283843	-2.0760038839	-0.0121503179	-0.039805
C	-3.0584772531	-2.2872883463	-0.0105390354	 0.051121
C	-3.7419440573	-2.2077775333	 1.3533368739	-0.418349
C	-3.4442606654	-1.1486632913	-1.0247380261	-0.236787
H	 1.0407279058	 1.9966886275	 0.1354836956	 0.109441
H	-0.324098253	 1.89181202	-0.9836920136	 0.116578
H	-0.6160691695	 2.0807634527	 0.7484558965	 0.11242
H	 0.6984926609	-0.3800900539	-0.5508710348	 0.095647
H	 0.4100627344	-0.1890509167	 1.1646562908	 0.092541
H	-2.0304571843	-0.0270771957	 0.7958129274	 0.052273
H	-1.9674576885	 0.1815360955	-2.1007601834	 0.052118
H	-1.6676006249	-2.7233019832	-2.1924768529	 0.082271
H	-0.1892984158	-1.8122106519	-1.7821596037	 0.095991
H	-0.9342187455	-2.7272491959	 0.6360399056	 0.047772
H	-3.2849531127	-3.2675342189	-0.4464939367	 0.063939
H	-3.5424638529	-1.2569024878	 1.8585396073	 0.114958
H	-4.8287833507	-2.3016320507	 1.2515170583	 0.111448
H	-3.4009321717	-3.0133801931	 2.0134410553	 0.108894
H	-4.0662653842	-0.3768815012	-0.5588678663	 0.090523
H	-3.9806447586	-1.5276042101	-1.8998155835	 0.089533
83.7849	159.7515	168.4429	206.4275	227.7987	263.9619	335.3978	386.5161	432.8456	479.9785	517.9174	631.6043	746.1397	795.4952	827.0881	846.1307	865.7591	884.497	912.6637	936.5672	945.9763	965.7219	1005.2655	1024.3191	1035.8811	1043.3499	1078.0794	1086.0335	1113.7386	1118.1794	1139.4159	1159.695	1202.9554	1224.6692	1236.1224	1248.8193	1270.5457	1281.9207	1297.0466	1308.097	1323.3581	1354.3194	1381.0589	1407.8598	1412.3482	1416.8511	1484.2541	1494.7548	1498.4697	1499.424	1500.317	1505.616	1518.7167	3016.9116	3019.9981	3023.1784	3026.7648	3030.4079	3041.8216	3051.4127	3062.8172	3084.6742	3086.8558	3090.0671	3095.1831	3097.4803	3099.2901	3102.7406	3134.0934
CCC1C2CC1C(C)C2	CC[C@H]1[C@H]2C[C@@H]1[C@@H](C)C2	
InChI=1S/C9H16/c1-3-8-7-4-6(2)9(8)5-7/h6-9H,3-5H2,1-2H3	InChI=1S/C9H16/c1-3-8-7-4-6(2)9(8)5-7/h6-9H,3-5H2,1-2H3/t6-,7+,8-,9+/m0/s1
