16
gdb 11344	4.80134	1.36122	1.07735	6.1899	70.38	-0.212	0.004	0.2159	1063.2772	0.131825	-379.970895	-379.962916	-379.961972	-380.003167	29.011	
C	-0.0332868174	 1.4178942026	 0.1074789835	-0.325006
N	-0.0666475375	-0.019275037	-0.07587629	-0.364958
C	 0.6002311825	-0.6142000666	-1.1007470557	 0.396851
C	 1.2152255264	-0.0685743012	-2.173562246	-0.370253
C	 1.7509196764	-1.1440501655	-3.0261709873	 0.427911
O	 2.2880389173	-1.0734335387	-4.1119998259	-0.397909
N	 1.531827396	-2.3359064693	-2.3239438353	-0.346073
C	 0.6921754023	-2.1270188927	-1.1668332089	-0.255409
H	 0.9863601318	 1.7979026069	 0.2636001176	 0.130412
H	-0.4496557061	 1.9170783746	-0.7738654371	 0.145561
H	-0.6458362702	 1.6851346447	 0.9706313113	 0.130333
H	-0.2348613284	-0.5781533437	 0.7444794269	 0.24539
H	 1.3228249039	 0.9749317679	-2.4234863528	 0.101246
H	 1.5148087884	-3.2007652409	-2.8392500712	 0.244163
H	 1.1340088433	-2.5406239663	-0.2479757544	 0.114115
H	-0.3097153087	-2.5679342348	-1.2769803449	 0.123626
119.8909	145.8188	184.5243	186.2757	226.0343	329.2656	422.9035	436.3046	502.9141	546.3665	630.1128	716.5835	743.3411	820.2962	905.2989	944.0095	1017.4245	1059.4429	1095.4001	1150.9996	1169.8381	1196.2034	1212.9421	1267.6503	1321.9696	1334.52	1417.9296	1459.9971	1480.3079	1505.4025	1514.221	1545.1903	1683.2295	1817.2817	2988.8785	3003.8401	3012.0487	3073.0396	3130.8583	3259.0892	3634.9794	3651.6951
CNC1=CC(=O)NC1	CNC1=CC(=O)NC1	
InChI=1S/C5H8N2O/c1-6-4-2-5(8)7-3-4/h2,6H,3H2,1H3,(H,7,8)	InChI=1S/C5H8N2O/c1-6-4-2-5(8)7-3-4/h2,6H,3H2,1H3,(H,7,8)
