12
gdb 130590	3.58687	1.68662	1.14719	1.3794	67.25	-0.2468	-0.1079	0.1389	943.1954	0.080594	-431.667721	-431.661577	-431.660632	-431.698378	23.489	
O	-0.0375438016	-0.0548723574	 0.0049767258	-0.299931
C	-0.0178208399	 1.1487267706	 0.0101344727	 0.294947
C	-1.2041497598	 2.0990663189	 0.0308989635	-0.190078
C	-0.7871979708	 3.3783168638	 0.0309029076	-0.181478
C	 0.6939353222	 3.3797799004	 0.0103636212	 0.294241
C	 1.1528644179	 2.086434176	-0.0018596775	 0.245578
N	 2.489212457	 2.217746336	-0.0197853631	-0.33903
N	 2.8391347406	 3.5275068055	-0.0186464748	-0.109216
N	 1.7306757141	 4.2408900064	-0.0001201684	-0.288294
H	-2.2202906623	 1.7316529717	 0.0433262564	 0.134289
H	-1.4077448443	 4.2642586289	 0.043513584	 0.14238
H	 3.2170036969	 1.5196068793	-0.0330483974	 0.296591
147.1433	211.2469	297.3835	381.5749	531.4174	605.7812	612.6081	653.6692	689.5105	713.4901	738.2878	757.2626	849.2198	964.9392	1002.5067	1027.2492	1049.3881	1086.3157	1161.638	1187.112	1304.5715	1359.4543	1428.7109	1503.1551	1551.848	1606.1643	1826.3978	3227.6736	3251.6163	3649.5007
O=C1C=CC2=C1NN=N2	O=C1C=Cc2c1[nH]nn2	
InChI=1S/C5H3N3O/c9-4-2-1-3-5(4)7-8-6-3/h1-2H,(H,6,7,8)	InChI=1S/C5H3N3O/c9-4-2-1-3-5(4)7-8-6-3/h1-2H,(H,6,7,8)
