18
gdb 39806	2.95405	1.59056	1.56136	2.3215	75.63	-0.2314	0.0004	0.2319	955.4193	0.149645	-401.895448	-401.888492	-401.887547	-401.926472	28.64	
C	 0.0097014528	 1.5561967045	-0.051452751	-0.325481
N	 1.2380471512	 0.7236124441	 0.0551457354	-0.383725
C	-0.0655360411	 0.0908061225	 0.0020135717	 0.407877
C	-0.525259236	-0.9439370045	 1.0300649923	 0.002153
C	-2.0358157706	-0.8476188427	 1.2974633762	-0.265435
C	-2.762907623	-0.7774260511	-0.0318768083	-0.068106
C	-2.0563920577	-0.8166975062	-1.1623075727	-0.047287
C	-0.5551834501	-0.9617262943	-1.0003877615	-0.070285
O	-0.3053528088	-1.9782450158	 0.0206644364	-0.297699
H	-0.2062689477	 2.1592204396	 0.826668331	 0.120087
H	-0.2126585649	 2.0445012512	-0.9976638447	 0.113173
H	 1.7047266522	 0.6671393887	-0.8475679476	 0.231874
H	 0.0846215466	-1.0913627223	 1.9243518749	 0.089852
H	-2.3737718333	-1.7162710796	 1.877484118	 0.117541
H	-2.2565165478	 0.0387461698	 1.9077265202	 0.110542
H	-3.8463761745	-0.7031415385	-0.0290289504	 0.096199
H	-2.5049200491	-0.7546315473	-2.1478027232	 0.092527
H	 0.0010863617	-1.1437153683	-1.9236364966	 0.076193
150.1264	206.7836	273.4837	334.1819	382.1797	470.8905	499.8018	567.2723	593.454	707.1896	780.16	851.7278	866.3806	875.2389	910.3173	924.8684	934.6264	950.7001	961.285	969.9995	996.7962	1012.3435	1050.3209	1102.838	1128.1085	1147.7566	1168.5882	1221.3552	1254.5086	1258.1811	1274.7063	1293.1201	1322.7356	1355.3709	1389.0222	1448.1257	1466.9435	1524.56	1692.0919	3015.9775	3046.3884	3080.2685	3092.1885	3101.3601	3166.1257	3183.5617	3193.8685	3488.841
C1NC11C2CC=CC1O2	C1N[C@]21[C@H]1CC=C[C@@H]2O1	
InChI=1S/C7H9NO/c1-2-5-7(4-8-7)6(3-1)9-5/h1-2,5-6,8H,3-4H2	InChI=1S/C7H9NO/c1-2-5-7(4-8-7)6(3-1)9-5/h1-2,5-6,8H,3-4H2/t5-,6+,7-/m0/s1
