15
gdb 19647	5.27082	1.80255	1.71964	1.2939	63.4	-0.2115	0.0657	0.2772	793.1265	0.118073	-362.514625	-362.508054	-362.50711	-362.545393	25.082	
C	 0.0399857749	 1.3370258092	-0.1810668828	-0.258771
O	-0.0466195534	-0.0293449823	 0.2131225669	-0.274595
C	-1.3007447662	-0.5401327644	 0.1359223128	 0.424936
C	-1.6844713703	-1.9989503202	-0.0697086769	-0.197422
C	-2.9730930959	-1.7522668511	 0.7511845057	-0.038935
C	-2.6128094838	-0.3257000907	 0.967255581	-0.152343
N	-3.4541004735	-0.7078144306	-0.2222471658	-0.171609
C	-2.1789972324	-0.9301585006	-1.0335517763	-0.109238
H	 1.0895823521	 1.6234443697	-0.0941764247	 0.133242
H	-0.2949426417	 1.4707934377	-1.217298369	 0.120825
H	-0.5647511024	 1.9792402486	 0.4722946356	 0.121453
H	-1.0426049648	-2.8529661175	-0.2289548602	 0.104055
H	-3.6513853317	-2.4097302599	 1.2829550857	 0.097046
H	-2.9458191798	 0.3991545351	 1.7010754768	 0.098504
H	-2.0989892112	-0.8283614331	-2.1082414089	 0.102852
103.0242	171.1065	182.6747	364.0861	415.3996	598.6665	669.5744	752.8362	768.8194	786.1473	840.3683	859.7163	878.5946	901.343	943.4918	972.5159	993.4254	1016.5948	1023.8781	1048.46	1101.2671	1132.035	1177.3457	1188.6618	1215.3311	1236.9187	1281.5662	1305.4832	1421.5878	1487.1353	1501.1059	1504.3544	3007.7583	3068.4853	3134.2447	3168.3684	3183.0136	3194.2436	3228.2991
COC12C3C4C1N4C23	CO[C@@]12[C@H]3[C@H]4[C@@H]1N4[C@@H]23	
InChI=1S/C6H7NO/c1-8-6-2-3-5(6)7(3)4(2)6/h2-5H,1H3	InChI=1S/C6H7NO/c1-8-6-2-3-5(6)7(3)4(2)6/h2-5H,1H3/t2-,3-,4+,5-,6+,7?/m0/s1
