17
gdb 30804	3.08661	1.20473	0.90616	1.8039	73.55	-0.1933	0.0096	0.2029	1272.145	0.136163	-455.181358	-455.172204	-455.17126	-455.215602	33.042	
C	-0.0856176153	 1.4433389065	 0.0698381444	-0.490198
C	-0.0300149728	-0.0389230583	-0.0220177265	 0.374713
N	 0.00885558	-0.771406508	-1.0957456005	-0.341604
C	 0.0404859457	-2.0761542773	-0.6295232298	 0.196775
N	 0.031108502	-3.1545796854	-1.5001107548	-0.601301
C	 0.0244126345	-2.0726439299	 0.7335069543	 0.205174
C	 0.0819254378	-3.1531008641	 1.7522564707	-0.189216
O	 1.0425893995	-4.1554736982	 1.4031496008	-0.412733
O	-0.0184760023	-0.7434879978	 1.127731457	-0.211699
H	 0.7657657102	 1.8371298966	 0.6347805454	 0.142823
H	-0.0703894629	 1.8619593616	-0.9365961436	 0.155363
H	-0.9977038763	 1.7724756266	 0.5788403069	 0.145941
H	 0.429039585	-2.9298039494	-2.4015033759	 0.251284
H	 0.4381114734	-3.9868972008	-1.0940776238	 0.253335
H	 0.2835360979	-2.7128551681	 2.7394438021	 0.112318
H	-0.8644401664	-3.7020772566	 1.8287023592	 0.127332
H	 1.89122692	-3.7082691473	 1.3085522339	 0.281694
69.0172	91.3826	133.7363	198.5929	229.3609	272.3467	320.311	353.7348	383.6096	435.2397	489.311	624.17	648.9818	687.4484	717.09	765.5211	817.4357	947.2456	992.422	1029.0738	1038.8628	1064.4111	1092.7139	1151.7637	1230.9187	1284.7323	1323.0741	1364.5779	1407.3781	1413.0089	1452.0901	1475.9514	1481.7065	1500.7809	1606.3219	1631.8219	1696.364	3004.1014	3042.6353	3048.6014	3095.7705	3157.2734	3547.0836	3652.4496	3798.1748
CC1=NC(N)=C(CO)O1	Cc1nc(N)c(CO)o1	
InChI=1S/C5H8N2O2/c1-3-7-5(6)4(2-8)9-3/h8H,2,6H2,1H3	InChI=1S/C5H8N2O2/c1-3-7-5(6)4(2-8)9-3/h8H,2,6H2,1H3
