17
gdb 34345	2.90993	1.59649	1.29238	4.1473	75.95	-0.2454	0.0098	0.2551	1001.6257	0.137681	-380.811824	-380.80468	-380.803735	-380.84321	28.593	
N	-0.0455485767	-1.1270605199	-0.0064304785	-0.342358
C	-0.0355484528	 0.0299423835	 0.0064871066	 0.19644
C	-0.0232729325	 1.470557563	 0.0088748749	 0.185605
C	-0.4793754071	 2.2128248188	-1.2929143993	-0.299448
C	 0.8526299438	 3.0295349038	-1.2860678487	-0.24261
C	 1.2969457411	 2.3050930095	 0.0098754921	-0.009193
N	 0.9974923465	 2.9062842651	 1.3685572919	-0.141221
C	-0.2975469125	 3.6128258575	 1.3167449101	-0.257109
C	-0.3190490056	 2.1433813965	 1.370797582	-0.071623
H	-0.5735649398	 1.5383862046	-2.1447416074	 0.133647
H	-1.4069299842	 2.7795737805	-1.1903428978	 0.118796
H	 1.5014483288	 2.792477509	-2.1316942057	 0.121395
H	 0.7657165425	 4.1161252498	-1.2204958979	 0.12045
H	 2.2757908459	 1.8293800414	 0.0239368115	 0.110137
H	-0.505446282	 4.1362293563	 2.2451585981	 0.135404
H	-0.6027779376	 4.156254131	 0.4293772474	 0.123777
H	-0.6506983679	 1.5847227395	 2.2397272008	 0.117909
143.0684	154.1236	246.1215	326.3684	354.7376	475.6702	532.5147	541.6735	586.5082	665.7986	726.355	739.0427	772.8579	854.2625	903.5173	920.5552	949.3709	969.2847	998.0701	1052.3888	1060.2866	1103.7053	1112.0188	1149.8114	1153.8796	1175.3864	1211.0972	1227.1277	1240.9817	1262.6346	1271.7957	1312.2608	1369.5389	1473.8267	1482.9136	1513.5042	2346.7476	3073.8708	3079.0232	3117.9764	3130.3496	3132.8274	3141.2077	3168.3421	3211.6818
N#CC12CCC1N1CC21	N#C[C@]12CC[C@H]1N1C[C@@H]21	
InChI=1S/C7H8N2/c8-4-7-2-1-5(7)9-3-6(7)9/h5-6H,1-3H2	InChI=1S/C7H8N2/c8-4-7-2-1-5(7)9-3-6(7)9/h5-6H,1-3H2/t5-,6+,7-,9?/m1/s1
