16
gdb 97321	4.75176	0.79869	0.68666	1.0151	73.97	-0.2393	-0.0515	0.1878	1587.0699	0.123566	-471.268875	-471.259348	-471.258404	-471.303895	33.276	
C	 0.0045591177	 1.6200535827	-0.2451355058	-0.311553
N	-0.1328244615	 0.2029376339	 0.0092953625	-0.164842
C	 0.5233057176	-0.5829962804	-0.726818923	 0.100569
N	 0.5005562387	-1.970569461	-0.6113379514	-0.357832
C	-0.1888296638	-2.760965797	 0.2659012036	 0.34131
O	-0.9443306902	-2.4255832532	 1.1511559652	-0.344826
C	 0.1268876613	-4.2516110923	-0.0185295001	 0.344332
N	-0.5328379758	-5.0632200349	 0.8242848988	-0.517241
O	 0.8881208897	-4.5894044882	-0.9105668043	-0.381021
H	 0.6865740705	 1.8627058704	-1.077110982	 0.095851
H	-0.9803299051	 2.0466667394	-0.4664150173	 0.134099
H	 0.3687999676	 2.1182504657	 0.6604548368	 0.134107
H	 1.1868206827	-0.2588153885	-1.5421383095	 0.091069
H	 1.065134702	-2.5154369321	-1.2540901286	 0.276386
H	-1.1317637471	-4.6398927278	 1.5164000717	 0.286816
H	-0.4266638844	-6.0609969768	 0.7603139434	 0.272775
62.3766	95.7225	119.6439	120.6816	209.8388	249.1292	330.4569	335.0715	357.8319	372.0754	509.1726	526.6699	572.3683	680.8195	719.0805	743.5725	833.5233	881.4084	976.2092	1065.5709	1093.3299	1113.57	1139.6942	1165.6384	1237.5767	1375.6491	1412.5695	1445.0368	1477.853	1502.2501	1557.2985	1588.9884	1758.6107	1799.1873	1821.265	2964.4295	3005.3126	3061.8543	3081.6265	3551.5871	3589.3895	3735.2807
CN=CNC(=O)C(N)=O	CN=CNC(=O)C(=O)N	
InChI=1S/C4H7N3O2/c1-6-2-7-4(9)3(5)8/h2H,1H3,(H2,5,8)(H,6,7,9)	InChI=1S/C4H7N3O2/c1-6-2-7-4(9)3(5)8/h2H,1H3,(H2,5,8)(H,6,7,9)
