18
gdb 111375	2.0217	1.79244	1.1381	2.3411	78.55	-0.2292	0.0462	0.2754	1116.5367	0.146156	-401.846461	-401.837676	-401.836732	-401.879938	32.851	
C	 0.0657451075	 1.3275859186	-0.0848818286	-0.245109
O	-0.2989292586	-0.0016667542	 0.2334135177	-0.23278
C	 0.5447770237	-0.604662244	 1.1530589904	 0.174085
C	 0.1312734062	-1.9970074051	 1.6038431794	-0.111254
N	 0.2430186028	-2.8963416776	 0.4314044665	-0.309641
C	 1.4491847163	-2.5719964564	 1.2124948367	-0.048697
C	 1.9589227098	-1.2179739985	 0.6837426179	-0.29047
C	 2.3394763877	-1.1313980032	-0.709449149	 0.377593
C	 2.6769889597	-1.0447040813	-1.860513449	-0.458275
H	 1.0548953156	 1.3749439843	-0.5575612687	 0.124264
H	-0.6813736973	 1.7042152809	-0.7868249561	 0.129352
H	 0.0682790114	 1.9680469992	 0.8115232045	 0.099281
H	 0.7253228439	 0.0520913606	 2.0180429976	 0.068702
H	-0.5189671536	-2.2420230632	 2.4340946758	 0.097986
H	-0.0768921254	-3.8154778888	 0.735419058	 0.232014
H	 2.0416445353	-3.3382406956	 1.6955138198	 0.100554
H	 2.7532158745	-0.8178247602	 1.3212023813	 0.100295
H	 2.9582456606	-0.9833015156	-2.8823683442	 0.192099
104.5532	113.8076	137.0531	178.1976	194.1717	289.2653	365.0211	374.6571	502.6723	581.8387	616.0693	623.2883	637.6138	726.4881	774.8063	842.4899	845.4412	901.6003	967.7837	1002.6331	1022.6521	1045.5188	1073.2213	1099.8698	1113.3455	1158.2577	1172.7803	1183.1988	1225.7018	1255.8062	1279.8739	1327.303	1348.062	1381.9118	1403.8333	1481.3228	1489.796	1508.1473	2233.3561	2975.9092	2983.7195	3052.4441	3061.309	3123.2092	3190.0777	3203.452	3477.2271	3504.1321
COC1C2NC2C1C#C	CO[C@H]1[C@H]2N[C@H]2[C@H]1C#C	
InChI=1S/C7H9NO/c1-3-4-5-6(8-5)7(4)9-2/h1,4-8H,2H3	InChI=1S/C7H9NO/c1-3-4-5-6(8-5)7(4)9-2/h1,4-8H,2H3/t4-,5+,6+,7-/m1/s1
