12
gdb 131252	3.51174	1.7608	1.17277	4.7967	61.27	-0.2153	-0.0266	0.1886	925.0066	0.079405	-468.788449	-468.781865	-468.780921	-468.819503	24.656	
O	 0.2675491899	 1.3877665948	 0.2668057229	-0.432615
C	 0.164895745	 0.0552481921	 0.0599021598	 0.314881
C	 0.1184378038	-0.7813884471	-1.0250692728	-0.212013
N	 0.0037610282	-2.1295104636	-0.6473189141	-0.391987
C	-0.0146708159	-2.0581696765	 0.6407639477	 0.529843
O	-0.1029916827	-2.9270284847	 1.6689659896	-0.248492
N	-0.0648783106	-2.1723677544	 2.867281463	-0.12327
C	 0.040907955	-0.9268316317	 2.5198862204	 0.043763
N	 0.0771705178	-0.7833721485	 1.15886534	-0.102759
H	 0.3192209361	 1.8301857715	-0.5866319868	 0.317352
H	 0.1601135687	-0.5023624674	-2.066759915	 0.118127
H	 0.0920523146	-0.1209463245	 3.2339973351	 0.187171
154.1153	198.4309	225.1244	281.8082	393.7887	575.5691	588.9413	618.3706	644.9945	722.234	735.4508	788.5653	812.5699	857.376	889.1713	976.5688	1079.5648	1156.6517	1186.867	1219.5014	1278.9237	1336.271	1383.8644	1501.5017	1583.398	1627.9793	1661.5199	3250.3529	3284.8251	3840.6332
OC1=CN=C2ON=CN12	Oc1cnc2oncn12	
InChI=1S/C4H3N3O2/c8-3-1-5-4-7(3)2-6-9-4/h1-2,8H	InChI=1S/C4H3N3O2/c8-3-1-5-4-7(3)2-6-9-4/h1-2,8H
