15
gdb 98931	4.18232	0.92575	0.7616	3.9421	73.47	-0.258	-0.052	0.2059	1424.5386	0.110056	-453.950006	-453.940333	-453.939389	-453.986414	32.964	
C	-0.5282316557	 1.3992274611	 0.4234296169	-0.318127
N	-1.0192480607	 0.0334532454	 0.3855253145	-0.344834
C	-1.2260339818	-0.5659563525	-0.79595941	 0.477879
O	-1.0386774453	-0.109395979	-1.8895277209	-0.368744
O	-1.7176952866	-1.9010022899	-0.7431037939	-0.251236
C	-2.0229856189	-2.6271644223	 0.3533732021	 0.286771
N	-1.9119745028	-2.2119262989	 1.5535328866	-0.547505
C	-2.4912011505	-3.9326538914	-0.0187388511	 0.290901
C	-2.8883164723	-5.0355055397	-0.2837846661	-0.401235
H	-0.3042409059	 1.6569263438	 1.4600040425	 0.129387
H	 0.3811444565	 1.4999054719	-0.1753836732	 0.149099
H	-1.2695613514	 2.1054373967	 0.0339958447	 0.140679
H	-1.2494931525	-0.4845755148	 1.2285213884	 0.289896
H	-2.1998228867	-2.9284197968	 2.2138051364	 0.246482
H	-3.2386055955	-6.0091643735	-0.5269802469	 0.220586
27.121	49.9309	85.244	131.5279	178.6851	221.4442	284.3564	315.5661	412.1564	462.4167	611.4208	625.2061	670.8497	681.7286	691.6431	733.6515	760.7661	836.8089	849.7083	937.2447	1074.5141	1102.9182	1161.9153	1197.0544	1231.2495	1380.7605	1458.608	1481.1273	1512.9286	1571.6845	1673.457	1879.448	2238.6568	3038.9859	3099.9121	3139.6658	3460.464	3496.7446	3541.4681
CNC(=O)OC(=N)C#C	CNC(=O)O[C]([NH])C#C	
InChI=1S/C5H6N2O2/c1-3-4(6)9-5(8)7-2/h1,6H,2H3,(H,7,8)	InChI=1S/C5H6N2O2/c1-3-4(6)9-5(8)7-2/h1,6H,2H3,(H,7,8)
