23
gdb 78113	2.55571	1.29572	1.05356	1.13	86.7	-0.2355	0.0786	0.3141	1280.3357	0.203344	-388.27495	-388.264924	-388.263979	-388.308767	39.074	
C	-0.1281561538	 1.4280701306	-0.0363943115	-0.427258
C	 0.0190069211	-0.0741022515	 0.0937068497	-0.061601
C	 1.3810244406	-0.6654810704	-0.1830005934	-0.127418
C	 0.8041504878	-0.6607610822	 1.2395762057	 0.358461
C	 1.2204242796	 0.0796355181	 2.4788337407	-0.504985
C	 0.659126588	-2.1930580283	 1.1820971818	-0.357141
C	 1.3393898395	-2.1931549231	-0.2362032548	 0.409994
C	 0.6122805219	-2.8724886506	-1.3900847175	-0.451233
O	 2.6882338128	-2.6435636556	-0.1656106697	-0.481904
H	 0.7937514586	 1.9518093309	 0.2331534188	 0.118592
H	-0.3690002273	 1.703362928	-1.0688643882	 0.117845
H	-0.9293230788	 1.8102711005	 0.6059018989	 0.116014
H	-0.8612932949	-0.6218117371	-0.2449843552	 0.067477
H	 2.1854247153	-0.0735520228	-0.6064386907	 0.080417
H	 1.3980515561	 1.1411878037	 2.2858842573	 0.11794
H	 0.4470498202	 0.0113998308	 3.2546427713	 0.114716
H	 2.1424366155	-0.3411820922	 2.8954434259	 0.12095
H	 1.2946105308	-2.7129312819	 1.903361895	 0.096912
H	-0.3639897774	-2.580725481	 1.2514711416	 0.081171
H	-0.4102207789	-2.5013469339	-1.5020168548	 0.11625
H	 1.1505313441	-2.7023584876	-2.3277210045	 0.12241
H	 0.5508296893	-3.9558350585	-1.2235611802	 0.101995
H	 2.6714053197	-3.6040953058	-0.0891921763	 0.270396
126.0806	169.1534	179.8916	196.5152	226.0005	250.8137	279.4565	295.7562	327.5954	367.611	372.9375	437.9578	476.0781	502.6071	599.3932	684.1966	765.6882	837.2184	865.9923	930.8261	937.8256	949.4863	951.9416	988.5892	1017.4678	1051.7753	1079.5025	1100.7535	1120.8577	1147.1442	1156.5419	1169.1853	1219.1345	1236.4128	1252.0273	1265.2496	1359.3535	1384.4492	1406.9138	1416.5916	1421.6303	1440.9072	1474.5489	1485.9876	1490.1272	1492.1534	1493.4275	1501.3165	1511.3823	3019.8219	3021.5542	3030.0261	3031.452	3075.5801	3082.6156	3089.0307	3089.7647	3101.9633	3105.0183	3112.6836	3117.2289	3170.7057	3795.906
CC1C2C1(C)CC2(C)O	C[C@H]1[C@H]2[C@]1(C)C[C@]2(C)O	
InChI=1S/C8H14O/c1-5-6-7(5,2)4-8(6,3)9/h5-6,9H,4H2,1-3H3	InChI=1S/C8H14O/c1-5-6-7(5,2)4-8(6,3)9/h5-6,9H,4H2,1-3H3/t5-,6-,7+,8-/m0/s1
