20
gdb 121049	3.61513	0.87225	0.82236	4.6417	76.73	-0.2371	0.0393	0.2764	1486.8725	0.171091	-440.328998	-440.319706	-440.318762	-440.364068	33.703	
C	-0.5274489205	 1.4994914964	 0.1946939602	-0.383299
C	-0.1783707104	 0.0208120621	 0.2118253159	-0.04297
O	-1.3402602328	-0.713622201	-0.1267964014	-0.254202
C	-1.155481954	-2.113352167	-0.2077352239	 0.124777
C	-1.1903150479	-2.787459924	 1.1936291693	-0.186978
N	-2.5890182947	-3.1250296069	 1.3553245842	-0.297972
C	-3.329353402	-3.128991755	 0.2032206956	 0.412393
O	-4.4961433059	-3.4361436722	 0.1057946352	-0.380599
C	-2.3790725933	-2.6997206026	-0.9188983772	-0.354428
H	 0.3515075241	 2.1010907048	 0.4443499436	 0.115989
H	-0.8845894027	 1.7966895822	-0.7951383995	 0.129868
H	-1.3153251731	 1.7158375373	 0.9215344245	 0.13042
H	 0.6258732152	-0.1982175431	-0.5106809511	 0.089128
H	 0.1965959311	-0.2692861093	 1.2068393358	 0.08649
H	-0.211565782	-2.3359274331	-0.7236463516	 0.070192
H	-0.5434925707	-3.676626741	 1.2185987739	 0.103646
H	-0.8463314387	-2.0991576185	 1.9719142682	 0.116068
H	-2.9915075033	-3.4473775196	 2.2203865504	 0.251005
H	-2.8497058294	-1.9723204442	-1.5807398823	 0.14299
H	-2.1198013993	-3.5849182252	-1.5088136798	 0.127484
55.0074	65.8866	109.5219	157.1301	208.1805	245.7928	333.6823	389.1944	436.0502	472.3136	511.3822	590.9835	681.1299	766.1683	820.4537	834.2622	878.0352	887.1257	928.4357	988.2079	1032.7373	1067.7158	1095.6102	1122.1419	1153.8794	1186.7436	1192.1919	1243.7985	1258.2826	1264.4975	1298.6558	1305.1224	1370.1704	1370.2508	1404.22	1437.103	1447.7985	1452.3929	1482.933	1499.3227	1519.4736	1530.0965	1836.1802	2959.0465	2985.7706	2991.6183	3012.4454	3046.778	3067.5552	3072.0795	3121.4266	3124.4185	3140.0372	3648.7661
CCOC1CNC(=O)C1	CCO[C@H]1CNC(=O)C1	
InChI=1S/C6H11NO2/c1-2-9-5-3-6(8)7-4-5/h5H,2-4H2,1H3,(H,7,8)	InChI=1S/C6H11NO2/c1-2-9-5-3-6(8)7-4-5/h5H,2-4H2,1H3,(H,7,8)/t5-/m1/s1
