21
gdb 88161	2.41798	1.35589	1.22519	2.4548	78.16	-0.2407	0.0749	0.3155	1155.6445	0.182346	-424.211177	-424.202075	-424.201131	-424.245064	34.569	
C	 0.3542384732	 1.704323459	-0.1561940941	-0.394467
C	 0.0076269645	 0.2263182472	 0.05737718	-0.080903
C	 0.5758185304	-0.662884516	-1.0596854116	-0.085572
O	 1.9410557348	-0.8804481598	-0.712834299	-0.261601
C	 2.0363517553	-0.9538121672	 0.7065329226	-0.135717
C	 0.719874862	-0.3984105647	 1.2577560171	 0.309355
C	 0.6074065906	 0.1345820615	 2.6669113077	-0.402263
C	-0.0494319095	-1.1716514398	 2.2916203228	 0.043494
O	-1.4382705075	-1.2324678735	 2.1467304233	-0.41803
H	 1.4291522774	 1.8342438198	-0.3177756033	 0.126109
H	-0.1676786837	 2.1008492879	-1.0335252277	 0.11062
H	 0.0657643195	 2.3125867371	 0.7065263044	 0.109856
H	-1.0735794307	 0.1017587074	 0.1518409354	 0.094462
H	 0.0284074186	-1.6174071621	-1.1129712033	 0.091135
H	 0.5569536503	-0.1952554569	-2.0485631264	 0.101263
H	 2.2008996823	-1.992935644	 1.0315872866	 0.090545
H	 2.9061241985	-0.3619750978	 1.0180164051	 0.101744
H	 1.485131118	 0.1149903951	 3.3063818559	 0.111155
H	-0.0511290316	 0.9831303679	 2.8261534669	 0.114504
H	 0.4096359711	-2.0908433373	 2.6603498039	 0.084518
H	-1.8347894834	-1.1521208637	 3.0203291937	 0.289791
50.7369	159.3583	173.5421	208.5237	232.7776	249.1239	276.9052	365.3434	403.1791	448.7872	519.1676	573.9787	711.4609	762.3374	816.1458	864.3713	885.4354	922.0504	943.4449	970.394	994.4105	1027.4583	1043.6236	1069.8269	1086.1978	1108.4343	1130.6986	1151.8806	1176.4291	1217.9932	1238.0262	1259.0995	1260.0111	1304.0962	1324.5912	1356.8002	1368.6889	1400.6253	1414.27	1428.1884	1486.5658	1495.879	1501.669	1514.8907	1528.4025	2974.2053	2980.7935	3033.574	3035.0758	3080.0222	3081.8864	3085.5882	3101.1007	3111.4935	3117.832	3205.8825	3807.3308
CC1COCC11CC1O	C[C@H]1COC[C@]21C[C@H]2O	
InChI=1S/C7H12O2/c1-5-3-9-4-7(5)2-6(7)8/h5-6,8H,2-4H2,1H3	InChI=1S/C7H12O2/c1-5-3-9-4-7(5)2-6(7)8/h5-6,8H,2-4H2,1H3/t5-,6+,7-/m0/s1
