16
gdb 32309	2.70412	1.62036	1.01971	3.1794	78.88	-0.1953	-0.0266	0.1686	1121.2837	0.126252	-434.095224	-434.087291	-434.086347	-434.127751	29.852	
C	 0.0789376107	 1.3518755624	 0.0806747312	-0.23025
O	 0.1130423499	-0.072830038	 0.0056429231	-0.223183
C	 0.6235497712	-0.5979879005	-1.1084577483	 0.426444
N	 1.0628894396	 0.1451672807	-2.0666381235	-0.3639
C	 1.579965591	-0.4597390933	-3.1954203167	-0.067699
C	 1.6354443856	-1.8007534746	-3.3174713528	-0.025036
N	 1.1631289359	-2.5865278523	-2.2874531027	-0.366051
C	 0.6221458427	-2.0828520149	-1.1065158061	 0.291172
N	 0.1692913115	-2.7598335567	-0.1187285812	-0.532405
H	 1.087089888	 1.7703935708	 0.010835353	 0.134906
H	-0.5256511984	 1.7707568435	-0.7288969898	 0.134918
H	-0.3654474296	 1.5804414222	 1.0496601875	 0.132822
H	 1.9390854986	 0.1948960984	-3.9785510868	 0.112064
H	 2.0307604741	-2.3192455238	-4.180475456	 0.12669
H	 1.2031107737	-3.5901903945	-2.3754856627	 0.253302
H	 0.2470013958	-3.7648114693	-0.2890012582	 0.196207
102.6606	141.2723	178.244	227.4903	283.1972	362.1291	456.9621	521.0379	548.7525	556.8754	586.4899	604.6834	772.6601	777.6702	789.6267	817.5303	889.7684	907.3502	1029.4755	1074.9332	1096.1856	1178.2047	1183.4868	1210.5618	1260.2873	1317.6919	1384.717	1419.5127	1469.5513	1477.9815	1486.4541	1496.6845	1614.4121	1661.6449	1710.1759	3043.0112	3113.0812	3153.9017	3209.782	3230.7713	3443.9174	3627.5593
COC1=NC=CNC1=N	COC1=C(NCC=N1)[NH]	
InChI=1S/C5H7N3O/c1-9-5-4(6)7-2-3-8-5/h2-3H,1H3,(H2,6,7)	InChI=1S/C5H8N3O/c1-9-5-4(6)7-2-3-8-5/h3,6-7H,2H2,1H3
