22
gdb 107617	2.40131	1.47973	1.1079	2.8283	80.99	-0.2361	0.0776	0.3137	1189.8428	0.195711	-404.338168	-404.329402	-404.328458	-404.371208	34.512	
C	 0.0327618117	 1.6097900591	-0.1223413189	-0.408464
C	 0.0640873729	 0.0878887196	 0.0397383257	-0.031584
C	 0.7679435873	-0.6610219911	-1.1165220548	-0.25633
C	 1.2991644202	-1.9527827867	-0.4576080733	-0.160265
N	 1.5098409451	-1.6731327981	 0.9767330814	-0.158763
C	 2.2813617597	-0.4418369983	 1.2380963603	-0.290911
C	 0.7967853111	-0.4125017586	 1.2831891507	 0.307164
C	 0.074988989	-0.4084411465	 2.6195728168	-0.144997
O	 0.7572778502	-1.1786876775	 3.5844329528	-0.421154
H	 1.0475250455	 2.0178747849	-0.1815262201	 0.11741
H	-0.4987805811	 1.896153294	-1.0356392282	 0.11613
H	-0.4735068915	 2.0935377554	 0.7192862242	 0.119953
H	-0.9714328837	-0.2738087784	 0.1127698464	 0.074722
H	 0.0933420233	-0.8673248402	-1.9515265309	 0.103881
H	 1.5869433559	-0.0539343125	-1.516316326	 0.104778
H	 0.5572917308	-2.7561037304	-0.5236693372	 0.108648
H	 2.2240642781	-2.3207336995	-0.9129094637	 0.107564
H	 2.8326909025	-0.458262281	 2.1724613458	 0.126857
H	 2.7979339022	 0.0333956424	 0.4084243047	 0.108249
H	-0.0038241497	 0.6119459821	 3.0135457503	 0.107541
H	-0.9541949407	-0.7785658943	 2.4636660228	 0.08046
H	 1.0463387412	-1.9724376545	 3.1097563311	 0.28911
112.197	133.3828	198.0848	231.2406	242.0373	259.0881	324.2959	427.3912	448.4931	538.9441	547.9768	594.1933	653.3129	688.4914	783.8963	832.9545	854.9259	909.196	940.3438	961.6419	974.458	1016.8006	1054.063	1069.0176	1079.7605	1113.8272	1123.4271	1134.9538	1185.2046	1208.5088	1231.2488	1240.3648	1249.0742	1312.2513	1322.2719	1349.8605	1364.0236	1377.4088	1402.2077	1413.1513	1451.7733	1487.0931	1495.7566	1497.8189	1500.9705	1510.6161	1517.6809	2942.2357	3002.6973	3031.5504	3041.6443	3049.7676	3051.3382	3082.794	3099.0082	3100.5456	3103.3586	3115.4518	3204.8229	3716.2033
CC1CCN2CC12CO	C[C@H]1CCN2C[C@@]12CO	
InChI=1S/C7H13NO/c1-6-2-3-8-4-7(6,8)5-9/h6,9H,2-5H2,1H3	InChI=1S/C7H13NO/c1-6-2-3-8-4-7(6,8)5-9/h6,9H,2-5H2,1H3/t6-,7+,8?/m0/s1
