19
gdb 114073	2.83119	1.21387	1.00779	1.198	72.6	-0.2256	0.0713	0.2969	1236.	0.156266	-460.109523	-460.099847	-460.098903	-460.144022	35.546	
C	-0.1886716179	 1.3348833476	 0.0689522213	-0.235955
O	 0.3441542779	 0.0450761547	-0.1337095263	-0.250331
C	 0.7981032115	-0.5643047427	 1.0484480548	 0.067411
C	-0.2641274382	-1.1732976316	 2.0446155047	-0.313759
C	 0.3875641875	-2.5336061942	 1.8453601866	 0.370264
O	 0.5134923258	-3.396453081	 2.9153632233	-0.460438
C	 0.3208737225	-2.9272268978	 0.3928747977	-0.41655
C	 1.3924482305	-1.9473166228	 0.8522322003	 0.278925
O	 2.7425674077	-2.2143713455	 0.716967159	-0.466286
H	 0.5547809075	 2.0161811524	 0.5118872259	 0.105212
H	-0.4847582005	 1.7232990924	-0.9086037998	 0.126364
H	-1.0721156454	 1.3181751403	 0.7247128501	 0.108982
H	 1.4982869244	 0.0960910577	 1.5807158382	 0.075599
H	-0.1512442315	-0.7966702789	 3.0631829986	 0.112211
H	-1.3093638366	-1.0940370711	 1.7312065384	 0.101603
H	 1.0981665942	-4.1186183	 2.6609519489	 0.289189
H	 0.7333920459	-3.91202232	 0.1862611552	 0.102525
H	-0.494462293	-2.626440097	-0.2610895021	 0.11592
H	 2.9641827778	-2.1887310324	-0.2210260249	 0.289114
82.8226	99.1219	125.9662	174.9929	213.5028	236.1178	298.8397	333.5165	353.5931	395.0022	463.1039	480.7751	582.2737	632.3138	697.647	780.9388	832.8372	861.8316	951.6905	983.3575	987.5253	1043.7183	1061.1972	1116.3339	1130.3479	1151.0193	1184.2732	1187.7083	1212.5694	1228.2768	1239.565	1282.1228	1330.3208	1379.8573	1410.6407	1424.0479	1469.8563	1481.3301	1488.5278	1508.8921	1526.3697	2974.755	2999.4259	3023.2446	3055.068	3098.8704	3113.0627	3120.3741	3188.2138	3783.8842	3811.2026
COC1CC2(O)CC12O	CO[C@H]1C[C@@]2(O)C[C@@]12O	
InChI=1S/C6H10O3/c1-9-4-2-5(7)3-6(4,5)8/h4,7-8H,2-3H2,1H3	InChI=1S/C6H10O3/c1-9-4-2-5(7)3-6(4,5)8/h4,7-8H,2-3H2,1H3/t4-,5+,6+/m0/s1
