18
gdb 110402	5.45819	0.97904	0.96283	3.6195	77.32	-0.2485	-0.0148	0.2337	1271.0619	0.147218	-401.864062	-401.856197	-401.855252	-401.896734	29.988	
C	-0.0487320483	 1.5886123438	-0.0011807377	-0.378158
C	 0.1187535734	 0.0691835771	 0.1243135063	-0.217844
C	 0.7437692205	-0.5410861711	-1.1150771422	 0.069864
C	 0.6500547766	-2.0334847485	-1.4254117099	-0.081587
C	-0.829252786	-1.8456667681	-1.9179005304	-0.17889
N	-0.1140597642	-0.5317329616	-2.3958324458	-0.169195
C	 0.773992175	-1.6940837982	-2.9537184815	-0.168868
C	-0.4792832305	-2.5031969331	-3.2441333927	 0.4953
O	-0.9207389792	-3.2715369876	-4.0397284674	-0.323354
H	 0.9188869458	 2.0819175024	-0.1432238855	 0.116732
H	-0.6790535264	 1.8387835604	-0.8593232011	 0.140487
H	-0.509644282	 2.0096757466	 0.8968354551	 0.115539
H	 0.7598894873	-0.1681044865	 0.9836487773	 0.103538
H	-0.8520000192	-0.3976694044	 0.3282137245	 0.099812
H	 1.7236954281	-0.0845767718	-1.3073858884	 0.077824
H	 1.0653917096	-2.9056802242	-0.9109738392	 0.085357
H	-1.7451434316	-1.8170041043	-1.3332343811	 0.108002
H	 1.6800736513	-1.4809822912	-3.5179802903	 0.105441
77.4225	137.2661	174.0671	192.4723	260.2475	403.2027	437.922	547.7935	645.8374	682.3634	723.7984	788.6544	800.0864	811.515	820.6535	873.4572	911.0617	971.1993	1008.2345	1024.5657	1056.9955	1061.8111	1089.2082	1120.103	1125.7436	1137.682	1158.922	1198.9049	1231.1472	1244.0534	1274.2679	1296.2768	1345.2129	1409.5347	1433.7799	1482.3976	1498.0152	1508.5598	1926.3145	3019.9375	3023.6729	3038.7223	3056.3696	3063.0345	3106.4388	3119.3894	3144.2881	3158.8333
CCC1C2C3N1C2C3=O	CC[C@H]1[C@H]2[C@H]3N1[C@@H]2C3=O	
InChI=1S/C7H9NO/c1-2-3-4-5-7(9)6(4)8(3)5/h3-6H,2H2,1H3	InChI=1S/C7H9NO/c1-2-3-4-5-7(9)6(4)8(3)5/h3-6H,2H2,1H3/t3-,4-,5+,6-/m0/s1
