15
gdb 18153	3.78852	1.75747	1.53818	4.3794	62.71	-0.234	0.0216	0.2556	846.5761	0.118972	-399.771867	-399.764692	-399.763748	-399.803455	26.557	
O	-0.276466469	 1.4737512588	-0.3234873421	-0.412981
C	-0.1068523487	 0.1027650021	-0.1642036479	 0.11164
C	-1.3081847489	-0.7509234963	 0.0965610859	-0.134947
C	-2.5045021231	-0.265419003	-0.7399383737	-0.178925
N	-1.6790737205	-0.4211407955	-1.9528531467	-0.034527
C	-1.7029081095	 0.3649783459	-3.063835058	 0.132015
O	-2.6335666212	 1.064737875	-3.3968354851	-0.319225
C	-0.5183901249	-0.8982055916	-1.2180646002	-0.108005
H	 0.3794329696	 1.7968591136	-0.9506706431	 0.293837
H	 0.7764414622	-0.2010925022	 0.4003281471	 0.098814
H	-1.374622662	-1.4339339081	 0.9316785191	 0.108865
H	-3.3538897176	-0.9530857077	-0.7295834497	 0.124408
H	-2.8424797139	 0.7583726987	-0.5669120926	 0.145598
H	-0.7750850827	 0.249118295	-3.6647133009	 0.062211
H	 0.1041265003	-1.7024513947	-1.5930846821	 0.111222
73.9823	191.7495	233.7147	262.6126	296.5522	351.8731	503.5053	543.7878	658.2954	747.2989	769.0071	826.975	888.2445	933.7892	976.8682	1025.755	1030.8004	1035.5474	1065.3011	1106.2914	1168.5699	1178.3846	1209.9968	1261.4277	1284.6772	1306.863	1331.7339	1385.9744	1431.6776	1450.8672	1499.3176	1802.1944	2901.4431	3066.6198	3093.8401	3125.7679	3177.8558	3216.7523	3806.6748
OC1C2CN(C=O)C12	O[C@H]1[C@H]2CN(C=O)[C@@H]12	
InChI=1S/C5H7NO2/c7-2-6-1-3-4(6)5(3)8/h2-5,8H,1H2	InChI=1S/C5H7NO2/c7-2-6-1-3-4(6)5(3)8/h2-5,8H,1H2/t3-,4+,5-/m0/s1
