23
gdb 80449	2.32967	1.39754	1.16578	0.2461	92.32	-0.2134	0.0283	0.2417	1238.1882	0.205159	-351.17291	-351.163393	-351.162449	-351.206401	36.986	
C	-0.1409607204	 1.553898691	 0.0633711175	-0.418181
C	 0.0415414279	 0.053458184	 0.0727263915	-0.036317
C	 1.3582095825	-0.6451277693	-0.1940778858	-0.114296
C	 2.665021737	 0.1319125412	-0.0405432387	-0.325747
C	 2.701867457	 0.5192996482	 1.4290256072	 0.322447
C	 3.8003449454	 1.3649237615	 1.9922963272	-0.489363
C	 1.6390384334	 0.0255302294	 2.0746624086	-0.250228
C	 0.7143263534	-0.7435674695	 1.187160867	 0.313504
C	 0.0581159162	-1.9956433438	 1.7232607406	-0.482861
H	 0.6752827852	 2.0694512754	 0.5743736625	 0.11993
H	-0.1896010754	 1.933689598	-0.9638650888	 0.110979
H	-1.0743155064	 1.8360711937	 0.5634631911	 0.111652
H	-0.8048968909	-0.4769895509	-0.3615850462	 0.07462
H	 1.3452464091	-1.4962765413	-0.8667322168	 0.074785
H	 3.5340133353	-0.4845927644	-0.3096047581	 0.101051
H	 2.7118559463	 1.0176529514	-0.6901987347	 0.10337
H	 3.8366079529	 2.3510399098	 1.5112360779	 0.123379
H	 3.6781981341	 1.5201128599	 3.0678783541	 0.121618
H	 4.782353017	 0.9036322968	 1.8235922574	 0.121431
H	 1.4403277361	 0.1675197447	 3.1329182618	 0.078583
H	-0.639259456	-1.7638019709	 2.5376066525	 0.113351
H	-0.5103217665	-2.5095247344	 0.9414068432	 0.111803
H	 0.8014585171	-2.6996412203	 2.115166529	 0.11449
127.1495	173.1738	181.9906	191.5012	213.6715	228.0221	255.5207	298.4338	361.3574	418.6525	505.5732	528.2933	559.158	635.0077	741.4498	764.9862	850.8372	863.0675	876.5902	929.0794	951.0079	979.1151	1007.0915	1020.281	1032.4668	1069.4078	1102.7447	1106.6234	1123.7444	1141.383	1182.5536	1196.4184	1243.4021	1271.7969	1328.4914	1336.8281	1361.5837	1409.4131	1413.3903	1416.3746	1442.1046	1478.2317	1478.6849	1487.4204	1490.7528	1498.0911	1500.2541	1502.3858	1708.6941	3002.6805	3013.3283	3018.6468	3026.1521	3028.7328	3055.952	3076.1067	3081.7926	3094.8129	3106.6774	3107.1804	3124.9795	3159.9692	3172.9461
CC1C2CC(C)=CC12C	C[C@H]1[C@H]2CC(=C[C@@]12C)C	
InChI=1S/C9H14/c1-6-4-8-7(2)9(8,3)5-6/h5,7-8H,4H2,1-3H3	InChI=1S/C9H14/c1-6-4-8-7(2)9(8,3)5-6/h5,7-8H,4H2,1-3H3/t7-,8+,9-/m0/s1
