17
gdb 80956	2.55333	1.34701	1.25502	2.0404	75.06	-0.2532	0.0452	0.2984	1087.2359	0.134088	-421.73647	-421.727892	-421.726948	-421.769145	33.449	
O	-0.0886712618	 1.5188867214	-0.0107475102	-0.449279
C	 0.0066835412	 0.1165165699	 0.0213927204	 0.063856
C	-0.0489445776	-0.6363340763	 1.3903589512	-0.11601
C	-1.5170412863	-0.1509094903	 1.5374379379	-0.311336
C	-1.3611657494	-0.6137442922	 0.047569529	 0.384075
O	-2.3123084072	-0.6717253545	-0.9446382033	-0.471678
C	-0.6104972916	-1.8692974669	 0.5940796263	-0.226734
C	 0.2584698203	-2.6441266726	-0.2684261175	 0.312727
C	 0.9691078429	-3.3203653302	-0.9647086692	-0.443576
H	 0.7990444352	 1.8856724501	 0.0331630079	 0.289342
H	 0.7378018866	-0.261112611	-0.7000646389	 0.085913
H	 0.7177141849	-0.6765200649	 2.1602176731	 0.086462
H	-2.1718840681	-0.758936335	 2.1658293506	 0.093888
H	-1.6543710014	 0.9162940521	 1.6999275099	 0.113612
H	-2.496363004	 0.2301246996	-1.2318082283	 0.293252
H	-1.2456465535	-2.5207355668	 1.2001163093	 0.104031
H	 1.5926546797	-3.9140664526	-1.5861735879	 0.191454
128.7643	142.1408	190.9871	257.6477	269.8818	299.1195	356.8225	418.6792	438.5184	519.9929	529.2599	615.7052	639.6016	661.032	684.8166	774.6946	842.1597	858.7911	933.7382	948.5915	962.523	1028.5806	1066.7342	1101.4453	1110.8382	1130.9134	1154.4075	1181.0813	1194.1488	1218.8812	1285.9528	1304.7066	1358.1153	1386.1136	1445.4338	1517.9165	2230.4242	3065.7392	3073.0185	3076.8698	3150.7986	3164.5707	3503.4963	3801.6171	3832.4268
OC1C2CC1(O)C2C#C	O[C@H]1[C@H]2C[C@]1(O)[C@H]2C#C	
InChI=1S/C7H8O2/c1-2-5-4-3-7(5,9)6(4)8/h1,4-6,8-9H,3H2	InChI=1S/C7H8O2/c1-2-5-4-3-7(5,9)6(4)8/h1,4-6,8-9H,3H2/t4-,5-,6-,7-/m0/s1
