17
gdb 38773	3.1097	1.60958	1.18768	2.1401	71.95	-0.261	-0.0089	0.2521	1013.2848	0.137564	-421.787438	-421.780526	-421.779582	-421.81856	27.891	
C	-0.0003941428	 1.5050111991	-0.0047466103	-0.285276
C	 1.4139030511	 2.0583662605	 0.0100532577	 0.051147
O	 1.6940773151	 3.1113688993	 0.9364055526	-0.258115
C	 2.2872899133	 1.8183761525	 1.1679959111	 0.00806
C	 1.8331344006	 1.0743462998	 2.3764927825	-0.079625
C	 1.0873063705	-0.0313529997	 2.3772886197	-0.079627
C	 0.5667625802	-0.7323362877	 1.1698291389	 0.00806
O	-0.8544525495	-0.6668764626	 0.9391148739	-0.258115
C	 0.0163214213	-0.0135772011	 0.0115415217	 0.051148
H	-0.5180357211	 1.8548183963	 0.8901651098	 0.138787
H	-0.5521216888	 1.8765412737	-0.874201748	 0.107147
H	 1.8927913092	 2.188972126	-0.9614166145	 0.092673
H	 3.3671698356	 1.8147845249	 1.0053138588	 0.098909
H	 2.1718505874	 1.4838993976	 3.3264864305	 0.106622
H	 0.8350807543	-0.4978784384	 3.3279127458	 0.106623
H	 0.9744917531	-1.7324075975	 1.0078617869	 0.098909
H	 0.0739644206	-0.5074793725	-0.9594804872	 0.092673
146.5021	221.5334	307.708	333.057	351.8555	414.8231	455.862	571.53	617.6557	735.6364	803.7589	812.6325	814.9706	830.794	851.3581	952.5678	991.5444	997.231	1022.8746	1030.0219	1040.2083	1094.9188	1123.7942	1153.6417	1159.9056	1212.3649	1230.2866	1284.6294	1298.7532	1323.3054	1371.943	1395.1652	1425.8236	1476.0651	1479.253	1489.3723	1720.4976	3057.9644	3080.5051	3080.9511	3097.5805	3099.4968	3129.5922	3136.0391	3157.4892
C1C2OC2C=CC2OC12	C1[C@H]2O[C@H]2C=C[C@H]2O[C@@H]12	
InChI=1S/C7H8O2/c1-2-5-7(9-5)3-6-4(1)8-6/h1-2,4-7H,3H2	InChI=1S/C7H8O2/c1-2-5-7(9-5)3-6-4(1)8-6/h1-2,4-7H,3H2/t4-,5+,6+,7-
