16
gdb 45763	3.13018	1.23515	0.93325	0.7485	77.81	-0.2267	-0.007	0.2197	1216.5825	0.12467	-396.912891	-396.904477	-396.903533	-396.947245	30.538	
N	 0.067783805	 1.2826892823	-0.5504348647	-0.555166
C	 0.1182925299	 0.0589973986	-0.2076293932	 0.35211
C	 1.2379657327	-0.9803659709	-0.1258287033	-0.270854
N	 0.6162647243	-2.2301784268	 0.3334172983	-0.265951
C	-0.6210320881	-1.9548399366	 0.4915677636	 0.075354
N	-1.0049656892	-0.6502281906	 0.2097218571	-0.080501
C	-2.3400528781	-0.075146091	 0.2704647463	-0.306077
C	-3.0950152863	-0.5170647784	 1.4378297658	 0.288756
C	-3.7276051289	-0.8953165013	 2.386089089	-0.43417
H	 0.9893040518	 1.6277468897	-0.8117652342	 0.224133
H	 1.7151549099	-1.1249411143	-1.1018640811	 0.142214
H	 2.0221749474	-0.6644412014	 0.5719049873	 0.143007
H	-1.3692599392	-2.659309637	 0.8371752832	 0.14806
H	-2.1983375704	 1.0112232349	 0.2798608837	 0.183036
H	-2.9015792491	-0.3091447241	-0.6448945797	 0.147342
H	-4.2862099617	-1.2155861031	 3.2309247719	 0.208707
23.237	94.9421	162.509	195.5085	266.793	323.4457	402.9389	457.5075	529.2849	588.1356	624.8219	670.0282	681.6035	754.5345	821.2441	901.5054	935.368	942.5001	981.0345	987.3621	1006.5916	1020.5088	1164.7836	1192.9184	1247.6053	1284.1692	1303.9623	1321.5494	1388.2161	1427.1771	1453.8477	1492.7203	1679.5457	1736.3391	2245.4656	3007.2454	3041.6312	3071.8278	3074.1873	3210.679	3503.4574	3505.2733
N=C1CN=CN1CC#C	[NH][C]1CN=CN1CC#C	
InChI=1S/C6H7N3/c1-2-3-9-5-8-4-6(9)7/h1,5,7H,3-4H2	InChI=1S/C6H7N3/c1-2-3-9-5-8-4-6(9)7/h1,5,7H,3-4H2
