14
gdb 132869	3.15401	1.36734	0.95438	1.3101	72.38	-0.192	-0.0346	0.1574	1114.8305	0.101273	-477.99816	-477.990651	-477.989707	-478.029963	29.441	
N	 0.0447349248	 1.3519887904	 0.0000887037	-0.577417
C	-0.0331976286	-0.0122130532	-0.0081978013	 0.275946
C	-1.1760730684	-0.7534135575	 0.0114411455	-0.320294
C	-1.0721496615	-2.1758030906	 0.0616974552	 0.209381
F	-2.2034889504	-2.8886750342	 0.0863922259	-0.077609
C	 0.1181973371	-2.7921738751	 0.0870726392	-0.101155
O	 1.2737224222	-2.0571300165	 0.0554271605	-0.231188
C	 1.2729662065	-0.6925232145	-0.0060574349	 0.379859
N	 2.3526689323	-0.0170454291	-0.0673492189	-0.563887
H	 0.9599260763	 1.7163984171	-0.2257104977	 0.276886
H	-0.7531354582	 1.8824454667	-0.3069751492	 0.255185
H	-2.1589372246	-0.2972146441	 0.000508576	 0.108019
H	 0.2892185996	-3.8563080509	 0.1297692228	 0.140525
H	 3.1715252929	-0.6229895785	-0.0657771568	 0.225749
115.1132	199.8813	314.5584	357.3151	364.4203	381.743	431.6	465.2835	496.3242	519.6716	587.0624	590.6405	681.3221	761.0921	777.7135	812.5125	826.068	845.59	998.5226	1032.6545	1108.655	1207.7757	1212.4041	1263.0151	1322.2309	1415.3082	1464.3655	1596.6434	1654.0022	1684.8049	1728.1752	3201.7953	3260.2384	3510.0961	3564.2034	3701.0724
NC1=CC(F)=COC1=N	NC1=C(OC=C(C1)F)[NH]	
InChI=1S/C5H5FN2O/c6-3-1-4(7)5(8)9-2-3/h1-2,8H,7H2	InChI=1S/C5H6FN2O/c6-3-1-4(7)5(8)9-2-3/h2,8H,1,7H2
