15
gdb 11095	8.3537	0.969	0.93239	1.3871	67.02	-0.2655	-0.0403	0.2252	1175.4963	0.118505	-362.673889	-362.666137	-362.665193	-362.706871	27.157	
O	 0.044654932	-0.0968109004	-0.1705067873	-0.246639
C	 0.0041425663	 1.0895051823	 0.0241562941	 0.172655
C	 1.204500787	 1.9994485616	 0.0486910847	-0.092383
C	 1.0190412271	 3.2739302941	-0.8382780922	-0.252663
C	 0.6708876294	 4.0991745446	 0.4400657923	-0.128828
C	 1.2362673706	 2.9295652322	 1.3053793895	-0.252665
C	 1.2764112144	 5.4111054285	 0.5894446703	 0.264459
N	 1.7798680402	 6.4456567757	 0.7045949443	-0.317224
H	-0.9705990547	 1.6053154958	 0.2057870783	 0.071308
H	 2.0991502542	 1.4051056766	-0.1374525968	 0.107196
H	 1.9618418645	 3.5890886518	-1.2868589434	 0.142319
H	 0.2509336659	 3.2405112947	-1.6136449925	 0.129157
H	-0.411121555	 4.194744809	 0.565072848	 0.13183
H	 0.6339674314	 2.6332391651	 2.1666149161	 0.129157
H	 2.2580167167	 3.1195362984	 1.6360731146	 0.142319
58.5119	68.3953	166.2898	212.7939	313.5103	315.9145	430.475	545.4731	548.9045	646.3239	816.805	863.9053	878.5514	900.0987	968.291	972.6723	1039.1145	1077.0871	1102.3711	1131.4792	1211.9511	1222.5999	1249.2435	1262.55	1277.4245	1315.3256	1358.9995	1439.0122	1472.251	1491.4724	1836.5331	2355.1013	2834.085	3075.4358	3078.8316	3080.5223	3115.57	3140.4653	3143.4206
O=CC1CC(C1)C#N	O=C[C@H]1C[C@@H](C1)C#N	
InChI=1S/C6H7NO/c7-3-5-1-6(2-5)4-8/h4-6H,1-2H2	InChI=1S/C6H7NO/c7-3-5-1-6(2-5)4-8/h4-6H,1-2H2/t5-,6-
