17
gdb 94386	2.95689	1.49781	1.26952	0.5892	67.33	-0.2449	0.0621	0.307	1019.5963	0.134988	-458.891652	-458.883846	-458.882902	-458.924244	29.849	
O	 0.2220986297	 1.185054794	-0.3499446343	-0.422432
C	 0.0845770254	-0.1483484948	 0.0646452234	 0.006891
C	 0.0000757608	-0.31831153	 1.5882959972	-0.102817
O	-1.2357779778	-1.066725211	 1.4668056971	-0.331384
C	-1.325998906	-0.7764640155	 0.0670271793	 0.425832
C	-2.5949416072	 0.0067180779	-0.4088171088	-0.330803
C	-2.8619848051	-1.1355249866	-1.3963493726	 0.039635
O	-1.6738812099	-1.2848510077	-2.1936379754	-0.255684
C	-1.7147818492	-1.9085780749	-0.899005235	-0.083019
H	 0.2063401824	 1.1944007784	-1.3130768075	 0.293399
H	 0.8277633484	-0.8020235527	-0.4098241907	 0.082484
H	 0.785638804	-0.9010199319	 2.0789068789	 0.109173
H	-0.1443204842	 0.6333114964	 2.112596348	 0.11576
H	-3.321717361	 0.0426357944	 0.4068286635	 0.12424
H	-2.4477465033	 1.0025834215	-0.8318870145	 0.110465
H	-3.7943325882	-1.4654929658	-1.8386494678	 0.109633
H	-1.5269096888	-2.9740974817	-0.8348888506	 0.108627
74.2952	113.1731	193.8436	288.6103	339.881	362.1187	422.7226	454.2736	531.0283	568.8995	758.7407	793.4337	847.0823	864.2855	873.079	916.4359	970.0151	970.6168	993.8246	1016.8894	1034.8972	1086.732	1102.1328	1134.5764	1150.9426	1177.9596	1205.347	1215.2503	1235.3281	1259.5755	1290.5226	1325.0715	1337.2484	1376.573	1441.7054	1466.2009	1517.0821	3018.7008	3034.4573	3069.5545	3091.0822	3131.9463	3183.5994	3199.0794	3813.8731
OC1COC11CC2OC12	O[C@H]1CO[C@]21C[C@H]1O[C@@H]21	
InChI=1S/C6H8O3/c7-4-2-8-6(4)1-3-5(6)9-3/h3-5,7H,1-2H2	InChI=1S/C6H8O3/c7-4-2-8-6(4)1-3-5(6)9-3/h3-5,7H,1-2H2/t3-,4+,5-,6+/m1/s1
