17
gdb 7612	3.3692	1.5895	1.33698	2.3383	64.95	-0.2418	0.0218	0.2635	979.0741	0.140053	-401.028588	-401.019601	-401.018657	-401.061947	32.543	
C	 0.1311467836	 1.296959481	-0.3584884288	-0.423898
C	 0.2782536993	-0.1409228505	 0.063047205	 0.046807
O	 1.604644866	-0.6290967363	 0.3135515775	-0.305435
C	 0.6781010749	-0.5939205353	 1.4169429883	 0.272496
C	 0.9797060447	 0.3398303243	 2.5624300665	-0.470367
C	 0.1660397689	-1.9599756824	 1.8562161694	 0.337523
N	 0.563977031	-2.9820918069	 1.0529316446	-0.526591
O	-0.5548734046	-2.0878766675	 2.8281269401	-0.3708
H	 0.7835317228	 1.960325885	 0.2111689536	 0.133534
H	 0.3853391204	 1.4012026171	-1.4184923006	 0.133217
H	-0.90591555	 1.62398424	-0.2293400586	 0.13247
H	-0.3322001476	-0.8410765108	-0.5102488617	 0.097216
H	 1.2023329145	 1.3505849497	 2.2198510339	 0.120545
H	 0.1228270301	 0.3599032957	 3.2388874505	 0.155358
H	 1.8422923238	-0.027960091	 3.1273598421	 0.132691
H	 1.2877165476	-2.8154055835	 0.3729103663	 0.273347
H	 0.3217490446	-3.9218537288	 1.3186146221	 0.261887
74.8822	132.4944	151.1613	170.81	220.9633	294.7557	331.7096	362.7966	373.6284	471.5548	521.9289	547.7534	630.174	688.4115	741.6141	805.4169	870.8898	925.8682	1005.3473	1049.786	1095.2593	1104.0345	1136.2958	1165.5175	1223.374	1340.5615	1376.8515	1404.2572	1413.9363	1451.3769	1473.9627	1484.6433	1492.2318	1512.0951	1588.9503	1796.3601	3043.0722	3055.6168	3093.3335	3103.8453	3123.8823	3142.2346	3157.2687	3592.8484	3732.5084
CC1OC1(C)C(N)=O	C[C@H]1O[C@]1(C)C(=O)N	
InChI=1S/C5H9NO2/c1-3-5(2,8-3)4(6)7/h3H,1-2H3,(H2,6,7)	InChI=1S/C5H9NO2/c1-3-5(2,8-3)4(6)7/h3H,1-2H3,(H2,6,7)/t3-,5+/m1/s1
