19
gdb 32084	2.9514	1.1494	0.88645	1.4797	86.55	-0.2154	0.0029	0.2184	1339.4851	0.1606	-385.96941	-385.960933	-385.959988	-386.002945	32.622	
C	 0.0163356992	 1.563927931	-0.0056436592	-0.362989
C	-0.0133674589	 0.0256173903	-0.0159044989	-0.289708
C	-1.4191897119	-0.53155004	 0.0171042899	 0.348824
C	-2.0467184071	-0.8261981441	 1.229401911	-0.224823
C	-3.3563615816	-1.3028140482	 1.2462477578	-0.080256
C	-4.0604185871	-1.4950852393	 0.0645019891	-0.206657
C	-3.4393097963	-1.2045889598	-1.1512063143	 0.411469
O	-4.1596689538	-1.4107374688	-2.291598108	-0.442485
C	-2.1289082553	-0.7277044254	-1.170691519	-0.357887
H	 1.0454919413	 1.9362500603	-0.0293814519	 0.111387
H	-0.5133050454	 1.9718047893	-0.8725114348	 0.118165
H	-0.4683616237	 1.9578400992	 0.8931584091	 0.122342
H	 0.5061240545	-0.3390157458	-0.9098282391	 0.099985
H	 0.5470633662	-0.3517638493	 0.8467467647	 0.103452
H	-1.507269324	-0.6860210458	 2.1607980905	 0.084589
H	-3.8338102108	-1.5326757387	 2.1934212713	 0.094716
H	-5.0776559402	-1.8689031068	 0.0596596433	 0.101513
H	-3.6165123132	-1.1750875123	-3.0507303131	 0.295124
H	-1.6520752119	-0.5094229957	-2.1246794984	 0.07324
41.9431	132.4072	215.0833	234.0299	305.0297	321.5123	369.6148	449.0128	464.9194	522.7253	542.1073	637.8472	716.6135	738.5877	791.22	806.108	859.027	887.7737	920.9751	957.9664	994.0975	1010.8491	1070.7681	1082.4312	1112.3155	1182.9184	1191.741	1202.5913	1274.0072	1312.5607	1345.4719	1354.2103	1366.7755	1409.637	1485.8476	1488.0327	1496.4985	1508.6235	1537.0092	1641.2993	1646.869	3031.4223	3034.3464	3067.4241	3106.1107	3110.3954	3137.5143	3168.3439	3184.6552	3203.5857	3822.2262
CCC1=CC=CC(O)=C1	CCc1cccc(O)c1	
InChI=1S/C8H10O/c1-2-7-4-3-5-8(9)6-7/h3-6,9H,2H2,1H3	InChI=1S/C8H10O/c1-2-7-4-3-5-8(9)6-7/h3-6,9H,2H2,1H3
