18
gdb 51906	7.6238	0.52475	0.51856	4.1884	78.78	-0.2419	-0.0212	0.2207	2089.0941	0.144295	-439.065055	-439.05538	-439.054436	-439.101869	33.165	
O	 0.3760183851	 0.5428663886	 1.1254317133	-0.237806
C	 0.2352858615	 1.1439326786	 0.093326159	 0.156359
C	 1.3287567245	 1.9841961241	-0.5559910464	-0.236638
N	 0.7520375885	 2.9983317178	-1.4081818218	-0.225156
C	 1.0998876963	 4.1917155161	-1.2061304739	 0.132086
O	 0.5961986577	 5.1850494974	-1.964283201	-0.204559
C	 0.9923744806	 6.4897530942	-1.6038013902	 0.119719
C	 2.3346213124	 6.9948948011	-2.0592189092	-0.287162
C	 1.0598331656	 7.4738284853	-2.722609654	-0.278816
H	-0.7142456322	 1.1203864253	-0.4846473861	 0.095338
H	 1.9988571838	 2.3595868459	 0.2333617675	 0.111878
H	 1.9158894929	 1.2869977508	-1.1748632093	 0.137158
H	 1.8151741374	 4.5215164579	-0.4384652414	 0.088902
H	 0.6036900096	 6.810705188	-0.6407318342	 0.108739
H	 2.8772956823	 7.671686166	-1.4088982869	 0.124256
H	 2.9544133394	 6.3058759989	-2.6215993509	 0.131367
H	 0.8431457255	 7.0896353889	-3.7123824692	 0.139343
H	 0.7165176491	 8.4848085153	-2.5378311053	 0.124994
31.9495	43.7245	71.6042	120.5635	142.9659	213.948	318.6116	350.2317	384.8395	458.4341	508.4405	615.5732	739.1148	763.314	821.8458	852.2465	977.4507	991.2076	992.7959	1042.9092	1058.5306	1078.0858	1087.09	1107.6157	1127.7502	1189.6003	1193.6062	1212.1702	1235.6619	1263.5003	1323.8851	1379.8655	1402.5179	1417.2127	1455.2321	1457.249	1495.5962	1771.4864	1838.9477	2903.2121	2973.9194	3013.1671	3015.0374	3136.8313	3141.5321	3149.0865	3226.4551	3241.4973
O=CCN=COC1CC1	O=CCN=COC1CC1	
InChI=1S/C6H9NO2/c8-4-3-7-5-9-6-1-2-6/h4-6H,1-3H2	InChI=1S/C6H9NO2/c8-4-3-7-5-9-6-1-2-6/h4-6H,1-3H2
