20
gdb 86708	2.90595	1.28797	1.10379	1.4788	78.82	-0.2344	-0.0235	0.2109	1173.6329	0.171305	-403.145686	-403.137196	-403.136252	-403.17908	32.255	
C	 0.0524467266	 1.5211424493	-0.2411012418	-0.39439
C	 0.0601715844	 0.0153227026	-0.007943554	 0.059193
C	 0.5978600299	-0.8248796333	-1.1914225037	-0.270206
C	 1.195429259	-2.079678837	-0.5319785463	-0.104379
C	 2.4219178811	-2.641212523	-1.2206583074	 0.151341
O	 3.0052580652	-2.1153750689	-2.1347955911	-0.245865
C	 1.5412975125	-1.6153467586	 0.8947808386	-0.042451
C	 2.304494048	-0.3441278679	 1.0076600395	-0.252755
N	 0.8458110878	-0.3593020528	 1.1939522794	-0.094244
H	 1.060381486	 1.8921832444	-0.4547865933	 0.117658
H	-0.5857372048	 1.7738874103	-1.0935368366	 0.117537
H	-0.3260631617	 2.0470133166	 0.6397894755	 0.126642
H	-0.9641914933	-0.3084138205	 0.2162967538	 0.082106
H	-0.1866760442	-1.0698630613	-1.9111533024	 0.108071
H	 1.3797380323	-0.2972127367	-1.7445915266	 0.128349
H	 0.4592308272	-2.8904679784	-0.4517331904	 0.092363
H	 2.7893636089	-3.6012797009	-0.7909991777	 0.079549
H	 1.5839015995	-2.3607685138	 1.6833791478	 0.095408
H	 2.8699872758	-0.1298786484	 1.9093738024	 0.119526
H	 2.7261528	 0.0812578483	 0.1004844643	 0.126547
65.0244	104.4948	203.3924	209.4668	232.9512	302.0807	358.8421	415.7838	493.593	602.7452	613.6643	692.0982	726.7341	811.7224	867.2009	875.2488	922.9586	932.6211	963.5837	994.4266	1017.0949	1066.2572	1078.0063	1108.7942	1127.8765	1138.4795	1149.5678	1168.5652	1205.864	1258.489	1263.8839	1293.4164	1343.0024	1353.9114	1374.3998	1383.0478	1409.5558	1429.4602	1490.2735	1493.0435	1497.9896	1518.6281	1823.1235	2868.8676	3019.2249	3022.8655	3037.7477	3069.965	3105.2665	3110.7394	3114.4941	3117.8588	3148.8061	3196.8353
CC1CC(C=O)C2CN12	C[C@H]1C[C@@H](C=O)[C@H]2CN12	
InChI=1S/C7H11NO/c1-5-2-6(4-9)7-3-8(5)7/h4-7H,2-3H2,1H3	InChI=1S/C7H11NO/c1-5-2-6(4-9)7-3-8(5)7/h4-7H,2-3H2,1H3/t5-,6-,7+,8?/m0/s1
