22
gdb 101584	3.48525	0.80162	0.69496	2.5839	81.22	-0.2568	0.0214	0.2782	1698.6213	0.192366	-441.495574	-441.484809	-441.483865	-441.532071	38.679	
C	-0.0033823114	 1.3505191957	-0.772722086	-0.386627
C	-0.120031109	 0.1356598803	 0.1509173312	-0.164737
C	-1.3942300912	-0.6749307921	-0.0899256636	 0.13791
O	-1.375412925	-1.0984893637	-1.4442845315	-0.44431
C	-1.4875685087	-1.8730442541	 0.8814599307	-0.279797
C	-2.8345294677	-2.5466380933	 0.8817448903	 0.383056
N	-3.5598076754	-2.6079593046	 1.9178083709	-0.51661
O	-3.1234896251	-3.038674368	-0.3685345016	-0.240017
C	-4.3712757219	-3.6951337298	-0.5538584501	-0.270605
H	 0.9289621619	 1.8936106833	-0.5904323201	 0.106435
H	-0.0240238804	 1.0402534596	-1.8198773139	 0.137867
H	-0.8329418699	 2.0485359126	-0.6125078675	 0.10896
H	 0.7409132795	-0.5289701314	 0.004504635	 0.099207
H	-0.1035184475	 0.4560581152	 1.1994868889	 0.092839
H	-2.2643359775	-0.0183033291	 0.091711319	 0.064377
H	-2.0753871582	-1.7534960164	-1.5468277473	 0.286208
H	-0.7174913571	-2.599392809	 0.595005105	 0.120982
H	-1.2975484613	-1.5462337058	 1.9051918085	 0.128054
H	-4.4459146706	-3.0861547471	 1.7624310544	 0.217043
H	-4.4516111307	-4.5785368812	 0.0898840182	 0.137777
H	-5.2118524765	-3.0208887912	-0.3521221685	 0.13639
H	-4.3985369663	-4.0064803298	-1.5985234121	 0.145597
45.2549	73.9042	108.589	124.4571	181.8253	225.6916	228.9274	254.7422	313.4033	340.5749	391.9777	443.8564	472.0593	489.084	614.9954	697.6277	783.1718	821.3315	870.7967	882.4485	928.4334	986.5473	1016.0952	1045.7442	1073.0994	1117.7005	1125.308	1147.4364	1175.8048	1213.888	1224.1627	1284.1096	1296.7265	1326.352	1334.4404	1365.0771	1384.9212	1407.618	1452.3611	1458.3773	1474.6022	1477.6657	1491.8296	1496.349	1507.6547	1509.9181	1739.1859	2935.9902	3021.1612	3025.3045	3036.5275	3045.8794	3065.2134	3087.3969	3099.7112	3127.448	3130.4747	3146.7619	3500.0026	3790.767
CCC(O)CC(=N)OC	CC[C@@H](O)C[C]([NH])OC	
InChI=1S/C6H13NO2/c1-3-5(8)4-6(7)9-2/h5,7-8H,3-4H2,1-2H3	InChI=1S/C6H13NO2/c1-3-5(8)4-6(7)9-2/h5,7-8H,3-4H2,1-2H3/t5-/m1/s1
