24
gdb 60287	3.89468	0.62666	0.56888	2.8508	92.77	-0.2429	0.0295	0.2724	2086.4723	0.213468	-405.566622	-405.555042	-405.554098	-405.604434	41.327	
C	-0.1748394461	 1.5449197315	 0.002942376	-0.381779
C	-0.0392499452	 0.0238228714	 0.0157383459	 0.127374
C	 0.7183304842	-0.4968921523	 1.2296850175	-0.387399
O	-1.3423577237	-0.5850785314	 0.0536826701	-0.214247
C	-1.9708843678	-0.7588773294	-1.1240267772	 0.117379
N	-3.1670235794	-1.1456878891	-1.1717808479	-0.219963
C	-3.7583463833	-1.3532342979	-2.4870678639	 0.0622
C	-4.1535153711	-2.8278561327	-2.6323584264	-0.366795
C	-4.9742528445	-0.4314116941	-2.6382430516	-0.366825
H	 0.8119611793	 2.018092058	-0.0168906408	 0.118465
H	-0.7326607079	 1.8827012333	-0.8756488839	 0.120748
H	-0.7065903938	 1.8846289267	 0.8969002752	 0.132907
H	 0.4717342271	-0.3061389392	-0.9007310176	 0.082056
H	 0.2064162017	-0.2041584402	 2.1512912683	 0.13221
H	 0.7826308327	-1.5876051095	 1.2045131202	 0.127946
H	 1.7320209466	-0.0863547751	 1.2509546479	 0.117297
H	-1.3440811753	-0.5552760935	-2.0083601886	 0.069281
H	-3.0363859062	-1.1087715759	-3.2887934221	 0.051269
H	-4.8611220867	-3.1090099577	-1.8462443644	 0.124576
H	-4.6217704346	-3.0098977653	-3.6052623978	 0.105288
H	-3.2767795377	-3.4764019907	-2.5444441864	 0.109654
H	-4.6797367915	 0.6187724938	-2.5519556496	 0.108608
H	-5.4534622873	-0.5766858025	-3.6120023729	 0.105227
H	-5.7076534294	-0.6413058482	-1.85349759	 0.124523
36.8237	41.6739	99.351	121.1678	213.4035	218.5544	236.5641	248.4964	253.834	272.0037	319.1218	354.1679	425.0743	447.3091	467.6934	558.4319	566.1629	819.9213	876.7922	929.2338	930.0848	944.9523	953.2957	953.5577	989.6623	997.7467	1135.0564	1143.1312	1152.2176	1180.7021	1183.2991	1202.0589	1255.2552	1354.0051	1356.1445	1364.2927	1382.4547	1392.918	1402.0024	1412.4129	1418.175	1429.8934	1479.512	1480.5832	1485.0006	1487.4091	1492.9778	1494.0793	1507.8466	1510.8427	1765.1682	2916.4251	2972.1248	2998.2906	3032.7111	3037.0614	3038.0924	3046.4483	3105.4817	3109.2484	3111.1442	3111.6385	3115.3016	3115.785	3122.6161	3126.5315
CC(C)OC=NC(C)C	CC(C)OC=NC(C)C	
InChI=1S/C7H15NO/c1-6(2)8-5-9-7(3)4/h5-7H,1-4H3	InChI=1S/C7H15NO/c1-6(2)8-5-9-7(3)4/h5-7H,1-4H3
