17
gdb 104962	2.20844	1.59379	1.07392	2.4154	76.72	-0.2517	-0.0604	0.1913	1141.1181	0.132326	-421.776814	-421.767361	-421.766417	-421.811227	34.288	
C	-1.3282765335	-0.0427934406	 0.0588994052	-0.259303
O	 0.0909625245	 0.0036187953	 0.0049406007	-0.286352
C	 0.6529458003	-0.6812255672	-1.065251467	 0.315291
C	 1.8880961952	-1.5043704531	-0.7441064457	-0.289149
C	 0.6090452555	-2.2004472568	-1.0885721957	-0.313727
C	 0.6850500116	 0.0178523448	-2.3927969537	 0.153592
O	 1.0803795887	-0.5306748664	-3.4034139331	-0.315073
C	 0.2570107683	 1.4068988625	-2.4106940479	 0.273261
C	-0.0829856546	 2.5595154719	-2.4806690418	-0.396029
H	-1.7851640447	 0.4327010871	-0.8177289699	 0.119391
H	-1.6939247778	-1.0753229799	 0.1346867388	 0.111449
H	-1.6229022396	 0.5083850876	 0.9542903323	 0.131536
H	 2.6827569374	-1.4955420697	-1.4804216003	 0.139279
H	 2.1926088998	-1.4777238258	 0.2953143105	 0.13351
H	 0.0560171131	-2.6706519707	-0.2840006551	 0.125254
H	 0.5263727374	-2.6650878116	-2.0638991713	 0.143898
H	-0.3807946115	 3.5781074328	-2.5425337361	 0.213174
51.2499	129.0583	140.4342	179.4827	221.9786	253.7186	269.5872	291.7494	357.6863	477.9932	490.7735	561.0464	643.7742	691.7606	707.585	755.1686	782.1512	846.9814	908.1757	955.6341	974.8813	1052.2931	1089.1832	1096.7225	1106.5166	1183.0056	1204.838	1222.2418	1297.0927	1322.6485	1438.7858	1468.1454	1482.6275	1491.8386	1505.1316	1741.3227	2211.7766	3008.1654	3068.1314	3127.7532	3145.4995	3147.171	3237.6355	3251.3387	3493.6911
COC1(CC1)C(=O)C#C	COC1(CC1)C(=O)C#C	
InChI=1S/C7H8O2/c1-3-6(8)7(9-2)4-5-7/h1H,4-5H2,2H3	InChI=1S/C7H8O2/c1-3-6(8)7(9-2)4-5-7/h1H,4-5H2,2H3
