18
gdb 92388	2.27276	1.62466	1.28922	2.3328	78.87	-0.2297	0.0158	0.2455	1069.4871	0.146488	-401.866338	-401.857841	-401.856897	-401.899232	32.678	
C	 0.2358184764	 1.5493717907	-0.0195727976	-0.389369
C	 0.069581256	 0.0451942101	 0.059955572	-0.004416
N	 0.9237546895	-0.7474841833	-0.8816062638	-0.341694
C	 1.3985573746	-1.6305710908	 0.2063839943	-0.1175
C	 2.7159912857	-1.1290720364	 0.8086777877	-0.071311
O	 2.0107628209	-0.173118234	 1.6462918851	-0.329214
C	 0.7185737859	-0.7053203397	 1.2663583563	 0.242321
C	-0.1075029203	-1.0952487532	 2.3777761399	 0.261689
C	-0.8200098755	-1.4246341782	 3.2891870414	-0.417382
H	 1.2794321013	 1.8215826187	 0.1518335499	 0.136363
H	-0.0638005926	 1.9132521011	-1.0075278983	 0.114413
H	-0.3860400732	 2.0470646193	 0.7321594882	 0.119003
H	-0.9898032705	-0.2360127762	-0.0023703677	 0.074528
H	 0.3900137244	-1.2343447508	-1.5914358766	 0.222505
H	 1.2227611964	-2.7014772557	 0.1047196663	 0.088534
H	 3.2535963073	-1.8622677784	 1.423058199	 0.103601
H	 3.3971475431	-0.6426212991	 0.1045553422	 0.112025
H	-1.4409338394	-1.713335714	 4.1011475116	 0.195904
101.5874	125.5834	168.5966	212.6165	242.1513	343.3226	387.8332	462.5183	508.8276	527.2266	597.5922	621.8149	633.0544	662.6445	742.9409	848.7545	869.1578	928.9913	951.2217	983.1513	1003.0765	1042.3092	1063.3713	1091.8794	1112.771	1142.7983	1144.9434	1167.49	1208.2918	1272.1673	1333.2359	1340.8601	1378.4725	1388.0244	1408.7929	1483.4584	1493.7981	1504.0171	2231.6264	3015.3143	3020.621	3039.7723	3093.4793	3105.3589	3112.1131	3134.8587	3499.7906	3548.4886
CC1NC2COC12C#C	C[C@H]1N[C@H]2CO[C@@]12C#C	
InChI=1S/C7H9NO/c1-3-7-5(2)8-6(7)4-9-7/h1,5-6,8H,4H2,2H3	InChI=1S/C7H9NO/c1-3-7-5(2)8-6(7)4-9-7/h1,5-6,8H,4H2,2H3/t5-,6+,7+/m1/s1
