21
gdb 40928	3.71995	1.22252	1.11273	2.0131	81.22	-0.2415	0.068	0.3095	1169.872	0.183767	-387.038389	-387.030418	-387.029474	-387.071718	30.844	
C	 0.1794667975	 1.5957203793	-0.365935479	-0.220863
C	 1.5880097502	 1.4706737761	 0.2912089664	-0.234081
C	 1.2528756413	 0.0213468088	 0.753984156	-0.099779
C	-0.1089273593	 0.1138649879	-0.0271052234	-0.003718
C	 0.4477792272	-0.9109671913	-1.0556692352	-0.323555
C	 1.7283043187	-1.1006468003	-0.1971732733	 0.320502
C	 3.156194658	-1.1645631191	-0.7718779629	-0.135947
O	 3.4094844735	-2.4397609486	-0.147920487	-0.275444
C	 2.0698702729	-2.4924862328	 0.3783381708	-0.135751
H	-0.4717154582	 2.2892650499	 0.1725963707	 0.100744
H	 0.1508136389	 1.8589179018	-1.42774549	 0.094403
H	 2.4357426248	 1.545509371	-0.3963093452	 0.09967
H	 1.7632769687	 2.1711372227	 1.1105943421	 0.103825
H	 1.3301105211	-0.1769299163	 1.825066839	 0.061627
H	-1.0748374257	-0.1267511125	 0.4183736828	 0.063746
H	-0.1457863947	-1.8236167997	-1.1637245174	 0.101727
H	 0.6195550286	-0.5001723096	-2.0564647578	 0.09695
H	 3.2183973169	-1.2235831193	-1.867408625	 0.095485
H	 3.8498969254	-0.3900808911	-0.4185142971	 0.09895
H	 2.0595038422	-2.5758121181	 1.4735120194	 0.097637
H	 1.4937147521	-3.325744469	-0.048361854	 0.093871
54.2554	64.0032	186.6865	244.5941	330.0673	355.0964	425.1946	489.2597	703.4886	734.9076	763.1503	831.367	835.0948	855.6873	886.0926	901.7132	945.6915	949.4189	971.2827	989.3251	991.7865	1037.8949	1041.2877	1083.6675	1139.947	1144.3997	1154.4445	1161.1333	1180.3679	1214.6711	1220.0903	1228.1558	1246.0528	1256.6581	1273.1733	1290.1765	1305.2246	1309.508	1327.2464	1380.6655	1473.2319	1479.2168	1496.3743	1505.5106	1531.3584	2987.0834	3000.361	3034.656	3036.7728	3039.0043	3047.7307	3057.1445	3078.0228	3086.7686	3091.9607	3101.4856	3114.5746
C1CC2C1CC21COC1	C1C[C@H]2[C@@H]1CC12COC1	
InChI=1S/C8H12O/c1-2-7-6(1)3-8(7)4-9-5-8/h6-7H,1-5H2	InChI=1S/C8H12O/c1-2-7-6(1)3-8(7)4-9-5-8/h6-7H,1-5H2/t6-,7-/m0/s1
