15
gdb 25381	3.81372	1.30068	0.98201	6.8928	78.71	-0.2365	-0.0507	0.1858	1134.4761	0.114494	-416.818351	-416.811125	-416.810181	-416.850446	26.44	
O	-0.0812404467	-0.0843338907	 0.2534118165	-0.259169
C	 0.016263427	 1.0939237153	 0.0060221198	 0.096217
C	 1.2627373666	 1.8428280509	-0.1101726284	 0.200383
N	 2.515733147	 1.4048778812	 0.0272351267	-0.27743
C	 3.3596700813	 2.4557822761	-0.1675091519	-0.207955
C	 2.5975294199	 3.5822856901	-0.4340450616	 0.282736
C	 2.2460601732	 5.0282665965	-0.7578302231	-0.376098
C	 0.7529826064	 4.533104281	-0.7051932247	-0.174136
N	 1.3055959417	 3.1878874354	-0.3948959506	-0.03656
H	-0.8843853681	 1.7307050269	-0.1607371689	 0.0576
H	 4.4303241877	 2.3405783596	-0.1055176397	 0.121825
H	 2.5085870661	 5.7645655787	 0.0045678955	 0.140422
H	 2.5714152321	 5.3900262849	-1.7353617727	 0.140475
H	 0.1424511607	 4.9445719912	 0.1006328195	 0.145807
H	 0.2064556251	 4.5669193829	-1.6494266563	 0.145883
105.3287	153.4712	169.9106	226.8834	301.5916	382.2336	535.7449	659.6488	681.6135	688.8705	802.2037	812.2759	848.0088	849.8741	910.2624	1019.0345	1045.0153	1057.987	1122.1461	1136.3616	1183.7722	1220.1639	1223.994	1251.9176	1306.6634	1348.5343	1424.688	1448.0746	1473.0802	1483.6345	1512.6229	1536.4803	1802.9292	2850.2783	3076.6009	3080.4243	3124.2168	3142.0241	3258.6543
O=CC1=NC=C2CCN12	O=Cc1ncc2CCn12	
InChI=1S/C6H6N2O/c9-4-6-7-3-5-1-2-8(5)6/h3-4H,1-2H2	InChI=1S/C6H6N2O/c9-4-6-7-3-5-1-2-8(5)6/h3-4H,1-2H2
