14
gdb 11496	4.45403	1.14883	0.99165	2.1572	58.84	-0.2567	-0.1007	0.1561	1130.1642	0.104079	-419.665414	-419.657269	-419.656325	-419.699621	27.377	
O	-0.8573529391	 1.5082360259	 0.0688370834	-0.215436
C	 0.2092098689	 1.055179366	 0.389814161	 0.092978
C	 1.5302720054	 1.8282733989	 0.2630760026	 0.295689
O	 2.5478012869	 1.2777755341	 0.6113307352	-0.271054
C	 1.4536016618	 3.2237758203	-0.3222823657	-0.348806
C	 2.7068165968	 4.0299871777	-0.0911282978	 0.10168
C	 2.6783942059	 5.4965259688	-0.0846348607	-0.184207
O	 2.7650077129	 4.7593195117	 1.1357318544	-0.230107
H	 0.3465548296	 0.0355892046	 0.8069314671	 0.112713
H	 1.2614526998	 3.1060386001	-1.3994141206	 0.146366
H	 0.5735905725	 3.7357845732	 0.0793424033	 0.150226
H	 3.6364028735	 3.527717896	-0.3539534954	 0.113747
H	 3.571282832	 6.0552761991	-0.3606098687	 0.120499
H	 1.7358795032	 6.0173668437	-0.2504350581	 0.115711
36.2163	69.5694	128.0041	141.8744	231.7891	359.5114	394.0494	458.7999	515.8938	631.4745	791.867	813.7622	859.6045	895.8812	962.7923	1020.2729	1089.1725	1111.8591	1156.9725	1159.9014	1168.2479	1222.4103	1297.8381	1341.4045	1362.7719	1422.936	1451.9587	1532.2127	1807.9462	1824.3515	2929.9158	3017.1366	3083.0404	3092.1057	3131.5822	3170.2685
O=CC(=O)CC1CO1	O=CC(=O)C[C@H]1CO1	
InChI=1S/C5H6O3/c6-2-4(7)1-5-3-8-5/h2,5H,1,3H2	InChI=1S/C5H6O3/c6-2-4(7)1-5-3-8-5/h2,5H,1,3H2/t5-/m0/s1
