21
gdb 99212	4.84125	0.61731	0.5732	1.8901	80.78	-0.2467	-0.0123	0.2344	1984.5997	0.177868	-424.281221	-424.269986	-424.269042	-424.319999	38.129	
C	 0.1216529407	 1.5242988958	-0.1100913288	-0.376137
C	-0.0626980529	 0.0359947888	 0.1746058709	-0.276695
C	-1.4943471117	-0.4501644546	-0.0032374369	 0.376024
O	-2.4098984033	 0.3149994223	-0.212036527	-0.304907
C	-1.7011345859	-1.9572501376	 0.0754922564	-0.303506
C	-3.1627419526	-2.3662525208	 0.2205386104	-0.307599
C	-3.4688798558	-3.7492565581	-0.3383169587	 0.381449
C	-4.8325096458	-4.3182926262	 0.008015714	-0.473599
O	-2.6805550958	-4.3549747426	-1.0291130424	-0.297038
H	 1.1580748915	 1.8263931647	 0.0640219505	 0.110154
H	-0.1362115728	 1.7591817931	-1.1462711533	 0.129031
H	-0.5290951109	 2.1250901673	 0.5296369877	 0.133514
H	 0.590100169	-0.5807743162	-0.4576608423	 0.121955
H	 0.2337330747	-0.2069036653	 1.2054177941	 0.123373
H	-1.3004841383	-2.3973300444	-0.848005954	 0.154269
H	-1.0788354086	-2.3715431176	 0.8770998929	 0.115825
H	-3.5013086729	-2.3128339782	 1.2621560758	 0.116422
H	-3.790115659	-1.6413576966	-0.3162165859	 0.154116
H	-5.6230581647	-3.5872999971	-0.1923486366	 0.139125
H	-5.0118310413	-5.2313705262	-0.5606361275	 0.14274
H	-4.8754713437	-4.5454479505	 1.0798699808	 0.141484
30.3118	40.4893	62.6106	80.8472	115.9911	138.7814	194.0274	237.9358	266.156	331.5911	446.5676	468.9739	484.0915	590.2662	644.7278	712.0554	775.7019	796.4548	869.0195	910.6084	952.4763	992.1643	1022.6562	1025.1145	1100.1163	1108.7573	1130.3664	1176.9324	1189.9205	1256.8896	1286.8345	1334.9118	1368.8411	1382.9996	1388.7047	1413.4877	1448.592	1454.8813	1460.4402	1464.9276	1476.948	1492.7694	1498.5508	1801.762	1809.2791	3013.1437	3028.0657	3033.5344	3037.7067	3043.9189	3051.1334	3057.3748	3074.2425	3097.2239	3120.6886	3128.8962	3152.4258
CCC(=O)CCC(C)=O	CCC(=O)CCC(=O)C	
InChI=1S/C7H12O2/c1-3-7(9)5-4-6(2)8/h3-5H2,1-2H3	InChI=1S/C7H12O2/c1-3-7(9)5-4-6(2)8/h3-5H2,1-2H3
