20
gdb 60443	4.38159	0.62863	0.58416	2.9347	72.96	-0.2453	0.035	0.2803	1878.4181	0.167948	-477.445842	-477.434805	-477.433861	-477.483448	38.378	
C	 0.5776420776	-0.2247212227	-0.4547430104	-0.398484
C	-0.147847018	-0.3416420059	 0.882326318	 0.105838
O	-0.0173769604	 0.8334719967	 1.6717762916	-0.426687
C	-1.6324138648	-0.679625032	 0.7189823228	-0.066116
O	-1.7546068743	-1.9422319042	 0.0934741026	-0.260076
C	-3.0891887058	-2.3341432878	-0.14474584	-0.147063
C	-3.1642330781	-3.7548639104	-0.705560428	 0.356153
N	-1.9816367396	-4.4169085904	-0.7245277169	-0.507373
O	-4.2247652138	-4.2170904171	-1.0771384703	-0.364576
H	 1.6390491611	-0.0165114457	-0.2969458319	 0.126324
H	 0.4758928685	-1.1467549659	-1.032681845	 0.130539
H	 0.1512955355	 0.5912098767	-1.0532582648	 0.105675
H	 0.3122394106	-1.1384580783	 1.478554631	 0.098395
H	-0.2621221734	 1.586465926	 1.122473863	 0.280417
H	-2.1131858686	-0.6852884645	 1.7086156835	 0.105234
H	-2.1278253185	 0.0982799175	 0.1111214632	 0.080697
H	-3.6818863098	-2.3122786466	 0.782908816	 0.124035
H	-3.5840416122	-1.664577757	-0.86318116	 0.124626
H	-1.1432883469	-3.9599911677	-0.4099980184	 0.27091
H	-1.9543799989	-5.3571453805	-1.0807448061	 0.261534
34.5281	48.9687	95.4581	108.0782	136.0123	228.146	258.5256	262.6448	279.6881	296.3189	393.0301	429.2826	468.2422	535.4489	542.3759	569.5539	683.8666	843.7937	882.6597	929.2921	968.4116	1032.2637	1047.9892	1081.9543	1099.6857	1138.8538	1160.1464	1174.9642	1241.808	1254.5426	1300.0803	1350.903	1363.418	1380.0105	1399.818	1418.1613	1432.9742	1487.0489	1491.8692	1496.5156	1521.2741	1597.2385	1810.7939	2950.7549	2990.9551	3011.4114	3023.9116	3028.1378	3050.6474	3101.8905	3131.9988	3606.2349	3747.8584	3800.0604
CC(O)COCC(N)=O	C[C@@H](O)COCC(=O)N	
InChI=1S/C5H11NO3/c1-4(7)2-9-3-5(6)8/h4,7H,2-3H2,1H3,(H2,6,8)	InChI=1S/C5H11NO3/c1-4(7)2-9-3-5(6)8/h4,7H,2-3H2,1H3,(H2,6,8)/t4-/m1/s1
