22
gdb 85051	2.4094	1.43278	1.01817	3.7937	83.03	-0.2318	0.0396	0.2713	1252.263	0.194526	-404.410813	-404.401178	-404.400234	-404.444873	36.176	
C	-0.9289023998	 1.073143453	-0.010040433	-0.413816
C	 0.1146904456	-0.040846091	 0.0065390046	 0.017305
C	 1.2274812441	 0.0833244323	-1.0462356363	-0.349362
C	 2.3873541783	-0.7180381018	-0.4579261482	 0.403507
O	 3.3693260354	-1.1311463785	-1.0411229939	-0.399214
N	 2.1223662653	-0.8845476485	 0.8782717378	-0.058983
C	 3.0387509887	-1.5632333304	 1.7643108705	-0.349894
C	 0.9034463449	-0.2245777794	 1.3379637697	 0.008538
C	 1.2013094551	 1.0680505785	 2.1101191624	-0.395562
H	-0.4740610916	 2.0605749924	 0.1161758638	 0.120698
H	-1.4642813875	 1.0778353407	-0.9648125945	 0.120332
H	-1.6721093725	 0.9398975672	 0.7836916683	 0.115307
H	-0.3987391777	-0.9931882703	-0.1742395693	 0.086408
H	 0.9572632416	-0.2999925676	-2.0320181548	 0.126218
H	 1.5532739897	 1.1228064892	-1.1795328609	 0.121517
H	 3.8342258394	-1.9860995619	 1.1480885837	 0.165164
H	 3.4859327782	-0.8809321212	 2.4979444598	 0.121663
H	 2.531764198	-2.3691362915	 2.3090693794	 0.119289
H	 0.3568006131	-0.9048242976	 2.005123865	 0.076678
H	 1.7156211912	 1.8014141939	 1.4808085687	 0.122405
H	 0.2790865343	 1.5207732746	 2.4853812868	 0.121626
H	 1.841141886	 0.860896128	 2.9731049301	 0.120174
99.2894	122.1729	147.855	180.2408	246.392	255.4952	277.2073	289.2954	322.0784	414.761	467.1479	498.7431	564.9159	630.2785	657.0565	755.5365	785.3038	908.4233	938.0725	955.9956	1010.3208	1038.0871	1068.7131	1098.3488	1121.2991	1130.5233	1159.9284	1188.2636	1205.643	1259.292	1285.5559	1295.0719	1342.1288	1376.7486	1384.0603	1411.2163	1417.3426	1425.6317	1448.3839	1475.9302	1487.885	1493.3943	1495.9086	1507.3441	1509.2102	1522.089	1805.2651	3001.9381	3013.8948	3026.66	3033.093	3040.3927	3042.6084	3061.4262	3097.6644	3105.9534	3111.1264	3114.9721	3116.711	3140.5843
CC1CC(=O)N(C)C1C	C[C@H]1CC(=O)N(C)[C@H]1C	
InChI=1S/C7H13NO/c1-5-4-7(9)8(3)6(5)2/h5-6H,4H2,1-3H3	InChI=1S/C7H13NO/c1-5-4-7(9)8(3)6(5)2/h5-6H,4H2,1-3H3/t5-,6-/m0/s1
