23
gdb 122222	2.71563	0.88615	0.76525	1.8731	83.83	-0.2457	0.0785	0.3242	1634.207	0.202708	-425.392396	-425.381584	-425.380639	-425.429245	38.517	
C	-0.4560829369	 1.6353919363	-1.0963592301	-0.383627
C	-0.268835397	 0.2221837824	-0.5704953569	-0.021705
O	-1.5347793907	-0.3967516516	-0.4845160174	-0.239846
C	-1.4770858966	-1.7165283807	 0.0057111556	-0.129415
C	-2.8777737399	-2.2683770634	 0.121533675	 0.437159
C	-3.563867942	-2.7708161965	-1.1095122807	-0.30478
C	-3.0887798439	-3.7552814727	-0.0601354044	-0.335411
O	-3.7276191217	-1.6077946225	 1.0152942717	-0.277047
C	-3.4028294234	-1.7768165068	 2.3802197811	-0.247778
H	 0.5089073572	 2.1450800205	-1.1753882662	 0.111874
H	-0.9223520291	 1.6167534378	-2.08540842	 0.126817
H	-1.1008102676	 2.2103521412	-0.4258035473	 0.128598
H	 0.3947112614	-0.354318256	-1.2388073023	 0.081141
H	 0.2161351355	 0.2392828387	 0.4211490194	 0.081701
H	-0.8910043387	-2.3623149521	-0.6699702056	 0.082436
H	-0.967566675	-1.7390977164	 0.9845277711	 0.082241
H	-4.6295143253	-2.5857942524	-1.1709616721	 0.124875
H	-3.0320665621	-2.7122927683	-2.0523479133	 0.115741
H	-2.236967562	-4.3894082344	-0.2821576179	 0.110391
H	-3.8467858036	-4.2155174346	 0.5634253425	 0.117954
H	-4.214122706	-1.3237595907	 2.9551354834	 0.125935
H	-3.3221746417	-2.8394445422	 2.6517384747	 0.103127
H	-2.463637161	-1.2753651556	 2.65286006	 0.10962
41.4122	76.8339	95.0799	120.4981	142.9374	203.9569	245.8218	260.3335	298.0016	308.8228	358.013	446.272	467.7709	577.0019	744.6746	781.9106	823.5805	881.9628	907.8472	930.6894	938.6729	983.6349	1046.3664	1047.9808	1056.1466	1077.4501	1110.2081	1146.229	1164.4783	1180.1835	1187.4081	1188.7702	1220.0465	1242.8081	1297.4316	1311.5547	1347.6828	1388.9002	1408.4267	1453.0568	1456.825	1474.0161	1483.4624	1488.1159	1499.8379	1499.9557	1507.4634	1513.4766	1534.8814	2941.9694	2955.7277	2967.9576	2976.8655	2990.872	3041.3426	3045.4243	3114.395	3119.2928	3123.1885	3133.2948	3143.7577	3218.7647	3236.6923
CCOCC1(CC1)OC	CCOCC1(CC1)OC	
InChI=1S/C7H14O2/c1-3-9-6-7(8-2)4-5-7/h3-6H2,1-2H3	InChI=1S/C7H14O2/c1-3-9-6-7(8-2)4-5-7/h3-6H2,1-2H3
