13
gdb 25529	5.65825	1.00454	0.85309	2.3901	64.3	-0.2164	-0.023	0.1933	1237.7369	0.089391	-489.917956	-489.910366	-489.909422	-489.950591	27.56	
N	 0.7232682272	 1.0474834793	 1.0101561059	-0.575993
C	 0.3020311546	 0.0120787496	 0.4410563707	 0.50395
O	 0.6947193944	-0.5513950675	-0.7380014312	-0.220127
C	-0.0801343379	-1.6963350886	-0.9357592429	-0.135381
C	-0.9072767749	-1.801300034	 0.103012415	 0.412065
N	-1.8914491198	-2.6922575491	 0.4828427476	-0.415784
C	-2.2345367986	-3.7896307219	-0.2648405481	 0.145849
O	-1.7104173961	-4.0746400003	-1.316612603	-0.294948
O	-0.7007676846	-0.7609567969	 0.9782787511	-0.234095
H	 1.4619437591	 1.4818994909	 0.4635611816	 0.240978
H	 0.0806065526	-2.2833662756	-1.8171930475	 0.188449
H	-2.3635511533	-2.5028573634	 1.3542823947	 0.279942
H	-3.0415244327	-4.3756459524	 0.208353976	 0.105094
65.3927	155.8811	172.015	239.2378	298.5467	363.2203	509.1735	511.2462	601.2665	625.1016	709.9438	732.037	753.629	777.3832	864.0778	938.8141	991.4278	1007.1322	1017.1996	1085.6897	1145.7602	1196.8658	1280.3378	1333.8647	1425.1056	1544.4074	1745.0647	1802.7115	1821.8165	2987.5118	3354.3901	3551.55	3630.4487
N=C1OC=C(NC=O)O1	[NH][C@@H]1OC=C(NC=O)O1	
InChI=1S/C4H4N2O3/c5-4-8-1-3(9-4)6-2-7/h1-2,5H,(H,6,7)	InChI=1S/C4H5N2O3/c5-4-8-1-3(9-4)6-2-7/h1-2,4-5H,(H,6,7)/t4-/m1/s1
