17
gdb 33013	3.95824	1.09353	0.96182	0.4465	74.56	-0.2268	-0.0524	0.1744	1241.2204	0.138558	-414.225659	-414.217464	-414.21652	-414.259529	29.176	
C	-0.8670040053	 0.8352840842	-0.8341700013	-0.314843
N	 0.1394178912	 0.2631196	 0.0562151054	-0.263098
C	-0.3988238907	-0.6861894051	 1.0090661989	-0.259769
C	-0.8720927058	-2.0183539005	 0.4497180985	 0.356977
N	-0.3182323855	-2.451503058	-0.6889519796	-0.274655
C	-0.7500813568	-3.6399095731	-1.1063538992	 0.082753
N	-1.6556552532	-4.4045731219	-0.4970354991	-0.240885
C	-2.1327878744	-3.8728132311	 0.6304961882	 0.080311
N	-1.7890368655	-2.6978948184	 1.1510929308	-0.270663
H	-0.3798298404	 1.5222004769	-1.5319645111	 0.121405
H	-1.4328426391	 0.0954245826	-1.424243285	 0.100661
H	-1.5844675234	 1.4155961722	-0.2430782973	 0.121913
H	 0.848381034	-0.2036156509	-0.5000694018	 0.229727
H	 0.3696341136	-0.9174702772	 1.7612354948	 0.130843
H	-1.2315938231	-0.2358006413	 1.5587478646	 0.132902
H	-0.3229837591	-4.0226288958	-2.0312985896	 0.132894
H	-2.8756240764	-4.4544978825	 1.1728092628	 0.133525
39.5583	91.1296	163.4798	188.2826	250.702	347.2037	352.9767	454.7043	495.015	635.1485	705.6994	755.1427	784.7152	854.0535	949.759	988.3929	1004.4472	1010.4934	1049.2725	1139.6806	1151.4818	1180.4502	1187.9993	1202.5385	1275.4435	1308.2866	1311.8426	1365.1701	1424.1419	1443.6207	1458.2385	1468.1878	1488.7753	1502.5898	1526.7258	1581.3915	1606.7887	2967.2589	3008.8039	3059.3114	3084.508	3106.2063	3157.8506	3161.7267	3530.5479
CNCC1=NC=NC=N1	CNCc1ncncn1	
InChI=1S/C5H8N4/c1-6-2-5-8-3-7-4-9-5/h3-4,6H,2H2,1H3	InChI=1S/C5H8N4/c1-6-2-5-8-3-7-4-9-5/h3-4,6H,2H2,1H3
