20
gdb 37828	2.92531	1.82526	1.68096	2.0348	82.09	-0.2167	0.0716	0.2883	926.2027	0.173322	-365.906631	-365.899736	-365.898792	-365.937689	28.992	
C	 0.0027976728	 1.6479317901	 0.1993885261	-0.311779
C	 1.4634699563	 1.2189300046	 0.0498725613	-0.068303
N	 1.2181016486	-0.0855241947	 0.8675093797	-0.204983
C	 1.8724086953	-0.8932472438	-0.2513160914	-0.231003
C	 1.1459197916	 0.1677542591	-1.0765265336	 0.263355
C	 0.522687859	 0.0758119112	-2.453733235	-0.355822
C	-0.6931188354	-0.8886591786	-2.1785466692	-0.195766
C	-1.092650208	-0.7709878726	-0.6517751855	-0.370151
C	-0.0211931885	 0.1409194614	-0.0825417125	 0.35545
H	-0.3062390079	 1.9630322687	 1.199849406	 0.105222
H	-0.4038952132	 2.3052593287	-0.5740258756	 0.097217
H	 2.3844107504	 1.7829156235	 0.2117314821	 0.078493
H	 2.9672138181	-0.8689811466	-0.2233506534	 0.094061
H	 1.5206073898	-1.9299512712	-0.2997141896	 0.096237
H	 0.160906045	 1.0582141652	-2.7778026817	 0.105569
H	 1.1782932062	-0.3086014492	-3.2400621984	 0.101043
H	-1.5356341934	-0.6627930243	-2.8377730963	 0.102693
H	-0.3954952291	-1.9186514553	-2.3970178375	 0.108696
H	-2.0909759262	-0.3444904552	-0.5218465984	 0.110679
H	-1.1014169613	-1.7549921309	-0.174688727	 0.119093
90.0263	243.6378	272.8797	387.6521	420.2681	478.1021	539.5115	649.8388	689.0678	729.341	768.3707	802.6281	838.5393	865.3518	872.2243	894.9591	920.5687	927.4734	955.5001	962.1387	1004.4624	1024.4468	1070.7595	1090.7849	1120.4605	1138.688	1150.3636	1187.6336	1203.5164	1207.2391	1225.3809	1249.0896	1264.4134	1279.2349	1296.2329	1308.0257	1321.6663	1342.3444	1474.0537	1476.2888	1491.8048	1499.2447	1520.2391	3029.5075	3041.603	3052.04	3052.5947	3063.1702	3084.2811	3085.5972	3094.6816	3095.4035	3110.7879	3115.4377
C1C2N3CC22CCCC132	C1[C@H]2N3C[C@@]42CCC[C@@]134	
InChI=1S/C8H11N/c1-2-7-5-9-6(7)4-8(7,9)3-1/h6H,1-5H2	InChI=1S/C8H11N/c1-2-7-5-9-6(7)4-8(7,9)3-1/h6H,1-5H2/t6-,7-,8+/m1/s1
