18
gdb 82272	3.11163	1.3882	1.06244	2.7091	80.96	-0.2384	-0.0549	0.1834	1128.5469	0.148176	-401.94672	-401.938682	-401.937738	-401.979227	30.631	
C	-0.1632273479	 1.5921570512	-0.0052415309	-0.404845
C	 0.0238450949	 0.0680335751	-0.0233830639	-0.12313
C	 0.8592128437	-0.479612706	-1.1880534561	-0.02333
C	 2.2970299011	-0.1331596306	-1.3121797293	-0.242062
N	 1.8941926307	-1.4174763282	-0.6678485673	-0.110585
C	 1.7954790813	-1.2851799715	 0.7362391877	-0.129434
C	 0.7833292963	-0.5075666293	 1.1659138404	 0.212813
C	 0.4615489863	-0.2884837894	 2.5686997489	 0.070621
O	-0.4421078938	 0.4150145892	 2.9741728922	-0.286474
H	 0.8007616087	 2.1097344552	 0.0230414482	 0.110289
H	-0.6989844372	 1.9234291482	-0.9004947942	 0.113942
H	-0.7358660684	 1.886586161	 0.8759964901	 0.154671
H	-0.9733179791	-0.3896864022	-0.0661491062	 0.099963
H	 0.3425302632	-0.8216131212	-2.0791065262	 0.103858
H	 2.7948033282	-0.2478912183	-2.269775439	 0.130755
H	 2.7117847041	 0.6290786476	-0.659384329	 0.128835
H	 2.5150929555	-1.8156093376	 1.350791871	 0.125895
H	 1.1213119125	-0.834047613	 3.2805575435	 0.068217
97.5494	177.5441	191.7231	235.1206	257.2745	274.1241	424.4438	456.5269	477.0841	599.9919	667.917	730.7426	774.1662	795.8848	822.7591	905.0486	922.747	1004.2648	1028.065	1043.2363	1065.279	1071.5247	1104.671	1122.6876	1130.7278	1166.513	1239.8866	1265.4265	1297.661	1339.1834	1347.8582	1384.4375	1407.6161	1427.4951	1491.1688	1496.6245	1508.8642	1646.8161	1769.22	2873.8034	3016.3707	3041.1264	3106.1713	3120.5098	3141.3373	3161.4325	3197.0305	3214.2387
CC1C2CN2C=C1C=O	C[C@H]1[C@H]2CN2C=C1C=O	
InChI=1S/C7H9NO/c1-5-6(4-9)2-8-3-7(5)8/h2,4-5,7H,3H2,1H3	InChI=1S/C7H9NO/c1-5-6(4-9)2-8-3-7(5)8/h2,4-5,7H,3H2,1H3/t5-,7-,8?/m1/s1
