21
gdb 76867	2.34666	1.70969	1.36499	1.648	81.91	-0.2348	0.0133	0.2481	1051.7725	0.184231	-387.092219	-387.084027	-387.083083	-387.124766	32.848	
C	 0.5266887429	 1.615128542	-0.0281926163	-0.415095
C	 0.1200193824	 0.1467367238	 0.0441605681	-0.029477
C	 0.8187659359	-0.8132941673	-0.9827797841	 0.125334
O	 1.632337208	-0.2605003431	-1.9884584393	-0.425646
C	 1.5066984695	-1.5709520022	 0.1963409019	-0.099517
C	 2.9230703932	-1.1548084289	 0.4937598081	-0.105828
C	 3.0111084125	-0.3688487215	 1.5693231293	-0.058126
C	 1.6697619535	-0.1105370669	 2.2171386784	-0.273565
C	 0.6664329202	-0.7363943448	 1.222702088	-0.03418
H	 1.6055803687	 1.7589738919	 0.0896700204	 0.109779
H	 0.2442655617	 2.035438629	-0.9981843029	 0.125779
H	 0.028812854	 2.2025120782	 0.7502166289	 0.113228
H	-0.9704413792	 0.0876343496	-0.0319356055	 0.068568
H	 0.0946586327	-1.4402558375	-1.5099471593	 0.082648
H	 2.3628014319	 0.194552517	-1.554045998	 0.279918
H	 1.388510563	-2.6595910033	 0.1774161513	 0.067575
H	 3.7671484244	-1.4885011318	-0.1011110475	 0.099442
H	 3.9368791988	 0.0299258896	 1.9720828852	 0.09358
H	 1.6169189186	-0.5868137872	 3.2057033686	 0.103756
H	 1.4866977457	 0.9568880841	 2.3881363673	 0.106448
H	-0.1282936884	-1.2844661306	 1.7305996075	 0.065381
66.5727	188.9409	222.5576	248.6602	270.3722	361.1698	377.3257	457.9485	513.8712	537.9806	647.4164	728.4437	756.8094	782.0977	796.8752	851.5953	854.2147	912.5273	939.9084	974.6461	990.5603	996.4735	1025.073	1054.2519	1097.9833	1124.0447	1128.186	1146.8116	1161.5715	1200.5584	1228.164	1247.7702	1254.8312	1293.31	1309.4793	1313.667	1329.6397	1364.0827	1380.8569	1406.9512	1442.5329	1483.7389	1493.9988	1508.6813	1671.3899	3013.727	3033.975	3040.3751	3043.4732	3054.192	3073.8171	3094.8987	3099.9615	3106.9255	3172.6682	3197.9628	3791.4081
CC1C(O)C2C=CCC12	C[C@H]1[C@@H](O)[C@H]2C=CC[C@@H]12	
InChI=1S/C8H12O/c1-5-6-3-2-4-7(6)8(5)9/h2,4-9H,3H2,1H3	InChI=1S/C8H12O/c1-5-6-3-2-4-7(6)8(5)9/h2,4-9H,3H2,1H3/t5-,6+,7+,8-/m1/s1
