20
gdb 113670	2.72761	1.01544	0.86139	1.5355	77.37	-0.2525	0.0075	0.26	1440.4019	0.169731	-440.293712	-440.28365	-440.282706	-440.329621	35.289	
C	-0.1985080409	 1.553658294	-0.1683757896	-0.377598
C	-0.5278382961	 0.1364567244	-0.6519524528	-0.196682
C	 0.6802300322	-0.5361082649	-1.2631637292	 0.014717
N	 1.6500267783	-1.1438509774	-0.3551560608	-0.32452
C	 0.9233576249	-2.0191344801	-1.2897147765	-0.167204
C	-0.0221844567	-3.0558818836	-0.7690557499	 0.457347
O	-0.3653364237	-4.0088521443	-1.4272704013	-0.376
O	-0.4511547974	-2.8200066531	 0.4829533851	-0.216259
C	-1.3645915375	-3.7937495249	 1.0039256345	-0.239389
H	 0.5889200466	 1.5263973387	 0.5911513228	 0.130153
H	 0.1492412734	 2.1879862711	-0.9917507115	 0.109404
H	-1.0778042465	 2.0334418212	 0.2715281137	 0.113687
H	-0.8886339462	-0.4693340164	 0.1815874652	 0.125654
H	-1.3284579513	 0.1721172855	-1.4019129067	 0.097978
H	 1.0808908491	-0.0182623716	-2.1363643163	 0.088725
H	 2.6030555802	-1.0117183444	-0.6823893875	 0.238227
H	 1.4432748105	-2.3973880366	-2.1654493129	 0.107193
H	-2.2685546235	-3.8437035124	 0.3915272673	 0.139164
H	-0.9007455629	-4.7829571065	 1.0235282288	 0.141991
H	-1.6034391826	-3.4629919787	 2.0145645875	 0.133411
54.5573	78.8478	104.424	130.7262	159.6258	211.4192	226.7325	258.7938	326.6545	424.8586	434.6796	510.6639	647.6695	768.8852	785.2842	817.6148	841.6984	900.6871	944.8696	958.0075	1020.8837	1041.9911	1059.3937	1101.3353	1142.265	1175.2895	1180.0589	1210.8676	1232.8029	1250.4	1308.5643	1319.5913	1351.2297	1405.0985	1409.6369	1467.7889	1477.4076	1481.8789	1484.2685	1498.2536	1499.4438	1508.6735	1804.9559	3032.1086	3032.2351	3052.4013	3088.0047	3093.6027	3111.9477	3124.689	3126.906	3154.1174	3160.4332	3508.2515
CCC1NC1C(=O)OC	CC[C@H]1N[C@H]1C(=O)OC	
InChI=1S/C6H11NO2/c1-3-4-5(7-4)6(8)9-2/h4-5,7H,3H2,1-2H3	InChI=1S/C6H11NO2/c1-3-4-5(7-4)6(8)9-2/h4-5,7H,3H2,1-2H3/t4-,5-/m1/s1
