16
gdb 77227	3.55074	1.08607	0.90418	1.3594	72.85	-0.2442	-0.0367	0.2075	1244.2585	0.122011	-437.825591	-437.816584	-437.81564	-437.860074	32.475	
O	-0.1287167016	 1.5410143767	-0.0570980787	-0.419283
C	-0.1544271229	 0.1549329605	 0.0079370229	 0.115645
C	-1.5523983055	-0.5537516103	 0.1870976658	-0.093019
N	-1.4476049247	-1.1570645424	-1.1497491511	-0.314584
C	-0.0570025893	-0.657294093	-1.3412727953	-0.241189
C	 0.1289301137	 0.1610473976	-2.5285751025	 0.334615
C	 0.2723279645	 0.9037979867	-3.4641644746	-0.415712
C	-1.5828166074	-1.5263844946	 1.333841603	 0.135969
O	-1.4650687617	-2.7203089861	 1.1980069249	-0.252991
H	-0.4417089495	 1.8108484202	-0.9312614556	 0.291755
H	 0.5882626979	-0.1467963572	 0.7501166487	 0.109451
H	-2.3749887814	 0.1656510985	 0.2992664376	 0.101779
H	-1.5030213415	-2.1708422433	-1.1034469128	 0.237676
H	 0.7124905429	-1.4368811096	-1.2967545363	 0.111803
H	 0.4060290133	 1.526380307	-4.3146554159	 0.207275
H	-1.7005784968	-1.0652214006	 2.3392617799	 0.09081
39.0003	103.4796	132.3803	171.8844	263.7476	281.0807	313.8496	354.4413	400.3857	526.8465	581.7134	651.2961	663.2837	705.8894	763.0862	803.2173	820.4512	871.4983	967.9915	989.6026	1048.425	1085.758	1126.7724	1148.9034	1177.3198	1215.9085	1262.0407	1303.9568	1319.1585	1350.1752	1410.0731	1423.9566	1444.2873	1810.1538	2228.1228	2893.3756	3019.3946	3033.0615	3083.7022	3499.5395	3516.4622	3750.8029
OC1C(NC1C#C)C=O	O[C@H]1[C@@H](N[C@H]1C#C)C=O	
InChI=1S/C6H7NO2/c1-2-4-6(9)5(3-8)7-4/h1,3-7,9H	InChI=1S/C6H7NO2/c1-2-4-6(9)5(3-8)7-4/h1,3-7,9H/t4-,5-,6+/m0/s1
