16
gdb 85399	1.93651	1.69844	0.93331	2.7701	66.78	-0.2598	-0.0288	0.231	1176.1413	0.125379	-475.105113	-475.097068	-475.096124	-475.137979	30.202	
O	-0.0845783214	 1.4457683565	 0.0214300224	-0.428495
C	 0.0248667747	 0.0336822012	-0.0062908439	 0.088334
C	 0.7556825958	-0.5093068246	 1.227091386	-0.343793
C	 0.7191959794	-2.0241577954	 1.3237586495	 0.402971
O	 1.5730827255	-2.6892723615	 1.8615214961	-0.334387
N	-0.4000479281	-2.6249240842	 0.7529860236	-0.353854
C	-1.4576073904	-2.0297094277	 0.06535225	 0.400465
O	-2.352899722	-2.7034444298	-0.38671859	-0.334274
C	-1.3969517049	-0.518222572	-0.0450357613	-0.310938
H	 0.800080306	 1.8213714202	-0.0365945279	 0.289083
H	 0.5596965549	-0.2928996516	-0.9127820935	 0.08855
H	 1.8058322548	-0.2076536032	 1.2551656842	 0.130777
H	 0.2739497301	-0.0987767132	 2.1240963286	 0.144797
H	-0.4429987784	-3.6345963086	 0.8302382896	 0.266438
H	-1.9580332038	-0.0926953602	 0.7974171323	 0.146299
H	-1.9191679423	-0.2272580159	-0.9576970657	 0.148026
102.9039	126.9075	153.3012	287.6694	311.357	362.0436	420.2405	428.3358	475.0309	564.592	582.7121	625.1028	631.0599	761.9187	863.4656	886.8685	927.6836	934.3454	1052.4505	1085.8747	1099.4207	1138.7848	1215.8542	1266.2363	1268.9965	1296.4411	1314.947	1355.2546	1387.4719	1410.1372	1440.3348	1459.4101	1476.7219	1811.5686	1826.5572	2972.9252	3037.9568	3042.7449	3106.6259	3128.7809	3578.0719	3816.0621
OC1CC(=O)NC(=O)C1	OC1CC(=O)NC(=O)C1	
InChI=1S/C5H7NO3/c7-3-1-4(8)6-5(9)2-3/h3,7H,1-2H2,(H,6,8,9)	InChI=1S/C5H7NO3/c7-3-1-4(8)6-5(9)2-3/h3,7H,1-2H2,(H,6,8,9)
