19
gdb 69531	3.12637	1.56481	1.38932	0.6237	74.37	-0.2394	0.0779	0.3173	1003.212	0.15905	-422.981627	-422.973873	-422.972929	-423.013121	32.003	
C	 0.0269920756	 1.507241623	 0.1129081589	-0.498159
C	 0.0036107496	 0.0110950663	-0.0152409162	 0.407513
C	 0.8860659329	-0.8104354369	-1.0070215118	-0.264011
C	 0.6693381757	-1.8268335136	 0.1388467674	-0.00803
O	 0.6774368007	-0.7125470719	 1.0745863017	-0.317956
C	-0.8416542335	-2.1493207796	 0.0066831541	 0.391476
O	-1.2392680515	-3.1533021509	-0.8694343949	-0.470889
C	-1.7415848992	-1.5972483898	 1.0817103005	-0.362491
C	-1.3516379733	-0.7380001769	-0.1090497932	-0.15335
H	 1.0528472024	 1.8759969413	 0.1975083384	 0.126057
H	-0.4389961854	 1.9694954398	-0.7635502991	 0.12266
H	-0.531044846	 1.8236365569	 0.9999388234	 0.131862
H	 0.4866081147	-1.0459546712	-1.9964695175	 0.104576
H	 1.9124859862	-0.4410649251	-1.0544479351	 0.100154
H	 1.3655542289	-2.6294951697	 0.3847792517	 0.073906
H	-1.2269190822	-3.989059863	-0.3904866786	 0.28567
H	-2.7603689782	-1.9707775164	 1.0554129968	 0.108992
H	-1.3446876722	-1.3691790276	 2.0630291005	 0.127132
H	-2.0906328752	-0.4469607447	-0.845334327	 0.094888
184.1206	200.9818	244.311	291.495	326.0272	360.3478	397.9196	467.3272	513.6226	561.7301	603.9005	655.3199	743.347	786.5768	824.8248	874.3517	891.9555	921.987	938.6907	960.3965	984.9635	1008.3483	1025.1883	1049.6615	1078.687	1086.883	1130.5147	1185.3957	1205.6196	1216.842	1239.7084	1255.2986	1276.7502	1300.3287	1348.4224	1392.9742	1414.8639	1469.9076	1478.7578	1484.5267	1493.3572	3038.4804	3064.6654	3107.9044	3114.8798	3118.1501	3136.4033	3137.2277	3192.9439	3232.2341	3795.6967
CC12CC(O1)C1(O)CC21	C[C@@]12C[C@@H](O1)[C@@]1(O)C[C@@H]21	
InChI=1S/C7H10O2/c1-6-3-5(9-6)7(8)2-4(6)7/h4-5,8H,2-3H2,1H3	InChI=1S/C7H10O2/c1-6-3-5(9-6)7(8)2-4(6)7/h4-5,8H,2-3H2,1H3/t4-,5+,6-,7+/m0/s1
