18
gdb 6693	6.59912	0.75777	0.70522	1.2633	90.39	-0.2399	-0.0094	0.2305	1597.364	0.150827	-310.629236	-310.619712	-310.618768	-310.663543	34.485	
C	-0.0855017893	 1.5598959898	 0.0553650353	-0.382662
C	-0.0491453299	 0.028644162	 0.0096841467	 0.045531
C	-1.4617234205	-0.5663791533	-0.0108269732	-0.390552
C	 0.7561871593	-0.4839739893	-1.213002871	-0.383141
C	 2.1558203753	-0.089241711	-1.2075356048	 0.345538
C	 3.3215729601	 0.2377789612	-1.1877453459	-0.205133
C	 4.6317768282	 0.6049729831	-1.1663234422	 0.289965
C	 5.7946242243	 0.9308356454	-1.1474490539	-0.560098
H	 0.923457797	 1.9812901363	 0.071464923	 0.131651
H	-0.605649739	 1.9641657734	-0.821576035	 0.111481
H	-0.6154404268	 1.9104679805	 0.9465437282	 0.113511
H	 0.4663106342	-0.3312188189	 0.9092108929	 0.089265
H	-2.0102562826	-0.2445557413	-0.9042988241	 0.114686
H	-1.4385817571	-1.6613264589	-0.0085547051	 0.112753
H	-2.034442359	-0.2413051675	 0.8632656797	 0.11523
H	 0.6945619396	-1.5797680231	-1.2519006996	 0.132063
H	 0.2788809989	-0.1200108242	-2.1342812238	 0.131715
H	 6.8165858874	 1.2172003357	-1.1310208872	 0.188196
60.2705	72.9542	162.1334	205.291	227.7119	255.8504	318.466	349.0315	358.5194	415.2178	468.2078	528.2671	530.0532	587.6114	592.233	743.895	815.711	879.2337	933.3753	948.3546	968.9937	1125.0882	1138.5272	1177.6067	1190.2743	1252.8837	1307.0264	1364.5184	1367.2237	1401.3322	1421.3543	1462.0825	1488.3139	1493.276	1503.8266	1509.9831	2180.6484	2361.3901	3003.7031	3022.4597	3025.1822	3031.4669	3042.3971	3090.4181	3096.9001	3103.6801	3115.2358	3507.051
CC(C)CC#CC#C	CC(C)CC#CC#C	
InChI=1S/C8H10/c1-4-5-6-7-8(2)3/h1,8H,7H2,2-3H3	InChI=1S/C8H10/c1-4-5-6-7-8(2)3/h1,8H,7H2,2-3H3
