15
gdb 31854	5.16638	1.04643	0.87503	3.6591	71.72	-0.2265	-0.0412	0.1853	1254.7361	0.114268	-453.99639	-453.988768	-453.987824	-454.028821	28.346	
C	-0.0557251805	 1.4045045985	 0.0601120101	-0.249608
O	-0.0251095642	-0.0091458873	-0.0262353954	-0.264907
C	 0.620380883	-0.5590850447	-1.0863497959	 0.301914
C	 1.2632302789	 0.1243796796	-2.1145634204	-0.107496
N	 1.8714831004	-0.5213212693	-3.1165339664	-0.348767
C	 1.8310635589	-1.8493136078	-3.0808003699	 0.449568
O	 2.4365956299	-2.5154303391	-4.0794430011	-0.396386
N	 1.2484616782	-2.6102211695	-2.1524360226	-0.28394
C	 0.65045482	-1.9569670407	-1.1668475984	-0.04692
H	 0.9552982989	 1.8261115862	 0.1335824871	 0.128412
H	-0.5674337769	 1.8504011518	-0.8028266808	 0.128411
H	-0.6106573671	 1.6420140023	 0.9685736032	 0.142848
H	 1.3003974145	 1.2083494581	-2.1504353653	 0.115063
H	 2.8068500001	-1.8422612321	-4.6654590907	 0.303815
H	 0.164920716	-2.5458717959	-0.3919779734	 0.127994
75.6178	137.5102	224.0308	241.8136	400.4288	400.8964	438.5201	468.7651	528.5288	557.254	565.2544	661.6078	774.2703	820.6642	897.2609	942.7916	984.8006	1038.3504	1077.3847	1176.7463	1177.3674	1216.9212	1260.3634	1313.5789	1356.8822	1389.2464	1447.1654	1476.7999	1489.9305	1503.6746	1513.1766	1608.7098	1650.3246	3003.0015	3062.6162	3140.3439	3161.854	3182.2521	3791.31
COC1=CN=C(O)N=C1	COc1cnc(O)nc1	
InChI=1S/C5H6N2O2/c1-9-4-2-6-5(8)7-3-4/h2-3H,1H3,(H,6,7,8)	InChI=1S/C5H6N2O2/c1-9-4-2-6-5(8)7-3-4/h2-3H,1H3,(H,6,7,8)
