16
gdb 46306	3.22526	1.38076	1.26047	3.8262	70.96	-0.2212	0.0153	0.2366	1026.9808	0.126729	-434.093439	-434.085763	-434.084819	-434.12598	28.556	
O	-0.1204445727	 0.0163838106	 0.1342154725	-0.365061
C	-0.0755704064	 1.2126281088	 0.0367587699	 0.400878
N	-1.027034771	 2.1933396883	-0.0529369804	-0.335274
C	-0.0962362244	 3.3259314166	-0.0628714238	-0.201742
C	 1.0660066268	 2.2798304857	 0.0165879582	 0.186174
C	 2.0215392211	 2.2718118172	 1.2375811668	-0.265654
N	 3.3099234454	 2.5738071642	 0.6002150474	-0.301337
C	 3.1193934555	 2.3859957464	-0.7542616758	 0.057523
N	 1.9184234384	 2.2507892583	-1.1733837779	-0.283889
H	-2.0340520502	 2.1458319914	-0.0882751959	 0.252357
H	-0.0965719063	 3.904821211	-0.9897807187	 0.124682
H	-0.1874023429	 3.9894744779	 0.8040929433	 0.106021
H	 1.7627399851	 3.0162897699	 1.9956904977	 0.117162
H	 2.0268578053	 1.2789147308	 1.7050592852	 0.131419
H	 4.1581902724	 2.2308940816	 1.0260545572	 0.248007
H	 3.9795728338	 2.4091653612	-1.4173503356	 0.128736
89.7189	102.5691	168.9834	266.7785	289.1906	412.0088	464.3924	505.5665	536.8306	639.505	720.5858	767.385	813.164	870.4511	879.6227	947.581	968.5807	995.7044	1014.2124	1085.2646	1118.5489	1140.7942	1162.1032	1173.4388	1202.1992	1241.8424	1287.6065	1318.5862	1344.8105	1390.771	1442.2055	1512.6529	1518.4576	1676.6171	1897.8597	3022.277	3037.2508	3081.6028	3102.5541	3186.6277	3611.9101	3618.689
O=C1NCC11CNC=N1	O=C1NC[C@]21CN[CH][N]2	
InChI=1S/C5H7N3O/c9-4-5(2-7-4)1-6-3-8-5/h3H,1-2H2,(H,6,8)(H,7,9)	InChI=1S/C5H7N3O/c9-4-5(2-7-4)1-6-3-8-5/h3H,1-2H2,(H,6,8)(H,7,9)/t5-/m0/s1
