25
gdb 81335	2.77105	1.34639	1.21768	0.1164	92.12	-0.2785	0.087	0.3655	1214.4368	0.230122	-352.356532	-352.347468	-352.346524	-352.389227	37.177	
C	-0.1537445788	 1.5473434063	-0.0109928906	-0.436934
C	 0.0154098415	 0.0315187724	-0.0107196715	 0.051075
C	 1.1382610802	-0.5847568192	-0.9034015182	-0.016596
C	 2.1202200116	-0.2518956286	 0.2526291991	-0.249088
C	 0.8816911329	-0.6081510341	 1.1298537466	-0.04234
C	 0.710148571	-2.1344480556	 0.87277028	 0.346242
C	 1.775999934	-2.9836806279	 1.5829981967	-0.446825
C	-0.6668325779	-2.6664352727	 1.2996425923	-0.44764
C	 0.9030484698	-2.0963532372	-0.6947493501	-0.267384
H	 0.7834589246	 2.0919608321	 0.1309699295	 0.116141
H	-0.5883873809	 1.8835670859	-0.9591995719	 0.112807
H	-0.8365340768	 1.8567944613	 0.7883548656	 0.113078
H	-0.9719855719	-0.4178664766	-0.1552601825	 0.055682
H	 1.3114322147	-0.2427610483	-1.925851601	 0.049412
H	 3.0255482877	-0.8550880499	 0.3484486974	 0.086639
H	 2.3915720286	 0.8022842649	 0.3012175653	 0.095996
H	 0.7954796567	-0.2760092069	 2.1673856355	 0.046281
H	 1.6688118216	-2.9130985172	 2.6719221404	 0.106808
H	 1.668409688	-4.0398382944	 1.3106367541	 0.109039
H	 2.7956160112	-2.6845072217	 1.3293757973	 0.111028
H	-1.4954608922	-2.1221383732	 0.8405159364	 0.112424
H	-0.7744639363	-3.720745909	 1.0204307303	 0.109404
H	-0.787812597	-2.601907622	 2.3875467528	 0.10696
H	 0.0171754439	-2.4552814899	-1.2288385331	 0.089059
H	 1.7566308636	-2.6994924687	-1.0208089406	 0.088733
168.9942	192.8162	201.7251	209.7527	235.6064	271.2417	329.356	375.099	388.1757	458.9447	474.1659	518.8937	577.1611	748.4287	782.5121	823.7945	840.7087	862.5382	905.3406	922.2204	947.3291	957.6649	970.2199	1003.6867	1008.5921	1037.5688	1047.2659	1069.2056	1086.2765	1102.3381	1110.2296	1165.269	1206.8011	1212.108	1231.0489	1247.8804	1249.5539	1276.7505	1287.2694	1293.7606	1330.504	1391.2588	1406.2625	1414.6992	1423.2017	1484.8316	1487.3084	1493.2882	1498.4972	1500.7862	1505.8138	1511.9281	1529.9973	3023.3405	3028.5909	3029.9557	3039.7816	3045.4268	3074.8067	3079.1754	3083.5808	3084.2856	3086.0062	3087.7688	3093.7082	3108.4376	3115.1793	3117.1977	3137.8826
CC1C2CC1C(C)(C)C2	C[C@H]1[C@H]2C[C@@H]1C(C)(C)C2	
InChI=1S/C9H16/c1-6-7-4-8(6)9(2,3)5-7/h6-8H,4-5H2,1-3H3	InChI=1S/C9H16/c1-6-7-4-8(6)9(2,3)5-7/h6-8H,4-5H2,1-3H3/t6-,7-,8-/m0/s1
