21
gdb 90402	2.18377	1.53634	1.32182	2.0583	79.3	-0.2355	0.07	0.3054	1112.6409	0.180198	-424.19615	-424.186393	-424.185449	-424.229641	37.731	
C	-0.0609867805	 1.5678456726	-0.0178960985	-0.464226
C	 0.0707225192	 0.0614981671	 0.0520308826	 0.358625
O	-1.0952383145	-0.5972473332	-0.4021954182	-0.473417
C	 1.3261997541	-0.7224455904	-0.2452410228	-0.173648
C	 2.5716376622	-0.000215648	 0.2659759013	-0.299243
C	 1.96278695	-0.0651011002	 1.71041035	 0.049361
O	 1.7612828872	 1.1243240549	 2.4488294525	-0.431311
C	 0.6942051379	-0.7273189677	 1.1778319447	 0.29816
C	-0.0501172239	-1.7869013428	 1.9415191308	-0.505093
H	 0.7709003442	 2.0819288612	 0.4614965976	 0.139357
H	-0.1270404236	 1.8990772956	-1.0630038768	 0.09379
H	-0.980306677	 1.8733894203	 0.4911315512	 0.12488
H	-1.1899205986	-0.3961983351	-1.3394568118	 0.27965
H	 1.3068786899	-1.5181326416	-0.9811827557	 0.08139
H	 3.4920419088	-0.5818530764	 0.1732356254	 0.098587
H	 2.7479835956	 1.0026443669	-0.1349330082	 0.096222
H	 2.519514902	-0.7961594647	 2.3134387857	 0.074003
H	 2.6106745686	 1.4055482852	 2.8037645861	 0.282997
H	-0.5087198084	-1.3591815306	 2.8413516528	 0.123065
H	-0.8444318585	-2.2215772055	 1.3331895086	 0.141384
H	 0.6233429252	-2.5897112076	 2.2634105328	 0.105466
146.8839	169.5613	184.1479	203.5984	224.2943	262.2941	277.1601	292.6968	300.4549	397.88	415.9248	435.0512	510.9056	579.7941	647.9183	659.9315	710.8108	831.2544	889.8965	938.7315	954.0925	965.03	999.8264	1046.3869	1079.8623	1088.8539	1112.7905	1138.7033	1161.586	1194.7696	1225.5015	1236.7313	1250.1316	1278.5365	1307.5325	1332.0109	1406.5593	1415.2726	1423.258	1461.2889	1486.1417	1492.0945	1495.1502	1501.8673	1510.5276	2995.7418	3018.762	3025.0782	3050.4183	3076.5709	3092.0665	3102.2623	3140.1289	3159.8721	3177.5256	3801.6938	3813.7765
CC1(O)C2CC(O)C12C	C[C@@]1(O)[C@H]2C[C@@H](O)[C@@]12C	
InChI=1S/C7H12O2/c1-6-4(3-5(6)8)7(6,2)9/h4-5,8-9H,3H2,1-2H3	InChI=1S/C7H12O2/c1-6-4(3-5(6)8)7(6,2)9/h4-5,8-9H,3H2,1-2H3/t4-,5+,6-,7+/m0/s1
