20
gdb 90493	2.92805	1.23112	1.08822	1.8141	79.34	-0.2273	0.0575	0.2848	1203.8072	0.171799	-403.076169	-403.067857	-403.066913	-403.109265	32.421	
O	 0.1266632363	 1.4056058241	-0.156829344	-0.423691
C	 0.0618967163	 0.0077543185	 0.0428734529	 0.097297
C	 0.2004734611	-0.6011438373	 1.4673130857	-0.210225
N	-1.1208714509	-1.3123631964	 1.3379725724	-0.160543
C	-2.1548411919	-0.2622304734	 1.1920134023	-0.003989
C	-2.170020907	 1.0374661805	 1.9345124266	-0.001309
C	-3.5014694135	 1.6996195041	 2.2027213762	-0.281175
C	-2.7374809106	 1.0715095141	 3.3369387308	-0.265783
C	-1.3357777096	-0.5858213329	 0.002149558	-0.073985
H	 1.0535680586	 1.6615834862	-0.2012760135	 0.285022
H	 0.7197832597	-0.5135602094	-0.6637267902	 0.083788
H	 1.0087057345	-1.3288284605	 1.5647847868	 0.103923
H	 0.2488406095	 0.1101784445	 2.2962034123	 0.108938
H	-3.1323774044	-0.7441666996	 1.167948286	 0.08968
H	-1.3489257374	 1.7082021114	 1.7198411334	 0.110306
H	-3.5498533124	 2.7810565935	 2.1439408856	 0.113128
H	-4.3983147731	 1.1970250115	 1.8548420733	 0.111491
H	-3.1143778914	 0.1409193138	 3.7479438651	 0.117762
H	-2.2630393859	 1.7196491712	 4.0653915421	 0.109909
H	-1.7551648376	-1.0913571539	-0.8624631319	 0.089455
65.0569	133.427	177.3877	245.2568	281.3405	325.6623	349.1391	439.88	517.3165	584.4872	728.152	755.8137	773.4639	785.1046	841.688	874.239	883.9413	933.4652	950.0414	980.6117	1008.1741	1019.4625	1059.6818	1064.2485	1080.3812	1095.6068	1139.8838	1154.1233	1173.6171	1198.3737	1202.9594	1207.4778	1228.1302	1268.6121	1280.3972	1315.495	1338.9252	1373.7127	1436.7113	1472.3755	1475.3247	1498.7981	1508.97	3021.2949	3062.0035	3106.6946	3118.0835	3130.9865	3135.5951	3155.672	3203.7189	3209.2337	3226.2761	3814.6624
OC1CN2C(C3CC3)C12	O[C@H]1CN2[C@@H](C3CC3)[C@@H]12	
InChI=1S/C7H11NO/c9-5-3-8-6(7(5)8)4-1-2-4/h4-7,9H,1-3H2	InChI=1S/C7H11NO/c9-5-3-8-6(7(5)8)4-1-2-4/h4-7,9H,1-3H2/t5-,6-,7+,8?/m0/s1
