14
gdb 31922	3.83255	1.04028	0.82292	5.4791	73.34	-0.241	-0.0272	0.2138	1293.6869	0.102633	-432.917975	-432.909784	-432.90884	-432.951873	28.704	
O	-0.1833195747	 1.431388644	-0.1172249222	-0.429544
C	-0.0253509377	 0.0273095933	 0.0090109468	-0.190153
C	-1.3949775931	-0.5747434764	 0.0002342577	 0.367878
N	-1.685633113	-1.8628263939	-0.0354715053	-0.307922
C	-3.0473209604	-1.9291194822	-0.0109874689	-0.162677
C	-3.595560878	-0.6613061735	 0.0377517004	 0.196884
N	-2.5061913717	 0.1942668952	 0.0469331018	-0.332401
C	-4.9299678786	-0.2111371384	 0.0707339935	 0.202881
N	-6.0266878715	 0.1639028702	 0.0989005936	-0.344781
H	 0.6719035409	 1.8511126342	 0.007038751	 0.304702
H	 0.5598605294	-0.4024649988	-0.8164963844	 0.134096
H	 0.4833915746	-0.244419613	 0.9461079079	 0.130406
H	-3.5777248685	-2.8685234836	-0.0308968852	 0.137521
H	-2.5098173177	 1.2019923029	 0.0631579534	 0.293111
39.4899	125.1137	136.9381	193.6677	237.949	267.1847	468.3473	513.1469	553.7569	576.2465	608.5562	679.2159	695.1029	724.6954	880.5643	1010.5396	1037.6172	1040.318	1089.6114	1165.7223	1195.0945	1228.1882	1247.7965	1308.5596	1367.4044	1423.6518	1474.6667	1507.7748	1535.2079	1594.6691	2338.6174	2990.8622	3021.7048	3261.6059	3658.5912	3852.398
OCC1=NC=C(N1)C#N	OCc1ncc([nH]1)C#N	
InChI=1S/C5H5N3O/c6-1-4-2-7-5(3-9)8-4/h2,9H,3H2,(H,7,8)	InChI=1S/C5H5N3O/c6-1-4-2-7-5(3-9)8-4/h2,9H,3H2,(H,7,8)
