22
gdb 58237	2.47116	1.25893	0.95275	2.172	78.18	-0.2375	0.0437	0.2811	1311.8478	0.191601	-441.452356	-441.441688	-441.440744	-441.488208	39.743	
C	-0.0963773882	 1.5602343331	-0.2054157394	-0.395165
C	-0.015288468	 0.0322408286	-0.1677261129	 0.094193
O	 0.983335598	-0.3855147333	 0.7543117144	-0.417146
C	-1.3914269221	-0.6220191442	 0.1178009131	 0.003485
O	-2.376916003	-0.0523572533	-0.7429386647	-0.426703
C	-1.4064246859	-2.159623916	 0.0558637285	 0.340392
C	-0.560247433	-2.8995190986	 1.0746058389	-0.453985
C	-2.6641232377	-2.805834918	-0.40010832	-0.276588
N	-1.464255143	-2.8120545694	-1.2677630969	-0.354498
H	 0.8990627212	 1.9726984542	-0.3894332245	 0.125372
H	-0.7796006571	 1.922261267	-0.9761987031	 0.119214
H	-0.45797262	 1.9461562206	 0.756235	 0.110851
H	 0.3399792965	-0.3395651918	-1.139726956	 0.089049
H	 0.7637353936	-0.0122879639	 1.6155092503	 0.280392
H	-1.6988237596	-0.3267062988	 1.1320330093	 0.082103
H	-2.0151865216	-0.00937151	-1.6346881046	 0.283462
H	-0.8328646878	-2.5990512631	 2.0937578631	 0.098622
H	-0.7334105122	-3.9746385065	 0.9812737889	 0.117741
H	 0.5026960324	-2.7008874086	 0.9382950016	 0.14533
H	-2.9357391207	-3.7778128558	 0.0028867411	 0.108462
H	-3.4925569982	-2.1672009887	-0.6834015749	 0.122572
H	-1.5961916036	-2.1172512036	-2.0005080521	 0.202846
33.2186	69.0274	179.8253	204.6752	219.7218	240.1952	276.9511	296.2717	307.546	346.2908	366.0293	382.587	441.1601	469.3116	512.9289	562.9394	741.9938	835.8202	849.0499	907.6685	929.7014	966.5794	982.2914	1026.548	1043.9172	1061.7255	1081.3777	1094.1594	1118.6264	1138.0885	1162.0005	1216.6547	1254.8458	1279.6012	1317.4971	1334.1725	1362.1463	1380.6607	1401.2286	1409.6272	1420.171	1422.4974	1485.473	1487.5588	1491.9742	1499.8981	1505.0963	2997.7885	3015.2445	3031.166	3034.4612	3104.3786	3104.8711	3118.7998	3135.2611	3151.5782	3218.1776	3471.4435	3797.4747	3805.33
CC(O)C(O)C1(C)CN1	C[C@@H](O)[C@@H](O)[C@@]1(C)CN1	
InChI=1S/C6H13NO2/c1-4(8)5(9)6(2)3-7-6/h4-5,7-9H,3H2,1-2H3	InChI=1S/C6H13NO2/c1-4(8)5(9)6(2)3-7-6/h4-5,7-9H,3H2,1-2H3/t4-,5-,6-/m1/s1
