20
gdb 87244	3.55814	0.81949	0.81096	4.272	77.34	-0.2474	0.0331	0.2805	1493.4212	0.169248	-440.294365	-440.284239	-440.283295	-440.330514	36.526	
C	-0.3452791571	 1.3774823355	-0.4565065805	-0.453385
C	-0.0550219272	-0.041532517	-0.0100228396	 0.305757
C	-1.1873887605	-1.0355521161	-0.2088583369	-0.222853
N	-2.3713456527	-0.6944867061	 0.5663851674	-0.269639
C	-3.6079527588	-0.5432831644	 0.0208399712	 0.154635
O	-3.8849797027	-0.6996621396	-1.1494950229	-0.322977
C	 1.3546429512	-0.5763838597	-0.1930026028	-0.375491
C	 0.8358241983	-0.2624468044	 1.1890882296	 0.068083
O	 1.2959337068	 0.8654102549	 1.8739707747	-0.421489
H	 0.4674975606	 2.048293262	-0.1742066048	 0.129226
H	-0.4782373725	 1.419739701	-1.5428498361	 0.121168
H	-1.2638647585	 1.7518686135	 0.0063461518	 0.119646
H	-1.5072249559	-1.0626588759	-1.2540221902	 0.1488
H	-0.8460871542	-2.0453644026	 0.055561443	 0.10025
H	-2.2624946509	-0.5185159827	 1.553101073	 0.249168
H	-4.3576296191	-0.2554256597	 0.7851310917	 0.072419
H	 1.4971071661	-1.6148324509	-0.47486185	 0.111205
H	 2.0834727815	 0.1113553919	-0.6089568251	 0.1165
H	 0.59937116	-1.1127870977	 1.8318993127	 0.078791
H	 2.2181130455	 0.7168064881	 2.1072466737	 0.290187
25.6212	59.8519	149.1472	185.1738	211.568	240.7766	258.3534	296.544	301.7585	362.3472	460.0084	487.2831	515.3381	547.4697	709.9668	783.1099	810.3305	895.0674	915.3508	966.0663	976.4147	1030.3034	1034.4635	1044.0609	1048.871	1114.2726	1132.7234	1183.7232	1209.1224	1250.4749	1279.5199	1304.7108	1352.0209	1382.3323	1419.6316	1425.5619	1431.078	1481.5881	1491.4571	1496.7495	1508.469	1530.733	1806.3842	2930.7051	3012.5034	3040.3882	3072.3091	3099.311	3104.3018	3126.059	3139.4793	3215.1321	3627.6235	3807.7914
CC1(CNC=O)CC1O	C[C@@]1(CNC=O)C[C@H]1O	
InChI=1S/C6H11NO2/c1-6(2-5(6)9)3-7-4-8/h4-5,9H,2-3H2,1H3,(H,7,8)	InChI=1S/C6H11NO2/c1-6(2-5(6)9)3-7-4-8/h4-5,9H,2-3H2,1H3,(H,7,8)/t5-,6+/m1/s1
