14
gdb 23913	2.90567	1.9157	1.65019	1.0427	50.18	-0.26	0.087	0.3469	813.6506	0.103886	-510.217337	-510.209776	-510.208832	-510.249259	28.342	
N	-0.2107941802	 1.4151087091	-0.1635993294	-0.574047
C	-0.0548907571	-0.0049712181	-0.0031654554	 0.172783
C	-0.3883040709	-0.5929177338	 1.3436592315	-0.291009
C	-1.306334554	-0.8262056697	 0.1707562736	-0.291009
C	 1.0865760074	-0.6233942636	-0.7735665784	 0.232053
F	 2.2644157484	-0.0775473559	-0.415491232	-0.083855
F	 1.1854215673	-1.9492256926	-0.5871804808	-0.079748
F	 0.9487917043	-0.4119302829	-2.096355493	-0.083855
H	 0.6354473937	 1.8959677036	 0.1287202263	 0.238566
H	-0.3596809756	 1.6430805448	-1.1427125868	 0.238566
H	 0.2043708036	-1.4269128107	 1.6990028109	 0.131525
H	-0.7010481729	 0.1169296516	 2.0993366334	 0.129252
H	-2.2369191259	-0.2733768781	 0.1370880698	 0.129254
H	-1.3326780481	-1.8175038938	-0.2648048298	 0.131524
71.8808	209.0024	226.2471	290.3062	314.886	361.6507	401.6755	467.6344	523.4623	579.1551	598.2737	746.6707	785.0616	857.7701	897.7463	924.3766	948.5452	1028.0975	1067.1936	1093.008	1161.7313	1170.1145	1194.8106	1200.3582	1287.4844	1351.0481	1378.7241	1449.3196	1494.8623	1667.474	3151.9272	3154.3454	3239.9105	3252.2381	3488.646	3564.9268
NC1(CC1)C(F)(F)F	NC1(CC1)C(F)(F)F	
InChI=1S/C4H6F3N/c5-4(6,7)3(8)1-2-3/h1-2,8H2	InChI=1S/C4H6F3N/c5-4(6,7)3(8)1-2-3/h1-2,8H2
