23
gdb 93944	4.12699	0.8868	0.77992	1.3953	86.07	-0.2434	0.0865	0.3299	1542.9529	0.206691	-388.290665	-388.281451	-388.280507	-388.32617	34.848	
C	 0.3150451488	 1.6035308003	 0.0085300311	-0.404189
C	 0.0267971155	 0.1119043994	-0.0113622688	 0.16453
C	 0.6112609824	-0.6628951006	-1.2238986628	-0.278881
C	 1.3562201018	-1.8701701745	-0.5931333018	 0.016889
C	 0.8186238924	-1.8490113055	 0.850142041	-0.099966
O	 0.6108100957	-0.4829218249	 1.1493455315	-0.2599
C	 1.1665185235	-3.1859045487	-1.3089581667	 0.019824
C	 2.0616712767	-3.5772282381	-2.4581055373	-0.273162
C	 2.1666570038	-4.3040139271	-1.140115721	-0.274561
H	 1.3936208462	 1.783544701	-0.0435458409	 0.11818
H	-0.162501573	 2.0977930422	-0.8433242477	 0.112918
H	-0.0655265812	 2.0570649228	 0.9281571807	 0.123898
H	-1.0641496492	-0.0476078776	 0.0246258938	 0.06064
H	-0.184473151	-0.9975783212	-1.896009918	 0.098789
H	 1.2884558943	-0.0354645112	-1.8101508069	 0.101547
H	 2.4284529459	-1.6439246051	-0.554328908	 0.069479
H	-0.1267189255	-2.4175026403	 0.9138741349	 0.077748
H	 1.5135903517	-2.258884902	 1.5875601389	 0.105692
H	 0.1261022322	-3.4933455846	-1.3967271714	 0.078221
H	 1.622766079	-4.0994180019	-3.3010155717	 0.110362
H	 2.8650810214	-2.8991975198	-2.7270537212	 0.110283
H	 3.0405803888	-4.1127398575	-0.5256139652	 0.110729
H	 1.7999766996	-5.3228073649	-1.0818194824	 0.11093
15.5719	81.8103	148.9578	182.5006	240.1902	280.8729	307.0734	370.302	445.2766	460.88	597.3738	647.239	777.8886	824.1403	828.6043	847.4073	890.2657	902.8329	915.6772	938.0287	985.5854	1028.3704	1048.6545	1057.591	1078.0121	1084.3814	1098.9547	1135.608	1139.3601	1149.1799	1189.4879	1198.4957	1226.3321	1234.8365	1261.3408	1292.7538	1305.6514	1323.5412	1352.5609	1382.7597	1395.9002	1410.9126	1431.7969	1469.6569	1484.3222	1494.2056	1500.5553	1506.1988	1512.2489	2941.8225	2951.9435	3029.3338	3037.4907	3054.0058	3092.7265	3096.4991	3111.3162	3116.6788	3122.5343	3128.583	3133.9691	3206.3788	3221.5328
CC1CC(CO1)C1CC1	C[C@H]1C[C@@H](CO1)C1CC1	
InChI=1S/C8H14O/c1-6-4-8(5-9-6)7-2-3-7/h6-8H,2-5H2,1H3	InChI=1S/C8H14O/c1-6-4-8(5-9-6)7-2-3-7/h6-8H,2-5H2,1H3/t6-,8-/m0/s1
