19
gdb 84910	2.59807	1.40314	1.02661	3.2323	76.88	-0.2468	-0.0148	0.232	1173.5567	0.159433	-423.049655	-423.041051	-423.040106	-423.082991	32.492	
O	 0.0720637478	 1.4485388025	-0.1524421195	-0.432068
C	 0.0989278539	 0.0252255225	 0.0135898778	 0.079417
C	 0.7855725635	-0.3595503646	 1.2973145568	-0.102906
C	 0.1507031693	-0.8958808415	 2.3408453995	-0.040335
C	-1.3247443215	-1.1966005701	 2.3590652126	-0.274165
C	-2.0759836289	-0.461770997	 1.2426959514	-0.210087
C	-1.3190975593	-0.5826140907	-0.0811704992	-0.110786
C	-2.0583039033	 0.0349119147	-1.2526072513	 0.154414
O	-3.1820105791	 0.4642302645	-1.2028945098	-0.250752
H	-0.2161204523	 1.8322927147	 0.6829410967	 0.283521
H	 0.691219268	-0.3269107914	-0.8398993962	 0.092742
H	 1.8490125919	-0.1411539535	 1.3498445122	 0.096817
H	 0.7144383449	-1.1442370603	 3.2375585504	 0.095434
H	-1.4720477218	-2.2832294685	 2.2630321071	 0.115373
H	-1.7429260455	-0.9339222799	 3.3382541343	 0.11017
H	-3.0946915283	-0.8405376276	 1.1319303028	 0.116382
H	-2.1765854491	 0.600497983	 1.4981543527	 0.10155
H	-1.1909638671	-1.6493761967	-0.3313183362	 0.096593
H	-1.4796844532	 0.0508975299	-2.2040317621	 0.078684
79.7597	118.2342	183.5585	212.2784	259.5131	278.1039	337.8242	390.7354	479.937	498.6036	605.5424	647.4268	739.2991	756.4338	780.5474	884.1673	889.714	936.3174	983.6069	997.4396	1014.0463	1053.4639	1062.4794	1094.2729	1127.4979	1164.8479	1225.2387	1232.2691	1263.0819	1295.4671	1316.0337	1343.4319	1365.7208	1391.7442	1406.9158	1423.7925	1433.4533	1473.8702	1494.3318	1715.0223	1831.8136	2874.2807	2975.2725	2997.0433	3034.5944	3035.624	3051.9302	3101.7872	3144.8483	3170.1331	3809.7885
OC1C=CCCC1C=O	O[C@H]1C=CCC[C@H]1C=O	
InChI=1S/C7H10O2/c8-5-6-3-1-2-4-7(6)9/h2,4-7,9H,1,3H2	InChI=1S/C7H10O2/c8-5-6-3-1-2-4-7(6)9/h2,4-7,9H,1,3H2/t6-,7-/m0/s1
