15
gdb 35293	5.77112	0.96759	0.9114	3.5877	78.16	-0.2649	-0.0001	0.2648	1234.418	0.112386	-379.606344	-379.598372	-379.597428	-379.639016	29.977	
C	 0.0519638661	-1.2182575511	 0.0425167136	-0.393068
C	 0.0528328451	-0.0161417665	 0.0247428975	 0.234076
C	 0.023736246	 1.4070481041	-0.0480836737	 0.159215
C	-0.7398640629	 2.2216724387	-1.1135877065	-0.314004
C	 0.4261335863	 3.2772470026	-1.1049081028	-0.171148
C	 0.0903496242	 4.6475268658	-0.7440258331	 0.275017
N	-0.1963758642	 5.721798023	-0.4261362838	-0.324356
C	 1.1373389037	 2.4376349284	-0.0168367134	-0.10302
N	 0.299532598	 2.2177106431	 1.1375997892	-0.335968
H	 0.0582235834	-2.2798673328	 0.0743794742	 0.197017
H	-0.8144756907	 1.7151490061	-2.0763142132	 0.136339
H	-1.7272731683	 2.5792154697	-0.8119208769	 0.128892
H	 0.9708738655	 3.2695088946	-2.0516907301	 0.137424
H	 2.2092089605	 2.3133354259	 0.0772801508	 0.125819
H	-0.3864755628	 2.9533087385	 1.3030092582	 0.247764
78.8854	113.1438	179.0968	212.0049	317.1393	421.1182	463.5683	502.9991	549.0533	589.544	619.3538	641.4803	666.8198	741.9189	798.3708	845.175	916.5405	973.4916	982.8379	1034.8718	1053.694	1096.1765	1124.4945	1145.2057	1179.5762	1240.6505	1266.6566	1278.6956	1326.7159	1423.3504	1485.0928	2243.9808	2352.2802	3075.0522	3091.3886	3141.9765	3195.9897	3462.2354	3501.2315
C#CC12CC(C#N)C1N2	C#C[C@]12C[C@@H](C#N)[C@H]1N2	
InChI=1S/C7H6N2/c1-2-7-3-5(4-8)6(7)9-7/h1,5-6,9H,3H2	InChI=1S/C7H6N2/c1-2-7-3-5(4-8)6(7)9-7/h1,5-6,9H,3H2/t5-,6+,7-/m0/s1
