18
gdb 90688	3.5814	1.12927	1.06181	3.3586	72.57	-0.2343	0.0289	0.2632	1193.1885	0.147574	-439.080481	-439.072034	-439.071089	-439.113746	32.263	
C	 0.2523091907	 1.2906394577	-0.5255234172	-0.396417
C	 0.1757322762	-0.1764312917	-0.161346117	 0.120724
O	 1.3573586841	-0.902857529	-0.657656436	-0.312387
C	 1.7802918445	-1.1491230664	 0.6910117417	 0.050557
C	 0.5482112665	-0.5176160983	 1.2805682092	-0.151992
C	 0.8114893451	-2.0143706024	 1.4465722992	-0.134886
C	-0.0350732824	-3.1517598642	 0.9205556057	 0.391977
N	-0.1126567116	-3.2726730168	-0.4342687271	-0.541923
O	-0.6038003694	-3.903902673	 1.6902338788	-0.37692
H	 1.1668453614	 1.7438625073	-0.1322007735	 0.127102
H	 0.2426376421	 1.4115542539	-1.6125934318	 0.131265
H	-0.6098992058	 1.8253730915	-0.1123421536	 0.123868
H	-0.7417289985	-0.6354401454	-0.5450730388	 0.098615
H	 2.8396542914	-1.0688062622	 0.9055190321	 0.114514
H	 0.422700216	 0.1386884742	 2.1311296409	 0.109875
H	 1.1404430767	-2.2353251709	 2.457963377	 0.120529
H	 0.4710681943	-2.7044046011	-1.0310340565	 0.271273
H	-0.6029580313	-4.0725670532	-0.799567833	 0.254226
55.5619	131.1254	200.149	243.5687	268.2612	310.7203	360.8205	411.9111	490.0702	498.19	638.9223	689.0218	757.9931	770.476	792.3097	811.7618	863.2601	895.1169	940.9106	981.2379	1021.8069	1035.4278	1058.6621	1079.3455	1104.3163	1111.8609	1151.5418	1157.1855	1244.4302	1301.2489	1320.8826	1373.4977	1384.3598	1406.724	1410.2399	1485.5335	1491.4777	1606.4984	1788.3093	3037.8566	3055.3691	3110.5828	3122.4359	3164.5129	3181.0501	3207.7732	3547.0505	3706.0227
CC1OC2C1C2C(N)=O	C[C@H]1O[C@H]2[C@@H]1[C@H]2C(=O)N	
InChI=1S/C6H9NO2/c1-2-3-4(6(7)8)5(3)9-2/h2-5H,1H3,(H2,7,8)	InChI=1S/C6H9NO2/c1-2-3-4(6(7)8)5(3)9-2/h2-5H,1H3,(H2,7,8)/t2-,3+,4-,5+/m1/s1
