13
gdb 130475	4.11262	1.66551	1.18544	1.4214	76.48	-0.2433	-0.0765	0.1668	934.3669	0.092559	-415.609985	-415.604136	-415.603192	-415.640158	23.264	
O	-0.0204708343	 1.2836194738	 0.0093789844	-0.213022
C	 1.1110382852	 1.9861877615	 0.0019998927	 0.04255
C	 2.3281908627	 1.3843089265	-0.0131796318	 0.192391
N	 3.5831809601	 1.9250133631	-0.0226372014	-0.336007
C	 4.3839548981	 0.8594238172	-0.0361870916	-0.025474
C	 3.7008179293	-0.3970778366	-0.0361855692	-0.328039
C	 2.3614601998	-0.0658766499	-0.0212421628	 0.274397
C	 1.1083421438	-0.7202124054	-0.0124091774	-0.057039
N	-0.0466489796	-0.1154452293	 0.0021737315	-0.097054
H	 0.924516046	 3.0542113856	 0.0095310356	 0.171124
H	 5.4605855425	 0.9887941207	-0.0460848825	 0.115786
H	 4.149341141	-1.3793483122	-0.0458412746	 0.114294
H	 1.0097522452	-1.8027864651	-0.0172177429	 0.146092
203.0137	232.8615	400.424	405.4983	569.7665	578.4145	613.4135	636.7222	769.3697	771.2554	809.5572	835.7738	898.5741	917.4444	935.5685	947.1881	964.6833	1036.5302	1180.5157	1211.0079	1264.906	1285.6705	1310.3891	1353.125	1412.7521	1426.2778	1535.8763	1628.7508	1659.4204	3172.7513	3201.5849	3212.362	3247.0748
O1C=C2N=CC=C2C=N1	O1[CH]c2nccc2C=N1	
InChI=1S/C6H4N2O/c1-2-7-6-4-9-8-3-5(1)6/h1-4H	InChI=1S/C6H5N2O/c1-2-7-6-4-9-8-3-5(1)6/h1-4,7H
