15
gdb 29919	3.4227	1.32238	0.96157	7.8061	76.18	-0.218	0.0001	0.2181	1154.8902	0.114608	-413.042018	-413.033562	-413.032618	-413.075205	30.317	
C	-0.0607151676	 1.4565627155	 0.02330463	-0.351909
N	 0.0015917658	 0.0087303516	 0.0071550459	-0.035434
C	 0.0203627409	-0.8194706355	-1.096912595	-0.01263
N	 0.0344226236	-2.081621237	-0.776524913	-0.320367
C	 0.0420378955	-2.1006289583	 0.6088838693	 0.132043
C	 0.0647434725	-3.2720087586	 1.4001970247	 0.198689
N	 0.0883439858	-4.1874486065	 2.1121528281	-0.364809
C	 0.0199799146	-0.8073405151	 1.1072561957	 0.235834
N	-0.0791194089	-0.3083736962	 2.3976937613	-0.616236
H	 0.9093765344	 1.8997731387	 0.2745938487	 0.144495
H	-0.3573734293	 1.809435262	-0.9655514266	 0.155771
H	-0.8015218092	 1.7851499995	 0.7569973021	 0.163723
H	 0.0263531654	-0.4164142452	-2.0988437902	 0.136387
H	-0.0976806999	-1.054506515	 3.0825058393	 0.276158
H	 0.6385076763	 0.3640298701	 2.6439067796	 0.258284
110.6385	115.1029	132.4463	218.6468	257.993	267.8887	291.9596	418.6852	526.9111	536.9773	598.8301	644.2479	717.5491	732.5776	762.4307	783.1868	799.0493	1006.0604	1069.2915	1152.9523	1184.6797	1223.232	1288.3102	1317.3477	1387.4315	1449.2104	1483.6093	1491.4643	1513.8706	1559.3224	1598.4938	1662.1792	2331.085	3036.8675	3105.7362	3146.5221	3250.5844	3520.5702	3613.2133
CN1C=NC(C#N)=C1N	Cn1cnc(C#N)c1N	
InChI=1S/C5H6N4/c1-9-3-8-4(2-6)5(9)7/h3H,7H2,1H3	InChI=1S/C5H6N4/c1-9-3-8-4(2-6)5(9)7/h3H,7H2,1H3
