18
gdb 58927	2.91446	1.60726	1.22981	2.0309	70.89	-0.2466	0.0406	0.2872	1033.4477	0.146612	-438.963107	-438.955079	-438.954135	-438.995755	31.192	
C	-0.0802061462	 1.6626111872	 0.083449101	-0.399694
C	-0.0750316905	 0.137484069	 0.1270937065	 0.008158
O	 0.5066709494	-0.2762743916	 1.3600202594	-0.450482
C	-1.4537036427	-0.4538777317	 0.0131963747	 0.307633
N	-2.471084567	-0.2103900809	-1.062198555	-0.393665
C	-3.1644609543	-1.1795235105	-0.1462930476	-0.081525
C	-1.8505101049	-1.962339135	 0.106636044	 0.041929
O	-1.9651917331	-1.9573879161	 1.5648579841	-0.333794
C	-2.5014530592	-0.6528449295	 1.1669656419	 0.027723
H	 0.9346552974	 2.0356912236	 0.2441347673	 0.131917
H	-0.4324940449	 2.0240978877	-0.8877533324	 0.119641
H	-0.7202951964	 2.0690660225	 0.8729959788	 0.115399
H	 0.526960307	-0.2369325903	-0.7176569046	 0.079755
H	 0.0354472323	-1.0592287997	 1.6748081876	 0.296467
H	-2.8771195965	 0.72305154	-0.9601448314	 0.216457
H	-4.1719110702	-1.5588215713	-0.314726808	 0.09851
H	-1.4365701937	-2.8370666282	-0.3920287449	 0.110839
H	-2.8658584163	 0.0225628148	 1.9415232487	 0.104735
65.0537	159.4741	184.8755	239.5455	300.2581	390.3403	407.0164	469.9062	500.0004	561.4034	677.0622	768.0108	790.9875	820.9296	836.7914	885.5187	889.9905	913.6017	937.5787	1006.5954	1019.3051	1052.4752	1087.8446	1108.5255	1109.7792	1138.0011	1164.1332	1168.066	1188.4904	1259.9991	1269.3225	1299.6922	1329.2556	1356.2033	1366.1208	1401.4525	1452.3429	1491.7815	1497.6727	2962.8699	3038.6261	3112.7286	3117.5659	3122.3625	3128.8562	3145.6611	3412.1545	3748.7882
CC(O)C12NC3C1OC23	C[C@@H](O)[C@@]12N[C@H]3[C@@H]1O[C@@H]23	
InChI=1S/C6H9NO2/c1-2(8)6-4-3(7-6)5(6)9-4/h2-5,7-8H,1H3	InChI=1S/C6H9NO2/c1-2(8)6-4-3(7-6)5(6)9-4/h2-5,7-8H,1H3/t2-,3-,4-,5+,6+/m1/s1
