16
gdb 54707	3.70809	1.43139	1.25292	6.5838	67.17	-0.2389	0.0178	0.2567	990.0015	0.126695	-437.848402	-437.841785	-437.840841	-437.879686	26.363	
O	 0.1217593663	 0.1012264057	-0.7938686154	-0.380775
C	 0.0365607919	 1.1927520905	-0.0274519654	 0.388295
O	 0.9386184712	 1.5563767383	 0.6840744784	-0.344073
C	-1.2751676193	 1.9767752176	-0.1183959684	-0.116471
C	-1.6403551433	 2.7603119625	-1.3898641878	-0.080926
C	-2.4125915903	 1.8001624489	-2.2960008268	-0.024572
N	-2.3740218974	 0.4802216136	-1.6205785467	-0.352799
H	-3.2174002941	-0.0355271885	-1.8635701865	 0.234682
H	-0.7453409581	-0.012162045	-1.2707657672	 0.315774
C	-2.6377883748	 1.2581360334	-0.3472443332	-0.070038
C	-3.1258576371	 2.5069277652	-1.1824724487	-0.113027
H	-1.3295734349	 2.6372259955	 0.7476842082	 0.110168
H	-1.1614385506	 3.6478210325	-1.7812634053	 0.111694
H	-2.4634333151	 1.9129846693	-3.3704293773	 0.114526
H	-3.1545593887	 0.7315394641	 0.451164663	 0.097544
H	-3.9755783756	 3.1726106064	-1.1283433108	 0.109998
90.9304	181.5092	260.3313	385.6752	423.1043	545.041	697.3017	724.1579	753.8899	772.0429	783.5846	801.5241	843.1337	887.3624	921.094	954.9962	974.5195	977.5764	1011.9903	1022.7681	1033.6284	1049.6535	1075.8652	1097.7918	1166.6545	1183.778	1192.7068	1239.8128	1276.2127	1289.523	1315.9891	1352.231	1387.7533	1515.0045	1848.9482	3115.8251	3155.7171	3174.9739	3208.8424	3209.4075	3225.3995	3484.502
[O-]C(=O)C1C2C3[NH2+]C1C23	OC(=O)[C@H]1[C@H]2[C@H]3N[C@@H]1[C@@H]23	
InChI=1S/C6H7NO2/c8-6(9)3-1-2-4(1)7-5(2)3/h1-5,7H,(H,8,9)	InChI=1S/C6H7NO2/c8-6(9)3-1-2-4(1)7-5(2)3/h1-5,7H,(H,8,9)/t1-,2-,3-,4+,5+/m0/s1
