21
gdb 82043	2.66637	1.44791	1.2211	2.0771	81.38	-0.2412	0.0734	0.3146	1122.791	0.182866	-387.038286	-387.029917	-387.028972	-387.071404	32.445	
C	-0.1390175291	 1.5706106867	-0.1822848074	-0.414807
C	 0.0581614563	 0.0633991641	-0.0784693439	-0.060398
C	 1.1320172865	-0.6142937219	-0.9452370896	-0.054002
C	 2.5140552051	-0.2290887727	-0.4978971549	-0.291577
C	 1.7527463085	-1.253524	 0.2977299383	-0.125053
C	 0.7304336243	-0.5616839786	 1.1961058805	 0.297397
C	 1.147160581	 0.2340802837	 2.4510185966	-0.13437
O	 0.3343958271	-0.5963144169	 3.306791551	-0.276462
C	-0.1194509251	-1.3806341066	 2.1873480002	-0.144957
H	 0.7997534962	 2.1172032982	-0.047126295	 0.115438
H	-0.5384084938	 1.8390955927	-1.1663778775	 0.116723
H	-0.8463590755	 1.9318615656	 0.5724156874	 0.119052
H	-0.9051220845	-0.4372790003	-0.2297574722	 0.074154
H	 0.9561546594	-1.0570948722	-1.9183501857	 0.08456
H	 3.32226835	-0.6228427845	-1.1059178433	 0.112998
H	 2.7190769194	 0.7542029574	-0.0812601448	 0.107869
H	 2.1200421359	-2.2635611759	 0.4404421529	 0.086827
H	 2.2131762236	 0.1750966954	 2.7074361261	 0.097935
H	 0.8304666302	 1.2847792821	 2.4843389586	 0.09701
H	-1.2070251561	-1.3081988796	 2.0468197819	 0.094246
H	 0.1554435707	-2.4396572263	 2.2867412506	 0.097416
63.661	122.5709	211.0922	228.6044	248.5417	265.6374	386.7749	439.0712	530.5914	534.1855	696.9029	786.1441	788.8806	849.9601	873.0156	918.1854	937.1213	962.8214	981.5074	986.2338	1002.8182	1028.5947	1039.6181	1061.8025	1083.1144	1098.1637	1113.6537	1151.9371	1161.7137	1169.3127	1169.807	1216.8657	1227.8224	1259.4354	1309.4697	1315.2196	1360.3091	1371.4613	1383.5092	1411.7892	1487.8325	1497.0487	1499.3988	1507.6286	1532.1791	2989.236	3005.7877	3029.4694	3032.0879	3037.1081	3045.1311	3094.378	3100.8726	3112.0097	3169.8905	3180.3051	3200.3936
CC1C2CC2C11COC1	C[C@H]1[C@H]2C[C@H]2C21COC2	
InChI=1S/C8H12O/c1-5-6-2-7(6)8(5)3-9-4-8/h5-7H,2-4H2,1H3	InChI=1S/C8H12O/c1-5-6-2-7(6)8(5)3-9-4-8/h5-7H,2-4H2,1H3/t5-,6+,7+/m0/s1
