21
gdb 112514	2.99295	0.98142	0.8637	4.5206	84.63	-0.2378	0.0179	0.2557	1432.4437	0.181915	-383.269158	-383.259366	-383.258422	-383.304175	35.648	
C	-0.2908369094	 1.4368512901	 0.0048862963	-0.390703
C	 0.0089046458	-0.0652907753	 0.0030278753	-0.184482
C	 0.7845825204	-0.5465512898	-1.2150419144	 0.077569
C	 1.0072922205	-2.0712701965	-1.3825642096	-0.288732
C	 0.6383021307	-1.8488626507	-2.8742986901	-0.104947
C	-0.2752478961	-2.7892229511	-3.5241064983	 0.291508
N	-0.9912203211	-3.5402062759	-4.033316515	-0.326568
N	 0.0563771215	-0.5442191826	-2.511705542	-0.076714
C	 0.2457521819	 0.5437024975	-3.4502836158	-0.340787
H	 0.6273380738	 2.028105718	-0.0862532765	 0.113309
H	-0.9526190073	 1.7096705914	-0.8225592776	 0.12988
H	-0.7869912089	 1.7349566589	 0.9332727235	 0.118861
H	 0.5944222022	-0.3253053713	 0.8952620508	 0.098482
H	-0.9279886617	-0.6314110538	 0.0615363504	 0.1062
H	 1.7421824676	-0.0012106674	-1.2914826608	 0.06008
H	 2.0039137472	-2.4647657875	-1.187309736	 0.120445
H	 0.2615054226	-2.6663697565	-0.8536820114	 0.130397
H	 1.5430127431	-1.7596264596	-3.4982652516	 0.102433
H	-0.2799419288	 0.3157427069	-4.3831821401	 0.136839
H	-0.1770069208	 1.4662407765	-3.044647997	 0.131388
H	 1.3101378669	 0.7274494087	-3.6890431402	 0.095543
52.6689	92.3767	142.1016	185.5403	208.142	237.6527	249.1369	308.884	312.389	402.121	455.6337	534.9378	557.9032	635.2831	754.967	815.1195	818.3794	941.3201	958.9475	982.7864	1009.6249	1043.434	1096.0404	1099.2869	1123.0608	1151.5443	1176.2507	1215.9606	1229.9582	1243.4183	1276.6787	1294.8887	1311.6058	1349.0795	1367.735	1408.8748	1418.065	1454.1105	1476.0845	1486.9495	1493.5306	1495.1982	1502.6324	1510.9438	2356.1511	2933.0491	2942.1681	2963.651	3020.3283	3034.6929	3064.7359	3071.7355	3092.8403	3102.6006	3111.4606	3120.8162	3156.1032
CCC1CC(C#N)N1C	CC[C@H]1C[C@@H](C#N)N1C	
InChI=1S/C7H12N2/c1-3-6-4-7(5-8)9(6)2/h6-7H,3-4H2,1-2H3	InChI=1S/C7H12N2/c1-3-6-4-7(5-8)9(6)2/h6-7H,3-4H2,1-2H3/t6-,7-/m0/s1
