21
gdb 74981	2.74662	1.37231	1.14295	1.0633	84.46	-0.226	0.0307	0.2567	1180.7342	0.182485	-387.101384	-387.092681	-387.091737	-387.134859	34.162	
C	 0.0622556011	 1.5375245169	 0.0807656772	-0.488716
C	-0.0255596512	 0.0459319228	 0.0015775927	 0.323196
C	 0.0885964464	-0.7117164496	-1.0949253011	-0.182272
C	-0.020077658	-2.174791688	-0.795911301	-0.109832
C	 1.3135662073	-2.9475641244	-0.5020017122	-0.228099
C	 0.8542044063	-3.1753763865	 0.9665181099	-0.292765
C	-0.372129838	-2.2447430155	 0.7340316166	 0.423374
O	-1.6344425294	-2.7400194367	 1.1238309397	-0.482343
C	-0.2644797809	-0.7900150497	 1.2424529792	-0.349179
H	 0.8787360759	 1.8534851162	 0.7431799227	 0.122631
H	 0.2307918471	 1.9854850905	-0.9023714032	 0.121349
H	-0.8576449142	 1.9661899501	 0.4989718904	 0.125632
H	 0.2722347798	-0.3198560251	-2.0910478476	 0.081424
H	-0.7038216572	-2.7216376958	-1.4538826333	 0.061062
H	 1.4766591057	-3.8550278456	-1.0879983515	 0.09621
H	 2.1969816496	-2.3126115531	-0.5952160979	 0.101863
H	 0.5403200845	-4.2070060882	 1.1577763857	 0.089689
H	 1.5497546394	-2.8828478476	 1.7580886856	 0.098777
H	-1.7289133148	-3.6306770227	 0.770282636	 0.272133
H	 0.5438615149	-0.6646548162	 1.9753488108	 0.099164
H	-1.1939572344	-0.5111589818	 1.7537852013	 0.116702
43.2647	135.6805	188.6	269.5935	276.9512	338.6464	363.2282	394.7402	423.5781	490.0003	548.1628	650.621	660.9457	749.6856	825.4475	842.0162	864.7162	878.7233	919.9819	948.6556	958.6638	998.2983	1032.4108	1050.2131	1071.3587	1089.8539	1113.3445	1131.3902	1165.5928	1204.7101	1229.7931	1232.9833	1258.3594	1281.1742	1288.6459	1311.9652	1349.9739	1389.5798	1412.3485	1469.3207	1478.1427	1478.575	1487.9894	1493.7912	1711.9491	3012.5261	3017.2066	3041.5607	3047.4761	3052.7063	3059.5241	3066.1675	3091.5488	3108.669	3121.0241	3171.0537	3808.7318
CC1=CC2CCC2(O)C1	CC1=C[C@H]2CC[C@@]2(O)C1	
InChI=1S/C8H12O/c1-6-4-7-2-3-8(7,9)5-6/h4,7,9H,2-3,5H2,1H3	InChI=1S/C8H12O/c1-6-4-7-2-3-8(7,9)5-6/h4,7,9H,2-3,5H2,1H3/t7-,8-/m1/s1
