15
gdb 18918	4.07675	2.37551	2.0889	2.8097	62.5	-0.2217	0.0723	0.2941	694.4046	0.120519	-362.594252	-362.588499	-362.587555	-362.623652	24.045	
O	-0.0834853589	 1.4037279254	 0.0927226142	-0.462099
C	 0.0480740475	 0.0367862805	 0.0380294032	 0.375634
C	-0.0718944184	-0.8366873985	-1.2066695509	-0.159521
C	 0.9593224577	-1.946381791	-1.1950697398	-0.244366
C	 1.0408193296	-2.1443049933	 0.3039365481	-0.041696
C	 0.8064540259	-0.8713506054	 1.0331771622	-0.138877
N	-0.2814784692	-1.9011485913	 0.9684854665	-0.150759
C	-1.0084542866	-1.0181926122	-0.0243255416	-0.078497
H	 0.6533923135	 1.8025447363	-0.3841481915	 0.28826
H	-0.4617041199	-0.3887017137	-2.1121408589	 0.095255
H	 0.6162859001	-2.8486493207	-1.712374259	 0.111703
H	 1.9230961483	-1.645173169	-1.6208440827	 0.103774
H	 1.6256888213	-2.9454976564	 0.7429065854	 0.097126
H	 1.2518277929	-0.570507902	 1.9747056703	 0.099036
H	-2.0889518238	-0.9957067188	-0.0513705554	 0.105029
243.6097	316.2741	349.3635	403.9942	563.8362	596.7079	700.5004	727.9601	749.9753	802.3688	822.4997	857.4212	888.4788	942.5166	951.4915	976.9686	984.3839	1010.9058	1033.7935	1049.2607	1074.0813	1141.0242	1164.1508	1195.22	1211.2571	1239.9392	1269.8457	1299.3891	1317.8811	1369.0898	1478.5677	1489.4492	3041.6336	3084.485	3171.5032	3182.2398	3201.806	3213.8971	3783.8137
OC12C3CC4C1N4C23	O[C@@]12[C@H]3C[C@H]4[C@@H]1N4[C@@H]23	
InChI=1S/C6H7NO/c8-6-2-1-3-5(6)7(3)4(2)6/h2-5,8H,1H2	InChI=1S/C6H7NO/c8-6-2-1-3-5(6)7(3)4(2)6/h2-5,8H,1H2/t2-,3-,4+,5-,6+,7?/m0/s1
