21
gdb 56022	3.62197	0.89183	0.85145	2.6775	78.45	-0.2446	-0.0118	0.2328	1462.6142	0.181784	-424.255915	-424.246216	-424.245272	-424.292828	34.151	
C	-0.2746393131	 1.4964223707	-0.3204934051	-0.473024
C	 0.0304025428	 0.0319184815	-0.0571652161	 0.379774
O	 1.157174362	-0.3554490775	 0.1586134478	-0.296484
C	-1.1620225242	-0.9173886205	-0.075976378	-0.312372
C	-0.7981818768	-2.386510114	 0.158616753	 0.025583
C	-2.0564056588	-3.2874210092	 0.2989649579	-0.273986
C	-2.1442731342	-4.020821009	-1.0659846794	-0.065388
O	-1.1916306157	-3.3987714932	-1.9179614937	-0.246666
C	-0.117768138	-3.0006687025	-1.0784776101	-0.093254
H	 0.6393026263	 2.0861825025	-0.2416920836	 0.142667
H	-0.7044217304	 1.6176003755	-1.3214221383	 0.141209
H	-1.0197667134	 1.8698681207	 0.3906529937	 0.136233
H	-1.8749265216	-0.56381745	 0.6823647999	 0.114899
H	-1.6844926601	-0.8041785229	-1.0362360681	 0.13046
H	-0.1482868896	-2.4540193852	 1.0333587966	 0.088231
H	-1.9473433182	-3.99960755	 1.1206905309	 0.104406
H	-2.9538856842	-2.6959158497	 0.4995760131	 0.100779
H	-1.9074461795	-5.0897087523	-0.9463403035	 0.090038
H	-3.1235854908	-3.9423158244	-1.5456194871	 0.105557
H	 0.5105324541	-2.3019518878	-1.6331223907	 0.116244
H	 0.4976767235	-3.8690564026	-0.7907590792	 0.085095
24.9039	37.1473	85.9933	103.465	159.6424	214.4825	306.9328	344.6907	425.175	478.2825	584.9002	684.7714	715.3062	799.9177	832.4477	846.8149	882.2387	924.8309	949.6641	959.2279	977.4154	994.4598	1040.1917	1091.172	1118.927	1152.8853	1176.7603	1206.3472	1224.4732	1239.9719	1260.2075	1289.4008	1304.471	1343.0649	1359.48	1382.0973	1392.7027	1400.3528	1445.5207	1464.6112	1476.9389	1495.5856	1510.5591	1527.1886	1805.9307	2968.9722	2979.364	3012.5032	3037.3715	3043.9751	3058.6759	3081.6642	3093.5415	3097.4676	3106.8246	3119.7579	3152.3372
CC(=O)CC1CCOC1	CC(=O)C[C@H]1CCOC1	
InChI=1S/C7H12O2/c1-6(8)4-7-2-3-9-5-7/h7H,2-5H2,1H3	InChI=1S/C7H12O2/c1-6(8)4-7-2-3-9-5-7/h7H,2-5H2,1H3/t7-/m1/s1
