19
gdb 62092	3.67233	0.70098	0.65148	5.2172	73.93	-0.231	-0.0221	0.2089	1712.7909	0.15652	-456.37368	-456.362957	-456.362013	-456.410948	36.961	
C	-0.0497095248	 1.5116339248	 0.1194350074	-0.394796
C	 0.0444243146	-0.0267685869	 0.0088192416	-0.051196
N	-1.2149089751	-0.7487597088	 0.1180013647	-0.308571
C	-2.0478245242	-0.4615039178	 1.2673101004	-0.23031
C	-3.0635388019	-1.575606816	 1.4782077631	 0.155385
O	-4.1513672656	-1.4198001155	 1.9668540634	-0.238954
C	 0.6181188486	-0.3701584797	-1.373421069	 0.424498
N	 1.9683592848	-0.5275534718	-1.4310205727	-0.524472
O	-0.098186745	-0.4333760711	-2.3553180248	-0.372448
H	 0.9384327661	 1.9713491799	 0.0153739918	 0.11771
H	-0.6962079361	 1.905130926	-0.670880465	 0.136961
H	-0.458985258	 1.8108790944	 1.0882689011	 0.122161
H	 0.7204073619	-0.3936861472	 0.7945755532	 0.072064
H	-1.7131406648	-0.6461360292	-0.7609574449	 0.237589
H	-1.4126818092	-0.4620194219	 2.1674424851	 0.126012
H	-2.5838607903	 0.5001333028	 1.2603628815	 0.11596
H	-2.6980334119	-2.5723239056	 1.1431490069	 0.085788
H	 2.5301315907	-0.6092969911	-0.6019882342	 0.262067
H	 2.3807305302	-0.7691845953	-2.3179709096	 0.264551
37.6448	61.5145	77.3468	106.8598	148.1773	227.6311	240.8422	247.8951	318.2998	321.0014	342.1917	514.1039	532.4807	583.7179	640.073	720.8763	759.0232	774.9253	833.9343	903.9288	1018.0366	1055.349	1072.4074	1080.7737	1101.9559	1151.3479	1203.7639	1246.1122	1282.6664	1325.8461	1353.9105	1383.5712	1402.6841	1408.1522	1470.6846	1487.3563	1492.9066	1513.215	1618.3423	1795.9497	1839.2795	2888.4371	2979.0674	2999.2134	3016.766	3037.7233	3109.5866	3120.7776	3522.9327	3598.3618	3734.6642
CC(NCC=O)C(N)=O	C[C@@H](NCC=O)C(=O)N	
InChI=1S/C5H10N2O2/c1-4(5(6)9)7-2-3-8/h3-4,7H,2H2,1H3,(H2,6,9)	InChI=1S/C5H10N2O2/c1-4(5(6)9)7-2-3-8/h3-4,7H,2H2,1H3,(H2,6,9)/t4-/m1/s1
