17
gdb 72304	2.29243	1.97675	1.54282	2.9186	74.05	-0.2249	-0.0485	0.1763	935.8546	0.1346	-417.866302	-417.858408	-417.857464	-417.898055	31.186	
C	-0.1806602833	 1.5940247385	-0.0722218733	-0.520944
C	-0.0866481606	 0.104904	 0.0460955082	 0.195739
C	-0.0713043891	-1.0234948489	-0.9181697558	-0.142945
N	 1.4090986996	-1.4524166895	-0.6715563896	-0.347433
C	 1.037743059	-0.8377009336	 0.6145440511	 0.091115
N	 0.7622676659	-1.6275852825	 1.5762214429	-0.161954
C	-0.7063049101	-1.5197460772	 1.728806908	-0.241023
C	-1.0955719702	-0.9348712108	 0.3491884007	 0.332276
O	-2.4171625957	-0.6933953903	 0.0250461063	-0.465829
H	 0.6661826568	 2.0080120619	-0.6301681841	 0.122157
H	-1.1014417357	 1.8705686539	-0.5948839139	 0.141232
H	-0.1975584984	 2.0704409545	 0.9135746269	 0.133279
H	-0.4735532648	-1.0936764673	-1.9250872628	 0.111622
H	 1.9240192287	-0.7789434813	-1.2510260492	 0.223428
H	-1.0761710461	-2.5345081797	 1.916967363	 0.118616
H	-1.0768451863	-0.871267584	 2.5366320536	 0.115649
H	-2.8700016397	-1.5391721737	-0.0689167421	 0.295015
172.9998	191.8656	193.1458	281.383	288.1985	338.4099	370.3794	459.417	522.3457	561.1455	602.3737	621.8622	712.5435	746.5973	786.6721	878.2578	900.693	940.8386	977.1746	994.713	1027.6213	1061.7191	1107.5734	1137.9937	1155.2483	1164.9946	1190.4733	1232.2248	1267.3839	1292.7577	1333.0758	1411.0929	1471.2255	1488.116	1489.3218	1497.7805	1616.9115	2996.2799	3031.2668	3057.5722	3094.2341	3107.7523	3154.2739	3359.3026	3795.2125
CC12C3NC1=NCC23O	C[C@@]12[C@H]3N[C]1[N]C[C@@]23O	
InChI=1S/C6H8N2O/c1-5-3-6(5,9)2-7-4(5)8-3/h3,9H,2H2,1H3,(H,7,8)	InChI=1S/C6H8N2O/c1-5-3-6(5,9)2-7-4(5)8-3/h3,9H,2H2,1H3,(H,7,8)/t3-,5-,6+/m1/s1
