27
gdb 117718	1.99957	0.94528	0.77274	1.0049	93.46	-0.244	0.0809	0.3249	1718.3318	0.248385	-390.704461	-390.69222	-390.691275	-390.742693	44.362	
C	-0.2411387837	 1.5062025454	-0.079526394	-0.380776
C	-0.049845521	-0.0107414553	 0.010343811	-0.177092
C	 0.7481437	-0.5696781487	-1.173253463	-0.173236
C	 0.8636289374	-2.1066410984	-1.2360888339	 0.36037
C	 1.648951389	-2.4974710214	-2.4998300893	-0.42132
C	 1.5555587718	-2.6716901772	 0.0163894477	-0.424747
O	-0.4992798267	-2.5497986103	-1.3297939579	-0.286859
C	-0.7625302589	-3.9387163637	-1.3588473425	-0.043296
C	-2.2685025543	-4.118268194	-1.4801790625	-0.377946
H	 0.7213923182	 2.0305425066	-0.0955593074	 0.108638
H	-0.7815836241	 1.7839575982	-0.9914393348	 0.113063
H	-0.8115568887	 1.8868449005	 0.7737350967	 0.108058
H	 0.4566840401	-0.2523665868	 0.9526534832	 0.089587
H	-1.0234636265	-0.5095566286	 0.0425432351	 0.112451
H	 0.27194966	-0.2418179314	-2.1060582964	 0.093905
H	 1.7603054636	-0.1450833872	-1.1726734202	 0.084171
H	 2.6439185166	-2.0415487818	-2.486899109	 0.112218
H	 1.7872451004	-3.5798045229	-2.5777894937	 0.110917
H	 1.1235095527	-2.1511949946	-3.3948306947	 0.117388
H	 0.9439090802	-2.5138590679	 0.9082753051	 0.122925
H	 1.7505040562	-3.7439299279	-0.0779997554	 0.111769
H	 2.5200040885	-2.1771648243	 0.1695653312	 0.112962
H	-0.2586494235	-4.4224622065	-2.2094398759	 0.084786
H	-0.3999198265	-4.4312315512	-0.444258071	 0.085825
H	-2.5262004105	-5.1815105458	-1.5084848888	 0.110005
H	-2.7787057732	-3.659082515	-0.6285194877	 0.123048
H	-2.6383617668	-3.6451818797	-2.3943113217	 0.123185
30.1045	74.2854	87.0279	97.0401	167.3081	210.1375	229.7924	248.1027	254.7071	258.0297	316.3992	333.4968	347.3521	354.1798	449.7491	479.1112	563.8329	743.8931	750.6078	823.8822	845.9461	872.0736	914.8158	918.2792	951.9058	976.0572	1004.3769	1050.5439	1080.1722	1098.0021	1109.2699	1147.5456	1185.7321	1201.5743	1216.3988	1258.752	1287.5261	1302.1415	1324.3829	1339.8944	1393.2141	1394.1843	1398.9964	1410.0455	1413.3327	1428.0757	1468.0599	1482.3881	1483.1754	1492.9563	1495.1884	1497.0927	1499.8249	1502.4943	1511.6359	1512.2801	1532.1374	2980.3951	3009.0034	3016.1514	3026.2044	3032.544	3038.163	3042.5603	3044.464	3054.9381	3076.8586	3098.7449	3100.3942	3103.8918	3110.6615	3114.59	3116.3209	3120.0822	3122.7512
CCCC(C)(C)OCC	CCCC(C)(C)OCC	
InChI=1S/C8H18O/c1-5-7-8(3,4)9-6-2/h5-7H2,1-4H3	InChI=1S/C8H18O/c1-5-7-8(3,4)9-6-2/h5-7H2,1-4H3
