14
gdb 127187	4.38265	1.08873	0.87695	3.2276	66.23	-0.2631	-0.06	0.2031	1213.4565	0.100771	-469.980394	-469.97244	-469.971495	-470.014102	27.701	
C	 0.0325199438	 1.4666488794	-0.0117331469	-0.366079
N	-0.0015993796	 0.0072750149	-0.0118930318	-0.196601
C	-0.0450272204	-0.6773858446	 1.1974017381	 0.157759
O	-0.0569649648	-0.1305556105	 2.2729634807	-0.316005
C	 0.0102197964	-0.6691266866	-1.2194996558	 0.454691
N	-0.0186033179	-1.9755040285	-1.3354673702	-0.182723
O	 0.0071147703	-2.21870951	-2.6866687495	-0.145946
N	 0.0515215339	-1.0671307156	-3.4027378892	-0.055074
C	 0.0544737277	-0.100162506	-2.5294933403	-0.117488
H	 0.9456282662	 1.8351539416	-0.4898216442	 0.1428
H	-0.8387608368	 1.8767845965	-0.5320816752	 0.142806
H	 0.0153202937	 1.7845298337	 1.0295261497	 0.184429
H	-0.0672140291	-1.7676998087	 1.0556196346	 0.142079
H	 0.0865680066	 0.9313634145	-2.8393761801	 0.155352
33.2337	129.1494	166.5339	187.902	285.2553	322.5845	380.3427	447.7068	487.0976	629.0333	726.4202	808.6512	872.8361	926.5	926.8356	965.5636	1037.3842	1040.298	1065.9641	1158.414	1166.0176	1257.4604	1303.7797	1425.7458	1438.1311	1446.2342	1498.2799	1501.8775	1524.1339	1629.0009	1807.9533	3038.0224	3044.2714	3099.9939	3172.283	3282.424
CN(C=O)C1=NON=C1	CN(C=O)c1nonc1	
InChI=1S/C4H5N3O2/c1-7(3-8)4-2-5-9-6-4/h2-3H,1H3	InChI=1S/C4H5N3O2/c1-7(3-8)4-2-5-9-6-4/h2-3H,1H3
