18
gdb 116820	3.18876	0.67957	0.58091	7.1046	75.55	-0.2597	0.0033	0.263	1869.6332	0.144689	-476.230594	-476.220266	-476.219321	-476.268223	33.938	
C	-0.1791794706	 1.044899124	 0.1295730646	-0.250778
O	 0.1776785285	-0.3325026453	 0.193577937	-0.18882
C	 0.5695349015	-0.8890121718	-0.9637961445	 0.136713
N	 0.9141126108	-2.0990265069	-1.0109115708	-0.217216
C	 1.3312126846	-2.6370663818	-2.2874416093	-0.149031
C	 2.6530060071	-3.3899487466	-2.1402230693	-0.081776
O	 2.4864216703	-4.5885221602	-1.3826866052	-0.180922
C	 2.655351685	-4.5146559839	-0.0443185518	 0.191172
O	 2.4784264559	-5.4532317993	 0.6718311419	-0.282151
H	 0.6713746076	 1.6651921426	-0.1771996785	 0.129873
H	-1.0167396294	 1.2098511069	-0.558418781	 0.131578
H	-0.4833176338	 1.328354754	 1.137370067	 0.153001
H	 0.5555618941	-0.207766897	-1.8299845131	 0.076528
H	 0.5778935554	-3.353449871	-2.638831869	 0.128921
H	 1.4500225401	-1.866599764	-3.0694932577	 0.084823
H	 3.0222146169	-3.7031284654	-3.1203595678	 0.122193
H	 3.4076713353	-2.7439729938	-1.6738002238	 0.111653
H	 2.9843021307	-3.5160298403	 0.2930680213	 0.084239
39.595	47.6156	76.4587	102.1645	148.4927	171.9559	192.1343	238.2459	335.9702	376.0701	429.3712	509.467	571.5301	635.2025	896.4842	924.8149	990.5797	1028.6039	1040.0345	1062.3437	1097.5932	1114.5773	1166.331	1177.1956	1184.461	1265.2445	1282.8707	1319.0348	1379.9844	1401.8477	1416.9326	1432.5442	1477.6624	1486.2238	1495.2645	1495.793	1499.8386	1775.7765	1866.4082	2951.7812	2985.0031	2987.0014	3019.207	3028.792	3049.9888	3083.1456	3102.9368	3150.743
COC=NCCOC=O	COC=NCCOC=O	
InChI=1S/C5H9NO3/c1-8-4-6-2-3-9-5-7/h4-5H,2-3H2,1H3	InChI=1S/C5H9NO3/c1-8-4-6-2-3-9-5-7/h4-5H,2-3H2,1H3
