19
gdb 52107	4.96578	0.74687	0.70756	3.3071	77.55	-0.2396	-0.0201	0.2195	1590.8525	0.157537	-422.992004	-422.983093	-422.982149	-423.026994	32.176	
O	-0.672539333	 0.7427324371	 0.6076494056	-0.236885
C	 0.1586459917	 0.932945998	-0.2421638299	 0.154534
C	 1.3118348897	 1.9007959797	-0.1298286823	-0.269133
C	 1.3233952717	 2.9165032606	-1.2922495085	-0.328718
C	 2.5661140897	 3.7487361408	-1.2752388215	 0.506095
C	 2.8081784708	 5.0144970138	-0.5103253401	-0.328753
C	 3.0440451432	 4.9822724098	-2.010976641	-0.205611
C	 4.3013776639	 4.1702157149	-2.2889542302	-0.084266
O	 3.81157812	 3.061306582	-1.4841927954	-0.328333
H	 0.1203897987	 0.3814637194	-1.2122299747	 0.070047
H	 1.2644992161	 2.4018942661	 0.8404673515	 0.124312
H	 2.2440652178	 1.3208699612	-0.1754633676	 0.143138
H	 1.2603507914	 2.3805183997	-2.2477118731	 0.112494
H	 0.448654692	 3.5730351667	-1.2277132859	 0.117471
H	 1.9190796123	 5.5592392629	-0.207583488	 0.116915
H	 3.6465906232	 5.0779881994	 0.1784021476	 0.115889
H	 2.5343402779	 5.6349169679	-2.7067467826	 0.103282
H	 4.4100379467	 3.864938401	-3.3356910321	 0.110456
H	 5.2551294563	 4.5626300788	-1.9166321317	 0.107064
49.2377	66.8116	96.0036	128.8766	253.3004	289.3262	349.5996	403.845	448.4968	521.5976	708.5421	742.8986	768.9252	838.5372	854.9191	901.3723	953.2849	967.6643	979.4122	986.2436	1007.1731	1018.2096	1058.8067	1072.3609	1096.6614	1134.3009	1157.7275	1175.	1229.951	1257.3921	1281.2322	1305.5194	1342.2179	1366.1838	1411.8606	1430.7135	1462.2623	1480.2279	1489.7877	1521.2092	1836.8746	2845.9854	3023.9824	3024.8785	3030.0198	3073.1524	3075.4895	3110.2637	3112.9755	3200.6026	3208.9014
O=CCCC12CC1CO2	O=CCC[C@]12C[C@H]1CO2	
InChI=1S/C7H10O2/c8-3-1-2-7-4-6(7)5-9-7/h3,6H,1-2,4-5H2	InChI=1S/C7H10O2/c8-3-1-2-7-4-6(7)5-9-7/h3,6H,1-2,4-5H2/t6-,7-/m0/s1
