19
gdb 98323	1.83068	1.33015	0.82219	2.4453	77.7	-0.2627	-0.0277	0.235	1402.6901	0.155332	-423.0163	-423.005874	-423.00493	-423.052741	37.19	
C	 0.4947373816	 0.7604800504	-0.3080913527	-0.379516
C	-0.1055736947	-0.6272090644	-0.0913019498	-0.289567
C	-1.6137770795	-0.6276911493	-0.0079314625	 0.361631
O	-2.2750314478	 0.3888458234	-0.0809686881	-0.326301
C	-2.3647896339	-1.9557214628	 0.199075999	 0.031443
O	-3.7004423759	-1.6822441795	 0.5163948792	-0.426149
C	-2.3340099806	-2.8552652943	-1.0754459176	-0.37603
C	-1.0759351655	-3.5389597211	-1.335736154	 0.302606
C	-0.0397595194	-4.1162550455	-1.5343183981	-0.451204
H	 1.5858859271	 0.7025738119	-0.3425541365	 0.114656
H	 0.1430405644	 1.1972579571	-1.2463003515	 0.132203
H	 0.2086370398	 1.4429399428	 0.4960646753	 0.133046
H	 0.1939912428	-1.3293987789	-0.8790837531	 0.150564
H	 0.2683098968	-1.0842436559	 0.835711319	 0.130662
H	-1.8879769712	-2.5112336693	 1.0192415515	 0.099594
H	-3.803084492	-0.7270247774	 0.364888688	 0.294214
H	-3.1289265529	-3.5936144391	-0.9246763888	 0.157289
H	-2.6342590595	-2.2526981433	-1.9415986397	 0.138608
H	 0.8701398507	-4.6322715248	-1.7178278996	 0.202253
38.3809	59.088	96.668	143.4592	186.7202	201.9266	247.0984	345.9189	352.5674	378.6274	438.9045	458.0768	524.6912	587.3246	626.9963	653.0417	665.5461	785.976	795.378	947.8034	968.6273	988.4565	1020.1386	1039.6454	1093.8146	1122.7716	1151.2693	1186.4171	1272.232	1292.1786	1311.4152	1356.0269	1383.0932	1415.703	1443.9805	1452.5486	1468.5282	1493.926	1498.8469	1784.1534	2234.1263	3006.8251	3027.2649	3035.661	3053.0232	3062.7246	3077.3973	3124.936	3128.0672	3504.1143	3650.9587
CCC(=O)C(O)CC#C	CCC(=O)[C@@H](O)CC#C	
InChI=1S/C7H10O2/c1-3-5-7(9)6(8)4-2/h1,7,9H,4-5H2,2H3	InChI=1S/C7H10O2/c1-3-5-7(9)6(8)4-2/h1,7,9H,4-5H2,2H3/t7-/m0/s1
