20
gdb 85556	2.75707	1.31842	0.9659	4.0068	82.69	-0.2355	0.0163	0.2518	1255.3196	0.171511	-403.210153	-403.201032	-403.200088	-403.244362	34.232	
C	-0.2618740324	 1.4906492949	 0.0300973005	-0.387251
C	 0.0516046879	-0.0194514586	 0.014489759	-0.04657
N	 0.7770837793	-0.3668512422	-1.2008866357	-0.318636
C	 2.0515608856	-0.8307682251	-1.3467808247	 0.395347
O	 2.549902009	-1.0055179632	-2.4440420953	-0.383621
C	 2.810040307	-1.1258443809	-0.0628054034	-0.382755
C	 2.0198614188	-0.9637774877	 1.1989128224	-0.165586
C	 0.7840171016	-0.469412287	 1.2581690657	 0.322354
C	 0.0301676042	-0.3447905841	 2.5558535959	-0.480637
H	 0.6625734311	 2.0712903694	 0.1004145606	 0.128553
H	-0.7807358083	 1.7793703412	-0.889822005	 0.115836
H	-0.9086819876	 1.753444835	 0.8714164308	 0.122444
H	-0.9133713905	-0.5517318146	-0.0086092008	 0.091757
H	 0.3242661188	-0.16052482	-2.0807129391	 0.240563
H	 3.2048429685	-2.1453721803	-0.1537727909	 0.140273
H	 3.6995343738	-0.4809467624	-0.059455351	 0.140258
H	 2.5062576547	-1.2814132127	 2.1190664731	 0.08684
H	 0.6029162486	-0.7743906945	 3.3812121933	 0.126588
H	-0.1864986036	 0.6998150099	 2.8087068559	 0.129781
H	-0.9359893965	-0.8631881271	 2.5073469288	 0.124462
49.9679	82.3905	164.3887	227.139	256.3058	285.7832	325.7004	378.5243	441.0678	465.1933	516.0378	565.0814	603.5878	657.441	725.9235	746.2302	833.4357	869.6468	964.9922	986.1279	988.8521	1037.859	1065.5262	1085.393	1104.6009	1144.2107	1197.9919	1209.318	1298.7679	1334.2655	1350.8816	1383.968	1399.5028	1410.7993	1417.5635	1452.9857	1474.8479	1483.4773	1491.3715	1497.8978	1507.8867	1755.5504	1789.2711	2962.4855	3021.6788	3023.2424	3038.5466	3051.7032	3069.5907	3108.9349	3116.7174	3125.2211	3143.612	3594.9904
CC1NC(=O)CC=C1C	C[C@H]1NC(=O)CC=C1C	
InChI=1S/C7H11NO/c1-5-3-4-7(9)8-6(5)2/h3,6H,4H2,1-2H3,(H,8,9)	InChI=1S/C7H11NO/c1-5-3-4-7(9)8-6(5)2/h3,6H,4H2,1-2H3,(H,8,9)/t6-/m1/s1
