18
gdb 8070	3.55823	1.68003	1.42419	1.7307	68.57	-0.251	0.0849	0.3359	944.4341	0.153323	-384.879764	-384.871963	-384.871019	-384.911817	29.669	
C	 0.129239364	 1.290630727	 0.1613220683	-0.241401
O	-0.3238787295	 0.0229251864	-0.2631912335	-0.264326
C	 0.4806418837	-0.5566390008	-1.2501130479	 0.109101
C	 1.7589259801	-1.3677349012	-0.8582889895	-0.108762
C	 0.8221671434	-2.4258273885	-0.207222318	-0.290958
C	 0.1614711612	-2.039035547	-1.5762846108	 0.367493
O	-0.9791335954	-2.5490698536	-2.1608303432	-0.472821
C	 1.5677664416	-2.12020912	-2.2091709734	-0.261609
H	 1.1151183685	 1.233217741	 0.6450935495	 0.110252
H	 0.1981624036	 1.9969699787	-0.6802434392	 0.107732
H	-0.5972905129	 1.6716130634	 0.8829885232	 0.127205
H	 0.5937089584	 0.1186062436	-2.1115074151	 0.061115
H	 2.6933353574	-0.9824371553	-0.4583924564	 0.078966
H	 1.2166056241	-3.4423838426	-0.1376994872	 0.090521
H	 0.2944872796	-2.1218093196	 0.6964263523	 0.103942
H	-1.7330582439	-2.270741019	-1.6285276254	 0.289216
H	 1.7299109946	-1.5493154045	-3.1278306808	 0.093172
H	 2.0114928017	-3.1158369178	-2.2652152429	 0.101162
86.2988	156.3251	184.8876	258.1353	299.3182	331.3631	392.9038	484.943	548.5527	607.2392	663.7362	759.5509	822.0509	910.0321	928.1061	952.6739	961.445	1012.3285	1037.2671	1065.3683	1086.3029	1116.6177	1133.5589	1162.6439	1165.5431	1185.7486	1201.3336	1218.3647	1235.7009	1243.0681	1306.0805	1379.7649	1408.2491	1481.1177	1488.4236	1492.6454	1508.6493	1540.5776	2979.545	2996.4276	3031.0119	3058.0703	3070.973	3115.6893	3129.1818	3148.5884	3150.6751	3803.8602
COC1C2CC1(O)C2	CO[C@H]1[C@H]2C[C@]1(O)C2	
InChI=1S/C6H10O2/c1-8-5-4-2-6(5,7)3-4/h4-5,7H,2-3H2,1H3	InChI=1S/C6H10O2/c1-8-5-4-2-6(5,7)3-4/h4-5,7H,2-3H2,1H3/t4-,5-,6-/m0/s1
