21
gdb 117644	1.91792	1.42875	1.19793	4.9102	74.36	-0.235	0.0264	0.2614	1199.0286	0.182399	-457.572307	-457.562113	-457.561169	-457.607375	37.697	
C	-0.1385404123	 1.253464695	-1.0509805676	-0.331203
N	 0.0241575024	 0.3716522286	 0.1065831941	-0.29789
H	 0.1329492839	 0.9323916744	 0.9419272709	 0.22642
H	-1.1057066292	-1.5108480167	 0.0156014886	 0.246547
C	 1.1313102799	-0.5792671783	 0.0229320683	-0.193386
C	 0.7395881276	-1.8671750901	-0.7486742914	 0.127779
C	 1.7608362033	-2.9779131179	-0.4657785455	-0.432765
N	-0.6261536367	-2.3057293084	-0.4094608253	-0.562706
C	 0.7966574934	-1.5915237347	-2.2778696449	 0.43897
O	 1.7569839809	-1.1037198976	-2.817421819	-0.36636
O	-0.3048989334	-1.9701538953	-2.9308168267	-0.382298
H	 0.7918602923	 1.7598004494	-1.3523609708	 0.11639
H	-0.5022049509	 0.6871312931	-1.9127135291	 0.149905
H	-0.8906855666	 2.0116875958	-0.8160494794	 0.116665
H	 2.0301610329	-0.1599241139	-0.4529229385	 0.120433
H	 1.3924051968	-0.8710622581	 1.0462390464	 0.089226
H	 1.8081770165	-3.1911764751	 0.6078756091	 0.111112
H	 1.488348014	-3.8989994417	-0.9909005885	 0.13015
H	 2.7514279438	-2.672640496	-0.8091147593	 0.15265
H	-0.6158087135	-3.0697111181	 0.2566368412	 0.234811
H	-0.889595825	-2.3196601543	-2.2119889728	 0.305549
63.8835	94.655	102.5827	209.2219	242.251	251.2203	271.4528	291.7788	346.1078	364.4949	381.7041	416.0827	517.0678	547.3341	590.9675	740.9967	762.7036	805.2185	858.4731	898.9646	931.6055	968.7755	995.9758	1016.16	1048.5609	1125.4263	1138.9112	1165.3719	1200.322	1214.7889	1248.485	1319.2818	1336.0922	1383.9506	1403.498	1449.1057	1463.0127	1480.0476	1485.7046	1495.7168	1499.9421	1503.6671	1517.8393	1638.1928	1853.4544	2985.6333	2997.3382	3033.4626	3064.4035	3082.2957	3101.5989	3117.9538	3135.69	3342.759	3438.0963	3553.0352	3570.3936
C[NH2+]CC(C)(N)C([O-])=O	CNC[C@@](C)(N)C(=O)O	
InChI=1S/C5H12N2O2/c1-5(6,3-7-2)4(8)9/h7H,3,6H2,1-2H3,(H,8,9)	InChI=1S/C5H12N2O2/c1-5(6,3-7-2)4(8)9/h7H,3,6H2,1-2H3,(H,8,9)/t5-/m1/s1
