19
gdb 108274	3.02543	1.27795	1.05591	2.3081	75.68	-0.2455	-0.0278	0.2177	1188.043	0.157712	-423.017608	-423.008935	-423.007991	-423.05122	32.504	
C	 0.2288506546	 1.6197713403	 0.0266980196	-0.383858
C	 0.191898504	 0.0875114999	 0.0800907294	-0.270753
C	 0.555058536	-0.5393907544	-1.2433259668	 0.459799
C	-0.4192774659	-0.4305275294	-2.4524697618	-0.403589
C	-0.1871252507	-1.9333074736	-2.7153610176	 0.413565
O	-0.6228066679	-2.7107683885	-3.5134237008	-0.297307
C	 0.7601937783	-2.0722395757	-1.5170793575	-0.283104
C	 2.2087265445	-1.653372201	-1.8576372448	-0.092272
O	 1.9179854783	-0.2554288709	-1.6547850685	-0.327698
H	 1.2195362292	 1.9668471932	-0.2794369262	 0.14105
H	-0.5019779879	 2.01128995	-0.6888478392	 0.119122
H	 0.0021861173	 2.050091633	 1.0061711836	 0.115985
H	 0.8918355281	-0.2746093679	 0.8423286483	 0.105241
H	-0.8066180106	-0.2610033775	 0.3729413348	 0.099774
H	-1.4605861922	-0.2314732019	-2.1745301892	 0.131781
H	-0.1210611151	 0.2570769528	-3.2471615874	 0.138949
H	 0.6034307509	-2.8880602971	-0.812213134	 0.100685
H	 2.9477835155	-2.0176764309	-1.1343191035	 0.114234
H	 2.5623425235	-1.8713363803	-2.8717792985	 0.118397
71.262	96.4829	160.9592	206.6351	220.844	340.6048	353.7451	382.6175	444.6652	525.9639	612.855	646.9096	726.229	783.2437	837.9075	917.7775	928.2795	946.3908	975.059	986.3634	999.0956	1039.7451	1070.2684	1100.7074	1112.2789	1141.5575	1165.4911	1193.2416	1199.9597	1239.1393	1286.8861	1317.5299	1343.642	1378.8252	1408.1968	1417.9454	1476.1277	1497.5675	1509.2307	1527.0533	1891.0397	3021.3942	3026.3467	3040.5103	3050.95	3063.9761	3067.9661	3108.4071	3120.0243	3122.5194	3125.0322
CCC12CC(=O)C1CO2	CC[C@]12CC(=O)[C@H]1CO2	
InChI=1S/C7H10O2/c1-2-7-3-6(8)5(7)4-9-7/h5H,2-4H2,1H3	InChI=1S/C7H10O2/c1-2-7-3-6(8)5(7)4-9-7/h5H,2-4H2,1H3/t5-,7+/m1/s1
