17
gdb 67479	2.60359	1.73793	1.60206	1.6988	66.41	-0.2169	0.0652	0.2821	921.6315	0.136844	-458.90637	-458.899092	-458.898148	-458.937772	28.92	
O	 0.045353141	 1.4443283099	-0.0318075028	-0.457692
C	 0.023773281	 0.0652121071	-0.0044299406	 0.263242
C	-1.1037818685	-0.9586639279	 0.0158338586	-0.016978
O	-0.5610788621	-1.7017645174	-1.0725440371	-0.299955
C	 0.6147367248	-0.8321589041	-1.1079178115	 0.030822
C	 1.8640177562	-1.5878275224	-0.6710143114	-0.249203
C	 1.5277994709	-2.4506817187	 0.5544713259	-0.059331
O	 0.849267323	-1.7390804784	 1.5921181283	-0.2711
C	-0.1262998449	-0.8289431264	 1.1813348411	 0.011427
H	 0.6198402501	 1.7569392108	 0.6752962103	 0.292792
H	-2.1828099883	-0.8997363174	 0.1031760179	 0.113151
H	 0.7005303363	-0.3424929169	-2.0814856179	 0.092279
H	 2.235207141	-2.2418726162	-1.4676325845	 0.110789
H	 2.6548772942	-0.8621028789	-0.4438929374	 0.106729
H	 0.9144777714	-3.3000697819	 0.2331239205	 0.118613
H	 2.4396842828	-2.8381188024	 1.0171941677	 0.104719
H	-0.5811006891	-0.3581680487	 2.0499351629	 0.109696
150.6321	193.5055	243.1072	294.9438	320.3812	379.7713	454.2547	504.1832	633.6613	658.5074	704.6296	760.4077	809.6608	868.695	897.9577	925.7797	947.9914	967.7753	1010.2622	1032.1386	1050.2753	1086.4478	1105.7078	1141.3921	1191.8167	1197.1457	1246.0201	1274.1832	1285.7823	1326.8287	1331.7891	1356.2206	1368.6912	1420.7121	1471.1618	1490.7751	1507.7929	3032.0994	3038.3734	3076.0401	3081.977	3094.6108	3149.7873	3181.6119	3801.9957
OC12C3OC1CCOC23	O[C@@]12[C@H]3O[C@@H]1CCO[C@@H]23	
InChI=1S/C6H8O3/c7-6-3-1-2-8-4(6)5(6)9-3/h3-5,7H,1-2H2	InChI=1S/C6H8O3/c7-6-3-1-2-8-4(6)5(6)9-3/h3-5,7H,1-2H2/t3-,4-,5+,6+/m1/s1
