22
gdb 87211	4.14788	0.88581	0.83073	1.0029	83.73	-0.234	0.0811	0.3152	1492.8568	0.192597	-404.300639	-404.290824	-404.28988	-404.335539	36.927	
C	-0.0313665283	 1.4969646	-0.0449090589	-0.403774
C	 0.1528626539	-0.0038334622	-0.0242443057	-0.042028
C	 1.5423702121	-0.6150870747	 0.0325656007	-0.346567
C	 0.6136438162	-0.714846568	 1.2183892051	 0.403059
O	 0.8798221333	 0.1081207149	 2.3258066647	-0.470508
C	-0.0046592678	-2.0465520102	 1.5848951042	-0.199899
N	 0.8822700448	-2.8090192607	 2.464541972	-0.081228
C	 0.643880731	-2.6551303447	 3.9010138581	-0.226987
C	 0.2581091889	-3.9060381936	 3.1969833476	-0.221422
H	 0.6684939502	 1.9838195819	 0.6375775617	 0.130587
H	 0.1304413207	 1.8961755767	-1.052017164	 0.111119
H	-1.0442302299	 1.7747081685	 0.2667694747	 0.114802
H	-0.5713066513	-0.5538520859	-0.621413326	 0.080456
H	 1.7556681801	-1.50819757	-0.5448985468	 0.109853
H	 2.3751067821	 0.0741408606	 0.1291672128	 0.108365
H	 1.6433292255	-0.2686958919	 2.7766753742	 0.290562
H	-0.9920092558	-1.8741260157	 2.0516590811	 0.084252
H	-0.1677222176	-2.6350149437	 0.6748655039	 0.098857
H	 1.530787231	-2.6304316121	 4.5286247046	 0.112706
H	-0.1556177076	-1.9862209225	 4.2123773171	 0.12207
H	-0.8057156198	-4.0799638229	 3.0416562207	 0.109548
H	 0.8560940685	-4.8071345337	 3.2984759784	 0.116177
55.5435	84.8579	123.1876	182.6648	230.3086	250.3782	290.9784	332.7178	366.8308	404.8438	436.7952	466.271	580.996	733.2297	768.6983	816.8602	841.061	876.2534	908.8146	920.654	943.2533	989.1968	1019.2363	1031.9364	1039.3987	1048.3686	1107.6891	1116.2701	1121.5412	1138.6227	1172.6698	1181.2838	1190.3338	1243.3576	1263.4414	1308.8314	1315.6617	1350.4681	1383.8354	1410.0381	1429.3312	1479.0815	1487.999	1492.5401	1495.3918	1506.9657	1520.1304	2931.7744	3033.7639	3058.7738	3090.0478	3094.6959	3101.0024	3118.6697	3128.0176	3135.5677	3176.7525	3191.2139	3216.4457	3804.7345
CC1CC1(O)CN1CC1	C[C@H]1C[C@]1(O)CN1CC1	
InChI=1S/C7H13NO/c1-6-4-7(6,9)5-8-2-3-8/h6,9H,2-5H2,1H3	InChI=1S/C7H13NO/c1-6-4-7(6,9)5-8-2-3-8/h6,9H,2-5H2,1H3/t6-,7-/m0/s1
