19
gdb 74420	2.84491	1.40603	1.09609	3.3612	83.04	-0.2331	-0.0435	0.1896	1168.6023	0.158679	-385.926591	-385.917873	-385.916928	-385.959716	33.114	
C	 0.0401984716	 1.5165229169	-0.0387621784	-0.490178
C	-0.0194428922	 0.0257450746	 0.0209867	 0.187189
C	-1.080168969	-0.7893094417	 0.1294005397	-0.241425
C	-0.7155502182	-2.2456571188	 0.0912151099	 0.31192
C	-1.4654656128	-3.2293160766	 0.9580657211	-0.483543
C	-0.1276373417	-2.66296498	-1.2404405151	-0.314486
C	 0.7817610444	-2.2519931598	-0.0843089866	-0.201548
C	 1.2233686795	-0.8084419631	-0.06489471	 0.343077
O	 2.3595026864	-0.3915382608	-0.0921641599	-0.337156
H	 0.6904218245	 1.9067602342	 0.7514889536	 0.14362
H	 0.477228135	 1.8511036396	-0.9865734316	 0.139498
H	-0.9500694869	 1.9669248982	 0.0657672545	 0.119329
H	-2.1150535965	-0.4661470115	 0.195103493	 0.105113
H	-2.5268956083	-3.2645234385	 0.6863707206	 0.121867
H	-1.0603425795	-4.2391463071	 0.8449948377	 0.121895
H	-1.3997763486	-2.9562328341	 2.0166186907	 0.126675
H	-0.1316499954	-3.7204603319	-1.4886031625	 0.119309
H	-0.2271821333	-1.9946388785	-2.088947814	 0.12252
H	 1.4274606508	-3.0026313911	 0.3537749175	 0.106321
98.7577	133.5393	160.7812	216.6609	240.4924	293.1173	326.7623	393.9158	430.6259	497.1649	566.9172	613.3209	707.5228	758.1287	799.946	852.0687	890.7543	917.1592	933.2676	974.3275	994.7247	1026.1956	1058.0299	1065.6593	1076.336	1109.252	1130.0228	1187.5399	1237.5139	1302.3296	1334.7453	1384.4067	1413.4481	1421.3536	1472.588	1480.3924	1488.6374	1490.1922	1501.1518	1688.9848	1805.9432	3028.2623	3034.6993	3087.7206	3089.3094	3107.8823	3120.3812	3122.0187	3175.1433	3197.385	3214.626
CC1=CC2(C)CC2C1=O	CC1=C[C@@]2(C)C[C@H]2C1=O	
InChI=1S/C8H10O/c1-5-3-8(2)4-6(8)7(5)9/h3,6H,4H2,1-2H3	InChI=1S/C8H10O/c1-5-3-8(2)4-6(8)7(5)9/h3,6H,4H2,1-2H3/t6-,8-/m0/s1
