17
gdb 31398	3.49027	1.13894	0.91301	2.486	78.75	-0.2396	-0.0415	0.1981	1273.1397	0.138161	-418.090618	-418.082567	-418.081623	-418.123742	29.976	
C	-0.0073636064	 1.5713436557	 0.1293377021	-0.373304
C	-0.0206036951	 0.0510354014	-0.100706915	-0.264831
C	-1.4159349268	-0.5143862831	-0.097970918	 0.333415
C	-1.9836541336	-1.0711289603	-1.2063395084	-0.299941
C	-3.329915055	-1.5978684941	-1.1835608761	 0.428213
O	-3.9566288109	-2.1161230873	-2.0872947252	-0.387555
N	-3.9170644586	-1.4476808623	 0.0984709888	-0.336284
C	-3.2825064529	-0.8819980411	 1.1514306599	 0.100896
N	-2.0767618374	-0.4145508353	 1.1139655626	-0.32338
H	 1.0198571024	 1.9439910555	 0.1758366622	 0.116473
H	-0.5232735055	 2.0950561139	-0.6816611073	 0.11956
H	-0.5087108216	 1.8182396212	 1.0684364822	 0.139839
H	 0.4736936321	-0.1961865212	-1.0449357884	 0.106438
H	 0.542895972	-0.436717393	 0.7038285089	 0.121506
H	-1.4482663621	-1.1412517972	-2.1451127249	 0.113921
H	-4.8621435296	-1.7968188811	 0.1889232093	 0.267752
H	-3.8501963811	-0.8340155618	 2.0781839871	 0.137281
59.755	132.7124	179.7836	212.3953	281.6041	334.1654	444.6382	475.4755	535.4061	558.4609	670.2285	747.4702	773.1605	780.8205	798.3937	893.9119	899.4192	965.835	976.7805	991.5744	1077.1879	1094.0697	1156.0306	1180.1876	1222.616	1278.5703	1351.2767	1363.5718	1401.8234	1429.8689	1466.2273	1476.8867	1495.5709	1509.9499	1589.7359	1660.1016	1803.3319	3036.8873	3042.8655	3086.3675	3112.7137	3129.6554	3159.997	3211.8416	3596.4594
CCC1=CC(=O)NC=N1	CCc1cc(=O)[nH]cn1	
InChI=1S/C6H8N2O/c1-2-5-3-6(9)8-4-7-5/h3-4H,2H2,1H3,(H,7,8,9)	InChI=1S/C6H8N2O/c1-2-5-3-6(9)8-4-7-5/h3-4H,2H2,1H3,(H,7,8,9)
