19
gdb 35684	2.31832	1.57118	1.12187	1.1302	81.03	-0.2452	0.0366	0.2818	1137.9337	0.158333	-385.829767	-385.821225	-385.82028	-385.863295	32.628	
C	-0.1169792724	-1.1003687846	-0.4669868591	-0.468094
C	-0.0919286114	 0.0698953021	-0.1893495823	 0.34996
C	-0.0456121943	 1.4731767699	 0.153893716	-0.325044
C	 0.0538133015	 1.8653967091	 1.6517983884	-0.090215
O	 1.2050826558	 2.6882027813	 1.4012521693	-0.314607
C	 1.3074532438	 2.2536344623	 0.0376045445	 0.470118
C	 2.5882224972	 1.5340873991	-0.4369940784	-0.294699
C	 2.4614788537	 2.3008201866	-1.7828518028	-0.214862
C	 1.5009353998	 3.2992724708	-1.0777397689	-0.291479
H	-0.147509377	-2.1330071845	-0.7126576774	 0.199941
H	-0.8499361213	 2.0147659447	-0.3531203218	 0.109733
H	-0.7883165601	 2.4384018647	 2.0540930783	 0.108742
H	 0.2795670549	 1.0258387513	 2.3189956897	 0.110789
H	 3.4414483688	 1.8801691595	 0.1531825731	 0.111654
H	 2.5758534401	 0.4425772579	-0.4555627509	 0.112291
H	 3.3768091924	 2.710714225	-2.2127597965	 0.102807
H	 1.9514993906	 1.7069424199	-2.5453422057	 0.11087
H	 0.6111314333	 3.6431535267	-1.6125402079	 0.095634
H	 2.0347028448	 4.1679229782	-0.6809521876	 0.116461
57.8168	101.9072	158.1291	190.4062	270.0846	352.6546	392.7692	472.6226	528.8653	535.9705	621.641	635.6798	697.0798	745.1197	782.2376	846.7879	903.2987	913.6972	926.038	967.0618	1012.0902	1024.9746	1040.1334	1079.8917	1110.2753	1159.3218	1167.2978	1186.7318	1194.2606	1230.9113	1245.446	1257.5345	1273.2492	1303.2235	1335.2633	1361.8544	1463.9123	1481.1653	1503.0365	1524.796	2232.4902	3027.581	3052.3593	3056.3864	3065.3888	3070.879	3080.7679	3104.3351	3119.4293	3131.6903	3503.4007
C#CC1COC11CCC1	C#C[C@H]1COC21CCC2	
InChI=1S/C8H10O/c1-2-7-6-9-8(7)4-3-5-8/h1,7H,3-6H2	InChI=1S/C8H10O/c1-2-7-6-9-8(7)4-3-5-8/h1,7H,3-6H2/t7-/m0/s1
