16
gdb 26074	3.28902	1.1942	0.90727	2.8372	76.12	-0.2094	0.031	0.2404	1229.3142	0.124305	-400.73812	-400.729613	-400.728669	-400.771726	32.081	
O	 0.6194487529	 1.5723057685	-0.1863934606	-0.408325
C	 0.1872159196	 0.2242725958	 0.00189866	-0.175011
C	 0.4010933461	-0.586659696	-1.2059354506	 0.320531
C	 0.5915687251	-1.2353658721	-2.1998118599	-0.461365
C	 0.8218396897	-0.3998403029	 1.2232184538	 0.24919
C	 1.2809261169	 0.3083111214	 2.3131435905	-0.178734
N	 1.7522133782	-0.5957643912	 3.2291020608	-0.241631
C	 1.6029811904	-1.8710305165	 2.745774384	-0.071421
C	 1.028231533	-1.7823591727	 1.5005552044	-0.256088
H	 1.5745207297	 1.5394263868	-0.3181096133	 0.280331
H	-0.8963638686	 0.319829029	 0.1548391541	 0.12888
H	 0.7527747028	-1.8048075485	-3.0816578034	 0.196773
H	 1.2997908888	 1.3688848208	 2.4998800202	 0.129411
H	 2.1608682189	-0.3570824615	 4.115365442	 0.262288
H	 1.9243132496	-2.7251451205	 3.3197560659	 0.120692
H	 0.7884373368	-2.6056403604	 0.8463143223	 0.104481
43.0883	119.1588	174.9895	216.3694	280.0729	334.1626	421.6914	472.704	487.0493	579.2842	619.0639	633.9089	642.2332	668.5086	695.2507	757.9429	805.0496	842.5797	905.6378	915.5371	999.5773	1049.4304	1082.8688	1094.7793	1160.9689	1245.2015	1262.1904	1285.9664	1326.5283	1407.6749	1421.1223	1464.9475	1518.1744	1598.8442	2232.8255	3014.7522	3253.2814	3272.2683	3278.0219	3503.0266	3685.3021	3791.5594
OC(C#C)C1=CNC=C1	O[C@@H](C#C)c1c[nH]cc1	
InChI=1S/C7H7NO/c1-2-7(9)6-3-4-8-5-6/h1,3-5,7-9H	InChI=1S/C7H7NO/c1-2-7(9)6-3-4-8-5-6/h1,3-5,7-9H/t7-/m0/s1
