17
gdb 68937	2.19329	1.68487	1.16064	3.2095	75.59	-0.245	-0.0406	0.2044	1081.5308	0.133898	-421.838703	-421.830103	-421.829159	-421.871925	31.819	
C	 0.1853336647	 1.4448093003	 0.1990793301	-0.491992
C	 0.0359597148	-0.0346914582	 0.0107335879	 0.296735
C	 1.1257108364	-0.9283762136	-0.4009400056	-0.358009
C	 0.5979190752	-1.1518742434	 1.0250173698	 0.069136
C	 1.4664941288	-0.9374624762	 2.1916013508	 0.059113
O	 2.4644557904	-0.2492590784	 2.1720739984	-0.279158
C	-0.7578346155	-1.7784394921	 0.9867932426	 0.356864
O	-1.290789849	-2.5969833707	 1.6833073053	-0.31392
C	-1.3046374526	-0.78863953	-0.0736707714	-0.413095
H	 1.1822333746	 1.6848527948	 0.5789537597	 0.156221
H	 0.0477263427	 1.9666416166	-0.7551430636	 0.134983
H	-0.5568088427	 1.8343251078	 0.9030161506	 0.12938
H	 0.9608518072	-1.7142041098	-1.1330613076	 0.129813
H	 2.1274785689	-0.5093998978	-0.3879923105	 0.156035
H	 1.1212998956	-1.4327123121	 3.1223052872	 0.102657
H	-2.1572665598	-0.2351630647	 0.3299446207	 0.137615
H	-1.5698355098	-1.1932506825	-1.0548848845	 0.127622
97.4582	117.676	158.8897	211.4793	224.1549	321.6318	345.5983	383.7198	437.5563	542.8005	593.8534	605.6156	629.8847	705.3696	806.1308	884.1345	960.8744	983.9668	989.8598	1013.9288	1042.0363	1066.1757	1089.825	1115.0014	1166.1418	1206.1178	1268.1222	1323.506	1382.2939	1423.5388	1426.6169	1454.4692	1487.116	1492.5769	1500.8021	1778.8201	1870.1095	2924.3851	3031.5628	3056.7163	3094.1974	3113.1004	3115.6301	3120.5642	3210.5693
CC12CC1(C=O)C(=O)C2	C[C@@]12C[C@]1(C=O)C(=O)C2	
InChI=1S/C7H8O2/c1-6-2-5(9)7(6,3-6)4-8/h4H,2-3H2,1H3	InChI=1S/C7H8O2/c1-6-2-5(9)7(6,3-6)4-8/h4H,2-3H2,1H3/t6-,7+/m1/s1
