15
gdb 32385	6.72914	0.85627	0.76461	6.0159	79.24	-0.2151	-0.0387	0.1764	1415.9218	0.113616	-416.837956	-416.82975	-416.828806	-416.87099	29.841	
C	 0.0559419157	 1.4521358859	-0.0060089087	-0.332177
N	-0.1373327901	 0.0144725412	 0.0623251757	-0.39
C	 0.5556529857	-0.6880791331	 1.035546637	 0.312362
C	 1.2205243543	-0.1957465014	 2.1314310396	-0.106363
O	 1.7176205913	-1.2125979148	 2.891111125	-0.17883
C	 1.3791153842	-2.3687575353	 2.2651285434	 0.302487
C	 0.6656678671	-2.111567109	 1.1274859614	-0.399774
C	 1.7900529906	-3.5854742697	 2.8508980024	 0.225928
N	 2.1170209183	-4.5968374845	 3.3124871662	-0.339412
H	 1.110865314	 1.7470656026	-0.1248544913	 0.117207
H	-0.5170501988	 1.852087908	-0.8449009423	 0.13242
H	-0.3244143884	 1.9180981678	 0.9098340259	 0.138131
H	-0.133575171	-0.4409726266	-0.8382563243	 0.242648
H	 1.408219451	 0.7968453921	 2.5008050042	 0.142316
H	 0.265678936	-2.8463055032	 0.4466043357	 0.133056
78.6652	133.9595	160.9785	198.6999	232.0375	342.9023	407.4487	498.7975	507.1505	570.5317	621.5129	633.9992	680.1395	712.184	727.0514	827.9845	963.4236	992.7013	1079.1629	1145.023	1163.3206	1165.7427	1197.2557	1258.7043	1335.0321	1380.9236	1460.6504	1482.8133	1503.4308	1523.229	1555.8803	1659.3313	2341.469	2977.4465	3063.8263	3126.8489	3263.124	3297.6205	3600.7907
CNC1=COC(=C1)C#N	CNc1coc(c1)C#N	
InChI=1S/C6H6N2O/c1-8-5-2-6(3-7)9-4-5/h2,4,8H,1H3	InChI=1S/C6H6N2O/c1-8-5-2-6(3-7)9-4-5/h2,4,8H,1H3
