16
gdb 99591	2.47187	1.22122	0.92313	4.1067	66.86	-0.2892	-0.0532	0.2359	1248.7515	0.120639	-475.018274	-475.008404	-475.007459	-475.053691	33.583	
C	 0.1764607419	 1.4242720482	 0.0695892391	-0.251253
O	-0.1339837877	 0.058321048	-0.1623443735	-0.237498
C	 0.591682948	-0.5391165657	-1.2052584241	-0.04322
C	 2.0440895416	-0.5798874406	-0.9336802396	 0.290712
N	 3.1815323577	-0.5723340902	-0.7333458245	-0.316639
C	 0.027295472	-1.9668908973	-1.3933301654	 0.031459
O	 0.3217368733	-2.7952527438	-0.3176908055	-0.417064
C	-1.4795867708	-1.8579351619	-1.6009975163	 0.14536
O	-2.2504133377	-2.4614696514	-0.901493277	-0.246696
H	 1.2203173318	 1.5504664854	 0.3825767701	 0.144818
H	-0.0039497999	 2.0323101291	-0.8288103336	 0.115429
H	-0.4842785159	 1.7598610727	 0.8702140184	 0.146724
H	 0.4552832307	 0.0183127333	-2.1492657454	 0.112475
H	 0.4654308834	-2.3686470842	-2.3229365208	 0.118109
H	-0.5280416936	-3.0007944847	 0.1032124105	 0.304057
H	-1.8191509548	-1.2078721771	-2.4323543125	 0.103227
64.4253	95.9579	103.7308	138.3691	180.054	214.6627	251.0916	292.9761	334.1909	344.712	403.5228	458.1426	594.7566	696.7727	756.2469	860.3672	875.3168	944.3247	1011.135	1063.4906	1138.274	1178.4419	1183.5156	1218.4183	1260.3595	1318.8654	1341.7282	1363.1938	1403.8511	1436.5151	1480.7846	1488.1353	1506.4908	1829.8992	2359.1533	2933.5279	2951.4178	2976.4832	2997.324	3065.1535	3140.6776	3697.7792
COC(C#N)C(O)C=O	CO[C@@H](C#N)[C@@H](O)C=O	
InChI=1S/C5H7NO3/c1-9-5(2-6)4(8)3-7/h3-5,8H,1H3	InChI=1S/C5H7NO3/c1-9-5(2-6)4(8)3-7/h3-5,8H,1H3/t4-,5-/m0/s1
