15
gdb 19605	3.24914	2.39949	1.77352	3.1168	64.26	-0.248	-0.0152	0.2328	768.2297	0.119496	-362.622149	-362.615656	-362.614712	-362.652664	25.06	
C	 0.0468741622	 1.6069416853	 0.0777268891	-0.427254
C	 0.113923204	 0.0891337433	-0.003862652	 0.01222
C	 0.8630627624	-0.6355681821	-1.1218981465	-0.044319
C	 2.3228778111	-0.7494099001	-0.7837159443	-0.188653
N	 1.2938520674	-1.7510609119	-0.2447322313	-0.152507
C	 1.0700315897	-0.7105403711	 0.9151676254	-0.156105
C	 2.4745261128	-0.192100059	 0.5931612889	 0.469441
O	 3.3813116854	 0.2516226467	 1.2368992191	-0.335767
H	 1.0404284056	 2.0606542532	 0.0142466823	 0.134349
H	-0.5629193842	 2.0112242594	-0.7368137433	 0.124546
H	-0.407351255	 1.9249060635	 1.0218704854	 0.128551
H	-0.8878005367	-0.3486989114	 0.0631644818	 0.097192
H	 0.5330435959	-0.8211306802	-2.1391741522	 0.108201
H	 3.0771293869	-1.0292108703	-1.5076816084	 0.123745
H	 0.7992186323	-1.0435971153	 1.9139086761	 0.10636
135.3151	203.2036	223.9934	318.3171	436.2567	553.2572	618.3931	669.9938	730.8583	754.1104	815.9228	831.8819	889.29	907.2914	945.3254	1021.2383	1025.5734	1054.8453	1093.6284	1101.8341	1138.1523	1145.6626	1173.6373	1193.064	1272.7107	1306.9874	1352.9638	1385.1543	1417.7178	1495.442	1496.8354	1892.4229	3036.8196	3053.9864	3103.9559	3113.2313	3162.416	3167.4697	3213.6136
CC1C2C3N2C1C3=O	C[C@H]1[C@H]2[C@@H]3N2[C@H]1C3=O	
InChI=1S/C6H7NO/c1-2-3-5-6(8)4(2)7(3)5/h2-5H,1H3	InChI=1S/C6H7NO/c1-2-3-5-6(8)4(2)7(3)5/h2-5H,1H3/t2-,3-,4+,5-,7?/m0/s1
