13
gdb 11201	4.90416	1.51645	1.15933	5.2676	69.6	-0.2077	-0.0399	0.1678	954.3623	0.096207	-398.643887	-398.636929	-398.635985	-398.675032	25.802	
N	 0.0114339077	 1.0932962996	 0.1499177052	-0.592173
H	 0.1341712998	 0.1525364841	-0.1907089603	 0.26814
H	 0.7345009529	 1.7303912551	-0.151842039	 0.272744
C	-1.2618482426	 1.5897009154	 0.0634133211	 0.401313
O	-1.3709471764	 2.9251899725	 0.0650172351	-0.185661
C	-2.7233383724	 3.2248818084	 0.0401709717	 0.242317
C	-3.1444468724	 4.6010600498	 0.0302240802	 0.054953
O	-2.4197567602	 5.5762131769	 0.0402560678	-0.305366
C	-3.433294356	 2.0505009083	 0.0225575143	-0.201808
C	-2.501211236	 0.9852977379	 0.0360981275	-0.256784
H	-4.254003699	 4.6936332159	 0.0104655864	 0.064999
H	-4.5100489224	 1.9724116441	 0.0000145908	 0.126526
H	-2.6994807428	-0.0740215978	 0.0318162893	 0.110801
136.1148	165.3345	228.1157	291.2173	369.8144	403.5749	510.2666	545.4955	630.0996	682.3133	713.6844	757.3013	782.1887	867.5103	964.5306	1010.9397	1014.7682	1049.2606	1090.4379	1235.8421	1298.1009	1330.9678	1402.3077	1469.7904	1570.3818	1618.0689	1659.4153	1772.4758	2872.5288	3250.6404	3269.0647	3578.731	3688.5762
[NH2+]=C1O[C-](C=O)C=C1	Nc1oc(C=O)cc1	
InChI=1S/C5H4NO2/c6-5-2-1-4(3-7)8-5/h1-3,6H/q-1/p+1	InChI=1S/C5H5NO2/c6-5-2-1-4(3-7)8-5/h1-3H,6H2
