20
gdb 126301	4.75276	0.83706	0.76941	2.9068	83.18	-0.2463	0.	0.2463	1575.4046	0.17052	-403.167773	-403.158306	-403.157361	-403.203207	33.938	
C	-0.0912754693	 1.4392437312	 0.1845144809	-0.374462
C	 0.05943762	-0.0798475291	-0.0084150227	-0.29493
C	 0.8413758489	-0.4388635092	-1.2272384606	 0.454833
C	 2.0353193477	-1.0567505386	-1.4313100638	-0.434497
C	 2.1938827187	-1.0565919633	-2.8493925236	 0.397677
C	 3.318696458	-1.6161257587	-3.6673891001	-0.291219
C	 3.4321532236	-3.1455065513	-3.5632238235	-0.375327
N	 1.1724057379	-0.4826743313	-3.4408407765	-0.210928
O	 0.3104245739	-0.0894916364	-2.4143299968	-0.219735
H	 0.8856562823	 1.9171662533	 0.3031361494	 0.125148
H	-0.5858389994	 1.8914084533	-0.6788534844	 0.141735
H	-0.6884563999	 1.6540995894	 1.0751828016	 0.117832
H	 0.5559634694	-0.526315871	 0.8583245071	 0.117659
H	-0.9346444486	-0.5384990339	-0.0766531413	 0.128244
H	 2.7058962205	-1.452135717	-0.6860654282	 0.110713
H	 3.1606070153	-1.3198711071	-4.7083833125	 0.127338
H	 4.2603665406	-1.1570709257	-3.3422066993	 0.112383
H	 3.6039289925	-3.4642189257	-2.5302294858	 0.118561
H	 2.5156642398	-3.6284792193	-3.9145971143	 0.131029
H	 4.265391328	-3.5113022097	-4.1704569459	 0.117949
40.1357	60.3652	108.1178	175.7448	187.2041	221.4247	286.8317	362.0564	394.5731	441.4566	582.9759	692.7573	700.8862	739.3844	787.1324	795.3113	816.6339	936.4355	959.8376	968.2786	1014.9201	1032.5508	1072.3722	1075.0869	1091.7557	1098.2661	1159.9151	1257.6124	1279.8675	1320.6576	1349.172	1354.5383	1408.2823	1409.3439	1456.0366	1478.0226	1479.8221	1496.9048	1497.6577	1503.594	1507.3306	1527.5676	1643.8901	3034.726	3036.1075	3039.8527	3045.7532	3086.1481	3088.3172	3112.3022	3117.3688	3117.9685	3129.1265	3269.3668
CCC1=CC(CC)=NO1	CCc1cc(CC)no1	
InChI=1S/C7H11NO/c1-3-6-5-7(4-2)9-8-6/h5H,3-4H2,1-2H3	InChI=1S/C7H11NO/c1-3-6-5-7(4-2)9-8-6/h5H,3-4H2,1-2H3
