17
gdb 62439	3.88924	1.21662	1.19923	0.9458	81.43	-0.2201	0.0111	0.2312	1091.1231	0.134956	-384.645573	-384.637449	-384.636505	-384.677751	32.066	
O	-0.1030453249	 1.3863243844	 0.0742520411	-0.448226
C	-0.0312530301	-0.0063333935	-0.0034824157	 0.191988
C	 1.066522585	-0.6021630493	 0.713899518	 0.265918
C	 2.0062882237	-1.0868103439	 1.2886000282	-0.415675
C	-1.352448569	-0.7356163333	-0.0203403693	-0.107246
C	-2.5961044368	 0.0973318634	-0.3418437083	-0.281757
C	-2.3776177829	 0.537422428	-1.7729317528	-0.062248
C	-1.2411694485	 0.0538291501	-2.2794866279	-0.086926
C	-0.4944402341	-0.7531792591	-1.278338655	-0.159621
H	 0.6707894824	 1.7512937376	-0.3690808018	 0.28747
H	 2.8277913499	-1.512307088	 1.8097149546	 0.192068
H	-1.44566391	-1.6067311777	 0.6158577757	 0.101772
H	-3.5091763199	-0.5014106091	-0.2315746605	 0.106386
H	-2.6950578361	 0.9561377532	 0.3325154956	 0.129518
H	-3.0653617385	 1.1979082451	-2.28841493	 0.096151
H	-0.8654443786	 0.2371452901	-3.2792149235	 0.092841
H	 0.0922224786	-1.6147792679	-1.5753865582	 0.097588
127.76	143.619	217.427	233.981	270.0206	362.7411	428.1072	466.943	539.2564	572.1752	612.3175	669.9045	673.8577	712.9581	763.8845	793.5277	843.1573	870.7918	933.2336	954.5765	975.649	1001.9812	1011.3786	1041.7731	1090.2632	1131.4015	1144.4978	1188.0963	1248.8761	1287.29	1305.372	1326.7163	1369.5573	1405.3039	1465.8793	1667.0158	2227.111	3025.2347	3061.2944	3176.1572	3189.2046	3191.2417	3213.9298	3502.0563	3801.4197
OC1(C#C)C2CC=CC12	O[C@@]1(C#C)[C@H]2CC=C[C@@H]12	
InChI=1S/C8H8O/c1-2-8(9)6-4-3-5-7(6)8/h1,3-4,6-7,9H,5H2	InChI=1S/C8H8O/c1-2-8(9)6-4-3-5-7(6)8/h1,3-4,6-7,9H,5H2/t6-,7+,8-/m1/s1
