18
gdb 46553	4.12504	1.13806	1.06001	5.1055	71.86	-0.2564	0.0524	0.3088	1167.8616	0.149708	-439.130471	-439.122788	-439.121844	-439.162938	29.639	
O	 0.4417206842	 0.0705761792	-0.4142770773	-0.390814
C	 0.2120369491	 1.222446776	-0.1774798495	 0.469066
N	-0.9623869793	 1.7852439231	 0.2835075894	-0.426966
C	-0.9650314686	 3.2218473838	 0.1474383483	 0.335609
C	-1.765021285	 3.8900664659	-1.0152702772	-0.27519
C	-2.1558176885	 5.0282837076	-0.0347830386	-0.212798
C	-1.7617825632	 4.0998480505	 1.1472496456	-0.283382
C	 0.5596242066	 3.4580213791	 0.1309627819	-0.126152
O	 1.1305558988	 2.2268771351	-0.3231644057	-0.238484
H	-1.8033315362	 1.2400958064	 0.1778291825	 0.255259
H	-1.2138158829	 4.1458890174	-1.9237051433	 0.110657
H	-2.6299791259	 3.2795163447	-1.2924599981	 0.104105
H	-1.4915350696	 5.8923697323	-0.1179188801	 0.111378
H	-3.1872647519	 5.3818363992	-0.068258333	 0.109687
H	-2.6239018196	 3.5561084	 1.5441645193	 0.109608
H	-1.2078185287	 4.5299523105	 1.9862379137	 0.106049
H	 0.8681393691	 4.2577533632	-0.5457466312	 0.125475
H	 0.9348352516	 3.6725241061	 1.1392188833	 0.116894
86.8727	117.8174	174.4191	272.3908	347.8783	419.6161	436.6309	516.6808	550.623	681.2962	718.9164	769.5892	788.0345	822.5561	876.028	920.2956	929.4684	939.587	955.8714	993.1652	1037.0272	1078.1112	1131.1293	1148.7645	1200.6405	1207.1448	1224.6453	1246.12	1251.9915	1272.0758	1284.1468	1319.7747	1393.2145	1427.7394	1470.9702	1485.448	1505.6279	1517.25	1895.3818	3029.493	3051.4883	3057.0112	3070.2187	3103.7805	3104.6786	3109.4268	3129.5417	3643.8538
O=C1NC2(CCC2)CO1	O=C1NC2(CCC2)CO1	
InChI=1S/C6H9NO2/c8-5-7-6(4-9-5)2-1-3-6/h1-4H2,(H,7,8)	InChI=1S/C6H9NO2/c8-5-7-6(4-9-5)2-1-3-6/h1-4H2,(H,7,8)
