15
gdb 61748	3.70842	0.90111	0.77833	2.9549	70.03	-0.2697	-0.0645	0.2052	1388.6651	0.109864	-453.976951	-453.967265	-453.966321	-454.01299	32.105	
C	-0.1367841869	 1.3230083763	 0.1284543863	-0.361359
N	-0.0451777975	-0.1134220158	-0.0957935598	-0.117017
C	-0.0149091705	-0.969750006	 1.0780543096	-0.268115
C	-1.386544724	-1.1084556677	 1.7331100491	 0.154252
O	-1.5478706955	-1.2486055313	 2.9140520169	-0.219054
C	 0.0464938752	-0.7035953946	-1.3211809925	 0.369014
O	 0.1370982021	-1.8989913187	-1.5175649664	-0.349744
C	 0.031065431	 0.2227893687	-2.4698880077	 0.213402
N	 0.0248924763	 0.8834758919	-3.4180479378	-0.323931
H	 0.7306586468	 1.6747323742	 0.6983452428	 0.14898
H	-0.1697234496	 1.8521566818	-0.8235233111	 0.182323
H	-1.04326371	 1.5666272885	 0.6933791399	 0.14964
H	 0.3000600034	-1.9669728847	 0.7518095799	 0.183743
H	 0.7006620494	-0.5934311861	 1.8157265768	 0.141346
H	-2.2369373302	-1.0899336465	 1.013957494	 0.096522
44.7385	64.1016	83.5059	138.9096	164.8388	182.6452	299.774	309.198	375.6082	407.3009	449.4255	536.8636	637.2901	738.3982	750.9335	754.311	997.625	1038.7598	1066.3449	1144.0359	1155.9508	1211.5649	1298.6824	1338.8373	1410.2653	1432.0071	1440.5003	1476.097	1483.3603	1526.0573	1758.6946	1845.1156	2348.194	2881.4413	3030.6023	3050.5627	3086.1709	3107.7956	3158.2871
CN(CC=O)C(=O)C#N	CN(CC=O)C(=O)C#N	
InChI=1S/C5H6N2O2/c1-7(2-3-8)5(9)4-6/h3H,2H2,1H3	InChI=1S/C5H6N2O2/c1-7(2-3-8)5(9)4-6/h3H,2H2,1H3
