15
gdb 50143	3.95518	1.14425	0.94968	5.2834	71.93	-0.2538	-0.0369	0.2168	1194.4062	0.11207	-453.928905	-453.920751	-453.919807	-453.962202	28.997	
N	 0.0464571708	 1.2991367164	-0.0112530879	-0.408433
C	-0.0213978578	 0.0328661431	-0.0031405459	 0.073272
N	-1.2266494369	-0.6482124022	 0.0111361645	-0.124103
C	-1.4780564403	-2.1018753205	 0.0002802386	-0.265393
C	-2.9756460027	-1.7534862033	-0.0554258611	 0.279796
C	-4.1064728467	-2.3912778055	-0.7292531335	-0.249343
O	-3.9874507077	-2.3656125305	 0.7001737883	-0.247121
C	-2.5884811303	-0.2728822108	 0.0132480754	 0.388563
O	-3.1539600072	 0.7761914736	 0.0435202586	-0.32592
H	 1.0205657258	 1.5968592248	-0.0195615024	 0.233833
H	 0.8295266506	-0.6604731525	-0.0054132298	 0.101426
H	-1.0716657287	-2.6180530769	-0.8744387871	 0.12937
H	-1.1755819189	-2.61171493	 0.9196862346	 0.138676
H	-4.8971051167	-1.7674014888	-1.1408530549	 0.146125
H	-3.9707414932	-3.3672111368	-1.1919568075	 0.129252
65.1636	143.1191	169.1623	179.9623	238.0112	252.356	363.0916	428.0461	545.2686	614.0189	724.9723	780.8437	816.4405	850.6451	875.962	930.4982	976.8271	1063.2535	1079.6498	1085.7044	1126.9022	1149.1006	1151.1809	1168.7418	1243.6779	1256.3975	1393.8621	1421.4232	1453.2321	1513.6571	1534.7331	1716.6588	1907.9501	3034.678	3048.9241	3093.0382	3102.6818	3189.3893	3503.8701
N=CN1CC2(CO2)C1=O	[NH][CH]N1C[C@]2(CO2)C1=O	
InChI=1S/C5H6N2O2/c6-3-7-1-5(2-9-5)4(7)8/h3,6H,1-2H2	InChI=1S/C5H6N2O2/c6-3-7-1-5(2-9-5)4(7)8/h3,6H,1-2H2/t5-/m0/s1
