16
gdb 22887	2.19216	1.59178	1.06742	1.1635	70.1	-0.2524	-0.0174	0.235	1113.2976	0.123036	-474.969798	-474.960981	-474.960036	-475.003467	32.701	
O	-0.1152726011	 1.3045429002	 0.0027767609	-0.374882
N	-0.0050428669	-0.0852308016	-0.0159031366	-0.193773
C	-1.1397969789	-0.6599390023	-0.0113698763	 0.288954
C	-2.5316310185	-0.0287495647	 0.0201293387	 0.002699
O	-2.8424678788	 0.8156327384	-1.0825869295	-0.413946
C	-3.4181928617	-1.2491817499	 0.0973098826	-0.114721
C	-2.7325537526	-2.393265952	 0.0757478533	-0.108344
C	-1.2366033433	-2.1858091884	 0.0030428791	 0.014679
O	-0.6199702467	-2.8538540665	-1.0893556306	-0.415814
H	 0.8070935232	 1.5837462769	 0.0134543416	 0.310252
H	-2.6285382647	 0.6233334595	 0.8955714401	 0.118405
H	-2.804050559	 0.2772769771	-1.8808608708	 0.274174
H	-4.4975328678	-1.1529730083	 0.1382866948	 0.111512
H	-3.1559956008	-3.3910949808	 0.0978178457	 0.111978
H	-0.7271363209	-2.5906035399	 0.8847788037	 0.115615
H	-0.9925496715	-2.4942859876	-1.9020505567	 0.273213
51.7223	166.7084	180.349	197.5505	276.8838	297.5323	324.7744	345.1143	407.9808	467.9471	537.1732	578.7496	617.0276	681.8913	770.2092	793.4289	880.2062	959.8465	985.4023	992.4425	1021.4666	1043.6107	1083.201	1138.7751	1204.0064	1246.4456	1255.3636	1264.5509	1289.0439	1362.5064	1406.6592	1419.5367	1424.1525	1671.4221	1745.9479	3051.13	3053.4886	3188.2965	3212.2493	3800.2722	3802.7977	3808.7728
ON=C1C(O)C=CC1O	ON=C1[C@@H](O)C=C[C@H]1O	
InChI=1S/C5H7NO3/c7-3-1-2-4(8)5(3)6-9/h1-4,7-9H	InChI=1S/C5H7NO3/c7-3-1-2-4(8)5(3)6-9/h1-4,7-9H/t3-,4+
