18
gdb 10703	2.40286	2.09613	1.33827	2.1609	68.26	-0.2427	-0.0114	0.2312	963.5241	0.152159	-384.947342	-384.938645	-384.9377	-384.980491	32.164	
C	-1.8464497596	-0.3243560457	 0.3776828604	-0.503559
C	-0.4027147645	-0.7345934385	 0.1713662625	 0.328178
O	 0.3483556829	-0.9074896843	 1.109372894	-0.31998
C	 0.0786015825	-0.9460104186	-1.2446552005	 0.209624
C	-0.8203685817	-0.5678761644	-2.4035582001	-0.160455
O	-1.0997611482	 0.8253499223	-2.4654368019	-0.413319
C	 1.5830855819	-0.7827782412	-1.4437919494	-0.289746
C	 0.9968049681	-2.1521351974	-1.4210748165	-0.288556
H	-2.0805567752	 0.5570032068	-0.2255989956	 0.16264
H	-2.5159546355	-1.1270151773	 0.044745775	 0.137699
H	-2.0182509962	-0.1319638281	 1.4369045806	 0.136079
H	-0.3612415092	-0.9185967405	-3.3407358497	 0.089611
H	-1.7968893037	-1.0563941236	-2.3243712411	 0.115013
H	-0.2549906643	 1.2886092605	-2.4717664575	 0.284599
H	 1.9155151022	-0.3789398212	-2.3949519049	 0.110377
H	 2.1420005976	-0.4640835128	-0.5724326551	 0.143904
H	 1.1631849773	-2.7519248615	-0.5343153534	 0.140065
H	 0.9147172155	-2.7034019547	-2.3516335367	 0.117826
57.1306	140.0015	195.5246	206.7903	265.8202	276.1995	319.0331	364.4039	407.9713	457.4367	569.5101	619.6238	674.6248	798.6471	839.7078	896.0969	946.5132	951.8762	979.1996	1024.7869	1058.6263	1063.4031	1073.6525	1099.2174	1165.9573	1202.6217	1215.7967	1311.7841	1329.4697	1381.7724	1390.0682	1424.9606	1449.3947	1469.9234	1479.0479	1480.9562	1513.0297	1784.0979	2984.7004	3037.1979	3075.1921	3107.9182	3131.9383	3138.2115	3159.7049	3226.6745	3239.1597	3804.8224
CC(=O)C1(CO)CC1	CC(=O)C1(CO)CC1	
InChI=1S/C6H10O2/c1-5(8)6(4-7)2-3-6/h7H,2-4H2,1H3	InChI=1S/C6H10O2/c1-5(8)6(4-7)2-3-6/h7H,2-4H2,1H3
