18
gdb 88856	3.47612	1.22284	1.0586	3.0505	71.92	-0.2245	0.0039	0.2284	1149.0985	0.149255	-439.076552	-439.068672	-439.067728	-439.109617	29.892	
O	 0.0942490442	 1.4201014231	 0.3432703587	-0.432318
C	 0.0070784121	 0.0502393866	 0.1342158798	 0.141833
C	-0.5341349139	-0.8984236437	 1.1782126047	-0.340194
C	-1.3033934157	-0.6599515684	-0.1138298622	-0.087159
C	-2.6250518642	 0.0871036218	-0.1090210546	-0.00136
C	-3.8454249562	-0.7766832676	 0.3167572902	-0.116591
O	-4.4936599225	 0.0061058545	 1.356811534	-0.217835
C	-3.6834916664	 1.0584218575	 1.5697191125	 0.125636
N	-2.6459640413	 1.2122684386	 0.8576477149	-0.289683
H	-0.7684325352	 1.719063881	 0.6761075324	 0.295909
H	 0.8596650333	-0.2930857272	-0.4445620686	 0.099838
H	-0.0548026174	-1.8591477508	 1.3346902482	 0.107278
H	-0.933690325	-0.4406146627	 2.0775508955	 0.116755
H	-1.2837903954	-1.4621375944	-0.8482892697	 0.087336
H	-2.78457696	 0.5118866336	-1.1082918217	 0.101811
H	-4.5729625085	-0.9447254076	-0.4793763653	 0.126645
H	-3.5482593849	-1.7344686903	 0.7531856084	 0.127222
H	-4.0025012728	 1.7225992461	 2.3655462828	 0.154876
69.1427	80.8688	186.9756	233.5297	292.0216	395.628	466.9303	522.2957	580.2428	659.8083	707.0095	762.2103	800.5558	839.4131	886.6637	926.2153	956.348	969.6084	976.6726	1001.8722	1036.9487	1064.7954	1084.0701	1129.2794	1142.5208	1150.9957	1158.9003	1222.429	1238.9635	1305.347	1319.2667	1351.9393	1370.8872	1380.0973	1387.2617	1460.8347	1499.0655	1513.1191	1707.5556	3019.0311	3061.7059	3121.1804	3124.4757	3127.5171	3153.0617	3215.0327	3215.3257	3639.6033
OC1CC1C1COC=N1	O[C@H]1C[C@H]1[C@H]1COC=N1	
InChI=1S/C6H9NO2/c8-6-1-4(6)5-2-9-3-7-5/h3-6,8H,1-2H2	InChI=1S/C6H9NO2/c8-6-1-4(6)5-2-9-3-7-5/h3-6,8H,1-2H2/t4-,5+,6-/m0/s1
