19
gdb 97160	3.464	1.2815	1.11093	2.4931	78.36	-0.2321	0.0233	0.2554	1154.1891	0.160418	-419.185448	-419.177098	-419.176154	-419.218929	31.15	
C	-0.0847483736	 1.429999439	 0.146945624	-0.322209
N	 0.1084752662	-0.0124376177	 0.1116686184	-0.302744
C	 0.4463725454	-0.559761473	-0.9744555902	 0.383732
C	 0.6948994421	-2.0529256597	-1.0592793237	-0.25185
N	 0.2607002208	-2.7055803156	-2.2994546462	-0.097952
C	-0.9224250989	-2.1515205571	-2.9711448959	-0.255143
C	 0.4439743879	-1.8800586251	-3.4907632801	-0.014695
C	 1.0815566342	-0.5235619212	-3.289061646	-0.112486
O	 0.5798489998	 0.1546336765	-2.1372431191	-0.252906
H	 0.6344708126	 1.98040249	-0.4717195778	 0.117306
H	-1.0897728834	 1.6923374614	-0.2089033854	 0.121686
H	-0.0024852895	 1.7729127772	 1.1817107732	 0.118282
H	 1.7707955952	-2.2466188859	-0.9571467868	 0.126564
H	 0.2018789118	-2.5171577029	-0.2036346793	 0.143991
H	-1.551738435	-2.8868394811	-3.4632448776	 0.121059
H	-1.4593105313	-1.3335730765	-2.498389302	 0.135544
H	 0.8018856328	-2.4084596288	-4.3734531464	 0.097832
H	 2.1726860188	-0.6355119141	-3.2071555274	 0.115882
H	 0.879734534	 0.1403634446	-4.1347372517	 0.128104
55.2605	85.1327	193.6907	225.235	252.6688	327.9713	359.4994	427.288	507.4222	576.1215	634.4048	738.3162	748.3024	796.8258	823.3545	928.5131	963.493	995.3995	1030.7038	1060.7443	1069.6777	1107.1026	1112.7917	1123.0923	1146.1978	1162.8838	1177.4548	1222.6152	1268.8631	1290.0159	1301.301	1347.2015	1397.0905	1423.6884	1437.878	1475.007	1486.5407	1498.9488	1509.5898	1513.4645	1773.5234	3000.6783	3009.8538	3027.3095	3063.6295	3083.2926	3101.5296	3114.1549	3116.9151	3121.1195	3201.7784
CN=C1CN2CC2CO1	CN=C1CN2C[C@H]2CO1	
InChI=1S/C6H10N2O/c1-7-6-3-8-2-5(8)4-9-6/h5H,2-4H2,1H3	InChI=1S/C6H10N2O/c1-7-6-3-8-2-5(8)4-9-6/h5H,2-4H2,1H3/t5-,8?/m0/s1
