14
gdb 24376	3.85247	1.66867	1.17288	1.5375	69.94	-0.2001	-0.0152	0.185	955.3064	0.105431	-432.913706	-432.907236	-432.906292	-432.945018	24.586	
C	-0.0177185788	 1.4827412144	 0.1232679046	-0.178711
O	 1.2603639863	 2.0109669323	-0.349565128	-0.238761
C	 2.2575434039	 1.2162125765	-0.7770289468	 0.133751
N	 2.2978536096	-0.0602973801	-0.854241112	-0.37092
C	 1.1175082116	-0.6373783385	-0.421302895	 0.325346
C	 0.0004164437	-0.006369793	 0.0448953283	 0.203793
N	-0.9756989933	-0.9046856749	 0.3828185989	-0.328918
C	-0.4455738057	-2.0839391594	 0.1194072159	-0.007213
N	 0.827314406	-1.9796330837	-0.3724855664	-0.345067
H	-0.153274523	 1.8588827811	 1.1451116796	 0.132122
H	-0.7955904964	 1.9377942557	-0.5027424074	 0.132097
H	 3.1088903155	 1.818713958	-1.0802650404	 0.135326
H	-0.9293846677	-3.0378382002	 0.2625230308	 0.133635
H	 1.4427735181	-2.7269481083	-0.6485794022	 0.273522
66.0621	233.4202	243.2486	416.3477	484.3527	521.7798	562.7617	638.0344	675.6073	735.2626	762.2136	789.654	859.7629	927.9169	940.566	961.2468	1053.5717	1092.7595	1129.7144	1197.412	1214.5526	1280.469	1317.7592	1372.5946	1406.2154	1422.8888	1458.9109	1525.997	1527.3439	1637.3702	1657.2178	3012.8782	3039.8561	3189.4891	3260.1019	3663.3151
C1OC=NC2=C1N=CN2	C1OC=Nc2c1nc[nH]2	
InChI=1S/C5H5N3O/c1-4-5(7-2-6-4)8-3-9-1/h2-3H,1H2,(H,6,7)	InChI=1S/C5H5N3O/c1-4-5(7-2-6-4)8-3-9-1/h2-3H,1H2,(H,6,7)
