15
gdb 46699	3.02918	1.86732	1.41537	3.332	63.85	-0.2421	-0.0404	0.2016	892.3229	0.113413	-457.718833	-457.71222	-457.711276	-457.750022	25.905	
O	 0.0694480852	 0.1237905834	 0.6694871923	-0.301317
C	-0.0062594602	 1.2585659348	 0.2684176393	 0.373688
C	-1.3406859528	 1.9008091659	-0.1106214451	-0.174217
O	-1.2983541014	 3.3063878786	-0.2820530106	-0.25328
C	-0.2201828851	 3.8011124815	-1.0173705985	 0.085342
C	 1.0557647988	 4.1606788258	-0.3157606932	 0.075246
O	 1.2284613199	 3.3247257435	 0.8284631864	-0.291389
C	 1.207444361	 2.1359525746	-0.0097192285	 0.002861
C	 1.0205879608	 2.9788927548	-1.2768126304	-0.241072
H	-1.6882922324	 1.3928717804	-1.0258563517	 0.126376
H	-2.0749104975	 1.7006375317	 0.6733414498	 0.150203
H	-0.5191832386	 4.4605318762	-1.8288616686	 0.110236
H	 1.5561715485	 5.1213946316	-0.3266900981	 0.115626
H	 2.1361619671	 1.569065706	 0.0801322646	 0.106716
H	 1.4592954069	 2.7969027711	-2.2482709276	 0.11498
89.836	186.1217	292.5235	411.1496	432.967	469.4227	583.1598	613.5827	658.6086	736.7396	805.9429	832.9943	860.8275	918.3098	958.097	991.78	1009.5562	1017.6888	1047.7308	1054.5926	1094.3644	1105.7074	1192.5553	1235.625	1242.2001	1256.7139	1270.7142	1292.0535	1330.5293	1359.9708	1417.4026	1463.4219	1830.2454	2972.4423	3099.7072	3108.4001	3141.1624	3189.7144	3207.9709
O=C1COC2C3OC1C23	O=C1CO[C@H]2[C@H]3O[C@@H]1[C@@H]23	
InChI=1S/C6H6O3/c7-2-1-8-5-3-4(2)9-6(3)5/h3-6H,1H2	InChI=1S/C6H6O3/c7-2-1-8-5-3-4(2)9-6(3)5/h3-6H,1H2/t3-,4-,5+,6-/m0/s1
