14
gdb 25402	2.79893	1.53632	0.99188	4.5829	76.66	-0.2308	-0.0863	0.1444	1097.7286	0.101788	-436.729535	-436.722154	-436.72121	-436.761769	27.358	
N	 0.1947884754	 1.4338207358	-0.0990412029	-0.529702
C	 0.0922557718	 0.1767695947	-0.2121071567	 0.337696
O	 1.198289627	-0.5774901611	-0.6518313636	-0.230697
C	 1.1378456643	-1.9112171635	-0.7872124716	 0.089481
C	 0.0342877212	-2.6391369892	-0.5201119391	-0.19301
C	-1.1256617085	-1.9407893359	-0.0696875864	-0.117493
C	-1.1125274583	-0.5891856209	 0.0828318168	 0.052341
C	-2.329020472	 0.1199869006	 0.5525258555	 0.10081
O	-3.3646988749	-0.4513796461	 0.816095203	-0.279247
H	 1.1254275893	 1.7583287083	-0.3578406213	 0.229212
H	 2.0804877809	-2.3180198241	-1.1346181452	 0.14895
H	 0.0470280036	-3.7125869177	-0.64862554	 0.124939
H	-2.0454439341	-2.4686871025	 0.1620733697	 0.14677
H	-2.2214704457	 1.2149555517	 0.6451768818	 0.11995
90.7823	136.7289	216.1742	234.0344	370.3431	396.1566	492.792	525.4794	555.5516	618.3858	753.8223	796.2284	815.2414	837.2972	872.9616	949.1737	958.5322	987.2778	1049.5262	1060.0574	1113.4373	1160.1482	1247.6113	1292.0761	1365.0025	1423.8231	1454.0059	1578.6213	1663.3281	1745.9526	1784.0352	2989.6646	3193.983	3208.512	3235.8877	3507.3498
N=C1OC=CC=C1C=O	[NH]C1=C(CC=CO1)C=O	
InChI=1S/C6H5NO2/c7-6-5(4-8)2-1-3-9-6/h1-4,7H	InChI=1S/C6H6NO2/c7-6-5(4-8)2-1-3-9-6/h1,3-4,7H,2H2
