21
gdb 72227	2.43806	1.95244	1.34011	1.4499	82.09	-0.2186	0.0913	0.3099	1036.9518	0.182904	-387.074655	-387.066436	-387.065491	-387.106726	32.977	
C	-0.0806013062	 1.5442400388	-0.0446638476	-0.507578
C	-0.0025635409	 0.0439449787	-0.0059098583	 0.272579
C	 0.8407193786	-0.7865852895	-0.9800523683	-0.279452
C	-0.1221025283	-1.9935640768	-0.7511690637	-0.073447
C	 0.4041130793	-2.8482965641	 0.3979120438	-0.086084
O	 0.543005197	-1.9227502129	 1.4806515614	-0.308428
C	-0.3189897681	-0.8220566209	 1.2112240848	 0.417044
C	-0.8921217166	-0.235365832	 2.4708526014	-0.4818
C	-1.109975789	-1.0314191329	-0.0387369398	-0.208572
H	 0.8710857189	 1.9930819636	 0.2654302427	 0.122429
H	-0.2955861186	 1.8978782279	-1.0601834878	 0.115471
H	-0.8593816109	 1.938959425	 0.6138920489	 0.117957
H	 0.7587889679	-0.392420766	-1.9972570971	 0.095239
H	 1.8981209626	-0.941359809	-0.7362675566	 0.093348
H	-0.454035406	-2.5457928329	-1.6295495435	 0.071289
H	-0.2990845442	-3.6529977661	 0.6650684825	 0.086126
H	 1.3854129128	-3.2913511406	 0.1956394362	 0.102402
H	-0.0997077337	 0.1746114857	 3.1057365462	 0.127412
H	-1.6037556697	 0.5643383895	 2.2529125646	 0.11886
H	-1.4121238761	-1.0116713634	 3.0403258523	 0.1251
H	-2.1862520386	-0.9614387819	-0.1409943422	 0.080106
164.9536	179.9821	199.9162	226.0851	278.9104	310.9648	349.1948	399.7428	475.7048	586.3627	611.5585	708.2147	713.3039	794.4385	854.2512	864.257	889.6264	930.4051	943.4456	956.33	967.9722	989.5569	1041.1116	1060.739	1105.864	1108.2443	1129.953	1169.1151	1186.6494	1197.0939	1214.974	1237.0348	1264.5526	1287.7603	1343.7089	1374.9294	1412.4184	1416.2344	1429.3135	1478.1612	1486.135	1490.8523	1494.4005	1511.3422	1514.1418	2978.2796	3020.3696	3031.7845	3040.8883	3065.0056	3074.2021	3088.2138	3102.6705	3105.0015	3120.9302	3126.9102	3181.3641
CC12CC3COC1(C)C23	C[C@@]12C[C@H]3CO[C@]1(C)[C@@H]23	
InChI=1S/C8H12O/c1-7-3-5-4-9-8(7,2)6(5)7/h5-6H,3-4H2,1-2H3	InChI=1S/C8H12O/c1-7-3-5-4-9-8(7,2)6(5)7/h5-6H,3-4H2,1-2H3/t5-,6+,7-,8+/m0/s1
