19
gdb 94113	3.97801	0.88065	0.83535	4.3314	73.03	-0.2695	0.0087	0.2783	1437.0253	0.158807	-460.203875	-460.194804	-460.193859	-460.238724	32.265	
C	-0.3788646596	 1.2613531675	-0.0711419926	-0.41971
C	 0.123666617	-0.1702838392	 0.0951033644	 0.008903
C	 0.9102237483	-0.70673827	-1.1145003506	-0.080007
O	 1.8945830801	-1.623432818	-0.5992499118	-0.256164
C	 1.8300658795	-1.6631137738	 0.7926221889	 0.206638
C	 1.1395209299	-0.380675344	 1.2339447816	-0.258421
O	 1.0076820076	-2.7642722912	 1.2359556741	-0.203872
C	 1.5437342309	-3.9971314738	 1.135414339	 0.171859
O	 0.9309634494	-4.9892777651	 1.3938078654	-0.276604
H	 0.4534237264	 1.954190443	-0.2399704002	 0.118109
H	-1.0630049707	 1.3462948178	-0.9218679025	 0.122907
H	-0.9188315523	 1.5951664914	 0.8202099121	 0.124627
H	-0.7271537999	-0.8353967845	 0.2777107685	 0.104321
H	 0.2781831874	-1.2323459341	-1.8366513693	 0.117896
H	 1.4396976186	 0.0988098179	-1.6401883152	 0.103336
H	 2.8444357722	-1.8106374632	 1.1777304578	 0.096206
H	 1.8728246708	 0.4332321268	 1.2540567608	 0.109724
H	 0.6865821003	-0.472762286	 2.2218593707	 0.125876
H	 2.5995109539	-3.9847324215	 0.805020809	 0.084375
52.2749	86.8516	106.6018	145.8737	231.5002	249.5981	285.0926	357.8691	432.5175	483.0496	598.6617	640.9275	788.8325	854.6103	889.4932	937.1181	947.3978	958.3556	979.2911	1008.9592	1046.0404	1085.0357	1104.7937	1146.2619	1166.6416	1185.897	1208.7871	1255.8502	1307.1119	1326.6288	1356.5695	1364.9488	1383.7711	1408.4571	1417.9723	1443.177	1481.8027	1496.8438	1500.9995	1526.375	1866.8553	2962.1489	3018.3486	3030.6715	3044.5623	3053.7959	3065.6654	3081.1861	3099.1944	3105.49	3131.6116
CC1COC(C1)OC=O	C[C@H]1CO[C@@H](C1)OC=O	
InChI=1S/C6H10O3/c1-5-2-6(8-3-5)9-4-7/h4-6H,2-3H2,1H3	InChI=1S/C6H10O3/c1-5-2-6(8-3-5)9-4-7/h4-6H,2-3H2,1H3/t5-,6-/m1/s1
