19
gdb 102822	1.77904	1.39388	0.8554	4.0195	73.08	-0.2742	0.0021	0.2762	1365.3327	0.156534	-460.162212	-460.152397	-460.151453	-460.198321	33.997	
C	-0.388121862	 1.35290111	-0.2452241092	-0.403879
C	-0.0793787825	-0.1261584948	-0.0082526046	-0.172669
C	 0.7224784391	-0.3918161798	 1.2682833476	 0.062811
O	-0.0539190669	 0.0330438605	 2.4003180614	-0.187342
C	 0.4713603784	 0.9474212507	 3.2386210741	 0.172421
O	-0.0959425081	 1.3280906973	 4.2172734468	-0.274556
C	 1.0788208712	-1.8611601113	 1.403110636	 0.074963
C	 0.9108246122	-2.6326500705	 2.6397051279	-0.180521
O	-0.0029766642	-2.7743426656	 1.5472076873	-0.228709
H	 0.5296985074	 1.946816432	-0.3254387679	 0.112254
H	-0.9495324485	 1.4854340637	-1.1742630899	 0.124143
H	-0.9895451444	 1.7662038998	 0.5690790192	 0.139947
H	-1.0033503285	-0.7099726298	 0.0545616406	 0.136341
H	 0.4935913186	-0.5321646892	-0.850913604	 0.103911
H	 1.6608812496	 0.1833643898	 1.2449318887	 0.084569
H	 1.4709597319	 1.3008438058	 2.9172289148	 0.079576
H	 1.8448834143	-2.1804569006	 0.6929470813	 0.099228
H	 1.5554004824	-3.4908831421	 2.8236573138	 0.117982
H	 0.49925112	-2.149826796	 3.5218202463	 0.139532
44.1509	63.9849	96.2599	144.4046	169.205	195.8495	259.6365	305.5618	316.987	405.5861	497.895	569.4851	690.7009	792.5808	810.5685	896.1354	904.6505	980.8835	981.3881	1028.1032	1045.6848	1064.3563	1093.0558	1138.9048	1144.6284	1169.6326	1175.3609	1200.2903	1280.1028	1297.6328	1315.788	1377.5774	1386.32	1412.6752	1432.515	1441.6053	1479.7591	1499.8606	1509.4647	1524.1522	1865.63	2942.5789	2991.5521	3036.1353	3038.3138	3083.8694	3087.699	3098.3397	3107.3927	3121.7072	3194.0538
CCC(OC=O)C1CO1	CC[C@@H](OC=O)[C@H]1CO1	
InChI=1S/C6H10O3/c1-2-5(9-4-7)6-3-8-6/h4-6H,2-3H2,1H3	InChI=1S/C6H10O3/c1-2-5(9-4-7)6-3-8-6/h4-6H,2-3H2,1H3/t5-,6-/m1/s1
