23
gdb 58637	2.50326	1.32063	1.02572	1.3279	84.75	-0.2533	0.0744	0.3277	1275.5082	0.204532	-388.261002	-388.251131	-388.250186	-388.29586	38.073	
C	 0.2120604106	 1.3662669004	 0.555485567	-0.425443
C	-0.1445530566	-0.1226274723	 0.5742685348	 0.076516
O	 0.1234222425	-0.6810673761	 1.8624105787	-0.429911
C	-1.5616066196	-0.4909201492	 0.118661212	 0.332744
C	-2.7240573485	 0.2186485513	 0.7806090573	-0.328295
C	-2.3995689576	 0.4932133104	-0.6658247294	-0.309627
C	-1.6812749972	-1.9490245803	-0.2459998612	-0.048348
C	-1.8665785753	-3.0247057638	 0.7928443018	-0.241776
C	-2.9678437708	-2.7361153551	-0.1957468106	-0.299823
H	 1.2111298877	 1.4891339419	 0.9812598823	 0.125635
H	 0.2202411896	 1.7707305198	-0.4607504227	 0.117819
H	-0.4810239398	 1.9655758099	 1.1570007995	 0.110473
H	 0.5594038293	-0.6424582064	-0.0878393762	 0.083426
H	-0.56452416	-0.3602468615	 2.4561575394	 0.274177
H	-3.6226051158	-0.3404429897	 1.0149969971	 0.115816
H	-2.5049100295	 1.0017904457	 1.4998973766	 0.104557
H	-1.9897871644	 1.4635131784	-0.9189922913	 0.110924
H	-3.0640070642	 0.0783492732	-1.4160409678	 0.113201
H	-1.0241826079	-2.2180499737	-1.0712990816	 0.082417
H	-1.3011172272	-3.9445900233	 0.6952002325	 0.110023
H	-2.0154619074	-2.7024776973	 1.8166159763	 0.107027
H	-3.8688121899	-2.2582555156	 0.1729126204	 0.109585
H	-3.1500256081	-3.449152527	-0.9925039046	 0.108882
41.1349	78.5734	180.8431	218.221	242.6802	259.472	290.1865	300.5295	340.2887	386.6769	470.6802	514.0959	532.8023	666.0997	766.83	788.451	817.1048	833.1252	899.4297	914.2028	930.6468	943.2202	953.7641	983.5202	1041.145	1052.6665	1057.9901	1073.9183	1084.727	1091.7413	1109.2428	1130.1066	1140.3839	1187.6585	1195.9455	1219.1364	1252.7132	1286.9716	1335.9303	1379.3754	1401.7454	1414.2347	1419.7041	1457.4008	1471.2121	1490.1375	1499.1327	1506.0294	1511.3946	3027.5918	3035.0804	3103.5353	3114.5933	3122.0283	3128.2391	3133.4228	3139.7548	3142.3667	3205.6394	3209.9227	3226.9084	3228.8277	3798.1364
CC(O)C1(CC1)C1CC1	C[C@@H](O)C1(CC1)C1CC1	
InChI=1S/C8H14O/c1-6(9)8(4-5-8)7-2-3-7/h6-7,9H,2-5H2,1H3	InChI=1S/C8H14O/c1-6(9)8(4-5-8)7-2-3-7/h6-7,9H,2-5H2,1H3/t6-/m1/s1
