21
gdb 106217	3.33505	1.39921	1.22356	0.3821	86.56	-0.2164	0.0206	0.237	1121.0434	0.183962	-349.932195	-349.924427	-349.923483	-349.964186	31.844	
C	 0.2571172833	 1.4557335418	 0.2319374889	-0.376452
C	-0.1111884358	 0.0134721131	-0.139766352	-0.291205
C	 0.6026017088	-0.4968436377	-1.373638398	 0.3568
C	 0.2958594759	 0.0596599313	-2.728510575	-0.155929
C	 0.675141054	-0.803899695	-3.6756713386	-0.092126
C	 1.3990892093	-1.9585407652	-3.0214122386	-0.115037
C	 2.7594081828	-1.3818816677	-2.4514195952	-0.233134
C	 2.0322969525	-1.0741504534	-1.1497042089	-0.102867
C	 0.8778662122	-1.9677325496	-1.5454797199	-0.126036
H	 1.3290588108	 1.5491016217	 0.43420221	 0.11746
H	 0.0131928702	 2.1511258791	-0.5780399775	 0.117276
H	-0.2854312259	 1.7835826699	 1.124156568	 0.109549
H	 0.1176271491	-0.6491081294	 0.7046166744	 0.093609
H	-1.1953701319	-0.0584312181	-0.2975987856	 0.097905
H	-0.1391547505	 1.0393384097	-2.8864218858	 0.090812
H	 0.6416703262	-0.6432361827	-4.7465444062	 0.09222
H	 1.4619762138	-2.8903255757	-3.5812527398	 0.066787
H	 3.4823186599	-2.1874192334	-2.2968177882	 0.100905
H	 3.2280123054	-0.5655703738	-3.0114884022	 0.088979
H	 2.4975845064	-0.9519766922	-0.1777863427	 0.080388
H	 0.3776467636	-2.7670789227	-1.0101637372	 0.080096
96.1324	156.3641	206.5518	314.2133	350.4635	365.2861	400.8424	560.0877	595.0502	691.5907	722.4917	743.7074	787.4637	815.8636	849.8379	855.5003	866.4481	891.385	928.3661	934.6977	973.2932	991.0594	1000.747	1012.5807	1065.3892	1082.6538	1088.1153	1106.7433	1117.2138	1180.055	1193.3418	1231.8151	1244.0509	1262.7277	1293.1894	1313.5016	1355.4451	1374.3766	1392.7493	1410.7887	1483.1267	1486.3427	1498.3635	1506.5654	1645.7461	3014.8768	3034.4403	3038.0202	3047.6707	3097.7332	3101.9793	3105.9466	3121.8756	3162.6747	3174.9761	3190.9348	3216.3944
CCC12C=CC3CC1C23	CC[C@@]12C=C[C@H]3C[C@@H]1[C@@H]23	
InChI=1S/C9H12/c1-2-9-4-3-6-5-7(9)8(6)9/h3-4,6-8H,2,5H2,1H3	InChI=1S/C9H12/c1-2-9-4-3-6-5-7(9)8(6)9/h3-4,6-8H,2,5H2,1H3/t6-,7+,8-,9+/m0/s1
