16
gdb 76362	2.06114	1.43567	1.22166	5.0115	75.71	-0.2744	-0.0268	0.2476	1120.2696	0.122449	-396.918375	-396.908983	-396.908039	-396.952388	33.238	
C	-0.1572128389	 1.5888481873	 0.1488882873	-0.435391
C	 0.0109179982	 0.0888947615	 0.0899487555	-0.019673
N	 1.2624747311	-0.5858038155	-0.1636725491	-0.116261
C	 2.5024365336	 0.153913962	-0.3888022271	-0.335767
C	 0.7176554981	-0.6842501669	 1.2049710036	 0.016105
C	 1.3146227335	 0.08422697	 2.275093314	 0.26546
N	 1.8160785225	 0.7104169893	 3.1077710138	-0.335783
C	 0.2385495956	-1.9933823509	 1.5972176216	 0.267228
N	-0.1722035522	-3.0301364368	 1.8988257806	-0.322837
H	 0.6289498783	 2.0876399304	 0.7173448879	 0.154353
H	-0.1662161401	 1.9976185453	-0.8667049546	 0.143197
H	-1.1165110815	 1.8314747226	 0.6147175428	 0.150093
H	-0.839027539	-0.4415657569	-0.3366718007	 0.132752
H	 2.6319645942	 1.044037074	 0.2378298179	 0.138203
H	 3.3413314516	-0.5224254255	-0.2083557089	 0.153732
H	 2.521917625	 0.4528456701	-1.4400623246	 0.144588
120.8762	133.1965	149.7096	169.6598	171.2083	178.34	253.0308	342.0715	366.5469	450.7323	499.6119	563.3614	597.9945	612.888	634.4295	771.2237	802.3756	967.2491	1032.9446	1064.8228	1126.0171	1133.9765	1157.1265	1184.9115	1244.963	1344.3701	1397.7889	1420.9854	1458.5305	1484.8744	1487.8988	1497.536	1507.793	2352.8274	2365.4084	3029.6843	3050.7686	3105.1049	3114.8426	3121.9146	3130.8441	3148.4641
CC1N(C)C1(C#N)C#N	C[C@H]1N(C)C1(C#N)C#N	
InChI=1S/C6H7N3/c1-5-6(3-7,4-8)9(5)2/h5H,1-2H3	InChI=1S/C6H7N3/c1-5-6(3-7,4-8)9(5)2/h5H,1-2H3/t5-,9?/m1/s1
