17
gdb 64620	2.86516	1.42116	1.33845	3.1335	77.55	-0.253	-0.0129	0.2401	1030.0025	0.137569	-380.868757	-380.860865	-380.859921	-380.900881	30.879	
N	-0.0371528225	 1.5148756636	-0.0104402854	-0.527724
C	-0.0150527227	 0.0430344712	-0.0067909804	 0.076831
C	 0.6279753592	-0.483180386	 1.27619062	-0.096287
C	-0.1859601703	-1.2962266912	 1.9475368412	-0.075936
C	-1.514246921	-1.4323314727	 1.2856786052	-0.077112
C	-2.3113780756	-0.1443482089	 1.1990816624	-0.292874
C	-1.4330453926	-0.5592778338	 0.0496838645	-0.056266
C	 0.7068032744	-0.4885876684	-1.1894631936	 0.234903
N	 1.2788750612	-0.8616716608	-2.1233347452	-0.345774
H	 0.9148222283	 1.871090008	-0.0390487262	 0.239429
H	-0.4905739676	 1.8466742081	-0.8580520447	 0.241294
H	 1.6203340721	-0.1676203492	 1.5745712915	 0.109901
H	 0.0535668296	-1.7725739226	 2.8914288731	 0.110731
H	-2.0341312323	-2.3831542922	 1.2851919302	 0.099246
H	-3.3816840164	-0.2260793702	 1.0415130751	 0.115852
H	-1.9947847281	 0.6931122763	 1.8091331249	 0.136947
H	-1.8912453356	-0.8615509612	-0.8832889226	 0.106839
116.188	146.1064	218.8273	239.6324	282.492	375.3938	441.1509	496.4304	525.1257	569.5072	649.0413	718.3483	770.9807	788.1822	817.9192	846.7726	891.0711	929.8634	959.6233	981.064	1004.2143	1035.3527	1063.5071	1080.3491	1102.7737	1113.2338	1127.4975	1173.1454	1202.28	1299.4771	1323.2067	1368.2272	1383.7722	1477.8509	1654.9977	1676.6917	2336.0286	3137.0145	3178.504	3193.461	3195.1379	3219.3303	3232.7766	3481.5087	3561.5955
NC1(C=CC2CC12)C#N	N[C@]1(C=C[C@H]2C[C@@H]12)C#N	
InChI=1S/C7H8N2/c8-4-7(9)2-1-5-3-6(5)7/h1-2,5-6H,3,9H2	InChI=1S/C7H8N2/c8-4-7(9)2-1-5-3-6(5)7/h1-2,5-6H,3,9H2/t5-,6+,7+/m0/s1
