17
gdb 54949	3.02786	1.07102	0.95397	2.3666	75.64	-0.2608	-0.0453	0.2155	1275.4892	0.13362	-418.016612	-418.00706	-418.006116	-418.051356	33.928	
C	 0.5505649448	 1.5101975596	 0.1372901035	-0.48932
C	-0.3515745901	 0.3001518663	 0.0050257591	 0.408314
O	-1.116202643	-0.0449501331	 0.8742553774	-0.294076
C	-0.2402115815	-0.4366485317	-1.3106309532	-0.179041
N	-0.6913556563	-1.8291957154	-1.3613396716	-0.327454
C	-1.4807797029	-0.8376602253	-2.0960360253	 0.162311
C	-2.891316232	-0.5833589291	-1.6053756283	-0.465197
C	-1.3111524757	-0.7895805897	-3.5356250766	 0.247119
N	-1.181999036	-0.7670896702	-4.6851084733	-0.332531
H	 1.6023687188	 1.203701109	 0.0910679417	 0.14804
H	 0.3865742758	 2.2038446132	-0.6956894571	 0.14796
H	 0.3570593376	 2.0141940979	 1.0842404127	 0.151013
H	 0.6155632865	-0.1570269701	-1.9208205996	 0.112219
H	-0.0984990136	-2.3692543396	-1.9872027391	 0.256853
H	-2.9102368329	-0.6373042448	-0.5174488037	 0.178867
H	-3.2432816357	 0.399583582	-1.9311477214	 0.13349
H	-3.5640136538	-1.342489579	-2.0143615153	 0.141432
58.1254	108.2494	138.2744	154.6703	191.6476	219.877	274.297	338.1343	349.6202	403.6338	539.211	585.2483	602.9673	615.1812	687.7095	787.2175	854.9701	907.8525	956.6211	992.5558	1049.6877	1065.0618	1088.3237	1106.8254	1189.1774	1193.6872	1271.7067	1331.5566	1381.6814	1413.3509	1441.2044	1463.5362	1473.5086	1490.3161	1493.7022	1814.7434	2346.5861	3032.9914	3053.1015	3091.8702	3120.0927	3138.251	3158.4357	3167.5256	3509.2589
CC(=O)C1NC1(C)C#N	CC(=O)[C@H]1N[C@]1(C)C#N	
InChI=1S/C6H8N2O/c1-4(9)5-6(2,3-7)8-5/h5,8H,1-2H3	InChI=1S/C6H8N2O/c1-4(9)5-6(2,3-7)8-5/h5,8H,1-2H3/t5-,6-/m1/s1
