16
gdb 132346	1.96623	1.78462	0.94642	3.7981	74.56	-0.2592	-0.0423	0.2169	1194.4278	0.123601	-442.117229	-442.108779	-442.107835	-442.151339	30.023	
C	-0.0801574541	 1.5085351845	 0.0521112805	-0.469249
C	-0.0300336765	 0.0088262418	-0.0144717574	 0.331454
C	 0.0460591473	-0.6855877174	-1.2207025488	-0.224333
C	 0.0877401524	-2.0781363828	-1.174346125	 0.331452
C	 0.1700651101	-2.9250978886	-2.4120716835	-0.469251
N	 0.0554314988	-2.7292454534	-0.0018341158	-0.361017
C	-0.0168408796	-1.9608043519	 1.0673529083	 0.324867
F	-0.0485633324	-2.604071431	 2.2214835645	-0.060098
N	-0.0621332932	-0.6459354948	 1.1560494529	-0.361016
H	-0.0496509144	 1.9604238566	-0.9414445568	 0.124305
H	-0.9934621673	 1.8303264057	 0.5622865317	 0.151537
H	 0.7616920328	 1.8854838088	 0.6412965732	 0.151538
H	 0.0720435786	-0.1585056083	-2.1664569897	 0.10243
H	 1.068326773	-3.5496022658	-2.3793112373	 0.151537
H	-0.6868264193	-3.6044488407	-2.4585479015	 0.151537
H	 0.1920442538	-2.3176276325	-3.3191448954	 0.124306
58.9297	59.9919	175.009	209.4258	221.9959	280.4212	324.9186	528.2535	561.3406	561.6729	574.6071	617.9588	668.9921	816.673	874.4933	968.0403	972.6567	1010.331	1037.2216	1057.0529	1061.5529	1095.7449	1198.9616	1275.8913	1375.1376	1405.0274	1407.9988	1443.3871	1472.0738	1472.8361	1473.3655	1487.6334	1491.0192	1597.4202	1631.0325	3046.1168	3046.2663	3107.7847	3107.9099	3135.7149	3135.8359	3205.759
CC1=CC(C)=NC(F)=N1	Cc1cc(C)nc(F)n1	
InChI=1S/C6H7FN2/c1-4-3-5(2)9-6(7)8-4/h3H,1-2H3	InChI=1S/C6H7FN2/c1-4-3-5(2)9-6(7)8-4/h3H,1-2H3
