15
gdb 80315	3.65252	1.23185	1.17037	4.9613	72.16	-0.2659	-0.061	0.2049	1077.466	0.113188	-416.809387	-416.801722	-416.800778	-416.841824	28.287	
C	-0.0604645342	 1.5632218895	 0.0183093191	-0.416383
C	 0.0814679403	 0.0596412686	 0.0554200097	-0.058549
C	 1.3591187545	-0.675038498	-0.2131068662	 0.030693
O	 2.5662258787	 0.0622460786	-0.0462458229	-0.232037
C	 2.5942396282	 0.3990692937	 1.2715256063	 0.286015
N	 1.6592197737	-0.009412013	 2.0370114297	-0.281657
C	 0.7412790343	-0.7214392481	 1.1890898972	-0.056849
C	 3.7118194995	 1.1930105607	 1.6873328713	 0.28544
N	 4.6148014829	 1.833915868	 2.0168224034	-0.313782
H	 0.7863361762	 2.0758182396	 0.4785749997	 0.139818
H	-0.1380886044	 1.9131017529	-1.0157608098	 0.131929
H	-0.9632730196	 1.8733717721	 0.552565202	 0.133855
H	-0.7751462467	-0.4807356142	-0.340618009	 0.110064
H	 1.464347735	-1.48262593	-0.9256385342	 0.124646
H	 0.2377981914	-1.5701762105	 1.6342503338	 0.1168
100.7364	121.1383	178.19	212.9679	253.8232	413.0378	507.8754	544.7106	562.0157	648.776	689.0995	736.7256	756.9739	825.2781	892.5628	938.511	985.6124	993.1562	1023.8059	1070.8651	1114.0681	1129.7215	1149.6315	1217.8377	1247.879	1327.6121	1354.2745	1414.741	1424.1368	1488.4391	1499.1992	1661.7486	2370.5521	3048.2381	3110.2553	3128.7169	3145.4565	3192.3274	3203.0394
CC1C2OC(=NC12)C#N	C[C@H]1[C@H]2OC(=N[C@@H]12)C#N	
InChI=1S/C6H6N2O/c1-3-5-6(3)9-4(2-7)8-5/h3,5-6H,1H3	InChI=1S/C6H6N2O/c1-3-5-6(3)9-4(2-7)8-5/h3,5-6H,1H3/t3-,5+,6-/m1/s1
