15
gdb 52070	2.57681	1.13151	0.94147	4.9317	68.74	-0.2763	0.0036	0.2799	1251.525	0.109066	-457.715725	-457.706674	-457.705729	-457.750647	31.67	
O	 0.1614412917	 0.3790930874	 0.7916691028	-0.267629
C	 0.3416128088	 1.5443172127	 0.6165449514	 0.18157
O	 0.7528426039	 2.039358002	-0.5757597189	-0.174065
C	 0.9817854927	 3.4455922716	-0.6505122637	-0.176331
C	 2.3916185146	 3.8015293286	-0.2177901264	 0.181221
C	 2.6111678399	 5.0648981952	 0.5181121313	-0.205743
O	 2.5671249497	 3.8243577023	 1.2131685906	-0.25381
C	 3.4644741056	 3.2138590607	-0.9806589391	 0.308936
C	 4.3388415835	 2.724917912	-1.643090196	-0.415531
H	 0.1886822744	 2.3304947309	 1.3782084398	 0.093123
H	 0.818425357	 3.7217882491	-1.6946494018	 0.139012
H	 0.2670794894	 3.9882462047	-0.0209245165	 0.120931
H	 3.5886615189	 5.5381779365	 0.4609198794	 0.136584
H	 1.7696456972	 5.7353120485	 0.6901445891	 0.122172
H	 5.1143684728	 2.2826345779	-2.2191242719	 0.209561
44.8634	72.2682	126.9465	156.6097	212.8956	265.16	318.8207	370.8416	428.9117	545.2057	559.4656	637.2293	674.0162	680.4418	728.9604	833.1532	909.0129	970.933	998.5556	1034.7914	1065.5765	1127.9929	1140.4551	1170.8637	1264.7508	1301.3035	1364.3625	1406.4642	1432.1883	1483.0638	1519.1819	1873.2377	2246.0398	2977.7677	3042.9037	3087.745	3116.7005	3184.9949	3499.7494
O=COCC1(CO1)C#C	O=COC[C@]1(CO1)C#C	
InChI=1S/C6H6O3/c1-2-6(4-9-6)3-8-5-7/h1,5H,3-4H2	InChI=1S/C6H6O3/c1-2-6(4-9-6)3-8-5-7/h1,5H,3-4H2/t6-/m0/s1
