19
gdb 69468	5.36794	0.84646	0.80347	4.0182	79.37	-0.2532	0.0189	0.2721	1462.8358	0.158865	-419.166365	-419.157425	-419.156481	-419.200955	32.671	
C	-0.0005031787	 1.4922621276	-0.0846898019	-0.483249
C	-0.0606892517	 0.0003606891	 0.0361242005	 0.343778
C	-1.3370556928	-0.8612486841	 0.0080731329	-0.33446
C	-0.6612304443	-1.81013048	 1.0528385533	 0.113081
O	-0.4202245715	-3.1549111427	 0.6520441798	-0.194986
C	-1.3771220055	-4.0629022894	 0.926070517	 0.127171
N	-1.290562769	-5.233737721	 0.4636792335	-0.439399
C	 0.5929724451	-0.9459124124	 1.0178520735	-0.117098
N	 1.0909589574	-0.8036061739	-0.3458512908	-0.351232
H	 1.008775743	 1.8506137966	 0.1325696319	 0.136807
H	-0.2586465822	 1.8105478601	-1.1015582647	 0.125703
H	-0.7025016493	 1.9734627441	 0.6045482411	 0.116517
H	-2.2241581031	-0.3661236934	 0.4118469257	 0.108459
H	-1.5841459604	-1.3109124972	-0.9587377563	 0.110409
H	-1.1709506901	-1.7928547722	 2.0227060608	 0.09076
H	-2.1755712506	-3.6740932713	 1.5742728603	 0.082975
H	-2.0753471026	-5.7941369456	 0.7895967709	 0.22924
H	 1.2741706352	-0.7677802391	 1.8420808136	 0.094442
H	 0.8626122911	-1.6087541653	-0.9263046514	 0.241082
40.6494	93.8219	99.6209	204.3856	211.293	301.422	313.0024	410.674	419.0822	509.9968	635.8409	662.4757	768.8841	800.8379	822.3455	873.5973	927.5617	964.437	973.7801	999.689	1022.9301	1046.5066	1065.0053	1092.734	1120.1768	1146.0242	1158.456	1202.9724	1223.332	1245.3444	1279.1437	1291.9261	1311.5672	1371.5393	1403.4925	1423.7419	1454.7505	1482.7534	1485.4287	1495.1977	1745.45	3013.1405	3030.8133	3043.2841	3051.2768	3090.1696	3107.7901	3123.1716	3179.3083	3475.3904	3517.3046
CC12CC(OC=N)C1N2	C[C@]12C[C@@H](O[CH][NH])[C@H]1N2	
InChI=1S/C6H10N2O/c1-6-2-4(9-3-7)5(6)8-6/h3-5,7-8H,2H2,1H3	InChI=1S/C6H10N2O/c1-6-2-4(9-3-7)5(6)8-6/h3-5,7-8H,2H2,1H3/t4-,5-,6+/m1/s1
