14
gdb 34083	3.69982	1.59411	1.39657	4.3172	69.06	-0.2718	-0.0352	0.2365	903.0483	0.102951	-395.692626	-395.686283	-395.685338	-395.723257	25.262	
N	 0.0214488814	-1.1450618056	-0.0550526683	-0.33395
C	 0.0013750404	 0.0080560942	 0.0128900196	 0.20156
C	 0.0264075723	 1.4540596754	 0.0566250934	 0.180712
C	-0.3988771492	 2.2615523447	-1.2318558104	-0.263656
C	 0.7771318415	 3.1956558245	-0.9529815509	-0.045229
C	 1.3919659187	 2.235939136	-0.0071893651	-0.084951
N	 0.942264241	 3.5248812307	 0.5205428091	-0.149107
C	-0.2152957081	 3.2135254939	 1.3052006836	 0.040097
N	-0.7322893125	 2.0588625182	 1.1700886595	-0.218726
H	-0.2026878328	 1.6830871153	-2.1363699251	 0.144072
H	-1.4209550022	 2.6460399247	-1.2294861502	 0.128974
H	 1.2285314413	 3.9018730795	-1.6367084967	 0.126746
H	 2.4025022932	 1.8795401507	 0.1507772356	 0.126515
H	-0.602498265	 3.9705147378	 1.9783119559	 0.146945
158.9447	164.2322	384.8522	395.547	497.3584	545.6652	555.0113	562.331	704.7585	717.9892	802.077	859.14	864.8009	906.1418	945.8956	971.6427	988.519	992.3283	1001.4503	1035.4273	1074.0877	1143.4081	1185.0476	1227.4601	1247.8422	1283.8899	1296.5489	1334.4729	1481.7717	1658.077	2367.0391	3075.4913	3142.1211	3193.4585	3209.9501	3215.4173
N#CC12CC3C1N3C=N2	N#C[C@]12C[C@@H]3[C@H]1N3[CH][N]2	
InChI=1S/C6H5N3/c7-2-6-1-4-5(6)9(4)3-8-6/h3-5H,1H2	InChI=1S/C6H5N3/c7-2-6-1-4-5(6)9(4)3-8-6/h3-5H,1H2/t4-,5-,6-,9?/m1/s1
