18
gdb 82256	3.03252	1.38059	1.05651	4.649	84.27	-0.2478	-0.0417	0.2062	1141.1982	0.149056	-364.83606	-364.828079	-364.827135	-364.868465	30.878	
C	-0.1790917636	 1.5637983746	 0.0318166891	-0.400957
C	 0.0198464055	 0.0431454003	-0.009463697	-0.106522
C	 0.813833639	-0.4787277603	-1.2120976024	-0.050152
C	 2.2574281144	-0.0850251777	-1.354851221	-0.280762
C	 1.9023842526	-1.4109263911	-0.6975574314	-0.078731
C	 1.7941919756	-1.3533622026	 0.7793828852	-0.168702
C	 0.8090926282	-0.5274078936	 1.1723181718	 0.177867
C	 0.4970404768	-0.1973097009	 2.5170861499	 0.213337
N	 0.206520927	 0.0946948188	 3.6008041373	-0.349008
H	 0.7790936511	 2.0909519245	 0.0043559328	 0.122057
H	-0.7731743306	 1.8940374558	-0.8254342009	 0.120627
H	-0.7038931125	 1.8637424177	 0.9437121665	 0.139045
H	-0.9751259452	-0.4235404395	-0.0100668884	 0.099607
H	 0.2658927297	-0.7214436559	-2.1146135085	 0.095474
H	 2.6800445885	-0.1303456321	-2.3528003193	 0.120685
H	 2.6686960882	 0.6951071762	-0.7234077976	 0.123211
H	 2.1773647557	-2.3362161182	-1.1897332945	 0.100286
H	 2.4524979795	-1.890931796	 1.4514637085	 0.122638
106.9102	140.5525	199.4423	228.0247	267.2304	366.9706	427.7126	481.2632	553.4191	571.9294	637.5445	680.6414	776.6154	802.3719	806.8167	891.3222	900.3003	941.9241	981.6069	1032.2342	1045.8691	1059.343	1076.3926	1099.0392	1110.5576	1126.8884	1179.2254	1208.1902	1280.8383	1310.4757	1337.1557	1353.6736	1374.0512	1413.4286	1475.5774	1496.8281	1498.6853	1655.5987	2329.7911	3005.996	3041.4009	3113.8579	3115.96	3131.4659	3177.4784	3184.2797	3210.2389	3221.1072
CC1C2CC2C=C1C#N	C[C@H]1[C@H]2C[C@H]2C=C1C#N	
InChI=1S/C8H9N/c1-5-7(4-9)2-6-3-8(5)6/h2,5-6,8H,3H2,1H3	InChI=1S/C8H9N/c1-5-7(4-9)2-6-3-8(5)6/h2,5-6,8H,3H2,1H3/t5-,6-,8-/m1/s1
