21
gdb 115792	3.9343	1.02971	0.9113	0.9389	78.32	-0.252	0.0784	0.3304	1340.2673	0.182291	-424.22761	-424.218483	-424.217539	-424.261307	34.687	
C	 0.0637959828	 1.4774879213	-0.1294188436	-0.484133
C	-0.0726570535	-0.009326181	 0.0496329214	 0.421802
C	-1.3512108204	-0.7305030612	-0.3523392448	-0.286154
C	-1.1808509953	-2.1620689713	 0.2049531097	-0.218996
C	-0.2411927756	-2.0262213396	 1.4319941884	 0.006388
C	 0.6022353905	-3.2649398405	 1.7001109842	-0.092007
O	-0.2812310283	-4.3435086985	 1.9769168632	-0.424129
C	 0.580004839	-0.7910454178	 1.1089769688	-0.042959
O	 1.1074410807	-0.7915221217	-0.2301269648	-0.305029
H	 1.0269391527	 1.826436967	 0.2512663453	 0.127788
H	 0.0000110973	 1.7465915777	-1.1896281782	 0.126303
H	-0.7364746454	 2.0075994633	 0.3980135929	 0.119934
H	-2.2028523102	-0.2181377961	 0.113032379	 0.098761
H	-1.5166141009	-0.7153776183	-1.4348398773	 0.102899
H	-2.1301045115	-2.6332636535	 0.4638870092	 0.10779
H	-0.6979006425	-2.794224017	-0.5443841869	 0.113222
H	-0.8300577711	-1.813409338	 2.3352667949	 0.078413
H	 1.2259276588	-3.4709020608	 0.8166560404	 0.100519
H	 1.2800142929	-3.0807858215	 2.5501422261	 0.080322
H	 0.2421504458	-5.1445787062	 2.0703226422	 0.286432
H	 1.223809484	-0.3365513864	 1.8601210901	 0.082834
82.6923	128.9969	178.9745	190.089	220.664	270.9743	303.4189	344.1168	402.6594	438.2099	510.2082	580.6967	679.7696	701.9165	830.0278	848.3066	856.0523	921.3905	957.0838	975.4989	1004.2203	1020.2837	1034.558	1072.5303	1084.2592	1102.9427	1145.5358	1188.2812	1219.5695	1236.7225	1250.3168	1260.9188	1298.4034	1325.5072	1328.9438	1338.8332	1370.4537	1412.5575	1453.5567	1460.4698	1479.3581	1489.4626	1493.5086	1502.6801	1524.2575	2961.403	2997.8378	3020.5011	3029.1294	3035.2633	3069.009	3080.8345	3095.4307	3121.4875	3124.9553	3129.057	3831.7687
CC12CCC(CO)C1O2	C[C@]12CC[C@@H](CO)[C@H]1O2	
InChI=1S/C7H12O2/c1-7-3-2-5(4-8)6(7)9-7/h5-6,8H,2-4H2,1H3	InChI=1S/C7H12O2/c1-7-3-2-5(4-8)6(7)9-7/h5-6,8H,2-4H2,1H3/t5-,6+,7-/m0/s1
