21
gdb 122686	5.18966	0.62945	0.58933	2.49	75.32	-0.2526	0.0786	0.3313	1871.2924	0.182317	-461.354579	-461.344772	-461.343827	-461.390952	34.258	
O	-0.0454878402	 1.4237284468	 0.0901719842	-0.420259
C	 0.0132218203	 0.0060357762	 0.1236166121	-0.075494
C	-1.4082302326	-0.5254812159	 0.0006652374	-0.165992
C	-1.4717781052	-2.0549364587	 0.0018656043	-0.21112
C	-2.8962752849	-2.5934619485	-0.0827176712	 0.115927
C	-2.9987636031	-4.1323321132	-0.0738604079	-0.131025
O	-4.1632244028	-4.3884253152	 0.6947257375	-0.23346
C	-4.1608303046	-3.3818959775	 1.6730634644	 0.027015
O	-3.6678591954	-2.2060159735	 1.0633663901	-0.27037
H	 0.8486818486	 1.764493449	 0.1837724933	 0.2849
H	 0.6316476007	-0.3865902005	-0.7013784432	 0.079883
H	 0.4640562431	-0.3528616621	 1.0638816007	 0.083369
H	-2.0082496454	-0.1337346073	 0.8281075545	 0.126825
H	-1.8476251183	-0.1305426408	-0.9237282407	 0.103879
H	-0.9005923707	-2.4565008369	-0.8474565825	 0.095303
H	-1.0040586	-2.451986167	 0.9126413014	 0.097836
H	-3.3945298394	-2.1820098796	-0.9717205217	 0.082312
H	-3.1341632303	-4.5699313607	-1.0648296558	 0.119696
H	-2.1087020229	-4.5797294808	 0.3978295782	 0.09214
H	-5.1869211391	-3.2193666126	 2.0178565104	 0.117649
H	-3.5165579779	-3.6654288012	 2.5260665145	 0.080988
43.4233	62.0219	86.6644	116.8783	146.9661	250.4718	263.2838	287.8726	305.7107	452.5381	502.0396	671.8411	741.2611	758.4176	835.6737	889.989	972.8949	975.6105	1000.1114	1029.9215	1050.6558	1068.9646	1098.0261	1108.0374	1121.2338	1158.3836	1184.1147	1207.8305	1220.1821	1232.5741	1267.4682	1292.7824	1304.356	1317.9873	1336.6178	1371.2457	1377.2972	1411.7489	1436.4292	1464.8252	1473.6332	1501.3136	1510.9587	1529.041	1547.2446	2927.6263	2952.373	2975.8687	2977.1577	3003.108	3007.6112	3036.4636	3049.7603	3075.2147	3094.4436	3110.7447	3831.0893
OCCCC1COCO1	OCCC[C@H]1COCO1	
InChI=1S/C6H12O3/c7-3-1-2-6-4-8-5-9-6/h6-7H,1-5H2	InChI=1S/C6H12O3/c7-3-1-2-6-4-8-5-9-6/h6-7H,1-5H2/t6-/m0/s1
