18
gdb 39696	3.77536	1.66767	1.54208	1.8287	77.73	-0.222	0.0762	0.2982	916.4961	0.149977	-364.733576	-364.727278	-364.726334	-364.763922	27.068	
C	-0.0889189371	 1.4843363822	 0.011167741	-0.326318
C	 1.2687804215	 0.8150379085	-0.0168389239	-0.321977
C	 0.016109672	-0.0165444875	 0.010416027	 0.430578
C	-0.3765205542	-0.9028659824	 1.1536374071	-0.185435
C	-1.6239483686	-1.7067971801	 0.7952300297	-0.12296
C	-0.2622527167	-2.3376045835	 0.7038165636	-0.020171
N	-0.2792235326	-2.3309658999	-0.8139494875	-0.168125
C	-1.6258710861	-1.6748558032	-0.7427338198	-0.04843
C	-0.4363660599	-0.8714882544	-1.1301986119	-0.159185
H	-0.400355717	 1.972838181	 0.9284465826	 0.11405
H	-0.4354647613	 1.9757156566	-0.8921026854	 0.114127
H	 1.8390194292	 0.8527480967	-0.939077267	 0.116247
H	 1.8759192001	 0.8526672106	 0.8816247017	 0.113485
H	-0.1866233408	-0.642908353	 2.1873929972	 0.090676
H	-2.4555143066	-1.8965911663	 1.458234286	 0.092202
H	 0.2127852073	-3.148687915	 1.2384486709	 0.09617
H	-2.4377718278	-1.9660759781	-1.3988052298	 0.092607
H	-0.2412378914	-0.603509292	-2.1627257315	 0.09246
158.0115	245.81	274.2124	477.5294	576.8003	589.2735	699.751	736.6427	756.3534	775.5797	782.5132	827.9317	847.3961	883.6209	920.8599	938.7162	946.4727	948.5001	963.8038	987.8165	995.9184	1011.2346	1035.2693	1043.0648	1058.1476	1059.6012	1078.8053	1082.8917	1160.7142	1187.4859	1227.6519	1234.4604	1271.2273	1300.0505	1314.8225	1364.2437	1431.3542	1467.3506	1510.381	3126.6695	3130.3528	3172.8373	3183.2638	3196.7713	3204.1473	3204.6587	3219.166	3222.3032
C1CC11C2C3C2N2C3C12	C1CC21[C@H]1[C@@H]3[C@H]1N1[C@@H]3[C@@H]21	
InChI=1S/C8H9N/c1-2-8(1)4-3-5(4)9-6(3)7(8)9/h3-7H,1-2H2	InChI=1S/C8H9N/c1-2-8(1)4-3-5(4)9-6(3)7(8)9/h3-7H,1-2H2/t3-,4+,5-,6+,7+,9?/m1/s1
