15
gdb 60833	2.59582	1.08531	0.92384	2.7767	68.64	-0.2778	-0.0687	0.2091	1262.4988	0.109694	-453.971922	-453.962296	-453.961352	-454.007535	32.019	
C	 0.023723528	 1.501872526	-0.0667870635	-0.364974
N	-0.0588889545	 0.0490109131	 0.0505286387	-0.045221
C	 0.0057022793	-0.5519758907	 1.2865365873	 0.169704
O	 0.05514683	 0.0342088424	 2.3394172457	-0.315636
C	-0.0804468971	-0.7488554013	-1.1547204328	-0.266622
C	-1.384057147	-0.507237002	-1.953356177	 0.163843
O	-1.4469300603	-0.4001546765	-3.1417926369	-0.202202
C	 1.1163847241	-0.5622228196	-1.9906882008	 0.318456
N	 2.0682196072	-0.3934249253	-2.6214207636	-0.305069
H	 0.9362370768	 1.7958422294	-0.5955816413	 0.160836
H	-0.8414985197	 1.9010277597	-0.6065982655	 0.14047
H	 0.0386071995	 1.9065244951	 0.9445674256	 0.181874
H	-0.005213717	-1.6571039716	 1.2054669942	 0.087178
H	-0.1224626751	-1.805658659	-0.8493913723	 0.163212
H	-2.2708010444	-0.4573266496	-1.2849070181	 0.114151
52.9966	71.2975	115.4714	142.178	149.1561	207.5391	296.1609	310.1265	343.4539	378.163	419.087	513.2338	665.2939	739.3653	811.6915	887.6162	1009.6878	1023.7685	1053.7689	1092.266	1161.5005	1247.9352	1266.817	1283.7102	1392.862	1415.4448	1442.6529	1445.717	1497.1058	1514.4989	1816.2495	1857.7094	2369.1325	2909.8956	2936.7171	3007.8818	3036.7255	3097.1907	3167.8921
CN(C=O)C(C=O)C#N	CN(C=O)[C@@H](C=O)C#N	
InChI=1S/C5H6N2O2/c1-7(4-9)5(2-6)3-8/h3-5H,1H3	InChI=1S/C5H6N2O2/c1-7(4-9)5(2-6)3-8/h3-5H,1H3/t5-/m1/s1
