21
gdb 108152	3.24276	1.40404	1.2045	1.0476	88.84	-0.2051	-0.0277	0.1775	1125.7408	0.18264	-349.859159	-349.851133	-349.850188	-349.891433	32.437	
C	 0.3370938937	 1.5179210812	 0.0911747873	-0.376133
C	-0.0961456302	 0.0623130976	-0.1282494768	-0.280387
C	 0.5223481549	-0.5769079261	-1.3560311614	 0.356957
C	 0.0823651276	-0.0946383952	-2.7585403044	-0.315063
C	 0.8732052179	-1.0614897048	-3.6279928921	-0.107898
C	 1.3359242784	-2.073800953	-2.8670349979	 0.045459
C	 2.7498002563	-1.8951337892	-2.295435833	-0.269264
C	 1.9372481609	-1.2715103552	-1.0989254958	-0.104025
C	 0.7026803246	-2.0492089213	-1.4643810295	-0.16291
H	 1.4227209115	 1.5893587123	 0.2128709608	 0.118636
H	 0.0568565418	 2.1503632918	-0.7574420497	 0.117693
H	-0.1325737709	 1.9378886244	 0.985980094	 0.110546
H	 0.1516399077	-0.5316114534	 0.7596952896	 0.096061
H	-1.1896485534	 0.0183977286	-0.22618575	 0.096312
H	-1.016224878	-0.115283732	-2.829731831	 0.102855
H	 0.3924572285	 0.9273207926	-3.0107147749	 0.107301
H	 1.4262097424	-0.6888594647	-4.4863410295	 0.092507
H	 3.260103691	-2.7980359143	-1.9388088199	 0.102725
H	 3.4418484195	-1.2735941105	-2.8711866279	 0.098584
H	 2.353519566	-1.1748849523	-0.0983606151	 0.086103
H	 0.1985196299	-2.8502850666	-0.9381249627	 0.083943
87.4126	156.4625	201.3771	269.4669	331.3498	349.9296	400.6018	456.2317	562.0609	613.3865	670.6955	751.4016	776.7609	807.3831	831.5024	839.726	871.3869	918.1211	929.489	965.7278	977.7409	997.9116	1017.4554	1051.2845	1057.79	1086.3281	1088.9415	1103.9055	1145.7606	1174.5571	1210.4513	1226.8572	1238.4947	1275.6705	1292.8299	1321.5776	1342.8677	1391.2537	1409.8406	1473.5394	1481.9703	1497.3466	1500.9419	1506.7773	1594.2966	2982.3575	3012.577	3021.6855	3034.8215	3042.811	3050.6251	3087.9187	3103.9251	3106.6975	3128.3012	3156.3316	3184.9877
CCC12CC=C3CC1C23	CC[C@@]12C[CH][C]3C[C@@H]1[C@@H]23	
InChI=1S/C9H12/c1-2-9-4-3-6-5-7(9)8(6)9/h3,7-8H,2,4-5H2,1H3	InChI=1S/C9H12/c1-2-9-4-3-6-5-7(9)8(6)9/h3,7-8H,2,4-5H2,1H3/t7-,8+,9-/m1/s1
