19
gdb 102359	1.60802	1.53747	1.23579	1.3612	78.49	-0.2463	-0.0419	0.2045	1197.7344	0.153883	-422.983603	-422.972821	-422.971877	-423.019442	37.979	
C	-0.1124235752	 1.4525796978	 0.1751125571	-0.400249
C	-0.1298919747	-0.0455021435	-0.1313240235	-0.216813
C	 0.7422540916	-0.432256417	-1.3400329494	 0.09921
O	 2.1154843782	-0.0516979071	-1.2196119969	-0.279549
C	 2.7976671953	-0.5704363315	-0.0879870837	-0.255059
C	 0.7012161312	-1.9603912389	-1.6059584572	 0.128639
O	-0.0327222509	-2.7360803452	-1.0587846559	-0.242043
C	 0.2521333915	 0.1815644193	-2.5766172642	 0.300141
C	-0.1838832453	 0.6128087776	-3.6102081858	-0.434596
H	 0.9007204157	 1.8065527054	 0.3859022748	 0.126726
H	-0.4941548345	 2.0297661108	-0.6719103921	 0.131912
H	-0.7376828898	 1.6717047769	 1.0452398481	 0.115667
H	 0.2043141621	-0.6262301049	 0.7342940585	 0.109874
H	-1.1467720684	-0.3883190982	-0.3420022666	 0.127059
H	 2.4739003222	-0.0959914817	 0.8469092739	 0.121378
H	 2.6782473874	-1.6580720076	 0.0153631902	 0.121584
H	 3.8554798181	-0.3495474598	-0.2456159981	 0.137514
H	 1.4471100684	-2.2713409404	-2.3691899859	 0.102947
H	-0.5626067429	 1.0162843979	-4.5172395533	 0.205658
67.0478	103.4427	120.607	140.0558	157.69	189.5528	202.9668	227.7173	294.6572	311.9091	403.6164	446.0212	484.5109	547.2867	631.4257	643.4891	668.1962	700.6241	778.1275	916.1438	962.6955	1021.4055	1035.7476	1088.9253	1125.3721	1142.7327	1177.6322	1192.6465	1237.9846	1305.6403	1360.963	1393.8437	1412.8935	1468.6146	1481.0252	1493.9673	1496.2753	1504.9768	1514.875	1837.0805	2232.5681	2905.0866	2998.9157	3045.716	3055.0488	3062.4803	3095.2472	3116.8736	3121.3718	3124.1894	3499.1247
CCC(OC)(C=O)C#C	CC[C@@](OC)(C=O)C#C	
InChI=1S/C7H10O2/c1-4-7(5-2,6-8)9-3/h1,6H,5H2,2-3H3	InChI=1S/C7H10O2/c1-4-7(5-2,6-8)9-3/h1,6H,5H2,2-3H3/t7-/m1/s1
