18
gdb 61290	4.05868	0.77891	0.76167	4.7996	74.91	-0.2498	0.0085	0.2583	1514.8841	0.145269	-439.068628	-439.058883	-439.057939	-439.103942	34.943	
C	 0.3430526947	 1.6523941199	-0.0850210648	-0.343398
N	 0.1928091856	 0.1980616924	 0.0098149534	-0.098644
H	-1.4106350894	-0.0130648759	 1.1221737059	 0.301989
C	 0.6273943865	-0.4903486084	-1.2145407583	-0.309826
C	-0.1892211463	-0.1426087273	-2.3736144881	 0.289503
C	-0.8504728998	 0.1369520854	-3.3366600114	-0.411269
C	 0.8199952363	-0.3345691514	 1.2178447952	-0.298105
C	-0.1106146895	-0.2078214653	 2.4354922761	 0.412085
O	-1.401184146	-0.0536483243	 2.102209593	-0.359769
O	 0.2751896171	-0.2779069252	 3.5691403253	-0.328882
H	 1.3990098236	 1.9552183449	-0.1860654705	 0.112975
H	-0.2111959597	 2.0210962903	-0.9502325384	 0.147316
H	-0.0653158013	 2.1202747818	 0.8144885691	 0.142628
H	 1.687994428	-0.2787533317	-1.4436625198	 0.124917
H	 0.5549494138	-1.569501918	-1.0373563711	 0.142984
H	-1.4378975574	 0.3786065912	-4.1881313894	 0.206792
H	 1.0102797544	-1.4055061473	 1.0857625499	 0.138351
H	 1.7817267796	 0.1355932789	 1.4668669241	 0.130353
49.7901	86.2541	102.7945	146.2321	216.5928	245.8136	319.8087	342.5523	384.9261	391.5295	427.5514	571.8643	593.1096	621.9441	665.1437	678.1227	831.9256	869.3154	877.1808	964.1679	991.0986	1012.4861	1055.639	1150.9322	1158.5628	1199.0004	1223.4027	1293.0024	1311.7997	1348.1268	1397.9881	1404.3478	1455.9787	1470.7517	1486.0565	1497.6637	1505.8317	1881.1434	2243.5521	2937.9181	2969.7491	3013.7741	3053.8073	3075.1588	3090.4594	3137.2391	3503.3539	3510.2864
C[NH+](CC#C)CC([O-])=O	CN(CC#C)CC(=O)O	
InChI=1S/C6H9NO2/c1-3-4-7(2)5-6(8)9/h1H,4-5H2,2H3,(H,8,9)	InChI=1S/C6H9NO2/c1-3-4-7(2)5-6(8)9/h1H,4-5H2,2H3,(H,8,9)
