21
gdb 48625	3.20713	1.33117	1.15795	2.8332	82.07	-0.242	-0.0188	0.2232	1134.3602	0.184615	-387.10516	-387.097153	-387.096209	-387.137808	31.583	
O	-0.1905247884	 0.0425492006	-0.2995181494	-0.257452
C	-0.0005598919	 1.161027997	 0.1105949949	 0.065802
C	 1.3117497631	 1.8847832129	 0.0637081061	 0.258044
C	 2.5603667575	 1.1492105991	-0.4954808608	-0.271996
C	 2.9921206864	 2.5286575698	-1.0736910521	-0.011168
C	 1.4844058481	 2.8949565151	-1.1255264171	-0.255992
C	 3.6822131376	 3.3851754322	 0.0009011041	-0.202293
C	 3.1120152909	 3.0738512565	 1.4056534343	-0.206638
C	 1.628891547	 2.6317901886	 1.3774044209	-0.266383
H	-0.8397169626	 1.7564574678	 0.545433998	 0.064875
H	 3.2228591542	 0.6421485063	 0.2101566466	 0.095321
H	 2.2646089936	 0.4461773514	-1.2764492856	 0.117044
H	 3.5421847769	 2.5408556375	-2.0173860357	 0.064079
H	 1.0017925741	 2.5291800349	-2.035580488	 0.108197
H	 1.1982068415	 3.9363616881	-0.9482021966	 0.092459
H	 4.7625874606	 3.2016929905	 0.0019817316	 0.09624
H	 3.5484332502	 4.4444020934	-0.2516726823	 0.096785
H	 3.6992726918	 2.2605765121	 1.8432221266	 0.110395
H	 3.2417598274	 3.9280985106	 2.0769340494	 0.09821
H	 0.95635778	 3.4941748468	 1.4650906332	 0.101664
H	 1.4274768221	 1.991165189	 2.2443621218	 0.102808
62.8852	172.4749	183.5309	241.3009	318.6013	377.5457	405.9364	431.8994	559.5062	565.9343	713.6388	772.0822	811.6742	843.0332	862.3376	875.8515	910.6326	928.9762	944.7124	956.0943	1019.9063	1039.776	1061.1901	1063.984	1113.5925	1119.3708	1180.0862	1206.3842	1218.6644	1239.8863	1247.1845	1252.6347	1284.6681	1303.3068	1334.6236	1360.449	1368.4349	1384.0173	1427.5755	1479.0166	1493.5427	1494.8346	1499.9324	1523.1652	1820.1811	2837.882	3020.8408	3024.0497	3042.2515	3045.5709	3058.128	3061.7618	3067.9635	3079.4112	3088.8954	3107.6137	3127.1519
O=CC12CC(C1)CCC2	O=C[C@@]12C[C@@H](C1)CCC2	
InChI=1S/C8H12O/c9-6-8-3-1-2-7(4-8)5-8/h6-7H,1-5H2	InChI=1S/C8H12O/c9-6-8-3-1-2-7(4-8)5-8/h6-7H,1-5H2/t7-,8-
