16
gdb 50990	2.68767	1.05507	0.85323	3.9131	69.4	-0.2626	-0.0389	0.2237	1320.6543	0.121412	-437.882507	-437.873278	-437.872334	-437.918268	31.777	
O	 2.7021732489	 1.1743159993	 1.6139101604	-0.238618
C	 1.9659199209	 1.192601468	 0.6617397215	 0.147198
C	 1.0661445925	 2.3644677886	 0.3136025562	-0.365322
C	 1.1767815532	 2.8181013163	-1.1346258161	 0.379807
C	 0.2010103628	 3.9162250852	-1.5580740099	-0.404022
C	-1.1964276356	 3.5449441244	-1.3357691696	 0.274523
N	-2.2940471419	 3.2413690152	-1.1417849895	-0.303277
C	 2.4391074004	 2.7003306945	-1.8781363632	-0.231256
O	 1.3564636789	 1.7881978169	-2.1059926523	-0.253146
H	 1.8830798163	 0.3283014003	-0.0287071705	 0.109869
H	 0.0296751301	 2.0447011809	 0.4959840197	 0.158354
H	 1.2851282142	 3.1915205737	 0.9960122844	 0.133875
H	 0.4110608864	 4.8367749824	-1.0007110038	 0.162025
H	 0.3449321543	 4.1330538887	-2.6209087574	 0.165145
H	 2.6533681596	 3.3822807063	-2.6992990796	 0.126174
H	 3.3146414991	 2.2767570393	-1.3885190999	 0.138671
36.9493	65.2916	67.5588	133.4424	211.8063	319.0981	340.6069	385.8319	390.9477	437.077	476.9195	592.3328	716.8769	804.7888	880.7279	891.589	922.8538	955.3994	972.0038	1057.4548	1090.8422	1131.3306	1166.6922	1177.3337	1231.2649	1253.7753	1316.276	1339.9792	1413.2422	1424.6518	1447.5868	1457.9395	1533.2097	1832.2079	2365.0613	2928.8027	3018.1585	3047.2391	3088.9811	3094.7284	3097.8903	3177.0892
O=CCC1(CC#N)CO1	O=CC[C@@]1(CC#N)CO1	
InChI=1S/C6H7NO2/c7-3-1-6(2-4-8)5-9-6/h4H,1-2,5H2	InChI=1S/C6H7NO2/c7-3-1-6(2-4-8)5-9-6/h4H,1-2,5H2/t6-/m0/s1
