23
gdb 63584	2.91346	1.22469	1.05477	1.5374	85.7	-0.2434	0.0828	0.3262	1265.6969	0.205744	-388.289622	-388.28024	-388.279296	-388.323921	36.027	
C	-0.0945165153	 1.5171253251	 0.0436832642	-0.452403
C	-0.0099028738	 0.0014515529	 0.0308596295	 0.291855
C	-1.232236832	-0.665090193	-0.5746968533	-0.455827
C	 1.3388435837	-0.6403516342	-0.2151130408	-0.387311
C	 0.7211969948	-0.6962705041	 1.162721348	 0.294669
C	 1.3312866991	 0.0611169077	 2.3465180843	-0.300744
C	 1.5708113633	-1.0695196144	 3.3535211239	-0.083376
O	 0.4832781031	-1.9606260584	 3.1589039359	-0.248255
C	 0.2488669789	-2.0354056697	 1.758907314	-0.144997
H	 0.8107553999	 1.977031113	 0.4484879857	 0.114598
H	-0.2373970545	 1.9032969911	-0.9723844652	 0.113689
H	-0.9423854036	 1.8624237347	 0.6477294646	 0.114731
H	-1.4074921315	-0.2925027384	-1.5906943406	 0.113932
H	-1.1214593708	-1.751236589	-0.6390631443	 0.116196
H	-2.1347591765	-0.4556062154	 0.0122670833	 0.115784
H	 1.3667501724	-1.5583147421	-0.7968844615	 0.102952
H	 2.2001983211	 0.004520952	-0.3655367684	 0.103203
H	 2.2483406063	 0.5980014996	 2.0905223725	 0.09978
H	 0.6193674154	 0.7832168307	 2.7617031215	 0.106854
H	 2.5320573037	-1.5725807269	 3.1532622977	 0.086194
H	 1.5600662591	-0.7485127302	 4.3983635277	 0.106008
H	-0.8187971379	-2.2292464802	 1.6184164531	 0.105393
H	 0.809057305	-2.8765791809	 1.3186773585	 0.087075
35.906	154.3348	176.4312	204.5255	228.2354	254.1917	294.8046	358.9375	401.3756	433.289	440.3543	526.4026	634.3904	702.6805	767.1857	870.577	893.1436	914.1506	931.3395	953.9042	970.8429	972.5486	985.0057	1036.9102	1055.1916	1067.3907	1096.9985	1129.8329	1151.9705	1177.5007	1197.7671	1228.5403	1240.4718	1268.744	1301.932	1314.137	1356.2908	1385.0666	1410.2708	1414.6663	1427.4836	1481.7938	1486.9513	1489.7121	1492.9778	1502.4204	1508.8469	1515.8621	1526.1762	2959.0479	2965.5685	3019.8988	3024.5562	3040.2489	3072.1367	3076.2157	3080.0151	3091.3467	3097.7841	3104.6004	3106.9562	3111.7903	3190.374
CC1(C)CC11CCOC1	CC1(C)C[C@]21CCOC2	
InChI=1S/C8H14O/c1-7(2)5-8(7)3-4-9-6-8/h3-6H2,1-2H3	InChI=1S/C8H14O/c1-7(2)5-8(7)3-4-9-6-8/h3-6H2,1-2H3/t8-/m1/s1
