19
gdb 69997	2.98412	1.71972	1.62301	2.7766	73.27	-0.2385	0.0861	0.3246	936.0913	0.161084	-423.008986	-423.00196	-423.001016	-423.039942	29.192	
C	-0.0462081629	 1.5247145739	 0.0119284263	-0.499626
C	 0.0756939725	 0.0292173838	 0.0236725442	 0.43478
O	-0.770287705	-0.693795899	 0.9251229255	-0.279542
C	 0.6520992533	-0.8168827065	 1.08351296	-0.043164
C	 1.2944480757	-2.0107488986	 0.3430088048	-0.099035
C	 0.1675747606	-2.8365972528	-0.3032496348	-0.066353
O	-0.3488684055	-1.9692016307	-1.3335298657	-0.260936
C	 0.4197481151	-0.7724624243	-1.2750524976	 0.012925
C	 1.8302389704	-1.281084639	-0.9217367672	-0.234362
H	 0.8159845201	 1.9830597803	-0.4848965335	 0.122433
H	-0.9475401874	 1.8361784907	-0.5274957213	 0.133996
H	-0.1073942269	 1.9141891774	 1.0316154497	 0.130811
H	 1.0557135301	-0.4455024003	 2.0217058965	 0.092888
H	 2.0091188775	-2.5910413126	 0.9262353232	 0.071355
H	 0.5549777408	-3.7557710632	-0.7609233171	 0.090572
H	-0.6334988186	-3.0859796321	 0.3964649247	 0.117227
H	 0.2855409497	-0.2215351918	-2.2064281421	 0.072981
H	 2.536003483	-0.4812928595	-0.6814601719	 0.10048
H	 2.2581489175	-1.9404956856	-1.6824073737	 0.102569
185.9014	201.0091	267.4607	313.9914	372.546	468.8918	473.0928	554.5127	590.4783	691.5639	766.4332	819.4074	853.698	868.2023	890.0577	902.7739	931.2245	946.4582	957.9528	992.3581	1010.3218	1039.5091	1066.408	1088.3084	1107.2965	1140.6548	1171.7254	1207.4572	1223.9407	1257.5326	1274.3511	1298.3678	1301.7063	1322.1174	1386.4879	1408.772	1447.748	1483.2914	1489.2118	1494.3839	1518.1634	3020.727	3032.3144	3056.6583	3094.4154	3098.1161	3113.4855	3116.7015	3118.6768	3121.2187	3149.4633
CC12OC1C1COC2C1	C[C@]12O[C@H]1[C@H]1CO[C@@H]2C1	
InChI=1S/C7H10O2/c1-7-5-2-4(3-8-5)6(7)9-7/h4-6H,2-3H2,1H3	InChI=1S/C7H10O2/c1-7-5-2-4(3-8-5)6(7)9-7/h4-6H,2-3H2,1H3/t4-,5-,6+,7-/m1/s1
