19
gdb 87171	2.884	1.18054	1.11637	2.8339	71.01	-0.229	0.0452	0.2743	1185.6845	0.157833	-460.11332	-460.104282	-460.103338	-460.147427	33.789	
O	-0.6394742354	 1.4799939557	-0.2995754096	-0.440465
C	-0.4248804418	 0.1111484894	-0.4533187052	 0.089705
C	 0.1445101592	-0.7228370537	 0.6775678057	-0.375645
C	-1.3103699493	-0.8456333495	 0.3061624077	 0.317943
O	-2.1919675686	-0.2364043986	 1.2246798803	-0.474043
C	-1.8486786208	-2.1166003622	-0.2994926901	 0.076478
C	-2.9520106173	-1.991739207	-1.3821923924	-0.308882
C	-1.934771846	-2.7112086717	-2.2890775856	-0.059804
O	-0.9297579999	-2.7002109587	-1.2497269415	-0.29007
H	-1.1821169611	 1.5782798996	 0.4944199293	 0.280259
H	-0.124405273	-0.1383227009	-1.4647429381	 0.112551
H	 0.7988515352	-1.5487755253	 0.4230861447	 0.133396
H	 0.3612706856	-0.2156597412	 1.6119410803	 0.120363
H	-3.000352541	-0.0108364468	 0.7469906058	 0.289461
H	-2.0939188198	-2.8246408435	 0.5049388769	 0.083087
H	-3.8818744522	-2.5261517856	-1.185389862	 0.115119
H	-3.1757248435	-0.9648469263	-1.6811941576	 0.11165
H	-2.2074454029	-3.734357414	-2.574391143	 0.107642
H	-1.6044258873	-2.1680380696	-3.1812660755	 0.111255
70.5618	81.5617	146.97	179.8033	255.3834	270.5717	292.7978	423.0623	458.9658	491.1872	523.5767	571.979	695.2194	780.5641	813.7364	841.8541	895.0904	899.0989	954.3885	976.0754	1015.228	1035.7681	1039.6519	1056.9389	1099.6134	1106.5736	1147.5123	1168.9917	1219.8761	1241.7229	1254.1808	1257.945	1277.8972	1324.4243	1357.4297	1363.7927	1395.272	1424.3832	1484.511	1489.455	1530.1075	3000.5012	3023.9997	3065.4775	3073.3183	3134.097	3135.0357	3179.242	3232.1458	3753.0668	3770.1461
OC1CC1(O)C1CCO1	O[C@H]1C[C@]1(O)[C@H]1CCO1	
InChI=1S/C6H10O3/c7-4-3-6(4,8)5-1-2-9-5/h4-5,7-8H,1-3H2	InChI=1S/C6H10O3/c7-4-3-6(4,8)5-1-2-9-5/h4-5,7-8H,1-3H2/t4-,5+,6+/m0/s1
