19
gdb 41409	2.55752	1.92412	1.41329	0.6956	73.96	-0.2487	0.0673	0.3161	965.2681	0.161548	-422.999529	-422.992431	-422.991487	-423.030914	28.394	
C	-0.1458405031	 1.5480138304	 0.0059455192	-0.177991
O	 1.0851999048	 1.6273867954	 0.7657878054	-0.305358
C	 1.4306405658	 0.2588069171	 0.4122397656	 0.107472
C	 1.7278028321	-0.6685621541	 1.5871767624	-0.243466
C	 0.3449516338	-1.0339425277	 2.1756314363	-0.243466
C	-0.6339332841	-0.8965859078	 1.0129993986	 0.107472
O	-0.6209213014	-1.9877892254	 0.0504806292	-0.305358
C	-0.402054585	-1.0638649584	-1.043860339	-0.177991
C	-0.0202488728	 0.0303898329	-0.0542111399	 0.234272
H	-1.0004165778	 1.9632977439	 0.5524872659	 0.106653
H	-0.0564686978	 2.0556082127	-0.9649924508	 0.099838
H	 2.20695495	 0.2476733604	-0.3638781656	 0.06929
H	 2.2334639942	-1.5609767362	 1.2028965956	 0.112404
H	 2.3939845323	-0.2000352295	 2.3169433005	 0.114021
H	 0.3169687075	-2.034978491	 2.6149703499	 0.114021
H	 0.0555727898	-0.3219925478	 2.9561154924	 0.112404
H	-1.6620893533	-0.675317367	 1.327772896	 0.06929
H	 0.3733901991	-1.4131221159	-1.7353613865	 0.106653
H	-1.3278489321	-0.8735537484	-1.6051502746	 0.099838
146.1171	163.2305	246.3594	279.7782	363.1852	381.4202	488.4968	639.6185	668.2636	763.1692	809.4812	845.6753	852.9828	878.0195	930.6937	939.5382	971.1131	986.0829	1003.8798	1019.0628	1056.1017	1086.1823	1110.4515	1140.6803	1163.1462	1176.5663	1215.2938	1220.3665	1238.1006	1266.7132	1289.1441	1318.8621	1337.9551	1340.9267	1358.4606	1380.4697	1387.9816	1463.2455	1477.7921	1517.9415	1520.9203	2997.2493	3000.6669	3018.0421	3020.9104	3053.387	3055.5654	3058.3706	3058.5323	3096.8372	3108.4718
C1OC2CCC3OCC123	C1O[C@H]2CC[C@@H]3OC[C@]123	
InChI=1S/C7H10O2/c1-2-6-7(4-9-6)3-8-5(1)7/h5-6H,1-4H2	InChI=1S/C7H10O2/c1-2-6-7(4-9-6)3-8-5(1)7/h5-6H,1-4H2/t5-,6-,7+/m0/s1
