16
gdb 44158	3.03533	1.23078	1.02939	3.9494	74.16	-0.2491	-0.0153	0.2338	1166.4054	0.122764	-400.688833	-400.680611	-400.679667	-400.722303	30.754	
O	 0.3017633573	 0.0316329921	 0.2980814325	-0.286827
C	 0.1267851727	 1.204680779	 0.2064642341	 0.397717
C	-1.0964732581	 2.1307350482	 0.1026725171	-0.382302
C	-0.0717165944	 3.2589605773	 0.0083149942	-0.056923
C	 0.9071296025	 3.2604451185	 1.1049357029	 0.011213
C	 0.6196374188	 2.8713519605	 2.5503480833	-0.398576
C	 1.8237938301	 2.4585750534	 3.2630915635	 0.317988
C	 2.8253178337	 2.1333571264	 3.8402672491	-0.435797
N	 1.1095834236	 2.2610501301	 0.0089542216	-0.184345
H	-1.6343319631	 1.9599002193	-0.8334737508	 0.147923
H	-1.8123167206	 2.1335722062	 0.9280911925	 0.135311
H	-0.0994710853	 4.044171931	-0.7378254976	 0.116877
H	 1.6741405633	 4.0275211464	 1.0308689163	 0.125656
H	 0.1793131461	 3.7453244333	 3.04899678	 0.141714
H	-0.1310625116	 2.0762099071	 2.6077308799	 0.146874
H	 3.7066959351	 1.8310031514	 4.3496009511	 0.203498
45.9599	112.1676	139.4444	236.1517	330.4284	339.8505	469.4544	484.2342	510.4193	594.1677	628.8086	640.6134	655.1285	743.2183	803.6917	836.5775	921.6959	944.4062	981.6568	998.6179	1020.8883	1031.0252	1078.2347	1121.8894	1158.4647	1223.7033	1232.6473	1270.1876	1320.1276	1354.6665	1440.5127	1458.2186	1463.8395	1919.0949	2246.423	3023.0132	3069.6222	3072.6711	3122.9642	3145.9147	3189.6379	3506.5927
O=C1CC2C(CC#C)N12	O=C1C[C@H]2[C@@H](CC#C)N12	
InChI=1S/C7H7NO/c1-2-3-5-6-4-7(9)8(5)6/h1,5-6H,3-4H2	InChI=1S/C7H7NO/c1-2-3-5-6-4-7(9)8(5)6/h1,5-6H,3-4H2/t5-,6+,8?/m1/s1
