18
gdb 78791	2.06807	1.86432	1.66488	4.2631	74.55	-0.2418	0.0064	0.2482	969.5922	0.146621	-401.918829	-401.910583	-401.909639	-401.951296	31.483	
C	 0.1089868244	 1.599125716	 0.0569209253	-0.432167
C	 0.0741353235	 0.0773149774	 0.0504307368	-0.027188
C	 1.0602039749	-0.729516972	-0.8076113138	-0.049889
C	 1.2007480939	-1.7775386957	 0.2043559539	-0.10326
N	 2.3834632041	-0.8514719279	-0.0870885345	-0.208733
C	 2.1195053453	-0.2722584763	 1.227644951	 0.415092
O	 2.8936755751	 0.1848366887	 2.0097002553	-0.331145
C	 0.663494495	-0.7236995955	 1.2643214719	 0.140393
C	-0.0838878479	-0.9376011597	 2.5502907023	-0.515634
H	 1.1167778678	 1.9811597038	 0.2470148038	 0.140704
H	-0.2250436622	 1.9962173102	-0.9073096075	 0.123714
H	-0.5544752765	 2.0036095987	 0.8284902234	 0.12499
H	-0.9378234765	-0.2894632095	-0.1554414708	 0.085887
H	 1.1246563381	-0.7961552668	-1.8864278728	 0.11077
H	 1.3167483787	-2.8510373239	 0.2028994676	 0.12559
H	-0.2703459199	 0.0217843728	 3.043956336	 0.140246
H	-1.0505282668	-1.4210204035	 2.3767679216	 0.123363
H	 0.492364199	-1.5570510469	 3.2443111205	 0.137267
125.2503	162.719	189.9705	198.5959	223.1591	255.0068	357.9703	470.4334	555.1186	645.8159	658.2098	667.8705	749.1846	792.1682	835.3606	851.0089	869.4497	885.0399	907.8849	1005.126	1031.2338	1039.3906	1083.7125	1114.3067	1137.4273	1156.976	1175.5062	1217.0559	1246.1383	1330.4933	1348.1479	1386.6322	1414.0091	1419.545	1487.5402	1489.1699	1494.3475	1497.5866	1907.8937	3035.0662	3036.644	3046.1921	3101.0478	3104.9579	3108.3887	3110.9697	3196.4055	3237.1064
CC1C2C3N2C(=O)C13C	C[C@H]1[C@@H]2[C@H]3N2C(=O)[C@@]13C	
InChI=1S/C7H9NO/c1-3-4-5-7(3,2)6(9)8(4)5/h3-5H,1-2H3	InChI=1S/C7H9NO/c1-3-4-5-7(3,2)6(9)8(4)5/h3-5H,1-2H3/t3-,4+,5+,7-,8?/m0/s1
