14
gdb 35455	2.49547	1.44025	1.10381	5.3415	72.26	-0.2759	-0.0159	0.26	1080.3884	0.102092	-395.706073	-395.698455	-395.697511	-395.738548	28.031	
N	 0.0256937187	-1.1855099051	-0.1315493066	-0.317593
C	 0.0170833482	-0.0333727306	-0.0459819819	 0.302324
C	-0.0170980814	 1.416783522	 0.0626362035	-0.227791
C	-0.2262853962	 2.0576595229	 1.4912746732	-0.231686
C	 1.1106057417	 2.7848915341	 1.3261473628	-0.104119
N	 2.1296812342	 1.7427146957	 1.1539103359	-0.342557
C	 1.3343917554	 2.1651647018	-0.024062763	 0.239316
C	 1.9326570296	 2.7076447192	-1.1965462081	 0.186879
N	 2.4061496417	 3.1521254663	-2.1546394365	-0.329994
H	-0.7339281032	 1.8226907614	-0.6537901058	 0.149128
H	-1.0920968889	 2.7196249821	 1.5081555274	 0.133656
H	-0.2660181995	 1.3559387291	 2.3245234435	 0.147704
H	 1.3700554021	 3.7830042236	 1.653739454	 0.13535
H	 3.0452189977	 2.1869959176	 1.0860241515	 0.259382
94.8343	131.6719	165.4732	219.7143	326.4012	432.8015	478.1414	502.5804	555.7275	568.2387	656.7439	711.188	804.0827	877.784	901.5479	951.8925	994.2774	1020.0507	1051.4022	1067.6207	1112.1366	1163.2284	1199.3754	1232.5965	1292.5865	1297.2836	1355.086	1401.4824	1477.6504	2348.4946	2364.1878	3094.6537	3102.2347	3160.2776	3212.1078	3487.8024
N#CC1CC2NC12C#N	N#C[C@H]1C[C@H]2N[C@@]12C#N	
InChI=1S/C6H5N3/c7-2-4-1-5-6(4,3-8)9-5/h4-5,9H,1H2	InChI=1S/C6H5N3/c7-2-4-1-5-6(4,3-8)9-5/h4-5,9H,1H2/t4-,5-,6+/m1/s1
