21
gdb 7162	5.8093	0.79285	0.73778	4.1319	79.72	-0.3119	0.0356	0.3475	1563.5097	0.187384	-329.160739	-329.150794	-329.14985	-329.196009	35.111	
C	-0.0474411062	 1.6106215457	-0.0826244245	-0.379824
C	 0.0123447102	 0.0851316931	 0.0406850726	-0.182813
C	-1.3791627996	-0.5588976349	 0.0652843235	-0.166375
C	-1.3789702073	-2.0979637744	 0.0779145828	 0.023136
C	-0.7415621685	-2.6879860388	 1.3417873246	-0.39999
C	-2.8333594977	-2.6037549474	-0.0959636212	-0.347307
C	-2.9281793768	-4.0549530325	-0.2393012576	 0.262877
N	-2.9832472504	-5.2036197887	-0.3560656381	-0.314963
H	 0.9555126229	 2.047766789	-0.0985572136	 0.115489
H	-0.5585450147	 1.9145209339	-1.0028606542	 0.115487
H	-0.5906735488	 2.0551455365	 0.7587055419	 0.115893
H	 0.5860440038	-0.32866975	-0.7992244834	 0.098961
H	 0.5650390078	-0.1812064705	 0.9488536501	 0.10417
H	-1.9353672412	-0.1923280928	 0.9405422514	 0.094452
H	-1.938373373	-0.2129916651	-0.815134795	 0.092008
H	-0.8088877849	-2.4469065377	-0.7933784898	 0.093995
H	 0.3097971823	-2.4028362049	 1.4273126995	 0.124365
H	-1.2593349871	-2.3341209685	 2.2416860759	 0.114407
H	-0.7894957583	-3.7807184904	 1.3339185476	 0.141854
H	-3.4398984256	-2.3001123135	 0.7665969671	 0.147281
H	-3.2897654771	-2.1425285483	-0.9792637097	 0.146896
59.25	75.114	112.1518	115.492	201.0267	234.8745	250.7038	308.3901	350.8709	396.96	403.4321	438.123	581.7755	745.2935	834.5051	862.7702	883.2495	896.0495	952.2956	969.6771	1015.8617	1043.8783	1079.479	1131.4807	1142.5956	1184.1848	1238.7268	1271.9001	1289.1375	1327.8221	1330.7907	1366.2887	1378.1835	1397.1933	1412.6799	1421.3354	1463.1036	1481.0787	1493.5221	1498.2994	1499.9116	1506.3824	1511.4002	2358.8486	2997.0957	3015.8315	3021.6712	3030.5277	3031.6619	3032.8853	3038.2008	3064.1323	3076.4623	3097.9872	3102.9923	3104.9641	3121.3878
CCCC(C)CC#N	CCC[C@@H](C)CC#N	
InChI=1S/C7H13N/c1-3-4-7(2)5-6-8/h7H,3-5H2,1-2H3	InChI=1S/C7H13N/c1-3-4-7(2)5-6-8/h7H,3-5H2,1-2H3/t7-/m1/s1
