23
gdb 61514	2.99777	0.9148	0.81679	0.7358	91.98	-0.2535	0.058	0.3116	1524.5476	0.203258	-351.115106	-351.1046	-351.103656	-351.150764	39.769	
C	 0.4903439049	 1.891255803	 1.5124715228	-0.388483
C	 0.5086435786	 0.3808391473	 1.2038663446	-0.148858
C	-0.8178266532	-0.1777739393	 0.6165340764	-0.279899
C	-2.0616339869	-0.0573976594	 1.4972132756	 0.380837
C	-2.8614463724	 1.2288672053	 1.3652197684	-0.464633
C	-2.8757182196	-1.3149097966	 1.7175569018	-0.311431
C	-2.0486011403	-0.7470695585	 2.8443121912	-0.297368
C	 1.6119785136	 0.0608943047	 0.2973797751	 0.327
C	 2.5044617388	-0.1930591129	-0.4676462468	-0.473089
H	 1.4794021054	 2.2242442816	 1.8380712667	 0.123617
H	 0.2159755432	 2.4689425786	 0.624247246	 0.122394
H	-0.222048165	 2.1151174472	 2.3097196274	 0.123005
H	 0.6937642613	-0.1456343941	 2.1502187289	 0.104598
H	-1.0055737509	 0.3124358397	-0.3468970652	 0.104557
H	-0.6390525624	-1.2334926517	 0.387285228	 0.106795
H	-3.2090165219	 1.3629137059	 0.3338548565	 0.115532
H	-3.7452298093	 1.2061307674	 2.0107965861	 0.110568
H	-2.2811321935	 2.1157974862	 1.634153723	 0.117467
H	-3.954938905	-1.2182258983	 1.7756542764	 0.107315
H	-2.5379649738	-2.2353481757	 1.2530465458	 0.109793
H	-1.1567138415	-1.2912831921	 3.1375799214	 0.110184
H	-2.5629314855	-0.2690867187	 3.6715153231	 0.10885
H	 3.2999863854	-0.4222721894	-1.1323115233	 0.191248
34.9609	96.8171	129.3826	189.5177	204.4379	245.1206	280.4403	294.2071	335.3923	353.302	374.5486	473.1537	516.9549	542.6246	623.4303	634.0835	729.4152	785.8802	811.8235	866.5316	880.377	908.3847	942.7736	953.4287	971.4777	1030.6414	1057.1974	1076.4454	1081.5644	1099.0074	1125.2749	1132.3876	1190.3302	1232.2415	1299.4091	1312.0171	1337.7012	1369.6798	1376.4841	1406.3687	1422.2465	1468.8636	1475.6888	1488.1126	1494.9368	1504.5009	1506.0991	1510.6572	2231.8988	3010.1223	3027.8085	3031.6238	3044.745	3073.6532	3090.914	3108.7129	3116.0054	3124.8016	3129.5107	3129.7267	3201.7529	3216.648	3505.5838
CC(CC1(C)CC1)C#C	C[C@@H](CC1(C)CC1)C#C	
InChI=1S/C9H14/c1-4-8(2)7-9(3)5-6-9/h1,8H,5-7H2,2-3H3	InChI=1S/C9H14/c1-4-8(2)7-9(3)5-6-9/h1,8H,5-7H2,2-3H3/t8-/m1/s1
