25
gdb 112557	2.45082	1.10377	0.9725	1.3862	88.61	-0.2462	0.0654	0.3115	1417.7625	0.227149	-389.493161	-389.482393	-389.481448	-389.528311	40.966	
C	 0.2670444709	 1.3019355252	 0.5675558208	-0.383857
C	 0.2292719612	-0.176657786	 0.1682461909	-0.201889
C	 0.5207362661	-0.3955953263	-1.3176301341	-0.009258
C	 2.0138820778	-0.2816485674	-1.7522099847	-0.289977
C	 2.0920914151	-1.8289185848	-1.9733063534	 0.313209
C	 2.6038657093	-2.2781907242	-3.3402857275	-0.451348
C	 2.8429513966	-2.5618270067	-0.8587898809	-0.460976
C	 0.5309013335	-1.8779190604	-1.8112694723	 0.083171
O	-0.0635604318	-2.8848986919	-1.0260278574	-0.426458
H	 1.2454453804	 1.7470137046	 0.357198784	 0.11845
H	-0.4826958915	 1.8763514187	 0.0125099512	 0.116327
H	 0.0649034908	 1.4317074282	 1.6353547272	 0.111218
H	 0.9505953075	-0.7282339123	 0.7869094634	 0.086793
H	-0.7575599215	-0.5960889642	 0.40025169	 0.106528
H	-0.160035199	 0.2397576244	-1.8948228809	 0.063806
H	 2.15867958	 0.2899493106	-2.6726311048	 0.093944
H	 2.6961243921	 0.1173256814	-0.994735431	 0.091701
H	 3.6734804956	-2.0660516595	-3.4555987083	 0.109299
H	 2.4610174447	-3.3563895626	-3.4785455394	 0.11719
H	 2.0743806137	-1.7652393601	-4.1505674325	 0.107929
H	 2.5415354779	-2.2309134533	 0.1412047826	 0.1051
H	 2.6777900454	-3.6428565647	-0.9186421412	 0.122697
H	 3.9202952153	-2.3800422978	-0.9414079078	 0.115664
H	 0.0486777853	-1.9674233131	-2.7895096508	 0.078978
H	 0.3240390445	-2.8539518779	-0.1458490631	 0.28176
75.4584	103.813	159.2993	200.1521	218.9433	231.9243	249.6874	268.9926	308.5961	314.9397	340.2789	359.1784	411.1804	513.4992	547.4056	687.058	764.3564	774.3104	811.7158	851.8548	895.4809	938.106	955.5541	985.0321	986.9818	1009.2304	1034.3891	1065.1166	1111.2427	1129.3933	1176.7637	1202.2534	1205.7937	1235.3038	1264.1322	1272.3419	1287.6893	1312.72	1321.2197	1334.8812	1389.13	1400.1585	1411.745	1417.4066	1440.2335	1481.0585	1486.2763	1489.5898	1493.5072	1498.9174	1502.3791	1507.9418	1512.1061	3007.8637	3017.3832	3026.6407	3030.712	3033.6626	3046.3417	3051.4585	3062.4498	3083.3173	3088.0959	3090.1355	3097.5382	3098.4171	3101.5535	3102.4579	3821.9759
CCC1CC(C)(C)C1O	CC[C@H]1CC(C)(C)[C@H]1O	
InChI=1S/C8H16O/c1-4-6-5-8(2,3)7(6)9/h6-7,9H,4-5H2,1-3H3	InChI=1S/C8H16O/c1-4-6-5-8(2,3)7(6)9/h6-7,9H,4-5H2,1-3H3/t6-,7-/m0/s1
