20
gdb 104822	1.86277	1.50386	1.28656	1.7527	75.44	-0.267	0.0231	0.2901	1154.7022	0.170309	-440.284165	-440.27453	-440.273586	-440.318734	35.233	
C	-0.1384146702	 1.6090320288	-0.0048938576	-0.396317
C	 0.0903859544	 0.0925579262	 0.0266908157	-0.251072
C	 0.7738154805	-0.4873358379	-1.2230899887	 0.151636
C	 2.1897245106	 0.0545171086	-1.4506969314	-0.135307
O	 2.7899376505	-0.4639712088	-2.6247346237	-0.421065
C	 0.6308729418	-2.0236636644	-1.3772581912	-0.130947
O	-0.24944963	-1.8319051101	-2.5348164032	-0.254232
C	-0.080912356	-0.4722808546	-2.483868754	 0.402606
N	-0.4695191036	 0.4316265363	-3.2672503116	-0.560391
H	 0.8011007349	 2.1678306291	 0.0360168182	 0.119388
H	-0.6661765624	 1.9034400009	-0.9161310952	 0.153532
H	-0.7385588766	 1.9178112179	 0.8561852852	 0.114304
H	 0.6917783292	-0.1799101882	 0.904448531	 0.100875
H	-0.8752690235	-0.4121172531	 0.1512555314	 0.107781
H	 2.1645438416	 1.151245397	-1.4704105744	 0.112916
H	 2.8327345131	-0.2486721209	-0.6162381749	 0.112977
H	 2.3296777082	-0.0723821282	-3.3761869751	 0.295906
H	 1.5396987075	-2.5475571177	-1.6775697183	 0.135159
H	 0.110353956	-2.5501398966	-0.5741106762	 0.114197
H	-1.014647526	 0.045612196	-4.040864436	 0.228056
84.791	98.5174	126.3968	147.0437	198.7319	237.4365	269.2347	307.0888	384.4228	415.407	482.7244	511.2225	671.7868	699.7207	762.4756	794.2055	862.1858	877.1669	912.9867	964.817	990.0055	1024.0845	1031.0019	1054.0192	1088.5444	1138.8965	1161.0205	1204.2236	1235.2979	1238.858	1261.9698	1322.1167	1371.8002	1372.0097	1403.414	1416.1734	1420.4434	1487.0367	1493.5312	1500.8532	1503.1945	1511.1862	1803.3942	3016.159	3022.3799	3044.3204	3053.6623	3069.8975	3071.9212	3109.5628	3125.2658	3139.2296	3466.3787	3796.5834
CCC1(CO)COC1=N	CC[C@@]1(CO)CO[C]1[NH]	
InChI=1S/C6H11NO2/c1-2-6(3-8)4-9-5(6)7/h7-8H,2-4H2,1H3	InChI=1S/C6H11NO2/c1-2-6(3-8)4-9-5(6)7/h7-8H,2-4H2,1H3/t6-/m1/s1
