18
gdb 58799	3.22915	1.23949	1.08255	3.6171	71.85	-0.2515	-0.013	0.2385	1154.8314	0.146397	-439.067993	-439.059368	-439.058424	-439.101361	32.853	
C	-1.0665797189	 0.6938910131	-0.1851387138	-0.425302
C	 0.2888650009	-0.0121047118	-0.1726721799	 0.038149
O	 1.3237365548	 0.8385904236	-0.6562987374	-0.429894
C	 0.6888052705	-0.5587684748	 1.1796748941	 0.304474
C	-0.1629521351	-0.6988953664	 2.3661330853	-0.293356
N	 0.8347395631	 0.4217859514	 2.3679868183	-0.218984
C	 2.1165877272	-0.2132894865	 2.6516755646	 0.411383
O	 2.9082406865	 0.0634537655	 3.4952470389	-0.293217
C	 2.070711183	-1.1656342267	 1.4482569256	-0.433682
H	-1.0919131973	 1.4979569045	 0.558775793	 0.135178
H	-1.2323702298	 1.1313799721	-1.1722547131	 0.132395
H	-1.8853529678	-0.0003539583	 0.0269477428	 0.119032
H	 0.2657789111	-0.8493372839	-0.8818861418	 0.100083
H	 1.3964985776	 1.569137603	-0.0290939602	 0.290919
H	-1.1821382249	-0.3310678312	 2.3349591603	 0.140608
H	-0.0058904099	-1.5280595759	 3.0525376865	 0.132252
H	 2.1296214365	-2.2382810866	 1.6477139502	 0.130781
H	 2.8123832725	-0.8844795113	 0.6975103266	 0.15918
68.7838	93.8135	199.7015	239.4909	273.8164	341.8596	391.3824	405.2583	468.7571	478.6722	564.6776	577.1239	617.6969	651.2501	774.541	835.7723	873.0279	926.608	962.835	1011.5813	1026.1961	1036.1479	1075.9394	1110.5962	1115.064	1139.5348	1171.8378	1204.6362	1258.6428	1293.2285	1359.5234	1388.4363	1401.7727	1421.9981	1446.9336	1493.2617	1499.3938	1514.9779	1921.5407	3033.6365	3037.9398	3073.6483	3108.4538	3114.8091	3128.4962	3135.6511	3213.4751	3778.5106
CC(O)C12CN1C(=O)C2	C[C@@H](O)[C@]12CN1C(=O)C2	
InChI=1S/C6H9NO2/c1-4(8)6-2-5(9)7(6)3-6/h4,8H,2-3H2,1H3	InChI=1S/C6H9NO2/c1-4(8)6-2-5(9)7(6)3-6/h4,8H,2-3H2,1H3/t4-,6+,7?/m1/s1
