20
gdb 39636	4.38507	1.00486	0.8993	1.1122	80.89	-0.2381	0.0287	0.2668	1355.8316	0.1731	-403.160547	-403.152153	-403.151209	-403.195118	30.524	
C	-0.1382937636	 1.436473385	-0.0223977541	-0.215179
C	 1.4053370667	 1.569743316	-0.1271387821	-0.225049
C	 1.5408928987	 0.1895878021	 0.5637663916	-0.069871
C	 0.041329405	-0.0877855679	 0.2091182546	-0.218762
C	 2.5556376412	-0.769127479	 0.0500508357	 0.406888
N	 3.2618547723	-0.6416878689	-0.9990414754	-0.31777
C	 4.0812983646	-1.8566779409	-1.1079142057	-0.184702
C	 3.6627984445	-2.7236585157	 0.1086632036	-0.111516
O	 2.688613216	-1.9072552475	 0.7933465358	-0.261869
H	-0.5333519388	 1.9369056711	 0.8664520196	 0.101834
H	-0.7311386663	 1.7461819057	-0.8856015376	 0.100073
H	 1.7605471005	 1.5130941955	-1.1578878285	 0.130768
H	 1.880653512	 2.4209168505	 0.3649144651	 0.097638
H	 1.6575601284	 0.2804396683	 1.6477924218	 0.091622
H	-0.5704619486	-0.5708288877	 0.9735205958	 0.103744
H	-0.0421034973	-0.6539333106	-0.7224020466	 0.11057
H	 3.8885225316	-2.3559979314	-2.063484492	 0.114252
H	 5.1445753419	-1.5934386788	-1.0904496653	 0.114738
H	 3.1855176338	-3.6674742825	-0.1714518693	 0.115837
H	 4.4823475475	-2.9353900435	 0.8011765029	 0.116755
33.1139	87.9368	100.7838	140.1766	215.8539	328.1478	397.4645	555.0973	684.0919	730.4154	758.8581	787.3058	830.6871	851.5575	902.8394	933.9466	935.879	957.9214	974.3607	993.1607	1005.3338	1051.2278	1057.6279	1119.2109	1136.8831	1199.7763	1209.1875	1215.8432	1239.9469	1246.2451	1253.748	1258.5152	1279.7938	1283.6328	1326.0538	1365.7453	1415.1721	1477.7406	1487.5593	1503.7964	1509.3613	1527.1159	1733.4922	3037.17	3051.8249	3058.3465	3063.1817	3064.0279	3066.4333	3074.9161	3098.6816	3105.8666	3122.9878	3135.9028
C1CC(C1)C1=NCCO1	C1CC(C1)C1=NCCO1	
InChI=1S/C7H11NO/c1-2-6(3-1)7-8-4-5-9-7/h6H,1-5H2	InChI=1S/C7H11NO/c1-2-6(3-1)7-8-4-5-9-7/h6H,1-5H2
