14
gdb 18220	4.53132	1.69798	1.40076	3.0811	62.69	-0.2471	-0.0372	0.21	854.4334	0.107078	-382.527785	-382.521187	-382.520243	-382.55902	24.492	
O	-0.0536323294	-0.033801103	-0.1465380069	-0.249051
C	 0.0194187333	 1.1361736322	 0.1241817124	 0.150811
C	 1.30908873	 1.9506460565	 0.0561714708	-0.146673
C	 1.3046055848	 2.8831156073	-1.1489910683	-0.097625
C	 1.439072364	 4.1656966126	-0.8007914506	-0.081534
C	 1.5164708988	 4.2951694318	 0.6829373323	 0.00055
O	 0.3271196731	 3.8208352145	 1.3607289638	-0.24993
C	 1.4349397454	 2.9281056182	 1.2296527031	 0.004088
H	-0.8656167381	 1.7283883418	 0.4347725602	 0.10736
H	 2.1433950215	 1.2421111231	 0.0168202594	 0.106644
H	 1.1653397593	 2.5064206479	-2.1555499253	 0.122501
H	 1.4738899763	 5.0085315164	-1.4793484079	 0.11475
H	 2.0252623664	 5.1165887663	 1.1765096836	 0.10749
H	 1.9013255446	 2.6167462245	 2.1598363434	 0.110619
72.4477	141.7898	241.4532	390.7257	425.0863	475.0194	561.7733	726.2841	750.5092	819.0055	842.9178	860.1126	922.6262	933.9722	961.5434	979.4619	1029.0258	1070.5624	1083.2289	1109.2245	1131.6793	1236.8226	1252.4992	1280.2606	1298.393	1371.6994	1393.9369	1413.3074	1651.4675	1826.3803	2929.9719	3060.5143	3156.6189	3175.9773	3199.9006	3225.5008
O=CC1C=CC2OC12	O=C[C@H]1C=C[C@H]2O[C@@H]12	
InChI=1S/C6H6O2/c7-3-4-1-2-5-6(4)8-5/h1-6H	InChI=1S/C6H6O2/c7-3-4-1-2-5-6(4)8-5/h1-6H/t4-,5-,6+/m1/s1
