21
gdb 94109	3.44521	0.87206	0.73451	3.6606	79.97	-0.2435	-0.0179	0.2255	1562.202	0.181434	-424.253362	-424.243684	-424.24274	-424.289749	34.382	
C	 0.123621395	 1.4984290401	 0.4235648535	-0.410243
C	 0.1406501213	 0.0121872002	 0.1161544403	 0.159755
C	 0.8846793783	-0.3945774331	-1.1784400693	-0.239355
C	 1.5938169775	-1.7201677603	-0.8040578313	-0.243952
C	 1.1612664094	-1.9593768161	 0.6600404046	 0.13252
C	 2.2289472999	-2.5783013718	 1.5613147352	-0.30435
C	 1.7431459313	-2.7863445356	 2.9811991893	 0.153664
O	 1.8302183215	-3.8264998938	 3.5833292938	-0.24315
O	 0.8274643662	-0.6726530451	 1.1624789666	-0.273896
H	 1.1454478259	 1.885637316	 0.4864210612	 0.121788
H	-0.4076823809	 2.0438271338	-0.3624335993	 0.118161
H	-0.3784387524	 1.6920407313	 1.375504856	 0.126801
H	-0.8953346099	-0.3652720228	 0.068969599	 0.065351
H	 0.1946437543	-0.5064881803	-2.018295549	 0.105334
H	 1.6133632503	 0.3736150572	-1.4528941304	 0.105879
H	 1.3107814999	-2.5553580077	-1.4492016938	 0.107524
H	 2.6808097265	-1.6126004798	-0.8633248528	 0.106354
H	 0.2604414646	-2.598088062	 0.6707793302	 0.07218
H	 2.5689808517	-3.5379732193	 1.1622002586	 0.120146
H	 3.0827556228	-1.8870851097	 1.5929216805	 0.123463
H	 1.2860466569	-1.8861127612	 3.4446794071	 0.096027
35.8094	48.2078	76.9693	123.0308	176.3642	233.8865	305.9926	356.4942	424.2592	454.898	507.5727	608.7143	636.8159	810.7839	823.504	845.69	881.9773	926.3169	955.5066	987.8992	998.7691	1034.489	1095.5956	1108.2453	1124.0842	1144.6399	1164.6951	1200.3613	1248.0418	1266.0343	1268.4051	1299.5742	1316.3354	1347.3197	1381.2713	1386.5892	1403.1751	1421.5906	1424.4354	1447.314	1483.9339	1487.981	1499.1488	1509.0791	1830.2432	2910.6767	2941.1829	2950.4193	3022.3926	3039.9757	3052.8073	3064.0527	3094.6845	3104.7831	3112.7983	3115.4852	3118.9579	35.8117	48.2096	76.9698	123.0314	176.3644	233.8867	305.9927	356.4943	424.2593	454.8982	507.5729	608.7143	636.8159	810.784	823.5041	845.6901	881.9774	926.3171	955.5066	987.8993	998.7691	1034.489	1095.5957	1108.2454	1124.0845	1144.6399	1164.6951	1200.3613	1248.0418	1266.0343	1268.4051	1299.5742	1316.3355	1347.3195	1381.2709	1386.5891	1403.175	1421.5904	1424.4351	1447.3142	1483.9338	1487.981	1499.1486	1509.0791	1830.2433	2910.6766	2941.1831	2950.4194	3022.3926	3039.9757	3052.8073	3064.0527	3094.6845	3104.7831	3112.7983	3115.4852	3118.9579
CC1CCC(CC=O)O1	C[C@H]1CC[C@@H](CC=O)O1	
InChI=1S/C7H12O2/c1-6-2-3-7(9-6)4-5-8/h5-7H,2-4H2,1H3	InChI=1S/C7H12O2/c1-6-2-3-7(9-6)4-5-8/h5-7H,2-4H2,1H3/t6-,7-/m0/s1
