14
gdb 124167	3.71688	0.97751	0.77772	0.7228	77.43	-0.2201	-0.0163	0.2038	1402.4814	0.101511	-432.851149	-432.842588	-432.841644	-432.88605	29.863	
C	 0.0259502642	 1.5006559651	-0.0116008291	-0.509395
C	 0.0370822642	 0.0473472376	-0.0090309637	 0.205024
C	 0.051567593	-1.1581088203	-0.0070692584	-0.044005
C	 0.0314213139	-2.5685306114	-0.0023640676	 0.1339
N	 1.1314837025	-3.3397951143	-0.0729360833	-0.27563
N	 0.656415867	-4.5680672352	-0.0386753254	-0.117091
N	-0.6725468784	-4.7012557359	 0.0491230368	-0.284812
C	-1.084256975	-3.4420571852	 0.0731950975	 0.245729
O	-2.3730663646	-3.0828089856	 0.1572139495	-0.418657
H	 1.0457922297	 1.9004623629	-0.0072395967	 0.154883
H	-0.4823612751	 1.8937718263	-0.8992840713	 0.152489
H	-0.4907992394	 1.895838927	 0.8701877955	 0.152745
H	 1.2624016581	-5.3703411051	-0.076739397	 0.294515
H	-2.9020186701	-3.8895909158	 0.1940192634	 0.310304
21.2002	82.7874	110.3376	270.671	272.0757	343.0252	393.5581	396.6132	421.6357	485.2371	518.8576	579.6218	696.1344	740.7041	780.6043	980.5402	1008.729	1051.0606	1052.3256	1154.94	1200.8608	1244.3274	1304.7016	1393.7731	1414.0901	1469.3979	1473.7285	1476.2686	1575.0018	1595.0338	2368.1904	3026.2218	3085.6135	3091.5592	3679.4137	3799.4668
CC#CC1=NNN=C1O	CC#Cc1n[nH]nc1O	
InChI=1S/C5H5N3O/c1-2-3-4-5(9)7-8-6-4/h1H3,(H2,6,7,8,9)	InChI=1S/C5H5N3O/c1-2-3-4-5(9)7-8-6-4/h1H3,(H2,6,7,8,9)
