21
gdb 72741	2.46757	1.70811	1.52284	1.5187	81.7	-0.2239	0.0759	0.2998	1018.2615	0.183059	-387.048872	-387.040848	-387.039904	-387.081003	32.209	
C	 0.0364205389	 1.5831539176	-0.046824069	-0.490842
C	-0.0114862417	 0.0757908441	 0.0543332224	 0.298074
C	 0.9273064654	-0.7245091001	-0.9188897528	-0.286893
C	 1.8159822072	-1.1913875942	 0.283305504	-0.331226
C	 0.6911996712	-0.7450509353	 1.1958659487	 0.465706
O	 0.8050841796	-0.3071245357	 2.5426717101	-0.333948
C	-0.4971261888	-0.8731778548	 2.8560705875	-0.102554
C	-0.6411962707	-1.4943572225	 1.4461544554	-0.139446
C	-1.3618795797	-0.6307527657	 0.372995548	-0.311244
H	 1.0672921445	 1.9481420317	-0.1164816459	 0.115626
H	-0.5016748952	 1.9384810019	-0.9344416828	 0.113606
H	-0.4210978905	 2.0513725823	 0.8314311388	 0.118582
H	 0.4255000155	-1.5467525178	-1.4351483202	 0.100211
H	 1.4391541702	-0.1102625496	-1.6624461096	 0.104552
H	 2.1328675021	-2.237298401	 0.3259035182	 0.097264
H	 2.6969952841	-0.551864585	 0.3987350188	 0.113408
H	-0.4239185574	-1.5890259268	 3.6821836026	 0.106246
H	-1.2311843535	-0.0990190396	 3.1128182561	 0.099555
H	-0.7422591332	-2.5795448548	 1.4070155078	 0.072624
H	-2.1320473882	 0.0323524688	 0.7815576901	 0.094263
H	-1.8015878198	-1.1922123136	-0.4568629081	 0.096438
108.5333	177.4769	204.8819	220.9938	324.9901	335.0235	385.4193	467.8183	522.6453	589.5771	663.764	754.4212	794.3723	822.7502	829.7494	864.6081	905.7776	918.9319	946.4024	979.8592	983.3423	1019.8384	1027.0816	1068.8176	1109.2844	1142.9215	1158.3144	1175.7938	1181.8404	1213.5824	1219.3388	1239.815	1250.264	1261.232	1297.6916	1323.8997	1327.8016	1352.4082	1409.3183	1473.2711	1477.935	1490.3316	1490.5431	1496.111	1519.2738	3015.6601	3018.4182	3036.5034	3047.8684	3063.5052	3065.1878	3080.6627	3084.8677	3093.3492	3095.8803	3102.8866	3120.6619
CC12CCC11OCC1C2	C[C@@]12CC[C@]31OC[C@H]3C2	
InChI=1S/C8H12O/c1-7-2-3-8(7)6(4-7)5-9-8/h6H,2-5H2,1H3	InChI=1S/C8H12O/c1-7-2-3-8(7)6(4-7)5-9-8/h6H,2-5H2,1H3/t6-,7+,8+/m1/s1
