19
gdb 23208	2.48786	1.30265	0.95049	2.2805	81.17	-0.2331	-0.0006	0.2325	1266.1514	0.158063	-419.127222	-419.118124	-419.11718	-419.16125	34.182	
C	-0.6617204746	 1.3036880831	 0.0394013521	-0.407659
C	 0.08855216	-0.017378083	-0.0475977221	-0.068814
C	 1.4453520312	-0.0265185316	-0.836498301	-0.352556
C	 2.1045662517	-0.6403541481	 0.3846217876	 0.379259
N	 3.2423431108	-1.1137164092	 0.6764346258	-0.248028
O	 4.1188872137	-1.0251435877	-0.4201794154	-0.391879
C	 0.8620002294	-0.5084948605	 1.2028820436	 0.264437
C	 0.7210411984	-0.0433824933	 2.608097466	-0.294655
N	 0.420008677	-1.4363780821	 2.2444740455	-0.3562
H	-0.0077371955	 2.1052038532	 0.3988951054	 0.120827
H	-1.0485790764	 1.5983845359	-0.9419330749	 0.12102
H	-1.5165018961	 1.2368158275	 0.7220351683	 0.114175
H	-0.5760933437	-0.8060153582	-0.4179637023	 0.082384
H	 1.4806391326	-0.6365940827	-1.7423119802	 0.128597
H	 1.8246381367	 0.9719055639	-1.0780213683	 0.124579
H	 4.9188874521	-1.4329437774	-0.0717300718	 0.307127
H	 1.6141736414	 0.0856465424	 3.2127655076	 0.132436
H	-0.0977154562	 0.6334480383	 2.8405180658	 0.113755
H	-0.5875312527	-1.5669102906	 2.1720068482	 0.231194
50.3046	148.4779	162.708	209.0209	223.4023	260.0953	332.0224	365.9847	401.8519	465.462	513.7716	546.7844	599.7076	741.3294	802.5721	832.0731	875.8089	908.903	941.0966	961.2339	982.5595	1015.6174	1053.164	1069.8926	1107.7791	1123.9619	1146.7548	1178.6471	1214.6414	1261.647	1264.6523	1289.727	1359.3593	1372.2174	1409.8202	1430.1287	1464.8742	1493.5156	1495.7918	1506.7887	1779.8508	3026.4301	3039.8121	3054.3596	3090.7723	3100.9835	3104.0786	3108.5465	3195.0844	3480.2065	3817.5401
CC1CC(=NO)C11CN1	C[C@H]1CC(=NO)[C@]21CN2	
InChI=1S/C6H10N2O/c1-4-2-5(8-9)6(4)3-7-6/h4,7,9H,2-3H2,1H3	InChI=1S/C6H10N2O/c1-4-2-5(8-9)6(4)3-7-6/h4,7,9H,2-3H2,1H3/t4-,6+/m0/s1
