18
gdb 14447	3.31404	2.48559	2.00494	0.2579	75.93	-0.217	0.0093	0.2263	768.6541	0.15525	-310.621228	-310.614857	-310.613913	-310.651127	26.773	
C	 0.0041436139	 1.5053463166	-0.0281039034	-0.520689
C	 0.0175017999	 0.0019956495	-0.0321803643	 0.351788
C	 0.5592003329	-0.9515294954	-1.1269659828	-0.289724
C	 0.0270969201	-1.8900860033	-0.0225589677	-0.043884
C	 0.6293015262	-0.9482237724	 1.0806594152	-0.087569
C	-0.3441630018	-0.9467218459	 2.2462588419	-0.111648
C	-1.5449686258	-0.955875075	 1.660002033	-0.111645
C	-1.2245728687	-0.9622387093	 0.1755628454	-0.087572
H	 1.0204206055	 1.9087172417	-0.098590667	 0.117281
H	-0.5699025104	 1.8966877507	-0.8753448861	 0.117281
H	-0.4494892159	 1.8832533976	 0.8948200313	 0.123142
H	 0.0226023464	-0.95781813	-2.0810428531	 0.08475
H	 1.6415169261	-0.9455982645	-1.2906585799	 0.08475
H	 0.0271856242	-2.9831590609	-0.0058196675	 0.065162
H	 1.7063495093	-0.9421443813	 1.2576292293	 0.055824
H	-0.0899858223	-0.9345951733	 3.2969220016	 0.098464
H	-2.5298314196	-0.9531828844	 2.1057419682	 0.098464
H	-2.02652872	-0.9703624205	-0.564834404	 0.055824
223.9556	228.1019	269.4274	424.1232	433.5376	519.2568	607.0591	688.5451	725.604	766.0256	790.6625	793.8412	894.9763	901.7526	910.1444	911.4718	938.3157	970.2486	991.1771	1012.3386	1047.1088	1069.8547	1117.9845	1125.4547	1141.2193	1176.6716	1200.6902	1211.4988	1225.1949	1254.3829	1295.4804	1331.7347	1333.6119	1403.6925	1487.1874	1488.4813	1518.4444	1628.7329	3024.7348	3037.5408	3078.7504	3091.3493	3094.0941	3095.8445	3100.3899	3105.4246	3216.7851	3243.8926
CC12CC3C1C=CC23	C[C@@]12C[C@H]3[C@@H]1C=C[C@@H]23	
InChI=1S/C8H10/c1-8-4-5-6(8)2-3-7(5)8/h2-3,5-7H,4H2,1H3	InChI=1S/C8H10/c1-8-4-5-6(8)2-3-7(5)8/h2-3,5-7H,4H2,1H3/t5-,6-,7+,8+
