16
gdb 49106	2.42334	1.33943	0.87447	2.9134	81.61	-0.2225	-0.092	0.1305	1248.5272	0.124411	-437.92233	-437.913933	-437.912989	-437.955781	30.004	
O	-0.0103451036	-0.1056268534	 0.1364254934	-0.296076
C	-0.0155995636	 1.1119945555	 0.0851658033	 0.052378
C	 1.1830061283	 1.910186212	-0.0082244065	 0.09631
C	 1.2894701622	 3.2711260562	-0.095707178	 0.211924
N	 2.5818613087	 3.6859764843	-0.2287954346	-0.336641
C	 3.4917850808	 2.570585233	 0.0696501489	-0.177159
C	 2.580070732	 1.3242226572	-0.0934518538	-0.308606
C	 0.2192793483	 4.2874969943	-0.0499974026	 0.085736
O	 0.4641691042	 5.4737749937	-0.0555640527	-0.270775
H	-0.9745368361	 1.6728211102	 0.1153538406	 0.059026
H	 2.8061454685	 4.6439874738	-0.005909748	 0.263417
H	 4.3457851778	 2.5685723877	-0.6119016824	 0.125081
H	 3.8757735372	 2.6511132332	 1.0960664083	 0.116689
H	 2.7612614544	 0.5593386561	 0.6645946213	 0.138626
H	 2.7278430064	 0.8429053025	-1.0679985674	 0.133544
H	-0.8157342856	 3.9049559338	 0.00291677	 0.106528
104.6914	123.7459	159.5485	170.0453	224.5486	234.3516	352.6766	424.5239	512.0959	536.6057	596.4956	701.5326	737.8169	813.5781	871.996	949.6252	996.2894	1008.8392	1041.0625	1056.1854	1072.3313	1187.1394	1224.5857	1273.8154	1309.7146	1329.3398	1352.9564	1411.8143	1426.8274	1482.4867	1497.254	1533.6277	1647.255	1742.7758	1775.3591	2885.9109	2973.5815	3006.4032	3035.675	3091.0679	3106.7059	3627.2521
O=CC1=C(NCC1)C=O	O=CC1=C(NCC1)C=O	
InChI=1S/C6H7NO2/c8-3-5-1-2-7-6(5)4-9/h3-4,7H,1-2H2	InChI=1S/C6H7NO2/c8-3-5-1-2-7-6(5)4-9/h3-4,7H,1-2H2
