17
gdb 33671	3.05724	1.48164	1.40305	4.9668	76.92	-0.2642	0.0122	0.2764	991.5924	0.138971	-380.853259	-380.84636	-380.845416	-380.88452	27.521	
N	-0.0389662111	-1.1271229934	-0.0230607791	-0.352847
C	-0.04204988	 0.0297302751	-0.00068185	 0.161962
C	 0.0084586862	 1.4537926552	 0.045819813	 0.248377
C	-0.6936565848	 2.4757988473	 0.89893681	-0.09221
C	 0.6141459193	 3.249170604	 1.1101050638	-0.251385
C	 1.2618053392	 2.3874915304	-0.0205137075	-0.100016
C	 1.1067964886	 3.0821098148	-1.3738512671	-0.227555
C	-0.4308680117	 3.2651349883	-1.467799496	-0.166758
N	-1.0402086391	 2.3036147127	-0.5147138347	-0.130689
H	-1.4868012792	 2.3257252805	 1.6227016265	 0.11782
H	 0.5944219541	 4.3337001651	 0.9635929582	 0.105117
H	 1.0399329256	 3.0268998743	 2.0908389827	 0.12178
H	 2.2384861007	 1.9561089272	 0.1893442774	 0.096465
H	 1.6462853885	 4.0329369625	-1.4161686776	 0.110265
H	 1.4784192783	 2.4459114268	-2.1837356243	 0.116906
H	-0.7516107261	 4.2774278891	-1.2063378661	 0.118067
H	-0.8149164386	 3.0427116903	-2.4658629492	 0.124702
131.5323	160.1752	230.519	361.0156	415.2926	523.3321	534.515	555.0388	638.986	726.6487	747.6708	822.7054	849.3958	871.1863	898.4122	931.9807	946.0279	998.5394	1014.3766	1027.7296	1058.5315	1105.4178	1116.6562	1147.1477	1172.0067	1231.2651	1233.403	1261.8779	1273.2212	1293.1986	1334.7133	1340.7882	1396.648	1486.3664	1488.2397	1512.0697	2351.7598	3049.1145	3052.6503	3066.0041	3093.3195	3113.1	3116.0618	3141.3359	3181.4108
N#CC12C3CC1CCN23	N#C[C@@]12[C@H]3C[C@@H]1CCN23	
InChI=1S/C7H8N2/c8-4-7-5-1-2-9(7)6(7)3-5/h5-6H,1-3H2	InChI=1S/C7H8N2/c8-4-7-5-1-2-9(7)6(7)3-5/h5-6H,1-3H2/t5-,6+,7-,9?/m0/s1
