18
gdb 42906	3.05431	1.27661	1.00538	3.8727	75.88	-0.2415	-0.011	0.2305	1196.2811	0.148002	-401.91091	-401.902975	-401.902031	-401.944035	30.106	
O	 0.3076968552	-0.0004348098	 0.1406455285	-0.29302
C	 0.1357646007	 1.1760425383	 0.1046923518	 0.378512
C	-1.0859918101	 2.1254790995	 0.1883189367	-0.145621
C	-2.0327468204	 2.0712207621	 1.3556912112	 0.008494
C	-3.4342859417	 2.6223059835	 1.225128548	-0.27523
C	-3.2150088038	 1.1349604621	 1.3146319359	-0.257325
C	-0.0410758905	 3.2401907412	 0.0533757929	-0.047052
C	 1.0310341154	 3.1150887287	 1.0487547994	-0.248603
N	 1.0990178098	 2.2380827339	-0.162553762	-0.177871
H	-1.6444457374	 2.0166368579	-0.7499371878	 0.11072
H	-1.5638657698	 2.1968076072	 2.3271865754	 0.085725
H	-3.8622935098	 3.1344303105	 2.0794761455	 0.117018
H	-3.7287717728	 3.0377929447	 0.2668842171	 0.113001
H	-3.357487337	 0.5421259995	 0.4176465919	 0.122609
H	-3.4917275822	 0.6240699452	 2.229534743	 0.11958
H	-0.1265373633	 4.0961351799	-0.604872553	 0.113258
H	 1.8180962511	 3.8616717737	 1.0578582966	 0.140889
H	 0.8412452866	 2.6511385119	 2.0133330889	 0.134916
59.5896	117.1462	150.8355	215.1255	296.5093	340.1314	481.9301	523.7328	650.2163	676.6152	749.027	777.442	815.7806	831.1977	852.8359	901.3233	935.6891	959.953	999.4902	1021.1848	1042.301	1062.2401	1063.7527	1081.2458	1116.3559	1130.2912	1142.9764	1185.4137	1195.7195	1205.6371	1231.1351	1240.8675	1298.6466	1358.1109	1428.6002	1472.791	1505.9972	1506.8093	1918.3711	3040.9839	3118.4564	3132.124	3140.6778	3147.574	3191.6732	3210.7461	3211.9415	3228.2519
O=C1C(C2CC2)C2CN12	O=C1[C@@H](C2CC2)[C@H]2CN12	
InChI=1S/C7H9NO/c9-7-6(4-1-2-4)5-3-8(5)7/h4-6H,1-3H2	InChI=1S/C7H9NO/c9-7-6(4-1-2-4)5-3-8(5)7/h4-6H,1-3H2/t5-,6+,8?/m1/s1
