19
gdb 82635	2.35916	1.73243	1.33425	2.4654	74.69	-0.2294	0.0737	0.3031	1044.2505	0.15821	-422.97106	-422.962535	-422.961591	-423.003691	32.942	
C	-0.1266323679	 1.4739442835	 0.0114505055	-0.519337
C	 0.0011423591	-0.0173566832	 0.0894032829	 0.178997
C	-0.0273754277	-0.9507577382	-1.1302231977	-0.014179
O	 0.7012226337	-2.1465762928	-0.8077442978	-0.311112
C	 0.0377963503	-2.0811750444	 0.4927427714	-0.055842
C	 0.7316451614	-0.8583397175	 1.1452592534	 0.13787
O	 2.1285226755	-0.8625778957	 1.1953319284	-0.453259
C	-1.0674497428	-1.1150497743	-0.0705794787	 0.245251
C	-2.5611135006	-1.1137679334	-0.0458650774	-0.530441
H	 0.8552592135	 1.9395094379	-0.1270942612	 0.135366
H	-0.7602995385	 1.7814552943	-0.8279341223	 0.117168
H	-0.5657166502	 1.8877706039	 0.9262648009	 0.122524
H	-0.0732739418	-0.6260462823	-2.162227082	 0.106512
H	-0.0688540398	-3.050630482	 0.9757530146	 0.083956
H	 0.3504146547	-0.6560303423	 2.1501947065	 0.087293
H	 2.4068359192	-1.2651338758	 0.3605318561	 0.284313
H	-2.9474694669	-1.0521775434	 0.9777157409	 0.126068
H	-2.955168632	-0.2535945028	-0.5974185639	 0.127422
H	-2.9707347691	-2.0200195416	-0.5055307896	 0.13143
154.9838	169.6391	177.0258	188.1772	225.9586	287.0503	298.9704	390.9927	516.074	535.4989	601.1349	669.6737	686.4342	749.7511	782.2274	821.2896	884.4237	934.0849	951.0488	958.6788	980.3378	1015.3778	1081.1928	1098.1563	1116.1464	1146.9264	1166.8092	1181.8122	1214.8126	1238.9244	1284.9856	1292.6045	1352.6948	1412.209	1415.8126	1438.8057	1474.3551	1483.8712	1486.6421	1495.6495	1504.457	3023.4712	3025.8465	3082.4105	3085.6582	3086.8469	3091.8329	3095.8195	3141.7952	3199.2	3747.5037
CC12C3OC(C1O)C23C	C[C@@]12[C@H]3O[C@@H]([C@H]1O)[C@@]23C	
InChI=1S/C7H10O2/c1-6-3(8)4-7(6,2)5(6)9-4/h3-5,8H,1-2H3	InChI=1S/C7H10O2/c1-6-3(8)4-7(6,2)5(6)9-4/h3-5,8H,1-2H3/t3-,4+,5-,6+,7-/m1/s1
