20
gdb 12019	4.37089	1.37717	1.23563	2.8519	75.51	-0.2308	0.0702	0.301	1064.4645	0.177488	-345.140788	-345.132269	-345.131325	-345.173367	32.27	
C	 0.2039689191	 1.4846094031	-0.0645177307	-0.45047
C	 0.014640564	-0.0094684362	 0.1075587327	 0.334785
C	-1.1874568219	-0.5744239692	-0.6246058828	-0.455823
N	 1.2557938014	-0.8163002138	 0.0967960982	-0.377692
C	 0.4711411131	-0.7159896141	 1.3410734721	-0.085305
C	 1.1549192575	-0.0441116815	 2.498011061	-0.009838
C	 2.4050295384	-0.6309701173	 3.0441781284	-0.238858
N	 2.440256573	 0.6365881335	 2.2962005633	-0.31674
H	 1.0579392579	 1.8553708614	 0.503081107	 0.149203
H	 0.3592756476	 1.7291408345	-1.1214027522	 0.115191
H	-0.6887303623	 2.0226845502	 0.2735918566	 0.114186
H	-1.0960708039	-0.4107239852	-1.7049190367	 0.122126
H	-1.2936435857	-1.6507339342	-0.4520704367	 0.110006
H	-2.1130310293	-0.0888760655	-0.2962521752	 0.124887
H	 1.0989859933	-1.7117454865	-0.3579458576	 0.227533
H	-0.1234314599	-1.584548154	 1.6262423604	 0.080326
H	 0.483838279	 0.4680408938	 3.1856017805	 0.090872
H	 2.6301823324	-0.552705908	 4.1041401565	 0.112981
H	 2.7936256768	-1.5219351759	 2.5567474037	 0.109081
H	 2.7377462194	 0.425879105	 1.3428859914	 0.243547
105.5945	156.0754	169.6766	191.2762	237.033	304.4087	325.7616	382.1408	415.2768	507.7857	621.9414	710.9588	765.8153	846.9106	856.9065	918.21	951.0955	964.2174	977.7225	994.5118	1032.218	1033.0524	1075.5373	1097.0471	1130.28	1146.585	1155.0189	1195.6465	1215.5356	1295.6149	1307.408	1318.8808	1354.2938	1401.6131	1415.6185	1428.0593	1454.5934	1480.4958	1490.0676	1502.3367	1507.4548	1513.6589	3022.8853	3034.6166	3086.3262	3091.3286	3095.6377	3099.0455	3104.4488	3119.6557	3147.5698	3190.8317	3458.6454	3503.0491
CC1(C)NC1C1CN1	CC1(C)N[C@H]1[C@H]1CN1	
InChI=1S/C6H12N2/c1-6(2)5(8-6)4-3-7-4/h4-5,7-8H,3H2,1-2H3	InChI=1S/C6H12N2/c1-6(2)5(8-6)4-3-7-4/h4-5,7-8H,3H2,1-2H3/t4-,5+/m1/s1
