19
gdb 68533	2.61782	1.98718	1.69056	1.4249	77.45	-0.2324	0.0103	0.2427	912.484	0.160774	-385.864766	-385.857822	-385.856878	-385.895432	29.816	
C	-0.0131851683	 1.4910448884	-0.0496125074	-0.504174
C	 0.0231864671	-0.0150230853	 0.0546115403	 0.360046
O	 0.6547908642	-0.612928967	-1.103791966	-0.276174
C	 0.5492229853	-1.9700261942	-0.6415255282	-0.003451
C	 1.1871689791	-1.859712147	 0.740672924	-0.089843
C	 0.8533938969	-0.6455291726	 1.1767941343	-0.124907
C	-1.0036963126	-2.1106375423	-0.4897721103	-0.045327
C	-1.6713664651	-1.9463598635	 0.8526782868	-0.307441
C	-1.3737157265	-0.7358796717	 0.0046911499	-0.066969
H	 0.9995582116	 1.8957279752	-0.1266128645	 0.129396
H	-0.5762530103	 1.7991954054	-0.9355079305	 0.126742
H	-0.4950497333	 1.9237716756	 0.8324408656	 0.12079
H	 1.0024645491	-2.657518177	-1.3540005732	 0.073933
H	 1.6958820473	-2.6547408574	 1.2687754004	 0.105735
H	 1.0249209729	-0.2013585693	 2.148338289	 0.10342
H	-1.536563509	-2.5861973605	-1.3039072301	 0.091791
H	-2.7132151239	-2.249116566	 0.9122549753	 0.106113
H	-1.1038758863	-2.1201530866	 1.7591212172	 0.113018
H	-2.1882639883	-0.1729862244	-0.4363354922	 0.087299
207.0809	246.3229	279.8849	340.6102	354.5188	504.169	521.402	611.2853	631.2732	678.045	723.4142	764.1273	782.904	809.736	841.885	871.2164	886.2439	915.4924	934.9141	938.5168	968.7015	993.0824	1043.3869	1053.6893	1091.2085	1096.96	1106.9821	1138.7784	1180.4725	1198.2801	1231.0426	1254.7311	1282.5774	1303.014	1344.6882	1370.6384	1414.2168	1475.7917	1483.1092	1497.2421	1640.178	3043.004	3114.971	3120.8303	3125.6343	3132.5347	3172.1528	3186.5895	3211.1345	3215.6018	3237.5491
CC12OC(C=C1)C1CC21	C[C@@]12O[C@@H](C=C1)[C@H]1C[C@@H]21	
InChI=1S/C8H10O/c1-8-3-2-7(9-8)5-4-6(5)8/h2-3,5-7H,4H2,1H3	InChI=1S/C8H10O/c1-8-3-2-7(9-8)5-4-6(5)8/h2-3,5-7H,4H2,1H3/t5-,6+,7-,8+/m0/s1
