20
gdb 84425	3.32496	1.17427	0.9454	4.0452	84.17	-0.2102	-0.0022	0.208	1274.2614	0.171159	-403.191776	-403.182804	-403.18186	-403.225444	33.83	
C	-0.4144426168	 1.4963098256	-0.0219922194	-0.405569
C	 0.0694997842	 0.0424766519	-0.015244864	-0.035948
C	 1.0372540572	-0.3117492802	-1.1291320619	-0.16789
C	 1.9944550164	-1.1186906456	-0.6730948374	 0.000542
N	 1.8659241777	-1.3434582152	 0.7054373739	-0.048128
C	 2.6060104123	-2.239995925	 1.4163349975	 0.138892
O	 3.4671351804	-2.9573269512	 0.9492645075	-0.335559
C	 0.849346239	-0.4212085721	 1.2650247474	-0.01416
C	 1.5317455134	 0.7007864889	 2.0539848008	-0.388774
H	 0.414628507	 2.2067913626	 0.0354358577	 0.124369
H	-0.9579564724	 1.6983050376	-0.9503892058	 0.11988
H	-1.0989526241	 1.6981944129	 0.8082309915	 0.11751
H	-0.8220297196	-0.5948311485	-0.1164353366	 0.091488
H	 0.9212421722	 0.0089839236	-2.1547315357	 0.105325
H	 2.807445602	-1.6084404318	-1.1876455252	 0.153049
H	 2.3235968709	-2.2493297155	 2.4872652564	 0.070581
H	 0.1875307933	-0.9797500043	 1.9334206897	 0.09574
H	 2.2242799187	 1.2609236208	 1.4191390474	 0.133978
H	 0.7963485325	 1.3966842376	 2.4669697074	 0.123088
H	 2.1018907858	 0.2811686181	 2.8879750589	 0.121585
61.8568	118.7468	208.1602	248.8105	268.5908	276.5736	286.1326	325.4847	358.8476	445.6319	524.9177	597.6886	707.5859	748.0173	770.1432	796.2291	873.5774	910.8031	941.6764	990.906	1020.665	1029.1361	1066.7955	1086.2779	1105.6607	1145.2559	1170.0348	1230.4075	1274.0021	1306.47	1328.888	1358.5216	1370.9818	1408.3104	1415.4597	1437.1359	1440.9599	1486.03	1492.7546	1505.3462	1508.8762	1679.8489	1785.8008	2938.559	2977.1349	3037.6736	3044.9944	3060.7972	3101.9848	3113.7666	3117.6115	3124.8295	3231.9225	3266.6335
CC1C=CN(C=O)C1C	C[C@H]1C=CN(C=O)[C@H]1C	
InChI=1S/C7H11NO/c1-6-3-4-8(5-9)7(6)2/h3-7H,1-2H3	InChI=1S/C7H11NO/c1-6-3-4-8(5-9)7(6)2/h3-7H,1-2H3/t6-,7-/m0/s1
