17
gdb 38328	4.05253	1.48311	1.24615	0.4238	71.87	-0.2387	0.0169	0.2556	992.6533	0.138836	-417.944682	-417.937984	-417.93704	-417.975962	26.71	
C	-0.1427815374	 1.5230111412	 0.0948451732	-0.211382
C	 1.3891761548	 1.2848079175	 0.0977307244	-0.11066
N	 1.1195104055	 0.1747851258	 1.1062999122	-0.335407
C	 0.0854561175	-0.0076408333	 0.0019712842	-0.110572
C	 1.1701594732	 0.2849630113	-1.0685174513	 0.466086
C	 0.8833149441	 0.6825236759	-2.5350946396	-0.279549
N	 1.7737055732	-0.1584158883	-3.3529746145	-0.264372
C	 2.416804881	-0.8677194781	-2.5248995248	 0.099768
O	 2.189148454	-0.7334209994	-1.1960466182	-0.27575
H	-0.5425380122	 1.8553602531	 1.0517690824	 0.119099
H	-0.5873890492	 2.0348094784	-0.7592733884	 0.106702
H	 2.1937984351	 2.0095694678	 0.2300250486	 0.088318
H	 1.8398837297	-0.5444284035	 1.0056567253	 0.227296
H	-0.6518496506	-0.8115132386	 0.0210024246	 0.088335
H	-0.1595347575	 0.502467298	-2.8180080202	 0.125499
H	 1.0932079011	 1.7403756266	-2.727396477	 0.12548
H	 3.1678434977	-1.6081773543	-2.7769550009	 0.141108
82.7137	218.1294	236.1168	385.9179	428.3626	517.8751	532.6403	631.4595	775.0856	782.965	795.2985	873.314	884.7861	897.587	914.1846	960.2691	988.6945	1012.1773	1025.8234	1063.7633	1066.048	1106.8349	1110.1589	1157.5732	1170.2901	1188.258	1200.818	1208.9427	1231.731	1287.7802	1299.9879	1311.5938	1332.0298	1340.8973	1490.2036	1495.2441	1710.6526	3037.4081	3069.6872	3087.5875	3106.8157	3113.3725	3168.7283	3216.5352	3425.5713
C1C2NC1C21CN=CO1	C1[C@H]2N[C@@H]1[C@]12CN=CO1	
InChI=1S/C6H8N2O/c1-4-6(5(1)8-4)2-7-3-9-6/h3-5,8H,1-2H2	InChI=1S/C6H8N2O/c1-4-6(5(1)8-4)2-7-3-9-6/h3-5,8H,1-2H2/t4-,5+,6-
