18
gdb 80946	2.44912	1.34418	1.25308	4.7007	77.38	-0.2761	0.0257	0.3018	1113.9587	0.147427	-401.917299	-401.908828	-401.907883	-401.95007	32.529	
C	-0.1196886451	 1.6109422639	 0.0350468684	-0.451462
C	 0.0292533627	 0.0986960682	 0.0399853596	 0.004207
C	 1.1803640265	-0.6279880907	-0.7371228636	-0.06813
C	 2.177087718	-0.1636621906	 0.3633447186	-0.318071
C	 0.8889702898	-0.6295390218	 1.1111962875	 0.392065
O	 0.6024779232	-0.5995583578	 2.4524494847	-0.458998
C	 0.9133702043	-1.8899951228	 0.1475373394	-0.2168
C	-0.29725193	-2.6655707807	-0.0507589212	 0.270782
N	-1.2480213054	-3.3071429459	-0.2012852791	-0.34059
H	 0.8230742066	 2.150035043	 0.1535799001	 0.119727
H	-0.5749849174	 1.9412956	-0.904340075	 0.124744
H	-0.7829706388	 1.9217503184	 0.8485769394	 0.135971
H	-0.9490230571	-0.3673272163	-0.1097221795	 0.102381
H	 1.3483762669	-0.6441170389	-1.8107654663	 0.098971
H	 3.0726178759	-0.7772839123	 0.4966136758	 0.095143
H	 2.4176864556	 0.8969869972	 0.4034940164	 0.110656
H	 1.3095810664	-1.0353069959	 2.94111648	 0.291047
H	 1.772256408	-2.5544304069	 0.2738164747	 0.108358
131.3477	143.2049	164.8701	205.9839	266.849	313.3516	371.1851	406.0231	456.8197	515.242	549.2029	647.905	671.7641	761.3335	786.2778	813.3623	898.4218	938.3909	953.0661	1003.5183	1036.7651	1076.1953	1085.9494	1097.0938	1112.2647	1145.2249	1153.8363	1198.658	1219.6883	1229.83	1296.5449	1342.4777	1387.6899	1414.5968	1440.0761	1494.4752	1502.9498	1533.7302	2347.8881	3042.2372	3064.7998	3068.8625	3079.4969	3102.8231	3119.9192	3155.478	3159.0084	3806.5026
CC1C2CC1(O)C2C#N	C[C@H]1[C@H]2C[C@]1(O)[C@H]2C#N	
InChI=1S/C7H9NO/c1-4-5-2-7(4,9)6(5)3-8/h4-6,9H,2H2,1H3	InChI=1S/C7H9NO/c1-4-5-2-7(4,9)6(5)3-8/h4-6,9H,2H2,1H3/t4-,5+,6-,7+/m0/s1
