18
gdb 119448	2.83609	1.23549	1.07655	3.3836	72.24	-0.2478	-0.0114	0.2363	1179.3006	0.146309	-439.052371	-439.043596	-439.042651	-439.086425	31.963	
C	-0.44512137	 0.6519582787	-1.1774836125	-0.247581
O	-0.0841268209	 0.0161912717	 0.0384204029	-0.232594
C	 1.1159196206	-0.7217903294	-0.0320016235	-0.182937
C	 0.9306449061	-2.1087440564	-0.5840129852	 0.3183
C	 1.9646026953	-2.8517266452	-1.3146201498	-0.292639
N	 0.781671411	-2.3725426762	-2.1003517999	-0.20606
C	-0.2928609932	-3.2996049305	-1.7652810762	 0.410245
O	-0.9777172052	-3.9375314033	-2.4997097984	-0.292318
C	-0.2565094101	-3.0167882757	-0.2557014621	-0.431098
H	 0.3276929296	 1.369476994	-1.4920997824	 0.109222
H	-0.6035925317	-0.0633385761	-1.9926522644	 0.138333
H	-1.3734770542	 1.1944063357	-0.9847483657	 0.12963
H	 1.878484995	-0.190179444	-0.6222965199	 0.099766
H	 1.4868368625	-0.8005382062	 0.9978714874	 0.117468
H	 2.8752858928	-2.3337224366	-1.5989020701	 0.138724
H	 2.0844388773	-3.9214846573	-1.159878362	 0.133909
H	-0.0924184107	-3.8613492155	 0.4181231869	 0.131135
H	-1.1398041841	-2.4576406276	 0.0618545849	 0.158495
68.1378	85.2225	124.2276	176.6416	235.9331	274.9535	373.9268	410.5273	482.9004	529.2878	577.1638	625.6364	652.0946	756.6599	835.8045	916.1385	942.0788	966.025	1011.2331	1023.1637	1030.0375	1102.3766	1126.8031	1137.4872	1162.8714	1183.501	1209.8487	1222.5211	1279.48	1338.4628	1360.2011	1420.8537	1454.9298	1469.9323	1484.2282	1488.627	1508.0889	1514.9639	1921.3486	2985.4856	2993.947	3050.5431	3067.0444	3071.2834	3111.4204	3124.5251	3131.4477	3202.4143
COCC12CN1C(=O)C2	COC[C@]12CN1C(=O)C2	
InChI=1S/C6H9NO2/c1-9-4-6-2-5(8)7(6)3-6/h2-4H2,1H3	InChI=1S/C6H9NO2/c1-9-4-6-2-5(8)7(6)3-6/h2-4H2,1H3/t6-,7?/m0/s1
