19
gdb 71993	1.86532	1.82808	1.68271	1.0366	75.52	-0.2175	0.0639	0.2813	1008.9924	0.157382	-422.964947	-422.956164	-422.955219	-422.997727	33.82	
C	-0.1728117768	 1.471158299	-0.0707884125	-0.508166
C	-0.0065771689	-0.0188418562	-0.0554601356	 0.198631
C	 0.9494382304	-0.8719319878	-0.8933638726	-0.278777
C	 0.1532740226	-2.0864560356	-0.3616573655	-0.01315
O	 0.469359676	-2.1104222009	 1.0540267676	-0.318698
C	-0.3066906534	-0.9177039341	 1.2005168283	 0.32368
C	-0.6385066177	-0.4376320719	 2.5719265806	-0.513972
C	-1.0707413105	-1.1014587152	-0.0761571024	 0.220589
O	-2.3793807919	-1.0114610017	-0.4689774879	-0.446946
H	 0.7132055872	 1.975990818	 0.3310314102	 0.121666
H	-0.3323776641	 1.8389076374	-1.0906342036	 0.124636
H	-1.0359685072	 1.7858628194	 0.524442892	 0.122992
H	 0.786742329	-0.7095355692	-1.9629809398	 0.101745
H	 2.0192199107	-0.8631411358	-0.6600314882	 0.095876
H	 0.1672188586	-3.0683744467	-0.8305746002	 0.082983
H	 0.2688216864	-0.1571843893	 3.1179783756	 0.13447
H	-1.2922229354	 0.4374419236	 2.5271067998	 0.130857
H	-1.1504021712	-1.2183442171	 3.1442206958	 0.127655
H	-2.8886176338	-1.6850533658	-0.0025937216	 0.293928
149.7108	161.9847	174.0167	180.6158	243.8565	273.5433	343.1723	374.0252	390.2562	482.0491	570.5267	612.8049	642.3104	672.8288	737.1686	826.7663	860.4241	907.1015	923.2312	942.9532	977.8323	1026.077	1078.7655	1093.4397	1131.9671	1148.2254	1159.4353	1207.8573	1236.6221	1257.0568	1294.8552	1321.6196	1376.5174	1417.3168	1421.0698	1469.3599	1475.9144	1486.9578	1492.4857	1494.797	1528.1171	3024.7969	3034.4676	3042.1007	3083.6918	3094.1003	3096.2218	3103.0523	3120.3329	3140.8192	3777.5805
CC12CC3OC1(C)C23O	C[C@@]12C[C@H]3O[C@]1(C)[C@@]23O	
InChI=1S/C7H10O2/c1-5-3-4-7(5,8)6(5,2)9-4/h4,8H,3H2,1-2H3	InChI=1S/C7H10O2/c1-5-3-4-7(5,8)6(5,2)9-4/h4,8H,3H2,1-2H3/t4-,5-,6+,7+/m1/s1
