12
gdb 53723	3.64599	0.69846	0.64442	3.8279	76.65	-0.2766	-0.0956	0.181	1658.8818	0.07438	-435.453185	-435.443677	-435.442733	-435.489532	31.826	
N	 0.2943170104	 1.1219925719	 0.4363586774	-0.521681
C	-0.1966924667	 0.2771197858	-0.5103217733	 0.278656
O	 0.2789353649	 0.1339171624	-1.6180023171	-0.320763
C	-1.3849315317	-0.4606325455	-0.0890739484	-0.008764
C	-2.364354225	-1.1088033816	 0.1931781867	 0.073273
C	-3.52421754	-1.8994243858	 0.5494332421	 0.156358
O	-3.4563739997	-2.8540630339	 1.2967183852	-0.25734
C	-4.7618252471	-1.4552244534	-0.0546459719	 0.288368
C	-5.7920955178	-1.0880458254	-0.5565198094	-0.465155
H	 1.1421336977	 1.6252457297	 0.2297707588	 0.274828
H	-0.0791800634	 1.1446687473	 1.3695973189	 0.275151
H	-6.7054697616	-0.7698482115	-0.9983326491	 0.227066
22.2417	65.2981	87.5602	171.7534	205.691	224.7359	277.6817	305.8864	368.3714	546.4765	559.7406	582.1413	623.0087	660.3601	692.56	712.6903	769.139	773.682	901.2804	1091.3963	1179.4731	1348.2247	1611.7931	1724.7503	1779.8237	2218.4085	2316.6846	3492.0508	3598.2588	3737.8535
NC(=O)C#CC(=O)C#C	NC(=O)C#CC(=O)C#C	
InChI=1S/C6H3NO2/c1-2-5(8)3-4-6(7)9/h1H,(H2,7,9)	InChI=1S/C6H3NO2/c1-2-5(8)3-4-6(7)9/h1H,(H2,7,9)
