17
gdb 13233	4.18121	1.28595	1.03365	1.7228	69.21	-0.2341	0.0362	0.2703	1109.4354	0.141475	-363.785061	-363.776731	-363.775786	-363.818627	29.842	
C	 0.1793024697	-0.2333304101	 1.2509142245	-0.465867
C	 0.0336347538	 0.5320393572	 0.3344103771	 0.318334
C	-0.1067918665	 1.4683447029	-0.7902980472	-0.324516
N	 1.0280894521	 2.3611324462	-1.0273578958	-0.278833
C	 1.3209727091	 3.2889416959	 0.039201331	 0.017301
C	 2.1574949021	 2.8970738427	 1.2933738774	-0.089621
O	 3.0428162965	 4.0167935224	 1.0805587646	-0.272957
C	 2.4715630806	 4.2830961053	-0.214308016	-0.096243
H	 0.3006780057	-0.9101416303	 2.0604073418	 0.202026
H	-0.2898612895	 0.8999780152	-1.7096993823	 0.136666
H	-0.9974628131	 2.089978868	-0.633619846	 0.139598
H	 1.8535222462	 1.8131352306	-1.2514652314	 0.222281
H	 0.3903671561	 3.7935263221	 0.3155556762	 0.092242
H	 1.6656475571	 2.9383515881	 2.2709695768	 0.105328
H	 2.6755559721	 1.9333283422	 1.1915772552	 0.094463
H	 3.1364333582	 3.9732813535	-1.0347499724	 0.092601
H	 2.2111275198	 5.338691508	-0.3486998935	 0.107197
62.8775	81.3212	104.555	200.9205	243.5106	339.2325	377.7215	422.1302	587.211	625.358	660.6329	680.9861	786.886	869.9642	888.1089	922.1797	959.7038	1003.0429	1024.5559	1036.5624	1068.7367	1145.881	1149.1983	1166.2607	1191.1746	1261.1916	1292.6909	1298.2574	1350.2208	1365.6883	1401.5686	1461.2163	1504.5426	1509.8308	1532.3921	2225.2863	2988.6523	3007.9143	3027.178	3055.2068	3062.5326	3065.3634	3079.1592	3502.4556	3510.1206
C#CCNC1COC1	C#CCNC1COC1	
InChI=1S/C6H9NO/c1-2-3-7-6-4-8-5-6/h1,6-7H,3-5H2	InChI=1S/C6H9NO/c1-2-3-7-6-4-8-5-6/h1,6-7H,3-5H2
