19
gdb 91707	2.59551	1.79528	1.58133	1.2807	75.05	-0.2429	0.0104	0.2533	956.8704	0.161411	-423.045293	-423.038008	-423.037064	-423.076668	29.587	
C	-0.2962956065	 1.5574655781	-0.0625495156	-0.411957
C	 0.020040216	 0.0746093971	 0.0006016007	 0.147062
O	 0.8865588774	-0.2942644088	-1.0850540098	-0.296878
C	 1.829902263	-1.2366965468	-0.5769983206	 0.186997
C	 3.1860397815	-0.54870086	-0.359263355	-0.272325
C	 3.1019789771	 0.3675110849	 0.8368209142	-0.059356
C	 1.9939479848	 0.4341877888	 1.5748518702	-0.0605
C	 0.8216250271	-0.4495333902	 1.2154439974	-0.012758
O	 1.311672425	-1.6788900494	 0.6585964416	-0.254931
H	 0.6145241586	 2.1560326433	 0.0137551045	 0.127573
H	-0.7882581701	 1.7943246767	-1.0098819431	 0.129089
H	-0.974979887	 1.8382722422	 0.7500598805	 0.112552
H	-0.9092471691	-0.5096091566	-0.0703594906	 0.077213
H	 1.8947625487	-2.0947428501	-1.253324974	 0.085518
H	 3.9747817809	-1.3005328923	-0.2182816876	 0.109783
H	 3.4440608776	 0.014013959	-1.2643478273	 0.119051
H	 3.97629235	 0.9640439447	 1.0828094451	 0.094615
H	 1.9067952732	 1.1034263872	 2.4246774982	 0.092335
H	 0.1941998317	-0.6942824179	 2.0743136212	 0.086916
129.5289	210.643	227.249	315.0796	355.5599	416.8086	486.3872	514.405	561.0586	676.0081	707.7492	765.2654	842.9002	853.3434	868.4777	909.8537	930.8906	943.6055	983.986	992.9673	1015.763	1046.1338	1076.5663	1108.5273	1131.1621	1165.6206	1184.116	1197.7738	1265.59	1307.329	1328.7547	1354.2026	1360.3039	1381.7515	1390.3865	1410.5445	1417.4387	1459.3445	1486.9015	1498.971	1705.83	2992.4785	3016.7367	3042.2325	3060.4372	3066.467	3102.9777	3111.1602	3130.1931	3158.3692	3185.511
CC1OC2CC=CC1O2	C[C@H]1O[C@H]2CC=C[C@@H]1O2	
InChI=1S/C7H10O2/c1-5-6-3-2-4-7(8-5)9-6/h2-3,5-7H,4H2,1H3	InChI=1S/C7H10O2/c1-5-6-3-2-4-7(8-5)9-6/h2-3,5-7H,4H2,1H3/t5-,6+,7-/m1/s1
