20
gdb 107204	3.78737	1.23125	1.10691	2.4414	77.15	-0.235	0.0667	0.3017	1166.3258	0.172252	-403.12034	-403.112381	-403.111437	-403.152798	31.486	
C	 0.0455633692	 1.4782535623	-0.3430883326	-0.380502
C	-0.00688233	 0.0548099434	 0.2259757451	-0.247044
C	-1.4026600073	-0.5294458425	 0.2200195689	 0.334613
C	-2.465190507	 0.0744442995	 1.15531111	-0.3286
C	-3.4330851893	-1.0538843246	 1.4835485395	 0.04057
O	-4.1259225934	-1.6079328334	 0.3532136922	-0.260345
C	-2.9625251189	-2.2938099026	 0.8468185424	 0.027175
C	-1.7020850159	-1.9889414317	 0.0583698863	-0.124477
N	-1.8526968594	-1.0645511663	-1.0743374481	-0.369291
H	 1.0720787827	 1.8563596808	-0.3637846349	 0.111151
H	-0.3434386255	 1.4933741847	-1.3658105269	 0.132281
H	-0.5512074794	 2.1748677241	 0.2557534495	 0.112015
H	 0.6367183169	-0.5988604091	-0.3721056462	 0.106479
H	 0.3880674942	 0.0444801933	 1.2505111973	 0.088963
H	-1.9904543583	 0.4182012171	 2.0822352697	 0.109026
H	-2.9777334682	 0.9374807655	 0.7158790863	 0.120541
H	-4.0139080002	-1.0285681606	 2.4026524948	 0.100283
H	-3.1396994699	-3.2883286567	 1.2443438096	 0.100406
H	-0.9426575996	-2.7586312287	-0.0367033422	 0.086311
H	-2.8487050606	-0.8954057347	-1.2095297506	 0.240446
80.325	141.332	214.6679	267.8043	312.8071	362.5104	377.3638	433.5789	595.0731	643.0289	707.8353	726.0032	782.8636	807.5611	848.5214	880.7404	889.6902	930.9405	949.1841	968.265	1008.3546	1034.6745	1053.3981	1077.0265	1100.782	1121.4248	1143.2092	1186.1134	1205.1373	1251.4097	1266.4805	1287.7448	1308.4294	1317.1517	1355.0347	1363.2194	1405.6761	1416.1637	1436.1052	1471.4793	1475.691	1499.9528	1508.1316	3020.4784	3034.3255	3037.7381	3070.9099	3077.0368	3102.7877	3113.1166	3139.2444	3156.0113	3171.4919	3473.9473
CCC12CC3OC3C1N2	CC[C@]12C[C@H]3O[C@H]3[C@H]1N2	
InChI=1S/C7H11NO/c1-2-7-3-4-5(9-4)6(7)8-7/h4-6,8H,2-3H2,1H3	InChI=1S/C7H11NO/c1-2-7-3-4-5(9-4)6(7)8-7/h4-6,8H,2-3H2,1H3/t4-,5-,6-,7+/m1/s1
