23
gdb 97645	2.72984	0.71313	0.59385	1.3652	92.82	-0.2467	0.0472	0.2939	1987.1258	0.202598	-388.265058	-388.253343	-388.252398	-388.303942	40.384	
C	-1.2198827716	 2.5186984203	-1.1166619368	-0.364104
C	-0.8112206529	 1.1791928525	-0.4773150428	-0.317099
C	-1.9014801533	 0.2105927973	-0.4214503561	 0.08863
C	-2.8140044816	-0.576329176	-0.3875398461	 0.066506
C	-3.9138885054	-1.5492270705	-0.3320875749	-0.067323
C	-3.3934445867	-2.9927409696	-0.2609848856	-0.175765
C	-4.5151945747	-4.0312352726	-0.3192100613	-0.389366
O	-4.7515994498	-1.350345508	 0.7998731926	-0.229176
C	-5.4790945279	-0.142608689	 0.7709949622	-0.23341
H	-0.3700139275	 3.2074574706	-1.1367457734	 0.114491
H	-1.5675686777	 2.36960389	-2.1424967046	 0.127696
H	-2.0299653926	 2.9875539759	-0.551382015	 0.127186
H	 0.0272119562	 0.7458486383	-1.0378404249	 0.130103
H	-0.432125477	 1.3567599322	 0.5372969575	 0.131017
H	-4.5222210189	-1.4393223181	-1.2485880143	 0.081793
H	-2.688928366	-3.1376400814	-1.0867839239	 0.103895
H	-2.8220642246	-3.0958393513	 0.6678366545	 0.113385
H	-4.1103410348	-5.0450673131	-0.2461949538	 0.108898
H	-5.2222292728	-3.8823436269	 0.500005497	 0.135205
H	-5.0708819202	-3.9618293116	-1.2614529353	 0.108902
H	-6.1380483239	-0.0875935238	-0.1102456549	 0.099936
H	-6.0941636463	-0.1183128771	 1.6737649881	 0.124157
H	-4.8158634101	 0.7331909619	 0.7630894818	 0.114442
16.4373	69.0214	81.7471	111.7646	132.9522	167.5002	202.0497	214.7813	241.6058	274.9856	309.3625	359.413	444.4629	495.8211	517.3534	574.4865	748.2688	784.4236	795.0945	891.8481	940.5722	968.6479	1047.8586	1078.1359	1102.0797	1106.6076	1123.7562	1149.6282	1164.1632	1185.4686	1225.6965	1286.1282	1291.6028	1316.2349	1349.3693	1365.0807	1383.0498	1406.8863	1408.6807	1472.6216	1474.8629	1478.3949	1482.9174	1495.4574	1495.8546	1505.3044	1508.8377	1511.867	2356.296	2931.7509	2977.1797	3020.2465	3036.0693	3038.1522	3043.9277	3046.7899	3047.5388	3084.271	3102.4777	3115.6635	3117.4221	3123.3768	3130.1488
CCC#CC(CC)OC	CCC#C[C@@H](CC)OC	
InChI=1S/C8H14O/c1-4-6-7-8(5-2)9-3/h8H,4-5H2,1-3H3	InChI=1S/C8H14O/c1-4-6-7-8(5-2)9-3/h8H,4-5H2,1-3H3/t8-/m1/s1
