16
gdb 113635	1.96665	1.70517	1.04265	2.6839	72.91	-0.2692	-0.0653	0.2039	1131.0323	0.12398	-434.040132	-434.031286	-434.030342	-434.074075	31.806	
O	-0.0152150711	 1.2067796365	 0.5643959064	-0.41565
C	-0.0948505845	-0.1652779082	 0.2444775793	-0.089681
C	-1.5017673496	-0.6141874212	-0.094178861	-0.032631
C	-1.8748428168	-2.0652920756	-0.0501097629	-0.252947
N	-2.4086118254	-1.1446328481	 0.9328031842	-0.074189
C	-2.0982775985	-1.2632334122	 2.2742748787	 0.227539
N	-1.9830962186	-2.3847163251	 2.8713502539	-0.481585
C	-1.9794325789	 0.0223206323	 2.9496661568	 0.272018
N	-1.822551514	 1.0316661611	 3.4936398848	-0.337353
H	-0.437938652	 1.3573443197	 1.4179608665	 0.299886
H	 0.5313486274	-0.3031953967	-0.6440955755	 0.126674
H	 0.3214228423	-0.8084448715	 1.03638277	 0.103231
H	-2.0067290283	 0.0253203649	-0.8144822531	 0.122786
H	-2.5919311844	-2.4635681212	-0.7611058168	 0.138363
H	-1.1320672845	-2.7743273243	 0.3070113953	 0.146531
H	-1.855507213	-2.2605649805	 3.8745067935	 0.24701
63.982	114.8754	150.3813	160.8029	244.2893	274.5137	339.1908	376.1004	412.4619	498.8309	536.7393	575.9433	699.8711	738.1428	820.2158	872.2538	921.4952	955.1345	994.5382	1074.3287	1085.5586	1095.1516	1134.3287	1145.6654	1169.8781	1238.4504	1276.0553	1352.3017	1403.1695	1419.8614	1438.3978	1492.5656	1508.5001	1671.574	2337.9489	2982.8898	3068.7953	3117.9913	3146.3574	3208.3116	3508.8767	3794.1363
OCC1CN1C(=N)C#N	OC[C@H]1CN1[C]([NH])C#N	
InChI=1S/C5H7N3O/c6-1-5(7)8-2-4(8)3-9/h4,7,9H,2-3H2	InChI=1S/C5H7N3O/c6-1-5(7)8-2-4(8)3-9/h4,7,9H,2-3H2/t4-,8?/m1/s1
