21
gdb 60067	2.95541	0.99602	0.94143	2.1216	74.85	-0.2429	0.0624	0.3053	1371.6382	0.17989	-461.33791	-461.327739	-461.326794	-461.373435	37.323	
C	-0.0292739525	 1.5443964656	-0.020428923	-0.403609
C	 0.0198673382	 0.0169640417	-0.0633565554	 0.120084
O	 0.8133389581	-0.4364720262	-1.1636130117	-0.432883
C	 0.6405002149	-0.570460407	 1.2048512588	-0.210937
C	 0.5793851141	-2.0920471956	 1.2929874762	 0.331769
O	-0.778006142	-2.4604513675	 1.1872077242	-0.477083
C	 1.6043998056	-2.8715991735	 0.4249381569	-0.128712
O	 2.3871056675	-3.2090455038	 1.5903215641	-0.274009
C	 1.3792617067	-2.6952897894	 2.4787525496	-0.126623
H	 0.9778760868	 1.9587284678	 0.0920782794	 0.122722
H	-0.4591763788	 1.9441039019	-0.9461759302	 0.103057
H	-0.6483133933	 1.8972512551	 0.8109340304	 0.116414
H	-1.0007718703	-0.3793957593	-0.1553427347	 0.089477
H	 0.393289348	-0.1372395298	-1.9757501995	 0.28157
H	 1.6867658903	-0.251339309	 1.2748882782	 0.111562
H	 0.1117608901	-0.158952097	 2.0727876059	 0.102734
H	-0.8320204249	-3.4217357627	 1.1785983963	 0.280369
H	 1.1706850709	-3.7624915375	-0.0552911752	 0.07958
H	 2.1710145469	-2.3021829023	-0.3131658778	 0.130113
H	 1.7905476977	-1.9974435294	 3.2183173581	 0.100607
H	 0.8333617059	-3.4936497721	 3.0044725396	 0.083796
52.6148	64.0103	125.1949	165.2166	243.2921	271.9878	273.9017	303.0884	310.1228	369.9206	417.9181	435.3377	480.0845	502.0971	714.7446	830.866	852.6265	885.9311	916.23	956.0471	965.882	999.9895	1024.6787	1031.6952	1073.2274	1093.6215	1130.7774	1144.896	1154.2344	1158.3039	1183.5223	1263.1951	1290.6585	1321.2271	1324.7856	1365.0486	1390.4408	1406.9284	1410.8685	1433.6744	1461.819	1492.6479	1499.5568	1505.4801	1532.2809	2977.5442	2989.0367	3013.3225	3026.4506	3035.7159	3049.1546	3082.2646	3093.3662	3111.2362	3119.5375	3811.9821	3822.4299
CC(O)CC1(O)COC1	C[C@@H](O)CC1(O)COC1	
InChI=1S/C6H12O3/c1-5(7)2-6(8)3-9-4-6/h5,7-8H,2-4H2,1H3	InChI=1S/C6H12O3/c1-5(7)2-6(8)3-9-4-6/h5,7-8H,2-4H2,1H3/t5-/m1/s1
