18
gdb 118380	3.19686	0.81455	0.68245	5.9237	77.73	-0.2468	0.0099	0.2567	1626.5768	0.1471	-398.144334	-398.13424	-398.133296	-398.180418	34.502	
C	-0.1000418154	 1.4785650021	-0.0164166131	-0.316424
N	 0.0227539682	 0.0254194388	-0.0021257401	-0.295704
C	 0.7072185848	-0.5029928454	-1.1647043493	-0.137704
C	 0.7143270996	-2.0474127531	-1.144478499	-0.153712
C	 1.3618937948	-2.6109735625	-2.4357066518	-0.354386
C	 1.2486078632	-4.0624423796	-2.5507030017	 0.270188
N	 1.1428832538	-5.2086899835	-2.6444083021	-0.288742
C	 1.4142076674	-2.5322896802	 0.0493590058	 0.289852
N	 1.9788621534	-2.8666912504	 1.0006637815	-0.318988
H	 0.8606673583	 2.0123785559	-0.1207004869	 0.102552
H	-0.7427528406	 1.7839105241	-0.8498368857	 0.125856
H	-0.576525782	 1.809605505	 0.9098894127	 0.131243
H	 0.5090557154	-0.26698664	 0.8401031951	 0.238748
H	 0.1596545148	-0.1840998872	-2.0604567688	 0.114677
H	 1.7468832564	-0.1409377759	-1.2801327299	 0.097281
H	-0.3242307878	-2.3888467506	-1.0827925208	 0.159349
H	 0.8695851216	-2.1535980968	-3.3006076	 0.163705
H	 2.4192663839	-2.3298992906	-2.478410966	 0.172208
54.2657	88.9051	97.9424	107.7154	157.115	222.7087	246.4856	251.6612	352.7931	385.3651	389.0474	495.8282	559.1858	647.2879	781.5724	799.2965	918.3847	933.5617	997.6216	1049.3358	1059.1548	1072.289	1147.6471	1158.9883	1203.2379	1214.8865	1258.9191	1297.3105	1348.7109	1371.0639	1390.623	1461.5061	1465.7108	1489.5801	1497.2942	1514.3204	1522.3146	2358.1589	2369.6908	2921.0611	2955.3557	3043.5033	3053.1417	3060.3308	3070.3734	3098.2404	3114.3046	3515.4953
CNCC(CC#N)C#N	CNC[C@@H](CC#N)C#N	
InChI=1S/C6H9N3/c1-9-5-6(4-8)2-3-7/h6,9H,2,5H2,1H3	InChI=1S/C6H9N3/c1-9-5-6(4-8)2-3-7/h6,9H,2,5H2,1H3/t6-/m0/s1
