22
gdb 118710	3.36813	1.11358	0.97707	1.2076	83.59	-0.2244	0.0749	0.2993	1315.7847	0.193941	-404.245952	-404.236729	-404.235785	-404.280379	34.631	
C	 0.1547962764	 1.4634866024	-0.3497883562	-0.223275
O	 0.1041085197	 0.1246187709	-0.7807145525	-0.2364
C	 1.0947138373	-0.6867000072	-0.1771161211	-0.155137
C	 0.8520219793	-2.1273980229	-0.6402630612	 0.387634
C	-0.4136555349	-2.6120431833	 0.0748105697	-0.491087
C	 1.110682449	-2.5351542921	-2.1251006157	-0.09184
C	 2.6067970947	-2.3425468621	-1.8151619402	-0.180639
N	 2.1068912639	-3.0589356702	-0.5391449049	-0.197228
C	 1.3638199669	-3.9511222945	-1.5555903613	-0.179341
H	-0.0024028479	 1.5494162326	 0.7371258414	 0.105269
H	 1.1202823582	 1.9350979218	-0.5929489366	 0.104097
H	-0.6418062313	 2.004406388	-0.8665251316	 0.127355
H	 2.0916268603	-0.3018758491	-0.4209673495	 0.094988
H	 1.0045211226	-0.6519809781	 0.9220329856	 0.090521
H	-1.1260118999	-1.7848311036	 0.1194633115	 0.136433
H	-0.9163355962	-3.4487831569	-0.4103376033	 0.116058
H	-0.1684338332	-2.9096604628	 1.1005383784	 0.126513
H	 0.5482433287	-2.2394843045	-3.0172840798	 0.0672
H	 3.3154020249	-2.9515228089	-2.3816718624	 0.09813
H	 3.0099298462	-1.3433017635	-1.6652897014	 0.099675
H	 0.5422317076	-4.5280005068	-1.1365491127	 0.103241
H	 2.0391949577	-4.6013510394	-2.1170004063	 0.097832
60.7584	86.734	130.3527	149.4317	225.7335	256.5168	332.0983	403.4077	435.1149	446.0792	559.0562	652.6551	710.8031	765.7475	781.941	819.5664	898.5386	916.6135	966.7335	977.5773	987.7201	1010.7408	1061.1005	1062.6107	1100.0179	1113.104	1154.8741	1160.8675	1178.7629	1193.0152	1206.1189	1214.823	1225.9542	1231.8829	1251.4882	1267.3568	1317.785	1399.8156	1415.8793	1479.5924	1484.4442	1485.874	1502.9851	1507.3644	1522.4434	1543.9402	1573.1003	2960.9623	2971.7278	3012.8812	3037.1738	3043.1382	3044.3597	3071.5617	3082.1537	3113.2773	3116.7574	3134.6499	3153.017	3159.3006
COCC1(C)C2CN1C2	COC[C@@]1(C)[C@H]2CN1C2	
InChI=1S/C7H13NO/c1-7(5-9-2)6-3-8(7)4-6/h6H,3-5H2,1-2H3	InChI=1S/C7H13NO/c1-7(5-9-2)6-3-8(7)4-6/h6H,3-5H2,1-2H3/t7-/m0/s1
