14
gdb 45710	3.17005	1.67517	1.15396	2.4529	62.72	-0.2528	-0.0455	0.2073	982.7791	0.102204	-473.829901	-473.823088	-473.822143	-473.861436	25.465	
O	-0.1529047311	-0.0041416174	 0.3044386032	-0.267598
C	-0.0631414626	 1.1692827097	 0.1038469704	 0.332968
C	-1.204934475	 2.1853354746	-0.2060954131	-0.272517
N	-0.7400285156	 3.486246608	 0.3144597617	-0.310089
C	 0.5113158173	 3.3639163088	 0.4665096198	 0.413295
O	 1.3762639907	 4.1548722875	 1.1246789808	-0.247848
C	 2.5564935039	 3.3393205869	 1.3299883499	 0.018395
O	 2.1990398038	 1.9898534507	 1.0990383559	-0.255923
C	 1.186389519	 2.0782835177	 0.1143145355	-0.090022
H	-1.3969124958	 2.212054239	-1.2874192026	 0.138656
H	-2.1360524921	 1.8820104759	 0.2811857467	 0.148844
H	 3.3313913137	 3.678888675	 0.6278852917	 0.11974
H	 2.8826761306	 3.4515370439	 2.3651337183	 0.148602
H	 1.6068905331	 2.0786159197	-0.9068044982	 0.123496
104.8716	173.6103	243.8777	267.4267	372.4168	495.9157	548.196	604.6569	648.1299	734.1655	742.3132	799.7807	922.3411	936.1057	968.3498	1023.6284	1046.3612	1084.2365	1135.6805	1153.4172	1182.4827	1201.4158	1223.3123	1282.3625	1309.6949	1346.7614	1440.3777	1471.2539	1534.1424	1767.4115	1889.5379	2956.9868	3006.4453	3023.4202	3094.1489	3127.0146
O=C1CN=C2OCOC12	O=C1C[N][C]2OCO[C@@H]12	
InChI=1S/C5H5NO3/c7-3-1-6-5-4(3)8-2-9-5/h4H,1-2H2	InChI=1S/C5H5NO3/c7-3-1-6-5-4(3)8-2-9-5/h4H,1-2H2/t4-/m0/s1
