19
gdb 71747	2.80166	2.20552	1.67511	1.3385	76.63	-0.2462	0.074	0.3202	866.3966	0.162721	-385.875149	-385.868824	-385.86788	-385.90521	28.101	
O	-0.0868275359	 1.3587999924	 0.0908510279	-0.505181
C	 0.0170008542	-0.0352216945	 0.066079182	 0.437608
C	 0.8960046034	-0.7287394153	 1.1039083552	-0.311939
C	 0.5802522341	-2.1500234656	 0.6948298759	-0.073646
C	 0.3201905913	-2.1746894527	-0.8038966886	-0.064069
C	-0.8463453505	-2.1903294867	 0.1719544574	-0.064071
C	-1.370907231	-0.7572281529	-0.0101247741	-0.079379
C	-1.3196056788	-0.5346415338	-1.5509836856	-0.23367
C	 0.2088795351	-0.7387818486	-1.3355076308	-0.121063
H	 0.7763968042	 1.7275557362	-0.1246142924	 0.278689
H	 1.9572693973	-0.4734666292	 0.9898470866	 0.08534
H	 0.5835429366	-0.4879784258	 2.1257511925	 0.102438
H	 1.0127382983	-3.0080063622	 1.1947622673	 0.080521
H	 0.5824933132	-3.0179922462	-1.4291702806	 0.081637
H	-1.4979676671	-3.0434514164	 0.3058935255	 0.081969
H	-2.2084929626	-0.4256232668	 0.6035407956	 0.063721
H	-1.846379599	-1.2478091576	-2.1905806441	 0.084078
H	-1.5672818905	 0.4920213357	-1.8274675351	 0.10618
H	 0.9548633577	-0.3924437701	-2.0532174646	 0.050836
267.7834	299.8893	343.4344	415.5387	445.9837	491.3872	601.0273	667.3443	680.342	713.3302	802.7439	803.6391	819.51	854.0042	889.0435	939.2316	943.9348	958.4102	980.1628	992.1545	1009.4395	1034.2308	1052.6389	1073.7758	1075.4846	1100.6998	1124.398	1141.6353	1170.4881	1182.9099	1226.8165	1246.6617	1250.2001	1268.6363	1282.484	1313.3018	1325.0928	1376.1138	1386.5169	1487.9257	1492.1911	3025.6387	3061.5305	3077.8245	3095.7677	3116.1428	3129.5251	3186.6333	3192.8833	3205.3578	3804.205
OC12CC3C4C3C1CC24	O[C@@]12C[C@@H]3[C@H]4[C@@H]3[C@@H]1C[C@@H]24	
InChI=1S/C8H10O/c9-8-2-3-6-4(8)1-5(8)7(3)6/h3-7,9H,1-2H2	InChI=1S/C8H10O/c9-8-2-3-6-4(8)1-5(8)7(3)6/h3-7,9H,1-2H2/t3-,4-,5+,6-,7+,8-
