16
gdb 75393	2.34009	1.73379	1.0609	2.125	74.02	-0.2412	-0.0426	0.1986	1090.1802	0.127327	-434.116659	-434.108935	-434.107991	-434.148893	29.804	
N	 0.0447797447	 1.3523714052	-0.2719654387	-0.554093
C	-0.087075948	-0.0093185891	-0.0191990371	 0.398158
N	-1.2374759789	-0.5323886912	 0.1250212703	-0.287776
C	-1.3355083145	-1.9873915501	 0.1051906262	-0.225538
C	-0.6347548105	-2.6531306213	 1.2647900886	-0.070324
C	 0.6593186967	-2.4910526381	 1.5542458167	-0.122439
C	 1.6296041587	-1.6958013102	 0.7760772922	 0.368085
O	 2.8270637481	-1.9039059617	 0.8282343472	-0.361475
N	 1.1556225406	-0.6649562898	-0.0415323676	-0.376495
H	 0.7545957511	 1.825838697	 0.2713092911	 0.25223
H	-0.8508682584	 1.8195227283	-0.2303279718	 0.261353
H	-2.3963742891	-2.2486390412	 0.1215730423	 0.112324
H	-0.9241562422	-2.3891061775	-0.8356170212	 0.120175
H	-1.2265079851	-3.3140482888	 1.8939063825	 0.112492
H	 1.1219119184	-3.02961018	 2.3741621789	 0.1189
H	 1.9154512583	-0.1600097014	-0.4804648395	 0.254422
100.251	135.1487	240.5431	300.8382	340.9973	397.8426	427.8562	437.6456	513.0133	637.6229	647.1798	661.8343	703.7192	747.52	752.1228	839.4159	889.0506	920.8121	981.7988	1012.6641	1032.9396	1090.4922	1172.1139	1227.3712	1264.5283	1296.0846	1322.0102	1377.7608	1409.7267	1478.2727	1492.853	1626.4609	1692.1683	1754.2789	1777.5536	2969.1993	3085.1172	3155.8787	3199.3385	3545.6994	3578.3628	3654.1072
NC1=NCC=CC(=O)N1	NC1=NCC=CC(=O)N1	
InChI=1S/C5H7N3O/c6-5-7-3-1-2-4(9)8-5/h1-2H,3H2,(H3,6,7,8,9)	InChI=1S/C5H7N3O/c6-5-7-3-1-2-4(9)8-5/h1-2H,3H2,(H3,6,7,8,9)
