22
gdb 79840	2.53284	1.68014	1.43081	0.8224	85.52	-0.1912	0.0881	0.2794	1061.3332	0.195639	-367.182748	-367.174444	-367.1735	-367.21495	33.239	
C	-0.3264634498	 1.4511727591	 0.0608597894	-0.331352
N	 0.0935543573	 0.0627920057	-0.0099752512	-0.071313
C	 0.6294983307	-0.4971854313	-1.2426658424	-0.074538
C	 2.1324280429	-0.2589202262	-1.4248018926	-0.10438
C	 2.8159459771	 0.862138833	-0.6440159689	-0.23839
C	 2.4250420694	 0.5799522282	 0.835377705	-0.220654
C	 1.287100194	-0.446057072	 0.7365667413	-0.056365
C	 1.6307335224	-1.3386197194	-0.4941797161	 0.317251
C	 1.9267754239	-2.8061682484	-0.5092651657	-0.519063
H	 0.4361526446	 2.1987933321	-0.2103071791	 0.096501
H	-1.1781636661	 1.5894573976	-0.6145446554	 0.117162
H	-0.6738860707	 1.6739168374	 1.0759670199	 0.115426
H	-0.0219983309	-0.7586996199	-2.07236592	 0.081691
H	 2.5355606203	-0.5636471021	-2.3862802154	 0.074283
H	 3.9011716725	 0.8174239201	-0.783616825	 0.096175
H	 2.4989348948	 1.8561629527	-0.9739323725	 0.102039
H	 3.2635121079	 0.136954629	 1.3852084488	 0.095708
H	 2.1283727843	 1.4831557112	 1.377997698	 0.097197
H	 1.0309239764	-0.9332402431	 1.6821831083	 0.064441
H	 1.1372451368	-3.3808428326	-0.0117362185	 0.122971
H	 2.0103426605	-3.177404317	-1.5361505241	 0.118977
H	 2.8727332118	-3.032120524	-0.0017993939	 0.116235
169.2169	184.7439	192.2067	226.1664	238.3272	267.0576	311.5288	445.3505	535.0995	581.5237	628.9988	681.4291	756.0341	780.3158	839.3121	866.1017	886.273	905.9993	923.1998	984.0868	1001.4438	1008.8584	1042.7378	1061.283	1077.4133	1127.9111	1147.5784	1158.3955	1162.053	1205.8882	1222.2168	1235.7873	1266.015	1276.1617	1282.5911	1309.8495	1331.0644	1351.8308	1414.9463	1446.7219	1467.358	1480.8829	1485.3076	1487.608	1499.0038	1508.5515	1514.8907	2972.5593	3018.7839	3033.4857	3045.1462	3052.5471	3062.0979	3070.4393	3076.2619	3087.8965	3090.3813	3092.9755	3138.4342	3157.3871
CN1C2C3CCC1C23C	CN1[C@H]2[C@H]3CC[C@@H]1[C@@]23C	
InChI=1S/C8H13N/c1-8-5-3-4-6(8)9(2)7(5)8/h5-7H,3-4H2,1-2H3	InChI=1S/C8H13N/c1-8-5-3-4-6(8)9(2)7(5)8/h5-7H,3-4H2,1-2H3/t5-,6-,7+,8+/m1/s1
