18
gdb 91289	2.72409	1.52897	1.32108	2.9645	71.98	-0.2595	0.0207	0.2802	1025.5499	0.149121	-439.093614	-439.08584	-439.084896	-439.126699	30.115	
O	 0.386556724	 1.1946701788	-0.5007921559	-0.4265
C	 0.0932657622	-0.1041654745	-0.0468753164	 0.121124
C	 0.1880749971	-0.3699963118	 1.4866447618	-0.276584
C	-1.3380409342	-0.6145353104	 1.5378708782	 0.081795
O	-2.0559924681	 0.5206787623	 2.0397821464	-0.244793
C	-2.5931259353	 1.2766241952	 1.0304671031	 0.372912
N	-3.1272080437	 2.4085607947	 1.1978326346	-0.530789
C	-2.4494649767	 0.5539479514	-0.2959275922	-0.317362
C	-1.4220300427	-0.5333913102	-0.0130303733	-0.073186
H	-0.0211463437	 1.8392939908	 0.088307903	 0.293305
H	 0.7134079893	-0.7669591324	-0.6541065848	 0.096334
H	 0.7836274021	-1.2499206306	 1.7426479807	 0.112267
H	 0.5312982619	 0.4740407634	 2.0907776782	 0.115116
H	-1.6963574436	-1.5039219396	 2.0592964471	 0.089803
H	-3.1065875671	 2.6720260142	 2.1847869276	 0.222269
H	-3.4195197116	 0.1336460401	-0.578834846	 0.134959
H	-2.1437959584	 1.2474951141	-1.0808550939	 0.148316
H	-1.6180849913	-1.4731344953	-0.5294826282	 0.081015
45.8077	70.4456	244.5601	331.8805	362.9616	403.7987	445.5012	493.1275	544.9775	636.0658	662.8924	739.1158	800.2605	830.8627	867.6021	898.5736	922.5681	931.2721	976.8718	998.3609	1029.3712	1047.4508	1085.5561	1125.1408	1139.4966	1172.7115	1200.7544	1237.0666	1258.2776	1267.2656	1276.1196	1303.8692	1321.2354	1334.4006	1381.3373	1437.3212	1458.6592	1467.2542	1769.8427	3062.1757	3065.0354	3085.0153	3091.5181	3111.1306	3122.1453	3127.4994	3469.6366	3801.5488
OC1CC2OC(=N)CC12	O[C@H]1C[C@H]2O[C]([NH])C[C@@H]12	
InChI=1S/C6H9NO2/c7-6-1-3-4(8)2-5(3)9-6/h3-5,7-8H,1-2H2	InChI=1S/C6H9NO2/c7-6-1-3-4(8)2-5(3)9-6/h3-5,7-8H,1-2H2/t3-,4-,5+/m0/s1
