17
gdb 35407	3.08957	1.55094	1.30437	4.776	75.22	-0.2419	0.0164	0.2583	993.2177	0.138034	-380.810632	-380.803543	-380.802599	-380.842134	28.423	
N	-0.3578752107	-1.1557366762	-0.4045558324	-0.333504
C	-0.2055826865	-0.0279750413	-0.2010723132	 0.310588
C	-0.0094674814	 1.405054862	 0.0246422397	-0.164979
N	-0.1518662617	 1.859393157	 1.4343418341	-0.315437
C	 1.1129348919	 2.6462455581	 1.3544515465	-0.014738
C	 2.3686174214	 1.9869766901	 1.9797548915	-0.043519
C	 2.2796595919	 0.4965700083	 1.8792519567	-0.288597
C	 2.6325865602	 1.2682335886	 0.637256918	-0.063682
C	 1.4412047364	 2.0003088664	-0.0074001215	-0.043313
H	-0.6539860987	 1.9442273852	-0.6816327808	 0.115874
H	-0.9945966191	 2.3882151973	 1.6214857169	 0.229296
H	 1.0219280637	 3.7269036471	 1.4740395181	 0.076552
H	 3.0680607393	 2.4889562607	 2.6370936428	 0.089146
H	 3.1184659883	-0.0401765898	 2.3106813687	 0.115809
H	 1.3237709856	-0.0010403508	 1.9928803053	 0.146961
H	 3.5727953791	 1.1043046522	 0.1259780299	 0.093856
H	 1.6899906004	 2.5966861051	-0.8829128904	 0.089688
106.0699	145.9624	262.1099	311.1503	412.8482	506.1925	537.2591	566.5429	651.6998	693.8259	739.6022	744.1061	840.1194	881.8201	893.452	911.7247	942.482	964.4061	993.9457	1013.2366	1035.3596	1056.5587	1066.6717	1088.4928	1100.6393	1142.9607	1186.2922	1200.7728	1222.932	1271.6291	1282.6716	1321.9165	1348.0529	1367.294	1393.6167	1492.3037	2352.384	3017.6562	3095.2817	3132.2686	3139.0904	3181.6082	3192.347	3224.3141	3558.384
N#CC1NC2C3CC3C12	N#C[C@H]1N[C@H]2[C@H]3C[C@H]3[C@@H]12	
InChI=1S/C7H8N2/c8-2-5-6-3-1-4(3)7(6)9-5/h3-7,9H,1H2	InChI=1S/C7H8N2/c8-2-5-6-3-1-4(3)7(6)9-5/h3-7,9H,1H2/t3-,4+,5-,6+,7+/m1/s1
