20
gdb 114094	3.03157	1.23816	1.05101	1.0683	75.05	-0.217	0.0612	0.2781	1210.1701	0.170407	-440.231889	-440.222871	-440.221927	-440.265676	33.88	
C	-0.3525500462	 1.4961701312	-0.0820551988	-0.470941
C	 0.113386293	 0.0635563419	 0.0243185023	 0.309043
C	-0.9525459336	-1.0515373067	 0.1629861333	-0.119723
O	-0.2611493947	-1.6410863238	 1.2908233879	-0.289944
C	 0.7682578405	-0.6353210371	 1.2529264114	 0.021719
C	 1.9606625992	-1.0017103389	 0.3327914094	 0.041239
C	 2.227708218	-2.4809019637	 0.1254222274	-0.103521
O	 3.0542367241	-2.598491533	-1.0276974678	-0.42446
N	 1.3033872902	-0.2738391728	-0.7884336444	-0.373923
H	 0.4892459416	 2.1835417771	 0.0358919105	 0.128065
H	-0.7945491395	 1.6808507802	-1.0688701573	 0.119799
H	-1.1100846751	 1.7269318997	 0.6740980745	 0.115581
H	-1.9542027853	-0.7086868521	 0.4540209642	 0.100759
H	-1.0396799194	-1.7400658484	-0.687584339	 0.092928
H	 0.9605502817	-0.1945100674	 2.2335995995	 0.077873
H	 2.8992036484	-0.5064522278	 0.6138699186	 0.080795
H	 2.7222903535	-2.8898005951	 1.0214969938	 0.088837
H	 1.2785037463	-3.0170990179	-0.0028281672	 0.099427
H	 3.1633363153	-3.5338685615	-1.2216427774	 0.288755
H	 1.1512154219	-0.8254059839	-1.6271533409	 0.21769
74.6967	109.6562	165.9506	200.3117	236.8727	272.275	296.9867	357.4438	395.0378	480.7253	511.8081	639.7381	687.2236	754.8602	839.614	865.9437	905.7125	925.5279	954.6615	992.5268	1009.2381	1053.4968	1065.086	1085.4694	1109.3982	1152.1259	1164.7109	1173.9878	1218.6415	1235.631	1248.2746	1282.1137	1299.3152	1311.6188	1336.6397	1371.8503	1383.4756	1411.7267	1458.1954	1483.0269	1490.7729	1512.5702	1521.6469	2972.6072	3001.4542	3012.8799	3027.9255	3039.1757	3049.3639	3087.6094	3091.5627	3118.5165	3521.8812	3830.5416
CC12COC1C(CO)N2	C[C@]12CO[C@H]1[C@@H](CO)N2	
InChI=1S/C6H11NO2/c1-6-3-9-5(6)4(2-8)7-6/h4-5,7-8H,2-3H2,1H3	InChI=1S/C6H11NO2/c1-6-3-9-5(6)4(2-8)7-6/h4-5,7-8H,2-3H2,1H3/t4-,5+,6+/m1/s1
