16
gdb 56448	2.37378	1.40613	1.00408	4.0124	71.93	-0.2619	-0.0132	0.2487	1177.3711	0.121981	-437.836373	-437.827257	-437.826313	-437.870845	32.802	
O	 0.0569973724	 1.4038003432	-0.0250455527	-0.408445
C	 0.0149846705	 0.0016697002	-0.0206238735	-0.111507
C	 0.7051924723	-0.5797992529	-1.1840802025	 0.332199
C	 1.2797802443	-1.0327612732	-2.1383555639	-0.483933
C	 0.6811813814	-0.51421254	 1.2795010809	 0.35436
O	 1.3842981849	 0.2355050098	 1.9256369719	-0.35526
N	 0.3421854566	-1.7805330368	 1.6787344139	-0.073072
C	 0.5245936911	-3.0430402766	 0.9872126198	-0.233025
C	 1.2318350762	-2.7433298381	 2.2794867491	-0.223286
H	 0.7476428173	 1.6299817487	 0.6209175584	 0.297596
H	-1.0329895202	-0.3256352697	-0.0270382237	 0.127113
H	 1.7800537781	-1.4188691401	-2.9923788826	 0.20598
H	-0.3358540535	-3.7060865987	 0.9864345711	 0.135228
H	 1.1070128188	-3.0325493324	 0.0720341376	 0.153979
H	 2.2946114604	-2.5213558026	 2.2425072807	 0.145756
H	 0.8828405795	-3.1999147907	 3.2007605954	 0.136317
48.2482	93.9313	143.8932	177.5511	210.851	242.5279	330.8529	412.0326	420.4275	462.522	585.853	597.566	630.8557	670.3872	709.101	809.6023	845.2763	920.4364	971.473	986.9716	1050.3883	1099.8717	1131.4297	1139.957	1151.9477	1173.8345	1177.3543	1248.6891	1334.401	1416.3077	1455.584	1496.9827	1525.8239	1778.8076	2225.5997	3026.1618	3119.4879	3124.053	3207.3501	3222.6193	3499.7743	3666.8595
OC(C#C)C(=O)N1CC1	O[C@@H](C#C)C(=O)N1CC1	
InChI=1S/C6H7NO2/c1-2-5(8)6(9)7-3-4-7/h1,5,8H,3-4H2	InChI=1S/C6H7NO2/c1-2-5(8)6(9)7-3-4-7/h1,5,8H,3-4H2/t5-/m0/s1
