21
gdb 77703	3.03404	1.29178	1.08715	1.4331	83.59	-0.2483	0.0777	0.326	1199.6928	0.182237	-387.049633	-387.040953	-387.040009	-387.082802	34.426	
O	 0.5441061874	 0.736885388	-0.5906123055	-0.425151
C	 0.1307122953	-0.5216153305	-0.1175123408	-0.002571
C	 0.2327442246	-0.8221832041	 1.3914324687	 0.337868
C	 1.4357707536	-1.2422775757	 2.1748995876	-0.335806
C	 0.8328210449	 0.1277107832	 2.3893094797	-0.322418
C	-1.1994954981	-1.382721305	 1.4152904802	-0.401206
C	-1.3783283814	-0.8175980503	-0.0041237398	 0.337869
C	-2.4484917256	 0.137053058	-0.4530570378	-0.322417
C	-2.3267267433	-1.2315649839	-1.0842831098	-0.335807
H	 0.0883498633	 1.402337433	-0.0622662453	 0.278644
H	 0.6635277183	-1.253317956	-0.7350142253	 0.086723
H	 1.3038684197	-1.9863138989	 2.9543973103	 0.110607
H	 2.3873280051	-1.3022226231	 1.6554718879	 0.115625
H	 1.3798494846	 0.9823955391	 2.0028635859	 0.115041
H	 0.2914052318	 0.3144132974	 3.3113597502	 0.110236
H	-1.2366730154	-2.4767214747	 1.4546157327	 0.101803
H	-1.8657185932	-0.9821674643	 2.1857144035	 0.099455
H	-3.2832867128	 0.3245895233	 0.21485989	 0.110235
H	-2.1412336306	 0.9924212648	-1.04719842	 0.115041
H	-1.9485194133	-1.2898781179	-2.1003631093	 0.115625
H	-3.0818612348	-1.9738259324	-0.8446466032	 0.110606
53.9506	211.315	219.4231	222.0458	234.2363	307.7205	346.8363	357.9259	443.8693	488.7889	563.4914	701.6585	780.487	789.1856	794.251	832.2121	879.4053	896.6742	905.0758	923.8711	972.7014	985.3327	998.4476	1047.9171	1054.33	1071.1494	1079.1684	1085.4563	1120.1927	1139.5373	1192.019	1192.1513	1206.2053	1226.7748	1250.1855	1267.5401	1285.3906	1361.6157	1391.5021	1431.7846	1459.4475	1459.9157	1490.5887	1496.4846	1506.2921	3035.4969	3049.3396	3082.7024	3119.2326	3119.4232	3122.145	3122.4256	3197.8358	3198.0208	3212.7188	3212.867	3795.84
OC1C2(CC2)CC11CC1	OC1C2(CC2)CC21CC2	
InChI=1S/C8H12O/c9-6-7(1-2-7)5-8(6)3-4-8/h6,9H,1-5H2	InChI=1S/C8H12O/c9-6-7(1-2-7)5-8(6)3-4-8/h6,9H,1-5H2
