13
gdb 11629	3.5269	1.91113	1.51823	1.6034	67.14	-0.2477	-0.007	0.2407	827.8402	0.095038	-361.370266	-361.363512	-361.362568	-361.401149	25.643	
O	-0.0403200936	-0.0283082353	-0.1432541537	-0.310146
C	-0.0373317546	 1.1473438554	 0.0247823847	 0.406686
C	-0.9636733169	 2.3798491627	 0.0527400546	-0.158455
C	-0.0240877028	 2.9845641814	 1.1274770288	-0.229933
C	 0.9442738405	 2.3740603291	 0.0673143364	 0.115064
N	-0.0098680511	 2.9863658498	-0.9752449525	-0.327363
C	 2.3648176685	 2.4465321655	-0.0207376537	 0.04547
C	 3.5652296797	 2.4671418629	-0.0871117501	-0.335039
H	-2.042193216	 2.4710390609	-0.0430424625	 0.113967
H	-0.0148474563	 4.0752623198	 1.1252590197	 0.128858
H	-0.0245684482	 2.5438112692	 2.1242234103	 0.122203
H	 0.0023621502	 2.4395376133	-1.8419766755	 0.236624
H	 4.6256257205	 2.4896930955	-0.1469062665	 0.192065
129.8802	169.3181	196.5158	349.7256	488.6855	506.9399	532.2427	614.9719	622.1791	676.2871	724.4736	788.4568	802.0503	826.0412	901.8808	946.2253	993.9896	1037.8454	1086.4252	1140.6698	1179.7952	1207.068	1234.9748	1277.199	1320.1083	1482.498	1913.3106	2238.4333	3087.4024	3167.6915	3171.0879	3403.7623	3498.5618
O=C1C2CC1(N2)C#C	O=C1[C@H]2C[C@@]1(N2)C#C	
InChI=1S/C6H5NO/c1-2-6-3-4(7-6)5(6)8/h1,4,7H,3H2	InChI=1S/C6H5NO/c1-2-6-3-4(7-6)5(6)8/h1,4,7H,3H2/t4-,6+/m1/s1
