14
gdb 129199	3.4335	1.42005	1.00457	2.3856	79.89	-0.2486	-0.088	0.1606	1092.1457	0.103734	-429.023692	-429.016315	-429.015371	-429.056942	27.26	
N	 0.017642237	 0.9560824568	-1.1363234897	-0.493675
C	 0.0754874817	 0.1223263061	-0.1641116173	 0.383675
N	 1.2544377875	-0.4651207093	 0.2747491233	-0.334635
N	 1.5524169576	-1.3467522804	 1.2516392345	-0.197863
C	 0.7025783021	-1.8692656324	 2.0532226975	 0.032267
C	-0.7614694529	-1.7346178866	 2.2116906916	 0.308185
N	-1.2742839283	-2.4354227191	 3.1519745814	-0.451787
N	-1.6048071475	-0.9188083551	 1.4294543148	-0.307418
C	-1.2408942998	-0.1716797532	 0.467651389	 0.042656
H	 0.9361703274	 1.1370618779	-1.5485080383	 0.219523
H	 2.0837761228	-0.189552446	-0.2305007522	 0.263789
H	 1.13271258	-2.5583898163	 2.7742445237	 0.145677
H	-2.2832911963	-2.2643043952	 3.1684322044	 0.235787
H	-2.0181347713	 0.3999232529	-0.0401041327	 0.153819
23.5633	92.3621	297.8718	365.6472	399.6167	407.5241	416.6775	525.9672	585.8974	623.3007	674.4338	757.9654	788.7223	867.4843	875.5907	895.393	935.4622	965.305	1003.4666	1070.1014	1125.399	1195.9723	1363.3173	1379.6895	1393.0827	1422.2557	1498.2825	1654.9448	1664.6254	1710.6379	1731.0121	3138.2071	3179.3676	3446.7149	3452.4924	3605.4201
N=C1NN=CC(=N)N=C1	[NH][C]1NN=C[C]([NH])N=C1	
InChI=1S/C4H5N5/c5-3-2-8-9-4(6)1-7-3/h1-2,5H,(H2,6,9)	InChI=1S/C4H5N5/c5-3-2-8-9-4(6)1-7-3/h1-2,5H,(H2,6,9)
