19
gdb 104103	2.58231	1.29903	1.11932	4.4986	71.6	-0.2421	0.0574	0.2995	1164.3462	0.16028	-456.395725	-456.386665	-456.385721	-456.42917	34.285	
C	-0.1742131984	 1.6511749885	-0.0991852222	-0.438236
C	 0.0394510419	 0.138240854	-0.0350043278	 0.285661
C	-1.3104059127	-0.5997988867	 0.0184730042	-0.101607
O	-1.9310858817	-0.2503133572	 1.2476914515	-0.428414
C	 0.9002327082	-0.3995857695	-1.2079836127	-0.215679
N	 1.6113039325	-1.5010035237	-0.5818601569	-0.344616
C	 1.6990692249	-1.3214553971	 0.7958139907	 0.422632
O	 2.3647831221	-1.9760362546	 1.56542088	-0.409498
N	 0.8722558269	-0.2469759747	 1.106387126	-0.355596
H	 0.7835384827	 2.1732341414	-0.0362073749	 0.122961
H	-0.6660166313	 1.929766848	-1.0378448553	 0.112631
H	-0.8102529674	 1.9823591641	 0.7252369626	 0.139525
H	-1.92984041	-0.3005219389	-0.8419174061	 0.087521
H	-1.1311726676	-1.6822201494	-0.0463561892	 0.106352
H	-2.6880662424	-0.8260547313	 1.3852108738	 0.295668
H	 0.280665814	-0.7344734103	-2.0471512593	 0.109503
H	 1.575041186	 0.3874230755	-1.573301352	 0.106044
H	 2.3962260092	-1.9413333745	-1.034713075	 0.251198
H	 0.4445047032	-0.2536087734	 2.0207145025	 0.253951
95.1496	151.7479	177.8575	220.6587	232.1811	256.7539	305.7083	348.0546	388.2522	485.8262	521.3281	535.7432	573.6523	651.0246	730.6789	771.3713	818.6368	914.8818	970.8361	973.5258	985.4507	1016.7904	1079.756	1091.4167	1164.4332	1181.957	1204.7851	1236.8776	1260.3135	1286.7137	1320.3715	1368.824	1392.4253	1407.5075	1435.6963	1453.8896	1488.6751	1504.4422	1516.8105	1528.6871	1850.1162	2974.0031	2999.6047	3025.3316	3040.6763	3057.5806	3112.2317	3133.4477	3625.6233	3643.7437	3842.8272
CC1(CO)CNC(=O)N1	C[C@@]1(CO)CNC(=O)N1	
InChI=1S/C5H10N2O2/c1-5(3-8)2-6-4(9)7-5/h8H,2-3H2,1H3,(H2,6,7,9)	InChI=1S/C5H10N2O2/c1-5(3-8)2-6-4(9)7-5/h8H,2-3H2,1H3,(H2,6,7,9)/t5-/m0/s1
