21
gdb 100735	2.62769	1.04749	0.8476	5.1269	75.5	-0.2402	0.0237	0.264	1420.0804	0.182624	-457.570367	-457.560167	-457.559223	-457.605968	37.278	
C	 0.0479462153	 1.5976317579	-0.0671843062	-0.326085
N	-0.1155316032	 0.1531301528	 0.0754489162	-0.291823
H	-1.105320362	-0.0780288461	 0.0655125297	 0.217096
H	 0.9708295771	-1.4174513149	-0.8838395265	 0.244906
C	 0.498542335	-0.4251332995	 1.2787028358	 0.056175
C	-0.2789070308	-0.1452007458	 2.5700598884	-0.408525
C	 0.7026854794	-1.9537078687	 1.0456443333	-0.149649
N	 1.2991153543	-2.1690325694	-0.2780763719	-0.538931
C	 1.6551044527	-2.5201427932	 2.1203620107	 0.424051
O	 1.3278065754	-2.7437979984	 3.2573676011	-0.346484
O	 2.8974396776	-2.709130284	 1.6641108724	-0.364207
H	 1.113021413	 1.8330489471	-0.1627758867	 0.131121
H	-0.4490423902	 1.9263888943	-0.984441429	 0.123779
H	-0.3542919685	 2.191103544	 0.768956758	 0.108812
H	 1.4981981881	 0.024302918	 1.3508704579	 0.09463
H	-1.3012666333	-0.5342866862	 2.4883355865	 0.108484
H	 0.1897960554	-0.6275156731	 3.4292279451	 0.164222
H	-0.339817581	 0.930298794	 2.7596954629	 0.114675
H	-0.2658718107	-2.4552111059	 1.176648808	 0.090692
H	 2.8336072894	-2.4939032477	 0.7016643964	 0.305614
H	 1.0005323569	-3.0536570052	-0.6741309822	 0.24145
51.1224	73.1358	120.4201	175.24	214.2109	227.4077	286.093	300.4957	345.1335	389.6652	409.4579	447.1478	459.5698	572.6611	675.5264	717.0366	797.1335	864.1449	882.9336	910.4501	923.3556	975.9507	1030.1282	1068.5334	1089.6332	1112.3481	1128.6734	1171.663	1196.5976	1230.0166	1259.3369	1312.3882	1327.7609	1354.2116	1384.3742	1412.5108	1444.3902	1459.7575	1480.902	1490.6949	1496.8444	1506.3524	1519.5624	1639.9627	1858.2298	2979.4282	3008.9766	3024.5522	3035.0793	3067.8779	3101.7572	3108.9386	3145.7241	3378.502	3454.4759	3496.2037	3568.1695
C[NH2+]C(C)C(N)C([O-])=O	CN[C@@H](C)[C@@H](N)C(=O)O	
InChI=1S/C5H12N2O2/c1-3(7-2)4(6)5(8)9/h3-4,7H,6H2,1-2H3,(H,8,9)	InChI=1S/C5H12N2O2/c1-3(7-2)4(6)5(8)9/h3-4,7H,6H2,1-2H3,(H,8,9)/t3-,4+/m0/s1
