19
gdb 14737	10.48312	0.61271	0.60617	2.3361	74.39	-0.2381	0.0192	0.2572	1858.311	0.162632	-402.174007	-402.163788	-402.162844	-402.211151	33.232	
C	 0.8037618361	 0.998535957	 0.5101588422	-0.235234
O	 1.1261153399	 0.3190653196	-0.6818919099	-0.228997
C	 0.0172050582	-0.2589540135	-1.3395612111	-0.055936
C	-0.3727945177	-1.6274801365	-0.7580023995	-0.172197
N	-1.5458150484	-2.1311366316	-1.4423966227	-0.211228
C	-1.433644899	-3.2186814499	-2.0649445982	 0.132172
O	-2.4794897887	-3.7388820157	-2.7352200207	-0.191467
C	-2.2297469947	-4.9694962628	-3.4033996065	-0.249529
H	 0.0705998609	 1.8007830587	 0.3326130375	 0.10629
H	 0.3993530289	 0.331535051	 1.285844142	 0.105986
H	 1.7283519074	 1.4435837919	 0.8868161754	 0.125949
H	-0.8564797705	 0.4094519823	-1.3153101452	 0.100207
H	 0.3091468612	-0.3857694968	-2.3878043067	 0.102726
H	 0.4974985899	-2.3022650262	-0.8232591534	 0.087503
H	-0.6170709625	-1.510905258	 0.3051486474	 0.107003
H	-0.513265632	-3.8230495903	-2.1129225242	 0.073791
H	-1.4593827288	-4.8585661709	-4.1762685018	 0.127967
H	-1.9258016256	-5.7546178159	-2.700363959	 0.127655
H	-3.1692111044	-5.2584777723	-3.8757636057	 0.147339
35.9153	47.5902	58.0796	105.4618	143.5477	166.936	206.7714	258.3034	334.2929	368.9353	447.5978	464.0892	626.0464	805.2102	956.5369	985.5661	1034.9221	1045.0487	1077.659	1120.1747	1170.384	1177.0014	1178.1954	1182.598	1220.3508	1271.9016	1283.4896	1320.7414	1339.9113	1400.5477	1415.7431	1476.893	1485.2174	1488.4022	1494.5701	1496.3564	1500.7173	1504.6325	1511.7752	1774.0005	2959.7454	2976.5607	2983.3967	2999.3759	3015.3846	3023.5048	3040.2923	3074.4613	3077.0756	3109.95	3145.3038
COCCN=COC	COCCN=COC	
InChI=1S/C5H11NO2/c1-7-4-3-6-5-8-2/h5H,3-4H2,1-2H3	InChI=1S/C5H11NO2/c1-7-4-3-6-5-8-2/h5H,3-4H2,1-2H3
