25
gdb 111408	2.50566	1.12827	0.89985	0.1999	92.44	-0.2477	0.0871	0.3348	1456.0648	0.228942	-352.336775	-352.326817	-352.325873	-352.371814	37.886	
C	 1.4015152095	 0.3477809406	 1.0483871659	-0.383415
C	 0.2553287554	 0.3186270246	 0.0312493603	-0.187493
C	 0.7398760542	-0.004301622	-1.3812238902	-0.005947
C	 1.2733231023	-1.4164378836	-1.6779368128	-0.055799
C	 0.1786104386	-2.4443347355	-1.6035572844	-0.283606
C	 0.2788423623	-1.5788168177	-2.8288682404	-0.055813
C	-0.288684869	-0.1721724061	-2.5718677379	-0.005936
C	-1.7900292652	-0.0150515274	-2.3364527315	-0.187486
C	-2.6115242348	-0.3071638274	-3.5969995858	-0.383414
H	 1.9114334396	-0.6205173288	 1.0941510985	 0.120038
H	 2.1491901351	 1.103040677	 0.7803323034	 0.110578
H	 1.0384069458	 0.5808018105	 2.0542441779	 0.108694
H	-0.4947996914	-0.4128529424	 0.3538321863	 0.092444
H	-0.2532701068	 1.2915048363	 0.024246471	 0.091633
H	 1.4899917504	 0.7421643232	-1.6660516807	 0.065683
H	 2.3174286579	-1.7052598546	-1.649793129	 0.079331
H	 0.5044525078	-3.4707585386	-1.7402423939	 0.107399
H	-0.6468564097	-2.3410549855	-0.904844981	 0.104708
H	 0.4527076116	-2.0097527414	-3.8078629848	 0.079332
H	 0.0032368938	 0.4994430326	-3.3871772317	 0.065692
H	-2.1209738136	-0.6779504175	-1.5284592083	 0.092441
H	-1.9960675299	 1.0072618994	-1.9934748194	 0.091628
H	-2.3375726792	 0.3706114154	-4.4136143386	 0.110576
H	-2.4438381924	-1.3313743555	-3.9471225305	 0.120038
H	-3.6838866223	-0.1897699854	-3.4121971222	 0.108693
67.2569	85.3844	126.1722	151.8726	214.9446	228.14	254.3867	298.0301	308.1969	475.2736	501.8593	526.5458	686.2771	744.3282	763.9453	798.0994	808.4219	818.712	920.0357	923.6136	946.9881	975.2032	991.8758	1001.5887	1026.524	1057.2116	1059.633	1071.3099	1088.8506	1097.5051	1122.7943	1135.747	1178.8719	1181.9724	1234.5542	1260.6708	1282.1708	1286.1734	1308.8084	1342.0727	1345.8962	1366.2381	1387.9125	1399.4102	1408.8224	1409.3073	1483.1864	1484.1334	1496.73	1499.198	1499.9398	1506.7045	1509.7416	3017.7274	3022.1673	3025.0198	3028.8857	3028.971	3040.1467	3053.2045	3062.6354	3095.8032	3097.0206	3101.3092	3101.6917	3121.6983	3168.5849	3177.983	3201.6318
CCC1C2CC2C1CC	CC[C@H]1[C@H]2C[C@H]2[C@H]1CC	
InChI=1S/C9H16/c1-3-6-7(4-2)9-5-8(6)9/h6-9H,3-5H2,1-2H3	InChI=1S/C9H16/c1-3-6-7(4-2)9-5-8(6)9/h6-9H,3-5H2,1-2H3/t6-,7+,8-,9+
