19
gdb 71223	2.89496	1.86359	1.66635	1.4942	78.92	-0.2314	0.0074	0.2388	917.5394	0.16075	-385.859355	-385.852462	-385.851518	-385.889977	29.472	
C	 0.0412343021	 1.5099989949	-0.0508042612	-0.497247
C	-0.0044983461	 0.0070648798	 0.0485252403	 0.387104
O	 0.9663243746	-0.6436197845	-0.8746449748	-0.318983
C	 1.1986957494	-1.6084553468	 0.1322007775	 0.128984
C	-0.0773880165	-2.5294752403	 0.5210767166	-0.146731
C	-0.0123549644	-1.8618949325	 1.9379683974	-0.239948
C	 0.7304467965	-0.6985462508	 1.2766789396	-0.116063
C	-1.3064891449	-1.9808156746	-0.1441522061	-0.056816
C	-1.3196458453	-0.6521823879	-0.2825585265	-0.110504
H	 1.0527710886	 1.8809172305	 0.1326160858	 0.124097
H	-0.2701736582	 1.8363927763	-1.0486256942	 0.129511
H	-0.6369160573	 1.9579308274	 0.6836946836	 0.12198
H	 2.1576661641	-2.1220535352	 0.0430898023	 0.078019
H	 0.0299989543	-3.6122014912	 0.4576905619	 0.064654
H	-0.9647412064	-1.6822304594	 2.4429496555	 0.097496
H	 0.6663355109	-2.3997586855	 2.6081605399	 0.099923
H	 1.3861386135	-0.034860619	 1.8429462138	 0.067586
H	-2.1230370813	-2.6297739198	-0.44228738	 0.096155
H	-2.1393775236	-0.0805701814	-0.7037399212	 0.090783
203.5108	248.2738	290.9396	351.2334	388.1562	461.4112	507.7252	582.9247	652.8888	698.2871	706.3541	739.1322	758.35	807.9939	836.8949	879.0012	915.3114	945.9124	961.309	971.8775	1014.3404	1037.0785	1039.3919	1077.9546	1104.8724	1129.937	1148.7144	1198.6414	1211.2359	1231.0493	1245.2593	1259.1213	1298.6192	1311.4508	1333.9267	1395.4313	1410.1414	1478.747	1483.5746	1492.7039	1667.5922	3035.4541	3045.8155	3089.9244	3099.5104	3104.24	3104.4632	3111.8704	3121.4762	3173.684	3197.4829
CC12OC3C(CC13)C=C2	C[C@@]12O[C@@H]3[C@@H](C[C@H]13)C=C2	
InChI=1S/C8H10O/c1-8-3-2-5-4-6(8)7(5)9-8/h2-3,5-7H,4H2,1H3	InChI=1S/C8H10O/c1-8-3-2-5-4-6(8)7(5)9-8/h2-3,5-7H,4H2,1H3/t5-,6+,7-,8+/m1/s1
