18
gdb 77223	3.28819	1.11817	0.9689	1.7649	80.29	-0.2157	-0.0329	0.1828	1245.3814	0.144765	-401.891219	-401.881774	-401.88083	-401.925789	33.956	
C	 0.0120156583	 1.7939581913	-0.1827864831	-0.342223
N	-0.0463169163	 0.3591393374	 0.0193452813	-0.051801
C	-1.0209296364	-0.302604361	 0.8889548935	-0.083798
C	 0.0579246376	-1.4004733678	 1.1800044267	-0.267247
C	 1.086803488	-0.3711104589	 0.622248766	-0.1566
C	 2.1150131836	-0.8348171349	-0.2958763009	 0.333408
C	 2.9706303209	-1.2214086033	-1.04678668	-0.429233
C	-1.4368152255	 0.3794520689	 2.177040514	 0.147263
O	-0.8637650891	 1.3067446746	 2.6932448708	-0.251433
H	 0.7917745505	 2.0071768519	-0.9215039727	 0.127986
H	-0.9408705363	 2.1366912246	-0.6002220058	 0.118742
H	 0.2159516767	 2.3656794861	 0.7322353404	 0.13051
H	-1.9281727046	-0.6491826538	 0.3746446357	 0.088929
H	 0.1932979897	-1.7088842204	 2.2165790663	 0.123357
H	-0.0548272	-2.2713885822	 0.5358413475	 0.13148
H	 1.5577254477	 0.1866819821	 1.44734506	 0.105392
H	 3.724147238	-1.5609284523	-1.71369695	 0.197798
H	-2.3379479829	-0.0764660722	 2.6543789101	 0.077472
59.0206	102.6552	128.8277	176.0855	207.6797	218.0443	274.2544	325.4658	335.0611	507.0203	525.0591	618.128	637.6036	663.4316	752.1106	791.6769	796.7574	891.5283	950.2798	972.9174	1037.4276	1067.7304	1084.4775	1134.2367	1153.8545	1194.7794	1238.3227	1246.1809	1267.0067	1302.1112	1348.2905	1376.0249	1414.9134	1448.1772	1480.4165	1484.8116	1511.5051	1818.8612	2235.3547	2839.6581	2973.0432	3006.4233	3011.3669	3075.7173	3096.7104	3098.4419	3162.0624	3502.8156
CN1C(CC1C#C)C=O	CN1[C@@H](C[C@H]1C#C)C=O	
InChI=1S/C7H9NO/c1-3-6-4-7(5-9)8(6)2/h1,5-7H,4H2,2H3	InChI=1S/C7H9NO/c1-3-6-4-7(5-9)8(6)2/h1,5-7H,4H2,2H3/t6-,7+/m1/s1
