17
gdb 49090	3.47949	1.50936	1.26545	2.6995	72.54	-0.2374	-0.0247	0.2126	996.8363	0.136635	-421.805398	-421.79824	-421.797296	-421.837022	27.974	
O	-0.317258363	 0.5942688708	-0.8450744013	-0.281187
C	 0.1701348929	 1.072010691	 0.1573406971	 0.041264
C	 1.333382122	 1.9714869691	 0.1634801115	 0.203534
C	 1.8360430491	 2.6853718925	 1.4191630675	-0.314066
C	 2.5663585222	 3.9448243801	 0.8738038092	-0.210916
C	 2.8436893903	 3.5705810076	-0.5760073454	 0.072123
O	 3.6232797122	 2.3167479521	-0.5727695009	-0.306922
C	 2.4360242189	 1.6127671785	-0.8790794345	 0.100367
C	 1.6056177533	 2.8094271369	-1.0925903638	-0.172301
H	-0.2421383075	 0.8318071812	 1.1634713931	 0.071263
H	 1.0067467731	 2.9471841258	 2.0827436756	 0.107812
H	 2.5247722285	 2.0531594125	 1.9863688513	 0.12071
H	 1.9208870123	 4.8299896777	 0.9088870522	 0.107665
H	 3.4864882654	 4.1710296213	 1.4187223023	 0.11616
H	 3.3090121468	 4.3238013278	-1.2124786655	 0.093414
H	 2.4866390501	 0.6428560989	-1.3574625143	 0.130337
H	 0.8644118936	 3.0667887764	-1.8350378741	 0.120742
108.1758	186.4398	193.5863	259.2201	370.0858	457.8101	473.442	654.6088	674.8328	729.5434	749.3269	824.7658	862.3078	875.251	897.1038	920.1766	935.567	998.9727	1011.9085	1032.3352	1048.1796	1070.9221	1096.7181	1163.389	1174.0459	1195.1362	1223.9891	1262.0061	1266.6976	1289.9969	1331.9347	1340.4339	1386.9847	1433.3873	1472.1179	1498.3826	1783.7328	2873.5969	3043.9672	3057.2525	3092.0928	3109.1419	3116.8523	3203.0242	3226.3015
O=CC12CCC3OC1C23	O=C[C@@]12CC[C@H]3O[C@@H]1[C@@H]23	
InChI=1S/C7H8O2/c8-3-7-2-1-4-5(7)6(7)9-4/h3-6H,1-2H2	InChI=1S/C7H8O2/c8-3-7-2-1-4-5(7)6(7)9-4/h3-6H,1-2H2/t4-,5+,6-,7-/m1/s1
