20
gdb 87685	3.03031	1.1523	0.97174	3.5301	83.18	-0.2377	0.0372	0.275	1306.7242	0.170228	-403.163753	-403.154226	-403.153282	-403.198292	34.322	
C	-0.1002895974	 1.5277520203	-0.0653211912	-0.407556
C	 0.0039074044	 0.0208817914	 0.0060499587	-0.051376
C	 1.3273782057	-0.6697897944	-0.2026967353	-0.34768
C	 0.6975527335	-0.6473090264	 1.1619602528	 0.174146
C	 1.2102428302	-0.0708009822	 2.4949268531	-0.258548
N	 0.6749365271	-1.2866597871	 3.1212849707	-0.095523
C	 0.6392880887	-1.7401192617	 4.4843448187	-0.341163
C	 0.1995697928	-1.8423713165	 1.9529143616	 0.378909
O	-0.3792858768	-2.87350161	 1.7185194367	-0.394299
H	 0.8056338796	 2.0073700799	 0.3202598247	 0.11474
H	-0.2368152139	 1.8613743713	-1.0996035789	 0.12433
H	-0.9494313496	 1.8984584857	 0.5190907918	 0.122041
H	-0.8669366275	-0.5188003526	-0.3584413613	 0.106877
H	 1.3447507139	-1.6219012725	-0.7226076767	 0.131891
H	 2.2029287208	-0.046961421	-0.3606606509	 0.113646
H	 2.2983428576	 0.0327743452	 2.5825663071	 0.108795
H	 0.7255780866	 0.8531384905	 2.8331913243	 0.10905
H	 0.0882592446	-1.0444273613	 5.1300864012	 0.125176
H	 0.1302463545	-2.7071981757	 4.4962501811	 0.160855
H	 1.6480380149	-1.8684759631	 4.8970282417	 0.125689
73.4392	116.9873	143.7403	167.7113	171.4362	215.0863	243.2823	270.2863	369.7622	428.3695	523.7191	563.4544	714.155	792.4194	800.2329	814.7757	897.8786	917.4842	951.48	1019.654	1023.6272	1064.6698	1079.2638	1114.515	1124.1275	1134.6681	1169.6832	1184.3927	1198.1311	1236.2964	1275.3959	1352.0546	1409.9307	1418.3322	1435.9143	1448.641	1482.1111	1490.1988	1492.0432	1508.9765	1512.591	1532.8379	1872.038	3008.0176	3018.5228	3028.5973	3056.4089	3060.7407	3093.0018	3095.7772	3124.2559	3125.3826	3141.6937	3213.2198
CC1CC11CN(C)C1=O	C[C@H]1C[C@]21CN(C)C2=O	
InChI=1S/C7H11NO/c1-5-3-7(5)4-8(2)6(7)9/h5H,3-4H2,1-2H3	InChI=1S/C7H11NO/c1-5-3-7(5)4-8(2)6(7)9/h5H,3-4H2,1-2H3/t5-,7+/m0/s1
