19
gdb 108278	2.69037	1.4085	1.09131	4.2913	75.17	-0.2665	0.0113	0.2778	1164.7854	0.159126	-423.05157	-423.043135	-423.042191	-423.084785	31.858	
C	 0.0199155198	 1.5466696655	 0.0292572254	-0.385677
C	 0.0476165329	 0.0215556698	 0.1883939867	-0.276136
C	-1.3136733873	-0.603472626	 0.0337537634	 0.469857
C	-2.4478716717	-0.3845305333	 1.066796526	-0.279487
C	-2.7882926527	-1.9052912974	 1.0044281051	-0.234353
C	-1.6412140764	-2.1220083037	-0.0341551608	-0.30282
C	-2.0866226676	-1.7988458642	-1.4527350936	 0.44785
O	-2.5194581613	-2.3752052174	-2.3989044157	-0.330477
O	-1.8421480501	-0.4487058561	-1.3378822672	-0.290719
H	 1.0243492329	 1.9662539838	 0.1327530478	 0.118902
H	-0.3671042624	 1.8237396128	-0.955153291	 0.142751
H	-0.6178513037	 2.0148940049	 0.7863558684	 0.120473
H	 0.7224060768	-0.4213733943	-0.5538366975	 0.111357
H	 0.4399260913	-0.2504199525	 1.1761875822	 0.104254
H	-2.0850718675	-0.0614466256	 2.045579141	 0.111281
H	-3.2253642852	 0.3038187884	 0.7319195692	 0.123321
H	-2.5949145367	-2.4253635718	 1.9438662769	 0.118291
H	-3.7880542755	-2.1740371571	 0.6591385722	 0.127057
H	-0.9347540156	-2.9374197059	 0.1087636214	 0.104277
89.3852	115.2434	158.5493	211.9762	218.1654	330.2678	366.7873	398.7529	479.6158	626.0854	655.2479	739.4371	751.2899	784.1086	825.3457	869.0499	910.0736	942.8823	972.5302	986.5532	995.0136	1026.6761	1074.3121	1102.8196	1129.5444	1168.2492	1203.3965	1219.2745	1229.082	1255.3107	1286.3822	1306.4444	1323.07	1384.598	1412.325	1467.2311	1477.3439	1492.7724	1499.2753	1509.181	1929.8494	3028.7977	3042.2281	3065.6479	3071.5684	3080.8592	3110.1463	3122.5953	3123.7629	3136.8942	3142.1735
CCC12CCC1C(=O)O2	CC[C@]12CC[C@H]1C(=O)O2	
InChI=1S/C7H10O2/c1-2-7-4-3-5(7)6(8)9-7/h5H,2-4H2,1H3	InChI=1S/C7H10O2/c1-2-7-4-3-5(7)6(8)9-7/h5H,2-4H2,1H3/t5-,7-/m0/s1
