17
gdb 38562	3.62779	2.04768	1.72903	1.3033	75.21	-0.219	0.0061	0.2251	817.0529	0.138958	-384.614538	-384.608953	-384.608009	-384.643988	25.205	
C	-0.0194376632	 1.5872078388	 0.0901847209	-0.361101
C	 1.5273004744	 1.3032020416	-0.0195032859	 0.038826
O	 1.8414852524	 0.6585659762	 1.2221348006	-0.260032
C	 1.0155320435	-0.468604917	 1.0493394525	 0.102214
C	 1.4732849365	-1.2940750568	-0.2063781331	-0.154875
C	 0.1724433241	-2.0766965137	-0.4885159159	-0.089218
C	-0.8370204431	-1.2015054588	-0.3304479877	-0.24204
C	-0.083272439	 0.0588793988	 0.0069643552	 0.270679
C	 1.1892934027	 0.0552704784	-0.9130932693	-0.035027
H	-0.3635338671	 2.1045287672	 0.9892867143	 0.106484
H	-0.4059065731	 2.0702544805	-0.8109547193	 0.11016
H	 2.2577487562	 2.0719373146	-0.2650736777	 0.082768
H	 0.7543197736	-0.9497106233	 1.9916200787	 0.082195
H	 2.4206688004	-1.8336153184	-0.2490526824	 0.061133
H	 0.1213506603	-3.1349655943	-0.7028971071	 0.103379
H	-1.903165863	-1.3637780123	-0.3886650719	 0.109121
H	 1.0954431043	 0.1652268085	-1.9928558617	 0.075332
343.26	385.9965	441.523	495.1839	556.3253	634.8937	655.0296	693.6254	749.8184	758.3805	813.2402	867.1624	882.5405	900.9808	906.8853	923.0687	931.8011	939.7671	994.9405	1008.8824	1031.3195	1071.4586	1082.6849	1121.6933	1134.7191	1147.1627	1188.3729	1201.4793	1203.6369	1234.8622	1246.244	1267.8759	1276.9682	1335.8861	1352.8832	1478.4488	1581.3848	3060.1996	3100.5643	3124.2016	3126.1837	3130.9653	3140.6859	3223.1119	3249.0547
C1C2OC3C4C=CC13C24	C1[C@H]2O[C@@H]3[C@H]4C=C[C@@]13[C@@H]24	
InChI=1S/C8H8O/c1-2-8-3-5-6(8)4(1)7(8)9-5/h1-2,4-7H,3H2	InChI=1S/C8H8O/c1-2-8-3-5-6(8)4(1)7(8)9-5/h1-2,4-7H,3H2/t4-,5+,6+,7+,8-/m0/s1
