21
gdb 111978	3.08286	1.23912	0.98589	1.7162	80.68	-0.2485	0.013	0.2615	1267.6005	0.181882	-424.226152	-424.21673	-424.215786	-424.260373	35.428	
C	-0.6158792754	 1.007610253	-0.0269094431	-0.247368
O	 0.5748311025	 0.24641403	 0.0937247999	-0.261123
C	 0.9380478704	-0.4443118181	-1.0959026771	 0.046293
C	 2.3667562279	-0.9088730207	-1.0097443122	-0.113073
C	 2.4993813321	-2.1692701412	-1.4144044919	-0.063847
C	 1.1866578653	-2.7917182244	-1.834308641	-0.048479
C	 0.9836269931	-4.2353593437	-1.3657225145	-0.386585
C	 0.132989215	-1.7783571189	-1.2847395033	 0.088152
O	-0.4039117951	-2.1939901321	-0.0445554637	-0.439247
H	-0.5352014935	 1.7400422714	-0.8429021122	 0.112996
H	-1.4910080348	 0.3696391184	-0.2061828891	 0.127329
H	-0.7512038973	 1.540952395	 0.9168905981	 0.130557
H	 0.7858745095	 0.2278710471	-1.9562698916	 0.075753
H	 3.1593595207	-0.2451729435	-0.6853385728	 0.10064
H	 3.4394357169	-2.7087048496	-1.4748087502	 0.09528
H	 1.127393941	-2.7772644422	-2.9335391313	 0.0777
H	 1.0052051489	-4.2940527794	-0.2759870548	 0.130669
H	 0.0175974549	-4.6255913893	-1.7007871613	 0.115019
H	 1.7683020397	-4.8834135699	-1.7702753589	 0.103162
H	-0.6981632145	-1.6607231083	-1.9907532724	 0.064814
H	-0.0749994374	-1.5650662836	 0.6130415137	 0.291358
58.7156	103.5258	181.5908	195.7818	226.2451	255.4767	292.8461	336.3833	389.6982	422.088	464.04	516.8659	604.2728	713.7825	768.8546	824.5332	838.9851	845.6014	932.3176	976.3025	998.2541	1013.3235	1049.3665	1083.5877	1108.9622	1127.7225	1148.8714	1170.9472	1180.4597	1215.2555	1222.0662	1298.442	1304.4449	1328.1658	1354.0469	1360.9257	1391.1398	1410.2196	1431.4402	1477.2935	1489.3363	1490.9244	1500.3608	1507.6508	1686.8767	2963.909	2980.6864	2995.0672	3026.8034	3040.0052	3056.2835	3102.5325	3120.2528	3135.601	3178.3775	3211.85	3727.664
COC1C=CC(C)C1O	CO[C@H]1C=C[C@@H](C)[C@H]1O	
InChI=1S/C7H12O2/c1-5-3-4-6(9-2)7(5)8/h3-8H,1-2H3	InChI=1S/C7H12O2/c1-5-3-4-6(9-2)7(5)8/h3-8H,1-2H3/t5-,6+,7-/m1/s1
