21
gdb 99846	2.03621	1.25666	1.17247	2.9588	78.38	-0.245	0.0145	0.2595	1248.4414	0.180581	-420.418391	-420.407468	-420.406523	-420.45389	40.009	
C	 0.0961331794	 1.4554665218	-0.2173658913	-0.431606
C	 0.0561176746	-0.0532207881	 0.0686451117	 0.011975
C	 0.7690054614	-0.3687950411	 1.3922840188	-0.415788
C	-1.3959669306	-0.6111488876	 0.0113762995	 0.1971
O	-2.0184049475	-0.3027187665	-1.2338327966	-0.457027
C	-1.4441656491	-2.1648576006	 0.0891850186	-0.170279
N	-2.7616273192	-2.7599531569	-0.0321079201	-0.509162
C	-2.2095094996	-0.0486571948	 1.1158540424	 0.25237
N	-2.848948119	 0.3933408295	 1.9721077477	-0.352242
H	 1.1291660282	 1.8144501716	-0.198573199	 0.126126
H	-0.3082782615	 1.6964019032	-1.205095383	 0.113444
H	-0.463816184	 2.0189028276	 0.5375857332	 0.137863
H	 0.5786995873	-0.5684365913	-0.7471025132	 0.091491
H	 0.8617733155	-1.4426620087	 1.5721059192	 0.125902
H	 1.7800882179	 0.0487153159	 1.3772098968	 0.121373
H	 0.2400644818	 0.0741265198	 2.2428107792	 0.14158
H	-2.1854353401	 0.6443142773	-1.2761096201	 0.295868
H	-0.8145089424	-2.5249671013	-0.7328886945	 0.119338
H	-0.9897268178	-2.4953845168	 1.0256700416	 0.121312
H	-3.3341184985	-2.517034915	 0.7713849582	 0.239183
H	-3.2263951768	-2.3749758379	-0.8489535092	 0.241178
61.7576	109.0339	144.2576	161.1891	196.2432	227.6174	243.643	295.7775	303.0297	313.3553	357.3132	381.4127	414.4753	443.0807	469.6344	606.2409	630.8087	690.1747	855.0329	879.8266	902.0052	932.7226	964.4826	985.9024	1006.409	1068.1393	1122.1365	1144.5604	1175.8293	1199.817	1232.0454	1320.8281	1338.4786	1362.2321	1380.1121	1403.5528	1407.3931	1427.0119	1472.1782	1490.6478	1498.5034	1507.7706	1518.7365	1671.1141	2341.9326	3030.068	3034.2937	3043.1381	3044.8447	3104.696	3106.5525	3110.0353	3111.855	3124.1929	3495.8627	3575.9343	3826.0132
CC(C)C(O)(CN)C#N	CC(C)[C@@](O)(CN)C#N	
InChI=1S/C6H12N2O/c1-5(2)6(9,3-7)4-8/h5,9H,3,7H2,1-2H3	InChI=1S/C6H12N2O/c1-5(2)6(9,3-7)4-8/h5,9H,3,7H2,1-2H3/t6-/m1/s1
