16
gdb 24665	4.56212	1.11805	0.95486	2.4974	78.22	-0.2543	-0.0299	0.2245	1193.5207	0.126894	-400.78239	-400.775319	-400.774374	-400.814449	26.808	
C	 0.1621848771	 1.5116058802	 0.0164672002	-0.176049
O	 1.1846490099	 0.5410152002	-0.1846906759	-0.224649
C	-0.1487145013	 0.0681113043	 0.0080047481	-0.020735
C	-0.4349193863	-0.679063267	 1.2626327582	 0.302322
C	 0.4582007957	-0.6770489102	 2.3343207896	-0.210711
C	 0.1220809677	-1.3786649276	 3.4869810409	 0.014004
N	-1.0145696811	-2.0653449144	 3.6400581173	-0.271081
C	-1.8590527704	-2.0676673438	 2.6053655527	 0.015884
C	-1.6184286099	-1.4031084382	 1.4068459293	-0.216241
H	 0.1947779864	 2.0363506668	 0.9698037574	 0.123814
H	-0.0868440759	 2.120030139	-0.8517684872	 0.125415
H	-0.6166630516	-0.3360522542	-0.890044797	 0.103628
H	 1.4028963888	-0.1525102858	 2.2531480785	 0.117702
H	 0.8058016028	-1.3935004285	 4.3327075087	 0.110671
H	-2.7779050116	-2.634258777	 2.7382023916	 0.110014
H	-2.3442106802	-1.4505922638	 0.6009497074	 0.096011
70.3363	147.3144	195.7136	334.5398	391.1062	399.8682	568.6923	582.1516	679.7376	770.1632	773.2822	843.18	872.0301	904.8746	913.9382	988.9848	1004.6914	1007.509	1009.8758	1088.941	1094.3091	1107.745	1152.9881	1168.824	1226.955	1247.0589	1276.1053	1301.1438	1352.32	1416.0596	1448.5754	1521.22	1528.1909	1605.113	1638.5915	3085.5225	3108.9669	3151.7889	3155.1453	3178.8803	3180.5555	3207.2029
C1OC1C1=CC=NC=C1	C1O[C@H]1c1ccncc1	
InChI=1S/C7H7NO/c1-3-8-4-2-6(1)7-5-9-7/h1-4,7H,5H2	InChI=1S/C7H7NO/c1-3-8-4-2-6(1)7-5-9-7/h1-4,7H,5H2/t7-/m1/s1
