23
gdb 40958	3.21175	1.23108	1.11174	1.2909	84.82	-0.2406	0.0785	0.3191	1211.6071	0.208484	-388.293423	-388.285282	-388.284338	-388.325882	32.988	
C	 0.1422835157	 1.3968929765	-0.5971709375	-0.210461
C	 1.4284302516	 1.6264071378	 0.2404393979	-0.279551
C	 1.3099266428	 0.1762803538	 0.7989146162	 0.368798
C	-0.1623692231	 0.1410400692	 0.2615839549	-0.260881
C	 2.2295222358	-0.820823121	 0.0758009292	-0.259047
C	 2.0380028545	-2.2397777134	 0.6180986868	-0.079823
O	 2.2441029818	-2.2998599627	 2.0189371512	-0.243986
C	 1.3421898269	-1.4613090972	 2.7211628946	-0.077736
C	 1.4966314348	 0.0051145335	 2.3087988337	-0.277866
H	-0.6037074225	 2.194621951	-0.589789629	 0.09669
H	 0.3608222311	 1.147466292	-1.6387604139	 0.102393
H	 2.3470349718	 1.8686332602	-0.3023245238	 0.091978
H	 1.2845483308	 2.3759640869	 1.0251836791	 0.093297
H	-0.8911209204	 0.3451403133	 1.0521965157	 0.09431
H	-0.4807343192	-0.7606673622	-0.2689672196	 0.093817
H	 2.0462011486	-0.8104927966	-1.0058636923	 0.08901
H	 3.2749008668	-0.52358549	 0.2302009576	 0.099029
H	 1.0259290577	-2.6058478656	 0.3711400877	 0.084136
H	 2.7587375569	-2.9317662462	 0.1723369572	 0.103742
H	 0.3037402876	-1.7938017554	 2.5454103469	 0.084531
H	 1.5601665884	-1.5992498947	 3.7843275166	 0.103443
H	 2.5010829035	 0.3464958221	 2.5926020294	 0.098812
H	 0.7760744181	 0.6235688987	 2.8584437915	 0.085364
107.9717	134.8491	197.0452	278.672	305.6239	372.7969	392.3199	436.1525	482.0047	580.1389	637.1552	704.5534	789.8619	821.8914	848.4983	867.7328	883.3313	937.7604	946.9202	961.2642	997.3375	1007.5968	1019.8145	1023.4287	1079.7015	1128.3214	1135.2086	1171.6486	1196.348	1210.5477	1218.3236	1254.1271	1257.632	1267.2277	1277.4786	1311.5976	1321.859	1328.0926	1354.7938	1379.4647	1386.8389	1424.7688	1467.6011	1473.2712	1481.3668	1485.3292	1492.7739	1504.8141	1507.4453	2949.3595	2955.4284	3013.286	3018.1499	3041.2408	3046.851	3057.3766	3060.2247	3063.3822	3078.8816	3081.5667	3087.3988	3093.567	3116.0626
C1CC2(C1)CCOCC2	C1CC2(C1)CCOCC2	
InChI=1S/C8H14O/c1-2-8(3-1)4-6-9-7-5-8/h1-7H2	InChI=1S/C8H14O/c1-2-8(3-1)4-6-9-7-5-8/h1-7H2
