21
gdb 58192	2.24047	1.24865	1.00889	4.7623	79.62	-0.2417	0.025	0.2667	1288.2844	0.181082	-420.399498	-420.389153	-420.388209	-420.435015	37.868	
C	 0.8057490628	 1.5811041959	 0.7136529869	-0.432156
C	 0.1047527965	 0.297019209	 0.2601238218	 0.02125
C	 0.2016278137	-0.7400586857	 1.4349109135	-0.00801
O	-0.7734282876	-0.4598853114	 2.4023419243	-0.407447
C	 0.1167360608	-2.14535622	 0.9664582341	 0.274622
N	 0.0707738267	-3.243826615	 0.6085831	-0.336122
N	-1.3284212444	 0.468250778	-0.0565424371	-0.086215
C	-1.771594512	 1.8144874641	-0.4092008897	-0.32689
C	-1.7986295686	-0.495678154	-1.0544849878	-0.350663
H	 1.8597429731	 1.3624846206	 0.9068816744	 0.126349
H	 0.7666750338	 2.3612807499	-0.0485605563	 0.127341
H	 0.3664720358	 1.9639191542	 1.6392587292	 0.143057
H	 0.6443607572	-0.1034983975	-0.6116359626	 0.08874
H	 1.1853283665	-0.637035834	 1.9070007821	 0.127848
H	-1.5265895805	-0.1374206356	 1.8698716449	 0.28166
H	-1.3346206544	 2.186519362	-1.3522668467	 0.104458
H	-2.8581566955	 1.7954383313	-0.5344278364	 0.126832
H	-1.543758667	 2.5265237617	 0.3846112419	 0.131268
H	-1.5335258533	-1.5133877053	-0.766914692	 0.163897
H	-2.8883761371	-0.4383042448	-1.1293275415	 0.124938
H	-1.3749700265	-0.2983783532	-2.054773753	 0.105244
37.0969	87.2457	151.3747	200.2738	221.6463	244.814	263.0844	296.6295	313.8282	373.9643	386.0959	416.0585	445.614	533.4894	584.9688	638.3198	695.9123	765.5463	859.2472	965.1661	977.3966	1030.7866	1062.7568	1090.2865	1098.3519	1121.549	1139.1979	1182.2159	1238.4272	1258.9805	1302.1754	1318.8182	1363.5279	1383.0558	1411.7142	1445.0336	1450.8298	1480.7072	1490.5509	1495.3417	1503.5896	1505.0373	1513.7899	1520.6122	2345.5421	2953.3544	2959.8082	2985.7761	3048.2055	3052.8172	3080.0828	3083.9969	3118.7775	3136.1937	3138.4482	3148.5256	3569.1388
CC(C(O)C#N)N(C)C	C[C@@H]([C@@H](O)C#N)N(C)C	
InChI=1S/C6H12N2O/c1-5(8(2)3)6(9)4-7/h5-6,9H,1-3H3	InChI=1S/C6H12N2O/c1-5(8(2)3)6(9)4-7/h5-6,9H,1-3H3/t5-,6-/m0/s1
