16
gdb 73938	3.12372	1.29556	0.92625	3.5228	83.3	-0.2435	-0.049	0.1945	1202.4476	0.123247	-400.780847	-400.771839	-400.770894	-400.814882	32.447	
C	 0.0583766318	 1.5305934769	 0.0407174867	-0.509114
C	-0.0132997894	 0.0452314898	 0.0307004787	 0.061627
C	-1.0853833909	-0.770229759	-0.0314429464	 0.083385
C	-0.6395833147	-2.2220062207	-0.0129966836	-0.269182
N	 0.7939997243	-2.0965589175	 0.0660728284	-0.358049
C	 1.2271212282	-0.7907311271	 0.09529164	 0.405526
O	 2.3761837229	-0.4047907771	 0.1599727233	-0.387631
C	-2.4488827395	-0.4155827018	-0.1047392774	 0.224578
C	-3.6208701869	-0.1408408989	-0.1678854078	-0.405637
H	 0.6596094829	 1.888356134	-0.8024845976	 0.148786
H	-0.9349257776	 1.9808085621	-0.0109877195	 0.133032
H	 0.5653409321	 1.8810882169	 0.9465814203	 0.148803
H	-1.0651372389	-2.7548340499	 0.8484907235	 0.133863
H	-0.9682212167	-2.7475536851	-0.9201669391	 0.133864
H	 1.4342726411	-2.8711541343	 0.0981593679	 0.257246
H	-4.6508843187	 0.1119845919	-0.2233351575	 0.198904
74.7331	99.5944	134.5616	137.5174	236.5392	256.7604	380.8032	410.8489	441.1807	492.915	583.439	597.6969	610.7083	653.3338	660.012	762.1172	763.3324	894.5621	1008.9352	1057.189	1059.1975	1100.8547	1162.5468	1171.1914	1185.6928	1329.7261	1348.311	1413.4302	1422.4697	1471.8348	1475.4609	1503.8783	1685.4298	1816.2337	2221.2112	3007.3059	3033.4956	3037.1303	3088.6828	3133.6844	3501.0983	3673.6391
CC1=C(CNC1=O)C#C	CC1=C(CNC1=O)C#C	
InChI=1S/C7H7NO/c1-3-6-4-8-7(9)5(6)2/h1H,4H2,2H3,(H,8,9)	InChI=1S/C7H7NO/c1-3-6-4-8-7(9)5(6)2/h1H,4H2,2H3,(H,8,9)
