15
gdb 33719	6.26646	0.94043	0.93969	4.2515	80.06	-0.2666	-0.008	0.2586	1226.6422	0.112668	-379.577299	-379.569573	-379.568628	-379.609477	29.715	
C	-0.0062781237	-1.1098435807	-0.0779933084	-0.342243
C	-0.0132318306	 0.0907480573	-0.0188798019	 0.060864
C	-0.0020715731	 1.519235961	 0.0566313358	 0.232577
C	-0.6568700479	 2.4440213108	 1.1292223206	-0.256993
C	-0.0491273019	 3.3546103108	 0.0265197572	 0.222674
C	 1.2336602295	 2.4758965223	 0.0575518648	-0.293724
N	-0.6911538298	 2.4145265752	-0.9864103598	-0.357051
C	-0.1340683011	 4.7889383683	-0.089393421	 0.166574
N	-0.1816064003	 5.9406974614	-0.1748973335	-0.341998
H	-0.0071085448	-2.1708545765	-0.1316806467	 0.191052
H	-1.7448915409	 2.4195404181	 1.1610844503	 0.136985
H	-0.184912062	 2.4743690655	 2.1107306418	 0.120876
H	 1.8539328202	 2.5084926198	 0.9569572873	 0.120247
H	 1.8313754089	 2.4792779225	-0.8569357491	 0.119473
H	-0.1265169726	 2.4156147844	-1.8432039273	 0.220686
108.436	111.506	208.1022	212.8217	457.0541	469.2901	489.5724	540.3992	543.3441	566.6469	590.9156	616.5778	643.0904	672.5047	783.6031	817.5945	943.2206	962.0671	1006.6198	1041.0489	1076.5351	1093.5333	1119.2478	1132.6076	1166.4249	1228.1466	1263.153	1284.4953	1345.9627	1481.5777	1526.9165	2241.9525	2357.5462	3057.3456	3098.5199	3133.4462	3184.0208	3380.9167	3498.9196
C#CC12CC(C1)(N2)C#N	C#C[C@@]12C[C@@](C1)(N2)C#N	
InChI=1S/C7H6N2/c1-2-6-3-7(4-6,5-8)9-6/h1,9H,3-4H2	InChI=1S/C7H6N2/c1-2-6-3-7(4-6,5-8)9-6/h1,9H,3-4H2/t6-,7+
