18
gdb 113516	2.82585	1.15338	1.07146	2.1091	75.	-0.2464	0.0244	0.2708	1215.726	0.146708	-439.051057	-439.042277	-439.041333	-439.084896	31.993	
C	-0.3442750012	 1.0954192943	-0.2412649356	-0.241321
O	 0.4942543484	-0.001306175	 0.0792266247	-0.23367
C	 0.9851677933	-0.6547656114	-1.0413256241	 0.061707
C	 1.5578031326	-2.0131681393	-0.8280649107	-0.387697
C	 0.2420395463	-1.8720224623	-1.5539989535	 0.162807
C	-1.1448350366	-2.3859903581	-1.1938977099	-0.146444
O	-1.3827649334	-2.6528561403	-2.6171741263	-0.270075
C	-0.1105376343	-2.216257393	-2.9552396482	 0.388641
N	 0.4717897693	-2.1507142434	-4.0646523424	-0.565232
H	 0.1962632577	 1.8538083196	-0.8257428407	 0.117708
H	-1.2285357443	 0.7828665545	-0.8136203321	 0.114911
H	-0.6657168181	 1.5369941623	 0.7043091865	 0.133611
H	 1.4390703153	-0.0128201535	-1.797235118	 0.111721
H	 2.4218371545	-2.3088827513	-1.4123654919	 0.143218
H	 1.5116795022	-2.4062061383	 0.1821727477	 0.133749
H	-1.1865938805	-3.3112434734	-0.6130740145	 0.123913
H	-1.8593748695	-1.6573093579	-0.8039093381	 0.124196
H	-0.1240374115	-2.4834884835	-4.8233131928	 0.228257
98.0779	102.2321	130.7932	164.4993	202.7578	267.0761	292.1817	407.8175	458.7946	554.5944	619.8871	668.6311	776.3299	819.2323	842.2893	869.5325	913.6177	955.0033	993.6963	1023.3463	1063.6463	1073.2173	1086.7668	1130.8655	1137.4686	1174.8797	1182.0587	1184.9617	1247.8672	1251.0805	1313.2336	1369.4147	1419.0991	1468.8185	1486.4659	1495.3305	1510.524	1519.1049	1822.7416	2992.4788	3045.4092	3059.5501	3102.792	3116.2387	3126.576	3135.9314	3231.2457	3489.0691
COC1CC11COC1=N	CO[C@H]1C[C@]21CO[C]2[NH]	
InChI=1S/C6H9NO2/c1-8-4-2-6(4)3-9-5(6)7/h4,7H,2-3H2,1H3	InChI=1S/C6H9NO2/c1-8-4-2-6(4)3-9-5(6)7/h4,7H,2-3H2,1H3/t4-,6+/m0/s1
