15
gdb 25086	3.30201	1.66024	1.12475	2.9785	67.05	-0.1817	0.0646	0.2463	1006.0052	0.115409	-453.991706	-453.984329	-453.983385	-454.023801	27.31	
O	 0.0528657201	-0.034803757	-0.2506856479	-0.438364
C	 0.0158573516	 1.1719075516	-0.1100829562	 0.448657
N	-1.0790463589	 2.0209789785	-0.0690089728	-0.369412
C	-0.7125683983	 3.3786626163	 0.1260854681	-0.261729
C	 0.628261682	 3.3557936616	 0.2083792366	 0.40521
O	 1.6450515543	 4.2130962733	 0.445579711	-0.278654
C	 2.8660134238	 3.4814180123	 0.1693825823	-0.107785
C	 2.5043569036	 1.974256412	 0.2688822356	-0.194708
N	 1.0808498074	 2.0607982607	 0.0431469686	-0.150885
H	-2.0126362721	 1.6795092302	-0.209299065	 0.266262
H	-1.4287965866	 4.1753945739	 0.1925778571	 0.141319
H	 3.2049804207	 3.7374656035	-0.8406234724	 0.128862
H	 3.6156811018	 3.7985731078	 0.8951238631	 0.134508
H	 3.0100930411	 1.3767104393	-0.4928359864	 0.143576
H	 2.7342530396	 1.5541026461	 1.2550858084	 0.133145
113.5688	140.9462	161.8537	222.7092	299.8787	436.6759	586.4638	597.9513	636.5463	639.5738	661.5106	738.741	760.5976	818.5623	880.5024	948.9866	1014.265	1050.0335	1089.2798	1138.4326	1140.8454	1209.8168	1247.6824	1289.0585	1295.9754	1360.0857	1373.4728	1399.9621	1457.5078	1513.9014	1530.4914	1735.8161	1835.4026	3035.5979	3045.883	3104.6541	3131.8967	3310.7266	3702.8991
O=C1NC=C2OCCN12	O=c1[nH]cc2OCCn12	
InChI=1S/C5H6N2O2/c8-5-6-3-4-7(5)1-2-9-4/h3H,1-2H2,(H,6,8)	InChI=1S/C5H6N2O2/c8-5-6-3-4-7(5)1-2-9-4/h3H,1-2H2,(H,6,8)
