18
gdb 62090	4.24511	0.71616	0.68862	4.6886	70.23	-0.2594	0.008	0.2674	1621.4265	0.145101	-476.281206	-476.270647	-476.269703	-476.318896	35.552	
C	 0.1344941837	 1.5397346805	 0.3341641491	-0.399943
C	 0.0027085331	 0.0370598075	 0.0319674785	-0.102272
C	 0.7713244987	-0.8210747257	 1.0413065665	-0.083753
O	 2.1655132248	-0.4973878209	 0.9915520704	-0.186473
C	 2.7878040792	-0.1704453307	 2.1405617214	 0.168422
O	 3.950389209	 0.0957587191	 2.19088941	-0.274915
C	-1.4723459807	-0.37038203	 0.0990326718	 0.412701
N	-2.1125145446	-0.4524764298	-1.1000021887	-0.525505
O	-2.0325622395	-0.5826312437	 1.1590296718	-0.372071
H	 1.1842926966	 1.8416568364	 0.3220963042	 0.141892
H	-0.4005996574	 2.1365718291	-0.4099268862	 0.121853
H	-0.2886506151	 1.7671897719	 1.3174573601	 0.138625
H	 0.4045003833	-0.1645698302	-0.9680864286	 0.086653
H	 0.3658729573	-0.6589946255	 2.045518383	 0.137955
H	 0.6705830048	-1.8841935929	 0.801200078	 0.1255
H	 2.1055827008	-0.1765547534	 3.0128565315	 0.082936
H	-1.6486343342	-0.2814180484	-1.9742704044	 0.263275
H	-3.0951071299	-0.6738917932	-1.1047932886	 0.265119
29.4872	42.6279	56.684	137.6148	174.714	196.7315	225.937	250.242	291.6066	329.7905	375.8488	513.7936	581.4888	600.47	687.5924	772.0923	803.5442	903.9975	930.8683	1042.807	1047.3342	1049.5213	1106.2252	1115.6765	1134.4638	1210.5977	1262.0663	1293.4974	1357.8884	1373.7665	1404.4288	1411.1485	1432.7792	1496.1758	1501.6826	1507.4458	1617.5209	1788.6666	1866.1593	2951.8265	3038.2373	3044.3564	3046.3435	3097.2989	3116.639	3130.2049	3601.8034	3740.4285
CC(COC=O)C(N)=O	C[C@@H](COC=O)C(=O)N	
InChI=1S/C5H9NO3/c1-4(5(6)8)2-9-3-7/h3-4H,2H2,1H3,(H2,6,8)	InChI=1S/C5H9NO3/c1-4(5(6)8)2-9-3-7/h3-4H,2H2,1H3,(H2,6,8)/t4-/m0/s1
