18
gdb 47526	2.60875	1.78025	1.29138	4.4273	71.33	-0.2324	0.0097	0.2421	999.8729	0.151235	-439.104016	-439.096811	-439.095867	-439.135564	28.691	
O	 0.0371060337	-0.0774339727	-0.3278007795	-0.366
C	 0.0227561722	 1.1141367129	-0.0798597905	 0.380296
N	-1.155008755	 1.7956900462	 0.1139445404	-0.300821
C	-1.4085509494	 3.2299258489	-0.0142032228	-0.178753
C	-0.4934930317	 4.147906184	 0.8098827197	-0.197672
C	 0.9985474788	 3.8579972917	 0.6621923969	 0.108765
C	 1.443000468	 3.2283438772	-0.6779210921	-0.299157
C	 1.3233593827	 1.9007532354	 0.1047777538	 0.01361
O	 1.3257137091	 2.6256986988	 1.3559396155	-0.283528
H	-1.9539027643	 1.1960419171	-0.0400639464	 0.245241
H	-1.3655245932	 3.5352163423	-1.0707665709	 0.111144
H	-2.4408418008	 3.3942442716	 0.3074336916	 0.118226
H	-0.7069560619	 5.1807909098	 0.5084718534	 0.101955
H	-0.7317209209	 4.060265381	 1.8755449522	 0.124604
H	 1.5959581643	 4.6937066128	 1.0404834963	 0.08294
H	 0.8199595336	 3.3756687665	-1.5611577429	 0.113856
H	 2.480818807	 3.456509106	-0.9228207712	 0.120156
H	 2.1441333777	 1.1853416405	 0.0320278066	 0.10514
104.9914	212.521	263.4871	321.3469	369.8402	382.5682	433.5222	542.9441	590.1768	663.0189	731.6635	775.1232	797.503	875.2653	889.3554	923.1338	947.4368	955.9657	1009.6124	1035.1893	1073.8647	1104.412	1125.2936	1149.0712	1223.1486	1248.0152	1265.1413	1274.9706	1325.4879	1329.7999	1350.0444	1367.9884	1396.3737	1414.3852	1461.9308	1479.2575	1495.6611	1522.5866	1784.0802	2984.3384	3032.1922	3056.7858	3078.4664	3086.0765	3087.1998	3105.689	3141.9634	3595.3958
O=C1NCCC2CC1O2	O=C1NCC[C@@H]2C[C@H]1O2	
InChI=1S/C6H9NO2/c8-6-5-3-4(9-5)1-2-7-6/h4-5H,1-3H2,(H,7,8)	InChI=1S/C6H9NO2/c8-6-5-3-4(9-5)1-2-7-6/h4-5H,1-3H2,(H,7,8)/t4-,5-/m1/s1
