15
gdb 77405	2.25287	2.0415	1.27977	2.1019	60.21	-0.2317	0.0542	0.2859	951.5978	0.110037	-494.788153	-494.78015	-494.779205	-494.820149	31.017	
O	-0.049788579	 1.4848902832	-0.1401157271	-0.447049
C	 0.0573522186	 0.0819494105	-0.056444988	-0.039778
C	 0.0565504825	-0.5584506916	 1.3332531737	 0.361993
O	 1.0858511187	-0.4912568516	 2.2324350371	-0.472656
C	-1.4796127237	-0.3074403364	 1.552328055	-0.090956
O	-1.760229251	-1.695169536	 1.902995082	-0.330379
C	-0.7718757378	-1.8084607139	 0.8386297635	-0.072705
C	-1.3154789203	-0.6123572618	 0.0098161142	 0.382881
O	-2.2745061904	-0.7004898703	-0.9618744398	-0.466509
H	 0.8055061001	 1.8696100053	 0.0764538855	 0.294964
H	 0.7761930143	-0.3275156631	-0.7790586926	 0.077464
H	 0.8073264504	-0.9457121889	 3.0377686215	 0.29864
H	-2.0086710943	 0.4888315299	 2.071134823	 0.10336
H	-0.4500106349	-2.7959523394	 0.5124046193	 0.101368
H	-2.4678574232	 0.191886364	-1.2723551572	 0.299361
175.3518	183.1309	223.5595	270.9473	286.9758	305.3875	338.9414	381.5512	459.858	571.2754	610.8746	616.6962	709.3381	779.9056	819.202	874.5032	900.5905	937.2977	987.995	1008.1916	1051.3253	1054.6532	1118.9459	1126.2883	1156.7097	1171.6546	1259.4451	1269.1854	1298.2059	1345.9048	1391.9705	1409.4911	1503.725	3019.203	3138.6844	3150.2485	3776.4745	3797.2511	3819.833
OC1C2(O)C3OC2C13O	O[C@H]1[C@@]2(O)[C@@H]3O[C@H]2[C@]13O	
InChI=1S/C5H6O4/c6-1-4(7)2-5(1,8)3(4)9-2/h1-3,6-8H	InChI=1S/C5H6O4/c6-1-4(7)2-5(1,8)3(4)9-2/h1-3,6-8H/t1-,2-,3+,4+,5-
