17
gdb 62745	2.6146	1.53442	1.24473	2.6922	70.87	-0.2248	0.0068	0.2315	1046.8029	0.133479	-455.093355	-455.084223	-455.083279	-455.126517	34.741	
C	-0.0300113491	 1.575630959	-0.1243073039	-0.454263
C	 0.1008940835	 0.0779316213	-0.0025392633	 0.404047
O	-1.0076704551	-0.6126731952	-0.5146010997	-0.483245
C	 1.3839389914	-0.6865145044	-0.1965905635	-0.187803
N	 2.5013623956	 0.1126665332	 0.3850652938	-0.374243
C	 1.9668548924	-0.0837540014	 1.7013510566	 0.291005
N	 2.4171563387	 0.0110085506	 2.8755133663	-0.541185
C	 0.686036589	-0.6697465476	 1.1913842104	 0.228666
O	-0.146802004	-1.5156385132	 1.8816637727	-0.459564
H	 0.8979111294	 2.0757932515	 0.156150604	 0.139939
H	-0.2669915112	 1.8328027916	-1.1615085771	 0.12707
H	-0.8430892953	 1.9398447795	 0.5105751676	 0.123437
H	-1.3718793178	-1.1556007991	 0.1962133191	 0.300111
H	 1.5328644674	-1.4667759647	-0.9302152295	 0.120266
H	 3.4365014683	-0.25027167	 0.2374363948	 0.240441
H	 3.3812020576	 0.3500672622	 2.883351799	 0.220608
H	 0.3881419292	-2.1544251733	 2.3669919826	 0.304713
105.8803	160.5031	196.4002	206.739	261.0883	289.1143	299.9398	329.638	400.2126	403.865	461.6382	533.6508	573.5474	651.8103	707.7413	726.5846	777.5371	883.7428	898.5451	928.8989	959.3575	973.5719	1008.9486	1041.872	1098.2305	1155.9357	1221.5039	1248.8821	1290.0367	1306.3557	1354.2613	1377.1875	1411.6519	1466.7755	1486.4983	1497.5076	1793.8784	3046.5289	3110.3054	3147.7207	3218.3304	3459.6958	3550.1974	3770.1902	3798.1693
CC1(O)C2NC(=N)C12O	C[C@@]1(O)[C@H]2N[C]([NH])[C@@]12O	
InChI=1S/C5H8N2O2/c1-4(8)2-5(4,9)3(6)7-2/h2,8-9H,1H3,(H2,6,7)	InChI=1S/C5H8N2O2/c1-4(8)2-5(4,9)3(6)7-2/h2,8-9H,1H3,(H2,6,7)/t2-,4-,5-/m1/s1
