20
gdb 59681	2.13316	1.39911	0.97723	4.2098	78.6	-0.2779	0.0005	0.2784	1266.0237	0.169919	-403.146072	-403.13649	-403.135545	-403.180771	34.728	
C	-0.0291388127	 1.5374679363	-0.0901291568	-0.399679
C	 0.0474683742	 0.0113234735	 0.0636979443	 0.004278
C	 0.8126190891	-0.3789863577	 1.3358956511	-0.400482
C	-1.3571038179	-0.5861122299	 0.0590315503	-0.021617
C	-2.2243218329	-0.4712493991	-1.21428338	-0.102294
O	-2.511460654	-1.8914147635	-1.1995668449	-0.270389
C	-1.5731068166	-2.122216908	-0.1364929428	-0.038541
C	-0.4076777362	-2.8960643265	-0.5868217176	 0.292422
N	 0.5123051132	-3.5032287896	-0.9351832985	-0.333238
H	 0.9737831088	 1.9738909557	-0.1206709095	 0.122147
H	-0.5457452186	 1.8291138876	-1.010606868	 0.117821
H	-0.5635972326	 1.9915610925	 0.7527200971	 0.115901
H	 0.589777866	-0.3937554954	-0.80117637	 0.09754
H	 0.3060150211	 0.0048238083	 2.2296323224	 0.111773
H	 0.9060204515	-1.4643354565	 1.4361699357	 0.130356
H	 1.8241807334	 0.0380006501	 1.3223810994	 0.121714
H	-1.9030496847	-0.2536829363	 0.9473295855	 0.093216
H	-3.1386227755	 0.1255967387	-1.1456804685	 0.116869
H	-1.668697941	-0.1852848775	-2.1165429396	 0.114456
H	-2.0341954245	-2.6506818928	 0.7054639903	 0.127747
65.9817	101.7476	115.6045	190.6552	225.3607	230.334	256.6186	312.0381	344.4855	403.0994	450.1671	543.4466	597.8202	739.3566	820.5109	882.003	913.1199	935.6065	967.0311	982.6607	986.9162	1023.984	1033.1451	1089.5342	1141.8729	1161.7848	1179.195	1203.9824	1242.1647	1270.555	1306.4183	1348.1713	1350.4432	1357.9684	1403.4272	1403.7218	1426.1437	1486.6235	1494.5266	1507.1051	1511.4344	1524.1829	2350.3569	3017.5391	3021.9097	3027.4561	3031.5189	3045.2031	3063.1176	3086.8196	3093.4843	3099.0549	3106.5059	3112.0808
CC(C)C1COC1C#N	CC(C)[C@H]1CO[C@H]1C#N	
InChI=1S/C7H11NO/c1-5(2)6-4-9-7(6)3-8/h5-7H,4H2,1-2H3	InChI=1S/C7H11NO/c1-5(2)6-4-9-7(6)3-8/h5-7H,4H2,1-2H3/t6-,7+/m1/s1
