19
gdb 109452	2.39138	1.48723	1.02092	2.0818	79.2	-0.2257	0.027	0.2526	1204.2601	0.158286	-419.165609	-419.156549	-419.155605	-419.19938	33.85	
C	 0.2608293423	 1.3711090779	-0.001218654	-0.246079
O	-0.2336664073	 0.1067729207	-0.4180750608	-0.245909
C	 0.6134840983	-0.5425243084	-1.3154319819	-0.053351
C	 1.8425541864	-1.2687350621	-0.724250105	 0.378838
N	 2.7900871554	-0.8671385849	 0.0109222565	-0.556927
N	 1.437318955	-2.4769613869	-1.2930437887	-0.395327
C	 0.1355369007	-1.9521514253	-1.6998965199	 0.375953
C	-1.205955888	-2.5369855295	-1.4147634437	-0.315067
C	-0.7006111133	-2.4075783331	-2.847067572	-0.338649
H	 1.224337512	 1.2727211062	 0.5107527021	 0.151799
H	 0.3809504378	 2.0515048708	-0.8585725888	 0.10292
H	-0.4810928108	 1.7887483137	 0.6829321913	 0.123725
H	 0.8622504582	 0.0996882003	-2.1740411174	 0.086549
H	 3.4073804876	-1.6330948472	 0.2895150357	 0.207986
H	 1.615211702	-3.398267135	-0.9158184293	 0.237735
H	-1.2517762034	-3.5330224048	-0.9854749455	 0.111498
H	-1.97921093	-1.8592416907	-1.0703048332	 0.136573
H	-1.1495687761	-1.6565303457	-3.4891918749	 0.122026
H	-0.4049634069	-3.3167484959	-3.3607767607	 0.115706
87.5948	111.1832	157.7656	180.7553	236.9848	248.8803	311.268	383.2787	407.0047	454.6627	528.5664	565.7691	689.7678	765.3848	819.2994	840.0509	876.0512	907.9731	932.6519	976.5411	1014.776	1040.3745	1053.8209	1067.0145	1071.9374	1170.4817	1184.1196	1185.3395	1211.7983	1222.3111	1242.2498	1270.8768	1333.1205	1376.3686	1425.0336	1456.8793	1480.2761	1485.0085	1510.731	1515.668	1794.5402	2985.2722	2991.6652	3072.5933	3125.9063	3126.7107	3130.0985	3207.4217	3223.1866	3443.8376	3578.7667
COC1C(=N)NC11CC1	CO[C@H]1[C]([NH])NC21CC2	
InChI=1S/C6H10N2O/c1-9-4-5(7)8-6(4)2-3-6/h4H,2-3H2,1H3,(H2,7,8)	InChI=1S/C6H10N2O/c1-9-4-5(7)8-6(4)2-3-6/h4H,2-3H2,1H3,(H2,7,8)/t4-/m0/s1
