15
gdb 127359	3.51605	1.67566	1.14302	5.5761	73.92	-0.2126	-0.0026	0.21	1003.1946	0.116794	-413.01057	-413.003545	-413.002601	-413.042123	26.588	
C	-0.0008817561	 1.4841309778	-0.0298590583	-0.348594
N	-0.0091373325	 0.0410611842	 0.0296116907	-0.175768
C	-0.0588036761	-0.8384689651	-1.0424717521	-0.000858
N	-0.0544497464	-2.1097212891	-0.7351499336	-0.349794
C	 0.002789112	-2.0955976388	 0.6457075803	 0.367819
N	 0.0366844441	-3.0088698038	 1.6161208146	-0.337936
N	 0.0873404248	-2.2394792896	 2.7264098907	-0.177911
C	 0.0875200575	-0.8831270357	 2.5156026906	-0.205221
C	 0.032207106	-0.7700214308	 1.1447241484	 0.263569
H	 0.9117316142	 1.892522697	 0.4182703218	 0.141607
H	-0.0427379754	 1.796708177	-1.0754680336	 0.144933
H	-0.8663048272	 1.9056693156	 0.4933795804	 0.141615
H	-0.097921122	-0.4476970535	-2.0510878079	 0.128873
H	 0.1217145283	-2.6993282685	 3.6202112121	 0.275934
H	 0.1258840189	-0.1845346368	 3.3341582358	 0.131732
108.1375	149.4314	258.5837	270.2177	360.1549	473.2659	562.7817	606.2897	617.4276	645.8973	698.4287	733.4552	788.1151	814.5737	862.2665	972.0441	1049.9371	1056.3835	1106.7058	1154.0043	1205.1069	1248.8204	1286.7314	1345.0356	1374.9694	1436.4402	1457.3936	1469.9541	1479.0589	1518.6929	1519.8311	1541.631	1676.4142	3027.0734	3082.1573	3129.862	3227.3866	3273.4611	3678.3296
CN1C=NC2=NNC=C12	Cn1cnc2n[nH]cc12	
InChI=1S/C5H6N4/c1-9-3-6-5-4(9)2-7-8-5/h2-3H,1H3,(H,7,8)	InChI=1S/C5H6N4/c1-9-3-6-5-4(9)2-7-8-5/h2-3H,1H3,(H,7,8)
