20
gdb 103574	2.49393	1.26066	1.10418	2.4474	76.25	-0.2412	0.0349	0.2761	1203.3978	0.168878	-440.31005	-440.299886	-440.298942	-440.345145	36.532	
C	 0.0367844835	 1.4142114481	 0.0481936871	-0.355636
N	-0.0598492077	-0.023732472	 0.0399523465	-0.095973
C	-0.0528757745	-0.9034110732	-1.0137864907	 0.419287
O	-0.0834708537	-0.7288639387	-2.2050216415	-0.37856
C	 0.0288417155	-2.1118742523	-0.0579722919	-0.45656
C	 0.0626206793	-1.061316915	 1.0973978889	 0.293944
C	 1.3662545791	-0.9843448663	 1.8865551594	-0.443956
C	-1.1600950627	-1.1209413406	 2.0182496821	-0.11276
O	-1.2475254504	-0.0076365229	 2.8957730601	-0.417079
H	 0.8902601875	 1.7529423989	 0.6461684231	 0.134947
H	 0.1783857964	 1.7393905722	-0.9858302845	 0.163475
H	-0.8697477668	 1.898954481	 0.433980643	 0.114028
H	-0.8450231952	-2.7674196718	-0.0778712114	 0.12601
H	 0.9364584272	-2.7083377987	-0.1667659066	 0.130386
H	 2.2251879995	-0.8952639665	 1.2151047097	 0.119122
H	 1.3554544421	-0.1287947748	 2.5670345885	 0.135854
H	 1.495415098	-1.8866628061	 2.4929623292	 0.124514
H	-2.0695359098	-1.2232765186	 1.4090062208	 0.094169
H	-1.0857664255	-2.0078259573	 2.65801737	 0.115243
H	-1.5785528519	 0.7423879945	 2.3932408881	 0.289545
82.6589	94.7024	103.5468	152.4138	223.9326	228.1537	246.2773	270.8329	324.8246	347.3106	379.3867	462.2428	555.9411	564.9978	672.3105	724.5153	830.2228	890.6131	930.2133	953.7164	974.3135	1061.1246	1065.2405	1074.7125	1128.385	1148.7415	1178.9284	1196.6709	1225.1861	1276.5828	1305.006	1387.2805	1397.5385	1403.2114	1415.1077	1440.9732	1464.4248	1483.1895	1490.9989	1495.1312	1501.3569	1512.8358	1875.2174	3001.1338	3006.6876	3040.5083	3064.3161	3069.102	3078.125	3110.6234	3122.5938	3123.5854	3136.3708	3834.8563
CN1C(=O)CC1(C)CO	CN1C(=O)C[C@]1(C)CO	
InChI=1S/C6H11NO2/c1-6(4-8)3-5(9)7(6)2/h8H,3-4H2,1-2H3	InChI=1S/C6H11NO2/c1-6(4-8)3-5(9)7(6)2/h8H,3-4H2,1-2H3/t6-/m1/s1
