21
gdb 40181	3.20484	1.38811	1.17364	1.6635	81.22	-0.2568	0.0839	0.3406	1121.2491	0.184676	-387.080431	-387.072738	-387.071794	-387.112374	31.485	
C	-0.0029812606	 1.5283516938	 0.0012900121	-0.330661
C	 1.3078152111	 0.7760114767	 0.0534135166	-0.302233
C	-0.0038984027	 0.0241025423	 0.0063260746	 0.395858
C	-0.4317575741	-0.7183109039	 1.2610167672	-0.29136
C	 0.2669145659	-2.0846324919	 1.3445859385	-0.235511
C	 0.1061874642	-2.8783006085	 0.067362247	 0.068503
O	-1.2113939911	-2.9224067574	-0.4892201277	-0.258275
C	-0.1963007195	-2.202425016	-1.2060615692	 0.041878
C	-0.3790748774	-0.6947663452	-1.2845622523	-0.305359
H	-0.3317382651	 2.0456299662	 0.8968565919	 0.108816
H	-0.2610196904	 2.0369177177	-0.9224426904	 0.107643
H	 1.9344408307	 0.7809672046	-0.8325438842	 0.106595
H	 1.8624945434	 0.7857837258	 0.9864790359	 0.107309
H	-0.1954128695	-0.1270153775	 2.1520727615	 0.089332
H	-1.5175607452	-0.8677167818	 1.2511579521	 0.112695
H	 1.3407961515	-1.9465236041	 1.5266905689	 0.102832
H	-0.1246260517	-2.6670276914	 2.1874821691	 0.102787
H	 0.634300673	-3.8328442002	 0.0333376301	 0.082226
H	 0.103053597	-2.6927489831	-2.1329449537	 0.087333
H	-1.4313988211	-0.5016734958	-1.5332385445	 0.114522
H	 0.2147133014	-0.3026100603	-2.1179383834	 0.095071
93.6967	177.6706	279.4534	295.5481	339.4155	364.8182	396.9869	473.0963	554.1245	645.5037	716.0503	779.1874	795.9219	804.8615	855.2731	890.177	909.0063	929.2788	956.7482	978.4005	993.4677	1023.8642	1047.6038	1055.1502	1061.5377	1079.6637	1091.514	1157.8906	1186.5095	1191.5804	1227.8916	1247.2842	1291.5587	1313.2152	1322.2859	1365.4771	1372.9502	1382.7396	1408.5912	1462.2718	1466.1567	1474.3184	1483.9314	1488.8709	1506.353	3016.189	3021.9427	3036.1078	3059.2812	3060.6905	3079.8124	3089.6909	3105.0734	3120.8725	3125.3871	3197.9352	3212.4712
C1CC11CCC2OC2C1	C1CC21CC[C@H]1O[C@H]1C2	
InChI=1S/C8H12O/c1-2-8(3-4-8)5-7-6(1)9-7/h6-7H,1-5H2	InChI=1S/C8H12O/c1-2-8(3-4-8)5-7-6(1)9-7/h6-7H,1-5H2/t6-,7+/m1/s1
