19
gdb 64975	3.53208	1.04028	0.86228	4.6756	78.93	-0.2494	-0.022	0.2275	1350.2022	0.159233	-419.23156	-419.222394	-419.221449	-419.266353	34.099	
C	 0.1120143834	 1.3738575518	-0.0404417091	-0.512701
C	 0.0614104791	-0.1424683979	 0.0144122819	 0.273783
C	 1.3861210841	-0.8896024202	-0.0129837982	-0.275554
C	 0.6085149877	-0.8174657603	 1.2629648013	-0.275552
C	-1.0879188583	-0.8594916346	-0.6454535686	 0.334047
N	-1.164124562	-2.1267186162	-0.6200266533	-0.525622
N	-2.0309661451	-0.0053786632	-1.2687522395	-0.362027
C	-3.1673891527	-0.381612025	-1.939928274	 0.166953
O	-3.5551695298	-1.5152431055	-2.1119667713	-0.29863
H	 1.0014306233	 1.7363190217	 0.4811810984	 0.12949
H	 0.1743279552	 1.7529150008	-1.0685778846	 0.122117
H	-0.7520862126	 1.8387951635	 0.4512710812	 0.122125
H	 1.3849317162	-1.8358821851	-0.539729815	 0.144054
H	 2.2869938421	-0.2931291056	-0.1117355295	 0.107649
H	 0.964904325	-0.1704796881	 2.0576335351	 0.107646
H	 0.0934582867	-1.7160717619	 1.5793984039	 0.144067
H	-1.9947212189	-2.4575613457	-1.1075834139	 0.25241
H	-1.8617700974	 0.9866330222	-1.2219040805	 0.254108
H	-3.7153327762	 0.5009757693	-2.323866944	 0.091636
26.296	79.3709	189.7001	252.1445	271.8806	288.6773	315.4525	335.6106	359.1901	407.4996	519.1599	592.1167	647.0793	712.3087	794.9663	848.3814	850.4231	929.5327	939.5265	959.0392	963.9074	1014.3448	1023.839	1061.7216	1077.9966	1092.4025	1120.2935	1193.3374	1204.6936	1273.7057	1314.5526	1367.5321	1419.2227	1442.3069	1449.3312	1483.3911	1501.8041	1505.8982	1518.4356	1716.9357	1811.769	2942.5814	3010.8847	3066.0138	3108.1382	3134.5258	3136.9186	3229.7187	3241.6729	3510.6168	3638.141
CC1(CC1)C(=N)NC=O	CC1(CC1)C(=N)NC=O	
InChI=1S/C6H10N2O/c1-6(2-3-6)5(7)8-4-9/h4H,2-3H2,1H3,(H2,7,8,9)	InChI=1S/C6H10N2O/c1-6(2-3-6)5(7)8-4-9/h4H,2-3H2,1H3,(H2,7,8,9)
