22
gdb 103126	2.07496	1.31735	1.21102	1.719	85.17	-0.227	-0.0329	0.1942	1231.22	0.191273	-404.33493	-404.324451	-404.323507	-404.36975	38.446	
C	 0.5274312935	 0.9230441701	 0.4955138791	-0.39067
C	 0.1609039595	-0.4528631733	-0.0822605036	-0.259785
C	-1.3222113872	-0.7872235968	 0.0232704981	 0.31431
C	-2.242067544	 0.0972748159	-0.803119955	-0.441156
C	-1.7714669489	-2.2479964358	 0.1616719613	-0.16752
C	-0.8042074043	-3.37136037	 0.1728160817	 0.148532
O	 0.2524266089	-3.4249103679	 0.7653907076	-0.282462
N	-1.922617743	-1.265921179	 1.2482539195	-0.128102
C	-1.1767991582	-1.4150597292	 2.4952950011	-0.330314
H	 1.6035508546	 1.0961301169	 0.4007483042	 0.118862
H	 0.0167575884	 1.7389665135	-0.024608421	 0.118958
H	 0.2732354169	 0.9937523369	 1.5574724321	 0.122993
H	 0.4332054032	-0.4795989403	-1.1450026335	 0.09902
H	 0.7549834403	-1.2273286657	 0.4044738396	 0.14219
H	-1.9759654705	 0.0532480875	-1.8647223071	 0.116952
H	-3.2819302526	-0.2138669334	-0.6839892882	 0.127483
H	-2.1687896757	 1.1406781664	-0.4802588009	 0.126626
H	-2.7123657518	-2.5175405079	-0.31683836	 0.089681
H	-1.1436837461	-4.2345855045	-0.4434768697	 0.08039
H	-0.1506264282	-1.7766405204	 2.388117703	 0.146382
H	-1.1744014738	-0.4449000159	 3.0014796131	 0.123572
H	-1.7195597311	-2.1215115371	 3.1308719888	 0.124057
94.5981	145.3176	150.7699	186.7098	190.8532	201.4118	216.8054	259.8557	288.6164	297.0193	351.0582	394.5741	482.8934	506.4094	684.7093	711.886	761.2578	797.81	853.4484	928.4606	982.5152	1009.0593	1018.9342	1043.4435	1062.6804	1093.0427	1120.5209	1156.1225	1168.6593	1176.1001	1264.4869	1307.1919	1347.1572	1375.6222	1406.2445	1410.5281	1421.1661	1432.9739	1452.6656	1480.0785	1482.959	1493.4929	1495.7662	1505.1666	1509.8463	1522.048	1786.9214	2872.2867	3031.2193	3035.7095	3038.5022	3043.2924	3100.2937	3103.0682	3106.2272	3111.1182	3112.063	3114.4344	3129.5237	3131.3514
CCC1(C)C(C=O)N1C	CC[C@@]1(C)[C@@H](C=O)N1C	
InChI=1S/C7H13NO/c1-4-7(2)6(5-9)8(7)3/h5-6H,4H2,1-3H3	InChI=1S/C7H13NO/c1-4-7(2)6(5-9)8(7)3/h5-6H,4H2,1-3H3/t6-,7+,8?/m1/s1
