19
gdb 98201	3.18251	1.03252	0.94073	0.9055	68.37	-0.2576	0.0111	0.2687	1323.286	0.155475	-497.323547	-497.312735	-497.311791	-497.359813	37.918	
C	-0.1699530789	 1.3585005134	 0.0463517911	-0.240611
O	-0.1184065732	-0.0700585826	 0.1512553688	-0.227324
C	 0.7285059898	-0.5493126916	 1.0710399966	 0.467964
O	 1.3965769513	 0.1421307075	 1.8010771844	-0.382355
C	 0.7151589388	-2.0807554438	 1.0948058256	 0.24488
C	-0.6613127652	-2.5883900735	 1.5569311511	-0.43728
O	 0.9920561735	-2.5185636521	-0.2293055432	-0.476941
C	 1.8357194438	-2.5660328682	 2.0263821804	-0.116883
O	 1.9113734556	-3.9786374319	 1.8348936531	-0.439925
H	 0.8111622861	 1.7592586383	-0.2203002477	 0.14265
H	-0.8954184144	 1.5711251139	-0.7385253056	 0.136041
H	-0.4859643949	 1.8037088058	 0.9932384581	 0.139545
H	-1.4188310612	-2.3064188987	 0.8240536838	 0.13691
H	-0.6324387073	-3.6773900046	 1.6458873207	 0.132488
H	-0.9344147488	-2.1700776231	 2.5317638838	 0.116422
H	 1.3252899494	-3.4203864421	-0.1235651111	 0.287876
H	 2.7736077041	-2.0740991827	 1.7454029636	 0.11171
H	 1.6108690061	-2.3115790862	 3.0693872186	 0.106807
H	 2.7476928354	-4.2906118579	 2.189712868	 0.298028
35.7461	106.2279	118.5212	148.8636	156.8268	236.2254	245.142	266.7651	283.7269	331.6374	359.1787	364.9545	417.1775	444.1352	523.0921	701.3848	775.1901	814.7448	891.9601	941.0277	976.6485	1018.9234	1061.5998	1129.8155	1142.7698	1177.6391	1200.9012	1210.1401	1257.5497	1261.9786	1281.9601	1388.1729	1421.898	1444.3979	1472.7796	1481.5714	1492.026	1495.4269	1496.7386	1510.8077	1811.4096	3023.9585	3042.9955	3052.2239	3072.7788	3116.4851	3126.7232	3146.9639	3161.7905	3752.1654	3852.0606
COC(=O)C(C)(O)CO	COC(=O)[C@@](C)(O)CO	
InChI=1S/C5H10O4/c1-5(8,3-6)4(7)9-2/h6,8H,3H2,1-2H3	InChI=1S/C5H10O4/c1-5(8,3-6)4(7)9-2/h6,8H,3H2,1-2H3/t5-/m0/s1
