21
gdb 72646	2.02064	1.92225	1.56183	1.8265	82.44	-0.2356	0.0158	0.2515	1023.0562	0.182352	-387.096996	-387.088475	-387.087531	-387.12941	33.881	
C	-0.1858197189	 1.5092333397	 0.0329233366	-0.484882
C	-0.0443496055	-0.0042964783	 0.0065737198	 0.236487
C	 1.1465934577	-0.5290050123	-0.8344777904	-0.11803
O	 1.8695865484	-0.9647760443	 0.3330798311	-0.330275
C	 0.7148178322	-0.7080682285	 1.1883274196	 0.382068
C	 1.1251490808	 0.0292752539	 2.4467178918	-0.461825
C	-0.0994215614	-1.9573469715	 1.4239544003	-0.116321
C	-1.2047788934	-1.9918571351	 0.6806579426	-0.075801
C	-1.3710762073	-0.7666356059	-0.1876128828	-0.337919
H	 0.777735234	 2.0021065484	 0.1962655086	 0.122112
H	-0.5855034763	 1.8749976651	-0.920197735	 0.116827
H	-0.8705326338	 1.8336322454	 0.8241495827	 0.116555
H	 0.8998144097	-1.3649167842	-1.5029825683	 0.092759
H	 1.708298459	 0.2258213869	-1.3981344041	 0.095574
H	 1.6634773298	 0.9499817639	 2.2074083366	 0.120368
H	 0.2515803663	 0.2762541924	 3.058683195	 0.117937
H	 1.7904229381	-0.6026988087	 3.045078653	 0.125797
H	 0.2183378951	-2.7261389146	 2.1203541699	 0.095091
H	-1.930191191	-2.7991781508	 0.6836829552	 0.096083
H	-2.2349857833	-0.166190443	 0.1305957914	 0.102883
H	-1.5516292003	-1.0221221785	-1.2402234238	 0.104512
110.3757	193.707	228.2533	235.916	264.7701	291.5523	340.8922	363.1076	444.2155	494.9634	559.938	658.2665	671.6383	749.8108	776.0921	873.1666	888.3367	922.3542	943.3942	954.5361	974.8305	978.0377	992.0466	1019.2117	1091.6335	1121.2329	1133.7273	1159.6972	1174.2373	1203.6326	1243.6491	1251.7518	1262.424	1331.9831	1361.1119	1376.1554	1401.4475	1414.084	1477.3509	1482.4157	1486.6554	1497.0184	1501.9948	1521.5339	1680.2866	3001.3346	3006.7956	3025.3237	3034.649	3035.8773	3050.7909	3087.7044	3100.8478	3103.0794	3119.2493	3174.3065	3199.935
CC12COC1(C)C=CC2	C[C@@]12CO[C@]1(C)C=CC2	
InChI=1S/C8H12O/c1-7-4-3-5-8(7,2)9-6-7/h3,5H,4,6H2,1-2H3	InChI=1S/C8H12O/c1-7-4-3-5-8(7,2)9-6-7/h3,5H,4,6H2,1-2H3/t7-,8-/m1/s1
