20
gdb 100371	2.52437	1.045	0.89425	3.6319	79.64	-0.2606	-0.0361	0.2246	1385.1498	0.167609	-403.180955	-403.170308	-403.169364	-403.217118	37.43	
C	-0.0368725197	 1.556043412	-0.1671844028	-0.411823
C	 0.0079269141	 0.038947224	 0.029402936	-0.186928
C	 0.7252579237	-0.4516616728	 1.3201325595	 0.060005
C	 0.0272228587	 0.0761342501	 2.5940303784	-0.413101
C	 0.7279131364	-2.0073340244	 1.320420597	-0.296767
C	 1.4473866826	-2.6319199286	 2.500557166	 0.144207
O	 0.9611608295	-3.4673650316	 3.2181153934	-0.240509
C	 2.1184742196	 0.0285868543	 1.2971987961	 0.286954
N	 3.2106436545	 0.40742016	 1.2692232378	-0.350909
H	 0.9687951382	 1.9871888413	-0.1667387084	 0.14631
H	-0.5017392054	 1.7932524559	-1.128334253	 0.125746
H	-0.6216083301	 2.0551430726	 0.6107289555	 0.12486
H	-1.0104628245	-0.3663527006	 0.0573633265	 0.108751
H	 0.5054325519	-0.4236406042	-0.8303924307	 0.115578
H	-1.0156746022	-0.2553856796	 2.6002713241	 0.131247
H	 0.5099889797	-0.3044153926	 3.4979438349	 0.14433
H	 0.0474831602	 1.1664738184	 2.6368932244	 0.14176
H	-0.3024830091	-2.3733361924	 1.3119998866	 0.128248
H	 1.2259498812	-2.3603051468	 0.4073774003	 0.135474
H	 2.4872666907	-2.2703180549	 2.6585732385	 0.106565
56.5136	78.7881	96.9948	153.1937	158.8847	210.22	220.2768	266.0269	291.9964	347.9756	373.9256	407.969	492.364	579.4108	618.6739	682.9582	789.6062	815.7525	887.1319	942.8042	958.9393	1018.9615	1040.2117	1075.7759	1084.4185	1165.3782	1179.0301	1200.0183	1257.5813	1306.7535	1339.1184	1368.8518	1413.7802	1418.0785	1430.112	1455.1145	1478.9219	1489.9748	1496.3467	1505.701	1510.6596	1832.3422	2347.3521	2898.0374	3027.2124	3033.8943	3045.3038	3049.3242	3072.6253	3105.7058	3114.8595	3119.5999	3120.7258	3139.8855
CCC(C)(CC=O)C#N	CC[C@@](C)(CC=O)C#N	
InChI=1S/C7H11NO/c1-3-7(2,6-8)4-5-9/h5H,3-4H2,1-2H3	InChI=1S/C7H11NO/c1-3-7(2,6-8)4-5-9/h5H,3-4H2,1-2H3/t7-/m0/s1
