21
gdb 106308	3.48605	1.14348	1.06034	1.9578	78.32	-0.2498	0.0721	0.3219	1212.5062	0.183029	-424.214924	-424.206206	-424.205262	-424.247857	34.587	
O	-0.0868597132	 1.4019508027	-0.1848119584	-0.425103
C	-0.0096941569	-0.0056630249	 0.0085559212	-0.194135
C	-1.4109088613	-0.5548334965	 0.0099126645	 0.366136
C	-2.304818415	-0.5388092251	-1.2689397728	-0.286787
C	-3.074063713	-1.6343468596	-0.4960710397	 0.420666
O	-3.91740356	-2.4812939926	-1.2121806211	-0.486668
C	-1.6838263958	-2.0857130508	 0.0646738983	-0.348407
C	-3.6615735343	-0.8464675524	 0.693207259	-0.282126
C	-2.3945770979	-0.0231061332	 1.0811493431	-0.248022
H	 0.8068153662	 1.7564221057	-0.1762151637	 0.287754
H	 0.5772537361	-0.4846858597	-0.7916122665	 0.082208
H	 0.4821819614	-0.2482168303	 0.9661489358	 0.081421
H	-2.832987906	 0.383830441	-1.5221808022	 0.095409
H	-1.7884138032	-0.9399898486	-2.1441406462	 0.096662
H	-4.410270488	-3.0202776875	-0.5841374691	 0.276134
H	-1.1125347757	-2.6474702693	-0.6782406787	 0.09666
H	-1.6452982255	-2.5827475254	 1.0398274046	 0.079327
H	-4.5057722409	-0.2228467163	 0.3851837727	 0.101399
H	-4.0033720776	-1.509182064	 1.4965746052	 0.083452
H	-2.0443487986	-0.23620279	 2.0963787018	 0.089258
H	-2.5402635008	 1.0552380665	 0.993054302	 0.114762
86.9393	160.2107	230.6887	249.0117	266.961	283.8556	339.8942	392.6352	449.3664	461.4243	524.3499	578.5586	634.2773	705.4458	824.615	837.7	843.3752	923.9268	958.4949	965.4244	983.9075	997.6704	1014.6738	1039.7207	1067.6669	1114.0812	1129.1098	1158.529	1172.0108	1190.8675	1210.1514	1216.3987	1238.5183	1251.4935	1275.0477	1300.1701	1325.3338	1349.0998	1389.7729	1465.7333	1483.6008	1493.6068	1500.7854	1513.7325	1537.8401	2953.2873	2984.8982	3034.3168	3041.637	3053.0551	3062.5297	3085.6223	3112.2186	3115.4378	3124.4544	3804.1839	3832.2279
OCC12CC(O)(C1)CC2	OC[C@@]12C[C@@](O)(C1)CC2	
InChI=1S/C7H12O2/c8-5-6-1-2-7(9,3-6)4-6/h8-9H,1-5H2	InChI=1S/C7H12O2/c8-5-6-1-2-7(9,3-6)4-6/h8-9H,1-5H2/t6-,7+
