21
gdb 95407	3.14953	1.20738	0.91485	1.0653	89.32	-0.2132	-0.0215	0.1916	1333.9869	0.182262	-387.101323	-387.092271	-387.091327	-387.135068	34.695	
C	-0.3356209759	 1.4343158516	 0.0245177249	-0.402573
C	 0.0387856107	-0.0444190745	 0.0278603368	 0.060502
O	 0.6493079235	-0.3236112327	-1.235807303	-0.249921
C	 0.491617074	-1.6401059132	-1.6997552603	-0.138399
C	 1.0276881961	-2.7520693494	-0.8431778942	-0.163638
C	 1.5442359128	-2.727809595	 0.3969724224	 0.286998
C	 2.0896175683	-4.0005197583	 1.0099490248	-0.479059
C	 1.6246526482	-1.5544922766	 1.2763810865	-0.118587
C	 0.9674497085	-0.3947267922	 1.1644087696	-0.069311
H	 0.5611128973	 2.0487442824	-0.1025208421	 0.129193
H	-1.0219208582	 1.6526365621	-0.7969406652	 0.119276
H	-0.815271679	 1.7118909814	 0.9682206399	 0.113924
H	-0.8799742125	-0.6487905906	 0.1152766612	 0.080698
H	-0.5698167327	-1.8537139581	-1.9316841791	 0.092402
H	 1.0173570251	-1.6630304339	-2.6644461252	 0.11844
H	 1.0004993321	-3.7137814521	-1.3558037036	 0.081527
H	 3.1520544169	-3.888764207	 1.2604703165	 0.125817
H	 1.5713086548	-4.2443282749	 1.9454976864	 0.125099
H	 1.9900180775	-4.8526323687	 0.333499935	 0.118314
H	 2.2716848019	-1.6820477463	 2.1426298242	 0.082661
H	 1.1246260607	 0.370635626	 1.9206618844	 0.086636
47.2564	168.1859	204.8563	227.3624	263.0231	274.8796	304.1208	357.1436	362.0606	422.6548	468.9251	620.1753	688.4905	694.9181	760.6994	798.9859	836.9344	877.6132	897.9099	976.2104	993.5687	1029.7852	1042.7085	1064.5679	1070.8797	1135.7772	1140.7565	1155.932	1198.9208	1258.5228	1280.0809	1325.5933	1362.3982	1370.6808	1404.9351	1406.5189	1415.6963	1446.1459	1477.4367	1479.8522	1485.7136	1496.3846	1497.6943	1684.6365	1725.1025	2912.7593	2956.4538	3019.7003	3025.3603	3042.3147	3068.1403	3114.4168	3116.0719	3125.357	3127.2078	3132.5796	3160.7569
CC1OCC=C(C)C=C1	C[C@H]1OCC=C(C)C=C1	
InChI=1S/C8H12O/c1-7-3-4-8(2)9-6-5-7/h3-5,8H,6H2,1-2H3	InChI=1S/C8H12O/c1-7-3-4-8(2)9-6-5-7/h3-5,8H,6H2,1-2H3/t8-/m1/s1
