17
gdb 7756	3.26967	1.88329	1.28495	3.7181	71.16	-0.2381	0.0118	0.2499	952.6464	0.143693	-363.916679	-363.909115	-363.908171	-363.948916	28.455	
C	-0.3022265003	 1.5437659136	 0.0024480835	-0.384401
C	 0.0660485909	 0.0489011758	 0.0245941851	-0.000555
N	 0.7848390331	-0.319410792	-1.1877752955	-0.318031
C	 2.0075824468	-0.911341485	-1.325552566	 0.398474
O	 2.4763538277	-1.1630856845	-2.4206930831	-0.381715
C	 2.7601998202	-1.2374212905	-0.042746985	-0.377453
C	 2.0518297998	-0.874895585	 1.2269784951	-0.074961
C	 0.8516045135	-0.306422402	 1.2525685511	-0.043599
H	 0.6011636384	 2.160071874	-0.0060992888	 0.130343
H	-0.8951083804	 1.7833470576	-0.8866389231	 0.115856
H	-0.897635409	 1.8052384546	 0.882761402	 0.120532
H	-0.8798023475	-0.5183688016	 0.0541309728	 0.096157
H	 0.3349773579	-0.1237061087	-2.0714792862	 0.24139
H	 2.9956821913	-2.3091587768	-0.0723693145	 0.142008
H	 3.7342220478	-0.7354110425	-0.1092338495	 0.142317
H	 2.5632204924	-1.1026420714	 2.1589261929	 0.097697
H	 0.3708472974	-0.0629913055	 2.1955254492	 0.09594
67.0937	89.2196	250.8625	269.0279	358.1364	461.5196	476.2462	506.4684	526.398	570.8461	653.1894	716.9802	754.1611	863.4548	921.767	965.5431	973.5067	1002.8614	1008.1854	1050.9273	1097.6742	1169.4021	1193.3097	1209.4242	1322.4034	1341.5536	1354.0623	1387.7632	1401.8564	1429.4453	1451.5049	1476.4963	1495.2248	1502.682	1745.6158	1788.3281	2950.6961	3029.1676	3034.7652	3051.0839	3105.1481	3121.9247	3152.4035	3179.3815	3596.0145
CC1NC(=O)CC=C1	C[C@H]1NC(=O)CC=C1	
InChI=1S/C6H9NO/c1-5-3-2-4-6(8)7-5/h2-3,5H,4H2,1H3,(H,7,8)	InChI=1S/C6H9NO/c1-5-3-2-4-6(8)7-5/h2-3,5H,4H2,1H3,(H,7,8)/t5-/m1/s1
