16
gdb 43846	3.20719	1.31035	1.01182	5.9216	71.87	-0.2355	-0.063	0.1725	1145.6735	0.124277	-437.923578	-437.915682	-437.914738	-437.957002	29.902	
O	-0.0038614835	 0.0006352548	 0.0034076887	-0.277603
C	-0.0312595819	 1.1986339681	 0.0105319451	 0.307194
C	-1.2638966114	 2.0996763027	 0.0325553379	-0.420112
C	-0.7141418495	 3.5235606013	 0.0327624221	 0.384213
C	-1.3716996703	 4.6531508788	-0.7108856234	-0.317068
C	-1.3509252875	 4.6449333381	 0.8063120892	-0.317084
N	 0.7210583775	 3.3837437633	 0.0123498216	-0.373763
C	 1.2172543142	 2.11188256	-0.0014373741	 0.304317
O	 2.3753314912	 1.7680691893	-0.0191275086	-0.351515
H	-1.8857586817	 1.8878234202	-0.8422635971	 0.15117
H	-1.8612200064	 1.8781485621	 0.9219627766	 0.151175
H	-0.7321288472	 5.3656054604	-1.221842738	 0.122357
H	-2.3101647917	 4.4529846377	-1.2172597758	 0.127537
H	-2.2751993424	 4.4391628668	 1.3360045832	 0.127539
H	-0.6974979767	 5.3519106865	 1.3072495946	 0.122353
H	 1.3426800476	 4.1785186599	 0.0084203979	 0.25929
27.8936	106.951	263.932	303.6512	318.6359	359.9144	460.5015	466.0709	545.02	559.1188	630.8673	674.2437	732.1868	767.8895	845.6352	852.1562	928.9219	958.1781	986.8871	994.5732	1060.1551	1079.1719	1087.6774	1175.3222	1187.8021	1229.3022	1281.0342	1294.464	1328.3322	1436.3448	1455.8576	1462.5606	1506.1193	1838.9211	1867.1085	3061.7143	3104.164	3126.9945	3130.3672	3208.1698	3222.7452	3623.7066
O=C1CC2(CC2)NC1=O	O=C1CC2(CC2)NC1=O	
InChI=1S/C6H7NO2/c8-4-3-6(1-2-6)7-5(4)9/h1-3H2,(H,7,9)	InChI=1S/C6H7NO2/c8-4-3-6(1-2-6)7-5(4)9/h1-3H2,(H,7,9)
