13
gdb 129999	3.03947	1.32804	0.93011	5.0954	77.47	-0.1987	-0.0619	0.1369	1148.9216	0.089211	-448.939861	-448.931997	-448.931053	-448.972361	28.988	
N	-0.0902085214	 1.2286690347	 0.1435048223	-0.565958
C	 0.0453810987	-0.1264372706	 0.0381951854	 0.367311
N	-0.9685221216	-0.9296740304	 0.0117945324	-0.349295
C	-0.4425290691	-2.232748784	-0.0106073007	 0.268639
C	 1.0221943406	-2.290307241	-0.0103381362	 0.328921
C	 1.4016224612	-0.7919152729	 0.0274237267	-0.434171
O	 1.7685451753	-3.2399453862	-0.0355769138	-0.341473
N	-1.7897310765	-4.2637074872	-0.061581856	-0.228566
N	-1.1953039867	-3.2946815804	-0.0370623418	 0.113781
H	 0.6607355205	 1.8036721494	-0.2024344938	 0.261284
H	-1.018979221	 1.5879132603	-0.0238386393	 0.266134
H	 2.0076312603	-0.5288511447	-0.8462379046	 0.151984
H	 1.9932939697	-0.5651846271	 0.9200647894	 0.161409
122.7844	137.1543	138.6732	311.4781	348.1887	379.8384	438.3394	458.2318	491.6073	543.2429	554.2533	588.6047	617.2396	641.7565	800.108	888.9047	943.5665	1035.6083	1131.0921	1142.8126	1208.5225	1243.3953	1382.5476	1419.5249	1459.2705	1620.8453	1683.3529	1808.6015	2187.012	3057.7681	3101.7833	3576.4415	3696.3966
NC1=NC2=C(C1)ON=N2	NC1=N[C](C(=O)C1)[N][N]	
InChI=1S/C4H4N4O/c5-3-1-2-4(6-3)7-8-9-2/h1H2,(H2,5,6)	InChI=1S/C4H4N4O/c5-3-1-2(9)4(7-3)8-6/h1H2,(H2,5,7,8)
