15
gdb 33295	6.10141	0.72106	0.68472	0.7067	93.24	-0.2276	-0.0237	0.2039	1585.9223	0.110785	-383.389453	-383.381232	-383.380288	-383.422592	30.876	
C	 0.0437642815	-3.7884292677	-0.0360791352	-0.598562
C	 0.0359404007	-2.5800155073	-0.0263089638	 0.254948
C	 0.0244535444	-1.2220470222	-0.0130985142	-0.01296
C	 0.0273389357	-0.0087168237	-0.0068985539	 0.208642
C	-0.0003064692	 1.4023238951	 0.0246701616	 0.005151
C	 0.2784347722	 2.2989640019	-1.1835022496	-0.335179
C	 1.1191694057	 2.4587909533	 0.0317570187	 0.068074
O	 0.4673182826	 3.2510731576	 1.0133770751	-0.276453
C	-0.5993781186	 2.2745554869	 1.13706496	-0.130603
H	 0.0536929864	-4.8498560938	-0.0466088847	 0.189857
H	 0.7411608866	 1.7771980704	-2.0142580321	 0.136568
H	-0.4328108874	 3.076286644	-1.4495067134	 0.125334
H	 2.196776884	 2.3565061276	 0.0827690705	 0.124885
H	-1.5896944586	 2.7069526918	 0.9567219003	 0.114621
H	-0.566347286	 1.7912431161	 2.1179411906	 0.125676
78.481	86.1996	212.8796	225.4067	321.5465	398.1169	444.436	477.2811	490.4402	507.0837	529.3874	577.9702	605.0408	747.1873	803.4692	843.3685	928.5696	970.8476	982.1379	995.6187	1049.1518	1082.5098	1089.1913	1093.4964	1157.9924	1209.3632	1290.6888	1336.0524	1412.7681	1473.2152	1514.6595	2178.9021	2342.9654	3037.008	3097.2772	3119.6371	3190.58	3222.5794	3505.2716
C#CC#CC12CC1OC2	C#CC#C[C@]12C[C@H]1OC2	
InChI=1S/C8H6O/c1-2-3-4-8-5-7(8)9-6-8/h1,7H,5-6H2	InChI=1S/C8H6O/c1-2-3-4-8-5-7(8)9-6-8/h1,7H,5-6H2/t7-,8-/m1/s1
