13
gdb 129740	3.20876	1.47508	1.05147	5.2914	64.14	-0.222	-0.0213	0.2007	1046.6259	0.089357	-486.034352	-486.026823	-486.025879	-486.066615	27.909	
N	-0.8978465389	 1.1158256602	 0.1581514703	-0.591539
C	-0.4063570401	-0.1437351099	 0.0382238181	 0.370405
C	-0.9839937209	-1.357233087	-0.2894120458	 0.25349
O	-2.2460391971	-1.7481542036	-0.6641369248	-0.209839
C	-3.3525068187	-1.2203286212	-0.1258447026	 0.127802
N	-3.3697155535	-0.2515135066	 0.6905489436	-0.473659
N	 0.0012437557	-2.2833451453	-0.3306687768	-0.145161
N	 1.1216153639	-1.789571171	-0.057654116	-0.039407
O	 0.8904360682	-0.3557087722	 0.2047475322	-0.220441
H	-0.2892588484	 1.7568522233	 0.6464318229	 0.267135
H	-1.8705204501	 1.1105081085	 0.4615538643	 0.282736
H	-4.2160669723	-1.7602244457	-0.5185798867	 0.133136
H	-4.3248763578	-0.0311673695	 0.9607988711	 0.245342
71.8365	202.2933	222.05	272.2416	301.9253	378.8462	435.5102	461.81	572.7698	624.6437	661.5622	693.3722	733.75	774.3954	791.5898	819.3754	980.6933	1034.0406	1091.6739	1109.4023	1252.4904	1304.4249	1355.4606	1409.0021	1461.5805	1478.8189	1601.6861	1677.7077	1711.915	3124.7836	3441.7994	3530.6385	3639.2217
NC1=C(OC=N)N=NO1	Nc1c(O[CH][NH])nno1	
InChI=1S/C3H4N4O2/c4-1-8-3-2(5)9-7-6-3/h1,4H,5H2	InChI=1S/C3H4N4O2/c4-1-8-3-2(5)9-7-6-3/h1,4H,5H2
