15
gdb 48086	3.28073	1.23116	1.00768	1.0717	66.62	-0.2462	-0.1052	0.141	1140.5896	0.110579	-457.695676	-457.687846	-457.686901	-457.729481	28.2	
O	 0.0711172517	 1.6675680094	-2.0819320488	-0.213899
C	 0.4296451757	 1.1127851601	-1.0775373668	 0.091955
C	 1.1284080347	 1.82556594	 0.0923809767	 0.252667
O	 1.4319083901	 1.152219524	 1.0534083586	-0.286622
C	 1.3707036022	 3.296823178	-0.0711043841	-0.086711
C	 1.9584827711	 4.1781530677	 1.0615238323	 0.038336
C	 3.3495192081	 3.5175827097	 0.9034287182	-0.232825
C	 2.7821655941	 3.8593645724	-0.4914720844	 0.039603
O	 2.3525212186	 5.1689821194	 0.0254495682	-0.303133
H	 0.2940468826	 0.0263334069	-0.8910866473	 0.111147
H	 0.5757207751	 3.7709711472	-0.6475416851	 0.120888
H	 1.4574116724	 4.5508863769	 1.9540311494	 0.109393
H	 4.184415522	 4.147674066	 1.2097281786	 0.116065
H	 3.4584102495	 2.4736133794	 1.1938215488	 0.130534
H	 3.244437442	 3.826469643	-1.4777115044	 0.112603
28.2961	123.2074	134.9957	201.5692	255.0648	408.6088	540.9232	548.8982	580.3289	627.8143	711.1789	807.2124	862.0785	881.9977	912.6295	928.0484	961.7569	1006.1829	1025.7296	1068.6708	1087.1442	1135.971	1168.3918	1169.5644	1193.6244	1206.8832	1259.8493	1274.136	1362.2884	1384.9791	1490.9538	1787.8777	1825.1399	2924.7789	3094.1529	3121.02	3126.4413	3134.3724	3175.7268
O=CC(=O)C1C2CC1O2	O=CC(=O)[C@H]1[C@H]2C[C@@H]1O2	
InChI=1S/C6H6O3/c7-2-3(8)6-4-1-5(6)9-4/h2,4-6H,1H2	InChI=1S/C6H6O3/c7-2-3(8)6-4-1-5(6)9-4/h2,4-6H,1H2/t4-,5+,6+
