15
gdb 44905	2.97299	1.84948	1.62181	3.2076	65.35	-0.2693	-0.0045	0.2649	859.0556	0.116485	-453.973925	-453.967709	-453.966765	-454.004461	25.051	
N	-0.0521065478	 1.2611129543	-0.0242512563	-0.539275
C	-0.03616701	 0.0071197213	-0.0106287552	 0.447178
O	 1.1132806659	-0.7794627914	-0.0401778648	-0.247311
C	 0.718276587	-2.1424940418	-0.0732298176	 0.203352
C	-0.6480533995	-2.124103485	-0.7613205108	-0.284603
C	-1.2172819914	-0.9478800732	 0.0448438294	-0.07932
N	-1.4092362175	-1.373483321	 1.4462890227	-0.257027
C	-0.5262784178	-2.1585276877	 1.9029478797	 0.124483
O	 0.5812759038	-2.6327320853	 1.2638324975	-0.228797
H	 0.8964105708	 1.6406263141	-0.0501858288	 0.231812
H	 1.5151899906	-2.7264928939	-0.52871395	 0.114974
H	-0.5399402699	-1.890690409	-1.8230888914	 0.129057
H	-1.2046125886	-3.0534474253	-0.6353434748	 0.130275
H	-2.1308444947	-0.4956902347	-0.3327942618	 0.113919
H	-0.581186241	-2.5508241515	 2.9150709623	 0.141283
137.7591	238.61	386.1555	406.0042	469.1023	491.6478	587.2191	681.6569	711.8211	753.5176	844.7924	865.3943	888.624	901.1537	918.0426	960.6296	962.9259	977.6082	1024.202	1066.7043	1108.5388	1137.0054	1164.7069	1233.3824	1265.4369	1304.7595	1326.7612	1360.0911	1379.4371	1399.5605	1485.0044	1707.9273	1806.1322	3079.3201	3142.7882	3151.0069	3153.0072	3181.4373	3471.1291
N=C1OC2CC1N=CO2	[NH][C]1O[C@@H]2C[C@H]1N=CO2	
InChI=1S/C5H6N2O2/c6-5-3-1-4(9-5)8-2-7-3/h2-4,6H,1H2	InChI=1S/C5H6N2O2/c6-5-3-1-4(9-5)8-2-7-3/h2-4,6H,1H2/t3-,4-/m1/s1
