20
gdb 61810	2.89642	1.02788	0.89947	4.1751	77.91	-0.257	0.0212	0.2782	1379.8203	0.167916	-440.26523	-440.255097	-440.254153	-440.301178	36.164	
C	-0.5571966746	 1.5311373239	-0.4979983909	-0.397116
C	-0.1474296477	 0.1071571048	-0.1229199586	 0.047781
O	-1.3226671791	-0.6851846653	 0.0857741901	-0.192901
C	-1.8313386624	-0.726744684	 1.3305451465	 0.128602
N	-2.9007340197	-1.3573114642	 1.5577194941	-0.444601
C	 0.7020596734	-0.5468174499	-1.2123615274	 0.398509
C	 2.1463694027	-0.0924924948	-1.2545226535	-0.469985
C	 0.3325081984	-1.8578720367	-1.7649346173	-0.220657
O	 0.0591563473	-0.6485587555	-2.4859117355	-0.277351
H	 0.3198433835	 2.1662926979	-0.6509020119	 0.12231
H	-1.1406009104	 1.507036749	-1.4211611035	 0.156357
H	-1.1651937687	 1.9759897623	 0.294721714	 0.119799
H	 0.4435516542	 0.1146100758	 0.8044887466	 0.079474
H	-1.2235027685	-0.1858554764	 2.0703787272	 0.084206
H	-3.1317243325	-1.3023399311	 2.5473672363	 0.228807
H	 2.6716807827	-0.3671514129	-0.3333691261	 0.12271
H	 2.657558518	-0.5596865242	-2.0990720669	 0.135233
H	 2.2218127555	 0.9929200202	-1.3753476728	 0.129523
H	 1.1130899061	-2.4857701352	-2.1938119264	 0.10647
H	-0.5425943583	-2.3756479139	-1.3857176741	 0.142829
45.7531	54.5496	111.4472	171.1463	185.8409	225.0063	251.1258	315.3702	328.1131	372.2195	406.9202	482.9102	545.0361	641.1762	737.8136	815.516	840.018	885.4254	922.8592	933.291	1005.3971	1042.3046	1053.1244	1058.9334	1110.4724	1138.5296	1139.2802	1144.1711	1181.4994	1240.3541	1295.5999	1349.5301	1385.9434	1396.5356	1404.7634	1417.5386	1430.1089	1481.2617	1489.8312	1495.7459	1498.2479	1524.9917	1744.4083	2997.6754	3013.049	3038.8739	3049.7842	3092.3732	3101.5555	3120.1411	3129.5713	3141.0231	3202.7211	3519.8007
CC(OC=N)C1(C)CO1	C[C@@H](O[CH][NH])[C@@]1(C)CO1	
InChI=1S/C6H11NO2/c1-5(8-4-7)6(2)3-9-6/h4-5,7H,3H2,1-2H3	InChI=1S/C6H11NO2/c1-5(8-4-7)6(2)3-9-6/h4-5,7H,3H2,1-2H3/t5-,6-/m1/s1
