15
gdb 49697	2.09151	1.72025	1.05403	4.2277	73.57	-0.264	-0.0286	0.2354	1104.2609	0.112342	-416.790977	-416.783031	-416.782087	-416.823846	28.884	
O	 0.1098823657	 0.21155692	 0.4737704663	-0.277173
C	 0.0962163799	 1.3627607872	 0.1214525946	 0.139492
N	 1.1470998508	 1.9845405131	-0.55300981	-0.115541
C	 2.5289360414	 1.824163866	-0.1697283347	-0.079013
C	 3.3955846237	 2.3195021942	-1.3341505324	-0.237818
C	 2.6832590401	 3.7155092568	-1.2527018535	-0.288708
C	 1.8431039666	 3.1834658628	-0.0760504169	 0.202414
C	 1.39960461	 3.9044973694	 1.0722559859	 0.205715
N	 1.0462236774	 4.5166188854	 1.988822498	-0.334258
H	-0.7798451731	 2.0282001181	 0.2169872482	 0.1109
H	 2.7821389965	 1.1422651444	 0.6323592733	 0.145969
H	 4.4527486238	 2.3816738271	-1.072476479	 0.128042
H	 3.2780532526	 1.7590019278	-2.2628664234	 0.131808
H	 3.3603987575	 4.5144915277	-0.9488716154	 0.137663
H	 2.1001652072	 4.0305771	-2.1190074111	 0.130509
88.1807	145.0731	156.2286	204.523	253.2776	302.2591	408.6326	520.764	549.1035	584.3061	661.9611	736.0772	793.6557	834.106	923.696	940.3099	963.8443	1022.6908	1042.7693	1074.503	1080.5576	1139.9557	1218.0465	1230.004	1264.4565	1271.4136	1299.8528	1411.1891	1417.7003	1467.9673	1488.2365	1801.9327	2347.2112	2986.5043	3084.1724	3090.3206	3138.9795	3155.2691	3212.5451
O=CN1C2CCC12C#N	O=CN1[C@H]2CC[C@@]12C#N	
InChI=1S/C6H6N2O/c7-3-6-2-1-5(6)8(6)4-9/h4-5H,1-2H2	InChI=1S/C6H6N2O/c7-3-6-2-1-5(6)8(6)4-9/h4-5H,1-2H2/t5-,6-,8?/m0/s1
