18
gdb 22443	2.1517	1.25137	0.82318	6.7233	80.28	-0.1661	-0.0281	0.138	1374.4423	0.146277	-472.353931	-472.343767	-472.342823	-472.389224	36.3	
C	-0.0378091621	 1.306698962	 0.3147431146	-0.346505
N	-0.1125248664	-0.0625569	-0.1374117966	-0.301561
C	-1.1904979515	-0.8618385786	-0.0328266955	 0.4008
N	-2.3847265285	-0.3317809329	 0.3219838125	-0.568702
H	-3.0698100898	-1.0023594397	 0.6549122768	 0.284255
H	-2.4400657202	 0.6126483307	 0.6610700424	 0.260391
C	-1.0875100928	-2.2406686921	-0.317252446	 0.167141
C	-2.2892919194	-3.1373269997	-0.3468462529	-0.213197
O	-3.1327992659	-3.0075653386	 0.822185816	-0.425393
N	 0.1804427422	-2.66783953	-0.5625449896	-0.106714
O	 0.3566877848	-3.8699273213	-0.8356923326	-0.37709
H	 0.9791122822	 1.6690919456	 0.1583709576	 0.152407
H	-0.7109706957	 1.9610213511	-0.2539166184	 0.138451
H	-0.2708431269	 1.4108696286	 1.3840572922	 0.131747
H	 0.7235448511	-0.5799621816	-0.3841865787	 0.264208
H	-2.959305321	-2.9082141532	-1.1831528212	 0.115734
H	-1.924095542	-4.1621094933	-0.4696379553	 0.138523
H	-2.6031961682	-3.2820507171	 1.5791736147	 0.285505
69.5584	111.7455	123.996	146.9392	179.659	216.5848	261.8751	303.8611	335.0954	390.2859	428.1478	441.8136	472.0601	594.1605	629.0305	704.1632	714.7744	741.7288	811.7691	939.2837	1002.6544	1012.4074	1152.058	1158.5527	1176.8819	1177.9129	1235.8662	1304.5451	1361.513	1399.4138	1436.4726	1454.2769	1476.2166	1489.0804	1502.6221	1519.197	1560.0207	1639.589	1676.0911	2998.0443	3038.203	3047.5938	3088.842	3137.2732	3500.7521	3540.1409	3702.4303	3802.8947
CNC(=[NH2+])C(CO)=N[O-]	CNC(=[NH2])C(=N[O])CO	
InChI=1S/C4H9N3O2/c1-6-4(5)3(2-8)7-9/h8-9H,2H2,1H3,(H2,5,6)	InChI=1S/C4H9N3O2/c1-6-4(5)3(2-8)7-9/h6,8H,2,5H2,1H3
