21
gdb 91004	4.05939	1.34582	1.18779	1.2141	82.48	-0.2357	0.0932	0.3289	1116.3658	0.185102	-387.057356	-387.050058	-387.049113	-387.088735	30.389	
C	 0.0535189952	 1.5634011646	 0.0726400727	-0.404215
C	 0.0378115365	 0.0473281827	-0.0260161223	 0.159595
C	 0.7466402484	-0.5110620383	-1.2662207002	-0.271213
C	 1.0942870153	-1.9789332979	-1.0334660733	 0.006915
C	 0.2644807646	-2.7562565706	 0.0506014512	-0.110217
C	 1.4832679398	-3.7000518418	 0.208898596	-0.241008
C	 2.0975692714	-2.2803323615	 0.1242732676	-0.085615
C	 0.9667220373	-1.8259966482	 1.0953307302	 0.171248
O	 0.634727489	-0.46648609	 1.1658274577	-0.296912
H	 1.0831975351	 1.9329014932	 0.105799911	 0.120876
H	-0.449030282	 2.008696116	-0.7917919325	 0.111855
H	-0.4585614902	 1.8933997608	 0.9807456421	 0.122812
H	-1.0081930365	-0.3010790638	-0.0547761643	 0.068036
H	 0.0914144063	-0.3936912311	-2.1370527755	 0.097165
H	 1.6626943077	 0.0574698718	-1.4757197221	 0.097145
H	 1.2812415937	-2.530016792	-1.960649479	 0.060494
H	-0.7874895284	-3.0434352587	 0.0073015429	 0.069627
H	 1.5796604435	-4.2265453677	 1.1629942353	 0.089583
H	 1.6867112165	-4.3623224396	-0.6360944894	 0.093447
H	 3.152599324	-2.0035726386	 0.1642479584	 0.066639
H	 1.0310812729	-2.1965599695	 2.1222162035	 0.073742
118.9387	225.6347	265.1654	291.7649	396.2037	422.6602	441.6575	479.4413	594.0489	731.8952	777.6912	785.4176	806.4948	840.3718	889.2628	902.8862	922.882	934.2467	990.2534	1009.8495	1019.6734	1048.8873	1074.5591	1098.3942	1106.0837	1126.1076	1133.2916	1158.9317	1175.1121	1179.4303	1207.8194	1230.4363	1244.7959	1264.9175	1275.3336	1317.1968	1361.0083	1387.2639	1403.0797	1412.1203	1419.4005	1481.4837	1486.2431	1500.1117	1516.4352	2956.9798	3016.7733	3039.5788	3049.2747	3052.3437	3064.8726	3072.6444	3094.4829	3102.2931	3112.8806	3114.9583	3118.4564
CC1CC2C3CC2C3O1	C[C@H]1C[C@@H]2[C@H]3C[C@@H]2[C@H]3O1	
InChI=1S/C8H12O/c1-4-2-5-6-3-7(5)8(6)9-4/h4-8H,2-3H2,1H3	InChI=1S/C8H12O/c1-4-2-5-6-3-7(5)8(6)9-4/h4-8H,2-3H2,1H3/t4-,5-,6-,7+,8+/m0/s1
