20
gdb 120284	3.35761	1.02763	0.98254	1.5522	77.99	-0.2396	0.0154	0.255	1322.913	0.171875	-403.147685	-403.139169	-403.138225	-403.181804	31.767	
C	-0.0254853951	 1.5141403302	 0.1057622325	-0.380382
C	-0.1626491316	-0.0001696815	 0.2825566783	-0.15739
C	-1.4614376768	-0.5541315591	-0.3206730344	-0.205415
C	-1.575265834	-2.0575838666	-0.1905272261	-0.068273
C	-1.8895843914	-2.7694096686	 1.0958371813	 0.041156
O	-2.5516670865	-2.0090728933	 2.103043284	-0.207538
C	-3.7552680257	-1.6763099456	 1.5644687184	 0.092296
N	-4.0465217632	-2.0940918787	 0.399556612	-0.250111
C	-2.8859580056	-2.8249879834	-0.0573999502	-0.065518
H	 0.9054084119	 1.8850589933	 0.5458036348	 0.111572
H	-0.0265892226	 1.7912134756	-0.954377191	 0.113771
H	-0.8551681822	 2.0452668454	 0.5855467583	 0.115071
H	 0.6974793388	-0.5031397664	-0.1788551622	 0.091101
H	-0.1303360911	-0.254579375	 1.34887791	 0.106766
H	-2.3191687137	-0.0639203301	 0.1508867384	 0.111967
H	-1.5159408857	-0.291208299	-1.3851727146	 0.099935
H	-0.8455405544	-2.6095834862	-0.7800177058	 0.095944
H	-1.2927257147	-3.573616819	 1.5067414017	 0.109816
H	-4.38328197	-1.0652620019	 2.2013114955	 0.143653
H	-3.0765754865	-3.6878249602	-0.684019101	 0.10158
47.2942	83.4873	122.027	220.2973	251.2035	272.6177	354.3803	464.2224	569.7231	678.1316	723.9283	748.4897	752.8917	808.2935	872.1871	880.2612	903.069	937.0981	945.5723	997.6056	1013.934	1040.7254	1053.2765	1074.581	1106.7198	1125.3913	1129.2309	1156.4862	1215.1783	1265.93	1289.6715	1301.3575	1324.8571	1335.2291	1359.6167	1388.9512	1410.8109	1427.1678	1484.6581	1493.992	1499.3592	1510.3599	1667.6479	3017.8506	3024.5898	3029.7848	3052.9244	3078.6345	3097.3195	3102.1359	3128.5605	3180.3599	3194.5822	3229.5895
CCCC1C2OC=NC12	CCC[C@H]1[C@H]2OC=N[C@@H]12	
InChI=1S/C7H11NO/c1-2-3-5-6-7(5)9-4-8-6/h4-7H,2-3H2,1H3	InChI=1S/C7H11NO/c1-2-3-5-6-7(5)9-4-8-6/h4-7H,2-3H2,1H3/t5-,6+,7-/m1/s1
