16
gdb 11866	5.0836	1.51873	1.29879	3.8465	73.52	-0.2342	-0.0424	0.1918	938.2426	0.131287	-346.630415	-346.623568	-346.622624	-346.661571	26.635	
O	-0.0036028506	-0.0189469986	 0.0029714909	-0.330708
C	-0.0034831766	 1.190140126	 0.009166854	 0.371458
C	-1.2573162294	 2.0899123794	 0.0322747618	-0.429665
C	-0.708356734	 3.5123377867	 0.0328533955	 0.329126
C	-1.3805049799	 4.6595085288	-0.7013150146	-0.3075
C	-1.3596664866	 4.6508103305	 0.7986618834	-0.307494
C	 0.7647918771	 3.3718460748	 0.0116381887	-0.099497
C	 1.1692369859	 2.0924612257	-0.0013163745	-0.207721
H	-1.8771905709	 1.8664056313	-0.8416483269	 0.133193
H	-1.852281104	 1.8560803924	 0.9206952331	 0.133249
H	-0.7478781652	 5.3700946058	-1.2227141493	 0.119254
H	-2.3153897013	 4.4386790041	-1.20505429	 0.124021
H	-2.2802325602	 4.4240083077	 1.3255839384	 0.124023
H	-0.7126859788	 5.3554088921	 1.3104857358	 0.119257
H	 1.4169178015	 4.2400121186	 0.0077766999	 0.114577
H	 2.1878307031	 1.7283102149	-0.0173175665	 0.114428
70.7065	212.0303	271.6402	315.2053	418.2765	457.6745	499.6049	614.1795	684.4894	777.5626	813.5596	821.3761	832.2912	833.491	937.1309	942.7103	989.0963	996.5481	999.1368	1058.7096	1080.1233	1097.2451	1166.2232	1177.2334	1192.3028	1231.5241	1301.2505	1324.322	1394.6914	1450.9282	1466.2027	1497.3082	1629.5414	1812.6723	3056.3615	3097.4527	3129.0532	3132.5622	3179.905	3209.6424	3224.8984	3231.6506
O=C1CC2(CC2)C=C1	O=C1CC2(CC2)C=C1	
InChI=1S/C7H8O/c8-6-1-2-7(5-6)3-4-7/h1-2H,3-5H2	InChI=1S/C7H8O/c8-6-1-2-7(5-6)3-4-7/h1-2H,3-5H2
