18
gdb 41103	2.95858	1.94872	1.82039	2.3216	74.21	-0.2153	0.0504	0.2657	856.8332	0.150181	-401.832687	-401.826342	-401.825398	-401.862879	27.215	
C	 0.0157170248	 1.4617952549	 0.0891477601	-0.21792
C	 1.567033492	 1.5511193703	-0.0179563264	-0.125455
C	 2.0350169861	 1.3717772281	-1.4991491615	-0.295733
C	 1.6542636576	-0.136725946	-1.3818662743	 0.184409
C	 2.7099921815	-1.2243222648	-1.0809713302	-0.136752
O	 2.5491590716	-0.9944956232	 0.3694248559	-0.32861
C	 1.5550448082	-0.0184755009	 0.1193081936	 0.38191
C	-0.0005797883	-0.0874372355	-0.0781846029	-0.092255
N	 0.2406484735	-0.5587252513	-1.4745412261	-0.362728
H	-0.3061120491	 1.7252940983	 1.1013245808	 0.109793
H	-0.5655203531	 2.0383461808	-0.6379314545	 0.09056
H	 2.0701332388	 2.2722855687	 0.6257112	 0.074914
H	 1.5220435509	 1.9639459909	-2.2628348499	 0.096498
H	 3.1141208185	 1.5059308184	-1.6187841768	 0.10894
H	 2.4127494174	-2.2402197567	-1.3568954377	 0.117361
H	 3.7400416508	-1.0241913755	-1.3973066184	 0.103989
H	-0.7448040313	-0.6507327139	 0.487734229	 0.078223
H	-0.3191756199	-0.1181349624	-2.1993365806	 0.212856
228.0637	287.4045	334.0278	379.2623	424.9717	490.6397	551.3668	655.672	706.6909	781.973	801.4732	828.6742	863.8364	893.9561	908.5786	917.7294	951.9351	957.3435	994.4769	1014.0827	1070.8837	1082.6726	1093.1308	1118.8891	1137.3612	1165.2314	1178.9562	1196.203	1227.0885	1246.344	1277.4637	1278.1778	1297.4622	1318.3973	1338.6471	1369.2521	1464.8445	1478.6975	1496.0685	3028.4968	3040.3676	3046.7933	3090.013	3096.862	3099.1628	3101.7078	3111.666	3498.7422
C1C2CC34COC23C1N4	C1[C@@H]2C[C@@]34CO[C@@]23[C@@H]1N4	
InChI=1S/C7H9NO/c1-4-2-6-3-9-7(4,6)5(1)8-6/h4-5,8H,1-3H2	InChI=1S/C7H9NO/c1-4-2-6-3-9-7(4,6)5(1)8-6/h4-5,8H,1-3H2/t4-,5-,6-,7-/m1/s1
