23
gdb 57330	1.98591	1.43265	1.28016	2.8294	85.23	-0.2645	0.036	0.3004	1193.583	0.203421	-384.49236	-384.481331	-384.480387	-384.527095	42.191	
C	-0.0968575962	 1.5520208526	 0.0338868141	-0.433222
C	-0.0072718952	 0.0141145456	 0.0348106701	 0.275741
C	 0.7471001038	-0.4556208277	 1.2926696964	-0.428363
C	-1.4392318982	-0.559722883	 0.068569857	-0.442662
C	 0.7359434717	-0.5036663776	-1.2612646401	 0.088418
C	 2.213441012	-0.0697326321	-1.3332727234	-0.426212
N	 0.7144413097	-1.976058116	-1.2893732561	-0.521431
C	 0.0468282963	 0.040172741	-2.462440336	 0.267711
N	-0.4895725272	 0.4120243807	-3.4178941423	-0.364172
H	 0.8900202206	 2.0228553715	 0.0573547649	 0.114768
H	-0.6339550089	 1.9285257723	-0.8415371673	 0.139132
H	-0.6359370316	 1.887059028	 0.925515723	 0.11583
H	 0.1493494779	-0.2329830463	 2.1823316677	 0.110972
H	 0.9307250788	-1.531855208	 1.260965277	 0.135219
H	 1.7061916216	 0.0570111595	 1.4107170161	 0.111273
H	-1.9914817974	-0.3261841721	-0.8475565463	 0.133709
H	-1.4394252572	-1.6442841373	 0.2120363571	 0.11879
H	-1.9915628028	-0.125118142	 0.9072102663	 0.118191
H	 2.7711586693	-0.5366574767	-0.5200571789	 0.139167
H	 2.6511531447	-0.3951976174	-2.2818413909	 0.128346
H	 2.3223973599	 1.0138210824	-1.2743250335	 0.138152
H	-0.2259442935	-2.3153810741	-1.4635966861	 0.243141
H	 1.2853029918	-2.3087426429	-2.0610301688	 0.237499
75.9039	150.8464	185.2213	200.6109	245.4268	251.603	267.9382	277.9203	308.9435	318.621	352.6903	372.2898	373.0172	424.2649	443.46	459.0465	574.7487	601.5487	657.6322	803.6225	861.4456	896.9202	939.686	940.0904	963.5572	970.6236	1026.6504	1042.6527	1051.8715	1160.9991	1176.5244	1234.7719	1257.0656	1262.3177	1324.2002	1393.7319	1399.5047	1406.2424	1430.53	1478.244	1487.4908	1490.0231	1494.5623	1501.6167	1507.8114	1513.8608	1525.8945	1661.5257	2333.7967	3034.7377	3038.9645	3044.5293	3056.7712	3102.0382	3103.1514	3108.9701	3109.8176	3116.4978	3126.682	3130.5409	3157.0657	3502.0083	3580.1043
CC(C)(C)C(C)(N)C#N	CC(C)(C)[C@@](C)(N)C#N	
InChI=1S/C7H14N2/c1-6(2,3)7(4,9)5-8/h9H2,1-4H3	InChI=1S/C7H14N2/c1-6(2,3)7(4,9)5-8/h9H2,1-4H3/t7-/m0/s1
