17
gdb 29712	2.48467	1.55021	0.96469	0.5961	72.71	-0.1557	0.061	0.2167	1173.589	0.135037	-455.1587	-455.148806	-455.147861	-455.193365	35.54	
C	-0.0296480553	 1.4363085459	 0.0265027849	-0.343067
N	 0.039410743	-0.0069230666	 0.0000276904	-0.090072
C	 0.110145086	-0.7934866132	-1.1102888305	 0.371496
O	 0.1214082365	-0.16669359	-2.3186656347	-0.445073
C	 0.1570750882	-2.1187714832	-0.7479425053	-0.394587
C	 0.1055684357	-2.1511447945	 0.685836527	 0.189126
N	 0.1898800067	-3.3007140204	 1.5030629007	-0.618658
C	 0.04051848	-0.8542621952	 1.1164372413	 0.199495
O	-0.0905295795	-0.3478402322	 2.3821244226	-0.443236
H	 0.9396511764	 1.897187909	-0.1992963238	 0.128785
H	-0.7582298048	 1.7961473465	-0.70436194	 0.14389
H	-0.3427642284	 1.7412968719	 1.0260345799	 0.145809
H	 0.126811393	-0.8419573027	-3.0033050435	 0.304647
H	 0.2316296347	-2.9659358788	-1.4123971088	 0.080452
H	-0.3884435923	-4.0524844502	 1.1445077349	 0.235876
H	-0.1277117672	-3.0861743574	 2.4422439306	 0.236569
H	 0.7846195376	-0.2025687489	 2.7626683543	 0.298548
55.0209	110.6696	190.298	199.6784	220.9803	253.8766	260.2545	272.9494	297.8763	321.5838	367.712	567.7213	600.9416	624.2948	630.9587	643.0181	678.354	754.4253	846.366	902.8615	1053.1122	1124.6403	1146.2545	1154.117	1202.5968	1225.0132	1269.198	1308.6998	1384.7997	1446.4886	1463.8259	1491.7338	1518.3989	1565.7342	1596.1212	1645.5407	1686.9222	3026.3936	3095.7814	3147.0193	3241.5635	3504.903	3591.0665	3734.555	3850.0141
CN1C(O)=CC(N)=C1O	Cn1c(O)cc(N)c1O	
InChI=1S/C5H8N2O2/c1-7-4(8)2-3(6)5(7)9/h2,8-9H,6H2,1H3	InChI=1S/C5H8N2O2/c1-7-4(8)2-3(6)5(7)9/h2,8-9H,6H2,1H3
