16
gdb 45286	2.9677	1.69166	1.27768	1.7057	69.25	-0.2391	-0.0448	0.1943	971.7516	0.124473	-437.819261	-437.812236	-437.811291	-437.850817	27.286	
O	-0.1828983269	 0.0885841773	 0.407614446	-0.285314
C	-0.1066780051	 1.2402686283	 0.0991315192	 0.300619
C	-1.0713051077	 2.3005325851	-0.4757071676	-0.307251
N	 0.0870494234	 3.2202755586	-0.7142458314	-0.15644
C	 0.2876420578	 4.2687854143	 0.3454561796	-0.198462
C	 1.3060289727	 3.3788626725	 1.0886011303	 0.05374
O	 2.6572008994	 3.4725232367	 0.6004452667	-0.288571
C	 2.4950891589	 2.3130945315	-0.2613679013	-0.157513
C	 1.0044189927	 2.2694489844	 0.0336638502	 0.184393
H	-1.5842061072	 2.0058509265	-1.3967052355	 0.14437
H	-1.8168282139	 2.6611948521	 0.2437493788	 0.130146
H	 0.7009219843	 5.2004515478	-0.0488685477	 0.126087
H	-0.6202836457	 4.4892499529	 0.9194172675	 0.107679
H	 1.258944592	 3.2786763455	 2.1756530725	 0.098222
H	 2.767415639	 2.5176555822	-1.3012224262	 0.124959
H	 3.0551183062	 1.4508290642	 0.1203168688	 0.123336
110.742	147.9582	258.8442	291.9887	401.4064	442.3218	485.5792	586.423	640.833	704.2215	774.4728	800.6563	868.2791	889.4238	931.5745	980.5163	1002.4441	1014.5029	1038.6652	1072.6364	1100.8487	1111.8149	1144.9781	1173.1647	1175.4638	1211.8943	1247.5031	1262.749	1296.0459	1320.0456	1358.6692	1452.3167	1484.4611	1500.5095	1895.9906	3027.589	3030.2766	3033.7758	3080.9646	3087.4456	3092.772	3104.6037
O=C1CN2CC3OCC123	O=C1CN2C[C@@H]3OC[C@]123	
InChI=1S/C6H7NO2/c8-4-1-7-2-5-6(4,7)3-9-5/h5H,1-3H2	InChI=1S/C6H7NO2/c8-4-1-7-2-5-6(4,7)3-9-5/h5H,1-3H2/t5-,6+/m0/s1
