15
gdb 44982	3.75411	1.20946	1.04232	3.5519	70.64	-0.263	0.0054	0.2684	1108.6698	0.11423	-416.853665	-416.846192	-416.845247	-416.885778	28.539	
O	 0.0254418111	-0.0101797695	 0.175823182	-0.353568
C	-0.0244573982	 1.1878980072	 0.0435862603	 0.403287
C	-1.2937152389	 2.058679992	-0.0055803822	-0.419852
C	-0.7879369893	 3.4974894969	 0.0076917983	 0.162644
C	 0.0601382958	 3.9507515689	 1.1954710295	-0.324702
C	 0.7383590342	 3.4268238424	-0.0378818378	-0.031128
N	 1.0562191266	 2.0351780498	-0.0787727085	-0.308735
C	-1.4945546664	 4.4923848199	-0.7451169335	 0.216441
N	-2.0739123605	 5.2914898741	-1.3487311453	-0.339422
H	-1.8488958554	 1.8373478596	-0.9210865411	 0.158447
H	-1.9393152452	 1.8119643297	 0.8404446693	 0.152021
H	 0.0930124489	 5.0185116992	 1.3785563546	 0.148381
H	 0.052997358	 3.3243465117	 2.0813832004	 0.136894
H	 1.3092191472	 4.0849764032	-0.6817257128	 0.136681
H	 1.9876265521	 1.683335445	 0.0812099767	 0.262611
90.503	153.7754	177.1866	307.3023	425.8495	449.8099	456.3278	491.0784	566.2832	577.94	601.7905	684.6213	738.6954	830.9056	867.2473	904.3979	941.591	986.9004	1027.9181	1067.2547	1079.4037	1127.7328	1172.2005	1234.2335	1241.5254	1278.8434	1322.3922	1395.2896	1416.2193	1461.4157	1475.2971	1844.3556	2353.8125	3075.7265	3120.9466	3136.3669	3188.8676	3235.086	3634.246
O=C1CC2(CC2N1)C#N	O=C1C[C@]2(C[C@H]2N1)C#N	
InChI=1S/C6H6N2O/c7-3-6-1-4(6)8-5(9)2-6/h4H,1-2H2,(H,8,9)	InChI=1S/C6H6N2O/c7-3-6-1-4(6)8-5(9)2-6/h4H,1-2H2,(H,8,9)/t4-,6-/m1/s1
