18
gdb 31844	4.88292	0.98879	0.82735	1.6376	85.64	-0.182	0.0064	0.1884	1371.0822	0.149235	-402.006396	-401.997993	-401.997048	-402.039287	32.325	
C	-0.0869008269	 1.3935007971	-0.0752406136	-0.242676
O	-0.0143686213	-0.0130037064	-0.0002316793	-0.268746
C	 0.6447619552	-0.56249041	 1.0642844748	 0.372679
C	 1.2469760425	 0.1604436778	 2.093552007	-0.245319
C	 1.8914699525	-0.5080983059	 3.134711389	-0.172824
C	 1.9535995554	-1.9018557995	 3.1756572603	 0.296988
N	 2.6609460778	-2.5709492604	 4.1889881328	-0.594379
C	 1.34335557	-2.6164507523	 2.1340816597	-0.163317
C	 0.7004068887	-1.9590701319	 1.0979175545	-0.183002
H	 0.909783803	 1.8520929074	-0.1350355146	 0.119301
H	-0.6400984235	 1.624046966	-0.9877697948	 0.13036
H	-0.6200992271	 1.8225757102	 0.7844586782	 0.11816
H	 1.2222122536	 1.2425582434	 2.1040151727	 0.092388
H	 2.3571499528	 0.0717577477	 3.9266442063	 0.079063
H	 2.7208454658	-2.050592605	 5.0535131393	 0.240802
H	 2.3223136134	-3.5060271362	 4.3699752244	 0.241284
H	 1.378628474	-3.7022478318	 2.1380400917	 0.08158
H	 0.2278005742	-2.5150526604	 0.2959218816	 0.097659
72.6625	153.8797	229.1029	245.6537	248.1144	366.9353	371.7033	422.4819	429.0041	528.816	531.0151	653.2919	662.8821	730.8415	755.9486	817.1852	843.2215	855.0048	908.5044	940.1747	1018.4294	1081.0249	1092.2136	1151.3741	1178.1062	1196.5102	1209.6289	1278.4651	1304.196	1331.1603	1364.3091	1470.6928	1478.3992	1487.998	1507.8388	1551.5856	1624.3944	1652.9023	1670.4663	2992.8795	3047.2594	3125.9401	3162.6907	3163.3312	3196.9337	3210.8552	3548.2978	3642.1776
COC1=CC=C(N)C=C1	COc1ccc(N)cc1	
InChI=1S/C7H9NO/c1-9-7-4-2-6(8)3-5-7/h2-5H,8H2,1H3	InChI=1S/C7H9NO/c1-9-7-4-2-6(8)3-5-7/h2-5H,8H2,1H3
