17
gdb 45818	2.50524	1.80883	1.29292	3.4018	73.31	-0.2346	-0.0302	0.2044	995.4301	0.137506	-421.830826	-421.823478	-421.822534	-421.863035	28.095	
O	-0.0140118949	-0.0207718071	-0.1694143362	-0.308791
C	-0.015231407	 1.1776506378	-0.0175958007	 0.384775
C	-1.2825522607	 1.9969065274	 0.1467483919	-0.356885
C	-1.2585788787	 3.2155569207	-0.7478052473	-0.072439
C	-0.1396001222	 3.7748935313	-1.2079960684	-0.057262
C	 1.2393947718	 3.3086689533	-0.8503502414	-0.134151
C	 1.7902026287	 3.9311147199	 0.4630311014	-0.07154
O	 1.4862709321	 2.7234232642	 1.1946181587	-0.291242
C	 1.272627857	 1.9866453237	-0.032909142	 0.031371
H	-2.1413775295	 1.3534503203	-0.0598339129	 0.129353
H	-1.3551399767	 2.3094327797	 1.1989253945	 0.149337
H	-2.2228266588	 3.6401188215	-1.01375687	 0.102421
H	-0.2016301572	 4.657045592	-1.8406297496	 0.096184
H	 1.9169722643	 3.3494844129	-1.7058208072	 0.092926
H	 2.8692416975	 4.1343733091	 0.4521610137	 0.103964
H	 1.2541664601	 4.7998819299	 0.8573485771	 0.112756
H	 2.1120032942	 1.3202180435	-0.2612196415	 0.089223
81.3529	105.0542	216.1785	270.7515	412.6135	447.0589	495.862	518.9802	599.0477	700.2832	730.1241	814.6812	836.949	881.271	935.1711	957.669	970.7799	999.6285	1004.8105	1029.7513	1062.151	1098.0652	1153.1845	1169.025	1180.7931	1235.6097	1252.8889	1270.64	1312.0832	1332.4673	1343.5452	1358.983	1412.7116	1448.8994	1519.4675	1718.2999	1821.2727	3010.3723	3012.2522	3048.1372	3079.2281	3088.36	3098.8979	3149.721	3173.0134
O=C1CC=CC2COC12	O=C1CC=C[C@H]2CO[C@@H]12	
InChI=1S/C7H8O2/c8-6-3-1-2-5-4-9-7(5)6/h1-2,5,7H,3-4H2	InChI=1S/C7H8O2/c8-6-3-1-2-5-4-9-7(5)6/h1-2,5,7H,3-4H2/t5-,7+/m0/s1
