21
gdb 65090	2.89307	1.46648	1.18277	1.5359	82.66	-0.2241	0.0838	0.3079	1130.9142	0.182002	-387.037849	-387.029323	-387.028379	-387.070803	33.76	
C	 0.2450676287	 1.2850712544	-0.9381482364	-0.482962
C	-0.0089662554	 0.0263158413	-0.1333794126	 0.238772
C	 1.1214517983	-0.9703188723	 0.0185097092	-0.300809
C	 0.6932785771	-0.1315339181	 1.1971680241	-0.30149
C	-1.380142546	-0.5428627103	-0.2471872435	 0.447732
C	-2.3344559329	-0.4464271296	-1.39878826	-0.342278
C	-2.7882248271	-0.0163878356	-0.0140980514	-0.190731
C	-2.9729574503	-1.2565023305	 0.8440234291	-0.090359
O	-1.6508872128	-1.7489383069	 0.4912832396	-0.326656
H	 1.2589453806	 1.6539789046	-0.758433882	 0.117099
H	 0.1432663058	 1.1044476951	-2.0136374397	 0.121312
H	-0.4510989374	 2.0860091427	-0.6617204012	 0.115792
H	 0.8652133442	-2.0229367407	 0.0401225757	 0.131234
H	 2.0615690441	-0.7396804221	-0.4715181401	 0.105569
H	 1.3412810464	 0.6753916462	 1.5226373227	 0.103293
H	 0.1548361315	-0.6371638189	 1.9896473624	 0.121106
H	-2.1698423053	 0.3739174558	-2.0893108309	 0.114971
H	-2.7239603579	-1.3560212808	-1.8498027634	 0.109635
H	-3.1471146879	 0.9789601182	 0.2101809927	 0.098642
H	-3.0310010686	-1.0489345928	 1.9185181045	 0.107602
H	-3.7634694351	-1.9622068797	 0.560476111	 0.102525
63.2579	164.4097	189.8888	235.5581	300.2498	318.0501	353.6594	413.6557	433.1617	491.2847	572.8769	750.1887	788.6924	804.0304	842.6926	862.215	886.942	942.8753	951.2651	957.1041	976.6931	984.4505	1005.8082	1020.7752	1042.9083	1068.6164	1075.9543	1084.1166	1121.1153	1128.9014	1147.3302	1170.2059	1195.3675	1225.6895	1306.6141	1320.1687	1348.0263	1414.487	1423.9155	1454.9391	1483.9039	1490.7447	1494.0713	1511.4492	1520.2586	3019.7194	3025.2983	3068.0162	3085.7713	3105.5883	3111.2155	3133.7352	3137.313	3200.0533	3210.7271	3220.4488	3233.3521
CC1(CC1)C12CC1CO2	CC1(CC1)[C@]12C[C@H]1CO2	
InChI=1S/C8H12O/c1-7(2-3-7)8-4-6(8)5-9-8/h6H,2-5H2,1H3	InChI=1S/C8H12O/c1-7(2-3-7)8-4-6(8)5-9-8/h6H,2-5H2,1H3/t6-,8-/m0/s1
