19
gdb 74337	4.2605	0.97745	0.84312	1.4869	77.56	-0.2419	0.0226	0.2645	1383.8992	0.160369	-419.201957	-419.193258	-419.192313	-419.236393	31.49	
C	 0.19008098	 1.5002784133	 0.065065111	-0.472148
C	-0.0156288169	 0.0242656578	 0.0555462955	 0.403905
N	-1.1164401178	-0.5839575118	-0.1303064933	-0.307467
C	-0.8298556415	-2.0269317611	-0.0450746484	-0.022129
C	 0.7006376306	-2.091539189	 0.2357117769	-0.132768
O	 1.1129827763	-0.7097749778	 0.2651800446	-0.251755
C	-1.6678131681	-2.6955964093	 1.0223895115	 0.033742
C	-3.0050515823	-3.2367374813	 0.6977329655	-0.239992
N	-1.8850594596	-4.1532168323	 0.988726491	-0.329012
H	 0.9014398531	 1.7872295987	-0.7156715412	 0.146218
H	-0.760688931	 2.0050583028	-0.1009290781	 0.152929
H	 0.614662146	 1.8162123367	 1.0229715205	 0.146546
H	-1.0741360269	-2.4927059171	-1.0100790243	 0.074354
H	 0.9364006588	-2.5454148377	 1.2033166002	 0.12444
H	 1.2688046682	-2.6040172216	-0.5448970121	 0.117212
H	-1.4971843242	-2.3064500856	 2.0251071493	 0.09243
H	-3.7930286186	-3.226286661	 1.4447287542	 0.121619
H	-3.3520513096	-3.1429223004	-0.3280850546	 0.116012
H	-1.5256700965	-4.5339970233	 0.1153214517	 0.225864
48.3133	71.5737	143.3555	153.9786	221.2211	312.8124	333.3886	371.9816	477.9588	613.261	675.6193	758.973	810.9647	863.5959	892.8621	923.7713	953.7729	970.8323	996.7801	1015.8467	1020.7954	1067.3403	1081.5719	1091.6002	1132.6291	1161.8587	1205.7617	1243.5625	1252.6332	1256.4427	1284.1295	1308.5789	1328.9531	1383.0072	1414.5911	1434.4539	1475.5383	1476.2573	1513.4002	1521.8891	1736.1163	2999.0917	3051.9208	3052.5889	3100.3024	3109.7504	3111.795	3119.8616	3168.2306	3197.6669	3480.4629
CC1=NC(CO1)C1CN1	CC1=N[C@@H](CO1)[C@H]1CN1	
InChI=1S/C6H10N2O/c1-4-8-6(3-9-4)5-2-7-5/h5-7H,2-3H2,1H3	InChI=1S/C6H10N2O/c1-4-8-6(3-9-4)5-2-7-5/h5-7H,2-3H2,1H3/t5-,6+/m1/s1
