20
gdb 88866	3.61498	1.06096	0.89913	1.186	76.	-0.2473	0.0792	0.3266	1342.4869	0.171506	-440.257402	-440.248452	-440.247508	-440.292362	32.286	
C	 0.0850853754	 1.5669578174	-0.2552490066	-0.392785
C	-0.0804708698	 0.0928114175	 0.0291670644	 0.009338
N	 1.1180902112	-0.7571102448	-0.0428188347	-0.341999
C	 0.4294393978	-0.5922020672	 1.2470019343	-0.052893
C	 1.1916128614	 0.1185332943	 2.3298448021	 0.230246
O	 0.2977871733	 0.8596402207	 3.15271497	-0.273876
C	 0.7489768925	 0.7542259784	 4.4998377968	-0.086676
C	 1.9993943336	-0.141806168	 4.4046570972	-0.110295
O	 1.8141655262	-0.8225950016	 3.1750898227	-0.252623
H	 1.0538239645	 1.9320033728	 0.0916424757	 0.128036
H	 0.0233235368	 1.7565505399	-1.3322059962	 0.115649
H	-0.7006318734	 2.1466148195	 0.2396620688	 0.126091
H	-1.0030593183	-0.3320051041	-0.3658063193	 0.082947
H	 0.9041243166	-1.6651623093	-0.4443052686	 0.233818
H	-0.1588094241	-1.4217361736	 1.6339405562	 0.086177
H	 1.9495420796	 0.7940770314	 1.898433534	 0.068888
H	 0.9776587085	 1.7461909414	 4.9070231626	 0.103935
H	-0.0419152157	 0.2992292316	 5.1079821386	 0.107781
H	 2.9196785712	 0.4613063352	 4.3839238483	 0.100245
H	 2.0774927226	-0.8808027615	 5.2047896738	 0.117998
44.4627	59.1939	119.0519	164.8802	197.975	239.3331	372.3802	408.8576	419.5332	542.8301	689.6917	743.9571	788.7728	854.9777	880.5488	917.0801	941.0059	961.6546	996.5219	1008.4432	1025.9851	1050.1902	1066.5928	1099.7306	1135.5759	1156.927	1165.0174	1219.2675	1224.6935	1246.9265	1259.4768	1270.6397	1330.819	1352.8744	1376.6333	1388.0624	1411.1944	1439.6112	1480.8701	1492.5136	1509.6546	1518.5708	1532.2812	2962.3808	2991.9602	3022.8962	3040.1892	3060.4934	3100.7718	3103.4763	3109.3598	3132.6027	3136.9017	3516.1333
CC1NC1C1OCCO1	C[C@H]1N[C@H]1C1OCCO1	
InChI=1S/C6H11NO2/c1-4-5(7-4)6-8-2-3-9-6/h4-7H,2-3H2,1H3	InChI=1S/C6H11NO2/c1-4-5(7-4)6-8-2-3-9-6/h4-7H,2-3H2,1H3/t4-,5-/m1/s1
