22
gdb 95628	2.19284	1.54633	1.05204	3.7294	82.26	-0.2328	0.0353	0.2681	1220.5459	0.196145	-404.408472	-404.399263	-404.398319	-404.442188	35.309	
C	-0.0738357699	 1.5710169892	-0.0534683445	-0.417643
C	 0.0429142869	 0.0434598467	-0.0357623012	 0.015393
C	 0.6809596528	-0.5078136812	-1.3169434951	-0.19933
C	 0.5790740831	-2.0305957731	-1.3460519289	-0.16498
N	 1.0221787689	-2.6060731646	-0.0842782152	-0.304791
C	 1.0337861837	-2.0117587743	 1.1478165481	 0.376724
O	 1.2851131483	-2.6511517191	 2.1551773898	-0.388902
C	 0.791609576	-0.4989877	 1.2044249116	-0.075226
C	 2.140162119	 0.1860239163	 1.506705073	-0.402992
H	 0.8991666001	 2.0503188861	-0.2016813819	 0.120524
H	-0.7303041633	 1.8976735729	-0.866693889	 0.111846
H	-0.4927181487	 1.9487554004	 0.8854378867	 0.116031
H	-0.9790818185	-0.3615443914	 0.011981817	 0.075477
H	 0.1810790964	-0.1017646404	-2.2028040673	 0.099615
H	 1.7325044572	-0.2023444595	-1.3763326332	 0.107805
H	-0.4620142065	-2.322425289	-1.5558125261	 0.105436
H	 1.1931277463	-2.4420954528	-2.1552155522	 0.109218
H	 1.1672913768	-3.6050821534	-0.0431645838	 0.242264
H	 0.1566820964	-0.3557594994	 2.0858844745	 0.098559
H	 2.8309728605	 0.1264056657	 0.659257783	 0.115471
H	 2.0007920613	 1.2408014735	 1.7567152849	 0.115817
H	 2.6095246831	-0.3100533125	 2.3591047699	 0.143683
70.9315	125.9212	212.6361	221.0167	243.6373	273.7958	296.7649	302.4485	421.5206	425.7626	484.7654	570.0637	607.5698	666.2895	733.1127	764.2633	825.5788	877.8439	927.5945	970.4661	988.5091	1006.4571	1042.8419	1071.7321	1094.8622	1137.6307	1155.7419	1189.3876	1219.9897	1267.279	1304.0248	1331.093	1339.5247	1350.9936	1370.6896	1395.0334	1399.4403	1404.5232	1415.4232	1480.1738	1491.8366	1495.5819	1499.7031	1504.6482	1512.5858	1529.3345	1776.7403	2977.0313	2987.6789	3030.4483	3034.8498	3043.9201	3048.6265	3052.4067	3079.7035	3097.6695	3102.9334	3113.0992	3131.2726	3600.2737
CC1CCNC(=O)C1C	C[C@H]1CCNC(=O)[C@H]1C	
InChI=1S/C7H13NO/c1-5-3-4-8-7(9)6(5)2/h5-6H,3-4H2,1-2H3,(H,8,9)	InChI=1S/C7H13NO/c1-5-3-4-8-7(9)6(5)2/h5-6H,3-4H2,1-2H3,(H,8,9)/t5-,6-/m0/s1
