21
gdb 71910	3.06375	1.6469	1.6138	1.7608	80.15	-0.2324	0.0805	0.313	965.7668	0.185762	-387.10582	-387.098912	-387.097968	-387.136491	29.934	
C	 0.0468120769	 1.4792631265	 0.0244040041	-0.477009
C	 0.0023490988	-0.0391323482	 0.0032282893	 0.295229
C	 0.6079314469	-0.7026791102	-1.2662160401	-0.248031
C	 0.2738873182	-2.1904614394	-1.0449687203	 0.096616
O	 1.1743768191	-2.7444161868	-0.0546733673	-0.303257
C	 0.3066088139	-2.2196221649	 0.9797372325	 0.096613
C	 0.6483229955	-0.7386720572	 1.2328145361	-0.248026
C	-0.8947978946	-2.1423239467	-0.0125607358	-0.070101
C	-1.3995090069	-0.7024926264	 0.0163346378	-0.257274
H	 1.0786598488	 1.847615876	 0.0135921484	 0.114425
H	-0.4650662284	 1.9033208854	-0.8470707941	 0.10973
H	-0.4374082335	 1.8778027189	 0.9232975234	 0.109731
H	 0.1160130942	-0.3128893883	-2.1660120829	 0.088747
H	 1.6864388548	-0.5541990435	-1.3707071926	 0.102186
H	 0.2205537439	-2.8065661687	-1.9451585023	 0.071875
H	 0.2820992434	-2.8614147965	 1.8630673615	 0.071875
H	 1.7297140412	-0.5927582447	 1.3066092371	 0.102187
H	 0.1859361178	-0.3751740489	 2.1588922239	 0.088746
H	-1.6028592363	-2.9682239753	-0.0130147577	 0.070488
H	-1.9737941629	-0.4635891028	 0.9180657978	 0.092625
H	-2.0025428809	-0.4380011483	-0.8591030489	 0.092625
219.3878	243.8392	287.33	369.8228	382.1946	456.7508	469.0068	597.5809	600.305	642.0335	772.9827	841.095	845.3265	856.642	870.5775	898.7552	901.9396	937.9312	950.174	973.6899	987.2091	1010.4684	1024.6502	1056.1441	1090.0771	1118.2069	1125.4455	1151.5971	1163.2184	1242.4284	1253.1419	1264.9404	1277.1569	1286.3048	1291.4427	1306.3621	1315.3018	1355.8531	1366.9369	1414.1025	1467.5639	1474.1798	1493.0545	1496.5456	1501.7257	3021.1242	3029.7114	3030.5784	3041.1817	3083.7225	3085.0378	3087.2732	3087.7258	3088.7703	3094.935	3097.6243	3140.8302
CC12CC3OC(C1)C3C2	C[C@@]12C[C@H]3O[C@@H](C1)[C@H]3C2	
InChI=1S/C8H12O/c1-8-2-5-6(3-8)9-7(5)4-8/h5-7H,2-4H2,1H3	InChI=1S/C8H12O/c1-8-2-5-6(3-8)9-7(5)4-8/h5-7H,2-4H2,1H3/t5-,6+,7-,8+
