20
gdb 107258	2.82599	1.54786	1.16727	1.7831	78.96	-0.2048	0.0808	0.2856	1116.8128	0.169102	-403.047578	-403.038748	-403.037804	-403.080839	34.036	
C	-0.8641846264	 1.8675794641	-1.827570299	-0.258298
O	-1.0101053188	 1.3237214803	-0.5337020916	-0.274693
C	-1.7991954081	 0.1971658568	-0.4304409455	 0.396212
C	-1.9342916704	-0.9300943967	-1.4072821593	-0.387552
C	-3.1778046009	-0.1952269817	-0.9105185889	-0.101344
N	-3.6575183654	-0.4891640172	 0.4971977732	-0.171055
C	-2.8126864983	-1.5353164753	 1.1200615588	-0.293589
C	-2.2760059072	-0.1620398425	 0.9983801741	 0.253567
C	-2.0488414517	 0.7727650866	 2.1493642936	-0.473542
H	-0.3065770002	 2.799481923	-1.7143835855	 0.133009
H	-0.3027444681	 1.1977322272	-2.4935478038	 0.116114
H	-1.8386775988	 2.0880588124	-2.2866457126	 0.114814
H	-1.7121910484	-0.6482291057	-2.4327543162	 0.116639
H	-1.6912428146	-1.9671925808	-1.1968420766	 0.112234
H	-3.895802016	 0.2403539289	-1.5934348755	 0.104333
H	-3.1867614653	-1.824160649	 2.0988873521	 0.119031
H	-2.4387236707	-2.3668766889	 0.5351486145	 0.11659
H	-1.0259815462	 0.6824119273	 2.5315935746	 0.122754
H	-2.2011345791	 1.8113901621	 1.8434202186	 0.131727
H	-2.7436914255	 0.542542719	 2.9618424051	 0.123049
71.3819	149.27	178.3155	200.7832	219.5998	304.9236	358.2397	420.9212	465.0427	477.2229	509.7058	625.4041	628.9743	716.2813	790.9789	807.3436	882.2222	925.962	949.9084	965.9323	995.243	997.7015	1063.5141	1080.337	1088.9718	1104.5563	1113.0351	1129.1984	1178.0024	1182.1979	1212.5718	1246.7536	1322.3588	1352.3097	1375.1141	1416.3697	1471.6924	1477.2443	1488.3747	1490.8741	1500.1335	1508.9691	1525.0063	2990.3256	3037.1004	3044.1917	3102.9999	3113.9066	3122.0522	3124.4062	3129.1813	3187.5161	3194.3186	3212.3711
COC12CC1N1CC21C	CO[C@]12C[C@H]1N1C[C@@]21C	
InChI=1S/C7H11NO/c1-6-4-8(6)5-3-7(5,6)9-2/h5H,3-4H2,1-2H3	InChI=1S/C7H11NO/c1-6-4-8(6)5-3-7(5,6)9-2/h5H,3-4H2,1-2H3/t5-,6+,7-,8?/m1/s1
