18
gdb 8206	2.62625	2.54023	1.68995	1.1552	67.32	-0.2227	0.0858	0.3085	846.5986	0.152794	-384.929433	-384.921599	-384.920654	-384.960952	30.073	
C	-0.1048982236	 1.5063804246	-0.0774994493	-0.467354
C	 0.0288790869	 0.0166485151	 0.0308301017	 0.371363
C	 1.3173818802	-0.7414519536	-0.2647398236	-0.426518
C	 0.6862553502	-0.7715398373	 1.1220169674	 0.371363
C	 1.3612076291	-0.2514315981	 2.3560601602	-0.467354
O	-0.1736184809	-1.8618636538	 1.3939842154	-0.293582
C	-1.0911196451	-1.9386106169	 0.32152154	 0.003761
O	-1.177176	-0.6586161648	-0.2718466601	-0.293585
H	 0.8143808634	 2.0003862975	 0.2483584366	 0.11971
H	-0.2985010029	 1.8036825901	-1.1133452294	 0.131274
H	-0.9331752695	 1.8644603596	 0.5416040729	 0.129073
H	 1.2896694731	-1.6281313127	-0.8885237523	 0.119671
H	 2.21733048	-0.1449250077	-0.3760131153	 0.113286
H	 1.9461726388	 0.6433788294	 2.1270858559	 0.11971
H	 0.6215077668	 0.0004009555	 3.1222045287	 0.129074
H	 2.0417369051	-1.0021004083	 2.7710587824	 0.131273
H	-0.7495455845	-2.680317661	-0.4199990158	 0.090733
H	-2.0751189171	-2.2292373377	 0.7043969046	 0.118102
189.9137	191.0195	205.4852	209.4914	227.1907	352.0499	359.9639	454.2456	462.9826	576.4773	698.2923	738.7231	741.9699	855.8911	899.8712	925.8285	951.5632	967.1536	990.7651	1044.8506	1099.6232	1113.3509	1126.884	1163.8588	1182.9092	1227.9918	1237.4445	1296.1371	1394.8287	1414.4154	1431.9582	1434.6051	1473.0697	1477.7692	1488.1562	1496.6336	1515.2647	1554.625	2955.1234	3037.428	3039.7533	3066.3328	3103.5196	3104.5453	3118.0305	3121.13	3131.0425	3218.721
CC12CC1(C)OCO2	C[C@@]12C[C@]1(C)OCO2	
InChI=1S/C6H10O2/c1-5-3-6(5,2)8-4-7-5/h3-4H2,1-2H3	InChI=1S/C6H10O2/c1-5-3-6(5,2)8-4-7-5/h3-4H2,1-2H3/t5-,6+
