20
gdb 12689	2.79254	1.93304	1.35234	2.5936	74.26	-0.2327	-0.0137	0.2189	992.9871	0.177136	-349.052967	-349.044502	-349.043558	-349.085875	31.738	
C	-0.0537027239	 1.5939230994	 0.0041401779	-0.392001
C	 0.0045445173	 0.0574035971	-0.0216387025	-0.082539
C	 0.7432719751	-0.5299352683	-1.2435971028	-0.232398
C	 2.1888998815	-0.7758379384	-0.7566405738	-0.224347
C	 2.0220288913	-1.2514124951	 0.6958942289	-0.070403
C	 3.2340788344	-1.144861776	 1.6157723026	-0.404322
C	 0.8081478536	-0.4526880797	 1.1883411897	 0.401
O	 0.5401015809	-0.2280501004	 2.3422733064	-0.333503
H	 0.9414964899	 2.0341270523	-0.1227182503	 0.1169
H	-0.6913372131	 1.9692066491	-0.8018403113	 0.116055
H	-0.4550667508	 1.9395691177	 0.960322063	 0.139028
H	-1.0185912878	-0.3245600322	 0.0639754797	 0.096901
H	 0.2891097499	-1.4831963289	-1.5367942177	 0.100015
H	 0.7000143965	 0.1281635194	-2.1159008806	 0.099696
H	 2.7294049815	-1.4906710103	-1.3826242809	 0.100971
H	 2.7608207959	 0.1608930519	-0.7705213924	 0.103152
H	 1.6785858514	-2.2991434912	 0.673818934	 0.100248
H	 3.6383379839	-0.1268846415	 1.6105002149	 0.117162
H	 2.9500346676	-1.3830966775	 2.6442045209	 0.13696
H	 4.0313186848	-1.8264177175	 1.3048208643	 0.111426
55.1224	162.4727	193.9092	220.996	234.2139	269.0024	331.9657	385.6895	491.1558	546.3051	604.736	651.977	767.6886	808.1628	869.3608	914.1825	935.197	969.7368	983.0916	1015.7902	1050.7624	1067.7078	1118.0289	1154.2939	1178.9038	1190.4382	1226.2247	1276.6361	1300.8379	1313.2005	1330.9564	1341.2202	1359.357	1402.4843	1407.4285	1489.4699	1493.8034	1497.4806	1499.644	1500.5155	1506.5094	1833.6519	2975.105	3028.4368	3035.3816	3037.9312	3038.6891	3051.966	3087.882	3095.0311	3103.3445	3104.9462	3121.5173	3123.2597
CC1CCC(C)C1=O	C[C@H]1CC[C@@H](C)C1=O	
InChI=1S/C7H12O/c1-5-3-4-6(2)7(5)8/h5-6H,3-4H2,1-2H3	InChI=1S/C7H12O/c1-5-3-4-6(2)7(5)8/h5-6H,3-4H2,1-2H3/t5-,6+
