17
gdb 81218	3.11737	1.61296	1.46936	2.0382	72.9	-0.247	-0.0004	0.2466	943.1126	0.13684	-421.729162	-421.722449	-421.721505	-421.759848	28.242	
O	 0.015674001	 1.4008670209	-0.1406289133	-0.45301
C	 0.1194593629	 0.0231840685	-0.0198183937	 0.165593
C	 0.0121381288	-0.6021941298	 1.3762553201	-0.070773
O	-1.4453492491	-0.1608527988	 1.3907465774	-0.411524
C	-1.2088274248	-0.8111056576	 0.0647394493	 0.378273
C	-1.9759620085	-1.3485868965	-1.1179046596	-0.419256
C	-0.9875647643	-2.4862481806	-1.4513521241	-0.035029
C	-0.1100375928	-2.7694992157	-0.4710626765	-0.156643
C	-0.4751260814	-1.9517857943	 0.7456617908	-0.035506
H	-0.6903579881	 1.6512384941	 0.4740101154	 0.286024
H	 0.9045934165	-0.3346994156	-0.685569471	 0.096663
H	 0.5584491449	-0.4063411275	 2.2997806247	 0.095636
H	-2.9665039867	-1.7453071566	-0.8602818717	 0.128311
H	-2.0969337744	-0.6347899868	-1.9386384486	 0.123949
H	-1.0288005925	-2.9990873298	-2.4064840936	 0.10478
H	 0.637431418	-3.5526333873	-0.52191932	 0.102276
H	-1.0837373895	-2.5045337765	 1.4679162244	 0.100236
200.9768	220.1175	311.0076	365.1322	425.3841	472.9689	558.3574	593.3914	647.0893	662.0594	727.4953	749.5486	813.0399	834.2304	890.5901	897.7747	907.4859	940.2474	964.161	986.2513	1046.7496	1071.6427	1093.6124	1118.8696	1143.7239	1164.1418	1178.1582	1190.7552	1225.7316	1269.8162	1289.9954	1310.6708	1346.9147	1364.0608	1461.3714	1475.2155	1613.4177	3029.7463	3062.2996	3083.0586	3112.7032	3126.2661	3183.971	3207.6808	3727.934
OC1C2OC11CC=CC21	O[C@H]1[C@H]2O[C@]31CC=C[C@@H]23	
InChI=1S/C7H8O2/c8-6-5-4-2-1-3-7(4,6)9-5/h1-2,4-6,8H,3H2	InChI=1S/C7H8O2/c8-6-5-4-2-1-3-7(4,6)9-5/h1-2,4-6,8H,3H2/t4-,5-,6-,7+/m0/s1
