17
gdb 24609	4.68873	1.05009	0.93719	2.0293	73.87	-0.2214	0.0195	0.2409	1243.1909	0.137542	-421.828892	-421.821338	-421.820394	-421.862074	27.952	
C	 0.0846096987	 1.3951029059	-0.2934603865	-0.061268
C	 1.5122095008	 1.5053351777	 0.2726439542	-0.284293
C	 1.2819996098	 0.0380338021	 0.7341403518	 0.019536
O	 0.0103869564	-0.007649426	 0.0428183447	-0.287218
C	 2.2213834129	-1.0170360582	 0.2645020225	 0.236486
C	 2.042713342	-1.8332763676	-0.8088233852	-0.089619
O	 3.1010683576	-2.6760137077	-0.9539964495	-0.145264
C	 3.9738829501	-2.3876522732	 0.0454927999	 0.011571
C	 3.4932310228	-1.386816105	 0.8262672591	-0.309435
H	-0.6727209787	 1.9805564096	 0.2433774903	 0.101826
H	-0.034297791	 1.5636255467	-1.3694885754	 0.10744
H	 2.2929197879	 1.6051153561	-0.4822601032	 0.116987
H	 1.6689642217	 2.2396794796	 1.0638226823	 0.109564
H	 1.1352592703	-0.040094181	 1.8215355269	 0.081036
H	 1.2404858174	-1.9417747738	-1.5173401366	 0.147995
H	 4.8759609542	-2.9767181207	 0.0648875582	 0.135909
H	 3.9753668372	-0.9600010747	 1.6923742365	 0.108748
52.7253	84.7566	143.3572	201.3294	369.2337	421.7982	622.2044	632.018	682.8001	739.9109	780.8125	801.4748	827.2094	841.5804	892.992	913.6273	954.4975	997.4799	1029.6845	1036.4621	1071.2106	1092.9454	1100.7624	1168.4227	1199.9891	1214.0363	1242.4635	1253.2415	1268.9033	1273.734	1354.2605	1369.4083	1422.1287	1488.0596	1530.8694	1536.6721	1634.7096	2987.4053	3017.2337	3062.2187	3084.5321	3143.4755	3249.3321	3282.7362	3299.2105
C1CC(O1)C1=COC=C1	C1C[C@@H](O1)c1cocc1	
InChI=1S/C7H8O2/c1-3-8-5-6(1)7-2-4-9-7/h1,3,5,7H,2,4H2	InChI=1S/C7H8O2/c1-3-8-5-6(1)7-2-4-9-7/h1,3,5,7H,2,4H2/t7-/m1/s1
