14
gdb 77791	2.90553	1.37772	1.10135	3.4781	70.15	-0.2665	-0.0244	0.2421	1069.0884	0.101022	-432.834744	-432.826799	-432.825855	-432.867335	29.473	
O	-0.2045537732	 1.4196294957	 0.071358668	-0.41362
C	-0.0912678483	 0.0388285741	 0.0573789965	 0.053182
C	-0.4373013258	-0.8227866378	 1.2576796454	-0.284574
C	-1.5870602852	-0.1677239454	 1.9738322149	 0.408865
N	-1.7149617209	 0.2355014367	 3.1581018956	-0.536982
N	-2.4255411319	-0.1974757407	 0.8201572261	-0.385087
C	-1.3553562444	-0.7812062804	 0.0071630108	 0.206766
C	-1.6201714013	-1.789516831	-0.9695667487	 0.22899
N	-1.8164769764	-2.5939789778	-1.7770985051	-0.336366
H	 0.3267493692	 1.7658517024	 0.7973492602	 0.307268
H	 0.7230484959	-0.359585855	-0.5486103438	 0.128241
H	 0.1955570913	-1.6233055863	 1.6138192251	 0.141802
H	-2.6289679447	 0.6642943746	 3.3156125007	 0.228668
H	-2.8435417944	 0.669611051	 0.4952948842	 0.252847
104.8937	139.077	161.7608	223.6802	263.1047	396.2999	427.144	504.758	513.6016	554.3606	585.3514	704.2029	715.1388	762.973	866.0488	884.3073	923.8279	942.9387	1005.3956	1042.9478	1068.1542	1115.2306	1196.8727	1220.6546	1285.4622	1314.7496	1320.7309	1347.6656	1442.6881	1814.8437	2355.8346	3114.0293	3230.4669	3466.6398	3524.1656	3803.6648
OC1C2C(=N)NC12C#N	O[C@H]1[C@H]2[C]([NH])N[C@@]12C#N	
InChI=1S/C5H5N3O/c6-1-5-2(3(5)9)4(7)8-5/h2-3,9H,(H2,7,8)	InChI=1S/C5H5N3O/c6-1-5-2(3(5)9)4(7)8-5/h2-3,9H,(H2,7,8)/t2-,3-,5+/m0/s1
