19
gdb 119348	3.97612	0.9583	0.91384	0.8859	74.87	-0.2278	0.0753	0.3031	1332.7743	0.159097	-422.948444	-422.940137	-422.939193	-422.982038	31.31	
O	-0.1376885353	 1.5201403943	 0.0993323607	-0.418848
C	 0.0017152787	 0.1102093919	 0.1791011578	-0.066347
C	-1.3617561636	-0.5049397442	-0.1287220024	-0.352723
C	-1.3526700487	-1.998186667	-0.0984247077	 0.315473
C	-2.4547516491	-3.0543109297	 0.0122949474	-0.183904
C	-1.9507393823	-3.7915560918	-1.2267983454	-0.231414
C	-0.585467968	-3.1386224415	-0.896043276	 0.017945
O	-0.1882080319	-3.7745546835	 0.3508718478	-0.294399
C	-1.2442993797	-3.0391680841	 0.9661728477	 0.038118
H	 0.7159165952	 1.9186931376	 0.2914277156	 0.286711
H	 0.7471265985	-0.2602062929	-0.5428376899	 0.089014
H	 0.3316633872	-0.2077708161	 1.1802538735	 0.093576
H	-2.0887280824	-0.1303586138	 0.6024292669	 0.113042
H	-1.6957439278	-0.139951202	-1.108449182	 0.111348
H	-3.4711747519	-2.9182330659	 0.3606493204	 0.090013
H	-1.9719296895	-4.8857843406	-1.2475805002	 0.100022
H	-2.3857866123	-3.3796601212	-2.1410953353	 0.103076
H	 0.2269124309	-3.0478425675	-1.6147595512	 0.084396
H	-1.3012749179	-2.9977944819	 2.0462811323	 0.104902
78.4582	87.2559	106.5208	257.4768	260.873	328.4035	340.3804	476.0055	549.4532	668.2261	746.0252	774.6569	796.1544	828.0013	880.5937	913.8247	929.9261	946.348	972.9707	1007.2364	1022.2949	1026.3419	1040.3748	1080.8922	1094.0411	1130.3908	1151.7112	1167.6178	1218.86	1226.0345	1237.4548	1245.4086	1272.6416	1311.3328	1318.0077	1338.2327	1457.2343	1464.9037	1480.158	1490.2208	1526.4477	2970.2032	2998.7152	3024.254	3047.9629	3064.585	3110.814	3138.6782	3192.7206	3206.1674	3832.1206
OCCC12C3CC1OC23	OCC[C@@]12[C@H]3C[C@@H]1O[C@@H]23	
InChI=1S/C7H10O2/c8-2-1-7-4-3-5(7)9-6(4)7/h4-6,8H,1-3H2	InChI=1S/C7H10O2/c8-2-1-7-4-3-5(7)9-6(4)7/h4-6,8H,1-3H2/t4-,5-,6+,7+/m0/s1
