14
gdb 7207	4.51065	1.13138	0.91043	1.1764	71.52	-0.2455	-0.07	0.1755	1227.1634	0.105354	-378.720016	-378.710969	-378.710025	-378.755315	30.686	
C	-0.0262765523	 1.4669007523	-0.0506501515	-0.506769
C	 0.0306018301	 0.0171824175	-0.0614184558	 0.113921
C	 0.0968045967	-1.1875265209	-0.0721883698	 0.09632
C	 0.0842645281	-2.6229424522	-0.0926154038	 0.173301
O	-0.9436605822	-3.2766577601	-0.0718313426	-0.322969
C	 1.4322151264	-3.3278154411	-0.1313257973	 0.285796
N	 1.2921201233	-4.6794613087	-0.2566075859	-0.545549
N	 2.4911550846	-2.6125371288	-0.0665340527	-0.51297
H	 0.9515491446	 1.9014242947	 0.1806528188	 0.164261
H	-0.3414119177	 1.8445806381	-1.0298281425	 0.163934
H	-0.7486194362	 1.8265181886	 0.6899739355	 0.161397
H	 0.3597121178	-5.0416006419	-0.1218426099	 0.270991
H	 2.0710166638	-5.2837669454	-0.0590998474	 0.252556
H	 3.335770113	-3.1890586922	-0.091079645	 0.20578
22.1236	66.086	85.6428	156.819	267.1072	312.2296	349.0107	382.7295	410.8574	470.1162	484.2825	543.5026	621.0025	686.2688	827.0789	887.2661	964.6837	1043.7766	1052.8811	1090.3862	1135.6299	1243.1918	1408.1734	1431.7197	1467.3714	1472.9954	1598.1651	1718.502	1737.1328	2344.657	3031.8239	3094.3704	3101.6723	3440.1185	3580.0929	3715.788
CC#CC(=O)C(N)=N	CC#CC(=O)C(=N)N	
InChI=1S/C5H6N2O/c1-2-3-4(8)5(6)7/h1H3,(H3,6,7)	InChI=1S/C5H6N2O/c1-2-3-4(8)5(6)7/h1H3,(H3,6,7)
