14
gdb 33520	2.23671	1.64916	1.21714	3.8445	72.6	-0.2547	-0.0124	0.2423	1028.5736	0.101033	-395.703774	-395.695696	-395.694752	-395.736573	29.76	
C	 0.1551452069	-1.156516746	 0.017979286	-0.448201
C	 0.0509703208	 0.0393120527	-0.0186656785	 0.322635
C	-0.0484706878	 1.5009336706	-0.0338312309	-0.053165
C	-0.5936936756	 2.0869058585	 1.346991517	-0.200704
N	 0.5759465591	 2.6106796788	 2.0458306349	-0.227912
C	 1.540485806	 2.5935650876	 1.2167929272	 0.07079
N	 1.276407798	 2.1496020573	-0.0753877981	-0.316144
C	-0.8827341506	 1.9336696966	-1.1687849685	 0.280953
N	-1.5552224117	 2.2787839305	-2.0421630168	-0.336091
H	 0.2381281972	-2.2157198283	 0.0454061506	 0.217641
H	-1.309823677	 2.8915575473	 1.1523510839	 0.145531
H	-1.0942890631	 1.3088825047	 1.9258380204	 0.142598
H	 2.5413070575	 2.9458809144	 1.4473791983	 0.14239
H	 2.0026258502	 1.6726666753	-0.5916488656	 0.25968
88.9236	127.1456	167.784	178.1221	270.9142	437.0557	469.9692	491.8537	526.1614	578.8287	582.3323	599.5721	651.5785	677.5123	802.9596	851.8681	922.2121	964.1794	987.0111	1049.3087	1094.7062	1112.5131	1139.8753	1244.2732	1315.579	1342.2327	1410.4521	1486.9817	1705.3061	2238.7267	2362.3643	3059.2128	3119.7447	3194.591	3496.8873	3599.7407
C#CC1(CN=CN1)C#N	C#C[C@]1(C[N][CH]N1)C#N	
InChI=1S/C6H5N3/c1-2-6(3-7)4-8-5-9-6/h1,5H,4H2,(H,8,9)	InChI=1S/C6H5N3/c1-2-6(3-7)4-8-5-9-6/h1,5H,4H2,(H,8,9)/t6-/m1/s1
