17
gdb 24121	4.69246	0.9616	0.91243	1.7148	74.13	-0.241	0.0028	0.2439	1303.2533	0.138026	-418.010443	-418.002642	-418.001698	-418.044558	28.414	
C	-0.0687606371	 1.6194804158	 0.2532880243	-0.355283
C	-0.1709139407	 0.1026214995	 0.3259382652	 0.029735
C	-1.3376650633	-0.5887001626	-0.2739936017	-0.243748
N	-0.0043681338	-0.6991508782	-0.8917946464	-0.307491
C	 1.3251387726	 2.0849025155	-0.0002853771	 0.406702
N	 1.8439222676	 2.4828300686	-1.12012568	-0.307539
C	 3.1755962472	 2.743012299	-0.815908254	-0.111122
C	 3.3889204152	 2.4824714871	 0.4929625245	-0.0414
O	 2.2062098414	 2.0574791431	 1.0336051926	-0.174589
H	-0.6880818326	 1.9952913111	-0.5661840629	 0.130346
H	-0.4408528587	 2.0588169632	 1.1861009282	 0.128195
H	 0.3033409753	-0.3370026916	 1.2010042377	 0.103335
H	-1.7173006531	-1.5071005653	 0.1646921293	 0.121025
H	-2.0925624282	 0.0247411353	-0.7604270609	 0.111909
H	 0.0648342091	-0.0846144718	-1.7006307453	 0.23921
H	 3.8706799139	 3.0984540444	-1.5595599015	 0.12517
H	 4.2314932453	 2.5387585668	 1.159898468	 0.145545
30.2005	60.3926	116.4226	275.7471	324.8918	370.4773	443.068	631.6296	691.2903	759.5532	782.753	804.5707	829.2498	865.4247	912.7473	933.8478	937.0487	957.5287	981.1443	1050.2583	1099.0593	1117.0515	1128.4584	1153.1043	1162.9979	1176.8445	1237.5556	1250.8547	1277.9496	1312.8723	1327.313	1393.5618	1417.5405	1458.9913	1513.0703	1556.5099	1616.5826	3042.8753	3099.7722	3105.4438	3131.7808	3190.3875	3265.4218	3302.719	3489.4447
C(C1CN1)C1=NC=CO1	C([C@H]1CN1)c1ncco1	
InChI=1S/C6H8N2O/c1-2-9-6(7-1)3-5-4-8-5/h1-2,5,8H,3-4H2	InChI=1S/C6H8N2O/c1-2-9-6(7-1)3-5-4-8-5/h1-2,5,8H,3-4H2/t5-/m0/s1
