18
gdb 64536	4.02874	1.23683	1.097	4.5719	76.55	-0.2209	-0.0196	0.2013	1114.8402	0.146667	-401.861087	-401.853115	-401.852171	-401.893399	31.209	
C	-0.1202431474	 1.6466909625	 0.0455309887	-0.464689
C	 0.0601863358	 0.1358128571	 0.0858821583	 0.211991
C	-1.120011926	-0.6281848896	-0.458153406	 0.14215
O	-2.1297925453	-0.13784345	-0.8936411554	-0.275203
C	 1.3114792135	-0.6967557947	-0.2097220025	-0.11027
C	 2.632163728	-0.1621004105	 0.4130160498	-0.074765
N	 2.3737517755	 1.1058564589	 1.1385064529	-0.332786
C	 2.034054655	-0.1975435853	 1.7602659865	-0.074767
C	 0.6967949271	-0.7331790892	 1.1748607467	-0.110262
H	 0.6462270304	 2.1266684891	-0.5622857809	 0.126979
H	-1.102978229	 1.8576176833	-0.3851460812	 0.130419
H	-0.0658235432	 2.0844809816	 1.0418596058	 0.126981
H	-0.9937225912	-1.735663281	-0.4313406713	 0.070444
H	 1.3089165752	-1.4731094916	-0.9656661049	 0.097384
H	 3.6234416855	-0.4319434563	 0.0746611034	 0.103217
H	 3.2646193278	 1.3977792835	 1.5416874447	 0.232578
H	 2.4535575112	-0.5012682934	 2.7098448519	 0.103216
H	 0.1498459671	-1.5417910944	 1.6451548835	 0.097383
102.1516	144.5009	206.1566	227.9718	337.9439	352.3318	358.4755	490.6876	494.9343	664.6373	710.4291	740.6542	745.1382	786.7437	853.6625	870.8006	904.1625	918.6948	920.229	987.3805	1006.006	1037.9031	1038.455	1041.7305	1101.4904	1115.5934	1118.2457	1149.7725	1244.3366	1247.6366	1299.184	1303.9513	1344.5416	1395.6417	1415.7129	1447.2731	1484.5916	1499.3446	1826.1553	2857.6945	3062.8693	3139.229	3153.7765	3173.3182	3181.3727	3199.699	3212.4885	3463.864
CC1(C=O)C2C3NC3C12	C[C@@]1(C=O)[C@H]2[C@H]3N[C@H]3[C@@H]12	
InChI=1S/C7H9NO/c1-7(2-9)3-4(7)6-5(3)8-6/h2-6,8H,1H3	InChI=1S/C7H9NO/c1-7(2-9)3-4(7)6-5(3)8-6/h2-6,8H,1H3/t3-,4+,5-,6+,7-
