19
gdb 46780	2.81833	1.69195	1.32799	2.1189	76.18	-0.2208	0.0141	0.2349	1003.2608	0.162403	-419.182179	-419.174945	-419.174	-419.213714	29.365	
N	-0.0773730566	 1.2985880207	-0.4839246434	-0.487528
C	-0.0128430281	 0.1048963654	-0.0645921754	 0.365364
C	-1.2677791598	-0.727989352	 0.0855675535	-0.285875
C	-1.5591686032	-1.3465064837	 1.4783229555	-0.179569
N	-0.4443415901	-2.0180997949	 2.1517559076	-0.101614
C	 0.6520950644	-1.0536402212	 2.4932082413	-0.205982
C	 1.4034841447	-1.428977271	 1.2002815887	 0.110875
C	 0.4982346229	-2.6820986088	 1.1902810918	-0.206591
O	 1.2093376863	-0.4965551475	 0.1357255372	-0.264664
H	 0.8657750912	 1.6877653681	-0.5567228255	 0.218201
H	-2.1019405416	-0.0854591771	-0.20218647	 0.133934
H	-1.213773402	-1.5306783898	-0.659752896	 0.123686
H	-1.9233907336	-0.5677940198	 2.1569564394	 0.118544
H	-2.3773532846	-2.0654288178	 1.3558124005	 0.109667
H	 0.3463392208	-0.0080559655	 2.5967038385	 0.120349
H	 1.1745263093	-1.3674870608	 3.4024881704	 0.111515
H	 2.4841680237	-1.5783428873	 1.2407076116	 0.092463
H	 0.9845535306	-3.5390404786	 1.6675652425	 0.1128
H	 0.0782172959	-3.0034039282	 0.2353716319	 0.114426
97.9372	189.1654	312.2888	326.6021	367.2388	429.7798	466.3691	508.8373	536.4732	675.7001	753.2054	777.6109	818.1459	858.8805	876.341	915.1165	935.2344	949.133	959.0423	1009.7008	1036.26	1074.2058	1088.2614	1106.1723	1130.3725	1178.8278	1234.0742	1244.7585	1270.5901	1272.2849	1290.3264	1304.3183	1324.125	1352.8978	1386.3624	1407.3644	1466.2063	1485.469	1492.053	1510.3118	1736.9868	3033.7862	3038.3825	3042.4606	3053.1483	3078.3825	3093.0284	3100.3714	3115.9143	3121.0033	3455.2159
N=C1CCN2CC(C2)O1	[NH][C]1CCN2C[C@@H](C2)O1	
InChI=1S/C6H10N2O/c7-6-1-2-8-3-5(4-8)9-6/h5,7H,1-4H2	InChI=1S/C6H10N2O/c7-6-1-2-8-3-5(4-8)9-6/h5,7H,1-4H2
