14
gdb 29532	3.25897	1.63388	1.10171	1.6853	64.04	-0.1791	0.0315	0.2106	1015.0961	0.102295	-473.793883	-473.786517	-473.785573	-473.825598	27.857	
N	-0.0135042956	 1.4470998059	 0.1462931187	-0.610549
C	 0.0315049841	 0.0548487451	 0.0369847661	 0.084482
C	-1.022004825	-0.8290480145	-0.0663059602	-0.113281
O	-0.5784110935	-2.1637034938	-0.0618968852	-0.202161
C	 0.7368884972	-2.0489982401	 0.0480167438	 0.364244
C	 1.1806258376	-0.7878570199	 0.1233782957	 0.156007
O	 2.5661880944	-0.7756590857	-0.001860214	-0.289645
C	 2.8791272991	-2.1604019826	 0.2132256903	 0.005479
O	 1.7178991935	-2.9709602058	-0.1275735138	-0.279387
H	 0.786754794	 1.8986533569	-0.2767987553	 0.25516
H	-0.8648421995	 1.8462646935	-0.2260925426	 0.248994
H	-2.0884626707	-0.7047591212	-0.0059405169	 0.126719
H	 3.7118872345	-2.4534147332	-0.4262712211	 0.139001
H	 3.09768259	-2.3214278746	 1.2795671446	 0.114938
135.1363	204.6637	222.5572	248.2392	267.2026	387.4769	524.3389	539.754	599.4394	615.4322	644.7188	661.4712	737.302	762.9988	797.294	879.4231	1040.2226	1053.8092	1078.7685	1126.8398	1135.491	1230.8116	1237.9811	1272.2909	1413.1395	1451.9393	1516.2537	1530.0522	1601.8832	1658.9992	1723.8388	2989.6585	3136.8075	3296.7126	3544.2845	3634.99
NC1=COC2=C1OCO2	Nc1coc2c1OCO2	
InChI=1S/C5H5NO3/c6-3-1-7-5-4(3)8-2-9-5/h1H,2,6H2	InChI=1S/C5H5NO3/c6-3-1-7-5-4(3)8-2-9-5/h1H,2,6H2
