23
gdb 104346	2.29893	1.41591	1.30882	0.9342	86.55	-0.2341	0.0333	0.2674	1169.8025	0.205533	-388.304215	-388.294736	-388.293792	-388.338145	36.623	
C	-0.0496315957	 1.3892869598	-0.1063441797	-0.241753
O	-0.060326132	-0.0064003601	 0.0763377589	-0.277494
C	 0.672697702	-0.5572874819	 1.1822993159	 0.362269
C	-0.0020846076	-0.1832990595	 2.5081542005	-0.434514
C	 0.6002979681	-2.0742449459	 0.9407648028	-0.217294
C	 1.2093938912	-2.4638968138	-0.4138932804	-0.25626
C	 2.5239736864	-1.775922833	-0.6627740631	-0.031395
C	 2.9450110127	-0.7305331267	 0.0465253231	-0.06175
C	 2.1539048798	-0.1237328273	 1.17644535	-0.282942
H	 0.9293729332	 1.7665975302	-0.4343110126	 0.108927
H	-0.7758846098	 1.6020735356	-0.8959081889	 0.123176
H	-0.3523196552	 1.9430899439	 0.7936509967	 0.101387
H	-1.0696021022	-0.4186279232	 2.4642721153	 0.118657
H	 0.4419514381	-0.7426913999	 3.3373911121	 0.113181
H	 0.1063939917	 0.8816388176	 2.7377411252	 0.11125
H	 1.1408540314	-2.5771676279	 1.7511220087	 0.093198
H	-0.4445265637	-2.397414918	 0.9955434796	 0.094829
H	 1.3400107413	-3.5523012518	-0.4630144129	 0.093542
H	 0.5093265349	-2.2059050241	-1.218682752	 0.122267
H	 3.1371744349	-2.1584481274	-1.4755535691	 0.079422
H	 3.9072763489	-0.2752780656	-0.1764216892	 0.078099
H	 2.2257752242	 0.9699659639	 1.1464001861	 0.098124
H	 2.6009530276	-0.4067884549	 2.140140433	 0.105074
61.3333	124.6302	173.6995	210.8763	235.9874	272.3946	318.2021	347.8922	385.7948	410.5072	457.3094	521.8718	549.9153	666.826	695.6289	766.8332	842.8156	884.1664	893.1189	924.4001	965.9119	996.6837	1003.6162	1020.4838	1055.8773	1106.4033	1128.6353	1140.9557	1154.8014	1181.1206	1201.6835	1216.2713	1254.9043	1288.969	1289.9856	1347.5707	1365.6348	1386.4822	1403.3469	1417.6625	1461.8916	1465.6685	1475.4112	1481.7856	1489.5912	1499.5205	1503.7088	1513.2887	1728.5974	2988.9297	3008.4487	3021.6507	3032.0826	3035.8779	3040.929	3048.5842	3050.4936	3081.2344	3100.1024	3103.5047	3114.5236	3138.6162	3162.8792
COC1(C)CCC=CC1	CO[C@@]1(C)CCC=CC1	
InChI=1S/C8H14O/c1-8(9-2)6-4-3-5-7-8/h3-4H,5-7H2,1-2H3	InChI=1S/C8H14O/c1-8(9-2)6-4-3-5-7-8/h3-4H,5-7H2,1-2H3/t8-/m1/s1
