27
gdb 100778	2.91116	0.9044	0.73623	0.0884	96.29	-0.2693	0.091	0.3603	1678.9775	0.250683	-353.554493	-353.543256	-353.542312	-353.591204	42.124	
C	 0.0379725264	 1.5723646884	 0.133629642	-0.390646
C	 0.0229106657	 0.0442217282	 0.0056928591	-0.176418
C	 0.7252876329	-0.5129964652	-1.2511182844	 0.049301
C	 2.20948922	-0.1149162437	-1.2691395906	-0.399086
C	 0.5266424836	-2.0494818993	-1.3897717961	 0.015596
C	-0.9596661857	-2.4397152899	-1.4947744465	-0.401383
C	 1.2754623236	-2.6245526363	-2.5862515987	 0.034671
C	 2.679244578	-3.1640275836	-2.4746370854	-0.270104
C	 1.5241759362	-4.1095587248	-2.6856533098	-0.282106
H	 1.0467569292	 1.9698892585	 0.276519816	 0.117886
H	-0.3832131528	 2.0475277235	-0.7599931406	 0.111354
H	-0.5622585193	 1.8932786114	 0.9910946261	 0.109271
H	 0.487278925	-0.4008555552	 0.8973532824	 0.08841
H	-1.0210566645	-0.2826859453	 0.0129268218	 0.095383
H	 0.2449371518	-0.0503139081	-2.1285797725	 0.061862
H	 2.7420978853	-0.547235581	-0.4128137769	 0.104553
H	 2.7093524811	-0.4571710736	-2.1769034802	 0.120348
H	 2.3285032229	 0.9705895162	-1.2170574747	 0.108701
H	 0.9390536414	-2.5229078693	-0.4848314914	 0.060371
H	-1.0595342418	-3.5152263023	-1.6670802669	 0.113032
H	-1.5247578009	-2.197664446	-0.5915712528	 0.113074
H	-1.4382229676	-1.9248511163	-2.3368344711	 0.108296
H	 1.0364340355	-2.1322326145	-3.5277881069	 0.075613
H	 3.3690961264	-2.9961366446	-3.2949940201	 0.107397
H	 3.1480879589	-3.1532955114	-1.4961539529	 0.109842
H	 1.2226266604	-4.7297241161	-1.8469226621	 0.107641
H	 1.4185946983	-4.5927251797	-3.6508164668	 0.107141
37.3105	72.6399	105.8857	154.5228	187.2363	221.1285	228.5525	273.2742	283.1849	337.2084	342.4353	384.42	422.7961	499.8153	503.9986	758.9597	775.5621	812.4903	817.1702	829.5787	890.7375	933.0679	950.7261	967.0087	983.3839	994.3454	1018.0413	1050.7178	1060.4748	1075.871	1083.5701	1140.9286	1145.9126	1173.7003	1182.5875	1199.7791	1211.2995	1227.6937	1269.0845	1308.827	1320.8904	1344.6167	1368.5531	1381.2148	1403.8148	1411.0123	1414.6159	1415.9986	1469.3849	1482.0429	1496.2947	1497.2611	1501.0329	1503.7884	1506.5922	1508.6995	1516.6694	2968.5786	2984.8796	3012.2976	3031.2934	3031.609	3033.2664	3073.3439	3094.5869	3097.9905	3100.1477	3111.3784	3114.7192	3118.7264	3124.9079	3130.5801	3131.4759	3201.6842	3217.2124
CCC(C)C(C)C1CC1	CC[C@@H](C)[C@@H](C)C1CC1	
InChI=1S/C9H18/c1-4-7(2)8(3)9-5-6-9/h7-9H,4-6H2,1-3H3	InChI=1S/C9H18/c1-4-7(2)8(3)9-5-6-9/h7-9H,4-6H2,1-3H3/t7-,8-/m1/s1
