22
gdb 64268	2.75963	1.44694	1.31048	1.8889	81.33	-0.2365	0.068	0.3045	1107.776	0.195394	-404.336135	-404.327596	-404.326652	-404.368418	34.679	
C	-0.1512595881	 1.608956557	 0.0479810282	-0.435309
C	-0.0267238783	 0.0766799364	-0.0080876289	 0.353403
C	-1.4154930677	-0.5599063924	 0.0803053906	-0.408878
C	 0.6877712542	-0.4087242129	-1.2960224704	-0.227416
C	 2.199889703	-0.3439504436	-1.2306055724	-0.025681
N	 2.8274529955	 0.9461477391	-0.8951538067	-0.332962
C	 2.8700111629	-0.1626104164	 0.0824656668	-0.047854
C	 2.0010073721	-0.0013091469	 1.3204061674	-0.084651
O	 0.6657873891	-0.4410064794	 1.1379205854	-0.290049
H	 0.8103869835	 2.1009674611	-0.1028255797	 0.150262
H	-0.8294323776	 1.9537934915	-0.7395727135	 0.105352
H	-0.569205176	 1.9115168782	 1.0133710569	 0.110012
H	-2.0083712118	-0.3185032992	-0.8073421023	 0.108163
H	-1.3277547238	-1.6471618126	 0.1592553647	 0.1161
H	-1.9470714477	-0.1936456004	 0.9632810191	 0.115689
H	 0.4162287309	-1.4584748773	-1.460445975	 0.096441
H	 0.3204616236	 0.1564881628	-2.1611052534	 0.099261
H	 2.7099098978	-0.9615191138	-1.9675977601	 0.081293
H	 3.7234929247	 1.0301187124	-1.3675926011	 0.229
H	 3.8283889413	-0.6516233601	 0.237843587	 0.084411
H	 2.3935363295	-0.6243303442	 2.1303034693	 0.103502
H	 2.0336524531	 1.0451912004	 1.6569088979	 0.099913
145.2265	195.6864	229.3043	253.5716	291.9532	324.1261	341.1486	396.1737	402.627	454.9234	487.5458	551.6603	698.4034	764.475	774.2734	818.701	878.2296	900.2407	908.6779	940.9641	956.0317	979.2995	992.3991	1030.2835	1067.5696	1097.8968	1137.9454	1153.0464	1172.1638	1210.4108	1229.0959	1240.8233	1271.4626	1296.7767	1298.9916	1372.927	1389.2027	1392.857	1409.4078	1415.0447	1462.1049	1468.5698	1482.1521	1486.7922	1492.9998	1499.3927	1524.9719	2997.8386	3025.6384	3036.5174	3042.4302	3065.8619	3072.7287	3102.9565	3115.6757	3117.1945	3117.63	3137.432	3145.7778	3501.7537
CC1(C)CC2NC2CO1	CC1(C)C[C@H]2N[C@H]2CO1	
InChI=1S/C7H13NO/c1-7(2)3-5-6(8-5)4-9-7/h5-6,8H,3-4H2,1-2H3	InChI=1S/C7H13NO/c1-7(2)3-5-6(8-5)4-9-7/h5-6,8H,3-4H2,1-2H3/t5-,6+/m1/s1
