15
gdb 28955	3.44598	1.15211	0.92436	1.396	67.46	-0.2117	-0.0418	0.17	1200.0686	0.111986	-453.974889	-453.966366	-453.965421	-454.009571	29.809	
O	-0.0661413101	 1.2936994367	 0.401328315	-0.440456
C	 0.0294207151	-0.0146024751	 0.0588800637	 0.327308
C	 0.1170685797	-0.7195333774	-1.1113060758	-0.210946
N	 0.1902701922	-2.0707454424	-0.8292452535	-0.260886
C	 0.1469761559	-2.1674741452	 0.4722044773	-0.004973
N	 0.0510774561	-0.9342404178	 1.0809985765	-0.050234
C	-0.0403690444	-0.6299794226	 2.4892443462	-0.262961
C	-1.4311141584	-0.1485799092	 2.9090303463	 0.154842
O	-1.6458258282	 0.3828543638	 3.9628208934	-0.223921
H	-0.0786449842	 1.8252431078	-0.4005712053	 0.316404
H	 0.132134557	-0.34296646	-2.1222837517	 0.105385
H	 0.1868027629	-3.0779704785	 1.0517988286	 0.129734
H	 0.1878242446	-1.539691573	 3.0549504806	 0.155619
H	 0.6914181341	 0.1300471417	 2.7783651228	 0.163518
H	-2.2321496921	-0.3485721988	 2.162990846	 0.101569
29.5407	76.7394	106.5471	225.1	247.2115	287.0734	366.911	405.7804	476.5929	661.6276	675.7892	692.3932	717.7201	769.5584	777.6028	809.5352	930.7917	1025.9529	1061.2161	1122.5565	1150.9003	1202.4391	1253.0114	1296.2478	1314.2812	1330.6229	1383.6475	1406.9875	1442.032	1498.3947	1551.248	1616.8593	1847.1577	2893.4941	3056.5609	3106.5163	3244.6205	3249.1207	3845.9386
OC1=CN=CN1CC=O	Oc1cncn1CC=O	
InChI=1S/C5H6N2O2/c8-2-1-7-4-6-3-5(7)9/h2-4,9H,1H2	InChI=1S/C5H6N2O2/c8-2-1-7-4-6-3-5(7)9/h2-4,9H,1H2
