19
gdb 32763	3.21035	1.03796	0.80831	3.6584	80.13	-0.2097	0.033	0.2427	1431.8308	0.15954	-419.241488	-419.232067	-419.231122	-419.276632	33.195	
C	 0.1523889477	 1.360471523	-0.161705988	-0.223965
O	 0.3550182862	-0.0334903012	-0.1199745511	-0.24527
C	 0.4046522007	-0.5414247777	 1.2044595387	-0.193736
C	 0.5383694041	-2.0222068958	 1.1374753614	 0.236594
C	 1.2085104957	-2.9535014843	 1.8954863987	 0.192513
C	 2.0954787001	-2.7393656144	 3.0795533451	-0.494385
N	 0.945254771	-4.2242425596	 1.4216422593	-0.313458
C	 0.13959586	-4.0624148528	 0.3982803869	 0.002528
N	-0.1541249352	-2.7508654473	 0.1914344456	-0.285469
H	 0.9745716744	 1.9057246946	 0.3268760704	 0.110014
H	 0.1111615295	 1.6529883195	-1.2134562894	 0.130075
H	-0.7904651292	 1.6512599663	 0.3280498669	 0.106333
H	 1.251666903	-0.1130017198	 1.76290268	 0.106931
H	-0.5141373667	-0.2406854222	 1.7411560784	 0.098545
H	 1.6030043716	-3.0384305914	 4.0124139153	 0.130032
H	 3.0041395118	-3.342068156	 2.9882632457	 0.136721
H	 2.3873882358	-1.689744473	 3.1799430078	 0.112515
H	-0.2540342848	-4.848443085	-0.2291017132	 0.125137
H	-0.6630094958	-2.3428523228	-0.5751638284	 0.268345
53.3489	95.1973	97.7795	129.9915	222.8894	240.6168	260.4285	322.4982	353.939	462.3745	553.2486	653.5298	672.2977	698.9808	795.4003	812.1233	962.9873	975.1755	984.5781	1019.6153	1063.7821	1107.0165	1145.0202	1157.9935	1185.4851	1220.665	1250.4718	1265.523	1294.6206	1381.9006	1412.5637	1415.6816	1463.9368	1475.4586	1479.5058	1485.4116	1493.5838	1502.6443	1521.1461	1524.0145	1639.2567	2928.5159	2973.55	2993.2722	3019.9424	3030.5418	3086.4199	3112.6405	3117.9733	3248.3809	3665.8668
COCC1=C(C)N=CN1	COCc1c(C)nc[nH]1	
InChI=1S/C6H10N2O/c1-5-6(3-9-2)8-4-7-5/h4H,3H2,1-2H3,(H,7,8)	InChI=1S/C6H10N2O/c1-5-6(3-9-2)8-4-7-5/h4H,3H2,1-2H3,(H,7,8)
