20
gdb 62852	2.77223	1.56483	1.37932	2.1948	78.33	-0.2149	-0.0108	0.2041	1034.6757	0.17139	-403.131694	-403.123503	-403.122559	-403.163931	32.738	
C	-0.122816928	 1.5100430436	 0.0488877233	-0.45329
C	-0.040276643	-0.0150464475	-0.0361810622	 0.334571
C	-1.4177526506	-0.5798836143	 0.3167661707	-0.475975
C	 0.7297742273	-0.6005414459	-1.2777944174	-0.170216
C	 2.0004037368	-0.2473101003	-0.4554675251	-0.207036
N	 1.1644471861	-0.5510943833	 0.7762853587	-0.15148
C	 1.0226925353	-2.021334794	 0.585243131	-0.293527
C	 0.6728418908	-2.0856155594	-0.9265886831	 0.416366
O	 0.4261005459	-3.0381512939	-1.6141620879	-0.335498
H	 0.8122472222	 2.0238382271	-0.1738125351	 0.121615
H	-0.8817708281	 1.8811726921	-0.6468122286	 0.12041
H	-0.4230770179	 1.7974938501	 1.0616947617	 0.130317
H	-2.1839712085	-0.0706996075	-0.275748511	 0.125372
H	-1.5256480937	-1.6493756346	 0.1287074922	 0.134922
H	-1.6372639127	-0.3926514931	 1.3734630391	 0.131591
H	 0.545448775	-0.3237517797	-2.3150075373	 0.079745
H	 2.8813330521	-0.8845188929	-0.5692136147	 0.112053
H	 2.3040632542	 0.7959473512	-0.4968629243	 0.11995
H	 1.9649361388	-2.529531091	 0.8088748904	 0.129044
H	 0.245172188	-2.4533893066	 1.2171933895	 0.131067
135.4828	144.0592	192.4533	209.6251	345.7901	366.7137	423.4709	452.9409	498.0108	523.8959	607.594	624.6181	657.2197	749.9152	788.9677	841.7398	844.3808	937.7661	957.866	977.1859	993.5749	995.1055	1020.5726	1040.5414	1101.2211	1144.1715	1146.859	1184.2778	1207.0598	1214.0123	1236.9603	1273.9821	1274.5757	1290.5498	1406.3463	1422.8161	1470.9421	1479.7204	1489.9245	1502.3659	1515.4552	1538.6844	1871.4176	3040.5801	3047.7553	3069.395	3076.587	3102.6444	3110.371	3123.9951	3128.8506	3133.7007	3136.878	3159.7843
CC1(C)C2CN1CC2=O	CC1(C)[C@H]2CN1CC2=O	
InChI=1S/C7H11NO/c1-7(2)5-3-8(7)4-6(5)9/h5H,3-4H2,1-2H3	InChI=1S/C7H11NO/c1-7(2)5-3-8(7)4-6(5)9/h5H,3-4H2,1-2H3/t5-/m0/s1
