15
gdb 20573	4.58491	1.58641	1.28105	4.1326	61.88	-0.255	0.0003	0.2553	930.6951	0.12013	-396.006493	-395.998722	-395.997778	-396.039675	27.381	
C	 0.1733767433	 1.526304719	 0.1832286456	-0.389084
C	-0.0868954955	 0.0278290196	-0.0217428426	 0.054454
O	-1.4742840421	-0.2380821506	-0.1174008716	-0.440687
C	 0.6499364802	-0.490077863	-1.2260776172	 0.336081
N	 0.0017361502	-0.9487631145	-2.2851651244	-0.293093
N	 1.0123993512	-1.2786173309	-3.1252847115	-0.180265
C	 2.1984015043	-1.0119707897	-2.5449698995	 0.019884
N	 2.0109215023	-0.5094855013	-1.341291802	-0.306714
H	 1.2427138677	 1.7188237816	 0.3075670624	 0.129724
H	-0.1903675911	 2.0953579899	-0.6781032797	 0.114125
H	-0.3587434432	 1.8685992229	 1.074523599	 0.122615
H	 0.2952704622	-0.510662717	 0.8570694602	 0.10041
H	-1.6664794474	-0.4483754536	-1.03896863	 0.29478
H	 0.8101085695	-1.6725798981	-4.0292964089	 0.285456
H	 3.1473204883	-1.1980180145	-3.0255847997	 0.152313
25.4335	133.3168	179.8342	214.1266	257.9608	343.1537	451.7174	502.5665	528.4931	675.2966	686.864	780.9402	862.1068	909.8233	991.9131	1004.14	1048.933	1102.3618	1110.3097	1140.8759	1174.8787	1253.7144	1303.7136	1356.7766	1362.3791	1394.8643	1421.6782	1471.497	1476.3583	1490.3193	1512.2105	1556.5061	3007.6105	3041.0888	3118.6341	3128.3735	3258.3271	3666.733	3785.1306
CC(O)C1=NNC=N1	C[C@@H](O)c1n[nH]cn1	
InChI=1S/C4H7N3O/c1-3(8)4-5-2-6-7-4/h2-3,8H,1H3,(H,5,6,7)	InChI=1S/C4H7N3O/c1-3(8)4-5-2-6-7-4/h2-3,8H,1H3,(H,5,6,7)/t3-/m1/s1
