19
gdb 76889	2.3498	1.8733	1.54494	1.8092	68.73	-0.2525	0.0728	0.3253	955.9917	0.161563	-460.169057	-460.161524	-460.16058	-460.20084	30.222	
C	-0.2176912122	 1.5721385901	 0.0685232511	-0.408163
C	 0.0327009852	 0.0691688986	 0.0004657734	-0.023403
C	 0.8336510518	-0.469818132	-1.2080579228	 0.018978
C	 2.2353703478	 0.1574814485	-1.280693645	-0.098615
O	 2.8814034512	-0.4314167237	-0.1298378023	-0.295717
C	 1.9063721901	-1.3620241467	 0.3755940828	 0.147647
O	 1.1891388152	-1.7940173474	-0.7494281719	-0.245341
C	 0.889513626	-0.5226155865	 1.1877575858	 0.101345
O	 1.5226014879	 0.4201433387	 2.018153618	-0.434199
H	 0.7077412915	 2.1435660257	 0.1724892935	 0.118852
H	-0.7411242366	 1.9237225766	-0.8271345649	 0.109682
H	-0.8366095534	 1.8148357379	 0.9366888899	 0.130667
H	-0.9305757666	-0.4499106363	-0.0163951494	 0.084162
H	 0.2989721082	-0.5314644382	-2.1551176229	 0.090441
H	 2.7684736021	-0.1411189866	-2.1894350704	 0.115603
H	 2.2426064273	 1.2473085597	-1.1971948428	 0.112954
H	 2.4126036634	-2.1853622505	 0.8775718137	 0.097658
H	 0.275445698	-1.1558389313	 1.8332538892	 0.089471
H	 2.343695583	 0.6556010636	 1.5634589852	 0.287978
106.1635	176.3779	256.6849	276.6792	307.1488	409.6221	503.4127	528.624	553.6738	576.2716	657.2403	744.373	798.0421	825.379	844.7227	912.4563	942.787	966.2721	986.4709	1004.4695	1031.5999	1049.1901	1101.1991	1107.4783	1142.3454	1157.8859	1197.5682	1241.4805	1248.6798	1270.0077	1303.0039	1320.8659	1344.4756	1351.5497	1362.3665	1379.0491	1417.291	1445.2936	1491.456	1494.719	1522.9736	3040.7697	3046.5869	3051.6234	3078.9692	3099.6333	3107.9647	3122.0915	3131.8787	3141.9597	3739.0125
CC1C2COC(O2)C1O	C[C@H]1[C@H]2CO[C@H](O2)[C@H]1O	
InChI=1S/C6H10O3/c1-3-4-2-8-6(9-4)5(3)7/h3-7H,2H2,1H3	InChI=1S/C6H10O3/c1-3-4-2-8-6(9-4)5(3)7/h3-7H,2H2,1H3/t3-,4+,5-,6+/m0/s1
