21
gdb 81010	2.58973	1.4947	1.22263	1.488	77.59	-0.2502	0.0822	0.3324	1128.1199	0.18236	-424.217002	-424.20831	-424.207365	-424.249626	34.584	
C	-0.1902310271	 1.535127377	 0.0019454151	-0.418856
C	 0.0624223556	 0.0289230377	 0.0307927114	 0.033183
C	 1.0107453385	-0.5339234304	-1.0822641047	-0.287137
C	 2.0361225161	-1.2402146067	-0.1746576874	 0.373194
C	 3.0849403597	-2.1397359475	-0.7577261828	-0.498496
O	 1.1540211838	-1.880623146	 0.8332651179	-0.366275
C	 0.867282294	-0.4971969954	 1.2346763389	 0.007481
C	 2.3459738672	-0.1703956726	 0.9176179959	 0.149376
O	 3.2638535893	-0.5828275728	 1.8925864679	-0.4569
H	 0.7425376206	 2.1084127911	 0.0195848995	 0.118489
H	-0.73437099	 1.8211535793	-0.9039422062	 0.12075
H	-0.7912697913	 1.8518661551	 0.861483752	 0.117458
H	-0.8960864454	-0.4982322225	 0.0066831747	 0.082808
H	 0.5128166019	-1.2395018121	-1.7515934309	 0.10579
H	 1.4690918176	 0.2540463448	-1.6890789861	 0.097826
H	 3.642081952	-1.614194972	-1.5401337653	 0.124082
H	 3.7943029982	-2.4573620837	 0.0115183932	 0.125663
H	 2.6257192065	-3.0280935874	-1.202833568	 0.129721
H	 0.4513286882	-0.4040998923	 2.2390320429	 0.07612
H	 2.6285236022	 0.8381733655	 0.6078088398	 0.080011
H	 2.9689296124	-1.458599259	 2.1766234423	 0.285712
151.8228	187.0436	190.0705	208.5256	235.4043	290.3278	354.8317	394.2877	428.8994	497.5516	527.8436	594.5012	625.3528	678.6286	796.987	826.7343	878.6218	898.9773	907.6415	924.5706	941.56	983.1037	1025.5316	1045.3616	1107.756	1121.1669	1144.4881	1171.4787	1193.7159	1216.3464	1225.3346	1251.2979	1271.445	1305.1542	1328.4149	1343.9561	1363.9745	1413.4404	1416.054	1446.6142	1480.6172	1487.9517	1492.345	1497.9794	1499.5816	3031.3378	3038.725	3051.0665	3055.6144	3089.1952	3096.3441	3101.7852	3106.8273	3109.8014	3113.5778	3116.721	3762.6866
CC1CC2(C)OC1C2O	C[C@H]1C[C@]2(C)O[C@H]1[C@H]2O	
InChI=1S/C7H12O2/c1-4-3-7(2)6(8)5(4)9-7/h4-6,8H,3H2,1-2H3	InChI=1S/C7H12O2/c1-4-3-7(2)6(8)5(4)9-7/h4-6,8H,3H2,1-2H3/t4-,5+,6+,7-/m0/s1
