23
gdb 104710	2.63116	1.06378	0.93845	3.1972	82.01	-0.2432	0.058	0.3011	1390.956	0.204854	-425.413832	-425.403693	-425.402749	-425.448757	38.328	
C	 0.1370419774	 1.5762396844	 0.1216431232	-0.406244
C	 0.0676330433	 0.057732728	 0.0600446984	 0.058996
C	 1.0318051937	-0.6846191521	-0.9114640364	-0.303709
C	 1.3423408969	-1.7232495929	 0.2111691443	 0.305838
C	 0.541452595	-3.0030078759	-0.0077686378	-0.138802
O	 0.6311257155	-3.816130932	 1.1669199862	-0.426921
C	 2.8227730915	-2.0255506491	 0.457544491	-0.114491
O	 3.0725465035	-2.6024543831	 1.7240222215	-0.432332
C	 0.6726038147	-0.759219478	 1.2371460299	-0.268392
H	 1.1637834027	 1.9145765031	 0.3031051109	 0.111564
H	-0.2031967778	 2.0312963585	-0.8156515343	 0.111359
H	-0.4897441112	 1.9696902246	 0.9298860753	 0.114564
H	-0.9668970051	-0.250136755	-0.127324851	 0.067078
H	 0.6080491953	-1.0700018949	-1.8442556074	 0.08994
H	 1.9115357267	-0.0819389547	-1.1593808448	 0.097119
H	-0.5110398904	-2.7636680461	-0.2221008284	 0.091545
H	 0.946866063	-3.5391132678	-0.8803649732	 0.091774
H	 0.2252340673	-4.668694079	 0.9858774551	 0.294014
H	 3.2067400985	-2.6605939487	-0.3627305018	 0.069836
H	 3.3929911801	-1.0894763791	 0.4278635579	 0.09158
H	 2.4248983407	-3.3122429736	 1.827784152	 0.288815
H	 1.4213407685	-0.1915113919	 1.7972204721	 0.103933
H	-0.0200669098	-1.2093233446	 1.9517434273	 0.102938
62.2663	105.3678	127.4295	216.8507	230.1299	249.5057	271.4494	308.343	315.7824	357.3905	417.3133	447.8236	474.5203	542.0559	658.0636	753.3734	831.5078	862.5405	902.469	926.7937	943.0706	967.3708	975.6726	1034.418	1049.1936	1072.4221	1098.6787	1106.0095	1147.562	1176.4769	1210.7807	1229.1016	1237.822	1241.6345	1266.8267	1289.1139	1325.767	1335.0321	1372.4112	1376.2955	1411.1652	1451.9415	1468.6986	1477.9803	1493.4057	1496.2686	1498.0269	1504.7575	1520.3658	2928.0505	2972.2107	3007.9416	3021.0527	3035.5504	3039.345	3047.5356	3060.2656	3087.1319	3089.0464	3093.8999	3113.3239	3751.2349	3834.8716
CC1CC(CO)(CO)C1	CC1CC(CO)(CO)C1	
InChI=1S/C7H14O2/c1-6-2-7(3-6,4-8)5-9/h6,8-9H,2-5H2,1H3	InChI=1S/C7H14O2/c1-6-2-7(3-6,4-8)5-9/h6,8-9H,2-5H2,1H3
