17
gdb 41181	3.1315	1.82537	1.67024	1.6698	72.38	-0.2216	0.0048	0.2264	870.4876	0.139086	-417.892538	-417.886238	-417.885293	-417.922793	26.725	
C	 0.0349579721	 1.5649725663	-0.1842766779	-0.249232
N	 1.5513520485	 1.516697178	 0.1127177472	-0.389931
C	 1.1930742826	 0.2765681942	 0.9380903066	 0.02832
C	 1.2259515307	-1.2810956741	 1.1766340074	 0.040142
C	-0.3766882581	-1.121670451	 1.1036626048	-0.345764
C	-0.0261286988	 0.036206323	 0.1071417507	 0.269678
N	 0.3267839076	-0.6298120003	-1.1740127524	-0.279691
C	 1.1390585366	-1.5948767009	-1.0849063233	 0.099427
O	 1.6926200447	-2.0399097899	 0.068765731	-0.215334
H	-0.4500519937	 2.1986728311	 0.5610876759	 0.116334
H	-0.2234434799	 1.8769737967	-1.1983522506	 0.119027
H	 1.9963358941	 1.2193306909	-0.7547501995	 0.230267
H	 0.9179616481	 0.6830083368	 1.916427364	 0.099274
H	 1.6991817249	-1.6997363097	 2.0644055616	 0.100922
H	-0.9301221984	-1.9832524471	 0.7225292224	 0.118341
H	-0.7784702758	-0.7906466109	 2.0611594183	 0.122036
H	 1.4666456149	-2.1754392731	-1.9432607764	 0.136184
212.0741	269.7485	355.074	411.7935	437.949	509.4961	553.832	650.3486	694.2281	756.5863	778.2512	803.247	817.7129	885.1054	905.2925	923.9384	951.8203	966.6357	989.0475	1017.0726	1044.9075	1113.6023	1125.5764	1143.3604	1170.4497	1194.5239	1204.9878	1221.6332	1256.5887	1260.7827	1326.3258	1351.1033	1388.9216	1435.2341	1477.8317	1481.7042	1705.5898	3047.0498	3067.3828	3072.6545	3121.7989	3138.5125	3150.5705	3179.7254	3481.4435
C1NC2C3CC12N=CO3	C1N[C@@H]2[C@H]3C[C@@]12N=CO3	
InChI=1S/C6H8N2O/c1-4-5-6(1,2-7-5)8-3-9-4/h3-5,7H,1-2H2	InChI=1S/C6H8N2O/c1-4-5-6(1,2-7-5)8-3-9-4/h3-5,7H,1-2H2/t4-,5-,6-/m1/s1
