17
gdb 127094	4.15918	1.06451	0.85991	3.0508	73.92	-0.2019	0.0268	0.2288	1310.2264	0.135512	-455.13615	-455.127179	-455.126235	-455.170093	32.362	
C	-0.1109865108	 1.423138932	 0.0765102206	-0.335127
N	 0.219926935	 0.0132468226	-0.0106788391	-0.170099
C	 0.019358546	-0.7913795187	 1.1861071977	-0.347248
C	 0.1231069766	-0.5757709377	-1.2360437793	 0.590501
C	-0.0499910903	-0.0655352485	-2.4992688232	-0.504608
C	 0.0099201383	-1.226740511	-3.3071360559	 0.481033
O	-0.1052614106	-1.2354359211	-4.6455151739	-0.423884
N	 0.1854646414	-2.3391077287	-2.634687835	-0.281376
O	 0.2547479714	-1.9130682998	-1.2818461279	-0.24797
H	 0.2444691109	 1.8115256014	 1.0341003463	 0.132081
H	 0.3938343528	 1.9742178985	-0.72103856	 0.144166
H	-1.1927871426	 1.6136989743	 0.0027250659	 0.123216
H	-1.0456635661	-0.9241839126	 1.4296804269	 0.122825
H	 0.4677017083	-1.7745779809	 1.0481553525	 0.165902
H	 0.5086276807	-0.2972583729	 2.0299564232	 0.127734
H	-0.2044468113	 0.950264644	-2.8127441495	 0.114753
H	-0.0355677796	-2.1556466009	-4.9333914691	 0.308101
71.8318	112.7779	157.376	166.0583	214.6387	247.6733	362.1022	393.9452	396.8198	456.866	544.4971	574.8501	674.4238	696.4017	740.918	752.2482	929.6459	938.9041	1021.2274	1048.0026	1088.3412	1129.3808	1162.2543	1175.5792	1223.5145	1250.7453	1315.8843	1386.5707	1449.1187	1468.9251	1486.9855	1493.8224	1501.7954	1511.7642	1557.7969	1597.9701	1664.9619	2987.1478	2993.8781	3083.7912	3087.8528	3124.94	3159.0078	3301.2006	3778.3982
CN(C)C1=CC(O)=NO1	CN(C)c1cc(O)no1	
InChI=1S/C5H8N2O2/c1-7(2)5-3-4(8)6-9-5/h3H,1-2H3,(H,6,8)	InChI=1S/C5H8N2O2/c1-7(2)5-3-4(8)6-9-5/h3H,1-2H3,(H,6,8)
