19
gdb 122401	5.97973	0.63855	0.61258	4.1831	73.41	-0.2709	0.0105	0.2814	1821.5661	0.157577	-460.184852	-460.175355	-460.174411	-460.220658	33.146	
C	-0.8008473387	 1.283508012	 0.7329410056	-0.386151
C	-0.0691173269	 0.1179122334	 0.0914048919	-0.029305
O	 0.7436137943	-0.5006029869	 1.0739624567	-0.249737
C	 1.4684524577	-1.6029449859	 0.5875516567	-0.073435
C	 2.3017495354	-2.1299539138	 1.7384443881	 0.111189
C	 1.5742658805	-2.9143660129	 2.8421516239	-0.416639
C	 2.3963881237	-4.0918828445	 2.3166231544	 0.44191
O	 2.548709906	-5.2453215337	 2.5522601306	-0.309913
O	 3.0255051303	-3.3448353569	 1.3453752166	-0.252933
H	-0.0890009347	 2.013336671	 1.1285810165	 0.129308
H	-1.4375669711	 1.7827998834	-0.0031967177	 0.119879
H	-1.4299607185	 0.9357294076	 1.5571252772	 0.128343
H	-0.7852202183	-0.6132604649	-0.3190338663	 0.091739
H	 0.5556316605	 0.464104236	-0.7484791793	 0.092606
H	 0.7975860865	-2.3983616001	 0.2203454503	 0.095488
H	 2.1273228838	-1.317024728	-0.2487662982	 0.104021
H	 3.0030570589	-1.3715988367	 2.0936849159	 0.108592
H	 1.8005941929	-2.63438269	 3.8717467476	 0.147411
H	 0.4949823177	-3.0196682293	 2.7196800594	 0.147628
45.3644	69.0325	91.086	119.0722	166.7637	244.2435	287.9628	320.9149	435.466	486.4309	518.3875	530.7007	764.9403	822.3048	831.0674	895.391	909.4936	961.2867	971.8531	1045.1679	1066.3782	1108.4671	1119.6839	1147.6176	1164.3985	1175.223	1198.5677	1220.8527	1253.2192	1297.2109	1298.6768	1364.6862	1396.1585	1410.9158	1454.628	1459.2275	1483.4704	1499.2789	1515.7435	1535.8066	1944.315	2955.5596	2966.8576	2989.0014	2993.9931	3046.6608	3092.6673	3095.8258	3121.9214	3123.2607	3151.1407
CCOCC1CC(=O)O1	CCOC[C@H]1CC(=O)O1	
InChI=1S/C6H10O3/c1-2-8-4-5-3-6(7)9-5/h5H,2-4H2,1H3	InChI=1S/C6H10O3/c1-2-8-4-5-3-6(7)9-5/h5H,2-4H2,1H3/t5-/m1/s1
