16
gdb 11069	3.41422	2.30955	1.94302	1.8463	58.68	-0.2513	0.0508	0.3022	739.0723	0.132442	-420.87426	-420.867904	-420.86696	-420.904366	25.647	
O	-0.023145268	 1.3545202706	 0.0038367503	-0.486009
C	 0.0114890055	-0.0433583465	 0.0030416974	 0.314647
C	 0.6474971609	-0.7201956028	 1.2403657145	-0.119616
O	 0.15732547	-2.0712126854	 1.1665995853	-0.264959
C	-0.6657200507	-2.1049229032	 0.0078643744	 0.209189
C	-1.3597541504	-0.7420075211	 0.0141525244	-0.286588
O	 0.1379696259	-2.0703282275	-1.1643375371	-0.264958
C	 0.6268848801	-0.7192535894	-1.2451839389	-0.119589
H	 0.8819844372	 1.6849351025	-0.0028319901	 0.285294
H	 1.7448191218	-0.7208406325	 1.2116084931	 0.096548
H	 0.3132154892	-0.2405606794	 2.1689566015	 0.105817
H	-1.2446001832	-3.0259381466	 0.0123265639	 0.096899
H	-1.9389592737	-0.549975421	 0.9186544044	 0.115475
H	-1.9538958318	-0.5492879558	-0.8804611718	 0.11548
H	 0.2772587595	-0.2388962652	-2.16772684	 0.105824
H	 1.7245303477	-0.7199350868	-1.2346328613	 0.096545
192.5066	266.1031	308.1496	362.2317	425.901	494.0152	500.71	577.6188	622.7547	785.3554	818.0803	895.2535	922.7346	949.0917	958.4601	960.6266	1014.8255	1028.463	1075.1348	1096.0505	1123.2871	1176.5282	1188.5582	1233.3815	1255.0587	1268.6793	1305.4528	1318.5748	1357.8659	1370.4241	1415.7281	1491.175	1517.5694	1536.1694	3009.0814	3013.0159	3052.1477	3057.3912	3084.0183	3147.3163	3157.8375	3802.204
OC12COC(C1)OC2	O[C@@]12CO[C@@H](C1)OC2	
InChI=1S/C5H8O3/c6-5-1-4(7-2-5)8-3-5/h4,6H,1-3H2	InChI=1S/C5H8O3/c6-5-1-4(7-2-5)8-3-5/h4,6H,1-3H2/t4-,5-
