18
gdb 10865	3.5884	1.72738	1.48088	1.9016	63.79	-0.2472	0.0832	0.3303	916.2598	0.154334	-422.084142	-422.076414	-422.07547	-422.115837	29.589	
C	 0.0526991069	 1.4831511596	 0.0344241704	-0.40708
C	 0.0764927141	-0.02871679	 0.0106215558	 0.220706
O	 0.7609086291	-0.4474269936	-1.1507048529	-0.260993
C	 0.8122693413	-1.8686471205	-1.2479011629	-0.109684
C	 1.5043478502	-2.4406751097	-0.0053009949	 0.127574
O	 2.8726418882	-2.0770607279	 0.0222371411	-0.438061
C	 0.772884279	-1.9083287171	 1.2323658856	-0.109682
O	 0.7238738484	-0.4847066704	 1.1791266031	-0.260998
H	 1.0762304134	 1.8656378642	 0.0560263516	 0.132691
H	-0.4491449355	 1.862233723	-0.8584369672	 0.128883
H	-0.4761222174	 1.8336917242	 0.9233660487	 0.1289
H	-0.947747158	-0.4510253897	-0.0124215483	 0.057184
H	-0.2042671308	-2.2827439047	-1.3519522323	 0.087699
H	 1.3850067586	-2.1008635131	-2.1484009358	 0.120012
H	 1.469429251	-3.5355588859	-0.0233606559	 0.086851
H	 2.8897788315	-1.112195168	 0.0379549518	 0.288291
H	-0.2462247816	-2.3250500264	 1.2907943332	 0.087697
H	 1.3168731817	-2.169526454	 2.1426983687	 0.120011
124.954	178.4921	211.7324	241.1129	314.7595	368.1839	386.1944	423.1803	526.5908	532.6035	590.2983	810.0337	828.4411	862.0786	870.3657	900.2368	998.8096	998.8264	1060.3398	1097.1318	1105.7676	1129.8707	1173.4654	1181.7028	1257.4717	1261.0043	1327.1614	1332.8107	1369.5952	1389.6781	1404.7948	1405.036	1429.5254	1437.9898	1479.6911	1481.4377	1491.3468	1493.639	2908.3496	2969.7593	2980.256	3058.8334	3061.8595	3107.535	3108.9967	3138.8788	3143.4119	3790.6641
CC1OCC(O)CO1	C[C@H]1OC[C@@H](O)CO1	
InChI=1S/C5H10O3/c1-4-7-2-5(6)3-8-4/h4-6H,2-3H2,1H3	InChI=1S/C5H10O3/c1-4-7-2-5(6)3-8-4/h4-6H,2-3H2,1H3/t4-,5+
