15
gdb 124361	5.15024	0.99253	0.83656	1.1846	70.	-0.229	-0.0036	0.2255	1303.727	0.113825	-450.163897	-450.155641	-450.154697	-450.198309	29.134	
C	-0.1644949139	 1.5456399567	-0.0085566652	-0.495032
C	 0.1083119986	 0.0528314883	-0.0269334039	 0.401659
O	 1.2220159836	-0.4172747061	-0.1679169632	-0.358534
N	-1.0074566925	-0.7374501751	 0.1014498633	-0.425262
C	-0.9980115929	-2.1256989975	 0.0655070234	 0.4101
C	 0.037973403	-3.0205439098	-0.0815551626	-0.155829
N	-0.5996838547	-4.218909012	-0.0337540145	-0.152328
N	-1.9212958976	-4.0867907911	 0.1292016812	-0.112396
N	-2.1694161301	-2.806111871	 0.190642644	-0.280635
H	 0.6831400453	 2.0490585296	 0.4581707153	 0.157642
H	-0.2453152653	 1.9098193761	-1.038256481	 0.156573
H	-1.0837642319	 1.8078342576	 0.5218259926	 0.124881
H	-1.9176796944	-0.3197477398	 0.2176118599	 0.265596
H	 1.0958132619	-2.8923722841	-0.2055267939	 0.178007
H	-0.2032410391	-5.1424648518	-0.1039037054	 0.28556
30.0254	85.8001	100.1984	162.1759	353.0214	358.4369	368.2601	521.3659	580.4714	581.94	630.7705	691.1262	733.7111	789.9162	800.3219	965.7545	987.2935	1004.5642	1046.6398	1050.8407	1073.3563	1134.5868	1237.7935	1277.4653	1315.5127	1350.8982	1396.6463	1461.8137	1475.2159	1486.9696	1564.5566	1623.3317	1778.5969	3047.4642	3114.7258	3150.9284	3334.7731	3636.4815	3659.812
CC(=O)NC1=CNN=N1	CC(=O)Nc1c[nH]nn1	
InChI=1S/C4H6N4O/c1-3(9)6-4-2-5-8-7-4/h2H,1H3,(H2,5,6,7,8,9)	InChI=1S/C4H6N4O/c1-3(9)6-4-2-5-8-7-4/h2H,1H3,(H2,5,6,7,8,9)
