22
gdb 76329	1.89612	1.72076	1.19027	2.4984	82.75	-0.2123	-0.0182	0.1941	1181.5395	0.190562	-404.352062	-404.34141	-404.340466	-404.386958	39.02	
C	-1.0160316527	 1.1793038626	-0.4786789672	-0.413312
C	-0.300292482	-0.175435554	-0.4349331133	-0.078832
N	 0.7591421255	-0.4728565189	-1.4305571186	-0.111929
C	 0.7987236753	 0.181491989	-2.7178376918	-0.33779
C	 1.8849807045	-0.3715415556	-0.4541098798	 0.178694
C	 2.7579814322	-1.6254070691	-0.4042349809	-0.417688
C	 2.7438007937	 0.901285578	-0.518756883	-0.437071
C	 0.7971240981	-0.2781107238	 0.6372826205	 0.362203
O	 0.8121942272	-0.2589037237	 1.8327437531	-0.31009
H	-0.3162287108	 2.0200990659	-0.4850380376	 0.12374
H	-1.6528746698	 1.2580269509	-1.3652606214	 0.124507
H	-1.6534285852	 1.2772865444	 0.4051357873	 0.137622
H	-1.0540482068	-0.9733774059	-0.3761768809	 0.096898
H	 0.8682754109	 1.2823127642	-2.6838389266	 0.097174
H	 1.6577730625	-0.1877984548	-3.2879716389	 0.123121
H	-0.1008491852	-0.0770693996	-3.2871228479	 0.123022
H	 3.3904641113	-1.6880345042	-1.2969935478	 0.11472
H	 3.410479348	-1.6048633913	 0.4745006438	 0.126198
H	 2.1394556966	-2.5251476513	-0.362430232	 0.121104
H	 2.1380923734	 1.8115702551	-0.5374584453	 0.121497
H	 3.3967667429	 0.9506367366	 0.3574319441	 0.135413
H	 3.3766534803	 0.8948331254	-1.4126195558	 0.120797
79.548	161.4222	178.8273	194.6905	200.7563	203.5133	210.7512	218.195	254.4128	274.8613	332.9758	383.6347	468.7618	557.5633	599.8428	663.9393	724.6536	755.7385	840.7391	932.3785	944.2341	978.7014	1003.1747	1050.2198	1074.4031	1089.9494	1146.4915	1164.6444	1185.4084	1207.5107	1258.7523	1286.4633	1298.6452	1347.6577	1387.1026	1397.2234	1407.7351	1455.3869	1474.6672	1478.2548	1485.7307	1490.916	1495.3768	1500.2625	1505.8603	1510.3859	1905.8466	2953.0812	2998.1927	3031.2836	3036.5459	3039.9037	3052.9441	3091.8212	3099.5395	3106.2589	3110.6354	3115.7616	3119.3147	3123.5286
CC1N(C)C(C)(C)C1=O	C[C@H]1N(C)C(C)(C)C1=O	
InChI=1S/C7H13NO/c1-5-6(9)7(2,3)8(5)4/h5H,1-4H3	InChI=1S/C7H13NO/c1-5-6(9)7(2,3)8(5)4/h5H,1-4H3/t5-/m1/s1
