15
gdb 26824	3.41475	1.1552	0.86887	5.2346	78.21	-0.216	-0.0679	0.148	1266.4521	0.11198	-453.991691	-453.983015	-453.982071	-454.02533	30.672	
C	 0.1793219086	 1.4695367119	-0.0219136022	-0.505468
C	-0.0383533217	 0.0031733339	-0.0008868047	 0.280924
C	-1.1485487883	-0.8042073161	 0.102488455	 0.193246
N	-2.4807198886	-0.449818218	 0.2748073477	-0.601812
N	-0.7611796719	-2.1185529935	 0.0840513285	-0.318308
C	 0.5392827731	-2.0828586808	-0.0311750166	 0.278244
O	 1.0423229231	-0.8238245765	-0.0964134016	-0.192136
C	 1.5126045899	-3.1745837305	-0.1041466739	 0.079944
O	 1.2321885654	-4.348375136	-0.0575520532	-0.254809
H	 0.9639658157	 1.762321743	 0.6838175689	 0.152028
H	 0.475255295	 1.8337360362	-1.0135193738	 0.145229
H	-0.7412448551	 1.9827207962	 0.2679640538	 0.141272
H	-2.7804078591	 0.3405426375	-0.278575113	 0.251366
H	-3.0926389674	-1.2426407911	 0.1343270331	 0.262756
H	 2.5563487015	-2.8107599861	-0.2099627479	 0.087524
90.3414	111.072	170.3853	198.2358	224.1715	249.9169	261.6314	380.5907	418.6683	509.952	637.4018	660.684	694.3359	735.7792	760.5685	838.3378	989.1624	1018.6378	1025.6527	1059.0953	1100.1126	1179.1	1271.7796	1297.1478	1408.3588	1432.1744	1456.7539	1473.6205	1489.7825	1554.1245	1640.8339	1666.4121	1798.6911	2913.9769	3025.4162	3080.9204	3121.4794	3556.1686	3652.2545
CC1=C(N)N=C(O1)C=O	Cc1c(N)nc(o1)C=O	
InChI=1S/C5H6N2O2/c1-3-5(6)7-4(2-8)9-3/h2H,6H2,1H3	InChI=1S/C5H6N2O2/c1-3-5(6)7-4(2-8)9-3/h2H,6H2,1H3
