21
gdb 62039	4.23522	0.71591	0.66974	0.9174	85.86	-0.2495	0.0559	0.3054	1733.1901	0.179568	-387.034241	-387.024	-387.023056	-387.070352	37.355	
C	-0.6696350883	 1.2132078666	-0.1085742427	-0.385386
C	-0.0156157375	-0.1800890312	-0.0370063385	-0.16424
C	 0.7204910119	-0.5305277964	-1.3406566974	-0.056112
O	-0.2329207007	-0.5519846139	-2.3873710272	-0.252521
C	 0.319628625	-0.8476092225	-3.6316660177	 0.1492
C	-0.4051192343	-0.3171243761	-4.824009915	-0.28808
C	 0.9453256931	 0.2592226919	-4.4424613419	-0.287541
C	 0.9039344172	-0.2873720898	 1.0931094877	 0.312831
C	 1.6778828578	-0.360118411	 2.010197991	-0.470981
H	 0.093874815	 1.9898849781	-0.217916733	 0.120575
H	-1.3429543136	 1.2604207682	-0.966713716	 0.132331
H	-1.2365128165	 1.4214212166	 0.8021428349	 0.122893
H	-0.8103711457	-0.9280329944	 0.0863450208	 0.115285
H	 1.5054018089	 0.2138715145	-1.5430416207	 0.099779
H	 1.2084632179	-1.5118846163	-1.2425225647	 0.098726
H	 0.7674214389	-1.8403713439	-3.6958376904	 0.084535
H	-0.4805540386	-0.9437218818	-5.7053761772	 0.115082
H	-1.2767974866	 0.2952314807	-4.6237740136	 0.12541
H	 0.9480646193	 1.2487813464	-3.9991997117	 0.119942
H	 1.8071886024	 0.0329558934	-5.0604350265	 0.113813
H	 2.3514136043	-0.4310873091	 2.8279475097	 0.194456
48.0041	52.9136	104.5174	146.0406	186.2788	217.5957	255.2084	298.336	359.7836	427.8231	456.7538	530.9865	553.3507	627.2111	643.0269	756.2534	813.1968	818.8335	852.6014	931.7504	938.634	971.3	983.0734	1047.9079	1071.8797	1083.5188	1102.6022	1123.3865	1128.0129	1170.6219	1193.6261	1203.8612	1244.3581	1260.0325	1307.838	1343.79	1374.8812	1398.6402	1432.028	1453.8964	1493.6732	1496.6057	1501.7453	1520.4249	2236.2049	2982.2313	3012.1777	3029.2157	3047.3782	3090.1663	3118.6359	3136.1082	3139.5745	3142.6615	3220.44	3235.0691	3504.7442
CC(COC1CC1)C#C	C[C@@H](COC1CC1)C#C	
InChI=1S/C8H12O/c1-3-7(2)6-9-8-4-5-8/h1,7-8H,4-6H2,2H3	InChI=1S/C8H12O/c1-3-7(2)6-9-8-4-5-8/h1,7-8H,4-6H2,2H3/t7-/m1/s1
