21
gdb 86746	3.44101	1.14901	1.01392	1.3836	84.14	-0.2328	0.0178	0.2506	1275.0318	0.182566	-387.0854	-387.076674	-387.07573	-387.119219	33.394	
C	 0.4465881237	 1.6744862663	-0.1038705755	-0.388453
C	-0.0445107974	 0.2300956559	 0.0124648954	 0.091989
O	 0.4446005113	-0.5484519142	-1.0890658291	-0.289986
C	 1.237011043	-1.6489747831	-0.6332078008	 0.047875
C	 1.1884032089	-1.5436886265	 0.8703640372	-0.08873
C	 0.4534507243	-0.5004101049	 1.2319850822	-0.10208
C	 0.7127565887	-2.9689274098	-1.1810585823	 0.006545
C	-0.7646934366	-3.225930299	-1.2954108509	-0.260087
C	 0.0678730237	-3.0277103349	-2.5400400997	-0.268309
H	 1.5383494663	 1.7144233184	-0.0473197992	 0.119903
H	 0.1300453943	 2.1036949338	-1.0586583127	 0.124812
H	 0.0318729193	 2.2880617444	 0.7032329611	 0.109803
H	-1.1461227641	 0.2314768369	-0.026597158	 0.080953
H	 2.2690806134	-1.5158448717	-1.0016857	 0.079893
H	 1.6893935362	-2.2477947142	 1.5229342468	 0.103467
H	 0.2295069299	-0.1767435635	 2.240924618	 0.103062
H	 1.3364586129	-3.8151617572	-0.9029247674	 0.077438
H	-1.1349711065	-4.2193515221	-1.0675432124	 0.10366
H	-1.433603467	-2.4192416432	-1.0181067287	 0.117895
H	-0.0548182404	-2.0884794061	-3.0661218251	 0.126536
H	 0.2733838963	-3.8850144352	-3.1716800487	 0.103815
63.2684	81.3649	149.4312	205.4137	236.0453	289.7598	363.138	410.8586	513.4741	561.7136	720.0988	747.8803	784.0999	792.1908	812.183	839.5787	859.6404	892.215	930.0648	957.9469	987.6927	999.0118	1033.3669	1060.5961	1070.0952	1084.5079	1095.1139	1121.6843	1134.0014	1136.2199	1159.583	1198.892	1230.9292	1287.6479	1339.5896	1341.6791	1367.923	1380.2525	1399.8398	1402.1347	1456.6953	1486.2207	1494.3482	1500.9686	1693.0659	2943.8261	2963.5645	3035.9369	3109.0237	3120.9575	3133.1416	3136.0725	3141.8617	3201.62	3218.5967	3226.6843	3233.3948
CC1OC(C=C1)C1CC1	C[C@H]1O[C@@H](C=C1)C1CC1	
InChI=1S/C8H12O/c1-6-2-5-8(9-6)7-3-4-7/h2,5-8H,3-4H2,1H3	InChI=1S/C8H12O/c1-6-2-5-8(9-6)7-3-4-7/h2,5-8H,3-4H2,1H3/t6-,8+/m1/s1
