23
gdb 72127	2.08413	1.91544	1.70104	0.1778	88.9	-0.2514	0.0882	0.3396	1019.8065	0.207294	-351.141026	-351.13293	-351.131986	-351.172761	33.821	
C	 0.0358950472	 1.5461709846	-0.0569393999	-0.510881
C	 0.0003762832	 0.0388258065	-0.0639930507	 0.336345
C	 0.4327263674	-0.8168849435	-1.2650619978	-0.294794
C	-0.3174405571	-1.9510497883	-0.5202883864	-0.080083
C	 0.608653523	-2.1611209525	 0.6957683131	-0.211018
C	 0.3725276197	-0.7509452822	 1.2756921262	-0.080104
C	-1.1416623965	-0.819662549	 1.6019000892	-0.294814
C	-1.305708332	-0.8433188572	 0.0740997919	 0.336341
C	-2.6125179775	-0.5774103105	-0.6294253349	-0.510879
H	 1.0694442872	 1.9132815627	-0.0697266792	 0.11579
H	-0.471262638	 1.961361707	-0.9354230013	 0.112793
H	-0.4461290163	 1.9634841742	 0.8343204558	 0.114361
H	-0.0761076932	-0.4910690061	-2.177628472	 0.089896
H	 1.4979434081	-0.9623877338	-1.4777101757	 0.081072
H	-0.6962959527	-2.829054243	-1.0444685116	 0.053669
H	 0.285186947	-2.9507483662	 1.3807617925	 0.08733
H	 1.6427280188	-2.3622296741	 0.3997422043	 0.087363
H	 1.0955428827	-0.3530046881	 1.9884884422	 0.053667
H	-1.49715024	-1.6640954634	 2.203263275	 0.081081
H	-1.5346758733	 0.1120884072	 2.0205012053	 0.089911
H	-3.0712309246	 0.35477983	-0.2802350499	 0.112797
H	-2.4853330812	-0.4999462648	-1.7150885343	 0.114366
H	-3.329086572	-1.3866522694	-0.442840602	 0.115792
178.629	202.8686	208.4409	260.5519	274.8127	311.7754	442.936	457.0884	481.2313	577.2044	605.6174	676.3239	687.2403	793.5195	836.5037	871.3892	884.4057	902.3332	926.1046	938.4349	957.7969	985.3045	989.2849	1016.4899	1059.8982	1071.8988	1088.8698	1133.6639	1166.0231	1169.8127	1183.195	1202.5671	1219.1951	1222.3986	1242.6413	1250.6161	1286.5413	1308.4822	1325.026	1339.0284	1409.8567	1414.3343	1486.6941	1489.0536	1490.3209	1490.9706	1497.6282	1502.5876	1520.4827	3017.5785	3018.6072	3031.339	3032.7099	3046.1246	3077.2967	3078.2841	3082.9832	3085.3393	3089.0214	3089.5482	3091.4381	3105.8958	3107.4157
CC12CC3CC1CC23C	C[C@@]12C[C@H]3C[C@@H]1C[C@@]23C	
InChI=1S/C9H14/c1-8-4-7-3-6(8)5-9(7,8)2/h6-7H,3-5H2,1-2H3	InChI=1S/C9H14/c1-8-4-7-3-6(8)5-9(7,8)2/h6-7H,3-5H2,1-2H3/t6-,7-,8-,9-/m1/s1
