14
gdb 13308	6.05903	1.23484	1.08376	4.9281	62.15	-0.2683	0.0026	0.2709	1023.6104	0.108842	-378.746973	-378.739827	-378.738883	-378.779384	24.888	
N	-0.0930634649	-1.1734336912	 0.0209250973	-0.301476
C	-0.034002491	-0.0214597902	 0.0808795198	 0.278793
C	 0.0267458849	 1.4372498973	 0.1274085295	-0.348551
C	 1.4620703091	 1.9855753633	-0.0064528263	 0.009873
C	 1.5126016333	 3.5391652925	-0.0403005504	-0.129602
O	 2.3623034226	 3.8872818465	 1.0774129356	-0.214371
C	 2.6960555244	 2.7094425522	 1.6541094312	 0.128318
N	 2.2770084181	 1.6189805757	 1.1641358805	-0.256928
H	-0.5952878606	 1.8340953873	-0.6837003739	 0.152051
H	-0.4081598774	 1.783122529	 1.0717682839	 0.15711
H	 1.9150545119	 1.5505647792	-0.9031126411	 0.116335
H	 1.9624290607	 3.9399530467	-0.9511909813	 0.132577
H	 0.5362651238	 4.0103001972	 0.1133959288	 0.122531
H	 3.3259503553	 2.8040114444	 2.5314758763	 0.15334
57.5852	88.7755	146.3439	315.4598	346.6555	392.3863	481.8342	595.9999	738.4509	828.2315	878.9554	907.2449	949.3677	970.0211	971.8562	1038.1399	1049.1625	1111.1263	1136.3738	1213.632	1241.5912	1298.0962	1316.554	1328.2112	1376.7799	1384.9789	1459.5588	1516.7305	1704.847	2368.1606	3039.7985	3051.6397	3053.0921	3087.0516	3109.9305	3221.6889
N#CCC1COC=N1	N#CC[C@H]1COC=N1	
InChI=1S/C5H6N2O/c6-2-1-5-3-8-4-7-5/h4-5H,1,3H2	InChI=1S/C5H6N2O/c6-2-1-5-3-8-4-7-5/h4-5H,1,3H2/t5-/m0/s1
