20
gdb 10526	2.67068	1.52571	1.14246	2.162	71.63	-0.251	0.079	0.3299	1132.2011	0.175052	-386.115832	-386.106478	-386.105533	-386.150408	33.941	
C	-0.4769776769	 1.0854296892	 2.8487791693	-0.38377
C	-0.2578073101	-0.4120201951	 2.7156638948	-0.057245
O	 0.528036225	-0.6390459039	 1.5479226162	-0.302964
C	 0.9080873292	-1.9763667914	 1.3266258151	 0.404311
C	-0.2175556863	-2.820053641	 0.768806742	-0.109317
O	-0.7584291174	-2.2379120437	-0.4028313257	-0.425543
C	 2.2992415171	-2.1410155781	 0.7993857924	-0.306306
C	 1.9658149168	-2.5781079126	 2.2133612892	-0.32993
H	-1.0001444888	 1.4790829833	 1.9724398425	 0.125526
H	-1.0779529888	 1.3036601877	 3.7365671223	 0.117697
H	 0.4797113543	 1.6077419722	 2.9380436135	 0.127292
H	 0.263179261	-0.8110382788	 3.5976848413	 0.094901
H	-1.222781148	-0.9345819917	 2.6428937634	 0.097385
H	 0.1575500993	-3.8139740518	 0.5031434318	 0.10205
H	-0.9983465913	-2.9630761141	 1.5347065411	 0.083004
H	-0.762195279	-1.2861089071	-0.2437022056	 0.286134
H	 2.4745036927	-2.8985283414	 0.0437789233	 0.119376
H	 2.8848201205	-1.236069037	 0.6880521192	 0.123251
H	 2.3451964072	-1.9639756613	 3.0223858674	 0.118627
H	 1.9163853433	-3.6386615236	 2.4371832565	 0.115521
45.1528	73.473	138.7382	189.4159	214.2687	248.6858	308.5571	352.457	389.7675	415.2252	449.5281	578.1414	745.1331	774.9168	818.0573	867.1267	910.7983	913.1928	974.3945	993.3482	1050.434	1051.2275	1075.7007	1079.0195	1091.7479	1145.1531	1186.2387	1186.8605	1200.8729	1292.9908	1296.3465	1340.062	1358.5192	1399.7197	1422.4665	1445.5598	1454.5408	1483.7369	1496.4952	1499.6069	1514.1977	1528.2602	2961.0994	2991.9939	3023.7906	3044.7241	3069.2414	3118.8213	3121.9345	3132.1844	3141.685	3216.3062	3234.5227	3782.7069
CCOC1(CO)CC1	CCOC1(CO)CC1	
InChI=1S/C6H12O2/c1-2-8-6(5-7)3-4-6/h7H,2-5H2,1H3	InChI=1S/C6H12O2/c1-2-8-6(5-7)3-4-6/h7H,2-5H2,1H3
