18
gdb 51778	3.1114	0.86874	0.71893	2.1895	74.68	-0.2433	-0.0445	0.1988	1519.7532	0.144858	-439.069225	-439.05987	-439.058926	-439.105058	32.215	
O	-0.4354633541	 0.0785133125	 0.2431818515	-0.230877
C	-0.1032472201	 1.2051695426	-0.0124408307	 0.157108
C	 1.3409733485	 1.6695272255	-0.1361619239	-0.244587
N	 1.4740565446	 2.6938440969	-1.1465070879	-0.098396
C	 1.5583138053	 2.3100885251	-2.5723131239	-0.166919
C	 2.5566182613	 3.4707292921	-2.7879864786	-0.257201
C	 2.7218090264	 3.4738116531	-1.2358909801	-0.039638
C	 2.6699420043	 4.8301984717	-0.5676712688	 0.154064
O	 3.6156817713	 5.384340676	-0.0714504569	-0.240732
H	-0.8436285936	 2.021501772	-0.1706445578	 0.085918
H	 1.6098546677	 2.1067375621	 0.8371152834	 0.136588
H	 1.9879536247	 0.7891998555	-0.2919547273	 0.111236
H	 2.0228083315	 1.3233353849	-2.7242549485	 0.102085
H	 0.6091078821	 2.3406878802	-3.1161864644	 0.114979
H	 3.456424394	 3.2672709298	-3.3661919169	 0.127415
H	 2.078577214	 4.3795489695	-3.1596167028	 0.123337
H	 3.6258610283	 2.9381597138	-0.9127785197	 0.085752
H	 1.6570136039	 5.2941867166	-0.5993024167	 0.07987
47.0718	72.0946	74.8688	127.1967	170.2693	226.605	308.7628	363.058	393.8682	478.4268	502.8631	689.8163	752.7039	817.3733	875.5027	909.8471	960.4117	988.5874	1029.2558	1060.5047	1080.7152	1133.2159	1148.2354	1162.2328	1208.6588	1220.9002	1249.7897	1260.3195	1270.2225	1311.7146	1336.1637	1349.8932	1402.2896	1408.6412	1455.916	1485.4826	1524.2363	1833.2771	1840.9561	2872.9871	2885.734	2962.3294	2984.8841	3008.6823	3028.082	3069.0717	3086.7163	3154.9652
O=CCN1CCC1C=O	O=CCN1CC[C@H]1C=O	
InChI=1S/C6H9NO2/c8-4-3-7-2-1-6(7)5-9/h4-6H,1-3H2	InChI=1S/C6H9NO2/c8-4-3-7-2-1-6(7)5-9/h4-6H,1-3H2/t6-/m0/s1
