21
gdb 73309	3.13535	1.52495	1.33638	1.5073	81.83	-0.2327	0.0948	0.3275	1067.6054	0.182754	-387.07756	-387.069399	-387.068455	-387.109465	33.103	
C	-0.0059768421	 1.4457470802	 0.0414182913	-0.496391
C	-0.0005962699	-0.0620530487	-0.0134371839	 0.32534
C	 0.9665281714	-0.7617346704	-0.9687108196	-0.153373
O	 0.3550630263	-2.0055903754	-1.3095696635	-0.299242
C	-0.6781077226	-2.2452871854	-0.3535626576	 0.412995
C	-1.5546644085	-3.3715129838	-0.8394912596	-0.478715
C	-0.0726943334	-2.3184243768	 1.0937051377	-0.288611
C	-0.3913931875	-0.8314512808	 1.2430810383	-0.118696
C	-1.2738123026	-0.8534954885	-0.0000751722	-0.170076
H	 0.9564565268	 1.8344838744	 0.3941839	 0.120662
H	-0.1971302432	 1.8784100411	-0.9471977641	 0.120055
H	-0.7785888561	 1.8140822221	 0.7234808528	 0.119936
H	 1.1117198448	-0.1796155169	-1.8876546046	 0.097061
H	 1.9547548823	-0.9283260789	-0.5151045067	 0.092041
H	-0.9700500146	-4.2907559618	-0.9449839007	 0.126422
H	-2.3702832111	-3.5584960089	-0.1356153501	 0.116241
H	-1.9832868385	-3.1261465798	-1.8161391257	 0.124088
H	-0.6910056805	-2.9295658297	 1.7578119602	 0.097853
H	 0.9693140459	-2.6484803294	 1.1641564155	 0.09287
H	-0.5636545613	-0.3050509947	 2.1753957774	 0.079348
H	-2.2690148255	-0.4711868778	-0.188303765	 0.080191
192.9943	204.2479	214.026	217.4762	266.6157	313.7182	360.3416	418.7149	457.5051	559.9924	610.7307	664.0972	735.9662	816.3581	841.6034	861.4673	880.4796	903.0581	941.274	970.4735	982.0163	1007.3562	1022.6527	1036.5094	1070.6553	1101.0543	1127.6202	1156.6768	1164.2559	1189.7064	1219.217	1238.7828	1252.9514	1295.8909	1330.1155	1361.9493	1414.3048	1420.2551	1422.8857	1481.448	1485.2917	1491.5189	1493.6596	1503.0079	1523.2468	2989.7184	3024.3201	3035.4953	3037.1209	3040.7222	3082.8149	3092.2735	3100.5067	3110.0643	3119.4449	3169.2627	3193.9936
CC12COC3(C)CC1C23	C[C@@]12CO[C@@]3(C)C[C@@H]1[C@@H]23	
InChI=1S/C8H12O/c1-7-4-9-8(2)3-5(7)6(7)8/h5-6H,3-4H2,1-2H3	InChI=1S/C8H12O/c1-7-4-9-8(2)3-5(7)6(7)8/h5-6H,3-4H2,1-2H3/t5-,6+,7-,8+/m1/s1
