21
gdb 100014	2.50861	1.24278	1.16276	2.5455	73.58	-0.2547	0.0732	0.3278	1196.1128	0.179843	-461.346185	-461.336214	-461.33527	-461.380341	38.189	
C	-0.2054924552	 1.6345448375	-0.0865714945	-0.410542
C	-0.0821864033	 0.1112541548	-0.0737958038	 0.26072
O	 0.6183737956	-0.2383790077	 1.1243130653	-0.48147
C	-1.4733789042	-0.561739119	 0.0103687548	-0.086056
O	-2.0873657022	-0.2750821812	 1.2470092911	-0.427146
C	 0.7080029612	-0.4109577601	-1.2865867609	 0.365471
C	 0.0216617953	-0.4127494209	-2.6342946506	-0.480264
C	 2.1755060002	-0.3985708888	-1.2198643355	-0.229013
O	 1.443698525	-1.6170286351	-0.9882987607	-0.30151
H	 0.7805851385	 2.0988076582	-0.0071585697	 0.119379
H	-0.6873632205	 1.9829169684	-1.0043856833	 0.114792
H	-0.8174070078	 1.9538906756	 0.7598094742	 0.139328
H	 0.9860809448	-1.1200020004	 0.9557398247	 0.291562
H	-2.1406321932	-0.1920531342	-0.7745865374	 0.103657
H	-1.3496447753	-1.6486489895	-0.1363072427	 0.087177
H	-1.3853489297	-0.3854112188	 1.9031094217	 0.285398
H	-0.2950561377	 0.5960554347	-2.9158106574	 0.131529
H	 0.7022840793	-0.7871829987	-3.4024257889	 0.13033
H	-0.863108344	-1.0558298466	-2.6270745325	 0.13997
H	 2.7517766806	-0.3816008768	-2.142956547	 0.117751
H	 2.6720247925	 0.0089422085	-0.3432192971	 0.128936
81.6373	142.4804	175.5307	202.1258	211.0758	257.217	297.4323	334.374	360.064	378.3598	413.309	443.2564	504.5433	532.6716	545.8644	621.3044	723.0998	794.7259	857.5397	908.8257	926.7081	940.6387	966.0468	1019.3128	1081.5873	1091.4561	1127.4198	1138.0034	1162.3716	1178.5954	1200.2789	1232.3281	1286.1767	1355.5346	1381.7702	1398.3921	1418.846	1427.9922	1442.4735	1482.9427	1485.5331	1496.0001	1500.3696	1509.574	1518.7307	2956.702	3047.1864	3052.5453	3076.0967	3099.1051	3115.2924	3125.1585	3128.5215	3136.9018	3193.8448	3704.7653	3751.2212
CC(O)(CO)C1(C)CO1	C[C@@](O)(CO)[C@@]1(C)CO1	
InChI=1S/C6H12O3/c1-5(8,3-7)6(2)4-9-6/h7-8H,3-4H2,1-2H3	InChI=1S/C6H12O3/c1-5(8,3-7)6(2)4-9-6/h7-8H,3-4H2,1-2H3/t5-,6-/m1/s1
