13
gdb 129086	3.92207	1.19619	0.91663	2.4527	74.78	-0.2611	-0.0971	0.164	1163.5097	0.089124	-452.721879	-452.714569	-452.713625	-452.754115	26.655	
N	-0.061652066	 1.3253715125	-0.1549381739	-0.510549
C	-0.027888917	 0.0523810836	 0.0079708727	 0.280355
C	 1.1845762347	-0.7710300815	 0.1445417074	-0.017957
N	 1.249975346	-2.0427435342	 0.3081808203	-0.048131
O	 0.0527185419	-2.7477682399	 0.3666777933	-0.263216
C	-1.1215686246	-2.0855469691	 0.2516761579	 0.309863
C	-2.3175242915	-2.9664278488	 0.3326893262	 0.112674
O	-2.2804509082	-4.1584924028	 0.4853788465	-0.242533
C	-1.2280176985	-0.7534985538	 0.0792497389	-0.232496
H	 0.8840118638	 1.7142088177	-0.179675883	 0.222988
H	 2.1600180565	-0.2891761316	 0.1087053966	 0.146102
H	-3.2687398461	-2.4015152851	 0.2355705102	 0.100365
H	-2.2013824208	-0.2853708571	-0.0058158431	 0.142535
93.6982	135.6865	189.5447	247.5793	381.0322	421.4049	463.0075	514.2717	556.1352	678.5392	723.9632	752.6657	853.9119	911.7449	925.878	945.561	958.775	1000.2007	1017.1069	1148.8389	1167.9625	1303.4853	1346.9124	1412.9716	1435.3874	1628.1355	1653.7634	1706.1205	1817.5307	2912.5945	3159.3895	3213.2481	3443.9863
N=C1C=NOC(C=O)=C1	[NH]C1=C[C](ON=C1)C=O	
InChI=1S/C5H4N2O2/c6-4-1-5(3-8)9-7-2-4/h1-3,6H	InChI=1S/C5H4N2O2/c6-4-1-5(3-8)9-7-2-4/h1-3,6H
