20
gdb 47430	3.18016	1.31462	1.02892	3.5826	80.11	-0.2214	0.0315	0.2529	1206.8801	0.172982	-403.180746	-403.172369	-403.171425	-403.214474	31.626	
O	-0.1291220968	-0.0283046096	-0.159166442	-0.411184
C	-0.096800223	 1.1824954694	-0.0363330981	 0.411306
C	-1.3031428086	 2.1224188303	-0.0058106907	-0.322631
C	-0.7304040663	 3.462151123	 0.4753774384	-0.228519
C	 0.7527020315	 3.3851211762	 0.065814545	-0.169789
N	 1.0313830533	 1.9534774052	 0.0667498122	-0.079372
C	 2.383878076	 1.4856536081	-0.0891271714	 0.059726
C	 2.836590514	 0.1093462223	 0.3188017401	-0.284831
C	 2.7993532264	 0.4913104547	-1.1458201218	-0.280707
H	-1.7028999108	 2.1856169303	-1.02504863	 0.127612
H	-2.0921393959	 1.7111681384	 0.6261902775	 0.129234
H	-1.229884326	 4.3340478974	 0.0484834584	 0.109106
H	-0.8056082698	 3.53363833	 1.564441834	 0.117254
H	 0.9237915123	 3.8195995414	-0.9310363173	 0.107095
H	 1.4109328921	 3.9070918701	 0.768711923	 0.112261
H	 3.0818513891	 2.2917363805	 0.11054296	 0.093605
H	 3.796084853	 0.032878889	 0.8189175781	 0.106256
H	 2.0775447632	-0.5858318036	 0.6480001102	 0.155059
H	 2.0116302775	 0.0360545375	-1.7324866197	 0.140306
H	 3.7285503988	 0.6716817894	-1.6753832859	 0.108211
41.4226	115.7336	153.174	195.2425	215.0258	372.0027	413.6998	449.9282	566.7877	615.4434	660.2604	724.9921	779.4812	810.8463	852.374	889.7514	906.0312	936.5685	945.8058	1004.25	1030.6588	1063.7098	1089.6532	1091.8153	1129.2653	1164.8345	1180.1605	1191.8881	1200.3509	1219.8865	1246.734	1258.9059	1304.6727	1323.4711	1345.2148	1415.2843	1447.382	1459.3454	1472.0798	1495.1653	1500.8824	1536.1219	1786.7434	2984.7927	3045.9932	3052.1659	3066.4622	3111.2974	3121.552	3140.7632	3145.6021	3161.2959	3237.9617	3259.5556
O=C1CCCN1C1CC1	O=C1CCCN1C1CC1	
InChI=1S/C7H11NO/c9-7-2-1-5-8(7)6-3-4-6/h6H,1-5H2	InChI=1S/C7H11NO/c9-7-2-1-5-8(7)6-3-4-6/h6H,1-5H2
