19
gdb 91112	2.78862	1.90934	1.537	1.5925	73.2	-0.2355	0.0804	0.3159	933.7506	0.161461	-423.021426	-423.014305	-423.013361	-423.052761	28.823	
C	-0.1335606752	 1.5408392786	-0.0579660938	-0.402958
C	 0.0093474381	 0.0345864202	 0.030807503	 0.130748
O	 0.7268720132	-0.4515618527	-1.1223743924	-0.276394
C	 1.3465917542	-1.6606674325	-0.7643323614	 0.085828
C	 2.6079901559	-1.5800037033	 0.0717383876	-0.111955
C	 3.02871892	-0.1975904886	 0.546314888	-0.09786
O	 2.006373075	 0.2607041468	 1.4366881009	-0.262596
C	 0.8240303972	-0.5050675717	 1.2255929148	 0.048126
C	 1.2736597524	-1.8826466386	 0.715961216	-0.131133
H	 0.8432967314	 2.0227795855	 0.0128173046	 0.136031
H	-0.6051320579	 1.8219015306	-1.0033589281	 0.123331
H	-0.7601131455	 1.9077086242	 0.7612602201	 0.114063
H	-0.9849826454	-0.4424378579	 0.0515459798	 0.066151
H	 1.2256612387	-2.4551050264	-1.4931030132	 0.096404
H	 3.360037417	-2.3519320952	-0.0442979217	 0.092908
H	 3.9727822146	-0.232788016	 1.1006227394	 0.104593
H	 3.1385051985	 0.5013621435	-0.2930850724	 0.108142
H	 0.2556009989	-0.5176916333	 2.1582964579	 0.08317
H	 1.013231809	-2.8087166529	 1.210198011	 0.093401
125.0119	196.0619	226.4173	255.8134	355.4954	498.4391	524.5084	612.4347	719.407	734.9277	780.3747	784.896	803.7532	831.2996	887.4165	931.2758	945.4533	968.5875	1013.2652	1013.766	1037.2992	1055.0138	1084.9044	1088.2364	1116.4572	1134.7911	1151.3838	1167.9806	1236.3753	1252.8751	1275.2148	1319.9087	1331.3883	1352.3252	1371.5238	1381.4025	1406.577	1415.1239	1485.8622	1492.8502	1514.6367	2962.202	3017.1314	3048.9017	3065.0895	3093.4475	3116.8257	3141.7686	3164.43	3180.0171	3202.6645
CC1OC2C3COC1C23	C[C@H]1O[C@H]2[C@H]3CO[C@@H]1[C@@H]23	
InChI=1S/C7H10O2/c1-3-6-5-4(2-8-6)7(5)9-3/h3-7H,2H2,1H3	InChI=1S/C7H10O2/c1-3-6-5-4(2-8-6)7(5)9-3/h3-7H,2H2,1H3/t3-,4+,5+,6+,7+/m1/s1
