21
gdb 65219	3.2036	1.24118	1.02719	1.6633	82.56	-0.2356	0.0292	0.2648	1227.5191	0.182725	-387.086627	-387.078019	-387.077075	-387.119914	33.382	
C	 0.0128726257	 1.5195111278	-0.4428600071	-0.459295
C	-0.0112730952	 0.0540177238	-0.0585964372	 0.39772
C	 1.1766897633	-0.7652912323	-0.3423076217	-0.235158
O	 0.9115852313	-0.2998395582	 0.9856985671	-0.271662
C	-1.3933339763	-0.5730097095	 0.0482421809	-0.034288
C	-1.4330765055	-2.0777854644	 0.4274115343	-0.286203
C	-2.702445924	-2.1971601253	 1.2360232276	-0.067747
C	-3.1764076195	-1.0081879341	 1.6011342109	-0.065346
C	-2.3124413552	 0.1224312673	 1.0981816983	-0.268561
H	 1.0398128897	 1.8908396585	-0.4798697436	 0.124203
H	-0.4485729782	 1.6697937623	-1.4251206533	 0.118585
H	-0.5402407798	 2.1237564116	 0.2828828002	 0.129572
H	 1.0837218353	-1.8398111962	-0.4869885385	 0.111769
H	 2.0370615503	-0.3091092648	-0.8312237806	 0.107271
H	-1.874010085	-0.4612162831	-0.9321295525	 0.077466
H	-1.4191858518	-2.7306121924	-0.4526119152	 0.096912
H	-0.5647543506	-2.347455268	 1.0436248787	 0.126116
H	-3.1272447907	-3.1556937105	 1.513280118	 0.090121
H	-4.0486831431	-0.8427024374	 2.2239145951	 0.089846
H	-1.7204942285	 0.5488364133	 1.9210066528	 0.11815
H	-2.8898283122	 0.9482014016	 0.6679218558	 0.100529
78.2489	101.9619	189.3654	203.8659	262.1886	338.3215	377.3231	403.3919	448.3541	524.3572	555.145	723.0648	751.0208	781.6468	831.8714	868.4344	919.0337	919.9648	952.156	973.7007	981.7113	984.8431	1012.0899	1048.042	1082.618	1109.2368	1131.5219	1137.3161	1162.041	1171.696	1211.1197	1244.7094	1293.849	1309.8052	1322.6199	1364.1576	1379.743	1393.0714	1415.4477	1481.5012	1485.6439	1489.9449	1497.4489	1535.9141	1691.4578	3005.6155	3018.0054	3019.7129	3037.3487	3055.9847	3061.3226	3085.237	3102.2309	3123.353	3170.7677	3180.2911	3205.9924
CC1(CO1)C1CC=CC1	C[C@]1(CO1)[C@H]1CC=CC1	
InChI=1S/C8H12O/c1-8(6-9-8)7-4-2-3-5-7/h2-3,7H,4-6H2,1H3	InChI=1S/C8H12O/c1-8(6-9-8)7-4-2-3-5-7/h2-3,7H,4-6H2,1H3/t8-/m0/s1
