17
gdb 32770	3.34932	1.03405	0.81489	2.5438	72.97	-0.1969	0.0272	0.224	1381.5429	0.136555	-455.170399	-455.161512	-455.160568	-455.204978	31.73	
C	 0.0155570602	 1.3897063302	-0.1828709159	-0.222333
O	-0.07577287	-0.0061342356	-0.3493027571	-0.246668
C	-1.2180353508	-0.5587266058	 0.2918416545	-0.198735
C	-1.1986977875	-2.0305300375	 0.1134910966	 0.21688
C	-2.1620642974	-2.9575621175	-0.1984367928	 0.262205
O	-3.4666689633	-2.7060588919	-0.4550351891	-0.439816
N	-1.6609433899	-4.226566037	-0.2122533884	-0.3444
C	-0.3812845592	-4.0905303802	 0.0837585043	 0.009479
N	-0.0562481672	-2.7958918443	 0.3077894451	-0.292283
H	 0.9259528052	 1.7204545845	-0.688421048	 0.127789
H	-0.8468768697	 1.9103047887	-0.6272241282	 0.109662
H	 0.0744952815	 1.672740195	 0.8804659039	 0.103645
H	-1.201306254	-0.271683069	 1.3597887539	 0.093889
H	-2.1515188146	-0.1587724501	-0.1323429709	 0.117829
H	-3.8681711528	-3.5587730748	-0.6611785644	 0.299829
H	 0.3392260924	-4.8918288141	 0.1412659453	 0.131704
H	 0.8630698773	-2.4121802505	 0.4505149613	 0.271325
40.2928	95.9048	117.2318	221.1596	243.7355	289.2659	347.6853	355.0875	372.7494	510.1296	526.5909	661.7676	685.6677	732.7226	792.1924	811.2648	960.6503	969.8686	1013.7385	1097.1515	1135.8289	1141.9334	1182.5954	1216.0748	1230.9802	1264.6292	1296.9831	1340.4586	1398.029	1421.7419	1479.5598	1485.3132	1497.9017	1503.8808	1519.7532	1522.7291	1693.3119	2923.9281	2970.9522	3005.6075	3016.5114	3115.3331	3257.9366	3668.508	3805.3746
COCC1=C(O)N=CN1	COCc1c(O)nc[nH]1	
InChI=1S/C5H8N2O2/c1-9-2-4-5(8)7-3-6-4/h3,8H,2H2,1H3,(H,6,7)	InChI=1S/C5H8N2O2/c1-9-2-4-5(8)7-3-6-4/h3,8H,2H2,1H3,(H,6,7)
