21
gdb 111008	2.50806	1.50201	1.16612	1.1209	78.68	-0.2265	0.0777	0.3042	1152.2785	0.182262	-424.194921	-424.186165	-424.18522	-424.228127	33.615	
C	-0.2506025995	 1.3393250086	 0.1340683377	-0.241193
O	 0.3577421746	 0.0851345349	-0.0940959597	-0.258533
C	 0.841902765	-0.5207288492	 1.072311594	 0.12117
C	-0.1753180599	-1.3214997586	 1.9454429596	 0.057056
C	-0.1470064816	-2.4065105655	 0.8474718812	-0.282559
C	 1.3599827506	-1.9704700137	 0.784014256	 0.246914
C	 2.2744406378	-2.2841311979	-0.3731584795	-0.509059
C	 1.7930767206	-2.348631989	 2.2057917322	-0.112725
O	 0.6748294196	-1.8439258483	 2.9764285353	-0.281321
H	 0.4483673023	 2.0448526764	 0.6083711834	 0.109868
H	-0.5475515124	 1.7357960899	-0.8396528133	 0.128522
H	-1.1423216803	 1.256946786	 0.7719289856	 0.110597
H	 1.5086879836	 0.155559154	 1.6287182139	 0.061616
H	-1.0811377661	-0.9073022681	 2.3851474512	 0.076233
H	-0.3758436447	-3.4308808446	 1.1515898025	 0.093452
H	-0.6926973534	-2.1217026129	-0.050941355	 0.115698
H	 1.8773277994	-1.8609140395	-1.2998661218	 0.135593
H	 3.2749374683	-1.8651212302	-0.2141008505	 0.115359
H	 2.3835455124	-3.3658671991	-0.5090264459	 0.117298
H	 1.8975259569	-3.4310555568	 2.3521362496	 0.098244
H	 2.7205596468	-1.8565378363	 2.5236890933	 0.09777
86.2167	155.6649	179.7017	203.3108	252.0807	265.8333	335.9068	358.5471	439.413	488.6303	535.3256	610.1191	670.1185	830.2111	869.1964	897.3712	930.2978	940.9464	969.9866	990.0883	998.6037	1037.4822	1046.6892	1089.1504	1131.4177	1160.0611	1166.4769	1183.3847	1214.465	1217.1893	1236.0147	1248.692	1259.8141	1265.0046	1306.4578	1367.2958	1393.1427	1411.8847	1476.6826	1485.3395	1488.0812	1489.6578	1497.2781	1508.5604	1528.4686	2981.5064	2991.9646	3013.2097	3028.5185	3033.5125	3052.8729	3073.9804	3088.3877	3113.2624	3117.9843	3136.0654	3156.2987
COC1C2CC1(C)CO2	CO[C@H]1[C@H]2C[C@]1(C)CO2	
InChI=1S/C7H12O2/c1-7-3-5(9-4-7)6(7)8-2/h5-6H,3-4H2,1-2H3	InChI=1S/C7H12O2/c1-7-3-5(9-4-7)6(7)8-2/h5-6H,3-4H2,1-2H3/t5-,6+,7-/m1/s1
