20
gdb 8188	2.69688	2.17039	1.62963	1.5557	75.3	-0.2247	0.0843	0.309	912.0752	0.175524	-348.974807	-348.966287	-348.965343	-349.006846	32.825	
C	-0.0263901203	 1.5266243933	 0.0602817387	-0.466606
C	 0.0299082657	 0.0118499407	 0.013040495	 0.268744
C	-1.191090979	-0.6295620508	-0.6253550128	-0.459843
C	 1.3229492882	-0.7529380668	-0.2741143825	-0.226053
C	 2.4996105272	-0.0774441576	 0.408410347	-0.112253
O	 1.7908119092	-0.0326199284	 1.6745741238	-0.321246
C	 0.6945773498	-0.7810865243	 1.1126684318	 0.425099
C	 0.1026914462	-1.8241515709	 2.0056465844	-0.49175
H	 0.7691193464	 1.9378708028	 0.684219636	 0.136126
H	 0.0539889273	 1.9584318795	-0.9440817242	 0.109343
H	-0.9812155708	 1.8569899769	 0.4852221199	 0.111291
H	-1.329523907	-0.2523119345	-1.6452665026	 0.117828
H	-1.1021130954	-1.718201003	-0.6900056571	 0.113992
H	-2.1015007859	-0.3979258386	-0.0606947062	 0.116622
H	 1.38425436	-1.5186019061	-1.037477755	 0.089187
H	 3.3867309916	-0.7164871524	 0.4899965055	 0.105744
H	 2.7972698726	 0.9187204864	 0.0594913148	 0.101059
H	-0.2981593254	-1.3525897873	 2.9107142962	 0.131767
H	-0.7140212898	-2.3577193245	 1.5142565319	 0.124687
H	 0.8600382695	-2.5511055643	 2.3153540656	 0.126262
174.6548	180.5628	194.0376	210.2778	266.2745	281.5639	314.6422	351.8574	359.9912	500.0116	509.0763	644.1367	676.4365	762.7145	874.7019	926.4944	932.2378	968.5403	977.073	993.3596	1004.9727	1016.8506	1073.1997	1119.3045	1146.9999	1161.8845	1171.1461	1227.2727	1235.5016	1299.1754	1339.3495	1400.657	1405.4095	1424.5897	1448.6447	1476.5671	1485.717	1490.769	1494.2209	1507.0191	1519.3644	1526.1874	3019.5473	3023.2134	3028.828	3033.8976	3063.848	3080.6665	3083.6227	3093.1348	3101.1127	3127.0298	3132.1202	3185.6903
CC1(C)C2COC12C	CC1(C)[C@H]2CO[C@@]12C	
InChI=1S/C7H12O/c1-6(2)5-4-8-7(5,6)3/h5H,4H2,1-3H3	InChI=1S/C7H12O/c1-6(2)5-4-8-7(5,6)3/h5H,4H2,1-3H3/t5-,7-/m1/s1
