21
gdb 71598	2.06821	1.94812	1.66145	1.1304	81.91	-0.2515	0.0794	0.3309	991.8408	0.183571	-387.06771	-387.05964	-387.058696	-387.099557	32.976	
C	 0.006920278	 1.5201156384	-0.0358943857	-0.503863
C	 0.0181134587	 0.0069281071	 0.0106925778	 0.335545
C	 0.8039108918	-0.7035775945	-1.1021470122	-0.279918
C	 0.570604842	-2.1895980571	-0.7280189078	-0.25323
C	-0.2885094098	-2.0030843441	 0.5182308117	-0.069819
C	 0.236082004	-0.7910740738	 1.3499761143	-0.103815
C	-1.2165635352	-0.4754005509	 1.7875334977	-0.323722
C	-1.2834051363	-0.8157409125	 0.2777009392	 0.36732
O	-2.3681199476	-0.7746651975	-0.583962133	-0.484435
H	 1.0282036714	 1.9158055374	 0.0055043719	 0.11271
H	-0.442176609	 1.8694452808	-0.9722387441	 0.124325
H	-0.5562907452	 1.96821977	 0.7870347196	 0.115776
H	 0.4108001813	-0.4490687634	-2.0916938635	 0.102077
H	 1.8623629055	-0.4218861513	-1.0885772153	 0.090187
H	 0.039013028	-2.7413685158	-1.5097403143	 0.098503
H	 1.5001213728	-2.7282023552	-0.5184722738	 0.09278
H	-0.6444331062	-2.8837350307	 1.0582935674	 0.052899
H	 1.128506797	-0.7780619071	 1.9738892234	 0.070622
H	-1.6784974429	-1.1943646821	 2.4715113808	 0.081344
H	-1.4454217485	 0.5485978136	 2.0890141665	 0.093738
H	-3.0376493797	-1.3899760812	-0.2661145607	 0.280975
182.4763	195.4327	202.6273	227.6398	260.1731	333.2337	413.0018	445.8884	469.0655	624.416	650.4426	693.2433	708.8851	755.8547	827.3116	849.1035	895.0163	933.6381	942.3248	963.4723	986.2819	997.8521	1006.8381	1050.3045	1078.0108	1088.0518	1117.081	1145.5889	1161.9906	1198.0776	1213.8007	1234.8959	1242.8008	1253.6423	1287.1202	1291.9215	1320.8898	1337.8576	1395.9352	1415.0736	1484.8759	1492.1367	1496.3873	1508.1975	1529.0089	3030.3704	3038.8652	3049.4117	3050.9698	3072.491	3087.9799	3088.1435	3092.6437	3107.587	3118.3955	3127.2147	3806.4131
CC12CCC3C1CC23O	C[C@@]12CC[C@H]3[C@@H]1C[C@@]23O	
InChI=1S/C8H12O/c1-7-3-2-5-6(7)4-8(5,7)9/h5-6,9H,2-4H2,1H3	InChI=1S/C8H12O/c1-7-3-2-5-6(7)4-8(5,7)9/h5-6,9H,2-4H2,1H3/t5-,6-,7+,8-/m0/s1
