15
gdb 46809	2.72049	1.66031	1.18702	3.6461	73.88	-0.2469	0.0022	0.2491	1019.5887	0.11316	-416.758135	-416.750519	-416.749575	-416.790185	29.267	
N	-0.0272004161	 1.2462880176	 0.3173777438	-0.53937
C	 0.0014659122	 0.0254376569	 0.0104675997	 0.384546
O	 1.1258166258	-0.6931129109	-0.286964831	-0.253054
C	 0.8099346248	-1.9802177358	-0.8465829227	-0.085359
C	-0.6725327891	-2.1782696603	-0.6185918362	-0.132412
N	-1.0174012325	-2.0719351462	 0.7985400196	-0.362096
C	-1.1932357026	-0.8770489122	-0.098266867	 0.12279
C	-2.4977287887	-0.3654799985	-0.3680200003	 0.19157
C	-3.6073737302	 0.0432459377	-0.5816160307	-0.373395
H	 0.9126473922	 1.6453065502	 0.2923322685	 0.227666
H	 1.0534884557	-1.97545901	-1.9151797788	 0.120403
H	 1.4201952184	-2.7296073339	-0.3348032688	 0.132607
H	-1.2559635437	-2.7966874696	-1.2903971622	 0.120375
H	-1.9428931676	-2.4691563025	 0.9520086776	 0.24807
H	-4.5815374985	 0.4219098477	-0.7697091915	 0.197659
118.6693	138.8053	180.4066	253.0496	374.776	395.3783	493.4299	534.1375	564.7345	612.029	647.9347	675.0951	705.3341	762.9357	838.4718	871.9433	905.6434	925.41	979.3346	1011.479	1061.9036	1077.2827	1090.2951	1174.1605	1228.7069	1231.9777	1284.2711	1356.76	1400.975	1432.5867	1505.5464	1785.443	2248.3511	3040.8711	3097.5428	3190.654	3478.3565	3493.6454	3503.185
N=C1OCC2NC12C#C	[NH][C]1OC[C@H]2N[C@@]12C#C	
InChI=1S/C6H6N2O/c1-2-6-4(8-6)3-9-5(6)7/h1,4,7-8H,3H2	InChI=1S/C6H6N2O/c1-2-6-4(8-6)3-9-5(6)7/h1,4,7-8H,3H2/t4-,6-/m1/s1
