18
gdb 122780	4.87848	0.5662	0.539	3.2603	78.11	-0.2575	-0.0242	0.2333	2000.3054	0.145146	-439.070063	-439.059501	-439.058557	-439.107709	36.227	
O	-0.2068142146	 1.3765664776	 0.410577154	-0.419819
C	-0.0284694807	 0.0198836524	 0.0375925306	-0.069753
C	-1.4009375141	-0.6416228635	 0.0301989423	-0.172681
C	-1.3380160204	-2.1058994252	-0.4158605749	-0.176886
N	-2.6440770123	-2.7422874415	-0.42741063	-0.320377
C	-2.9769825321	-3.7620903968	 0.4158286834	 0.289841
O	-2.2171153772	-4.2631765524	 1.2250712927	-0.359748
C	-4.3551784129	-4.2138395211	 0.2552565062	 0.215304
C	-5.4857405937	-4.6085037691	 0.1477445712	-0.405413
H	 0.6586432014	 1.793103653	 0.4558788937	 0.287706
H	 0.4313013879	-0.062262306	-0.961719947	 0.084815
H	 0.6335194754	-0.5073186146	 0.7434096565	 0.094698
H	-1.8350745009	-0.5807797819	 1.0336866415	 0.123122
H	-2.0572009678	-0.0695135681	-0.6376225863	 0.10272
H	-0.8900448625	-2.1786470574	-1.4157952462	 0.108632
H	-0.7219609359	-2.6958464047	 0.2668375067	 0.153559
H	-3.3601404541	-2.3855500014	-1.0402066254	 0.254671
H	-6.4824782056	-4.9677002193	 0.0645600308	 0.20961
23.9036	53.049	75.1584	112.0884	157.0103	195.626	260.6369	272.9667	289.7426	368.67	465.3082	487.2725	567.6052	599.7018	658.0818	675.6236	761.0018	763.7557	848.5517	934.3365	1019.7996	1038.3611	1076.5039	1098.7807	1168.0045	1220.9075	1238.0509	1250.5368	1310.9981	1318.9985	1327.0835	1405.8667	1465.7998	1487.2192	1500.9285	1529.1593	1540.4704	1758.7141	2226.5538	2956.8171	2985.8301	3017.3956	3033.9214	3084.8105	3116.6059	3496.6445	3636.1672	3830.7766
OCCCNC(=O)C#C	OCCCNC(=O)C#C	
InChI=1S/C6H9NO2/c1-2-6(9)7-4-3-5-8/h1,8H,3-5H2,(H,7,9)	InChI=1S/C6H9NO2/c1-2-6(9)7-4-3-5-8/h1,8H,3-5H2,(H,7,9)
