21
gdb 115013	2.26295	1.60935	1.05134	0.9606	85.52	-0.2201	0.0258	0.2459	1202.8301	0.182483	-387.078217	-387.069374	-387.06843	-387.112108	33.727	
C	 0.126674662	 1.5340159663	-0.3573308074	-0.235079
O	-0.2820560438	 0.1951358396	-0.5135302128	-0.245584
C	 0.6835937402	-0.6272901338	-1.1325204846	 0.052651
C	 1.9045740381	-0.9971395013	-0.2404920956	-0.296355
C	 2.1564275242	-2.4455527704	-0.5891561064	-0.094137
C	 1.1477981787	-2.9707187376	-1.2862204881	-0.135362
C	 0.0734365451	-1.9786496465	-1.5377445778	 0.317101
C	-1.381807633	-2.3017535751	-1.2624073706	-0.300379
C	-0.9120457813	-2.0866507942	-2.6752052696	-0.321667
H	 0.987250909	 1.6300990792	 0.3211433249	 0.108228
H	 0.3980914635	 1.9907710174	-1.3224843013	 0.103266
H	-0.7165862466	 2.0832345324	 0.0687895387	 0.125692
H	 1.0512305253	-0.1210908786	-2.0413871604	 0.066577
H	 2.7718514893	-0.3531207242	-0.422782819	 0.09957
H	 1.6373255044	-0.8832441326	 0.8197672917	 0.113405
H	 3.0418220273	-2.9812771426	-0.2666611767	 0.091373
H	 1.0772659683	-3.9993687192	-1.6233057923	 0.092777
H	-1.6220456902	-3.3108040964	-0.9444095648	 0.106186
H	-1.969107473	-1.519858339	-0.7972073823	 0.133155
H	-1.2023777703	-1.1633996568	-3.1675313166	 0.11222
H	-0.8391642669	-2.9438548366	-3.3369906591	 0.106361
48.1518	102.9221	186.0041	203.5518	246.2712	264.5738	321.51	441.8403	466.3492	487.2694	553.8419	700.1252	749.3936	783.931	799.3958	876.9844	903.1147	940.2144	961.1931	966.8659	974.8496	1011.6513	1037.6965	1045.6371	1064.578	1079.2083	1126.6264	1154.7262	1172.2961	1186.9754	1195.3728	1231.1575	1273.486	1295.3331	1312.7455	1331.8399	1391.4703	1407.5079	1458.6298	1478.1992	1480.9701	1490.5808	1496.4108	1510.972	1677.2804	2948.7843	2974.2356	3008.4529	3023.5064	3059.5758	3112.0818	3120.1125	3137.9876	3180.9991	3203.5664	3206.6765	3234.9836
COC1CC=CC11CC1	CO[C@H]1CC=CC21CC2	
InChI=1S/C8H12O/c1-9-7-3-2-4-8(7)5-6-8/h2,4,7H,3,5-6H2,1H3	InChI=1S/C8H12O/c1-9-7-3-2-4-8(7)5-6-8/h2,4,7H,3,5-6H2,1H3/t7-/m0/s1
