18
gdb 15231	3.062	1.47292	1.31211	1.0579	74.48	-0.247	0.0379	0.2849	1036.3497	0.151346	-347.757742	-347.74862	-347.747676	-347.791473	33.313	
C	-0.2636023258	 1.5221690148	 0.177899001	-0.37788
C	 0.2407996575	 0.0994314543	-0.0895028939	-0.191773
C	 0.8428213455	-0.5276854049	 1.1485033845	-0.048937
C	-0.0227035131	-1.2334972275	 2.1537266622	 0.109936
O	-1.3876234517	-1.3561906013	 1.9133942048	-0.422393
C	 0.9586506451	-2.0504205345	 1.3123981643	-0.283201
C	 0.4010241448	-2.9466779287	 0.3472033091	 0.301966
C	-0.1328247741	-3.7096755128	-0.4177579142	-0.446503
H	 0.5433985722	 2.1730065811	 0.5328463063	 0.108974
H	-0.6756906288	 1.9696575065	-0.7318282261	 0.110333
H	-1.0495698687	 1.514118	 0.9389356151	 0.133065
H	-0.586564031	-0.5205890181	-0.4441984208	 0.110788
H	 0.9903415205	 0.1084181757	-0.8902545151	 0.09762
H	 1.6889123941	 0.0137160694	 1.5661955673	 0.089786
H	 0.2151412888	-1.1279089081	 3.2100495218	 0.099509
H	-1.541871484	-2.1968068305	 1.4626569931	 0.292323
H	 1.8463235368	-2.4164010598	 1.8193525436	 0.115584
H	-0.5626311282	-4.3798164554	-1.1205126029	 0.200805
65.8967	104.6717	129.5676	196.8493	220.6646	253.4677	293.6876	356.9011	390.0629	563.9242	589.2624	618.5165	644.9121	659.8485	747.2784	776.9342	801.2972	863.8139	968.8895	984.815	1027.0551	1048.082	1102.4707	1125.5226	1138.491	1181.1607	1238.7857	1293.0454	1332.7979	1354.0231	1369.2915	1398.5499	1410.1324	1432.2987	1482.3855	1499.6414	1507.4436	2222.3117	3033.2685	3035.435	3087.4393	3105.0178	3114.8995	3123.1199	3134.403	3153.4123	3502.0575	3749.4787
CCC1C(O)C1C#C	CC[C@H]1[C@@H](O)[C@H]1C#C	
InChI=1S/C7H10O/c1-3-5-6(4-2)7(5)8/h1,5-8H,4H2,2H3	InChI=1S/C7H10O/c1-3-5-6(4-2)7(5)8/h1,5-8H,4H2,2H3/t5-,6+,7-/m0/s1
