21
gdb 93925	3.28285	1.08913	0.93995	2.9951	79.25	-0.2299	-0.0091	0.2208	1345.0481	0.181184	-424.262309	-424.252585	-424.251641	-424.297759	35.143	
C	-0.1492567957	 1.4594407569	 0.100836757	-0.406175
C	 0.0827206279	-0.0401929422	 0.0789528729	 0.145912
C	 0.7147104773	-0.6018553549	-1.2011747169	-0.215377
C	 1.3692975348	-1.9072468818	-0.7138666092	-0.27103
C	 1.5907282158	-1.6371292932	 0.8125110675	 0.027486
O	 1.034982761	-0.3716119866	 1.0947268241	-0.25694
C	 0.9262117869	-2.7468956667	 1.6394199252	 0.366239
C	 1.7548786205	-4.0027498692	 1.8432286276	-0.48574
O	-0.1938274132	-2.6264713573	 2.0742046696	-0.296391
H	 0.7858577701	 1.9947984748	-0.0916888838	 0.117868
H	-0.8799259772	 1.7437839413	-0.6627523424	 0.114252
H	-0.5321303845	 1.7736714877	 1.0755063255	 0.130369
H	-0.8599754098	-0.5673384868	 0.2881381324	 0.086511
H	-0.0137859338	-0.7660074467	-1.9991285369	 0.103958
H	 1.4733769056	 0.0972512573	-1.5692234041	 0.103514
H	 0.6963634971	-2.7571575735	-0.8644280967	 0.114468
H	 2.3052166055	-2.1330338912	-1.2285436689	 0.111195
H	 2.6587480597	-1.59723575	 1.0603759562	 0.083699
H	 2.2106427007	-4.3327747716	 0.9030781458	 0.136114
H	 2.5777087564	-3.7876482517	 2.5355996893	 0.146085
H	 1.1346054748	-4.7977895645	 2.258520546	 0.143986
49.2313	60.5255	119.6806	133.0035	208.3692	227.9297	275.9343	292.5134	360.8087	476.0624	565.4306	575.1369	610.525	715.6429	779.3842	837.987	864.2832	905.3896	931.5148	947.7738	969.5557	1011.0938	1021.5182	1074.4093	1115.7845	1136.4735	1158.7358	1189.5267	1211.0451	1219.6874	1295.5792	1310.4528	1322.6691	1351.0642	1375.202	1387.1642	1398.6929	1416.2983	1462.8095	1474.8851	1482.2296	1486.7153	1499.1612	1503.6226	1821.6578	2996.2554	3026.2289	3034.9817	3039.7516	3048.8882	3055.4008	3093.6468	3101.5737	3112.3461	3115.8592	3120.7414	3151.8607
CC1CCC(O1)C(C)=O	C[C@H]1CC[C@@H](O1)C(=O)C	
InChI=1S/C7H12O2/c1-5-3-4-7(9-5)6(2)8/h5,7H,3-4H2,1-2H3	InChI=1S/C7H12O2/c1-5-3-4-7(9-5)6(2)8/h5,7H,3-4H2,1-2H3/t5-,7+/m0/s1
