15
gdb 48426	2.32195	1.60985	1.21675	1.3771	67.31	-0.2468	-0.0583	0.1885	1026.6082	0.111612	-453.96505	-453.956694	-453.95575	-453.999092	29.222	
O	 0.1420168648	-0.16253313	 0.0609489595	-0.254259
C	 0.0900082445	 1.0361798905	-0.0294655306	 0.130427
C	 1.3356028377	 1.9171003919	-0.0866948893	 0.091798
C	 1.4601987301	 2.8051956964	 1.2279432145	-0.216894
N	 2.5573033838	 2.2156894854	 1.9882252938	-0.221452
C	 3.0726813414	 1.3079411987	 1.2598560762	 0.06903
N	 2.5611894193	 1.1291796842	-0.0278928763	-0.344719
C	 1.264973751	 2.8123325545	-1.3176863951	 0.105729
O	 0.2818663415	 3.4325562234	-1.6304646071	-0.254789
H	-0.866090051	 1.5915905103	-0.0842018439	 0.124096
H	 1.6845982743	 3.8471459316	 0.9749390905	 0.136946
H	 0.5311973332	 2.8094221297	 1.8085013538	 0.133776
H	 3.9124338301	 0.6954522669	 1.5740969014	 0.138887
H	 2.4446648412	 0.1635476694	-0.3186999738	 0.256716
H	 2.215889138	 2.8546720969	-1.8914567534	 0.104707
41.7842	94.3076	121.3604	219.1519	227.3072	288.2712	346.6209	446.4343	494.7387	610.5635	649.0822	750.431	820.5108	834.3457	931.9237	959.4399	968.9624	986.5855	999.4961	1111.1412	1125.7803	1138.2853	1188.9012	1230.9517	1309.4809	1344.6454	1389.5602	1391.8371	1424.4892	1495.2561	1705.409	1803.7955	1830.9861	2906.2736	2957.8665	3039.4336	3073.199	3194.6338	3538.567
O=CC1(CN=CN1)C=O	O=CC1(C[N][CH]N1)C=O	
InChI=1S/C5H6N2O2/c8-2-5(3-9)1-6-4-7-5/h2-4H,1H2,(H,6,7)	InChI=1S/C5H6N2O2/c8-2-5(3-9)1-6-4-7-5/h2-4H,1H2,(H,6,7)
