16
gdb 34861	3.94352	1.28029	1.18922	3.4182	68.73	-0.2708	0.0227	0.2935	1038.5879	0.126533	-437.870331	-437.863345	-437.862401	-437.901726	27.323	
N	 0.0182268828	-1.1480635075	-0.0046763663	-0.329443
C	 0.0052474962	 0.0088588831	 0.0025573336	 0.270347
C	 0.0082884127	 1.456287661	 0.0325756804	-0.185862
C	-0.1036780775	 2.0938652492	 1.4719724558	 0.114659
C	 1.4334862269	 1.9246116311	 1.5951086506	-0.312903
C	 1.4400195256	 2.1199864535	 0.0561253253	 0.11466
O	 1.2698885146	 3.4836811423	-0.2979634071	-0.270611
C	 0.5757076645	 4.206184459	 0.7019660756	 0.014047
O	-0.4668117045	 3.4542940998	 1.294900204	-0.270611
H	-0.6770843067	 1.8729848367	-0.7069982574	 0.130968
H	-0.7819820618	 1.6546504242	 2.2024154065	 0.110098
H	 2.0011672258	 2.60819753	 2.2266623512	 0.12244
H	 1.6859216861	 0.8946535507	 1.8513371645	 0.145625
H	 2.234080609	 1.7056856938	-0.5638543769	 0.110099
H	 1.2812862372	 4.5379090185	 1.4773784535	 0.103396
H	 0.121817969	 5.0759916247	 0.2231368667	 0.133092
141.7111	144.4149	294.955	320.6028	393.187	453.845	472.8102	509.9874	536.6363	650.4736	830.8129	855.3894	897.336	897.3729	939.4421	949.6418	992.19	1000.7804	1038.8507	1080.3283	1082.1449	1160.75	1172.3291	1193.0656	1210.6881	1246.9874	1267.3425	1267.7238	1284.777	1345.9405	1376.2756	1441.254	1486.1925	1543.3548	2347.6662	2993.4948	3092.8881	3109.7407	3112.618	3126.7833	3128.4794	3150.2198
N#CC1C2CC1OCO2	N#C[C@H]1[C@H]2C[C@@H]1OCO2	
InChI=1S/C6H7NO2/c7-2-4-5-1-6(4)9-3-8-5/h4-6H,1,3H2	InChI=1S/C6H7NO2/c7-2-4-5-1-6(4)9-3-8-5/h4-6H,1,3H2/t4-,5+,6-
