17
gdb 93268	2.30698	1.68304	1.23619	2.6814	63.53	-0.2697	-0.0002	0.2695	1032.7626	0.134734	-496.140572	-496.131714	-496.130769	-496.173718	33.167	
C	 0.4160321405	 1.5297346106	 0.1038983347	-0.416388
C	-0.0175077816	 0.0662300164	-0.0556615738	 0.184709
O	-1.4171352237	-0.0371740017	-0.2102622911	-0.483701
C	 0.7266931369	-0.6648378718	-1.1883167085	 0.068623
O	 1.1138968741	 0.1072653138	-2.3002346502	-0.426611
C	 1.9878121466	-1.1665250309	-0.4704824333	-0.109402
O	 1.5997099041	-1.379382684	 0.9023310823	-0.219905
C	 0.434960443	-0.7463010788	 1.1628201672	 0.418664
O	-0.1557408694	-0.8350162389	 2.2024735119	-0.362088
H	 1.5008480236	 1.6329768513	 0.2015374761	 0.126428
H	 0.0968520236	 2.097946373	-0.7722406614	 0.128235
H	-0.0553408143	 1.9525638129	 0.995102006	 0.131473
H	-1.7862421605	-0.0905942315	 0.6826117513	 0.293732
H	 0.1010491517	-1.5170435316	-1.487957344	 0.098204
H	 0.3280093233	 0.2914643327	-2.8248606513	 0.298795
H	 2.368596564	-2.1116329131	-0.8594446939	 0.1351
H	 2.7792278279	-0.4115700484	-0.5182709121	 0.134133
88.4786	180.3329	201.3547	231.8116	256.4103	280.1389	305.5289	325.93	380.9888	413.074	499.747	565.8596	625.2285	664.6126	735.7145	755.345	863.4033	957.9321	1011.5626	1026.9041	1052.0995	1099.1731	1132.8293	1160.7486	1172.8699	1216.9976	1250.3335	1271.9991	1340.0347	1380.2986	1387.1186	1408.1498	1448.6839	1484.688	1488.7747	1519.8982	1873.9498	3014.358	3048.0824	3060.6756	3121.8741	3130.1402	3136.6636	3747.6594	3822.9211
CC1(O)C(O)COC1=O	C[C@@]1(O)[C@@H](O)COC1=O	
InChI=1S/C5H8O4/c1-5(8)3(6)2-9-4(5)7/h3,6,8H,2H2,1H3	InChI=1S/C5H8O4/c1-5(8)3(6)2-9-4(5)7/h3,6,8H,2H2,1H3/t3-,5+/m0/s1
