18
gdb 126632	4.88229	0.84098	0.75818	2.6258	75.91	-0.2287	-0.0101	0.2186	1526.5626	0.149183	-431.446849	-431.437898	-431.436953	-431.481437	32.131	
C	 0.0136655153	 1.4836792069	-0.0450849822	-0.382837
C	 0.0821974935	-0.0450015772	-0.0341262403	-0.178851
C	 0.6997115123	-0.5736224073	 1.264138828	-0.129328
N	 0.7858122175	-2.0242629155	 1.2891373366	 0.140715
N	 0.0218767157	-2.7741119006	 2.0571347431	-0.130516
N	 0.3388022467	-4.0227132332	 1.7984567233	-0.280111
C	 1.3082619179	-3.9661381481	 0.8501579598	 0.45241
N	 1.8605852315	-5.0882649883	 0.2783780879	-0.576487
N	 1.6190796057	-2.7186915902	 0.5039706158	-0.33568
H	 1.0107149304	 1.9284611264	 0.0456356767	 0.12108
H	-0.428095653	 1.8464385057	-0.9771602898	 0.12456
H	-0.5964436985	 1.8625701556	 0.7821411646	 0.121678
H	-0.9208282794	-0.4720528335	-0.1455262244	 0.118105
H	 0.6783812167	-0.4073270129	-0.8777708456	 0.128531
H	 1.7107986686	-0.1770442285	 1.400534156	 0.132591
H	 0.0972470892	-0.2983438931	 2.1325441027	 0.145332
H	 1.7853430992	-5.9093831049	 0.8604876387	 0.265747
H	 2.7862180008	-4.9506374214	-0.0986883207	 0.263061
51.0855	83.2867	90.8671	239.0119	263.2875	283.2912	309.049	331.585	407.5618	461.3387	603.1342	679.5916	719.2815	756.1738	786.0654	825.7875	883.7967	908.2629	1030.9149	1045.5318	1097.1532	1101.0591	1126.8553	1130.5424	1240.2306	1256.7578	1311.5561	1331.9327	1375.4075	1403.0122	1405.1295	1416.9258	1474.8664	1480.6177	1493.7082	1501.5021	1510.8907	1581.8652	1653.0167	3034.0302	3044.7483	3062.6445	3080.4161	3103.4884	3113.6031	3129.8539	3578.7011	3684.1384
CCCN1N=NC(N)=N1	CCCn1nnc(N)n1	
InChI=1S/C4H9N5/c1-2-3-9-7-4(5)6-8-9/h2-3H2,1H3,(H2,5,7)	InChI=1S/C4H9N5/c1-2-3-9-7-4(5)6-8-9/h2-3H2,1H3,(H2,5,7)
