20
gdb 102726	2.71296	0.92207	0.75216	3.1198	80.6	-0.2475	0.0234	0.271	1541.5	0.171235	-399.296946	-399.287097	-399.286153	-399.332684	35.034	
C	-0.0404169871	 1.585586312	-0.213517629	-0.330771
N	 0.150532188	 0.1609941526	 0.0507680311	-0.290216
C	 0.7282130523	-0.5786556225	-1.0667752855	-0.104519
C	 1.0475683965	-2.0395583154	-0.6674276733	-0.241324
C	 2.1250879144	-2.145735073	 0.3884509265	 0.008187
C	 3.1115832854	-3.2526320097	 0.3497391176	-0.248591
N	 3.5343343359	-1.8717857328	 0.0525594356	-0.315431
C	-0.2149757803	-0.5813816574	-2.2000133661	 0.305298
N	-0.9339969056	-0.597140246	-3.1042178229	-0.328909
H	 0.8760569447	 2.1063450633	-0.540308768	 0.103675
H	-0.7979002376	 1.7151582298	-0.992221431	 0.151485
H	-0.4072483292	 2.0691030096	 0.6953119254	 0.128144
H	 0.76522346	 0.0484311275	 0.8489707361	 0.233207
H	 1.6591534096	-0.1125394761	-1.4454849286	 0.10366
H	 0.1227287602	-2.5065004875	-0.3124150108	 0.135034
H	 1.3634550902	-2.5792651204	-1.5670169511	 0.115467
H	 1.8492626529	-1.7727481426	 1.3736767549	 0.100354
H	 3.5057833539	-3.6634375789	 1.2744337036	 0.126324
H	 3.0424946781	-3.964499142	-0.4689550291	 0.118443
H	 3.6315298078	-1.7583350708	-0.9547367653	 0.230484
48.1514	77.1459	116.5089	132.92	174.662	220.3824	277.3836	291.0625	336.7921	417.06	491.8541	560.2969	585.5762	755.2461	790.222	823.4621	845.3201	935.1158	946.8248	984.8482	1007.8843	1039.4383	1065.6062	1130.1655	1139.7993	1142.5912	1166.3488	1183.2175	1224.4615	1254.1981	1269.4417	1300.6022	1311.3662	1356.5122	1369.711	1429.141	1462.2596	1467.7732	1487.1169	1496.13	1514.0221	1521.0517	2360.1923	2906.2606	2960.3292	3043.1969	3078.9425	3090.0468	3110.9318	3119.3631	3122.3316	3197.4897	3483.917	3540.6023
CNC(CC1CN1)C#N	CN[C@@H](C[C@H]1CN1)C#N	
InChI=1S/C6H11N3/c1-8-5(3-7)2-6-4-9-6/h5-6,8-9H,2,4H2,1H3	InChI=1S/C6H11N3/c1-8-5(3-7)2-6-4-9-6/h5-6,8-9H,2,4H2,1H3/t5-,6-/m0/s1
