18
gdb 33041	4.42869	0.87911	0.75666	4.185	78.39	-0.1742	0.0479	0.2221	1506.9738	0.147971	-435.283464	-435.274278	-435.273333	-435.318116	33.547	
C	-0.2102394501	 1.3888581062	 0.1031226039	-0.393022
C	 0.4024207264	-0.0053166711	 0.0490960317	-0.127596
N	 0.4041135158	-0.5114788657	-1.3329384332	-0.40455
C	 0.7853572268	-1.8224123865	-1.537824781	 0.393363
C	 1.6871843627	-2.4317510093	-2.3214982178	-0.219316
N	 1.5258678178	-3.817136917	-2.1177196289	-0.333754
C	 0.4834173268	-4.0334845836	-1.2475768458	 0.468433
N	 0.0149999797	-5.1509047529	-0.8750700311	-0.607796
O	 0.0474318551	-2.7759462489	-0.8526776694	-0.23516
H	 0.3728339867	 2.1026641508	-0.4906259971	 0.113002
H	-1.2314804917	 1.37795662	-0.2875011134	 0.133461
H	-0.2322309077	 1.757120152	 1.1326612579	 0.123567
H	 1.4179173639	 0.005471187	 0.477286477	 0.095111
H	-0.1891498474	-0.7032050403	 0.6471208532	 0.136793
H	 0.8912184198	 0.110612384	-1.965759203	 0.235562
H	 2.4573780512	-2.0251276683	-2.9520439735	 0.130886
H	 1.8280922313	-4.5426262517	-2.7432860631	 0.269755
H	-0.7686242871	-5.0182413449	-0.2420844563	 0.221261
61.7312	72.5714	111.0028	163.9514	250.3049	280.4115	333.1722	363.5352	399.7154	507.7695	626.609	630.1814	680.9254	701.5033	709.7058	743.7153	787.1515	817.7264	913.8091	945.8529	984.3785	1045.0935	1068.4295	1101.7304	1130.9776	1157.2797	1223.8596	1293.1067	1330.3494	1360.1268	1386.194	1400.5237	1415.1862	1475.0236	1495.6395	1499.2399	1519.9231	1735.0337	1801.5221	2971.5583	3034.8503	3089.2723	3109.5944	3124.9689	3293.6206	3545.0329	3568.4391	3689.3159
CCNC1=CNC(=N)O1	CCNC1=CN[C@@H]([NH])O1	
InChI=1S/C5H9N3O/c1-2-7-4-3-8-5(6)9-4/h3,7H,2H2,1H3,(H2,6,8)	InChI=1S/C5H10N3O/c1-2-7-4-3-8-5(6)9-4/h3,5-8H,2H2,1H3/t5-/m1/s1
