15
gdb 25925	2.86713	1.65328	1.05551	4.9502	68.93	-0.2226	-0.0492	0.1734	1064.387	0.113229	-454.019073	-454.011349	-454.010404	-454.051484	28.84	
C	-0.0235758458	 1.4669839495	 0.0620666679	-0.502719
C	 0.0183486759	-0.0393168948	 0.0487217802	 0.445183
O	 0.0494917308	-0.7088220068	 1.0717762769	-0.372927
N	 0.0212616923	-0.6549104203	-1.1926304602	-0.163321
C	-0.0094809878	-0.0930714048	-2.4858279651	-0.131623
C	 0.0104694083	-1.1492728815	-3.3317551301	-0.081402
N	 0.0524917214	-2.3650115458	-2.6535206426	-0.34872
C	 0.0581168032	-2.0512550867	-1.3975629775	 0.48083
O	 0.0933740037	-2.8919135573	-0.3790446655	-0.401238
H	 0.8428886225	 1.881344078	-0.4623226128	 0.161727
H	-0.9239664981	 1.831951728	-0.4414491494	 0.161705
H	-0.0207217389	 1.8028876424	 1.0981097357	 0.1626
H	-0.0411746997	 0.9696960357	-2.6439814523	 0.137061
H	-0.0026229815	-1.1263083391	-4.4106910212	 0.125177
H	 0.0873177136	-2.3463051566	 0.439633196	 0.327667
101.8115	139.8198	156.7904	243.2596	315.0827	365.7952	491.9926	537.561	574.8879	611.0815	659.9293	662.1132	735.4851	751.7597	761.8042	878.3117	903.5474	967.7824	1059.1782	1075.1952	1120.603	1162.9889	1233.4052	1269.6961	1345.5143	1384.1569	1416.4119	1468.0165	1477.0633	1488.3073	1576.3202	1665.4142	1769.0407	3051.714	3117.409	3170.1835	3255.567	3302.3521	3434.3418
CC(=O)N1C=CN=C1O	CC(=O)n1ccnc1O	
InChI=1S/C5H6N2O2/c1-4(8)7-3-2-6-5(7)9/h2-3H,1H3,(H,6,9)	InChI=1S/C5H6N2O2/c1-4(8)7-3-2-6-5(7)9/h2-3H,1H3,(H,6,9)
