20
gdb 75608	2.60853	1.40902	1.03626	1.1522	77.57	-0.2336	0.0246	0.2582	1200.6786	0.171461	-440.281	-440.272102	-440.271158	-440.315018	33.035	
C	 0.2532794915	 1.6162565962	-0.2943639259	-0.427011
C	-0.0140552898	 0.1566436319	-0.0217828811	 0.377911
N	 0.1502222459	-0.6970518736	-0.9387433587	-0.295954
C	-0.0165493526	-2.1359078719	-0.8672525426	-0.186693
C	-1.4816692892	-2.6130561966	-0.90130416	-0.073014
O	-2.0890808108	-2.7870027672	 0.3626973218	-0.23453
C	-2.2683101089	-1.6313053878	 1.1442447089	-0.0904
C	-0.9961820446	-1.1261569895	 1.8515638712	-0.087071
O	-0.4035476948	 0.0414404322	 1.2833621109	-0.26428
H	 1.0033104097	 1.9977467329	 0.4058519231	 0.134729
H	 0.6063306325	 1.7395884174	-1.3166661163	 0.13911
H	-0.656586538	 2.2054889029	-0.140724648	 0.130381
H	 0.4701306255	-2.5421495098	-1.7616029338	 0.105971
H	 0.4868070058	-2.6007611354	-0.0100495781	 0.106066
H	-2.0654911818	-1.9169319713	-1.5239328753	 0.09902
H	-1.524050476	-3.6032588793	-1.3646940041	 0.108714
H	-2.7092008748	-0.8062077402	 0.5621961969	 0.103706
H	-2.9922443095	-1.9200308054	 1.913235372	 0.113989
H	-1.2541651649	-0.8016870713	 2.863430223	 0.116602
H	-0.2766573051	-1.9455813643	 1.939447016	 0.122754
45.7478	124.7668	159.6775	207.0856	237.604	281.1242	337.1857	375.1254	393.7198	487.8407	541.5386	617.3069	660.4984	721.508	833.0472	843.9874	941.0432	989.0063	996.6901	1033.2869	1056.9761	1065.4941	1092.9505	1112.8295	1130.0358	1167.5101	1228.2437	1239.5989	1283.6818	1324.3764	1357.6528	1367.9481	1392.4507	1401.6477	1407.7133	1418.5333	1475.9058	1476.5224	1479.2023	1490.1252	1492.1239	1521.2533	1770.9928	2984.9783	2988.5194	3018.1206	3046.9208	3047.041	3057.8348	3075.4646	3085.2136	3103.0544	3103.3179	3170.6994
CC1=NCCOCCO1	CC1=NCCOCCO1	
InChI=1S/C6H11NO2/c1-6-7-2-3-8-4-5-9-6/h2-5H2,1H3/b7-6-	InChI=1S/C6H11NO2/c1-6-7-2-3-8-4-5-9-6/h2-5H2,1H3/b7-6-
