21
gdb 90299	2.85757	1.61791	1.3142	0.4887	87.91	-0.2169	0.0208	0.2377	1058.7806	0.184611	-349.924113	-349.916488	-349.915543	-349.955791	31.552	
C	-0.2288147642	 1.5260909077	-0.2444108825	-0.395231
C	-0.0266722251	 0.0269466634	-0.0724973069	-0.011367
C	 1.1607975717	-0.5759412158	-0.92639439	-0.339089
C	 1.9419156568	-0.6035649727	 0.3681073853	 0.29623
C	 3.061393519	-0.1846730513	 0.9606704763	-0.25502
C	 2.7524070421	 0.2470011394	 2.3664671686	-0.058629
C	 1.9567201016	 1.5320225766	 2.4399484682	-0.284762
C	 1.2128912222	 0.2188574934	 2.4870141857	-0.080324
C	 0.7196261918	-0.4915381081	 1.2370757292	-0.046976
H	 0.7205804714	 2.0688818652	-0.2343832365	 0.121153
H	-0.7147365534	 1.7357579877	-1.2037139423	 0.111821
H	-0.8601986183	 1.9380686873	 0.5493073491	 0.118441
H	-0.9773663631	-0.4903026435	-0.2303511684	 0.070725
H	 0.9178864345	-1.5690557597	-1.3181915493	 0.106256
H	 1.5513497748	 0.0392780347	-1.7417939162	 0.10572
H	 4.023517328	-0.0087346808	 0.4923054674	 0.089137
H	 3.3996433513	-0.0169180938	 3.1966488624	 0.082386
H	 1.9871992619	 2.0834944457	 3.374700045	 0.106316
H	 1.9166742191	 2.1583805965	 1.5575366892	 0.110804
H	 0.763582221	-0.0417627726	 3.4382280006	 0.080141
H	 0.286030037	-1.4624086092	 1.508870155	 0.072266
111.1346	182.7955	266.4627	272.5106	341.4164	362.0231	444.079	511.7869	643.3981	656.9678	739.3954	756.935	778.5282	802.405	835.0959	847.9719	887.9108	896.0904	933.2898	962.0733	1000.1661	1045.3088	1049.2385	1069.2025	1071.6388	1090.6658	1097.5438	1106.343	1133.8118	1149.1787	1198.2534	1206.8421	1234.4122	1262.7816	1284.6144	1323.451	1333.9701	1366.8303	1378.8051	1412.0576	1475.0288	1477.0197	1495.2715	1502.8594	1708.9617	3012.1787	3033.3708	3042.6628	3058.8021	3095.9441	3096.2158	3112.0441	3132.9285	3155.7632	3174.5095	3190.2818	3223.6335
CC1CC2=CC3CC3C12	C[C@H]1C[C]2[CH][C@H]3C[C@H]3[C@@H]12	
InChI=1S/C9H12/c1-5-2-7-3-6-4-8(6)9(5)7/h3,5-6,8-9H,2,4H2,1H3	InChI=1S/C9H12/c1-5-2-7-3-6-4-8(6)9(5)7/h3,5-6,8-9H,2,4H2,1H3/t5-,6-,8+,9-/m0/s1
