22
gdb 42130	2.07854	1.74846	1.11252	2.3334	82.92	-0.2425	0.0151	0.2576	1166.68	0.196907	-404.352258	-404.343794	-404.34285	-404.385051	33.186	
C	-0.0519440138	 1.5305075009	-0.0524387612	-0.188456
C	 1.3964636959	 2.0519043623	 0.0441377225	-0.175192
C	 2.2456035013	 1.5869498962	 1.2574739895	-0.196028
C	 3.4044525439	 0.6006581476	 0.9663479409	-0.147524
N	 3.0416821159	-0.8192211254	 1.023280719	-0.230437
C	 2.3271673966	-1.3073296685	 0.1114147857	 0.107441
O	 1.9062848013	-0.6391812189	-1.0013395108	-0.211676
C	 0.492073971	-0.7167503931	-1.2223233809	-0.084929
C	-0.274430254	 0.0101202495	-0.1186655093	-0.19884
H	-0.6210395554	 1.9109884177	 0.8058083989	 0.096446
H	-0.5107537136	 1.9878853347	-0.9396520104	 0.092977
H	 1.9321871095	 1.8190083165	-0.8801373717	 0.109795
H	 1.321755391	 3.1454667894	 0.078475401	 0.087511
H	 2.7059072309	 2.4735401086	 1.7074123756	 0.09828
H	 1.6098324398	 1.1576646471	 2.0417754189	 0.1013
H	 3.8573629289	 0.852879445	-0.0014690197	 0.107454
H	 4.1758053084	 0.746729875	 1.728481678	 0.09819
H	 2.0042140894	-2.3522845972	 0.1576217296	 0.103345
H	 0.3249545233	-0.2622037143	-2.2030394309	 0.115754
H	 0.1825311989	-1.7712562087	-1.2773643124	 0.102071
H	-0.0086564821	-0.4514360123	 0.8406535145	 0.115165
H	-1.3447438772	-0.1847026922	-0.261830427	 0.097354
103.8291	168.4019	192.6761	217.8836	264.1436	300.3536	366.5976	397.8302	426.2203	510.9036	589.5693	696.5826	709.3668	784.3526	819.0044	864.3003	917.4419	941.686	956.8551	982.1793	998.3281	1033.2032	1053.2853	1075.3099	1113.3174	1115.9251	1143.5879	1218.4494	1226.6731	1257.2058	1300.1945	1305.6749	1326.8306	1357.6041	1369.4306	1387.4513	1388.2851	1397.5581	1407.0615	1415.0573	1475.2155	1482.071	1490.0563	1492.2756	1501.5352	1507.3134	1762.2595	2996.4609	3008.2959	3018.4002	3023.8	3026.9814	3035.3616	3043.4932	3062.9509	3066.0417	3072.6618	3082.9693	3089.5848	3094.0144
C1CCCN=COCC1	C1CCCN=COCC1	
InChI=1S/C7H13NO/c1-2-4-6-9-7-8-5-3-1/h7H,1-6H2/b8-7-	InChI=1S/C7H13NO/c1-2-4-6-9-7-8-5-3-1/h7H,1-6H2/b8-7-
