14
gdb 30628	4.77636	1.05359	0.8679	0.9579	65.37	-0.2629	-0.0358	0.2271	1253.1973	0.101424	-473.880292	-473.872375	-473.871431	-473.913708	27.353	
C	-0.0395260373	 1.340578442	 0.0513830257	-0.241458
O	 0.0186255759	-0.0889091387	-0.0250174264	-0.219399
C	 0.6372859011	-0.5740549165	-1.110132675	 0.367369
O	 1.1244084144	 0.1060245231	-1.9840311152	-0.382614
C	 0.6623691813	-2.0485419704	-1.1271930042	 0.123515
C	 1.2229682158	-2.8106899965	-2.103905435	-0.052409
O	 1.0489117427	-4.1135795915	-1.7721607371	-0.137247
C	 0.3787111476	-4.0732749634	-0.5884368635	 0.074184
N	 0.1214835555	-2.887319626	-0.1556824744	-0.292527
H	 0.9667959701	 1.7668018888	 0.0687591794	 0.141925
H	-0.5791118536	 1.7506817021	-0.8061172242	 0.141938
H	-0.5665523115	 1.5641467335	 0.9785487726	 0.137462
H	 1.7397889704	-2.5920865263	-3.0213956794	 0.178779
H	 0.1351328175	-5.0234974302	-0.1403748932	 0.160481
69.1615	111.5502	134.673	150.6726	252.907	314.399	394.6025	499.6605	628.9334	670.2631	783.6393	815.284	833.768	865.434	929.1383	953.9464	1028.8446	1086.5187	1135.902	1177.7595	1179.0035	1220.1293	1246.5945	1341.5591	1353.2998	1473.6408	1482.0076	1495.9135	1559.7459	1604.3499	1795.2154	3051.9331	3125.7803	3162.7547	3282.0383	3309.0533
COC(=O)C1=COC=N1	COC(=O)c1cocn1	
InChI=1S/C5H5NO3/c1-8-5(7)4-2-9-3-6-4/h2-3H,1H3	InChI=1S/C5H5NO3/c1-8-5(7)4-2-9-3-6-4/h2-3H,1H3
