16
gdb 45311	3.20263	1.48867	1.27644	2.8328	67.53	-0.2417	-0.0257	0.2161	991.3181	0.126305	-437.933694	-437.926683	-437.925739	-437.966096	26.69	
O	 0.1397935039	 0.0051522559	 0.375445389	-0.29736
C	 0.0666640473	 1.186929085	 0.170200646	 0.3824
C	-1.2143781455	 2.0287078976	 0.2432980857	-0.339762
C	-0.7633396869	 3.4791019265	 0.4108901588	 0.06837
O	-0.8770746184	 3.8968149555	 1.797497577	-0.228077
C	 0.3898910155	 4.1089029595	 2.2246458023	 0.117236
N	 1.3658396329	 3.951467165	 1.4330562098	-0.263865
C	 0.7870074015	 3.5302920988	 0.1428503012	-0.023767
C	 1.2201274003	 2.1063918632	-0.2393579481	-0.324608
H	-1.750777145	 1.894849363	-0.7043862289	 0.136413
H	-1.875129604	 1.6912818829	 1.0437791824	 0.148546
H	-1.3455726776	 4.1854775253	-0.1825523263	 0.100503
H	 0.4653198803	 4.412450319	 3.263058568	 0.147176
H	 1.0622887526	 4.2593299014	-0.6229524736	 0.095028
H	 2.1559310576	 1.8084190193	 0.2354751229	 0.15069
H	 1.3504384855	 2.005211632	-1.3244011961	 0.131078
60.5987	65.9224	307.5891	372.0646	427.7464	467.24	537.7442	599.3425	660.92	711.9944	787.2278	822.1153	840.2234	855.2722	927.0227	934.4955	968.4974	1033.6162	1043.1564	1076.6649	1121.8664	1139.4857	1168.1616	1201.7387	1220.8894	1268.8525	1301.1547	1311.9552	1330.5778	1344.2902	1372.9282	1432.3268	1442.753	1704.28	1853.7355	3038.3737	3044.8465	3072.3105	3098.327	3125.4788	3130.6582	3216.8697
O=C1CC2OC=NC2C1	O=C1C[C@H]2OC=N[C@H]2C1	
InChI=1S/C6H7NO2/c8-4-1-5-6(2-4)9-3-7-5/h3,5-6H,1-2H2	InChI=1S/C6H7NO2/c8-4-1-5-6(2-4)9-3-7-5/h3,5-6H,1-2H2/t5-,6+/m0/s1
