14
gdb 36565	2.64456	0.95155	0.73215	4.565	75.31	-0.2869	-0.0229	0.264	1456.7819	0.096692	-399.457853	-399.448325	-399.447381	-399.493196	33.105	
C	 0.1000660164	-1.11066217	 0.1611067146	-0.454276
C	 0.0274791317	 0.0840187126	 0.0621493154	 0.336963
C	-0.041246213	 1.5512517014	-0.021330512	-0.219936
O	 1.2547914926	 2.1553859382	 0.0151080108	-0.235674
C	 1.9204175982	 1.9462267523	 1.2441931159	-0.191773
C	 3.2037935173	 2.6486115944	 1.2063985165	 0.273564
N	 4.223319111	 3.189890136	 1.213227667	-0.290888
C	-0.7050130247	 1.9921788363	-1.2464556056	 0.309335
C	-1.2770578951	 2.3542635336	-2.2365020261	-0.386275
H	 0.1564797232	-2.1695402199	 0.2325498659	 0.215434
H	-0.6253009072	 1.9151608598	 0.8427716772	 0.132803
H	 1.3298413259	 2.3330982022	 2.0904999785	 0.14217
H	 2.1025373258	 0.8776123622	 1.4277954874	 0.157666
H	-1.7745461522	 2.6740237708	-3.1192248055	 0.210888
45.5169	99.4975	103.9497	126.9136	212.2035	219.6019	330.7228	333.4542	383.9853	465.3712	525.6425	557.1642	643.598	648.3	660.2528	688.5218	694.5651	892.08	959.1009	1000.9037	1035.4351	1059.85	1116.3397	1252.2312	1322.9579	1328.0943	1417.3461	1496.2169	2237.3853	2255.1762	2375.5675	2944.8126	2982.0962	3027.6956	3498.1452	3502.1779
C#CC(OCC#N)C#C	C#CC(OCC#N)C#C	
InChI=1S/C7H5NO/c1-3-7(4-2)9-6-5-8/h1-2,7H,6H2	InChI=1S/C7H5NO/c1-3-7(4-2)9-6-5-8/h1-2,7H,6H2
