14
gdb 5704	4.87527	2.08072	1.48983	1.7993	62.59	-0.2194	0.002	0.2214	790.7927	0.111012	-378.73043	-378.72431	-378.723366	-378.761172	22.646	
C	-0.0780305424	 1.4913024358	 0.140599806	-0.287354
N	 1.3282607852	 1.8933796425	-0.1678024622	-0.317641
C	 2.1743564851	 0.7292910908	-0.5859551266	-0.286045
C	 1.2447528757	-0.4188635826	-0.3683269113	 0.242983
C	 0.0362952513	 0.0162189462	 0.0176043044	 0.301076
O	-0.7715719745	-1.052365666	 0.2398343174	-0.195067
C	 0.0475467078	-2.1130329073	-0.048528661	 0.035113
N	 1.2540327357	-1.8043716979	-0.4104961795	-0.337911
H	-0.3687428375	 1.8218653134	 1.1476599705	 0.123703
H	-0.8017827082	 1.9288135075	-0.5628739898	 0.112206
H	 1.3361144928	 2.6067568242	-0.8827204666	 0.226406
H	 2.5040504052	 0.8170711977	-1.6307163424	 0.110301
H	 3.0792626064	 0.6704463813	 0.032993653	 0.122696
H	-0.3929985625	-3.0924570056	 0.0506974481	 0.149534
64.8674	197.8989	254.3523	425.9173	568.701	640.8182	677.1169	684.9604	714.1019	811.9617	838.8347	911.6811	950.1578	1036.7991	1043.2839	1057.2805	1075.8321	1117.5556	1175.0835	1196.3176	1275.3401	1291.2815	1310.66	1400.1805	1411.3938	1462.3386	1518.6226	1523.9673	1525.814	1679.6959	2987.9097	3000.3568	3008.0358	3024.9152	3279.3673	3585.0477
C1NCC2=C1OC=N2	C1NCc2c1ocn2	
InChI=1S/C5H6N2O/c1-4-5(2-6-1)8-3-7-4/h3,6H,1-2H2	InChI=1S/C5H6N2O/c1-4-5(2-6-1)8-3-7-4/h3,6H,1-2H2
