19
gdb 33789	3.38887	1.37766	1.18038	4.84	79.11	-0.2339	0.0286	0.2625	1082.1614	0.163071	-382.07089	-382.063445	-382.062501	-382.102491	30.151	
N	 0.0148444257	-1.1580510709	-0.1089343847	-0.344433
C	-0.0256450467	-0.004486875	-0.0488516198	 0.226202
C	-0.0257104077	 1.4538975962	 0.03578415	 0.174828
C	-0.1925023888	 2.1212925684	 1.437267804	-0.251407
C	 0.7094509584	 3.2611753286	 0.8750469176	-0.029139
C	 1.35859007	 2.1848604639	-0.0394501373	-0.247878
C	-0.1247280722	 4.2207901086	 0.0098877017	-0.213209
C	-1.2942709232	 3.4401712493	-0.6411534614	-0.170612
N	-1.0033193911	 2.0173899528	-0.9003333545	-0.326918
H	-1.2079490314	 2.3428504957	 1.769506732	 0.116912
H	 0.3218391761	 1.5361165761	 2.2009920842	 0.122734
H	 1.3597551529	 3.7887281824	 1.574290382	 0.074954
H	 2.1464170268	 1.624122002	 0.4693909048	 0.11588
H	 1.6959990951	 2.4815432475	-1.0366909981	 0.096537
H	-0.5322211216	 5.0389830361	 0.6143069953	 0.10138
H	 0.5239131232	 4.6764569437	-0.7480499097	 0.10092
H	-2.1635947912	 3.4918081645	 0.0237645397	 0.118707
H	-1.6069932928	 3.9000027808	-1.5819735204	 0.10894
H	-0.6596962417	 1.8885998194	-1.8459697252	 0.225605
145.5995	155.3627	224.3765	311.1314	406.5035	423.3247	430.6335	550.3356	566.0969	570.7303	616.4038	766.1491	792.8045	822.4536	863.4921	883.4975	917.9591	944.3235	953.8106	990.639	1010.3307	1064.1187	1078.0913	1102.903	1122.8895	1178.021	1202.7051	1233.8698	1249.5882	1261.7364	1279.1353	1301.1842	1337.771	1362.4866	1394.8765	1473.1907	1477.67	1494.2457	1499.4386	1520.1156	2356.0306	3027.5818	3034.4904	3053.637	3069.4913	3082.2201	3095.6964	3097.0111	3117.6238	3141.0965	3524.9597
N#CC12CC(C1)CCN2	N#C[C@@]12C[C@@H](C1)CCN2	
InChI=1S/C7H10N2/c8-5-7-3-6(4-7)1-2-9-7/h6,9H,1-4H2	InChI=1S/C7H10N2/c8-5-7-3-6(4-7)1-2-9-7/h6,9H,1-4H2/t6-,7+
