17
gdb 48446	2.34256	1.48544	1.10534	3.0629	68.29	-0.2573	-0.0414	0.2159	1112.3907	0.13417	-458.912967	-458.904383	-458.903439	-458.947251	30.281	
O	 0.0142234727	-0.2100159233	 0.0132632076	-0.235971
C	-0.0148455956	 0.9924861942	 0.0254341439	 0.103833
C	 1.2026575173	 1.8958490085	 0.0071788373	 0.146166
C	 1.4395110317	 2.5917761639	 1.3797953576	-0.127508
O	 2.5998270203	 1.7843644517	 1.6272612929	-0.266621
C	 2.5385369198	 1.1862149802	 0.3150682003	-0.121719
C	 1.1543902683	 2.7840621713	-1.2168873826	-0.005838
C	 0.4497395752	 4.0736515088	-1.2386087769	-0.186101
O	 1.8758170465	 4.0119734544	-1.1655062548	-0.227193
H	-0.9820045013	 1.5449868966	 0.0600453462	 0.084008
H	 1.6855338664	 3.6559970658	 1.2920637458	 0.123855
H	 0.6604741715	 2.4479679792	 2.1390125778	 0.107168
H	 2.4820338919	 0.0946877755	 0.3548533636	 0.130868
H	 3.3757180534	 1.5023562589	-0.3182939486	 0.111196
H	 1.2617681645	 2.249239079	-2.16237787	 0.113194
H	 0.0442700519	 4.4526901258	-2.1745402594	 0.129922
H	-0.0451793843	 4.4336761195	-0.337402421	 0.120742
60.0724	83.3813	93.0406	198.5011	239.3282	254.5515	328.4759	384.3886	468.1124	612.2896	677.5848	832.6207	858.8897	878.0894	912.507	945.4099	963.633	999.9337	1033.5723	1045.4871	1098.042	1115.7412	1159.4268	1165.5026	1172.513	1175.542	1225.4055	1252.3213	1300.2373	1314.3397	1371.4851	1420.8887	1426.1952	1500.7774	1522.7422	1531.4686	1828.073	2867.8957	3014.233	3031.9212	3070.195	3088.8501	3095.2917	3096.8521	3177.8389
O=CC1(COC1)C1CO1	O=CC1(COC1)[C@H]1CO1	
InChI=1S/C6H8O3/c7-2-6(3-8-4-6)5-1-9-5/h2,5H,1,3-4H2	InChI=1S/C6H8O3/c7-2-6(3-8-4-6)5-1-9-5/h2,5H,1,3-4H2/t5-/m1/s1
