14
gdb 22718	3.85511	1.01847	0.88002	1.8935	69.49	-0.2621	-0.0547	0.2074	1251.016	0.098194	-473.738595	-473.730527	-473.729583	-473.771643	29.449	
O	-0.0359727496	 1.2799311566	-0.0589874655	-0.377134
N	 0.031659248	-0.1119224807	 0.0442403589	-0.24559
C	-1.1165385412	-0.6362083123	-0.0384078339	 0.451227
C	-2.5716274153	-0.1645709379	-0.088685788	-0.396864
C	-2.9558777394	-1.6470181278	 0.0787686132	 0.311403
O	-2.3767209592	-2.3813366673	-1.0020541338	-0.258784
C	-1.5100019617	-2.0757267105	 0.0893279124	-0.143627
C	-4.0609429127	-2.2579007824	 0.840311592	 0.066784
O	-4.8394743358	-1.6236108114	 1.5083444415	-0.251824
H	 0.8879540069	 1.5402177147	 0.0276027145	 0.314636
H	-2.8368667068	 0.4525618102	 0.7728837196	 0.15921
H	-2.9176482195	 0.3073967571	-1.009610533	 0.142636
H	-1.0143687922	-2.8972326737	 0.591639558	 0.132636
H	-4.1028716715	-3.3643649947	 0.7512545341	 0.095292
76.4772	141.2422	155.1532	234.103	279.8989	344.9765	403.6207	458.9209	484.5023	513.1426	613.1168	681.6179	740.2992	796.5242	846.1298	949.1466	963.6912	995.2134	1016.5151	1041.2262	1106.652	1137.5567	1204.3039	1233.9421	1268.1444	1360.0757	1413.7628	1425.687	1457.034	1792.4865	1809.6826	2913.4159	3082.9851	3141.1907	3208.1583	3811.7321
ON=C1CC2(OC12)C=O	ON=C1C[C@]2(O[C@@H]12)C=O	
InChI=1S/C5H5NO3/c7-2-5-1-3(6-8)4(5)9-5/h2,4,8H,1H2	InChI=1S/C5H5NO3/c7-2-5-1-3(6-8)4(5)9-5/h2,4,8H,1H2/t4-,5-/m0/s1
