19
gdb 95182	2.45112	1.69195	1.16527	3.2906	76.2	-0.2173	-0.0203	0.197	1089.6644	0.160955	-419.198212	-419.190073	-419.189129	-419.230987	31.591	
C	 0.0521814689	 1.53851628	-0.0034255544	-0.407637
C	 0.0063172239	 0.011718413	-0.0372072246	-0.057817
N	 0.7030480945	-0.4996563573	-1.2115850599	-0.295048
C	 0.7157913466	-1.9487313339	-1.3335102569	-0.178391
C	 1.4336506566	-2.5614614293	-0.1472171631	-0.021433
N	 2.5914179453	-1.8234129327	 0.3473407865	-0.310016
C	 1.3464836438	-1.8589899397	 1.165976955	-0.153749
C	 0.5564108799	-0.5891689484	 1.2652103624	 0.447671
O	 0.2625356811	-0.1216076024	 2.3426858363	-0.331172
H	 1.0882399892	 1.8834026378	-0.0599103888	 0.135107
H	-0.4998447041	 1.9612003135	-0.8492375092	 0.105216
H	-0.394577514	 1.9004634183	 0.9239352529	 0.142624
H	-1.0610342374	-0.3030536774	-0.0176558884	 0.079616
H	 0.322376293	-0.0763785226	-2.0491775056	 0.222203
H	-0.2946965135	-2.4015016803	-1.3867614993	 0.080166
H	 1.2394923575	-2.2127928858	-2.259506339	 0.10894
H	 1.4570921147	-3.648784431	-0.12570211	 0.092628
H	 3.2588177094	-2.4629558881	 0.7722116616	 0.240037
H	 1.3629401145	-2.4283948338	 2.0907094743	 0.101055
57.288	170.565	218.3928	280.7812	285.8923	337.7106	382.7784	430.7932	484.1288	540.0282	599.5691	654.0418	761.2967	782.4088	821.5044	892.1298	904.4555	909.2255	983.3157	998.9373	1052.451	1082.1534	1097.6831	1119.5837	1155.5412	1163.4416	1193.9304	1239.2156	1256.7662	1279.6142	1311.1185	1333.068	1384.6779	1396.7858	1409.5343	1444.5312	1484.6742	1494.3298	1500.0946	1509.9236	1801.9454	2849.2663	2901.5684	3043.7778	3053.4082	3113.2555	3134.1284	3147.1543	3157.9632	3498.7848	3545.5212
CC1NCC2NC2C1=O	C[C@H]1NC[C@H]2N[C@H]2C1=O	
InChI=1S/C6H10N2O/c1-3-6(9)5-4(8-5)2-7-3/h3-5,7-8H,2H2,1H3	InChI=1S/C6H10N2O/c1-3-6(9)5-4(8-5)2-7-3/h3-5,7-8H,2H2,1H3/t3-,4-,5-/m1/s1
