17
gdb 85460	2.56798	1.54104	1.16855	4.5081	68.95	-0.2628	0.0135	0.2764	1073.266	0.135441	-458.990458	-458.982402	-458.981458	-459.023203	30.87	
O	-0.0956935647	 1.598501505	 0.243912413	-0.430635
C	-0.0283321253	 0.1962011562	 0.030704305	 0.010955
C	 0.5829548444	-0.5475675599	 1.2238587537	-0.392443
C	-0.6142739703	-0.8404342437	 2.1242335826	 0.427568
O	-0.6242113712	-1.1484650066	 3.2786674112	-0.334967
O	-1.7535595693	-0.717518944	 1.3872559465	-0.253232
C	-1.449265835	-0.3403231648	 0.0485824827	 0.464226
C	-2.561406511	 0.2196927086	-0.7650665026	-0.316674
C	-2.0393711305	-1.1786664779	-1.0476056653	-0.340899
H	 0.8031564982	 1.9320476331	 0.3342163644	 0.288211
H	 0.4730213118	-0.0338342314	-0.9180501158	 0.080668
H	 1.0189952545	-1.5058251356	 0.9194521002	 0.141489
H	 1.3469952583	 0.0167092427	 1.761040102	 0.131956
H	-3.5257330676	 0.3024695309	-0.2777729287	 0.137417
H	-2.323029229	 1.022761419	-1.4525745364	 0.133608
H	-1.4525303193	-1.3475960673	-1.9443488292	 0.119337
H	-2.6598788239	-2.0127262645	-0.7406765333	 0.133416
83.2677	110.4119	218.3088	261.4331	299.8776	350.462	376.0573	500.6789	521.0747	547.699	575.7183	696.1968	762.0594	803.6147	877.6245	890.9803	910.6649	939.1814	991.0703	1003.0017	1015.9905	1056.2003	1077.18	1083.7769	1167.7082	1183.3158	1187.9144	1196.3467	1270.5106	1306.9758	1328.9954	1363.977	1430.278	1452.0269	1453.417	1501.1836	1890.5973	3020.1621	3059.4639	3127.1304	3134.0668	3147.6346	3223.4735	3240.6532	3813.4634
OC1CC(=O)OC11CC1	O[C@H]1CC(=O)OC21CC2	
InChI=1S/C6H8O3/c7-4-3-5(8)9-6(4)1-2-6/h4,7H,1-3H2	InChI=1S/C6H8O3/c7-4-3-5(8)9-6(4)1-2-6/h4,7H,1-3H2/t4-/m0/s1
