16
gdb 69288	4.1096	1.12062	0.98292	4.9882	77.14	-0.266	-0.0552	0.2107	1195.577	0.124119	-400.763341	-400.755447	-400.754503	-400.795674	29.887	
C	 0.0584472779	 1.5079998778	-0.0307176108	-0.486581
C	-0.0667906816	 0.0181337208	 0.1218790867	 0.408396
C	-1.3694675305	-0.7010114479	-0.2426863097	-0.32401
C	-1.3497559925	-1.9435619832	 0.6115543929	-0.172128
C	-0.2725262164	-1.9848677712	 1.4140058054	 0.238873
C	 0.0370889486	-2.9968017615	 2.3599123236	 0.198913
N	 0.3118248844	-3.7990878661	 3.1492401574	-0.335715
C	 0.6097453949	-0.797041545	 1.1501565481	-0.159084
O	 1.0932462166	-0.7613897738	-0.2047579627	-0.283172
H	 1.0371975995	 1.8465044943	 0.3168084046	 0.138717
H	-0.0480632526	 1.7980483062	-1.0817137882	 0.134579
H	-0.7178871845	 2.0257992643	 0.5418051548	 0.128166
H	-2.2499979917	-0.0830122417	-0.0240665771	 0.127279
H	-1.4083842035	-0.9410315756	-1.3120711575	 0.141308
H	-2.1106650156	-2.7127161977	 0.5581368204	 0.13182
H	 1.2839863671	-0.4098609096	 1.9073779621	 0.11264
114.9233	146.4102	189.9109	232.8278	305.5222	368.5846	391.8915	464.3816	504.8933	566.4565	625.9524	667.2041	758.5049	830.7321	845.9532	890.1688	920.2022	955.0744	990.941	1015.9364	1062.696	1094.3882	1178.3251	1192.5138	1225.3466	1260.002	1317.0379	1331.9441	1409.9262	1437.4224	1455.2513	1485.4585	1495.6005	1657.3713	2339.1582	3029.4267	3038.8086	3066.3043	3101.3115	3129.2992	3172.9533	3214.9819
CC12CC=C(C#N)C1O2	C[C@]12CC=C(C#N)[C@H]1O2	
InChI=1S/C7H7NO/c1-7-3-2-5(4-8)6(7)9-7/h2,6H,3H2,1H3	InChI=1S/C7H7NO/c1-7-3-2-5(4-8)6(7)9-7/h2,6H,3H2,1H3/t6-,7+/m1/s1
