21
gdb 100439	5.39079	0.48358	0.45474	0.1449	108.98	-0.2244	0.0029	0.2273	2478.9534	0.179554	-349.928579	-349.917121	-349.916177	-349.967559	39.322	
C	 0.0701974536	 1.5500019484	 0.0575354898	-0.393701
C	-0.0041237169	 0.021988358	-0.0024199942	-0.158191
C	-1.4493132336	-0.5394203579	-0.0349552079	-0.196316
C	-2.2262846619	-0.1244063996	-1.3025905792	-0.383702
C	-1.4327465266	-1.992853306	 0.1027710043	 0.29291
C	-1.407287071	-3.1997239758	 0.2067098693	-0.178004
C	-1.3800992465	-4.5551220785	 0.320772089	-0.207322
C	-1.3559324945	-5.7611370297	 0.4219177682	 0.236702
C	-1.3271226116	-7.2078579323	 0.5427731015	-0.517738
H	 1.1089866845	 1.8796451326	 0.1557101328	 0.116081
H	-0.3376898142	 2.0194013641	-0.8425262854	 0.120926
H	-0.4837643182	 1.9409510985	 0.9186667131	 0.115472
H	 0.5337157674	-0.3487423722	-0.8833217543	 0.106589
H	 0.5055000038	-0.4021133825	 0.8692799056	 0.109728
H	-1.9816507523	-0.1265897999	 0.8354269021	 0.105132
H	-3.231501127	-0.5531995715	-1.2966669442	 0.127234
H	-2.3199999538	 0.9631162965	-1.3636074931	 0.117341
H	-1.7123888394	-0.479579188	-2.2012747513	 0.125262
H	-2.3404663779	-7.624144646	 0.5771818792	 0.153908
H	-0.8083696509	-7.6675087943	-0.3063326361	 0.153826
H	-0.8089590931	-7.5202410939	 1.4566966807	 0.153862
14.5649	54.8721	58.4967	99.9392	151.1664	180.0519	217.0093	268.15	279.3979	321.507	332.0666	364.2215	464.1387	495.7305	551.6555	576.0987	639.4114	772.7373	819.8879	914.9848	970.8723	986.209	1037.5967	1048.6321	1048.7543	1100.9476	1127.775	1177.012	1272.2197	1287.6029	1319.5741	1341.2776	1376.4585	1405.3521	1413.0312	1414.6115	1473.0737	1473.188	1483.937	1491.7296	1498.3647	1505.0551	1510.0624	2274.7656	2384.4973	2989.3813	3021.966	3033.225	3036.5932	3044.0047	3072.2206	3082.9758	3083.1009	3100.8803	3109.833	3118.0422	3124.0468
CCC(C)C#CC#CC	CC[C@@H](C)C#CC#CC	
InChI=1S/C9H12/c1-4-6-7-8-9(3)5-2/h9H,5H2,1-3H3	InChI=1S/C9H12/c1-4-6-7-8-9(3)5-2/h9H,5H2,1-3H3/t9-/m1/s1
