25
gdb 42140	1.80325	1.74183	1.01564	1.0043	88.41	-0.2444	0.0835	0.3279	1283.1338	0.232062	-389.494411	-389.485436	-389.484492	-389.527542	35.872	
C	-0.0795412143	 1.5530029933	 0.0302252328	-0.194602
C	 1.2970444177	 2.2425587374	 0.1061065177	-0.179815
C	 2.2284320233	 1.7449156357	 1.2404845908	-0.174332
C	 3.6136827163	 1.2557536754	 0.777829639	-0.20703
C	 3.566813073	 0.1596831739	-0.2886934534	-0.058482
O	 2.7139468801	-0.8905273678	 0.1393312938	-0.243001
C	 1.8893874298	-1.4567714486	-0.8641375366	-0.068031
C	 0.728749814	-0.5471864849	-1.2987547655	-0.209679
C	-0.0790068488	 0.0168708274	-0.1041313977	-0.175611
H	-0.6567443792	 1.8126746285	 0.9276626901	 0.091349
H	-0.6301400529	 1.9846981522	-0.8164278604	 0.088153
H	 1.8015023473	 2.140504729	-0.8616615681	 0.089563
H	 1.1233712762	 3.3188841153	 0.2172692088	 0.089928
H	 2.3779156718	 2.5436536293	 1.9749879212	 0.087599
H	 1.7482375938	 0.9258186125	 1.7824008737	 0.112595
H	 4.2019358799	 2.0906482784	 0.373880895	 0.09108
H	 4.1628030847	 0.8810918972	 1.6498857502	 0.100799
H	 3.2188987326	 0.5754357814	-1.2426161598	 0.08967
H	 4.5787888909	-0.2356245451	-0.4679779465	 0.088376
H	 2.486835679	-1.756762125	-1.7400230314	 0.084041
H	 1.4870132051	-2.3721793837	-0.4152238941	 0.103892
H	 1.1096865128	 0.2707250644	-1.9207661059	 0.097764
H	 0.0850974136	-1.1382589225	-1.9609953623	 0.0936
H	 0.3080301399	-0.4232814099	 0.8201595028	 0.113191
H	-1.1225216166	-0.3089802139	-0.1769537841	 0.088982
147.3209	154.3714	167.7047	186.4629	263.5686	306.4559	343.7528	349.1943	380.5102	470.471	494.6312	547.3091	701.8008	733.4546	779.6342	811.3723	841.2643	873.6693	923.6526	945.9558	985.9928	1006.6848	1042.947	1049.2643	1072.887	1094.2208	1111.5035	1125.5822	1151.0614	1185.9903	1219.9744	1242.0997	1260.3135	1267.6264	1302.9197	1315.6622	1328.5883	1338.098	1360.3315	1376.7482	1389.5019	1392.2635	1397.5787	1407.6604	1425.7744	1477.2455	1482.2723	1483.1826	1486.5719	1495.5149	1497.9806	1505.347	1523.8831	2974.398	2983.7397	3007.8564	3021.0035	3026.3628	3028.7825	3034.4329	3038.8806	3043.1067	3047.7634	3052.7193	3059.6161	3066.5611	3074.609	3082.6552	3095.1716
C1CCCCOCCC1	C1CCCCOCCC1	
InChI=1S/C8H16O/c1-2-4-6-8-9-7-5-3-1/h1-8H2	InChI=1S/C8H16O/c1-2-4-6-8-9-7-5-3-1/h1-8H2
