13
gdb 48238	2.03987	1.66973	0.96697	3.7297	64.23	-0.2652	-0.1118	0.1534	1128.2609	0.086645	-489.912403	-489.90357	-489.902626	-489.946958	29.632	
N	 0.2329363602	 0.9592444497	-0.1310045155	-0.442343
C	-0.0059350672	-0.2600882464	-0.3702332087	 0.106223
N	-1.2721335071	-0.8130160661	-0.0624042294	-0.180893
C	-2.3728571901	 0.0916407961	 0.1042696767	 0.174401
O	-3.4433393864	-0.2210999809	 0.5318180433	-0.25036
C	-1.4679806742	-2.201575622	 0.0350887508	 0.32473
O	-2.5294966343	-2.7534642823	-0.1020860773	-0.271114
C	-0.2661626717	-3.0795937591	 0.4302964094	 0.097783
O	 0.822641718	-2.6886865816	 0.7511909573	-0.230482
H	 1.1580376583	 1.2147509972	-0.4711993659	 0.24698
H	 0.6725952438	-0.9659853774	-0.8440567795	 0.138246
H	-2.0768441395	 1.103927462	-0.2010040811	 0.15003
H	-0.56190962	-4.1466554693	 0.4208506999	 0.136798
54.7189	103.0326	118.5196	138.181	217.5412	269.4454	286.3939	319.1928	452.7425	515.0762	576.9214	621.9399	718.6196	769.3646	824.4051	1022.2871	1025.9835	1059.3184	1067.3983	1156.5008	1272.3954	1321.4627	1371.2582	1433.0058	1436.98	1713.753	1782.4688	1830.2749	1865.5882	2964.1018	3062.3335	3149.0374	3512.4999
N=CN(C=O)C(=O)C=O	N=CN(C=O)C(=O)C=O	
InChI=1S/C4H4N2O3/c5-2-6(3-8)4(9)1-7/h1-3,5H	InChI=1S/C4H4N2O3/c5-2-6(3-8)4(9)1-7/h1-3,5H
