16
gdb 45812	2.95405	1.62529	1.11648	1.6325	72.42	-0.2395	-0.0012	0.2383	1040.4173	0.128206	-434.097425	-434.090227	-434.089283	-434.129271	28.013	
O	-0.0159593767	-0.0973105185	-0.2811936832	-0.395475
C	-0.0213563322	 1.1112209393	-0.1434840537	 0.432739
N	-1.2065159949	 1.8268242543	-0.3793577536	-0.346353
C	-1.6623938265	 3.0481741787	 0.1084820545	 0.085072
N	-1.0443350499	 4.1087816155	 0.4219532999	-0.243586
C	 0.3508537913	 4.2737035449	 0.2061173331	 0.03341
C	 1.3621896855	 4.1175655596	 1.3122516676	-0.309667
C	 1.3955109422	 3.1891673174	 0.1104576055	-0.027942
N	 1.0644255329	 1.8130677182	 0.2986023478	-0.334318
H	-1.93520989	 1.1717357894	-0.6262476461	 0.2616
H	-2.749573135	 3.0529443003	 0.2047947457	 0.120323
H	 0.5375391376	 5.1213936005	-0.4497945615	 0.114001
H	 2.1360743737	 4.867938102	 1.4283441885	 0.118798
H	 1.0014750099	 3.6719639173	 2.2324318168	 0.129222
H	 2.1839001644	 3.3548382287	-0.6218151148	 0.104576
H	 1.8328427179	 1.1920114525	 0.5077419235	 0.257599
97.3622	122.2506	280.0186	342.9727	385.2402	420.9083	505.6025	555.9579	593.3807	664.8524	709.8046	757.3309	764.8456	837.3835	848.7835	866.6315	939.6222	974.5668	1011.3402	1053.786	1066.3392	1110.8004	1128.7363	1167.8387	1207.5659	1259.7705	1350.537	1407.3389	1426.9362	1459.2519	1468.8502	1482.4436	1495.048	1764.9068	1806.052	3109.2736	3114.6868	3129.2678	3138.9629	3234.1205	3606.0633	3608.562
O=C1NC=NC2CC2N1	O=C1NC=N[C@H]2C[C@H]2N1	
InChI=1S/C5H7N3O/c9-5-7-2-6-3-1-4(3)8-5/h2-4H,1H2,(H2,6,7,8,9)	InChI=1S/C5H7N3O/c9-5-7-2-6-3-1-4(3)8-5/h2-4H,1H2,(H2,6,7,8,9)/t3-,4+/m0/s1
