18
gdb 29817	3.15986	1.35336	0.95878	4.0375	84.39	-0.2053	-0.0315	0.1738	1218.8862	0.148635	-402.028608	-402.020004	-402.01906	-402.061949	31.819	
C	-0.0036649149	 1.4559352238	 0.0648227075	-0.331016
N	-0.0114652717	-0.0019550437	 0.0042927158	-0.138014
C	-1.1787004433	-0.7050069995	 0.0808886096	-0.028475
C	-1.2257335651	-2.0666851218	 0.0279698877	 0.189019
C	-2.52480998	-2.82281731	 0.1143200973	-0.491679
C	 0.0232350616	-2.7411688027	-0.1139177351	-0.113904
C	 1.1984631539	-2.0606077451	-0.1921828511	-0.247766
C	 1.2554661367	-0.6159767269	-0.1366750579	 0.42291
O	 2.2622332923	 0.077996672	-0.1990444394	-0.41837
H	 0.6033721506	 1.7918906335	 0.9088880397	 0.155409
H	 0.4443216609	 1.8654898017	-0.8436763895	 0.155419
H	-1.0271131762	 1.8168735104	 0.1728682309	 0.123147
H	-2.0758847516	-0.1052666599	 0.1876509753	 0.120581
H	-2.6972814537	-3.431601166	-0.7810872712	 0.1314
H	-2.5378586605	-3.5052548343	 0.9723570068	 0.1314
H	-3.374504107	-2.1424962517	 0.2201511881	 0.121863
H	 0.0271263078	-3.8274781514	-0.1599029964	 0.103418
H	 2.1508456201	-2.5649525286	-0.2999580979	 0.114657
89.4308	122.7048	132.675	189.6913	280.1474	296.5752	349.2526	416.4077	453.329	518.9983	542.0883	601.1304	714.8992	753.7043	807.8028	853.8347	886.873	933.6503	996.9701	1030.6312	1066.6901	1068.8471	1146.4433	1153.5872	1166.3176	1219.311	1279.4354	1350.7213	1410.0459	1422.5032	1455.0283	1463.4455	1465.6126	1481.0794	1502.8708	1513.6689	1574.5828	1680.4589	1758.2204	3023.4181	3056.3941	3072.882	3107.87	3122.7528	3150.8236	3158.4737	3187.8596	3213.1151
CN1C=C(C)C=CC1=O	Cn1cc(C)ccc1=O	
InChI=1S/C7H9NO/c1-6-3-4-7(9)8(2)5-6/h3-5H,1-2H3	InChI=1S/C7H9NO/c1-6-3-4-7(9)8(2)5-6/h3-5H,1-2H3
