19
gdb 12073	3.56344	1.63442	1.48177	0.656	70.92	-0.2276	0.0677	0.2953	948.9501	0.164902	-365.016437	-365.00828	-365.007335	-365.048535	31.57	
C	 0.092427144	 1.5260811114	-0.0774321966	-0.404995
C	 0.0068913085	 0.0077963631	 0.113382242	-0.221367
C	-1.4132853732	-0.5429336322	 0.0292113447	 0.435101
O	-2.2453603114	-0.0559598459	 1.070149982	-0.495354
C	-2.144406443	-0.5053767918	-1.376815539	-0.286822
C	-2.283260836	-2.0279930822	-1.2927135184	-0.039743
N	-0.8986729764	-2.5585252189	-1.2142887631	-0.341031
C	-1.5760954788	-2.0719533208	 0.0114993523	-0.092284
H	 1.1310018891	 1.8670074002	-0.0360144877	 0.119586
H	-0.3176973566	 1.834023617	-1.0457026828	 0.119579
H	-0.4501851863	 2.0686595048	 0.7061258073	 0.104621
H	 0.6080602958	-0.5009604628	-0.6459315924	 0.120979
H	 0.4198253841	-0.2648773263	 1.0927145616	 0.094898
H	-2.3077638784	 0.9004214832	 0.9777789342	 0.277134
H	-3.0981690883	 0.019393166	-1.2919842	 0.100782
H	-1.5772231582	-0.1347652546	-2.2347333193	 0.097356
H	-3.0908148877	-2.6445728848	-1.6672661806	 0.090742
H	-0.9647339431	-3.5760433379	-1.2025395851	 0.229153
H	-1.7192877642	-2.7053748876	 0.8782848011	 0.091663
101.5984	162.7479	195.5839	248.332	268.9533	308.0941	380.2474	441.5381	448.0267	532.4496	634.1398	774.1622	783.2819	817.6312	843.2444	885.9135	934.5259	955.3771	974.9191	984.2232	1014.3775	1026.9755	1089.3838	1095.95	1102.7032	1147.8545	1188.5474	1212.0453	1251.4834	1275.3428	1304.6105	1312.3311	1338.4709	1383.8274	1402.0986	1412.7897	1459.6142	1483.096	1501.7746	1509.7746	3025.1831	3032.1589	3060.6394	3077.4024	3100.9432	3104.9333	3126.5885	3184.7583	3198.8214	3472.8404	3811.3766
CCC1(O)CC2NC12	CC[C@@]1(O)C[C@H]2N[C@@H]12	
InChI=1S/C6H11NO/c1-2-6(8)3-4-5(6)7-4/h4-5,7-8H,2-3H2,1H3	InChI=1S/C6H11NO/c1-2-6(8)3-4-5(6)7-4/h4-5,7-8H,2-3H2,1H3/t4-,5-,6-/m1/s1
