17
gdb 55321	2.09741	1.55708	1.0836	5.4009	73.07	-0.2426	-0.0233	0.2193	1145.1881	0.134978	-418.00944	-418.000358	-417.999414	-418.044069	32.056	
C	 0.2195265709	 1.5702328667	-0.186707395	-0.500021
C	 0.1474289947	 0.084145288	 0.0996107448	 0.386417
O	 0.4100057233	-0.3976256102	 1.1733492131	-0.284671
C	-0.2252291085	-0.8214547512	-1.07414326	-0.079828
N	-0.7176001119	-2.1559266176	-0.7274748867	-0.281622
C	-1.6650460736	-2.1542514594	-1.854542802	-0.164117
C	-1.527222037	-0.5998340877	-1.9289822216	-0.204204
C	-2.5935843573	 0.1388383464	-1.273743798	 0.308713
N	-3.4407290417	 0.7432076595	-0.7695014559	-0.332068
H	 0.7506131761	 2.0740575304	 0.6217252471	 0.150135
H	 0.7140281809	 1.7695009595	-1.1438628127	 0.127813
H	-0.7961428528	 1.9768641727	-0.2538418736	 0.175198
H	 0.6374717019	-0.8093084557	-1.7657264539	 0.094415
H	-0.0360380005	-2.9031748181	-0.6866574358	 0.233617
H	-1.2987040808	-2.6159006198	-2.7822890822	 0.104559
H	-2.6568669864	-2.5489888354	-1.619902959	 0.133936
H	-1.3661445772	-0.1881387481	-2.9259776286	 0.131728
54.8951	99.2646	113.0179	134.8828	197.0424	228.7391	316.5087	377.3394	482.5803	500.6303	577.0581	620.4942	677.7534	743.1294	814.2839	913.2084	934.9651	969.901	999.5448	1039.1543	1062.9098	1088.523	1109.1752	1136.8997	1183.287	1202.4489	1243.8701	1311.8977	1347.3934	1367.2081	1382.8376	1392.2867	1465.0152	1476.1726	1523.067	1824.8906	2354.4313	2930.1498	3002.1616	3036.3711	3090.947	3099.8218	3109.1546	3152.1537	3561.0999
CC(=O)C1NCC1C#N	CC(=O)[C@H]1NC[C@H]1C#N	
InChI=1S/C6H8N2O/c1-4(9)6-5(2-7)3-8-6/h5-6,8H,3H2,1H3	InChI=1S/C6H8N2O/c1-4(9)6-5(2-7)3-8-6/h5-6,8H,3H2,1H3/t5-,6-/m1/s1
