14
gdb 24539	3.92657	1.74618	1.20867	3.8887	80.44	-0.2183	-0.0724	0.1459	941.4868	0.104949	-399.601524	-399.595611	-399.594667	-399.631634	24.119	
O	-0.0443200893	 1.3043004043	 0.0100357346	-0.17799
C	 1.090278068	 2.020305378	 0.0025616914	 0.038726
C	 2.3281745557	 1.4553454208	-0.0130792112	-0.159776
C	 2.4734304662	 0.0414009093	-0.0224106835	-0.224019
C	 1.3378834253	-0.7232123124	-0.0152049157	 0.24257
C	 0.9678132747	-2.1006283435	-0.0191397696	-0.305654
C	-0.4084679251	-2.0979393601	-0.0052302105	-0.029425
N	-0.988851964	-0.8271416725	 0.0077204763	-0.355241
C	 0.0428669	-0.0388237111	 0.0016764929	 0.369207
H	 0.891087816	 3.0831253983	 0.0104859441	 0.148714
H	 3.1919079131	 2.1076012568	-0.0181732243	 0.120529
H	 3.4653422187	-0.3995619904	-0.0348750601	 0.121155
H	 1.6267896134	-2.9547857458	-0.0305529329	 0.100496
H	-1.0600579026	-2.9623958517	-0.0034650115	 0.110708
207.4144	263.0162	386.5835	450.1731	541.7391	567.7508	605.6423	610.2286	740.5372	743.5245	777.5333	800.9083	876.3149	910.8095	915.7773	921.9215	966.575	1050.4624	1068.2354	1099.9408	1150.6164	1213.3579	1264.6453	1297.9646	1366.2212	1404.3732	1431.3305	1479.738	1569.8428	1593.7046	1675.6148	3181.4496	3216.9754	3219.3586	3241.4117	3255.7889
O1C=CC=C2C=CN=C12	o1cccc2ccnc12	
InChI=1S/C7H5NO/c1-2-6-3-4-8-7(6)9-5-1/h1-5H	InChI=1S/C7H5NO/c1-2-6-3-4-8-7(6)9-5-1/h1-5H
