24
gdb 122895	4.51129	0.50914	0.47263	4.2356	91.35	-0.3083	0.0396	0.3479	2360.1478	0.216046	-368.448638	-368.437306	-368.436361	-368.486284	39.938	
C	 0.0065460535	 1.6278464319	-0.0710164894	-0.380555
C	 0.0079974537	 0.0978555129	-0.0147217419	-0.166122
C	-1.4010760489	-0.5039148295	 0.0188554416	-0.163174
C	-1.4072889221	-2.0360722595	 0.0751437109	-0.197214
C	-2.8243787357	-2.6184161089	 0.1154858758	-0.182175
C	-2.8685452512	-4.1658937257	 0.0735652864	-0.14365
C	-2.2334823521	-4.8389785259	 1.3065461164	-0.389644
C	-4.2562391933	-4.6171165591	-0.0835042865	 0.264526
N	-5.3531659891	-4.9636513984	-0.1976150508	-0.325282
H	 1.024926398	 2.0277379314	-0.095937697	 0.113097
H	-0.5156211657	 1.9905550987	-0.9632881189	 0.115377
H	-0.4978732976	 2.0556363533	 0.8025223384	 0.115044
H	 0.5507727968	-0.3008924908	-0.8820495805	 0.095452
H	 0.5652162755	-0.2363558015	 0.8704891993	 0.095024
H	-1.9449518094	-0.1066043185	 0.8871193892	 0.096307
H	-1.9604866438	-0.1701331466	-0.8658868748	 0.096643
H	-0.8745987214	-2.4342210507	-0.8000026902	 0.096274
H	-0.8386835802	-2.3625326223	 0.9544952893	 0.101889
H	-3.3460577287	-2.2759914473	 1.0178109131	 0.11372
H	-3.3976056777	-2.2337360097	-0.7357711118	 0.117088
H	-2.3270609483	-4.4992810993	-0.822069027	 0.124723
H	-2.3216577156	-5.9263485283	 1.2448281902	 0.137735
H	-1.1731472061	-4.5859468925	 1.3740757679	 0.129357
H	-2.7286533005	-4.5085082937	 2.2243586702	 0.135563
51.342	56.6383	82.3621	131.6346	138.5176	170.8328	207.5883	243.1055	250.2574	288.1214	352.2741	362.0938	466.149	556.012	582.8548	733.7101	757.4473	812.2809	848.716	898.4348	927.2508	951.2694	1010.0185	1030.9466	1051.0041	1060.2523	1076.2045	1125.0922	1137.5054	1192.4427	1235.1945	1261.9144	1293.7042	1317.2541	1330.119	1335.6511	1347.664	1358.8133	1394.1067	1402.672	1414.5823	1415.9558	1480.5851	1483.2979	1490.4196	1497.8965	1500.6147	1501.5812	1505.2538	1513.9553	2354.944	3005.0167	3009.2554	3017.8356	3020.5193	3029.9267	3030.5221	3034.6735	3045.0262	3051.3531	3060.4633	3080.9961	3097.3598	3103.0605	3125.1009	3133.3852
CCCCCC(C)C#N	CCCCC[C@@H](C)C#N	
InChI=1S/C8H15N/c1-3-4-5-6-8(2)7-9/h8H,3-6H2,1-2H3	InChI=1S/C8H15N/c1-3-4-5-6-8(2)7-9/h8H,3-6H2,1-2H3/t8-/m1/s1
