21
gdb 107626	2.48282	1.47051	1.11437	1.3186	77.09	-0.2316	0.0654	0.2971	1169.6774	0.182445	-424.214074	-424.205059	-424.204115	-424.247548	34.689	
C	-0.3784976853	 1.5630040641	-0.340762449	-0.378994
C	 0.0432611666	 0.120473719	-0.0289725422	-0.291113
C	 0.8588488279	-0.5197422239	-1.1313244124	 0.30614
C	 0.1654189797	-1.110493868	-2.3611575368	-0.392149
C	 0.9080031121	-1.9951366721	-1.3937068267	 0.066314
O	 2.2069181633	-2.4148694593	-1.730466612	-0.259471
C	 2.9623491754	-1.257660622	-2.0671591891	-0.118293
C	 2.2876600682	-0.0436503965	-1.375177791	 0.038864
O	 2.4372760081	 1.1630350244	-2.1049250414	-0.430739
H	 0.4935397788	 2.1913640707	-0.5409079102	 0.137677
H	-1.0218041576	 1.5982372689	-1.2268641718	 0.110856
H	-0.9351880684	 1.9983515039	 0.4947195548	 0.108685
H	 0.6276900298	 0.1009569616	 0.9008296614	 0.099798
H	-0.8492157529	-0.4895573687	 0.15970428	 0.092745
H	-0.919006771	-1.1424701811	-2.3369430183	 0.116655
H	 0.5796556108	-0.9614302738	-3.3538672328	 0.108752
H	 0.3837798765	-2.7313198291	-0.7949401624	 0.103441
H	 3.9953412375	-1.4190289919	-1.7483727037	 0.115751
H	 2.9697534504	-1.0871323688	-3.1547119013	 0.090277
H	 2.7595523781	 0.1574580807	-0.4070145628	 0.094437
H	 1.8713508321	 1.1033976019	-2.8830943923	 0.280368
86.0114	125.8008	176.204	211.6134	241.1214	304.1073	313.4204	341.8826	390.1046	462.7916	516.7602	606.4015	680.3013	703.9664	782.1154	829.692	880.1343	927.7428	968.1018	988.8516	1008.5372	1027.0023	1033.757	1037.0704	1070.8282	1094.1949	1103.3468	1126.0539	1160.412	1215.1988	1230.9707	1257.5968	1299.1545	1312.8132	1337.379	1354.5408	1377.1176	1403.4054	1411.7284	1437.3939	1477.3212	1489.2811	1496.5482	1511.2224	1522.8027	2985.8293	3011.9225	3036.031	3045.2666	3051.3346	3092.7024	3101.1429	3121.2517	3123.2438	3178.1094	3207.6582	3796.6562
CCC12CC1OCC2O	CC[C@]12C[C@H]1OC[C@H]2O	
InChI=1S/C7H12O2/c1-2-7-3-6(7)9-4-5(7)8/h5-6,8H,2-4H2,1H3	InChI=1S/C7H12O2/c1-2-7-3-6(7)9-4-5(7)8/h5-6,8H,2-4H2,1H3/t5-,6-,7-/m1/s1
