21
gdb 95015	2.47353	1.82612	1.39741	1.7038	80.26	-0.2432	0.078	0.3212	1023.1906	0.184473	-387.067191	-387.059511	-387.058567	-387.099083	31.176	
C	-0.0732811958	 1.5852816123	-0.0419832578	-0.408558
C	 0.0385472618	 0.0606192538	-0.0030265141	 0.035458
C	 0.7711687119	-0.5492752827	-1.2274331456	-0.211501
C	 1.3097867864	-1.9243255168	-0.765459379	-0.229079
C	 1.5755575776	-1.7766073455	 0.742011066	-0.054571
C	 2.8699271947	-1.0837065028	 1.2188732291	 0.016325
O	 3.0034351424	 0.1651760354	 0.5269573325	-0.242618
C	 2.1293172941	 0.1087207823	 1.6631221928	 0.013054
C	 0.7811457896	-0.5058499023	 1.222718189	-0.062708
H	 0.919866675	 2.046265983	-0.053638616	 0.130319
H	-0.6061135002	 1.9184490428	-0.9388906032	 0.110735
H	-0.6162730445	 1.9716634513	 0.8276996413	 0.104453
H	-0.9763370059	-0.3604510504	 0.0245473316	 0.066303
H	 0.107444472	-0.6356603063	-2.0942801792	 0.081263
H	 1.6039728104	 0.0978993912	-1.5101250897	 0.119532
H	 0.5497732844	-2.6991832471	-0.9196578289	 0.093459
H	 2.1984519527	-2.2314858946	-1.3254350513	 0.099584
H	 1.3710601157	-2.6818877417	 1.3179553812	 0.0714
H	 3.7838202968	-1.5303646572	 1.5949081	 0.098705
H	 2.332290492	 0.8071084365	 2.4673016493	 0.099049
H	 0.1298615891	-0.6810586111	 2.082664232	 0.069397
103.5784	190.1979	221.9462	241.2792	295.1431	379.1007	467.2282	523.3066	609.5321	666.5443	746.0574	783.4181	789.1182	852.8078	864.8442	888.1355	901.5602	933.9504	947.1518	969.6596	989.4181	1004.8713	1047.0703	1069.4538	1070.9892	1121.4899	1134.5469	1152.8114	1194.6596	1224.2179	1234.6614	1250.5369	1269.8385	1296.1373	1311.1983	1329.4521	1348.8433	1364.6261	1373.8108	1389.5076	1414.1292	1482.6453	1496.7653	1501.2416	1503.4625	2998.3099	3028.7442	3032.7575	3050.9511	3075.2518	3080.6007	3090.2141	3092.2863	3102.6437	3115.1777	3170.4913	3185.9721
CC1CCC2C3OC3C12	C[C@H]1CC[C@H]2[C@H]3O[C@H]3[C@@H]12	
InChI=1S/C8H12O/c1-4-2-3-5-6(4)8-7(5)9-8/h4-8H,2-3H2,1H3	InChI=1S/C8H12O/c1-4-2-3-5-6(4)8-7(5)9-8/h4-8H,2-3H2,1H3/t4-,5+,6-,7+,8-/m0/s1
