15
gdb 127362	3.69156	1.29542	0.9647	4.3945	71.95	-0.2243	-0.0332	0.1911	1151.8951	0.113314	-450.153114	-450.144755	-450.143811	-450.186835	29.247	
C	 0.0789179395	 1.4434913138	 0.0311118153	-0.32771
N	 0.026961964	-0.0025239447	 0.0034669505	-0.097576
C	-0.0923662916	-0.8392991615	-1.0736086569	 0.07119
N	-0.1098615434	-2.0934987725	-0.7706806322	-0.226952
N	 0.0072369767	-2.0959750308	 0.6204767485	-0.13823
C	 0.0275192815	-3.2797415032	 1.3427650056	 0.179247
O	-0.050127994	-4.3799121893	 0.8689600272	-0.276238
C	 0.0969043749	-0.7868510243	 1.1513092297	 0.475627
N	 0.2123889368	-0.3013150612	 2.3220735287	-0.601054
H	 1.0175018955	 1.7802795549	 0.4794985591	 0.160506
H	 0.0051624635	 1.8189685079	-0.9907978012	 0.139152
H	-0.7459281062	 1.8404216293	 0.6289795581	 0.160531
H	-0.1650915779	-0.469790887	-2.0857677981	 0.161288
H	 0.1255726102	-3.0763047135	 2.424170532	 0.091214
H	 0.2491656505	-1.0083952079	 3.0489228138	 0.229004
63.0614	81.2241	181.4486	192.6208	209.3996	292.3664	299.7869	416.3111	537.078	625.4831	717.0073	724.2905	728.8406	767.3733	845.6333	885.4078	964.5429	1016.6029	1076.8741	1140.1894	1160.452	1192.8126	1265.632	1322.169	1373.547	1432.4907	1446.9991	1465.3327	1469.6441	1521.3934	1643.8454	1741.1593	1834.4817	2974.2954	3050.8591	3116.262	3147.6904	3258.8297	3555.8438
CN1C=NN(C=O)C1=N	CN1C=NN(C=O)[C@H]1[NH]	
InChI=1S/C4H6N4O/c1-7-2-6-8(3-9)4(7)5/h2-3,5H,1H3	InChI=1S/C4H7N4O/c1-7-2-6-8(3-9)4(7)5/h2-5H,1H3/t4-/m0/s1
