15
gdb 28812	3.07094	1.47837	1.16382	6.1485	75.67	-0.2517	-0.0881	0.1637	1054.8384	0.11341	-416.847338	-416.839742	-416.838797	-416.8795	28.212	
C	 0.1252194214	 1.3840380442	 0.4251721377	-0.492091
C	-0.0040898825	-0.0678552066	 0.0481075431	 0.258859
C	-1.1724151817	-0.7444947849	 0.2062298917	-0.168422
C	-1.4310583395	-2.0980989556	-0.2518858877	 0.002289
N	-0.5870249682	-3.0528177983	-0.4103519316	-0.222095
C	 0.7289017484	-2.8447894367	 0.0385187568	 0.364879
O	 1.2244768033	-3.4811149379	 0.9283730443	-0.300336
N	 1.4529748123	-1.9094360161	-0.7216874136	-0.214894
C	 1.1392810867	-0.6703450127	-0.6414835827	-0.033474
H	 0.9154376111	 1.5206595314	 1.1725589581	 0.154196
H	 0.4035477928	 1.9918613271	-0.4435200227	 0.146003
H	-0.8065726786	 1.7774256082	 0.8363111719	 0.137648
H	-2.0331155898	-0.2004421729	 0.5886531414	 0.113955
H	-2.4702981579	-2.3184670655	-0.5082742159	 0.128656
H	 1.7859585522	 0.0321769162	-1.1750575306	 0.124827
103.5071	141.7269	198.002	286.5263	321.2918	344.8877	372.4466	497.9491	557.3346	628.9493	659.3726	731.5967	829.8305	859.6387	910.2915	931.5686	962.2698	980.2441	1000.0214	1068.6541	1090.8552	1154.4974	1192.8709	1374.6844	1409.3762	1416.5464	1427.7642	1477.7097	1488.2633	1586.2436	1665.5779	1688.2019	1829.0569	3032.1865	3084.5627	3089.6869	3099.2995	3130.5889	3157.2006
CC1=CC=NC(=O)N=C1	Cc1ccnc(=O)nc1	
InChI=1S/C6H6N2O/c1-5-2-3-7-6(9)8-4-5/h2-4H,1H3	InChI=1S/C6H6N2O/c1-5-2-3-7-6(9)8-4-5/h2-4H,1H3
