18
gdb 93055	2.52989	1.70009	1.10496	3.8402	81.83	-0.2293	-0.0502	0.1791	1098.0004	0.149331	-401.987949	-401.979704	-401.97876	-402.020888	30.934	
C	-0.0370844217	 1.4730949316	 0.0948648753	-0.35318
N	 0.0060084396	 0.0220033475	 0.033676666	-0.089204
C	-1.2524598	-0.7212351718	 0.0408962419	-0.245309
C	-1.4341102342	-1.5591806576	 1.2803275612	-0.072209
C	-0.5985914542	-2.5720448935	 1.5461681401	-0.064826
C	 0.5317681624	-2.9243030772	 0.7006262286	-0.081322
C	 1.2428479918	-2.098842671	-0.092115092	-0.175736
C	 1.21176618	-0.6084352677	-0.1423571944	 0.392367
O	 2.2619291697	 0.0007377615	-0.3075287153	-0.399689
H	 0.9880938226	 1.8377500734	 0.0436647072	 0.172085
H	-0.6084300984	 1.8870093437	-0.7455512843	 0.120789
H	-0.4997613088	 1.8124593304	 1.0291028901	 0.122723
H	-2.0616653527	 0.0041677725	-0.0618659402	 0.115247
H	-1.2869717768	-1.3751209659	-0.8427030621	 0.128681
H	-2.2636316862	-1.3400574914	 1.9454561422	 0.103626
H	-0.7728989937	-3.200979661	 2.4153415388	 0.101245
H	 0.8503957402	-3.9640967461	 0.745229204	 0.105182
H	 2.0943002403	-2.4962285974	-0.6352164072	 0.119531
95.0695	105.9164	141.2312	263.8734	286.6878	352.7584	376.7667	404.8026	498.5195	522.7357	640.8959	671.4462	736.4716	797.7916	837.5071	857.5701	937.5969	961.6655	994.2046	1001.3347	1020.263	1061.3406	1133.3751	1153.1764	1214.33	1239.353	1263.4932	1309.6894	1357.8089	1401.4075	1421.6385	1435.4953	1458.4799	1482.0776	1501.8132	1519.2758	1641.1558	1692.6791	1729.5925	2999.0543	3015.5806	3065.29	3107.6884	3141.4994	3160.3176	3163.5535	3184.2658	3190.1268
CN1CC=CC=CC1=O	CN1CC=CC=CC1=O	
InChI=1S/C7H9NO/c1-8-6-4-2-3-5-7(8)9/h2-5H,6H2,1H3	InChI=1S/C7H9NO/c1-8-6-4-2-3-5-7(8)9/h2-5H,6H2,1H3
