12
gdb 21938	7.01974	1.3206	1.12107	1.4831	53.66	-0.261	-0.015	0.246	971.547	0.083242	-451.773511	-451.766442	-451.765498	-451.805262	24.891	
O	 0.2151606439	 1.3153781407	 0.2096107192	-0.392806
C	 0.0171756233	-0.039534482	-0.0828537571	-0.162324
C	-1.4143796384	-0.4526502791	 0.0524146436	 0.401021
N	-2.3975254891	 0.333628891	 0.2761566891	-0.188259
O	-3.5361305342	-0.5219575025	 0.2582620766	-0.240875
C	-3.1177651151	-1.7998707984	 0.0185361133	 0.509926
N	-3.7737437008	-2.860374169	-0.075560187	-0.572634
O	-1.7455796889	-1.7522900412	-0.1174681441	-0.202996
H	-0.4641020881	 1.8296539457	-0.2418571395	 0.306665
H	 0.3516266127	-0.3199717841	-1.0960714935	 0.134553
H	 0.62220704	-0.6233204712	 0.6200393736	 0.157854
H	-4.7677270952	-2.6917864099	 0.0555746258	 0.249875
76.537	163.0875	168.9947	270.1061	314.2652	383.0109	510.2776	622.0381	707.7494	727.863	769.2533	784.9423	908.6703	944.8187	976.3029	1012.6439	1050.743	1119.0994	1223.6591	1247.5501	1315.2808	1379.5313	1452.7523	1490.4854	1700.7389	1820.2411	2972.4379	3071.0953	3549.9721	3804.8618
OCC1=NOC(=N)O1	OCC1=NO[C@H]([NH])O1	
InChI=1S/C3H4N2O3/c4-3-7-2(1-6)5-8-3/h4,6H,1H2	InChI=1S/C3H5N2O3/c4-3-7-2(1-6)5-8-3/h3-4,6H,1H2/t3-/m1/s1
