19
gdb 92021	2.88598	1.61251	1.22235	3.1933	73.74	-0.2637	0.0636	0.3273	1054.2802	0.160278	-423.000209	-422.992604	-422.99166	-423.03209	30.217	
C	 0.077231094	 1.5524162918	 0.0420161972	-0.400697
C	-0.0084775133	 0.0203552691	 0.0103907309	-0.023169
C	 0.6233757329	-0.5417675891	-1.283776402	-0.23912
C	 0.7174024323	-2.0601082658	-1.3035307657	 0.011429
O	 2.0072933634	-2.6358457062	-1.0536312105	-0.239402
C	 1.0080835388	-2.7709498777	-0.0484474832	 0.043296
C	 1.159591053	-1.9644577662	 1.2146844461	-0.000826
O	 2.0398496942	-0.8413736755	 1.1745316576	-0.242475
C	 0.6339745933	-0.5871034735	 1.2443149607	 0.059768
H	 1.1223633761	 1.8790835075	 0.0549933596	 0.132285
H	-0.4027501252	 1.9897364953	-0.8393225967	 0.114787
H	-0.4154242194	 1.9617972779	 0.9299402	 0.113212
H	-1.0705417129	-0.2670025475	 0.0387369629	 0.077595
H	 0.0408856347	-0.1928707219	-2.1421773627	 0.098535
H	 1.6353425831	-0.1398043737	-1.3888581762	 0.133773
H	 0.1508683803	-2.581813565	-2.0739940019	 0.093357
H	 0.6390971519	-3.7861393803	 0.1000827603	 0.087157
H	 1.2035249386	-2.5362459074	 2.1411154037	 0.093093
H	 0.297044004	-0.1834057118	 2.2006460598	 0.087403
109.7027	190.8043	233.4006	252.3648	318.6966	396.5598	405.9301	498.7501	559.6511	606.4644	700.3012	771.7965	817.536	839.7023	853.6072	891.6514	941.7398	965.8579	986.6247	1017.9212	1052.1838	1071.4751	1077.427	1114.6162	1139.5033	1142.4795	1174.4362	1236.8946	1272.8341	1292.0136	1316.2645	1340.6497	1366.2685	1382.2306	1392.4242	1408.6455	1454.1866	1466.662	1478.6425	1497.2464	1502.0448	2993.6871	3031.8349	3052.2096	3093.6261	3097.162	3100.2641	3102.4542	3106.5496	3115.1913	3122.7874
CC1CC2OC2C2OC12	C[C@H]1C[C@H]2O[C@H]2[C@H]2O[C@@H]12	
InChI=1S/C7H10O2/c1-3-2-4-6(8-4)7-5(3)9-7/h3-7H,2H2,1H3	InChI=1S/C7H10O2/c1-3-2-4-6(8-4)7-5(3)9-7/h3-7H,2H2,1H3/t3-,4+,5-,6+,7-/m0/s1
