17
gdb 127583	3.28986	1.42458	1.0065	2.7757	82.2	-0.2167	-0.0642	0.1525	1165.0905	0.136776	-414.20749	-414.199	-414.198056	-414.240821	31.077	
C	-0.0156221733	 1.4520661279	-0.0018781194	-0.304367
N	 0.0031191972	-0.0032743249	 0.0092029598	-0.019337
N	 0.0026350914	-0.6157809304	-1.1641208406	-0.163583
C	 0.019333859	-1.9178927157	-1.1650392192	-0.065697
C	 0.037838772	-2.6665181826	 0.0631318355	 0.306037
C	 0.0572317702	-4.1679057316	 0.0181442722	-0.483995
N	 0.0382230688	-2.0676348194	 1.2145178369	-0.362726
C	 0.0202656824	-0.6747323662	 1.2532590412	 0.428972
N	 0.0186474014	 0.0387862748	 2.3139252306	-0.564581
H	 0.8642482082	 1.8380022535	 0.5193537172	 0.154478
H	-0.026025278	 1.7703582471	-1.0432009063	 0.141013
H	-0.8987478892	 1.8154846355	 0.5299657094	 0.154406
H	 0.0185691715	-2.3998396672	-2.1353887504	 0.121244
H	 0.9404168691	-4.5252947231	-0.5235990132	 0.142626
H	 0.0666428174	-4.5717949566	 1.0305903429	 0.150721
H	-0.8203174555	-4.5485085461	-0.5168405554	 0.142493
H	 0.0325677476	-0.585732865	 3.1188728288	 0.222295
80.9143	103.6467	153.467	193.9739	267.885	295.4482	345.6417	433.1912	491.4011	519.669	606.705	645.8183	737.7515	768.0046	774.3647	847.2061	853.6424	952.6711	1025.1375	1049.5487	1052.6829	1097.2681	1151.974	1221.8169	1276.1329	1293.6546	1352.626	1400.1877	1426.2731	1451.3595	1464.9664	1468.266	1478.0428	1507.9891	1555.245	1655.5097	1700.4752	3036.3204	3055.8541	3090.813	3118.7803	3155.0735	3173.4863	3200.6885	3506.3318
CN1N=CC(C)=NC1=N	Cn1ncc(C)nc1[NH]	
InChI=1S/C5H8N4/c1-4-3-7-9(2)5(6)8-4/h3,6H,1-2H3	InChI=1S/C5H13N4/c1-4-3-7-9(2)5(6)8-4/h4-8H,3H2,1-2H3
