14
gdb 49846	2.19768	1.60046	1.04467	6.3346	65.55	-0.2641	-0.0576	0.2065	1097.3924	0.098874	-473.864289	-473.855915	-473.854971	-473.898216	28.688	
O	-0.0745866764	-0.0580743209	 0.242233563	-0.226462
C	-0.028523695	 1.1235428615	 0.0279722615	 0.151782
C	 1.2472553232	 1.9380900303	 0.037501638	-0.087166
C	 1.4292292159	 2.8795923412	 1.2732618765	-0.410405
C	 2.679170875	 2.0333354377	 1.5953715503	 0.453497
O	 3.5213844411	 2.0375374381	 2.4356289724	-0.300244
N	 2.4517780693	 1.2157576657	 0.4647517299	-0.115727
C	 3.041529004	 0.060135388	-0.0373533025	 0.163314
O	 4.0058224834	-0.4712551789	 0.440595701	-0.263219
H	-0.940914333	 1.7187454589	-0.1979105224	 0.099576
H	 1.3520289329	 2.4574578906	-0.9229921751	 0.12505
H	 1.6313083318	 3.9269048202	 1.0470626371	 0.154802
H	 0.6465726038	 2.8087549437	 2.0315354814	 0.155761
H	 2.511093374	-0.3025245863	-0.9370846008	 0.099439
71.4707	90.4269	130.8948	168.3985	215.1002	254.085	328.4335	482.5798	501.9096	545.7479	687.6616	716.5164	789.8578	904.0264	932.6262	991.1377	1020.1981	1043.8157	1055.2868	1134.9804	1162.1994	1222.9354	1227.6303	1331.2788	1363.2358	1411.7196	1435.7628	1457.9782	1815.1181	1837.5266	1927.904	2894.1117	2966.9204	3040.3827	3089.0514	3151.6137
O=CC1CC(=O)N1C=O	O=C[C@H]1CC(=O)N1C=O	
InChI=1S/C5H5NO3/c7-2-4-1-5(9)6(4)3-8/h2-4H,1H2	InChI=1S/C5H5NO3/c7-2-4-1-5(9)6(4)3-8/h2-4H,1H2/t4-/m1/s1
