15
gdb 33700	3.16196	1.79457	1.30424	1.8768	75.63	-0.2379	-0.016	0.2219	939.1827	0.111501	-383.37143	-383.364579	-383.363635	-383.402371	28.161	
C	 0.0166574986	-1.2071300496	 0.0074454643	-0.366355
C	 0.0004662347	-0.0050281254	 0.0271308021	 0.125784
C	-0.0346143283	 1.4306826251	 0.0688500381	 0.204722
C	-0.9187938083	 2.1696339593	 1.0653106969	-0.184227
C	-0.7015152143	 3.4642330734	 0.8227159656	-0.112225
C	 0.3035885857	 3.4771215041	-0.3087283731	-0.120936
C	 1.2957304335	 2.286207769	-0.0825083964	 0.028216
O	 1.3746086235	 2.0132512231	-1.5166306519	-0.315945
C	-0.0398026002	 2.2880278208	-1.268901573	 0.028223
H	 0.03851664	-2.2684165388	-0.0182165001	 0.183468
H	-1.5638029997	 1.6953194816	 1.7906740974	 0.118061
H	-1.1317500309	 4.3285579424	 1.30836502	 0.11686
H	 0.6851676868	 4.401200853	-0.7368601108	 0.089135
H	 2.2133591076	 2.2278350462	 0.5074297753	 0.10261
H	-0.7338711287	 2.2318502657	-2.1106793743	 0.10261
140.4416	159.3727	357.2382	414.9795	470.8696	504.2145	505.7968	622.269	623.9643	640.8657	659.821	699.6352	754.8468	768.6473	825.0917	884.4358	898.8921	919.8689	930.5146	971.0965	1039.7836	1067.7597	1089.1659	1130.223	1144.4289	1160.5505	1183.7556	1242.1391	1275.1941	1309.2293	1342.374	1633.9893	2238.6438	3095.6703	3101.1541	3156.0551	3225.1915	3251.6799	3503.3822
C#CC12C=CC3C1OC23	C#C[C@@]12C=C[C@H]3[C@@H]1O[C@@H]23	
InChI=1S/C8H6O/c1-2-8-4-3-5-6(8)9-7(5)8/h1,3-7H	InChI=1S/C8H6O/c1-2-8-4-3-5-6(8)9-7(5)8/h1,3-7H/t5-,6-,7+,8+
