20
gdb 53410	4.03158	0.89091	0.80465	1.3553	88.11	-0.226	0.0664	0.2924	1500.5629	0.17207	-365.97997	-365.970967	-365.970023	-366.017009	33.021	
C	-0.0100695883	 1.5090491932	-0.0141412224	-0.498667
C	-0.0045076406	 0.0528765361	 0.0006666105	 0.078884
C	-0.0029822611	-1.1513835604	 0.0169785414	 0.064871
C	-0.0040792502	-2.608905089	 0.0369393549	-0.158712
C	 0.668329131	-3.2349017174	 1.2969034452	-0.223022
C	 0.0449010735	-4.642973643	 1.4344932543	-0.218813
C	-1.3489082489	-4.4853099716	 0.8521697175	-0.031645
N	-2.0422340357	-3.2731592515	 1.3457828409	-0.330836
C	-1.389127002	-3.2585325546	 0.0226531838	-0.037265
H	 1.0087726376	 1.9126816138	-0.0085385	 0.144103
H	-0.513007283	 1.8981958572	-0.9067274552	 0.143128
H	-0.5303177886	 1.9146371274	 0.8608063306	 0.146551
H	 0.5195203282	-2.9741786255	-0.8588310383	 0.093813
H	 1.7566120906	-3.254605098	 1.208427007	 0.098054
H	 0.4105606188	-2.6279012072	 2.1654610248	 0.131738
H	 0.5976328518	-5.3817631284	 0.8411224509	 0.096471
H	 0.0381727114	-4.9900392834	 2.4725347923	 0.103012
H	-1.938391455	-5.3616592683	 0.6013058269	 0.081992
H	-3.0448108225	-3.3826930251	 1.2178201623	 0.229627
H	-2.0013354669	-3.1758763942	-0.8692497774	 0.086716
3.103	77.8133	94.5481	203.4284	258.335	294.9873	355.5069	396.1583	444.0419	508.5704	618.3595	651.1023	792.0989	808.9166	843.3558	867.5165	903.1321	916.4399	944.7927	982.94	1014.8396	1053.2686	1053.9658	1063.259	1072.8598	1123.2221	1165.2805	1179.0352	1195.8223	1227.7932	1254.984	1292.2052	1319.8653	1325.5335	1349.175	1379.6216	1414.9068	1425.2673	1479.1974	1479.9896	1481.3871	1494.1961	2370.9705	2995.8346	3023.9187	3033.2823	3078.1285	3082.329	3084.2236	3084.2544	3135.1424	3155.5677	3168.4488	3507.1015
CC#CC1CCC2NC12	CC#C[C@H]1CC[C@H]2N[C@@H]12	
InChI=1S/C8H11N/c1-2-3-6-4-5-7-8(6)9-7/h6-9H,4-5H2,1H3	InChI=1S/C8H11N/c1-2-3-6-4-5-7-8(6)9-7/h6-9H,4-5H2,1H3/t6-,7+,8-/m0/s1
