18
gdb 46716	3.07682	1.70452	1.28596	2.0156	76.28	-0.229	-0.0177	0.2112	990.3259	0.149972	-401.903731	-401.896935	-401.895991	-401.934934	27.696	
O	 0.0175743295	-0.0629830574	-0.0525705174	-0.321069
C	-0.0344791749	 1.1441934642	 0.0195859787	 0.374948
C	-1.3201307153	 1.9319841181	 0.1571170441	-0.328822
C	-1.077053748	 3.2289492773	 0.961021813	-0.178741
N	 0.257121087	 3.8243648866	 0.806207969	-0.113177
C	 1.0252919126	 3.5058405552	-0.4744019537	-0.050252
C	 2.3073360545	 3.846453929	 0.3192375327	-0.219899
C	 1.4231883136	 2.9496753645	 1.2145302752	-0.026518
C	 1.1920157796	 2.0116513852	-0.029755527	-0.100479
H	-1.6322425803	 2.1906352245	-0.8644074074	 0.129191
H	-2.1061561994	 1.3034054869	 0.5824207089	 0.1235
H	-1.815769145	 3.9876392048	 0.6827596044	 0.111949
H	-1.2137773387	 3.038915784	 2.032038922	 0.115489
H	 0.707609282	 3.8835615998	-1.4480701488	 0.088708
H	 3.2415332268	 3.4159680231	-0.0429944186	 0.103371
H	 2.3985185283	 4.883677804	 0.6416023971	 0.111465
H	 1.5781914262	 2.6453851502	 2.2514406588	 0.09231
H	 2.0593176915	 1.4569067199	-0.3959266408	 0.088027
104.9762	173.135	315.97	373.9124	452.8175	475.0464	537.2855	597.0039	679.4528	738.8191	771.9433	782.2094	836.2243	876.9294	906.8235	933.2119	949.1572	985.161	1031.1487	1044.5982	1052.6371	1094.1391	1111.5172	1134.2826	1173.8601	1185.8715	1200.6937	1213.5292	1233.855	1252.4274	1261.8953	1279.8542	1321.713	1337.2372	1382.6537	1457.0804	1490.8996	1497.3807	1813.5268	3019.8039	3036.9217	3074.486	3080.9163	3085.4715	3096.3365	3105.5329	3106.1741	3163.4085
O=C1CCN2C3CC2C13	O=C1CCN2[C@H]3C[C@@H]2[C@@H]13	
InChI=1S/C7H9NO/c9-6-1-2-8-4-3-5(8)7(4)6/h4-5,7H,1-3H2	InChI=1S/C7H9NO/c9-6-1-2-8-4-3-5(8)7(4)6/h4-5,7H,1-3H2/t4-,5+,7-
