18
gdb 61039	3.21231	1.02466	0.9313	4.3376	75.43	-0.2392	-0.0371	0.2021	1301.2357	0.146292	-439.113579	-439.104417	-439.103473	-439.148284	32.597	
C	-0.0258556472	-0.4592028425	 1.4249074436	-0.367266
N	-0.0688749171	 0.0708042027	 0.0679457059	-0.043385
C	-0.2766618272	 1.4115707111	-0.1252452416	 0.159669
O	-0.4124471299	 2.2369548786	 0.7492789181	-0.335336
C	 0.079064635	-0.8168405955	-1.0436730455	-0.065023
C	 1.3743897595	-1.6763983299	-1.2766587593	-0.270153
C	 0.4938227551	-2.878546687	-1.7246561897	-0.334184
C	-0.7069540744	-2.1544170523	-1.0901677196	 0.378471
O	-1.7558493387	-2.5072513599	-0.6394355697	-0.291038
H	-0.7890957537	-1.231076113	 1.5580757224	 0.153182
H	 0.9579604833	-0.8840829462	 1.6539769829	 0.125626
H	-0.2192017572	 0.3712871453	 2.1033048692	 0.17269
H	-0.3074295112	 1.6660581879	-1.2034096175	 0.073264
H	-0.1472648098	-0.261553498	-1.9623148128	 0.121833
H	 2.0799425572	-1.2772684813	-2.0052722762	 0.119214
H	 1.9005296491	-1.8834200502	-0.3430332147	 0.12593
H	 0.3911404132	-2.961217478	-2.8110267996	 0.13794
H	 0.719742574	-3.8655313718	-1.317034096	 0.138565
53.0355	101.995	109.0496	148.8776	204.0856	274.4174	319.9958	352.1561	405.6699	423.1292	555.8989	625.7031	698.7371	770.7305	818.8525	890.4687	908.6882	966.9978	1003.0041	1026.6954	1038.0488	1081.0533	1113.1377	1157.8495	1185.8897	1216.0559	1228.1437	1252.1615	1284.5753	1325.7699	1431.8278	1442.052	1444.9119	1449.4949	1489.1075	1502.6797	1515.895	1804.1094	1891.4817	2933.0861	3034.272	3040.4937	3067.9103	3087.6423	3100.8264	3127.2331	3147.8352	3162.9354
CN(C=O)C1CCC1=O	CN(C=O)[C@H]1CCC1=O	
InChI=1S/C6H9NO2/c1-7(4-8)5-2-3-6(5)9/h4-5H,2-3H2,1H3	InChI=1S/C6H9NO2/c1-7(4-8)5-2-3-6(5)9/h4-5H,2-3H2,1H3/t5-/m0/s1
