20
gdb 63309	2.51487	1.53132	1.25464	3.9798	78.99	-0.2349	0.0311	0.266	1097.1807	0.171432	-403.194966	-403.186433	-403.185489	-403.227559	33.9	
C	-0.1463115201	 1.619420299	 0.0667581717	-0.410555
C	 0.0111254821	 0.0937375891	 0.0293421482	 0.247495
C	-1.367900198	-0.5842995519	-0.0588983721	-0.411328
N	 0.8649726386	-0.3244837292	-1.08693878	-0.338862
C	 1.7773794972	-1.3166641311	-0.8019525004	 0.409625
O	 2.3903568686	-1.9738249418	-1.6145242729	-0.389377
C	 1.855903006	-1.399036056	 0.6999539875	-0.157393
C	 2.2349420873	-0.0970829341	 1.3792507025	-0.307364
C	 0.7898640728	-0.4661825937	 1.2310884528	-0.042467
H	 0.8253586495	 2.1150786488	 0.1257044912	 0.123101
H	-0.6598666073	 1.9804565233	-0.8312091141	 0.112346
H	-0.7420846763	 1.9214207127	 0.9338055427	 0.119536
H	-1.8905357611	-0.2851721288	-0.9736600854	 0.112807
H	-1.262290364	-1.6729455738	-0.0655553303	 0.12619
H	-1.9956574725	-0.3016451716	 0.7929382603	 0.116775
H	 0.6096667622	-0.1509112096	-2.0471477263	 0.243044
H	 2.1227852212	-2.348144187	 1.1443678698	 0.108138
H	 2.6635586767	-0.1755795384	 2.3723070138	 0.12027
H	 2.6539375076	 0.6952791065	 0.7683309768	 0.127073
H	 0.2166479795	-0.7101882324	 2.1177587241	 0.090947
93.5504	192.1503	225.0709	251.5676	262.483	335.4232	341.6086	386.3883	471.3961	493.4296	513.1745	587.7493	631.1477	753.156	776.2883	807.781	850.4392	914.7978	933.0002	957.3529	966.0436	981.8695	1016.1128	1033.5088	1070.6359	1077.2665	1103.3494	1189.9152	1196.4191	1218.8921	1233.1628	1289.3865	1340.5547	1356.7909	1398.1127	1410.0216	1426.0654	1479.0427	1480.6332	1487.3749	1503.4105	1505.1036	1826.5558	3029.8115	3037.4299	3096.7704	3103.6875	3114.2804	3125.5407	3133.3873	3178.7767	3210.5996	3221.9047	3629.4939
CC1(C)NC(=O)C2CC12	CC1(C)NC(=O)[C@H]2C[C@@H]12	
InChI=1S/C7H11NO/c1-7(2)5-3-4(5)6(9)8-7/h4-5H,3H2,1-2H3,(H,8,9)	InChI=1S/C7H11NO/c1-7(2)5-3-4(5)6(9)8-7/h4-5H,3H2,1-2H3,(H,8,9)/t4-,5+/m0/s1
