18
gdb 86978	3.24746	1.14047	0.90669	3.2881	75.62	-0.2438	-0.0023	0.2415	1259.631	0.148896	-439.116563	-439.108231	-439.107287	-439.149812	31.34	
O	 0.1283519782	 1.393752982	 0.1822344996	-0.425211
C	 0.0883770416	-0.0197517984	 0.0353374687	 0.086819
C	-1.3629424108	-0.5335507255	 0.042142574	-0.213621
N	-1.4195521952	-1.9306716001	-0.3375863055	-0.054016
C	-0.8694931695	-2.2968511333	-1.6355938441	-0.207628
C	 0.342850462	-1.4777882287	-1.9752353401	-0.069109
C	 0.7907722525	-0.4787185251	-1.2170318286	-0.10473
C	-1.9339630404	-2.8946768986	 0.4770929081	 0.151072
O	-1.9978183848	-4.0760094199	 0.2086069716	-0.341872
H	-0.1843814252	 1.7820913366	-0.6430102196	 0.280577
H	 0.6087580902	-0.4043083172	 0.9217497849	 0.109143
H	-1.8099137058	-0.410409814	 1.0317877112	 0.126616
H	-1.9476883344	 0.0762431633	-0.663300686	 0.09909
H	-0.6307113611	-3.3641744282	-1.5955844871	 0.158853
H	-1.631038585	-2.1843722491	-2.4248653032	 0.121453
H	 0.8586727502	-1.7547394272	-2.890650448	 0.104689
H	 1.6912515653	 0.0690783262	-1.4826596875	 0.102304
H	-2.2943996378	-2.4717381927	 1.4355953015	 0.075574
62.9833	111.319	238.45	282.466	291.2551	336.8201	339.6559	376.0104	430.5329	469.6335	537.9611	682.3907	726.9536	777.1375	859.5872	912.7279	979.3108	998.8334	1010.1343	1025.4255	1032.4952	1086.4756	1100.2997	1170.8788	1206.6501	1230.4185	1257.4685	1285.5946	1333.367	1367.2316	1389.9155	1399.1064	1420.6269	1434.8584	1452.6683	1486.6854	1493.9237	1720.4116	1793.0031	2936.9865	2973.5663	2989.9352	3032.3016	3082.3821	3101.5578	3156.7683	3178.3642	3794.4691
OC1CN(CC=C1)C=O	O[C@H]1CN(CC=C1)C=O	
InChI=1S/C6H9NO2/c8-5-7-3-1-2-6(9)4-7/h1-2,5-6,9H,3-4H2	InChI=1S/C6H9NO2/c8-5-7-3-1-2-6(9)4-7/h1-2,5-6,9H,3-4H2/t6-/m1/s1
