16
gdb 80783	2.30635	1.4963	1.44502	1.813	78.43	-0.2442	-0.004	0.2402	1024.016	0.122075	-400.655355	-400.646994	-400.64605	-400.688091	31.625	
C	 0.0433059108	 1.5012198982	-0.0910771922	-0.349129
N	 0.0045559419	 0.0427944498	 0.0528509875	-0.114544
C	-1.1491534027	-0.5898623064	 0.8174236684	-0.151372
C	-0.2157865219	-1.8113822735	 1.0122440107	-0.255816
C	 0.7052203741	-0.580994214	 1.2687765799	 0.13438
C	 2.1122229262	-0.5173562158	 1.4851250539	 0.051153
C	 3.2935557355	-0.4442754665	 1.698594254	-0.340325
C	-0.5031136858	 0.0225606694	 2.0819476277	 0.383563
O	-0.7291006462	 0.7528149659	 2.9904729606	-0.306617
H	 1.0529982094	 1.7829245014	-0.4021062148	 0.141108
H	-0.6504802211	 1.7824221949	-0.8885436787	 0.13147
H	-0.2141223129	 2.0656216393	 0.8171525263	 0.131963
H	-2.1705831669	-0.5579799328	 0.4465521717	 0.109504
H	-0.4092449952	-2.4743222743	 1.8556483328	 0.119543
H	 0.0191102865	-2.3305807963	 0.0827857928	 0.124538
H	 4.3371907182	-0.3830135093	 1.8864502895	 0.190582
124.5165	128.0199	144.9526	196.9194	292.5137	333.5659	355.7927	492.3741	506.7356	541.9425	616.862	627.4637	676.5554	709.9034	743.0275	782.0196	828.1935	839.4517	945.8357	997.3181	1015.6572	1090.5627	1143.9188	1158.7561	1171.2902	1190.7652	1211.7519	1214.7459	1317.9563	1445.5851	1478.429	1493.8566	1500.2456	1906.7734	2236.3655	2996.8249	3086.6595	3088.1621	3120.1598	3161.101	3171.6228	3499.411
CN1C2CC1(C#C)C2=O	CN1[C@H]2C[C@]1(C#C)C2=O	
InChI=1S/C7H7NO/c1-3-7-4-5(6(7)9)8(7)2/h1,5H,4H2,2H3	InChI=1S/C7H7NO/c1-3-7-4-5(6(7)9)8(7)2/h1,5H,4H2,2H3/t5-,7+/m0/s1
