20
gdb 84278	2.99269	1.47052	1.16541	3.5904	79.07	-0.2449	0.0208	0.2657	1114.4056	0.172021	-403.131955	-403.123797	-403.122853	-403.164252	32.171	
C	-0.1721265226	 1.5237041492	-0.1196255903	-0.395281
C	 0.0867408259	 0.0279009039	-0.0044066505	 0.053632
N	 0.9671215804	-0.4376723331	-1.1346682141	-0.323918
C	 1.5625314538	-1.4191704115	-0.6162251157	 0.436652
O	 2.7249157656	-2.1022117627	-0.8490092287	-0.278317
C	 2.8409495621	-2.3028137164	 0.6199886486	-0.131123
C	 1.3780843463	-1.7959367898	 0.8098124056	-0.158853
C	 0.8115068596	-0.4535860002	 1.3329338284	-0.043445
C	 1.8830407179	 0.5162344267	 1.8375432902	-0.403778
H	 0.7628439421	 2.0895283614	-0.147828891	 0.124284
H	-0.7161853046	 1.7368044381	-1.0434661208	 0.127709
H	-0.772834979	 1.8820350014	 0.723517353	 0.107187
H	-0.8793983409	-0.4941315462	-0.0691854743	 0.078915
H	 3.0278618446	-3.3522448243	 0.8518340066	 0.12699
H	 3.6330217625	-1.6626827384	 1.0135648886	 0.132131
H	 0.6915269878	-2.6299806725	 0.9747724948	 0.106187
H	 0.0719741044	-0.6122486608	 2.1242207458	 0.071599
H	 2.6275226804	 0.7362890082	 1.0653490975	 0.132454
H	 1.4398094072	 1.4658821883	 2.1486046647	 0.124066
H	 2.4061024164	 0.0972212988	 2.7032266015	 0.112909
109.3418	186.1467	242.6032	252.1101	266.6437	299.8653	343.2417	448.7673	471.6134	516.886	653.4593	700.0477	725.6709	744.5359	797.5735	876.661	905.6819	960.3531	969.302	996.4273	1010.5926	1059.1185	1083.68	1098.7576	1138.1491	1148.9631	1169.2758	1178.4911	1212.5118	1262.9582	1291.3547	1320.5814	1342.7344	1370.6402	1379.6579	1410.7291	1413.1295	1483.0112	1494.1876	1498.7619	1505.4925	1513.5962	1775.2127	2988.2988	3037.3549	3040.7689	3054.0881	3076.8932	3082.2235	3103.1086	3111.1148	3114.7197	3124.8736	3146.605
CC1N=C2OCC2C1C	C[C@H]1[N][C]2OC[C@H]2[C@H]1C	
InChI=1S/C7H11NO/c1-4-5(2)8-7-6(4)3-9-7/h4-6H,3H2,1-2H3	InChI=1S/C7H11NO/c1-4-5(2)8-7-6(4)3-9-7/h4-6H,3H2,1-2H3/t4-,5+,6-/m0/s1
