13
gdb 17165	4.48382	1.90657	1.57097	2.349	58.77	-0.2444	-0.0441	0.2003	778.0595	0.094582	-398.476579	-398.47034	-398.469396	-398.507224	23.371	
O	 0.0573563193	-0.0908254138	-0.0437112335	-0.247898
C	 0.1109578438	 1.1069740855	-0.1692066548	 0.021682
C	 1.3692680835	 1.8915326922	-0.0974664407	 0.227736
N	 2.748772526	 1.3339628856	-0.0371071652	-0.369233
C	 2.9824985225	 2.8107412335	 0.0510542629	-0.075905
C	 1.8388726188	 3.115837595	-0.9606142793	 0.065209
O	 1.1935419154	 4.1244789835	-0.1360970515	-0.319086
C	 1.6660992887	 3.1476663759	 0.8277704512	 0.035684
H	-0.798174053	 1.7275546459	-0.3256756288	 0.096236
H	 2.9137453802	 0.8777003547	 0.8620933188	 0.225298
H	 3.9684417797	 3.2679800586	 0.1290859487	 0.105258
H	 1.8535404166	 3.2331280374	-2.0426234549	 0.121697
H	 1.4627822885	 3.302538556	 1.8884651071	 0.113323
101.3871	156.4941	281.3297	373.7195	484.5388	610.246	685.4003	708.3456	784.7452	804.0681	831.4971	880.603	907.0344	951.7067	1004.676	1022.7279	1071.1509	1096.1438	1105.366	1151.5414	1163.7376	1178.017	1258.2545	1279.9611	1320.8146	1340.5572	1422.5165	1815.3624	2898.3383	3113.0331	3129.5403	3149.0238	3434.933
O=CC12NC3C1OC23	O=C[C@@]12N[C@H]3[C@@H]1O[C@@H]23	
InChI=1S/C5H5NO2/c7-1-5-3-2(6-5)4(5)8-3/h1-4,6H	InChI=1S/C5H5NO2/c7-1-5-3-2(6-5)4(5)8-3/h1-4,6H/t2-,3-,4+,5+
