20
gdb 58483	2.19527	1.29611	1.06972	3.9784	79.68	-0.2903	0.	0.2903	1246.2472	0.168056	-403.154595	-403.144435	-403.143491	-403.189679	36.97	
C	 0.1274406544	 1.3318942164	-0.4319449905	-0.406164
C	 0.0420021275	-0.0431367191	 0.2484394402	-0.035411
C	 0.618989443	-0.015753544	 1.6715279912	-0.404399
C	-1.3865039583	-0.5790227528	 0.2227221686	 0.409644
C	-2.4557583041	 0.1698005851	 0.9900540104	-0.473603
O	-1.8132786959	-1.0571033628	-1.0642028279	-0.277618
C	-1.6247531984	-2.0245747384	-0.0306852955	-0.173095
C	-0.5405088131	-2.9683516133	-0.2018570228	 0.309595
N	 0.3110925248	-3.7426331298	-0.311190533	-0.337683
H	 1.1729608026	 1.6389247083	-0.5295646026	 0.121105
H	-0.311717631	 1.3015485678	-1.4332980238	 0.133865
H	-0.3878999549	 2.1053563946	 0.1473509099	 0.116156
H	 0.6405929031	-0.7417358422	-0.3461637759	 0.107109
H	 0.0946021623	 0.7059391486	 2.3068007402	 0.117859
H	 0.55924971	-0.9988155298	 2.149116015	 0.125566
H	 1.6726337012	 0.2770947849	 1.6436745205	 0.125249
H	-2.5178905268	 1.2077262897	 0.6510436225	 0.139953
H	-3.4320855563	-0.2944193761	 0.8329486467	 0.133853
H	-2.2405349957	 0.1753391023	 2.0622897563	 0.136184
H	-2.5389537044	-2.4785672496	 0.3493486105	 0.131832
48.6808	115.9319	137.9743	190.7939	209.1451	246.9466	256.8237	274.6931	301.0707	348.0425	416.4451	449.2849	489.8538	586.5494	612.7565	679.5803	797.8887	884.3822	929.8552	936.1445	967.2277	972.0974	1011.7215	1059.8261	1087.2707	1123.1934	1144.6474	1189.6153	1277.1612	1301.6021	1343.2785	1374.2041	1400.6473	1410.7082	1424.4504	1441.2453	1479.5932	1489.1478	1495.9692	1499.718	1509.1798	1511.8432	2356.7378	3034.2978	3037.2752	3050.7499	3051.9816	3100.8198	3107.7142	3110.986	3116.0899	3121.0057	3122.3026	3130.7847
CC(C)C1(C)OC1C#N	CC(C)[C@@]1(C)O[C@H]1C#N	
InChI=1S/C7H11NO/c1-5(2)7(3)6(4-8)9-7/h5-6H,1-3H3	InChI=1S/C7H11NO/c1-5(2)7(3)6(4-8)9-7/h5-6H,1-3H3/t6-,7+/m0/s1
