16
gdb 96920	2.58646	1.45035	1.14578	3.9314	76.32	-0.2554	-0.0152	0.2401	1101.7338	0.123839	-396.890842	-396.882572	-396.881628	-396.924003	30.174	
C	-0.00458304	 1.3782637144	-0.0017100518	-0.337875
N	-0.0808720523	-0.0641824768	 0.1387759004	-0.259754
C	-1.1915498528	-0.6232116091	 0.0372098785	 0.395546
C	-2.6753590449	-0.2639080283	-0.1430063038	-0.37304
C	-2.9050962935	-1.7715565308	-0.0609866112	-0.035185
C	-2.0993515277	-2.5186383643	-1.0563362999	-0.171201
C	-1.7604214607	-1.9608291671	-2.3425913845	 0.314953
N	-1.5025395031	-1.5227176937	-3.3812044757	-0.332385
N	-1.4357367929	-2.057683635	 0.2062015905	-0.168637
H	 0.6723674097	 1.616428301	-0.828568236	 0.146493
H	-0.9699647422	 1.870346851	-0.1864778895	 0.110246
H	 0.4381103602	 1.801419751	 0.9062985761	 0.137832
H	-3.0792007237	 0.2763207972	 0.7166099184	 0.143541
H	-2.9765720965	 0.239971942	-1.0642426097	 0.150899
H	-3.6797298849	-2.2671654945	 0.5117830746	 0.125167
H	-2.2135653646	-3.598286267	-1.0650174165	 0.153401
74.4624	134.8707	157.6301	195.5812	222.672	302.9219	377.5066	485.2749	505.7742	571.1462	624.3566	672.0356	751.5861	798.2721	863.1437	920.6599	968.2026	1002.3392	1046.6107	1054.6664	1070.7681	1105.0852	1130.2997	1151.1587	1173.2767	1224.7627	1244.1043	1332.9124	1387.8888	1440.5942	1463.9299	1483.4446	1497.7226	1838.557	2355.4698	2998.5805	3071.5094	3078.5715	3095.2844	3125.5431	3166.4961	3193.4775
CN=C1CC2C(C#N)N12	CN=C1C[C@H]2[C@@H](C#N)N12	
InChI=1S/C6H7N3/c1-8-6-2-4-5(3-7)9(4)6/h4-5H,2H2,1H3	InChI=1S/C6H7N3/c1-8-6-2-4-5(3-7)9(4)6/h4-5H,2H2,1H3/t4-,5+,9?/m0/s1
