27
gdb 118573	1.68494	0.98425	0.66193	0.8985	93.84	-0.2406	0.0847	0.3253	1857.7678	0.249179	-390.703106	-390.69083	-390.689886	-390.741928	43.26	
C	 0.7654679109	 1.0328897333	 0.7814618314	-0.381739
C	 0.4140062455	-0.4470194652	 0.6058282568	-0.172961
C	-1.0924688283	-0.6920711141	 0.4783803006	-0.161585
C	-1.4754797703	-2.162956076	 0.2806670717	 0.118874
C	-2.9963248776	-2.3530448178	 0.2268272917	-0.168084
C	-3.4319007128	-3.8106471473	 0.0639118173	-0.390876
O	-0.89889388	-2.6379588985	-0.9394938472	-0.266819
C	 0.0060605097	-3.7191656447	-0.8131919647	-0.034445
C	 0.5161361195	-4.0765380836	-2.1997410525	-0.38628
H	 1.8469019406	 1.1797458267	 0.8660923969	 0.10919
H	 0.4151519757	 1.62586555	-0.0708092264	 0.114411
H	 0.301800826	 1.4481763064	 1.683505365	 0.110826
H	 0.9115117379	-0.8398182948	-0.2879409876	 0.108257
H	 0.8062585369	-1.0189357005	 1.4578357	 0.086915
H	-1.6055452642	-0.3140104164	 1.3728334404	 0.086343
H	-1.4846356811	-0.1187560392	-0.3722722771	 0.098143
H	-1.0742415355	-2.75159348	 1.1214218094	 0.061428
H	-3.4315397739	-1.9315459115	 1.1416746619	 0.08956
H	-3.3846089872	-1.7570719667	-0.6086319264	 0.100949
H	-3.0227943155	-4.2340806451	-0.8575699056	 0.127561
H	-3.0887039627	-4.4272525279	 0.9026825425	 0.107302
H	-4.5221158842	-3.8934412899	 0.0172191876	 0.109171
H	 0.8472521507	-3.4439265439	-0.156961978	 0.085959
H	-0.4914160893	-4.588222826	-0.3538821613	 0.086339
H	-0.3133523192	-4.3646759316	-2.8520982464	 0.12476
H	 1.0244955759	-3.221034251	-2.6539085491	 0.124859
H	 1.2213275025	-4.9114675646	-2.1442333006	 0.111945
45.1691	58.5569	83.3408	85.3686	123.1396	132.8311	208.774	241.7098	245.8367	252.9532	264.7731	313.8448	354.1712	445.5781	475.2791	547.4348	745.0865	768.1675	819.1497	835.1843	893.8813	906.5127	911.1835	982.5835	1012.636	1036.3093	1056.8797	1080.9628	1103.3969	1130.2246	1140.7314	1157.3563	1186.661	1199.3871	1262.3831	1283.7155	1294.2848	1302.7905	1329.6086	1341.9342	1376.9689	1388.7752	1398.0254	1404.0431	1406.5793	1415.0379	1442.7224	1469.1773	1480.9515	1482.7599	1494.1414	1496.8789	1499.9123	1500.4241	1509.8834	1510.3732	1529.8681	2961.6999	2978.2002	2992.7641	3010.4102	3016.762	3025.1368	3028.3299	3032.4839	3042.8392	3046.8649	3061.082	3069.2705	3096.1896	3097.467	3099.5584	3115.8606	3117.0226	3118.658
CCCC(CC)OCC	CCC[C@@H](CC)OCC	
InChI=1S/C8H18O/c1-4-7-8(5-2)9-6-3/h8H,4-7H2,1-3H3	InChI=1S/C8H18O/c1-4-7-8(5-2)9-6-3/h8H,4-7H2,1-3H3/t8-/m1/s1
