14
gdb 21551	4.30024	2.0528	1.4179	4.7079	65.4	-0.2062	0.0137	0.2198	832.1955	0.110094	-374.858463	-374.851887	-374.850943	-374.889211	24.505	
N	 0.0100083724	 1.4523478231	-0.0778166205	-0.595876
C	-0.0479498404	 0.0594527209	-0.0307760264	 0.14035
C	-1.1012700098	-0.8310979371	-0.1254721253	 0.292489
C	-2.4892835207	-1.4498151579	-0.2753895674	-0.38779
C	-1.736328302	-2.8385885011	-0.2440241873	-0.165218
N	-0.5028096135	-2.0358015105	-0.0898364874	 0.096894
N	 0.8216510874	-1.9906690864	 0.000380633	-0.193556
N	 1.0921956025	-0.6946156895	 0.051571249	-0.24635
H	 0.941405837	 1.7701243318	 0.1624121974	 0.254421
H	-0.671691682	 1.9028559436	 0.5187898728	 0.245439
H	-3.1778002923	-1.2927427189	 0.5578949937	 0.132015
H	-3.004258045	-1.2382226452	-1.2148438175	 0.137448
H	-1.9484301873	-3.4813269791	 0.6123286012	 0.143408
H	-1.7650142964	-3.4142621236	-1.1708486653	 0.146327
117.4419	209.7545	231.3117	287.7617	358.8711	504.2906	655.1643	666.1523	688.9241	712.7621	788.0625	810.5144	880.5953	904.7465	1056.8862	1058.8686	1094.5617	1132.798	1178.6268	1196.2474	1220.081	1235.5977	1282.9509	1324.4309	1374.1355	1480.1093	1489.0059	1525.9034	1628.5383	1653.6859	3072.5467	3080.6119	3120.0916	3143.335	3533.9961	3626.1397
NC1=C2CCN2N=N1	Nc1c2CCn2nn1	
InChI=1S/C4H6N4/c5-4-3-1-2-8(3)7-6-4/h1-2,5H2	InChI=1S/C4H6N4/c5-4-3-1-2-8(3)7-6-4/h1-2,5H2
