20
gdb 70097	2.43017	1.87022	1.33136	1.5959	84.64	-0.2197	0.0162	0.2359	1032.4353	0.17195	-365.984283	-365.976385	-365.975441	-366.016073	32.365	
C	-0.0472297018	 1.5138712692	 0.0522401961	-0.499787
C	 0.0844616272	 0.0150081398	-0.0216224184	 0.212763
N	-0.5464739027	-0.8267083105	 1.0263567445	-0.370662
C	 0.9451970434	-0.7875387763	 0.8948666107	-0.143597
C	 1.4812319402	-1.9291551682	 0.0985289376	-0.077212
C	 0.9938469933	-1.8896933459	-1.1453853347	-0.151663
C	 0.1216324782	-0.7013635332	-1.3644340239	 0.34511
C	-1.0886525557	-0.7664719388	-2.2695729389	-0.296707
C	 0.1132826483	 0.027648259	-2.6954519089	-0.328293
H	 0.7324444501	 2.0148734402	-0.5301801283	 0.128833
H	-1.0192484026	 1.8511087512	-0.3287168932	 0.122898
H	 0.0370979511	 1.8576613771	 1.0883965018	 0.112337
H	-0.8109809124	-0.2132082175	 1.7975483015	 0.217078
H	 1.5205746521	-0.3349509154	 1.6965427161	 0.08256
H	 2.1339868295	-2.6920989316	 0.5037185322	 0.096436
H	 1.1681576112	-2.6268773656	-1.9218666339	 0.09415
H	-1.2971151612	-1.7061906877	-2.7694821544	 0.114689
H	-1.9746775648	-0.2278553543	-1.9497204753	 0.116237
H	 0.0412491919	 1.1096602767	-2.6860295739	 0.112942
H	 0.7440734547	-0.3670194782	-3.485101037	 0.111887
126.455	213.1096	228.4016	261.3275	291.2938	359.9546	417.9512	457.6423	540.9127	593.5991	632.1885	742.0162	767.8817	778.2936	836.8052	844.2634	908.6433	910.7435	931.4921	938.026	954.01	978.0002	983.8873	1047.0611	1058.1027	1062.4692	1077.0793	1111.0644	1116.211	1169.5528	1190.5648	1236.1208	1284.2091	1295.5547	1372.7768	1397.6063	1409.4882	1427.5066	1466.0571	1486.6038	1500.9946	1503.5547	1655.8039	3022.4406	3083.8878	3102.1923	3128.8775	3132.5054	3156.7341	3184.7949	3207.0433	3216.7835	3222.2963	3454.6308
CC12NC1C=CC21CC1	C[C@]12N[C@H]1C=CC12CC1	
InChI=1S/C8H11N/c1-7-6(9-7)2-3-8(7)4-5-8/h2-3,6,9H,4-5H2,1H3	InChI=1S/C8H11N/c1-7-6(9-7)2-3-8(7)4-5-8/h2-3,6,9H,4-5H2,1H3/t6-,7-/m0/s1
