16
gdb 129608	3.14248	1.2559	0.96985	2.3809	76.67	-0.193	0.0239	0.2169	1183.3958	0.125261	-396.907532	-396.898857	-396.897913	-396.941174	32.21	
N	-0.1111213222	 1.3990933038	-0.3058382942	-0.619504
C	-0.0238904632	 0.0150089043	-0.0853300991	 0.120223
C	-1.0744170746	-0.881237052	 0.0276562182	 0.324819
C	-2.5600555742	-0.6855855858	-0.0798335262	-0.477953
C	-2.9566318539	 0.0506174442	-1.2812363398	 0.306439
C	-3.2616532413	 0.6782222636	-2.260183741	-0.450234
N	-0.5008469234	-2.0876289426	 0.3144479196	-0.265118
N	 0.8340985503	-2.0399908839	 0.3966854239	-0.229911
C	 1.1322229815	-0.7633811857	 0.1552167308	-0.062261
H	 0.7480225056	 1.7788140347	-0.6821652707	 0.241594
H	-0.8779416099	 1.6388740272	-0.9243849769	 0.247871
H	-3.0603618341	-1.6626234002	-0.0744752547	 0.136894
H	-2.9413480686	-0.1503996208	 0.801963154	 0.155669
H	-3.5482750438	 1.2133274828	-3.1316806383	 0.203878
H	-0.9687164358	-2.9683915834	 0.4448214872	 0.267188
H	 2.1632078379	-0.439375076	 0.1607147371	 0.100406
46.5861	109.1592	205.4916	244.5305	257.6113	322.4473	328.1101	411.2953	438.8618	457.9983	624.4882	643.4133	655.6086	691.7713	707.1715	755.1367	798.4234	856.7786	922.2563	952.2247	960.9072	1086.8254	1156.1733	1196.879	1240.2699	1268.1431	1301.9026	1353.8377	1409.9094	1451.0546	1457.5398	1543.8685	1643.5245	1662.5833	2235.9561	2999.7784	3040.9556	3237.3797	3502.9919	3519.5241	3613.1962	3670.6999
NC1=C(CC#C)NN=C1	Nc1c(CC#C)[nH]nc1	
InChI=1S/C6H7N3/c1-2-3-6-5(7)4-8-9-6/h1,4H,3,7H2,(H,8,9)	InChI=1S/C6H7N3/c1-2-3-6-5(7)4-8-9-6/h1,4H,3,7H2,(H,8,9)
