21
gdb 29688	2.38055	1.51576	0.94517	1.5733	88.98	-0.1666	0.0513	0.2179	1282.7465	0.181803	-383.312442	-383.301832	-383.300888	-383.348318	37.749	
C	 0.0318331063	 1.433359003	 0.0153207062	-0.341965
N	 0.0517691395	-0.012190007	 0.0070123	-0.101861
C	-0.0206889028	-0.8153235193	-1.1115518569	 0.292843
C	-0.0591352444	-0.2736070697	-2.5030360993	-0.50407
C	-0.0372778551	-2.1243514228	-0.6808458395	-0.319414
C	 0.0088341667	-2.1175742825	 0.7417650302	 0.15326
N	-0.0237812028	-3.2366618675	 1.6181224591	-0.613596
C	 0.0480524058	-0.8008300287	 1.1500984924	 0.256373
C	 0.070440812	-0.2421778921	 2.5320163094	-0.51636
H	 0.7450040076	 1.8207890056	 0.7485099112	 0.136275
H	 0.3170851092	 1.8120109676	-0.9671180721	 0.13779
H	-0.9612779638	 1.8317268419	 0.2611531497	 0.129871
H	 0.8311874412	 0.3177382975	-2.7549148643	 0.12224
H	-0.1056805138	-1.1050664412	-3.2103506495	 0.131115
H	-0.9332915713	 0.3637742938	-2.6894251387	 0.122204
H	-0.0684924106	-2.9943772751	-1.3213083887	 0.075591
H	-0.2048582827	-4.0887676804	 1.101121639	 0.231455
H	 0.8580493276	-3.3642486845	 2.103678492	 0.234079
H	 1.0385119458	 0.1963670707	 2.8138629038	 0.114804
H	-0.6891473577	 0.5352962747	 2.6831711035	 0.118133
H	-0.1426505567	-1.0513097642	 3.2359371427	 0.141234
50.4885	75.1586	125.5626	163.3608	176.4478	185.3338	243.3618	264.0184	282.2066	304.4366	331.9548	532.3183	582.239	594.4829	626.6318	665.5019	728.755	743.7576	823.7478	846.4186	984.7864	1016.9641	1055.242	1065.1361	1095.6794	1139.7352	1147.8172	1189.7761	1205.5111	1253.8056	1376.4895	1411.0825	1418.0298	1435.0341	1464.2639	1471.3985	1479.3961	1484.7004	1493.7053	1496.3004	1509.9308	1520.5532	1558.6439	1637.2752	1662.9073	2996.1532	3006.9045	3015.8237	3042.4369	3047.3284	3085.4102	3110.9182	3116.5417	3139.1464	3227.7398	3503.4979	3589.9126
CN1C(C)=CC(N)=C1C	Cn1c(C)cc(N)c1C	
InChI=1S/C7H12N2/c1-5-4-7(8)6(2)9(5)3/h4H,8H2,1-3H3	InChI=1S/C7H12N2/c1-5-4-7(8)6(2)9(5)3/h4H,8H2,1-3H3
