21
gdb 108533	2.70979	1.69202	1.27487	1.2362	81.94	-0.2329	0.0956	0.3285	1072.6987	0.183971	-387.055953	-387.048202	-387.047258	-387.088067	31.318	
C	-0.054412455	 1.5650998094	-0.0212933587	-0.37888
C	 0.1225373704	 0.0427234795	 0.0385672734	-0.288381
C	 0.7013864846	-0.5324258785	-1.230531286	 0.520044
O	 2.0046959293	 0.0001019832	-1.4603310089	-0.329269
C	 2.409898739	-0.6330521063	-2.6799021533	-0.113871
C	 1.1903249285	-1.4913490457	-2.9685089844	-0.05769
C	 0.6933381247	-2.0556774682	-1.5937565626	-0.129976
C	-0.7620518422	-1.9228631604	-2.0969887931	-0.261169
C	-0.0671526018	-0.6352235856	-2.5946392395	-0.120809
H	 0.9004574345	 2.055012272	-0.2261584399	 0.137102
H	-0.755421262	 1.8502961397	-0.8129543033	 0.112576
H	-0.4446859073	 1.9502080675	 0.9254617319	 0.107803
H	 0.7945019578	-0.2192258504	 0.8647848625	 0.10731
H	-0.8374614109	-0.440139884	 0.2493050447	 0.101554
H	 2.6050202964	 0.1208495294	-3.453543204	 0.098721
H	 3.3261421927	-1.2152772459	-2.5182237858	 0.099225
H	 1.1728259327	-2.1250093386	-3.85552012	 0.070974
H	 1.1418838395	-2.8707679852	-1.0229887244	 0.068083
H	-1.0653092703	-2.6312431712	-2.8719667276	 0.093615
H	-1.5482204073	-1.8146421874	-1.3458312585	 0.094046
H	-0.4935058733	 0.1821202366	-3.1786181926	 0.068992
86.6446	167.6102	199.6419	298.2432	328.059	348.8297	441.3815	476.0453	624.9335	685.1146	731.2772	751.8678	782.4503	839.3537	903.2947	909.3882	915.1888	959.0845	970.7147	982.6666	1006.787	1019.7208	1032.0592	1058.141	1078.1224	1097.0323	1109.8912	1148.9186	1169.4411	1170.606	1206.1619	1209.4917	1243.5562	1254.5696	1287.6403	1311.8765	1320.8023	1366.5422	1397.6165	1407.5426	1474.9252	1496.257	1510.1393	1520.4011	1522.9457	3012.0804	3035.8406	3040.2913	3048.0612	3056.3734	3075.4281	3095.7817	3100.1006	3104.84	3113.4942	3120.6975	3128.1289
CCC12OCC3C1CC23	CC[C@@]12OC[C@H]3[C@@H]1C[C@@H]23	
InChI=1S/C8H12O/c1-2-8-6-3-7(8)5(6)4-9-8/h5-7H,2-4H2,1H3	InChI=1S/C8H12O/c1-2-8-6-3-7(8)5(6)4-9-8/h5-7H,2-4H2,1H3/t5-,6-,7+,8+
