16
gdb 25727	2.69455	1.52113	0.99282	4.8101	74.64	-0.2313	-0.0247	0.2066	1138.9707	0.126111	-434.149171	-434.140748	-434.139804	-434.182515	30.967	
C	 0.1782646281	 1.5175382917	 0.1177053728	-0.501154
C	 0.0850651781	 0.0330084396	-0.0001776585	 0.222937
C	-0.043047808	-0.7331671592	-1.1454201886	 0.167616
N	-0.0542616691	-2.0505421331	-0.6998912106	-0.333905
C	 0.0395140361	-2.0126484655	 0.6519085483	 0.01508
N	 0.1434703503	-0.7821465714	 1.1052476296	-0.303501
C	-0.1180965666	-0.3557576444	-2.5614654618	 0.295218
N	 0.1243114007	-1.3946991026	-3.4564791489	-0.55466
O	-0.4106274015	 0.7627446169	-2.9436833981	-0.349962
H	 1.1357377772	 1.8099903609	 0.5623984644	 0.131244
H	 0.0709479617	 1.9864451447	-0.8602297864	 0.159468
H	-0.6090150308	 1.8926276482	 0.7801083309	 0.136683
H	-0.2791124899	-2.854479689	-1.2626807201	 0.268657
H	 0.0243186883	-2.9079326518	 1.2563727758	 0.137293
H	 0.8282953412	-2.0724586394	-3.2020293389	 0.249431
H	 0.1903052142	-1.0771853955	-4.4141296099	 0.259554
84.3803	93.9347	166.7385	181.0704	276.9689	316.3872	423.4569	432.3918	507.5122	555.7021	584.8093	661.1547	681.9361	696.581	705.7955	794.9139	839.7004	957.3042	995.7659	1066.0103	1069.4032	1114.2588	1157.6602	1206.1466	1295.3427	1327.9343	1393.8611	1408.2378	1457.6675	1479.7588	1489.7023	1511.4546	1602.7331	1623.2333	1776.0623	3040.2313	3091.9399	3158.9551	3247.479	3554.1777	3658.8842	3668.801
CC1=C(NC=N1)C(N)=O	Cc1c([nH]cn1)C(=O)N	
InChI=1S/C5H7N3O/c1-3-4(5(6)9)8-2-7-3/h2H,1H3,(H2,6,9)(H,7,8)	InChI=1S/C5H7N3O/c1-3-4(5(6)9)8-2-7-3/h2H,1H3,(H2,6,9)(H,7,8)
