16
gdb 43570	3.27374	1.36876	1.09408	3.0578	76.51	-0.2601	0.0151	0.2752	1094.024	0.124667	-400.717002	-400.70933	-400.708386	-400.749302	29.708	
N	-0.0340160014	 1.2020979633	 0.3455469154	-0.548174
C	-0.0220122263	-0.0163058889	 0.0191331493	 0.418814
O	 1.1103108882	-0.7122377328	-0.3421744996	-0.255019
C	 0.7657282225	-1.9521316151	-1.0065628502	-0.090414
C	 1.6762825364	-3.0096315292	-0.5850037478	 0.333095
C	 2.4123220914	-3.9007796094	-0.2590736269	-0.44427
C	-0.7062232471	-2.2002364014	-0.6776775139	-0.060521
C	-1.0570170355	-2.1985553823	 0.775651929	-0.29063
C	-1.19623875	-0.9231443847	-0.0368055446	-0.114262
H	 0.9014125472	 1.6039310145	 0.2651322409	 0.225076
H	 0.8761572874	-1.789859242	-2.0873109684	 0.120578
H	 3.0671498064	-4.6848267017	 0.0324032603	 0.206567
H	-1.295824428	-2.7591580543	-1.3924716657	 0.11126
H	-1.9805722705	-2.6862980133	 1.0641683459	 0.126257
H	-0.2577809493	-2.2631634744	 1.5062495174	 0.140972
H	-2.1704964414	-0.4900072683	-0.2132689911	 0.120672
86.171	130.7686	190.1878	264.3717	345.5048	405.7656	505.9427	534.383	594.7173	633.813	677.8041	713.1361	738.0409	801.243	836.8865	846.4535	887.3515	940.2093	971.3643	993.8932	1009.2838	1049.4584	1074.081	1096.1935	1101.9419	1112.6995	1196.8887	1269.6178	1322.0734	1349.8086	1364.2062	1377.3894	1486.901	1782.5363	2244.4891	3013.6832	3140.0729	3200.2199	3221.2628	3232.601	3477.6018	3501.4808
N=C1OC(C#C)C2CC12	[NH][C]1O[C@@H](C#C)[C@H]2C[C@@H]12	
InChI=1S/C7H7NO/c1-2-6-4-3-5(4)7(8)9-6/h1,4-6,8H,3H2	InChI=1S/C7H7NO/c1-2-6-4-3-5(4)7(8)9-6/h1,4-6,8H,3H2/t4-,5+,6-/m0/s1
