17
gdb 45448	2.8047	1.62255	1.17645	5.8871	75.34	-0.2347	-0.0492	0.1855	1046.6808	0.13789	-418.024533	-418.01683	-418.015886	-418.057466	29.308	
N	-0.0554704284	 1.3189906111	-0.3103126364	-0.516801
C	 0.0395796647	 0.0632000808	-0.1178593008	 0.263233
N	 1.1344661628	-0.7656585321	-0.0268199297	-0.334314
C	 0.8701039582	-2.1685256558	 0.2366840237	-0.009777
C	 1.051682092	-2.6324839976	 1.7131545217	-0.228095
C	-0.479379544	-2.4939754491	 1.9359751128	-0.231992
C	-0.6724705978	-2.2223920466	 0.400791553	-0.128565
C	-1.1845077895	-0.8352728499	 0.0642571828	 0.373954
O	-2.32920812	-0.4849207366	-0.0251010044	-0.291791
H	 0.8633040715	 1.7574989636	-0.4087112393	 0.203237
H	 2.0728452287	-0.3985079623	-0.0292853254	 0.243519
H	 1.3274790911	-2.80971598	-0.5228535549	 0.08777
H	 1.4025930229	-3.6649537356	 1.7839841526	 0.11083
H	 1.6967648885	-1.9991065827	 2.3261214694	 0.105521
H	-0.9881261165	-3.3875819404	 2.2993007061	 0.122214
H	-0.7758442828	-1.6529148716	 2.5663721621	 0.125258
H	-1.2108556512	-3.0022456853	-0.1357585134	 0.105799
52.874	77.9832	204.1372	328.1907	354.9496	390.9194	456.9652	503.7027	610.0263	634.034	712.3816	745.8604	794.5205	802.971	854.7539	890.4525	900.7247	956.5852	966.0544	1016.7532	1056.211	1092.4501	1133.7385	1162.4848	1193.0785	1222.9886	1244.7672	1261.9751	1271.9561	1289.6064	1327.4695	1385.7836	1423.1292	1474.0153	1495.3974	1735.2042	1856.9075	3050.5416	3066.5804	3078.6602	3115.1317	3125.4926	3138.6417	3439.6623	3629.9611
N=C1NC2CCC2C1=O	[NH][C]1N[C@H]2CC[C@H]2C1=O	
InChI=1S/C6H8N2O/c7-6-5(9)3-1-2-4(3)8-6/h3-4H,1-2H2,(H2,7,8)	InChI=1S/C6H8N2O/c7-6-5(9)3-1-2-4(3)8-6/h3-4H,1-2H2,(H2,7,8)/t3-,4+/m1/s1
