15
gdb 77151	2.78427	1.23258	0.92165	3.6559	62.54	-0.2448	-0.0025	0.2424	1198.8778	0.112639	-491.122658	-491.113856	-491.112912	-491.157075	31.3	
N	 0.0814845822	 0.9223064306	-0.0641287163	-0.527474
H	 0.207682623	-0.0845691564	-0.1155874172	 0.244882
H	 0.9999598262	 1.3395144967	-0.1712725441	 0.253586
H	-2.5786239916	 2.2348145959	-0.4007745576	 0.317225
C	-0.5078831199	 1.3086063308	 1.1922691805	-0.154199
C	-2.0025355866	 0.8884075103	 1.4307871737	-0.116541
N	-1.5879727797	 0.3497207654	 2.7132403388	-0.322932
C	-0.2387927104	 0.5782219753	 2.5527468353	 0.409244
O	 0.7283364552	 0.3053490995	 3.2076743791	-0.351402
C	-3.0205224528	 2.0110953416	 1.4523499392	 0.422574
O	-3.192912995	 2.6077415777	 0.247708173	-0.370069
O	-3.6332657242	 2.3616945717	 2.4196366919	-0.319116
H	-0.3792276731	 2.3867648319	 1.3300844609	 0.132162
H	-2.3242438819	 0.1225365059	 0.7114709817	 0.112939
H	-2.1396438214	 0.049646023	 3.5023693612	 0.269121
53.6818	70.8304	129.9553	217.4455	238.5393	297.397	320.9962	408.3105	417.6016	513.8821	561.8035	654.4852	694.6857	721.966	753.2105	809.8844	918.9193	938.2378	980.4106	1064.1818	1139.3176	1168.328	1184.23	1197.7706	1219.2083	1268.2641	1311.6319	1359.8324	1397.1586	1427.4973	1665.5342	1881.8805	1901.0134	3011.0725	3074.0276	3500.6264	3583.4726	3631.239	3754.2077
[NH3+]C1C(NC1=O)C([O-])=O	N[C@H]1[C@@H](NC1=O)C(=O)O	
InChI=1S/C4H6N2O3/c5-1-2(4(8)9)6-3(1)7/h1-2H,5H2,(H,6,7)(H,8,9)	InChI=1S/C4H6N2O3/c5-1-2(4(8)9)6-3(1)7/h1-2H,5H2,(H,6,7)(H,8,9)/t1-,2+/m0/s1
