17
gdb 77779	2.56243	1.3622	1.05754	2.8291	82.13	-0.2452	-0.023	0.2223	1163.4382	0.133868	-384.652528	-384.643945	-384.643	-384.685577	32.832	
C	-0.0055872015	 1.5703100942	 0.0199438692	-0.423159
C	 0.0884223417	 0.0601282333	 0.0903220231	-0.056541
C	 1.3335206607	-0.7481616848	-0.2363998276	-0.24384
C	 2.5548667435	-0.095828614	 0.34054568	 0.428054
O	 3.6512482704	 0.1190466489	-0.0919883857	-0.315989
C	 1.9544915061	-0.0108795679	 1.7653067662	-0.423137
C	 0.7032058057	-0.7278155238	 1.212927933	 0.160888
C	 0.0336967636	-1.792458834	 1.8767302598	 0.167347
C	-0.5301556258	-2.6850190828	 2.4547902718	-0.381848
H	 0.8945141191	 2.0696411094	 0.3850358734	 0.133463
H	-0.1582595106	 1.8870982909	-1.0167442383	 0.132442
H	-0.855386908	 1.9299459379	 0.6092992005	 0.129715
H	-0.7950874289	-0.439370936	-0.301857017	 0.111184
H	 1.3193463058	-1.5326991875	-0.9832694886	 0.120256
H	 2.532341768	-0.6420648258	 2.4456345783	 0.144966
H	 1.814258497	 0.9730346656	 2.2192669881	 0.124683
H	-1.0273570468	-3.4745104835	 2.9616598139	 0.191518
90.871	146.1552	155.6163	191.0445	278.7109	332.7685	426.9212	461.3091	489.2275	517.8974	574.082	589.4702	602.7741	647.6868	661.6809	723.6611	832.476	893.1394	939.2508	963.6919	1011.5579	1027.2521	1098.5936	1103.1474	1112.8395	1131.9825	1207.5703	1236.2359	1245.1436	1323.5704	1419.0325	1442.5759	1466.249	1495.4069	1505.0187	1882.6155	2233.8892	3042.1479	3067.9019	3103.434	3121.2791	3123.9481	3141.6275	3197.336	3502.3851
CC1C2C(=O)CC12C#C	C[C@H]1[C@H]2C(=O)C[C@@]12C#C	
InChI=1S/C8H8O/c1-3-8-4-6(9)7(8)5(8)2/h1,5,7H,4H2,2H3	InChI=1S/C8H8O/c1-3-8-4-6(9)7(8)5(8)2/h1,5,7H,4H2,2H3/t5-,7-,8-/m0/s1
