25
gdb 115872	2.3381	1.34323	1.01782	0.1754	92.1	-0.2514	0.0837	0.3351	1327.5178	0.229996	-352.374531	-352.365051	-352.364107	-352.40833	37.376	
C	-0.0322294055	 1.5727281154	 0.0592627629	-0.385008
C	-0.0229063031	 0.0417715618	-0.0083771606	-0.186161
C	 0.7206724018	-0.5230425197	-1.225856911	-0.007224
C	 2.2324632898	-0.18643332	-1.2665488243	-0.241462
C	 2.8824579519	-1.3007451004	-2.1168987201	-0.225131
C	 1.995489239	-2.5161039319	-1.8965093762	-0.075648
C	 1.59643478	-2.8386838406	-0.4743677692	-0.337992
C	 0.6578379846	-2.049930953	-1.3623772362	 0.366631
C	-0.6468480704	-2.6719359573	-1.8013748863	-0.487581
H	 0.9805904661	 1.979564462	 0.1457335481	 0.116724
H	-0.4858065601	 2.0049189488	-0.8401945534	 0.111167
H	-0.6050372404	 1.9272308818	 0.922056425	 0.108977
H	 0.4284233482	-0.3655693947	 0.9060014017	 0.092197
H	-1.0589275606	-0.3198661194	-0.0217743377	 0.091875
H	 0.2494543782	-0.1069928626	-2.1304416121	 0.059791
H	 2.428806939	 0.810319841	-1.6696624553	 0.096053
H	 2.6417671157	-0.1957226168	-0.2493948921	 0.098221
H	 2.8653407588	-1.0293579704	-3.1796772603	 0.095395
H	 3.9309428303	-1.4703514218	-1.846844984	 0.092914
H	 2.0491770498	-3.334857586	-2.6072420317	 0.073217
H	 1.3188541129	-3.8660637725	-0.2616224101	 0.102197
H	 2.1103048417	-2.3491373045	 0.3469927237	 0.103397
H	-1.438084623	-2.5251172593	-1.0566780261	 0.116058
H	-0.997061819	-2.2352402162	-2.7448725624	 0.110443
H	-0.5398878158	-3.7508882939	-1.9534313222	 0.11095
90.2796	122.161	182.5737	206.6727	235.7401	248.7833	282.7496	312.7869	403.0344	434.2426	486.3791	539.1063	628.4129	695.9281	772.8655	817.1749	826.3935	864.1918	892.5732	938.9732	944.0245	960.2675	980.6102	1013.1883	1018.9572	1051.4451	1066.5065	1070.6827	1097.3817	1109.25	1139.2626	1156.655	1197.909	1226.1409	1260.2357	1282.4281	1296.9824	1314.8912	1331.5771	1343.1716	1357.0692	1383.1421	1406.896	1410.6591	1422.8656	1486.245	1488.3513	1488.637	1495.4026	1500.1807	1503.5827	1508.2682	1513.3854	2975.3772	3015.4018	3017.6769	3026.5923	3029.531	3033.9508	3048.1201	3063.9609	3074.1656	3092.0039	3093.4249	3095.0755	3102.7051	3123.6349	3154.4882	3203.2704
CCC1CCC2CC12C	CC[C@H]1CC[C@H]2C[C@@]12C	
InChI=1S/C9H16/c1-3-7-4-5-8-6-9(7,8)2/h7-8H,3-6H2,1-2H3	InChI=1S/C9H16/c1-3-7-4-5-8-6-9(7,8)2/h7-8H,3-6H2,1-2H3/t7-,8-,9-/m0/s1
