19
gdb 70030	3.30937	1.51823	1.34504	2.3912	73.92	-0.2289	0.079	0.3079	1021.2749	0.160165	-422.997268	-422.989643	-422.988699	-423.029149	30.077	
C	-0.2097254501	 1.4614143691	 0.1513727915	-0.505139
C	 0.1159157956	 0.0119899574	-0.0013326188	 0.408297
O	-0.7779116896	-0.9529201472	 0.5731581872	-0.282903
C	 0.6070706931	-1.0069908472	 0.9520057759	-0.080928
C	 1.3779242596	-1.7398597428	-0.1734623914	 0.09661
O	 0.9747375566	-3.0229024833	-0.5668165377	-0.263567
C	-0.1399015338	-2.912227331	-1.4616015351	-0.068305
C	-0.0294086098	-1.5326408332	-2.1591109912	-0.247574
C	 0.8144289051	-0.6933936925	-1.189970769	-0.134034
H	 0.6696075632	 2.0806314859	-0.0535925134	 0.125233
H	-0.9992610753	 1.7589160656	-0.5483472525	 0.131177
H	-0.5589775689	 1.6698861084	 1.1661104076	 0.135998
H	 0.8256873347	-0.9450421005	 2.0129934842	 0.098669
H	 2.4599923013	-1.7326273165	-0.0149734734	 0.082571
H	-0.0738511702	-3.7500311999	-2.1631342641	 0.096775
H	-1.0781612868	-2.9879626892	-0.9043367123	 0.116469
H	 0.4892557658	-1.6262768324	-3.1174416711	 0.104229
H	-1.0166318767	-1.1044017194	-2.3501896014	 0.10902
H	 1.5701887561	-0.0744056414	-1.6759824749	 0.077402
119.335	197.7303	208.3439	227.8339	253.0159	342.6747	487.0172	561.1343	622.0818	670.6246	702.6379	772.8125	826.1136	848.0264	880.6899	893.355	914.6352	946.719	970.6919	999.8642	1034.6686	1052.347	1071.9231	1115.21	1131.3335	1159.4048	1195.9318	1222.6935	1234.2022	1260.4483	1268.0793	1297.6717	1328.3848	1348.5261	1400.239	1404.5283	1461.788	1482.1098	1483.5232	1493.9944	1518.1739	3032.9413	3043.9098	3058.2657	3072.9203	3084.8593	3094.251	3100.4837	3112.3271	3121.0659	3172.8253
CC12OC1C1OCCC21	C[C@]12O[C@H]1[C@H]1OCC[C@@H]21	
InChI=1S/C7H10O2/c1-7-4-2-3-8-5(4)6(7)9-7/h4-6H,2-3H2,1H3	InChI=1S/C7H10O2/c1-7-4-2-3-8-5(4)6(7)9-7/h4-6H,2-3H2,1H3/t4-,5+,6+,7-/m1/s1
