14
gdb 20726	7.40007	1.2635	1.08651	2.2398	68.65	-0.2577	-0.0636	0.1941	1035.3315	0.108232	-378.766284	-378.758945	-378.758	-378.798324	25.895	
C	-0.010234168	 1.5037319065	-0.040111152	-0.491697
C	 0.0007333447	 0.0099247078	 0.0437992088	 0.359813
N	-0.062848608	-0.7342567962	-1.0704301435	-0.258962
N	-0.0327706935	-2.0000501222	-0.6509897399	-0.2378
C	 0.0485273055	-2.1128615793	 0.7014227613	 0.308068
C	 0.0925284835	-3.4153787205	 1.3508476771	 0.082671
O	 0.0600272983	-4.4650656474	 0.7425180747	-0.293553
C	 0.0723846179	-0.8129117231	 1.1869804634	-0.376925
H	 0.8982532509	 1.9347526688	 0.3937013086	 0.133921
H	-0.0747831344	 1.8149462498	-1.0845773633	 0.145951
H	-0.8629750106	 1.9278176801	 0.5005285837	 0.133903
H	-0.0688361663	-2.7659037145	-1.3049168029	 0.289582
H	 0.1582918204	-3.3821113832	 2.4576501877	 0.088066
H	 0.1329701597	-0.5114771467	 2.2208540864	 0.116964
76.2332	112.3916	169.0599	254.952	328.8013	335.3795	489.6107	590.9968	668.4052	690.0787	708.0676	787.8596	830.1555	989.3482	1008.3963	1029.7036	1052.4539	1067.4145	1158.2286	1211.4957	1310.6754	1379.9812	1411.9041	1416.1721	1473.492	1484.4621	1489.944	1496.8397	1595.2546	1775.9994	2923.9919	3039.5226	3092.5468	3136.7407	3261.7662	3659.9917
CC1=NNC(C=O)=C1	Cc1n[nH]c(C=O)c1	
InChI=1S/C5H6N2O/c1-4-2-5(3-8)7-6-4/h2-3H,1H3,(H,6,7)	InChI=1S/C5H6N2O/c1-4-2-5(3-8)7-6-4/h2-3H,1H3,(H,6,7)
