16
gdb 66527	2.88047	1.67361	1.25746	4.5305	78.1	-0.2412	0.0108	0.252	999.6583	0.12386	-363.525631	-363.5182	-363.517256	-363.557394	28.946	
C	 0.0195767204	 1.5155716488	 0.0107958348	-0.521824
C	 0.001341279	 0.0248466945	 0.0025199691	 0.274127
C	 0.8424232441	-0.987079751	-0.7641890979	-0.145976
C	 0.8394576385	-0.9954353276	 0.7613752365	-0.145965
C	-0.3382449791	-2.0110820955	 0.7452903172	-0.147032
C	-0.335235181	-2.0029099478	-0.7637051247	-0.147023
C	-1.2013179846	-0.9839298121	-0.005385964	 0.245296
C	-2.6035807032	-0.8071595928	-0.0072212618	 0.123197
N	-3.751256777	-0.643288479	-0.0090652608	-0.362785
H	 1.0514390676	 1.8830049496	 0.0131056777	 0.12834
H	-0.4810981836	 1.9262203739	-0.8729687251	 0.135647
H	-0.481647392	 1.9165145246	 0.8986970296	 0.13561
H	 1.6551112851	-0.8193449405	-1.4572082905	 0.100209
H	 1.6494498331	-0.8353193348	 1.4593311674	 0.100208
H	-0.6769010999	-2.7670156864	 1.4401966074	 0.113985
H	-0.6711120073	-2.7512742339	-1.4680861247	 0.113987
122.6899	147.0093	208.3969	252.9958	283.0898	498.2321	519.6079	531.9054	618.3486	649.8984	752.5189	793.0511	827.0948	844.1768	860.33	881.7127	892.8704	893.1256	933.9439	972.978	1009.466	1013.5837	1098.7663	1102.1733	1167.1611	1182.0033	1220.2687	1234.2189	1259.015	1378.506	1404.0927	1437.9822	1478.4041	1496.22	2331.8485	3026.525	3090.6118	3098.4357	3202.2425	3214.4306	3214.76	3223.6016
CC12C3C1C1C3C21C#N	C[C@@]12[C@H]3[C@@H]1[C@@H]1[C@H]3[C@]21C#N	
InChI=1S/C8H7N/c1-7-3-4(7)6-5(3)8(6,7)2-9/h3-6H,1H3	InChI=1S/C8H7N/c1-7-3-4(7)6-5(3)8(6,7)2-9/h3-6H,1H3/t3-,4+,5-,6+,7+,8-
