18
gdb 84295	2.22746	1.88976	1.17873	4.8561	78.74	-0.2318	-0.0488	0.183	1064.3102	0.148457	-401.956233	-401.948162	-401.947218	-401.988951	31.015	
C	-0.0667164642	 1.6012910323	-0.0650207444	-0.397377
C	 0.0176967946	 0.0690516015	 0.0148864443	-0.148921
C	 0.8058593854	-0.5238007879	-1.1342154021	-0.060233
C	 1.8245309312	-1.3021631522	-0.7514062228	-0.190878
C	 1.8875433645	-1.3669577436	 0.7267369812	 0.359806
O	 2.6867351278	-1.9580493716	 1.4142806267	-0.334692
C	 0.7475617427	-0.5008526469	 1.2349033636	 0.192109
C	 0.8948585765	 0.1835545368	 2.548972069	-0.271901
N	 0.0452797518	-1.0039703435	 2.4365295853	-0.334742
H	 0.92814336	 2.0520905779	-0.0031762051	 0.130064
H	-0.5252070628	 1.9140303595	-1.0090285728	 0.119414
H	-0.6774132933	 2.0075878101	 0.746973159	 0.120513
H	-1.0076262524	-0.3292414885	-0.0236844714	 0.09671
H	 0.5392982636	-0.3004307341	-2.1626544185	 0.115424
H	 2.5229263611	-1.8270667469	-1.3903518138	 0.121001
H	 1.8178321911	 0.0217818927	 3.0988930289	 0.139743
H	 0.4331953014	 1.1582219598	 2.6787262329	 0.113575
H	-0.9311759691	-0.7175052153	 2.3828470499	 0.230387
55.5909	213.176	224.1885	252.3777	262.0549	291.8068	338.2377	480.2032	504.745	583.5135	671.6854	711.6169	745.6178	820.4754	840.9575	895.4526	905.4435	947.7	980.9973	1001.7386	1022.2293	1040.2947	1089.4985	1107.3473	1122.951	1145.1496	1163.2768	1268.3486	1282.9155	1308.9293	1327.3691	1364.0148	1387.004	1413.1431	1489.0478	1497.2742	1504.3547	1647.2196	1818.2859	2989.3621	3035.6445	3102.0388	3111.4533	3115.6098	3181.9452	3203.4917	3226.3195	3473.006
CC1C=CC(=O)C11CN1	C[C@H]1C=CC(=O)[C@]21CN2	
InChI=1S/C7H9NO/c1-5-2-3-6(9)7(5)4-8-7/h2-3,5,8H,4H2,1H3	InChI=1S/C7H9NO/c1-5-2-3-6(9)7(5)4-8-7/h2-3,5,8H,4H2,1H3/t5-,7+/m0/s1
