22
gdb 64223	2.96549	0.96552	0.89116	4.2482	86.51	-0.2959	0.038	0.3339	1419.9277	0.193449	-367.232089	-367.222335	-367.22139	-367.266612	36.82	
C	-0.0576099449	 1.5429254536	-0.0703244592	-0.439853
C	-0.0160605375	 0.0120325732	-0.0353107423	 0.306552
C	-1.3927277935	-0.5700494971	-0.3417779932	-0.452631
C	 1.1816333972	-0.5451937477	-0.8727915401	-0.254082
C	 2.0196257117	-0.6609595457	 0.4272836054	-0.23786
C	 0.7012612822	-0.5742848238	 1.235139143	 0.015194
C	 0.6730136488	 0.2066609578	 2.5557618393	-0.379513
C	 1.4613383736	-0.4502600389	 3.5974848979	 0.2626
N	 2.0899642953	-0.9865955595	 4.405624618	-0.309268
H	 0.9232094622	 1.9901210845	 0.1222630166	 0.114846
H	-0.3825433187	 1.8860216509	-1.0585928599	 0.117847
H	-0.7629519914	 1.9472524816	 0.6648372191	 0.112817
H	-1.7450618582	-0.2477259551	-1.3285248048	 0.11668
H	-1.3721395667	-1.6648564962	-0.3358296215	 0.113178
H	-2.1377298963	-0.2445707862	 0.394460382	 0.111694
H	 0.9548638702	-1.5248064704	-1.3030748077	 0.101254
H	 1.5685713044	 0.1010221915	-1.6650389739	 0.097598
H	 2.6290294768	-1.5560449906	 0.5632460435	 0.112628
H	 2.6572534568	 0.2138799072	 0.5866579527	 0.105165
H	 0.3172248427	-1.5824185176	 1.4225549236	 0.088357
H	 1.064324538	 1.2203179671	 2.4169079469	 0.147588
H	-0.3568051628	 0.3119456516	 2.9185201448	 0.149211
62.6106	117.9047	130.6464	210.7762	235.4257	258.7625	284.899	348.5092	355.4397	394.6004	397.7817	476.7989	525.9073	601.114	745.9745	794.0158	864.982	879.0498	910.9398	936.5757	948.8453	965.2695	984.8162	1004.2849	1026.4171	1104.3998	1120.1606	1185.3003	1195.0738	1224.1836	1243.1746	1253.4416	1276.676	1280.2523	1312.844	1330.8956	1388.0195	1402.7268	1421.0409	1464.8083	1480.8471	1484.1419	1492.5907	1501.0982	1506.8046	1508.2768	2359.3414	3018.6089	3025.322	3038.0423	3048.4274	3054.984	3060.8352	3081.1858	3082.7477	3090.7712	3093.7341	3096.3374	3103.1977	3121.4836
CC1(C)CCC1CC#N	CC1(C)CC[C@H]1CC#N	
InChI=1S/C8H13N/c1-8(2)5-3-7(8)4-6-9/h7H,3-5H2,1-2H3	InChI=1S/C8H13N/c1-8(2)5-3-7(8)4-6-9/h7H,3-5H2,1-2H3/t7-/m0/s1
