18
gdb 60658	2.39195	1.33547	1.12387	5.8807	66.89	-0.2466	0.0101	0.2567	1145.8365	0.148441	-476.223443	-476.214626	-476.213682	-476.257886	31.801	
N	 0.083284259	 1.0285590724	 0.0255886852	-0.542616
H	 0.5652492618	 0.152228728	 0.1935080437	 0.244829
H	 0.5448119652	 2.8763727293	-0.0093805482	 0.307727
H	-0.5008702955	 0.8997745888	-0.7942184453	 0.252131
C	-0.7189735421	 1.4330423021	 1.1933994537	-0.144083
C	-0.0385505406	 0.9426811754	 2.4782501626	-0.041119
C	 1.2774894349	 1.6037633758	 2.9568946141	-0.084911
O	 0.7300378547	 1.8358104855	 4.2670041804	-0.272447
C	-0.5813397782	 1.390132116	 3.8543701298	-0.099541
C	-0.8694253556	 2.9694703508	 1.1860827326	 0.423942
O	-1.707224687	 3.5494822553	 1.8243627455	-0.332582
O	 0.0345969011	 3.5968721931	 0.4224531748	-0.362261
H	-1.7389297198	 1.0274204742	 1.1760774687	 0.107482
H	 0.0502293835	-0.1466757817	 2.4113007797	 0.08429
H	 2.1640485479	 0.9595536238	 2.9870844281	 0.100727
H	 1.5357310193	 2.5402943681	 2.4455691156	 0.114458
H	-1.301159816	 2.2129419994	 3.8105284849	 0.143459
H	-0.9651948324	 0.5921138338	 4.4997817539	 0.100514
66.4355	66.9987	102.685	194.2042	224.3468	290.926	330.2281	387.5758	447.6547	518.7005	651.2244	702.3966	783.409	826.5952	873.223	877.5545	903.0002	931.1014	976.4887	1021.2506	1040.8519	1066.1917	1105.3398	1133.6692	1165.0904	1172.5758	1186.8128	1241.8844	1286.138	1305.1038	1318.2314	1350.2664	1363.8357	1404.4139	1423.3218	1514.3938	1541.4168	1654.6979	1863.4616	3012.817	3022.1017	3032.1804	3043.7525	3062.1832	3095.2772	3477.4169	3509.8145	3588.8876
[NH3+]C(C1COC1)C([O-])=O	N[C@@H](C1COC1)C(=O)O	
InChI=1S/C5H9NO3/c6-4(5(7)8)3-1-9-2-3/h3-4H,1-2,6H2,(H,7,8)	InChI=1S/C5H9NO3/c6-4(5(7)8)3-1-9-2-3/h3-4H,1-2,6H2,(H,7,8)/t4-/m0/s1
