19
gdb 87593	3.32887	1.30805	1.2009	1.9519	81.91	-0.2287	0.0075	0.2361	1118.5365	0.160802	-382.024158	-382.016361	-382.015417	-382.056227	31.152	
C	-0.1041536584	 1.5115971964	-0.1078456157	-0.398086
C	-0.0062757988	 0.0138952404	 0.0534356641	-0.038291
N	 1.3218240596	-0.5946268874	-0.1183921545	-0.395043
C	 0.6606440399	-0.6536561176	 1.2078478154	 0.360338
C	 1.308871369	 0.0278202493	 2.367794594	-0.143289
C	 1.260301382	-0.7275380359	 3.470200604	-0.06741
C	 0.5295398841	-2.0025613803	 3.2048032898	-0.09664
N	-0.8974994264	-1.7773629823	 2.8175240758	-0.335951
C	 0.1363065428	-1.9555491361	 1.7720819084	-0.16438
H	 0.7951430951	 2.0056323837	 0.267217286	 0.125749
H	-0.2135792181	 1.7772128477	-1.1649915607	 0.118091
H	-0.9713771891	 1.9045676019	 0.4328595044	 0.123826
H	-0.856453041	-0.5355194945	-0.3511693095	 0.080681
H	 1.250036099	-1.4995941061	-0.5796316562	 0.224724
H	 1.740035012	 1.0177787174	 2.2938527884	 0.104011
H	 1.6547237461	-0.4571960457	 4.4417894706	 0.101112
H	 0.7885068053	-2.9222854797	 3.7180752432	 0.090749
H	-1.3986963788	-2.6602396648	 2.915407524	 0.225622
H	 0.1050886155	-2.8394713264	 1.1412379585	 0.084187
115.5812	153.9282	204.4054	233.041	349.3074	402.7221	414.9225	485.7174	534.4717	618.3813	742.9037	761.15	799.4588	832.6873	842.5169	859.9329	885.5665	916.7968	946.5824	953.5858	972.8423	1031.2881	1044.9958	1067.3569	1076.7118	1103.2453	1131.9329	1148.1725	1159.3496	1231.4557	1248.7226	1281.5701	1304.2601	1356.3815	1394.7143	1402.3406	1412.3441	1464.6852	1489.6115	1501.78	1651.4386	3036.6629	3097.802	3100.8488	3129.158	3145.273	3170.3037	3203.7565	3228.076	3463.4739	3479.8348
CC1NC11C=CC2NC12	C[C@H]1N[C@]21C=C[C@H]1N[C@@H]21	
InChI=1S/C7H10N2/c1-4-7(9-4)3-2-5-6(7)8-5/h2-6,8-9H,1H3	InChI=1S/C7H10N2/c1-4-7(9-4)3-2-5-6(7)8-5/h2-6,8-9H,1H3/t4-,5-,6-,7+/m1/s1
