15
gdb 18461	3.34304	1.94805	1.54209	3.5307	61.44	-0.2469	0.0058	0.2527	847.1101	0.118725	-399.773725	-399.766436	-399.765492	-399.805594	26.655	
C	 0.2211952027	 0.8383552438	 0.3748741861	-0.245009
O	-0.2051806937	-0.0555907252	-0.6430548684	-0.238051
C	-1.4189213715	-0.6563397646	-0.3727471039	 0.123144
C	-1.6859478232	-2.0309156827	-0.8705472767	-0.062309
N	-0.4899093906	-2.8751833506	-0.8249185658	-0.336149
C	-0.304440386	-2.6391901417	 0.5541029932	 0.435945
O	 0.5577739674	-2.9807632303	 1.3104662876	-0.341274
C	-1.5704468171	-1.8007579801	 0.6433484275	-0.303514
H	 1.1760835264	 1.255108075	 0.0495032978	 0.135924
H	-0.4987268732	 1.6574297096	 0.5156019996	 0.11062
H	 0.3582477917	 0.3148603118	 1.3295466486	 0.134335
H	-2.2762204285	 0.0226152188	-0.3725442107	 0.100297
H	-2.5501536678	-2.3299643336	-1.4492348661	 0.117418
H	 0.2750549355	-2.7513785713	-1.4794564374	 0.24948
H	-2.324872692	-1.8089955388	 1.4172671086	 0.119142
74.8819	147.1824	189.9301	215.5858	310.7096	462.6281	489.9858	560.3079	644.9782	747.9132	777.781	800.011	848.0391	924.8149	929.6846	975.7667	1041.123	1065.3846	1080.4368	1100.4184	1141.7287	1178.7076	1193.5707	1249.1936	1273.6893	1321.6871	1337.5606	1412.9213	1487.7456	1488.1343	1504.7411	1902.1195	2996.5507	3060.6314	3072.6656	3132.7456	3201.8709	3223.4362	3546.8893
COC1C2NC(=O)C12	CO[C@H]1[C@H]2NC(=O)[C@@H]12	
InChI=1S/C5H7NO2/c1-8-4-2-3(4)6-5(2)7/h2-4H,1H3,(H,6,7)	InChI=1S/C5H7NO2/c1-8-4-2-3(4)6-5(2)7/h2-4H,1H3,(H,6,7)/t2-,3+,4-/m1/s1
