14
gdb 66506	3.73938	1.92088	1.67766	3.0811	63.12	-0.2069	-0.0703	0.1366	791.6139	0.098595	-436.500513	-436.494081	-436.493137	-436.530668	27.154	
O	-0.0797688034	 1.3985298762	 0.0628023644	-0.463215
C	 0.0482816476	 0.0347459341	 0.0076140882	 0.410068
C	-1.0312317706	-1.0099480494	 0.1672670561	-0.111208
C	-0.2941289899	-0.8778671102	-1.150178921	-0.211232
C	 0.723159634	-2.0330673954	-0.8618798354	 0.28003
N	 0.3496984526	-3.1225547131	-0.3027422399	-0.33649
C	-0.0265499295	-2.0522911733	 0.7515755421	-0.042124
C	 1.1556908399	-0.8555582518	 0.6290844631	-0.059287
O	 1.9418820365	-1.3858759864	-0.4447159532	-0.251355
H	 0.5617709075	 1.7950816066	-0.5383765173	 0.297613
H	-2.0959899732	-0.9190389694	 0.3269621521	 0.115961
H	-0.701818434	-0.5907140004	-2.1052275725	 0.125127
H	-0.1409660952	-2.5784179286	 1.6924607529	 0.133188
H	 1.7604680777	-0.5604110389	 1.4814748204	 0.112924
244.482	279.6466	312.8841	380.9371	471.5181	528.8966	556.4207	589.1008	645.269	679.2723	694.5451	765.0307	791.5282	826.7624	838.9245	871.1798	900.5896	906.8981	982.8985	1000.4972	1028.4356	1066.5579	1090.0455	1116.1782	1143.0074	1182.8141	1208.7859	1246.3755	1309.2104	1457.9565	1525.9221	3173.935	3183.9183	3225.9119	3263.7079	3788.0346
OC12C3C1C1=NC3C2O1	O[C@@]12[C@H]3[C@@H]1[C]1[N][C@H]3[C@H]2O1	
InChI=1S/C6H5NO2/c8-6-1-2(6)5-7-3(1)4(6)9-5/h1-4,8H	InChI=1S/C6H5NO2/c8-6-1-2(6)5-7-3(1)4(6)9-5/h1-4,8H/t1-,2+,3+,4+,6-/m0/s1
