17
gdb 98883	4.18253	1.00466	0.82251	2.2516	72.76	-0.2396	-0.0183	0.2213	1342.1888	0.136432	-455.172009	-455.163094	-455.16215	-455.206556	30.985	
O	-0.0125793939	 1.4183035838	 0.0102500854	-0.390713
C	-0.0039855034	 0.0164128074	 0.003033452	-0.19746
C	-1.4575108406	-0.468305197	 0.0114743869	 0.404966
O	-2.4089133615	 0.2786405863	 0.022478567	-0.330499
N	-1.624381673	-1.8387910954	 0.0056415049	-0.129684
C	-2.956085278	-2.466060273	 0.0129477816	-0.185411
C	-2.5837297576	-3.9753383975	 0.003225107	-0.178666
N	-1.1091621151	-4.0544843622	-0.0081011324	-0.258893
C	-0.6750661082	-2.8598437962	-0.0059888118	 0.083541
H	 0.9010467148	 1.71847506	 0.0028904961	 0.294062
H	 0.4959304166	-0.3965469455	-0.889358458	 0.112791
H	 0.5092262137	-0.4055407825	 0.8836153743	 0.112779
H	-3.5117245205	-2.1556003427	 0.9011862582	 0.13634
H	-3.5252225001	-2.1476029453	-0.8638376316	 0.136324
H	-2.9648493393	-4.5023233254	 0.8834631516	 0.125686
H	-2.9778949509	-4.4941695846	-0.8761130674	 0.125683
H	 0.379912847	-2.6103324703	-0.012783774	 0.139154
66.5362	98.2804	110.122	145.5742	169.6702	222.9409	303.2602	373.1437	502.8544	522.6697	580.8095	724.0727	789.9693	822.2129	898.0991	941.0888	950.0822	965.3834	1005.328	1032.8087	1111.4327	1143.132	1214.4219	1227.8388	1247.2956	1248.0034	1267.853	1318.7959	1334.9608	1360.4891	1406.1822	1460.0241	1496.6344	1511.5132	1524.8041	1697.5106	1798.2304	2955.8185	2981.9373	3051.2194	3068.4569	3079.612	3110.5874	3208.7507	3836.2518
OCC(=O)N1CCN=C1	OCC(=O)N1CCN=C1	
InChI=1S/C5H8N2O2/c8-3-5(9)7-2-1-6-4-7/h4,8H,1-3H2	InChI=1S/C5H8N2O2/c8-3-5(9)7-2-1-6-4-7/h4,8H,1-3H2
