17
gdb 61092	2.9349	0.86157	0.69575	2.0861	81.78	-0.255	-0.0223	0.2328	1584.127	0.133631	-418.003246	-417.993446	-417.992502	-418.038676	34.609	
C	 0.4619679862	 1.6758227378	 0.1778247637	-0.371188
C	 0.2618738529	 0.1512771249	 0.2788374955	-0.083432
N	-1.0810539191	-0.1083776314	 0.8035528945	-0.276803
C	-1.8825810743	-0.8432830481	 0.1548472508	 0.131461
N	-3.1579372752	-1.0757016618	 0.6538667555	-0.314715
C	-4.101368043	-1.8577641484	 0.0275498999	 0.159991
O	-3.9381155387	-2.4315380357	-1.0221823309	-0.293293
C	 0.5938935456	-0.5093367146	-0.988806202	 0.313669
C	 0.844270032	-1.0498773219	-2.0335470768	-0.479231
H	 1.4937112669	 1.90955873	-0.0965127568	 0.124714
H	-0.2048047797	 2.0946844566	-0.5804962647	 0.128469
H	 0.2298908635	 2.1355608429	 1.1414375092	 0.126429
H	 0.9586315829	-0.2201529114	 1.0435833098	 0.120612
H	-1.686596174	-1.3439594667	-0.7939426397	 0.154609
H	-3.3848418655	-0.6330120926	 1.5334591035	 0.263698
H	-5.0422208731	-1.8996557362	 0.6082672606	 0.0908
H	 1.0783325426	-1.5279433433	-2.9529151421	 0.204211
47.014	92.3434	138.823	171.8368	175.1968	214.148	245.2273	313.953	371.3518	415.511	441.9618	551.222	631.6885	656.9238	657.3696	668.8445	766.4265	832.4112	946.3141	1019.5246	1032.545	1049.0199	1093.8738	1098.5711	1141.3469	1246.6179	1312.0199	1334.2536	1356.8938	1399.6843	1438.7258	1485.8799	1494.1976	1500.3439	1746.0247	1821.4225	2226.3405	2958.3545	3004.8841	3049.3871	3129.6674	3134.3187	3135.6817	3500.4156	3608.5857
CC(N=CNC=O)C#C	C[C@@H](N=CNC=O)C#C	
InChI=1S/C6H8N2O/c1-3-6(2)8-4-7-5-9/h1,4-6H,2H3,(H,7,8,9)	InChI=1S/C6H8N2O/c1-3-6(2)8-4-7-5-9/h1,4-6H,2H3,(H,7,8,9)/t6-/m1/s1
