16
gdb 8397	4.18994	1.66157	1.44965	3.4014	64.98	-0.2239	0.0174	0.2413	884.6829	0.131594	-379.869353	-379.8618	-379.860856	-379.903593	27.55	
N	 0.0907891329	 1.1692914433	-0.4564852268	-0.534064
C	-0.0571024802	 0.0831073312	 0.3542305189	 0.257554
O	 0.7679851893	-0.2471482076	 1.1846833339	-0.365949
C	-1.3330400036	-0.7013287381	 0.1550818529	 0.234185
C	-2.5413115892	-0.5303016197	-0.8001042117	-0.242225
N	-2.936259409	-1.7895995644	-0.0090993132	-0.148694
C	-1.4631781788	-2.2031064417	-0.1929075127	-0.190727
C	-2.4111079736	-1.0195334501	 1.2180640558	-0.190731
H	 0.9229176022	 1.7298295999	-0.3674902228	 0.262964
H	-0.6010165498	 1.4277163802	-1.1372327005	 0.263127
H	-3.2172126297	 0.3139699287	-0.634797518	 0.104116
H	-2.3894452184	-0.7195543284	-1.8669113787	 0.104135
H	-1.2202044097	-2.5138001149	-1.2126038274	 0.103994
H	-1.1125020116	-2.9269474614	 0.5450907669	 0.119164
H	-2.1257587854	-1.6618043565	 2.0533052806	 0.119163
H	-3.0681907552	-0.2064099606	 1.5380978528	 0.103989
5.7731	137.2118	168.1472	199.8753	368.9403	450.1222	551.0283	601.9687	602.3293	644.3865	728.4126	801.8132	806.8345	873.3792	934.0113	979.0422	1001.5244	1005.6853	1023.1855	1080.1153	1145.0262	1156.2168	1168.5786	1169.7724	1195.7748	1201.0192	1205.7747	1296.655	1391.81	1511.4091	1512.3005	1564.2491	1613.2539	1791.6963	3041.3673	3056.5399	3062.8814	3108.5381	3130.7492	3135.2059	3600.2664	3740.2164
NC(=O)C12CN(C1)C2	NC(=O)[C@@]12CN(C1)C2	
InChI=1S/C5H8N2O/c6-4(8)5-1-7(2-5)3-5/h1-3H2,(H2,6,8)	InChI=1S/C5H8N2O/c6-4(8)5-1-7(2-5)3-5/h1-3H2,(H2,6,8)
