19
gdb 107934	4.08581	1.17369	1.09368	2.3799	75.	-0.2298	0.0643	0.2941	1170.7976	0.158215	-422.959579	-422.951196	-422.950252	-422.992406	32.548	
C	-0.0526444581	 1.4614240054	 0.0522417079	-0.506914
C	 0.0603583963	-0.0285378296	-0.0617768513	 0.281991
C	 0.9198952857	-0.8485798366	-1.0283303213	-0.307169
C	 0.0976382701	-2.0663015156	-0.5320485801	 0.413066
C	 0.0259451092	-3.3938503826	-1.2263048912	-0.188705
O	 1.2989365689	-4.0158356618	-1.241664603	-0.416706
O	 0.5403898644	-2.2025565117	 0.8645364542	-0.348706
C	-0.1807474439	-0.9962888114	 1.1126773391	 0.060616
C	-1.0527261943	-1.0809937542	-0.0931097216	-0.267693
H	 0.8984920057	 1.9058655721	 0.3671940034	 0.126287
H	-0.3339465406	 1.9170742874	-0.9039204719	 0.122058
H	-0.8116178185	 1.7465736313	 0.7893056839	 0.119274
H	 0.689413799	-0.6047182345	-2.0695052742	 0.100032
H	 2.002117967	-0.8975750691	-0.8743585318	 0.100581
H	-0.7293227318	-4.0237755963	-0.7310465982	 0.097228
H	-0.2778779168	-3.2582517499	-2.2696146415	 0.111799
H	 1.6061445107	-4.0312112904	-0.3273892384	 0.299199
H	-0.3722115284	-0.6955896013	 2.134819837	 0.10594
H	-2.1205972544	-1.0367925812	-0.2590885009	 0.097822
78.6851	137.2523	206.6041	227.0105	271.7437	330.2346	377.6705	412.6447	460.4468	540.2153	596.4405	694.7672	761.5718	776.829	819.2933	858.9613	895.3034	922.2151	930.3319	972.4316	1008.7743	1027.1791	1049.4123	1074.4122	1081.1253	1101.8053	1144.8548	1158.323	1188.9502	1218.5359	1265.3477	1293.5908	1337.6053	1378.9885	1397.9809	1421.3096	1441.8995	1485.7473	1491.0079	1494.8608	1499.8815	2986.595	3022.1826	3047.925	3076.7146	3084.3662	3089.684	3108.0107	3195.8721	3209.4844	3795.1923
CC12CC3(CO)OC1C23	C[C@@]12C[C@@]3(CO)O[C@@H]1[C@@H]23	
InChI=1S/C7H10O2/c1-6-2-7(3-8)4(6)5(6)9-7/h4-5,8H,2-3H2,1H3	InChI=1S/C7H10O2/c1-6-2-7(3-8)4(6)5(6)9-7/h4-5,8H,2-3H2,1H3/t4-,5+,6-,7-/m0/s1
