21
gdb 41530	2.89085	1.49292	1.07793	1.2262	85.48	-0.2293	0.0235	0.2528	1161.2743	0.184836	-387.080777	-387.072915	-387.071971	-387.113001	31.399	
C	 0.0253782001	 1.5132513328	-0.2338963962	-0.25137
C	 1.520963211	 1.5344255643	 0.2196646472	-0.322377
C	 1.3251669902	 0.1126569307	 0.7096297949	 0.377114
C	 1.8558858606	-0.6500268422	 1.6548311653	-0.255092
C	 1.3172542311	-2.0196288299	 1.9987938073	-0.125457
O	 0.5100796526	-2.5840602761	 0.9820696624	-0.235651
C	-0.8540696258	-2.2017365522	 0.9622971949	-0.07764
C	-1.1027834288	-0.6932745459	 0.7526851213	-0.247457
C	 0.0163605857	-0.03987626	-0.0528591865	-0.03065
H	-0.6286311163	 2.0101560113	 0.4881652921	 0.102035
H	-0.1952570663	 1.8974596001	-1.2320653912	 0.097247
H	 2.2058438766	 1.597124683	-0.6338494647	 0.110662
H	 1.8215225002	 2.2879831867	 0.9531671124	 0.10607
H	 2.7198398988	-0.3141083427	 2.2261987432	 0.07953
H	 2.1546695788	-2.7154665185	 2.1380342142	 0.112784
H	 0.7723442316	-1.9962477795	 2.9600700391	 0.09261
H	-1.2774580829	-2.7692952115	 0.1271111921	 0.107336
H	-1.3611273393	-2.5393273947	 1.8813574386	 0.086231
H	-2.0772030189	-0.5614370252	 0.2645972135	 0.095542
H	-1.1662773077	-0.1828793543	 1.721343053	 0.096527
H	 0.1512063686	-0.5485459364	-1.0151115827	 0.082006
93.5547	187.7397	209.8359	282.896	306.1647	329.8474	367.6807	462.3836	579.478	634.6631	700.2307	746.3048	773.1108	837.6107	850.9407	881.4052	922.707	928.4568	963.9314	1002.6282	1029.2331	1044.76	1062.2697	1092.8778	1112.2241	1153.8432	1165.2553	1203.3296	1218.9574	1240.3065	1260.7571	1268.5207	1278.0635	1299.8562	1327.9649	1352.4534	1381.0368	1391.1007	1417.7884	1471.009	1482.8461	1487.8467	1491.764	1502.2094	1776.2134	2938.3475	2968.2944	3021.2726	3028.8297	3033.7509	3036.3736	3053.4	3059.4777	3077.4754	3086.19	3116.921	3139.4192
C1CC2=CCOCCC12	C1CC2=CCOCC[C@@H]12	
InChI=1S/C8H12O/c1-2-8-4-6-9-5-3-7(1)8/h3,8H,1-2,4-6H2	InChI=1S/C8H12O/c1-2-8-4-6-9-5-3-7(1)8/h3,8H,1-2,4-6H2/t8-/m1/s1
