14
gdb 132422	3.17939	1.37797	0.96708	5.0603	70.12	-0.2312	-0.0565	0.1747	1127.9088	0.099757	-481.852083	-481.844413	-481.843469	-481.884415	28.447	
C	 0.0726711404	 1.4824047754	 0.0235026308	-0.469789
C	-0.0800988237	-0.0019997846	 0.0021181098	 0.396301
C	-1.2297948767	-0.695063189	-0.1537227568	-0.238239
C	-1.1867526221	-2.1239634144	-0.1491438413	-0.187017
C	-0.0030650869	-2.7523039113	 0.0102749453	 0.099109
F	 0.0985265401	-4.0758809557	 0.0230607649	-0.051683
C	 1.2500968825	-2.0315972853	 0.1804217698	 0.347531
O	 2.3440956989	-2.4993350226	 0.3285089808	-0.335459
O	 1.1033891507	-0.6424984531	 0.1614833657	-0.256395
H	 0.7465430852	 1.8106911632	-0.7750545058	 0.153511
H	-0.8944732508	 1.9708399786	-0.1061409848	 0.137581
H	 0.5119814869	 1.8097786408	 0.9718145344	 0.15351
H	-2.1662215684	-0.1696151158	-0.279620834	 0.117967
H	-2.0911008861	-2.7096748362	-0.2718319689	 0.133072
111.1711	155.3658	168.4773	294.1067	309.6735	364.5009	417.8481	456.6365	525.788	579.7138	622.5144	730.6041	761.2146	769.1916	825.0636	942.7031	969.3228	1026.6616	1059.9599	1064.6714	1108.2105	1211.7446	1285.6135	1379.5976	1385.9511	1418.1601	1468.1787	1485.2753	1631.0372	1702.1129	1848.4661	3040.7791	3096.9418	3142.1443	3198.7881	3230.2498
CC1=CC=C(F)C(=O)O1	Cc1ccc(F)c(=O)o1	
InChI=1S/C6H5FO2/c1-4-2-3-5(7)6(8)9-4/h2-3H,1H3	InChI=1S/C6H5FO2/c1-4-2-3-5(7)6(8)9-4/h2-3H,1H3
