18
gdb 53959	2.34245	1.34124	1.24462	3.4219	67.03	-0.2541	0.0136	0.2677	1110.1464	0.146784	-476.233632	-476.224528	-476.223584	-476.267552	33.856	
C	-0.1005621643	 1.5672474444	 0.0752545801	-0.438844
C	 0.0146210116	 0.037194817	 0.0193295527	 0.059655
N	 0.7006213398	-0.5506979302	 1.1816956746	-0.581035
H	 0.0105142293	-0.7398741138	 1.9057752768	 0.256845
H	 1.6201135206	-1.5424081547	-0.1160274152	 0.307549
H	 1.3666695995	 0.1118221232	 1.5663362344	 0.245367
C	-1.3857230393	-0.576021756	-0.0959050454	 0.096263
C	-1.6910733197	-1.964474253	 0.2612079759	-0.191879
O	-2.0524108116	-0.8751765329	 1.1298987905	-0.249521
C	 0.7568310003	-0.390126172	-1.2749884397	 0.439551
O	 1.6403529708	-1.3751319916	-1.0862966106	-0.374433
O	 0.5213099592	 0.0954460365	-2.3499089465	-0.352858
H	 0.8857923001	 2.0225138732	 0.2142661171	 0.119662
H	-0.5138591881	 1.9502256477	-0.8598069813	 0.153521
H	-0.7446385346	 1.8689352857	 0.9066407451	 0.127227
H	-2.0049706905	-0.0916917351	-0.8484633811	 0.120538
H	-2.5275999678	-2.4673908335	-0.2188152908	 0.132487
H	-0.9060430953	-2.6149760648	 0.6389641933	 0.129905
77.1707	83.485	167.6996	238.0439	256.6136	270.1701	328.579	358.4221	387.4719	412.7972	477.664	548.5291	649.6638	721.458	764.552	839.1992	871.622	887.0146	906.6416	959.3783	982.9027	1009.216	1082.1747	1100.736	1155.8026	1164.0127	1178.0992	1203.057	1256.3058	1297.4021	1303.7878	1400.2988	1420.5923	1434.2563	1488.5814	1500.7062	1524.519	1650.3189	1860.5347	3038.9925	3103.8526	3108.1715	3136.5738	3141.0659	3195.3539	3438.5422	3483.0034	3565.6278
CC([NH3+])(C1CO1)C([O-])=O	C[C@@](N)([C@H]1CO1)C(=O)O	
InChI=1S/C5H9NO3/c1-5(6,4(7)8)3-2-9-3/h3H,2,6H2,1H3,(H,7,8)	InChI=1S/C5H9NO3/c1-5(6,4(7)8)3-2-9-3/h3H,2,6H2,1H3,(H,7,8)/t3-,5-/m1/s1
