16
gdb 127167	4.29192	1.14302	0.90776	4.065	75.72	-0.2106	0.0061	0.2167	1222.2431	0.127209	-430.276142	-430.267919	-430.266975	-430.309502	29.442	
C	 0.014847041	 1.4514405798	-0.0700340824	-0.338435
N	 0.0064438561	-0.0055528336	-0.0094673156	-0.166301
C	-0.0217794372	-0.6681263275	 1.2040582134	 0.082073
N	-0.0411579387	-0.0426330307	 2.3145704046	-0.488958
C	 0.0273324541	-0.7109579343	-1.1948679796	 0.502521
N	 0.0541555919	-0.0937108929	-2.3711186172	-0.325686
N	 0.0666760675	-1.1524471031	-3.2307502965	-0.188791
C	 0.0473448108	-2.3090088866	-2.5515896321	 0.025734
N	 0.0220665553	-2.0780301851	-1.2537494485	-0.340479
H	 0.9138445886	 1.8056419611	-0.5828659686	 0.135532
H	-0.8575860398	 1.8140749496	-0.6213519461	 0.135596
H	-0.0054836207	 1.8191133865	 0.9539359135	 0.169809
H	-0.0246037761	-1.7509594001	 1.0728773121	 0.136361
H	-0.0603226289	-0.708069449	 3.0835509733	 0.224299
H	 0.0876061015	-0.9877397165	-4.2227933337	 0.284229
H	 0.0523959845	-3.2791403677	-3.0255365264	 0.152493
70.9407	111.0052	133.1301	199.7586	261.7736	329.095	364.004	472.3424	485.8114	503.4198	662.9481	770.6018	777.2568	805.6633	855.5371	951.5907	995.308	1037.5835	1067.2912	1099.7399	1132.2401	1163.1373	1178.4716	1251.8824	1311.863	1336.4515	1397.9088	1412.5101	1442.5733	1480.4394	1494.5515	1507.3738	1540.971	1607.2355	1714.4729	3046.9432	3104.204	3127.6144	3177.8043	3258.6747	3518.0685	3677.9216
CN(C=N)C1=NNC=N1	CN(C=N)c1n[nH]cn1	
InChI=1S/C4H7N5/c1-9(2-5)4-6-3-7-8-4/h2-3,5H,1H3,(H,6,7,8)	InChI=1S/C4H7N5/c1-9(2-5)4-6-3-7-8-4/h2-3,5H,1H3,(H,6,7,8)
