12
gdb 133544	2.23575	1.63372	1.23085	4.0889	52.23	-0.3013	-0.003	0.2982	972.729	0.073959	-563.151835	-563.143956	-563.143012	-563.184966	28.118	
F	-0.3166450352	 0.1022303354	-0.1692048618	-0.083959
C	-0.0453372635	 1.4004610448	 0.0456759089	 0.249607
F	 1.276104624	 1.5251960673	 0.1802723692	-0.056964
F	-0.4183742223	 2.08803482	-1.0339434744	-0.054168
C	-0.7720040616	 1.8914340778	 1.2897840141	 0.003057
C	-2.1216396077	 1.3159634534	 1.5783119413	-0.256831
N	-0.973961387	 0.9595161153	 2.4086337212	-0.325047
C	-0.460346484	 3.260352905	 1.6388163337	 0.269208
N	-0.2288427256	 4.3609111699	 1.9006149577	-0.315172
H	-2.8588201834	 1.9507895818	 2.0576799264	 0.158793
H	-2.5065351033	 0.5938075121	 0.8653369796	 0.150856
H	-0.6141738005	 0.042945407	 2.150353134	 0.26062
52.5271	138.1544	189.6815	252.0379	264.2075	369.1557	414.3582	445.2056	538.7359	551.7528	594.8357	626.2097	741.7895	883.8618	889.8944	947.2825	993.2547	1072.6273	1131.2209	1192.0508	1214.6985	1224.5062	1273.5254	1357.7983	1361.3422	1502.4326	2371.5888	3132.2531	3229.2108	3507.9454
FC(F)(F)C1(CN1)C#N	FC(F)(F)[C@]1(CN1)C#N	
InChI=1S/C4H3F3N2/c5-4(6,7)3(1-8)2-9-3/h9H,2H2	InChI=1S/C4H3F3N2/c5-4(6,7)3(1-8)2-9-3/h9H,2H2/t3-/m1/s1
