15
gdb 27557	5.49423	0.95941	0.86123	2.3019	67.96	-0.2044	0.0374	0.2417	1279.9319	0.11384	-453.961317	-453.95361	-453.952666	-453.993996	28.803	
O	-0.413318541	 1.237810126	 0.6825390534	-0.425905
C	-0.2000891822	 0.0047993787	 0.1940785333	 0.444969
N	-0.9016017011	-0.6110435978	-0.7185335166	-0.42664
C	-0.2756278819	-1.843060723	-0.8648457925	 0.273363
C	 0.7956032201	-1.9458177357	-0.0245384665	-0.194852
N	 0.8382031662	-0.7332842222	 0.657235907	-0.300031
C	-0.7771702011	-2.8485504771	-1.8211036246	-0.030538
C	 0.042442435	-3.3492996844	-2.9410739302	-0.167646
O	-0.1539280369	-4.1340320073	-1.7649483917	-0.233425
H	-1.1924377275	 1.5782640469	 0.225261517	 0.315526
H	 1.4951055616	-2.740741579	 0.1636643852	 0.143245
H	 1.4861295396	-0.4571119052	 1.3747594579	 0.273681
H	-1.860089036	-2.8648509471	-1.9440709583	 0.101228
H	-0.4416572459	-3.7269453194	-3.8412201725	 0.114271
H	 1.0466261509	-2.9506637632	-3.0745302608	 0.112754
62.1248	148.2247	163.578	290.9675	349.6931	401.0521	421.2663	482.4199	497.9808	657.3843	677.7697	729.6977	737.7161	743.8999	863.0334	896.8912	982.3534	1030.708	1036.4435	1090.4255	1098.9072	1147.6148	1168.8634	1192.9416	1258.337	1267.089	1285.9037	1372.8923	1441.6389	1518.1882	1560.0888	1616.0857	1629.0624	3080.2743	3113.5251	3173.9499	3296.6262	3677.1716	3807.1518
OC1=NC(=CN1)C1CO1	Oc1nc(c[nH]1)[C@H]1CO1	
InChI=1S/C5H6N2O2/c8-5-6-1-3(7-5)4-2-9-4/h1,4H,2H2,(H2,6,7,8)	InChI=1S/C5H6N2O2/c8-5-6-1-3(7-5)4-2-9-4/h1,4H,2H2,(H2,6,7,8)/t4-/m1/s1
