19
gdb 83622	2.94571	1.49591	1.10781	4.0296	83.38	-0.2304	-0.0376	0.1928	1116.305	0.160341	-385.905643	-385.897699	-385.896755	-385.938179	30.959	
C	-0.3364289234	 1.528117447	 0.1733654273	-0.391901
C	-0.0350582865	 0.0319185701	 0.017621328	-0.141278
C	 0.7821343109	-0.3790520044	-1.2193906093	-0.057226
C	 1.6244233013	 0.5111012954	-2.2095389191	-0.249454
C	 2.8604788969	-0.4317630949	-1.9316916012	-0.316513
C	 2.1162992733	-0.8057531427	-0.678297441	 0.31938
C	 2.1962958765	-0.8257175776	 0.6557077008	-0.357751
C	 0.8658415754	-0.4432149594	 1.204632666	 0.390323
O	 0.5389615674	-0.3928699436	 2.3675843003	-0.343119
H	 0.5778872655	 2.129180416	 0.1327617866	 0.116758
H	-1.0105855464	 1.8806135518	-0.6128663708	 0.114492
H	-0.8063712419	 1.7039381938	 1.1448039473	 0.140727
H	-0.9816516709	-0.5158780149	 0.0700623434	 0.094136
H	 0.2866786524	-1.1671534021	-1.7966202664	 0.091962
H	 1.2728006264	 0.5731121999	-3.2413305867	 0.109915
H	 1.8036996311	 1.5147188151	-1.8203328489	 0.121452
H	 2.9048674172	-1.2432751121	-2.6647847442	 0.125249
H	 3.8523382916	 0.012006513	-1.8258012294	 0.122057
H	 3.0674211931	-0.9566961503	 1.2842357874	 0.110789
67.1355	175.2764	218.7167	246.7849	264.261	331.0559	406.8447	494.6156	582.1368	659.1988	685.849	711.3818	762.9373	775.7474	814.1993	878.0768	891.8015	932.5597	976.9178	991.2523	1037.9843	1048.0784	1095.7626	1115.2208	1137.6487	1165.6189	1180.6614	1208.9884	1225.2735	1249.1555	1262.326	1291.7608	1328.1689	1341.9917	1401.7759	1470.7784	1481.9255	1495.1753	1502.9988	1692.2562	1807.3653	3037.0403	3041.1932	3057.2241	3059.3924	3073.4196	3106.0887	3116.6898	3120.7847	3139.687	3222.354
CC1C2CCC2=CC1=O	C[C@H]1[C@H]2CC[C]2[CH]C1=O	
InChI=1S/C8H10O/c1-5-7-3-2-6(7)4-8(5)9/h4-5,7H,2-3H2,1H3	InChI=1S/C8H10O/c1-5-7-3-2-6(7)4-8(5)9/h4-5,7H,2-3H2,1H3/t5-,7+/m0/s1
