13
gdb 21634	5.2097	1.5202	1.17822	4.6964	66.24	-0.2252	-0.0356	0.1896	940.0083	0.097377	-394.817377	-394.810603	-394.809658	-394.848318	25.265	
N	-0.0422915534	 1.3574560723	 0.1414741288	-0.580857
C	 0.0308000644	-0.0169463163	 0.0397908839	 0.4191
N	-1.0603381299	-0.7620157216	 0.0277589004	-0.318571
N	-0.5913807536	-2.0490068085	 0.0019177447	-0.013069
C	-1.4324269017	-3.1598527079	-0.0154497894	 0.185015
O	-2.6304394811	-3.1266671228	-0.0037755446	-0.271507
C	 0.7823872187	-2.0939618767	-0.0155985244	 0.021848
C	 1.228062397	-0.8078452356	 0.0091531762	-0.313098
H	 0.6907472476	 1.8617613019	-0.3341861322	 0.254431
H	-0.961347967	 1.7244282716	-0.0641540095	 0.263568
H	-0.8316344709	-4.0888349123	-0.0429610635	 0.089522
H	 1.3086567688	-3.0354429799	-0.0400051232	 0.14822
H	 2.2498788811	-0.4642227142	 0.0168136928	 0.115397
126.3981	200.8108	237.7007	314.1852	374.5383	416.9371	530.1918	611.0488	614.7643	694.7449	732.9306	773.1765	825.1102	847.1318	975.951	1002.6782	1012.5513	1082.1803	1141.7297	1231.8987	1324.5	1398.9374	1456.7734	1459.9488	1518.8684	1614.4671	1659.1913	1842.8308	2956.545	3254.8114	3274.5052	3565.5685	3670.083
NC1=NN(C=O)C=C1	Nc1nn(C=O)cc1	
InChI=1S/C4H5N3O/c5-4-1-2-7(3-8)6-4/h1-3H,(H2,5,6)	InChI=1S/C4H5N3O/c5-4-1-2-7(3-8)6-4/h1-3H,(H2,5,6)
