19
gdb 62743	2.41732	1.5197	1.2507	3.6648	76.94	-0.2379	-0.0103	0.2276	1091.0462	0.156148	-423.02225	-423.012742	-423.011797	-423.056052	35.596	
C	-0.0390436378	 1.5534951179	 0.0527177007	-0.462575
C	 0.0862522488	 0.044271693	 0.0427003703	 0.355678
O	-1.0835845948	-0.5882325645	-0.4218318668	-0.46731
C	 1.3388292355	-0.719552207	-0.2501550329	-0.17764
C	 2.5816058734	-0.0068987274	 0.2932965585	-0.375009
C	 1.9238898482	-0.0923558271	 1.6960338044	 0.349993
O	 2.3373785108	 0.1098196935	 2.803946896	-0.316247
C	 0.6888920884	-0.7770543091	 1.1831703293	 0.170588
C	-0.0767024786	-1.8280929277	 1.9346097438	-0.500716
H	 0.837206883	 2.0464659009	 0.4783760186	 0.134294
H	-0.1749675011	 1.9335745524	-0.9678059228	 0.109832
H	-0.9143170382	 1.8444178472	 0.6406747985	 0.136886
H	-1.1918607725	-0.3535711409	-1.3501443792	 0.285868
H	 1.3407647565	-1.5195543714	-0.9799069853	 0.101183
H	 3.4793150293	-0.6329108972	 0.2764475238	 0.133371
H	 2.8321991891	 0.9788143488	-0.1080900176	 0.11803
H	-0.5315087806	-1.393603301	 2.8313696707	 0.135592
H	-0.8721010577	-2.24593634	 1.3161448373	 0.144396
H	 0.5844822485	-2.6370554501	 2.2611728228	 0.123786
96.4051	112.9963	183.0087	200.5813	223.2197	250.2429	262.5353	291.0508	390.9597	414.1363	471.4101	536.7742	569.4434	645.8963	674.3417	684.2995	814.6101	876.9732	929.2064	953.106	991.9996	998.5697	1010.1362	1076.474	1096.7523	1112.5005	1144.6298	1199.3244	1216.0218	1248.0331	1297.7095	1313.5392	1405.9212	1415.7414	1434.2934	1462.6606	1487.4803	1489.4501	1490.9026	1499.5558	1870.132	3027.7807	3040.5731	3054.7208	3096.6089	3098.2321	3104.624	3134.1511	3144.2635	3196.9854	3799.9247
CC1(O)C2CC(=O)C12C	C[C@@]1(O)[C@H]2CC(=O)[C@@]12C	
InChI=1S/C7H10O2/c1-6-4(3-5(6)8)7(6,2)9/h4,9H,3H2,1-2H3	InChI=1S/C7H10O2/c1-6-4(3-5(6)8)7(6,2)9/h4,9H,3H2,1-2H3/t4-,6-,7+/m0/s1
