17
gdb 46189	3.06686	1.59637	1.19953	1.2509	73.01	-0.2322	-0.0369	0.1953	1024.7224	0.135175	-421.757528	-421.750053	-421.749109	-421.790054	28.848	
O	-0.1191887986	 0.0561624378	-0.41296661	-0.300176
C	-0.1127850153	 1.2136085117	-0.0998291509	 0.304966
C	-1.1794983669	 2.1894015058	 0.4260086112	-0.340755
C	-0.0902686828	 3.3080293214	 0.4637615334	-0.346506
C	 0.9639365783	 2.3074622176	-0.0656685483	 0.306576
C	 2.4062802088	 2.1608279078	 0.4910111706	-0.012609
C	 2.8076672973	 1.3665343082	-0.7716650154	-0.238821
C	 1.9973823544	 2.6157423532	-1.1831077004	-0.012622
O	 2.7673225438	 3.4204362718	-0.2036909579	-0.319344
H	-2.0068414659	 2.3484889833	-0.2715946247	 0.135657
H	-1.6000991237	 1.8963660772	 1.3922825677	 0.135654
H	-0.2826254712	 4.1494551247	-0.2036903733	 0.118786
H	 0.1239525263	 3.6975018152	 1.4602081001	 0.118789
H	 2.7193357056	 2.0458705297	 1.5292205834	 0.101967
H	 3.8685864885	 1.411985652	-1.0184387066	 0.109743
H	 2.3507201282	 0.3880673284	-0.9259442161	 0.136728
H	 1.8166036532	 3.0502104342	-2.1668015929	 0.101967
47.5886	147.0972	183.0836	279.4851	356.1379	453.4898	500.8399	607.054	619.7361	689.7276	735.8147	745.6205	794.3913	862.0228	881.6868	918.2754	928.8233	996.3292	1025.6368	1031.879	1054.0876	1082.5425	1103.8505	1132.7317	1146.3569	1175.8896	1198.4495	1206.7341	1218.0368	1218.2786	1263.9031	1271.8913	1308.9328	1434.8318	1483.4821	1485.5328	1872.4186	3061.3839	3080.9262	3084.3039	3109.157	3113.5065	3119.786	3136.3733	3166.9713
O=C1CCC11C2CC1O2	O=C1CC[C@]21[C@H]1C[C@@H]2O1	
InChI=1S/C7H8O2/c8-4-1-2-7(4)5-3-6(7)9-5/h5-6H,1-3H2	InChI=1S/C7H8O2/c8-4-1-2-7(4)5-3-6(7)9-5/h5-6H,1-3H2/t5-,6+,7+
