19
gdb 76958	2.2204	1.20118	1.01358	4.518	78.48	-0.2378	-0.0376	0.2001	1287.0757	0.156295	-423.049369	-423.039453	-423.038509	-423.084843	35.191	
C	-0.1543779186	 0.7371645022	-2.223671412	-0.427159
C	-0.0012348696	-0.2870793745	-1.1191644042	-0.03092
C	 1.3202604555	-0.6099696036	-0.4588405706	-0.134192
C	 2.5932551653	 0.0680430958	-0.8348367627	 0.146384
O	 3.6497776171	-0.5201827662	-0.8243352508	-0.272362
C	 0.2014272593	 0.0901219579	 0.3402130196	-0.152667
C	 0.3012391342	 1.515809501	 0.7817843079	 0.396493
C	-0.4529668085	 1.8492751712	 2.0559190264	-0.483176
O	 0.9242928493	 2.3631103677	 0.1740806651	-0.325045
H	 0.3964833419	 1.6544012187	-2.0165899514	 0.162929
H	 0.1951581903	 0.3231830266	-3.1749499165	 0.128158
H	-1.210376685	 1.0001941639	-2.3440010074	 0.122351
H	-0.6393485263	-1.1581450059	-1.2439860365	 0.108336
H	 1.4875571223	-1.6456955409	-0.1804112297	 0.112384
H	 2.5228470538	 1.1284873158	-1.129356267	 0.114783
H	-0.2912003412	-0.5580785145	 1.0577579578	 0.099378
H	-0.0542786897	 1.2634448827	 2.8924143522	 0.146321
H	-0.3574533507	 2.91303283	 2.2743262533	 0.145676
H	-1.5110554095	 1.5813514521	 1.9568991665	 0.142327
49.7813	71.0821	137.685	155.5018	202.8793	219.9077	225.6405	301.199	349.0888	384.3896	440.2089	498.7856	625.791	633.1899	742.2924	789.8706	874.9199	911.0491	952.4949	973.5234	1007.1765	1050.5821	1053.3855	1098.2134	1120.3502	1152.6855	1175.3191	1187.8247	1251.9176	1338.7604	1377.2404	1394.0298	1412.059	1419.6783	1447.1042	1462.8997	1474.3552	1500.6163	1509.6934	1784.5491	1800.1639	2998.6527	3034.4037	3043.4943	3094.4107	3099.5696	3135.0007	3155.3	3157.2529	3158.537	3171.0094
CC1C(C=O)C1C(C)=O	C[C@H]1[C@@H](C=O)[C@H]1C(=O)C	
InChI=1S/C7H10O2/c1-4-6(3-8)7(4)5(2)9/h3-4,6-7H,1-2H3	InChI=1S/C7H10O2/c1-4-6(3-8)7(4)5(2)9/h3-4,6-7H,1-2H3/t4-,6+,7+/m0/s1
