19
gdb 87572	2.5853	1.43746	1.24378	1.5892	75.51	-0.2293	0.0678	0.2971	1101.3606	0.159595	-419.130523	-419.122095	-419.121151	-419.163427	32.645	
C	-0.0629525066	 1.5397179311	-0.0079681476	-0.391189
C	-0.0312502665	 0.0355666179	 0.0981936938	-0.06756
N	 1.2767151431	-0.6247764836	-0.1424039197	-0.413776
C	 0.6693772241	-0.6787630447	 1.1812882547	 0.35585
C	 1.3284058741	-0.1733240829	 2.4476553017	-0.152163
N	 0.2182670841	-0.1120716604	 3.4426684276	-0.362096
C	 0.9127565813	-1.3983158508	 3.1869842382	-0.083287
C	 0.2209379683	-1.9687889336	 1.93362593	 0.047366
O	-1.144868294	-2.2589974427	 2.0193008141	-0.435041
H	 0.855025605	 1.9734651537	 0.397351669	 0.120385
H	-0.1526720786	 1.856846413	-1.0524357376	 0.118759
H	-0.9137154194	 1.9487486835	 0.5470871481	 0.120856
H	-0.9106955499	-0.4787608308	-0.2880157085	 0.092418
H	 1.1456979951	-1.5115958657	-0.6252338292	 0.22934
H	 2.2209401358	 0.4289674276	 2.5523965597	 0.105205
H	 0.5971506965	 0.2714037113	 4.3075396736	 0.234877
H	 1.4049259183	-1.9381738376	 3.9859865451	 0.096861
H	 0.72389356	-2.8592629387	 1.5431789357	 0.092166
H	-1.5366722208	-1.5055645765	 2.4820362314	 0.291029
102.8062	137.8364	172.7193	179.8156	254.7255	303.4249	432.0098	467.0121	483.5468	531.0774	595.8081	661.7807	748.6273	808.3741	838.4899	846.3998	887.425	908.6562	943.0892	964.7852	1007.6409	1034.0974	1053.0867	1068.8162	1092.3454	1099.1437	1126.8112	1142.4829	1186.9439	1226.1448	1242.8011	1259.5862	1304.0194	1315.3549	1353.8604	1382.8104	1412.2949	1437.0165	1477.5438	1490.1104	1511.3003	3035.344	3068.4469	3098.9959	3108.5907	3126.0566	3193.2349	3211.3366	3479.8515	3482.2673	3757.1906
CC1NC11C2NC2C1O	C[C@H]1N[C@]21[C@H]1N[C@H]1[C@H]2O	
InChI=1S/C6H10N2O/c1-2-6(8-2)4-3(7-4)5(6)9/h2-5,7-9H,1H3	InChI=1S/C6H10N2O/c1-2-6(8-2)4-3(7-4)5(6)9/h2-5,7-9H,1H3/t2-,3-,4+,5-,6-/m1/s1
