18
gdb 34522	4.06414	1.18556	1.0753	4.7525	83.75	-0.254	-0.0397	0.2143	1143.8815	0.151053	-364.833359	-364.826243	-364.825298	-364.864821	28.675	
N	 0.0614689573	-1.1557482461	 0.0364755344	-0.341525
C	-0.0075275555	 0.0009841083	 0.0231572072	 0.209021
C	-0.0470987828	 1.4254313883	 0.0054158872	 0.160187
C	-1.2015807555	 2.1116546274	 0.0301516682	-0.129595
C	-1.1370884726	 3.6162075166	 0.0082921786	-0.058597
C	-0.1165641603	 4.041823146	-1.0962374367	-0.219906
C	 0.9898831248	 3.7042740589	-0.0552406287	-0.025832
C	-0.0539452226	 4.0701740977	 1.0394629628	-0.219906
C	 1.268287228	 2.1921384408	-0.0433275742	-0.300542
H	-2.1579193555	 1.6007912055	 0.0649649226	 0.116518
H	-2.1216872684	 4.0831568455	 0.0309631342	 0.071505
H	-0.1326545147	 3.4898123592	-2.0392289867	 0.103034
H	-0.1657009652	 5.1154886075	-1.2923936432	 0.104908
H	 1.9228819731	 4.270644898	-0.0901170212	 0.071369
H	-0.0923438681	 5.1487016316	 1.2096184654	 0.104908
H	-0.0143334048	 3.5433792811	 1.996085511	 0.103034
H	 1.8879889162	 1.9191359877	 0.8203033064	 0.12571
H	 1.8365516267	 1.8958403262	-0.9342272472	 0.12571
115.0425	161.1235	299.1956	344.1391	373.1374	478.9177	502.7514	539.6631	569.1061	574.818	770.4506	818.93	844.7489	867.8861	886.6602	890.5091	931.3596	943.8129	996.0956	1034.7125	1060.4637	1091.6721	1094.0205	1118.3235	1132.9716	1184.8711	1208.0499	1247.5603	1256.0725	1288.7834	1321.1164	1332.1805	1351.2542	1379.0705	1475.2971	1478.8365	1510.6349	1676.0817	2332.5557	3023.2277	3054.1622	3058.2662	3061.4513	3085.4344	3107.9761	3118.8832	3121.5796	3190.718
N#CC1=CC2CC(C2)C1	N#CC1=C[C@@H]2C[C@@H](C2)C1	
InChI=1S/C8H9N/c9-5-8-3-6-1-7(2-6)4-8/h3,6-7H,1-2,4H2	InChI=1S/C8H9N/c9-5-8-3-6-1-7(2-6)4-8/h3,6-7H,1-2,4H2/t6-,7+
