19
gdb 56589	2.89332	1.0884	0.87729	3.1015	77.36	-0.2633	0.0383	0.3015	1339.2532	0.155798	-422.961867	-422.951779	-422.950835	-422.997286	36.616	
C	-0.1594051578	 1.7306006502	 0.3060104837	-0.410458
C	-0.0846002233	 0.2143555789	 0.0878105618	-0.051548
C	 0.7524317636	-0.4793909852	 1.1964778003	-0.043902
O	 0.5962381774	-1.8902655544	 1.2005479317	-0.426818
C	 2.1679446542	-0.0968522676	 1.0879847356	 0.324899
C	 3.3245490073	 0.2130542258	 0.9797710159	-0.45428
C	-1.4675220681	-0.3960073968	 0.0035487669	 0.081851
C	-2.1528186614	-0.5429393452	-1.2866825361	-0.186042
O	-1.55848925	-1.6732051034	-0.6421343607	-0.247489
H	 0.8431295407	 2.1595850465	 0.3762403415	 0.140526
H	-0.685084623	 2.2177768508	-0.5203505232	 0.120002
H	-0.6947548499	 1.9694508332	 1.232020364	 0.120609
H	 0.4155434835	 0.0134483087	-0.8686830877	 0.090528
H	 0.3790856281	-0.1368074237	 2.1725086919	 0.107514
H	 0.3691540559	-2.1726120781	 0.3066103317	 0.297845
H	 4.3504828556	 0.4757885993	 0.8992065126	 0.196985
H	-2.0790862305	-0.3150751351	 0.9036134362	 0.101378
H	-3.2403876671	-0.5546363105	-1.3278030712	 0.121389
H	-1.6567158451	-0.2077022936	-2.196735735	 0.117013
40.7367	84.0526	134.1794	198.2096	214.9097	223.1552	265.6696	286.0514	318.3921	378.2368	417.3882	514.786	543.6709	596.8187	629.9214	664.3237	818.3808	857.4221	869.1302	944.0951	962.5757	988.9971	1058.1525	1083.0586	1110.4437	1127.627	1155.7896	1163.0035	1197.1771	1251.0501	1288.0688	1306.1015	1344.1235	1363.7214	1406.8097	1423.3683	1445.6433	1498.0759	1502.0112	1526.5667	2230.0859	2999.8479	3028.0683	3037.7483	3085.5836	3101.562	3105.7252	3125.6504	3174.421	3502.2271	3794.5131
CC(C(O)C#C)C1CO1	C[C@@H]([C@@H](O)C#C)[C@H]1CO1	
InChI=1S/C7H10O2/c1-3-6(8)5(2)7-4-9-7/h1,5-8H,4H2,2H3	InChI=1S/C7H10O2/c1-3-6(8)5(2)7-4-9-7/h1,5-8H,4H2,2H3/t5-,6-,7+/m0/s1
