17
gdb 19371	4.16379	1.63115	1.4527	1.4699	67.54	-0.2104	0.0702	0.2806	902.1528	0.142537	-363.764927	-363.757754	-363.75681	-363.796277	28.18	
O	 0.1606494967	 1.3694304121	 0.1326643859	-0.416447
C	 0.0485409753	-0.0349976904	-0.0695869542	-0.168482
C	-1.3709668512	-0.5067006691	-0.0616601556	 0.329189
C	-2.1143945968	-0.9468428658	 1.1791731253	-0.34626
C	-1.9232052333	-1.9237717035	 0.047716658	-0.128429
C	-2.8642283375	-1.6256248389	-1.1566341274	-0.050023
N	-3.7437676154	-0.4803763708	-0.8073067356	-0.339641
C	-2.3464364177	-0.2486047522	-1.2534301218	-0.114712
H	-0.3351788523	 1.5798751455	 0.9312482472	 0.281963
H	 0.5152218109	-0.2222039284	-1.0441816378	 0.105505
H	 0.6251567935	-0.6004419548	 0.6807808237	 0.084311
H	-1.4768777888	-1.134869181	 2.0388395043	 0.104427
H	-3.0981710543	-0.5561591793	 1.4041789355	 0.144373
H	-1.3695843687	-2.8477026846	 0.1557452563	 0.091926
H	-3.1396387316	-2.3305234109	-1.9299246743	 0.094455
H	-4.3444574129	-0.3109065539	-1.6136089558	 0.230245
H	-2.1207417659	 0.3672878359	-2.1142174035	 0.0976
93.3241	141.0209	273.7658	326.6182	378.5723	415.6516	432.0941	565.1895	675.9929	736.7868	797.5449	825.8127	845.5234	869.7896	899.4807	912.1388	946.9405	972.3412	985.4131	1025.8067	1044.7411	1061.9311	1098.8417	1102.082	1124.5856	1180.9468	1225.7817	1246.7741	1282.5526	1313.6349	1345.4724	1367.7718	1394.1461	1428.937	1467.7181	1502.832	2969.4442	3051.4733	3130.5895	3189.8364	3196.6699	3207.0309	3230.5471	3475.0639	3807.1311
OCC12CC1C1NC21	OC[C@]12C[C@H]1[C@H]1N[C@@H]21	
InChI=1S/C6H9NO/c8-2-6-1-3(6)4-5(6)7-4/h3-5,7-8H,1-2H2	InChI=1S/C6H9NO/c8-2-6-1-3(6)4-5(6)7-4/h3-5,7-8H,1-2H2/t3-,4+,5+,6+/m0/s1
