18
gdb 37904	3.08702	2.18778	2.03519	0.6678	80.31	-0.2013	-0.0348	0.1664	795.959	0.150515	-364.688049	-364.682281	-364.681336	-364.717638	25.722	
C	 0.1314967655	 1.4967287114	 0.3212403483	-0.147674
C	 1.6600536037	 1.499202492	 0.0100225326	-0.127362
C	 1.3478904784	 0.150684472	-0.7359238843	 0.017155
C	 2.0027859748	-0.6850906821	 0.3625252802	-0.094766
C	 0.6304527241	-1.0037873703	 0.9700793616	 0.028075
C	 0.8020928879	-0.6841886749	 2.4777106937	-0.26169
C	 1.707698096	 0.5456907314	 2.3859292921	-0.122769
C	 2.2358434345	 0.6081490563	 1.1516268249	 0.081369
N	-0.0020114334	 0.0315955527	-0.0118777115	-0.185821
H	-0.2034524862	 1.8151102246	 1.3119645818	 0.101137
H	-0.4340289639	 2.0416237314	-0.4458933606	 0.104009
H	 2.1540439713	 2.3702260427	-0.4224663771	 0.073771
H	 1.3854608906	-0.0047530439	-1.8136472941	 0.072797
H	 2.8032011263	-1.4142106733	 0.2256824999	 0.068284
H	 0.1672848965	-1.9737662273	 0.762014608	 0.07187
H	-0.1347064207	-0.4075409289	 2.9782756553	 0.113402
H	 1.1918671918	-1.5653562615	 3.0088564789	 0.110492
H	 1.5389005727	 1.4082943478	 3.0239651703	 0.097722
252.9272	340.8724	426.209	469.4159	581.2036	637.2053	689.5512	701.7121	747.5635	792.3803	837.7406	855.2978	867.4831	872.905	911.7237	914.2974	935.3305	964.7124	984.7064	987.7193	1014.4426	1038.0797	1056.6262	1138.2877	1150.0985	1175.1094	1177.8179	1189.4111	1213.9363	1216.0854	1242.9561	1256.3872	1274.9572	1284.5036	1300.3103	1335.3225	1461.9709	1489.9852	1604.6176	2996.0143	3017.0027	3046.6645	3054.096	3088.3006	3091.5856	3096.5202	3118.462	3168.011
C1C2C3C4C(CC=C24)N13	C1[C@@H]2[C@H]3[C@@H]4[C@@H](C[CH][C]24)N13	
InChI=1S/C8H9N/c1-2-6-7-4(1)5-3-9(6)8(5)7/h1,5-8H,2-3H2	InChI=1S/C8H9N/c1-2-6-7-4(1)5-3-9(6)8(5)7/h1,5-8H,2-3H2/t5-,6+,7-,8-/m0/s1
