14
gdb 11683	5.02506	1.44425	1.30989	2.7576	70.7	-0.2478	-0.0228	0.225	923.5125	0.10581	-345.362115	-345.355032	-345.354088	-345.393339	27.187	
O	 0.0376098426	 0.0483749008	-0.1315317117	-0.312774
C	 0.0282547078	 1.2349165024	 0.0271556274	 0.434207
C	-1.1209579367	 2.267159543	 0.1694933865	-0.413405
C	-0.0563759506	 3.3745294644	-0.0012454689	 0.187864
C	 0.9418668609	 3.2518662154	 1.1063457693	-0.315514
C	 1.0859229674	 2.2937659034	-0.0619585794	-0.217979
C	-0.2011261473	 4.5276649106	-0.8193541114	 0.163913
C	-0.3460078973	 5.5014253147	-1.5113101403	-0.385487
H	-1.8048767745	 2.1842412914	-0.6789202382	 0.146168
H	-1.69400718	 2.2815343942	 1.1006828458	 0.12474
H	 1.7066133107	 4.0198775145	 1.1412745345	 0.142223
H	 0.6230413736	 2.8867185234	 2.0788212287	 0.128038
H	 1.9835836284	 2.2715537965	-0.6669152857	 0.124768
H	-0.4696042049	 6.3611020054	-2.1221008266	 0.193239
91.9399	159.6712	228.444	371.5883	435.1698	485.1172	518.1617	557.1834	578.9106	595.4044	649.2259	658.1114	761.1952	815.2657	917.0792	951.8982	978.4506	981.9492	1056.3109	1090.5423	1100.528	1114.6989	1208.3547	1219.2314	1244.1916	1371.454	1454.8822	1493.3196	1887.8621	2237.1927	3063.2096	3120.3239	3123.6577	3203.9374	3218.185	3502.7771
O=C1CC2(CC12)C#C	O=C1C[C@]2(C[C@@H]12)C#C	
InChI=1S/C7H6O/c1-2-7-3-5(7)6(8)4-7/h1,5H,3-4H2	InChI=1S/C7H6O/c1-2-7-3-5(7)6(8)4-7/h1,5H,3-4H2/t5-,7+/m0/s1
