14
gdb 28781	3.45165	1.74238	1.16513	3.7689	68.48	-0.212	0.007	0.219	968.6838	0.104115	-432.892154	-432.8852	-432.884256	-432.923793	26.391	
N	 0.1738976996	 1.459084473	-0.0437338338	-0.612257
C	 0.0374756296	 0.0588241065	-0.0646467046	 0.163616
C	-1.0136529019	-0.8329870433	-0.1339552617	-0.123629
N	-0.6069413971	-2.1602578034	-0.1235614079	-0.396467
C	 0.6872667387	-2.0465613776	-0.0476200415	 0.488697
O	 1.7206538428	-2.92000893	 0.0022078041	-0.218471
C	 2.8568681258	-2.1370287946	 0.0741902903	-0.050748
C	 2.548239287	-0.8235507432	 0.0698271691	-0.137105
N	 1.1603840131	-0.7688770691	-0.0076195666	-0.039795
H	-0.1927896183	 1.8959828076	-0.8817037101	 0.248848
H	-0.2841418903	 1.880775917	 0.7562601311	 0.248818
H	-2.063050521	-0.582836196	-0.191748738	 0.105771
H	 3.7931305938	-2.6638737722	 0.1222475587	 0.157484
H	 3.1752939082	 0.0489718151	 0.1142009409	 0.165237
76.7031	192.9732	223.4629	273.9938	385.5974	575.8284	583.0011	619.2782	642.0189	711.2563	711.6261	758.613	776.1894	791.746	812.7646	839.5676	937.8463	1040.1252	1096.5624	1163.2273	1190.0344	1211.8825	1224.7586	1281.372	1298.9359	1415.7498	1452.8225	1568.54	1594.8609	1644.9766	1659.4852	3241.403	3295.0847	3316.3458	3512.9317	3579.7885
NC1=CN=C2OC=CN12	Nc1cnc2occn12	
InChI=1S/C5H5N3O/c6-4-3-7-5-8(4)1-2-9-5/h1-3H,6H2	InChI=1S/C5H5N3O/c6-4-3-7-5-8(4)1-2-9-5/h1-3H,6H2
