16
gdb 105283	2.46274	1.13178	0.91036	3.0955	71.77	-0.2812	-0.0686	0.2126	1294.2892	0.12105	-437.882147	-437.872774	-437.871829	-437.917031	32.605	
C	-0.1192277388	 1.4515888417	-0.7571671503	-0.394973
C	-0.016397609	 0.09953697	-0.0415761746	-0.268506
C	-1.3762839446	-0.5478131677	 0.1594556098	 0.2274
O	-2.0012249125	-1.1417399864	-0.9741554455	-0.254216
C	-1.6300933862	-2.0194955972	 0.0901464009	-0.093391
C	-0.5245830377	-2.9931382769	-0.1955641502	 0.134692
O	-0.3500911179	-3.9817628021	 0.4661592345	-0.227807
C	-2.2860720226	 0.2073320057	 1.0133880575	 0.280593
N	-2.9780899948	 0.8218092625	 1.7053733258	-0.324319
H	 0.87526425	 1.8845579972	-0.8910296069	 0.129695
H	-0.5770520175	 1.3343679616	-1.743533093	 0.140364
H	-0.7222584494	 2.1607964727	-0.1826804407	 0.148588
H	 0.6128341771	-0.5827504621	-0.618069191	 0.119272
H	 0.4529821572	 0.2198655477	 0.9413393135	 0.133732
H	-2.4485899258	-2.4232548396	 0.6837523313	 0.143149
H	 0.1025727626	-2.741422417	-1.0760322212	 0.105726
68.8971	85.238	111.5035	158.2373	200.5446	221.5172	287.4272	332.5453	382.9702	444.6958	491.1385	587.7011	606.6134	669.2679	781.7743	872.4028	933.6525	947.3108	1010.5686	1050.0165	1092.1007	1110.9849	1118.9275	1219.0729	1278.9367	1305.8292	1355.3058	1374.8833	1415.7912	1438.8297	1471.8094	1498.6897	1506.2079	1828.8698	2357.7646	2918.9721	3047.8195	3053.0671	3102.1434	3125.8054	3126.672	3142.4905
CCC1(OC1C=O)C#N	CC[C@]1(O[C@H]1C=O)C#N	
InChI=1S/C6H7NO2/c1-2-6(4-7)5(3-8)9-6/h3,5H,2H2,1H3	InChI=1S/C6H7NO2/c1-2-6(4-7)5(3-8)9-6/h3,5H,2H2,1H3/t5-,6-/m0/s1
