18
gdb 125844	3.02882	1.50901	1.10937	5.4555	78.34	-0.2474	0.0128	0.2602	1107.7742	0.14887	-398.10181	-398.093716	-398.092772	-398.134556	30.217	
C	-0.3330917823	 1.6587250584	-0.0403149257	-0.402441
C	 0.0134661726	 0.183645323	 0.0014674182	 0.033078
C	 0.7739124919	-0.4969601197	-1.229090206	-0.186708
C	 1.0963130289	 0.3571533016	-2.4489745206	-0.400012
C	 1.8981111993	-0.7608194913	-0.2244695274	 0.322574
C	 3.0593386525	-1.2122178086	 0.3646805487	-0.221909
N	 2.9980239489	-0.8476423554	 1.6853929629	-0.183372
N	 1.8765111545	-0.2145800035	 1.9542999879	-0.19045
N	 1.2351709337	-0.1668191643	 0.7762047513	 0.085927
H	 0.5237852022	 2.2669981954	-0.339059522	 0.136396
H	-1.1504204293	 1.8322179064	-0.7472805965	 0.130364
H	-0.662524857	 1.9961650985	 0.9466039864	 0.146266
H	-0.8423468651	-0.408584423	 0.3381580226	 0.115614
H	 0.2663233696	-1.4151344582	-1.5398681105	 0.105295
H	 1.6337154988	 1.2694280678	-2.1780185662	 0.131548
H	 1.7282524192	-0.2060399839	-3.1424026257	 0.132708
H	 0.1830030014	 0.6379595579	-2.9830990209	 0.123773
H	 3.9095701004	-1.7450388309	-0.0257402064	 0.121351
95.6941	120.7223	205.1133	212.82	248.5175	264.2262	396.9687	462.0904	521.7713	669.6176	696.3289	707.2876	734.4586	770.9638	829.0474	982.5807	1000.0048	1009.2683	1032.9175	1056.2484	1098.4361	1108.7019	1142.1068	1160.7341	1206.4186	1217.8824	1254.4927	1272.8207	1315.7244	1365.1621	1369.7505	1409.7153	1416.8541	1480.1762	1489.4889	1494.0056	1496.2632	1506.7276	1537.566	3041.6607	3046.9713	3060.0723	3074.0797	3108.6149	3116.7734	3122.3059	3133.5087	3282.5185
CC1C(C)C2=CN=NN12	C[C@H]1[C@@H](C)c2cnnn12	
InChI=1S/C6H9N3/c1-4-5(2)9-6(4)3-7-8-9/h3-5H,1-2H3	InChI=1S/C6H9N3/c1-4-5(2)9-6(4)3-7-8-9/h3-5H,1-2H3/t4-,5+/m1/s1
