23
gdb 96448	2.05557	1.80755	1.2257	1.1941	84.76	-0.2345	0.0794	0.314	1132.8687	0.208241	-388.282858	-388.274459	-388.273515	-388.315235	34.07	
C	-0.2397869935	 1.5271031436	-0.0058496158	-0.397129
C	-0.0104720052	 0.0098693036	 0.005887093	-0.011921
C	 0.5211626808	-0.4834216306	-1.3552869787	-0.070706
O	 1.6633554773	 0.208102352	-1.827856312	-0.244535
C	 2.9088484357	-0.1659351935	-1.2660023437	-0.060079
C	 3.1287667696	 0.3682706459	 0.1545701039	-0.233348
C	 2.3528945363	-0.3938397805	 1.2158090878	-0.001028
C	 1.4909777826	 0.3120349241	 2.2339495414	-0.317461
C	 0.8450683819	-0.5297807947	 1.1591533505	-0.017316
H	 0.6853108666	 2.0811840043	-0.1811455473	 0.127227
H	-0.9313607779	 1.7963461485	-0.8113338109	 0.109492
H	-0.674062997	 1.8663234914	 0.9386967931	 0.112815
H	-0.9996193189	-0.4569334302	 0.1174283769	 0.070088
H	 0.7257339185	-1.5655195944	-1.3032138275	 0.080093
H	-0.2469384662	-0.3250410843	-2.1218545234	 0.095818
H	 3.0186199479	-1.263627582	-1.2797858784	 0.08182
H	 3.6646695786	 0.2518272375	-1.940458871	 0.098813
H	 4.2006047788	 0.3185480277	 0.3872857621	 0.093913
H	 2.8650853238	 1.4315534719	 0.1581083389	 0.107072
H	 2.8694422278	-1.2825948919	 1.5705301101	 0.078299
H	 1.4745137653	-0.0488012189	 3.2570105342	 0.105483
H	 1.4162239469	 1.3910188215	 2.1477691029	 0.112356
H	 0.4916041303	-1.4976179409	 1.5064465139	 0.080236
128.6647	183.1091	226.1337	240.5969	278.7694	313.4817	377.9726	389.5546	450.7877	468.608	562.927	683.3845	698.0122	763.7561	824.6877	859.0819	871.1839	936.6323	945.9365	975.0319	986.5857	999.2807	1033.8268	1062.7254	1076.4022	1098.2663	1131.5318	1144.7584	1151.8913	1166.4943	1186.2721	1248.7441	1264.9317	1294.3959	1321.5928	1325.6431	1354.629	1375.0806	1387.5791	1395.5802	1413.5549	1421.5075	1432.5482	1474.7898	1480.6184	1490.3784	1496.3054	1501.07	1507.8929	2963.5582	2970.2983	2998.2591	3021.8481	3041.2096	3051.1738	3062.4392	3070.106	3104.3511	3120.4433	3126.4124	3127.8973	3134.193	3211.7518
CC1COCCC2CC12	C[C@H]1COCC[C@H]2C[C@@H]12	
InChI=1S/C8H14O/c1-6-5-9-3-2-7-4-8(6)7/h6-8H,2-5H2,1H3	InChI=1S/C8H14O/c1-6-5-9-3-2-7-4-8(6)7/h6-8H,2-5H2,1H3/t6-,7-,8-/m0/s1
