15
gdb 29067	2.69168	1.68767	1.05371	2.9499	85.36	-0.2131	-0.0664	0.1467	1067.6183	0.114652	-416.81928	-416.811924	-416.810979	-416.851594	28.249	
O	-0.0723285079	 1.3438642525	-0.1997752808	-0.381613
C	 0.0091906238	 0.0087926421	-0.049525868	 0.362019
C	 1.2175129517	-0.6254548129	-0.0113922616	-0.236757
C	 1.5052050949	-2.0064589941	 0.1763892699	-0.064289
C	 0.6476420381	-3.0628951214	 0.1800925907	-0.035551
N	-0.6899210211	-3.078560978	-0.1009243287	-0.233538
C	-1.4780172403	-2.0671743871	-0.1864012819	-0.040815
C	-1.3218118423	-0.6176729632	 0.0705451274	 0.183085
N	-2.329458141	 0.1471018466	 0.2993256763	-0.485967
H	 0.8147905202	 1.7080154588	-0.3063724844	 0.304306
H	 2.0903202232	 0.0227546556	-0.0831395402	 0.087701
H	 2.5561503955	-2.2452546451	 0.3171978679	 0.103711
H	 1.0627145066	-4.0521909556	 0.3532452328	 0.10879
H	-2.5089558172	-2.3076480569	-0.4690407485	 0.110999
H	-3.1900993342	-0.4072339714	 0.3119420091	 0.217918
46.0807	168.0269	318.336	348.7017	376.7324	392.8055	461.6378	488.5062	513.9683	617.7277	676.7773	724.0813	763.039	807.5499	863.6456	877.6019	912.9925	959.7449	980.6955	1013.39	1051.5115	1157.8266	1218.8295	1290.8642	1301.5083	1370.8962	1426.8107	1461.8394	1499.5025	1560.3962	1620.1096	1653.4451	1664.6257	3061.9946	3123.9798	3153.928	3174.0075	3427.292	3795.1668
OC1=CC=CN=CC1=N	OC1=CC=CN=C[C]1[NH]	
InChI=1S/C6H6N2O/c7-5-4-8-3-1-2-6(5)9/h1-4H,(H2,7,9)	InChI=1S/C6H6N2O/c7-5-4-8-3-1-2-6(5)9/h1-4H,(H2,7,9)
