18
gdb 68031	2.62853	1.78293	1.34051	1.8256	70.56	-0.2311	0.0731	0.3041	975.2969	0.148175	-439.023344	-439.01585	-439.014905	-439.054535	31.519	
O	-0.1278035568	 1.3810157941	 0.05601156	-0.489964
C	 0.0395179841	 0.0005733139	 0.0628741576	 0.415915
C	 0.9391156585	-0.782901181	-0.9659417233	-0.353289
C	 0.7402143506	-1.9135909	 0.1127597828	 0.415916
O	 1.5032252824	-3.0746058996	 0.1721029985	-0.489964
C	 0.7921836089	-0.7807854563	 1.1798736627	-0.368758
C	-0.7689434813	-2.1704298353	-0.0529355347	-0.072753
N	-1.6158850435	-1.6655211908	 1.0548137959	-0.34269
C	-1.2761219913	-0.7849137093	-0.0890538804	-0.072751
H	 0.7361182593	 1.7948489172	 0.1492075462	 0.279413
H	 0.5437530089	-0.9538178702	-1.9710476794	 0.094143
H	 1.9673638424	-0.4076640719	-1.0104280314	 0.077934
H	 2.4284774228	-2.8285052845	 0.270319092	 0.279414
H	 1.8129129223	-0.4039798445	 1.3009610592	 0.071088
H	 0.3007499585	-0.9357360655	 2.1370733252	 0.133595
H	-1.1113401477	-2.9711777804	-0.6976603744	 0.095985
H	-2.5620778989	-2.0155314882	 0.914425101	 0.23078
H	-2.043456649	-0.4247902975	-0.7640443075	 0.095983
239.483	245.1473	275.0535	287.6028	320.7202	397.2663	417.7071	496.3649	536.4825	587.8173	590.5151	610.4292	677.6566	801.4435	834.6631	874.9942	881.8426	913.9299	929.474	947.2979	994.1708	1012.3647	1072.9956	1084.2159	1105.2941	1111.9225	1131.3646	1149.6174	1163.2562	1170.0182	1251.5889	1275.2922	1294.9021	1309.5516	1378.2307	1401.4282	1414.0224	1466.1953	1515.583	3039.3047	3058.2073	3107.9781	3168.9892	3181.9268	3191.8093	3487.6488	3818.1971	3819.2369
OC12CC(O)(C1)C1NC21	O[C@@]12C[C@@](O)(C1)[C@H]1N[C@@H]21	
InChI=1S/C6H9NO2/c8-5-1-6(9,2-5)4-3(5)7-4/h3-4,7-9H,1-2H2	InChI=1S/C6H9NO2/c8-5-1-6(9,2-5)4-3(5)7-4/h3-4,7-9H,1-2H2/t3-,4+,5-,6+
