18
gdb 40774	2.75856	1.35547	1.01866	0.9943	72.16	-0.2483	0.0503	0.2986	1176.1305	0.147442	-439.002639	-438.994435	-438.993491	-439.036254	30.297	
C	 0.2340422447	 1.5130404843	 0.1366904888	-0.1773
O	 1.079078189	 0.4459516879	-0.301787155	-0.241603
C	-0.265134905	 0.1345221602	 0.0848958564	 0.0643
C	-0.3740826789	-0.7184866945	 1.3191727725	 0.04175
O	-1.7409910446	-0.8941089733	 1.7537536923	-0.301073
C	-1.6445436824	-2.3410852946	 1.6988283167	-0.131464
C	-0.2297907635	-2.2335112419	 1.1451221923	 0.264917
C	 0.4776007868	-2.9776341127	 0.0840113508	-0.305944
N	 0.8882525749	-3.0845720762	 1.5014830698	-0.359696
H	 0.4973467941	 1.9526812509	 1.0977202685	 0.120351
H	-0.0611578981	 2.2202712152	-0.6363241576	 0.121987
H	-0.9231291713	-0.1538520096	-0.7350954684	 0.0996
H	 0.2601782329	-0.3004140545	 2.1154432156	 0.080522
H	-1.7117800761	-2.7982098706	 2.6932774763	 0.114532
H	-2.405486774	-2.7758861346	 1.0404573682	 0.109868
H	 0.0410098856	-3.8817698982	-0.3320632205	 0.122185
H	 1.1032673999	-2.4103425193	-0.5999576053	 0.137721
H	 1.720979556	-2.5236646285	 1.6692411285	 0.239348
59.3097	81.5101	150.7666	226.0768	290.0763	321.9528	370.4076	425.5528	500.2624	598.337	815.5229	846.116	859.8167	885.8568	913.6039	934.5262	965.6592	984.6994	1006.9079	1026.2928	1058.8859	1077.5108	1100.5768	1129.671	1146.0472	1152.9944	1165.9551	1186.1108	1251.1655	1262.8479	1279.3924	1287.7587	1315.0916	1326.3258	1437.526	1455.5585	1517.1906	1518.9719	1527.3934	2991.3684	3022.4866	3070.4753	3087.727	3107.9612	3114.6421	3177.3513	3196.2925	3491.1345
C1OC1C1OCC11CN1	C1O[C@H]1[C@H]1OC[C@]21CN2	
InChI=1S/C6H9NO2/c1-4(8-1)5-6(2-7-6)3-9-5/h4-5,7H,1-3H2	InChI=1S/C6H9NO2/c1-4(8-1)5-6(2-7-6)3-9-5/h4-5,7H,1-3H2/t4-,5-,6+/m1/s1
