19
gdb 108123	3.04896	1.5733	1.40112	2.4251	74.16	-0.2393	0.0806	0.3199	1005.8796	0.16026	-422.97027	-422.962856	-422.961912	-423.002164	29.552	
C	 0.0224735702	 1.4142889692	-0.0155085142	-0.264903
O	 0.0373417844	-0.0014276855	-0.0093503768	-0.294221
C	 0.7148376881	-0.5454034612	 1.0594215051	 0.443919
C	 2.2438616641	-0.4979985483	 1.2577289456	-0.322101
C	 1.9772592708	-1.6670552542	 2.2425022243	-0.097368
C	 1.2176448232	-0.9532823962	 3.3825686032	-0.206477
C	 0.0040417703	-0.6305996806	 2.4946777331	-0.009401
O	-0.4782701941	-1.9689546882	 2.1738139018	-0.290942
C	 0.690430798	-2.0536983252	 1.3581879325	 0.032769
H	 1.036820654	 1.831241095	-0.0892718829	 0.113546
H	-0.5527767966	 1.7238166513	-0.8903891753	 0.132358
H	-0.4571547823	 1.8200111197	 0.8868796975	 0.109888
H	 2.7472782552	-0.8183907426	 0.3409766227	 0.106479
H	 2.7242155449	 0.3993903727	 1.657128743	 0.094829
H	 2.7495735136	-2.3908458097	 2.489358289	 0.075106
H	 0.9259341427	-1.5988602432	 4.2135703029	 0.109073
H	 1.7547026867	-0.0796104126	 3.7618731224	 0.094719
H	-0.7770874907	 0.0505015158	 2.8291533883	 0.082084
H	 0.7229561675	-2.8684965363	 0.6374346978	 0.090643
88.5497	168.3481	180.8826	331.3307	345.6216	449.204	462.5662	550.2196	603.6279	688.2069	722.1152	782.4306	849.5349	875.313	917.4014	923.252	952.9239	968.6897	998.0343	1003.8235	1040.156	1062.0229	1069.5307	1124.4526	1135.4793	1155.9365	1181.5232	1182.8458	1194.268	1224.7811	1227.0424	1242.3267	1262.615	1299.7215	1322.0792	1362.3542	1477.2738	1485.3301	1488.6587	1503.8901	1507.3969	2989.9808	3041.2967	3052.8733	3063.6557	3109.7412	3120.4252	3124.8292	3135.033	3142.8034	3153.4278
COC12CC3CC1OC23	CO[C@@]12C[C@H]3C[C@@H]1O[C@@H]23	
InChI=1S/C7H10O2/c1-8-7-3-4-2-5(7)9-6(4)7/h4-6H,2-3H2,1H3	InChI=1S/C7H10O2/c1-8-7-3-4-2-5(7)9-6(4)7/h4-6H,2-3H2,1H3/t4-,5+,6-,7+/m1/s1
