14
gdb 42327	5.63368	0.66787	0.62249	2.9808	91.4	-0.2629	-0.0884	0.1745	1707.3231	0.099308	-399.477494	-399.46875	-399.467806	-399.511851	30.913	
O	-0.0621469436	 0.1273622163	-0.5340466141	-0.316776
C	 0.0042066362	 1.3261213277	-0.3245593473	 0.147162
C	 1.2660574919	 2.0047270157	-0.1434867801	 0.372651
C	 2.3210648756	 2.5841312911	 0.0093987538	-0.17252
C	 3.5025778335	 3.2295780274	 0.1796115687	 0.296712
C	 4.5532275846	 3.8053981511	 0.331484858	-0.540312
C	-1.2183405551	 2.182488354	-0.2464791648	-0.111206
C	-2.197815382	 2.0258585721	-1.3744289204	-0.217887
N	-2.5006853934	 1.4943385128	-0.0546972372	-0.299323
H	 5.4784401593	 4.3103585156	 0.4651027259	 0.208039
H	-1.11055604	 3.1469395719	 0.2387419666	 0.112414
H	-2.7784283236	 2.8919098593	-1.6778331367	 0.132164
H	-1.9251990821	 1.3350975974	-2.1673398915	 0.137118
H	-2.3011267314	 0.4929272777	-0.0515618911	 0.251763
60.0979	68.7441	128.542	207.03	252.4065	280.6119	325.4058	393.4679	492.7221	551.4705	569.9393	600.1246	639.7583	755.1473	759.5937	842.6707	874.7499	946.1665	998.1056	1020.8615	1117.4893	1131.8645	1174.9831	1211.0645	1288.5328	1316.9151	1396.1218	1496.6774	1726.5492	2173.984	2333.0338	3115.0355	3169.8986	3210.0362	3462.2534	3499.1209
O=C(C#CC#C)C1CN1	O=C(C#CC#C)[C@H]1CN1	
InChI=1S/C7H5NO/c1-2-3-4-7(9)6-5-8-6/h1,6,8H,5H2	InChI=1S/C7H5NO/c1-2-3-4-7(9)6-5-8-6/h1,6,8H,5H2/t6-/m1/s1
