21
gdb 64049	2.19987	1.68805	1.2668	2.5913	83.08	-0.2339	-0.0102	0.2237	1106.0865	0.181955	-387.134835	-387.12576	-387.124816	-387.168114	35.182	
C	 0.0341950044	 1.5510999475	-0.0209811109	-0.417202
C	 0.0313331233	 0.0193101522	 0.0015377626	 0.147668
C	-1.4248890684	-0.5041184396	 0.0442420492	-0.423805
C	 0.7497094439	-0.543004874	-1.2543104108	-0.278764
C	 1.1039204026	-2.0023199558	-1.1551150068	-0.067077
C	 1.1995910923	-2.6582522429	-0.0005253985	-0.046661
C	 0.9727277278	-2.0053759951	 1.3361155185	-0.365996
C	 0.7537865041	-0.4964925167	 1.2532903832	 0.385021
O	 1.1211672186	 0.2367941668	 2.1418440977	-0.32404
H	 1.054199471	 1.9438072583	 0.0069168229	 0.121089
H	-0.4537120753	 1.9169783952	-0.9307661172	 0.102894
H	-0.4952440648	 1.9579701685	 0.8438449816	 0.124852
H	-1.9830312703	-0.1037272591	-0.8088093952	 0.119268
H	-1.4705390228	-1.5948340725	-0.0100965961	 0.126392
H	-1.9324002463	-0.1793908741	 0.9581731982	 0.124176
H	 0.1092492571	-0.370689697	-2.1294957261	 0.105405
H	 1.6625213581	 0.0408662943	-1.4433338564	 0.115722
H	 1.3020435726	-2.5239782809	-2.0881858423	 0.09091
H	 1.4648761122	-3.7124399369	 0.0103030212	 0.092619
H	 0.0934115014	-2.4459971656	 1.8318077739	 0.134221
H	 1.8099533584	-2.1792593627	 2.0210789013	 0.13331
81.8414	130.0275	210.9963	226.0315	244.916	303.8553	335.1173	352.6098	388.6158	455.3251	489.3001	529.1756	609.0113	654.8906	690.9667	797.974	874.175	896.2245	936.0064	952.4008	956.1212	994.4025	1005.6859	1014.7822	1032.0418	1110.6069	1150.5855	1168.9563	1199.2795	1229.4126	1253.7529	1291.1523	1333.0274	1366.7732	1396.1505	1409.9822	1419.1699	1446.1811	1472.1821	1483.1358	1487.3088	1501.1166	1508.0881	1730.08	1808.8951	2995.6041	3000.0672	3032.7971	3034.0241	3040.6799	3066.0799	3100.4403	3110.3475	3119.7607	3124.722	3146.6324	3169.658
CC1(C)CC=CCC1=O	CC1(C)CC=CCC1=O	
InChI=1S/C8H12O/c1-8(2)6-4-3-5-7(8)9/h3-4H,5-6H2,1-2H3	InChI=1S/C8H12O/c1-8(2)6-4-3-5-7(8)9/h3-4H,5-6H2,1-2H3
