22
gdb 5887	3.38633	1.13094	1.06879	2.4239	75.06	-0.2564	0.0704	0.3269	1252.9861	0.197081	-387.341138	-387.330841	-387.329896	-387.37661	37.652	
C	-0.039885486	 1.57130719	-0.0817579699	-0.410717
C	 0.0626616278	 0.039363013	-0.0148588304	 0.367667
C	 0.6988737954	-0.4114847891	 1.3081564602	-0.412435
C	-1.3238597068	-0.5906030966	-0.1789367759	-0.396318
O	 0.800576853	-0.4746952193	-1.1392499155	-0.300661
C	 2.1748584672	-0.1510342604	-1.2644931313	-0.084847
C	 2.5859861975	-0.6254299336	-2.6523364854	-0.052046
O	 1.8150053335	 0.00119929	-3.6573852711	-0.422898
H	 0.9284185077	 2.0560658302	 0.0715462964	 0.116799
H	-0.4314001138	 1.8844209416	-1.0541991588	 0.119757
H	-0.7164770095	 1.9390072431	 0.6957770642	 0.115719
H	 0.059459024	-0.1296115223	 2.1501845626	 0.116147
H	 0.823998702	-1.4984395326	 1.3206402174	 0.120331
H	 1.6769182766	 0.0514756338	 1.4688238886	 0.115606
H	-1.7633756621	-0.2962883535	-1.1364090344	 0.115658
H	-1.2497406997	-1.6813967915	-0.1587592813	 0.119366
H	-1.9945719793	-0.2702531181	 0.623435485	 0.111462
H	 2.3405240555	 0.9323011718	-1.1870687783	 0.0957
H	 2.7828842929	-0.6516807551	-0.4963026674	 0.087599
H	 3.6349209571	-0.3697426325	-2.8358977355	 0.103669
H	 2.4912486799	-1.7224056697	-2.6975575642	 0.089568
H	 0.9004815669	-0.0874287191	-3.362471455	 0.284877
29.4293	78.1545	155.6737	197.686	208.1638	249.7777	268.6847	292.104	337.3388	345.7981	401.7123	450.7098	464.7593	485.5207	539.916	745.1677	839.5381	909.2855	914.0446	919.5917	956.3721	960.7854	1038.6482	1042.6116	1083.6157	1115.1867	1138.0198	1222.406	1231.9772	1252.6285	1263.2036	1280.8536	1385.6166	1390.6106	1394.7534	1407.2444	1423.1033	1440.6755	1471.4269	1483.0394	1486.1365	1497.7583	1499.6075	1500.8601	1508.4627	1521.6549	2976.7836	2988.4968	3033.237	3039.0509	3041.1103	3046.606	3076.4618	3107.951	3111.7078	3113.2705	3115.4841	3118.8961	3123.2611	3786.1285
CC(C)(C)OCCO	CC(C)(C)OCCO	
InChI=1S/C6H14O2/c1-6(2,3)8-5-4-7/h7H,4-5H2,1-3H3	InChI=1S/C6H14O2/c1-6(2,3)8-5-4-7/h7H,4-5H2,1-3H3
