17
gdb 130403	3.03301	1.3262	0.94831	4.6147	72.69	-0.1775	0.0333	0.2108	1201.4835	0.138365	-451.332672	-451.323564	-451.32262	-451.366331	33.574	
N	 0.085331112	 1.344235474	-0.0369213227	-0.596136
C	 0.0507378521	-0.0497546623	-0.0488188185	 0.301378
N	-1.0492407931	-0.7353682974	-0.3464006457	-0.314182
N	-0.66482547	-2.0365018615	-0.3012681848	-0.300795
C	 0.6554642871	-2.1914720046	 0.0013528616	 0.257923
C	 1.3838640293	-3.4920853675	 0.0992667814	-0.288118
N	 2.4692207158	-3.3505194504	 1.0906902323	-0.514042
H	 2.0778510211	-3.324580368	 2.0277651158	 0.244419
H	 3.09475357	-4.1483929713	 1.0488340327	 0.240753
H	 2.8699494831	-1.344888441	 0.7782605898	 0.292478
C	 1.1494723805	-0.9147205868	 0.1803533489	 0.154841
O	 2.4072368403	-0.5245947439	 0.52708076	-0.464233
H	 0.7623237643	 1.7038880635	 0.6230438869	 0.250256
H	-0.8290411615	 1.7454084732	 0.1254311552	 0.246208
H	-1.3307210149	-2.7464258445	-0.546100917	 0.262266
H	 0.6810648449	-4.3106016502	 0.3265378824	 0.098489
H	 1.8587234992	-3.7476831913	-0.8579850083	 0.128493
90.7082	134.3916	150.7406	208.2689	229.0261	278.8252	291.1773	332.2136	408.667	421.8573	517.1988	610.3063	640.1544	676.2494	699.8106	729.4293	765.1756	821.1685	885.6581	993.1372	1025.8149	1061.4172	1100.3813	1172.4137	1201.9676	1268.5143	1279.051	1336.852	1388.3355	1419.3404	1468.2832	1502.6649	1541.8524	1598.6762	1633.7911	1647.1138	1665.8774	2962.8497	3018.2454	3496.3872	3541.5131	3580.1997	3602.1161	3641.5467	3695.6487
NC1=NNC(C[NH3+])=C1[O-]	Nc1n[nH]c(CN)c1O	
InChI=1S/C4H8N4O/c5-1-2-3(9)4(6)8-7-2/h9H,1,5H2,(H3,6,7,8)	InChI=1S/C4H8N4O/c5-1-2-3(9)4(6)8-7-2/h9H,1,5H2,(H3,6,7,8)
