19
gdb 18727	3.17403	2.15518	1.4549	1.4274	72.06	-0.2035	0.0848	0.2883	902.6499	0.166753	-365.027186	-365.01974	-365.018796	-365.058699	28.943	
C	 0.0642480853	 1.4041087148	-0.0780692811	-0.324939
N	-0.0607464371	-0.0283283751	 0.0933279555	-0.064244
C	-1.4189612293	-0.5425334147	 0.0067176259	-0.154686
C	-1.3567498286	-2.0651043234	-0.0380336651	-0.07417
O	-0.7994643257	-2.6170559458	 1.1475788089	-0.260229
C	 0.2723059152	-1.9193587191	 1.7070393907	 0.115421
C	 1.6047562426	-1.7020955693	 1.0298063293	-0.340998
C	 0.6424814916	-0.5371197419	 1.2466103051	-0.018749
H	 1.1228167247	 1.6799150909	-0.1176531179	 0.123486
H	-0.3990729409	 1.704278965	-1.023789817	 0.115749
H	-0.4094091979	 1.9906409501	 0.7325485022	 0.092797
H	-2.0617638068	-0.2201375998	 0.8483060344	 0.081981
H	-1.8766441184	-0.1776371507	-0.9198585727	 0.099539
H	-2.3584432143	-2.4965119344	-0.1242088489	 0.105943
H	-0.7705149469	-2.3692014373	-0.9183567616	 0.096691
H	 0.3001934791	-2.1113663694	 2.7749411107	 0.101496
H	 2.4999947703	-1.7861162542	 1.6373786402	 0.10629
H	 1.7144077161	-2.0136806213	-0.0025593874	 0.119934
H	 0.877865851	 0.1998716857	 2.0147733487	 0.078688
89.492	200.1755	223.9059	276.0667	344.3944	374.7196	413.686	487.9526	522.3863	695.878	716.2201	779.9069	815.0107	891.7579	916.8178	983.2602	1008.0584	1043.1569	1060.628	1080.6763	1102.4465	1106.1474	1129.6605	1161.2281	1176.5368	1200.3386	1254.0245	1273.5575	1284.9537	1330.1758	1353.4692	1392.9393	1403.926	1427.1309	1459.1132	1476.6934	1485.8452	1501.3758	1505.2098	1509.4629	2917.1097	2925.3769	2993.2646	3054.9077	3059.373	3083.966	3088.08	3101.7581	3130.506	3156.2715	3227.3102
CN1CCOC2CC12	CN1CCO[C@H]2C[C@@H]12	
InChI=1S/C6H11NO/c1-7-2-3-8-6-4-5(6)7/h5-6H,2-4H2,1H3	InChI=1S/C6H11NO/c1-7-2-3-8-6-4-5(6)7/h5-6H,2-4H2,1H3/t5-,6+/m1/s1
