18
gdb 32413	3.09403	1.15957	0.85239	1.1861	75.22	-0.1734	0.0566	0.23	1312.5876	0.146127	-439.113586	-439.103461	-439.102517	-439.149511	35.589	
C	 0.0410252623	 1.5187006766	 0.0172516717	-0.518519
C	 0.036234633	 0.0203902116	 0.0130124194	 0.029322
C	 0.0292887391	-0.8079391789	-1.0858798694	 0.317385
O	 0.0247173196	-0.5714376616	-2.4256886587	-0.438211
N	 0.0270053039	-2.1080048882	-0.6754319047	-0.313559
C	 0.0326839778	-2.1463693151	 0.7083755277	-0.181276
C	 0.0383172206	-0.8533861081	 1.1572259768	 0.21073
C	 0.0453395392	-0.418830801	 2.5877238434	-0.190265
O	 0.0449956299	-1.5699310941	 3.419605234	-0.418342
H	 0.9263427252	 1.9315244034	 0.5177280159	 0.126049
H	 0.0379568909	 1.9313503941	-0.9993892835	 0.092697
H	-0.8372613303	 1.9371934835	 0.5253485924	 0.126039
H	 0.0261300206	 0.3807988889	-2.5621551215	 0.302563
H	 0.0224586323	-2.8966444997	-1.2972789118	 0.262005
H	 0.0318106793	-3.0763871114	 1.2483450927	 0.129814
H	 0.9310073871	 0.2102699743	 2.788129734	 0.08866
H	-0.8347582617	 0.2158145603	 2.7950921273	 0.088661
H	 0.0504765911	-1.2744758546	 4.3339762243	 0.286247
30.6746	69.8175	151.4612	165.8874	178.3075	228.1095	257.3829	269.1206	298.7085	359.878	421.6901	509.9228	609.333	627.9252	672.7666	696.1999	747.755	759.1668	944.2169	1042.3115	1054.0963	1063.2089	1081.3186	1124.2443	1169.9106	1210.8903	1234.1562	1243.0752	1287.2933	1363.6819	1405.0096	1424.4414	1472.1711	1474.376	1503.2087	1517.9231	1554.6951	1592.4449	1659.011	2933.5241	2942.3384	3005.1384	3051.891	3063.1801	3295.6894	3692.6087	3840.8531	3841.4954
CC1=C(O)NC=C1CO	Cc1c(O)[nH]cc1CO	
InChI=1S/C6H9NO2/c1-4-5(3-8)2-7-6(4)9/h2,7-9H,3H2,1H3	InChI=1S/C6H9NO2/c1-4-5(3-8)2-7-6(4)9/h2,7-9H,3H2,1H3
