13
gdb 129891	5.52036	1.37538	1.10269	4.9987	66.21	-0.2146	0.0119	0.2265	1001.9161	0.092659	-448.940943	-448.934289	-448.933345	-448.97195	25.333	
N	 0.1333768174	 1.3230892304	 0.1716279591	-0.589547
C	-0.0568404197	-0.0360761248	 0.0468051313	 0.340254
C	-1.1535852844	-0.8324425087	-0.0248771562	-0.214071
N	-0.6347692528	-2.1338864686	-0.0014425749	 0.026912
N	-1.0328929843	-3.4302167661	-0.0592783722	-0.284951
C	 0.1517547434	-4.0487881952	-0.0277822362	 0.026672
N	 1.2696732888	-3.2578422545	 0.039600256	-0.393479
C	 0.7028996573	-2.0750414495	 0.05461756	 0.495195
O	 1.1082645954	-0.785155129	 0.0963873624	-0.232083
H	 0.9295942738	 1.66463974	-0.3530288169	 0.27047
H	-0.6969326308	 1.8626500952	-0.0290243128	 0.266888
H	-2.200445082	-0.6006150044	-0.0844339485	 0.158828
H	 0.212233448	-5.1261898547	-0.0527745412	 0.128911
144.9878	167.3489	293.0223	327.2866	345.2893	534.9618	595.1508	630.8995	645.2164	672.2132	709.2934	755.2398	798.56	870.6394	879.5862	959.1526	989.558	1100.73	1152.4621	1205.863	1209.4652	1259.5704	1371.9297	1413.3963	1436.7318	1485.5754	1606.2068	1627.1474	1711.3609	3266.1514	3313.7806	3543.7546	3650.2794
NC1=CN2N=CN=C2O1	Nc1cn2ncnc2o1	
InChI=1S/C4H4N4O/c5-3-1-8-4(9-3)6-2-7-8/h1-2H,5H2	InChI=1S/C4H4N4O/c5-3-1-8-4(9-3)6-2-7-8/h1-2H,5H2
