19
gdb 85139	2.25283	1.64238	1.17459	4.2026	74.97	-0.2627	0.0124	0.2751	1115.3717	0.159283	-423.05216	-423.043648	-423.042704	-423.085458	31.809	
C	-0.1326798516	 1.546693367	-0.251245518	-0.407148
C	 0.1878482897	 0.0718275558	-0.1667439829	 0.069386
O	 1.55926294	-0.2181704692	-0.6339016399	-0.273326
C	 1.9021895519	-0.772421527	 0.5721386308	 0.439408
O	 2.9488228959	-1.2447176992	 0.888391536	-0.341553
C	 0.5335241068	-0.5414472794	 1.203320463	 0.110453
C	 0.4806703998	 0.1823142986	 2.5755454119	-0.280768
C	 0.2354479344	-1.1976719843	 3.2437366973	-0.208694
C	-0.1723073304	-1.759062605	 1.8553599109	-0.284002
H	 0.5751138313	 2.1368500113	 0.3379378601	 0.131269
H	-0.0877567556	 1.8887722892	-1.2891380959	 0.137621
H	-1.1430392224	 1.7366962844	 0.1259086806	 0.125517
H	-0.5154979337	-0.5301440806	-0.7510789768	 0.095019
H	 1.3664023531	 0.7455258581	 2.8760355627	 0.119321
H	-0.3957103895	 0.8340303576	 2.6414259477	 0.107868
H	 1.1700558256	-1.6414867817	 3.5929829048	 0.129751
H	-0.5040118148	-1.2453859467	 4.045094395	 0.102783
H	-1.2536892897	-1.7145712432	 1.6935062627	 0.107114
H	 0.1893156491	-2.7507689857	 1.5758193201	 0.11998
98.144	105.7863	167.0184	197.4537	219.0195	263.8904	307.4235	473.0018	507.0864	561.78	697.059	727.6567	749.1792	799.8025	831.7056	861.7166	892.2214	939.5278	960.7878	984.8307	1047.0134	1066.1201	1081.8076	1133.3865	1157.9132	1187.8664	1208.6538	1220.445	1256.0747	1267.8235	1280.7188	1299.0855	1332.2392	1380.6655	1412.1611	1470.1787	1481.6337	1483.7484	1493.1946	1501.6565	1922.9569	3040.5513	3054.3971	3058.3601	3060.4758	3075.181	3110.4817	3112.631	3116.6279	3122.6891	3135.3462
CC1OC(=O)C11CCC1	C[C@H]1OC(=O)C21CCC2	
InChI=1S/C7H10O2/c1-5-7(3-2-4-7)6(8)9-5/h5H,2-4H2,1H3	InChI=1S/C7H10O2/c1-5-7(3-2-4-7)6(8)9-5/h5H,2-4H2,1H3/t5-/m1/s1
