19
gdb 52416	8.85548	0.47068	0.46261	3.129	74.13	-0.2579	-0.0286	0.2293	2270.2255	0.155598	-460.13068	-460.120522	-460.119578	-460.168217	33.823	
O	-0.246663727	 0.3755934129	 0.7000802653	-0.23683
C	 0.0821068925	 1.1443964528	-0.1631707679	 0.139425
C	 1.307901394	 2.0369887726	-0.0748918858	-0.145954
O	 1.4063167196	 2.7664645488	-1.2692866832	-0.249987
C	 2.5070929719	 3.6535241984	-1.3012907464	-0.045295
C	 2.4818123907	 4.4029048135	-2.6289466821	-0.241512
C	 3.6469340293	 5.3522593136	-2.7564508685	 0.093136
C	 3.5225106293	 6.6681587392	-3.39334769	-0.178883
O	 3.5827586106	 6.5484012376	-1.971356709	-0.235201
H	-0.4907736747	 1.2694857119	-1.1084712978	 0.096156
H	 1.2031394485	 2.6947515874	 0.8051692348	 0.124103
H	 2.1951237242	 1.4053592889	 0.1025396061	 0.121756
H	 2.4521153731	 4.3681711061	-0.4652599542	 0.112405
H	 3.4511485765	 3.092624157	-1.1912153733	 0.089932
H	 2.5066559284	 3.6767811175	-3.4504122861	 0.113606
H	 1.5420337662	 4.9587988184	-2.7078314733	 0.115885
H	 4.6345316418	 4.8857781862	-2.7579375169	 0.09363
H	 4.390971297	 7.1287183121	-3.8620566954	 0.11733
H	 2.5590089384	 6.978522265	-3.7958757963	 0.116296
36.5824	53.7811	68.9635	91.4185	120.046	137.978	200.7357	293.6816	367.5298	434.0197	500.0526	569.4323	740.0026	781.9935	821.8868	877.7908	949.6998	1005.625	1025.3125	1053.3121	1078.4165	1113.7235	1123.2848	1158.5311	1161.2193	1174.7265	1182.0451	1232.7737	1248.2648	1291.2995	1306.1699	1313.7863	1348.5246	1401.5221	1434.4549	1450.9307	1477.9896	1482.9002	1529.4076	1532.039	1845.6806	2899.2223	2954.4177	2963.3073	2987.1622	3002.816	3041.5643	3080.0732	3084.5356	3099.0633	3169.848
O=CCOCCC1CO1	O=CCOCC[C@H]1CO1	
InChI=1S/C6H10O3/c7-2-4-8-3-1-6-5-9-6/h2,6H,1,3-5H2	InChI=1S/C6H10O3/c7-2-4-8-3-1-6-5-9-6/h2,6H,1,3-5H2/t6-/m0/s1
