19
gdb 68329	3.48656	0.97114	0.87487	2.9241	77.46	-0.2454	-0.0203	0.2251	1362.2504	0.156791	-422.973733	-422.964884	-422.96394	-423.008022	32.713	
C	 0.0053453879	 1.4666898588	 0.1832647232	-0.514776
C	-0.0171630877	-0.007817266	-0.068050889	 0.397421
C	 0.5583445662	-0.8299259905	-1.2520522185	-0.262095
C	 0.1254681819	-1.7988459582	-0.1331565602	 0.037201
O	 0.7509357113	-0.8936911727	 0.8561087424	-0.342333
C	-1.2102580783	-1.0176761897	 0.0163338775	-0.036426
C	-1.9832395487	-1.1070503126	 1.327549727	-0.317261
C	-2.7858064653	-2.3828000393	 1.4315138701	 0.15923
O	-3.9678862753	-2.4408629189	 1.6541668218	-0.240529
H	 1.0320065851	 1.8431994642	 0.151107667	 0.138697
H	-0.5802147016	 1.9887064186	-0.5799191522	 0.131095
H	-0.4183135605	 1.7001033803	 1.1647321314	 0.137476
H	 0.0024999302	-0.8386511671	-2.1931487403	 0.097288
H	 1.6364260277	-0.7407876052	-1.3893944051	 0.109698
H	 0.3249053567	-2.8651734533	-0.0286976335	 0.09839
H	-1.8665736631	-1.0361045306	-0.860048676	 0.081262
H	-1.2509872459	-1.0935914149	 2.1454434658	 0.138977
H	-2.6668244228	-0.2608979167	 1.4479722067	 0.116514
H	-2.1886136277	-3.3134201662	 1.282368052	 0.070172
62.7942	69.5581	144.2044	184.8419	240.1516	276.7134	320.051	414.2107	458.566	556.5147	637.5627	653.8002	729.8694	763.8187	824.8079	851.3224	888.3869	911.025	955.8122	1019.7861	1029.9226	1052.0414	1054.2242	1111.9599	1129.7348	1140.8304	1169.4716	1196.7948	1217.6475	1236.0034	1249.7783	1292.7651	1328.7162	1397.3354	1415.6689	1432.9662	1462.7326	1476.4864	1488.6147	1496.0749	1833.5836	2852.5533	3031.4604	3040.9967	3054.7779	3066.6335	3096.7118	3115.378	3117.3775	3121.5648	3148.727
CC12CC(O1)C2CC=O	C[C@@]12C[C@@H](O1)[C@H]2CC=O	
InChI=1S/C7H10O2/c1-7-4-6(9-7)5(7)2-3-8/h3,5-6H,2,4H2,1H3	InChI=1S/C7H10O2/c1-7-4-6(9-7)5(7)2-3-8/h3,5-6H,2,4H2,1H3/t5-,6-,7+/m1/s1
