22
gdb 113924	3.33747	0.76473	0.75459	2.814	79.42	-0.247	0.0585	0.3055	1640.6129	0.193633	-441.45639	-441.446202	-441.445258	-441.492349	37.623	
C	 0.1549741644	 1.493349906	 0.3376831137	-0.383104
C	-0.1765095585	 0.0065222148	 0.3850672393	 0.164154
O	-0.5083438076	-0.3117658333	 1.7262759779	-0.449561
C	-1.3318040649	-0.3647936204	-0.5633460397	-0.238705
C	-1.5121428033	-1.8671271178	-0.6815244129	-0.027643
N	-1.7772393504	-2.6231147396	 0.5696809044	-0.357475
C	-2.7891351277	-2.6122295552	-0.508703538	-0.043993
C	-4.1180281894	-1.9994889564	-0.1344256134	-0.069613
O	-4.8523740963	-2.8678994522	 0.7128232161	-0.419442
H	 0.9313786388	 1.7236710053	 1.0723125039	 0.123753
H	 0.5148014255	 1.7865269354	-0.6535976282	 0.103733
H	-0.7297164735	 2.0902712347	 0.5823981052	 0.117157
H	 0.720578478	-0.5600750858	 0.0707383158	 0.049848
H	-0.9820070243	-1.1577242144	 1.7065974425	 0.288836
H	-2.2382561551	 0.1197842363	-0.1880557035	 0.109317
H	-1.1390268609	 0.0388275954	-1.5645601826	 0.09937
H	-0.8000423371	-2.3364553221	-1.3591523421	 0.093351
H	-1.2612140643	-3.4976102971	 0.575634078	 0.241535
H	-2.8862278159	-3.5355384546	-1.0773364993	 0.096858
H	-3.9697360064	-1.018760902	 0.3363434041	 0.099749
H	-4.7307316275	-1.8529620776	-1.0302271169	 0.112852
H	-4.3078029938	-3.0049384496	 1.4965559556	 0.289023
42.1	75.8807	87.2358	176.8952	203.4307	230.1245	278.3351	310.2996	396.4668	410.6774	436.5603	481.4262	505.9542	571.5415	597.619	786.477	835.8908	855.1497	898.9525	925.2916	950.1666	972.5862	1004.9831	1024.5705	1066.9733	1073.5232	1092.2015	1153.4631	1164.136	1178.8718	1217.0112	1264.5156	1273.799	1286.1545	1305.8838	1339.0298	1365.4962	1380.1317	1401.4127	1403.7335	1436.8533	1461.5062	1473.4934	1477.7869	1487.6158	1497.0383	1500.2632	2914.0987	3016.82	3035.6573	3041.423	3077.963	3088.8609	3109.1906	3113.6226	3118.712	3128.4349	3517.8631	3674.3137	3798.6451
CC(O)CC1NC1CO	C[C@@H](O)C[C@H]1N[C@H]1CO	
InChI=1S/C6H13NO2/c1-4(9)2-5-6(3-8)7-5/h4-9H,2-3H2,1H3	InChI=1S/C6H13NO2/c1-4(9)2-5-6(3-8)7-5/h4-9H,2-3H2,1H3/t4-,5-,6+/m1/s1
