18
gdb 51260	4.76231	0.90458	0.83129	2.9128	79.12	-0.2327	-0.0297	0.203	1373.348	0.147805	-401.938809	-401.930604	-401.92966	-401.973096	30.356	
O	 0.260947195	-0.1836187197	-0.3087752724	-0.234254
C	 0.1167139551	 1.0019978613	-0.1682671191	 0.159883
C	 1.2502713338	 2.0099691053	-0.029797194	-0.374742
C	 1.2258167834	 2.9925586933	-1.1667066473	 0.293441
C	 0.8979359444	 4.2886701242	-1.1050770902	-0.165408
C	 1.0558718089	 4.9457317166	-2.4336439683	-0.0737
N	 2.4682079587	 4.907931356	-2.9182412227	-0.332919
C	 1.5074270143	 3.8794545383	-3.3694562003	-0.041735
C	 1.5940896172	 2.5755419371	-2.5850763021	-0.299002
H	-0.8973118964	 1.4640914315	-0.1468277329	 0.078495
H	 1.1113865652	 2.5395226464	 0.9212088622	 0.121511
H	 2.1933817705	 1.4551378354	 0.0092151113	 0.127172
H	 0.607565526	 4.818875961	-0.2053438545	 0.095657
H	 0.4229536761	 5.7730469069	-2.7357818033	 0.089864
H	 2.5700391282	 5.5936259979	-3.6654034186	 0.227445
H	 1.2108195861	 3.8647861908	-4.4124308192	 0.089911
H	 2.5995958591	 2.1398778492	-2.628079205	 0.124969
H	 0.9027904345	 1.8178954983	-2.9774875538	 0.113412
36.861	51.1749	133.3618	234.4644	305.8605	362.9786	456.8453	499.5719	511.6	630.4543	708.0571	798.7531	817.0159	837.1364	865.8397	878.0876	918.3184	951.7401	959.943	999.9863	1014.8407	1057.3424	1084.1182	1128.4324	1155.0859	1169.0848	1194.1235	1202.1364	1258.8911	1282.5124	1296.6001	1342.2557	1376.6808	1409.7145	1418.7279	1458.0221	1464.0724	1691.0577	1834.7141	2867.6664	3021.8194	3029.389	3060.6139	3091.5164	3165.2908	3174.5801	3198.8919	3472.8125
O=CCC1=CC2NC2C1	O=CCC1=C[C@H]2N[C@H]2C1	
InChI=1S/C7H9NO/c9-2-1-5-3-6-7(4-5)8-6/h2-3,6-8H,1,4H2	InChI=1S/C7H9NO/c9-2-1-5-3-6-7(4-5)8-6/h2-3,6-8H,1,4H2/t6-,7+/m1/s1
