19
gdb 22736	2.37684	1.41161	0.99996	1.0612	80.98	-0.2162	0.0024	0.2187	1227.5867	0.15794	-419.127586	-419.118439	-419.117495	-419.161412	34.57	
C	-0.6719227764	 1.2916707308	-0.0079784085	-0.379496
C	 0.0653983165	-0.03955464	-0.0298893089	-0.048084
N	 1.375120951	-0.0133739616	-0.7787427146	-0.395043
C	 2.0885767391	-0.5269926846	 0.4104651019	 0.292415
C	 3.1500623187	-1.5934946874	 0.4430712754	-0.328438
C	 3.4902293114	-0.1677123656	 0.8125685519	-0.299595
C	 0.8407964888	-0.4522660057	 1.2122318071	 0.329195
N	 0.6179862249	-0.6650654079	 2.4393657378	-0.26588
O	-0.7458874713	-0.4798619796	 2.7475779435	-0.395306
H	-0.0077793385	 2.0909587598	 0.3313614818	 0.123614
H	-1.023515929	 1.5442407263	-1.0133478894	 0.115527
H	-1.5316082001	 1.2374788111	 0.6650837075	 0.133105
H	-0.6080740382	-0.8405107187	-0.3634984241	 0.094522
H	 1.385194925	-0.6754806462	-1.5489114053	 0.218044
H	 3.0898837424	-2.3382157587	 1.2294745999	 0.130221
H	 3.5075541638	-1.9663168957	-0.5121361735	 0.116118
H	 4.0626276918	 0.4171733252	 0.1006867374	 0.123181
H	 3.664699164	 0.0690439884	 1.8565181248	 0.128868
H	-0.764861764	-0.6570078198	 3.6939240254	 0.307031
68.8793	140.5575	155.5076	208.955	223.123	264.8769	307.5959	374.2587	395.953	451.6295	515.0345	558.8575	644.4683	754.2231	764.0605	786.3448	847.2334	891.4151	907.252	955.5039	979.5365	992.4202	1031.8475	1052.677	1068.5972	1071.533	1119.9764	1149.1242	1193.1473	1225.1007	1294.5723	1328.0281	1342.9734	1379.4243	1403.5447	1432.4922	1451.9795	1485.5031	1491.796	1494.0726	1794.7285	3013.6658	3042.648	3115.522	3124.266	3130.4186	3133.4845	3211.1161	3229.7112	3507.8755	3820.0498
CC1NC2(CC2)C1=NO	C[C@H]1NC2(CC2)C1=NO	
InChI=1S/C6H10N2O/c1-4-5(8-9)6(7-4)2-3-6/h4,7,9H,2-3H2,1H3	InChI=1S/C6H10N2O/c1-4-5(8-9)6(7-4)2-3-6/h4,7,9H,2-3H2,1H3/t4-/m1/s1
