17
gdb 69627	3.38125	1.21607	1.15711	0.6947	79.93	-0.2066	0.0344	0.241	1119.2143	0.1339	-384.579567	-384.571476	-384.570532	-384.61167	32.739	
O	-0.0535472415	 1.3922599565	 0.0288698248	-0.45294
C	 0.0370557539	 0.0157761731	 0.0189435829	 0.413095
C	-0.9065642288	-0.8067075444	 0.8257245542	-0.339998
C	 0.588659792	-0.9711252465	 1.0351515206	-0.202677
C	 1.3147244519	-1.7485186508	-0.1124775851	 0.170588
C	 0.3877009227	-2.2118144692	-1.221020033	-0.343669
C	 0.7350867457	-0.7572463564	-1.1381520776	-0.195629
C	 2.6550383015	-2.1995680479	 0.0159675857	 0.201077
C	 3.7922410181	-2.5715934685	 0.1559777795	-0.416294
H	 0.8375523373	 1.7557096299	-0.0327999768	 0.287703
H	-1.3693692865	-0.2330434901	 1.6235022689	 0.125783
H	-1.5496913031	-1.5785459911	 0.4165277683	 0.1142
H	 1.0576466269	-0.8061047537	 1.9957753286	 0.099204
H	 0.895390702	-2.7516201536	-2.0143000723	 0.129399
H	-0.6063981313	-2.5865471733	-1.0070751059	 0.121558
H	 1.2843831476	-0.2472071798	-1.9198960954	 0.103542
H	 4.7933468618	-2.9052393741	 0.2706453226	 0.185057
107.771	151.4046	253.2974	317.7951	348.1159	394.8367	450.2174	454.5899	483.6465	509.1913	543.1584	591.5488	625.8746	647.9162	776.5502	811.7632	837.1095	860.6872	919.3699	934.396	973.7178	981.9603	1007.0838	1014.9468	1068.2621	1087.5554	1098.5886	1164.8984	1176.8005	1217.9159	1272.5408	1323.7688	1350.168	1418.0642	1486.8841	1514.4393	2226.504	3122.3308	3138.1475	3192.9209	3202.8861	3210.0911	3217.7027	3504.4874	3783.5127
OC12CC1C1(CC21)C#C	O[C@]12C[C@H]1[C@]1(C[C@@H]21)C#C	
InChI=1S/C8H8O/c1-2-7-3-5(7)8(9)4-6(7)8/h1,5-6,9H,3-4H2	InChI=1S/C8H8O/c1-2-7-3-5(7)8(9)4-6(7)8/h1,5-6,9H,3-4H2/t5-,6+,7+,8+/m1/s1
