16
gdb 23105	2.33152	1.39778	1.01636	1.0359	74.06	-0.2496	-0.0084	0.2412	1171.0795	0.122907	-437.804243	-437.795653	-437.794709	-437.83776	31.763	
O	-0.2059303352	 1.3359673331	 0.2396731035	-0.392654
N	-0.006992454	-0.0545683317	 0.2739581302	-0.207112
C	-1.0777917948	-0.6649424333	-0.0228236491	 0.361089
C	-2.4440617637	-0.0951087794	-0.3293306635	-0.150798
O	-3.2817427158	-1.2191551014	-0.554838139	-0.250188
C	-2.7217034139	-2.3249373975	 0.1356651495	-0.090894
C	-1.1865186911	-2.1849238871	-0.0415060069	-0.278065
C	-0.7156327614	-2.7512031556	-1.3013681882	 0.355934
C	-0.3386950191	-3.2237603056	-2.3397360432	-0.479036
H	 0.6615503772	 1.6750654589	 0.4854490653	 0.311389
H	-2.7920732	 0.5144525175	 0.5197232192	 0.122924
H	-2.4468174207	 0.5400007502	-1.2203517757	 0.142848
H	-2.9696514894	-2.2904272203	 1.208642687	 0.097277
H	-3.1256658314	-3.2396233818	-0.2997365341	 0.129014
H	-0.6367005396	-2.6236293477	 0.7961646479	 0.126661
H	 0.0013630129	-3.6371416582	-3.256858363	 0.201612
73.207	110.982	155.8218	219.442	249.0176	310.0841	375.5207	437.456	447.3111	516.3839	578.0597	632.6725	636.8627	683.6572	762.6566	835.522	864.7969	947.2264	985.3462	988.3289	1034.6884	1087.8735	1107.8744	1191.2942	1215.4577	1224.864	1256.7567	1323.2417	1334.6727	1379.1582	1409.6393	1487.9746	1511.9469	1770.3649	2238.4446	2977.4056	2986.0563	3072.5162	3080.4948	3126.7484	3503.9447	3818.1517
ON=C1COCC1C#C	ON=C1COC[C@H]1C#C	
InChI=1S/C6H7NO2/c1-2-5-3-9-4-6(5)7-8/h1,5,8H,3-4H2	InChI=1S/C6H7NO2/c1-2-5-3-9-4-6(5)7-8/h1,5,8H,3-4H2/t5-/m1/s1
