21
gdb 112889	3.07584	1.10081	0.85745	2.4541	79.74	-0.2219	-0.0213	0.2006	1398.5761	0.181225	-424.253483	-424.243912	-424.242968	-424.288183	35.236	
C	 0.0072833222	 1.515656844	-0.118305903	-0.247746
O	 0.1523255196	 0.1199498319	 0.0885249985	-0.245611
C	 0.5951546556	-0.5940974982	-1.0345831415	 0.03732
C	 1.0966240227	-1.9890042343	-0.6558807806	-0.255854
C	 0.988244347	-2.8058291015	-1.9618827932	 0.022215
C	 1.0763245917	-4.3170269487	-1.7627541312	-0.403841
C	-0.3378302225	-2.3160044848	-2.5773945333	-0.32695
C	-0.5058550747	-0.878067004	-2.0861090024	 0.377741
O	-1.3621797953	-0.1017899966	-2.4260855858	-0.314744
H	 0.9592935941	 1.96767854	-0.4396444308	 0.098769
H	-0.761782001	 1.7379364642	-0.8640022144	 0.143013
H	-0.2790650483	 1.9464227726	 0.8441661358	 0.123692
H	 1.3970439799	-0.0386971914	-1.5584340416	 0.082036
H	 2.1055857014	-1.9800646895	-0.2369592405	 0.105612
H	 0.4221280641	-2.40059096	 0.1058721605	 0.114023
H	 1.8078716136	-2.4942998139	-2.6242358068	 0.079582
H	 0.2716604178	-4.6716786771	-1.1082790014	 0.117063
H	 0.9922580723	-4.8503266291	-2.7153419451	 0.116649
H	 2.0291099113	-4.6011740786	-1.3035837256	 0.11676
H	-0.3966950831	-2.3778307535	-3.6672736807	 0.127146
H	-1.1850563884	-2.8935055714	-2.1809908471	 0.133124
56.069	101.7144	129.3685	183.4865	235.5331	255.2304	275.2158	301.7125	385.3096	434.8268	470.1944	507.1244	586.8087	624.2294	726.6068	846.9207	892.5359	916.2298	954.697	980.1691	1014.0904	1065.3302	1080.6164	1142.6013	1152.5636	1164.9331	1181.9113	1186.0995	1233.0116	1235.0982	1261.5311	1289.7901	1306.7618	1346.4283	1373.4995	1381.1052	1414.4578	1444.4126	1476.4504	1481.7848	1494.6925	1497.8251	1500.4542	1519.6056	1841.8967	2918.5355	2980.9076	3005.0335	3023.8156	3026.9898	3038.8597	3081.0353	3093.6575	3098.6839	3099.784	3104.316	3125.9118
COC1CC(C)CC1=O	CO[C@H]1C[C@@H](C)CC1=O	
InChI=1S/C7H12O2/c1-5-3-6(8)7(4-5)9-2/h5,7H,3-4H2,1-2H3	InChI=1S/C7H12O2/c1-5-3-6(8)7(4-5)9-2/h5,7H,3-4H2,1-2H3/t5-,7-/m0/s1
