21
gdb 117579	2.22787	0.97301	0.71336	0.9359	84.93	-0.2565	0.0513	0.3078	1602.5957	0.180203	-387.036121	-387.025738	-387.024794	-387.072105	37.731	
O	-0.138546262	 1.4005558022	-0.2346990135	-0.421894
C	 0.0148571837	 0.0047226621	-0.0194421403	-0.086323
C	-1.3764195001	-0.6145106254	-0.0211576334	-0.170606
C	-1.3738136917	-2.1503472018	 0.1461096143	-0.207449
C	-0.7747647845	-2.5576231375	 1.4198832951	 0.351253
C	-0.3043273953	-2.885117532	 2.4771466545	-0.478928
C	-2.7821661542	-2.7203103444	 0.0068491539	 0.040894
C	-3.354005942	-2.9901151473	-1.360727652	-0.278248
C	-2.9913952878	-4.1380112794	-0.4487245719	-0.270877
H	 0.7274151096	 1.8113999916	-0.1597504054	 0.285432
H	 0.627062123	-0.4549489879	-0.8140786122	 0.079655
H	 0.5129793822	-0.2026112594	 0.9385345821	 0.10183
H	-1.9679912632	-0.1587691441	 0.7804557099	 0.111478
H	-1.8712398194	-0.3701800215	-0.967108721	 0.11016
H	-0.763567137	-2.5772603423	-0.6641921026	 0.096368
H	 0.1166613033	-3.1822001727	 3.405550479	 0.193445
H	-3.4746520032	-2.3488532905	 0.7571406219	 0.091684
H	-4.4024906832	-2.7744576959	-1.5332295271	 0.113461
H	-2.7189493628	-2.8092102636	-2.2224876554	 0.110893
H	-2.112134866	-4.7235508077	-0.6971689231	 0.114224
H	-3.7909169397	-4.7128311424	 0.0048220071	 0.113548
68.265	88.9694	94.3782	129.1803	139.9341	213.1047	255.0339	298.9505	310.934	390.8255	429.8303	508.9055	589.2332	627.8347	631.3678	767.7286	791.4803	830.5509	859.9453	890.6531	940.7517	976.224	1024.7572	1059.7316	1064.825	1079.5849	1087.7977	1105.1097	1138.474	1161.716	1196.3798	1219.087	1227.1275	1248.7969	1286.4022	1309.5633	1333.4325	1349.3343	1408.5716	1463.4958	1472.1493	1489.9831	1507.538	1529.4958	2230.3042	2956.2821	2989.8295	3013.9017	3045.1793	3092.4413	3128.7748	3134.1117	3146.7078	3206.878	3222.1652	3504.0715	3832.0142
OCCC(C#C)C1CC1	OCC[C@@H](C#C)C1CC1	
InChI=1S/C8H12O/c1-2-7(5-6-9)8-3-4-8/h1,7-9H,3-6H2	InChI=1S/C8H12O/c1-2-7(5-6-9)8-3-4-8/h1,7-9H,3-6H2/t7-/m1/s1
