15
gdb 32043	2.93364	1.39269	0.95014	5.1509	74.49	-0.2137	-0.0468	0.1669	1163.9774	0.113767	-453.990133	-453.982357	-453.981412	-454.022804	28.722	
C	 0.0397931039	 1.4245658237	 0.0081570304	-0.275951
O	 0.0093203656	 0.0018557359	 0.0054382056	-0.244278
C	-1.1701708557	-0.6388130372	 0.0118416481	 0.482596
C	-1.2190361866	-2.0110118923	 0.0084210206	-0.152021
N	-2.4063137274	-2.6651924787	 0.0148631036	-0.21113
C	-3.5296283981	-2.0038387432	 0.0245208944	-0.115226
C	-3.6247396143	-0.5529755925	 0.0294848522	 0.36976
O	-4.6241783893	 0.1412804427	 0.03792143	-0.386925
N	-2.3409989857	 0.0518669215	 0.0219812918	-0.43111
H	 1.0949939573	 1.6963917166	 0.0011577532	 0.162505
H	-0.4414371027	 1.8399688441	-0.8857208156	 0.143373
H	-0.4285352296	 1.836259532	 0.9105673304	 0.143354
H	-0.3038618755	-2.5875594841	 0.000410915	 0.122155
H	-4.4659776802	-2.5537743027	 0.029352824	 0.127855
H	-2.3618980617	 1.0619871643	 0.0249720565	 0.265044
75.193	168.1353	195.7638	216.5759	249.2641	421.3993	461.0188	493.5498	527.3096	586.418	627.1612	704.4191	713.9183	765.6219	827.0023	907.2797	945.0484	1025.4269	1063.2058	1146.9376	1171.4523	1199.0491	1207.9958	1282.3016	1338.5338	1411.4567	1472.0015	1485.2964	1499.2776	1505.554	1568.7868	1631.6277	1786.0153	3013.8728	3080.6513	3154.9877	3177.97	3218.6755	3611.6089
COC1=CN=CC(=O)N1	COc1cncc(=O)[nH]1	
InChI=1S/C5H6N2O2/c1-9-5-3-6-2-4(8)7-5/h2-3H,1H3,(H,7,8)	InChI=1S/C5H6N2O2/c1-9-5-3-6-2-4(8)7-5/h2-3H,1H3,(H,7,8)
