21
gdb 115387	3.30692	1.09009	0.96904	1.8558	74.81	-0.2472	0.084	0.3311	1312.9369	0.18269	-461.372802	-461.363683	-461.362739	-461.406657	34.514	
C	-0.0224941177	 1.4822687478	 0.0520012942	-0.385509
C	 0.0237357545	-0.0447523664	-0.0272525397	-0.207241
C	 0.7494951854	-0.5510488735	-1.2602883553	 0.222264
O	 2.0938881452	-0.1232214111	-1.2040913973	-0.263089
C	 2.8327162273	-0.550892909	-2.3453069276	-0.108868
C	 2.7816513598	-2.0798637074	-2.441463606	 0.126991
O	 3.4894106158	-2.6771520508	-1.3702280756	-0.438075
C	 1.3096162399	-2.5075897024	-2.4298013655	-0.113007
O	 0.6638810916	-1.9592270604	-1.2836151233	-0.263758
H	 0.9868895125	 1.9006261992	 0.0639956116	 0.135848
H	-0.5537851477	 1.9097373132	-0.805707196	 0.112768
H	-0.5406778922	 1.807374465	 0.9584871041	 0.115307
H	 0.5310790221	-0.4628985905	 0.8490001233	 0.111278
H	-0.9862398156	-0.4666748827	-0.0459817554	 0.109822
H	 0.2914330806	-0.1523700129	-2.1882532288	 0.054923
H	 2.4262775141	-0.0895496094	-3.2603862705	 0.08812
H	 3.8599673813	-0.2090515736	-2.2006308065	 0.119647
H	 3.26580887	-2.4165048058	-3.3648528204	 0.086855
H	 3.0534132863	-2.3765906821	-0.5633725181	 0.28833
H	 0.8015733431	-2.1773801783	-3.3509504255	 0.087636
H	 1.2260515636	-3.5935069289	-2.3476456719	 0.119757
77.9055	114.5	181.3018	192.1243	205.7453	269.7021	358.2494	379.9527	398.0077	424.5239	514.062	533.3075	598.2687	767.3819	818.419	835.3329	891.4124	896.054	936.7205	979.5097	1003.28	1018.2933	1067.3378	1096.3339	1103.6923	1131.2776	1172.4565	1187.4735	1253.0253	1256.8674	1291.3538	1324.5508	1330.9959	1344.5058	1367.8442	1401.2191	1404.577	1412.0522	1427.5934	1435.5713	1477.8657	1483.1274	1491.571	1497.5567	1510.7424	2899.0617	2969.5586	2980.2254	3039.3698	3049.9619	3060.604	3088.6172	3106.6346	3107.2732	3108.1325	3128.3518	3790.2125
CCC1OCC(O)CO1	CC[C@H]1OC[C@@H](O)CO1	
InChI=1S/C6H12O3/c1-2-6-8-3-5(7)4-9-6/h5-7H,2-4H2,1H3	InChI=1S/C6H12O3/c1-2-6-8-3-5(7)4-9-6/h5-7H,2-4H2,1H3/t5-,6+
