20
gdb 58621	2.26761	1.43983	1.16435	5.1553	75.02	-0.2347	0.0222	0.2569	1161.7101	0.169777	-440.297489	-440.287982	-440.287038	-440.332757	35.273	
C	-1.392326869	-0.9005043326	 0.1909172479	-0.335455
N	-0.1325912796	-0.2109586639	-0.063457649	-0.15876
H	-0.1955414872	 1.3135696864	-1.1998544065	 0.29336
C	 0.5970760742	 0.1051824222	 1.1615469078	-0.336191
C	 0.6825381962	-0.7237596678	-1.1535027003	 0.140264
C	 1.8333620072	-1.6955634677	-0.9349798095	-0.279209
C	 0.6023885446	-2.1637192627	-1.6359589295	-0.283399
C	 0.914021301	 0.2923889369	-2.2575731002	 0.427097
O	 0.2767862469	 1.4519095414	-2.0515405831	-0.383237
O	 1.5979936522	 0.0783697506	-3.2261174241	-0.36305
H	-1.9331783258	-1.046208672	-0.7465713545	 0.137817
H	-1.2627470679	-1.883222441	 0.6749867082	 0.108857
H	-2.0102005315	-0.2852030215	 0.8523879166	 0.12622
H	 0.9043023394	-0.7899389598	 1.7270513076	 0.110174
H	 1.4927650888	 0.682232658	 0.9199400818	 0.138405
H	-0.0379413562	 0.7118584227	 1.8146173361	 0.125562
H	 2.7226331025	-1.5151488087	-1.5264643758	 0.146927
H	 2.0024586041	-2.0398603952	 0.0788368147	 0.118401
H	-0.0647280322	-2.8322480606	-1.104698792	 0.120124
H	 0.6470838522	-2.3018056847	-2.7094841663	 0.146094
15.9205	107.2111	199.4809	237.9688	246.6252	253.6674	279.4262	287.3606	365.4192	400.7894	488.9189	506.7117	556.5225	700.3035	760.1176	786.2326	857.1259	860.9443	935.8573	952.8531	970.647	1018.9975	1064.84	1072.3033	1101.855	1123.7052	1173.4332	1186.1036	1207.7671	1245.5644	1251.0708	1278.9066	1343.3997	1424.5857	1442.2669	1450.7039	1473.6627	1482.3062	1482.847	1501.7839	1503.8599	1520.8052	1853.4444	2963.2126	2972.0219	3070.8517	3072.5649	3121.6331	3125.3689	3144.7186	3146.4906	3233.2891	3246.292	3452.8681
C[NH+](C)C1(CC1)C([O-])=O	CN(C)C1(CC1)C(=O)O	
InChI=1S/C6H11NO2/c1-7(2)6(3-4-6)5(8)9/h3-4H2,1-2H3,(H,8,9)	InChI=1S/C6H11NO2/c1-7(2)6(3-4-6)5(8)9/h3-4H2,1-2H3,(H,8,9)
