22
gdb 58573	2.68414	1.26944	1.15621	1.3262	81.84	-0.2464	0.0245	0.2708	1208.1557	0.193729	-404.375146	-404.365555	-404.364611	-404.409359	36.293	
C	-1.3818926066	-0.6591467707	-0.1556557882	-0.408415
C	-0.007173433	-0.0070460603	 0.0598226014	 0.011144
C	-0.1231197636	 1.5230095282	 0.0344215957	-0.402284
C	 0.7179738382	-0.5331780379	 1.3287069491	 0.285236
C	-0.0242508584	-0.2105846901	 2.6342042439	-0.430713
C	 1.0355441337	-2.0581943873	 1.2183301159	-0.152804
O	 2.4646098992	-2.1544548272	 1.4294503005	-0.224302
C	 2.8986844038	-0.873426173	 1.4701923057	 0.108033
N	 2.0707748679	 0.080922901	 1.4075279527	-0.292767
H	-2.0982947324	-0.3490810065	 0.6123310917	 0.119256
H	-1.794327219	-0.3582523233	-1.1239399421	 0.116727
H	-1.3355385148	-1.7534594531	-0.1471754385	 0.110911
H	 0.637663439	-0.2998903129	-0.7806125295	 0.072725
H	-0.8269666109	 1.8861441344	 0.7912929603	 0.110202
H	 0.8465209441	 1.989943112	 0.2174602127	 0.140218
H	-0.4941605145	 1.8578013533	-0.9398945836	 0.105598
H	-1.0272179222	-0.648324313	 2.6433891204	 0.113703
H	 0.5292284908	-0.6147507184	 3.4872172473	 0.118784
H	-0.1115588595	 0.8686269908	 2.777202227	 0.13126
H	 0.538892048	-2.6677424801	 1.9770983659	 0.117153
H	 0.8170145338	-2.4701888061	 0.2281487744	 0.111877
H	 3.9748017163	-0.7709180098	 1.5631104571	 0.138459
58.5455	100.7198	207.9393	224.1767	250.7667	253.0224	274.576	316.8454	331.7951	386.2607	447.8447	453.978	577.872	632.8622	783.1728	856.7916	863.0816	926.6851	931.9193	943.9073	959.9472	965.9025	971.5797	973.6357	1061.9626	1106.6843	1125.5999	1162.8635	1186.2651	1208.5523	1216.4784	1275.5018	1324.2619	1347.6938	1369.0656	1376.5592	1397.7698	1407.5278	1421.7994	1484.6666	1489.2699	1489.8942	1504.4659	1508.8692	1513.9962	1515.5782	1707.2703	3002.8512	3031.3883	3036.7101	3042.8696	3048.6328	3093.0422	3097.481	3100.4625	3103.293	3110.2945	3130.4805	3135.1449	3207.9345
CC(C)C1(C)COC=N1	CC(C)[C@@]1(C)COC=N1	
InChI=1S/C7H13NO/c1-6(2)7(3)4-9-5-8-7/h5-6H,4H2,1-3H3	InChI=1S/C7H13NO/c1-6(2)7(3)4-9-5-8-7/h5-6H,4H2,1-3H3/t7-/m1/s1
