23
gdb 75543	2.3079	1.64467	1.09038	0.1639	92.61	-0.2146	0.0341	0.2487	1204.4242	0.207636	-351.17219	-351.163606	-351.162662	-351.204864	34.844	
C	-0.1013933152	 1.5275647021	 0.0186259998	-0.497636
C	-0.0236731252	 0.0215866505	 0.0084403394	 0.271884
C	-0.0136149237	-0.651411157	-1.149641274	-0.156826
C	 0.071007285	-2.1485250274	-1.2847342041	-0.248181
C	 0.4707206844	-2.8273670848	 0.0317310723	-0.209173
C	-0.2914367435	-2.1962480465	 1.2008405809	-0.278682
C	 0.0269995167	-0.711488989	 1.3155163213	 0.3067
C	 1.0741362635	-0.3073342846	 2.3456207989	-0.302136
C	-0.3799404607	-0.0263417608	 2.6041329365	-0.326954
H	 0.7053061489	 1.9803002646	 0.608265557	 0.120727
H	-0.031611504	 1.9254865034	-0.9967872679	 0.118856
H	-1.0445939564	 1.8812326999	 0.4526650022	 0.125255
H	-0.0723220691	-0.0875369204	-2.0788138513	 0.070102
H	-0.898976542	-2.5400963216	-1.6288524928	 0.102375
H	 0.7837152135	-2.4080148509	-2.0783350473	 0.097873
H	 0.2806504625	-3.9047470474	-0.0199778562	 0.086758
H	 1.5478891708	-2.7002636266	 0.1969801234	 0.099404
H	-1.3711611733	-2.3232072248	 1.0399882947	 0.094615
H	-0.0519140686	-2.7029453796	 2.1425757661	 0.084874
H	 1.5569403868	-1.1038043064	 2.9025520482	 0.110059
H	 1.7239459425	 0.5312134807	 2.1211066732	 0.111162
H	-0.713275362	 1.0042457276	 2.5722906028	 0.111017
H	-0.896829041	-0.6331089008	 3.3407372568	 0.107927
86.8314	188.3376	221.7384	263.6151	286.4086	300.6157	361.6336	379.1992	433.4322	483.3463	591.6708	628.8118	652.9884	782.3021	813.5147	823.1895	857.8689	872.2461	920.8484	935.9813	944.2645	978.0624	999.0675	1041.9416	1057.3124	1066.3096	1076.6919	1097.5981	1099.947	1153.7477	1173.1272	1190.2311	1206.8391	1270.5761	1296.298	1317.1694	1367.2308	1373.3239	1378.1007	1406.7068	1412.2944	1464.9136	1476.2843	1483.9364	1488.5694	1495.0097	1498.6096	1505.9937	1718.7706	2986.5148	3009.0808	3020.1142	3022.7089	3036.5305	3059.7729	3066.734	3072.6971	3111.1629	3129.4589	3134.143	3138.0646	3208.3946	3222.9506
CC1=CCCCC11CC1	CC1=CCCCC21CC2	
InChI=1S/C9H14/c1-8-4-2-3-5-9(8)6-7-9/h4H,2-3,5-7H2,1H3	InChI=1S/C9H14/c1-8-4-2-3-5-9(8)6-7-9/h4H,2-3,5-7H2,1H3
