20
gdb 62945	1.89708	1.86025	1.51878	1.4077	74.26	-0.2331	0.0596	0.2928	1027.5025	0.168753	-440.242471	-440.233268	-440.232323	-440.275274	36.616	
C	-0.4352800595	 1.5186557557	 0.3576797218	-0.475933
C	-0.1406030797	 0.0354351794	 0.2525969388	 0.342746
O	-1.2308214775	-0.7519463028	 0.7278676416	-0.484316
C	 0.2651634857	-0.5316818776	-1.1137964768	-0.086474
N	 1.5395914531	 0.1283113441	-1.4770100807	-0.352342
C	 1.5506990747	-1.0601894152	-0.5893236967	-0.122595
C	 1.2546660382	-0.5461516125	 0.838066217	 0.377419
C	 2.26053942	 0.4056089522	 1.4544635609	-0.439887
O	 1.0171090376	-1.5925580443	 1.7478116562	-0.48854
H	 0.3528372373	 2.0956045277	-0.1294290569	 0.149486
H	-1.3909016086	 1.7504883364	-0.1243001853	 0.119705
H	-0.4928495743	 1.835882743	 1.406359679	 0.110437
H	-1.5139942194	-0.3790068451	 1.5706160432	 0.286605
H	-0.4099460098	-0.9258724005	-1.8638013712	 0.09503
H	 1.7859698848	-0.1865826002	-2.4144114682	 0.234084
H	 2.0954803517	-1.9599269791	-0.8498882759	 0.092524
H	 2.5670742639	 1.1657851531	 0.7340411878	 0.134392
H	 1.8395763904	 0.8945111227	 2.3388400926	 0.109819
H	 3.1445783457	-0.1554692262	 1.7742573646	 0.120985
H	 0.1394417358	-1.9386060309	 1.5273332683	 0.276855
135.2573	213.0147	216.8759	236.9589	249.6243	281.0106	296.3671	339.9028	359.1155	407.5249	469.5948	535.5876	560.979	590.8652	639.6258	661.6718	835.5608	845.5167	862.1026	876.7232	935.529	953.0887	971.8374	1022.0369	1074.9609	1085.1624	1103.9021	1119.0417	1146.8194	1172.6603	1200.8369	1237.6221	1265.2296	1311.8615	1359.7372	1384.6126	1403.6702	1408.752	1429.2338	1478.1942	1488.482	1494.3542	1504.0909	3026.0932	3040.8198	3089.833	3102.9821	3136.837	3142.1998	3181.3196	3194.9728	3480.7301	3712.3344	3800.3246
CC1(O)C2NC2C1(C)O	C[C@@]1(O)[C@H]2N[C@H]2[C@]1(C)O	
InChI=1S/C6H11NO2/c1-5(8)3-4(7-3)6(5,2)9/h3-4,7-9H,1-2H3	InChI=1S/C6H11NO2/c1-5(8)3-4(7-3)6(5,2)9/h3-4,7-9H,1-2H3/t3-,4+,5+,6-
