17
gdb 84957	2.23649	1.65195	1.13739	3.0861	68.4	-0.2421	-0.0982	0.1439	1084.6716	0.134366	-458.99868	-458.989991	-458.989047	-459.032033	32.294	
C	 0.7188763665	 1.4444842828	-0.1467130064	-0.396301
C	-0.0404624887	 0.1284609237	 0.0466634922	-0.061608
C	 0.1946435739	-0.8662245765	-1.1208915377	-0.349784
C	 1.4900330663	-1.5943315351	-0.7790001316	 0.335681
O	 2.2111630506	-2.2291323837	-1.4983238015	-0.276286
C	 1.7356545348	-1.3354208837	 0.732571264	 0.270629
O	 2.7484365113	-1.5293071632	 1.353626184	-0.30299
C	 0.4892310974	-0.663415078	 1.2731760933	 0.051176
O	 0.7280581565	 0.0899102027	 2.4246417528	-0.43583
H	 1.7872284323	 1.2733732753	-0.3293634003	 0.122958
H	 0.3220901927	 1.9964538373	-1.0038156386	 0.120622
H	 0.6336278131	 2.0681402189	 0.7451034213	 0.145386
H	-1.1054723609	 0.3411239941	 0.1689869289	 0.093248
H	-0.6063075444	-1.615865585	-1.1740233072	 0.14043
H	 0.2537649408	-0.3909321392	-2.1029022741	 0.142468
H	-0.2349812346	-1.4768726439	 1.4784261378	 0.102769
H	 1.5920977925	-0.1925551664	 2.759634763	 0.29743
76.7564	109.7709	209.9882	235.0407	251.8563	306.9173	341.3903	363.7338	402.3759	497.6684	520.2267	577.665	640.5598	692.9196	766.3609	854.802	895.6951	944.4235	1006.269	1033.2535	1040.695	1083.8882	1125.6765	1191.0938	1203.7939	1217.5467	1264.0109	1316.3091	1356.492	1377.6763	1409.1722	1419.5563	1444.0747	1492.2863	1500.0917	1838.2922	1859.1449	2910.8443	3029.4557	3032.0054	3071.6669	3099.6311	3108.47	3137.7193	3722.5843
CC1CC(=O)C(=O)C1O	C[C@H]1CC(=O)C(=O)[C@H]1O	
InChI=1S/C6H8O3/c1-3-2-4(7)6(9)5(3)8/h3,5,8H,2H2,1H3	InChI=1S/C6H8O3/c1-3-2-4(7)6(9)5(3)8/h3,5,8H,2H2,1H3/t3-,5-/m0/s1
