21
gdb 86404	2.54456	1.39608	1.17915	1.6619	77.53	-0.2544	0.0693	0.3236	1148.7191	0.182327	-424.221005	-424.212104	-424.21116	-424.254917	34.553	
C	 0.3597552352	 1.5051765188	-0.2663454606	-0.405262
C	 0.0325845788	 0.0311881581	 0.0182137879	-0.054337
C	 0.5371598189	-0.926745951	-1.0837017847	-0.261827
C	 2.0147258952	-1.2089826231	-0.7348778777	 0.117211
O	 2.8963770076	-0.192021301	-1.2157155729	-0.43233
C	 2.0673829949	-1.1624255642	 0.8056590747	-0.291728
C	 0.7570290981	-0.509611727	 1.2534009846	 0.442578
C	 0.510427213	-0.0315498387	 2.6155782719	-0.258159
O	-0.0395374839	-1.2759890174	 2.1745076195	-0.285775
H	 1.4324438347	 1.6496256895	-0.4149873279	 0.139175
H	-0.1530237202	 1.8413485639	-1.174213201	 0.106766
H	 0.0321406897	 2.1474542704	 0.557316555	 0.108854
H	-1.0451650337	-0.0754241861	 0.1729668428	 0.080193
H	-0.0232012856	-1.8679823922	-1.0385400456	 0.10727
H	 0.4229703368	-0.5261393795	-2.0970474636	 0.083529
H	 2.3369853786	-2.1855862172	-1.1210309956	 0.067131
H	 2.8082922277	-0.1547346325	-2.1737554425	 0.279807
H	 2.1313180289	-2.16189873	 1.243133286	 0.117583
H	 2.9502785819	-0.5985392692	 1.1169558884	 0.122247
H	 1.2979589348	-0.1061894824	 3.365552279	 0.108981
H	-0.2137354915	 0.7638986209	 2.7922695624	 0.10809
29.5013	158.3011	210.5223	244.1138	284.4378	318.5914	337.6237	351.2455	402.3899	425.9916	494.4023	550.7793	750.502	751.9718	799.6724	812.0929	858.7257	900.4329	931.6085	958.9503	965.3324	999.7755	1034.8498	1053.297	1087.3419	1125.3464	1133.172	1159.5	1187.0269	1203.0746	1239.695	1260.7468	1269.1031	1289.772	1324.8349	1349.5896	1370.0761	1409.6199	1420.7943	1425.9443	1464.4605	1479.8249	1498.8738	1512.7608	1534.377	3000.7604	3033.3118	3036.0002	3063.4985	3068.6818	3071.5457	3077.1877	3096.52	3116.2928	3130.5126	3153.4818	3813.6455
CC1CC(O)CC11CO1	C[C@H]1C[C@@H](O)C[C@]21CO2	
InChI=1S/C7H12O2/c1-5-2-6(8)3-7(5)4-9-7/h5-6,8H,2-4H2,1H3	InChI=1S/C7H12O2/c1-5-2-6(8)3-7(5)4-9-7/h5-6,8H,2-4H2,1H3/t5-,6+,7+/m0/s1
