16
gdb 42594	3.21621	1.98968	1.79033	3.5017	69.56	-0.2371	-0.0236	0.2135	812.1681	0.12782	-400.724069	-400.718344	-400.7174	-400.754001	24.388	
O	 0.0362163218	 0.0108224454	-0.0527574547	-0.324243
C	-0.0050020864	 1.2050479168	 0.0002994937	 0.467397
C	-1.1837519824	 2.1831588958	 0.0299902524	-0.117157
C	-0.6817446136	 3.3504663312	 0.9647115209	-0.076327
C	 0.7380306165	 2.9229520033	 1.3965744803	-0.234152
C	 1.1190045499	 2.2644102165	 0.0420033314	-0.178265
C	 0.5689077576	 3.2698710185	-0.9889297113	-0.048935
C	-0.444667782	 4.1364765615	-0.3388345479	-0.033016
N	-0.9217331366	 3.0200594785	-1.2068566717	-0.157875
H	-2.1922374481	 1.7873636224	 0.100637671	 0.09632
H	-1.3578067256	 3.745343792	 1.7186953147	 0.085042
H	 1.3679612736	 3.781724883	 1.6466157952	 0.110204
H	 0.7525125315	 2.2093384283	 2.2282515293	 0.113588
H	 2.1341176703	 1.9052909731	-0.0998496532	 0.089471
H	 1.1139673693	 3.5587782714	-1.8771706545	 0.109179
H	-0.6396163057	 5.1784857223	-0.5655144057	 0.098769
143.9368	364.9132	430.6268	541.6503	557.2456	646.2157	717.7466	742.3134	771.6017	800.0709	837.3658	850.0147	859.9223	897.4954	918.9785	940.0663	960.8299	974.4662	989.0143	1032.4995	1061.1499	1113.1539	1125.202	1154.0818	1175.7375	1189.0955	1211.2743	1238.2025	1254.1802	1266.7121	1267.5057	1327.2007	1354.0274	1487.6481	1885.7437	3041.8638	3098.5029	3150.8391	3167.7644	3170.3872	3176.8392	3212.5871
O=C1C2C3CC1C1C3N21	O=C1[C@H]2[C@H]3C[C@@H]1[C@@H]1[C@H]3N21	
InChI=1S/C7H7NO/c9-7-3-1-2-4-5(3)8(4)6(2)7/h2-6H,1H2	InChI=1S/C7H7NO/c9-7-3-1-2-4-5(3)8(4)6(2)7/h2-6H,1H2/t2-,3+,4-,5+,6+,8?/m0/s1
