21
gdb 78615	3.13695	1.46834	1.20932	1.3702	83.68	-0.2054	0.0845	0.29	1120.0928	0.180667	-383.148824	-383.13996	-383.139016	-383.181623	34.489	
C	-0.8357261343	 1.4282550208	-0.4489225073	-0.330205
N	-0.5316358168	 0.0333703025	-0.1541042455	-0.108596
C	-1.2126397875	-0.5935962976	 1.0134263568	-0.090569
C	-0.0604842173	-1.6137730588	 1.1898948774	-0.018551
C	 0.591252633	-0.2484781176	 0.784030322	-0.102508
C	-0.2527267918	-0.0208982366	 2.1303482871	 0.349208
C	-0.3752250008	 1.1406116173	 3.0764189627	-0.536336
N	-0.0121482524	-1.4056685679	 2.6585694964	-0.1445
C	 1.2903321528	-1.6273784534	 3.2792505473	-0.329016
H	-0.1011242848	 1.8078402682	-1.1672700905	 0.119308
H	-1.8209529309	 1.4846948583	-0.9241577764	 0.120214
H	-0.8394178482	 2.1037120089	 0.4205339536	 0.097511
H	-2.2863901156	-0.7765326775	 1.0717960237	 0.083788
H	 0.0529079084	-2.5813520224	 0.7014525353	 0.08574
H	 1.6266897108	-0.001663462	 0.5427651083	 0.079975
H	-0.617511454	 2.0707897894	 2.5588196907	 0.132831
H	-1.1619741709	 0.9378768241	 3.8110958959	 0.134244
H	 0.5624263617	 1.2950559099	 3.6223975867	 0.125692
H	 1.2871970192	-1.2135358545	 4.2929526969	 0.118225
H	 1.4695145959	-2.704371331	 3.3639723391	 0.119855
H	 2.1391631334	-1.1832209602	 2.7303940797	 0.093691
153.9271	174.9244	183.6613	204.6107	218.5548	238.1245	298.1539	323.4478	382.6613	538.8096	575.148	641.3526	714.6222	747.9451	787.2173	817.5249	823.647	843.9125	906.1896	938.7766	1000.069	1071.7841	1091.5418	1102.2467	1111.4607	1135.6967	1146.3544	1153.7169	1165.7188	1177.6069	1179.99	1207.2033	1219.7549	1281.8146	1296.837	1355.0305	1404.9379	1445.745	1447.705	1478.8865	1482.5215	1492.6566	1496.4781	1497.3038	1499.4713	2954.1022	2984.8337	3033.7659	3061.5542	3061.8688	3094.0136	3094.3938	3097.1814	3097.5045	3109.8718	3127.5977	3131.2932
CN1C2C3C1C2(C)N3C	CN1[C@H]2[C@H]3[C@@H]1[C@]2(C)N3C	
InChI=1S/C7H12N2/c1-7-5-4(9(7)3)6(7)8(5)2/h4-6H,1-3H3	InChI=1S/C7H12N2/c1-7-5-4(9(7)3)6(7)8(5)2/h4-6H,1-3H3/t4-,5-,6+,7+
