17
gdb 12948	2.67454	2.12203	1.66302	2.329	69.28	-0.2372	-0.0208	0.2164	873.6979	0.140783	-363.844019	-363.835939	-363.834995	-363.876278	29.794	
C	-0.0582391803	 1.5630046527	-0.0086215331	-0.432844
C	 0.0819457677	 0.0588897876	 0.1017744207	-0.016334
N	 1.2680807817	-0.7213505787	-0.2710802708	-0.172989
C	 2.4697779331	 0.0962517342	 0.1178714644	-0.291814
C	 2.0287226098	 0.0272037668	 1.590140882	 0.354079
O	 2.5743595568	 0.2119213107	 2.6412709867	-0.308469
C	 0.7693538059	-0.6942299478	 1.1983632691	 0.181724
C	 0.1738431318	-1.8526513313	 1.9403689737	-0.496143
H	 0.7597772084	 2.1173805906	 0.4540166774	 0.135688
H	-0.1267383713	 1.8624563051	-1.0601733443	 0.132201
H	-0.9841481408	 1.8746953372	 0.4848224045	 0.132844
H	-0.8115829073	-0.4638659707	-0.2396194832	 0.104368
H	 3.3857646677	-0.4794800604	-0.0415737565	 0.141258
H	 2.5627724243	 1.0664615612	-0.3749516392	 0.127319
H	-0.3865837341	-1.4975553906	 2.81178828	 0.138511
H	-0.5115269985	-2.4126251141	 1.2983648544	 0.133758
H	 0.9517146352	-2.5341034324	 2.2976815443	 0.136845
107.021	130.3833	164.2529	218.3933	238.5892	321.2786	375.4459	471.9751	527.3393	585.7064	631.8822	671.8432	727.1451	837.5396	850.9046	943.4816	980.7691	1033.605	1042.1357	1076.1191	1110.2422	1113.9227	1155.3057	1181.4231	1246.2216	1300.2575	1327.0801	1409.3962	1411.6754	1443.5541	1471.1334	1480.1535	1489.7259	1496.9969	1501.9548	1880.3403	3038.7635	3041.7347	3067.8657	3101.8454	3104.6793	3106.2301	3120.1126	3122.4449	3137.5472
CC1N2CC(=O)C12C	C[C@H]1N2CC(=O)[C@@]12C	
InChI=1S/C6H9NO/c1-4-6(2)5(8)3-7(4)6/h4H,3H2,1-2H3	InChI=1S/C6H9NO/c1-4-6(2)5(8)3-7(4)6/h4H,3H2,1-2H3/t4-,6-,7?/m1/s1
