14
gdb 51452	3.42237	1.08963	0.91498	3.7662	64.26	-0.2669	-0.0394	0.2275	1217.639	0.099593	-473.808677	-473.8008	-473.799855	-473.842425	27.65	
O	-0.0661093745	-0.0378679576	 0.0602185304	-0.257495
C	-0.0322081349	 1.1513153148	 0.0703887684	 0.177912
O	 1.1209881621	 1.8465187409	-0.0970628529	-0.191297
C	 1.0621245075	 3.2569361391	-0.0964970107	-0.003566
C	 2.1725592374	 3.9978354803	 0.6297349029	-0.055752
C	 3.4633940156	 3.8160911647	-0.0437789886	-0.243738
N	 2.5157941101	 4.8185883634	-0.630256676	-0.175279
C	 1.558713259	 4.0083812259	-1.3643092704	 0.36871
O	 1.2497561692	 4.0355536109	-2.5097227557	-0.275797
H	-0.9086375315	 1.8111297424	 0.21869	 0.090257
H	 0.0626540064	 3.6131062316	 0.1830581813	 0.12726
H	 2.0645549361	 4.4992524543	 1.5828186619	 0.127085
H	 4.3354846386	 4.2891073097	 0.3934194485	 0.152834
H	 3.664338539	 2.9037856497	-0.5977672691	 0.158867
40.7739	106.6818	142.8504	200.248	253.524	326.7359	455.0999	516.6203	606.193	662.1325	749.1499	761.1638	850.4497	869.0983	983.4223	1011.7205	1025.659	1037.9008	1061.9945	1114.68	1121.3216	1142.262	1165.0884	1206.393	1247.9809	1361.2796	1373.7865	1437.9011	1506.8608	1880.9844	1934.6529	2957.231	3040.8172	3130.778	3206.8034	3226.1823
O=COC1C2CN2C1=O	O=CO[C@H]1[C@H]2CN2C1=O	
InChI=1S/C5H5NO3/c7-2-9-4-3-1-6(3)5(4)8/h2-4H,1H2	InChI=1S/C5H5NO3/c7-2-9-4-3-1-6(3)5(4)8/h2-4H,1H2/t3-,4+,6?/m1/s1
