21
gdb 73536	2.40381	1.92754	1.54217	1.731	81.67	-0.2301	0.0848	0.3149	987.3298	0.183482	-387.025032	-387.017153	-387.016209	-387.057526	32.003	
C	-0.1412332665	 1.6059528869	-0.1509277484	-0.494148
C	-0.0409606382	 0.0911045353	-0.033754576	 0.339897
C	-1.4119522105	-0.5979452637	 0.1431897186	-0.293012
C	-1.4851886705	-0.99261912	 1.6692288146	-0.190808
C	-0.0596753361	-0.8098867341	 2.3064835859	-0.357898
C	 0.7779691886	-0.604693377	 1.0807892444	 0.41082
C	 2.1177711187	-0.1417537416	 0.4658529458	-0.328277
C	 1.1729374937	-0.673286209	-0.6647482127	-0.017477
O	 0.869239004	-1.820013214	 0.2008145261	-0.352011
H	 0.8278654621	 2.1095166876	-0.1752264182	 0.115174
H	-0.671293186	 1.8734027912	-1.0723285717	 0.121769
H	-0.7171031393	 2.0271702634	 0.6817154802	 0.117945
H	-2.2318575969	 0.0720129931	-0.1295528323	 0.086579
H	-1.494238903	-1.493179083	-0.4721894419	 0.117289
H	-2.2171771397	-0.3775170685	 2.2004253632	 0.097996
H	-1.8129160768	-2.0292620696	 1.7714346829	 0.112696
H	-0.0159976496	 0.0761850324	 2.9482591111	 0.107391
H	 0.2511356858	-1.6727837651	 2.9007977576	 0.11483
H	 2.3802198492	 0.9163949939	 0.505652331	 0.097666
H	 2.9693327173	-0.7922145052	 0.6659445311	 0.108457
H	 1.4199074236	-0.8802551633	-1.7084187711	 0.085124
42.6201	194.1057	199.1608	322.559	336.0385	367.8744	441.4654	520.0232	585.0304	617.1244	678.0179	735.8241	743.2461	766.808	807.6237	851.2721	870.3657	892.9922	946.5769	959.6143	975.2965	1002.0337	1020.2157	1033.0264	1080.6382	1126.2736	1139.3812	1180.2128	1183.6179	1197.1018	1230.0957	1241.4046	1248.4392	1266.0427	1283.1426	1320.7856	1330.1319	1365.9782	1413.9512	1474.5329	1479.2218	1487.2045	1492.6822	1504.0618	1509.3138	3027.3371	3051.3408	3060.4504	3071.9421	3077.2564	3081.1748	3092.7293	3094.8034	3112.1906	3117.1543	3134.5355	3155.2041
CC12CCCC11CC2O1	C[C@]12CCC[C@@]31C[C@H]2O3	
InChI=1S/C8H12O/c1-7-3-2-4-8(7)5-6(7)9-8/h6H,2-5H2,1H3	InChI=1S/C8H12O/c1-7-3-2-4-8(7)5-6(7)9-8/h6H,2-5H2,1H3/t6-,7-,8+/m1/s1
