23
gdb 112864	2.71378	1.12854	0.86	1.1241	89.91	-0.2309	0.0275	0.2584	1446.1003	0.204515	-388.30492	-388.294751	-388.293807	-388.340116	37.481	
C	-0.1744302977	 1.4294647243	 0.0115731689	-0.238071
O	 0.037146627	 0.0387778899	-0.0609026163	-0.248299
C	 0.7414303443	-0.5225740938	 1.0438676582	 0.04061
C	 0.1682986223	-1.9125750992	 1.3801220066	-0.25038
C	 1.3779219722	-2.7839432405	 1.7996096603	-0.012544
C	 1.2757839632	-4.250985801	 1.367022343	-0.395053
C	 2.5352285804	-2.0309729024	 1.1827029164	-0.175678
C	 2.2087088408	-0.8096236915	 0.757382894	 0.313487
C	 3.0993654197	 0.2043678365	 0.1124544746	-0.501533
H	 0.7626530698	 2.0049721711	-0.0162363752	 0.10269
H	-0.7768230283	 1.7088603206	-0.8571886443	 0.124096
H	-0.7220321664	 1.7123416809	 0.9243338204	 0.103745
H	 0.652612739	 0.1667394497	 1.9009536089	 0.062148
H	-0.6258846926	-1.8784168868	 2.1305169791	 0.091446
H	-0.2656315042	-2.3067224956	 0.4546887371	 0.113989
H	 1.4797596578	-2.7654675557	 2.8959348768	 0.074664
H	 1.1864915253	-4.3301306241	 0.278047438	 0.116615
H	 2.1612455684	-4.8181522311	 1.6742144434	 0.109393
H	 0.3997784781	-4.7336209351	 1.8135404492	 0.111599
H	 3.5332202249	-2.4570459863	 1.1245707139	 0.081178
H	 4.1069198312	-0.1897028746	-0.046273605	 0.119632
H	 2.6942565181	 0.5126308189	-0.8581516021	 0.136898
H	 3.1842700768	 1.1124907257	 0.7239745443	 0.119369
67.2629	78.3981	146.9866	167.6629	217.0632	229.5662	238.472	286.2115	293.0286	376.2733	413.9572	455.6057	568.3479	608.7997	616.2687	810.5661	854.9753	872.3676	939.8071	944.2983	980.9983	1002.4525	1036.9297	1054.2861	1065.3453	1113.8822	1137.1088	1153.3675	1181.9721	1189.4838	1215.6408	1238.4371	1275.3896	1297.1733	1315.9251	1339.3082	1365.808	1386.1458	1407.5133	1408.8047	1477.2157	1479.2078	1486.1205	1488.2219	1497.3201	1497.6142	1499.3536	1512.61	1722.133	2948.0782	2975.078	2975.6823	3015.9487	3022.6544	3026.0077	3050.1652	3070.5682	3094.659	3097.0994	3102.2276	3105.4729	3109.6402	3166.5322
COC1CC(C)C=C1C	CO[C@H]1C[C@@H](C)C=C1C	
InChI=1S/C8H14O/c1-6-4-7(2)8(5-6)9-3/h4,6,8H,5H2,1-3H3	InChI=1S/C8H14O/c1-6-4-7(2)8(5-6)9-3/h4,6,8H,5H2,1-3H3/t6-,8-/m0/s1
