23
gdb 107557	2.02253	1.61062	1.24318	0.2701	91.	-0.2162	0.0316	0.2477	1187.4996	0.205797	-351.17078	-351.161484	-351.16054	-351.204347	36.161	
C	 0.7016343706	-0.422802078	 1.3474977452	-0.376611
C	-0.0048580721	-0.0735085351	 0.0310134183	-0.287098
C	 0.8054386956	-0.4228156727	-1.2010163606	 0.29165
C	 0.1197557437	-0.8782274398	-2.4766529191	-0.339162
C	 0.9860862206	-1.846595193	-1.7082669666	-0.078008
C	 2.4411455447	-2.0151459299	-2.1393984788	-0.27413
C	 3.0075481852	-0.6198194848	-1.9915232991	-0.183237
C	 2.1337353102	 0.2424715661	-1.4603533208	 0.274819
C	 2.3545153089	 1.701172071	-1.2007302981	-0.504947
H	 0.9036158885	-1.4972516238	 1.4081639688	 0.116057
H	 1.6619715041	 0.095193012	 1.4362371038	 0.120086
H	 0.0893934434	-0.1445172381	 2.2110426598	 0.108446
H	-0.9652616317	-0.600735122	-0.0164085928	 0.092877
H	-0.2512560278	 0.9969148236	 0.0177892197	 0.094624
H	-0.9527102002	-1.0461473267	-2.4359262185	 0.101535
H	 0.4793433497	-0.4855790292	-3.4229839068	 0.105321
H	 0.489381934	-2.6709772369	-1.2084411692	 0.078779
H	 2.9688743822	-2.7367812374	-1.5001711609	 0.101582
H	 2.5334949578	-2.3921896153	-3.1668915064	 0.103552
H	 4.0074844934	-0.358087391	-2.3223622404	 0.080928
H	 3.366273697	 2.0066774375	-1.4806262751	 0.121284
H	 1.6430570691	 2.3155607219	-1.7675543401	 0.12553
H	 2.207293793	 1.9535873416	-0.1434882224	 0.126125
97.4196	132.0833	172.1469	190.5195	202.6463	264.7427	284.9984	361.4719	388.6378	445.0469	547.2044	609.7479	634.0809	733.0972	770.4909	813.5046	826.2438	843.5111	901.3801	927.9184	954.3772	998.954	1005.4459	1027.6805	1042.5014	1064.3516	1065.9419	1086.4918	1097.373	1117.5514	1156.2586	1191.4666	1239.9808	1272.3955	1295.4601	1315.4442	1353.5957	1372.403	1397.7931	1406.2453	1413.5379	1473.6316	1477.2684	1482.1481	1485.6248	1492.9811	1494.3215	1505.8287	1706.1535	3005.1575	3013.6686	3018.2894	3031.3615	3034.3893	3049.9281	3063.3255	3103.4743	3104.6281	3109.8989	3112.6073	3165.6506	3181.8367	3200.1517
CCC12CC1CC=C2C	CC[C@]12C[C@H]1CC=C2C	
InChI=1S/C9H14/c1-3-9-6-8(9)5-4-7(9)2/h4,8H,3,5-6H2,1-2H3	InChI=1S/C9H14/c1-3-9-6-8(9)5-4-7(9)2/h4,8H,3,5-6H2,1-2H3/t8-,9-/m1/s1
