21
gdb 82900	3.00871	1.80198	1.54926	1.568	80.02	-0.2397	0.0921	0.3317	957.0972	0.187292	-387.08517	-387.078557	-387.077613	-387.115759	28.844	
C	-0.2097490631	 1.5694158052	 0.0392725306	-0.446445
C	 0.0471526173	 0.0614527379	-0.0144479305	 0.086333
C	 0.9923928404	-0.5036561304	-1.112432856	-0.090754
C	 2.2870888998	 0.251273373	-0.7481563864	-0.200885
C	 2.3914996429	-0.4911301536	 0.5964872499	 0.070807
O	 2.6459136546	-1.8025452647	 0.0597842616	-0.265234
C	 1.3413032826	-1.9736511425	-0.5217394307	 0.069319
C	 0.5514272881	-2.0668319024	 0.7990045592	-0.205886
C	 0.8668282953	-0.592362888	 1.1361055501	-0.084138
H	 0.6604325426	 2.1541904424	 0.3457819614	 0.120726
H	-0.5424410753	 1.9492327223	-0.9335652979	 0.114827
H	-1.0047294132	 1.7811869011	 0.7623612782	 0.113361
H	-0.9338080081	-0.4194162427	-0.0753953036	 0.065757
H	 0.648071692	-0.4712137345	-2.1458457611	 0.059192
H	 3.1540184758	 0.0105787757	-1.3646304452	 0.102129
H	 2.1590620252	 1.3323475111	-0.7161897098	 0.092197
H	 3.1618207874	-0.2135545819	 1.3139947805	 0.07353
H	 1.3371442979	-2.8109966695	-1.2177059561	 0.073865
H	-0.5212037457	-2.2579937088	 0.7266379998	 0.089658
H	 1.0145473482	-2.8131938116	 1.4457819117	 0.100793
H	 0.6917121853	-0.2434815782	 2.1533383143	 0.060844
169.8925	222.0565	304.6102	418.7737	495.0943	522.3366	612.295	624.2161	667.216	748.0731	778.0488	804.5965	856.3043	873.4778	893.6584	919.6258	933.8831	939.0771	956.4045	961.3508	991.5974	1020.1621	1037.7826	1064.9015	1086.7882	1096.5091	1106.5174	1158.1089	1168.8406	1197.9175	1209.0832	1237.0649	1251.3679	1265.3103	1277.8613	1287.4371	1310.6587	1320.8206	1337.51	1407.1916	1413.858	1489.8698	1495.8065	1507.6141	1524.0036	3032.5977	3046.419	3076.7892	3090.8771	3092.119	3116.2416	3117.7924	3119.974	3130.575	3134.6315	3139.6711	3148.2753
CC1C2CC3OC2CC13	C[C@H]1[C@H]2C[C@@H]3O[C@H]2C[C@H]13	
InChI=1S/C8H12O/c1-4-5-2-7-6(4)3-8(5)9-7/h4-8H,2-3H2,1H3	InChI=1S/C8H12O/c1-4-5-2-7-6(4)3-8(5)9-7/h4-8H,2-3H2,1H3/t5-,6-,7+,8+/m1/s1
