17
gdb 49996	3.48141	1.09139	1.02152	4.9287	75.03	-0.2402	-0.022	0.2181	1201.1618	0.135788	-417.933188	-417.925367	-417.924423	-417.965907	29.828	
O	-0.3699799258	 0.6497551565	 0.8505134058	-0.262392
C	 0.1990948988	 0.9685177304	-0.1632309323	 0.187726
C	 1.39817856	 1.8460741744	-0.2074599299	-0.197705
N	 2.2557198215	 1.6685996511	-1.4146775117	-0.390813
C	 1.5244140291	 2.9021469884	-1.2570380023	 0.386991
C	 0.53815944	 3.4313250185	-2.3299955765	-0.302271
C	 1.181649214	 4.8142143751	-2.1372742169	-0.039216
N	 0.9784549495	 5.1708523876	-0.714808643	-0.324887
C	 2.1144298024	 4.2897841613	-1.0976802051	-0.163283
H	-0.1382392456	 0.6246667067	-1.1663657344	 0.080398
H	 1.8616693152	 2.0439663876	 0.7555887415	 0.105355
H	 3.2343016878	 1.7801624753	-1.1583225885	 0.24135
H	 0.7472404346	 2.9821691229	-3.3032235439	 0.122186
H	-0.5290309453	 3.3780428652	-2.1047649721	 0.120486
H	 1.3469649705	 5.5751266288	-2.8889674422	 0.103646
H	 1.3657392109	 6.1052246302	-0.5789309661	 0.233104
H	 3.1392430926	 4.5530052797	-0.8620365224	 0.099325
78.054	126.2074	173.6262	234.1366	362.4354	376.0659	431.4496	487.9822	499.2954	592.9763	756.9513	818.6498	823.6136	844.9991	902.5467	933.1951	948.7809	970.8883	974.9672	1008.288	1047.1137	1059.385	1067.8594	1106.3972	1119.6765	1162.7947	1195.5885	1210.8507	1236.6067	1299.7726	1307.4177	1323.679	1366.1866	1404.7963	1458.6419	1477.2294	1823.4588	2890.1007	3071.7506	3134.1865	3153.5884	3179.9856	3202.6182	3465.3006	3493.9996
O=CC1NC11CC2NC12	O=C[C@H]1N[C@]21C[C@H]1N[C@@H]21	
InChI=1S/C6H8N2O/c9-2-4-6(8-4)1-3-5(6)7-3/h2-5,7-8H,1H2	InChI=1S/C6H8N2O/c9-2-4-6(8-4)1-3-5(6)7-3/h2-5,7-8H,1H2/t3-,4-,5-,6+/m1/s1
