13
gdb 130136	2.37844	1.85607	1.04595	5.4221	62.15	-0.2298	-0.04	0.1898	1033.0992	0.090255	-486.115637	-486.107635	-486.106691	-486.148379	28.659	
N	 0.0521684034	 1.3712632606	 0.0943890084	-0.588474
C	 0.0031621431	-0.0099171355	 0.0336570168	 0.453687
N	-1.0729447849	-0.7185899509	 0.1177334803	-0.28468
N	-0.6208710384	-2.0303838259	 0.1331133641	-0.322305
C	 0.7331289357	-2.1736162515	-0.0130699028	 0.488151
O	 1.4068749523	-3.1654919407	-0.0828818893	-0.374486
N	 1.1564700825	-0.7909802287	-0.0462906007	-0.220231
C	 2.4747798449	-0.3191943981	 0.0059938437	 0.166994
O	 3.4533685987	-1.0033263642	-0.0781872233	-0.253843
H	 0.5362164901	 1.8059537137	-0.6826505894	 0.265807
H	-0.8823211225	 1.7516095896	 0.1865344694	 0.273978
H	-1.2817086498	-2.7868659553	 0.1312554469	 0.285934
H	 2.495654305	 0.7760196472	 0.148467816	 0.109469
88.0351	155.2269	194.7656	215.2894	281.5908	311.9108	333.0715	442.7201	477.9646	560.3155	660.2254	669.1558	748.6861	780.5256	787.2965	817.8487	1031.7803	1055.2916	1092.5343	1188.2187	1216.2497	1316.6549	1390.618	1446.2859	1477.3858	1626.9479	1701.2373	1820.7752	1901.9149	2979.347	3526.6615	3621.2775	3699.768
NC1=NNC(=O)N1C=O	Nc1n[nH]c(=O)n1C=O	
InChI=1S/C3H4N4O2/c4-2-5-6-3(9)7(2)1-8/h1H,(H2,4,5)(H,6,9)	InChI=1S/C3H4N4O2/c4-2-5-6-3(9)7(2)1-8/h1H,(H2,4,5)(H,6,9)
