19
gdb 53100	2.13156	1.11815	0.92553	0.6508	91.3	-0.227	0.036	0.2629	1399.7373	0.15594	-348.691605	-348.681122	-348.680178	-348.728324	37.076	
C	 0.0846239252	 1.5445256781	-0.0881588536	-0.499164
C	 0.036038288	 0.0902627808	-0.0564842366	 0.069832
C	-0.0117211999	-1.1135038396	-0.0318130214	 0.100949
C	-0.0436310163	-2.545281262	-0.0195086584	-0.230471
C	-0.4323345746	-3.3241283399	 1.2243467395	-0.031514
C	-0.7788597847	-2.6237418663	 2.5151150392	-0.40887
C	-1.382562233	-3.313288945	 0.0381827364	-0.227499
C	-2.6308727168	-2.6154786491	 0.0858563058	 0.360363
C	-3.6930232815	-2.0513850892	 0.1149431882	-0.47436
H	 0.7404789317	 1.9430156206	 0.6941940976	 0.145427
H	 0.4596422766	 1.9082391615	-1.0513772997	 0.147645
H	-0.9111122254	 1.9763288882	 0.0621091094	 0.149859
H	 0.7008537785	-3.0195011048	-0.6534307713	 0.112221
H	 0.1052261184	-4.2606444533	 1.3467929438	 0.094743
H	-1.3148698159	-1.6913631429	 2.3282965764	 0.14261
H	-1.4118023593	-3.2605075022	 3.1417234745	 0.120051
H	 0.1292060146	-2.3863946269	 3.0789561153	 0.119296
H	-1.3999538303	-4.2194513479	-0.5607565367	 0.115366
H	-4.6267876654	-1.54705962	 0.1372771616	 0.193515
26.0717	67.1638	92.7701	139.9775	165.0112	186.194	241.6378	302.5077	340.7479	380.6757	436.6543	528.4626	577.7451	606.3948	629.0373	648.6443	723.9994	762.3013	802.6235	922.1518	950.9661	992.1737	1049.1851	1051.345	1055.4603	1092.4486	1143.5501	1149.2067	1185.8484	1254.782	1366.7603	1377.6315	1409.9042	1417.0132	1423.5358	1477.4745	1478.8385	1488.755	1497.4759	2235.9897	2368.8355	3024.8352	3040.5653	3083.6662	3086.7235	3100.4197	3128.997	3135.4375	3141.824	3153.396	3506.1391
CC#CC1C(C)C1C#C	CC#C[C@H]1[C@@H](C)[C@H]1C#C	
InChI=1S/C9H10/c1-4-6-9-7(3)8(9)5-2/h2,7-9H,1,3H3	InChI=1S/C9H10/c1-4-6-9-7(3)8(9)5-2/h2,7-9H,1,3H3/t7-,8+,9-/m0/s1
