21
gdb 89986	2.72104	1.27403	1.14606	2.4462	77.53	-0.2446	0.0511	0.2957	1183.7112	0.181987	-424.190536	-424.18143	-424.180486	-424.224455	34.369	
C	 0.8041642509	 1.4965167447	 0.0588570733	-0.420297
C	-0.0685448941	 0.2446483673	 0.0126169329	-0.026058
C	 0.4005421476	-0.8241150782	-1.0193329779	-0.318899
C	 1.1033853774	-1.6059307885	 0.1168429952	 0.259741
C	 1.2535842193	-3.1341912459	 0.1644901238	-0.145001
O	 2.689750379	-3.0440831908	 0.2724558225	-0.273084
C	 2.6437253759	-1.6069873738	 0.2317034299	-0.129345
C	 0.2447706998	-0.7994347632	 1.1304202265	 0.077617
O	 0.7841513861	-0.3942981112	 2.3608642077	-0.425238
H	 1.8748865988	 1.2558407484	 0.073276618	 0.113352
H	 0.6318865245	 2.1206859436	-0.8235664583	 0.123906
H	 0.5825758918	 2.1007637707	 0.9449870556	 0.126339
H	-1.1200127299	 0.5375786035	-0.0553883568	 0.071035
H	-0.4313295663	-1.3877734519	-1.4519942449	 0.10362
H	 1.0397906693	-0.470914862	-1.8339389223	 0.101912
H	 0.8056621712	-3.6217313503	 1.0409545374	 0.10357
H	 0.9420658417	-3.6699888187	-0.7424107773	 0.097396
H	 3.1818017683	-1.1986938118	-0.634643794	 0.096761
H	 3.0552227066	-1.1646588218	 1.1497863237	 0.089063
H	-0.6547932348	-1.3713083724	 1.3825561061	 0.090238
H	 1.5467323169	 0.1683659425	 2.1909491186	 0.283372
71.3405	86.9339	195.6717	227.7237	236.7869	246.4415	301.3116	330.808	374.6261	445.5537	540.8351	585.7636	749.0919	808.1386	822.0852	854.7206	889.3308	907.6242	955.5794	967.7407	992.2283	1043.7612	1049.6452	1077.4496	1122.5801	1147.3667	1157.7898	1167.3804	1193.3298	1194.407	1224.8221	1266.5024	1279.0217	1287.4051	1302.9752	1315.794	1366.4682	1386.2812	1408.4127	1434.4712	1484.746	1499.8749	1501.1165	1502.1342	1528.0216	2988.0236	3001.7405	3021.0297	3032.2003	3040.365	3048.2929	3049.3638	3063.7068	3087.2779	3100.5809	3102.9206	3815.4701
CC1CC2(COC2)C1O	C[C@H]1CC2(COC2)[C@H]1O	
InChI=1S/C7H12O2/c1-5-2-7(6(5)8)3-9-4-7/h5-6,8H,2-4H2,1H3	InChI=1S/C7H12O2/c1-5-2-7(6(5)8)3-9-4-7/h5-6,8H,2-4H2,1H3/t5-,6-/m0/s1
