16
gdb 74469	2.96064	1.50907	1.09162	2.307	72.29	-0.259	-0.0198	0.2392	1100.0666	0.124132	-437.941374	-437.933464	-437.93252	-437.973834	29.599	
C	 0.0289225471	 1.4501886128	-0.0015372242	-0.482115
C	-0.0690950983	-0.031110363	 0.0144723477	 0.384099
N	-1.1182165157	-0.7457453087	-0.0961353174	-0.33793
C	-0.6587772665	-2.0996429459	-0.0165012787	 0.18116
C	-1.4832979603	-3.183453931	 0.6575722528	-0.296254
C	-1.3092053433	-3.2115027522	-0.8221650901	-0.296309
C	 0.8189343426	-2.0618213346	 0.1570065486	 0.393461
O	 1.6377509255	-2.9230881096	 0.2696002294	-0.343596
O	 1.1329705476	-0.7033903409	 0.1687677152	-0.243212
H	 0.6782483904	 1.7801206573	-0.8188218899	 0.154132
H	-0.9655637878	 1.8777717255	-0.1274816171	 0.157001
H	 0.4708032082	 1.8128745521	 0.9320484032	 0.154136
H	-0.9287138859	-3.8966493677	 1.2568790013	 0.146046
H	-2.434176619	-2.8569292257	 1.0607875931	 0.141676
H	-2.1392180883	-2.9046918784	-1.4469181507	 0.141672
H	-0.6338449665	-3.9441606199	-1.249372313	 0.146034
117.3102	159.5472	174.9022	224.3498	226.7408	299.0634	421.5713	495.2593	582.7848	633.9105	651.6749	743.8674	776.8062	790.9872	902.1215	902.2802	929.699	966.557	994.6548	1023.3849	1065.2522	1067.2608	1092.1138	1093.8344	1205.1614	1285.1406	1292.7246	1353.6725	1412.9054	1448.3182	1471.3624	1473.9569	1483.1768	1723.392	1903.6663	3049.128	3106.8994	3145.4254	3145.9062	3163.2529	3236.8053	3250.6414
CC1=NC2(CC2)C(=O)O1	CC1=NC2(CC2)C(=O)O1	
InChI=1S/C6H7NO2/c1-4-7-6(2-3-6)5(8)9-4/h2-3H2,1H3	InChI=1S/C6H7NO2/c1-4-7-6(2-3-6)5(8)9-4/h2-3H2,1H3
