17
gdb 77390	2.24156	1.99588	1.26169	1.1152	67.76	-0.233	0.0674	0.3003	1001.3015	0.133586	-458.867167	-458.858843	-458.857899	-458.899455	32.26	
C	-0.0148389406	 1.4524663599	-0.0252322839	-0.531288
C	 0.0405734772	-0.0441876554	-0.0761929821	 0.307422
C	 0.5671750051	-0.9718000514	-1.1873873921	-0.001714
O	 1.9516975544	-0.8375201355	-1.4136140543	-0.442633
C	 0.1159256741	-1.9660666848	-0.1157835662	 0.34534
O	 0.2059611812	-3.3301521501	-0.2182064761	-0.470833
C	 0.5490618699	-1.0059441877	 1.0521439432	-0.049658
O	-0.7417999197	-1.0711017608	 1.7329873999	-0.337694
C	-1.0886963093	-1.0537217144	 0.3146055172	-0.063778
H	 0.9857163751	 1.8810787604	-0.1392747934	 0.136603
H	-0.6460062001	 1.8544333123	-0.8249654634	 0.121763
H	-0.4257768514	 1.7810507034	 0.9346220477	 0.135532
H	-0.006162894	-0.9781679553	-2.125492462	 0.068452
H	 2.2520524578	-1.6134449441	-1.8979975647	 0.291778
H	-0.101585292	-3.7144826426	 0.6123368501	 0.296836
H	 1.4587506464	-0.9656428944	 1.6477810679	 0.100645
H	-2.1396728741	-1.0711110496	 0.0281464523	 0.093227
174.5719	183.6455	209.6375	228.8468	254.0929	283.6323	309.0964	364.7441	437.9021	566.4311	599.0548	610.2272	720.5966	760.9699	816.0043	846.9138	876.7311	901.3485	939.6647	998.4844	1027.399	1058.3188	1089.6169	1114.4546	1124.0024	1160.6452	1165.3658	1204.6779	1256.4123	1264.5732	1345.1119	1366.7688	1388.1207	1407.7851	1481.2292	1488.2353	1494.4191	3004.3749	3033.8012	3100.2695	3109.8445	3126.5148	3144.7405	3781.0963	3816.9336
CC12C(O)C3(O)C1OC23	C[C@@]12[C@@H](O)[C@@]3(O)[C@@H]1O[C@@H]23	
InChI=1S/C6H8O3/c1-5-2(7)6(8)3(5)9-4(5)6/h2-4,7-8H,1H3	InChI=1S/C6H8O3/c1-5-2(7)6(8)3(5)9-4(5)6/h2-4,7-8H,1H3/t2-,3-,4+,5-,6-/m1/s1
