19
gdb 36687	5.12405	0.75824	0.73243	1.9952	81.39	-0.2389	0.0576	0.2965	1570.3033	0.157805	-385.811527	-385.802756	-385.801812	-385.845639	33.093	
C	-0.1032449614	-1.1944403419	-0.0236464252	-0.438207
C	-0.0347261218	 0.0007493302	 0.0855063336	 0.292215
C	 0.0808891633	 1.4482463185	 0.2054096153	-0.352031
C	 1.4654918962	 1.9770960534	-0.2247173972	-0.206267
C	 1.5534568719	 3.4855712688	-0.0894044387	 0.137433
O	 1.3103876285	 3.9682975812	 1.2701965433	-0.308342
C	 2.5046573476	 4.7536643187	 1.214729342	 0.113688
C	 3.7122290343	 3.881901126	 1.1069728482	-0.297651
C	 2.9022408134	 4.2063207078	-0.1351311464	-0.15956
H	-0.1780303477	-2.2495410512	-0.1135123194	 0.191904
H	-0.7002852459	 1.9289931	-0.3986042791	 0.126641
H	-0.1026595002	 1.7543271113	 1.2418858151	 0.152909
H	 2.239152937	 1.4968356632	 0.3814855278	 0.113731
H	 1.6578507135	 1.7054996005	-1.2694279016	 0.111279
H	 0.830753216	 3.9698447605	-0.761118879	 0.080898
H	 2.4716502315	 5.7568421509	 1.6229273061	 0.105332
H	 4.6667090862	 4.3971806379	 1.15491854	 0.116419
H	 3.7023523229	 2.8915454723	 1.5520594401	 0.119211
H	 3.3229548645	 4.698649702	-1.0009641549	 0.100396
61.6479	91.4343	101.7124	202.8216	235.1733	348.2625	365.4847	454.0079	482.1596	568.3269	614.3354	634.8123	717.3715	762.1747	777.194	814.6792	887.3675	938.1628	955.7337	973.5856	1010.809	1013.8757	1042.8564	1044.2469	1053.2096	1082.9417	1092.7278	1119.9222	1199.4086	1206.0077	1253.5228	1267.8835	1305.9691	1311.8435	1356.3948	1373.9251	1407.966	1471.2877	1477.4062	1488.2186	2239.1448	3005.3614	3020.5627	3043.9877	3063.7556	3099.0607	3121.4069	3182.589	3204.3526	3213.7697	3507.6152
C#CCCC1OC2CC12	C#CCC[C@H]1O[C@H]2C[C@@H]12	
InChI=1S/C8H10O/c1-2-3-4-7-6-5-8(6)9-7/h1,6-8H,3-5H2	InChI=1S/C8H10O/c1-2-3-4-7-6-5-8(6)9-7/h1,6-8H,3-5H2/t6-,7+,8-/m0/s1
