19
gdb 68933	2.40768	1.72641	1.25948	2.5682	70.67	-0.2345	0.0599	0.2944	1038.6099	0.159398	-460.144867	-460.136589	-460.135645	-460.177125	33.125	
O	-0.1667288824	 1.3686293773	 0.0388482507	-0.477018
C	-0.0187210987	-0.0339143565	 0.0317379184	 0.303519
C	-0.4763173633	-0.7819151549	 1.2706887288	-0.407015
C	-1.3457933038	-0.7532677597	 0.0300968654	 0.379933
O	-2.5076429336	 0.0127080824	 0.0269385652	-0.481854
C	-1.4681549271	-2.0090714075	-0.8099826942	-0.143772
O	-0.2062105953	-2.6147914653	-1.0272858206	-0.24428
C	 0.6814035389	-1.7347664829	-1.700178131	-0.072132
C	 1.1397229258	-0.5788089338	-0.7971082225	-0.29508
H	 0.3433403568	 1.7284073503	 0.771998906	 0.290291
H	 0.0426609684	-1.7023598198	 1.519399318	 0.122745
H	-0.8248695154	-0.1893647898	 2.1105555378	 0.106814
H	-2.2160683661	 0.9356619843	 0.0208598857	 0.290151
H	-2.0923810409	-2.7561106297	-0.3099606264	 0.114219
H	-1.9457439137	-1.7426532267	-1.7669138977	 0.09678
H	 1.531986537	-2.340454998	-2.0246725811	 0.107738
H	 0.1877965798	-1.3324003956	-2.5995669389	 0.094262
H	 1.5302993158	 0.233204675	-1.4185268876	 0.111736
H	 1.9527418981	-0.9120323892	-0.1411823359	 0.102964
114.5974	175.7698	256.4644	274.3788	326.2811	358.855	388.4634	426.767	434.7328	458.665	513.8752	553.0765	615.9166	699.7038	747.9819	849.8732	884.0025	913.6743	935.8944	957.2655	1001.8343	1036.2132	1059.4966	1109.0897	1130.3071	1152.6824	1191.4207	1213.2697	1251.6008	1279.5612	1296.918	1310.8619	1352.9759	1374.8611	1397.7066	1415.1935	1429.7248	1468.9792	1485.9519	1494.5777	1504.658	2973.9593	2979.4054	3030.6667	3079.0109	3084.5268	3092.0625	3121.806	3219.4721	3734.9761	3807.6924
OC12CC1(O)COCC2	O[C@@]12C[C@]1(O)COCC2	
InChI=1S/C6H10O3/c7-5-1-2-9-4-6(5,8)3-5/h7-8H,1-4H2	InChI=1S/C6H10O3/c7-5-1-2-9-4-6(5,8)3-5/h7-8H,1-4H2/t5-,6-/m0/s1
