20
gdb 62683	2.42814	1.70458	1.29812	2.7522	78.82	-0.2167	0.066	0.2827	1062.3966	0.169135	-403.045303	-403.036447	-403.035503	-403.077918	35.067	
C	-0.0563128723	 1.5785283116	 0.0156464183	-0.492801
C	 0.0683515141	 0.0529186629	 0.0337931857	 0.231598
C	-1.2094755816	-0.6095002555	-0.4863533039	-0.444726
C	 1.2601328257	-0.8611946695	-0.3275717839	-0.127394
N	 2.6847808281	-0.5577412521	 0.0831219599	-0.139843
C	 2.7917488121	 0.7671492317	 0.714789687	-0.255665
C	 2.1721993476	-0.3397983007	 1.4835417115	-0.114266
C	 0.7429256438	-0.7902640014	 1.0835225995	 0.324498
O	 0.1194843193	-1.7832655407	 1.8215165624	-0.451778
H	 0.3916708298	 2.0201627547	-0.8811103356	 0.12918
H	-1.1162937456	 1.8543988347	 0.0102439865	 0.11104
H	 0.3894992023	 2.0516466215	 0.8924516026	 0.128021
H	-1.4307213812	-0.2565580631	-1.499439514	 0.117905
H	-1.1356510958	-1.6983969824	-0.5046635075	 0.133628
H	-2.0626894142	-0.347672474	 0.1501580336	 0.109808
H	 1.1421004593	-1.6164952388	-1.0945417426	 0.104657
H	 3.8220553325	 0.9978598159	 0.9783281992	 0.120297
H	 2.2401881632	 1.6096623703	 0.3292795653	 0.124811
H	 2.6702173073	-0.8167784955	 2.322593934	 0.104355
H	-0.4452478441	-1.3619270697	 2.479659582	 0.286676
128.908	203.8594	206.909	234.7328	260.7912	289.7717	319.7893	345.7495	380.1968	425.139	517.1502	590.0677	625.3913	668.5727	702.525	761.4407	851.4936	921.0204	927.5967	955.0104	981.2542	983.9661	1019.6653	1045.2185	1048.5862	1102.9336	1128.752	1134.3568	1146.5517	1187.9363	1210.8686	1227.4441	1264.9936	1315.8077	1335.1347	1403.2894	1418.6138	1455.9893	1488.8665	1493.0956	1500.835	1509.8127	1520.2647	3027.9687	3033.2566	3086.1589	3087.5004	3119.1078	3123.8879	3130.9419	3155.9224	3189.2644	3264.691	3782.5927
CC1(C)C2N3CC3C12O	CC1(C)[C@H]2N3C[C@H]3[C@@]12O	
InChI=1S/C7H11NO/c1-6(2)5-7(6,9)4-3-8(4)5/h4-5,9H,3H2,1-2H3	InChI=1S/C7H11NO/c1-6(2)5-7(6,9)4-3-8(4)5/h4-5,9H,3H2,1-2H3/t4-,5+,7-,8?/m0/s1
