19
gdb 76319	2.18046	1.50609	1.28015	1.7189	71.5	-0.2495	-0.0328	0.2168	1103.4226	0.156307	-460.168082	-460.158252	-460.157308	-460.202217	36.371	
C	-0.6740901159	 1.5412008178	 0.0446303618	-0.442403
C	-0.1131112145	 0.1272594611	-0.0339932815	 0.159556
C	-1.1851291941	-0.9405274114	 0.230780143	-0.446816
C	 0.7729599794	-0.2397460512	-1.2914527755	 0.059543
O	 1.3472724945	 0.8869279836	-1.8956240357	-0.435779
C	 1.8175360583	-0.9393007962	-0.3456185221	 0.005238
O	 3.1680727083	-0.6582916936	-0.6104618385	-0.443569
C	 1.1698024501	-0.1215799608	 0.7771004885	 0.318055
O	 1.6702764963	 0.3880785704	 1.7420339774	-0.319619
H	 0.0737526328	 2.2712999022	-0.2682451553	 0.140573
H	-1.5492399723	 1.6456618513	-0.6051586942	 0.117054
H	-0.9800031924	 1.7694945529	 1.0701703438	 0.126534
H	-1.9733806598	-0.8687308208	-0.5260503298	 0.12934
H	-0.7835188319	-1.9583101487	 0.1984015654	 0.120379
H	-1.642151299	-0.792077978	 1.2138030298	 0.133591
H	 0.2815927216	-0.8878153144	-2.0269455052	 0.070138
H	 2.3038454645	 0.7303112401	-1.8933403132	 0.291797
H	 1.64786464	-2.018552835	-0.2661457993	 0.110591
H	 3.5006324541	-0.1533916794	 0.1443151204	 0.305798
87.0966	145.6	160.2768	204.5922	217.7668	233.9424	265.816	278.6338	320.7422	327.567	456.8464	498.6512	535.4812	556.3164	635.8969	754.2459	768.5065	832.9279	906.8453	935.7284	964.6314	999.4926	1018.2573	1090.4306	1132.2203	1151.3731	1196.3381	1202.7162	1242.9899	1283.3214	1336.59	1361.3297	1373.1008	1396.566	1404.5747	1419.939	1479.0104	1484.667	1501.3499	1506.0088	1866.0949	3028.8869	3032.5415	3041.7818	3052.5951	3101.5808	3106.5487	3110.3629	3142.1659	3705.841	3753.8879
CC1(C)C(O)C(O)C1=O	CC1(C)[C@@H](O)[C@@H](O)C1=O	
InChI=1S/C6H10O3/c1-6(2)4(8)3(7)5(6)9/h3-4,7-8H,1-2H3	InChI=1S/C6H10O3/c1-6(2)4(8)3(7)5(6)9/h3-4,7-8H,1-2H3/t3-,4+/m1/s1
