21
gdb 78774	3.07463	1.3899	1.26396	1.7821	81.28	-0.2418	0.0811	0.3229	1105.2177	0.182032	-387.039844	-387.031422	-387.030478	-387.07196	34.393	
C	 0.0310651174	 1.5502742099	 0.0021214123	-0.459277
C	 0.0611375902	 0.0213371411	 0.0157502301	 0.314243
C	-1.3563983838	-0.5347998252	 0.1792465588	-0.435356
C	 0.8199907121	-0.7077377351	-1.1071439816	-0.087947
C	 2.3035621795	-0.7730430757	-0.7279627685	-0.131376
C	 1.3099176749	-1.7802104198	-0.1721863307	-0.118488
C	 1.0611206196	-0.7096045675	 0.9747680511	-0.129016
C	 2.4695424605	-0.1368138897	 0.6524289521	 0.143094
O	 3.5145878621	-0.7072165251	 1.4133630673	-0.450023
H	 1.0043465927	 1.987293799	-0.232347054	 0.119868
H	-0.6781974064	 1.9095405053	-0.7525632486	 0.110583
H	-0.295019943	 1.9466363947	 0.9709742626	 0.113417
H	-1.9938703098	-0.2384596821	-0.6619206294	 0.108427
H	-1.3543615969	-1.6278941007	 0.2310438591	 0.1137
H	-1.8202968516	-0.1523353859	 1.0955790383	 0.110372
H	 0.5118173468	-0.8292083187	-2.1399500257	 0.080933
H	 3.0714901834	-0.9352040842	-1.4748619649	 0.087971
H	 1.255843411	-2.8573726634	-0.2277118876	 0.090607
H	 0.791610965	-0.9143919117	 2.0106238637	 0.065594
H	 2.6160050245	 0.9430554805	 0.736621595	 0.077116
H	 3.4703400519	-1.6633017556	 1.2895598707	 0.275557
174.458	201.269	223.8148	238.9241	272.1512	315.344	354.0511	358.6579	420.3372	492.244	569.6228	611.027	778.8098	787.0467	822.2768	835.7471	863.0382	888.9244	928.3519	936.8543	950.0329	980.3584	1007.0781	1013.7134	1032.2805	1040.0871	1049.2696	1091.2563	1154.112	1155.9488	1170.8946	1218.4433	1227.9315	1240.1394	1270.4511	1281.3717	1331.9687	1356.8465	1400.9204	1420.3742	1442.0491	1482.3405	1490.7769	1502.2639	1512.9226	3022.6301	3028.708	3078.5123	3082.6424	3087.815	3103.0103	3119.2843	3122.3039	3170.4553	3189.3608	3223.1439	3778.1623
CC1(C)C2C3C2C1C3O	CC1(C)[C@H]2[C@@H]3[C@H]2[C@H]1[C@H]3O	
InChI=1S/C8H12O/c1-8(2)5-3-4(5)7(9)6(3)8/h3-7,9H,1-2H3	InChI=1S/C8H12O/c1-8(2)5-3-4(5)7(9)6(3)8/h3-7,9H,1-2H3/t3-,4+,5-,6+,7+/m1/s1
