16
gdb 52990	3.20187	1.03224	0.85242	2.0579	82.51	-0.2368	-0.024	0.2128	1372.8869	0.12246	-400.696869	-400.688049	-400.687105	-400.732076	31.264	
C	-0.0493380169	 1.4884692758	 0.0243353217	-0.509694
C	-0.0164175794	 0.0356270616	-0.0096286148	 0.231171
C	 0.0077118883	-1.1691680591	-0.0342562748	-0.15346
C	 0.0868283227	-2.5851276975	-0.0304371169	 0.047258
C	-0.3850229612	-3.4642943618	-1.1574921736	-0.258235
N	-1.1128369356	-3.581632171	 0.0918644248	-0.145145
C	-0.2659426831	-4.4898428196	 0.940585734	-0.289684
C	 0.8765450483	-3.4565334541	 0.9222230912	 0.350154
O	 1.8657363381	-3.2872251596	 1.5688252481	-0.289223
H	 0.8139995476	 1.8845892149	 0.5698770241	 0.159592
H	-0.0330041394	 1.9147123421	-0.9845666222	 0.152564
H	-0.953324259	 1.8496260016	 0.5269558115	 0.156989
H	-0.9289888411	-2.9479073675	-1.9422266127	 0.145225
H	 0.241065094	-4.2887530486	-1.495789528	 0.123384
H	-0.6845508175	-4.5921213734	 1.9450571739	 0.148312
H	-0.0908699558	-5.4794658538	 0.5085940338	 0.130795
22.0837	79.4327	104.4507	159.4986	265.9887	309.1084	383.7717	437.4354	466.6888	494.8915	578.2341	604.6427	679.0068	731.7902	833.7733	855.6932	969.4147	1011.3754	1020.9343	1049.2673	1053.3879	1062.7491	1102.6296	1144.9888	1192.4271	1219.7681	1257.0826	1380.0376	1414.5678	1463.2203	1473.3871	1476.0339	1503.5035	1896.5281	2363.5668	3029.3642	3059.0002	3091.6213	3094.0338	3095.92	3121.2795	3201.184
CC#CC12CN1CC2=O	CC#C[C@]12CN1CC2=O	
InChI=1S/C7H7NO/c1-2-3-7-5-8(7)4-6(7)9/h4-5H2,1H3	InChI=1S/C7H7NO/c1-2-3-7-5-8(7)4-6(7)9/h4-5H2,1H3/t7-,8?/m1/s1
