23
gdb 42080	3.35264	1.22089	1.18989	0.1488	88.87	-0.2334	0.0316	0.265	1188.8367	0.208836	-351.187171	-351.178978	-351.178034	-351.220253	32.678	
C	 0.0220901876	 1.4930480158	-0.2748095923	-0.203208
C	 1.440395334	 2.0295410855	 0.0846112963	-0.206648
C	 2.2178052071	 0.8121800113	 0.6418346964	-0.24189
C	 1.4792870773	-0.4321413726	 0.0946138033	 0.36165
C	 0.011947134	 0.0221198091	 0.1906247295	-0.263636
C	 1.9397223	-0.7311085878	-1.3697549014	-0.297899
C	 2.8862361837	-1.8959748342	-1.2203529499	-0.062996
C	 2.8232311436	-2.4383287695	-0.0061585577	-0.058832
C	 1.8229779655	-1.7322156516	 0.8742534032	-0.336173
H	-0.7771076812	 2.0771245286	 0.1895817075	 0.093076
H	-0.1398060681	 1.5476271579	-1.3561779793	 0.098594
H	 1.931772571	 2.4406764285	-0.8021890121	 0.097825
H	 1.399459727	 2.8409145844	 0.8166348317	 0.09541
H	 3.2794352119	 0.8202749354	 0.3764724247	 0.094785
H	 2.161692277	 0.804222465	 1.7370831788	 0.089152
H	-0.3131541919	-0.0392992568	 1.2372447777	 0.090506
H	-0.6663448272	-0.6089389319	-0.3928944996	 0.087643
H	 1.0903213759	-1.0029505242	-2.0137923272	 0.09779
H	 2.4111085116	 0.1386563331	-1.8436190822	 0.097284
H	 3.5103389159	-2.2495790731	-2.0341797924	 0.086285
H	 3.3859930945	-3.3046920419	 0.3245171338	 0.087059
H	 2.211823927	-1.5153637172	 1.8770900079	 0.095467
H	 0.9311420939	-2.3589278238	 1.0239423231	 0.098755
70.5084	81.3929	152.6762	257.2771	357.263	387.7656	400.4271	449.1713	632.6197	646.1782	695.6164	763.7497	777.9764	811.7739	823.8617	889.3225	905.6263	928.9562	949.3548	967.9118	974.3193	978.3826	985.0824	1021.2285	1051.0413	1057.2449	1099.1798	1115.5517	1133.7507	1171.905	1201.2046	1222.5211	1245.5634	1258.2065	1278.4389	1296.0264	1310.9367	1323.1413	1338.0266	1345.8308	1356.9154	1373.6014	1480.8905	1484.2532	1487.8699	1494.5189	1499.9612	1518.511	1691.0487	2993.5849	2995.9826	3019.7825	3027.9278	3037.6335	3039.8864	3043.1383	3056.0214	3069.9407	3076.5146	3084.5306	3101.6754	3175.5885	3201.596
C1CCC2(C1)CC=CC2	C1CCC2(C1)CC=CC2	
InChI=1S/C9H14/c1-2-6-9(5-1)7-3-4-8-9/h1-2H,3-8H2	InChI=1S/C9H14/c1-2-6-9(5-1)7-3-4-8-9/h1-2H,3-8H2
