21
gdb 119402	4.04103	1.00818	0.96203	1.572	78.64	-0.239	0.0791	0.3181	1330.3908	0.182772	-424.197587	-424.189055	-424.188111	-424.231342	32.81	
C	-0.0040373296	 1.5171433322	-0.1025982479	-0.384888
C	-0.0363716493	 0.0002094997	-0.0334388252	-0.067196
O	 0.7874846017	-0.5063464106	-1.0765784459	-0.306367
C	 0.7697691862	-1.880084793	-1.2316753667	 0.396585
C	-0.4979743117	-2.7199622004	-1.6370468896	-0.299006
C	 0.621439977	-3.7175388961	-2.0171145422	 0.100053
C	 1.4682898852	-2.5047820073	-2.4701444922	-0.289033
O	 1.1993878934	-4.0749311169	-0.7459959749	-0.276412
C	 1.3429437642	-2.7870639727	-0.1161620848	-0.133738
H	 1.0192677184	 1.8840279882	 0.0169127544	 0.128796
H	-0.3819954096	 1.8651488942	-1.0679807963	 0.127374
H	-0.6226336134	 1.947755539	 0.6904390642	 0.115843
H	 0.3257617158	-0.3463690846	 0.9461639739	 0.095906
H	-1.0649627457	-0.3723155257	-0.1538251514	 0.096626
H	-1.1999201235	-3.0344839831	-0.8615738842	 0.098362
H	-1.0148157394	-2.294348121	-2.4986834859	 0.104586
H	 0.4637372981	-4.610840579	-2.6163858949	 0.084655
H	 1.1260539018	-2.0553895255	-3.4033513819	 0.106146
H	 2.5548713188	-2.6130334054	-2.4525847511	 0.102335
H	 2.3965524279	-2.5733238562	 0.0994863734	 0.10243
H	 0.7712560637	-2.7593395359	 0.8184949092	 0.096946
55.2609	78.1348	148.7812	243.444	317.0299	334.3223	363.9418	420.6214	484.0995	530.045	612.9286	695.8564	820.1408	824.7868	848.5761	892.989	909.6455	918.9474	958.1186	964.0224	1003.3143	1019.2973	1021.6442	1076.3705	1113.4623	1123.1049	1134.824	1166.3595	1185.559	1200.4403	1217.4515	1238.6418	1252.129	1267.8561	1300.0373	1304.697	1375.256	1401.5847	1429.7694	1470.7987	1483.3761	1499.2358	1506.5508	1525.9109	1533.1773	2981.7674	3011.3651	3023.7723	3045.5433	3064.1762	3069.1026	3076.2592	3120.3717	3123.2224	3138.5878	3145.8391	3155.1879
CCOC12CC(C1)OC2	CCO[C@@]12C[C@@H](C1)OC2	
InChI=1S/C7H12O2/c1-2-9-7-3-6(4-7)8-5-7/h6H,2-5H2,1H3	InChI=1S/C7H12O2/c1-2-9-7-3-6(4-7)8-5-7/h6H,2-5H2,1H3/t6-,7-
