13
gdb 24824	3.13636	1.51885	1.0233	7.2721	77.25	-0.2318	-0.0497	0.182	1064.2254	0.090406	-415.629875	-415.622442	-415.621498	-415.662001	27.902	
O	-0.0069666629	-0.0325467863	 0.0039994655	-0.333914
C	-0.011808086	 1.1770341939	 0.0097297918	 0.327329
N	-1.2280704662	 1.9034510664	 0.029404772	-0.301155
C	-1.2073665183	 3.1853464475	 0.0353315173	 0.103494
N	-0.0736433717	 3.9515550352	 0.0239856396	-0.298537
C	 1.1534940384	 3.3438090982	 0.0048030251	-0.053759
C	 1.2407734665	 1.9881527279	-0.0028982447	-0.082369
C	 2.4992597585	 1.3372461399	-0.0226813013	 0.262666
C	 3.5671440681	 0.7816842699	-0.0395301148	-0.385967
H	-2.1388286943	 3.750078312	 0.0504043426	 0.138784
H	-0.1441539172	 4.9564322472	 0.0298129007	 0.276863
H	 2.0195678882	 3.9932549348	-0.0035193795	 0.148439
H	 4.5003611468	 0.2754555532	-0.0544426843	 0.198127
80.2236	141.6627	190.4414	389.8836	403.5292	435.5463	463.4339	524.6637	569.0317	587.7768	601.2588	603.0403	652.616	724.5618	822.6301	907.7505	918.7318	960.389	1025.2155	1088.2742	1223.736	1237.2945	1356.1393	1424.2573	1513.2074	1623.7557	1691.766	1785.4788	2228.9762	3141.6847	3218.1124	3503.9841	3644.5994
O=C1N=CNC=C1C#C	O=c1nc[nH]cc1C#C	
InChI=1S/C6H4N2O/c1-2-5-3-7-4-8-6(5)9/h1,3-4H,(H,7,8,9)	InChI=1S/C6H4N2O/c1-2-5-3-7-4-8-6(5)9/h1,3-4H,(H,7,8,9)
