19
gdb 62964	2.12974	1.87055	1.42874	2.2639	75.45	-0.2266	0.0626	0.2892	1009.9409	0.158697	-419.125763	-419.117296	-419.116351	-419.158129	33.582	
C	-0.030804136	 1.5622854423	-0.1148698824	-0.462712
C	 0.0351179651	 0.0498692265	 0.0070147856	 0.314238
O	-1.252470107	-0.5452997293	-0.0314460821	-0.479496
C	 1.0583623381	-0.689098045	-0.8993291371	-0.110543
N	 2.3975165739	-0.1745411767	-0.5256663384	-0.350895
C	 1.7667926495	-1.2552782804	 0.2801508153	-0.161728
C	 0.7989833211	-0.5684133778	 1.2185057464	 0.390876
C	 0.9274964765	-0.0527892068	 2.5943803938	-0.309685
N	 0.1324720749	-1.2653188388	 2.3021702334	-0.37034
H	 0.9754986895	 1.9845678515	-0.096359799	 0.151452
H	-0.5076661422	 1.8542222577	-1.0601371679	 0.100772
H	-0.6159580161	 1.9919205763	 0.704933457	 0.117272
H	-1.7595389785	-0.1108442176	-0.7252858202	 0.279254
H	 0.8598537918	-1.126713098	-1.8702663002	 0.091309
H	 3.0729984196	-0.6196006845	-1.1468791818	 0.231606
H	 2.2427687454	-2.2173013982	 0.4201083057	 0.101088
H	 1.8357643425	-0.2263231669	 3.1650796323	 0.117199
H	 0.406000477	 0.8692882667	 2.8411468861	 0.108665
H	-0.8625472652	-1.052989651	 2.2675842935	 0.241668
118.9119	211.3928	230.8215	250.7469	264.4115	283.7654	313.3878	371.1415	426.0307	526.5832	564.377	605.5549	661.7597	824.3082	836.3153	854.3493	870.9792	917.3674	927.7676	945.4359	963.906	976.2685	1018.5337	1055.5013	1072.4203	1097.8304	1105.9025	1130.859	1165.2149	1198.2975	1236.8336	1265.9963	1291.8947	1308.5877	1338.4662	1380.5068	1400.3045	1445.4267	1488.8814	1498.2669	1517.8945	3018.4647	3085.7741	3100.74	3139.7258	3185.366	3185.9608	3204.1746	3470.1263	3496.1716	3810.1171
CC1(O)C2NC2C11CN1	C[C@@]1(O)[C@H]2N[C@H]2[C@]21CN2	
InChI=1S/C6H10N2O/c1-5(9)3-4(8-3)6(5)2-7-6/h3-4,7-9H,2H2,1H3	InChI=1S/C6H10N2O/c1-5(9)3-4(8-3)6(5)2-7-6/h3-4,7-9H,2H2,1H3/t3-,4+,5+,6-/m0/s1
