15
gdb 123995	4.57632	1.20524	1.02318	2.866	75.15	-0.2335	-0.0696	0.164	1130.2585	0.115043	-412.96419	-412.95712	-412.956176	-412.996377	26.205	
C	 0.45366977	 1.5366418698	 0.1833753312	-0.229193
N	 1.1778865753	 0.3673176901	-0.3113342612	-0.298095
C	-0.2332610786	 0.216149169	 0.1178328837	-0.103238
C	-0.4755164367	-0.6060928142	 1.3302295997	 0.438948
N	-1.4626513071	-1.5138158056	 1.2574672679	-0.28234
C	-1.6378881331	-2.2399726771	 2.3521690012	-0.009769
C	-0.8355135236	-2.0424571295	 3.4735028715	 0.014825
N	 0.1140184036	-1.108289065	 3.4891060582	-0.164054
N	 0.2956855327	-0.3747421895	 2.4010471779	-0.232831
H	 0.7876814631	 1.8905731897	 1.1530477749	 0.147737
H	 0.1317946452	 2.3024103632	-0.5176656894	 0.115263
H	 1.2112549275	 0.3773051835	-1.3280054426	 0.238948
H	-0.9871864845	 0.0651447267	-0.6480957955	 0.103164
H	-2.4278217829	-2.9877276065	 2.3404597559	 0.129696
H	-0.9516205409	-2.6257457447	 4.3809147868	 0.130939
62.7362	133.5138	190.6294	302.2349	385.2607	410.3776	567.928	610.4366	656.9457	802.9206	820.2808	861.599	895.3015	911.4714	924.7669	977.2372	1011.1434	1039.0719	1088.1926	1099.912	1123.9142	1131.8433	1165.6892	1210.9544	1241.5739	1282.2017	1290.9863	1397.4926	1417.5518	1480.536	1500.4376	1565.7304	1594.2274	3114.6537	3154.8681	3167.2571	3193.5725	3214.2974	3498.3627
C1NC1C1=NC=CN=N1	C1N[C@H]1c1nccnn1	
InChI=1S/C5H6N4/c1-2-8-9-5(6-1)4-3-7-4/h1-2,4,7H,3H2	InChI=1S/C5H6N4/c1-2-8-9-5(6-1)4-3-7-4/h1-2,4,7H,3H2/t4-/m1/s1
