16
gdb 84464	4.22277	1.19822	1.04728	4.6825	75.21	-0.2711	-0.0333	0.2378	1137.6371	0.124255	-400.749089	-400.741281	-400.740336	-400.781313	29.698	
C	-0.0336699862	 1.5958105266	 0.0694440482	-0.398026
C	 0.0181759529	 0.0618259678	-0.0137477836	-0.074468
C	 0.8031058229	-0.4620347613	-1.2045260888	-0.073878
C	 1.7757483375	-1.3084300592	-0.862257199	-0.162219
C	 1.8231161132	-1.4435726074	 0.6280447336	 0.279846
O	 2.110799094	-0.1981907455	 1.311001573	-0.276286
C	 0.744649766	-0.5822013416	 1.1677113994	-0.034334
C	 2.3015925727	-2.6416247813	 1.2690897674	 0.21611
N	 2.686703615	-3.6188819102	 1.7512879803	-0.331894
H	 0.9753243356	 2.0017311621	 0.1760467774	 0.144298
H	-0.4851504096	 2.0182311305	-0.8329355554	 0.122673
H	-0.630184253	 1.9196404079	 0.9275048398	 0.125312
H	-1.0093034742	-0.3264406367	-0.0475883922	 0.100092
H	 0.5981669467	-0.1261697566	-2.2150762586	 0.116171
H	 2.4686464884	-1.8133172088	-1.5215507404	 0.125891
H	 0.225583868	-0.8066985763	 2.0952669488	 0.120711
114.0727	140.9442	198.7089	231.9686	268.6109	402.0232	434.0726	489.5364	556.3698	593.7512	612.7013	710.9796	752.2703	806.7265	848.2089	883.1789	928.6477	957.6963	969.1313	1027.2201	1041.9627	1101.4455	1123.8064	1142.9711	1204.2354	1278.2934	1312.9599	1320.3368	1352.244	1397.7081	1422.1443	1496.4304	1503.7096	1660.7539	2362.4062	3014.8003	3044.401	3113.0277	3130.4224	3160.0672	3195.8631	3234.9269
CC1C=CC2(OC12)C#N	C[C@H]1C=C[C@]2(O[C@@H]12)C#N	
InChI=1S/C7H7NO/c1-5-2-3-7(4-8)6(5)9-7/h2-3,5-6H,1H3	InChI=1S/C7H7NO/c1-5-2-3-7(4-8)6(5)9-7/h2-3,5-6H,1H3/t5-,6-,7-/m0/s1
