21
gdb 107691	3.33069	1.26712	1.09811	1.1938	83.84	-0.2613	0.0743	0.3356	1191.4641	0.181811	-387.017469	-387.008742	-387.007798	-387.050572	33.971	
C	 0.0067625423	 1.4475272671	-0.0288396598	-0.518953
C	 0.0354984913	-0.0560499291	-0.0596387817	 0.351507
C	 0.5716420713	-0.982958344	-1.1715539573	-0.350782
C	 0.0624960566	-1.9525526215	-0.0886962304	 0.390286
C	 0.0804316498	-3.4515001613	-0.100189223	-0.229147
O	 1.4381667816	-3.8734391571	-0.1610762076	-0.421611
C	 0.5475472405	-1.0178930814	 1.0783813938	-0.104219
C	-0.8267949644	-1.0467707951	 1.7749699124	-0.279785
C	-1.1581788382	-1.0333528481	 0.2693099909	-0.133359
H	 1.0190236126	 1.8607697523	-0.1029588412	 0.119179
H	-0.5768865658	 1.8473725301	-0.8658195247	 0.117254
H	-0.4396295733	 1.8217308936	 0.8991869446	 0.118046
H	 0.0258272922	-0.9771743828	-2.1227698884	 0.079312
H	 1.6519859105	-0.9707350845	-1.3481632092	 0.095511
H	-0.4190977941	-3.8384560437	 0.80339612	 0.085266
H	-0.4890140538	-3.8183513039	-0.9702771493	 0.08452
H	 1.4501863176	-4.8334122871	-0.2169431231	 0.286766
H	 1.5473408195	-1.0178083992	 1.5156806003	 0.070818
H	-1.0826282459	-1.9531517052	 2.3328777568	 0.088977
H	-1.1088276299	-0.1596402318	 2.3509615773	 0.089284
H	-2.1316461602	-1.0420956774	-0.2272563304	 0.06113
82.5145	136.5924	211.4393	217.1171	255.8799	277.181	297.3771	392.257	434.5481	489.866	608.2685	661.9882	715.1314	770.5875	844.085	863.1552	896.4278	912.8748	940.9422	996.7936	1007.3235	1016.5057	1048.0234	1060.11	1099.1099	1104.4497	1123.5147	1140.5246	1151.6638	1160.9848	1188.2034	1203.1172	1227.4893	1247.8036	1263.2699	1299.0049	1302.8753	1369.8238	1410.0624	1463.5054	1485.9655	1492.0409	1506.1117	1515.2366	1517.5486	2956.3873	2982.8535	3022.5306	3026.1973	3039.4161	3081.4538	3086.4772	3088.374	3089.6637	3092.9399	3102.0418	3828.1309
CC12CC3(CO)C1CC23	C[C@@]12C[C@@]3(CO)[C@@H]1C[C@@H]23	
InChI=1S/C8H12O/c1-7-3-8(4-9)5(7)2-6(7)8/h5-6,9H,2-4H2,1H3	InChI=1S/C8H12O/c1-7-3-8(4-9)5(7)2-6(7)8/h5-6,9H,2-4H2,1H3/t5-,6+,7-,8-
