14
gdb 21210	7.00532	1.31814	1.12054	1.19	59.74	-0.1979	0.0481	0.246	1008.3036	0.109253	-412.067563	-412.059972	-412.059028	-412.099359	27.405	
C	 0.1009899478	 1.3837060027	-0.0369408724	-0.315574
N	-0.1335232519	-0.03539076	 0.1576613211	-0.368356
C	 0.5688193963	-0.7004147999	 1.1293536019	 0.444964
N	 1.2226695162	-0.0855738109	 2.103170914	-0.321554
N	 1.6916588107	-1.1639199199	 2.8340584585	-0.266705
C	 1.3072542418	-2.3025928426	 2.2459128453	 0.461832
O	 1.6429430601	-3.4943177845	 2.7512037393	-0.42164
N	 0.5955132392	-2.0755680819	 1.1650610933	-0.442535
H	 1.137430346	 1.6179432077	-0.3208302173	 0.116779
H	-0.5733948698	 1.7502412734	-0.8141524309	 0.118459
H	-0.115838153	 1.9177966448	 0.891614568	 0.149621
H	-0.26613321	-0.5868778471	-0.6756456966	 0.246279
H	 2.2435335383	-1.0263410942	 3.6618231732	 0.279609
H	 1.2492133385	-4.1598432976	 2.1730760924	 0.318821
101.2969	147.5328	197.0569	255.9938	322.5771	364.2167	408.8777	442.5553	492.5978	533.5616	713.2697	718.8903	774.934	790.1737	991.6172	1079.5745	1092.5842	1141.7387	1157.7155	1187.0429	1201.7294	1314.6663	1374.2353	1453.5334	1479.8907	1491.5989	1517.1911	1578.4125	1623.9647	1659.8859	2998.2078	3087.858	3130.3461	3628.6861	3695.4841	3806.9321
CNC1=NNC(O)=N1	CNc1n[nH]c(O)n1	
InChI=1S/C3H6N4O/c1-4-2-5-3(8)7-6-2/h1H3,(H3,4,5,6,7,8)	InChI=1S/C3H6N4O/c1-4-2-5-3(8)7-6-2/h1H3,(H3,4,5,6,7,8)
