19
gdb 105716	2.26944	1.48911	1.1889	1.5513	83.18	-0.2437	0.007	0.2508	1150.3035	0.157113	-385.859539	-385.850307	-385.849363	-385.893517	34.597	
C	 0.1569122958	 1.5308473271	 0.1442064268	-0.390486
C	 0.0236151981	 0.0201159399	-0.0539759064	-0.196734
C	 0.6522823925	-0.4884884967	-1.3701702103	 0.160831
O	 2.0508119888	-0.1428495993	-1.3794729503	-0.292186
C	 2.8519132881	-1.2947765556	-1.6295166645	-0.130659
C	 1.893142582	-2.4504990555	-1.6126297371	-0.098806
C	 0.6532330612	-2.0033232349	-1.4726462106	-0.1211
C	-0.022158105	 0.1051593358	-2.5390472255	 0.362472
C	-0.5896378314	 0.5695293065	-3.4918670242	-0.50544
H	 1.2089476099	 1.8265835581	 0.1322460553	 0.134593
H	-0.3590838436	 2.0785034551	-0.6498149576	 0.127491
H	-0.2757129673	 1.8324924375	 1.1026983702	 0.107623
H	 0.520654507	-0.5169570478	 0.7615289276	 0.099704
H	-1.032134465	-0.2759945942	-0.043519161	 0.099612
H	 3.3683598904	-1.2019163567	-2.5984631646	 0.110668
H	 3.6267649788	-1.369357732	-0.8529099227	 0.110573
H	 2.2040806443	-3.4821457535	-1.7180907944	 0.111247
H	-0.262148831	-2.5789750142	-1.4475435347	 0.113531
H	-1.0799670636	 0.9848046803	-4.3375748262	 0.197066
74.4398	103.3746	157.6384	163.2047	202.0993	241.4161	327.7713	395.9033	450.763	516.8619	534.3533	618.0337	625.154	657.571	738.3912	769.8088	784.0527	821.2905	936.3922	950.2759	957.0812	967.5397	1037.5074	1046.6487	1059.4766	1109.2493	1141.1315	1152.6839	1181.6928	1206.7527	1306.9911	1340.1089	1359.7626	1380.7897	1404.4794	1472.4964	1494.3656	1509.1232	1517.8799	1693.4456	2226.2429	2975.9346	3010.0131	3033.0355	3045.4705	3074.984	3113.4841	3128.2808	3210.8573	3238.1585	3500.1042
CCC1(OCC=C1)C#C	CC[C@]1(OCC=C1)C#C	
InChI=1S/C8H10O/c1-3-8(4-2)6-5-7-9-8/h1,5-6H,4,7H2,2H3	InChI=1S/C8H10O/c1-3-8(4-2)6-5-7-9-8/h1,5-6H,4,7H2,2H3/t8-/m1/s1
