17
gdb 93441	2.40203	1.58992	1.17826	4.1418	70.55	-0.2691	-0.0018	0.2673	1075.674	0.137499	-455.209754	-455.2014	-455.200456	-455.243088	30.853	
C	-0.069806905	 1.5292166313	 0.049334876	-0.404554
C	 0.0127548941	-0.0074772021	-0.0112563811	-0.066551
C	 0.7832700438	-0.5090975683	-1.2367946063	-0.185401
N	 2.1956341449	-0.2218605172	-1.0510721286	-0.357939
C	 2.8557847277	-0.3097549622	 0.1357479229	 0.463207
O	 4.0432393907	-0.2059547107	 0.2791404047	-0.366351
O	 2.0601853163	-0.5352431902	 1.2472029932	-0.254763
C	 0.675107167	-0.5602021428	 1.2254057384	 0.40066
N	 0.0256694246	-0.9853008086	 2.2181937206	-0.498359
H	 0.9227270033	 1.987371295	 0.0633477629	 0.139705
H	-0.6070780273	 1.9103995941	-0.8246693882	 0.121135
H	-0.6063825198	 1.8436112131	 0.947441479	 0.144367
H	-0.9979430869	-0.4196344334	-0.0278055588	 0.118361
H	 0.6093083733	-1.5851630737	-1.3795979473	 0.123621
H	 0.4389771346	 0.0046063557	-2.139033754	 0.122074
H	 2.8054917125	-0.1477634179	-1.8490225037	 0.267387
H	 0.6606878862	-1.2871853721	 2.9602588403	 0.233401
67.4602	104.4365	185.9767	198.821	246.9199	330.5164	373.0262	483.7192	499.9658	543.6972	560.0607	688.2358	723.9911	757.0183	821.8917	880.5372	921.228	933.1302	966.9625	1042.6133	1051.5248	1105.0237	1123.5671	1154.2847	1242.8583	1273.7833	1313.5729	1347.5333	1372.8321	1399.0505	1413.2335	1471.8354	1495.3673	1500.6949	1522.3824	1765.4555	1871.9926	3001.9349	3045.8726	3081.7287	3098.3182	3118.7333	3133.4171	3468.2489	3651.773
CC1CNC(=O)OC1=N	C[C@H]1CNC(=O)O[C]1[NH]	
InChI=1S/C5H8N2O2/c1-3-2-7-5(8)9-4(3)6/h3,6H,2H2,1H3,(H,7,8)	InChI=1S/C5H8N2O2/c1-3-2-7-5(8)9-4(3)6/h3,6H,2H2,1H3,(H,7,8)/t3-/m0/s1
