19
gdb 74756	2.84985	1.50273	1.30956	1.8173	76.58	-0.2221	0.0131	0.2352	1067.6251	0.157231	-422.986169	-422.977444	-422.9765	-423.018889	33.948	
C	 0.0177421818	 1.4572113338	 0.0476912432	-0.51928
C	-0.0217299909	-0.0272075195	-0.0250837738	 0.369047
C	-0.0603922765	-0.8878640528	-1.0480699559	-0.191218
C	-0.0209243214	-2.2374010505	-0.3324148748	-0.055817
O	-0.9502286513	-2.0136065357	 0.779217043	-0.287308
C	 0.0244351552	-0.9987353657	 1.1724883452	-0.089259
C	 1.1409052671	-2.0082135947	 0.7301927554	 0.432879
C	 1.3842652341	-3.1745347471	 1.6765182721	-0.479829
O	 2.3462929297	-1.4240505498	 0.3160935	-0.472693
H	 0.9430464143	 1.8009567722	 0.5272993376	 0.135641
H	-0.0326166248	 1.907098898	-0.9476812183	 0.127492
H	-0.8135002312	 1.8535726168	 0.6444700235	 0.128419
H	-0.0700917183	-0.7083726451	-2.113040602	 0.101957
H	-0.180771077	-3.1686225444	-0.8762850188	 0.069851
H	-0.0875723085	-0.6244310095	 2.1911452405	 0.070116
H	 0.4420881371	-3.6010152418	 2.0200450242	 0.148311
H	 1.9549007762	-3.9640094747	 1.1699805071	 0.108706
H	 1.9661558961	-2.8433947316	 2.5434315381	 0.121857
H	 3.0291564083	-2.1014933479	 0.320099464	 0.281127
131.0333	165.9674	174.4929	215.8712	246.652	296.9471	310.3961	384.5355	406.3943	541.6082	579.4061	590.0833	637.6659	693.5353	783.7068	826.27	847.403	863.5619	905.6912	927.5	962.995	1004.7575	1039.0436	1058.26	1087.2249	1122.877	1155.5438	1187.1894	1207.4564	1235.3689	1245.0438	1293.0387	1297.4058	1388.556	1399.2031	1411.2768	1478.3217	1484.5382	1489.0966	1503.5957	1687.4714	3016.8028	3021.6841	3063.8677	3084.531	3109.0207	3113.7639	3122.4364	3153.1872	3239.8753	3824.3714
CC1=CC2OC1C2(C)O	CC1=C[C@@H]2O[C@H]1[C@]2(C)O	
InChI=1S/C7H10O2/c1-4-3-5-7(2,8)6(4)9-5/h3,5-6,8H,1-2H3	InChI=1S/C7H10O2/c1-4-3-5-7(2,8)6(4)9-5/h3,5-6,8H,1-2H3/t5-,6+,7+/m0/s1
