20
gdb 95270	2.61625	1.75709	1.26225	1.6186	77.76	-0.2454	0.0235	0.2689	1046.4831	0.174094	-403.190526	-403.182892	-403.181948	-403.222659	30.117	
C	-0.1301890279	 1.5438300823	-0.0050726785	-0.399528
C	 0.1144218806	 0.0374770106	-0.040302646	 0.036156
C	 1.0242408174	-0.4550267542	-1.1820180125	-0.221312
C	 1.3835366764	-1.8921165651	-0.7677074248	-0.234857
C	 1.5458276941	-1.8267007528	 0.7575631075	 0.087368
O	 2.9283604827	-1.5527126448	 1.1235875347	-0.23482
C	 2.9223523932	-0.3154751383	 1.6690828944	 0.111967
N	 1.836291221	 0.3253578112	 1.7883286197	-0.266086
C	 0.7826501754	-0.5468516051	 1.2332692852	-0.023521
H	 0.8094856978	 2.0857556562	 0.1271640801	 0.132157
H	-0.6006891573	 1.8814394854	-0.9345001979	 0.104582
H	-0.7884917361	 1.8202534161	 0.8248616272	 0.113685
H	-0.8530897681	-0.4741595718	-0.1463125435	 0.069249
H	 0.5378794677	-0.4029833987	-2.1601291567	 0.09583
H	 1.9270283262	 0.1658263671	-1.2342622403	 0.108591
H	 0.5551907064	-2.5702105523	-1.0055342088	 0.101533
H	 2.2817156261	-2.2884683079	-1.2474455794	 0.111582
H	 1.2663861764	-2.7535435962	 1.2622255962	 0.088754
H	 3.8992183145	 0.0393206205	 1.9807443969	 0.137826
H	 0.0422610533	-0.7372221921	 2.0159240165	 0.080845
82.0924	180.0075	220.9759	233.1811	303.2888	396.5631	463.6265	503.0028	585.3116	623.0789	779.8537	806.7338	841.7934	856.7961	890.5796	918.6626	953.0735	956.7432	965.0977	980.2699	996.5539	1039.0398	1082.3465	1129.107	1136.8277	1154.4914	1187.8535	1209.8759	1264.4106	1294.1761	1310.4673	1312.1188	1333.7348	1342.7438	1358.9614	1371.9011	1379.2368	1410.7309	1478.7244	1492.7865	1498.4913	1499.7434	1701.6846	2997.4296	3035.7756	3038.0613	3041.6305	3057.2989	3089.8658	3093.8052	3099.7027	3106.1459	3123.8619	3207.9626
CC1CCC2OC=NC12	C[C@H]1CC[C@H]2OC=N[C@@H]12	
InChI=1S/C7H11NO/c1-5-2-3-6-7(5)8-4-9-6/h4-7H,2-3H2,1H3	InChI=1S/C7H11NO/c1-5-2-3-6-7(5)8-4-9-6/h4-7H,2-3H2,1H3/t5-,6+,7-/m0/s1
