20
gdb 99278	4.43299	0.79469	0.71306	4.1014	74.24	-0.2456	0.0469	0.2925	1633.6698	0.169203	-477.470188	-477.45958	-477.458636	-477.507075	36.999	
C	 0.2012672346	 1.0407851976	-0.4647187907	-0.330943
N	-0.2678453473	-0.0416655936	 0.3748253226	-0.345374
C	-1.2190495444	-0.9184914505	-0.0222420119	 0.520804
O	-1.8147222236	-0.8701614744	-1.0867412825	-0.428416
O	-1.4137573656	-1.8558592832	 0.9299885544	-0.27589
C	-2.5269595885	-2.7617806379	 0.7617107843	-0.104752
C	-2.2498451299	-3.9108154344	-0.214139262	 0.142687
C	-3.1763933985	-5.0915952238	 0.0739254658	-0.386879
O	-2.4458670535	-3.5407361095	-1.562260634	-0.450374
H	 0.0078674414	 2.0155253471	-0.0035128723	 0.130896
H	 1.2750828342	 0.9530731218	-0.6632375646	 0.13093
H	-0.3399606573	 0.9846121802	-1.4093848224	 0.173779
H	 0.1292762604	-0.1829039532	 1.2885432053	 0.258242
H	-2.6923301496	-3.1505689023	 1.7689819699	 0.112884
H	-3.409648663	-2.2021805796	 0.4360445466	 0.129593
H	-1.2052122687	-4.2283285443	-0.0426506622	 0.064724
H	-4.2249933213	-4.7785928176	 0.0303188899	 0.119082
H	-3.0254451676	-5.8604674122	-0.6875409621	 0.131186
H	-2.9770171738	-5.5284865367	 1.0574947535	 0.104991
H	-2.2270277979	-2.5985353836	-1.6470559174	 0.302831
39.182	57.859	80.0223	124.6947	151.5629	223.8066	225.9646	283.5002	311.0684	353.4926	451.1334	466.0511	497.8301	563.5805	596.0043	691.3015	782.749	843.8771	907.2582	948.0899	958.0368	1016.9897	1092.4597	1135.1102	1159.6395	1173.8955	1175.4837	1180.7194	1268.5801	1294.0913	1322.3439	1386.2405	1391.0824	1410.656	1447.6736	1467.7078	1472.5635	1491.9343	1497.6752	1500.4878	1502.3136	1577.0466	1779.033	2936.9675	3030.5095	3037.2429	3057.938	3082.5849	3107.1873	3120.6841	3126.6762	3158.4428	3654.0996	3658.4967
CNC(=O)OCC(C)O	CNC(=O)OC[C@@H](C)O	
InChI=1S/C5H11NO3/c1-4(7)3-9-5(8)6-2/h4,7H,3H2,1-2H3,(H,6,8)	InChI=1S/C5H11NO3/c1-4(7)3-9-5(8)6-2/h4,7H,3H2,1-2H3,(H,6,8)/t4-/m1/s1
