19
gdb 62077	3.36787	0.82867	0.77819	2.4215	73.03	-0.2477	-0.0378	0.2099	1518.7281	0.156556	-460.13663	-460.127056	-460.126112	-460.172443	34.318	
O	 1.3885545909	 1.5967301477	 0.1642647621	-0.432782
C	 0.629713725	 0.6792227589	-0.5723971884	 0.032835
C	 1.5741503815	-0.2168660533	-1.4087757612	-0.11328
O	 0.8843418434	-1.1107469128	-2.261417786	-0.250108
C	 0.5652468609	-0.5936193893	-3.5209406705	 0.147198
C	-0.4222385758	-1.370753222	-4.3253034648	-0.292787
C	-0.7983154963	-0.0031521382	-3.7868400723	-0.286272
C	-0.2256411755	-0.164110824	 0.3484185737	 0.139637
O	-0.2246842087	 0.0137680261	 1.5443587655	-0.26572
H	 1.1353048201	 1.4555873203	 1.0910818426	 0.296544
H	-0.052527758	 1.1982915205	-1.2667971182	 0.102757
H	 2.2498547135	 0.4404994799	-1.9714136392	 0.115449
H	 2.1842539613	-0.8232645961	-0.7313309743	 0.118473
H	 1.4172868649	-0.1524823217	-4.0381799718	 0.093063
H	-0.2467649724	-1.490917841	-5.3880570709	 0.120032
H	-0.868648078	-2.2297388307	-3.837579974	 0.12848
H	-1.5022837282	 0.018409026	-2.9627084573	 0.115191
H	-0.8789155635	 0.8309061282	-4.4754889465	 0.118655
H	-0.836555795	-0.9531656684	-0.1283081484	 0.112635
39.9561	64.3092	88.4119	130.8135	207.0242	278.6144	316.9933	359.1487	392.238	427.4663	475.8404	546.2442	731.9662	749.3153	807.7982	821.0329	833.6302	901.6796	959.3941	967.4332	1031.9619	1050.9749	1074.2738	1098.8022	1114.4955	1130.1396	1162.7469	1181.3779	1194.296	1239.3359	1268.8971	1306.1079	1319.8408	1377.5041	1389.1575	1412.9496	1445.2078	1454.8014	1494.319	1503.4758	1805.3892	2962.8365	2978.5612	3021.0251	3084.102	3102.3531	3135.8418	3144.2142	3220.5071	3236.1362	3679.2615
OC(COC1CC1)C=O	O[C@@H](COC1CC1)C=O	
InChI=1S/C6H10O3/c7-3-5(8)4-9-6-1-2-6/h3,5-6,8H,1-2,4H2	InChI=1S/C6H10O3/c7-3-5(8)4-9-6-1-2-6/h3,5-6,8H,1-2,4H2/t5-/m1/s1
