19
gdb 110678	3.02303	1.49774	1.3333	0.7937	73.33	-0.2239	0.0715	0.2954	1021.5458	0.161297	-422.984058	-422.976597	-422.975653	-423.015971	29.743	
O	-0.0573941049	 1.415871797	 0.1772355327	-0.427326
C	 0.0454801697	 0.0347193153	-0.1591759774	-0.115414
C	-1.3344791988	-0.578006129	 0.0072543733	 0.028283
C	-1.4928483409	-2.0964962509	-0.090702149	-0.143525
C	-1.1325256029	-2.7374073043	 1.2389237719	 0.115386
O	-0.2791760225	-2.0554067318	 2.1346991535	-0.272892
C	-0.9639880971	-0.8498825927	 2.5184345344	-0.08663
C	-2.0077288062	-0.6422895459	 1.4259052086	-0.084923
C	-2.4631474353	-2.0936198973	 1.1024054708	-0.128072
H	 0.8168914639	 1.808890575	 0.101928884	 0.286801
H	 0.3726882768	-0.0977698329	-1.2037721237	 0.08013
H	 0.770143902	-0.4837753488	 0.4819169977	 0.110072
H	-2.0266043892	-0.083984806	-0.6821627036	 0.081457
H	-1.5475134991	-2.6769652178	-1.0058206613	 0.080171
H	-1.0190154356	-3.8142364142	 1.2757350877	 0.101633
H	-1.4297425921	-0.9781823127	 3.5070768508	 0.090091
H	-0.2344464354	-0.0369355603	 2.5714391058	 0.118041
H	-2.7564745425	 0.1162993429	 1.645683339	 0.077759
H	-3.43471627	-2.5477921758	 1.2417740149	 0.088958
96.8698	156.5107	233.2654	276.2015	312.651	389.5774	496.2849	532.3757	668.9982	718.3424	763.5292	788.825	803.4809	832.3912	895.3342	925.9465	955.3043	986.4745	1010.0554	1019.6651	1046.7606	1050.4234	1066.0748	1072.6869	1085.7325	1130.042	1136.5267	1184.6685	1213.5697	1228.9899	1240.7767	1257.9306	1270.2686	1292.4016	1328.9557	1355.546	1382.131	1412.6379	1459.7812	1521.1779	1538.0926	2966.0463	2991.614	3033.8551	3059.8861	3091.1581	3134.8071	3160.9703	3189.5269	3205.5364	3830.5164
OCC1C2C3OCC1C23	OC[C@H]1[C@H]2[C@H]3OC[C@@H]1[C@@H]23	
InChI=1S/C7H10O2/c8-1-3-4-2-9-7-5(3)6(4)7/h3-8H,1-2H2	InChI=1S/C7H10O2/c8-1-3-4-2-9-7-5(3)6(4)7/h3-8H,1-2H2/t3-,4+,5-,6+,7-/m1/s1
