19
gdb 53614	4.14812	0.73931	0.65901	2.3146	81.09	-0.2326	0.0563	0.2889	1722.5871	0.156581	-422.976498	-422.966096	-422.965151	-423.014754	35.247	
C	-0.0126639553	 1.4262525857	-0.0649480238	-0.497816
C	 0.0018221688	-0.0292291493	-0.0322526072	 0.121069
C	 0.0186947091	-1.2327392255	-0.012915942	 0.015911
C	 0.01195834	-2.6903756525	 0.0196171557	-0.36051
C	-1.4006230698	-3.2590179378	 0.1846061223	 0.128998
O	-2.235560069	-3.053415274	-0.9781791911	-0.283655
C	-2.3269304034	-4.4685299226	-1.2358808	-0.096817
C	-1.5428624385	-4.7945130787	 0.0551887611	 0.033065
O	-0.3100366302	-5.4609810939	-0.0738389577	-0.418523
H	 0.7061231121	 1.8156107407	-0.7947380685	 0.144996
H	-1.0020027249	 1.8073864477	-0.3418049068	 0.147493
H	 0.2445191094	 1.8527147373	 0.9112174838	 0.142575
H	 0.4568249408	-3.1018009146	-0.892541458	 0.13541
H	 0.6256310252	-3.0585379953	 0.8520969533	 0.130806
H	-1.8686264267	-2.8279791848	 1.077641717	 0.085208
H	-3.3672201531	-4.8124504608	-1.2847325771	 0.098554
H	-1.7981468476	-4.7628342979	-2.1519533985	 0.101505
H	-2.1577217108	-5.2412974138	 0.8458743139	 0.080181
H	-0.474438956	-6.4070987199	-0.1271797565	 0.291548
15.5351	47.6173	55.9535	79.4241	191.3585	204.3097	215.0197	268.8331	382.4843	384.4973	406.0398	501.6008	522.4896	739.2999	788.356	840.3185	897.1759	902.1575	1014.3649	1032.6181	1053.2245	1055.685	1058.9415	1100.2239	1149.1253	1167.2929	1177.1101	1193.0939	1229.5231	1278.9704	1310.2061	1314.1404	1357.0175	1391.294	1415.1764	1436.8266	1455.3631	1479.2803	1479.7038	1514.2381	2376.1415	3008.0063	3018.9534	3024.0072	3028.6917	3037.074	3060.5914	3075.7757	3082.8516	3084.3699	3828.7145
CC#CCC1OCC1O	CC#CC[C@H]1OC[C@H]1O	
InChI=1S/C7H10O2/c1-2-3-4-7-6(8)5-9-7/h6-8H,4-5H2,1H3	InChI=1S/C7H10O2/c1-2-3-4-7-6(8)5-9-7/h6-8H,4-5H2,1H3/t6-,7-/m1/s1
