18
gdb 83604	2.28106	1.73495	1.23249	3.1693	73.36	-0.2366	0.0192	0.2558	1064.275	0.147067	-439.090861	-439.08199	-439.081046	-439.124416	32.418	
C	-0.0398799262	 1.3774240275	 0.1496930002	-0.349386
N	-0.0433302741	-0.0396089977	-0.1169403473	-0.063928
C	-1.1245436208	-1.0262212231	-0.0839399324	-0.081284
C	-1.5625928646	-1.4380898226	 1.3472044917	-0.237624
C	-0.4460129383	-2.5251932567	 1.3795240855	-0.275891
C	 0.012485253	-2.1357313406	-0.0515785155	 0.295507
O	 0.1920394765	-3.2014333692	-0.9149040417	-0.469184
C	 0.9954609305	-0.9426540317	-0.0913067401	 0.300741
O	 2.1930896897	-0.8019278603	-0.0994578835	-0.380282
H	 1.0015493754	 1.7046862959	 0.2002649416	 0.161036
H	-0.5482851205	 1.9344494016	-0.6452231928	 0.130981
H	-0.5303434879	 1.6098283682	 1.1036856217	 0.128254
H	-1.8697292248	-0.9277167354	-0.8746926878	 0.085514
H	-1.4847427495	-0.6444391524	 2.0940268918	 0.105579
H	-2.5710559888	-1.8550671802	 1.38874058	 0.112015
H	 0.3138119956	-2.4534980852	 2.1603875709	 0.117119
H	-0.8481419509	-3.5406343106	 1.3731060465	 0.124001
H	 0.7810778057	-2.9295534375	-1.6271891988	 0.296832
103.6826	118.9431	148.4877	165.5066	220.1988	236.235	296.5319	362.0307	401.6009	533.4616	600.1661	662.1518	725.9087	768.959	836.817	850.6762	903.5071	951.2413	969.6049	1011.4215	1050.1933	1079.0999	1096.8044	1124.0148	1153.3561	1211.0663	1234.7177	1262.7542	1278.306	1300.442	1346.8231	1366.4371	1403.5501	1446.6387	1470.7102	1484.0577	1489.8479	1514.2553	1863.1025	3014.7054	3067.1265	3070.5943	3074.2798	3100.8701	3115.1435	3127.3302	3133.4078	3808.0846
CN1C2CCC2(O)C1=O	CN1[C@@H]2CC[C@]2(O)C1=O	
InChI=1S/C6H9NO2/c1-7-4-2-3-6(4,9)5(7)8/h4,9H,2-3H2,1H3	InChI=1S/C6H9NO2/c1-7-4-2-3-6(4,9)5(7)8/h4,9H,2-3H2,1H3/t4-,6-/m1/s1
