17
gdb 97278	2.64853	1.11503	0.79229	1.3621	76.1	-0.2591	-0.037	0.2221	1415.0859	0.133252	-455.198084	-455.188225	-455.187281	-455.233679	33.808	
C	 0.0133551636	 1.4411798334	 0.0482378943	-0.31829
N	 0.0070362796	-0.0040301046	-0.0589092263	-0.234709
C	 0.5203942325	-0.6592302931	 0.888523888	 0.122737
N	 0.5688717538	-2.0793039524	 0.8886534681	-0.214033
C	 0.0212710564	-2.7635063364	-0.2130543286	 0.173034
O	-0.0087290534	-3.9600492312	-0.3490872578	-0.304679
C	 1.1808248366	-2.6951275326	 2.029077634	 0.421165
C	 1.2570404579	-4.1982495151	 2.077189529	-0.472606
O	 1.6151653561	-1.9949727872	 2.9135194471	-0.320852
H	 0.5458085206	 1.8650361279	-0.8102599687	 0.136876
H	-1.0163919012	 1.8118486127	-0.000767897	 0.136876
H	 0.4796115322	 1.8142879639	 0.9725508954	 0.110279
H	 0.9722811534	-0.2390293769	 1.7880511609	 0.149288
H	-0.3808071965	-2.0472530802	-0.9414193945	 0.148676
H	 1.8104054458	-4.5936114938	 1.223064822	 0.163364
H	 1.7508152315	-4.4616175857	 3.0126212453	 0.139494
H	 0.2627944609	-4.6463875385	 2.0251491789	 0.16338
49.6293	72.9092	136.9548	172.3053	187.2925	210.1422	230.9818	271.5208	367.9553	385.1639	416.5101	433.4664	602.0562	606.7591	737.5222	804.6356	986.883	1009.4252	1028.0502	1060.8949	1064.7796	1144.3545	1144.8125	1157.2605	1259.4818	1280.3126	1392.8456	1400.422	1436.2437	1445.0949	1446.5016	1470.0508	1479.8106	1500.283	1759.747	1804.4364	1818.5166	2987.7638	3065.9838	3068.3064	3071.8979	3087.5463	3125.8265	3140.0084	3167.5288
CN=CN(C=O)C(C)=O	CN=CN(C=O)C(=O)C	
InChI=1S/C5H8N2O2/c1-5(9)7(4-8)3-6-2/h3-4H,1-2H3	InChI=1S/C5H8N2O2/c1-5(9)7(4-8)3-6-2/h3-4H,1-2H3
