18
gdb 88726	3.30523	1.09849	0.90178	2.3979	79.65	-0.2283	0.0251	0.2533	1285.1831	0.14559	-401.854639	-401.84575	-401.844806	-401.888611	33.815	
O	-0.0623571608	 1.4989015217	 0.1896413204	-0.431712
C	 0.0938496033	 0.1220452087	 0.0643741715	 0.128197
C	-0.3615816238	-0.8036716053	 1.1653248176	-0.338293
C	-1.1324770121	-0.7365040493	-0.1382177298	-0.001529
N	-2.3634125421	 0.009069712	-0.1153850602	-0.108666
C	-3.2435240451	-0.0854358055	-1.2671833727	-0.247218
C	-3.6444382554	-0.7124289197	 0.0373930322	-0.177485
C	-3.6795977505	-2.1422497599	 0.1684749829	 0.34535
C	-3.7229118078	-3.3357583068	 0.3099606481	-0.464909
H	-1.0170323219	 1.6473593519	 0.2577099592	 0.285791
H	 0.9955497019	-0.1301449651	-0.484804112	 0.101801
H	 0.2029218731	-1.7054757888	 1.375091944	 0.113834
H	-0.8251139494	-0.3381401745	 2.0283758494	 0.121306
H	-1.084087827	-1.5935216159	-0.8082091087	 0.091276
H	-3.7197095819	 0.8373053532	-1.5865735499	 0.126496
H	-2.9613609451	-0.7648616858	-2.068337987	 0.130136
H	-4.3639027487	-0.1816775589	 0.6564589066	 0.121977
H	-3.7612935167	-4.390261112	 0.4301666383	 0.203649
48.3669	100.0006	174.8794	188.9536	242.559	316.9546	371.8056	449.401	475.8706	530.0297	547.5348	604.9163	652.6533	671.6711	745.9062	786.9569	801.4679	831.6524	887.144	963.2987	1016.3833	1021.7328	1047.7927	1065.8972	1084.9558	1113.377	1122.2909	1130.8498	1144.2075	1186.3412	1224.7681	1313.8656	1348.0758	1373.7444	1381.2011	1434.542	1482.3058	1502.048	2236.2141	3103.8977	3108.8489	3132.7178	3134.58	3160.5072	3195.3374	3227.1064	3502.7855	3718.1461
OC1CC1N1CC1C#C	O[C@H]1C[C@H]1N1C[C@H]1C#C	
InChI=1S/C7H9NO/c1-2-5-4-8(5)6-3-7(6)9/h1,5-7,9H,3-4H2	InChI=1S/C7H9NO/c1-2-5-4-8(5)6-3-7(6)9/h1,5-7,9H,3-4H2/t5-,6-,7+,8?/m1/s1
