21
gdb 67124	2.39817	1.77212	1.57814	0.6615	88.63	-0.2195	-0.0001	0.2194	1008.8002	0.184276	-349.901652	-349.893961	-349.893017	-349.933163	31.801	
C	-0.1832406995	 1.6123741516	-0.1776983847	-0.506953
C	-0.0528389595	 0.1296298149	 0.0143629082	 0.272185
C	 0.4826279172	-0.9570068418	-0.9019923293	-0.120152
C	 1.5959379739	-1.3285887907	 0.121934533	-0.283733
C	 0.7085904738	-0.6062649602	 1.1225620651	 0.108878
C	 0.0605729367	-1.1799594894	 2.1393394649	-0.131808
C	-1.4444939458	-1.1189777385	 2.0717224599	-0.250287
C	-1.7534615325	-1.7338012482	 0.6608188028	-0.223546
C	-1.0015812098	-0.943729897	-0.4249869197	-0.060229
H	 0.7924196113	 2.1107142544	-0.146507191	 0.118922
H	-0.6448174173	 1.8373166829	-1.1452917744	 0.115607
H	-0.8080353141	 2.0659576263	 0.6007367409	 0.120408
H	 0.6703014132	-0.8729207693	-1.9691207987	 0.081502
H	 1.8238339475	-2.3811051041	 0.3205650113	 0.093293
H	 2.5142839303	-0.8019055258	-0.1632164267	 0.103155
H	 0.522406952	-1.9891427692	 2.7017691646	 0.086276
H	-1.9274709272	-1.6885179971	 2.869829893	 0.094087
H	-1.8383332859	-0.0981236542	 2.1083352385	 0.110498
H	-1.4827779254	-2.795536558	 0.6682922744	 0.102299
H	-2.8292049829	-1.6875713038	 0.4508138137	 0.091733
H	-1.6321876359	-0.6624608328	-1.2684179357	 0.077864
169.4926	193.366	213.6937	250.6832	314.1359	415.4885	467.2402	478.8774	530.2889	604.491	673.5624	708.7143	786.6323	814.4889	854.319	873.5463	890.484	907.2436	940.8046	959.7106	972.9244	1017.151	1042.177	1049.902	1081.3373	1105.6261	1114.292	1132.7266	1181.618	1190.7506	1226.3253	1237.5068	1252.0945	1297.7036	1327.9805	1329.3346	1350.402	1412.5335	1445.6069	1483.247	1488.314	1490.5521	1493.6897	1498.7573	1691.8175	3019.9709	3023.9237	3026.4311	3048.3948	3066.1507	3076.3531	3078.9594	3092.1349	3100.0422	3106.4382	3143.1286	3144.3279
CC12C3CC1=CCCC23	C[C@@]12[C@H]3C[C]1[CH]CC[C@@H]23	
InChI=1S/C9H12/c1-9-6-3-2-4-7(9)8(9)5-6/h3,7-8H,2,4-5H2,1H3	InChI=1S/C9H12/c1-9-6-3-2-4-7(9)8(9)5-6/h3,7-8H,2,4-5H2,1H3/t7-,8+,9-/m1/s1
