15
gdb 18218	4.26701	1.82942	1.48974	2.1035	65.61	-0.23	-0.03	0.2	835.9488	0.118971	-362.641142	-362.634344	-362.6334	-362.672885	25.234	
O	-0.300652857	 0.3353342244	-0.6731162092	-0.244708
C	 0.1327265628	 0.9532757659	 0.2633837006	 0.149309
C	 1.2828932568	 1.948582087	 0.1687331416	-0.110692
C	 1.3213021474	 2.7644752923	-1.1072901683	-0.089423
C	 1.3888523522	 4.0625498223	-0.8155636509	-0.080085
C	 1.3424586219	 4.2636302537	 0.661513707	-0.062583
C	 0.0864206153	 3.7992566335	 1.3183956386	-0.247692
N	 1.2693433396	 2.9212096843	 1.2861811632	-0.11455
H	-0.2679028357	 0.8202029974	 1.2927904278	 0.096562
H	 2.1951820562	 1.3348913755	 0.2670356167	 0.121838
H	 1.2608100942	 2.3130528319	-2.0883994741	 0.123545
H	 1.4392479738	 4.8789890117	-1.5250110914	 0.110773
H	 1.9760471613	 5.004929045	 1.1404621172	 0.102061
H	-0.1760779732	 4.1454969019	 2.3139807761	 0.122208
H	-0.7555320656	 3.5807890632	 0.6647684352	 0.123439
41.1456	159.9243	189.3313	346.2198	437.7899	486.1623	619.0666	695.8326	756.4395	772.6549	787.4124	820.7448	871.1675	933.4444	959.2864	1015.6217	1034.5446	1054.1367	1089.4103	1101.6126	1107.7719	1128.983	1158.4271	1251.9389	1274.5391	1301.4331	1327.5648	1366.659	1408.0216	1491.9229	1668.4295	1831.1817	2890.521	2954.7762	3099.607	3147.5257	3192.7647	3210.3096	3237.9606
O=CC1C=CC2CN12	O=C[C@H]1C=C[C@H]2CN12	
InChI=1S/C6H7NO/c8-4-6-2-1-5-3-7(5)6/h1-2,4-6H,3H2	InChI=1S/C6H7NO/c8-4-6-2-1-5-3-7(5)6/h1-2,4-6H,3H2/t5-,6+,7?/m0/s1
