18
gdb 38070	3.55986	1.39958	1.23456	2.4312	76.44	-0.2384	0.0015	0.2399	1042.5108	0.14962	-401.898875	-401.891638	-401.890694	-401.930875	28.455	
C	 0.0648879623	 1.5311500031	-0.1143043652	-0.109821
O	 1.4679026891	 1.5580022831	 0.2222938729	-0.276231
C	 1.4699787967	 0.1459676289	 0.4941357314	-0.130328
C	 0.0189354947	-0.0175615174	-0.031179034	 0.30403
C	-1.0126563089	-0.6770855659	 0.8488465625	-0.174298
C	-1.6648988438	-1.6633274703	 0.2276506025	-0.05994
C	-1.2006345559	-1.7850806005	-1.1856360538	-0.096724
N	-1.4701941813	-0.5446091801	-1.9769001767	-0.338041
C	-0.1451533978	-0.7535679711	-1.3565972379	-0.142053
H	-0.5457842879	 2.0484526928	 0.6370517393	 0.097382
H	-0.1431078002	 1.9555644252	-1.1022933138	 0.112107
H	 2.2475044049	-0.3872372894	-0.0684283282	 0.098709
H	 1.5927190158	-0.0705677206	 1.5639864907	 0.094663
H	-1.2008001659	-0.333952033	 1.8606826733	 0.102256
H	-2.4540851699	-2.2707795163	 0.6535681223	 0.104358
H	-1.1885008898	-2.7382127498	-1.7027336452	 0.092626
H	-1.3962472821	-0.771249572	-2.9680422927	 0.228889
H	 0.71863839	-0.9000669766	-1.9972413173	 0.092417
73.6621	131.4415	214.3076	336.6622	390.5436	422.997	481.3167	593.9976	731.4042	773.3882	804.1349	833.8162	850.6574	866.1837	908.8245	921.992	948.8967	973.1297	978.5556	986.7635	1039.125	1049.9384	1081.5574	1106.5424	1140.6524	1150.9805	1158.4225	1161.2262	1199.7979	1249.808	1270.6991	1301.3781	1334.3509	1371.493	1393.9725	1410.3201	1508.2001	1534.066	1659.9065	2996.9268	3014.6822	3042.9053	3071.0933	3159.2896	3174.3053	3184.6973	3215.4371	3470.9757
C1OCC11C=CC2NC12	C1OCC21C=C[C@H]1N[C@@H]21	
InChI=1S/C7H9NO/c1-2-7(3-9-4-7)6-5(1)8-6/h1-2,5-6,8H,3-4H2	InChI=1S/C7H9NO/c1-2-7(3-9-4-7)6-5(1)8-6/h1-2,5-6,8H,3-4H2/t5-,6-/m1/s1
