22
gdb 78608	2.84907	1.41961	1.12885	1.7768	87.08	-0.2218	0.0918	0.3135	1199.4618	0.193038	-367.131541	-367.122565	-367.121621	-367.16448	35.096	
C	-0.1169667669	 1.6166399209	-0.100809538	-0.42665
C	-0.063424361	 0.0970381257	-0.0679134432	-0.008795
C	 1.1863369785	-0.6215664279	-0.5971506862	-0.051798
N	 2.0143545019	-0.2306870936	 0.6559168509	-0.177734
C	 2.445066903	-1.6902319121	 0.796681787	 0.016093
C	 2.8892951377	-2.1253589517	 2.1797621363	-0.422618
C	 0.9984911187	-1.8738513017	 0.320915921	 0.312628
C	 0.2133341401	-3.1342173013	 0.0597982935	-0.531213
C	 0.5830198232	-0.6028446256	 1.1382496553	-0.06715
H	 0.8339527235	 2.0430414629	 0.227973906	 0.140917
H	-0.3261857128	 1.9795330604	-1.1132247862	 0.111247
H	-0.9096335511	 1.994603028	 0.5543611239	 0.110931
H	-1.0086677864	-0.3531760027	-0.3917271831	 0.06539
H	 1.6497547564	-0.5915070183	-1.5870534991	 0.071268
H	 3.2125078093	-1.9420262197	 0.0511596681	 0.061478
H	 2.1326521607	-1.9119312585	 2.941145289	 0.114356
H	 3.0927405255	-3.2016223673	 2.2002823003	 0.115154
H	 3.8096895831	-1.6048385282	 2.4643923734	 0.126973
H	 0.14002572	-3.7463838401	 0.9656407901	 0.122165
H	-0.8056358269	-2.9112735029	-0.2748737409	 0.121851
H	 0.6944842239	-3.7415714053	-0.7150590647	 0.120931
H	 0.3151479095	-0.5351382709	 2.1946019864	 0.074577
166.614	189.3106	192.0385	195.7427	202.9948	221.1531	262.5154	326.4328	379.8668	512.7358	561.3171	631.7419	724.1497	739.7299	816.3031	846.3907	855.0163	861.4725	877.1652	894.4454	1020.6398	1033.2106	1034.3408	1057.1123	1083.9244	1097.5316	1107.1058	1119.2609	1138.1244	1167.949	1192.6033	1226.0322	1237.3751	1238.254	1285.2547	1331.1603	1392.9836	1403.2561	1404.3913	1408.6665	1422.7941	1486.3056	1489.6879	1493.4234	1494.1443	1495.805	1503.5566	3006.3262	3024.7974	3031.3949	3032.9671	3042.3223	3076.4933	3089.7383	3090.7511	3091.2017	3093.9907	3098.8367	3107.7868	3125.2662
CC1C2N3C(C)C2(C)C13	C[C@H]1[C@H]2N3[C@@H](C)[C@@]2(C)[C@H]13	
InChI=1S/C8H13N/c1-4-6-8(3)5(2)9(6)7(4)8/h4-7H,1-3H3	InChI=1S/C8H13N/c1-4-6-8(3)5(2)9(6)7(4)8/h4-7H,1-3H3/t4-,5-,6+,7-,8+/m0/s1
