20
gdb 74954	2.99321	1.57285	1.39456	1.7402	78.7	-0.2368	0.0318	0.2686	1031.8928	0.174108	-403.192426	-403.184872	-403.183928	-403.224263	30.253	
C	 0.0295563622	 1.5095952968	 0.0673875825	-0.455442
C	-0.0086491989	 0.0167193681	-0.0667154334	 0.38905
N	-0.03325122	-0.5673883458	-1.1951249671	-0.307854
C	-0.0336880458	-2.0381577234	-1.1787745079	 0.020707
C	-1.4425981037	-2.5639184158	-0.8250291156	-0.207188
C	-1.4845541097	-2.4953527594	 0.735626124	-0.221228
C	-0.073111272	-2.0296350229	 1.1387237244	 0.118275
C	 0.8135907135	-2.5396043423	 0.0020601691	-0.250085
O	-0.0122139754	-0.5826926775	 1.1599927529	-0.279521
H	 0.9225331373	 1.8170055159	 0.6212559805	 0.136198
H	 0.0347025928	 1.965201335	-0.9218993498	 0.143442
H	-0.8380949963	 1.863287414	 0.6336947794	 0.134756
H	 0.3121375002	-2.3884336373	-2.153683004	 0.069062
H	-2.2177498859	-1.9561511301	-1.296241349	 0.11145
H	-1.5667541054	-3.5933341133	-1.1771860554	 0.09523
H	-2.2374916726	-1.8019577197	 1.1173279848	 0.112646
H	-1.693809618	-3.4764372759	 1.1730661358	 0.102008
H	 0.225126403	-2.3356353519	 2.1423055145	 0.080741
H	 0.8767306277	-3.6325159888	 0.0241650346	 0.099005
H	 1.823603707	-2.1231327058	 0.0233485696	 0.108748
129.6547	137.5404	178.4171	321.6606	379.1737	388.524	455.2521	475.3379	591.4991	648.9968	755.972	779.5841	811.8984	831.1658	853.5467	894.7232	929.0855	934.5582	961.1007	984.9621	1025.542	1052.5875	1060.5754	1074.8751	1100.7634	1172.9105	1211.0494	1229.1234	1244.9553	1260.5369	1265.8597	1305.2986	1339.1212	1347.9165	1361.1094	1384.5292	1407.7839	1475.4978	1476.7754	1478.2279	1480.6597	1501.2563	1730.163	3046.3405	3046.6112	3051.9525	3060.3352	3083.6944	3099.8546	3102.8099	3107.216	3111.0808	3118.7231	3166.2139
CC1=NC2CCC(C2)O1	CC1=N[C@@H]2CC[C@@H](C2)O1	
InChI=1S/C7H11NO/c1-5-8-6-2-3-7(4-6)9-5/h6-7H,2-4H2,1H3	InChI=1S/C7H11NO/c1-5-8-6-2-3-7(4-6)9-5/h6-7H,2-4H2,1H3/t6-,7+/m1/s1
