16
gdb 83899	2.5485	1.55929	1.23884	3.4243	69.89	-0.2698	0.0057	0.2755	1038.8384	0.124101	-437.871714	-437.863606	-437.862662	-437.904575	29.616	
C	-0.0695013453	 1.5729478978	 0.0549796076	-0.410802
C	 0.0483870041	 0.0691135688	 0.0355338236	-0.109369
C	 1.3457445129	-0.6531681338	-0.2298567178	 0.007184
O	 2.5301519998	 0.0923528775	-0.1146006444	-0.251665
C	 2.8552953688	 0.0849266215	 1.2655191766	 0.00812
O	 1.620550952	 0.0726845954	 1.9687563281	-0.284416
C	 0.7512536462	-0.690140971	 1.165061471	 0.233729
C	 0.1826572116	-1.8597773874	 1.772031372	 0.247788
N	-0.2971802327	-2.8012312285	 2.2428233781	-0.343662
H	 0.8356997335	 2.0382640396	 0.4452067133	 0.141651
H	-0.2363704352	 1.9474433011	-0.9595275256	 0.131195
H	-0.9131114852	 1.8847454978	 0.6772506946	 0.134555
H	-0.8187507802	-0.464223128	-0.3475881544	 0.116802
H	 1.3991225984	-1.523990104	-0.8740344648	 0.130548
H	 3.4483655922	-0.8084117409	 1.5172846767	 0.11322
H	 3.395588759	 1.0005449042	 1.5152304854	 0.135123
112.1916	129.0271	161.9794	184.281	203.197	296.4699	427.3243	487.3793	554.9331	572.2636	641.9507	719.2833	761.1997	818.5525	899.4759	943.8735	991.3301	1016.2093	1039.2052	1074.3476	1105.3973	1124.0661	1144.8564	1175.5013	1222.7866	1225.8818	1241.3758	1333.8504	1409.0607	1419.699	1429.3447	1488.0769	1496.3544	1535.0838	2350.9897	2983.8812	3051.7453	3113.0199	3117.0724	3140.1557	3155.4536	3176.097
CC1C2OCOC12C#N	C[C@H]1[C@H]2OCO[C@@]12C#N	
InChI=1S/C6H7NO2/c1-4-5-6(4,2-7)9-3-8-5/h4-5H,3H2,1H3	InChI=1S/C6H7NO2/c1-4-5-6(4,2-7)9-3-8-5/h4-5H,3H2,1H3/t4-,5+,6-/m0/s1
