17
gdb 128491	2.03496	1.80023	1.01421	2.9276	72.31	-0.2299	0.0092	0.2391	1163.1559	0.135071	-455.131879	-455.122601	-455.121657	-455.166015	33.177	
C	 0.1398034081	 1.3953599572	 0.1577478636	-0.259897
O	-0.0723278668	-0.0097881638	-0.0033178298	-0.283301
C	 0.5511051042	-0.5447403346	-1.0912388513	 0.05729
C	 0.0022794308	-0.9564772133	-2.2657875195	 0.3561
C	-1.3904543932	-0.936726432	-2.779383141	-0.497866
O	 0.9645024949	-1.4803207031	-3.0455824404	-0.228758
N	 2.2025497383	-1.426018107	-2.3734227616	-0.237931
C	 1.9407007457	-0.8666982196	-1.2155977011	 0.344864
N	 2.9214126339	-0.5861666254	-0.2785865758	-0.597529
H	 1.2081434711	 1.6300657179	 0.2314823479	 0.134507
H	-0.2903260453	 1.9549524923	-0.68199712	 0.120349
H	-0.3638324749	 1.6818438142	 1.0832545655	 0.131332
H	-1.4690319709	-0.3367966683	-3.6921045873	 0.146781
H	-1.7368620632	-1.9479044118	-3.0172180616	 0.149176
H	-2.0492388301	-0.5117131647	-2.0190490458	 0.144818
H	 3.7845598789	-1.084607767	-0.4529362231	 0.261222
H	 2.6028287184	-0.7143291011	 0.6728305014	 0.258844
81.4682	127.9372	150.6951	162.9915	190.7051	243.4689	249.7942	343.5121	364.4152	465.1628	535.5353	583.8696	616.8924	690.3474	708.6046	781.3005	798.5001	920.997	1007.7013	1036.9029	1064.9452	1077.6491	1144.2312	1179.4311	1209.233	1269.1518	1332.1819	1409.9652	1471.2722	1476.7494	1486.2788	1486.9627	1507.6616	1509.0674	1576.3869	1639.2744	1704.1267	3014.1073	3039.714	3080.2214	3096.3385	3131.5431	3135.2797	3543.9574	3642.933
COC1=C(C)ON=C1N	COc1c(C)onc1N	
InChI=1S/C5H8N2O2/c1-3-4(8-2)5(6)7-9-3/h1-2H3,(H2,6,7)	InChI=1S/C5H8N2O2/c1-3-4(8-2)5(6)7-9-3/h1-2H3,(H2,6,7)
