17
gdb 27260	3.22727	1.51397	1.05124	2.4238	76.03	-0.1728	0.05	0.2228	1100.2011	0.138962	-418.02786	-418.019917	-418.018973	-418.060272	30.306	
N	 0.1865086823	 1.4160261616	-0.1009305476	-0.607238
C	-0.0024087547	 0.0200658821	-0.0287689409	 0.118917
C	-1.1093759181	-0.7931135348	-0.0560032563	 0.166012
C	-2.6083289275	-0.8234287089	 0.0149087276	-0.39764
C	-2.858959062	-2.3400139667	-0.2649014874	-0.085066
O	-1.6353142071	-3.0605505757	 0.0159937479	-0.29132
C	-0.6407342729	-2.1284097571	-0.0324099579	 0.342176
C	 0.7235001594	-2.1501027027	 0.008231904	-0.260859
N	 1.1012707601	-0.8013643668	 0.0253579332	-0.277824
H	 0.4516828972	 1.8157360587	 0.7949994729	 0.24351
H	-0.6637894833	 1.8753481028	-0.4024596778	 0.244381
H	-2.9903486009	-0.5322989317	 1.0023292143	 0.110182
H	-3.1243289137	-0.2060919252	-0.7276583637	 0.106665
H	-3.6477787273	-2.7743624906	 0.353451179	 0.11135
H	-3.1137776021	-2.4938967231	-1.3212802795	 0.106928
H	 1.4493760605	-2.9417428633	 0.0640656311	 0.115971
H	 2.0268358102	-0.4691131187	-0.184479969	 0.253852
113.998	127.3906	189.9142	239.5257	273.6097	323.2248	447.3993	537.342	591.2556	608.0859	638.476	639.2983	690.8463	756.0442	793.8303	821.7443	860.2109	938.158	1004.7332	1047.9872	1067.7794	1081.0394	1144.9532	1196.5889	1212.8031	1243.9249	1276.7198	1303.1485	1322.3609	1374.9231	1442.673	1489.6884	1500.7655	1512.5444	1607.3921	1642.6419	1688.7151	3011.4523	3020.1625	3063.6926	3103.9124	3285.1216	3489.3935	3597.9029	3674.0458
NC1=C2CCOC2=CN1	Nc1c2CCOc2c[nH]1	
InChI=1S/C6H8N2O/c7-6-4-1-2-9-5(4)3-8-6/h3,8H,1-2,7H2	InChI=1S/C6H8N2O/c7-6-4-1-2-9-5(4)3-8-6/h3,8H,1-2,7H2
