16
gdb 123946	3.53859	1.63294	1.15607	1.5098	70.88	-0.1928	0.0303	0.2232	1005.4187	0.128659	-434.074132	-434.067142	-434.066198	-434.105384	27.66	
C	-0.0100581412	 1.4305151881	 0.012555246	-0.176987
C	 1.4342757854	 1.9565514229	 0.0071193865	-0.092543
O	 2.1341751169	 1.5803969037	 1.1968133002	-0.286015
C	 1.9878115391	 0.2449241128	 1.4316035844	 0.239633
C	 2.7759884175	-0.6160942486	 2.1617190361	-0.170239
N	 2.1920442262	-1.8377299375	 2.0222998284	-0.19237
N	 1.0704861485	-1.8265202342	 1.2634195204	-0.332906
C	 0.9468958379	-0.5537980467	 0.9025329891	 0.316517
N	-0.0901345615	-0.0264606028	 0.1310594222	-0.399952
H	-0.5385046323	 1.8890115089	 0.8585403439	 0.123226
H	-0.5185687422	 1.7478996555	-0.9018430985	 0.110397
H	 1.9718974827	 1.5699826465	-0.8711543753	 0.100134
H	 1.4488422931	 3.0487803396	-0.0200141446	 0.114198
H	 3.6734911924	-0.4609963067	 2.7368700517	 0.132905
H	 2.4836609018	-2.7043602773	 2.4362588453	 0.273112
H	-0.2501617343	-0.5173250843	-0.7371975758	 0.240891
110.3582	238.4067	290.998	335.6421	405.9213	437.7322	467.3581	527.9067	554.9256	639.5973	701.6594	721.3641	747.8659	766.5753	881.6156	945.709	955.0922	1043.2838	1062.6173	1077.7138	1133.3199	1190.2301	1234.0615	1272.8326	1285.2771	1328.7307	1385.4452	1399.9441	1405.3357	1460.16	1480.1951	1487.8757	1496.0262	1572.5645	1648.2912	2998.8381	3025.0602	3097.4383	3104.8124	3273.0803	3582.5952	3700.4109
C1COC2=CNN=C2N1	C1COc2c[nH]nc2N1	
InChI=1S/C5H7N3O/c1-2-9-4-3-7-8-5(4)6-1/h3H,1-2H2,(H2,6,7,8)	InChI=1S/C5H7N3O/c1-2-9-4-3-7-8-5(4)6-1/h3H,1-2H2,(H2,6,7,8)
