16
gdb 24446	3.50524	1.66652	1.16965	3.0931	70.43	-0.1767	0.0436	0.2203	996.9594	0.128917	-434.090404	-434.083598	-434.082653	-434.121457	27.213	
C	-0.0000822065	 1.4155422692	 0.058347631	-0.186754
C	 1.4536960681	 1.9333019104	-0.0045445456	-0.094316
O	 2.2259569895	 1.4786662418	 1.1210702022	-0.280842
C	 1.9640463056	 0.1660194003	 1.323930374	 0.37192
C	 0.9415358884	-0.5933776962	 0.8280255373	 0.197922
N	-0.109836968	-0.0451157338	 0.0659344535	-0.393086
N	 1.0628871738	-1.8927039553	 1.2565227738	-0.321499
C	 2.1443903471	-1.9110046863	 2.0024099016	-0.012577
N	 2.736978627	-0.6730894236	 2.0874027631	-0.366022
H	-0.4587715661	 1.8046661267	 0.9760254682	 0.125336
H	-0.5607403359	 1.8202260376	-0.7888227385	 0.110534
H	 1.9372931466	 1.5878417153	-0.9284901161	 0.106073
H	 1.4854981439	 3.0245470708	 0.0311875497	 0.117161
H	-0.1610822451	-0.4384888527	-0.8673114629	 0.231145
H	 2.5495664188	-2.771739602	 2.5109761045	 0.126596
H	 3.5554683729	-0.4169976023	 2.612723144	 0.268408
120.6363	237.0957	335.6691	353.6527	422.709	441.7844	472.4326	531.5615	652.5482	664.0439	709.6281	720.1626	745.3543	781.9295	869.8088	937.515	954.192	1037.1923	1056.1751	1093.6539	1129.639	1182.1053	1268.0778	1273.6779	1282.5739	1327.2403	1381.347	1382.3806	1395.247	1445.7789	1471.7606	1483.0667	1504.2419	1540.2015	1675.5036	3013.4977	3033.3472	3098.4813	3110.5598	3260.455	3519.3422	3671.7457
C1COC2=C(N1)N=CN2	C1COc2c(N1)nc[nH]2	
InChI=1S/C5H7N3O/c1-2-9-5-4(6-1)7-3-8-5/h3,6H,1-2H2,(H,7,8)	InChI=1S/C5H7N3O/c1-2-9-5-4(6-1)7-3-8-5/h3,6H,1-2H2,(H,7,8)
