19
gdb 54610	2.52343	1.43225	0.93504	3.781	82.77	-0.195	-0.0037	0.1913	1240.6758	0.160524	-419.266255	-419.257057	-419.256112	-419.300172	34.287	
C	 0.1184341228	 1.5159559025	 0.0176773108	-0.514575
C	-0.0164680821	 0.0292977075	 0.0247663709	 0.277564
C	-1.1369649406	-0.7371491717	-0.0296903479	 0.11085
C	-0.7256912338	-2.2008138863	 0.0677966362	-0.340161
C	 0.7996570903	-2.1354173159	-0.1807120931	-0.171115
N	 1.1270864507	-0.7424158452	 0.1556352327	-0.330703
C	-2.5147674034	-0.2445437972	-0.0739930823	 0.292656
N	-3.4861451591	-1.2304596912	-0.0270503496	-0.540139
O	-2.8408251009	 0.932442074	-0.1892439135	-0.392115
H	 0.638744828	 1.8516689607	 0.922254435	 0.13153
H	 0.7197785513	 1.8423866813	-0.8405022999	 0.121203
H	-0.8668677685	 1.9745834741	-0.038623695	 0.188812
H	-0.9353534905	-2.6130513599	 1.0666310284	 0.104298
H	-1.2251879263	-2.8483184637	-0.6596402453	 0.112844
H	 1.3684601925	-2.8360746965	 0.4361043844	 0.110823
H	 1.0266270375	-2.3465081838	-1.2358250096	 0.104204
H	 1.9864399484	-0.3610453797	-0.2135358347	 0.236196
H	-3.2745599023	-2.1292436823	 0.373607927	 0.247752
H	-4.4239615643	-0.8882269967	 0.1144013755	 0.250077
75.2652	131.58	136.3884	206.4747	216.0905	247.5063	326.822	367.139	419.1615	486.3353	532.8196	537.7288	594.4576	655.2269	665.9492	753.8202	775.9512	891.2033	948.8168	986.577	1043.6729	1063.7476	1076.7038	1081.3193	1108.7031	1156.6783	1200.6745	1246.0855	1282.2726	1329.8997	1335.8707	1383.334	1402.9991	1460.4381	1485.5928	1500.8712	1503.9414	1526.4132	1614.8513	1668.1969	1743.082	2981.8313	2994.4173	3024.3976	3065.1213	3075.3596	3084.8724	3174.7245	3585.4025	3593.0515	3712.0947
CC1=C(CCN1)C(N)=O	CC1=C(CCN1)C(=O)N	
InChI=1S/C6H10N2O/c1-4-5(6(7)9)2-3-8-4/h8H,2-3H2,1H3,(H2,7,9)	InChI=1S/C6H10N2O/c1-4-5(6(7)9)2-3-8-4/h8H,2-3H2,1H3,(H2,7,9)
