21
gdb 89861	3.25279	1.00098	0.86732	1.0846	90.65	-0.2341	0.0508	0.285	1418.2311	0.180826	-349.904445	-349.8951	-349.894156	-349.938757	35.987	
C	-1.0199373216	 1.0989006037	 0.011256053	-0.405322
C	 0.0142139451	-0.0132504734	 0.0893631728	 0.058864
C	 1.2563132617	 0.0660340955	-0.8535175688	-0.311515
C	 2.1335901189	-0.3027038712	 0.3461276831	 0.37325
C	 3.1123790273	-1.4283029995	 0.408116683	-0.348704
C	 3.6039307627	 0.0103050746	 0.5508131669	-0.272703
C	 4.3532271336	 0.6305109766	-0.500056173	 0.337821
C	 4.9635812413	 1.1655279004	-1.3890714177	-0.469348
C	 0.977466431	-0.0399739706	 1.3180656673	-0.318548
H	-0.5474886541	 2.081728786	 0.1216892196	 0.113446
H	-1.5439496695	 1.0878129811	-0.9510775137	 0.114735
H	-1.7726949214	 0.9999503445	 0.8015318811	 0.113215
H	-0.4757481923	-0.9861849964	-0.0196952267	 0.073121
H	 1.2744526267	-0.6111265147	-1.7114022327	 0.099503
H	 1.4481604462	 1.0836514751	-1.2105332835	 0.107834
H	 3.1418254197	-2.046353882	 1.3001169795	 0.114241
H	 3.360398528	-1.9437871868	-0.5136480193	 0.123593
H	 3.8834794481	 0.3136367981	 1.5568399688	 0.106863
H	 5.5113821703	 1.6310849175	-2.1699844549	 0.191856
H	 1.0511373159	 0.9383951781	 1.8059449247	 0.099906
H	 0.7883712624	-0.7983166066	 2.0832779205	 0.097892
44.911	110.6606	138.1914	225.9016	258.5187	286.6953	323.9962	374.0441	391.957	460.0219	519.5054	564.3019	613.885	646.6935	722.601	785.8327	829.6919	865.7603	881.0335	894.5346	920.3566	942.7507	964.2882	1032.5023	1064.8642	1077.4779	1094.8232	1115.2934	1132.0683	1161.098	1216.121	1231.5606	1236.2479	1259.5895	1288.8037	1329.9624	1367.6548	1405.6567	1413.0608	1474.8055	1483.1218	1492.9513	1495.8885	1498.6757	2231.6903	3021.601	3036.5189	3045.0103	3047.31	3087.9239	3090.1262	3093.4012	3101.2989	3124.5477	3133.4102	3215.9462	3506.2783
CC1CC2(CC2C#C)C1	C[C@H]1C[C@]2(C[C@H]2C#C)C1	
InChI=1S/C9H12/c1-3-8-6-9(8)4-7(2)5-9/h1,7-8H,4-6H2,2H3	InChI=1S/C9H12/c1-3-8-6-9(8)4-7(2)5-9/h1,7-8H,4-6H2,2H3/t7-,8-,9+/m1/s1
