21
gdb 109901	2.62572	1.41659	1.17961	2.1492	77.27	-0.2391	0.0587	0.2978	1135.1607	0.183883	-424.188863	-424.180375	-424.179431	-424.221823	33.54	
O	-0.3886144182	 1.5514673425	 0.301510327	-0.428823
C	-0.0815603117	 0.1609389934	 0.4793500567	-0.120522
C	-1.3627090481	-0.5994552585	 0.1932519177	-0.024516
C	-1.9043662648	-0.4704505268	-1.2728258613	 0.12321
O	-1.1605178042	 0.3237661049	-2.1672497778	-0.438961
C	-1.7562659288	-1.9974806541	-1.4704544659	-0.038271
C	-0.3440871108	-2.469985831	-1.9134561089	-0.226256
C	 0.020898343	-2.7855577311	-0.4320843332	-0.22996
C	-1.315181761	-2.1519255584	 0.0345716421	-0.051896
H	 0.4203509548	 2.0571534633	 0.4266747064	 0.291641
H	 0.7161826497	-0.1380667008	-0.2117834234	 0.103617
H	 0.2661567989	-0.0342909712	 1.5045465107	 0.095168
H	-2.1109407797	-0.2842765667	 0.9261116261	 0.075979
H	-2.9623109324	-0.1708042199	-1.2747907989	 0.061608
H	-0.9615206988	 1.1422486397	-1.6915171014	 0.286456
H	-2.6074648984	-2.5236265024	-1.9034810432	 0.05928
H	-0.3424345892	-3.3392563364	-2.5743858806	 0.095147
H	 0.2400024846	-1.6769665478	-2.3836286323	 0.118287
H	 0.0396407978	-3.8603941894	-0.2319090703	 0.097398
H	 0.9498477914	-2.3618691745	-0.0393773917	 0.090345
H	-1.8930176539	-2.7077661446	 0.7740883422	 0.061069
75.7731	150.689	195.5474	241.9208	254.7573	325.2529	356.9885	444.3104	473.0239	547.8769	578.158	636.5097	732.1695	776.36	791.4139	846.0368	866.3814	897.3807	960.0875	983.7323	1008.9672	1027.4924	1052.1673	1062.6992	1087.0392	1128.8843	1142.1626	1163.7047	1204.5267	1213.9965	1228.4563	1247.1703	1254.2863	1270.178	1280.4817	1298.5958	1308.0064	1323.043	1358.7777	1364.4957	1420.7827	1453.3737	1480.1237	1499.023	1519.1055	2983.2568	2992.4562	3039.7864	3050.9533	3064.9223	3071.8505	3086.5174	3095.6144	3103.2443	3129.068	3740.8289	3824.7156
OCC1C(O)C2CCC12	OC[C@H]1[C@@H](O)[C@H]2CC[C@@H]12	
InChI=1S/C7H12O2/c8-3-6-4-1-2-5(4)7(6)9/h4-9H,1-3H2	InChI=1S/C7H12O2/c8-3-6-4-1-2-5(4)7(6)9/h4-9H,1-3H2/t4-,5+,6-,7+/m1/s1
