20
gdb 13760	2.9766	1.48409	1.17304	0.7433	81.45	-0.2404	0.0503	0.2907	1110.2566	0.17488	-311.834	-311.824778	-311.823834	-311.867522	34.669	
C	-0.2691390913	 1.4404448765	 0.1213345301	-0.387316
C	 0.1342745069	-0.0202114573	-0.1272925608	 0.018109
C	 1.0265219246	-0.152329221	-1.369643686	-0.390332
C	 0.8217262663	-0.6011971045	 1.0948050505	 0.026133
C	 0.0363296996	-1.1193144401	 2.2624577679	-0.309225
C	 0.8054847435	-2.0998813805	 1.3847075479	-0.204335
C	 0.1024077847	-3.0150583106	 0.5341563818	 0.340336
C	-0.4738651919	-3.7946587204	-0.1794974249	-0.479873
H	 0.6128339804	 2.0664840022	 0.3025713544	 0.109525
H	-0.7956932451	 1.8543206248	-0.7449168965	 0.110075
H	-0.9256895951	 1.5302631277	 0.9925298152	 0.112792
H	-0.778047649	-0.6039155205	-0.3039349957	 0.08352
H	 1.9666217712	 0.3968973242	-1.2369127096	 0.106225
H	 1.2700277026	-1.2000166194	-1.567383845	 0.126842
H	 0.5284617342	 0.2544372137	-2.2559363718	 0.10777
H	 1.7669570869	-0.1193194841	 1.3383200843	 0.085012
H	 0.4050194536	-0.954526249	 3.2687471112	 0.115752
H	-1.0445699228	-1.1382447244	 2.1737557985	 0.124778
H	 1.7167702953	-2.503645773	 1.816670068	 0.110475
H	-0.9857130146	-4.4829475543	-0.8048551597	 0.193736
69.892	109.233	177.174	224.7274	230.9575	241.443	298.9127	336.3023	405.1265	450.621	532.4147	574.4463	624.1656	647.1732	755.9018	780.3188	845.5242	894.4074	929.255	951.135	968.8752	992.6079	1018.782	1069.1297	1120.0162	1139.5286	1144.7877	1187.848	1204.9083	1239.1222	1316.5277	1343.97	1376.7016	1397.8361	1415.9226	1428.7947	1485.4025	1487.4294	1491.0018	1503.4727	1511.3241	2231.4159	3023.9333	3025.4529	3031.0322	3087.6468	3094.2854	3103.0626	3112.9115	3122.8879	3134.1366	3145.074	3222.9868	3505.5307
CC(C)C1CC1C#C	CC(C)[C@H]1C[C@H]1C#C	
InChI=1S/C8H12/c1-4-7-5-8(7)6(2)3/h1,6-8H,5H2,2-3H3	InChI=1S/C8H12/c1-4-7-5-8(7)6(2)3/h1,6-8H,5H2,2-3H3/t7-,8-/m1/s1
