18
gdb 55224	3.84961	0.97231	0.89403	3.381	74.22	-0.2561	-0.0306	0.2255	1334.552	0.147422	-439.129159	-439.120269	-439.119325	-439.164634	31.82	
C	-0.0999777525	 1.4352474176	 0.3260384248	-0.484107
C	-0.0242887973	 0.1176382754	-0.4145963164	 0.375758
O	 0.9646275342	-0.2334079055	-1.0167166318	-0.303172
C	-1.2596613864	-0.7804289865	-0.3480135154	-0.120035
C	-1.5543177998	-1.5074393167	-1.6722533961	-0.098145
O	-2.2061895999	-2.7341967805	-1.3098690443	-0.236628
C	-1.9479805453	-3.0499484024	-0.0060655137	 0.41279
N	-2.380032434	-4.0729853749	 0.5914646258	-0.539467
C	-1.0636258668	-1.9823319135	 0.6029908983	-0.309351
H	 0.861149943	 1.9482537327	 0.2832738468	 0.147631
H	-0.8764480106	 2.0680638092	-0.120467612	 0.146035
H	-0.392307381	 1.2708358605	 1.3696150396	 0.145231
H	-2.1332330431	-0.2029027206	-0.0302343147	 0.088135
H	-2.2261367144	-0.9547593395	-2.3325600783	 0.121668
H	-0.6197814452	-1.7252683281	-2.1989674928	 0.138441
H	-2.9348340094	-4.6514324043	-0.0418975681	 0.22398
H	-0.0220904588	-2.3218257177	 0.5686360886	 0.150715
H	-1.3293025826	-1.793132465	 1.6427200598	 0.140521
14.8791	85.7953	152.1232	159.9069	178.6843	280.5537	331.4314	448.0569	505.8379	576.0864	596.3836	613.6804	681.0492	839.8427	871.6899	893.1536	909.664	940.0268	972.6233	994.4283	1018.483	1078.0435	1092.7161	1114.7857	1176.3997	1193.6317	1252.3612	1270.4521	1291.6501	1324.5116	1365.9631	1386.3304	1400.3702	1460.8314	1469.315	1473.9549	1522.5836	1781.2153	1810.2845	3032.3273	3053.0466	3056.411	3063.6749	3091.3902	3116.1558	3139.7618	3155.5502	3472.798
CC(=O)C1COC(=N)C1	CC(=O)[C@H]1CO[C]([NH])C1	
InChI=1S/C6H9NO2/c1-4(8)5-2-6(7)9-3-5/h5,7H,2-3H2,1H3	InChI=1S/C6H9NO2/c1-4(8)5-2-6(7)9-3-5/h5,7H,2-3H2,1H3/t5-/m1/s1
