14
gdb 133339	3.24578	1.37399	0.96703	5.4038	71.76	-0.2054	-0.0279	0.1775	1112.0016	0.102637	-474.159155	-474.151521	-474.150577	-474.191123	29.396	
N	 0.1092311205	 1.363190344	 0.1582845433	-0.589879
C	-0.031729433	-0.0171174521	 0.0467069871	 0.44028
C	-1.2105445886	-0.6954356725	 0.0229814104	-0.256179
C	-1.2304501929	-2.1386707723	-0.005436054	 0.193435
N	-2.3100793564	-2.8401379531	-0.0240782984	-0.562917
C	 0.1351438282	-2.694876939	-0.0269600374	 0.271552
F	 0.224857161	-4.0199041939	-0.0569612205	-0.062655
N	 1.2418097476	-2.0573310425	-0.0102836195	-0.252511
N	 1.1557188127	-0.7031030699	-0.0033394899	-0.298941
H	 0.786598805	 1.7637271524	-0.4792475892	 0.25685
H	-0.7720359806	 1.8528578382	 0.0913061035	 0.265529
H	-2.153709931	-0.1642894092	 0.0097713763	 0.106037
H	-2.0756339066	-3.8327842788	-0.0566928885	 0.215242
H	 2.0199716041	-0.2416094913	 0.2281453768	 0.274157
112.4237	185.9831	278.094	325.0356	343.1055	354.2636	427.0868	463.8119	474.0824	524.6161	604.0383	628.0483	717.1735	735.1245	746.3529	800.1958	839.4817	873.5124	1016.2501	1098.3313	1142.8534	1217.2475	1264.9322	1315.7801	1397.4293	1425.7984	1536.605	1634.7198	1660.028	1686.5324	1697.6864	3213.9146	3476.3255	3541.6739	3644.2067	3649.8113
NC1=CC(=N)C(F)=NN1	N[C@@H]1C=C([NH])C(=NN1)F	
InChI=1S/C4H5FN4/c5-4-2(6)1-3(7)8-9-4/h1H,(H4,6,7,8)	InChI=1S/C4H6FN4/c5-4-2(6)1-3(7)8-9-4/h1,3,6,8H,7H2/t3-/m0/s1
