18
gdb 69245	2.68747	1.56472	1.19034	3.1011	77.9	-0.2277	-0.0182	0.2096	1078.4475	0.14817	-401.960246	-401.952295	-401.951351	-401.992501	31.184	
C	 0.0327679935	 1.5250140631	 0.0028847055	-0.485692
C	 0.0270099181	 0.0128914436	-0.0148097037	 0.282709
N	-0.7814547344	-0.7139333201	 0.9828986251	-0.363717
C	 0.6975211968	-0.7301483962	 1.1103338723	-0.195921
C	 1.3878328085	-2.0173481846	 0.8005232674	 0.430125
O	 2.3588054598	-2.3827083177	 1.4255155773	-0.326745
C	 0.8329330392	-2.8001035112	-0.3835804507	-0.380418
C	 0.4039080651	-1.912143451	-1.5259419857	-0.088704
C	 0.0538268217	-0.6386416249	-1.3584510088	-0.065375
H	 0.9056503716	 1.9201807246	-0.5268860444	 0.136382
H	-0.8631405348	 1.9198777844	-0.4900746229	 0.129963
H	 0.0559677709	 1.910578811	 1.0268778706	 0.119273
H	-1.1523745154	-0.0601250995	 1.670265896	 0.235798
H	 1.1622930991	-0.1544968544	 1.9055915906	 0.096991
H	 1.5868701492	-3.5301310065	-0.6887671114	 0.129147
H	-0.0370079015	-3.3695213788	-0.0230683995	 0.153222
H	 0.3732157566	-2.3619363011	-2.5141591737	 0.102455
H	-0.2530259739	-0.0321897906	-2.206020794	 0.090507
99.2743	147.6855	227.1125	269.0837	316.106	361.9023	439.8608	462.2745	488.8389	561.3295	595.8442	654.1581	720.6052	751.7962	829.2522	876.1511	913.4808	949.909	976.7181	985.2292	996.8013	1024.1429	1059.3065	1105.6529	1136.136	1185.1615	1187.5813	1259.8771	1284.2384	1320.5273	1333.9824	1411.7821	1419.0542	1423.4408	1440.4083	1484.9482	1500.6051	1718.8006	1803.9278	3008.853	3029.0556	3094.3938	3098.2538	3107.8137	3157.4856	3158.3745	3179.9308	3481.7514
CC12NC1C(=O)CC=C2	C[C@]12N[C@H]1C(=O)CC=C2	
InChI=1S/C7H9NO/c1-7-4-2-3-5(9)6(7)8-7/h2,4,6,8H,3H2,1H3	InChI=1S/C7H9NO/c1-7-4-2-3-5(9)6(7)8-7/h2,4,6,8H,3H2,1H3/t6-,7+/m0/s1
