16
gdb 67448	2.6752	1.79239	1.73108	0.8851	67.03	-0.2298	0.0128	0.2426	875.4516	0.126257	-437.85757	-437.850747	-437.849803	-437.888417	27.546	
O	-0.0262673625	 1.4118904325	-0.0386885695	-0.466698
C	 0.0193191129	 0.033151279	-0.0300937282	 0.353926
C	-1.1114295693	-0.9820419866	 0.1141569414	-0.128153
C	-0.5776367521	-1.7973738056	-1.0615201444	-0.257256
C	 0.6558383228	-0.8387344595	-1.1182303801	 0.013903
O	 1.9005724875	-1.4504885026	-0.7337289222	-0.23853
C	 1.8757357716	-1.9913917468	 0.5106667217	 0.118708
N	 1.0155944658	-1.8178483313	 1.4265979684	-0.269686
C	-0.0162440673	-0.8458584762	 1.1774205201	-0.085167
H	 0.6649750256	 1.7477777215	 0.5423499895	 0.292811
H	-2.1493984914	-0.8087990046	 0.3684512301	 0.099409
H	-0.342271397	-2.8478195591	-0.8725041293	 0.117293
H	-1.2004738587	-1.7212216111	-1.9557271204	 0.11431
H	 0.8381811028	-0.3518040446	-2.0744769193	 0.105373
H	 2.7374119976	-2.6374594324	 0.66543302	 0.125902
H	-0.3789764182	-0.3698089525	 2.0833541821	 0.103855
184.3568	227.241	262.6115	311.6545	400.343	422.5545	542.6529	559.2913	571.0771	680.8925	759.4924	814.7807	828.8305	900.7122	910.5278	946.2861	967.495	987.899	996.5368	1049.1109	1070.2757	1098.2114	1144.8791	1158.9999	1189.0416	1208.0469	1233.8654	1288.0132	1316.2927	1323.3487	1350.3003	1407.8943	1463.6824	1498.1287	1701.0499	3064.574	3117.0835	3138.7728	3161.0576	3165.367	3199.1208	3797.9505
OC12C3CC1OC=NC23	O[C@@]12[C@H]3C[C@@H]1OC=N[C@@H]23	
InChI=1S/C6H7NO2/c8-6-3-1-4(6)9-2-7-5(3)6/h2-5,8H,1H2	InChI=1S/C6H7NO2/c8-6-3-1-4(6)9-2-7-5(3)6/h2-5,8H,1H2/t3-,4-,5+,6-/m0/s1
