21
gdb 58964	2.58212	1.41862	1.20312	1.0724	77.63	-0.2369	0.0653	0.3022	1146.1445	0.181509	-424.195006	-424.185822	-424.184878	-424.22895	34.787	
C	-0.0195046253	 1.4838016669	 0.1261813552	-0.422848
C	-0.1011886727	-0.0375228166	 0.0180387936	 0.029247
O	-1.4452447564	-0.5112502455	-0.0211543506	-0.432674
C	 0.6837594754	-0.5598332935	-1.1724993619	 0.479512
C	 0.174641295	-0.3425656293	-2.6229871349	-0.283779
C	 0.48051969	-1.8414677369	-2.9370471152	-0.223667
C	 0.9773137298	-2.0573501382	-1.4830792366	-0.145486
C	 2.4443505887	-1.6687555851	-1.246360741	-0.087558
O	 2.1002080798	-0.2739988329	-1.0512126186	-0.340178
H	 1.0237920625	 1.804253216	 0.187080908	 0.144544
H	-0.4669843713	 1.9617844106	-0.7548061523	 0.108111
H	-0.5534009479	 1.8322418517	 1.0144974356	 0.121281
H	 0.3341553982	-0.485891596	 0.9195940169	 0.089564
H	-1.9394409854	 0.0566008752	-0.6214606439	 0.280635
H	-0.8880722074	-0.0952921917	-2.6986627272	 0.085687
H	 0.7525089889	 0.3990961395	-3.177947227	 0.109279
H	-0.4144458737	-2.4203694213	-3.1741111429	 0.107318
H	 1.225393395	-2.0255960567	-3.7163046774	 0.099731
H	 0.5662110606	-2.8901050614	-0.9145801367	 0.082826
H	 2.897740157	-2.0940987353	-0.3420152201	 0.101226
H	 3.1317212893	-1.8119977194	-2.090099253	 0.097229
75.3351	85.1576	157.7943	220.4117	246.8138	266.9114	282.9034	350.9535	390.1199	462.4977	490.6264	634.4008	683.7571	736.5749	820.2328	870.9659	896.0928	910.1769	942.9118	963.1522	997.268	1005.3989	1041.8319	1046.2635	1085.5256	1106.9057	1130.2286	1151.848	1164.2691	1185.1829	1227.1271	1236.0438	1266.1373	1296.1141	1306.6104	1327.3104	1350.3019	1374.8203	1396.4124	1407.156	1455.8765	1484.4813	1492.7349	1496.4987	1524.312	3006.7461	3025.2228	3038.1347	3049.0951	3053.9636	3060.8555	3100.1113	3104.9394	3121.4693	3126.9782	3129.9733	3811.1424
CC(O)C12CCC1CO2	C[C@@H](O)[C@]12CC[C@H]1CO2	
InChI=1S/C7H12O2/c1-5(8)7-3-2-6(7)4-9-7/h5-6,8H,2-4H2,1H3	InChI=1S/C7H12O2/c1-5(8)7-3-2-6(7)4-9-7/h5-6,8H,2-4H2,1H3/t5-,6+,7-/m1/s1
