18
gdb 52194	3.4246	0.71802	0.62995	4.2506	78.21	-0.2571	-0.0286	0.2285	1705.6837	0.146142	-401.962264	-401.952812	-401.951868	-401.998248	32.888	
O	-0.4052858463	 0.5739210894	 0.843497918	-0.231704
C	 0.0819574134	 0.992478568	-0.173760344	 0.157009
C	 1.3827996371	 1.7606616958	-0.2584303882	-0.271835
C	 1.2063734135	 3.1084955397	-0.9823672112	-0.233528
C	 2.5193957704	 3.8435420557	-1.1444241637	 0.003422
C	 3.4385763651	 3.5455391629	-2.2904796095	-0.2834
C	 2.7117930175	 4.8835904785	-2.2435808003	-0.187335
C	 1.6562913814	 5.1454162044	-3.1811265732	 0.286903
N	 0.800856713	 5.3524770533	-3.9325661063	-0.339433
H	-0.4194828937	 0.8337762149	-1.1577630051	 0.077111
H	 1.775747277	 1.8914433269	 0.7541332801	 0.12387
H	 2.0961285849	 1.1430688049	-0.8232772232	 0.123697
H	 0.7525620947	 2.9440298103	-1.9667683041	 0.127347
H	 0.5040078154	 3.7365928588	-0.4214796555	 0.127418
H	 3.0029047887	 4.11172632	-0.20874732	 0.108566
H	 4.5106790896	 3.5645995741	-2.1340179025	 0.134104
H	 3.101701341	 2.8380391751	-3.0402658135	 0.140329
H	 3.3024765074	 5.7579208073	-1.9928196478	 0.137462
50.7492	61.6829	81.5517	112.2276	174.9572	219.2777	301.9019	360.5395	407.7253	513.402	556.1715	628.3032	757.443	778.3199	812.3644	848.3344	871.1904	952.8443	959.6342	1013.1846	1052.023	1079.229	1090.3035	1123.6187	1138.4522	1168.7995	1219.1351	1235.3424	1269.7472	1315.8319	1359.0862	1379.9001	1420.4889	1429.9603	1463.5626	1485.4592	1495.7243	1838.4652	2351.7519	2854.7227	3014.7941	3035.0351	3070.9123	3099.6034	3142.4616	3146.4303	3173.3818	3232.9601
O=CCCC1CC1C#N	O=CCC[C@H]1C[C@H]1C#N	
InChI=1S/C7H9NO/c8-5-7-4-6(7)2-1-3-9/h3,6-7H,1-2,4H2	InChI=1S/C7H9NO/c8-5-7-4-6(7)2-1-3-9/h3,6-7H,1-2,4H2/t6-,7-/m0/s1
