15
gdb 68497	3.29365	1.31773	1.12355	2.3884	72.74	-0.2545	-0.0161	0.2384	1081.3905	0.109124	-420.536396	-420.527965	-420.527021	-420.569321	31.315	
C	 0.0681019629	 1.4632053303	-0.0283784872	-0.524354
C	-0.0480479654	-0.0186409249	 0.0631063417	 0.272573
O	 0.4616097412	-0.8600104854	-1.0653738769	-0.325128
C	 0.0276871717	-1.8833849691	-0.0873162806	-0.072494
C	 0.6469554997	-1.0228822849	 1.0545275142	-0.268472
C	 2.0892544704	-0.9592451122	 1.1320331386	 0.314692
C	 3.2842240499	-0.8906582411	 1.2402698614	-0.414844
C	-1.2500537933	-1.0087261566	 0.0130087125	 0.432935
O	-2.4307396012	-1.0451434946	-0.0859340827	-0.305505
H	 1.1192770575	 1.7650987797	-0.0409930851	 0.152007
H	-0.4182011637	 1.8252538886	-0.9383026283	 0.151669
H	-0.4201984155	 1.927943767	 0.833439213	 0.142629
H	 0.2005624789	-2.9276417269	-0.3338587667	 0.124986
H	 0.176467709	-1.1226116406	 2.0386737572	 0.119004
H	 4.3418609081	-0.8392934093	 1.3232360489	 0.200303
114.6943	121.2649	161.3866	200.6297	221.2824	299.1002	395.5729	416.0285	536.2816	582.0225	632.5595	650.4766	657.7321	696.3893	746.7466	796.5852	817.4836	868.8721	946.4183	998.7864	1048.3185	1085.659	1108.1265	1148.7255	1159.0788	1212.8363	1329.9185	1372.657	1418.9667	1472.8518	1484.315	1937.2001	2240.0171	3045.8716	3055.7648	3121.6181	3126.3759	3168.486	3502.5985
CC12OC(C1C#C)C2=O	C[C@@]12O[C@@H]([C@H]1C#C)C2=O	
InChI=1S/C7H6O2/c1-3-4-5-6(8)7(4,2)9-5/h1,4-5H,2H3	InChI=1S/C7H6O2/c1-3-4-5-6(8)7(4,2)9-5/h1,4-5H,2H3/t4-,5+,7-/m1/s1
