17
gdb 24055	3.61616	1.05405	0.89035	1.3024	80.13	-0.1933	0.038	0.2313	1297.2425	0.136846	-380.855307	-380.846712	-380.845767	-380.889832	32.106	
C	-1.042700405	 0.3185512326	 0.3037312966	-0.469264
C	-0.0061884743	 0.6025737606	-0.235618233	 0.32966
C	 1.2835547795	 0.9408417398	-0.8435810278	-0.332368
N	 2.1704349613	 1.7759233983	-0.008265955	-0.39084
C	 1.7711877929	 3.1185183997	 0.1681430855	 0.280194
C	 0.9202289394	 3.7524860004	 1.0489114823	-0.19182
C	 0.9501479352	 5.1423445385	 0.7442093358	-0.138433
C	 1.8087593119	 5.3164921572	-0.3164253907	-0.096778
N	 2.3025426176	 4.0830847379	-0.657559985	-0.248773
H	-1.9661210794	 0.075802337	 0.7684880029	 0.199539
H	 1.8224873416	 0.0176308746	-1.0886456152	 0.131207
H	 1.1221367083	 1.4693238591	-1.7889926393	 0.140029
H	 2.3036226232	 1.326822178	 0.8902044824	 0.237224
H	 0.3334055237	 3.26399906	 1.8110939265	 0.091155
H	 0.3966181586	 5.9238578101	 1.241894324	 0.090178
H	 2.108096116	 6.2037957854	-0.850318696	 0.112313
H	 3.0078270696	 3.8908405406	-1.347847344	 0.256776
27.8706	63.0162	151.4502	187.9002	324.5909	360.8968	383.6159	499.1526	570.9943	619.6686	633.3696	636.2473	659.8532	686.5465	711.7263	762.008	795.7251	851.471	893.0047	931.9644	959.4257	1017.3027	1053.7475	1074.8989	1110.2376	1142.8999	1241.7391	1274.6086	1303.915	1357.4118	1424.3915	1440.1174	1466.8653	1484.5008	1513.8308	1611.1926	2229.431	3033.5657	3076.6968	3242.1342	3257.8327	3271.563	3505.2822	3545.8392	3678.0747
C#CCNC1=CC=CN1	C#CCNc1ccc[nH]1	
InChI=1S/C7H8N2/c1-2-5-8-7-4-3-6-9-7/h1,3-4,6,8-9H,5H2	InChI=1S/C7H8N2/c1-2-5-8-7-4-3-6-9-7/h1,3-4,6,8-9H,5H2
