19
gdb 93776	2.46214	1.50128	1.13808	1.2452	73.3	-0.2286	0.0449	0.2735	1132.3318	0.160213	-456.368644	-456.359674	-456.35873	-456.402094	34.25	
C	-0.0630835428	 1.5551396111	 0.0566015603	-0.387045
C	 0.1103276957	 0.0381363091	 0.0051402661	 0.024563
N	 0.8550798248	-0.3311864889	-1.2014858034	-0.368543
C	 1.460901132	-1.4538229581	-1.2106894072	 0.440181
N	 2.0805011508	-1.9355497608	-2.3418348798	-0.553553
O	 1.5912796302	-2.3570581227	-0.2045051183	-0.265223
C	 0.972182787	-2.0351839873	 1.0525986511	-0.082826
C	 0.8180441029	-0.5294922427	 1.2456790788	 0.094104
O	 2.078184398	 0.0863007113	 1.4724612828	-0.444597
H	 0.9030333226	 2.0535213975	 0.1716397107	 0.116394
H	-0.5213654322	 1.9052357005	-0.8716330055	 0.12052
H	-0.7000131918	 1.8473609588	 0.8979977974	 0.104264
H	-0.892689502	-0.4148438156	-0.0388510029	 0.076342
H	 2.2433218187	-1.2307818154	-3.0436255852	 0.261599
H	 2.8446965976	-2.5731490918	-2.180320372	 0.256793
H	-0.0042508991	-2.5334427578	 1.0978191845	 0.108925
H	 1.6235299033	-2.4568339998	 1.8215062346	 0.122692
H	 0.22287362	-0.3569497098	 2.149549704	 0.086646
H	 2.4807918741	 0.2321408223	 0.607842744	 0.288764
68.3714	138.7531	197.1578	226.6139	257.3853	304.6963	354.7412	371.1388	405.5427	450.0807	471.2828	544.0671	598.7561	641.0958	727.0496	758.4192	860.9068	871.7544	891.6725	946.1397	992.4894	1032.9912	1063.275	1112.0486	1149.4564	1163.0464	1215.3025	1241.1766	1281.2127	1312.8601	1339.1111	1355.6279	1377.3996	1406.2369	1419.998	1425.4839	1487.5801	1493.0501	1502.3795	1611.4776	1733.21	2970.9478	3029.5033	3042.1579	3054.3569	3107.2816	3114.1259	3127.8335	3587.1505	3706.7016	3784.1762
CC1N=C(N)OCC1O	C[C@H]1N=C(N)OC[C@H]1O	
InChI=1S/C5H10N2O2/c1-3-4(8)2-9-5(6)7-3/h3-4,8H,2H2,1H3,(H2,6,7)	InChI=1S/C5H10N2O2/c1-3-4(8)2-9-5(6)7-3/h3-4,8H,2H2,1H3,(H2,6,7)/t3-,4-/m1/s1
