23
gdb 89061	4.77051	0.62167	0.59527	1.6915	87.26	-0.2567	0.0963	0.353	1958.7276	0.204562	-388.264326	-388.254321	-388.253376	-388.300466	36.663	
C	 0.0908025674	 1.471092086	-0.2749121489	-0.418724
C	-0.0225933105	 0.0127515328	 0.0896392103	 0.076822
O	 1.1908603179	-0.7405007331	 0.1994363276	-0.266422
C	 0.3862481423	-0.5764034222	 1.3768152922	 0.064471
C	 0.9973640041	 0.175875627	 2.5337314397	-0.220457
C	 2.0717253455	-0.6553119328	 3.2545458052	-0.196015
C	 2.6973333485	 0.0716908922	 4.4252518766	 0.032283
C	 2.036094358	 0.048905817	 5.7818444478	-0.256183
C	 3.3299984821	-0.6963085669	 5.5563980196	-0.276638
H	 0.8803489631	 1.9733346461	 0.2868262278	 0.128229
H	 0.3178205334	 1.574714621	-1.3412535853	 0.128946
H	-0.8572448818	 1.9860339863	-0.0841464654	 0.120503
H	-0.8093112049	-0.5177341314	-0.4528535035	 0.083124
H	-0.1286799535	-1.4950956403	 1.6727897617	 0.08121
H	 1.4394468687	 1.1134619964	 2.1827150274	 0.099573
H	 0.2021828696	 0.4426850879	 3.2425161493	 0.100445
H	 1.6280512188	-1.5956373194	 3.6094489998	 0.088554
H	 2.844938768	-0.9346906105	 2.5281352008	 0.1153
H	 3.1880846392	 1.0052823199	 4.1586468763	 0.07978
H	 2.057078582	 0.9475501652	 6.3885333059	 0.108963
H	 1.1293133812	-0.5378119536	 5.8926424468	 0.106689
H	 3.2887982653	-1.7800390617	 5.5157725713	 0.109754
H	 4.2354653057	-0.304868106	 6.0068168171	 0.10979
44.5575	65.1675	99.2532	117.1715	170.0902	229.0333	241.9189	353.72	399.2324	405.5529	479.6525	536.5677	746.2718	772.9845	776.0794	821.6568	825.7003	847.7196	910.1661	938.2789	952.5085	994.4059	1031.6843	1046.5828	1052.7072	1072.3651	1077.6156	1104.1531	1138.8317	1154.7752	1175.7809	1195.9022	1197.9337	1227.9487	1246.3783	1280.9448	1307.4173	1323.2332	1365.642	1402.4217	1418.9668	1420.6937	1467.881	1470.1787	1473.8483	1491.1928	1495.01	1508.2625	1513.5492	3013.13	3025.863	3038.7405	3054.4173	3058.4955	3076.1781	3089.8475	3098.1919	3125.7792	3128.0558	3132.9629	3137.3159	3203.9631	3219.6672
CC1OC1CCC1CC1	C[C@H]1O[C@H]1CCC1CC1	
InChI=1S/C8H14O/c1-6-8(9-6)5-4-7-2-3-7/h6-8H,2-5H2,1H3	InChI=1S/C8H14O/c1-6-8(9-6)5-4-7-2-3-7/h6-8H,2-5H2,1H3/t6-,8+/m1/s1
