15
gdb 30541	6.56837	0.84592	0.75068	1.3661	81.46	-0.1729	-0.0069	0.166	1442.3918	0.113872	-450.165919	-450.157274	-450.15633	-450.199645	31.092	
N	-0.1589468294	 1.3621291199	 0.0937716958	-0.494983
C	-0.0895546763	 0.0107572498	 0.0088211076	 0.123973
N	-1.1456973196	-0.7200444951	 0.032326465	-0.35736
C	-0.9719680083	-2.0763074126	 0.0195016617	 0.454558
N	 0.0922062919	-2.817097615	 0.089788136	-0.338237
C	-0.3782912454	-4.1268830526	 0.0508878732	-0.19683
C	-1.7328501168	-4.1027186228	-0.0492394969	 0.329356
N	-2.7330870443	-5.0516279995	-0.2150954324	-0.597809
O	-2.1345564803	-2.8027742635	-0.0717289588	-0.205714
H	 0.6400843464	 1.9180727406	-0.1544101056	 0.266288
H	-1.0680046747	 1.7923677948	 0.0234936449	 0.26747
H	 0.9222143571	-0.4001678211	-0.0461546767	 0.137842
H	 0.2822545803	-4.9774256874	 0.1015393114	 0.101232
H	-2.4096523795	-5.9836568236	 0.0069978265	 0.254264
H	-3.566238991	-4.835793042	 0.3203605583	 0.25595
55.3134	134.7821	140.5096	176.3669	272.8063	295.9976	335.0354	385.4673	432.3105	527.5932	596.2397	657.8108	689.5046	741.9361	766.7717	781.3972	807.0729	984.1668	1018.307	1024.8335	1096.6761	1116.188	1155.9804	1268.121	1296.4018	1314.3576	1387.1293	1445.465	1586.079	1619.4741	1626.6269	1672.7632	1722.5106	3099.4265	3259.8837	3528.4905	3598.305	3632.3112	3733.6472
NC=NC1=NC=C(N)O1	NC=Nc1ncc(N)o1	
InChI=1S/C4H6N4O/c5-2-8-4-7-1-3(6)9-4/h1-2H,6H2,(H2,5,7,8)	InChI=1S/C4H6N4O/c5-2-8-4-7-1-3(6)9-4/h1-2H,6H2,(H2,5,7,8)
