20
gdb 57304	2.8689	1.11766	1.04336	2.9887	76.8	-0.2508	-0.0271	0.2238	1271.7469	0.16827	-440.280405	-440.270227	-440.269283	-440.31612	37.118	
C	 0.1376022157	 1.5570929617	 0.5999338684	-0.412628
C	-0.0467303849	 0.1312996262	 0.0643666407	 0.251154
C	 0.6114894625	-0.9067485058	 0.9906742264	-0.416983
O	-1.4298558846	-0.1658478482	-0.1208267457	-0.461384
C	 0.6256852892	 0.0163230343	-1.3148099702	 0.373896
O	 1.7660360948	 0.408946527	-1.4699226783	-0.363415
C	-0.1299706802	-0.6101264971	-2.4400464483	-0.098812
C	-0.1351976417	 0.1651173038	-3.7266454463	-0.218559
N	 0.6608118305	-1.0450756822	-3.6029599631	-0.311751
H	 1.1952046869	 1.8276586391	 0.6058650263	 0.14461
H	-0.404977856	 2.2691496582	-0.0279079386	 0.126128
H	-0.251057994	 1.6297366448	 1.6218537915	 0.103411
H	 0.1755810435	-0.8406486144	 1.994207875	 0.108414
H	 0.4488849282	-1.9198007842	 0.6116229382	 0.130234
H	 1.6864585177	-0.7265386224	 1.0675867997	 0.142631
H	-1.8569192387	-0.1319180222	 0.7411325186	 0.282173
H	-0.9902489796	-1.214183517	-2.1871418885	 0.119174
H	-1.0089411464	 0.093674456	-4.3677963879	 0.127195
H	 0.3725943128	 1.1257886957	-3.7248084828	 0.128344
H	 1.6273184743	-0.7741026033	-3.4142347252	 0.246168
25.479	72.8893	200.5551	212.6895	226.0985	237.1571	264.0875	271.9866	305.124	326.1496	362.1435	432.5795	493.4323	584.098	765.8847	767.2249	828.7786	848.6964	889.3899	928.3145	968.944	981.7554	1004.1278	1018.4482	1081.4956	1122.6305	1136.7138	1142.3434	1180.2428	1187.2361	1223.9137	1286.1666	1322.8486	1365.7636	1387.1785	1397.6141	1411.5192	1477.5988	1482.4103	1495.3313	1499.8794	1511.0278	1771.5645	3031.2152	3037.922	3103.6136	3109.374	3111.9168	3131.5523	3142.1162	3203.0498	3217.9921	3455.5051	3818.3474
CC(C)(O)C(=O)C1CN1	CC(C)(O)C(=O)[C@H]1CN1	
InChI=1S/C6H11NO2/c1-6(2,9)5(8)4-3-7-4/h4,7,9H,3H2,1-2H3	InChI=1S/C6H11NO2/c1-6(2,9)5(8)4-3-7-4/h4,7,9H,3H2,1-2H3/t4-/m1/s1
