18
gdb 20239	3.14186	3.05109	2.44877	0.0747	72.47	-0.2424	0.0875	0.3299	688.965	0.158724	-310.675346	-310.670031	-310.669087	-310.70428	23.635	
C	-0.0317761395	 1.552242236	-0.1203666779	-0.234848
C	 1.4180584962	 1.9836838057	 0.0553756501	-0.060195
C	 2.1521356427	 1.4514795756	 1.2664864729	-0.060192
C	 1.3741675356	 0.5329550643	 2.199298445	-0.234848
C	 0.7365857587	-0.4917408418	 1.2705718874	-0.060195
C	 0.0025404162	 0.040435895	 0.0594296845	-0.060193
C	 1.4323237511	-0.4529759123	-0.079003864	-0.066184
C	 2.3258644801	 0.7737137291	-0.0816073751	-0.066184
H	-0.7051886633	 2.0442708102	 0.5931656406	 0.096963
H	-0.3846653695	 1.8071945903	-1.1269033163	 0.096172
H	 1.7252412404	 2.9492968909	-0.33220064	 0.075837
H	 2.9454068474	 2.064675156	 1.6808497256	 0.075836
H	 2.0563723384	 0.0374762075	 2.9005432224	 0.096171
H	 0.6314934728	 1.0752131851	 2.7985454828	 0.096964
H	 0.3969910301	-1.4336782342	 1.6882018847	 0.075838
H	-0.8231022824	-0.5491182558	-0.3249201451	 0.075836
H	 1.6975559051	-1.3447022987	-0.6315781047	 0.076611
H	 3.2548414798	 0.7932101772	-0.6361196528	 0.076611
263.7626	426.3982	439.214	640.9653	669.883	689.3506	731.4306	751.8649	762.7474	809.4362	816.7108	889.9065	928.4889	938.1589	956.8442	974.7326	998.6853	1022.324	1026.771	1037.5742	1070.8172	1080.9079	1081.3094	1107.7455	1125.8804	1133.2876	1201.6034	1211.3684	1266.901	1296.3272	1307.0051	1312.9227	1325.0783	1364.7118	1406.4526	1419.9883	1489.0847	1500.2975	3019.6053	3022.6875	3053.842	3055.078	3156.5202	3157.9135	3165.3769	3168.288	3191.8254	3203.7871
C1C2C3CC4C1C4C23	C1[C@H]2[C@H]3C[C@H]4[C@@H]1[C@H]4[C@@H]23	
InChI=1S/C8H10/c1-3-5-2-6-4(1)8(6)7(3)5/h3-8H,1-2H2	InChI=1S/C8H10/c1-3-5-2-6-4(1)8(6)7(3)5/h3-8H,1-2H2/t3-,4+,5+,6-,7-,8+
