18
gdb 14474	2.82003	2.30036	1.93306	1.2781	71.27	-0.2302	0.0688	0.299	812.5657	0.153792	-347.753118	-347.745842	-347.744897	-347.783967	29.221	
C	-0.1115227751	 1.5344588503	 0.0213203266	-0.50456
C	-0.092886849	 0.0297325137	 0.0282871785	 0.246301
C	 0.3263671797	-0.7903420875	-1.229194131	-0.262493
C	-0.5670048762	-1.9080878527	-0.7013259281	-0.151969
C	-0.4283388486	-1.8909074597	 0.8526770914	-0.109667
C	 0.5494637703	-0.7732919769	 1.2001495466	-0.262676
C	-1.3610853145	-0.9551772517	 0.154767973	 0.333156
O	-2.6998133739	-0.750459395	 0.369137899	-0.451679
H	 0.9047899572	 1.9393704817	-0.0594123221	 0.118598
H	-0.6894000868	 1.9259534173	-0.8238411578	 0.10863
H	-0.5552467759	 1.9311394747	 0.9408912876	 0.121654
H	-0.071807189	-0.3544046572	-2.1512742245	 0.087033
H	 1.3979073694	-0.9874103275	-1.3527430322	 0.086681
H	-0.9068659128	-2.8053773969	-1.2027601171	 0.083519
H	-0.6882551745	-2.7714788395	 1.4257539935	 0.08659
H	 1.6261786668	-0.9706059683	 1.1341495327	 0.084391
H	 0.3166491391	-0.3268071669	 2.171546015	 0.097693
H	-3.1057922961	-0.476823538	-0.4612073112	 0.288796
180.4246	188.9704	222.9843	314.7815	343.7892	375.7559	462.8339	488.2785	586.9539	636.5184	717.8806	745.9509	806.6678	876.9269	886.3962	924.8504	945.6442	988.8631	992.1525	1017.1458	1026.0497	1105.1754	1111.2981	1112.849	1142.9616	1201.1739	1217.9281	1238.7316	1249.8634	1276.2271	1315.1681	1341.6871	1412.5999	1474.9696	1486.8637	1490.5834	1495.6562	1512.4188	3017.9685	3022.148	3030.766	3078.1694	3081.0719	3088.3215	3091.3665	3193.0143	3203.2974	3784.6028
CC12CC3C(C1)C23O	C[C@@]12C[C@H]3[C@@H](C1)[C@@]23O	
InChI=1S/C7H10O/c1-6-2-4-5(3-6)7(4,6)8/h4-5,8H,2-3H2,1H3	InChI=1S/C7H10O/c1-6-2-4-5(3-6)7(4,6)8/h4-5,8H,2-3H2,1H3/t4-,5+,6+,7+
