15
gdb 49137	3.54921	1.1334	0.88018	2.0934	71.53	-0.2705	-0.1012	0.1694	1225.5653	0.113018	-457.820355	-457.812622	-457.811678	-457.853089	28.129	
O	-0.0579807674	-0.0324443966	 0.1307712608	-0.25459
C	-0.0135357626	 1.1721723227	 0.0472542897	 0.102347
C	 1.2502284435	 1.9433890203	 0.0183023825	 0.205206
C	 1.2267104864	 3.2794479441	-0.0978019308	-0.289957
C	 2.465019629	 4.096761255	-0.0224554122	 0.441971
O	 2.4487292627	 5.2873701996	 0.1520482557	-0.328139
O	 3.6428515139	 3.43187753	-0.0952269891	-0.235924
C	 3.6395335419	 2.0669270163	-0.5551342171	-0.089233
C	 2.5665214297	 1.2272439411	 0.1241465591	-0.322564
H	-0.9355622378	 1.788325534	-0.0190295129	 0.090162
H	 0.3025711724	 3.8437370526	-0.1682667653	 0.135499
H	 3.4886848989	 2.0663379361	-1.6420717146	 0.122217
H	 4.6437555644	 1.694319551	-0.3469069601	 0.134737
H	 2.8135672521	 1.056932928	 1.1799654657	 0.142369
H	 2.4970748629	 0.2400512259	-0.3419051714	 0.145901
92.1628	122.5666	193.0898	235.7891	249.6673	380.2772	440.8338	451.1607	518.7254	633.8815	723.2752	729.9898	801.0419	849.0877	914.295	936.3099	1009.152	1031.4553	1081.6437	1100.3932	1144.9175	1217.8231	1236.0322	1277.5215	1332.9069	1393.4724	1417.471	1425.5913	1465.7226	1509.4678	1689.4582	1792.5201	1821.9162	2908.0039	3028.7967	3038.8151	3098.2726	3120.7383	3194.8996
O=CC1=CC(=O)OCC1	O=CC1=CC(=O)OCC1	
InChI=1S/C6H6O3/c7-4-5-1-2-9-6(8)3-5/h3-4H,1-2H2	InChI=1S/C6H6O3/c7-4-5-1-2-9-6(8)3-5/h3-4H,1-2H2
