20
gdb 52115	3.88425	0.89721	0.81799	3.5606	81.06	-0.2433	0.0336	0.2769	1444.0661	0.171727	-403.147189	-403.138327	-403.137383	-403.182303	32.722	
O	 0.0037791431	 0.4474115491	 0.9432679455	-0.324495
C	 0.0825924812	 1.2160970362	 0.0079751332	 0.155949
N	 1.2198861228	 1.5181167445	-0.6724993709	-0.268139
C	 2.5327726341	 0.9892102761	-0.3178250833	-0.280987
C	 3.5268870358	 2.0807336965	-0.044659221	 0.369366
C	 4.3094146583	 2.7662389495	-1.1376779083	-0.329766
C	 5.0576159537	 2.0337545786	-0.056711866	-0.101973
C	 5.1155693036	 2.8892667905	 1.2141929666	-0.217495
C	 3.5520253171	 2.9529060026	 1.2219190213	-0.286111
H	-0.7925424491	 1.7617661382	-0.398974851	 0.07128
H	 1.1656711718	 2.201605061	-1.4113586681	 0.246427
H	 2.3720580962	 0.3653475246	 0.5654585839	 0.146822
H	 2.9046545837	 0.3379607306	-1.1206687696	 0.104924
H	 4.2937284687	 2.2704026557	-2.104176544	 0.106984
H	 4.3504860959	 3.8524125758	-1.1945623198	 0.104441
H	 5.7084653745	 1.1985946389	-0.2885367573	 0.087497
H	 5.5101533324	 2.350729213	 2.0782498124	 0.107705
H	 5.6496860139	 3.840800829	 1.1235848923	 0.097155
H	 3.0949535468	 3.9435043697	 1.1326502896	 0.094043
H	 3.1192402254	 2.4483251699	 2.0888368345	 0.116372
23.6083	65.4037	129.3235	225.1733	232.2229	287.8871	352.4891	403.1757	430.7945	542.9453	670.2312	715.679	778.1344	787.6615	844.9287	895.702	933.3213	938.0905	960.6054	971.1263	1001.9793	1031.2733	1035.4911	1044.6538	1083.8651	1119.3777	1152.8749	1203.9258	1210.0593	1222.8405	1241.9915	1269.9977	1279.3524	1329.0875	1368.1387	1411.4952	1431.1483	1482.6416	1483.9277	1491.5292	1511.5002	1527.5434	1804.7694	2929.914	3011.1128	3044.9524	3053.1105	3097.734	3098.5855	3103.5351	3116.622	3175.4816	3189.6248	3630.7834
O=CNCC12CC1CC2	O=CNC[C@]12C[C@H]1CC2	
InChI=1S/C7H11NO/c9-5-8-4-7-2-1-6(7)3-7/h5-6H,1-4H2,(H,8,9)	InChI=1S/C7H11NO/c9-5-8-4-7-2-1-6(7)3-7/h5-6H,1-4H2,(H,8,9)/t6-,7+/m1/s1
