23
gdb 116949	5.0242	0.46752	0.45175	1.4951	92.32	-0.2424	0.0591	0.3015	2498.4595	0.202845	-388.272625	-388.260907	-388.259963	-388.312763	40.757	
C	-0.4821463655	 1.3280520627	-0.1762788526	-0.379534
C	 0.0534669143	-0.0853480489	 0.076042076	 0.052107
C	 0.7416481061	-0.6533378331	-1.1706159001	-0.390343
C	 1.0257112624	-0.1173518541	 1.2815406926	-0.347976
C	 0.4159608991	 0.2696830366	 2.5495142424	 0.042956
C	-0.1057180852	 0.5938365831	 3.5863587154	 0.079381
C	-0.7263508802	 0.9547689499	 4.8550325945	-0.325425
C	-0.9742157283	-0.2598961277	 5.7559635747	-0.062372
O	-1.5765293953	 0.2216218424	 6.9457694064	-0.415759
H	 0.3320902898	 2.0098209998	-0.4513725796	 0.108504
H	-1.2087376828	 1.331699274	-0.9952118428	 0.108474
H	-0.9696033035	 1.7304104916	 0.7159364133	 0.127104
H	-0.7955594467	-0.733854124	 0.3286679366	 0.081657
H	 1.6105326907	-0.0452640791	-1.4504252286	 0.112267
H	 1.0911165359	-1.678311645	-1.0060605615	 0.109436
H	 0.0581641894	-0.6652077335	-2.0255730679	 0.111332
H	 1.4438351794	-1.1284428573	 1.3753965286	 0.119029
H	 1.879176454	 0.5417575568	 1.0663519816	 0.120153
H	-0.0976335537	 1.6675528109	 5.4029022948	 0.134243
H	-1.6860064677	 1.4584660397	 4.6853578198	 0.133943
H	-1.6235016484	-0.9767379103	 5.2313538101	 0.096073
H	-0.0180292961	-0.765134573	 5.9585054229	 0.096562
H	-1.7374757076	-0.5270113416	 7.5269672635	 0.288188
4.8546	53.7462	67.5973	114.8482	117.6703	225.044	238.971	249.7073	275.1975	298.0938	307.3509	369.3607	386.0175	421.8721	486.5442	538.2041	794.1965	804.0316	823.8519	883.811	931.4346	951.8758	968.9643	1002.2103	1079.4405	1087.5306	1126.3183	1140.1282	1163.6128	1191.3848	1221.7018	1237.8047	1257.5631	1303.8197	1309.1239	1334.0434	1366.9862	1369.3286	1400.4769	1420.683	1454.016	1468.3499	1478.8895	1488.5181	1493.2249	1503.1855	1510.4635	1527.625	2365.55	2981.993	3001.0234	3012.2946	3017.3556	3022.6143	3027.2273	3028.6595	3038.2431	3063.8914	3087.1372	3093.3395	3100.0928	3114.5084	3835.1391	4.8474	53.7455	67.5955	114.8479	117.6696	225.0435	238.9652	249.7067	275.1974	298.0938	307.3507	369.3605	386.0174	421.8719	486.544	538.2039	794.1965	804.0315	823.8518	883.811	931.4346	951.8758	968.9643	1002.2102	1079.4398	1087.5307	1126.3183	1140.1283	1163.6128	1191.385	1221.7019	1237.8048	1257.5629	1303.8197	1309.1239	1334.0435	1366.9864	1369.3287	1400.477	1420.6831	1454.016	1468.3494	1478.8897	1488.5183	1493.225	1503.1858	1510.4637	1527.6248	2365.55	2981.9928	3001.0233	3012.2945	3017.3556	3022.6142	3027.2273	3028.6595	3038.2431	3063.8914	3087.1372	3093.3396	3100.0928	3114.5083	3835.1379
CC(C)CC#CCCO	CC(C)CC#CCCO	
InChI=1S/C8H14O/c1-8(2)6-4-3-5-7-9/h8-9H,5-7H2,1-2H3	InChI=1S/C8H14O/c1-8(2)6-4-3-5-7-9/h8-9H,5-7H2,1-2H3
