18
gdb 72332	2.66973	2.00594	1.6391	1.3174	76.84	-0.2285	0.0013	0.2298	894.1039	0.149406	-401.85744	-401.850613	-401.849669	-401.887983	29.309	
O	 0.1984509972	 1.3861276282	 0.1071575153	-0.483044
C	 0.0872934358	-0.0089227493	 0.006532667	 0.475079
C	 0.6412608483	-0.5488815774	-1.3292158852	-0.377269
C	-0.6538907263	-0.6827030135	-2.1437811108	-0.065357
C	-1.7649832699	-0.7221409896	-1.3883754515	-0.234761
C	-1.3195867683	-0.6605145745	 0.033260785	 0.260924
C	-1.5206428626	-0.1032617461	 1.4690987834	-0.324584
C	-0.067499269	-0.7111829692	 1.383660672	-0.103088
N	-0.6081606172	-1.8992100244	 0.6284638621	-0.362462
H	-0.0751697714	 1.7671085852	-0.7355129807	 0.281054
H	 1.3715170601	 0.1302741133	-1.7806403938	 0.097744
H	 1.1099067336	-1.530253544	-1.2199768737	 0.14584
H	-0.6418384219	-0.7946673844	-3.2233742764	 0.09896
H	-2.7763461665	-0.8514663682	-1.7532492448	 0.103108
H	-1.6237769602	 0.9755809017	 1.5879565551	 0.115717
H	-2.2093879837	-0.6600563649	 2.1111182544	 0.087968
H	 0.6590377887	-0.8210912152	 2.191525502	 0.079177
H	-1.2777670365	-2.3896310478	 1.2277918406	 0.204994
212.6948	279.9608	312.2211	355.718	414.8766	442.6002	511.0694	549.2527	609.7624	633.285	701.3693	758.1829	795.1814	820.6748	851.4634	891.9965	904.8652	934.4253	959.5632	970.24	998.6222	1034.4138	1065.608	1094.8935	1122.227	1134.2424	1147.226	1178.8077	1204.0235	1230.1374	1250.2103	1263.9887	1296.6448	1300.4418	1368.9801	1388.5255	1458.4281	1494.1743	1613.375	3054.2372	3056.345	3092.7829	3105.4381	3139.7889	3181.3801	3212.7369	3397.3815	3787.2296
OC12CC=CC11CC2N1	O[C@]12CC=C[C@@]31C[C@H]2N3	
InChI=1S/C7H9NO/c9-7-3-1-2-6(7)4-5(7)8-6/h1-2,5,8-9H,3-4H2	InChI=1S/C7H9NO/c9-7-3-1-2-6(7)4-5(7)8-6/h1-2,5,8-9H,3-4H2/t5-,6+,7+/m1/s1
