16
gdb 61371	2.96541	0.87927	0.75157	3.2123	70.38	-0.2706	-0.1131	0.1575	1470.4352	0.121038	-437.92167	-437.911941	-437.910997	-437.957583	33.101	
C	-0.2137457442	 1.6026045792	 0.0654041162	-0.400261
C	 0.0401315805	 0.0837941576	-0.0099390003	-0.143943
C	 0.6403951274	-0.3493838134	-1.3622015071	-0.31413
C	-0.3648373514	-0.3015443098	-2.4905812956	 0.283146
O	-1.5501150491	-0.1047053429	-2.3545817473	-0.274244
C	 0.1745789273	-0.5422649382	-3.9089947877	 0.098532
O	 1.3401678519	-0.7050140866	-4.1517314665	-0.211228
C	 0.915479784	-0.3492879047	 1.0833800562	 0.265775
N	 1.6128424379	-0.6851742102	 1.9415535508	-0.317677
H	 0.7197469215	 2.1585379557	-0.0607227836	 0.136206
H	-0.9136695804	 1.8957714408	-0.7192621167	 0.145146
H	-0.6442691438	 1.8739191618	 1.0318632803	 0.144024
H	-0.9192341573	-0.4326290208	 0.1107552601	 0.14756
H	 1.512048434	 0.2571501956	-1.6329126429	 0.159011
H	 1.0206125426	-1.3784073245	-1.3151907125	 0.164701
H	-0.6244153411	-0.5414014094	-4.6790836034	 0.117383
38.1857	77.4068	112.2137	133.524	196.5407	222.4657	228.7748	288.699	345.2975	456.816	508.19	532.1447	567.8257	634.3292	809.555	825.7264	865.5773	946.2736	989.8675	1069.3212	1098.4427	1138.8069	1156.053	1233.4026	1298.8904	1332.5537	1363.1061	1383.5375	1411.3949	1436.0634	1497.0126	1502.929	1802.7666	1826.48	2359.2334	2936.0393	3040.6749	3050.4526	3056.1903	3081.8258	3129.8119	3145.0368
CC(CC(=O)C=O)C#N	C[C@@H](CC(=O)C=O)C#N	
InChI=1S/C6H7NO2/c1-5(3-7)2-6(9)4-8/h4-5H,2H2,1H3	InChI=1S/C6H7NO2/c1-5(3-7)2-6(9)4-8/h4-5H,2H2,1H3/t5-/m0/s1
