22
gdb 86908	4.22829	0.8007	0.7651	1.9491	83.09	-0.2355	0.0841	0.3196	1593.5846	0.193631	-404.301737	-404.292398	-404.291454	-404.336885	34.593	
C	 0.4628097788	 1.3516600927	-0.7862707726	-0.398137
C	 0.0638869462	-0.0049868517	-0.2441247734	 0.175702
C	 0.6667769702	-1.2764391546	-0.8804256396	-0.310902
C	 1.1162887568	-1.610139821	 0.5584415522	 0.158718
C	 2.5869506707	-1.8584988177	 0.8555188319	-0.169366
N	 2.9562761792	-3.229177023	 0.5283845054	-0.067437
C	 3.5276746967	-3.4646517327	-0.7949013672	-0.218302
C	 4.3812996681	-3.5129029608	 0.4235324269	-0.217604
O	 0.6981396688	-0.3067476305	 1.0253593503	-0.314781
H	 1.548190259	 1.4163621108	-0.9110719904	 0.115809
H	-0.0129909344	 1.5308145459	-1.7569335052	 0.114653
H	 0.1483997337	 2.1451437326	-0.1007771669	 0.127253
H	-1.0296832093	-0.0622586166	-0.1411292579	 0.071554
H	-0.0269851727	-1.971047602	-1.355388815	 0.107417
H	 1.4947883898	-1.0667068011	-1.5629413035	 0.100093
H	 0.5214437181	-2.4086149366	 1.0222433504	 0.08153
H	 3.2036259095	-1.108399311	 0.3271231764	 0.07702
H	 2.7426884318	-1.7066228725	 1.9306695722	 0.114216
H	 3.2159490723	-4.3794434075	-1.2907563693	 0.116838
H	 3.6603427616	-2.6097856531	-1.456217701	 0.108659
H	 5.0783912169	-2.6894997979	 0.5727221242	 0.109774
H	 4.7055747783	-4.4642159916	 0.8358670221	 0.117291
49.8793	66.2696	90.509	171.8355	225.9781	303.2838	325.7984	349.9434	417.4262	424.1581	475.2945	702.7488	773.0387	821.0258	839.8979	889.9292	893.703	912.3253	923.9993	963.46	1018.0325	1031.6866	1046.2299	1089.3346	1106.71	1112.4294	1118.5146	1141.3716	1153.342	1173.8408	1190.8469	1210.6172	1249.8288	1267.2901	1277.558	1320.7339	1325.7691	1364.5677	1383.412	1403.1888	1422.1482	1481.7037	1485.0597	1489.6882	1494.7279	1498.7837	1521.9594	2937.1586	2990.7214	3013.7953	3031.9169	3053.4012	3065.993	3092.5355	3097.5463	3104.1096	3111.2834	3130.1797	3175.5678	3189.946
CC1CC(CN2CC2)O1	C[C@H]1C[C@@H](CN2CC2)O1	
InChI=1S/C7H13NO/c1-6-4-7(9-6)5-8-2-3-8/h6-7H,2-5H2,1H3	InChI=1S/C7H13NO/c1-6-4-7(9-6)5-8-2-3-8/h6-7H,2-5H2,1H3/t6-,7-/m0/s1
