16
gdb 77288	3.13578	1.1204	0.99594	4.7568	67.78	-0.2435	-0.0191	0.2244	1199.5366	0.122698	-475.002078	-474.993353	-474.992408	-475.036187	31.228	
O	-0.9364836923	 1.6046207513	 0.7026968909	-0.419139
C	-0.3675300869	 0.4183012294	 0.2778376525	 0.07093
C	-0.4581522582	-0.7978046766	 1.1388097538	 0.062412
O	-1.1665221265	-0.7882352022	 2.3676946463	-0.20417
C	-0.7395843694	-0.0027928192	 3.3672218131	 0.147521
N	 0.1164323933	 0.9228109386	 3.2438339503	-0.479876
C	-1.3031019388	-0.723735912	-0.1244732568	-0.20834
C	-2.7750329655	-0.5267502258	-0.0223174494	 0.183506
O	-3.5600053983	-1.0641241011	-0.7653571075	-0.272953
H	-0.4934492832	 1.8075423773	 1.5454920816	 0.303554
H	 0.5414386653	 0.5136664298	-0.3175028197	 0.105984
H	 0.368153305	-1.5022673058	 1.1564497855	 0.123512
H	-1.2608962458	-0.289065557	 4.2844658831	 0.131933
H	 0.2789648614	 1.3836799024	 4.135565419	 0.244342
H	-1.0049667968	-1.3598529244	-0.950049887	 0.115607
H	-3.1070732832	 0.1595725552	 0.7780148141	 0.095175
63.2956	78.7874	167.4998	202.5495	209.7652	257.1661	289.0159	431.1474	442.8045	576.1703	589.8175	635.0814	766.1047	810.7757	821.1013	833.6935	894.1169	991.7772	1041.4207	1047.4046	1066.0321	1078.9275	1129.0036	1151.1648	1167.4004	1248.4879	1312.194	1329.6766	1362.7715	1390.0072	1413.849	1437.5405	1446.07	1710.5996	1812.3038	2965.179	3092.5746	3105.9436	3151.8536	3185.7489	3530.0686	3621.3098
OC1C(OC=N)C1C=O	O[C@H]1[C@@H](O[CH][NH])[C@H]1C=O	
InChI=1S/C5H7NO3/c6-2-9-5-3(1-7)4(5)8/h1-6,8H	InChI=1S/C5H7NO3/c6-2-9-5-3(1-7)4(5)8/h1-6,8H/t3-,4+,5-/m0/s1
