21
gdb 106171	3.00948	1.33883	1.29824	1.8276	81.04	-0.2193	0.0867	0.306	1127.0612	0.183918	-387.066985	-387.058929	-387.057985	-387.09966	31.755	
C	 0.1365460288	 1.4939518033	-0.3732695869	-0.373952
C	 0.0004073679	 0.0723137408	 0.1879904686	-0.320389
C	-1.4011518371	-0.4641827895	 0.1512971346	 0.297944
C	-1.8602650438	-1.9126647349	 0.0912564079	-0.154713
C	-2.8410305257	-2.2358354218	 1.2200270316	-0.228547
C	-3.1486537706	-0.8493099239	 1.8548261006	-0.210865
C	-2.6969030823	 0.1245403063	 0.773235992	 0.043969
O	-3.4552604478	-0.1747710864	-0.4482082629	-0.314041
C	-2.3278974411	-0.9004809449	-0.9415055751	 0.047255
H	 1.1762494884	 1.8331645028	-0.3335788318	 0.111218
H	-0.1957486753	 1.5374134657	-1.4153296456	 0.121655
H	-0.4672952098	 2.2078935817	 0.1963935639	 0.11809
H	 0.6493273849	-0.6082639797	-0.3775554745	 0.100754
H	 0.3737691915	 0.0477107866	 1.221550992	 0.098505
H	-1.1521925252	-2.6599304006	-0.2528560275	 0.081205
H	-3.7515823812	-2.7037411327	 0.8346190784	 0.111302
H	-2.3984869795	-2.9266269993	 1.9431893525	 0.097103
H	-4.2059013621	-0.7190321687	 2.1024571737	 0.10634
H	-2.5636661451	-0.6876059845	 2.7686307158	 0.095122
H	-2.7391810747	 1.1882076216	 1.0165610572	 0.075831
H	-2.2165369501	-0.9991769521	-2.0158718845	 0.096214
73.0854	143.1329	188.174	218.6298	272.9639	357.3607	407.1886	511.2064	589.7854	664.6809	734.5338	753.4414	777.1973	831.4881	859.7295	880.8216	906.6323	911.2006	958.3632	978.7599	1000.5621	1017.4427	1026.6238	1062.3582	1066.8351	1086.4107	1110.8639	1162.2628	1189.6343	1200.8989	1253.8658	1261.4925	1283.1979	1292.59	1313.1002	1331.9603	1343.029	1364.2636	1411.1752	1465.8997	1474.5829	1479.367	1498.9417	1499.2074	1506.9888	3006.7294	3032.959	3036.023	3043.842	3055.6707	3085.9271	3093.5063	3102.3258	3105.0712	3108.3679	3163.6222	3174.6905
CCC12C3CCC1OC23	CC[C@@]12[C@H]3CC[C@@H]1O[C@@H]23	
InChI=1S/C8H12O/c1-2-8-5-3-4-6(8)9-7(5)8/h5-7H,2-4H2,1H3	InChI=1S/C8H12O/c1-2-8-5-3-4-6(8)9-7(5)8/h5-7H,2-4H2,1H3/t5-,6-,7+,8+/m0/s1
