12
gdb 20760	7.46767	1.32801	1.13545	3.0967	59.39	-0.2888	-0.0987	0.1901	975.861	0.083192	-414.671612	-414.664582	-414.663637	-414.703282	24.047	
C	-0.0008218678	 1.481456848	 0.0366730784	-0.490937
C	-0.0022411032	-0.0065121989	-0.0033864188	 0.356963
N	-0.0841392708	-0.6828624544	-1.1258873108	-0.142846
O	-0.05328227	-2.0138426845	-0.7245817576	-0.173196
C	 0.044764082	-1.9982689627	 0.6079183392	 0.319136
C	 0.1021336679	-3.2704356325	 1.3698351591	 0.084485
O	 0.0658321395	-4.359602202	 0.8612371295	-0.227787
N	 0.0809240478	-0.8018945495	 1.1178027437	-0.320168
H	 0.9173484292	 1.8456878303	 0.5065440208	 0.156379
H	-0.0742093944	 1.8865641715	-0.973269006	 0.157731
H	-0.8426823724	 1.8439665731	 0.6336362711	 0.156388
H	 0.1821620222	-3.1032526384	 2.4607322014	 0.123852
98.103	128.3779	176.0189	232.437	331.4199	335.5719	498.5545	678.931	698.5006	719.0205	777.1243	946.5557	999.0511	1028.0483	1039.5594	1060.5225	1071.9597	1317.9379	1368.5725	1395.5158	1417.0055	1472.373	1475.4976	1538.3401	1603.7018	1817.371	2964.0423	3055.0801	3116.9633	3154.986
CC1=NOC(C=O)=N1	Cc1noc(C=O)n1	
InChI=1S/C4H4N2O2/c1-3-5-4(2-7)8-6-3/h2H,1H3	InChI=1S/C4H4N2O2/c1-3-5-4(2-7)8-6-3/h2H,1H3
