19
gdb 120057	4.52158	0.99665	0.95315	1.5475	74.96	-0.2327	0.0735	0.3062	1300.0305	0.158888	-422.93818	-422.930107	-422.929162	-422.971509	30.423	
C	 0.0660093517	 1.365982097	 0.0922303625	-0.222918
O	 0.0656015925	-0.0382303417	 0.0165376858	-0.23892
C	 0.672813346	-0.5264300702	-1.16371997	-0.087176
C	 0.6611262135	-2.0398281748	-1.1004403563	 0.003422
C	 1.297016134	-2.8690792487	-2.217849219	-0.152668
C	 2.7767591302	-3.004144126	-1.8077146048	 0.094857
O	 2.9798903454	-2.2414005825	-0.6190569106	-0.290871
C	 1.6902314689	-2.7555055402	-0.1751574138	 0.05778
C	 1.769894847	-3.928556617	-1.2226546663	-0.151497
H	 1.0879590769	 1.7769380225	 0.0808454695	 0.105637
H	-0.4932765448	 1.8213258478	-0.7412931202	 0.099831
H	-0.4160023341	 1.645214925	 1.0326833571	 0.123616
H	 0.1209409139	-0.1779236639	-2.0549555181	 0.07731
H	 1.7087888463	-0.165713001	-1.2492558987	 0.103281
H	-0.3462027438	-2.4055621498	-0.8794579854	 0.085182
H	 0.9568375801	-3.0129898442	-3.2356526416	 0.090289
H	 3.6025218075	-3.1499935213	-2.4910529267	 0.10983
H	 1.5882229486	-2.8017445041	 0.9058673984	 0.091891
H	 1.6604395602	-5.002637837	-1.180220862	 0.101124
65.9863	97.2064	131.5371	225.0879	263.5663	343.5362	377.5353	574.0972	621.4684	757.7333	765.9543	776.2402	788.6188	829.2871	871.0737	913.6446	962.0547	981.9727	1004.8591	1027.4834	1030.6014	1044.6096	1067.1055	1081.8789	1136.9253	1151.9812	1166.3691	1172.583	1186.6823	1219.7442	1224.133	1240.9314	1268.0731	1312.8104	1357.5079	1373.3647	1428.0809	1479.9119	1486.0581	1501.7852	1527.1415	2946.3502	2968.0362	3009.4224	3013.0212	3073.5675	3109.5699	3159.5768	3195.7545	3207.7108	3223.5192
COCC1C2C3OC1C23	COC[C@H]1[C@H]2[C@H]3O[C@@H]1[C@@H]23	
InChI=1S/C7H10O2/c1-8-2-3-4-5-6(3)9-7(4)5/h3-7H,2H2,1H3	InChI=1S/C7H10O2/c1-8-2-3-4-5-6(3)9-7(4)5/h3-7H,2H2,1H3/t3-,4+,5+,6-,7+/m0/s1
