20
gdb 76305	2.22105	1.44703	1.00162	5.0781	80.79	-0.2361	0.0205	0.2566	1237.5053	0.170316	-399.315278	-399.305412	-399.304468	-399.34986	36.069	
C	 0.0692914092	 1.5651728012	 0.0682883489	-0.411743
C	 0.0300822036	 0.0572089321	-0.0844580705	 0.052046
C	 0.7226495615	-0.6331270731	-1.3157989919	-0.019388
N	 1.8065444684	 0.0275696496	-2.0024034888	-0.499989
C	 1.2050524274	-1.6872464415	-0.2662271221	-0.137128
C	 2.5799638397	-2.1812380744	-0.3307111179	 0.309742
N	 3.6670741417	-2.5717166446	-0.3630578861	-0.332271
N	 0.9364378468	-0.7080728283	 0.7989853141	-0.07843
C	 0.4580285459	-1.1945108413	 2.0753587737	-0.338941
H	 1.0785476731	 1.9517220967	-0.0975407165	 0.115589
H	-0.6109079693	 2.0450429998	-0.6439248311	 0.116894
H	-0.2439285115	 1.8611344737	 1.0749111512	 0.1254
H	-1.0114754518	-0.3034525548	-0.0036392904	 0.057164
H	 0.0295518794	-1.0304634153	-2.0593095981	 0.093469
H	 1.4618065217	 0.7897882091	-2.5762190203	 0.235224
H	 2.4790088344	 0.4136760638	-1.3470044482	 0.245952
H	 0.5241858097	-2.555077654	-0.244592632	 0.102499
H	 1.2375713738	-1.7901029369	 2.5607620869	 0.138495
H	 0.2284707487	-0.3477871054	 2.7292956468	 0.128846
H	-0.4507868324	-1.8184834661	 1.9847652425	 0.096568
63.5218	129.0516	166.3187	176.9796	213.3557	225.3216	255.1165	288.6857	319.166	371.8502	400.8459	483.8769	560.4388	591.2174	730.1802	767.7181	827.083	837.2471	890.2491	958.1256	1007.0241	1037.5193	1076.6449	1125.5055	1142.2255	1161.1478	1189.9024	1208.7499	1235.3251	1254.9093	1279.882	1316.2533	1348.9447	1395.658	1417.5374	1426.0892	1453.9935	1486.4287	1489.7643	1493.9786	1496.5021	1658.4109	2358.0959	2930.6533	2936.2596	2958.3293	3035.4554	3067.9469	3096.438	3100.386	3109.5871	3116.7646	3502.9749	3588.4164
CC1C(N)C(C#N)N1C	C[C@H]1[C@@H](N)[C@@H](C#N)N1C	
InChI=1S/C6H11N3/c1-4-6(8)5(3-7)9(4)2/h4-6H,8H2,1-2H3	InChI=1S/C6H11N3/c1-4-6(8)5(3-7)9(4)2/h4-6H,8H2,1-2H3/t4-,5+,6+/m0/s1
