23
gdb 108979	3.50914	1.12423	1.04584	0.238	91.41	-0.2209	0.0257	0.2466	1295.0631	0.208209	-351.163718	-351.15539	-351.154446	-351.196673	33.523	
C	-0.2645278186	 1.5212681296	 0.0028994591	-0.37232
C	 0.1022937832	 0.026674765	 0.0373186004	-0.277415
C	 0.8077121841	-0.4608361722	-1.2011379094	 0.330664
C	 2.0744043976	-0.8881143207	-1.2148157331	-0.174337
C	 2.6799476418	-1.3633206417	-2.5183592223	-0.045497
C	 2.3169808592	-0.3337252478	-3.6325004152	-0.213451
C	 0.9223858979	-1.0255635881	-3.6586904899	-0.016005
C	 1.6591903021	-2.3209254019	-3.2083401672	-0.213944
C	 0.0441089161	-0.4866966462	-2.5156981005	-0.297761
H	 0.6308665482	 2.1386724975	-0.1217933001	 0.117779
H	-0.9468687384	 1.7521550246	-0.8210577596	 0.117607
H	-0.7572546407	 1.8213416634	 0.9330752434	 0.111055
H	 0.736502669	-0.1677325984	 0.9098184053	 0.097092
H	-0.8186239246	-0.5558524586	 0.1862051478	 0.095727
H	 2.6735207017	-0.9075193424	-0.3080782389	 0.073664
H	 3.7175812923	-1.68447734	-2.4146105569	 0.053024
H	 2.3665631091	 0.7274845592	-3.3743553306	 0.088426
H	 2.8703856696	-0.5182910301	-4.5576397601	 0.09035
H	 0.3742608427	-1.0460654078	-4.6040758828	 0.055309
H	 2.1004474276	-2.8446703887	-4.0610714669	 0.090587
H	 1.1234247017	-3.0305629788	-2.572286001	 0.088702
H	-0.8585047174	-1.1065606559	-2.4065932257	 0.098305
H	-0.317422834	 0.5198505399	-2.7684775759	 0.102438
62.0988	122.2266	214.3205	249.3135	317.5384	348.5397	394.2598	479.3028	500.3553	518.4765	588.9874	765.2003	786.2727	818.3602	840.9191	856.106	872.0878	886.1059	932.7984	935.1398	960.9764	982.6235	1031.2775	1061.7153	1074.1292	1076.545	1100.3944	1112.2376	1118.631	1131.3182	1199.7552	1210.5372	1245.4177	1254.6044	1278.9198	1291.632	1328.4325	1330.0627	1350.6915	1357.8206	1389.5242	1406.2199	1471.8452	1475.4814	1480.1355	1498.2989	1506.8316	1507.9169	1717.1153	2993.8544	3001.3671	3022.8576	3036.6149	3046.1117	3049.698	3055.6305	3071.2138	3090.541	3105.0501	3105.5283	3108.5423	3109.3836	3157.3429
CCC1=CC2CC(C2)C1	CCC1=C[C@@H]2C[C@@H](C2)C1	
InChI=1S/C9H14/c1-2-7-3-8-5-9(4-7)6-8/h3,8-9H,2,4-6H2,1H3	InChI=1S/C9H14/c1-2-7-3-8-5-9(4-7)6-8/h3,8-9H,2,4-6H2,1H3/t8-,9+
