23
gdb 119269	1.7652	1.10367	0.76317	1.9015	82.85	-0.2509	0.0751	0.3261	1585.0669	0.203753	-425.395633	-425.384826	-425.383882	-425.432494	38.648	
C	 0.4536966481	 1.2357184677	-0.5447085488	-0.223746
O	 0.4110305443	-0.1614562651	-0.3898556517	-0.236592
C	 0.6786953152	-0.5766393335	 0.9353391226	-0.129763
C	 0.5672896784	-2.083061601	 1.0128214881	 0.356721
C	-0.7759965701	-2.6712400152	 0.6073131121	-0.292611
C	-1.9380485047	-2.29224272	 1.5305106399	-0.059568
O	-3.1460334868	-2.950253217	 1.176846905	-0.418616
C	 1.8134449472	-2.8715088921	 0.6893242022	-0.305934
C	 1.34483208	-2.7600818352	 2.118773603	-0.315087
H	 1.4475830022	 1.6448103297	-0.3016745553	 0.102993
H	 0.2285405076	 1.4579366927	-1.5907592706	 0.126373
H	-0.2875443628	 1.7429413116	 0.0939972254	 0.102225
H	 1.6903531958	-0.2581573817	 1.2401589063	 0.078933
H	-0.0292667224	-0.0915784724	 1.6296597503	 0.086578
H	-1.0084190435	-2.34560442	-0.4148475196	 0.104472
H	-0.7071683687	-3.7648862358	 0.5873389556	 0.098459
H	-1.7205633075	-2.6059143925	 2.5572915004	 0.109519
H	-2.0767230519	-1.2002058513	 1.5486724587	 0.087377
H	-3.379223063	-2.6707349922	 0.2856842758	 0.280247
H	 1.6963837777	-3.8240539782	 0.1841112131	 0.111994
H	 2.7016973646	-2.3211537386	 0.3979650539	 0.112294
H	 1.9209274436	-2.1444999844	 2.8021381803	 0.109182
H	 0.9014864567	-3.6353200556	 2.5817944034	 0.11455
39.8687	85.4358	94.2464	118.0097	172.3172	180.0713	230.8596	289.4295	313.5015	338.4348	350.9919	411.1189	438.3754	535.1951	765.4203	782.6303	801.6408	890.1429	928.5867	956.9248	968.3942	1000.2653	1031.5893	1052.0869	1055.8943	1074.3707	1082.864	1094.3551	1153.8197	1176.0672	1184.9233	1187.117	1226.2726	1250.6378	1282.8102	1316.1559	1347.1602	1362.1579	1401.2435	1421.1916	1430.2699	1467.5381	1479.8584	1484.5287	1486.1757	1501.0706	1507.0255	1513.7597	1525.1213	2943.6869	2967.116	2969.8816	2986.9208	3008.4185	3024.5603	3060.8536	3080.8767	3111.7792	3126.4636	3132.5266	3204.2888	3219.3651	3812.6603
COCC1(CCO)CC1	COCC1(CCO)CC1	
InChI=1S/C7H14O2/c1-9-6-7(2-3-7)4-5-8/h8H,2-6H2,1H3	InChI=1S/C7H14O2/c1-9-6-7(2-3-7)4-5-8/h8H,2-6H2,1H3
