15
gdb 123636	4.03069	1.57025	1.22934	4.2645	70.61	-0.2387	-0.0113	0.2274	962.1949	0.116218	-416.769625	-416.763501	-416.762556	-416.800081	24.77	
C	-0.0544597002	 1.5546932437	-0.0056814677	-0.365934
C	 1.4529380389	 1.8919166953	-0.0323856558	-0.017989
N	 2.1984199512	 1.444906167	 1.1570919133	-0.32031
C	 2.2707763698	 0.6329442078	-0.0900870517	-0.237638
C	 1.2420638017	-0.4256417403	-0.0764394016	 0.461936
C	-0.0273407956	 0.0473642948	 0.0049848582	 0.153376
C	-0.7977199709	-1.1376068432	 0.0782887851	-0.123121
N	-0.042812142	-2.2166746702	 0.0209424164	-0.1456
O	 1.2868503418	-1.7544242793	-0.0689095819	-0.234358
H	-0.5316114943	 1.986955654	 0.8800149478	 0.131855
H	-0.5606711531	 1.9642443914	-0.8874925613	 0.117066
H	 1.781186092	 2.792044137	-0.5409842229	 0.099479
H	 3.0522370991	 1.9951374588	 1.236074786	 0.236789
H	 3.2040053302	 0.544536524	-0.6323755783	 0.112428
H	-1.8677273086	-1.2731567608	 0.1548345644	 0.132022
154.8658	242.409	350.8279	416.4165	443.7218	589.0233	639.0041	705.6312	737.7208	782.2477	817.8056	839.1879	865.834	885.8827	907.6921	929.7875	973.7353	996.6274	1060.4126	1116.3732	1136.4879	1174.5958	1188.1982	1199.594	1226.7861	1286.2408	1310.6533	1369.9237	1414.7148	1420.6272	1476.4942	1509.8808	1641.7051	3038.7705	3079.4208	3169.6915	3193.6839	3239.4347	3481.7578
C1C2NC2C2=C1C=NO2	C1[C@H]2N[C@H]2c2c1cno2	
InChI=1S/C6H6N2O/c1-3-2-7-9-6(3)5-4(1)8-5/h2,4-5,8H,1H2	InChI=1S/C6H6N2O/c1-3-2-7-9-6(3)5-4(1)8-5/h2,4-5,8H,1H2/t4-,5-/m1/s1
