15
gdb 44647	3.14953	1.72088	1.55777	4.9539	63.4	-0.2633	0.0021	0.2654	878.1157	0.113981	-457.735233	-457.7288	-457.727856	-457.766214	25.214	
O	-0.347949335	 0.2877524127	 0.4968965226	-0.311397
C	-0.1015889711	 1.3776394763	 0.1052281903	 0.476813
O	-0.9763931693	 2.2747326883	-0.4946685352	-0.258679
C	 0.092830937	 3.2369277148	-0.7422841149	 0.096987
C	 0.2529535247	 4.3292922106	 0.356746308	-0.112406
C	-0.6627383185	 4.1869057982	 1.5827522039	-0.094554
O	 0.2329216759	 3.2080068198	 2.1818941991	-0.281435
C	 1.1959622203	 3.3728853802	 1.1301826982	 0.114845
C	 1.1019736088	 2.3105248286	-0.0240511057	-0.277358
H	 0.1343323718	 3.5224297062	-1.7918311386	 0.105892
H	 0.5337082368	 5.3224005781	 0.0111239956	 0.091058
H	-0.7226534785	 5.0901087302	 2.199956432	 0.111327
H	-1.6622365472	 3.779891535	 1.4095739566	 0.134111
H	 2.1974086871	 3.6156204751	 1.492191615	 0.094764
H	 2.0227513772	 1.917267096	-0.4495089169	 0.110031
121.5838	158.0424	279.3581	384.4178	472.7545	509.1138	655.9663	733.0828	748.5013	797.8093	826.7577	847.4223	893.2609	914.7458	933.0279	983.596	1000.6282	1011.0434	1029.421	1081.5891	1094.1072	1139.4756	1166.0095	1179.5258	1199.7416	1231.5724	1245.9638	1290.515	1313.5512	1319.2306	1364.8591	1510.6222	1952.2327	3038.0634	3085.4391	3104.6401	3127.8794	3137.532	3148.8697
O=C1OC2C3COC3C12	O=C1O[C@H]2[C@H]3CO[C@H]3[C@@H]12	
InChI=1S/C6H6O3/c7-6-3-4-2(1-8-4)5(3)9-6/h2-5H,1H2	InChI=1S/C6H6O3/c7-6-3-4-2(1-8-4)5(3)9-6/h2-5H,1H2/t2-,3+,4+,5-/m0/s1
