18
gdb 18365	3.20301	2.2563	1.61079	0.7804	66.52	-0.2481	0.073	0.321	842.976	0.155363	-384.930137	-384.923065	-384.922121	-384.961337	27.147	
C	-0.0017923435	 1.5705127561	 0.0153922132	-0.410543
C	 0.0837453049	 0.0461114025	 0.0049294484	-0.002918
C	 0.9605207199	-0.5403930478	-1.1179144648	-0.103696
O	 1.3314098496	-1.8489867801	-0.6820730876	-0.263084
C	 1.489902691	-1.8118953937	 0.7192754089	 0.06155
C	 2.7497511896	-1.0949670613	 1.2531447086	-0.104176
O	 1.9776576453	 0.0687557589	 1.6284799974	-0.297056
C	 0.7337778955	-0.5682776648	 1.2474236111	 0.085733
H	 0.9816683434	 2.0023953293	 0.2188059653	 0.138536
H	-0.356930441	 1.9523354886	-0.9473534479	 0.113998
H	-0.6919255777	 1.9241155008	 0.7877578862	 0.11753
H	-0.9201329515	-0.3898905528	-0.0802352768	 0.079777
H	 0.4417977342	-0.6447632159	-2.0740823482	 0.110707
H	 1.8505807575	 0.0882597129	-1.273614456	 0.09917
H	 1.2773674148	-2.8044536912	 1.1180395192	 0.09
H	 3.2191925984	-1.5671541939	 2.1250952661	 0.101511
H	 3.5144350618	-0.8709548578	 0.5005052273	 0.109174
H	 0.0576152378	-0.6728077397	 2.1017462595	 0.073785
112.7581	194.3773	216.179	234.4465	326.366	415.0231	513.5552	599.4475	652.7426	805.9164	846.8273	867.5168	898.3336	936.0649	956.7335	968.9581	1004.2284	1019.9154	1051.9284	1075.2532	1131.5827	1139.648	1166.1836	1177.687	1226.8544	1244.6273	1251.4988	1309.7451	1322.0726	1329.6329	1356.6532	1368.199	1398.0765	1411.2933	1496.1491	1505.1311	1509.1572	1519.7392	2990.0652	3017.8207	3026.1726	3039.0892	3060.2901	3070.276	3097.143	3101.9236	3109.6096	3123.4216
CC1COC2COC12	C[C@H]1CO[C@H]2CO[C@@H]12	
InChI=1S/C6H10O2/c1-4-2-7-5-3-8-6(4)5/h4-6H,2-3H2,1H3	InChI=1S/C6H10O2/c1-4-2-7-5-3-8-6(4)5/h4-6H,2-3H2,1H3/t4-,5-,6-/m0/s1
