19
gdb 99082	3.87006	0.75648	0.67683	3.0126	72.79	-0.255	-0.0354	0.2195	1672.4742	0.155175	-460.195579	-460.185169	-460.184225	-460.232458	36.066	
C	-0.7394255042	 1.3626275886	-0.3930583062	-0.377406
C	 0.2177582917	 0.2167761713	-0.07501221	-0.27483
C	 0.7656069702	-0.4826173052	-1.3092077848	 0.371991
O	 0.5454470796	-0.0764431537	-2.4308794853	-0.305373
C	 1.6089339772	-1.7241769798	-1.0644219867	-0.338067
C	 2.4149349059	-2.2053880129	-2.2885333709	 0.060335
O	 3.3814748258	-3.1370144032	-1.884496516	-0.441613
C	 1.519651532	-2.8155361785	-3.3552753155	 0.124195
O	 1.682587724	-3.9567249332	-3.7204178539	-0.266051
H	-0.2505117625	 2.1162901725	-1.0147413526	 0.136208
H	-1.6118246566	 1.0024739186	-0.9446751877	 0.130619
H	-1.0861249348	 1.8412119639	 0.5266960716	 0.114603
H	 1.0810356658	 0.5722399293	 0.5057124284	 0.130026
H	-0.2567352954	-0.5404615839	 0.5639933177	 0.123741
H	 2.3173910287	-1.5377961556	-0.2494495648	 0.141571
H	 0.9533782069	-2.5273323812	-0.7001997881	 0.136798
H	 2.8887901187	-1.3217785595	-2.7486848083	 0.108287
H	 3.2084624969	-3.9316130735	-2.4157145043	 0.29427
H	 0.7319564901	-2.1638807041	-3.7695482325	 0.130694
39.3958	50.6687	95.8215	120.8729	145.7504	200.1043	253.4113	308.511	328.098	341.6066	439.5258	469.2675	502.1583	650.8693	715.7815	752.6368	833.9855	846.9824	878.2809	987.3747	1000.6534	1017.7153	1068.9823	1113.7854	1120.5615	1163.3438	1192.6969	1278.2148	1290.2046	1318.0083	1352.9853	1374.5758	1386.5909	1414.0669	1443.6555	1446.2615	1455.8272	1493.168	1498.5705	1792.9476	1804.2004	2970.5409	3008.4709	3015.8258	3028.9845	3044.259	3053.4597	3075.658	3124.1099	3130.9721	3673.5979
CCC(=O)CC(O)C=O	CCC(=O)C[C@@H](O)C=O	
InChI=1S/C6H10O3/c1-2-5(8)3-6(9)4-7/h4,6,9H,2-3H2,1H3	InChI=1S/C6H10O3/c1-2-5(8)3-6(9)4-7/h4,6,9H,2-3H2,1H3/t6-/m1/s1
