18
gdb 103447	3.61983	1.17654	1.16807	1.1145	71.01	-0.2414	0.0118	0.2532	1119.072	0.147683	-439.071626	-439.063137	-439.062193	-439.10484	31.648	
C	-0.070038093	 1.623526221	 0.1121664571	-0.485551
C	-0.015615707	 0.112003394	 0.0749645986	 0.240403
C	-1.2744779238	-0.5579533256	-0.4561850926	-0.128219
O	-1.5243308581	-0.2862288136	-1.8266618211	-0.417874
C	 1.2435853681	-0.6341616298	-0.2708534403	 0.02783
O	 2.4760441986	 0.0670159682	-0.1413459563	-0.210767
C	 2.5844078979	 0.3571750323	 1.1815413135	 0.086986
N	 1.6758142704	-0.0424227121	 1.977838772	-0.258996
C	 0.6977174714	-0.7095196266	 1.151415373	-0.091065
H	 0.7856724908	 2.0596405098	 0.6294060191	 0.141267
H	-0.0857782833	 2.0390066168	-0.9017072377	 0.11896
H	-0.9727640464	 1.9583914724	 0.636051984	 0.12024
H	-1.1808146982	-1.6470979632	-0.3877818108	 0.107533
H	-2.1306494368	-0.2660231415	 0.1725278887	 0.096687
H	-1.7467784426	 0.645852314	-1.9107025721	 0.287479
H	 1.2794075385	-1.40995713	-1.0251011249	 0.119538
H	 3.4695199138	 0.9198693466	 1.4520720421	 0.145576
H	 0.1989263897	-1.5647200226	 1.593275678	 0.099973
77.1188	129.8537	157.7623	217.6107	247.6339	292.3964	345.5785	359.6746	490.9134	516.0702	651.4827	701.4843	748.3632	846.6634	883.7452	898.7951	939.4553	960.0224	985.9803	1015.3019	1035.768	1049.8388	1070.4456	1086.7533	1105.6048	1138.287	1180.9131	1231.5257	1285.7394	1321.0403	1343.7985	1378.6064	1403.7141	1418.0354	1430.0978	1489.6095	1498.1531	1503.4304	1663.2178	2979.9951	3030.6768	3068.6325	3087.0567	3133.7856	3170.9487	3195.1583	3230.694	3827.806
CC1(CO)C2OC=NC12	C[C@@]1(CO)[C@H]2OC=N[C@@H]12	
InChI=1S/C6H9NO2/c1-6(2-8)4-5(6)9-3-7-4/h3-5,8H,2H2,1H3	InChI=1S/C6H9NO2/c1-6(2-8)4-5(6)9-3-7-4/h3-5,8H,2H2,1H3/t4-,5+,6+/m1/s1
