21
gdb 122269	2.67376	0.85185	0.72072	2.103	80.33	-0.2573	-0.0368	0.2206	1653.7469	0.179562	-424.223961	-424.213703	-424.212758	-424.260219	36.322	
C	 0.0804283589	 1.472549933	 0.2409550333	-0.383029
C	-0.0357244793	 0.0024162982	-0.1698450517	-0.165183
C	-1.4309678296	-0.5789203748	 0.0796545439	-0.166677
C	-1.541657367	-2.0539911197	-0.333225514	-0.293659
C	-2.9060206714	-2.6416508221	-0.0603511574	 0.30644
C	-3.0767877612	-3.9867813937	 0.5383825653	-0.223207
O	-3.285570345	-2.8237777622	 1.3189038845	-0.26323
C	-4.0580070881	-2.1762088255	-0.9014465402	 0.127577
O	-3.9459961566	-1.5563577515	-1.9279824596	-0.256655
H	 1.084998531	 1.8625021819	 0.0497323546	 0.111413
H	-0.6300902627	 2.0948401534	-0.3141332997	 0.117399
H	-0.1303788189	 1.6033091872	 1.3082010806	 0.114831
H	 0.2142155371	-0.1023625836	-1.2339292775	 0.09806
H	 0.7088011143	-0.5918633259	 0.3768476949	 0.092868
H	-1.6842985447	-0.4880292459	 1.143435789	 0.10744
H	-2.1739527442	 0.0073260567	-0.473610756	 0.115057
H	-1.3391965444	-2.1553770851	-1.4057893176	 0.120618
H	-0.788610848	-2.6457493853	 0.1990133026	 0.100598
H	-3.9672973692	-4.5780790385	 0.3259326027	 0.12243
H	-2.1775109529	-4.5590479614	 0.7614101415	 0.128772
H	-5.048478328	-2.4624315451	-0.4818032192	 0.088138
49.4159	76.9778	111.4922	123.6674	142.9781	218.2498	239.9607	293.0893	315.4766	371.8995	412.8835	497.6706	546.1636	734.6118	769.9642	811.8137	846.6525	880.5997	910.5297	937.5432	962.2424	1025.1209	1041.2202	1067.4689	1112.3014	1126.7565	1140.1082	1164.2295	1236.4764	1277.7016	1293.9834	1329.1345	1334.9441	1346.7449	1372.7348	1399.355	1412.2468	1430.5814	1466.5612	1487.2302	1498.1133	1498.6006	1512.6498	1521.423	1825.3559	2889.5146	3011.9682	3026.4763	3030.7727	3037.9863	3041.2039	3066.9365	3079.9441	3088.5617	3098.0699	3102.4535	3169.6022
CCCCC1(CO1)C=O	CCCC[C@]1(CO1)C=O	
InChI=1S/C7H12O2/c1-2-3-4-7(5-8)6-9-7/h5H,2-4,6H2,1H3	InChI=1S/C7H12O2/c1-2-3-4-7(5-8)6-9-7/h5H,2-4,6H2,1H3/t7-/m1/s1
