14
gdb 130707	5.15021	1.10203	0.94822	3.9825	65.23	-0.2291	0.0137	0.2429	1171.4835	0.102159	-470.010863	-470.003365	-470.002421	-470.043525	27.092	
O	 0.0383235023	 0.0733761158	-0.1831752044	-0.386357
C	 0.0240331945	 1.2676438961	-0.1222836771	 0.47976
N	-0.9221022175	 2.1546737563	 0.2926999265	-0.313658
N	-0.5168362651	 3.4803614168	 0.2002927134	-0.299133
C	 0.6760691277	 3.3738080814	-0.2788523571	 0.491425
O	 1.0944662955	 2.1012063417	-0.4989683429	-0.2362
N	 1.5208972217	 4.3861983156	-0.6607300793	-0.154788
C	 1.49535896	 5.6343771819	 0.0940560803	-0.216798
C	 2.6735597993	 4.7266530357	 0.1867330575	-0.227599
H	-1.8476713432	 1.9241624932	 0.6065166882	 0.289688
H	 1.546780746	 6.5310494547	-0.5142132739	 0.13831
H	 0.8232971499	 5.6815066639	 0.9452460224	 0.15188
H	 2.803789967	 4.16109263	 1.1048971662	 0.142132
H	 3.5841286817	 4.9477588269	-0.35921258	 0.141338
65.815	126.765	178.9853	199.7361	331.6874	406.1334	448.951	564.706	608.4248	725.7085	762.9737	768.4605	818.3673	885.93	907.4057	946.2394	1000.3754	1043.6247	1099.7547	1122.4536	1141.9208	1172.8468	1178.9673	1213.9771	1271.4425	1380.3933	1448.2213	1492.5757	1518.6474	1679.8277	1924.7107	3125.6026	3131.814	3215.6859	3228.6723	3704.7013
O=C1NN=C(O1)N1CC1	O=c1[nH]nc(o1)N1CC1	
InChI=1S/C4H5N3O2/c8-4-6-5-3(9-4)7-1-2-7/h1-2H2,(H,6,8)	InChI=1S/C4H5N3O2/c8-4-6-5-3(9-4)7-1-2-7/h1-2H2,(H,6,8)
