21
gdb 81019	2.46133	1.76743	1.32962	1.1466	82.61	-0.2326	0.0205	0.2531	1048.5153	0.183523	-387.093214	-387.085019	-387.084075	-387.125077	33.682	
C	-0.0886834248	 1.5253620249	-0.0023550867	-0.422896
C	 0.0259839405	 0.0052440406	 0.0120020099	 0.006454
C	 1.1965584424	-0.6019874249	-0.8411182174	-0.072595
C	 2.1020779668	-0.4446394807	 0.4217926817	-0.292998
C	 0.7804198497	-0.5984018109	 1.2311930019	 0.418294
O	 0.6116012111	 0.1059794477	 2.4360078457	-0.495146
C	 0.427074862	-2.0927119113	 1.3638771628	-0.322711
C	 0.5543162413	-2.7883485976	 0.0261431333	-0.065425
C	 0.9222357378	-2.0760029217	-1.0395178413	-0.066912
H	 0.8733225113	 2.0226399971	 0.1499477298	 0.116613
H	-0.4929239736	 1.8656569609	-0.9619396501	 0.107602
H	-0.7612103667	 1.8664551707	 0.7901067318	 0.127723
H	-0.9545538312	-0.4405450014	-0.1844808946	 0.064229
H	 1.4852282777	-0.0792573983	-1.7537942329	 0.060455
H	 2.8921405396	-1.1858267779	 0.5674184679	 0.087272
H	 2.5095308857	 0.5624833471	 0.5265291718	 0.102774
H	 1.067660811	-0.3735825139	 3.1362119878	 0.273375
H	 1.0897764641	-2.5659181129	 2.1065484305	 0.089644
H	-0.592984446	-2.1865243	 1.7619080557	 0.110514
H	 0.3376710229	-3.8508321313	-0.0308870354	 0.087769
H	 1.0259335685	-2.521128786	-2.0241679623	 0.085963
193.5471	211.2796	225.6152	244.5404	256.0532	354.1842	387.3682	419.5342	485.6023	490.2979	511.2786	636.1117	708.8511	726.9302	820.3997	854.0083	874.9276	910.0835	935.3162	953.7961	975.6108	982.4161	1026.3496	1063.0455	1071.9995	1080.369	1110.4178	1147.0381	1168.2424	1178.5805	1213.3045	1223.7053	1242.0368	1273.0059	1311.6478	1332.535	1361.7183	1385.9721	1400.9352	1410.0967	1473.5964	1489.9695	1496.6512	1501.7911	1697.1653	2978.1208	3025.0763	3036.6319	3046.2867	3063.0144	3098.1791	3101.9603	3113.6308	3127.1456	3162.339	3186.328	3800.5327
CC1C2CC1(O)CC=C2	C[C@H]1[C@H]2C[C@]1(O)CC=C2	
InChI=1S/C8H12O/c1-6-7-3-2-4-8(6,9)5-7/h2-3,6-7,9H,4-5H2,1H3	InChI=1S/C8H12O/c1-6-7-3-2-4-8(6,9)5-7/h2-3,6-7,9H,4-5H2,1H3/t6-,7+,8+/m0/s1
