21
gdb 120298	3.37172	0.90542	0.83326	2.7881	79.24	-0.2292	0.0783	0.3075	1469.4971	0.181186	-424.180721	-424.17113	-424.170186	-424.215507	35.376	
C	-0.3147206839	 1.4871958644	-0.0826175497	-0.486681
C	-0.0359900503	 0.0298117812	 0.090146325	 0.435197
O	-0.7731377743	-0.8798728167	-0.7465744993	-0.316668
C	-0.9327372348	-1.7989236969	 0.3658497971	-0.098602
C	-0.0602280288	-0.9338571552	 1.2645493721	-0.201517
C	 1.2469188187	-0.6014276897	 0.5490581062	-0.08112
C	 2.058409577	-1.5809035335	-0.2703707587	-0.217824
C	 2.7904120671	-2.6061063237	 0.5884967749	-0.061601
O	 3.5400443122	-3.445020678	-0.277531162	-0.420091
H	 0.2394723443	 2.0735244617	 0.6558826984	 0.122147
H	-0.0048262864	 1.8200026312	-1.0799474383	 0.133358
H	-1.3826136955	 1.6999639123	 0.0282347999	 0.126905
H	-1.9810537287	-1.8359770454	 0.6834279044	 0.107528
H	-0.5881210321	-2.8113219871	 0.1233700379	 0.104959
H	-0.2199963684	-0.7558259279	 2.3200776874	 0.092558
H	 1.8413864604	 0.0906138781	 1.1449992661	 0.084511
H	 1.412918804	-2.1017066962	-0.9834038175	 0.12477
H	 2.7995478495	-1.0356335545	-0.8670746064	 0.103802
H	 3.44667528	-2.0897757057	 1.3090954081	 0.078852
H	 2.0602327897	-3.1858857025	 1.1759623574	 0.085432
H	 4.0013939603	-4.0961552959	 0.2587777271	 0.284086
66.2526	94.2237	116.3913	199.6232	224.207	253.1686	267.386	295.4836	316.4885	380.351	537.3268	574.7889	666.3637	738.317	811.393	818.0789	895.0127	930.7534	946.4594	972.062	992.6847	1003.7546	1028.3664	1073.3885	1093.8651	1100.319	1124.6479	1149.874	1171.5028	1201.7601	1219.3183	1244.0722	1273.6974	1307.1065	1318.8794	1337.3872	1355.088	1409.7211	1462.4785	1473.3455	1480.7752	1498.1274	1503.3006	1522.9971	1528.0932	2957.7914	2984.561	3022.0757	3032.1775	3041.9506	3067.1636	3094.8605	3095.6621	3114.5689	3120.2221	3192.6374	3829.2121
CC12OCC1C2CCO	C[C@]12OC[C@H]1[C@H]2CCO	
InChI=1S/C7H12O2/c1-7-5(2-3-8)6(7)4-9-7/h5-6,8H,2-4H2,1H3	InChI=1S/C7H12O2/c1-7-5(2-3-8)6(7)4-9-7/h5-6,8H,2-4H2,1H3/t5-,6+,7-/m1/s1
