14
gdb 10461	2.94281	1.6162	1.17679	2.7994	64.1	-0.2538	-0.0308	0.223	992.8123	0.103312	-382.484812	-382.476555	-382.475611	-382.518325	28.959	
O	-0.4481607097	 0.3360390529	 0.4647762927	-0.238178
C	 0.264698889	 0.8750099399	-0.3396864186	 0.167226
C	 1.1955740239	 2.0316158171	-0.009281162	-0.355276
C	 1.2508964783	 3.0629077318	-1.1244194889	 0.164092
C	 2.529657074	 3.717408161	-1.4711965409	-0.20999
O	 2.021108167	 2.6591922198	-2.2755206813	-0.2565
C	 0.0067993225	 3.7375800877	-1.4127530112	 0.313871
C	-1.0490299713	 4.2746965954	-1.6145862315	-0.417858
H	 0.3081453508	 0.5374706475	-1.3982254679	 0.100242
H	 0.8815212302	 2.4797171943	 0.9372005869	 0.135076
H	 2.2022899524	 1.613784386	 0.1207645907	 0.135907
H	 2.5120381749	 4.704024845	-1.929048655	 0.131548
H	 3.415961442	 3.4830987098	-0.8826491364	 0.121399
H	-1.9791355141	 4.752031582	-1.8038211566	 0.208441
56.1851	74.1873	141.7311	195.0136	241.4111	332.5938	410.7558	462.451	550.2418	573.3244	638.0156	673.1845	692.7846	777.0922	846.0432	924.6013	957.3296	1031.1345	1065.5037	1133.5527	1166.7399	1189.4601	1265.5884	1297.688	1374.5797	1424.9365	1438.278	1520.299	1837.7015	2240.8661	2899.8647	3035.7249	3086.8846	3110.2323	3182.6337	3500.0075
O=CCC1(CO1)C#C	O=CC[C@]1(CO1)C#C	
InChI=1S/C6H6O2/c1-2-6(3-4-7)5-8-6/h1,4H,3,5H2	InChI=1S/C6H6O2/c1-2-6(3-4-7)5-8-6/h1,4H,3,5H2/t6-/m0/s1
