17
gdb 53801	2.59702	1.41628	1.04255	5.9784	70.02	-0.2356	-0.0504	0.1851	1152.9187	0.134895	-455.161841	-455.152668	-455.151724	-455.196266	33.652	
C	 0.4828742901	 1.4584327133	-0.4890769868	-0.457832
C	-0.0086267251	 0.1959498801	 0.1845902119	 0.191317
C	 0.3882660584	-1.129747589	-0.387248477	-0.26453
N	 0.9806846748	-0.6779668274	 0.8729058508	-0.358359
C	-1.3596051029	 0.3415655863	 0.8556679353	 0.281288
O	-1.9832024305	 1.3661294063	 0.7280734723	-0.279156
C	-2.0207202795	-0.8247472414	 1.6552156157	 0.285224
N	-1.1754371072	-1.5614277564	 2.417599656	-0.523456
O	-3.2213529778	-0.9798621603	 1.595787176	-0.337844
H	 1.4379839662	 1.2782660739	-0.992567518	 0.107431
H	-0.2418589018	 1.8069645559	-1.228193695	 0.152707
H	 0.6138464588	 2.2623407322	 0.2407315482	 0.141512
H	-0.2734612157	-1.9858248068	-0.2970428851	 0.143476
H	 0.9936036274	-1.1087652259	-1.2887666716	 0.132054
H	 1.9146781425	-0.3043995477	 0.7265304083	 0.245828
H	-0.1727091164	-1.4534849464	 2.3098255725	 0.28213
H	-1.5663088712	-2.3241710467	 2.9485525864	 0.258211
44.6855	69.8527	190.1685	212.7208	255.4447	299.5505	336.5419	364.2175	395.1702	415.8552	479.1288	538.3959	590.6601	697.1206	729.2738	791.5582	817.8286	858.0542	941.9671	969.5229	993.1866	1046.7754	1069.5206	1127.4661	1134.7449	1152.2924	1261.3615	1321.5152	1348.6786	1371.1808	1417.4713	1476.2129	1494.9735	1504.4324	1609.4224	1802.2338	1805.9566	3043.5736	3115.1128	3119.1075	3130.2864	3209.1364	3479.0162	3508.9271	3671.5791
CC1(CN1)C(=O)C(N)=O	C[C@]1(CN1)C(=O)C(=O)N	
InChI=1S/C5H8N2O2/c1-5(2-7-5)3(8)4(6)9/h7H,2H2,1H3,(H2,6,9)	InChI=1S/C5H8N2O2/c1-5(2-7-5)3(8)4(6)9/h7H,2H2,1H3,(H2,6,9)/t5-/m0/s1
