21
gdb 83421	3.02602	1.27481	1.12578	1.4349	83.35	-0.2224	0.0765	0.2989	1201.7874	0.182415	-387.03773	-387.029079	-387.028135	-387.071005	33.462	
C	-0.0323891104	 1.5383084567	-0.1103414675	-0.420494
C	 0.0748099857	 0.0315563901	-0.0355893108	-0.072746
C	 1.3680289372	-0.7601739936	-0.1890585831	-0.213368
C	 2.4922067037	-0.0662024025	 0.5632184916	-0.098821
O	 1.6826514187	 0.0396666395	 1.7662872928	-0.32405
C	 0.6280159267	-0.7167058183	 1.1429530044	 0.463642
C	-0.0701558933	-1.7138448936	 1.9861278106	-0.106538
C	 0.687159036	-2.5066077264	 3.0232939781	-0.268631
C	-0.2707963908	-1.4271896277	 3.4576926	-0.266151
H	 0.7174962664	 2.0143087818	 0.5259092286	 0.13439
H	 0.1006059354	 1.900028579	-1.1357167769	 0.112952
H	-1.016064939	 1.8714706633	 0.2371076773	 0.117151
H	-0.754548893	-0.5049405259	-0.4946861157	 0.084999
H	 1.4888004561	-1.5655163261	-0.901713926	 0.093825
H	 3.3594960558	-0.7110079817	 0.7432620879	 0.108745
H	 2.8306768456	 0.9138163414	 0.2064158012	 0.102656
H	-0.8830797934	-2.2211431269	 1.4754952773	 0.083264
H	 0.4082556178	-3.5431966087	 3.1763625722	 0.106357
H	 1.7452103486	-2.2964777844	 3.1283119222	 0.121897
H	 0.1591181877	-0.5106492814	 3.8443440018	 0.132089
H	-1.2141325316	-1.7143022345	 3.908437834	 0.108831
77.725	139.8402	165.5533	184.1951	251.6096	267.2663	346.3033	378.8887	501.969	571.9336	664.2579	745.2243	785.8758	795.5883	831.9307	865.2783	907.2372	933.0399	958.1025	968.956	977.8157	989.6203	1026.7272	1061.6928	1069.7349	1086.2763	1095.4816	1115.8328	1127.2479	1147.9052	1170.0206	1202.0084	1202.9126	1218.93	1264.3759	1309.2174	1342.9158	1386.5202	1410.4372	1459.2251	1478.8239	1493.1502	1500.7487	1516.1994	1522.8467	3024.0649	3034.8969	3070.7515	3092.2837	3115.1834	3129.8281	3137.606	3141.1662	3154.7311	3195.1395	3221.7654	3235.9793
CC1C2COC12C1CC1	C[C@H]1[C@H]2CO[C@@]12C1CC1	
InChI=1S/C8H12O/c1-5-7-4-9-8(5,7)6-2-3-6/h5-7H,2-4H2,1H3	InChI=1S/C8H12O/c1-5-7-4-9-8(5,7)6-2-3-6/h5-7H,2-4H2,1H3/t5-,7+,8+/m0/s1
