19
gdb 76504	2.9815	1.27851	1.1411	2.1374	75.65	-0.2416	0.0668	0.3084	1145.1178	0.157752	-422.961699	-422.953061	-422.952117	-422.994762	33.05	
C	-0.1117107821	 1.5159917941	 0.0199209043	-0.417904
C	 0.0266819529	 0.0095133342	 0.033208557	-0.124784
C	 1.3885688118	-0.6463437348	-0.1253932096	-0.008654
O	 2.5486413044	 0.1346161438	-0.1741569363	-0.416045
C	 0.6873609297	-0.6888966113	 1.1943585571	 0.332337
C	 1.2620793478	-0.0987872652	 2.5082725865	-0.335448
C	 0.7954413822	-1.3911123868	 3.2034636702	 0.034619
O	-0.6186857922	-1.5050255782	 3.0062256539	-0.246609
C	 0.2531712604	-1.9320533235	 1.9465798449	-0.08109
H	 0.7931593441	 1.9958106524	 0.4012474633	 0.129517
H	-0.285969365	 1.8874060989	-0.996541995	 0.110474
H	-0.9545448701	 1.8382538671	 0.6397438451	 0.126314
H	-0.7987691401	-0.5294661695	-0.4275470922	 0.084062
H	 1.4405659962	-1.5714593757	-0.7018558562	 0.082771
H	 2.6088339978	 0.5290164774	-1.0508239868	 0.290835
H	 2.3477053553	 0.0141128152	 2.4664080601	 0.125776
H	 0.8049879569	 0.8184267293	 2.8874115122	 0.109353
H	 1.2205262491	-1.8942014443	 4.063830868	 0.103822
H	 0.144265761	-2.9503743529	 1.5904229235	 0.100656
108.3967	147.5877	171.4369	181.7206	236.0248	296.467	321.7563	387.9212	452.0134	571.5078	585.1983	589.364	783.6259	803.8349	844.1422	857.7468	861.205	924.0972	952.3017	977.1952	1016.3063	1022.01	1050.1563	1080.0302	1100.5162	1142.8436	1149.1813	1174.4401	1193.4454	1218.442	1231.5997	1258.3592	1291.0883	1315.5332	1375.4975	1383.2258	1413.1516	1472.3046	1479.6392	1499.0407	1506.2605	3031.7505	3067.2631	3081.8862	3090.216	3115.4045	3126.4634	3131.7805	3176.7992	3193.7989	3803.2147
CC1C(O)C11CC2OC12	C[C@H]1[C@@H](O)[C@]21C[C@H]1O[C@@H]21	
InChI=1S/C7H10O2/c1-3-5(8)7(3)2-4-6(7)9-4/h3-6,8H,2H2,1H3	InChI=1S/C7H10O2/c1-3-5(8)7(3)2-4-6(7)9-4/h3-6,8H,2H2,1H3/t3-,4+,5+,6+,7+/m0/s1
