17
gdb 96859	2.4167	1.30565	0.95069	3.949	76.43	-0.2686	0.0031	0.2717	1259.9782	0.134667	-418.019499	-418.010154	-418.00921	-418.054302	32.546	
C	 0.0072635538	 1.4457031796	 0.2544020846	-0.343656
N	-0.0351278638	-0.0089793408	 0.3160567066	-0.314114
C	-1.0651813671	-0.6124082211	-0.0355364907	 0.47729
O	-2.2843101572	-0.1649430125	-0.5082809832	-0.273044
C	-2.7980690243	-1.5283344304	-0.6662769458	 0.1355
C	-3.164171956	-1.8430142796	-2.0964529027	-0.408203
C	-1.4576990364	-2.0878771538	-0.0853854101	-0.350277
C	-0.662112468	-2.9633753	-0.9268753448	 0.304761
N	-0.0487835033	-3.6652457231	-1.6098587477	-0.325568
H	 0.8429711691	 1.7467142378	-0.3856173919	 0.138889
H	-0.9132037702	 1.9053547929	-0.122990523	 0.129612
H	 0.2135334088	 1.8364508486	 1.2562848493	 0.135378
H	-3.6421980782	-1.6773457621	 0.0126221608	 0.109342
H	-2.3092119887	-1.705352611	-2.7632737116	 0.149715
H	-3.5040671053	-2.879918021	-2.1796627153	 0.140544
H	-3.9750396814	-1.1861608394	-2.4233066612	 0.139244
H	-1.5624455916	-2.5263814541	 0.9100881067	 0.154587
77.6902	85.8506	104.9496	142.4845	189.0514	232.2594	258.0668	341.6253	413.4074	430.6036	512.4822	579.8727	686.4286	738.6742	805.5725	882.0629	893.9843	1017.548	1037.919	1058.6481	1101.5709	1125.5643	1133.0806	1151.2202	1180.6079	1192.9195	1311.9803	1323.8304	1380.1814	1418.2608	1439.5469	1481.496	1491.5588	1492.981	1497.1587	1857.3303	2363.5851	3022.6952	3047.8936	3072.6807	3091.7805	3093.3706	3095.6753	3122.1393	3133.5583
CN=C1OC(C)C1C#N	CN=C1O[C@@H](C)[C@H]1C#N	
InChI=1S/C6H8N2O/c1-4-5(3-7)6(8-2)9-4/h4-5H,1-2H3	InChI=1S/C6H8N2O/c1-4-5(3-7)6(8-2)9-4/h4-5H,1-2H3/t4-,5+/m0/s1
