16
gdb 50964	1.76511	1.2546	0.80393	1.144	73.06	-0.2578	-0.0471	0.2107	1379.9954	0.120616	-437.870987	-437.861251	-437.860307	-437.907253	33.244	
O	-0.0349515597	 0.9738678439	 1.2594120039	-0.219483
C	 0.1351038427	 1.3910270977	 0.1469562515	 0.15088
C	 1.4694430585	 1.9373786105	-0.3610153694	-0.2724
N	 1.3167811901	 2.8811427628	-1.4448969528	-0.048136
C	 0.8264395986	 4.2284083366	-1.1456533699	-0.329256
C	 1.7056183473	 4.9637554149	-0.2392612731	 0.312993
C	 2.4236787725	 5.5556005352	 0.5204597331	-0.446925
C	 1.6836761151	 2.578679024	-2.729537535	 0.162944
O	 1.5902763671	 3.324404507	-3.6778591542	-0.328396
H	-0.6743685866	 1.3891459755	-0.6201829172	 0.090375
H	 2.0208119346	 2.3756343819	 0.4776273714	 0.156298
H	 2.0499891585	 1.0786898203	-0.7232125497	 0.148605
H	 0.7469281584	 4.7384106176	-2.1101327024	 0.184411
H	-0.1823953882	 4.1708052402	-0.7156969373	 0.14362
H	 3.0582160357	 6.0927508943	 1.1817981591	 0.21041
H	 2.0795079455	 1.5473546375	-2.8072684979	 0.084061
41.9828	56.9168	74.5877	128.998	178.0884	285.7293	309.9786	331.6346	336.5065	390.7014	440.025	576.9721	626.4177	677.3461	695.4999	759.8398	870.7084	963.1499	999.2961	1030.2937	1033.7609	1070.5069	1209.7107	1218.2408	1294.5416	1335.2364	1376.3611	1407.9395	1422.3368	1438.9586	1455.8267	1471.2311	1800.7492	1846.0223	2241.322	2866.1794	2944.6037	3017.4699	3032.3264	3087.3549	3096.2277	3502.8532
O=CCN(CC#C)C=O	O=CCN(CC#C)C=O	
InChI=1S/C6H7NO2/c1-2-3-7(6-9)4-5-8/h1,5-6H,3-4H2	InChI=1S/C6H7NO2/c1-2-3-7(6-9)4-5-8/h1,5-6H,3-4H2
