19
gdb 48710	3.52141	1.32663	1.13627	3.0515	79.88	-0.242	-0.0134	0.2285	1106.9318	0.160651	-385.887992	-385.880517	-385.879573	-385.919786	30.132	
O	-0.1581344867	 0.0677436394	 0.227130994	-0.275044
C	 0.0142804017	 1.2381045792	-0.0190511256	 0.086739
C	 1.3160664313	 1.929835078	-0.0005506176	 0.256793
C	 1.3030440473	 3.4368093148	 0.2133569832	-0.348686
C	 1.644337612	 2.9233581413	-1.1428943844	-0.077721
C	 3.0796311934	 2.6776012818	-1.5551965933	-0.033553
C	 4.2026167919	 2.9842344167	-0.5930332306	-0.30042
C	 3.6582853938	 1.5819065686	-0.6763608005	-0.026318
C	 2.5790377512	 1.1274288856	 0.3107283079	-0.329637
H	-0.8417164627	 1.8967934427	-0.3017340929	 0.060886
H	 0.3274292195	 3.8980960203	 0.3384105328	 0.119114
H	 2.0705680291	 3.859693801	 0.8502269137	 0.125882
H	 0.9223234606	 3.0801476707	-1.9369220381	 0.097413
H	 3.2883197223	 2.7160044465	-2.6178114326	 0.089184
H	 5.1819130185	 3.1593552123	-1.0262634256	 0.113349
H	 4.0090658621	 3.5860524187	 0.2881911178	 0.111906
H	 4.3045701338	 0.819231022	-1.0969175606	 0.090168
H	 2.8916621021	 1.2381635293	 1.35509371	 0.107455
H	 2.3442992886	 0.069781361	 0.1611403722	 0.132488
103.2397	192.2475	217.4395	281.9388	327.5782	411.4556	476.0461	524.5672	639.8556	664.0001	722.9784	780.9622	805.7675	813.6568	848.0629	888.514	935.9016	954.5115	969.7937	1005.3806	1044.5544	1049.5017	1059.6539	1064.2399	1088.5793	1096.5565	1109.3882	1134.6172	1186.4234	1220.9771	1259.4586	1283.0183	1335.0449	1348.5628	1373.701	1394.6429	1436.6275	1478.8012	1492.9513	1507.8756	1804.9443	2842.2575	3045.4756	3095.8298	3125.9476	3133.3931	3163.9643	3167.0921	3182.0948	3209.8305	3217.9511
O=CC12CC1C1CC1C2	O=C[C@]12C[C@H]1[C@H]1C[C@H]1C2	
InChI=1S/C8H10O/c9-4-8-2-5-1-6(5)7(8)3-8/h4-7H,1-3H2	InChI=1S/C8H10O/c9-4-8-2-5-1-6(5)7(8)3-8/h4-7H,1-3H2/t5-,6-,7-,8-/m0/s1
