21
gdb 109082	4.15247	1.02142	0.9303	1.6724	85.1	-0.2332	0.0231	0.2562	1348.0145	0.183732	-387.093032	-387.084604	-387.08366	-387.126485	32.205	
C	-0.3336492336	 1.5313832747	-0.1086158127	-0.374821
C	 0.1943600446	 0.0975631318	 0.0760089546	-0.287995
C	 0.8612728034	-0.4608341254	-1.1471094136	 0.345185
C	 2.1385047405	-0.8445589734	-1.2521440857	-0.200598
C	 2.4843921699	-1.3977305876	-2.604389816	-0.113232
C	 2.3760107396	-2.9359500453	-2.7444995975	-0.074301
O	 1.0249816232	-2.8304009898	-3.2395886102	-0.294228
C	 1.1196702971	-1.3896347172	-3.3452750569	 0.12398
C	 0.1108509091	-0.6555149632	-2.4550259408	-0.325842
H	 0.479378592	 2.2171831862	-0.3674012121	 0.119694
H	-1.0824736807	 1.5843947722	-0.9049720727	 0.120942
H	-0.8019881197	 1.8925322695	 0.8119464634	 0.114494
H	 0.897596899	 0.0723420227	 0.9159553385	 0.101098
H	-0.6470762648	-0.5527219162	 0.354606286	 0.106372
H	 2.8591853883	-0.7960692558	-0.4415724576	 0.084544
H	 3.3539336388	-0.9343330201	-3.0772772359	 0.076656
H	 3.0500744322	-3.372988307	-3.4940955044	 0.092034
H	 2.4336303396	-3.5216715593	-1.8196574086	 0.099931
H	 1.1042878796	-1.0701809756	-4.3932217543	 0.067744
H	-0.7943163947	-1.2637946345	-2.3331498382	 0.116985
H	-0.2049835935	 0.3011684433	-2.8918296955	 0.101359
62.6882	109.5664	152.5686	219.4775	226.3893	330.8029	380.346	456.4226	494.6521	602.2554	672.5965	782.5404	817.9239	856.233	864.0383	865.5164	891.5372	902.5487	967.1336	1003.0117	1008.9343	1032.6067	1052.0076	1070.2019	1083.033	1096.1163	1156.1707	1169.2798	1190.8307	1236.8991	1256.0752	1271.0184	1300.622	1318.0443	1326.9925	1353.8113	1360.1041	1376.7135	1407.4194	1464.7923	1478.1537	1499.3746	1507.7229	1521.2624	1705.0221	3001.1733	3007.8255	3014.528	3037.5012	3041.7338	3054.9371	3057.1412	3060.4613	3076.331	3108.8424	3110.1061	3177.1083
CCC1=CC2COC2C1	CCC1=C[C@H]2CO[C@H]2C1	
InChI=1S/C8H12O/c1-2-6-3-7-5-9-8(7)4-6/h3,7-8H,2,4-5H2,1H3	InChI=1S/C8H12O/c1-2-6-3-7-5-9-8(7)4-6/h3,7-8H,2,4-5H2,1H3/t7-,8-/m0/s1
