19
gdb 61966	5.33876	0.58265	0.55141	2.1164	78.44	-0.2463	-0.0374	0.2089	1917.3231	0.156581	-419.211057	-419.200691	-419.199747	-419.248036	35.279	
C	-0.1815760261	 1.5393171683	 0.0700087482	-0.340234
N	-0.0341616796	 0.0867671635	 0.0931783352	-0.077272
C	 0.6824704859	-0.3944504393	 1.267116758	-0.137854
C	 2.1990741071	-0.1282587334	 1.1501440534	-0.34661
C	 2.9340475701	-0.685441446	 2.2819683442	 0.259673
N	 3.4957175497	-1.1360101978	 3.185639895	-0.300662
C	-1.3141987625	-0.5724019237	-0.1126553015	-0.238388
C	-1.7731224016	-0.4418256788	-1.5591970972	 0.152056
O	-2.9228268092	-0.4181446032	-1.9077268328	-0.231589
H	 0.7953572409	 2.0285479002	 0.0911361202	 0.127155
H	-0.6784900303	 1.8477962537	-0.8545437085	 0.137228
H	-0.7778278396	 1.9196079926	 0.9193591208	 0.110779
H	 0.3071111815	 0.0487205571	 2.2064429408	 0.108907
H	 0.5337828765	-1.4749375929	 1.3446245054	 0.125807
H	 2.5713867414	-0.5707758459	 0.2205151359	 0.161323
H	 2.407422671	 0.9451904363	 1.1006351036	 0.155098
H	-1.1921453638	-1.649238963	 0.0676076245	 0.132979
H	-2.123246861	-0.2217486031	 0.5511046933	 0.114221
H	-0.9292522504	-0.3970690347	-2.2851558486	 0.087381
46.2965	50.7172	76.6458	114.695	139.1448	212.9334	236.7912	297.0195	346.2502	375.5935	404.1516	431.1304	529.3449	583.7776	756.3714	782.1911	886.8208	958.3575	1021.869	1052.8494	1061.2818	1068.1459	1078.2326	1149.0445	1174.9781	1206.9243	1265.6548	1288.4227	1308.7894	1342.8084	1349.2341	1397.6632	1416.1498	1455.2187	1467.4954	1473.9201	1492.4114	1502.7873	1504.8051	1843.14	2364.348	2879.0119	2947.6026	2951.1179	2964.0847	3039.736	3056.079	3076.1629	3082.2644	3102.5121	3118.0355
CN(CCC#N)CC=O	CN(CCC#N)CC=O	
InChI=1S/C6H10N2O/c1-8(5-6-9)4-2-3-7/h6H,2,4-5H2,1H3	InChI=1S/C6H10N2O/c1-8(5-6-9)4-2-3-7/h6H,2,4-5H2,1H3
