15
gdb 133558	2.96551	1.33004	1.21393	3.1846	57.64	-0.274	0.0715	0.3454	1032.3057	0.10993	-548.275774	-548.268136	-548.267191	-548.308613	28.567	
F	 0.3267788016	 0.0888901412	 0.2044892959	-0.065183
C	-0.0076057248	 1.3702815598	 0.0388146117	 0.231561
F	 1.1123445466	 2.0547171104	-0.2621411895	-0.083325
F	-0.8157059107	 1.4508737611	-1.0315043799	-0.079276
C	-0.6548208501	 1.9436548376	 1.2603189116	 0.167851
C	-0.8012943573	 3.4399246613	 1.5768017875	-0.312103
C	-0.5943332726	 3.0965664214	 3.0917407769	-0.240305
C	-0.4463680022	 1.6146822774	 2.710136096	-0.087219
N	-1.6116870807	 1.1272300954	 1.9820047718	-0.349046
H	 0.0162037179	 4.0395323477	 1.174049927	 0.130025
H	-1.7536757391	 3.8903718749	 1.2823814211	 0.108911
H	 0.3224385405	 3.533717173	 3.492201225	 0.1207
H	-1.4194999567	 3.3228214172	 3.7739291485	 0.108076
H	 0.2073480798	 0.8800154593	 3.1646619505	 0.115931
H	-2.4687805623	 1.6318450623	 2.2014278059	 0.233402
53.6636	142.5796	183.0051	270.0769	342.7841	393.4034	446.2164	482.9819	574.3785	587.4642	734.0381	762.2721	783.1193	863.5903	902.4515	934.83	950.0761	1026.1009	1059.5003	1088.4576	1110.2592	1163.7602	1176.7859	1196.0328	1213.5195	1218.716	1232.0492	1259.7035	1293.5229	1322.9744	1474.6656	1479.7033	1501.7133	3055.8319	3064.5648	3114.0703	3133.9532	3192.8749	3468.0981
FC(F)(F)C12CCC1N2	FC(F)(F)[C@]12CC[C@H]1N2	
InChI=1S/C5H6F3N/c6-5(7,8)4-2-1-3(4)9-4/h3,9H,1-2H2	InChI=1S/C5H6F3N/c6-5(7,8)4-2-1-3(4)9-4/h3,9H,1-2H2/t3-,4+/m1/s1
