21
gdb 120611	3.02444	0.8955	0.85465	2.7412	82.07	-0.2398	-0.0182	0.2216	1490.2464	0.179102	-424.225661	-424.215297	-424.214353	-424.261399	37.078	
C	-0.0573972739	 1.2855755417	-0.0033702327	-0.388678
C	-0.2990167467	-0.1774033387	-0.3274058022	-0.043529
O	-1.3582186533	-0.6513260903	 0.5011265734	-0.239352
C	-1.6277193425	-1.9936664032	 0.3398854761	 0.116884
C	-2.9104272749	-2.5074408373	 0.8574529068	-0.354071
C	-2.7440057967	-2.4295224442	-0.6597973297	 0.192049
C	-3.4922410782	-1.3705768297	-1.4387260214	-0.49279
C	-2.4423954694	-3.7067107893	-1.3428055526	 0.086514
O	-1.9774615464	-4.684830439	-0.7993941238	-0.281861
H	 0.7596007445	 1.6781625947	-0.6157792592	 0.120102
H	-0.9545306978	 1.8790302216	-0.20122768	 0.128541
H	 0.208522153	 1.40658903	 1.0503721981	 0.131823
H	-0.5655701563	-0.3083439018	-1.3866343218	 0.097128
H	 0.6071191583	-0.7740501574	-0.1409421573	 0.100797
H	-0.7623248729	-2.6556923202	 0.368703181	 0.110667
H	-2.9185410075	-3.5026274685	 1.2875656187	 0.140462
H	-3.5877975091	-1.7840329922	 1.297930753	 0.127377
H	-3.3764903636	-0.3939066732	-0.9631043044	 0.137691
H	-3.1130377665	-1.2919393458	-2.4640957471	 0.11833
H	-4.5629383761	-1.5945237607	-1.4967568492	 0.124664
H	-2.6459348541	-3.7076365567	-2.4382016356	 0.067252
62.7916	88.9633	102.8409	156.3778	181.6038	220.5875	235.5059	271.7966	277.2887	341.7376	397.2415	460.406	516.9921	639.8169	723.6151	755.7921	819.7251	847.356	925.5192	939.8135	977.3096	1029.9226	1060.6897	1077.6	1086.4343	1108.0966	1135.1417	1164.3668	1187.0299	1227.0342	1281.1286	1296.2817	1301.9908	1374.8637	1405.7703	1416.5669	1427.1497	1436.2914	1473.1216	1483.5001	1496.3642	1499.6859	1504.2438	1526.9219	1790.7016	2867.0289	2984.1895	3016.7664	3030.2514	3046.7577	3086.6958	3110.5134	3121.2441	3123.1073	3124.341	3136.7633	3234.9952
CCOC1CC1(C)C=O	CCO[C@H]1C[C@]1(C)C=O	
InChI=1S/C7H12O2/c1-3-9-6-4-7(6,2)5-8/h5-6H,3-4H2,1-2H3	InChI=1S/C7H12O2/c1-3-9-6-4-7(6,2)5-8/h5-6H,3-4H2,1-2H3/t6-,7+/m0/s1
