16
gdb 15857	2.77958	1.98634	1.24498	5.4083	69.68	-0.2485	-0.0196	0.2289	967.7615	0.130303	-379.948588	-379.940587	-379.939643	-379.981232	28.606	
C	-0.0323487101	 1.5661951485	 0.0920374253	-0.402648
C	 0.0480537207	 0.0488863952	 0.0199895431	 0.049106
C	 0.7208062886	-0.5655960118	-1.2403601394	-0.400413
C	 1.7763329932	-1.1513410309	-0.282943998	 0.43753
O	 2.7494494736	-1.8350793134	-0.385749476	-0.321323
N	 1.1321160892	-0.5650948281	 0.8217934188	-0.098128
C	 1.3158144669	-0.5799120647	 2.1923232181	 0.067076
N	 2.2915455263	-1.165581361	 2.7542422298	-0.412836
H	 0.9344477558	 2.0188312476	-0.1495548225	 0.131718
H	-0.7775376271	 1.9372962942	-0.6187365058	 0.130591
H	-0.3282921983	 1.9043796188	 1.0904320409	 0.12527
H	-0.9248112352	-0.4013878734	 0.2474897207	 0.095503
H	 0.1381122087	-1.3182020633	-1.7742544876	 0.13849
H	 1.1198688377	 0.1602942372	-1.9520682165	 0.13633
H	 0.5161410015	-0.0281950206	 2.7050128907	 0.093909
H	 2.2275493289	-1.0550114245	 3.7649521385	 0.229826
95.4545	113.769	164.4165	178.2241	240.1797	302.664	431.4271	480.1577	520.1575	548.2598	717.0627	756.7462	816.9998	867.0312	910.785	995.1697	1048.8361	1056.2599	1069.2324	1104.0172	1118.5257	1188.5382	1205.0455	1255.1002	1281.8486	1382.4286	1395.3383	1412.3743	1426.354	1461.543	1489.7616	1496.3797	1716.7766	1901.7666	3023.7069	3036.062	3041.319	3084.159	3106.1312	3115.3064	3141.2711	3499.845
CC1CC(=O)N1C=N	C[C@H]1CC(=O)N1[CH][NH]	
InChI=1S/C5H8N2O/c1-4-2-5(8)7(4)3-6/h3-4,6H,2H2,1H3	InChI=1S/C5H8N2O/c1-4-2-5(8)7(4)3-6/h3-4,6H,2H2,1H3/t4-/m0/s1
