20
gdb 107256	2.52017	1.64602	1.21085	1.2712	79.11	-0.2037	0.082	0.2857	1097.9266	0.169337	-403.052128	-403.04328	-403.042336	-403.085268	34.136	
C	-1.0927598548	 1.5287364716	 1.1620566345	-0.255416
O	-0.121082667	 1.5457493167	 2.1979424274	-0.277487
C	 0.5517673105	 0.3523445527	 2.3398029341	 0.405749
C	-0.0535853852	-0.8888900636	 2.9364389621	-0.356875
C	 1.1394536063	-0.2248270823	 3.6041252519	-0.162192
C	 2.4661878813	-0.4920329518	 2.8386424691	-0.115836
N	 2.1891494144	-1.3749402032	 1.6664733415	-0.381151
C	 1.9172924306	 0.0826668868	 1.5950974724	 0.268657
C	 2.5064672973	 0.9917726574	 0.5650377448	-0.513338
H	-1.8545697294	 0.7589389673	 1.3429835935	 0.115539
H	-1.5667897781	 2.5129200359	 1.1548454038	 0.124716
H	-0.6378252672	 1.3443041902	 0.1791470795	 0.110923
H	-0.9876291723	-0.6982180905	 3.4572698468	 0.108969
H	 0.0375545952	-1.8587646251	 2.4649143866	 0.138845
H	 1.0966001961	 0.1669400142	 4.6113998438	 0.097933
H	 3.4618803992	-0.4223802449	 3.2586052934	 0.09087
H	 3.0827648726	-1.534686851	 1.1994772241	 0.221924
H	 2.0508094155	 0.835655526	-0.4204700682	 0.124065
H	 2.3478393041	 2.0380741743	 0.8441157195	 0.138681
H	 3.5846108508	 0.8236063691	 0.4664736294	 0.115425
98.0707	140.4352	163.8167	213.4143	235.898	247.2254	386.0399	416.5458	425.0611	441.7742	545.9334	598.6873	670.9734	789.994	802.8665	839.5805	862.8967	918.7687	937.9484	954.4671	992.5746	1002.1094	1020.507	1045.3997	1073.8713	1091.3467	1111.0777	1139.5162	1179.2995	1183.5674	1220.2779	1243.1209	1281.2467	1326.5415	1354.4544	1404.9389	1442.51	1459.258	1479.2823	1486.7255	1491.8236	1501.5339	1506.7739	2998.4037	3021.2696	3054.719	3081.2092	3104.5435	3120.7773	3134.5639	3187.9949	3207.9712	3234.1052	3456.5478
COC12CC1C1NC21C	CO[C@]12C[C@H]1[C@H]1N[C@@]21C	
InChI=1S/C7H11NO/c1-6-5(8-6)4-3-7(4,6)9-2/h4-5,8H,3H2,1-2H3	InChI=1S/C7H11NO/c1-6-5(8-6)4-3-7(4,6)9-2/h4-5,8H,3H2,1-2H3/t4-,5+,6+,7+/m0/s1
