23
gdb 108551	3.11875	1.3591	1.18709	0.2103	88.34	-0.2453	0.0915	0.3368	1175.5609	0.208064	-351.147951	-351.139811	-351.138866	-351.180309	33.178	
C	 0.0336139833	 1.4593647977	-0.3147031355	-0.376828
C	-0.0815083307	 0.0007860594	 0.1478281538	-0.288182
C	-1.5010847439	-0.5272643989	 0.1405581809	 0.397747
C	-2.5360430318	 0.1008559053	 1.0845844626	-0.293811
C	-3.5205697121	-1.0561873632	 1.4042756749	-0.20828
C	-3.2788228014	-2.0589557912	 0.2692788179	-0.043873
C	-3.5080569601	-1.3907053539	-1.127926371	-0.246495
C	-2.0105950893	-1.0885923302	-1.1837473876	-0.095899
C	-1.7481015282	-2.0060041853	 0.0018801044	-0.136046
H	 1.0737895199	 1.7992200812	-0.2918591504	 0.108423
H	-0.3382352882	 1.5795930424	-1.3376902844	 0.116049
H	-0.5482248718	 2.1269666368	 0.3293329862	 0.117585
H	 0.5427210011	-0.6345486158	-0.4933087843	 0.092321
H	 0.3308726137	-0.091201137	 1.1620630942	 0.091843
H	-2.0515606508	 0.4815972279	 1.9903828547	 0.091329
H	-3.0477621793	 0.9511113094	 0.6206244072	 0.098025
H	-3.2701972425	-1.5149798703	 2.367878006	 0.093145
H	-4.5631560782	-0.725069375	 1.4578297418	 0.090829
H	-3.7459729205	-3.0335771283	 0.4122429984	 0.062618
H	-3.7917056936	-2.1279943169	-1.883928741	 0.097324
H	-4.2129908978	-0.551475885	-1.1732424082	 0.083804
H	-1.4209863773	-0.9715418373	-2.0871728193	 0.073114
H	-1.0102348806	-2.7858537416	 0.1419601786	 0.075262
101.9461	154.647	197.5208	229.2022	333.7656	347.7217	365.6402	433.955	587.879	609.6313	696.4297	758.2727	787.19	829.709	839.7744	865.8846	871.0679	895.0287	934.9898	966.5888	975.6713	992.6355	997.5736	1029.5266	1044.0286	1075.3978	1085.7587	1097.4649	1136.7637	1150.8138	1170.0793	1219.2554	1237.8882	1241.3874	1265.2095	1280.1849	1290.249	1314.2175	1329.0888	1351.7957	1363.4584	1410.6404	1416.1457	1481.9659	1486.0944	1490.7627	1498.1638	1507.5175	1509.9433	3008.7299	3023.1772	3029.0414	3033.567	3039.4286	3044.2181	3063.5327	3082.7807	3086.7695	3102.8273	3103.5328	3108.0436	3157.3192	3189.8795
CCC12CCC3CC1C23	CC[C@@]12CC[C@H]3C[C@@H]1[C@@H]23	
InChI=1S/C9H14/c1-2-9-4-3-6-5-7(9)8(6)9/h6-8H,2-5H2,1H3	InChI=1S/C9H14/c1-2-9-4-3-6-5-7(9)8(6)9/h6-8H,2-5H2,1H3/t6-,7+,8-,9+/m0/s1
