21
gdb 59711	3.01949	1.29247	1.01734	1.9392	78.48	-0.2528	0.0809	0.3337	1237.2703	0.181983	-424.217419	-424.208521	-424.207576	-424.251078	33.752	
C	-0.0193366734	 1.4974617956	-0.0908804175	-0.395325
C	-0.0064053981	-0.0341566153	-0.0104242515	 0.027354
C	 0.8294431888	-0.5193169389	 1.1820005486	-0.405367
C	-1.4338425536	-0.5903406916	 0.0575744473	 0.115308
O	-2.1703148802	-0.1109481228	-1.0743964675	-0.277783
C	-3.1154992671	-1.0794413424	-1.5078620883	-0.107419
C	-2.6004333526	-2.4061094532	-0.9982731011	 0.022344
O	-1.2198265967	-2.6264579094	-1.307570229	-0.250997
C	-1.5597067528	-2.1020359896	-0.0171369837	 0.001281
H	 0.9986843129	 1.8866430267	-0.1951131754	 0.106445
H	-0.610714742	 1.8394773089	-0.9424203917	 0.135261
H	-0.4497362331	 1.9338197902	 0.8190889812	 0.105249
H	 0.4305050034	-0.4313632462	-0.9345313883	 0.093828
H	 0.920338215	-1.6097129569	 1.2066737885	 0.116595
H	 1.8412926695	-0.105705618	 1.1318641522	 0.117231
H	 0.3897972107	-0.1950459522	 2.1332635883	 0.110889
H	-1.9153746193	-0.2541087239	 0.9945957566	 0.064564
H	-4.1174178136	-0.8905231274	-1.0878103519	 0.094074
H	-3.1799007895	-1.022897267	-2.5997375383	 0.119065
H	-3.2371644884	-3.2856275933	-0.9598495868	 0.102531
H	-1.3342906099	-2.7324560135	 0.8377739383	 0.104872
71.9732	108.0649	175.1439	222.9303	240.9047	267.9799	328.0401	371.9728	392.9214	454.2626	510.0798	693.8321	784.8727	835.4918	841.702	889.1965	901.8433	930.2725	940.7587	957.7938	973.2066	1003.6592	1039.5821	1061.7418	1109.342	1122.1704	1141.939	1174.9768	1199.0203	1227.5485	1259.5923	1301.2875	1309.0907	1329.1862	1353.4223	1374.0848	1395.584	1399.2094	1420.3242	1444.6137	1488.9548	1492.7117	1504.6212	1506.4408	1514.0131	2933.5422	2972.3882	3025.4166	3028.4792	3042.2671	3069.0967	3088.8229	3095.8274	3105.3587	3132.7459	3153.6094	3167.5796
CC(C)C1OCC2OC12	CC(C)[C@H]1OC[C@H]2O[C@@H]12	
InChI=1S/C7H12O2/c1-4(2)6-7-5(9-7)3-8-6/h4-7H,3H2,1-2H3	InChI=1S/C7H12O2/c1-4(2)6-7-5(9-7)3-8-6/h4-7H,3H2,1-2H3/t5-,6-,7-/m1/s1
