19
gdb 93433	2.73763	1.33247	0.97668	3.6546	76.63	-0.2459	-0.0352	0.2107	1216.9592	0.158917	-423.089353	-423.080664	-423.07972	-423.122961	32.635	
C	-0.0868751861	 1.5694402462	 0.0110311825	-0.401398
C	 0.0571179719	 0.0489748361	 0.0246633917	-0.079188
C	 0.7384598799	-0.5006012105	-1.2488978073	-0.218323
C	 0.8603346638	-2.0346800131	-1.2468949162	-0.309239
C	 1.5845107544	-2.5291613299	-0.0042313395	 0.384195
O	 2.5099408904	-3.301432863	-0.0356775638	-0.293445
C	 1.0530695548	-1.9550096923	 1.3109170076	-0.390783
C	 0.8253296977	-0.4438849032	 1.2506549461	 0.374016
O	 1.243776801	 0.2933343226	 2.1097157822	-0.296895
H	 0.8927957662	 2.0521639836	-0.0502540568	 0.130861
H	-0.6846552898	 1.8911622862	-0.8469761554	 0.110043
H	-0.5671602363	 1.9251814795	 0.9251858339	 0.132191
H	-0.9415037415	-0.4132299934	 0.0823289667	 0.092191
H	 0.1681958633	-0.1805299401	-2.126295321	 0.115327
H	 1.7360111174	-0.0525643509	-1.3440092696	 0.120593
H	-0.1462237126	-2.4771309247	-1.2505418974	 0.118806
H	 1.3906694789	-2.4032871292	-2.1274727985	 0.127285
H	 0.0734138393	-2.4227898444	 1.4889127139	 0.139917
H	 1.7189615574	-2.2081754697	 2.136087331	 0.143845
71.4606	92.0416	185.3721	198.9359	277.0701	308.298	359.5755	409.2331	433.6686	485.8535	565.2455	617.9794	686.8193	724.9643	784.291	851.4563	862.6955	931.2626	957.6208	1010.5451	1046.5931	1073.0013	1117.4418	1128.495	1146.3134	1201.6603	1218.448	1250.8097	1262.9269	1309.7711	1338.4493	1345.8185	1381.2936	1415.3565	1439.095	1465.8473	1488.6384	1493.1747	1499.3482	1808.9271	1833.7746	2982.8391	3013.4091	3019.3424	3031.8641	3047.2885	3081.9958	3113.2717	3116.4016	3129.5495	3140.9148
CC1CCC(=O)CC1=O	C[C@H]1CCC(=O)CC1=O	
InChI=1S/C7H10O2/c1-5-2-3-6(8)4-7(5)9/h5H,2-4H2,1H3	InChI=1S/C7H10O2/c1-5-2-3-6(8)4-7(5)9/h5H,2-4H2,1H3/t5-/m0/s1
