17
gdb 97129	2.46498	1.16018	0.83522	5.6942	73.56	-0.2393	0.0033	0.2426	1355.8271	0.134163	-455.144806	-455.13516	-455.134215	-455.180625	32.469	
C	-0.1571857215	 1.1717743725	 0.1140087625	-0.34143
N	-0.2497104536	-0.2496462643	-0.1854289201	-0.32087
C	 0.5724656823	-0.7383821567	-1.00581541	 0.41111
N	 1.6486194303	-0.2873122667	-1.763809399	-0.351414
C	 1.9024773339	-1.5880802349	-2.4030271495	-0.183681
C	 0.7579686665	-2.1673610895	-1.5286710364	-0.008251
O	 1.215609539	-3.1414744582	-0.6011498849	-0.197247
C	 0.357402947	-3.4828181039	 0.3936072573	 0.164798
O	 0.6461221789	-4.2994904898	 1.214738288	-0.2725
H	 0.8662028347	 1.5696707721	 0.0398316339	 0.104917
H	-0.7971291162	 1.7532193201	-0.5632746805	 0.123177
H	-0.5177831267	 1.3504984797	 1.1307277919	 0.133507
H	 1.8087677399	 0.6303126378	-2.1478319207	 0.253854
H	 1.7101750152	-1.6205878398	-3.4800491333	 0.118262
H	 2.8861308876	-2.0101325071	-2.1825593661	 0.135508
H	-0.0980483476	-2.5455170215	-2.0950467784	 0.115653
H	-0.5947230096	-2.92786224	 0.3542900855	 0.114608
62.4193	70.0683	93.0207	115.2607	183.9253	188.0096	221.5265	292.5315	348.6624	413.5129	537.4483	599.2711	728.2556	751.6563	892.2886	946.9842	993.6854	1039.9585	1043.0067	1073.5451	1115.6634	1131.8366	1156.4768	1170.6625	1176.1231	1194.5907	1221.9791	1311.8368	1356.1221	1387.0782	1437.7113	1442.5465	1487.751	1505.892	1517.1006	1820.3279	1865.0182	2983.7665	3011.001	3044.4413	3048.14	3071.8129	3096.6601	3107.1529	3633.9598
CN=C1NCC1OC=O	CN=C1NC[C@H]1OC=O	
InChI=1S/C5H8N2O2/c1-6-5-4(2-7-5)9-3-8/h3-4H,2H2,1H3,(H,6,7)	InChI=1S/C5H8N2O2/c1-6-5-4(2-7-5)9-3-8/h3-4H,2H2,1H3,(H,6,7)/t4-/m1/s1
