17
gdb 37060	3.29151	1.78118	1.53495	3.068	70.79	-0.2255	0.0146	0.2401	892.7595	0.139445	-417.993464	-417.986861	-417.985917	-418.024004	27.3	
C	 0.0691568642	 1.4543256555	-0.0563018131	-0.361111
C	 1.3966975723	 0.726624864	 0.0291308965	 0.226192
C	 1.9851691611	 0.4809988844	 1.4023535229	-0.134342
O	 0.8831170281	 0.0224245864	 2.1960641275	-0.264452
C	-0.0365425908	-0.6992980225	 1.3676933456	-0.147078
C	 0.0854557186	-0.0514195698	 0.0042800198	 0.287061
N	 0.020871311	-0.7909873098	-1.2373209261	-0.308245
C	 1.1007088404	-0.4899743785	-1.8632067782	 0.027663
N	 2.0274521625	 0.3025115495	-1.1910992145	-0.36299
H	-0.2487156295	 1.9811161538	 0.8367945634	 0.12935
H	-0.2028903495	 1.914757363	-0.9991568588	 0.114255
H	 2.7791755094	-0.2775268162	 1.3213936897	 0.097518
H	 2.3859008756	 1.3616229784	 1.9143358942	 0.10558
H	 0.230110875	-1.7639009373	 1.2886071949	 0.103208
H	-1.0191090851	-0.6146253852	 1.8408892662	 0.11198
H	 1.336489701	-0.8464833827	-2.8619436687	 0.128775
H	 2.6434733256	 0.9101786869	-1.7098968113	 0.246635
215.6338	229.7499	299.0074	384.4341	399.0571	452.5444	536.7168	583.0926	623.0058	639.9504	772.761	807.6212	839.3333	915.3384	927.5832	941.8789	948.8737	969.8942	1020.7908	1043.3251	1057.137	1075.2031	1105.2079	1157.5458	1218.8559	1222.8727	1273.8808	1283.6164	1330.1514	1337.6365	1368.7023	1391.7867	1399.1567	1458.557	1509.6897	1520.6931	1638.1968	2987.9286	2997.9494	3072.5374	3083.8377	3134.8044	3186.1787	3231.4554	3615.0721
C1C23COCC12N=CN3	C1[C@@]23COC[C@@]12N=CN3	
InChI=1S/C6H8N2O/c1-5-2-9-3-6(1,5)8-4-7-5/h4H,1-3H2,(H,7,8)	InChI=1S/C6H8N2O/c1-5-2-9-3-6(1,5)8-4-7-5/h4H,1-3H2,(H,7,8)/t5-,6+
