17
gdb 8350	5.01326	1.26651	1.23449	2.0644	69.5	-0.2357	-0.0285	0.2072	1015.854	0.142209	-363.787988	-363.78065	-363.779706	-363.820797	26.963	
O	-0.7206092759	 0.8853478404	 0.6687262516	-0.234716
C	 0.0989316392	 0.9640905643	-0.209376078	 0.159185
C	 1.3311998081	 1.8403949194	-0.1648431239	-0.410092
C	 1.2936216324	 2.9256736623	-1.2325551329	 0.289686
C	 0.306948721	 4.1083157143	-1.3948624268	-0.196158
N	 1.2645438606	 4.3292196451	-2.5782796766	-0.137207
C	 2.3720191173	 3.981981541	-1.5686552526	-0.211731
C	 1.1567893933	 2.8081420413	-2.7727191102	-0.207054
H	-0.0167246648	 0.382091524	-1.153349924	 0.076057
H	 1.4128955472	 2.2825288557	 0.8328272005	 0.125085
H	 2.2108449055	 1.2051849993	-0.3405462598	 0.119205
H	-0.7198440301	 3.8884336806	-1.6998901177	 0.10763
H	 0.3385484302	 4.909543381	-0.6515148763	 0.105595
H	 2.5617909688	 4.7734978388	-0.8382637529	 0.104541
H	 3.2995184673	 3.6404094646	-2.0373454753	 0.101919
H	 1.9926154891	 2.3792910217	-3.3331722798	 0.102411
H	 0.1957618008	 2.4912890163	-3.1875673853	 0.105644
45.1531	62.4742	176.4153	290.6366	357.6188	472.2891	584.8868	589.3461	629.5377	775.5286	791.3322	840.5904	898.5398	931.5341	943.0511	971.8792	976.6724	1024.0854	1048.3976	1062.9126	1146.3841	1158.0979	1168.2762	1169.9413	1201.9207	1202.8986	1247.1637	1262.3373	1298.3758	1321.1559	1429.1834	1456.6504	1510.4136	1512.1083	1565.88	1833.8171	2859.8984	3017.3263	3044.0807	3046.7825	3056.103	3094.4783	3110.6672	3115.8972	3119.6661
O=CCC12CN(C1)C2	O=CC[C@@]12CN(C1)C2	
InChI=1S/C6H9NO/c8-2-1-6-3-7(4-6)5-6/h2H,1,3-5H2	InChI=1S/C6H9NO/c8-2-1-6-3-7(4-6)5-6/h2H,1,3-5H2
