20
gdb 82237	2.44238	1.98124	1.43447	0.7321	76.95	-0.2281	0.0723	0.3004	982.1064	0.173359	-403.108907	-403.101496	-403.100552	-403.140431	30.015	
C	 0.1012935347	 1.599903523	 0.0139080935	-0.398355
C	 0.0961183514	 0.0680408113	-0.0067250965	-0.021656
C	 0.7724737766	-0.5766308138	-1.2169901472	-0.030633
C	 2.2449144028	-0.4721513545	-1.3401750852	-0.258164
N	 1.6380919509	-1.7085197674	-0.8057239799	-0.119427
C	 1.5789859085	-1.8103125668	 0.6650651546	-0.03285
C	 2.750476797	-1.2112462171	 1.4564274988	-0.09595
O	 2.0316568982	 0.0335061398	 1.6364117379	-0.295713
C	 0.7926346752	-0.5883402133	 1.1942982237	 0.098576
H	 1.1210052566	 1.9834519451	 0.0916751666	 0.136344
H	-0.3522826606	 2.0030295616	-0.8966968832	 0.114763
H	-0.4667692528	 1.9824110276	 0.8679990012	 0.116586
H	-0.9458767951	-0.2790864378	 0.0092370798	 0.078277
H	 0.1656284122	-0.7380607074	-2.104478679	 0.08649
H	 2.720411258	-0.599225391	-2.3088535004	 0.112829
H	 2.7590283117	 0.2038823891	-0.6646366471	 0.135693
H	 1.2499248747	-2.8142252036	 0.9377936719	 0.08371
H	 2.9341221037	-1.7076588257	 2.4177544882	 0.103134
H	 3.6998144634	-1.0783081743	 0.9277382209	 0.111966
H	 0.1198285927	-0.742079875	 2.0463804314	 0.074382
133.796	212.2328	222.4817	246.1553	315.8014	405.4377	476.8927	506.9111	640.879	668.395	724.1857	808.4683	827.7581	863.5932	887.9597	907.1234	941.7419	969.3564	994.5735	1013.8724	1045.2606	1056.4384	1093.2224	1104.554	1123.8311	1131.4649	1163.6495	1173.318	1174.9793	1239.0072	1250.1923	1273.9631	1307.7346	1330.269	1336.8463	1357.3305	1367.7424	1392.294	1414.4243	1493.8082	1499.257	1505.9462	1519.4645	3012.1955	3019.9757	3036.0639	3042.2497	3078.1655	3095.8585	3104.035	3114.3747	3130.0966	3136.0313	3203.9325
CC1C2CN2C2COC12	C[C@H]1[C@H]2CN2[C@H]2CO[C@@H]12	
InChI=1S/C7H11NO/c1-4-5-2-8(5)6-3-9-7(4)6/h4-7H,2-3H2,1H3	InChI=1S/C7H11NO/c1-4-5-2-8(5)6-3-9-7(4)6/h4-7H,2-3H2,1H3/t4-,5+,6-,7-,8?/m0/s1
