18
gdb 43152	2.61353	1.71143	1.36253	2.3573	75.72	-0.2322	-0.0112	0.221	994.584	0.149726	-401.918651	-401.91137	-401.910426	-401.950233	29.101	
O	 0.0041189644	-0.0539445648	 0.0943030052	-0.321314
C	-0.0097636099	 1.1394545986	 0.0651559095	 0.436617
C	-1.0887856079	 2.2440253073	-0.0292808352	-0.245305
C	-0.8149752826	 3.0038524415	 1.2930701685	-0.226733
C	 0.7597240659	 3.0401251647	 1.267658668	-0.221136
C	 1.0282382745	 2.2766198402	-0.0516665566	-0.223284
C	-0.0491805913	 2.9031404548	-0.9662880031	 0.42017
C	-0.0861315978	 3.0637373284	-2.4257087559	-0.341062
N	-0.0184884489	 4.2445125186	-1.5177888008	-0.392684
H	-2.1170395997	 2.0413902588	-0.3225410956	 0.084517
H	-1.2496425686	 4.0066907604	 1.2806923355	 0.107416
H	-1.2127443773	 2.4729428876	 2.161451939	 0.114972
H	 1.1432945178	 4.0609100357	 1.2098708902	 0.122647
H	 1.2075442599	 2.5476329116	 2.1339256742	 0.112139
H	 2.0551598753	 2.111682613	-0.3682025675	 0.089592
H	 0.8084296559	 2.9018014817	-3.0206235324	 0.1289
H	-1.0196608256	 2.8641413633	-2.9458208818	 0.120368
H	-0.9362054441	 4.6802534585	-1.450379451	 0.23418
119.6044	196.2714	222.7897	255.7226	309.617	487.9948	505.7695	544.3671	654.848	670.7623	764.8819	769.7629	851.2831	883.677	894.3655	910.3277	931.8352	962.1341	973.1148	989.0945	1027.5104	1044.3675	1070.8019	1105.6887	1134.1154	1140.6052	1175.957	1194.1465	1232.5518	1249.0463	1251.0289	1259.4799	1313.9365	1322.944	1435.2794	1490.1843	1506.4984	1522.7344	1907.4864	3059.4193	3071.3353	3101.9524	3107.6783	3123.0051	3142.1981	3156.2264	3193.308	3484.2578
O=C1C2CCC1C21CN1	O=C1[C@H]2CC[C@@H]1[C@]12CN1	
InChI=1S/C7H9NO/c9-6-4-1-2-5(6)7(4)3-8-7/h4-5,8H,1-3H2	InChI=1S/C7H9NO/c9-6-4-1-2-5(6)7(4)3-8-7/h4-5,8H,1-3H2/t4-,5+,7-
