17
gdb 88040	2.47143	1.32867	1.05697	2.0586	74.57	-0.2564	0.0119	0.2683	1186.55	0.132855	-421.747696	-421.73878	-421.737836	-421.781561	32.702	
C	 0.0540078984	 1.5964786824	-0.0468947223	-0.420272
C	-0.1288674744	 0.1212737501	 0.188297147	-0.006077
O	 0.984134214	-0.7395213724	-0.157525311	-0.281073
C	 0.6271629154	-0.6170424597	 1.1942848672	 0.335078
C	 1.5393100437	-0.1711432551	 2.3294992594	-0.155764
O	 1.0095604093	-1.2162206666	 3.1782411025	-0.285719
C	 0.2188229202	-1.7928080532	 2.1021380681	-0.13397
C	-1.1859884078	-1.9607424279	 2.4222931932	 0.330805
C	-2.3557113446	-2.0958975661	 2.6642082959	-0.444123
H	 1.0402109728	 1.9288412475	 0.2879891651	 0.128566
H	-0.0430208387	 1.8313654152	-1.1115216323	 0.135973
H	-0.7102703315	 2.164298221	 0.494324319	 0.131232
H	-1.0960330878	-0.2917457699	-0.1002583125	 0.107934
H	 2.6087172508	-0.3032783571	 2.1236286865	 0.117342
H	 1.3636932796	 0.8268980894	 2.7470367212	 0.117051
H	 0.6531597237	-2.7434213101	 1.763024061	 0.118192
H	-3.3866340131	-2.2209472375	 2.8877393922	 0.204826
78.2466	95.5064	168.9208	184.8283	198.4709	252.0053	340.704	428.0161	449.9616	508.2161	561.1465	594.455	621.4171	679.6162	788.9586	820.4636	906.1968	941.6464	977.5121	1000.4082	1026.5314	1067.1868	1091.8773	1123.1188	1137.1826	1152.4919	1201.5497	1234.1068	1317.4679	1350.1788	1368.3578	1411.3173	1475.6448	1490.537	1513.9453	1539.3223	2235.0035	3011.6913	3022.6135	3039.4234	3070.0291	3105.9705	3106.2846	3126.977	3500.9417
CC1OC11COC1C#C	C[C@H]1O[C@]21CO[C@H]2C#C	
InChI=1S/C7H8O2/c1-3-6-7(4-8-6)5(2)9-7/h1,5-6H,4H2,2H3	InChI=1S/C7H8O2/c1-3-6-7(4-8-6)5(2)9-7/h1,5-6H,4H2,2H3/t5-,6+,7+/m1/s1
