18
gdb 112376	2.86088	1.25445	0.94381	1.077	75.67	-0.2261	0.0001	0.2262	1247.1747	0.14874	-435.329679	-435.32074	-435.319796	-435.364359	32.373	
C	-0.0395458354	 1.5700410456	-0.110289501	-0.382703
C	 0.0853040391	 0.0440487399	-0.0511987381	-0.145298
N	 0.7325579405	-0.5341589464	-1.213525874	-0.084486
C	 0.0752291258	-0.7675303543	-2.4789738012	-0.312861
C	 1.2081637543	-1.2698363611	-3.3782577539	 0.42393
O	 1.1406014365	-1.6320883418	-4.5258693434	-0.356893
N	 2.3355511552	-1.2128048299	-2.5887154441	-0.393956
C	 2.0885404622	-0.7453503539	-1.2824707796	 0.457687
N	 2.9053942094	-0.5441412574	-0.3256894307	-0.593605
H	 0.9511820229	 2.0297651112	-0.158718152	 0.141398
H	-0.6167658357	 1.8950359753	-0.9824040201	 0.114379
H	-0.5481102391	 1.943038419	 0.7843098278	 0.119813
H	 0.6793719955	-0.2482832888	 0.8178420718	 0.149444
H	-0.9045330816	-0.4175293951	 0.0493334213	 0.102836
H	-0.7183623624	-1.523488904	-2.415347968	 0.141123
H	-0.3634428434	 0.138731619	-2.9194871889	 0.140435
H	 3.2486069516	-1.4792530352	-2.9194416859	 0.26653
H	 3.8574479346	-0.787203882	-0.5842284401	 0.212227
42.41	69.1121	135.2663	163.1306	216.1611	320.407	346.4906	406.182	491.8818	560.3754	582.8292	599.8283	678.2373	718.7274	738.2278	786.9412	807.5412	893.5746	960.0348	1020.2568	1058.7318	1095.2424	1101.1491	1190.0508	1191.2868	1249.3407	1271.4708	1334.8842	1350.53	1377.5901	1398.3724	1413.2466	1457.2688	1479.6614	1493.5398	1502.1557	1510.6935	1761.5448	1861.3248	3007.741	3034.1589	3038.2359	3040.3025	3098.2384	3115.1018	3127.2503	3532.5557	3659.9335
CCN1CC(=O)NC1=N	CCN1CC(=O)N[C]1[NH]	
InChI=1S/C5H9N3O/c1-2-8-3-4(9)7-5(8)6/h2-3H2,1H3,(H2,6,7,9)	InChI=1S/C5H9N3O/c1-2-8-3-4(9)7-5(8)6/h2-3H2,1H3,(H2,6,7,9)
