21
gdb 114066	2.66045	1.2174	0.99667	1.9253	79.61	-0.2234	0.0739	0.2973	1303.9483	0.179808	-424.193503	-424.183672	-424.182728	-424.227849	36.921	
C	-0.072553105	 1.5264685473	-0.2197711918	-0.377948
C	-0.0144438936	 0.0537410919	 0.2004325105	-0.209559
C	-1.3596498812	-0.6365084281	 0.078312342	 0.097607
O	-1.8897234445	-0.6666744196	-1.2858864666	-0.345902
C	-2.1660315864	-2.0728037778	-1.1792571701	 0.422753
C	-3.4392235864	-2.5851394143	-1.7644653764	-0.489417
C	-0.8635645705	-2.8244502492	-1.0339899555	-0.410838
C	-1.5015768809	-2.1574165781	 0.1704917043	 0.233768
O	-1.897451411	-2.8378374696	 1.3056529187	-0.458194
H	 0.9100757291	 2.0004240732	-0.137799218	 0.109837
H	-0.4101199065	 1.6139499859	-1.2562357963	 0.137936
H	-0.7705366242	 2.0905216423	 0.4086506137	 0.113984
H	 0.7259730283	-0.477989378	-0.40782939	 0.097441
H	 0.31303217	-0.0287422402	 1.2457193928	 0.095132
H	-2.0995449582	-0.1557210733	 0.7341704696	 0.082453
H	-3.4236341078	-2.5081979645	-2.8574069696	 0.129762
H	-3.5830147773	-3.6363471663	-1.4995093425	 0.128274
H	-4.2942912301	-2.0114864327	-1.3939803676	 0.130492
H	-0.9700057762	-3.9056196634	-1.0236558887	 0.113148
H	 0.0460471317	-2.4486649368	-1.4941992763	 0.11076
H	-1.1179471091	-3.2315553685	 1.7125924079	 0.288512
85.1082	135.9795	154.2527	169.7638	187.619	238.1054	286.3159	299.5547	333.3216	388.7665	453.2195	505.5241	559.8166	598.4364	720.5033	760.2152	779.2452	856.5996	902.5478	924.5312	946.2047	955.9369	986.1057	1041.3847	1059.2336	1106.3677	1109.2041	1151.0843	1178.1856	1218.1122	1223.5517	1285.4761	1308.0471	1333.9807	1347.8146	1394.596	1407.9919	1414.2263	1429.9575	1472.6395	1476.3372	1494.6426	1497.2793	1508.8417	1525.8763	3006.7021	3020.6845	3034.296	3036.8405	3065.9416	3098.2733	3103.6423	3110.9312	3119.372	3119.5844	3204.1656	3793.8347
CCC1OC2(C)CC12O	CC[C@H]1O[C@@]2(C)C[C@@]12O	
InChI=1S/C7H12O2/c1-3-5-7(8)4-6(7,2)9-5/h5,8H,3-4H2,1-2H3	InChI=1S/C7H12O2/c1-3-5-7(8)4-6(7,2)9-5/h5,8H,3-4H2,1-2H3/t5-,6+,7-/m1/s1
