22
gdb 122565	4.43591	0.70261	0.66021	2.719	82.36	-0.2278	0.0804	0.3082	1744.7445	0.194208	-404.294282	-404.284798	-404.283854	-404.329539	35.004	
O	-0.058246694	 1.544188381	-0.1285118324	-0.420488
C	 0.0668392862	 0.1314071136	-0.06825101	-0.075762
C	-1.3330011684	-0.4636441604	-0.0023185801	-0.160186
C	-1.3260630738	-1.9951592334	 0.0508920344	-0.21589
C	-2.726288611	-2.582929766	 0.1413873994	 0.072084
C	-2.9311450375	-4.108655364	 0.3662985823	-0.293695
C	-3.7440225407	-3.7196748134	 1.5986622045	-0.005701
C	-2.9376590583	-2.9058708778	 2.5241448239	-0.240987
N	-3.5536869567	-2.2300250758	 1.3646731215	-0.140318
H	 0.8246827989	 1.9231036964	-0.1643820306	 0.284253
H	 0.5968845604	-0.2594406164	-0.953287877	 0.079855
H	 0.6454701563	-0.1798997061	 0.8176743105	 0.081153
H	-1.8481807788	-0.0634054493	 0.8775774297	 0.1262
H	-1.8986427591	-0.1202076184	-0.8770646611	 0.105188
H	-0.8466877545	-2.4023006192	-0.8505547671	 0.096991
H	-0.7127006704	-2.3361593672	 0.8948853126	 0.092898
H	-3.3070168134	-2.2437050185	-0.7222032803	 0.084574
H	-3.5145493845	-4.5826728327	-0.4248647855	 0.108991
H	-2.0397006832	-4.7156743692	 0.5563727579	 0.098496
H	-4.7117863035	-4.1289534898	 1.8702811069	 0.093296
H	-3.39152881	-2.6023798733	 3.4625269211	 0.120105
H	-1.8604014241	-3.0453392202	 2.5726455596	 0.108944
56.5805	72.8041	107.73	133.3045	230.952	258.9895	270.7798	316.1424	402.4248	485.7032	534.5016	702.9318	747.3968	762.8885	773.3364	834.8891	868.503	935.7944	947.9574	987.8636	1005.2072	1039.2434	1054.311	1067.8566	1089.1171	1102.7924	1106.6425	1128.7374	1136.7222	1190.1623	1215.8494	1230.7189	1237.742	1266.9473	1283.3545	1298.9862	1309.8775	1318.9065	1367.4305	1370.0613	1406.056	1463.6967	1480.5286	1488.9255	1499.0509	1508.0793	1528.8564	2952.3833	2976.4225	3011.1631	3035.4177	3039.484	3046.3482	3057.2148	3088.3918	3109.7232	3114.8563	3161.4923	3196.9379	3830.3185
OCCCC1CC2CN12	OCCC[C@H]1C[C@H]2CN12	
InChI=1S/C7H13NO/c9-3-1-2-6-4-7-5-8(6)7/h6-7,9H,1-5H2	InChI=1S/C7H13NO/c9-3-1-2-6-4-7-5-8(6)7/h6-7,9H,1-5H2/t6-,7-,8?/m0/s1
