18
gdb 52858	1.8383	1.22941	0.82606	3.9176	85.56	-0.2421	0.0299	0.272	1439.5906	0.145764	-364.79503	-364.785065	-364.784121	-364.831831	34.721	
C	-0.2307594403	 1.5455562527	-0.0420157978	-0.501238
C	-0.1516169497	 0.0922312755	-0.0442500117	 0.101846
C	-0.0798074502	-1.1103762673	-0.0362877206	 0.009985
C	 0.036193183	-2.5443868418	-0.0534057278	 0.158377
C	 1.1240698461	-3.0925953366	-0.982683726	-0.419664
C	 2.4761651955	-2.7129989248	-0.5679998907	 0.279117
N	 3.5444458969	-2.423531108	-0.2370331945	-0.30926
C	-0.2492544773	-3.3163285352	 1.2242819629	-0.28202
C	-1.2282390531	-3.3792007175	 0.0869771793	-0.308751
H	 0.7030946043	 1.9881225279	-0.4053256504	 0.156712
H	-1.0422849726	 1.9063921061	-0.6836394112	 0.147366
H	-0.407326205	 1.9312842414	 0.9680358668	 0.151139
H	 1.0698162768	-4.1863807435	-1.0139759345	 0.14603
H	 0.9586396519	-2.7329051344	-2.004200495	 0.15773
H	 0.3665731421	-4.1863290089	 1.4256800809	 0.126016
H	-0.5134856289	-2.7377175331	 2.1005263701	 0.134292
H	-2.1628959622	-2.8403159767	 0.1816909981	 0.133174
H	-1.2907245273	-4.2944735457	-0.4921605279	 0.11915
22.6185	49.6199	94.1471	122.214	164.236	288.6029	300.3716	303.4965	350.4484	392.7845	475.2047	522.0495	542.6911	653.1605	782.9982	831.9264	903.5596	916.4941	939.0938	976.952	1007.0148	1051.0163	1053.9072	1066.542	1076.6517	1088.1741	1191.4656	1218.3369	1279.0281	1331.6783	1373.0464	1414.7204	1456.5635	1469.4314	1476.5116	1478.1902	1497.6697	2364.51	2369.6625	3027.9011	3044.4454	3086.0366	3087.9458	3091.8736	3138.225	3143.6402	3225.9941	3240.1495
CC#CC1(CC#N)CC1	CC#CC1(CC#N)CC1	
InChI=1S/C8H9N/c1-2-3-8(4-5-8)6-7-9/h4-6H2,1H3	InChI=1S/C8H9N/c1-2-3-8(4-5-8)6-7-9/h4-6H2,1H3
