13
gdb 80210	2.27301	1.63194	1.20837	5.7869	64.9	-0.2675	-0.0297	0.2378	1014.5151	0.088981	-452.736024	-452.728145	-452.727201	-452.76868	28.537	
N	-0.1418689912	 1.473567792	-0.1550697506	-0.512199
C	-0.1000955858	 0.0581037913	-0.0431924175	-0.034235
C	-0.4645781795	-0.7311876479	 1.1561186125	 0.022788
O	-1.4659565931	-0.0103783368	 1.9094150767	-0.268278
C	-2.3975187401	-0.1617965204	 0.877806283	 0.444273
O	-3.5408804826	 0.1336637864	 0.8870879827	-0.294575
C	-1.4054310897	-0.817702476	-0.0563076058	-0.036658
C	-1.6499413535	-1.8356473803	-1.0142294305	 0.201969
N	-1.8307763704	-2.6648537052	-1.8009962145	-0.339369
H	-0.5665109673	 1.8982987468	 0.6631091461	 0.261173
H	 0.7902327897	 1.85334567	-0.2685384833	 0.25406
H	 0.6530312586	-0.406363284	-0.6741481679	 0.147542
H	 0.070812325	-1.5195631158	 1.6683200992	 0.153507
125.6955	134.8917	146.9555	167.7484	268.6289	388.586	416.6263	505.6759	533.7675	623.4615	640.6889	700.4963	757.9344	804.1743	824.2113	879.0197	926.85	980.6321	1025.1718	1058.7119	1117.0794	1191.7962	1252.5302	1286.1922	1346.0193	1471.9936	1658.4672	1964.3031	2352.2045	3167.1724	3216.0913	3517.3852	3606.9135
NC1C2OC(=O)C12C#N	N[C@H]1[C@H]2OC(=O)[C@@]12C#N	
InChI=1S/C5H4N2O2/c6-1-5-2(7)3(5)9-4(5)8/h2-3H,7H2	InChI=1S/C5H4N2O2/c6-1-5-2(7)3(5)9-4(5)8/h2-3H,7H2/t2-,3+,5-/m0/s1
