21
gdb 99305	5.67679	0.60798	0.57747	1.6059	80.15	-0.2662	0.0193	0.2855	1962.6696	0.180907	-424.251818	-424.241571	-424.240627	-424.288967	35.727	
C	-0.1604761894	 1.3080377542	 0.0701605584	-0.239127
O	-0.0902590574	-0.1091901223	-0.1252571924	-0.234522
C	 0.7064157128	-0.5136305887	-1.1378537502	 0.445828
O	 1.3299223913	 0.2464693419	-1.8359492291	-0.356669
C	 0.6904305647	-2.0224065602	-1.2645006381	-0.323762
C	 1.6731710107	-2.545198091	-2.3152560204	-0.199757
C	 1.6124010286	-4.0496804455	-2.4666568314	 0.031133
C	 0.5838051901	-4.6840687536	-3.3716329775	-0.257193
C	 2.0448750739	-4.7053257134	-3.7518199844	-0.27829
H	 0.8272395406	 1.716730786	 0.2988207132	 0.139127
H	-0.5439206438	 1.8039982203	-0.8253169981	 0.138844
H	-0.8390339148	 1.4593130828	 0.9098989902	 0.131227
H	 0.895639988	-2.4493634547	-0.2755752793	 0.1276
H	-0.3358087069	-2.3277404662	-1.5046708275	 0.134409
H	 1.4580002056	-2.0653986756	-3.2765035439	 0.110265
H	 2.6890574402	-2.2317086856	-2.0471420714	 0.109776
H	 1.8402733068	-4.6022454287	-1.5575253206	 0.078911
H	 0.1174275286	-5.6126634534	-3.0615570162	 0.109753
H	-0.0721519781	-4.0245738852	-3.9314078517	 0.109288
H	 2.3650751546	-4.0609348046	-4.56414013	 0.112856
H	 2.577486884	-5.6483985163	-3.6985051596	 0.110304
26.5831	56.2402	102.6674	115.5043	122.8867	174.7053	235.81	281.2167	346.1442	389.3613	478.6621	587.0204	695.822	768.0455	779.2482	826.9569	839.3318	894.8641	933.0963	956.4184	1017.8893	1033.7283	1059.8984	1077.7688	1085.4128	1137.5657	1144.4706	1179.6434	1196.8439	1199.1368	1214.3328	1226.955	1234.6951	1301.8113	1320.4544	1386.8755	1421.4383	1457.8014	1469.9816	1473.3633	1482.0158	1487.0355	1498.6891	1508.2149	1818.5712	3033.5149	3041.5642	3050.2967	3061.591	3082.5451	3123.4742	3126.668	3127.4332	3133.6162	3156.5536	3205.5284	3220.9063
COC(=O)CCC1CC1	COC(=O)CCC1CC1	
InChI=1S/C7H12O2/c1-9-7(8)5-4-6-2-3-6/h6H,2-5H2,1H3	InChI=1S/C7H12O2/c1-9-7(8)5-4-6-2-3-6/h6H,2-5H2,1H3
