19
gdb 97809	2.577	0.8959	0.71217	1.7146	82.51	-0.2303	0.0296	0.26	1598.9297	0.156875	-422.960897	-422.950613	-422.949669	-422.998059	35.74	
C	 0.1766267168	 0.7623493512	 0.9390724731	-0.245384
O	-0.0484603099	-0.0167265253	-0.2245025463	-0.230161
C	-1.2908961769	-0.6223478283	-0.2351454186	 0.142403
C	-1.4340962148	-1.8501012245	-1.0590544998	-0.324537
C	-1.489412614	-1.971671267	 0.4669059599	-0.246629
C	-0.4065281435	-2.5812504101	 1.1757374611	 0.07691
C	 0.4896185506	-3.0991764974	 1.7959150962	 0.061717
C	 1.6194534077	-3.6664524282	 2.5281890989	-0.196099
O	 2.4019790987	-2.6930465242	 3.2109519675	-0.403736
H	 1.1647805283	 1.2151126661	 0.8313901672	 0.127073
H	-0.571998207	 1.5629532823	 1.0347066838	 0.107592
H	 0.1539936348	 0.1445968856	 1.8455677758	 0.128834
H	-2.1350661118	 0.0675564814	-0.1770236181	 0.089937
H	-2.3504049545	-2.0080627385	-1.615877411	 0.121126
H	-0.5308052491	-2.2165764571	-1.531670711	 0.138631
H	-2.4748538398	-2.131459051	 0.8960697205	 0.112109
H	 1.2601277002	-4.3534512515	 3.3026818016	 0.138213
H	 2.2405848267	-4.2632893296	 1.8409383695	 0.115911
H	 2.6399851875	-2.0189943438	 2.5658972196	 0.286092
21.1888	55.2009	102.8225	129.1441	169.8322	211.3825	237.991	284.574	323.7145	380.2114	439.539	512.8147	532.3783	657.449	729.4545	762.4638	833.2009	927.0883	957.9007	987.6112	1035.768	1061.5529	1071.6355	1089.7728	1122.2393	1158.1054	1182.0618	1190.2291	1214.6409	1227.2246	1265.6007	1358.9994	1379.3498	1399.5429	1418.5615	1468.4888	1486.8801	1490.9305	1492.932	1506.3737	2351.0702	2973.7099	2991.014	3057.8784	3060.1044	3081.8284	3123.4308	3140.2331	3146.057	3241.6055	3816.555
COC1CC1C#CCO	CO[C@H]1C[C@H]1C#CCO	
InChI=1S/C7H10O2/c1-9-7-5-6(7)3-2-4-8/h6-8H,4-5H2,1H3	InChI=1S/C7H10O2/c1-9-7-5-6(7)3-2-4-8/h6-8H,4-5H2,1H3/t6-,7+/m1/s1
