18
gdb 112689	3.22004	1.0797	0.85988	2.366	68.08	-0.2487	0.0033	0.252	1320.4272	0.148562	-476.258544	-476.24966	-476.248716	-476.292513	32.65	
N	 0.3116722578	 1.2482227153	 0.5583977463	-0.512497
C	-0.0082124241	-0.0275231859	-0.0571313601	-0.110674
C	-1.5031418434	-0.3360025394	-0.1722533652	-0.256231
C	-1.5535707655	-1.3205442066	-1.3475061439	 0.096812
C	-2.795163793	-1.2465944452	-2.2220079239	-0.065092
O	-2.7408304167	-2.1541568548	-3.299627826	-0.418855
O	-0.4177810647	-0.9746719644	-2.1873917739	-0.247285
C	 0.4737687828	-0.2067707041	-1.5066956791	 0.411334
O	 1.4618562003	 0.2454512599	-2.0088075877	-0.342874
H	 1.3168559119	 1.3933815534	 0.4975137238	 0.245583
H	-0.10164773	 1.9994387181	 0.0103426971	 0.230521
H	 0.4831767347	-0.8179839976	 0.5278633893	 0.119536
H	-1.9364812672	-0.747840654	 0.7399915917	 0.127708
H	-2.0506748567	 0.581323532	-0.42427158	 0.111171
H	-1.406163278	-2.3554865058	-1.0157348398	 0.102124
H	-3.6739857877	-1.512033761	-1.6242105656	 0.117283
H	-2.9226344801	-0.2069120426	-2.5653823855	 0.094067
H	-1.9396128502	-1.9508048074	-3.7960471078	 0.297372
75.649	111.7837	123.2654	217.0439	232.4966	261.7957	354.8643	401.5844	429.0876	450.7097	550.323	581.1266	650.1529	713.0298	795.8899	901.2109	916.1363	938.2384	993.7278	1022.3281	1065.6584	1090.8008	1103.4101	1165.1348	1180.6004	1182.9546	1232.1814	1246.8853	1306.0215	1309.6289	1355.9176	1372.1943	1403.2628	1414.1466	1435.4149	1488.3798	1495.9541	1666.8149	1879.215	2975.921	3013.1818	3032.9912	3043.6887	3076.0962	3125.0517	3476.9785	3550.8133	3801.3364
NC1CC(CO)OC1=O	N[C@H]1C[C@@H](CO)OC1=O	
InChI=1S/C5H9NO3/c6-4-1-3(2-7)9-5(4)8/h3-4,7H,1-2,6H2	InChI=1S/C5H9NO3/c6-4-1-3(2-7)9-5(4)8/h3-4,7H,1-2,6H2/t3-,4-/m0/s1
