16
gdb 9208	6.14608	0.95912	0.86157	5.8007	63.16	-0.2656	-0.0343	0.2313	1304.4063	0.127326	-420.916373	-420.907336	-420.906392	-420.951172	30.361	
C	 0.3089276688	 1.3939126809	 0.0270713596	-0.37658
C	-0.1225486466	-0.0615223965	 0.192423647	-0.288288
C	 0.6017711915	-0.7852718298	 1.3123135518	 0.371905
O	 1.3019320034	-0.2316769087	 2.1242595863	-0.279867
C	 0.4205285049	-2.308277347	 1.3491297943	-0.200108
O	 0.7433099194	-2.8627102677	 2.6085792467	-0.164648
C	 2.0559630749	-2.9052277749	 2.9446013868	 0.190929
O	 2.4234911726	-3.2818273641	 4.0136015486	-0.271595
H	 1.3683361768	 1.4607314342	-0.2344305063	 0.13236
H	-0.2719153109	 1.8802768679	-0.7607639024	 0.118358
H	 0.1669791233	 1.9467251852	 0.9583160828	 0.143802
H	-1.1978259514	-0.1308366991	 0.4134685836	 0.137157
H	 0.0121874582	-0.6330656168	-0.7365167094	 0.122985
H	-0.617252521	-2.5824514903	 1.1428806899	 0.145818
H	 1.0361646746	-2.7408639819	 0.5449783907	 0.135877
H	 2.7227275316	-2.5930755212	 2.1205850601	 0.081894
50.8553	73.2805	81.0789	186.5045	195.8897	216.1568	298.5588	332.5372	388.0983	458.1847	625.7527	698.6877	739.3686	840.9478	928.5397	984.8662	1026.1261	1037.3577	1065.7453	1117.2907	1124.7051	1183.9337	1271.7004	1303.343	1364.6501	1389.2468	1415.3459	1428.6486	1449.0706	1471.9291	1493.8791	1499.2653	1823.5802	1877.3799	2974.4097	2998.6035	3013.4416	3040.4997	3055.2725	3104.1143	3125.5878	3135.0013
CCC(=O)COC=O	CCC(=O)COC=O	
InChI=1S/C5H8O3/c1-2-5(7)3-8-4-6/h4H,2-3H2,1H3	InChI=1S/C5H8O3/c1-2-5(7)3-8-4-6/h4H,2-3H2,1H3
