14
gdb 11823	3.9233	1.67808	1.32735	2.6887	59.08	-0.2503	-0.051	0.1993	896.4824	0.104982	-419.644619	-419.636938	-419.635994	-419.677109	27.267	
O	 0.5278736239	 0.9240933772	 0.6851478814	-0.435782
C	-0.0435174011	-0.1792275871	 0.0370570834	 0.049473
C	-1.5861536131	-0.1455493498	-0.1978485044	-0.362974
C	-1.346593257	-0.5537053986	-1.6634870705	 0.334542
C	-1.9445648955	-1.6393374225	-2.4596080102	-0.246984
O	-2.1589793248	-0.2661053654	-2.7772226514	-0.249632
C	 0.1263228151	-0.2175109274	-1.5005461086	 0.290204
O	 1.0275450554	 0.1094327869	-2.2174736828	-0.306389
H	 1.3022367622	 1.1858447998	 0.1716268534	 0.299647
H	 0.2690588785	-1.1298564542	 0.4958190638	 0.09989
H	-2.1925600269	-0.8149148999	 0.4123703088	 0.120343
H	-1.9606845241	 0.8779769655	-0.1227008239	 0.140567
H	-1.3285093123	-2.193033356	-3.16593791	 0.137031
H	-2.8044116203	-2.1694754786	-2.0524381091	 0.130065
55.4768	133.2986	214.7473	222.3337	255.7998	312.0911	390.1987	508.1378	559.8872	717.1288	738.2378	822.7075	859.5469	906.2827	931.5865	986.4081	1043.9877	1087.1396	1130.3	1146.9938	1161.3682	1171.9916	1199.8487	1243.8947	1352.9026	1368.1297	1415.2856	1473.5325	1521.468	1887.5416	2987.1852	3081.6289	3086.0863	3146.3792	3181.6989	3780.6949
OC1CC2(CO2)C1=O	O[C@H]1C[C@]2(CO2)C1=O	
InChI=1S/C5H6O3/c6-3-1-5(2-8-5)4(3)7/h3,6H,1-2H2	InChI=1S/C5H6O3/c6-3-1-5(2-8-5)4(3)7/h3,6H,1-2H2/t3-,5-/m0/s1
