19
gdb 108558	3.34321	1.45904	1.26602	0.9563	73.88	-0.2151	0.0832	0.2984	1052.7632	0.159775	-422.976037	-422.968315	-422.967371	-423.00815	30.305	
C	 0.0067352894	 1.2791733568	-0.3051541969	-0.255875
O	-0.0830055453	-0.0314112873	 0.2291185692	-0.297613
C	-1.3604496041	-0.5694050392	 0.1813043051	 0.407238
C	-2.4732211839	-0.0250662616	 1.0848800818	-0.290958
C	-3.4068548288	-1.2489432626	 1.3053215526	-0.212598
C	-2.9810069038	-2.2093634528	 0.1981240294	 0.084865
O	-3.1883037489	-1.5319234215	-1.0928490661	-0.312466
C	-1.7954229243	-1.2237232071	-1.1265541322	 0.033328
C	-1.4505675802	-2.0744271591	 0.0590133523	-0.227215
H	 1.0610321946	 1.562723827	-0.2732674446	 0.127981
H	-0.3471384502	 1.3175076313	-1.3446336407	 0.110853
H	-0.5727216237	 2.0009922717	 0.2866456399	 0.114733
H	-2.0392045096	 0.3382402779	 2.0210719824	 0.106078
H	-3.0114264622	 0.8055676894	 0.6194840268	 0.109252
H	-3.2325402724	-1.711345118	 2.2837114964	 0.101924
H	-4.4677632864	-0.9952564481	 1.2327624016	 0.109363
H	-3.4358529785	-3.2012281397	 0.2032204922	 0.082883
H	-1.3107070996	-1.0771396916	-2.0849700418	 0.104671
H	-0.6618547322	-2.7881735353	 0.2495946126	 0.103556
108.9635	159.7534	179.9968	223.065	368.9581	376.2566	396.01	479.0038	593.4378	666.9594	742.1871	771.4509	825.8585	846.4035	870.7412	896.2424	926.6952	955.6938	1012.857	1015.8793	1020.7954	1052.8002	1065.7965	1088.5261	1166.8333	1176.4129	1182.4073	1195.8085	1218.3795	1222.2781	1270.8423	1273.7011	1292.9278	1327.8243	1345.7032	1405.2714	1473.1345	1480.7127	1487.4579	1499.9147	1509.0464	2996.2541	3041.2623	3049.2689	3055.9739	3090.0595	3102.2076	3107.4081	3121.9435	3179.7871	3216.0391
COC12CCC3OC1C23	CO[C@@]12CC[C@H]3O[C@@H]1[C@@H]23	
InChI=1S/C7H10O2/c1-8-7-3-2-4-5(7)6(7)9-4/h4-6H,2-3H2,1H3	InChI=1S/C7H10O2/c1-8-7-3-2-4-5(7)6(7)9-4/h4-6H,2-3H2,1H3/t4-,5+,6-,7-/m1/s1
