15
gdb 27373	1.98131	1.96427	0.9986	6.3588	70.06	-0.2574	-0.0452	0.2122	1139.3128	0.111435	-454.01786	-454.009358	-454.008414	-454.051972	29.753	
C	-0.0158449018	 1.4566668653	 0.1324964046	-0.472238
C	-0.0156263891	-0.025727602	-0.0388195923	 0.399373
N	-0.0742976721	-0.6111164623	-1.1649939952	-0.3252
C	-0.0642958736	-2.0315846491	-1.1948706529	 0.383104
O	-0.1061417594	-2.6294930043	-2.2355764827	-0.314229
N	-0.0040592802	-2.722742527	 0.0451946607	-0.325164
C	 0.0515165657	-2.0442228236	 1.1179168426	 0.399372
C	 0.1206144417	-2.6437138149	 2.4826788386	-0.472238
O	 0.0548105538	-0.6725223864	 1.1696593401	-0.232236
H	 0.8942037105	 1.7761455661	 0.6502459724	 0.155885
H	-0.0737924099	 1.9319131229	-0.845253734	 0.168085
H	-0.8662200629	 1.7646475283	 0.7492155207	 0.155749
H	 0.1167490381	-3.7291980395	 2.3995282942	 0.16808
H	 1.0291600656	-2.3109451935	 2.9946683496	 0.155863
H	-0.7317860862	-2.3114646001	 3.0838204334	 0.155796
44.6311	115.4116	128.5163	170.8424	203.5573	275.7458	343.1903	532.5749	543.7565	585.4605	587.0055	621.4438	631.2501	836.3569	894.0219	901.8677	928.8013	1046.2356	1063.3686	1066.082	1084.0538	1105.1531	1280.5807	1295.7562	1403.8885	1413.0585	1465.7301	1467.3351	1473.5172	1473.8497	1661.5875	1755.7972	1838.65	3050.9029	3051.1541	3110.2486	3110.37	3176.1047	3176.2669
CC1=NC(=O)N=C(C)O1	Cc1nc(=O)nc(C)o1	
InChI=1S/C5H6N2O2/c1-3-6-5(8)7-4(2)9-3/h1-2H3	InChI=1S/C5H6N2O2/c1-3-6-5(8)7-4(2)9-3/h1-2H3
