21
gdb 122230	3.49648	0.73804	0.67935	1.1406	75.73	-0.2561	0.0845	0.3406	1719.9192	0.180275	-461.324387	-461.314081	-461.313136	-461.360734	36.507	
C	 0.1410243084	 1.2621522027	 0.3862252458	-0.230341
O	 0.0209949781	-0.0584822141	-0.0849431164	-0.230433
C	-1.270947928	-0.5923218639	 0.1023024724	-0.049878
C	-1.2585552821	-2.0286014502	-0.4188588501	-0.296413
C	-2.5762608981	-2.7516662703	-0.2278479	 0.365088
C	-3.7386054822	-2.3277459691	-1.1218922405	-0.13144
O	-4.9540096356	-2.9183529617	-0.7227610604	-0.417959
C	-2.6095395617	-4.0966662451	 0.3597471879	-0.226113
O	-2.9804342135	-2.9476055098	 1.1436338928	-0.291184
H	 1.1681294473	 1.5845206021	 0.1988197622	 0.127537
H	-0.5468850729	 1.947087981	-0.1350207178	 0.103469
H	-0.0622531551	 1.3311603763	 1.4666620217	 0.105801
H	-1.5464142947	-0.5879601629	 1.1692438355	 0.105347
H	-2.0170348106	 0.0216418511	-0.4298013602	 0.086398
H	-0.995888551	-2.0224448755	-1.483751899	 0.112739
H	-0.4630172737	-2.5682218872	 0.103516645	 0.116178
H	-3.8111602601	-1.2279354662	-1.1261597364	 0.094781
H	-3.5406996784	-2.6431121589	-2.1529030299	 0.117248
H	-4.9742559215	-2.8377222351	 0.2408095254	 0.291997
H	-3.431782274	-4.7638828356	 0.1146503199	 0.130038
H	-1.6781390706	-4.5736858076	 0.6586570219	 0.117142
52.2553	68.2638	93.3654	122.9792	164.5492	231.5863	247.0016	299.4544	339.4467	352.0422	397.0208	498.7686	508.9861	604.8569	721.7583	788.3401	847.1794	903.9095	945.0462	991.4089	1042.1546	1048.4974	1087.8093	1104.5972	1131.9436	1163.1972	1175.3562	1181.3427	1214.6252	1227.3102	1240.6722	1263.5633	1305.4322	1324.8357	1369.8527	1413.4722	1433.6254	1443.3482	1481.0478	1482.7138	1485.915	1505.1429	1505.823	1517.8955	1535.1857	2956.0572	2970.748	2977.4355	2995.1169	3013.3549	3041.3565	3061.5489	3092.9168	3098.463	3114.3461	3194.1373	3752.6831
COCCC1(CO)CO1	COCC[C@@]1(CO)CO1	
InChI=1S/C6H12O3/c1-8-3-2-6(4-7)5-9-6/h7H,2-5H2,1H3	InChI=1S/C6H12O3/c1-8-3-2-6(4-7)5-9-6/h7H,2-5H2,1H3/t6-/m1/s1
