14
gdb 124374	4.94808	1.01189	0.97961	3.7672	64.73	-0.2597	-0.0163	0.2434	1212.2895	0.099513	-473.844698	-473.836569	-473.835625	-473.879097	28.047	
C	-0.1012544538	 1.4539603169	-0.0872329905	-0.485925
C	 0.3622627898	 0.0265310582	-0.1413775709	 0.408809
O	 1.3133687765	-0.459008115	 0.3875087424	-0.294599
O	-0.5129215647	-0.7093080943	-0.943712486	-0.284601
C	-0.2972212014	-2.038888908	-1.0477222084	 0.558675
C	 0.1943523951	-2.7991964926	-2.058139918	-0.381745
C	 0.0529934876	-4.1140168609	-1.5423292591	 0.054172
N	-0.4743116801	-4.133757538	-0.3417861455	-0.134464
O	-0.7041110287	-2.7924560899	-0.0220327598	-0.198182
H	 0.6131798725	 2.0440931656	 0.4845272065	 0.159911
H	-0.2034069894	 1.8548277286	-1.0991405847	 0.160603
H	-1.0875895521	 1.5011454072	 0.3833831185	 0.166717
H	 0.5919621817	-2.4720061831	-3.0025504873	 0.13153
H	 0.319277487	-5.0527179748	-2.0078136273	 0.139098
37.5036	73.5869	105.5	114.863	316.9802	344.4818	432.8207	585.8057	589.3194	646.2539	659.7191	774.5774	807.9516	882.4911	919.2144	926.5083	933.8157	1006.288	1040.5826	1053.5027	1063.7651	1192.2613	1227.1698	1276.8185	1377.1716	1396.0821	1467.1335	1473.0225	1517.1535	1652.8422	1884.231	3060.743	3126.8351	3176.2281	3244.0308	3293.758
CC(=O)OC1=CC=NO1	CC(=O)Oc1ccno1	
InChI=1S/C5H5NO3/c1-4(7)8-5-2-3-6-9-5/h2-3H,1H3	InChI=1S/C5H5NO3/c1-4(7)8-5-2-3-6-9-5/h2-3H,1H3
