14
gdb 10001	2.73599	1.49025	1.02518	2.5966	62.27	-0.2603	-0.051	0.2093	1078.9582	0.105376	-415.884824	-415.87637	-415.875426	-415.91931	27.971	
N	 0.1242363275	 1.1846070183	 0.0794391309	-0.451624
C	-0.0477234363	-0.0711199622	 0.0987949653	 0.101012
N	-1.3095713893	-0.6651035298	-0.0029394715	-0.087741
C	-1.4245723073	-2.1149771579	 0.0656936099	-0.276145
C	-1.2645475083	-2.6486828769	 1.4835794034	 0.153927
O	-0.7540686422	-3.7044276159	 1.7432818847	-0.223962
C	-2.4619334229	 0.09343916	-0.189217673	 0.167005
O	-3.5640643733	-0.3932701997	-0.2862108041	-0.313859
H	 1.112636975	 1.4121176288	 0.1549109886	 0.241606
H	 0.7446056799	-0.8226138985	 0.1909656138	 0.117595
H	-2.4373712717	-2.3612958713	-0.2727701208	 0.181539
H	-0.7037936691	-2.6076261222	-0.5925589276	 0.143939
H	-1.6744256562	-1.9765592336	 2.2709176446	 0.098181
H	-2.2432949059	 1.1674776709	-0.2387444941	 0.148527
42.9387	71.2048	95.2396	176.1327	237.0623	258.36	327.1307	404.5759	455.832	608.8825	684.3795	752.955	812.2505	922.2035	1046.8608	1049.5567	1056.3994	1067.8894	1152.5782	1237.0687	1273.333	1334.6724	1390.7626	1413.2578	1423.903	1429.8629	1450.0759	1730.8881	1796.9367	1841.9304	2887.3081	3051.2016	3059.6026	3075.2605	3111.8221	3524.4925
N=CN(CC=O)C=O	N=CN(CC=O)C=O	
InChI=1S/C4H6N2O2/c5-3-6(4-8)1-2-7/h2-5H,1H2	InChI=1S/C4H6N2O2/c5-3-6(4-8)1-2-7/h2-5H,1H2
