16
gdb 127535	3.40839	1.52555	1.07547	3.5524	72.91	-0.2107	0.0203	0.2311	1083.9344	0.125896	-434.073099	-434.065002	-434.064058	-434.107784	28.468	
C	-0.0074596185	 1.4279668272	-0.1325226003	-0.322198
N	 0.0908884237	-0.0063876584	-0.0309499885	-0.095425
N	 0.0110952652	-0.8097504437	-1.1756191866	-0.367281
C	 0.1400897308	-1.9871476872	-0.6601539449	 0.420477
C	 0.2191184101	-3.4948715653	-0.7967915707	-0.368526
C	 0.3965327352	-3.4770806914	 0.7784939584	-0.168402
N	 0.2924061406	-2.0066002079	 0.6877613295	-0.135735
C	 0.2689544583	-0.6951243037	 1.173977098	 0.454504
O	 0.3692419765	-0.249517673	 2.2966134155	-0.437886
H	 0.7954426507	 1.8312108416	-0.7574650257	 0.136738
H	-0.9714887655	 1.7242704235	-0.5575683977	 0.136733
H	 0.0832170458	 1.8235077132	 0.8806612491	 0.165577
H	-0.689255403	-3.9856436783	-1.1502757483	 0.146869
H	 1.0791558697	-3.8747494563	-1.3508360165	 0.146897
H	-0.4122985596	-3.9396306545	 1.3474042772	 0.143795
H	 1.36358256	-3.8262235658	 1.1455907214	 0.143863
11.6443	112.2315	142.4336	187.4497	285.0539	319.6317	322.2065	581.0426	627.2265	638.8122	718.6506	721.1797	795.2978	835.1081	881.651	937.9084	985.1979	1056.4636	1095.6007	1140.759	1158.2734	1181.0915	1224.9914	1241.2074	1264.6463	1310.2794	1388.1069	1441.0075	1442.9941	1473.9024	1483.1671	1514.8866	1516.0669	1675.0252	1827.0395	3037.8951	3076.2855	3087.3158	3097.934	3129.9408	3145.0395	3149.1924
CN1N=C2CCN2C1=O	Cn1nc2CCn2c1=O	
InChI=1S/C5H7N3O/c1-7-5(9)8-3-2-4(8)6-7/h2-3H2,1H3	InChI=1S/C5H7N3O/c1-7-5(9)8-3-2-4(8)6-7/h2-3H2,1H3
