19
gdb 107506	2.50723	1.36174	0.98233	1.2372	79.42	-0.2277	0.0237	0.2514	1257.8385	0.158296	-419.159563	-419.150219	-419.149275	-419.19406	33.772	
C	-0.4266973397	 1.3511896334	 0.0489144577	-0.333838
N	 0.0712301299	-0.0282988152	 0.0911180866	-0.373378
C	 0.7709295514	-0.4292476998	-1.0658112468	 0.186456
C	 0.0275707764	-0.8475082501	-2.3424887441	-0.317161
C	 0.9815329979	-1.7917551803	-1.7055357645	 0.024789
O	 2.333394252	-1.4428518481	-2.0973950135	-0.293008
C	 2.2141500999	-0.210753109	-1.4293552187	 0.422862
N	 3.0734145357	 0.6586247777	-1.1721105727	-0.349893
C	 4.4414437771	 0.4702895073	-1.635942279	-0.340196
H	 0.3632212218	 2.1024356792	-0.0918960192	 0.129543
H	-1.1422192463	 1.448648793	-0.7735112516	 0.126212
H	-0.9550991504	 1.5664191993	 0.9818844002	 0.117996
H	 0.6539792879	-0.1592116999	 0.9112605921	 0.229228
H	-1.0232606028	-1.0499511243	-2.1591741209	 0.131877
H	 0.2682482303	-0.4049492743	-3.3037763826	 0.127284
H	 0.804203946	-2.7971228334	-1.3508281495	 0.127374
H	 5.1261473965	 0.6081354735	-0.792423504	 0.125458
H	 4.6269053478	-0.5107160107	-2.0881215929	 0.129452
H	 4.6812249085	 1.2461272915	-2.3717813866	 0.128943
78.9169	96.6249	119.696	161.5537	194.8011	214.6549	285.5197	311.2076	420.7651	464.3508	521.068	641.6045	726.5611	745.8063	769.64	864.9309	891.5701	925.6171	943.8027	1013.5315	1026.2694	1046.319	1065.4126	1083.5073	1091.4668	1132.7164	1155.9737	1169.2691	1197.7764	1244.5073	1276.5548	1401.4623	1439.2761	1454.2542	1480.993	1484.7277	1492.2071	1495.1219	1498.417	1525.3139	1847.8847	3003.0718	3018.7042	3078.4474	3083.2767	3090.922	3112.7201	3125.1553	3219.6671	3226.3648	3523.9533
CNC12CC1OC2=NC	CN[C@]12C[C@H]1OC2=NC	
InChI=1S/C6H10N2O/c1-7-5-6(8-2)3-4(6)9-5/h4,8H,3H2,1-2H3	InChI=1S/C6H10N2O/c1-7-5-6(8-2)3-4(6)9-5/h4,8H,3H2,1-2H3/t4-,6-/m1/s1
