21
gdb 61600	3.22537	0.82887	0.71725	2.0469	85.12	-0.2526	0.0595	0.3121	1605.9917	0.179763	-387.038796	-387.028484	-387.027539	-387.074507	38.252	
C	 0.2170867952	 1.6160008868	-0.0306416609	-0.382964
C	 0.0338874176	 0.0865893951	 0.0337832639	-0.164264
C	 0.5924898208	-0.6471997215	-1.2128106478	-0.190654
C	-0.1256172653	-0.2945723308	-2.4997004651	-0.022975
C	 0.3713980264	 0.8175937063	-3.4096089348	-0.323208
C	 0.492308819	-0.6257406723	-3.8277886935	 0.078967
O	 1.7430818537	-1.2518502271	-3.7992903309	-0.416745
C	 0.6425095561	-0.4549445222	 1.2486119892	 0.317424
C	 1.1655530223	-0.8967599041	 2.2371964526	-0.461953
H	 1.2788556777	 1.8729302784	-0.0981039916	 0.12104
H	-0.2943957904	 2.0276489056	-0.9038008422	 0.123453
H	-0.18811499	 2.0906839956	 0.8668173787	 0.12222
H	-1.0454938986	-0.1199702569	 0.0823059186	 0.100453
H	 1.6619212288	-0.4386677624	-1.309956187	 0.114314
H	 0.5089459258	-1.725988401	-1.0386576832	 0.112824
H	-1.2057351152	-0.4182657707	-2.455204108	 0.084416
H	-0.3471394173	 1.4552419258	-3.9137902532	 0.109199
H	 1.2915071263	 1.3124967755	-3.1158180115	 0.115064
H	-0.1738297573	-0.9811430977	-4.6142074267	 0.084823
H	 2.2673694951	-0.9005904195	-4.5262798101	 0.28845
H	 1.616803109	-1.2907107926	 3.1136618934	 0.190117
47.6652	80.0246	101.4147	185.2378	207.8183	237.1724	280.3383	287.9298	307.8903	390.6494	457.8413	496.7693	533.7697	588.5965	623.2818	631.0672	768.8008	817.4972	831.8218	874.3141	896.038	932.9981	979.0664	1001.4816	1045.3851	1071.6494	1099.026	1126.7949	1137.7323	1172.8334	1177.3858	1239.1022	1246.2158	1298.4082	1302.1535	1336.172	1359.658	1399.4092	1408.604	1426.4881	1482.8393	1488.6336	1496.3262	1500.3398	2232.9955	2994.9118	3043.4731	3045.15	3091.8738	3093.5916	3115.9852	3125.8275	3128.9777	3129.8372	3215.409	3505.9976	3808.2858
CC(CC1CC1O)C#C	C[C@@H](C[C@H]1C[C@H]1O)C#C	
InChI=1S/C8H12O/c1-3-6(2)4-7-5-8(7)9/h1,6-9H,4-5H2,2H3	InChI=1S/C8H12O/c1-3-6(2)4-7-5-8(7)9/h1,6-9H,4-5H2,2H3/t6-,7+,8-/m1/s1
