18
gdb 22476	3.66559	0.65396	0.57523	1.65	85.76	-0.2358	-0.0348	0.201	1930.8658	0.145024	-439.014688	-439.004252	-439.003308	-439.051661	36.503	
C	 0.0253584508	 1.4848907204	 0.1952516766	-0.365589
C	-0.0873262542	-0.0432396754	 0.043624927	-0.326322
C	-1.465487706	-0.5115891803	-0.0218466288	 0.216596
C	-2.6206500021	-0.860060784	-0.0723175927	-0.074398
C	-3.942553659	-1.3747570331	-0.1365554276	 0.18313
C	-4.1454314834	-2.8894249821	-0.1675961276	-0.149184
O	-4.9573090444	-3.3581710581	 0.8867852902	-0.411351
N	-4.9098986775	-0.5244301249	-0.1729415269	-0.169413
O	-6.150860927	-1.1839703532	-0.2685825366	-0.410541
H	 1.0764962522	 1.7839809298	 0.2402625143	 0.117704
H	-0.4440545098	 1.9944393353	-0.6501867406	 0.13339
H	-0.469955933	 1.8213421147	 1.1096518308	 0.134159
H	 0.4448812278	-0.3654802967	-0.8610491213	 0.135689
H	 0.4210293028	-0.5375448893	 0.881705659	 0.13694
H	-4.5588433459	-3.1533650875	-1.1543137701	 0.112929
H	-3.1761982311	-3.3811914939	-0.067405721	 0.12331
H	-5.8042636585	-2.9061745574	 0.7918135309	 0.297186
H	-6.7742014318	-0.4502813842	-0.2608256755	 0.315764
25.3769	69.2539	84.9222	143.8983	181.5826	223.5427	251.2803	318.4027	321.1206	416.504	439.2136	462.609	489.3667	499.6357	571.901	618.9535	783.6449	814.1166	874.4949	957.5438	989.8582	1039.5037	1083.3915	1092.1916	1101.3634	1215.5224	1281.8733	1283.3826	1347.1699	1366.5681	1403.5489	1411.0084	1453.4892	1469.9543	1490.4598	1494.5932	1505.0514	1665.1638	2343.3412	2978.5038	3019.0258	3046.0675	3047.812	3113.9351	3122.1191	3128.5565	3790.3328	3827.0632
CCC#CC(CO)=NO	CCC#CC(=NO)CO	
InChI=1S/C6H9NO2/c1-2-3-4-6(5-8)7-9/h8-9H,2,5H2,1H3	InChI=1S/C6H9NO2/c1-2-3-4-6(5-8)7-9/h8-9H,2,5H2,1H3
