16
gdb 26593	2.38075	1.85064	1.048	2.4322	78.73	-0.1992	-0.0311	0.1681	1090.6086	0.124918	-437.934794	-437.926761	-437.925816	-437.967488	30.468	
C	-0.0343257344	 1.533071873	-0.0390874136	-0.49867
C	-0.0059501808	 0.0311211971	-0.0529553936	 0.164292
C	-1.1265087808	-0.7225866884	 0.0873691481	 0.231421
O	-2.3618427439	-0.211536593	 0.2512617212	-0.429602
C	-1.0756429241	-2.1809933843	 0.0708524717	 0.335231
N	-2.16256064	-2.8374826837	 0.2076258529	-0.590211
O	 0.141572616	-2.7776875197	-0.0914135282	-0.227352
C	 1.2682156698	-2.020850781	-0.2325976976	 0.036387
C	 1.2392211873	-0.6809266441	-0.2196241949	-0.220471
H	 0.5938664765	 1.9286636957	 0.767860901	 0.132708
H	 0.357947438	 1.9404354407	-0.9785296964	 0.132889
H	-1.0499713102	 1.9047955785	 0.1004203502	 0.152392
H	-2.9446923109	-0.9929497587	 0.3219711858	 0.307957
H	-2.0213552252	-3.844326159	 0.182478323	 0.228766
H	 2.1456033715	-2.6406751787	-0.3508173753	 0.135506
H	 2.1664995611	-0.1331462144	-0.3362796344	 0.108757
79.2384	131.0365	178.9034	279.8224	290.8426	340.1766	483.0149	500.82	528.2251	549.3546	580.3675	628.5631	693.7114	764.1487	775.5281	798.9801	846.2149	899.7348	966.2094	1006.2059	1057.3934	1072.3488	1105.4623	1237.2432	1266.081	1286.9868	1349.6555	1405.7142	1434.9118	1454.8189	1488.4585	1491.0983	1628.455	1695.9224	1730.2161	3027.8649	3075.2841	3146.919	3204.4245	3242.6348	3530.0643	3579.3915
CC1=C(O)C(=N)OC=C1	C[C@H]1C(=C([NH])OC=C1)O	
InChI=1S/C6H7NO2/c1-4-2-3-9-6(7)5(4)8/h2-3,7-8H,1H3	InChI=1S/C6H8NO2/c1-4-2-3-9-6(7)5(4)8/h2-4,7-8H,1H3/t4-/m1/s1
