18
gdb 47658	2.40122	1.68457	1.15167	1.4871	72.79	-0.2471	-0.0364	0.2107	1069.3886	0.148779	-439.095123	-439.08702	-439.086076	-439.128114	30.398	
O	 0.082536996	-0.0291503017	-0.3952729973	-0.293384
C	 0.0034420696	 1.1519179666	-0.1533533835	 0.379162
C	-1.3382014413	 1.852850014	 0.0359609988	-0.294546
C	-1.881291519	 1.8376141816	 1.4834503432	-0.195782
C	-0.9304739182	 2.4222443375	 2.5478994303	-0.168022
N	-0.4237950234	 3.7270131108	 2.1261901243	-0.198439
C	 0.6418907316	 3.7385626813	 1.4561234704	 0.091407
O	 1.4299883643	 2.6375035329	 1.2061996554	-0.228546
C	 1.28513046	 2.0037712063	-0.0656652831	-0.175521
H	-1.263981982	 2.8893073058	-0.3075314364	 0.115957
H	-2.0550489195	 1.3325959111	-0.605436308	 0.127316
H	-2.8202075286	 2.4004307835	 1.4849457794	 0.117203
H	-2.1196372475	 0.8076344629	 1.7688784686	 0.121563
H	-1.4871966817	 2.5575922093	 3.4793792233	 0.110057
H	-0.1145874157	 1.7160001595	 2.7396758754	 0.119186
H	 1.0486969744	 4.6737493686	 1.0645784363	 0.117617
H	 2.1436208927	 1.3413712591	-0.1832168945	 0.140698
H	 1.2869376683	 2.7495005509	-0.8761876327	 0.114074
60.4839	153.8083	176.8118	218.4339	283.9975	317.8516	398.5086	464.6695	508.4992	579.4956	639.5762	687.5241	764.8436	838.7264	866.8494	918.7088	926.8473	975.8289	990.2506	1052.3295	1059.7728	1096.7293	1130.2667	1157.6223	1229.67	1232.617	1281.3775	1296.0544	1339.7348	1361.1675	1375.8021	1380.5326	1393.8786	1472.2274	1477.4678	1485.5619	1512.3399	1730.2277	1813.438	2988.6597	3035.5727	3046.625	3053.4224	3084.1919	3096.1687	3107.9304	3111.3308	3132.0908
O=C1CCCN=COC1	O=C1CCCN=COC1	
InChI=1S/C6H9NO2/c8-6-2-1-3-7-5-9-4-6/h5H,1-4H2/b7-5-	InChI=1S/C6H9NO2/c8-6-2-1-3-7-5-9-4-6/h5H,1-4H2/b7-5-
