20
gdb 98597	3.00042	1.04122	1.00277	1.1208	78.39	-0.2251	0.0013	0.2264	1330.3109	0.168826	-440.287479	-440.277301	-440.276357	-440.322857	35.983	
C	 0.447869926	 1.3683074392	-0.1964724724	-0.240916
O	 0.1990126141	-0.0397837424	-0.2728557473	-0.235286
C	-0.718060505	-0.5122029505	 0.6000426036	 0.459344
O	-1.3075376141	 0.1995018246	 1.3828842597	-0.380681
C	-0.8643962509	-1.9842145212	 0.419993932	-0.159771
C	-1.0837772027	-2.8906203417	 1.6151386055	 0.01114
C	-1.1470225747	-2.3947106002	 3.0430897438	-0.432713
N	-2.1324141795	-2.6935369658	 0.6389039357	-0.104556
C	-3.3614465496	-1.9792468105	 0.9750121609	-0.326535
H	 1.2089580792	 1.5758951073	-0.948652456	 0.133807
H	-0.4634717005	 1.9334002134	-0.4080812236	 0.140926
H	 0.8069343818	 1.6447540433	 0.7982492939	 0.139873
H	-0.2827836201	-2.3614200013	-0.4158569962	 0.104611
H	-0.6090407906	-3.868087166	 1.5192183973	 0.097143
H	-1.456278264	-1.3524021632	 3.1102543996	 0.161294
H	-1.8432812779	-3.0111433433	 3.6225483877	 0.121841
H	-0.1604010486	-2.4909414874	 3.5081058801	 0.120883
H	-3.2309919965	-1.0928631955	 1.6019201615	 0.145808
H	-3.842646552	-1.6721291554	 0.0412377398	 0.123168
H	-4.0291605745	-2.6854583033	 1.4782310643	 0.12062
55.3349	111.3158	144.8496	159.7154	174.1855	187.1691	222.059	248.9074	310.8093	362.0736	401.5707	453.4925	513.9171	690.8457	739.6997	793.3356	800.3007	886.1837	942.9433	1016.8379	1050.073	1054.0967	1118.5801	1140.1112	1162.1273	1169.6233	1179.2364	1196.6761	1203.6497	1220.0527	1350.6283	1390.16	1409.6547	1423.055	1453.1209	1473.8667	1480.883	1483.3122	1496.8692	1499.5084	1501.0562	1521.8669	1787.8887	3034.4388	3040.5469	3050.8918	3090.054	3095.126	3103.3839	3112.3149	3124.4023	3151.423	3158.6854	3163.2346
COC(=O)C1C(C)N1C	COC(=O)[C@H]1[C@@H](C)N1C	
InChI=1S/C6H11NO2/c1-4-5(7(4)2)6(8)9-3/h4-5H,1-3H3	InChI=1S/C6H11NO2/c1-4-5(7(4)2)6(8)9-3/h4-5H,1-3H3/t4-,5-,7?/m1/s1
