15
gdb 85495	2.49432	1.45585	1.08886	4.0396	66.88	-0.2659	0.0031	0.269	1093.3059	0.111123	-457.761813	-457.753421	-457.752477	-457.795033	30.951	
O	 0.2362342278	 1.1445451243	-0.6558007526	-0.420647
C	 0.0654746367	-0.0706889729	 0.0268074272	 0.107439
C	 0.3561691721	-0.0652253336	 1.5301863547	-0.405935
C	-0.5712180665	-1.1516624881	 2.0580968928	 0.436894
O	-0.5157505525	-1.7561274864	 3.0854163182	-0.323278
O	-1.549332994	-1.3906967606	 1.1292881292	-0.211301
C	-1.4311349651	-0.4852278262	 0.0095427509	-0.127834
C	-2.3528542701	 0.6361396421	 0.1526430211	 0.395303
C	-3.1293680659	 1.5435809136	 0.2757680084	-0.472025
H	 1.1790267576	 1.3089737675	-0.7540860438	 0.29508
H	 0.6320396289	-0.8815345861	-0.4537165532	 0.093395
H	 1.3892017093	-0.2721589744	 1.8115229516	 0.135238
H	 0.0581497755	 0.8973097883	 1.9607518258	 0.157208
H	-1.6777264734	-1.0587917913	-0.8874617735	 0.130728
H	-3.8141227903	 2.3487683138	 0.3827656733	 0.209735
85.0626	116.0269	146.9171	227.2833	253.3322	310.7064	391.7427	477.2272	512.4027	523.9459	587.2481	645.0087	666.3377	678.4647	729.3846	840.4742	855.2617	932.3759	1028.7345	1035.5601	1089.7706	1139.724	1147.8258	1168.9706	1233.9816	1254.7189	1313.6894	1364.936	1373.6413	1433.5211	1462.6506	1896.0706	2243.2096	2998.217	3062.8977	3082.834	3135.7228	3501.6997	3829.8974
OC1CC(=O)OC1C#C	O[C@H]1CC(=O)O[C@H]1C#C	
InChI=1S/C6H6O3/c1-2-5-4(7)3-6(8)9-5/h1,4-5,7H,3H2	InChI=1S/C6H6O3/c1-2-5-4(7)3-6(8)9-5/h1,4-5,7H,3H2/t4-,5-/m0/s1
