17
gdb 65052	2.31891	1.50993	1.24875	3.6672	72.5	-0.2657	0.0036	0.2694	1075.2421	0.134811	-417.968812	-417.960061	-417.959117	-418.002326	32.335	
C	 0.0696180671	 0.9113748412	-1.2531036172	-0.484988
C	-0.0035752682	-0.0016928412	-0.047243621	 0.214662
C	 1.2067341695	-0.734077476	 0.4090676135	-0.267131
N	 0.6653928703	 0.3863564833	 1.1999358736	-0.34832
C	-1.3566901792	-0.6434685499	 0.1584322862	 0.237924
C	-1.9636305061	-0.7778156026	 1.4966864577	-0.208426
O	-2.4101659494	 0.2266614551	 0.5859210003	-0.267079
C	-1.739201183	-1.5930053291	-0.8762707522	 0.264771
N	-2.0056636897	-2.3465555441	-1.7110940413	-0.335067
H	 1.0784127617	 1.3185664327	-1.369451987	 0.118281
H	-0.1858191967	 0.3733891609	-2.1716687351	 0.150623
H	-0.6326148322	 1.7439487494	-1.1429475957	 0.146406
H	 1.1136593226	-1.7086832698	 0.8797019031	 0.127488
H	 2.1238333425	-0.5871300164	-0.1546422459	 0.123795
H	 1.2119479478	 1.2301200482	 1.0476160812	 0.238594
H	-2.6679920202	-1.5867454999	 1.6791448335	 0.132926
H	-1.382488327	-0.4166600019	 2.3399039561	 0.155541
59.755	134.973	180.2214	215.71	242.7987	272.5585	323.3791	373.2421	432.6637	493.1261	550.1275	596.9004	613.9954	808.4238	861.7387	880.3495	896.9178	935.8186	957.1267	982.83	1009.0806	1059.5576	1121.2185	1138.2313	1154.3918	1174.4031	1191.7274	1262.4519	1313.6718	1364.0823	1402.5221	1416.1763	1482.7238	1500.3436	1504.8951	1514.6703	2357.4523	3036.427	3104.2197	3108.178	3112.1124	3113.4974	3199.7998	3214.1269	3506.448
CC1(CN1)C1(CO1)C#N	C[C@]1(CN1)[C@]1(CO1)C#N	
InChI=1S/C6H8N2O/c1-5(3-8-5)6(2-7)4-9-6/h8H,3-4H2,1H3	InChI=1S/C6H8N2O/c1-5(3-8-5)6(2-7)4-9-6/h8H,3-4H2,1H3/t5-,6+/m0/s1
