19
gdb 17495	2.9524	2.391	1.62896	1.7921	75.02	-0.1985	0.083	0.2815	864.6905	0.164889	-327.851065	-327.843352	-327.842407	-327.882319	30.76	
C	-0.0263601913	 1.55012031	 0.1234751708	-0.496497
C	 0.0247644622	 0.0522570385	 0.0302453232	 0.316806
C	-0.899309899	-0.8701899466	 0.782534037	-0.339927
C	 0.5884549355	-0.9612086415	 1.0198583024	-0.109459
C	 1.3240143468	-1.6711973859	-0.1485588518	-0.112846
N	 0.3155262774	-2.1141093118	-1.1532085099	-0.377516
C	 0.7872607162	-0.7039598231	-1.1253807583	 0.286418
C	 1.394547386	-0.0476170827	-2.3255497728	-0.511706
H	 0.9564417777	 2.0063413631	-0.0447523925	 0.113117
H	-0.7201540657	 1.9792034843	-0.6103343357	 0.118135
H	-0.3658983985	 1.8612848855	 1.1167489861	 0.118313
H	-1.4489633092	-0.3866255608	 1.5853646742	 0.098737
H	-1.4248191779	-1.6722041451	 0.2808439593	 0.138221
H	 1.0451876465	-0.774170922	 1.9836486071	 0.082699
H	 2.2966347987	-2.1444375134	-0.0920874949	 0.086994
H	 0.831389574	-2.5797965808	-1.9002952772	 0.219991
H	 0.6299688665	 0.2273294681	-3.0624729091	 0.127138
H	 1.9356418217	 0.8644915572	-2.0533079545	 0.126253
H	 2.1059182221	-0.721031693	-2.8165553633	 0.11513
154.3627	197.3913	211.7534	246.811	296.7076	369.4941	425.474	446.6611	536.2671	595.252	635.465	769.6058	795.5292	841.3876	865.4381	881.5317	920.4423	941.9845	964.7746	987.0789	1016.9748	1030.5249	1060.1108	1097.8428	1107.0565	1115.33	1153.5177	1206.6751	1247.4539	1284.4262	1329.4869	1365.4645	1405.5268	1419.5331	1441.5971	1470.7191	1479.0253	1489.9203	1497.3194	1503.5324	3014.8182	3021.3775	3069.0737	3081.4752	3092.7534	3096.7549	3131.4248	3181.8639	3192.5781	3228.9279	3461.2898
CC12CC1C1NC21C	C[C@]12C[C@H]1[C@H]1N[C@@]21C	
InChI=1S/C7H11N/c1-6-3-4(6)5-7(6,2)8-5/h4-5,8H,3H2,1-2H3	InChI=1S/C7H11N/c1-6-3-4(6)5-7(6,2)8-5/h4-5,8H,3H2,1-2H3/t4-,5+,6-,7+/m0/s1
