19
gdb 78513	2.50395	1.74052	1.19452	2.299	75.71	-0.2228	0.0739	0.2967	1075.5044	0.156774	-422.947708	-422.939079	-422.938135	-422.980221	33.795	
C	 0.0642315752	 1.4151063245	-0.1730148065	-0.529792
C	 0.0033198923	-0.069334029	-0.0268555874	 0.477029
O	 0.5514304254	-0.914408647	-1.0896052092	-0.390539
C	 0.0564921572	-1.8659303331	-0.0957999851	 0.458645
C	 0.2087367625	-3.329178342	-0.3604618069	-0.527214
C	 0.5082826781	-1.0027021242	 1.1285127147	-0.206109
C	-0.8839603745	-1.0762443414	 1.7622872898	 0.098963
O	-1.2037959661	 0.0453453734	 2.558658437	-0.441081
C	-1.2121867122	-1.0205466232	 0.2551234356	-0.239568
H	 1.1025644823	 1.7478885689	-0.2693586317	 0.129934
H	-0.4831073548	 1.7360123096	-1.0651414895	 0.127201
H	-0.3793309829	 1.8844485877	 0.7082346742	 0.144311
H	 1.2654821687	-3.5888295846	-0.4768623352	 0.135547
H	-0.2024322278	-3.9146770109	 0.4678463788	 0.126308
H	-0.3176371388	-3.6095919724	-1.278072752	 0.134416
H	 1.4904420706	-0.9924042955	 1.6013515945	 0.078676
H	-1.1319736215	-2.0157690067	 2.2751137037	 0.06665
H	-2.1396049513	 0.0018566848	 2.7787811184	 0.283888
H	-2.1717830226	-1.0330132291	-0.2642083533	 0.072738
166.1833	193.3691	208.3809	217.9482	228.9477	270.9928	290.6546	365.4993	405.9516	556.4137	560.3497	592.0015	675.9004	731.6131	757.7611	794.3018	849.1089	881.7643	921.9062	927.0346	1016.9139	1057.7413	1073.8703	1081.2631	1107.163	1114.5075	1123.5104	1173.0692	1199.6557	1218.2637	1257.7089	1277.6679	1309.9415	1387.8536	1406.8262	1429.8547	1448.3837	1474.081	1482.5435	1489.1475	1493.5342	3005.3388	3038.0531	3040.3412	3106.4431	3106.7498	3110.7488	3113.0769	3121.3946	3135.0663	3818.822
CC12OC3(C)C1C(O)C23	C[C@@]12O[C@@]3(C)[C@@H]1[C@@H](O)[C@@H]23	
InChI=1S/C7H10O2/c1-6-4-3(8)5(6)7(4,2)9-6/h3-5,8H,1-2H3	InChI=1S/C7H10O2/c1-6-4-3(8)5(6)7(4,2)9-6/h3-5,8H,1-2H3/t3-,4-,5+,6-,7+
