16
gdb 127345	6.85266	0.84387	0.75492	4.4966	78.67	-0.2123	0.0066	0.2189	1459.9585	0.12691	-430.281783	-430.273371	-430.272427	-430.315448	29.69	
C	-0.0592890318	 1.4947528302	 0.2687927861	-0.318426
N	 0.0492304224	 0.0791984628	 0.0022199978	 0.057483
C	 0.4106624361	-0.5587919415	-1.1209475734	 0.01164
N	 0.3823856023	-1.8703108586	-0.9512898214	-0.34054
C	-0.0189884666	-1.9801500574	 0.345573862	 0.488784
N	-0.1929207383	-3.1893494019	 0.9772504906	-0.369474
C	 0.0089985173	-4.4226292895	 0.4022070177	 0.091074
N	-0.1800471913	-5.4884411721	 1.0734302524	-0.482048
N	-0.236798422	-0.8324279741	 0.9768463067	-0.365301
H	 0.6148800597	 1.7785448809	 1.0811882628	 0.156158
H	 0.2109927951	 2.0435593915	-0.6351221234	 0.143763
H	-1.083735297	 1.7475692133	 0.5544863762	 0.156178
H	 0.683345647	-0.0416097639	-2.0289539841	 0.145457
H	-0.4931442818	-3.1730601776	 1.9410674554	 0.267448
H	 0.3314658763	-4.3470022992	-0.6387754585	 0.133169
H	 0.0149896226	-6.3026199329	 0.4952268532	 0.224635
68.4182	117.317	148.3629	149.7555	186.0002	322.3984	345.9149	441.1081	502.3183	597.2676	631.6785	716.3237	770.5763	811.3552	847.2291	850.8083	1020.0449	1037.7325	1076.0956	1083.6579	1129.9158	1154.6628	1236.4305	1313.6444	1327.4478	1348.1231	1391.168	1423.7523	1454.347	1471.0643	1474.6786	1522.9111	1545.0138	1632.8628	1735.208	3051.148	3111.7575	3119.6008	3146.2409	3253.7485	3515.0927	3623.8741
CN1C=NC(NC=N)=N1	Cn1cnc(NC=N)n1	
InChI=1S/C4H7N5/c1-9-3-7-4(8-9)6-2-5/h2-3H,1H3,(H2,5,6,8)	InChI=1S/C4H7N5/c1-9-3-7-4(8-9)6-2-5/h2-3H,1H3,(H2,5,6,8)
