18
gdb 57345	1.76092	1.64357	1.05033	2.9883	72.95	-0.2699	-0.0519	0.218	1188.7606	0.143474	-439.110675	-439.100374	-439.09943	-439.146134	36.789	
C	-0.0357525525	 1.5615087451	 0.0407752888	-0.437934
C	-0.0084573694	 0.0295080236	 0.0198957014	 0.315131
C	 0.7075225983	-0.5220753719	 1.2536767969	-0.407678
O	-1.3244353771	-0.5057407348	 0.0545215495	-0.455073
C	 0.7158844829	-0.4799111774	-1.2903551355	-0.23729
C	 0.8109453753	-2.0148573003	-1.2964903688	 0.166091
O	 1.851872927	-2.6028799245	-1.1968684603	-0.238388
C	-0.031871139	-0.0471421028	-2.4676021516	 0.25508
N	-0.6703825527	 0.2759490516	-3.3763025259	-0.321115
H	 0.9758744116	 1.9775137706	 0.07014062	 0.126707
H	-0.5407633973	 1.9632906986	-0.8435988486	 0.13897
H	-0.575030253	 1.8984498838	 0.9301967687	 0.135243
H	 0.2338627316	-0.1220826256	 2.1533796661	 0.132692
H	 0.643599998	-1.6118386112	 1.2941129417	 0.141737
H	 1.7630762432	-0.2369755925	 1.2559200419	 0.127773
H	-1.8568423789	-0.0563667338	-0.613065042	 0.296216
H	 1.7359168352	-0.086521299	-1.3314874151	 0.141322
H	-0.1647352032	-2.5315712794	-1.3767416272	 0.120517
53.2635	69.7274	139.8897	171.7612	210.2164	233.0063	262.1065	313.0779	340.6532	382.2746	393.2403	422.4223	472.7952	482.0464	539.8074	596.3763	781.3387	868.6574	937.8087	948.1864	980.2521	1004.9828	1043.0476	1058.0795	1142.015	1172.6104	1204.287	1260.3537	1295.0972	1378.5942	1407.2317	1411.9674	1427.5409	1475.3068	1487.5381	1497.8202	1508.7471	1837.1517	2347.0898	2954.1188	3039.5771	3054.5367	3081.9174	3112.292	3122.4229	3132.2251	3133.7729	3788.5263
CC(C)(O)C(C=O)C#N	CC(C)(O)[C@@H](C=O)C#N	
InChI=1S/C6H9NO2/c1-6(2,9)5(3-7)4-8/h4-5,9H,1-2H3	InChI=1S/C6H9NO2/c1-6(2,9)5(3-7)4-8/h4-5,9H,1-2H3/t5-/m1/s1
