16
gdb 84414	3.05447	1.31147	1.01397	3.4528	72.35	-0.2221	-0.0301	0.192	1156.4685	0.123195	-437.935614	-437.926971	-437.926027	-437.969583	30.48	
C	 0.0557344372	 1.4576374961	-0.1235269274	-0.354397
N	 0.0130078975	 0.0133809841	-0.0518877471	-0.084766
C	-0.0053911618	-0.869074784	-1.1474853738	-0.025726
C	-0.0204449751	-2.1487831851	-0.7640865542	-0.150515
C	-0.0084667751	-2.1818692053	 0.7365598736	-0.278618
C	 1.1348503991	-2.9409593256	 1.4046463688	 0.152651
O	 1.8425661179	-3.7330179872	 0.8441308771	-0.236251
C	 0.0223706206	-0.6904250485	 1.1358946821	 0.399058
O	 0.0636969677	-0.2237813915	 2.2534572316	-0.385225
H	 0.95400203	 1.8028668341	-0.6471129273	 0.136997
H	-0.8268891117	 1.8556572262	-0.6357940771	 0.135539
H	 0.0737936157	 1.8312931013	 0.901576294	 0.171599
H	-0.0044143639	-0.4541617506	-2.1457919179	 0.133758
H	-0.0085816939	-3.0145036068	-1.4055763275	 0.127974
H	-0.9287681951	-2.604747322	 1.1695834294	 0.147041
H	 1.247579401	-2.6980000652	 2.4822018257	 0.110879
61.9714	122.1863	132.6888	143.9835	203.636	265.4871	297.1415	430.9018	495.9414	601.7886	661.1732	690.7992	723.0917	767.2164	799.7077	911.5186	934.421	990.8644	1015.9759	1069.9931	1098.2037	1145.3619	1155.1984	1198.2745	1238.5237	1300.7306	1332.0766	1405.1116	1415.1927	1457.9006	1494.6105	1511.8891	1668.2032	1805.7655	1837.1169	2919.5227	3001.199	3029.116	3085.211	3146.933	3234.2857	3275.5681
CN1C=CC(C=O)C1=O	CN1C=C[C@@H](C=O)C1=O	
InChI=1S/C6H7NO2/c1-7-3-2-5(4-8)6(7)9/h2-5H,1H3	InChI=1S/C6H7NO2/c1-7-3-2-5(4-8)6(7)9/h2-5H,1H3/t5-/m0/s1
