20
gdb 15722	2.79562	1.90527	1.33053	2.4207	71.39	-0.2358	0.0754	0.3112	999.8258	0.176647	-386.139637	-386.130906	-386.129962	-386.173226	31.499	
C	 0.2298935654	 1.2802664771	 0.2759880339	-0.234884
O	 0.051996049	-0.0985168843	 0.0538307348	-0.244829
C	 0.5589636196	-0.5587047143	-1.1866456504	 0.098603
C	 2.0732227292	-0.8194682606	-1.1303415876	-0.259565
C	 2.1213565743	-2.1826265042	-0.4313272341	-0.054406
O	 0.9426484208	-2.8761498787	-0.8336543572	-0.281928
C	 0.021578018	-1.9751439347	-1.4607978981	 0.137696
C	-1.3889595808	-2.2588271506	-0.9694817391	-0.395383
H	 1.2904696012	 1.5683820254	 0.3282227717	 0.105262
H	-0.2488421679	 1.8818813526	-0.5128058975	 0.104826
H	-0.2404939292	 1.5159928923	 1.2337462252	 0.129513
H	 0.2746893874	 0.1386091733	-1.9882764349	 0.061257
H	 2.4742030836	-0.8868361399	-2.1472828877	 0.105626
H	 2.6248778085	-0.0405797502	-0.5991880705	 0.103575
H	 2.9980544838	-2.7770823212	-0.7109622286	 0.098298
H	 2.123756755	-2.0592792212	 0.6606973878	 0.099724
H	 0.0650871916	-2.1363061878	-2.5507244114	 0.06548
H	-1.4691395322	-2.0576614368	 0.0995551575	 0.136127
H	-2.1136421739	-1.6317221787	-1.4991217184	 0.105762
H	-1.6390313634	-3.3066392274	-1.1560643854	 0.119247
62.314	98.3058	146.1104	193.6455	220.3188	234.3311	316.5164	365.981	437.9402	516.3364	669.4435	717.4851	820.9882	866.8342	890.5582	914.4633	953.6087	1000.725	1031.572	1057.7605	1111.3922	1129.1474	1145.4399	1170.9756	1183.8176	1204.8876	1222.8453	1235.064	1291.4147	1323.533	1358.5897	1383.8152	1388.4007	1397.8976	1408.3399	1476.2672	1480.9631	1485.9058	1492.5786	1494.2738	1510.8317	1525.731	2957.1595	2973.629	2998.4572	3004.4295	3021.2044	3046.7698	3049.1626	3064.3991	3111.7994	3113.1232	3113.7411	3147.9736
COC1CCOC1C	CO[C@H]1CCO[C@H]1C	
InChI=1S/C6H12O2/c1-5-6(7-2)3-4-8-5/h5-6H,3-4H2,1-2H3	InChI=1S/C6H12O2/c1-5-6(7-2)3-4-8-5/h5-6H,3-4H2,1-2H3/t5-,6-/m0/s1
