19
gdb 117441	6.2065	0.54173	0.50437	1.2597	78.74	-0.2487	-0.0177	0.2309	2099.7172	0.155062	-423.00862	-422.99775	-422.996806	-423.046559	37.24	
O	-0.2045871187	 1.48968646	 0.0122614659	-0.424248
C	 0.0169696245	 0.0872684993	 0.0021841688	-0.073933
C	-1.3505097067	-0.580191135	 0.0120732012	-0.281822
C	-1.2802528636	-2.0969868245	 0.0029455956	 0.36187
O	-0.223786351	-2.6906528893	-0.0104312359	-0.301851
C	-2.6126220522	-2.8341667823	 0.0115698657	-0.291944
C	-2.447738685	-4.3622734792	 0.0023872156	-0.35801
C	-3.7284194584	-5.0573879822	 0.0105285886	 0.284669
C	-4.7971822077	-5.6074604233	 0.0174744264	-0.428994
H	 0.6517565626	 1.9268346918	 0.0062617175	 0.28835
H	 0.5763961862	-0.2317205146	-0.8885900704	 0.102725
H	 0.5940031959	-0.2416434118	 0.8779869708	 0.102745
H	-1.9200077247	-0.253293323	 0.8920236069	 0.132383
H	-1.9374252257	-0.2435387958	-0.8526179002	 0.132361
H	-3.18646578	-2.5131227394	 0.8900502844	 0.135567
H	-3.202408259	-2.5044363906	-0.8530352651	 0.135599
H	-1.8628750094	-4.656610235	-0.8760320121	 0.145475
H	-1.8470672848	-4.66540453	 0.8670470716	 0.145443
H	-5.7327161822	-6.1092786452	 0.0233467947	 0.193613
33.2964	50.0319	74.5804	84.4717	104.0763	177.0218	257.449	276.0074	322.465	343.637	405.646	474.2196	513.5895	620.3484	641.7592	688.5835	711.0744	803.1392	883.0959	951.1243	958.4782	1000.4512	1052.5267	1068.425	1088.0111	1109.3219	1174.3103	1220.658	1252.4501	1291.7364	1295.8819	1313.4625	1352.1084	1386.9383	1444.706	1453.297	1468.7353	1471.3702	1522.8366	1797.2258	2240.219	2997.3387	3025.1377	3027.6153	3036.9986	3048.3847	3058.1215	3067.6105	3083.9694	3507.8241	3832.5649
OCCC(=O)CCC#C	OCCC(=O)CCC#C	
InChI=1S/C7H10O2/c1-2-3-4-7(9)5-6-8/h1,8H,3-6H2	InChI=1S/C7H10O2/c1-2-3-4-7(9)5-6-8/h1,8H,3-6H2
