20
gdb 85555	2.81904	1.30113	0.92255	3.3112	83.59	-0.2082	0.0014	0.2096	1276.8455	0.171732	-403.212922	-403.203995	-403.20305	-403.246335	34.257	
C	-0.0199948649	 1.5839476353	-0.063208612	-0.404571
C	 0.0434092701	 0.0530818393	 0.0341971834	-0.093673
C	 0.6885149801	-0.5282135889	-1.2384288506	-0.320246
C	 0.969476117	-2.0220687432	-1.1875018704	 0.388013
O	 0.9325903748	-2.7603314907	-2.1508700099	-0.365919
N	 1.3392136332	-2.4660759287	 0.0614237014	-0.334451
C	 1.3378116533	-1.6702183814	 1.2143836487	-0.069902
C	 0.7649398897	-0.4632822208	 1.2715898985	 0.268423
C	 0.7483751247	 0.3279902108	 2.5485734514	-0.487903
H	 0.9852329155	 2.0177311675	-0.1106511931	 0.117772
H	-0.5562596939	 1.8848233924	-0.9687368134	 0.11802
H	-0.5386679187	 2.0262120937	 0.7916471911	 0.118211
H	-0.9959769608	-0.3132732876	 0.0858192082	 0.090254
H	 0.0817536361	-0.3347217972	-2.1254771183	 0.126823
H	 1.6598158468	-0.0372239076	-1.3991441595	 0.124149
H	 1.6135116694	-3.4349445218	 0.1185151328	 0.252061
H	 1.8270376364	-2.1216450719	 2.0704674871	 0.105853
H	 1.2478847298	-0.2169932428	 3.3547550505	 0.117532
H	 1.2465084008	 1.2994890717	 2.4447294942	 0.12594
H	-0.2784614795	 0.5385003921	 2.8767510798	 0.123615
79.4969	114.3546	222.8995	235.3683	285.8896	294.6671	314.843	365.8764	418.4798	458.2065	515.5292	547.363	560.5686	655.544	725.153	770.9536	854.2513	871.3771	906.5049	955.774	1008.2794	1040.4703	1078.8279	1103.0016	1123.2442	1145.6247	1205.0039	1232.4528	1291.7192	1310.0265	1349.9994	1360.8912	1392.8768	1410.7189	1420.8235	1457.637	1464.3914	1475.8352	1490.8853	1500.3663	1507.6369	1736.0826	1803.5488	2956.0796	3011.6258	3012.4771	3033.1799	3058.1539	3099.3426	3103.0565	3111.9879	3113.0777	3189.8443	3629.4268
CC1CC(=O)NC=C1C	C[C@H]1CC(=O)NC=C1C	
InChI=1S/C7H11NO/c1-5-3-7(9)8-4-6(5)2/h4-5H,3H2,1-2H3,(H,8,9)	InChI=1S/C7H11NO/c1-5-3-7(9)8-4-6(5)2/h4-5H,3H2,1-2H3,(H,8,9)/t5-/m0/s1
