17
gdb 48157	3.92615	0.83733	0.73821	1.3121	69.03	-0.2494	-0.1024	0.147	1484.7937	0.133455	-458.953822	-458.944631	-458.943687	-458.990028	31.068	
O	-0.865924507	 1.4123804346	 0.2593695976	-0.215978
C	 0.1437260494	 0.9911441146	-0.2393881621	 0.096299
C	 1.433101899	 1.8159818216	-0.3667591818	 0.287069
O	 2.398465163	 1.2871377831	-0.8694270406	-0.274867
C	 1.4001361331	 3.2372077408	 0.1433221097	-0.339279
C	 2.7530887186	 3.9242155551	 0.0649243201	-0.022776
C	 3.2880827114	 4.2968733958	-1.3359820072	-0.070436
O	 3.3557623438	 5.6956799104	-0.9876127423	-0.27066
C	 2.7925844383	 5.4489525538	 0.3147176995	-0.096524
H	 0.2459329383	-0.0338056691	-0.6541393886	 0.11146
H	 0.6397993742	 3.7787854165	-0.4382940781	 0.145311
H	 1.0024172961	 3.2229793845	 1.1668071958	 0.144139
H	 3.4849619031	 3.3715259936	 0.6575019877	 0.095088
H	 4.2677933073	 3.8874097697	-1.603243059	 0.113369
H	 2.5907629433	 4.1140776229	-2.1648567473	 0.09592
H	 1.8100030194	 5.9265751895	 0.4358796524	 0.097399
H	 3.4519829587	 5.7902693827	 1.1216762741	 0.104466
29.2707	63.197	79.8818	131.3126	134.3704	211.0485	328.6379	383.8132	460.6276	512.3166	610.4167	779.7734	814.8705	836.2455	886.4558	899.1787	980.5303	985.177	1039.5194	1051.8911	1106.7081	1144.3391	1157.1234	1159.4731	1166.1978	1234.118	1263.885	1312.2621	1338.9971	1363.674	1381.1032	1407.1088	1434.1934	1513.9265	1538.4566	1799.541	1825.1354	2926.7215	2997.5058	3011.2224	3020.1861	3047.4554	3051.4157	3066.485	3094.0297
O=CC(=O)CC1COC1	O=CC(=O)CC1COC1	
InChI=1S/C6H8O3/c7-2-6(8)1-5-3-9-4-5/h2,5H,1,3-4H2	InChI=1S/C6H8O3/c7-2-6(8)1-5-3-9-4-5/h2,5H,1,3-4H2
