19
gdb 35098	2.26591	1.73672	1.1151	0.6859	86.06	-0.2427	0.0194	0.2621	1120.7951	0.158889	-348.716415	-348.708093	-348.707149	-348.749593	32.744	
C	-0.0874408719	-1.2545517776	-0.1055965705	-0.469339
C	-0.0332663072	-0.0546118143	-0.0448018616	 0.333059
C	 0.0123732552	 1.4025140177	 0.0187792474	-0.293826
C	-0.6038131098	 1.9872418863	 1.2818683746	-0.062754
C	 0.1325964692	 2.970863254	 1.7892588189	-0.078118
C	 1.3827193327	 3.2292569032	 0.9864067763	-0.337424
C	 1.4316772232	 2.0356869222	 0.0210133472	 0.351918
C	 2.6686630761	 1.1794046608	-0.0470708122	-0.306486
C	 2.2815890239	 2.0496110708	-1.2183273072	-0.313133
H	-0.1381291065	-2.3140938081	-0.1532479704	 0.194415
H	-0.5473131647	 1.7820779319	-0.8518784804	 0.11029
H	-1.5527440216	 1.6313460703	 1.6641077047	 0.105
H	-0.1322563441	 3.5582552937	 2.6614398852	 0.097144
H	 1.3092716238	 4.188322414	 0.4520925085	 0.107761
H	 2.2820304392	 3.2931973556	 1.610974006	 0.107253
H	 3.5184616872	 1.4816554512	 0.5566390173	 0.104871
H	 2.5412502016	 0.1076000369	-0.1466513158	 0.127903
H	 1.8951063556	 1.5570899842	-2.1054237814	 0.113806
H	 2.8714059682	 2.9376202272	-1.4232684766	 0.10766
40.5738	143.1882	175.5112	271.92	324.4719	370.9897	389.6047	472.128	516.073	562.4042	611.7929	637.9128	700.816	764.1291	779.0607	797.6876	875.4649	899.3498	953.9632	965.0238	972.8585	985.5293	1008.8878	1035.4282	1058.559	1060.7674	1085.4169	1136.2062	1181.6756	1191.4104	1240.8966	1250.3263	1286.2289	1314.0058	1364.219	1366.9256	1462.2978	1488.1522	1500.2459	1692.5912	2231.072	2961.7774	2994.616	3040.6053	3120.074	3129.046	3188.5782	3200.9283	3217.6702	3221.8524	3503.3268
C#CC1C=CCC11CC1	C#C[C@H]1C=CCC21CC2	
InChI=1S/C9H10/c1-2-8-4-3-5-9(8)6-7-9/h1,3-4,8H,5-7H2	InChI=1S/C9H10/c1-2-8-4-3-5-9(8)6-7-9/h1,3-4,8H,5-7H2/t8-/m0/s1
