17
gdb 28156	4.94983	1.23881	1.00316	0.1704	82.65	-0.1893	-0.0011	0.1882	1168.9439	0.137263	-384.730739	-384.723284	-384.72234	-384.762538	28.983	
C	 0.1071224764	 1.4438448565	 0.0234195007	-0.490623
C	-0.069067483	-0.0311883748	-0.0093113824	 0.361273
C	-1.1640164338	-0.8394983243	-0.1399101253	-0.483075
C	-0.6662792542	-2.1830511495	-0.0955183805	 0.285248
C	 0.6809446056	-2.0722503799	 0.0574541361	 0.292336
C	 1.3686566873	-3.3921834422	 0.1235167563	-0.420713
C	 0.1615810087	-4.3163844839	-0.0207402461	-0.090078
C	-0.9834205515	-3.612611009	-0.1437783972	-0.203284
O	 1.0825021104	-0.785346871	 0.1140121982	-0.232279
H	 0.7548023886	 1.7932604437	-0.7891844228	 0.136046
H	-0.8642894894	 1.9322530294	-0.0818191912	 0.134646
H	 0.5570073952	 1.7779803125	 0.9656862124	 0.136045
H	-2.1806875549	-0.4949979877	-0.2515996408	 0.108065
H	 2.0984650541	-3.5493154143	-0.681629166	 0.135016
H	 1.9010379592	-3.564597728	 1.0681935058	 0.135017
H	 0.254956323	-5.3939154234	-0.0196134311	 0.097866
H	-1.9737052916	-4.0342054043	-0.259196356	 0.098494
126.091	129.759	243.9302	266.6601	285.8319	433.448	473.7784	543.9701	622.9363	652.1022	722.3365	732.8103	763.2093	796.6394	872.6997	924.0883	924.9227	941.3808	952.0302	1014.0105	1063.1602	1073.7671	1119.906	1144.264	1171.6532	1224.9201	1247.4513	1322.9934	1379.8955	1416.5292	1439.5279	1469.986	1471.1579	1497.091	1556.7921	1592.324	1637.9712	3025.828	3027.1538	3055.3675	3074.2564	3126.6073	3208.5906	3233.2056	3248.4403
CC1=CC2=C(CC=C2)O1	Cc1cc2c(CC=C2)o1	
InChI=1S/C8H8O/c1-6-5-7-3-2-4-8(7)9-6/h2-3,5H,4H2,1H3	InChI=1S/C8H8O/c1-6-5-7-3-2-4-8(7)9-6/h2-3,5H,4H2,1H3
