21
gdb 82519	3.2168	1.3947	1.2969	2.496	82.26	-0.2	0.0722	0.2722	1097.1804	0.183317	-383.218299	-383.209816	-383.208872	-383.251021	33.342	
C	-0.3980897679	 1.4928679426	-0.1360868887	-0.304117
N	 0.0312615945	 0.1142413378	 0.0494500179	-0.087468
C	 1.3296002774	-0.4255429022	-0.2825768051	-0.042494
C	 2.6019421234	 0.4367209652	-0.3092573384	-0.299082
C	 2.8923659894	 0.8589867645	 1.1415266133	 0.337478
C	 4.3245881752	 0.9644127724	 1.5998948906	-0.489042
N	 1.8904447744	 1.801814404	 1.6784144147	-0.36692
C	 1.7747517259	 0.355245914	 1.9884702649	-0.10308
C	 0.8088783917	-0.4459418444	 1.1361050006	-0.032438
H	 0.402174554	 2.235823169	-0.1351100186	 0.129731
H	-0.9462666801	 1.5436126959	-1.0843883592	 0.104379
H	-1.0939761777	 1.7555668157	 0.6662941423	 0.116557
H	 1.3179654715	-1.2982094547	-0.9343644041	 0.081653
H	 3.4274973104	-0.1776313956	-0.6844192072	 0.100407
H	 2.5199549822	 1.3047032318	-0.9726538051	 0.112071
H	 4.8482273147	 1.7754693298	 1.0796904094	 0.125459
H	 4.3791052044	 1.166698268	 2.6752289109	 0.112057
H	 4.8741093449	 0.0371332805	 1.4042860883	 0.124165
H	 2.2855262045	 2.2808139286	 2.485753938	 0.222693
H	 1.9379731737	 0.0314436678	 3.0120016181	 0.07713
H	 0.3840398936	-1.3338823406	 1.6007175273	 0.080861
90.8132	151.4324	178.774	217.9401	275.1335	321.7856	362.1852	408.507	446.5942	552.9688	642.3742	701.3381	707.5041	744.0648	811.3448	848.1131	868.6501	913.431	951.914	959.0012	989.4177	1022.9471	1044.6892	1076.1855	1086.9271	1097.7972	1135.1111	1145.9697	1156.2525	1184.4678	1216.9079	1260.7464	1295.9245	1332.9646	1344.8945	1357.12	1400.71	1416.3003	1432.7168	1461.3199	1472.7478	1484.9428	1487.4451	1495.3527	1501.7649	3020.9148	3023.9198	3042.7908	3080.1559	3084.1711	3091.5577	3095.1006	3105.3489	3115.5001	3117.9937	3157.1229	3476.744
CN1C2CC3(C)NC3C12	CN1[C@H]2C[C@@]3(C)N[C@H]3[C@@H]12	
InChI=1S/C7H12N2/c1-7-3-4-5(9(4)2)6(7)8-7/h4-6,8H,3H2,1-2H3	InChI=1S/C7H12N2/c1-7-3-4-5(9(4)2)6(7)8-7/h4-6,8H,3H2,1-2H3/t4-,5-,6-,7+,9?/m0/s1
