19
gdb 92145	2.51259	1.62857	1.36373	0.9652	74.17	-0.225	0.0769	0.3019	1031.6617	0.159554	-422.99267	-422.984693	-422.983748	-423.024916	31.428	
C	-0.0398238199	 1.5569140046	-0.0340823906	-0.519772
C	-0.0039773618	 0.0615011786	 0.022386631	 0.262909
C	-0.1328934888	-1.0340992377	-0.9880070704	 0.040623
O	 1.0168116936	-1.7567513312	-0.5441801202	-0.31596
C	 1.0883369964	-0.866884663	 0.6211237198	 0.043932
C	 0.4545117811	-1.5964790743	 1.7980578213	-0.259409
C	-1.0076074365	-1.8475794269	 1.3199894798	 0.127174
O	-1.9862108382	-1.4806856701	 2.2859477999	-0.444993
C	-1.1616484635	-0.9173182335	 0.1236972156	-0.139719
H	 0.8776573527	 1.9663560538	-0.4716441917	 0.122203
H	-0.8816144967	 1.9021829677	-0.6429262611	 0.124619
H	-0.1602404691	 1.9914344014	 0.9652499715	 0.125696
H	-0.3637699733	-1.0466102033	-2.0474145873	 0.101226
H	 2.0980990059	-0.4775614827	 0.7654978188	 0.079031
H	 0.9933593472	-2.5152411743	 2.0473874047	 0.102616
H	 0.4263978259	-0.9473391755	 2.6811802233	 0.102857
H	-1.1458257698	-2.8965916932	 1.0240697048	 0.074717
H	-1.9346008651	-2.1109832623	 3.0114499294	 0.280314
H	-2.15903398	-0.5948025182	-0.1539534486	 0.091934
102.8171	182.8319	196.3351	257.0777	277.3156	349.8792	374.075	426.066	564.1855	587.6487	668.6008	714.9711	796.1389	840.3679	859.9663	884.2482	899.6686	924.3923	988.6697	1002.7816	1015.6653	1039.0836	1056.891	1064.398	1103.0928	1133.0735	1166.2252	1207.963	1215.6916	1243.597	1259.4114	1271.7109	1294.9524	1331.2192	1348.5438	1416.0121	1425.1069	1467.8793	1476.3606	1487.1104	1498.0341	3002.3141	3023.3244	3040.3033	3082.6509	3095.4544	3097.7915	3100.383	3173.0981	3185.396	3815.5103
CC12C3OC1CC(O)C23	C[C@@]12[C@H]3O[C@@H]1C[C@@H](O)[C@@H]23	
InChI=1S/C7H10O2/c1-7-4-2-3(8)5(7)6(7)9-4/h3-6,8H,2H2,1H3	InChI=1S/C7H10O2/c1-7-4-2-3(8)5(7)6(7)9-4/h3-6,8H,2H2,1H3/t3-,4-,5-,6+,7-/m1/s1
