21
gdb 116016	1.71404	1.60034	0.86548	2.1387	81.44	-0.2203	0.039	0.2592	1350.4145	0.182255	-424.229088	-424.219316	-424.218371	-424.263966	35.744	
O	 0.0246689039	 1.442477041	-0.0902940422	-0.419712
C	 0.0285572282	 0.0203289534	-0.0547565948	-0.095501
C	-1.4120380697	-0.4728990108	 0.0648550009	-0.068134
C	-1.5062926213	-2.0163013581	-0.0670022538	-0.235318
C	-2.6194417528	-2.4583123959	 0.9135853207	-0.259322
C	-2.7345765405	-1.2815125095	 1.8490798474	-0.160944
C	-2.0907073883	-0.2034789162	 1.3995111673	 0.315792
C	-2.0778337099	 1.1480762631	 2.0413382726	-0.17902
O	-2.88437557	 1.1262508466	 3.2093399134	-0.419029
H	 0.9361044913	 1.7467658904	-0.1265022941	 0.286504
H	 0.4758066704	-0.3925125772	-0.9732843041	 0.086964
H	 0.6162478755	-0.356645116	 0.797971481	 0.085934
H	-1.9768611554	 0.0247643826	-0.7383031768	 0.081924
H	-1.6861126045	-2.3371383152	-1.0963782697	 0.096292
H	-0.5523975781	-2.458984591	 0.244502639	 0.097528
H	-3.5719170544	-2.6359435097	 0.3935249366	 0.102687
H	-2.3760008157	-3.3960548641	 1.4267712858	 0.09817
H	-3.3215832739	-1.2999942726	 2.7585916663	 0.103369
H	-1.0420901729	 1.4420648451	 2.2725441844	 0.09717
H	-2.4395138999	 1.8945751192	 1.3135206297	 0.098899
H	-2.823926382	 1.991441645	 3.6231233103	 0.285747
69.0655	101.0155	140.447	178.9536	216.816	234.4937	243.9758	268.9627	314.7067	367.1827	454.4288	569.0758	616.5121	684.4225	800.2696	834.811	872.6181	931.169	940.1585	994.4991	1018.7475	1037.1548	1056.5811	1080.2781	1080.7478	1110.2311	1158.8778	1179.2491	1220.0084	1235.7244	1241.7785	1252.4739	1257.717	1283.1634	1318.3151	1327.0049	1341.643	1374.4535	1450.737	1465.4256	1485.1428	1494.0213	1502.0488	1520.0571	1720.8317	2959.0467	2961.6692	2982.2963	2987.3596	3001.0677	3002.2407	3029.9736	3049.7817	3092.81	3217.8315	3830.1338	3840.435
OCC1CCC=C1CO	OC[C@H]1CCC=C1CO	
InChI=1S/C7H12O2/c8-4-6-2-1-3-7(6)5-9/h2,7-9H,1,3-5H2	InChI=1S/C7H12O2/c8-4-6-2-1-3-7(6)5-9/h2,7-9H,1,3-5H2/t7-/m1/s1
