22
gdb 63586	3.03998	1.22655	1.04419	1.1139	82.25	-0.2364	0.0747	0.3111	1249.7376	0.194259	-404.336295	-404.327022	-404.326078	-404.370354	35.333	
C	-0.0809727238	 1.527423795	 0.0076454922	-0.437094
C	-0.0495010131	 0.0126042975	 0.0742902401	 0.268514
C	-1.2622894136	-0.6518378952	-0.5489164606	-0.463709
N	 1.2836280626	-0.5889813069	-0.1665305731	-0.411582
C	 0.681076981	-0.6738502133	 1.1772275652	 0.263883
C	 1.3978837857	 0.0410609297	 2.3236009182	-0.286348
C	 1.7321162189	-1.124506174	 3.2594219951	-0.089857
O	 0.6278008959	-2.0142932988	 3.1330120694	-0.249133
C	 0.2533520116	-2.0305544009	 1.7660175642	-0.150336
H	 0.8360116225	 1.961330861	 0.4097504571	 0.127272
H	-0.1831716075	 1.8612988408	-1.0311071222	 0.11661
H	-0.9318294865	 1.9260781837	 0.5718572362	 0.113077
H	-1.3604775849	-0.3538964325	-1.5992449613	 0.12201
H	-1.1990565473	-1.7433188782	-0.516499494	 0.114873
H	-2.1845895797	-0.3542774359	-0.0369158788	 0.123904
H	 1.1780546956	-1.4809433949	-0.6488031638	 0.215941
H	 2.2780401791	 0.5822897749	 1.9729590961	 0.116483
H	 0.7252632783	 0.7448279965	 2.8255283829	 0.106748
H	 2.6682641777	-1.6176381036	 2.9497163256	 0.092392
H	 1.818034364	-0.8485233356	 4.3131734113	 0.108427
H	-0.8246062521	-2.2133606986	 1.7207525133	 0.110112
H	 0.7617470456	-2.8519532007	 1.2315641369	 0.08781
47.5308	160.0398	167.4032	195.513	218.9048	250.7285	295.2907	361.9719	421.5091	445.9742	476.9385	530.9186	636.2778	702.4386	764.0281	850.9857	886.2147	944.5066	958.3099	964.1633	974.1228	991.9187	999.6863	1074.8225	1084.3868	1097.4315	1126.6395	1153.2629	1154.9132	1219.3017	1223.5925	1258.8751	1278.9297	1312.7652	1319.6937	1355.8812	1393.6271	1412.181	1422.4774	1441.7348	1476.5056	1480.7968	1489.626	1501.0156	1506.3136	1515.4495	1522.5176	2949.5747	2971.9935	3025.1634	3032.5818	3049.4743	3071.272	3084.3382	3090.398	3098.3237	3106.7724	3122.9818	3135.6528	3463.3818
CC1(C)NC11CCOC1	CC1(C)N[C@]21CCOC2	
InChI=1S/C7H13NO/c1-6(2)7(8-6)3-4-9-5-7/h8H,3-5H2,1-2H3	InChI=1S/C7H13NO/c1-6(2)7(8-6)3-4-9-5-7/h8H,3-5H2,1-2H3/t7-/m1/s1
