20
gdb 6546	2.72919	1.83102	1.60751	2.1837	70.18	-0.2514	0.06	0.3114	937.4486	0.174286	-386.12937	-386.120232	-386.119288	-386.162123	35.836	
C	 0.2616829453	 1.4531043102	-0.0223677148	-0.418823
C	 0.0227689324	-0.0700641343	-0.0057711674	 0.306965
C	 0.4715977294	-0.655622966	 1.3328115127	-0.421755
O	-1.3770257023	-0.3328855833	-0.0993488261	-0.47099
C	 0.6996634246	-0.7111172711	-1.2275740239	 0.393548
O	 0.0451344015	-0.3352324051	-2.4269690035	-0.48021
C	 2.1792257834	-0.9637464487	-1.3226816764	-0.332417
C	 1.1985301434	-2.121058611	-1.2561470432	-0.308059
H	 1.3241573471	 1.6959692771	 0.083456647	 0.110463
H	-0.1032951311	 1.899364859	-0.9538702281	 0.094245
H	-0.2889429413	 1.9203617716	 0.7981108149	 0.123576
H	-0.0674289591	-0.1511675087	 2.1394768689	 0.125406
H	 0.2315728915	-1.7193718044	 1.3901760059	 0.126708
H	 1.5428301765	-0.5166122394	 1.5029830041	 0.111225
H	-1.5924009979	-0.2603190421	-1.0384577476	 0.28119
H	 0.342452443	 0.5504420493	-2.6630113854	 0.286626
H	 2.6515992707	-0.763716825	-2.2784209338	 0.112388
H	 2.8036789513	-0.767100859	-0.4583852188	 0.115966
H	 1.1622693048	-2.7150532807	-0.3518771438	 0.120189
H	 1.0163606269	-2.6703295884	-2.1722455706	 0.12376
72.1937	202.0424	231.6189	258.1666	269.8299	308.9318	321.9228	361.4545	377.1103	401.0609	449.811	488.0224	516.4222	551.0443	641.2113	773.1817	845.7301	896.2091	917.4845	932.0643	945.44	973.8146	983.3427	1013.6877	1050.4324	1082.0545	1140.0914	1184.6592	1192.5571	1208.8372	1256.0959	1299.4995	1352.0313	1390.6343	1402.4246	1420.9131	1452.1002	1476.041	1492.4149	1498.8411	1499.3084	1513.2615	3030.8606	3050.5108	3096.5961	3116.1579	3122.3745	3131.3093	3135.4642	3150.5825	3219.5693	3241.2905	3764.1878	3799.709
CC(C)(O)C1(O)CC1	CC(C)(O)C1(O)CC1	
InChI=1S/C6H12O2/c1-5(2,7)6(8)3-4-6/h7-8H,3-4H2,1-2H3	InChI=1S/C6H12O2/c1-5(2,7)6(8)3-4-6/h7-8H,3-4H2,1-2H3
