16
gdb 96723	2.41455	1.20055	0.81888	3.1348	71.67	-0.2538	-0.0494	0.2043	1341.8389	0.121975	-471.227958	-471.218072	-471.217128	-471.264023	34.148	
C	 0.5896448244	 1.4265851648	 0.5855450993	-0.30369
N	 0.138125132	 0.1119732507	 0.1722158668	-0.291404
C	 0.3127790792	-0.3729434287	-0.9702000657	 0.43257
O	-0.1752364056	-1.6493859068	-1.25945186	-0.245057
C	-0.4341033394	-2.5279507092	-0.2395646983	 0.172772
O	-0.9362213592	-3.585011148	-0.4634563121	-0.260446
C	 0.9762487539	 0.2027389295	-2.1971587574	 0.269572
N	 0.6638680306	-0.4366147906	-3.368906696	-0.539201
N	 1.7203085676	 1.2337039027	-2.0418647994	-0.519216
H	 1.6705325097	 1.4211154149	 0.7590902471	 0.14586
H	 0.3996059917	 2.1945188906	-0.1687162745	 0.145932
H	 0.0842658664	 1.6808317441	 1.5208643228	 0.116754
H	-0.1184723574	-2.1396946821	 0.7359550392	 0.132556
H	 0.250264338	-1.3528490437	-3.3205901554	 0.279361
H	 1.2066669761	-0.2198225203	-4.1885545545	 0.254323
H	 2.114082482	 1.5422425324	-2.9329843318	 0.209316
32.4323	68.7552	109.7292	132.3344	177.7284	254.4748	294.8137	344.2739	378.2792	400.8226	442.7921	472.43	502.4359	559.6212	689.8082	783.7806	833.6594	866.4971	1044.148	1057.9544	1092.3833	1100.2791	1116.8298	1122.5313	1163.879	1204.2174	1388.6576	1420.5916	1436.4764	1473.8984	1490.5424	1620.7128	1706.1373	1773.9595	1865.8458	3037.1414	3086.2473	3103.2633	3118.512	3452.8532	3597.9975	3720.9322
CN=C(OC=O)C(N)=N	CN=C(OC=O)C(=N)N	
InChI=1S/C4H7N3O2/c1-7-4(3(5)6)9-2-8/h2H,1H3,(H3,5,6)	InChI=1S/C4H7N3O2/c1-7-4(3(5)6)9-2-8/h2H,1H3,(H3,5,6)
