19
gdb 121427	4.52089	0.68493	0.60933	0.7558	80.38	-0.2512	-0.0253	0.2259	1778.0042	0.157813	-456.373482	-456.363232	-456.362288	-456.410439	35.531	
C	 0.6702909176	 0.8683335596	 0.3417547217	-0.471209
C	 0.3408293937	-0.4396296998	-0.3241287807	 0.392121
N	 0.1704145541	-1.5599688681	 0.5116734365	-0.326568
C	 0.2603205428	-1.6741499389	 1.8770318253	 0.160874
O	 0.5167120838	-0.7924696479	 2.6635167408	-0.305492
N	 0.1843069236	-0.676962767	-1.563896955	-0.307325
C	 0.3296385124	 0.3548675798	-2.5784973751	-0.156372
C	 0.4451639301	-0.3414624516	-3.9371496145	-0.049169
O	-0.6517885336	-1.2001848205	-4.1620997566	-0.420558
H	-0.1046997444	 1.1304314838	 1.0657694101	 0.16491
H	 1.5980583387	 0.7885820699	 0.9131021146	 0.162613
H	 0.7596860624	 1.6624075876	-0.3981132951	 0.130292
H	-0.0507679126	-2.3991939197	-0.0076712164	 0.253724
H	 0.0613347591	-2.7179482373	 2.1887991012	 0.092487
H	-0.5627799212	 0.996441931	-2.5880539958	 0.114605
H	 1.2050825372	 0.9997730847	-2.4174864296	 0.099506
H	 0.4512498556	 0.4013787844	-4.7417954476	 0.101937
H	 1.4012148661	-0.8895808553	-3.9779007831	 0.082887
H	-0.7420423356	-1.7014327247	-3.3405420705	 0.280738
25.9247	57.6507	102.4553	124.6235	153.3252	204.3234	255.7288	301.1331	335.7703	381.3543	490.5732	510.5152	534.098	563.0329	702.6968	772.284	847.8368	886.4491	909.9129	1009.8231	1029.211	1056.7099	1082.7607	1101.9378	1112.1939	1152.4684	1223.0757	1259.8055	1316.3803	1369.962	1386.299	1416.0513	1441.0205	1447.7604	1460.4005	1467.2739	1474.3989	1505.1628	1509.2095	1742.2354	1814.6077	2947.0274	2966.2869	2991.1562	3037.661	3069.9886	3074.0455	3130.5675	3167.3487	3593.6506	3755.8773
CC(NC=O)=NCCO	CC(=NCCO)NC=O	
InChI=1S/C5H10N2O2/c1-5(7-4-9)6-2-3-8/h4,8H,2-3H2,1H3,(H,6,7,9)	InChI=1S/C5H10N2O2/c1-5(7-4-9)6-2-3-8/h4,8H,2-3H2,1H3,(H,6,7,9)
