23
gdb 114039	2.75275	1.14357	0.96788	1.595	86.4	-0.2359	0.0749	0.3108	1363.3973	0.204685	-388.268307	-388.258406	-388.257462	-388.302583	37.751	
C	-0.0094860113	 1.6032427272	 0.0908137584	-0.378299
C	 0.0362207109	 0.0814189127	 0.2623643401	-0.200321
C	-1.3206696567	-0.5775792395	 0.0213139859	 0.060458
C	-1.9263751387	-0.6379201162	-1.421104902	-0.305619
C	-2.1736069079	-2.1473902296	-1.253307158	 0.281491
C	-3.4234674989	-2.8562363798	-1.6933297798	-0.496883
C	-0.863441084	-2.8379154794	-1.0220013836	 0.059197
O	 0.3512078816	-2.4281157402	-1.593957733	-0.416467
C	-1.4628725858	-2.102509439	 0.1326620632	-0.176891
H	 0.9708326655	 2.0549657793	 0.2726231033	 0.108153
H	-0.3171210488	 1.8797515587	-0.924001804	 0.113572
H	-0.721343308	 2.0631468099	 0.7865340478	 0.106484
H	 0.7736960075	-0.355180042	-0.4161912082	 0.121344
H	 0.3678116458	-0.1617716686	 1.2810822056	 0.086154
H	-2.0612150984	-0.1128873917	 0.6835188854	 0.065959
H	-2.8472871231	-0.0601323651	-1.5279653107	 0.095402
H	-1.2458433929	-0.3686351293	-2.2352701131	 0.087722
H	-3.504551236	-2.8791528792	-2.7878231917	 0.114931
H	-3.4406981815	-3.8924437028	-1.3392659541	 0.116128
H	-4.322362592	-2.3589190222	-1.3104594984	 0.117298
H	-0.9565078734	-3.9220995307	-0.9275719888	 0.08016
H	 0.3155207689	-2.6255511407	-2.5361190478	 0.283263
H	-1.7128695027	-2.6283715416	 1.0488507035	 0.076767
91.6691	130.3223	153.2363	196.543	222.9389	237.6904	258.9894	293.9558	312.2792	358.9851	413.7365	507.3718	554.7876	643.9688	734.1966	785.2933	788.8937	844.6292	900.7103	928.085	958.3862	960.2255	989.6702	1016.3858	1042.2159	1070.9979	1081.3527	1115.8964	1138.7249	1167.4116	1192.8114	1238.9845	1251.9962	1270.8565	1282.4445	1296.827	1321.4879	1343.2116	1357.2145	1400.6089	1411.0383	1415.7956	1466.0635	1484.28	1489.6465	1495.819	1499.7662	1502.8098	1508.282	3014.1392	3018.0851	3024.3321	3026.2811	3048.0704	3070.1068	3077.9298	3079.9991	3092.0096	3097.5348	3103.1377	3108.5168	3156.3441	3800.4703
CCC1CC2(C)C(O)C12	CC[C@H]1C[C@@]2(C)[C@@H](O)[C@@H]12	
InChI=1S/C8H14O/c1-3-5-4-8(2)6(5)7(8)9/h5-7,9H,3-4H2,1-2H3	InChI=1S/C8H14O/c1-3-5-4-8(2)6(5)7(8)9/h5-7,9H,3-4H2,1-2H3/t5-,6+,7-,8+/m0/s1
