17
gdb 69194	2.47385	1.56938	1.12606	5.0813	76.62	-0.2517	-0.0185	0.2332	1102.4316	0.135438	-418.007467	-417.999037	-417.998093	-418.040613	31.205	
C	 0.0748652152	 1.5562310196	 0.10068469	-0.489014
C	 0.0803614885	 0.0608130632	 0.0296042133	 0.350633
C	-0.8969307214	-0.8842505613	 0.6601004534	-0.323368
C	 0.5853696946	-0.9972903305	 1.0140513726	-0.216932
C	 1.319180055	-1.6351407245	-0.133218537	 0.412411
N	 2.0969023139	-2.6140296515	-0.249172392	-0.550162
N	 0.8006159909	-0.6565436906	-1.0417688268	-0.137694
C	 0.690307803	-0.6583630362	-2.4020178508	 0.127816
O	 1.2559065943	-1.4477169762	-3.1275756956	-0.309938
H	 1.0850182848	 1.9580761596	-0.0236653423	 0.140258
H	-0.5659064465	 1.9920214372	-0.6738198904	 0.135601
H	-0.3123681118	 1.8841413754	 1.0693625587	 0.136719
H	-1.5122219824	-0.4674484519	 1.4521812465	 0.129885
H	-1.3768020032	-1.6580918429	 0.0690343906	 0.132879
H	 0.9560164405	-0.8791277003	 2.0216917376	 0.12469
H	 2.3847206783	-2.7258456014	-1.2229528841	 0.251458
H	 0.049196666	 0.1644105023	-2.7756601339	 0.084757
80.1209	143.9428	163.5761	209.8058	240.347	265.052	349.2754	454.7421	456.7588	524.6987	620.4087	671.0851	738.3152	826.5354	864.5529	891.3131	935.8129	972.1407	972.9214	1004.8427	1028.1747	1072.1616	1073.995	1092.0227	1125.576	1214.9318	1234.0341	1295.1501	1377.7649	1390.5506	1423.5236	1435.9616	1481.1991	1489.0939	1499.3102	1760.2311	1827.4027	2938.1028	3036.0369	3099.3122	3119.6268	3122.3252	3211.4991	3233.0867	3483.2946
CC12CC1C(=N)N2C=O	C[C@]12C[C@H]1[C]([NH])N2C=O	
InChI=1S/C6H8N2O/c1-6-2-4(6)5(7)8(6)3-9/h3-4,7H,2H2,1H3	InChI=1S/C6H8N2O/c1-6-2-4(6)5(7)8(6)3-9/h3-4,7H,2H2,1H3/t4-,6-/m0/s1
