15
gdb 14890	4.86387	1.51252	1.20377	5.5538	68.82	-0.2407	-0.0321	0.2085	961.8254	0.121286	-358.870311	-358.862836	-358.861892	-358.902633	26.727	
N	 0.1438704998	-1.1113238884	 0.1685452397	-0.322922
C	 0.0174619236	 0.0356312178	 0.106170057	 0.263538
C	-0.0877449023	 1.4821327071	 0.0226280141	 0.284751
N	-1.2499694213	 2.0097161961	 0.100393895	-0.300963
C	-1.3030152063	 3.4675551965	 0.0295114881	-0.159076
C	-0.0226317234	 4.1578072611	 0.5204826905	-0.220757
C	 1.1957694728	 3.5672896233	-0.1955114112	-0.157985
N	 1.1178425364	 2.1148690109	-0.1385566493	-0.35007
H	-1.5134767759	 3.7570729519	-1.0105093155	 0.115972
H	-2.1642644758	 3.8010061862	 0.6173382555	 0.11728
H	-0.0708637343	 5.23665927	 0.347491961	 0.109184
H	 0.0814998423	 4.0001686829	 1.5996307852	 0.119872
H	 1.2262309823	 3.9098115252	-1.2395007307	 0.118447
H	 2.1263926268	 3.8910554348	 0.2809719544	 0.119315
H	 1.9575326952	 1.5622190244	-0.1523975737	 0.263414
47.0163	163.1415	170.9633	239.8123	287.5774	422.9553	463.5222	503.2875	582.5218	603.8311	721.605	832.5279	873.1568	888.0854	951.1084	976.4086	1085.7128	1124.7944	1152.6222	1213.588	1225.4188	1263.8702	1299.0918	1351.4936	1363.9463	1395.1345	1482.3666	1484.9166	1508.6109	1539.1586	1701.8398	2360.8069	3000.5406	3006.4951	3045.8465	3068.0334	3074.1766	3099.4884	3662.8368
N#CC1=NCCCN1	N#CC1=NCCCN1	
InChI=1S/C5H7N3/c6-4-5-7-2-1-3-8-5/h1-3H2,(H,7,8)	InChI=1S/C5H7N3/c6-4-5-7-2-1-3-8-5/h1-3H2,(H,7,8)
