14
gdb 35886	2.14365	1.83204	1.15003	2.799	66.36	-0.2844	-0.0052	0.2792	1026.6522	0.100194	-436.643596	-436.63544	-436.634496	-436.677512	28.963	
C	-0.1575772721	-1.1975681821	 0.1676896817	-0.455439
C	-0.0675250131	-0.0029238481	 0.0863842631	 0.369995
C	 0.0210949426	 1.4512931848	-0.0068750114	-0.137726
O	-0.5917525365	 2.1069230235	 1.0977175069	-0.220842
C	 0.4195762202	 2.2084982836	 2.0670282742	 0.01261
O	 1.5962946834	 2.5761671285	 1.3642549105	-0.242894
C	 1.4946734469	 2.0212155438	 0.0630979026	-0.04934
C	 2.54725379	 1.0262958059	-0.1826826336	 0.288852
N	 3.3987928656	 0.276756579	-0.3985117827	-0.31709
H	-0.2245233778	-2.2560865463	 0.23449923	 0.21717
H	-0.4800684683	 1.8039710649	-0.9116771019	 0.136871
H	 0.1619728131	 3.0032512009	 2.7698195265	 0.138197
H	 0.5677985848	 1.2500319908	 2.5883824336	 0.114996
H	 1.6128247112	 2.8283863109	-0.6681912494	 0.144639
27.4392	117.9029	161.1576	195.6644	265.6066	297.3657	428.9583	480.3421	569.2941	586.314	655.2389	692.3693	731.0251	783.5915	837.8364	924.9072	977.9283	1005.1049	1062.1729	1069.9558	1101.2703	1182.9583	1229.7259	1263.4187	1302.3508	1349.7055	1371.3973	1419.3796	1537.6398	2241.2288	2365.1548	2989.0996	3051.4453	3086.4588	3119.3686	3499.1886
C#CC1OCOC1C#N	C#C[C@H]1OCO[C@H]1C#N	
InChI=1S/C6H5NO2/c1-2-5-6(3-7)9-4-8-5/h1,5-6H,4H2	InChI=1S/C6H5NO2/c1-2-5-6(3-7)9-4-8-5/h1,5-6H,4H2/t5-,6+/m1/s1
