14
gdb 29424	5.80667	0.9777	0.83761	3.0371	69.49	-0.1996	-0.0155	0.1841	1281.8496	0.102268	-470.054475	-470.046425	-470.045481	-470.087735	29.11	
N	 0.0882407753	 1.4090919947	 0.1421428481	-0.598927
C	-0.0321619145	 0.0295225297	 0.0476184688	 0.275414
C	-1.1303437963	-0.7698515393	 0.0234481113	-0.13004
O	-0.6796714091	-2.0878896484	 0.0026072748	-0.154178
C	 0.6449486574	-1.972620375	 0.0118735377	 0.542763
N	 1.4389902823	-3.1019366093	-0.0033655764	-0.409436
C	 1.0588981473	-4.4288115733	-0.0553811279	 0.148678
O	-0.0697923261	-4.843532187	-0.0983285973	-0.278096
N	 1.1119290465	-0.7593562279	 0.0367238634	-0.404511
H	 0.9704695358	 1.7354671105	-0.2282961223	 0.255659
H	-0.6869520689	 1.921153518	-0.2543184741	 0.250339
H	-2.1951846429	-0.6309559243	 0.025811527	 0.137061
H	 2.4260599068	-2.8929795008	 0.0244413889	 0.276125
H	 1.9555975165	-5.0782164473	-0.0520747019	 0.089149
42.1443	152.6056	172.4665	239.6621	288.2866	301.1848	390.9045	455.789	591.6996	599.9502	612.5688	647.1173	713.6987	743.8229	765.9105	872.7119	988.6534	1016.2148	1027.3747	1093.8414	1112.9188	1144.9468	1266.4263	1386.2712	1428.0056	1453.0908	1482.9159	1628.26	1654.5849	1678.175	1831.5899	2949.0381	3314.6204	3557.7078	3628.8806	3656.4976
NC1=COC(NC=O)=N1	Nc1coc(NC=O)n1	
InChI=1S/C4H5N3O2/c5-3-1-9-4(7-3)6-2-8/h1-2H,5H2,(H,6,7,8)	InChI=1S/C4H5N3O2/c5-3-1-9-4(7-3)6-2-8/h1-2H,5H2,(H,6,7,8)
