17
gdb 94017	2.42076	1.57048	1.4606	3.7716	70.57	-0.2465	-0.0501	0.1964	991.9011	0.135697	-458.960898	-458.952783	-458.951839	-458.993821	30.432	
O	-0.389202943	 1.5130292379	-0.5754148999	-0.442037
C	-0.075415724	 0.1820075565	-0.1978363716	 0.069921
C	-1.3338634786	-0.6299252626	 0.1031408786	-0.090587
O	-2.1202803525	-0.7846075944	-1.0733731611	-0.273421
C	-1.474968254	-1.243205887	-2.2384929655	-0.020799
C	-1.8195265675	-0.2648345152	-3.3767204184	 0.158621
O	-2.0018878567	 0.911119219	-3.2002000193	-0.231444
C	 0.036324418	-1.2590723499	-2.1914230625	-0.092362
C	 0.6962035527	-0.5591700348	-1.2707202752	-0.083581
H	-1.0072435078	 1.4649451243	-1.3219863178	 0.295603
H	 0.5277413806	 0.2631722417	 0.7127693038	 0.086615
H	-1.0664877865	-1.6048753422	 0.5368485589	 0.092462
H	-1.9769568333	-0.0918271086	 0.8040987981	 0.121778
H	-1.859154979	-2.2395670991	-2.512486752	 0.096608
H	-1.844607217	-0.711146553	-4.393822924	 0.096619
H	 0.5415324347	-1.808018914	-2.9805904202	 0.109768
H	 1.7807546239	-0.5170834386	-1.2694248019	 0.106236
67.4155	124.3841	178.284	225.6162	292.1316	331.3105	396.7604	487.7994	533.0831	544.0399	609.6338	730.411	762.0086	828.1311	840.7765	861.3482	935.9179	941.4814	993.0478	1020.1818	1023.4451	1082.3323	1120.0879	1132.2443	1220.2006	1254.1984	1273.1288	1308.128	1344.4242	1351.0112	1384.9645	1394.6515	1416.829	1453.042	1495.3866	1701.4031	1824.4653	2904.2691	2971.0827	2996.4141	3059.0005	3101.6472	3165.6113	3188.7386	3693.4723
OC1COC(C=O)C=C1	O[C@H]1CO[C@@H](C=O)C=C1	
InChI=1S/C6H8O3/c7-3-6-2-1-5(8)4-9-6/h1-3,5-6,8H,4H2	InChI=1S/C6H8O3/c7-3-6-2-1-5(8)4-9-6/h1-3,5-6,8H,4H2/t5-,6-/m1/s1
