27
gdb 101231	3.32141	0.77758	0.68751	0.1325	97.01	-0.2761	0.0861	0.3622	1813.5706	0.251014	-353.56528	-353.554287	-353.553343	-353.601574	41.243	
C	 0.0593530024	 1.5849136822	 0.080284185	-0.390998
C	-0.0624704797	 0.0573476616	 0.0796434187	-0.166331
C	-1.4954053916	-0.4789598672	-0.1003598263	 0.021659
C	-2.090952371	-0.1130660161	-1.4676498033	-0.397894
C	-1.5358187845	-1.9919544995	 0.1166402542	 0.067207
C	-1.2023227346	-2.5747059462	 1.5200456086	-0.255996
C	-2.3273122663	-3.6275711989	 1.314338159	 0.05064
C	-3.2065434989	-4.0146489485	 2.493174502	-0.406287
C	-2.9110728436	-2.7142446295	 0.2004423036	-0.259459
H	 1.0910195486	 1.8954040259	 0.2743012741	 0.109669
H	-0.2381575934	 2.0210626039	-0.8782539122	 0.116675
H	-0.5720181379	 2.0308287082	 0.8574292371	 0.111366
H	 0.5749601415	-0.360994472	-0.7121497055	 0.088579
H	 0.3386079555	-0.3283136866	 1.0251814324	 0.096453
H	-2.12450683	-0.0190151411	 0.6783291904	 0.058215
H	-2.1509231472	 0.9695491164	-1.6113701642	 0.111491
H	-1.480248522	-0.5243670521	-2.2809366011	 0.108335
H	-3.1029628393	-0.5156207394	-1.5772015216	 0.114677
H	-0.9105442199	-2.4808221577	-0.6424124332	 0.060559
H	-0.1879480252	-2.9378262045	 1.7050590235	 0.090924
H	-1.4671074287	-1.8655657287	 2.3141261171	 0.090291
H	-1.9016799595	-4.5295397265	 0.8590434003	 0.06802
H	-3.6425999961	-3.1267982248	 2.9656970974	 0.108196
H	-4.0321497913	-4.6635853581	 2.1791073063	 0.111437
H	-2.6349605001	-4.5517759714	 3.2588030162	 0.111385
H	-3.6821206889	-2.0466073975	 0.604204106	 0.090408
H	-3.3039723283	-3.1910260819	-0.7014484545	 0.090778
57.7971	77.3895	92.1674	142.7219	214.9839	224.0788	229.4987	275.7091	307.0663	314.4638	359.6592	419.44	435.3211	475.9479	613.2787	757.9665	787.5157	811.2558	846.9779	896.8025	907.7433	951.9499	962.7552	964.2465	982.1624	1000.4563	1037.6042	1053.2201	1073.9609	1129.6256	1136.3362	1159.6899	1185.0661	1203.8674	1232.4071	1238.5598	1267.7551	1269.3912	1291.4136	1303.5719	1312.9849	1351.9988	1371.3828	1378.3569	1399.7959	1405.9452	1410.0905	1412.3642	1475.443	1482.1667	1493.55	1495.8268	1495.9986	1499.0778	1502.805	1506.5347	1512.2775	2975.8395	3008.2228	3016.2388	3019.5993	3027.5164	3027.9475	3029.2767	3031.4249	3037.6558	3048.3569	3086.4345	3087.0971	3090.915	3092.0927	3095.4683	3097.9899	3102.0942	3109.7834
CCC(C)C1CC(C)C1	CC[C@@H](C)[C@H]1C[C@@H](C)C1	
InChI=1S/C9H18/c1-4-8(3)9-5-7(2)6-9/h7-9H,4-6H2,1-3H3	InChI=1S/C9H18/c1-4-8(3)9-5-7(2)6-9/h7-9H,4-6H2,1-3H3/t7-,8-,9+/m1/s1
