17
gdb 108955	3.42386	1.25535	1.18669	1.4936	69.28	-0.2165	0.0484	0.265	1108.6031	0.136545	-455.133144	-455.124689	-455.123745	-455.166332	31.218	
C	-0.2055982167	 1.3267712001	 0.0610967392	-0.320751
N	 0.1087556702	-0.0891932503	 0.0235567299	-0.376155
C	 0.7115473685	-0.6859937959	 1.0789358768	 0.508413
N	 1.2519693464	-0.1067789562	 2.0953819108	-0.38783
C	 1.7565393791	-1.175288982	 2.9264467035	-0.107322
C	 0.6868741775	-2.0876451894	 3.4954318666	 0.080228
O	-0.6455679855	-1.6944027544	 3.4936025748	-0.428649
C	 1.3851877552	-2.4671042217	 2.2060807634	 0.004434
O	 0.7565755168	-2.0453397382	 1.0058283272	-0.248781
H	 0.6749604789	 1.8772368117	 0.3967001223	 0.163793
H	-0.4701878022	 1.6586967143	-0.9450487715	 0.128439
H	-1.0335615429	 1.5605856712	 0.7441815504	 0.123901
H	-0.4671154431	-0.6934025941	-0.5393037155	 0.259641
H	 2.6837799652	-0.9944604269	 3.4584060888	 0.095643
H	 0.9698638237	-2.6830920901	 4.3608945046	 0.100839
H	-0.6512345635	-0.7346630436	 3.3770660401	 0.293883
H	 1.9800600225	-3.3623153744	 2.0800634186	 0.110274
91.0688	113.6315	169.7583	207.7531	213.3596	296.0626	328.3698	409.6127	495.0041	588.1711	662.8064	707.4223	721.6921	777.5287	784.4372	817.3157	936.1915	957.6879	1041.5518	1043.6938	1076.5882	1095.7749	1105.8123	1143.1756	1156.2003	1196.3104	1207.8586	1267.8615	1325.7827	1346.7608	1370.1251	1410.84	1454.038	1486.3145	1509.2107	1557.6506	1708.9877	3012.8132	3101.3255	3130.0243	3146.0909	3168.3868	3198.5539	3652.1204	3744.4452
CNC1=NC2C(O)C2O1	CNC1=N[C@H]2[C@@H](O)[C@H]2O1	
InChI=1S/C5H8N2O2/c1-6-5-7-2-3(8)4(2)9-5/h2-4,8H,1H3,(H,6,7)	InChI=1S/C5H8N2O2/c1-6-5-7-2-3(8)4(2)9-5/h2-4,8H,1H3,(H,6,7)/t2-,3+,4-/m0/s1
