21
gdb 83264	1.86652	1.8098	1.52998	2.155	77.63	-0.2324	0.0772	0.3095	1057.5136	0.182684	-424.224521	-424.215729	-424.214784	-424.25719	34.63	
C	 0.033777177	 1.5441291849	-0.0650770842	-0.415997
C	 0.0734877766	 0.0259961079	 0.0344673287	 0.070342
O	 0.8112606936	-0.4938663856	-1.0862686164	-0.290212
C	 1.2538481883	-1.8129585029	-0.7448230085	-0.117909
C	 1.5283506443	-1.7704027918	 0.7460268789	-0.174565
C	 2.2740984526	-0.5470571464	 1.2214243023	 0.090807
O	 3.0413130069	 0.2578647757	 0.3758146104	-0.438234
C	 0.7621754952	-0.5535759613	 1.268500209	 0.257483
C	 0.013281277	-0.5379250576	 2.5781036793	-0.492597
H	 1.037713094	 1.9662771756	 0.0247920276	 0.135862
H	-0.3997461139	 1.8528933917	-1.0204354993	 0.125145
H	-0.5858398455	 1.9554999115	 0.7376837234	 0.119411
H	-0.9571243611	-0.3686276396	-0.0025754146	 0.069962
H	 0.4797249544	-2.5593676611	-0.9788032204	 0.101924
H	 2.1348353319	-2.0235441665	-1.3601269855	 0.11656
H	 1.5807273871	-2.7047597205	 1.2949304721	 0.085942
H	 2.7688721688	-0.6341230229	 2.1840782625	 0.100076
H	 2.5770109313	 0.2974162587	-0.472105629	 0.29561
H	-0.1773824585	 0.4862714025	 2.9192469489	 0.124135
H	-0.9550297828	-1.0461788715	 2.4914261881	 0.115944
H	 0.5822553129	-1.0434346307	 3.364281707	 0.12031
147.363	195.3444	212.9462	227.9119	234.3607	249.7358	278.4871	339.7666	437.9172	527.8118	564.1922	567.764	585.6985	711.2742	738.1873	816.4166	859.702	869.4328	921.8514	968.8565	996.9244	1034.8151	1055.0853	1080.5714	1091.9725	1108.1081	1128.5576	1149.9245	1169.1204	1212.4209	1244.4822	1294.9006	1309.076	1333.9326	1357.3223	1385.5594	1410.5127	1416.7096	1419.5058	1476.6103	1489.246	1493.0017	1498.7872	1502.8618	1518.6527	2945.4706	2991.4765	3020.0857	3046.1985	3070.9333	3077.8872	3099.315	3115.1511	3132.661	3155.9942	3168.1022	3732.0898
CC1OCC2C(O)C12C	C[C@H]1OC[C@H]2[C@@H](O)[C@@]12C	
InChI=1S/C7H12O2/c1-4-7(2)5(3-9-4)6(7)8/h4-6,8H,3H2,1-2H3	InChI=1S/C7H12O2/c1-4-7(2)5(3-9-4)6(7)8/h4-6,8H,3H2,1-2H3/t4-,5+,6-,7+/m1/s1
