20
gdb 116681	3.59613	0.81927	0.76768	3.3132	79.94	-0.2428	0.0128	0.2556	1568.8993	0.168359	-440.253074	-440.243036	-440.242092	-440.289034	35.14	
C	 0.1877969577	 1.2964015856	 0.2401246628	-0.251278
O	-0.3143873747	 0.086177719	-0.3144073826	-0.191099
C	 0.5661551457	-0.6328488223	-1.0377304359	 0.117437
N	 0.2329143487	-1.7448576398	-1.52216343	-0.270336
C	 1.1745742322	-2.4824257659	-2.3293464646	 0.271938
C	 0.8196530879	-2.3206142008	-3.8081450947	-0.418036
C	 2.7127993916	-2.4149383227	-2.0675727718	-0.121678
O	 2.7888035012	-3.849700355	-2.0083624342	-0.275924
C	 1.3526598625	-3.9654019852	-1.9185713159	-0.099643
H	 0.9863212619	 1.1042516286	 0.9669554314	 0.129189
H	 0.5626185814	 1.9713565198	-0.5391106769	 0.127326
H	-0.6510893731	 1.7718343974	 0.7493469566	 0.148744
H	 1.550939434	-0.1559144065	-1.1498482093	 0.080914
H	 0.9542355271	-1.2807344394	-4.1246499883	 0.110793
H	 1.4577674486	-2.958433522	-4.4273063305	 0.124813
H	-0.2257196096	-2.5944404881	-3.9770056188	 0.130413
H	 3.3428127072	-1.998536646	-2.8621685219	 0.099052
H	 2.9880941084	-1.9551306951	-1.1074399599	 0.085138
H	 1.017610319	-4.1671984894	-0.8933601138	 0.101215
H	 0.9541738923	-4.7286498224	-2.5963282117	 0.101023
46.1469	77.2217	115.2449	130.3596	153.6608	223.708	260.0814	292.8127	337.4942	363.3407	430.5904	496.3952	511.6349	736.9903	827.9639	909.8284	925.3138	967.9191	978.5968	989.8079	1013.7314	1030.8586	1063.4049	1153.1362	1161.5168	1175.0811	1176.7115	1182.9719	1233.7844	1252.297	1294.0558	1301.0625	1370.3498	1404.3552	1411.9215	1484.2322	1487.0815	1494.0378	1494.9119	1500.6145	1504.8756	1530.0437	1769.0173	2989.2973	3004.5568	3016.818	3018.7833	3033.0953	3054.7581	3070.8413	3077.5857	3104.8298	3118.7111	3146.6004
COC=NC1(C)COC1	COC=NC1(C)COC1	
InChI=1S/C6H11NO2/c1-6(3-9-4-6)7-5-8-2/h5H,3-4H2,1-2H3	InChI=1S/C6H11NO2/c1-6(3-9-4-6)7-5-8-2/h5H,3-4H2,1-2H3
