19
gdb 32955	4.02558	0.90338	0.75096	3.2218	80.49	-0.2047	0.0372	0.242	1536.0945	0.159551	-419.2441	-419.234655	-419.233711	-419.279357	33.193	
C	 0.0490168693	 1.3106713061	 0.057905573	-0.225693
O	-0.010745779	-0.0906549978	 0.1928851775	-0.249794
C	-1.3033643416	-0.6127468356	-0.0496186613	-0.171023
C	-1.2263640315	-2.1032703363	 0.0375985542	 0.325498
N	-2.2298310048	-2.930513776	 0.2138755561	-0.320944
C	-1.6664830158	-4.1882201973	 0.1766878061	-0.172092
C	-0.3100556641	-4.1213249459	-0.017535386	 0.293816
C	 0.7474113798	-5.1676413783	-0.1118793617	-0.507967
N	-0.0462713515	-2.7683621298	-0.1140765104	-0.315778
H	 1.0793506485	 1.6141731651	 0.2571891385	 0.129294
H	-0.2296737852	 1.6342544406	-0.9570569033	 0.109603
H	-0.6161198587	 1.8154193434	 0.774831122	 0.113101
H	-2.0363515765	-0.2400451812	 0.6815052239	 0.121644
H	-1.6562946949	-0.2986452132	-1.0478452968	 0.108329
H	-2.2675870617	-5.0773940493	 0.2977757804	 0.098665
H	 1.2730077363	-5.1416503428	-1.0745097578	 0.127792
H	 1.5037862167	-5.0659292987	 0.6763618708	 0.128597
H	 0.296023803	-6.1573293346	-0.0092227472	 0.140622
H	 0.8485734516	-2.3176340482	-0.2107294979	 0.266329
47.8362	80.0504	119.9516	134.7705	192.1154	227.8211	288.5618	315.9736	362.9655	447.0486	571.2613	645.9085	661.2402	696.7657	771.3788	838.5225	982.7812	996.7277	1013.8455	1039.9143	1053.8261	1065.1598	1155.6726	1176.0629	1185.0613	1201.1735	1230.8249	1235.5912	1284.6897	1381.3105	1400.6292	1419.3024	1467.9688	1480.1831	1483.1333	1486.0385	1498.7357	1502.3195	1522.4252	1555.323	1627.7561	2947.8715	2977.9074	3007.4708	3017.9333	3025.378	3062.6006	3118.3693	3120.7693	3242.2545	3665.4426
COCC1=NC=C(C)N1	COCc1ncc(C)[nH]1	
InChI=1S/C6H10N2O/c1-5-3-7-6(8-5)4-9-2/h3H,4H2,1-2H3,(H,7,8)	InChI=1S/C6H10N2O/c1-5-3-7-6(8-5)4-9-2/h3H,4H2,1-2H3,(H,7,8)
