16
gdb 70501	2.71946	1.53271	1.13367	4.0928	76.77	-0.2535	-0.0454	0.2081	1067.4872	0.124786	-400.76078	-400.752982	-400.752038	-400.792899	30.14	
O	-0.02403441	 1.4174546578	 0.0929287195	-0.451379
C	 0.0048995953	 0.0322106594	 0.051245473	 0.297654
C	-0.3775946224	-0.7314519834	-1.194970465	-0.340949
C	-1.2659166654	-0.7852262007	 0.0347549445	-0.094063
C	-1.0922607557	-1.9503950035	 1.0056243353	-0.274462
C	 0.3291926676	-1.8069541561	 1.4946380364	-0.169188
C	 0.9202678249	-0.7127454392	 0.9914997844	 0.156625
C	 2.2429962647	-0.2641152684	 1.2491423099	 0.186338
N	 3.3127792136	 0.1447658724	 1.4244189041	-0.339333
H	 0.7165199175	 1.7552488036	-0.4237400954	 0.296732
H	-0.7576870185	-0.1372835646	-2.0193696705	 0.123035
H	 0.2033295678	-1.6027990032	-1.4809623097	 0.119023
H	-2.2202914648	-0.2772604669	-0.0225658644	 0.108888
H	-1.7996914889	-1.8996943087	 1.8436922135	 0.128961
H	-1.2540866107	-2.9244439064	 0.5262679275	 0.127451
H	 0.8074165748	-2.5231420923	 2.1517766369	 0.124669
121.7757	133.2139	245.9958	279.3043	302.335	355.7074	425.2274	439.7025	525.7658	547.3395	651.86	684.6176	733.7333	823.7116	836.3013	850.9232	916.9245	949.9024	972.5657	1014.4509	1048.9805	1079.5398	1081.3268	1131.6498	1186.1881	1228.9205	1252.852	1312.6936	1330.9411	1341.6001	1401.9486	1463.324	1480.6481	1665.7898	2337.2966	3022.7629	3050.5467	3124.0139	3195.7554	3213.9224	3218.263	3794.4294
OC12CC1CC=C2C#N	O[C@]12C[C@H]1CC=C2C#N	
InChI=1S/C7H7NO/c8-4-6-2-1-5-3-7(5,6)9/h2,5,9H,1,3H2	InChI=1S/C7H7NO/c8-4-6-2-1-5-3-7(5,6)9/h2,5,9H,1,3H2/t5-,7-/m1/s1
