16
gdb 36153	4.01152	1.10788	0.98606	4.948	68.5	-0.2692	0.0209	0.2901	1179.4496	0.124453	-437.878836	-437.870962	-437.870018	-437.911905	28.842	
N	-0.0783125178	-1.091746113	-0.4625241158	-0.300403
C	-0.0468851153	 0.0303203237	-0.1904686884	 0.269593
C	 0.0063637181	 1.4485389159	 0.1726393411	-0.441803
C	 1.4173249864	 1.9987092221	 0.1620112455	 0.395132
C	 2.5060189609	 1.4097435074	 1.042311786	-0.138117
O	 3.557790806	 2.3651961048	 1.0397679582	-0.252246
C	 3.039120184	 3.6568187314	 0.743632271	-0.100661
C	 1.7607771469	 3.4109172339	-0.0260856759	-0.061001
O	 1.9252428638	 2.4631914482	-1.0904896365	-0.276114
H	-0.6065803622	 2.0187617619	-0.5318233587	 0.168719
H	-0.4356037731	 1.5664929673	 1.1690667832	 0.161419
H	 2.1076950967	 1.2405268903	 2.0566529781	 0.098137
H	 2.9049495453	 0.4646748156	 0.6619530983	 0.140531
H	 2.8124354787	 4.230076128	 1.6576922024	 0.099763
H	 3.7973022403	 4.198345633	 0.1695326173	 0.129113
H	 1.0299505213	 4.1995778094	-0.1841183957	 0.107939
56.0734	106.9642	199.7576	237.4346	298.521	382.9945	392.5901	433.7877	463.3478	680.6218	712.0062	780.6678	863.4479	907.0098	925.6948	932.6342	945.733	983.0731	1020.4079	1069.5598	1115.296	1121.2141	1187.7338	1222.2882	1244.3605	1260.791	1289.2961	1335.7877	1359.9611	1384.7039	1446.2621	1475.7818	1498.6168	1509.7833	2367.0867	2969.7569	2977.9461	3047.0614	3080.5424	3087.1505	3098.6044	3156.3651
N#CCC12COCC1O2	N#CC[C@]12COC[C@H]1O2	
InChI=1S/C6H7NO2/c7-2-1-6-4-8-3-5(6)9-6/h5H,1,3-4H2	InChI=1S/C6H7NO2/c7-2-1-6-4-8-3-5(6)9-6/h5H,1,3-4H2/t5-,6+/m1/s1
