17
gdb 92835	2.60347	1.72256	1.29689	3.8662	68.14	-0.2476	0.0053	0.253	990.409	0.136893	-455.098715	-455.090524	-455.08958	-455.131105	31.198	
N	-0.0186455272	 1.4712561483	-0.137576464	-0.56173
C	-0.0283541758	 0.0147137114	-0.1313946587	 0.131791
C	 1.1983398526	-0.5781750717	-0.8966280249	-0.129353
O	 1.852370528	-0.9062477982	 0.4053917673	-0.27205
C	 0.6609325188	-0.6521244538	 1.0124242201	 0.412606
N	 0.0249164609	-1.139539449	 1.990581018	-0.30762
C	-1.3894539957	-0.7934828195	 1.651415251	-0.208895
C	-1.4128019099	-0.6437779037	 0.077209534	 0.033384
O	-2.4453849052	 0.1564654673	-0.4513228259	-0.437268
H	-0.747162895	 1.7898716636	-0.7724150704	 0.246456
H	-0.284542048	 1.8243206762	 0.7775170963	 0.239714
H	 1.0333214573	-1.5021779471	-1.4556314288	 0.123078
H	 1.7865318809	 0.1515458385	-1.4503033429	 0.135991
H	-2.0424760546	-1.5983584891	 2.0009198786	 0.110051
H	-1.7219923471	 0.1368140889	 2.1295373445	 0.108995
H	-1.4230366484	-1.6537340471	-0.359384402	 0.081089
H	-3.2810292317	-0.3085458952	-0.3482941021	 0.293761
122.7058	178.5576	207.9173	242.9095	264.9981	285.5736	291.962	402.3083	490.5494	573.4299	624.7519	666.607	726.4169	778.5708	871.4943	895.9636	914.0012	935.1731	948.8029	994.7956	1045.4006	1114.9055	1140.6417	1157.806	1175.1245	1183.9624	1219.0801	1273.9499	1281.6355	1305.6508	1321.261	1391.3475	1425.1211	1483.8053	1500.6684	1664.8507	1761.7355	2991.8196	3027.2153	3075.0066	3088.3852	3168.6877	3484.6682	3557.1247	3831.8021
NC12COC1=NCC2O	N[C@@]12CO[C]1[N]C[C@H]2O	
InChI=1S/C5H8N2O2/c6-5-2-9-4(5)7-1-3(5)8/h3,8H,1-2,6H2	InChI=1S/C5H8N2O2/c6-5-2-9-4(5)7-1-3(5)8/h3,8H,1-2,6H2/t3-,5-/m1/s1
