23
gdb 89983	3.16618	1.18853	1.03411	1.5356	85.48	-0.2348	0.072	0.3068	1284.2656	0.205223	-388.273847	-388.264418	-388.263474	-388.308054	35.933	
C	-1.0215394477	 0.9473934618	 0.0311901586	-0.41257
C	 0.0990489774	-0.0820087231	 0.0475484988	 0.046551
C	 1.3738343234	 0.1789572529	-0.8035391784	-0.320174
C	 2.2119312448	-0.4443055539	 0.3277353551	 0.47567
C	 2.8523055861	-1.8416533237	 0.1727656143	-0.351363
C	 4.1563693209	-1.1325073528	 0.5823617608	-0.075254
O	 3.4879859758	 0.1437097477	 0.6491571078	-0.315743
C	 1.0206311016	-0.2347171778	 1.3074275859	-0.092179
C	 1.1741572741	 1.0024510011	 2.1885373496	-0.389233
H	-0.6548076781	 1.9491669088	 0.2757954288	 0.115908
H	-1.4850670934	 0.9990744822	-0.9604041772	 0.112829
H	-1.8088699859	 0.6950856733	 0.7504774857	 0.112365
H	-0.3141622326	-1.0643959288	-0.2071694883	 0.068798
H	 1.4424200873	-0.2713598234	-1.7979668256	 0.090232
H	 1.5912445188	 1.2488323016	-0.8863510622	 0.109189
H	 2.4876428746	-2.6049466771	 0.8632803986	 0.107972
H	 2.8426542465	-2.2412196699	-0.8434615761	 0.108321
H	 4.5721381167	-1.4285154044	 1.5534196421	 0.100239
H	 4.96151057	-1.1328306316	-0.1617461274	 0.101909
H	 0.7932121894	-1.1023739056	 1.9372180478	 0.05703
H	 1.4253028372	 1.8950331278	 1.6073838416	 0.120597
H	 0.2531677813	 1.2074779086	 2.7437171346	 0.108284
H	 1.9833965018	 0.8546537365	 2.909164575	 0.120622
73.2584	75.0095	200.2177	212.4834	222.0387	244.8788	253.3602	336.0277	364.8897	445.7812	499.5166	539.1824	702.4524	775.7079	790.5391	858.8186	865.8872	877.7961	926.0361	945.7715	974.0099	990.1515	1021.4895	1030.2441	1040.9808	1090.3589	1131.4535	1162.235	1167.7376	1186.8092	1195.7779	1202.5408	1226.9904	1240.6602	1259.1706	1286.1676	1310.6958	1349.0821	1364.5426	1376.377	1408.7101	1415.0823	1480.1815	1488.3973	1489.0955	1489.8499	1502.4662	1503.0534	1531.4339	3016.2669	3025.9182	3026.8048	3038.266	3041.7479	3048.0597	3056.1479	3069.5381	3088.4971	3098.9834	3102.2811	3107.7351	3113.014	3123.6422
CC1CC2(CCO2)C1C	C[C@H]1C[C@]2(CCO2)[C@H]1C	
InChI=1S/C8H14O/c1-6-5-8(7(6)2)3-4-9-8/h6-7H,3-5H2,1-2H3	InChI=1S/C8H14O/c1-6-5-8(7(6)2)3-4-9-8/h6-7H,3-5H2,1-2H3/t6-,7-,8+/m0/s1
