14
gdb 132205	2.01684	1.84605	0.96443	3.4181	70.43	-0.2059	-0.0162	0.1897	1110.7698	0.103137	-474.213705	-474.206268	-474.205324	-474.24553	28.917	
N	 0.0077913546	 1.3363456844	 0.1465323531	-0.570836
C	 0.0631260953	-0.0258876441	 0.0518362722	 0.507746
N	-1.1094173197	-0.702272369	 0.0406276331	-0.367252
H	-1.9971530585	-0.2240057288	 0.1083437097	 0.261909
C	-1.208317025	-2.1135099471	-0.0027841533	 0.38825
N	-2.3978959095	-2.5909160582	-0.0043381165	-0.581225
C	 0.0856570013	-2.7491560137	-0.0312191112	-0.376178
C	 1.1921565878	-1.9623152172	-0.0129027047	 0.338347
F	 2.3930442227	-2.5263340486	-0.0362078909	-0.06577
N	 1.2339024435	-0.6133540446	 0.0186233419	-0.400748
H	 0.8896474659	 1.7922631895	-0.0294098828	 0.278732
H	-0.8062235972	 1.8145919709	-0.2047318587	 0.264443
H	-2.3687945642	-3.6077697504	-0.0332090588	 0.214539
H	 0.161401353	-3.826594093	-0.0627066532	 0.108042
152.2702	193.3666	209.8415	332.8735	349.6679	361.549	509.3011	516.2736	542.2938	583.8198	616.0505	649.069	683.7368	711.1995	765.9557	779.7447	827.0476	958.7197	1001.7885	1063.8078	1133.2603	1142.4719	1233.4445	1334.2395	1343.5938	1455.1214	1536.0914	1607.1097	1642.6371	1664.4275	1720.7625	3233.93	3512.0013	3592.0537	3603.8989	3708.7023
NC1=[NH+]C(=N)C=C(F)[N-]1	NC1=N[C@@H](C=C(N1)[NH])F	
InChI=1S/C4H4FN4/c5-2-1-3(6)9-4(7)8-2/h1H,(H3-,6,7,8,9)/q-1/p+1	InChI=1S/C4H6FN4/c5-2-1-3(6)9-4(7)8-2/h1-2,6H,(H3,7,8,9)/t2-/m0/s1
