21
gdb 113235	4.41293	0.76497	0.72844	1.6139	85.34	-0.2582	0.0504	0.3085	1600.8191	0.179411	-387.039415	-387.028894	-387.027949	-387.07507	38.657	
C	-0.0215181315	 1.7368632902	 0.1275690267	-0.467169
C	-0.0666807646	 0.2200968928	 0.1214816103	 0.334065
C	-1.3978650278	-0.35257849	-0.3771219085	-0.426928
C	-1.7022452426	-0.0012958983	-1.7620302848	 0.323668
C	-1.9382932022	 0.2957649633	-2.9028399091	-0.458939
C	 1.1812708184	-0.5591536822	-0.2149963196	-0.311104
C	 0.6314375657	-0.592856423	 1.1924724769	-0.034531
C	 1.388078931	 0.0225611628	 2.3406394599	-0.111087
O	 2.3158227224	-0.9478337927	 2.8124241449	-0.417483
H	 0.961367458	 2.1183058024	 0.4131306767	 0.115078
H	-0.2501537608	 2.1223814367	-0.8712180496	 0.133888
H	-0.760402448	 2.1557726532	 0.821750393	 0.111618
H	-1.3834291295	-1.4450052232	-0.2801077862	 0.127338
H	-2.2119647298	-0.0001362443	 0.2717482141	 0.126238
H	-2.1526134733	 0.5507838841	-3.9109064892	 0.194126
H	 1.092790427	-1.4486133066	-0.8296560579	 0.112979
H	 2.0955658741	 0.0025007594	-0.3792048635	 0.109688
H	 0.1297061037	-1.51344272	 1.4819431789	 0.086176
H	 1.9072193739	 0.9363934829	 2.0158674445	 0.082907
H	 0.685642945	 0.3130392994	 3.1392112248	 0.084948
H	 2.7546801207	-0.5864666972	 3.5883524977	 0.284526
55.092	76.3262	116.4484	163.8007	206.2082	226.8108	264.4228	301.4758	341.7683	358.494	368.5515	420.4012	435.7938	611.141	615.2148	637.8392	716.4678	849.479	872.2249	907.7799	912.424	949.8471	972.3911	997.5717	1039.7646	1066.2502	1081.0837	1111.0147	1123.2449	1170.1298	1213.4491	1249.2557	1258.0942	1289.4241	1327.7729	1356.263	1410.4223	1420.97	1463.5125	1470.8811	1493.2078	1494.4527	1512.0184	1520.2569	2235.3865	2963.5798	3001.1297	3009.6038	3028.9451	3049.9989	3090.9002	3120.0196	3128.1118	3133.067	3211.1676	3506.2513	3824.8069
CC1(CC#C)CC1CO	C[C@@]1(CC#C)C[C@H]1CO	
InChI=1S/C8H12O/c1-3-4-8(2)5-7(8)6-9/h1,7,9H,4-6H2,2H3	InChI=1S/C8H12O/c1-3-4-8(2)5-7(8)6-9/h1,7,9H,4-6H2,2H3/t7-,8+/m0/s1
