16
gdb 44711	3.65787	1.25023	1.04796	1.311	68.76	-0.2339	-0.0393	0.1946	1107.8493	0.123964	-437.899268	-437.891685	-437.89074	-437.932635	28.288	
O	 0.0862843215	 0.2548337568	-1.1279107204	-0.27678
C	 0.0192976184	 1.217717238	-0.4270521772	 0.386749
C	-1.1007019849	 1.9377671785	 0.3402617911	-0.300844
N	-0.1320184984	 3.0106266791	 0.6854755615	-0.096424
C	 0.1182030385	 3.2839138248	 2.092207088	-0.295597
C	 1.4097782782	 2.5435384904	 2.4862394831	 0.386656
O	 1.9189874643	 2.5520267429	 3.5729536238	-0.288189
C	 1.9403044313	 1.7977083813	 1.2487907073	-0.36451
C	 1.0330025707	 2.2500429619	 0.0972241166	-0.111979
H	-1.957561159	 2.2715334557	-0.2543366529	 0.141335
H	-1.4753604135	 1.3513613877	 1.1935885033	 0.125079
H	 0.2614137233	 4.3554209699	 2.2842447518	 0.140561
H	-0.7055650485	 2.9544062201	 2.7358948502	 0.137034
H	 2.9971754085	 2.028540656	 1.0987550929	 0.149958
H	 1.8745056187	 0.7212237239	 1.4427002513	 0.153361
H	 1.5736920007	 2.8011761331	-0.6783155203	 0.11359
35.7669	67.9711	188.4446	335.3139	416.9306	441.135	454.3157	541.1188	573.7423	621.3708	688.0109	753.4097	782.8264	796.3847	869.7202	939.2816	987.9186	1022.1581	1054.5348	1091.7247	1117.0018	1120.9929	1150.5792	1194.7215	1228.1831	1241.7009	1263.7438	1275.6698	1297.3006	1319.5051	1451.7781	1460.1672	1478.0596	1854.7322	1915.7738	2992.357	3022.7631	3056.7003	3058.4664	3066.4588	3070.7377	3114.2569
O=C1CN2CC(=O)CC12	O=C1CN2CC(=O)C[C@@H]12	
InChI=1S/C6H7NO2/c8-4-1-5-6(9)3-7(5)2-4/h5H,1-3H2	InChI=1S/C6H7NO2/c8-4-1-5-6(9)3-7(5)2-4/h5H,1-3H2/t5-/m0/s1
