21
gdb 96149	2.80781	1.4346	1.04233	1.9437	78.69	-0.2403	0.0841	0.3244	1193.3669	0.183811	-424.217061	-424.208844	-424.207899	-424.249493	32.707	
C	 0.0369117048	 1.5479940858	 0.1055327311	-0.400578
C	-0.0073907786	 0.0287545246	-0.0076274713	 0.137587
C	 0.5607914468	-0.4771239331	-1.346472882	-0.220217
C	 0.1918551513	-1.9206619462	-1.6498180921	-0.057963
C	 1.2561433213	-2.9430057624	-2.0033377784	-0.327257
C	 0.5720841681	-3.0041880288	-0.673065083	 0.1096
O	 1.3317279578	-2.6618889239	 0.4518923678	-0.241391
C	 0.6456625446	-1.8369100921	 1.3689374768	 0.018643
O	 0.7492662232	-0.4717159584	 1.0980119691	-0.24244
H	 1.0627712825	 1.9097459045	-0.0173752055	 0.125216
H	-0.5882982673	 2.0107780394	-0.6635939761	 0.112116
H	-0.3214436329	 1.8665468149	 1.0876623068	 0.121947
H	-1.0509139613	-0.3160767867	 0.0944867652	 0.062912
H	 0.2000043219	 0.1647377895	-2.1587813293	 0.09652
H	 1.6479697741	-0.3538135979	-1.3045207157	 0.112601
H	-0.7748123467	-2.0491028404	-2.1301107732	 0.08536
H	 1.0344851851	-3.7093778306	-2.7375945684	 0.11241
H	 2.2850574982	-2.6002537346	-1.9962687132	 0.126585
H	-0.1398631798	-3.8101485247	-0.4942567545	 0.084492
H	-0.4138909888	-2.1426122717	 1.4250784696	 0.072995
H	 1.1334313757	-1.9854056975	 2.3354355464	 0.110861
127.2402	148.1098	221.002	278.3304	288.5643	326.6533	381.2867	385.5362	461.547	485.3438	595.7539	660.0318	779.1177	814.5964	824.0215	857.4902	896.6454	922.0202	986.4102	1022.7277	1035.0026	1053.6104	1084.1505	1104.8266	1124.2091	1130.9864	1138.1925	1166.8118	1168.7131	1211.0654	1252.6557	1262.6421	1308.251	1323.8163	1373.6191	1383.0822	1393.2184	1409.0435	1413.71	1450.5521	1466.6943	1482.8559	1487.1991	1495.8294	1501.7107	2947.416	2955.9493	3034.5967	3043.4343	3081.9302	3095.2657	3101.5073	3114.7846	3124.3506	3135.0098	3138.8405	3225.5969
CC1CC2CC2OCO1	C[C@H]1C[C@H]2C[C@H]2OCO1	
InChI=1S/C7H12O2/c1-5-2-6-3-7(6)9-4-8-5/h5-7H,2-4H2,1H3	InChI=1S/C7H12O2/c1-5-2-6-3-7(6)9-4-8-5/h5-7H,2-4H2,1H3/t5-,6-,7+/m0/s1
