18
gdb 92995	3.16243	1.05133	0.84073	3.3176	72.98	-0.2436	-0.0202	0.2234	1338.2564	0.147044	-439.110671	-439.10174	-439.100796	-439.146056	31.455	
C	-0.3134126283	 1.569906154	-0.0900753383	-0.404211
C	 0.0317641868	 0.0927973085	-0.0253517423	 0.094941
O	 0.9754919186	-0.2214989359	-1.0933546597	-0.229125
C	 1.9500194961	-0.9550851447	-0.5185518289	 0.120286
N	 1.9337795919	-1.1739959109	 0.7295253538	-0.274625
C	 0.7510700688	-0.4581370633	 1.2538249521	-0.022158
C	 1.193309468	 0.5898514534	 2.2940367626	-0.285689
C	 1.8603710014	-0.0593424051	 3.4912896346	 0.156242
O	 1.4957041927	 0.0983578359	 4.6291262831	-0.245142
H	 0.5650068196	 2.1962308236	 0.0852617128	 0.130323
H	-0.7168069807	 1.814420556	-1.0761973994	 0.133907
H	-1.0723700755	 1.8177971792	 0.6578508652	 0.130414
H	-0.8646654043	-0.5036101075	-0.2275043075	 0.10098
H	 2.7101010342	-1.3102257623	-1.2062946668	 0.145017
H	 0.0984200689	-1.1798766805	 1.7567631078	 0.102062
H	 1.9223868941	 1.2678544553	 1.8307591781	 0.121808
H	 0.3457027854	 1.1780294803	 2.6554758634	 0.119315
H	 2.7256282124	-0.7074217462	 3.2426657193	 0.105653
37.148	52.734	83.0467	180.9888	249.1895	261.7826	321.7677	406.8193	446.2961	526.3993	582.571	715.8326	797.0702	839.171	851.6102	870.3553	946.9363	971.288	1023.1898	1037.4689	1070.9722	1092.856	1138.8353	1147.9425	1160.7465	1223.1971	1278.2839	1309.1316	1324.5854	1351.5348	1376.6376	1388.157	1416.744	1420.8877	1457.134	1487.4787	1501.4459	1705.1454	1827.5778	2930.6904	3024.8093	3035.4376	3049.1524	3053.3487	3106.9317	3121.9847	3129.3551	3212.036
CC1OC=NC1CC=O	C[C@H]1OC=N[C@H]1CC=O	
InChI=1S/C6H9NO2/c1-5-6(2-3-8)7-4-9-5/h3-6H,2H2,1H3	InChI=1S/C6H9NO2/c1-5-6(2-3-8)7-4-9-5/h3-6H,2H2,1H3/t5-,6+/m1/s1
