14
gdb 75672	2.99404	1.34069	1.12408	3.755	69.96	-0.2744	-0.0319	0.2426	1065.5998	0.100686	-432.822856	-432.814915	-432.813971	-432.855467	29.27	
O	 0.1015518889	 1.4916572932	 0.110810145	-0.411273
C	-0.0102146038	 0.1042420814	 0.0356664029	-0.062741
C	 0.1626181968	-0.6362901237	 1.3666672593	 0.367179
N	 0.9871774058	-0.703602395	 2.3048995239	-0.491259
N	-1.0743674566	-1.3959282762	 1.25045489	-0.153191
C	-2.1359400112	-0.3611766528	 1.2598587434	-0.269394
C	-1.4034569396	-0.5645495943	-0.0099367812	 0.154072
C	-1.9822176204	-1.140434115	-1.182482186	 0.20222
N	-2.4313321852	-1.557042322	-2.1639275818	-0.326232
H	 0.1465788341	 1.8565298894	-0.7794011004	 0.304371
H	 0.6370178163	-0.3342121116	-0.7354818618	 0.124757
H	 1.7658813868	-0.0602615176	 2.1503320236	 0.244438
H	-3.132482484	-0.782540752	 1.3305570138	 0.160326
H	-1.9708609279	 0.5565363362	 1.8174959093	 0.156726
90.9259	142.5087	188.7896	228.57	284.9616	301.7934	429.2693	489.5127	517.5316	559.6449	650.6475	682.1511	713.4194	772.3364	844.7121	912.1631	934.9405	982.6648	982.965	1115.4617	1138.5055	1155.0273	1184.8035	1214.9992	1257.7512	1279.7682	1364.7756	1432.6134	1498.5182	1823.79	2351.6282	3028.1319	3126.4612	3227.0153	3472.9055	3814.3916
OC1C(=N)N2CC12C#N	O[C@H]1[C]([NH])N2C[C@@]12C#N	
InChI=1S/C5H5N3O/c6-1-5-2-8(5)4(7)3(5)9/h3,7,9H,2H2	InChI=1S/C5H5N3O/c6-1-5-2-8(5)4(7)3(5)9/h3,7,9H,2H2/t3-,5-,8?/m0/s1
