17
gdb 28513	3.14407	1.31942	0.93143	2.5656	82.27	-0.1666	0.0185	0.1852	1208.4918	0.137833	-418.072267	-418.06376	-418.062816	-418.104605	33.679	
N	 0.0120277807	 1.4229280694	-0.1289840696	-0.596345
C	 0.005366605	 0.0170158983	-0.0609181787	 0.308333
C	-1.1900890337	-0.70054056	 0.0068974043	-0.197317
C	-1.1805766208	-2.0936438016	 0.0003722597	-0.164927
C	 0.005330378	-2.8217218191	-0.066514524	 0.196344
N	 0.036967584	-4.2263837933	-0.1317537754	-0.598413
C	 1.2038498269	-2.0919074319	-0.1277289457	 0.365187
O	 2.3584087637	-2.8324990238	-0.1777532265	-0.464684
C	 1.205115552	-0.70324506	-0.127375463	-0.329637
H	 0.842871302	 1.842903527	 0.2657872218	 0.237823
H	-0.8111341758	 1.8434664997	 0.2806625148	 0.240213
H	-2.1353517018	-0.1693958077	 0.0598266642	 0.074865
H	-2.1222318806	-2.6331282264	 0.0495989333	 0.079689
H	-0.7125138535	-4.6661003886	 0.3848639254	 0.237856
H	 0.9320631795	-4.6029759422	 0.1499556769	 0.251336
H	 3.113182342	-2.2368545792	-0.2023148862	 0.294905
H	 2.1528083922	-0.1712394906	-0.1824633312	 0.064771
145.5247	228.3357	234.3991	258.3503	299.7089	311.0711	319.0846	367.7679	452.7427	456.1357	514.2521	585.1813	616.4947	666.6114	710.6971	732.3406	758.0475	801.7869	816.3392	825.0043	898.9488	976.0261	1080.952	1130.272	1159.8791	1190.252	1216.2043	1296.5664	1342.2842	1359.2192	1386.5641	1496.8973	1566.0564	1639.7092	1643.146	1654.7799	1679.1569	3140.3744	3160.1359	3178.6048	3543.5288	3545.2977	3636.916	3643.3627	3836.5564
NC1=CC=C(N)C(O)=C1	Nc1ccc(N)c(O)c1	
InChI=1S/C6H8N2O/c7-4-1-2-5(8)6(9)3-4/h1-3,9H,7-8H2	InChI=1S/C6H8N2O/c7-4-1-2-5(8)6(9)3-4/h1-3,9H,7-8H2
