18
gdb 110798	3.17817	1.05743	0.95753	1.74	75.5	-0.2534	0.0175	0.2708	1296.7854	0.14647	-439.040292	-439.031236	-439.030292	-439.074913	32.594	
C	 0.1409351713	 1.4138013585	-0.1346065467	-0.341597
N	-0.0336116675	-0.031065214	-0.1750132661	-0.340059
C	 0.6150092305	-0.7048272815	-1.0006243353	 0.481052
O	 1.5350948648	-0.2929050322	-1.987847008	-0.288947
C	 1.5769423366	-1.6478188706	-2.4994549173	 0.062805
C	 2.1459766537	-2.5786900392	-1.4834374039	-0.064984
C	 3.2171186043	-2.1892722948	-0.4875067741	-0.097114
O	 4.5135347714	-2.2474377577	-1.0606640463	-0.414818
C	 0.6748979574	-2.1456142818	-1.3899168342	-0.261513
H	 0.8083911185	 1.8062817058	-0.9103225919	 0.127593
H	-0.8387353053	 1.892979234	-0.2341787347	 0.130068
H	 0.5363179664	 1.6979279338	 0.8468704494	 0.131071
H	 1.5362120289	-1.7716707272	-3.5731137646	 0.123833
H	 2.2385149262	-3.5970801734	-1.8566451671	 0.110802
H	 3.0038448256	-1.1988012754	-0.0667568356	 0.111428
H	 3.2216699746	-2.9038522974	 0.3414137835	 0.118787
H	 4.5618503786	-1.5579990267	-1.7312489392	 0.287979
H	-0.1501257761	-2.8425175901	-1.3871454078	 0.123615
56.1297	89.1734	99.7122	178.4216	216.1756	261.1101	303.1645	335.097	456.3344	501.9575	603.0107	703.863	722.4191	774.7708	832.3292	892.0369	907.5173	949.5994	996.3856	1025.018	1045.9071	1059.9125	1070.8032	1078.084	1105.5505	1134.0864	1159.649	1175.3401	1238.8685	1284.7046	1306.5126	1379.2843	1413.3657	1439.1657	1442.6355	1492.872	1497.1732	1498.6332	1856.2196	3019.6451	3031.2893	3085.5956	3085.7611	3091.4506	3140.1652	3211.7432	3231.504	3812.796
CN=C1OC2C(CO)C12	CN=C1O[C@H]2[C@@H](CO)[C@@H]12	
InChI=1S/C6H9NO2/c1-7-6-4-3(2-8)5(4)9-6/h3-5,8H,2H2,1H3	InChI=1S/C6H9NO2/c1-7-6-4-3(2-8)5(4)9-6/h3-5,8H,2H2,1H3/t3-,4+,5-/m0/s1
