14
gdb 131192	3.58639	1.62672	1.12702	3.4359	71.92	-0.2122	-0.0363	0.1759	993.9941	0.103856	-432.870334	-432.863771	-432.862827	-432.901209	25.654	
O	 0.0853842735	 1.3729908404	 0.0212943832	-0.425926
C	 0.0713289042	 0.0304870358	-0.072894963	 0.217421
C	 0.0355502547	-0.7560302426	-1.2077736166	 0.308868
C	-0.0023925539	-0.8802014183	-2.6518151637	-0.222603
C	-0.0222089187	-2.1884570235	-2.9693238551	-0.100889
C	 0.0023067421	-3.0492837638	-1.7185730275	-0.232922
N	 0.0377591972	-2.018845493	-0.6891878189	 0.050509
N	 0.0717929973	-2.0400312795	 0.6378610695	-0.180364
N	 0.0921568004	-0.7743350273	 1.0181299514	-0.283533
H	 0.1111496317	 1.5812836904	 0.9644845638	 0.307678
H	-0.0126586408	-0.0479031001	-3.3400211436	 0.130784
H	-0.0514379307	-2.6142483272	-3.9621034047	 0.120896
H	-0.8875643995	-3.6800839393	-1.6130417714	 0.155038
H	 0.8852290126	-3.695623472	-1.6585078433	 0.155042
162.3024	211.7482	283.6625	361.6168	394.9402	475.3163	528.7778	635.4331	657.5981	678.8983	712.7591	759.2682	840.9096	879.5629	941.9775	945.2316	983.7268	1072.7896	1150.6437	1161.8132	1180.4318	1230.296	1271.4087	1285.0273	1346.6858	1366.933	1423.7452	1468.0626	1485.5189	1607.5067	1685.37	3043.2733	3078.7303	3234.6928	3255.994	3784.8008
OC1=C2C=CCN2N=N1	Oc1c2C=CCn2nn1	
InChI=1S/C5H5N3O/c9-5-4-2-1-3-8(4)7-6-5/h1-2,9H,3H2	InChI=1S/C5H5N3O/c9-5-4-2-1-3-8(4)7-6-5/h1-2,9H,3H2
