15
gdb 29662	2.39459	1.69888	1.00555	4.4517	64.4	-0.189	0.045	0.234	1106.3991	0.111813	-491.124584	-491.115323	-491.114379	-491.15891	32.272	
C	-0.1620280596	 1.4478056271	 0.0198923986	-0.342351
N	-0.0118988986	 0.0097472241	 0.0297737691	-0.152049
C	 0.0158191573	-0.7548899781	-1.1066530718	 0.481662
O	-0.0456797755	-0.4246463285	-2.2623709387	-0.415406
O	 0.1279753043	-2.0737489697	-0.6804522654	-0.246728
C	 0.1666230036	-2.0729143741	 0.6986329551	 0.316724
O	 0.3242140208	-3.248920532	 1.3299843713	-0.425922
C	 0.065890602	-0.8237463758	 1.17102515	 0.127638
N	-0.0570335373	-0.2957983437	 2.4626253214	-0.610806
H	 0.7720628986	 1.9553739687	 0.2874907983	 0.129404
H	-0.4412778667	 1.7378665127	-0.9938676121	 0.168998
H	-0.9403911968	 1.7493323169	 0.7251018994	 0.148006
H	-0.2675363362	-3.901849775	 0.9337857753	 0.311737
H	-0.3592446153	-1.0131374445	 3.1111642552	 0.257405
H	 0.8131251795	 0.0958682518	 2.8132435241	 0.251688
85.9446	92.1663	117.507	170.8742	247.463	261.0082	271.1758	300.2383	342.288	376.597	572.3788	618.6366	648.1909	684.0232	734.5977	750.3366	812.3185	945.583	1011.4942	1076.4407	1159.667	1180.8825	1223.984	1288.2581	1329.5115	1409.9752	1417.2237	1462.9714	1494.549	1518.2351	1652.4335	1808.5154	1887.2045	3031.3015	3101.2893	3154.5678	3485.5504	3591.1302	3763.6288
CN1C(=O)OC(O)=C1N	Cn1c(=O)oc(O)c1N	
InChI=1S/C4H6N2O3/c1-6-2(5)3(7)9-4(6)8/h7H,5H2,1H3	InChI=1S/C4H6N2O3/c1-6-2(5)3(7)9-4(6)8/h7H,5H2,1H3
