21
gdb 100921	2.20594	1.079	0.77184	2.5444	76.42	-0.2423	-0.0292	0.213	1517.637	0.17793	-461.357444	-461.346068	-461.345123	-461.395173	38.935	
C	 0.2842381566	 1.5193469242	 0.2214872498	-0.387118
C	 0.2159295865	-0.0066247653	 0.1305446789	-0.191595
C	 0.6183812905	-0.539665295	-1.2454071746	 0.108736
O	 1.9532920633	-0.1989926	-1.6030902585	-0.428487
C	 0.416176094	-2.0606160968	-1.361962146	 0.002726
O	-0.9765755302	-2.3082441184	-1.3440898258	-0.246965
C	-1.3203479084	-3.6628175243	-1.1117029569	-0.243476
C	 1.0173249839	-2.5658130683	-2.674302706	 0.153616
O	 1.9342137083	-3.3399569496	-2.7528602843	-0.247821
H	 1.2829441024	 1.8787400874	-0.040900154	 0.128365
H	-0.4286461687	 1.9865992171	-0.4665715344	 0.11828
H	 0.0480873449	 1.8648067942	 1.2321704722	 0.112526
H	 0.8777514921	-0.4585596107	 0.884434988	 0.084031
H	-0.7954040088	-0.3643401929	 0.3507317546	 0.118303
H	-0.0074284768	-0.0684676223	-2.0135679329	 0.102181
H	 2.5503706388	-0.6025750652	-0.962214619	 0.285933
H	 0.9266398979	-2.5807999343	-0.5341604199	 0.072741
H	-2.4109461826	-3.7186886384	-1.120341626	 0.134284
H	-0.9227386743	-4.3316284675	-1.8874457842	 0.123906
H	-0.9494930295	-4.0076643654	-0.1355328188	 0.115448
H	 0.49571881	-2.1721018084	-3.5762213421	 0.084386
39.1715	64.1256	89.0792	96.1852	150.5232	193.1133	204.5568	224.253	272.3924	305.3607	318.6819	376.3577	411.0706	483.1334	497.7018	581.5507	783.1135	871.7264	952.8552	985.1855	1023.2585	1026.3509	1078.64	1082.8389	1121.1654	1141.7518	1164.042	1183.766	1209.8608	1254.4906	1262.8847	1319.2087	1329.8803	1370.8746	1389.5606	1406.3394	1412.0104	1418.6188	1480.3969	1485.2075	1489.3357	1497.1896	1508.8708	1509.6052	1837.0667	2879.9927	2972.9403	2991.8994	3002.0289	3039.1106	3045.486	3046.0187	3077.1108	3105.1672	3121.4645	3124.8796	3792.8278
CCC(O)C(OC)C=O	CC[C@@H](O)[C@@H](OC)C=O	
InChI=1S/C6H12O3/c1-3-5(8)6(4-7)9-2/h4-6,8H,3H2,1-2H3	InChI=1S/C6H12O3/c1-3-5(8)6(4-7)9-2/h4-6,8H,3H2,1-2H3/t5-,6+/m1/s1
