21
gdb 81331	2.88231	1.37294	1.24747	1.492	77.5	-0.2482	0.073	0.3212	1107.7396	0.182541	-424.21152	-424.202901	-424.201956	-424.243831	35.056	
C	-0.1321989016	 1.5210241937	 0.0197396507	-0.46292
C	 0.057913759	 0.0049947503	 0.0297794978	 0.419512
O	-1.2217750719	-0.6305135401	 0.0082348223	-0.482019
C	 1.0097039839	-0.5461072105	-1.101146518	-0.278554
C	 2.0220555804	-1.3171111113	-0.2346157816	-0.063445
C	 1.0956972628	-2.0137730278	 0.8069092853	-0.267791
C	 0.8190838343	-0.5443503747	 1.2511866356	-0.082088
C	 2.3121838709	-0.2555116331	 0.8725533059	 0.183723
O	 3.2884081558	-0.5568673283	 1.8383162011	-0.458375
H	 0.8135531953	 2.0608980468	 0.1145066109	 0.122544
H	-0.5969000381	 1.8418324802	-0.9211878535	 0.104709
H	-0.7888212923	 1.8218549228	 0.8416616877	 0.124673
H	-1.6984905826	-0.3047999195	-0.7627807531	 0.272168
H	 0.4541688609	-1.1950461731	-1.7840558487	 0.096154
H	 1.4806971669	 0.2524224105	-1.6838024602	 0.094117
H	 2.8310526965	-1.8436979048	-0.7426834425	 0.06123
H	 0.2466449548	-2.5920897742	 0.4423230242	 0.116268
H	 1.6387144617	-2.6024201406	 1.5511434422	 0.080492
H	 0.4167692381	-0.289453455	 2.2322443706	 0.064005
H	 2.560040782	 0.752407136	 0.5289524776	 0.074538
H	 3.1133187031	-1.4299555574	 2.2032492856	 0.281057
176.2438	202.4286	223.2792	232.8997	275.6963	319.121	325.3166	372.0917	430.6106	467.6928	480.3723	544.1779	586.6431	756.3309	815.2481	837.7662	868.1027	905.9445	921.4355	942.7671	952.9542	966.1417	1009.3419	1038.0074	1040.9387	1072.1972	1093.5008	1134.0733	1146.0093	1179.0396	1216.2463	1218.2511	1240.1343	1252.5307	1264.192	1282.7478	1292.27	1323.3235	1380.8941	1405.3662	1445.994	1485.8902	1490.7272	1493.2232	1521.3135	3024.8045	3044.8391	3065.9412	3071.459	3092.1668	3096.1933	3106.9058	3114.2789	3121.1451	3135.2615	3803.1424	3820.6052
CC1(O)CC2CC1C2O	C[C@@]1(O)C[C@@H]2C[C@H]1[C@H]2O	
InChI=1S/C7H12O2/c1-7(9)3-4-2-5(7)6(4)8/h4-6,8-9H,2-3H2,1H3	InChI=1S/C7H12O2/c1-7(9)3-4-2-5(7)6(4)8/h4-6,8-9H,2-3H2,1H3/t4-,5-,6-,7+/m0/s1
