18
gdb 49770	2.41656	1.6689	1.07935	3.8994	80.89	-0.2066	-0.0024	0.2042	1114.8015	0.148408	-401.967605	-401.959685	-401.958741	-402.00041	30.46	
O	-0.0553707243	-0.0336150973	-0.002423617	-0.339888
C	-0.0099801132	 1.1805865745	 0.0068426469	 0.131895
N	 1.140367952	 1.9125380776	-0.0002123626	-0.11371
C	 2.421110779	 1.3383631172	-0.0190016504	 0.005898
C	 3.3840482482	 2.2590324966	-0.0219407769	-0.159966
C	 2.7869161065	 3.6462365258	-0.0037857662	-0.351678
C	 1.2717894988	 3.3710300987	 0.0100701527	 0.380848
C	 0.2956932487	 4.2410668201	-0.7306405633	-0.314322
C	 0.3116946357	 4.2291309323	 0.7847805225	-0.314375
H	-0.9160215846	 1.813583156	 0.0219011434	 0.075569
H	 2.4779300117	 0.260702237	-0.0285304456	 0.154921
H	 4.4443075365	 2.0547323668	-0.0352592167	 0.109858
H	 3.0989354676	 4.2204964953	 0.8781175725	 0.118769
H	 3.080081369	 4.2355265136	-0.8822226234	 0.11877
H	 0.6913995383	 5.1099965179	-1.2468961372	 0.122408
H	-0.538011336	 3.7638769911	-1.2346454294	 0.126291
H	-0.511296439	 3.7440743826	 1.2987719654	 0.126298
H	 0.718450025	 5.0898687441	 1.3061497453	 0.122415
57.0106	131.6963	210.0171	288.9652	312.6146	319.2297	432.4829	507.4489	519.9048	530.978	740.9799	769.4125	790.4021	843.9251	869.4252	881.9604	938.8101	952.6246	970.5116	986.541	1014.0279	1030.4831	1059.2091	1081.134	1083.2659	1187.8445	1188.7966	1191.9881	1253.5528	1290.9065	1317.2388	1370.6072	1431.067	1448.883	1462.2632	1493.6898	1502.5344	1688.3363	1779.7041	2960.7371	3012.2143	3036.1793	3127.2345	3129.198	3208.8362	3222.2744	3242.7651	3273.4934
O=CN1C=CCC11CC1	O=CN1C=CCC21CC2	
InChI=1S/C7H9NO/c9-6-8-5-1-2-7(8)3-4-7/h1,5-6H,2-4H2	InChI=1S/C7H9NO/c9-6-8-5-1-2-7(8)3-4-7/h1,5-6H,2-4H2
