20
gdb 118657	1.92524	1.15487	0.86372	4.1585	76.82	-0.2646	0.0185	0.2831	1444.1027	0.168038	-440.275042	-440.264249	-440.263305	-440.312032	36.671	
C	 0.2161799702	 1.4919256453	-0.4513602842	-0.387862
C	 0.3617066311	 0.0090808881	-0.1635234489	-0.05237
O	 0.5544990243	-0.6670635579	-1.4049648973	-0.24406
C	 0.6484986338	-2.0678956787	-1.3034589166	-0.025275
C	 0.6225748292	-2.6817321773	-2.7168170483	-0.094505
O	 1.8050184077	-2.5241601293	-3.4473384351	-0.225091
C	 1.9790052041	-1.2573004358	-4.062432965	-0.235295
C	 1.8632313376	-2.4831400989	-0.5645378192	 0.27804
N	 2.7969734381	-2.79051645	 0.0422566663	-0.32599
H	 1.1187230308	 1.8809442179	-0.9306514996	 0.134371
H	-0.6340203477	 1.676099229	-1.1139998504	 0.128663
H	 0.0560441614	 2.0409063233	 0.4810053278	 0.124748
H	 1.2148771288	-0.1798224135	 0.5029582211	 0.12196
H	-0.5401951602	-0.3865758603	 0.3304410777	 0.095208
H	-0.2194003765	-2.4688352256	-0.7508168852	 0.112044
H	 0.4632738358	-3.7600274234	-2.61033732	 0.124452
H	-0.2442812501	-2.2465831187	-3.2376092727	 0.105683
H	 1.1165843844	-1.0041533338	-4.6971745831	 0.105081
H	 2.1181191277	-0.4584111518	-3.3273342717	 0.130192
H	 2.8696548493	-1.3379510386	-4.6895163456	 0.130006
53.72	72.8081	94.9817	98.4957	130.3125	191.2461	224.0291	233.7683	261.0628	330.207	378.0639	405.7309	449.8767	615.614	692.0157	822.5085	834.8084	862.6823	940.0257	982.9707	1036.5792	1079.3639	1139.2307	1141.946	1181.0537	1186.0455	1188.6547	1229.4098	1300.6079	1302.6353	1334.0268	1359.6855	1404.1907	1406.3986	1437.1997	1465.7717	1482.931	1484.1092	1492.0622	1499.6824	1512.9958	1526.5621	2356.0255	2956.0701	2978.8011	2992.4712	2997.4706	3029.0104	3047.9897	3079.5835	3080.0892	3123.75	3125.4721	3127.4942
CCOC(COC)C#N	CCO[C@@H](COC)C#N	
InChI=1S/C6H11NO2/c1-3-9-6(4-7)5-8-2/h6H,3,5H2,1-2H3	InChI=1S/C6H11NO2/c1-3-9-6(4-7)5-8-2/h6H,3,5H2,1-2H3/t6-/m1/s1
