19
gdb 74815	3.54178	1.16431	0.99431	0.9869	89.3	-0.2224	0.0179	0.2403	1246.4832	0.158418	-348.730643	-348.722097	-348.721152	-348.763356	33.683	
C	 0.0664653482	 1.4872961145	 0.0464807291	-0.489232
C	-0.0060788454	-0.0053810799	-0.015162956	 0.312627
C	-0.0527122003	-0.7734112601	-1.1094182243	-0.177993
C	-0.0363096227	-2.2282865637	-0.7929895295	-0.113443
C	 1.1969590115	-2.7253589938	-0.08051886	-0.311461
C	-0.0066402798	-2.2993507991	 0.7445374791	 0.174856
C	-0.0306096562	-0.8478066962	 1.2480551276	-0.383143
C	-0.7325260381	-3.2961273895	 1.4701398331	 0.179506
C	-1.3470956148	-4.1181592682	 2.0991111024	-0.40551
H	 0.9863558206	 1.8235431796	 0.5418911335	 0.125657
H	 0.0392980964	 1.9323965588	-0.9518135554	 0.124276
H	-0.7675672514	 1.9008157897	 0.6281472887	 0.125818
H	-0.0614002706	-0.4000664922	-2.1278407831	 0.091029
H	-0.6263052369	-2.9306050216	-1.3707186032	 0.100558
H	 1.401587254	-3.7899359563	-0.1028929498	 0.122083
H	 2.0729414324	-2.0842133072	-0.0746708198	 0.112351
H	 0.816748138	-0.6276386467	 1.9101068971	 0.111563
H	-0.9388207966	-0.6573900853	 1.8343418193	 0.117133
H	-1.8875502085	-4.8478574928	 2.6487024712	 0.183323
109.6053	142.366	177.715	210.6028	309.3546	324.8307	394.7553	463.9652	482.0852	519.1325	555.7034	574.2646	640.4298	646.5695	736.5748	814.0982	848.3286	866.7571	892.4897	934.4922	969.9951	995.7193	1015.7456	1057.5543	1064.6699	1077.7037	1089.7976	1175.1437	1192.6308	1234.2153	1258.5216	1297.4519	1341.7298	1381.023	1414.489	1466.2715	1477.96	1480.2738	1489.7111	1708.7485	2232.8105	3014.5076	3020.6941	3048.9254	3060.4271	3110.3675	3124.8241	3175.4985	3189.9712	3221.0225	3505.1485
CC1=CC2CC2(C1)C#C	CC1=C[C@H]2C[C@]2(C1)C#C	
InChI=1S/C9H10/c1-3-9-5-7(2)4-8(9)6-9/h1,4,8H,5-6H2,2H3	InChI=1S/C9H10/c1-3-9-5-7(2)4-8(9)6-9/h1,4,8H,5-6H2,2H3/t8-,9+/m0/s1
