17
gdb 67676	2.56352	1.96625	1.41789	2.0899	73.17	-0.2388	0.0147	0.2535	939.9648	0.137806	-417.971964	-417.964706	-417.963762	-418.003407	29.015	
O	 0.0366314665	 1.3933969919	-0.1232878614	-0.457183
C	 0.0729481918	 0.0306001539	-0.0052781275	 0.342245
C	-0.1676091569	-0.8520534273	-1.2346546266	-0.092421
C	 0.727440563	-2.0721955275	-1.4437783124	-0.256789
C	 0.4963809062	-2.8774135747	-0.1299631539	-0.176039
N	-0.1539306132	-1.929430529	 0.8150530853	-0.161008
C	-1.0243481264	-1.0565658007	-0.0249129106	-0.133358
C	 0.7292765344	-0.7812481895	 1.0431051577	 0.295946
N	 1.6019464234	-0.5204591579	 1.913108476	-0.568363
H	 0.0743926851	 1.7644694016	 0.766738965	 0.302581
H	-0.5677278178	-0.3021493617	-2.0800181872	 0.10949
H	 0.4187572057	-2.6382012335	-2.327793398	 0.107688
H	 1.776705645	-1.7930590634	-1.5760478586	 0.119587
H	-0.1820060722	-3.7196597805	-0.2922634712	 0.113394
H	 1.4180713396	-3.261543256	 0.3126539156	 0.117134
H	-2.0971353512	-1.0074566887	 0.0949966834	 0.112959
H	 1.734086747	-1.314904667	 2.5430557745	 0.224138
120.032	209.9186	244.8043	255.9992	337.4968	410.0523	491.8522	589.2647	645.4872	692.9112	731.312	793.5205	842.4749	849.9903	870.5734	880.9059	896.236	919.9127	938.1636	955.9225	992.3069	1024.6063	1071.3424	1114.3892	1141.2847	1203.4726	1222.7194	1234.5898	1256.2537	1285.194	1317.3135	1349.13	1368.7821	1455.6977	1489.4321	1503.9575	1800.4261	3053.8476	3064.0349	3094.2827	3120.2188	3181.654	3221.779	3456.3522	3790.116
OC12C3CCN(C13)C2=N	O[C@]12[C@H]3CCN([C@@H]13)[C]2[NH]	
InChI=1S/C6H8N2O/c7-5-6(9)3-1-2-8(5)4(3)6/h3-4,7,9H,1-2H2	InChI=1S/C6H8N2O/c7-5-6(9)3-1-2-8(5)4(3)6/h3-4,7,9H,1-2H2/t3-,4+,6+/m0/s1
