21
gdb 23012	2.21294	1.2178	0.99008	1.3356	81.85	-0.2421	0.0079	0.25	1322.9707	0.180883	-420.345685	-420.335391	-420.334447	-420.381585	37.463	
C	 0.2096380468	 1.7553567794	 0.7165940788	-0.379403
C	 0.2130686309	 0.3218467943	 0.1522546136	-0.257171
C	 0.5602782336	-0.7037294827	 1.2033070305	 0.352767
N	-0.2578256044	-1.1932260889	 2.0556236598	-0.176345
O	-1.5524037217	-0.6646626679	 1.9047997183	-0.395793
C	 1.958078075	-1.2366783415	 1.2544184157	-0.120054
N	 3.038847283	-0.2372858022	 1.3695369444	-0.335776
C	 2.8282973872	-1.2079269151	 2.4601232301	 0.019797
C	 2.3997612854	-0.6594340417	 3.7977903624	-0.386512
H	 1.1938394215	 2.0101193727	 1.1172570144	 0.141045
H	-0.0423093315	 2.4742163722	-0.0693508285	 0.107955
H	-0.5303239713	 1.8478672011	 1.5153718149	 0.131852
H	-0.7745657104	 0.0871810158	-0.2557170598	 0.122233
H	 0.9427292224	 0.2520103531	-0.6606530084	 0.097275
H	-2.0401289302	-1.1333097309	 2.5899046741	 0.305088
H	 2.1292923033	-2.0610219522	 0.5606738418	 0.094599
H	 3.8308360479	-0.5040227489	 0.7915603506	 0.230672
H	 3.545424512	-2.0263306249	 2.5205851059	 0.081269
H	 1.7293665096	 0.192223754	 3.6730569394	 0.13214
H	 1.8757251758	-1.4249728972	 4.3782554701	 0.123486
H	 3.273812695	-0.3289782983	 4.3694094418	 0.110875
33.2877	79.7625	128.0998	159.0898	199.893	225.4698	260.849	297.7734	322.039	382.4882	406.5703	438.2625	519.4281	612.0052	670.848	777.7904	798.5276	811.4774	857.9091	918.2669	969.5464	982.0759	1014.5539	1018.1594	1069.0747	1090.5733	1093.3758	1145.7809	1184.7181	1220.4654	1257.5959	1277.2474	1292.2996	1348.7733	1383.471	1397.0724	1409.9315	1434.3946	1465.6907	1480.0334	1487.6044	1496.1129	1498.8535	1513.2506	1719.8397	3040.7268	3044.1143	3047.5542	3087.7254	3093.7625	3103.8612	3106.8713	3115.8484	3135.2083	3143.5936	3506.143	3822.8671
CCC(=NO)C1NC1C	CCC(=NO)[C@H]1N[C@H]1C	
InChI=1S/C6H12N2O/c1-3-5(8-9)6-4(2)7-6/h4,6-7,9H,3H2,1-2H3	InChI=1S/C6H12N2O/c1-3-5(8-9)6-4(2)7-6/h4,6-7,9H,3H2,1-2H3/t4-,6-/m0/s1
