19
gdb 124688	3.83379	0.89143	0.86372	1.9317	77.17	-0.2352	0.0238	0.2589	1398.8054	0.160417	-419.224447	-419.215277	-419.214333	-419.259212	33.312	
C	-0.0133946148	 1.5958222546	-0.0581667143	-0.389291
C	 0.0332635459	 0.0591972522	-0.0211426916	-0.107155
C	 0.6858401484	-0.5064200351	-1.2905865586	-0.06889
O	-0.0822438618	-0.0901806146	-2.4099807207	-0.421496
C	 0.7324106679	-0.4660783375	 1.2031458735	 0.22258
C	 0.2443402654	-1.357700606	 2.1387750821	-0.151583
N	 1.2278548396	-1.546505889	 3.0523743696	-0.178419
N	 2.3398171903	-0.838042156	 2.785342158	-0.225089
C	 2.0428483877	-0.1834028029	 1.6663194994	-0.086659
H	 0.997751713	 2.018448217	-0.0538573875	 0.110503
H	-0.5186081685	 1.9372109144	-0.9642195223	 0.131645
H	-0.542337625	 1.9901949696	 0.8140647396	 0.11272
H	-0.9988826066	-0.3135639596	-0.0129092238	 0.080076
H	 1.7244933637	-0.1435142957	-1.3600132738	 0.085333
H	 0.7255545373	-1.6040526497	-1.2188339748	 0.087072
H	 0.3529981216	-0.4029770418	-3.2079506057	 0.287099
H	-0.710142595	-1.8546847941	 2.2179915551	 0.132109
H	 1.2058242791	-2.1283085786	 3.8722493756	 0.273341
H	 2.7789012517	 0.4754921927	 1.2284356501	 0.106105
37.1746	106.1537	119.0971	200.3521	234.2919	238.7653	289.0647	366.9387	401.3415	476.2868	511.9307	674.4261	702.7708	718.3792	795.8979	877.5264	889.8533	927.9565	952.8922	990.3137	1032.7653	1068.121	1074.5488	1103.1395	1158.8615	1172.2583	1228.6503	1245.7012	1262.6164	1286.8231	1349.0591	1365.2535	1387.9008	1400.6768	1422.5734	1452.6145	1489.5026	1495.0918	1502.5894	1517.8726	1609.9735	2965.3116	2999.6935	3029.4599	3038.409	3103.9932	3132.1357	3239.9629	3255.5931	3677.3243	3834.9461
CC(CO)C1=CNN=C1	C[C@@H](CO)c1c[nH]nc1	
InChI=1S/C6H10N2O/c1-5(4-9)6-2-7-8-3-6/h2-3,5,9H,4H2,1H3,(H,7,8)	InChI=1S/C6H10N2O/c1-5(4-9)6-2-7-8-3-6/h2-3,5,9H,4H2,1H3,(H,7,8)/t5-/m0/s1
