18
gdb 96912	4.86883	1.03665	0.92248	3.4884	87.8	-0.2175	-0.0294	0.1881	1305.8077	0.147241	-401.951841	-401.943533	-401.942589	-401.984853	31.448	
C	-0.0543904214	 1.3603155668	-0.1259280747	-0.325328
N	 0.0940969029	-0.0715009447	-0.0051501523	-0.296299
C	 0.6413691015	-0.5704161333	 1.0178560382	 0.374379
O	 0.7651306797	-1.9422048933	 1.0968168514	-0.271069
C	 1.3985177964	-2.2838576981	 2.309205171	 0.414391
C	 0.9683810303	-3.5663766373	 2.9793275567	-0.323095
C	 2.314077585	-3.4841058573	 2.2994893013	-0.323096
C	 1.6730435015	-1.018650983	 3.0057214088	-0.157843
C	 1.2294907618	-0.0090639213	 2.2498517449	-0.216421
H	 0.449823677	 1.7033564487	-1.037726037	 0.125963
H	-1.1163197339	 1.6077519209	-0.2458174662	 0.125958
H	 0.3350132895	 1.952253862	 0.7156453334	 0.094912
H	 0.926139297	-3.5889048864	 4.0626948926	 0.12271
H	 0.1836805548	-4.1182857919	 2.4752130563	 0.141504
H	 2.4249849696	-3.9812622943	 1.3429200225	 0.141505
H	 3.2105945735	-3.449242559	 2.9086022445	 0.122711
H	 2.1576403986	-0.9638408972	 3.9715817253	 0.124969
H	 1.2780188262	 1.0452037287	 2.4734419332	 0.124149
88.1466	99.5064	212.4439	216.7586	234.8931	307.2594	342.6908	469.5055	530.9465	586.5844	670.4621	699.1089	767.0332	801.8717	856.888	897.7227	898.8667	927.5246	932.9975	948.7849	994.3513	1055.4571	1071.3364	1087.6661	1119.4826	1132.0042	1144.6678	1194.09	1207.682	1294.0146	1312.88	1407.451	1451.1632	1452.1794	1482.3325	1488.6294	1504.2604	1639.5027	1771.943	2987.117	3051.9658	3062.8802	3138.1037	3139.9619	3221.752	3225.7041	3240.0143	3262.8981
CN=C1OC2(CC2)C=C1	C[N]C1=C[CH]C2(O1)CC2	
InChI=1S/C7H9NO/c1-8-6-2-3-7(9-6)4-5-7/h2-3H,4-5H2,1H3	InChI=1S/C7H9NO/c1-8-6-2-3-7(9-6)4-5-7/h2-3H,4-5H2,1H3
