14
gdb 26986	3.38018	1.32143	0.9761	1.8953	67.77	-0.2123	0.0062	0.2185	1116.5457	0.102249	-432.912258	-432.904293	-432.903349	-432.94538	28.838	
N	-0.0985678131	 1.2704683118	-0.4953770173	-0.607814
C	-0.1218344367	-0.0715915507	-0.1897021672	 0.311002
C	-1.0902452895	-1.0226675098	-0.0369123171	 0.181843
C	-2.5777245729	-0.9515088659	-0.2309889204	-0.449178
C	-2.9626887583	 0.1126145338	-1.1584652281	 0.268044
N	-3.2117916868	 0.9828243794	-1.8777646758	-0.322838
N	-0.4858154399	-2.2083239516	 0.3789330435	-0.30255
C	 0.7675310137	-1.9316494705	 0.4530113156	 0.051511
O	 1.0748535569	-0.6419083018	 0.1203357192	-0.172575
H	 0.7617653385	 1.5670826943	-0.9366698952	 0.263768
H	-0.9140130132	 1.5853521406	-1.0064840754	 0.281807
H	-2.9331582568	-1.910800125	-0.6233838346	 0.176763
H	-3.1100586732	-0.78967244	 0.7165769691	 0.167136
H	 1.5924134915	-2.5665765946	 0.7305977438	 0.153081
47.0885	124.9193	219.1861	266.0211	276.1486	314.5786	380.3656	440.4688	489.6045	645.5421	663.5014	717.5633	732.4473	766.2986	781.9513	944.2884	949.4621	954.7231	1032.8536	1111.0733	1166.4675	1226.722	1264.0322	1301.5663	1340.055	1442.6324	1462.9532	1575.2888	1633.7724	1697.4193	2356.8093	3016.1373	3071.977	3289.8132	3539.1403	3639.4657
NC1=C(CC#N)N=CO1	Nc1c(CC#N)nco1	
InChI=1S/C5H5N3O/c6-2-1-4-5(7)9-3-8-4/h3H,1,7H2	InChI=1S/C5H5N3O/c6-2-1-4-5(7)9-3-8-4/h3H,1,7H2
