25
gdb 121235	2.90764	0.80209	0.67906	1.7065	89.75	-0.2389	0.0816	0.3206	1801.3117	0.227955	-389.486198	-389.475392	-389.474448	-389.523319	38.727	
C	 0.2157965412	 1.5604049359	 0.019512309	-0.383464
C	 0.0472733655	 0.0509510134	 0.207963433	-0.166671
C	-1.3136219474	-0.4669348549	-0.2747249284	-0.181876
C	-1.4754479402	-1.9590971434	-0.0332230893	 0.121232
O	-1.4608668508	-2.292201453	 1.3787125496	-0.294458
C	-2.72495171	-2.9757757071	 1.2871218645	-0.076313
C	-2.8612632249	-2.645806758	-0.2166002251	-0.046667
C	-4.0677794816	-1.8137968819	-0.6408762837	-0.191296
C	-5.3673608136	-2.6265549953	-0.6330746248	-0.387277
H	 1.1943337558	 1.8993264961	 0.3739519333	 0.111271
H	 0.1280912113	 1.8428163396	-1.0359363181	 0.109802
H	-0.5488603298	 2.1164736444	 0.5734371674	 0.11348
H	 0.8462029091	-0.4788095201	-0.3278074419	 0.091128
H	 0.1620259717	-0.2094736163	 1.2661193874	 0.119527
H	-2.1134862699	 0.0780566022	 0.2405144571	 0.0947
H	-1.4308346309	-0.2666807778	-1.3490579495	 0.089927
H	-0.6670987699	-2.4962137629	-0.5527350583	 0.065568
H	-2.6362046948	-4.0393789618	 1.5419975321	 0.096259
H	-3.4836673021	-2.5206234359	 1.9389426246	 0.093938
H	-2.7960431264	-3.534244518	-0.8525960232	 0.0721
H	-4.1766360489	-0.9492433707	 0.024971381	 0.101778
H	-3.8970339842	-1.4083986222	-1.6461746123	 0.098236
H	-6.2227448597	-2.0105525395	-0.9264228485	 0.114532
H	-5.3098356417	-3.4719817784	-1.3276168869	 0.115521
H	-5.5773237678	-3.0316729142	 0.363060261	 0.119024
37.2199	83.6872	97.4989	101.3154	117.5691	200.4015	233.3601	250.698	286.924	324.7013	393.1116	477.8188	505.1902	738.8543	761.8946	808.6734	818.3039	871.4277	895.7517	914.1867	954.6992	971.3015	984.5853	1032.0909	1049.2546	1059.0688	1079.614	1123.1278	1140.5047	1158.6396	1167.3708	1196.3177	1251.5615	1259.2215	1277.4341	1299.3564	1309.3702	1327.7236	1340.6258	1367.5443	1383.2312	1404.8417	1408.4531	1412.8154	1415.9178	1471.0481	1487.7707	1493.9293	1499.9495	1500.0989	1506.4676	1510.0087	1526.928	2977.3119	2998.4869	3011.4193	3020.5394	3024.9643	3027.5665	3030.434	3036.2969	3049.7451	3056.0432	3065.9341	3073.3271	3096.2522	3097.9736	3100.4651	3104.6298
CCCC1OCC1CC	CCC[C@H]1OC[C@H]1CC	
InChI=1S/C8H16O/c1-3-5-8-7(4-2)6-9-8/h7-8H,3-6H2,1-2H3	InChI=1S/C8H16O/c1-3-5-8-7(4-2)6-9-8/h7-8H,3-6H2,1-2H3/t7-,8-/m1/s1
