19
gdb 117055	4.33554	0.81385	0.69418	2.6439	76.35	-0.2615	-0.0271	0.2344	1645.1344	0.157532	-456.351159	-456.340922	-456.339978	-456.387645	35.475	
C	 0.0326199824	 1.4784538905	-0.0787880598	-0.389348
C	 0.0112152402	-0.0364169218	-0.0113630374	-0.034721
O	 0.6781719054	-0.5281561578	-1.184282734	-0.226273
C	 0.7590211387	-1.8552276601	-1.302986818	 0.373663
N	 0.2822751481	-2.6580630304	-0.4420028287	-0.534189
C	 1.4777657731	-2.2515949007	-2.5714431427	 0.325156
N	 1.9225701766	-1.3892205922	-3.3831714656	-0.505805
O	 1.5395340872	-3.6071258596	-2.6485725907	-0.237929
C	 2.1824583104	-4.1710683831	-3.780841294	-0.269882
H	 1.059620499	 1.8532678975	-0.1036128182	 0.130538
H	-0.4842124092	 1.8364559519	-0.9735188504	 0.130551
H	-0.4674356552	 1.8953263644	 0.8006372936	 0.117645
H	 0.5252597217	-0.4185635793	 0.877332453	 0.119307
H	-1.0087077477	-0.4354724952	 0.0121349139	 0.119324
H	 0.4573364013	-3.6166912706	-0.7344879289	 0.237652
H	 2.3828697787	-1.8056628564	-4.1917054103	 0.223334
H	 3.2344925899	-3.8661187872	-3.8340749194	 0.136757
H	 2.1249208338	-5.2523761633	-3.6540902132	 0.14746
H	 1.6746497855	-3.8857346265	-4.7099836092	 0.136758
31.2398	81.7566	96.7821	130.1252	146.1683	213.3771	253.1189	267.3006	346.2192	367.7226	416.0725	481.6301	525.5118	713.9879	791.5432	810.6659	865.915	866.9742	886.9066	895.3535	1000.1989	1057.704	1129.2203	1132.3769	1145.3944	1176.7219	1182.6835	1219.7402	1289.0667	1296.6268	1376.0527	1411.0676	1445.2742	1475.3537	1484.7439	1490.7181	1495.7125	1504.9266	1519.7373	1705.2816	1736.2876	3016.9174	3042.537	3046.2541	3078.6882	3081.5324	3120.0733	3125.8714	3148.5613	3494.894	3529.8439
CCOC(=N)C(=N)OC	CCOC(=C([NH])OC)[NH]	
InChI=1S/C5H10N2O2/c1-3-9-5(7)4(6)8-2/h6-7H,3H2,1-2H3	InChI=1S/C5H10N2O2/c1-3-9-5(7)4(6)8-2/h6-7H,3H2,1-2H3
