17
gdb 112142	3.37198	1.0578	0.83274	4.4643	70.06	-0.2373	-0.0911	0.1462	1334.7091	0.133961	-458.987746	-458.978942	-458.977998	-459.021902	31.659	
C	 0.0775313342	 1.3984804307	 0.0253645527	-0.244404
O	-0.1531210201	 0.0122071171	-0.1205475032	-0.238046
C	 0.5529290766	-0.5833710082	-1.1826905076	 0.105979
C	 2.0691271059	-0.7660222347	-0.9252642444	-0.362724
C	 2.4641776681	-1.9951112911	-1.7314588115	 0.313212
O	 3.5563926241	-2.3226722449	-2.1041427289	-0.274659
C	 1.1503172282	-2.7876841745	-2.02782272	 0.312228
O	 1.1011047638	-3.8123889291	-2.6502009063	-0.276834
C	 0.0099510348	-2.0046792454	-1.4005751377	-0.359477
H	 1.1187854694	 1.622116126	 0.2982318585	 0.112999
H	-0.1654843129	 1.9470544637	-0.8974062247	 0.111559
H	-0.5765315956	 1.7479971904	 0.8269765822	 0.136233
H	 0.4144437661	 0.0111134183	-2.1007859999	 0.083932
H	 2.6951953463	 0.0946572615	-1.1666669445	 0.136922
H	 2.212376175	-1.0014672937	 0.1390229731	 0.148027
H	-0.2032503991	-2.4413064649	-0.4148236079	 0.152929
H	-0.906971305	-2.055417471	-1.9896961499	 0.142124
73.4855	89.5995	109.5915	184.7391	249.5612	311.0852	349.8336	380.9929	434.24	492.7555	549.2939	611.5309	647.4269	710.3796	849.6787	889.0131	919.2434	998.8118	1031.8316	1098.1647	1139.0632	1156.6157	1164.203	1178.5912	1190.9648	1232.1259	1248.0953	1276.7328	1347.5991	1395.4281	1436.6474	1451.559	1481.0901	1490.2951	1509.4549	1843.0081	1866.3721	2967.0766	2983.9032	3026.0069	3033.4609	3034.857	3119.3178	3123.7167	3124.7128
COC1CC(=O)C(=O)C1	COC1CC(=O)C(=O)C1	
InChI=1S/C6H8O3/c1-9-4-2-5(7)6(8)3-4/h4H,2-3H2,1H3	InChI=1S/C6H8O3/c1-9-4-2-5(7)6(8)3-4/h4H,2-3H2,1H3
