18
gdb 52452	8.82224	0.43285	0.42273	5.422	73.88	-0.2722	0.0016	0.2738	2427.2991	0.145127	-476.233391	-476.222984	-476.22204	-476.272159	33.538	
N	-0.3347506903	 1.2229116264	 0.4145877812	-0.432544
C	-0.182540138	-0.0018370006	 0.1562480912	 0.129566
O	-1.2513843231	-0.8240372559	 0.1403055024	-0.181422
C	-0.9843024898	-2.1996379989	-0.1214574854	-0.078011
C	-2.323695954	-2.9210399838	-0.1795707367	-0.204621
C	-2.1561170726	-4.4141605514	-0.4407660118	-0.091268
O	-3.4355774136	-5.0352135052	-0.5965537857	-0.173467
C	-3.8798474424	-5.8333898574	 0.3942584561	 0.172491
O	-4.9440142512	-6.3709178208	 0.3628119655	-0.267701
H	 0.5630036762	 1.7011393033	 0.3797147189	 0.231878
H	 0.7656294695	-0.5088173384	-0.0731926425	 0.084619
H	-0.4442650258	-2.3059936259	-1.0732397217	 0.112095
H	-0.3492588177	-2.6166410617	 0.6736558412	 0.110357
H	-2.8562064998	-2.7670350323	 0.7649907233	 0.128929
H	-2.9382861071	-2.481143989	-0.9709381201	 0.139955
H	-1.6099596195	-4.5950846113	-1.372195408	 0.129186
H	-1.600476224	-4.8993346615	 0.373358907	 0.113001
H	-3.1492787369	-5.9347216558	 1.221834735	 0.076957
25.0488	32.4602	69.7188	83.0124	107.4507	137.2559	166.3907	287.8711	297.5062	381.285	488.411	619.499	689.6849	768.1916	822.9739	878.4166	992.7484	1038.1013	1044.3535	1045.9586	1060.2195	1095.7329	1130.3284	1148.3345	1196.4501	1262.1073	1282.6874	1305.5315	1314.661	1334.3711	1408.8374	1415.4879	1434.5549	1440.3667	1494.679	1508.1983	1523.3294	1752.8118	1871.9689	2936.5369	2987.0045	3014.9547	3017.7984	3028.2211	3055.5648	3075.7234	3109.1063	3521.3817
N=COCCCOC=O	[NH][CH]OCCCOC=O	
InChI=1S/C5H9NO3/c6-4-8-2-1-3-9-5-7/h4-6H,1-3H2	InChI=1S/C5H9NO3/c6-4-8-2-1-3-9-5-7/h4-6H,1-3H2
