20
gdb 118905	3.31523	1.03109	0.98251	2.1877	75.85	-0.2456	0.0269	0.2725	1316.3759	0.169969	-440.293144	-440.283725	-440.28278	-440.327956	33.876	
C	-0.1485252412	 1.4415724155	 0.0029148061	-0.227583
O	-0.1062745928	 0.0343328818	-0.0094396561	-0.23418
C	 0.6652719565	-0.4836666784	-1.0627475318	-0.085265
C	 0.6910809634	-2.0071538256	-0.993887774	 0.339323
C	-0.7007828986	-2.6137309385	-0.86606327	-0.433174
C	 1.5391491395	-2.6104204665	-2.1548492955	-0.236762
N	 2.6567148963	-3.3149043762	-1.5086041836	-0.266126
C	 2.5051438377	-3.1201449514	-0.2653946352	 0.113408
O	 1.4623016227	-2.3944819231	 0.1913688169	-0.24871
H	 0.8552803135	 1.8784429565	 0.1219787943	 0.108451
H	-0.5909322923	 1.8451607695	-0.9218800992	 0.104437
H	-0.7675429961	 1.7417049348	 0.8514502582	 0.13117
H	 0.2472934	-0.1827566132	-2.0405003739	 0.08802
H	 1.7002123269	-0.1054512086	-1.0177355411	 0.095308
H	-1.3027307332	-2.3606168964	-1.745209112	 0.116725
H	-0.6312552088	-3.7029890706	-0.7988490056	 0.123115
H	-1.2059427387	-2.229397931	 0.0211416479	 0.147509
H	 0.9565317924	-3.307437899	-2.7666476368	 0.11588
H	 1.9295269283	-1.8372358018	-2.8282602235	 0.111406
H	 3.1625363346	-3.4973268678	 0.5108955352	 0.137048
56.8693	85.8673	112.924	169.6447	229.5503	240.9455	309.3106	335.4406	348.6145	411.0895	453.5657	547.6908	702.6526	787.6874	851.9087	924.1293	937.7404	961.5327	978.695	985.7668	992.9399	1021.8468	1121.7381	1160.6441	1173.1112	1183.2996	1198.1462	1200.1611	1240.0092	1272.7446	1311.6455	1326.3322	1340.5192	1403.6017	1423.0591	1477.5933	1483.1178	1486.4898	1495.1458	1498.3353	1499.6409	1519.6677	1707.5327	2942.6892	2971.6453	2984.4162	3016.4328	3026.3062	3044.4232	3064.6336	3112.5907	3118.5049	3147.4146	3209.9745
COCC1(C)CN=CO1	COC[C@@]1(C)CN=CO1	
InChI=1S/C6H11NO2/c1-6(4-8-2)3-7-5-9-6/h5H,3-4H2,1-2H3	InChI=1S/C6H11NO2/c1-6(4-8-2)3-7-5-9-6/h5H,3-4H2,1-2H3/t6-/m1/s1
