13
gdb 123942	3.6023	1.72164	1.20322	5.4368	60.48	-0.2271	-0.0339	0.1932	931.0316	0.090546	-489.840621	-489.834178	-489.833234	-489.871488	24.698	
C	 0.0008515185	 1.4058912427	-0.0013963328	-0.109
C	 1.4469222562	 1.9152371791	 0.0359604544	-0.115126
O	 2.1263363646	 1.5123836544	 1.231266681	-0.258569
C	 1.8759462559	 0.1945963709	 1.4340081015	 0.231131
C	 0.8600901456	-0.5131534052	 0.8528791711	 0.406898
O	 0.9029944678	-1.7651369753	 1.2302504541	-0.238364
N	 2.0852542361	-1.8228284823	 2.1627351542	-0.042701
N	 2.5740916397	-0.663712056	 2.2077364157	-0.183981
O	-0.0640787578	-0.043114422	 0.0182935188	-0.253573
H	-0.5600744135	 1.7869639258	 0.8586742463	 0.144064
H	-0.4915785547	 1.7143319461	-0.9246697079	 0.14484
H	 1.9937391216	 1.5417358985	-0.8398235471	 0.133421
H	 1.45247791	 3.0067885133	 0.0250651407	 0.140961
130.9856	240.538	341.5615	369.1654	392.6695	467.7954	511.1411	553.1768	658.7673	718.1063	724.9416	739.8559	882.8028	921.1657	974.295	1050.11	1080.4757	1114.2292	1228.8253	1276.6666	1294.0671	1344.1188	1386.1888	1395.0561	1430.6809	1474.7844	1489.371	1527.7182	1676.4159	3028.0903	3058.3684	3125.4064	3137.3762
C1COC2=C(ON=N2)O1	C1COc2c(onn2)O1	
InChI=1S/C4H4N2O3/c1-2-8-4-3(7-1)5-6-9-4/h1-2H2	InChI=1S/C4H4N2O3/c1-2-8-4-3(7-1)5-6-9-4/h1-2H2
