19
gdb 95891	3.08635	1.17459	0.88779	2.9206	80.47	-0.2276	-0.0572	0.1704	1307.8267	0.160346	-419.245552	-419.236803	-419.235859	-419.279128	32.606	
C	-0.4250836533	 1.4773157662	-0.0780832583	-0.389393
C	-0.0574147972	-0.0065417077	-0.0526948756	 0.059048
C	 0.8790032392	-0.3947819429	-1.2134247766	-0.21129
C	 1.2978098017	-1.8650896046	-1.1078931396	-0.17156
N	 1.6999592679	-2.1449143575	 0.2593447354	-0.336861
C	 1.3220280671	-1.3378804708	 1.2849658713	 0.267289
C	 1.9324743928	-1.6765107642	 2.6082565321	 0.136541
O	 2.7178545508	-2.5819787535	 2.7613240824	-0.278237
N	 0.5168178389	-0.3368401402	 1.2539820454	-0.310276
H	 0.4738071193	 2.0962555475	 0.0118352045	 0.116518
H	-0.9363786949	 1.7428762081	-1.0091167746	 0.104525
H	-1.0808616068	 1.7156834045	 0.7632437826	 0.124461
H	-0.9881156162	-0.588549523	-0.1550775955	 0.085101
H	 0.3933810485	-0.2162113463	-2.17738352	 0.103405
H	 1.7708201366	 0.2422785078	-1.1726972629	 0.109653
H	 0.4670662578	-2.5198766416	-1.4073889677	 0.11169
H	 2.1336069593	-2.0777349036	-1.7830536535	 0.113802
H	 2.3895932134	-2.8475957664	 0.4766583873	 0.258201
H	 1.5960427351	-1.0130365518	 3.4266712333	 0.107383
85.9812	94.028	197.8544	224.8138	235.4194	273.1547	322.5543	423.3978	450.5532	462.0894	518.9442	561.3497	662.3865	743.059	807.6271	890.1926	920.2406	938.5935	968.0781	1011.8015	1030.5235	1088.5776	1134.8615	1164.272	1175.5034	1223.2427	1244.6071	1290.3909	1325.4657	1339.5957	1366.6791	1373.5381	1382.4906	1407.838	1479.9329	1488.5735	1498.0271	1508.9826	1548.6808	1700.199	1803.1263	2965.6993	2973.3783	2998.5151	3034.0818	3038.0059	3063.0261	3090.6847	3105.6877	3121.0235	3626.3627
CC1CCNC(C=O)=N1	C[C@H]1CCNC(=N1)C=O	
InChI=1S/C6H10N2O/c1-5-2-3-7-6(4-9)8-5/h4-5H,2-3H2,1H3,(H,7,8)	InChI=1S/C6H10N2O/c1-5-2-3-7-6(4-9)8-5/h4-5H,2-3H2,1H3,(H,7,8)/t5-/m0/s1
