21
gdb 74996	3.31946	1.27847	1.01373	2.1685	84.88	-0.2372	0.0174	0.2545	1231.3721	0.184401	-387.09479	-387.086619	-387.085674	-387.127528	31.926	
C	 0.0018634519	 1.5439179004	 0.0774685154	-0.477814
C	 0.027564296	 0.0426934056	 0.0031472377	 0.326593
C	 0.1597770225	-0.6177812166	-1.1516229653	-0.180525
C	 0.0783542365	-2.1035684289	-1.2421004699	 0.114194
O	 1.2886216691	-2.7732524975	-1.7090906332	-0.302062
C	 1.1830237308	-3.7432189292	-0.646579542	-0.089379
C	 0.1132686023	-2.9021700655	 0.0803945823	-0.062443
C	 0.6128416418	-2.0646605953	 1.2588614783	-0.22062
C	-0.0991155629	-0.7047966967	 1.3161495737	-0.301768
H	 0.8225982326	 1.9208105538	 0.7013803679	 0.124525
H	 0.0829191545	 2.0019071765	-0.9117755464	 0.121965
H	-0.9273313758	 1.8984593996	 0.5426838484	 0.123891
H	 0.2765943478	-0.073659353	-2.0865802486	 0.083767
H	-0.763676139	-2.3936341053	-1.8903639283	 0.070876
H	 0.8233347194	-4.7142245973	-1.0154124838	 0.090872
H	 2.1369194529	-3.8905331564	-0.1257115099	 0.099492
H	-0.8156508763	-3.4210305918	 0.3300835127	 0.069294
H	 0.486403314	-2.6100890481	 2.2003354924	 0.093074
H	 1.6864135471	-1.878672257	 1.1376261799	 0.108646
H	 0.3254272645	-0.0961689476	 2.1237665888	 0.099339
H	-1.1605891299	-0.8361660396	 1.5737145899	 0.108083
81.3096	147.5982	198.6597	207.9812	302.9588	357.3632	400.4286	424.7898	475.1908	524.8329	709.4452	764.5558	780.7483	807.4366	858.1998	871.8724	943.1364	963.0417	988.5117	1006.0968	1008.6216	1038.7493	1051.9893	1073.0108	1102.4375	1140.0581	1162.3349	1175.2453	1217.802	1231.7489	1268.805	1288.1414	1330.3748	1340.6436	1354.4639	1377.6034	1384.7583	1397.6032	1412.9512	1476.7364	1482.5465	1489.0652	1490.9989	1523.0421	1728.9918	2967.8963	2996.9631	3000.9663	3014.2359	3030.6595	3047.9637	3050.4147	3060.2222	3064.557	3084.6126	3112.7168	3148.4391
CC1=CC2OCC2CC1	CC1=C[C@H]2OC[C@H]2CC1	
InChI=1S/C8H12O/c1-6-2-3-7-5-9-8(7)4-6/h4,7-8H,2-3,5H2,1H3	InChI=1S/C8H12O/c1-6-2-3-7-5-9-8(7)4-6/h4,7-8H,2-3,5H2,1H3/t7-,8-/m1/s1
