18
gdb 39010	3.21608	1.79212	1.3268	1.5808	83.6	-0.2078	0.0092	0.217	974.9213	0.150289	-364.796957	-364.790286	-364.789342	-364.827584	28.022	
C	-0.1202873272	 1.5313837107	 0.0953407275	-0.298429
N	 1.1968304466	 0.8874131335	 0.0015536448	-0.16464
C	 1.8092256273	 0.6134789079	 1.331657916	-0.206233
C	 0.9446012721	-0.4413906563	 2.0090943741	-0.255037
C	-0.0703102715	-0.7662920808	 1.2136534899	 0.294596
C	-1.0424640526	-1.898879595	 1.0180371681	-0.39522
C	-1.1637683957	-1.9042763882	-0.5056878441	-0.083396
C	-0.5872879564	-0.8423034733	-1.083951893	-0.199887
C	-0.0308931063	 0.0502206977	-0.0375051731	 0.319124
H	-0.4432405868	 1.9283661389	 1.0567647965	 0.107543
H	-0.3781623218	 2.142865819	-0.7662386998	 0.112103
H	 2.8286150834	 0.2332125334	 1.1824124578	 0.114847
H	 1.9027887452	 1.5500265501	 1.8970705638	 0.111133
H	 1.2056817623	-0.8908016281	 2.9600077617	 0.096002
H	-0.6824496253	-2.8509964146	 1.4234017422	 0.12067
H	-2.022167542	-1.711928417	 1.4821136887	 0.121406
H	-1.6943369474	-2.6889206141	-1.0330182432	 0.099281
H	-0.5760586241	-0.6226621237	-2.1441310179	 0.106136
198.1397	214.757	279.8813	396.2747	410.2137	473.1143	580.0203	628.5828	648.1728	717.6434	771.9052	797.7506	816.3865	835.3655	860.0455	924.2039	933.0066	950.1142	962.4995	988.6302	1001.9042	1044.3751	1073.7448	1111.9446	1132.5513	1147.5105	1162.2501	1209.7048	1228.4024	1276.3541	1301.8207	1326.8959	1343.0931	1404.576	1470.4999	1485.0207	1499.8286	1643.358	1733.9686	2999.8192	3010.9014	3039.7348	3059.9846	3084.6039	3174.6765	3193.4498	3200.7199	3220.7427
C1N2CC=C3CC=CC123	C1N2C[CH][C]3CC=C[C@]123	
InChI=1S/C8H9N/c1-2-7-3-5-9-6-8(7,9)4-1/h1,3-4H,2,5-6H2	InChI=1S/C8H9N/c1-2-7-3-5-9-6-8(7,9)4-1/h1,3-4H,2,5-6H2/t8-,9?/m1/s1
