14
gdb 128617	3.03446	1.44254	0.98381	2.8201	68.94	-0.2601	-0.06	0.2001	1125.1224	0.101298	-469.9863	-469.978517	-469.977573	-470.019095	27.833	
C	-0.0403632861	 1.4059063548	 0.0554811861	-0.231077
O	 0.024029508	-0.0266435419	-0.0392780605	-0.22787
C	 0.6312756955	-0.5188767834	-1.1021691921	 0.543233
N	 1.1504636921	 0.2028323996	-2.0255065044	-0.452032
C	 1.756102127	-0.4759639283	-3.083044602	 0.3166
N	 2.3239905357	 0.0646235896	-4.0901442579	-0.516809
C	 1.7177300999	-1.9415780313	-2.9964908325	 0.052381
N	 1.1873321874	-2.6210315157	-2.0538560799	-0.074874
O	 0.5917018691	-1.8623860093	-1.0151632792	-0.251644
H	 0.9649228639	 1.831371042	 0.0826039466	 0.151691
H	-0.5825454043	 1.8200167147	-0.7971014399	 0.151707
H	-0.5707575122	 1.6041558692	 0.9859568054	 0.147714
H	 2.2672032565	 1.0822649479	-4.0034457333	 0.225325
H	 2.1721530675	-2.528024418	-3.7888759163	 0.165656
92.508	140.3779	147.225	216.7088	225.9842	391.1513	424.4347	482.4348	537.2287	621.1622	722.9953	747.279	767.0322	872.9587	922.7715	967.561	976.0755	990.7331	1075.7298	1158.5289	1181.5351	1227.0775	1270.5025	1352.9642	1406.7975	1478.5972	1480.7431	1496.8665	1650.3794	1690.6433	1716.8291	3060.9522	3141.9691	3171.7956	3199.9514	3456.2697
COC1=NC(=N)C=NO1	CO[C]1N=C([NH])C=NO1	
InChI=1S/C4H5N3O2/c1-8-4-7-3(5)2-6-9-4/h2,5H,1H3	InChI=1S/C4H5N3O2/c1-8-4-7-3(5)2-6-9-4/h2,5H,1H3
