17
gdb 8102	2.89524	2.0872	1.53387	4.1795	68.81	-0.2402	-0.0057	0.2345	888.031	0.140856	-363.856737	-363.848802	-363.847857	-363.888647	29.796	
C	 0.010703393	 1.5499929953	-0.0447909733	-0.424494
C	 0.0391930731	 0.0505169842	 0.1397971337	-0.027852
N	 1.252347771	-0.7856182995	-0.1765416406	-0.230757
C	 2.3965898934	-0.05805289	 0.3362494566	 0.409375
O	 3.3938279625	 0.2613362891	-0.2328349039	-0.301747
C	 1.9035593174	-0.0128444586	 1.7894949916	-0.440553
C	 0.6450877182	-0.7015860335	 1.2521667418	 0.324361
C	 0.0138075188	-1.9001907661	 1.8942576521	-0.485524
H	 0.8607217904	 2.0578846517	 0.4154977655	 0.135164
H	 0.0128307629	 1.7957398836	-1.1112783959	 0.143314
H	-0.906353034	 1.9582947398	 0.3926830101	 0.12792
H	-0.8321957224	-0.4412145536	-0.2898858395	 0.107323
H	 2.5066651318	-0.6630900759	 2.4293189504	 0.139541
H	 1.8060672472	 0.964766219	 2.2675390704	 0.129747
H	-0.5417464978	-1.6080295592	 2.7929706357	 0.128655
H	-0.6837407825	-2.3890488079	 1.2086241102	 0.13488
H	 0.771552187	-2.6328064285	 2.1909395552	 0.130646
113.6223	176.5872	186.0013	217.4005	267.3175	310.6019	398.4905	489.5977	502.9878	594.6043	618.168	630.0943	713.5385	837.7305	874.5972	950.4853	963.3015	1026.5342	1034.7542	1070.2489	1078.6789	1127.5165	1147.5043	1178.3337	1215.928	1301.1407	1332.8797	1416.9802	1417.8496	1447.6564	1468.9593	1483.7947	1489.4247	1495.0314	1506.2664	1910.8161	3031.6537	3044.1718	3067.1425	3094.2201	3106.4346	3115.4201	3117.6862	3119.6914	3137.0064
CC1N2C(=O)CC12C	C[C@H]1N2C(=O)C[C@@]12C	
InChI=1S/C6H9NO/c1-4-6(2)3-5(8)7(4)6/h4H,3H2,1-2H3	InChI=1S/C6H9NO/c1-4-6(2)3-5(8)7(4)6/h4H,3H2,1-2H3/t4-,6+,7?/m1/s1
