18
gdb 56332	5.41404	0.52874	0.49463	6.8647	71.03	-0.2576	0.0098	0.2674	2095.9911	0.145219	-476.279888	-476.269281	-476.268336	-476.318465	34.996	
N	 0.1153275703	 1.1510655379	-0.0052037279	-0.522528
C	-0.0366703703	-0.1584436121	-0.353808739	 0.41528
O	 0.8184199071	-0.7778828399	-0.9549286308	-0.353452
C	-1.3790226103	-0.7781162644	 0.043123537	-0.32153
C	-1.2631176871	-2.2895154107	 0.2537086336	-0.177796
C	-2.6257557047	-2.9532283195	 0.4055916679	-0.096141
O	-2.4819982173	-4.3456436566	 0.7151389363	-0.174021
C	-2.6537309937	-5.2331978132	-0.2816232337	 0.172511
O	-2.5201108616	-6.4098411929	-0.1317869055	-0.273151
H	 0.9599125906	 1.6244633239	-0.2814740733	 0.264182
H	-0.5889269805	 1.6653151295	 0.4928994821	 0.258983
H	-1.7833816973	-0.2839195933	 0.9346059046	 0.105276
H	-2.0822696884	-0.5636374658	-0.7741403775	 0.130712
H	-0.7244278978	-2.7205766497	-0.5951662139	 0.13899
H	-0.663026948	-2.5018203836	 1.1448344657	 0.12529
H	-3.1928198481	-2.5199550882	 1.2354187653	 0.122531
H	-3.2251845676	-2.8329466162	-0.5074862272	 0.109819
H	-2.9396269655	-4.7524707551	-1.2387894137	 0.075043
26.0554	35.169	80.5189	98.0025	113.7427	122.2795	173.1158	279.63	342.6684	381.4508	470.3359	524.5024	606.8159	671.162	681.4947	756.9519	846.8394	876.9003	1031.8205	1046.8447	1056.1137	1064.6092	1085.0641	1116.6334	1151.4669	1249.2101	1251.1537	1307.5549	1329.7499	1339.437	1404.6556	1413.2058	1434.8933	1466.3477	1493.5609	1511.3858	1618.1542	1800.5874	1868.4982	2935.8138	3012.4993	3015.7238	3055.4155	3059.7855	3077.1384	3111.5143	3604.8265	3742.614
NC(=O)CCCOC=O	NC(=O)CCCOC=O	
InChI=1S/C5H9NO3/c6-5(8)2-1-3-9-4-7/h4H,1-3H2,(H2,6,8)	InChI=1S/C5H9NO3/c6-5(8)2-1-3-9-4-7/h4H,1-3H2,(H2,6,8)
