21
gdb 92209	2.89868	1.64439	1.35873	1.3521	80.19	-0.2533	0.0686	0.3219	1022.6294	0.185558	-387.073636	-387.066239	-387.065295	-387.105373	30.65	
O	 0.0299793893	 1.4129824667	-0.202901711	-0.43703
C	 0.0274948899	 0.002883605	-0.033847136	 0.131546
C	 0.6937903274	-0.4859436924	 1.2809858442	-0.275836
C	-0.1565984175	-1.6693136641	 1.7988006947	-0.01146
C	-1.1610117947	-1.3296279679	 2.9455791377	-0.233034
C	-2.3105049403	-1.2225723535	 1.9206394728	-0.015094
C	-2.3388652792	 0.1069017605	 1.111747618	-0.241681
C	-1.4092793818	-0.5123154994	 0.0180317271	-0.021932
C	-1.3753105677	-1.8355395407	 0.8199635083	-0.052272
H	 0.9446161696	 1.7078574878	-0.24683391	 0.281412
H	 0.5300626256	-0.4778947754	-0.8898529214	 0.058766
H	 1.7372512238	-0.7716450188	 1.1138687473	 0.089052
H	 0.7001092843	 0.3406092899	 1.999891295	 0.101484
H	 0.442192761	-2.5630424783	 1.9812284018	 0.064074
H	-1.3017154496	-2.1806165491	 3.618598083	 0.094312
H	-0.9423899656	-0.4432772027	 3.5516224435	 0.088194
H	-3.2781626918	-1.6406308301	 2.2010007424	 0.057884
H	-3.3310611941	 0.3467660875	 0.723418287	 0.09872
H	-1.951150313	 0.9933215587	 1.6203743827	 0.104467
H	-1.8670154898	-0.5463689452	-0.972349203	 0.065009
H	-1.5355854057	-2.7953796386	 0.3296539159	 0.05342
75.4645	212.3697	265.7562	292.3058	379.3621	391.9796	507.3705	565.0527	623.48	636.117	738.4477	797.0902	806.014	855.6	881.0053	897.2946	917.5117	927.97	956.1407	980.2369	1022.774	1036.0033	1060.1743	1075.1212	1094.8765	1132.8185	1139.7854	1166.0596	1178.3427	1202.8111	1227.1325	1238.7344	1250.1976	1258.3956	1266.7526	1285.4298	1300.9552	1308.5665	1332.9965	1338.3766	1374.6343	1428.6844	1476.6994	1482.8383	1501.6235	2951.7164	3033.765	3039.2889	3061.5732	3074.2655	3081.481	3083.7778	3090.988	3095.2603	3111.4242	3117.9335	3821.6519
OC1CC2CC3CC1C23	O[C@H]1C[C@H]2C[C@H]3C[C@@H]1[C@@H]23	
InChI=1S/C8H12O/c9-7-3-5-1-4-2-6(7)8(4)5/h4-9H,1-3H2	InChI=1S/C8H12O/c9-7-3-5-1-4-2-6(7)8(4)5/h4-9H,1-3H2/t4-,5+,6-,7-,8+/m0/s1
