21
gdb 94710	3.39951	1.2431	1.05665	2.4296	78.7	-0.2505	0.0847	0.3352	1224.415	0.182101	-424.228717	-424.219917	-424.218973	-424.261734	34.153	
C	 0.0882514417	 1.5565642819	 0.0616757145	-0.40464
C	 0.0040526654	 0.0400432068	-0.016485167	 0.140914
C	 0.7041851857	-0.5348128323	-1.2580295673	-0.23749
C	 0.955914725	-2.0259710503	-1.1258873065	-0.024654
O	 2.0849787907	-2.4051000528	-0.3240463324	-0.284982
C	 0.7768218615	-2.7068325886	 0.1694382688	 0.374984
C	 0.4265771828	-4.1729207712	 0.2561690074	-0.472512
C	 0.3444286215	-1.8528925157	 1.3510432653	-0.141519
O	 0.5904297683	-0.4774977111	 1.1719116159	-0.25036
H	 1.1338832203	 1.8710833199	 0.1347925342	 0.129196
H	-0.350546843	 2.0138174369	-0.8305004016	 0.113173
H	-0.4439827815	 1.9258018584	 0.9421503448	 0.122212
H	-1.0575279012	-0.2661426426	-0.0446102199	 0.05871
H	 0.0905777922	-0.3400193858	-2.1449611994	 0.097762
H	 1.6664871516	-0.0319119712	-1.4097998552	 0.117313
H	 0.8527545847	-2.6171340769	-2.036760112	 0.08399
H	 0.795210975	-4.7049806353	-0.6240915157	 0.131195
H	 0.8824795817	-4.6277509488	 1.1429841314	 0.12728
H	-0.6570301915	-4.3169747399	 0.3240812469	 0.121057
H	-0.728495969	-2.0363998287	 1.5408610132	 0.08429
H	 0.899348988	-2.1522909828	 2.2471933347	 0.114081
90.1755	173.6701	207.8441	230.6866	247.8221	287.6948	330.5656	370.1233	403.8392	450.7688	489.5374	565.7823	637.797	741.508	777.9553	855.6509	888.2551	899.3219	934.3055	980.1258	1001.6565	1044.6535	1081.345	1089.4715	1129.3561	1140.3504	1160.1167	1169.0431	1239.1192	1262.8997	1295.4013	1324.4324	1341.6665	1383.5619	1389.2009	1408.8816	1411.7936	1413.9951	1465.4381	1468.5564	1480.7113	1482.893	1489.6188	1500.7235	1504.9221	2933.864	2948.544	3033.1462	3033.5712	3042.7572	3065.1103	3077.1209	3095.5268	3097.7869	3116.2996	3122.4249	3123.7238
CC1CC2OC2(C)CO1	C[C@H]1C[C@H]2O[C@@]2(C)CO1	
InChI=1S/C7H12O2/c1-5-3-6-7(2,9-6)4-8-5/h5-6H,3-4H2,1-2H3	InChI=1S/C7H12O2/c1-5-3-6-7(2,9-6)4-8-5/h5-6H,3-4H2,1-2H3/t5-,6+,7-/m0/s1
