19
gdb 89928	3.2485	1.28504	1.09041	2.0122	82.3	-0.2447	0.0202	0.2649	1169.0519	0.157975	-385.823706	-385.815078	-385.814134	-385.857052	33.219	
C	-0.6317283667	 1.3174812472	-0.0754122978	-0.415238
C	 0.0895047206	-0.0218282289	-0.0158934338	 0.034745
C	 1.4237045441	-0.1798904956	-0.8167232832	-0.303677
C	 2.1470217551	-0.6345230564	 0.4805531965	 0.276257
O	 2.7537435743	 0.4897308063	 1.1710066438	-0.321637
C	 1.6053042193	 0.6419156042	 2.0396113975	-0.093478
C	 0.8189621614	-0.445109677	 1.2964041688	-0.162621
C	 2.9620244071	-1.8227826831	 0.462322762	 0.249314
C	 3.6220927952	-2.8278811248	 0.433101138	-0.417468
H	 0.0399588583	 2.1519463215	 0.1504365003	 0.124898
H	-1.0384455902	 1.4895377648	-1.0777862509	 0.119877
H	-1.4668663803	 1.3548724084	 0.6330304978	 0.115741
H	-0.6086063076	-0.8154614297	-0.2989346096	 0.081207
H	 1.3932898032	-0.933451504	-1.6061772425	 0.110254
H	 1.8518597311	 0.7442696922	-1.2123194098	 0.113936
H	 1.8559383419	 0.37838076	 3.0749218209	 0.10633
H	 1.2041174859	 1.6612971877	 2.0213541849	 0.102544
H	 0.3616340562	-1.2319260358	 1.8942209887	 0.084994
H	 4.2129248709	-3.7101354969	 0.4117844782	 0.194023
52.85	134.1766	171.0004	224.6482	274.5384	322.109	380.2737	411.5039	508.2359	529.5998	583.3788	613.0939	654.4185	664.3454	751.642	833.9073	868.7592	915.921	952.9681	965.6774	1001.699	1012.637	1048.1756	1076.2876	1113.6378	1131.9502	1142.6764	1162.3585	1196.7464	1231.8991	1267.8131	1294.0845	1326.3301	1346.1504	1369.2117	1412.5915	1465.7023	1494.6688	1498.929	1528.2668	2231.2914	3016.784	3029.28	3051.0566	3063.7393	3067.1455	3094.2322	3102.1253	3123.4957	3128.6695	3500.5216
CC1CC2(OCC12)C#C	C[C@H]1C[C@]2(OC[C@@H]12)C#C	
InChI=1S/C8H10O/c1-3-8-4-6(2)7(8)5-9-8/h1,6-7H,4-5H2,2H3	InChI=1S/C8H10O/c1-3-8-4-6(2)7(8)5-9-8/h1,6-7H,4-5H2,2H3/t6-,7-,8+/m0/s1
