17
gdb 70374	2.42963	1.55494	1.36391	3.9898	72.76	-0.2382	0.0197	0.2579	1023.9396	0.134823	-417.96601	-417.957344	-417.956399	-417.998781	33.074	
C	-0.1040876452	 1.5664531298	 0.011505861	-0.437751
C	 0.0412749375	 0.0472971571	 0.0408388679	 0.067683
N	 1.1499803073	-0.5070468306	-0.8354790868	-0.361852
C	 1.6692692762	-1.2935995317	 0.3098189734	-0.055226
C	 2.1805744455	-0.3135789508	 1.33130473	-0.348343
C	 0.7068570917	-0.6386147508	 1.2697219513	 0.347114
O	-0.0024629198	-1.1739098613	 2.3180244823	-0.445578
C	-1.2385262022	-0.5995250426	-0.2637074448	 0.273377
N	-2.2443597006	-1.0958924992	-0.5444993102	-0.339956
H	 0.8560501222	 2.0356777875	 0.2350771969	 0.130257
H	-0.428947952	 1.902188591	-0.9769754695	 0.142103
H	-0.8457430001	 1.8956675171	 0.7458564607	 0.131461
H	 0.759759048	-1.1110578173	-1.5531131231	 0.240575
H	 2.0133304719	-2.3143530073	 0.2095232676	 0.116271
H	 2.6673960878	-0.7665032415	 2.1895865307	 0.124978
H	 2.5863504983	 0.640410946	 1.0077496383	 0.120684
H	-0.0012145165	-0.5464295255	 3.0500834545	 0.294202
126.9643	137.4451	206.4593	218.2374	240.6075	284.9345	348.8848	381.2047	444.6382	471.7122	536.8441	562.7501	648.7563	678.2288	783.7754	822.0557	869.8314	915.5474	938.1846	969.1079	979.3032	1023.2591	1057.5599	1086.3928	1132.67	1148.6952	1196.9446	1231.5346	1268.5988	1314.3854	1366.6139	1405.3499	1417.6609	1481.7861	1486.9576	1498.1218	2348.7183	3047.7374	3118.2023	3120.6788	3137.0843	3206.6475	3215.4969	3518.655	3785.0571
CC1(NC2CC12O)C#N	C[C@]1(N[C@H]2C[C@@]12O)C#N	
InChI=1S/C6H8N2O/c1-5(3-7)6(9)2-4(6)8-5/h4,8-9H,2H2,1H3	InChI=1S/C6H8N2O/c1-5(3-7)6(9)2-4(6)8-5/h4,8-9H,2H2,1H3/t4-,5-,6-/m0/s1
