13
gdb 9022	4.70908	0.92519	0.79893	3.717	79.8	-0.2622	-0.0342	0.228	1347.0385	0.093399	-324.284295	-324.275818	-324.274874	-324.317583	29.744	
C	-0.0254670335	 1.5570769216	 0.0304356395	-0.382293
C	-0.0217505154	 0.0081300217	-0.0374279179	-0.351975
C	-1.3971512311	-0.5160374894	 0.0409439457	 0.295193
N	-2.4806849145	-0.9075066349	 0.120760758	-0.31417
C	 0.6592778706	-0.488123619	-1.231767626	 0.499912
C	 1.2478057398	-0.8772210559	-2.2130652729	-0.311617
C	 1.9049125487	-1.3136315178	-3.3218973947	 0.302926
C	 2.4886377004	-1.7014480763	-4.3045475937	-0.545429
H	 1.0036783893	 1.9214386307	 0.0182852398	 0.1432
H	-0.5581438106	 1.9739497585	-0.8261824507	 0.15416
H	-0.5147683893	 1.8884411311	 0.9490929314	 0.144249
H	 0.509102523	-0.372285192	 0.8468055289	 0.165547
H	 2.9999561724	-2.0427728482	-5.1705475474	 0.200296
71.5307	101.9236	181.2746	221.3437	241.8878	245.6415	365.8698	449.0189	501.5459	544.7953	548.2986	577.66	607.0783	614.7749	724.8024	848.6339	990.4895	1070.2184	1090.7399	1194.0099	1292.3239	1326.37	1407.9888	1488.8686	1496.3802	2186.9702	2364.3423	2372.9819	3014.2778	3059.6431	3143.4261	3149.5616	3502.8675
CC(C#N)C#CC#C	C[C@@H](C#N)C#CC#C	
InChI=1S/C7H5N/c1-3-4-5-7(2)6-8/h1,7H,2H3	InChI=1S/C7H5N/c1-3-4-5-7(2)6-8/h1,7H,2H3/t7-/m1/s1
