15
gdb 10427	2.66308	1.91754	1.38175	1.8622	61.12	-0.2727	0.0103	0.283	907.2256	0.118587	-399.779437	-399.771498	-399.770553	-399.812087	28.027	
O	 0.1216491294	 1.3157392501	-0.3086004651	-0.414027
C	-0.0024332957	-0.0459190603	 0.0268990502	-0.120764
C	-1.4723317328	-0.5059784684	 0.0759564194	 0.087363
C	-2.1386983859	-0.5580305763	-1.326884343	-0.104872
O	-1.9861093679	-1.9897351353	-1.3761687002	-0.264171
C	-1.6376830962	-2.0502527838	 0.016574725	-0.115854
C	-2.1883804753	 0.2114747497	 1.1191541248	 0.224427
N	-2.7233177081	 0.8109866779	 1.9511570636	-0.337235
H	-0.2136488548	 1.8420124326	 0.4264264874	 0.301848
H	 0.5005333639	-0.610503341	-0.764473647	 0.132503
H	 0.4870407197	-0.2880083328	 0.9817898631	 0.111428
H	-3.1915422568	-0.2534079581	-1.3373369468	 0.121778
H	-1.5917343334	-0.0422328131	-2.121360739	 0.13514
H	-0.7262068441	-2.6310164837	 0.1976946227	 0.119758
H	-2.4530155419	-2.4397016577	 0.6375530747	 0.122676
93.0186	108.619	160.567	187.2786	246.1522	341.7385	385.3482	437.9949	538.4847	563.9802	664.6984	836.6092	902.0138	923.094	979.5342	994.5839	1038.7871	1068.1137	1107.0717	1149.2111	1155.8505	1160.5502	1225.4792	1296.4738	1304.8485	1368.9488	1389.5959	1417.9905	1498.717	1510.4278	1534.1402	2348.5915	2999.2077	3021.9656	3035.4898	3074.7654	3086.9766	3096.9428	3799.7601
OCC1(COC1)C#N	OCC1(COC1)C#N	
InChI=1S/C5H7NO2/c6-1-5(2-7)3-8-4-5/h7H,2-4H2	InChI=1S/C5H7NO2/c6-1-5(2-7)3-8-4-5/h7H,2-4H2
