21
gdb 77477	1.97861	1.47731	1.37885	1.8195	79.	-0.2326	0.0642	0.2968	1137.7417	0.179964	-424.196284	-424.186237	-424.185293	-424.230214	37.988	
C	-0.249494222	 1.5485866808	-0.0127414364	-0.418901
C	 0.0499484033	 0.0530048916	-0.0198248834	 0.004947
C	 1.1821880587	-0.5138752671	-0.9418256347	-0.31951
C	 1.7822125345	-1.2236446737	 0.2760259218	 0.277523
O	 2.2348550332	-2.5357056128	 0.2783387346	-0.459783
C	 2.1596167015	-0.2335816979	 1.3379248652	-0.03107
O	 2.6097024055	 1.0732316539	 1.0879612671	-0.415229
C	 0.7092696027	-0.6143676343	 1.2060138772	 0.234374
C	-0.064082864	-1.2163771255	 2.3463599641	-0.496185
H	 0.6527346668	 2.130935119	 0.1790496148	 0.141478
H	-0.6715553677	 1.8609262784	-0.9749544118	 0.103992
H	-0.9852691323	 1.7944977519	 0.7615624036	 0.10743
H	-0.8741828214	-0.4956700891	-0.2361963482	 0.071657
H	 0.8102107404	-1.2142576507	-1.6921409088	 0.103111
H	 1.8264145713	 0.2273288332	-1.4256846423	 0.085582
H	 3.1686767506	-2.5425186683	 0.0402564438	 0.281161
H	 2.6300638635	-0.7086557929	 2.2015912301	 0.084338
H	 3.505816762	 1.0209871274	 0.7389433731	 0.282755
H	-0.4816251697	-0.43924539	 2.9978037107	 0.12163
H	-0.8975010712	-1.8253969957	 1.978366248	 0.117651
H	 0.5711676241	-1.8607741882	 2.9619698917	 0.123052
156.7459	162.1518	169.124	190.0269	205.5153	222.9865	250.5131	268.4096	289.5644	328.1507	374.9705	429.9644	560.6034	564.7947	618.0425	709.1698	714.4388	805.0076	848.9564	901.8897	950.8452	994.667	1039.4072	1080.8253	1086.3608	1107.4323	1126.6853	1169.4569	1197.2362	1228.5668	1229.8504	1250.7268	1287.4438	1305.1379	1333.078	1345.4504	1372.0952	1407.1068	1414.8525	1470.175	1487.2456	1493.8151	1495.0301	1509.3588	1517.8988	3022.1156	3025.3641	3032.8852	3048.0771	3080.8413	3083.6493	3084.0843	3100.9379	3114.2854	3144.5419	3785.8998	3800.6326
CC1CC2(O)C(O)C12C	C[C@H]1C[C@@]2(O)[C@@H](O)[C@@]12C	
InChI=1S/C7H12O2/c1-4-3-7(9)5(8)6(4,7)2/h4-5,8-9H,3H2,1-2H3	InChI=1S/C7H12O2/c1-4-3-7(9)5(8)6(4,7)2/h4-5,8-9H,3H2,1-2H3/t4-,5-,6+,7+/m0/s1
