19
gdb 42052	2.93995	1.54934	1.12052	1.7789	71.09	-0.2412	0.0638	0.305	1086.0374	0.161291	-460.130874	-460.12334	-460.122396	-460.163002	29.301	
C	 0.1513054643	 1.5162684916	 0.1919219041	-0.101747
O	 1.4488326531	 1.4671161892	-0.4436947228	-0.295168
C	 1.3935873254	 0.0255450137	-0.5588382461	 0.095851
C	 2.4798626689	-0.6664123561	 0.2581943039	-0.105463
O	 2.2653639575	-2.0690691731	 0.3009248405	-0.248199
C	 1.4226528769	-2.4952577435	 1.3550477587	-0.072809
C	-0.0369209143	-2.0643489869	 1.2126312212	-0.08797
O	-0.1911086567	-0.6528983969	 1.2895726136	-0.255063
C	-0.0303279837	-0.0026425504	 0.0550874918	 0.060905
H	 0.2058150459	 1.8551045975	 1.2327499719	 0.114372
H	-0.5542617484	 2.1423743167	-0.364905567	 0.106382
H	 1.4460630401	-0.2957891085	-1.6064787388	 0.080749
H	 3.4548537299	-0.5021023982	-0.2123548559	 0.112231
H	 2.5099806019	-0.2374889025	 1.2689129831	 0.103033
H	 1.4736136604	-3.5901081881	 1.3632194752	 0.107233
H	 1.8053841392	-2.1265062592	 2.3199937609	 0.099704
H	-0.4546502907	-2.4470689917	 0.2693993803	 0.098962
H	-0.6145464115	-2.4919655329	 2.0406998838	 0.108431
H	-0.8114989681	-0.3180151008	-0.6493933184	 0.078566
90.9838	160.4355	243.5393	294.4181	314.1423	374.1773	426.4879	441.5299	553.3652	605.4064	761.3719	803.9411	848.7368	906.4096	916.0746	978.3283	987.3771	1014.4207	1033.8223	1068.1102	1099.2687	1128.1774	1136.477	1157.5397	1161.568	1199.3156	1251.8143	1270.655	1278.872	1306.0493	1327.5308	1338.3924	1362.8809	1387.096	1399.6956	1410.8578	1421.5452	1477.2214	1486.867	1494.9	1514.5816	2982.8662	2996.4445	3007.8578	3014.8076	3027.3692	3035.7464	3066.5178	3069.975	3079.9743	3082.4366
C1OC2COCCOC12	C1O[C@H]2COCCO[C@@H]12	
InChI=1S/C6H10O3/c1-2-8-6-4-9-5(6)3-7-1/h5-6H,1-4H2	InChI=1S/C6H10O3/c1-2-8-6-4-9-5(6)3-7-1/h5-6H,1-4H2/t5-,6-/m0/s1
