17
gdb 35043	2.39117	1.68872	1.5556	2.248	78.35	-0.2331	-0.0059	0.2272	963.84	0.137	-380.812513	-380.804745	-380.803801	-380.844697	30.	
C	-0.3599707556	-1.1477698564	-0.4022998153	-0.452874
C	-0.2029969047	 0.0277330007	-0.2007919082	 0.365546
C	-0.0724840691	 1.441857812	-0.0071574234	-0.22276
C	 0.4810568341	 2.0484453176	 1.2467511479	-0.011517
C	 1.0305883569	 1.2746409595	 2.4258967595	-0.255997
C	 2.0645142182	 0.2024167109	 2.026414828	-0.16708
N	 2.8680964568	 0.4875550368	 0.8445773634	-0.189008
C	 2.4250729276	 1.2896077001	-0.0282432698	 0.053257
N	 1.268003336	 2.1223160798	 0.0177960452	-0.150531
H	-0.4863667794	-2.1878064575	-0.5772471598	 0.207169
H	-0.8126407212	 2.0294995203	-0.5459889794	 0.125703
H	 0.0428579096	 3.0099038982	 1.5112277321	 0.103563
H	 1.5108623975	 2.0080675991	 3.0836744083	 0.11775
H	 0.2166151804	 0.8240813656	 3.0043230821	 0.115999
H	 2.747305218	 0.0202850352	 2.8627935657	 0.109939
H	 1.5587359257	-0.74931755	 1.8312679726	 0.13413
H	 2.9952253192	 1.4329789582	-0.9463405689	 0.116711
109.8703	130.5837	150.1568	266.5348	312.7647	441.2439	489.8189	519.1438	602.179	621.0432	633.2654	669.1628	706.4279	761.3068	808.5146	826.006	901.8156	952.6118	965.5644	1016.3422	1024.8257	1052.6856	1097.9617	1124.748	1170.2852	1249.5006	1273.9453	1313.5713	1338.9535	1366.1963	1380.7668	1405.0583	1431.5557	1480.0382	1490.4155	1718.9109	2233.0972	3034.8756	3045.7739	3065.4599	3083.0089	3110.2903	3128.2611	3130.5053	3500.896
C#CC1C2CCN=CN12	C#C[C@H]1[C@H]2CCN=CN12	
InChI=1S/C7H8N2/c1-2-6-7-3-4-8-5-9(6)7/h1,5-7H,3-4H2	InChI=1S/C7H8N2/c1-2-6-7-3-4-8-5-9(6)7/h1,5-7H,3-4H2/t6-,7+,9?/m0/s1
