17
gdb 33698	3.11489	1.78086	1.30672	0.6584	83.21	-0.2255	-0.0008	0.2247	969.7687	0.136386	-347.463467	-347.456545	-347.455601	-347.494374	29.101	
C	 0.0187582156	-1.2054299243	 0.0072271244	-0.371244
C	 0.0030329333	-0.0024404516	 0.0263532526	 0.110413
C	-0.0181790317	 1.437523501	 0.0519779845	 0.24338
C	-0.9023026505	 2.1674739765	 1.0636057295	-0.185283
C	-0.6848854271	 3.4587911247	 0.8162255424	-0.113531
C	 0.3147761637	 3.4510395148	-0.3268160856	-0.096212
C	 1.3275422927	 2.2800673868	-0.0551168884	-0.072827
C	 1.4014607353	 1.9866246637	-1.570751267	-0.266638
C	-0.0905361515	 2.2812473379	-1.295319387	-0.072826
H	 0.0321823884	-2.2669668096	-0.0091540027	 0.179752
H	-1.5394084806	 1.6870624715	 1.7916360017	 0.110764
H	-1.1055771896	 4.3298336311	 1.2980803937	 0.108474
H	 0.6839533038	 4.3859143937	-0.7480532481	 0.070194
H	 2.1335439138	 2.2699085708	 0.6830375653	 0.076913
H	 1.935299304	 2.7200328663	-2.1804575219	 0.091756
H	 1.6553971786	 0.9656162545	-1.8620803053	 0.110001
H	-0.9295035082	 2.2724572922	-1.9957980281	 0.076913
146.7715	160.3084	374.8437	400.0785	478.2512	506.173	514.1163	559.6257	611.7287	648.7835	686.5095	699.4512	769.4982	791.8808	832.1021	891.0078	904.3952	906.2739	914.5552	958.5209	1023.3447	1044.9348	1049.5197	1077.6395	1098.2555	1111.6451	1131.4809	1183.2553	1193.7434	1222.1007	1235.9172	1265.686	1299.1427	1329.9442	1513.6919	1635.9481	2231.778	3059.7596	3083.2051	3088.8512	3123.4533	3125.5072	3225.7845	3254.0406	3502.9836
C#CC12C=CC3C1CC23	C#C[C@@]12C=C[C@H]3[C@@H]1C[C@@H]23	
InChI=1S/C9H8/c1-2-9-4-3-6-7(9)5-8(6)9/h1,3-4,6-8H,5H2	InChI=1S/C9H8/c1-2-9-4-3-6-7(9)5-8(6)9/h1,3-4,6-8H,5H2/t6-,7-,8+,9+
