15
gdb 44011	3.65337	1.53177	1.46928	4.6464	63.75	-0.2549	0.0294	0.2843	918.3081	0.113404	-457.754929	-457.74837	-457.747426	-457.785782	26.314	
O	 0.0034611193	-0.0100786676	 0.092974224	-0.346629
C	-0.0134290372	 1.1724168803	 0.0421405599	 0.465567
O	-1.1615641182	 1.9427321856	 0.0452822646	-0.27266
C	-0.7952230645	 3.2954215061	-0.0022277931	 0.301392
C	-0.034938321	 3.8735133145	 1.1597487679	-0.3907
C	 0.7084436138	 3.3160051372	-0.023035777	 0.301393
C	 0.7151891926	 4.1872301242	-1.2880383438	-0.289237
C	-0.8608036557	 4.1656574647	-1.2662294592	-0.289237
O	 1.1128418454	 1.9738663927	 0.0138083384	-0.27266
H	-0.0473058294	 4.9459614756	 1.3269594868	 0.133711
H	-0.0142029741	 3.2643577729	 2.0556069351	 0.150286
H	 1.2119917849	 5.15604399	-1.1964408354	 0.118462
H	 1.127642414	 3.6546115938	-2.1458174427	 0.135925
H	-1.2821015411	 3.6216284084	-2.1124714442	 0.135925
H	-1.3812078389	 5.1205476017	-1.1605526914	 0.118462
131.4404	200.3789	336.9129	356.1061	454.4819	461.3322	631.571	650.9652	656.0229	747.1018	766.3671	777.1528	816.1514	833.9546	881.466	924.6495	941.6077	970.8115	995.804	1049.0836	1086.7312	1090.3608	1181.8396	1209.1241	1240.9522	1262.4528	1295.5396	1313.3815	1367.1405	1461.3492	1469.0663	1489.5522	1939.0951	3070.4148	3075.1819	3128.5626	3133.8907	3145.0277	3235.4846
O=C1OC23CC2(CC3)O1	O=C1O[C@@]23C[C@@]2(CC3)O1	
InChI=1S/C6H6O3/c7-4-8-5-1-2-6(5,3-5)9-4/h1-3H2	InChI=1S/C6H6O3/c7-4-8-5-1-2-6(5,3-5)9-4/h1-3H2/t5-,6+
