18
gdb 65072	2.08386	1.69466	1.26746	3.2561	72.27	-0.2436	-0.0365	0.2071	1070.8442	0.14534	-439.043339	-439.03439	-439.033446	-439.076962	33.131	
C	 0.0915231421	 0.9050025187	 1.222045558	-0.483187
C	-0.0131929528	-0.0527982357	 0.0510450541	 0.208047
C	 0.7323434874	 0.2310320265	-1.2027202943	-0.275968
N	 1.1498470648	-0.8742070586	-0.3204224068	-0.339522
C	-1.3166299172	-0.8043035033	-0.0387438525	 0.271604
C	-2.4967339697	-0.2027996457	-0.7028815396	-0.216848
O	-1.756701789	-1.2313968787	-1.3358396036	-0.256664
C	-1.6155723426	-1.8319583816	 1.0165946535	 0.13593
O	-1.0456539432	-1.9240130406	 2.0723869748	-0.254494
H	 1.0505078255	 1.4325494262	 1.1967535193	 0.113728
H	-0.7041877329	 1.6578426067	 1.1911821662	 0.118677
H	 0.0132909132	 0.3637633462	 2.1679238489	 0.157674
H	 0.3244317688	-0.0850780477	-2.156805044	 0.13402
H	 1.3323266061	 1.1373752949	-1.229367309	 0.109135
H	 1.9557440936	-0.6005104954	 0.2367213851	 0.231688
H	-3.503985733	-0.4712000268	-0.3861784698	 0.125329
H	-2.3843345116	 0.7935830256	-1.1277121644	 0.129502
H	-2.4377677496	-2.5213046808	 0.7209055441	 0.091351
68.6082	130.0082	176.1761	205.3495	227.0049	268.5573	339.3467	359.5133	368.2809	444.1774	521.3463	565.0935	641.1339	836.4824	864.3074	878.4465	886.2081	931.4135	952.5703	974.8263	1008.8357	1040.2423	1066.7183	1121.7547	1133.3718	1155.2142	1162.3652	1232.3162	1270.1471	1311.2653	1347.7096	1393.2781	1410.5662	1435.4895	1481.4752	1501.9532	1514.4683	1519.862	1829.6578	2890.9689	3032.5338	3082.9506	3096.0277	3112.0201	3128.1946	3173.8295	3207.6518	3497.1447
CC1(CN1)C1(CO1)C=O	C[C@]1(CN1)[C@]1(CO1)C=O	
InChI=1S/C6H9NO2/c1-5(2-7-5)6(3-8)4-9-6/h3,7H,2,4H2,1H3	InChI=1S/C6H9NO2/c1-5(2-7-5)6(3-8)4-9-6/h3,7H,2,4H2,1H3/t5-,6+/m0/s1
