21
gdb 115739	2.77212	1.05921	0.83232	2.265	79.21	-0.2395	0.0707	0.3102	1419.9919	0.182217	-424.182891	-424.173493	-424.172548	-424.218064	34.274	
O	-0.1436821377	 1.5013132181	-0.1290928134	-0.426312
C	 0.003174668	 0.12237667	 0.1828649121	-0.098138
C	-1.3651417429	-0.5132203102	 0.0222196135	-0.04758
C	-1.8212384976	-0.7124579564	-1.4357990857	-0.075828
O	-1.6597838004	-2.1441369907	-1.3362498568	-0.297502
C	-1.4454407938	-2.064451235	 0.0949573111	 0.113582
C	-0.2794268308	-2.8808479143	 0.565681735	 0.020775
C	-0.2217629545	-3.3263256851	 2.0097399301	-0.272788
C	-0.4923204546	-4.3317326113	 0.9235910552	-0.275467
H	 0.7244290813	 1.9131532832	-0.0917640273	 0.287206
H	 0.7251738895	-0.3599674502	-0.4945022943	 0.091008
H	 0.3677850731	-0.0208430154	 1.2121901868	 0.091891
H	-2.0749763991	 0.012976385	 0.6645239243	 0.081488
H	-2.8627322532	-0.4307418389	-1.6374709007	 0.095862
H	-1.1779892478	-0.274795363	-2.2075992414	 0.105857
H	-2.3481121206	-2.3949307168	 0.633863134	 0.061524
H	 0.6673337637	-2.6427745355	 0.0911302477	 0.083709
H	 0.7445354576	-3.338482855	 2.5009332647	 0.113126
H	-1.0448371464	-3.0463862939	 2.6593761744	 0.113441
H	-1.498143047	-4.7285483963	 0.8351935387	 0.119324
H	 0.2887382532	-5.0378008882	 0.6660096522	 0.114824
51.3013	82.4114	109.2493	133.1808	208.2729	261.4915	286.0264	311.4475	419.765	432.1318	535.6586	758.1323	819.5479	831.2143	834.3626	877.671	914.9638	927.6914	943.7635	988.7337	1015.9329	1022.8249	1061.3444	1071.9814	1080.2854	1105.7068	1132.4383	1146.9754	1171.2916	1193.7994	1198.6042	1222.4035	1229.3319	1258.8569	1280.3103	1290.0303	1329.596	1345.5297	1375.6966	1443.2358	1462.0468	1470.2369	1504.65	1519.5363	1532.3988	2964.8231	2970.382	3000.5073	3014.0535	3061.9057	3087.4901	3131.9744	3136.9638	3156.6132	3210.6418	3226.1569	3830.5896
OCC1COC1C1CC1	OC[C@H]1CO[C@H]1C1CC1	
InChI=1S/C7H12O2/c8-3-6-4-9-7(6)5-1-2-5/h5-8H,1-4H2	InChI=1S/C7H12O2/c8-3-6-4-9-7(6)5-1-2-5/h5-8H,1-4H2/t6-,7-/m0/s1
