19
gdb 41716	3.70604	1.58601	1.43544	1.6027	79.19	-0.2189	0.0156	0.2346	961.4231	0.16322	-385.880193	-385.873843	-385.872899	-385.9105	27.29	
C	 0.0032628444	 1.5294980694	-0.0405643846	-0.101118
O	 1.4307486837	 1.7764332081	-0.029574495	-0.285396
C	 1.952586425	 0.4472426799	 0.037114233	 0.109791
C	 1.1181790527	-0.3386686409	-1.016021522	-0.013853
C	 1.4457917636	-1.8282105766	-1.1510349078	-0.30113
C	 1.5829266519	-2.4718343846	 0.2032051592	-0.069177
C	 1.4108073051	-1.7166385816	 1.2864425833	-0.084389
C	 1.0848611471	-0.2588866296	 1.1229620013	-0.052903
C	-0.0092169003	 0.0037664661	 0.0236616051	-0.074614
H	-0.4664310289	 2.0122397883	 0.8250266286	 0.098997
H	-0.4417196969	 1.9343721242	-0.9579767328	 0.098978
H	 3.0415385027	 0.4693354375	 0.0646462659	 0.078375
H	 1.0372692593	 0.1473070277	-1.9931019731	 0.067453
H	 0.6674585133	-2.3331418448	-1.7420276007	 0.107376
H	 2.3733905861	-1.9506726827	-1.7287354079	 0.109595
H	 1.8162255438	-3.5303751525	 0.2647249769	 0.089169
H	 1.5027450152	-2.1201985212	 2.2899669469	 0.088637
H	 0.9772299703	 0.2757076518	 2.06913857	 0.064689
H	-0.970903748	-0.5094415086	 0.0380262937	 0.06952
227.4042	265.9623	330.8844	369.3542	456.8107	487.1178	555.7382	666.8948	711.3734	763.9369	804.0045	874.8831	909.6357	930.0128	944.1741	945.3429	977.4482	979.3942	983.843	994.223	1019.0196	1045.9902	1074.4401	1087.2509	1112.6375	1161.6597	1167.1174	1182.9792	1213.6374	1240.0451	1252.925	1258.538	1283.1772	1307.8322	1347.8527	1360.3509	1388.5895	1413.3346	1478.7132	1527.182	1711.7039	2996.3552	3016.3106	3016.7106	3054.4518	3062.9021	3086.2235	3117.1065	3130.2317	3164.1671	3187.6087
C1OC2C3CC=CC2C13	C1O[C@@H]2[C@H]3CC=C[C@@H]2[C@@H]13	
InChI=1S/C8H10O/c1-2-5-7-4-9-8(5)6(7)3-1/h1-2,5-8H,3-4H2	InChI=1S/C8H10O/c1-2-5-7-4-9-8(5)6(7)3-1/h1-2,5-8H,3-4H2/t5-,6+,7-,8+/m1/s1
