21
gdb 120710	3.25558	0.83226	0.74888	2.1862	81.5	-0.2413	-0.0144	0.2269	1614.5792	0.179924	-424.225413	-424.215003	-424.214059	-424.261899	36.502	
C	 0.0573152914	 1.3387019617	-0.1555614289	-0.225205
O	 0.171460289	-0.0621141283	-0.0985882469	-0.235296
C	 0.4598617351	-0.5294551326	 1.2063458893	-0.091723
C	 0.5620393734	-2.0317311324	 1.1327054813	-0.011211
C	 1.8454835737	-2.707671425	 0.7951935168	-0.276685
C	 1.285667309	-2.8578701524	 2.2017151925	-0.14065
C	 2.0075027501	-2.2071665534	 3.3373407349	 0.389253
C	 1.8170484449	-2.8574606431	 4.6957273402	-0.482692
O	 2.7110111733	-1.2272471035	 3.195108311	-0.325385
H	 0.9877338298	 1.8388727097	 0.1569762638	 0.10627
H	-0.1576773803	 1.6082911691	-1.192679089	 0.123889
H	-0.7597247296	 1.7110034184	 0.4840258429	 0.099898
H	 1.3947200262	-0.0957426417	 1.5836389628	 0.124415
H	-0.3470372943	-0.233637922	 1.9001093951	 0.078792
H	-0.3430232673	-2.5029610303	 0.7595741564	 0.100371
H	 1.8357452491	-3.5810426306	 0.153491636	 0.117758
H	 2.7276525658	-2.0806410165	 0.7218330141	 0.140602
H	 0.8100999462	-3.8017935084	 2.446565328	 0.086681
H	 2.1691616201	-3.8953369081	 4.6694204148	 0.140783
H	 2.3672191945	-2.3020506003	 5.4557922725	 0.140603
H	 0.7527362799	-2.8914220903	 4.9555286324	 0.139533
50.6875	73.6136	87.1017	122.5547	145.6268	203.4508	235.7551	236.375	337.8925	354.624	428.3364	468.0445	596.186	634.8497	755.5911	822.0421	874.873	901.1626	941.4422	966.5937	1004.9016	1024.5641	1050.1129	1078.2979	1117.1262	1137.1204	1152.3932	1173.9532	1184.9624	1201.9492	1222.1823	1245.6744	1276.4636	1372.4992	1378.3466	1411.9465	1445.8987	1464.0666	1475.7053	1480.5255	1485.0051	1486.2242	1506.6145	1534.3909	1787.1807	2946.5829	2967.0968	3009.0703	3033.3927	3045.9353	3093.0264	3110.6398	3138.2442	3148.5812	3153.7832	3164.2726	3232.0844
COCC1CC1C(C)=O	COC[C@H]1C[C@H]1C(=O)C	
InChI=1S/C7H12O2/c1-5(8)7-3-6(7)4-9-2/h6-7H,3-4H2,1-2H3	InChI=1S/C7H12O2/c1-5(8)7-3-6(7)4-9-2/h6-7H,3-4H2,1-2H3/t6-,7+/m1/s1
