20
gdb 99122	3.62747	0.8637	0.80089	4.1229	76.36	-0.2513	0.0182	0.2695	1498.9655	0.169582	-440.301978	-440.29195	-440.291006	-440.338098	35.942	
C	-0.3473624162	 1.2699988374	 0.5828490957	-0.406441
C	 0.0836578862	-0.1288084137	 0.2087656446	 0.02928
C	 1.4293524868	-0.3814906282	-0.4290471828	-0.336608
C	 1.1632060623	-0.8574963654	 0.9753560087	 0.039725
N	 1.8531117985	-0.2047094601	 2.0516459225	-0.324532
C	 1.3289391799	-0.1011735257	 3.2993666885	 0.388663
O	 0.1944480811	-0.4477537943	 3.5909135153	-0.387067
C	 2.2390663817	 0.5015466121	 4.3767898092	-0.145327
O	 1.5490501202	 0.5751615557	 5.5876469559	-0.419477
H	 0.503702085	 1.8711454048	 0.9149332927	 0.111257
H	-0.8018937162	 1.7784902516	-0.2737427744	 0.116019
H	-1.0774802742	 1.2462660652	 1.39720832	 0.14027
H	-0.7235578038	-0.7737641634	-0.1267394619	 0.094136
H	 1.5256502599	-1.1244147351	-1.2125560946	 0.120284
H	 2.0860404643	 0.4761793991	-0.5428181909	 0.112496
H	 1.0150707078	-1.9237075785	 1.1256675512	 0.107236
H	 2.8311569805	 0.0089192834	 1.928910107	 0.251516
H	 3.1431582005	-0.1230427126	 4.4697061174	 0.105882
H	 2.5726043681	 1.4986507827	 4.0466785972	 0.108366
H	 0.6752692177	 0.196406795	 5.3867834987	 0.294322
38.366	67.1681	83.4466	126.863	189.0571	236.9901	301.705	325.6048	377.9424	434.8918	449.4581	474.0636	563.7738	628.0471	723.5057	784.2751	812.163	846.7597	918.1999	947.0783	1017.4704	1037.6157	1056.2581	1084.4738	1104.6881	1134.1353	1147.2427	1179.3132	1194.4255	1233.9409	1244.7719	1280.9626	1316.0755	1384.0204	1412.4416	1422.5862	1460.5834	1484.829	1494.425	1502.5116	1508.3151	1538.0268	1772.0696	2967.6308	2987.6523	3039.5385	3104.2946	3114.3911	3127.7434	3133.0373	3152.5927	3215.746	3613.9021	3640.8194
CC1CC1NC(=O)CO	C[C@H]1C[C@H]1NC(=O)CO	
InChI=1S/C6H11NO2/c1-4-2-5(4)7-6(9)3-8/h4-5,8H,2-3H2,1H3,(H,7,9)	InChI=1S/C6H11NO2/c1-4-2-5(4)7-6(9)3-8/h4-5,8H,2-3H2,1H3,(H,7,9)/t4-,5+/m0/s1
