16
gdb 55612	2.27938	1.15995	0.89252	1.5009	79.08	-0.2628	0.0065	0.2692	1339.7017	0.119798	-400.676016	-400.666017	-400.665072	-400.712008	35.417	
C	-0.0033629584	 1.4494817188	-0.1124554719	-0.464188
C	 0.067930857	-0.0427228445	 0.0775115743	 0.414531
N	 0.2345281985	-0.7041982064	 1.1451867047	-0.516442
O	-0.0769922492	-0.657176852	-1.1239991961	-0.244895
C	-0.055543504	-2.1051322396	-1.1198206745	-0.236336
C	-1.4164252828	-2.6355399322	-1.0139410338	 0.362487
C	-2.5270165372	-3.0812646283	-0.9217953467	-0.470492
C	 0.6150871105	-2.546189236	-2.3412413671	 0.330525
C	 1.181177295	-2.9331084263	-3.3260934567	-0.416232
H	 0.1391337317	 1.9703353217	 0.8354622108	 0.128589
H	 0.7616385066	 1.7745517389	-0.8235933514	 0.152215
H	-0.9749433414	 1.725571826	-0.5329867525	 0.153812
H	 0.3399484072	-0.0875994891	 1.9461210401	 0.225822
H	 0.5146810098	-2.4233108558	-0.2388030762	 0.172334
H	-3.5095299252	-3.4761175193	-0.8390708991	 0.20472
H	 1.6774237119	-3.2744757959	-4.2009231639	 0.203548
32.7804	73.6947	123.0747	123.6619	142.8325	242.9174	285.9661	329.6734	376.638	488.2096	556.1461	569.9396	580.1787	620.1796	628.282	637.1372	674.3778	677.1226	840.5777	900.6875	925.7459	993.0313	1045.4374	1057.0459	1068.6206	1087.2296	1292.9181	1341.9571	1377.0893	1414.7988	1470.4562	1481.1023	1734.0785	2245.5462	2250.525	3043.4322	3051.4691	3116.9092	3146.7568	3502.6302	3503.3462	3531.0129
CC(=N)OC(C#C)C#C	C[C]([NH])OC(C#C)C#C	
InChI=1S/C7H7NO/c1-4-7(5-2)9-6(3)8/h1-2,7-8H,3H3	InChI=1S/C7H7NO/c1-4-7(5-2)9-6(3)8/h1-2,7-8H,3H3
