16
gdb 81521	3.7276	1.27589	1.07568	3.9729	69.68	-0.274	0.0163	0.2903	1088.0718	0.123822	-437.833914	-437.825844	-437.8249	-437.866098	31.248	
O	 0.0147337228	 1.4496128362	-0.0737852459	-0.437976
C	 0.0438807709	 0.0519200707	 0.0159989269	 0.127867
C	-0.0418460178	-0.618288775	 1.4354161915	-0.167649
C	-1.4944580107	-0.0633728178	 1.5133651392	-0.260389
C	-1.3567888804	-0.6193774697	 0.0608859415	-0.109723
C	-0.6434570341	-1.855782615	 0.6801037368	 0.321527
O	 0.1612712559	-2.587684932	-0.212705113	-0.478305
C	-1.4579800515	-2.7783828165	 1.480238407	 0.2251
N	-2.0412746876	-3.5597967035	 2.1015809228	-0.34592
H	 0.9213029667	 1.7690886686	-0.0964670027	 0.290731
H	 0.7645323897	-0.3877151798	-0.6748870514	 0.099292
H	 0.71132877	-0.649200121	 2.2237220797	 0.084113
H	-2.1904537825	-0.5763985793	 2.1784876307	 0.126415
H	-1.5749676779	 1.0173328974	 1.5874045931	 0.131748
H	-2.1084770215	-0.6482500144	-0.7270356048	 0.096503
H	 0.629523848	-3.2695126289	 0.2815615286	 0.296666
135.8644	156.1505	242.0699	270.5083	285.0205	324.4743	368.3096	388.7901	488.616	518.3372	566.1017	636.1345	697.775	769.8119	830.4046	886.232	902.2888	944.482	1012.3182	1034.994	1052.4441	1074.8736	1102.4957	1164.5874	1167.2567	1189.1677	1193.3351	1214.0948	1236.4733	1249.9101	1307.8543	1357.8123	1443.5892	1518.747	2347.8233	3094.5809	3101.8783	3112.7231	3130.9459	3185.6489	3810.4989	3836.0164
OC1C2CC1C2(O)C#N	O[C@H]1[C@H]2C[C@@H]1[C@]2(O)C#N	
InChI=1S/C6H7NO2/c7-2-6(9)3-1-4(6)5(3)8/h3-5,8-9H,1H2	InChI=1S/C6H7NO2/c7-2-6(9)3-1-4(6)5(3)8/h3-5,8-9H,1H2/t3-,4+,5+,6+
