20
gdb 30218	3.34683	1.29609	1.00147	1.9824	88.69	-0.1864	0.0546	0.241	1242.3482	0.171823	-366.028329	-366.019543	-366.018598	-366.062153	32.709	
C	-0.1690678618	 1.5886138371	 0.0378339293	-0.394004
C	-0.0143062077	 0.0715967847	 0.0580525338	-0.152054
C	 0.6385685703	-0.5888704136	-1.2258855116	-0.193043
N	 1.7134733931	-1.0537624508	-0.3381511619	-0.025641
C	 1.1837210115	-0.5172245861	 0.7962739374	 0.338793
C	 1.9830354179	-0.8558535763	 1.8629470165	-0.348653
C	 3.0385464556	-1.640600758	 1.2919239856	-0.202229
C	 2.8563142634	-1.7655096293	-0.0806072231	 0.230736
C	 3.6612089783	-2.4697190536	-1.1208552965	-0.49512
H	 0.7695481881	 2.0749062922	-0.2462539578	 0.12264
H	-0.9469372274	 1.8967868532	-0.6694630146	 0.113333
H	-0.4513541777	 1.9601515028	 1.0279588282	 0.125607
H	-0.9689617096	-0.4002160618	 0.3158367448	 0.089817
H	 0.0604007352	-1.3941593738	-1.6895006369	 0.119133
H	 0.9679121378	 0.1177825743	-1.9946679602	 0.117041
H	 1.8617431082	-0.600209779	 2.9036771743	 0.090292
H	 3.8674332991	-2.0711838839	 1.8360115256	 0.084805
H	 3.0826981159	-3.2433600145	-1.6415968281	 0.122268
H	 4.0447147368	-1.7832419368	-1.8863386644	 0.122933
H	 4.5207868932	-2.9586644266	-0.6560704804	 0.133346
61.6642	105.6107	122.3245	206.7554	238.1394	248.3056	308.1407	426.4701	523.2886	613.9934	628.7911	669.1306	709.3994	750.4147	769.4859	795.3906	865.6286	915.4571	957.0949	988.7206	1035.0998	1061.3915	1079.0153	1102.7425	1133.9667	1163.5851	1174.3004	1229.1211	1235.6733	1265.4775	1307.2727	1351.9543	1406.1759	1413.5089	1421.7825	1438.0416	1479.4864	1492.1552	1494.3264	1503.0713	1511.5344	1540.2389	1589.5675	3013.9568	3030.6962	3039.2252	3042.8178	3055.9388	3092.0575	3099.9095	3108.9685	3118.3891	3229.4181	3256.441
CC1CN2C1=CC=C2C	C[C@H]1Cn2c1ccc2C	
InChI=1S/C8H11N/c1-6-5-9-7(2)3-4-8(6)9/h3-4,6H,5H2,1-2H3	InChI=1S/C8H11N/c1-6-5-9-7(2)3-4-8(6)9/h3-4,6H,5H2,1-2H3/t6-/m0/s1
