21
gdb 73697	2.6411	1.9334	1.33455	1.3911	81.72	-0.2363	0.0929	0.3292	1014.9061	0.185081	-387.050496	-387.043157	-387.042213	-387.081718	30.798	
C	 0.0183031264	 1.5613426745	-0.1149678485	-0.487113
C	-0.0156662558	 0.0408715722	 0.0068836325	 0.361891
C	 0.2370521911	-0.6003332091	-1.3687377138	-0.294398
C	-0.2811174362	-2.033721723	-1.3915210658	-0.079328
O	 0.0370067079	-2.7038537735	-0.1814770367	-0.277799
C	-0.1612853907	-1.8980590982	 0.9442402933	 0.165451
C	 0.7506004953	-0.6553610922	 1.1905870612	-0.120811
C	-0.362794395	-0.1747683405	 2.1584042389	-0.256125
C	-1.1220859829	-0.6610281455	 0.8962073729	-0.147469
H	 0.9559302504	 1.8778786702	-0.5870799704	 0.116307
H	-0.7984621007	 1.9111914181	-0.7571295373	 0.114556
H	-0.0608869484	 2.0878490448	 0.8376290569	 0.115824
H	-0.2578840659	-0.0242838039	-2.159791495	 0.093838
H	 1.313505018	-0.571118667	-1.5822809064	 0.10214
H	-1.3741676126	-2.0264131238	-1.5278048439	 0.090612
H	 0.1519122764	-2.6231853675	-2.2045453958	 0.103945
H	-0.2831760323	-2.5682892989	 1.798772311	 0.076976
H	 1.8297862899	-0.653870978	 1.3590170726	 0.064506
H	-0.5045590313	-0.7733869762	 3.0629342205	 0.090625
H	-0.4071173703	 0.8869039205	 2.3919339316	 0.099425
H	-2.2030433633	-0.6580215529	 0.7403899619	 0.066946
184.8644	195.32	224.3129	352.1841	365.0976	419.6026	444.6636	500.0782	547.577	645.3617	691.7173	769.0522	783.3276	857.3598	887.331	897.5612	910.0791	929.5111	977.2497	1008.0162	1027.0005	1040.4521	1059.7841	1086.2375	1092.492	1110.5177	1150.6844	1171.1923	1185.9221	1194.6466	1223.8707	1232.5295	1247.6773	1266.8107	1271.0878	1309.038	1367.3185	1398.4326	1416.2582	1429.6624	1480.4347	1494.2772	1497.0222	1510.7887	1533.2944	2976.6883	3018.1583	3029.5769	3059.2707	3062.4962	3078.4655	3081.1739	3084.3579	3086.3713	3095.9779	3124.791	3156.0679
CC12CCOC3C1CC23	C[C@@]12CCO[C@H]3[C@@H]1C[C@@H]23	
InChI=1S/C8H12O/c1-8-2-3-9-7-5(8)4-6(7)8/h5-7H,2-4H2,1H3	InChI=1S/C8H12O/c1-8-2-3-9-7-5(8)4-6(7)8/h5-7H,2-4H2,1H3/t5-,6+,7-,8+
