23
gdb 86782	3.3143	0.90533	0.78107	0.8918	91.7	-0.2536	0.0596	0.3131	1545.3053	0.203978	-351.120716	-351.110529	-351.109584	-351.155818	38.621	
C	-0.0433513468	 1.5783642849	-0.1543806406	-0.414926
C	 0.0876393609	 0.070369815	 0.0016966159	 0.047655
C	 1.110170598	-0.7003624767	-0.8766416959	-0.242537
C	 1.3692469283	-1.6430949359	 0.3252486188	 0.044658
C	 2.7862397444	-2.1771197032	 0.5709095651	-0.390684
C	 3.2208419454	-3.0980156968	-0.4738785586	 0.298024
C	 3.5511840372	-3.8544256237	-1.3481137507	-0.440892
C	 0.7652358235	-0.5520978626	 1.2725668518	-0.035355
C	 1.7793631798	 0.3436424775	 1.981758591	-0.397042
H	 0.9210532148	 2.0857348559	-0.0497331207	 0.112673
H	-0.4394149575	 1.8292291929	-1.1448947426	 0.113995
H	-0.7264964004	 2.0028777557	 0.5901616731	 0.111905
H	-0.9011094458	-0.3873771427	-0.1186073155	 0.070575
H	 0.7576655371	-1.1463183109	-1.8093498412	 0.099033
H	 1.9891679357	-0.0852914885	-1.1011035557	 0.094528
H	 0.6837512224	-2.4951605961	 0.2752211442	 0.08083
H	 3.4959856455	-1.3431939462	 0.635136641	 0.125264
H	 2.8260370293	-2.686535016	 1.5434395656	 0.126227
H	 3.8550209686	-4.5228475056	-2.1147874861	 0.19133
H	 0.0621596401	-0.9414385215	 2.0163439172	 0.061728
H	 2.5170921355	 0.7698549301	 1.2939060573	 0.115558
H	 1.277445057	 1.1794913294	 2.4799570842	 0.113911
H	 2.3274969069	-0.213739355	 2.7489476524	 0.11354
57.0501	93.1019	111.8481	211.0971	222.3691	249.5007	276.2149	318.6512	349.4143	353.3227	429.6945	469.5476	518.4247	615.3932	629.8116	650.687	760.3793	809.3652	854.5586	884.6677	917.8608	943.3675	963.8215	1006.0072	1020.3216	1042.1122	1082.1254	1121.5053	1153.8549	1164.4122	1179.9561	1223.9339	1257.6492	1262.3576	1278.3688	1292.5934	1327.1772	1363.4074	1371.4397	1392.6435	1412.2591	1413.3801	1469.6489	1491.0245	1492.1916	1493.2524	1505.8162	1506.5131	2236.2348	3013.6016	3025.5808	3027.3731	3031.4389	3038.5425	3042.8373	3047.7232	3061.9526	3087.5945	3095.065	3098.1528	3100.8627	3107.2991	3507.493
CC1CC(CC#C)C1C	C[C@H]1C[C@@H](CC#C)[C@H]1C	
InChI=1S/C9H14/c1-4-5-9-6-7(2)8(9)3/h1,7-9H,5-6H2,2-3H3	InChI=1S/C9H14/c1-4-5-9-6-7(2)8(9)3/h1,7-9H,5-6H2,2-3H3/t7-,8-,9+/m0/s1
