15
gdb 129655	2.36419	1.90063	1.05682	3.7838	74.23	-0.1988	-0.0313	0.1676	1052.7271	0.116193	-450.174563	-450.166831	-450.165887	-450.206402	30.119	
N	-0.0227312297	 1.4163021032	 0.1129665936	-0.604367
C	-0.0203305545	 0.0216090987	 0.0350884643	 0.208135
C	-1.2026823949	-0.6767543159	-0.0143013042	 0.149989
N	-2.449434631	-0.0693664781	-0.0511075251	-0.598792
C	-1.1836851469	-2.1246913426	-0.0755988093	 0.390399
O	-2.1883533673	-2.8296541975	-0.1266258979	-0.424196
N	 0.0937108876	-2.6648621607	-0.064704604	-0.279241
N	 1.2693175899	-2.0206088905	 0.0104130214	-0.221044
C	 1.1981372269	-0.7201045394	 0.0546158189	-0.034026
H	 0.8680481466	 1.8442183585	-0.0996790998	 0.252126
H	-0.7628649487	 1.8396290171	-0.4350729389	 0.257133
H	-2.5652925134	 0.6938852892	 0.6040230571	 0.252631
H	-3.1812650123	-0.7675079223	 0.0336314725	 0.267647
H	 0.1551228768	-3.6733417114	-0.0911939719	 0.271495
H	 2.1510620907	-0.2015453684	 0.1086439634	 0.11211
144.0747	209.755	254.5582	267.0417	293.8256	330.0094	460.009	496.5036	531.5102	555.2983	583.2831	624.2345	695.2839	711.3132	720.2043	751.778	803.3294	888.354	894.5685	1004.3238	1107.8651	1166.8889	1243.8482	1288.0811	1342.8744	1395.1962	1428.6483	1458.6178	1583.2425	1628.3398	1653.2012	1681.1327	1748.2786	3171.4553	3508.4159	3526.489	3606.3393	3613.0127	3631.8644
NC1=C(N)C(=O)NN=C1	Nc1c(N)c(=O)[nH]nc1	
InChI=1S/C4H6N4O/c5-2-1-7-8-4(9)3(2)6/h1H,(H2,6,7)(H3,5,8,9)	InChI=1S/C4H6N4O/c5-2-1-7-8-4(9)3(2)6/h1H,(H2,6,7)(H3,5,8,9)
