15
gdb 49867	3.53228	1.22637	0.92072	2.646	67.95	-0.2569	-0.0571	0.1998	1174.6094	0.112551	-454.002872	-453.994837	-453.993893	-454.036495	28.864	
N	-0.1390961703	 1.3141866694	 0.0078450154	-0.521915
C	-0.0605697653	 0.0547144811	 0.000580926	 0.390516
C	-1.2555780066	-0.8737301729	 0.003571144	-0.418588
C	-0.6939330164	-2.2841217962	-0.0079545706	 0.39244
O	-1.307147707	-3.3156349211	-0.0097438301	-0.289439
C	 0.8370519344	-2.1919992722	-0.0172590856	-0.291181
N	 1.1156878445	-0.7583827404	-0.0116752479	-0.13744
C	 2.4028390893	-0.2757282591	-0.0182397236	 0.163809
O	 2.7169540946	 0.893334484	-0.0142647131	-0.307157
H	 0.7894467601	 1.7373760824	 0.0038735789	 0.257468
H	-1.883334627	-0.7154454927	 0.88606534	 0.174862
H	-1.8952116818	-0.7057939247	-0.8685462631	 0.174866
H	 1.2416729658	-2.7018967259	 0.8646020706	 0.158022
H	 1.2305009727	-2.6928505278	-0.9092805965	 0.158026
H	 3.147863893	-1.0946259938	-0.0279062343	 0.09571
42.856	81.7332	199.633	243.9597	246.5041	369.0816	448.8214	461.4895	532.5625	541.5115	584.0563	751.5485	774.2539	805.9648	820.8283	961.4083	1014.7734	1035.2213	1042.2004	1146.1756	1162.1038	1211.5438	1215.6349	1247.8269	1273.9159	1313.2625	1387.9346	1418.8286	1447.5033	1485.6688	1735.5493	1810.3746	1869.5629	2948.1327	3034.7631	3067.2235	3075.6259	3104.0699	3490.1175
N=C1CC(=O)CN1C=O	[NH][C]1CC(=O)CN1C=O	
InChI=1S/C5H6N2O2/c6-5-1-4(9)2-7(5)3-8/h3,6H,1-2H2	InChI=1S/C5H6N2O2/c6-5-1-4(9)2-7(5)3-8/h3,6H,1-2H2
