21
gdb 106702	2.41691	1.46549	1.18272	1.8105	82.06	-0.2472	0.0811	0.3283	1171.0125	0.181207	-387.04422	-387.035205	-387.034261	-387.077794	34.535	
C	 0.1400564021	 1.4852344406	 0.2236378112	-0.373896
C	-0.1171897126	 0.0060372101	-0.0965326258	-0.291485
C	 0.6203415286	-0.4717009621	-1.3180361751	 0.302685
C	 2.0563383387	-0.9506442023	-1.31735888	-0.384795
C	 0.9754647142	-1.9202035446	-1.7397387111	 0.249885
C	 0.6646243271	-3.2102294473	-1.0358325598	-0.496343
C	 0.5531001251	-1.5703338539	-3.1540945913	-0.041258
O	-0.812184012	-1.1216131706	-3.1396291541	-0.253379
C	 0.2170174184	-0.1942294477	-2.7551530003	-0.047698
H	 1.2027844838	 1.6691610385	 0.4131863558	 0.116472
H	-0.1648040256	 2.1284360669	-0.6087625586	 0.1178
H	-0.4209601467	 1.7999924735	 1.1089493128	 0.11222
H	 0.1715920537	-0.6084778322	 0.7654350365	 0.095191
H	-1.1912410413	-0.1590141696	-0.2470641483	 0.111483
H	 2.7721717332	-0.5670062005	-2.040205785	 0.104487
H	 2.4847953941	-1.1325448926	-0.3346712455	 0.111155
H	 0.8133378508	-3.1206897078	 0.0451785952	 0.117801
H	-0.3754538246	-3.5042624615	-1.2104585077	 0.132334
H	 1.3101034513	-4.0236237146	-1.3880918363	 0.119983
H	 0.9370385842	-1.9423589758	-4.0975050688	 0.098576
H	 0.2863752075	 0.7247241034	-3.3262312638	 0.098781
73.989	132.6849	179.7125	204.0371	216.24	253.3281	272.2997	396.0556	413.8863	525.7792	586.2654	618.8933	721.3587	775.9072	797.8912	814.086	860.848	873.6983	913.3769	956.5816	967.6871	986.343	997.4263	1032.4038	1061.1436	1085.7222	1086.1831	1108.3595	1183.7916	1202.6008	1227.6218	1262.9889	1314.7449	1333.8333	1350.7645	1365.4265	1396.4101	1410.5835	1421.6562	1481.4119	1488.4463	1497.576	1498.2646	1501.0332	1507.5017	3021.6395	3025.9583	3033.0632	3055.363	3085.8131	3101.6008	3102.1113	3105.1295	3105.6933	3174.0245	3184.9123	3188.5482
CCC12CC1(C)C1OC21	CC[C@@]12C[C@]1(C)[C@H]1O[C@@H]21	
InChI=1S/C8H12O/c1-3-8-4-7(8,2)5-6(8)9-5/h5-6H,3-4H2,1-2H3	InChI=1S/C8H12O/c1-3-8-4-7(8,2)5-6(8)9-5/h5-6H,3-4H2,1-2H3/t5-,6+,7+,8-/m0/s1
