16
gdb 51763	2.61653	1.16895	0.89458	2.8204	72.41	-0.2611	0.0057	0.2668	1268.4144	0.123087	-437.847902	-437.839077	-437.838133	-437.882612	31.353	
O	-0.0954929058	-0.2166191427	-0.0648400734	-0.315485
C	-0.076002196	 0.9882374438	 0.0573989427	 0.152662
N	 1.040197264	 1.7694834943	-0.031950974	-0.286697
C	 2.3561229873	 1.2273033507	-0.1829321654	-0.010022
C	 3.2379425144	 1.6791617738	-1.3679199228	-0.095467
O	 4.3353025519	 1.9863019825	-0.480045686	-0.270612
C	 3.5109507291	 1.819862008	 0.6965864771	-0.098206
C	 3.201829394	 3.0745649236	 1.3666984262	 0.336632
C	 2.906329022	 4.1122295798	 1.8988699703	-0.445284
H	-0.9832846392	 1.5936155895	 0.2476309951	 0.082197
H	 0.9560036577	 2.7558227196	 0.1674729786	 0.25382
H	 2.2748904962	 0.1451966287	-0.0934082841	 0.141462
H	 3.5062023794	 0.9158721927	-2.1048257478	 0.121589
H	 2.8628171619	 2.5724540894	-1.884258093	 0.105586
H	 3.9654459812	 1.1145191511	 1.4013868729	 0.117334
H	 2.680599372	 5.0279032054	 2.3885892736	 0.210491
42.8712	75.7333	118.9792	194.6751	220.9923	238.1636	353.8413	418.0322	522.2858	564.3301	580.5419	646.3776	676.5928	700.3655	825.4784	859.7349	907.168	973.6212	1015.1447	1030.3487	1051.2359	1089.0273	1123.0376	1157.1869	1209.1802	1252.4839	1263.6524	1331.3669	1349.8732	1372.2466	1431.5431	1520.939	1536.9322	1809.0058	2226.1829	2948.4599	3017.1982	3044.4853	3082.7747	3141.5599	3497.6925	3607.4932
O=CNC1COC1C#C	O=CN[C@H]1CO[C@H]1C#C	
InChI=1S/C6H7NO2/c1-2-6-5(3-9-6)7-4-8/h1,4-6H,3H2,(H,7,8)	InChI=1S/C6H7NO2/c1-2-6-5(3-9-6)7-4-8/h1,4-6H,3H2,(H,7,8)/t5-,6-/m0/s1
