19
gdb 15167	5.99684	0.86951	0.80025	2.761	76.37	-0.2433	0.0281	0.2714	1470.7972	0.163813	-365.040101	-365.031135	-365.030191	-365.074701	31.952	
C	 0.4082896287	 0.3192859083	 0.6890127467	-0.396063
C	-0.199378273	 0.2716977969	-0.7170812609	-0.109584
N	 0.5860660417	-0.2841637346	-1.8059737112	-0.224867
C	 1.7405261456	-0.7325232689	-1.6008115729	 0.12217
O	 2.4534529003	-1.2493700201	-2.6347962779	-0.20953
C	 3.7537407777	-1.6779323441	-2.3158974753	 0.123299
C	 3.9447298075	-3.0383555464	-1.6992949515	-0.287309
C	 4.29013137	-2.7903105653	-3.1535005614	-0.280021
H	 0.6485308788	-0.6809339577	 1.06533417	 0.118554
H	 1.3220812456	 0.9225663146	 0.7184625004	 0.118249
H	-0.3085300634	 0.7700586724	 1.3820040069	 0.11521
H	-1.1415136656	-0.2918750148	-0.6838609055	 0.112347
H	-0.4867271808	 1.2876879894	-1.019382961	 0.112755
H	 2.2732001455	-0.763994102	-0.6430764311	 0.080526
H	 4.4237976499	-0.8719653262	-2.0248276381	 0.100622
H	 4.7478331973	-3.1726921592	-0.9832176742	 0.118588
H	 3.0492904733	-3.6146524836	-1.4962890421	 0.128658
H	 3.6156818396	-3.1961411157	-3.8982628394	 0.136337
H	 5.3322345513	-2.755782663	-3.4488748513	 0.120058
39.6743	71.9966	122.4435	162.6223	238.2151	253.2546	322.6857	369.5589	426.7577	493.9237	580.0952	760.9985	779.8603	819.5944	838.2369	901.6728	976.145	985.0854	997.5985	1056.4831	1075.2534	1077.145	1095.8807	1127.057	1147.6792	1190.6103	1194.4537	1211.5602	1257.1717	1315.4146	1375.2412	1384.344	1399.8128	1423.7149	1455.1367	1484.4207	1495.2481	1496.7102	1507.0228	1780.8276	3014.6092	3030.9059	3033.9323	3049.7532	3099.7694	3106.7573	3126.8418	3139.2875	3147.293	3224.8984	3239.9956
CCN=COC1CC1	CCN=COC1CC1	
InChI=1S/C6H11NO/c1-2-7-5-8-6-3-4-6/h5-6H,2-4H2,1H3	InChI=1S/C6H11NO/c1-2-7-5-8-6-3-4-6/h5-6H,2-4H2,1H3
