18
gdb 12395	3.08639	2.14043	1.32984	3.9897	69.26	-0.2254	0.0602	0.2857	929.84	0.15657	-381.175749	-381.167809	-381.166865	-381.208204	28.995	
C	-0.0499049797	 1.4343060672	 0.1164151021	-0.338415
N	 0.015445726	 0.0039477691	-0.1097406466	-0.118138
C	-1.2444284483	-0.7227051306	-0.063670211	-0.142371
C	-1.1091112349	-2.1177327456	-0.6674053893	-0.215101
C	 0.0804154228	-2.830852494	-0.0334213903	-0.153403
N	 1.25014669	-1.9873550533	-0.1878910281	-0.354065
C	 1.2530289011	-0.6113661182	-0.0663994093	 0.464954
O	 2.3023370916	 0.008281251	 0.0271668277	-0.427647
H	 0.961908619	 1.8329035958	 0.0682467798	 0.169275
H	-0.6722233938	 1.9137944766	-0.6491521117	 0.113209
H	-0.4807898028	 1.6681127753	 1.1009954724	 0.110136
H	-1.6129442275	-0.7953192881	 0.9740773129	 0.099128
H	-1.9933398184	-0.1439634818	-0.6182468876	 0.107694
H	-2.0301530278	-2.6840063556	-0.5022067026	 0.105904
H	-0.9476007471	-2.0377905983	-1.7474816113	 0.119525
H	-0.1360785556	-3.0496745149	 1.025409839	 0.100546
H	 0.2673342764	-3.7895730876	-0.528360362	 0.110791
H	 2.1628859289	-2.3805797272	-0.0242047342	 0.247978
89.1459	124.3571	140.5457	190.5234	308.366	354.9298	426.7205	465.7932	519.3582	556.4004	682.5931	724.4297	758.0124	901.3344	903.7277	946.5451	992.775	1084.5173	1111.861	1136.9338	1165.514	1213.5865	1217.5085	1247.506	1292.7922	1306.0449	1347.1623	1380.3458	1401.255	1431.4468	1456.1868	1474.5138	1482.7123	1499.1123	1507.3835	1526.7323	1549.9442	1773.308	2953.2197	2964.0372	2995.7987	3035.6829	3049.0082	3052.2558	3066.0032	3102.7942	3169.614	3645.8484
CN1CCCNC1=O	CN1CCCNC1=O	
InChI=1S/C5H10N2O/c1-7-4-2-3-6-5(7)8/h2-4H2,1H3,(H,6,8)	InChI=1S/C5H10N2O/c1-7-4-2-3-6-5(7)8/h2-4H2,1H3,(H,6,8)
