20
gdb 99580	2.30136	1.11796	0.79341	5.2363	80.11	-0.2604	-0.0367	0.2236	1453.7496	0.167816	-403.180001	-403.16923	-403.168286	-403.217106	37.095	
C	-0.006883113	 1.6151137469	 0.1158746261	-0.400201
C	-0.0144776845	 0.0865809718	 0.0375681287	-0.19116
C	 0.6996731724	-0.4718742031	-1.2161983674	-0.153605
C	 2.0932751462	-0.0067997218	-1.2519768036	 0.282472
N	 3.1931854201	 0.3487689112	-1.2691883705	-0.327789
C	 0.6630699222	-2.0206996078	-1.3189386568	-0.064486
C	-0.7678385501	-2.5720700149	-1.4745640625	-0.424073
C	 1.470995863	-2.51026394	-2.5165248616	 0.160432
O	 2.0687905504	-3.5521065263	-2.5401428191	-0.24349
H	 1.0131509619	 2.0080803103	 0.1529313422	 0.14936
H	-0.507368496	 2.0592428314	-0.7515015478	 0.120338
H	-0.5319167533	 1.9543695963	 1.0131315178	 0.124484
H	 0.4612150971	-0.3390609479	 0.9286120575	 0.120925
H	-1.0472845249	-0.273305811	 0.0266361658	 0.112938
H	 0.2060874421	-0.0570675764	-2.1070713959	 0.124913
H	 1.1229111056	-2.4566147868	-0.4259134627	 0.117052
H	-0.7336523904	-3.659465238	-1.5785753788	 0.147574
H	-1.3864683913	-2.3367628695	-0.6057999939	 0.135262
H	-1.2581441685	-2.1598590842	-2.3639422243	 0.125635
H	 1.4307222312	-1.8472824803	-3.4127411033	 0.08342
37.2124	51.784	86.5811	136.7941	169.0166	193.1569	218.2188	265.6698	304.8714	333.0518	352.452	383.7724	503.0654	559.3872	618.2915	767.3186	854.6245	884.0627	926.7546	946.3203	969.6563	1037.3257	1066.6451	1103.1267	1129.634	1145.2588	1160.2956	1247.6825	1285.4403	1303.9314	1337.4074	1363.8532	1365.0655	1404.2876	1418.5174	1428.819	1485.6861	1496.2099	1499.2623	1503.1884	1507.599	1840.2102	2352.4102	2855.9496	3009.8131	3038.4038	3039.317	3045.6438	3066.2703	3087.6011	3109.8453	3113.462	3122.1857	3130.4019
CCC(C#N)C(C)C=O	CC[C@@H](C#N)[C@@H](C)C=O	
InChI=1S/C7H11NO/c1-3-7(4-8)6(2)5-9/h5-7H,3H2,1-2H3	InChI=1S/C7H11NO/c1-3-7(4-8)6(2)5-9/h5-7H,3H2,1-2H3/t6-,7-/m0/s1
