21
gdb 107020	3.03885	1.25147	1.06046	1.8387	78.23	-0.2446	0.0743	0.3189	1237.3159	0.180881	-424.200585	-424.191007	-424.190062	-424.234865	35.91	
C	-0.2082620009	 1.5287561604	-0.0937282608	-0.382947
C	 0.0474683211	 0.0209097249	 0.0520981665	-0.315729
C	 0.8807013675	-0.5218347777	-1.0657001461	 0.401002
O	 0.2680515363	-0.6640124628	-2.3690086661	-0.311893
C	 0.9169452046	-1.8099090171	-1.7802006148	-0.066383
C	 2.4117500318	-1.6911485475	-2.0988507347	-0.051739
C	 2.8437472786	-1.7563390586	-3.5557679563	-0.406013
C	 2.369306035	-0.2708623445	-1.386785045	 0.059329
O	 2.6513172595	 0.8711728967	-2.1504063027	-0.431717
H	 0.7327651062	 2.0840680625	-0.1501351861	 0.134603
H	-0.7733400401	 1.7350340924	-1.0075932112	 0.130175
H	-0.7821037438	 1.9114203325	 0.7550691202	 0.112711
H	 0.5618236138	-0.1814153527	 1.0000810528	 0.104422
H	-0.9033943014	-0.5230539961	 0.0818650951	 0.109848
H	 0.3056018591	-2.6958250465	-1.6453289601	 0.101093
H	 2.9936399105	-2.3883279969	-1.4863464154	 0.074729
H	 2.1926152958	-1.1434468628	-4.1848679598	 0.121067
H	 3.8685683717	-1.3922840694	-3.6746118066	 0.125908
H	 2.8017992526	-2.7841840847	-3.931287442	 0.113036
H	 3.0104209391	-0.2318242855	-0.5023941498	 0.087901
H	 1.9640966432	 0.9124301534	-2.8279032773	 0.290597
74.1681	104.3114	157.135	182.3426	201.459	236.3681	261.3145	323.0138	353.5442	460.6615	508.9152	583.1648	614.6763	703.497	710.0297	779.5379	809.0388	871.5983	884.9594	923.4078	965.4908	1012.7576	1013.5228	1062.8315	1071.5129	1105.8167	1132.0944	1141.6785	1190.1562	1205.1196	1239.6554	1267.7229	1304.8153	1316.0565	1347.5919	1360.505	1406.1363	1410.307	1429.0589	1468.0409	1476.0026	1490.6627	1496.6707	1504.526	1512.0117	3027.6654	3039.2302	3042.4982	3050.3946	3068.2438	3085.3756	3105.1504	3115.6981	3117.7228	3119.4479	3177.3377	3774.7371
CCC12OC1C(C)C2O	CC[C@]12O[C@H]1[C@@H](C)[C@H]2O	
InChI=1S/C7H12O2/c1-3-7-5(8)4(2)6(7)9-7/h4-6,8H,3H2,1-2H3	InChI=1S/C7H12O2/c1-3-7-5(8)4(2)6(7)9-7/h4-6,8H,3H2,1-2H3/t4-,5+,6-,7+/m0/s1
