18
gdb 39604	3.30872	1.57512	1.13275	2.0186	71.07	-0.2454	0.0091	0.2545	1050.3569	0.1514	-439.094944	-439.088145	-439.0872	-439.126005	27.45	
C	-0.0126540903	 1.5304495762	 0.0128348642	-0.212095
C	 1.4176223597	 2.1116567913	 0.0723791173	-0.079821
O	 2.2525343523	 1.5097791907	 1.0772308239	-0.252532
C	 2.2323223972	 0.1437226877	 0.8440340549	 0.241813
O	 3.0705129493	-0.6208612011	 1.7183348038	-0.250695
C	 2.3947235259	-1.8134997143	 1.7779309353	 0.096741
N	 1.189833089	-1.879151181	 1.3741785969	-0.304015
C	 0.8614603891	-0.4679246587	 1.0794794264	 0.062737
C	-0.0511804447	-0.0203248196	-0.0489887761	-0.267576
H	-0.5625001069	 1.859426265	 0.9023318029	 0.115631
H	-0.519101156	 1.9662877073	-0.8549750524	 0.10662
H	 1.9050541998	 1.9946287353	-0.9090212078	 0.101548
H	 1.3915827249	 3.1764513662	 0.3118541087	 0.121254
H	 2.5801773034	-0.0647159017	-0.1876007644	 0.064533
H	 2.9735370658	-2.6330682469	 2.1882939199	 0.141215
H	 0.4679936558	-0.0386746496	 2.01455642	 0.096619
H	-1.0751465412	-0.3867708385	 0.0653830829	 0.112848
H	 0.3239790567	-0.3833275483	-1.0136889066	 0.105174
172.5475	194.9407	327.5034	333.8367	356.6248	432.6894	510.7638	562.0835	577.0516	646.0252	823.9354	857.2597	870.1315	883.5587	926.334	960.5486	979.1102	1032.6538	1072.074	1073.9663	1087.4498	1148.3794	1162.2784	1172.791	1204.1647	1228.7193	1288.9277	1303.7152	1329.445	1333.8235	1368.8433	1385.3211	1398.5996	1412.3044	1444.4447	1478.6591	1497.2152	1502.7879	1662.3688	2902.7045	2979.9496	2983.7312	3036.9266	3039.0912	3083.5461	3095.2682	3112.5608	3219.1911
C1COC2OC=NC2C1	C1CO[C@H]2O[CH][N][C@@H]2C1	
InChI=1S/C6H9NO2/c1-2-5-6(8-3-1)9-4-7-5/h4-6H,1-3H2	InChI=1S/C6H9NO2/c1-2-5-6(8-3-1)9-4-7-5/h4-6H,1-3H2/t5-,6+/m1/s1
