23
gdb 107403	3.02265	1.18288	1.05424	1.7768	84.82	-0.2499	0.0855	0.3353	1293.4856	0.205875	-388.305272	-388.296012	-388.295068	-388.339101	35.825	
C	-0.2164035289	 1.5511722384	-0.4546997377	-0.380293
C	-0.0753766295	 0.0570397538	-0.134555189	-0.277291
C	-1.3429086181	-0.5487118637	 0.416221264	 0.43465
C	-1.8830724494	-0.1497511664	 1.7825043062	-0.296171
C	-2.9977813928	-1.1843964206	 2.117876173	 0.020469
C	-4.4046331877	-0.642693586	 1.8346393877	-0.392522
C	-2.6569371902	-2.4354998612	 1.2544719001	-0.257151
C	-1.8210464781	-1.9048074099	 0.110770648	-0.014658
O	-2.3991285347	-0.7639106082	-0.546056678	-0.303868
H	 0.7064511393	 1.9460674033	-0.8895814501	 0.111834
H	-1.0274258741	 1.7135113658	-1.1708880359	 0.133685
H	-0.437679382	 2.1365001243	 0.4435383443	 0.117332
H	 0.2023618222	-0.4869599899	-1.0438931794	 0.103889
H	 0.7350322213	-0.0961757346	 0.5898515006	 0.096476
H	-1.063435308	-0.1993293717	 2.5102211925	 0.09494
H	-2.2647224314	 0.8765239364	 1.7964075613	 0.104592
H	-2.9440692636	-1.4473015218	 3.1791202092	 0.069534
H	-4.5063506	-0.3660351819	 0.7825043288	 0.139812
H	-5.1671233957	-1.3939801339	 2.0685040811	 0.104228
H	-4.6125994917	 0.2427543869	 2.4456497265	 0.104093
H	-2.0603181514	-3.162292057	 1.8196017138	 0.097015
H	-3.5574586346	-2.9542378928	 0.9086931278	 0.105511
H	-1.2744362811	-2.5833165594	-0.5415699051	 0.083895
72.9114	113.5437	157.7324	212.5711	246.7097	273.1942	315.9757	376.4673	385.4203	412.5461	466.5429	610.2738	680.3513	736.966	778.6318	805.0311	860.9444	882.72	910.7867	924.7432	957.2176	972.4356	1003.4977	1043.9438	1046.8686	1066.9601	1086.6708	1130.482	1157.5488	1197.8317	1220.5032	1244.8241	1263.7747	1291.5913	1307.0098	1330.3125	1355.5198	1366.2501	1369.6916	1403.2737	1407.7121	1462.6653	1474.4626	1478.0251	1488.0067	1499.2293	1499.7835	1508.9374	1512.8446	3023.2802	3028.2117	3029.2701	3030.0903	3039.4588	3051.7279	3068.3985	3074.4516	3077.3469	3090.6667	3108.3497	3116.1485	3128.5427	3130.9773
CCC12CC(C)CC1O2	CC[C@]12C[C@@H](C)C[C@H]1O2	
InChI=1S/C8H14O/c1-3-8-5-6(2)4-7(8)9-8/h6-7H,3-5H2,1-2H3	InChI=1S/C8H14O/c1-3-8-5-6(2)4-7(8)9-8/h6-7H,3-5H2,1-2H3/t6-,7+,8-/m0/s1
