19
gdb 93299	2.21014	1.83222	1.12655	3.4869	76.2	-0.2372	-0.0137	0.2236	1092.828	0.159415	-423.050077	-423.041629	-423.040684	-423.08306	32.614	
O	 0.0303879395	 1.3913344222	-0.1678663127	-0.436754
C	 0.0330200234	-0.0185668115	-0.0332577693	 0.0225
C	 0.6063203142	-0.5333872549	 1.3076280403	-0.259455
C	-0.0336675884	-1.9196088838	 1.4887992186	-0.331451
C	-1.4061745806	-1.7925598731	 0.8172041926	 0.345671
O	-2.3428905507	-2.5416776463	 0.9603375322	-0.340935
C	-1.3851067993	-0.5658258131	-0.0400939121	 0.246252
C	-2.6064767335	 0.346392624	 0.0345425104	-0.286621
C	-2.3423856919	-0.4463009728	-1.2011981868	-0.315015
H	 0.941040459	 1.6851671939	-0.2679076309	 0.286445
H	 0.5971609533	-0.471689734	-0.8659717273	 0.07068
H	 1.6998983549	-0.55160406	 1.320136989	 0.094194
H	 0.2698102652	 0.1486736009	 2.0961144853	 0.117439
H	 0.5282690757	-2.6939909521	 0.9496348001	 0.129681
H	-0.1284187169	-2.2550657966	 2.5237250337	 0.130524
H	-3.4039219938	 0.0162762161	 0.6907656417	 0.131026
H	-2.402423697	 1.4094260415	 0.020078792	 0.142065
H	-1.9781027142	 0.0816761023	-2.0761817689	 0.121246
H	-2.9650567387	-1.3134662524	-1.3940114078	 0.132509
68.6492	160.7628	221.4615	236.3945	254.5151	265.5565	327.7484	477.1677	492.6727	533.79	574.2367	642.4328	676.4704	792.923	815.3945	847.0185	888.3704	937.2231	950.2825	985.0753	1023.999	1056.3999	1066.3146	1092.65	1094.7824	1110.4948	1161.0253	1207.5522	1210.9284	1239.2972	1284.6803	1292.5813	1309.5114	1328.2485	1380.6126	1441.3804	1448.3212	1455.6801	1483.6776	1497.8121	1827.235	2951.964	3032.3027	3047.5504	3096.0062	3112.9102	3130.3095	3146.6481	3222.3645	3248.7214	3824.9282
OC1CCC(=O)C11CC1	O[C@H]1CCC(=O)C21CC2	
InChI=1S/C7H10O2/c8-5-1-2-6(9)7(5)3-4-7/h5,8H,1-4H2	InChI=1S/C7H10O2/c8-5-1-2-6(9)7(5)3-4-7/h5,8H,1-4H2/t5-/m0/s1
