16
gdb 28800	3.18017	1.6654	1.11556	3.1863	70.76	-0.1713	0.0641	0.2354	1030.7674	0.128043	-434.092932	-434.08551	-434.084566	-434.124744	28.257	
O	 0.3594994462	 1.340911506	 0.2835797883	-0.442741
C	 0.2191665807	 0.0073958401	 0.0705100787	 0.301811
C	 0.183263631	-0.8109591906	-1.0254625931	-0.236885
N	 0.0098100092	-2.1504601256	-0.6392020815	-0.389328
C	-0.041224007	-2.088511554	 0.6573129671	 0.443159
N	-0.3130429336	-2.9856601008	 1.6962237819	-0.402952
C	 0.0789716431	-2.2884253626	 2.9388093592	-0.175911
C	-0.1030328497	-0.7819256997	 2.5947841299	-0.17694
N	 0.108031548	-0.8273975394	 1.1628095895	-0.066704
H	 0.4347087359	 1.7753326828	-0.5716020715	 0.308514
H	 0.2814582495	-0.5343146849	-2.063809714	 0.093598
H	 0.0864506122	-3.9063076135	 1.5743272955	 0.24991
H	-0.5499296	-2.5946552449	 3.7777221608	 0.121405
H	 1.129206772	-2.4785682069	 3.2021266041	 0.112113
H	-1.1132388296	-0.4285885199	 2.8360757667	 0.128095
H	 0.6220020721	-0.1466846161	 3.1079119084	 0.132855
143.8729	171.0379	203.8489	227.5598	269.0614	368.7929	554.7255	574.0207	627.137	628.1063	693.0462	723.2432	737.8315	783.8354	821.6426	898.8108	948.8828	1045.4013	1068.0565	1123.6333	1145.3307	1161.8396	1213.4355	1248.8604	1258.9466	1299.1513	1315.2581	1333.9121	1407.636	1468.5512	1501.6086	1524.205	1537.683	1615.6998	1650.316	3000.1869	3028.3997	3097.0612	3106.6008	3246.6263	3586.9049	3843.6144
OC1=CN=C2NCCN12	Oc1cnc2NCCn12	
InChI=1S/C5H7N3O/c9-4-3-7-5-6-1-2-8(4)5/h3,9H,1-2H2,(H,6,7)	InChI=1S/C5H7N3O/c9-4-3-7-5-6-1-2-8(4)5/h3,9H,1-2H2,(H,6,7)
