15
gdb 94484	4.20947	0.83588	0.76728	4.4281	69.18	-0.2781	-0.0105	0.2676	1440.0266	0.111807	-453.934658	-453.925777	-453.924833	-453.970323	30.357	
O	 0.4764088371	 0.0041494026	 0.9945948201	-0.417908
C	-0.3413514092	-0.3577796962	-0.083438504	-0.031016
C	-1.0978436736	 0.8301778187	-0.7088859684	-0.090956
O	-0.4377473613	 0.5788225664	-1.9965108784	-0.259855
C	 0.3151205049	-0.4348122705	-1.4542964737	 0.455951
N	 1.2417562361	-1.1282579912	-1.9370656432	-0.338893
C	 1.647725372	-0.8565394011	-3.3167133116	-0.304536
C	 1.2595477893	-1.9606581046	-4.2027555613	 0.27587
N	 0.9532701588	-2.8224679581	-4.9081057835	-0.30536
H	 1.127067281	-0.6959301638	 1.1202902679	 0.303983
H	-0.9751730543	-1.2263727982	 0.1381687336	 0.111617
H	-2.1808386739	 0.7430155896	-0.8038391513	 0.135059
H	-0.8052639855	 1.7989994264	-0.3007067054	 0.142592
H	 1.2278079522	 0.0734854613	-3.7208063534	 0.163342
H	 2.7397455162	-0.7698268815	-3.3460406975	 0.160111
16.3955	85.6244	121.5458	147.8403	227.7491	245.3662	331.7697	376.9414	420.7905	515.153	578.0204	710.9535	745.9996	857.2668	922.3961	931.2789	961.4377	1019.4739	1035.7546	1062.0774	1146.8008	1160.429	1183.9813	1215.128	1264.1258	1314.1153	1345.9319	1361.0184	1424.4402	1477.3072	1503.773	1830.9828	2365.9484	3024.9155	3027.3288	3070.8145	3083.8396	3153.9052	3808.7645
OC1COC1=NCC#N	O[C@H]1COC1=NCC#N	
InChI=1S/C5H6N2O2/c6-1-2-7-5-4(8)3-9-5/h4,8H,2-3H2	InChI=1S/C5H6N2O2/c6-1-2-7-5-4(8)3-9-5/h4,8H,2-3H2/t4-/m0/s1
