25
gdb 40283	2.38198	1.44339	1.10837	0.1552	91.54	-0.2588	0.0745	0.3334	1243.0294	0.232172	-352.364384	-352.355618	-352.354674	-352.397495	35.468	
C	-0.079793144	 1.5723169501	-0.0021078093	-0.330402
C	 1.2861450089	 0.9295446031	-0.001075525	-0.299177
C	 0.0461310046	 0.0650516771	 0.000265005	 0.410162
C	-0.33294715	-0.6698733681	 1.2818444902	-0.283771
C	 0.6452725943	-1.7591139611	 1.7735001595	-0.18461
C	 1.3203328676	-2.6301513173	 0.6959447019	-0.17872
C	 0.4544457575	-3.0143742608	-0.5174461333	-0.184344
C	 0.4298197441	-1.9384873686	-1.6154685323	-0.183246
C	-0.3424679689	-0.6513032656	-1.2886536893	-0.268511
H	-0.4143903624	 2.0608187855	 0.9073092602	 0.1054
H	-0.4136146487	 2.0582036075	-0.9132578454	 0.105081
H	 1.8763973484	 0.9828152103	-0.9105039177	 0.106094
H	 1.8757237594	 0.9870981402	 0.9083010477	 0.106815
H	-0.4620444433	 0.053743705	 2.0952366614	 0.088379
H	-1.3244622421	-1.1151187673	 1.1276272652	 0.093724
H	 1.43706541	-1.2895722615	 2.3697746423	 0.092283
H	 0.0959747875	-2.4047741482	 2.470240377	 0.091101
H	 2.2127459736	-2.1139329127	 0.3206534573	 0.096452
H	 1.6892715109	-3.5402259152	 1.1834691708	 0.086201
H	 0.8596317192	-3.9334049281	-0.957331668	 0.089411
H	-0.5683368199	-3.259949441	-0.1998908264	 0.088253
H	 1.468795112	-1.6813432918	-1.8633017783	 0.091798
H	-0.0016808341	-2.3661520474	-2.5292818026	 0.086088
H	-1.416217735	-0.8828422264	-1.2360085111	 0.09034
H	-0.2247097497	 0.0399588726	-2.1324575698	 0.085197
87.7139	124.2633	170.2524	261.1253	278.8568	342.0521	364.8724	379.2365	406.5001	506.8973	550.3689	691.6199	740.6467	778.1171	781.6491	843.725	861.3332	876.5714	920.6799	937.2319	952.1002	969.6677	984.5779	1019.6981	1021.8913	1052.9425	1079.8582	1083.3366	1101.0799	1122.169	1174.7924	1188.1393	1207.5356	1226.0623	1266.3089	1275.7434	1303.3005	1323.4132	1363.0286	1368.9304	1373.6449	1384.9658	1387.0982	1401.6516	1414.2656	1470.9149	1476.042	1479.782	1484.5222	1490.1968	1495.9929	1504.4342	1511.4477	2999.1548	3007.556	3010.1697	3014.0681	3016.4899	3025.433	3040.4914	3044.4031	3050.3054	3054.2499	3058.2836	3068.023	3121.9528	3126.6719	3198.0498	3213.0799
C1CC11CCCCCC1	C1CC21CCCCCC2	
InChI=1S/C9H16/c1-2-4-6-9(5-3-1)7-8-9/h1-8H2	InChI=1S/C9H16/c1-2-4-6-9(5-3-1)7-8-9/h1-8H2
