17
gdb 125901	3.91607	1.32671	1.11464	4.0136	74.33	-0.2016	-0.0055	0.1961	1093.3746	0.138593	-417.990791	-417.983505	-417.98256	-418.022728	28.366	
C	 0.1315291594	 1.4809316911	 0.0725786901	-0.398815
C	-0.0412088495	-0.0343177044	-0.0379327644	 0.043335
C	 0.7324904921	-0.6178838942	-1.2840506451	-0.375584
C	 1.9120063072	-1.205151044	-0.5899609758	 0.37591
C	 1.7603575631	-1.241778412	 0.7524626284	 0.176631
N	 0.5134824926	-0.7422349135	 1.172520052	-0.423124
C	 2.9300471517	-1.8992364635	 1.2029568585	-0.101737
N	 3.713522171	-2.2177327311	 0.1869436075	-0.148448
O	 3.0527073772	-1.78705818	-0.9728245728	-0.225545
H	 1.1928889858	 1.7466839328	 0.1285806198	 0.130642
H	-0.3023860449	 1.9858442552	-0.7966713087	 0.124039
H	-0.3697881529	 1.8690478161	 0.9659924928	 0.118653
H	-1.1058379941	-0.2718405341	-0.116044983	 0.091675
H	 0.1399555834	-1.3806209726	-1.8033273274	 0.13067
H	 0.9708071925	 0.1640968299	-2.0125238376	 0.1248
H	 0.5581453753	-0.1225855229	 1.9739445992	 0.228576
H	 3.2574167902	-2.1517429027	 2.2012292664	 0.128323
67.4637	199.2444	262.9085	281.688	344.1494	398.1706	454.9026	614.5803	627.5158	655.8475	709.1523	740.4225	809.1929	853.7943	887.0659	895.7457	917.3468	935.9848	976.4148	1045.6559	1090.8894	1113.736	1159.0783	1199.0021	1207.2649	1265.7731	1325.2494	1342.6277	1367.0802	1391.0485	1406.3961	1438.8331	1487.011	1493.6693	1497.6604	1525.3833	1677.6934	3027.4107	3029.7715	3059.5447	3071.4676	3099.1679	3106.6011	3245.9984	3529.5574
CC1CC2=C(N1)C=NO2	C[C@H]1Cc2c(N1)cno2	
InChI=1S/C6H8N2O/c1-4-2-6-5(8-4)3-7-9-6/h3-4,8H,2H2,1H3	InChI=1S/C6H8N2O/c1-4-2-6-5(8-4)3-7-9-6/h3-4,8H,2H2,1H3/t4-/m0/s1
