19
gdb 37736	3.41261	1.88132	1.47392	1.3465	78.48	-0.2355	0.0949	0.3304	918.9765	0.16242	-385.814696	-385.808416	-385.807472	-385.84491	27.128	
C	-0.0716746035	 1.5964962049	 0.0054704801	-0.343421
C	 1.4421044096	 1.2382015997	 0.0062314339	-0.084503
C	 1.2126708464	 0.0064050877	 0.9338146523	-0.081554
C	 1.8586875049	-1.0069422135	-0.0218075476	 0.1136
O	 1.2430450428	-2.2882275716	-0.0040208003	-0.287761
C	-0.0938225881	-2.3138173695	-0.5022253886	-0.055278
C	-0.9690629337	-1.1228593977	-0.0324965879	-0.371855
C	-0.0325578131	 0.0561315533	-0.0215982883	 0.357496
C	 1.2305594648	 0.0375090085	-0.9684683774	-0.117799
H	-0.4649780368	 2.0662499985	 0.9134275126	 0.093567
H	-0.4612424297	 2.1006851701	-0.8857343976	 0.091559
H	 2.298290392	 1.9131572749	 0.0202334831	 0.071769
H	 1.167317565	 0.0013893606	 2.0241943756	 0.068034
H	 2.9398303651	-1.1696995133	-0.0077768281	 0.07008
H	-0.0681710711	-2.3057011872	-1.6023785903	 0.094524
H	-0.513431303	-3.2723622076	-0.1860029189	 0.106423
H	-1.8084107795	-1.0015559968	-0.7272375484	 0.101173
H	-1.3873673593	-1.2968254669	 0.9658215559	 0.104033
H	 1.2171935373	 0.0847951158	-2.0587151302	 0.069912
219.0738	258.1876	370.8186	381.8782	451.4537	506.107	575.9732	692.0072	743.5059	796.9275	841.1553	857.3064	866.8873	895.6556	912.3233	926.6969	927.3537	978.886	1001.8099	1031.7952	1047.1598	1062.5363	1086.8441	1125.9053	1131.6443	1149.9213	1151.7093	1183.3163	1200.2799	1223.1623	1241.0089	1250.9052	1273.1967	1289.0072	1318.6012	1359.8283	1371.6845	1413.0044	1485.5592	1505.2497	1512.1397	2985.9408	3028.0855	3031.332	3069.4297	3072.5051	3088.1878	3091.6061	3095.8153	3098.983	3113.5992
C1C2C3C4OCCC13C24	C1[C@H]2[C@@H]3[C@H]4OCC[C@@]13[C@@H]24	
InChI=1S/C8H10O/c1-2-9-7-5-4-3-8(1,5)6(4)7/h4-7H,1-3H2	InChI=1S/C8H10O/c1-2-9-7-5-4-3-8(1,5)6(4)7/h4-7H,1-3H2/t4-,5+,6-,7+,8+
