21
gdb 95174	2.04948	1.77781	1.27979	3.1574	81.77	-0.2289	-0.0102	0.2187	1097.694	0.184356	-387.11688	-387.108499	-387.107555	-387.149633	32.947	
C	-0.2049407073	 1.5370191144	 0.0182474544	-0.409385
C	 0.0113266667	 0.0118405203	-0.0273524197	-0.070005
C	 0.7139859228	-0.478659825	-1.3086667322	-0.222877
C	 2.1898723494	-0.0599283298	-1.3899251314	-0.229835
C	 2.9817147867	-0.4324054624	-0.1345848524	-0.030929
C	 3.1296793648	 0.5616322425	 0.9736717964	-0.292113
C	 2.2243034165	-0.650739576	 1.1692497716	-0.112914
C	 0.7392002475	-0.5024700541	 1.2218552692	 0.384975
O	 0.1169612715	-0.8334592426	 2.2094728752	-0.342263
H	 0.7266243473	 2.1026461537	-0.0726475597	 0.119913
H	-0.8571587477	 1.8470084012	-0.8049395427	 0.118259
H	-0.6845834879	 1.8251914858	 0.9578595157	 0.135712
H	-0.979801829	-0.4505594985	 0.0331555446	 0.097458
H	 0.6561683698	-1.5739732465	-1.337713507	 0.103408
H	 0.1706420222	-0.1147577215	-2.1890097091	 0.095476
H	 2.6491057735	-0.541262304	-2.2589728017	 0.104859
H	 2.2640245111	 1.0182544986	-1.5718638121	 0.105341
H	 3.8224276417	-1.1004471739	-0.2921381833	 0.093264
H	 4.0432875229	 0.5732084006	 1.5572383859	 0.122954
H	 2.6685185226	 1.5353853139	 0.8542845171	 0.124286
H	 2.5902022748	-1.3951263167	 1.8677403513	 0.104419
81.2947	182.9268	184.4118	221.2509	258.689	331.2862	379.6092	435.438	444.194	520.0522	630.98	700.7719	746.3388	767.5923	828.0509	852.9982	897.724	916.7138	930.7807	975.6594	997.7356	1008.1542	1054.8103	1057.9952	1104.7953	1126.9331	1127.371	1153.768	1199.4983	1221.3531	1241.6967	1268.4942	1336.7202	1340.4879	1358.1639	1377.6323	1381.6683	1396.7666	1408.6231	1480.3076	1487.0919	1497.4429	1503.8246	1509.2949	1785.9424	3021.1457	3036.2329	3040.8142	3051.0651	3061.4161	3078.1719	3106.2724	3119.7137	3140.2064	3154.4137	3174.6684	3225.5348
CC1CCC2CC2C1=O	C[C@H]1CC[C@H]2C[C@H]2C1=O	
InChI=1S/C8H12O/c1-5-2-3-6-4-7(6)8(5)9/h5-7H,2-4H2,1H3	InChI=1S/C8H12O/c1-5-2-3-6-4-7(6)8(5)9/h5-7H,2-4H2,1H3/t5-,6-,7+/m0/s1
