19
gdb 61421	3.12931	0.95268	0.79466	1.8568	73.47	-0.2449	-0.025	0.2199	1458.6149	0.157055	-456.413812	-456.403291	-456.402347	-456.449903	37.482	
C	 0.0744703395	 1.4186696936	-0.2921652868	-0.405023
C	 0.0545425644	-0.0960649067	-0.0024063593	-0.045466
N	 0.7390592786	-0.4276608332	 1.2249968296	-0.343539
C	 2.1060382737	-0.5004503736	 1.2662014875	 0.461802
N	 2.6267149864	-0.9462473123	 2.472434269	-0.566562
O	 2.8163238189	-0.1451335647	 0.3383236794	-0.407625
C	-1.3712211315	-0.6437420468	 0.0835667276	 0.382277
C	-2.265183475	-0.4448566441	-1.1220803455	-0.47976
O	-1.7652566067	-1.2049195163	 1.0837045769	-0.315418
H	 1.1159728439	 1.7426903102	-0.3203055057	 0.16422
H	-0.387048866	 1.6492564556	-1.256558363	 0.114672
H	-0.4493638542	 1.9709232897	 0.4941162488	 0.121356
H	 0.5527038436	-0.5977376446	-0.8449242714	 0.118076
H	 0.1556700268	-0.8619036767	 1.9260165721	 0.247821
H	 2.0704472727	-1.5618897871	 3.0453132674	 0.247379
H	 3.6014233621	-1.1950794662	 2.4094493277	 0.259744
H	-2.6325234286	 0.5874663521	-1.1398002753	 0.156655
H	-1.7241500095	-0.6116589944	-2.0580658227	 0.141274
H	-3.1210132892	-1.1172618347	-1.0523267265	 0.14812
55.0542	73.2137	95.2457	143.6318	151.2504	227.6317	270.6323	320.2865	338.9125	345.5906	398.159	496.6616	513.8953	531.3096	567.728	633.5359	652.1585	777.575	798.4292	907.4246	956.6044	966.6947	1047.9626	1074.9802	1109.292	1116.0143	1175.3426	1224.9986	1285.0629	1335.0177	1380.6344	1390.1841	1399.5855	1465.0558	1475.3825	1486.0491	1511.1276	1532.1521	1627.8981	1779.1096	1799.4563	3006.3576	3043.8404	3046.3607	3109.0092	3118.551	3146.4444	3154.6728	3580.2179	3596.5465	3700.224
CC(NC(N)=O)C(C)=O	C[C@@H](NC(=O)N)C(=O)C	
InChI=1S/C5H10N2O2/c1-3(4(2)8)7-5(6)9/h3H,1-2H3,(H3,6,7,9)	InChI=1S/C5H10N2O2/c1-3(4(2)8)7-5(6)9/h3H,1-2H3,(H3,6,7,9)/t3-/m1/s1
