23
gdb 122142	2.67889	0.81015	0.73156	2.1835	79.13	-0.2496	0.0722	0.3218	1697.8391	0.20428	-462.551784	-462.540871	-462.539927	-462.588626	38.995	
C	 0.1332401388	 1.2740999755	 0.2703133096	-0.383476
C	-0.1158810208	-0.1419104467	-0.2544946508	-0.184126
C	-1.4349886121	-0.7189572848	 0.2415728413	-0.046175
O	-1.5719624925	-2.0292469295	-0.2848948412	-0.277391
C	-2.8304648824	-2.6614754912	-0.100676273	 0.085474
C	-2.6078086253	-4.0789767542	-0.6337054603	-0.081408
O	-1.5573233324	-4.7292102971	 0.0801688298	-0.424022
C	-3.3238632318	-2.6595695642	 1.3570616768	-0.079942
O	-2.3691226478	-3.1384165347	 2.2781103	-0.427229
H	 1.0871497299	 1.665802251	-0.0940264744	 0.118255
H	-0.6538578658	 1.9643483009	-0.0530168637	 0.11617
H	 0.1621521259	 1.2945053011	 1.365203979	 0.120802
H	-0.1196583403	-0.148121839	-1.3505441843	 0.103396
H	 0.6947657972	-0.8098230792	 0.059791791	 0.104616
H	-1.4493097678	-0.7470847604	 1.3396947989	 0.115875
H	-2.2752529677	-0.0873571753	-0.0922330224	 0.083124
H	-3.6032805781	-2.1653202401	-0.7153479425	 0.064208
H	-3.5075759453	-4.6866742014	-0.5016589035	 0.11437
H	-2.3748210175	-4.0337836442	-1.7065358284	 0.103941
H	-0.8040915355	-4.1271448384	 0.0113501325	 0.297001
H	-3.5802290389	-1.6411825337	 1.6679994776	 0.106034
H	-4.2616387108	-3.2418692169	 1.3852403951	 0.0841
H	-2.007158089	-3.9501162572	 1.894089303	 0.286402
51.0112	73.5653	96.0735	129.4022	155.6282	184.462	236.3122	264.0775	274.6256	318.9876	371.5058	416.898	465.6678	548.7192	678.7794	769.7365	783.8729	806.0275	907.1327	911.5693	915.5651	958.6328	979.47	1047.3651	1066.221	1087.7521	1122.1461	1145.024	1152.8093	1190.7987	1225.4591	1242.4297	1271.8153	1320.0887	1327.0568	1333.3286	1356.2661	1391.2913	1396.8094	1412.7132	1429.1423	1444.3705	1470.8748	1491.3949	1496.1343	1500.7273	1506.3543	1512.4822	1526.6852	2942.293	2956.7888	2965.4746	3012.8942	3026.9999	3032.4219	3036.6805	3064.4918	3071.1697	3095.2182	3100.7027	3109.4286	3718.5415	3770.017
CCCOC(CO)CO	CCCOC(CO)CO	
InChI=1S/C6H14O3/c1-2-3-9-6(4-7)5-8/h6-8H,2-5H2,1H3	InChI=1S/C6H14O3/c1-2-3-9-6(4-7)5-8/h6-8H,2-5H2,1H3
