20
gdb 6994	2.60852	1.88623	1.47292	2.7778	75.	-0.2321	-0.0135	0.2186	975.7708	0.174603	-349.027741	-349.018577	-349.017633	-349.061064	34.053	
C	-0.6233096377	 1.3073778269	-0.0454124158	-0.415112
C	 0.1256712216	-0.0162875068	-0.1088052268	-0.006196
C	 1.513361908	-0.0424063656	-0.8225594173	-0.372124
C	 2.0293068263	-0.9022762663	 0.3380353718	 0.386534
O	 2.9886266449	-1.6024437835	 0.4962595671	-0.310224
C	 0.7781530476	-0.6214410492	 1.1985758256	 0.185032
C	 1.095290803	 0.4036408754	 2.2966050858	-0.436383
C	 0.1069623634	-1.863057061	 1.7818174361	-0.443848
H	 0.0015622607	 2.1121397603	 0.3546072791	 0.116522
H	-0.9510170146	 1.6122270306	-1.0450853649	 0.119215
H	-1.5162383365	 1.2329619384	 0.5847947672	 0.11803
H	-0.5252204853	-0.7768584681	-0.5530523964	 0.078117
H	 1.5814607522	-0.4806690271	-1.82128214	 0.125325
H	 2.00283052	 0.9386757608	-0.8431811431	 0.126322
H	 1.6268055762	 1.2788909167	 1.9105194552	 0.116768
H	 0.1762258646	 0.7541438424	 2.7784904862	 0.119307
H	 1.7277887531	-0.0548234227	 3.0629174065	 0.130862
H	 0.757769214	-2.3413016495	 2.5206352693	 0.131346
H	-0.8348239067	-1.6011185808	 2.2775529424	 0.114278
H	-0.1137558745	-2.6016899908	 1.0046705119	 0.116228
61.4722	163.4643	184.1571	220.3544	230.288	258.3398	277.2127	291.0388	364.0033	438.1608	494.8062	552.23	637.4466	684.5301	753.1855	853.5435	872.7102	952.7377	963.5244	989.9612	1013.8284	1053.3373	1083.1208	1103.4684	1159.015	1189.0226	1214.24	1232.1013	1258.768	1298.3202	1372.1209	1397.3694	1409.7376	1421.2176	1443.641	1480.5073	1484.5092	1493.7311	1496.7074	1505.6935	1510.3625	1882.9679	3027.0816	3029.5632	3033.591	3042.2685	3046.5268	3093.9558	3094.8426	3099.3097	3102.5754	3105.5197	3108.9296	3110.798
CC1CC(=O)C1(C)C	C[C@H]1CC(=O)C1(C)C	
InChI=1S/C7H12O/c1-5-4-6(8)7(5,2)3/h5H,4H2,1-3H3	InChI=1S/C7H12O/c1-5-4-6(8)7(5,2)3/h5H,4H2,1-3H3/t5-/m0/s1
