21
gdb 55859	3.03934	1.02734	0.94774	3.3006	79.77	-0.2375	0.0546	0.2921	1359.7106	0.181524	-420.444227	-420.433976	-420.433032	-420.479484	38.221	
C	-0.15422483	 1.4366515849	 0.3363173514	-0.452746
C	 0.0670613011	-0.0388522126	 0.0736065495	 0.37034
C	-1.1642667068	-0.7820747471	-0.4052375986	-0.45032
C	 1.4177585111	-0.4836168651	-0.4463639265	-0.375071
C	 1.0082750593	-0.8124807908	 0.9693259237	 0.010562
N	 1.6944425459	-0.1533752856	 2.0422852222	-0.347117
C	 1.04161145	 0.0327119024	 3.2483251322	 0.444829
N	 1.8833012543	 0.43231365	 4.2826160743	-0.565898
O	-0.1497621075	-0.1524621721	 3.4010992672	-0.384802
H	 0.7602906545	 1.9262121493	 0.6789595059	 0.108857
H	-0.4899049145	 1.9439631594	-0.5754568903	 0.10598
H	-0.9186269746	 1.5764105673	 1.1075455833	 0.134374
H	-1.5356461016	-0.3632319009	-1.3478164545	 0.110352
H	-0.9546737015	-1.8432929278	-0.573142878	 0.108116
H	-1.9670286642	-0.7122883926	 0.336971764	 0.131393
H	 1.4699300253	-1.2975294909	-1.16187923	 0.109391
H	 2.1802762668	 0.2778310955	-0.5764470641	 0.105595
H	 0.7195595622	-1.8422918335	 1.1738420331	 0.092944
H	 2.6918916645	-0.302825665	 2.0882559764	 0.238118
H	 2.684137762	 0.9960966576	 4.038181278	 0.245693
H	 1.3696381536	 0.7810236477	 5.0779731608	 0.25941
54.7624	88.0935	103.6977	179.4896	224.5299	249.4716	285.6081	335.036	362.7926	395.9	407.5514	447.7324	496.8412	538.4209	584.2241	669.5181	728.4453	785.1015	808.2525	881.1981	918.8919	962.8372	975.0942	1025.1543	1040.7954	1058.9187	1074.8448	1119.7977	1125.9731	1154.9482	1228.0862	1284.4152	1317.7139	1348.0258	1404.4598	1419.2601	1421.6724	1479.8025	1483.8543	1490.0862	1503.5367	1510.1607	1518.9302	1626.3742	1807.1844	3023.8036	3032.5084	3088.2312	3095.1695	3098.7818	3108.8497	3119.701	3126.0406	3211.4152	3570.2577	3593.5605	3684.0929
CC1(C)CC1NC(N)=O	CC1(C)C[C@H]1NC(=O)N	
InChI=1S/C6H12N2O/c1-6(2)3-4(6)8-5(7)9/h4H,3H2,1-2H3,(H3,7,8,9)	InChI=1S/C6H12N2O/c1-6(2)3-4(6)8-5(7)9/h4H,3H2,1-2H3,(H3,7,8,9)/t4-/m1/s1
