20
gdb 99370	4.17933	0.65139	0.60083	3.2237	76.99	-0.2436	-0.0114	0.2322	1872.8517	0.168335	-440.338616	-440.327774	-440.32683	-440.376838	36.604	
C	 0.2063953263	 1.3857453715	-0.1082310586	-0.375527
C	-0.2068548644	-0.0603019857	-0.370165886	-0.276478
C	-1.5544599826	-0.4305715016	 0.2329062382	 0.381674
O	-2.2724171272	 0.3908086126	 0.7601681139	-0.305373
C	-1.9542651193	-1.8966529703	 0.1410302854	-0.297545
C	-3.4170913137	-2.1320574574	 0.5301586236	-0.16338
N	-3.7733333862	-3.5452937609	 0.5594717186	-0.270908
C	-3.9133521557	-4.2802133927	-0.5716307103	 0.148983
O	-3.7217620117	-3.8601581038	-1.695192085	-0.327113
H	 1.164682452	 1.6066328353	-0.586275147	 0.110834
H	-0.5439754739	 2.0793920604	-0.4947604287	 0.135323
H	 0.3033515839	 1.577639993	 0.9637793436	 0.127062
H	-0.2705536887	-0.2633879002	-1.4487533593	 0.130547
H	 0.5441346656	-0.7689665684	 0.0047407502	 0.117266
H	-1.7752495221	-2.2716151741	-0.8720733364	 0.151487
H	-1.2858162546	-2.4707307878	 0.7982021026	 0.118732
H	-3.6177357902	-1.7041872478	 1.5135150475	 0.12608
H	-4.0662433973	-1.6195291019	-0.1856982163	 0.142329
H	-3.9645371318	-3.9860275007	 1.4440500758	 0.25081
H	-4.2257639984	-5.3222369196	-0.3584639017	 0.075198
31.7092	45.4774	65.8819	80.0201	126.8681	193.5038	198.7566	252.0698	284.9462	347.5391	421.3655	473.772	508.2852	650.6796	699.1599	762.8116	818.4232	847.284	958.5223	983.159	1002.5141	1022.1059	1033.2942	1087.0199	1123.2523	1132.3034	1203.5993	1238.497	1285.2897	1308.4401	1338.474	1374.7675	1406.5962	1413.702	1427.8487	1447.8392	1459.2984	1475.038	1492.8469	1498.3598	1523.2272	1798.3986	1800.3822	2933.0877	3014.8754	3023.342	3043.6991	3051.2758	3070.4885	3084.2239	3120.6293	3129.2746	3130.0952	3646.394
CCC(=O)CCNC=O	CCC(=O)CCNC=O	
InChI=1S/C6H11NO2/c1-2-6(9)3-4-7-5-8/h5H,2-4H2,1H3,(H,7,8)	InChI=1S/C6H11NO2/c1-2-6(9)3-4-7-5-8/h5H,2-4H2,1H3,(H,7,8)
