21
gdb 83761	2.39297	1.82938	1.4113	1.7098	81.31	-0.2328	0.0873	0.3201	1033.3197	0.183331	-387.07255	-387.064321	-387.063377	-387.104821	32.581	
C	-0.2746936344	 1.5694244478	-0.0212953685	-0.421322
C	 0.0284668573	 0.0773657857	 0.0334399927	-0.044051
C	 1.0488726931	-0.5577584414	-0.9697992334	 0.068706
O	 2.0990191333	 0.3423409545	-1.3079371776	-0.26299
C	 2.8590531829	 0.584299886	-0.1184123245	-0.110044
C	 2.3465754294	-0.4217690752	 0.9004440716	-0.119671
C	 1.5582731139	-1.4688343409	 0.1706887741	-0.142544
C	 0.8517203828	-0.5556503607	 1.1719016228	 0.322456
C	 0.318188967	-0.873326042	 2.5400955456	-0.506162
H	 0.6333669849	 2.1754365755	-0.0273025057	 0.124478
H	-0.8396231414	 1.8156319237	-0.9271144224	 0.115856
H	-0.8811363076	 1.8754047331	 0.8385965649	 0.109692
H	-0.9105454194	-0.4879729553	-0.0385001642	 0.065684
H	 0.6596032783	-0.9885417053	-1.8916161621	 0.075969
H	 3.9223010244	 0.4186198132	-0.3373112776	 0.100639
H	 2.7392224797	 1.6270483294	 0.2032692991	 0.097143
H	 3.0035457224	-0.7239979011	 1.7087501933	 0.085609
H	 1.7431037817	-2.5347571054	 0.1698322804	 0.085287
H	 1.0094029272	-1.5110181276	 3.1015481494	 0.116692
H	 0.1589360933	 0.0376031784	 3.1294042759	 0.121518
H	-0.6426306387	-1.3975065823	 2.4754585465	 0.117055
138.5197	184.5038	195.8795	215.2429	248.5374	267.9819	316.0043	469.7895	567.4663	593.5626	659.4531	716.3528	781.9045	798.7433	834.6746	868.8689	901.6989	918.3504	938.0663	971.719	997.74	1021.9711	1047.3029	1059.7023	1091.1459	1112.6947	1130.5048	1144.5814	1193.8515	1204.4028	1220.1687	1240.0677	1277.4065	1292.9964	1329.8786	1365.8966	1384.3745	1409.3666	1415.8667	1444.9288	1486.3399	1491.5344	1493.0123	1498.1584	1528.6333	3006.9129	3011.4362	3019.5146	3035.4181	3035.9424	3078.2456	3090.7799	3091.6815	3123.6333	3132.3577	3175.6484	3201.7912
CC1C2OCC3C2C13C	C[C@H]1[C@H]2OC[C@@H]3[C@H]2[C@]13C	
InChI=1S/C8H12O/c1-4-7-6-5(3-9-7)8(4,6)2/h4-7H,3H2,1-2H3	InChI=1S/C8H12O/c1-4-7-6-5(3-9-7)8(4,6)2/h4-7H,3H2,1-2H3/t4-,5+,6+,7+,8+/m0/s1
