21
gdb 120778	3.284	0.84142	0.74744	2.8692	78.96	-0.2361	0.0648	0.3009	1568.0511	0.183567	-420.344123	-420.334646	-420.333702	-420.379278	34.732	
O	-0.0119625279	 1.2990152396	 0.4059174122	-0.419919
C	-0.1800855967	-0.108894034	 0.4406948345	-0.052751
C	-1.3718352622	-0.5843837219	-0.39628703	-0.231856
C	-1.4912760195	-2.0915719069	-0.4140871899	-0.013096
N	-2.0135460645	-2.7516045267	 0.8013569561	-0.346725
C	-2.7842803271	-2.831971176	-0.4486439768	-0.058919
C	-4.125850485	-2.155269274	-0.4399248685	-0.002428
C	-5.1664351755	-2.6075183	 0.5176807938	-0.240394
N	-4.50679311	-1.3023179789	 0.6934068585	-0.31675
H	-0.7967263422	 1.696543294	 0.7968059279	 0.282548
H	 0.7520963946	-0.5254384306	 0.0412891527	 0.103483
H	-0.2863786638	-0.4799110399	 1.4714132637	 0.099353
H	-2.2938294516	-0.1413908541	-0.0047400118	 0.117756
H	-1.2519257932	-0.2177110285	-1.4230717688	 0.107521
H	-0.6577636132	-2.5957410368	-0.9039540235	 0.086429
H	-1.5236387542	-3.6206291782	 0.9890692898	 0.236138
H	-2.7693091927	-3.7803051057	-0.9855176561	 0.088502
H	-4.4465707816	-1.7771189195	-1.4090536072	 0.093818
H	-6.2170543203	-2.5645731525	 0.2449047926	 0.115579
H	-4.9019679779	-3.4089371199	 1.2031383514	 0.110532
H	-3.7814793756	-1.4164565895	 1.4020765193	 0.241179
58.2314	93.276	104.8582	130.2138	199.3702	249.1621	305.6621	313.8514	376.3668	488.5797	542.6013	613.2187	747.6345	786.4481	838.1607	860.0671	873.6	912.9746	954.0904	993.3474	1012.908	1016.7079	1042.1286	1066.3185	1079.5178	1110.9208	1126.2784	1147.3978	1160.0116	1189.9894	1208.0116	1257.0401	1263.2186	1293.9074	1297.4858	1319.4211	1327.0353	1384.9048	1398.1503	1423.8606	1431.8467	1472.569	1486.8014	1504.4616	1515.8233	2991.6236	3038.0243	3055.848	3084.2137	3100.0496	3105.9566	3110.458	3122.8764	3193.0501	3460.2983	3520.9182	3814.7312
OCCC1NC1C1CN1	OCC[C@H]1N[C@H]1[C@H]1CN1	
InChI=1S/C6H12N2O/c9-2-1-4-6(8-4)5-3-7-5/h4-9H,1-3H2	InChI=1S/C6H12N2O/c9-2-1-4-6(8-4)5-3-7-5/h4-9H,1-3H2/t4-,5-,6-/m1/s1
