18
gdb 127084	2.57273	1.36381	1.08707	3.9483	75.08	-0.207	0.0242	0.2312	1171.5445	0.148202	-435.261138	-435.252049	-435.251105	-435.295253	33.292	
C	 0.0488831251	 1.4297346261	-0.0716384349	-0.332674
N	-0.0346593554	-0.0217497548	 0.0888125017	-0.178862
C	 0.8074231101	-0.5267313139	 1.1729174794	-0.332663
C	-1.3318236927	-0.5572228259	 0.0374062926	 0.241744
C	-1.8609667825	-1.3796912747	-0.9388706256	 0.212981
O	-1.2240576145	-1.8338394531	-2.0474439512	-0.449187
C	-3.1860445386	-1.6415750492	-0.540562113	-0.081439
N	-3.4720420002	-1.0258755277	 0.6089881399	-0.225524
N	-2.34844168	-0.3764362631	 0.9454806097	-0.251403
H	 1.0877773401	 1.714778216	-0.2685346342	 0.123204
H	-0.5641937362	 1.738340376	-0.9211173921	 0.137413
H	-0.2881772447	 1.9866745455	 0.8198824932	 0.09951
H	 0.5308081046	-0.1244381484	 2.1630047923	 0.099455
H	 0.7359748395	-1.6157807531	 1.2127960695	 0.137405
H	 1.850113447	-0.2516571658	 0.9819991934	 0.123248
H	-0.3296987371	-1.4671464583	-2.0134301905	 0.290263
H	-3.9307165348	-2.2444094658	-1.0371185878	 0.115477
H	-2.3342137496	 0.16468595	 1.7927461576	 0.271053
44.1986	141.0977	144.6307	225.982	228.7114	283.7026	302.2191	363.6556	420.0497	460.0082	477.5904	507.6155	618.4755	700.459	724.9181	735.0184	858.5138	927.9724	965.0068	1058.4771	1120.0561	1122.882	1149.9017	1183.4218	1220.8637	1228.2615	1246.7805	1284.1733	1337.0289	1425.4873	1441.7396	1452.3708	1469.3568	1480.4929	1496.735	1500.9499	1518.114	1555.0749	1659.1602	2953.7376	2958.1659	3063.6365	3065.1564	3123.9818	3126.1827	3254.4795	3674.3255	3752.386
CN(C)C1=C(O)C=NN1	CN(C)c1c(O)cn[nH]1	
InChI=1S/C5H9N3O/c1-8(2)5-4(9)3-6-7-5/h3,9H,1-2H3,(H,6,7)	InChI=1S/C5H9N3O/c1-8(2)5-4(9)3-6-7-5/h3,9H,1-2H3,(H,6,7)
