13
gdb 48833	2.63156	1.7204	1.22704	5.4259	59.3	-0.2711	-0.0595	0.2116	967.2342	0.088093	-493.714719	-493.707354	-493.70641	-493.746989	26.427	
O	-0.1203357099	-0.0403219777	 0.2419934553	-0.225381
C	 0.0265900044	 1.1501204858	 0.1918498831	 0.076458
C	 1.3459433699	 1.8189382796	-0.0083583365	 0.129377
O	 1.3960313515	 3.2391356072	 0.2478892462	-0.267624
C	 1.6080160428	 2.800835773	-1.0808283206	-0.036171
C	 3.0749675669	 2.6684952157	-1.4339722867	-0.106588
O	 3.6369015756	 1.7721585914	-0.4666598849	-0.234075
C	 2.6828076324	 1.1669701611	 0.3014113983	 0.4548
O	 2.9251330035	 0.2967238611	 1.0765544954	-0.313505
H	-0.8128248119	 1.8737806632	 0.2778014672	 0.102586
H	 0.8692031694	 3.0949289377	-1.8207457119	 0.133924
H	 3.2041409665	 2.2449900501	-2.4356280287	 0.137899
H	 3.6047248488	 3.6231022016	-1.3701589562	 0.148302
93.2894	158.7588	162.3487	234.1673	279.1799	429.4638	469.1099	479.4757	627.4913	708.9403	741.5895	792.5147	861.5006	884.776	963.5553	992.5514	1045.2486	1060.0717	1101.0345	1107.2066	1234.259	1273.5882	1285.7536	1377.6069	1398.1288	1437.9255	1500.661	1829.0853	1907.918	2905.7924	3052.4463	3105.6532	3167.3676
O=CC12OC1COC2=O	O=C[C@]12O[C@H]1COC2=O	
InChI=1S/C5H4O4/c6-2-5-3(9-5)1-8-4(5)7/h2-3H,1H2	InChI=1S/C5H4O4/c6-2-5-3(9-5)1-8-4(5)7/h2-3H,1H2/t3-,5-/m0/s1
