20
gdb 40814	3.94907	1.07605	0.89888	1.0037	82.06	-0.2393	0.0225	0.2619	1322.038	0.172871	-403.123195	-403.115044	-403.1141	-403.156391	31.323	
C	 0.2514812064	 1.5571285898	 0.0802672066	-0.240304
N	 1.1979258854	 0.4600361504	-0.1969435555	-0.321198
C	-0.2148573617	 0.1519284232	 0.0657442145	-0.02152
C	-0.4813450642	-0.6105560082	 1.3475141631	 0.103477
O	-1.8388675084	-0.3716477652	 1.6886317015	-0.273502
C	-2.3370193234	-1.2649387791	 2.6708244148	-0.072658
C	-2.3642825067	-2.7031027568	 2.1494121137	-0.254144
C	-1.0376614633	-3.0322757186	 1.5167560461	-0.080895
C	-0.1729349323	-2.0773030578	 1.1837735091	-0.070391
H	 0.4065499842	 2.0620551701	 1.02972987	 0.120651
H	-0.0512917683	 2.2075162787	-0.7356705912	 0.112252
H	 1.3884569924	 0.4063517223	-1.1933808821	 0.233224
H	-0.8386249408	-0.1613299859	-0.7689584728	 0.088297
H	 0.184259885	-0.1905091396	 2.1244045309	 0.076014
H	-1.7170873926	-1.2140761014	 3.5809682028	 0.090229
H	-3.3393057962	-0.9085692039	 2.9250095525	 0.103384
H	-2.5785884949	-3.3930299465	 2.9757449115	 0.102142
H	-3.179687046	-2.8293184638	 1.4238798654	 0.1133
H	-0.7929323804	-4.0787845866	 1.3541715364	 0.088701
H	 0.8039745558	-2.3064293712	 0.7678734328	 0.10294
73.2631	86.6549	168.6693	259.5338	304.4205	319.15	422.5742	478.6003	499.3821	586.1219	684.2959	784.0219	855.4369	862.7536	882.4708	895.0625	920.3608	952.5802	968.3858	997.6935	1006.8088	1041.126	1073.2351	1086.3929	1113.9908	1116.5611	1145.4676	1205.0059	1220.0802	1236.3088	1247.9833	1284.4116	1290.6275	1310.8805	1335.9513	1363.3881	1394.9547	1422.0199	1447.159	1470.6493	1499.5485	1513.754	1723.1472	2929.4987	2972.9804	3012.5549	3047.1641	3085.1058	3110.3326	3132.095	3152.684	3180.3514	3195.8244	3512.0123
C1NC1C1OCCC=C1	C1N[C@H]1[C@H]1OCCC=C1	
InChI=1S/C7H11NO/c1-2-4-9-7(3-1)6-5-8-6/h1,3,6-8H,2,4-5H2	InChI=1S/C7H11NO/c1-2-4-9-7(3-1)6-5-8-6/h1,3,6-8H,2,4-5H2/t6-,7+/m1/s1
