15
gdb 11321	6.12168	1.29245	1.08902	1.2025	64.75	-0.2493	-0.0409	0.2084	1045.5923	0.117532	-399.830251	-399.822252	-399.821308	-399.864361	27.452	
C	 0.2081886131	 1.4487603137	 0.0995978022	-0.334335
N	 0.2251389298	-0.0054853874	 0.0783012409	-0.312324
C	 0.4466637261	-0.6190312776	-0.9943236193	 0.431431
C	 0.4884442873	-2.1202128753	-1.1493124269	-0.448381
C	 0.734324536	-2.3417562559	-2.6321787769	 0.376564
O	 0.81787677	-3.3825188571	-3.2246136845	-0.292135
C	 0.8611705856	-0.9524456728	-3.2612734348	-0.187892
O	 0.6910696114	-0.0093683863	-2.2111713617	-0.249003
H	 1.0866106766	 1.8099783094	 0.6475342734	 0.128935
H	 0.2004714542	 1.9164081344	-0.8907255239	 0.124513
H	-0.6722499432	 1.7819662799	 0.6586290946	 0.126915
H	 1.2922543473	-2.566476096	-0.5554272778	 0.170466
H	-0.4439195057	-2.5931654436	-0.8287536921	 0.170677
H	 1.8460516937	-0.8270483004	-3.7261229029	 0.147433
H	 0.0949122279	-0.8069821251	-4.0319503206	 0.147137
30.3427	45.1239	126.0931	221.0532	231.0857	401.021	449.0636	512.9559	567.9827	627.3214	683.955	797.6583	814.6008	830.8134	1022.9024	1027.8262	1091.5603	1113.5964	1129.8829	1144.1367	1176.7225	1214.0501	1218.7751	1257.562	1352.2838	1420.1181	1438.8383	1483.7387	1492.7702	1499.1565	1808.902	1872.1908	3021.1202	3034.3444	3069.3837	3076.1305	3080.3358	3096.1807	3108.9357
CN=C1CC(=O)CO1	CN=C1CC(=O)CO1	
InChI=1S/C5H7NO2/c1-6-5-2-4(7)3-8-5/h2-3H2,1H3	InChI=1S/C5H7NO2/c1-6-5-2-4(7)3-8-5/h2-3H2,1H3
