19
gdb 81215	3.00973	1.5969	1.44759	1.9766	80.3	-0.2319	0.0046	0.2365	996.579	0.159644	-385.799936	-385.792657	-385.791713	-385.831116	30.16	
C	-0.0516368076	 1.5539420155	 0.1102870211	-0.43633
C	 0.0116519054	 0.0480395446	-0.0576192456	 0.008174
C	 1.2715663074	-0.5930149839	-0.6506683503	-0.02621
O	 2.0285379918	-0.2246281863	 0.6029130924	-0.381799
C	 0.7342867715	-0.814403052	 1.0359586648	 0.420793
C	 0.0798138378	-1.362925563	 2.2830498167	-0.413943
C	-0.7278734542	-2.4758643301	 1.5823897541	-0.03563
C	-0.3241084462	-2.751877645	 0.3285446048	-0.156973
C	 0.9286574941	-1.9587184816	 0.0471669764	-0.03515
H	 0.8987712641	 1.9408160555	 0.48284958	 0.137314
H	-0.2757253955	 2.0410163923	-0.8453102077	 0.112802
H	-0.8448708056	 1.8359735863	 0.8115390075	 0.111214
H	-0.930645869	-0.3738983926	-0.4161420871	 0.075906
H	 1.7994436101	-0.3950854739	-1.5852451695	 0.08691
H	 0.7969539395	-1.7843644193	 2.9997013103	 0.127132
H	-0.5537627558	-0.6494384318	 2.8196353445	 0.114598
H	-1.5428210364	-2.9796042777	 2.0919777842	 0.100496
H	-0.7593563162	-3.5204091349	-0.3002657681	 0.097528
H	 1.8420296749	-2.5387014023	 0.2143043416	 0.093168
188.504	207.0026	215.7105	307.3579	347.5919	420.3011	459.2517	559.2229	623.7669	663.6386	700.1089	752.0735	787.0681	805.0359	847.312	897.75	906.3119	922.4772	963.6686	983.2175	1015.8738	1060.2739	1062.6413	1081.7736	1099.356	1120.8923	1142.6802	1174.4816	1190.9756	1195.0468	1237.9421	1268.657	1288.1574	1344.9804	1357.8061	1394.5564	1418.7223	1473.5225	1493.5319	1505.5296	1612.163	3027.037	3033.2496	3056.1972	3077.2682	3077.4028	3087.828	3102.3086	3135.1342	3179.1971	3202.9727
CC1C2OC11CC=CC21	C[C@H]1[C@H]2O[C@]31CC=C[C@@H]23	
InChI=1S/C8H10O/c1-5-7-6-3-2-4-8(5,6)9-7/h2-3,5-7H,4H2,1H3	InChI=1S/C8H10O/c1-5-7-6-3-2-4-8(5,6)9-7/h2-3,5-7H,4H2,1H3/t5-,6-,7+,8-/m0/s1
