20
gdb 39239	2.962	1.62407	1.20664	1.2371	78.18	-0.2296	0.0822	0.3118	1058.6404	0.173712	-403.091839	-403.084535	-403.083591	-403.123286	30.117	
C	-0.0202882189	 1.5265230072	 0.0204621256	-0.338452
C	 1.3037693404	 0.7766458536	-0.0049988888	-0.041865
C	 2.2444956864	 0.8706691669	 1.1838538043	-0.205309
N	 2.6750802622	-0.4674952334	 1.5941308935	-0.070634
C	 2.7398640254	-0.7372055817	 3.0262116066	-0.265235
C	 1.627950487	-1.2947342631	 2.2017227562	 0.001473
C	 0.2211591702	-0.755731086	 2.3423476497	-0.106184
O	-0.4910180371	-0.7504653399	 1.1156777531	-0.255628
C	-0.0028419416	 0.0204781893	 0.05140106	 0.140568
H	-0.2543428462	 2.0410999968	 0.947662266	 0.114948
H	-0.3797967484	 2.0309530116	-0.8700786205	 0.11277
H	 1.8121641374	 0.7074193844	-0.962314059	 0.096454
H	 3.1371226924	 1.4426668427	 0.9069228361	 0.106954
H	 1.7681935886	 1.4299675807	 2.0035710821	 0.087445
H	 3.5539022413	-1.3761760238	 3.3569154971	 0.117727
H	 2.4957238819	 0.0752315819	 3.7108434891	 0.106741
H	 1.671484634	-2.3401394533	 1.9008112411	 0.09484
H	-0.3597394803	-1.4099249068	 3.0003326099	 0.112553
H	 0.2235428799	 0.2396763885	 2.8073305434	 0.090241
H	-0.2866269148	-0.4709934255	-0.8744319054	 0.100593
117.1771	223.5707	271.2911	350.9118	371.9593	384.2278	439.6419	464.6466	569.1754	663.9014	742.0017	782.5068	807.1924	821.5832	845.1928	930.4222	959.0239	980.6917	1004.715	1022.4508	1044.1482	1046.609	1091.5771	1093.8268	1117.2269	1137.2785	1144.4286	1177.1132	1179.8456	1188.4682	1266.5506	1271.5722	1291.0023	1319.4088	1354.234	1373.3509	1401.4541	1413.3849	1436.4104	1484.9907	1492.8994	1506.4197	1531.601	2975.1802	3012.1274	3052.5261	3075.2381	3087.2547	3120.9687	3126.3897	3142.0686	3153.4023	3177.7581	3211.9593
C1C2CN3CC3COC12	C1[C@H]2CN3C[C@H]3CO[C@@H]12	
InChI=1S/C7H11NO/c1-5-2-8-3-6(8)4-9-7(1)5/h5-7H,1-4H2	InChI=1S/C7H11NO/c1-5-2-8-3-6(8)4-9-7(1)5/h5-7H,1-4H2/t5-,6-,7-,8?/m0/s1
