18
gdb 6735	6.10889	0.69735	0.65874	1.2913	74.09	-0.2397	0.0364	0.2761	1706.0184	0.150538	-384.901756	-384.891557	-384.890613	-384.938657	34.786	
C	-0.0657986781	 1.546024041	-0.0509366791	-0.402573
C	-0.0428704193	 0.0174580911	-0.0830066251	 0.149785
O	 0.9423395689	-0.5087758578	 0.7927487775	-0.42133
C	-1.4412208218	-0.5724353562	 0.2118729968	-0.378229
C	-1.494466635	-2.0255841001	 0.127568614	 0.043813
C	-1.5367293104	-3.2249111329	 0.0388055461	 0.14505
C	-1.5645966378	-4.6787359022	-0.0428970222	-0.217791
O	-2.4203444249	-5.0861463926	-1.1057912175	-0.410709
H	 0.9365826887	 1.9389324532	-0.2387404911	 0.126941
H	-0.7467083311	 1.9524563233	-0.8058885684	 0.117431
H	-0.3976246386	 1.9105516398	 0.9296362593	 0.106248
H	 0.2668496412	-0.3215858045	-1.0777048757	 0.102733
H	 0.7122767417	-0.2453945549	 1.6910182614	 0.276045
H	-1.7572519287	-0.2403722677	 1.212359865	 0.113272
H	-2.1652942076	-0.1382689393	-0.4900626166	 0.131779
H	-0.5375301287	-5.0486998929	-0.1959904581	 0.117242
H	-1.9083793007	-5.0884422053	 0.9213239988	 0.112458
H	-2.3999834579	-6.0481682919	-1.1349787452	 0.287838
15.8849	58.4835	85.9748	142.7743	223.4972	240.5341	259.2985	273.1877	305.037	356.2882	392.8111	456.811	506.1165	564.3219	781.5615	835.4868	894.3752	939.7955	1027.423	1045.6192	1061.9621	1091.1222	1148.4899	1155.7532	1200.0491	1246.3338	1256.9266	1306.3396	1334.4527	1371.4379	1402.7966	1424.0017	1459.8682	1461.428	1492.0079	1495.5989	1503.3072	2375.6392	2960.5574	2978.582	2995.6298	3024.0102	3040.065	3058.3224	3095.2839	3122.3091	3794.2307	3816.7276
CC(O)CC#CCO	C[C@@H](O)CC#CCO	
InChI=1S/C6H10O2/c1-6(8)4-2-3-5-7/h6-8H,4-5H2,1H3	InChI=1S/C6H10O2/c1-6(8)4-2-3-5-7/h6-8H,4-5H2,1H3/t6-/m1/s1
