19
gdb 82813	2.39543	1.96846	1.5198	2.2001	73.79	-0.2421	0.0659	0.308	953.1588	0.15992	-422.982314	-422.974823	-422.973878	-423.013769	30.578	
C	 0.0707636459	 1.5549725565	 0.0066426778	-0.509852
C	-0.0181810927	 0.0479588217	-0.0090801934	 0.289012
C	 0.4690949244	-0.7233120567	-1.2658180754	-0.295803
C	-0.6405633406	-1.7690492596	-1.0381507582	 0.104683
O	-0.2959785066	-2.6912334012	 0.0338376923	-0.320953
C	-0.7568273881	-1.7473174076	 1.0332967014	 0.044659
C	 0.3729685356	-0.7303624556	 1.2987772692	 0.115646
O	 1.6628850274	-1.2504607521	 1.4419067103	-0.443392
C	-1.3545381146	-0.8084082266	-0.0440237849	-0.148232
H	 1.1178837001	 1.8774493262	 0.0518867955	 0.129268
H	-0.3744228074	 1.9952255459	-0.8927726044	 0.112521
H	-0.443935615	 1.9771099004	 0.8773207291	 0.114342
H	 0.2700170664	-0.1440445958	-2.174386449	 0.101081
H	 1.5041492761	-1.0775407376	-1.2848537924	 0.103113
H	-1.0879643975	-2.2898728088	-1.8863094397	 0.082084
H	-1.2708925756	-2.2411241108	 1.8598392861	 0.07788
H	 0.1511006496	-0.1078400797	 2.1738777784	 0.080551
H	 1.6737335967	-2.0574491628	 0.9076937645	 0.288258
H	-2.374097174	-0.438698886	-0.1036791673	 0.075134
157.449	201.3277	241.2488	258.2179	293.0892	417.7534	464.1692	520.5181	581.5424	621.3203	690.1949	750.5168	805.0089	827.0542	843.5476	864.2217	905.6961	944.9916	964.1884	983.4093	988.2965	1028.0408	1099.5591	1119.9289	1133.9512	1144.1923	1160.6366	1183.1711	1208.0023	1238.8005	1262.6587	1274.0643	1279.4443	1291.2354	1329.5267	1367.2293	1409.2564	1434.5265	1472.5989	1490.162	1491.7107	3018.5093	3038.9557	3043.1227	3085.4943	3087.0506	3092.798	3094.8857	3097.592	3158.4987	3737.5139
CC12CC3OC(C1O)C23	C[C@@]12C[C@H]3O[C@@H]([C@H]1O)[C@@H]23	
InChI=1S/C7H10O2/c1-7-2-3-4(7)5(9-3)6(7)8/h3-6,8H,2H2,1H3	InChI=1S/C7H10O2/c1-7-2-3-4(7)5(9-3)6(7)8/h3-6,8H,2H2,1H3/t3-,4+,5-,6-,7+/m1/s1
