19
gdb 117181	3.02097	0.84819	0.70024	3.0987	69.56	-0.2591	-0.0023	0.2568	1620.0448	0.156787	-497.331556	-497.321163	-497.320219	-497.368235	36.206	
C	-0.0084404593	 1.4494617731	 0.1036778865	-0.392873
C	 0.0057400836	-0.0639209585	 0.0301567197	-0.050173
O	 0.7043418744	-0.5524271373	 1.2013084828	-0.239197
C	 0.8178396275	-1.876179148	 1.3109409909	 0.423659
O	 0.3839025284	-2.679243945	 0.5158471539	-0.380085
C	 1.5997021436	-2.2930549116	 2.5446596693	-0.002759
O	 1.5203176489	-3.6935856078	 2.7010410551	-0.445178
C	 3.0814951187	-1.8820081652	 2.4296522796	-0.060777
O	 3.8132498186	-2.4214056345	 3.5035237006	-0.419246
H	 1.0088309875	 1.8501931111	 0.1149296769	 0.134762
H	-0.5293148634	 1.8551122782	-0.7684883443	 0.129163
H	-0.5251039346	 1.792370058	 1.004212383	 0.135358
H	-1.0028968563	-0.4875253606	 0.0264439802	 0.130461
H	 0.5225574411	-0.4305925277	-0.8616741747	 0.129344
H	 1.1705071904	-1.8090957088	 3.4309380128	 0.11156
H	 1.1562852947	-4.0305714788	 1.8675850276	 0.298123
H	 3.4698352678	-2.2285895374	 1.4567133467	 0.086397
H	 3.1783877287	-0.7934704093	 2.4697912422	 0.118316
H	 3.5604169298	-3.3530456299	 3.5454101511	 0.293144
38.0199	74.4628	98.5384	105.1941	161.5386	212.6094	262.8174	311.942	344.0999	359.0525	410.6239	424.6777	510.6869	538.8011	687.2236	789.3929	808.701	878.2545	888.3643	970.1506	1044.6331	1073.7723	1090.4846	1132.3777	1135.3336	1181.3061	1222.6659	1230.1686	1292.4045	1296.3604	1324.7374	1387.5886	1398.2061	1420.772	1433.4915	1451.3968	1485.5792	1495.6572	1503.0245	1518.1914	1797.27	2960.2995	3039.5045	3049.1275	3058.1234	3094.8096	3098.2558	3124.165	3131.0707	3704.8648	3770.5953
CCOC(=O)C(O)CO	CCOC(=O)[C@@H](O)CO	
InChI=1S/C5H10O4/c1-2-9-5(8)4(7)3-6/h4,6-7H,2-3H2,1H3	InChI=1S/C5H10O4/c1-2-9-5(8)4(7)3-6/h4,6-7H,2-3H2,1H3/t4-/m0/s1
