16
gdb 24356	3.54935	1.58371	1.13213	2.6663	70.84	-0.196	0.0261	0.222	1021.3139	0.127792	-437.89513	-437.88835	-437.887406	-437.926242	27.216	
C	-0.0263467264	 1.4568641058	 0.0394936834	-0.183304
C	 1.4145428535	 1.981879756	 0.0189336626	-0.088543
O	 2.1451727927	 1.5485500148	 1.1712513238	-0.283417
C	 1.9904961838	 0.216340146	 1.3949261194	 0.252507
C	 2.761655343	-0.6186248116	 2.1408168052	-0.130739
O	 2.2373478176	-1.8775940301	 2.0920956173	-0.153568
C	 1.1166097522	-1.8343263619	 1.3187712532	-0.091768
C	 0.9149077205	-0.5692057017	 0.8556369767	 0.141064
N	-0.1038733577	-0.0076026901	 0.0616135457	-0.416367
H	-0.5253342501	 1.8498923984	 0.9341928948	 0.126077
H	-0.5695529198	 1.8311423015	-0.832431652	 0.110418
H	 1.9289190486	 1.6402883151	-0.8916250207	 0.099846
H	 1.4352187228	 3.074144321	 0.0455040456	 0.116595
H	 3.6512264216	-0.4846555812	 2.7303402101	 0.135327
H	 0.5948116672	-2.7661095991	 1.1824588576	 0.130199
H	-0.1415258395	-0.4040554329	-0.8685700826	 0.235675
111.6487	231.175	318.1727	378.2644	426.7705	464.5135	530.3505	592.3973	609.4479	657.07	698.7494	711.7302	731.8824	761.8176	880.0853	897.0708	957.686	1041.6779	1060.9048	1079.0751	1129.1157	1191.2029	1215.3009	1244.7292	1275.8123	1281.5416	1332.1771	1385.7599	1393.9824	1426.9427	1458.555	1480.7256	1495.5262	1602.9754	1681.8568	2997.307	3032.5256	3099.5678	3102.8365	3280.736	3292.6557	3552.0412
C1COC2=COC=C2N1	C1COc2cocc2N1	
InChI=1S/C6H7NO2/c1-2-9-6-4-8-3-5(6)7-1/h3-4,7H,1-2H2	InChI=1S/C6H7NO2/c1-2-9-6-4-8-3-5(6)7-1/h3-4,7H,1-2H2
