16
gdb 129662	3.03991	1.29045	0.94724	2.4785	69.05	-0.1903	0.0064	0.1967	1190.9814	0.125029	-471.185362	-471.176281	-471.175337	-471.219561	32.853	
N	-0.0757307015	 1.3694973548	-0.1382023797	-0.605909
C	-0.0939267013	-0.0153720081	-0.0502790715	 0.391164
C	-1.1234482232	-0.9122175794	-0.0824923631	-0.001133
N	-2.5098540215	-0.668229662	-0.1355050644	-0.630275
C	-0.458231414	-2.1659385	 0.0085099121	 0.328976
C	-1.1021315931	-3.5186455549	 0.0209823021	-0.188039
O	-2.0983067996	-3.6399637732	-0.9961105878	-0.412521
N	 0.8515024731	-2.0402325411	 0.0567606433	-0.238701
O	 1.0869139327	-0.6627155862	 0.0362516722	-0.214772
H	 0.8642823636	 1.7398731211	-0.0751834233	 0.261816
H	-0.6727930481	 1.8159818115	 0.5487136365	 0.26293
H	-2.7237770587	 0.1218633939	-0.7353640025	 0.241417
H	-2.9862292614	-1.487566642	-0.4986125018	 0.255445
H	-0.3295041854	-4.2931509666	-0.0612064704	 0.125946
H	-1.6372965168	-3.6762562249	 0.9634087914	 0.13211
H	-1.6540286947	-3.5457384428	-1.8458233032	 0.291547
49.9053	119.2909	135.4596	205.0454	237.6108	285.7186	333.848	336.8616	405.778	431.4934	508.1714	607.0601	647.8298	697.305	723.3603	764.3317	818.5138	875.6801	944.7113	979.8952	1017.0639	1055.0017	1089.8874	1196.2758	1257.0482	1310.4673	1354.4274	1363.6351	1416.0498	1494.1556	1520.9967	1528.8398	1639.6814	1657.6194	1721.3072	3031.0955	3080.53	3498.8634	3522.8478	3587.3458	3622.4274	3807.899
NC1=C(N)C(CO)=NO1	Nc1c(N)c(CO)no1	
InChI=1S/C4H7N3O2/c5-3-2(1-8)7-9-4(3)6/h8H,1,5-6H2	InChI=1S/C4H7N3O2/c5-3-2(1-8)7-9-4(3)6/h8H,1,5-6H2
