16
gdb 7917	3.4305	1.81188	1.27196	5.3377	68.05	-0.2616	-0.0358	0.2258	952.1232	0.130183	-383.806707	-383.798997	-383.798053	-383.838636	28.339	
C	-0.0309515074	 1.53754435	-0.0199999987	-0.399193
C	 0.0444572432	 0.0128925446	 0.0384308456	 0.030797
O	 0.7731784432	-0.4759183288	-1.0919809144	-0.241238
C	 1.8405193385	-1.2381312342	-0.673209822	 0.442011
O	 2.6011768773	-1.7545456082	-1.4420323934	-0.351874
C	 1.8124751001	-1.2598264585	 0.8043112474	-0.370573
C	 0.7745481017	-0.542893955	 1.2419982324	 0.329284
C	 0.327323036	-0.281600721	 2.6407619461	-0.498557
H	 0.9704518371	 1.9720145379	 0.0475116978	 0.133427
H	-0.4841986159	 1.8505682458	-0.9634797569	 0.142193
H	-0.641317233	 1.9253820377	 0.8010698323	 0.121973
H	-0.9711767194	-0.4058138498	-0.0141472656	 0.10699
H	 2.5486372507	-1.7978066462	 1.3841595421	 0.126113
H	 0.9527223262	-0.8085052924	 3.3645028296	 0.141858
H	 0.3630819704	 0.7895432123	 2.8724692206	 0.145146
H	-0.7121645787	-0.5995292442	 2.7864385771	 0.141642
129.7098	143.3731	188.4789	233.0704	250.4731	308.6127	392.35	527.8759	563.0278	590.1231	695.6438	744.9445	801.2358	882.61	896.7671	963.8547	1008.289	1031.6123	1079.7691	1102.4983	1120.2275	1169.5373	1183.9688	1309.4086	1349.9503	1351.9084	1403.849	1416.3407	1478.2393	1482.4212	1490.1631	1496.8702	1703.1947	1870.5637	3004.7819	3029.1031	3045.8272	3078.6687	3121.1867	3127.7565	3132.3336	3242.9358
CC1OC(=O)C=C1C	C[C@H]1OC(=O)C=C1C	
InChI=1S/C6H8O2/c1-4-3-6(7)8-5(4)2/h3,5H,1-2H3	InChI=1S/C6H8O2/c1-4-3-6(7)8-5(4)2/h3,5H,1-2H3/t5-/m1/s1
