17
gdb 55260	3.23804	1.16925	0.96362	1.9769	70.33	-0.2212	-0.0118	0.2094	1228.2665	0.135822	-455.190445	-455.181437	-455.180492	-455.225624	32.196	
C	-0.9837125647	 0.6372967392	 0.2799806848	-0.470125
C	 0.3852370041	 0.1050387287	-0.0776525377	 0.379222
O	 1.341021214	 0.2063469051	 0.6568456871	-0.29952
C	 0.4953953192	-0.5775292529	-1.4562575861	-0.097054
C	 1.8591020015	-1.2714916754	-1.6857036038	-0.128006
O	 1.5156618081	-2.6677667964	-1.8395841681	-0.250195
C	 0.1639622469	-2.7228261241	-1.7680968244	 0.484881
N	-0.3509248974	-3.9709973765	-1.969141578	-0.574288
N	-0.5040057699	-1.6486028885	-1.5752361525	-0.370078
H	-1.287006215	 1.400679019	-0.4462601569	 0.13665
H	-1.7180944883	-0.1696035611	 0.2097121396	 0.163686
H	-0.968561775	 1.0674448198	 1.281882934	 0.134178
H	 0.3021183783	 0.2003051864	-2.2095100244	 0.09386
H	 2.3669457199	-0.9434936483	-2.5956279643	 0.1154
H	 2.5215880844	-1.1577739577	-0.8255863216	 0.144828
H	 0.2701622772	-4.7369799337	-1.7619587342	 0.266888
H	-1.3022101133	-4.0882385635	-1.6592943735	 0.269672
26.5536	63.2524	120.7963	166.8978	246.7641	314.5549	352.2767	396.1536	441.0163	515.069	535.6867	591.0464	701.7953	727.9943	753.4813	804.8392	927.7492	950.1145	971.5643	1001.6914	1045.8042	1061.2546	1092.1677	1170.4921	1201.6019	1222.3731	1263.2798	1327.396	1362.7572	1379.0843	1437.9471	1464.2823	1467.9554	1525.696	1618.7437	1742.6069	1812.3969	2990.9141	3042.3074	3070.2272	3111.4083	3128.8084	3158.6794	3598.0643	3713.504
CC(=O)C1COC(N)=N1	CC(=O)[C@H]1COC(=N1)N	
InChI=1S/C5H8N2O2/c1-3(8)4-2-9-5(6)7-4/h4H,2H2,1H3,(H2,6,7)	InChI=1S/C5H8N2O2/c1-3(8)4-2-9-5(6)7-4/h4H,2H2,1H3,(H2,6,7)/t4-/m1/s1
