23
gdb 100768	3.00482	0.94841	0.76159	2.3536	82.3	-0.2524	0.0637	0.3161	1539.8433	0.204051	-425.407375	-425.39681	-425.395866	-425.44313	39.27	
C	-0.1872084509	 1.4028170662	 0.1363125743	-0.410515
C	 0.0254655987	-0.1121908893	-0.0198064079	-0.002491
C	 0.7259892591	-0.4720674214	-1.3402902232	 0.152198
O	 0.7646122097	-1.8850287023	-1.4537945344	-0.445869
C	 0.0360186123	 0.1008277311	-2.580380093	-0.118328
O	 0.7181851607	-0.4546833886	-3.7053397436	-0.433609
C	 0.7994538581	-0.6551208271	 1.1704645495	 0.048826
C	 0.0824149726	-0.9779177567	 2.4603808691	-0.288147
C	 0.662843839	-2.0841681337	 1.6149864474	-0.254737
H	 0.7625778815	 1.9451337576	 0.0567330262	 0.113828
H	-0.8696446114	 1.8108686739	-0.6150838881	 0.109926
H	-0.6090596272	 1.6212903155	 1.1214135037	 0.120237
H	-0.9559812887	-0.6068610296	-0.0396471313	 0.070494
H	 1.7539396249	-0.0659675845	-1.3165971038	 0.064232
H	 0.9907298927	-2.0592111213	-2.3765369775	 0.286401
H	-1.023473359	-0.1965166123	-2.5772992259	 0.092529
H	 0.0940453545	 1.1967783128	-2.5948883768	 0.094868
H	 0.1809898491	-0.3181081986	-4.4900718863	 0.293658
H	 1.7890377422	-0.2148047464	 1.2807823524	 0.072688
H	 0.566415414	-0.7310745219	 3.3990897698	 0.104579
H	-0.9978028184	-0.8683975006	 2.4794379605	 0.103829
H	-0.0171481334	-2.7150924242	 1.0555061368	 0.120601
H	 1.5488828396	-2.5971292888	 1.9724841321	 0.104804
54.5025	81.8781	127.5736	151.8109	208.5378	241.5665	253.4683	265.1434	322.5646	351.5809	373.8126	449.1015	485.71	523.2626	568.4526	761.4712	821.1425	827.472	862.2545	931.1891	938.7655	960.9797	1001.1407	1032.8713	1058.3173	1070.115	1072.744	1081.9343	1122.5685	1135.6347	1153.0361	1190.3513	1196.326	1231.4062	1240.1138	1263.4049	1281.9372	1314.4622	1332.4761	1375.8328	1403.6769	1420.2408	1433.7921	1454.0339	1472.781	1498.9701	1500.5345	1509.0183	1511.4997	2934.5115	2988.8693	3010.435	3029.5248	3043.7204	3096.1579	3110.4182	3118.1596	3124.6631	3142.2805	3204.3389	3229.0292	3769.0241	3845.5701
CC(C(O)CO)C1CC1	C[C@@H]([C@@H](O)CO)C1CC1	
InChI=1S/C7H14O2/c1-5(6-2-3-6)7(9)4-8/h5-9H,2-4H2,1H3	InChI=1S/C7H14O2/c1-5(6-2-3-6)7(9)4-8/h5-9H,2-4H2,1H3/t5-,7+/m1/s1
