16
gdb 27410	2.35472	1.64385	0.97387	3.1604	83.83	-0.2457	-0.0919	0.1538	1162.3018	0.125231	-400.786721	-400.778728	-400.777784	-400.820105	29.279	
C	 0.0117720798	 1.5282871708	-0.004153595	-0.485106
C	-0.0318285045	 0.015796926	-0.0002922298	 0.259929
C	-1.2231679551	-0.6200560645	-0.1182000627	-0.238998
C	-1.5572971288	-2.0527897871	-0.1443783763	 0.335145
O	-2.7302916723	-2.3900742226	-0.2620090915	-0.363553
C	-0.507450607	-3.0688724042	-0.0318764652	-0.146895
C	 0.8348218429	-2.9414752507	 0.1041851749	-0.001344
N	 1.6555722487	-1.8426866416	 0.1818233956	-0.263309
C	 1.2735307434	-0.6110474691	 0.1361617902	 0.002306
H	 0.6343311814	 1.8977714355	-0.8272120507	 0.144511
H	-0.9852095923	 1.9591489316	-0.1081463569	 0.139121
H	 0.4558750461	 1.9074183891	 0.9235110553	 0.144511
H	-2.1177054464	-0.0081477599	-0.2127064028	 0.11893
H	-0.9049267114	-4.080072321	-0.0668509143	 0.121525
H	 1.4001081185	-3.8699543513	 0.1668437106	 0.120289
H	 2.0927265271	 0.109484349	 0.2157041387	 0.112937
36.7646	131.1808	178.1142	253.2202	305.4003	367.0668	395.4311	443.4538	490.7674	590.4738	619.6055	685.4145	806.4574	847.0905	890.8025	933.7386	957.7733	994.3923	1025.3135	1040.7217	1065.225	1073.3485	1148.5457	1282.8201	1317.1112	1367.6552	1412.6394	1454.8894	1473.0922	1479.6938	1492.8395	1574.1789	1636.7467	1675.9626	1715.6058	3031.6624	3082.5637	3084.7431	3135.996	3138.3482	3159.2082	3173.786
CC1=CC(=O)C=CN=C1	Cc1cc(=O)ccnc1	
InChI=1S/C7H7NO/c1-6-4-7(9)2-3-8-5-6/h2-5H,1H3	InChI=1S/C7H7NO/c1-6-4-7(9)2-3-8-5-6/h2-5H,1H3
