14
gdb 131767	2.70978	1.50359	0.97281	3.2893	69.78	-0.2642	-0.0764	0.1878	1119.5615	0.099853	-469.91896	-469.910966	-469.910022	-469.951977	28.953	
O	-0.0429260131	 1.4030236829	-0.052403286	-0.397949
C	-0.0416650895	-0.0010954449	-0.073440089	-0.146587
C	-1.4451355211	-0.5324940617	 0.037897696	 0.341556
N	-2.4169686494	 0.3048074494	 0.1332345874	-0.118317
O	-3.7122232815	-0.1851665237	 0.2357662028	-0.222735
N	-4.0075385386	-1.5254127014	 0.2403168752	-0.054961
C	-3.0340992857	-2.3575955445	 0.144921686	 0.012961
C	-1.6329502454	-1.9857515329	 0.0316698913	 0.179226
N	-0.624308714	-2.7724758817	-0.0659646864	-0.514626
H	 0.8697044322	 1.6966826358	-0.1232657431	 0.297092
H	 0.3900394518	-0.4178068602	-0.9978223135	 0.128803
H	 0.5387410066	-0.4439346806	 0.7520809408	 0.128797
H	-3.3234129085	-3.4066111433	 0.1533390783	 0.141744
H	-0.9227307938	-3.7511053433	-0.0555805898	 0.224995
75.7609	113.1754	197.5279	213.9597	269.6696	332.0041	424.0648	483.5848	503.8719	523.099	622.4402	734.9463	758.306	820.8168	872.6472	887.7122	949.319	962.2842	1023.5771	1100.4324	1143.3666	1225.8007	1241.4929	1247.5669	1327.2225	1429.8162	1472.9426	1495.5972	1624.6586	1644.2882	1696.7797	2978.2881	2997.3044	3157.465	3437.0188	3841.7481
OCC1=NON=CC1=N	OCC1=NON=C[C]1[NH]	
InChI=1S/C4H5N3O2/c5-3-1-6-9-7-4(3)2-8/h1,5,8H,2H2	InChI=1S/C4H5N3O2/c5-3-1-6-9-7-4(3)2-8/h1,5,8H,2H2
