16
gdb 128069	4.57803	1.0022	0.8265	1.3923	73.63	-0.2453	-0.005	0.2403	1334.5337	0.126419	-434.120923	-434.1123	-434.111356	-434.155824	30.085	
C	-0.006921182	 1.477698796	 0.0419421487	-0.335817
N	 0.0859531341	 0.033462223	-0.0165941842	-0.336013
C	 0.5453387582	-0.6278879524	-1.1211377529	 0.33477
O	 0.9100060927	-0.0519176122	-2.136406192	-0.39569
C	 0.5763819758	-2.1039687478	-1.0157363588	 0.112157
C	 1.0123447414	-2.9269357286	-2.0397842489	-0.073161
N	 0.899424195	-4.190792406	-1.5887421196	-0.18701
N	 0.4164346438	-4.271029446	-0.3294158105	-0.219816
C	 0.2200200794	-3.005950632	 0.0194290981	-0.119846
H	 0.6180220756	 1.8871665768	 0.843926943	 0.123865
H	 0.3450838683	 1.8628705278	-0.9155274497	 0.172772
H	-1.040207562	 1.8066125524	 0.2018024639	 0.123867
H	-0.1988418943	-0.500353581	 0.78654237	 0.246495
H	 1.3798299629	-2.6781077609	-3.0215427762	 0.16549
H	 1.1286476051	-5.041721066	-2.0745548695	 0.28072
H	-0.171207524	-2.794319483	 1.0047183487	 0.107214
26.5228	81.2209	109.1708	153.8832	224.2173	318.8634	391.306	408.0845	494.1886	560.3697	639.5579	696.0025	768.919	807.1979	848.2818	882.831	951.9508	971.7634	1034.0745	1079.1697	1154.3655	1164.6669	1166.7726	1208.8321	1260.7583	1339.0496	1379.9199	1424.8607	1438.3027	1493.436	1495.5934	1500.5447	1560.6509	1603.1582	1754.2092	3024.1783	3073.9156	3154.9767	3231.8753	3282.9185	3659.3994	3671.7426
CNC(=O)C1=CNN=C1	CNC(=O)c1c[nH]nc1	
InChI=1S/C5H7N3O/c1-6-5(9)4-2-7-8-3-4/h2-3H,1H3,(H,6,9)(H,7,8)	InChI=1S/C5H7N3O/c1-6-5(9)4-2-7-8-3-4/h2-3H,1H3,(H,6,9)(H,7,8)
