19
gdb 66481	3.11746	1.67902	1.38533	1.8468	78.12	-0.2383	0.0899	0.3283	1002.8135	0.158763	-385.822313	-385.814743	-385.813799	-385.853792	30.811	
C	 0.0857106449	 1.566713236	-0.0197400602	-0.523597
C	-0.021104412	 0.0771950887	-0.020701488	 0.348293
C	 0.8940606336	-1.0063753081	-0.5524870343	-0.157746
C	 0.5048394325	-0.9798143456	 0.9272559773	-0.201924
C	-0.7827443938	-1.8548998686	 0.8431618247	 0.468582
C	-1.5571823895	-2.2497491764	 2.0629113109	-0.517799
O	-0.5010532441	-2.933033137	-0.0900413584	-0.330119
C	-0.2768292191	-1.8914179404	-1.0624618078	 0.079451
C	-1.213705533	-0.89116464	-0.3188044392	-0.232308
H	 1.0998513359	 1.8854573907	 0.2447196783	 0.122641
H	-0.1467724422	 1.9862276987	-1.0055958959	 0.120919
H	-0.6024506702	 2.0185185069	 0.7044146026	 0.119862
H	 1.9184053364	-0.9403726476	-0.8945161865	 0.087437
H	 1.2278426965	-0.8942671007	 1.7285011683	 0.084213
H	-1.7878457548	-1.367886667	 2.6687114636	 0.123622
H	-2.4942849383	-2.7416320901	 1.7874576225	 0.128223
H	-0.9725932177	-2.9427337955	 2.6780867996	 0.130724
H	-0.3378864034	-2.2192829195	-2.0987008126	 0.077156
H	-2.2401951218	-0.6562526144	-0.5922326548	 0.072369
179.0597	202.9342	208.7875	254.7867	276.0958	311.8996	554.2212	573.7768	586.3011	605.2118	770.8744	788.0579	798.5053	820.4882	838.554	859.2791	864.8957	888.5523	903.6895	948.5788	965.4774	1026.1895	1048.8931	1068.4806	1101.9583	1120.7858	1145.7203	1148.3288	1162.2421	1185.0715	1240.4415	1255.8813	1284.0996	1348.9327	1409.6468	1416.6289	1456.0538	1478.6517	1484.9523	1491.4758	1496.6053	3019.6243	3035.4456	3077.9411	3090.2579	3103.7275	3116.5194	3132.5821	3143.9613	3192.5339	3205.4441
CC12C3C1C1(C)OC3C21	C[C@@]12[C@H]3[C@@H]1[C@]1(C)O[C@H]3[C@H]21	
InChI=1S/C8H10O/c1-7-3-4-6(7)8(2,9-4)5(3)7/h3-6H,1-2H3	InChI=1S/C8H10O/c1-7-3-4-6(7)8(2,9-4)5(3)7/h3-6H,1-2H3/t3-,4-,5+,6-,7-,8+/m1/s1
