14
gdb 48532	2.78271	1.50216	1.26122	3.7597	68.17	-0.2404	-0.052	0.1883	992.7177	0.100916	-436.63716	-436.63006	-436.629116	-436.669229	26.477	
O	-0.2029297291	 0.034191276	 0.087599036	-0.253751
C	-0.0306455065	 1.2200046073	-0.0507749971	 0.020633
C	 1.2695703099	 1.8824263866	 0.0481650641	 0.284497
C	 1.7365552725	 3.2195270437	 0.5462590521	-0.079819
N	 2.8398484535	 2.6066011413	 1.3010630902	-0.304333
C	 2.7393211207	 1.4411292536	 0.3668691097	-0.222661
C	 3.0734537436	 2.0119035838	-1.0351513812	 0.452738
O	 3.8173810339	 1.6993091986	-1.9173497836	-0.321114
C	 1.8959960095	 2.951950723	-0.9389623862	-0.267165
H	-0.8718785424	 1.9150784853	-0.2691795298	 0.082261
H	 1.1510468512	 4.0507138713	 0.9211230764	 0.128217
H	 3.7264416241	 3.1093539828	 1.2152504127	 0.226605
H	 3.0846579752	 0.4694457899	 0.7066306365	 0.121279
H	 1.3818122539	 3.5016749868	-1.7153316397	 0.132613
77.1549	144.3901	183.13	272.6433	415.077	458.6534	526.6316	608.8725	666.7255	709.8713	745.6615	812.484	850.6812	903.0484	928.7727	961.787	995.2922	1037.6935	1052.9596	1064.3375	1092.0223	1121.7172	1160.6699	1192.4579	1231.5989	1306.4076	1348.5396	1394.6499	1444.8389	1802.9141	1890.3049	2881.8406	3178.7646	3190.2267	3226.7236	3417.4367
O=CC12C3NC1C(=O)C23	O=C[C@@]12[C@H]3N[C@@H]1C(=O)[C@@H]23	
InChI=1S/C6H5NO2/c8-1-6-2-3(9)5(6)7-4(2)6/h1-2,4-5,7H	InChI=1S/C6H5NO2/c8-1-6-2-3(9)5(6)7-4(2)6/h1-2,4-5,7H/t2-,4+,5-,6-/m1/s1
