17
gdb 17404	4.37785	1.53392	1.49899	1.0549	68.49	-0.2408	0.0749	0.3158	917.2351	0.141769	-363.792541	-363.785265	-363.78432	-363.823909	28.047	
C	-0.108505146	 1.5073829814	-0.053230347	-0.390935
C	-0.0268001796	 0.0059290225	 0.0696505876	-0.070742
N	 1.3180488686	-0.6000848806	-0.0965011841	-0.390569
C	 0.6469743405	-0.6632746632	 1.2001036574	 0.349015
C	 1.3082256236	-0.1260014622	 2.4969275107	-0.330286
C	 0.8720993961	-1.439655534	 3.1733575091	 0.035313
O	-0.5529074478	-1.5264319119	 3.0560441614	-0.240814
C	 0.2470609183	-1.9335924129	 1.9348611473	-0.084749
H	 0.7654384831	 1.9784206093	 0.4041955252	 0.126779
H	-0.1440150922	 1.8120699025	-1.1046061262	 0.120342
H	-1.0083575902	 1.8878287152	 0.4417619056	 0.121045
H	-0.8640371983	-0.5369210533	-0.368650856	 0.084372
H	 1.2501521367	-1.4951091425	-0.5770039611	 0.228282
H	 2.3901483576	-0.0308346546	 2.3783225673	 0.120096
H	 0.8934741196	 0.7823388876	 2.9401104226	 0.112881
H	 1.3395701812	-1.9780353749	 3.9891096708	 0.107438
H	 0.102772369	-2.9381108086	 1.5504051195	 0.102532
114.0951	170.2612	194.368	250.2929	375.4932	428.1768	454.986	511.0603	581.2596	783.2062	800.2157	842.6081	852.7708	866.6478	929.2723	935.041	972.5406	999.9003	1030.6636	1043.0086	1066.8375	1076.9912	1120.7588	1156.9427	1209.776	1223.3974	1234.9202	1248.3966	1277.5758	1342.2985	1383.1347	1408.9919	1462.8682	1478.1731	1490.2859	1506.9755	3035.0766	3068.07	3098.6426	3103.3925	3125.1632	3128.9071	3169.6042	3194.2616	3482.0012
CC1NC11CC2OC12	C[C@H]1N[C@]21C[C@H]1O[C@@H]21	
InChI=1S/C6H9NO/c1-3-6(7-3)2-4-5(6)8-4/h3-5,7H,2H2,1H3	InChI=1S/C6H9NO/c1-3-6(7-3)2-4-5(6)8-4/h3-5,7H,2H2,1H3/t3-,4-,5-,6+/m1/s1
