20
gdb 101911	2.0845	1.33346	0.8724	3.2312	75.21	-0.2467	-0.0318	0.2148	1334.5294	0.169365	-440.270189	-440.260275	-440.25933	-440.30589	35.62	
C	-0.4630932186	 1.3246285776	 0.3900570213	-0.470822
C	 0.1367387393	-0.0487975899	 0.1706932057	 0.386947
O	 0.7562275587	-0.606897499	 1.0537096206	-0.317029
C	-0.0481390415	-0.7043089809	-1.2069328839	-0.15606
C	 0.4733487957	-2.1549806675	-1.2018008184	-0.066603
O	 1.852415322	-2.2396715615	-0.9242131459	-0.428819
C	-1.4879546249	-0.632342595	-1.6876857111	 0.009848
C	-1.9754415511	 0.4855833077	-2.5357774074	-0.248802
N	-1.8055468631	-0.8601135309	-3.1065707617	-0.31725
H	-0.1791554374	 2.00720635	-0.4175285538	 0.139364
H	-1.5565703332	 1.2644259045	 0.3807723839	 0.152922
H	-0.128578067	 1.7188472751	 1.3501894507	 0.144743
H	 0.5777532161	-0.1212343992	-1.9012529719	 0.098724
H	-0.1248695295	-2.7452735827	-0.4899258221	 0.095076
H	 0.3200095504	-2.5929975416	-2.1932855104	 0.109246
H	 1.9457282412	-1.9277418349	-0.0146868197	 0.29446
H	-2.2052600928	-1.1092671487	-1.0204381084	 0.101813
H	-3.0046251779	 0.8243970875	-2.4574674413	 0.124743
H	-1.2655048747	 1.2616614618	-2.8114062753	 0.112411
H	-0.9467884018	-0.8967458424	-3.652066601	 0.23509
39.9205	89.9845	120.4299	141.8436	162.881	210.9425	258.6427	332.94	349.9315	441.2894	480.4352	538.0835	576.0573	622.0558	748.6404	823.541	869.9474	937.6778	948.8039	957.1641	965.8973	1040.2654	1044.6639	1091.2931	1098.4777	1130.9544	1162.868	1190.4487	1194.7629	1221.9507	1242.4741	1269.4016	1308.2604	1335.6468	1385.1107	1397.8232	1419.0259	1444.6566	1458.3766	1472.0665	1499.9625	1512.1271	1785.4305	2981.524	2994.4329	3044.2598	3076.2878	3104.4712	3107.0374	3111.3015	3154.7369	3190.1804	3487.9829	3767.2346
CC(=O)C(CO)C1CN1	CC(=O)[C@@H](CO)[C@H]1CN1	
InChI=1S/C6H11NO2/c1-4(9)5(3-8)6-2-7-6/h5-8H,2-3H2,1H3	InChI=1S/C6H11NO2/c1-4(9)5(3-8)6-2-7-6/h5-8H,2-3H2,1H3/t5-,6-/m1/s1
