16
gdb 15770	4.69349	1.04065	0.94029	1.5828	69.56	-0.2518	0.0392	0.291	1259.7308	0.128217	-383.68502	-383.67605	-383.675106	-383.720941	30.722	
C	-0.0555462126	 1.4427267135	-0.0947278817	-0.498756
C	-0.0217612631	-0.011141361	-0.0365657422	 0.064646
C	 0.0010197009	-1.2136645716	 0.0212711494	 0.071639
C	 0.0254171907	-2.6818809143	 0.0585865155	-0.091576
O	-1.272242363	-3.2491533211	 0.0967833515	-0.414622
C	 0.8102962344	-3.2299542031	-1.1360308331	 0.070874
C	 0.5664709846	-4.5845249817	-1.6365843887	-0.184664
O	 0.0222393101	-3.4349111125	-2.3088678392	-0.242614
H	 0.9568788347	 1.8601347819	-0.1259070013	 0.150341
H	-0.5852314565	 1.7920742522	-0.9876416183	 0.152256
H	-0.5619456335	 1.8642880638	 0.7803521426	 0.152063
H	 0.5235473995	-3.0123092777	 0.9792816734	 0.120297
H	-1.6335584712	-3.1261245251	-0.7921539978	 0.292382
H	 1.7778973764	-2.7608677638	-1.3103011628	 0.106956
H	 1.3516918246	-5.105624325	-2.1805733609	 0.119221
H	-0.1672393559	-5.2081709445	-1.1331080764	 0.131556
9.7861	69.1544	98.521	166.6835	258.1047	263.4629	331.8057	357.552	433.6444	455.3256	548.1847	672.9872	771.0508	817.515	892.1061	943.4421	1003.7494	1052.4462	1053.3418	1097.8331	1101.0075	1160.4835	1165.2164	1170.6561	1255.7629	1293.5552	1313.7121	1413.5757	1416.3581	1431.4656	1476.4061	1478.464	1514.576	2368.6246	3029.1377	3030.7009	3090.759	3091.5954	3101.3361	3124.8438	3199.1007	3756.5573
CC#CC(O)C1CO1	CC#C[C@@H](O)[C@H]1CO1	
InChI=1S/C6H8O2/c1-2-3-5(7)6-4-8-6/h5-7H,4H2,1H3	InChI=1S/C6H8O2/c1-2-3-5(7)6-4-8-6/h5-7H,4H2,1H3/t5-,6-/m1/s1
