22
gdb 113892	4.01045	0.73199	0.67759	2.8972	84.13	-0.2304	-0.0075	0.2229	1745.8869	0.191176	-404.340166	-404.329506	-404.328562	-404.37748	37.624	
C	-0.0622100631	-2.8556768193	-0.119291816	-0.382802
C	-0.1535961055	-1.717530272	 0.9043805093	-0.200139
C	-1.3155524465	-0.7904959921	 0.6050854088	 0.034912
C	-2.6584844668	-1.0034188436	 1.2189879387	-0.258404
N	-1.8572394597	 0.1685036485	 1.5696305528	-0.102937
C	-1.3062624164	 0.241059373	 2.9130885814	-0.249219
C	-2.1469407802	 1.1223643527	 3.8455677621	 0.373199
C	-2.9019222231	 2.2756877734	 3.2207495718	-0.460477
O	-2.1587697627	 0.9010449051	 5.0342342533	-0.295289
H	 0.7947965034	-3.5032354489	 0.0874850135	 0.117098
H	-0.9657697822	-3.4736044038	-0.1020412014	 0.121838
H	 0.0528931124	-2.4645663455	-1.1359690345	 0.119245
H	-0.2492653787	-2.1377274063	 1.9105971471	 0.103712
H	 0.7811729459	-1.1414859578	 0.8941906089	 0.103634
H	-1.291164572	-0.384617951	-0.40702833	 0.089371
H	-3.5719892647	-0.8117043867	 0.6619982447	 0.114807
H	-2.7379406241	-1.7986345831	 1.9604779587	 0.112316
H	-1.1743884076	-0.7247537224	 3.4206857596	 0.112571
H	-0.3151258163	 0.7144887523	 2.8550083932	 0.126622
H	-3.6798802214	 1.8930501839	 2.5527801739	 0.149512
H	-3.3471366189	 2.8879149044	 4.0058736565	 0.131586
H	-2.2358420119	 2.8768023393	 2.5932786276	 0.138842
33.6236	47.6728	93.7567	105.3472	131.2941	197.3457	222.2848	269.3574	329.9644	410.5539	436.4953	495.0414	506.0089	574.9784	752.0667	778.5325	803.1128	849.884	867.7084	918.5766	960.141	1000.6635	1013.647	1041.4393	1070.3285	1097.6339	1118.6106	1151.1081	1168.4688	1195.1373	1229.0487	1264.5279	1292.2002	1335.1199	1346.9172	1351.1092	1382.5284	1409.0101	1429.5526	1451.422	1458.8113	1468.425	1486.0748	1498.5721	1506.7812	1510.3454	1814.9412	2992.9837	3023.2485	3035.0262	3036.9042	3047.1923	3072.4516	3083.51	3094.5178	3107.3726	3109.2013	3110.4119	3155.2419	3172.4452
CCC1CN1CC(C)=O	CC[C@H]1CN1CC(=O)C	
InChI=1S/C7H13NO/c1-3-7-5-8(7)4-6(2)9/h7H,3-5H2,1-2H3	InChI=1S/C7H13NO/c1-3-7-5-8(7)4-6(2)9/h7H,3-5H2,1-2H3/t7-,8?/m0/s1
