17
gdb 65866	2.70785	1.28194	1.18169	2.9658	68.52	-0.2664	-0.0461	0.2204	1115.3051	0.134236	-459.027584	-459.018911	-459.017967	-459.061499	31.512	
C	-0.1326202735	 1.6627860876	 0.3295212323	-0.444081
C	 0.1033402018	 0.1764734314	 0.0752146939	 0.273995
C	 0.8606524373	-0.1508321842	-1.2235221498	-0.27465
C	 1.6992272378	-1.369105923	-0.8278422164	-0.364963
C	 1.8431676725	-1.2458287473	 0.6841631297	 0.421303
O	 2.6013498376	-1.8067691924	 1.4161563702	-0.32366
O	 0.9195432662	-0.3463707841	 1.1490558721	-0.256625
C	-1.242052577	-0.5561639088	 0.1627957578	 0.128455
O	-1.8981747368	-0.888863145	-0.787908098	-0.241148
H	 0.8283523129	 2.1793777496	 0.4012577901	 0.139573
H	-0.7108677419	 2.0959790214	-0.4918309774	 0.141564
H	-0.6787049854	 1.8222938413	 1.264022946	 0.138108
H	 0.1569454529	-0.3409766419	-2.0347078852	 0.142401
H	 1.4994535268	 0.6914376238	-1.5029727579	 0.115337
H	 1.181398292	-2.3114959943	-1.0392873776	 0.15249
H	 2.682597129	-1.4250592352	-1.2957424616	 0.145246
H	-1.5703871123	-0.7458192989	 1.2080085718	 0.106656
55.1568	111.1231	112.3339	220.3534	276.7723	293.5942	302.9894	411.4243	484.4539	530.8211	550.177	621.4609	700.7852	776.546	809.2497	886.9009	923.3345	967.5891	987.3648	1014.6574	1029.5282	1118.6188	1129.4004	1151.8231	1217.0297	1264.8465	1272.6454	1311.785	1337.072	1396.6116	1406.7987	1461.2619	1481.462	1490.6311	1498.1584	1836.0336	1892.18	2905.4683	3042.2801	3058.8171	3070.1776	3119.5069	3125.9785	3129.5802	3137.8448
CC1(CCC(=O)O1)C=O	C[C@]1(CCC(=O)O1)C=O	
InChI=1S/C6H8O3/c1-6(4-7)3-2-5(8)9-6/h4H,2-3H2,1H3	InChI=1S/C6H8O3/c1-6(4-7)3-2-5(8)9-6/h4H,2-3H2,1H3/t6-/m0/s1
