18
gdb 20168	3.26911	2.75683	1.99477	1.7357	69.6	-0.2386	0.0753	0.3139	743.7032	0.157106	-347.787641	-347.781601	-347.780657	-347.817939	24.662	
C	-0.0239750183	 1.5432433289	-0.175782404	-0.242247
C	 1.5268036659	 1.5677179201	 0.0383428438	-0.016905
C	 2.0074665654	 1.9617476676	 1.4573510473	-0.224003
C	 2.1206520847	 0.6472721171	 2.2796763772	-0.221821
C	 1.4702873111	-0.4370315426	 1.4275550067	 0.133921
O	 0.0162319269	-0.3492367728	 1.4192207465	-0.322135
C	-0.0148587584	 0.0172598876	 0.020576047	 0.126786
C	 1.5330628572	 0.0025039452	-0.0453941616	-0.115102
H	-0.6405435436	 2.1128737762	 0.5254050291	 0.100761
H	-0.2972931153	 1.8161429391	-1.2001947297	 0.0959
H	 2.0708377873	 2.0966620596	-0.7454700679	 0.068259
H	 2.9755644175	 2.4696347418	 1.4136474071	 0.096688
H	 1.3077490441	 2.6664266089	 1.9163760176	 0.104952
H	 3.1717316607	 0.3848880004	 2.4487373243	 0.096289
H	 1.6413216186	 0.7104279349	 3.260882402	 0.111132
H	 1.7923478698	-1.453325559	 1.6812034628	 0.068301
H	-0.6985808696	-0.6117980202	-0.5548034079	 0.070534
H	 2.144819296	-0.5213851328	-0.7763338704	 0.06869
69.5532	319.3233	323.6239	400.6429	631.505	639.8919	707.3501	773.1092	795.9502	813.8979	849.5988	880.2284	893.6419	923.1773	959.9608	963.6562	978.7141	1016.3274	1037.6669	1070.1022	1081.2245	1138.2747	1160.0517	1179.3074	1200.5495	1223.659	1239.2096	1255.2735	1273.8667	1290.5469	1298.5587	1320.3426	1341.6356	1347.1473	1364.8331	1463.476	1471.3035	1503.1093	3031.0343	3043.5561	3044.8084	3053.8243	3075.6203	3078.8895	3091.1453	3099.1655	3105.8786	3137.4849
C1C2CCC3OC1C23	C1[C@H]2CC[C@H]3O[C@@H]1[C@@H]23	
InChI=1S/C7H10O/c1-2-5-7-4(1)3-6(7)8-5/h4-7H,1-3H2	InChI=1S/C7H10O/c1-2-5-7-4(1)3-6(7)8-5/h4-7H,1-3H2/t4-,5-,6+,7+/m1/s1
