18
gdb 38082	2.46907	1.82038	1.5772	2.1868	84.96	-0.2311	-0.0516	0.1795	955.393	0.150113	-364.79469	-364.787559	-364.786615	-364.825922	28.992	
C	 0.1983130224	 1.4788490319	 0.3257345118	-0.232883
C	 1.703976077	 1.3976378898	-0.0993196855	-0.170004
C	 1.9240817693	 1.931399288	-1.4929894099	-0.072364
C	 1.1704828689	 1.6133894067	-2.5547302111	-0.076588
C	 0.0213049347	 0.6914409313	-2.5627356768	 0.005858
N	-0.5098152152	 0.0037477631	-1.6269500631	-0.20857
C	 2.2948279821	-1.1479688906	 0.1102678668	-0.479446
C	 1.5016382609	-0.113395679	-0.1112379805	 0.415656
C	-0.0062244199	 0.0407147252	-0.2530335903	-0.083685
H	 0.0968840572	 1.4751384389	 1.4124208663	 0.113154
H	-0.4030508363	 2.276933786	-0.1124451351	 0.109638
H	 2.4427218319	 1.7946397958	 0.5989455561	 0.077324
H	 2.7525049195	 2.6216245454	-1.6297845658	 0.10428
H	 1.4067947729	 2.0587513162	-3.5172911038	 0.09322
H	-0.4544963312	 0.583334097	-3.5421230858	 0.101465
H	 1.9059484345	-2.1612116361	 0.1369021437	 0.113316
H	 3.3605882413	-1.0253954112	 0.2784091621	 0.105985
H	-0.6197117101	-0.6387613585	 0.342058351	 0.083645
129.1646	174.9609	279.1877	346.1059	362.3182	412.9986	476.7713	613.0131	649.3744	692.7807	729.1567	781.3136	790.0872	841.225	883.0399	902.9836	915.2124	923.517	947.5495	966.9836	986.7886	1003.9107	1054.4377	1079.94	1145.4079	1150.7212	1210.1982	1227.7538	1247.6174	1259.4124	1326.0992	1343.8843	1412.0913	1430.8119	1448.5936	1473.4722	1655.8761	1713.2773	1756.9209	3071.7385	3076.3554	3083.1379	3091.6237	3137.5892	3139.7663	3153.2014	3175.5974	3218.1093
C1C2C=CC3N4CC23C14	C1[C@@H]2C=CC=N[C@H]1C2=C	
InChI=1S/C8H9N/c1-2-6-8-4-9(6)7(8)3-5(1)8/h1-2,5-7H,3-4H2	InChI=1S/C8H9N/c1-6-7-3-2-4-9-8(6)5-7/h2-4,7-8H,1,5H2/t7-,8+/m0/s1
