18
gdb 87284	2.55665	1.30311	1.07646	3.2204	73.7	-0.2506	-0.0314	0.2192	1189.1098	0.145692	-439.039827	-439.030772	-439.029828	-439.073951	32.864	
C	-0.2603682191	 1.5186050007	 0.0169569241	-0.410404
C	-0.0410333905	 0.0266189992	 0.1135511493	-0.018438
N	 1.2579544593	-0.5111216373	-0.2539664743	-0.370284
C	 0.8086244364	-0.6703140049	 1.1552177473	 0.179153
C	 1.6168860785	 0.1669474048	 2.0964906999	 0.133877
O	 1.7757617445	-0.0514638658	 3.2712041371	-0.264241
C	 0.3048717592	-2.0235411213	 1.5775971284	 0.000193
C	 0.7524764414	-2.7879511764	 2.7511413566	-0.195472
O	-0.5092953149	-2.1090376878	 2.7395082518	-0.231471
H	 0.6573801996	 2.0779463349	 0.2050568708	 0.134354
H	-0.6060062927	 1.7760806298	-0.9897597286	 0.129156
H	-1.0246236805	 1.8443570979	 0.7293718387	 0.135259
H	-0.9150725967	-0.5637829516	-0.1633051106	 0.101754
H	 1.1788199247	-1.39898717	-0.7446560894	 0.241938
H	 2.0951410118	 1.0362154446	 1.5996329355	 0.093636
H	-0.0823743064	-2.5951094781	 0.7272857384	 0.080118
H	 0.6926659541	-3.875341508	 2.7177890018	 0.111518
H	 1.4919907211	-2.361726041	 3.4190985831	 0.149355
67.4105	94.0924	167.0323	179.4391	221.8973	242.5882	308.7815	368.4523	397.6957	465.6565	522.5706	526.6325	753.4516	779.8369	856.3695	871.2901	916.9446	963.9525	1001.2264	1033.4871	1054.1948	1058.5771	1097.533	1111.022	1127.102	1174.8315	1176.8864	1230.5586	1272.9545	1298.9973	1386.1087	1401.1166	1416.328	1438.3158	1465.1016	1489.1269	1504.3039	1516.592	1820.835	2920.7456	3044.1099	3045.7992	3097.6873	3100.1279	3106.2192	3142.2612	3220.1553	3495.1456
CC1NC1(C=O)C1CO1	C[C@H]1N[C@]1(C=O)[C@H]1CO1	
InChI=1S/C6H9NO2/c1-4-6(3-8,7-4)5-2-9-5/h3-5,7H,2H2,1H3	InChI=1S/C6H9NO2/c1-4-6(3-8,7-4)5-2-9-5/h3-5,7H,2H2,1H3/t4-,5-,6+/m1/s1
