20
gdb 106641	2.82046	1.231	1.00257	3.9556	80.95	-0.2291	-0.0101	0.219	1262.6453	0.169054	-403.13681	-403.1273	-403.126356	-403.171182	35.17	
C	 0.0442421063	 1.4740925178	 0.279233462	-0.37468
C	 0.0021739753	-0.0044610067	-0.135533865	-0.30595
C	-1.3908557106	-0.5581093918	-0.1843884554	 0.292545
C	-2.4662833294	-0.2586403228	-1.2463492667	-0.400655
C	-2.8858239923	-1.7488949706	-1.0996748391	 0.418104
O	-3.5599948555	-2.4828144673	-1.7635090058	-0.314362
C	-1.8784637672	-1.9845112186	 0.0022522265	 0.13316
C	-1.2044341417	-3.2676048616	 0.3714971518	-0.515609
N	-2.1621360294	-0.9056783348	 1.0205946687	-0.396348
H	 1.0739915365	 1.842313008	 0.3016134417	 0.118023
H	-0.5204039856	 2.0955907043	-0.4228419673	 0.127601
H	-0.3905424018	 1.6174978867	 1.2732222263	 0.126887
H	 0.4681775161	-0.1229813679	-1.121840232	 0.109798
H	 0.6019577228	-0.6016404886	 0.5639733402	 0.098208
H	-3.206942935	 0.4971102088	-0.9773754191	 0.128693
H	-2.0768839721	-0.0697340486	-2.2513435228	 0.124019
H	-0.9457986796	-3.8388634811	-0.5252093654	 0.141076
H	-0.2853788802	-3.0842110553	 0.9387658665	 0.120062
H	-1.8610195359	-3.8927073637	 0.9861627119	 0.143775
H	-1.4913975008	-1.077260566	 1.7735381331	 0.225654
80.2697	92.5088	140.8195	166.7703	211.1739	232.7153	265.1269	338.8247	409.5228	465.2165	513.7715	556.8808	623.581	657.083	719.0941	765.8432	788.0413	843.6727	957.1265	973.0862	997.1614	1027.5566	1050.4518	1069.4602	1097.8596	1109.261	1112.9064	1170.9761	1199.5874	1266.2501	1339.3252	1345.1303	1380.0529	1406.2022	1413.7924	1429.5877	1461.0013	1475.2305	1480.7814	1495.8017	1497.8933	1507.8822	1884.3114	3015.5685	3030.7154	3040.0615	3051.8358	3063.7474	3094.9528	3107.2219	3111.2581	3114.0676	3127.0326	3430.0151
CCC12CC(=O)C1(C)N2	CC[C@@]12CC(=O)[C@]1(C)N2	
InChI=1S/C7H11NO/c1-3-7-4-5(9)6(7,2)8-7/h8H,3-4H2,1-2H3	InChI=1S/C7H11NO/c1-3-7-4-5(9)6(7,2)8-7/h8H,3-4H2,1-2H3/t6-,7+/m0/s1
