18
gdb 69281	2.61927	1.53469	1.16164	5.0099	72.34	-0.235	0.0259	0.2609	1077.2274	0.14943	-439.116862	-439.108889	-439.107945	-439.149055	31.523	
O	-0.0463738383	 1.3689465889	 0.1213754858	-0.467242
C	 0.0243691597	-0.022149674	-0.0193576903	 0.396951
C	-0.5494103312	-0.634246258	-1.2642110028	-0.363287
C	-1.3019091149	-0.7268707123	 0.0666461955	-0.165355
C	-1.4103521548	-2.0339115996	 0.7897743668	 0.40881
O	-2.4814604074	-2.5081712486	 1.1221402496	-0.385651
N	-0.2224007683	-2.6582916264	 1.074500085	-0.320465
C	 1.1030549889	-2.2037400779	 0.6875243154	-0.182931
C	 1.1877776178	-0.6737253974	 0.7018311331	-0.268037
H	 0.6497385018	 1.7584918442	-0.4197905746	 0.283162
H	-0.9732853476	 0.047842145	-1.9918762497	 0.124512
H	-0.1177329317	-1.5364609279	-1.6831342522	 0.122278
H	-2.189388334	-0.1140680075	 0.1575676025	 0.122356
H	-0.3246249202	-3.564892124	 1.5044081638	 0.24686
H	 1.8294169061	-2.613543097	 1.3957097659	 0.118207
H	 1.3842720687	-2.5867476917	-0.3047860559	 0.109485
H	 2.1408570795	-0.3660437782	 0.2535912613	 0.096926
H	 1.1790014559	-0.3118258577	 1.7360318811	 0.123423
108.8062	160.3796	261.9235	289.2124	314.3968	366.8276	401.0549	437.6907	491.1348	509.7134	542.5896	665.6446	675.6257	751.1767	781.4816	896.6387	900.7184	943.7108	947.6098	1000.9391	1009.9268	1053.7738	1079.6116	1109.1215	1134.7469	1199.3791	1232.1418	1263.8813	1279.5675	1318.3741	1351.7544	1370.1601	1401.4052	1414.0286	1473.1642	1478.7477	1500.9634	1529.3272	1787.0091	2987.1235	3028.3095	3069.9213	3079.2153	3139.5529	3205.5148	3230.2583	3626.129	3791.9529
OC12CC1C(=O)NCC2	O[C@]12C[C@H]1C(=O)NCC2	
InChI=1S/C6H9NO2/c8-5-4-3-6(4,9)1-2-7-5/h4,9H,1-3H2,(H,7,8)	InChI=1S/C6H9NO2/c8-5-4-3-6(4,9)1-2-7-5/h4,9H,1-3H2,(H,7,8)/t4-,6+/m0/s1
