17
gdb 19108	4.50509	2.24116	2.17965	1.5283	69.66	-0.2156	0.0852	0.3008	718.8837	0.143978	-326.632075	-326.626151	-326.625207	-326.661684	24.712	
C	-0.0617810127	 1.6175073011	 0.0204687787	-0.416092
C	 0.0227294586	 0.1074212352	-0.0514442352	 0.064684
C	 0.7135376711	-0.6237126295	-1.224732523	-0.096457
C	 2.2025232937	-0.200133046	-1.1648625858	-0.084538
C	 2.6353980286	-1.4357269686	-0.3912093218	-0.120365
C	 2.359482182	-0.1688461747	 0.3594304407	-0.021332
N	 1.0135838396	-0.5865520659	 0.8667778753	-0.170547
C	 1.1297763617	-1.7134531038	-0.1813145281	-0.00502
H	 0.9048292493	 2.0809229679	-0.1987370266	 0.119965
H	-0.7915042029	 1.9982989058	-0.7020248812	 0.115488
H	-0.3757744564	 1.9380732143	 1.0193355822	 0.125525
H	-0.9556054929	-0.3462855876	 0.1496429083	 0.076226
H	 0.2513103497	-0.8208741993	-2.1920100747	 0.063161
H	 2.7744953733	 0.4207097409	-1.8402228386	 0.088734
H	 3.5136812464	-2.0629906143	-0.4510893034	 0.093675
H	 3.0213274064	 0.4937276677	 0.9009235357	 0.090146
H	 0.6230195646	-2.6574242932	 0.0087776074	 0.076746
204.2894	219.0651	267.4907	545.1821	589.7509	715.9821	735.8	781.7705	801.126	811.1036	826.5189	844.0246	864.5419	882.5153	918.6724	937.3484	965.9899	1006.5734	1035.3429	1048.0303	1059.5462	1065.4051	1109.7471	1137.7797	1155.5644	1175.0666	1199.2133	1227.1171	1231.3479	1251.2874	1298.5426	1348.7164	1386.6749	1408.2402	1488.2491	1499.2158	3033.4144	3036.6195	3101.6054	3110.7401	3113.5266	3134.7535	3198.7555	3206.4287	3220.5093
CC1C2C3C4C3N1C24	C[C@H]1[C@H]2[C@@H]3[C@H]4[C@@H]3N1[C@@H]24	
InChI=1S/C7H9N/c1-2-3-4-5-6(3)8(2)7(4)5/h2-7H,1H3	InChI=1S/C7H9N/c1-2-3-4-5-6(3)8(2)7(4)5/h2-7H,1H3/t2-,3-,4+,5+,6-,7+/m0/s1
