17
gdb 14371	4.19089	2.16981	1.87922	1.2773	67.82	-0.2365	0.0603	0.2968	761.1501	0.144868	-363.754458	-363.748427	-363.747483	-363.784579	24.702	
C	 0.0528113196	 1.6023834742	 0.1318499155	-0.236425
N	 1.5427909557	 1.2466157674	 0.1113923665	-0.175658
C	 1.1335209271	 0.0362763467	 0.9944110978	-0.238494
C	 0.0497964367	 0.070162007	-0.1153919579	 0.383674
O	-0.9711704271	-0.6897393558	-0.6752065763	-0.321479
C	-0.8164382301	-0.4976855585	-2.1128738601	-0.085528
C	 0.4067062763	 0.469204223	-2.3881172609	-0.32968
C	 1.1758746655	 0.2721004763	-1.0829783379	 0.035161
H	-0.2880346066	 1.9680224716	 1.1029702469	 0.101149
H	-0.2538397661	 2.2766871773	-0.6679471034	 0.103023
H	 1.8577193644	-0.7811248222	 0.9820761137	 0.110022
H	 0.859946558	 0.3327263399	 2.0091523785	 0.108714
H	-0.6493968366	-1.4815563107	-2.5644059152	 0.113678
H	-1.7497635532	-0.0889495663	-2.5110883181	 0.115402
H	 0.9630341263	 0.1553772	-3.273533234	 0.111611
H	 0.0594510813	 1.4889742361	-2.5582392791	 0.124706
H	 1.9232679286	-0.521575316	-1.1565965762	 0.080125
89.7816	322.8158	365.987	446.3488	524.118	600.0094	637.927	711.1449	739.0235	807.6316	827.978	862.5483	897.0483	911.5676	949.3876	979.3443	996.5832	1044.1276	1053.5745	1075.4874	1125.2327	1155.437	1161.6965	1179.5767	1197.7836	1212.1741	1222.0566	1238.8538	1267.1391	1288.8684	1381.2021	1402.6425	1486.501	1512.5203	1518.9665	1554.8022	3041.2552	3064.2303	3071.636	3076.7574	3084.2261	3088.257	3129.6335	3139.9346	3145.9568
C1N2CC11OCCC21	C1N2C[C@]31OCC[C@@H]23	
InChI=1S/C6H9NO/c1-2-8-6-3-7(4-6)5(1)6/h5H,1-4H2	InChI=1S/C6H9NO/c1-2-8-6-3-7(4-6)5(1)6/h5H,1-4H2/t5-/m1/s1
