18
gdb 11505	4.4633	1.06656	0.95158	1.6699	74.24	-0.2592	0.0548	0.314	1240.6929	0.151443	-347.749648	-347.740713	-347.739769	-347.783747	32.239	
C	-0.0035512832	 1.4982585526	-0.2552760055	-0.394631
C	 0.0299490276	-0.0001072226	 0.1081048335	-0.142416
C	 0.6852344029	-0.2727506265	 1.4874402215	-0.221525
C	 2.1416428655	 0.1207038716	 1.5381809528	 0.082453
C	 3.1582649775	-0.7348954669	 2.1629342924	-0.17991
O	 3.0342275822	-0.6681135522	 0.7416853488	-0.237164
C	-1.3154011052	-0.5703411443	 0.0717174459	 0.313804
C	-2.4276937303	-1.0269871652	 0.0639991616	-0.463063
H	 1.0080461781	 1.9092099142	-0.3125363684	 0.122052
H	-0.4843154025	 1.6461093631	-1.2253462091	 0.129733
H	-0.5687589668	 2.0653408246	 0.4911992293	 0.122998
H	 0.6421967781	-0.5205787005	-0.6402414628	 0.125554
H	 0.1329282669	 0.2688304943	 2.2654623849	 0.109121
H	 0.5951486395	-1.3402004087	 1.7108985286	 0.114069
H	 2.3530961748	 1.1900230971	 1.4953368484	 0.095655
H	 4.0634196223	-0.2911563423	 2.5755023883	 0.11501
H	 2.8574405562	-1.6794395973	 2.6146349976	 0.115346
H	-3.4066265834	-1.437596141	 0.0429973324	 0.192913
49.8803	81.4194	132.5817	193.0241	225.5804	258.2483	326.6404	386.3398	482.5089	520.7449	541.2387	625.4912	637.0382	791.0432	813.4268	867.2457	906.1008	928.1122	963.5407	1035.7721	1064.8613	1105.2354	1119.7436	1160.0489	1163.7311	1179.264	1250.5795	1290.2931	1300.4465	1340.7666	1363.4297	1407.3293	1444.5006	1471.9621	1494.7543	1500.8133	1528.9998	2234.2863	3021.7901	3037.4937	3043.9309	3080.6642	3084.8492	3104.9593	3116.602	3125.067	3168.1977	3505.1736
CC(CC1CO1)C#C	C[C@@H](C[C@H]1CO1)C#C	
InChI=1S/C7H10O/c1-3-6(2)4-7-5-8-7/h1,6-7H,4-5H2,2H3	InChI=1S/C7H10O/c1-3-6(2)4-7-5-8-7/h1,6-7H,4-5H2,2H3/t6-,7+/m1/s1
