24
gdb 78117	2.58466	1.33173	1.08314	1.3301	90.92	-0.2055	0.0914	0.2969	1280.0232	0.214998	-368.380226	-368.370083	-368.369138	-368.414104	39.494	
C	-0.2302639569	 1.2979753214	-0.0886947353	-0.323303
N	 0.0660071474	-0.1178363955	 0.0994725396	-0.142856
C	 1.4898763883	-0.4571155929	-0.0981629605	-0.131839
C	 0.8983891828	-0.4639859274	 1.2764769008	 0.367567
C	 1.0690482708	 0.4126604232	 2.4807494328	-0.512311
C	 0.9157699693	-2.0028204096	 1.2963464784	-0.335704
C	 1.6079172427	-1.9945209629	-0.1243331559	 0.332619
C	 0.8555780073	-2.7030886304	-1.246472193	-0.445628
C	 3.0673206792	-2.4417864369	-0.0466134558	-0.446379
H	 0.6006590765	 1.9828180572	 0.1452644977	 0.097986
H	-0.5061539824	 1.4569539947	-1.1362606267	 0.122288
H	-1.0871362249	 1.5792598236	 0.532396536	 0.11994
H	 2.1528368265	 0.2614778186	-0.5714722533	 0.073469
H	 1.1886076023	 1.4667661864	 2.2203149587	 0.123254
H	 0.2031109665	 0.3271168279	 3.1493823983	 0.12369
H	 1.9535030261	 0.1094940568	 3.0508044894	 0.122631
H	 1.5607016981	-2.4232224982	 2.073266502	 0.09188
H	-0.0718288705	-2.4686909365	 1.3469860654	 0.095602
H	-0.1652051531	-2.320448982	-1.3189889476	 0.131175
H	 1.3520741471	-2.5495182205	-2.2121428518	 0.102016
H	 0.8096142317	-3.7835144211	-1.066672498	 0.105005
H	 3.135402079	-3.5145653106	 0.1663101363	 0.112419
H	 3.5868044709	-2.2559059044	-0.9941666382	 0.109006
H	 3.6091521054	-1.907173001	 0.7414420105	 0.107473
124.1804	168.3712	170.3649	207.9517	224.7596	242.31	278.6894	301.3656	324.5134	337.505	352.6377	425.2528	453.645	519.6603	590.0439	678.6916	762.0375	822.3249	876.7142	909.2921	926.6337	939.8507	955.3612	967.9044	1012.3512	1033.0512	1045.324	1119.3744	1143.3529	1154.1417	1164.9279	1196.4984	1203.6355	1230.6863	1272.6545	1282.8413	1319.0953	1393.1391	1400.5963	1414.2488	1435.3435	1455.1413	1475.4272	1483.5862	1484.3776	1488.3926	1489.2122	1499.8653	1500.2686	1510.3435	1511.6501	2969.3547	3018.4327	3024.0725	3025.3766	3051.2671	3062.1942	3080.3037	3082.9849	3086.1541	3091.2227	3096.6239	3109.2525	3120.95	3121.6684	3153.5585
CN1C2C1(C)CC2(C)C	CN1[C@H]2[C@]1(C)CC2(C)C	
InChI=1S/C8H15N/c1-7(2)5-8(3)6(7)9(8)4/h6H,5H2,1-4H3	InChI=1S/C8H15N/c1-7(2)5-8(3)6(7)9(8)4/h6H,5H2,1-4H3/t6-,8+,9?/m1/s1
