19
gdb 72271	2.72382	1.86326	1.64385	0.5507	73.6	-0.2301	0.0773	0.3074	912.0856	0.161382	-422.994714	-422.987742	-422.986798	-423.025453	29.534	
O	-0.0378090665	 1.4096610126	-0.000571435	-0.491241
C	-0.004482487	 0.0170008362	-0.0735285098	 0.410704
C	 0.4247416948	-0.7451848436	-1.3321301345	-0.303509
C	-0.5146923147	-1.8761419993	-0.8135088379	-0.063628
C	 0.2928806599	-2.7790763968	 0.1172022433	-0.085888
O	 1.0704358939	-1.9624596154	 0.9977235956	-0.267296
C	 0.4027923045	-0.7415591771	 1.2669422954	 0.038583
C	-1.1101681118	-0.9533914082	 1.5575000894	-0.266589
C	-1.3162981278	-0.8048070414	 0.0397454291	-0.076423
H	 0.8632499544	 1.7287356377	 0.1250890168	 0.278289
H	 0.0275427286	-0.2546831523	-2.2251559103	 0.102607
H	 1.4817094179	-0.9904857295	-1.473921367	 0.096478
H	-1.0830795171	-2.4481603654	-1.5481998115	 0.073609
H	-0.3651751943	-3.4474378871	 0.6912335065	 0.095076
H	 0.9999339489	-3.4019602615	-0.4409937703	 0.10607
H	 1.0138457853	-0.1892945593	 1.9846359338	 0.073394
H	-1.3976867185	-1.876271739	 2.0682918773	 0.097688
H	-1.5345897255	-0.0975002184	 2.0883653277	 0.112062
H	-2.2641110552	-0.4759715921	-0.3875226986	 0.070013
230.8525	246.4787	293.7051	323.8865	388.167	429.8666	454.2187	500.2489	572.0963	665.7618	687.8278	792.4553	841.4257	852.1709	890.373	913.8307	933.2321	956.923	970.8398	1021.1448	1039.8047	1048.5493	1089.9399	1109.4848	1126.7887	1167.318	1175.8306	1193.2895	1197.6703	1232.1829	1246.5957	1271.908	1277.7188	1304.0966	1324.4445	1341.128	1371.0096	1397.7442	1477.4314	1481.5962	1521.2668	2997.5246	3048.127	3058.6592	3066.5347	3086.4624	3096.5559	3107.5824	3110.8726	3114.8579	3790.108
OC12CC3COC1CC23	O[C@@]12C[C@H]3CO[C@@H]1C[C@@H]23	
InChI=1S/C7H10O2/c8-7-2-4-3-9-6(7)1-5(4)7/h4-6,8H,1-3H2	InChI=1S/C7H10O2/c8-7-2-4-3-9-6(7)1-5(4)7/h4-6,8H,1-3H2/t4-,5+,6+,7+/m0/s1
