18
gdb 10401	2.89334	1.69871	1.38522	3.715	63.43	-0.247	0.0485	0.2955	954.4001	0.153298	-422.039749	-422.031138	-422.030193	-422.074042	30.801	
O	-0.0022154955	 1.462535549	-0.0062511046	-0.426505
C	 0.0363328783	 0.0421549424	 0.1477081256	-0.154108
C	-1.384134071	-0.4967793738	 0.0564544975	 0.255028
C	-2.303435063	 0.0952560715	 1.129628823	-0.11949
O	-2.6292952643	 1.448786485	 0.8903848287	-0.428685
C	-1.9942623432	-0.5070013228	-1.3655054655	-0.106039
O	-2.0153685938	-1.9525208621	-1.3954020033	-0.272595
C	-1.4434158411	-2.0381142945	-0.078618422	-0.129124
H	 0.8812389961	 1.8161233201	 0.131697004	 0.297821
H	 0.6599109332	-0.4119844514	-0.6366844439	 0.101159
H	 0.4692861246	-0.2322172385	 1.1228905619	 0.095995
H	-3.2515928279	-0.4543353756	 1.1373112967	 0.106366
H	-1.8398980602	-0.0460839788	 2.1228527027	 0.077278
H	-1.7935527132	 1.9019330862	 0.7163897702	 0.291772
H	-2.9968420627	-0.0726362436	-1.4404198822	 0.116678
H	-1.3609424276	-0.0875617527	-2.1564951519	 0.101237
H	-0.4727750253	-2.553278814	-0.0813074259	 0.092768
H	-2.1073268135	-2.5463531863	 0.633120209	 0.100443
21.2605	100.7025	138.2639	240.0761	250.857	277.2633	349.9865	371.0454	447.6935	482.5097	552.691	721.7227	854.3047	912.5683	942.2608	955.3252	995.9441	1009.7377	1037.8539	1056.5356	1079.1417	1110.6643	1149.4782	1159.8901	1185.6208	1222.3528	1245.2558	1302.5828	1316.3689	1326.8443	1374.4789	1390.0028	1457.3429	1467.9194	1505.4751	1512.8176	1520.8497	1541.889	2939.7493	2972.3851	2995.7509	3011.6587	3025.1786	3036.4694	3057.7877	3075.0059	3753.432	3835.157
OCC1(CO)COC1	OCC1(CO)COC1	
InChI=1S/C5H10O3/c6-1-5(2-7)3-8-4-5/h6-7H,1-4H2	InChI=1S/C5H10O3/c6-1-5(2-7)3-8-4-5/h6-7H,1-4H2
