15
gdb 14120	3.88251	1.86547	1.43875	4.9435	61.61	-0.254	0.003	0.257	853.9875	0.12044	-399.794593	-399.787808	-399.786864	-399.825691	25.822	
O	-0.0678227247	 0.2563829537	-0.8936689348	-0.381017
C	-0.106667613	 1.2607577785	 0.002620945	 0.380785
O	 0.8104443623	 1.5201269447	 0.7363410889	-0.351095
C	-1.4102086995	 1.9821523669	-0.0019592232	 0.189991
C	-1.6685259446	 3.285624286	 0.6955720609	-0.320747
C	-2.4458147247	 2.0805207238	 1.1322644786	-0.109082
C	-3.5065491591	 1.7110190025	 0.0927467534	-0.175043
N	-2.4505893513	 1.5984707816	-0.9681167259	-0.392132
H	-2.5591815949	 2.2636988746	-1.7309260641	 0.228535
H	-0.9508485025	 0.2255698578	-1.3093392552	 0.303007
H	-0.8729983591	 3.5877461029	 1.3675869531	 0.154166
H	-2.1542002671	 4.0912117018	 0.1493110572	 0.109849
H	-2.3601438924	 1.6633762343	 2.1262284656	 0.122996
H	-3.9904970582	 0.7469255964	 0.2682643685	 0.127266
H	-4.2745486713	 2.4692037644	-0.0975571181	 0.112519
102.6062	174.4641	206.841	349.1623	387.3256	478.637	515.1444	692.0982	729.8417	744.569	760.7664	850.0829	860.0801	904.1557	950.7281	978.5117	999.3862	1017.3806	1025.1031	1080.9629	1123.7292	1168.6863	1185.9949	1221.6408	1284.007	1331.7291	1349.5086	1366.2696	1426.4551	1475.7974	1508.6676	1861.9912	3038.4601	3097.2995	3111.0579	3213.4451	3223.9048	3476.1527	3594.441
[O-]C(=O)C12CC1C[NH2+]2	OC(=O)[C@]12C[C@H]1CN2	
InChI=1S/C5H7NO2/c7-4(8)5-1-3(5)2-6-5/h3,6H,1-2H2,(H,7,8)	InChI=1S/C5H7NO2/c7-4(8)5-1-3(5)2-6-5/h3,6H,1-2H2,(H,7,8)/t3-,5-/m0/s1
