16
gdb 13802	4.27652	1.23297	1.10404	5.0934	62.25	-0.2466	0.015	0.2616	1080.4218	0.130348	-417.053808	-417.045004	-417.04406	-417.088001	30.884	
N	 0.2397424344	 1.1099979069	-0.7094380687	-0.531721
C	 0.0634125235	 0.2223917164	 0.3153080292	 0.434832
O	 0.9247513407	 0.0076147561	 1.1445960423	-0.356844
C	-1.3016455159	-0.4234215598	 0.3260514539	-0.149128
N	-1.3955812025	-1.7679287848	 0.9189339454	-0.319888
C	-2.0824206116	-0.6590627452	 1.584595718	-0.027896
C	-1.5864604209	-0.331156205	 2.9753630225	-0.086683
O	-2.0538292255	-1.3038320193	 3.900776652	-0.424552
H	 1.139581762	 1.5529386828	-0.7978912513	 0.264108
H	-0.4262402371	 1.2215352846	-1.452972561	 0.258427
H	-1.9038588484	-0.2296128603	-0.5605896736	 0.077454
H	-2.0467835966	-2.3331651989	 0.381078524	 0.238262
H	-3.1651566691	-0.6070860144	 1.4729293508	 0.093214
H	-0.4950671289	-0.2597659029	 2.9692275484	 0.138496
H	-2.0006978566	 0.6283024684	 3.3029611172	 0.102209
H	-1.6244177475	-2.1315581944	 3.6572127812	 0.28971
49.2328	72.7817	131.6644	154.3505	217.4637	279.9036	375.4054	398.123	426.0458	505.8863	579.1138	647.4409	758.1746	796.4148	842.0237	900.4639	945.109	987.8358	1009.9945	1063.531	1076.6481	1121.1485	1176.002	1208.4342	1257.3112	1272.871	1296.2049	1371.1887	1412.4582	1448.0054	1480.1728	1505.4689	1617.5609	1799.4392	3049.7978	3097.8443	3106.6453	3119.9288	3508.8627	3605.0261	3740.8431	3803.2815
NC(=O)C1NC1CO	NC(=O)[C@H]1N[C@H]1CO	
InChI=1S/C4H8N2O2/c5-4(8)3-2(1-7)6-3/h2-3,6-7H,1H2,(H2,5,8)	InChI=1S/C4H8N2O2/c5-4(8)3-2(1-7)6-3/h2-3,6-7H,1H2,(H2,5,8)/t2-,3-/m0/s1
