16
gdb 55337	2.09539	1.62351	1.17682	5.1244	70.12	-0.2507	0.0087	0.2594	1079.9427	0.124211	-437.860992	-437.852566	-437.851622	-437.894725	30.909	
O	-0.2056964116	-0.0251677039	 0.0701999959	-0.368712
C	-0.0633471757	 1.2942841138	-0.1110643851	 0.441897
O	 0.9848152914	 1.8242282991	-0.3607203841	-0.339864
C	-1.3713667086	 2.068213965	 0.041620696	-0.141879
N	-2.5730632441	 1.208875312	 0.1422841741	-0.330445
H	-3.1590501891	 1.1709269479	-0.684497599	 0.236635
H	-1.1587361606	-0.1633173783	 0.2533854547	 0.303409
C	-3.1070207339	 1.9982930265	 1.2791323942	-0.169693
C	-1.7044186521	 2.662692533	 1.4648310312	-0.200234
C	-0.9201232121	 2.1601804144	 2.5729497506	 0.351072
C	-0.2796325147	 1.7335097818	 3.4958071378	-0.461141
H	-1.4058907464	 2.8456983437	-0.727816572	 0.106939
H	-3.8722188637	 2.7295138696	 0.9951326408	 0.111097
H	-3.471398539	 1.3939044376	 2.1126100546	 0.129096
H	-1.723859791	 3.7538692477	 1.4760471398	 0.123406
H	 0.3005645411	 1.35862665	 4.3026186306	 0.208416
56.1172	100.6276	124.1734	208.5554	236.3054	307.8441	430.8187	509.2668	523.9998	615.6852	638.0126	652.7203	689.9373	757.3831	791.2921	827.3902	836.8848	958.2488	964.9813	993.0077	1032.5087	1069.7411	1103.1842	1140.1503	1187.7243	1236.121	1246.1617	1297.2421	1345.0501	1348.0825	1375.884	1422.2858	1517.39	1875.1261	2241.0195	3036.158	3062.8343	3093.1539	3107.3412	3503.2676	3523.5915	3535.2626
[O-]C(=O)C1[NH2+]CC1C#C	OC(=O)[C@H]1NC[C@H]1C#C	
InChI=1S/C6H7NO2/c1-2-4-3-7-5(4)6(8)9/h1,4-5,7H,3H2,(H,8,9)	InChI=1S/C6H7NO2/c1-2-4-3-7-5(4)6(8)9/h1,4-5,7H,3H2,(H,8,9)/t4-,5+/m1/s1
