13
gdb 18431	5.24217	1.41519	1.19815	4.1348	61.4	-0.2528	-0.035	0.2177	941.9238	0.094277	-398.579879	-398.573009	-398.572065	-398.611347	24.801	
O	 0.0954403697	 0.0882602376	-0.3859288603	-0.279138
C	 0.0599701745	 1.2259853766	 0.0075436691	 0.142714
N	 1.1194967775	 1.9002085831	 0.6063141874	-0.08422
C	 1.7650057294	 3.072945438	 0.0521043337	-0.055154
C	 2.6088651466	 3.6809357274	 1.1808573625	-0.365102
C	 3.3797990322	 2.3220397129	 1.2202092537	 0.435529
O	 4.3764477389	 1.9580827094	 1.7630169022	-0.286696
C	 2.4950591299	 1.7365659952	 0.1238623132	-0.168236
H	-0.8560587983	 1.8459436015	 0.0109181359	 0.097567
H	 1.3893396716	 3.5557284034	-0.8407134098	 0.132801
H	 3.2811433239	 4.4794305066	 0.8540464903	 0.142747
H	 2.0718191051	 3.9849078078	 2.0805989139	 0.1427
H	 2.7059600391	 0.9975957103	-0.6383878618	 0.144488
107.0284	126.833	177.1338	297.0515	380.4305	452.1839	532.2491	637.499	682.2154	780.5262	817.0351	879.3874	887.6311	974.217	993.7011	1028.64	1032.0487	1040.74	1120.7357	1153.8925	1209.3561	1238.1687	1271.194	1387.596	1412.5504	1443.9511	1803.4149	1910.2926	2963.4263	3073.9337	3139.027	3209.2422	3219.4617
O=CN1C2CC(=O)C12	O=CN1[C@H]2CC(=O)[C@@H]12	
InChI=1S/C5H5NO2/c7-2-6-3-1-4(8)5(3)6/h2-3,5H,1H2	InChI=1S/C5H5NO2/c7-2-6-3-1-4(8)5(3)6/h2-3,5H,1H2/t3-,5-,6?/m0/s1
