16
gdb 28021	6.02386	0.88428	0.77847	0.9807	76.61	-0.2331	0.0085	0.2417	1421.1213	0.123035	-400.759179	-400.750439	-400.749495	-400.793365	31.364	
C	 0.7521137581	 1.2876733357	-0.7875483892	-0.488426
C	 0.1169675859	 0.0622678129	-0.2375597237	 0.377473
N	-0.9051757227	-0.5913625498	-0.6940458512	-0.35002
C	-1.0772250406	-1.6500207228	 0.1943767237	 0.247476
C	-2.1813228417	-2.6476019268	-0.0017112732	-0.470867
C	-2.2148860148	-3.6899886053	 1.0183177369	 0.311473
C	-2.2375336767	-4.5457704225	 1.8612163037	-0.452242
C	-0.1287687151	-1.5708857479	 1.1545653185	-0.108599
O	 0.6483178823	-0.4735214523	 0.8906632226	-0.176224
H	 1.8018229291	 1.1070590832	-1.0410040516	 0.146889
H	 0.2154364567	 1.5919845595	-1.6862371001	 0.156984
H	 0.7251577011	 2.1054109733	-0.0599962075	 0.146887
H	-3.142574658	-2.1168676769	-0.0229995879	 0.152651
H	-2.0787401441	-3.1029077259	-0.9958309751	 0.152668
H	-2.2662912548	-5.3067684993	 2.6011188293	 0.198759
H	 0.1224409752	-2.1532654451	 2.0225904147	 0.155116
45.8404	92.984	109.5683	191.8184	258.0028	310.2696	333.5343	384.5155	455.2303	617.6068	639.0411	649.8668	691.476	697.4202	748.6198	765.4073	940.5766	957.8911	963.7025	1014.7811	1047.4583	1066.46	1132.7589	1213.9672	1217.5086	1238.6653	1329.2766	1377.8293	1412.2181	1462.4241	1475.8666	1480.8476	1621.5595	1641.3985	2244.6495	3018.011	3041.1763	3045.1102	3099.5758	3158.3149	3307.2324	3505.5883
CC1=NC(CC#C)=CO1	Cc1nc(CC#C)co1	
InChI=1S/C7H7NO/c1-3-4-7-5-9-6(2)8-7/h1,5H,4H2,2H3	InChI=1S/C7H7NO/c1-3-4-7-5-9-6(2)8-7/h1,5H,4H2,2H3
