16
gdb 35618	2.12965	1.72619	1.08836	4.1432	79.26	-0.2653	-0.0048	0.2604	1099.1892	0.124407	-363.600797	-363.592556	-363.591611	-363.633942	30.748	
C	 0.0134618424	-1.1553712281	 0.7092623795	-0.475178
C	 0.0230450995	-0.0093230584	 0.3485611928	 0.354671
C	 0.0184623893	 1.3874679788	-0.0773930224	-0.230189
C	-0.8533681004	 2.2435105407	 0.8325752077	-0.068182
C	-0.1344682826	 3.0189506423	 1.6383358793	-0.063672
C	 1.3497215324	 2.8589590485	 1.4240230551	-0.262801
C	 1.4069451041	 2.1214457992	 0.0552824324	-0.163767
C	 2.5798163608	 1.2747644767	-0.1218493099	 0.27903
N	 3.5259512363	 0.6266876402	-0.2638769828	-0.326549
H	 0.0195943269	-2.1703782491	 1.0219182673	 0.205962
H	-0.3132012683	 1.4299447544	-1.1215104067	 0.121995
H	-1.9316081889	 2.1443165066	 0.8301807797	 0.115936
H	-0.5411541728	 3.6739699197	 2.4000455647	 0.110117
H	 1.8954181278	 3.8064361254	 1.3878981005	 0.125571
H	 1.8032393665	 2.2594992551	 2.2228993138	 0.141029
H	 1.4283841168	 2.882454478	-0.7319056208	 0.136028
68.0661	110.7523	170.647	183.9011	284.3346	371.262	432.0342	476.1728	538.9595	569.3518	631.2969	656.2457	681.0739	741.6997	776.1207	809.212	915.1844	969.7267	972.3442	995.494	1032.4676	1045.7783	1083.9548	1134.9902	1166.6663	1251.7455	1278.4653	1298.3068	1339.0024	1351.061	1354.4321	1488.0671	1690.1011	2236.9996	2361.877	3033.0337	3038.4868	3057.3204	3087.0123	3197.398	3224.1944	3502.9638
C#CC1C=CCC1C#N	C#C[C@H]1C=CC[C@H]1C#N	
InChI=1S/C8H7N/c1-2-7-4-3-5-8(7)6-9/h1,3-4,7-8H,5H2	InChI=1S/C8H7N/c1-2-7-4-3-5-8(7)6-9/h1,3-4,7-8H,5H2/t7-,8-/m0/s1
