16
gdb 14824	2.6516	2.15264	1.39828	4.6459	66.1	-0.2418	-0.0342	0.2076	896.5859	0.128869	-383.745248	-383.737371	-383.736427	-383.778286	27.725	
O	-0.5926747737	 0.7477164378	 0.7863178661	-0.231216
C	-0.0340018752	 1.1395109154	-0.2074602236	 0.146162
C	 1.1954348241	 2.0034992471	-0.2324154562	-0.119897
C	 0.898105224	 3.4550832443	-0.7515031281	-0.238265
C	 1.0635443696	 3.9869598976	 0.6985318161	-0.221788
C	 1.6469727922	 2.6210227578	 1.130466547	-0.081128
C	 1.1579567809	 2.0274255232	 2.4340216811	 0.154097
O	 0.5505385512	 2.6588078129	 3.2608718332	-0.253387
H	-0.4268384446	 0.8876999078	-1.2193831844	 0.089527
H	 1.9630127144	 1.4727715276	-0.8065628141	 0.100165
H	 1.6680274891	 3.8096758873	-1.4394300474	 0.115488
H	-0.0783403032	 3.6044399767	-1.2199114935	 0.113857
H	 1.7081390033	 4.8578949807	 0.8251638867	 0.110627
H	 0.1140788813	 4.1797120636	 1.2018490139	 0.135864
H	 2.7431790953	 2.6237173573	 1.1810696659	 0.100095
H	 1.4593418214	 0.973776023	 2.6147537673	 0.0798
53.182	110.8901	121.2983	219.4307	231.8172	322.3901	373.1124	588.2563	664.0133	711.4426	759.4493	790.324	899.3301	912.3567	941.7832	954.1268	974.3956	1028.8865	1090.1466	1109.9113	1138.3742	1198.049	1220.704	1225.1951	1264.9604	1268.9879	1329.3269	1344.9453	1413.3934	1420.7766	1484.4355	1500.4942	1814.9825	1825.6938	2871.984	2902.6386	3032.4196	3050.7392	3064.7903	3083.3081	3114.5128	3139.5354
O=CC1CCC1C=O	O=C[C@H]1CC[C@H]1C=O	
InChI=1S/C6H8O2/c7-3-5-1-2-6(5)4-8/h3-6H,1-2H2	InChI=1S/C6H8O2/c7-3-5-1-2-6(5)4-8/h3-6H,1-2H2/t5-,6+
