25
gdb 109928	2.05494	1.29692	1.03462	1.6166	88.54	-0.2365	0.0751	0.3116	1363.2477	0.226462	-389.498059	-389.487221	-389.486276	-389.533522	40.825	
C	-0.1556222881	 1.7289125832	 0.227417254	-0.388773
C	-0.095972724	 0.1978638083	 0.2946196946	-0.198962
C	-1.4398657816	-0.4644084555	 0.0037363796	-0.097083
C	-1.9535800563	-0.6291310852	-1.4567143494	 0.151688
C	-1.0480669324	-0.3083875423	-2.6340573476	-0.406966
O	-2.1086832904	-2.0557320072	-1.2786192097	-0.345418
C	-1.5885221773	-2.0168998227	 0.0816123337	 0.413095
C	-0.3110271526	-2.8448096728	 0.1801614145	-0.427093
C	-2.6417669548	-2.5058133829	 1.0699720855	-0.427235
H	 0.8175201715	 2.1729958602	 0.4585949386	 0.113128
H	-0.4505652326	 2.0776441187	-0.7675525865	 0.120763
H	-0.8828755281	 2.1262587498	 0.9442728877	 0.115495
H	 0.6753030841	-0.1683792462	-0.3911974992	 0.098611
H	 0.2293432163	-0.101973211	 1.2994243492	 0.096839
H	-2.1996101624	 0.0188829955	 0.627302672	 0.066578
H	-2.9324671598	-0.1574583871	-1.6214553124	 0.068433
H	-0.0466219823	-0.7285036869	-2.5061347068	 0.117478
H	-1.4769990106	-0.7405191725	-3.5439045272	 0.125663
H	-0.9587056864	 0.7728604271	-2.7838224406	 0.113317
H	 0.4406742309	-2.5128701555	-0.5394612004	 0.114994
H	 0.1218029093	-2.7923687524	 1.1849027641	 0.1111
H	-0.5407854952	-3.8933097705	-0.0356507217	 0.120515
H	-2.8618595208	-3.5655096961	 0.9034458004	 0.119019
H	-2.2931351376	-2.3875603991	 2.1022250898	 0.109922
H	-3.5719702587	-1.9426384169	 0.9522768976	 0.11489
52.4845	105.3516	165.83	193.8471	213.4264	229.4652	234.8464	273.638	283.4579	306.4716	339.2638	398.0847	418.7134	499.8071	525.664	656.19	741.8064	812.3911	831.4475	865.9411	924.303	931.337	959.7125	991.7634	996.3908	1019.1808	1053.2071	1075.907	1086.6651	1145.7468	1168.6739	1183.3831	1218.1752	1263.1406	1274.5092	1308.4127	1319.6967	1346.2873	1391.0569	1397.1732	1401.0362	1409.5473	1412.2145	1414.648	1471.8747	1480.892	1482.1824	1486.6636	1495.5675	1497.926	1502.0341	1506.235	1509.3401	2993.8964	3023.4311	3028.6178	3032.6008	3035.9382	3037.9879	3043.2307	3068.6235	3097.7118	3100.9122	3103.5232	3106.2737	3107.4273	3111.0465	3116.3283	3124.5969
CCC1C(C)OC1(C)C	CC[C@H]1[C@@H](C)OC1(C)C	
InChI=1S/C8H16O/c1-5-7-6(2)9-8(7,3)4/h6-7H,5H2,1-4H3	InChI=1S/C8H16O/c1-5-7-6(2)9-8(7,3)4/h6-7H,5H2,1-4H3/t6-,7+/m1/s1
