20
gdb 57915	3.16463	1.07239	0.89069	4.6929	77.24	-0.2456	0.0184	0.264	1354.5744	0.170355	-440.303608	-440.293969	-440.293025	-440.338846	34.445	
C	-0.0388028424	 1.6384114485	 0.1969789952	-0.394474
C	-0.0109413808	 0.1055053329	 0.0962946752	 0.051265
O	 0.6772350778	-0.4526969564	 1.1854570582	-0.438386
C	-1.4346644736	-0.4746100416	 0.0859381697	 0.35359
O	-1.858610117	-1.0649264309	 1.0741925973	-0.403134
N	-2.1861848656	-0.2898132015	-1.0165495292	-0.073075
C	-1.8992503482	 0.1046513245	-2.4030432827	-0.173673
C	-3.3005483411	-0.442193879	-2.8005046837	-0.243853
C	-3.5029306049	-0.8610617559	-1.3150855139	-0.162481
H	 0.9853853088	 2.0099071074	 0.2847215398	 0.130912
H	-0.5023944819	 2.1002059402	-0.6805508604	 0.108032
H	-0.5930997283	 1.9446753744	 1.0891680693	 0.128481
H	 0.4994459204	-0.1827854036	-0.8360061807	 0.07811
H	-0.0174694665	-0.886141467	 1.7117145033	 0.290877
H	-1.7571162633	 1.1812269355	-2.542174086	 0.122513
H	-1.0470463115	-0.4223418181	-2.8463898102	 0.123995
H	-3.9955211934	 0.3180102525	-3.157305185	 0.122264
H	-3.2809939845	-1.2691398614	-3.510227663	 0.123286
H	-3.5565605417	-1.9370258205	-1.1230688852	 0.12983
H	-4.324800972	-0.36928956	-0.7861282978	 0.12592
62.0497	75.4327	119.1667	144.1949	151.1019	227.9328	260.6768	348.8999	372.5983	452.9572	503.3929	547.3363	708.9373	759.528	767.2484	844.4825	864.272	914.4911	938.9243	953.7941	1025.9702	1051.5828	1099.6769	1138.2351	1142.8031	1169.796	1189.4473	1203.0478	1230.6441	1271.6639	1280.6086	1298.86	1338.7576	1360.1372	1393.5784	1424.0578	1471.1236	1491.1503	1493.3985	1508.4469	1510.9955	1532.1412	1738.5257	2980.5478	3031.9973	3039.8823	3050.13	3074.5537	3092.4229	3096.6952	3114.1554	3124.754	3151.3127	3638.8721
CC(O)C(=O)N1CCC1	C[C@@H](O)C(=O)N1CCC1	
InChI=1S/C6H11NO2/c1-5(8)6(9)7-3-2-4-7/h5,8H,2-4H2,1H3	InChI=1S/C6H11NO2/c1-5(8)6(9)7-3-2-4-7/h5,8H,2-4H2,1H3/t5-/m1/s1
