20
gdb 126924	6.33855	0.75886	0.68824	2.4397	85.35	-0.1835	0.0302	0.2137	1677.2911	0.17178	-399.34182	-399.332142	-399.331198	-399.377741	34.242	
C	-0.0819545833	 1.5180838835	-0.0132343559	-0.401135
C	-0.0496179891	-0.0039313032	 0.0754010979	-0.106607
N	 0.8313739881	-0.4368594752	 1.1523065513	-0.405771
C	 0.9317194714	-1.8097668735	 1.398611268	 0.228941
C	 1.4457761953	-2.4322250364	 2.5253457424	-0.15842
N	 1.3815361869	-3.774604566	 2.296946883	 0.069131
C	 1.8500547107	-4.8352491256	 3.1598481194	-0.321255
N	 0.868459058	-4.0658226285	 1.0951870389	-0.27042
C	 0.5859929078	-2.8831993536	 0.5431527038	-0.069781
H	 0.9240399889	 1.9190178001	-0.1675711334	 0.129148
H	-0.7177866092	 1.8427314009	-0.8415227117	 0.12068
H	-0.4859470533	 1.9587984655	 0.9059993075	 0.112915
H	-1.0750088807	-0.3969488301	 0.191420675	 0.090126
H	 0.3367193421	-0.4165491319	-0.8645415423	 0.11406
H	 0.6804798354	 0.0971610673	 1.9981351905	 0.22363
H	 1.8406253069	-2.0309914472	 3.4451695043	 0.11434
H	 1.481853466	-4.6886398069	 4.1796633006	 0.133528
H	 1.4615089464	-5.7737067039	 2.7652366505	 0.159006
H	 2.9448551979	-4.8805063192	 3.1816988347	 0.13622
H	 0.1427834538	-2.845059426	-0.4398182847	 0.101666
37.3185	58.3737	80.1312	131.3188	175.0966	255.7055	309.1315	337.0179	344.7999	463.5596	580.7769	635.1986	667.8189	701.9362	732.3443	783.9507	818.679	837.6895	928.5495	1008.1757	1030.6232	1069.3707	1081.0094	1145.6867	1149.7041	1162.3017	1218.0935	1230.8707	1290.8696	1351.547	1379.0396	1402.0072	1411.993	1428.3435	1434.44	1463.0128	1486.3237	1490.3326	1499.9363	1509.0411	1523.9622	1528.8754	1633.0242	2945.7938	3031.1959	3031.9784	3041.3003	3092.7228	3099.8614	3121.1135	3160.4891	3254.391	3254.9518	3560.8504
CCNC1=CN(C)N=C1	CCNc1cn(C)nc1	
InChI=1S/C6H11N3/c1-3-7-6-4-8-9(2)5-6/h4-5,7H,3H2,1-2H3	InChI=1S/C6H11N3/c1-3-7-6-4-8-9(2)5-6/h4-5,7H,3H2,1-2H3
