14
gdb 28844	3.21097	1.51191	1.15714	3.5491	76.04	-0.2413	-0.0688	0.1725	1019.8555	0.103471	-429.073517	-429.06599	-429.065046	-429.105676	28.159	
N	 0.1036140856	 1.1369405675	-0.4888329814	-0.513815
C	-0.0425167517	-0.0978268864	 0.0328427401	 0.454325
N	-1.2409896342	-0.6185586288	 0.0829441561	-0.328367
C	-1.4621004347	-1.9229231285	 0.4004502521	 0.069804
N	-0.7199934442	-2.9777401254	 0.2922716053	-0.284612
C	 0.6124878136	-2.9090314358	-0.0968565511	 0.288576
N	 1.2245479957	-3.7430454477	-0.8411590267	-0.503932
C	 1.4285407119	-1.8349554155	 0.5407560999	 0.015342
N	 1.1461427214	-0.5892564559	 0.5711371853	-0.248251
H	 0.969123118	 1.6287404471	-0.3526144531	 0.278399
H	-0.7165395079	 1.6282508527	-0.800789572	 0.276911
H	-2.4813383288	-2.1051494679	 0.7444958624	 0.120851
H	 0.555593576	-4.4303333897	-1.2008209692	 0.225808
H	 2.3587109694	-2.1496188357	 1.0173616423	 0.148962
69.5719	163.9349	284.6268	292.1303	339.2971	365.1507	382.7931	474.5005	541.7139	580.79	619.1558	748.7548	781.7397	819.5859	861.542	898.8855	936.856	983.6549	1012.569	1020.9897	1076.6742	1289.2807	1334.9533	1381.2284	1422.1888	1448.5758	1553.889	1612.1703	1650.7807	1690.3006	1725.7626	3120.5382	3122.5202	3436.9615	3617.7907	3756.7064
NC1=NC=NC(=N)C=N1	N[C]1[N]C=N[C]([NH])C=N1	
InChI=1S/C4H5N5/c5-3-1-7-4(6)9-2-8-3/h1-2H,(H3,5,6,8,9)	InChI=1S/C4H5N5/c5-3-1-7-4(6)9-2-8-3/h1-2H,(H3,5,6,8,9)
