20
gdb 103559	2.51051	1.22501	1.01283	2.2027	75.52	-0.2477	0.024	0.2717	1252.9311	0.169069	-440.312046	-440.302057	-440.301113	-440.346785	36.829	
C	-0.1407298089	 1.5442459362	-0.1315387305	-0.409762
C	 0.0100967268	 0.0368460505	 0.0203923236	-0.225705
C	 1.1635429949	-0.6127168037	-0.7810148071	 0.440914
O	 1.5455935891	-0.5752960891	-1.9193644813	-0.362003
N	 1.6499068743	-1.2433851873	 0.3470065161	-0.385367
C	 0.709062569	-0.5794649924	 1.2888143805	 0.31711
C	 1.3882937071	 0.3859031782	 2.2549300759	-0.447405
C	-0.145932792	-1.6099343354	 2.0337693172	-0.102417
O	 0.6305809859	-2.440951349	 2.8815540956	-0.420718
H	 0.7992517601	 2.072966039	 0.047096014	 0.125522
H	-0.4590338967	 1.7763481934	-1.1520277203	 0.140805
H	-0.8931626152	 1.9416242223	 0.5568117986	 0.120146
H	-0.9448607626	-0.4578003018	-0.1881746321	 0.097294
H	 2.5903552849	-1.5774053147	 0.5120222317	 0.242529
H	 2.0954708494	 1.0412937036	 1.7406701308	 0.120103
H	 0.6475807591	 1.0098581866	 2.7653524869	 0.124249
H	 1.9276030244	-0.1814252278	 3.018877821	 0.135173
H	-0.8661356865	-1.0977303175	 2.6815321019	 0.11278
H	-0.711412069	-2.2075976263	 1.3042737882	 0.091632
H	 1.143115236	-3.0239296749	 2.3112836894	 0.28512
68.4728	94.0899	172.9093	181.6756	213.5995	235.1927	277.5237	302.5595	341.3037	379.6493	388.1507	463.0434	484.0132	581.7001	671.2209	712.324	781.6923	828.1566	873.7152	927.8866	962.2919	1033.6041	1061.5914	1064.9329	1084.149	1146.1977	1170.6865	1193.08	1207.4653	1262.5604	1285.4844	1349.595	1360.1263	1390.1182	1406.119	1410.5993	1416.9776	1480.4314	1490.6989	1492.659	1501.1258	1507.2816	1889.6247	2998.1472	3040.566	3044.2004	3052.0961	3073.0987	3109.9688	3113.0469	3118.8467	3126.2639	3581.3357	3808.9903
CC1C(=O)NC1(C)CO	C[C@H]1C(=O)N[C@]1(C)CO	
InChI=1S/C6H11NO2/c1-4-5(9)7-6(4,2)3-8/h4,8H,3H2,1-2H3,(H,7,9)	InChI=1S/C6H11NO2/c1-4-5(9)7-6(4,2)3-8/h4,8H,3H2,1-2H3,(H,7,9)/t4-,6+/m0/s1
