18
gdb 106993	2.69207	1.35298	1.10305	3.2155	73.35	-0.2359	0.0097	0.2456	1159.6066	0.146718	-439.070825	-439.061676	-439.060732	-439.105144	32.903	
C	-0.1371155223	 1.3668774906	-0.2380580391	-0.346818
N	-0.1516843527	 0.0185318855	 0.287406213	-0.091926
C	-1.1544053346	-1.0295095043	 0.0773723584	-0.04934
C	-0.8510102736	-1.8224458058	-1.1602736878	-0.350769
C	-0.0584884833	-2.0775608958	 0.1234992749	 0.15149
C	 0.0525876044	-3.3921731659	 0.8387492444	-0.183614
O	 0.3200573485	-3.2328315999	 2.2217406207	-0.416124
C	 0.8993104001	-0.8973099969	 0.3019476664	 0.364045
O	 2.0884601327	-0.7563467696	 0.4198548339	-0.378102
H	 0.881993178	 1.7498032908	-0.1437185438	 0.157934
H	-0.431933694	 1.4026924524	-1.2960326623	 0.120397
H	-0.8079856344	 2.0162786974	 0.3329125456	 0.131734
H	-2.0962735129	-1.0201405934	 0.610034163	 0.121714
H	-1.5558227972	-2.6091278002	-1.4195928491	 0.125704
H	-0.3785016641	-1.3448031415	-2.0139469399	 0.126067
H	-0.8918040405	-3.9428512884	 0.7676997899	 0.113049
H	 0.8231092231	-4.0095109949	 0.3511010029	 0.105757
H	 1.1906630527	-2.8275002901	 2.3024220588	 0.298801
62.1992	97.9089	149.5197	170.0994	201.2463	222.621	262.0711	368.5495	444.094	495.5606	515.9738	614.0175	709.3995	748.5584	816.5655	895.3348	928.0844	955.1231	965.7394	998.7239	1019.3165	1059.7565	1067.5883	1093.3249	1149.4655	1180.8289	1222.9563	1259.4249	1283.1726	1364.9417	1382.0611	1392.4706	1427.547	1445.9205	1484.0602	1485.7384	1496.685	1513.51	1868.9301	2984.3926	3006.5332	3066.7236	3077.8707	3109.9138	3128.5041	3194.7759	3207.4053	3806.5611
CN1C2CC2(CO)C1=O	CN1[C@H]2C[C@@]2(CO)C1=O	
InChI=1S/C6H9NO2/c1-7-4-2-6(4,3-8)5(7)9/h4,8H,2-3H2,1H3	InChI=1S/C6H9NO2/c1-7-4-2-6(4,3-8)5(7)9/h4,8H,2-3H2,1H3/t4-,6-/m0/s1
