12
gdb 130700	5.95863	1.06897	0.90637	3.8998	75.58	-0.2539	-0.0974	0.1565	1165.3399	0.078353	-431.659899	-431.652726	-431.651782	-431.691864	26.596	
O	-0.0045904691	-0.0685181061	 0.0029989344	-0.359199
C	 0.0337118033	 1.1368075567	 0.0086915209	 0.473504
N	-1.1655819015	 1.8824216952	 0.0284177335	-0.259796
N	-1.3106566705	 3.1974247637	 0.0369744925	-0.207956
C	-0.1938883295	 3.8898363713	 0.0255553672	 0.147115
C	 1.0738169202	 3.1959772741	 0.0050856762	-0.027886
N	 1.1980867667	 1.9091860241	-0.0030473247	-0.290105
C	-0.2490791843	 5.3086653298	 0.0334606333	 0.260963
C	-0.2294790215	 6.5116632152	 0.0392473447	-0.382956
H	-2.0270020358	 1.3501283455	 0.0372118109	 0.289885
H	 1.9848727267	 3.7941943067	-0.0040707151	 0.144458
H	-0.2303382545	 7.5741319639	 0.0445436263	 0.211973
72.824	145.1386	204.0477	388.6445	449.4067	458.4302	465.2485	546.4768	554.1705	617.8138	648.635	684.851	754.0523	754.1102	814.2299	838.3305	1004.0232	1006.4835	1119.0544	1263.7687	1283.7475	1418.6373	1429.1053	1536.2064	1651.1333	1831.4853	2235.2019	3136.9152	3499.6551	3581.3498
O=C1NN=C(C=N1)C#C	O=c1[nH]nc(cn1)C#C	
InChI=1S/C5H3N3O/c1-2-4-3-6-5(9)8-7-4/h1,3H,(H,6,8,9)	InChI=1S/C5H3N3O/c1-2-4-3-6-5(9)8-7-4/h1,3H,(H,6,8,9)
