15
gdb 32282	2.65291	1.56825	0.99164	2.9485	71.72	-0.2461	-0.0515	0.1945	1112.6843	0.11424	-454.000289	-453.992666	-453.991722	-454.032744	28.556	
O	 0.4307157117	 0.8036526008	 0.9734131559	-0.428128
C	-0.007176939	 0.2932252209	-0.2552838665	-0.116623
C	-1.3915349419	-0.3053639888	-0.1607946983	 0.220555
N	-1.9953199974	-0.2769191922	 1.0152457317	-0.322747
C	-3.2259686695	-0.8051963922	 1.1150216304	-0.038497
C	-3.8504641245	-1.3663415168	 0.0161683822	-0.03121
N	-3.2570480405	-1.4065864562	-1.1876121762	-0.337012
C	-2.0492056116	-0.883880705	-1.2682629422	 0.384846
O	-1.4095396287	-0.8984929268	-2.4524911179	-0.407519
H	-0.292092078	 0.6384162736	 1.5985778283	 0.292558
H	-0.0165844823	 1.0820283999	-1.0249517676	 0.116696
H	 0.6858997889	-0.4790613397	-0.6266023943	 0.116729
H	-3.7046607154	-0.772309817	 2.0878599835	 0.12162
H	-4.8451193418	-1.795566291	 0.0874764649	 0.124058
H	-2.0039109801	-1.3274006395	-3.0846943837	 0.304677
75.6439	151.5571	201.3942	279.3176	343.211	370.8186	473.9037	516.1144	535.3175	584.8387	593.7696	615.9959	792.35	797.2298	871.0379	910.009	969.7785	1028.9479	1088.6693	1112.7704	1144.9934	1213.0963	1246.1365	1276.6955	1302.6759	1326.2899	1361.576	1469.3568	1479.4702	1490.7951	1507.8524	1600.9349	1635.6365	2975.3438	2985.692	3174.4797	3194.971	3685.8901	3760.8775
OCC1=NC=CN=C1O	OCc1nccnc1O	
InChI=1S/C5H6N2O2/c8-3-4-5(9)7-2-1-6-4/h1-2,8H,3H2,(H,7,9)	InChI=1S/C5H6N2O2/c8-3-4-5(9)7-2-1-6-4/h1-2,8H,3H2,(H,7,9)
