14
gdb 34565	3.89914	1.32765	1.24757	4.4462	68.85	-0.2718	-0.0639	0.2079	993.3003	0.103147	-436.686129	-436.679597	-436.678653	-436.717263	25.314	
N	 0.0863216544	-1.1369465869	 0.0435362485	-0.335196
C	-0.0043123067	 0.0177741873	 0.007695837	 0.193479
C	-0.0629123773	 1.4266088673	-0.0551563314	 0.271728
C	-1.1216446131	 2.2493711047	-0.0096646379	-0.205719
C	-0.5232674232	 3.6454381121	 0.033608612	-0.024534
C	 0.1363714362	 3.7768607907	 1.4459400978	-0.081789
O	 1.2344958646	 2.8623403434	 1.3355998321	-0.260501
C	 1.1504422609	 2.3823858906	-0.0156732385	 0.043947
O	 0.6757578217	 3.4829140938	-0.7462597965	-0.222358
H	-2.1651003629	 1.9959237737	 0.1103658756	 0.142984
H	-1.1215910167	 4.4836878136	-0.3133294913	 0.112459
H	 0.516093016	 4.7905717632	 1.6051917	 0.126262
H	-0.5257424553	 3.4881219531	 2.267267596	 0.119636
H	 2.1201690514	 2.0268705834	-0.3529888032	 0.119602
117.2866	157.6693	296.7938	396.4341	454.489	499.6501	561.9163	638.5846	653.9366	771.5924	827.5381	847.045	869.2303	886.4382	913.3872	918.4832	975.5417	985.6778	1044.5214	1107.4089	1181.2848	1191.7927	1235.7578	1239.4336	1280.4297	1293.6861	1330.9703	1355.9867	1511.4276	1652.247	2338.1137	3049.43	3103.0315	3166.006	3177.8588	3245.3041
N#CC1=CC2COC1O2	N#CC1=C[C@H]2CO[C@@H]1O2	
InChI=1S/C6H5NO2/c7-2-4-1-5-3-8-6(4)9-5/h1,5-6H,3H2	InChI=1S/C6H5NO2/c7-2-4-1-5-3-8-6(4)9-5/h1,5-6H,3H2/t5-,6+/m0/s1
