21
gdb 61051	2.28875	1.28816	0.91219	2.4167	78.7	-0.2487	-0.0291	0.2196	1316.16	0.18014	-424.220402	-424.210387	-424.209443	-424.256152	35.715	
C	-0.0003682265	 1.5312633769	-0.1214109757	-0.417565
C	 0.0749813843	 0.00327273	 0.0442900482	-0.09322
C	 0.7869241318	-0.3314678601	 1.3426433116	 0.16585
O	 1.7051304599	-1.1009566762	 1.460970778	-0.249157
C	-1.3288703524	-0.6150283869	 0.0788092066	-0.041037
C	-2.2282075125	-0.4928825524	-1.1705073489	-0.101963
O	-2.5242823795	-1.8995180204	-1.147859817	-0.287929
C	-1.5399485608	-2.1481780561	-0.109596673	 0.127376
C	-0.3899581876	-3.0018617437	-0.6146679935	-0.410131
H	 0.9983628248	 1.9739667235	-0.1803250211	 0.130847
H	-0.5387376156	 1.7938371732	-1.0365892628	 0.132375
H	-0.5268798232	 1.9946482584	 0.7206854048	 0.123839
H	 0.6591856937	-0.4323178141	-0.7718413748	 0.098679
H	 0.3711184135	 0.2023363039	 2.2320353905	 0.073299
H	-1.8523279097	-0.2602105995	 0.9733466836	 0.082487
H	-3.1290750938	 0.1234935171	-1.0729848559	 0.105394
H	-1.697537324	-0.1995139519	-2.0881839843	 0.096192
H	-2.012264451	-2.6342986235	 0.7534812865	 0.080681
H	 0.0566373103	-2.5751909245	-1.5176498329	 0.1189
H	 0.3920363214	-3.0999897829	 0.1441282569	 0.140593
H	-0.7621431229	-3.999862871	-0.865445427	 0.124491
45.5937	73.5025	95.1777	166.1113	217.253	226.076	244.2401	286.9769	310.8613	397.5196	409.7373	494.7995	538.2781	749.6492	792.3197	884.2783	895.9606	935.3237	953.9547	968.6159	1014.4621	1038.0461	1058.8045	1088.72	1105.9741	1152.8191	1155.5077	1165.1164	1189.5562	1260.4913	1271.5421	1291.8594	1321.8876	1358.1219	1385.4672	1394.9599	1404.9135	1415.0986	1429.994	1484.1422	1496.2615	1497.1029	1500.5379	1526.0329	1831.4835	2836.9171	2991.7498	3017.3395	3034.2669	3039.8226	3041.6404	3058.5421	3072.1744	3104.7453	3113.3221	3113.7029	3122.9808
CC(C=O)C1COC1C	C[C@@H](C=O)[C@H]1CO[C@H]1C	
InChI=1S/C7H12O2/c1-5(3-8)7-4-9-6(7)2/h3,5-7H,4H2,1-2H3	InChI=1S/C7H12O2/c1-5(3-8)7-4-9-6(7)2/h3,5-7H,4H2,1-2H3/t5-,6-,7+/m0/s1
