17
gdb 34532	4.00094	1.18922	1.00873	1.2549	85.09	-0.2177	-0.0224	0.1953	1172.2333	0.136204	-384.644968	-384.637201	-384.636257	-384.67707	30.682	
C	 0.0600132104	-1.2016963591	 0.0717482104	-0.419969
C	-0.0226153923	 0.0002432596	 0.0217010425	 0.231586
C	-0.0452016094	 1.4165923369	-0.0342002602	 0.082942
C	-1.1793364286	 2.1382319799	 0.0285691219	-0.129104
C	-1.1603895429	 3.6111433314	-0.0031891536	-0.116289
C	-0.2853049732	 4.3551332004	 1.0225299039	-0.336184
C	 0.1675698862	 4.2195419572	-0.3967739237	 0.135327
O	 1.2034532548	 3.3836083325	-0.8078101803	-0.252454
C	 1.2957306871	 2.1213108951	-0.1634217109	-0.184635
H	 0.1104293327	-2.26129436	 0.1146301408	 0.193352
H	-2.1373655106	 1.6322972924	 0.0899829275	 0.101702
H	-2.0741273199	 4.1013383706	-0.3198841311	 0.093413
H	-0.6204875761	 5.3317428631	 1.3546532254	 0.120273
H	 0.1766168317	 3.7509239301	 1.7943861308	 0.129389
H	 0.1602266624	 5.1045672861	-1.022862526	 0.109702
H	 1.7699363328	 2.2263218817	 0.8258275172	 0.11058
H	 1.9719201651	 1.5244697621	-0.7809524947	 0.130369
101.1424	149.9397	203.2902	269.6598	401.1181	415.1309	459.234	517.6473	536.4447	571.466	588.7559	644.2205	677.584	755.1629	799.3339	861.8815	877.1614	907.1649	962.1762	1016.5634	1026.8171	1039.1635	1052.9474	1094.666	1118.982	1184.4608	1199.619	1232.36	1271.6026	1338.7288	1373.1038	1381.4255	1421.8313	1476.4286	1503.3491	1678.3744	2215.5814	2969.6835	3092.0453	3138.7682	3165.1178	3178.6198	3184.3138	3229.9294	3503.5716
C#CC1=CC2CC2OC1	C#CC1=C[C@H]2C[C@H]2OC1	
InChI=1S/C8H8O/c1-2-6-3-7-4-8(7)9-5-6/h1,3,7-8H,4-5H2	InChI=1S/C8H8O/c1-2-6-3-7-4-8(7)9-5-6/h1,3,7-8H,4-5H2/t7-,8+/m0/s1
