21
gdb 90943	2.83831	1.71408	1.54582	1.3646	79.78	-0.2207	0.0811	0.3017	985.0867	0.186296	-387.102388	-387.095192	-387.094247	-387.133752	30.048	
C	-0.4361946214	 1.4740816701	 0.0937462754	-0.410629
C	 0.0367852205	 0.0221607845	-0.0234359101	 0.044456
C	 0.8795891107	-0.2218237732	-1.3151418931	-0.246373
C	 2.2909212539	-0.7012535457	-1.0050947579	-0.07505
C	 2.5209463257	-1.6988285932	 0.1248355716	-0.112106
C	 1.3427957585	-1.8544525234	 1.0723730701	-0.243879
C	 0.8771630354	-0.3880049839	 1.199214108	 0.065499
O	 2.0915626317	 0.3804459592	 1.2082764963	-0.267818
C	 2.9386864332	-0.2588142494	 0.2799537474	 0.100593
H	 0.4226164999	 2.1457938988	 0.1840100646	 0.13235
H	-1.0164955931	 1.7719924707	-0.7855336111	 0.107291
H	-1.0692575531	 1.6156049109	 0.9771150484	 0.105458
H	-0.8460286762	-0.6291507205	-0.0421007602	 0.066449
H	 0.382155294	-0.950313228	-1.9654642164	 0.098886
H	 0.9401803391	 0.7079194286	-1.8927481759	 0.101924
H	 2.9495628918	-0.8030841453	-1.8628726436	 0.079951
H	 3.2377825097	-2.502339085	 0.0073689735	 0.083061
H	 0.5439636486	-2.5000637877	 0.6945379304	 0.099026
H	 1.678723598	-2.2502463066	 2.0364020607	 0.102532
H	 0.3500156139	-0.1702847135	 2.1318900983	 0.073139
H	 3.961359759	 0.0925493026	 0.3381341437	 0.095237
91.7472	240.6227	269.9479	326.7951	378.2539	428.7454	471.6251	579.1017	654.105	686.0351	751.0441	772.985	786.6105	849.5796	890.7465	914.6464	929.3336	943.9117	979.7182	1006.8498	1015.2145	1035.5874	1051.219	1077.8536	1091.2437	1109.354	1128.5679	1141.9208	1170.1425	1202.6919	1260.1124	1263.8381	1280.9607	1317.2303	1321.6949	1333.1767	1349.4225	1374.1182	1388.2255	1407.7768	1433.759	1491.5552	1495.3817	1500.5668	1505.8069	3015.2462	3027.7232	3031.4221	3044.7918	3060.558	3077.4463	3089.8197	3094.1946	3114.1838	3145.3237	3180.2782	3193.8801
CC1CC2C3CC1OC23	C[C@H]1C[C@@H]2[C@@H]3C[C@H]1O[C@H]23	
InChI=1S/C8H12O/c1-4-2-5-6-3-7(4)9-8(5)6/h4-8H,2-3H2,1H3	InChI=1S/C8H12O/c1-4-2-5-6-3-7(4)9-8(5)6/h4-8H,2-3H2,1H3/t4-,5+,6-,7+,8+/m0/s1
