19
gdb 96707	2.57907	1.02494	0.82346	3.4365	81.33	-0.2727	-0.0454	0.2273	1464.7621	0.156365	-419.228535	-419.218038	-419.217093	-419.264376	36.671	
C	 0.0622584769	 1.5218826816	 0.1262219016	-0.344932
N	 0.0583156687	 0.0739403971	 0.1120681174	-0.300729
C	 0.492581876	-0.5763452039	-0.8806687199	 0.339881
O	 0.5038140146	-1.9128020331	-0.9764439048	-0.267804
C	-0.0356812998	-2.6818056469	 0.1370665653	 0.145555
C	-0.4693682176	-4.0116675045	-0.4608384305	-0.393731
C	 1.0212964974	-2.8209377693	 1.2269990759	-0.397052
C	 1.0477819839	 0.0156667644	-2.0922629858	 0.25197
N	 1.4798721041	 0.5398961446	-3.0273505758	-0.331929
H	 0.6439225243	 1.8670955742	 0.9879118206	 0.139423
H	 0.4691093679	 1.9855349924	-0.7816380786	 0.137302
H	-0.9634071039	 1.8777471914	 0.2724864463	 0.14005
H	-0.8970844171	-2.1315506843	 0.525979322	 0.112403
H	 0.3868210551	-4.5411964631	-0.8895908008	 0.130723
H	-0.9111572086	-4.642191315	 0.3161425609	 0.122971
H	-1.2118409461	-3.8607266881	-1.2486000554	 0.128772
H	 1.3024453944	-1.8425637715	 1.621121384	 0.139332
H	 0.625394674	-3.4216456316	 2.0516742743	 0.121978
H	 1.9133848057	-3.3191121643	 0.8349644533	 0.125818
65.001	80.7188	133.0644	138.5817	175.1607	211.7957	243.3823	253.5394	304.9283	325.3893	364.2737	415.1849	461.9663	529.4662	644.8455	725.0646	787.979	847.2324	935.4243	940.9084	950.5716	1092.9369	1134.7739	1139.4017	1160.7242	1165.0424	1206.0837	1293.5471	1362.519	1384.1782	1402.0413	1419.1195	1447.5422	1480.8174	1485.3275	1485.6918	1495.5294	1502.9183	1511.3025	1730.8278	2351.0046	3011.4099	3043.757	3047.7153	3074.8706	3083.6192	3086.954	3113.7477	3123.8672	3125.8095	3138.8365
CN=C(OC(C)C)C#N	CN=C(OC(C)C)C#N	
InChI=1S/C6H10N2O/c1-5(2)9-6(4-7)8-3/h5H,1-3H3	InChI=1S/C6H10N2O/c1-5(2)9-6(4-7)8-3/h5H,1-3H3
