19
gdb 77875	2.0581	1.65391	1.26806	2.0827	76.73	-0.2268	-0.0149	0.2119	1102.7073	0.157013	-423.02011	-423.010587	-423.009643	-423.054084	34.986	
C	-0.0424961041	 1.5818751826	 0.088793885	-0.412892
C	 0.1195658188	 0.0739731597	 0.0700448135	-0.047847
C	 1.3690483307	-0.6858646306	-0.2348387166	-0.139003
C	 2.6146801652	-0.0195028261	 0.3347838762	 0.002197
O	 3.0201369404	 1.1891809929	-0.2641519851	-0.426109
C	 1.921341951	-0.045419719	 1.7300173237	 0.310045
O	 2.303326531	 0.2398207003	 2.8327794097	-0.327233
C	 0.7198467751	-0.7653209945	 1.1967566222	 0.18555
C	-0.0261293686	-1.8589260669	 1.9071993649	-0.497177
H	 0.8545547172	 2.0891459335	 0.4437028601	 0.141064
H	-0.249672712	 1.9508726668	-0.9214816258	 0.121247
H	-0.8844048123	 1.8661519154	 0.7291633641	 0.115647
H	-0.7576546984	-0.435118126	-0.329543931	 0.093777
H	 1.393990927	-1.4822961036	-0.9683914604	 0.099389
H	 3.4472424737	-0.7414077574	 0.3800928112	 0.095773
H	 3.7176093894	 1.5657991927	 0.2842056106	 0.294244
H	-0.6256642663	-1.4482474371	 2.7267761798	 0.139446
H	-0.7058504372	-2.3806505592	 1.2263984715	 0.122455
H	 0.6593499292	-2.5959282835	 2.3380332564	 0.129428
91.6513	149.5645	158.506	188.5463	196.5042	215.4332	239.0427	289.3515	360.8425	378.29	497.9768	572.2118	637.6873	651.4685	718.2081	813.1164	831.1402	886.6811	952.5183	962.4002	987.24	1037.5093	1069.0933	1085.2546	1122.1498	1139.9702	1157.037	1193.0708	1253.8826	1294.9546	1312.2616	1348.2123	1407.0816	1414.3459	1420.2498	1459.5732	1483.5718	1486.4712	1495.4944	1503.0761	1869.3904	2968.525	3032.4523	3037.8522	3094.9531	3096.2847	3104.2817	3107.8043	3150.4145	3191.6076	3805.5636
CC1C2C(O)C(=O)C12C	C[C@H]1[C@H]2[C@@H](O)C(=O)[C@@]12C	
InChI=1S/C7H10O2/c1-3-4-5(8)6(9)7(3,4)2/h3-5,8H,1-2H3	InChI=1S/C7H10O2/c1-3-4-5(8)6(9)7(3,4)2/h3-5,8H,1-2H3/t3-,4-,5+,7-/m0/s1
