20
gdb 19524	3.70892	1.53366	1.43816	1.4218	74.28	-0.2319	0.0863	0.3182	995.561	0.178452	-348.995266	-348.987409	-348.986465	-349.027805	29.687	
C	 0.1797365588	 1.476123252	-0.1357381603	-0.375597
C	-0.1999034703	 0.0100860686	 0.1062739028	-0.194684
C	 0.5762323491	-0.5942917934	 1.2561934916	-0.026741
C	 0.7502637741	-2.0913542332	 1.4826877069	-0.1111
C	 0.4917864695	-3.0544069154	 0.3228804015	-0.256795
C	 1.7488951738	-2.8751666333	-0.5565026218	-0.0595
O	 2.2698924848	-1.5747816747	-0.2613796998	-0.258721
C	 1.9230228627	-1.2470832164	 1.0613263366	 0.077785
H	 1.2410065609	 1.5627033524	-0.3886459046	 0.127911
H	-0.4008316775	 1.9051344268	-0.9584520669	 0.107695
H	-0.0028998513	 2.0872695679	 0.7553249297	 0.109148
H	-1.2755570343	-0.0659374207	 0.3120236667	 0.091674
H	-0.0144835171	-0.5596768367	-0.808858858	 0.105141
H	 0.4912972144	-0.0295517353	 2.1838003372	 0.078081
H	 0.6631806598	-2.4679121606	 2.4950643373	 0.08692
H	 0.3948255185	-4.0835040304	 0.6789526535	 0.103391
H	-0.4226103154	-2.811325998	-0.2272216292	 0.108452
H	 2.5016062021	-3.6418774407	-0.3174089459	 0.093145
H	 1.5466027962	-2.9156769631	-1.6308948004	 0.105881
H	 2.7685344012	-1.021947966	 1.7049904632	 0.087916
62.4908	123.0482	170.2471	216.8367	272.5577	296.6837	496.224	564.6138	645.9844	725.131	756.6622	775.3051	806.9491	857.9356	895.1603	939.6657	967.4625	985.4818	1006.2228	1023.5887	1062.3037	1082.3737	1105.1108	1129.5896	1142.3441	1156.5141	1221.9791	1224.3152	1245.0511	1298.9023	1304.7022	1319.0753	1332.83	1374.0354	1394.8218	1407.661	1437.8387	1483.3092	1497.5161	1499.3547	1506.2872	1520.9292	2986.4643	3023.7384	3031.5643	3052.4388	3077.599	3081.2253	3098.3578	3100.6335	3109.5441	3115.4047	3144.2508	3174.8757
CCC1C2CCOC12	CC[C@H]1[C@H]2CCO[C@@H]12	
InChI=1S/C7H12O/c1-2-5-6-3-4-8-7(5)6/h5-7H,2-4H2,1H3	InChI=1S/C7H12O/c1-2-5-6-3-4-8-7(5)6/h5-7H,2-4H2,1H3/t5-,6+,7-/m0/s1
