18
gdb 12795	3.64896	2.02176	1.57415	1.7362	72.42	-0.2357	0.0037	0.2394	867.0639	0.154728	-347.811238	-347.804042	-347.803098	-347.842132	28.533	
C	-0.0145225787	 1.5141137597	 0.0194200364	-0.469302
C	-0.0130704033	 0.0039954273	 0.0568264137	 0.402832
C	-1.1993666619	-0.689617287	-0.5916797678	-0.275927
C	-1.0806214996	-2.2259802925	-0.5834130602	-0.26336
C	-0.6455339233	-2.7580347972	 0.7573444238	-0.084345
C	 0.1619191518	-2.0594109152	 1.5571538004	-0.035633
C	 0.6628212698	-0.7228708773	 1.1515669643	-0.050115
O	 1.2587427057	-0.6120498408	-0.1671935515	-0.297618
H	 0.8651742318	 1.9138982495	 0.5299678232	 0.126557
H	 0.0004474707	 1.8726568437	-1.0160029645	 0.12401
H	-0.9124248595	 1.9172970144	 0.4999487874	 0.120206
H	-2.1014405974	-0.3848711105	-0.0447400285	 0.104963
H	-1.3213848294	-0.3316496768	-1.6207648411	 0.102747
H	-2.0375512539	-2.6689947467	-0.8790223873	 0.099415
H	-0.3510621538	-2.5324190657	-1.3431418966	 0.132015
H	-0.991025687	-3.7445100024	 1.0536956409	 0.093209
H	 0.4772474416	-2.4466333841	 2.5211436214	 0.087291
H	 1.1898541564	-0.1442112782	 1.9085262563	 0.083055
167.9976	188.9505	220.6747	300.9162	368.862	383.3054	462.7413	492.8915	604.7432	673.2232	707.2706	756.5344	816.5867	870.8002	893.0294	942.4142	974.3556	982.2904	1010.6894	1039.2774	1055.1121	1095.5265	1113.8703	1184.1561	1217.6472	1228.2723	1273.0585	1329.857	1349.3307	1380.7765	1411.5824	1418.296	1454.1896	1470.2841	1480.9476	1488.5272	1502.5129	1707.6431	3020.535	3031.0303	3033.4439	3060.2997	3072.1161	3095.3745	3119.7722	3122.607	3159.7359	3183.8497
CC12CCC=CC1O2	C[C@]12CCC=C[C@H]1O2	
InChI=1S/C7H10O/c1-7-5-3-2-4-6(7)8-7/h2,4,6H,3,5H2,1H3	InChI=1S/C7H10O/c1-7-5-3-2-4-6(7)8-7/h2,4,6H,3,5H2,1H3/t6-,7+/m1/s1
