14
gdb 123332	4.65359	1.08812	0.88665	3.0072	74.45	-0.2394	-0.0749	0.1646	1216.5686	0.101083	-395.703096	-395.695432	-395.694488	-395.736535	27.763	
C	-0.6745783215	-0.5438130679	-1.1801734076	-0.429311
C	-0.2209150574	 0.1632046809	-0.3215880059	 0.299098
C	 0.32444589	 1.018594327	 0.7231933725	-0.458479
C	 1.5912719586	 1.7693001669	 0.3589723538	 0.320266
C	 2.2269654026	 1.6788543948	-0.8839517279	-0.015247
N	 3.3377422826	 2.3575551139	-1.1576402099	-0.173352
N	 3.8533192061	 3.1435991003	-0.2161857036	-0.184057
C	 3.2188648274	 3.2029068641	 0.9540928254	 0.098712
N	 2.1048482111	 2.5540963683	 1.3008760355	-0.286052
H	-1.08137013	-1.1709393315	-1.9349275927	 0.208777
H	-0.4217999223	 1.7607781121	 1.0348518853	 0.168718
H	 0.5366804836	 0.4294609643	 1.6246774965	 0.168716
H	 1.8373923334	 1.0494378873	-1.6759473793	 0.143199
H	 3.6668757858	 3.8539214397	 1.6996048179	 0.139013
24.1235	128.0661	168.9054	316.7673	322.4326	370.0658	442.3759	478.3606	623.5504	633.3625	667.2186	695.3898	796.2633	846.8475	901.781	978.2366	985.7502	1002.7011	1036.2188	1078.4896	1153.5724	1219.5442	1240.4006	1296.2316	1316.6576	1354.2157	1442.7647	1481.8394	1556.9127	1592.5068	2245.8008	3028.2153	3055.702	3181.3255	3204.9286	3502.8599
C#CCC1=CN=NC=N1	C#CCc1cnncn1	
InChI=1S/C6H5N3/c1-2-3-6-4-8-9-5-7-6/h1,4-5H,3H2	InChI=1S/C6H5N3/c1-2-3-6-4-8-9-5-7-6/h1,4-5H,3H2
