19
gdb 81029	2.48364	1.75406	1.35351	0.4875	70.44	-0.2418	0.0763	0.3181	1009.8816	0.159525	-460.143035	-460.134941	-460.133997	-460.17514	31.935	
C	-0.0084560471	 1.5361883127	 0.0728614765	-0.47185
C	-0.0731629956	 0.0336302623	-0.0272028153	 0.303062
C	 0.8369420548	-0.5799998669	-1.0935399186	-0.098992
O	 0.5463581879	-1.9608252588	-1.2873823208	-0.270276
C	 0.1871219927	-2.6511717468	-0.0951526624	-0.0799
C	-0.6205156175	-1.7334878988	 0.8098305884	 0.011152
O	 0.2600986585	-0.6481624176	 1.2380752932	-0.354647
C	-1.4405071659	-0.7164376307	-0.0142215252	 0.143381
O	-2.460535405	-0.0716406603	 0.7025825325	-0.456303
H	 0.997201067	 1.8567442774	 0.3631162993	 0.131258
H	-0.2552362469	 1.9973034136	-0.8885225285	 0.126894
H	-0.7168867728	 1.9054930717	 0.8179262354	 0.121957
H	 0.6904198729	-0.1022713288	-2.0681307	 0.108509
H	 1.8826233499	-0.433654631	-0.7811829685	 0.101113
H	-0.3940270877	-3.5248078907	-0.4098715168	 0.111231
H	 1.0777732599	-2.9965069764	 0.4517917018	 0.103746
H	-1.1011690383	-2.245793399	 1.6484059887	 0.080915
H	-1.8606280976	-1.0348124747	-0.9689601715	 0.100941
H	-2.1025839792	 0.1524270329	 1.5704203917	 0.287812
147.5062	182.2636	220.2712	242.7928	275.2618	339.7944	395.028	422.5217	453.7245	490.5477	546.2523	666.6929	723.935	832.5178	858.303	884.1539	908.0221	920.8608	980.6457	995.6991	1009.8778	1037.6725	1123.8203	1135.8762	1149.2287	1191.8354	1212.9471	1237.9356	1253.0283	1268.2982	1287.3731	1318.9967	1340.9528	1372.4318	1408.2879	1413.665	1443.4774	1481.5942	1485.6476	1486.4771	1495.2684	2986.1553	2993.7764	3043.6193	3069.0976	3072.0431	3078.0688	3112.6942	3115.072	3126.9951	3784.5576
CC12COCC(O1)C2O	C[C@@]12COC[C@@H](O1)[C@H]2O	
InChI=1S/C6H10O3/c1-6-3-8-2-4(9-6)5(6)7/h4-5,7H,2-3H2,1H3	InChI=1S/C6H10O3/c1-6-3-8-2-4(9-6)5(6)7/h4-5,7H,2-3H2,1H3/t4-,5-,6+/m1/s1
