18
gdb 44964	2.55564	1.79885	1.58634	4.2841	70.53	-0.2304	0.0155	0.2459	929.2883	0.151728	-439.129284	-439.12239	-439.121446	-439.160325	28.237	
O	-0.012538839	-0.035617838	-0.0371225194	-0.378031
C	-0.0094368631	 1.1728306221	-0.0524965145	 0.375879
N	-1.1062877182	 2.0032081089	-0.0942595708	-0.288614
C	-0.7363875571	 3.4131180646	 0.0800458288	-0.012946
C	 0.6464544472	 3.4094742415	-0.6048462424	-0.22616
C	 1.2082461912	 2.1357871183	 0.0309348928	 0.011617
O	 1.5376072882	 2.3976812834	 1.3962928167	-0.273968
C	 0.4188539973	 2.7381183615	 2.214462255	-0.068807
C	-0.5288954133	 3.7677443607	 1.5674570368	-0.226528
H	-2.026382011	 1.6394437969	 0.102491855	 0.249282
H	-1.4673379659	 4.0678755411	-0.3995759303	 0.082989
H	 0.5444473577	 3.3057647478	-1.6887792027	 0.111097
H	 1.2493454144	 4.2887270851	-0.3713503663	 0.109961
H	 2.1000323553	 1.7139106767	-0.4303432545	 0.10045
H	-0.1470969787	 1.8286356039	 2.4630643987	 0.110786
H	 0.8402352179	 3.1246445537	 3.145805651	 0.114119
H	-0.1128845801	 4.7792810591	 1.6347780881	 0.10919
H	-1.4792873628	 3.7681724527	 2.1137733379	 0.099684
128.7744	242.9316	288.2598	373.6164	419.8447	462.2184	480.2768	497.5393	591.5761	679.3708	743.3233	791.1445	821.2232	845.5373	864.1879	903.9783	943.7875	984.7475	1007.1047	1035.6185	1066.9377	1082.4569	1104.8508	1176.0765	1191.2959	1244.136	1248.5389	1282.1802	1300.7967	1332.6239	1336.0044	1357.6916	1381.6058	1411.1292	1420.3912	1473.0798	1489.7947	1508.7918	1843.2639	2999.7659	3034.8161	3064.1617	3077.8794	3084.0471	3096.4138	3127.1273	3133.1695	3626.9208
O=C1NC2CC1OCC2	O=C1N[C@@H]2C[C@H]1OCC2	
InChI=1S/C6H9NO2/c8-6-5-3-4(7-6)1-2-9-5/h4-5H,1-3H2,(H,7,8)	InChI=1S/C6H9NO2/c8-6-5-3-4(7-6)1-2-9-5/h4-5H,1-3H2,(H,7,8)/t4-,5+/m0/s1
