19
gdb 41639	3.47315	1.89268	1.56541	0.8814	83.84	-0.2071	0.0036	0.2107	899.0074	0.162304	-348.674759	-348.668544	-348.6676	-348.70477	27.58	
C	-0.131928232	 1.5130816898	 0.0481938807	-0.246096
C	 1.2553487958	 2.2499090399	-0.0182194589	-0.227975
C	 2.1756253833	 1.6240573332	-1.1027313594	 0.02214
C	 3.2154885753	 0.4753748589	-0.8688700914	-0.085884
C	 2.7903127453	-0.2502506561	-2.124619667	-0.093361
C	 2.4420100763	-0.8962591067	-0.8138005064	-0.144255
C	 1.0460354526	-0.3550635133	-0.8192074837	 0.217582
C	 0.2071790533	 0.0401694379	 0.1381294868	-0.167806
C	 1.4547216442	 0.5593160737	-1.9816788197	-0.154638
H	-0.7157942073	 1.8603210145	 0.9044872948	 0.094985
H	-0.7096257581	 1.7582831941	-0.8507802341	 0.10872
H	 1.0994890653	 3.3130979128	-0.2363888529	 0.089705
H	 1.7288225683	 2.1991498741	 0.9684874638	 0.100294
H	 2.6603037639	 2.3994747814	-1.7044568376	 0.06824
H	 4.2142758444	 0.5553373697	-0.4547208609	 0.082421
H	 3.3538409464	-0.5917932672	-2.9805397979	 0.089526
H	 2.8907539204	-1.7466903021	-0.3165982318	 0.087363
H	 0.1210584962	-0.4811387498	 1.0874546754	 0.084508
H	 0.7663316064	 0.8299773853	-2.7792100499	 0.074531
223.5829	284.2529	363.3434	450.4453	491.4397	585.9745	617.4979	687.0136	714.2878	793.9382	797.8266	813.7523	820.1489	844.4399	869.297	894.9161	915.1387	928.151	978.071	988.5809	1019.3585	1023.7965	1031.8161	1049.2868	1069.5984	1089.0994	1118.5296	1167.5254	1178.2268	1193.1155	1221.7392	1240.9655	1264.7456	1303.7864	1316.7802	1332.5979	1351.5122	1355.2921	1480.8464	1488.7705	1706.4547	3027.6514	3034.6292	3053.5285	3072.7654	3094.9083	3137.2593	3162.1144	3176.1282	3196.5557	3221.6969
C1CC2C3C4C3C(=C1)C24	C1C[C@H]2[C@@H]3[C@H]4[C@@H]3[C]([CH]1)[C@@H]24	
InChI=1S/C9H10/c1-2-4-6-5(3-1)8-7(4)9(6)8/h2,5-9H,1,3H2	InChI=1S/C9H10/c1-2-4-6-5(3-1)8-7(4)9(6)8/h2,5-9H,1,3H2/t5-,6+,7-,8+,9-/m1/s1
