13
gdb 48004	3.24188	0.74158	0.63609	1.9929	73.1	-0.2767	-0.0857	0.191	1633.8599	0.085336	-456.512051	-456.503089	-456.502145	-456.547708	29.534	
O	-0.2328748657	 0.2324685533	 0.7414869557	-0.217914
C	 0.1064579406	 0.955042317	-0.1654476007	 0.022659
C	 1.2724319912	 1.8055225291	-0.1267755054	 0.087874
C	 2.2393852907	 2.529544316	-0.1263862239	 0.112402
C	 3.4218392065	 3.3418261724	-0.0766939691	-0.163333
O	 3.8433107956	 3.991903333	-1.2734202247	-0.214702
C	 3.3849664553	 4.8292138972	-0.2163752823	-0.040466
C	 2.0853076026	 5.5349103669	-0.4606371993	 0.148141
O	 1.7994562719	 6.5746687733	 0.0711494036	-0.232309
H	-0.4663858611	 1.016309507	-1.1118429569	 0.112366
H	 4.2340299716	 2.9411669488	 0.5288850664	 0.146163
H	 4.1433672735	 5.4074546924	 0.309170079	 0.133635
H	 1.4181629774	 5.0183667937	-1.1815159625	 0.105483
41.5624	68.0048	97.0966	127.1071	196.0954	232.5301	322.692	341.3939	469.8726	493.8698	570.9695	633.2437	794.509	864.6304	877.9474	996.2192	1018.2278	1026.5785	1096.4117	1143.7505	1163.0201	1258.3887	1330.7765	1388.2741	1419.5866	1432.6111	1769.6158	1832.4166	2325.6934	2927.5913	2933.7945	3121.5989	3142.1315
O=CC#CC1OC1C=O	O=CC#C[C@H]1O[C@H]1C=O	
InChI=1S/C6H4O3/c7-3-1-2-5-6(4-8)9-5/h3-6H	InChI=1S/C6H4O3/c7-3-1-2-5-6(4-8)9-5/h3-6H/t5-,6+/m1/s1
