13
gdb 11165	4.13255	1.63407	1.43368	1.8403	60.53	-0.2735	0.0095	0.283	868.2547	0.095135	-398.56678	-398.55974	-398.558796	-398.598435	25.679	
N	-0.0401500666	 1.2859504493	-0.0079702693	-0.529062
C	-0.0297854736	 0.0292119255	-0.0430560685	 0.392975
C	-1.2329907003	-0.8819824413	-0.159869257	-0.175362
O	-0.6675578919	-2.1476889164	-0.4826481842	-0.2297
C	 0.6345503589	-2.1401219097	 0.0510513057	-0.02332
O	 1.0777037913	-0.7759296913	 0.0081440522	-0.2205
C	 0.6879018188	-2.6500292856	 1.4273612332	 0.354147
C	 0.7254796241	-3.0859252521	 2.5455736674	-0.441937
H	 0.9035450675	 1.6610184932	 0.0953419379	 0.232957
H	-1.7865195249	-0.9127388177	 0.7883647685	 0.139458
H	-1.9064983525	-0.5775045753	-0.96162815	 0.153514
H	 1.2797267496	-2.7271346746	-0.6086384759	 0.134325
H	 0.7611251996	-3.470705974	 3.5355720999	 0.212506
78.94	122.7314	205.532	268.0046	425.5779	503.2904	529.8448	552.3137	671.5482	675.7195	683.7927	803.8615	869.1111	890.4107	941.6342	964.2274	1013.9569	1029.4741	1057.472	1146.9616	1212.1964	1273.5967	1341.0823	1361.7262	1378.1783	1495.2476	1804.6412	2240.5533	3023.4419	3080.0275	3130.178	3484.995	3499.2055
N=C1COC(O1)C#C	[NH][C]1CO[C@@H](O1)C#C	
InChI=1S/C5H5NO2/c1-2-5-7-3-4(6)8-5/h1,5-6H,3H2	InChI=1S/C5H5NO2/c1-2-5-7-3-4(6)8-5/h1,5-6H,3H2/t5-/m0/s1
