21
gdb 97859	5.43375	0.60891	0.58129	1.593	88.79	-0.239	0.0541	0.2931	1981.1259	0.182859	-387.074892	-387.064974	-387.064029	-387.112866	34.572	
C	-0.6564160798	 1.5976284999	-0.221836494	-0.36311
C	 0.0695069118	 0.2874493498	 0.1347014721	-0.314831
C	 0.8412447043	-0.2600838093	-0.9767794655	 0.092242
C	 1.4692492645	-0.688290972	-1.9121594353	 0.031159
C	 2.2273600293	-1.2326359054	-3.0270779408	-0.159911
C	 3.7701533387	-1.2586157704	-2.8274535871	-0.247277
C	 4.2112750137	-2.5387861561	-3.5827663057	-0.077339
O	 3.0352912388	-3.1244512511	-4.1374555671	-0.24421
C	 1.9435060963	-2.7194531673	-3.3375418356	-0.085554
H	 0.058517238	 2.367411706	-0.5248409305	 0.127218
H	-1.354164895	 1.442201229	-1.0491750826	 0.127541
H	-1.2195267148	 1.9692912631	 0.6395372822	 0.113367
H	 0.7343670266	 0.459566344	 0.9911263017	 0.126874
H	-0.6640702386	-0.4569197792	 0.4707207855	 0.127578
H	 2.0020194524	-0.6619255816	-3.9360680483	 0.104833
H	 4.2408406982	-0.3545432116	-3.2185886226	 0.113443
H	 4.0094544421	-1.3248611492	-1.7637999798	 0.115935
H	 4.8988020167	-2.3385744267	-4.4096271046	 0.108881
H	 4.7012420969	-3.2451321119	-2.8966545443	 0.095224
H	 1.885882648	-3.295211148	-2.3993303538	 0.0926
H	 1.0241235418	-2.8785076623	-3.905621914	 0.115337
12.0457	32.5039	86.8597	95.4635	170.1698	213.2099	260.6278	319.3156	444.	487.1382	510.3502	551.3521	693.3885	785.5656	791.4065	823.7607	889.7611	936.2097	965.812	974.2219	997.0924	1060.4183	1079.4899	1099.6062	1105.0304	1134.2354	1183.1771	1226.6079	1228.3106	1269.8722	1285.2548	1286.3434	1302.8877	1331.0286	1350.3055	1370.4694	1402.0506	1408.1956	1476.2212	1494.3243	1498.7205	1505.7978	1510.1548	1529.3437	2363.9492	2973.7934	2994.3434	3017.6661	3030.5947	3043.783	3043.9302	3074.263	3077.3838	3104.6522	3116.8608	3123.1721	3123.3255
CCC#CC1CCOC1	CCC#C[C@H]1CCOC1	
InChI=1S/C8H12O/c1-2-3-4-8-5-6-9-7-8/h8H,2,5-7H2,1H3	InChI=1S/C8H12O/c1-2-3-4-8-5-6-9-7-8/h8H,2,5-7H2,1H3/t8-/m0/s1
