19
gdb 111708	2.93311	1.16721	0.97354	4.8666	81.48	-0.2532	-0.0008	0.2524	1271.6882	0.15969	-382.042918	-382.034156	-382.033212	-382.076577	32.665	
C	 0.1641674329	 1.4504611054	 0.1688888336	-0.376486
C	-0.2807418208	 0.0066415868	-0.1009375132	-0.227418
C	 0.4703852941	-0.6068093281	-1.2627744632	-0.014291
N	 1.8764367446	-1.0501533873	-1.240779057	-0.170913
C	 2.1319319947	-1.717322585	 0.0901920206	-0.157124
C	 1.0432031903	-2.7897056806	-0.1461036319	-0.313106
C	 0.7329112253	-2.0595782002	-1.458234251	 0.17066
C	 0.4986466249	-2.7220568585	-2.7064031072	 0.211536
N	 0.2804173429	-3.2779029179	-3.6978050309	-0.340108
H	 1.2240546816	 1.4956751335	 0.4379986863	 0.130211
H	 0.0224752164	 2.07824356	-0.7167955159	 0.126592
H	-0.4129958695	 1.8895513367	 0.9874988193	 0.120493
H	-0.1745839483	-0.5933016875	 0.807005449	 0.106811
H	-1.348120502	-0.0114784416	-0.3523674101	 0.116617
H	 0.2872993429	-0.0872218261	-2.2025239849	 0.117198
H	 3.145523385	-2.1192928024	 0.0946465245	 0.127244
H	 2.0105991126	-1.053949193	 0.950223963	 0.116714
H	 1.4597759209	-3.78264049	-0.3158925491	 0.136717
H	 0.2191285215	-2.8682486242	 0.5672397381	 0.118653
71.0927	129.0799	144.663	204.1899	206.8622	288.0988	312.7418	405.3535	497.8641	536.7166	574.658	618.9429	710.2753	790.3903	795.4988	814.0277	861.7133	930.4644	959.3569	974.3914	1022.0217	1068.9528	1114.4767	1127.7245	1137.0501	1187.921	1218.4341	1226.7984	1264.9864	1291.6317	1311.9083	1319.6659	1347.5918	1412.2127	1453.6558	1479.4955	1492.0988	1496.9917	1506.0251	1517.5656	2344.774	3039.3253	3042.0217	3069.2266	3074.1428	3085.7983	3110.7809	3115.0208	3123.197	3126.1715	3141.7924
CCC1N2CCC12C#N	CC[C@H]1N2CC[C@@]12C#N	
InChI=1S/C7H10N2/c1-2-6-7(5-8)3-4-9(6)7/h6H,2-4H2,1H3	InChI=1S/C7H10N2/c1-2-6-7(5-8)3-4-9(6)7/h6H,2-4H2,1H3/t6-,7-,9?/m1/s1
