21
gdb 60896	2.56004	1.29079	1.04307	2.3924	82.76	-0.2473	-0.025	0.2223	1240.4328	0.181208	-387.073261	-387.063971	-387.063027	-387.108123	34.455	
C	-0.0291645214	 1.5744569576	 0.2521185116	-0.414068
C	-0.004529818	 0.0480054128	 0.069844497	-0.171771
C	 0.7791226399	-0.6112783544	 1.1940753855	 0.1527
O	 1.4696583348	-1.5889915494	 1.065582412	-0.254261
C	-1.4077978071	-0.5248966605	-0.0038485012	 0.384737
C	-2.2263097075	-0.9589868348	 1.1860535424	-0.334486
C	-1.9154107416	-1.9649372401	 0.1079943466	-0.104403
C	-2.8541188438	-1.7538957632	-1.0839110597	-0.222515
C	-2.3517541762	-0.2764730506	-1.195149336	-0.298223
H	 0.9818999734	 1.9940072021	 0.243964243	 0.121221
H	-0.596635803	 2.0498365685	-0.5527726719	 0.129146
H	-0.5045257171	 1.8466264371	 1.2006777832	 0.124526
H	 0.5173180439	-0.2103285506	-0.8601095944	 0.094736
H	 0.6632372795	-0.1215201471	 2.1901689194	 0.072285
H	-1.6857981682	-1.0985638081	 2.1169818559	 0.113391
H	-3.2421249082	-0.5917566401	 1.3205779592	 0.102342
H	-1.3507904476	-2.8641145779	 0.3235545129	 0.101231
H	-2.5809993009	-2.3470322376	-1.9590937615	 0.106975
H	-3.9207060219	-1.899011305	-0.8834135142	 0.097099
H	-3.0968167919	 0.5150397118	-1.0631420045	 0.095603
H	-1.8129228571	-0.0942351404	-2.128791445	 0.103734
49.	50.1872	158.6326	195.7389	214.5351	269.5375	277.9834	384.3011	406.1371	448.7487	507.6975	662.5285	709.7521	786.1917	847.7427	862.0469	899.1279	927.1895	946.6567	967.6496	971.3341	1014.2832	1020.4825	1059.8824	1083.699	1097.8212	1119.9878	1140.0645	1158.7489	1200.7766	1223.953	1242.5737	1269.9953	1283.5413	1315.3809	1335.1682	1385.0464	1404.6911	1429.4494	1481.6899	1487.077	1494.856	1499.285	1512.2534	1830.4224	2848.6717	3032.1434	3034.9767	3041.0717	3050.0511	3091.308	3099.6891	3104.1497	3112.8045	3113.0896	3184.1198	3195.3023
CC(C=O)C12CC1CC2	C[C@@H](C=O)[C@]12C[C@H]1CC2	
InChI=1S/C8H12O/c1-6(5-9)8-3-2-7(8)4-8/h5-7H,2-4H2,1H3	InChI=1S/C8H12O/c1-6(5-9)8-3-2-7(8)4-8/h5-7H,2-4H2,1H3/t6-,7+,8-/m0/s1
