15
gdb 29808	3.24555	1.22773	0.89587	3.3545	78.29	-0.2127	-0.0231	0.1896	1214.8354	0.113147	-416.855623	-416.84698	-416.846036	-416.88954	30.851	
C	-0.0372880473	 1.447295965	 0.0522843379	-0.352899
N	-0.0149206126	-0.0034374467	 0.0136010076	-0.072552
C	 0.0508096214	-0.7582545727	-1.1254691523	-0.1764
C	 0.1140049849	-2.0921632921	-0.7594048122	 0.344531
O	 0.1788651372	-3.1122381753	-1.6565931213	-0.444024
C	 0.0903915676	-2.15588388	 0.6480626302	-0.418243
C	 0.0123525584	-0.8431661069	 1.1052467971	 0.247387
C	-0.041430163	-0.3579879411	 2.4275803252	 0.212408
N	-0.0869951975	 0.050575784	 3.5128755837	-0.367499
H	 0.9382414663	 1.8633519921	-0.2198116007	 0.148991
H	-0.7921943908	 1.8271963797	-0.6410108148	 0.148089
H	-0.2891436198	 1.7736114955	 1.0618807139	 0.173617
H	 0.0470545534	-0.30549466	-2.1029637579	 0.13421
H	 0.2193614724	-3.9452192095	-1.1776990541	 0.302628
H	 0.1149530594	-3.0358222019	 1.2720115076	 0.119756
45.4403	137.2183	147.5352	169.4959	236.4208	293.9096	338.2256	429.1115	508.7607	531.4276	580.2051	629.2264	649.7687	657.8512	738.4884	783.2155	802.7462	1017.9067	1085.9672	1150.2301	1160.8252	1177.3667	1186.0332	1270.2126	1391.8287	1440.2514	1469.2542	1475.2094	1486.9578	1511.6564	1524.6359	1637.092	2326.0863	3042.8121	3108.0924	3153.0172	3254.0445	3274.8818	3842.4233
CN1C=C(O)C=C1C#N	Cn1cc(O)cc1C#N	
InChI=1S/C6H6N2O/c1-8-4-6(9)2-5(8)3-7/h2,4,9H,1H3	InChI=1S/C6H6N2O/c1-8-4-6(9)2-5(8)3-7/h2,4,9H,1H3
