21
gdb 122677	2.89699	1.01959	0.93858	1.5312	75.14	-0.2482	0.0814	0.3296	1384.7752	0.18188	-461.353345	-461.343578	-461.342634	-461.389573	33.768	
C	 0.2025121547	 1.5397450365	-0.5122237545	-0.388576
C	 0.1515447545	 0.0363107996	-0.3026412037	-0.02295
O	 0.7935612371	-0.5967108114	-1.3924420197	-0.249443
C	 0.8035359905	-2.0013309421	-1.2988392524	-0.088567
C	 1.5171689023	-2.589667651	-2.5163932642	 0.20043
O	 0.883723164	-2.247324974	-3.7269839641	-0.260674
C	 1.5398439329	-1.0958795851	-4.2497613997	-0.092884
C	 2.8864150992	-1.0360247836	-3.4901998397	-0.092832
O	 2.8547249989	-2.1590746666	-2.6141944883	-0.260697
H	 1.2387401632	 1.8850522147	-0.570883075	 0.127041
H	-0.3056707948	 1.816190119	-1.4405417921	 0.127044
H	-0.2880882313	 2.0562435609	 0.3181236956	 0.117321
H	 0.6506112892	-0.240878145	 0.6409827815	 0.089542
H	-0.8930017534	-0.309717604	-0.228352275	 0.08953
H	 1.3287620115	-2.3342827818	-0.3879385813	 0.091418
H	-0.2227950713	-2.4036726882	-1.2637466265	 0.091418
H	 1.5150010672	-3.6841055427	-2.4258429718	 0.089868
H	 1.6640057436	-1.2374875339	-5.3277787364	 0.106126
H	 0.9414898233	-0.1969995417	-4.0693243951	 0.110402
H	 3.7531958246	-1.145354534	-4.1492521125	 0.106113
H	 2.980198254	-0.1060426957	-2.9201884653	 0.110369
58.8926	65.106	70.6167	102.9962	154.1751	176.8085	246.2405	290.8477	364.4187	430.6148	641.048	735.9559	810.1524	821.5271	851.408	857.3437	902.3745	932.7229	964.0053	1019.0187	1038.6612	1062.8108	1084.7065	1149.139	1154.4155	1162.7267	1188.597	1200.4042	1235.4809	1240.5454	1264.1446	1297.264	1327.5878	1376.1108	1381.752	1396.4183	1403.0195	1408.5508	1445.8681	1483.4236	1496.5209	1501.0916	1514.1767	1528.0176	1535.5416	2953.8156	2965.1454	2984.8443	2996.0617	3027.5223	3037.3879	3044.4353	3045.6985	3072.4816	3096.0567	3119.4002	3120.1324
CCOCC1OCCO1	CCOCC1OCCO1	
InChI=1S/C6H12O3/c1-2-7-5-6-8-3-4-9-6/h6H,2-5H2,1H3	InChI=1S/C6H12O3/c1-2-7-5-6-8-3-4-9-6/h6H,2-5H2,1H3
