14
gdb 29391	4.96959	0.91994	0.85699	0.6759	69.45	-0.2201	-0.0013	0.2189	1308.3988	0.100108	-436.681864	-436.673708	-436.672764	-436.715579	29.851	
O	 0.381217125	 1.3428422343	-0.1897107207	-0.427917
C	 0.1461570683	 0.0214578922	-0.106594333	 0.322132
C	-0.2550127581	-0.8285959128	-1.0839455649	-0.150564
O	-0.3529231548	-2.0767635413	-0.5038238677	-0.164767
C	-0.0079004801	-1.8941129135	 0.7811183036	 0.407088
C	 0.0041577451	-3.0818570765	 1.693942695	-0.445713
C	-1.2953358467	-3.7386246364	 1.8144243464	 0.305455
C	-2.3615839103	-4.2811572597	 1.9143487636	-0.445398
N	 0.3009813591	-0.6674469239	 1.0803313429	-0.384636
H	 0.6411568683	 1.6344652359	 0.6924604353	 0.308035
H	-0.4955086202	-0.7461106904	-2.1269755947	 0.148691
H	 0.7485029506	-3.8061016181	 1.3364586404	 0.156866
H	 0.3475136828	-2.7276719284	 2.6704897513	 0.166909
H	-3.3061001692	-4.7585723713	 2.0013713125	 0.20382
29.2411	97.6587	229.0946	272.2884	324.8208	341.0161	367.5159	417.0078	485.6922	625.772	636.1429	655.284	670.0941	711.3568	736.9217	797.8088	919.2879	954.7397	1005.1365	1032.6743	1123.7838	1175.2912	1211.8715	1271.2562	1328.9236	1362.5774	1408.6957	1452.6958	1602.2655	1699.8435	2247.7191	3022.6089	3091.8401	3318.7786	3506.4022	3808.4278
OC1=COC(CC#C)=N1	Oc1coc(CC#C)n1	
InChI=1S/C6H5NO2/c1-2-3-6-7-5(8)4-9-6/h1,4,8H,3H2	InChI=1S/C6H5NO2/c1-2-3-6-7-5(8)4-9-6/h1,4,8H,3H2
