20
gdb 113315	2.58108	1.06835	0.87495	3.7646	81.51	-0.2706	0.0204	0.291	1414.8502	0.168782	-403.142753	-403.132602	-403.131658	-403.178134	36.237	
C	 0.069396803	 1.3852078204	-0.3762018451	-0.377443
C	-0.0551382068	 0.027495986	 0.3244765771	-0.199396
C	-1.4476618931	-0.5558994551	 0.1955112409	-0.058737
C	-1.8624972071	-1.3272894737	-1.0317087555	-0.343444
C	-1.662431029	-2.0525330596	 0.2931916335	 0.264911
O	-0.5266044658	-2.8338209915	 0.4663709358	-0.272781
C	-0.6121527359	-4.1245311675	-0.125674473	-0.260997
C	-2.8392850263	-2.5315074918	 0.99256268	 0.251867
N	-3.7725116957	-2.9289101508	 1.5490665742	-0.353549
H	 1.0799364821	 1.7894470441	-0.2653268871	 0.117996
H	-0.1437551646	 1.2993964723	-1.4468546534	 0.118857
H	-0.6300155476	 2.1164080728	 0.0433290251	 0.118532
H	 0.6712615868	-0.6799288092	-0.0851361681	 0.114397
H	 0.1887833285	 0.1352105262	 1.3881628338	 0.111029
H	-2.2324215102	 0.035766361	 0.6593475016	 0.112202
H	-2.8683745241	-1.2200702894	-1.4201761436	 0.135667
H	-1.0967356902	-1.5248917744	-1.7749170856	 0.130485
H	-0.777341416	-4.0568808568	-1.2092417924	 0.115417
H	 0.3429220906	-4.6163042849	 0.0664126536	 0.137133
H	-1.4208579286	-4.7162565681	 0.3216117981	 0.137856
68.203	108.862	126.819	134.6112	163.886	199.6382	234.9115	268.5831	321.6556	370.7239	431.9523	489.2598	580.8512	654.649	675.6275	779.3118	809.9565	911.5547	921.2682	953.5626	969.7239	1039.3156	1060.9666	1085.9081	1096.6633	1136.1484	1183.7774	1197.692	1214.9178	1245.8684	1284.9943	1293.7069	1350.436	1409.7598	1420.517	1472.2191	1480.0193	1487.9308	1491.1244	1498.0667	1507.2054	1508.9733	2343.9483	3006.1319	3033.8618	3040.3313	3067.541	3084.3052	3106.8629	3109.1575	3136.039	3136.8297	3149.1095	3230.7996
CCC1CC1(OC)C#N	CC[C@H]1C[C@]1(OC)C#N	
InChI=1S/C7H11NO/c1-3-6-4-7(6,5-8)9-2/h6H,3-4H2,1-2H3	InChI=1S/C7H11NO/c1-3-6-4-7(6,5-8)9-2/h6H,3-4H2,1-2H3/t6-,7-/m0/s1
