16
gdb 83092	2.54849	1.74951	1.51518	2.4356	63.17	-0.244	0.0008	0.2447	920.2074	0.125636	-474.99886	-474.991487	-474.990542	-475.030235	29.089	
O	 0.1829636557	 1.4005192592	-0.082234507	-0.44284
C	 0.0359033138	 0.0224768763	 0.0302932986	 0.153484
C	 0.2030853733	-0.6861175691	 1.4125782639	 0.004309
O	-0.4976808113	 0.0638495641	 2.4291831406	-0.228864
C	-1.7308051286	 0.4411150766	 2.0186190562	 0.085886
N	-2.2564477204	 0.1711318542	 0.8931929355	-0.274011
C	-1.3833599215	-0.6301279435	 0.0199834196	-0.074286
C	-0.7585560984	-1.7782253533	 0.8583883383	 0.100295
O	-0.1283320586	-2.7121428034	 0.0139505706	-0.431789
H	-0.6028124296	 1.816876774	 0.2919354378	 0.29456
H	 0.6847322439	-0.458636765	-0.7004294652	 0.117667
H	 1.1822656453	-0.9372127911	 1.8199725515	 0.089173
H	-2.2426701656	 1.0297609034	 2.7757421801	 0.138549
H	-1.8785809413	-0.8684702663	-0.9200316686	 0.089877
H	-1.4255925145	-2.2454626505	 1.5923956292	 0.087512
H	 0.4282192879	-3.2830910157	 0.554360629	 0.290478
196.6099	230.4781	240.599	288.119	303.9545	342.8881	386.0529	455.625	544.0479	587.2574	666.2458	730.8262	841.1867	856.8931	920.142	943.7034	967.558	976.1319	997.2509	1060.82	1123.3511	1142.9509	1145.9053	1170.8357	1189.3913	1224.9564	1266.5638	1292.9558	1309.0267	1317.9452	1340.4272	1377.551	1408.4366	1431.7361	1684.6438	3036.4392	3119.6366	3125.413	3133.7909	3179.7912	3783.2601	3806.6497
OC1C2OC=NC1C2O	O[C@H]1[C@H]2O[CH][N][C@@H]1[C@H]2O	
InChI=1S/C5H7NO3/c7-3-2-4(8)5(3)9-1-6-2/h1-5,7-8H	InChI=1S/C5H7NO3/c7-3-2-4(8)5(3)9-1-6-2/h1-5,7-8H/t2-,3-,4-,5+/m1/s1
