18
gdb 40772	2.84117	1.29339	0.98898	2.8104	72.28	-0.2515	0.0614	0.3129	1205.6801	0.147334	-439.003135	-438.994903	-438.993959	-439.036841	30.4	
C	 0.2877540061	 1.5756646687	 0.3453739305	-0.237467
N	 1.2546979472	 0.5851027698	-0.1542269395	-0.318356
C	-0.1272159588	 0.1654326045	 0.1427281654	-0.028345
C	-0.2746591639	-0.7804739062	 1.2992406024	 0.068142
O	-1.6463851604	-0.8590681235	 1.773471808	-0.301144
C	-1.6950353503	-2.2965663181	 1.628836214	-0.153708
C	-0.2977888058	-2.2866765522	 1.0221052269	 0.352392
C	 0.3275100649	-3.0863191193	-0.028261496	-0.257712
O	 0.7311206346	-3.1880065436	 1.3484622735	-0.254959
H	 0.4858190952	 1.9386424825	 1.3500971246	 0.126277
H	-0.1008949716	 2.3236572373	-0.3400435391	 0.116308
H	 1.3762932876	 0.6918301579	-1.1573551772	 0.235475
H	-0.7935246254	-0.0380385403	-0.6936338894	 0.084891
H	 0.4242049756	-0.5074874356	 2.1008936586	 0.095592
H	-1.7576357469	-2.8141031741	 2.5943461638	 0.116384
H	-2.521008321	-2.6205198603	 0.984471306	 0.109511
H	-0.1901482228	-3.9575849249	-0.4276061263	 0.118576
H	 1.0593868357	-2.6278593826	-0.6910290063	 0.128143
55.2718	85.2345	140.8258	228.928	281.6076	322.2551	375.5428	435.7678	493.3595	599.2359	817.5263	865.3839	868.7432	882.5317	890.5463	919.8511	944.5268	957.0622	1000.8391	1013.2192	1050.1432	1084.6161	1118.6357	1126.1974	1144.1144	1149.9755	1165.4819	1192.083	1230.6175	1245.5564	1257.0914	1286.2969	1322.4613	1326.9817	1451.4987	1459.1949	1512.3976	1515.3057	1541.1362	3015.816	3028.4464	3063.7361	3084.8588	3111.3665	3126.0093	3174.6195	3197.7022	3511.5148
C1NC1C1OCC11CO1	C1N[C@H]1[C@H]1OC[C@]21CO2	
InChI=1S/C6H9NO2/c1-4(7-1)5-6(2-8-5)3-9-6/h4-5,7H,1-3H2	InChI=1S/C6H9NO2/c1-4(7-1)5-6(2-8-5)3-9-6/h4-5,7H,1-3H2/t4-,5-,6-/m1/s1
