15
gdb 5483	3.2898	2.04961	1.27286	2.7373	70.85	-0.2203	-0.036	0.1843	911.5122	0.119929	-362.726041	-362.718893	-362.717949	-362.757332	26.544	
C	-0.0286681941	 1.5064325497	 0.0482385037	-0.502355
C	-0.0105225662	 0.0152372752	-0.0388434838	 0.322503
C	-0.0283136258	-0.7992072886	-1.1339860697	-0.239741
C	 0.0022186604	-2.1643867548	-0.6860649059	-0.164567
C	 0.0377143169	-2.1512818238	 0.6731180203	-0.075431
N	 0.0304993173	-0.8201650459	 1.0878961854	-0.097157
C	 0.0597000492	-0.4199103816	 2.4172543702	 0.170969
O	 0.0943971694	-1.1805280972	 3.3506372498	-0.295625
H	 0.8624758026	 1.9124742356	 0.5415411006	 0.136851
H	-0.0596821642	 1.9187688698	-0.9628370516	 0.140592
H	-0.9046851514	 1.8883614962	 0.5859295893	 0.136866
H	-0.0598882093	-0.4600066066	-2.1587985984	 0.104939
H	-0.0020966405	-3.0449693481	-1.3099654528	 0.110538
H	 0.0678264114	-2.9321638204	 1.4132296423	 0.150728
H	 0.0473612743	 0.6772554006	 2.5251844305	 0.10089
143.7151	191.2412	205.5875	222.1341	300.7842	337.7422	556.0941	619.1213	632.4058	635.3744	758.4298	815.5311	828.7216	875.9492	905.239	995.3957	1034.3059	1040.0268	1066.0776	1086.5483	1170.657	1258.0973	1317.2715	1356.1348	1420.1385	1435.1673	1452.5325	1482.9346	1496.055	1538.7741	1631.5418	1816.8666	3003.0797	3024.4102	3070.7614	3122.9718	3241.5338	3256.7937	3296.6286
CC1=CC=CN1C=O	Cc1cccn1C=O	
InChI=1S/C6H7NO/c1-6-3-2-4-7(6)5-8/h2-5H,1H3	InChI=1S/C6H7NO/c1-6-3-2-4-7(6)5-8/h2-5H,1H3
