19
gdb 94997	2.76907	1.76373	1.3443	0.6809	73.53	-0.2283	0.0702	0.2985	985.2318	0.16177	-422.986844	-422.979589	-422.978645	-423.018223	29.667	
O	-0.0526068427	 1.425526046	 0.070450667	-0.435343
C	 0.0270684294	 0.0081118318	-0.002294588	 0.088916
C	 0.8598760704	-0.5304634799	 1.1735510037	-0.103513
O	 0.7916642289	-1.937357151	 1.3405552472	-0.26763
C	-0.446499645	-2.5432454647	 1.0843860012	 0.139281
C	-1.8233120131	-2.1079490243	 1.5209149573	-0.110196
C	-2.0525247988	-0.5959878719	 1.4696340536	-0.248886
C	-1.3892161887	-0.5505458764	 0.0547698744	-0.034231
C	-1.3859764871	-2.094691296	 0.0258987087	-0.140674
H	 0.8384513102	 1.7838200292	 0.0004850263	 0.284331
H	 0.4847694679	-0.3099525617	-0.9531634199	 0.069745
H	 1.9211235345	-0.2979283425	 1.0254797507	 0.092788
H	 0.5332722053	-0.0115217548	 2.0852268396	 0.105217
H	-0.3062513257	-3.617834193	 1.1514587889	 0.10279
H	-2.4786735967	-2.8104704874	 2.0247191407	 0.083367
H	-3.1185800551	-0.3697882632	 1.3903726599	 0.104022
H	-1.6302379438	 0.0225473733	 2.2654325201	 0.104836
H	-2.0103714421	-0.0733499089	-0.7039312376	 0.080813
H	-1.704836268	-2.7098124843	-0.8075211737	 0.084366
134.59	190.4178	275.1504	297.3707	375.1392	413.9048	484.8261	501.5461	557.9127	668.2471	731.2762	763.9478	806.6286	845.71	928.29	941.8231	955.6083	965.9171	1005.8444	1031.9761	1033.0258	1074.0763	1078.3055	1089.6446	1108.1188	1132.1057	1170.2012	1196.6775	1213.9739	1255.6991	1260.1989	1268.9799	1293.9055	1326.9342	1348.1612	1357.5605	1403.5274	1433.5617	1448.5578	1497.2843	1524.5069	2967.5582	3009.2395	3055.4597	3062.8575	3098.8817	3110.2026	3158.8501	3164.7227	3179.7826	3810.2634
OC1COC2C3CC1C23	O[C@H]1CO[C@H]2[C@H]3C[C@@H]1[C@@H]23	
InChI=1S/C7H10O2/c8-5-2-9-7-4-1-3(5)6(4)7/h3-8H,1-2H2	InChI=1S/C7H10O2/c8-5-2-9-7-4-1-3(5)6(4)7/h3-8H,1-2H2/t3-,4-,5-,6+,7-/m0/s1
