16
gdb 31591	3.23116	1.10721	0.88607	1.9628	70.52	-0.197	0.0088	0.2057	1288.8496	0.125199	-471.222873	-471.213796	-471.212852	-471.257225	32.708	
N	 0.1791154465	 1.3481278231	 0.1498464205	-0.600074
C	 0.0144948806	-0.0189710774	 0.0523810309	 0.335898
C	-1.0838925461	-0.8243149823	 0.0096746539	 0.112453
N	-2.423139743	-0.3780146222	-0.0399098761	-0.612122
N	-0.6542482679	-2.1499963541	 0.0282113024	-0.328953
C	 0.6366984546	-2.0899431453	 0.0714980213	 0.329877
C	 1.6227241285	-3.2037799214	-0.0009803204	-0.167811
O	 2.1159512362	-3.4259638174	-1.3195186463	-0.412007
O	 1.1207978701	-0.8021935162	 0.0995277113	-0.195568
H	 0.9341725659	 1.7084527558	-0.4211362906	 0.257947
H	-0.6932773756	 1.8207439096	-0.0541768488	 0.264953
H	-2.9360500504	-0.8657498461	-0.7685992604	 0.241941
H	-2.9097887564	-0.5714021481	 0.8316318488	 0.242543
H	 2.5006513336	-2.9692360192	 0.607120063	 0.127743
H	 1.1421942151	-4.1004183216	 0.4109033747	 0.117311
H	 1.3549732983	-3.634313897	-1.8725482641	 0.285869
42.0572	110.5164	170.7551	239.9922	254.0821	271.0024	281.4643	296.731	371.1148	442.9304	518.8965	636.3248	659.6957	693.6009	756.2254	772.1658	846.4292	868.5079	940.7878	991.716	1043.9149	1079.7341	1180.1681	1189.2786	1237.3872	1257.9585	1348.2816	1369.4996	1423.1381	1447.8941	1483.37	1613.624	1619.8476	1655.6668	1722.1129	3028.28	3100.9188	3482.1831	3527.5761	3546.4035	3626.8801	3806.8779
NC1=C(N)N=C(CO)O1	Nc1c(N)nc(CO)o1	
InChI=1S/C4H7N3O2/c5-3-4(6)9-2(1-8)7-3/h8H,1,5-6H2	InChI=1S/C4H7N3O2/c5-3-4(6)9-2(1-8)7-3/h8H,1,5-6H2
