17
gdb 28603	4.82714	1.01522	0.87954	0.97	77.08	-0.1653	0.0633	0.2286	1292.9815	0.136758	-418.002146	-417.993829	-417.992885	-418.035355	31.507	
O	-1.247615351	 0.8779728515	-0.3873532991	-0.439625
C	-0.2932374014	-0.0680281226	-0.1803197104	 0.369167
C	 0.8270668005	-0.4517848043	-0.8687462015	-0.294977
C	 1.4179144309	-1.5286553952	-0.1218114444	-0.211407
C	 0.6350811743	-1.7480910832	 0.9829278695	 0.325604
N	-0.4153974711	-0.8466783396	 0.9382671498	-0.351507
N	 0.7374207872	-2.5997473288	 2.0956615313	-0.17259
C	 0.0836167763	-3.9220325156	 2.0260893167	-0.229726
C	 1.5628342228	-3.790187987	 1.9571915476	-0.218803
H	-1.0338732789	 1.3435145607	-1.2012591651	 0.305243
H	 1.1873754442	-0.0275643766	-1.7930802607	 0.08261
H	 2.3265314318	-2.052875276	-0.3715718566	 0.086932
H	-1.1168059279	-0.7347133075	 1.6495508461	 0.264329
H	-0.3995403541	-4.246438474	 2.9425734298	 0.117905
H	-0.4347597394	-4.1730006169	 1.104220329	 0.122324
H	 2.0259772761	-3.977647373	 0.9918912424	 0.124809
H	 2.1800714898	-4.0295494021	 2.8178545057	 0.119712
52.0695	138.1845	192.7976	217.2667	268.4974	358.8057	391.0958	421.4626	504.0832	569.2866	635.8531	687.5599	693.1887	722.4459	771.6891	817.4269	864.3193	910.2384	1005.3163	1021.7909	1037.3156	1057.8336	1106.0781	1132.1804	1160.008	1170.6607	1176.7648	1201.113	1266.3653	1295.8682	1333.0188	1437.895	1484.7917	1511.3515	1529.0851	1586.1125	1642.9664	3108.7567	3113.103	3192.5753	3207.7081	3242.0706	3259.0798	3684.418	3849.3225
OC1=CC=C(N1)N1CC1	Oc1ccc([nH]1)N1CC1	
InChI=1S/C6H8N2O/c9-6-2-1-5(7-6)8-3-4-8/h1-2,7,9H,3-4H2	InChI=1S/C6H8N2O/c9-6-2-1-5(7-6)8-3-4-8/h1-2,7,9H,3-4H2
