16
gdb 11817	3.47628	1.79663	1.39929	1.2366	66.98	-0.246	-0.0286	0.2174	921.5157	0.128517	-383.728263	-383.720471	-383.719526	-383.760452	28.675	
C	-0.4999425378	 1.41380485	-0.0585367479	-0.404709
C	 0.105275765	 0.0242087538	-0.0327293339	 0.032453
O	 1.3561308608	-0.0831158784	-0.7764816393	-0.333659
C	 2.0853190162	-0.5094563784	 0.3754541927	 0.336036
C	 3.1544231792	-1.5650646687	 0.3552140807	-0.327486
C	 3.5094778831	-0.1299661609	 0.6609968061	-0.324517
C	 0.866017301	-0.4059239176	 1.2379625118	 0.261892
O	 0.6032811107	-0.5672214597	 2.3929975057	-0.299368
H	 0.2147030594	 2.158560292	 0.3024365832	 0.130039
H	-0.7947928929	 1.6806189121	-1.0775393992	 0.134927
H	-1.3890045062	 1.4426654615	 0.5791150923	 0.13593
H	-0.6121231341	-0.7337066187	-0.374170384	 0.110088
H	 3.1568253188	-2.2918486533	 1.1605742993	 0.136696
H	 3.4187800555	-1.950537366	-0.6233739354	 0.137385
H	 4.0116749084	 0.4397290187	-0.1131466863	 0.137243
H	 3.7582249729	 0.1455103235	 1.6803613441	 0.13705
79.7392	170.6396	195.6907	209.9934	210.8533	344.9515	407.0465	493.5331	572.0739	707.5645	717.7097	766.6192	838.1274	865.7562	878.9491	928.8248	968.5151	1006.8256	1054.2006	1065.2751	1068.7469	1078.0821	1129.1932	1194.6661	1226.2063	1278.6599	1330.7779	1376.6064	1401.4927	1444.6958	1478.6752	1482.6284	1494.4363	1911.1755	3025.1135	3042.4637	3118.3154	3123.2324	3133.866	3134.6768	3220.9947	3235.0521
CC1OC2(CC2)C1=O	C[C@H]1OC2(CC2)C1=O	
InChI=1S/C6H8O2/c1-4-5(7)6(8-4)2-3-6/h4H,2-3H2,1H3	InChI=1S/C6H8O2/c1-4-5(7)6(8-4)2-3-6/h4H,2-3H2,1H3/t4-/m1/s1
