17
gdb 30442	2.76605	1.45201	0.96355	1.6357	82.31	-0.2235	-0.0473	0.1762	1204.432	0.135441	-418.05131	-418.042518	-418.041574	-418.08551	31.273	
C	-0.0262537766	 1.4597138118	 0.1094634286	-0.321261
N	-0.0221598973	 0.0102800374	 0.0181651241	-0.319195
C	 0.5472854806	-0.6645439507	 0.9220981478	 0.398931
O	 1.1735038665	-0.0203277108	 2.010067654	-0.262795
C	 1.7879997061	-0.7344209676	 2.9854826298	 0.417423
C	 2.3800319611	 0.1516727968	 4.0321606097	-0.470148
N	 1.8676566867	-2.0118947683	 3.0314866324	-0.32098
C	 1.2687428672	-2.7072834441	 1.9862508022	-0.016706
C	 0.6312343175	-2.1057936367	 0.9644765674	-0.168592
H	 0.9903715715	 1.8760742787	 0.1166122843	 0.119175
H	-0.5587748269	 1.8690523222	-0.7519506168	 0.121238
H	-0.5228861764	 1.8146770098	 1.0228641817	 0.119195
H	 1.6010471717	 0.7709251419	 4.4887618971	 0.150313
H	 2.8623079965	-0.457975917	 4.7947464491	 0.155698
H	 3.1107482441	 0.8321619009	 3.5829749465	 0.150315
H	 1.3498741335	-3.7874217295	 2.0484280005	 0.120736
H	 0.1674358241	-2.6521899848	 0.1544492417	 0.126654
51.4438	110.3048	134.8862	165.6055	182.4112	250.7145	342.3768	438.0421	461.6214	562.348	591.9566	624.6164	724.9764	745.8301	849.4572	870.1167	962.2962	1000.9184	1015.66	1032.0508	1064.6897	1087.9344	1106.8258	1155.2651	1194.6194	1258.988	1297.1556	1407.6345	1428.313	1439.7544	1469.2234	1473.1561	1485.0212	1498.1684	1624.6683	1681.5804	1764.8244	2998.1203	3046.6866	3047.6656	3104.2634	3108.4106	3171.0211	3187.2076	3233.0571
CN=C1OC(C)=NC=C1	C[N]C1=CCN=C(O1)C	
InChI=1S/C6H8N2O/c1-5-8-4-3-6(7-2)9-5/h3-4H,1-2H3	InChI=1S/C6H9N2O/c1-5-8-4-3-6(7-2)9-5/h3H,4H2,1-2H3
