20
gdb 12275	2.80996	1.56041	1.33339	0.7125	70.91	-0.249	0.0727	0.3217	1031.7718	0.176122	-386.120933	-386.111869	-386.110925	-386.154197	33.713	
C	-0.6468579358	 1.333885504	-0.1684340217	-0.412523
C	-0.0360937072	-0.0566637631	-0.0623387675	 0.013011
C	 1.3028481174	-0.358563727	-0.7910261953	 0.10554
O	 2.066778769	 0.83375053	-0.9032766039	-0.430126
C	 1.7146458375	-1.2502712575	 0.4121017986	-0.252928
C	 0.6053708684	-0.5743212652	 1.2687640525	 0.007274
C	 1.1334367436	 0.4972424689	 2.2081881822	-0.094058
O	 1.8477492326	-0.1670583082	 3.2464629666	-0.428207
H	 0.0771442957	 2.1136625101	 0.0766890114	 0.132551
H	-0.9985514773	 1.5230030749	-1.1884105652	 0.112385
H	-1.5068706332	 1.4352527278	 0.502465676	 0.108997
H	-0.7699440513	-0.7997267395	-0.393770739	 0.07297
H	 1.2220141582	-0.8531985146	-1.7690671592	 0.055778
H	 2.969677044	 0.5835415053	-1.1239973525	 0.282135
H	 1.5210369745	-2.3106289026	 0.2285716397	 0.095036
H	 2.7404972644	-1.1353622828	 0.7722052322	 0.099301
H	-0.0188561432	-1.2604389664	 1.8485782543	 0.068998
H	 1.785933157	 1.1877493436	 1.656245222	 0.100138
H	 0.2947474281	 1.0821235979	 2.6192029242	 0.080242
H	 2.2409964277	 0.5033873845	 3.8123403345	 0.283485
90.5894	136.5538	175.1418	211.6708	239.5479	254.7402	288.3675	296.1198	382.0002	416.366	485.6326	543.6631	709.5244	817.0847	841.0558	862.6255	914.5481	944.0488	981.225	998.2785	1061.1651	1065.3377	1097.2	1141.7365	1157.7551	1163.7822	1199.2337	1228.0564	1253.7954	1260.0135	1279.5066	1299.8023	1330.9308	1364.9536	1373.9232	1404.7116	1417.7885	1457.4175	1473.6405	1492.4147	1502.4014	1530.4349	2969.8381	2993.1074	3024.3122	3033.9683	3042.1395	3055.6192	3068.3582	3092.9164	3111.435	3127.7618	3814.5434	3829.8623
CC1C(O)CC1CO	C[C@H]1[C@@H](O)C[C@H]1CO	
InChI=1S/C6H12O2/c1-4-5(3-7)2-6(4)8/h4-8H,2-3H2,1H3	InChI=1S/C6H12O2/c1-4-5(3-7)2-6(4)8/h4-8H,2-3H2,1H3/t4-,5+,6+/m1/s1
