17
gdb 122773	3.49724	0.72786	0.6304	3.6422	73.57	-0.2675	-0.0521	0.2153	1737.9844	0.134033	-455.138575	-455.128694	-455.12775	-455.175052	33.286	
C	 0.077702183	 1.3310075578	 0.0788754854	-0.228324
O	 0.0264357671	-0.0697249715	-0.0624096139	-0.227388
C	-1.2586273496	-0.5959538846	 0.1532574769	-0.066417
C	-1.1960132029	-2.1016550064	 0.0397942898	-0.076677
O	-0.4868040049	-2.5981264984	 1.1912861346	-0.227269
C	-0.294368705	-3.9166169609	 1.2392618285	 0.334419
N	-0.7044332092	-4.7303660847	 0.3564725345	-0.52041
C	 0.4402007287	-4.2953451683	 2.4358070335	 0.256523
N	 1.0165882917	-4.6676532541	 3.3656586168	-0.316665
H	 1.1093344053	 1.6384442955	-0.1056215243	 0.133949
H	-0.5802689122	 1.8389936208	-0.644065868	 0.105479
H	-0.2135511931	 1.6492781168	 1.0918826614	 0.110216
H	-1.643620916	-0.3120992758	 1.1465790376	 0.10293
H	-1.9739954402	-0.2204684191	-0.5989296009	 0.094689
H	-2.1990551873	-2.539104331	 0.0187221945	 0.128772
H	-0.6673005164	-2.4058349328	-0.8677816432	 0.143221
H	-0.4509082391	-5.6885952733	 0.5850370869	 0.252954
45.9137	55.7897	84.3483	135.4578	160.1909	226.5535	258.0183	283.7638	327.8433	347.2383	507.6911	542.722	608.5837	733.312	843.5676	859.3603	880.0577	929.4818	1050.3627	1057.934	1117.0826	1128.0651	1172.4698	1187.1285	1228.1215	1260.9009	1298.0389	1354.4051	1405.8364	1437.0307	1479.9954	1485.7971	1491.0973	1497.5349	1521.2099	1702.3696	2357.049	2956.1581	2974.2156	2992.5058	3018.8799	3061.0637	3113.4215	3121.4863	3533.8369
COCCOC(=N)C#N	COCCO[C]([NH])C#N	
InChI=1S/C5H8N2O2/c1-8-2-3-9-5(7)4-6/h7H,2-3H2,1H3	InChI=1S/C5H8N2O2/c1-8-2-3-9-5(7)4-6/h7H,2-3H2,1H3
