16
gdb 49409	3.85993	1.61583	1.49482	1.2513	70.77	-0.2297	-0.0295	0.2002	893.1283	0.125274	-400.657629	-400.651118	-400.650174	-400.688883	25.599	
O	-0.773642487	 0.9860437078	 0.6119320262	-0.248094
C	 0.0501912525	 1.0767913701	-0.265303811	 0.132796
C	 1.2607874765	 1.95683322	-0.1978117438	-0.098026
C	 1.2234939064	 3.361701948	-0.8762690933	-0.039802
C	 0.1568836421	 4.2151693484	-0.1841566588	-0.089868
C	 0.4101721033	 3.7921187108	 1.2761563938	-0.075732
C	 1.2063305465	 4.894378055	 0.6473529583	-0.034083
N	 2.2328938032	 3.8718570511	 0.1702299505	-0.186648
C	 1.5570394801	 2.7981645113	 1.0529700581	-0.020715
H	-0.0652010688	 0.5069904714	-1.2163988128	 0.077641
H	 2.1539620238	 1.4262713353	-0.5473388421	 0.106712
H	 1.4486690568	 3.5026397982	-1.9328570497	 0.085065
H	-0.8017059992	 4.5725577952	-0.5342891512	 0.099139
H	-0.3600448354	 3.8195360863	 2.0334403023	 0.104635
H	 1.4091178659	 5.9260449793	 0.9034318838	 0.101614
H	 2.1089053433	 2.4052904819	 1.9056311597	 0.085366
80.2144	150.2523	217.4632	392.6826	544.9509	686.6058	738.8196	774.8747	786.5271	801.9959	814.1495	828.7724	875.4688	908.7954	915.2316	931.3003	971.0824	984.8188	1014.5606	1020.4898	1039.0213	1058.014	1071.5038	1089.5431	1147.6846	1161.94	1185.0781	1221.1794	1226.4851	1286.4058	1302.7858	1357.0362	1361.3459	1425.4986	1816.0174	2863.523	3058.8866	3120.8614	3128.0115	3194.0522	3209.5733	3225.3013
O=CC1C2C3C4C3N2C14	O=C[C@H]1[C@H]2[C@H]3[C@@H]4[C@H]3N2[C@H]14	
InChI=1S/C7H7NO/c9-1-2-5-3-4-6(2)8(5)7(3)4/h1-7H	InChI=1S/C7H7NO/c9-1-2-5-3-4-6(2)8(5)7(3)4/h1-7H/t2-,3+,4-,5-,6+,7-
