17
gdb 44204	3.84246	1.14344	1.09791	2.7819	73.17	-0.2466	-0.018	0.2286	1136.0522	0.135698	-421.785615	-421.778008	-421.777064	-421.818185	28.813	
O	 0.079870856	 0.0440660863	 0.0016900608	-0.311473
C	 0.0639053299	 1.239343687	-0.0661021446	 0.420579
C	-1.0917013405	 2.2800788898	-0.0756318652	-0.367689
C	-0.0204661971	 3.3650689172	 0.1198243781	-0.137437
C	 1.1203012622	 2.2971992203	 0.060166089	-0.251979
C	 0.922931369	 3.3465261932	-1.0156668269	 0.28868
C	 0.6968119966	 3.2187553654	-2.5237547526	-0.14404
O	 1.6631526392	 4.2642673117	-2.7700478637	-0.272097
C	 1.9555371174	 4.4176152985	-1.3669401429	-0.152525
H	-1.7150942806	 2.3489130715	-0.9715401551	 0.124378
H	-1.7345212763	 2.1260138576	 0.7956152649	 0.137418
H	-0.0889983723	 4.1941766586	 0.8129404069	 0.109752
H	 2.0582150965	 2.2218925537	 0.5982739143	 0.111873
H	 0.9976635396	 2.2650783432	-2.9745102153	 0.117339
H	-0.3033158719	 3.491905755	-2.8836411693	 0.10834
H	 1.735283055	 5.430308466	-1.0049503798	 0.108591
H	 2.9989470371	 4.1700098751	-1.1330816386	 0.110288
78.076	111.6683	183.9712	221.8735	362.0898	405.6601	469.6025	507.593	605.1724	649.2477	811.2354	836.7355	850.6171	870.2831	923.6961	952.0331	984.4818	994.2159	1002.0258	1020.0704	1035.6623	1049.3279	1111.1867	1134.4776	1154.3745	1160.7324	1171.4806	1223.3794	1235.4016	1257.9294	1310.6263	1363.1416	1446.1403	1462.2012	1509.0082	1533.2925	1883.9347	3003.1381	3014.7023	3048.5639	3056.389	3060.481	3114.4269	3185.8119	3198.1867
O=C1CC2C1C21COC1	O=C1C[C@H]2[C@@H]1C12COC1	
InChI=1S/C7H8O2/c8-5-1-4-6(5)7(4)2-9-3-7/h4,6H,1-3H2	InChI=1S/C7H8O2/c8-5-1-4-6(5)7(4)2-9-3-7/h4,6H,1-3H2/t4-,6-/m0/s1
