20
gdb 106973	4.00323	1.05568	0.94026	1.5523	81.08	-0.2275	0.0197	0.2472	1305.0946	0.171089	-403.132942	-403.124072	-403.123128	-403.166317	33.92	
C	 0.1107111535	 1.480833164	 0.1157331334	-0.50076
C	-0.0040742152	-0.0050840966	-0.0045876808	 0.379531
C	-0.0389774472	-0.7443780572	-1.1184758251	-0.185202
C	-0.152205628	-2.2279555838	-0.8422747936	-0.299765
C	-0.1399351935	-2.3009696556	 0.6868482252	 0.308462
C	-0.8915344509	-3.3973796762	 1.3897152908	-0.16149
O	-0.3952143862	-4.6903735746	 1.0719921988	-0.412988
N	 1.1389653608	-1.810563694	 1.2699082845	-0.375924
C	-0.0472689809	-0.9058827524	 1.1930243734	-0.221477
H	 1.0320769337	 1.7647747576	 0.639722708	 0.132733
H	 0.1146706495	 1.9631760388	-0.8653970499	 0.124576
H	-0.7215724998	 1.900249686	 0.6955532582	 0.12188
H	 0.0385476789	-0.3466316691	-2.1249912215	 0.087829
H	-1.0786757424	-2.6550009978	-1.2492528819	 0.106824
H	 0.6754900889	-2.7965840444	-1.2807363035	 0.118712
H	-0.877219187	-3.2149686962	 2.4781178047	 0.07709
H	-1.9406778733	-3.4037323691	 1.0736953192	 0.11435
H	 0.5516980259	-4.6899212453	 1.2487373173	 0.286135
H	 1.2022543972	-2.1593265142	 2.2280733492	 0.216683
H	-0.5084618441	-0.5842636999	 2.1227313235	 0.082799
86.1509	120.548	180.1034	211.1551	258.1216	291.0744	324.0743	387.2866	400.6575	418.8632	573.1361	622.7777	684.338	748.136	816.77	857.2808	874.7365	913.8087	958.1876	960.0292	989.7424	1024.1376	1034.7712	1064.6625	1074.3688	1084.4687	1154.2803	1174.7843	1193.1364	1215.5482	1261.4625	1278.574	1326.6233	1362.3136	1383.4268	1414.1843	1419.3116	1438.0266	1469.5108	1479.201	1489.9659	1497.0557	1710.7754	2954.8369	3016.8115	3020.1541	3062.6626	3063.1445	3065.5595	3111.0568	3148.3517	3186.8153	3434.9696	3807.5985
CC1=CCC2(CO)NC12	CC1=CC[C@@]2(CO)N[C@@H]12	
InChI=1S/C7H11NO/c1-5-2-3-7(4-9)6(5)8-7/h2,6,8-9H,3-4H2,1H3	InChI=1S/C7H11NO/c1-5-2-3-7(4-9)6(5)8-7/h2,6,8-9H,3-4H2,1H3/t6-,7-/m0/s1
