21
gdb 59718	3.03169	1.26057	1.00822	1.4536	78.22	-0.2474	0.0754	0.3228	1238.2574	0.182619	-424.220266	-424.211395	-424.210451	-424.253737	34.202	
C	-0.0024570362	 1.5156279357	-0.0870686745	-0.40909
C	 0.0050211912	-0.0070020611	 0.0065474477	 0.11662
O	 0.7253543002	-0.4692413163	 1.1469322004	-0.434966
C	-1.4073802884	-0.6013836073	 0.0260626833	 0.104902
O	-2.112161742	-0.162795981	-1.1361552859	-0.274917
C	-3.1537195068	-1.0960487323	-1.4166346081	-0.09306
C	-2.6361273498	-2.4415249045	-0.9402663243	-0.062167
C	-1.2219498434	-2.7717603597	-1.3410619547	-0.287662
C	-1.4923355884	-2.1190021007	-0.0082539896	-0.045978
H	 1.0211173197	 1.9003716194	-0.0934558492	 0.118559
H	-0.5167794922	 1.8428840774	-0.9935174716	 0.139846
H	-0.5290292135	 1.9529411801	 0.7717827963	 0.100508
H	 0.538109146	-0.4254008784	-0.854203825	 0.09227
H	 0.3891711965	 0.0056715701	 1.9151990695	 0.276581
H	-1.9179573825	-0.2390070305	 0.9398927747	 0.048558
H	-4.0768349159	-0.830657227	-0.8762008054	 0.090818
H	-3.3559080162	-1.0408369326	-2.4917599944	 0.107116
H	-3.3458348143	-3.2329913172	-0.7309314798	 0.08785
H	-0.9287032303	-3.8152609652	-1.328160892	 0.111502
H	-0.7611765589	-2.1816216321	-2.1272148421	 0.119813
H	-1.317155625	-2.6686366768	 0.9070211749	 0.092898
76.3392	128.356	163.0277	230.3663	272.1779	280.3228	332.624	353.4017	415.1386	459.1646	514.0115	654.5237	724.716	783.1605	829.8314	867.3836	906.5805	917.8802	965.2272	971.676	991.1657	1031.718	1066.7331	1076.5112	1079.1213	1093.258	1110.8646	1119.2022	1132.819	1177.3779	1196.4496	1236.4499	1269.1602	1318.4539	1324.1944	1338.1822	1360.4718	1395.9692	1401.2377	1409.549	1415.3487	1479.8294	1490.3179	1494.5039	1516.941	2907.478	2973.9633	3021.1232	3057.3821	3064.5227	3099.027	3129.9019	3134.5546	3181.9923	3201.7954	3219.6391	3797.5295
CC(O)C1OCC2CC12	C[C@@H](O)[C@H]1OC[C@H]2C[C@@H]12	
InChI=1S/C7H12O2/c1-4(8)7-6-2-5(6)3-9-7/h4-8H,2-3H2,1H3	InChI=1S/C7H12O2/c1-4(8)7-6-2-5(6)3-9-7/h4-8H,2-3H2,1H3/t4-,5-,6-,7-/m1/s1
