21
gdb 108715	3.15839	1.01457	0.83424	4.053	87.47	-0.229	-0.0368	0.1922	1453.3604	0.182153	-387.147017	-387.137468	-387.136524	-387.182161	34.995	
C	-0.217844822	 1.5687579039	-0.1027651489	-0.377913
C	 0.1331561647	 0.0763246049	 0.0520639332	-0.282933
C	 0.8199529775	-0.4965678096	-1.1506242751	 0.335335
C	 2.0914916171	-0.9243388807	-1.2208922715	-0.302586
C	 2.4083022378	-1.4334818397	-2.5670191027	 0.394627
O	 3.4411384327	-1.9445901844	-2.940298039	-0.351364
C	 1.1624091718	-1.2088338072	-3.4493614472	-0.093933
C	 0.7829567718	-2.4704248847	-4.2277373888	-0.396441
C	 0.0959652288	-0.672868485	-2.4716214408	-0.332121
H	 0.6834118534	 2.1665116009	-0.268504432	 0.128396
H	-0.8949397104	 1.7385059509	-0.9449619561	 0.124669
H	-0.7102288601	 1.939134199	 0.8008186921	 0.122821
H	 0.7672997636	-0.0597348209	 0.934111639	 0.112522
H	-0.7925538689	-0.4864557535	 0.235028293	 0.112274
H	 2.8106443992	-0.933293159	-0.4106610423	 0.105259
H	 1.4348829573	-0.4244980854	-4.1669814241	 0.102942
H	 0.4583951812	-3.2669030355	-3.5488480715	 0.115844
H	-0.0302323429	-2.2754924624	-4.9335600411	 0.110941
H	 1.6503108951	-2.8365058001	-4.7833207803	 0.140733
H	-0.7352962532	-1.3809654471	-2.3482057158	 0.115585
H	-0.3579984546	 0.2654713054	-2.8104094301	 0.115344
49.749	59.5925	127.8963	197.1944	228.9576	241.4699	251.4342	320.8876	384.1244	492.7596	513.5475	573.7945	621.984	708.9627	781.8512	792.3812	869.0204	898.0402	916.6043	928.9866	962.588	1035.6253	1060.435	1072.6007	1111.6622	1129.5437	1159.4645	1187.1498	1210.3779	1263.3797	1269.7251	1304.726	1338.6496	1348.3139	1357.2337	1403.9	1408.458	1474.9709	1482.6687	1496.1811	1498.3078	1500.6512	1508.0802	1673.0532	1804.9345	3014.523	3019.0599	3027.2282	3034.663	3042.4191	3058.6147	3072.6613	3100.7221	3116.131	3117.1077	3122.608	3208.4678
CCC1=CC(=O)C(C)C1	CCC1=CC(=O)[C@@H](C)C1	
InChI=1S/C8H12O/c1-3-7-4-6(2)8(9)5-7/h5-6H,3-4H2,1-2H3	InChI=1S/C8H12O/c1-3-7-4-6(2)8(9)5-7/h5-6H,3-4H2,1-2H3/t6-/m0/s1
