18
gdb 121700	6.92653	0.60814	0.56493	5.1624	72.43	-0.2621	-0.0165	0.2456	1929.7843	0.145798	-476.290138	-476.279981	-476.279036	-476.326996	34.065	
C	 0.1889369462	 1.4375015152	 0.0070723725	-0.384506
C	-0.0060710368	-0.0813591426	 0.0010889961	-0.192783
C	-1.4777257415	-0.4593421198	 0.0129607341	-0.041205
O	-1.5620013034	-1.8989283877	 0.0062101425	-0.282304
C	-2.8170042539	-2.4002708443	 0.0167484986	 0.542582
O	-3.8289147461	-1.7591842846	 0.0302162887	-0.354078
N	-2.7119708925	-3.7939469069	 0.0076157055	-0.394314
C	-3.7513713052	-4.7148778376	 0.0123813906	 0.165442
O	-4.9253643395	-4.4712143606	 0.0252648919	-0.253465
H	 1.2518896427	 1.6932540143	-0.0015117898	 0.12269
H	-0.2728745133	 1.902570018	-0.8703943366	 0.1236
H	-0.2564133881	 1.8934871661	 0.8977160531	 0.123604
H	 0.4667463414	-0.520513308	-0.8848880627	 0.109665
H	 0.4832357629	-0.5295577046	 0.8734800666	 0.109664
H	-1.9893732642	-0.0779468161	 0.9027645903	 0.126331
H	-2.0059362866	-0.0687000033	-0.8630645041	 0.126286
H	-1.7707236208	-4.1579436857	-0.0039528466	 0.265484
H	-3.3388760113	-5.7442130618	 0.0022293292	 0.087307
35.2785	65.2003	82.956	98.6763	170.5717	206.875	230.4949	245.4129	290.4885	334.1805	482.4745	608.3941	625.2125	760.6083	785.2189	853.9848	892.8876	908.611	974.3766	1020.7486	1030.6865	1055.8812	1147.5385	1172.9127	1190.6289	1219.93	1271.4315	1314.2509	1336.2054	1412.0491	1421.3934	1446.8821	1492.3142	1500.0839	1503.962	1512.2454	1526.5665	1821.8537	1889.5491	2929.1016	3035.8109	3037.3078	3049.6612	3066.9726	3093.6121	3108.4253	3114.4927	3623.6181
CCCOC(=O)NC=O	CCCOC(=O)NC=O	
InChI=1S/C5H9NO3/c1-2-3-9-5(8)6-4-7/h4H,2-3H2,1H3,(H,6,7,8)	InChI=1S/C5H9NO3/c1-2-3-9-5(8)6-4-7/h4H,2-3H2,1H3,(H,6,7,8)
