15
gdb 60726	3.39662	1.1238	0.84888	3.0571	65.23	-0.2553	-0.0717	0.1835	1263.6595	0.111576	-491.162568	-491.153245	-491.152301	-491.198267	32.387	
C	 0.036947622	 1.5310665827	 0.1035124686	-0.332276
N	-0.0109497685	 0.0644717885	-0.0190285292	-0.173771
C	 0.0402085111	-0.6838398045	 1.173445414	 0.176546
O	 0.1197221637	-0.1851446182	 2.2666544696	-0.302169
C	-0.1021620258	-0.6449252582	-1.2055125945	 0.367411
O	-0.1388086997	-1.8618153918	-1.2474499717	-0.364135
C	-0.1586618962	 0.1483939476	-2.541957263	 0.310889
N	-0.2468942565	-0.7082856673	-3.5799224033	-0.502651
O	-0.1266825581	 1.3598639459	-2.6301225602	-0.357536
H	 0.9024187591	 1.9339539616	-0.4199849528	 0.154673
H	-0.8598867917	 1.9828209674	-0.3171706315	 0.154558
H	 0.1050252051	 1.7399070473	 1.1702893672	 0.162826
H	-0.0009532485	-1.7621158306	 0.9819930245	 0.145474
H	-0.2646844094	-1.6984836508	-3.3964198168	 0.286718
H	-0.2906495367	-0.3443099895	-4.5162517309	 0.273445
18.8967	57.8616	172.3592	182.0811	217.2138	312.4605	319.1506	354.1126	369.5958	396.1307	485.4246	492.4406	623.4979	636.9124	669.034	802.9147	836.6083	950.3235	1055.8747	1094.029	1118.8269	1156.5766	1269.0547	1311.357	1382.5382	1421.0162	1463.1455	1494.9185	1497.8458	1578.384	1750.9106	1808.6712	1818.1601	3084.8032	3087.8167	3168.3412	3178.3102	3597.2818	3741.5238
CN(C=O)C(=O)C(N)=O	CN(C=O)C(=O)C(=O)N	
InChI=1S/C4H6N2O3/c1-6(2-7)4(9)3(5)8/h2H,1H3,(H2,5,8)	InChI=1S/C4H6N2O3/c1-6(2-7)4(9)3(5)8/h2H,1H3,(H2,5,8)
