15
gdb 107613	2.81563	1.63378	1.16698	4.6693	60.96	-0.2681	-0.0228	0.2454	1014.4787	0.112786	-494.910774	-494.903195	-494.902251	-494.942985	28.286	
O	-0.0237327193	 1.3826977709	 0.3435375458	-0.41529
C	 0.0573693784	 0.0102160936	 0.0353202277	-0.166882
C	-1.3081836615	-0.6108366347	-0.0927513168	 0.229406
O	-2.0114580969	-1.0528972605	 1.0879734988	-0.271137
C	-1.7323303596	-2.0056969804	 0.0656465432	-0.067761
C	-2.9223715317	-2.2173596033	-0.8466908133	-0.110968
O	-3.2372616397	-0.9169691057	-1.3871385371	-0.227463
C	-2.2897660386	-0.003546305	-1.0699556094	 0.455638
O	-2.2611792919	 1.1045980098	-1.5343149558	-0.359
H	-0.5914252033	 1.7868406544	-0.3279200436	 0.304324
H	 0.6143785291	-0.1724924999	-0.8989318771	 0.10004
H	 0.5986134331	-0.4789073758	 0.8506893071	 0.124612
H	-1.062297724	-2.8215840586	 0.3193390854	 0.124598
H	-2.686471015	-2.8914967824	-1.676491086	 0.133286
H	-3.802576399	-2.5858373423	-0.3137450589	 0.146597
110.4269	145.6756	196.7974	263.9493	271.7708	371.2897	454.9276	497.8936	521.1388	642.4202	711.5389	736.0651	793.2573	822.2366	915.4949	956.1052	1007.5387	1029.4823	1050.3046	1076.6953	1105.9445	1114.5394	1219.3846	1233.08	1274.8448	1312.2059	1378.37	1390.3056	1445.6238	1477.056	1489.2076	1500.3669	1854.9739	2967.8985	3056.1319	3087.7852	3111.9883	3169.3913	3743.2041
OCC12OC1COC2=O	OC[C@]12O[C@H]1COC2=O	
InChI=1S/C5H6O4/c6-2-5-3(9-5)1-8-4(5)7/h3,6H,1-2H2	InChI=1S/C5H6O4/c6-2-5-3(9-5)1-8-4(5)7/h3,6H,1-2H2/t3-,5-/m0/s1
