17
gdb 46084	4.43561	1.00581	0.86409	3.0425	82.01	-0.2422	-0.055	0.1872	1296.8507	0.135959	-384.693445	-384.685274	-384.68433	-384.726379	31.241	
O	 0.0054902868	-0.0562195183	 0.2059478937	-0.329127
C	-0.017586656	 1.1444588377	 0.0278906707	 0.390922
C	-1.3206187398	 1.9297931953	-0.0683551715	-0.334732
C	-1.1973876098	 3.1565303103	-0.9783939156	-0.221401
C	-0.037665953	 4.0693542118	-0.5186917116	-0.21132
C	 1.2261380549	 3.2611030545	-0.2913205868	-0.031354
C	 1.2257187909	 1.9425529257	-0.0648236912	-0.173362
C	 0.1957980213	 5.1651931029	-1.4575669321	 0.29312
C	 0.3880872621	 6.0544664638	-2.2424803473	-0.435198
H	-2.1087843154	 1.2498310943	-0.4008056962	 0.125773
H	-1.5827356336	 2.2471340167	 0.9517600201	 0.125005
H	-0.9966087779	 2.8390972247	-2.0075324113	 0.123761
H	-2.1305619535	 3.7263863484	-0.9948606064	 0.116068
H	-0.3182968691	 4.5150424225	 0.450641025	 0.126458
H	 2.1609775736	 3.8143010579	-0.3188944193	 0.122942
H	 2.1501626062	 1.3926578469	 0.0824134367	 0.112106
H	 0.5555488722	 6.8454763748	-2.9310894768	 0.200339
63.2892	139.9582	166.4213	254.8066	317.6657	389.0802	415.4812	459.5171	522.8838	557.2129	628.061	632.2445	650.3794	710.6563	751.9707	761.738	873.9684	938.9168	972.3959	1023.8271	1042.7853	1053.9488	1064.6374	1148.7745	1192.4415	1226.7285	1257.4346	1295.6761	1304.4605	1348.0955	1368.8097	1401.7911	1460.5424	1494.4577	1679.8091	1782.9556	2239.6035	2962.6417	3012.193	3050.1648	3096.5521	3104.2167	3165.8769	3190.4818	3503.4763
O=C1CCC(C=C1)C#C	O=C1CC[C@@H](C=C1)C#C	
InChI=1S/C8H8O/c1-2-7-3-5-8(9)6-4-7/h1,3,5,7H,4,6H2	InChI=1S/C8H8O/c1-2-7-3-5-8(9)6-4-7/h1,3,5,7H,4,6H2/t7-/m1/s1
