18
gdb 94184	2.40584	1.33598	1.22616	4.0132	67.39	-0.2434	0.0166	0.26	1111.122	0.148002	-476.245776	-476.236987	-476.236043	-476.279408	33.33	
N	 0.1330262366	 0.9573383062	 0.0563671092	-0.603321
H	-0.3543538773	 0.2653840697	-0.5007607305	 0.243463
H	 1.0066549743	 0.5499290468	 0.3834626222	 0.250846
H	 0.0486945522	 2.7595958277	-0.4232213522	 0.305326
C	-0.657054798	 1.3980462879	 1.2082612527	 0.108905
C	-1.8872654566	 0.5154025983	 1.570433421	-0.265735
C	-1.0206062096	-0.2585643946	 2.5986531255	-0.251392
C	-0.0286141313	 0.9161359253	 2.5760415175	 0.106229
O	 1.3278756809	 0.5434310894	 2.5557898475	-0.422645
C	-0.9236399771	 2.9043980131	 1.132568914	 0.394993
O	-0.3883036159	 3.4989005267	 0.062637433	-0.376328
O	-1.5423544607	 3.4956693013	 1.9825860823	-0.363673
H	-2.6590070253	 1.1225348613	 2.0459146108	 0.140685
H	-2.3290499112	-0.0516394951	 0.7470622362	 0.102944
H	-1.4668841972	-0.5240359395	 3.558363936	 0.112323
H	-0.5603547385	-1.1482813328	 2.1609598574	 0.111795
H	-0.2468884481	 1.6549199038	 3.3529918896	 0.108624
H	 1.8646444029	 1.3069741646	 2.7930225079	 0.296963
56.8367	115.6585	173.2409	254.0939	283.2604	301.6581	364.5531	394.5481	411.696	442.6738	525.4575	585.8414	683.5131	718.6225	756.6043	817.1406	877.6599	900.6215	940.6478	944.5997	962.6251	987.1084	1072.9436	1097.6985	1152.4318	1185.0617	1219.1432	1239.6674	1256.3439	1268.751	1272.3252	1290.5618	1320.9599	1430.9113	1439.8811	1477.3068	1494.6268	1640.1738	1849.4996	3064.7579	3070.6185	3072.1806	3123.4499	3140.4332	3408.1525	3481.0252	3582.7029	3814.9757
[NH3+]C1(CCC1O)C([O-])=O	N[C@]1(CC[C@H]1O)C(=O)O	
InChI=1S/C5H9NO3/c6-5(4(8)9)2-1-3(5)7/h3,7H,1-2,6H2,(H,8,9)	InChI=1S/C5H9NO3/c6-5(4(8)9)2-1-3(5)7/h3,7H,1-2,6H2,(H,8,9)/t3-,5+/m1/s1
