16
gdb 29360	3.26708	1.23762	0.90372	5.4696	78.58	-0.2143	-0.0493	0.165	1227.6901	0.123876	-437.926284	-437.917537	-437.916593	-437.959676	31.739	
C	-0.0546297043	 1.5357859473	 0.0739494667	-0.523358
C	-0.0117853876	 0.0422265251	 0.0106430607	 0.137596
C	 0.0019125581	-0.7828501383	-1.0941469152	 0.181257
O	 0.0256033361	-2.0884650369	-0.7089064869	-0.164869
C	 0.0380691273	-2.1015313714	 0.6440675944	-0.074512
C	 0.01303964	-0.8278601145	 1.1471566749	 0.143971
N	-0.0706946267	-0.4116406056	 2.48076698	-0.605955
C	-0.0079954215	-0.4848904003	-2.5136237035	 0.068419
O	 0.006002445	-1.304473709	-3.4070396938	-0.287469
H	 0.8628813471	 1.9438864064	 0.5173526154	 0.13226
H	-0.1686453197	 1.9875112988	-0.9129137224	 0.141709
H	-0.8896731474	 1.8710258182	 0.6997014762	 0.146952
H	 0.0535915674	-3.0733063788	 1.1105857028	 0.136802
H	 0.173284974	-1.1361904558	 3.142908636	 0.248871
H	 0.4782989385	 0.4167539308	 2.67222841	 0.249149
H	-0.0297884862	 0.605569904	-2.7292143853	 0.069177
105.4447	124.0912	183.4286	194.2256	225.8477	244.7124	314.2654	357.4231	379.7594	521.7861	629.057	632.2798	672.0756	716.6984	745.2548	770.5389	803.5372	933.8887	1010.9398	1059.3937	1086.0911	1121.1796	1184.1684	1206.5418	1297.9768	1356.4449	1408.8929	1423.3766	1463.6949	1480.6385	1493.6257	1578.6101	1644.234	1670.5465	1779.3529	2888.5265	3022.8042	3073.1417	3132.2572	3269.4972	3539.3781	3629.6312
CC1=C(OC=C1N)C=O	Cc1c(occ1N)C=O	
InChI=1S/C6H7NO2/c1-4-5(7)3-9-6(4)2-8/h2-3H,7H2,1H3	InChI=1S/C6H7NO2/c1-4-5(7)3-9-6(4)2-8/h2-3H,7H2,1H3
