18
gdb 29872	3.08371	1.35753	0.95382	7.1551	84.06	-0.2073	-0.0058	0.2015	1212.2889	0.148865	-402.011286	-402.002799	-402.001855	-402.044491	31.772	
C	-0.0322896677	 1.4909371108	-0.0017258692	-0.347446
N	-0.0064501804	 0.0335230159	 0.0173567996	-0.135104
C	-0.0285789787	-0.6615490682	-1.1695028934	 0.030319
C	-0.0085184168	-2.0107070268	-1.2349360185	-0.287717
C	 0.0387497917	-2.8321593828	-0.026851567	 0.382251
O	 0.0581445489	-4.0605975637	-0.0352204548	-0.40769
C	 0.0598400379	-2.031966311	 1.1949738578	-0.324524
C	 0.0381975985	-0.6732269859	 1.2089082069	 0.386451
C	 0.061133424	 0.116152582	 2.4887394847	-0.489388
H	 0.8603404344	 1.9143859441	 0.4687990933	 0.145224
H	-0.0630077433	 1.826230974	-1.0383657205	 0.146274
H	-0.9153836525	 1.883702986	 0.5116367504	 0.145191
H	-0.0635735593	-0.0399893129	-2.0569372719	 0.124799
H	-0.0274022008	-2.5072666188	-2.1974655788	 0.108611
H	 0.0948411894	-2.5684264748	 2.1362082234	 0.101042
H	 0.0948991826	-0.5686395303	 3.3364090632	 0.146758
H	 0.9354075335	 0.7741149517	 2.5504615076	 0.137513
H	-0.8281804614	 0.7470793106	 2.5987842872	 0.137436
76.473	117.2918	174.2273	228.229	256.7253	330.2036	364.3395	435.8502	460.8618	510.8604	565.3258	574.2787	723.7691	749.088	768.331	835.1404	891.1697	919.9449	956.5108	1024.4754	1060.9173	1062.4706	1146.8769	1158.8132	1196.8566	1237.1061	1253.854	1330.2673	1412.2126	1425.1669	1464.4696	1473.8979	1479.2404	1487.7219	1497.6398	1524.4639	1605.355	1679.3465	1732.7326	3031.295	3041.7874	3082.7507	3098.5439	3144.6397	3148.7243	3190.2158	3198.9761	3214.9265
CN1C=CC(=O)C=C1C	Cn1ccc(=O)cc1C	
InChI=1S/C7H9NO/c1-6-5-7(9)3-4-8(6)2/h3-5H,1-2H3	InChI=1S/C7H9NO/c1-6-5-7(9)3-4-8(6)2/h3-5H,1-2H3
