16
gdb 125905	2.74401	1.32867	0.99684	4.938	78.36	-0.2218	-0.0564	0.1654	1172.7474	0.124804	-434.090516	-434.082091	-434.081146	-434.124144	30.581	
C	 0.1548814955	 1.5114226785	 0.0103885676	-0.389675
C	-0.0258350957	-0.0092786572	-0.0220829615	 0.043009
C	 0.8220073868	-0.6936020925	-1.1393538787	-0.338291
C	 1.9795594108	-1.2470643322	-0.349878661	 0.203336
C	 1.7068721731	-1.2276309716	 1.1006914678	 0.350004
N	 0.4502311446	-0.6555883124	 1.1986029134	-0.33021
O	 2.3937887607	-1.6247439325	 2.0162932072	-0.388759
N	 4.0358042153	-2.1698749735	-1.2516251205	-0.247526
N	 3.0694905248	-1.7355764694	-0.8385197082	 0.127118
H	 1.2145477328	 1.7728883157	 0.0983478112	 0.131809
H	-0.2423058263	 1.9671470697	-0.9025131807	 0.122704
H	-0.3757262884	 1.9495165712	 0.8621481388	 0.119662
H	-1.085707037	-0.2420590562	-0.1712015748	 0.093097
H	 0.2469335156	-1.4863839663	-1.632422453	 0.127563
H	 1.1187132943	 0.0274669322	-1.9066089408	 0.124906
H	 0.147510833	-0.3412316236	 2.1078792634	 0.251254
55.3864	116.1111	146.819	198.6198	260.0909	328.1169	425.1216	429.8172	478.3037	532.8059	544.8939	643.3852	700.267	732.343	762.7256	835.2625	924.6562	979.2134	1042.155	1094.456	1134.4337	1151.7558	1206.78	1260.4121	1276.2913	1338.3754	1389.4423	1408.8384	1417.149	1436.9093	1490.5044	1494.2239	1501.0098	1813.9826	2206.9904	3024.2082	3031.8641	3042.6549	3078.2713	3104.7447	3111.1785	3631.9337
CC1CC2=C(N1)ON=N2	C[C@H]1C[C](C(=O)N1)[N][N]	
InChI=1S/C5H7N3O/c1-3-2-4-5(6-3)9-8-7-4/h3,6H,2H2,1H3	InChI=1S/C5H7N3O/c1-3-2-4(8-6)5(9)7-3/h3H,2H2,1H3,(H,7,9)/t3-/m0/s1
