13
gdb 130109	3.63153	1.72869	1.17481	3.7004	65.07	-0.21	-0.0153	0.1947	942.2958	0.093026	-445.099691	-445.092832	-445.091888	-445.130828	25.866	
N	 0.0185119083	 1.4038193376	 0.1705693925	-0.600433
C	 0.0124342249	 0.0195232784	 0.026085528	 0.360793
N	-1.0261450581	-0.7774931392	-0.0013963189	-0.275582
N	-0.6030112595	-2.112017279	-0.0384625012	-0.361709
C	 0.6989356662	-2.0346237663	-0.0531194418	 0.522404
N	 1.8233792715	-2.8095758867	-0.088741902	-0.368664
N	 2.9556404546	-2.0393238999	-0.0541865284	-0.19097
C	 2.5503807616	-0.8031354479	 0.0008580862	 0.013017
N	 1.1695590569	-0.7377339688	-0.0023776648	-0.083565
H	 0.4245332203	 1.8851098161	-0.6263508669	 0.253649
H	-0.9353924297	 1.7243612573	 0.2951774403	 0.268371
H	 1.8978152473	-3.8085268675	-0.1467400802	 0.293391
H	 3.2051570858	 0.0498939662	 0.0488935474	 0.169298
179.6211	198.9007	233.6706	273.177	307.1834	406.5093	558.7298	648.0093	658.9153	664.991	713.4977	745.5428	801.0164	824.9624	856.7355	974.4964	1035.9969	1084.0201	1137.047	1170.5862	1255.3083	1335.4355	1359.3607	1399.8966	1442.4563	1563.6034	1585.8124	1648.2751	1661.6817	3295.3049	3500.233	3599.0438	3713.7149
NC1=NN=C2NN=CN12	Nc1nnc2[nH]ncn12	
InChI=1S/C3H4N6/c4-2-6-8-3-7-5-1-9(2)3/h1H,(H2,4,6)(H,7,8)	InChI=1S/C3H4N6/c4-2-6-8-3-7-5-1-9(2)3/h1H,(H2,4,6)(H,7,8)
