19
gdb 14030	4.99776	1.1883	1.10654	2.4479	71.99	-0.242	0.0754	0.3174	1126.2144	0.16612	-365.020726	-365.012609	-365.011665	-365.053661	30.437	
O	 0.0653093932	 1.2796719387	-0.5915623859	-0.422665
C	 0.0582930506	 0.1525605497	 0.2683125032	-0.057938
C	-1.3157851958	-0.4700880448	 0.3387438285	-0.118428
N	-1.7443513929	-1.0996459694	-0.935909109	-0.400731
C	-1.5586600646	-1.9290421661	 0.2518039005	 0.367056
C	-0.564742809	-3.0912210837	 0.3816072352	-0.286785
C	-1.5045231013	-3.7008461931	 1.4641012982	-0.207018
C	-2.6271245692	-2.7136195123	 1.0248095861	-0.307156
H	-0.2932479405	 0.9646279161	-1.4303730181	 0.289118
H	 0.7870448394	-0.60331019	-0.0609035894	 0.088366
H	 0.3704593552	 0.5114864475	 1.2549757113	 0.104241
H	-2.0610326972	 0.1205847721	 0.8703232273	 0.087034
H	-2.7357279237	-0.9373720685	-1.0976093021	 0.229578
H	-0.5280329753	-3.6901332513	-0.5329838313	 0.110527
H	 0.4576553307	-2.8533901154	 0.6838847012	 0.105397
H	-1.7283626516	-4.7654260757	 1.3775996507	 0.103211
H	-1.1531088156	-3.4995363058	 2.4786519838	 0.108065
H	-3.171486052	-2.1824560014	 1.8102876195	 0.103187
H	-3.3524292003	-3.1864300265	 0.3538053703	 0.104942
65.4679	95.3435	155.7004	198.0161	298.3278	378.3038	433.0084	455.5544	501.9888	583.5216	715.6052	784.9298	830.2295	848.7112	893.5206	931.1441	951.5493	966.0018	1001.3897	1018.2177	1031.1064	1077.8003	1094.8295	1135.8625	1175.5053	1197.649	1218.5857	1248.4588	1251.7979	1261.7811	1276.346	1296.4591	1341.3723	1377.6998	1428.4961	1471.4469	1477.5864	1481.2601	1497.7414	1508.73	2991.7134	3042.7314	3060.0553	3071.0947	3071.8609	3094.6538	3108.7912	3116.3257	3129.2476	3490.4517	3784.2098
OCC1NC11CCC1	OC[C@H]1NC21CCC2	
InChI=1S/C6H11NO/c8-4-5-6(7-5)2-1-3-6/h5,7-8H,1-4H2	InChI=1S/C6H11NO/c8-4-5-6(7-5)2-1-3-6/h5,7-8H,1-4H2/t5-/m1/s1
