17
gdb 24674	4.44255	1.14146	0.97898	3.1557	77.13	-0.1814	0.0291	0.2106	1203.0412	0.136627	-418.001461	-417.993297	-417.992353	-418.034735	30.563	
C	 0.9428919087	 0.6838561615	 0.4615878941	-0.27529
C	 0.4854919069	 0.1977874475	-0.8936879438	-0.275302
C	-0.525375399	 0.3969913158	 0.2180256944	 0.064888
N	-1.2712052179	-0.6428764112	 0.8429103368	-0.40814
C	-0.8325959239	-1.793416643	 1.1071615528	 0.520577
N	-1.5427502759	-2.8151683661	 1.7133648693	-0.36384
C	-0.7386661796	-3.9410064767	 1.8457487933	-0.092728
C	 0.4535765326	-3.6266714655	 1.3301737477	-0.043233
O	 0.4332470117	-2.3204268574	 0.8684333243	-0.226293
H	 1.4974603904	-0.0162257027	 1.0737380453	 0.118908
H	 1.2423566659	 1.7203711614	 0.5752252966	 0.10304
H	 0.4662642921	 0.8958951347	-1.7238932874	 0.103036
H	 0.7423273348	-0.8186992455	-1.1641594221	 0.118925
H	-1.1401355258	 1.2849098598	 0.1069998121	 0.083862
H	-2.4983991328	-2.7054875788	 1.9976503279	 0.273869
H	-1.089794378	-4.8549956931	 2.2922384712	 0.149477
H	 1.3746225299	-4.1685387706	 1.2132977477	 0.148244
72.1266	86.2195	148.8993	176.5025	315.7853	327.3996	437.0396	541.4327	579.8463	669.7898	695.6348	725.4647	770.4556	785.1567	815.8667	832.7249	886.4233	909.3695	917.4208	1004.6383	1044.6229	1052.0305	1069.7631	1119.7428	1142.6761	1145.3134	1174.9126	1200.9465	1211.2998	1249.2845	1380.5736	1410.3477	1425.9183	1462.1755	1495.2424	1662.6673	1820.4165	3137.3086	3139.5865	3147.4287	3226.6397	3239.6138	3286.8186	3314.4513	3714.4877
C1CC1N=C1NC=CO1	C1CC1N=c1[nH]cco1	
InChI=1S/C6H8N2O/c1-2-5(1)8-6-7-3-4-9-6/h3-5H,1-2H2,(H,7,8)	InChI=1S/C6H8N2O/c1-2-5(1)8-6-7-3-4-9-6/h3-5H,1-2H2,(H,7,8)
