22
gdb 101132	3.34815	1.12222	0.98129	2.1976	82.64	-0.2254	0.0784	0.3038	1314.959	0.193073	-404.292426	-404.282823	-404.281879	-404.327461	35.599	
C	-0.0018290982	 1.4105165009	-0.1582241486	-0.232436
O	-0.0114743483	 0.0397325029	 0.161496995	-0.247515
C	-1.2789222438	-0.5913532586	 0.063846855	 0.022629
C	-1.7082263013	-0.7896863106	-1.3949117817	-0.410925
C	-1.208944129	-1.9081425424	 0.8070228071	 0.354448
C	-0.0418985738	-2.3673098044	 1.5815293372	-0.279778
N	-0.374956869	-3.0983754796	 0.3404915774	-0.166586
C	-1.5291984637	-3.9901034973	 0.7118446127	-0.145671
C	-2.4256718553	-2.7867175433	 1.1060267988	-0.322339
H	 0.9962090703	 1.7868317481	 0.0802477839	 0.127671
H	-0.198357438	 1.6027742795	-1.2226022809	 0.108975
H	-0.7421428153	 1.970363625	 0.4354944108	 0.101491
H	-2.0313840225	 0.0320229102	 0.5824762447	 0.062957
H	-0.974619788	-1.4186381788	-1.9052660128	 0.145496
H	-2.6852158998	-1.2795559732	-1.448019069	 0.113938
H	-1.7934861986	 0.1643537465	-1.9218009756	 0.112715
H	 0.8625873417	-1.7785414574	 1.4916313253	 0.135685
H	-0.1830761352	-2.8670333835	 2.5393805798	 0.097488
H	-1.8823105173	-4.5350018116	-0.1658543293	 0.108885
H	-1.2864338717	-4.7087895899	 1.5021463386	 0.102595
H	-2.8159029803	-2.7411634386	 2.1274983912	 0.100692
H	-3.255059043	-2.6385787337	 0.4114469904	 0.109588
42.6618	64.1325	159.6077	186.0707	201.8504	234.7855	292.7505	342.8603	368.9699	433.3433	480.5912	536.5159	673.6599	746.4361	781.7219	813.0399	838.6217	889.3067	934.3117	965.5813	992.6329	1040.1794	1048.3333	1103.0789	1106.7854	1116.4682	1126.2469	1162.5328	1181.1363	1195.1842	1207.6536	1220.8003	1234.7433	1272.5352	1304.3487	1348.9489	1370.699	1397.4206	1404.4466	1476.2014	1481.8793	1486.7659	1490.3943	1493.9877	1505.4906	1512.3054	1517.5701	2926.9416	2975.0077	3027.1973	3041.9219	3047.5746	3053.1642	3093.8584	3099.7756	3110.1087	3112.7427	3118.9516	3134.2647	3222.1563
COC(C)C12CN1CC2	CO[C@@H](C)[C@]12CN1CC2	
InChI=1S/C7H13NO/c1-6(9-2)7-3-4-8(7)5-7/h6H,3-5H2,1-2H3	InChI=1S/C7H13NO/c1-6(9-2)7-3-4-8(7)5-7/h6H,3-5H2,1-2H3/t6-,7-,8?/m0/s1
