14
gdb 129664	3.47845	1.30274	0.95435	5.7495	68.3	-0.2325	-0.059	0.1735	1139.852	0.101718	-466.184162	-466.175796	-466.174852	-466.217217	29.958	
N	-0.1030709427	 1.4444688676	 0.0060904746	-0.606416
C	-0.0599665169	 0.035186069	 0.0057619955	 0.182537
C	-1.1559522741	-0.7901357108	 0.0290054022	 0.357536
N	-2.5025736457	-0.4823187845	-0.0137699626	-0.606562
N	-0.6318452038	-2.0594373525	 0.0188933771	-0.078177
C	-1.3255258299	-3.2762042274	-0.0620975055	 0.188048
O	-0.814327762	-4.3567214703	-0.0348391873	-0.249844
N	 0.7612573374	-1.9927319016	 0.018702053	-0.129432
N	 1.0701797189	-0.7479869819	-0.0035941603	-0.203644
H	 0.5395676471	 1.8245233473	 0.6942771582	 0.253916
H	 0.172615355	 1.8260241314	-0.8945204807	 0.252534
H	-2.6234421696	 0.5218768291	 0.0661820301	 0.271353
H	-3.0757621128	-0.9631552738	 0.6683547442	 0.261926
H	-2.4120802207	-3.1034018516	-0.1666437985	 0.106225
97.7007	137.7518	175.859	212.9374	253.686	303.9786	324.0602	330.0206	413.5505	547.6969	669.0722	684.8545	721.6902	773.803	781.0567	797.8471	868.9612	1017.5228	1030.5963	1112.6886	1192.6218	1235.3288	1256.8395	1353.0564	1414.5227	1442.0883	1508.1199	1630.7538	1654.7113	1694.0439	1851.0334	2974.5456	3493.4171	3520.4839	3560.7864	3611.5088
NC1=C(N)N(C=O)N=N1	Nc1c(N)n(C=O)nn1	
InChI=1S/C3H5N5O/c4-2-3(5)8(1-9)7-6-2/h1H,4-5H2	InChI=1S/C3H5N5O/c4-2-3(5)8(1-9)7-6-2/h1H,4-5H2
