19
gdb 20043	5.15926	1.3026	1.15266	1.3768	79.17	-0.2178	0.0272	0.2451	1086.4413	0.1678	-327.916279	-327.90878	-327.907836	-327.948414	28.485	
C	 0.2651382862	 1.5292823122	 0.0844461932	-0.242317
N	 1.2697883908	 0.4936484463	-0.1766463793	-0.314719
C	-0.1394647404	 0.0916725193	 0.0559194937	-0.14288
C	-0.4326231732	-0.6880009383	 1.2734963739	 0.418229
C	-1.3665447286	-1.6373158737	 1.3866163772	-0.192678
C	-1.4448762804	-2.2085383023	 2.7813110089	-0.244271
C	-0.138391991	-1.6907786234	 3.4363459693	-0.208472
C	 0.2855936651	-0.4649173162	 2.5897121172	-0.312223
H	 0.3767114263	 2.0407057533	 1.0360609818	 0.120376
H	-0.0706761332	 2.1634557358	-0.7322461583	 0.11124
H	 1.4778736174	 0.4485523369	-1.1704540798	 0.233153
H	-0.7113187622	-0.2135641782	-0.8185386332	 0.078117
H	-2.0297386294	-1.9481841916	 0.5854175469	 0.078175
H	-2.3391697968	-1.8384609622	 3.3045153564	 0.101156
H	-1.5163048522	-3.3022519324	 2.7945827515	 0.098745
H	-0.2578438449	-1.4539032877	 4.4966707275	 0.092887
H	 0.6328412863	-2.4641730831	 3.362528584	 0.105326
H	 1.3687393281	-0.3838410002	 2.4602141175	 0.122407
H	-0.045917238	 0.4771899157	 3.0502306915	 0.09775
74.7343	128.2348	178.5492	191.1488	339.796	406.5057	538.8842	587.6849	654.3449	800.779	824.5504	846.8551	866.1828	897.8665	906.4346	919.1244	929.0515	960.8049	972.4464	1034.9091	1068.5262	1080.686	1118.9801	1141.7806	1153.3344	1197.7077	1227.1677	1233.1126	1259.1256	1283.4963	1291.1075	1320.1055	1328.6485	1374.2017	1428.1407	1484.9931	1490.175	1505.9533	1510.7362	1711.94	2996.094	3000.6601	3043.3639	3056.8613	3081.8413	3100.4702	3107.4177	3121.7908	3178.7326	3193.4294	3506.3956
C1NC1C1=CCCC1	C1N[C@H]1C1=CCCC1	
InChI=1S/C7H11N/c1-2-4-6(3-1)7-5-8-7/h3,7-8H,1-2,4-5H2	InChI=1S/C7H11N/c1-2-4-6(3-1)7-5-8-7/h3,7-8H,1-2,4-5H2/t7-/m1/s1
