18
gdb 36418	3.96876	1.08787	1.01991	1.4212	76.92	-0.2139	0.044	0.2579	1204.5902	0.147447	-401.88128	-401.873131	-401.872186	-401.914346	31.162	
C	-0.3131909509	-0.9525287526	-0.4774402421	-0.432178
C	-0.1080454575	 0.2240868099	-0.3440393831	 0.306504
C	 0.1333050138	 1.6595090786	-0.2127525703	-0.322306
N	 1.4945055765	 1.9549832747	 0.2573812671	-0.076669
C	 2.5505255789	 1.5707800104	-0.6984831367	-0.210432
C	 2.9937391843	 2.8600253457	-1.365202116	 0.044212
O	 1.8950588084	 3.6505089631	-1.8437507527	-0.252376
C	 2.469814331	 3.9730055735	-0.5700027389	 0.046914
C	 1.6963901629	 3.3762674809	 0.5926505585	-0.207787
H	-0.4989401104	-1.9924558187	-0.5845128544	 0.195311
H	-0.0980930995	 2.1539600272	-1.1709128517	 0.134148
H	-0.5661191454	 2.0631078301	 0.5290818499	 0.130354
H	 3.4088012756	 1.126712608	-0.1741377461	 0.105044
H	 2.1737495426	 0.8236818402	-1.4016218982	 0.127786
H	 3.9115451333	 2.9153838614	-1.9450056745	 0.097039
H	 2.9570643268	 4.9416786983	-0.4929004486	 0.096936
H	 0.7369133721	 3.8730056806	 0.7647092648	 0.11222
H	 2.2936135774	 3.4801912487	 1.510415023	 0.105281
59.4762	113.5015	158.9673	291.44	334.1094	369.1695	387.7957	403.1159	497.61	606.4127	659.1854	679.3375	736.2077	832.4393	853.3291	869.3963	900.4844	945.8171	962.5208	992.17	1007.5964	1018.9038	1041.8758	1114.7396	1132.7915	1141.9415	1213.1844	1253.4627	1271.4498	1312.2018	1313.7836	1331.5877	1353.0443	1385.3698	1447.2094	1487.6349	1492.5851	1502.8582	2239.4575	2968.1139	2999.5685	3006.9555	3044.9717	3083.0479	3097.9295	3144.1341	3157.1781	3505.8018
C#CCN1CC2OC2C1	C#CCN1C[C@H]2O[C@H]2C1	
InChI=1S/C7H9NO/c1-2-3-8-4-6-7(5-8)9-6/h1,6-7H,3-5H2	InChI=1S/C7H9NO/c1-2-3-8-4-6-7(5-8)9-6/h1,6-7H,3-5H2/t6-,7+
