18
gdb 14989	4.61426	1.4141	1.15342	1.4421	70.6	-0.2432	0.0156	0.2588	1052.3156	0.154174	-384.926646	-384.91878	-384.917836	-384.959064	28.936	
C	-0.0063794464	 1.3967240989	-0.0087745482	-0.23637
O	-0.0654145254	-0.00846783	 0.0686511701	-0.244841
C	 0.6733383491	-0.5673658167	 1.1473979996	 0.078555
C	 0.063635529	-1.9436653579	 1.4298987914	-0.114558
O	 0.8622185924	-2.6677725595	 2.3451686735	-0.249104
C	 2.1383611039	-2.9922993686	 1.8275215914	-0.111288
C	 2.7935034835	-1.8512862033	 1.1010071131	-0.078787
C	 2.1357329364	-0.7323921924	 0.8086260548	-0.077212
H	 1.0130784001	 1.7689614159	-0.1895805052	 0.106505
H	-0.6377904038	 1.7000667709	-0.8476245032	 0.128591
H	-0.3849650023	 1.8698933593	 0.9108727068	 0.106326
H	 0.556765629	 0.0721251	 2.0387014686	 0.076229
H	-0.9262189602	-1.8465141104	 1.8818577921	 0.110008
H	-0.042812471	-2.4775731675	 0.4726134215	 0.100807
H	 2.7460662364	-3.3042030695	 2.685509929	 0.117874
H	 2.070754329	-3.8664272982	 1.1528653744	 0.100575
H	 3.8327503853	-1.990124898	 0.8133456063	 0.094748
H	 2.6264319948	 0.085069307	 0.2878018439	 0.091941
87.1036	106.9353	178.2567	252.1765	304.2621	312.3938	384.6525	482.343	501.2203	556.0011	700.7832	781.0703	895.1276	919.2759	972.085	989.3779	1021.2037	1031.7004	1077.6022	1111.4446	1130.7763	1160.4778	1183.264	1216.7724	1221.0109	1244.4189	1300.1585	1343.094	1345.8219	1372.5719	1407.2013	1425.1346	1480.4302	1485.6644	1490.5821	1501.079	1509.6045	1721.6062	2933.3524	2954.7715	2976.7332	2991.6814	3022.9972	3048.1548	3102.3428	3112.4071	3151.9363	3175.4185
COC1COCC=C1	CO[C@H]1COCC=C1	
InChI=1S/C6H10O2/c1-7-6-3-2-4-8-5-6/h2-3,6H,4-5H2,1H3	InChI=1S/C6H10O2/c1-7-6-3-2-4-8-5-6/h2-3,6H,4-5H2,1H3/t6-/m1/s1
