17
gdb 61971	2.90048	0.88196	0.73088	2.2521	70.65	-0.2798	-0.0029	0.2769	1527.7714	0.133681	-455.15315	-455.143087	-455.142143	-455.189333	34.631	
C	-1.2402942453	 0.8710062662	-0.1904716597	-0.445602
C	-0.1632428313	-0.1495070317	 0.0295041884	 0.420212
N	 0.4728378938	-0.2455336338	 1.1195177542	-0.511034
O	-0.0084391612	-0.9078334011	-1.102390701	-0.24058
C	 0.940912468	-1.9543061683	-1.0811382218	-0.113489
C	 0.8703957259	-2.6585925035	-2.4446137401	-0.029515
O	 1.8864084256	-3.6300626796	-2.5716098131	-0.404443
C	-0.4690193542	-3.2341987537	-2.6754740871	 0.258926
N	-1.4980558233	-3.7338401201	-2.8362180792	-0.309995
H	-0.9829137996	 1.5159723641	-1.0363033758	 0.142028
H	-2.184279363	 0.3751626395	-0.4361559394	 0.149071
H	-1.3607439425	 1.4727244355	 0.7088288747	 0.151961
H	 1.1751580187	-0.9834486092	 1.117225424	 0.219524
H	 1.9610547884	-1.5732520736	-0.9497035943	 0.133142
H	 0.7235559678	-2.6689200615	-0.2751778457	 0.11972
H	 1.0593104053	-1.9137438189	-3.2242796016	 0.157708
H	 1.6603994768	-4.3890354104	-2.0214185523	 0.302367
51.1639	54.7266	117.3688	146.9479	158.0128	211.3251	240.7073	313.6421	324.1356	332.9221	476.1143	556.994	574.122	607.7365	622.2653	810.3784	872.149	889.6833	994.4328	1047.1968	1076.8361	1078.7113	1103.9009	1113.9737	1143.281	1233.0988	1271.4873	1310.7462	1344.037	1396.9618	1416.6698	1418.5424	1473.8821	1477.5454	1516.1068	1745.0212	2360.4908	3008.0772	3053.3277	3061.6326	3080.9104	3112.2066	3173.2132	3503.1561	3803.2758
CC(=N)OCC(O)C#N	C[C]([NH])OC[C@@H](O)C#N	
InChI=1S/C5H8N2O2/c1-4(7)9-3-5(8)2-6/h5,7-8H,3H2,1H3	InChI=1S/C5H8N2O2/c1-4(7)9-3-5(8)2-6/h5,7-8H,3H2,1H3/t5-/m0/s1
