17
gdb 35780	3.89997	1.24716	1.04645	1.959	74.36	-0.2557	0.0343	0.29	1140.5061	0.135746	-421.763853	-421.756104	-421.75516	-421.796087	30.244	
C	 0.0186317305	-1.1802618789	-0.0278092875	-0.390755
C	 0.0241851069	 0.0172000007	 0.0393168644	 0.290194
C	 0.001120094	 1.4767925209	 0.0777744942	 0.030869
O	-0.7065104159	 1.8991538261	 1.2200326273	-0.2464
C	-0.9793134521	 3.2964761364	 1.1523334344	-0.105822
C	 0.2710249439	 4.0928647504	 0.8397150351	-0.071987
C	 1.5400587963	 3.8845044868	 1.634416036	-0.302397
C	 1.4310567831	 3.3371755555	 0.2360800022	 0.102477
O	 1.3340756128	 1.9420236647	 0.0919098363	-0.253609
H	 0.0199096664	-2.2413984634	-0.0768631753	 0.200087
H	-0.512592077	 1.86938161	-0.8202570643	 0.084915
H	-1.7394880852	 3.4852045411	 0.3767715191	 0.098561
H	-1.4077841054	 3.5662434391	 2.1219003149	 0.119081
H	 0.0837532742	 5.0906077111	 0.4548358106	 0.095774
H	 2.182993911	 4.7390108278	 1.813289697	 0.113784
H	 1.5158024549	 3.14456245	 2.4268227447	 0.135341
H	 2.0127217017	 3.7918357715	-0.5607546191	 0.099887
94.14	147.5008	183.1574	279.4542	356.7767	392.2589	471.0054	487.195	547.9396	612.4867	652.6993	674.2362	725.6814	767.8185	817.8532	854.2497	936.8238	969.2997	997.8828	1011.2259	1048.9489	1070.4343	1082.7162	1107.7205	1128.08	1145.4475	1182.6873	1227.2347	1280.5879	1351.3298	1377.353	1392.6814	1406.1188	1417.4701	1478.0183	1500.5919	2259.7086	2919.8976	2974.6566	3082.8442	3136.3585	3142.8849	3157.6861	3230.4942	3503.9056
C#CC1OCC2CC2O1	C#C[C@H]1OC[C@H]2C[C@H]2O1	
InChI=1S/C7H8O2/c1-2-7-8-4-5-3-6(5)9-7/h1,5-7H,3-4H2	InChI=1S/C7H8O2/c1-2-7-8-4-5-3-6(5)9-7/h1,5-7H,3-4H2/t5-,6-,7+/m1/s1
