19
gdb 114028	4.60107	0.59073	0.56476	1.3579	73.79	-0.2553	-0.0265	0.2289	1917.2239	0.156413	-460.142048	-460.131977	-460.131033	-460.179141	34.549	
O	-0.0818216232	 1.19866339	-0.9559789699	-0.415899
C	 0.0318952124	 0.2299087059	 0.072378359	-0.086089
C	-1.2879133999	-0.4634633264	 0.3012803022	 0.029886
O	-1.6834440353	-1.4004964358	-0.718748947	-0.272114
C	-1.4674330304	-1.8920468023	 0.6092037383	 0.065139
C	-0.360630165	-2.9040877381	 0.7962591154	-0.247892
C	-0.7537040583	-4.2689258835	 0.1967974113	-0.264622
C	 0.3818809714	-5.2631602793	 0.2691095539	 0.154954
O	 0.3240036938	-6.34180219	 0.7994775834	-0.232847
H	-0.3929276357	 0.7361829091	-1.7425135792	 0.293802
H	 0.821210448	-0.5000628093	-0.1520994332	 0.093104
H	 0.325183084	 0.7749949113	 0.9763711106	 0.116948
H	-2.0901543812	 0.2155576598	 0.5962192102	 0.10217
H	-2.3945730348	-2.1582579358	 1.1229684555	 0.096515
H	 0.5617669015	-2.5509745274	 0.3262318977	 0.112274
H	-0.1579473483	-3.0136741296	 1.8688244783	 0.120722
H	-1.6266007326	-4.6954024685	 0.699386767	 0.123635
H	-1.0034103752	-4.1174457887	-0.8626086967	 0.138425
H	 1.3235394588	-4.9157120815	-0.2193908766	 0.07189
41.6595	56.0405	71.7848	88.7033	134.7363	189.1479	275.483	300.9587	397.815	449.268	486.4703	505.5561	582.7468	750.3637	797.1269	831.4823	861.29	929.3457	1001.2363	1012.2307	1045.3679	1070.2755	1093.1604	1109.2295	1163.0605	1165.8115	1212.217	1230.8501	1263.0638	1301.9754	1312.9985	1350.1009	1368.9211	1401.5868	1428.7288	1434.4471	1462.1218	1479.5167	1493.6318	1496.4116	1838.2321	2848.4042	3011.6926	3022.9935	3039.7862	3071.1774	3075.9904	3089.1326	3102.0678	3108.8908	3801.9037
OCC1OC1CCC=O	OC[C@H]1O[C@H]1CCC=O	
InChI=1S/C6H10O3/c7-3-1-2-5-6(4-8)9-5/h3,5-6,8H,1-2,4H2	InChI=1S/C6H10O3/c7-3-1-2-5-6(4-8)9-5/h3,5-6,8H,1-2,4H2/t5-,6+/m0/s1
