25
gdb 101250	2.98606	0.8584	0.8	1.3056	89.81	-0.2452	0.077	0.3222	1614.378	0.225957	-389.48901	-389.477789	-389.476845	-389.525071	42.069	
C	 2.6994758119	 1.777398061	 2.4621773058	-0.393923
C	 1.8133990013	 0.540851458	 2.2824624136	-0.158511
C	 2.5369964037	-0.69522851	 1.7104765929	 0.010317
C	 3.6217837182	-1.2310942704	 2.658096475	-0.39569
C	 1.5284280984	-1.7845744534	 1.387595533	-0.010344
C	 0.6920554729	-1.7592036804	 0.1186411079	-0.371083
C	 1.7231558439	-2.8441542598	 0.3412524117	 0.384631
C	 2.9547035381	-2.9271265352	-0.5324542746	-0.452567
O	 1.2377103923	-4.104295372	 0.7436342413	-0.469082
H	 3.1767776452	 2.0622851438	 1.5173050244	 0.110504
H	 2.1099383904	 2.6335639878	 2.8052593642	 0.110933
H	 3.4935632215	 1.6132472677	 3.197146345	 0.11759
H	 1.3574446597	 0.2711951409	 3.2452216827	 0.091007
H	 0.9808664224	 0.7911762819	 1.6137767645	 0.096253
H	 3.022909512	-0.3823466896	 0.7754407306	 0.062125
H	 4.3883462094	-0.4794452303	 2.8679158262	 0.110703
H	 3.1822088935	-1.5370785414	 3.614991458	 0.113226
H	 4.1204006277	-2.1056988668	 2.2300517785	 0.117761
H	 0.9972700395	-2.1606377078	 2.2598635136	 0.08984
H	-0.353237002	-2.0386394124	 0.1916136195	 0.107362
H	 0.9091990092	-0.9905664833	-0.6179833531	 0.102431
H	 2.7217698108	-3.4465166668	-1.4707920097	 0.104673
H	 3.3401581711	-1.9388650528	-0.7949928782	 0.119759
H	 3.7482732941	-3.4883509326	-0.0287457542	 0.12579
H	 0.9182148946	-4.5592996258	-0.0439959784	 0.276292
64.6417	79.9293	118.2932	162.559	216.2365	221.4611	249.9887	256.2507	302.164	318.3254	339.7111	367.9915	425.4144	454.4918	487.3653	519.021	716.2962	770.8855	813.9945	846.4563	898.1576	926.269	945.7776	964.3572	978.6433	993.6121	1039.532	1046.5483	1066.0638	1082.1226	1116.1678	1149.4797	1181.5942	1201.6898	1237.6852	1284.3388	1292.8516	1307.2328	1346.6771	1365.8506	1378.4324	1406.5265	1413.0823	1416.2159	1426.9137	1480.5946	1482.9859	1487.9166	1494.6719	1497.7363	1505.541	1510.6057	1512.4906	3000.2902	3014.1553	3023.7523	3030.0566	3032.2146	3051.8067	3084.7573	3094.875	3097.1451	3103.8333	3112.4656	3118.6943	3122.8707	3130.511	3211.4567	3784.9719
CCC(C)C1CC1(C)O	CC[C@@H](C)[C@H]1C[C@]1(C)O	
InChI=1S/C8H16O/c1-4-6(2)7-5-8(7,3)9/h6-7,9H,4-5H2,1-3H3	InChI=1S/C8H16O/c1-4-6(2)7-5-8(7,3)9/h6-7,9H,4-5H2,1-3H3/t6-,7-,8+/m1/s1
