16
gdb 28640	5.69358	1.00031	0.85531	1.6294	91.27	-0.2362	-0.0384	0.1978	1313.0825	0.124625	-363.651417	-363.643218	-363.642274	-363.684642	30.502	
C	-0.0527996677	 1.5147043366	-0.0083021278	-0.468391
C	-0.0155995677	 0.0105581571	 0.0289536644	 0.324675
N	-0.2360273292	-0.6214748694	-1.1350106721	-0.3114
C	-0.2128919342	-1.9485204034	-1.1504562643	-0.071382
C	 0.0292520889	-2.7476714604	-0.0192838734	 0.09684
C	 0.2579794239	-2.079160573	 1.189782805	-0.16666
C	 0.2347118874	-0.6929915432	 1.2103695796	-0.151267
C	 0.0385734974	-4.1663940452	-0.1127490733	 0.225426
C	 0.0450207675	-5.3676326607	-0.1991222999	-0.411874
H	 0.1359208807	 1.9502125803	 0.9757538678	 0.11852
H	 0.6956586866	 1.8958803233	-0.7104883299	 0.143443
H	-1.0279398656	 1.861794796	-0.3649015345	 0.143442
H	-0.3952218574	-2.4280411785	-2.1089483404	 0.116645
H	 0.449890374	-2.6479740827	 2.0927213864	 0.114548
H	 0.4092645882	-0.155208594	 2.1358268421	 0.101524
H	 0.0507054673	-6.4267059129	-0.2752711997	 0.19591
53.7205	98.5631	143.2066	238.0854	347.8283	413.592	435.3655	435.9259	532.5892	552.7163	593.5949	648.8588	658.312	706.8193	758.8529	845.6851	860.3027	967.7932	990.894	1007.6709	1040.7047	1060.332	1158.5524	1229.6828	1256.7127	1288.3221	1330.6149	1400.2828	1409.839	1474.7369	1484.5693	1513.8523	1585.8669	1635.0268	2226.8325	3040.999	3100.8727	3126.6249	3160.9871	3183.4731	3201.4647	3503.1099
CC1=NC=C(C=C1)C#C	Cc1ncc(cc1)C#C	
InChI=1S/C8H7N/c1-3-8-5-4-7(2)9-6-8/h1,4-6H,2H3	InChI=1S/C8H7N/c1-3-8-5-4-7(2)9-6-8/h1,4-6H,2H3
