19
gdb 73351	2.57346	2.0242	1.66276	1.4146	78.1	-0.2267	0.009	0.2357	915.0884	0.161298	-385.88996	-385.882958	-385.882014	-385.920756	29.497	
C	-0.0112940625	 1.5315928992	-0.0842349403	-0.473308
C	-0.0269210572	 0.0214017524	 0.0403551385	 0.351565
O	 0.6394709769	-0.5343612899	-1.1146135384	-0.289881
C	 0.2468875415	-1.9050484629	-1.2133255038	-0.103745
C	-1.1362308172	-2.0005661472	-0.5695271589	-0.081655
C	-1.2609541583	-1.8511191289	 0.9582616893	-0.093902
C	 0.0032920546	-1.633428109	 1.7267030117	-0.095798
C	 0.6602850523	-0.5637786855	 1.2756880707	-0.121283
C	-1.4155114029	-0.6649822966	 0.0465553038	-0.114598
H	 1.0171910675	 1.9016057284	-0.1266759388	 0.124752
H	-0.524427301	 1.8443542003	-0.9983948637	 0.122273
H	-0.5079571729	 1.9904871107	 0.7755630154	 0.12021
H	 0.2216033947	-2.1720046171	-2.2742922517	 0.104003
H	 0.9787244623	-2.5525278433	-0.710370484	 0.095204
H	-1.9154262864	-2.5519773572	-1.0836548243	 0.091053
H	-2.118037195	-2.3175543107	 1.431190655	 0.084814
H	 0.339031859	-2.3013277268	 2.5119205921	 0.097328
H	 1.6383830031	-0.2257899229	 1.5976262762	 0.096925
H	-2.3320290284	-0.1046795229	-0.0874074989	 0.086043
212.1163	218.1073	276.3585	285.7763	356.0652	439.1875	552.6771	601.9046	653.9172	718.3977	747.804	750.3447	800.8821	809.1269	824.5025	872.5002	917.6817	945.7439	963.0135	972.8749	994.4855	1019.4151	1042.3475	1077.4373	1098.0309	1112.2641	1134.2923	1142.8468	1205.7014	1211.7271	1241.2342	1296.6473	1326.4803	1360.3059	1375.8768	1393.0133	1409.6894	1482.6579	1493.2405	1512.4476	1660.7985	3005.0041	3041.9195	3074.003	3116.0621	3118.6949	3168.0271	3174.7084	3187.3855	3192.8206	3212.9266
CC12OCC3C(C=C1)C23	C[C@@]12OC[C@H]3[C@@H](C=C1)[C@@H]23	
InChI=1S/C8H10O/c1-8-3-2-5-6(4-9-8)7(5)8/h2-3,5-7H,4H2,1H3	InChI=1S/C8H10O/c1-8-3-2-5-6(4-9-8)7(5)8/h2-3,5-7H,4H2,1H3/t5-,6+,7-,8-/m1/s1
