14
gdb 20369	6.16221	1.40434	1.25732	4.1018	63.34	-0.2764	-0.0401	0.2362	938.8766	0.108292	-378.669807	-378.663344	-378.6624	-378.701012	23.892	
C	-0.1832844046	 1.3598605397	-0.2755454954	-0.26751
C	 1.2213304365	 1.0718702213	 0.1621797725	-0.267486
C	 0.2150106549	-0.0605317488	 0.0790117433	-0.09657
C	-0.29617048	-0.692121471	 1.3040392957	 0.363549
N	-0.5757116219	-1.9699161081	 1.3625248353	-0.168678
O	-1.0209456228	-2.2041945603	 2.6367956527	-0.149791
N	-1.0192845549	-1.0618835723	 3.3807130858	-0.059355
C	-0.5805275013	-0.1277582047	 2.585928097	-0.124419
H	-0.8398935258	 1.884040591	 0.4102608427	 0.124531
H	-0.3694853235	 1.5749202023	-1.3213659086	 0.130505
H	 2.0116692558	 1.0867114543	-0.5793077405	 0.130509
H	 1.5309453598	 1.3978898923	 1.1491335815	 0.124539
H	 0.3283349671	-0.757234277	-0.7429733958	 0.115172
H	-0.4811967795	 0.8887236011	 2.9339264639	 0.145003
68.9556	177.1342	177.1946	408.8756	423.2461	620.0915	644.8372	724.7222	786.6684	832.0809	888.7426	900.3	911.3869	917.2881	936.2655	1023.4264	1052.3823	1060.8411	1067.2216	1083.4318	1133.2142	1200.5545	1210.6657	1227.1109	1363.6649	1431.0829	1473.85	1481.6895	1504.1466	1617.5166	3138.577	3142.254	3185.7536	3218.7226	3234.0627	3266.5372
C1CC1C1=NON=C1	C1CC1c1nonc1	
InChI=1S/C5H6N2O/c1-2-4(1)5-3-6-8-7-5/h3-4H,1-2H2	InChI=1S/C5H6N2O/c1-2-4(1)5-3-6-8-7-5/h3-4H,1-2H2
