19
gdb 47732	2.52287	1.65288	1.13653	1.9478	75.68	-0.221	-0.0274	0.1936	1091.7514	0.162135	-419.203332	-419.195437	-419.194493	-419.235793	30.831	
O	 0.0676144422	 0.02897745	 0.3469339558	-0.33401
C	 0.0199523225	 1.2147938937	 0.0908760318	 0.319143
C	-1.3051852487	 1.9539195632	-0.1022044961	-0.276431
N	-1.2730879184	 3.0897775859	-1.0205019558	-0.282858
C	-0.1482363747	 3.987500625	-0.7512068097	-0.173633
C	 1.2159385966	 3.2913217957	-0.8685236622	-0.288975
C	 1.272611022	 2.0485862092	 0.0042042985	 0.240931
C	 2.1025907649	 1.9994791956	 1.2571953376	-0.26062
N	 2.5395342665	 1.3124900916	 0.0467067708	-0.354157
H	-2.0634027813	 1.2305393821	-0.4131523149	 0.131826
H	-1.6061463254	 2.3194705902	 0.8920471077	 0.132562
H	-1.209299028	 2.7490189537	-1.9754196237	 0.221246
H	-0.2030098561	 4.8348860948	-1.4418146436	 0.107856
H	-0.2800654639	 4.3924476481	 0.2611912805	 0.107786
H	 1.3778128886	 2.9947258173	-1.9136322442	 0.106673
H	 2.0350854299	 3.9705397281	-0.6075871748	 0.105927
H	 2.6768491118	 2.8816971509	 1.5292281586	 0.121821
H	 1.7336450927	 1.4058358981	 2.0892642342	 0.128054
H	 2.3055557788	 0.3220426166	 0.1330478396	 0.246858
84.5463	123.3267	256.544	290.4392	304.8328	367.7913	389.2302	449.6767	512.1274	580.7287	633.8886	690.2909	785.3025	821.269	865.6497	892.1367	927.23	969.523	975.2339	1002.4299	1014.6257	1078.32	1113.1698	1125.9007	1149.6151	1167.9137	1200.8161	1219.3364	1298.302	1324.1522	1325.9186	1352.3112	1356.1275	1376.8675	1399.514	1448.6996	1479.1526	1490.2174	1494.5803	1501.2893	1784.4975	2995.5853	3016.8858	3023.7121	3068.3673	3080.3675	3101.344	3103.6253	3196.0965	3454.2252	3505.4355
O=C1CNCCC11CN1	O=C1CNCC[C@]21CN2	
InChI=1S/C6H10N2O/c9-5-3-7-2-1-6(5)4-8-6/h7-8H,1-4H2	InChI=1S/C6H10N2O/c9-5-3-7-2-1-6(5)4-8-6/h7-8H,1-4H2/t6-/m1/s1
