21
gdb 69778	3.1726	1.43193	1.17494	3.1188	81.67	-0.225	0.0714	0.2965	1132.302	0.183965	-383.243978	-383.23569	-383.234746	-383.276127	33.474	
C	-0.0136876693	 1.5284973459	 0.0295039286	-0.45902
C	-0.0176413971	 0.0208675803	 0.0956182888	 0.329806
C	-1.3190793375	-0.7178375572	-0.2541689111	-0.34492
C	-1.3321434819	-2.0157350153	 0.5613820931	 0.34404
C	-2.6533781937	-2.6062055177	 0.9828679423	-0.488686
N	-0.2152603194	-2.9226126925	 0.2129571649	-0.381201
C	-0.1013615863	-2.0379873618	 1.3992446022	-0.101536
C	 0.709408751	-0.7846514217	 1.1280562523	-0.073262
N	 1.2592460794	-0.6345755185	-0.2256523508	-0.376792
H	 0.9623912054	 1.91641465	 0.3309580592	 0.127452
H	-0.2083273135	 1.8768676458	-0.9918689482	 0.116543
H	-0.7817266513	 1.9590758991	 0.6822369502	 0.10661
H	-2.1751971899	-0.09935283	 0.0401806961	 0.098594
H	-1.4128259147	-0.9090285394	-1.3295155868	 0.109067
H	-3.2286053319	-2.9511186772	 0.115485037	 0.126726
H	-2.5061700701	-3.463177172	 1.6493259811	 0.112704
H	-3.2652313883	-1.869017576	 1.5138597038	 0.125387
H	-0.4384089898	-3.8697248616	 0.5114572153	 0.226375
H	-0.0815804755	-2.4870963188	 2.3865430131	 0.080839
H	 1.2877616211	-0.350102311	 1.937891408	 0.079624
H	 1.0997396632	-1.5118595805	-0.7223548692	 0.24165
163.1858	184.9376	200.2014	232.4402	269.2441	339.5117	387.0815	391.1479	432.1153	554.9132	566.5753	680.1976	729.9506	742.3953	816.8086	833.2215	879.8712	927.2406	929.9675	938.7038	977.2845	1011.4024	1035.7167	1049.1998	1077.8229	1094.681	1119.5475	1129.642	1149.7329	1195.7153	1223.4643	1272.5382	1286.7394	1310.3646	1342.2952	1352.1602	1397.2473	1414.0819	1427.0509	1444.8396	1476.8012	1485.0823	1485.883	1495.4199	1500.5059	3021.8308	3024.2625	3034.4898	3071.6818	3082.7907	3085.8178	3095.6623	3120.1468	3150.0258	3172.3825	3449.6821	3487.5835
CC12CC3(C)NC3C1N2	C[C@]12C[C@@]3(C)N[C@H]3[C@H]1N2	
InChI=1S/C7H12N2/c1-6-3-7(2)5(9-7)4(6)8-6/h4-5,8-9H,3H2,1-2H3	InChI=1S/C7H12N2/c1-6-3-7(2)5(9-7)4(6)8-6/h4-5,8-9H,3H2,1-2H3/t4-,5+,6+,7-
