18
gdb 105985	2.68835	1.56535	1.18851	2.1959	74.96	-0.2132	0.0607	0.2739	1075.9395	0.146453	-401.820756	-401.812556	-401.811612	-401.853505	31.313	
C	-0.0826773988	 1.479715523	 0.1073934791	-0.528064
C	-0.0189506919	-0.0073916076	-0.0076629162	 0.265753
C	 0.9245550724	-0.9696527578	-0.7849912944	-0.11625
C	-0.1586922859	-1.9781118243	-0.9107898753	-0.118991
N	 0.7803098889	-2.0402556651	 0.2648702908	-0.175559
C	-0.1656947434	-1.1065598675	 1.0155487573	-0.136739
C	-1.1442675489	-1.055027907	-0.1468539349	 0.263547
C	-2.6238170062	-0.8915861688	-0.1776236326	-0.205409
O	-3.3208702182	-2.0825864796	 0.1669397142	-0.411669
H	 0.8538420307	 1.8847381849	 0.5082261059	 0.129917
H	-0.2640304354	 1.9529374743	-0.864470706	 0.127187
H	-0.8895229463	 1.7856739224	 0.7816326839	 0.127036
H	 1.8445939008	-0.8205838081	-1.338721407	 0.095821
H	-0.2962649599	-2.8124428734	-1.58821832	 0.100616
H	-0.297589469	-1.0895319333	 2.0916989517	 0.095964
H	-2.9091790838	-0.0517137906	 0.4780184385	 0.088666
H	-2.9655365623	-0.6385863824	-1.188048056	 0.115683
H	-2.9561986928	-2.394333249	 1.0023062208	 0.282492
96.6145	120.9291	200.0085	221.9094	255.7092	285.2002	347.8968	439.7675	587.0887	648.3765	693.8687	759.9717	782.2445	801.0494	838.6982	877.7404	895.9134	940.9727	952.4029	973.8955	984.5512	1002.0235	1046.747	1091.5288	1111.1345	1125.6008	1177.8959	1190.6239	1214.7444	1260.88	1314.2854	1359.0049	1360.3102	1412.1011	1420.297	1460.3392	1481.1569	1493.7135	1501.0551	2963.8208	3022.3867	3055.7651	3081.158	3096.0183	3171.5742	3171.8435	3188.0585	3806.4742
CC12C3C4N3C1C24CO	C[C@@]12[C@@H]3[C@H]4N3[C@@H]1[C@@]24CO	
InChI=1S/C7H9NO/c1-6-3-4-7(6,2-9)5(6)8(3)4/h3-5,9H,2H2,1H3	InChI=1S/C7H9NO/c1-6-3-4-7(6,2-9)5(6)8(3)4/h3-5,9H,2H2,1H3/t3-,4+,5-,6+,7-,8?/m0/s1
