15
gdb 124232	4.95074	1.03599	0.86129	3.8871	69.27	-0.2655	-0.0205	0.245	1279.3455	0.11216	-453.943053	-453.934997	-453.934053	-453.976973	28.891	
C	-0.1604296006	 1.3341894297	-0.1185653912	-0.445178
C	 0.0914480551	-0.1396598243	-0.0097728145	 0.388394
N	 1.2323153653	-0.6611194415	 0.0256890382	-0.487482
O	-1.1576854259	-0.7839826245	 0.0415554132	-0.284735
C	-1.3084746718	-2.1153581408	 0.1409545419	 0.515652
N	-0.3318548429	-2.9935219877	 0.2027439912	-0.234137
O	-0.9670760394	-4.2318257891	 0.2967959856	-0.17596
C	-2.2944286804	-4.0431232092	 0.2875287074	 0.105158
C	-2.5954090478	-2.7275124906	 0.190827621	-0.382143
H	 0.7936008122	 1.8570996045	-0.161058309	 0.153943
H	-0.7448316442	 1.5565862858	-1.0168157227	 0.142219
H	-0.7382245764	 1.6874467838	 0.7412038612	 0.142234
H	 1.2078628968	-1.6775556582	 0.1011962939	 0.263154
H	-2.8938635655	-4.9376516603	 0.356033782	 0.161987
H	-3.5566689845	-2.2452905575	 0.1583407718	 0.136893
34.5861	80.4223	153.9844	184.7403	341.5544	349.6572	381.7305	545.1087	565.1818	594.5013	716.3637	739.6875	793.1335	873.8274	877.157	915.6479	934.7019	956.889	1002.0179	1044.8494	1078.3225	1082.3506	1097.111	1165.7325	1301.2242	1318.5231	1407.1083	1450.135	1475.1166	1477.1301	1510.9436	1616.3551	1778.3062	3051.2344	3109.1266	3172.3046	3266.9541	3298.6484	3490.1968
CC(=N)OC1=NOC=C1	C[C]([NH])Oc1nocc1	
InChI=1S/C5H6N2O2/c1-4(6)9-5-2-3-8-7-5/h2-3,6H,1H3	InChI=1S/C5H6N2O2/c1-4(6)9-5-2-3-8-7-5/h2-3,6H,1H3
