15
gdb 128359	5.33572	0.90241	0.77929	5.7794	73.89	-0.2334	-0.076	0.1574	1394.6714	0.112197	-453.940045	-453.9316	-453.930656	-453.973788	29.609	
C	 0.0719033682	 1.4248422565	 0.1389525249	-0.331459
N	-0.1732893722	 0.0194283707	-0.1342425512	-0.377981
C	 0.5294208905	-0.6302661375	-1.1164437024	 0.466357
N	 0.6791564274	-1.9462438558	-1.0843877941	-0.223911
O	 1.3681002669	-2.2842616071	-2.2422442415	-0.196459
C	 1.631496322	-1.1666538417	-2.9337432406	 0.358991
C	 2.3648230556	-1.257524403	-4.2031076286	 0.079715
O	 2.7641839317	-2.2811147746	-4.7005958552	-0.25137
C	 1.1337629275	-0.0749194996	-2.2832284168	-0.404471
H	 1.1063098549	 1.6411499996	 0.444262689	 0.124866
H	-0.1589253777	 2.0265997443	-0.7456745814	 0.138713
H	-0.5997599044	 1.7478524896	 0.9368003861	 0.139311
H	-0.3457663102	-0.5596166003	 0.6746796819	 0.256178
H	 2.5235083808	-0.2659201573	-4.6787913228	 0.088637
H	 1.1874995191	 0.955260606	-2.5926424073	 0.132883
78.2357	95.005	148.3954	159.8808	230.2611	254.563	359.5972	437.7322	483.7245	578.8925	640.7389	714.0381	724.5262	774.9382	811.2081	967.5288	1004.7919	1019.2076	1033.3768	1093.233	1151.908	1175.7736	1185.7687	1332.7017	1403.2898	1418.0808	1457.6734	1490.0436	1505.4196	1517.1437	1558.9138	1645.8267	1804.8151	2902.2594	2995.2113	3077.386	3128.6854	3280.1798	3607.8514
CNC1=NOC(C=O)=C1	CNc1noc(C=O)c1	
InChI=1S/C5H6N2O2/c1-6-5-2-4(3-8)9-7-5/h2-3H,1H3,(H,6,7)	InChI=1S/C5H6N2O2/c1-6-5-2-4(3-8)9-7-5/h2-3H,1H3,(H,6,7)
