16
gdb 46229	2.70217	1.37365	1.0984	4.031	77.78	-0.2365	-0.0346	0.2019	1127.1617	0.122307	-400.687546	-400.679096	-400.678152	-400.720986	31.492	
O	-0.0011694843	 0.0301396924	-0.1870528025	-0.290256
C	-0.0286015215	 1.2074863783	 0.0094970158	 0.364808
C	-1.1339452693	 2.2181819953	 0.393904745	-0.34021
C	-0.0310327484	 3.3115393701	 0.5578428119	-0.338519
C	 1.00899377	 2.3188462371	 0.0036738921	 0.24586
N	 2.4282267595	 2.1771798178	 0.2826517507	-0.355593
C	 2.028053455	 2.5921441356	-1.0748472032	-0.340061
C	 2.2685911216	 1.6836861449	-2.1588106177	 0.405399
C	 2.4601209356	 0.9531845629	-3.0933824021	-0.427368
H	-1.8376808855	 2.4017189889	-0.4228098059	 0.138945
H	-1.6995252458	 1.9547932015	 1.2905750141	 0.136468
H	-0.1750108293	 4.2239005658	-0.0237780194	 0.116904
H	 0.1515535192	 3.580040432	 1.6019867009	 0.119411
H	 2.7608996309	 2.9852350053	 0.8059332743	 0.242632
H	 2.13672551	 3.6460757808	-1.3269910589	 0.117547
H	 2.6269886425	 0.2892074313	-3.9052152552	 0.204033
72.3101	87.4445	145.639	230.0909	248.6023	307.0195	455.1029	466.6506	533.616	559.2815	622.1309	647.4967	668.4081	705.6535	756.0326	805.6645	881.4605	918.2936	937.5679	972.8645	1026.4353	1044.4293	1062.4457	1111.5991	1180.1931	1187.4639	1212.8216	1244.414	1258.7366	1345.5126	1431.7474	1445.3153	1486.2039	1897.0531	2244.2486	3064.3992	3070.5131	3114.4699	3116.9525	3129.9236	3486.2719	3503.8845
O=C1CCC11NC1C#C	O=C1CC[C@]21N[C@H]2C#C	
InChI=1S/C7H7NO/c1-2-5-7(8-5)4-3-6(7)9/h1,5,8H,3-4H2	InChI=1S/C7H7NO/c1-2-5-7(8-5)4-3-6(7)9/h1,5,8H,3-4H2/t5-,7-/m0/s1
