18
gdb 110595	3.19691	1.28436	1.06784	1.1461	71.83	-0.2305	0.0737	0.3042	1142.2659	0.14747	-438.975942	-438.967856	-438.966911	-439.008628	31.378	
O	-0.0650440967	 1.4812793414	-0.2908183499	-0.424036
C	 0.054423893	 0.1281597526	 0.1315009799	-0.110884
C	-1.3303156175	-0.4844546984	 0.0975151819	-0.053357
C	-1.9644151807	-0.8290761764	-1.2757764481	-0.064778
C	-1.1626551016	-2.1663858731	-1.4218532733	-0.106569
N	-2.361241043	-3.0514386207	-1.6102977109	-0.371057
C	-2.828728523	-1.9812861875	-0.6672822933	-0.102703
C	-1.4684258356	-2.0106840103	 0.1152340508	 0.413418
O	-1.0914753105	-2.83250718	 1.1480752431	-0.476849
H	 0.7977724896	 1.8980692516	-0.2100437035	 0.286436
H	 0.7349273948	-0.435410444	-0.5270630378	 0.083858
H	 0.4606927184	 0.0624230333	 1.1527867715	 0.096517
H	-1.9995247897	 0.0467839214	 0.78347138	 0.077977
H	-2.2552646287	-0.156413341	-2.0795777481	 0.084836
H	-0.209720532	-2.3450065144	-1.9204072872	 0.08243
H	-2.7655239117	-2.9067643094	-2.5395840248	 0.207457
H	-3.8406119937	-1.9279183117	-0.2632640978	 0.081438
H	-1.3074857015	-3.7372417736	 0.8873490573	 0.295867
78.7748	151.691	210.1631	254.3798	272.6081	337.5526	376.3139	420.8284	524.1501	577.9223	669.6422	739.6851	797.2762	831.8033	875.7852	894.5247	900.014	909.1293	981.7179	1018.2084	1045.5642	1066.5862	1077.0413	1092.0916	1115.9788	1135.421	1149.4603	1164.9302	1213.7167	1221.2248	1254.3726	1260.6995	1283.4245	1285.4931	1356.3272	1363.7849	1434.5402	1472.1385	1518.7707	2968.589	2997.4973	3054.3823	3107.744	3113.3288	3149.8539	3401.2629	3777.0033	3828.4033
OCC1C2C3NC2C13O	OC[C@H]1[C@H]2[C@@H]3N[C@H]2[C@]13O	
InChI=1S/C6H9NO2/c8-1-2-3-4-6(2,9)5(3)7-4/h2-5,7-9H,1H2	InChI=1S/C6H9NO2/c8-1-2-3-4-6(2,9)5(3)7-4/h2-5,7-9H,1H2/t2-,3-,4-,5+,6-/m0/s1
