19
gdb 92616	3.40485	1.34285	1.16068	2.8867	77.87	-0.2493	0.0015	0.2508	1124.2142	0.160582	-423.034673	-423.026802	-423.025858	-423.067377	30.194	
C	 0.4357257027	 1.4953419253	-0.1398842706	-0.388942
C	 0.0499479636	 0.0357299743	 0.0800038436	 0.102081
O	 0.4506503764	-0.7486802749	-1.0605636919	-0.285368
C	 1.0490779289	-1.9458962095	-0.6180183744	 0.184597
O	 2.3153602414	-2.242245343	-1.1863649799	-0.273186
C	 3.2972927595	-2.3623840063	-0.1442727992	-0.063296
C	 2.5203102492	-2.5641810642	 1.1887147926	-0.338569
C	 1.3293627497	-1.7378627871	 0.8460746448	 0.225754
C	 0.7603349251	-0.6103750489	 1.2506040318	-0.244129
H	 1.5224669322	 1.5982365365	-0.2078872572	 0.123243
H	-0.0062503044	 1.8589865751	-1.0715591052	 0.131308
H	 0.0701216384	 2.1198548092	 0.6819678107	 0.111577
H	-1.0461203152	-0.0325776144	 0.1755382612	 0.086131
H	 0.3796515175	-2.7824061839	-0.8738497103	 0.071616
H	 3.9533138967	-3.2012732607	-0.3936643808	 0.110218
H	 3.9039142201	-1.4482135263	-0.0883798933	 0.104309
H	 2.2701308555	-3.6223785773	 1.3281662632	 0.118872
H	 3.078531781	-2.2170897418	 2.0600718829	 0.116504
H	 0.8582037816	-0.1267353521	 2.2147397619	 0.107278
71.6656	116.8154	192.0545	226.6393	316.8573	366.3251	431.0903	479.4767	610.8486	647.5971	705.9625	763.3041	829.6908	856.2437	861.9931	914.6113	922.3306	924.9855	968.8032	1035.4415	1052.7243	1055.4634	1090.0756	1098.9415	1127.0853	1179.3221	1193.3421	1221.5914	1276.2872	1293.0049	1324.3719	1350.7148	1372.1244	1386.2128	1401.1149	1406.434	1483.4065	1483.7627	1495.1994	1521.9279	1751.5325	2965.4574	2972.2211	3010.1249	3039.0867	3040.2657	3084.7797	3113.5624	3119.6153	3123.7349	3210.9398
CC1OC2OCCC2=C1	C[C@H]1O[C@H]2OCC[C]2[CH]1	
InChI=1S/C7H10O2/c1-5-4-6-2-3-8-7(6)9-5/h4-5,7H,2-3H2,1H3	InChI=1S/C7H10O2/c1-5-4-6-2-3-8-7(6)9-5/h4-5,7H,2-3H2,1H3/t5-,7-/m1/s1
