18
gdb 16804	3.47757	1.83571	1.38932	2.0472	73.13	-0.2259	0.0146	0.2405	934.2991	0.15434	-347.803438	-347.795831	-347.794887	-347.834921	29.643	
C	-0.0370824391	 1.5022757578	 0.073710374	-0.495185
C	-0.0240233556	 0.0086246812	-0.0061176985	 0.331827
C	-0.0085687368	-0.7551027555	-1.1035883428	-0.242215
C	-0.0122811729	-2.2418440857	-0.7911398611	 0.09541
O	 0.9847951717	-2.9881982921	-1.4796809688	-0.433503
C	 0.0880243984	-2.2728880321	 0.7381249799	-0.061141
C	 1.3032948663	-1.6456065822	 1.381382011	-0.293835
C	 0.023807794	-0.8462929535	 1.2286968405	-0.124288
H	 0.8347083218	 1.8750918666	 0.6261621977	 0.128744
H	-0.0388289271	 1.9601748789	-0.9188013928	 0.125581
H	-0.9226994007	 1.8599610258	 0.6141500459	 0.127668
H	 0.0306451432	-0.3930827403	-2.1252174448	 0.090048
H	-0.9524587391	-2.7071485166	-1.1139354073	 0.090157
H	 1.8409631168	-2.6503719851	-1.1939234573	 0.273461
H	-0.402284803	-3.0762483003	 1.2738913064	 0.087564
H	 1.5664297317	-2.0036255234	 2.3713258653	 0.112536
H	 2.1521028381	-1.3544661891	 0.7690898609	 0.101901
H	-0.5305187277	-0.5563915645	 2.1148711019	 0.08527
137.835	188.8288	200.7259	234.5956	294.7304	339.4415	443.5114	510.321	576.2921	592.0753	716.9316	781.9155	818.7787	839.1707	854.5215	943.7886	954.8518	1006.5969	1025.6652	1039.2966	1062.399	1068.0244	1075.5254	1098.6106	1103.3164	1179.7694	1200.7623	1254.3373	1276.8426	1309.5534	1361.7564	1375.9795	1413.2507	1426.5421	1477.3033	1478.4334	1488.2544	1707.194	3018.7042	3025.4515	3064.956	3114.4539	3116.4932	3166.066	3184.9144	3193.2698	3206.2381	3799.0291
CC1=CC(O)C2CC12	CC1=C[C@@H](O)[C@H]2C[C@@H]12	
InChI=1S/C7H10O/c1-4-2-7(8)6-3-5(4)6/h2,5-8H,3H2,1H3	InChI=1S/C7H10O/c1-4-2-7(8)6-3-5(4)6/h2,5-8H,3H2,1H3/t5-,6-,7+/m0/s1
