17
gdb 97491	9.9856	0.39753	0.38675	3.0378	99.77	-0.2354	-0.0353	0.2	2731.4144	0.132567	-384.660381	-384.649909	-384.648965	-384.698518	34.864	
C	 0.0818767128	 1.5912446403	 0.1471074411	-0.367193
C	-0.0252426559	 0.0611593967	-0.0026999691	-0.344219
C	 0.6158935243	-0.4402495356	-1.2090933693	 0.304598
C	 1.153530339	-0.8399652455	-2.2179597646	-0.233878
C	 1.756133191	-1.2891340229	-3.3509531189	-0.175636
C	 2.2940806935	-1.6802140732	-4.362738373	 0.23363
C	 2.9265403783	-2.2050235989	-5.5590599945	-0.447735
C	 3.0447956317	-3.7344404604	-5.5396046144	 0.172524
O	 2.9173433635	-4.4185859768	-6.5169439474	-0.227126
H	 1.1280828971	 1.9048109132	 0.1895172879	 0.13323
H	-0.3899154041	 2.0978655684	-0.6986759355	 0.133753
H	-0.4147433981	 1.9151952805	 1.0661623524	 0.119956
H	 0.4228658638	-0.4269267923	 0.8726767561	 0.138378
H	-1.0821725323	-0.235822426	-0.0056255993	 0.138695
H	 2.3966730983	-1.916570219	-6.4733309737	 0.160517
H	 3.9523136516	-1.81345803	-5.6489724115	 0.160713
H	 3.2766302956	-4.1631633783	-4.5412328463	 0.099792
20.9674	41.5594	67.773	90.8017	124.9555	203.0987	236.4773	279.3878	375.7942	388.3383	440.6445	509.4183	550.2904	561.2343	632.3126	741.0936	784.7915	904.923	1010.3315	1025.8988	1041.1839	1080.8334	1101.4986	1207.5811	1254.3881	1283.0243	1303.5594	1355.289	1409.865	1413.078	1436.7045	1469.4839	1494.7426	1505.0146	1841.3898	2275.9528	2383.4569	2908.9671	2994.8932	3018.5178	3046.8699	3047.985	3074.0102	3122.8588	3129.048
CCC#CC#CCC=O	CCC#CC#CCC=O	
InChI=1S/C8H8O/c1-2-3-4-5-6-7-8-9/h8H,2,7H2,1H3	InChI=1S/C8H8O/c1-2-3-4-5-6-7-8-9/h8H,2,7H2,1H3
