17
gdb 45615	4.35312	0.97804	0.85181	2.2793	77.59	-0.2081	-0.0095	0.1986	1321.3196	0.137434	-418.024874	-418.01684	-418.015896	-418.058067	30.185	
O	-0.0019839465	-0.0103795394	-0.1325899164	-0.365542
C	-0.0181790213	 1.1958699427	-0.0725295601	 0.430842
C	-1.2030580329	 2.1541673062	-0.3003578665	-0.48146
C	-0.6115767677	 3.5317453069	-0.0841890888	 0.278713
C	 0.6866660542	 3.3703705051	 0.2148171393	-0.121758
N	 1.054048401	 2.0171440243	 0.2232935335	-0.326019
C	-1.3230713693	 4.8147986555	-0.1819152143	-0.084674
C	-2.5282501808	 4.9852716769	-1.0428123976	-0.248817
N	-2.6664496043	 5.0066698856	 0.4194547908	-0.322763
H	-1.5995256666	 1.9994015611	-1.310082038	 0.149725
H	-2.0071741442	 1.8941331909	 0.3978949632	 0.144686
H	 1.4281636219	 4.1266030538	 0.430543217	 0.130995
H	 1.9733896429	 1.6586430399	 0.4202269756	 0.262965
H	-0.6816502554	 5.6829503748	-0.0456326424	 0.087196
H	-2.706416683	 5.9375664564	-1.5347183346	 0.122424
H	-2.8912781651	 4.120632004	-1.5920738423	 0.112978
H	-3.0251825728	 4.1113133754	 0.7435111516	 0.230508
67.4155	101.0398	159.8438	192.0948	365.7938	394.4266	467.979	483.891	498.5555	582.8582	593.7869	727.5213	798.1784	840.0883	859.9546	874.1077	915.7372	948.4032	961.2932	986.803	1080.2717	1089.2964	1140.3062	1157.9815	1162.6448	1188.5455	1226.9006	1248.52	1292.3895	1307.1138	1349.8168	1405.8874	1422.9195	1435.4335	1507.3141	1696.9279	1841.6746	3044.2369	3079.0883	3108.4533	3128.2158	3192.8236	3236.6354	3495.7834	3667.7202
O=C1CC(=CN1)C1CN1	O=C1CC(=CN1)[C@H]1CN1	
InChI=1S/C6H8N2O/c9-6-1-4(2-8-6)5-3-7-5/h2,5,7H,1,3H2,(H,8,9)	InChI=1S/C6H8N2O/c9-6-1-4(2-8-6)5-3-7-5/h2,5,7H,1,3H2,(H,8,9)/t5-/m1/s1
