24
gdb 120851	2.26946	0.91187	0.72192	1.9222	87.68	-0.2172	0.0799	0.2971	1703.7952	0.215533	-405.506757	-405.495837	-405.494893	-405.543706	38.669	
C	 0.3611376131	 1.4860091211	 0.0673767332	-0.380537
C	 0.0964963121	-0.0155386464	 0.2010695853	-0.161008
C	-1.3007716834	-0.4109240998	-0.2793591032	-0.131784
N	-1.4769448016	-1.859778884	-0.188543227	-0.091337
C	-2.0085142277	-2.412706749	 1.0555182754	-0.248635
C	-2.8205409626	-2.4332497073	-0.1925573697	-0.020713
C	-4.0962083425	-1.6256152304	-0.3319506387	-0.094457
O	-4.2554836869	-0.7001178727	 0.7222649691	-0.219549
C	-5.4329098861	 0.0636364933	 0.6027963411	-0.229056
H	 1.3637418446	 1.7460741003	 0.4203250202	 0.111374
H	 0.2819189208	 1.8123428007	-0.9759226603	 0.111786
H	-0.3586201002	 2.0713270329	 0.6506512685	 0.112575
H	 0.8386283721	-0.5862338311	-0.3687560368	 0.10291
H	 0.2108682263	-0.3210501969	 1.2489103519	 0.095964
H	-2.0636079189	 0.1445104	 0.2857703125	 0.104261
H	-1.4131960269	-0.1315640027	-1.335724093	 0.089808
H	-1.5305936298	-3.3184653123	 1.4205329868	 0.10595
H	-2.3319424899	-1.7155991064	 1.8248488916	 0.124924
H	-2.8797367791	-3.3641347926	-0.7565808302	 0.088817
H	-4.1064019162	-1.0991219611	-1.3030864384	 0.092578
H	-4.9465483672	-2.3293854259	-0.3466183982	 0.093019
H	-5.4710511747	 0.7414766442	 1.4586627024	 0.129153
H	-5.443088694	 0.6578993218	-0.3242887966	 0.107073
H	-6.3315938716	-0.5730018757	 0.6118064842	 0.106884
66.8558	75.6854	82.6476	110.9816	123.3267	196.8679	231.6248	234.628	260.2608	326.8439	360.5784	430.3734	465.7883	622.7929	759.445	764.4657	821.7147	896.3337	902.6507	941.9706	947.4699	1019.1125	1040.1175	1056.1686	1075.5341	1112.7312	1127.9768	1140.615	1152.7799	1171.991	1188.325	1204.6755	1227.9949	1277.9202	1279.7566	1320.7467	1333.2845	1339.0285	1403.8289	1409.5203	1412.9722	1423.446	1479.005	1484.9336	1489.8059	1498.8786	1499.4291	1500.1403	1508.6979	1519.4955	1526.208	2942.3289	2966.5128	2973.8066	2995.9713	3018.2449	3026.0045	3028.452	3035.3208	3066.4832	3095.2982	3099.6534	3102.3244	3103.5753	3117.5704	3187.9665
CCCN1CC1COC	CCCN1C[C@H]1COC	
InChI=1S/C7H15NO/c1-3-4-8-5-7(8)6-9-2/h7H,3-6H2,1-2H3	InChI=1S/C7H15NO/c1-3-4-8-5-7(8)6-9-2/h7H,3-6H2,1-2H3/t7-,8?/m0/s1
