17
gdb 26243	3.95991	1.01342	0.9098	2.5093	72.97	-0.2029	0.013	0.2159	1309.3273	0.135903	-455.174752	-455.165691	-455.164747	-455.20926	33.065	
C	 0.0770285355	 1.5622372089	 0.3190455693	-0.397076
C	-0.1348051048	 0.1301038141	-0.1694106206	 0.019627
O	 0.703345643	-0.7981312403	 0.5264072606	-0.429077
C	-1.571623898	-0.2794744092	-0.0673604168	 0.365125
N	-2.4393788484	 0.0188728209	 0.8407632524	-0.301616
C	-3.5726584016	-0.725370053	 0.5272815153	-0.195302
C	-3.3163794831	-1.4482475316	-0.5969846519	 0.336159
N	-4.0527250407	-2.2724757251	-1.4287113861	-0.597562
O	-2.0451180825	-1.1789788734	-0.993230421	-0.199571
H	 1.1440266962	 1.7973043982	 0.3001328115	 0.120826
H	-0.4575450891	 2.2761815685	-0.3144687773	 0.122388
H	-0.2990185894	 1.6766532342	 1.3399098495	 0.135027
H	 0.1714099122	 0.0395886862	-1.2163641957	 0.106076
H	 0.4173279914	-0.7957003208	 1.447544393	 0.282558
H	-4.4734775377	-0.6814023609	 1.1168918768	 0.109616
H	-4.8910035479	-2.6246652133	-0.987852783	 0.260657
H	-3.507809705	-3.0290042133	-1.8233964562	 0.262146
28.8342	121.1772	175.3214	199.1391	244.545	282.9556	302.2191	343.6767	409.2587	440.8986	514.5068	649.1211	675.9055	710.8724	740.5253	766.8692	779.9904	898.603	967.3619	1010.9126	1028.2812	1089.8052	1095.2997	1108.8394	1145.0712	1213.7856	1287.2785	1296.0372	1361.199	1402.0742	1419.144	1438.7286	1486.2345	1494.5276	1610.1163	1624.5582	1672.5623	3044.9968	3069.0449	3119.6157	3130.5821	3268.9151	3544.9563	3646.9354	3793.455
CC(O)C1=NC=C(N)O1	C[C@@H](O)c1ncc(N)o1	
InChI=1S/C5H8N2O2/c1-3(8)5-7-2-4(6)9-5/h2-3,8H,6H2,1H3	InChI=1S/C5H8N2O2/c1-3(8)5-7-2-4(6)9-5/h2-3,8H,6H2,1H3/t3-/m1/s1
