14
gdb 129181	3.34997	1.68274	1.12944	7.4029	71.02	-0.2357	-0.0141	0.2216	988.2728	0.104998	-429.04266	-429.035979	-429.035035	-429.073677	25.821	
N	-0.0762649317	 1.3216489468	 0.0874964806	-0.53324
C	-0.0473737897	 0.053272256	 0.0015687588	 0.287567
N	 1.0664723598	-0.8076579544	-0.1291752032	-0.367016
C	 0.7511264227	-2.2402799727	-0.0148942862	-0.286671
C	-0.7394172105	-2.164002939	-0.0051419054	 0.34645
C	-1.1883595515	-0.8729264988	 0.0013859381	 0.276259
N	-2.5487621233	-0.8620852763	 0.0005001622	-0.279413
N	-2.9589874215	-2.0946044952	-0.0073969026	-0.107436
N	-1.8537598383	-2.9098684618	-0.0155662493	-0.33947
H	 0.8641866206	 1.7196045716	 0.0649230787	 0.204929
H	 1.9619858518	-0.4836810559	 0.2000120828	 0.243322
H	 1.1511591899	-2.8107753179	-0.8634795663	 0.137185
H	 1.154991323	-2.6861167923	 0.9055009314	 0.13377
H	-1.9885165314	-3.9080183402	-0.0196810895	 0.283764
169.0611	204.262	247.8106	306.224	365.5783	535.0242	544.2869	629.3071	638.8341	651.7993	706.9979	776.4916	782.6903	848.5323	962.3521	1004.497	1031.874	1032.9534	1088.7605	1158.4291	1185.5925	1224.48	1253.6235	1332.4765	1372.4472	1406.7612	1451.332	1503.3614	1529.0841	1599.0894	1756.8051	2999.1394	3029.0388	3460.067	3637.0405	3662.5612
N=C1NCC2=C1N=NN2	[NH][C]1NCc2c1nn[nH]2	
InChI=1S/C4H5N5/c5-4-3-2(1-6-4)7-9-8-3/h1H2,(H2,5,6)(H,7,8,9)	InChI=1S/C4H5N5/c5-4-3-2(1-6-4)7-9-8-3/h1H2,(H2,5,6)(H,7,8,9)
