19
gdb 48850	2.93224	1.32697	1.10179	2.7304	75.91	-0.2531	-0.0338	0.2193	1150.051	0.160064	-423.04285	-423.034826	-423.033881	-423.075478	30.911	
O	-0.4071156632	 0.5294767661	 0.7251220349	-0.259235
C	 0.2414098718	 0.9230474156	-0.2107423473	 0.116782
C	 1.3816525966	 1.8870638223	-0.1041944812	 0.278916
C	 1.9483855292	 2.1575384951	 1.2709387899	-0.275947
C	 3.0014731475	 3.2729494491	 1.2580744561	-0.214247
C	 2.4638583692	 4.5198725382	 0.5474318289	-0.199534
C	 2.1517730105	 4.249075176	-0.9343344986	-0.228053
C	 1.4820148558	 2.9074066419	-1.1844344929	 0.000753
O	 2.3186444922	 1.7538385238	-1.188062931	-0.282303
H	 0.0439453339	 0.5918555858	-1.2550697363	 0.084708
H	 1.1103408554	 2.4247422868	 1.925073171	 0.123516
H	 2.3649498424	 1.2272765523	 1.6730857795	 0.115217
H	 3.2842121074	 3.5143738958	 2.2874998156	 0.099439
H	 3.9058686631	 2.9173199327	 0.751643931	 0.113547
H	 1.5484346456	 4.8498015779	 1.0561102035	 0.101184
H	 3.1769135488	 5.3470348895	 0.6235106937	 0.100232
H	 1.5115726528	 5.0413434275	-1.336471993	 0.106168
H	 3.0749791439	 4.263301429	-1.526437434	 0.122811
H	 0.7279599072	 2.8902384348	-1.9732522097	 0.096046
89.9643	130.4205	210.703	244.7298	299.4949	369.3499	381.2837	444.4845	494.6106	549.3813	639.5195	721.6348	777.5251	832.0335	843.4861	884.6362	914.9942	939.3377	995.3882	1029.6694	1054.1268	1080.1841	1094.1433	1118.2129	1189.881	1205.9648	1243.6691	1273.7309	1300.8751	1320.246	1369.7854	1371.0498	1381.5141	1392.4422	1408.1245	1448.8218	1475.805	1481.856	1490.0291	1500.817	1824.0282	2887.8272	3022.1287	3033.9017	3040.6841	3044.0428	3071.2644	3076.0206	3080.1334	3090.2946	3095.7512
O=CC12CCCCC1O2	O=C[C@]12CCCC[C@H]1O2	
InChI=1S/C7H10O2/c8-5-7-4-2-1-3-6(7)9-7/h5-6H,1-4H2	InChI=1S/C7H10O2/c8-5-7-4-2-1-3-6(7)9-7/h5-6H,1-4H2/t6-,7-/m1/s1
