19
gdb 115119	3.00369	1.2424	0.91588	5.4113	78.81	-0.2369	-0.0519	0.185	1283.1152	0.160055	-419.242337	-419.233359	-419.232415	-419.276381	33.225	
C	-0.2286087031	 1.6299606464	 0.1386924581	-0.392754
C	-0.078430931	 0.1138067676	-0.0201974976	-0.186921
C	 0.8419120485	-0.5261553947	 1.0261224635	-0.08825
C	 0.7897848269	-2.0657213797	 1.0865528672	-0.206711
N	 2.1319180443	-2.4397297198	 1.5251298315	-0.338962
C	 3.0971407197	-1.495617047	 1.2518721258	 0.281028
N	 4.3687814308	-1.5427815322	 1.3050514013	-0.516635
C	 2.3355000716	-0.2363178172	 0.8477898385	 0.359858
O	 2.8356780094	 0.7792218437	 0.4455583794	-0.290219
H	 0.7405427079	 2.1251214135	 0.0552772209	 0.15658
H	-0.8943544932	 2.0350306572	-0.6292745708	 0.111813
H	-0.6565609027	 1.8808794453	 1.116004141	 0.110267
H	-1.0640178958	-0.3645048627	 0.0489933893	 0.097929
H	 0.3067083086	-0.1194364476	-1.0207142922	 0.107168
H	 0.5847004504	-0.1369262496	 2.0225326385	 0.116429
H	 0.0344103123	-2.4310597474	 1.7887373164	 0.117672
H	 0.553021203	-2.478296542	 0.0943289366	 0.111831
H	 2.3841722414	-3.4106657626	 1.6233009731	 0.244809
H	 4.700712751	-2.4708278611	 1.5792255495	 0.205069
55.4721	109.9694	156.2357	184.4519	243.1216	277.9812	336.6133	367.7901	434.7177	465.3433	564.9888	570.5658	684.4977	718.717	762.0625	829.1906	862.7803	905.3075	979.7747	1002.6909	1026.4717	1057.3824	1088.4839	1128.9838	1145.745	1165.982	1211.0274	1256.0102	1281.4207	1312.8589	1351.1377	1372.4453	1384.1585	1411.939	1439.061	1487.4794	1496.7184	1515.6148	1532.7876	1739.9936	1854.2219	2988.6389	3004.9757	3019.7358	3036.8347	3055.6824	3070.8943	3100.8612	3141.9299	3437.441	3626.9108
CCC1CNC(=N)C1=O	CC[C@H]1CN[C]([NH])C1=O	
InChI=1S/C6H10N2O/c1-2-4-3-8-6(7)5(4)9/h4H,2-3H2,1H3,(H2,7,8)	InChI=1S/C6H10N2O/c1-2-4-3-8-6(7)5(4)9/h4H,2-3H2,1H3,(H2,7,8)/t4-/m0/s1
