25
gdb 101178	3.27071	0.96217	0.87561	0.0912	93.5	-0.2851	0.0878	0.3729	1494.8649	0.2296	-352.312025	-352.302567	-352.301623	-352.346593	36.72	
C	 0.1082189179	 1.5410377184	 0.2095596833	-0.393252
C	 0.1684255452	 0.0250706838	-0.0040163501	-0.160395
C	 0.8923881819	-0.4210850164	-1.2910596039	-0.026661
C	 2.3815518652	-0.039082344	-1.2855901583	-0.393434
C	 0.7466159604	-1.9325346863	-1.4655630657	 0.091441
C	-0.5925194809	-2.6090038596	-1.9174558893	-0.063975
C	-0.2961272125	-2.133936695	-3.3709603641	-0.223013
C	 1.059453768	-2.6629841107	-2.8150526403	-0.06773
C	 0.2569545408	-3.8698411949	-2.2488507242	-0.220704
H	 1.1034004047	 1.9779116491	 0.3367410001	 0.117287
H	-0.3674063625	 2.0417856127	-0.6415529408	 0.111938
H	-0.4726502539	 1.7865714389	 1.104328961	 0.110346
H	 0.655819746	-0.4475774534	 0.8602998525	 0.08985
H	-0.8549395552	-0.3698895218	-0.0257237666	 0.094375
H	 0.4166210429	 0.0988862782	-2.1319350787	 0.067447
H	 2.8749686417	-0.3664885498	-2.2061624168	 0.113112
H	 2.5259229659	 1.0418104657	-1.2013159652	 0.111983
H	 2.9027070436	-0.5117568757	-0.4440052399	 0.109315
H	 1.2032313296	-2.431655321	-0.5992717897	 0.052998
H	-1.5533998282	-2.58578867	-1.3997612297	 0.064733
H	-0.7506582915	-2.7256124712	-4.1707800864	 0.086099
H	-0.3790971048	-1.0679950073	-3.586990871	 0.092307
H	 2.0162771135	-2.7020326193	-3.339202077	 0.0646
H	 0.6993579889	-4.402927087	-1.4024172641	 0.085565
H	-0.1651018368	-4.5608516234	-2.9836432353	 0.08577
53.7056	86.5448	140.7379	202.2421	215.5783	276.4747	280.6121	344.3992	411.4002	449.9462	568.1588	579.814	774.7004	776.5259	805.0925	845.6898	862.9741	883.2652	898.5209	903.7109	965.5353	977.9867	1009.1552	1013.7031	1021.2275	1029.6442	1052.073	1081.5966	1111.8835	1127.8722	1137.3127	1151.8354	1174.7256	1189.7809	1192.8659	1216.5802	1247.2979	1251.2169	1267.4829	1285.7998	1311.1502	1352.2874	1376.4768	1408.588	1415.9141	1432.4063	1484.2175	1496.9044	1499.3527	1503.4254	1507.4614	1513.0947	1541.2664	3000.8631	3009.265	3024.5082	3030.3176	3032.4174	3045.675	3048.9716	3058.0943	3088.1972	3093.2961	3096.1153	3096.3841	3103.3684	3110.9475	3111.4304	3124.4712
CCC(C)C1C2CC1C2	CC[C@@H](C)[C@H]1[C@H]2C[C@@H]1C2	
InChI=1S/C9H16/c1-3-6(2)9-7-4-8(9)5-7/h6-9H,3-5H2,1-2H3	InChI=1S/C9H16/c1-3-6(2)9-7-4-8(9)5-7/h6-9H,3-5H2,1-2H3/t6-,7-,8+,9-/m1/s1
