19
gdb 117393	5.52411	0.65101	0.61486	0.4393	73.57	-0.2666	0.0151	0.2817	1820.2324	0.156792	-460.173604	-460.163564	-460.162619	-460.210813	34.73	
O	-0.2804611832	 1.4246460439	-0.0013081268	-0.423466
C	-0.0511236906	 0.0310259581	 0.1406765175	-0.0689
C	-1.3741382317	-0.666460278	-0.1424304945	-0.313123
C	-1.2684956972	-2.1686919362	-0.0205948465	 0.44317
O	-0.2719034317	-2.7770024255	 0.2798077736	-0.357299
O	-2.4539469493	-2.7530525584	-0.3094415374	-0.250771
C	-2.4968219926	-4.1670324057	-0.2215305384	 0.150265
C	-3.269840527	-4.7697675415	 0.9121545362	-0.280001
C	-3.8295028822	-4.778399554	-0.4986239055	-0.298165
H	 0.5460068219	 1.8820863063	 0.177359201	 0.288247
H	 0.714138026	-0.3305642607	-0.5608124541	 0.10281
H	 0.2925164029	-0.2258286637	 1.1526557293	 0.103481
H	-2.1466018871	-0.3075543035	 0.5470519447	 0.139944
H	-1.7303941521	-0.4135136378	-1.1469978487	 0.141455
H	-1.5852642652	-4.6424376902	-0.5600124702	 0.123706
H	-2.9073405418	-5.6955095988	 1.3442490575	 0.12346
H	-3.7232813742	-4.082440696	 1.6170382916	 0.124711
H	-4.6453959586	-4.0968682842	-0.7102241303	 0.128699
H	-3.8612548363	-5.7115767239	-1.0492735892	 0.121776
29.0422	45.2935	67.1244	112.8533	128.8538	237.8106	267.091	309.0807	383.3086	409.0171	448.9963	589.9618	718.7664	753.2273	807.549	817.9096	839.6319	918.8914	969.9494	1002.7895	1042.6809	1056.6492	1074.7563	1076.1177	1090.1206	1117.6575	1172.5144	1192.2608	1201.206	1209.921	1240.4916	1262.5563	1301.8464	1356.8323	1399.1887	1455.8152	1458.3165	1471.5614	1498.9198	1525.1661	1815.6585	2996.9899	3026.6167	3053.2557	3090.6607	3140.6864	3143.5843	3197.6733	3224.1758	3238.3748	3834.4672
OCCC(=O)OC1CC1	OCCC(=O)OC1CC1	
InChI=1S/C6H10O3/c7-4-3-6(8)9-5-1-2-5/h5,7H,1-4H2	InChI=1S/C6H10O3/c7-4-3-6(8)9-5-1-2-5/h5,7H,1-4H2
