20
gdb 90950	2.90165	1.66232	1.50174	0.6633	76.1	-0.226	0.0654	0.2914	967.5572	0.174933	-403.146793	-403.139681	-403.138737	-403.178037	29.596	
O	 0.28242951	 1.2092039928	-0.5555012115	-0.44609
C	 0.0598610181	-0.0826171643	-0.0088067905	 0.141718
C	 0.7109134096	-0.2555570198	 1.3900455677	-0.268953
C	-0.202217754	-0.936738951	 2.3969403811	-0.016191
C	-1.2678929255	-1.8811786999	 1.9680998369	-0.035187
C	-1.5568330662	-1.930754227	 0.477503966	-0.242266
C	-1.4333753441	-0.4439944926	 0.0854531663	-0.064212
C	-2.0504662388	 0.2491291164	 1.3177163625	-0.17543
N	-1.6252688648	-0.5392296583	 2.4947736232	-0.119078
H	-0.0949033076	 1.8592432374	 0.047241809	 0.275519
H	 0.5345176308	-0.7568583141	-0.7292081347	 0.087222
H	 1.653844159	-0.8077523632	 1.3178685757	 0.11174
H	 0.9798009239	 0.7385404939	 1.7706140578	 0.103903
H	 0.2488495989	-1.09955255	 3.3735105094	 0.086952
H	-1.5336846246	-2.7304930344	 2.5903402091	 0.085579
H	-0.8644560104	-2.5735023814	-0.0764905289	 0.102083
H	-2.5710966928	-2.3058506053	 0.3021656473	 0.105087
H	-1.931300519	-0.1956141434	-0.8544273437	 0.07414
H	-1.7418113452	 1.2954883184	 1.4335823507	 0.085193
H	-3.1447929973	 0.2404470758	 1.2818853467	 0.108271
103.7675	253.9547	289.8867	338.3013	393.9134	420.6582	437.6229	562.012	626.198	675.1439	752.1052	764.039	790.3367	875.2375	890.8385	916.356	920.4137	943.0101	988.7565	1016.1854	1045.3622	1057.4399	1084.4718	1098.3196	1104.8976	1137.1445	1183.9107	1197.5223	1208.7529	1227.5748	1257.5002	1293.78	1317.1054	1319.4791	1334.7138	1351.0432	1353.4994	1373.6473	1429.8018	1438.4183	1483.7344	1491.4355	1509.7825	3022.7004	3029.4933	3039.5759	3047.0723	3069.3603	3072.159	3081.0938	3090.0999	3122.8398	3153.1737	3801.1877
OC1CC2C3CC1CN23	O[C@H]1C[C@@H]2[C@@H]3C[C@H]1CN23	
InChI=1S/C7H11NO/c9-7-2-6-5-1-4(7)3-8(5)6/h4-7,9H,1-3H2	InChI=1S/C7H11NO/c9-7-2-6-5-1-4(7)3-8(5)6/h4-7,9H,1-3H2/t4-,5-,6+,7-,8?/m0/s1
