17
gdb 18890	4.40431	2.35316	1.98713	1.6807	69.69	-0.2196	0.0767	0.2964	735.7194	0.144053	-326.6756	-326.669532	-326.668588	-326.705261	25.325	
C	-0.0608392537	 1.4564769458	 0.0477919367	-0.488013
C	 0.016563247	-0.0423789875	-0.049306402	 0.32811
C	-0.352210852	-0.7828580094	-1.3209681454	-0.28828
C	-0.2274422005	-2.2002117573	-0.8083867195	-0.079032
C	 0.8638344493	-2.2919129451	 0.2530102975	-0.112726
C	-0.5834998801	-2.2197227688	 0.6549677698	-0.017332
N	-0.4513348997	-0.8003676569	 1.1625870181	-0.197214
C	 0.9914079815	-0.8422604935	 0.7421832073	-0.090045
H	 0.6163171342	 1.9299461681	-0.6714281364	 0.116518
H	-1.0770452874	 1.8087708201	-0.1587032745	 0.123313
H	 0.2123455671	 1.792857946	 1.0511996219	 0.130657
H	-1.3692546637	-0.5451003869	-1.6529508034	 0.104768
H	 0.3424349131	-0.556221851	-2.1375291358	 0.103715
H	-0.4383233088	-3.0675257431	-1.4211825579	 0.090155
H	 1.5880961603	-3.0893614141	 0.3367363449	 0.09178
H	-1.2447827849	-2.9164559276	 1.1521896404	 0.095317
H	 1.7768493985	-0.4335890287	 1.3683748983	 0.088306
193.4292	257.916	301.7724	411.7705	541.2743	587.6892	700.1963	726.273	762.6852	772.7658	793.8051	838.6645	893.448	919.2249	934.2213	966.3723	978.9561	1006.0169	1024.6161	1036.0775	1038.3674	1055.846	1088.9997	1101.7286	1189.669	1195.8698	1234.6924	1248.8749	1287.7313	1325.3032	1368.1843	1401.0038	1420.7139	1486.4363	1490.425	1495.2329	3033.412	3039.3383	3080.5435	3096.2634	3118.8378	3168.8946	3196.3168	3202.1748	3219.8383
CC12CC3C4C3N1C24	C[C@]12C[C@H]3[C@@H]4[C@H]3N1[C@H]24	
InChI=1S/C7H9N/c1-7-2-3-4-5(3)8(7)6(4)7/h3-6H,2H2,1H3	InChI=1S/C7H9N/c1-7-2-3-4-5(3)8(7)6(4)7/h3-6H,2H2,1H3/t3-,4+,5-,6-,7+,8?/m0/s1
