20
gdb 102701	2.56224	0.88028	0.72874	4.443	73.59	-0.248	0.0334	0.2814	1578.1813	0.169375	-477.43097	-477.4204	-477.419456	-477.468159	36.477	
C	 0.0503541086	 1.3469979573	-0.3580810507	-0.246686
O	 0.0421406483	-0.0476280522	-0.1160122612	-0.268444
C	 0.653444533	-0.8375857168	-1.1442058568	 0.076594
C	 2.1657253637	-0.9022886038	-0.9008668768	-0.071077
O	 2.4520372626	-1.3547443272	 0.4078917216	-0.41847
C	 0.0019815159	-2.2192252098	-1.0713314215	-0.166934
N	-1.44140544	-2.1362982782	-1.1782401099	-0.274681
C	-2.1504729832	-2.7223395742	-2.1774642707	 0.152271
O	-1.6849069603	-3.4158550748	-3.0579213695	-0.325811
H	 1.0677567283	 1.7550932419	-0.4291403321	 0.118578
H	-0.4878412557	 1.5937195811	-1.2844590369	 0.118437
H	-0.4569459913	 1.8216397622	 0.4853021942	 0.13359
H	 0.4473110593	-0.3878162642	-2.1269967945	 0.0801
H	 2.6280002904	-1.6072079513	-1.6001878206	 0.117939
H	 2.6141091586	 0.0862324993	-1.0903328513	 0.089169
H	 1.8647176914	-0.8561654936	 0.9900247907	 0.287008
H	 0.3488082174	-2.8435461323	-1.8971820349	 0.149507
H	 0.2942586366	-2.6981587636	-0.1310050423	 0.125609
H	-1.9149097593	-1.5262236471	-0.5312772436	 0.251385
H	-3.2327929244	-2.4981757328	-2.0951204131	 0.071916
29.1639	73.6148	84.8249	121.2076	155.5134	206.0932	218.382	284.4652	310.134	317.8087	398.2262	466.013	525.474	574.7088	667.6314	750.2895	839.2981	914.834	935.5928	1005.3337	1032.7091	1079.3776	1100.0135	1114.9879	1138.4412	1184.977	1205.9026	1224.0062	1229.6022	1276.5857	1300.5853	1370.8633	1375.069	1412.1115	1429.9415	1430.4049	1480.3093	1487.6807	1488.8873	1509.0669	1511.8354	1530.1617	1803.8346	2934.0588	2972.4065	2992.4328	3004.2186	3048.5423	3057.1958	3074.5608	3117.8574	3129.6786	3643.4797	3776.7254
COC(CO)CNC=O	CO[C@@H](CO)CNC=O	
InChI=1S/C5H11NO3/c1-9-5(3-7)2-6-4-8/h4-5,7H,2-3H2,1H3,(H,6,8)	InChI=1S/C5H11NO3/c1-9-5(3-7)2-6-4-8/h4-5,7H,2-3H2,1H3,(H,6,8)/t5-/m1/s1
