17
gdb 110092	1.79795	1.34907	0.90891	4.0358	72.61	-0.2515	-0.0422	0.2093	1302.3254	0.132479	-458.947744	-458.938195	-458.937251	-458.983016	32.885	
C	 0.0474218799	 1.187786628	-0.4685999325	-0.246495
O	-0.1147727461	 0.0977201847	 0.4267106769	-0.234715
C	-1.3220539926	-0.5620569183	 0.2701589055	 0.08949
C	-1.4330786721	-1.690285493	-0.7410312909	-0.171988
C	-0.2892759354	-2.0414496602	-1.6187896212	 0.157275
O	-0.4303957551	-2.4981016421	-2.7275851116	-0.265204
C	-1.3912490325	-1.9597806974	 0.7941364493	-0.188301
C	-0.2093201933	-2.5979619981	 1.4405426183	 0.167645
O	-0.3192202605	-3.4488266337	 2.2882000291	-0.260952
H	 1.0031022037	 1.6554289625	-0.226342777	 0.143624
H	 0.0606319063	 0.8519390779	-1.5144593373	 0.126469
H	-0.7578313124	 1.925197588	-0.3453196798	 0.121737
H	-2.2062318132	 0.0656580596	 0.3923215796	 0.113663
H	-2.3988115731	-1.8578150601	-1.2059682776	 0.124671
H	 0.7195090579	-1.8395859466	-1.205366365	 0.09309
H	-2.3330854045	-2.2896612065	 1.2184218315	 0.129277
H	 0.7826838429	-2.2323163047	 1.1136856326	 0.100716
67.7468	78.9419	122.1332	147.5395	172.2089	221.5413	240.2589	300.5965	376.0815	432.2394	446.467	546.3756	623.3881	794.1681	852.6914	918.4961	953.8414	995.3737	1046.6679	1047.9282	1084.7319	1130.9479	1155.7659	1172.6021	1184.7474	1216.9478	1255.3439	1317.8609	1338.8453	1401.7472	1425.7898	1461.1517	1485.8542	1488.1146	1505.6028	1805.5369	1816.5467	2921.7643	2953.6073	2998.1779	3055.1028	3092.6038	3137.2665	3175.1746	3185.2315
COC1C(C=O)C1C=O	CO[C@H]1[C@@H](C=O)[C@H]1C=O	
InChI=1S/C6H8O3/c1-9-6-4(2-7)5(6)3-8/h2-6H,1H3	InChI=1S/C6H8O3/c1-9-6-4(2-7)5(6)3-8/h2-6H,1H3/t4-,5+,6-
