16
gdb 62405	2.45559	1.51243	1.38171	3.6937	75.08	-0.2441	-0.0221	0.222	1023.5357	0.122092	-400.690357	-400.681835	-400.680891	-400.723239	31.963	
C	-0.0550823479	 1.5952435074	-0.0410657342	-0.446492
C	 0.0087815268	 0.0636135223	-0.052599363	-0.037395
C	-1.2959253693	-0.5290594399	 0.1962954085	 0.296599
C	-2.3767639431	-1.0126504126	 0.4025019329	-0.445807
C	 0.7633267125	-0.6579772334	-1.1932173294	-0.042481
C	 2.2002882142	-0.3622325352	-1.1913440386	-0.264579
N	 1.6958646027	-1.3844348073	-0.2202234763	-0.171057
C	 1.0936006779	-0.6192618381	 0.8541988218	 0.377188
O	 1.3395496699	-0.6138669444	 2.0154899989	-0.289001
H	 0.9201532153	 2.0399790165	-0.253694756	 0.121662
H	-0.7721689336	 1.9521888017	-0.785308257	 0.13625
H	-0.3813213131	 1.9398898173	 0.9434296511	 0.151607
H	-3.3287497013	-1.4437069558	 0.5927622955	 0.204067
H	 0.2707069033	-1.2170632832	-1.9783890252	 0.125503
H	 2.8148951579	-0.8075106246	-1.9665641763	 0.145931
H	 2.5775264977	 0.5797772494	-0.8039968328	 0.138005
113.8439	129.6461	182.0139	190.9759	216.2948	272.542	397.6439	440.4979	487.8814	551.9914	627.8086	643.3373	650.8715	688.1841	744.8252	774.607	816.0566	890.9547	960.8705	982.608	1021.6701	1050.6104	1112.4281	1136.3019	1147.5522	1175.8893	1200.5433	1242.6609	1347.7306	1407.1668	1485.446	1488.1754	1507.9899	1922.7052	2234.42	3048.9889	3122.2324	3126.4881	3130.2952	3203.324	3215.6658	3500.3211
CC1(C#C)C2CN2C1=O	C[C@@]1(C#C)[C@H]2CN2C1=O	
InChI=1S/C7H7NO/c1-3-7(2)5-4-8(5)6(7)9/h1,5H,4H2,2H3	InChI=1S/C7H7NO/c1-3-7(2)5-4-8(5)6(7)9/h1,5H,4H2,2H3/t5-,7-,8?/m1/s1
