19
gdb 66640	3.24424	1.80645	1.65625	1.2696	76.63	-0.2359	0.0746	0.3105	893.8884	0.162618	-385.870455	-385.864105	-385.863161	-385.900624	28.042	
O	-0.0853238243	 1.3947293787	 0.0732851676	-0.474343
C	 0.0344056097	 0.0210541718	 0.0291884845	 0.412089
C	-1.0530252923	-0.9988451265	 0.1036239219	-0.131003
C	-0.2110132428	-0.8720972514	-1.1781993074	-0.152614
C	 0.8551747644	-2.006720391	-1.1745046953	-0.043854
C	 0.2454682543	-3.0293478739	-0.1834190776	-0.208348
C	-0.1457987171	-1.9799417596	 0.8709271366	-0.043905
C	 1.023740969	-0.8849394368	 0.8001193359	-0.127953
C	 1.9757328782	-1.402580742	-0.2904100234	-0.218084
H	 0.5873535479	 1.7784680426	-0.5000506209	 0.282943
H	-2.1298008128	-0.8901832849	 0.1377157013	 0.085971
H	-0.6596311074	-0.4678263661	-2.0761360265	 0.082394
H	 1.1478164586	-2.3834951759	-2.1543090565	 0.055261
H	-0.6277699443	-3.5535443326	-0.5837150501	 0.092137
H	 0.9766491203	-3.7665839683	 0.1642460291	 0.087916
H	-0.4594317566	-2.3167321697	 1.8570738718	 0.064564
H	 1.4316105812	-0.5182897064	 1.7400817467	 0.06724
H	 2.6941940109	-2.1547531508	 0.0514673873	 0.089435
H	 2.5230085034	-0.5878898671	-0.7779955549	 0.080154
229.69	280.1532	324.7454	431.1544	468.8339	547.5627	585.5025	652.2099	713.0245	758.7971	797.0174	808.8988	859.6929	879.408	896.1216	913.4551	917.6349	937.2108	948.8312	960.8038	976.7878	1007.0696	1025.0716	1051.549	1100.6983	1128.6359	1133.2001	1153.196	1173.5502	1211.3885	1225.8341	1238.7625	1252.8738	1264.9294	1293.9019	1302.6585	1313.0064	1322.7336	1466.4476	1482.9094	1503.9536	3035.5243	3045.8187	3083.985	3096.5038	3118.5757	3130.9395	3140.8999	3189.6557	3205.9297	3793.3242
OC12C3C1C1CC3C2C1	O[C@@]12[C@H]3[C@@H]1[C@@H]1C[C@H]3[C@H]2C1	
InChI=1S/C8H10O/c9-8-5-2-3-1-4(5)7(8)6(3)8/h3-7,9H,1-2H2	InChI=1S/C8H10O/c9-8-5-2-3-1-4(5)7(8)6(3)8/h3-7,9H,1-2H2/t3-,4+,5-,6+,7-,8-/m1/s1
