15
gdb 67552	2.7178	1.75494	1.43342	2.5564	64.55	-0.2434	-0.0348	0.2086	919.9199	0.110652	-457.706005	-457.698465	-457.69752	-457.738085	28.914	
O	 0.2982083798	 1.3811862483	-0.2005853629	-0.476797
C	 0.0900027795	 0.0195296115	-0.0880591248	 0.284314
C	 0.3166588881	-0.7334313881	-1.4323797057	-0.019413
O	 0.2064515788	-2.1404715497	-1.2213121498	-0.234957
C	-1.0006932667	-1.3772386826	-1.3680061511	 0.018746
C	-1.3183502755	-0.7428053895	 0.0127405192	-0.154362
C	-0.8123173982	-1.5410221514	 1.248824948	-0.359085
C	 0.4509831883	-0.6562884411	 1.2458159151	 0.337843
O	 1.2259712336	-0.3129463338	 2.0945650558	-0.310776
H	 0.5741948609	 1.7075635459	 0.6653677714	 0.300559
H	 0.9266724683	-0.3778216604	-2.2553588622	 0.120898
H	-1.6854799928	-1.6816061989	-2.1507124564	 0.115395
H	-2.2419858765	-0.1765912592	 0.1048090134	 0.098213
H	-1.3996971077	-1.4213608375	 2.1625467025	 0.131395
H	-0.6183109898	-2.5992085134	 1.0691252776	 0.148028
76.2384	157.0972	236.205	287.8133	331.2463	353.271	448.371	511.6982	572.4069	650.7565	688.0386	790.6816	799.9609	829.8704	850.2092	896.1111	960.4095	980.8784	993.3983	1016.9186	1049.0955	1062.8018	1096.7	1135.7661	1193.3505	1212.8767	1237.7443	1274.0716	1305.8155	1374.8242	1387.2082	1427.905	1862.6731	3076.9543	3139.3054	3153.999	3179.1699	3194.3738	3774.5732
OC12C3OC3C1CC2=O	O[C@]12[C@H]3O[C@H]3[C@H]1CC2=O	
InChI=1S/C6H6O3/c7-3-1-2-4-5(9-4)6(2,3)8/h2,4-5,8H,1H2	InChI=1S/C6H6O3/c7-3-1-2-4-5(9-4)6(2,3)8/h2,4-5,8H,1H2/t2-,4+,5+,6-/m1/s1
