20
gdb 57617	4.15055	0.83833	0.82923	3.5674	84.92	-0.2739	0.0172	0.2911	1442.6881	0.167661	-366.007177	-365.996753	-365.995809	-366.042267	38.409	
C	 0.032277194	 1.5889970956	 0.0561456649	-0.418114
C	 0.0467395508	 0.0527713849	 0.0678323697	 0.235405
C	 0.8009964446	-0.4698194417	 1.3000424441	-0.418116
C	-1.4097859831	-0.4986332433	 0.0552524915	-0.384042
C	-2.2100885451	-0.1016122034	 1.2065260061	 0.304351
C	-2.8670958723	 0.228053544	 2.157773102	-0.43389
C	 0.7171464007	-0.4814307167	-1.2306511476	-0.360711
C	 2.1065767315	-0.0578830686	-1.388744715	 0.271111
N	 3.2051154723	 0.2826483378	-1.5037874873	-0.318684
H	 1.050293847	 1.9885499873	 0.041983862	 0.139144
H	-0.4947578898	 1.9747138207	-0.8238533732	 0.111912
H	-0.4750710108	 1.9714040742	 0.94538471	 0.13553
H	 0.3109508391	-0.1332050595	 2.2170614281	 0.135528
H	 0.8268013718	-1.565286733	 1.3150654768	 0.111913
H	 1.8329780349	-0.1076735222	 1.3082561211	 0.139148
H	-1.9119021272	-0.1628653455	-0.8622487492	 0.128602
H	-1.377057203	-1.5954122075	 0.0035178806	 0.128599
H	-3.4543092617	 0.5150721717	 2.9947161738	 0.199375
H	 0.6914397726	-1.5778602267	-1.2414267709	 0.146476
H	 0.1550526536	-0.141920258	-2.1091217975	 0.146464
68.8479	96.6706	106.6993	175.7877	228.1896	264.01	278.9524	317.4478	353.5003	376.6066	383.7258	396.4423	403.1728	469.9741	620.4602	632.0179	648.9596	758.6298	866.7895	896.3842	901.9574	956.8313	958.2982	996.2628	1003.183	1051.9736	1152.0589	1196.4642	1227.9799	1233.3044	1332.32	1332.9458	1351.8633	1407.508	1429.2654	1459.2902	1470.3384	1485.0281	1492.2144	1508.4417	1511.4713	2236.7307	2358.8174	3008.3514	3032.0717	3034.4383	3039.6959	3041.9721	3072.2139	3104.1284	3106.7586	3123.8712	3127.7731	3505.4631
CC(C)(CC#C)CC#N	CC(C)(CC#C)CC#N	
InChI=1S/C8H11N/c1-4-5-8(2,3)6-7-9/h1H,5-6H2,2-3H3	InChI=1S/C8H11N/c1-4-5-8(2,3)6-7-9/h1H,5-6H2,2-3H3
