17
gdb 43117	3.73068	1.54481	1.48649	2.4068	70.65	-0.233	-0.0119	0.2211	920.2282	0.139252	-421.829244	-421.822982	-421.822038	-421.859729	25.997	
O	-0.0099684493	 0.0000130732	-0.0573115471	-0.325342
C	-0.0262849662	 1.1927062372	 0.0269398143	 0.432293
C	-1.1018662437	 2.2920843176	 0.0258882263	-0.194437
C	-0.8263790364	 2.9013633277	 1.4199146661	-0.229649
C	 0.7069447176	 3.1941609123	 1.245077709	-0.063957
C	 0.8089214279	 4.5958109018	 0.6432740645	-0.080521
O	 0.075132296	 4.4766940299	-0.5874801036	-0.277958
C	-0.0495405402	 3.0945169817	-0.8460779372	 0.133122
C	 1.0127267525	 2.3088641167	-0.0074776795	-0.19829
H	-2.1288127359	 2.1091553171	-0.2813610083	 0.086521
H	-1.3930009023	 3.8186521311	 1.5999660359	 0.113981
H	-1.043757473	 2.1953882964	 2.2254886479	 0.115104
H	 1.3263526913	 3.0215693255	 2.1246528655	 0.085242
H	 0.3356448433	 5.361716649	 1.267108894	 0.111568
H	 1.8456759846	 4.8968000345	 0.4344796973	 0.098515
H	-0.0946050809	 2.9088218427	-1.9180574247	 0.103162
H	 2.0483756148	 2.1714631357	-0.3090132803	 0.090648
153.3562	241.9454	327.0002	403.7409	500.6769	533.7891	632.8981	713.4617	746.6233	757.3041	792.5522	825.9298	892.7722	896.154	943.1204	956.8801	970.3515	991.588	1013.865	1041.4615	1073.1073	1092.0016	1109.9076	1153.2382	1174.7678	1194.9665	1200.0005	1212.0134	1223.3908	1282.2111	1309.3207	1312.0352	1336.4156	1387.857	1503.3853	1520.5328	1902.2317	2999.8764	3059.494	3069.4041	3106.6268	3123.8481	3134.9848	3151.777	3155.5059
O=C1C2CC3COC2C13	O=C1[C@H]2C[C@@H]3CO[C@H]2[C@H]13	
InChI=1S/C7H8O2/c8-6-4-1-3-2-9-7(4)5(3)6/h3-5,7H,1-2H2	InChI=1S/C7H8O2/c8-6-4-1-3-2-9-7(4)5(3)6/h3-5,7H,1-2H2/t3-,4-,5+,7-/m1/s1
