17
gdb 11587	5.90578	0.94907	0.86453	2.5653	66.79	-0.2678	0.0311	0.2989	1323.8393	0.140505	-400.979435	-400.97079	-400.969846	-401.013673	30.04	
C	-0.2006046653	 1.3926290466	 0.1751938845	-0.441885
C	 0.0910298918	-0.0692455069	-0.0060013457	 0.418027
N	 1.2745051075	-0.5124240372	-0.1101180723	-0.519316
O	-1.0783378409	-0.7723229303	-0.033346895	-0.244017
C	-1.008514024	-2.1833460595	-0.1999168287	-0.11191
C	-2.4154459696	-2.7110178395	-0.2228528913	 0.077003
C	-2.7098716429	-4.0906262703	 0.1802514552	-0.180775
O	-3.0182445088	-2.9931406342	 1.0383959834	-0.223106
H	 0.7335837863	 1.9516764581	 0.1948522704	 0.147556
H	-0.8336924205	 1.7560212548	-0.6401922598	 0.137919
H	-0.7498126917	 1.5538216439	 1.1078847365	 0.142811
H	 1.3140974183	-1.5240735986	-0.2233143034	 0.216333
H	-0.4995897229	-2.4266690774	-1.1441406761	 0.114125
H	-0.4535022369	-2.6438078858	 0.6275961927	 0.119442
H	-3.0750386493	-2.2216672192	-0.9395834168	 0.107474
H	-3.563870923	-4.6057356336	-0.2561147126	 0.122782
H	-1.902980478	-4.7385045408	 0.5213663492	 0.117539
60.4972	66.1623	134.8803	141.5297	169.8128	292.443	331.9394	445.933	487.9581	558.5117	606.1994	805.9713	863.2258	875.575	888.0654	955.0652	993.4956	1007.3019	1076.0637	1081.8573	1103.1936	1130.0643	1156.1868	1164.1736	1174.614	1267.9802	1292.8591	1320.1878	1375.5663	1409.664	1460.5413	1474.4367	1477.891	1498.3666	1533.6765	1736.6947	2997.857	3050.9669	3052.0571	3085.0055	3110.489	3118.4174	3170.7062	3171.8504	3498.5157
CC(=N)OCC1CO1	C[C]([NH])OC[C@H]1CO1	
InChI=1S/C5H9NO2/c1-4(6)7-2-5-3-8-5/h5-6H,2-3H2,1H3	InChI=1S/C5H9NO2/c1-4(6)7-2-5-3-8-5/h5-6H,2-3H2,1H3/t5-/m0/s1
