23
gdb 74031	2.06953	1.7997	1.03711	0.137	93.85	-0.2161	0.0328	0.2489	1231.0351	0.207797	-351.17202	-351.163463	-351.162519	-351.204772	34.102	
C	 0.0088347263	 1.493406831	-0.028938053	-0.479467
C	-0.032442052	-0.0057154631	 0.0754270018	 0.12125
C	-1.1528130953	-0.721617048	 0.0931718927	 0.272271
C	-2.6170566786	-0.5172049919	-0.2490176147	-0.320961
C	-2.5787932875	-1.9656601915	-0.8478315356	-0.250799
C	-1.2636886489	-2.2249023396	-0.0446551352	-0.020744
C	 0.0024438651	-2.8409360479	-0.6262252963	-0.231824
C	 1.1917703777	-2.2723991997	 0.174092434	-0.204851
C	 1.2988218807	-0.7344496728	 0.0767950127	-0.270953
H	 0.5780534614	 1.8158012805	-0.9112260194	 0.116534
H	-0.9938754896	 1.9239641201	-0.0943930212	 0.118915
H	 0.5089732604	 1.938719671	 0.8413228838	 0.119805
H	-3.2653713065	-0.4625033496	 0.6335505487	 0.103719
H	-2.8792652092	 0.3052085527	-0.920430347	 0.102177
H	-3.4320411588	-2.6166327641	-0.642422695	 0.09346
H	-2.3935061951	-1.9454354248	-1.925353881	 0.101721
H	-1.5089784847	-2.7032142392	 0.9142314565	 0.070024
H	-0.0039801507	-3.9358561634	-0.5800471622	 0.086964
H	 0.097869474	-2.560709883	-1.6835910246	 0.089582
H	 1.0673522992	-2.5599030886	 1.2260718154	 0.097869
H	 2.1329941654	-2.7227560653	-0.1590920308	 0.089418
H	 1.8309455141	-0.4599043419	-0.847772771	 0.098904
H	 1.9360407627	-0.359612851	 0.8903295914	 0.096984
129.7134	148.7205	172.3723	218.2223	258.0615	291.427	391.481	413.4537	455.2716	507.3883	597.1298	614.385	700.8785	783.2969	840.876	870.9852	886.6103	899.179	925.065	968.8561	990.102	1014.623	1041.1764	1056.0178	1089.0526	1114.3927	1119.1052	1145.206	1174.2954	1198.595	1215.8069	1231.8855	1241.4924	1259.4103	1279.149	1282.493	1342.1237	1366.2148	1374.1769	1377.0603	1409.9236	1474.3289	1476.0597	1480.1901	1486.4677	1488.5811	1493.3301	1497.9906	1786.9496	2982.8311	2996.3354	3009.0492	3011.2626	3018.8952	3028.3549	3031.824	3052.4125	3056.758	3064.6922	3070.0584	3085.8868	3109.512	3115.0778
CC1=C2CCC2CCC1	C[C]1[C]2CC[C@H]2CCC1	
InChI=1S/C9H14/c1-7-3-2-4-8-5-6-9(7)8/h8H,2-6H2,1H3	InChI=1S/C9H14/c1-7-3-2-4-8-5-6-9(7)8/h8H,2-6H2,1H3/t8-/m1/s1
