19
gdb 102632	2.47843	1.04667	0.92682	1.311	68.73	-0.2407	0.0556	0.2962	1342.9311	0.1593	-493.513759	-493.503628	-493.502684	-493.549191	36.806	
N	-0.1769437941	 1.3393724082	-0.1425609461	-0.565355
C	-0.0019154098	-0.0394174491	-0.0984226113	 0.456159
O	 1.087042396	-0.5679827715	-0.2576169964	-0.40795
N	-1.1567485351	-0.745956401	 0.1167264611	-0.330366
C	-1.176486698	-2.1955563236	 0.0249715491	 0.016918
C	-2.497824877	-2.684185297	 0.6402092709	-0.086071
O	-3.6217449367	-2.0157065577	 0.0899130236	-0.430508
C	-0.9785141389	-2.7086740725	-1.406887462	-0.09906
O	-2.110577353	-2.3187386704	-2.1916714169	-0.431829
H	 0.6956653695	 1.8387583114	-0.0607029099	 0.257844
H	-0.9272144357	 1.7318803727	 0.4064617672	 0.248071
H	-2.0545511595	-0.3070876662	-0.0242966101	 0.247727
H	-0.3390664181	-2.5864423689	 0.612871095	 0.106572
H	-2.5719440017	-3.7756113625	 0.5171518087	 0.090574
H	-2.5053824922	-2.466132707	 1.7126314164	 0.112838
H	-3.5710570685	-2.1580967971	-0.8662157767	 0.2947
H	-0.0523452474	-2.2845936678	-1.809553402	 0.132683
H	-0.8820429661	-3.8049880441	-1.3821606128	 0.089716
H	-1.9653620038	-2.587177246	-3.1027067278	 0.297336
62.791	76.8615	123.2139	154.2489	207.0493	234.5499	273.7118	291.0155	349.3741	400.3273	466.85	485.6618	519.2781	553.599	623.9595	660.1584	747.4607	788.33	827.7323	926.1424	958.3148	994.098	1057.4179	1078.0336	1098.159	1127.2726	1176.5459	1205.7648	1241.453	1267.5186	1290.2551	1356.7607	1383.5147	1400.4797	1442.9666	1465.9877	1498.3979	1524.7121	1526.9143	1626.1688	1785.355	2984.5282	2992.665	3063.21	3072.9729	3081.3634	3573.3265	3612.7331	3688.4239	3732.4322	3844.5598
NC(=O)NC(CO)CO	NC(=O)NC(CO)CO	
InChI=1S/C4H10N2O3/c5-4(9)6-3(1-7)2-8/h3,7-8H,1-2H2,(H3,5,6,9)	InChI=1S/C4H10N2O3/c5-4(9)6-3(1-7)2-8/h3,7-8H,1-2H2,(H3,5,6,9)
