23
gdb 108210	2.94081	1.3301	1.21919	1.2875	84.03	-0.2608	0.0759	0.3367	1154.5031	0.209102	-388.314204	-388.305944	-388.305	-388.346681	33.517	
O	-0.085376938	 1.4249881312	 0.0118208589	-0.428503
C	-0.0322858822	 0.0018450402	-0.0042901716	-0.176638
C	-1.4506380936	-0.5266856187	 0.0129198569	 0.35949
C	-2.2605916444	-0.1537133307	 1.2822888565	-0.229299
C	-3.4229874598	-1.1968543133	 1.2920672062	-0.215964
C	-3.1505847713	-2.036876243	 0.0241358912	-0.001322
C	-3.463445511	-1.1699426619	-1.2160411509	-0.215965
C	-2.3009645056	-0.1268654366	-1.2213912056	-0.229299
C	-1.6077946833	-2.065739283	-0.0010563443	-0.271187
H	 0.8157899844	 1.7598481029	 0.0011846025	 0.2862
H	 0.4890863408	-0.3614605049	-0.905609842	 0.078019
H	 0.5177575295	-0.3805186759	 0.8717472677	 0.07802
H	-1.63429544	-0.2516082915	 2.1755642486	 0.086734
H	-2.6097846642	 0.8805205546	 1.2485512781	 0.105082
H	-3.3823871181	-1.8224264561	 2.1893998476	 0.090165
H	-4.412605447	-0.7303353605	 1.2698696681	 0.090651
H	-3.6496436148	-3.0082971357	 0.0217638927	 0.051048
H	-3.4520450446	-1.7761056308	-2.1274299843	 0.090165
H	-4.4516637125	-0.7043353669	-1.1519203933	 0.090651
H	-2.648515627	 0.9062929188	-1.1542646593	 0.105083
H	-1.7038230029	-0.2053968351	-2.1362828039	 0.086738
H	-1.1978024869	-2.5325133094	-0.903419106	 0.085065
H	-1.1690849774	-2.5516191739	 0.8773995662	 0.085064
107.2329	157.3075	175.9719	256.9429	323.6626	333.0762	393.963	433.8372	452.6546	547.0559	632.5405	762.908	787.7824	801.9656	825.912	865.2754	907.1599	936.7567	937.2655	961.3534	970.0541	974.9184	1019.932	1023.1625	1056.9475	1079.4061	1113.1461	1134.1008	1162.443	1191.9749	1212.3378	1223.1421	1230.4914	1251.1477	1269.7314	1286.6222	1297.683	1309.5489	1327.8218	1336.7535	1341.9476	1368.2291	1461.0917	1485.6591	1489.6587	1499.3405	1501.3867	1515.177	1528.2854	2952.2138	2980.7601	3034.0376	3038.3178	3039.1122	3048.4888	3051.7665	3077.6329	3081.2106	3083.1744	3090.3309	3104.7161	3109.9456	3830.8181
OCC12CCC(CC1)C2	OC[C@@]12CC[C@@H](CC1)C2	
InChI=1S/C8H14O/c9-6-8-3-1-7(5-8)2-4-8/h7,9H,1-6H2	InChI=1S/C8H14O/c9-6-8-3-1-7(5-8)2-4-8/h7,9H,1-6H2/t7-,8-
