20
gdb 106917	3.90941	1.10025	0.9897	3.4887	81.	-0.2499	0.0284	0.2783	1266.2787	0.172042	-403.166407	-403.15788	-403.156935	-403.199633	32.628	
C	-0.3189772095	 1.5047586323	-0.0985505531	-0.380303
C	 0.1424499534	 0.0478626985	 0.041547407	-0.286064
C	 0.8268672693	-0.4838677984	-1.1972338055	 0.340002
C	 0.043234991	-1.0565392485	-2.3421297195	-0.330225
C	 0.952007842	-1.958919858	-1.5220852504	-0.189836
C	 2.3095008775	-2.1533199086	-2.0875268856	 0.427825
N	 2.8650656965	-3.259162446	-2.3397917038	-0.553882
O	 2.8857104531	-0.9242236106	-2.3055365883	-0.253833
C	 2.172028785	 0.106674507	-1.6032945317	-0.149883
H	 0.5262811805	 2.1784580692	-0.275930769	 0.120479
H	-1.0157344057	 1.6181966686	-0.9354002822	 0.122697
H	-0.8244698533	 1.843663321	 0.8104781293	 0.118679
H	 0.8234803185	-0.0419282557	 0.8982598757	 0.103951
H	-0.7210830739	-0.5884297406	 0.2684020473	 0.103689
H	-1.0222194811	-1.1953596403	-2.1937788791	 0.119691
H	 0.3342286202	-0.8244250585	-3.3618450935	 0.12639
H	 0.527956543	-2.7477584137	-0.9162703191	 0.112948
H	 3.8138687724	-3.1080663289	-2.6867317342	 0.220304
H	 2.0932403137	 0.9705883407	-2.2708585768	 0.117801
H	 2.7515822375	 0.4002448805	-0.7177276775	 0.109569
80.7681	117.8776	168.6115	203.1217	243.9754	334.6358	371.1298	379.3133	454.2402	591.8565	650.659	706.5614	752.1863	786.2581	817.7107	884.4793	903.0217	921.1691	957.4367	983.8921	986.774	1022.1443	1050.6306	1067.5002	1073.8926	1084.5236	1114.0942	1134.2507	1222.5351	1251.2177	1255.9414	1285.6746	1352.8208	1361.5799	1388.8495	1411.737	1421.0422	1480.887	1492.7114	1498.8097	1506.8013	1519.7457	1777.879	3013.7737	3019.9297	3035.312	3056.8966	3074.6573	3102.9045	3110.3413	3127.3379	3212.3699	3220.2437	3472.7853
CCC12CC1C(=N)OC2	CC[C@]12C[C@H]1[C]([NH])OC2	
InChI=1S/C7H11NO/c1-2-7-3-5(7)6(8)9-4-7/h5,8H,2-4H2,1H3	InChI=1S/C7H11NO/c1-2-7-3-5(7)6(8)9-4-7/h5,8H,2-4H2,1H3/t5-,7+/m0/s1
