19
gdb 46781	2.78614	1.68422	1.31845	2.93	76.2	-0.2247	0.0184	0.2431	1010.0108	0.162823	-419.191123	-419.183813	-419.182869	-419.222771	29.753	
N	-0.0183487882	 1.3246899609	-0.494400933	-0.491965
C	-0.0115313414	 0.1354076587	-0.0558585299	 0.359083
C	-1.327584052	-0.6172192755	 0.1126456338	-0.247947
N	-1.6498815283	-1.2109017918	 1.4096070486	-0.289435
C	-0.6107670884	-1.9997577646	 2.0588603229	 0.012325
C	 0.6592858639	-1.1969672897	 2.4996383757	-0.25788
C	 1.2968560878	-1.5567841754	 1.1349752389	 0.120157
C	 0.297605258	-2.7401536027	 1.0390104911	-0.248168
O	 1.169255643	-0.5278217103	 0.149320881	-0.264424
H	 0.9427725465	 1.6618438	-0.5937326863	 0.216299
H	-2.1133801399	 0.0945887867	-0.1413259937	 0.136567
H	-1.3523425958	-1.4031639562	-0.6520264324	 0.126459
H	-1.9629644322	-0.4831876124	 2.0437456687	 0.222989
H	-1.0773431725	-2.6144422814	 2.8338880572	 0.077337
H	 0.5352754963	-0.1331495167	 2.7212618425	 0.107654
H	 1.1893013174	-1.6783105145	 3.3264679254	 0.104979
H	 2.3593138212	-1.8017122964	 1.1161575653	 0.090383
H	 0.7376387211	-3.6320456204	 1.4920839425	 0.110779
H	-0.1052051364	-3.0101178583	 0.0623201217	 0.114806
85.1949	197.7149	322.3076	328.6078	357.6304	434.3189	455.6944	486.6019	535.2542	667.7723	733.8718	772.7229	799.7776	846.6072	876.2893	895.0785	914.0873	933.9464	951.1455	985.9568	1024.6853	1062.9376	1090.8528	1095.3781	1108.2786	1162.3828	1208.3333	1225.6001	1257.3569	1265.7797	1274.3358	1299.4293	1319.4656	1364.4753	1385.0305	1413.734	1456.2397	1474.3529	1490.3556	1501.0532	1732.8687	3034.33	3051.9698	3060.8343	3078.148	3105.2552	3113.9826	3131.3429	3135.6038	3446.9256	3519.2508
N=C1CNC2CC(C2)O1	[NH][C]1CN[C@@H]2C[C@@H](C2)O1	
InChI=1S/C6H10N2O/c7-6-3-8-4-1-5(2-4)9-6/h4-5,7-8H,1-3H2	InChI=1S/C6H10N2O/c7-6-3-8-4-1-5(2-4)9-6/h4-5,7-8H,1-3H2/t4-,5+
