16
gdb 27196	3.33619	1.64771	1.11061	3.1975	79.55	-0.1733	0.0181	0.1914	1043.5836	0.127407	-396.979507	-396.971862	-396.970918	-397.011555	29.195	
C	-0.0200234738	 1.5024911531	 0.0493406343	-0.510293
C	 0.0087046359	 0.0144904549	-0.0395117025	 0.178252
C	-0.0024190086	-0.8491684821	-1.1214025149	 0.21726
N	-0.0410777779	-0.8364905398	-2.5114034861	-0.360347
C	-0.022849949	-2.0997637169	-2.8356912025	-0.001895
N	 0.0255566909	-2.975845594	-1.761647815	-0.431433
C	 0.0398909085	-2.1848117646	-0.6262984953	 0.30441
C	 0.077120264	-2.1564072142	 0.7468660896	-0.242629
N	 0.0570739797	-0.8044083304	 1.0683638031	-0.30006
H	 0.8743762605	 1.911009296	 0.5374253834	 0.122481
H	-0.0660161646	 1.9191868195	-0.9591120196	 0.15396
H	-0.8929996417	 1.8725945807	 0.6024066429	 0.12216
H	-0.0427234093	-2.479065744	-3.8486477897	 0.121519
H	 0.0446731866	-3.9779337758	-1.8204932441	 0.258609
H	 0.1140256323	-2.9131125953	 1.5108449563	 0.113123
H	 0.0756568064	-0.4601825772	 2.0128403301	 0.254884
84.0089	179.7399	239.4075	248.3961	296.0425	372.6964	456.33	538.3279	588.9788	601.3807	610.0875	643.4472	711.7683	768.5815	806.8135	846.2062	942.3064	971.9297	1058.7875	1076.7909	1103.5481	1109.5909	1200.5666	1267.7588	1315.9815	1318.8162	1365.4603	1414.4556	1438.5252	1466.8289	1482.2813	1502.8287	1547.7866	1593.2286	1691.2854	3009.9599	3051.6691	3127.4967	3231.8264	3277.8335	3675.2724	3690.1462
CC1=C2N=CNC2=CN1	Cc1c2nc[nH]c2c[nH]1	
InChI=1S/C6H7N3/c1-4-6-5(2-7-4)8-3-9-6/h2-3,7H,1H3,(H,8,9)	InChI=1S/C6H7N3/c1-4-6-5(2-7-4)8-3-9-6/h2-3,7H,1H3,(H,8,9)
