18
gdb 112337	2.06156	1.47502	0.91137	5.315	75.78	-0.2358	-0.0211	0.2148	1262.9621	0.14737	-439.135772	-439.126594	-439.12565	-439.169891	33.445	
C	-0.0292731952	 1.4827568301	 0.0425922326	-0.496341
C	-0.0022300147	-0.0100525415	-0.0106352072	 0.319461
C	-0.0501113962	-0.8096223799	-1.0816083657	-0.329233
C	-0.0114680089	-2.242311337	-0.6651854462	 0.420338
O	 0.0222008151	-3.2355898496	-1.3606861357	-0.389819
N	-0.0227832542	-2.2039968041	 0.7153347508	-0.334591
C	 0.0630862683	-0.8627300561	 1.2444949935	-0.062344
C	 1.3388768136	-0.6566714091	 2.0661691432	-0.083247
O	 1.2774700296	-1.5736703732	 3.1477889058	-0.421433
H	 0.8844009353	 1.8877985126	 0.4948784236	 0.135775
H	-0.128853209	 1.9108431749	-0.9575231196	 0.137777
H	-0.8663137325	 1.8410440013	 0.6541745846	 0.137847
H	-0.1061467108	-0.5153411223	-2.120692479	 0.116214
H	 0.1829225694	-3.011714494	 1.2794315723	 0.257836
H	-0.7910749124	-0.6417013861	 1.9036266642	 0.103073
H	 2.2115146557	-0.8434729723	 1.4231988181	 0.101935
H	 1.3870017925	 0.3831501266	 2.4244646097	 0.091805
H	 2.1202622344	-1.5594172601	 3.6103175951	 0.294948
79.9936	136.6277	138.9587	175.1378	196.7021	247.8218	268.8481	359.5714	424.3539	482.0959	540.1421	547.9476	580.2816	699.5001	736.4589	857.321	890.5773	938.3912	985.8354	1011.4673	1040.3535	1076.2564	1086.0761	1129.8723	1158.8386	1209.7014	1225.8845	1254.4242	1302.6763	1330.9213	1370.1198	1406.0215	1416.0958	1447.8362	1479.4817	1483.5182	1513.9496	1693.7779	1820.9085	2978.6409	2985.2796	3022.071	3026.7888	3071.8573	3122.2475	3233.2063	3667.1113	3836.1405
CC1=CC(=O)NC1CO	CC1=CC(=O)N[C@H]1CO	
InChI=1S/C6H9NO2/c1-4-2-6(9)7-5(4)3-8/h2,5,8H,3H2,1H3,(H,7,9)	InChI=1S/C6H9NO2/c1-4-2-6(9)7-5(4)3-8/h2,5,8H,3H2,1H3,(H,7,9)/t5-/m0/s1
