15
gdb 6298	4.39617	1.07175	1.00445	4.215	62.72	-0.2662	-0.0313	0.2349	1170.4176	0.115775	-399.826027	-399.816948	-399.816003	-399.860656	30.945	
C	 0.0587388317	 1.4419868523	 0.2886371095	-0.481531
C	 0.0979307027	-0.0199043004	-0.0986370881	 0.399832
O	 1.1036838196	-0.5692848822	-0.4786736455	-0.28727
C	-1.2320363065	-0.7784888877	-0.0176739986	-0.329459
C	-1.0020619093	-2.2812418906	 0.2022120178	-0.004096
O	-0.5480875105	-2.5694010445	 1.5112778313	-0.41193
C	-2.2155325396	-3.0535707221	-0.1258161642	 0.251673
N	-3.1839316494	-3.6431931402	-0.3498655295	-0.315957
H	 1.0067278307	 1.9211088623	 0.0425749222	 0.151685
H	-0.7675930637	 1.9565407159	-0.2141210689	 0.14199
H	-0.1236300795	 1.5274325431	 1.3666887728	 0.149696
H	-1.8770779746	-0.3685519632	 0.7674087493	 0.119735
H	-1.7576283344	-0.6106250318	-0.9673720655	 0.154343
H	-0.1904292039	-2.5926223819	-0.4627639886	 0.166633
H	-1.2794326334	-2.432659119	 2.1246480262	 0.294654
48.9749	67.6355	131.0499	139.2938	193.3137	270.0029	334.1505	340.6995	398.2519	479.7119	559.0693	588.943	596.6787	807.7152	836.5924	901.7264	977.504	992.5154	1079.8695	1103.7608	1170.0184	1200.5608	1273.2818	1307.0054	1370.0059	1386.1787	1422.6426	1448.7418	1461.7376	1474.5155	1820.5793	2354.7838	3031.3784	3036.4117	3074.5279	3088.3208	3095.4822	3156.3502	3799.3462
CC(=O)CC(O)C#N	CC(=O)C[C@@H](O)C#N	
InChI=1S/C5H7NO2/c1-4(7)2-5(8)3-6/h5,8H,2H2,1H3	InChI=1S/C5H7NO2/c1-4(7)2-5(8)3-6/h5,8H,2H2,1H3/t5-/m1/s1
