19
gdb 119500	3.77583	1.05903	0.95869	2.2308	75.6	-0.2288	0.0637	0.2925	1289.3539	0.157561	-422.929535	-422.921048	-422.920104	-422.963142	31.935	
C	 0.5387295403	 1.371393434	 0.0812164715	-0.220291
O	 0.8779829795	 0.0125147728	 0.2168265398	-0.237917
C	-0.0319603357	-0.7020755536	 1.0343290561	-0.188724
C	 0.3577028296	-2.1410876647	 1.0472276158	 0.308466
C	 0.1467130693	-3.0788965021	 2.2061279368	-0.347746
C	 1.5476781973	-2.8245794649	 1.7153116245	-0.142052
C	 1.8230034712	-3.5800907185	 0.3770659017	 0.029317
O	 0.6659197131	-4.3491188154	 0.0103607574	-0.244725
C	 0.6834782138	-2.9400030611	-0.2627700086	-0.027203
H	 0.5442770456	 1.893648672	 1.0514950863	 0.103054
H	 1.2848869305	 1.8322208638	-0.5705909112	 0.127349
H	-0.4578588461	 1.5028435015	-0.3701322287	 0.103478
H	-0.0333202002	-0.2973072501	 2.0610185607	 0.087494
H	-1.0583530819	-0.5827635524	 0.6412482437	 0.088136
H	-0.0979539876	-2.5921272181	 3.1453692208	 0.111017
H	-0.3204509964	-4.0423306848	 2.0472546587	 0.137231
H	 2.3207195419	-2.3727502653	 2.322147089	 0.097312
H	 2.7827475962	-3.899286963	-0.009424468	 0.108293
H	 0.5119159096	-2.6124087599	-1.2804393765	 0.107511
75.9665	93.8871	112.9185	227.3523	271.468	328.5304	355.035	419.1796	478.2318	595.6446	657.0051	755.7072	781.5423	806.5797	865.6993	877.0284	913.8738	961.1864	974.2222	979.4592	1011.7217	1023.7452	1040.5417	1081.2209	1101.3816	1148.3798	1178.8985	1194.7967	1209.7932	1224.0714	1243.5289	1271.2552	1298.3242	1352.6129	1394.3768	1429.7219	1475.9315	1481.2067	1485.7039	1499.746	1519.5676	2932.9858	2965.8352	2970.1271	3009.9153	3113.973	3137.1133	3189.6867	3203.2837	3209.8176	3231.6295
COCC12CC1C1OC21	COC[C@]12C[C@H]1[C@H]1O[C@@H]21	
InChI=1S/C7H10O2/c1-8-3-7-2-4(7)5-6(7)9-5/h4-6H,2-3H2,1H3	InChI=1S/C7H10O2/c1-8-3-7-2-4(7)5-6(7)9-5/h4-6H,2-3H2,1H3/t4-,5+,6+,7+/m0/s1
