20
gdb 107745	2.47427	1.58917	1.33369	3.1025	78.81	-0.2263	0.0673	0.2936	1064.2396	0.1707	-403.083347	-403.074707	-403.073763	-403.116366	33.172	
C	-0.3056843452	 1.397051122	 0.3826181844	-0.532573
C	 0.0474822143	-0.0270172879	 0.1243807151	 0.319315
C	 0.354086855	-0.8347290663	-1.0806427318	-0.08753
C	 1.5443071194	-1.5184456669	-0.4122131947	-0.309973
C	 0.8673933026	-1.1297886524	 0.9299295278	 0.279985
C	 1.6609475627	-0.9489556295	 2.1893316266	-0.214938
O	 0.7748227728	-0.4899560348	 3.2038231974	-0.422258
C	-0.4381931578	-1.9420214684	 0.8717787996	-0.188576
N	-0.9018564709	-1.1020367978	-0.2796977851	-0.188922
H	 0.5809008369	 2.0400262802	 0.3444550077	 0.116829
H	-1.0162795324	 1.7483771847	-0.372126398	 0.131584
H	-0.7622770506	 1.5131293232	 1.3708118929	 0.137279
H	 0.206395894	-0.5972592614	-2.1262975926	 0.093199
H	 1.7239459979	-2.583971348	-0.5953909705	 0.092848
H	 2.4638283345	-0.9526440985	-0.5896446399	 0.100816
H	 2.1294198649	-1.9079414783	 2.4702040896	 0.089793
H	 2.4766153431	-0.2272363244	 2.018888927	 0.086509
H	 1.2795532879	-0.3658526061	 4.0128110437	 0.289638
H	-0.3697000026	-3.019081826	 0.6731141384	 0.086164
H	-1.0927835567	-1.7573400433	 1.7252147525	 0.120812
87.6081	148.0527	188.2529	204.8784	238.4773	262.4497	340.0953	404.6019	469.3869	485.8818	626.2521	649.0936	712.2129	750.1765	830.8688	856.3985	922.5467	932.7523	967.9607	982.9425	1015.2942	1062.3593	1067.9871	1095.2488	1106.1221	1118.5135	1150.1613	1171.0396	1175.9321	1231.0788	1235.9831	1254.2975	1272.88	1290.7699	1352.2488	1397.7174	1446.7879	1463.9268	1477.8959	1491.8295	1493.4574	1510.6205	1517.5796	2952.1383	2980.2298	3023.8855	3029.1315	3035.4931	3092.1042	3093.1485	3109.4098	3120.9242	3199.6608	3832.078
CC12C3CC1(CO)CN23	C[C@@]12[C@H]3C[C@]1(CO)CN23	
InChI=1S/C7H11NO/c1-6-5-2-7(6,4-9)3-8(5)6/h5,9H,2-4H2,1H3	InChI=1S/C7H11NO/c1-6-5-2-7(6,4-9)3-8(5)6/h5,9H,2-4H2,1H3/t5-,6-,7-,8?/m1/s1
