20
gdb 16411	3.4759	2.02161	1.62157	0.1816	80.07	-0.2199	0.0311	0.251	890.9752	0.179637	-311.877087	-311.870119	-311.869175	-311.907722	28.632	
C	-0.0005058947	 1.5046446513	 0.0450603838	-0.502202
C	-0.0028799092	 0.0062062003	-0.0159811953	 0.356208
C	-0.0190630057	-0.7051317575	-1.1470144365	-0.168058
C	-0.0197917889	-2.2163253297	-1.0893787952	-0.247566
C	-0.0002856813	-2.6943373249	 0.3724174221	-0.011369
C	-1.0563456843	-1.908219827	 1.2038023618	-0.215208
C	 0.0141722633	-0.7779416216	 1.2885689382	-0.09894
C	 1.0796921927	-1.9103713911	 1.174596097	-0.215208
H	 0.8857542108	 1.8791405122	 0.5744168274	 0.121851
H	-0.013973556	 1.9499883473	-0.9537502946	 0.117971
H	-0.8708870807	 1.8809289994	 0.5989206728	 0.121844
H	-0.031897464	-0.2209824368	-2.1204305922	 0.073453
H	-0.9037843049	-2.6178537788	-1.6059818225	 0.099453
H	 0.8489410098	-2.6196117015	-1.6299435936	 0.099453
H	-0.0005020608	-3.7852709174	 0.436989044	 0.055511
H	-2.0125208554	-1.6651547602	 0.7328152619	 0.090105
H	-1.229091156	-2.378750241	 2.175769351	 0.090543
H	 0.0268460701	-0.130180271	 2.1677508827	 0.051513
H	 1.2780012807	-2.3812759749	 2.1414891483	 0.090543
H	 2.0231204244	-1.669220937	 0.6776347188	 0.090104
156.5091	200.8651	311.645	314.7212	360.9292	422.2046	451.2056	581.7241	633.8596	751.0772	812.534	820.37	824.7559	874.4024	908.5134	936.4149	938.2004	956.7317	1028.7342	1040.5955	1068.3421	1072.7248	1094.268	1097.2434	1131.6594	1134.007	1182.5018	1206.3555	1247.0965	1261.1397	1289.0942	1295.5901	1341.2894	1367.566	1373.1303	1411.8577	1473.4112	1477.4156	1478.1289	1488.9567	1504.7121	1728.6209	2995.4786	3009.2785	3017.8535	3046.5522	3049.7742	3053.4022	3072.7517	3081.6899	3105.569	3105.8625	3108.6745	3153.5242
CC1=CCC2CC1C2	CC1=CC[C@@H]2C[C@H]1C2	
InChI=1S/C8H12/c1-6-2-3-7-4-8(6)5-7/h2,7-8H,3-5H2,1H3	InChI=1S/C8H12/c1-6-2-3-7-4-8(6)5-7/h2,7-8H,3-5H2,1H3/t7-,8+
