19
gdb 78755	2.85101	1.56358	1.21241	0.8872	73.93	-0.2426	0.0716	0.3142	1052.5029	0.160342	-422.99757	-422.98985	-422.988906	-423.029221	31.611	
O	 0.076251275	 1.3670553047	 0.0933674623	-0.440457
C	 0.0471918313	-0.0448838773	 0.0492698241	 0.141933
C	-1.3630414784	-0.6277220418	 0.0153652826	-0.17959
C	-1.2425473557	-0.9032840785	-1.4894336491	-0.144848
C	 0.2900049375	-0.653975728	-1.3748736717	-0.0891
C	 0.934015995	-2.0471162206	-1.2907148139	-0.216843
C	-0.0915091935	-2.8848451637	-0.4806933773	-0.300253
C	-1.3732352726	-2.0502851951	-0.5411557216	 0.421704
O	-2.6046082902	-2.7047570885	-0.5141018569	-0.48275
H	-0.5770592034	 1.6890597582	-0.5390274556	 0.276815
H	 0.7286820426	-0.3707605964	 0.8433772621	 0.076599
H	-2.218766434	-0.2616337441	 0.5735853234	 0.083699
H	-1.9232929941	-0.697186435	-2.3044175497	 0.092965
H	 0.7637420375	 0.0393812837	-2.0705523688	 0.071026
H	 1.0550301234	-2.4658873166	-2.2951286221	 0.102548
H	 1.9239146842	-2.0148509441	-0.8249862716	 0.099649
H	-0.278459016	-3.8613978204	-0.9363901085	 0.10751
H	 0.2377834978	-3.062243046	 0.5494466704	 0.095801
H	-2.7727424563	-2.9890269907	 0.3908338122	 0.283593
152.2337	219.9881	255.6871	297.2897	318.8845	369.951	399.9876	401.1937	478.0712	575.7046	641.4835	747.8237	790.8941	840.8999	863.7369	872.3081	894.0992	922.653	951.6145	972.7346	988.7068	1021.8342	1050.1003	1063.0942	1082.5308	1133.9155	1143.1043	1198.6156	1204.8233	1234.6689	1244.7094	1268.1001	1278.0574	1291.2172	1303.1272	1327.0204	1346.367	1433.1805	1435.2452	1487.6198	1509.0156	3036.5263	3042.8468	3047.235	3080.276	3096.6733	3110.9333	3164.8351	3205.1641	3786.139	3798.8764
OC1C2C3C1CCC23O	O[C@H]1[C@H]2[C@H]3[C@@H]1CC[C@@]23O	
InChI=1S/C7H10O2/c8-6-3-1-2-7(9)4(3)5(6)7/h3-6,8-9H,1-2H2	InChI=1S/C7H10O2/c8-6-3-1-2-7(9)4(3)5(6)7/h3-6,8-9H,1-2H2/t3-,4+,5+,6+,7-/m0/s1
