19
gdb 41575	2.8882	1.84241	1.79364	2.131	72.59	-0.2435	0.0802	0.3237	881.4117	0.163534	-423.012612	-423.006322	-423.005378	-423.04302	26.732	
C	-0.0273563842	 1.5316971559	 0.1698522204	-0.098983
O	 1.4202086088	 1.5752644811	 0.0710639166	-0.298973
C	 1.5030841845	 0.1405346742	-0.0630251808	 0.129734
C	-0.0444252194	 0.0045407591	-0.0298177641	-0.075168
C	-0.3361952055	-0.5684329044	-1.4348085135	 0.086076
C	 0.8407375158	-1.5494533816	-1.5948426207	-0.233259
C	 1.8895147799	-0.4162570973	-1.4604916123	-0.090291
C	 1.3635193549	 0.5469698316	-2.5299377891	-0.076058
O	-0.0751187541	 0.4260845651	-2.4311296307	-0.280421
H	-0.3643981937	 1.8686987771	 1.1567566582	 0.098488
H	-0.5094652846	 2.1219054046	-0.6144911191	 0.119419
H	 2.0953661927	-0.3049111352	 0.7436057042	 0.074971
H	-0.4966242746	-0.5870013282	 0.7679231757	 0.076671
H	-1.3442947764	-0.9528949193	-1.5940859571	 0.074512
H	 0.8968123763	-2.2944718969	-0.796015552	 0.101384
H	 0.8563335125	-2.0504078372	-2.5658395839	 0.107033
H	 2.9374860192	-0.6917548924	-1.5809592229	 0.069761
H	 1.6544697926	 1.5826537332	-2.3414020757	 0.122822
H	 1.6847856953	 0.2531779007	-3.5373030532	 0.092283
157.4927	272.9766	324.1632	431.5726	442.942	535.4731	580.7138	739.6052	750.416	806.9291	841.7479	875.6861	891.8001	907.5228	939.169	941.3756	966.4484	989.1708	998.0726	1011.1839	1018.6351	1063.7791	1082.5251	1106.9207	1138.0121	1170.9425	1179.7885	1191.211	1228.456	1252.8001	1271.9942	1283.788	1307.4716	1324.9135	1329.5342	1353.1313	1362.6592	1391.6583	1490.4274	1510.9166	1519.7266	3020.8717	3031.3766	3043.5787	3062.3541	3090.3626	3098.5718	3102.9696	3112.6466	3117.0599	3119.4365
C1OC2C1C1CC2CO1	C1O[C@H]2[C@@H]1[C@@H]1C[C@H]2CO1	
InChI=1S/C7H10O2/c1-4-2-8-6(1)5-3-9-7(4)5/h4-7H,1-3H2	InChI=1S/C7H10O2/c1-4-2-8-6(1)5-3-9-7(4)5/h4-7H,1-3H2/t4-,5-,6-,7+/m0/s1
