17
gdb 44610	2.8338	2.07404	1.57323	4.2466	69.75	-0.2326	0.0307	0.2633	871.3474	0.140301	-418.031005	-418.024561	-418.023617	-418.061631	26.633	
O	 0.1829860711	 0.3721160805	 0.8085361551	-0.380719
C	 0.0775118587	 1.3458034586	 0.1065358454	 0.404159
N	-1.0702187589	 2.0823747453	-0.1178213361	-0.325029
C	-0.7591092105	 3.3189188703	-0.7689921143	-0.024095
C	 0.3831031519	 4.2164985514	-0.260940346	-0.06955
C	 1.2112636084	 3.8364449964	 0.9707375352	-0.26274
C	 2.0325033049	 2.6078988987	 0.4748501532	-0.168984
N	 1.1708024187	 1.9998762664	-0.5753220547	-0.153869
C	 0.6206933942	 3.1443774841	-1.3065137806	-0.052663
H	-1.8467041557	 1.9587781856	 0.5116114954	 0.257724
H	-1.5488358615	 3.7689017919	-1.3588213624	 0.111414
H	 0.3189920178	 5.2568796018	-0.5590661635	 0.094405
H	 1.8468912291	 4.6676983818	 1.2873538621	 0.106187
H	 0.5847034492	 3.5625314647	 1.8268056071	 0.115795
H	 2.9710755562	 2.9280553408	 0.0140294845	 0.109799
H	 2.2480594638	 1.8659999145	 1.2449934562	 0.137465
H	 0.9325292726	 3.3009416471	-2.3315521969	 0.100702
135.6335	222.7608	312.1973	429.7389	487.8983	521.7145	591.6744	650.6014	726.8613	753.4635	776.2132	804.9448	821.2234	829.9895	882.6889	913.5406	933.6545	996.9394	1039.5764	1044.3218	1057.7997	1084.2644	1108.0119	1127.3323	1165.4924	1205.9478	1220.1911	1262.0237	1289.6824	1308.2973	1348.9003	1356.0082	1375.3277	1417.1811	1490.5838	1502.0458	1853.1625	3046.5308	3065.6917	3094.9306	3138.3987	3174.7364	3178.8971	3190.2875	3647.6706
O=C1NC2C3CCN1C23	O=C1N[C@H]2[C@H]3CCN1[C@@H]23	
InChI=1S/C6H8N2O/c9-6-7-4-3-1-2-8(6)5(3)4/h3-5H,1-2H2,(H,7,9)	InChI=1S/C6H8N2O/c9-6-7-4-3-1-2-8(6)5(3)4/h3-5H,1-2H2,(H,7,9)/t3-,4+,5-/m1/s1
