20
gdb 122248	2.15682	1.30681	1.03476	1.5257	81.91	-0.245	0.0329	0.2779	1264.4208	0.168657	-403.071208	-403.061199	-403.060255	-403.107482	36.411	
C	 0.2587843382	 0.8973879091	-1.1710305479	-0.394268
C	 0.0136940244	-0.1286447674	-0.0680714632	-0.054422
O	-0.0997274562	-1.4762372617	-0.5178508402	-0.237014
C	 1.1065611839	-2.1363832222	-0.8407366636	-0.175532
C	 1.4925437126	-2.0244986322	-2.3348074494	 0.09624
C	 1.0623318127	-3.1354791946	-3.2452219302	-0.267077
N	 0.3758430516	-1.847232084	-3.2923095631	-0.328368
C	 2.7026936427	-1.2972242758	-2.6247022417	 0.313612
C	 3.7343602363	-0.7098277376	-2.8196931229	-0.445341
H	 1.2371123628	 0.7694558559	-1.6413197788	 0.144325
H	-0.5072024035	 0.8231021653	-1.9481783578	 0.12934
H	 0.2181142799	 1.9054442939	-0.7438248259	 0.111421
H	 0.805513222	-0.0662230759	 0.6943416019	 0.094604
H	-0.9388471408	 0.0783110092	 0.4309538955	 0.109148
H	 1.934505385	-1.7661629954	-0.2238471836	 0.109709
H	 0.9426006571	-3.190037438	-0.5911570053	 0.11148
H	 1.6618501744	-3.3682147987	-4.12020154	 0.127428
H	 0.5687608656	-3.9880564935	-2.7838255555	 0.115361
H	-0.4829376477	-1.8779472635	-2.7438582061	 0.243936
H	 4.638757679	-0.1875908328	-3.0117510724	 0.195415
21.0973	58.2745	101.9902	165.778	204.3052	255.6588	266.6535	330.3406	399.9435	414.5911	492.0868	543.6783	570.7068	606.6042	648.6744	706.0057	804.6528	834.3962	875.7077	907.111	928.6873	984.8088	1001.3632	1017.0009	1089.7012	1104.4614	1140.4964	1143.1826	1197.5027	1263.4412	1276.8007	1299.2757	1340.4582	1375.1479	1398.1168	1407.1614	1421.2173	1482.2019	1488.8716	1493.5207	1509.6768	1510.7533	2232.768	2989.5881	3021.9695	3040.67	3069.6111	3074.4575	3102.2529	3110.5325	3131.2063	3195.3307	3479.1332	3502.337
CCOCC1(CN1)C#C	CCOC[C@]1(CN1)C#C	
InChI=1S/C7H11NO/c1-3-7(5-8-7)6-9-4-2/h1,8H,4-6H2,2H3	InChI=1S/C7H11NO/c1-3-7(5-8-7)6-9-4-2/h1,8H,4-6H2,2H3/t7-/m1/s1
