12
gdb 50792	7.62304	0.61011	0.56489	5.4536	81.26	-0.2744	-0.0978	0.1767	1781.2531	0.077076	-431.666184	-431.657379	-431.656435	-431.701013	29.392	
N	 0.2843510277	 1.247906881	 0.0039989373	-0.386632
C	 0.0268119074	 0.0104003564	 0.0012158105	 0.083436
N	-1.2693183125	-0.5152665936	 0.0111982891	-0.326465
C	-2.475073607	 0.1676979361	 0.0271263657	 0.281549
O	-2.6271099311	 1.3627303162	 0.0357180414	-0.280574
C	-3.6194373593	-0.7469699342	 0.0330687612	-0.068774
C	-4.6166374444	-1.4303599034	 0.0389244442	 0.183921
C	-5.7327692858	-2.2165214111	 0.0453390892	 0.211204
N	-6.676231139	-2.8936864694	 0.0506952462	-0.318109
H	 1.2929830019	 1.3920877293	-0.0048941914	 0.240191
H	 0.7621191787	-0.8030660852	-0.0092641033	 0.108642
H	-1.3376547566	-1.5217772519	 0.0063555498	 0.271612
49.7107	65.2378	118.7604	183.5218	198.9636	243.7498	314.8153	356.9644	536.5897	566.9523	582.2837	583.0675	594.4048	749.766	827.412	910.3213	967.2971	1067.3853	1115.6183	1216.8065	1253.916	1430.6648	1536.3977	1734.6848	1802.4625	2256.7758	2391.7128	3047.0493	3502.4221	3626.7054
N=CNC(=O)C#CC#N	N=CNC(=O)C#CC#N	
InChI=1S/C5H3N3O/c6-3-1-2-5(9)8-4-7/h4H,(H2,7,8,9)	InChI=1S/C5H3N3O/c6-3-1-2-5(9)8-4-7/h4H,(H2,7,8,9)
