17
gdb 10691	2.83532	1.90394	1.3328	2.7014	70.43	-0.2405	0.0391	0.2796	950.2089	0.140025	-363.798313	-363.789515	-363.788571	-363.831183	32.78	
C	-0.2933929243	 1.5184363179	-0.1276818076	-0.416142
C	 0.1052683198	 0.0475498044	-0.0036720663	 0.030578
O	-1.0319125614	-0.7770186125	 0.2359540899	-0.444091
C	 0.7706347121	-0.47649342	-1.2828413281	 0.130025
C	 0.6360185256	-1.922043752	-1.6317847575	-0.276257
N	-0.1027663338	-0.9090746587	-2.3995543118	-0.349258
C	 1.9759064062	 0.2256748495	-1.6497247859	 0.289431
C	 2.9949456574	 0.807878313	-1.9116003577	-0.409583
H	 0.5824813607	 2.1406822769	-0.3254922303	 0.144084
H	-1.0080785691	 1.6546036658	-0.9453277909	 0.129671
H	-0.7552752454	 1.8704319597	 0.8021057163	 0.105556
H	 0.8299600766	-0.0634946694	 0.8178482437	 0.085148
H	-1.5833361425	-0.341305533	 0.8918728256	 0.290971
H	 1.44539036	-2.403806676	-2.1711865907	 0.123543
H	 0.0849916486	-2.5477649605	-0.9381801308	 0.134109
H	-1.0581530328	-0.8897175187	-2.0439266712	 0.240853
H	 3.8913521624	 1.3186299735	-2.1628581367	 0.191364
78.3256	148.3305	197.3637	215.2795	239.4476	273.668	292.1645	386.6003	437.7223	516.6762	535.4559	574.8549	606.0368	657.5404	681.5978	859.6542	877.693	919.4813	950.0834	1000.3046	1033.3518	1070.7183	1121.0141	1127.7345	1153.4269	1235.2436	1276.203	1306.1702	1361.2455	1370.46	1407.4162	1411.8989	1490.7637	1493.755	1501.1639	2237.3535	2982.1309	3032.921	3102.0895	3125.4449	3131.8212	3222.0861	3478.9261	3502.8452	3839.5672
CC(O)C1(CN1)C#C	C[C@@H](O)[C@]1(CN1)C#C	
InChI=1S/C6H9NO/c1-3-6(4-7-6)5(2)8/h1,5,7-8H,4H2,2H3	InChI=1S/C6H9NO/c1-3-6(4-7-6)5(2)8/h1,5,7-8H,4H2,2H3/t5-,6-/m1/s1
