17
gdb 64892	2.01348	1.69101	1.09183	1.3689	81.77	-0.2399	0.0277	0.2676	1138.8017	0.130938	-384.603972	-384.594067	-384.593122	-384.637966	37.358	
C	-0.0375507119	 1.5121655258	 0.0472361962	-0.455759
C	-0.0098952271	-0.0098710916	 0.00572419	 0.068443
C	 1.3255189115	-0.7116136845	-0.2080445571	-0.374451
C	 0.6819583166	-0.7481503468	 1.1635784051	 0.175338
O	 1.2028674911	 0.1038807802	 2.148653384	-0.449344
C	 0.1465385299	-1.9876382071	 1.6611649006	 0.320772
C	-0.2536226332	-3.0244887551	 2.12004256	-0.474073
C	-1.1785026438	-0.6164756989	-0.5739745895	 0.305175
C	-2.1663530612	-1.0829657773	-1.0762460868	-0.451916
H	 0.8516423689	 1.9031469109	 0.5420966893	 0.136107
H	-0.0858182511	 1.9088805018	-0.9712363122	 0.126159
H	-0.9177295414	 1.8641341047	 0.5922139821	 0.134194
H	 1.3358087674	-1.6219115997	-0.7946398393	 0.134829
H	 2.1972808828	-0.0731153585	-0.3020137257	 0.123931
H	 1.9099086816	-0.3726171786	 2.5984130574	 0.291072
H	-0.6291106291	-3.9352783471	 2.5164197078	 0.198152
H	-3.037213281	-1.5073343282	-1.5105081519	 0.191372
107.2089	111.5401	179.749	182.6266	191.5407	264.7914	271.6909	308.364	403.3903	420.8719	449.776	536.1642	563.6092	593.7768	600.1092	616.0442	645.1576	669.9693	678.2085	728.3591	858.8817	911.6405	937.3566	979.5988	1053.5807	1100.9153	1118.2008	1205.5216	1277.5506	1305.5865	1372.1405	1409.8666	1463.3265	1487.5425	1498.3463	2234.6169	2237.9158	3049.767	3115.1082	3138.1349	3151.2134	3240.2646	3502.0879	3504.3737	3798.4731
CC1(CC1(O)C#C)C#C	C[C@]1(C[C@]1(O)C#C)C#C	
InChI=1S/C8H8O/c1-4-7(3)6-8(7,9)5-2/h1-2,9H,6H2,3H3	InChI=1S/C8H8O/c1-4-7(3)6-8(7,9)5-2/h1-2,9H,6H2,3H3/t7-,8-/m1/s1
