21
gdb 92580	2.53784	1.63779	1.32863	1.3174	83.29	-0.2384	0.02	0.2584	1071.7054	0.184547	-387.100106	-387.092079	-387.091135	-387.132574	31.822	
C	 0.1452852568	 1.5596085406	-0.1650651334	-0.407686
C	 0.0695889505	 0.0637898413	 0.0437032386	 0.16573
O	 0.940736043	-0.6715988058	-0.8455405755	-0.316248
C	 1.3573432198	-1.5513398391	 0.2255693707	 0.144985
C	 2.8575611426	-1.763807178	 0.2825567006	-0.233819
C	 3.6202754178	-0.4642960269	 0.5826095012	-0.251975
C	 3.0101415293	 0.2823058664	 1.7400498151	-0.060534
C	 1.7171200746	 0.1987119299	 2.0608394493	-0.055639
C	 0.7268728088	-0.6191819704	 1.291888774	-0.15
H	 1.1566498979	 1.933224901	 0.0123063108	 0.127164
H	-0.141838247	 1.8025031985	-1.1932933827	 0.124373
H	-0.5437493234	 2.0774349582	 0.5112354169	 0.111948
H	-0.969267488	-0.2795309458	-0.0810126062	 0.066895
H	 0.836563403	-2.5169016288	 0.14984855	 0.064296
H	 3.0601893685	-2.4997830076	 1.0711346655	 0.10072
H	 3.1962379787	-2.2018763519	-0.6630361911	 0.105405
H	 4.6737591474	-0.6855740026	 0.785748234	 0.097682
H	 3.6109421368	 0.1725922805	-0.3120188733	 0.125645
H	 3.6672927339	 0.9175789908	 2.3290043077	 0.085971
H	 1.3336263861	 0.7673541941	 2.9050094872	 0.083873
H	 0.0033581228	-1.0903846945	 1.9624345505	 0.071213
75.9366	166.2628	196.6945	229.806	322.5879	344.042	434.8642	472.5589	507.8452	590.4471	683.3697	720.495	771.9533	797.6341	865.6103	880.0688	887.1312	940.5946	960.4943	985.1842	1007.9445	1025.3251	1066.5985	1086.4444	1112.1354	1126.1017	1149.3568	1177.7928	1197.8601	1232.2644	1258.7054	1282.7456	1327.8357	1341.1731	1354.0857	1371.4075	1384.9563	1397.692	1413.2483	1434.8148	1466.4308	1479.3577	1483.592	1492.5312	1711.5877	2974.402	2990.4923	3021.2649	3029.619	3036.8451	3062.0267	3067.4905	3074.7776	3103.8658	3126.0395	3140.1233	3164.3025
CC1OC2CCC=CC12	C[C@H]1O[C@H]2CCC=C[C@@H]12	
InChI=1S/C8H12O/c1-6-7-4-2-3-5-8(7)9-6/h2,4,6-8H,3,5H2,1H3	InChI=1S/C8H12O/c1-6-7-4-2-3-5-8(7)9-6/h2,4,6-8H,3,5H2,1H3/t6-,7+,8+/m1/s1
