16
gdb 8805	4.98298	1.20249	0.98071	0.0001	65.02	-0.239	-0.0256	0.2134	1177.6819	0.130404	-417.131003	-417.121791	-417.120847	-417.165579	30.829	
C	 0.0012665452	 1.4343109327	 0.0087898692	-0.334114
N	-0.0936247605	-0.0087749737	 0.0027725353	-0.300976
C	-1.259359945	-0.6774246906	 0.0098283893	 0.333576
O	-2.3816708806	-0.1908483119	 0.0219245768	-0.403084
C	-1.0320085383	-2.2044854598	 0.0006571621	 0.333571
O	 0.0902943682	-2.6910805893	-0.0114046746	-0.403085
N	-2.1977522149	-2.8731094388	 0.0076512324	-0.300973
C	-2.2926830718	-4.3161950229	 0.0016694267	-0.334113
H	 0.5361221187	 1.7921429415	 0.8952404557	 0.133566
H	 0.5206636444	 1.800589223	-0.8833872956	 0.133565
H	-1.0141275928	 1.8335934574	 0.019503714	 0.167551
H	 0.7296670342	-0.5962979445	-0.0071439307	 0.269916
H	-3.0210215202	-2.2855580319	 0.017508082	 0.269916
H	-2.8275700875	-4.6740005924	-0.8847689423	 0.133566
H	-1.2773165333	-4.715544768	-0.0090429734	 0.167551
H	-2.8120793759	-4.6824382809	 0.8938605631	 0.133567
75.3986	93.6416	94.9273	134.2838	164.0583	174.7915	274.683	357.118	387.4899	519.8285	526.3163	665.3499	676.1736	774.1341	830.8272	878.0685	1003.0896	1117.9116	1152.131	1154.2033	1181.1579	1188.1178	1236.7195	1270.2576	1443.32	1445.2058	1492.237	1497.0105	1497.0535	1499.9456	1573.0104	1587.8549	1776.0532	1789.0087	3030.6965	3031.4407	3084.7249	3084.8216	3147.3298	3147.4575	3590.5529	3592.2315
CNC(=O)C(=O)NC	CNC(=O)C(=O)NC	
InChI=1S/C4H8N2O2/c1-5-3(7)4(8)6-2/h1-2H3,(H,5,7)(H,6,8)	InChI=1S/C4H8N2O2/c1-5-3(7)4(8)6-2/h1-2H3,(H,5,7)(H,6,8)
