19
gdb 70056	3.00013	1.63787	1.30519	1.3325	81.15	-0.2286	0.0004	0.2291	1027.5829	0.160243	-385.841941	-385.834415	-385.833471	-385.873496	30.351	
C	-0.0113298425	 1.5649632252	 0.1149146182	-0.495649
C	 0.0863149239	 0.0600538046	 0.0141154455	 0.321811
C	-0.8234893607	-0.8022332435	 0.8468621945	-0.318987
C	 0.6648532552	-0.8051518559	 1.1567875381	-0.107984
C	 1.3548248635	-1.9731340574	 0.5168259225	-0.19543
C	 1.3720975284	-1.7988463928	-0.8047921581	 0.133767
C	 0.9002038692	-2.465711032	-2.0750059669	-0.14437
O	-0.0787580684	-1.3882579289	-2.203145418	-0.308886
C	 0.6772732508	-0.5473632205	-1.2457891343	 0.04327
H	 0.9324864128	 2.045290678	-0.1674472551	 0.118332
H	-0.7935001314	 1.952876465	-0.5478758359	 0.125933
H	-0.2542854186	 1.8833307807	 1.1332792212	 0.11482
H	-1.4763019687	-0.277115709	 1.5370617579	 0.110684
H	-1.2539895751	-1.6917341195	 0.3997222595	 0.122393
H	 1.0073460569	-0.3563949745	 2.0833912636	 0.087207
H	 1.5657243166	-2.8914362348	 1.0537590155	 0.101557
H	 1.6045117656	-2.4587478889	-2.917466259	 0.104522
H	 0.4324347036	-3.4516290973	-1.9896632328	 0.116933
H	 1.2561433089	 0.1922770516	-1.8161261065	 0.070078
154.8064	197.1819	210.8488	257.2206	316.781	365.2757	469.3551	486.6899	572.0732	660.3192	746.9836	780.1711	816.1545	846.2133	858.1883	903.5685	916.0903	934.9175	967.325	983.617	1023.9398	1033.3893	1054.8052	1073.2336	1081.0481	1112.412	1126.7957	1139.5805	1225.5747	1246.8381	1283.7915	1307.861	1326.7788	1329.2943	1408.2471	1421.2951	1479.3699	1492.5657	1499.8466	1514.1651	1714.9789	3001.7327	3011.8199	3024.9751	3077.902	3084.4818	3100.441	3126.6221	3162.5712	3192.0444	3216.1875
CC12CC1C=C1COC21	C[C@]12C[C@H]1[CH][C]1CO[C@@H]21	
InChI=1S/C8H10O/c1-8-3-6(8)2-5-4-9-7(5)8/h2,6-7H,3-4H2,1H3	InChI=1S/C8H10O/c1-8-3-6(8)2-5-4-9-7(5)8/h2,6-7H,3-4H2,1H3/t6-,7-,8+/m1/s1
