18
gdb 41187	3.02836	1.7669	1.57167	1.1021	77.67	-0.2239	0.0011	0.2251	919.4997	0.149432	-401.806792	-401.800127	-401.799182	-401.837345	28.312	
C	 0.0124281157	 1.5830436307	 0.1623388327	-0.194925
O	 1.4781346642	 1.5249448289	-0.0748028193	-0.324877
C	 1.1505364961	 0.3432544564	-0.9230237521	 0.145802
C	 1.2127523385	-1.2083375807	-1.2272206992	-0.101693
C	 1.7649178781	-2.1105544645	-0.1334453276	-0.231346
C	 1.1883737879	-1.6895423822	 1.1910308658	-0.070372
C	 0.350614126	-0.6587900349	 1.2114879186	-0.028587
C	-0.0126230064	 0.0377812895	-0.0842229556	 0.181651
N	-0.3368148441	-1.1316301993	-1.0796271106	-0.393262
H	-0.2134029887	 1.9425519597	 1.1704611396	 0.11598
H	-0.4820829637	 2.1948373578	-0.6011616977	 0.107182
H	 0.8557588652	 0.7846671598	-1.8863037061	 0.075532
H	 1.5481078028	-1.5000219955	-2.2256415437	 0.081691
H	 1.5054066103	-3.1539124983	-0.3552200956	 0.119533
H	 2.8618468293	-2.0580762265	-0.1255792773	 0.115526
H	 1.4641136507	-2.2354307778	 2.087937136	 0.093245
H	-0.0958004043	-0.2880499745	 2.1292131687	 0.087899
H	-0.6872790475	-0.7303835985	-1.9517223065	 0.221022
193.004	237.1918	337.2289	401.8419	409.4024	474.275	532.2607	570.8354	630.1861	714.5822	734.5996	771.6905	816.6678	852.1785	871.1488	906.7361	929.4654	949.0375	971.7074	982.9689	1008.0719	1043.9333	1089.6798	1118.9992	1124.0749	1147.1032	1152.9314	1217.811	1245.719	1259.8594	1277.5105	1320.8279	1339.025	1369.7819	1407.6871	1460.9032	1469.4691	1499.4469	1713.1354	2975.5384	3017.3072	3028.6554	3046.167	3081.4968	3103.5197	3161.7846	3186.3481	3439.2779
C1OC2C3CC=CC12N3	C1O[C@H]2[C@H]3CC=C[C@@]12N3	
InChI=1S/C7H9NO/c1-2-5-6-7(3-1,8-5)4-9-6/h1,3,5-6,8H,2,4H2	InChI=1S/C7H9NO/c1-2-5-6-7(3-1,8-5)4-9-6/h1,3,5-6,8H,2,4H2/t5-,6+,7-/m1/s1
