18
gdb 88905	6.4256	0.55527	0.53194	4.3962	85.57	-0.2432	-0.0582	0.185	2028.2984	0.144821	-401.889176	-401.879242	-401.878298	-401.925832	33.997	
C	 0.3226177643	 1.520242433	-0.42199777	-0.4143
C	 0.1453030786	 0.0599988241	-0.0648330915	 0.031073
C	 1.3154226215	-0.8232462882	 0.2079983108	-0.247635
N	 0.3787403273	-0.4870255823	 1.2780570613	-0.080676
C	 0.8567308281	 0.4000936556	 2.3357969297	-0.332659
C	 1.471220954	-0.3524846068	 3.42301567	 0.116463
C	 1.9972009829	-0.9500346739	 4.3312005623	 0.054771
C	 2.613591833	-1.703456781	 5.3907915951	 0.019526
O	 3.0539326919	-1.2232742753	 6.4104887219	-0.231222
H	 1.2503546856	 1.9434430852	-0.0294597551	 0.122641
H	 0.3510884577	 1.6283748282	-1.5111456936	 0.129406
H	-0.5135969436	 2.1250822213	-0.0540601605	 0.12757
H	-0.7241969513	-0.3970274059	-0.5351034133	 0.098563
H	 1.3262992314	-1.863678272	-0.1045767221	 0.120958
H	 2.295033094	-0.3455009259	 0.2232786911	 0.110772
H	 1.5861196369	 1.1550796772	 1.9963202494	 0.126402
H	-0.0018200451	 0.9569167089	 2.7338059709	 0.148758
H	 2.658544013	-2.7951556521	 5.1994486936	 0.09959
39.1461	46.5058	68.1878	164.4986	178.9136	191.8287	226.8143	307.8705	397.7198	420.4921	446.3665	493.253	622.5448	751.0609	816.8924	846.3516	898.7962	946.0013	985.2585	1022.1072	1037.4884	1064.2061	1117.8374	1142.9279	1158.9854	1162.6284	1189.2729	1263.6589	1331.9198	1364.6603	1405.0604	1421.3184	1422.1839	1461.1271	1493.0977	1500.9763	1512.6328	1767.2767	2331.6543	2917.2467	2957.7674	3037.1464	3037.8861	3088.9301	3096.7508	3107.0284	3127.5148	3179.377
CC1CN1CC#CC=O	C[C@H]1CN1CC#CC=O	
InChI=1S/C7H9NO/c1-7-6-8(7)4-2-3-5-9/h5,7H,4,6H2,1H3	InChI=1S/C7H9NO/c1-7-6-8(7)4-2-3-5-9/h5,7H,4,6H2,1H3/t7-,8?/m0/s1
