17
gdb 105325	2.48419	1.546	1.18969	2.8325	72.75	-0.2515	0.0158	0.2672	1077.4383	0.135286	-417.953355	-417.944859	-417.943915	-417.986493	31.414	
C	-0.105420181	 1.3607343319	-0.0293319006	-0.264928
O	 0.113011554	-0.0414275066	-0.068147362	-0.273029
C	 0.6601616864	-0.585410034	 1.0906846594	 0.315226
C	-0.2056547077	-0.6339349747	 2.4272295848	-0.30438
C	-0.0517433392	-2.1564523159	 2.3997975446	-0.025592
N	-0.7025806467	-2.5882069921	 1.1454383293	-0.329673
C	 0.6987634484	-2.1215493904	 1.1135422058	-0.117613
C	 2.0048725644	-0.0377426828	 1.3671805834	 0.236228
N	 3.0529906403	 0.4049149247	 1.571632519	-0.346
H	 0.8339773437	 1.914327999	 0.0998563239	 0.134659
H	-0.5519572653	 1.629026392	-0.9880987472	 0.140046
H	-0.7964168269	 1.6386694247	 0.7780884536	 0.116821
H	 0.2778996536	-0.1329826512	 3.265784169	 0.131352
H	-1.231988955	-0.2837597052	 2.3032067529	 0.126505
H	 0.0660893986	-2.8241243598	 3.2423926783	 0.107017
H	-0.6647611669	-3.6066908817	 1.1077926429	 0.2383
H	 1.5012384494	-2.7406791876	 0.7350218228	 0.115061
111.9454	125.604	164.7304	171.3391	194.6419	285.9312	390.0036	419.5841	484.7556	540.0826	572.5055	650.6707	767.4269	819.2043	843.8008	890.603	931.9442	962.429	991.5357	1026.4211	1056.1436	1074.6338	1126.8139	1144.9129	1165.925	1182.9931	1197.8042	1231.993	1243.1711	1292.094	1324.0677	1382.1518	1461.5847	1480.3821	1489.205	1506.3335	2347.5092	3002.4937	3060.9747	3082.4572	3135.8407	3151.93	3203.5033	3216.4456	3477.3267
COC1(CC2NC12)C#N	CO[C@]1(C[C@H]2N[C@@H]12)C#N	
InChI=1S/C6H8N2O/c1-9-6(3-7)2-4-5(6)8-4/h4-5,8H,2H2,1H3	InChI=1S/C6H8N2O/c1-9-6(3-7)2-4-5(6)8-4/h4-5,8H,2H2,1H3/t4-,5-,6-/m1/s1
