22
gdb 16390	2.86563	2.17526	1.65337	0.0686	80.75	-0.2882	0.0854	0.3736	914.0957	0.202624	-313.06804	-313.060462	-313.059518	-313.099206	31.019	
C	-0.1453165313	 1.5455548034	-0.0954871705	-0.412334
C	 0.0695215403	 0.0327439232	-0.036185885	 0.030168
C	 0.9604744334	-0.5371230202	-1.1654571764	-0.008105
C	 1.1948391358	-1.9972989404	-0.6837094665	-0.238633
C	 1.989987075	-1.2803416541	 0.4444905659	-0.008098
C	 2.4015946171	-0.2546329316	-0.6509029194	-0.227317
C	 0.8653014716	-0.5417048806	 1.208220147	 0.030162
C	 1.3562127088	 0.4616726977	 2.2524938502	-0.412328
H	 0.7958470556	 2.1036441231	-0.1021696885	 0.113608
H	-0.6918964295	 1.8143492008	-1.0062012665	 0.108473
H	-0.7338677982	 1.9022047051	 0.7560468017	 0.111708
H	-0.917182553	-0.4434869979	-0.0821909258	 0.063015
H	 0.6601258932	-0.3090175101	-2.1898658278	 0.050508
H	 0.3206854708	-2.5926006085	-0.3995329687	 0.082018
H	 1.8374084743	-2.5684252005	-1.3582692136	 0.090483
H	 2.7318241618	-1.8046101845	 1.049862334	 0.050506
H	 3.1664419809	-0.6510453575	-1.3230030867	 0.092765
H	 2.6690507048	 0.7624057862	-0.3524162538	 0.086598
H	 0.239045734	-1.2781186113	 1.7259039236	 0.063014
H	 2.0306379653	 1.212329061	 1.8294623695	 0.113611
H	 0.5227668495	 0.9945468135	 2.7216644504	 0.111707
H	 1.9017980501	-0.0573908271	 3.0483038669	 0.108472
158.1454	199.0703	236.1481	262.6692	291.8287	343.6338	483.6851	484.5013	526.7353	653.2116	734.7232	803.2775	817.0157	854.4449	858.0121	894.5104	934.8502	978.3002	1009.2838	1016.0651	1020.3191	1039.4338	1069.5586	1077.2062	1078.928	1119.0571	1134.2203	1162.3426	1165.3582	1226.2166	1229.2306	1250.6427	1270.0888	1293.662	1321.8749	1333.0049	1376.0597	1376.8447	1407.4254	1415.1821	1488.4971	1489.4155	1492.6025	1506.7104	1508.7648	1529.457	3013.8687	3030.1407	3030.404	3035.6248	3043.2939	3058.2774	3089.6402	3094.0076	3095.1734	3096.9684	3100.6415	3105.6874	3110.2307	3115.3428
CC1C2CC(C2)C1C	C[C@H]1[C@@H]2C[C@@H](C2)[C@H]1C	
InChI=1S/C8H14/c1-5-6(2)8-3-7(5)4-8/h5-8H,3-4H2,1-2H3	InChI=1S/C8H14/c1-5-6(2)8-3-7(5)4-8/h5-8H,3-4H2,1-2H3/t5-,6+,7-,8+
