20
gdb 74933	2.95516	1.75521	1.49225	1.3672	83.52	-0.2119	0.0164	0.2283	979.5572	0.173653	-365.969218	-365.96218	-365.961236	-366.000199	29.591	
C	 0.007546925	 1.4962732959	 0.0338688773	-0.505935
C	 0.0038884829	-0.0007449692	-0.0095711344	 0.346293
C	-0.0738699301	-0.7663717904	-1.1038105563	-0.18856
C	 0.061764929	-2.2451758951	-0.8531144037	-0.095714
C	 1.4188221156	-2.3974477559	-0.094469582	-0.156764
N	 0.7227462966	-2.162665924	 1.2000955404	-0.14463
C	-0.5692487864	-2.6448095313	 0.541876184	 0.016078
C	-1.3480854012	-1.5778100295	 1.3031322248	-0.232062
C	 0.0009537669	-0.7959863221	 1.278280714	-0.102881
H	 0.9267650487	 1.877704402	 0.4968096262	 0.127299
H	-0.0706683387	 1.9250499565	-0.9692604648	 0.121931
H	-0.8254376562	 1.8843156694	 0.6347885713	 0.124486
H	-0.1191808009	-0.3703484997	-2.1134251967	 0.084234
H	-0.1487931465	-2.8739107021	-1.7200603746	 0.059332
H	 1.793114099	-3.4267818119	-0.081469627	 0.102852
H	 2.2252317301	-1.7080339968	-0.3589805328	 0.097986
H	-0.8272896323	-3.7025523387	 0.6455292503	 0.069397
H	-2.2173219111	-1.1003402561	 0.8484173178	 0.098596
H	-1.5850779745	-1.9440394659	 2.3051280261	 0.109769
H	 0.2894066242	-0.2168470351	 2.1572853001	 0.068294
154.3899	190.2705	296.9449	355.0294	376.4149	453.4653	504.5259	579.7689	600.5822	727.6391	740.1486	795.3491	805.9547	830.1841	846.732	900.179	940.2305	958.4548	971.731	997.3935	1015.5676	1040.451	1061.7608	1069.893	1084.9909	1113.0127	1165.7376	1190.8144	1202.042	1209.2098	1230.5091	1250.5917	1273.1811	1291.0468	1312.4806	1345.0618	1358.2165	1412.6293	1473.7251	1477.9343	1486.85	1491.6557	1708.7377	3012.4495	3038.1854	3057.9628	3059.7382	3071.3332	3089.5867	3092.8828	3101.115	3105.9159	3130.9965	3173.2931
CC1=CC2CN3C2CC13	CC1=C[C@H]2CN3[C@H]2C[C@H]13	
InChI=1S/C8H11N/c1-5-2-6-4-9-7(5)3-8(6)9/h2,6-8H,3-4H2,1H3	InChI=1S/C8H11N/c1-5-2-6-4-9-7(5)3-8(6)9/h2,6-8H,3-4H2,1H3/t6-,7+,8-/m0/s1
