17
gdb 18707	3.33189	2.1898	1.53853	1.5706	68.85	-0.2272	0.0081	0.2353	839.3725	0.144019	-363.835756	-363.828829	-363.827885	-363.866614	27.403	
O	 0.496807046	 0.7476173503	-0.9743848036	-0.429618
C	 0.0221516791	-0.1787176606	 0.0025009237	 0.06898
C	 0.5803459278	 0.1070033805	 1.3695096183	-0.108145
C	-0.1093123694	-0.0967738801	 2.4899643134	-0.065512
C	-1.5210958121	-0.6198577656	 2.4881990877	-0.20048
N	-2.2623881424	-0.4772282911	 1.2304330039	-0.10588
C	-2.2869520483	 0.8505657537	 0.6236955228	-0.259768
C	-1.4986354258	-0.2516371825	-0.0013543239	-0.030748
H	 0.1194258099	 1.606938934	-0.7543259076	 0.276865
H	 0.4147343989	-1.1436477165	-0.3459658783	 0.102978
H	 1.6016696547	 0.4777120636	 1.3885214819	 0.099153
H	 0.3416766098	 0.1017521055	 3.4596647308	 0.093813
H	-1.5170874136	-1.6888184581	 2.7455314611	 0.122488
H	-2.1076366227	-0.1264364672	 3.2734895212	 0.11486
H	-3.2405219598	 1.1523196277	 0.1992176106	 0.116595
H	-1.7312502493	 1.6473949289	 1.1157126037	 0.108376
H	-1.9164285926	-0.7452128725	-0.8761293056	 0.096043
107.0507	232.9046	293.0426	340.8712	358.5262	400.109	494.6851	521.3813	611.2036	714.738	726.9702	808.6169	873.6969	910.2295	923.0445	969.6505	995.2133	1023.2022	1051.8842	1077.6773	1090.6116	1121.8174	1156.497	1169.2829	1182.5165	1260.8058	1272.2982	1318.8882	1337.6375	1357.8429	1391.1657	1411.5941	1426.5447	1477.6618	1502.7176	1718.558	3003.7931	3016.2475	3043.5658	3095.0938	3127.628	3146.4167	3174.1611	3181.61	3797.4334
OC1C=CCN2CC12	O[C@H]1C=CCN2C[C@@H]12	
InChI=1S/C6H9NO/c8-6-2-1-3-7-4-5(6)7/h1-2,5-6,8H,3-4H2	InChI=1S/C6H9NO/c8-6-2-1-3-7-4-5(6)7/h1-2,5-6,8H,3-4H2/t5-,6-,7?/m0/s1
