17
gdb 52201	4.2986	0.77016	0.70176	1.898	74.53	-0.2455	-0.0344	0.2112	1545.266	0.134585	-417.997826	-417.988579	-417.987635	-418.033465	32.419	
O	 1.2575526707	 0.2083514093	 0.7628183363	-0.231108
C	 0.7129003135	 1.1646343993	 0.2793295607	 0.166398
C	 0.889800146	 1.6179548495	-1.164622247	-0.248176
N	 0.7629876165	 3.0616709766	-1.2822046925	-0.316779
C	 1.9155221353	 3.8094426538	-0.8803862491	 0.042274
C	 3.2017254554	 3.8257548327	-1.6693128584	-0.295989
C	 2.3022804141	 5.0601123843	-1.6496204533	-0.194091
C	 1.5636800212	 5.3918066844	-2.8344185723	 0.287358
N	 0.9469777804	 5.6250950384	-3.7859776383	-0.340974
H	 0.0052670708	 1.8026636181	 0.8569259006	 0.086989
H	 1.8332357685	 1.2002380415	-1.5491686344	 0.116521
H	 0.0693957359	 1.1567434487	-1.7309472999	 0.137463
H	 0.4304835289	 3.3429890282	-2.1959187133	 0.249213
H	 2.0225153147	 3.9016755066	 0.1982624441	 0.119305
H	 4.1477249112	 3.9018309466	-1.1455816533	 0.135917
H	 3.2305308625	 3.2663540791	-2.5972961832	 0.143198
H	 2.6304992446	 5.917059553	-1.0723621469	 0.142481
39.9421	53.548	98.9887	136.3329	195.9084	247.4148	317.77	394.0931	449.0233	541.8649	568.2883	627.1933	675.4808	732.5525	761.3391	832.543	872.8794	963.5864	990.7668	1040.1477	1061.5449	1089.4547	1115.4255	1129.4332	1134.1066	1175.4527	1239.1662	1288.2161	1341.683	1366.0598	1384.4644	1402.7835	1456.2365	1473.3624	1520.7294	1841.6042	2348.1682	2878.4115	2987.5496	3050.6443	3130.3955	3143.9194	3178.4326	3238.7344	3560.3741
O=CCNC1CC1C#N	O=CCN[C@H]1C[C@H]1C#N	
InChI=1S/C6H8N2O/c7-4-5-3-6(5)8-1-2-9/h2,5-6,8H,1,3H2	InChI=1S/C6H8N2O/c7-4-5-3-6(5)8-1-2-9/h2,5-6,8H,1,3H2/t5-,6-/m0/s1
