21
gdb 84596	2.27051	1.96888	1.33491	1.2173	82.61	-0.2347	0.0179	0.2526	1033.978	0.183704	-387.09299	-387.084912	-387.083968	-387.124758	33.496	
C	-0.0602563833	 1.5686685721	 0.0024078274	-0.396024
C	 0.0224895996	 0.0332895738	 0.012121874	-0.087515
C	 0.696916564	-0.5066530616	-1.2339318744	-0.066134
C	 1.7539015569	-1.3108232547	-1.1200212741	-0.073208
C	 2.2207588138	-1.6753819223	 0.2716327241	-0.070498
C	 2.283021072	-0.3698500488	 1.1268462065	-0.255
C	 0.7496136994	-0.5213841391	 1.26447598	 0.417583
O	 0.221514512	-0.022602078	 2.4695679522	-0.493644
C	 0.9657104601	-2.057902875	 1.1153008916	-0.282687
H	 0.9362442172	 2.0173789797	-0.0542569544	 0.121426
H	-0.6325204227	 1.9183499312	-0.8628703632	 0.108355
H	-0.5444598487	 1.9380318554	 0.9097696649	 0.116873
H	-1.0120714439	-0.3517360795	 0.0425898203	 0.065939
H	 0.3023518858	-0.2004916077	-2.1991559837	 0.085699
H	 2.2730030914	-1.7078200224	-1.9869350365	 0.086524
H	 3.0808397659	-2.3442875707	 0.2840899916	 0.063773
H	 2.7592863861	-0.5384923024	 2.0958391013	 0.104049
H	 2.6857941519	 0.530136845	 0.6581648209	 0.096083
H	-0.7309697484	-0.172352509	 2.4667261827	 0.272435
H	 0.1900072459	-2.6545098075	 0.6278950974	 0.087705
H	 1.2337222451	-2.4914939485	 2.0823842115	 0.098265
152.9273	210.8097	256.4257	270.6531	320.0987	352.5535	380.0028	433.1383	463.5805	492.6477	579.5611	642.7039	691.9627	742.1187	822.9331	855.2814	864.8351	916.3528	938.7759	942.364	973.7245	984.6526	1004.476	1049.218	1065.9797	1095.2165	1103.7454	1128.929	1150.7334	1174.2434	1190.1056	1228.6766	1244.0302	1261.0488	1317.8243	1331.9019	1337.5979	1385.7478	1392.0264	1410.0865	1471.5313	1491.3248	1501.9924	1506.5208	1698.2016	2944.4049	3040.2455	3051.1611	3065.5734	3106.1079	3108.3853	3115.8854	3121.9652	3127.0025	3154.8599	3182.0425	3789.7355
CC1C=CC2CC1(O)C2	C[C@H]1C=C[C@H]2C[C@]1(O)C2	
InChI=1S/C8H12O/c1-6-2-3-7-4-8(6,9)5-7/h2-3,6-7,9H,4-5H2,1H3	InChI=1S/C8H12O/c1-6-2-3-7-4-8(6,9)5-7/h2-3,6-7,9H,4-5H2,1H3/t6-,7-,8-/m0/s1
