15
gdb 49942	2.57625	1.32717	1.00708	1.5426	82.11	-0.2444	-0.0082	0.2363	1176.3377	0.10939	-379.563007	-379.553972	-379.553028	-379.596711	33.307	
N	-0.3590702126	 1.0417488193	-0.7372869798	-0.411148
C	-0.1559086003	-0.0864880053	-0.1943062829	 0.054821
N	-1.1074988847	-0.6761109471	 0.6421983363	-0.088529
C	-2.5089579201	-0.5779963252	 0.346854884	-0.248048
C	-1.8047006487	-1.9255419988	 0.2481108403	-0.0382
C	-1.5702382165	-2.4652902098	-1.0706808672	 0.30851
C	-1.3566098444	-2.9273268775	-2.1590624241	-0.4654
C	-1.9827222294	-2.9021423624	 1.2967829256	 0.262218
C	-2.1535408332	-3.7188827811	 2.1604194942	-0.414396
H	 0.4744398235	 1.349428517	-1.2368434218	 0.230512
H	 0.7628796401	-0.6785906515	-0.2529432148	 0.111223
H	-3.1655889951	-0.4125359535	 1.1950809788	 0.138552
H	-2.7892619298	-0.1000694464	-0.5873757315	 0.151276
H	-1.1789073702	-3.334026967	-3.1241278775	 0.206527
H	-2.2959760285	-4.4399840607	 2.9271306302	 0.202083
89.5396	122.0706	132.2808	169.2262	210.02	280.2459	330.9992	447.0557	468.4273	544.1853	566.0794	601.2558	614.9635	624.6387	660.1798	671.062	730.9018	799.5285	851.6246	911.342	932.2894	1058.7018	1071.5345	1124.7228	1149.6639	1232.7884	1244.1665	1370.6372	1409.5171	1491.3356	1703.9794	2240.1345	2247.2564	3076.3187	3120.8193	3220.9092	3493.9303	3500.3812	3501.8639
N=CN1CC1(C#C)C#C	[NH][CH]N1CC1(C#C)C#C	
InChI=1S/C7H6N2/c1-3-7(4-2)5-9(7)6-8/h1-2,6,8H,5H2	InChI=1S/C7H6N2/c1-3-7(4-2)5-9(7)6-8/h1-2,6,8H,5H2
