15
gdb 51389	4.09168	0.91719	0.87896	3.445	66.24	-0.2615	-0.0405	0.2209	1295.86	0.110912	-457.760601	-457.752568	-457.751624	-457.794852	28.475	
O	-0.3451017926	 0.2309949904	 0.0209764864	-0.229773
C	 0.0742654172	 1.3539714174	 0.1170263721	 0.161924
C	 1.4798303832	 1.7843067762	-0.260953082	-0.313408
C	 1.452504514	 2.910769677	-1.2785662994	-0.057343
C	 1.3066316842	 4.3516524668	-0.9405453927	 0.08074
O	 1.9397025068	 4.6326538668	 0.3366137308	-0.262379
C	 3.186623533	 4.3167706911	-0.2075716077	 0.466688
O	 4.2464792099	 4.4381344073	 0.308763856	-0.312728
C	 2.6164183509	 3.8915000428	-1.5352715631	-0.302278
H	-0.5664954411	 2.1793742772	 0.5034979785	 0.085012
H	 1.9743377726	 2.128612636	 0.6552301719	 0.150174
H	 2.0224841887	 0.9178316008	-0.6473319073	 0.133848
H	 0.9703063978	 2.6502636773	-2.2199164613	 0.124715
H	 0.571222762	 5.0614851866	-1.291484537	 0.137692
H	 3.0650873132	 4.0311766962	-2.5075425051	 0.137116
46.653	55.193	110.4482	204.2969	269.4287	388.2585	476.1288	489.6622	582.0751	705.8693	736.6344	801.0682	829.7362	843.016	887.8059	925.7823	937.6964	1003.9481	1049.9944	1055.8754	1065.0382	1082.066	1113.4099	1165.6329	1245.9995	1274.4613	1291.7159	1322.9781	1426.6014	1430.3642	1453.8089	1838.919	1950.1027	2873.9418	3046.0345	3111.6978	3131.1702	3224.3301	3236.8336
O=CCC1C2OC(=O)C12	O=CC[C@H]1[C@H]2OC(=O)[C@@H]12	
InChI=1S/C6H6O3/c7-2-1-3-4-5(3)9-6(4)8/h2-5H,1H2	InChI=1S/C6H6O3/c7-2-1-3-4-5(3)9-6(4)8/h2-5H,1H2/t3-,4+,5-/m1/s1
