16
gdb 81758	3.21517	1.27126	1.07385	1.6203	71.13	-0.2454	0.0025	0.2479	1109.4756	0.125354	-434.022219	-434.013838	-434.012893	-434.055307	31.438	
N	 0.1974673065	 1.443476015	-0.1199295989	-0.497156
C	 0.1063416647	 0.0173801554	-0.0079482234	-0.112345
C	 0.3043787821	-0.6070238159	 1.4496916363	 0.159423
O	 0.4779202677	 0.2514413132	 2.5312824613	-0.420751
C	-1.0677236158	-1.2790982586	 1.3184895296	-0.154527
N	-2.0109549378	-0.157351819	 1.1420944237	-0.394094
C	-1.2787965701	-0.6901656222	-0.043324863	 0.249121
C	-1.9683358097	-1.2342595706	-1.1634910588	 0.151144
N	-2.502622799	-1.6586260087	-2.0994135904	-0.340516
H	 0.1308824853	 1.7409866945	-1.0873893386	 0.240117
H	-0.5582745944	 1.8884813953	 0.3910111062	 0.238201
H	 0.7952028045	-0.452087231	-0.7136678603	 0.102449
H	 1.1320500827	-1.3184516419	 1.4624527089	 0.106493
H	-0.3289010199	 0.7766306744	 2.6052946567	 0.293381
H	-1.40192897	-2.2356043288	 1.7002576823	 0.123217
H	-2.9599312269	-0.527731721	 1.1295420084	 0.255842
75.8982	131.6774	162.168	228.5653	268.8463	292.6802	407.1418	467.9769	483.9688	558.2461	595.0685	622.1125	674.6569	708.9127	790.6819	844.7453	856.5789	932.7172	964.9328	989.9332	1025.318	1072.3421	1140.7082	1160.4556	1189.1993	1220.7948	1226.3682	1269.4831	1299.9285	1339.3579	1386.5137	1415.3614	1450.5287	1659.9445	2339.8556	3090.2239	3106.2206	3203.1388	3496.9423	3506.2124	3588.7438	3778.7545
NC1C(O)C2NC12C#N	N[C@H]1[C@@H](O)[C@H]2N[C@@]12C#N	
InChI=1S/C5H7N3O/c6-1-5-3(7)2(9)4(5)8-5/h2-4,8-9H,7H2	InChI=1S/C5H7N3O/c6-1-5-3(7)2(9)4(5)8-5/h2-4,8-9H,7H2/t2-,3+,4-,5+/m1/s1
