16
gdb 42565	3.1365	1.75819	1.39077	4.0632	72.57	-0.2388	0.0016	0.2404	934.0729	0.124435	-400.678365	-400.671534	-400.67059	-400.709497	27.534	
O	 0.1667069246	 0.1401428712	 0.370283549	-0.310428
C	 0.0374631317	 1.3053963439	 0.1806576306	 0.443643
C	-1.0724344055	 2.2930019942	 0.0562231857	-0.237086
C	-0.1192084569	 3.1255477286	-0.7877004496	-0.027189
C	-0.4328292118	 3.6223977077	 0.5719375537	-0.167518
C	 0.9611084806	 3.2318867936	 1.0039607829	 0.390393
C	 2.0800803392	 4.1066495639	 1.4478139051	-0.357821
C	 1.596709959	 2.9549082936	 2.3221152395	-0.338044
N	 1.0638607586	 2.332308057	-0.2018252287	-0.262596
H	-2.1424723187	 2.1605523411	-0.0297078805	 0.120295
H	-0.1945248016	 3.4870532167	-1.801307829	 0.125137
H	-1.0609006374	 4.452692532	 0.8727523422	 0.108693
H	 3.0318597293	 3.99005285	 0.9421565161	 0.134265
H	 1.8481564515	 5.1196708427	 1.7607515309	 0.116952
H	 1.0410760181	 3.1889597474	 3.2239289513	 0.12178
H	 2.2313356191	 2.0785554663	 2.3952566007	 0.139524
117.2581	184.7702	256.2497	299.0244	457.1521	501.1016	578.5027	657.8507	757.9524	780.8778	785.7242	814.0303	831.5558	849.2507	871.2923	898.6151	934.2182	940.0684	970.1982	1008.6775	1020.7705	1037.9765	1043.7605	1051.0467	1077.2215	1092.2538	1159.6207	1183.1027	1234.2262	1245.1494	1331.4965	1401.2948	1451.7481	1506.2823	1929.7839	3131.7616	3136.1966	3185.9788	3214.0605	3216.6813	3229.4443	3246.5208
O=C1C2C3C2C2(CC2)N13	O=C1[C@@H]2[C@H]3[C@@H]2C2(CC2)N13	
InChI=1S/C7H7NO/c9-6-3-4-5(3)8(6)7(4)1-2-7/h3-5H,1-2H2	InChI=1S/C7H7NO/c9-6-3-4-5(3)8(6)7(4)1-2-7/h3-5H,1-2H2/t3-,4+,5-/m0/s1
