17
gdb 73476	2.8771	1.85286	1.58288	1.0223	65.9	-0.2279	0.0635	0.2914	888.3919	0.138058	-458.951801	-458.945025	-458.944081	-458.982596	27.921	
O	 0.00840038	 1.34863999	 0.0213121323	-0.467306
C	 0.0338855572	-0.045925458	 0.0444699126	 0.303827
C	 1.1669546602	-0.6871609762	-0.7439171998	-0.132507
O	 1.1630122684	-2.1157187626	-0.6439446496	-0.262405
C	 0.0650933738	-2.6183720144	 0.0798160059	 0.167308
C	-1.2606510531	-2.1376788463	-0.5449003489	-0.25827
C	-1.3165406769	-0.7264508213	 0.0141101836	-0.154274
C	-0.4569792167	-0.7882128154	 1.2606198285	 0.017923
O	 0.060475244	-2.0957579943	 1.4020660548	-0.248561
H	 0.7313720302	 1.6710807224	 0.5723425738	 0.286625
H	 1.0961405401	-0.3913874048	-1.7999157792	 0.110498
H	 2.1323158981	-0.3246727621	-0.3625855252	 0.099867
H	 0.2040491413	-3.6974492215	 0.1385824342	 0.096984
H	-1.2183884449	-2.1989934798	-1.6347152371	 0.116267
H	-2.1046856599	-2.7340783872	-0.1849575077	 0.1132
H	-2.2111709797	-0.1193227576	-0.0321724498	 0.103098
H	-0.6868588122	-0.2972767009	 2.1976194415	 0.107725
155.2875	265.8125	332.1147	345.8386	389.4386	436.8401	498.5879	517.154	592.9942	676.5393	732.1243	828.9645	857.1001	872.5509	909.9189	945.5784	958.7341	1003.5194	1013.9023	1044.1349	1057.7001	1068.546	1093.0201	1133.6112	1190.0359	1193.3556	1230.9773	1245.4643	1284.6364	1302.4643	1329.6513	1347.6036	1363.717	1404.0488	1454.6353	1489.296	1523.0843	2994.4778	3025.7071	3058.7089	3113.7503	3132.2254	3197.609	3205.8977	3783.2866
OC12COC3CC1C2O3	O[C@]12CO[C@@H]3C[C@H]1[C@H]2O3	
InChI=1S/C6H8O3/c7-6-2-8-4-1-3(6)5(6)9-4/h3-5,7H,1-2H2	InChI=1S/C6H8O3/c7-6-2-8-4-1-3(6)5(6)9-4/h3-5,7H,1-2H2/t3-,4-,5+,6+/m0/s1
