18
gdb 121605	3.18198	0.88515	0.77079	2.5431	71.64	-0.243	-0.025	0.218	1492.6139	0.147653	-472.443676	-472.433561	-472.432617	-472.480282	35.755	
N	 0.0028142723	 1.0217276131	-0.5935502246	-0.530649
C	 0.0434847266	-0.1285623315	 0.1235290763	 0.273613
N	 0.9823746289	-0.6326241428	 0.8352140164	-0.546626
C	-1.284916164	-0.881245844	 0.0316101487	 0.414853
O	-2.1862391342	-0.4858180203	-0.6960090329	-0.408053
N	-1.3325621438	-1.9791884265	 0.810099073	-0.321306
C	-2.495513823	-2.8461753698	 0.8863857542	-0.168601
C	-2.4387487337	-3.9761770513	-0.1469045892	-0.061518
O	-1.297882876	-4.7993031647	 0.0188975883	-0.420366
H	 0.8332175932	 1.5586191624	-0.7696440564	 0.255878
H	-0.8155127423	 1.1576187298	-1.1686383249	 0.276813
H	 1.8263438305	-0.0591036734	 0.8341356268	 0.208541
H	-0.5020902176	-2.1510305317	 1.3613594107	 0.271367
H	-2.539294171	-3.2711880419	 1.8935263196	 0.116439
H	-3.3884479583	-2.2360958761	 0.7187861854	 0.132601
H	-3.3115112644	-4.62524425	-0.0202740785	 0.111934
H	-2.4837027666	-3.5435126763	-1.1568048212	 0.109519
H	-0.5266671267	-4.262678905	-0.1928775219	 0.285561
28.1312	57.4016	84.6766	123.8391	213.0421	240.7547	278.8799	337.9582	362.8022	402.4823	470.91	531.3509	544.724	588.7419	632.2223	663.9154	810.9173	827.03	856.0782	881.4491	932.5747	1057.2331	1081.6603	1103.8331	1124.3534	1145.4485	1214.6117	1236.1284	1304.6271	1391.0656	1391.3528	1414.4509	1428.5967	1462.4157	1500.8872	1562.3697	1594.713	1724.2572	1777.2372	3005.2884	3053.2589	3082.7829	3110.7937	3468.098	3581.1721	3587.0003	3728.733	3809.7096
NC(=N)C(=O)NCCO	NC(=N)C(=O)NCCO	
InChI=1S/C4H9N3O2/c5-3(6)4(9)7-1-2-8/h8H,1-2H2,(H3,5,6)(H,7,9)	InChI=1S/C4H9N3O2/c5-3(6)4(9)7-1-2-8/h8H,1-2H2,(H3,5,6)(H,7,9)
