21
gdb 61237	2.92277	0.94421	0.78467	3.2182	83.65	-0.2368	0.0326	0.2694	1487.4611	0.181239	-383.258146	-383.248059	-383.247114	-383.293618	36.485	
C	-0.1328035712	 1.7468893713	 0.4094950625	-0.404468
C	-0.0367815048	 0.2712700049	-0.0017297602	-0.008715
C	 0.7979477989	-0.5469464834	 1.0187003019	-0.345108
C	 2.1799434049	-0.0855869797	 1.1275176666	 0.261851
N	 3.2708062011	 0.2907125159	 1.1935233545	-0.312401
C	-1.4244271957	-0.3373861591	-0.1185815987	 0.018866
C	-2.2299636322	-0.1919371841	-1.3644121094	-0.265969
N	-1.7584020342	-1.5040797072	-0.9393325814	-0.089227
C	-0.7482241883	-2.153716202	-1.7613975434	-0.32199
H	 0.8604218257	 2.1900834003	 0.5243833022	 0.143175
H	-0.6799821882	 2.321146069	-0.3429836877	 0.125533
H	-0.66252537	 1.8540635512	 1.3632075419	 0.119313
H	 0.4724721656	 0.2168914251	-0.9691471898	 0.096791
H	 0.3306863654	-0.4888308134	 2.0095646287	 0.150615
H	 0.8085247462	-1.6053148096	 0.738492044	 0.156095
H	-1.9655668524	-0.3323169037	 0.8296496486	 0.089921
H	-3.303455952	-0.026249382	-1.323686819	 0.118286
H	-1.73269383	 0.2726928606	-2.2167918367	 0.106819
H	-0.0251206587	-1.4720235829	-2.2353808842	 0.105601
H	-0.194722351	-2.8816818631	-1.1589632481	 0.123922
H	-1.256899809	-2.7030340082	-2.5597493325	 0.131093
56.5807	75.7784	121.217	164.3215	207.6514	230.5099	250.3138	318.9293	343.0972	379.3855	395.667	434.3678	525.3232	578.1248	753.1449	818.8728	864.5011	889.5358	927.1347	951.3714	987.6884	1036.8577	1086.0142	1102.3228	1116.7178	1126.3765	1133.9697	1165.3903	1200.2116	1204.7423	1240.7005	1281.6145	1337.5707	1344.4099	1356.34	1411.9452	1431.3095	1452.9367	1462.3888	1490.0125	1498.3466	1499.2346	1501.8415	1514.4725	2359.6226	2980.68	3034.7354	3039.4079	3055.122	3066.764	3080.3464	3083.5054	3088.5329	3099.2253	3105.7615	3121.3795	3170.2155
CC(CC#N)C1CN1C	C[C@@H](CC#N)[C@H]1CN1C	
InChI=1S/C7H12N2/c1-6(3-4-8)7-5-9(7)2/h6-7H,3,5H2,1-2H3	InChI=1S/C7H12N2/c1-6(3-4-8)7-5-9(7)2/h6-7H,3,5H2,1-2H3/t6-,7+,9?/m0/s1
