16
gdb 74198	2.43768	1.64209	1.02829	3.4597	76.3	-0.2193	-0.0203	0.199	1107.1801	0.127031	-434.114813	-434.106838	-434.105894	-434.147274	30.357	
N	 0.1382063261	 1.2885821426	 0.4741025889	-0.552285
C	 0.0013064432	-0.0084484797	 0.075482438	 0.352804
C	-1.2054265866	-0.6278672524	 0.0221144774	-0.263865
C	-1.4684459414	-2.0093491464	-0.3233399665	 0.379076
O	-2.5771396028	-2.4305992853	-0.6082113274	-0.383577
N	-0.4105815191	-2.9574953112	-0.2737217063	-0.350211
C	 0.8044457161	-2.8774960028	 0.3894968275	 0.084258
N	 1.5981176795	-1.8904777597	 0.4821459582	-0.226163
C	 1.2888425661	-0.7053879065	-0.3092123942	-0.261941
H	 0.9831588276	 1.7866195994	 0.2532737893	 0.263528
H	-0.6848695503	 1.8519746952	 0.6133439097	 0.263373
H	-2.1108928089	-0.0586495314	 0.2054963373	 0.090357
H	-0.7959026676	-3.8875558945	-0.3789681176	 0.250392
H	 1.0944751139	-3.8138135032	 0.8698556088	 0.120535
H	 1.2225966511	-0.9786086363	-1.3733785196	 0.131338
H	 2.1253502431	-0.0073969077	-0.2033744336	 0.102379
105.7661	155.6146	168.2325	275.5299	333.8992	368.7134	387.8992	471.6101	494.4883	548.8884	571.8039	629.2892	676.1621	743.4858	822.2051	853.1446	890.1075	934.0696	973.0986	991.3755	1018.4586	1104.0382	1151.2769	1253.31	1288.1499	1312.2128	1371.1004	1414.4558	1433.7034	1457.1502	1483.4635	1642.2718	1677.6481	1745.8776	1762.732	2991.0053	3064.1357	3113.4137	3179.9233	3580.2574	3600.9224	3719.3516
NC1=CC(=O)NC=NC1	NC1=CC(=O)NC=NC1	
InChI=1S/C5H7N3O/c6-4-1-5(9)8-3-7-2-4/h1,3H,2,6H2,(H,7,8,9)	InChI=1S/C5H7N3O/c6-4-1-5(9)8-3-7-2-4/h1,3H,2,6H2,(H,7,8,9)
