15
gdb 28786	3.40882	1.69003	1.13778	2.2369	73.89	-0.1975	-0.006	0.1915	1000.1699	0.115787	-416.853774	-416.847029	-416.846085	-416.884765	26.744	
O	 0.0883779543	 1.3325045581	 0.1621084706	-0.428361
C	 0.0719577359	-0.0055759488	 0.0279245707	 0.43043
N	 0.075216756	-0.6896493627	-1.0866359773	-0.387937
C	 0.0529588912	-2.0288021406	-0.6976675709	-0.229644
C	 0.0365066103	-2.1264006736	 0.6613353139	 0.305224
C	 0.0109474941	-3.0273468057	 1.8669169629	-0.418793
C	 0.011782663	-2.012690124	 3.0054107027	-0.134262
C	 0.0338866514	-0.7640815398	 2.5256212317	-0.018923
N	 0.0490527181	-0.8062864203	 1.1216437607	-0.074432
H	 0.1031898954	 1.6897472769	-0.7348407432	 0.31379
H	 0.050644891	-2.8157529238	-1.4351325879	 0.109618
H	-0.8766969383	-3.6725746958	 1.903131753	 0.135997
H	 0.8799759265	-3.696084975	 1.922810235	 0.135996
H	-0.003510104	-2.2799390668	 4.0518059705	 0.113991
H	 0.0408524652	 0.1848861619	 3.0394926077	 0.147305
157.7438	188.6624	284.335	351.3199	396.2696	458.359	544.8738	647.1581	649.385	680.9426	702.7697	731.6197	795.657	818.6928	887.905	913.6958	934.9659	957.6339	1037.5986	1111.7235	1147.6271	1167.0857	1194.6424	1242.3143	1269.2837	1300.9135	1338.194	1389.7911	1464.8416	1556.7834	1598.3122	1614.397	1660.9926	3018.1235	3038.1282	3241.1519	3258.0187	3268.4219	3804.35
OC1=NC=C2CC=CN12	Oc1ncc2CC=Cn12	
InChI=1S/C6H6N2O/c9-6-7-4-5-2-1-3-8(5)6/h1,3-4H,2H2,(H,7,9)	InChI=1S/C6H6N2O/c9-6-7-4-5-2-1-3-8(5)6/h1,3-4H,2H2,(H,7,9)
