24
gdb 121947	2.84767	0.80948	0.65744	1.6846	87.46	-0.2329	0.0862	0.319	1778.4597	0.215396	-405.507536	-405.496752	-405.495808	-405.54404	38.707	
C	-0.0330731346	 1.3926922401	-0.0309261939	-0.226255
O	-0.0336849476	-0.0121676655	-0.0717639116	-0.229417
C	-1.3273876642	-0.5654852919	 0.0583879482	-0.065241
C	-1.1912159144	-2.0829367762	 0.0492690331	-0.186819
C	-2.5153128034	-2.8577668291	 0.0151971032	 0.044512
C	-2.2524401021	-4.3627177592	-0.0828958983	-0.38977
N	-3.2936204539	-2.590587125	 1.2300985999	-0.059707
C	-4.2590044108	-1.4967554159	 1.187542826	-0.220605
C	-4.715004046	-2.9123094629	 1.1775772789	-0.225891
H	 1.0031888433	 1.7247599277	-0.1336084202	 0.124581
H	-0.6271872444	 1.8282763137	-0.8510220277	 0.099089
H	-0.4358248777	 1.7762213561	 0.9205474784	 0.101141
H	-1.7964543232	-0.2170867121	 0.9917999097	 0.096407
H	-1.9702675464	-0.2279242689	-0.7750775779	 0.074814
H	-0.6008148494	-2.3591077751	-0.8319766333	 0.102057
H	-0.6190629348	-2.3935266005	 0.9304613702	 0.111316
H	-3.084518763	-2.543394368	-0.8821043593	 0.051464
H	-1.6970277528	-4.7084484376	 0.7945381593	 0.125663
H	-3.1899790968	-4.9241420559	-0.132651947	 0.111871
H	-1.6682294138	-4.5959579479	-0.9779263153	 0.112876
H	-4.334876453	-0.8936999723	 2.0881008733	 0.115408
H	-4.3635091524	-0.9406239307	 0.2570183905	 0.109286
H	-5.1216099531	-3.2911893256	 0.2404516166	 0.107876
H	-5.1334336156	-3.3686874972	 2.0701803973	 0.115342
59.0528	88.3573	100.9251	117.5688	158.8378	216.8301	228.6918	241.8768	289.0628	319.8088	323.9311	429.9238	525.2606	531.8466	714.0117	803.1089	836.5478	904.1648	913.6683	975.2101	981.5475	999.8478	1027.3621	1059.7418	1109.3051	1115.3945	1122.8074	1129.0946	1156.9726	1168.1765	1177.8586	1186.1756	1205.6528	1229.3361	1252.7766	1300.727	1310.2501	1321.4285	1367.9552	1380.4751	1407.1177	1427.9942	1478.5004	1481.7182	1485.989	1489.747	1491.8549	1501.064	1505.5331	1520.6753	1533.9223	2897.2804	2936.4158	2964.2149	2993.6565	3005.1186	3036.8571	3042.3442	3085.852	3089.438	3094.7712	3109.9598	3112.0667	3115.1158	3172.2972	3186.8491
COCCC(C)N1CC1	COCC[C@@H](C)N1CC1	
InChI=1S/C7H15NO/c1-7(3-6-9-2)8-4-5-8/h7H,3-6H2,1-2H3	InChI=1S/C7H15NO/c1-7(3-6-9-2)8-4-5-8/h7H,3-6H2,1-2H3/t7-/m1/s1
