15
gdb 28606	4.12245	1.09384	0.91625	2.1521	69.31	-0.1998	0.0242	0.224	1219.2446	0.113588	-453.952479	-453.944686	-453.943742	-453.985169	28.933	
O	 1.2647092738	 0.7616782186	 0.0080106588	-0.433715
C	 0.3236366092	-0.2059661439	-0.0852631205	 0.361812
C	-0.8384131277	-0.367810633	-0.7949981925	-0.235069
N	-1.4179448901	-1.5788434825	-0.4647815892	-0.310795
C	-0.6182759724	-2.1310318968	 0.4128578894	 0.352706
N	 0.4706207223	-1.3339288075	 0.6767762811	-0.340133
C	-0.785035815	-3.4436057788	 1.0596104937	-0.022594
C	 0.2875027052	-4.4566738209	 1.0783873393	-0.178315
O	 0.0179296514	-3.6551145919	 2.2311623128	-0.248243
H	 0.9998385605	 1.4992596529	-0.5503764295	 0.312467
H	-1.2870885757	 0.3060532234	-1.5083782783	 0.100434
H	 1.1603336862	-1.4950579303	 1.3927445942	 0.279036
H	-1.816329107	-3.7841299394	 1.123827437	 0.119837
H	 0.0291064948	-5.5103059251	 1.1724098236	 0.1251
H	 1.2269188145	-4.246534735	 0.5698784403	 0.117472
83.5637	140.4815	152.8735	249.334	299.8958	380.4344	437.7345	478.8567	554.5384	632.8868	673.9333	718.4752	730.7923	774.3355	844.2902	896.3777	981.1255	1017.2076	1053.6766	1092.1164	1143.5608	1145.2233	1167.6733	1177.9946	1236.7895	1262.3054	1295.9635	1386.5555	1451.0257	1507.8763	1520.5454	1575.6238	1635.8431	3086.0649	3142.5731	3178.5782	3247.797	3661.0811	3843.4403
OC1=CN=C(N1)C1CO1	Oc1cnc([nH]1)[C@H]1CO1	
InChI=1S/C5H6N2O2/c8-4-1-6-5(7-4)3-2-9-3/h1,3,8H,2H2,(H,6,7)	InChI=1S/C5H6N2O2/c8-4-1-6-5(7-4)3-2-9-3/h1,3,8H,2H2,(H,6,7)/t3-/m1/s1
