21
gdb 94396	2.37726	1.31657	1.25323	2.6362	83.3	-0.231	-0.0204	0.2106	1176.4982	0.181809	-387.096177	-387.087144	-387.0862	-387.130529	34.05	
C	-0.5620937872	 1.2537109976	-0.2235907084	-0.416845
C	 0.2003613482	-0.0605139359	-0.2009087723	-0.013182
C	 1.6638720543	-0.0948928355	-0.717252788	-0.232833
C	 2.0168153749	-1.0569117253	 0.4444011359	-0.284315
C	 0.6908831586	-0.6501796728	 1.1615367217	 0.238337
C	 0.7570373283	 0.1714870177	 2.4864106562	-0.32196
C	 0.1010188127	-1.0093120006	 3.2693239895	-0.343857
C	-0.1059248969	-1.7119579722	 1.9174155746	 0.343202
O	-0.6990922864	-2.6918211266	 1.5625485372	-0.30999
H	 0.0016766485	 2.0544674849	 0.2672743492	 0.114614
H	-0.7513966439	 1.5688682181	-1.2557462836	 0.119134
H	-1.5323609048	 1.1675974464	 0.2783826968	 0.117772
H	-0.3862147752	-0.8420004076	-0.6977329072	 0.093248
H	 1.8325884637	-0.4489221075	-1.7371800552	 0.099888
H	 2.1524672378	 0.8780979252	-0.6028250401	 0.099714
H	 1.9918038405	-2.1067960329	 0.1393643306	 0.1197
H	 2.9409127085	-0.8699125492	 0.9972157912	 0.101736
H	 1.7618787308	 0.4486184178	 2.8119845805	 0.104597
H	 0.1347641086	 1.0688724515	 2.4749955316	 0.111223
H	 0.7855234581	-1.557776391	 3.9243807906	 0.131579
H	-0.8121038193	-0.7950056519	 3.8313844792	 0.12824
43.2801	86.9203	127.2324	205.1572	241.2452	268.0906	339.8598	391.0248	481.1415	504.1505	587.7068	647.5669	715.5451	738.1086	775.8923	855.0937	878.8058	894.053	930.0735	943.347	963.1038	1024.6142	1032.2282	1082.4947	1095.9217	1144.3865	1165.1156	1180.8524	1187.0589	1212.8019	1224.4946	1240.6213	1263.6438	1270.1765	1280.4524	1297.5062	1371.6379	1410.3429	1437.3619	1476.6849	1485.3556	1496.0294	1498.3279	1500.5638	1877.1173	3025.5374	3039.9229	3050.1031	3056.0418	3056.1331	3071.3687	3091.9609	3094.9967	3099.589	3105.1731	3115.7793	3125.3323
CC1CCC11CCC1=O	C[C@H]1CC[C@]21CCC2=O	
InChI=1S/C8H12O/c1-6-2-4-8(6)5-3-7(8)9/h6H,2-5H2,1H3	InChI=1S/C8H12O/c1-6-2-4-8(6)5-3-7(8)9/h6H,2-5H2,1H3/t6-,8+/m0/s1
