20
gdb 14877	3.61078	1.34318	1.07129	2.0995	72.04	-0.2444	0.074	0.3184	1170.5912	0.175543	-386.113405	-386.104212	-386.103268	-386.147915	32.241	
C	-0.261091143	 1.5429206732	 0.2324366279	-0.387399
C	 0.001670384	 0.0538666146	-0.0110447424	-0.173905
C	 0.9092976143	-0.5362017403	 1.0553119057	 0.110803
O	 0.3269376535	-0.4788268277	 2.3854036353	-0.293635
C	 0.3437546644	-1.9127124059	 2.5213786741	-0.098073
C	 1.0245418716	-2.0762958102	 1.1420678607	 0.063687
O	 0.308474812	-2.7518751613	 0.1455469151	-0.235862
C	 0.3778658906	-4.1558064069	 0.2641020929	-0.238346
H	 0.6671101213	 2.1240940011	 0.1897854632	 0.109475
H	-0.9452935522	 1.9501353916	-0.5177964885	 0.109604
H	-0.7059631644	 1.6948518582	 1.2199179779	 0.135576
H	-0.9394535678	-0.5039496309	-0.0259905602	 0.108221
H	 0.4729494707	-0.10079908	-0.9895148988	 0.099012
H	 1.8818297592	-0.0237002411	 1.0490748429	 0.070907
H	 0.9202740225	-2.2362974861	 3.396507108	 0.098019
H	-0.66670069	-2.3392410158	 2.5712471315	 0.101942
H	 2.0564039476	-2.4523003906	 1.1935884127	 0.070945
H	-0.1836552565	-4.5801568175	-0.5712226759	 0.131617
H	 1.4180732387	-4.5142451315	 0.2154071392	 0.107487
H	-0.0656677566	-4.5133618728	 1.2056019288	 0.109925
62.4785	83.5738	115.3125	133.7526	202.6239	220.8132	264.8415	327.4465	428.3219	458.7345	532.8532	755.1552	802.7596	831.4271	888.8762	940.4597	977.4164	1019.0862	1041.1716	1055.8408	1092.9254	1110.1427	1156.2306	1169.9775	1183.974	1186.1676	1234.1568	1268.4394	1279.856	1294.3141	1324.6277	1356.3053	1399.8387	1406.0806	1408.7547	1476.0536	1482.293	1489.4332	1497.473	1508.9337	1510.1273	1513.3459	2974.6888	2990.5435	3003.7703	3012.1086	3023.84	3034.2086	3038.6913	3057.7804	3083.7468	3104.472	3118.7572	3119.2764
CCC1OCC1OC	CC[C@H]1OC[C@H]1OC	
InChI=1S/C6H12O2/c1-3-5-6(7-2)4-8-5/h5-6H,3-4H2,1-2H3	InChI=1S/C6H12O2/c1-3-5-6(7-2)4-8-5/h5-6H,3-4H2,1-2H3/t5-,6-/m1/s1
