14
gdb 44692	3.36496	1.42409	1.20849	3.7698	62.62	-0.2705	-0.0201	0.2504	1000.4479	0.102307	-473.860241	-473.853358	-473.852413	-473.892207	25.801	
N	 0.1103083722	 1.1551133856	-0.3813157948	-0.516466
C	 0.0396561635	-0.051320585	-0.0387244127	 0.40163
C	-1.2004113109	-0.9269843921	-0.1195826687	-0.324579
C	-0.6992585517	-2.3287553031	 0.1691841626	 0.085873
O	-0.2548163741	-3.0536159624	-1.0283473537	-0.251894
C	 1.0745585059	-2.9492074345	-0.6847307312	 0.437372
O	 2.0166054434	-3.3699333318	-1.2664435691	-0.302225
C	 0.7704708025	-2.1446420032	 0.602760746	-0.096178
O	 1.0861843384	-0.7677181119	 0.5121713773	-0.235026
H	 1.046809047	 1.5306018793	-0.2255488365	 0.235947
H	-1.9221322506	-0.6033712093	 0.6364729083	 0.149974
H	-1.6787747833	-0.8441789359	-1.0965661759	 0.166871
H	-1.352637602	-2.9608219312	 0.7679090558	 0.116419
H	 1.1394137897	-2.5536218946	 1.5428285427	 0.132282
77.5119	107.7705	242.8374	351.4977	440.2023	474.3335	515.9238	648.2281	663.1445	744.1844	811.4612	840.1258	859.4175	881.3322	897.4706	953.1349	999.2407	1014.6382	1048.4637	1103.8236	1137.8623	1174.342	1209.3927	1243.9113	1282.5211	1318.94	1342.5804	1367.3997	1450.752	1793.7196	1952.5249	3073.6137	3126.4921	3134.4457	3138.8943	3485.4163
N=C1CC2OC(=O)C2O1	[NH][C]1C[C@H]2OC(=O)[C@H]2O1	
InChI=1S/C5H5NO3/c6-3-1-2-4(9-3)5(7)8-2/h2,4,6H,1H2	InChI=1S/C5H5NO3/c6-3-1-2-4(9-3)5(7)8-2/h2,4,6H,1H2/t2-,4+/m1/s1
