20
gdb 114227	4.65878	0.90789	0.83048	2.2477	82.21	-0.2238	0.0214	0.2452	1412.6851	0.17177	-403.125661	-403.116969	-403.116024	-403.159351	33.169	
O	 0.0398739358	 1.407546672	 0.1043489223	-0.422906
C	 0.0373990393	-0.0095135791	 0.0176794049	-0.084867
C	-1.4165702154	-0.4759404579	 0.0220199639	-0.025917
C	-1.5647625368	-2.0142832802	-0.122500967	-0.351095
C	-2.6822312978	-2.40238496	 0.8545631468	 0.33447
C	-3.8248011745	-3.2747153435	 0.4598151412	-0.289399
N	-2.8054605677	-3.7635023065	 1.4058805484	-0.364237
C	-2.8282674868	-1.2336377733	 1.7637653863	-0.125807
C	-2.1481527941	-0.1797585544	 1.3152889023	-0.079585
H	 0.9514892603	 1.7058799382	 0.1693278201	 0.287731
H	 0.5332314111	-0.3538063351	-0.9049613779	 0.083812
H	 0.5675072387	-0.4648489696	 0.8699022874	 0.086688
H	-1.9154782102	 0.0421058755	-0.809241474	 0.09027
H	-1.765243456	-2.3285862529	-1.1501384433	 0.102353
H	-0.6315947243	-2.5004533118	 0.1932790533	 0.102044
H	-4.8102809373	-3.1174611519	 0.891060354	 0.115421
H	-3.8337152171	-3.6674419327	-0.5544257844	 0.107484
H	-2.1594577748	-4.3856057723	 0.9243403012	 0.226292
H	-3.4428412058	-1.2765333104	 2.6552864598	 0.099992
H	-2.1106262567	 0.8001221259	 1.7749138846	 0.107257
50.5654	118.7966	186.622	220.9119	257.9642	305.8925	320.5883	398.2611	407.6127	550.1977	580.3922	692.2272	776.8031	813.5693	847.9323	857.2778	900.5959	927.9637	955.2418	976.2149	982.272	999.4908	1063.7558	1071.7531	1088.7651	1098.7163	1126.2178	1133.6456	1193.3879	1241.4231	1242.4935	1264.079	1290.7875	1301.154	1317.3613	1336.7496	1361.424	1419.5526	1453.562	1483.1688	1509.2481	1520.2366	1678.2251	2957.9028	2986.5197	3009.254	3015.8959	3088.3895	3097.0991	3182.3216	3197.3259	3222.9532	3484.8193	3832.5435
OCC1CC2(CN2)C=C1	OC[C@H]1C[C@]2(CN2)C=C1	
InChI=1S/C7H11NO/c9-4-6-1-2-7(3-6)5-8-7/h1-2,6,8-9H,3-5H2	InChI=1S/C7H11NO/c9-4-6-1-2-7(3-6)5-8-7/h1-2,6,8-9H,3-5H2/t6-,7+/m1/s1
