26
gdb 119975	2.86999	0.78786	0.72405	1.306	93.97	-0.2098	0.0754	0.2852	1779.1412	0.238569	-369.594659	-369.583172	-369.582228	-369.632107	41.402	
C	-0.4047507224	 1.664769335	-0.1234614023	-0.381317
C	-0.3767905243	 0.204479132	-0.5817161459	-0.164515
C	 1.0446682001	-0.369127993	-0.6745120853	-0.196891
C	 1.0419174748	-1.8384709954	-1.0521089422	-0.017714
C	 1.1354630998	-2.334674301	-2.4636511336	 0.001164
C	 1.2425871436	-1.4177897924	-3.6645184201	-0.41933
N	 2.2277376402	-2.5653577312	-1.5100732359	-0.118277
C	 3.5128842882	-1.8895024258	-1.656295006	-0.108914
C	 4.4927090906	-2.7861105773	-2.4126876998	-0.374951
H	 0.0499481842	 1.7775192157	 0.8671162358	 0.114523
H	 0.1499960124	 2.3085821269	-0.8152694058	 0.112984
H	-1.4291854567	 2.045448942	-0.0645727927	 0.111822
H	-0.9678994981	-0.4089537435	 0.1108254264	 0.097835
H	-0.8665890813	 0.113370911	-1.5594101405	 0.099745
H	 1.6292860278	 0.2277212827	-1.3811637552	 0.094129
H	 1.5412285905	-0.2554879021	 0.2995639615	 0.097471
H	 0.4338895746	-2.4330259392	-0.3667728123	 0.078869
H	 0.5936217533	-3.2527302484	-2.6945324846	 0.082023
H	 1.6895587679	-0.4483091889	-3.4381704278	 0.121118
H	 1.8390622084	-1.8827892705	-4.457637635	 0.122746
H	 0.2440274993	-1.2317067365	-4.0746810706	 0.120939
H	 3.4561298592	-0.9109945343	-2.1568898533	 0.079973
H	 3.8952151266	-1.6989885366	-0.6459808235	 0.099833
H	 4.5919882439	-3.7520155284	-1.9097824663	 0.124955
H	 4.1448967376	-2.9742616679	-3.4336955206	 0.115628
H	 5.4801996299	-2.3172680629	-2.4734915144	 0.106153
50.8244	68.2305	85.2697	96.0197	142.1614	200.5022	228.2444	238.819	259.8195	293.0224	303.0032	365.1013	482.6605	538.7281	565.6575	704.9927	748.9605	772.9031	814.0503	842.2736	898.2797	906.6434	976.0093	990.4376	1039.0923	1048.4667	1056.4286	1100.9315	1108.1478	1130.4538	1160.6068	1170.7927	1189.7222	1199.8258	1258.5044	1300.2871	1308.0619	1327.7323	1349.9063	1377.2668	1380.9315	1401.4504	1408.8302	1412.068	1413.0319	1446.683	1477.4929	1487.1367	1489.9283	1493.6478	1496.9921	1500.7806	1503.1174	1510.285	1513.9924	2982.6163	3010.3363	3020.5358	3028.9621	3035.2322	3037.0527	3042.7201	3048.686	3065.492	3084.2216	3088.1751	3089.0448	3097.0428	3101.6387	3105.0758	3118.7292	3128.9982
CCCC1C(C)N1CC	CCC[C@H]1[C@@H](C)N1CC	
InChI=1S/C8H17N/c1-4-6-8-7(3)9(8)5-2/h7-8H,4-6H2,1-3H3	InChI=1S/C8H17N/c1-4-6-8-7(3)9(8)5-2/h7-8H,4-6H2,1-3H3/t7-,8+,9?/m1/s1
