16
gdb 20801	3.23981	1.80945	1.23786	4.8899	67.4	-0.2172	0.0132	0.2304	974.2525	0.131982	-376.105061	-376.096996	-376.096051	-376.138152	28.967	
C	-0.319804289	 1.6325031626	 0.0862047191	-0.364017
C	 0.1455793103	 0.1747126352	-0.0521580786	-0.298904
C	 0.8888327556	-0.3184700535	 1.1504916682	 0.28556
C	 2.1548912812	-0.8637547534	 1.2473179587	 0.226865
N	 3.1317322521	-1.2109622524	 0.3114382022	-0.609927
N	 2.2999580457	-1.1218826227	 2.5708964425	-0.210163
N	 1.1996500283	-0.7523388138	 3.2715078928	-0.131056
N	 0.3535581431	-0.2802878095	 2.4088457314	-0.253813
H	 0.5339623653	 2.3096101433	 0.1901802835	 0.111864
H	-0.8992812115	 1.9426437816	-0.7887728448	 0.107015
H	-0.9447712338	 1.7452377089	 0.9754014228	 0.147003
H	-0.7266135871	-0.4659530843	-0.2337506356	 0.121495
H	 0.7838441374	 0.0724664126	-0.9396066472	 0.082289
H	 2.8268624146	-1.0093095718	-0.6321290701	 0.256848
H	 4.0229836256	-0.754099931	 0.4714646625	 0.254192
H	 3.0712080921	-1.5640672719	 3.0441322125	 0.274749
36.655	156.9772	172.8881	201.9399	270.656	290.3673	369.9599	478.001	526.7853	635.7118	688.9654	717.8703	749.6916	791.1427	792.5596	974.2518	1016.9816	1048.8709	1068.9275	1092.0227	1110.5797	1219.1439	1285.8233	1293.3515	1336.2495	1365.0818	1398.9171	1408.3589	1479.6049	1495.0368	1505.4573	1524.8978	1631.8812	1665.2617	3016.4114	3039.8287	3046.7647	3108.0197	3128.8739	3518.8921	3614.0927	3659.6861
CCC1=C(N)NN=N1	CCc1c(N)[nH]nn1	
InChI=1S/C4H8N4/c1-2-3-4(5)7-8-6-3/h2H2,1H3,(H3,5,6,7,8)	InChI=1S/C4H8N4/c1-2-3-4(5)7-8-6-3/h2H2,1H3,(H3,5,6,7,8)
