16
gdb 123565	3.9295	1.56555	1.22747	3.7579	74.12	-0.2317	-0.0051	0.2266	982.3567	0.127718	-400.732742	-400.726476	-400.725532	-400.763282	25.584	
C	-0.0288998606	 1.4658822235	 0.0947446842	-0.277578
C	 1.2944427714	 0.7564047765	 0.0192553232	-0.023818
C	 2.0587283829	 0.4503711942	 1.3296142321	-0.37719
C	 1.0943462179	-0.4529252206	 2.0530103172	 0.145406
C	 0.0145344108	-0.7371885797	 1.279446318	 0.417607
O	-0.8399057971	-1.5515389545	 1.8930995854	-0.234629
N	-0.3030568096	-1.8440442318	 3.1671553702	-0.149728
C	 0.8300255638	-1.1748236703	 3.2408365913	-0.125368
C	-0.015613652	-0.0490705885	-0.0220714948	-0.198687
H	-0.3483572488	 1.8964154414	 1.0381716503	 0.125704
H	-0.3409905407	 2.0209481085	-0.7837304232	 0.121012
H	 1.8740853938	 0.878212659	-0.8879005935	 0.097671
H	 3.0128090181	-0.0460539204	 1.1160851625	 0.118789
H	 2.295237638	 1.3689214075	 1.8786974398	 0.120894
H	 1.4088430696	-1.2611866134	 4.1502567001	 0.129762
H	-0.3872113876	-0.5338476616	-0.9159266928	 0.110154
152.5066	238.9	332.5996	405.8474	421.9243	577.6932	637.045	699.7243	726.411	768.7401	786.2751	810.574	857.0705	883.69	908.864	958.8126	971.6519	990.5354	1037.1476	1070.5113	1087.3598	1097.1698	1159.6674	1181.6068	1191.886	1208.018	1262.8579	1291.605	1351.5661	1403.2092	1414.9069	1474.9804	1493.3796	1511.8759	1640.0265	3031.7112	3063.0969	3128.3981	3182.4021	3194.5712	3217.9555	3236.8513
C1C2CC3=C(ON=C3)C12	C1[C@H]2Cc3c(onc3)[C@@H]12	
InChI=1S/C7H7NO/c1-4-2-6(4)7-5(1)3-8-9-7/h3-4,6H,1-2H2	InChI=1S/C7H7NO/c1-4-2-6(4)7-5(1)3-8-9-7/h3-4,6H,1-2H2/t4-,6+/m1/s1
