18
gdb 117099	3.7567	0.84329	0.71126	4.0842	75.28	-0.2367	-0.0106	0.2261	1565.4138	0.146436	-435.277429	-435.267109	-435.266165	-435.31431	35.937	
C	-0.1824257443	 1.5065917509	 0.2627226328	-0.403375
C	-0.1036402642	-0.0027796214	 0.0612440493	-0.099127
N	 0.606580084	-0.6311326218	 1.1637530727	-0.315574
C	 0.9738576807	-1.9404302914	 1.1300716184	 0.327134
N	 0.8242668803	-2.6687558967	 0.0918593285	-0.532863
C	 1.6602095973	-2.372708624	 2.4498071549	-0.094862
O	 1.1423923065	-1.7203862109	 3.5991199418	-0.409667
C	 1.632571147	-3.8365371433	 2.6059664576	 0.264918
N	 1.5910847679	-4.9815126742	 2.7544730695	-0.313188
H	 0.8165070072	 1.9501844114	 0.3165579268	 0.128405
H	-0.719568734	 1.9717383876	-0.5679692804	 0.129531
H	-0.7178783305	 1.7592124383	 1.185442261	 0.11694
H	-1.1104575501	-0.4322240971	-0.042463935	 0.111086
H	 0.4277018714	-0.2493506985	-0.8627099319	 0.137396
H	 0.5773592449	-0.1946328387	 2.0714439863	 0.24903
H	 1.1791149079	-3.6111224882	 0.2403213244	 0.231275
H	 2.7088829034	-2.0574041763	 2.3945401469	 0.168946
H	 0.2564244645	-2.0645387456	 3.7668570462	 0.303993
22.4458	57.2619	98.3857	125.6651	181.3132	248.3447	262.2717	305.7213	328.4668	371.1861	438.9258	470.4551	508.7879	548.6575	620.3941	765.9408	800.8642	833.4528	881.3815	909.9107	993.3377	1071.8602	1078.3972	1148.4545	1172.6335	1184.6986	1255.2997	1281.0493	1289.6209	1316.7688	1390.1838	1414.8	1417.9638	1493.0946	1499.2069	1526.6532	1547.0062	1716.9107	2360.0911	3005.8401	3033.8987	3055.9582	3078.391	3104.6051	3122.3858	3511.0414	3635.6449	3792.2979
CCNC(=N)C(O)C#N	CCNC(=N)[C@@H](O)C#N	
InChI=1S/C5H9N3O/c1-2-8-5(7)4(9)3-6/h4,9H,2H2,1H3,(H2,7,8)	InChI=1S/C5H9N3O/c1-2-8-5(7)4(9)3-6/h4,9H,2H2,1H3,(H2,7,8)/t4-/m0/s1
