21
gdb 109386	2.99787	1.13034	0.91622	1.2851	87.78	-0.214	-0.0079	0.2061	1337.0212	0.183791	-387.097706	-387.088759	-387.087815	-387.131321	34.167	
O	 0.0715705277	 1.4302503698	 0.3256580441	-0.414766
C	 0.0407562592	 0.0370011238	 0.0793673818	-0.162221
C	-1.3815349514	-0.4545493482	-0.0338936406	 0.261326
C	-2.4336959126	 0.3802671058	-0.0424334828	-0.149864
C	-3.8647440035	-0.0985325032	 0.0026530637	-0.24411
C	-4.3777571148	-0.8120337722	-1.2679102208	-0.182189
C	-3.3098678354	-1.7394676432	-1.8904645246	-0.246167
C	-2.4568646435	-2.5031642974	-0.9065801925	-0.066263
C	-1.5529701274	-1.9108257739	-0.1116088702	-0.137842
H	 0.9835023922	 1.724658922	 0.2551980307	 0.289113
H	 0.5872765615	-0.2139618715	-0.8460625006	 0.097688
H	 0.5398725021	-0.5237888506	 0.8905899192	 0.090559
H	-2.2426349339	 1.446936751	 0.0026477171	 0.106172
H	-3.9506369537	-0.8162764287	 0.8291309468	 0.110394
H	-4.5303645289	 0.7366765476	 0.242582054	 0.092609
H	-5.2786338317	-1.3793499467	-1.0032347397	 0.092393
H	-4.6804881524	-0.0821964877	-2.028770581	 0.09368
H	-3.7877655851	-2.4293472756	-2.5931926067	 0.091508
H	-2.6379495792	-1.1016401378	-2.4795734738	 0.113016
H	-2.5411979473	-3.5869549884	-0.893009544	 0.086813
H	-0.8900653221	-2.5261780948	 0.4964316899	 0.078149
77.3676	137.4296	161.6968	213.4933	224.5918	264.5787	350.4549	373.9536	387.0988	472.8911	559.8918	639.2048	675.4131	760.015	767.3147	832.0958	881.5722	888.9478	922.1019	987.9991	992.6895	1037.3692	1050.6816	1067.1912	1080.1703	1101.3146	1157.1137	1198.1107	1228.6638	1232.4777	1251.893	1262.2294	1301.857	1330.6707	1345.7793	1364.3298	1383.1593	1434.7163	1458.9107	1475.7598	1486.1798	1498.0042	1509.3809	1663.9893	1704.939	2936.8302	2958.1759	3014.6815	3017.061	3022.9154	3057.6922	3075.0785	3078.0626	3121.3919	3161.2945	3192.8001	3843.2152
OCC1=CCCCC=C1	OCC1=CCCCC=C1	
InChI=1S/C8H12O/c9-7-8-5-3-1-2-4-6-8/h3,5-6,9H,1-2,4,7H2	InChI=1S/C8H12O/c9-7-8-5-3-1-2-4-6-8/h3,5-6,9H,1-2,4,7H2
