15
gdb 16859	4.20683	2.00758	1.50332	2.9342	62.63	-0.251	0.0201	0.2711	819.467	0.120232	-399.780378	-399.773897	-399.772952	-399.8111	25.087	
N	-0.1006598682	 1.2877616982	 0.4852614168	-0.512803
C	-0.0334388801	 0.1199580399	 0.010392077	 0.393208
C	-1.2482697033	-0.7814395128	-0.0410868241	-0.172936
O	-1.2316415463	-1.6038847298	-1.2010977647	-0.244647
C	-0.1147385056	-2.4401004852	-1.1898109436	 0.07142
C	 0.9359753881	-2.1921012099	-2.241333848	-0.327552
C	 1.1736949903	-1.7698090677	-0.8151360344	 0.066931
O	 1.1215571703	-0.3922007212	-0.5143416055	-0.24306
H	 0.8179152669	 1.7361305346	 0.462734292	 0.223018
H	-1.2980357238	-1.3955583957	 0.8711081568	 0.1172
H	-2.1398861759	-0.157051563	-0.086270916	 0.151256
H	-0.3093958793	-3.4555431682	-0.8472047925	 0.099797
H	 1.496971263	-3.0351030357	-2.6282642713	 0.123203
H	 0.720597357	-1.4012823644	-2.9504826855	 0.1414
H	 1.9123401368	-2.289371989	-0.2134911171	 0.113568
90.5733	206.0207	302.6754	405.0805	457.7168	473.974	507.129	603.6359	723.1007	794.8118	818.023	832.9513	903.4105	918.049	995.0247	1034.1357	1043.3077	1066.4847	1080.4706	1095.6954	1124.3764	1164.2673	1181.1793	1245.6538	1272.498	1306.859	1362.9122	1388.1888	1403.9202	1466.6067	1484.6067	1767.1841	2992.7682	3110.4047	3143.5956	3146.0212	3159.9149	3240.2498	3462.0699
N=C1COC2CC2O1	[NH][C]1CO[C@H]2C[C@H]2O1	
InChI=1S/C5H7NO2/c6-5-2-7-3-1-4(3)8-5/h3-4,6H,1-2H2	InChI=1S/C5H7NO2/c6-5-2-7-3-1-4(3)8-5/h3-4,6H,1-2H2/t3-,4+/m0/s1
