19
gdb 103645	2.8329	1.13196	1.04324	2.4821	67.19	-0.2484	0.05	0.2984	1219.3024	0.156926	-497.271149	-497.261242	-497.260297	-497.30584	36.817	
O	-0.1521503359	 1.4422416975	-0.1898932457	-0.441115
C	 0.0037583221	 0.0234889708	-0.1285036228	-0.143183
C	-1.4054704091	-0.5338042208	-0.0287776854	 0.418701
O	-2.057566448	 0.0030487958	 1.1075016859	-0.50585
C	-2.3029026005	-0.4862296843	-1.3079062156	-0.318032
C	-2.7882906137	-1.9242506652	-0.970181126	 0.130117
O	-2.8708227267	-2.879182621	-1.9945050269	-0.442008
C	-1.5809354782	-2.0707484385	 0.0136625411	 0.023287
O	-0.4829448326	-2.7142885255	-0.6188904385	-0.445585
H	 0.7094247863	 1.8510276457	-0.0719628876	 0.294589
H	 0.5157235426	-0.3672335837	-1.0157071825	 0.102017
H	 0.57379713	-0.2741558207	 0.7630423396	 0.097792
H	-1.8853453131	 0.9532083813	 1.0730259119	 0.28528
H	-3.0507241456	 0.3072034968	-1.3451303456	 0.105467
H	-1.7110693532	-0.4712811047	-2.2280874927	 0.095473
H	-3.7467052477	-1.9290309756	-0.4476556246	 0.10113
H	-1.9864494836	-2.9335271617	-2.3779128455	 0.274115
H	-1.773672012	-2.4780782667	 1.0123344417	 0.074466
H	-0.6620358411	-3.6605269396	-0.6057195107	 0.293337
65.0599	103.7262	144.6174	170.4188	247.0188	252.5203	276.4845	327.9969	359.7845	390.4824	432.436	463.0696	513.0162	534.507	635.9425	698.5673	751.1341	848.9376	929.9935	945.4346	961.9335	1024.9199	1046.9227	1076.2777	1105.7909	1118.9377	1153.9476	1165.3977	1213.5179	1219.1003	1249.006	1265.4754	1292.9483	1303.722	1322.635	1381.3292	1431.7294	1435.1273	1450.6793	1467.5697	1509.5358	3002.7589	3044.5024	3056.5203	3062.0727	3099.6322	3130.6389	3768.6772	3774.1235	3812.4944	3843.4156
OCC1(O)CC(O)C1O	OC[C@@]1(O)C[C@@H](O)[C@H]1O	
InChI=1S/C5H10O4/c6-2-5(9)1-3(7)4(5)8/h3-4,6-9H,1-2H2	InChI=1S/C5H10O4/c6-2-5(9)1-3(7)4(5)8/h3-4,6-9H,1-2H2/t3-,4-,5+/m1/s1
