15
gdb 123653	4.13375	1.58014	1.24935	4.0988	70.82	-0.2024	0.0082	0.2106	952.3155	0.115914	-416.772739	-416.766519	-416.765574	-416.803151	25.52	
C	 0.0140467716	 1.495420594	 0.0889626864	-0.302519
C	 1.3218935593	 0.7435907264	-0.0011541573	-0.001071
N	 2.0361677927	 0.3382097391	 1.2114011792	-0.408886
C	 1.1378373337	-0.4432767584	 1.9051082702	 0.458667
C	-0.0047532479	-0.7659204512	 1.2364917209	 0.155911
C	-0.6528823574	-1.6219976829	 2.1503488553	-0.12681
N	 0.0314386269	-1.7848569656	 3.2680377023	-0.170193
O	 1.2206121491	-0.9896178298	 3.1034422528	-0.240115
C	-0.0138996162	-0.0178595903	-0.0481268644	-0.208483
H	-0.2871937879	 1.9249563714	 1.0383523957	 0.121432
H	-0.2539189408	 2.080281692	-0.7843934675	 0.120382
H	 1.9491429955	 0.8665684134	-0.8758287805	 0.109982
H	 2.5610598959	 1.0428645899	 1.7113985303	 0.2573
H	-1.5981322288	-2.1413644548	 2.067562287	 0.129864
H	-0.3702961059	-0.4634321731	-0.9689960204	 0.104538
161.4587	256.2708	373.0568	428.3231	453.3421	531.6313	611.0015	631.4944	698.5491	748.8502	783.5296	805.9963	810.5143	838.0849	911.4387	939.1368	969.815	979.8617	1039.7868	1060.4636	1093.2109	1128.8304	1186.3187	1192.6674	1197.2405	1287.3864	1319.7853	1361.7579	1422.4932	1453.3126	1467.1679	1557.1863	1640.3815	3130.9711	3177.3615	3184.0144	3223.0465	3234.489	3590.1344
C1C2NC3=C(C=NO3)C12	C1[C@H]2Nc3c(cno3)[C@@H]12	
InChI=1S/C6H6N2O/c1-3-4-2-7-9-6(4)8-5(1)3/h2-3,5,8H,1H2	InChI=1S/C6H6N2O/c1-3-4-2-7-9-6(4)8-5(1)3/h2-3,5,8H,1H2/t3-,5-/m1/s1
