20
gdb 52951	3.0954	0.97587	0.85577	1.9859	92.25	-0.2076	0.039	0.2466	1463.2582	0.169578	-365.959499	-365.949715	-365.948771	-365.99707	35.417	
C	-0.0326327508	 1.4818364044	-0.092380299	-0.510175
C	-0.0397616581	 0.0285637566	-0.0243084366	 0.248154
C	-0.0428191034	-1.1772042829	 0.0272794674	-0.211135
C	-0.0294989136	-2.5947133217	 0.1161288201	 0.195951
C	 0.7937267578	-3.4824369634	 1.064324493	-0.289028
C	-0.3871472005	-4.5111627623	 1.0694390123	-0.256976
C	-1.163376374	-3.59080962	 0.114934549	 0.265508
C	-2.6442191712	-3.3871137934	 0.0551220724	-0.501325
N	-0.305995502	-3.4588836779	-1.0803562329	-0.413611
H	 0.8803285478	 1.8915123093	 0.3541256339	 0.151552
H	-0.0770644856	 1.8324394624	-1.1297037712	 0.149334
H	-0.885488492	 1.9158522053	 0.441953604	 0.147217
H	 1.7449237205	-3.827813552	 0.6536312733	 0.107121
H	 0.9560682625	-3.021021425	 2.0398950247	 0.109236
H	-0.1711054295	-5.5077127975	 0.6770388391	 0.105487
H	-0.8589247002	-4.5975361815	 2.0511327729	 0.099214
H	-3.0696625304	-3.2964608229	 1.0600705687	 0.125191
H	-2.8892453873	-2.4740074001	-0.4979799928	 0.124839
H	-3.1390748573	-4.2296915821	-0.4427918277	 0.128023
H	-0.8079790326	-2.8676272852	-1.7443202605	 0.225423
3.3302	79.9749	100.8153	198.7768	208.5646	229.1386	306.9641	332.0435	385.6781	424.8638	501.3033	529.2586	561.3759	664.9897	694.6197	778.1973	843.4758	921.6426	936.3134	957.6969	991.6387	1045.5688	1051.8219	1055.178	1084.3491	1097.1652	1148.8827	1164.9382	1217.7585	1230.8054	1245.8753	1318.9276	1361.2422	1406.4027	1415.9104	1441.1018	1467.7884	1475.7191	1478.3368	1482.3995	1494.1208	1500.0934	2355.6082	3023.0895	3023.8965	3061.9024	3072.6582	3082.2821	3085.7073	3086.2395	3099.8867	3114.3344	3135.2818	3460.0592
CC#CC12CCC1(C)N2	CC#C[C@@]12CC[C@]1(C)N2	
InChI=1S/C8H11N/c1-3-4-8-6-5-7(8,2)9-8/h9H,5-6H2,1-2H3	InChI=1S/C8H11N/c1-3-4-8-6-5-7(8,2)9-8/h9H,5-6H2,1-2H3/t7-,8+/m0/s1
