19
gdb 51201	3.74513	1.12033	1.0122	2.7171	80.72	-0.2478	-0.0216	0.2262	1212.3116	0.158717	-385.824371	-385.816505	-385.815561	-385.85764	30.085	
O	-0.707551867	 0.8029772902	 0.7075925749	-0.238239
C	 0.0592802263	 0.9942081062	-0.2001326198	 0.163756
C	 1.2705385497	 1.9007913593	-0.1372930916	-0.412987
C	 1.2320859645	 2.9730666224	-1.2057664707	 0.348145
C	 0.2085724877	 4.1165308852	-1.383622476	-0.306773
C	 1.2111177945	 4.316925488	-2.5344880511	-0.040589
C	 2.4337519624	 3.8863772627	-1.6539299412	-0.081947
C	 2.9226597536	 2.8672605704	-2.701064473	-0.268477
C	 1.3852913461	 2.7771256753	-2.7652022489	-0.076002
H	-0.0860668018	 0.4963151003	-1.1872638943	 0.073708
H	 1.3268817917	 2.3386757627	 0.8643647093	 0.122129
H	 2.1618260342	 1.2739152606	-0.2897323702	 0.119389
H	-0.8118009265	 3.8295830489	-1.6593099864	 0.096589
H	 0.1918113791	 4.883788584	-0.6023183935	 0.095134
H	 1.225960298	 5.0812038076	-3.3121739299	 0.074411
H	 3.0123842772	 4.5385409597	-0.9970097828	 0.072043
H	 3.4267082619	 3.2750077843	-3.5828010135	 0.095668
H	 3.4607717224	 1.9884106338	-2.3306337712	 0.091419
H	 0.7541520259	 2.1524057483	-3.4000272203	 0.072623
56.3809	69.2967	174.1487	243.2737	338.6402	415.399	452.7285	470.6092	644.4775	716.4109	765.1577	819.6445	863.9553	869.2821	879.8643	907.5949	911.8617	954.0133	993.716	1019.2273	1024.7442	1043.229	1053.6286	1116.6201	1124.1695	1124.3743	1159.1838	1161.4606	1185.3136	1208.5259	1224.3686	1237.1092	1261.5969	1293.9063	1300.2579	1335.3091	1427.9523	1452.3279	1509.1923	1510.3736	1835.0777	2859.9366	3007.8164	3034.0877	3038.6964	3087.1037	3091.0651	3093.2114	3093.6745	3095.5547	3113.2462
O=CCC12CC3C1CC23	O=CC[C@@]12C[C@H]3[C@@H]1C[C@@H]23	
InChI=1S/C8H10O/c9-2-1-8-4-5-6(8)3-7(5)8/h2,5-7H,1,3-4H2	InChI=1S/C8H10O/c9-2-1-8-4-5-6(8)3-7(5)8/h2,5-7H,1,3-4H2/t5-,6-,7+,8+
