17
gdb 84181	3.49806	1.0727	0.85943	2.1595	85.25	-0.2393	-0.0314	0.2079	1318.6605	0.134048	-384.699101	-384.690291	-384.689347	-384.732872	32.802	
C	-0.1519547531	 1.5956746454	 0.0539166399	-0.391814
C	 0.016683474	 0.0695453568	-0.0237580152	-0.142461
C	 0.7939395399	-0.4476662625	-1.2015706679	-0.179811
C	 1.8293866322	-1.2334178069	-0.8552930685	 0.164372
C	 1.9331865225	-1.3913376616	 0.6478014999	-0.43566
C	 0.8107122427	-0.4883904236	 1.1751294752	 0.391445
O	 0.5938783588	-0.2345257925	 2.3303051268	-0.310911
C	 2.7364668872	-1.8651422432	-1.738626937	 0.208162
C	 3.532938361	-2.4206008468	-2.4522692013	-0.40266
H	 0.8167770751	 2.1006029482	-0.0105255783	 0.123576
H	-0.7817708578	 1.961711288	-0.7619504466	 0.119244
H	-0.6172224353	 1.8656842221	 1.0053497386	 0.142911
H	-0.986691328	-0.3835917276	 0.0094190286	 0.115646
H	 0.5371415574	-0.204965315	-2.2260443219	 0.107994
H	 1.7744883083	-2.4255416869	 0.9781065151	 0.146932
H	 2.9029685035	-1.0829352308	 1.0545079498	 0.146958
H	 4.2278391216	-2.9043897732	-3.0930909671	 0.196077
63.5304	105.8622	142.3995	211.2377	237.0409	277.5916	429.9119	437.8577	495.8162	523.4259	554.4221	598.2482	607.6609	641.679	660.326	741.2604	876.6056	892.5708	920.5209	926.9403	1015.5287	1070.8168	1095.2364	1126.2317	1166.0469	1179.9891	1260.6371	1284.9187	1308.4805	1328.6261	1401.7237	1442.2484	1494.0831	1499.8583	1660.0369	1851.6417	2223.2965	2985.7119	3037.994	3041.983	3073.4106	3113.3886	3127.3708	3203.6206	3502.5545
CC1C=C(CC1=O)C#C	C[C@H]1C=C(CC1=O)C#C	
InChI=1S/C8H8O/c1-3-7-4-6(2)8(9)5-7/h1,4,6H,5H2,2H3	InChI=1S/C8H8O/c1-3-7-4-6(2)8(9)5-7/h1,4,6H,5H2,2H3/t6-/m0/s1
