22
gdb 94189	2.58235	1.2569	1.21521	1.9699	82.16	-0.2215	0.0756	0.297	1192.6147	0.192857	-404.302741	-404.293233	-404.292288	-404.336613	36.548	
C	-0.12133222	 1.3768306475	-0.2968769514	-0.415295
C	 0.0772390218	-0.1066579709	 0.0117150012	 0.305503
C	 1.1801707436	-0.7458983842	-0.9106140145	-0.282973
C	 2.2114942794	-0.5143761889	 0.2269655607	-0.274017
C	 1.0256790324	-0.3496911818	 1.2148455779	 0.118769
O	 1.0543417633	 0.6859723342	 2.1663458545	-0.430825
N	-1.245770837	-0.702880502	 0.1646339101	-0.111036
C	-1.9350538049	-1.1991331998	-1.0176213852	-0.22701
C	-1.4441395464	-2.1370221542	 0.0319792512	-0.236632
H	 0.8337046393	 1.9012507614	-0.3818511208	 0.113624
H	-0.6597810587	 1.4890034878	-1.243940045	 0.106242
H	-0.7040679505	 1.8503887753	 0.4955615888	 0.135842
H	 1.0218709483	-1.8082940914	-1.1100710753	 0.100605
H	 1.3660409018	-0.2402644099	-1.8605665693	 0.099657
H	 2.9289386104	-1.3132007094	 0.4287733531	 0.091824
H	 2.7520612337	 0.4282105982	 0.1107427394	 0.110269
H	 0.7755443028	-1.3134244232	 1.681454404	 0.065797
H	 1.6116124439	 0.4109077713	 2.9004320812	 0.283602
H	-2.9905070921	-0.9529873643	-1.098333221	 0.114159
H	-1.3947353817	-1.2019607699	-1.9633490505	 0.110411
H	-0.6021918453	-2.7752679605	-0.2286222609	 0.10735
H	-2.1350601041	-2.5779236354	 0.7456905417	 0.114134
93.2622	116.1568	173.0349	195.8837	224.6728	247.8993	274.7577	310.0642	359.6843	440.2443	494.1175	541.3958	570.6647	703.4599	791.2685	809.3582	849.4235	890.5143	903.7072	919.1092	951.9877	967.2296	998.2611	1028.7897	1103.1057	1109.1536	1115.0435	1117.6913	1150.0861	1159.5546	1170.9038	1179.9402	1199.7198	1217.5705	1245.8258	1260.2572	1289.4447	1322.3514	1336.4923	1404.8687	1430.388	1471.9332	1482.8734	1490.9951	1494.849	1500.5823	1520.0798	2995.4116	3043.4777	3062.0268	3068.9163	3091.429	3098.4015	3109.2249	3113.4062	3125.6472	3137.8165	3170.0094	3184.2012	3825.8433
CC1(CCC1O)N1CC1	C[C@]1(CC[C@H]1O)N1CC1	
InChI=1S/C7H13NO/c1-7(8-4-5-8)3-2-6(7)9/h6,9H,2-5H2,1H3	InChI=1S/C7H13NO/c1-7(8-4-5-8)3-2-6(7)9/h6,9H,2-5H2,1H3/t6-,7-/m1/s1
