16
gdb 18380	3.42038	2.31033	1.51453	1.8112	71.63	-0.2311	-0.0324	0.1987	823.6635	0.132536	-346.592038	-346.585622	-346.584678	-346.622384	25.496	
C	 0.153024457	 1.5389265326	 0.4088465623	-0.292893
C	 1.2781792955	 2.1708322222	-0.3699957181	-0.078396
C	 2.5468271721	 1.7388384181	-0.3282817952	-0.069934
C	 3.0417724663	 0.5995760555	 0.4423793696	-0.070121
C	 2.38043888	-0.5240980741	 0.7618802171	-0.109327
C	 1.0261925362	-0.9010842429	 0.2827945452	 0.025426
O	-0.0833217307	-0.8300125824	 1.2028770795	-0.261864
C	-0.05804084	 0.0663680791	 0.0880217653	 0.050157
H	 0.384543829	 1.5864174291	 1.4807262734	 0.136543
H	-0.7789238542	 2.0909910872	 0.2575754534	 0.104399
H	 1.0465566394	 3.0493168319	-0.9660995581	 0.094819
H	 3.3030099257	 2.3043512505	-0.8686078289	 0.091212
H	 4.0759259471	 0.680695855	 0.7739768702	 0.094743
H	 2.8991229089	-1.2875294231	 1.3380026318	 0.098102
H	 1.0066893267	-1.8131025054	-0.3187722983	 0.095033
H	-0.8040333291	-0.1540306634	-0.675935509	 0.092103
134.7376	242.8256	325.0774	371.2375	397.7606	454.0097	562.7609	683.0536	704.443	775.3535	828.2811	830.472	862.5516	924.3971	937.1718	990.2878	997.0925	1011.142	1032.4973	1051.3319	1105.308	1152.1092	1214.4452	1239.5311	1249.2033	1296.8608	1340.6608	1368.8766	1415.0503	1448.7443	1471.4555	1484.0289	1670.726	1703.4536	3030.2327	3073.374	3084.742	3109.6696	3129.2446	3144.6644	3156.7001	3170.9024
C1C=CC=CC2OC12	C1C=CC=C[C@H]2O[C@@H]12	
InChI=1S/C7H8O/c1-2-4-6-7(8-6)5-3-1/h1-4,6-7H,5H2	InChI=1S/C7H8O/c1-2-4-6-7(8-6)5-3-1/h1-4,6-7H,5H2/t6-,7+/m1/s1
