19
gdb 36638	5.72172	0.71363	0.70069	1.3248	81.81	-0.2381	0.0512	0.2893	1616.2161	0.15796	-385.780633	-385.772039	-385.771095	-385.814774	32.501	
C	-0.1279373386	-1.2580755614	-0.2780223713	-0.431287
C	-0.0824362774	-0.0643265664	-0.1448784545	 0.291341
C	 0.0101291571	 1.3816978985	 0.0110728742	-0.350827
C	 1.4486411586	 1.9153245359	-0.1745744126	-0.248182
C	 1.5061688482	 3.4303377489	-0.0543329463	 0.052815
C	 1.4810048758	 4.1973540251	 1.3044158971	 0.039805
C	 2.9369665173	 3.7658000667	 1.6020488735	-0.229542
C	 2.8287509713	 4.2292989727	 0.129322583	 0.013732
O	 2.0169425371	 5.3802709218	 0.5916522113	-0.308428
H	-0.1825888251	-2.3118907155	-0.3948290194	 0.194601
H	-0.6561052667	 1.8718494588	-0.7107892276	 0.133312
H	-0.3600808354	 1.6666396984	 1.0045333748	 0.132379
H	 2.1037453156	 1.4217682271	 0.5483838996	 0.113365
H	 1.8066206421	 1.620299792	-1.1678858893	 0.116642
H	 0.8549952912	 3.9173469876	-0.7870359571	 0.083067
H	 0.6535455187	 4.3644379564	 1.9952391085	 0.092806
H	 3.4868485465	 4.446765559	 2.2521309266	 0.111081
H	 3.1496745495	 2.7169797371	 1.8156991214	 0.099883
H	 3.6189837141	 4.4319762973	-0.5946989519	 0.093441
59.8217	71.0979	101.8438	203.843	303.9083	348.6477	364.1482	471.754	558.0572	619.2587	637.6946	640.4767	720.6645	754.1299	811.1497	851.7352	879.9628	893.	924.3964	978.0296	1007.6166	1012.4737	1032.2132	1077.2827	1098.3507	1109.1505	1159.0251	1172.2453	1194.1915	1202.9129	1221.9459	1263.2128	1284.7996	1288.0212	1315.8822	1365.5499	1406.5188	1472.6765	1484.8338	1501.1054	2239.518	3017.7467	3042.023	3049.5279	3065.1356	3075.7636	3099.8032	3107.6832	3115.2447	3153.4027	3507.0228
C#CCCC1C2CC1O2	C#CCC[C@H]1[C@H]2C[C@@H]1O2	
InChI=1S/C8H10O/c1-2-3-4-6-7-5-8(6)9-7/h1,6-8H,3-5H2	InChI=1S/C8H10O/c1-2-3-4-6-7-5-8(6)9-7/h1,6-8H,3-5H2/t6-,7+,8-
