14
gdb 132847	3.09315	1.39878	0.9632	4.4182	71.23	-0.1926	-0.02	0.1726	1104.4154	0.101613	-474.159723	-474.151865	-474.150921	-474.192385	29.732	
F	 0.0694194454	 0.0086060399	-0.2745444292	-0.065618
C	-0.076979654	 1.3189247479	-0.1118148464	 0.325732
C	-1.2239479354	 1.9173181565	 0.1999197094	-0.213279
N	-1.2139827367	 3.3109634445	 0.3371014268	-0.396391
C	-0.1092815954	 4.134894483	 0.1765270145	 0.356753
N	-0.0994370921	 5.4050857107	 0.3002256295	-0.489724
C	 1.1825521061	 3.4281152814	-0.1779137023	 0.358323
N	 2.247237638	 4.1047838387	-0.3445183801	-0.480054
N	 1.086162561	 2.0397716902	-0.2958540417	-0.452453
H	-2.1508283098	 1.3896518274	 0.3515169232	 0.142347
H	-2.0805906585	 3.766511807	 0.5711894879	 0.252131
H	-1.0275748926	 5.7606987879	 0.539293675	 0.199323
H	 3.0399329952	 3.5037658793	-0.5789014661	 0.203772
H	 1.9199965588	 1.5229793556	-0.5301643804	 0.259139
70.4647	108.7131	289.7597	335.7418	338.2295	380.1791	418.4225	462.4962	493.2286	516.3806	570.9079	596.0557	698.596	723.5464	775.9653	803.5821	825.1143	862.2122	1021.9977	1045.5387	1127.3957	1181.9874	1262.5107	1289.9827	1355.6493	1416.0754	1456.842	1501.7191	1708.5537	1721.2345	1794.2023	3270.1245	3447.4129	3452.6414	3630.9533	3648.4354
FC1=CNC(=N)C(=N)N1	Fc1c[nH]c([NH])c([NH])[nH]1	
InChI=1S/C4H5FN4/c5-2-1-8-3(6)4(7)9-2/h1H,(H2,6,8)(H2,7,9)	InChI=1S/C4H5FN4/c5-2-1-8-3(6)4(7)9-2/h1H,(H2,6,8)(H2,7,9)
