20
gdb 40937	3.4271	1.34308	1.19332	2.3341	79.04	-0.2433	0.0306	0.2739	1108.7574	0.173269	-403.160288	-403.152579	-403.151635	-403.192484	30.573	
C	 0.096249142	 1.3578921682	-0.5367444164	-0.218154
C	 1.395955199	 1.6489977305	 0.2627830679	-0.269511
C	 1.3656792889	 0.176754841	 0.7674523547	 0.447491
C	-0.114730178	 0.0904540424	 0.337237149	-0.284542
C	 2.3197879279	-0.7681871984	 0.0458890066	-0.283964
C	 3.7447127043	-0.5410421359	 0.5598476122	-0.163372
N	 3.822277348	-0.5194202673	 2.0169469918	-0.266176
C	 2.7592404287	-0.2691432403	 2.6532245512	 0.113467
O	 1.5195468046	 0.0265321773	 2.1873924983	-0.273849
H	-0.6860756195	 2.117517322	-0.5017400467	 0.106831
H	 0.2953885562	 1.1155374016	-1.583446053	 0.1075
H	 2.2820348825	 1.9716703968	-0.2902993032	 0.100079
H	 1.2217250086	 2.3385453597	 1.0920148544	 0.113994
H	-0.7647530124	 0.2871619322	 1.1932918728	 0.115662
H	-0.4360593946	-0.832310714	-0.1525315437	 0.099683
H	 2.013037482	-1.8012702316	 0.2501448574	 0.110259
H	 2.2558593965	-0.6153526601	-1.0365232628	 0.103111
H	 4.4145099294	-1.3265677288	 0.1938368163	 0.110444
H	 4.1492009303	 0.4050772314	 0.1735051482	 0.11134
H	 2.7486710856	-0.2715521066	 3.7420002347	 0.119708
97.814	129.122	199.317	280.3024	356.6509	393.8525	428.7673	505.1677	556.1561	628.416	711.4725	787.5156	798.1939	854.9119	889.474	900.4097	928.5321	933.3057	962.4633	978.2989	997.7686	1022.4443	1045.6753	1136.1787	1140.6828	1168.2061	1194.4962	1205.3414	1240.542	1249.6366	1260.848	1275.0725	1281.4761	1311.11	1359.4777	1380.7937	1412.6524	1467.537	1478.5844	1483.563	1492.2846	1504.9346	1732.2815	3010.0181	3031.7385	3059.4051	3060.5819	3062.7247	3072.4035	3081.7873	3110.2691	3118.7673	3132.472	3154.5839
C1CC2(C1)CCN=CO2	C1CC2(C1)CCN=CO2	
InChI=1S/C7H11NO/c1-2-7(3-1)4-5-8-6-9-7/h6H,1-5H2	InChI=1S/C7H11NO/c1-2-7(3-1)4-5-8-6-9-7/h6H,1-5H2
