18
gdb 22385	3.99773	1.06994	0.9533	1.2196	74.91	-0.2427	0.0062	0.2488	1234.2757	0.147158	-439.042632	-439.034332	-439.033388	-439.075285	32.719	
O	-0.1041646487	 1.323048929	 0.1582163676	-0.39372
N	 0.0298189772	-0.0737744456	 0.0535354759	-0.217155
C	-1.100068696	-0.6391189417	-0.0942389831	 0.378973
C	-2.4646094662	 0.0149460512	-0.2235719884	-0.31016
C	-3.3178174596	-1.0507477379	-0.8920996343	-0.123386
C	-2.7864265812	-1.6283411266	-2.1939322266	-0.317907
C	-2.5470943623	-2.3621424231	-0.9135405822	 0.420703
O	-3.1624829078	-3.6061543948	-0.7956432901	-0.471247
C	-1.2092698148	-2.14452677	-0.216125397	-0.369507
H	 0.8134200165	 1.6088713397	 0.2186667016	 0.306251
H	-2.85331273	 0.2715572222	 0.7709885467	 0.120857
H	-2.3908032803	 0.9529686323	-0.7820802607	 0.13236
H	-4.391335846	-1.0501563408	-0.7439030028	 0.08864
H	-3.5194149916	-2.0752667357	-2.8553646119	 0.124092
H	-1.9567924138	-1.1363853959	-2.6936897331	 0.118194
H	-3.3608153089	-3.7560415643	 0.1359348222	 0.278807
H	-0.3546266631	-2.5849470867	-0.7363835293	 0.12841
H	-1.2505765833	-2.6005838313	 0.7845667456	 0.105795
72.4948	194.9264	234.1128	300.4655	309.3151	355.3953	373.261	388.4119	424.8071	485.3055	517.0393	597.3113	683.1249	712.7906	817.8862	845.7617	882.2331	913.7067	930.3133	963.8509	978.524	1038.1946	1055.6268	1076.3249	1092.6299	1151.4845	1199.7707	1218.0088	1232.2215	1250.4848	1290.2595	1317.2697	1340.1407	1404.2164	1418.1175	1470.2054	1472.8564	1497.4813	1754.9998	2997.9261	3025.7227	3081.3035	3092.6054	3126.193	3180.6797	3223.0398	3785.1905	3820.8091
ON=C1CC2CC2(O)C1	ON=C1C[C@H]2C[C@@]2(O)C1	
InChI=1S/C6H9NO2/c8-6-2-4(6)1-5(3-6)7-9/h4,8-9H,1-3H2	InChI=1S/C6H9NO2/c8-6-2-4(6)1-5(3-6)7-9/h4,8-9H,1-3H2/t4-,6+/m0/s1
