20
gdb 55477	3.16025	1.13046	0.87839	16.665	80.26	-0.1526	-0.0243	0.1283	1305.3669	0.173889	-440.26006	-440.251655	-440.250711	-440.293809	32.042	
O	-0.04860127	-0.0712729676	-0.0924841921	-0.476342
C	 0.0779992994	 1.163506993	-0.0640304584	 0.348754
O	 1.0635654271	 1.9179235245	-0.0968861398	-0.476419
C	-1.3168302613	 1.9438468716	 0.02561101	-0.119653
C	-2.3792601617	 1.0902327154	 0.7156303561	-0.180501
C	-3.7092604529	 1.8184690608	 0.8274280976	-0.229299
N	-3.4774682527	 3.1532621773	 1.531962483	-0.238868
H	-4.3616618098	 3.6483299378	 1.6536791376	 0.303626
H	-3.1129957368	 2.9488468497	 2.4663847048	 0.305755
C	-2.460274571	 4.04879014	 0.8282426438	-0.229275
C	-1.1444906448	 3.2952614907	 0.7167458924	-0.18047
H	-1.6375550321	 2.1241872593	-1.0126616889	 0.068389
H	-2.4976664476	 0.1545792007	 0.1656273853	 0.154801
H	-2.038377812	 0.799214243	 1.7194235012	 0.10859
H	-4.130527313	 2.0713765187	-0.1496111904	 0.15206
H	-4.4663252977	 1.2941473181	 1.4197381366	 0.136707
H	-2.8956396541	 4.2762569013	-0.1488686425	 0.152065
H	-2.4090991622	 4.9679597631	 1.421035294	 0.1367
H	-0.7191555917	 3.1559852057	 1.7208776035	 0.108456
H	-0.4078783552	 3.884882767	 0.1674376562	 0.154923
41.7993	106.6027	192.8773	236.3624	292.0401	307.7631	411.0407	442.6094	477.5277	490.7849	627.3143	767.7261	771.0879	787.6604	816.2324	866.454	871.7519	875.3525	936.9176	995.1188	1013.2256	1033.9902	1078.2106	1119.37	1130.134	1191.975	1214.3124	1245.1046	1274.805	1299.9215	1304.3936	1319.9613	1374.2835	1374.6473	1392.3487	1393.9516	1406.8689	1460.7121	1465.2996	1484.5617	1501.3293	1629.8609	1787.8519	2981.6696	3016.5867	3024.0027	3051.8426	3051.8586	3112.2303	3114.2109	3122.6526	3123.6337	3421.0592	3496.5871
[O-]C(=O)C1CC[NH2+]CC1	[O]C(=O)C1CC[NH2]CC1	
InChI=1S/C6H11NO2/c8-6(9)5-1-3-7-4-2-5/h5,7H,1-4H2,(H,8,9)	InChI=1S/C6H11NO2/c8-6(9)5-1-3-7-4-2-5/h5H,1-4,7H2
