17
gdb 29373	5.37655	0.87228	0.78299	2.6404	80.81	-0.2105	0.0246	0.2351	1436.5532	0.136826	-380.931043	-380.922225	-380.921281	-380.965583	31.776	
C	-0.3402450215	 1.5557047893	-0.1922452975	-0.499524
C	-0.0679330198	 0.0940057044	-0.0009383347	 0.291113
C	 0.3416989556	-0.7984373742	-0.9655448297	-0.173403
N	 0.4673374995	-2.0375102522	-0.3861458698	-0.304729
C	 0.1599905127	-1.9532578149	 0.948182637	 0.345159
C	 0.1598590309	-3.1585232307	 1.8460037777	-0.449759
C	 1.2406850482	-4.0974647857	 1.5330777958	 0.258327
N	 2.0788948148	-4.8358208777	 1.236832278	-0.3127
C	-0.1780788403	-0.6468151294	 1.2149107029	-0.342302
H	 0.2937510979	 2.1744766369	 0.4533392868	 0.126018
H	-0.1528185908	 1.85899681	-1.2263822842	 0.120134
H	-1.3804408509	 1.8103325298	 0.0425106329	 0.124816
H	 0.5613112547	-0.6496562608	-2.0109602251	 0.11899
H	 0.8242353357	-2.8612541123	-0.8407951339	 0.271581
H	 0.2617322513	-2.8346589262	 2.8865668457	 0.1699
H	-0.7869355933	-3.7143554054	 1.7860183291	 0.164136
H	-0.4807086547	-0.2597844308	 2.1771674991	 0.092244
31.3969	98.2442	106.8862	195.6752	249.6504	306.3694	378.2577	382.2842	469.6078	487.5239	628.3068	638.632	668.9329	734.0685	757.4991	806.754	929.395	936.7761	988.3314	998.6383	1007.6645	1065.1235	1140.0497	1164.422	1217.6577	1276.3243	1308.1363	1329.8366	1418.5579	1421.9902	1456.9568	1478.4021	1483.8295	1504.1507	1539.9255	1635.3865	2360.516	3007.0702	3025.1838	3073.4028	3084.0455	3105.5156	3235.7352	3259.7944	3666.9657
CC1=CNC(CC#N)=C1	Cc1c[nH]c(CC#N)c1	
InChI=1S/C7H8N2/c1-6-4-7(2-3-8)9-5-6/h4-5,9H,2H2,1H3	InChI=1S/C7H8N2/c1-6-4-7(2-3-8)9-5-6/h4-5,9H,2H2,1H3
