17
gdb 15237	2.88451	1.61365	1.39076	3.0138	69.6	-0.2229	0.0245	0.2475	974.8973	0.142464	-360.020276	-360.011432	-360.010488	-360.053643	31.651	
C	 0.1110763589	 1.1672761757	-0.5091303789	-0.324655
N	-0.2600110414	 0.2412951956	 0.5561804245	-0.297963
C	-1.4682564958	-0.4843934424	 0.3363362816	 0.014038
C	-1.5908493062	-1.6724694673	-0.5821322666	-0.002602
N	-0.4807708806	-2.0992943761	-1.3700273494	-0.505219
C	-1.653540374	-1.8600573022	 0.9683296162	-0.263693
C	-0.5286944622	-2.4788109274	 1.5954335893	 0.285799
N	 0.4141237679	-2.9716038234	 2.0550253934	-0.351564
H	 1.0417395998	 1.6708697397	-0.2346045431	 0.127037
H	 0.2403203176	 0.6981919873	-1.4964679503	 0.119492
H	-0.6642039867	 1.9360652866	-0.6059546698	 0.125806
H	 0.5075578244	-0.3469210455	 0.8539245431	 0.239779
H	-2.3505536795	 0.1506280608	 0.3930078953	 0.110249
H	-2.5506720745	-1.8135302568	-1.0711908148	 0.110497
H	 0.3949289463	-1.7616823993	-0.9856328986	 0.235584
H	-0.4171949233	-3.1118573196	-1.4097098386	 0.245918
H	-2.6126828307	-2.0792185857	 1.4241106468	 0.131499
94.7982	113.9953	132.9563	180.9672	195.137	245.0303	290.3003	372.8086	416.8076	587.581	619.3257	641.1266	668.5658	734.2326	776.812	846.0676	900.0194	959.316	1000.5265	1059.7483	1106.9383	1124.4822	1154.5971	1172.1733	1208.1021	1258.2937	1293.8361	1345.6178	1374.2263	1425.6541	1461.6192	1485.9655	1508.8975	1528.3173	1656.1049	2336.3028	2987.4855	3060.8419	3112.1087	3119.3581	3148.2004	3174.2348	3505.9842	3565.516	3583.4989
CNC1C(N)C1C#N	CN[C@H]1[C@@H](N)[C@H]1C#N	
InChI=1S/C5H9N3/c1-8-5-3(2-6)4(5)7/h3-5,8H,7H2,1H3	InChI=1S/C5H9N3/c1-8-5-3(2-6)4(5)7/h3-5,8H,7H2,1H3/t3-,4+,5-/m1/s1
