19
gdb 121552	4.30598	0.48751	0.45265	0.8972	87.11	-0.2506	0.0399	0.2905	2384.0863	0.155528	-385.814482	-385.803526	-385.802582	-385.854421	37.079	
C	 0.6580386091	 1.1335679106	 0.3452868403	-0.229467
O	-0.0783932691	 0.0791323695	-0.226486957	-0.227179
C	 0.6690765935	-0.6724403184	-1.1540347811	-0.043057
C	-0.2415083446	-1.7815539198	-1.6918337947	-0.352918
C	 0.4318569042	-2.6267474711	-2.669488351	 0.039809
C	 1.0135525673	-3.3087525722	-3.4717895347	 0.102564
C	 1.7048924122	-4.1470462971	-4.4536101083	-0.491856
C	 2.8775282946	-4.8394396705	-3.9144442128	 0.318443
C	 3.8412825914	-5.4117807422	-3.4844857709	-0.446313
H	 1.5396498121	 0.7660505027	 0.8940055242	 0.105773
H	 1.0038111104	 1.8507456638	-0.4160543144	 0.105022
H	-0.0021112522	 1.6522216281	 1.0446341726	 0.128094
H	 1.0213805158	-0.0375905579	-1.9833414487	 0.0959
H	 1.5601305447	-1.1131945304	-0.6784214574	 0.09941
H	-0.5951594388	-2.382374233	-0.8453923297	 0.138884
H	-1.1305662234	-1.3170837569	-2.1351741463	 0.137404
H	 1.0038096723	-4.8893553665	-4.8600194284	 0.1608
H	 2.0122446415	-3.5335532037	-5.3119792457	 0.159128
H	 4.6921578391	-5.916632235	-3.0992540059	 0.199559
3.5162	56.6971	77.3793	100.2113	118.7903	218.8732	233.8924	260.3868	308.1262	324.1303	377.985	401.4568	495.3002	575.9747	621.4615	647.532	796.4131	801.09	934.8533	946.3755	995.0069	1053.5731	1087.3905	1155.276	1168.3115	1182.265	1227.3796	1231.0253	1232.8862	1300.1049	1314.8979	1336.219	1418.9037	1453.2972	1476.9587	1481.8032	1485.6946	1504.7864	1531.93	2246.808	2378.6213	2961.8741	2974.4614	2996.4696	3006.213	3014.231	3029.7553	3032.0034	3068.709	3114.3548	3507.3527
COCCC#CCC#C	COCCC#CCC#C	
InChI=1S/C8H10O/c1-3-4-5-6-7-8-9-2/h1H,4,7-8H2,2H3	InChI=1S/C8H10O/c1-3-4-5-6-7-8-9-2/h1H,4,7-8H2,2H3
