19
gdb 71127	2.83645	1.88474	1.6081	1.3255	72.96	-0.2178	0.0795	0.2973	919.7397	0.161216	-423.020164	-423.013047	-423.012103	-423.051228	29.384	
C	 0.00511734	 1.4884927333	 0.0893549942	-0.461548
C	 0.0026188269	-0.0226017231	-0.0337133884	 0.296686
C	 0.7834956738	-0.6063406833	-1.2386045567	-0.251826
C	 1.065976242	-2.0178422279	-0.7524229868	-0.161312
C	 0.949309794	-1.9141685622	 0.7612368374	 0.046079
O	 0.6694809277	-0.5822175054	 1.1169526643	-0.286649
C	-0.1266537611	-2.6103444146	-0.0251690585	 0.085468
O	-1.3923548983	-2.0295845477	-0.1839198705	-0.277873
C	-1.4147883827	-0.6098733679	-0.0297915482	-0.068888
H	 1.0314972991	 1.8546494491	 0.1765564395	 0.128662
H	-0.4561284734	 1.9487252746	-0.7894177143	 0.120513
H	-0.5486471109	 1.806396029	 0.9777021839	 0.12807
H	 0.1863983617	-0.5711142267	-2.154940534	 0.108929
H	 1.7140671388	-0.0543230898	-1.4057430918	 0.103564
H	 1.793645483	-2.6442615173	-1.2544067682	 0.087557
H	 1.5865474439	-2.4193567168	 1.4768849454	 0.101091
H	-0.2150150492	-3.6887922532	 0.0441163466	 0.103802
H	-1.8979763736	-0.3508044207	 0.9224689788	 0.100697
H	-2.0164287717	-0.1980651793	-0.8502661026	 0.096978
160.1766	199.5606	269.5943	294.2766	392.1957	425.6364	522.0585	539.5021	602.8458	699.4968	710.4396	760.0964	775.7321	836.7585	871.8802	912.0734	936.4675	958.3648	1001.5921	1022.5644	1027.7898	1065.2639	1076.5069	1084.5884	1124.302	1152.9672	1175.518	1196.2667	1221.0152	1263.4459	1278.1264	1302.625	1321.4476	1341.4691	1402.4473	1413.1904	1439.0109	1482.6939	1490.9032	1497.9662	1508.3974	3000.7831	3042.7764	3043.0354	3047.7016	3093.4494	3116.8326	3122.6989	3172.2642	3177.9042	3190.7309
CC12CC3C(O1)C3OC2	C[C@@]12C[C@H]3[C@@H](O1)[C@H]3OC2	
InChI=1S/C7H10O2/c1-7-2-4-5(8-3-7)6(4)9-7/h4-6H,2-3H2,1H3	InChI=1S/C7H10O2/c1-7-2-4-5(8-3-7)6(4)9-7/h4-6H,2-3H2,1H3/t4-,5+,6-,7+/m1/s1
