12
gdb 25440	3.20584	1.50347	1.02348	6.5124	64.16	-0.2539	-0.0833	0.1706	1038.8558	0.077678	-472.667035	-472.659842	-472.658898	-472.699602	25.433	
O	-0.2083207112	 0.0332268762	 0.0024256478	-0.231216
C	-0.0269922497	 1.2217215826	 0.0088733524	 0.102295
C	 1.2884916295	 1.9069707093	-0.0001491479	-0.038977
C	 1.2740469158	 3.255217987	 0.010385049	 0.040274
O	 2.3845012842	 4.0131529237	 0.0044674174	-0.176171
C	 3.5745132014	 3.3305425447	-0.0128464329	 0.130692
N	 3.734547495	 2.0782051885	-0.0242294852	-0.284936
C	 2.5963648928	 1.2077302195	-0.019919532	 0.3458
O	 2.7436028507	 0.0146909055	-0.0311288919	-0.287708
H	-0.8834819923	 1.9377584096	 0.0241354361	 0.070762
H	 0.3712160732	 3.8572988794	 0.0246588862	 0.163852
H	 4.4003237706	 4.035703864	-0.0156541491	 0.165332
50.0851	130.9887	198.0303	281.5161	409.8736	414.0583	485.0074	490.0741	554.1957	693.7798	725.8582	818.3801	916.0437	936.3915	945.8673	969.568	1029.684	1088.3079	1195.8673	1308.9017	1385.8465	1406.6877	1451.9503	1619.6247	1717.3624	1797.4486	1847.0984	2838.9211	3192.6902	3196.6982
O=CC1=COC=NC1=O	O=Cc1cocnc1=O	
InChI=1S/C5H3NO3/c7-1-4-2-9-3-6-5(4)8/h1-3H	InChI=1S/C5H3NO3/c7-1-4-2-9-3-6-5(4)8/h1-3H
