19
gdb 36499	3.8542	1.02046	0.85028	1.5861	82.75	-0.2468	0.0204	0.2673	1355.4919	0.158817	-385.862929	-385.854273	-385.853329	-385.896472	32.962	
C	-0.0279553738	-1.2401644837	-0.0699357802	-0.441097
C	-0.0129923921	-0.0418351251	 0.0167710956	 0.309968
C	 0.0087223661	 1.4130936678	 0.0971199208	-0.38097
C	 1.4216483017	 2.0088065331	 0.0376809249	 0.131344
C	 1.4104378481	 3.5364362292	-0.0986814963	-0.26161
C	 2.7858679067	 4.0897805389	 0.169691127	-0.072864
C	 3.7257483324	 3.358294623	 0.7626548213	-0.063992
C	 3.4547047343	 1.9602721487	 1.2447427117	-0.116146
O	 2.0797428987	 1.6277344151	 1.2355926351	-0.257038
H	-0.0420376777	-2.2995848529	-0.1357288433	 0.192245
H	-0.5857406108	 1.8377440258	-0.7215940058	 0.127083
H	-0.4578097943	 1.7443562848	 1.0332555147	 0.138241
H	 1.9543327827	 1.5801802045	-0.8270917413	 0.077664
H	 1.0787600008	 3.8142072509	-1.107439819	 0.104945
H	 0.6778017299	 3.9699167592	 0.5974792899	 0.11158
H	 2.9938960507	 5.1076671667	-0.1485277115	 0.090743
H	 4.7287246619	 3.7448567357	 0.9225413166	 0.091871
H	 4.0323945473	 1.2340439119	 0.6432141724	 0.100095
H	 3.7865258874	 1.8414688164	 2.2831407474	 0.117939
69.361	93.4797	165.3653	214.6105	292.2394	343.5117	380.5512	403.4442	458.7345	531.6804	567.0931	611.9479	638.9528	669.6653	804.577	828.2717	900.9307	927.7033	947.3049	987.0723	995.8281	1033.1	1053.3685	1082.4957	1096.3199	1126.6	1197.9484	1208.5981	1247.6733	1283.2621	1293.6291	1349.4704	1373.8728	1394.1855	1409.0578	1411.5049	1455.9446	1470.8138	1488.2998	1727.3616	2242.3952	2935.5041	2969.4115	3005.0511	3026.6238	3045.2798	3049.9378	3064.6975	3153.6424	3176.5661	3507.575
C#CCC1CC=CCO1	C#CC[C@H]1CC=CCO1	
InChI=1S/C8H10O/c1-2-5-8-6-3-4-7-9-8/h1,3-4,8H,5-7H2	InChI=1S/C8H10O/c1-2-5-8-6-3-4-7-9-8/h1,3-4,8H,5-7H2/t8-/m0/s1
