17
gdb 11436	3.51131	1.59851	1.23804	2.2841	65.28	-0.2601	0.0227	0.2828	986.0839	0.143592	-401.021183	-401.013547	-401.012603	-401.053497	28.416	
O	 0.1991018862	 1.1428226475	 0.4981756063	-0.419269
C	-0.005529356	-0.2165975429	 0.1845703675	-0.060539
C	-1.4548707681	-0.4918767117	-0.2093774616	 0.086415
C	-1.7952036548	-1.980714632	-0.3923262534	-0.254377
C	-2.3182309362	-2.3871581501	 0.993878089	-0.300131
C	-2.8252751141	-1.0870438582	 1.5789957363	 0.415317
N	-3.6005874633	-0.9705297624	 2.5667940297	-0.535084
O	-2.3105650654	-0.0335778161	 0.8665453045	-0.261343
H	-0.4808040352	 1.3787187827	 1.1404690166	 0.291501
H	 0.6510862239	-0.4542096365	-0.6596665727	 0.113725
H	 0.2786796494	-0.8762442056	 1.0224617527	 0.087306
H	-1.7087088326	 0.1173955897	-1.0813733893	 0.099756
H	-2.5757443496	-2.0972842187	-1.1487317504	 0.121414
H	-0.92805002	-2.5617014764	-0.7158385861	 0.115719
H	-3.1085125539	-3.1378122283	 0.9750996187	 0.141044
H	-1.5170530323	-2.7734698409	 1.6329426597	 0.137348
H	-3.7809530979	 0.0141287501	 2.7703037125	 0.221199
85.2982	118.2345	149.1097	230.8747	372.8196	422.692	442.7611	493.7638	525.5439	650.2026	710.5156	808.0948	826.1974	896.8585	908.6064	946.442	977.879	1021.0084	1057.2187	1084.0636	1098.5624	1105.1739	1179.0217	1221.6592	1232.6334	1273.036	1302.9135	1322.1656	1342.7278	1379.7739	1404.8988	1438.9927	1474.5348	1498.7408	1501.0733	1780.2554	2961.9917	3059.8123	3063.5727	3067.3811	3082.4393	3110.5105	3133.7772	3471.7024	3794.0237
OCC1CCC(=N)O1	OC[C@H]1CC[C]([NH])O1	
InChI=1S/C5H9NO2/c6-5-2-1-4(3-7)8-5/h4,6-7H,1-3H2	InChI=1S/C5H9NO2/c6-5-2-1-4(3-7)8-5/h4,6-7H,1-3H2/t4-/m1/s1
