17
gdb 19252	3.47882	1.87549	1.41873	4.0833	70.14	-0.2317	0.0299	0.2616	900.9617	0.142216	-363.851428	-363.843858	-363.842914	-363.88343	28.214	
C	-0.1145284975	 1.5405212829	 0.0840977698	-0.408053
C	 0.0029566301	 0.0323968154	-0.0626933485	 0.043071
C	 0.7516541035	-0.575526582	-1.2710867946	-0.099264
C	 2.2303125428	-0.2695050701	-1.2271160402	-0.292953
C	 1.6658103108	-1.3038463391	-0.2940565992	-0.015329
N	 0.9765007808	-0.6652760407	 0.8113355848	-0.045395
C	 1.2863668395	-0.5112963799	 2.1172341487	 0.131305
O	 0.6697604667	 0.177687329	 2.9067237821	-0.340507
H	 0.8438692932	 2.0375881683	-0.0904290278	 0.117516
H	-0.8389662351	 1.9255069822	-0.640918928	 0.117074
H	-0.4508400104	 1.7926407817	 1.0917375259	 0.159379
H	-0.9837529473	-0.4327160697	 0.0486567805	 0.1002
H	 0.2688290861	-0.9674413849	-2.1550041758	 0.10494
H	 2.7933452877	-0.6618650964	-2.0684428528	 0.122709
H	 2.6032295266	 0.6698887641	-0.8305640302	 0.122617
H	 1.9716602224	-2.3419270162	-0.251354601	 0.115004
H	 2.1687194502	-1.1231248746	 2.4005866962	 0.067685
67.0026	175.1155	214.3184	220.793	280.6614	334.7814	468.368	503.0919	566.4248	723.5249	758.3496	804.8015	812.2413	917.6554	926.7359	993.0716	1004.0833	1029.5157	1055.9303	1077.6791	1085.6254	1106.5998	1143.8337	1176.5716	1198.7974	1259.1935	1302.4478	1348.8167	1374.998	1404.3142	1407.9978	1451.2566	1475.4845	1486.1927	1502.2355	1783.9335	2911.7112	3035.1458	3044.8731	3113.6404	3122.548	3140.1351	3187.5121	3208.2695	3219.2097
CC1C2CC2N1C=O	C[C@H]1[C@H]2C[C@H]2N1C=O	
InChI=1S/C6H9NO/c1-4-5-2-6(5)7(4)3-8/h3-6H,2H2,1H3	InChI=1S/C6H9NO/c1-4-5-2-6(5)7(4)3-8/h3-6H,2H2,1H3/t4-,5+,6+/m0/s1
