15
gdb 129971	5.20896	1.0799	0.93266	2.1961	69.21	-0.2271	0.0154	0.2425	1211.1184	0.114283	-450.103571	-450.095927	-450.094982	-450.136087	28.514	
N	-0.0947393022	 1.3113881583	-0.3603668025	-0.596126
C	-0.0339671149	-0.0281013564	-0.1445954499	 0.512497
N	-1.0003484694	-0.8957751852	-0.2638287885	-0.393736
C	-0.3379427055	-2.067633955	 0.016605642	 0.408195
N	 0.943359831	-1.957723318	 0.282778427	-0.22053
O	 1.150955684	-0.5480148496	 0.1830779922	-0.213115
N	-1.0086054037	-3.2739568243	 0.085010084	-0.142426
C	-1.5401815648	-3.8765916032	-1.1346767679	-0.223027
C	-0.3731448036	-4.4807102116	-0.4255406647	-0.222063
H	 0.6338955611	 1.8668534388	 0.0590236658	 0.275724
H	-1.0204683522	 1.7075573193	-0.3297964829	 0.280236
H	-2.5290491312	-4.3130581637	-1.0373703719	 0.128555
H	-1.3496670266	-3.3618126017	-2.0722186503	 0.134026
H	 0.6075624427	-4.370734465	-0.8786761216	 0.1439
H	-0.5068368047	-5.3657083828	 0.1882881292	 0.127889
66.2513	141.0818	190.0692	273.2416	351.6745	392.4691	409.2833	486.6418	533.6358	582.0233	730.2634	759.7771	792.2613	820.566	898.1445	919.6208	937.4094	1022.8632	1044.3615	1049.02	1117.417	1133.1528	1136.6783	1175.772	1184.3509	1277.5676	1382.8435	1472.6582	1495.8944	1521.257	1585.4258	1607.9333	1690.9301	3119.1408	3124.75	3205.2457	3218.9806	3599.5059	3714.4607
NC1=NC(=NO1)N1CC1	Nc1nc(no1)N1CC1	
InChI=1S/C4H6N4O/c5-3-6-4(7-9-3)8-1-2-8/h1-2H2,(H2,5,6,7)	InChI=1S/C4H6N4O/c5-3-6-4(7-9-3)8-1-2-8/h1-2H2,(H2,5,6,7)
