18
gdb 48780	3.49018	1.38053	1.21273	2.4443	76.47	-0.2466	-0.0339	0.2127	1057.126	0.149329	-401.932545	-401.92524	-401.924295	-401.964114	29.211	
O	-0.0688134519	 0.1331878201	-0.5995354152	-0.282404
C	 0.0511115379	 1.0955336946	 0.1259774111	 0.056127
C	 1.2661470986	 1.9370357901	 0.1689836954	 0.258363
N	 2.2393605581	 1.7712635897	-0.9329173625	-0.364002
C	 2.6034879733	 1.2502356046	 0.3753341916	-0.057671
C	 3.481284913	 2.1593140648	 1.2305687244	-0.239447
C	 2.6698897528	 3.4327491646	 1.4945400811	-0.041766
C	 2.2455009919	 4.3118796684	 0.3451320897	-0.289499
C	 1.2907317892	 3.2711243997	 0.8757249744	-0.127095
H	-0.7614609701	 1.3976002606	 0.820840491	 0.082509
H	 1.8976634122	 1.0014196647	-1.5107346462	 0.248067
H	 2.6497021032	 0.1727050664	 0.5057438194	 0.107981
H	 3.6965971552	 1.655435123	 2.1787782844	 0.107725
H	 4.4400707378	 2.3587513346	 0.739912302	 0.11993
H	 2.7839698194	 3.9015237017	 2.4658848431	 0.087767
H	 2.0264327071	 5.3482422693	 0.5791148816	 0.107342
H	 2.6731932375	 4.1383501767	-0.6343786451	 0.143098
H	 0.3883289548	 3.5758121765	 1.3942962499	 0.082974
124.0111	202.1601	219.7217	271.9993	343.688	413.3295	441.6934	548.794	681.1442	695.2843	744.9684	793.3148	802.5209	837.303	860.5665	899.5538	937.6702	994.4399	1002.2194	1015.9894	1047.4319	1084.6962	1088.2035	1097.9501	1105.0127	1118.885	1185.2427	1202.9491	1218.1312	1246.2781	1288.4414	1326.822	1359.4077	1392.9002	1419.9875	1435.8304	1472.6542	1483.0329	1789.4539	2904.0834	3044.9411	3084.4317	3139.4575	3154.6319	3163.4403	3172.8187	3235.3384	3455.0142
O=CC12NC1CC1CC21	O=C[C@]12N[C@H]1C[C@H]1C[C@@H]21	
InChI=1S/C7H9NO/c9-3-7-5-1-4(5)2-6(7)8-7/h3-6,8H,1-2H2	InChI=1S/C7H9NO/c9-3-7-5-1-4(5)2-6(7)8-7/h3-6,8H,1-2H2/t4-,5-,6+,7-/m1/s1
