18
gdb 67327	3.15012	1.44271	1.15685	4.2929	78.41	-0.2291	0.0213	0.2504	1086.1797	0.147106	-401.884404	-401.876595	-401.875651	-401.916703	30.113	
C	-0.1124044885	 1.4688669852	 0.0529428886	-0.53175
C	-0.0508824707	-0.0265734443	 0.117475148	 0.353873
C	 0.6192632525	-1.0545781686	-0.8768889714	-0.096011
C	 1.9387087047	-1.0591015791	-0.0804047124	-0.280588
C	 0.8547389235	-0.9490749725	 1.0109780108	-0.096892
C	-0.1234729761	-1.8827199284	 0.2295031304	-0.007609
N	-1.237805949	-0.9123548129	 0.3599637331	-0.112991
C	-2.4262815177	-0.9557250439	-0.3131140309	 0.120439
O	-3.0021862809	-1.9705342934	-0.6459865991	-0.324087
H	 0.8950547198	 1.8795499242	-0.0678175914	 0.136327
H	-0.7178174861	 1.8090837902	-0.793087861	 0.135434
H	-0.5417724259	 1.8799190306	 0.9718146926	 0.139528
H	 0.4470262367	-1.1166696692	-1.9523527977	 0.089936
H	 2.5168276628	-1.9865137701	-0.100021459	 0.106367
H	 2.5978170153	-0.1963923451	-0.209872659	 0.102352
H	 0.9512302265	-0.8876842239	 2.0952038413	 0.086714
H	-0.2567241101	-2.9585066504	 0.3055634576	 0.112692
H	-2.8607897068	 0.0565271116	-0.4500295505	 0.066267
96.4419	156.8177	211.3898	245.7978	253.1108	322.8524	406.998	517.1708	617.9315	632.574	719.3748	757.0628	826.6991	846.9626	879.4226	884.635	919.1141	984.5564	1007.9843	1027.3762	1032.318	1062.0532	1084.7404	1125.9561	1133.9483	1151.8265	1175.1252	1184.6555	1222.1764	1240.438	1274.7218	1350.8498	1376.1805	1412.2823	1426.8326	1480.0188	1492.1412	1514.4219	1783.7454	2914.3091	3037.9187	3055.561	3107.6995	3110.3032	3111.2808	3112.9901	3117.8051	3165.687
CC12C3CC1C3N2C=O	C[C@@]12[C@H]3C[C@@H]1[C@H]3N2C=O	
InChI=1S/C7H9NO/c1-7-4-2-5(7)6(4)8(7)3-9/h3-6H,2H2,1H3	InChI=1S/C7H9NO/c1-7-4-2-5(7)6(4)8(7)3-9/h3-6H,2H2,1H3/t4-,5+,6-,7+
