20
gdb 96226	2.4983	1.54834	1.02096	4.2227	83.47	-0.2297	-0.0206	0.2091	1191.7436	0.172849	-403.190969	-403.182211	-403.181266	-403.224736	32.587	
C	-0.1136150912	 1.4860993161	-0.102814408	-0.353552
N	 0.0397049206	 0.0458240089	 0.0392200593	-0.100836
C	-1.1750105199	-0.7415901377	 0.2068506475	-0.171945
C	-1.3700928815	-1.812541067	-0.8768663764	-0.207803
C	-0.6616304586	-3.1252620832	-0.5416141136	-0.257651
C	 0.7522518335	-3.0198157148	-0.0551412529	-0.060462
C	 1.5138637975	-1.9510399965	 0.2004024566	-0.126202
C	 1.3067378858	-0.4806397587	 0.0408638152	 0.378735
O	 2.3037812426	 0.2254087964	-0.0652351608	-0.39908
H	 0.8777097077	 1.9204457649	-0.218334836	 0.17165
H	-0.7233642882	 1.7290042145	-0.9820192005	 0.117429
H	-0.598264091	 1.9175625585	 0.7819279184	 0.119353
H	-1.2004631497	-1.2079562959	 1.2020885524	 0.11388
H	-2.0063720273	-0.0337746812	 0.1741079219	 0.112883
H	-2.4394135966	-2.0143530896	-1.003625835	 0.101081
H	-1.007491344	-1.4100047943	-1.8290043818	 0.114955
H	-1.2336260846	-3.6617856721	 0.2311143958	 0.117131
H	-0.6814691184	-3.7936671477	-1.4134660097	 0.117427
H	 1.2222330875	-3.9878692107	 0.1171146876	 0.099407
H	 2.5367773659	-2.1274030198	 0.5196576301	 0.1136
72.798	91.143	133.0235	191.0684	259.287	332.3442	365.7365	395.6752	410.0087	511.3655	570.8717	626.4438	684.9641	791.0609	812.8895	843.8202	887.9906	918.2351	977.5785	1031.2197	1034.5892	1066.0546	1086.0396	1148.5156	1154.1456	1199.461	1254.9983	1263.8801	1287.2055	1312.9996	1364.8878	1385.816	1400.0869	1420.5417	1422.3277	1456.7379	1465.0842	1484.8267	1497.0215	1504.8168	1525.8194	1701.9758	1731.9147	2994.6526	3004.5243	3013.0476	3025.7327	3041.4362	3059.6687	3082.3312	3096.3481	3126.8069	3170.9984	3179.2972
CN1CCCC=CC1=O	CN1CCCC=CC1=O	
InChI=1S/C7H11NO/c1-8-6-4-2-3-5-7(8)9/h3,5H,2,4,6H2,1H3	InChI=1S/C7H11NO/c1-8-6-4-2-3-5-7(8)9/h3,5H,2,4,6H2,1H3
