20
gdb 90871	3.34405	1.5422	1.31389	0.429	77.88	-0.2342	0.0833	0.3175	1035.444	0.172934	-403.108223	-403.100865	-403.099921	-403.139673	30.2	
C	-0.8243528049	 1.3082167264	 0.1480835523	-0.399025
C	 0.0407363478	 0.0647939376	 0.0149974612	 0.150923
C	 0.7478352374	-0.0347110402	-1.3422091093	-0.189015
N	 1.59454976	-1.2387681211	-1.4128847595	-0.090112
C	 2.9966454247	-1.1908635084	-1.0235722434	-0.040124
C	 3.2718104373	-0.1156505576	 0.0320563369	-0.27774
C	 2.114579134	-0.728894395	 0.8986480352	 0.113107
O	 0.9708844091	 0.0764778307	 1.0986376868	-0.285708
C	 1.9696640626	-1.8527630521	-0.1474573637	-0.103922
H	-0.2203697144	 2.2123834792	 0.0234420659	 0.120039
H	-1.6175720579	 1.3091086556	-0.6058812098	 0.114221
H	-1.2866064639	 1.3418795111	 1.1381859983	 0.126865
H	-0.5942423048	-0.8319939141	 0.1111872992	 0.074879
H	-0.0080747843	-0.1034636255	-2.1322775658	 0.106498
H	 1.333969249	 0.8727506883	-1.5337402663	 0.102879
H	 3.7205623656	-1.6435296453	-1.6913712704	 0.094881
H	 4.2440313762	-0.2452634884	 0.5144464735	 0.104975
H	 3.1588923425	 0.9309175194	-0.2647141672	 0.10065
H	 2.4533937374	-1.0521273147	 1.8853216832	 0.086684
H	 1.7417574668	-2.8984805159	 0.0266533828	 0.089045
118.4273	216.4187	249.3623	298.8339	361.4902	435.4163	449.6911	485.2869	533.2473	690.6255	754.8769	772.7179	830.784	845.4996	877.3226	909.08	932.2042	937.1046	962.851	989.8128	1028.4859	1034.159	1078.0585	1098.7402	1135.7061	1150.4523	1162.3796	1167.7307	1197.523	1235.9044	1255.7673	1271.3617	1277.5908	1330.1528	1364.6556	1372.7618	1396.5652	1398.433	1412.2473	1473.5547	1484.274	1499.6759	1506.7423	2958.552	3024.2598	3041.6454	3055.9666	3064.9264	3084.0732	3110.2931	3114.6244	3121.0913	3167.3649	3182.3918
CC1CN2C3CC(O1)C23	C[C@H]1CN2[C@H]3C[C@@H](O1)[C@@H]23	
InChI=1S/C7H11NO/c1-4-3-8-5-2-6(9-4)7(5)8/h4-7H,2-3H2,1H3	InChI=1S/C7H11NO/c1-4-3-8-5-2-6(9-4)7(5)8/h4-7H,2-3H2,1H3/t4-,5-,6+,7-,8?/m0/s1
