21
gdb 72487	2.48074	1.84822	1.51249	1.8698	76.52	-0.2468	0.078	0.3248	995.5726	0.185122	-424.258519	-424.250922	-424.249978	-424.289948	31.534	
C	-0.0421189388	 1.4724809445	 0.0902612713	-0.451553
C	 0.0352248167	-0.0336634282	-0.0387204078	 0.457678
C	 0.6895053716	-0.5760858505	-1.3383379872	-0.274514
C	-0.0955551728	-1.8820885879	-1.6194030254	-0.234514
C	-1.0783882997	-1.9459789512	-0.4260890875	 0.084623
C	-0.4840170339	-2.6317878803	 0.8110202954	-0.21811
C	 0.8249755779	-1.9232683544	 1.1885998286	-0.08322
O	 0.7023181379	-0.5067004656	 1.1245898187	-0.287813
O	-1.2806301008	-0.5677249401	-0.0873665242	-0.274209
H	 0.9620769848	 1.9032482432	 0.0799111027	 0.123529
H	-0.6221097729	 1.889005663	-0.7362188967	 0.121161
H	-0.5254204009	 1.7340353986	 1.0341023454	 0.133216
H	 0.5552123429	 0.1496352005	-2.1431502903	 0.105523
H	 1.7626622898	-0.7295081666	-1.2044524858	 0.111239
H	-0.6494358308	-1.8145577657	-2.5584636793	 0.106814
H	 0.5470519822	-2.7650193703	-1.6771615	 0.100425
H	-2.0501438869	-2.369129696	-0.6903641002	 0.074781
H	-1.2070026163	-2.5463861463	 1.628365905	 0.111163
H	-0.2970054137	-3.6962677698	 0.6299108698	 0.094175
H	 1.1224709883	-2.1548942105	 2.2149917551	 0.109658
H	 1.6398386256	-2.2636826965	 0.5300033922	 0.089946
171.706	202.8588	272.5961	280.0182	318.3815	375.5097	436.5417	466.4489	513.8308	613.0666	628.1751	756.2738	803.5282	816.522	830.6713	860.5423	891.1853	926.3854	937.8186	963.5613	986.9584	995.8275	1052.4281	1086.1635	1116.0557	1131.4144	1171.4713	1201.9299	1215.3295	1237.1121	1253.6506	1281.3831	1297.8768	1335.9909	1346.7446	1362.4829	1375.992	1412.376	1415.8549	1471.2561	1479.0555	1483.8089	1491.0137	1500.4427	1521.2374	2976.5357	3041.0761	3056.7437	3060.2279	3073.978	3081.692	3085.2686	3093.3805	3101.5372	3122.9052	3135.7783	3140.7478
CC12CCC(CCO1)O2	C[C@@]12CC[C@@H](CCO1)O2	
InChI=1S/C7H12O2/c1-7-4-2-6(9-7)3-5-8-7/h6H,2-5H2,1H3	InChI=1S/C7H12O2/c1-7-4-2-6(9-7)3-5-8-7/h6H,2-5H2,1H3/t6-,7+/m0/s1
