18
gdb 12126	3.73026	1.70752	1.6749	1.0064	71.55	-0.2049	0.0815	0.2864	884.9915	0.152633	-347.731288	-347.723728	-347.722783	-347.762368	30.446	
C	-0.0249899223	 1.5178180024	 0.0661464976	-0.491007
C	 0.017092629	 0.0197399376	-0.0129569074	 0.367975
C	-0.8297888971	-0.8904996271	 0.8365627771	-0.356402
C	 0.6742611014	-0.982690684	 0.924097	-0.177603
C	 1.3390103919	-1.6765664232	-0.3042462447	 0.400664
O	 2.6787142516	-2.0209983416	-0.2901822926	-0.456374
C	 0.3693122682	-2.1906839022	-1.3311248794	-0.371663
C	 0.6682767101	-0.7034030571	-1.2356206319	-0.170168
H	 0.9449902325	 1.957804094	-0.1939911594	 0.120126
H	-0.7717058987	 1.9336351436	-0.6223060637	 0.117563
H	-0.2830760444	 1.8511398957	 1.0766420454	 0.115347
H	-1.2907175502	-0.3951357381	 1.6875412253	 0.1075
H	-1.4420887277	-1.6881699304	 0.4299929372	 0.108247
H	 1.2264846945	-0.7854492048	 1.8348808493	 0.088086
H	 2.7553562661	-2.9100599922	 0.0756340924	 0.283377
H	 0.8691792781	-2.659102637	-2.1744158453	 0.113806
H	-0.5984983393	-2.623315505	-1.1005848921	 0.107368
H	 1.0917520864	-0.1591424406	-2.0701467277	 0.093157
151.5948	212.2902	277.0773	280.065	311.7696	374.9382	412.7352	460.5842	480.7627	582.9029	624.0522	780.6498	809.7686	837.6654	850.67	909.2657	931.0008	948.2126	977.0646	1003.6739	1009.4677	1021.7207	1055.5095	1089.1399	1095.7726	1133.8724	1168.717	1192.9598	1245.9856	1291.3006	1300.394	1381.3579	1406.2312	1420.0125	1483.5174	1489.0101	1501.1892	1515.03	3015.4508	3071.6092	3094.8609	3114.6506	3127.5271	3185.5207	3192.8809	3195.8778	3205.6884	3776.1915
CC12CC1C1(O)CC21	C[C@]12C[C@H]1[C@@]1(O)C[C@@H]21	
InChI=1S/C7H10O/c1-6-2-4(6)7(8)3-5(6)7/h4-5,8H,2-3H2,1H3	InChI=1S/C7H10O/c1-6-2-4(6)7(8)3-5(6)7/h4-5,8H,2-3H2,1H3/t4-,5+,6+,7+/m1/s1
