19
gdb 126902	3.19946	1.0016	0.7808	4.1205	80.36	-0.1998	0.0013	0.201	1473.0462	0.158801	-419.201823	-419.192304	-419.19136	-419.237629	33.592	
C	-0.1313598146	 1.5221877403	 0.0150242088	-0.398902
C	-0.1785979127	 0.0062137632	 0.1708996404	-0.117634
N	 0.9349616155	-0.4569330756	 0.9979860132	-0.412432
C	 1.0090011761	-1.8199446886	 1.2925459638	 0.105108
C	 1.5005605469	-2.4334421156	 2.4126135236	 0.344448
C	 2.0636758792	-1.9249843463	 3.6909405979	-0.504096
O	 1.4506007522	-3.7776238117	 2.2469608977	-0.21143
N	 0.9061945462	-4.0744587759	 1.0124184347	-0.146677
C	 0.6508949786	-2.9159724997	 0.4536199296	-0.016335
H	 0.8203517989	 1.8374581021	-0.4221629494	 0.13245
H	-0.9436671885	 1.8678421055	-0.6299772174	 0.124692
H	-0.243110008	 2.0220211957	 0.9844140649	 0.115728
H	-1.1557350655	-0.3022528911	 0.5795314686	 0.095995
H	-0.0879640674	-0.463487912	-0.8153871022	 0.116128
H	 1.0460944902	 0.1159901054	 1.8253487055	 0.224966
H	 1.6935302836	-0.9164734125	 3.9015590209	 0.125679
H	 1.7722105015	-2.5734449945	 4.5221491103	 0.151665
H	 3.1592802308	-1.8790782298	 3.6717777619	 0.14742
H	 0.214013957	-2.8956968891	-0.5342548229	 0.123227
32.9273	74.6366	84.5901	134.0186	228.0652	253.5653	265.587	338.3619	354.6873	458.9257	618.6957	628.6602	656.7711	696.1982	791.6891	821.5394	886.8972	924.5233	940.9275	966.7205	1005.5918	1058.0761	1072.9365	1126.7256	1151.329	1204.4847	1238.5449	1262.7492	1298.077	1381.3447	1409.0655	1414.9641	1448.7241	1471.3858	1479.5327	1489.695	1495.8056	1500.7212	1522.117	1527.3754	1691.0194	2959.4841	3027.2778	3034.4201	3050.1848	3084.3585	3103.4392	3114.227	3124.4276	3247.7853	3551.7097
CCNC1=C(C)ON=C1	CCNc1c(C)onc1	
InChI=1S/C6H10N2O/c1-3-7-6-4-8-9-5(6)2/h4,7H,3H2,1-2H3	InChI=1S/C6H10N2O/c1-3-7-6-4-8-9-5(6)2/h4,7H,3H2,1-2H3
