18
gdb 84177	3.53807	1.18433	0.945	5.9426	86.19	-0.1968	-0.0242	0.1726	1239.5262	0.148045	-401.957315	-401.948982	-401.948038	-401.990571	30.932	
C	 0.0538828226	 1.4201091183	 0.0737972449	-0.336092
N	-0.0404234805	-0.0168945233	 0.0066612755	-0.002371
C	 0.047316937	-0.7815467863	-1.112421011	-0.100624
C	 0.0766520508	-2.1197588803	-0.8361452845	 0.146857
C	-0.002217625	-3.1777729633	-1.8052082889	 0.055559
O	-0.0498633188	-4.3681653548	-1.5454808363	-0.317271
C	 0.0992042154	-2.288048922	 0.6464840221	-0.159332
C	 1.2720117614	-1.6717392614	 1.3860915719	-0.308056
C	 0.020372777	-0.856443544	 1.1788241063	-0.01264
H	 1.0513663235	 1.7577871798	 0.388801196	 0.132867
H	-0.1644712324	 1.8475786527	-0.9078160669	 0.139376
H	-0.6777709657	 1.8130397531	 0.78903341	 0.136531
H	 0.0798289718	-0.3055870089	-2.0850931371	 0.135558
H	-0.023636157	-2.8239014132	-2.8634182429	 0.038775
H	-0.4315493119	-3.1171128218	 1.0973069956	 0.113806
H	 1.4484500938	-2.0236535419	 2.3961014949	 0.120447
H	 2.1632788738	-1.4139315348	 0.823894961	 0.115628
H	-0.5845002457	-0.532217808	 2.0195984396	 0.100981
74.0192	131.2355	162.04	167.1564	262.7656	313.7263	387.6716	430.7554	481.3274	598.7136	628.1017	721.5448	755.603	794.2093	872.6837	907.6063	931.1536	965.982	1024.3164	1049.4099	1062.8647	1078.7163	1090.7988	1097.7529	1151.1838	1182.4795	1196.3426	1269.0455	1307.3237	1355.448	1389.1198	1414.2971	1452.5046	1464.7955	1477.1948	1484.5296	1527.1758	1625.4088	1754.8974	2839.7187	3000.9019	3061.7994	3120.3344	3131.8739	3155.701	3193.511	3212.9416	3225.3689
CN1C=C(C=O)C2CC12	CN1C=C(C=O)[C@H]2C[C@@H]12	
InChI=1S/C7H9NO/c1-8-3-5(4-9)6-2-7(6)8/h3-4,6-7H,2H2,1H3	InChI=1S/C7H9NO/c1-8-3-5(4-9)6-2-7(6)8/h3-4,6-7H,2H2,1H3/t6-,7-/m1/s1
