18
gdb 95194	2.63609	1.706	1.16041	3.9731	71.75	-0.2569	-0.0072	0.2497	1050.9221	0.149575	-439.098171	-439.090513	-439.089569	-439.130165	30.126	
O	 0.3210761712	 1.2773737059	 0.4276517404	-0.440989
C	 0.093818219	-0.0648596916	 0.1117897399	 0.058379
C	-1.413545813	-0.4188289064	 0.084517866	-0.241001
C	-1.6047267757	-1.9266568215	-0.1378689015	-0.246349
C	-0.670139434	-2.4990958729	-1.1991844933	-0.007102
C	-0.637905028	-2.0472170077	-2.6289324751	-0.248736
N	 0.4339825082	-1.6868306764	-1.7049124799	-0.093038
C	 0.5882625904	-0.3680110169	-1.2961812618	 0.342125
O	 1.0102784029	 0.5141287085	-2.0149478127	-0.357012
H	 0.6984876067	 1.6644195872	-0.3797240979	 0.293468
H	 0.5997221757	-0.7191331563	 0.8384523596	 0.094262
H	-1.872098831	-0.10774604	 1.0268411489	 0.12112
H	-1.8905395875	 0.1714266759	-0.7074177033	 0.1125
H	-1.3882936525	-2.4491020518	 0.8011098012	 0.118088
H	-2.6463314225	-2.1592180056	-0.3851358579	 0.118113
H	-0.3824665199	-3.5347675266	-1.0287618242	 0.10708
H	-0.3749403952	-2.7501319056	-3.4139007539	 0.132912
H	-1.3052764349	-1.2458088182	-2.9357657845	 0.136179
99.8531	190.8223	220.0756	321.1898	333.3621	373.2298	420.2258	459.7038	471.1053	572.6553	652.4336	721.116	761.627	805.4362	873.2711	920.9453	949.4419	962.014	1001.2165	1050.6597	1096.4985	1101.9879	1130.8153	1150.9609	1163.4174	1175.6339	1189.0807	1248.6945	1284.6413	1322.3545	1362.7847	1365.3759	1383.7382	1415.3823	1458.5503	1486.6601	1502.1461	1517.9412	1787.1759	2989.9142	3037.1002	3040.2772	3074.2046	3098.8423	3112.9626	3124.5394	3202.1917	3671.6286
OC1CCC2CN2C1=O	O[C@H]1CC[C@H]2CN2C1=O	
InChI=1S/C6H9NO2/c8-5-2-1-4-3-7(4)6(5)9/h4-5,8H,1-3H2	InChI=1S/C6H9NO2/c8-5-2-1-4-3-7(4)6(5)9/h4-5,8H,1-3H2/t4-,5-,7?/m0/s1
