22
gdb 103923	3.17855	1.14555	1.05545	0.8313	82.06	-0.2289	0.0666	0.2955	1263.0862	0.192654	-404.307816	-404.298116	-404.297172	-404.341809	37.326	
C	 0.2255705365	 1.4977216239	 0.0813757834	-0.490997
C	-0.0327946864	 0.025654523	-0.0462364427	 0.373357
C	-0.9614640272	-0.7246108902	 0.8168854732	-0.293461
N	 0.4890430717	-0.9951246507	 0.9628709857	-0.211062
C	 0.9254350858	-1.8603386969	-0.2093221151	 0.340955
C	 2.4495735356	-1.9148814742	-0.1895524906	-0.450552
C	 0.330634395	-3.2705596343	-0.217276523	-0.12076
O	 0.6570012081	-3.9930652277	-1.3966574769	-0.4211
C	 0.3749169795	-0.8368627928	-1.2444832459	-0.365224
H	 1.2462458633	 1.7511301954	-0.2253711057	 0.119368
H	-0.4650874773	 2.0689025629	-0.5507555883	 0.12117
H	 0.0901226197	 1.8272800176	 1.1156545121	 0.128048
H	-1.3650044914	-0.2128711587	 1.685912334	 0.116469
H	-1.6277195519	-1.4723948367	 0.3960310436	 0.110343
H	 2.8046340381	-2.4839552825	 0.676658246	 0.119016
H	 2.839855449	-2.3738760694	-1.1047823204	 0.106194
H	 2.8686690562	-0.9076330811	-0.1175069162	 0.123404
H	 0.6561293174	-3.8011661519	 0.6914883537	 0.094836
H	-0.7610612277	-3.2359313782	-0.1974910707	 0.104947
H	 1.5950791652	-4.2026968637	-1.3672501411	 0.286679
H	-0.4363717113	-1.1725276946	-1.8963092869	 0.106132
H	 1.1577672321	-0.3929823493	-1.8634611282	 0.102236
72.1815	138.6378	172.9105	190.9147	240.6867	291.7544	313.2593	319.8523	349.2622	374.9515	430.94	454.845	505.769	617.7351	676.5252	763.9803	824.5628	848.4393	916.6139	933.5776	945.2061	978.0712	984.2116	1019.2629	1051.8932	1065.0699	1097.3323	1109.0604	1133.3054	1141.0235	1165.9445	1217.5273	1281.992	1302.534	1315.476	1374.3107	1380.0618	1406.8355	1420.7084	1426.7772	1481.3726	1486.2138	1490.8135	1492.172	1494.1251	1501.5548	1518.8013	2984.5096	3025.3139	3028.5047	3058.6507	3085.7673	3091.6809	3097.3979	3109.2231	3109.87	3114.0744	3115.1484	3194.978	3831.2457
CC12CN1C(C)(CO)C2	C[C@]12CN1[C@@](C)(CO)C2	
InChI=1S/C7H13NO/c1-6-3-7(2,5-9)8(6)4-6/h9H,3-5H2,1-2H3	InChI=1S/C7H13NO/c1-6-3-7(2,5-9)8(6)4-6/h9H,3-5H2,1-2H3/t6-,7+,8?/m0/s1
