18
gdb 33897	3.96059	1.27667	1.16323	1.1962	84.01	-0.2192	0.027	0.2462	1099.7164	0.148105	-364.711372	-364.703802	-364.702858	-364.743114	30.74	
C	 0.0433137935	-1.2130166438	-0.106558635	-0.383526
C	 0.0498739886	-0.0123857583	-0.0107149525	 0.110436
C	 0.0365235947	 1.3998858564	 0.1283956203	 0.238263
N	 0.2178347586	 2.3005203485	-1.049611002	-0.366104
C	 1.1593104953	 2.4057125204	 0.0769196715	-0.124774
C	 0.4947662427	 3.2602210532	 1.1776058527	-0.022734
C	-0.5027133931	 4.3710509722	 0.7314626039	-0.226432
C	-1.6740581278	 3.3371252395	 0.7760671215	-0.229242
C	-0.6782138076	 2.2312730211	 1.2306008693	-0.084349
H	 0.0409001016	-2.2712184258	-0.1921949218	 0.184985
H	 0.6675704561	 1.7434660198	-1.7753482449	 0.238122
H	 2.2187000566	 2.2356418182	-0.0764046966	 0.101611
H	 1.1246936235	 3.4424013201	 2.0479292064	 0.071536
H	-0.5993649382	 5.1751749707	 1.4648311696	 0.09396
H	-0.3023203135	 4.8036287134	-0.2497346973	 0.112582
H	-2.4322968993	 3.5625650358	 1.5297298003	 0.093871
H	-2.1639262791	 3.1499527736	-0.1802818788	 0.115617
H	-0.8958691627	 1.6633989749	 2.1341338432	 0.076177
120.7997	143.2122	209.4295	307.4445	362.2115	462.3949	514.5444	559.715	572.7525	613.3662	662.4457	684.568	725.2233	800.462	810.691	849.9682	874.5683	889.674	941.8007	954.7446	980.4508	1006.2937	1044.0289	1049.5368	1107.287	1123.352	1172.4869	1199.1812	1230.4243	1237.5597	1244.8695	1267.1586	1276.1547	1298.5091	1351.3505	1395.464	1459.6802	1479.2921	2227.5966	3065.4876	3072.2058	3110.3781	3121.8548	3124.4903	3138.5212	3181.6065	3482.3881	3502.8997
C#CC12NC1C1CCC21	C#C[C@]12N[C@H]1[C@H]1CC[C@@H]21	
InChI=1S/C8H9N/c1-2-8-6-4-3-5(6)7(8)9-8/h1,5-7,9H,3-4H2	InChI=1S/C8H9N/c1-2-8-6-4-3-5(6)7(8)9-8/h1,5-7,9H,3-4H2/t5-,6+,7-,8+/m0/s1
