18
gdb 37788	2.49635	2.22342	1.70771	2.2236	74.08	-0.2339	0.0242	0.2581	869.091	0.152418	-401.954968	-401.948634	-401.94769	-401.985409	26.507	
C	-0.0570686219	 1.5182170775	 0.0892886832	-0.231969
C	 1.3712042319	 2.018197622	-0.0779176475	-0.096242
C	 2.3079637626	 0.8422761753	 0.2237710283	-0.096241
C	 1.4371006267	-0.3574229528	 0.5704964422	-0.231969
C	 0.0471491749	-0.0220780261	-0.0222946337	-0.012279
N	-0.0935843521	-0.4880620767	-1.4016505944	-0.261208
C	 0.6860883078	-0.1007666865	-2.3131319775	 0.125773
O	 1.7480702523	 0.7446582573	-2.3152215718	-0.230453
C	 2.2181574687	 1.4156563263	-1.1593934794	 0.117837
H	-0.4252101098	 1.8068494438	 1.0813358226	 0.10111
H	-0.7539582679	 1.9208773449	-0.6511410469	 0.113857
H	 1.604248994	 3.0297783775	 0.2388923636	 0.086609
H	 3.238723281	 0.9780096061	 0.7652849608	 0.086609
H	 1.8156378464	-1.3047548707	 0.1764178683	 0.113857
H	 1.3757116881	-0.4538495743	 1.6613346956	 0.101111
H	-0.7465655518	-0.507395333	 0.550568252	 0.081793
H	 0.5538728617	-0.4672365332	-3.3305550224	 0.121484
H	 3.0663840975	 2.0089176227	-1.4807341129	 0.110322
150.53	269.7144	310.568	408.3774	474.9207	537.514	590.7763	702.6464	703.6069	768.5949	791.2207	803.4703	859.0323	893.9182	894.8216	943.7779	967.7291	994.9029	1012.2201	1054.9189	1060.8425	1103.5145	1110.1595	1114.8488	1138.8644	1187.6953	1220.3755	1247.3701	1260.8745	1319.2637	1326.4872	1362.2608	1368.9627	1390.8668	1421.7849	1443.5097	1486.1032	1500.904	1742.8193	3031.917	3034.2913	3074.1991	3089.4838	3091.1686	3148.1753	3152.597	3158.8065	3182.4872
C1C2C3CC1N=COC23	C1[C@H]2[C@H]3C[C@@H]1N=CO[C@@H]23	
InChI=1S/C7H9NO/c1-4-2-6-5(1)7(6)9-3-8-4/h3-7H,1-2H2	InChI=1S/C7H9NO/c1-4-2-6-5(1)7(6)9-3-8-4/h3-7H,1-2H2/t4-,5+,6-,7+
