19
gdb 105697	2.62427	0.94206	0.77665	3.5034	72.74	-0.2538	-0.0271	0.2267	1483.0481	0.155428	-460.1334	-460.123286	-460.122342	-460.169976	35.357	
O	-0.0907270748	 1.4780122846	-0.2806643622	-0.413514
C	-0.0316616159	 0.0820232704	-0.0603001531	-0.123364
C	-1.4030038353	-0.5565391821	 0.0376034076	 0.400789
C	-2.0363747884	-1.1612923663	-1.1813608446	-0.323694
C	-1.5232196106	-2.0564225858	-0.0700456924	-0.325466
O	-2.320675665	 0.1055705058	 0.8642874743	-0.287993
C	-1.9376544747	 0.221462383	 2.2175932382	-0.1719
C	-3.1388047774	 0.7302308241	 2.994932705	 0.139581
O	-3.1381183668	 0.9016766846	 4.1844853676	-0.23871
H	-0.7235001361	 1.6376395324	-0.989102528	 0.287513
H	 0.5396047904	-0.4409317685	-0.8439634846	 0.091112
H	 0.5245017514	-0.0451450274	 0.8754715779	 0.113962
H	-3.1105069957	-1.0510514947	-1.2725183291	 0.129634
H	-1.4898274288	-1.1345839898	-2.1180404213	 0.116828
H	-0.6277964994	-2.6433481656	-0.2455048765	 0.118899
H	-2.2646213248	-2.5321858014	 0.5614871093	 0.124259
H	-1.6234853184	-0.7443569335	 2.6431153123	 0.123112
H	-1.1095247786	 0.9331223581	 2.3499270726	 0.144116
H	-4.0283551512	 0.9332184023	 2.3583815468	 0.094837
42.8899	56.5617	81.9608	128.107	146.9913	211.5839	272.8347	332.4668	350.8023	361.839	441.2299	534.8185	570.1009	744.7346	762.3298	781.1822	891.6298	924.0964	938.5407	980.3188	1024.2274	1051.515	1065.799	1083.5242	1091.2987	1111.7183	1126.4673	1190.0165	1211.0087	1237.8652	1300.5489	1322.0316	1353.3684	1383.186	1409.4317	1435.3537	1452.3652	1475.9582	1495.7329	1511.794	1845.4031	2896.5706	2979.1744	2987.739	3028.5004	3061.4726	3134.8916	3138.2121	3220.5634	3234.268	3809.9599
OCC1(CC1)OCC=O	OCC1(CC1)OCC=O	
InChI=1S/C6H10O3/c7-3-4-9-6(5-8)1-2-6/h3,8H,1-2,4-5H2	InChI=1S/C6H10O3/c7-3-4-9-6(5-8)1-2-6/h3,8H,1-2,4-5H2
