19
gdb 81179	2.94618	1.19614	1.0083	2.4028	78.67	-0.2537	0.0166	0.2703	1235.4921	0.159124	-419.126698	-419.118028	-419.117084	-419.161045	32.082	
C	-0.1829563187	 1.5671865536	-0.208514369	-0.449877
C	 0.007016943	 0.0756651746	-0.025772789	 0.034213
N	 1.2220846837	-0.6102056304	-0.6991176401	-0.152447
C	 2.0708176353	-0.082656698	 0.4690619859	-0.245527
C	 0.7767975149	-0.5801203368	 1.1542596397	 0.354011
C	 0.9087103586	-1.7949110774	 0.2363324085	-0.218162
O	 0.4273288903	-0.6552510665	 2.5098362227	-0.231004
C	 0.7029481868	 0.4151385449	 3.2870900617	 0.105699
N	 0.3050117997	 0.441530652	 4.4836324529	-0.440361
H	 0.6766142577	 2.170449725	 0.092039417	 0.119591
H	-0.3930978612	 1.7860585515	-1.2603665991	 0.139438
H	-1.0459451379	 1.8989432775	 0.3782464068	 0.133363
H	-0.9157711102	-0.4476389359	-0.296567624	 0.083907
H	 2.9818898934	-0.6614647821	 0.6354848714	 0.114335
H	 2.2867892535	 0.9834838104	 0.4173799357	 0.109296
H	 0.001013483	-2.3385526564	-0.0336298365	 0.113168
H	 1.7588440887	-2.4626622841	 0.3879345095	 0.111007
H	 1.2878468735	 1.1896304191	 2.7752874285	 0.089255
H	 0.6123073659	 1.302621309	 4.9316745272	 0.230095
36.4988	89.4156	147.0768	162.0005	236.6647	346.0061	399.0842	408.3599	455.3791	584.1847	614.2446	717.4149	757.5574	810.3504	824.4457	832.6685	895.1746	971.1403	992.6207	1022.6771	1046.1335	1052.7693	1074.4669	1108.2299	1132.5564	1168.456	1173.5493	1179.6104	1192.8744	1206.9024	1239.8302	1286.8479	1292.2312	1406.9033	1420.0624	1432.8638	1490.364	1493.0754	1520.2008	1556.7536	1744.918	3039.9975	3042.757	3054.8419	3069.298	3081.5965	3105.4117	3122.0933	3141.2382	3153.4416	3514.2002
CC1N2CC1(C2)OC=N	C[C@H]1N2C[C@@]1(C2)O[CH][NH]	
InChI=1S/C6H10N2O/c1-5-6(9-4-7)2-8(5)3-6/h4-5,7H,2-3H2,1H3	InChI=1S/C6H10N2O/c1-5-6(9-4-7)2-8(5)3-6/h4-5,7H,2-3H2,1H3/t5-/m1/s1
