15
gdb 48515	3.42461	1.69157	1.47356	3.5375	68.1	-0.2414	-0.043	0.1984	889.9914	0.113747	-416.70718	-416.700644	-416.6997	-416.738577	25.325	
O	-0.1316762499	 0.0324294731	 0.2068896466	-0.239287
C	 0.0083863341	 1.1712167065	-0.1624475663	 0.020369
C	 1.2874907398	 1.9233196504	-0.0901012356	 0.322997
C	 1.7955228903	 2.786153908	 1.127587112	-0.099874
N	 2.7517776191	 1.7160079489	 1.4683987569	-0.296098
C	 2.7380128977	 1.3755171583	 0.0293385874	-0.103665
C	 3.0744061162	 2.6455114865	-0.8119993956	-0.054328
C	 2.3800739781	 3.6820039051	-0.0014622727	-0.054252
N	 1.6463597693	 3.0013996201	-1.1190191276	-0.212095
H	-0.8329665133	 1.7602106172	-0.5912462072	 0.087646
H	 1.1772551812	 3.2129356992	 1.9147582354	 0.097393
H	 3.6493294485	 2.0410264453	 1.8285947674	 0.215884
H	 3.0750239751	 0.3891444286	-0.2800736464	 0.10209
H	 3.8698797218	 2.8303789631	-1.5227480912	 0.107279
H	 2.5927295419	 4.7436540398	-0.0167194331	 0.10594
69.7535	155.357	225.0816	433.5352	490.4638	565.3042	696.7202	746.6197	766.1558	816.836	824.3166	828.5496	851.3889	882.4256	918.1303	953.3046	983.5585	1009.9325	1032.0193	1047.5028	1072.4054	1090.3123	1125.0547	1130.9096	1197.5159	1213.3727	1258.458	1272.0447	1315.2947	1339.8712	1355.4629	1415.9947	1815.6193	2886.135	3142.9854	3154.4677	3190.9399	3202.7994	3452.4969
O=CC12C3NC1C1C3N21	O=C[C@@]12[C@H]3N[C@@H]1[C@@H]1[C@H]3N21	
InChI=1S/C6H6N2O/c9-1-6-4-2-3(8(2)6)5(6)7-4/h1-5,7H	InChI=1S/C6H6N2O/c9-1-6-4-2-3(8(2)6)5(6)7-4/h1-5,7H/t2-,3+,4+,5-,6-,8?
