17
gdb 7646	4.69376	1.25465	1.06868	3.6031	66.69	-0.2341	0.0327	0.2668	1100.3476	0.140673	-401.011676	-401.002799	-401.001854	-401.04636	30.461	
C	-0.0392393235	 1.5097652532	 0.2726435328	-0.488508
C	 0.061327952	-0.0050522037	 0.1843773172	 0.367082
O	 1.1079054936	-0.619652868	 0.2974082735	-0.367531
N	-1.1192821614	-0.648780629	-0.0243789359	-0.070619
C	-2.4642079527	-0.2203257123	-0.4157039932	-0.1901
C	-2.8279438019	-1.7119880812	-0.6279936645	 0.105126
O	-3.2879754744	-1.9459989597	-1.9341975551	-0.424744
C	-1.3356895564	-2.0625033358	-0.3217432542	-0.195792
H	 0.930673483	 1.9049106272	 0.5731289391	 0.147184
H	-0.3120590328	 1.9356430636	-0.6993868103	 0.137999
H	-0.8023128458	 1.8208099793	 0.9931573113	 0.131886
H	-3.0243369133	 0.3125858114	 0.3598535861	 0.114229
H	-2.5058920548	 0.3470303899	-1.3529524919	 0.125008
H	-3.5243344944	-2.1004886954	 0.124674498	 0.08231
H	-3.4544790094	-2.8886986037	-2.0357822856	 0.290139
H	-0.7833590146	-2.4146016195	-1.2003263256	 0.120022
H	-1.1468638733	-2.7346064765	 0.5211747084	 0.116307
45.1725	63.4184	99.3257	136.8633	176.1458	280.5632	359.1312	389.3583	453.5925	553.9465	592.5588	635.6664	790.2622	875.4877	922.0866	966.7642	980.9847	1043.1719	1050.0069	1117.0309	1133.6556	1155.1574	1191.0919	1200.7592	1240.9103	1287.5483	1314.7943	1321.6915	1378.2162	1425.8774	1453.0069	1473.3014	1481.8766	1495.6493	1516.5296	1769.2071	3025.2124	3028.4999	3037.6499	3040.5986	3077.0275	3087.9427	3102.0293	3161.0675	3817.3484
CC(=O)N1CC(O)C1	CC(=O)N1CC(O)C1	
InChI=1S/C5H9NO2/c1-4(7)6-2-5(8)3-6/h5,8H,2-3H2,1H3	InChI=1S/C5H9NO2/c1-4(7)6-2-5(8)3-6/h5,8H,2-3H2,1H3
