17
gdb 41000	4.09108	1.54407	1.46536	0.5775	72.18	-0.2397	0.0578	0.2975	919.8729	0.137523	-421.691187	-421.68503	-421.684086	-421.721407	26.008	
C	 0.0550114899	 1.4996538644	 0.1919718544	-0.203736
O	 1.5007657467	 1.4333571813	-0.0711660205	-0.308156
C	 1.2802749684	 0.2299164468	-0.9011790187	 0.098855
C	 1.373699522	-1.2573971239	-0.5215628654	-0.150459
C	 0.7328794589	-0.9496778016	 0.8501872051	-0.067757
C	-0.2382129078	-2.0771987961	 1.172978608	-0.112418
O	-0.8081253481	-2.3353489193	-0.1272747211	-0.259763
C	-0.2015096439	-1.3644345327	-0.9226771065	 0.01212
C	-0.0142363168	 0.0030077144	-0.1697162128	 0.200811
H	-0.1624285174	 1.7822526847	 1.2261861348	 0.11527
H	-0.4393282388	 2.1838127241	-0.5083662477	 0.111088
H	 1.3065325932	 0.4995398438	-1.9608077302	 0.078297
H	 2.1284387053	-2.0161799228	-0.747771902	 0.074714
H	 1.3308597515	-0.5124989884	 1.6456948341	 0.092686
H	 0.2432491249	-2.9877218112	 1.5479213948	 0.109523
H	-1.029333607	-1.7781482176	 1.8719369084	 0.106934
H	-0.535728971	-1.4227687759	-1.9571581446	 0.101991
243.91	261.7957	291.7289	353.427	506.9838	570.7876	628.2662	706.0123	726.2929	785.1198	834.025	874.7143	891.0582	922.8229	949.4805	958.9288	970.7332	991.806	995.5498	1037.9609	1057.8225	1097.3699	1109.9645	1144.3123	1151.5825	1155.1028	1181.2274	1195.3694	1239.6249	1246.1043	1276.7105	1289.2768	1319.9897	1338.994	1393.6904	1503.1258	1516.9432	3022.8169	3024.5559	3060.7227	3065.5115	3072.1897	3094.8624	3148.6808	3157.7879
C1OC2C3C4COC3C124	C1O[C@H]2[C@H]3[C@@H]4CO[C@H]3[C@]124	
InChI=1S/C7H8O2/c1-3-4-5(8-1)7(3)2-9-6(4)7/h3-6H,1-2H2	InChI=1S/C7H8O2/c1-3-4-5(8-1)7(3)2-9-6(4)7/h3-6H,1-2H2/t3-,4-,5+,6-,7+/m0/s1
