20
gdb 122050	3.33094	0.68782	0.62135	6.0184	78.64	-0.2508	-0.0353	0.2155	1839.0338	0.168405	-440.331415	-440.320868	-440.319924	-440.368889	35.783	
C	 0.0244710055	 1.5630438755	 0.0103455875	-0.382134
C	-0.0139844863	 0.032703635	 0.0023259866	-0.166151
C	-1.4396332562	-0.5285004731	 0.0129942853	-0.163457
C	-1.4706770087	-2.0598691967	 0.0049125005	-0.216669
N	-2.8289462196	-2.6161546046	 0.014954275	-0.081806
C	-3.4603880306	-2.8464119325	-1.2147620094	 0.164793
O	-4.5770876113	-3.247756351	-1.3837680305	-0.261748
C	-3.436669666	-2.859727306	 1.2540203061	 0.164777
O	-4.5502814866	-3.2620814697	 1.4401349707	-0.261736
H	 1.0538342758	 1.9332976496	 0.0024496381	 0.119093
H	-0.4856897029	 1.9767513748	-0.8662453314	 0.120555
H	-0.468647778	 1.9670611535	 0.9010942442	 0.120555
H	 0.5174702967	-0.3432901762	-0.8819845772	 0.101573
H	 0.534381972	-0.3529070466	 0.8720498422	 0.101572
H	-1.9783996161	-0.164806647	 0.8977504394	 0.109706
H	-1.9953159842	-0.1552022717	-0.8571785255	 0.109707
H	-0.9519906745	-2.4460862012	-0.8785978667	 0.127463
H	-0.9350899427	-2.4556810467	 0.8739760863	 0.127471
H	-2.7687182176	-2.6112855683	-2.0494001777	 0.083218
H	-2.7294288688	-2.632528827	 2.0777339064	 0.083219
26.2113	74.9813	83.6506	104.2227	146.2568	207.8353	224.6826	248.9511	271.3743	348.2665	396.3387	441.3968	529.4144	723.7466	731.7546	786.9995	912.5884	936.8972	964.2527	1016.3961	1017.4348	1039.0329	1064.0744	1120.1355	1130.7167	1200.2086	1232.3311	1292.7953	1304.214	1329.3291	1380.5783	1383.9861	1403.8459	1416.1549	1447.1999	1459.0462	1483.4965	1492.1064	1500.9732	1504.2376	1512.1956	1797.9214	1877.8064	2914.1319	2925.301	3012.3766	3020.944	3033.9491	3037.8997	3049.136	3059.8076	3092.0614	3101.0689	3108.4649
CCCCN(C=O)C=O	CCCCN(C=O)C=O	
InChI=1S/C6H11NO2/c1-2-3-4-7(5-8)6-9/h5-6H,2-4H2,1H3	InChI=1S/C6H11NO2/c1-2-3-4-7(5-8)6-9/h5-6H,2-4H2,1H3
