16
gdb 12649	3.30981	1.98846	1.29823	5.5077	67.67	-0.2377	-0.0517	0.186	923.2727	0.131472	-379.954631	-379.94692	-379.945976	-379.986765	28.407	
C	-0.2747700055	 1.5362686244	 0.0138824325	-0.403911
C	 0.1205950534	 0.0636047555	-0.0153600635	-0.088087
C	 0.9608163893	-0.399125438	-1.2208556354	-0.192462
N	 1.7827775143	-1.4745360648	-0.6683050663	-0.336593
C	 1.9623807076	-1.4096957212	 0.6961922217	 0.272576
N	 2.7447254678	-2.0398552499	 1.4794036889	-0.516518
C	 0.9613525833	-0.3705261575	 1.1888630215	 0.366986
O	 0.8624115764	 0.040343635	 2.312183294	-0.292563
H	 0.6058011573	 2.1812134655	-0.0714513234	 0.1253
H	-0.9584301185	 1.7821553483	-0.8039337065	 0.11776
H	-0.7657777747	 1.7677569771	 0.9622040279	 0.146994
H	-0.7844421569	-0.5593965899	 0.029364684	 0.121354
H	 0.3467183463	-0.7663579517	-2.0486085457	 0.117501
H	 1.5743664331	 0.4312756096	-1.6008848488	 0.111638
H	 2.4561455695	-1.9504265928	-1.2478147013	 0.24509
H	 3.3525739973	-2.6841217496	 0.9674106503	 0.204935
72.6484	149.9618	195.8124	233.8481	327.3466	331.5597	446.4604	464.9796	546.1933	569.1853	678.9737	722.1619	790.5433	861.1314	901.2108	948.6413	994.5679	1042.2753	1086.768	1122.7234	1152.571	1160.7896	1210.9906	1276.5585	1299.6009	1347.4239	1381.3676	1407.6397	1440.2418	1495.2481	1497.8315	1531.6038	1739.6987	1861.5884	2990.7086	3012.1551	3042.334	3070.7402	3109.6063	3128.2292	3436.9522	3628.6828
CC1CNC(=N)C1=O	C[C@H]1CN[C]([NH])C1=O	
InChI=1S/C5H8N2O/c1-3-2-7-5(6)4(3)8/h3H,2H2,1H3,(H2,6,7)	InChI=1S/C5H8N2O/c1-3-2-7-5(6)4(3)8/h3H,2H2,1H3,(H2,6,7)/t3-/m0/s1
