21
gdb 36848	4.24116	0.94407	0.89102	1.4412	82.9	-0.2288	0.0785	0.3073	1396.5169	0.182655	-387.033135	-387.024639	-387.023695	-387.066971	32.73	
C	-0.0485239573	 1.5189342327	-0.2934262517	-0.344036
C	-0.0720826856	 0.0094823973	-0.1327982968	 0.048215
C	-0.3096128953	-0.616233697	 1.2172933811	-0.251651
C	-1.3669609959	-0.7087022067	 0.1429039971	-0.283663
C	 1.3160568036	 2.0923590465	-0.0597026512	 0.507309
C	 1.9301754266	 2.4981766726	 1.2447908403	-0.323555
C	 1.8841479465	 3.4888078068	 0.0940943855	-0.204364
C	 2.8922594183	 3.0554481678	-0.9604294312	-0.083444
O	 2.3528888165	 1.7065302199	-0.9813314157	-0.328215
H	-0.3801324574	 1.7883288869	-1.3046585551	 0.105143
H	-0.7523552909	 1.9799527332	 0.4102661499	 0.095981
H	 0.6336284916	-0.5053453803	-0.7781107605	 0.101774
H	 0.2424131789	-1.5123193978	 1.4781296863	 0.111318
H	-0.499654004	 0.0446719457	 2.0569857103	 0.106024
H	-2.2641345146	-0.1093304542	 0.2631316333	 0.106583
H	-1.5381093708	-1.6678840023	-0.333223696	 0.110664
H	 1.2310781576	 2.7110314405	 2.0477341166	 0.110286
H	 2.8740773131	 2.0601621454	 1.5591513473	 0.110958
H	 1.3946458873	 4.4515255498	 0.1566435572	 0.097122
H	 2.75245837	 3.5403852696	-1.9335486842	 0.106007
H	 3.9550347818	 3.0744512335	-0.6889364226	 0.101544
59.8519	73.8361	122.1226	228.5799	309.5876	347.7563	366.618	430.9624	451.8042	710.4334	745.5086	770.921	798.8293	832.3326	853.2202	884.3557	891.6753	949.6693	962.3583	968.4855	983.2304	992.9272	1020.2276	1031.5581	1054.6031	1071.7846	1077.8958	1087.9176	1134.5342	1144.8754	1170.6683	1198.5841	1204.3034	1229.4726	1267.6433	1272.8694	1333.9595	1345.5948	1395.134	1422.4311	1466.5283	1475.3807	1489.0885	1508.8946	1521.7343	3017.5409	3018.7897	3062.4795	3065.2473	3111.2314	3126.6289	3132.3035	3154.2084	3196.7496	3204.1592	3206.1644	3219.8299
C(C1CC1)C12CC1CO2	C(C1CC1)[C@]12C[C@H]1CO2	
InChI=1S/C8H12O/c1-2-6(1)3-8-4-7(8)5-9-8/h6-7H,1-5H2	InChI=1S/C8H12O/c1-2-6(1)3-8-4-7(8)5-9-8/h6-7H,1-5H2/t7-,8-/m0/s1
