14
gdb 5682	5.28887	2.17579	1.55636	3.7663	69.24	-0.2162	-0.0142	0.202	764.161	0.111178	-341.626448	-341.620866	-341.619921	-341.655955	22.251	
C	-0.0470937793	 1.5330623418	 0.0107236902	-0.41621
C	 1.4361392517	 1.8764532106	-0.0015909984	-0.128883
C	 2.1706987908	 0.7584947811	-0.0146409268	-0.018538
N	 1.320847395	-0.3626962158	-0.0125591284	-0.0142
C	 1.3523954213	-1.7262084677	-0.0201687431	-0.014
N	 0.1328473505	-2.2219533481	-0.011132838	-0.277412
C	-0.7239980638	-1.1370085835	 0.0028607883	-0.216466
C	-0.0075215504	 0.0293517037	 0.0022520163	 0.310348
H	-0.5499924162	 1.9425649079	 0.8962892863	 0.13992
H	-0.5667738711	 1.9520301296	-0.860611332	 0.13992
H	 1.8254583748	 2.8839435627	 0.000113081	 0.116209
H	 3.2425316892	 0.6287032833	-0.0255886832	 0.139621
H	 2.2707982883	-2.2927351346	-0.031999293	 0.130705
H	-1.7942319707	-1.273856881	 0.0123632108	 0.108987
178.2333	260.7102	443.0522	444.0697	661.4376	668.9609	669.5225	733.5241	735.0616	785.2977	836.3326	873.6368	911.9147	934.9976	954.8919	959.2987	1094.8862	1124.0632	1147.2576	1184.4941	1236.5437	1250.8464	1293.2956	1321.7869	1378.8358	1430.5867	1460.0286	1494.3543	1591.5177	1658.3299	3024.5988	3046.8168	3239.1908	3252.5329	3256.8417	3263.5889
C1C=CN2C=NC=C12	C1C=Cn2cncc12	
InChI=1S/C6H6N2/c1-2-6-4-7-5-8(6)3-1/h1,3-5H,2H2	InChI=1S/C6H6N2/c1-2-6-4-7-5-8(6)3-1/h1,3-5H,2H2
