17
gdb 84569	3.11595	1.6615	1.28712	1.9223	72.21	-0.237	-0.009	0.228	974.7286	0.137464	-421.758636	-421.7518	-421.750856	-421.789666	28.054	
O	 0.1844520879	 1.4148470215	-0.2018220362	-0.430161
C	 0.0863927186	-0.0009231461	-0.0244763983	 0.055523
C	 0.8320989142	-0.4654837302	 1.1986764019	-0.139953
C	 0.1882470374	-1.170358725	 2.1289085383	-0.079142
C	-1.261905157	-1.4991098002	 1.9335280685	-0.051067
C	-1.7333458691	-1.8912148228	 0.4988851319	 0.025845
O	-3.0918590502	-1.4203274	 0.8264611742	-0.313966
C	-2.1781969461	-0.3858551315	 1.3470310068	 0.02587
C	-1.3718598845	-0.4570070278	 0.0149558796	-0.035872
H	-0.1156014739	 1.8264434964	 0.6164199631	 0.278052
H	 0.5583868949	-0.4119681572	-0.9268652746	 0.099813
H	 1.8780739951	-0.1887446265	 1.2866737418	 0.103265
H	 0.6867659698	-1.5205751324	 3.0278022296	 0.100773
H	-1.7246500356	-2.084146677	 2.7283058913	 0.082096
H	-1.6358152253	-2.8476364871	-0.0167666709	 0.094729
H	-2.6210195739	 0.4736994928	 1.8530733073	 0.093771
H	-1.9391778422	-0.1262620368	-0.8566684943	 0.090423
132.1454	221.5646	309.9577	347.1179	394.8779	462.9115	522.5827	557.9718	646.9453	711.5474	754.1765	777.7917	863.9999	892.0102	899.4442	904.6259	947.4147	992.5963	998.2412	1021.0687	1026.2404	1062.7141	1092.7894	1137.8463	1147.8842	1163.0704	1188.7049	1201.5929	1252.8872	1258.7565	1261.7208	1304.9559	1349.1484	1388.2937	1398.8342	1424.2173	1702.9422	3022.3696	3099.8935	3105.3039	3113.115	3122.7088	3166.4404	3189.7983	3798.5995
OC1C=CC2C3OC2C13	O[C@H]1C=C[C@@H]2[C@H]3O[C@@H]2[C@@H]13	
InChI=1S/C7H8O2/c8-4-2-1-3-6-5(4)7(3)9-6/h1-8H	InChI=1S/C7H8O2/c8-4-2-1-3-6-5(4)7(3)9-6/h1-8H/t3-,4-,5+,6-,7+/m0/s1
