17
gdb 30844	2.40776	1.39223	0.93112	0.8895	72.45	-0.2111	0.0297	0.2408	1250.9872	0.135779	-455.181527	-455.172481	-455.171537	-455.215558	32.7	
C	 0.4175763144	 1.2089458507	 0.3739353536	-0.329794
N	-0.3263398607	 0.1130871483	-0.2572560378	-0.386609
C	 0.3671765507	-0.6793474314	-1.1492617036	 0.218448
C	 0.7286045116	-1.9837143608	-1.1625350884	 0.239291
C	 0.4447684903	-3.0290634343	-0.1407828097	-0.491954
N	 1.4490852917	-2.2644414179	-2.3312170921	-0.441355
C	 1.4820545816	-1.1257910074	-2.94359173	 0.466474
O	 2.054177702	-0.8465962878	-4.114779883	-0.401967
O	 0.8764018333	-0.1031607374	-2.3466187819	-0.203192
H	 1.2790216375	 0.7928550881	 0.9035438829	 0.133895
H	 0.7818781813	 1.9628937387	-0.338059589	 0.121079
H	-0.2288469127	 1.7021456932	 1.1054505836	 0.121034
H	-1.2134505956	 0.4371250354	-0.6268059776	 0.235686
H	-0.1214828627	-3.8588463352	-0.5776778116	 0.133087
H	 1.3747064109	-3.4492206724	 0.2576411258	 0.133011
H	-0.1321503716	-2.6039470951	 0.6831908572	 0.134127
H	 2.4480515281	-1.6714875246	-4.4275122684	 0.318738
68.1568	135.5279	159.888	168.7792	213.3003	255.727	285.2742	346.154	443.0936	464.9685	556.8839	615.2068	625.8935	655.6687	745.1507	758.8624	814.7267	975.1016	1013.0788	1046.137	1060.9986	1069.7204	1145.8876	1171.6822	1215.0945	1267.4621	1337.8361	1415.6393	1451.9961	1467.8215	1480.0078	1486.6779	1491.7229	1507.481	1522.8782	1645.4197	1733.1185	3003.4429	3035.7479	3081.7924	3087.9716	3119.6222	3133.6457	3517.6871	3801.1887
CNC1=C(C)N=C(O)O1	CNc1c(C)nc(O)o1	
InChI=1S/C5H8N2O2/c1-3-4(6-2)9-5(8)7-3/h6H,1-2H3,(H,7,8)	InChI=1S/C5H8N2O2/c1-3-4(6-2)9-5(8)7-3/h6H,1-2H3,(H,7,8)
