19
gdb 45557	3.44485	1.32375	1.1192	4.4704	74.25	-0.2608	0.018	0.2788	1120.3533	0.162531	-423.099085	-423.091725	-423.09078	-423.131438	28.836	
O	-0.017150026	-0.0495987573	-0.0628882883	-0.335425
C	-0.0731975125	 1.1430428332	 0.0134395308	 0.421403
C	-1.3154458596	 2.0277553642	 0.096220102	-0.389228
C	-0.7793284289	 3.3966938519	 0.5100626515	-0.019816
C	-0.7611761477	 3.691252203	 2.0227965676	-0.223362
C	 0.4574857067	 4.610942707	 2.1983346021	-0.205792
C	 1.5204558623	 3.9967493737	 1.2617742146	-0.232232
C	 0.7242181268	 3.3282446345	 0.1207929097	 0.118656
O	 1.0416217945	 1.9239153506	 0.0280020904	-0.231109
H	-1.7841864527	 2.0395506457	-0.8938036858	 0.137196
H	-2.0360568851	 1.5903515863	 0.7902558963	 0.138358
H	-1.273022607	 4.2158794729	-0.0191913053	 0.081658
H	-1.6968520227	 4.1322852591	 2.376860936	 0.102839
H	-0.6082080305	 2.7588860037	 2.5815613713	 0.108856
H	 0.2050220765	 5.6266702397	 1.8708470695	 0.102295
H	 0.7983713082	 4.6824389968	 3.2344179088	 0.105038
H	 2.2382411325	 4.733037916	 0.8926324609	 0.105277
H	 2.0888310729	 3.2159822129	 1.7754340546	 0.126668
H	 0.934005432	 3.7697314261	-0.8579498767	 0.088721
66.334	111.9437	208.3242	329.1875	368.0104	495.5776	540.0193	556.7793	612.6731	681.1697	699.6597	802.4075	830.7716	869.3859	883.1816	916.2105	926.2207	973.6652	1009.3043	1019.65	1058.3679	1067.4377	1104.0056	1165.3979	1169.2227	1199.7873	1220.5608	1232.494	1269.74	1301.665	1313.1585	1317.4602	1343.1342	1350.9947	1373.4136	1384.6652	1465.3158	1484.767	1492.3204	1506.8183	1879.7925	3027.9857	3038.049	3053.8409	3058.1293	3065.4381	3073.7797	3095.3523	3098.0416	3114.6637	3116.6325
O=C1CC2CCCC2O1	O=C1C[C@H]2CCC[C@H]2O1	
InChI=1S/C7H10O2/c8-7-4-5-2-1-3-6(5)9-7/h5-6H,1-4H2	InChI=1S/C7H10O2/c8-7-4-5-2-1-3-6(5)9-7/h5-6H,1-4H2/t5-,6-/m1/s1
