18
gdb 55641	2.83946	1.08857	0.95116	2.6691	73.07	-0.2652	0.0214	0.2866	1281.1511	0.146267	-435.325006	-435.314895	-435.313951	-435.359646	37.093	
C	 0.0636925808	 1.5712976025	 0.0084071839	-0.402573
C	 0.0119949542	 0.0282872701	 0.0477928656	 0.128423
C	 0.8238464826	-0.5255768096	 1.2411567369	-0.406483
N	-1.3854403308	-0.4458291433	 0.0531798481	-0.381335
C	-2.243717268	-0.1869355133	 1.1050004391	 0.469393
N	-3.4437674278	-0.8767205544	 1.0158973601	-0.563077
O	-1.9803942815	 0.5537602458	 2.0354623415	-0.392156
C	 0.5989786093	-0.4917841752	-1.2040165309	 0.256707
N	 1.063408289	-0.9093940151	-2.1759753511	-0.332971
H	 1.100910869	 1.9071876644	-0.0645350129	 0.129308
H	-0.4900136793	 1.9475074078	-0.8546938119	 0.131133
H	-0.3839460635	 1.9615094821	 0.9219084845	 0.167195
H	 0.3738231108	-0.1624658662	 2.1655711648	 0.165003
H	 0.8136996354	-1.618605455	 1.2394300811	 0.125519
H	 1.8618576435	-0.1880094209	 1.1831816962	 0.130957
H	-1.5557328243	-1.288838566	-0.4734885555	 0.255019
H	-3.8043850571	-1.0879265795	 0.0975290873	 0.254349
H	-4.1363394124	-0.5314179041	 1.6630158231	 0.26559
85.0677	105.2264	132.6659	196.6794	229.8203	237.8902	267.3279	324.397	365.9796	380.942	407.9644	430.7943	452.2956	549.123	586.3789	598.8985	636.2159	770.6349	780.913	878.152	939.5902	992.9901	1032.4138	1054.8979	1111.5941	1170.0213	1226.3499	1238.8227	1342.9537	1390.5119	1412.5935	1473.9604	1489.4606	1494.1681	1513.5132	1534.0635	1627.8317	1793.2396	2359.4367	3053.2734	3060.7944	3126.7449	3135.2266	3158.1317	3168.2853	3576.0277	3618.8014	3690.6535
CC(C)(NC(N)=O)C#N	CC(C)(NC(=O)N)C#N	
InChI=1S/C5H9N3O/c1-5(2,3-6)8-4(7)9/h1-2H3,(H3,7,8,9)	InChI=1S/C5H9N3O/c1-5(2,3-6)8-4(7)9/h1-2H3,(H3,7,8,9)
