22
gdb 59262	2.50914	1.25606	1.06973	0.3435	82.09	-0.225	0.0715	0.2966	1267.1052	0.192843	-404.305828	-404.296039	-404.295095	-404.340397	36.994	
C	-0.2145348967	 1.4412548288	 0.0359830482	-0.399458
C	 0.1292068601	-0.0271661533	-0.2170760106	 0.101009
O	 0.9404080171	-0.1876362397	-1.3804149146	-0.433113
C	 0.8191322073	-0.6521737859	 0.9829744174	-0.050408
N	 0.163952784	-1.0291391223	 2.2607041666	-0.204088
C	-1.1679659198	-1.6446335422	 1.9125828826	-0.148803
C	-0.5178137569	-2.7484148097	 1.0454065303	-0.314004
C	 0.8255400788	-2.0808503887	 1.3568175207	 0.339808
C	 2.0658856821	-2.8291513618	 1.7476560218	-0.491521
H	 0.6912594115	 2.0163049462	 0.2660231588	 0.107373
H	-0.684993365	 1.8801098377	-0.8479948147	 0.121827
H	-0.8934149138	 1.5437094065	 0.888394694	 0.129864
H	-0.7879409295	-0.5699587775	-0.4600182326	 0.08884
H	 1.7503365059	 0.3168443391	-1.2444695333	 0.276322
H	 1.758582528	-0.1418130146	 1.2077029266	 0.075863
H	-1.6304808036	-2.0244632102	 2.8256186968	 0.109112
H	-1.8741524596	-0.9627105548	 1.4286398876	 0.103946
H	-0.6046645411	-3.7399502606	 1.4949173534	 0.106941
H	-0.7991000695	-2.8208297469	-0.0091873581	 0.110185
H	 2.5155598272	-3.3134215455	 0.8724963075	 0.125041
H	 2.8095834845	-2.1539177386	 2.1808110843	 0.125554
H	 1.843795259	-3.607722056	 2.4857565472	 0.119709
47.4107	126.3277	179.5508	186.3595	231.629	246.193	276.3515	295.9998	342.6202	385.2387	447.8608	510.5548	521.0197	623.073	762.3202	787.0861	795.3623	858.3714	897.9119	939.0569	969.803	981.6142	1000.8644	1053.6561	1062.6755	1091.4997	1108.4595	1141.4973	1162.2189	1183.136	1217.2029	1232.1913	1266.2633	1284.9354	1322.0906	1335.066	1352.8883	1401.6348	1411.9921	1422.1055	1470.5471	1482.5218	1488.7068	1492.7361	1493.5165	1498.9639	1518.9372	3025.432	3025.7844	3050.0624	3057.7132	3070.6049	3080.9746	3086.8677	3098.331	3099.9457	3109.7615	3117.7878	3121.0518	3796.1362
CC(O)C1N2CCC12C	C[C@@H](O)[C@H]1N2CC[C@@]12C	
InChI=1S/C7H13NO/c1-5(9)6-7(2)3-4-8(6)7/h5-6,9H,3-4H2,1-2H3	InChI=1S/C7H13NO/c1-5(9)6-7(2)3-4-8(6)7/h5-6,9H,3-4H2,1-2H3/t5-,6-,7+,8?/m1/s1
