21
gdb 105496	1.92711	1.66459	1.21652	1.7568	78.59	-0.2311	-0.0162	0.2149	1159.7472	0.179802	-424.228004	-424.217964	-424.21702	-424.263057	36.44	
C	 0.7249615466	 0.1379368188	 1.2998304229	-0.261036
O	 0.0025048876	 0.2524422213	 0.0885135745	-0.287399
C	-1.0579902181	-0.6685938049	-0.0458345187	 0.320833
C	-1.5306166178	-0.8110059723	-1.5244180375	-0.278065
C	-1.6001316929	-2.3465145733	-1.3179679983	-0.214729
C	-0.7337617303	-2.1901371573	-0.0395683856	-0.274234
C	-2.2557229576	-0.292653891	 0.838753569	 0.322799
C	-2.5275333604	 1.1916269007	 1.0064250235	-0.474855
O	-2.9720065766	-1.1379385532	 1.3266564632	-0.304702
H	 1.5134947791	 0.8932115733	 1.2715003132	 0.131033
H	 0.0955896874	 0.3194749792	 2.1838285385	 0.109113
H	 1.1859098823	-0.8532579972	 1.4070365871	 0.117363
H	-2.4414877195	-0.2843561083	-1.8203389545	 0.103221
H	-0.7117338718	-0.5087984589	-2.1817275182	 0.117036
H	-2.610057936	-2.6838548845	-1.078689004	 0.124335
H	-1.1977685004	-2.9673176209	-2.1201391626	 0.101257
H	 0.3280441873	-2.3526795232	-0.2407440227	 0.103647
H	-1.0424037845	-2.7486153249	 0.8441823198	 0.117349
H	-2.4007034005	 1.7275265739	 0.0617513074	 0.142648
H	-3.5360339996	 1.3309114362	 1.3980108354	 0.137204
H	-1.8092381643	 1.6261979862	 1.7095534278	 0.147179
65.1214	102.0556	132.6555	153.7835	168.1106	213.5226	218.0694	265.3837	339.5649	419.6336	476.5574	533.794	576.2514	638.3962	682.0705	791.6113	806.6455	891.271	941.1871	948.5449	961.8893	996.4058	1051.1057	1077.7622	1095.3902	1132.8367	1177.0231	1186.2841	1209.1657	1216.6747	1236.2236	1252.2084	1276.7298	1285.6321	1306.8038	1382.6188	1455.6493	1456.6055	1468.6356	1477.0483	1483.2823	1489.4521	1498.1508	1512.1822	1800.9482	2990.7946	3043.4954	3048.7527	3060.6841	3071.7002	3079.0689	3112.3758	3114.5689	3120.6314	3131.9444	3145.277	3153.9366
COC1(CCC1)C(C)=O	COC1(CCC1)C(=O)C	
InChI=1S/C7H12O2/c1-6(8)7(9-2)4-3-5-7/h3-5H2,1-2H3	InChI=1S/C7H12O2/c1-6(8)7(9-2)4-3-5-7/h3-5H2,1-2H3
