15
gdb 52034	2.72438	0.90036	0.71627	5.0708	70.49	-0.2652	-0.0444	0.2208	1492.719	0.108171	-457.747544	-457.737787	-457.736843	-457.78416	32.576	
O	 0.2300068832	 0.0142088992	 0.2827711292	-0.258803
C	 0.2941045409	 1.1955597397	 0.4170267566	 0.174501
O	 0.7907278617	 2.0131221693	-0.5397863323	-0.174791
C	 0.8465967938	 3.4105124858	-0.2665744074	-0.105448
C	 2.3081586837	 3.8519969452	-0.0525040342	-0.250934
C	 3.1562954393	 3.5140323652	-1.2929882334	 0.182342
O	 4.1512332503	 2.8492609497	-1.2592740306	-0.224222
C	 2.3646988536	 5.2900053733	 0.1763047315	 0.288242
C	 2.3969376954	 6.4833580976	 0.3151281557	-0.436439
H	-0.0461155024	 1.7499485275	 1.3139368844	 0.084164
H	 0.4181644036	 3.9274396805	-1.1299447521	 0.142307
H	 0.248959031	 3.6648037434	 0.6161116469	 0.134031
H	 2.7403880431	 3.3032521542	 0.7915011927	 0.135998
H	 2.7683080821	 3.9622308258	-2.2340412494	 0.095456
H	 2.4383869807	 7.5352891136	 0.4589487524	 0.213596
36.7243	55.5443	77.6643	121.918	164.2429	188.9475	257.0692	362.0994	385.4546	446.2466	484.4251	538.1875	658.0778	661.0707	679.5751	859.4883	949.083	1027.5789	1036.3235	1044.6723	1075.7892	1108.2264	1149.8073	1259.5027	1285.4843	1325.2566	1391.9956	1415.434	1428.4507	1497.92	1851.328	1878.5634	2235.5381	2894.9333	2943.514	3043.0453	3058.9393	3102.9096	3500.597
O=COCC(C=O)C#C	O=COC[C@@H](C=O)C#C	
InChI=1S/C6H6O3/c1-2-6(3-7)4-9-5-8/h1,3,5-6H,4H2	InChI=1S/C6H6O3/c1-2-6(3-7)4-9-5-8/h1,3,5-6H,4H2/t6-/m1/s1
