18
gdb 112353	3.21658	1.14507	0.88582	6.1846	78.	-0.2128	-0.0049	0.2079	1272.2969	0.148654	-439.13223	-439.123501	-439.122557	-439.165742	33.195	
N	 0.0737637873	 1.3360421046	 0.0010774288	-0.576169
C	-0.0384692397	-0.0132776419	-0.0160747125	 0.395392
C	-1.1630185874	-0.773990605	 0.0531215934	-0.347245
C	-0.8353317866	-2.1884823268	 0.0433604937	 0.397156
O	-1.5862793244	-3.1411958475	 0.1070933093	-0.37007
C	 0.7007030003	-2.3022795197	-0.0841451071	-0.368173
C	 1.2291091709	-0.8562099219	-0.0619413323	-0.075906
C	 2.1342543217	-0.5290869963	-1.2509840133	-0.099409
O	 2.6539830235	 0.790952981	-1.0783911595	-0.422176
H	 0.9520067175	 1.7295014821	-0.3044687506	 0.269825
H	-0.7532775013	 1.9003491335	-0.1028834229	 0.257321
H	-2.1791030622	-0.4049137167	 0.1094250347	 0.086292
H	 1.1003914753	-2.9166921134	 0.7265228096	 0.125758
H	 0.9389061161	-2.8188859149	-1.0209261124	 0.118857
H	 1.8137264183	-0.6567409184	 0.8449753712	 0.105592
H	 2.9530093664	-1.2614211327	-1.2924024303	 0.105575
H	 1.5607391784	-0.6095260398	-2.1867638433	 0.102287
H	 3.1593271557	 1.0271585938	-1.8618426166	 0.295092
56.8373	154.541	170.6398	227.6556	283.7901	320.0079	357.1865	371.8081	447.1603	519.9912	559.2915	585.4815	597.6209	660.5172	676.51	788.0998	848.2284	856.1598	915.2855	1028.1825	1043.3031	1048.841	1087.3203	1119.0129	1164.9685	1201.6216	1242.4344	1248.1662	1268.3127	1289.4591	1315.6953	1344.7398	1411.7237	1447.0805	1467.7395	1518.5122	1633.0221	1677.5222	1794.6906	2985.2906	3020.1402	3037.8683	3050.7332	3102.8162	3213.4604	3564.1463	3696.1162	3831.9667
NC1=CC(=O)CC1CO	NC1=CC(=O)C[C@H]1CO	
InChI=1S/C6H9NO2/c7-6-2-5(9)1-4(6)3-8/h2,4,8H,1,3,7H2	InChI=1S/C6H9NO2/c7-6-2-5(9)1-4(6)3-8/h2,4,8H,1,3,7H2/t4-/m0/s1
