15
gdb 27714	3.01664	1.26649	0.89373	2.5731	83.09	-0.1713	0.0147	0.186	1226.7182	0.112166	-416.809565	-416.800587	-416.799643	-416.84272	33.792	
N	 0.1247762542	 1.3983404709	 0.1713793161	-0.613359
C	-0.0086615333	 0.0143361202	 0.0305105285	 0.334898
C	-1.1387166287	-0.7829709283	-0.0319736104	-0.302438
C	-0.6839043792	-2.1231792613	-0.0572922884	 0.266092
O	-1.4971115516	-3.2015726256	-0.1396911318	-0.44304
C	 0.7039077215	-2.1296967008	-0.0222834258	 0.0625
N	 1.0958755568	-0.7810943102	 0.0145930903	-0.37569
C	 1.5807080432	-3.2171075253	-0.0550607749	 0.186591
C	 2.3045821546	-4.1864058665	-0.0710615182	-0.461938
H	 0.7394214725	 1.8128479511	-0.5206751632	 0.249252
H	-0.7727815656	 1.8628992776	 0.1355721559	 0.254495
H	-2.1624485232	-0.4492618845	-0.0843108476	 0.09793
H	-0.9414989973	-3.9910895368	-0.1493429717	 0.299089
H	 2.0221532074	-0.473865895	 0.2559395495	 0.26287
H	 2.9445266686	-5.0323372655	-0.1029410484	 0.182749
119.1845	128.2751	190.9638	224.4026	297.818	301.5058	312.9217	391.964	405.2567	415.6655	482.4054	534.1985	587.9597	644.1474	657.8361	684.7356	702.2271	742.7759	778.553	822.8694	1030.237	1112.4571	1130.9114	1200.5317	1250.312	1255.882	1382.7015	1484.9067	1546.3661	1566.1908	1624.7627	1659.0168	2197.5519	3261.1551	3502.3086	3519.8074	3624.0362	3678.6027	3781.8694
NC1=CC(O)=C(N1)C#C	Nc1cc(O)c([nH]1)C#C	
InChI=1S/C6H6N2O/c1-2-4-5(9)3-6(7)8-4/h1,3,8-9H,7H2	InChI=1S/C6H6N2O/c1-2-4-5(9)3-6(7)8-4/h1,3,8-9H,7H2
