18
gdb 43802	2.44932	1.64072	1.16732	3.6103	77.75	-0.2379	0.0311	0.269	1086.6251	0.146975	-401.937599	-401.929221	-401.928276	-401.970628	32.044	
O	 0.0021657118	 0.0469972385	-0.0547220977	-0.377519
C	 0.0163423927	 1.2471808892	 0.0138608636	 0.448586
N	-0.9800869551	 2.2033589355	 0.104468716	-0.464605
C	-0.0697000895	 3.3397566264	 0.0507332751	 0.383735
C	-0.2623194774	 4.598431055	-0.7306076316	-0.325588
C	-0.2147506205	 4.6256879912	 0.794005201	-0.32361
C	 1.0778121831	 2.3373178002	 0.0228539482	 0.060874
C	 2.3893776172	 2.3186855469	 0.7493108254	-0.321083
C	 2.3590295899	 2.3350075974	-0.7567004162	-0.319581
H	-1.9749348873	 2.1380681914	-0.0500514338	 0.247896
H	 0.5828720146	 4.9982809659	-1.2820841904	 0.120468
H	-1.2223844843	 4.7650800156	-1.2086001469	 0.118001
H	-1.1428625978	 4.808588549	 1.3255881879	 0.119855
H	 0.6637299955	 5.0447027629	 1.2747171616	 0.119845
H	 2.6904119755	 3.2250070607	 1.2648445868	 0.11921
H	 2.6624378314	 1.3966296674	 1.251232692	 0.136815
H	 2.6077489229	 1.4229118721	-1.288718081	 0.137757
H	 2.6406605973	 3.2515075549	-1.2651850702	 0.118943
68.2253	159.8182	177.8762	197.0096	251.6435	292.1308	353.9106	513.3435	528.6948	540.7242	629.2495	727.8518	761.4417	770.9161	808.395	875.4959	878.7576	930.7664	953.5862	965.7475	1006.2352	1008.9038	1047.7811	1060.939	1071.5932	1080.8942	1112.5709	1182.2775	1193.2854	1202.3045	1238.6401	1299.5085	1380.9124	1439.146	1453.693	1460.8954	1497.0468	1520.5209	1893.4178	3122.8268	3126.1848	3128.0286	3130.0592	3201.9116	3209.7939	3216.6429	3223.9938	3618.8964
O=C1NC2(CC2)C11CC1	O=C1NC2(CC2)C21CC2	
InChI=1S/C7H9NO/c9-5-6(1-2-6)7(8-5)3-4-7/h1-4H2,(H,8,9)	InChI=1S/C7H9NO/c9-5-6(1-2-6)7(8-5)3-4-7/h1-4H2,(H,8,9)
