16
gdb 34039	3.18031	1.37797	1.19436	4.8258	68.92	-0.264	0.0147	0.2787	1048.0541	0.125541	-437.869841	-437.862357	-437.861413	-437.901962	28.484	
N	 0.016703654	-1.0887731528	 0.0643694961	-0.338314
C	-0.0046474012	 0.0663002602	 0.0275624398	 0.26287
C	 0.0008807176	 1.5085948187	-0.0515737629	 0.290462
C	 0.5081799172	 2.1487187698	-1.3268098566	-0.343603
C	 1.3455173051	 2.2202933947	-0.0697672778	-0.122695
C	 1.4127633845	 3.5062455538	 0.7493321567	-0.109353
O	 0.3679076156	 3.5741180853	 1.7148509115	-0.215623
C	-0.8744000953	 3.38109104	 1.1253438819	-0.00537
O	-1.0684049901	 2.0497747738	 0.6677102984	-0.28955
H	 0.8275351598	 1.4934108707	-2.1280814978	 0.145266
H	-0.0009798593	 3.0511367562	-1.6504700847	 0.1337
H	 2.2228936043	 1.5857171817	-0.0276035338	 0.128342
H	 2.3451213072	 3.5467321659	 1.3149967391	 0.13239
H	 1.3698859843	 4.3909506641	 0.0955414032	 0.107139
H	-1.6381980666	 3.5384575755	 1.8879268913	 0.135616
H	-1.0228780371	 4.0888823424	 0.2895667155	 0.088722
97.2534	144.6261	177.2488	306.3327	373.6553	414.4603	421.2004	535.0505	548.4879	592.2605	638.877	756.0212	810.0741	887.7475	900.5557	923.1894	974.1421	1016.3271	1052.7865	1067.0352	1080.5876	1099.6012	1161.6628	1193.9017	1255.9422	1270.5833	1277.8019	1327.7739	1392.6541	1400.295	1445.0881	1471.7674	1496.9077	1518.1817	2361.4773	2940.4701	2987.7537	3113.5502	3126.5278	3135.0061	3181.182	3230.2978
N#CC12CC1COCO2	N#C[C@]12C[C@H]1COCO2	
InChI=1S/C6H7NO2/c7-3-6-1-5(6)2-8-4-9-6/h5H,1-2,4H2	InChI=1S/C6H7NO2/c7-3-6-1-5(6)2-8-4-9-6/h5H,1-2,4H2/t5-,6+/m0/s1
