15
gdb 51247	6.55636	0.79574	0.72691	14.1106	98.54	-0.133	-0.0621	0.0709	1468.6661	0.111443	-453.928733	-453.92018	-453.919236	-453.961926	32.183	
N	 0.029341326	 1.0933566759	-0.0367559479	-0.496699
H	 0.1835853344	 0.3748943933	-0.7261997722	 0.281109
H	 0.79257904	 1.2781165772	 0.5926472142	 0.292229
C	-1.2222731341	 1.4336226849	 0.3407460073	 0.107138
N	-2.31002892	 0.9252545785	-0.2008812153	-0.315147
C	-3.5609448994	 1.545007623	-0.0849611712	 0.286267
C	-4.8000285779	 0.9617892826	 0.2377995969	-0.528956
C	-5.7685912795	 1.9907740135	 0.210019114	 0.424543
O	-6.9493949329	 2.1065589404	 0.4287692118	-0.40105
O	-5.0082448055	 3.2207324389	-0.1787737376	-0.225138
C	-3.7258487168	 2.8906057917	-0.3336655564	-0.06983
H	-3.0616079305	 3.5968114523	-0.8117797655	 0.112107
H	-1.3553083198	 2.2354708014	 1.0554061166	 0.184372
H	-2.2593074117	 0.0378797451	-0.69379712	 0.269359
H	-4.9958169722	-0.0372991187	 0.5892908553	 0.079696
87.5993	95.2036	190.1799	242.4261	314.8203	335.1281	396.8749	424.7296	480.282	505.886	540.6893	585.6034	613.777	658.5479	671.2662	721.453	732.3872	797.0606	830.5476	997.6307	1056.22	1067.8972	1192.1755	1217.6712	1271.6797	1340.4039	1355.5851	1397.7102	1503.3836	1554.4205	1639.8503	1704.0274	1856.7947	3226.7728	3236.7355	3265.3202	3492.5665	3599.7054	3716.6834
[NH2+]=CNC1=CC(=O)O[CH-]1	[NH2]=CNC1=COC(=O)[CH]1	
InChI=1S/C5H5N2O2/c6-3-7-4-1-5(8)9-2-4/h1-3H,(H2,6,7)/q-1/p+1	InChI=1S/C5H6N2O2/c6-3-7-4-1-5(8)9-2-4/h1-3,7H,6H2
