20
gdb 11984	2.61268	2.09551	1.75198	1.31	74.18	-0.2454	0.0708	0.3162	893.2256	0.176126	-348.979563	-348.971192	-348.970248	-349.011446	32.868	
C	-0.1066542697	 1.5814899184	-0.0646783012	-0.444743
C	 0.0049291665	 0.0596016783	-0.0432156866	 0.286916
C	-1.353535301	-0.5856417391	 0.2354245613	-0.444096
C	 0.710859975	-0.6178558661	-1.2347354529	-0.07279
C	 2.1522414063	-0.2165464862	-1.3389103762	-0.300142
C	 1.7620867298	-1.2371494475	-0.30627956	-0.046829
C	 1.1289250826	-0.5554745365	 0.8965737322	 0.056697
O	 2.0099672097	 0.3230597041	 1.5667552	-0.42767
H	 0.8609086366	 2.0637596825	-0.2184036877	 0.124512
H	-0.7815408388	 1.90762965	-0.8642289621	 0.111098
H	-0.516090457	 1.9576732853	 0.8812822675	 0.098484
H	-2.0835761213	-0.3157182719	-0.5363569057	 0.111636
H	-1.2784074013	-1.6783693058	 0.2527417476	 0.113213
H	-1.7551129123	-0.2590792326	 1.2019573067	 0.104781
H	 0.1883668456	-1.0945497889	-2.0568006357	 0.077599
H	 2.6809595932	-0.6190620627	-2.1971252383	 0.107885
H	 2.4905765791	 0.766731859	-1.0301591362	 0.122041
H	 2.1731386499	-2.2389960384	-0.3075043629	 0.081755
H	 0.6894151667	-1.2765275583	 1.5994973543	 0.058596
H	 1.5305033004	 0.7330263666	 2.2938363659	 0.281058
144.8682	185.9565	223.4531	244.5884	272.657	291.1863	312.8085	347.6829	436.1777	505.6623	570.9789	620.5652	755.3819	800.8219	811.3065	888.0882	940.203	951.7043	971.8199	995.2212	1012.798	1017.3092	1025.9574	1065.7062	1085.5595	1120.3263	1176.4927	1196.4758	1218.2352	1224.2603	1257.0245	1287.6932	1335.7809	1365.831	1398.0289	1416.2284	1426.5233	1481.9729	1482.8399	1494.9978	1504.7433	1508.2982	2999.7831	3018.2767	3025.3309	3079.405	3085.7965	3091.4935	3123.5334	3130.5999	3168.2851	3185.9104	3212.4483	3815.4897
CC1(C)C2CC2C1O	CC1(C)[C@H]2C[C@H]2[C@H]1O	
InChI=1S/C7H12O/c1-7(2)5-3-4(5)6(7)8/h4-6,8H,3H2,1-2H3	InChI=1S/C7H12O/c1-7(2)5-3-4(5)6(7)8/h4-6,8H,3H2,1-2H3/t4-,5+,6-/m1/s1
