18
gdb 92879	3.32888	1.2767	0.98349	6.1408	85.62	-0.2072	-0.0425	0.1647	1199.5817	0.148992	-401.970742	-401.962317	-401.961372	-402.004317	31.166	
C	-0.0582058004	 1.56256432	-0.1372702382	-0.342719
N	-0.0003138357	 0.1271533235	 0.0544865007	-0.020994
C	-1.2466305019	-0.6341218435	 0.0954059525	-0.246829
C	-1.529400529	-1.25469132	 1.44124014	-0.081853
C	-0.7139690214	-2.1501289905	 2.0006550562	-0.116367
C	 0.5709753712	-2.6611206677	 1.4347658547	 0.324181
O	 0.9622405574	-3.7689741792	 1.7898174018	-0.374532
C	 1.4041991033	-1.7982927736	 0.6019107182	-0.256318
C	 1.1796442168	-0.5272004246	 0.1656469168	 0.030771
H	 0.9424163675	 1.9401336442	-0.3602086687	 0.140441
H	-0.719503534	 1.8161572545	-0.9742017552	 0.132717
H	-0.4229378944	 2.0835930971	 0.757699769	 0.137732
H	-2.0560114873	 0.0366554602	-0.2003036479	 0.113333
H	-1.173636529	-1.4261019485	-0.6652725381	 0.133082
H	-2.4492504018	-0.9696463301	 1.9450150416	 0.102432
H	-0.982718707	-2.6242293492	 2.9406306734	 0.111612
H	 2.4029552436	-2.1924854055	 0.4482367042	 0.099015
H	 2.0313663921	 0.0560857329	-0.1805367708	 0.114298
51.6692	99.8315	149.3747	240.9558	287.5277	352.3103	369.8757	394.8269	476.4538	486.6367	641.501	668.2819	753.9542	785.185	809.3855	870.5697	903.6456	958.0225	972.9436	1011.9383	1015.7423	1084.8073	1146.4264	1184.7478	1206.0974	1218.2606	1287.895	1348.6008	1374.3877	1401.2928	1411.5812	1457.4147	1471.4276	1477.5843	1489.643	1525.9792	1657.583	1691.1373	1711.2282	2990.3937	3009.8273	3061.2366	3102.6946	3121.2088	3139.2545	3155.9145	3181.6194	3190.9515
CN1CC=CC(=O)C=C1	CN1CC=CC(=O)[CH][CH]1	
InChI=1S/C7H9NO/c1-8-5-2-3-7(9)4-6-8/h2-4,6H,5H2,1H3	InChI=1S/C7H9NO/c1-8-5-2-3-7(9)4-6-8/h2-4,6H,5H2,1H3
