16
gdb 125306	3.11408	1.8097	1.16096	3.3767	76.53	-0.2301	-0.0203	0.2098	1011.2739	0.127164	-396.972267	-396.965181	-396.964237	-397.003734	27.1	
C	-0.021751433	 1.5095046997	 0.1172766049	-0.489782
C	-0.0096375817	 0.0290940774	-0.0174174486	 0.357111
C	-0.0269026931	-0.787313337	-1.0845242875	-0.208194
C	-0.0011673509	-2.2494534154	-0.6570382659	-0.415576
C	 0.0333978283	-2.1118331122	 0.8354290336	 0.386037
N	 0.0676312548	-2.8287819416	 1.9415755007	-0.368433
C	 0.0803251122	-1.8529999304	 2.9037471718	 0.018132
N	 0.0568897821	-0.5945820476	 2.4661280709	-0.279983
N	 0.0267973863	-0.7943803949	 1.1332598838	 0.011303
H	 0.8684481566	 1.8580004692	 0.6516435319	 0.153835
H	-0.0519622036	 1.9808979145	-0.8667153001	 0.136997
H	-0.8904538208	 1.8394397694	 0.6968611627	 0.153865
H	-0.0552319859	-0.462002987	-2.1136905376	 0.114353
H	-0.8835203155	-2.8018206093	-1.0010536021	 0.152655
H	 0.8750165229	-2.7832682006	-1.043498554	 0.152659
H	 0.1081542012	-2.0769115242	 3.9596965154	 0.125019
148.2528	172.5685	213.2118	241.9394	284.807	515.0973	536.5163	601.2998	673.9626	680.9715	705.8092	747.7939	776.6479	891.7217	943.2721	948.4262	986.1784	1015.5497	1070.4099	1117.2556	1137.7823	1157.5038	1189.4089	1261.9794	1266.6593	1285.3558	1389.3967	1408.4887	1423.1253	1439.8077	1450.7883	1470.4776	1486.7009	1574.8633	1698.4289	3041.6241	3044.4784	3074.0046	3096.5482	3139.4097	3249.5853	3260.5325
CC1=CCC2=NC=NN12	CC1=CCc2ncnn12	
InChI=1S/C6H7N3/c1-5-2-3-6-7-4-8-9(5)6/h2,4H,3H2,1H3	InChI=1S/C6H7N3/c1-5-2-3-6-7-4-8-9(5)6/h2,4H,3H2,1H3
