16
gdb 34880	2.37775	1.72914	1.21278	2.4029	74.6	-0.24	0.019	0.259	1031.3434	0.122834	-400.633566	-400.625784	-400.62484	-400.665796	30.121	
C	-0.166413483	-1.2694991288	-0.098242895	-0.463254
C	-0.08043059	-0.0715459184	-0.0343717765	 0.36409
C	 0.0534153194	 1.3676596756	 0.0473494015	-0.265313
N	-0.2801632677	 2.0207773884	 1.3869143967	-0.13061
C	 0.7174107323	 1.5211486212	 2.3498058298	-0.243868
C	 1.1299010154	 2.5956672918	 1.4215747938	-0.136083
C	 1.4626577959	 2.0032148018	 0.0773092909	 0.454756
C	 2.7263088526	 1.6314256118	-0.5532517657	-0.268038
O	 1.9462868005	 2.7560522507	-1.0076231952	-0.27604
H	-0.2591546664	-2.3258664256	-0.1596475307	 0.204851
H	-0.5495374346	 1.8613729507	-0.7202595305	 0.133038
H	 0.4853007365	 1.8021231937	 3.3722871046	 0.130401
H	 1.1099880918	 0.5147572632	 2.2292354415	 0.129376
H	 1.3288557463	 3.6189041662	 1.7199436905	 0.116168
H	 3.6686396164	 1.8842139763	-0.0700928439	 0.121668
H	 2.7558633845	 0.7827915215	-1.2341796919	 0.12886
107.2146	130.3403	184.246	289.8847	323.2002	370.3775	463.1254	489.2547	559.8697	622.5108	626.425	664.7501	748.8637	786.1966	818.5413	866.7451	913.2744	960.0933	971.7586	1025.0307	1045.4785	1084.4669	1113.8144	1120.6717	1132.9687	1158.7236	1175.7945	1216.3248	1229.4574	1323.3367	1333.1534	1448.2741	1498.8048	1537.2694	2231.0929	3073.6634	3088.995	3115.3748	3180.2103	3181.116	3206.5058	3500.6396
C#CC1N2CC2C11CO1	C#C[C@H]1N2C[C@H]2[C@]21CO2	
InChI=1S/C7H7NO/c1-2-5-7(4-9-7)6-3-8(5)6/h1,5-6H,3-4H2	InChI=1S/C7H7NO/c1-2-5-7(4-9-7)6-3-8(5)6/h1,5-6H,3-4H2/t5-,6+,7-,8?/m1/s1
