18
gdb 106337	4.61752	0.98082	0.93854	4.9294	78.33	-0.26	-0.0025	0.2575	1294.8721	0.146513	-401.90256	-401.893991	-401.893047	-401.935906	32.228	
C	 0.1032649998	 1.5347175299	 0.0537485042	-0.385484
C	 0.0974856056	 0.0020968114	 0.0675091858	-0.318362
C	 0.6637612778	-0.5748766817	 1.3274760897	 0.403819
C	 0.2994981328	-0.298339182	 2.8160159604	-0.291098
C	 1.6092782588	-1.1226355632	 2.7551767367	 0.321053
C	 0.972166372	-2.053495727	 1.6930643031	-0.299586
O	 2.0904778207	-0.2463816991	 1.6717345902	-0.359041
C	 2.5117757584	-1.4619210821	 3.8291081984	 0.177473
N	 3.2075498109	-1.7544977004	 4.7040961406	-0.344147
H	 1.1166876884	 1.9175593945	 0.200264265	 0.144773
H	-0.2731065475	 1.9136686548	-0.9001573278	 0.120334
H	-0.5288262823	 1.9416528784	 0.8493940179	 0.121619
H	-0.9233758149	-0.3819545634	-0.0520775876	 0.11339
H	 0.6802660518	-0.3881076317	-0.7755044183	 0.120978
H	 0.42959111	 0.7308205451	 3.1493343008	 0.126942
H	-0.5876615995	-0.7822994228	 3.2300794803	 0.111055
H	 0.1447942381	-2.6932918279	 2.007191805	 0.11099
H	 1.6884998393	-2.5546721127	 1.0420031657	 0.125291
80.2653	113.6363	140.4444	208.1067	223.8036	326.2558	390.962	502.1816	517.5637	532.6014	556.7311	610.5037	636.7902	702.2187	789.1192	823.4013	944.2449	963.6981	967.7618	977.2819	1038.5399	1077.1615	1092.6767	1100.4311	1126.387	1155.4453	1167.4382	1179.5317	1244.2247	1297.6763	1334.3931	1399.0546	1413.8247	1465.7155	1469.6335	1498.6791	1507.0798	1518.4538	2360.5897	3030.943	3045.1693	3066.9778	3070.5191	3078.8561	3113.9919	3126.7234	3159.489	3164.7947
CCC12CC(C1)(O2)C#N	CC[C@@]12C[C@@](C1)(O2)C#N	
InChI=1S/C7H9NO/c1-2-6-3-7(4-6,5-8)9-6/h2-4H2,1H3	InChI=1S/C7H9NO/c1-2-6-3-7(4-6,5-8)9-6/h2-4H2,1H3/t6-,7+
