23
gdb 123261	6.52997	0.44408	0.42885	1.8816	81.38	-0.2566	0.0773	0.3339	2582.9753	0.202905	-462.540847	-462.529305	-462.528361	-462.579828	39.017	
C	-1.4737240098	 0.7369019504	 0.0060299442	-0.385174
C	-0.0956083143	 0.1186408279	 0.1668997686	-0.026365
O	 0.4158595782	-0.1837490905	-1.1158986551	-0.245309
C	 1.697760098	-0.7624375385	-1.0831113104	-0.068545
C	 2.1196213591	-1.026267067	-2.5205105393	-0.068359
O	 3.4052953028	-1.607168995	-2.4936740567	-0.26342
C	 3.9220495856	-1.9166714595	-3.7753562195	-0.066981
C	 5.2260040538	-2.6657396782	-3.5514605067	-0.05868
O	 5.0182771256	-3.8491035823	-2.8067180404	-0.421339
H	-1.4162445411	 1.6538672963	-0.587301297	 0.126904
H	-2.1489644642	 0.042323599	-0.501658853	 0.127218
H	-1.8978844164	 0.9817329948	 0.9843300826	 0.11569
H	 0.5827980345	 0.8131233173	 0.6908959515	 0.086983
H	-0.1505615575	-0.7979901542	 0.7784450958	 0.087049
H	 2.4279628215	-0.0931650041	-0.5993783302	 0.095053
H	 1.6957473044	-1.709061999	-0.5175543538	 0.0913
H	 1.3925507728	-1.6959614339	-3.0057464951	 0.100905
H	 2.1261223871	-0.0802208249	-3.0838967973	 0.09937
H	 3.2123011596	-2.553238698	-4.3273060436	 0.096778
H	 4.091267709	-0.9994397626	-4.3629299043	 0.088661
H	 5.6552777508	-2.9577298231	-4.5154924922	 0.107949
H	 5.9428260176	-1.9947944041	-3.0512648911	 0.092588
H	 4.4857997932	-3.5858751409	-2.046775697	 0.287724
31.5019	47.4109	76.2574	92.2705	107.7167	143.817	170.7503	215.8216	244.3532	296.1719	332.1876	421.7978	441.3945	508.6131	563.8115	818.751	835.0023	864.5358	903.1082	908.4477	1038.8747	1057.7413	1079.8473	1095.3616	1134.6406	1158.3956	1166.2585	1166.7282	1177.2608	1194.7778	1233.9226	1239.959	1265.5273	1292.0001	1296.2376	1346.9067	1385.6725	1392.2166	1404.3855	1427.5399	1442.1217	1465.805	1483.0451	1499.0457	1499.457	1503.5758	1517.3683	1532.8926	1540.5373	2952.2198	2965.3204	2967.4411	2977.3386	2979.531	2981.5769	2988.5836	3010.3416	3021.2355	3045.1999	3079.3415	3119.8977	3121.6493	3793.6645
CCOCCOCCO	CCOCCOCCO	
InChI=1S/C6H14O3/c1-2-8-5-6-9-4-3-7/h7H,2-6H2,1H3	InChI=1S/C6H14O3/c1-2-8-5-6-9-4-3-7/h7H,2-6H2,1H3
