19
gdb 126614	4.61026	0.8394	0.74838	2.2243	79.15	-0.2075	0.0231	0.2305	1553.3166	0.161393	-415.425898	-415.416824	-415.41588	-415.460496	33.012	
C	-0.0273140115	 1.5275722848	 0.0088530254	-0.382036
C	-0.1144942166	 0.003109697	-0.0880922894	-0.169739
C	 0.8025855564	-0.5561341573	-1.1808878498	-0.144246
N	 0.7628917931	-2.002572054	-1.2620966501	 0.055826
C	 0.2620861241	-2.7979644799	-2.2196332253	 0.002844
N	 0.3961839596	-4.0737618915	-1.89795597	-0.332428
C	 1.0074430569	-4.0002098684	-0.6806439145	 0.404126
N	 1.289779264	-5.1306228839	 0.0610523175	-0.580977
N	 1.2597148838	-2.7709156733	-0.2448874091	-0.341021
H	 0.9921659326	 1.854043989	 0.2419912888	 0.120712
H	-0.3223834834	 2.0076878654	-0.9311172567	 0.115136
H	-0.6850231901	 1.9076276449	 0.7955146993	 0.122363
H	 0.1662915365	-0.459218648	 0.863214535	 0.132769
H	-1.145022756	-0.3070603079	-0.2976909358	 0.105602
H	 0.5148786836	-0.1707321868	-2.1646365519	 0.116819
H	 1.8390596747	-0.2528176155	-0.9953828889	 0.127172
H	-0.1814841147	-2.4134938429	-3.1264451424	 0.135191
H	 1.4205404583	-5.9516421032	-0.5113508421	 0.25696
H	 2.0293518487	-4.9992979784	 0.7354176902	 0.254926
57.5904	82.147	89.0003	234.6371	258.2857	281.1617	306.0876	333.9182	394.6456	461.7215	622.3341	637.3862	702.9378	753.7738	783.2292	805.138	850.0434	881.9801	903.6722	1024.2523	1040.5753	1045.1584	1104.4599	1127.464	1147.3574	1230.2498	1247.5762	1309.628	1330.5387	1354.4599	1384.547	1407.6069	1415.9453	1477.685	1483.4305	1493.7118	1501.0535	1510.9609	1523.619	1592.3399	1647.9737	3031.1082	3036.5646	3046.8331	3076.6607	3089.5282	3109.2424	3111.094	3249.9673	3573.0843	3679.0672
CCCN1C=NC(N)=N1	CCCn1cnc(N)n1	
InChI=1S/C5H10N4/c1-2-3-9-4-7-5(6)8-9/h4H,2-3H2,1H3,(H2,6,8)	InChI=1S/C5H10N4/c1-2-3-9-4-7-5(6)8-9/h4H,2-3H2,1H3,(H2,6,8)
