16
gdb 124864	3.65413	1.30521	1.04725	3.1107	70.51	-0.2796	-0.0681	0.2116	1119.8161	0.123579	-434.00677	-433.998918	-433.997974	-434.040111	29.084	
C	-0.0345876463	 1.4962318792	-0.0962316743	-0.465338
C	 0.0086168759	-0.0172717613	-0.0110147667	 0.228
C	 1.3446485437	-0.7283004617	-0.1760923114	-0.287848
C	 0.7029480894	-0.6706074295	 1.1759151441	-0.287858
C	-1.1785458764	-0.7094666607	-0.5448923033	 0.391143
N	-1.366313193	-2.0015777723	-0.5787556686	-0.17805
O	-2.5845658839	-2.160231632	-1.1502110399	-0.135744
N	-3.1056383299	-0.9111180814	-1.4510608921	 0.038174
N	-2.2687081602	-0.0449725865	-1.0908011814	-0.221161
H	 0.883649015	 1.9174794077	 0.321827942	 0.117118
H	-0.1256958036	 1.8358341518	-1.1322155443	 0.136353
H	-0.8826731563	 1.9039627818	 0.461807573	 0.136355
H	 1.3403265991	-1.6761588796	-0.7014011671	 0.140637
H	 2.2066286291	-0.0993676976	-0.3699326012	 0.123785
H	 1.1192762483	-0.0017580813	 1.9211885929	 0.12379
H	 0.2625064492	-1.5793388766	 1.5691413784	 0.140643
27.3938	178.8816	185.0968	223.6947	303.9767	325.3576	438.2314	456.0229	548.3263	672.6676	721.2467	782.3914	790.8575	845.8241	846.1479	954.4892	962.1336	969.9294	1051.4762	1063.113	1070.4749	1089.7254	1090.1615	1123.8933	1199.8358	1216.6444	1297.184	1352.261	1423.0111	1464.2526	1477.3274	1487.8039	1493.9812	1508.4532	1587.4174	3042.5745	3111.3829	3118.3558	3138.3769	3141.0797	3224.8775	3238.5632
CC1(CC1)C1=NON=N1	CC1(CC1)c1nonn1	
InChI=1S/C5H7N3O/c1-5(2-3-5)4-6-8-9-7-4/h2-3H2,1H3	InChI=1S/C5H7N3O/c1-5(2-3-5)4-6-8-9-7-4/h2-3H2,1H3
