16
gdb 36556	8.78245	0.47902	0.46884	3.7377	81.14	-0.2658	0.004	0.2698	2207.5931	0.122833	-400.709102	-400.699673	-400.698728	-400.746547	31.76	
N	 0.1719948313	-1.1572886771	-0.461490572	-0.298991
C	 0.1899253712	-0.0020390964	-0.4715679328	 0.255861
C	 0.2298323128	 1.4580886244	-0.4604486313	-0.324863
C	 1.124653849	 2.0041647918	 0.6837212449	-0.356144
C	 1.159270762	 3.459582858	 0.6918416422	 0.048933
C	 1.174565376	 4.6637696305	 0.6670651718	 0.146116
C	 1.1705381249	 6.1017878523	 0.6579073894	-0.119612
C	 2.4247888649	 6.8811650776	 0.6238187494	-0.158062
O	 1.6197383278	 6.756616974	-0.540225451	-0.212655
H	 0.6036996306	 1.8140278216	-1.4254948404	 0.169454
H	-0.78867862	 1.8434533762	-0.3513182895	 0.16628
H	 0.7478028074	 1.6310226231	 1.6428135438	 0.156541
H	 2.1370229108	 1.6000487797	 0.5711338427	 0.156484
H	 0.2984204567	 6.5707355246	 1.1121461561	 0.12039
H	 2.445256526	 7.8684975529	 1.0832889402	 0.123511
H	 3.3735825286	 6.3489596966	 0.5993430964	 0.126759
9.6484	52.5027	68.5519	134.2213	167.3904	211.9293	323.7848	401.7838	425.8399	489.1527	537.0642	563.2922	738.9608	764.9472	838.3524	904.5749	950.8737	993.034	1010.9386	1033.4676	1085.3007	1150.2357	1160.1095	1186.3181	1198.4421	1278.4403	1289.8978	1306.6453	1369.3459	1407.9029	1467.0263	1478.1389	1519.6979	2363.995	2368.5736	3039.7572	3062.6007	3072.467	3087.7314	3105.9707	3116.5667	3181.9889
N#CCCC#CC1CO1	N#CCCC#C[C@H]1CO1	
InChI=1S/C7H7NO/c8-5-3-1-2-4-7-6-9-7/h7H,1,3,6H2	InChI=1S/C7H7NO/c8-5-3-1-2-4-7-6-9-7/h7H,1,3,6H2/t7-/m0/s1
