20
gdb 64469	2.63222	1.48686	1.22539	1.3041	76.52	-0.2439	0.0158	0.2597	1107.1237	0.171233	-440.292579	-440.283861	-440.282917	-440.325612	33.543	
C	 0.219706527	 1.4838522321	 0.0138050713	-0.399517
C	-0.1352479062	-0.0127764412	-0.0202915992	 0.230029
C	-1.6663241937	-0.1948391371	-0.0514642814	-0.392865
C	 0.4868662998	-0.6134645184	-1.2923975589	-0.106141
O	 0.214523162	-1.9976662128	-1.4587154644	-0.220517
C	 1.0130818746	-2.8165016989	-0.6823403455	 0.015547
O	 0.6342793867	-2.9159165826	 0.6871817283	-0.228347
C	 0.6035110041	-1.8002342824	 1.4739897525	 0.110158
N	 0.3439676466	-0.5917315034	 1.2357404151	-0.263963
H	 1.3040997717	 1.6251210319	 0.0633535388	 0.114397
H	-0.1582654975	 2.0016177516	-0.8737372896	 0.106882
H	-0.2172168524	 1.9468921609	 0.9016194145	 0.127225
H	-2.0994236003	 0.3531841767	-0.8946918565	 0.108871
H	-1.9248959866	-1.2507982822	-0.1567867444	 0.132193
H	-2.1065903588	 0.1853753825	 0.8735304589	 0.123411
H	 0.0685215363	-0.1163862658	-2.1727924769	 0.110771
H	 1.5754954175	-0.4481401678	-1.2875259677	 0.092887
H	 0.917324355	-3.8329016562	-1.0673032425	 0.125133
H	 2.0628874924	-2.4822427881	-0.7210858458	 0.093896
H	 0.8147999121	-2.1003382789	 2.5013160135	 0.11995
77.1798	156.5853	223.344	259.1801	278.2516	301.9342	307.3441	369.3889	395.3078	461.3153	481.8465	581.7902	605.1999	735.0202	792.3239	883.6559	899.7064	934.9521	945.5449	967.5669	989.4968	1017.9386	1049.8173	1072.9597	1143.9424	1204.2784	1213.1577	1229.8606	1257.9939	1309.8967	1349.4031	1389.5433	1397.4863	1418.7987	1435.3127	1452.5007	1477.1854	1485.9253	1488.1783	1496.4829	1505.0835	1511.5365	1754.1298	2969.5592	2987.5604	3036.8265	3043.2825	3083.6502	3106.5817	3115.7421	3122.7442	3125.5937	3127.5382	3135.2178
CC1(C)COCOC=N1	CC1(C)COCOC=N1	
InChI=1S/C6H11NO2/c1-6(2)3-8-5-9-4-7-6/h4H,3,5H2,1-2H3	InChI=1S/C6H11NO2/c1-6(2)3-8-5-9-4-7-6/h4H,3,5H2,1-2H3
