15
gdb 57180	2.97777	1.26853	0.89455	1.3536	64.84	-0.271	-0.0948	0.1762	1203.7393	0.110893	-491.150339	-491.140954	-491.14001	-491.186716	32.311	
C	-1.3452301363	 0.8992263146	-0.4273975756	-0.338573
N	-0.2568396402	-0.0294285123	-0.0661724687	-0.222874
C	-0.2638794922	-0.4618303365	 1.3254416889	 0.490846
N	 0.7204601653	-1.3100344336	 1.6773713215	-0.555483
O	-1.1232552962	-0.054612048	 2.077377143	-0.385336
C	 0.6728977641	-0.4376092956	-0.9813073667	 0.356924
O	 1.608581824	-1.2037747594	-0.7704651928	-0.377105
C	 0.6156591124	 0.0627151545	-2.4413401098	 0.10162
O	-0.1762696244	 0.8069481349	-2.9478193476	-0.232182
H	-0.9431065609	 1.8481316774	-0.7818192081	 0.146093
H	-1.9742440832	 0.4736967897	-1.2090801543	 0.146274
H	-1.9254500172	 1.0528439682	 0.4784429744	 0.179511
H	 1.4082045279	-1.6114255317	 1.0000439597	 0.294097
H	 0.7226967671	-1.612839073	 2.6358156957	 0.268913
H	 1.4635420098	-0.3935052592	-2.9907881298	 0.127276
11.3365	66.0924	104.1324	166.6332	232.8198	248.5482	319.8942	372.1741	407.3053	445.1904	533.8054	565.2188	578.8069	687.3844	695.8059	712.65	783.4397	910.7317	1033.8249	1122.51	1156.3313	1156.6103	1209.2859	1340.6447	1368.285	1393.0876	1460.3826	1493.7055	1508.7212	1582.2419	1727.7444	1826.2776	1839.4831	2949.3661	3081.6139	3153.6842	3194.1766	3518.6825	3717.9064
CN(C(N)=O)C(=O)C=O	CN(C(=O)N)C(=O)C=O	
InChI=1S/C4H6N2O3/c1-6(4(5)9)3(8)2-7/h2H,1H3,(H2,5,9)	InChI=1S/C4H6N2O3/c1-6(4(5)9)3(8)2-7/h2H,1H3,(H2,5,9)
