16
gdb 5689	4.71865	2.03605	1.45932	1.9035	71.48	-0.1642	0.0492	0.2134	834.3308	0.135056	-342.807769	-342.801406	-342.800462	-342.837974	25.371	
C	 0.0307519743	 1.4356895952	 0.0867291207	-0.154575
C	 1.5102032077	 1.897831358	-0.119683341	-0.343889
C	 2.1906310787	 0.5771751047	 0.0499021953	 0.262588
C	 1.3088214371	-0.4622486524	-0.0703124769	 0.303539
N	-0.0128450598	-0.0051774831	-0.2957989439	-0.403152
C	 2.0398425307	-1.6781651267	-0.0787083878	-0.313877
C	 3.372254905	-1.3150554424	 0.0280219765	-0.070057
N	 3.4619196645	 0.0579878895	 0.0763255724	-0.366385
H	-0.2315876162	 1.5676171932	 1.146603177	 0.09569
H	-0.6758847602	 2.0146588246	-0.5139886907	 0.103447
H	 1.656470775	 2.3182320695	-1.1258978928	 0.108259
H	 1.7851186785	 2.6772049794	 0.5994387196	 0.101388
H	-0.7199975082	-0.5081967553	 0.227501171	 0.223231
H	 1.6670726147	-2.6880485934	-0.1492576067	 0.086811
H	 4.2573031565	-1.9270946247	 0.0997559505	 0.111236
H	 4.3149638818	 0.5730269537	 0.1997656069	 0.255747
164.6105	199.3735	290.8875	405.5758	430.0482	575.9931	621.4457	662.9735	681.7555	712.0108	722.8761	790.3205	827.9467	873.1419	933.7636	943.3084	1025.6006	1071.6587	1075.0705	1091.0968	1150.783	1185.124	1224.2424	1262.9581	1305.125	1330.1558	1351.5475	1406.1426	1461.0689	1478.2074	1494.8286	1515.6496	1540.4614	1628.722	2985.8831	2991.9542	3051.6719	3084.2021	3246.179	3266.0822	3532.2937	3689.9461
C1CC2=C(N1)C=CN2	C1Cc2c(N1)cc[nH]2	
InChI=1S/C6H8N2/c1-3-7-6-2-4-8-5(1)6/h1,3,7-8H,2,4H2	InChI=1S/C6H8N2/c1-3-7-6-2-4-8-5(1)6/h1,3,7-8H,2,4H2
