24
gdb 12699	3.10054	1.62305	1.27881	0.1582	84.16	-0.2902	0.0734	0.3636	1095.6343	0.224126	-314.299616	-314.290378	-314.289434	-314.332844	35.518	
C	-0.8366107978	 1.2138914335	-0.0031717685	-0.42095
C	 0.0879089662	-0.0025080519	-0.000086158	 0.057592
C	 1.1429498408	-0.0017556161	-1.1354697849	-0.216362
C	 2.323189094	-0.8664685586	-0.6166975315	-0.216362
C	 1.9102707535	-1.3376776059	 0.8009303252	 0.057592
C	 3.0864333294	-1.6603617006	 1.7211969347	-0.42095
C	 0.9191835134	-0.2477749251	 1.2861524201	 0.000577
C	 1.6045230095	 1.0136328137	 1.8295323261	-0.398744
H	-0.2739800421	 2.1498865064	 0.0770971885	 0.114065
H	-1.4144772777	 1.2597425573	-0.9327957823	 0.109418
H	-1.5508125038	 1.1795363984	 0.8272626613	 0.107726
H	-0.5388852566	-0.8955722088	-0.1317837625	 0.065261
H	 0.7221299757	-0.3811023267	-2.0714781994	 0.091888
H	 1.4744183585	 1.0224948502	-1.3404522339	 0.093169
H	 2.5431914334	-1.7153199155	-1.2710333556	 0.091889
H	 3.2431662304	-0.2733943617	-0.5630021311	 0.093169
H	 1.3185870376	-2.2564657472	 0.6846655095	 0.065261
H	 3.7506330055	-0.798781077	 1.8461006155	 0.114065
H	 2.7468171081	-1.9691507094	 2.7162828613	 0.107726
H	 3.6878440603	-2.4785288727	 1.3099301567	 0.109418
H	 0.2761751516	-0.6492846911	 2.079782814	 0.056227
H	 2.268287979	 1.4763320094	 1.0906562073	 0.112558
H	 0.8675451335	 1.7660060105	 2.1255469632	 0.112883
H	 2.2064018474	 0.7850859589	 2.7140291044	 0.112883
90.3108	117.763	201.4981	223.024	233.6625	239.8886	295.8486	305.1888	352.2524	461.3531	491.7605	594.1882	602.87	763.7618	802.4283	814.7195	871.6681	906.8498	953.8447	971.1333	993.6412	1029.3718	1032.989	1047.4035	1056.9371	1106.4229	1126.5447	1180.2991	1188.3339	1221.647	1245.5075	1284.4016	1297.3202	1311.3717	1334.289	1339.1506	1378.1509	1380.5966	1386.0404	1407.892	1411.6913	1417.9439	1487.1007	1489.4989	1493.9332	1496.8611	1497.8693	1506.4569	1510.5599	1514.3141	2993.0414	2998.0299	3023.4761	3025.1716	3026.6352	3031.75	3034.5823	3045.6373	3067.7429	3087.7698	3088.9328	3089.2345	3094.0415	3097.5892	3100.2288	3107.3075
CC1CCC(C)C1C	C[C@H]1CC[C@@H](C)[C@H]1C	
InChI=1S/C8H16/c1-6-4-5-7(2)8(6)3/h6-8H,4-5H2,1-3H3	InChI=1S/C8H16/c1-6-4-5-7(2)8(6)3/h6-8H,4-5H2,1-3H3/t6-,7+,8-
