16
gdb 45823	2.53176	1.91147	1.22683	4.2182	71.12	-0.2235	-0.0223	0.2013	986.9942	0.12698	-437.904575	-437.897372	-437.896428	-437.936787	27.391	
O	 0.0324438467	-0.0342352126	-0.1685867687	-0.354156
C	-0.0171266681	 1.1709922189	-0.0450883506	 0.414293
N	-1.2081778098	 1.8571893717	-3.2134*^-6	-0.346009
C	-1.3325950671	 3.2494077819	 0.0330685182	 0.01904
C	-0.2900244905	 4.0815500847	 0.0218122076	-0.124047
C	 1.1176688629	 3.5788761475	 0.0221594983	-0.150781
C	 1.8075611663	 3.526320419	 1.4126075267	-0.069663
O	 1.6771332589	 2.0887491313	 1.4669341776	-0.283975
C	 1.2383972915	 2.0320791611	 0.0912648783	 0.011978
H	-2.0358228735	 1.283748019	-0.0661610864	 0.257581
H	-2.3572262714	 3.6012052609	 0.0567575548	 0.121016
H	-0.4657037809	 5.1507107208	 0.0440867128	 0.101159
H	 1.7172464566	 4.0551148827	-0.758446195	 0.092342
H	 2.8603291427	 3.8380305309	 1.4151382306	 0.102278
H	 1.2775211734	 4.0181448295	 2.2347804087	 0.110209
H	 2.0061250922	 1.5912898026	-0.5552386096	 0.098734
62.8049	117.7137	234.4808	289.3752	426.2158	491.8312	522.1629	535.3706	587.8821	716.0378	744.9923	782.4527	812.4343	851.4578	930.071	947.343	986.6787	992.3505	1034.99	1050.8974	1074.8626	1122.5806	1162.4134	1193.2128	1245.443	1270.4546	1315.1597	1335.5109	1351.2369	1371.6372	1433.0176	1470.08	1520.8566	1729.6849	1805.5582	3011.4159	3040.3294	3064.9254	3076.6585	3190.4801	3211.1605	3623.3541
O=C1NC=CC2COC12	O=C1NC=C[C@H]2CO[C@@H]12	
InChI=1S/C6H7NO2/c8-6-5-4(3-9-5)1-2-7-6/h1-2,4-5H,3H2,(H,7,8)	InChI=1S/C6H7NO2/c8-6-5-4(3-9-5)1-2-7-6/h1-2,4-5H,3H2,(H,7,8)/t4-,5+/m0/s1
