19
gdb 54981	3.09768	1.06891	1.05812	2.4271	76.64	-0.2458	-0.0249	0.2209	1258.8759	0.156898	-423.018441	-423.009313	-423.008369	-423.053035	33.284	
C	 0.1387976224	-0.0087530922	 0.7405709663	-0.486287
C	-0.2782774657	 0.9690453463	-0.3353893208	 0.36465
O	-0.5939487157	 2.1152992642	-0.1053420032	-0.303592
C	-0.2671493026	 0.4863168374	-1.7618112957	-0.163253
O	 0.2884710608	-0.8106948666	-2.0373572245	-0.27468
C	-1.0988833646	-0.6441477238	-2.2250645246	 0.446964
C	-2.2101118215	-1.4155068307	-1.5020584719	-0.311304
C	-3.0881320199	-1.2142478254	-2.7746976237	-0.218461
C	-1.8214843014	-0.7731336111	-3.56836685	-0.305656
H	-0.4578931646	-0.9247523915	 0.7010517355	 0.146455
H	 1.1772700538	-0.314252388	 0.5728419329	 0.154279
H	 0.0395774646	 0.4649198449	 1.7177245451	 0.138545
H	-0.0273725982	 1.2670035784	-2.4834108187	 0.114227
H	-1.9269992814	-2.4608723609	-1.3472902477	 0.119469
H	-2.5884650462	-1.0074421074	-0.5625489036	 0.115708
H	-3.612364893	-2.0953853736	-3.1464405251	 0.110358
H	-3.8068226075	-0.4011573497	-2.6550326216	 0.117251
H	-1.8943786373	 0.1219683558	-4.1896994647	 0.114545
H	-1.3946843819	-1.585044226	-4.1646949542	 0.120782
58.1105	100.6254	109.1308	142.177	154.251	283.5352	360.4464	404.3769	477.5638	527.2015	539.9354	612.0826	716.7768	766.6765	798.2441	848.6425	891.2623	923.4906	927.948	985.1173	998.9021	1005.9308	1043.2287	1079.467	1137.2226	1156.4567	1207.2687	1225.6647	1244.9935	1254.7808	1266.142	1277.5528	1313.6469	1387.0791	1449.8722	1459.9617	1465.2867	1469.4633	1478.6592	1508.6172	1801.7825	3048.5039	3059.2401	3063.1895	3080.2304	3110.613	3112.6496	3116.9409	3122.2117	3138.776	3158.2635
CC(=O)C1OC11CCC1	CC(=O)[C@H]1OC21CCC2	
InChI=1S/C7H10O2/c1-5(8)6-7(9-6)3-2-4-7/h6H,2-4H2,1H3	InChI=1S/C7H10O2/c1-5(8)6-7(9-6)3-2-4-7/h6H,2-4H2,1H3/t6-/m1/s1
