16
gdb 79312	3.84915	1.24133	1.1457	4.113	75.01	-0.2632	0.0154	0.2786	1072.869	0.125716	-400.714564	-400.707212	-400.706268	-400.746321	28.649	
O	-0.1042012223	 1.4789751047	-0.0878812155	-0.43495
C	-0.0088454238	 0.0779596529	-0.094450759	 0.146651
C	-1.3320534153	-0.6668705836	-0.1153381398	-0.142345
C	-1.7591371346	-0.8122008565	-1.5680929099	-0.117932
C	-0.70822517	-0.1156356925	-2.4340200386	-0.226568
C	 0.3381609069	-0.6572420407	-1.4276916337	-0.185623
C	-0.7138179818	-1.7589694542	-0.9891221002	 0.286459
C	-0.6614801025	-3.1597697003	-0.8346816065	 0.116658
N	-0.6024123358	-4.3111748127	-0.7166197837	-0.365802
H	 0.7730496617	 1.8485334748	 0.0543899863	 0.288615
H	 0.621429309	-0.2957080689	 0.722714056	 0.086078
H	-2.0262727513	-0.8151501398	 0.700740702	 0.114355
H	-2.7794380542	-1.0682365717	-1.820516659	 0.114293
H	-0.6172268027	-0.5971120481	-3.4099551094	 0.113521
H	-0.7678408362	 0.9703715692	-2.5391202366	 0.115844
H	 1.3687908229	-0.8471245326	-1.7166323724	 0.090747
114.5297	153.0599	246.5504	270.0918	317.6432	448.3257	479.2444	537.6777	577.4877	631.1158	717.0066	736.296	819.1921	879.3301	908.2652	948.06	966.7782	979.9273	1008.593	1013.6038	1046.1011	1098.2913	1110.5928	1134.3745	1163.315	1182.5457	1224.6938	1248.6608	1265.6123	1304.0729	1336.2745	1418.3782	1438.9939	1490.4299	2339.4478	3027.3603	3067.5808	3128.2127	3153.591	3210.4767	3220.1998	3821.0933
OC1C2C3CC1C23C#N	O[C@H]1[C@H]2[C@H]3C[C@@H]1[C@@]23C#N	
InChI=1S/C7H7NO/c8-2-7-3-1-4(7)6(9)5(3)7/h3-6,9H,1H2	InChI=1S/C7H7NO/c8-2-7-3-1-4(7)6(9)5(3)7/h3-6,9H,1H2/t3-,4+,5-,6-,7+/m1/s1
