13
gdb 35892	2.09328	1.90668	1.15274	4.7688	61.61	-0.3154	-0.0272	0.2882	1003.1179	0.089658	-452.744777	-452.736903	-452.735959	-452.779845	27.055	
N	-0.2158793533	-1.1757169928	 0.0636520663	-0.305251
C	-0.1077847436	-0.0260962204	 0.0536998713	 0.301478
C	-0.0225880241	 1.4437315053	 0.0393568652	-0.077712
O	-0.5868707724	 2.0097132943	 1.2045461051	-0.22035
C	 0.4983504702	 2.2664676187	 2.0710466071	 0.004442
O	 1.5322392441	 2.7531821637	 1.2397732712	-0.22414
C	 1.4579924924	 2.0121319173	 0.0372440679	-0.070122
C	 2.5053707582	 0.98169861	-0.0345677885	 0.299165
N	 3.3543826316	 0.2018217558	-0.1003069553	-0.304228
H	-0.5789339388	 1.8161725786	-0.8243781607	 0.159152
H	 0.2123672309	 3.0465420233	 2.7775901992	 0.151096
H	 0.8112399228	 1.3487832076	 2.5930405112	 0.12821
H	 1.5962663717	 2.7039536185	-0.79821393	 0.158259
6.4445	119.684	164.3998	204.1194	271.3169	310.5557	455.6503	477.6991	582.9359	601.2586	728.1109	779.9623	838.8102	919.1988	985.3872	1001.7971	1045.1749	1081.6191	1099.9787	1186.3755	1231.8569	1260.8294	1301.4554	1349.5104	1369.6466	1416.6305	1537.0988	2364.5002	2365.7121	2991.3527	3077.7532	3092.0549	3136.2207
N#CC1OCOC1C#N	N#C[C@H]1OCO[C@H]1C#N	
InChI=1S/C5H4N2O2/c6-1-4-5(2-7)9-3-8-4/h4-5H,3H2	InChI=1S/C5H4N2O2/c6-1-4-5(2-7)9-3-8-4/h4-5H,3H2/t4-,5+
