15
gdb 87480	3.73438	1.23522	1.10917	4.1241	67.16	-0.2574	-0.0111	0.2463	1080.9447	0.110416	-457.663309	-457.655559	-457.654615	-457.69566	29.403	
O	-0.0973318596	 1.391173724	-0.0612093326	-0.41571
C	 0.0009486603	 0.001928296	 0.0076657575	-0.008304
C	-0.4140530219	-0.7127302092	 1.2917336028	-0.415589
C	-1.2795049057	-0.7388677971	 0.0700661157	 0.44945
C	-2.6977346228	-0.2532903982	-0.2413406929	-0.181859
O	-2.5057908116	-0.7456282053	-1.6356930058	-0.29281
C	-1.8792357311	-1.8266403013	-0.8278596066	-0.206846
C	-3.1767516382	-1.7127160121	 0.0342244022	 0.488934
O	-4.0665105284	-2.3460959244	 0.4920968085	-0.307863
H	 0.650385784	 1.7686035099	 0.4147004996	 0.293289
H	 0.8144217544	-0.4403118657	-0.5682106439	 0.099825
H	 0.1167117734	-1.613776639	 1.5822013085	 0.125541
H	-0.7368244345	-0.0821941525	 2.1140300824	 0.130001
H	-3.1531796818	 0.7230651712	-0.1008291462	 0.125329
H	-1.4081257465	-2.6534105964	-1.3547522692	 0.116611
104.9501	128.9683	184.1912	249.6607	306.6535	395.2238	433.0581	477.7347	543.7534	600.4898	704.9585	761.001	793.312	807.6119	829.3817	883.3542	947.4145	985.0391	1005.8787	1039.7467	1062.6503	1083.2277	1134.2059	1135.4872	1161.0301	1171.3108	1188.5211	1223.0268	1291.5936	1368.9799	1432.5919	1516.1253	1937.7666	3098.9939	3127.4309	3156.8436	3174.108	3218.3546	3802.4426
OC1CC11C2OC1C2=O	O[C@H]1C[C@]21[C@H]1O[C@@H]2C1=O	
InChI=1S/C6H6O3/c7-2-1-6(2)4-3(8)5(6)9-4/h2,4-5,7H,1H2	InChI=1S/C6H6O3/c7-2-1-6(2)4-3(8)5(6)9-4/h2,4-5,7H,1H2/t2-,4-,5+,6-/m0/s1
