18
gdb 15413	4.39197	0.9065	0.80081	4.443	70.27	-0.2452	-0.0169	0.2283	1393.0755	0.152184	-384.931117	-384.922173	-384.921229	-384.965461	31.462	
O	 0.0585035817	 1.4207010623	 0.0583457048	-0.419855
C	 0.0435838516	 0.010177862	 0.2009302437	-0.065653
C	-1.3265873888	-0.4846464651	-0.2545765828	-0.207888
C	-1.4411166372	-1.9919396789	-0.1514238061	-0.003549
C	-1.912045473	-2.6656983646	 1.0943671405	-0.297985
C	-2.7805000465	-2.7317840295	-0.1587519694	-0.119111
C	-4.0696759966	-2.0057776385	-0.1709966163	 0.165391
O	-5.0524436667	-2.3785126406	-0.7644507968	-0.270666
H	 0.9171907405	 1.7450557987	 0.3445725139	 0.287721
H	 0.8304475419	-0.4635102414	-0.409383155	 0.085639
H	 0.2173161553	-0.2918879068	 1.2462346113	 0.089993
H	-2.0868767125	 0.014390496	 0.3544900579	 0.112047
H	-1.4879301769	-0.1586476721	-1.2886840796	 0.118265
H	-0.6737358718	-2.5258736489	-0.7077118201	 0.099243
H	-1.4466423545	-3.5879402949	 1.4222457427	 0.127458
H	-2.27292834	-2.0337425462	 1.9009013877	 0.124347
H	-2.8127976494	-3.6711219938	-0.6999693514	 0.106886
H	-4.089719937	-1.0709115677	 0.434454925	 0.067718
71.4818	90.444	96.0391	151.1826	255.426	259.4374	272.0661	368.9946	404.5793	468.093	535.3007	793.6809	819.0042	844.9451	873.6668	925.7001	967.8886	1027.2689	1048.4484	1054.9344	1075.8735	1089.046	1139.9353	1176.4244	1195.2209	1225.5448	1238.905	1249.037	1314.2958	1328.5356	1347.8598	1418.0121	1449.1543	1463.0118	1486.5097	1495.1072	1527.7149	1815.0468	2867.591	2960.4312	2988.9065	3043.5924	3088.0646	3128.7144	3131.7944	3177.3022	3218.7389	3832.1594
OCCC1CC1C=O	OCC[C@H]1C[C@H]1C=O	
InChI=1S/C6H10O2/c7-2-1-5-3-6(5)4-8/h4-7H,1-3H2	InChI=1S/C6H10O2/c7-2-1-5-3-6(5)4-8/h4-7H,1-3H2/t5-,6-/m0/s1
