20
gdb 10080	3.13004	1.19074	0.94586	2.2555	72.78	-0.244	-0.0227	0.2214	1269.8009	0.173585	-386.14301	-386.132836	-386.131892	-386.179403	34.5	
C	 1.0335760076	 1.9071181526	-0.0510950478	-0.393647
C	 0.5807709075	 0.45043644	 0.0639863995	-0.166971
C	 0.9125244703	-0.3832581088	-1.1776166818	 0.10951
C	 0.5126075766	-1.8631431623	-0.9765274672	-0.274206
C	 0.8106517531	-2.7238978546	-2.1817593502	 0.145716
O	 1.6435785129	-3.5953809198	-2.2089549787	-0.244636
O	 0.2118328909	 0.1587132006	-2.2947014366	-0.25248
C	 1.004950535	 0.4204046716	-3.433123584	-0.245366
H	 2.1214837397	 1.9790187068	-0.1619014184	 0.111911
H	 0.5711065449	 2.3860617148	-0.9182924191	 0.131001
H	 0.7532621259	 2.4762797833	 0.8400710571	 0.115531
H	 1.0451070994	-0.0234751494	 0.9370570933	 0.098409
H	-0.5043384036	 0.4077999292	 0.220094587	 0.106432
H	 1.9960037294	-0.3323296877	-1.3632928406	 0.081993
H	 1.0392149203	-2.2804918113	-0.1135190172	 0.117386
H	-0.5686743613	-1.8920889074	-0.7883713222	 0.118979
H	 0.1941584143	-2.4951101492	-3.0788521061	 0.085443
H	 1.795212118	 1.1553226311	-3.2224452444	 0.112499
H	 1.4785419073	-0.489324603	-3.8319207829	 0.112438
H	 0.3401848719	 0.8294637838	-4.1984183796	 0.13006
34.3464	64.534	86.1976	114.2831	168.1488	198.6795	228.2372	267.9657	324.314	358.7818	452.2644	490.1741	536.163	762.1189	842.5943	870.3318	927.3003	957.5966	1030.2646	1041.2875	1099.8407	1121.2052	1134.1688	1162.8478	1182.5807	1209.9093	1241.6607	1276.536	1309.8201	1335.8462	1378.5907	1398.9241	1408.3723	1427.6273	1455.674	1477.1379	1484.5473	1489.01	1497.5968	1507.916	1513.6252	1826.505	2890.4474	2979.3766	2994.2288	3026.6019	3032.2467	3032.4282	3036.4925	3067.3751	3102.1112	3105.4889	3112.1314	3120.7057
CCC(CC=O)OC	CC[C@@H](CC=O)OC	
InChI=1S/C6H12O2/c1-3-6(8-2)4-5-7/h5-6H,3-4H2,1-2H3	InChI=1S/C6H12O2/c1-3-6(8-2)4-5-7/h5-6H,3-4H2,1-2H3/t6-/m0/s1
