17
gdb 71143	3.013	1.74783	1.39642	5.1181	71.34	-0.2447	0.0217	0.2665	951.4666	0.137558	-418.008142	-418.001065	-418.000121	-418.039273	28.713	
C	-0.0532835641	 1.5515823462	 0.0362225659	-0.490255
C	 0.0681704421	 0.0475443529	 0.0392186268	 0.285782
C	-1.2145686174	-0.8388663233	 0.2681002879	-0.285179
C	-0.3641209475	-1.7240294524	 1.1852621176	-0.05132
C	 0.723496798	-0.7125663361	 1.2325535024	-0.076113
N	 0.9978323465	-2.0141532306	 0.6291808468	-0.162975
C	 1.126589375	-1.8286405571	-0.8031575965	 0.403765
O	 1.4464244703	-2.6832545396	-1.5833928175	-0.355827
N	 0.8383918831	-0.4980113472	-1.0789577562	-0.344802
H	 0.9364750525	 2.0162321232	-0.0096076379	 0.136171
H	-0.6340878315	 1.9003799744	-0.8247757342	 0.125354
H	-0.5599184332	 1.8991639651	 0.9412181435	 0.128406
H	-1.969045622	-0.3100785882	 0.8571483753	 0.113695
H	-1.6788827782	-1.2828741924	-0.6181041141	 0.107046
H	-0.7165103964	-2.4118611904	 1.943130302	 0.113402
H	 1.3513788566	-0.330569024	 2.0285445149	 0.10561
H	 0.5598887863	-0.2969880306	-2.0300491667	 0.247242
147.7437	225.6916	252.2792	292.7222	368.9741	455.214	504.6919	558.8219	611.8809	677.8613	699.6803	746.235	807.5695	854.7243	861.0563	877.0636	930.4267	950.4332	969.7667	993.3453	1006.0111	1051.8522	1116.9352	1125.3182	1149.0046	1211.8254	1234.7443	1254.8367	1272.236	1286.286	1342.4182	1391.6323	1417.9441	1483.4197	1489.0088	1495.1852	1872.8159	3035.0041	3047.5973	3101.4524	3107.2352	3116.7728	3185.5591	3203.7802	3595.711
CC12CC3C1N3C(=O)N2	C[C@]12C[C@@H]3[C@H]1N3C(=O)N2	
InChI=1S/C6H8N2O/c1-6-2-3-4(6)8(3)5(9)7-6/h3-4H,2H2,1H3,(H,7,9)	InChI=1S/C6H8N2O/c1-6-2-3-4(6)8(3)5(9)7-6/h3-4H,2H2,1H3,(H,7,9)/t3-,4-,6+,8?/m1/s1
