18
gdb 15044	3.00659	1.5594	1.15252	1.6486	73.25	-0.2577	0.0493	0.307	1079.0901	0.151452	-347.749129	-347.740239	-347.739295	-347.782741	32.193	
C	 0.1647275389	 1.4373384011	-0.1435636107	-0.393876
C	-0.0503030576	-0.0728742963	-0.0451883131	-0.16522
C	-1.5410665373	-0.4886532514	 0.0460276182	-0.200708
C	-2.2932430334	-0.0647047111	-1.1326852961	 0.351353
C	-2.9017005575	 0.2981744158	-2.1040425042	-0.477396
C	-1.6412123905	-1.9899256657	 0.3030482822	 0.091507
C	-2.6754142312	-2.861825123	-0.261569221	-0.191205
O	-1.3410297899	-2.8602804446	-0.7827432733	-0.232091
H	 1.2310663043	 1.6740523498	-0.2056888247	 0.115251
H	-0.3262619316	 1.8471902551	-1.0307326896	 0.133647
H	-0.2412909878	 1.9548853489	 0.7330896443	 0.111749
H	 0.3896845801	-0.5798958494	-0.910223742	 0.124727
H	 0.4592969066	-0.464520275	 0.8438678487	 0.095646
H	-1.9765786165	 0.0085636436	 0.926520269	 0.105726
H	-3.44012069	 0.6170183156	-2.9620962185	 0.198179
H	-1.1845830061	-2.2871153113	 1.2497802087	 0.092323
H	-2.9652110973	-3.7649363704	 0.2738325665	 0.112085
H	-3.4272308931	-2.4368193918	-0.9220366943	 0.128304
69.266	108.4115	142.8696	182.6542	195.8992	254.0852	320.7884	377.6929	426.4978	545.6203	622.9529	643.5747	651.2385	754.4375	794.8414	870.012	895.0655	943.3596	974.332	1038.2342	1060.1707	1090.7975	1125.6267	1144.3985	1166.7586	1176.5629	1266.5996	1291.3381	1303.202	1357.314	1368.5564	1413.657	1428.2151	1488.2353	1497.4371	1507.4109	1523.7105	2233.8774	2990.9422	3031.2229	3034.7229	3078.1255	3084.1055	3093.5132	3103.3907	3118.2758	3187.4894	3502.3266
CCC(C#C)C1CO1	CC[C@@H](C#C)[C@H]1CO1	
InChI=1S/C7H10O/c1-3-6(4-2)7-5-8-7/h1,6-7H,4-5H2,2H3	InChI=1S/C7H10O/c1-3-6(4-2)7-5-8-7/h1,6-7H,4-5H2,2H3/t6-,7-/m1/s1
