20
gdb 63482	3.17239	1.06033	0.91328	5.1741	80.01	-0.2742	0.0316	0.3058	1339.5329	0.167217	-403.161372	-403.150845	-403.149901	-403.19725	37.663	
C	 0.0594455599	 1.4627166206	-0.2323372598	-0.454916
C	-0.0250329389	-0.0171208897	 0.0920680468	 0.325933
C	-1.1450646213	-0.7107594196	-0.6645672058	-0.461211
O	 1.2314387988	-0.7237634692	 0.1165301405	-0.315789
C	 0.5370211259	-0.5617178128	 1.3563954923	 0.322941
C	 1.2165397915	 0.3082343805	 2.3967152189	-0.474255
C	-0.0357719231	-1.8553189939	 1.9530550422	-0.404035
C	 0.992769267	-2.684575914	 2.5825723511	 0.277226
N	 1.8058653272	-3.333296931	 3.0856065447	-0.310907
H	 0.8813845881	 1.9615088651	 0.2789229092	 0.130652
H	 0.2066371618	 1.5917921666	-1.3098104036	 0.131638
H	-0.8753490598	 1.9663981786	 0.0368360318	 0.123496
H	-1.0891671792	-0.4425415356	-1.7247006174	 0.131193
H	-1.0823358976	-1.7973399084	-0.6033708809	 0.132638
H	-2.1253684511	-0.3904211128	-0.2951726776	 0.124689
H	 1.7297982508	 1.1541760365	 1.9425145294	 0.136648
H	 0.4885390647	 0.6866428172	 3.122828543	 0.1222
H	 1.9614896418	-0.2786773264	 2.9428941797	 0.155623
H	-0.7862603446	-1.6044351649	 2.7126486134	 0.152488
H	-0.5349176018	-2.4548879067	 1.1914557521	 0.15375
43.9184	86.199	127.457	138.8333	158.5987	181.1919	276.1594	322.5842	360.0219	382.227	387.2509	416.2943	461.7035	493.8722	567.6009	699.461	745.7303	868.042	893.558	914.4722	942.0855	954.4969	999.5117	1023.6126	1087.7539	1147.194	1157.1377	1192.6477	1240.16	1260.3268	1322.7456	1406.8891	1411.7332	1424.0931	1439.0494	1451.9025	1472.8949	1480.06	1483.9782	1502.4185	1510.2756	1525.3215	2362.5743	3038.9181	3042.8483	3045.1772	3049.734	3096.6325	3102.3566	3106.3072	3128.5431	3146.9352	3151.2177	3167.2224
CC1(C)OC1(C)CC#N	CC1(C)O[C@]1(C)CC#N	
InChI=1S/C7H11NO/c1-6(2)7(3,9-6)4-5-8/h4H2,1-3H3	InChI=1S/C7H11NO/c1-6(2)7(3,9-6)4-5-8/h4H2,1-3H3/t7-/m1/s1
