25
gdb 64428	2.39922	1.38076	1.13002	0.2348	93.48	-0.2332	0.022	0.2552	1252.8244	0.230042	-352.379438	-352.369984	-352.36904	-352.412816	37.939	
C	-0.249977547	 1.6035328009	-0.0386865819	-0.408985
C	-0.0567361555	 0.0774436577	 0.0102770031	 0.269744
C	-1.4439310455	-0.5946022383	 0.0127920583	-0.406501
C	 0.69851243	-0.4336602961	-1.2417658856	-0.189122
C	 2.1181815253	 0.0875176779	-1.5107655444	-0.204611
C	 3.1820858794	-0.3430513364	-0.4840810852	-0.244784
C	 3.067236108	 0.3288146729	 0.8637299623	-0.049657
C	 1.9786818139	 0.3399061276	 1.6326133524	-0.061867
C	 0.6645537157	-0.3381140541	 1.3226900971	-0.256513
H	 0.702061673	 2.1379753715	 0.0031377134	 0.120201
H	-0.7686423327	 1.9019144371	-0.9567191069	 0.103865
H	-0.8563918988	 1.9425050285	 0.809084241	 0.103667
H	-2.0010413866	-0.3508958466	-0.8985037938	 0.106247
H	-1.3575826955	-1.6857434674	 0.0689917482	 0.105911
H	-2.0424299056	-0.262405455	 0.8681143313	 0.105485
H	 0.7408875116	-1.5312916563	-1.187154818	 0.083358
H	 0.0804951373	-0.2034040319	-2.119887514	 0.085559
H	 2.4238202381	-0.28772412	-2.495536429	 0.089172
H	 2.1156715636	 1.1807598952	-1.5908266883	 0.098952
H	 3.1282821883	-1.4360413741	-0.3611654542	 0.103068
H	 4.1744860135	-0.1400739877	-0.9001338614	 0.094125
H	 3.9554109741	 0.8433288457	 1.2241753033	 0.081183
H	 2.0309677662	 0.8670201363	 2.5827794164	 0.081378
H	-0.024289022	-0.1611573162	 2.1565904365	 0.090033
H	 0.8168179312	-1.4275966613	 1.2899218993	 0.100094
96.9904	135.5253	219.6711	250.627	261.9294	279.2239	309.0306	362.1432	372.916	400.2199	408.2248	483.5662	524.6724	649.355	702.758	755.6874	815.8368	859.9667	876.4506	891.2666	936.015	944.8619	982.7267	986.4744	999.2785	1020.7317	1040.4132	1062.4354	1099.7511	1141.0385	1180.7015	1193.2241	1234.6663	1254.9058	1281.2019	1301.7096	1326.2412	1349.3181	1368.6077	1383.8374	1391.7939	1397.5939	1422.8638	1425.2483	1470.6707	1476.3713	1483.1639	1484.3381	1493.929	1496.9216	1502.9127	1516.0427	1724.9313	2987.6719	2991.8561	2997.9268	3021.016	3021.059	3028.7524	3036.8846	3052.2792	3062.5144	3066.0684	3085.4197	3090.1359	3094.1608	3117.3123	3133.8637	3158.9633
CC1(C)CCCC=CC1	CC1(C)CCCC=CC1	
InChI=1S/C9H16/c1-9(2)7-5-3-4-6-8-9/h3,5H,4,6-8H2,1-2H3	InChI=1S/C9H16/c1-9(2)7-5-3-4-6-8-9/h3,5H,4,6-8H2,1-2H3
