21
gdb 62726	2.32733	1.67769	1.32387	1.1534	83.72	-0.2139	0.0213	0.2352	1079.0104	0.181407	-387.092991	-387.083966	-387.083021	-387.125657	35.886	
C	-0.1048779443	 1.5500458172	-0.0254199135	-0.460368
C	 0.0353827871	 0.0466789827	 0.0286540108	 0.359479
O	-1.1121907573	-0.6228026469	-0.439852431	-0.464485
C	 1.3527525871	-0.6903440352	-0.2475962279	-0.19986
C	 2.6292334072	 0.0580942178	-0.1066876411	-0.08059
C	 2.8036231468	 0.5139590471	 1.1372586565	-0.08111
C	 1.6681743254	 0.1071479365	 2.0514044058	-0.337102
C	 0.7137833776	-0.6986865616	 1.1511298422	 0.279911
C	 0.070717312	-1.9266853502	 1.7542695157	-0.480969
H	 0.8138269505	 2.0624310467	 0.262179912	 0.13013
H	-0.3546817112	 1.8682714822	-1.0457601565	 0.101012
H	-0.9159034451	 1.8788157196	 0.6328456514	 0.122232
H	-1.2163639256	-0.400372827	-1.3716256531	 0.278783
H	 1.281142141	-1.5549991208	-0.9003486307	 0.080597
H	 3.3100106616	 0.2225502102	-0.9349002944	 0.090825
H	 3.6349092993	 1.1232985952	 1.4739750474	 0.091501
H	 2.0235026408	-0.5097903682	 2.8884190266	 0.104272
H	 1.1754570895	 0.9762528263	 2.5081983301	 0.107659
H	-0.5472961966	-1.6594083204	 2.6201299841	 0.112879
H	-0.5703218417	-2.4347550517	 1.0332553676	 0.135738
H	 0.8365240257	-2.6302154694	 2.1005218882	 0.109463
182.6579	187.2602	192.2408	212.8204	234.045	277.1868	314.968	349.8997	393.1469	426.7491	454.4482	533.0038	625.7263	667.4284	713.4521	760.7015	809.6413	893.659	919.5894	949.4948	955.5617	966.3482	985.3273	994.8964	1033.2953	1077.9644	1102.8434	1125.2785	1154.6604	1164.8994	1196.1085	1254.6718	1275.2729	1286.6299	1324.1503	1369.1465	1406.3354	1412.453	1443.18	1475.1218	1491.9951	1495.2155	1496.3349	1507.1842	1664.4889	3006.8945	3023.689	3025.7895	3031.0734	3077.1722	3084.0508	3142.1532	3142.9256	3156.1778	3180.5241	3205.7907	3794.5867
CC1(O)C2C=CCC12C	C[C@@]1(O)[C@H]2C=CC[C@@]12C	
InChI=1S/C8H12O/c1-7-5-3-4-6(7)8(7,2)9/h3-4,6,9H,5H2,1-2H3	InChI=1S/C8H12O/c1-7-5-3-4-6(7)8(7,2)9/h3-4,6,9H,5H2,1-2H3/t6-,7+,8+/m0/s1
