17
gdb 50972	2.65534	0.8221	0.66311	2.7375	75.93	-0.2495	-0.0401	0.2095	1615.8198	0.131022	-421.805125	-421.794864	-421.79392	-421.842345	34.642	
O	-0.5302795592	 0.6506729627	 0.9002962722	-0.235926
C	 0.095366421	 0.9122317069	-0.0944592012	 0.150815
C	 1.3051787537	 1.8256831454	-0.1155317024	-0.28247
C	 1.2415283602	 2.9053965092	-1.2274840282	-0.185261
C	 2.4425082203	 3.8781400672	-1.0944546033	-0.282475
C	 2.3837541098	 5.042187187	-2.0640133091	 0.150813
O	 2.5405483135	 6.1916369535	-1.7422010955	-0.235922
C	 1.1921977593	 2.298130107	-2.5579868334	 0.329666
C	 1.1806025719	 1.7857064309	-3.6456781074	-0.470086
H	-0.1820242214	 0.4824230137	-1.0812001371	 0.095602
H	 1.397554605	 2.2949324578	 0.8674071682	 0.130038
H	 2.194336447	 1.2030197683	-0.2851865814	 0.133707
H	 0.3214695456	 3.4870334401	-1.076926443	 0.13144
H	 2.497702864	 4.2799739833	-0.079377639	 0.130041
H	 3.367079604	 3.3194348576	-1.2947323647	 0.13372
H	 2.1874471162	 4.7597010975	-3.1208974511	 0.095599
H	 1.1547460689	 1.3401626521	-4.6098747238	 0.210697
43.2132	53.4089	68.4045	98.6133	153.3465	156.2333	228.3043	317.6977	318.7047	472.9015	474.3768	546.0715	580.9805	646.5625	655.3755	808.4288	809.158	812.7387	961.4604	1015.8856	1018.9004	1081.5048	1101.2382	1122.3425	1201.969	1222.7075	1266.8145	1318.1214	1340.3937	1360.011	1423.792	1429.6221	1451.8143	1462.2502	1831.1028	1834.8439	2231.7991	2903.8125	2906.1088	3009.6492	3024.7944	3031.2939	3104.9731	3110.261	3499.943
O=CCC(CC=O)C#C	O=CCC(CC=O)C#C	
InChI=1S/C7H8O2/c1-2-7(3-5-8)4-6-9/h1,5-7H,3-4H2	InChI=1S/C7H8O2/c1-2-7(3-5-8)4-6-9/h1,5-7H,3-4H2
