15
gdb 29176	2.2894	1.85736	1.02934	6.9503	72.17	-0.1869	-0.0105	0.1764	1079.3491	0.113486	-450.155085	-450.146672	-450.145728	-450.188001	31.172	
N	 0.1500415688	 1.3931331712	 0.0794168374	-0.603974
C	 0.0026692253	 0.0032576108	 0.0135589339	 0.311977
C	-1.080809271	-0.7870020578	 0.0552444071	-0.166366
N	-0.6545798012	-2.1236757831	-0.0296780213	-0.375171
C	 0.7384095457	-2.1941321318	-0.0476446368	 0.448441
N	 1.5248034896	-3.1926598206	-0.0541755577	-0.548171
N	 1.150646569	-0.8302399997	-0.0566173684	-0.16016
C	 2.4610415129	-0.3526142681	-0.0211406463	 0.157934
O	 3.4582268482	-1.0190190203	-0.0856372632	-0.273664
H	 0.4918382206	 1.8017550034	-0.7862220087	 0.254751
H	-0.7237181648	 1.8398445202	 0.3268342108	 0.25501
H	-2.1240217397	-0.521347304	 0.0668456743	 0.132482
H	-1.1924931065	-2.8997859362	 0.3158266094	 0.25795
H	 0.994284326	-4.0625512211	-0.0453703332	 0.207918
H	 2.4628418472	 0.745729157	 0.0829920728	 0.101044
82.4279	171.5637	217.9549	225.8135	244.8991	279.1161	330.3563	366.1531	468.6957	550.7793	601.0944	635.9678	695.6234	732.1524	756.6497	769.5682	795.3593	818.3646	1025.0411	1042.2029	1082.7213	1109.277	1158.2144	1236.2963	1297.4965	1365.236	1392.6394	1429.5059	1453.7376	1638.9217	1717.5593	1754.3391	1837.7605	2992.0733	3280.9312	3488.2361	3495.7198	3606.4945	3667.669
NC1=CNC(=N)N1C=O	NC1=CN[C@H]([NH])N1C=O	
InChI=1S/C4H6N4O/c5-3-1-7-4(6)8(3)2-9/h1-2H,5H2,(H2,6,7)	InChI=1S/C4H7N4O/c5-3-1-7-4(6)8(3)2-9/h1-2,4,6-7H,5H2/t4-/m0/s1
