19
gdb 105940	4.24041	1.27857	1.2195	2.0119	77.37	-0.2412	0.0809	0.3221	1092.1008	0.159925	-385.810789	-385.803505	-385.80256	-385.842631	29.315	
C	 0.1016267773	 1.5159639721	 0.2440268816	-0.374449
C	-0.0694061898	 0.016939624	-0.0372732912	-0.327847
C	 0.6229074208	-0.4314429512	-1.285296337	 0.37252
C	 2.0821827762	-0.6971034829	-1.5974108676	-0.155251
C	 1.0315886266	-1.7986150072	-1.7873682345	-0.178326
C	 0.6612465587	-1.4890912184	-3.2636154581	 0.079903
O	 1.879421828	-1.1628026413	-3.9696878555	-0.293994
C	 2.0038202937	-0.0799799347	-3.0198353877	 0.081013
C	 0.4601149209	-0.0140470075	-2.7879533839	-0.171283
H	 1.1586145604	 1.7753153418	 0.3620220062	 0.119015
H	-0.2990692299	 2.1193669464	-0.5775054174	 0.117372
H	-0.4237623077	 1.8075162935	 1.1584752308	 0.112576
H	 0.3165802598	-0.5641367355	 0.8103135996	 0.101933
H	-1.1392899867	-0.2228345138	-0.106319082	 0.101029
H	 2.9269110627	-0.8029546588	-0.9298925447	 0.089112
H	 1.072577565	-2.7439067015	-1.2628178453	 0.089496
H	-0.03182041	-2.114158257	-3.824095278	 0.080117
H	 2.6693618239	 0.7221036457	-3.3344024822	 0.079821
H	-0.2184048697	 0.7094711964	-3.2334636032	 0.077244
89.6719	137.2151	195.0873	294.9408	360.6877	551.3424	559.1931	608.9254	754.854	758.1215	776.3971	812.6671	830.3488	838.3962	863.0306	873.0546	892.2574	922.6109	934.8721	953.225	997.5868	1024.2075	1027.5051	1059.2924	1088.907	1115.178	1157.1092	1164.4524	1173.1614	1204.1711	1207.1474	1257.5467	1264.1091	1306.0274	1315.4695	1353.3844	1409.5468	1453.4241	1478.6233	1498.9823	1508.0954	3010.6671	3034.8459	3043.5698	3102.9957	3108.6659	3133.4718	3134.2342	3150.7356	3199.7042	3209.2483
CCC12C3C1C1OC3C21	CC[C@@]12[C@H]3[C@@H]1[C@@H]1O[C@H]3[C@H]21	
InChI=1S/C8H10O/c1-2-8-3-4(8)7-5(8)6(3)9-7/h3-7H,2H2,1H3	InChI=1S/C8H10O/c1-2-8-3-4(8)7-5(8)6(3)9-7/h3-7H,2H2,1H3/t3-,4+,5-,6+,7-,8+
