19
gdb 37368	2.43065	1.96582	1.87951	0.4819	72.12	-0.2397	0.0757	0.3154	887.2456	0.163072	-423.012861	-423.006291	-423.005346	-423.043446	27.705	
C	 0.0067118759	 1.5108502367	 0.2975639218	-0.196018
C	 1.3895816184	 2.1377739403	-0.0227095358	-0.201379
C	 2.109026253	 1.4304192797	-1.1821405702	 0.039473
O	 2.1613342164	 0.0270910294	-0.8694873095	-0.267892
C	 0.8316619837	-0.4255387753	-1.1808047256	 0.039473
C	-0.0852043466	-0.0050321301	-0.021166395	-0.201379
C	 0.5483962508	 0.2478087206	-2.535905998	 0.027638
O	-0.0529483257	 1.5499160498	-2.4754590588	-0.245875
C	 1.3780083496	 1.4532022198	-2.5367740132	 0.027637
H	-0.2190204598	 1.666973804	 1.3579635759	 0.084994
H	-0.7584805984	 2.0370847297	-0.2704230768	 0.125818
H	 1.2788914623	 3.2076296148	-0.2321777215	 0.097889
H	 2.0523081306	 2.0485886203	 0.8448196877	 0.103567
H	 3.1387244791	 1.7839370322	-1.2845196736	 0.079275
H	 0.8691368474	-1.5136841196	-1.2821452449	 0.079275
H	 0.2353701606	-0.5913528998	 0.84672042	 0.103567
H	-1.1241769887	-0.2839339126	-0.2296614892	 0.097889
H	 0.3135454153	-0.3374930445	-3.4199556344	 0.103024
H	 1.8402432061	 1.8807333046	-3.4215525889	 0.103024
184.1779	230.8937	290.5296	369.1472	435.0029	501.3237	571.846	628.7027	720.6315	752.9299	804.1534	805.6461	839.2084	875.2234	886.3114	911.3999	912.2909	962.6216	986.8804	1032.4267	1036.2296	1062.587	1085.8871	1091.6372	1117.6558	1189.1488	1219.4105	1255.6808	1273.2138	1300.7291	1316.3225	1317.2089	1331.9207	1368.0398	1370.0075	1390.1494	1391.2012	1420.3145	1477.8281	1479.2832	1505.4275	3032.4671	3036.3172	3050.2946	3073.6694	3073.7672	3077.7426	3078.1566	3138.1564	3153.2675	3165.4506
C1CC2OC(C1)C1OC21	C1C[C@H]2O[C@@H](C1)[C@H]1O[C@@H]21	
InChI=1S/C7H10O2/c1-2-4-6-7(9-6)5(3-1)8-4/h4-7H,1-3H2	InChI=1S/C7H10O2/c1-2-4-6-7(9-6)5(3-1)8-4/h4-7H,1-3H2/t4-,5+,6+,7-
