21
gdb 103814	2.65161	1.07343	0.93291	1.7664	80.61	-0.2422	-0.0132	0.2291	1380.6373	0.179022	-424.242343	-424.23183	-424.230886	-424.277962	38.295	
C	-0.1807526507	 1.5603497487	 0.0536213138	-0.398736
C	 0.1867457005	 0.0807645017	-0.1203434309	-0.241287
C	 0.7901731544	-0.5145093757	 1.13563393	 0.414439
O	 2.0177510005	 0.0547598283	 1.5205046401	-0.471661
C	-0.0692073413	-1.0546840483	 2.2322940635	-0.346388
C	 0.7792350275	-2.0184176757	 1.4074288051	-0.175207
C	 0.1028202103	-2.9749653056	 0.4837542828	 0.385504
C	 0.9105003341	-4.1983304521	 0.0923105865	-0.483105
O	-1.0241606469	-2.7948010455	 0.0663811772	-0.328379
H	 0.7001313691	 2.1706247335	 0.2836450993	 0.107106
H	-0.6190624555	 1.9616515521	-0.8644261457	 0.120879
H	-0.9101303456	 1.697583937	 0.8594024051	 0.119327
H	-0.6987106143	-0.4956601779	-0.396317588	 0.138359
H	 0.9129498368	-0.0225225283	-0.9358140274	 0.100752
H	 1.8377521632	 0.9411349114	 1.8525055788	 0.286389
H	 0.2405909699	-0.8849110911	 3.2569713473	 0.114767
H	-1.1372969585	-1.1234699995	 2.0541754428	 0.136507
H	 1.6987001029	-2.3672932398	 1.86377869	 0.09829
H	 1.1653673736	-4.7831213112	 0.9837916495	 0.140456
H	 0.3395450017	-4.8158330488	-0.6017179918	 0.139209
H	 1.8579911084	-3.8957206932	-0.3681239679	 0.14278
58.7214	96.233	134.2769	142.8035	158.5507	223.8523	247.6165	259.9953	335.6765	346.8485	386.1054	440.2671	496.7262	595.5546	637.6795	700.1861	776.1071	795.6036	873.6594	911.0512	944.1154	969.3856	991.6289	1016.4743	1045.8605	1067.1082	1073.5994	1100.5907	1115.7906	1189.626	1229.4771	1295.9609	1304.2575	1339.4049	1375.8799	1387.3261	1405.6997	1411.7558	1462.8901	1467.0875	1475.2278	1486.4831	1502.0009	1510.9516	1783.8728	3029.2126	3034.002	3037.5535	3087.6244	3093.904	3109.4249	3120.7192	3133.3757	3153.4233	3177.6216	3232.6571	3802.2121
CCC1(O)CC1C(C)=O	CC[C@@]1(O)C[C@H]1C(=O)C	
InChI=1S/C7H12O2/c1-3-7(9)4-6(7)5(2)8/h6,9H,3-4H2,1-2H3	InChI=1S/C7H12O2/c1-3-7(9)4-6(7)5(2)8/h6,9H,3-4H2,1-2H3/t6-,7+/m0/s1
