15
gdb 133176	3.09052	1.36219	0.95092	0.3989	73.45	-0.2136	-0.0555	0.1581	1144.3954	0.113164	-458.113444	-458.105694	-458.10475	-458.14571	29.488	
C	-0.0325433745	 1.5252943991	 0.0295517164	-0.473406
C	-0.0050160698	 0.032793816	-0.0321974794	 0.323421
C	-0.0221934165	-0.6767654587	-1.1851877569	-0.349569
C	 0.0073663117	-2.1049507341	-1.1243172969	 0.350146
F	-0.0106367841	-2.7746197742	-2.2726616698	-0.067741
N	 0.0498787024	-2.7979472131	-0.0466762279	-0.256281
N	 0.0666239083	-2.0767173604	 1.0990592677	-0.319009
C	 0.0434909196	-0.6906324103	 1.2454136496	 0.324939
N	 0.0611987546	-0.0570925449	 2.3639486056	-0.554402
H	 0.84729195	 1.8954089916	 0.5655754055	 0.156871
H	-0.0677252056	 1.9669665657	-0.9685487977	 0.118069
H	-0.8964734766	 1.8613277154	 0.6119067867	 0.156857
H	-0.0577507711	-0.1951814702	-2.15579654	 0.124483
H	 0.1001070031	-2.6476876571	 1.9298620169	 0.2664
H	 0.0950937985	-0.6929927147	 3.1623308202	 0.199223
105.8108	160.1534	205.6114	293.1973	361.0266	366.0834	404.3791	468.0219	525.9333	540.1207	570.1072	645.1371	725.9005	755.9543	795.3342	805.3513	902.4607	966.5832	1022.3268	1066.7835	1104.6595	1166.5473	1250.5178	1276.1111	1365.1794	1411.1808	1442.7618	1460.6783	1463.0186	1482.602	1624.6808	1671.8621	1705.5921	3044.2652	3101.5281	3134.6674	3198.4767	3459.4718	3623.1411
CC1=CC(F)=NNC1=N	CC1=C(NN=C(C1)F)[NH]	
InChI=1S/C5H6FN3/c1-3-2-4(6)8-9-5(3)7/h2H,1H3,(H2,7,9)	InChI=1S/C5H7FN3/c1-3-2-4(6)8-9-5(3)7/h7,9H,2H2,1H3
