16
gdb 98342	3.51986	0.88635	0.74031	5.9847	66.74	-0.2894	-0.0214	0.268	1468.537	0.122026	-475.064378	-475.05451	-475.053566	-475.100411	33.341	
C	-0.0261645623	 1.3242858242	 0.0342835633	-0.247674
O	 0.0687005976	-0.1097251725	-0.0564780853	-0.226337
C	 0.6673270673	-0.5837667608	-1.1496315653	 0.420106
O	 1.1257230978	 0.0927444107	-2.0392357866	-0.36913
C	 0.7208842775	-2.1108374814	-1.1750036178	 0.023756
O	 1.2875596791	-2.5398531291	-2.3768304207	-0.423196
C	 1.5289050244	-2.6350361149	 0.0400782857	-0.354787
C	 1.5433169758	-4.0935711536	 0.0956952747	 0.273887
N	 1.5425877219	-5.247040788	 0.156019444	-0.300081
H	 0.9700308102	 1.7717910206	 0.0276639067	 0.151685
H	-0.6015077425	 1.7185714994	-0.8060431144	 0.153817
H	-0.533549362	 1.5255466406	 0.9766820937	 0.147597
H	-0.3094570716	-2.4836678352	-1.0857195146	 0.125843
H	 1.5601694786	-1.737998846	-2.8487994795	 0.302144
H	 2.5596304359	-2.2715197684	-0.033846198	 0.158963
H	 1.0969474123	-2.2456772355	 0.9669648738	 0.163407
47.8163	68.2034	102.9832	116.201	168.1085	199.4202	278.4205	355.1832	362.4321	391.2922	408.4619	461.1947	536.7299	683.0282	769.3798	874.7523	917.8359	974.1709	1008.269	1041.9577	1140.9426	1177.8566	1210.3623	1239.6092	1246.2281	1297.6988	1318.2164	1371.5436	1445.8512	1457.2699	1477.6847	1482.8638	1494.9168	1810.1766	2368.2617	3012.6258	3054.4764	3060.5638	3105.5061	3140.78	3172.987	3710.8425
COC(=O)C(O)CC#N	COC(=O)[C@@H](O)CC#N	
InChI=1S/C5H7NO3/c1-9-5(8)4(7)2-3-6/h4,7H,2H2,1H3	InChI=1S/C5H7NO3/c1-9-5(8)4(7)2-3-6/h4,7H,2H2,1H3/t4-/m0/s1
