19
gdb 79869	2.96141	1.56659	1.35473	0.8375	74.43	-0.2281	0.0714	0.2995	1021.1157	0.159661	-422.984068	-422.976227	-422.975283	-423.015926	31.187	
C	-0.1776115729	 1.5769710534	 0.0178935612	-0.42852
C	 0.0035621822	 0.067266912	 0.0417746836	-0.025094
C	 1.2238497487	-0.6021048902	-0.6560202556	-0.112732
C	 2.1640168029	-0.1738740895	 0.5192093853	-0.132028
C	 3.1346171669	-1.3242145882	 0.746751053	-0.123254
O	 2.2674974705	-2.460093429	 0.5624063421	-0.291319
C	 1.0277290224	-1.8466221539	 0.2552965434	 0.062934
C	 0.7929454991	-0.6137449052	 1.1748367133	 0.371553
O	 0.4384458614	-0.5872826353	 2.508564732	-0.481529
H	 0.7511019515	 2.1172156924	 0.2200074459	 0.116346
H	-0.5491070871	 1.9064595498	-0.958423463	 0.115242
H	-0.9108807422	 1.884973101	 0.7705292373	 0.127309
H	-0.9489127733	-0.4306899998	-0.1794896268	 0.066413
H	 1.4723294662	-0.604459334	-1.7149979163	 0.078842
H	 2.5299927162	 0.8465334541	 0.6083876749	 0.076902
H	 3.9566447584	-1.3592000965	 0.021039561	 0.10441
H	 3.5633655728	-1.3366291217	 1.7578798238	 0.097102
H	 0.2538395353	-2.5898934707	 0.06730296	 0.086524
H	 0.9072066709	-1.2983223887	 2.9604888749	 0.290897
178.7978	187.2529	218.9936	231.6702	255.7005	277.7188	402.3972	498.603	527.1554	651.5746	676.7847	750.1347	769.7495	798.0549	888.7956	919.4454	937.0536	958.8075	963.8469	993.1685	1018.9023	1066.0705	1069.5059	1075.5662	1100.9431	1134.3937	1145.4914	1177.1194	1187.2596	1221.5229	1228.3735	1273.3374	1275.6136	1334.0685	1359.9055	1385.7789	1415.8439	1450.5962	1493.4403	1503.9095	1523.2007	3009.4936	3025.1203	3037.445	3046.7112	3096.2826	3114.6238	3134.9132	3142.3921	3151.0678	3798.6586
CC1C2C3COC2C13O	C[C@H]1[C@H]2[C@@H]3CO[C@H]2[C@]13O	
InChI=1S/C7H10O2/c1-3-5-4-2-9-6(5)7(3,4)8/h3-6,8H,2H2,1H3	InChI=1S/C7H10O2/c1-3-5-4-2-9-6(5)7(3,4)8/h3-6,8H,2H2,1H3/t3-,4-,5-,6+,7-/m0/s1
