18
gdb 36332	5.14961	0.76535	0.71901	0.5414	85.53	-0.2267	0.0372	0.2639	1558.8299	0.145268	-364.711145	-364.701908	-364.700964	-364.745605	34.264	
C	 0.0678745038	-1.2436224708	-0.1237428477	-0.429733
C	 0.0298563162	-0.0430798775	-0.1048988068	 0.307711
C	-0.0177071724	 1.4156271919	-0.0535332804	-0.310161
N	 1.307276319	 1.9984918344	 0.076992829	-0.077247
C	 2.04756551	 1.7869899835	 1.3363428199	-0.174966
C	 2.5938078518	 3.2415629167	 1.2074067222	-0.175155
C	 1.3965384725	 3.4619551619	 0.2343217761	-0.180706
C	 2.6952968796	 4.062478384	 2.3927776899	 0.316766
C	 2.7709570285	 4.7434239085	 3.3810694641	-0.45925
H	 0.1006916249	-2.304619623	-0.1512837353	 0.198441
H	-0.4699641054	 1.8012066669	-0.9767636956	 0.135438
H	-0.6874701657	 1.7231776632	 0.7753708455	 0.107371
H	 1.393919585	 1.6846235799	 2.2164052041	 0.100672
H	 2.7689189508	 0.9663367745	 1.3211090114	 0.118622
H	 3.53624864	 3.2443050816	 0.6533195298	 0.115372
H	 1.58285401	 4.0206138124	-0.6877962563	 0.112127
H	 0.5343743828	 3.9012154293	 0.7611493393	 0.097618
H	 2.8422485085	 5.3443293325	 4.2534882309	 0.197079
53.0366	78.4736	140.6314	171.8429	247.3466	315.2253	340.5963	349.7813	440.9741	512.8401	534.2632	614.3138	619.8725	634.31	642.6972	663.2775	789.7525	893.1989	949.6566	962.6647	984.3266	996.23	1072.8609	1111.7947	1117.109	1127.9098	1180.5898	1214.3974	1243.2996	1258.6569	1291.0437	1325.223	1362.8336	1389.6782	1477.8954	1502.6175	1528.3251	2237.8523	2243.268	2893.7226	2977.0652	2989.3302	3032.5657	3067.8947	3079.1667	3093.7471	3504.9828	3506.2273
C#CCN1CC(C1)C#C	C#CCN1CC(C1)C#C	
InChI=1S/C8H9N/c1-3-5-9-6-8(4-2)7-9/h1-2,8H,5-7H2	InChI=1S/C8H9N/c1-3-5-9-6-8(4-2)7-9/h1-2,8H,5-7H2
