17
gdb 114331	2.36319	1.34024	1.14714	1.573	63.75	-0.2399	0.0433	0.2832	1126.2292	0.133927	-496.029241	-496.020313	-496.019369	-496.062763	33.431	
O	 0.0335935088	 1.4436802912	-0.2250052522	-0.41601
C	 0.0986796479	 0.081215443	 0.1613092619	-0.10481
C	-1.2605985733	-0.5807805271	 0.0511408866	 0.055414
O	-1.7590042563	-0.6470939206	-1.3309575079	-0.333625
C	-2.1527539232	-2.017193491	-1.1504457764	-0.031802
C	-0.9234048914	-2.8486819285	-0.9918325558	 0.040667
O	 0.2615509686	-2.5744752371	-1.6712506782	-0.427689
C	-1.4592574893	-2.0877629391	 0.2114084271	 0.226883
O	-1.8784854802	-2.6840963504	 1.3810828011	-0.450158
H	-0.3044489066	 1.4636848621	-1.1272819434	 0.292642
H	 0.8438827686	-0.4784197241	-0.4187882818	 0.104576
H	 0.4149259044	 0.0685154869	 1.210785917	 0.11458
H	-1.9941242447	-0.0277292192	 0.6506583023	 0.105325
H	-3.1220383783	-2.3219018234	-1.5273349406	 0.117628
H	-1.1167801362	-3.9162907381	-0.9084101577	 0.116281
H	 0.1015545828	-1.7618435725	-2.1687820032	 0.293657
H	-1.1337110614	-3.156512642	 1.7690422612	 0.296439
81.1409	141.9823	185.3784	202.7857	247.1057	293.3674	322.6756	368.5924	400.1619	420.3746	491.8209	572.094	628.1915	656.6493	810.0469	818.5493	853.321	926.8055	977.2219	1020.3148	1026.4645	1068.0229	1080.4886	1115.2811	1144.6987	1197.3153	1214.3951	1224.4625	1280.8535	1288.014	1335.5211	1344.7426	1389.8006	1402.0286	1430.8628	1480.2425	1504.164	3022.7977	3041.4687	3075.6857	3143.5531	3185.0418	3769.1572	3798.7014	3804.7801
OCC1OC2C(O)C12O	OC[C@H]1O[C@H]2[C@@H](O)[C@@]12O	
InChI=1S/C5H8O4/c6-1-2-5(8)3(7)4(5)9-2/h2-4,6-8H,1H2	InChI=1S/C5H8O4/c6-1-2-5(8)3(7)4(5)9-2/h2-4,6-8H,1H2/t2-,3-,4+,5+/m1/s1
