18
gdb 37633	2.82376	2.22547	2.0122	1.2109	71.75	-0.2388	0.0812	0.32	802.1225	0.152769	-401.920667	-401.914995	-401.914051	-401.950314	24.98	
C	-0.0244709936	 1.5522003576	-0.0027120838	-0.211133
C	 1.4693981156	 1.8426107416	-0.0161103589	-0.029713
C	 2.1796394927	 0.96361055	 1.0723395837	 0.101146
O	 1.339296632	 0.4108831584	 2.0682311833	-0.274179
C	 0.308667707	-0.4087274608	 1.5060566654	-0.074815
C	 0.041323287	 0.0079216021	 0.0491881576	-0.080901
C	 1.3058733227	-0.2751030964	-0.7824060527	-0.04157
C	 2.5748394862	 0.0397316264	-0.0723166544	-0.075046
N	 2.0338693546	 0.9710696249	-1.1292185141	-0.154328
H	-0.5418562264	 1.9854360855	 0.857942657	 0.109477
H	-0.4933815767	 1.9138345999	-0.9228203056	 0.109211
H	 1.7761756247	 2.8849490593	-0.0943564462	 0.076197
H	 3.0045048821	 1.4546229572	 1.5878394432	 0.089191
H	 0.6013722525	-1.4684375513	 1.5527269218	 0.092689
H	-0.5791610485	-0.2723001005	 2.1335516053	 0.104201
H	-0.8445432317	-0.4953615108	-0.3421952245	 0.074223
H	 1.3071222155	-1.0390498485	-1.5509973806	 0.094589
H	 3.5000985642	-0.5129771844	-0.1976209663	 0.09076
252.1488	365.3254	382.9205	505.738	560.5267	628.3445	662.4164	761.7692	784.6457	804.7256	826.2348	847.8587	873.0515	907.1289	933.2112	971.482	987.1914	1003.6838	1018.0329	1056.8531	1063.5803	1066.9352	1072.9323	1097.3348	1168.7616	1176.5415	1199.9512	1229.8727	1248.6042	1271.8877	1294.846	1318.995	1323.8564	1336.6316	1362.4226	1388.7839	1408.7773	1481.9861	1516.5205	2988.6678	3054.586	3058.2237	3095.9791	3107.9337	3115.8999	3126.5379	3162.5937	3184.7356
C1C2C3OCC1C1C3N21	C1[C@H]2[C@H]3OC[C@@H]1[C@@H]1[C@H]3N21	
InChI=1S/C7H9NO/c1-3-2-9-7-4(1)8-5(3)6(7)8/h3-7H,1-2H2	InChI=1S/C7H9NO/c1-3-2-9-7-4(1)8-5(3)6(7)8/h3-7H,1-2H2/t3-,4+,5-,6-,7-,8?/m1/s1
