19
gdb 67834	2.60987	1.99923	1.60584	1.7062	80.41	-0.2348	0.006	0.2408	918.9364	0.161171	-385.823902	-385.817011	-385.816067	-385.854469	29.844	
O	 0.3169749503	 1.389017273	 0.1453416345	-0.489339
C	 0.1060134506	-0.0084490373	 0.0431311086	 0.478574
C	 0.6507854574	-0.5239485615	-1.2716762809	-0.247081
C	-0.3734321677	-0.7681816682	-2.1066295024	-0.037227
C	-1.7633367133	-0.6593617722	-1.4572626756	-0.420556
C	-1.3315976444	-0.6085070374	-0.0034568918	 0.273524
C	-1.5555673735	 0.0005053767	 1.4141438348	-0.32207
C	-0.1107759529	-0.6538566895	 1.4416205968	-0.130382
C	-0.7436396445	-1.8631932184	 0.7219964624	-0.249015
H	 0.2507283415	 1.7603098835	-0.7412739839	 0.272853
H	 1.6974327219	-0.527590205	-1.5565571731	 0.094767
H	-0.2586562149	-1.0395043386	-3.151923691	 0.09821
H	-2.2904578561	 0.2401876522	-1.8019642301	 0.112271
H	-2.4000314762	-1.5160020596	-1.7047619388	 0.112007
H	-1.5985406022	 1.0856255958	 1.4829764285	 0.113843
H	-2.3013717769	-0.4858940515	 2.0479866488	 0.087207
H	 0.5765101859	-0.6651803327	 2.2895100386	 0.06937
H	-1.463484	-2.4403557758	 1.3072614881	 0.087538
H	-0.0776493349	-2.5118860036	 0.1512556364	 0.095507
226.0711	268.9921	314.4575	365.212	369.7639	482.3232	488.8728	537.7549	574.5199	644.2965	729.3006	763.0412	784.3794	822.1763	838.8982	889.6298	924.9911	956.2692	962.6706	970.0824	993.5174	1006.1029	1059.9581	1070.5497	1102.5071	1120.3329	1125.2417	1151.5288	1160.8173	1195.6216	1203.9003	1218.5264	1242.1327	1263.3181	1309.9649	1339.4689	1375.6161	1472.8104	1489.2778	1532.8816	1619.9638	3021.8496	3063.9961	3065.1736	3068.9258	3097.1073	3131.6288	3161.3123	3171.2599	3196.8225	3800.0618
OC12C=CCC11CC2C1	O[C@]12C=CC[C@@]31C[C@H]2C3	
InChI=1S/C8H10O/c9-8-3-1-2-7(8)4-6(8)5-7/h1,3,6,9H,2,4-5H2	InChI=1S/C8H10O/c9-8-3-1-2-7(8)4-6(8)5-7/h1,3,6,9H,2,4-5H2/t6-,7+,8-/m0/s1
