17
gdb 37316	3.2278	1.71982	1.40499	3.0686	71.53	-0.2332	0.0306	0.2637	932.6663	0.139743	-417.963536	-417.956896	-417.955951	-417.994674	26.576	
C	-0.0700304044	 1.5163107511	-0.0171837053	-0.085416
O	 1.2174718219	 2.1271523081	 0.2187108031	-0.232048
C	 2.0522241971	 1.5222792067	 1.0920624478	 0.133003
N	 2.0783058141	 0.3201926088	 1.4914969612	-0.272914
C	 1.1207611818	-0.5791862998	 0.909770187	 0.035584
C	 0.0433105978	-1.2083862848	 1.8038995386	-0.057475
N	-0.8781326859	-0.1312886446	 2.2224575848	-0.329443
C	-1.030514549	-0.7391495357	 0.8813742553	-0.067978
C	-0.0167014029	-0.0094678349	-0.0206424549	-0.084558
H	-0.7362548821	 1.8567904634	 0.7796360966	 0.13535
H	-0.4038584604	 1.9282429335	-0.9718628512	 0.110335
H	 2.8021159431	 2.2329670342	 1.4371913825	 0.118426
H	 1.6623918647	-1.3758201209	 0.3888796683	 0.092154
H	 0.1260914817	-2.1199364582	 2.3827681971	 0.096826
H	-1.5752886477	-0.5520897359	 2.834651608	 0.233402
H	-1.9530396804	-1.2223051646	 0.5848822852	 0.095476
H	 0.0400799406	-0.4192792764	-1.0300503742	 0.079276
102.6333	165.1743	288.6378	394.5594	475.8819	500.1156	565.8411	617.0911	704.6215	777.057	814.3603	839.1881	878.3441	910.4498	918.7214	968.0817	979.4973	994.995	1010.0034	1038.4934	1089.6834	1101.1615	1104.7367	1133.6777	1163.6502	1200.2071	1252.8509	1257.5712	1298.9064	1322.3903	1340.331	1361.0565	1376.3177	1415.3858	1420.8963	1494.8118	1717.731	3047.9433	3063.8485	3094.0097	3119.7324	3148.5947	3184.9798	3198.2017	3487.517
C1OC=NC2C3NC3C12	C1OC=N[C@H]2[C@H]3N[C@H]3[C@@H]12	
InChI=1S/C6H8N2O/c1-3-4(7-2-9-1)6-5(3)8-6/h2-6,8H,1H2	InChI=1S/C6H8N2O/c1-3-4(7-2-9-1)6-5(3)8-6/h2-6,8H,1H2/t3-,4+,5-,6+/m0/s1
