21
gdb 92246	2.66703	1.60429	1.3264	1.7502	81.91	-0.2343	0.0749	0.3092	1071.2158	0.183142	-387.047064	-387.039068	-387.038124	-387.07939	31.887	
C	-0.0684443083	 1.5465059955	-0.1044565322	-0.410465
C	 0.0675037434	 0.0428725048	 0.0134876421	 0.054559
O	 1.1557254981	-0.4969991949	-0.7951684755	-0.321974
C	 1.6323799349	-1.3242899199	 0.291911676	 0.083269
C	 2.884137507	-0.7448866702	 0.9941156051	-0.254554
C	 1.9435530737	-0.0252310751	 1.9986636418	-0.069055
C	 1.4966907964	-0.8677857078	 3.2377207386	-0.22804
C	 0.1171579086	-1.161048951	 2.564145788	-0.343763
C	 0.6733598446	-0.5869788323	 1.2642502876	 0.319418
H	 0.8571082359	 2.0480347883	 0.1920650734	 0.120011
H	-0.2952436361	 1.8281053254	-1.1375923308	 0.127479
H	-0.8841446089	 1.9072616849	 0.5319547516	 0.114706
H	-0.8792994489	-0.4446193586	-0.2711255294	 0.067908
H	 1.586937858	-2.391801039	 0.0502645626	 0.066314
H	 3.5627315178	-1.4788813612	 1.4410986969	 0.093283
H	 3.454820509	-0.0869668678	 0.3341432145	 0.109544
H	 2.0982017918	 1.0380231091	 2.1894865993	 0.063494
H	 2.1106779804	-1.7583122439	 3.3989201755	 0.101826
H	 1.4440968304	-0.3158868449	 4.178387166	 0.103925
H	-0.2345476517	-2.1970583767	 2.5471866068	 0.098737
H	-0.6789426561	-0.5371767344	 2.984076802	 0.10338
99.8095	145.7689	199.1481	217.8173	321.2426	357.9561	417.5507	478.6697	522.1974	642.3701	674.2992	757.3952	784.6368	848.4335	857.9201	867.8704	893.2661	927.5482	960.3056	964.3408	1002.7955	1028.631	1081.0044	1100.4724	1110.5699	1129.6123	1144.3792	1161.9259	1206.098	1209.8697	1231.496	1238.7046	1266.5242	1272.3123	1288.8653	1295.476	1317.2145	1347.315	1392.1457	1409.1114	1460.6077	1476.0564	1482.2689	1491.9255	1495.2574	2965.1062	3034.9442	3038.4911	3040.9692	3050.5508	3058.9648	3084.358	3089.2289	3104.5488	3108.885	3116.5625	3118.1359
CC1OC2CC3CCC123	C[C@H]1O[C@H]2C[C@@H]3CC[C@]123	
InChI=1S/C8H12O/c1-5-8-3-2-6(8)4-7(8)9-5/h5-7H,2-4H2,1H3	InChI=1S/C8H12O/c1-5-8-3-2-6(8)4-7(8)9-5/h5-7H,2-4H2,1H3/t5-,6+,7+,8-/m1/s1
