15
gdb 30481	2.91947	1.42349	0.9626	4.422	74.78	-0.2305	-0.0458	0.1847	1161.7223	0.113198	-454.006452	-453.998182	-453.997238	-454.040537	29.41	
C	 0.0265690305	 1.4534315831	-0.3095017815	-0.334389
N	-0.0268042158	 0.0036892844	-0.2716976702	-0.350228
C	-1.0521327165	-0.5853602665	 0.1620558723	 0.511775
N	-1.0864294648	-1.9790225311	 0.1913069959	-0.367946
C	-2.1556599995	-2.6824058278	 0.6445232047	 0.048922
C	-3.2681583742	-2.0702843261	 1.1017190114	-0.29678
C	-3.3346542113	-0.626185166	 1.113995239	 0.433539
O	-4.2348679337	 0.070786866	 1.4818134192	-0.322704
O	-2.1781978312	 0.0299792154	 0.6248891758	-0.270666
H	 0.8820777379	 1.7964829445	 0.2835688161	 0.127218
H	 0.205873245	 1.779000905	-1.3405970336	 0.127213
H	-0.8778707068	 1.9459577925	 0.0617641855	 0.136411
H	-0.253797872	-2.4303595118	-0.1510136056	 0.279012
H	-2.0519454606	-3.7607753785	 0.6128304989	 0.147512
H	-4.1228852169	-2.6201890932	 1.463901142	 0.131111
37.2833	83.6643	135.0967	199.4308	237.9506	386.316	438.9581	509.9688	514.7902	561.2997	579.4441	708.6231	734.7398	736.1421	804.3983	918.6067	976.0217	976.6412	1034.2561	1095.6468	1122.125	1137.6119	1171.5527	1224.2285	1344.3687	1408.3624	1443.4636	1495.4652	1496.9594	1524.4895	1679.194	1783.3018	1867.2209	3020.9389	3075.1067	3097.6179	3208.2215	3259.6721	3658.8474
CN=C1NC=CC(=O)O1	CN=c1[nH]ccc(=O)o1	
InChI=1S/C5H6N2O2/c1-6-5-7-3-2-4(8)9-5/h2-3H,1H3,(H,6,7)	InChI=1S/C5H6N2O2/c1-6-5-7-3-2-4(8)9-5/h2-3H,1H3,(H,6,7)
