19
gdb 109085	4.22233	1.15435	1.01314	1.4634	76.69	-0.2112	0.0596	0.2708	1220.3178	0.161323	-419.212819	-419.204612	-419.203668	-419.245988	30.863	
C	-0.006355597	 1.4598514821	 0.3092975715	-0.231343
O	-0.0261198843	 0.0870547735	-0.0910334938	-0.259014
C	-1.2353565776	-0.4762000168	-0.1228977773	 0.477869
N	-2.347532583	 0.0959188261	 0.1498798069	-0.369206
C	-3.3646443505	-0.936980969	-0.0093477001	 0.016032
C	-4.0473922917	-1.035324435	-1.4100883776	-0.221626
C	-3.4644257711	-2.4698466517	-1.5929718505	-0.221647
C	-2.6144183061	-2.2913451396	-0.3090112289	-0.015066
N	-1.2506182391	-1.8064173024	-0.5237131917	-0.36776
H	 1.042417865	 1.7583767097	 0.2919211929	 0.127247
H	-0.592066531	 2.0696715916	-0.3834257307	 0.141416
H	-0.4235295899	 1.5744738606	 1.3133299662	 0.13915
H	-4.0674241929	-0.9334275862	 0.8278059523	 0.068922
H	-5.1373750199	-0.9598766693	-1.417520083	 0.096551
H	-3.641767093	-0.2984913307	-2.1064491643	 0.107421
H	-4.2171218852	-3.255907898	-1.48429957	 0.097909
H	-2.893562013	-2.6535267544	-2.5059038484	 0.101761
H	-2.6474223858	-3.105719901	 0.4212201249	 0.069075
H	-0.4649223639	-2.3787325995	-0.2525738583	 0.242308
75.0028	112.9504	139.645	208.116	224.2548	367.9486	440.0925	485.4037	513.0988	650.8302	698.8211	723.2588	751.9205	779.9675	835.2168	913.0254	919.9084	953.2474	972.144	1048.5961	1061.2195	1101.6159	1113.2975	1125.9873	1183.4054	1191.2851	1225.6169	1229.7846	1250.0708	1260.734	1275.0177	1315.1763	1335.7346	1339.1622	1448.5831	1467.6166	1476.4777	1485.1319	1496.3283	1507.8424	1697.7681	3047.4112	3048.2463	3058.3083	3063.998	3072.6274	3108.0838	3122.7183	3128.0168	3152.6334	3609.4329
COC1=NC2CCC2N1	COC1=N[C@H]2CC[C@H]2N1	
InChI=1S/C6H10N2O/c1-9-6-7-4-2-3-5(4)8-6/h4-5H,2-3H2,1H3,(H,7,8)	InChI=1S/C6H10N2O/c1-9-6-7-4-2-3-5(4)8-6/h4-5H,2-3H2,1H3,(H,7,8)/t4-,5+
