19
gdb 14099	3.29632	1.58674	1.39681	2.0237	71.73	-0.241	0.0682	0.3092	995.4525	0.164518	-365.023229	-365.014799	-365.013855	-365.056014	31.192	
C	-0.0446340941	 1.5385190815	-0.1165669764	-0.393252
C	 0.0511851881	 0.0353147692	-0.0245471555	-0.068394
N	 1.4111858631	-0.5483875452	-0.0989371653	-0.382395
C	 0.6499771864	-0.656277478	 1.1365285911	 0.263384
C	 1.0965893337	-0.1368442642	 2.4967111273	-0.132429
O	 0.5330224513	-1.3038713413	 3.1391574942	-0.298917
C	 0.1819241419	-1.9162701857	 1.8723084139	 0.083197
C	-1.2766481669	-2.3236020233	 1.8057775132	-0.402251
H	 0.7882473267	 2.0101619792	 0.4119113189	 0.12782
H	-0.0089718094	 1.8680074716	-1.1602455448	 0.123094
H	-0.9823886467	 1.8986624607	 0.3205192751	 0.117835
H	-0.7414494641	-0.5072717656	-0.5395150854	 0.084517
H	 1.398889369	-1.4328491913	-0.6029065183	 0.22857
H	 2.1846762927	-0.0741746976	 2.6237597872	 0.107578
H	 0.6330940633	 0.791323843	 2.8524959308	 0.103842
H	 0.8301922377	-2.7851614195	 1.6751009428	 0.07325
H	-1.9294539156	-1.4628797761	 1.9761919957	 0.122095
H	-1.5133729411	-2.7577198066	 0.8277806409	 0.112464
H	-1.4917227159	-3.0780845309	 2.5690303148	 0.129994
86.6737	137.127	182.0416	185.8298	220.5662	256.5223	379.8908	432.2522	455.955	504.6192	565.061	771.6889	801.8542	857.7623	878.9098	933.9793	993.679	1005.5465	1030.4286	1043.8221	1076.1662	1090.3868	1094.2292	1134.3218	1145.8185	1155.5369	1229.2775	1274.1739	1284.0324	1319.9506	1373.5508	1379.8326	1403.5487	1412.7572	1476.3683	1483.1602	1489.7989	1493.0543	1513.3123	1519.4648	2971.4961	3014.0461	3033.2939	3034.4971	3058.9907	3098.143	3101.4002	3103.8312	3118.7171	3123.1287	3484.543
CC1NC11COC1C	C[C@H]1N[C@]21CO[C@H]2C	
InChI=1S/C6H11NO/c1-4-6(7-4)3-8-5(6)2/h4-5,7H,3H2,1-2H3	InChI=1S/C6H11NO/c1-4-6(7-4)3-8-5(6)2/h4-5,7H,3H2,1-2H3/t4-,5+,6+/m1/s1
