18
gdb 77410	2.56092	1.66619	1.35612	2.527	72.08	-0.2305	0.0506	0.2811	1007.3121	0.146385	-439.009288	-439.000811	-438.999867	-439.041654	33.12	
C	-0.0211732818	 1.5785581274	 0.0158987438	-0.498715
C	-0.0097986036	 0.0856426111	 0.0804057679	 0.246893
C	 1.1537489679	-0.779059499	-0.364218955	 0.014491
O	 2.4045964367	-0.1660044468	-0.4251695482	-0.445735
C	 0.5982713732	-0.9434317227	 1.0378577092	 0.254195
O	 1.4307389992	-0.728252981	 2.1335616962	-0.466015
C	-0.7004477436	-1.6857861182	 0.9996086433	-0.126424
C	-1.8431660765	-0.7893266529	 1.2906978421	-0.243595
N	-1.2505814556	-0.7187291368	-0.0572752301	-0.14707
H	 1.0022239593	 1.9597572093	 0.0494535475	 0.135721
H	-0.4727779386	 1.9032364772	-0.9281876935	 0.134473
H	-0.5895469978	 2.0273978123	 0.8366614705	 0.119219
H	 1.0116556079	-1.5353947861	-1.1345867263	 0.101352
H	 2.7097701886	-0.0667539191	 0.487416982	 0.285772
H	 1.9003484777	-1.5504336873	 2.3245792457	 0.292251
H	-0.8173189596	-2.7583633563	 0.8766611473	 0.098536
H	-2.832835585	-1.2357141408	 1.2902559897	 0.122187
H	-1.7117234984	 0.0456483196	 1.9740348677	 0.122464
161.1148	168.5245	225.021	235.1388	267.8816	271.6552	276.9975	438.273	468.8472	513.1807	516.8764	589.9965	675.0428	708.0631	755.4887	780.6015	837.5151	881.4569	963.846	1031.5749	1041.5468	1057.6521	1089.7446	1109.6013	1118.5438	1149.1737	1165.6828	1208.4039	1213.036	1269.7694	1277.9202	1312.9817	1362.0794	1399.3034	1414.6725	1465.2481	1484.2436	1493.4406	1498.7932	3035.2204	3095.1977	3115.7	3117.8113	3125.7365	3157.9052	3207.8706	3738.8703	3762.2102
CC12C(O)C1(O)C1CN21	C[C@@]12[C@@H](O)[C@]1(O)[C@H]1CN21	
InChI=1S/C6H9NO2/c1-5-4(8)6(5,9)3-2-7(3)5/h3-4,8-9H,2H2,1H3	InChI=1S/C6H9NO2/c1-5-4(8)6(5,9)3-2-7(3)5/h3-4,8-9H,2H2,1H3/t3-,4-,5-,6-,7?/m1/s1
