15
gdb 48983	3.47344	1.55491	1.37893	3.2785	64.63	-0.2588	-0.047	0.2118	936.7408	0.112501	-457.749499	-457.742516	-457.741571	-457.781192	26.967	
O	-0.6628223272	 0.7556970362	-0.5171342972	-0.237967
C	 0.2663657494	 0.8687910778	 0.2348683105	 0.091133
C	 1.4219125721	 1.8178396912	-0.0083735734	 0.374149
O	 1.4024140377	 2.8391247413	 1.02911274	-0.317874
C	 2.7703655812	 3.2640635144	 1.1069705981	-0.084266
C	 3.4333199057	 2.4051778853	-0.0177428845	-0.041631
O	 2.6715235446	 1.1943489474	 0.1829234293	-0.268565
C	 2.8687710871	 2.9210081715	-1.3348952711	-0.099064
C	 1.5892784189	 2.5432980077	-1.3340780939	-0.11061
H	 0.3532772314	 0.2964273002	 1.1804827599	 0.106155
H	 2.8456892991	 4.3413666313	 0.9330285749	 0.113526
H	 3.1785766029	 3.0100196438	 2.0899746195	 0.117917
H	 4.5019312821	 2.2228167214	 0.0692128961	 0.101463
H	 3.3891631099	 3.5667262423	-2.0282629799	 0.118685
H	 0.7878923952	 2.7732478483	-2.0194203184	 0.136949
68.7176	177.286	258.4214	303.041	413.8608	444.1775	521.4915	637.2478	690.07	728.7715	752.3858	798.6279	853.7792	857.7913	866.438	912.722	938.8239	980.787	998.0882	1045.0817	1050.8939	1088.4929	1126.3977	1186.9715	1247.0149	1270.3854	1316.49	1342.62	1366.9629	1407.6924	1510.2112	1633.6045	1849.975	2938.4736	3046.7786	3100.3587	3155.7872	3230.916	3264.4076
O=CC12OCC(O1)C=C2	O=C[C@@]12OC[C@@H](O1)C=C2	
InChI=1S/C6H6O3/c7-4-6-2-1-5(9-6)3-8-6/h1-2,4-5H,3H2	InChI=1S/C6H6O3/c7-4-6-2-1-5(9-6)3-8-6/h1-2,4-5H,3H2/t5-,6-/m0/s1
