14
gdb 52023	3.23015	0.94005	0.761	5.4662	69.2	-0.2941	-0.0116	0.2824	1396.9051	0.098065	-436.67237	-436.663072	-436.662128	-436.707663	31.556	
O	 0.3275697065	 0.0699826585	 0.4147501214	-0.255201
C	 0.4050947687	 1.2493415136	 0.5463506552	 0.179498
O	 0.802150416	 2.0642848169	-0.4678123797	-0.181361
C	 0.8660793541	 3.4580135642	-0.2238070853	-0.093561
C	 2.3466812736	 3.9176146546	-0.1194355404	-0.322533
C	 2.428768009	 5.3762648925	-0.0844377421	 0.312593
C	 2.4506605382	 6.5757009536	-0.0696599963	-0.411538
C	 2.9855614687	 3.3101930145	 1.0585762327	 0.296646
N	 3.4550738817	 2.8135595907	 1.9893751545	-0.311022
H	 0.1624145611	 1.8066453567	 1.4700947454	 0.097793
H	 0.4054337216	 3.9669076856	-1.0728026142	 0.150393
H	 0.3271473272	 3.7325021859	 0.6897017659	 0.141128
H	 2.8647513069	 3.5375403888	-1.0095733495	 0.17761
H	 2.4887423866	 7.6377117341	-0.0533130976	 0.219554
55.8967	62.1941	129.0938	140.5768	166.9452	207.5624	348.4486	356.554	378.5148	455.8501	568.1994	580.1955	665.1855	677.0968	686.9617	824.7486	983.9361	1032.1091	1038.8776	1064.8232	1078.4461	1146.0701	1260.3878	1292.986	1342.6385	1393.7991	1426.2606	1498.9159	1882.1824	2251.786	2367.3542	2970.384	3035.2578	3053.0114	3123.2524	3499.2603
O=COCC(C#C)C#N	O=COC[C@@H](C#C)C#N	
InChI=1S/C6H5NO2/c1-2-6(3-7)4-9-5-8/h1,5-6H,4H2	InChI=1S/C6H5NO2/c1-2-6(3-7)4-9-5-8/h1,5-6H,4H2/t6-/m0/s1
