16
gdb 61361	3.5468	0.78628	0.77792	3.2553	75.4	-0.2556	-0.0432	0.2124	1503.0505	0.120504	-437.886947	-437.876938	-437.875994	-437.923303	34.41	
C	 0.1974347929	 1.6123028105	 0.2830893525	-0.39836
C	-0.0174567115	 0.1426720286	-0.0714327621	-0.064319
N	 0.6116404965	-0.2400700324	-1.3259806967	-0.33531
C	-0.1015025031	-0.7324295979	-2.386257358	 0.302547
O	-1.299122536	-0.9460427114	-2.357481888	-0.355232
C	 0.7155705321	-0.9824857839	-3.565108955	 0.201085
C	 1.3675015268	-1.1966445393	-4.5520908775	-0.38729
C	 0.4467747883	-0.8062451014	 1.0337091802	 0.151009
O	 0.7330118499	-0.4631145179	 2.1497801364	-0.234582
H	 1.2640604745	 1.8441132146	 0.3681026775	 0.122862
H	-0.2425833737	 2.2573790589	-0.4806320195	 0.130073
H	-0.2614154556	 1.8323825249	 1.2490443064	 0.147186
H	-1.0858417666	-0.0648958656	-0.2219159203	 0.153951
H	 1.5938770719	-0.0537749078	-1.4591252218	 0.260358
H	 1.9310180318	-1.3908993159	-5.4322804566	 0.214585
H	 0.5017332819	-1.8701839941	 0.7113694026	 0.091438
40.3651	54.6815	79.8336	134.4649	198.3816	222.2927	260.7875	279.8527	379.0979	418.0682	487.3074	504.5514	601.0892	659.7209	664.2493	684.1798	764.2638	829.5573	910.4418	925.9789	989.0724	1111.1644	1142.9206	1163.3651	1229.9594	1324.3929	1331.9241	1400.6994	1419.2346	1486.9644	1490.1947	1521.0413	1758.0025	1836.0716	2228.9107	2889.6295	3036.1764	3050.1588	3120.6881	3143.9999	3494.7657	3626.6949
CC(NC(=O)C#C)C=O	C[C@@H](NC(=O)C#C)C=O	
InChI=1S/C6H7NO2/c1-3-6(9)7-5(2)4-8/h1,4-5H,2H3,(H,7,9)	InChI=1S/C6H7NO2/c1-3-6(9)7-5(2)4-8/h1,4-5H,2H3,(H,7,9)/t5-/m1/s1
