19
gdb 89291	2.23095	1.81591	1.17991	3.446	76.83	-0.21	0.0193	0.2293	1090.9698	0.158907	-419.202049	-419.193363	-419.192419	-419.235054	32.965	
C	-0.3011559604	 1.4571074607	-0.0362739607	-0.329513
N	 0.1265817782	 0.0726399479	 0.0073290572	-0.061095
C	 1.2292781448	-0.4002897819	-0.852322968	-0.22585
C	 1.8399234001	-1.1668411378	 0.36028478	 0.358178
C	 2.1163150797	-2.645599102	 0.260728965	-0.48465
N	 2.8176286439	-0.3599593462	 1.1055097305	-0.366377
C	 1.8785423884	 0.3583227785	 1.8293908885	 0.423573
O	 1.9731926207	 1.3174254488	 2.5483550129	-0.366909
C	 0.7241148613	-0.4919061449	 1.2295128353	-0.224396
H	 0.5072535254	 2.1819144231	 0.1567922185	 0.114809
H	-0.729689914	 1.6703869457	-1.0212153503	 0.120236
H	-1.0823049584	 1.6186644394	 0.7133323189	 0.130389
H	 0.8811555962	-1.0195466865	-1.6873987577	 0.105801
H	 1.8948201804	 0.382621576	-1.2441780349	 0.088985
H	 2.9663826637	-2.8411280681	-0.4037688231	 0.122451
H	 2.3522445666	-3.0647919146	 1.242993174	 0.130925
H	 1.2488717705	-3.1727785479	-0.1472156009	 0.132347
H	 3.7333986548	-0.0478371033	 0.8044341562	 0.23929
H	 0.0384606881	-0.9979417766	 1.9125193085	 0.091806
105.7787	131.9863	204.9374	213.5696	232.2604	293.2537	339.3776	369.5674	412.2491	488.8376	538.5769	609.0861	655.2446	726.6481	795.9395	858.0887	901.0778	936.7384	964.7286	993.9135	1007.0988	1097.3808	1126.8777	1133.2807	1160.0585	1166.0162	1217.2195	1233.8617	1272.0948	1281.0595	1288.2741	1325.5478	1373.6481	1416.2907	1454.2141	1486.7785	1488.1946	1492.6429	1502.231	1512.2818	1877.5376	2967.0887	2993.2116	3031.8401	3048.4717	3062.5925	3088.6433	3096.8147	3103.8587	3119.7085	3555.3968
CN1CC2(C)NC(=O)C12	CN1C[C@@]2(C)NC(=O)[C@@H]12	
InChI=1S/C6H10N2O/c1-6-3-8(2)4(6)5(9)7-6/h4H,3H2,1-2H3,(H,7,9)	InChI=1S/C6H10N2O/c1-6-3-8(2)4(6)5(9)7-6/h4H,3H2,1-2H3,(H,7,9)/t4-,6-/m1/s1
