21
gdb 108223	2.05024	1.33876	1.21229	0.7571	79.48	-0.2402	0.0704	0.3106	1204.4935	0.180752	-424.190362	-424.18043	-424.179486	-424.224923	36.995	
C	-0.0227874562	 1.5465741528	 0.0956754506	-0.423249
C	 0.1281858706	 0.0402375741	 0.1172512465	-0.111914
C	 1.3724790724	-0.7414954666	-0.1992004161	 0.314178
O	 1.3843449148	-1.7812404882	-1.1189532526	-0.465379
C	 2.644790895	-0.0487550481	 0.3012467818	-0.290678
C	 2.0386443397	-0.0416091309	 1.7439816795	-0.285296
C	 0.7937199223	-0.7713985861	 1.219389149	 0.305157
C	 0.0604776068	-1.8629846694	 1.927124366	-0.200128
O	-0.8555875321	-1.2777468373	 2.8513244072	-0.424129
H	 0.8806172578	 2.0613442917	 0.4328496086	 0.120284
H	-0.2441570506	 1.9040006022	-0.9165338961	 0.10942
H	-0.8448678537	 1.8612587123	 0.7470605829	 0.12769
H	-0.7517118369	-0.4878911626	-0.2491279141	 0.084761
H	 1.1168040753	-1.433421935	-1.9761015728	 0.284547
H	 3.5094017537	-0.7117411338	 0.2256896859	 0.108397
H	 2.900723596	 0.9161471734	-0.1494219269	 0.089785
H	 2.6170076398	-0.6533111382	 2.4410074859	 0.100438
H	 1.8714636019	 0.9374314011	 2.2014134609	 0.100477
H	-0.4644832822	-2.4847010374	 1.1843793358	 0.090484
H	 0.7781014317	-2.5155849365	 2.4505963657	 0.08218
H	-1.2695995762	-1.9906414677	 3.3476095224	 0.282975
70.1176	113.7274	168.0422	177.2084	238.6277	245.6351	252.735	270.9782	313.2649	351.0074	400.8879	513.6958	569.218	620.9202	710.1103	745.5333	788.8668	825.6928	939.2759	948.154	959.3112	1024.0873	1027.1525	1055.586	1103.0582	1111.3392	1126.5742	1163.2246	1202.9787	1218.5126	1225.2555	1233.0865	1255.83	1269.3581	1326.658	1331.5855	1344.144	1412.9825	1449.9282	1474.9737	1479.0469	1500.9381	1505.6317	1513.7547	1523.5364	2961.6894	2991.8265	3032.1513	3042.819	3057.3714	3089.708	3096.8616	3107.8899	3115.2848	3125.0203	3800.4167	3817.7568
CC1C2(O)CCC12CO	C[C@H]1[C@@]2(O)CC[C@@]12CO	
InChI=1S/C7H12O2/c1-5-6(4-8)2-3-7(5,6)9/h5,8-9H,2-4H2,1H3	InChI=1S/C7H12O2/c1-5-6(4-8)2-3-7(5,6)9/h5,8-9H,2-4H2,1H3/t5-,6-,7+/m1/s1
