16
gdb 55573	4.12912	0.87989	0.72964	2.3516	74.55	-0.2531	0.0053	0.2584	1469.9057	0.123309	-434.083508	-434.073928	-434.072984	-434.118725	34.579	
N	 0.0960090534	 1.263422071	 0.055666128	-0.56294
C	-0.3192205368	-0.0034555108	 0.4194772251	 0.473609
O	-0.437134214	-0.3448048927	 1.5804295321	-0.378799
N	-0.5354967619	-0.8316901258	-0.672038651	-0.375797
C	-0.9405019806	-2.1704004505	-0.7098199642	 0.37456
N	-0.962379632	-2.712631262	-1.8588898677	-0.513203
C	-1.3219558608	-2.8190212235	 0.6182823735	-0.465149
C	-1.7631171758	-4.1971179958	 0.4611984283	 0.281793
C	-2.1254721171	-5.3354367408	 0.3302152048	-0.391967
H	 0.0859036286	 1.9200442525	 0.8202482055	 0.268472
H	-0.1779425209	 1.6416193218	-0.8374752791	 0.256152
H	-0.2881527722	-0.495841882	-1.5923979259	 0.255245
H	-1.2804064865	-3.6781802777	-1.7847407476	 0.234467
H	-0.4705812239	-2.7542772472	 1.3029053163	 0.177409
H	-2.0980157221	-2.2149427826	 1.1006301416	 0.166246
H	-2.4472468774	-6.3425433839	 0.2296940603	 0.199901
47.2383	64.9708	123.2242	132.6406	214.0468	331.7853	336.8818	371.3174	429.1502	433.3593	500.5229	527.9667	609.3548	617.6779	646.6378	662.2772	716.433	769.6176	829.0533	869.2687	965.4364	990.3891	1021.565	1102.8347	1171.0371	1220.5643	1301.8684	1310.2504	1419.1715	1426.8871	1520.5644	1627.8851	1723.9213	1805.5783	2242.6468	3060.2387	3088.5141	3494.5966	3504.5966	3586.0132	3602.8374	3705.3753
NC(=O)NC(=N)CC#C	NC(=O)NC(=N)CC#C	
InChI=1S/C5H7N3O/c1-2-3-4(6)8-5(7)9/h1H,3H2,(H4,6,7,8,9)	InChI=1S/C5H7N3O/c1-2-3-4(6)8-5(7)9/h1H,3H2,(H4,6,7,8,9)
