19
gdb 31715	4.81726	0.83709	0.76416	1.8289	79.46	-0.2051	0.0403	0.2453	1531.2762	0.159712	-419.250498	-419.240917	-419.239973	-419.286446	33.965	
C	-0.3903309032	 1.4288081657	 0.0953957423	-0.368277
C	 0.2080056844	 0.0197269648	-0.0670373326	-0.290566
C	 0.8775390269	-0.4802272863	 1.1737317411	 0.336762
N	 2.1362382286	-0.2803464852	 1.5065151244	-0.358083
C	 2.3009111031	-0.8692306951	 2.7405917473	 0.274533
C	 3.6201507737	-0.8506435207	 3.440801388	-0.188048
O	 3.4796019173	-1.5339538576	 4.677899952	-0.421061
C	 1.1288972921	-1.4333862238	 3.1635747088	-0.177917
N	 0.2246851146	-1.1763794254	 2.1515570147	-0.284145
H	 0.388535274	 2.142000591	 0.3786036185	 0.13781
H	-0.8461222769	 1.7680911693	-0.8399602431	 0.113069
H	-1.1605677517	 1.4467066559	 0.873429391	 0.111583
H	-0.5761107756	-0.683239423	-0.3747483967	 0.096331
H	 0.9569820304	 0.0303618616	-0.8638874467	 0.131309
H	 4.3816416045	-1.325765341	 2.8010566742	 0.101273
H	 3.941935473	 0.1929401466	 3.5903769504	 0.100766
H	 4.3316301441	-1.5215369556	 5.1216960697	 0.288963
H	 0.8688168423	-1.9803641086	 4.0523942508	 0.13671
H	-0.7397140215	-1.4621605525	 2.1346178059	 0.258987
32.33	38.5046	127.5224	166.9511	210.4176	226.2719	260.9385	332.9152	385.6375	467.1793	528.3713	653.1874	659.2907	715.3947	736.8557	752.3513	785.3885	961.0686	1002.8261	1010.5279	1050.7081	1068.2015	1081.4842	1097.3243	1110.9135	1204.3827	1232.3521	1244.2765	1275.3463	1297.6845	1347.5769	1380.5989	1407.7815	1460.7542	1468.3466	1478.111	1496.3515	1506.0426	1516.4586	1568.7095	1618.0047	2963.6712	2982.1071	3032.6724	3037.2249	3088.6215	3108.6952	3122.5519	3295.6037	3664.7106	3844.4671
CCC1=NC(CO)=CN1	CCc1nc(CO)c[nH]1	
InChI=1S/C6H10N2O/c1-2-6-7-3-5(4-9)8-6/h3,9H,2,4H2,1H3,(H,7,8)	InChI=1S/C6H10N2O/c1-2-6-7-3-5(4-9)8-6/h3,9H,2,4H2,1H3,(H,7,8)
