14
gdb 101993	2.22698	0.89907	0.66168	4.3909	77.93	-0.2773	-0.0738	0.2035	1585.4125	0.097469	-436.654592	-436.644869	-436.643925	-436.690988	31.855	
C	 0.4928728951	 0.8957054351	-0.7040154283	-0.24428
O	-0.3813351025	 0.2056945997	 0.1759311787	-0.226757
C	 0.2632084835	-0.4402014043	 1.2459397747	-0.161692
C	-0.8675947767	-0.896780553	 2.2003250098	 0.152979
O	-0.7118705182	-1.0750681823	 3.3723301499	-0.218893
C	 1.049211299	-1.6036282039	 0.8282352166	 0.186607
C	 1.6684486686	-2.5793303482	 0.4748458878	-0.033406
C	 2.3746539608	-3.6774593208	 0.0749745599	 0.218624
N	 2.9766659003	-4.6095056086	-0.2683015393	-0.326163
H	 1.1899874324	 0.2092650618	-1.201129163	 0.131703
H	-0.1372346316	 1.3751827014	-1.4547268528	 0.146375
H	 1.0689904235	 1.6643750412	-0.1696760598	 0.121102
H	 0.9134145157	 0.2468288768	 1.8113872466	 0.134241
H	-1.8349980498	-1.0283106749	 1.6742894691	 0.119559
42.8834	64.1326	101.1045	108.8541	188.9571	207.1114	215.6843	272.8323	397.4167	454.7823	482.3098	550.0317	576.2062	596.4748	738.7865	962.1291	1009.4235	1036.5747	1142.8	1156.4945	1182.7166	1211.7845	1267.3811	1328.4992	1384.5404	1478.8732	1486.5629	1505.5267	1854.8557	2260.5414	2396.0319	2936.663	2984.0757	3000.0647	3062.2714	3138.7789
COC(C=O)C#CC#N	CO[C@@H](C=O)C#CC#N	
InChI=1S/C6H5NO2/c1-9-6(5-8)3-2-4-7/h5-6H,1H3	InChI=1S/C6H5NO2/c1-9-6(5-8)3-2-4-7/h5-6H,1H3/t6-/m1/s1
