16
gdb 37159	4.05048	1.9001	1.66959	1.2885	70.49	-0.2301	0.0611	0.2912	815.9762	0.126016	-400.584256	-400.578669	-400.577725	-400.613771	24.74	
C	 0.0997882193	 1.4654455451	 0.1176112162	-0.239802
C	 1.3226362327	 0.6426080996	-0.0696092037	-0.166435
N	-0.0286541131	-0.0004455189	-0.007941671	-0.118689
C	-0.2223611066	-0.5297322595	-1.424781159	-0.06907
C	 0.4020426627	 0.4730538824	-2.4142034646	-0.115535
C	 1.4215163817	-0.4741472563	-3.0845368028	-0.024298
O	 2.6219273477	 0.2746011028	-2.5616377091	-0.395939
C	 1.6429789018	 0.2750197166	-1.4960556421	 0.477907
C	 1.135622409	-1.1862399179	-1.7485827523	-0.077289
H	-0.140632195	 1.8479913325	 1.1060872769	 0.122476
H	-0.2236792376	 2.102880078	-0.6997896753	 0.119785
H	 2.0161419731	 0.4256511897	 0.7358491847	 0.111715
H	-1.192008946	-1.0084059766	-1.54338681	 0.082872
H	 0.0436569411	 1.4215653624	-2.8072554448	 0.093639
H	 1.5029498998	-0.8374049441	-4.1063247981	 0.103051
H	 1.5910905795	-2.0895719959	-1.348669605	 0.095612
309.9853	349.6064	418.2746	531.4416	547.338	647.8242	676.8701	718.0547	760.925	791.2106	803.9371	826.0225	876.5407	895.6959	913.1662	941.3418	945.7805	1006.0993	1014.7178	1054.3325	1067.7189	1090.6492	1104.8963	1113.8432	1133.9028	1140.2097	1175.7204	1213.1917	1222.8382	1230.1439	1250.6992	1292.7601	1326.53	1360.1768	1500.0535	3114.6203	3134.5669	3142.6077	3145.1554	3157.9632	3167.5778	3199.7408
C1C2N1C1C3C4OC23C14	C1[C@H]2N1[C@H]1[C@@H]3[C@H]4O[C@@]23[C@@H]14	
InChI=1S/C7H7NO/c1-2-7-3-5(8(1)2)4(7)6(3)9-7/h2-6H,1H2	InChI=1S/C7H7NO/c1-2-7-3-5(8(1)2)4(7)6(3)9-7/h2-6H,1H2/t2-,3-,4+,5+,6-,7+,8?/m1/s1
