17
gdb 32499	2.09567	1.61229	0.91987	2.2092	86.25	-0.1776	0.0195	0.1971	1238.4107	0.136188	-380.868973	-380.86	-380.859056	-380.902463	33.852	
C	 0.0454194331	 1.340829971	 0.113353986	-0.324246
N	-0.1804616017	-0.0706333882	-0.1207569133	-0.402131
C	 0.542264361	-0.6959291618	-1.1267791951	 0.198209
C	 1.1886825357	-0.1254526468	-2.2019303626	-0.16528
N	 1.7176881169	-1.1568044218	-2.9628224962	-0.246269
C	 1.4369041888	-2.3562200315	-2.3945470096	-0.189774
C	 0.7038764116	-2.1239721886	-1.2403578814	 0.093506
C	 0.2081722035	-3.0728378299	-0.3220902337	 0.220864
C	-0.2268359853	-3.8419818333	 0.4996728799	-0.462624
H	 1.1050439649	 1.5950793106	 0.2840192725	 0.105793
H	-0.3018364175	 1.9229538887	-0.7486757403	 0.125743
H	-0.5356806808	 1.6606026679	 0.9814905549	 0.121812
H	-0.2350553271	-0.6305193466	 0.7182694125	 0.238005
H	 1.3093621982	 0.9025362329	-2.4958780501	 0.115425
H	 2.2401731686	-1.0308870485	-3.8106499642	 0.263953
H	 1.7677196755	-3.2857673607	-2.8271943081	 0.127947
H	-0.6146325953	-4.5344668332	 1.2041015688	 0.179067
90.9185	121.0377	162.518	189.4782	230.4773	320.0561	397.4816	405.1751	471.7879	508.0822	521.2772	574.7768	610.3821	613.6708	623.4031	659.7574	726.0952	754.0788	757.3692	906.6753	1056.949	1084.6423	1123.0806	1158.0801	1171.8423	1214.638	1275.2592	1347.563	1358.4117	1459.7645	1476.7201	1483.7719	1505.2889	1525.2854	1566.1863	1634.6887	2218.8654	2962.8444	3048.848	3115.8597	3273.227	3282.831	3504.9797	3587.7792	3697.6308
CNC1=CNC=C1C#C	CNc1c[nH]cc1C#C	
InChI=1S/C7H8N2/c1-3-6-4-9-5-7(6)8-2/h1,4-5,8-9H,2H3	InChI=1S/C7H8N2/c1-3-6-4-9-5-7(6)8-2/h1,4-5,8-9H,2H3
