18
gdb 70463	3.5461	1.02818	0.91564	4.3159	76.16	-0.2638	0.0371	0.3009	1294.824	0.146627	-401.936145	-401.927434	-401.92649	-401.969905	32.168	
C	-0.1470878896	 1.5174173561	 0.157485717	-0.507424
C	 0.1359639764	 0.056591044	 0.0294879677	 0.396797
O	-0.7491608223	-0.8725086189	 0.6740382218	-0.288037
C	 0.6567083818	-0.9597280142	 0.9625400929	-0.034925
C	 1.295174956	-1.7728911756	-0.1671303482	-0.263113
C	 0.7408188391	-0.7038772861	-1.176430466	-0.058388
C	-0.2696526879	-1.16980675	-2.2326542769	-0.358432
C	 0.3238337442	-2.077329493	-3.2116582863	 0.258399
N	 0.8152351384	-2.7923261952	-3.9753295696	-0.309614
H	 0.7301133861	 2.1095951022	-0.121910286	 0.129672
H	-0.976118898	 1.8155967034	-0.4946362671	 0.132795
H	-0.4231979858	 1.7611387784	 1.186599678	 0.14133
H	 0.94936309	-0.8778297018	 2.003213815	 0.108735
H	 2.386342404	-1.7913690558	-0.1360101585	 0.117711
H	 0.9168363122	-2.7921079518	-0.2771759065	 0.122856
H	 1.5539646009	-0.1434503711	-1.6448853938	 0.096607
H	-1.0984256763	-1.6781284893	-1.7288039294	 0.167375
H	-0.6913604491	-0.3101287715	-2.7671295741	 0.147657
62.7706	115.7035	157.0137	192.8945	213.3934	297.4266	356.7233	399.6412	442.8262	532.3452	552.5189	639.4148	728.9009	830.4441	847.6775	881.5208	901.165	940.7499	958.9471	974.0224	1045.4254	1066.6314	1083.441	1105.7197	1150.7714	1196.7143	1214.9168	1241.9669	1263.8638	1279.7749	1314.6153	1362.9486	1406.3918	1458.35	1469.0154	1479.3422	1486.2747	1495.7028	2360.2119	3034.1232	3041.5263	3070.6644	3077.2239	3093.8232	3096.479	3123.8073	3129.8918	3186.2405
CC12OC1CC2CC#N	C[C@]12O[C@H]1C[C@H]2CC#N	
InChI=1S/C7H9NO/c1-7-5(2-3-8)4-6(7)9-7/h5-6H,2,4H2,1H3	InChI=1S/C7H9NO/c1-7-5(2-3-8)4-6(7)9-7/h5-6H,2,4H2,1H3/t5-,6+,7-/m1/s1
