22
gdb 120648	4.44764	0.69161	0.65392	2.4038	80.5	-0.2451	0.0606	0.3056	1786.9093	0.191579	-441.440886	-441.429889	-441.428945	-441.477812	38.641	
C	-0.3547774837	 1.2463803621	 0.0281230616	-0.224045
O	-0.1647252177	-0.1441453828	-0.0622971891	-0.232865
C	 0.7855107004	-0.5041988809	-1.0437946627	-0.066458
C	 0.8915573765	-2.0070222004	-1.0520941532	-0.073757
N	 0.0626725231	-2.7454190889	-2.0170580424	-0.360046
C	 1.5291459865	-2.8033230437	-2.1392767819	 0.309286
C	 2.1058680233	-2.1610652848	-3.3866495435	-0.465274
C	 2.2196661934	-4.0898844481	-1.714272813	-0.142013
O	 2.0044719789	-5.1678262259	-2.6146053885	-0.415195
H	 0.5775753465	 1.771648237	 0.2927544813	 0.100087
H	-0.728720636	 1.6713317766	-0.9170398693	 0.104932
H	-1.0946556195	 1.4257505885	 0.8120733254	 0.126851
H	 0.4771055974	-0.1367073871	-2.0337684535	 0.095204
H	 1.7659887322	-0.052954145	-0.8068544852	 0.081189
H	 0.9763348801	-2.4160669621	-0.0455140788	 0.08598
H	-0.2961254824	-3.6067163797	-1.6115209498	 0.233771
H	 1.5362506177	-1.2789121323	-3.6814111964	 0.134475
H	 3.1515729345	-1.8692460727	-3.2357970515	 0.114362
H	 2.0669270959	-2.8608406463	-4.2299275628	 0.111426
H	 3.2959220868	-3.9043588452	-1.5668832287	 0.090321
H	 1.8118686971	-4.4265670749	-0.7551080696	 0.104695
H	 2.4698217889	-4.9741227835	-3.4338559385	 0.287075
50.4947	66.6667	87.5601	116.575	173.9972	193.9957	233.4102	263.2849	279.8705	311.6445	343.4179	375.0239	430.6917	504.6094	620.9937	717.4797	853.2995	877.5896	942.1237	953.0832	985.7882	1003.8951	1051.2992	1078.5278	1085.5158	1100.6136	1140.3362	1158.0408	1183.1144	1201.0936	1211.9312	1236.9874	1274.2138	1296.0273	1351.312	1382.6751	1397.587	1414.4915	1425.7476	1469.5338	1477.8253	1484.9267	1490.2596	1497.9787	1499.8141	1507.006	1523.4235	2942.6914	2966.2924	2974.7136	3005.5904	3009.0845	3028.138	3069.1686	3083.5404	3111.5716	3112.6934	3139.2675	3496.3368	3828.5821
COCC1NC1(C)CO	COC[C@H]1N[C@]1(C)CO	
InChI=1S/C6H13NO2/c1-6(4-8)5(7-6)3-9-2/h5,7-8H,3-4H2,1-2H3	InChI=1S/C6H13NO2/c1-6(4-8)5(7-6)3-9-2/h5,7-8H,3-4H2,1-2H3/t5-,6-/m1/s1
