20
gdb 15437	4.48993	0.91529	0.83352	2.0999	72.55	-0.2433	0.0819	0.3252	1420.4103	0.175209	-386.105746	-386.096186	-386.095241	-386.140717	33.645	
C	 0.1329194668	 1.0930884876	-0.513250295	-0.229476
O	-0.1727384588	 0.1763110356	 0.5171412208	-0.233059
C	-1.376347389	-0.4911113094	 0.311584196	 0.114682
C	-1.4086887654	-1.6977118575	-0.5966620886	-0.325524
C	-1.5143750726	-1.856321019	 0.9128935076	-0.049757
C	-0.3807698556	-2.4791207295	 1.6992830728	-0.190449
C	-0.4165065425	-4.0025871177	 1.6607373109	-0.06472
O	 0.6632776913	-4.4836689542	 2.447682011	-0.421528
H	 1.0874354468	 1.5590275272	-0.257523322	 0.126926
H	 0.2235038218	 0.5931227326	-1.4883290759	 0.107947
H	-0.6346671026	 1.8776213875	-0.5979244854	 0.104576
H	-2.2510989258	 0.1622107833	 0.3173592427	 0.081054
H	-2.280977749	-1.8744412036	-1.216563578	 0.107703
H	-0.4637708345	-1.9836989894	-1.0481303937	 0.117066
H	-2.5072228456	-2.0896171721	 1.2911329905	 0.083608
H	 0.580097749	-2.1312854167	 1.3103564578	 0.117024
H	-0.4275906715	-2.1563362051	 2.74632619	 0.106652
H	-1.3836891354	-4.3631703915	 2.0494964454	 0.078427
H	-0.3382325657	-4.3481302221	 0.617429197	 0.085086
H	 0.6499060582	-5.4445994062	 2.4206181461	 0.283762
62.9042	88.79	112.3983	119.1176	199.3385	222.0004	261.5019	303.261	322.8969	447.3928	484.0067	596.9421	768.9898	796.9446	835.2406	890.8428	948.6202	999.7097	1028.7951	1041.5755	1056.6808	1082.5257	1111.3578	1137.5022	1169.6104	1181.5131	1185.4253	1221.604	1239.2861	1246.2901	1262.3777	1305.7536	1324.5989	1386.5471	1419.5078	1460.6343	1472.9224	1485.7942	1490.9599	1497.0277	1509.5599	1527.9069	2957.3348	2981.4104	2986.4108	3032.2863	3042.7699	3077.4423	3099.7917	3117.9462	3127.3775	3131.8891	3215.8873	3830.7814
COC1CC1CCO	CO[C@H]1C[C@H]1CCO	
InChI=1S/C6H12O2/c1-8-6-4-5(6)2-3-7/h5-7H,2-4H2,1H3	InChI=1S/C6H12O2/c1-8-6-4-5(6)2-3-7/h5-7H,2-4H2,1H3/t5-,6+/m1/s1
