19
gdb 110226	1.96276	1.51335	1.01721	3.1153	76.72	-0.2426	-0.0139	0.2286	1222.8109	0.15786	-423.015714	-423.006642	-423.005697	-423.049702	34.005	
C	-0.0584198779	 1.5397801883	 0.1051780572	-0.494342
C	-0.0078497466	 0.0431114344	-0.0063194728	 0.315909
C	-1.2636904006	-0.8527922502	 0.0151908182	-0.421794
C	-0.4940298112	-1.798010914	 0.9720368801	 0.422014
O	-0.8346400453	-2.7368398262	 1.6367090447	-0.321774
C	 0.7479861102	-0.9646843495	 0.9271571139	-0.256336
C	 1.1690033052	-0.7066118729	-0.5256046065	-0.081312
C	 1.1835344213	-1.7822514435	-1.5944596185	-0.098462
O	 2.316434712	-2.6260524925	-1.4719506913	-0.413391
H	 0.9356224103	 1.9578275406	 0.2920041791	 0.126007
H	-0.4371278908	 1.9875179109	-0.8211562407	 0.130556
H	-0.7198196266	 1.8547857293	 0.9196129683	 0.126468
H	-2.0962477041	-0.3928636265	 0.5579667127	 0.130194
H	-1.6387945043	-1.2508478173	-0.9310671863	 0.120851
H	 1.4351336089	-0.7911401221	 1.7471767487	 0.108302
H	 2.0755893496	-0.1030305768	-0.5511615654	 0.103551
H	 0.2513989584	-2.3635276985	-1.5876326029	 0.099718
H	 1.2679411492	-1.3165568612	-2.582623195	 0.114804
H	 2.2552541622	-3.0690238123	-0.6184891634	 0.289037
61.8602	110.5063	168.3715	214.9159	223.2569	297.6952	304.1652	353.8069	454.2007	470.4092	490.3358	589.4202	610.0049	650.9076	763.9752	839.7305	895.5588	944.7659	954.7667	960.4797	1011.548	1043.1598	1064.0006	1080.6739	1106.8932	1125.9158	1148.887	1192.0998	1210.3287	1246.6034	1280.3457	1327.9382	1380.0387	1415.5574	1422.0639	1459.3082	1477.8657	1486.1402	1497.9108	1503.757	1875.1702	3012.7031	3026.564	3055.1058	3068.4119	3086.9353	3104.1424	3106.8169	3123.7857	3187.411	3805.3624
CC12CC(=O)C1C2CO	C[C@]12CC(=O)[C@H]1[C@H]2CO	
InChI=1S/C7H10O2/c1-7-2-5(9)6(7)4(7)3-8/h4,6,8H,2-3H2,1H3	InChI=1S/C7H10O2/c1-7-2-5(9)6(7)4(7)3-8/h4,6,8H,2-3H2,1H3/t4-,6-,7-/m1/s1
