14
gdb 27015	2.87584	1.3608	0.92907	4.5458	75.77	-0.2184	-0.0378	0.1806	1174.927	0.101422	-432.914585	-432.906395	-432.90545	-432.947458	29.775	
C	-0.0018915458	 1.5287750535	 0.1326453233	-0.510591
C	 0.0112197553	 0.0488240478	 0.0094796843	 0.233183
C	-0.0058970242	-0.7418354113	-1.0888593581	 0.153223
O	 0.0178710019	-2.0837166645	-0.7077898508	-0.248636
C	 0.0508052276	-2.1305565235	 0.669622917	 0.461261
N	 0.0798881348	-3.1462135994	 1.4173275107	-0.597229
N	 0.0456601435	-0.8069064515	 1.0888452456	-0.372564
C	-0.0417516927	-0.4085559006	-2.4516273163	 0.225095
N	-0.0714358811	-0.1093780793	-3.5722633571	-0.346396
H	 0.8927176848	 1.8875322882	 0.6537717511	 0.15417
H	-0.0323131047	 1.9866305719	-0.8573597856	 0.172249
H	-0.8762242857	 1.8680316307	 0.6992252162	 0.154099
H	 0.0769024932	-4.0055724771	 0.8749582005	 0.237644
H	 0.0669040632	-0.554045685	 2.0614712694	 0.284491
122.3754	137.6314	159.7606	175.9936	278.0666	298.2269	407.525	441.9048	514.1565	548.7286	594.7006	650.263	658.7226	717.3078	757.8748	807.1789	956.6885	1007.166	1046.4391	1064.4765	1101.5327	1258.3216	1298.1758	1327.9396	1419.8848	1453.9131	1476.6944	1493.6571	1699.8528	1803.8629	2329.1845	3036.585	3090.898	3144.3796	3549.4847	3689.7006
CC1=C(OC(=N)N1)C#N	CC1=C(O[C@H]([NH])N1)C#N	
InChI=1S/C5H5N3O/c1-3-4(2-6)9-5(7)8-3/h1H3,(H2,7,8)	InChI=1S/C5H6N3O/c1-3-4(2-6)9-5(7)8-3/h5,7-8H,1H3/t5-/m1/s1
