19
gdb 98584	2.94196	1.01249	0.97141	3.0807	74.19	-0.2515	-0.0362	0.2153	1318.5345	0.157117	-460.166192	-460.156631	-460.155687	-460.200765	35.206	
C	-0.1946788973	 1.5128164195	-0.0365182403	-0.421171
C	 0.0287499626	 0.0202028847	 0.0338305118	-0.061597
C	 1.3480132534	-0.6122796497	-0.2204095691	 0.128561
O	 2.4909291141	 0.1109727045	-0.4837890542	-0.416822
C	 0.7636205083	-0.6632749527	 1.2203434138	-0.230434
C	 1.453181095	 0.1168397671	 2.2469657486	 0.388332
O	 2.1120123205	 1.129369628	 2.010702487	-0.399094
C	 1.3868695531	-0.3736407734	 3.6862130185	-0.130273
O	 2.114056717	 0.4477592192	 4.5462449726	-0.42031
H	 0.6644232781	 2.0765786998	 0.3273697957	 0.146388
H	-0.3794520832	 1.8064557566	-1.0750146364	 0.129499
H	-1.0663740192	 1.805481094	 0.5569209577	 0.122504
H	-0.8250899998	-0.5726206773	-0.2852927492	 0.103039
H	 1.3655652213	-1.5663984169	-0.7389546165	 0.117017
H	 2.6038619119	 0.7633119406	 0.229350571	 0.310714
H	 0.3444864429	-1.6036464756	 1.5628426673	 0.098769
H	 0.3247553341	-0.4234064828	 3.9800571952	 0.11964
H	 1.7595941532	-1.4120838392	 3.7074066738	 0.119782
H	 2.4967207041	 1.1345482137	 3.9768341624	 0.295458
65.027	116.1389	146.9754	156.2508	200.0583	216.9893	308.2881	371.5935	385.797	427.1068	477.0305	549.5645	594.9372	629.238	683.692	733.1217	806.9927	874.0087	921.0066	958.8268	1010.5946	1030.8447	1063.441	1089.8915	1124.9062	1139.1494	1162.1502	1176.5736	1245.3439	1256.3022	1304.8367	1361.1922	1391.7555	1408.4855	1423.479	1452.3608	1474.0086	1492.0267	1500.1791	1506.3632	1715.1045	2966.7329	2982.3137	3044.9819	3102.7384	3132.114	3151.8882	3155.5702	3167.0505	3625.9143	3685.5204
CC1C(O)C1C(=O)CO	C[C@H]1[C@@H](O)[C@H]1C(=O)CO	
InChI=1S/C6H10O3/c1-3-5(6(3)9)4(8)2-7/h3,5-7,9H,2H2,1H3	InChI=1S/C6H10O3/c1-3-5(6(3)9)4(8)2-7/h3,5-7,9H,2H2,1H3/t3-,5-,6-/m1/s1
