13
gdb 131955	2.71279	1.65702	1.03521	4.8406	63.38	-0.2885	-0.0983	0.1902	1049.9283	0.088492	-489.788943	-489.781388	-489.780443	-489.821943	26.709	
C	-0.0482047049	 1.5461514012	 0.0239651311	-0.493925
C	-0.0199875393	 0.0525261868	 0.0315390298	 0.0708
C	-0.0327992209	-0.8051541846	-1.0241644994	 0.031106
O	 0.0025589422	-2.0880931596	-0.6104918216	-0.15343
N	 0.0407889123	-2.1274997259	 0.7570830142	-0.15571
C	 0.0271108794	-0.8680572088	 1.1197710212	 0.394772
N	 0.0601150508	-0.5470998198	 2.542812096	 0.386635
O	 0.0996509251	-1.4655770311	 3.3390603493	-0.328115
O	 0.0447400753	 0.6490172416	 2.8167585507	-0.365883
H	 0.8355404847	 1.9585333963	 0.5171941162	 0.157593
H	-0.0846179996	 1.9195163591	-1.0022969428	 0.128075
H	-0.9169852473	 1.9256611865	 0.567534527	 0.157652
H	-0.0648503579	-0.6577894818	-2.0924716317	 0.17043
41.3411	161.5604	209.4099	214.	284.9728	324.1363	436.5456	536.7494	622.0291	643.8024	677.8242	804.144	840.0529	847.8137	934.8353	1002.5099	1026.2356	1071.1909	1138.9194	1174.7725	1290.7209	1389.7305	1420.5867	1434.3995	1466.9566	1476.2122	1493.9912	1633.468	1666.2551	3054.8419	3121.3644	3131.7319	3270.4473
CC1=CON=C1N(=O)=O	Cc1conc1N(=O)=O	
InChI=1S/C4H4N2O3/c1-3-2-9-5-4(3)6(7)8/h2H,1H3	InChI=1S/C4H4N2O3/c1-3-2-9-5-4(3)6(7)8/h2H,1H3
