16
gdb 27731	2.25139	1.49677	0.90473	5.3814	81.27	-0.2037	-0.0347	0.169	1235.3282	0.123786	-437.938678	-437.929956	-437.929012	-437.972137	31.878	
C	-0.0188051356	 1.5474548126	 0.0542923393	-0.508629
C	 0.0218407043	 0.051147415	 0.0304892383	 0.232348
C	 0.015497968	-0.7727198213	-1.0755405691	 0.150348
O	 0.0627267967	-2.0959433185	-0.6553011523	-0.190192
C	 0.0990679867	-2.0827367393	 0.681676654	 0.406537
N	 0.2127836123	-3.3050558241	 1.2891938304	-0.593175
C	 0.0747006004	-0.7965498916	 1.1704171444	-0.363316
C	-0.0360816999	-0.513692737	-2.4885680911	 0.054528
O	-0.0435299081	-1.3519305917	-3.3704736191	-0.311744
H	 0.8702509779	 1.9520650982	 0.5505426494	 0.140356
H	-0.0675261629	 1.9747179366	-0.948623101	 0.1391
H	-0.8895272512	 1.9037051087	 0.6157797703	 0.138702
H	-0.0994795457	-4.0845598146	 0.7282054039	 0.271623
H	-0.1018982199	-3.3445049496	 2.2460163975	 0.26666
H	 0.0971831689	-0.5016240145	 2.20764931	 0.105869
H	-0.0714172418	 0.5728318312	-2.7243898548	 0.060987
92.0705	136.7925	172.5823	191.3931	243.5643	266.355	297.7258	411.3504	414.8091	539.7243	558.0398	599.2087	654.944	690.1466	712.0954	753.2406	852.8459	992.9635	1004.2142	1033.6222	1058.2356	1085.8938	1110.6306	1206.4395	1301.8898	1351.9905	1416.8595	1431.3229	1481.0182	1481.6501	1497.0193	1583.3417	1627.348	1662.1364	1762.84	2879.0754	3037.2954	3087.363	3134.2254	3254.9378	3578.274	3688.0798
CC1=C(OC(N)=C1)C=O	Cc1c(oc(N)c1)C=O	
InChI=1S/C6H7NO2/c1-4-2-6(7)9-5(4)3-8/h2-3H,7H2,1H3	InChI=1S/C6H7NO2/c1-4-2-6(7)9-5(4)3-8/h2-3H,7H2,1H3
