16
gdb 47253	2.41818	1.78644	1.11414	5.0075	73.05	-0.2482	-0.0578	0.1904	1053.7679	0.124719	-437.892493	-437.88455	-437.883606	-437.92654	29.35	
N	-0.0407621749	 1.1951085754	 0.4950407454	-0.444181
C	 0.0025226312	 0.0433883257	-0.0294693088	 0.267678
O	 1.1979705129	-0.4780411234	-0.4320154245	-0.25769
C	 1.3756860469	-1.659169913	-1.234518265	-0.124485
C	 0.7214656372	-2.9017153162	-0.6956648932	-0.07232
C	-0.6053564542	-3.0072036585	-0.6818557428	-0.061896
C	-1.4767060385	-1.8634203385	-1.140230514	-0.366476
C	-1.3419876635	-0.705333136	-0.1535031438	 0.341693
O	-2.2658874383	-0.3627704493	 0.5345989774	-0.255992
H	 0.8989193485	 1.5993069899	 0.5149681711	 0.227869
H	 1.0240737894	-1.4503734505	-2.2550414868	 0.120879
H	 2.4597476642	-1.7730623452	-1.2803468308	 0.128943
H	 1.3569089303	-3.6996857253	-0.3264463246	 0.1121
H	-1.0974374649	-3.8850954456	-0.2757341897	 0.119685
H	-1.1732068318	-1.5239331925	-2.1400692568	 0.129807
H	-2.5321203846	-2.1339565468	-1.173120773	 0.134384
18.6665	73.8627	234.6979	286.665	332.8484	382.2813	405.9445	460.5695	556.2038	583.9427	647.1588	671.5876	768.3811	816.8526	910.2717	916.0732	951.8239	964.5308	992.7252	1013.056	1046.6467	1095.4053	1166.2848	1211.8562	1232.5859	1280.6282	1287.4991	1317.0437	1390.5439	1421.2995	1468.3328	1506.0831	1701.4361	1709.484	1820.1659	3000.2826	3019.0657	3115.9005	3132.8954	3176.9278	3198.5235	3458.357
N=C1OCC=CCC1=O	[NH][C]1OCC=CCC1=O	
InChI=1S/C6H7NO2/c7-6-5(8)3-1-2-4-9-6/h1-2,7H,3-4H2	InChI=1S/C6H7NO2/c7-6-5(8)3-1-2-4-9-6/h1-2,7H,3-4H2
