23
gdb 76678	2.91511	1.0318	0.91182	3.2944	86.26	-0.2258	0.0779	0.3037	1412.2617	0.205502	-384.412914	-384.402913	-384.401969	-384.448407	36.936	
C	 0.3405875692	 1.1720101019	 0.7958984845	-0.419937
C	 0.7366962688	-0.1712464423	 0.2242665376	 0.004293
C	 0.4546892616	-0.5895539786	-1.1842228623	-0.002495
C	-0.2422620463	 0.2931430813	-2.1960947879	-0.417326
N	 1.8313674962	-0.3496740474	-0.7412759849	-0.121409
C	 2.5931047324	 0.7848386244	-1.2522762673	-0.173566
C	 4.043164614	 0.7119443778	-0.798596338	 0.021588
C	 4.4219230977	 0.1419662886	 0.5148847842	-0.235817
N	 4.7272916574	-0.584137325	-0.7349413117	-0.316939
H	 1.0953156461	 1.5305106318	 1.5050900749	 0.128804
H	 0.1986878622	 1.9463187325	 0.0400048372	 0.123646
H	-0.6024353703	 1.0704942055	 1.34319263	 0.124827
H	 0.7244141897	-0.9608257159	 0.9761080145	 0.087544
H	 0.2509777752	-1.6488852406	-1.3457068364	 0.087208
H	-0.0782022434	 1.3588464741	-2.0254435531	 0.121953
H	 0.1046204081	 0.0625171331	-3.2095388901	 0.127292
H	-1.3218511646	 0.1104992341	-2.1710591483	 0.123563
H	 2.5719652685	 0.7437197184	-2.3492339954	 0.107472
H	 2.184985298	 1.7655865351	-0.9674030231	 0.093033
H	 4.6571720021	 1.5144055706	-1.2051593702	 0.082594
H	 5.286421244	 0.5282817857	 1.0477475582	 0.108604
H	 3.6302055333	-0.2502270425	 1.1463685103	 0.112914
H	 4.00766595	-1.2986868426	-0.8478999126	 0.232153
37.2492	99.622	149.0851	152.2462	169.601	207.6333	241.8149	284.3988	353.9196	429.661	506.8864	523.8474	572.3297	734.5246	767.9751	782.0038	835.8847	860.7519	925.017	956.155	965.4483	997.8278	1017.4534	1041.7892	1052.8523	1084.9388	1115.8259	1129.9007	1154.3706	1167.7522	1172.3638	1198.7902	1210.2965	1283.9085	1294.9371	1318.9178	1347.1821	1377.7248	1384.7568	1414.8018	1417.2573	1423.7852	1443.3676	1479.6609	1487.3808	1496.0638	1500.7138	1505.1742	1512.1648	2990.5256	3034.9402	3037.3525	3039.2815	3083.5622	3092.4155	3094.217	3095.5684	3110.7811	3116.8566	3123.744	3135.5023	3198.1708	3463.9892
CC1C(C)N1CC1CN1	C[C@H]1[C@@H](C)N1C[C@H]1CN1	
InChI=1S/C7H14N2/c1-5-6(2)9(5)4-7-3-8-7/h5-8H,3-4H2,1-2H3	InChI=1S/C7H14N2/c1-5-6(2)9(5)4-7-3-8-7/h5-8H,3-4H2,1-2H3/t5-,6+,7-,9?/m1/s1
