18
gdb 90332	2.70222	1.8543	1.83559	2.6283	76.69	-0.2202	-0.0077	0.2124	876.432	0.149806	-401.87923	-401.872369	-401.871425	-401.910041	28.562	
O	-0.1951405038	 1.463424874	 0.3927217086	-0.416722
C	-0.0107833121	 0.0769154609	 0.1802157687	 0.095988
C	 0.6948499129	-0.6395653289	 1.4131426603	-0.296491
C	-0.5891309172	-0.9066607337	 2.1507206144	 0.087569
C	-1.2456476792	 0.0746576577	 2.7866376888	-0.108475
C	-2.6048310019	 0.2685545595	 2.1433970113	-0.181908
N	-2.5906406544	-0.5970342935	 0.9414217297	-0.124686
C	-1.3797353606	-0.6352056622	 0.0259937522	-0.021175
C	-1.5338351843	-1.5713098822	 1.1631380163	-0.100639
H	 0.6701296954	 1.8858966195	 0.3971028357	 0.284259
H	 0.5625117997	-0.0945080265	-0.7442307467	 0.069434
H	 1.2313759188	-1.5334068468	 1.077778772	 0.100514
H	 1.3930793169	 0.0293849213	 1.923766012	 0.094859
H	-0.7763423998	 0.8458398788	 3.3869588864	 0.09528
H	-3.4735900086	-0.0252941022	 2.7477666086	 0.110457
H	-2.7315079201	 1.3212076249	 1.868564138	 0.12953
H	-1.6865568945	-0.8779985092	-0.9856811925	 0.096865
H	-1.7232325376	-2.6397429213	 1.116529576	 0.085339
143.6412	228.048	322.3091	339.2249	383.7808	437.2241	528.6042	617.7782	654.7797	718.9393	770.1875	774.96	819.6602	827.2149	859.197	898.2974	922.1371	940.7971	981.0121	999.5739	1020.0687	1049.3344	1072.9142	1106.8202	1129.0706	1164.594	1204.5315	1215.8939	1237.6576	1244.287	1290.1662	1308.1088	1315.2584	1327.0621	1360.7688	1413.8932	1471.2007	1482.8583	1645.5957	2975.6909	3015.4238	3044.0487	3073.9836	3101.5321	3147.4027	3168.0456	3195.216	3808.3209
OC1CC2=CCN3C1C23	O[C@H]1C[C]2[CH]CN3[C@@H]1[C@@H]23	
InChI=1S/C7H9NO/c9-5-3-4-1-2-8-6(4)7(5)8/h1,5-7,9H,2-3H2	InChI=1S/C7H9NO/c9-5-3-4-1-2-8-6(4)7(5)8/h1,5-7,9H,2-3H2/t5-,6+,7-,8?/m0/s1
