14
gdb 125740	3.20925	1.45326	1.00648	3.4549	68.52	-0.2837	-0.0692	0.2145	1097.4931	0.101121	-470.026814	-470.01902	-470.018076	-470.059376	28.771	
C	 0.1239289004	 1.5115816013	 0.0587926574	-0.452235
C	-0.0092763523	 0.0203888702	 0.0217702489	 0.34928
N	-0.1363651702	-0.5274494004	-1.1299647233	-0.12638
O	-0.2639994355	-1.9289507736	-1.2008339578	-0.264496
C	-0.2597363228	-2.74157186	-0.1022097634	 0.514593
O	-0.3718949971	-3.9272823454	-0.2234458214	-0.354956
N	-0.1201401616	-2.0988740159	 1.1105958693	-0.449511
C	 0.0124657624	-0.7294730689	 1.2949806093	 0.334342
N	 0.1425031434	-0.1128019773	 2.4014663729	-0.509334
H	 1.0646302893	 1.7923610362	 0.5406801509	 0.157252
H	 0.0892189943	 1.9104809315	-0.9551680452	 0.148973
H	-0.6797261771	 1.9451999661	 0.6605261575	 0.157252
H	-0.119122359	-2.7154264486	 1.9115708899	 0.272359
H	 0.1419822558	-0.7468616455	 3.2024056051	 0.22286
91.3699	125.2661	165.2726	300.2204	320.7343	383.3501	389.0526	464.7703	542.2364	584.6794	612.3504	710.3813	753.5038	754.7209	785.1092	875.4493	920.2285	942.9945	1051.3977	1061.9999	1128.8684	1226.8665	1297.7462	1408.4906	1416.6451	1449.4638	1465.7277	1466.5766	1674.8132	1729.909	1877.2407	3057.0341	3118.9204	3160.7996	3464.5993	3607.9826
CC1=NOC(=O)NC1=N	CC1=NOC(=O)N[C]1[NH]	
InChI=1S/C4H5N3O2/c1-2-3(5)6-4(8)9-7-2/h1H3,(H2,5,6,8)	InChI=1S/C4H5N3O2/c1-2-3(5)6-4(8)9-7-2/h1H3,(H2,5,6,8)
