21
gdb 122374	4.32704	0.86207	0.80978	2.0486	80.06	-0.258	0.082	0.34	1486.463	0.183021	-424.160161	-424.151468	-424.150524	-424.194772	32.784	
O	 0.2192354476	 1.1923885558	-0.5742765686	-0.421497
C	-0.0846192981	 0.0151005537	 0.1468048748	-0.061716
C	-1.5767065282	-0.277695388	 0.1399347972	-0.081574
O	-1.9603368482	-0.4199067804	-1.2191518939	-0.287883
C	-3.3082270971	-0.7524986867	-1.4010598931	 0.201155
C	-4.4165520649	 0.348783683	-1.306449979	-0.087449
C	-3.8385543138	 0.9371752217	-2.6284257948	-0.216989
C	-3.8571059457	-0.6087264057	-2.8390146468	-0.088584
C	-5.272151132	-0.6014073511	-2.1909658204	-0.223321
H	-0.1978626523	 1.0863012555	-1.4369349095	 0.291992
H	 0.4515969965	-0.8568802785	-0.2606184446	 0.092602
H	 0.2561877861	 0.1692656348	 1.1759024647	 0.107551
H	-1.7925356969	-1.1995299478	 0.7043364771	 0.087391
H	-2.1279464096	 0.5513185709	 0.6082461985	 0.100422
H	-3.5393110602	-1.6959760315	-0.8845201263	 0.061272
H	-4.7446316024	 0.8949862108	-0.4214194767	 0.071849
H	-4.5337997302	 1.5157082606	-3.2421280363	 0.089793
H	-2.8599391887	 1.4122512525	-2.5682661886	 0.101376
H	-3.5337579153	-1.1660856258	-3.718724732	 0.074073
H	-5.616582395	-1.5346671179	-1.735505272	 0.0909
H	-6.0619607214	-0.1257465159	-2.7756094497	 0.098638
42.1549	58.9565	122.0372	180.8879	285.1216	337.2745	396.2833	424.2117	476.2245	553.4737	641.646	771.1215	806.9538	869.8326	884.0684	894.8936	902.5454	909.9261	935.4199	1016.6598	1019.338	1025.6171	1071.7455	1090.1115	1096.2979	1104.0939	1118.6344	1135.5007	1152.4646	1180.9787	1196.6736	1217.1074	1235.5065	1246.4767	1259.6679	1265.7125	1280.5883	1382.7319	1387.8985	1429.3166	1440.0318	1494.8212	1498.0766	1507.9007	1533.3668	2971.5233	2979.9117	2994.2587	3020.8368	3052.9537	3067.5573	3079.4885	3106.1153	3111.8345	3123.4166	3146.3732	3802.5211
OCCOC1C2CC1C2	OCCO[C@H]1[C@H]2C[C@@H]1C2	
InChI=1S/C7H12O2/c8-1-2-9-7-5-3-6(7)4-5/h5-8H,1-4H2	InChI=1S/C7H12O2/c8-1-2-9-7-5-3-6(7)4-5/h5-8H,1-4H2/t5-,6+,7-
