19
gdb 82531	2.28881	1.59702	1.3713	1.0965	75.6	-0.2435	0.0703	0.3138	1057.5575	0.157694	-422.971353	-422.962648	-422.961704	-423.004245	33.555	
C	-0.0078754243	 1.5577465878	 0.0828588065	-0.421736
C	 0.1021354813	 0.0469836614	 0.1339871074	-0.085916
C	 1.3466072656	-0.7634902729	-0.1658658766	-0.133331
C	 2.6091020684	-0.0603504031	 0.3565457483	-0.34217
C	 1.9871440453	-0.1140994049	 1.7665892121	 0.394143
C	 2.6427345977	-0.3666399386	 3.0451276555	-0.265945
O	 2.0371111023	 0.9055199597	 2.7569144488	-0.28874
C	 0.724743992	-0.7574175771	 1.24488021	 0.294689
O	 0.0616259624	-1.7743746159	 1.9094251264	-0.458459
H	 0.8523224481	 2.0511098421	 0.5399935542	 0.142124
H	-0.0916164979	 1.9078150921	-0.9519645589	 0.116172
H	-0.8990901051	 1.8977241068	 0.6213838511	 0.116464
H	-0.7812960824	-0.4693237109	-0.241154115	 0.088504
H	 1.3400088164	-1.5662932619	-0.8915747722	 0.096594
H	 3.5133243987	-0.6678666418	 0.2702070555	 0.111716
H	 2.8121428991	 0.9384719153	-0.038910568	 0.110709
H	 2.1328928187	-0.9653717322	 3.7981174502	 0.121174
H	 3.7306418173	-0.3641451411	 3.104546655	 0.112569
H	-0.7575448835	-1.4185615651	 2.2691202999	 0.291439
101.6048	162.6088	204.124	222.3556	239.4291	277.5913	306.748	371.4741	435.5725	509.2684	528.2093	603.1609	685.2548	752.6899	797.4155	842.5955	892.278	915.2283	939.4871	959.4308	986.5163	1040.8835	1073.0501	1100.4501	1119.7155	1123.4518	1147.2343	1157.2079	1172.8303	1230.4569	1236.6174	1271.8253	1312.1198	1344.6688	1420.8624	1439.1458	1459.7081	1488.6487	1501.4398	1506.9227	1536.8691	3035.1243	3060.5572	3081.5868	3090.6781	3109.2144	3112.274	3134.0834	3170.6239	3200.6619	3807.6643
CC1C2CC3(CO3)C12O	C[C@H]1[C@H]2C[C@]3(CO3)[C@@]12O	
InChI=1S/C7H10O2/c1-4-5-2-6(3-9-6)7(4,5)8/h4-5,8H,2-3H2,1H3	InChI=1S/C7H10O2/c1-4-5-2-6(3-9-6)7(4,5)8/h4-5,8H,2-3H2,1H3/t4-,5+,6-,7+/m0/s1
