17
gdb 75691	2.22428	1.79886	1.22479	2.0819	72.4	-0.2399	-0.0316	0.2084	1038.6575	0.135618	-421.867314	-421.859179	-421.858235	-421.900289	30.499	
C	-0.485946561	 1.4318977656	 0.0430857372	-0.405398
C	 0.0201119034	-0.0171577297	 0.0117334682	-0.230419
C	 0.7763160744	-0.4140516304	-1.2644144712	 0.404958
O	 0.3033578576	-0.440057584	-2.3729141998	-0.327468
C	 2.1747373644	-0.8271495786	-0.904119715	-0.152582
C	 2.9745329263	 0.2431524495	-0.1996763777	-0.292827
C	 2.283221024	-0.8221922109	 0.6179971819	-0.152582
C	 0.9498339438	-0.4061337717	 1.1702837028	 0.404956
O	 0.6388861862	-0.4246959217	 2.334802593	-0.327466
H	 0.3359222237	 2.1518085088	-0.0178336582	 0.124283
H	-1.1550713136	 1.6091518268	-0.8024673005	 0.144074
H	-1.0284705415	 1.6149312934	 0.9738237985	 0.144074
H	-0.8514915529	-0.6822952699	 0.0760168142	 0.141331
H	 2.6862054527	-1.5433578018	-1.5344297042	 0.120992
H	 4.0527859798	 0.1643854455	-0.2762710689	 0.14282
H	 2.6039931479	 1.261604302	-0.1765854125	 0.140261
H	 2.8792410649	-1.534534533	 1.1740303922	 0.120993
58.5166	166.3292	195.6187	208.6813	220.8722	323.2805	383.6436	513.7352	551.1651	553.0287	668.7842	710.1906	788.9323	795.877	828.0167	896.9808	908.4103	941.5923	966.4722	1068.5282	1070.5305	1082.3315	1096.2999	1099.0937	1156.1938	1181.5554	1235.1893	1247.7716	1291.6907	1325.2351	1330.7794	1401.1987	1485.6124	1496.0093	1500.7238	1818.8827	1853.5455	3031.2327	3046.6024	3117.7459	3133.038	3143.2998	3199.6737	3205.9442	3230.3688
CC1C(=O)C2CC2C1=O	C[C@H]1C(=O)[C@H]2C[C@H]2C1=O	
InChI=1S/C7H8O2/c1-3-6(8)4-2-5(4)7(3)9/h3-5H,2H2,1H3	InChI=1S/C7H8O2/c1-3-6(8)4-2-5(4)7(3)9/h3-5H,2H2,1H3/t3-,4-,5+
