12
gdb 132124	3.0859	1.48005	1.00146	3.6907	64.66	-0.2168	-0.0846	0.1322	1052.3526	0.076728	-513.943383	-513.93595	-513.935006	-513.975424	27.513	
N	 0.076758267	 1.4405604023	 0.2231059846	-0.580664
C	 0.0333866049	 0.0513224244	 0.0733603322	 0.125229
C	-1.1133268117	-0.6602502136	-0.0745239449	 0.340268
F	-2.3053192908	-0.1063831504	-0.1750070828	-0.036334
O	-1.1570312504	-1.9814331284	-0.1431383532	-0.214221
C	 0.0258254156	-2.7593615456	-0.0605352459	 0.393694
O	-0.0650656339	-3.951073832	-0.1194075484	-0.320572
C	 1.2163994196	-1.9313941598	 0.0824289613	-0.136469
N	 1.2096070879	-0.6373662017	 0.1425756553	-0.236636
H	 0.9772626923	 1.809244303	-0.0536133261	 0.25983
H	-0.6802745486	 1.9264366052	-0.2381235174	 0.256137
H	 2.163061698	-2.4596261735	 0.1360610454	 0.14974
104.8038	177.7467	230.7868	282.7653	348.2371	358.2873	456.422	469.8677	525.1669	599.7817	645.2496	697.9923	714.481	758.9552	822.2847	875.5992	908.7209	1047.438	1094.2685	1282.9145	1327.1629	1369.2457	1440.0312	1549.7528	1632.2312	1714.3012	1857.2862	3187.8101	3548.7187	3651.4949
NC1=C(F)OC(=O)C=N1	Nc1c(F)oc(=O)cn1	
InChI=1S/C4H3FN2O2/c5-3-4(6)7-1-2(8)9-3/h1H,6H2	InChI=1S/C4H3FN2O2/c5-3-4(6)7-1-2(8)9-3/h1H,6H2
