17
gdb 67765	2.58587	2.09646	1.70518	1.3131	76.94	-0.2299	0.0075	0.2373	866.8267	0.137053	-384.680783	-384.673762	-384.672818	-384.712153	28.859	
O	-0.1634830947	 1.4595772068	 0.0208888777	-0.498634
C	-0.0204034905	 0.0563906504	 0.0035942312	 0.347694
C	 0.6991239345	-0.5754892908	-1.1855815963	-0.177214
C	 0.0643428143	-1.6934866511	-1.5762203801	-0.051973
C	-1.184007678	-1.8812100915	-0.8249708872	-0.099563
C	-1.1762805959	-1.9004709892	 0.7968795746	-0.099485
C	 0.079143242	-1.7304505803	 1.5405767022	-0.052068
C	 0.7102046679	-0.6033056031	 1.1707750749	-0.176848
C	-1.3981998246	-0.6525553089	 0.0017359584	-0.117236
H	 0.7138414131	 1.8556774939	 0.0153277275	 0.274381
H	 1.6837683501	-0.2539220642	-1.5084236741	 0.089544
H	 0.4401951299	-2.410681088	-2.296749543	 0.095715
H	-2.0142863485	-2.4336925539	-1.2494675059	 0.091955
H	-2.0025398735	-2.4630146613	 1.2159666988	 0.09197
H	 0.4615994325	-2.46445714	 2.2404000189	 0.095697
H	 1.6976348817	-0.2890089201	 1.4921891932	 0.089552
H	-2.3086237205	-0.0654809888	 0.0130122291	 0.096513
59.9706	258.3231	307.7149	341.6508	389.0334	465.9623	562.6081	619.2482	669.198	681.6372	750.0439	755.1359	789.3084	803.9396	821.5811	841.2174	910.917	921.455	937.538	981.2184	1029.1407	1046.805	1047.9631	1069.3318	1090.4781	1115.5509	1126.242	1128.7538	1184.6661	1268.1258	1311.6214	1345.9393	1373.6243	1381.5147	1393.307	1615.6421	1623.3896	3173.4959	3177.1081	3180.9372	3183.5189	3190.7097	3206.3185	3208.7628	3818.4964
OC12C=CC3C(C=C1)C23	O[C@@]12C=C[C@H]3[C@@H](C=C1)[C@@H]23	
InChI=1S/C8H8O/c9-8-3-1-5-6(2-4-8)7(5)8/h1-7,9H	InChI=1S/C8H8O/c9-8-3-1-5-6(2-4-8)7(5)8/h1-7,9H/t5-,6+,7-,8-
