19
gdb 70279	4.04834	1.10718	0.99196	3.3949	76.99	-0.2444	0.022	0.2665	1227.9822	0.160792	-419.224988	-419.216637	-419.215693	-419.258154	31.46	
C	-0.0376880371	 1.5067362925	 0.0014092205	-0.47092
C	-0.0172316777	 0.0017107606	 0.0537122164	 0.326878
C	-1.2745972125	-0.7596955835	-0.3596595097	-0.248654
N	-1.0819294144	-2.0914120658	 0.2044570044	-0.056609
C	-0.1686954268	-2.0705839088	 1.3469081332	-0.195207
C	 0.6571108497	-0.8199933872	 1.1005891791	-0.073091
N	 1.2613711036	-0.6648287061	-0.2294761976	-0.367391
C	-1.560138523	-3.2456299063	-0.3295985416	 0.140483
O	-1.3649995797	-4.3541358525	 0.1241325103	-0.336138
H	 0.911021359	 1.9097429183	 0.3622179964	 0.137375
H	-0.1821817459	 1.8616227136	-1.0254434845	 0.124305
H	-0.8487573681	 1.9129074289	 0.6155682429	 0.118756
H	-2.1593938487	-0.2594409023	 0.0616149986	 0.112575
H	-1.4097562781	-0.8166874349	-1.4458729844	 0.121991
H	-0.7108064975	-1.9920221331	 2.2996460402	 0.118122
H	 0.4053910208	-3.0009995103	 1.3651693271	 0.144634
H	 1.2103709537	-0.388084612	 1.9283774368	 0.098514
H	 1.12717642	-1.5095620595	-0.7836829484	 0.232348
H	-2.1573904175	-3.0616733116	-1.2452464598	 0.07203
53.019	180.1079	191.0492	237.306	254.0826	314.0583	333.7659	395.4173	416.8904	518.2433	624.1525	718.2309	759.6153	837.5299	874.2166	899.4222	952.2699	975.7204	991.1138	1034.5753	1050.1883	1083.4554	1115.6014	1131.3922	1167.9841	1189.512	1219.8308	1262.1348	1280.2782	1314.8618	1333.5297	1358.7426	1409.3071	1417.5647	1442.1366	1457.9491	1487.3934	1495.2427	1510.365	1519.3499	1793.5451	2930.5099	2991.0149	3011.9443	3032.8335	3057.9965	3092.0391	3095.1132	3129.146	3165.6279	3472.3066
CC12CN(CC1N2)C=O	C[C@]12CN(C[C@H]1N2)C=O	
InChI=1S/C6H10N2O/c1-6-3-8(4-9)2-5(6)7-6/h4-5,7H,2-3H2,1H3	InChI=1S/C6H10N2O/c1-6-3-8(4-9)2-5(6)7-6/h4-5,7H,2-3H2,1H3/t5-,6+/m1/s1
