18
gdb 38233	3.08464	2.0963	1.72016	1.1867	75.75	-0.2179	0.0095	0.2274	843.0936	0.148813	-401.777818	-401.771511	-401.770566	-401.807858	27.772	
C	 0.055513015	 1.7966440145	-0.1238759415	-0.227483
C	 1.4772846666	 1.4479479819	 0.1692030155	 0.030637
O	 0.959341462	 0.3119382929	 1.0256978208	-0.401123
C	 0.0039130581	 0.2215935558	-0.1321675589	 0.399019
C	-1.3009843716	-0.2335406853	-0.7511540338	-0.34808
C	-0.8715197201	 0.3425600934	-2.19707628	-0.153748
N	 0.6546738785	 0.3008704007	-2.3450585389	-0.195284
C	 1.8369934743	 0.8052401344	-1.2157527325	-0.047996
C	 1.0211931144	-0.3734795124	-1.1443502473	-0.024853
H	-0.4953068613	 2.1284514339	 0.7577529383	 0.106853
H	-0.1720574737	 2.3968490916	-1.0018274664	 0.109921
H	 2.2147648554	 2.0626421255	 0.6838391901	 0.091562
H	-1.4540526586	-1.3153442536	-0.7923919556	 0.113749
H	-2.2007099938	 0.2530605628	-0.3699836815	 0.112384
H	-1.2151308395	-0.3376922389	-2.9823021057	 0.123003
H	-1.304443549	 1.3251248977	-2.393021986	 0.119494
H	 2.7779015336	 0.8987328881	-1.7411762828	 0.111686
H	 1.2971060397	-1.4252197532	-1.0608737036	 0.080259
249.6533	312.7703	356.0828	417.6283	441.319	549.0516	578.1031	633.6256	669.6102	716.6156	752.9173	796.6267	820.001	829.1149	857.3658	876.8704	882.1737	944.6994	959.2316	999.3672	1012.0359	1055.2308	1090.2105	1102.3402	1135.0395	1174.5481	1183.9653	1194.5408	1222.5935	1230.1392	1242.9305	1249.0919	1267.7895	1285.8114	1308.6071	1391.7971	1482.5212	1492.9507	1500.2029	3057.9778	3066.0829	3085.6376	3093.7653	3110.4086	3129.7558	3134.4022	3161.5324	3216.8069
C1C2OC11CCN3C2C13	C1[C@H]2O[C@]31CCN1[C@@H]2[C@@H]31	
InChI=1S/C7H9NO/c1-2-8-5-4-3-7(1,9-4)6(5)8/h4-6H,1-3H2	InChI=1S/C7H9NO/c1-2-8-5-4-3-7(1,9-4)6(5)8/h4-6H,1-3H2/t4-,5+,6+,7+,8?/m1/s1
