20
gdb 90420	2.33573	1.57677	1.23898	1.6455	78.69	-0.2274	-0.0257	0.2016	1114.9465	0.170035	-403.125227	-403.116269	-403.115325	-403.159222	33.39	
C	 0.2538195084	 1.618877405	-0.1949649797	-0.413017
C	 0.0366661465	 0.1280226708	 0.0177955017	 0.01944
C	 0.800878924	-0.8919134913	-0.8707796532	-0.200938
N	 1.1980691382	-1.7136617583	 0.3267309329	-0.149917
C	 2.6206475084	-1.5070549361	 0.7908509801	-0.063271
C	 3.7749527073	-1.4787967681	-0.1956923788	-0.416893
C	 2.1735112712	-0.2251270985	 1.523633911	 0.36366
O	 2.732653379	 0.7001346744	 2.0357745315	-0.300624
C	 0.7056675583	-0.5869880747	 1.2206594029	-0.123338
H	 1.3155060331	 1.8809032537	-0.1689523438	 0.130016
H	-0.1503149985	 1.9308149731	-1.1641980829	 0.117399
H	-0.2497655023	 2.2060154808	 0.5800502851	 0.125498
H	-1.0346282804	-0.0937682319	 0.0201558652	 0.089325
H	 0.1970578003	-1.4640271077	-1.5798965887	 0.110787
H	 1.6410230372	-0.4488854001	-1.4164874923	 0.101183
H	 2.8167648874	-2.2820973787	 1.5456913074	 0.113239
H	 3.6960728867	-0.6606383244	-0.9157548461	 0.127361
H	 4.7127009204	-1.3445905811	 0.3511855221	 0.139293
H	 3.8325954123	-2.422676652	-0.7466546183	 0.132626
H	 0.0917949326	-0.8375110948	 2.0910056038	 0.098172
47.0133	120.3477	158.7874	186.9654	208.9621	282.9413	308.1525	374.6604	440.3988	523.9526	580.8651	617.8506	704.8475	758.3482	822.301	883.8877	903.7218	908.085	948.5716	973.6984	1007.5708	1029.1238	1088.862	1117.3724	1123.5574	1158.6443	1171.9363	1185.8108	1195.9055	1238.3547	1257.8931	1299.9213	1310.1014	1350.7755	1367.7324	1402.6342	1416.7968	1486.3337	1494.1028	1495.1715	1496.2506	1512.658	1884.7021	3003.6102	3033.6941	3039.8366	3047.6296	3053.9248	3067.6579	3092.774	3098.6819	3113.8664	3116.5063	3121.9765
CC1CN2C(C)C(=O)C12	C[C@H]1CN2[C@@H](C)C(=O)[C@@H]12	
InChI=1S/C7H11NO/c1-4-3-8-5(2)7(9)6(4)8/h4-6H,3H2,1-2H3	InChI=1S/C7H11NO/c1-4-3-8-5(2)7(9)6(4)8/h4-6H,3H2,1-2H3/t4-,5-,6+/m0/s1
