18
gdb 91779	2.37589	1.75609	1.30024	4.6021	71.76	-0.2271	-0.0276	0.1995	1026.2908	0.148188	-439.090436	-439.082208	-439.081264	-439.12293	31.816	
C	-0.4512994554	 1.3751004133	 0.0810041806	-0.499805
C	 0.1291502103	-0.0001639158	-0.0750856523	 0.209664
N	-0.5695755382	-1.207412714	 0.4786400569	-0.384529
C	 0.7542913586	-0.8279128301	 1.001457464	-0.080767
C	 1.8638788659	-1.6955523321	 0.4213640902	-0.253087
C	 1.5638850412	-1.7305030365	-1.0974145842	 0.00804
O	 0.716975555	-2.8008752392	-1.4770211081	-0.434875
C	 0.8491141351	-0.3769897406	-1.3496323088	 0.387512
O	 0.906415911	 0.2982742923	-2.3445741964	-0.320978
H	 0.30997096	 2.1371269409	-0.1091996304	 0.143619
H	-1.2606596672	 1.5366730698	-0.6376638838	 0.14511
H	-0.845734825	 1.5272083055	 1.0908679591	 0.113736
H	-1.3011775559	-0.8853934741	 1.108895011	 0.24066
H	 0.8238625627	-0.4458010177	 2.0151434127	 0.099072
H	 2.8358215364	-1.2269871888	 0.6131403354	 0.110948
H	 1.8775607885	-2.7059728906	 0.8396501212	 0.118546
H	 2.46276826	-1.8032004039	-1.7118790663	 0.102258
H	-0.077651863	-2.7054952481	-0.9288196808	 0.294877
105.8495	161.7369	200.4925	227.4409	264.7869	318.5791	388.6107	443.2391	478.7964	561.9457	598.4237	633.9767	701.6865	789.5345	812.9497	833.7256	868.7243	922.9196	955.1835	1013.6987	1034.7325	1054.3215	1072.2391	1109.6722	1123.658	1158.1748	1201.9013	1248.3489	1288.1295	1303.1	1336.1941	1358.0865	1413.558	1439.8709	1462.7913	1475.6085	1479.1972	1495.8807	1847.6937	3038.082	3046.1533	3099.312	3107.1001	3108.4393	3114.1106	3163.4099	3492.4435	3692.2854
CC12NC1CC(O)C2=O	C[C@]12N[C@H]1C[C@@H](O)C2=O	
InChI=1S/C6H9NO2/c1-6-4(7-6)2-3(8)5(6)9/h3-4,7-8H,2H2,1H3	InChI=1S/C6H9NO2/c1-6-4(7-6)2-3(8)5(6)9/h3-4,7-8H,2H2,1H3/t3-,4+,6+/m1/s1
