20
gdb 76093	2.42856	1.23391	1.01562	1.2162	86.56	-0.2191	0.0355	0.2546	1273.9436	0.169103	-365.929413	-365.919936	-365.918991	-365.9639	35.483	
C	-0.574686633	 1.2139749322	 0.4288144526	-0.312953
N	 0.0530331441	-0.082728404	 0.2055020287	-0.114713
C	 1.3164083891	-0.152480685	-0.5573235429	-0.231943
C	 1.9657460857	 1.029719673	-1.0521084744	 0.360571
C	 2.4989911721	 2.011445853	-1.5003382828	-0.473861
C	 1.2699913812	-0.4356201725	 0.9254699009	-0.014172
C	 1.9360307994	 0.4578967035	 1.92180405	 0.006459
C	 1.636132313	 0.2761119582	 3.3932955542	-0.270963
C	 2.9774006186	-0.1304556919	 2.8443625812	-0.275267
H	 0.1209846584	 2.0582140175	 0.5141871447	 0.116433
H	-1.2530298579	 1.4184160258	-0.4049315651	 0.125357
H	-1.1683269844	 1.155453958	 1.3458692333	 0.124753
H	 1.3615507102	-0.999217413	-1.2398759249	 0.111549
H	 2.9754638614	 2.8734097638	-1.8973216898	 0.198573
H	 1.2965873644	-1.4893083145	 1.2080942153	 0.089285
H	 2.1223439876	 1.4717353779	 1.5878452573	 0.100754
H	 1.5761298926	 1.1625022611	 4.0148526641	 0.114255
H	 0.944361375	-0.5114038349	 3.6737729425	 0.115988
H	 3.1887545488	-1.1912486376	 2.7563870937	 0.114209
H	 3.8434798637	 0.4754132092	 3.0847681713	 0.115685
59.0323	106.7796	134.6276	166.6302	188.8032	256.3639	307.4352	349.1629	367.8318	529.6699	582.1314	599.818	609.3099	660.3282	716.9089	771.2434	835.3165	835.9815	850.0618	922.4004	935.0238	996.5753	1047.7968	1062.4623	1078.5126	1090.7055	1132.1327	1143.6996	1160.6367	1170.8163	1199.8348	1218.5877	1228.322	1311.2019	1338.6214	1362.0961	1446.1507	1458.4283	1471.2805	1487.32	1504.2922	1507.1033	2226.3958	3016.7701	3084.676	3086.0973	3110.2247	3116.8754	3131.2035	3135.5228	3180.0031	3209.94	3225.459	3502.9215
CN1C(C#C)C1C1CC1	CN1[C@@H](C#C)[C@H]1C1CC1	
InChI=1S/C8H11N/c1-3-7-8(9(7)2)6-4-5-6/h1,6-8H,4-5H2,2H3	InChI=1S/C8H11N/c1-3-7-8(9(7)2)6-4-5-6/h1,6-8H,4-5H2,2H3/t7-,8+,9?/m0/s1
