17
gdb 34976	4.11286	1.40586	1.35134	4.4039	75.63	-0.2526	0.0096	0.2622	975.6123	0.139523	-380.830113	-380.823636	-380.822692	-380.860934	26.455	
N	-0.1226179434	-1.2191186394	-0.1274882102	-0.332561
C	-0.0729537294	-0.0660591569	-0.0586514222	 0.291232
C	-0.0141846631	 1.386571034	 0.0470802735	-0.105042
C	-0.1546241681	 2.0876681917	 1.4223583655	-0.075191
C	 0.9399363873	 1.3591808554	 2.2229631775	-0.241405
C	 2.0759186621	 1.809364075	 1.2768092212	 0.002043
C	 2.0756101054	 3.3391881456	 1.4854787757	-0.238679
C	 0.7419755918	 3.2114570064	 0.7559044382	 0.00163
N	 1.3314959861	 2.0579999069	-0.0679611872	-0.156201
H	-0.6611856527	 1.8262458975	-0.7181896396	 0.128371
H	-1.1243212529	 2.2712818445	 1.8841556852	 0.081304
H	 1.07140706	 1.7407715829	 3.2380176424	 0.106212
H	 0.7846382584	 0.2796284842	 2.2716192329	 0.132304
H	 2.9870652707	 1.2185187445	 1.2173455254	 0.091392
H	 2.1068601654	 3.7211501232	 2.5076727764	 0.104253
H	 2.8056538089	 3.8502158827	 0.8550392803	 0.123007
H	 0.2470269934	 4.0213442017	 0.2190565849	 0.08733
131.4062	159.7292	372.3278	399.8492	477.4578	505.879	560.1908	706.6991	728.0243	758.6832	829.328	833.7384	884.4208	906.444	937.5658	955.4889	963.3758	978.412	1003.9177	1022.7944	1043.4758	1059.5944	1094.1809	1114.9709	1186.4417	1191.1949	1205.4935	1229.7488	1236.0288	1258.5011	1280.6784	1302.5962	1330.2074	1373.8001	1483.7644	1518.0505	2351.9089	3070.6415	3073.2694	3077.0383	3112.0948	3122.4567	3125.1362	3138.2877	3148.2883
N#CC1C2CC3CC2N13	N#C[C@H]1[C@H]2C[C@@H]3C[C@H]2N13	
InChI=1S/C7H8N2/c8-3-7-5-1-4-2-6(5)9(4)7/h4-7H,1-2H2	InChI=1S/C7H8N2/c8-3-7-5-1-4-2-6(5)9(4)7/h4-7H,1-2H2/t4-,5+,6-,7+/m1/s1
