15
gdb 29614	3.00905	1.30353	0.91316	4.7002	70.16	-0.2102	0.0046	0.2148	1191.4298	0.114031	-453.985703	-453.977548	-453.976603	-454.018823	29.874	
N	 0.1984905705	 1.41657421	 0.0345731416	-0.625391
C	 0.0325680354	 0.0097521284	-0.0208907066	 0.061438
C	-1.0850672112	-0.7672519834	-0.0343028094	-0.048812
O	-0.7486906948	-2.0828247626	-0.0253327885	-0.149596
C	 0.6130518492	-2.1642501964	-0.0168268555	-0.078399
C	 1.1400892418	-0.9084064598	-0.0005497993	 0.294933
N	 2.4661950211	-0.4801137261	 0.0541765539	-0.412953
C	 3.5536322174	-1.3019322766	 0.0503874045	 0.138936
O	 3.5070586791	-2.5090067909	-0.0533562076	-0.313636
H	 0.3992885049	 1.8079791939	-0.8814910742	 0.248324
H	-0.6328742348	 1.8776269464	 0.3853381012	 0.247545
H	-2.1388874152	-0.5427626376	-0.0369086892	 0.131226
H	 1.0499791279	-3.1444580925	-0.0170083527	 0.167036
H	 2.5958495244	 0.50893548	 0.2151725549	 0.257917
H	 4.4973282744	-0.7323910828	 0.1477714568	 0.081434
74.3136	145.3952	164.1633	215.4858	238.3519	295.6908	415.6076	462.8979	601.7959	604.9543	617.1618	671.3135	709.1327	734.0312	769.49	834.588	875.014	923.5858	1013.48	1067.3538	1138.9139	1156.096	1205.1052	1208.5852	1247.7348	1328.0209	1409.4552	1427.8571	1536.4928	1609.9392	1637.6884	1677.7168	1796.5717	2954.4888	3275.3349	3330.3507	3492.778	3586.0133	3601.0753
NC1=COC=C1NC=O	Nc1cocc1NC=O	
InChI=1S/C5H6N2O2/c6-4-1-9-2-5(4)7-3-8/h1-3H,6H2,(H,7,8)	InChI=1S/C5H6N2O2/c6-4-1-9-2-5(4)7-3-8/h1-3H,6H2,(H,7,8)
