19
gdb 82329	2.5843	1.73697	1.28419	2.5929	73.89	-0.2346	0.0673	0.3019	1019.9799	0.162018	-419.161348	-419.153724	-419.15278	-419.193404	30.759	
O	 0.5340333765	 0.7021574517	-0.7558149091	-0.433503
C	 0.1348946785	-0.429226548	-0.0068348025	 0.053055
C	 0.5830053326	-0.3929451602	 1.4429210025	-0.077021
N	-0.1887173984	 0.6246247791	 2.1976304918	-0.352992
C	-0.5369301243	-0.8123317316	 2.3158922221	-0.039156
C	-1.72364514	-1.2171450599	 1.46170139	-0.279928
C	-1.3968647916	-0.6334418965	 0.0869376784	 0.319053
C	-2.3121752992	 0.2868413737	-0.6275024821	-0.276162
N	-2.1586876499	-1.1121237912	-1.0717717707	-0.384701
H	 0.2682602593	 1.4673929384	-0.2292616122	 0.289188
H	 0.5915087035	-1.2895371722	-0.5132733343	 0.090091
H	 1.6246470269	-0.5642512436	 1.6919664675	 0.090391
H	 0.3458356411	 0.9038818423	 3.0164386179	 0.233914
H	-0.3567032895	-1.3078949818	 3.2642414138	 0.089832
H	-1.7824472952	-2.3106286069	 1.4061629	 0.110259
H	-2.6776831912	-0.8524434081	 1.8538680961	 0.109504
H	-3.2779171162	 0.525764256	-0.1900164691	 0.112174
H	-1.8719493607	 1.0687628337	-1.2379513348	 0.114791
H	-1.5511136121	-1.1327857449	-1.8894513153	 0.231214
70.8485	187.0813	270.4698	291.4562	370.3203	377.6926	444.1889	476.0781	541.6571	615.5502	631.2208	780.8658	801.2306	854.6058	873.0486	893.9458	925.5977	937.4614	968.6198	983.2153	997.451	1039.9652	1062.6455	1086.0176	1102.9166	1126.0416	1141.1695	1163.2911	1187.2367	1245.1297	1267.2411	1296.1807	1301.4428	1305.8028	1327.7962	1368.5617	1395.456	1428.3783	1440.2209	1483.0703	1501.9524	3029.705	3040.7293	3086.808	3110.645	3161.7794	3174.5164	3202.4229	3472.9072	3503.3682	3771.5812
OC1C2NC2CC11CN1	O[C@H]1[C@H]2N[C@H]2C[C@]21CN2	
InChI=1S/C6H10N2O/c9-5-4-3(8-4)1-6(5)2-7-6/h3-5,7-9H,1-2H2	InChI=1S/C6H10N2O/c9-5-4-3(8-4)1-6(5)2-7-6/h3-5,7-9H,1-2H2/t3-,4-,5-,6+/m0/s1
