21
gdb 69324	2.82783	1.34964	1.27315	1.2805	77.85	-0.2273	0.0688	0.2961	1128.6062	0.181035	-424.22223	-424.213096	-424.212152	-424.25524	36.038	
C	 0.1646909586	 1.5478774135	 0.2551986654	-0.468763
C	 0.1819948984	 0.060020983	 0.0576657566	 0.457945
C	-0.9211072156	-0.8413781124	 0.5490690962	-0.372916
C	 0.4865764198	-0.968303768	 1.1121915048	-0.126903
C	 1.392974496	-1.9956109394	 0.4591068833	 0.363776
C	 2.8434498177	-1.8006876189	 0.9101787698	-0.447088
O	 0.9412857063	-3.312285291	 0.7654623518	-0.469967
C	 1.2050229484	-1.6686323893	-1.0538270259	-0.156935
O	 0.8245268444	-0.3039612619	-1.1500241617	-0.295541
H	 1.1825826482	 1.9508205586	 0.2538974023	 0.12176
H	-0.3941809598	 2.0356223887	-0.5502508906	 0.128913
H	-0.3117747285	 1.8046074249	 1.20501271	 0.117732
H	-1.6663600398	-0.3986354394	 1.2011435391	 0.11016
H	-1.3006523537	-1.6332136885	-0.0862629324	 0.124277
H	 0.6769011512	-0.6991319033	 2.1451101765	 0.082483
H	 2.9345181659	-1.9421889003	 1.9910889623	 0.123801
H	 3.5052132982	-2.5207863179	 0.412772565	 0.103108
H	 3.1965705361	-0.7964008643	 0.6561938975	 0.130976
H	 1.6040338112	-3.9351777722	 0.4483223146	 0.274777
H	 2.1160055642	-1.8067229678	-1.6449326096	 0.098359
H	 0.4270095325	-2.3328115941	-1.454532695	 0.100046
104.8543	182.4497	202.9198	245.1365	259.0608	275.2722	325.4003	337.109	383.1685	424.0298	444.5146	511.122	586.5052	622.5756	721.6827	775.6502	838.4096	902.5015	921.8301	933.1944	958.2085	971.1332	989.2535	1035.5322	1049.1224	1080.0247	1094.5627	1123.7141	1133.8937	1182.332	1197.9995	1243.2542	1262.1587	1286.4273	1344.0881	1384.8698	1403.0445	1407.82	1434.9986	1477.0674	1482.1262	1491.1333	1495.2534	1505.6239	1526.8227	3008.5843	3023.2376	3037.311	3074.051	3091.7478	3101.4851	3116.7233	3120.188	3136.9493	3170.0414	3222.8389	3804.1081
CC12CC1C(C)(O)CO2	C[C@]12C[C@H]1[C@@](C)(O)CO2	
InChI=1S/C7H12O2/c1-6(8)4-9-7(2)3-5(6)7/h5,8H,3-4H2,1-2H3	InChI=1S/C7H12O2/c1-6(8)4-9-7(2)3-5(6)7/h5,8H,3-4H2,1-2H3/t5-,6-,7-/m0/s1
