17
gdb 12678	2.62741	2.2579	1.51605	2.1652	63.44	-0.2324	-0.0325	0.1999	871.7213	0.142528	-401.014395	-401.006584	-401.00564	-401.046317	29.544	
C	 0.6483954765	 1.4112879284	-0.2088138983	-0.371042
C	-0.0863777632	 0.1041608853	 0.0821994107	-0.042043
N	 0.0472519725	-0.8637101402	-1.0394784622	-0.299488
C	 1.2929575672	-1.6187598852	-0.8315101464	-0.283598
C	 1.6660387014	-1.4046915358	 0.6330479658	 0.358203
O	 2.7013158292	-1.6607494463	 1.1959146121	-0.327531
C	 0.5096118521	-0.6561168124	 1.2905319591	 0.058617
O	 0.9299694768	 0.1045953312	 2.3847750608	-0.436544
H	 1.7146062404	 1.2412428071	-0.3961353457	 0.116211
H	 0.2231361907	 1.8902469767	-1.0939704726	 0.121341
H	 0.569813675	 2.0874196276	 0.6455367876	 0.135754
H	-1.1490951179	 0.3127648002	 0.2289656932	 0.085319
H	-0.7410758731	-1.4998183206	-1.024022146	 0.22598
H	 1.1801580462	-2.6824052278	-1.0633310645	 0.135862
H	 2.1100717713	-1.2428456478	-1.4605696325	 0.143766
H	-0.2286381684	-1.4218625833	 1.5982009619	 0.086901
H	 1.8051696735	-0.238001807	 2.624524217	 0.292293
97.2856	157.6861	217.3933	242.4762	270.4075	387.282	413.9886	459.9699	492.2427	594.8986	631.0608	704.7772	742.7462	780.5531	830.5136	915.7013	984.6294	1022.3398	1059.5684	1097.5748	1113.0958	1131.0367	1184.9738	1217.1153	1240.0181	1291.7581	1329.0013	1352.0414	1376.2425	1404.133	1414.3395	1464.6586	1468.8954	1491.7338	1494.9996	1843.8386	2919.7587	3028.6096	3042.6674	3075.1145	3083.5343	3112.3535	3137.6828	3541.9993	3699.7865
CC1NCC(=O)C1O	C[C@H]1NCC(=O)[C@H]1O	
InChI=1S/C5H9NO2/c1-3-5(8)4(7)2-6-3/h3,5-6,8H,2H2,1H3	InChI=1S/C5H9NO2/c1-3-5(8)4(7)2-6-3/h3,5-6,8H,2H2,1H3/t3-,5+/m1/s1
