16
gdb 123717	3.59314	1.57666	1.11061	3.3652	75.06	-0.2399	-0.0051	0.2348	1034.4515	0.127452	-400.766439	-400.759812	-400.758867	-400.797552	26.182	
C	-0.0188674844	 1.4755235546	-0.1271925305	-0.399522
C	 1.3562759573	 2.0610017288	 0.1026989818	-0.053772
C	 2.4569815481	 1.3513995849	 0.35266478	-0.039822
C	 2.5219211663	-0.1549823166	 0.4493808974	-0.411957
C	 1.1693219824	-0.7517623475	 0.2240480027	 0.125072
C	 0.0639400652	-0.00448567	-0.0289061108	 0.389471
O	-1.0132805345	-0.7861841064	-0.191393534	-0.229866
N	-0.6234226312	-2.1213685271	-0.0422773353	-0.145585
C	 0.664278696	-2.0809153763	 0.2014199177	-0.078216
H	-0.7356292926	 1.8750882844	 0.6047147941	 0.137375
H	-0.4084408967	 1.7795598197	-1.1094693381	 0.137372
H	 1.4208780002	 3.1444376634	 0.0544066019	 0.096026
H	 3.3972919212	 1.8753933032	 0.5029574719	 0.094143
H	 3.2520633735	-0.5383444042	-0.2786840046	 0.125478
H	 2.9248686269	-0.442594225	 1.4317649179	 0.125485
H	 1.1911580022	-3.0131137159	 0.3540598078	 0.128317
102.223	229.159	276.5416	378.0736	403.6618	470.8264	593.7806	637.9797	666.3111	686.6289	726.5775	866.0036	902.154	907.6226	921.7809	967.3215	977.4737	981.8122	985.1009	1016.2486	1176.7019	1194.8538	1199.7997	1205.3463	1212.0848	1256.7458	1308.3614	1375.8755	1409.0979	1437.0984	1473.5254	1479.0818	1516.6892	1674.534	1731.3054	2996.011	3003.9298	3008.9845	3020.5446	3154.2392	3176.9241	3235.8643
C1C=CCC2=C1ON=C2	C1C=CCc2c1onc2	
InChI=1S/C7H7NO/c1-2-4-7-6(3-1)5-8-9-7/h1-2,5H,3-4H2	InChI=1S/C7H7NO/c1-2-4-7-6(3-1)5-8-9-7/h1-2,5H,3-4H2
