16
gdb 67319	3.27626	1.43065	1.22087	4.7536	73.72	-0.2768	0.0264	0.3033	1025.1012	0.124703	-400.68679	-400.679455	-400.678511	-400.718483	28.731	
O	-0.0794307616	 1.3272599693	-0.0290831328	-0.461171
C	 0.0225446591	-0.0398882467	-0.0331710395	 0.416061
C	 0.4091366518	-1.0044867535	 1.1528395915	-0.126312
C	-1.039841826	-1.0119179029	 1.6826534735	-0.276829
C	-1.201916222	-0.9860021069	 0.147964896	-0.082885
C	 0.0422298245	-1.9163064084	-0.0622329115	-0.041601
C	 0.7062324849	-0.9631698937	-1.0907837523	-0.265155
C	 0.1902631382	-0.9517982213	-2.4495186372	 0.271073
N	-0.2290126877	-0.9394298153	-3.5273441196	-0.331441
H	 0.7982130306	 1.7125402102	 0.072575804	 0.292657
H	 1.3557243772	-1.0168148239	 1.6955890247	 0.078047
H	-1.3683289262	-1.9205547444	 2.1947846137	 0.101316
H	-1.3683378648	-0.1206704799	 2.2226203323	 0.11284
H	-2.1045900306	-0.9804770512	-0.4613802943	 0.102433
H	 0.0412268693	-3.0026220047	-0.0777800924	 0.100912
H	 1.8012667931	-0.9590705967	-1.093618366	 0.110055
127.5228	133.2869	262.5394	305.3972	343.5846	408.2874	413.2979	526.4535	576.379	668.9881	754.4844	807.7253	860.3468	881.4148	897.6794	919.8675	922.1	959.175	1012.8002	1025.0099	1062.5173	1070.587	1082.2191	1121.883	1158.2422	1170.4941	1193.5071	1221.4714	1234.7257	1273.3241	1303.8394	1331.5894	1413.2219	1507.2493	2350.4139	3057.2262	3060.6479	3103.0732	3118.7055	3131.5582	3163.4723	3801.8674
OC12C3CC1C3C2C#N	O[C@@]12[C@H]3C[C@@H]1[C@H]3[C@H]2C#N	
InChI=1S/C7H7NO/c8-2-5-6-3-1-4(6)7(3,5)9/h3-6,9H,1H2	InChI=1S/C7H7NO/c8-2-5-6-3-1-4(6)7(3,5)9/h3-6,9H,1H2/t3-,4+,5-,6-,7-/m1/s1
