19
gdb 51704	3.47802	0.87155	0.72895	3.7106	76.43	-0.244	-0.0283	0.2157	1506.0686	0.157969	-423.073448	-423.064492	-423.063547	-423.108479	32.381	
O	-0.1876081778	-0.0681841899	 0.0260569376	-0.237094
C	-0.0858537967	 1.1286901084	-0.0447464055	 0.163921
C	 1.2199901736	 1.892494285	-0.0450426992	-0.294766
C	 1.3573419106	 2.8151002815	-1.2636224156	 0.003179
C	 2.6171216375	 3.713767429	-1.2232635703	-0.232107
C	 2.7841020981	 4.2025316022	-2.6683639042	-0.323045
C	 2.204789582	 3.0768835073	-3.5364072714	 0.401853
O	 2.3025804687	 2.9870449201	-4.7314694138	-0.306729
C	 1.4774657123	 2.0892093292	-2.6157985058	-0.326125
H	-0.9919405342	 1.776757106	-0.1201171117	 0.071492
H	 1.2401779776	 2.5049144611	 0.8688951237	 0.119453
H	 2.0457416907	 1.1756307438	 0.0081079671	 0.120552
H	 0.4759554407	 3.4715122403	-1.3022295263	 0.084451
H	 2.5243787428	 4.5249392871	-0.4962717045	 0.107008
H	 3.4838578176	 3.1097196832	-0.9273795532	 0.109356
H	 2.1831367708	 5.1016734806	-2.8580068412	 0.133686
H	 3.8088191309	 4.4368474084	-2.9656038815	 0.132561
H	 2.1146744845	 1.1983945714	-2.5200292566	 0.137812
H	 0.5348169004	 1.7582007453	-3.0580346176	 0.134541
50.1385	77.1321	81.7928	148.8527	201.581	326.5082	382.9074	454.1706	484.1202	505.8168	557.6136	591.6043	728.4086	787.9265	816.3162	873.6972	908.5747	952.5005	969.4765	1002.1834	1037.2457	1065.9844	1118.4556	1149.4531	1164.3683	1179.2724	1218.6366	1255.569	1266.3213	1278.6137	1303.949	1335.7868	1350.3617	1387.7173	1429.4999	1446.4346	1451.9666	1461.1049	1500.7177	1837.5078	1850.8883	2845.5922	2999.9819	3007.0662	3024.7395	3034.0729	3038.5353	3087.4751	3094.291	3106.8478	3110.4137
O=CCC1CCC(=O)C1	O=CC[C@H]1CCC(=O)C1	
InChI=1S/C7H10O2/c8-4-3-6-1-2-7(9)5-6/h4,6H,1-3,5H2	InChI=1S/C7H10O2/c8-4-3-6-1-2-7(9)5-6/h4,6H,1-3,5H2/t6-/m1/s1
