18
gdb 125867	3.66908	1.15356	1.05649	3.0235	80.14	-0.2367	-0.0073	0.2294	1195.4982	0.148561	-401.939558	-401.931563	-401.930619	-401.972592	30.218	
C	-0.1047317153	 1.5508641307	-0.1700782409	-0.420953
C	 0.0227652246	 0.0518911374	-0.0209418322	 0.008114
C	 1.3417022007	-0.6473184857	-0.1638056413	-0.299975
C	 0.6746534515	-0.6037479777	 1.1989554023	-0.139418
C	 1.253199496	 0.1581027479	 2.310300959	 0.460907
C	 1.090466853	 0.0666826355	 3.6627957841	-0.355155
C	 1.9375366774	 1.0824589084	 4.1729929191	 0.035707
N	 2.5626699814	 1.7368192553	 3.2264447356	-0.146615
O	 2.1298334315	 1.1450705478	 2.0356482948	-0.221905
H	 0.7741475319	 2.0711881735	 0.2159839398	 0.148324
H	-0.2193931433	 1.8175092958	-1.2263080721	 0.119292
H	-0.9823261578	 1.9279661134	 0.3659748218	 0.119759
H	-0.8379101163	-0.5042055906	-0.3845007645	 0.092717
H	 1.3871037491	-1.6050048305	-0.6702016694	 0.117176
H	 2.2236483329	-0.0278970457	-0.2848698941	 0.13809
H	 0.2007343824	-1.5184959098	 1.5380641122	 0.098271
H	 0.4628505137	-0.6193721619	 4.2061160393	 0.115341
H	 2.1149085365	 1.360663756	 5.2026758665	 0.130322
58.4615	125.8454	173.6039	212.4895	272.5291	348.7125	435.3578	468.658	642.529	646.8182	734.3202	763.0543	801.5058	854.5689	880.652	911.4961	918.599	937.0821	946.1174	985.271	1031.1693	1056.496	1075.2518	1080.7311	1109.674	1146.8063	1201.8986	1204.7374	1228.8685	1292.1299	1338.3826	1388.8291	1413.1175	1427.4401	1489.0072	1500.4568	1503.3004	1522.1863	1629.7753	3036.8414	3093.2211	3125.9237	3137.3378	3143.1426	3168.1433	3226.963	3240.5241	3280.7654
CC1CC1C1=CC=NO1	C[C@H]1C[C@H]1c1ccno1	
InChI=1S/C7H9NO/c1-5-4-6(5)7-2-3-8-9-7/h2-3,5-6H,4H2,1H3	InChI=1S/C7H9NO/c1-5-4-6(5)7-2-3-8-9-7/h2-3,5-6H,4H2,1H3/t5-,6+/m0/s1
