16
gdb 42587	3.6048	1.86166	1.6218	3.568	70.58	-0.2343	-0.0249	0.2094	842.1717	0.127975	-400.715853	-400.710175	-400.709231	-400.745737	24.331	
O	-0.0460638625	-0.0406000427	-0.0130480738	-0.334381
C	-0.0528971909	 1.1608060205	 0.0030257441	 0.47618
C	-1.191046062	 2.1259346647	 0.0312471053	-0.220491
C	-0.7035617481	 3.3378209133	 0.8369293317	-0.086071
C	-0.6722106933	 3.3722844364	-0.6602585095	-0.022318
N	 0.7856209061	 3.241621986	-0.9939317589	-0.146934
C	 1.3775327812	 4.2031682408	 0.0276328093	-0.172314
C	 0.8248445327	 3.2243687429	 1.093700569	-0.069501
C	 1.1125468639	 2.1379191235	 0.0189812418	-0.145472
H	-2.2271379798	 1.8204699706	-0.0047452947	 0.111963
H	-1.371174111	 3.9172008641	 1.4588873133	 0.104761
H	-1.2830491057	 3.9947416537	-1.2985890861	 0.107246
H	 2.4670545284	 4.2097984398	-0.0547984086	 0.11355
H	 0.9819305879	 5.2220461156	-0.0140161896	 0.104911
H	 1.1758711003	 3.1602361122	 2.1239475528	 0.07901
H	 2.1178050327	 1.7401956488	-0.0837257459	 0.099864
157.4976	365.9347	457.9039	504.3634	580.1998	669.1872	695.6239	757.7821	787.5986	813.5851	850.6339	855.0917	866.6153	888.2728	913.0992	933.6128	948.1567	987.8916	1009.1624	1038.2588	1060.9303	1065.7143	1077.9927	1144.3092	1167.8291	1178.8159	1215.1204	1238.061	1244.1797	1266.1717	1290.9286	1300.9849	1343.7101	1510.6225	1868.7049	3056.3334	3112.8131	3121.935	3170.5986	3212.3346	3217.2313	3228.8532
O=C1C2C3C2N2CC3C12	O=C1[C@H]2[C@@H]3[C@H]2N2C[C@@H]3[C@@H]12	
InChI=1S/C7H7NO/c9-7-4-3-2-1-8(5(2)7)6(3)4/h2-6H,1H2	InChI=1S/C7H7NO/c9-7-4-3-2-1-8(5(2)7)6(3)4/h2-6H,1H2/t2-,3+,4-,5-,6+/m0/s1
