16
gdb 32299	2.74069	1.56467	1.00225	1.1999	78.73	-0.1936	-0.0249	0.1687	1136.045	0.126694	-434.138178	-434.129909	-434.128965	-434.17184	30.087	
C	-0.0255845901	 1.4205800799	-0.0461151951	-0.311479
N	 0.0430365367	-0.0165896559	 0.0747709893	-0.32179
C	 0.6626464949	-0.6432723787	 1.0951557966	 0.298032
N	 1.2520678112	 0.0165471197	 2.059546538	-0.367746
C	 1.8545022006	-0.7125628007	 3.0525434909	-0.051091
C	 1.8644141148	-2.065105931	 3.0757439343	-0.043798
N	 1.2356631075	-2.7453631731	 2.0467054778	-0.346599
C	 0.6007772057	-2.1261124062	 1.0011501791	 0.390507
O	 0.0437292762	-2.7263254662	 0.0894709096	-0.415037
H	 0.9761236445	 1.8617491069	-0.1032179478	 0.138889
H	-0.5783298845	 1.6729547109	-0.9526214603	 0.125507
H	-0.5315736053	 1.8669612718	 0.8175788809	 0.138999
H	-0.3744729356	-0.6290560912	-0.6085768639	 0.267311
H	 2.3366462954	-0.147356319	 3.8413592163	 0.108872
H	 2.3307457061	-2.6647593077	 3.8443871894	 0.12538
H	 1.220821882	-3.7553772094	 2.027674075	 0.264041
43.934	101.1732	156.2046	192.0072	280.8756	355.8428	455.2605	496.9609	537.1225	567.7832	581.4991	589.8112	703.2183	751.2873	786.9509	815.3294	904.0759	918.2821	1069.9273	1090.9288	1114.6049	1161.3794	1192.5518	1253.3141	1323.3551	1335.6072	1416.5869	1456.9308	1469.5988	1473.542	1513.6113	1544.7944	1629.1815	1651.1422	1762.1302	3026.7701	3074.9948	3135.1297	3196.9306	3235.4128	3611.5945	3634.4382
CNC1=NC=CNC1=O	CNc1ncc[nH]c1=O	
InChI=1S/C5H7N3O/c1-6-4-5(9)8-3-2-7-4/h2-3H,1H3,(H,6,7)(H,8,9)	InChI=1S/C5H7N3O/c1-6-4-5(9)8-3-2-7-4/h2-3H,1H3,(H,6,7)(H,8,9)
