16
gdb 9732	3.37989	1.65587	1.51792	4.2376	64.41	-0.2626	0.0233	0.2859	893.4728	0.131969	-379.924568	-379.916849	-379.915905	-379.957263	28.315	
N	-0.0186637716	 1.5023682904	 0.0974800527	-0.53829
C	-0.0060322267	 0.0373135726	 0.0061502377	 0.0958
C	-1.4602175069	-0.5182067041	-0.1005708929	-0.249207
C	-1.5547202919	-0.9522454978	-1.5676781075	-0.089392
O	-0.262914507	-1.4562455803	-1.8689549604	-0.231853
C	 0.6599005875	-0.555041216	-1.3005145243	-0.115861
C	 0.6751669375	-0.4755242738	 1.2026602037	 0.286241
N	 1.2326381901	-0.8922475027	 2.1251638895	-0.340938
H	 0.9322263117	 1.861732238	 0.1067424601	 0.242231
H	-0.4665347297	 1.8836776821	-0.7319275419	 0.233449
H	-1.5840729024	-1.3843003785	 0.5515597411	 0.139929
H	-2.1804293348	 0.2465135014	 0.1946852811	 0.128411
H	-2.2803918892	-1.7479743474	-1.7474170785	 0.12503
H	-1.8046959406	-0.0992509869	-2.2214953639	 0.091012
H	 0.8610224586	 0.2919098792	-1.9771766044	 0.088351
H	 1.5945436253	-1.0883199161	-1.113974692	 0.135087
32.6582	173.9798	189.3129	255.0422	281.1946	385.0983	403.2037	493.2669	566.4503	602.412	649.5858	758.6867	859.7963	863.4872	924.8611	943.4214	975.7022	1030.3913	1054.3007	1069.4275	1125.3671	1175.5726	1231.8883	1235.8999	1278.1497	1306.1112	1347.4801	1372.0509	1397.4024	1486.2692	1504.2627	1522.6619	1654.1348	2358.4697	2960.2745	2969.6028	3085.4942	3106.3996	3111.3303	3141.0857	3480.6447	3565.0547
NC1(CCOC1)C#N	N[C@]1(CCOC1)C#N	
InChI=1S/C5H8N2O/c6-3-5(7)1-2-8-4-5/h1-2,4,7H2	InChI=1S/C5H8N2O/c6-3-5(7)1-2-8-4-5/h1-2,4,7H2/t5-/m1/s1
