14
gdb 129071	3.09706	1.48368	1.00312	3.7506	84.33	-0.2075	-0.0479	0.1596	1095.124	0.102576	-395.702435	-395.694862	-395.693918	-395.734526	28.925	
N	-0.0277559005	 1.3225186623	-0.2400844778	-0.539245
C	-0.0092377183	 0.0530724945	-0.0358868302	 0.184477
C	 1.1981133135	-0.7522138913	 0.192594722	-0.030063
N	 1.2549020798	-2.0281213261	 0.4010218078	-0.186197
N	 0.0768003217	-2.6839808514	 0.408272602	-0.236256
C	-1.1303690641	-2.0897484553	 0.2134482553	-0.05981
C	-1.2412706277	-0.7490826021	-0.0098003076	 0.053264
C	-2.5108686184	-0.1537992128	-0.2099520798	 0.258838
C	-3.594216783	 0.3439140194	-0.3791169278	-0.39418
H	 0.9241645567	 1.6958797803	-0.2209062346	 0.205331
H	 2.1592182078	-0.2427951453	 0.1907705953	 0.124724
H	 0.1529933777	-3.6734486898	 0.5725064429	 0.281829
H	-1.9902249016	-2.7471865846	 0.2472496384	 0.144158
H	-4.5410913535	 0.7994168022	-0.5302608659	 0.193131
92.924	141.4859	197.4512	370.9486	399.3789	406.641	451.8102	505.5523	553.4674	575.1725	605.9412	612.6697	651.6066	735.3525	778.157	849.9264	889.6789	907.031	945.195	1021.2936	1104.3876	1225.0623	1242.9206	1323.5381	1372.1731	1414.2303	1506.333	1624.0953	1638.1163	1672.0593	2227.1205	3160.0158	3216.0862	3436.9799	3505.4701	3665.2522
N=C1C=NNC=C1C#C	[NH]c1cn[nH]cc1C#C	
InChI=1S/C6H5N3/c1-2-5-3-8-9-4-6(5)7/h1,3-4H,(H2,7,8)	InChI=1S/C6H10N3/c1-2-5-3-8-9-4-6(5)7/h1,5-9H,3-4H2
