23
gdb 114034	2.62994	1.13189	0.94098	1.1615	86.63	-0.2389	0.0779	0.3167	1370.252	0.204775	-388.261218	-388.251241	-388.250297	-388.295706	37.761	
C	-0.2595216265	 1.5877738721	 0.2296208178	-0.424451
C	 0.0322026222	 0.1014991573	 0.1574691712	-0.033996
C	 1.2976283282	-0.5893617875	-0.3035284018	-0.171218
C	 2.6019510147	 0.059478006	 0.1761827426	 0.060867
C	 3.1075261866	 1.3417610197	-0.4611362114	-0.107312
O	 4.3309563702	 1.6796230224	 0.183351385	-0.424116
C	 2.0532311311	 0.0512681623	 1.6389747107	-0.315945
C	 0.8052336821	-0.7145114309	 1.1558099233	 0.339573
C	 0.2285124032	-1.8981105287	 1.8805561915	-0.495021
H	-0.3709538989	 2.0197089573	-0.7715000695	 0.113355
H	-1.1977753371	 1.761705621	 0.7689346797	 0.111516
H	 0.5182359221	 2.1507237193	 0.7494740831	 0.122015
H	-0.8318984464	-0.4581439705	-0.2023130799	 0.078787
H	 1.2515825762	-1.3348475895	-1.0914133467	 0.073929
H	 3.4151911378	-0.670304542	 0.1040939465	 0.082666
H	 3.2586261383	 1.1717597775	-1.5406990202	 0.080597
H	 2.3736190338	 2.1528508072	-0.360202153	 0.084317
H	 4.6402987377	 2.5153176183	-0.1776467738	 0.284547
H	 2.6773838537	-0.5350398553	 2.3168610578	 0.101687
H	 1.8779968831	 1.0272044585	 2.1030378112	 0.094225
H	-0.2807678027	-1.5915473196	 2.8031513799	 0.116788
H	-0.5048231486	-2.425165333	 1.2608535485	 0.113759
H	 1.0083764492	-2.6162103521	 2.1608117576	 0.113432
82.9356	119.4612	166.1052	191.7359	208.6742	235.7328	263.4978	269.9073	326.1964	344.2283	434.0853	469.4478	541.1574	644.3138	719.8472	737.2288	842.3554	884.681	893.6846	932.508	960.8565	993.6535	1011.1413	1055.8738	1061.4509	1075.067	1084.0963	1120.2085	1133.8098	1155.425	1177.6971	1220.1255	1241.5832	1263.197	1268.6542	1270.5907	1305.6159	1352.0844	1378.4023	1412.9134	1416.0171	1456.1677	1468.5329	1484.6277	1493.7064	1497.795	1505.308	1507.1477	1523.1428	2960.0461	3014.3076	3020.7023	3029.7105	3050.0384	3052.792	3069.9841	3082.1882	3089.8308	3098.7568	3104.7871	3125.7484	3153.6701	3830.3794
CC1C2C(CO)CC12C	C[C@H]1[C@H]2[C@@H](CO)C[C@@]12C	
InChI=1S/C8H14O/c1-5-7-6(4-9)3-8(5,7)2/h5-7,9H,3-4H2,1-2H3	InChI=1S/C8H14O/c1-5-7-6(4-9)3-8(5,7)2/h5-7,9H,3-4H2,1-2H3/t5-,6+,7-,8-/m0/s1
