19
gdb 93365	2.78424	1.57553	1.1981	3.4598	76.92	-0.2515	0.0122	0.2637	1076.2427	0.161613	-419.197822	-419.189808	-419.188864	-419.23048	31.099	
C	-0.0487426611	 1.6135228034	-0.0108100426	-0.386075
C	 0.0349803891	 0.082382618	 0.0042578828	-0.004683
C	 0.6981449806	-0.4807586812	-1.2567111126	-0.097583
O	 2.1269805762	-0.3188955484	-1.2663311109	-0.253949
C	 2.8127294186	-0.9591524269	-0.2729107126	 0.422263
N	 3.9690173386	-1.4438827947	-0.4432512862	-0.523629
C	 2.1529398106	-1.004743063	 1.0627901245	-0.105336
N	 1.9328767484	 0.3245510633	 1.6789222661	-0.319827
C	 0.7759018757	-0.4561236106	 1.2326313719	-0.061044
H	 0.9489516534	 2.0510219763	-0.0790603767	 0.150329
H	-0.6462773904	 1.9569927958	-0.8615589317	 0.106241
H	-0.5149360524	 1.9891278001	 0.9050860031	 0.112413
H	-0.9830795701	-0.3264459668	 0.0252224548	 0.078752
H	 0.4662384498	-1.5489765052	-1.3639599561	 0.104232
H	 0.3492239803	 0.0352716372	-2.1546992176	 0.116488
H	 4.260124898	-1.312062757	-1.4146856352	 0.220084
H	 2.4974911678	-1.8140584327	 1.6964424077	 0.111509
H	 2.0501253928	 0.2496264299	 2.6856753781	 0.23939
H	 0.1583460142	-0.9174741975	 1.9994367933	 0.090424
61.7659	172.7974	213.5839	228.4892	294.6484	357.2184	390.5752	450.339	509.4113	598.2474	694.8257	739.6928	776.5663	803.3	856.2848	901.0945	916.5517	939.4932	958.7156	964.7949	997.3211	1030.3277	1090.6477	1115.4996	1145.2612	1162.0962	1169.4904	1208.001	1254.238	1286.0927	1320.0837	1337.4103	1360.256	1395.5013	1409.7089	1420.314	1449.1787	1489.9202	1499.2271	1506.2442	1754.4192	3010.567	3030.3321	3042.3033	3099.2096	3106.0196	3131.8647	3139.9363	3181.0318	3459.2993	3509.9054
CC1COC(=N)C2NC12	C[C@H]1CO[C]([NH])[C@H]2N[C@@H]12	
InChI=1S/C6H10N2O/c1-3-2-9-6(7)5-4(3)8-5/h3-5,7-8H,2H2,1H3	InChI=1S/C6H10N2O/c1-3-2-9-6(7)5-4(3)8-5/h3-5,7-8H,2H2,1H3/t3-,4-,5-/m0/s1
