19
gdb 16339	3.09026	1.82644	1.43902	2.6208	71.08	-0.2318	0.0702	0.302	950.6943	0.165805	-365.024247	-365.016157	-365.015212	-365.056631	30.878	
C	-0.2619045875	 1.5036013996	-0.1012896196	-0.375445
C	 0.0932819097	 0.0186997819	 0.0729168824	-0.327042
C	 0.8715368647	-0.5250007206	-1.0872379474	 0.346001
N	 0.2400233662	-0.8075734715	-2.4063371411	-0.39596
C	 0.995790886	-1.8785871903	-1.6958022793	-0.11888
C	 2.4604059291	-1.6576434763	-2.0667502952	-0.258905
C	 2.3317467984	-0.2003661855	-1.4725800367	 0.103417
O	 2.5197526688	 0.8926355953	-2.3275719326	-0.439542
H	 0.6385140059	 2.1016114939	-0.2696487628	 0.139111
H	-0.9194837924	 1.6512356598	-0.9639415479	 0.119319
H	-0.7727335374	 1.8921121385	 0.7846100082	 0.111368
H	 0.6844742533	-0.1125448569	 0.9884561477	 0.105405
H	-0.8209171231	-0.5745371786	 0.211102308	 0.093114
H	-0.752902551	-0.9651572616	-2.2356574669	 0.226142
H	 0.5015468604	-2.8030239825	-1.4217767447	 0.092941
H	 3.1579358399	-2.2808376335	-1.5021824642	 0.1015
H	 2.693108953	-1.7103555793	-3.1333185607	 0.103914
H	 2.9794274602	-0.0488315625	-0.6052368086	 0.085814
H	 1.8313956656	 0.8038260601	-3.0017999485	 0.287729
87.4204	121.6805	188.5203	196.5333	316.2309	327.9013	398.5054	476.1199	533.1645	563.0831	678.5645	696.5502	783.3605	825.0956	883.6048	899.75	933.856	964.4407	971.0491	1021.9115	1039.895	1089.719	1101.0822	1112.0876	1133.5355	1164.2712	1200.1501	1227.9363	1270.3152	1283.4103	1324.3087	1346.8957	1366.6176	1412.237	1431.8087	1452.0603	1478.6756	1479.9039	1496.2054	1508.0218	3011.9996	3039.7898	3045.8771	3061.7552	3082.4247	3109.0107	3117.0065	3122.3282	3186.6129	3471.2282	3745.4182
CCC12NC1CC2O	CC[C@]12N[C@H]1C[C@H]2O	
InChI=1S/C6H11NO/c1-2-6-4(7-6)3-5(6)8/h4-5,7-8H,2-3H2,1H3	InChI=1S/C6H11NO/c1-2-6-4(7-6)3-5(6)8/h4-5,7-8H,2-3H2,1H3/t4-,5+,6-/m0/s1
