15
gdb 70163	2.68998	1.7226	1.19657	5.3603	66.12	-0.2548	-0.0815	0.1733	1007.4652	0.11181	-457.800537	-457.792738	-457.791793	-457.832882	29.07	
C	-0.0688792402	 1.5466845706	 0.0135576798	-0.477438
C	 0.0580980048	 0.044389134	 0.0012058417	 0.175616
C	-0.7954836685	-0.8325900231	 0.9426022307	-0.34799
C	 0.6835519503	-0.8066668977	 1.0801815092	 0.046849
O	 1.3568090821	-1.923983855	 0.5107897716	-0.218903
C	 1.2394048666	-1.9200636698	-0.847674044	 0.350167
O	 1.687533029	-2.7666467077	-1.5556640186	-0.301479
C	 0.4582270007	-0.6387769891	-1.2580867403	 0.220086
O	 0.3113663091	-0.2764030933	-2.3930091515	-0.283858
H	 0.8546696587	 2.0210703302	-0.3314911251	 0.140542
H	-0.8755211446	 1.8633541627	-0.6538917391	 0.150175
H	-0.2894597504	 1.916390333	 1.0188482041	 0.123666
H	-1.3929167136	-0.2784211577	 1.6581488564	 0.141806
H	-1.2544466917	-1.739930856	 0.5642316287	 0.147778
H	 1.2014744376	-0.404601411	 1.9414442364	 0.132983
99.6677	152.7054	181.0907	262.0421	276.9871	328.1625	446.5598	466.6765	527.3979	585.5979	627.6331	705.9193	796.9147	837.6908	861.1813	907.656	968.9946	980.6158	1036.7315	1049.6655	1102.6081	1110.7501	1124.4167	1156.024	1284.3639	1333.1325	1395.0701	1420.0007	1478.5074	1485.1913	1497.4387	1854.2853	1894.4685	3043.2385	3114.2504	3118.3959	3135.4134	3202.5711	3228.991
CC12CC1OC(=O)C2=O	C[C@]12C[C@H]1OC(=O)C2=O	
InChI=1S/C6H6O3/c1-6-2-3(6)9-5(8)4(6)7/h3H,2H2,1H3	InChI=1S/C6H6O3/c1-6-2-3(6)9-5(8)4(6)7/h3H,2H2,1H3/t3-,6+/m1/s1
