16
gdb 70287	3.67431	1.20242	1.01416	3.968	72.56	-0.2575	-0.0768	0.1807	1169.6102	0.12315	-437.889222	-437.881235	-437.880291	-437.921835	29.755	
C	-0.0405133723	 1.5482498304	 0.0387471635	-0.471414
C	 0.060062191	 0.0472046147	 0.025192223	 0.319013
C	-0.799498353	-0.832450949	 0.9190446665	-0.349368
C	 0.687896751	-0.8560775386	 1.0945705067	 0.018501
O	 1.38273189	-1.8611724284	 0.3777170098	-0.241123
C	 1.1181555224	-1.6052341063	-0.9381847092	 0.282115
C	 1.7240409499	-2.5836148673	-1.8879997651	 0.099903
O	 1.5906906162	-2.5312655405	-3.0813030409	-0.22432
N	 0.4282641433	-0.5713745808	-1.2265038859	-0.306105
H	 0.8888603731	 2.0051898455	-0.3138760163	 0.132485
H	-0.8515631895	 1.8803203357	-0.6166706229	 0.140585
H	-0.2455088034	 1.915251947	 1.0485192535	 0.117582
H	-1.355505956	-0.3205842999	 1.6970924794	 0.127542
H	-1.2948851096	-1.6933165489	 0.4826843733	 0.131625
H	 1.190245239	-0.5571719393	 2.005429444	 0.120295
H	 2.3215304983	-3.3694173043	-1.3820065293	 0.102684
100.8269	171.6475	174.5693	191.508	254.0836	339.0995	419.9823	432.6647	497.9188	613.2787	654.3139	723.7088	758.7819	825.2616	875.811	941.6367	962.7057	972.3481	1017.1633	1032.2763	1039.688	1103.255	1109.6709	1132.376	1210.9226	1258.3562	1310.3625	1382.5169	1421.8978	1429.3809	1467.5731	1480.4403	1498.7362	1664.4886	1830.5628	2930.5296	3040.931	3111.3665	3116.9005	3131.4627	3199.5506	3225.9329
CC12CC1OC(C=O)=N2	C[C@]12C[C@H]1OC(=N2)C=O	
InChI=1S/C6H7NO2/c1-6-2-4(6)9-5(3-8)7-6/h3-4H,2H2,1H3	InChI=1S/C6H7NO2/c1-6-2-4(6)9-5(3-8)7-6/h3-4H,2H2,1H3/t4-,6+/m1/s1
