17
gdb 81888	2.97548	1.30271	1.08512	1.3478	69.75	-0.263	-0.0454	0.2176	1126.9251	0.133426	-458.933138	-458.924336	-458.923392	-458.966775	32.199	
C	-0.4705451242	 1.3147714767	-0.1784682812	-0.418327
C	-0.0130740224	-0.1226148834	 0.0143464109	-0.118807
C	 1.2188933941	-0.6441868962	-0.8441913273	 0.118047
O	 1.8650488571	 0.2463755604	-1.7060265986	-0.423797
C	 1.9508714135	-0.9724629427	 0.4690733331	-0.087912
O	 2.0552660985	 0.2504502076	 1.1877367565	-0.287425
C	 0.7994442981	-0.4551809064	 1.2678500102	 0.317858
C	 0.3670270479	-0.9258999057	 2.5976096678	 0.062744
O	-0.7784386112	-1.1886214875	 2.8704897565	-0.257021
H	 0.3380360018	 2.0211009162	 0.0298789638	 0.11968
H	-0.8031452099	 1.4759812779	-1.207794624	 0.131485
H	-1.3027496225	 1.5490975148	 0.4920381217	 0.132072
H	-0.850757377	-0.8188199046	-0.079798001	 0.102158
H	 0.9657942792	-1.5327207668	-1.4262679327	 0.104198
H	 2.2152784044	 0.9609075717	-1.159917821	 0.294071
H	 2.671655726	-1.7490669873	 0.7024156684	 0.120162
H	 1.1983293466	-1.0327702146	 3.3275190471	 0.090813
77.1443	137.3446	149.249	186.2406	217.7332	232.0264	304.7636	421.8106	460.1031	502.9976	573.8971	634.4108	715.0667	725.8602	789.2658	834.0181	893.6931	938.7805	1000.8249	1029.4893	1042.7488	1071.1789	1123.8275	1136.9715	1190.7389	1206.73	1256.6046	1264.0201	1313.505	1345.9725	1385.2227	1404.6368	1427.9072	1444.5147	1488.9268	1502.6413	1809.84	2904.9181	3043.2597	3078.5152	3100.2826	3114.8625	3118.2773	3179.2769	3787.0772
CC1C(O)C2OC12C=O	C[C@H]1[C@@H](O)[C@H]2O[C@@]12C=O	
InChI=1S/C6H8O3/c1-3-4(8)5-6(3,2-7)9-5/h2-5,8H,1H3	InChI=1S/C6H8O3/c1-3-4(8)5-6(3,2-7)9-5/h2-5,8H,1H3/t3-,4+,5+,6-/m0/s1
