18
gdb 10036	2.94448	1.31775	0.95513	0.1801	79.89	-0.2591	0.0387	0.2978	1216.0438	0.150475	-310.608617	-310.599108	-310.598164	-310.64277	34.592	
C	 0.7449823053	-0.2753960739	 1.3979237563	-0.389043
C	 0.0875635423	-0.1076621413	 0.0274565443	-0.171049
C	-1.3568949532	-0.6530502755	-0.0328671219	-0.161442
C	-2.0447178741	-0.3259935607	-1.3924444473	-0.364728
C	-2.2050139289	 1.1036129102	-1.6248154832	 0.305578
C	-2.3403328531	 2.2860727046	-1.7949141736	-0.448549
C	-1.4028912253	-2.0948597461	 0.2015527698	 0.330262
C	-1.4363782012	-3.2861329809	 0.3623913859	-0.464925
H	 1.7659977318	 0.1176316002	 1.3902851752	 0.113992
H	 0.1872065886	 0.2626792605	 2.1725694816	 0.114723
H	 0.7889995359	-1.3292454742	 1.6882760121	 0.130561
H	 0.0532552918	 0.9520081186	-0.2463693118	 0.115069
H	 0.6839004735	-0.6168155357	-0.7394767849	 0.102432
H	-1.9401860202	-0.1560561514	 0.754206632	 0.114422
H	-1.4562985676	-0.7751938013	-2.2018864035	 0.138965
H	-3.025035354	-0.8145043023	-1.4176537177	 0.141342
H	-2.4635309038	 3.3278903728	-1.9588327499	 0.196639
H	-1.4698618278	-4.3357128437	 0.5202809868	 0.195748
77.5251	94.7071	127.9757	164.1659	222.0393	251.5442	265.0126	349.2155	375.7356	496.3569	521.9708	562.2216	617.9527	629.6093	647.2684	648.7166	764.9316	820.9156	924.8774	950.8565	982.2809	1017.6197	1069.2012	1114.4401	1129.8095	1225.939	1275.6114	1303.6567	1329.3089	1369.1904	1374.066	1413.1011	1470.7928	1488.0942	1498.1722	1508.0283	2231.7461	2237.1088	3014.1028	3032.2808	3035.2966	3037.9284	3071.5962	3079.1331	3103.0727	3115.6891	3504.1525	3505.7897
CCC(CC#C)C#C	CC[C@@H](CC#C)C#C	
InChI=1S/C8H10/c1-4-7-8(5-2)6-3/h1-2,8H,6-7H2,3H3	InChI=1S/C8H10/c1-4-7-8(5-2)6-3/h1-2,8H,6-7H2,3H3/t8-/m0/s1
