12
gdb 127767	3.65351	1.719	1.17772	4.2045	63.3	-0.2772	-0.0836	0.1936	937.0417	0.078569	-464.91186	-464.905127	-464.904183	-464.943293	24.33	
C	-0.0128660241	 1.4778416667	-0.0174765537	-0.345845
N	-0.0068589811	 0.0318354525	 0.0797132025	-0.08837
N	-0.0484668249	-0.7354968328	-1.0423840736	-0.121159
N	-0.0351389623	-2.0164357925	-0.7333678893	-0.291843
C	 0.0168213487	-2.063573881	 0.61424339	 0.433117
C	 0.0354936648	-0.8011888056	 1.1458127853	 0.357719
N	 0.0877318268	-0.8923330789	 2.5016479525	-0.207568
N	 0.1024562788	-2.1093377764	 2.825091021	-0.00714
O	 0.0552476778	-2.9553976619	 1.5909788312	-0.238039
H	 0.8964071927	 1.8913997146	 0.4258594176	 0.164166
H	-0.0544589324	 1.7262844226	-1.0775641705	 0.180787
H	-0.8862317997	 1.8886579928	 0.4951762068	 0.164175
102.7385	168.7412	259.4318	260.1724	387.2882	443.5095	578.6819	636.6994	640.3057	657.6907	712.2732	790.1112	854.2316	983.2263	1007.1044	1153.9844	1182.0332	1211.9024	1270.6548	1349.7427	1418.2281	1444.2262	1478.7019	1481.2505	1501.9043	1554.9964	1601.3203	3057.5384	3127.9147	3171.1991
CN1N=NC2=C1N=NO2	Cn1nnc2c1nno2	
InChI=1S/C3H3N5O/c1-8-2-3(5-6-8)9-7-4-2/h1H3	InChI=1S/C3H3N5O/c1-8-2-3(5-6-8)9-7-4-2/h1H3
