21
gdb 67273	2.96344	1.83758	1.68835	0.2534	84.81	-0.2414	0.0845	0.326	939.8077	0.185079	-349.89756	-349.890741	-349.889797	-349.928138	29.635	
C	-0.0191241524	 1.5496942164	 0.0120423061	-0.534988
C	-0.023640951	 0.0480471896	 0.0029604199	 0.407165
C	 0.7163480835	-0.867004045	-1.0483946892	-0.098734
C	 1.7251518462	-1.2768859929	 0.0472102165	-0.243059
C	 0.6527188371	-0.8797198262	 1.0855660671	-0.098731
C	-0.6088782406	-1.8301097216	 1.0421809911	-0.037465
C	-0.4755769342	-2.9376623454	-0.0283108061	-0.237846
C	-0.5452606153	-1.8173887407	-1.0915711466	-0.037464
C	-1.2594319045	-0.8940207517	-0.0394970093	-0.109547
H	 1.002454681	 1.947348521	 0.0447074735	 0.115148
H	-0.5032733393	 1.9545271565	-0.8850164074	 0.114888
H	-0.5557242798	 1.9439923245	 0.8835891202	 0.114888
H	 1.077936339	-0.5057543753	-2.0126535128	 0.055415
H	 2.1265681821	-2.2950376381	 0.0531114021	 0.090301
H	 2.5624791993	-0.5719783536	 0.0763800769	 0.093489
H	 0.9560858266	-0.5301031357	 2.0738874923	 0.055415
H	-1.0674171792	-2.0599449688	 2.0044752169	 0.057292
H	 0.3897727951	-3.6078853149	-0.0065063981	 0.090329
H	-1.3871713285	-3.5433987079	-0.059103166	 0.093502
H	-0.9455747374	-2.0355801489	-2.0821434694	 0.057292
H	-2.3104483776	-0.6064947813	-0.069118988	 0.05271
221.5013	228.4777	229.1322	396.3847	422.4077	464.0169	548.404	622.089	684.6904	735.2693	778.1813	807.8304	838.0306	842.9708	867.8904	874.6025	934.745	948.9505	953.0126	957.6999	988.1754	1039.4308	1039.9595	1090.1825	1093.0127	1107.6677	1138.1017	1151.1402	1160.0004	1164.116	1172.6241	1185.5793	1225.81	1247.5394	1261.3347	1276.3234	1281.8766	1308.7808	1323.1221	1357.7348	1409.8005	1477.1089	1487.4075	1490.9911	1508.4115	3012.4463	3035.9622	3043.023	3075.6345	3077.6404	3081.6197	3084.9543	3086.9033	3089.6511	3097.7564	3099.5578	3112.6111
CC12C3CC1C1CC3C21	C[C@@]12[C@H]3C[C@@H]1[C@@H]1C[C@H]3[C@H]21	
InChI=1S/C9H12/c1-9-6-3-7(9)5-2-4(6)8(5)9/h4-8H,2-3H2,1H3	InChI=1S/C9H12/c1-9-6-3-7(9)5-2-4(6)8(5)9/h4-8H,2-3H2,1H3/t4-,5+,6+,7-,8+,9-
