19
gdb 68199	3.60568	1.19348	1.11418	0.6966	80.82	-0.2528	0.0512	0.3039	1147.4975	0.159617	-385.848227	-385.84018	-385.839236	-385.880371	32.718	
O	-0.1307168779	 1.4099078625	-0.0179427924	-0.485875
C	-0.0291728086	 0.0215106097	 0.0201911358	 0.426268
C	 0.3097290969	-0.785701792	 1.3167708737	-0.292812
C	-0.4071843544	-1.9176656214	 0.5343334873	-0.025794
C	-1.3316255531	-0.8113519751	-0.0472352333	-0.2686
C	 0.5659844518	-2.1689503608	-0.6572940548	-0.166214
C	 0.8593643427	-0.6700760515	-1.0362802019	-0.298016
C	 1.7421820581	-2.9512406051	-0.3113385919	 0.314335
C	 2.7130147231	-3.5960016	-0.0135909224	-0.457742
H	 0.7583046189	 1.7803501098	-0.0398267974	 0.279342
H	 1.3581514167	-0.933498511	 1.5889549955	 0.098558
H	-0.2695926221	-0.4345342335	 2.172781377	 0.102386
H	-0.8028473928	-2.8016077498	 1.0300180676	 0.075395
H	-2.0745716387	-0.4655828172	 0.6739428311	 0.105403
H	-1.7923375578	-0.9731590333	-1.0264304256	 0.089987
H	 0.0347493057	-2.6716725913	-1.4729856692	 0.102068
H	 0.5495927793	-0.4266956689	-2.0558883381	 0.106336
H	 1.9176372623	-0.4183319454	-0.922518888	 0.102977
H	 3.5680859	-4.1705905456	 0.2433793771	 0.191999
108.263	146.0052	252.8539	287.2057	345.7969	374.6425	435.6495	454.9093	516.8706	541.6661	616.0806	624.8215	634.1694	680.7482	815.0416	821.6992	841.0988	904.0188	934.5752	957.137	980.3494	1003.1348	1014.6775	1034.5493	1093.0474	1105.2674	1135.6148	1140.417	1198.5396	1213.2836	1235.6483	1240.6353	1257.0856	1295.7753	1326.2596	1346.2365	1386.6845	1483.6191	1494.2287	1527.2512	2232.3265	3040.1721	3053.2018	3056.9354	3064.181	3107.7602	3124.3306	3130.5391	3139.5397	3504.4975	3804.7765
OC12CC(C1)C(C2)C#C	O[C@@]12C[C@@H](C1)[C@@H](C2)C#C	
InChI=1S/C8H10O/c1-2-6-3-8(9)4-7(6)5-8/h1,6-7,9H,3-5H2	InChI=1S/C8H10O/c1-2-6-3-8(9)4-7(6)5-8/h1,6-7,9H,3-5H2/t6-,7-,8-/m1/s1
