17
gdb 88897	6.63	0.56767	0.5439	6.0171	88.44	-0.2632	-0.0357	0.2276	1962.0473	0.135433	-380.836928	-380.82755	-380.826606	-380.872444	33.014	
C	 0.1664990707	 1.522192169	-0.2803948571	-0.395461
C	 0.0349739983	 0.051150594	 0.0346452199	-0.003252
N	 1.2741879358	-0.7373545345	 0.1346521527	-0.325651
C	 0.42951628	-0.5851619814	 1.3224734457	-0.010213
C	 1.0312059602	 0.1856026284	 2.4927958154	-0.378524
C	 1.8093511281	-0.6763023912	 3.3688087985	 0.085405
C	 2.4405685943	-1.4166209954	 4.0855545332	 0.051239
C	 3.153870801	-2.250481007	 4.8971403158	 0.208247
N	 3.7587790105	-2.9618356002	 5.5886471207	-0.340226
H	 1.0458511028	 1.9610420857	 0.1961324707	 0.127667
H	 0.2726186503	 1.6689111802	-1.3602390142	 0.128313
H	-0.7216421501	 2.07343207	 0.0469965664	 0.120937
H	-0.8099523621	-0.4289991612	-0.4588447595	 0.090145
H	 1.1671689663	-1.6597460892	-0.2766813073	 0.238472
H	-0.1622596596	-1.4433260498	 1.6357209444	 0.099743
H	 1.6749024387	 0.9862425687	 2.1153966457	 0.155895
H	 0.2316200247	 0.6608893239	 3.0764930289	 0.147264
32.9627	62.5164	147.9428	158.8141	192.6912	217.372	331.2929	358.8762	419.8445	471.8219	492.5157	576.8524	579.4398	728.2151	773.593	837.2961	872.8036	928.7912	982.0598	1020.6854	1034.7978	1087.3824	1150.8433	1171.7615	1192.9989	1246.4128	1265.751	1275.248	1314.3745	1399.5575	1421.4402	1446.6123	1467.7441	1489.9397	1503.263	2265.4064	2401.5961	3027.4445	3038.6203	3084.8097	3099.5825	3102.1128	3124.8347	3131.5245	3517.8845
CC1NC1CC#CC#N	C[C@H]1N[C@H]1CC#CC#N	
InChI=1S/C7H8N2/c1-6-7(9-6)4-2-3-5-8/h6-7,9H,4H2,1H3	InChI=1S/C7H8N2/c1-6-7(9-6)4-2-3-5-8/h6-7,9H,4H2,1H3/t6-,7+/m1/s1
