16
gdb 73073	2.59249	1.49771	1.21416	2.1997	64.91	-0.2436	0.0169	0.2605	1038.948	0.123442	-474.987614	-474.979271	-474.978327	-475.021176	30.579	
O	-0.0817469847	 1.3158307943	 0.468288966	-0.456082
C	-0.1104495937	-0.028769349	 0.2040309829	 0.325762
C	 0.8282677987	-0.7564457405	-0.7549065331	-0.147831
O	-0.2351487708	-1.674348065	-1.1469098694	-0.288039
C	-1.1744407563	-0.9703944532	-0.3437262965	-0.026011
C	-0.7834663858	-1.0257620321	 1.1113874086	-0.068679
N	-0.0695163783	-2.1137859705	 1.6999418483	-0.281477
C	 0.9652715692	-1.870033579	 2.5472688584	 0.150354
O	 1.331658818	-0.7586136315	 2.8768396289	-0.334475
H	 0.3418724609	 1.4149244429	 1.3318622068	 0.303932
H	 1.1216666768	-0.1297148556	-1.6026877005	 0.124259
H	 1.6982165665	-1.2736373186	-0.3375585663	 0.113954
H	-2.1894428623	-0.8643510615	-0.7086138554	 0.120188
H	-1.508052244	-0.5345385979	 1.7597789195	 0.117649
H	-0.2741618034	-3.0597394503	 1.4186770059	 0.260634
H	 1.4421371192	-2.7989300627	 2.9144712961	 0.085861
52.6078	90.979	158.103	263.9414	289.2056	311.1736	370.3415	428.7601	464.3462	518.3785	614.4644	645.3093	747.2667	837.6061	875.834	918.7484	959.1359	987.7514	1027.2034	1034.2755	1060.4258	1073.846	1103.0314	1144.7195	1192.0919	1244.143	1273.7071	1288.8479	1340.4941	1361.3032	1422.4292	1481.0333	1502.5535	1517.5732	1786.2864	2953.8108	3044.2422	3102.5274	3121.4088	3186.6461	3631.6198	3756.7651
OC12COC1C2NC=O	O[C@]12CO[C@H]1[C@H]2NC=O	
InChI=1S/C5H7NO3/c7-2-6-3-4-5(3,8)1-9-4/h2-4,8H,1H2,(H,6,7)	InChI=1S/C5H7NO3/c7-2-6-3-4-5(3,8)1-9-4/h2-4,8H,1H2,(H,6,7)/t3-,4+,5+/m1/s1
