19
gdb 38190	3.21358	1.81565	1.79676	1.9146	78.99	-0.2298	0.0918	0.3216	876.6124	0.161736	-385.776711	-385.770534	-385.76959	-385.806657	27.641	
C	-0.0679979014	 1.5230263758	-0.0097910219	-0.017323
C	-0.4854915289	 1.8459547777	 1.4671498947	-0.361827
C	 0.5070815494	 0.8811896793	 2.1199068868	 0.402675
C	 1.8467832438	 0.9023309198	 2.8981270593	-0.294233
C	 1.669368782	-0.4799289216	 2.2134737731	-0.083731
O	 0.2507341563	-0.4753310977	 2.6867695072	-0.356463
C	 1.1869975778	 0.2310700926	 0.9141977975	 0.297889
C	-0.013554363	-0.0447820434	-0.0122065996	-0.279266
C	 1.5088661533	 1.4673970539	 0.0360738374	-0.308065
H	-0.5744828719	 2.0682590205	-0.8075288171	 0.066602
H	-0.3181760763	 2.8887897765	 1.7508442208	 0.109828
H	-1.5282283657	 1.5921339785	 1.6750747683	 0.12254
H	 2.6430683459	 1.5617625614	 2.5467624713	 0.100313
H	 1.7616867356	 0.8787481195	 3.984813249	 0.107558
H	 2.2270372996	-1.4043590072	 2.3704035019	 0.090162
H	-0.8582353306	-0.5929219954	 0.4053364136	 0.112289
H	 0.2665733398	-0.4409107287	-0.9913916883	 0.094002
H	 1.93062086	 1.2309347011	-0.9438772079	 0.101074
H	 2.0414083042	 2.3114147173	 0.4810731839	 0.095975
269.9847	306.398	397.0983	451.5483	480.1432	526.9219	549.4128	636.0801	695.5123	735.2496	804.6305	826.7382	838.604	854.7745	901.9562	921.8234	933.8169	939.5589	970.6182	991.4052	1014.2941	1062.1779	1068.384	1090.1182	1103.2573	1135.789	1149.1955	1156.7058	1169.3836	1188.9678	1208.272	1218.6511	1248.4663	1266.0842	1271.4253	1308.6517	1328.3651	1472.0096	1483.3547	1492.219	1520.7616	3058.4985	3062.1453	3070.3224	3072.7376	3106.9776	3109.8519	3111.9881	3118.9893	3142.3001	3151.4206
C12CC34CC(O3)C4(C1)C2	[C@@H]12C[C@@]34C[C@@H](O3)[C@]4(C1)C2	
InChI=1S/C8H10O/c1-5-2-7(1)6-4-8(7,3-5)9-6/h5-6H,1-4H2	InChI=1S/C8H10O/c1-5-2-7(1)6-4-8(7,3-5)9-6/h5-6H,1-4H2/t5-,6-,7+,8+/m1/s1
