15
gdb 131170	3.06248	1.33199	0.98676	3.4865	68.76	-0.2147	0.0078	0.2225	1140.7786	0.113499	-453.927208	-453.919196	-453.918252	-453.960439	28.973	
O	-0.2781667511	 1.4118908712	 0.3762508254	-0.441389
C	-0.0712757036	 0.0885716663	 0.1271038327	 0.142341
C	 0.1377979791	-0.574282598	-1.0714705772	 0.260669
N	 0.303667601	-1.8856410388	-0.7295498401	-0.251524
N	 0.1923657639	-2.1137593146	 0.5848008674	-0.222147
C	-0.0230316254	-0.9130027139	 1.1195041609	-0.060894
C	 0.2150107805	-0.1218604477	-2.469910311	-0.065038
C	 1.3719178678	-0.4114683283	-3.3414721633	-0.174868
O	 0.1598667515	-1.1615440416	-3.455345449	-0.238704
H	-0.2266770683	 1.9092762626	-0.4450048714	 0.298513
H	 0.3668383095	-2.6526631787	-1.3782339805	 0.280523
H	-0.1387551854	-0.7944628741	 2.1858500637	 0.120039
H	-0.3840344519	 0.7576653032	-2.7131807149	 0.101216
H	 1.5931107737	 0.2441505292	-4.1824395036	 0.125339
H	 2.2201653488	-0.9528658368	-2.9270481491	 0.125922
65.2622	128.2402	152.5291	169.484	294.7869	315.8387	435.3078	515.8219	527.377	621.3818	694.3793	710.2459	738.0721	849.4926	862.4939	897.1713	951.2822	1006.8995	1093.3871	1111.3794	1149.7106	1158.4929	1168.0174	1217.0804	1263.1862	1276.6738	1312.7859	1399.0026	1432.8704	1461.3604	1518.064	1558.0699	1639.2015	3085.767	3090.0503	3182.001	3257.8784	3669.9471	3839.1621
OC1=C(NN=C1)C1CO1	Oc1c([nH]nc1)[C@H]1CO1	
InChI=1S/C5H6N2O2/c8-3-1-6-7-5(3)4-2-9-4/h1,4,8H,2H2,(H,6,7)	InChI=1S/C5H6N2O2/c8-3-1-6-7-5(3)4-2-9-4/h1,4,8H,2H2,(H,6,7)/t4-/m1/s1
