17
gdb 52940	4.79212	0.94394	0.89401	1.7829	82.91	-0.2348	-0.001	0.2337	1356.4053	0.134945	-384.615198	-384.606949	-384.606004	-384.649995	30.778	
C	-0.0652972139	 1.477098626	-0.0043192605	-0.516516
C	-0.020784598	 0.0234238539	-0.0053193585	 0.41283
C	 0.0072156986	-1.1804635016	-0.0079376526	-0.432408
C	 0.061238472	-2.615989551	 0.0024693187	 0.341045
C	 0.2422029958	-3.4868879935	 1.2981504914	-0.255987
C	-0.449455233	-4.4735440389	 0.3169063644	-0.011058
O	-1.2167831591	-3.3372018882	-0.1981641829	-0.315801
C	 0.6308892578	-4.641387869	-0.7699126955	-0.084682
C	 0.9833396843	-3.3755800272	-0.9880723916	-0.128309
H	 0.5994622203	 1.8981032685	-0.7663993408	 0.151329
H	-1.0793521259	 1.8355082314	-0.212441589	 0.157297
H	 0.2375506262	 1.8838184622	 0.9667582455	 0.151774
H	 1.2568153223	-3.6987961496	 1.6400098134	 0.100163
H	-0.4138888786	-3.1579285839	 2.1064775259	 0.114815
H	-1.0536806012	-5.3224175079	 0.6305890434	 0.084866
H	 0.9869629215	-5.5619437938	-1.2078115826	 0.113366
H	 1.7046365608	-2.9268989175	-1.6537612988	 0.117276
12.4442	94.3011	99.5845	291.2043	307.7461	437.8558	454.9088	484.8735	512.8674	552.6224	617.4107	708.2438	745.9624	830.7591	858.4454	875.7568	902.0754	913.7715	952.354	977.9199	995.2852	1051.213	1052.6113	1056.2026	1084.3548	1112.6102	1204.0367	1231.5328	1257.4132	1297.8282	1348.9371	1413.2819	1474.9179	1477.0498	1484.2765	1619.1832	2373.0095	3028.4812	3068.6336	3090.2888	3092.0407	3143.828	3146.5361	3235.1866	3264.2607
CC#CC12CC(O1)C=C2	CC#C[C@@]12C[C@@H](O1)C=C2	
InChI=1S/C8H8O/c1-2-4-8-5-3-7(6-8)9-8/h3,5,7H,6H2,1H3	InChI=1S/C8H8O/c1-2-4-8-5-3-7(6-8)9-8/h3,5,7H,6H2,1H3/t7-,8+/m0/s1
