15
gdb 113653	3.48922	0.90002	0.84989	0.8765	63.82	-0.2626	-0.1122	0.1504	1355.5676	0.109298	-494.876963	-494.867762	-494.866818	-494.912327	31.376	
O	 0.035452076	 1.3640123652	-0.8267606188	-0.414471
C	 0.2572731309	 0.1808543772	-0.0768725905	-0.1079
C	-1.0599796617	-0.3947175451	 0.3853083848	 0.045373
O	-1.8212928002	-1.0899459551	-0.5956120088	-0.23947
C	-1.3520305909	-1.8492442628	 0.5147250642	-0.063334
C	-0.3201662189	-2.8958030724	 0.2327345133	 0.27585
O	 0.3746031225	-2.948329446	-0.7557189107	-0.279909
C	-0.1481582496	-3.979236464	 1.3061842274	 0.087509
O	-0.7901733898	-4.0181786478	 2.3224456629	-0.214291
H	-0.4208676612	 1.1059623184	-1.6353803034	 0.296409
H	 0.8158064932	-0.5682182436	-0.6484542069	 0.128755
H	 0.8535337504	 0.4761073344	 0.7932857335	 0.117729
H	-1.652189543	 0.2679555946	 1.0187384412	 0.117732
H	-2.1075510851	-2.1449790138	 1.239170046	 0.131444
H	 0.6361049874	-4.718760789	 1.0424007758	 0.118574
40.7935	74.3979	123.6383	136.6043	174.8218	237.1122	289.3973	370.7588	419.6525	485.0478	524.7507	624.0495	640.1891	780.7019	831.3021	930.0855	959.5824	1001.2447	1055.7544	1071.1757	1118.3915	1138.561	1172.2094	1234.3193	1274.8541	1358.8718	1365.0752	1403.1768	1422.2599	1467.1502	1494.3561	1799.2076	1821.8831	2935.0623	3043.175	3090.0176	3109.9185	3149.0545	3807.7311
OCC1OC1C(=O)C=O	OC[C@H]1O[C@H]1C(=O)C=O	
InChI=1S/C5H6O4/c6-1-3(8)5-4(2-7)9-5/h1,4-5,7H,2H2	InChI=1S/C5H6O4/c6-1-3(8)5-4(2-7)9-5/h1,4-5,7H,2H2/t4-,5+/m1/s1
