19
gdb 37609	2.96826	2.44874	2.2112	0.0959	79.51	-0.25	0.0791	0.3291	772.1234	0.164174	-348.70528	-348.70015	-348.699206	-348.734312	24.325	
C	-0.0338186561	 1.5832492871	 0.0561407077	-0.228853
C	 1.4789870631	 1.8125641942	-0.0154731302	-0.039734
C	 2.0200149955	 0.9025071004	-1.1656846477	-0.054307
C	 1.0161396667	-0.3095019949	-1.1643516211	-0.054307
C	 0.0224985596	 0.0541076362	-0.0135418372	-0.039735
C	 1.1322489084	-0.4033122972	 0.9880178717	-0.054307
C	 2.1361184507	 0.8087007853	 0.9866937089	-0.054307
C	 2.9474431569	 0.1267710086	-0.1681558165	-0.051941
C	 1.9520982615	-1.0749518663	-0.1668431574	-0.051942
H	-0.4778393363	 1.9520486919	 0.9888559141	 0.091386
H	-0.5736864234	 2.0294894251	-0.7879787588	 0.091386
H	 1.8435280331	 2.8401597435	 0.0096461754	 0.05646
H	 2.3416885576	 1.3265915692	-2.116492326	 0.056481
H	 0.6583448689	-0.7057606602	-2.114256118	 0.056481
H	-0.9192140019	-0.4953736067	 0.0133109	 0.056459
H	 0.8766633085	-0.882154205	 1.9328686437	 0.056481
H	 2.5600005473	 1.1502065074	 1.9306505088	 0.056481
H	 4.0332234583	 0.0737418659	-0.2290339432	 0.053909
H	 2.2063342115	-2.1319414042	-0.2266284843	 0.053909
373.1651	546.038	551.711	646.7193	670.2314	702.1666	773.8432	817.0171	818.8575	825.9003	846.9358	860.6459	883.5627	884.3682	890.6792	906.2348	936.8012	964.072	982.1557	985.3015	990.5354	1021.979	1085.9149	1093.3488	1115.717	1133.726	1135.5765	1164.105	1185.7189	1186.8459	1199.6762	1214.0948	1229.9567	1244.2629	1266.4561	1267.8154	1275.3561	1294.0978	1311.3821	1323.3527	1476.6866	3026.3059	3072.904	3095.4306	3102.0998	3102.5345	3106.9878	3111.5199	3114.6015	3116.5812	3131.9797
C1C2C3C4C1C1C2C3C41	C1[C@@H]2[C@@H]3[C@@H]4[C@H]1[C@@H]1[C@H]2[C@H]3[C@H]41	
InChI=1S/C9H10/c1-2-4-6-3(1)7-5(2)8(4)9(6)7/h2-9H,1H2	InChI=1S/C9H10/c1-2-4-6-3(1)7-5(2)8(4)9(6)7/h2-9H,1H2/t2-,3+,4-,5+,6+,7-,8+,9-
