14
gdb 15920	3.78478	1.92809	1.56131	1.2451	63.95	-0.2514	0.0057	0.2571	819.1923	0.106108	-382.452016	-382.445147	-382.444203	-382.483039	25.914	
C	-0.0555177255	-1.2327311649	-0.1321158139	-0.414488
C	-0.0019032962	-0.0359635037	-0.0318412208	 0.263157
C	 0.0634184688	 1.3965334013	 0.0624719149	 0.209733
C	-0.426315191	 2.2803547037	-1.107182078	-0.121698
O	 0.7494055595	 3.1219782883	-1.0139826639	-0.286859
C	 1.3215696442	 2.3160809173	 0.0234009187	 0.007426
C	 0.8924864411	 2.742889286	 1.4307573067	-0.102327
O	-0.3153265421	 1.9392797536	 1.3488283758	-0.324192
H	-0.1034320656	-2.2908395409	-0.2136244284	 0.201571
H	-0.4763059593	 1.7701272786	-2.0756013104	 0.114897
H	-1.35704777	 2.8195119961	-0.9049014745	 0.121025
H	 2.3511474776	 2.0157118588	-0.1743281033	 0.101168
H	 1.5446509703	 2.3908837026	 2.2395349749	 0.112131
H	 0.6823944883	 3.8103679231	 1.548375212	 0.118455
122.4795	156.0303	198.4564	358.2108	382.2761	483.2705	515.8614	586.7034	632.6266	671.9968	709.2224	842.7279	886.0601	917.2385	986.7568	992.8119	1023.1612	1060.1009	1092.8097	1101.5784	1146.2291	1166.1313	1180.9068	1257.8519	1308.8209	1337.2897	1363.7967	1501.009	1502.4753	2237.8094	3024.591	3031.9943	3090.5367	3095.8904	3111.107	3499.3696
C#CC12COC1CO2	C#C[C@]12CO[C@H]1CO2	
InChI=1S/C6H6O2/c1-2-6-4-7-5(6)3-8-6/h1,5H,3-4H2	InChI=1S/C6H6O2/c1-2-6-4-7-5(6)3-8-6/h1,5H,3-4H2/t5-,6-/m0/s1
