23
gdb 123011	5.14412	0.4971	0.47973	1.0059	83.77	-0.2576	0.0796	0.3372	2317.4286	0.203382	-425.408529	-425.397502	-425.396558	-425.44623	38.639	
C	 0.2830390222	 1.4710697908	-0.3499585921	-0.419089
C	 0.0573047217	 0.0319728081	 0.0383028089	 0.076756
O	 1.2129365931	-0.7873754648	 0.2527771153	-0.266594
C	 0.338257429	-0.5448594568	 1.3645041044	 0.065609
C	 0.9099799658	 0.2033052921	 2.5443378078	-0.228769
C	 1.8647265735	-0.6718150855	 3.3697394104	-0.17642
C	 2.4544633849	 0.0620262659	 4.576704424	-0.168072
C	 3.4040445824	-0.805359614	 5.3922958966	-0.074842
O	 3.8840797186	-0.0284791605	 6.4798689891	-0.421873
H	 1.0604664752	 1.9411331706	 0.2548364518	 0.128901
H	 0.5889242059	 1.5331066362	-1.399671309	 0.129144
H	-0.6433513342	 2.0452467099	-0.2382925411	 0.121002
H	-0.7192679479	-0.4666487044	-0.5472022688	 0.083568
H	-0.2500990307	-1.4234919612	 1.6445867793	 0.081636
H	 1.440514837	 1.097337326	 2.2030758805	 0.103127
H	 0.0804489231	 0.5457648569	 3.1781905615	 0.098642
H	 1.3304951996	-1.5701670924	 3.7087756036	 0.092656
H	 2.670619509	-1.0232117442	 2.7133534965	 0.114499
H	 2.9983199387	 0.955838326	 4.2469614012	 0.105202
H	 1.6515360416	 0.4126452807	 5.237290479	 0.102472
H	 2.8730507273	-1.7038354596	 5.7483152093	 0.082387
H	 4.232646151	-1.1512014811	 4.7525780662	 0.085331
H	 4.4919820634	-0.5703588186	 6.9909798356	 0.284727
39.5477	57.1766	85.2198	113.8277	140.1514	165.7151	206.0862	239.9807	261.8324	347.847	373.4306	444.9186	501.3778	546.1737	739.026	762.3806	801.5955	832.0819	910.9721	947.3636	985.34	1013.7924	1028.4034	1059.9185	1062.1135	1079.6516	1109.7331	1148.3588	1175.6088	1188.0667	1210.1978	1226.8636	1281.0941	1285.2647	1306.482	1316.7681	1329.8782	1344.0975	1390.9998	1405.3866	1419.6273	1462.1802	1468.9658	1472.5184	1490.4053	1490.9519	1504.8168	1513.4129	1528.9121	2957.2249	2982.726	3011.6566	3019.6646	3028.7921	3038.7469	3049.3914	3059.2511	3073.436	3077.4525	3092.9261	3098.3717	3137.3685	3830.7441
CC1OC1CCCCO	C[C@H]1O[C@H]1CCCCO	
InChI=1S/C7H14O2/c1-6-7(9-6)4-2-3-5-8/h6-8H,2-5H2,1H3	InChI=1S/C7H14O2/c1-6-7(9-6)4-2-3-5-8/h6-8H,2-5H2,1H3/t6-,7+/m1/s1
