20
gdb 6395	2.94571	1.25132	1.0505	3.3611	72.36	-0.2415	0.0589	0.3004	1221.4535	0.176367	-382.376231	-382.36637	-382.365426	-382.411403	35.583	
C	-0.0766895412	 1.5636202422	 0.0039798175	-0.378978
C	 0.0087168985	 0.0356620386	 0.0045180143	-0.182439
C	 0.7604393233	-0.5486925166	 1.2089684161	 0.069385
C	 0.6661394338	-2.0791541194	 1.2632327325	-0.399232
N	 2.1511687604	-0.0931322051	 1.1976407351	-0.336315
C	 2.8592163575	 0.0192672342	 2.3753423958	 0.452528
N	 4.2228236913	 0.2406032274	 2.1905475844	-0.567699
O	 2.3562346576	-0.0792509834	 3.4795219693	-0.394243
H	 0.9200073001	 2.0136808008	 0.0176262011	 0.1169
H	-0.6039418473	 1.9290486754	-0.8824690352	 0.110005
H	-0.6140492399	 1.9267269938	 0.8866930125	 0.120039
H	-1.0003994942	-0.3926875577	-0.0049025972	 0.100649
H	 0.4898549428	-0.3137145997	-0.9210151187	 0.084322
H	 0.3356147479	-0.1437767982	 2.1321890263	 0.116843
H	-0.3779392206	-2.4037846492	 1.321695252	 0.11383
H	 1.1089857531	-2.5334054854	 0.3684631108	 0.101968
H	 1.192910537	-2.4588047409	 2.1422876345	 0.137938
H	 2.6830958923	-0.3252686518	 0.371008032	 0.231515
H	 4.4957244886	 0.776183084	 1.3793714601	 0.244713
H	 4.6730520891	 0.5426559709	 3.0417666368	 0.25827
37.3812	80.6106	116.4187	179.2368	211.9638	232.8568	264.0032	358.2354	390.4129	416.3216	443.0848	502.4369	516.7251	581.353	649.0147	780.0618	783.4943	847.1431	915.6109	976.626	995.8976	1026.0633	1070.4825	1100.0472	1127.9646	1186.961	1192.7749	1277.3253	1318.0175	1330.4648	1381.5404	1391.6365	1405.8528	1409.6172	1481.3423	1489.6263	1495.8389	1501.3269	1508.0779	1531.4377	1626.7407	1799.8052	3002.9757	3027.0662	3037.8645	3055.7236	3076.6524	3098.1842	3103.9962	3115.2844	3122.8115	3567.7846	3595.1302	3680.7243
CCC(C)NC(N)=O	CC[C@@H](C)NC(=O)N	
InChI=1S/C5H12N2O/c1-3-4(2)7-5(6)8/h4H,3H2,1-2H3,(H3,6,7,8)	InChI=1S/C5H12N2O/c1-3-4(2)7-5(6)8/h4H,3H2,1-2H3,(H3,6,7,8)/t4-/m1/s1
