21
gdb 70739	2.53158	1.60451	1.20692	0.5677	78.55	-0.234	0.0842	0.3182	1108.727	0.183622	-424.20979	-424.20156	-424.200616	-424.242026	33.014	
C	-0.0164471807	 1.5288326087	 0.0517546618	-0.453119
C	 0.0361330558	 0.016620509	 0.0162821009	 0.432618
C	-0.8387508257	-0.7724664988	 0.9428394435	-0.357591
C	 0.6682537595	-0.7514352016	 1.1525622181	-0.0867
C	 1.4753519111	-2.0013103792	 0.8515856841	-0.10501
O	 2.6167222341	-1.7588747014	 0.0403705629	-0.242711
C	 2.3260546678	-1.7122646056	-1.3424721758	-0.074432
C	 1.5046026801	-0.5010283032	-1.7802297485	-0.093442
O	 0.172905364	-0.5258135846	-1.2751176622	-0.2936
H	 0.912039634	 1.9781406189	-0.3163416147	 0.119381
H	-0.8394338329	 1.8911360706	-0.5729141069	 0.125455
H	-0.1753279508	 1.8879536147	 1.0724844994	 0.116313
H	-1.4765542562	-0.2362619557	 1.636911075	 0.110511
H	-1.2639760607	-1.6889433382	 0.5481685706	 0.12049
H	 1.0433553332	-0.1533701603	 1.9785889799	 0.086781
H	 1.8548030381	-2.4280816415	 1.7858449303	 0.10572
H	 0.8378509357	-2.7597857881	 0.3747177079	 0.093134
H	 3.2933573192	-1.6893860522	-1.8585117615	 0.101939
H	 1.7950609038	-2.6282165525	-1.6507463522	 0.092087
H	 2.0219626221	 0.4221290084	-1.4882896973	 0.100251
H	 1.4204466086	-0.5097106871	-2.8736491151	 0.101926
142.6939	165.5024	212.9596	281.3569	297.6899	357.2921	371.2408	397.5122	428.359	482.984	557.0138	605.0098	710.0843	809.4974	832.842	878.3916	893.5196	938.0576	945.0799	988.4889	996.7527	1052.2006	1059.3788	1100.1179	1106.1053	1123.6703	1137.2121	1147.9523	1184.4497	1243.1611	1286.4074	1300.217	1315.6089	1340.4807	1390.	1403.5474	1405.6771	1418.2375	1430.0342	1475.5211	1477.9236	1483.9757	1491.2565	1495.3686	1504.7705	2971.3102	2999.0939	3016.7808	3034.5328	3062.544	3069.7706	3071.2121	3097.903	3113.0667	3132.707	3144.5962	3221.78
CC12CC1COCCO2	C[C@]12C[C@H]1COCCO2	
InChI=1S/C7H12O2/c1-7-4-6(7)5-8-2-3-9-7/h6H,2-5H2,1H3	InChI=1S/C7H12O2/c1-7-4-6(7)5-8-2-3-9-7/h6H,2-5H2,1H3/t6-,7-/m0/s1
