16
gdb 10026	3.33905	1.11045	0.86881	3.2729	74.57	-0.2508	0.0105	0.2613	1327.962	0.128718	-342.755891	-342.746214	-342.74527	-342.79264	32.076	
C	 0.1701690677	 1.4933840531	 0.0668302939	-0.32976
N	-0.2031632585	 0.1132984919	-0.2348722706	-0.264721
C	 0.6582835353	-0.5413744621	-1.2170327254	-0.293298
C	 2.0944778241	-0.571077939	-0.8101763935	 0.278355
N	 3.1906357553	-0.5460993533	-0.4439921144	-0.332145
C	 0.1968170072	-1.8993890111	-1.5071128402	 0.024509
C	-0.177742217	-3.0191276938	-1.7342791552	 0.170649
C	-0.6329778469	-4.3725890657	-2.0121571485	-0.502286
H	 1.1992244324	 1.6147080486	 0.4391690996	 0.128907
H	 0.0617349728	 2.1021491487	-0.8377479766	 0.128917
H	-0.5205462381	 1.8855883657	 0.8171535474	 0.13046
H	-0.2228532	-0.4471452147	 0.6106911881	 0.235419
H	 0.6123146301	 0.0605504168	-2.1363410885	 0.153086
H	-0.740719756	-4.5391771387	-3.0891347331	 0.156556
H	 0.0752307528	-5.1137174037	-1.6270385273	 0.158629
H	-1.6053007713	-4.5633179125	-1.5457365656	 0.156723
9.962	82.6852	91.4829	126.4794	173.0791	240.8616	273.2644	291.2959	358.8488	384.2988	476.4393	541.0466	600.1767	745.1046	830.8834	910.7107	979.9399	1052.5077	1053.2697	1123.7056	1156.9901	1176.6161	1189.4204	1315.4885	1328.1366	1413.6134	1457.7909	1475.008	1476.333	1484.2418	1492.2037	1519.3516	2344.3906	2384.0641	2987.3338	3005.8315	3033.389	3068.3062	3097.4717	3098.0234	3118.5557	3531.9668
CNC(C#N)C#CC	CN[C@@H](C#N)C#CC	
InChI=1S/C6H8N2/c1-3-4-6(5-7)8-2/h6,8H,1-2H3	InChI=1S/C6H8N2/c1-3-4-6(5-7)8-2/h6,8H,1-2H3/t6-/m1/s1
