23
gdb 105077	3.06839	1.09576	0.92211	1.5227	85.73	-0.2429	0.0732	0.3161	1372.0563	0.204758	-388.25675	-388.246856	-388.245912	-388.291731	37.881	
C	 0.0666439905	 1.8868539713	-0.3290962172	-0.407618
C	 0.0310463126	 0.3730060632	-0.5553899127	-0.22757
C	-1.072611861	-0.4277597388	 0.1426031928	 0.340038
C	-1.5910543655	 0.031458479	 1.4855173399	-0.311424
C	-2.4651607014	 0.1519171115	 0.2584046433	-0.302458
C	-0.9269522922	-1.8949520546	-0.1788278999	-0.072587
C	-0.1244530029	-2.8448253085	 0.6988338181	-0.338301
C	-1.603929114	-3.0553393116	 0.4944632779	 0.072604
O	-2.5117221003	-2.8253771247	 1.5361196894	-0.414633
H	 0.8794470765	 2.3303641087	-0.9127510123	 0.111983
H	-0.8615220183	 2.3743071906	-0.6433448729	 0.118978
H	 0.2437560079	 2.1431014903	 0.7197406635	 0.119528
H	-0.0468151529	 0.1838495629	-1.6356068336	 0.091994
H	 0.9976293575	-0.0507912504	-0.2505566438	 0.097334
H	-1.8631802683	-0.7180833939	 2.2147930899	 0.123534
H	-1.176547434	 0.9434026748	 1.8999952937	 0.097957
H	-2.659372324	 1.1408028381	-0.1425437993	 0.101288
H	-3.2979416918	-0.5372181347	 0.178068702	 0.119842
H	-0.7978031594	-2.0569695297	-1.2480625847	 0.082476
H	 0.5826973126	-3.5361272191	 0.25274533	 0.106454
H	 0.1661788843	-2.4526807563	 1.6683996878	 0.116772
H	-1.8988591254	-3.8726474111	-0.1646845777	 0.085407
H	-2.4033496604	-3.5309269569	 2.1822000659	 0.288401
49.305	64.2306	159.1455	210.5247	241.434	264.417	293.5149	306.4056	346.9061	402.3995	410.7897	516.854	589.2155	665.7396	770.2425	778.3697	797.1655	831.1695	859.5073	899.5829	929.1747	948.7133	990.6683	1025.0701	1034.3146	1053.4643	1060.6717	1083.4089	1092.0623	1105.6067	1141.7378	1148.055	1182.7258	1196.294	1225.3368	1262.9345	1297.3452	1314.4062	1344.6982	1383.8391	1405.9509	1416.2759	1427.4971	1457.3804	1488.1522	1493.4061	1499.328	1507.5799	1515.4208	3000.9317	3030.8928	3039.8747	3086.1522	3102.1618	3109.2705	3111.5937	3126.3147	3135.7769	3152.2721	3215.7171	3220.3485	3252.2299	3806.5142
CCC1(CC1)C1CC1O	CCC1(CC1)[C@H]1C[C@H]1O	
InChI=1S/C8H14O/c1-2-8(3-4-8)6-5-7(6)9/h6-7,9H,2-5H2,1H3	InChI=1S/C8H14O/c1-2-8(3-4-8)6-5-7(6)9/h6-7,9H,2-5H2,1H3/t6-,7+/m0/s1
