14
gdb 43561	2.02867	1.65418	1.06839	4.9505	72.51	-0.272	-0.0526	0.2194	1100.8537	0.098702	-399.528275	-399.51981	-399.518865	-399.562238	30.459	
O	 0.0996915521	-0.0259478551	-0.3556821272	-0.255489
C	 0.0039854766	 1.1256703456	-0.0784524099	 0.412803
C	-1.1511142992	 2.0589556223	 0.2904436134	-0.351673
C	-0.104560467	 3.1300901567	 0.7655481011	-0.227025
C	-0.0220182951	 3.2953586732	 2.2004491798	 0.354892
C	 0.045990254	 3.4159884602	 3.3937304829	-0.445816
C	 1.0583375705	 2.2657242617	 0.1144703719	-0.288485
C	 2.2638812338	 1.9852765324	 0.8617339278	 0.306114
N	 3.2211211525	 1.7465061682	 1.4637934397	-0.31606
H	-1.7284306194	 2.3698744367	-0.5853535007	 0.148734
H	-1.8332226313	 1.6778802925	 1.0518599573	 0.16178
H	-0.2130442052	 4.098337306	 0.2730604745	 0.126989
H	 0.1177777046	 3.5256254414	 4.4479994285	 0.213879
H	 1.318466093	 2.6689426281	-0.8708716291	 0.159358
39.3599	101.7488	135.7497	199.0124	243.4023	395.1251	414.1302	431.7973	478.8047	574.9089	591.9007	649.0532	656.2316	706.7454	745.7319	781.1372	888.5544	963.5777	1033.9197	1049.4285	1062.618	1097.1089	1176.1816	1207.7164	1240.8028	1291.7728	1350.8684	1433.2045	1918.5642	2244.0484	2359.9095	3057.7844	3070.9537	3091.1112	3140.105	3501.9071
O=C1CC(C#C)C1C#N	O=C1C[C@@H](C#C)[C@H]1C#N	
InChI=1S/C7H5NO/c1-2-5-3-7(9)6(5)4-8/h1,5-6H,3H2	InChI=1S/C7H5NO/c1-2-5-3-7(9)6(5)4-8/h1,5-6H,3H2/t5-,6-/m1/s1
