22
gdb 90438	2.19924	1.56979	1.24964	1.9033	83.09	-0.2112	0.0828	0.2939	1158.4277	0.192945	-404.310023	-404.300709	-404.299765	-404.343678	35.397	
C	 0.3558433811	 1.5515857941	-0.1513708353	-0.408795
C	 0.0867390551	 0.0777552896	 0.0409737753	 0.159295
O	 0.8758914789	-0.7766383902	-0.8459681385	-0.32085
C	 1.2651805772	-1.6366965118	 0.2411774044	 0.084173
C	 2.6479372975	-1.3153496537	 0.85787384	 0.043023
C	 3.7932126997	-0.9092706236	-0.0506359801	-0.400461
N	 2.0140151929	-0.2170216085	 1.6409804292	-0.082452
C	 2.3464275969	-0.0974332268	 3.0421311007	-0.331813
C	 0.6550428714	-0.6649270371	 1.2727460666	-0.071286
H	 1.3869618086	 1.7829344334	 0.1233640734	 0.134684
H	 0.1877468582	 1.8306852914	-1.196176484	 0.123301
H	-0.3210300085	 2.146701877	 0.4719174526	 0.109288
H	-0.9800634176	-0.1498914286	-0.1015566626	 0.069681
H	 0.9899312933	-2.680376113	 0.0762959802	 0.076633
H	 2.9467350638	-2.1495460639	 1.5166485245	 0.055842
H	 3.4437410607	-0.1830738269	-0.7877976953	 0.136272
H	 4.6074436011	-0.4601280617	 0.5275330327	 0.112607
H	 4.1964397366	-1.7797081892	-0.5796279239	 0.111755
H	 3.4042079831	 0.1658401327	 3.1489176003	 0.122522
H	 1.758515846	 0.7050668803	 3.5001435614	 0.120333
H	 2.1694574988	-1.0245756419	 3.6210792546	 0.088582
H	-0.0109205648	-0.9356595216	 2.0957218139	 0.067664
87.6375	155.5895	195.3227	205.9268	212.2152	219.0547	256.3783	307.4602	364.6941	408.5	528.3542	565.461	645.365	742.7555	797.5687	828.608	864.0798	896.0218	925.8043	943.9724	990.8064	1047.7078	1073.25	1089.3427	1108.3393	1129.8265	1145.4134	1159.8563	1180.6359	1199.6336	1217.6594	1246.1336	1293.0718	1302.6273	1326.1445	1344.0977	1373.4315	1382.6909	1400.8315	1407.3074	1455.8056	1479.5509	1484.6255	1491.4663	1495.2524	1500.096	1501.1155	2917.9101	2946.6538	2991.3754	3036.216	3038.2103	3053.8105	3073.9248	3089.0265	3096.0612	3099.2211	3104.0742	3132.0734	3137.2264
CC1OC2C(C)N(C)C12	C[C@H]1O[C@H]2[C@@H](C)N(C)[C@@H]12	
InChI=1S/C7H13NO/c1-4-7-6(8(4)3)5(2)9-7/h4-7H,1-3H3	InChI=1S/C7H13NO/c1-4-7-6(8(4)3)5(2)9-7/h4-7H,1-3H3/t4-,5-,6+,7+/m1/s1
