21
gdb 22238	1.98566	1.12883	0.85449	9.5747	86.52	-0.1261	0.0262	0.1523	1455.5417	0.179201	-457.431629	-457.420358	-457.419414	-457.468945	39.549	
C	-0.2879114877	 1.4720230331	 0.7760302061	-0.342645
N	-0.1381279309	 0.001026848	 0.7932293883	-0.246506
H	-0.3346473561	-0.4256797082	 1.7148055411	 0.30192
H	-0.7518335147	-0.4590213103	 0.1201090731	 0.28878
C	 1.3388140458	-0.6154287978	 0.4704694847	-0.265757
C	 1.2882092883	-2.0446635373	 0.6871165659	 0.196427
N	 1.0278069428	-2.7738526503	-0.4163977417	-0.111203
O	 0.8519079237	-4.0127268097	-0.2799547548	-0.435333
C	 1.2218818594	-2.6048148471	 2.072583351	 0.036558
C	 2.5451787786	-2.6469070523	 2.8341636048	-0.398771
O	 0.2601218792	-1.7742871233	 2.8181422959	-0.472251
H	-0.0219287368	 1.8472956546	-0.2140087519	 0.164964
H	-1.3136961945	 1.7612654933	 1.0144617149	 0.158036
H	 0.3906270598	 1.8991040651	 1.5165044968	 0.166656
H	 1.5091255684	-0.3620497903	-0.5770530318	 0.132371
H	 1.9691557981	-0.0252767756	 1.142503766	 0.115793
H	 0.8224496976	-3.6201890534	 1.957185209	 0.098508
H	 2.9940102042	-1.650790464	 2.91613803	 0.100992
H	 2.4150964512	-3.0446076619	 3.8497172196	 0.091106
H	 3.2474380874	-3.2996190155	 2.3079843886	 0.139951
H	 0.1452027161	-2.1455730871	 3.6985678142	 0.280404
28.8935	67.7106	98.6588	160.9483	192.2884	216.2259	226.8027	241.1655	258.1773	277.9027	311.9196	338.2351	419.4168	494.0025	516.8866	625.9996	720.6503	781.7309	794.5242	874.3722	941.0669	992.1308	1008.0619	1062.9692	1086.5876	1109.9107	1142.5439	1185.232	1266.6885	1289.098	1328.1469	1336.5652	1358.295	1376.4198	1394.4545	1401.7642	1418.3039	1443.3744	1452.1709	1457.0276	1489.4116	1491.6474	1495.8454	1502.1013	1653.3477	3009.998	3036.2402	3051.7419	3062.629	3077.1644	3115.6251	3137.8274	3145.1881	3155.1538	3245.5391	3483.7128	3809.4642
C[NH2+]CC(=N[O-])C(C)O	C[NH2]CC(=N[O])[C@@H](C)O	
InChI=1S/C5H12N2O2/c1-4(8)5(7-9)3-6-2/h4,6,8-9H,3H2,1-2H3	InChI=1S/C5H12N2O2/c1-4(8)5(7-9)3-6-2/h4,8H,3,6H2,1-2H3/t4-/m1/s1
