21
gdb 67437	2.25081	1.93648	1.78098	0.6416	87.91	-0.2129	0.0032	0.2161	961.8383	0.184222	-349.9144	-349.906942	-349.905998	-349.945572	31.297	
C	 0.2134865392	 1.6147220055	-0.0113877822	-0.516862
C	 0.0539762617	 0.1137676293	 0.0318018858	 0.363986
C	 0.3254316028	-0.8568155873	-1.1649819712	-0.084269
C	 0.950606095	-1.8372990232	-0.1072854784	-0.236264
C	 0.7274192329	-0.8091303884	 1.0749316686	-0.079975
C	-0.4020114843	-1.1573936992	 2.0770243406	-0.260903
C	-1.6056830747	-1.2122302094	 1.1320927369	-0.159242
C	-1.3352129765	-0.5282017519	 0.0170277964	 0.120589
C	-1.2243436283	-0.9589907674	-1.4349303416	-0.299151
H	 1.263187251	 1.8981685869	-0.1483148961	 0.112707
H	-0.3612139257	 2.0552855308	-0.8339173085	 0.115831
H	-0.1387721487	 2.0742560294	 0.9193608497	 0.120256
H	 0.9574636796	-0.598063258	-2.0186340494	 0.063346
H	 0.4589587722	-2.8075791239	 0.0028541091	 0.097148
H	 2.0105925037	-2.0125803772	-0.3050898211	 0.100166
H	 1.6568393717	-0.4675321542	 1.540963114	 0.051365
H	-0.2500589443	-2.1314638211	 2.558079325	 0.09978
H	-0.4774724964	-0.4183922471	 2.8877647152	 0.0988
H	-2.3992183073	-1.9437525726	 1.244254272	 0.086921
H	-1.5120543062	-0.2071326243	-2.1784004577	 0.104811
H	-1.6652584172	-1.9228926369	-1.7026618472	 0.100958
195.7637	216.6359	228.5462	273.529	333.6277	372.6241	422.1013	568.5461	612.9309	661.3812	703.1545	760.478	794.2458	808.6896	849.4157	852.2209	885.9294	910.1983	933.5372	964.6203	996.3035	1010.0768	1038.3664	1052.5037	1081.4165	1094.2242	1147.5444	1160.254	1168.3606	1200.3916	1211.1033	1219.4929	1261.8671	1266.4019	1289.7464	1297.9811	1316.1999	1350.7726	1407.095	1468.6758	1477.7697	1482.3744	1489.7439	1493.1467	1676.932	2999.8847	3020.4168	3035.7501	3049.0411	3055.3665	3060.8657	3070.2847	3086.1437	3087.3448	3098.6883	3113.4768	3180.078
CC12C3CC1CC=C2C3	C[C@@]12[C@H]3C[C@@H]1C[CH][C]2C3	
InChI=1S/C9H12/c1-9-6-2-3-7(9)5-8(9)4-6/h2,7-8H,3-5H2,1H3	InChI=1S/C9H12/c1-9-6-2-3-7(9)5-8(9)4-6/h2,7-8H,3-5H2,1H3/t7-,8+,9-/m0/s1
