20
gdb 56249	5.43444	0.60085	0.56422	3.2741	77.83	-0.2643	0.0343	0.2986	1960.1619	0.169067	-440.270504	-440.260503	-440.259559	-440.307006	34.894	
C	-0.0152500503	 1.3951220696	-0.1492176797	-0.441133
C	 0.0780411761	-0.0882941785	 0.0686147172	 0.408663
N	 0.2854734666	-0.5870570214	 1.2158272195	-0.519308
O	-0.0921064979	-0.7406059619	-1.1171845193	-0.242672
C	-0.0404661139	-2.1632029883	-1.1152833031	-0.080498
C	-0.2392457578	-2.6329941963	-2.5521187153	-0.245819
C	-0.2407708808	-4.1385839069	-2.6481646126	 0.090657
C	 0.3767129788	-4.852529135	-3.7714174468	-0.178123
O	 1.0279097672	-4.7862019673	-2.5019331999	-0.234406
H	 0.7501456163	 1.7214251582	-0.8602377829	 0.137839
H	-0.9878476242	 1.6540163	-0.5791674222	 0.13651
H	 0.1183974951	 1.9126645007	 0.799452851	 0.147267
H	 0.3267961284	-1.6050583971	 1.2049900081	 0.216905
H	 0.9288500461	-2.5097727518	-0.7345809053	 0.13005
H	-0.8268751646	-2.565406173	-0.4605052925	 0.108354
H	-1.1897959991	-2.2391165734	-2.9311448171	 0.11624
H	 0.5605470588	-2.2239679312	-3.1774584319	 0.118427
H	-1.0508825969	-4.6425775227	-2.116630687	 0.095402
H	 0.0074117981	-5.8360837142	-4.0579084539	 0.118574
H	 0.851010254	-4.2837495594	-4.5702187462	 0.117071
49.9768	53.1804	96.3574	120.6064	140.1462	177.9085	236.7477	292.4281	407.1183	435.7236	499.7071	559.5245	613.1368	780.4281	819.599	864.5949	878.6805	903.5315	950.0819	988.8261	1022.4303	1068.65	1076.1113	1081.9871	1114.8861	1136.4644	1157.823	1161.0135	1179.1605	1239.876	1291.2967	1304.7999	1316.364	1329.1691	1402.0811	1428.0194	1451.7575	1474.8625	1477.2475	1478.3521	1524.6528	1531.5093	1736.2891	2999.9691	3041.2289	3049.9835	3051.0418	3081.4683	3085.6424	3101.4603	3108.7524	3170.2066	3171.2092	3497.7348
CC(=N)OCCC1CO1	C[C]([NH])OCC[C@H]1CO1	
InChI=1S/C6H11NO2/c1-5(7)8-3-2-6-4-9-6/h6-7H,2-4H2,1H3	InChI=1S/C6H11NO2/c1-5(7)8-3-2-6-4-9-6/h6-7H,2-4H2,1H3/t6-/m0/s1
