16
gdb 66745	2.79663	1.92833	1.52072	1.2241	70.62	-0.2416	-0.021	0.2206	896.8703	0.124823	-400.682496	-400.675681	-400.674737	-400.713606	27.194	
C	-0.1495005762	 1.5344681113	 0.0167988697	-0.526239
C	-0.0308072034	 0.0468762039	 0.0075443637	 0.396454
C	 0.7287219173	-0.8338884997	-1.0639568259	-0.258601
C	-0.4081330219	-1.8186649603	-0.7577626607	-0.044518
C	-0.4191105222	-1.8289083742	 0.7417102009	-0.044521
C	 0.7130210016	-0.8485053048	 1.0779497921	-0.258595
C	 1.8005063533	-1.1047343937	 0.0131141181	 0.44034
O	 2.9850141919	-1.2523323689	 0.0207896979	-0.317192
N	-1.2805627852	-0.8609505192	-0.0077977702	-0.203648
H	 0.8418672967	 2.000617212	 0.0263522637	 0.133727
H	-0.6871588288	 1.8842715112	-0.8704700709	 0.137424
H	-0.6986639058	 1.8724256763	 0.901607992	 0.137403
H	 0.9522399771	-0.5378145741	-2.084974416	 0.095605
H	-0.8124291302	-2.6027870481	-1.3848201379	 0.108379
H	-0.8324597038	-2.6214849998	 1.3520121787	 0.108379
H	 0.9215170696	-0.5664086918	 2.1060785146	 0.095605
108.9847	212.2706	263.5464	285.2305	388.2039	562.0272	584.4934	602.2858	739.9531	748.8239	777.1659	789.4934	816.5705	856.759	874.113	922.0527	931.5585	967.5003	1020.3956	1039.4678	1055.9742	1085.4984	1103.8811	1128.1779	1150.8208	1160.682	1181.4161	1216.2623	1288.1173	1336.056	1346.501	1415.1167	1474.5891	1489.4322	1896.4562	3031.7121	3104.752	3105.237	3164.8913	3165.9599	3194.1662	3204.5527
CC12C3C4C(C1C3=O)N24	C[C@@]12[C@@H]3[C@H]4[C@@H]([C@H]1C3=O)N24	
InChI=1S/C7H7NO/c1-7-2-4-5(8(4)7)3(7)6(2)9/h2-5H,1H3	InChI=1S/C7H7NO/c1-7-2-4-5(8(4)7)3(7)6(2)9/h2-5H,1H3/t2-,3+,4+,5-,7-,8?
