14
gdb 131591	4.66582	1.00083	0.82829	4.1254	65.11	-0.2567	-0.0536	0.2031	1280.0494	0.101819	-470.010606	-470.002503	-470.001559	-470.044195	28.153	
O	 0.0277352977	 1.3831951078	 0.0093152549	-0.398533
C	-0.0098092911	-0.0189050808	 0.0030769542	-0.18119
C	-1.4614532455	-0.4792233714	 0.0125909442	 0.290452
O	-2.3994769468	 0.2832914503	 0.0237132647	-0.289706
C	-1.6821128513	-1.9442032273	 0.0078992467	 0.226416
N	-0.6905571569	-2.8462879149	-0.0041535274	-0.279563
N	-1.3332969324	-3.9976327329	-0.0040870088	-0.062804
N	-2.6637903799	-3.9441800977	 0.006937769	-0.191879
C	-2.909535264	-2.6377823608	 0.014806211	-0.104048
H	 0.9502786123	 1.6535896987	 0.001864689	 0.293676
H	 0.4740597528	-0.46143924	-0.8836476499	 0.120808
H	 0.4882231373	-0.4696306207	 0.8777655415	 0.120816
H	-0.8424567906	-4.878414042	-0.0120033454	 0.30084
H	-3.9130582416	-2.2468494883	 0.0247041563	 0.154715
72.5093	84.3663	145.9335	199.886	231.8916	287.8728	367.9893	499.8786	553.266	569.5089	722.0792	734.8255	762.166	917.8527	960.6307	992.6368	1016.3836	1047.2892	1139.1	1156.0586	1216.7821	1235.7331	1246.0643	1248.9942	1369.8224	1398.9669	1441.25	1478.146	1496.6644	1549.7787	1803.0558	2968.6757	2991.0854	3291.6867	3655.6926	3839.0196
OCC(=O)C1=NNN=C1	OCC(=O)c1n[nH]nc1	
InChI=1S/C4H5N3O2/c8-2-4(9)3-1-5-7-6-3/h1,8H,2H2,(H,5,6,7)	InChI=1S/C4H5N3O2/c8-2-4(9)3-1-5-7-6-3/h1,8H,2H2,(H,5,6,7)
