21
gdb 114537	3.31551	1.34499	1.23711	0.5368	78.3	-0.2501	0.0884	0.3386	1118.2773	0.184427	-424.212734	-424.204731	-424.203787	-424.245168	31.636	
C	 0.104288395	 1.0746988151	 0.6733731161	-0.241153
O	-0.1684447623	-0.2952102789	 0.4445341111	-0.236529
C	-1.3634081846	-0.522985914	-0.2701189212	 0.216976
C	-1.4368829181	-2.0386840363	-0.555369573	-0.25295
C	-2.3475339738	-2.741438474	 0.4615029073	-0.024448
C	-3.7632842532	-2.1001695793	 0.3835121612	-0.225573
C	-3.1621034885	-0.9776612756	 1.2643977179	 0.124217
C	-2.1957728554	-2.0437200714	 1.8470055537	-0.250128
O	-2.4892043114	-0.0277835943	 0.4359464011	-0.283319
H	 1.061171212	 1.1258955533	 1.1976592443	 0.122303
H	 0.1869478226	 1.6276020901	-0.2752830641	 0.102605
H	-0.6736731758	 1.546156038	 1.2840303293	 0.124391
H	-1.3369663809	 0.0688333028	-1.1972573778	 0.070433
H	-1.8146809161	-2.2048646931	-1.5701568585	 0.100822
H	-0.4156745663	-2.426524708	-0.513424497	 0.117042
H	-2.2596093708	-3.8283222857	 0.4014024484	 0.062178
H	-4.1508882789	-1.8053945186	-0.5955667385	 0.092263
H	-4.5119809896	-2.686344102	 0.9228804459	 0.096151
H	-3.804747046	-0.3967349373	 1.9281420416	 0.071969
H	-2.6816394472	-2.6130204748	 2.6434708683	 0.094205
H	-1.2051267707	-1.7156759361	 2.1607966836	 0.118544
99.8086	138.628	183.3484	235.0023	324.5191	360.9894	436.6319	450.0063	489.049	572.7414	694.5119	804.5705	816.0109	833.5832	854.2679	890.8375	927.3931	946.8426	954.3336	966.3018	1043.556	1052.0395	1095.2295	1103.6129	1123.4422	1129.1095	1142.0097	1179.5008	1194.6224	1209.4513	1238.6408	1250.8653	1269.3913	1298.2104	1318.1657	1351.9965	1369.4289	1397.1593	1409.0819	1467.4801	1475.697	1480.9238	1482.2307	1503.6405	1515.0902	2984.8129	2990.616	3046.2259	3053.0972	3066.8374	3069.2064	3082.3343	3096.5179	3100.5369	3114.2592	3122.9158	3146.6209
COC1CC2CC(C2)O1	CO[C@H]1C[C@@H]2C[C@@H](C2)O1	
InChI=1S/C7H12O2/c1-8-7-4-5-2-6(3-5)9-7/h5-7H,2-4H2,1H3	InChI=1S/C7H12O2/c1-8-7-4-5-2-6(3-5)9-7/h5-7H,2-4H2,1H3/t5-,6+,7-/m1/s1
