18
gdb 92958	2.79645	1.52535	1.19458	2.3247	71.62	-0.2498	0.0132	0.2631	1062.6741	0.148449	-439.078486	-439.070487	-439.069543	-439.111943	29.743	
C	-0.3223799167	 1.4722832174	 0.0326225116	-0.409604
C	 0.0888587553	 0.0121227077	-0.0381662117	 0.035822
O	 1.0618779225	-0.1482782384	-1.1125872102	-0.229587
C	 2.1132201958	-0.7824581704	-0.5567574734	 0.104025
N	 2.0964382001	-1.0816435363	 0.6760241788	-0.298637
C	 0.8132954647	-0.6033066471	 1.1967705545	 0.227609
C	 0.9127368491	 0.1772862759	 2.5342276387	-0.112156
O	 0.0950173068	-0.789655826	 3.2194660648	-0.271469
C	 0.0267832206	-1.6268474352	 2.0512489407	-0.107514
H	 0.5264318756	 2.1095913082	 0.2975225558	 0.131237
H	-0.7083614358	 1.7983481504	-0.9367457859	 0.133758
H	-1.1106050334	 1.6123517292	 0.7782344909	 0.134025
H	-0.7744773501	-0.6058815958	-0.3115429034	 0.097448
H	 2.9281605013	-0.991196894	-1.2414454862	 0.143663
H	 1.9354922689	 0.2131145018	 2.9256478246	 0.113561
H	 0.4726201424	 1.1800152891	 2.5630606966	 0.099296
H	-1.0091557635	-1.8123361849	 1.736079843	 0.094952
H	 0.5489757263	-2.5811096116	 2.184989871	 0.113573
44.6403	68.9169	246.5063	269.9669	290.6647	299.6341	409.8243	455.1697	512.5282	584.8006	736.6785	805.9923	847.0672	865.0324	936.106	953.65	967.8175	990.9646	1012.1985	1045.3871	1069.4067	1095.5406	1148.4349	1157.3549	1158.2223	1166.2717	1201.5279	1242.0147	1307.2798	1321.5531	1355.0612	1376.0107	1385.648	1411.3362	1485.6799	1496.4938	1502.4889	1528.3676	1695.5651	3002.7112	3029.7302	3035.5544	3044.4933	3065.0724	3078.8672	3120.1731	3123.6942	3213.268
CC1OC=NC11COC1	C[C@H]1OC=NC21COC2	
InChI=1S/C6H9NO2/c1-5-6(2-8-3-6)7-4-9-5/h4-5H,2-3H2,1H3	InChI=1S/C6H9NO2/c1-5-6(2-8-3-6)7-4-9-5/h4-5H,2-3H2,1H3/t5-/m1/s1
