18
gdb 111703	2.15948	1.45375	1.05394	4.6763	77.94	-0.2584	-0.0068	0.2517	1198.5987	0.147223	-401.919766	-401.911111	-401.910167	-401.953509	31.89	
C	-0.2157295273	 1.4523610789	-0.1135052144	-0.378981
C	 0.1722965225	-0.0153681489	 0.0997753895	-0.213864
C	 0.8112396869	-0.6203636731	-1.1324249272	-0.067849
C	 0.9877332354	-2.0964285405	-1.4085146795	-0.213267
C	-0.2511433017	-2.8799904202	-0.9870969825	-0.103004
O	-1.1301684541	-1.9671048556	-1.7054883879	-0.314146
C	 0.0007610575	-1.2682070705	-2.2312479656	 0.330547
C	-0.0042575076	-0.8735417835	-3.6030902844	 0.225345
N	 0.0076677083	-0.5385380431	-4.7107838459	-0.346677
H	 0.6576951606	 2.0613682028	-0.3705008223	 0.118489
H	-0.9423110448	 1.551963352	-0.9259101527	 0.132926
H	-0.6626056259	 1.8742549836	 0.7912634337	 0.118803
H	 0.8749080288	-0.0995966908	 0.9380400042	 0.104597
H	-0.7166540339	-0.592519797	 0.3693942791	 0.121484
H	 1.6443421207	-0.0481311413	-1.5379490712	 0.11301
H	 1.9297407041	-2.5280146991	-1.7175259229	 0.12462
H	-0.3023106532	-3.8787542905	-1.4313137627	 0.128851
H	-0.4880858664	-2.9302037031	 0.0802336627	 0.119115
67.6457	101.7956	164.5748	202.4484	211.2223	272.4277	332.3995	456.0799	493.8714	519.0531	555.4441	645.8575	771.4314	791.8173	829.2798	889.8475	933.6892	968.3294	978.0335	1006.0266	1015.2118	1052.6317	1094.6764	1127.6352	1141.8685	1160.9485	1184.8812	1246.3142	1305.9721	1316.7665	1336.634	1358.3169	1414.0584	1457.39	1480.0673	1500.084	1504.4559	1516.9813	2346.6088	3033.9992	3037.02	3044.8371	3086.9583	3097.1118	3109.4404	3114.0435	3133.9361	3213.1088
CCC1C2COC12C#N	CC[C@H]1[C@H]2CO[C@@]12C#N	
InChI=1S/C7H9NO/c1-2-5-6-3-9-7(5,6)4-8/h5-6H,2-3H2,1H3	InChI=1S/C7H9NO/c1-2-5-6-3-9-7(5,6)4-8/h5-6H,2-3H2,1H3/t5-,6+,7-/m0/s1
