19
gdb 84678	2.68331	1.75066	1.25194	1.7656	80.58	-0.2407	0.015	0.2556	1028.9299	0.161996	-385.911435	-385.904011	-385.903067	-385.943523	29.866	
O	 0.5093350296	 1.0033583542	-0.7813821631	-0.427516
C	 0.1301876803	-0.211225704	-0.1433027554	 0.084796
C	 0.6730172688	-0.3391525921	 1.25943469	-0.111989
C	-0.2672797791	-0.6321835296	 2.1542434029	-0.073381
C	-1.6416274536	-0.7802366447	 1.5507199437	-0.060086
C	-2.6992943692	 0.2165859886	 2.1146212894	-0.272732
C	-2.8725215936	 1.2153465468	 0.9983011431	-0.065874
C	-2.2066421567	 0.8802671103	-0.1058253321	-0.078155
C	-1.4178268468	-0.3970925196	 0.047373776	-0.109583
H	 0.2028471898	 1.7225332137	-0.2164925359	 0.274631
H	 0.5359858799	-0.9897167435	-0.7995354679	 0.088799
H	 1.7268226371	-0.1886768787	 1.4680973279	 0.097009
H	-0.097271153	-0.7635318051	 3.2187502452	 0.094585
H	-1.9965915236	-1.8104536897	 1.661306628	 0.079885
H	-3.6490604247	-0.2829044337	 2.3463822911	 0.105442
H	-2.3671363138	 0.6885405314	 3.0484037071	 0.102367
H	-3.5019642566	 2.0934296716	 1.1014908839	 0.092463
H	-2.2093758403	 1.4414263015	-1.0330311448	 0.103628
H	-1.7851961545	-1.1658775271	-0.641180189	 0.075711
55.4523	197.2899	217.8655	334.2039	374.1018	400.7555	496.7122	525.2106	639.0321	702.554	732.8358	774.3901	800.6218	823.629	856.8189	863.2446	927.8265	961.2193	984.0821	986.2097	1002.2297	1043.0722	1050.723	1080.1744	1086.0923	1127.392	1143.0798	1180.1921	1210.8676	1243.9594	1271.6719	1290.6566	1307.209	1319.0762	1327.3516	1366.6307	1380.6244	1436.3914	1484.0768	1684.7179	1688.7035	3014.4046	3029.199	3037.1468	3045.1691	3054.2959	3171.0621	3179.0375	3201.0107	3209.8264	3788.1167
OC1C=CC2CC=CC12	O[C@H]1C=C[C@H]2CC=C[C@@H]12	
InChI=1S/C8H10O/c9-8-5-4-6-2-1-3-7(6)8/h1,3-9H,2H2	InChI=1S/C8H10O/c9-8-5-4-6-2-1-3-7(6)8/h1,3-9H,2H2/t6-,7-,8+/m1/s1
