18
gdb 37632	2.84673	2.20785	1.99877	1.0387	71.81	-0.2354	0.0832	0.3186	804.0958	0.15261	-401.917729	-401.912036	-401.911092	-401.947397	25.062	
C	-0.0252106361	 1.5676025668	-0.0496834403	-0.233095
C	 1.4731603522	 1.8477724114	-0.026655153	-0.008597
C	 2.1685302816	 0.9962241716	 1.095651762	-0.07617
C	 1.2069208992	 0.3731048071	 2.1067983359	-0.091829
O	 0.1832507769	-0.3638494209	 1.4347162827	-0.278266
C	 0.0334793379	 0.0311385295	 0.0672112313	 0.084609
C	 1.2976930756	-0.2928995126	-0.7427388381	-0.05296
C	 2.5565650765	 0.0464994727	-0.0318659861	-0.032954
N	 2.0398681525	 0.9472071045	-1.1163217959	-0.156713
H	-0.5932699059	 2.0216796894	 0.766673758	 0.108654
H	-0.4533601982	 1.8845311292	-1.0061970618	 0.112052
H	 1.7876999191	 2.8856149443	-0.127770666	 0.078236
H	 3.0053497867	 1.5016334131	 1.5786772969	 0.080384
H	 1.7298118912	-0.3270940333	 2.7693303779	 0.106663
H	 0.7576244226	 1.1539661621	 2.7403694137	 0.091587
H	-0.8539876319	-0.4901135987	-0.2921688163	 0.081752
H	 1.2977994617	-1.0743349015	-1.4929382943	 0.09437
H	 3.4765312183	-0.5206515646	-0.1313562565	 0.092277
245.2888	356.9696	405.2458	483.5288	547.0159	651.2371	657.0593	763.7306	781.3869	800.6587	826.1726	842.0143	876.1624	909.1254	927.5772	941.4529	988.1901	1002.832	1015.5962	1044.6694	1060.7429	1064.5461	1090.3569	1093.1276	1167.2507	1180.044	1191.2748	1239.3604	1253.8355	1279.0297	1288.8302	1311.0228	1326.5677	1331.6738	1369.9819	1390.1801	1407.6267	1477.1237	1521.2491	2977.4147	3045.033	3053.4844	3106.165	3109.3317	3113.3991	3124.0614	3159.4274	3189.8309
C1C2C3COC1C1C3N21	C1[C@H]2[C@H]3CO[C@@H]1[C@@H]1[C@H]3N21	
InChI=1S/C7H9NO/c1-4-3-2-9-5(1)7-6(3)8(4)7/h3-7H,1-2H2	InChI=1S/C7H9NO/c1-4-3-2-9-5(1)7-6(3)8(4)7/h3-7H,1-2H2/t3-,4+,5+,6+,7-,8?/m1/s1
