20
gdb 26183	3.82292	0.95297	0.91612	2.7191	83.02	-0.1779	0.0428	0.2207	1393.5846	0.171875	-399.379662	-399.370036	-399.369092	-399.415021	35.85	
C	-0.0103039249	 1.5746517331	 0.2603215606	-0.387476
C	-0.0669316603	 0.0571210743	 0.0035987005	-0.073045
C	 0.8144933351	-0.7111795833	 1.0056701202	-0.387926
C	-1.4780583748	-0.4553277367	-0.0124437353	 0.346113
N	-2.0825715787	-0.9978256558	-1.05458287	-0.353604
C	-3.3509735286	-1.3198457761	-0.6363238565	 0.281132
N	-4.2690367464	-1.8596228557	-1.5440112205	-0.599012
C	-3.5268450624	-0.9727607656	 0.6805818328	-0.193174
N	-2.3099665227	-0.420170879	 1.062046683	-0.279602
H	 1.0204606886	 1.9383533461	 0.1967634508	 0.114218
H	-0.613241046	 2.1205123543	-0.470522946	 0.129916
H	-0.3861280281	 1.8253573712	 1.2594645367	 0.101375
H	 0.3101306815	-0.1356002442	-1.0056198021	 0.106244
H	 0.4752565598	-0.5578484091	 2.0371196173	 0.101028
H	 0.7968545743	-1.7858698171	 0.8040598737	 0.127017
H	 1.8525058354	-0.3677281906	 0.9486375397	 0.115001
H	-3.783295222	-2.2703035856	-2.3312719001	 0.245686
H	-4.8930846578	-2.5384224867	-1.128742498	 0.237885
H	-4.3604798492	-1.0493751971	 1.3570491586	 0.110543
H	-2.090181513	-0.0631718365	 1.9757712547	 0.257681
14.931	127.7845	183.3417	210.3768	229.791	258.1288	289.6912	292.9826	383.0827	392.613	497.5084	504.8466	627.5115	633.3977	672.8193	716.7431	750.6598	790.2067	886.2151	931.057	962.3162	1002.7857	1022.3827	1064.9844	1102.1741	1117.2909	1120.2191	1187.7377	1278.0296	1319.8424	1326.865	1343.6749	1398.1044	1411.0776	1425.1133	1484.3163	1484.369	1492.2663	1501.9141	1505.8967	1563.4446	1624.8936	1649.2127	3025.597	3029.2801	3062.8244	3088.1483	3098.9333	3113.1706	3115.6101	3278.495	3540.4931	3635.77	3673.5336
CC(C)C1=NC(N)=CN1	CC(C)c1nc(N)c[nH]1	
InChI=1S/C6H11N3/c1-4(2)6-8-3-5(7)9-6/h3-4H,7H2,1-2H3,(H,8,9)	InChI=1S/C6H11N3/c1-4(2)6-8-3-5(7)9-6/h3-4H,7H2,1-2H3,(H,8,9)
