18
gdb 66600	3.03914	2.0095	1.87639	2.0585	80.04	-0.2035	-0.084	0.1195	849.1182	0.14818	-364.655087	-364.648433	-364.647489	-364.685483	28.313	
C	-0.0185195713	 1.5762947774	-0.2548541037	-0.505629
C	 0.0448277868	 0.094809783	-0.0372486702	 0.336264
C	 0.5843744152	-0.888447004	-1.0062337096	-0.077728
C	 0.7570126115	-2.1278152875	-0.1118319813	-0.069913
C	 1.391854014	-1.5246925026	 1.2306259566	-0.250858
C	 0.2026848572	-0.5296983126	 1.3651246671	-0.085025
C	-0.8160960537	-1.4475630353	 1.5062186595	-0.076184
C	-0.8860564898	-1.9580803866	 0.0999794264	-0.033098
N	-0.8973491338	-0.7724670737	-0.8213132241	-0.182984
H	 0.9124235497	 2.0569398769	 0.0649231575	 0.11832
H	-0.1811292256	 1.8028530107	-1.3128310472	 0.124933
H	-0.8405084006	 2.016724065	 0.3188534118	 0.126749
H	 1.0806862735	-0.6628930312	-1.9444137547	 0.089454
H	 1.1959795023	-3.0252146754	-0.5546835323	 0.074318
H	 1.4727273765	-2.2469941224	 2.0453042729	 0.11121
H	 2.3714038965	-1.0748618526	 1.0332413802	 0.106086
H	-0.8222656932	-2.1611048818	 2.329137879	 0.110495
H	-1.5505683352	-2.7706444974	-0.190853618	 0.08359
189.7086	231.9633	271.0064	419.7471	430.6838	546.1047	573.361	609.4032	668.0687	698.6083	708.7573	769.5226	794.6955	833.5092	883.4058	906.9272	929.4233	955.9178	966.2003	990.222	1004.0221	1024.1781	1056.0468	1086.9347	1098.4255	1130.6121	1183.1064	1202.5566	1212.3109	1224.8099	1258.0096	1270.3469	1294.6492	1382.878	1418.89	1450.5821	1481.3001	1485.3308	1494.332	3032.4388	3040.6195	3089.8068	3098.2891	3111.5639	3115.84	3121.6469	3133.3988	3163.3726
CC12C3C4CC1=CC4N23	C[C@@]12[C@H]3[C@H]4C[C]1[CH][C@H]4N23	
InChI=1S/C8H9N/c1-8-4-2-5-6(3-4)9(8)7(5)8/h3,5-7H,2H2,1H3	InChI=1S/C8H9N/c1-8-4-2-5-6(3-4)9(8)7(5)8/h3,5-7H,2H2,1H3/t5-,6+,7+,8-,9?/m0/s1
