20
gdb 87010	5.47246	0.62061	0.59258	3.788	79.19	-0.2586	0.0238	0.2824	1862.0819	0.169838	-440.264694	-440.254898	-440.253954	-440.301436	34.591	
O	-0.2199261763	 1.4739348179	 0.0078843343	-0.428927
C	-0.0788902131	 0.0740444234	 0.0084120883	 0.145848
C	 0.2974553976	-0.645592561	 1.3366636341	-0.294173
C	-0.788746445	-1.7059755013	 1.0024440566	 0.019298
C	-1.6372997954	-2.2223541235	 2.1414991377	-0.091894
O	-2.6309828431	-3.0941082474	 1.592537196	-0.185804
C	-3.605114746	-3.4965552699	 2.4279715936	 0.132626
N	-4.471602661	-4.3283288962	 2.0386743371	-0.438679
C	-1.416703381	-0.6911681346	 0.0069768672	-0.240533
H	 0.6564679047	 1.8693395987	-0.0358601917	 0.28247
H	 0.5700698034	-0.2625283061	-0.8127756543	 0.069464
H	 1.3263938001	-0.9848880459	 1.478816955	 0.096566
H	-0.0001872136	-0.0221922073	 2.1864804213	 0.104388
H	-0.3564573718	-2.5576456799	 0.4688378365	 0.088986
H	-1.0213137988	-2.7726122446	 2.8673605963	 0.107055
H	-2.1205277832	-1.38699507	 2.6682017847	 0.102285
H	-3.5527939114	-3.0297248724	 3.4223254105	 0.081312
H	-5.1376210564	-4.5089123389	 2.7869393817	 0.227408
H	-2.1854682041	-0.0835244959	 0.4948309463	 0.111063
H	-1.8027293656	-1.0626732751	-0.9430806412	 0.111243
22.6839	58.9685	80.7958	130.751	149.6817	269.3564	302.4978	321.2868	389.6771	417.1531	466.868	620.3993	634.2846	803.2885	812.581	822.3782	902.2519	945.7768	956.8723	993.6744	1025.4165	1045.1315	1064.5597	1092.9019	1121.6954	1136.8391	1181.0877	1202.3284	1220.9148	1250.2151	1262.4994	1268.6472	1292.4577	1302.1487	1327.8733	1364.6383	1408.8784	1430.0462	1437.5824	1470.84	1498.4819	1512.4446	1748.6707	2987.6945	2995.7012	3014.6883	3031.1526	3048.4999	3061.3772	3070.0082	3110.5952	3129.6432	3516.9502	3816.5576
OC1CC(COC=N)C1	O[C@H]1C[C@@H](CO[CH][NH])C1	
InChI=1S/C6H11NO2/c7-4-9-3-5-1-6(8)2-5/h4-8H,1-3H2	InChI=1S/C6H11NO2/c7-4-9-3-5-1-6(8)2-5/h4-8H,1-3H2/t5-,6+
