19
gdb 107022	2.9391	1.312	1.09233	2.2049	70.74	-0.2484	0.0668	0.3153	1167.136	0.157802	-460.125567	-460.11654	-460.115596	-460.159334	34.004	
C	-0.2892509524	 1.5148874622	-0.2001994279	-0.37928
C	 0.0205202049	 0.0265439686	 0.019766194	-0.31641
C	 0.8965755924	-0.5284582485	-1.0580793256	 0.41776
O	 0.2919908612	-0.7742978852	-2.3521273914	-0.31324
C	 0.9773827529	-1.8586863058	-1.7017453138	-0.111297
C	 2.4455862485	-1.6488354752	-2.1032959904	 0.067373
O	 2.6595223031	-1.4732744595	-3.484960979	-0.441543
C	 2.4025637739	-0.288803449	-1.3004633083	 0.044171
O	 2.8147650087	 0.8477494393	-1.9956961103	-0.437383
H	 0.6309556496	 2.1037353395	-0.2565074906	 0.138925
H	-0.8344628769	 1.658502201	-1.1373897348	 0.133423
H	-0.9009654461	 1.9089831013	 0.6162190618	 0.112713
H	 0.5266573414	-0.1134224162	 0.9831737826	 0.106777
H	-0.9087008674	-0.5530096153	 0.0577318284	 0.110267
H	 0.4178096575	-2.7713520883	-1.5297226373	 0.108801
H	 3.1651258404	-2.3799789231	-1.7329654577	 0.093861
H	 1.8235796896	-1.1189308529	-3.8240196617	 0.298218
H	 2.9480071503	-0.3701292486	-0.3509619717	 0.08032
H	 3.0021203584	 0.5463097558	-2.8968341764	 0.286543
74.5598	105.8178	163.979	193.1892	249.8335	280.8203	319.0051	354.3523	372.968	507.1332	607.4398	624.8214	668.2478	711.2166	760.1166	783.7481	831.9159	871.7067	929.4534	943.4345	969.4413	1023.7019	1061.2563	1098.9891	1104.628	1145.1164	1167.1161	1208.8988	1238.1456	1252.277	1287.1735	1309.5046	1342.5217	1362.6772	1408.0552	1411.912	1432.6845	1462.0355	1474.1483	1495.7995	1509.2572	3022.3006	3030.5512	3044.6311	3070.3926	3112.2723	3118.0658	3121.1765	3183.6476	3716.1675	3728.9579
CCC12OC1C(O)C2O	CC[C@]12O[C@H]1[C@@H](O)[C@H]2O	
InChI=1S/C6H10O3/c1-2-6-4(8)3(7)5(6)9-6/h3-5,7-8H,2H2,1H3	InChI=1S/C6H10O3/c1-2-6-4(8)3(7)5(6)9-6/h3-5,7-8H,2H2,1H3/t3-,4+,5-,6+/m0/s1
