18
gdb 27166	2.96692	1.32858	0.99099	1.5341	81.3	-0.1793	0.028	0.2073	1206.5153	0.14881	-401.958319	-401.94991	-401.948966	-401.99209	31.768	
N	 0.094026256	 1.4204655698	-0.4558108651	-0.611679
C	 0.0329550294	 0.0622416065	-0.0914356483	 0.090573
C	-1.073394959	-0.6997911253	 0.1666928486	 0.343974
O	-0.6888668822	-1.9996891365	 0.3992700442	-0.199249
C	 0.6615237638	-2.0480201547	 0.2920158051	-0.023141
C	 1.1617712214	-0.8239273065	-0.0092058711	-0.222916
C	-2.5085977986	-0.399548244	 0.2223571992	-0.113747
C	-3.5431997372	-1.3967517952	-0.263498079	-0.261789
C	-3.4248688428	-1.1011034845	 1.2068376097	-0.264665
H	 0.8980454438	 1.8849401055	-0.0516210702	 0.242111
H	-0.737715483	 1.9317377708	-0.1883533903	 0.239639
H	 1.1128364502	-3.0125442918	 0.4558977538	 0.127831
H	 2.199054264	-0.5685354599	-0.1632853611	 0.10217
H	-2.7329009123	 0.6441566656	 0.0248054015	 0.07857
H	-4.4026510281	-1.015816754	-0.8040575321	 0.11103
H	-3.1716450852	-2.3522379418	-0.6150234753	 0.12631
H	-2.9751572343	-1.8595777509	 1.8370546691	 0.125223
H	-4.2028320058	-0.515481983	 1.6843440611	 0.109755
36.5979	132.045	158.6299	171.8081	284.3861	293.9712	414.3336	490.3538	596.9556	621.3329	680.5553	707.9698	728.2171	780.3008	794.0864	806.9852	809.14	892.8245	901.506	924.5585	1030.9412	1053.0172	1062.8321	1078.3164	1080.0907	1116.3474	1177.4057	1202.3433	1205.6359	1217.9046	1277.2066	1316.9157	1392.0131	1461.6836	1475.9205	1494.2045	1556.2706	1650.6747	1688.7313	3135.5171	3139.0064	3153.5973	3219.9208	3235.2968	3247.6813	3282.1032	3527.446	3614.4885
NC1=C(OC=C1)C1CC1	Nc1c(occ1)C1CC1	
InChI=1S/C7H9NO/c8-6-3-4-9-7(6)5-1-2-5/h3-5H,1-2,8H2	InChI=1S/C7H9NO/c8-6-3-4-9-7(6)5-1-2-5/h3-5H,1-2,8H2
