19
gdb 37472	2.94048	1.72293	1.41145	0.3472	74.08	-0.2306	0.0834	0.314	974.1185	0.161924	-422.984686	-422.977647	-422.976703	-423.016092	28.553	
C	-0.0650046753	 1.4054254507	 0.013065312	-0.288916
C	 1.3071021667	 0.7944646936	 0.0576787948	-0.094991
C	 0.0386390804	-0.0877409021	 0.0845148024	-0.054853
C	 0.3663333047	-0.6431290876	-1.3011902099	 0.038547
O	-0.532189315	-0.227175278	-2.3146615637	-0.262099
C	 0.1477571901	 0.0931187951	-3.5203960071	-0.08389
C	 1.130800762	 1.2313194756	-3.2931040083	-0.080438
O	 2.1534276877	 0.8699968342	-2.374247892	-0.277341
C	 1.7303477753	 0.1268534689	-1.2496977497	 0.122831
H	-0.3660608495	 1.8894545806	 0.9367441908	 0.11342
H	-0.4575164496	 1.8723582006	-0.8820868668	 0.121697
H	 1.9878242051	 1.0061840632	 0.8737460639	 0.087353
H	-0.3633857375	-0.6670399426	 0.905021095	 0.08961
H	 0.4901004227	-1.7332169023	-1.3374401338	 0.07154
H	 0.6796299565	-0.7864595974	-3.91869031	 0.093366
H	-0.6202491067	 0.388473369	-4.2415385271	 0.109749
H	 1.6398880504	 1.4880447442	-4.2282852403	 0.106153
H	 0.5837211955	 2.1216534573	-2.948248205	 0.100065
H	 2.5389084865	-0.580482493	-1.0411031652	 0.088196
109.5317	155.422	281.3598	332.3857	417.6863	447.4287	517.0782	561.5321	621.6655	758.9266	775.237	804.5775	822.3043	887.0951	914.2418	925.2097	983.9727	994.5897	1017.8103	1052.1523	1059.8818	1068.7144	1084.4015	1093.0689	1123.2235	1145.1655	1157.3347	1191.7523	1243.2737	1262.7284	1278.8123	1306.3013	1318.5128	1355.1177	1369.3532	1386.6595	1404.6482	1419.5461	1487.0533	1491.6342	1505.0015	2975.0068	2995.1087	3013.0685	3059.0683	3072.3504	3087.4484	3138.277	3179.2449	3202.0013	3222.6149
C1C2C1C1OCCOC21	C1[C@H]2[C@@H]1[C@H]1OCCO[C@@H]21	
InChI=1S/C7H10O2/c1-2-9-7-5-3-4(5)6(7)8-1/h4-7H,1-3H2	InChI=1S/C7H10O2/c1-2-9-7-5-3-4(5)6(7)8-1/h4-7H,1-3H2/t4-,5+,6-,7+
