18
gdb 65254	3.21638	1.3565	1.10759	2.1597	71.6	-0.2502	0.0197	0.2699	1115.2785	0.148015	-439.078251	-439.070049	-439.069105	-439.111479	30.517	
C	-0.0151302019	 1.5537338313	-0.236616079	-0.453577
C	-0.034202343	 0.0580268073	-0.0190018878	 0.403229
C	 1.1445518705	-0.7459260196	-0.3691918061	-0.239426
O	 0.856331405	-0.4263075244	 0.9963160386	-0.262737
C	-1.42129261	-0.5857501286	-0.0401742786	-0.062493
C	-1.4745146001	-2.0508078435	 0.4697993585	-0.131444
O	-2.4639431498	-2.0215608628	 1.5286627791	-0.220254
C	-2.8350676699	-0.7285783829	 1.635217824	 0.1287
N	-2.3549171731	 0.1408412207	 0.8493715144	-0.275433
H	 1.0097317517	 1.93010422	-0.1952055724	 0.120358
H	-0.4429347387	 1.8055070243	-1.2131134582	 0.118783
H	-0.6141774047	 2.0523601958	 0.5280696854	 0.153292
H	 1.0410692903	-1.7978630288	-0.6356823235	 0.108981
H	 2.0211655509	-0.2542423065	-0.7885188086	 0.117337
H	-1.7984930896	-0.5024660811	-1.0677142371	 0.093754
H	-1.8068033421	-2.7681599302	-0.2829414609	 0.118137
H	-0.5288512985	-2.3728537345	 0.910209293	 0.13869
H	-3.556664817	-0.5335720567	 2.4210555193	 0.144102
73.3645	83.6846	189.4508	219.5477	273.9836	343.0697	374.2948	441.3306	470.4472	540.7949	721.869	751.1137	838.5122	877.3639	889.0955	923.5083	965.6444	966.3946	996.5704	1012.5705	1017.8406	1072.8011	1111.1249	1136.1002	1143.6906	1171.0139	1243.4256	1251.6433	1291.2115	1318.4701	1361.7735	1385.7652	1396.4895	1415.1644	1477.6474	1497.8527	1505.2827	1536.2723	1708.688	3017.9694	3044.8518	3073.3141	3078.6118	3114.7969	3129.4766	3140.6565	3161.7711	3214.7115
CC1(CO1)C1COC=N1	C[C@]1(CO1)[C@H]1COC=N1	
InChI=1S/C6H9NO2/c1-6(3-9-6)5-2-8-4-7-5/h4-5H,2-3H2,1H3	InChI=1S/C6H9NO2/c1-6(3-9-6)5-2-8-4-7-5/h4-5H,2-3H2,1H3/t5-,6+/m1/s1
