13
gdb 128626	3.0432	1.44366	0.98525	2.533	63.38	-0.2645	-0.0753	0.1892	1105.9999	0.088791	-489.879726	-489.87204	-489.871095	-489.912541	27.012	
C	-0.0412404339	 1.4079548675	 0.0566491868	-0.234023
O	 0.0220535647	-0.0284970278	-0.0359147463	-0.225364
C	 0.6266359303	-0.5231410158	-1.09435861	 0.555724
N	 1.1475512009	 0.1998102481	-2.0212596707	-0.441814
C	 1.7531069356	-0.4675975411	-3.0789110124	 0.371085
O	 2.2805872528	 0.0849024481	-4.0162644876	-0.330912
C	 1.708080344	-1.9524213216	-2.9806269921	-0.044336
N	 1.1756136845	-2.6253407544	-2.0339688296	-0.044697
O	 0.5863606812	-1.8659258808	-1.0059192122	-0.241649
H	 0.9648958787	 1.8301919674	 0.0819473345	 0.158863
H	-0.5826029887	 1.8186879746	-0.7974290014	 0.158888
H	-0.5714704272	 1.605101318	 0.9871873527	 0.150024
H	 2.160778087	-2.5443401422	-3.7704800716	 0.16821
90.1982	136.1682	145.5771	217.2351	220.4238	398.0171	449.2242	488.986	549.3724	621.6553	731.7047	751.3446	784.7632	884.1583	952.1419	970.2127	1009.7351	1072.2144	1180.7556	1203.691	1268.6234	1325.928	1362.5756	1476.7124	1480.7814	1494.6533	1632.879	1678.6701	1808.0783	3065.9449	3150.2505	3176.7408	3195.4355
COC1=NC(=O)C=NO1	COc1nc(=O)cno1	
InChI=1S/C4H4N2O3/c1-8-4-6-3(7)2-5-9-4/h2H,1H3	InChI=1S/C4H4N2O3/c1-8-4-6-3(7)2-5-9-4/h2H,1H3
