21
gdb 107684	3.18082	1.2316	1.03302	1.9848	77.56	-0.2552	0.0777	0.3329	1224.2187	0.18412	-424.229631	-424.221112	-424.220168	-424.262829	33.196	
O	 0.0662404733	 1.2942594455	-0.5625665447	-0.41781
C	 0.0635016642	 0.0650028351	 0.1452742378	-0.129769
C	-1.3366910548	-0.5044784581	 0.2427996972	 0.35332
C	-2.3388593529	 0.2947049956	 1.0538859876	-0.261079
C	-3.7266377054	-0.3580904513	 1.0760828647	-0.208945
C	-3.6248758367	-1.8239082991	 1.5149825316	-0.196679
C	-2.78923916	-2.6664341362	 0.5344366775	-0.226689
C	-1.5702591326	-1.9391430629	-0.0067078382	-0.004433
O	-1.8237952985	-0.964958359	-1.0360459201	-0.304484
H	-0.3238680763	 1.1085448398	-1.4249488366	 0.292779
H	 0.7252638208	-0.6731235227	-0.332231154	 0.088002
H	 0.4624988949	 0.2829238531	 1.1419109447	 0.107541
H	-1.9529843316	 0.3821986358	 2.0790541293	 0.098004
H	-2.3812070229	 1.3120351838	 0.6505160457	 0.11394
H	-4.381112034	 0.1971011029	 1.7559612478	 0.093061
H	-4.1730196502	-0.2984993801	 0.0774675593	 0.112261
H	-3.1601866193	-1.8602869617	 2.5094719322	 0.094725
H	-4.6205159142	-2.2668873613	 1.6225018768	 0.095666
H	-2.46433963	-3.5942443123	 1.0184130675	 0.099325
H	-3.3994612463	-2.9642629874	-0.3271722992	 0.116904
H	-0.7030468275	-2.5660535197	-0.220322087	 0.084362
69.5921	119.2505	176.0406	260.2753	309.3872	324.1881	387.7099	399.3533	445.3843	496.0916	556.604	642.6997	701.3606	786.8316	828.3452	861.6011	883.4089	909.6671	931.8807	980.2144	1003.7315	1047.3748	1053.5685	1083.9835	1102.2229	1115.0173	1184.5046	1192.5052	1209.9735	1252.6088	1276.2934	1301.8082	1323.6054	1366.2346	1371.3134	1378.2674	1388.3907	1399.871	1425.3215	1463.6561	1478.3867	1487.4679	1492.1793	1492.6653	1499.3131	2990.9213	3016.392	3018.3915	3030.3904	3041.509	3065.2103	3072.5527	3073.9665	3075.2624	3087.1673	3094.54	3792.8827
OCC12CCCCC1O2	OC[C@]12CCCC[C@H]1O2	
InChI=1S/C7H12O2/c8-5-7-4-2-1-3-6(7)9-7/h6,8H,1-5H2	InChI=1S/C7H12O2/c8-5-7-4-2-1-3-6(7)9-7/h6,8H,1-5H2/t6-,7-/m1/s1
