24
gdb 6106	3.93372	0.90053	0.87221	0.9132	82.96	-0.2464	0.0858	0.3322	1511.0854	0.220197	-351.418315	-351.407434	-351.40649	-351.454751	38.956	
C	 0.1161675422	 1.4732763171	-0.2404109581	-0.378627
C	-0.0317708725	-0.0290349169	 0.0303406417	 0.026423
C	 0.6795462843	-0.443602017	 1.3238201562	-0.392975
C	-1.504008028	-0.4401390206	 0.0796438584	-0.046256
O	-2.1008978757	-0.1549443144	-1.1681504248	-0.26219
C	-3.4364097874	-0.6162763437	-1.332729499	 0.162637
C	-4.4414727463	 0.2365280494	-0.5514349566	-0.392355
C	-3.7149430669	-0.5962327254	-2.8321940301	-0.386971
H	 1.1697003282	 1.7517885261	-0.3467841482	 0.104884
H	-0.4120648298	 1.7554458053	-1.1537725041	 0.129272
H	-0.3010206372	 2.0606355832	 0.587156675	 0.104617
H	 0.4202571208	-0.5754063421	-0.8082498091	 0.079411
H	 0.245356645	 0.0641125679	 2.1935708136	 0.11199
H	 0.6084512637	-1.5228595324	 1.4971549498	 0.109681
H	 1.7412109705	-0.1802325538	 1.2862798727	 0.113468
H	-1.589024424	-1.518108871	 0.3012849106	 0.076793
H	-2.0084954484	 0.099749985	 0.8988854097	 0.080795
H	-3.49757998	-1.657294607	-0.9702850008	 0.06043
H	-4.3888184968	 1.279156951	-0.8816081776	 0.120627
H	-5.4605021669	-0.1277002463	-0.7168800631	 0.112492
H	-4.2504210215	 0.2071380151	 0.52487089	 0.11564
H	-2.9843369259	-1.211310565	-3.3639545333	 0.11901
H	-4.7177936433	-0.9774294406	-3.0465369591	 0.109954
H	-3.644198994	 0.426694156	-3.2157709037	 0.121251
30.0979	66.2244	128.3238	145.5167	206.4307	212.8736	239.4173	249.8785	274.3137	313.6066	365.7594	406.1473	435.3333	475.5038	519.0813	816.0022	850.1812	917.7638	924.1036	929.7794	939.2104	945.9619	966.9862	977.3387	1111.3617	1141.826	1155.3465	1177.5846	1189.1686	1196.5277	1206.4984	1276.6008	1327.2597	1365.0107	1369.5981	1375.4566	1394.1277	1396.932	1410.7667	1412.3316	1439.1546	1480.4402	1485.0468	1488.8132	1489.8507	1494.6728	1501.6773	1508.4016	1512.8902	1521.825	2944.129	2952.7233	2975.9466	3020.1815	3023.548	3029.6007	3036.5561	3042.2091	3086.7732	3092.4383	3101.1007	3106.7813	3113.1464	3115.8342	3122.0035	3127.3139
CC(C)COC(C)C	CC(C)COC(C)C	
InChI=1S/C7H16O/c1-6(2)5-8-7(3)4/h6-7H,5H2,1-4H3	InChI=1S/C7H16O/c1-6(2)5-8-7(3)4/h6-7H,5H2,1-4H3
