17
gdb 17407	4.52254	1.5211	1.49635	1.284	68.55	-0.2331	0.0718	0.3048	921.1906	0.141776	-363.794681	-363.787396	-363.786452	-363.826035	28.105	
C	-0.0788928687	 1.5156373739	-0.0585123475	-0.415425
C	-0.0402727035	 0.0171744078	 0.083806749	-0.021188
O	 1.2561362121	-0.6136604256	-0.042604589	-0.306028
C	 0.5999631518	-0.656275426	 1.210872965	 0.481956
C	 1.276008526	-0.126163451	 2.5000684824	-0.318055
C	 0.9040976608	-1.4645827242	 3.1608551297	-0.042513
N	-0.5712720832	-1.5710995311	 3.0757879472	-0.33631
C	 0.2690886917	-1.9636868706	 1.9082024915	-0.170858
H	 0.7302356817	 1.9827703468	 0.5086754952	 0.126386
H	 0.0244685013	 1.8082135629	-1.1087270416	 0.127308
H	-1.0340458607	 1.9064838009	 0.3084012189	 0.126404
H	-0.8338743388	-0.5229847764	-0.4357022931	 0.088398
H	 2.3510463907	-0.0083985401	 2.3439956507	 0.11938
H	 0.8573517711	 0.769132656	 2.9657957109	 0.110267
H	 1.462285371	-2.0039988682	 3.9151112393	 0.098283
H	-0.8378160351	-2.4370935628	 3.5452663026	 0.230355
H	 0.2231259418	-2.9560657123	 1.4777227789	 0.101639
114.7976	175.4222	190.5996	246.2803	386.2181	429.2695	449.5862	511.2554	574.9945	764.6822	794.9764	822.1423	836.6751	884.0102	915.4246	955.5981	962.6754	990.5149	1032.675	1057.4994	1087.2582	1102.8222	1128.3597	1132.2925	1170.2731	1192.6034	1216.6712	1293.3659	1315.9333	1340.6661	1374.7822	1409.1132	1461.1075	1478.1272	1490.6344	1534.4845	3036.6712	3065.4099	3091.249	3100.8398	3125.6885	3127.1469	3192.5053	3205.4178	3463.8739
CC1OC11CC2NC12	C[C@H]1O[C@]21C[C@H]1N[C@@H]21	
InChI=1S/C6H9NO/c1-3-6(8-3)2-4-5(6)7-4/h3-5,7H,2H2,1H3	InChI=1S/C6H9NO/c1-3-6(8-3)2-4-5(6)7-4/h3-5,7H,2H2,1H3/t3-,4-,5-,6+/m1/s1
