13
gdb 23912	2.9301	1.94909	1.65154	2.3378	46.77	-0.2884	0.0756	0.364	799.441	0.090405	-530.091226	-530.083646	-530.082702	-530.123438	27.271	
C	-0.0845312245	 1.5255034827	-0.1043541479	-0.482687
C	 0.0038080725	 0.0195030813	-0.0660508535	 0.243742
C	 0.8298464406	-0.7510210764	-1.0044620138	-0.221309
O	 1.2404788575	-0.5475372541	 0.3518678536	-0.259355
C	-1.2064204846	-0.6703510122	 0.5437096743	 0.258322
F	-2.3133162887	-0.3704867649	-0.1581208493	-0.079265
F	-1.0792588256	-1.9988453104	 0.5633428161	-0.06826
F	-1.4069198523	-0.2586599393	 1.8036686847	-0.075868
H	 0.8267482149	 1.938563222	-0.5408418033	 0.136307
H	-0.9437582527	 1.846735349	-0.6993377227	 0.141831
H	-0.1991756562	 1.9236044938	 0.9076171155	 0.147458
H	 0.5598646157	-1.77234749	-1.2593644174	 0.135809
H	 1.4042287233	-0.2092052516	-1.7537169763	 0.123275
61.2532	185.4645	218.0502	233.8167	318.6376	356.2758	393.5352	457.9932	527.565	583.6115	599.7674	747.3741	842.4034	901.1344	935.1381	1023.1478	1111.2869	1136.3926	1149.8903	1181.4824	1192.6218	1219.8695	1351.7292	1405.8396	1424.2085	1480.763	1501.0892	1527.2312	3054.2546	3099.2135	3126.0797	3141.6697	3194.5637
CC1(CO1)C(F)(F)F	C[C@]1(CO1)C(F)(F)F	
InChI=1S/C4H5F3O/c1-3(2-8-3)4(5,6)7/h2H2,1H3	InChI=1S/C4H5F3O/c1-3(2-8-3)4(5,6)7/h2H2,1H3/t3-/m0/s1
