18
gdb 91614	2.20973	2.0456	1.46923	5.0483	70.74	-0.2298	0.0331	0.2629	948.6172	0.150662	-439.129309	-439.121983	-439.121038	-439.16081	29.683	
O	-0.0412562116	 1.4275185023	-0.0386361121	-0.422947
C	 0.0101678125	 0.0174378398	 0.0249471996	 0.132111
C	 0.6356411421	-0.554002232	 1.3440336895	-0.254985
C	-0.5385407216	-1.3783718704	 1.9270393105	-0.00634
C	-1.1736028835	-1.9574302178	 0.6435774279	-0.224897
C	-1.4341289752	-0.5615889675	 0.0404808833	-0.161553
C	-2.1542539726	 0.1371909075	 1.208587363	 0.429023
O	-2.9782732626	 1.0174353014	 1.1856589689	-0.380497
N	-1.6130042413	-0.4668667765	 2.3333209385	-0.300321
H	 0.859899824	 1.7624792559	-0.074629548	 0.285305
H	 0.537900399	-0.3880003593	-0.8503857572	 0.073058
H	 1.5090322139	-1.1827015414	 1.1446820028	 0.098795
H	 0.9365776883	 0.2575657183	 2.0120021873	 0.101379
H	-0.2814757597	-2.0848179451	 2.7167284241	 0.078238
H	-0.4781320483	-2.5642261661	 0.0569677184	 0.10155
H	-2.0850874065	-2.5250836282	 0.8404197345	 0.116297
H	-1.963090511	-0.482429382	-0.9062806545	 0.089332
H	-1.6109840058	 0.0255887211	 3.2139627334	 0.246453
128.2395	155.121	272.9539	359.4505	410.5504	423.2499	466.8849	480.0215	517.5131	588.031	683.0111	750.611	805.922	837.692	854.5657	897.9573	934.7449	956.8362	965.4615	998.7525	1013.5931	1068.2582	1087.4638	1146.9549	1160.0793	1180.7723	1212.3237	1228.5198	1239.7383	1289.2035	1291.5926	1311.1212	1351.283	1358.8106	1403.0781	1421.1761	1477.4015	1502.793	1854.4273	2987.068	3051.5129	3064.8489	3104.9637	3111.6105	3125.5822	3152.8687	3624.2528	3824.0132
OC1CC2CC1C(=O)N2	O[C@H]1C[C@@H]2C[C@H]1C(=O)N2	
InChI=1S/C6H9NO2/c8-5-2-3-1-4(5)6(9)7-3/h3-5,8H,1-2H2,(H,7,9)	InChI=1S/C6H9NO2/c8-5-2-3-1-4(5)6(9)7-3/h3-5,8H,1-2H2,(H,7,9)/t3-,4+,5-/m0/s1
