15
gdb 123700	4.14707	1.60029	1.25858	3.3444	70.4	-0.2031	0.0194	0.2226	945.9406	0.116545	-416.789726	-416.783519	-416.782575	-416.820141	25.371	
C	-0.0081752683	 1.4801110429	 0.0992620119	-0.319345
C	 1.2927520659	 0.7393632864	 0.0158161898	 0.093247
O	 2.0198396969	 0.4517479449	 1.2043897187	-0.275593
C	 1.2049573079	-0.3791398664	 1.929169036	 0.267577
C	 0.0521901573	-0.7344483928	 1.275767286	 0.31458
N	-0.6068864504	-1.5711541537	 2.1113423094	-0.335781
N	 0.0712989616	-1.774052177	 3.2647789772	-0.226302
C	 1.1859952722	-1.0339711128	 3.16862575	-0.148398
C	-0.0346105831	-0.0435174202	-0.0227545809	-0.235997
H	-0.3088535578	 1.9182586826	 1.0440729853	 0.133725
H	-0.2827199564	 2.0495238369	-0.7824311092	 0.122188
H	 1.9454881825	 0.8622394987	-0.839131284	 0.113252
H	-1.4865405471	-2.0397602406	 1.9821704722	 0.27343
H	 1.898820625	-1.0275514565	 3.9777136751	 0.117763
H	-0.4164816661	-0.5192814922	-0.9185052177	 0.105655
151.6892	273.3187	379.0417	439.8604	446.178	472.6211	618.8894	678.5016	708.8594	722.9162	765.4898	784.7565	822.6143	857.4648	936.5052	964.0964	979.5736	1034.4868	1057.2781	1077.8446	1098.3855	1131.7719	1161.0102	1184.6391	1240.6813	1271.0909	1339.049	1363.814	1409.541	1462.5704	1465.5358	1572.6879	1604.9249	3134.7523	3174.3349	3196.7775	3228.6771	3263.0772	3681.9563
C1C2OC3=C(NN=C3)C12	C1[C@H]2Oc3c([nH]nc3)[C@@H]12	
InChI=1S/C6H6N2O/c1-3-4(1)9-5-2-7-8-6(3)5/h2-4H,1H2,(H,7,8)	InChI=1S/C6H6N2O/c1-3-4(1)9-5-2-7-8-6(3)5/h2-4H,1H2,(H,7,8)/t3-,4+/m0/s1
