15
gdb 49429	3.32658	1.57927	1.44053	1.4993	69.69	-0.2516	-0.0604	0.1913	923.0559	0.112514	-416.702878	-416.695943	-416.694999	-416.734712	26.186	
O	-0.7477167714	 1.0999578018	-0.397713065	-0.233443
C	 0.0915878703	 1.2478751129	 0.4503790643	 0.154884
C	 1.4139029965	 1.9311318138	 0.1918056454	-0.140727
C	 1.6273984144	 2.8800214109	-1.0400329449	-0.071821
C	 1.3198644057	 4.3859452417	-0.9063653753	-0.045686
C	 0.4674096942	 4.9865275957	 0.2197516296	-0.187657
N	 0.6260590925	 3.9420852309	 1.2695671526	-0.192138
C	 1.6377833188	 3.2689226843	 0.8838256045	 0.130159
N	 2.4803097409	 3.8062638749	-0.2279866338	-0.133255
H	-0.0460897286	 0.8734978604	 1.4872011404	 0.097048
H	 2.2449457689	 1.2155632871	 0.2271900954	 0.129428
H	 2.0055226486	 2.4997808423	-1.9864500012	 0.120955
H	 1.5244442676	 4.9701318579	-1.8011020978	 0.109433
H	 0.8449229987	 5.9823688057	 0.490618454	 0.126534
H	-0.6019954671	 5.0703211895	 0.0070675616	 0.136286
69.0494	144.4908	183.8179	323.4775	410.5092	491.5303	614.0142	677.4609	694.4614	742.103	776.8244	851.597	877.7879	892.4333	930.952	943.6213	998.1177	1007.702	1028.4818	1066.4027	1077.0758	1105.165	1146.3186	1153.2777	1204.7295	1276.7463	1314.0938	1335.402	1353.6514	1414.2653	1483.4523	1618.9256	1835.6699	2907.8486	3015.6465	3042.4127	3091.2479	3136.7941	3150.4268
O=CC1C2C3CN=C1N23	O=C[C@H]1[C@H]2[C@H]3C[N][C]1N23	
InChI=1S/C6H6N2O/c9-2-3-5-4-1-7-6(3)8(4)5/h2-5H,1H2	InChI=1S/C6H6N2O/c9-2-3-5-4-1-7-6(3)8(4)5/h2-5H,1H2/t3-,4+,5-,8?/m0/s1
