17
gdb 30237	4.52829	1.12137	0.94327	3.1901	77.48	-0.2169	0.0219	0.2389	1238.1855	0.136978	-418.010199	-418.001987	-418.001042	-418.043289	30.302	
C	-0.3457820294	 1.5114613472	 0.115985585	-0.485544
C	 0.0370209416	 0.0736805972	-0.0344344821	 0.269239
C	-0.0084758493	-0.6934301386	-1.1919253834	-0.249657
N	 0.5100666827	-1.9029993685	-0.8036832581	 0.02341
C	 0.7227301173	-3.3602711684	-0.9083496822	-0.211579
C	 1.0705464074	-3.3192417554	 0.6497662641	 0.009632
O	 2.3345591202	-3.7522417262	 1.0592835561	-0.415445
C	 0.7769970707	-1.8273205069	 0.5183501095	 0.285918
N	 0.5142545595	-0.6552459478	 1.0473976215	-0.409362
H	 0.5204358928	 2.1277606952	 0.3810548279	 0.132784
H	-0.7710790225	 1.9043491326	-0.8116158234	 0.115837
H	-1.0848800956	 1.6361936702	 0.9140802327	 0.135417
H	-0.3112884775	-0.454841884	-2.197370172	 0.130825
H	-0.1760789138	-3.9223818752	-1.1763114127	 0.132047
H	 1.5572380334	-3.6449989249	-1.5545255667	 0.125866
H	 0.3455901727	-3.8766000879	 1.2489080393	 0.120747
H	 2.9871987399	-3.1146437485	 0.7488543245	 0.289865
78.3846	114.0722	148.0719	229.5141	251.8204	322.3999	373.4991	452.9114	520.6804	598.9067	659.0676	710.1376	731.538	771.1348	842.6727	867.3919	973.6239	999.9164	1017.4644	1061.7603	1076.6081	1134.0227	1143.3912	1182.7092	1205.9019	1249.6658	1277.4746	1296.9873	1398.0852	1410.5193	1425.8641	1444.5788	1475.4419	1488.0905	1500.6825	1543.552	1569.8468	3034.3605	3055.6603	3084.9329	3089.7478	3115.8954	3116.8887	3277.4269	3803.1561
CC1=CN2CC(O)C2=N1	Cc1cn2C[C@@H](O)c2n1	
InChI=1S/C6H8N2O/c1-4-2-8-3-5(9)6(8)7-4/h2,5,9H,3H2,1H3	InChI=1S/C6H8N2O/c1-4-2-8-3-5(9)6(8)7-4/h2,5,9H,3H2,1H3/t5-/m1/s1
