17
gdb 127491	3.20707	1.21649	0.93011	1.5036	72.18	-0.2077	0.007	0.2147	1237.2048	0.137722	-451.351509	-451.342512	-451.341568	-451.385312	32.589	
C	 0.1937795357	 1.3659062454	 0.0334945637	-0.338898
N	 0.1076426631	-0.078500638	 0.0712468531	 0.006783
N	 0.1097155685	-0.7970848052	-1.0919193053	-0.334611
C	-0.0224477651	-2.0413349555	-0.6485079077	 0.385957
N	-0.1318856889	-3.1298808082	-1.4918207545	-0.585373
N	-0.0925306011	-2.169494126	 0.7058090888	-0.365617
C	-0.0161530611	-0.9111044879	 1.1232012423	 0.305759
C	-0.0586371079	-0.4833705822	 2.5595725557	-0.188744
O	 1.0419524324	 0.3365116169	 2.9410769074	-0.407111
H	 0.950575064	 1.6548419603	-0.6988062957	 0.150823
H	-0.7641724171	 1.8068222887	-0.261378742	 0.140786
H	 0.4851105213	 1.723163154	 1.0210485147	 0.165977
H	 0.2723448003	-2.9780758657	-2.404317979	 0.255291
H	 0.1740587477	-3.9915189514	-1.0643899717	 0.256144
H	-0.9500372147	 0.1208519018	 2.7596459315	 0.12936
H	-0.1294347975	-1.3938727439	 3.1662477017	 0.132318
H	 1.8472626004	-0.1724020131	 2.7973925768	 0.291153
73.9595	132.7664	161.1911	178.0234	243.7008	282.2989	314.474	334.9162	380.2128	414.4156	522.1805	615.3901	640.6613	665.2011	763.6742	785.8118	831.5771	971.6879	1031.8437	1059.2572	1073.3957	1131.796	1155.0448	1189.3552	1234.0689	1321.05	1356.8555	1414.4311	1425.0862	1453.3947	1488.0739	1491.0092	1498.9056	1521.0488	1556.5924	1586.1276	1647.9627	3037.2334	3044.7771	3081.5385	3116.9791	3165.1329	3572.7801	3678.9008	3808.1005
CN1N=C(N)N=C1CO	Cn1nc(N)nc1CO	
InChI=1S/C4H8N4O/c1-8-3(2-9)6-4(5)7-8/h9H,2H2,1H3,(H2,5,7)	InChI=1S/C4H8N4O/c1-8-3(2-9)6-4(5)7-8/h9H,2H2,1H3,(H2,5,7)
