16
gdb 33942	3.38483	1.42886	1.24486	2.8916	75.32	-0.2357	0.0226	0.2583	1021.6695	0.124452	-400.669609	-400.662335	-400.661391	-400.701079	29.186	
C	 0.0310198516	-1.2115265254	-0.0427656459	-0.374308
C	 0.0530662257	-0.0100227343	 0.022015966	 0.157138
C	 0.047472394	 1.4159834814	 0.1099518421	 0.184081
N	 0.2809384282	 2.2515826243	-1.1006164285	-0.35216
C	 1.2872795895	 2.2575837816	-0.0350955199	-0.099248
C	 1.2089740562	 3.4373585742	 0.9332450692	-0.251552
C	-0.1395386494	 3.3042654676	 1.6354883242	 0.034245
O	-1.2805696726	 3.4043970279	 0.7790768021	-0.227846
C	-0.8386252413	 2.1035318882	 1.1460519646	-0.04576
H	 0.0184378613	-2.2715900658	-0.1032272633	 0.192129
H	 0.5928806656	 1.6375491432	-1.851084032	 0.239159
H	 2.2490967191	 1.791052475	-0.2235773748	 0.103432
H	 2.0140474285	 3.3631038732	 1.6725152605	 0.109919
H	 1.3061692184	 4.3984665493	 0.4192222153	 0.130376
H	-0.2740581699	 3.7104330026	 2.635649665	 0.098718
H	-1.5236571151	 1.5017441667	 1.7353821256	 0.101676
136.3115	145.8197	265.9229	318.182	399.2608	474.0078	494.1771	524.376	583.6023	607.0976	668.494	702.2185	746.3076	805.398	852.773	863.3476	897.8429	916.9979	964.406	1006.7847	1036.8395	1054.4063	1072.5295	1112.6029	1163.2968	1210.5817	1245.747	1272.8198	1274.2512	1317.4002	1342.9323	1420.2197	1428.4512	1464.0284	2234.2002	3050.7437	3097.6249	3136.556	3160.8127	3166.9177	3489.6902	3502.0714
C#CC12NC1CC1OC21	C#C[C@]12N[C@H]1C[C@H]1O[C@@H]21	
InChI=1S/C7H7NO/c1-2-7-5(8-7)3-4-6(7)9-4/h1,4-6,8H,3H2	InChI=1S/C7H7NO/c1-2-7-5(8-7)3-4-6(7)9-4/h1,4-6,8H,3H2/t4-,5+,6-,7+/m1/s1
