23
gdb 101758	4.15429	0.54948	0.50376	1.1389	92.78	-0.2348	0.0671	0.302	2265.1224	0.201941	-388.26802	-388.256032	-388.255088	-388.307952	40.66	
C	-0.2108230951	 1.363974104	 0.0306808755	-0.233813
O	 0.0717219938	-0.0142016525	-0.0155924682	-0.244119
C	 0.7175617426	-0.5369090268	 1.1410629175	 0.139625
C	-0.2547533805	-0.6992545061	 2.3128093898	-0.406779
C	 1.3399232564	-1.8717734791	 0.7313053597	-0.17746
C	 2.3782227234	-1.7260832403	-0.3983336808	-0.362093
C	 2.975059021	-2.9977280822	-0.7910038845	 0.026646
C	 3.4505752708	-4.0610463193	-1.0971128569	 0.102828
C	 4.0327557994	-5.3405490833	-1.4778053408	-0.496865
H	 0.6943868109	 1.9585597332	 0.2324167923	 0.102115
H	-0.6031140733	 1.6449753993	-0.9501741199	 0.126616
H	-0.9643277715	 1.6193875854	 0.7899700355	 0.105988
H	 1.5247481085	 0.1566730312	 1.4387941656	 0.059447
H	-1.0680443256	-1.3785290679	 2.0384106731	 0.124148
H	 0.2623139618	-1.1114360452	 3.1850475461	 0.115876
H	-0.6930373472	 0.2575366669	 2.6104065916	 0.115054
H	 1.8112406813	-2.3298267473	 1.6073494363	 0.102397
H	 0.5424784896	-2.5491154822	 0.4054555722	 0.112893
H	 1.8914026977	-1.2533404988	-1.2581534431	 0.141295
H	 3.1676126915	-1.032662942	-0.0757815974	 0.115034
H	 5.117275704	-5.3497290737	-1.3203680681	 0.14337
H	 3.6086108633	-6.1630238623	-0.8907015912	 0.14357
H	 3.851662497	-5.564126251	-2.5352596746	 0.144228
14.453	42.5818	63.9176	89.5552	111.4193	176.3885	203.8652	210.1096	247.1993	271.0153	306.0972	362.6717	386.4282	457.4104	479.7403	548.4558	751.1006	776.5598	836.2533	923.3601	956.4587	1016.0314	1052.9133	1053.8956	1088.4783	1118.3121	1120.5865	1163.8425	1170.3388	1182.2572	1195.6224	1248.1857	1279.7545	1315.994	1356.5408	1382.4415	1396.0336	1404.3547	1415.7154	1471.4669	1478.0171	1479.7581	1480.2641	1482.4923	1487.5854	1493.7878	1503.6262	1513.0375	2373.1463	2938.1659	2974.5243	3009.2453	3022.8258	3022.9676	3038.0205	3044.8863	3064.4183	3081.6995	3081.9329	3090.8542	3107.6571	3110.717	3114.3721	14.4583	42.5823	63.9174	89.555	111.4201	176.3885	203.8659	210.1098	247.1996	271.0153	306.0971	362.6716	386.4273	457.4103	479.7402	548.4557	751.1006	776.5598	836.2533	923.3601	956.4585	1016.0313	1052.9133	1053.8956	1088.4781	1118.3119	1120.5862	1163.8422	1170.3386	1182.2573	1195.6222	1248.1854	1279.7539	1315.9933	1356.5399	1382.4404	1396.0332	1404.3545	1415.7155	1471.4663	1478.017	1479.7582	1480.2643	1482.4921	1487.5849	1493.7876	1503.6261	1513.0375	2373.1462	2938.1659	2974.5243	3009.2454	3022.8258	3022.9676	3038.0206	3044.8863	3064.4183	3081.6995	3081.9329	3090.8542	3107.6571	3110.7171	3114.3721
COC(C)CCC#CC	CO[C@@H](C)CCC#CC	
InChI=1S/C8H14O/c1-4-5-6-7-8(2)9-3/h8H,6-7H2,1-3H3	InChI=1S/C8H14O/c1-4-5-6-7-8(2)9-3/h8H,6-7H2,1-3H3/t8-/m0/s1
