16
gdb 17929	2.91695	2.38797	2.38294	0.8521	63.38	-0.2416	0.0629	0.3045	720.8017	0.131526	-383.685112	-383.678877	-383.677933	-383.714995	25.529	
O	-0.1020440939	 1.4380050183	 0.0517835023	-0.471332
C	 0.006674248	 0.0691262644	 0.0105225206	 0.356933
C	-1.2466613112	-0.8806958733	 0.0298074787	-0.087177
C	-0.7461876409	-1.5146051012	-1.2976765126	-0.236073
C	 0.6391057053	-0.8597322088	-1.0864749831	 0.020865
O	 1.4141601308	-1.5537841385	-0.0845615381	-0.300655
C	 0.7146240374	-0.916896336	 1.0069190582	 0.020878
C	-0.6531488387	-1.5850300746	 1.2812811161	-0.236072
H	 0.7832932226	 1.8202981846	 0.0292723031	 0.289644
H	-2.2732384083	-0.5207332299	 0.0766710486	 0.076599
H	-0.7647362862	-2.6035055191	-1.38924503	 0.102863
H	-1.252422417	-1.0654999099	-2.158460089	 0.10479
H	 1.2437787095	-0.5677756876	-1.9480394715	 0.075536
H	 1.3803445347	-0.6711728246	 1.8373326473	 0.075547
H	-1.0952175088	-1.184506319	 2.1994714573	 0.104794
H	-0.6671995331	-2.6773371248	 1.314456872	 0.102859
230.8749	259.2655	328.1393	372.9854	405.2378	429.4765	603.782	646.9792	701.4192	821.6472	841.9053	849.9007	929.271	932.6442	955.315	964.877	1012.3331	1020.2507	1052.9879	1104.7673	1116.1477	1117.1159	1147.7632	1185.5163	1198.0023	1246.2967	1266.4069	1274.7861	1314.8267	1330.6312	1335.6103	1403.0282	1461.0203	1476.3149	3047.9836	3048.5494	3082.6173	3087.7523	3108.406	3110.6252	3122.808	3786.9432
OC12C3CC1OC2C3	O[C@@]12[C@H]3C[C@@H]1O[C@@H]2C3	
InChI=1S/C6H8O2/c7-6-3-1-4(6)8-5(6)2-3/h3-5,7H,1-2H2	InChI=1S/C6H8O2/c7-6-3-1-4(6)8-5(6)2-3/h3-5,7H,1-2H2/t3-,4-,5+,6-
