18
gdb 106438	2.65077	1.38325	1.09309	4.8979	77.21	-0.2691	0.0266	0.2957	1149.8759	0.147783	-401.906241	-401.897928	-401.896984	-401.939511	31.114	
C	 0.0073062187	 1.3300592379	-0.0477218712	-0.267658
O	-0.0832953377	-0.0851438345	-0.0225219571	-0.286437
C	-1.3617264443	-0.5699908723	-0.003015864	 0.452817
C	-2.4486082288	-0.4497738121	 1.1191849824	-0.302235
C	-3.0478438321	-1.375355473	 0.0237008912	-0.05696
C	-2.5155609962	-0.3794824858	-1.0459587628	-0.31132
C	-1.6581778275	-2.1000632033	-0.0175206907	-0.198385
C	-1.3044393045	-2.8787089878	-1.1931858748	 0.269669
N	-1.0254416394	-3.5126531075	-2.1191023125	-0.337781
H	 1.0700044729	 1.5768023772	-0.0709917499	 0.139645
H	-0.4780461236	 1.7481886088	-0.939665636	 0.121637
H	-0.4461838817	 1.7792529482	 0.8463865128	 0.117169
H	-2.2143483472	-0.9077019695	 2.0832224549	 0.103475
H	-2.9296798284	 0.5232272175	 1.2340617674	 0.103381
H	-4.0150051359	-1.8691250505	 0.037047258	 0.103824
H	-3.0013637138	 0.5980514763	-1.0669278751	 0.100792
H	-2.3449468671	-0.7733562604	-2.049119113	 0.131319
H	-1.3789781734	-2.6355710792	 0.8932364802	 0.117048
66.9278	122.8386	176.265	183.2204	227.923	366.7092	390.9446	464.2865	509.5806	552.8027	629.0353	646.7808	781.7123	819.6562	882.9781	926.0222	947.4484	957.9394	1009.2314	1041.1131	1062.7913	1081.5597	1107.8585	1128.1651	1138.8672	1159.7044	1180.7625	1206.575	1212.1916	1222.4076	1240.9421	1311.2932	1376.341	1485.7945	1489.7735	1497.0972	1505.0533	1542.8853	2353.601	3000.4092	3056.65	3064.2521	3074.075	3086.4351	3134.0891	3135.4883	3144.428	3166.198
COC12CC(C1)C2C#N	CO[C@@]12C[C@@H](C1)[C@H]2C#N	
InChI=1S/C7H9NO/c1-9-7-2-5(3-7)6(7)4-8/h5-6H,2-3H2,1H3	InChI=1S/C7H9NO/c1-9-7-2-5(3-7)6(7)4-8/h5-6H,2-3H2,1H3/t5-,6-,7-/m1/s1
