19
gdb 35683	2.29714	1.50979	1.08516	1.9957	81.1	-0.244	0.0386	0.2826	1159.1424	0.158413	-385.821	-385.812371	-385.811427	-385.854787	32.459	
C	-0.4353886923	-0.9459288042	-0.7132669378	-0.442612
C	-0.2743744212	 0.1596234226	-0.2662186479	 0.30899
C	-0.0478301718	 1.4794090129	 0.2817351743	-0.232265
C	 0.1847035371	 1.6424091278	 1.818368643	-0.231439
C	 1.2524096068	 2.7202461377	 1.5013191243	-0.301171
C	 1.3308262103	 2.187703253	 0.0514965496	 0.288567
C	 2.5605452016	 1.3760468313	-0.4060555672	-0.127297
O	 2.7933914823	 2.2716063641	-1.5136149416	-0.274002
C	 1.6368000635	 3.0603596977	-1.1744072071	-0.139387
H	-0.5898455966	-1.9186627864	-1.1100206049	 0.197187
H	-0.8458931094	 2.1583907428	-0.0426913844	 0.103154
H	-0.6794561002	 1.9322570061	 2.4186073506	 0.108396
H	 0.6258263436	 0.7382520191	 2.2435884854	 0.118017
H	 0.8381869645	 3.7331223347	 1.535342264	 0.105756
H	 2.1772537643	 2.7034077005	 2.0829173949	 0.107441
H	 3.4043761225	 1.3633756287	 0.2963868912	 0.095204
H	 2.3486628444	 0.3540454668	-0.7419089394	 0.115604
H	 0.8749282501	 3.0394946059	-1.9660043929	 0.101424
H	 1.8961372005	 4.1055178989	-0.956507574	 0.098432
63.2132	83.3311	143.3643	180.4953	261.6854	347.4742	357.191	451.278	523.7813	549.8647	620.8598	631.0118	684.719	769.7199	853.4996	877.8753	891.0488	943.801	950.5417	971.9788	988.542	1040.3004	1067.3749	1093.5188	1144.8427	1151.0452	1161.1731	1181.741	1221.5421	1236.4791	1258.3064	1268.9736	1285.6916	1311.1112	1346.6067	1385.6755	1481.0721	1497.1745	1504.5166	1530.5628	2229.2734	2992.4523	3010.1032	3029.6228	3036.2881	3050.8916	3060.8082	3073.1728	3104.1006	3131.5158	3504.0258
C#CC1CCC11COC1	C#C[C@H]1CCC21COC2	
InChI=1S/C8H10O/c1-2-7-3-4-8(7)5-9-6-8/h1,7H,3-6H2	InChI=1S/C8H10O/c1-2-7-3-4-8(7)5-9-6-8/h1,7H,3-6H2/t7-/m0/s1
