21
gdb 55950	4.13289	0.87131	0.7833	2.4901	83.88	-0.2345	-0.0095	0.2249	1512.918	0.181488	-387.129878	-387.120406	-387.119462	-387.165589	34.415	
C	-0.0390990218	 1.5052511364	 0.1526399536	-0.472661
C	 0.1152767913	-0.0055727537	 0.1023229715	 0.384229
O	 1.2045665063	-0.5333481973	 0.1013580059	-0.29294
C	-1.1774807885	-0.8123462076	 0.0451773131	-0.332674
C	-0.9812121871	-2.3246383431	 0.1155594278	 0.052688
C	-0.4508225151	-2.8533362349	 1.4777438072	-0.2582
C	-1.131473121	-4.1934469685	 1.6174190602	-0.061391
C	-2.1157320149	-4.3512588407	 0.7343253207	-0.062342
C	-2.2754896559	-3.1411229936	-0.1550310431	-0.285538
H	 0.9407006833	 1.9809087655	 0.0966622273	 0.142011
H	-0.6738131378	 1.8598499665	-0.6667592321	 0.134738
H	-0.533482228	 1.7994532319	 1.0858134526	 0.139578
H	-1.842229058	-0.4628999455	 0.848437823	 0.1136
H	-1.6897243108	-0.5306844614	-0.8872234811	 0.118511
H	-0.2427041154	-2.6001773521	-0.6439281575	 0.092957
H	 0.6411629184	-2.9087427526	 1.493440151	 0.122522
H	-0.7349218626	-2.1895084708	 2.3096137091	 0.091475
H	-0.8541735956	-4.9129142196	 2.3803747247	 0.088501
H	-2.7657660368	-5.216682242	 0.6654025303	 0.088174
H	-3.1792677952	-2.5758441974	 0.1218523527	 0.096109
H	-2.3898439649	-3.3946318092	-1.2156172768	 0.100651
34.2583	69.1102	96.0823	114.8722	157.0017	309.9263	315.0662	394.6412	426.2528	480.4821	555.0777	650.2642	717.6093	777.6016	808.914	826.6063	850.8387	920.9025	943.6661	958.7215	976.2691	977.9604	995.081	1049.4011	1097.9057	1115.1853	1133.9866	1150.8395	1170.9008	1194.2022	1258.4754	1288.1942	1299.1438	1323.8451	1346.5847	1377.1136	1381.3951	1394.138	1445.7693	1464.6667	1478.0327	1485.7422	1492.8186	1688.6039	1808.0543	2983.8342	2984.5641	3003.2836	3030.066	3036.6363	3042.647	3063.1439	3085.2865	3096.9117	3151.7171	3178.9057	3204.7072
CC(=O)CC1CC=CC1	CC(=O)C[C@H]1CC=CC1	
InChI=1S/C8H12O/c1-7(9)6-8-4-2-3-5-8/h2-3,8H,4-6H2,1H3	InChI=1S/C8H12O/c1-7(9)6-8-4-2-3-5-8/h2-3,8H,4-6H2,1H3
