18
gdb 41674	2.90112	1.97108	1.59889	1.8673	74.82	-0.2219	0.0023	0.2243	887.6316	0.151378	-401.921144	-401.914628	-401.913684	-401.951862	26.89	
C	 0.0217192304	 1.5642271862	-0.0689347587	-0.111837
O	 1.3940198398	 1.9410539283	-0.1380528644	-0.252526
C	 2.1747796048	 1.5628665889	 0.9809464549	-0.063024
C	 1.5922748752	 0.3835655445	 1.8060619151	-0.075832
C	 0.5431886279	 0.778056873	 2.8275008602	-0.091508
C	-0.6209352787	 0.1843287637	 2.5638810191	-0.082215
C	-0.4970571345	-0.6377809614	 1.3348993283	-0.086585
C	-0.0889237694	 0.0596411752	 0.0650133358	-0.032391
N	 0.9233267353	-0.6031567026	 0.9141763428	-0.108924
H	-0.4896123726	 2.092708228	 0.7456496537	 0.099914
H	-0.4158828955	 1.890639065	-1.0153176752	 0.110994
H	 3.1559558118	 1.2782986117	 0.5863992622	 0.113257
H	 2.3219505289	 2.4221529435	 1.6542667402	 0.090089
H	 2.4427115011	-0.1066160963	 2.2969743395	 0.092587
H	 0.7419327011	 1.481381687	 3.6283842732	 0.102016
H	-1.5405223876	 0.2832668442	 3.126847789	 0.105607
H	-1.007112892	-1.5946304445	 1.2639942924	 0.094195
H	-0.2548103861	-0.4771996242	-0.8664246282	 0.096184
124.5638	221.8488	320.3614	373.684	447.0711	536.8428	601.9507	665.1983	723.1548	764.1348	769.196	820.7767	847.9033	876.2513	891.2722	944.2096	961.8113	984.7577	998.5707	1053.7003	1058.3961	1087.7528	1097.3748	1124.4481	1132.6315	1155.915	1245.1494	1264.2149	1284.949	1309.6202	1317.5921	1340.4633	1372.3588	1375.5211	1402.9537	1423.8212	1493.1657	1514.3923	1666.4376	2976.167	3013.2682	3018.9663	3062.279	3096.1397	3127.0333	3146.2476	3191.7393	3220.8839
C1OCC2C=CC3C1N23	C1OC[C@H]2C=C[C@H]3[C@@H]1N23	
InChI=1S/C7H9NO/c1-2-6-7-4-9-3-5(1)8(6)7/h1-2,5-7H,3-4H2	InChI=1S/C7H9NO/c1-2-6-7-4-9-3-5(1)8(6)7/h1-2,5-7H,3-4H2/t5-,6+,7-,8?/m1/s1
