17
gdb 87665	3.2993	1.28323	1.06906	4.8243	78.17	-0.252	-0.0424	0.2096	1148.6518	0.135825	-421.868106	-421.860201	-421.859257	-421.900547	30.289	
C	-0.0416121389	 1.5262727699	 0.0771760703	-0.405224
C	 0.0373635509	 0.0175878502	 0.0175873277	-0.070105
C	 1.3529796242	-0.6849468742	-0.2020169264	-0.350673
C	 0.6856648576	-0.7541310738	 1.1539233669	 0.408621
O	 1.2697069189	-0.0185215348	 2.2034821918	-0.263508
C	 1.0933814938	-0.7046385771	 3.3944949025	 0.402523
O	 1.4985713953	-0.2806118935	 4.4391120303	-0.346722
C	 0.3617507217	-1.9482000917	 3.0718094339	-0.254196
C	 0.128249477	-1.9723056141	 1.7553232657	-0.144217
H	 0.8319136987	 1.9462104103	 0.5805541741	 0.143658
H	-0.0952753513	 1.9465533396	-0.9324536112	 0.122668
H	-0.930636261	 1.8511311388	 0.6267746373	 0.128686
H	-0.8335916379	-0.4713842398	-0.4118747094	 0.097759
H	 1.3876182616	-1.5871690609	-0.8026637535	 0.124072
H	 2.2460584954	-0.0706309491	-0.2430952893	 0.140705
H	 0.0924778252	-2.6721541568	 3.8256458752	 0.133886
H	-0.3833342011	-2.733455973	 1.1807988341	 0.132066
106.8875	152.6121	184.074	199.5145	302.952	355.3874	431.9547	493.227	534.0818	574.3029	714.9673	723.0023	801.39	832.4048	858.333	887.1059	897.5674	925.3798	955.6606	962.3939	1023.1277	1059.6788	1070.4957	1108.7323	1125.4814	1141.4608	1191.2432	1268.1248	1297.7462	1363.545	1411.5334	1430.8638	1476.18	1492.519	1502.4034	1635.779	1870.9073	3041.0732	3102.5436	3125.6123	3133.9368	3143.5378	3221.8721	3226.6045	3262.3004
CC1CC11OC(=O)C=C1	C[C@H]1C[C@]21OC(=O)C=C2	
InChI=1S/C7H8O2/c1-5-4-7(5)3-2-6(8)9-7/h2-3,5H,4H2,1H3	InChI=1S/C7H8O2/c1-5-4-7(5)3-2-6(8)9-7/h2-3,5H,4H2,1H3/t5-,7+/m0/s1
