22
gdb 59532	4.04084	0.85826	0.77555	2.8212	83.28	-0.2388	0.0685	0.3073	1533.0618	0.193492	-404.310755	-404.301219	-404.300275	-404.345288	36.384	
C	 0.079909263	 1.4926212112	-0.1063669666	-0.404344
C	 0.0073067529	-0.0279907274	 0.0397551581	 0.119643
O	 0.7373503744	-0.4766073473	 1.1801356602	-0.430977
C	-1.4252573692	-0.5475029191	 0.0713505947	 0.034906
C	-2.2693428893	-0.478104452	-1.2408002336	-0.340326
C	-2.7400010264	-1.9064001331	-0.9413810908	 0.372691
C	-4.1449501124	-2.3632713173	-0.8759271461	-0.305295
N	-3.2050493776	-2.9255000267	-1.8719800453	-0.367088
C	-1.6333823618	-2.0912624164	 0.0996195564	-0.30849
H	 1.1216914809	 1.8241496959	-0.117782469	 0.12415
H	-0.4022217459	 1.8285420708	-1.030187731	 0.119549
H	-0.4273843818	 1.9865224901	 0.7322438436	 0.104012
H	 0.5253604655	-0.493814994	-0.8091543526	 0.08331
H	 0.3330050616	-0.0791330936	 1.959524197	 0.274346
H	-1.9658520222	-0.0668778553	 0.8968452136	 0.059229
H	-3.0292098405	 0.3040664968	-1.319057932	 0.10031
H	-1.6272864602	-0.4354047632	-2.1292569533	 0.100985
H	-4.4592725426	-3.0619358256	-0.1043722009	 0.116907
H	-4.9233188208	-1.6833463876	-1.2153438225	 0.107302
H	-3.3803160835	-2.5127743433	-2.7857468367	 0.226517
H	-0.7705627208	-2.6264285525	-0.3089833833	 0.112383
H	-1.9083081732	-2.5474169604	 1.05305337	 0.100281
58.2131	83.3037	142.0841	240.8217	273.5424	284.0311	305.762	321.0818	345.5028	391.5326	461.8588	490.0644	577.192	722.1854	812.3823	838.8028	883.6891	892.5669	907.7348	947.715	969.3619	983.1056	999.3169	1013.2321	1042.7038	1075.5646	1092.5245	1116.9998	1123.6541	1174.3962	1202.972	1228.5107	1249.2999	1256.0593	1266.6971	1291.8643	1297.3439	1333.524	1389.7981	1402.353	1419.6627	1421.7788	1472.1473	1491.3819	1494.1807	1495.4502	1515.2125	3015.1898	3021.7807	3028.4222	3033.8627	3057.9119	3091.7551	3093.3372	3097.0178	3112.7348	3118.0302	3181.1694	3486.1286	3796.4865
CC(O)C1CC2(CN2)C1	C[C@@H](O)[C@H]1C[C@]2(CN2)C1	
InChI=1S/C7H13NO/c1-5(9)6-2-7(3-6)4-8-7/h5-6,8-9H,2-4H2,1H3	InChI=1S/C7H13NO/c1-5(9)6-2-7(3-6)4-8-7/h5-6,8-9H,2-4H2,1H3/t5-,6-,7+/m1/s1
