18
gdb 39737	3.78232	1.55396	1.35316	1.3623	83.29	-0.2137	-0.0408	0.1729	981.4734	0.148815	-364.677219	-364.670445	-364.669501	-364.70798	28.49	
C	-0.2484513386	 1.3792097623	-0.3217653927	-0.324332
N	 1.0931802688	 0.9106848049	 0.1251907056	-0.378457
C	 0.0277646898	-0.046757205	-0.0913708983	 0.348022
C	-0.3342425867	-1.0557764109	 1.0343708153	-0.113096
C	-1.2372103801	-2.3018056661	 0.6788353278	-0.058045
C	-2.1278576914	-2.3731943962	-0.5755028036	-0.264993
C	-1.3190067284	-1.4632296497	-1.4895532613	-0.074898
C	-0.0737693536	-1.2798121176	-0.9951075213	-0.090523
C	 0.169630908	-2.2115105714	 0.2107884353	-0.10571
H	-0.7892451007	 1.9699334621	 0.4129823907	 0.118644
H	-0.3651448653	 1.7169031172	-1.3491789352	 0.112595
H	 1.7479158538	 0.9035673958	-0.6523458571	 0.234652
H	-0.1055793734	-0.8632643322	 2.0789256355	 0.097742
H	-1.4908975908	-2.9002609955	 1.5522066405	 0.08143
H	-2.2567508742	-3.4187988022	-0.8893352646	 0.112559
H	-3.1322748665	-1.9493959675	-0.4550990001	 0.111614
H	-1.8232069865	-0.7013757814	-2.0778244652	 0.101236
H	 1.0090938558	-2.8707254465	 0.3846757487	 0.091561
146.96	246.8644	279.9539	347.6837	403.3735	472.7387	556.0533	662.0225	720.2133	750.9865	793.3612	795.4222	837.6807	860.2763	870.8668	898.5927	924.0184	945.8303	960.0372	974.0914	979.3169	991.5458	1038.9835	1061.2418	1084.7398	1088.2547	1125.4941	1177.4726	1205.6878	1229.2184	1247.9657	1258.7603	1272.7533	1289.554	1368.7587	1403.6451	1471.2847	1510.4669	1568.3094	3003.7834	3052.4693	3100.355	3131.4773	3154.2162	3163.6646	3183.9412	3203.5859	3508.2748
C1NC11C2C3CC=C1C23	C1N[C@]21[C@H]1[C@H]3C[CH][C]2[C@@H]13	
InChI=1S/C8H9N/c1-2-5-6-4(1)7(6)8(5)3-9-8/h2,4,6-7,9H,1,3H2	InChI=1S/C8H9N/c1-2-5-6-4(1)7(6)8(5)3-9-8/h2,4,6-7,9H,1,3H2/t4-,6-,7-,8-/m0/s1
