13
gdb 45840	2.48662	1.86389	1.17178	1.3941	61.75	-0.2898	-0.0376	0.2522	974.7554	0.089641	-489.91676	-489.909458	-489.908514	-489.949295	26.343	
N	-0.1669457104	 1.398236944	 0.1648450614	-0.47058
C	-0.0960132396	 0.1922678505	-0.1703427541	 0.406833
C	-1.1858838685	-0.8116486839	 0.0790957807	-0.262576
N	-1.6788147338	-1.3705020122	-1.176377757	-0.215023
C	-0.8966444289	-2.0408677559	-1.8902110647	 0.14506
O	 0.418933	-2.3906921101	-1.6398434713	-0.228716
C	 1.3403194461	-1.6138841674	-1.0026307884	 0.474709
O	 2.4054434778	-2.0498025059	-0.7153539481	-0.307375
O	 1.0259504238	-0.2952949741	-0.8475348834	-0.253157
H	 0.6758975549	 1.9120952821	-0.0970179307	 0.245338
H	-0.8081515843	-1.6096214373	 0.7364240848	 0.145982
H	-1.9984791617	-0.3009688916	 0.5928791142	 0.161653
H	-1.2198016654	-2.5123231382	-2.8136315134	 0.157854
77.9028	89.0957	171.1197	307.1145	376.4458	424.2896	496.1364	551.464	576.6833	669.8919	709.8151	818.3916	861.3735	912.2998	936.7326	952.5719	985.2585	1037.5006	1061.6813	1096.3322	1156.7275	1236.5145	1317.8731	1348.7854	1408.2308	1489.3922	1759.5617	1784.6569	1902.8055	3002.0882	3148.6126	3194.6591	3485.9231
N=C1CN=COC(=O)O1	[NH][C]1CN=COC(=O)O1	
InChI=1S/C4H4N2O3/c5-3-1-6-2-8-4(7)9-3/h2,5H,1H2	InChI=1S/C4H4N2O3/c5-3-1-6-2-8-4(7)9-3/h2,5H,1H2
