16
gdb 30038	3.29926	1.63972	1.15342	2.0972	78.49	-0.2066	-0.0201	0.1865	1017.1051	0.126817	-400.78064	-400.773575	-400.772631	-400.812045	28.103	
O	 0.1511679986	 1.4111338648	-0.1744026173	-0.415044
C	 0.0470950612	-0.0008495735	-0.0418353259	-0.062822
C	 0.6171647414	-0.5584713083	 1.265702168	-0.177908
C	-0.3102215036	-1.2833133578	 1.8996758667	-0.027945
N	-1.5027993344	-1.2945608078	 1.1528513307	-0.000981
C	-2.7757337857	-1.7933530816	 1.2467286379	-0.132825
C	-3.4609203981	-1.3514309683	 0.1343060221	-0.142137
C	-2.5675144767	-0.5597923957	-0.6554029333	-0.327811
C	-1.3625499132	-0.5456008968	 0.0033145911	 0.312925
H	-0.4120274673	 1.8011006471	 0.5040280697	 0.279788
H	 0.607636363	-0.3938021318	-0.8992707816	 0.114019
H	 1.6252197958	-0.3692348918	 1.6026051995	 0.115831
H	-0.2581396972	-1.8182689654	 2.837209608	 0.13725
H	-3.0819177209	-2.4144205532	 2.0729560759	 0.122561
H	-4.4926517491	-1.5715848014	-0.0943608458	 0.098824
H	-2.7964389637	-0.0686510885	-1.5885747455	 0.106275
128.8245	141.421	273.0747	331.6535	359.7095	489.1945	562.5216	606.945	659.4201	692.3187	700.9168	727.589	758.4295	790.4424	835.1504	852.5148	906.834	919.3702	971.5047	1022.7955	1060.4389	1078.556	1104.69	1183.0678	1220.0285	1255.3345	1267.8605	1303.4526	1329.1044	1418.4627	1426.0357	1443.7526	1498.2123	1593.6605	1654.6821	3034.4445	3235.5797	3242.4934	3256.4508	3261.3457	3271.2841	3796.8778
OC1C=CN2C=CC=C12	O[C@H]1C=Cn2cccc12	
InChI=1S/C7H7NO/c9-7-3-5-8-4-1-2-6(7)8/h1-5,7,9H	InChI=1S/C7H7NO/c9-7-3-5-8-4-1-2-6(7)8/h1-5,7,9H/t7-/m0/s1
