19
gdb 36782	5.78029	0.59605	0.56816	3.6083	77.13	-0.2519	0.0168	0.2687	1884.2486	0.159541	-419.17735	-419.167922	-419.166978	-419.213508	32.412	
N	-0.0174752856	-1.1109851858	-0.2502549458	-0.294748
C	-0.0128146121	 0.0396767191	-0.1520479117	 0.256177
C	-0.0061824454	 1.4968453488	 0.0035417598	-0.259604
N	 1.3541576123	 2.0207519621	-0.0122071597	-0.299697
C	 1.4064650137	 3.4662618147	 0.1896850456	-0.14407
C	 2.8431112597	 3.9614162991	 0.1383276812	-0.052429
C	 3.5071179472	 3.9450974891	-1.255145155	-0.068496
O	 3.5085408376	 5.3884175042	-1.3179119768	-0.270475
C	 3.0137429508	 5.4929845024	 0.0307569081	-0.086884
H	-0.563063996	 1.9363116833	-0.8335555493	 0.159747
H	-0.5753794192	 1.7431738811	 0.9191293284	 0.132726
H	 1.9038532102	 1.5509630552	 0.7008707735	 0.231681
H	 0.8327643939	 3.9400335508	-0.6185869666	 0.115678
H	 0.935341358	 3.7865720271	 1.1388289034	 0.08685
H	 3.433816674	 3.4932965207	 0.9316246461	 0.078003
H	 4.5238643692	 3.5343249977	-1.2868935901	 0.101817
H	 2.9136506339	 3.4916454591	-2.0571500161	 0.112375
H	 2.0905456302	 6.0847255986	 0.089330872	 0.100195
H	 3.7568485577	 5.9297561729	 0.7102059033	 0.101154
43.8265	55.5002	90.4641	109.5805	146.9154	211.4192	299.0422	381.0528	395.3942	440.3475	577.7241	773.2697	795.1675	868.8829	886.7648	913.8881	954.6991	973.0529	995.5078	1037.079	1045.1334	1086.3525	1112.1433	1145.62	1152.5774	1160.6399	1189.3667	1242.7945	1250.7366	1299.0123	1309.2512	1336.1862	1366.0623	1392.3018	1422.9074	1489.8719	1497.0927	1509.6257	1516.87	1539.3263	2369.3662	2919.8961	2935.6228	3003.4042	3020.0155	3028.6897	3042.9671	3048.4567	3060.7995	3073.3655	3514.2999
N#CCNCC1COC1	N#CCNCC1COC1	
InChI=1S/C6H10N2O/c7-1-2-8-3-6-4-9-5-6/h6,8H,2-5H2	InChI=1S/C6H10N2O/c7-1-2-8-3-6-4-9-5-6/h6,8H,2-5H2
