14
gdb 20010	3.9469	1.52951	1.26222	3.7863	59.06	-0.2547	-0.0375	0.2171	938.7386	0.105118	-419.628932	-419.621472	-419.620528	-419.661509	26.091	
O	-0.2264363875	 0.1821385308	 0.3673224478	-0.249492
C	 0.3935169294	 0.7270434565	-0.5117512457	 0.132817
C	 1.3725282141	 1.8246381878	-0.2192143696	-0.05481
O	 2.3741398956	 2.0781584416	-1.2169452102	-0.238211
C	 1.4234794833	 3.0974886782	-0.9864959065	 0.040816
C	 0.5010757699	 3.471035513	-2.106281017	 0.042459
C	 0.9177807894	 3.3123816348	-3.5081270764	-0.171192
O	-0.0347986361	 2.4283610041	-2.9101785956	-0.226435
H	 0.3001558361	 0.4564720241	-1.5784450884	 0.120345
H	 1.7238671699	 1.8423216965	 0.8121777377	 0.119637
H	 1.8057202325	 3.964304466	-0.4412761432	 0.109143
H	-0.2038719843	 4.264356571	-1.8544017637	 0.10971
H	 0.5199865859	 3.9807099241	-4.268986566	 0.125799
H	 1.8883028817	 2.8677447415	-3.7148157233	 0.139414
66.7342	83.8071	204.4297	219.7319	294.9275	319.2074	464.7173	542.7303	658.9003	745.5847	854.4353	882.403	905.5366	967.0619	990.9435	1030.645	1069.4707	1101.5754	1119.5984	1163.5115	1166.3774	1168.937	1260.8375	1286.5628	1339.6361	1405.7154	1425.3808	1464.6379	1517.6949	1815.7478	2989.3485	3080.375	3099.1995	3110.5677	3127.5552	3196.987
O=CC1OC1C1CO1	O=C[C@H]1O[C@H]1[C@H]1CO1	
InChI=1S/C5H6O3/c6-1-3-5(8-3)4-2-7-4/h1,3-5H,2H2	InChI=1S/C5H6O3/c6-1-3-5(8-3)4-2-7-4/h1,3-5H,2H2/t3-,4-,5-/m1/s1
