18
gdb 30792	2.27771	1.34242	0.89484	2.5665	77.84	-0.1841	0.0308	0.2149	1301.2178	0.146957	-439.113657	-439.104024	-439.10308	-439.14853	34.772	
C	-0.0988887882	 1.6143683856	 0.1406152689	-0.506218
C	-0.0334318371	 0.1213628555	 0.0557500595	 0.203447
C	-0.0002122276	-0.644700348	-1.0676433895	 0.218608
C	 0.0259542271	-0.3804957459	-2.526992431	-0.179924
O	 1.3135447424	-0.5384429778	-3.1298490852	-0.415654
O	 0.0688191873	-1.987416646	-0.7081295529	-0.22271
C	 0.0774924468	-2.0383565662	 0.6415093111	 0.372146
N	 0.06678915	-3.3128612752	 1.1886554719	-0.594719
C	 0.0131073033	-0.7862201368	 1.1744223707	-0.362332
H	 0.7657200161	 2.0181038537	 0.6799523883	 0.129936
H	-0.1146916737	 2.0756969669	-0.8498745581	 0.127524
H	-0.9948920696	 1.9442087508	 0.679191796	 0.128077
H	-0.712240781	-1.0217846511	-3.0337256824	 0.098049
H	-0.2633698065	 0.6576242643	-2.7090692843	 0.119079
H	 1.6159686027	-1.4259873253	-2.9116451891	 0.280909
H	 0.5437438904	-3.9916406907	 0.6091500537	 0.254045
H	 0.4185109911	-3.3373567404	 2.1355200654	 0.256269
H	-0.0030363735	-0.5307202034	 2.222325377	 0.093469
48.4755	117.9713	133.6274	185.5777	195.3926	238.0032	262.9017	311.4736	328.1228	438.7905	487.1629	589.3242	628.4811	656.3561	707.3389	718.8361	747.451	815.5915	927.9995	986.8861	1013.5681	1030.8289	1062.0806	1097.7782	1117.3904	1193.8048	1223.0333	1250.0362	1344.2666	1365.7438	1413.7385	1420.7563	1457.7557	1481.0628	1484.4875	1497.8302	1612.1389	1657.1514	1687.1148	2981.0757	3028.7622	3076.9532	3097.3292	3117.2307	3252.3769	3548.6305	3649.8179	3817.9608
CC1=C(CO)OC(N)=C1	Cc1c(CO)oc(N)c1	
InChI=1S/C6H9NO2/c1-4-2-6(7)9-5(4)3-8/h2,8H,3,7H2,1H3	InChI=1S/C6H9NO2/c1-4-2-6(7)9-5(4)3-8/h2,8H,3,7H2,1H3
