14
gdb 125361	2.01333	1.98451	1.00564	4.2638	78.05	-0.1968	-0.066	0.1308	1096.0808	0.100814	-432.897206	-432.888979	-432.888035	-432.930144	29.652	
C	-0.0126903875	 1.3831737464	 0.196872787	-0.51292
C	-0.0053909771	-0.0999021594	 0.0274750537	 0.157745
C	-0.0322007556	-0.8222969116	-1.115541878	-0.117635
N	-0.0135275228	-2.1930420495	-0.847059734	-0.354666
C	 0.0283090891	-2.4622720012	 0.5159851025	 0.369678
C	 0.0333446779	-1.0922811154	 1.0938468061	 0.156621
N	 0.0694535487	-0.8865984841	 2.3763625804	 0.110108
N	 0.0992385401	-0.7436264563	 3.5007793724	-0.223067
O	 0.0528821474	-3.5499883395	 1.0525982892	-0.391705
H	 0.883022452	 1.7394714087	 0.7201614278	 0.1344
H	-0.0474923331	 1.8780861783	-0.777195387	 0.134373
H	-0.8797278861	 1.7244344274	 0.7755204711	 0.134372
H	-0.0646845583	-0.4658187757	-2.1335450484	 0.135336
H	-0.0272096347	-2.929589128	-1.5312605727	 0.267362
110.6455	129.2873	156.1555	201.0239	262.389	266.3559	436.151	446.7523	525.0958	526.5745	573.5523	604.3939	689.1403	738.8159	770.5315	773.9771	985.1153	1063.9923	1066.8566	1087.5096	1145.6494	1302.5259	1327.183	1394.43	1423.6553	1441.0877	1478.0513	1499.1104	1664.7651	1808.4153	2214.0565	3021.1282	3067.1651	3114.6528	3255.3219	3680.8148
CC1=CNC2=C1N=NO2	CC1=C(C(=O)N[CH]1)[N][N]	
InChI=1S/C5H5N3O/c1-3-2-6-5-4(3)7-8-9-5/h2,6H,1H3	InChI=1S/C5H5N3O/c1-3-2-7-5(9)4(3)8-6/h2H,1H3,(H,7,8,9)
