18
gdb 37927	2.92928	2.16786	2.04402	1.051	72.66	-0.2124	0.079	0.2914	799.1478	0.151905	-401.882995	-401.877313	-401.876369	-401.912673	24.969	
C	 0.0236839023	 1.53324927	-0.0042453897	-0.183361
C	 1.5528277996	 1.5109736117	-0.0930844392	-0.0829
C	 2.1579334716	 1.0053298005	 1.2724849923	 0.107887
O	 1.3956090303	 1.2840724224	 2.4341109312	-0.269593
C	 0.3569616116	 0.2979453345	 2.5504821318	-0.103214
C	 0.4511632695	-0.5714895555	 1.3051219462	-0.007728
C	 1.9201736008	-0.4676961606	 0.8515875055	-0.095391
C	 1.4084398133	 0.017538812	-0.5234591579	-0.000632
N	-0.0334445669	 0.0259288168	-0.0123588279	-0.171121
H	-0.4360320602	 2.034120264	 0.8516602918	 0.115951
H	-0.4474575988	 1.8980555592	-0.9224973539	 0.106314
H	 2.0992749585	 2.2864539562	-0.6318018062	 0.062364
H	 3.1890614478	 1.3191016104	 1.4433698733	 0.082045
H	 0.5265997092	-0.3034972998	 3.4544499311	 0.101818
H	-0.6148233734	 0.7965912668	 2.6509221349	 0.112116
H	 0.0248219821	-1.5673846085	 1.4438407581	 0.082903
H	 2.6547707201	-1.2439161782	 1.0615688823	 0.069148
H	 1.6164347825	-0.407852322	-1.5033957335	 0.073394
228.1522	334.7778	416.3852	491.1463	582.8899	658.3653	712.4894	750.156	775.594	789.4696	857.5874	860.4459	893.7388	921.5881	934.2087	948.6551	975.2951	993.1304	999.2374	1015.0664	1041.9405	1090.1196	1115.3469	1149.0739	1181.2703	1183.7295	1194.0785	1211.2146	1221.8197	1238.1046	1248.2814	1275.2894	1292.7091	1310.0412	1318.9304	1336.8341	1385.0594	1498.0355	1519.3951	3006.6509	3047.6484	3050.8565	3083.0618	3089.7231	3100.8429	3103.4523	3114.5249	3132.3683
C1C2C3OCC4C3C2N14	C1[C@H]2[C@H]3OC[C@@H]4[C@H]3[C@H]2N14	
InChI=1S/C7H9NO/c1-3-6-5-4(8(1)6)2-9-7(3)5/h3-7H,1-2H2	InChI=1S/C7H9NO/c1-3-6-5-4(8(1)6)2-9-7(3)5/h3-7H,1-2H2/t3-,4-,5+,6+,7-/m1/s1
