19
gdb 50541	2.6086	1.13735	0.84959	2.7347	81.88	-0.2483	-0.0256	0.2227	1352.4791	0.157013	-385.854009	-385.844631	-385.843687	-385.888874	34.097	
O	 0.0986298917	 0.0523344132	 0.59528718	-0.246908
C	 0.3515253398	 0.8379857217	-0.2846235013	 0.137145
C	 1.2036783384	 2.0672916443	-0.1536639679	-0.089568
C	 0.6230498761	 3.4240741643	-0.6632280442	-0.246379
C	 1.3509953711	 4.1158645207	 0.5218031458	-0.215372
C	 1.5242334514	 2.7347632923	 1.2200834857	-0.010124
C	 0.5025462596	 2.477651184	 2.3444765189	-0.383326
C	 0.7493052701	 3.3333510031	 3.4994053879	 0.298054
C	 0.9745361244	 4.0502364036	 4.4380882478	-0.430815
H	-0.0546316299	 0.686316426	-1.3137551698	 0.07736
H	 2.1354475216	 1.8523370605	-0.6950101851	 0.107701
H	 0.8912880574	 3.7337436803	-1.6749371717	 0.107496
H	-0.465622769	 3.4668032454	-0.5651750703	 0.112939
H	 2.3088184509	 4.544296791	 0.216376242	 0.106583
H	 0.7935903801	 4.8713778792	 1.0793184699	 0.115822
H	 2.5252485707	 2.5292411144	 1.6053717834	 0.086646
H	-0.5166259821	 2.6525031322	 1.9750087641	 0.122935
H	 0.5353650353	 1.4235913064	 2.6346488191	 0.157681
H	 1.1628957923	 4.6727436775	 5.2771579359	 0.19213
73.5475	75.7077	116.3463	122.661	178.2879	284.1334	333.6765	360.2005	361.7269	506.0553	612.8467	616.7638	637.939	684.8676	771.4927	834.9896	874.3282	894.3426	930.4131	950.4227	971.2677	991.1288	1027.2432	1075.7172	1123.8632	1138.5761	1201.022	1220.1657	1240.7432	1257.8016	1270.829	1277.0601	1318.02	1341.4587	1375.9938	1422.2077	1470.2809	1485.921	1502.8077	1818.6353	2236.1214	2843.4477	3018.2284	3024.8282	3061.1105	3066.1446	3080.6646	3092.8171	3111.4733	3126.8733	3507.3365
O=CC1CCC1CC#C	O=C[C@H]1CC[C@H]1CC#C	
InChI=1S/C8H10O/c1-2-3-7-4-5-8(7)6-9/h1,6-8H,3-5H2	InChI=1S/C8H10O/c1-2-3-7-4-5-8(7)6-9/h1,6-8H,3-5H2/t7-,8-/m1/s1
