16
gdb 44341	4.31752	1.47623	1.39093	2.3179	72.23	-0.2157	-0.0339	0.1817	933.319	0.126499	-400.712399	-400.706197	-400.705252	-400.742773	25.974	
O	 0.037153559	 0.0458907017	-0.0538311025	-0.326126
C	 0.0231015309	 1.247158198	-0.0054636456	 0.407117
C	-1.1772927356	 2.2118363794	 0.0306904581	-0.294494
N	-0.5073144254	 3.5305155122	 0.0867872554	-0.116887
C	 0.6627791557	 3.3887932301	-0.9093195361	-0.067979
C	 1.5266156554	 4.5850426069	-0.5297888425	-0.077162
C	 1.5222704211	 4.5304613965	 0.8008696638	-0.077157
C	 0.6562845606	 3.3073882407	 1.0755184233	-0.067979
C	 1.1662763572	 2.2338631812	 0.0390399383	-0.135071
H	-1.8040078876	 2.1239400559	-0.8624513238	 0.131171
H	-1.809207059	 2.0512090308	 0.9099470359	 0.131226
H	 0.4088477376	 3.208613925	-1.9544383132	 0.083216
H	 1.9718627454	 5.2937710362	-1.211280986	 0.118854
H	 1.962867469	 5.1808848462	 1.5410024494	 0.118855
H	 0.395598148	 3.0422892012	 2.10069335	 0.083222
H	 2.1860674075	 1.8522501081	 0.0267642954	 0.089192
135.5092	318.9264	330.8681	468.8729	506.0073	562.3467	598.83	637.0483	699.6793	735.8753	759.1672	807.833	877.0664	906.9351	917.2932	919.4171	931.1512	972.8924	1005.0781	1017.149	1041.927	1117.026	1130.2732	1171.3478	1177.1608	1190.6073	1193.4062	1239.8216	1254.0934	1281.7633	1305.2818	1318.6775	1463.4057	1636.421	1866.0228	3053.1852	3100.8361	3116.9179	3118.8169	3137.9399	3238.6683	3265.2989
O=C1CN2C3C=CC2C13	O=C1CN2[C@H]3C=C[C@@H]2[C@@H]13	
InChI=1S/C7H7NO/c9-6-3-8-4-1-2-5(8)7(4)6/h1-2,4-5,7H,3H2	InChI=1S/C7H7NO/c9-6-3-8-4-1-2-5(8)7(4)6/h1-2,4-5,7H,3H2/t4-,5+,7-
