14
gdb 19565	4.23095	2.14194	1.94166	0.3068	60.99	-0.2451	-0.0057	0.2394	721.4442	0.107464	-382.455752	-382.449903	-382.448958	-382.485448	23.612	
C	 0.0491338701	 1.4989444219	 0.0097074773	-0.289217
O	 1.2351766968	 0.6557620867	-0.007052969	-0.267736
C	-0.0139691158	 0.0481872317	 0.0024740384	 0.491166
C	-0.6136946892	-0.9947129604	 0.9873220152	-0.089778
O	-1.701340959	-1.1152728489	 0.0134869957	-0.279093
C	-0.6339119313	-0.9840110855	-0.9811204409	-0.08977
C	 0.2317450494	-2.2157614659	-0.6807123898	-0.071299
C	 0.2454118601	-2.2230705408	 0.6558226586	-0.071287
H	-0.1089815471	 2.050170782	 0.9346935463	 0.12612
H	-0.1278801383	 2.0601713241	-0.9057927953	 0.12612
H	-0.9282707738	-0.7827249323	 2.0071530436	 0.09008
H	-0.9693434861	-0.7609877602	-1.9919117584	 0.090083
H	 0.7148818299	-2.8626366214	-1.3971276972	 0.117305
H	 0.7430351942	-2.8776807309	 1.3550908057	 0.117305
182.1238	273.0928	318.5493	463.6456	563.5086	579.862	638.4987	727.083	791.0379	822.0213	834.3439	883.1894	901.5891	910.534	917.8511	934.5728	1009.395	1011.702	1107.1286	1123.4802	1150.6208	1151.1084	1170.2398	1204.3985	1227.2521	1285.6282	1304.4099	1446.8284	1548.357	1609.7405	3092.9024	3148.4201	3151.6654	3181.4103	3239.3921	3265.5037
C1OC11C2OC1C=C2	C1O[C@]21[C@H]1O[C@@H]2C=C1	
InChI=1S/C6H6O2/c1-2-5-6(3-7-6)4(1)8-5/h1-2,4-5H,3H2	InChI=1S/C6H6O2/c1-2-5-6(3-7-6)4(1)8-5/h1-2,4-5H,3H2/t4-,5+,6+
