18
gdb 17105	4.51964	1.50665	1.4193	1.9436	72.56	-0.2244	0.0082	0.2326	960.7985	0.154529	-347.760797	-347.753592	-347.752648	-347.792484	27.857	
C	 0.1911996391	 1.5155934652	-0.1227002502	-0.3753
C	-0.0789688429	 0.0210668959	 0.1312863866	-0.320325
C	 0.6647273542	-0.5187446213	 1.3049098091	 0.381243
C	 0.2720125606	-1.0384709286	 2.472416895	-0.220072
C	 1.6186215861	-1.3677837593	 3.1392043973	 0.030605
C	 2.4240525487	-0.0561664429	 2.8923926095	-0.215999
C	 2.2050859179	-0.6161220272	 1.4556215048	-0.030538
O	 2.3667715606	-1.9589063203	 2.020158849	-0.285779
H	 1.2556065997	 1.7043338329	-0.2972191923	 0.120121
H	-0.3576266329	 1.8649454599	-1.0023975567	 0.1169
H	-0.118663809	 2.1199314242	 0.7353986234	 0.121734
H	-1.1531583601	-0.1396418795	 0.27631941	 0.107062
H	 0.201525592	-0.5449213419	-0.7683005723	 0.111462
H	-0.7178606473	-1.2069432793	 2.8711525938	 0.103555
H	 1.6526353421	-1.942512769	 4.063688845	 0.078876
H	 1.9694514543	 0.8990256644	 3.1635626925	 0.095022
H	 3.4645460876	-0.1288833797	 3.2182679714	 0.105469
H	 2.8530695194	-0.3982111734	 0.6064964043	 0.075963
72.8272	128.6418	206.0888	291.5394	366.6037	487.986	540.3696	640.6071	650.1238	770.5153	792.1626	804.6116	842.9944	846.2707	891.9815	906.0456	934.7721	956.3081	1023.3024	1047.7086	1065.3248	1079.4726	1103.2649	1158.0135	1198.6249	1218.3435	1234.334	1258.1385	1274.1892	1296.1596	1323.0542	1349.4177	1407.19	1478.9602	1485.4597	1498.1212	1506.0703	1683.5801	3007.614	3036.1383	3060.3316	3061.2235	3106.3446	3111.7172	3122.2248	3133.0672	3135.9481	3236.7144
CCC1=CC2CC1O2	CCC1=C[C@@H]2C[C@H]1O2	
InChI=1S/C7H10O/c1-2-5-3-6-4-7(5)8-6/h3,6-7H,2,4H2,1H3	InChI=1S/C7H10O/c1-2-5-3-6-4-7(5)8-6/h3,6-7H,2,4H2,1H3/t6-,7-/m1/s1
