20
gdb 8157	3.82864	1.57316	1.32731	1.5508	74.06	-0.2368	0.0758	0.3126	1001.7681	0.177574	-349.005371	-348.997466	-348.996521	-349.037212	31.414	
C	 0.0413149755	 1.5653693452	 0.0177915757	-0.404582
C	 0.0603667636	 0.0387299132	-0.0089847738	 0.064356
C	 0.8435546654	-0.5744539422	-1.2019502422	-0.240034
C	 1.2732133991	-1.9614888705	-0.7320556068	-0.117008
C	 2.5206008181	-2.0493245214	 0.1324317577	-0.307307
C	 1.1784573858	-1.9964573595	 0.7848976561	 0.41908
O	 0.8027071388	-3.1390252718	 1.4954696585	-0.47096
C	 0.6706177221	-0.6255371069	 1.2508136526	-0.306125
H	 1.0577238797	 1.9668284256	 0.1065769065	 0.112079
H	-0.3986456725	 1.9746372794	-0.8981940195	 0.111456
H	-0.5408830145	 1.945371768	 0.8641743447	 0.111674
H	-0.9750942828	-0.3198735058	-0.0912669286	 0.065482
H	 0.2252612671	-0.618705199	-2.1036999934	 0.096754
H	 1.7138794168	 0.0485277343	-1.448585842	 0.094289
H	 1.0148151412	-2.8362444968	-1.3183871345	 0.083877
H	 3.0230754328	-3.010139205	 0.1601722062	 0.115665
H	 3.1773625474	-1.1859456107	 0.1972870666	 0.102689
H	-0.1526413494	-3.2377077975	 1.4161505138	 0.275772
H	 1.4873565246	-0.0160477309	 1.6588605065	 0.097941
H	-0.0639256886	-0.7438861476	 2.0534270758	 0.094902
81.7317	208.896	242.0567	271.873	322.9761	376.259	404.3969	423.3292	426.6128	540.1154	597.7931	738.0713	816.0562	851.3265	857.2296	908.3715	926.2858	940.8398	953.85	963.1749	1037.84	1048.7227	1075.1115	1086.2324	1116.3588	1159.1488	1175.3578	1240.0896	1253.0611	1263.2324	1297.2631	1304.803	1325.883	1352.044	1377.1779	1409.3821	1415.3674	1477.2074	1489.8168	1495.4326	1496.9208	1504.9126	2999.16	3015.5317	3021.6063	3026.5209	3076.5947	3079.7732	3091.4679	3094.1045	3114.7079	3171.5363	3211.2837	3791.2651
CC1CC2CC2(O)C1	C[C@H]1C[C@H]2C[C@@]2(O)C1	
InChI=1S/C7H12O/c1-5-2-6-4-7(6,8)3-5/h5-6,8H,2-4H2,1H3	InChI=1S/C7H12O/c1-5-2-6-4-7(6,8)3-5/h5-6,8H,2-4H2,1H3/t5-,6-,7-/m0/s1
