18
gdb 28568	3.66951	1.13462	0.9297	1.9752	81.96	-0.2023	0.0121	0.2144	1278.6515	0.148658	-401.960434	-401.952138	-401.951194	-401.993883	30.8	
C	 0.197016619	 1.3727613651	-0.2693313703	-0.49294
C	-0.0620238771	-0.0820897182	-0.1157282573	 0.348368
C	-1.162745439	-0.8152676974	 0.1974003203	-0.255226
C	-0.7578582237	-2.1913765712	 0.1969575603	-0.282382
C	 0.563682401	-2.2032886271	-0.124151535	 0.37327
O	 1.0021056017	-0.9209102005	-0.3160508892	-0.230252
C	 1.5492917917	-3.2784666303	-0.2813601967	-0.106267
C	 2.6714985813	-3.1554459917	-1.2546242998	-0.238929
N	 2.9417187735	-3.0987089445	 0.1885749366	-0.324212
H	 0.5516533756	 1.616597197	-1.2774981244	 0.137179
H	-0.7230377955	 1.9323176618	-0.0869613689	 0.137013
H	 0.9569875983	 1.7248340086	 0.4379909455	 0.137128
H	-2.1460308282	-0.4238495111	 0.4077260041	 0.107616
H	-1.3688805631	-3.0550549238	 0.4079074117	 0.109718
H	 1.1415551598	-4.2649705738	-0.0799767703	 0.098535
H	 3.0444197921	-4.0431611997	-1.7581122409	 0.119805
H	 2.7290738642	-2.2375320503	-1.8321079553	 0.122674
H	 3.0632580383	-2.1268126427	 0.4659353396	 0.238902
66.1127	126.2675	144.5373	150.2639	245.3365	327.3532	419.4851	442.4987	611.5719	631.4722	692.4444	707.5964	793.4666	811.7975	826.8078	874.437	957.8327	965.7841	974.5685	1001.8484	1027.6519	1043.72	1064.4499	1101.193	1137.9866	1171.2206	1211.7906	1241.9965	1261.7238	1276.6878	1301.7437	1376.2806	1405.8967	1416.2867	1471.8752	1491.8894	1503.3091	1608.5415	1658.8532	3027.7329	3076.6005	3111.6122	3129.5076	3152.3809	3202.4078	3249.2282	3262.5788	3496.7003
CC1=CC=C(O1)C1CN1	Cc1ccc(o1)[C@H]1CN1	
InChI=1S/C7H9NO/c1-5-2-3-7(9-5)6-4-8-6/h2-3,6,8H,4H2,1H3	InChI=1S/C7H9NO/c1-5-2-3-7(9-5)6-4-8-6/h2-3,6,8H,4H2,1H3/t6-/m1/s1
