19
gdb 128573	2.58356	1.34349	0.89892	2.7563	80.57	-0.208	0.0441	0.2521	1314.5908	0.158695	-419.228473	-419.218652	-419.217708	-419.26392	34.138	
C	-0.7979028589	 0.4625352125	 0.4475933596	-0.247022
O	 0.2066469732	 0.815498784	-0.4922590697	-0.263861
C	 0.5742192015	-0.1693231039	-1.3334026571	 0.503917
C	 0.2067585327	-1.4935933952	-1.4731035009	-0.471729
C	 0.9927061214	-1.9514500186	-2.5614730361	 0.372091
C	 1.0129324547	-3.3178186533	-3.1706873449	-0.489505
N	 1.7724454286	-0.990532742	-3.0440411959	-0.337838
N	 1.4999665548	 0.1063988638	-2.2828122961	-0.054855
C	 2.2142421996	 1.3442258472	-2.4899875246	-0.328286
H	-1.7189001457	 0.1514022439	-0.0599558258	 0.131359
H	-0.4558408185	-0.3493084691	 1.1007422874	 0.131551
H	-0.9904804124	 1.3554835969	 1.0434157852	 0.138612
H	-0.5152372665	-2.0434962945	-0.8936328722	 0.098655
H	 0.0294102103	-3.5971466278	-3.5652566714	 0.123462
H	 1.7334628929	-3.3450771805	-3.9909688902	 0.136956
H	 1.2953349519	-4.0808545871	-2.4365827094	 0.123361
H	 2.3532252654	 1.4918247823	-3.5622888582	 0.14965
H	 1.6284741579	 2.1664480678	-2.0766685245	 0.147564
H	 3.196635987	 1.3268200338	-2.0045248953	 0.135917
54.298	84.4567	107.8745	159.951	174.1222	191.401	230.7301	265.2857	364.1079	380.0574	543.0764	601.7567	653.1322	665.7691	691.3727	737.4624	836.0073	989.159	1020.6315	1063.1025	1063.8531	1077.0296	1151.6602	1173.124	1182.499	1224.1152	1231.1542	1302.8815	1401.0901	1429.4314	1448.8835	1458.9544	1483.0219	1484.3695	1484.8416	1491.7182	1497.6785	1509.2437	1516.4369	1568.9256	1605.8522	3015.5065	3031.3	3037.6906	3078.3917	3080.9831	3114.2931	3130.2267	3143.8782	3156.4428	3270.0089
COC1=CC(C)=NN1C	COc1cc(C)nn1C	
InChI=1S/C6H10N2O/c1-5-4-6(9-3)8(2)7-5/h4H,1-3H3	InChI=1S/C6H10N2O/c1-5-4-6(9-3)8(2)7-5/h4H,1-3H3
