23
gdb 63843	2.75945	1.39777	1.38403	1.6005	83.93	-0.2354	0.0797	0.3151	1111.77	0.207349	-388.290587	-388.282233	-388.281289	-388.322969	34.35	
C	-0.0637887585	 1.5502750666	 0.0120858724	-0.428429
C	-0.0092733545	 0.0087829431	 0.0019464646	 0.332023
C	-1.4534612856	-0.5190593974	 0.0610290514	-0.429756
C	 0.6641574684	-0.489575465	-1.3265562374	-0.252457
C	 2.066773494	-1.0443957315	-1.1009662833	 0.095891
C	 2.9027785636	-0.1956834397	-0.1235524913	-0.257199
C	 2.1528487565	-1.0546066574	 0.9129831893	 0.095889
C	 0.7748382995	-0.5027007896	 1.2630283045	-0.252449
O	 1.9741325681	-2.09404875	-0.0934906905	-0.299668
H	 0.9322810638	 2.0012961457	-0.0280340145	 0.112825
H	-0.6302923105	 1.9254701063	-0.8476425981	 0.109909
H	-0.5550171799	 1.9165125297	 0.920599496	 0.109908
H	-2.0374519344	-0.1702233774	-0.7985754463	 0.106725
H	-1.46712549	-1.6136925982	 0.0564760453	 0.11962
H	-1.9620363693	-0.1785349428	 0.9704498153	 0.106724
H	 0.0665471657	-1.2930409932	-1.7709470701	 0.101589
H	 0.6950181361	 0.3240083658	-2.0618352153	 0.088927
H	 2.5336337173	-1.4000407078	-2.0240348656	 0.071415
H	 3.9619644101	-0.4542053961	-0.1701264119	 0.10783
H	 2.7782702323	 0.8878117345	-0.1127364849	 0.098755
H	 2.6966126283	-1.4193744312	 1.7892041801	 0.071415
H	 0.8686572112	 0.3034094059	 2.0011946135	 0.088926
H	 0.2169775478	-1.3108933403	 1.7486156069	 0.101587
76.877	214.9395	269.2438	291.9456	317.7138	354.7392	362.6307	403.9632	420.2598	433.0804	540.2316	601.6072	712.5139	823.4641	854.2999	866.6055	867.4361	916.5188	932.5799	939.1273	956.4059	965.0241	989.9301	1005.499	1049.8489	1055.584	1106.6345	1111.4411	1143.2683	1184.0987	1213.7748	1218.1414	1252.7786	1273.2089	1287.8102	1331.6304	1342.0761	1356.148	1358.2331	1387.1899	1396.3587	1425.5478	1475.7783	1477.2316	1487.0628	1490.7871	1494.2656	1507.807	1510.9566	3018.0699	3022.1021	3023.7067	3030.1575	3064.2634	3064.7041	3066.999	3068.7071	3084.2226	3084.652	3091.7823	3099.2766	3102.2049	3140.4717
CC1(C)CC2CC(C1)O2	CC1(C)C[C@H]2C[C@@H](C1)O2	
InChI=1S/C8H14O/c1-8(2)4-6-3-7(5-8)9-6/h6-7H,3-5H2,1-2H3	InChI=1S/C8H14O/c1-8(2)4-6-3-7(5-8)9-6/h6-7H,3-5H2,1-2H3/t6-,7+
