18
gdb 77423	1.81462	1.68816	1.61567	1.2623	72.19	-0.1988	0.0654	0.2641	1026.1275	0.144788	-438.973127	-438.963961	-438.963016	-439.006715	34.564	
C	-0.1241309011	 1.6150517649	-0.0976743628	-0.432229
C	 0.1818818437	 0.1312993781	 0.0373843683	-0.148451
C	 1.4513148448	-0.6972421019	-0.178821794	 0.266994
O	 1.5385508486	-1.6880570153	-1.1415207302	-0.45472
C	 2.7288436576	-0.184881688	 0.5589280177	-0.127684
N	 2.4470282888	 1.0955908637	 1.2586135393	-0.339893
C	 2.0163658103	-0.1981784047	 1.8495721802	-0.090283
C	 0.7198651298	-0.711952299	 1.1680454169	 0.336453
O	 0.0219601438	-1.6716302779	 1.8796475418	-0.460969
H	-0.2026463025	 1.8890291608	-1.1568735464	 0.101418
H	-1.0925134362	 1.8360745083	 0.366692861	 0.108677
H	 0.6398004787	 2.2297029747	 0.3684343206	 0.157716
H	-0.6063416514	-0.4723592823	-0.4295198483	 0.076509
H	 1.5942832998	-1.2670378538	-2.0075598488	 0.286237
H	 3.7342340348	-0.5104322248	 0.3240413414	 0.099056
H	 3.3043348824	 1.3687148435	 1.7414127084	 0.229804
H	 2.3450611025	-0.5296350396	 2.8255502889	 0.103072
H	-0.6769464845	-2.0221901164	 1.317422606	 0.288293
86.1164	108.1391	178.0339	198.4783	263.6934	274.9818	296.5909	347.6742	362.0905	411.0511	565.5627	585.3697	635.6192	710.4015	750.5937	783.2257	809.5443	868.8493	886.8971	904.4598	975.0411	1014.4591	1075.8727	1093.2559	1098.9554	1110.8345	1115.8578	1170.3987	1235.3563	1258.5887	1274.1877	1326.1813	1341.0113	1365.85	1394.1476	1401.6135	1483.2267	1510.7083	1511.835	3023.5231	3035.7032	3075.0694	3194.0606	3195.1035	3209.6452	3450.8469	3769.541	3816.2808
CC1C2(O)C3NC3C12O	C[C@H]1[C@@]2(O)[C@H]3N[C@H]3[C@@]12O	
InChI=1S/C6H9NO2/c1-2-5(8)3-4(7-3)6(2,5)9/h2-4,7-9H,1H3	InChI=1S/C6H9NO2/c1-2-5(8)3-4(7-3)6(2,5)9/h2-4,7-9H,1H3/t2-,3-,4+,5+,6-
