18
gdb 82666	2.98359	1.72806	1.36519	3.6987	75.84	-0.2097	-0.0049	0.2048	974.8965	0.14917	-401.90382	-401.896758	-401.895814	-401.935057	28.642	
C	-0.1653081859	 1.4055061647	 0.0386591115	-0.334166
N	 0.1265024709	-0.0181487102	 0.0545560527	-0.065337
C	 0.9534950157	-0.5405389672	-1.0519985921	-0.010662
C	 2.3576388136	 0.1084694642	-0.8746159415	-0.260193
C	 2.3752455844	-0.7333680341	 0.4078246027	-0.047133
C	 1.5148425161	-1.8466022003	-0.3539436802	-0.192367
C	 0.7483062201	-2.017500266	 0.9449415173	 0.491847
O	 0.3577108563	-2.9383002505	 1.5988881594	-0.333821
C	 0.982788851	-0.5122585954	 1.1623731861	-0.167754
H	 0.7129981151	 2.0669490385	 0.1142334277	 0.101912
H	-0.6933803775	 1.6467174748	-0.8900364868	 0.124264
H	-0.8343240312	 1.6413243911	 0.8720765978	 0.128604
H	 0.4395536	-0.5766082555	-2.0122799807	 0.081465
H	 3.0707241268	-0.2830727197	-1.6041765257	 0.110287
H	 2.4458160117	 1.1960371223	-0.8212748495	 0.101909
H	 3.2579848226	-0.9621746593	 1.0008437767	 0.089601
H	 1.9311021885	-2.6456729742	-0.9615679492	 0.093572
H	 0.867951142	-0.0032131132	 2.1159562739	 0.087969
139.1543	189.1617	241.0813	294.0205	370.3858	506.6066	520.9823	573.3195	612.2604	712.2509	766.7265	801.5688	816.6827	836.1647	844.7966	924.6344	952.7751	993.1745	1017.1517	1029.7358	1043.3432	1064.1473	1099.9768	1127.5769	1149.4992	1161.8024	1177.2291	1187.2598	1206.2157	1239.3317	1245.6246	1261.3878	1279.4602	1334.4717	1451.7154	1482.9283	1498.084	1517.4437	1901.7061	2970.0147	3061.9701	3066.6262	3101.9806	3118.0692	3121.3121	3143.6908	3159.8681	3162.772
CN1C2CC3C2C(=O)C13	CN1[C@H]2C[C@@H]3[C@H]2C(=O)[C@H]13	
InChI=1S/C7H9NO/c1-8-4-2-3-5(4)7(9)6(3)8/h3-6H,2H2,1H3	InChI=1S/C7H9NO/c1-8-4-2-3-5(4)7(9)6(3)8/h3-6H,2H2,1H3/t3-,4+,5-,6-/m1/s1
