16
gdb 79285	3.03103	1.66499	1.50225	2.7275	66.94	-0.2223	-0.0193	0.2029	907.7988	0.127547	-437.887876	-437.881363	-437.880418	-437.918624	26.84	
O	 0.0630329478	 1.4006540406	 0.118783711	-0.445209
C	 0.0394708977	 0.0017207306	 0.0328457745	 0.172665
C	-1.3586751014	-0.5736468771	-0.2379552194	-0.115417
C	-1.4880893489	-0.6074984394	-1.7226173235	-0.02574
N	-0.2486327677	-0.0301441175	-2.2678736613	-0.328174
C	 0.6968215186	-0.5673964837	-1.2562853909	-0.211493
C	 0.3040990071	-2.058339366	-1.1293192308	 0.449617
O	 0.9996728219	-3.0384003187	-1.1289350578	-0.339221
C	-1.1800998237	-1.9125815771	-0.9855509213	-0.216262
H	-0.1590445118	 1.720639706	-0.7671725585	 0.290801
H	 0.5025565616	-0.3924893968	 0.9408021297	 0.102375
H	-2.1973387362	-0.4018392373	 0.4224614139	 0.110503
H	-2.4137312076	-0.4414706683	-2.255800554	 0.112155
H	-0.0407697677	-0.4169157928	-3.1861663962	 0.232945
H	 1.7419162572	-0.3345037089	-1.4376722177	 0.097324
H	-1.8644416268	-2.7438028135	-0.9000696178	 0.113131
141.5747	222.7912	306.4688	424.7997	485.2998	499.9754	547.2416	601.7414	715.4339	762.2325	787.3279	799.5412	843.5073	849.1543	871.353	921.6803	934.8576	984.4018	1000.7698	1029.0621	1047.8997	1062.2888	1100.2733	1107.9031	1156.8227	1177.5345	1221.1429	1259.811	1276.8821	1299.2291	1305.9396	1358.2449	1404.6643	1446.1124	1866.5351	3091.9473	3175.3974	3213.1694	3220.0249	3234.4397	3487.2347	3743.895
OC1C2C3NC1C(=O)C23	O[C@H]1[C@H]2[C@H]3N[C@@H]1C(=O)[C@@H]23	
InChI=1S/C6H7NO2/c8-5-1-2-3(1)7-4(5)6(2)9/h1-5,7-8H	InChI=1S/C6H7NO2/c8-5-1-2-3(1)7-4(5)6(2)9/h1-5,7-8H/t1-,2+,3-,4+,5+/m1/s1
