19
gdb 41994	3.31362	1.52002	1.10654	3.9253	77.26	-0.2273	0.0299	0.2571	1098.3219	0.163934	-419.22378	-419.216601	-419.215656	-419.255298	28.666	
C	 0.0249606825	 1.393232771	-0.2631715281	-0.084192
C	 1.4351782189	 1.9253472232	 0.0394925539	-0.274039
C	 2.20591468	 0.6100248698	 0.1667981991	-0.069053
N	 3.3995942407	 0.5954291717	 0.9922662626	-0.315904
C	 3.7891455052	-0.802743935	 1.2205052235	-0.184515
C	 2.6920531099	-1.5177589078	 2.0240610299	-0.125893
N	 1.3170471873	-1.230135304	 1.6205168369	-0.318201
C	 1.157062448	-0.2774062998	 0.8143932354	 0.453424
O	-0.0831540435	 0.145981755	 0.4468231802	-0.247331
H	-0.7771454523	 2.0470705865	 0.0864114575	 0.123917
H	-0.1176579854	 1.2082412922	-1.335482812	 0.110863
H	 1.8091191272	 2.5926856138	-0.7403887254	 0.105714
H	 1.4567605934	 2.4519971055	 0.998470411	 0.127097
H	 2.3876950696	 0.210297025	-0.8523679361	 0.075204
H	 4.1522766614	 1.0938647902	 0.5294209377	 0.220398
H	 3.9585079966	-1.3429590681	 0.2701895394	 0.08179
H	 4.7285570743	-0.824080618	 1.7812753388	 0.102187
H	 2.8529135117	-2.6009364197	 1.9699475161	 0.104627
H	 2.7768169344	-1.2458083014	 3.0843502796	 0.113904
130.3682	178.4188	252.5011	290.8585	389.3907	397.9624	480.004	533.3869	628.5085	663.857	691.554	777.7987	838.7341	867.8454	900.3413	924.3762	955.3405	990.6282	1056.7583	1060.174	1091.558	1120.3004	1157.0506	1170.8063	1198.6113	1211.6933	1238.2183	1249.4304	1264.9355	1300.5366	1324.3439	1357.6273	1371.7985	1402.0295	1428.7963	1472.4189	1484.5439	1494.679	1501.6288	1525.4521	1798.4838	2881.0666	2923.5475	3020.5172	3026.5542	3054.3171	3062.0264	3077.0544	3102.1809	3119.0163	3518.8023
C1CC2NCCN=C2O1	C1C[C@H]2NCCN=C2O1	
InChI=1S/C6H10N2O/c1-4-9-6-5(1)7-2-3-8-6/h5,7H,1-4H2	InChI=1S/C6H10N2O/c1-4-9-6-5(1)7-2-3-8-6/h5,7H,1-4H2/t5-/m1/s1
