21
gdb 118174	4.11758	0.64262	0.60886	2.9666	76.24	-0.2396	-0.0099	0.2296	1859.2892	0.17868	-461.376285	-461.365033	-461.364089	-461.414125	39.09	
C	 0.1812513118	 0.8887540633	 0.9024758811	-0.481788
C	 0.0558150464	 0.0295544094	-0.3372781406	 0.395287
O	 0.9334660642	-0.0517121243	-1.1657628915	-0.307398
C	-1.2242739819	-0.7925317344	-0.4860371196	-0.306951
C	-0.9986765251	-2.2396250427	-0.0004891108	 0.123441
O	-0.6570558318	-2.2703031057	 1.387157322	-0.434078
C	-2.1953736279	-3.1420197806	-0.3077984702	-0.197839
C	-1.9612275142	-4.5974016799	 0.0806666665	-0.077459
O	-3.1487306212	-5.315776656	-0.2191074586	-0.422316
H	 1.1380500081	 1.4121188922	 0.9067300063	 0.138308
H	-0.6406876587	 1.6120032133	 0.9551789631	 0.131128
H	 0.1012621744	 0.2403098107	 1.7821168357	 0.149455
H	-2.0574401755	-0.3484960489	 0.0726181651	 0.089504
H	-1.4872298128	-0.8104017167	-1.5478953225	 0.125522
H	-0.1079369989	-2.6263352869	-0.5098238458	 0.113148
H	-1.4538835325	-2.0586136099	 1.8876193834	 0.279227
H	-3.0844019952	-2.7721861316	 0.2227954492	 0.096266
H	-2.4293989975	-3.0927441843	-1.3770905077	 0.113941
H	-1.0998229023	-4.9934959565	-0.4815132694	 0.089682
H	-1.7081735668	-4.6589153487	 1.1485449996	 0.095807
H	-3.0182193927	-6.2320756917	 0.0414820447	 0.287111
34.7933	55.5724	86.0885	115.2192	126.2932	171.2516	205.0481	265.204	282.5705	336.3753	375.6832	398.5023	442.6685	499.4494	535.8763	632.0748	798.6844	801.8835	864.4116	912.8673	973.155	1010.1885	1014.4679	1055.7415	1079.697	1099.8108	1110.7099	1157.133	1208.0163	1232.6534	1241.8169	1286.3287	1299.5915	1331.0311	1350.9213	1373.2108	1376.3683	1421.483	1460.4175	1461.9722	1472.5511	1476.6378	1488.1175	1531.4081	1812.5317	2970.2169	3011.8951	3018.9937	3029.3088	3035.4312	3051.972	3076.0307	3098.5417	3101.0329	3152.6183	3788.2319	3830.7324
CC(=O)CC(O)CCO	CC(=O)C[C@@H](O)CCO	
InChI=1S/C6H12O3/c1-5(8)4-6(9)2-3-7/h6-7,9H,2-4H2,1H3	InChI=1S/C6H12O3/c1-5(8)4-6(9)2-3-7/h6-7,9H,2-4H2,1H3/t6-/m0/s1
