21
gdb 87881	2.98412	1.2389	1.21798	1.6274	82.04	-0.2287	0.0739	0.3026	1159.4411	0.182297	-387.03996	-387.03124	-387.030295	-387.073974	33.399	
O	-0.2508006577	 1.4284485668	-0.3615284569	-0.428381
C	-0.1633842374	 0.036320154	-0.2516907205	 0.086089
C	-0.2099095574	-0.6692444035	 1.079318094	-0.401562
C	-1.354584773	-0.8041357861	 0.0967216008	 0.321023
C	-2.7897055792	-0.2876769034	 0.3127973508	-0.335117
C	-3.3181834955	-1.5224513336	-0.46632163	-0.003047
C	-3.3697515078	-1.3556446129	-2.0114711785	-0.221609
C	-1.9560485895	-2.0021833048	-2.1404860666	-0.222476
C	-1.8526751393	-2.0822712551	-0.5954270689	-0.114463
H	-1.0212545547	 1.7251216823	 0.1338464903	 0.284193
H	 0.5281683753	-0.3424905606	-0.998828749	 0.104246
H	 0.4419201533	-1.5234587964	 1.2389160466	 0.111351
H	-0.3816472209	-0.0641193629	 1.9660446113	 0.105871
H	-3.0946591192	-0.2699239449	 1.3637939505	 0.102038
H	-3.0333157286	 0.6851417209	-0.1340286304	 0.089496
H	-4.1319454998	-2.0825307109	-0.0051997268	 0.064404
H	-4.1643759249	-1.9279637033	-2.4959713691	 0.100242
H	-3.4454447117	-0.3189444555	-2.3521320916	 0.099106
H	-1.9846863604	-2.9867395936	-2.6147093861	 0.09725
H	-1.188186576	-1.4044609264	-2.6391934763	 0.100213
H	-1.5275174254	-3.0264442301	-0.1537692035	 0.061133
43.905	92.5854	133.6137	192.6425	216.9999	349.018	418.3379	427.2915	464.6401	564.7168	694.6747	747.916	775.4805	804.0613	831.9699	868.329	880.0104	897.9276	935.6237	955.9609	978.6588	1000.794	1020.0557	1037.9909	1075.7706	1093.3777	1107.8216	1134.423	1141.5411	1184.4255	1203.5441	1219.496	1243.5524	1248.7418	1267.2576	1286.1363	1292.9005	1299.81	1318.3097	1356.3619	1430.6387	1471.6855	1477.7415	1482.3276	1493.899	3013.506	3050.6532	3056.5263	3071.9906	3080.5263	3093.6557	3102.6039	3107.9249	3115.8186	3152.2424	3195.4204	3815.2157
OC1CC11CC2CCC12	O[C@H]1C[C@]21C[C@H]1CC[C@@H]21	
InChI=1S/C8H12O/c9-7-4-8(7)3-5-1-2-6(5)8/h5-7,9H,1-4H2	InChI=1S/C8H12O/c9-7-4-8(7)3-5-1-2-6(5)8/h5-7,9H,1-4H2/t5-,6-,7+,8-/m1/s1
