17
gdb 78056	2.92279	1.32843	1.07595	2.1936	74.02	-0.2492	-0.0376	0.2117	1125.1811	0.134021	-421.789249	-421.780796	-421.779852	-421.822766	30.868	
C	 0.2256824568	 1.5777574016	-0.2143269446	-0.448582
C	 0.1473307499	 0.057829615	-0.216851452	 0.037769
C	 1.3030482291	-0.8654444403	-0.7816546482	-0.200771
C	 2.0859966565	-0.6388023279	 0.5550920059	-0.06341
C	 2.9236614806	 0.5944617338	 0.7872439312	 0.09932
O	 3.5342341426	 1.1762826564	-0.0724432512	-0.237825
C	 0.5918115999	-0.7881577955	 1.0369216488	-0.223927
C	 0.5828485325	-1.9569968294	 0.0305656788	 0.44628
O	 0.2089375044	-3.0830128261	-0.0640047894	-0.317572
H	 0.160352077	 1.9589812647	-1.2385157023	 0.134578
H	-0.6259573018	 1.9810149862	 0.3436814372	 0.124645
H	 1.1338667583	 1.9865233235	 0.2262138472	 0.141908
H	-0.8366503956	-0.2366491425	-0.596753755	 0.097032
H	 1.7090503666	-0.896772812	-1.7891088063	 0.106899
H	 2.7252099823	-1.4771057079	 0.8707908789	 0.120302
H	 3.0168391233	 0.8872879077	 1.8586631577	 0.085645
H	 0.2074158175	-0.7444935975	 2.0538715834	 0.097709
66.3296	123.1281	153.5187	178.7979	232.3708	256.374	335.7923	472.228	513.9157	632.4162	697.046	709.9544	728.4923	756.493	818.9698	845.3136	986.859	1007.9467	1027.4329	1031.4093	1070.3812	1081.2938	1099.4095	1107.3585	1140.7114	1171.1124	1187.3777	1231.5034	1255.6513	1370.3798	1415.3712	1423.4986	1436.1994	1488.768	1502.5533	1817.4645	1922.6639	2863.9594	3003.403	3043.2069	3051.5743	3101.5767	3145.3986	3158.8654	3163.9737
CC1C2C(C=O)C1C2=O	C[C@H]1[C@H]2[C@@H](C=O)[C@@H]1C2=O	
InChI=1S/C7H8O2/c1-3-5-4(2-8)6(3)7(5)9/h2-6H,1H3	InChI=1S/C7H8O2/c1-3-5-4(2-8)6(3)7(5)9/h2-6H,1H3/t3-,4+,5-,6+
