19
gdb 83838	2.28464	1.83141	1.25216	3.45	75.4	-0.2187	0.0056	0.2242	1049.2994	0.161442	-419.206723	-419.198595	-419.197651	-419.239326	31.289	
C	-0.3875464378	 1.3602480128	 0.3257817032	-0.411791
C	-0.038175768	-0.0721971913	 0.005900575	-0.013888
C	 0.6231074342	-0.5296260589	-1.2707282847	-0.050302
C	 1.2365809263	 0.3687043491	-2.3297776641	-0.21299
N	 2.6937464658	 0.1714241735	-2.3744194164	-0.284848
C	 3.3175571621	 0.4978209861	-1.0869415486	-0.265525
C	 2.4340570658	 0.3303318116	 0.161726839	 0.351629
O	 2.6827098077	 0.8900082008	 1.2064117178	-0.350636
N	 1.3502457096	-0.5283626576	-0.0019807726	-0.095031
H	 0.2332582333	 2.0777863705	-0.2147593531	 0.128817
H	-1.4356391916	 1.5514123302	 0.0750714242	 0.122799
H	-0.2463867528	 1.5506458636	 1.3935133478	 0.153323
H	-0.709641324	-0.7985096094	 0.4616504678	 0.103406
H	 0.3646234658	-1.5295311328	-1.6209770804	 0.095538
H	 0.8161683983	 0.150456855	-3.3152955801	 0.114085
H	 1.0461906792	 1.4275234442	-2.1240340634	 0.119087
H	 2.8802389602	-0.7992983864	-2.6045844024	 0.22253
H	 4.2261330864	-0.0988200211	-0.9568084862	 0.13525
H	 3.6347870295	 1.54784351	-1.0755143926	 0.138546
98.1276	138.8254	181.046	200.4759	296.8182	386.3494	400.5838	484.6896	499.2226	550.6342	595.8295	666.8687	705.1216	780.4498	812.2026	874.0217	946.6096	962.2949	976.9936	1010.3157	1052.025	1109.9358	1116.0215	1130.882	1166.3353	1180.1547	1196.5785	1221.523	1316.869	1327.3034	1358.6144	1366.8246	1393.3283	1419.8192	1436.1781	1460.5909	1477.5799	1484.9461	1489.8324	1501.3906	1792.7574	3036.9173	3046.6351	3051.9134	3086.0916	3088.2783	3105.2532	3113.6199	3116.2823	3135.4136	3517.39
CC1C2CNCC(=O)N12	C[C@H]1[C@H]2CNCC(=O)N12	
InChI=1S/C6H10N2O/c1-4-5-2-7-3-6(9)8(4)5/h4-5,7H,2-3H2,1H3	InChI=1S/C6H10N2O/c1-4-5-2-7-3-6(9)8(4)5/h4-5,7H,2-3H2,1H3/t4-,5+,8?/m0/s1
