20
gdb 14910	4.23327	1.38033	1.11527	0.8576	80.73	-0.255	0.0616	0.3166	1098.1669	0.178713	-311.86528	-311.85745	-311.856506	-311.897089	31.	
C	 0.0083084636	-1.2298379082	-0.021638668	-0.439319
C	-0.0036621444	-0.0273116458	-0.0093872104	 0.293913
C	-0.0051139792	 1.4315160098	 0.029893306	-0.156942
C	-0.7584407921	 1.9662662088	 1.2715176229	-0.183235
C	-0.756926996	 3.500387973	 1.3092209037	-0.202574
C	 0.6684248419	 4.0671095677	 1.2478885148	-0.17823
C	 1.4259095476	 3.5372447045	 0.0223150563	-0.202589
C	 1.4321400381	 2.0032520059	-0.0198894622	-0.183233
H	 0.0145278132	-2.2912170262	-0.0416135377	 0.188276
H	-0.5373596197	 1.7949635508	-0.8625347591	 0.098474
H	-1.782387895	 1.5790146679	 1.2736155417	 0.101798
H	-0.2706904651	 1.5700920557	 2.1713345951	 0.103189
H	-1.3361110957	 3.8835837062	 0.4574128357	 0.093085
H	-1.2682934976	 3.8497005113	 2.2132223614	 0.09243
H	 0.6414232618	 5.1624492111	 1.2334659509	 0.090512
H	 1.2107479663	 3.7803304051	 2.159551971	 0.093958
H	 0.9513587107	 3.922183964	-0.8911913935	 0.093084
H	 2.4553873495	 3.912594859	 0.0178854868	 0.092426
H	 1.9931867759	 1.6083659204	 0.8367387522	 0.103187
H	 1.9391496562	 1.6418214989	-0.9203014577	 0.101788
110.1212	146.9362	229.7133	252.7538	352.3667	382.5474	432.0247	493.9126	518.6536	534.8135	621.6429	630.1817	782.218	792.4241	845.3632	886.5477	898.6565	928.3683	951.849	1037.7634	1053.6487	1064.6674	1080.6063	1093.7567	1156.265	1198.5404	1259.1734	1282.9148	1285.8013	1324.6624	1325.0265	1351.4719	1368.5488	1378.9642	1382.6156	1392.1145	1481.9382	1484.7105	1486.6764	1490.9008	1505.3979	2233.3566	2985.443	3009.0398	3010.1772	3015.796	3027.1089	3031.5956	3062.1661	3062.2754	3067.137	3077.4353	3081.0428	3506.1204
C#CC1CCCCC1	C#CC1CCCCC1	
InChI=1S/C8H12/c1-2-8-6-4-3-5-7-8/h1,8H,3-7H2	InChI=1S/C8H12/c1-2-8-6-4-3-5-7-8/h1,8H,3-7H2
