23
gdb 121402	4.12725	0.8198	0.72245	1.6391	83.28	-0.247	0.0871	0.334	1635.1805	0.206407	-425.434056	-425.424607	-425.423663	-425.468934	35.272	
C	-0.1046044938	 1.5340986559	-0.0531478728	-0.382282
C	-0.0359660354	 0.032368988	 0.1726511781	-0.042704
O	-1.3201269943	-0.5096815363	-0.06758271	-0.258874
C	-1.3993899992	-1.9231741152	-0.0279746314	 0.143848
C	-1.3442643057	-2.4957562978	 1.3971608474	-0.227408
C	-1.6394815431	-3.9996047842	 1.3732142605	-0.077588
O	-2.8847111129	-4.2854091878	 0.7637881312	-0.239377
C	-2.9299890663	-3.840272907	-0.5805513595	-0.084696
C	-2.7171934023	-2.3275256275	-0.6885800487	-0.219785
H	 0.8737347928	 1.9922407036	 0.1206638628	 0.112562
H	-0.4164183387	 1.7535947268	-1.0781761487	 0.124951
H	-0.8276826545	 1.9906956801	 0.628722566	 0.126705
H	 0.7011091881	-0.4269289371	-0.5080229682	 0.082777
H	 0.2991100643	-0.1797843905	 1.2000846952	 0.088282
H	-0.5625395378	-2.350615139	-0.610752372	 0.056958
H	-0.3653394447	-2.3250051566	 1.8583055107	 0.09302
H	-2.0967288643	-1.984191757	 2.0084717594	 0.110141
H	-0.8288173606	-4.5317777796	 0.8437796534	 0.082952
H	-1.6935033774	-4.4038868841	 2.3880327367	 0.108292
H	-2.167849212	-4.3713128002	-1.1783583324	 0.083021
H	-3.9126395619	-4.1257449896	-0.9663517372	 0.108606
H	-3.5366735234	-1.8051347244	-0.1821106026	 0.112339
H	-2.7231105769	-2.0149828005	-1.738150808	 0.098261
56.1404	78.2301	115.4678	207.8243	228.2672	252.7147	304.251	348.5372	374.6059	478.031	480.1145	506.3823	619.1108	819.1893	822.7697	831.4621	874.9324	900.6431	921.5248	993.4202	1002.8789	1019.6761	1064.9942	1104.2599	1126.2029	1150.8517	1159.4214	1178.5063	1189.1567	1192.3647	1258.7676	1276.113	1298.4142	1307.629	1330.0504	1346.5985	1372.5873	1384.2392	1395.2261	1403.7991	1425.5346	1437.9087	1472.9229	1483.3793	1490.1555	1494.0903	1499.9287	1505.3798	1529.5195	2928.4543	2945.3461	2953.2172	2958.2712	2990.4161	3037.479	3042.973	3044.3471	3082.8104	3086.1443	3087.0986	3091.4684	3118.5396	3121.514
CCOC1CCOCC1	CCOC1CCOCC1	
InChI=1S/C7H14O2/c1-2-9-7-3-5-8-6-4-7/h7H,2-6H2,1H3	InChI=1S/C7H14O2/c1-2-9-7-3-5-8-6-4-7/h7H,2-6H2,1H3
