22
gdb 104310	2.85013	1.27338	1.19328	0.1616	81.01	-0.234	0.0698	0.3038	1186.2177	0.194849	-404.342365	-404.333321	-404.332377	-404.375664	35.572	
C	 0.086104942	 1.5412681249	-0.0004974139	-0.407011
C	-0.014794077	 0.0116293022	 0.001594328	-0.213874
C	-1.4483903383	-0.5353052973	-0.0159233369	 0.414708
O	-2.1529843359	-0.1882297128	 1.1837606591	-0.492865
C	-2.2696756955	-0.134784804	-1.2738026895	-0.267805
C	-3.3076172842	-1.2644908039	-1.473505385	-0.214778
C	-2.6139431216	-2.4919524211	-0.9138710547	-0.028945
N	-1.2097260737	-2.6212558767	-1.374703312	-0.354403
C	-1.502167378	-2.0563070725	-0.0410317719	-0.058587
H	 1.1318840398	 1.86172837	 0.0225005391	 0.117898
H	-0.3733211032	 1.9784105172	-0.8930509667	 0.120725
H	-0.3991656987	 1.9810824202	 0.8790805247	 0.104385
H	 0.5113508125	-0.3981688584	-0.8676591739	 0.112916
H	 0.4851068211	-0.3825076651	 0.8948781907	 0.093123
H	-2.217632675	 0.7713099892	 1.2182594431	 0.276309
H	-2.7378451125	 0.8457044359	-1.1477818033	 0.083439
H	-1.6076145389	-0.0792053499	-2.1409408186	 0.115813
H	-4.2116185085	-1.0712590408	-0.8859736543	 0.105587
H	-3.6032229398	-1.3766306918	-2.5212796204	 0.097521
H	-3.1786885168	-3.3953183072	-0.7074782007	 0.08189
H	-0.9116637811	-3.5868914911	-1.2630301781	 0.230056
H	-1.2100803264	-2.5946329272	 0.8546290353	 0.083896
94.5784	126.5628	174.4457	230.0886	257.306	286.4638	337.2433	376.9255	387.9952	429.7606	501.3669	613.8632	665.4222	750.7397	786.122	826.7172	833.639	870.7822	909.6378	942.6427	964.4816	978.4397	995.5552	1008.6177	1025.1508	1071.5939	1098.4034	1123.9748	1131.6578	1166.7014	1196.5974	1217.5652	1229.436	1260.5837	1307.1772	1313.9075	1335.3778	1337.7639	1373.5182	1401.385	1418.2446	1432.6027	1469.8303	1480.3329	1485.6054	1500.5652	1509.7072	3028.1043	3030.9483	3044.7164	3061.5354	3070.772	3085.3524	3095.185	3106.56	3112.2268	3159.7332	3171.53	3505.2827	3819.8342
CCC1(O)CCC2NC12	CC[C@@]1(O)CC[C@H]2N[C@@H]12	
InChI=1S/C7H13NO/c1-2-7(9)4-3-5-6(7)8-5/h5-6,8-9H,2-4H2,1H3	InChI=1S/C7H13NO/c1-2-7(9)4-3-5-6(7)8-5/h5-6,8-9H,2-4H2,1H3/t5-,6-,7-/m1/s1
