15
gdb 17161	4.30745	1.94464	1.60324	2.9719	66.49	-0.2458	-0.041	0.2048	801.1334	0.118799	-362.564138	-362.557673	-362.556729	-362.594963	24.544	
O	 0.044405048	-0.0430782078	 0.1908092918	-0.243936
C	 0.1286492756	 1.1596992559	 0.2194726399	 0.032913
C	 1.4147232617	 1.8931527735	 0.062204642	 0.291174
C	 2.8458519668	 1.3668006364	 0.1524444761	-0.304824
C	 2.9639973754	 2.8833011337	-0.019516238	 0.000045
C	 1.7688949174	 2.9922346665	-1.0109903024	-0.10011
C	 1.1505992304	 4.0640523333	-0.124920012	-0.192972
N	 1.7602059845	 3.1495932649	 0.935226116	-0.187122
H	-0.769832542	 1.8009934567	 0.358915506	 0.081132
H	 3.1455357914	 0.9617005891	 1.1213865419	 0.120869
H	 3.1919168204	 0.7460085031	-0.6759202695	 0.113701
H	 3.841233612	 3.5303830823	 0.0272145155	 0.092199
H	 1.7763039644	 2.8661977247	-2.0984675474	 0.081098
H	 1.60426647	 5.0602426244	-0.1416570443	 0.107858
H	 0.0613224939	 4.1457172433	-0.0711337157	 0.107975
82.6936	178.2793	257.0939	367.7445	421.461	505.8836	668.4879	690.9223	788.8179	815.0389	869.5577	874.9085	920.8415	951.6038	998.5564	1016.5514	1024.788	1044.3016	1089.9307	1108.0983	1145.2822	1155.6129	1167.6651	1219.2876	1235.2417	1273.6796	1279.3826	1328.455	1424.1121	1494.4121	1525.4274	1814.1891	2883.4932	3042.9352	3057.4328	3072.6368	3103.4664	3107.8666	3140.6283
O=CC12CC3C1CN23	O=C[C@@]12C[C@H]3[C@@H]1CN23	
InChI=1S/C6H7NO/c8-3-6-1-5-4(6)2-7(5)6/h3-5H,1-2H2	InChI=1S/C6H7NO/c8-3-6-1-5-4(6)2-7(5)6/h3-5H,1-2H2/t4-,5-,6-/m0/s1
