16
gdb 65417	3.93822	0.86148	0.78025	3.917	76.69	-0.2779	-0.0005	0.2774	1440.8222	0.120867	-400.706511	-400.697018	-400.696074	-400.741355	33.821	
C	 0.1172830873	 1.5022124403	-0.2226442752	-0.468359
C	-0.0355327899	 0.0318188238	 0.1028333885	 0.21956
O	 1.1533287695	-0.7698313782	 0.1228264831	-0.257681
C	 0.445977491	-0.6128567642	 1.3493104322	 0.031263
C	 1.1273719478	 0.1441407808	 2.4776322532	-0.395535
C	 1.9921942221	-0.7276787128	 3.2651450695	 0.293871
C	 2.6919199405	-1.4653060938	 3.9042403762	-0.421839
C	-1.1681385998	-0.6040011016	-0.5593506841	 0.256956
N	-2.0822972856	-1.078976284	-1.0830166804	-0.326708
H	 0.9925888406	 1.9222258008	 0.2733782181	 0.140682
H	 0.2391709268	 1.6322557888	-1.3015002343	 0.154415
H	-0.7730658026	 2.0565587503	 0.0883290411	 0.147256
H	-0.0802646955	-1.5111965103	 1.6720936694	 0.127313
H	 1.709682577	 0.9767690057	 2.0723640516	 0.145286
H	 0.3518179068	 0.5777061349	 3.1231099388	 0.147532
H	 3.318475174	-2.1099539707	 4.4697433123	 0.20599
47.7851	95.8195	144.2586	164.3191	192.7113	237.2185	325.2914	329.8817	395.3802	428.0454	481.6432	582.4343	615.1543	631.0788	658.8065	688.5349	822.9876	890.4276	914.1238	967.8227	1013.6616	1085.0142	1107.1795	1125.9137	1228.5982	1242.6858	1320.5307	1340.013	1417.1048	1449.0766	1457.8719	1483.8934	1498.7982	2245.7328	2358.0209	3026.8337	3054.4532	3085.226	3120.4253	3122.0961	3152.0692	3505.6701
CC1(OC1CC#C)C#N	C[C@]1(O[C@H]1CC#C)C#N	
InChI=1S/C7H7NO/c1-3-4-6-7(2,5-8)9-6/h1,6H,4H2,2H3	InChI=1S/C7H7NO/c1-3-4-6-7(2,5-8)9-6/h1,6H,4H2,2H3/t6-,7-/m0/s1
