14
gdb 129467	4.85816	0.97099	0.82733	5.1163	63.22	-0.2633	-0.0326	0.2307	1286.144	0.100419	-470.016881	-470.008597	-470.007653	-470.051393	28.977	
N	 0.1138790295	 1.2966561174	-0.1385506976	-0.522518
C	-0.0817822365	 0.0518216185	 0.3746873605	 0.424942
O	 0.4687210438	-0.3315942761	 1.3892502917	-0.354634
C	-1.0922812237	-0.7984899197	-0.4000727556	-0.45042
C	-0.9114969619	-2.2678807527	-0.2065474455	 0.261653
C	-0.3862347757	-3.0066305462	 0.807365995	-0.021782
O	-0.4751142423	-4.2959777821	 0.4896309008	-0.165044
N	-1.0914751915	-4.355195937	-0.7939422898	-0.009213
N	-1.3272336068	-3.1745454686	-1.159850758	-0.187689
H	 0.7442616252	 1.9169500518	 0.3428408704	 0.268237
H	-0.2986584032	 1.5993145343	-1.0028862444	 0.265956
H	-2.0908558352	-0.4889326449	-0.0600633041	 0.158222
H	-1.0578786679	-0.5750669403	-1.4709767343	 0.137415
H	 0.0673967765	-2.7383505944	 1.7442870709	 0.194876
36.4854	48.0562	160.2957	177.9921	278.4509	325.8582	364.7	498.5799	596.508	634.3437	648.9507	656.8084	708.4891	785.7254	863.4479	877.076	963.7496	992.1877	1049.8082	1088.8717	1140.0104	1196.4449	1232.446	1288.5464	1334.2967	1404.074	1453.7926	1470.0302	1617.767	1621.4918	1795.4251	3017.4117	3081.3249	3320.7681	3606.004	3742.4469
NC(=O)CC1=CON=N1	NC(=O)Cc1conn1	
InChI=1S/C4H5N3O2/c5-4(8)1-3-2-9-7-6-3/h2H,1H2,(H2,5,8)	InChI=1S/C4H5N3O2/c5-4(8)1-3-2-9-7-6-3/h2H,1H2,(H2,5,8)
