19
gdb 79590	2.70918	1.53055	1.18394	3.0368	80.52	-0.2431	-0.0255	0.2176	1089.4952	0.158992	-385.860586	-385.852412	-385.851467	-385.893211	31.572	
C	-0.0064239614	 1.5784474498	 0.0878914382	-0.428371
C	 0.1474322222	 0.0740879021	 0.0169591657	 0.000899
C	 1.4407738098	-0.6599010144	-0.2238890306	-0.08202
C	 2.6157107893	-0.0439212522	 0.496150895	-0.088919
C	 3.1434656147	-0.9423780996	 1.5577613312	-0.324721
C	 1.8495053204	-0.2061240207	 1.8566385572	 0.245358
C	 1.7928044071	 0.8048653905	 2.9276150905	 0.059979
O	 2.759063834	 1.3263455263	 3.4372398333	-0.277192
C	 0.6832146331	-0.8165267269	 1.1151989568	-0.185528
H	 0.8429727344	 2.060640963	 0.5769503506	 0.129453
H	-0.0921490335	 2.0023700223	-0.9186476665	 0.120205
H	-0.911256514	 1.8518380335	 0.6414663902	 0.120081
H	-0.678898223	-0.410154522	-0.5028832911	 0.08956
H	 1.5356547126	-1.4027898647	-1.0083431124	 0.093933
H	 3.1497705641	 0.8520427795	 0.2001633325	 0.110044
H	 3.1025822472	-2.0203062373	 1.4297546242	 0.114698
H	 3.9965668504	-0.5673119097	 2.1134878973	 0.142569
H	 0.7610126633	 1.0764554033	 3.2470318822	 0.070126
H	 0.1344852094	-1.6894866228	 1.4523315657	 0.089845
94.6529	156.3747	181.4257	217.6396	247.5139	308.5605	381.7973	465.6306	516.1707	627.9765	711.9489	729.7433	752.9996	775.6954	839.7679	889.3135	928.315	965.3966	973.5216	1005.2683	1020.206	1050.8478	1071.358	1074.5954	1084.3654	1095.7452	1116.2882	1142.479	1207.4534	1215.0755	1281.0305	1298.2088	1343.2904	1363.3063	1414.2348	1432.3151	1442.5364	1476.4287	1498.6622	1501.9316	1794.9964	2871.6204	3035.0857	3092.1125	3110.832	3121.1728	3128.1407	3161.9684	3173.1868	3180.3842	3219.8623
CC1C2C3CC3(C=O)C12	C[C@H]1[C@H]2[C@@H]3C[C@]3(C=O)[C@@H]12	
InChI=1S/C8H10O/c1-4-6-5-2-8(5,3-9)7(4)6/h3-7H,2H2,1H3	InChI=1S/C8H10O/c1-4-6-5-2-8(5,3-9)7(4)6/h3-7H,2H2,1H3/t4-,5-,6-,7-,8+/m0/s1
