15
gdb 24784	2.5695	2.05705	1.15929	3.095	74.41	-0.2383	-0.0365	0.2018	989.376	0.116045	-416.86436	-416.857662	-416.856718	-416.895533	25.81	
O	 0.0698258143	-0.1184939558	 0.0010187684	-0.387357
C	-0.0165439889	 1.0931832897	 0.0089935028	 0.395953
C	-1.2101286286	 1.9333061407	 0.030106482	-0.234862
C	-1.1417516907	 3.2971661833	 0.0365019421	-0.009607
N	 0.0206917316	 4.0477271397	 0.0243125016	-0.380188
C	 1.0688239688	 3.2970774413	 0.005623279	 0.452783
C	 2.5809935163	 3.4190609024	-0.014960288	-0.375009
C	 2.5734492724	 1.8458758914	-0.0233898896	-0.176247
N	 1.1041805256	 1.9398507499	-0.002099987	-0.113465
H	-2.1658700012	 1.424064574	 0.0406339499	 0.119387
H	-2.057919738	 3.8810763432	 0.0524084811	 0.118695
H	 2.9943060124	 3.8878712364	-0.909531562	 0.148794
H	 3.0193811657	 3.8782199578	 0.8726533561	 0.148797
H	 2.9620777505	 1.3709372194	-0.9260859709	 0.146166
H	 2.9873775898	 1.3612330568	 0.8627492845	 0.146159
146.9364	183.2444	220.2546	297.6438	443.6455	508.0062	566.6824	602.4686	647.3312	718.5506	764.9244	801.9991	858.6774	870.5359	912.8424	1007.4111	1023.7475	1060.7975	1090.1685	1147.639	1154.9462	1178.3998	1221.3435	1233.5323	1278.6298	1296.7689	1412.0948	1426.4189	1466.428	1512.6247	1560.0954	1684.2532	1796.7902	3081.5943	3090.5321	3134.7275	3148.6987	3169.9083	3216.4708
O=C1C=CN=C2CCN12	O=c1ccnc2CCn12	
InChI=1S/C6H6N2O/c9-6-1-3-7-5-2-4-8(5)6/h1,3H,2,4H2	InChI=1S/C6H6N2O/c9-6-1-3-7-5-2-4-8(5)6/h1,3H,2,4H2
