21
gdb 62015	3.49764	0.65403	0.5942	4.021	80.7	-0.2449	-0.0203	0.2246	1892.2056	0.177779	-424.26498	-424.253661	-424.252716	-424.304224	38.128	
C	-0.0719214918	 1.5297821656	 0.1448216998	-0.409644
C	 0.0054186443	-0.0033144615	 0.0321081023	-0.069869
C	 0.7195237479	-0.4829994744	-1.250055293	-0.188451
C	-0.022248904	-0.1362660374	-2.5414065062	-0.313337
C	 0.6755857113	-0.6585750216	-3.7942689614	 0.379316
C	-0.0569290329	-0.4426475894	-5.1070540317	-0.473621
O	 1.7496646188	-1.2118798138	-3.7435829592	-0.28733
C	 0.7591596845	-0.5433054896	 1.2331253795	 0.160551
O	 0.3089934991	-1.2957031305	 2.0572834166	-0.248738
H	 0.9294368958	 1.9755245066	 0.139835192	 0.123561
H	-0.6337390593	 1.9614873536	-0.68771571	 0.125073
H	-0.5710223961	 1.8303318463	 1.0709408047	 0.131952
H	-1.0028337943	-0.4308730717	 0.0766064292	 0.091622
H	 1.7314003307	-0.0634314228	-1.2931583587	 0.116528
H	 0.851103692	-1.5695952873	-1.2074836446	 0.124117
H	-1.0471780334	-0.5327115636	-2.5265871296	 0.121301
H	-0.1383260272	 0.9491230485	-2.6628306531	 0.124175
H	-0.3102132847	 0.6145953531	-5.2421757638	 0.136155
H	 0.5619746342	-0.7845457109	-5.9372586721	 0.145263
H	-1.002437773	-0.9972075559	-5.1050055104	 0.141566
H	 1.8124187879	-0.1774547332	 1.3050710896	 0.06981
19.0391	48.2293	72.5532	73.376	108.1441	122.7574	206.7403	249.2509	277.1366	344.4698	358.9406	438.4086	480.0986	544.0208	606.4246	736.171	824.0528	871.5324	903.5214	910.0823	944.7268	975.9186	1008.7447	1063.098	1122.7364	1140.8422	1158.6976	1178.6413	1214.0063	1265.0951	1315.4555	1335.9704	1357.2662	1382.3396	1391.9582	1406.947	1428.5752	1450.1978	1465.0512	1476.3983	1485.3535	1496.2575	1505.4568	1813.1699	1837.3728	2837.8836	3017.6653	3034.4999	3037.3414	3041.282	3047.0519	3050.4619	3084.9777	3097.3315	3104.2509	3114.6776	3153.17
CC(CCC(C)=O)C=O	C[C@@H](CCC(=O)C)C=O	
InChI=1S/C7H12O2/c1-6(5-8)3-4-7(2)9/h5-6H,3-4H2,1-2H3	InChI=1S/C7H12O2/c1-6(5-8)3-4-7(2)9/h5-6H,3-4H2,1-2H3/t6-/m0/s1
