16
gdb 71454	4.06191	1.38606	1.24215	3.4751	67.79	-0.2281	0.0252	0.2533	991.4929	0.125724	-437.884698	-437.87757	-437.876626	-437.915885	28.767	
O	-0.1364283595	 1.411931482	-0.0775557715	-0.456363
C	-0.0189919323	 0.0370677987	-0.0542494121	 0.359303
C	 0.7090885013	-0.8137993556	-1.0932661716	-0.302654
C	-0.2760089232	-1.9945783292	-0.7351664025	-0.177565
C	-1.1609511451	-0.9613174675	 0.0149323752	-0.135814
C	-0.2854240738	-0.7782944079	 1.2205055549	-0.086961
N	 0.4166746387	-2.0078240837	 1.4682018816	-0.316029
C	 0.4333667183	-2.8152726251	 0.3469509254	 0.412525
O	 0.9844580641	-3.8861397848	 0.2378112928	-0.379364
H	 0.6317570307	 1.7946088758	 0.3614754104	 0.288845
H	 0.4978635049	-0.4398431938	-2.097082807	 0.122568
H	 1.7839018177	-0.9943181261	-0.9831128179	 0.104305
H	-0.6735887938	-2.5812390586	-1.557728003	 0.098606
H	-2.2355249464	-0.8435333605	-0.0166765344	 0.105572
H	-0.6677846534	-0.2356905492	 2.0762647676	 0.111452
H	 1.0956494318	-2.1341702046	 2.2013186921	 0.251573
136.8764	232.7214	283.42	328.2321	365.6667	419.2157	454.1141	489.2023	567.8305	670.3476	712.9644	752.3342	789.5121	818.7857	872.4686	899.1625	907.5148	930.0531	992.1685	1017.8124	1051.4578	1067.8667	1111.8367	1175.8448	1183.4036	1208.0698	1230.7748	1249.43	1294.4924	1308.38	1328.7365	1382.8958	1445.862	1499.5265	1836.5594	3044.7995	3118.0099	3165.882	3195.2806	3209.9078	3647.0237	3790.0717
OC12CC3C1C2NC3=O	O[C@]12C[C@@H]3[C@H]1[C@H]2NC3=O	
InChI=1S/C6H7NO2/c8-5-2-1-6(9)3(2)4(6)7-5/h2-4,9H,1H2,(H,7,8)	InChI=1S/C6H7NO2/c8-5-2-1-6(9)3(2)4(6)7-5/h2-4,9H,1H2,(H,7,8)/t2-,3+,4-,6-/m1/s1
