21
gdb 39355	2.69385	1.75238	1.25339	0.3683	89.04	-0.2132	0.0228	0.236	1070.1772	0.18515	-349.945679	-349.938164	-349.93722	-349.977164	31.255	
C	 0.0166044758	 1.5211427855	 0.2905688621	-0.354013
C	 1.2955079802	 0.7832726956	-0.0210469737	-0.088974
C	 2.2957360617	 0.4127172972	 1.067543725	-0.214136
C	 1.6621803427	-0.0918616763	 2.3938929114	-0.263717
C	 0.5850252454	-1.134673435	 2.1648203433	-0.260414
C	-0.1810648632	-0.9978529222	 1.0889909528	 0.334698
C	-1.2031926318	-1.7575863026	 0.2588368176	-0.336885
C	-0.8523599287	-0.8049249884	-0.9455246746	-0.335481
C	-0.0119885318	 0.0338233153	 0.0343230048	 0.308334
H	-0.1765639502	 1.8773925211	 1.2976034495	 0.113067
H	-0.3811888967	 2.1613265108	-0.4913706182	 0.107379
H	 1.7291363061	 0.9754313932	-0.9993320555	 0.081874
H	 2.9420826099	-0.3818134485	 0.6724576093	 0.09939
H	 2.9491006338	 1.265347845	 1.2878885036	 0.095795
H	 2.4586358952	-0.5019289614	 3.0242732054	 0.098556
H	 1.2592611934	 0.7630298434	 2.9541269934	 0.108112
H	 0.4927684362	-1.969702941	 2.8532153577	 0.079622
H	-1.0184869155	-2.8249982373	 0.109263554	 0.109658
H	-2.234390569	-1.633668073	 0.6057295304	 0.1125
H	-0.2649953068	-1.2988941802	-1.7245631574	 0.104522
H	-1.700731757	-0.2973900613	-1.4112806207	 0.100114
137.4823	204.3596	238.0547	271.9688	356.6108	397.8279	474.3655	506.1437	582.3595	660.3828	723.1537	743.9616	759.5425	817.2192	848.257	881.1062	901.1973	909.3927	916.5681	948.3436	1008.6916	1045.3373	1051.2405	1071.8032	1076.5726	1109.2548	1120.2435	1130.9737	1193.7926	1206.7616	1214.1563	1228.4408	1243.4607	1262.0298	1288.2107	1338.7909	1362.4296	1375.9101	1414.3661	1466.1876	1478.9393	1484.907	1490.3503	1499.4552	1759.7279	3007.3759	3018.423	3044.6083	3055.6588	3056.3374	3063.2084	3089.8954	3110.9355	3118.9924	3136.5676	3165.6356	3203.3155
C1C2CCC=C3CCC123	C1[C@H]2CCC=C3CC[C@]123	
InChI=1S/C9H12/c1-2-7-4-5-9(7)6-8(9)3-1/h2,8H,1,3-6H2	InChI=1S/C9H12/c1-2-7-4-5-9(7)6-8(9)3-1/h2,8H,1,3-6H2/t8-,9-/m1/s1
