18
gdb 100576	3.16911	0.90856	0.73675	6.5162	73.94	-0.2681	-0.0377	0.2304	1515.1117	0.143869	-439.105426	-439.095005	-439.094061	-439.14229	35.511	
C	 0.020216079	 1.4277420655	-0.8444281924	-0.242047
O	-0.1907959227	 0.033630245	-0.9383637239	-0.25006
C	 0.9871610955	-0.7488622632	-0.939260834	 0.030901
C	 1.6591211105	-0.8594366181	 0.431939088	-0.401955
C	 0.635404368	-2.1411995216	-1.4855968921	 0.358799
O	 1.4132584789	-3.0554291513	-1.4119177175	-0.277636
C	-0.745973729	-2.2741433591	-2.1434711336	-0.451226
C	-0.9939913941	-3.6008761274	-2.6908734829	 0.281369
N	-1.2135679427	-4.6441931099	-3.1336569751	-0.29799
H	 0.4331242306	 1.7220521967	 0.1293706567	 0.121237
H	 0.6982881825	 1.7842117253	-1.6345050465	 0.11342
H	-0.9534499857	 1.9063028251	-0.9700340657	 0.137659
H	 1.7101488198	-0.3274399649	-1.6619969311	 0.104763
H	 2.4732569361	-1.5843968078	 0.3758927685	 0.154726
H	 2.0672311275	 0.1024072452	 0.75094653	 0.122301
H	 0.9361804334	-1.1989904271	 1.1794996317	 0.131452
H	-1.5087914392	-2.014386873	-1.4013068525	 0.187055
H	-0.8434793182	-1.5125352594	-2.9249367077	 0.177231
32.8837	61.0682	84.8855	120.8382	190.6142	209.2359	212.9821	283.6366	341.1184	377.0563	410.7252	430.5207	460.0756	542.1016	666.0439	807.8941	872.9821	905.4116	949.2203	1019.8302	1078.8532	1085.1028	1132.2242	1170.9381	1184.2977	1205.0342	1227.1024	1316.9563	1338.483	1360.5649	1395.1376	1417.487	1478.2113	1485.0672	1493.1239	1501.9776	1511.9284	1832.1915	2375.2749	2941.1181	2989.3584	3047.0954	3054.2196	3061.599	3092.0452	3122.9397	3127.1701	3146.3907
COC(C)C(=O)CC#N	CO[C@@H](C)C(=O)CC#N	
InChI=1S/C6H9NO2/c1-5(9-2)6(8)3-4-7/h5H,3H2,1-2H3	InChI=1S/C6H9NO2/c1-5(9-2)6(8)3-4-7/h5H,3H2,1-2H3/t5-/m0/s1
