13
gdb 24940	5.07605	1.31872	1.05364	2.127	64.35	-0.2159	-0.0192	0.1967	1024.9398	0.091534	-452.797835	-452.791089	-452.790145	-452.829386	25.128	
O	-0.001030023	 0.0272036056	 0.0039790084	-0.348382
C	-0.0221712432	 1.2307612262	 0.0101706827	 0.412158
C	-1.3086802777	 2.1406659375	 0.0328794124	-0.491659
C	-0.6717521838	 3.4805534702	 0.0305285637	 0.265133
C	 0.6703561671	 3.3989662839	 0.0114064562	 0.348217
N	 1.0924380986	 2.068682826	-0.0009933216	-0.441206
N	 1.2517699883	 4.6400748325	 0.0096558219	-0.352251
C	 0.2090345623	 5.426577533	 0.0278402153	 0.04435
O	-1.0022441556	 4.8044991259	 0.0419466169	-0.187448
H	-1.9219995264	 1.9048008214	-0.8433113585	 0.159408
H	-1.8970108351	 1.8960843597	 0.9236981394	 0.159427
H	 2.0373587679	 1.7239102252	-0.0161501915	 0.274536
H	 0.1944400106	 6.5040431328	 0.0333762347	 0.157716
93.3948	119.3919	287.9922	351.541	412.3021	540.2121	543.759	567.7307	634.7148	726.5241	734.9629	790.1362	811.6394	846.2665	954.9396	959.5917	1092.6857	1110.5474	1140.2761	1201.4092	1225.4926	1273.9686	1298.2059	1386.6437	1452.2982	1468.9188	1524.191	1672.3423	1851.8934	3051.473	3087.9223	3290.7691	3674.5019
O=C1CC2=C(N1)N=CO2	O=C1Cc2c(N1)nco2	
InChI=1S/C5H4N2O2/c8-4-1-3-5(7-4)6-2-9-3/h2H,1H2,(H,7,8)	InChI=1S/C5H4N2O2/c8-4-1-3-5(7-4)6-2-9-3/h2H,1H2,(H,7,8)
