20
gdb 39918	3.1663	1.57647	1.38073	1.7277	84.24	-0.2249	0.0146	0.2396	1013.4989	0.174391	-365.981725	-365.974729	-365.973784	-366.012727	29.715	
C	-0.024469246	 1.5120588359	-0.00534394	-0.299858
N	 1.2505861369	 0.7788294295	 0.0504243062	-0.372242
C	-0.0239318761	 0.0224671623	 0.0038349451	 0.359481
C	-0.3703941192	-0.7434969863	 1.2340627117	-0.10397
C	-0.9642045755	-1.9307483697	 1.0940333452	-0.089351
C	-1.2392527327	-2.4320353269	-0.3092987177	-0.061649
C	 0.0485098637	-2.2114660589	-1.1656325576	-0.231201
C	-0.4108136546	-0.725386519	-1.265848195	-0.10765
C	-1.8676401354	-1.2635291204	-1.1334447565	-0.22619
H	-0.2739275337	 2.0640270079	 0.8971760841	 0.115751
H	-0.3076241445	 2.0091693687	-0.9306509892	 0.108391
H	 1.6820315943	 0.7675484254	-0.8719638968	 0.226881
H	-0.1158184021	-0.3123933454	 2.1965720057	 0.093936
H	-1.2449667132	-2.5383170667	 1.9482179424	 0.089629
H	-1.7234398074	-3.409168578	-0.3281134858	 0.06001
H	 1.011340937	-2.4258813429	-0.6966440536	 0.103307
H	-0.018225137	-2.71081658	-2.1359589789	 0.093705
H	-0.1440931663	-0.1520603558	-2.1591431144	 0.048822
H	-2.252425819	-1.6037925634	-2.0987763779	 0.093706
H	-2.6080939594	-0.6337781863	-0.635077667	 0.098492
125.486	249.0915	314.8454	372.2322	409.0936	425.343	437.6678	611.7353	620.4707	710.0263	744.2002	813.5003	847.4881	872.0388	894.089	902.9639	918.6203	941.3271	944.6027	972.8661	981.2856	1005.8899	1030.9985	1065.5226	1091.0344	1106.6148	1111.6636	1131.0754	1143.5138	1176.8979	1242.7388	1250.1084	1258.5346	1263.9096	1292.3828	1317.5839	1355.9303	1368.6279	1428.8804	1473.4139	1503.2691	1508.1135	1689.4399	3048.5489	3052.8669	3063.4832	3097.4918	3098.2675	3115.6079	3118.8766	3171.395	3182.695	3194.5364	3479.764
C1NC11C=CC2CC1C2	C1N[C@]21C=C[C@@H]1C[C@H]2C1	
InChI=1S/C8H11N/c1-2-8(5-9-8)7-3-6(1)4-7/h1-2,6-7,9H,3-5H2	InChI=1S/C8H11N/c1-2-8(5-9-8)7-3-6(1)4-7/h1-2,6-7,9H,3-5H2/t6-,7+,8-/m0/s1
