19
gdb 83573	2.18134	1.90634	1.78505	1.6203	74.57	-0.2425	0.0075	0.25	926.0629	0.162381	-423.038713	-423.031531	-423.030587	-423.069853	29.619	
O	 0.193815213	 1.3335204969	-0.2047577234	-0.44898
C	 0.021245843	-0.0448090786	 0.011212856	 0.12052
C	 0.4922350257	-0.5787668898	 1.3809266846	 0.076556
C	-0.0869736786	 0.2818224193	 2.5170644004	-0.271242
C	-1.5413302102	 0.602918178	 2.2636509601	-0.059063
C	-2.1688630291	 0.2237637287	 1.1455909492	-0.09378
C	-1.4367970412	-0.5600833978	 0.0743292751	-0.122481
C	-1.164230918	-2.000065055	 0.5381145506	-0.068424
O	-0.0486679447	-1.9014180418	 1.4380112754	-0.279092
H	-0.4663284761	 1.7905795008	 0.3313447081	 0.281881
H	 0.5673824278	-0.5506895957	-0.79099292	 0.091862
H	 1.5799784685	-0.6541481545	 1.4642486421	 0.0785
H	 0.0230447573	-0.2681083887	 3.4595483196	 0.121246
H	 0.4959378291	 1.2066638629	 2.6315265911	 0.110189
H	-2.0738021559	 1.1617618459	 3.0294675854	 0.094009
H	-3.2179785139	 0.458936357	 0.9914048305	 0.092081
H	-1.9516110812	-0.5209573272	-0.8875550417	 0.075927
H	-2.0097004437	-2.4506452997	 1.068214318	 0.104984
H	-0.9010702417	-2.6463250908	-0.3118293011	 0.095306
160.5807	214.5094	271.6281	303.4624	371.3118	433.19	459.4748	545.4727	562.1958	614.9941	708.9691	766.957	811.6222	845.5769	858.094	894.8831	955.8283	981.0349	992.5401	1005.5505	1014.3894	1064.2975	1087.9223	1108.1243	1133.5261	1145.3911	1202.6942	1207.514	1233.7863	1263.2184	1294.2302	1313.6534	1346.135	1355.454	1370.375	1385.9501	1413.4524	1443.2731	1462.0637	1520.5638	1695.3013	2996.1613	3013.3354	3054.4367	3062.2997	3066.1339	3075.5771	3095.4224	3150.4384	3175.5643	3768.4475
OC1C2CC=CC1CO2	O[C@H]1[C@H]2CC=C[C@@H]1CO2	
InChI=1S/C7H10O2/c8-7-5-2-1-3-6(7)9-4-5/h1-2,5-8H,3-4H2	InChI=1S/C7H10O2/c8-7-5-2-1-3-6(7)9-4-5/h1-2,5-8H,3-4H2/t5-,6-,7-/m1/s1
