18
gdb 39821	2.82489	1.62194	1.54599	1.5724	71.07	-0.2402	0.0687	0.3088	952.9169	0.149569	-439.022905	-439.015801	-439.014857	-439.054213	28.472	
C	-0.0915851525	 1.5297104845	-0.0094562645	-0.319576
N	 1.1761123248	 0.7580218396	 0.0574611907	-0.39223
C	-0.0950602029	 0.0612974961	 0.0073564378	 0.420721
C	-0.5098369905	-1.0104644009	 1.0128489076	-0.02504
C	-2.0186176933	-0.9694468195	 1.225826985	-0.069904
O	-2.6744546886	-0.5361882313	 0.0348007543	-0.272275
C	-2.0529922476	-0.9402097007	-1.1817757409	-0.067583
C	-0.5373004268	-0.9887711217	-1.0111888295	-0.045512
O	-0.2679382191	-2.0229482236	-0.017408008	-0.304823
H	-0.3289333194	 2.0940547884	 0.8880000736	 0.124545
H	-0.3528350309	 2.0304152841	-0.9388320629	 0.115256
H	 1.6315668503	 0.7441149122	-0.8525082105	 0.233102
H	 0.0789942939	-1.1678347724	 1.9191350152	 0.095985
H	-2.3594061497	-1.9718418067	 1.5251456668	 0.104488
H	-2.3004047846	-0.2531212129	 2.0054428612	 0.109976
H	-2.4005715199	-1.9360325036	-1.496145577	 0.103828
H	-2.3556290786	-0.2066776593	-1.9377501619	 0.106405
H	 0.0146628253	-1.1324013424	-1.945556077	 0.082637
141.9478	220.7362	222.9094	275.2905	378.5552	410.5767	450.9366	571.849	602.6428	720.7328	851.0803	855.5423	871.6508	878.8576	889.1773	935.8921	951.2398	968.2107	1011.2507	1020.3504	1028.4534	1075.6389	1101.8261	1129.3571	1142.0793	1193.5722	1229.5985	1250.0671	1256.3324	1283.035	1285.1268	1306.3039	1325.1127	1367.1755	1403.7946	1457.7751	1484.9651	1496.7328	1528.6876	2991.6739	2999.2741	3061.95	3068.5019	3070.5515	3099.2056	3106.515	3189.9998	3490.5265
C1NC11C2COCC1O2	C1N[C@]21[C@H]1COC[C@@H]2O1	
InChI=1S/C6H9NO2/c1-4-6(3-7-6)5(9-4)2-8-1/h4-5,7H,1-3H2	InChI=1S/C6H9NO2/c1-4-6(3-7-6)5(9-4)2-8-1/h4-5,7H,1-3H2/t4-,5+,6-
