23
gdb 60064	2.84647	1.03806	0.90402	0.9935	82.14	-0.2387	0.0698	0.3085	1419.6283	0.203488	-425.417361	-425.406934	-425.405989	-425.453119	38.647	
C	 0.0555464218	 1.5854392688	 0.0070550855	-0.40091
C	-0.0320286825	 0.058032951	 0.0032840935	 0.12334
O	-1.3802274785	-0.365593128	 0.228481132	-0.43275
C	 0.4192462857	-0.5383431606	-1.3329117527	-0.22181
C	 0.7921870876	-2.0254908518	-1.2852428262	 0.430538
C	-0.3766508093	-2.9580723565	-1.0054100941	-0.428187
C	 1.7320633937	-2.4740604155	-2.4389781159	-0.338718
C	 2.8043562177	-2.5978986925	-1.3421478093	-0.063413
O	 1.8673426845	-2.2336284155	-0.3112814823	-0.32412
H	 1.0887858629	 1.923267861	-0.1230868618	 0.115102
H	-0.5558542098	 2.0083535154	-0.7969200033	 0.120758
H	-0.3085569511	 1.9909559474	 0.9582775292	 0.101499
H	 0.6257056591	-0.3427404757	 0.7886536826	 0.090108
H	-1.640401536	-0.0635905761	 1.1043908316	 0.279561
H	-0.3701052869	-0.3750930061	-2.077604748	 0.10206
H	 1.3021706451	 0.0171353133	-1.6686652835	 0.088873
H	-1.1300367269	-2.8694299117	-1.7959952775	 0.110735
H	-0.0293085595	-3.9949329957	-0.9698376503	 0.103367
H	-0.858098526	-2.7056254182	-0.0596526019	 0.139414
H	 1.4461640452	-3.414743183	-2.9131534914	 0.105784
H	 1.9200735423	-1.7259248979	-3.2115774879	 0.102554
H	 3.2174764884	-3.6014144973	-1.183728812	 0.100063
H	 3.6369097324	-1.8858013147	-1.4120327463	 0.09615
48.8226	67.6114	110.5374	175.2489	223.6234	244.3074	284.375	289.3115	313.7325	340.6755	396.8993	441.0565	472.9345	503.2573	698.2529	784.6819	839.486	864.3453	872.7434	899.1378	934.475	971.8826	973.4403	996.8206	1026.7977	1057.0675	1085.8795	1104.8028	1151.3882	1163.6239	1198.3351	1208.5144	1230.0746	1265.7426	1277.1084	1321.417	1344.8145	1355.3829	1394.9394	1405.6543	1412.9367	1424.8343	1459.5515	1483.2738	1487.2415	1493.984	1494.6696	1499.0224	1533.0301	2999.2926	3009.331	3024.6229	3029.4771	3038.7434	3047.1197	3072.6083	3074.494	3092.533	3103.8182	3109.8413	3127.1747	3146.352	3817.813
CC(O)CC1(C)CCO1	C[C@@H](O)C[C@@]1(C)CCO1	
InChI=1S/C7H14O2/c1-6(8)5-7(2)3-4-9-7/h6,8H,3-5H2,1-2H3	InChI=1S/C7H14O2/c1-6(8)5-7(2)3-4-9-7/h6,8H,3-5H2,1-2H3/t6-,7-/m1/s1
