17
gdb 77811	2.4878	1.52384	1.34765	4.2617	68.16	-0.2574	0.0001	0.2576	1029.7875	0.136028	-458.992167	-458.984056	-458.983112	-459.024559	30.982	
C	-0.0436617205	 1.5221861388	-0.034922885	-0.491114
C	 0.0123684726	 0.0163883668	 0.0242459982	 0.23795
C	-1.2543238276	-0.7705615505	-0.2879352567	-0.159072
O	-1.1679070417	-2.0146408523	 0.4298442492	-0.249762
C	-0.2113217883	-1.9459746581	 1.4244285808	 0.445429
O	-0.156552312	-2.7574704577	 2.2991217578	-0.333645
C	 0.6717398836	-0.7780971419	 1.1564343649	-0.312917
C	 1.2619734711	-0.7541097541	-0.252977573	 0.097765
O	 1.3360420122	-1.8618494138	-1.0892752687	-0.425135
H	 0.9228814049	 1.9619219586	 0.2277596295	 0.130147
H	-0.2984415668	 1.8650538548	-1.0441741268	 0.132968
H	-0.793519174	 1.9219942912	 0.6568321627	 0.128219
H	-2.1497566328	-0.2343176992	 0.0461455412	 0.125438
H	-1.3592149444	-1.0030799628	-1.3525713056	 0.130207
H	 1.2122933356	-0.3478131129	 1.9889261877	 0.118846
H	 2.1746036132	-0.173615699	-0.3416025561	 0.120878
H	 0.589557035	-2.449192638	-0.9175831402	 0.303796
123.3143	190.3314	198.0916	217.3128	244.891	291.8696	399.7419	464.4428	490.632	539.3256	560.0908	682.6485	723.9978	787.8964	822.8077	877.0457	942.7708	948.467	989.7628	1008.4925	1046.5844	1078.7946	1134.8617	1150.2459	1156.62	1202.8381	1241.1688	1307.8387	1320.4132	1350.2955	1414.8876	1419.8259	1472.4721	1490.2746	1499.285	1519.5165	1887.641	3027.939	3038.3389	3084.3219	3090.5183	3107.6103	3171.3347	3208.9955	3782.6859
CC12COC(=O)C1C2O	C[C@]12COC(=O)[C@H]1[C@H]2O	
InChI=1S/C6H8O3/c1-6-2-9-5(8)3(6)4(6)7/h3-4,7H,2H2,1H3	InChI=1S/C6H8O3/c1-6-2-9-5(8)3(6)4(6)7/h3-4,7H,2H2,1H3/t3-,4-,6+/m1/s1
