25
gdb 122020	4.65951	0.55958	0.52221	0.2079	88.31	-0.247	0.0903	0.3373	2240.3747	0.225187	-426.622621	-426.610573	-426.609629	-426.661422	41.546	
C	-1.5549478271	 0.5574047433	 0.0046044331	-0.385655
C	-0.0932075642	 0.1491820041	 0.0746062638	-0.023081
O	 0.2622170276	-0.4688098017	-1.1449434493	-0.247367
C	 1.6059494165	-0.891533738	-1.1874007345	-0.068858
C	 1.8771087693	-1.5187182873	-2.5542741101	 0.121532
C	 1.6799508759	-0.5174357955	-3.6929349229	-0.400812
O	 3.2051251102	-2.0135050197	-2.4759769257	-0.262403
C	 3.5540654763	-2.9656353991	-3.4608291195	-0.034659
C	 4.9380761593	-3.5028520537	-3.1341890556	-0.381946
H	-1.7187966255	 1.2590686191	-0.8183231358	 0.125449
H	-2.1901200639	-0.3175972838	-0.1602822274	 0.126023
H	-1.8617339737	 1.0388629545	 0.9379496209	 0.1143
H	 0.54718928	 1.0294013834	 0.2548655935	 0.085811
H	 0.0748582334	-0.545782819	 0.9148979144	 0.085671
H	 2.2932014286	-0.0432525109	-1.0288219351	 0.089387
H	 1.8137867248	-1.6357972362	-0.4027580192	 0.090198
H	 1.1755634159	-2.35970198	-2.6843250203	 0.070582
H	 2.4158853171	 0.2898675814	-3.6135911349	 0.115838
H	 1.7892071882	-0.9893970288	-4.6732020471	 0.111399
H	 0.678233696	-0.0858156115	-3.629266423	 0.133941
H	 2.8149320241	-3.7846099374	-3.4727585004	 0.083664
H	 3.5512919245	-2.5149607679	-4.465518559	 0.088833
H	 5.6721882451	-2.692024646	-3.1297896397	 0.125741
H	 4.9437433985	-3.9739144441	-2.1471251042	 0.123962
H	 5.2451013033	-4.2448694452	-3.8774606519	 0.112449
45.8624	54.0714	70.7528	93.8852	103.2685	149.2681	201.9248	228.6069	246.9648	251.4678	310.1941	313.4677	363.546	450.9085	520.6507	542.6637	820.9167	822.4405	841.1787	895.923	903.8769	932.3542	981.144	1043.9391	1075.5938	1131.8529	1136.7916	1154.9043	1159.3394	1172.0516	1184.2547	1189.4562	1203.5116	1256.1803	1296.7162	1298.6679	1331.6518	1374.7917	1389.2515	1398.4508	1401.2083	1406.8666	1433.4965	1451.1835	1482.8335	1483.4524	1493.3616	1494.9078	1499.915	1500.6704	1515.6231	1531.181	1536.9233	2951.3003	2957.9957	2963.425	2969.7928	2978.1912	2993.6706	3004.7073	3041.9448	3043.7683	3044.5115	3112.4715	3118.0305	3118.9474	3120.4517	3120.6744	3131.3014
CCOCC(C)OCC	CCOC[C@@H](C)OCC	
InChI=1S/C7H16O2/c1-4-8-6-7(3)9-5-2/h7H,4-6H2,1-3H3	InChI=1S/C7H16O2/c1-4-8-6-7(3)9-5-2/h7H,4-6H2,1-3H3/t7-/m1/s1
