25
gdb 100750	2.74324	0.87862	0.7914	0.2637	85.04	-0.2564	0.0671	0.3236	1603.2123	0.225933	-426.628988	-426.617147	-426.616203	-426.66574	43.374	
C	 0.8963185786	-0.4211528722	-1.1470425993	-0.408849
C	-0.0283461307	 0.0647550442	-0.0202893273	 0.024044
C	-0.1443249956	 1.5954847347	-0.0319110735	-0.391411
C	-1.4358863616	-0.574978901	-0.0799851407	 0.121785
O	-2.1262461113	-0.1856637483	-1.2714424069	-0.440252
C	-1.4733970757	-2.1072272449	 0.1034350842	 0.005559
C	-0.7419004981	-2.5874256037	 1.3646625513	-0.410946
C	-2.9260266086	-2.594713569	 0.1131177369	-0.083612
O	-2.9151905331	-4.017384062	 0.079789274	-0.426986
H	 1.8829883014	 0.0439712985	-1.0595443276	 0.117244
H	 1.0410512231	-1.5057480898	-1.130641955	 0.118612
H	 0.5034002017	-0.1454659813	-2.1334317806	 0.107192
H	 0.4187283139	-0.2309939021	 0.93635139	 0.077972
H	-0.6401550334	 1.9365699393	-0.9451893243	 0.126327
H	-0.7330230971	 1.9541465201	 0.819297317	 0.107367
H	 0.8431975997	 2.0649910053	 0.0215361366	 0.103744
H	-2.0306580945	-0.1254409348	 0.727651487	 0.078512
H	-1.6877902585	-0.6144174139	-2.0144118516	 0.279032
H	-0.9978722542	-2.5726398484	-0.7725363136	 0.072518
H	-1.0912224869	-2.0431994334	 2.2508334498	 0.108337
H	-0.9426385212	-3.6494805641	 1.5208043549	 0.136324
H	 0.3404218367	-2.4523242258	 1.2934696673	 0.113819
H	-3.42692244	-2.2240785783	 1.0240236398	 0.078573
H	-3.4578788517	-2.1781582041	-0.7508940526	 0.09943
H	-3.826444323	-4.3229046751	 0.0929890342	 0.285665
65.0371	74.3202	110.8695	157.5436	206.9051	230.1483	239.4346	243.3342	273.7365	282.9197	300.5121	318.414	326.99	392.6125	421.8316	455.8068	561.5159	622.2589	800.7919	863.4329	907.7134	928.2132	937.0674	965.5265	980.2416	1015.641	1065.663	1076.0976	1103.5729	1122.8748	1155.5544	1171.1392	1202.9985	1228.4357	1261.1669	1275.0978	1309.2857	1340.5253	1359.067	1367.4056	1386.8082	1398.3704	1405.7551	1416.7736	1425.0232	1452.7976	1486.6199	1493.1343	1497.1904	1507.6676	1511.6379	1514.3476	1527.4956	2955.7196	2997.4626	3015.0709	3026.634	3030.8139	3034.0139	3038.8236	3044.8504	3090.591	3097.2426	3101.9999	3105.9634	3116.3252	3130.7726	3806.1378	3835.206
CC(C)C(O)C(C)CO	CC(C)[C@@H](O)[C@@H](C)CO	
InChI=1S/C7H16O2/c1-5(2)7(9)6(3)4-8/h5-9H,4H2,1-3H3	InChI=1S/C7H16O2/c1-5(2)7(9)6(3)4-8/h5-9H,4H2,1-3H3/t6-,7+/m0/s1
