20
gdb 7504	2.90575	1.3108	1.04013	0.1306	85.32	-0.2233	0.0621	0.2855	1241.5292	0.174431	-311.84664	-311.83669	-311.835746	-311.88239	35.252	
C	 0.053961076	 1.4853749673	 0.0174820533	-0.500671
C	 0.028208893	 0.0292650479	 0.0204386229	 0.065412
C	 0.0049890679	-1.1762938221	 0.0295382187	 0.017809
C	 0.0193619535	-2.6168584981	 0.0104213026	 0.166737
C	 1.180473995	-3.2281512334	-0.7619699022	-0.457406
C	-0.4747094413	-3.3502076268	 1.2535169391	-0.320279
C	-1.3132967213	-3.3651252747	 0.0053761151	-0.015941
C	-2.6379706619	-2.6417287004	-0.0535180753	-0.412081
H	 0.9773231171	 1.8635561943	-0.4356674947	 0.146145
H	-0.785322672	 1.901967795	-0.5510885914	 0.144449
H	-0.0022685205	 1.890275915	 1.0344082707	 0.144404
H	 2.1399459067	-2.9209891351	-0.3334368654	 0.123127
H	 1.130591795	-4.3212916131	-0.7355315468	 0.109643
H	 1.1634053927	-2.9111881046	-1.8097274972	 0.123056
H	 0.05617582	-4.2509074158	 1.5442713744	 0.109117
H	-0.8163778452	-2.7406130354	 2.0828257073	 0.116528
H	-1.2839054562	-4.2922354685	-0.5625773265	 0.083399
H	-2.5928120908	-1.693494683	 0.4885895906	 0.126903
H	-2.9220864078	-2.4178986082	-1.0875752602	 0.116891
H	-3.4338124097	-3.2510122903	 0.3891771152	 0.112757
18.7963	90.6982	113.2954	188.1824	203.2109	227.7394	240.4563	301.451	320.8178	383.8723	425.1503	532.488	569.9736	591.5632	763.6789	837.8157	872.8298	931.6792	954.1829	1019.5696	1051.8535	1054.0171	1058.2659	1080.065	1109.0685	1119.7712	1138.8158	1194.5027	1253.5949	1349.2784	1398.3837	1412.1551	1415.6946	1423.0398	1478.2318	1480.3476	1481.8244	1487.0027	1493.195	1499.3366	1503.4216	2361.7869	3022.6813	3030.4953	3031.411	3080.5713	3083.0398	3089.856	3100.6306	3103.3256	3112.0704	3128.9182	3134.2377	3218.1994
CC#CC1(C)CC1C	CC#C[C@@]1(C)C[C@H]1C	
InChI=1S/C8H12/c1-4-5-8(3)6-7(8)2/h7H,6H2,1-3H3	InChI=1S/C8H12/c1-4-5-8(3)6-7(8)2/h7H,6H2,1-3H3/t7-,8+/m1/s1
