13
gdb 132880	3.21425	1.4112	0.98065	0.8024	66.72	-0.2015	-0.0389	0.1625	1071.2777	0.090246	-494.101345	-494.093729	-494.092785	-494.133688	28.483	
N	 0.0026228603	 1.3105300681	 0.0080215803	-0.540022
C	-0.0459105788	-0.0344035612	 0.0009735407	 0.305211
N	-1.1767011477	-0.692058228	 0.0039949853	-0.385406
C	-1.1156190711	-2.0386493377	-0.0034993972	 0.280661
F	-2.292781491	-2.660865083	 0.0000825967	-0.076989
C	 0.0279317197	-2.7599937471	-0.0139459309	-0.190502
N	 1.216765137	-2.0431867496	-0.0171310618	-0.343814
C	 1.2962408007	-0.6771901618	-0.0104262278	 0.398178
O	 2.3455846646	-0.0435795453	-0.0132950449	-0.413624
H	 0.91287253	 1.7409457589	 0.0037103391	 0.283381
H	-0.842297017	 1.8532111935	 0.0144757799	 0.271746
H	 0.0791709255	-3.8374239943	-0.0198918157	 0.140484
H	 2.1012179177	-2.5311587026	-0.0249448338	 0.270698
79.742	148.5505	226.3225	309.3828	367.297	377.5553	449.9527	490.4539	525.2304	601.6082	602.9255	648.7522	688.8174	718.2879	746.8125	809.0984	812.4425	981.3069	1099.0902	1152.0324	1269.7921	1341.6959	1387.1403	1412.6135	1472.1504	1561.498	1659.3948	1675.9418	1766.7483	3254.123	3606.5848	3617.1924	3752.8316
NC1=NC(F)=CNC1=O	Nc1nc(F)c[nH]c1=O	
InChI=1S/C4H4FN3O/c5-2-1-7-4(9)3(6)8-2/h1H,(H2,6,8)(H,7,9)	InChI=1S/C4H4FN3O/c5-2-1-7-4(9)3(6)8-2/h1H,(H2,6,8)(H,7,9)
