19
gdb 94509	2.74004	1.16628	1.04457	2.8193	82.78	-0.2582	-0.057	0.2012	1243.5836	0.157173	-385.862249	-385.852777	-385.851832	-385.897405	34.54	
C	-0.7875816678	 1.2102179751	 0.3567451134	-0.405998
C	-0.2318719106	-0.2031325586	 0.2145577743	 0.012612
C	 0.7385389085	-0.3927193361	-0.988499031	-0.221713
C	 1.9470997079	-0.3395430721	-0.0174405243	-0.247136
C	 0.9819026472	-0.5647838613	 1.169193224	-0.0957
C	 1.1614427155	 0.291029481	 2.3985083051	 0.228483
O	 1.9002305905	 1.2533274071	 2.4435471126	-0.297879
C	 0.345116186	-0.0867232923	 3.5438178223	 0.263568
C	-0.3393378779	-0.4218981225	 4.4761547821	-0.420052
H	 0.0091462667	 1.9610157618	 0.3455049544	 0.134338
H	-1.4682515535	 1.4302023924	-0.472601584	 0.114678
H	-1.3463166956	 1.331535691	 1.2905896099	 0.122927
H	-1.0494225166	-0.9267859112	 0.2659431435	 0.077026
H	 0.6249622299	-1.3712357941	-1.4625351223	 0.100741
H	 0.693947353	 0.3749927995	-1.7656003378	 0.100262
H	 2.7334578308	-1.0847414848	-0.1526001891	 0.10178
H	 2.406999277	 0.6486677452	 0.0427127083	 0.128934
H	 0.9114773374	-1.6135518355	 1.4713907115	 0.089341
H	-0.9353854883	-0.7009954846	 5.310941307	 0.21379
32.4071	79.3483	123.5419	159.8517	248.1114	252.5557	273.5634	345.9014	381.4888	467.8431	571.2308	639.1498	658.3813	704.7429	729.3876	771.5632	795.0964	883.9601	900.6514	931.0641	966.4911	983.3796	1019.6432	1083.5655	1105.2337	1148.3965	1154.9846	1220.369	1233.2101	1256.3362	1273.8418	1281.4856	1355.2476	1369.3736	1414.7366	1482.646	1493.9211	1498.3268	1502.532	1755.814	2207.4866	3031.4338	3054.164	3060.4175	3072.2679	3077.7107	3098.3997	3103.0691	3108.1434	3134.0142	3494.5225
CC1CCC1C(=O)C#C	C[C@H]1CC[C@H]1C(=O)C#C	
InChI=1S/C8H10O/c1-3-8(9)7-5-4-6(7)2/h1,6-7H,4-5H2,2H3	InChI=1S/C8H10O/c1-3-8(9)7-5-4-6(7)2/h1,6-7H,4-5H2,2H3/t6-,7+/m0/s1
