18
gdb 36420	4.50322	0.97287	0.87627	5.2721	75.89	-0.2536	0.035	0.2885	1316.5307	0.148673	-401.951939	-401.943934	-401.94299	-401.985204	30.201	
N	-0.0582980524	-1.1520977304	-0.0161963832	-0.305139
C	-0.0223054268	 0.0014399905	 0.0327344121	 0.271661
C	 0.0144055238	 1.4620500755	 0.0724670033	-0.359699
C	 1.4332888758	 2.0323282872	-0.0241228188	 0.152373
C	 1.4941237631	 3.5769821673	-0.0628806195	-0.282191
C	 2.7802093459	 3.8824216321	 0.7034647911	-0.065357
C	 2.7311279557	 3.7811032574	 2.2169800057	-0.301184
C	 3.1552877668	 2.5998311432	 1.3918467292	 0.100846
O	 2.158049949	 1.6387805012	 1.1416994572	-0.26774
H	-0.5891080778	 1.8480499164	-0.7567529379	 0.152034
H	-0.4446474212	 1.8064106234	 1.0055015067	 0.155208
H	 1.9271126886	 1.6189821569	-0.9165641023	 0.092325
H	 1.5305871874	 3.9489518049	-1.0900834806	 0.114166
H	 0.6138258709	 4.018967462	 0.4187866557	 0.106534
H	 3.5264643919	 4.5192459114	 0.2449760655	 0.098542
H	 3.4933006795	 4.3115238388	 2.7783423063	 0.116853
H	 1.7608792217	 3.7238899017	 2.6995118355	 0.117062
H	 4.1647315381	 2.2043213603	 1.4318760839	 0.103706
62.4907	84.4086	145.6788	296.6934	309.3678	392.9609	410.5072	438.527	508.7178	652.3467	703.3789	774.6084	810.6265	840.0231	886.8699	924.9176	946.4007	955.9816	1012.9121	1025.4016	1055.5856	1073.4555	1097.7727	1105.8332	1111.4947	1145.4398	1201.3265	1212.6986	1258.0282	1280.3141	1312.9528	1325.1403	1368.1029	1384.174	1399.6978	1450.4556	1472.6426	1494.8656	2366.9623	2988.6547	3034.8337	3048.3252	3092.7119	3097.7748	3127.2058	3164.5148	3186.536	3219.372
N#CCC1CC2CC2O1	N#CC[C@H]1C[C@H]2C[C@H]2O1	
InChI=1S/C7H9NO/c8-2-1-6-3-5-4-7(5)9-6/h5-7H,1,3-4H2	InChI=1S/C7H9NO/c8-2-1-6-3-5-4-7(5)9-6/h5-7H,1,3-4H2/t5-,6-,7+/m0/s1
