17
gdb 63116	2.27881	1.68084	1.1883	3.186	74.27	-0.2375	0.0052	0.2427	1063.8415	0.135343	-417.968025	-417.959295	-417.958351	-418.000995	32.77	
C	 0.0104951503	 1.5729534406	 0.0251736192	-0.443292
C	 0.0448627984	 0.0616921995	 0.0194067253	 0.225846
N	-1.1724823626	-0.527637503	-0.48238125	-0.570261
C	 1.326406635	-0.6930933634	-0.210269891	 0.008746
O	 2.4709343982	-0.0186774716	 0.29565366	-0.272111
C	 1.9601625701	-0.091879816	 1.651446197	-0.143448
C	 0.6576373458	-0.7417013534	 1.1784814373	 0.075094
C	-0.0258881493	-1.7918825043	 1.8483934588	 0.210913
N	-0.5912168578	-2.6503192417	 2.3832002818	-0.361387
H	 0.9889866362	 1.9976093677	 0.254080692	 0.139426
H	-0.280458917	 1.9303118039	-0.9689112476	 0.122841
H	-0.7302870935	 1.9385089728	 0.7410165481	 0.136581
H	-1.2346569348	-0.4116729074	-1.4893121853	 0.238387
H	-1.2447841863	-1.5180407937	-0.2748953368	 0.248721
H	 1.4657565349	-1.4726846911	-0.9524151958	 0.122899
H	 2.5711865718	-0.7679563543	 2.2567390817	 0.136093
H	 1.8900119805	 0.8892296352	 2.1313191154	 0.12495
130.9559	140.9006	181.1655	192.8612	240.4615	272.5329	332.6193	379.5391	415.1792	491.3043	544.6181	584.5575	613.9573	690.1096	742.259	816.9486	916.2687	964.0425	971.2536	994.2856	1026.1606	1031.338	1074.971	1117.0198	1163.2067	1202.5447	1228.4264	1249.1141	1318.9567	1331.7386	1412.6717	1435.545	1488.1472	1495.3231	1521.3193	1656.0378	2336.8232	3043.3686	3046.6905	3101.6246	3107.9278	3145.8975	3172.4006	3499.0373	3586.5633
CC1(N)C2OCC12C#N	C[C@@]1(N)[C@H]2OC[C@@]12C#N	
InChI=1S/C6H8N2O/c1-5(8)4-6(5,2-7)3-9-4/h4H,3,8H2,1H3	InChI=1S/C6H8N2O/c1-5(8)4-6(5,2-7)3-9-4/h4H,3,8H2,1H3/t4-,5-,6-/m1/s1
