16
gdb 82689	2.90597	1.59197	1.23348	1.449	76.11	-0.2462	0.0162	0.2624	1014.9066	0.123919	-400.65234	-400.644646	-400.643702	-400.68425	30.122	
O	 0.1344109932	 1.4746216273	 0.241612714	-0.430321
C	-0.0270570753	 0.089128398	 0.1009880706	 0.056088
C	 0.1580635141	-0.7342976367	 1.3775580584	-0.048094
C	-0.838059097	-0.1668462681	 2.4055108931	-0.240347
C	-1.8815497368	-0.7382149428	 1.4627380002	-0.079591
N	-0.9340104284	-1.7348773629	 0.8688619398	-0.198558
C	-1.4212003478	-0.5396401751	 0.0467383976	 0.186544
C	-2.2712803799	-0.6529431238	-1.0872255108	 0.128829
C	-2.9703940356	-0.7022944776	-2.0655837511	-0.382485
H	-0.0016050103	 1.8889817132	-0.6165413672	 0.292153
H	 0.580915102	-0.3212398999	-0.7152457621	 0.091681
H	 1.1361607957	-1.1117108573	 1.6645670482	 0.092018
H	-0.8103034154	-0.7361454458	 3.3376614021	 0.114894
H	-0.8187295898	 0.9063790005	 2.605550494	 0.123609
H	-2.9128841484	-1.0016513802	 1.6676972801	 0.105174
H	-3.5926840503	-0.7611802288	-2.923988887	 0.188405
127.8667	153.2262	216.4425	242.5606	302.5001	406.2658	498.3221	506.1284	574.3651	599.2345	629.0282	660.1154	739.5729	753.8511	808.9636	858.1631	894.3774	948.1951	975.2113	994.5274	1029.1013	1049.5627	1133.4057	1136.5794	1169.8869	1194.1057	1216.9577	1247.7698	1273.4646	1289.2458	1324.2022	1394.3908	1434.4759	1486.7512	2233.6306	3031.7181	3069.2017	3127.7399	3153.9464	3186.772	3501.8516	3820.6782
OC1C2CC3N2C13C#C	O[C@H]1[C@H]2C[C@@H]3N2[C@]13C#C	
InChI=1S/C7H7NO/c1-2-7-5-3-4(6(7)9)8(5)7/h1,4-6,9H,3H2	InChI=1S/C7H7NO/c1-2-7-5-3-4(6(7)9)8(5)7/h1,4-6,9H,3H2/t4-,5+,6+,7+,8?/m1/s1
