15
gdb 34529	3.91731	1.32233	1.24746	3.6864	76.17	-0.2352	-0.0611	0.1742	1008.0459	0.115946	-379.656042	-379.64952	-379.648575	-379.686981	26.285	
N	 0.0758524896	-1.144448026	 0.0186689435	-0.343909
C	-0.0192534481	 0.0115721553	 0.0009136999	 0.17974
C	-0.0718629906	 1.4192888315	-0.0342092809	 0.235694
C	-1.1317302124	 2.2373376483	-0.009455964	-0.189563
C	-0.550983976	 3.6744753148	 0.023561838	-0.114139
N	 0.6772508893	 3.5181102647	-0.8074953141	-0.269597
C	 1.1816345018	 2.3683977784	-0.0142327201	-0.177491
C	 1.1934573448	 3.0385363468	 1.3727448933	-0.04623
C	 0.1322611586	 3.8378865543	 1.3982000407	-0.045554
H	-2.1776407783	 1.9708848717	 0.0505015221	 0.135528
H	-1.2195630955	 4.4731317396	-0.2927327934	 0.084577
H	 0.4072968687	 3.1846471267	-1.7336941569	 0.217752
H	 2.1125605368	 1.931387174	-0.3690999662	 0.09296
H	 1.918199185	 2.830641965	 2.1456929943	 0.121799
H	-0.2461747737	 4.4558765049	 2.1987957238	 0.118432
120.1021	162.1301	401.4014	427.6962	486.7155	499.9544	579.3674	592.0078	648.5722	721.8131	757.9605	826.9814	845.6274	862.4468	882.0046	897.1311	907.1288	931.8216	964.5813	1029.364	1083.8111	1103.6585	1151.4275	1213.5415	1220.134	1230.3247	1254.0526	1291.1249	1314.3255	1397.4597	1632.4274	1663.0702	2325.5276	3138.289	3147.9362	3234.5957	3238.2828	3260.2579	3449.4892
N#CC1=CC2NC1C=C2	N#CC1=C[C@@H]2N[C@H]1C=C2	
InChI=1S/C7H6N2/c8-4-5-3-6-1-2-7(5)9-6/h1-3,6-7,9H	InChI=1S/C7H6N2/c8-4-5-3-6-1-2-7(5)9-6/h1-3,6-7,9H/t6-,7+/m1/s1
