16
gdb 44631	3.08363	1.70405	1.54664	2.8475	68.29	-0.2547	0.0165	0.2712	901.3069	0.126011	-437.827869	-437.821236	-437.820292	-437.859187	26.151	
N	 0.2753296519	 1.0222051348	 0.4124247344	-0.548705
C	 0.075085767	-0.141750614	-0.006184307	 0.436685
O	 0.920968044	-1.0153474866	-0.6742105631	-0.251186
C	-0.1204728237	-2.0234931415	-0.7651027372	 0.084311
C	-0.148524991	-3.0394209868	 0.4313762012	 0.091234
O	 0.8629969172	-2.8419085396	 1.4222331668	-0.28113
C	-0.0283743076	-2.0373141269	 2.2440171767	-0.098616
C	-1.1455801586	-2.1238698049	 1.1883223081	-0.090983
C	-1.1000250575	-1.0978491573	 0.0018245307	-0.19118
H	 1.2284124141	 1.3316396894	 0.2126576481	 0.232627
H	-0.2496783692	-2.390969228	-1.7831145468	 0.094466
H	-0.3138008561	-4.0903914062	 0.1779803402	 0.082662
H	-0.259828753	-2.5501642929	 3.1846820186	 0.107557
H	 0.3801794529	-1.0444563126	 2.4553085965	 0.132253
H	-2.1384118547	-2.4346914165	 1.5063101079	 0.092553
H	-2.0488811256	-0.7347899205	-0.386266815	 0.107451
78.6151	175.4743	265.6876	367.0717	432.3323	554.6475	631.7635	694.3435	749.509	778.517	823.2055	857.0239	868.0839	890.5596	911.804	957.9232	977.9624	999.3262	1014.7935	1026.8599	1063.3934	1090.3158	1140.2502	1165.188	1180.3401	1194.3879	1216.4714	1243.6495	1256.4144	1292.714	1315.2988	1334.0842	1360.8763	1522.8624	1819.0829	3030.4496	3068.7438	3089.5914	3116.1917	3133.4411	3148.8011	3474.2751
N=C1OC2C3OCC3C12	[NH][C]1O[C@H]2[C@H]3OC[C@H]3[C@@H]12	
InChI=1S/C6H7NO2/c7-6-3-2-1-8-4(2)5(3)9-6/h2-5,7H,1H2	InChI=1S/C6H7NO2/c7-6-3-2-1-8-4(2)5(3)9-6/h2-5,7H,1H2/t2-,3+,4-,5+/m0/s1
