16
gdb 130075	4.95514	1.3076	1.18178	2.6338	76.63	-0.2	0.0048	0.2048	1041.608	0.127292	-396.878904	-396.87208	-396.871136	-396.909829	27.727	
N	 0.002286068	 1.3141994278	 0.1406806323	-0.578897
C	 0.0192984523	-0.0642169538	-0.0289745816	 0.386288
N	-1.1049253273	-0.7747609964	 0.0850474349	-0.354922
N	-0.6365991324	-2.0592205569	 0.1260637558	 0.03619
C	-0.9692328387	-3.3185741373	-0.5595644909	-0.000077
C	-0.4132247876	-3.3438451454	-1.9575983063	-0.267911
C	 0.5289375213	-3.5239167859	-0.771501193	-0.191859
C	 0.698811244	-2.151190906	-0.1544216096	 0.266825
C	 1.1912752268	-0.8727038477	-0.2446201627	-0.382994
H	 0.6704440034	 1.8084532911	-0.4335770745	 0.245555
H	-0.9279752462	 1.6996832591	 0.0453415894	 0.25269
H	-1.7234802415	-3.9905428156	-0.1724325124	 0.119182
H	-0.6297212342	-4.2384369139	-2.5367724295	 0.121867
H	-0.372828414	-2.4252262218	-2.5339895172	 0.136903
H	 1.114311635	-4.4166527864	-0.6041895257	 0.111719
H	 2.1987752813	-0.5275288608	-0.4100688991	 0.09944
129.7083	265.2528	293.3882	311.0799	352.5756	519.5039	526.8592	622.2692	650.59	693.113	747.2224	777.2581	778.7797	784.0912	855.3959	880.7409	944.6731	971.5868	998.1599	1012.269	1047.9169	1084.8576	1099.2986	1112.2416	1173.9344	1178.9743	1244.5956	1270.8658	1293.9228	1383.5877	1428.4371	1473.2662	1506.2682	1596.1608	1645.0196	3117.1812	3205.0066	3208.786	3221.7507	3265.0889	3550.9779	3652.293
NC1=NN2C3CC3C2=C1	NC1=NN2[C@H]3C[C@H]3[C]2[CH]1	
InChI=1S/C6H7N3/c7-6-2-5-3-1-4(3)9(5)8-6/h2-4H,1H2,(H2,7,8)	InChI=1S/C6H7N3/c7-6-2-5-3-1-4(3)9(5)8-6/h2-4H,1H2,(H2,7,8)/t3-,4+/m1/s1
