21
gdb 103810	2.64778	1.10417	0.92455	4.635	80.72	-0.2382	0.022	0.2601	1368.8755	0.181136	-420.425235	-420.414709	-420.413765	-420.461002	38.24	
C	-0.4581840727	 1.671367687	 0.3097975475	-0.386133
C	 0.1796399866	 0.3441356127	-0.1202050596	-0.236613
C	 0.8674851588	-0.3792509711	 1.0282908166	 0.323451
C	 2.0972999602	 0.3045286487	 1.5994165976	-0.463793
N	-0.0440567361	-1.0537958115	 1.9549921696	-0.337927
C	 0.8396127465	-1.8846477843	 1.1200430569	-0.197774
C	 0.1883087417	-2.7747614072	 0.0923701567	 0.43171
N	 0.9577255358	-3.8519395781	-0.2608675551	-0.533613
O	-0.9082065014	-2.5781712636	-0.3927030709	-0.359057
H	 0.282796206	 2.4028972883	 0.6495414753	 0.105327
H	-1.0030021044	 2.1221201218	-0.5249860385	 0.113107
H	-1.169670262	 1.5034018902	 1.1242074465	 0.131512
H	-0.591043556	-0.3135546928	-0.5249417146	 0.150744
H	 0.9142019812	 0.519947167	-0.9172498533	 0.083374
H	 1.8403003815	 1.2821654974	 2.0204323552	 0.13085
H	 2.5538619844	-0.2930269802	 2.395491886	 0.107825
H	 2.8534888639	 0.4687919251	 0.823949585	 0.124123
H	 0.315157292	-1.0277839112	 2.9066223154	 0.227871
H	 1.7082183182	-2.328189312	 1.6061846853	 0.068913
H	 1.9073784148	-3.9598909482	 0.0486684934	 0.255506
H	 0.6311885609	-4.430719088	-1.017263025	 0.260597
50.0575	84.2784	140.4164	152.1017	167.3781	219.8332	225.1468	269.2062	325.5876	368.7964	400.588	434.8526	505.3442	581.2432	641.8532	689.7453	763.0206	794.3586	820.5122	888.7377	919.452	975.8019	998.6832	1012.3324	1042.7162	1081.6766	1096.1856	1123.0183	1138.5246	1202.6099	1265.0638	1291.6704	1332.8821	1352.3975	1399.22	1404.6642	1415.517	1472.8881	1479.7313	1494.0332	1501.2378	1506.6636	1510.8267	1615.3207	1797.3024	3023.9997	3029.3345	3036.3452	3094.067	3096.7658	3100.0276	3103.0895	3112.024	3128.432	3490.8424	3602.7817	3738.1767
CCC1(C)NC1C(N)=O	CC[C@@]1(C)N[C@H]1C(=O)N	
InChI=1S/C6H12N2O/c1-3-6(2)4(8-6)5(7)9/h4,8H,3H2,1-2H3,(H2,7,9)	InChI=1S/C6H12N2O/c1-3-6(2)4(8-6)5(7)9/h4,8H,3H2,1-2H3,(H2,7,9)/t4-,6+/m0/s1
