20
gdb 56213	2.83258	1.21923	1.02844	6.331	74.67	-0.2415	0.03	0.2715	1215.3695	0.173218	-440.300178	-440.29181	-440.290866	-440.333492	31.829	
O	-1.5475795977	 0.2749655055	-1.5586807029	-0.384474
C	-0.8632742333	 0.8117670643	-0.5375968934	 0.390625
O	 0.112024552	 0.2682311432	-0.0848252908	-0.331953
C	-1.3715809815	 2.1525122204	 0.0008624891	-0.320632
C	-2.4878735897	 2.0794733683	 1.0707628514	-0.224139
C	-3.9335639665	 1.8144182324	 0.6206181065	 0.003011
C	-4.377882421	 2.4935392466	-0.7058062752	-0.180864
N	-4.1206380723	 1.2068632844	-1.407841486	-0.322627
H	-4.7897804649	 0.9456969121	-2.1248838783	 0.233617
H	-2.4040321875	 0.7563714639	-1.7059742373	 0.312568
C	-4.2252306247	 0.4760091221	-0.1117978042	-0.187278
H	-0.501175626	 2.6199367364	 0.4661875879	 0.130246
H	-1.6820097945	 2.7943887339	-0.8303982601	 0.110204
H	-2.208610231	 1.3321921008	 1.8237340773	 0.122864
H	-2.4873938158	 3.044676472	 1.5915016759	 0.107798
H	-4.5936509543	 2.0067597226	 1.4689122307	 0.08389
H	-5.4386958773	 2.7728407182	-0.6894658125	 0.103499
H	-3.7968829756	 3.3418577066	-1.0800508074	 0.114105
H	-3.5125234465	-0.3454620503	-0.0050237921	 0.135345
H	-5.2366678221	 0.1075705665	 0.0982484214	 0.104194
68.1138	127.8877	197.3113	216.7381	226.2941	307.6262	334.0478	450.8436	487.0064	583.4399	727.6659	731.7099	757.8173	831.716	854.5517	891.6259	929.4993	964.0304	973.5054	988.7088	993.8448	1011.0728	1072.586	1096.4047	1126.0574	1141.4671	1171.0774	1211.3465	1220.4069	1262.6308	1289.0102	1302.1173	1347.6623	1355.816	1366.6614	1372.9379	1398.4383	1466.636	1482.447	1483.413	1509.8447	1533.571	1848.3698	3021.9679	3025.7921	3027.8757	3050.0137	3067.0232	3079.5118	3087.1639	3102.4231	3112.5412	3224.8762	3520.8744
[O-]C(=O)CCC1C[NH2+]C1	OC(=O)CCC1CNC1	
InChI=1S/C6H11NO2/c8-6(9)2-1-5-3-7-4-5/h5,7H,1-4H2,(H,8,9)	InChI=1S/C6H11NO2/c8-6(9)2-1-5-3-7-4-5/h5,7H,1-4H2,(H,8,9)
