15
gdb 110086	2.05547	1.43654	1.09811	6.3619	67.76	-0.2689	-0.0186	0.2503	1130.1738	0.111115	-453.931264	-453.922242	-453.921298	-453.965618	31.176	
O	-0.0907931464	 1.1882953409	 0.8133074331	-0.405232
C	-0.0463307252	 0.0073561941	 0.0291192089	-0.104913
C	-1.4359910593	-0.5388692598	-0.2287051033	-0.05186
C	-1.7197564893	-2.0353198465	-0.2092616858	-0.183203
C	-0.639861639	-2.9676572613	 0.0259041051	 0.323226
N	 0.2248385319	-3.7232809472	 0.1570737819	-0.326956
N	-2.1847373266	-1.1541955423	 0.8377052371	-0.072103
C	-1.8590568901	-1.2204717567	 2.1930681642	 0.148614
O	-1.8105195098	-2.2415089631	 2.8256936678	-0.273249
H	-0.4592629479	 1.8992732309	 0.2786441955	 0.292446
H	 0.4646274414	 0.1695612102	-0.9307000612	 0.116227
H	 0.5434613808	-0.7158303034	 0.5993026933	 0.149141
H	-2.0428439385	 0.0477997583	-0.9196046915	 0.114993
H	-2.4923008347	-2.423673202	-0.8681751895	 0.152788
H	-1.7242393371	-0.2109966221	 2.6172935343	 0.120082
86.1938	97.5325	113.6327	143.7103	212.2045	245.1583	299.2666	321.4635	383.3937	487.1912	574.909	610.8747	650.4818	792.6038	877.1515	916.3559	1003.3316	1033.2074	1054.2274	1069.7119	1088.2084	1121.0074	1148.48	1228.3931	1348.4664	1361.6341	1392.4815	1407.03	1411.9563	1449.5832	1495.4781	1810.9515	2361.0613	3000.7069	3009.6971	3093.8993	3110.4328	3146.2594	3815.312
OCC1C(C#N)N1C=O	OC[C@H]1[C@@H](C#N)N1C=O	
InChI=1S/C5H6N2O2/c6-1-4-5(2-8)7(4)3-9/h3-5,8H,2H2	InChI=1S/C5H6N2O2/c6-1-4-5(2-8)7(4)3-9/h3-5,8H,2H2/t4-,5+,7?/m1/s1
