20
gdb 67837	2.24858	2.07022	1.5328	1.5314	83.02	-0.2213	0.0339	0.2552	973.7971	0.172627	-365.977646	-365.970137	-365.969193	-366.00902	31.039	
C	-0.0098344711	 1.5355234479	-0.0126981083	-0.471833
C	-0.0037007547	 0.0116582849	-0.0294578698	 0.312546
C	-1.2821552082	-0.6318650223	-0.4871872093	-0.121548
C	-1.7293357965	-1.5412190097	 0.3788056287	-0.050477
C	-0.8421835973	-1.7122847125	 1.5948443968	-0.283366
C	 0.2985978821	-0.7016460001	 1.3474175205	-0.066213
C	 1.6269711914	-1.2026552504	 0.751634793	-0.060487
N	 1.2928948585	-2.0420678635	-0.4228413919	-0.331129
C	 1.3398155936	-0.5697565678	-0.5639804879	-0.104772
H	 0.9300104407	 1.9291938834	 0.3911973132	 0.110933
H	-0.132052044	 1.9416219739	-1.0239741571	 0.112039
H	-0.8315117894	 1.9161512168	 0.6026184511	 0.117983
H	-1.7642336365	-0.3768422247	-1.4256620441	 0.082042
H	-2.630939644	-2.1308804441	 0.2436695814	 0.086535
H	-1.3863357831	-1.5105874885	 2.5262901154	 0.094238
H	-0.4662486073	-2.740391565	 1.6641243776	 0.112998
H	 0.452471067	-0.00069419	 2.1704046717	 0.067109
H	 2.5702012664	-1.3316445211	 1.2694333339	 0.085497
H	 2.173087586	-2.4026213964	-0.790190899	 0.226161
H	 2.0104271862	-0.100748541	-1.2756738761	 0.081744
163.582	208.8635	236.3941	266.2003	279.1885	392.4263	469.3802	547.339	611.9914	648.5099	726.1536	768.7788	793.493	822.0373	846.2199	872.8395	905.8482	935.5836	943.9385	948.149	969.9582	1009.3994	1027.504	1047.3187	1078.7611	1101.3938	1117.2414	1139.3142	1182.2401	1186.4084	1212.5029	1231.3583	1267.822	1310.4679	1316.712	1341.6659	1371.1025	1386.2572	1407.5118	1474.3433	1491.5198	1495.4029	1679.7303	3019.366	3020.1426	3051.7626	3082.2653	3089.0089	3097.837	3166.0783	3167.6215	3182.2254	3193.2549	3472.2219
CC12C=CCC1C1NC21	C[C@]12C=CC[C@H]1[C@H]1N[C@@H]21	
InChI=1S/C8H11N/c1-8-4-2-3-5(8)6-7(8)9-6/h2,4-7,9H,3H2,1H3	InChI=1S/C8H11N/c1-8-4-2-3-5(8)6-7(8)9-6/h2,4-7,9H,3H2,1H3/t5-,6+,7+,8-/m0/s1
