17
gdb 46075	3.80884	1.07483	0.9262	4.7857	68.72	-0.2493	0.0571	0.3064	1242.8312	0.138145	-455.167232	-455.159299	-455.158355	-455.200436	29.538	
O	-0.5652751114	-0.0534665711	-0.1562880877	-0.403528
C	-0.2742717773	 1.1160870809	-0.0640648495	 0.426381
N	-1.1513922156	 2.1978558593	-0.0976183175	-0.341277
C	-0.4792260062	 3.4278547497	 0.289915682	-0.185275
C	 0.9937738249	 3.1006858232	-0.0645665806	-0.019203
N	 0.9991468374	 1.6527807274	 0.095531825	-0.33287
C	 1.3641735456	 3.5265362058	-1.4707458298	 0.086708
C	 2.1790547419	 4.7197467363	-1.7268714085	-0.185167
O	 2.7522402979	 3.4124493287	-1.7941286593	-0.238527
H	-2.1013965079	 2.0163320581	 0.1848470569	 0.254156
H	-0.8497950533	 4.2921476962	-0.2699703206	 0.117723
H	-0.5751413251	 3.6427537242	 1.363031991	 0.113442
H	 1.6890322411	 3.5733552781	 0.6364648828	 0.093372
H	 1.7791619301	 1.110419854	-0.2429225949	 0.262194
H	 0.6896780749	 3.1749350283	-2.2531186443	 0.111991
H	 2.088328562	 5.2412025986	-2.6781272119	 0.123233
H	 2.5146709111	 5.3334169823	-0.891473523	 0.116647
63.2018	97.4956	163.7728	233.5477	321.2861	355.7656	447.5212	512.2256	530.1026	569.3918	722.6206	766.6829	770.4627	830.0238	867.7761	924.1333	967.9728	975.7731	999.4793	1073.6899	1095.3462	1126.4905	1149.3623	1161.3072	1176.2612	1231.6184	1251.3667	1266.8528	1289.9571	1333.9961	1366.9442	1413.8219	1436.6958	1454.8007	1528.0498	1529.7359	1855.8727	3005.1907	3055.7212	3071.5666	3084.7575	3106.3203	3172.3842	3637.1104	3644.2577
O=C1NCC(N1)C1CO1	O=C1NC[C@@H](N1)[C@H]1CO1	
InChI=1S/C5H8N2O2/c8-5-6-1-3(7-5)4-2-9-4/h3-4H,1-2H2,(H2,6,7,8)	InChI=1S/C5H8N2O2/c8-5-6-1-3(7-5)4-2-9-4/h3-4H,1-2H2,(H2,6,7,8)/t3-,4-/m1/s1
