15
gdb 131877	5.75766	0.82235	0.75303	1.7637	63.47	-0.2641	-0.0317	0.2323	1437.3129	0.113871	-487.230819	-487.222701	-487.221757	-487.264922	28.41	
O	-0.0812970552	 1.437187899	-0.0109156273	-0.417221
C	-0.0346649761	 0.0258271465	-0.0035982077	-0.069574
C	-1.4196149574	-0.592482782	 0.0463000885	-0.0777
O	-2.0815418424	-0.1741231089	-1.1660902747	-0.270796
C	-3.3479449958	-0.5426899403	-1.3069609375	 0.510006
N	-4.0681797051	-0.1654131514	-2.3589440404	-0.311427
N	-5.2222764229	-0.7637549101	-2.0710728558	-0.054494
N	-5.2383416255	-1.4523275443	-0.9484228899	-0.10973
N	-4.0353692505	-1.3239285264	-0.4369207417	-0.282285
H	-0.6176775672	 1.6934940268	-0.7694137783	 0.294765
H	 0.5067774998	-0.3693554726	-0.8772749793	 0.101756
H	 0.5161893449	-0.2722488936	 0.8942643993	 0.119639
H	-1.3773152899	-1.686290151	 0.0861062869	 0.125413
H	-1.984929998	-0.2274007511	 0.9093764414	 0.135637
H	-6.0308724188	-0.6949281206	-2.6706496737	 0.30601
45.87	69.1502	138.2028	180.8716	289.2018	351.5321	397.1524	491.4669	493.8983	567.7214	728.5376	751.522	780.2885	901.5045	912.2828	1028.1234	1042.1194	1080.4077	1104.2214	1127.4646	1159.3986	1196.103	1233.0196	1265.6351	1280.0525	1366.647	1386.0862	1396.4463	1435.0391	1492.5521	1496.6452	1507.579	1603.1966	2989.8236	3045.9699	3085.5593	3103.0062	3651.2631	3808.1881
OCCOC1=NNN=N1	OCCOc1n[nH]nn1	
InChI=1S/C3H6N4O2/c8-1-2-9-3-4-6-7-5-3/h8H,1-2H2,(H,4,5,6,7)	InChI=1S/C3H6N4O2/c8-1-2-9-3-4-6-7-5-3/h8H,1-2H2,(H,4,5,6,7)
