15
gdb 6596	6.09174	1.32198	1.32038	4.1323	67.14	-0.2813	0.0251	0.3064	932.5324	0.119544	-362.630793	-362.62385	-362.622906	-362.661672	26.956	
O	-0.0819898688	 1.3260117079	 0.0054673963	-0.460976
C	 0.0230648809	-0.0438108346	 0.0015710361	 0.379236
C	 0.6686719096	-0.9757174399	 1.0803781731	-0.316727
C	 0.0429124611	-1.9095538542	-0.0028293997	 0.225089
C	-1.2114876962	-0.9758238464	 0.0084863548	-0.283106
C	 0.6527671134	-0.9707637694	-1.0908183649	-0.316723
C	 0.0519281229	-3.3458179511	-0.0061759258	 0.166597
N	 0.0604444656	-4.5023365338	-0.0089618222	-0.355169
H	 0.8021806818	 1.7088622104	-0.0001284684	 0.290045
H	 1.7594412017	-0.9859969262	 1.1457659211	 0.105965
H	 0.1944411682	-0.9950850102	 2.0635329432	 0.115005
H	-1.8124244399	-0.9911163651	 0.9197181911	 0.114895
H	-1.8257057846	-0.9869787753	-0.8939070845	 0.114896
H	 0.1641833255	-0.9856620683	-2.0669982084	 0.115006
H	 1.7424609889	-0.9807086639	-1.1722244016	 0.105965
149.6396	150.7832	250.0627	363.9595	376.0826	518.7505	528.3868	530.2149	569.9254	570.2866	650.7835	781.579	792.6746	937.0671	954.071	987.0478	1034.5768	1045.1505	1101.6838	1120.6944	1122.3525	1133.086	1154.6933	1165.2189	1167.8985	1276.6104	1315.3592	1393.512	1493.6817	1494.2337	1561.2341	2354.1525	3061.3175	3064.4862	3072.8196	3135.8916	3139.7701	3144.4835	3809.744
OC12CC(C1)(C2)C#N	O[C@@]12C[C@@](C1)(C2)C#N	
InChI=1S/C6H7NO/c7-4-5-1-6(8,2-5)3-5/h8H,1-3H2	InChI=1S/C6H7NO/c7-4-5-1-6(8,2-5)3-5/h8H,1-3H2/t5-,6+
