22
gdb 60544	2.79423	1.25222	0.97871	1.6586	82.13	-0.2362	0.077	0.3132	1280.0232	0.192168	-404.298046	-404.288383	-404.287439	-404.332636	36.617	
C	 1.3503784237	 1.2856609419	-0.5392581731	-0.412843
C	 0.3227088796	 0.2556058516	-0.068633454	-0.028556
N	 0.1184599339	-0.7458988514	-1.122519154	-0.065619
C	-1.2293712204	-1.2766196836	-1.3094961064	-0.222985
C	-0.6518212812	-0.3160786539	-2.2855922472	-0.223374
C	 0.7201821765	-0.4585189358	 1.2292131297	 0.432346
C	-0.3194507603	-1.3838785175	 1.8245202326	-0.464293
C	 2.1317020188	-0.6718418248	 1.5752873852	-0.21994
O	 1.3776962985	 0.3750616141	 2.1979601878	-0.281447
H	 2.239662845	 0.7895686893	-0.9382463039	 0.124161
H	 0.9294281881	 1.9021883384	-1.3379035239	 0.110757
H	 1.6415589382	 1.9353705625	 0.2879261181	 0.139249
H	-0.6239270775	 0.7898093112	 0.1469087971	 0.058321
H	-1.2932147407	-2.3359252195	-1.5422725039	 0.116439
H	-2.0233399684	-0.9042686015	-0.664312898	 0.112194
H	-1.0636560083	 0.6921276606	-2.2840149571	 0.110859
H	-0.2829854292	-0.6538690525	-3.2497537794	 0.116637
H	-1.2701158181	-0.8583210105	 1.9687193632	 0.117287
H	-0.5006892221	-2.2444603682	 1.1751676368	 0.134641
H	 0.0180571993	-1.7452991686	 2.7988831211	 0.12398
H	 2.3972765307	-1.5034559948	 2.2270187514	 0.108033
H	 2.9236295741	-0.342669587	 0.9073344079	 0.114151
40.9148	111.2824	177.054	219.769	228.353	276.6418	282.304	315.8876	348.5056	378.3884	439.331	484.9911	539.4639	714.1526	760.073	826.1327	841.8681	897.3486	906.2094	924.5034	973.6167	1013.0772	1022.9297	1052.0001	1088.518	1112.1418	1118.5174	1120.6831	1127.2018	1132.9747	1168.2464	1177.4889	1196.5863	1248.3396	1315.9978	1355.9029	1368.994	1392.9302	1403.8217	1419.788	1485.5736	1490.6547	1493.4152	1493.804	1506.0642	1518.8062	1534.4872	2899.0038	3037.9455	3050.8503	3090.4878	3092.6503	3097.6001	3106.4884	3116.132	3127.812	3143.6817	3175.0716	3179.1673	3189.5856
CC(N1CC1)C1(C)CO1	C[C@@H](N1CC1)[C@@]1(C)CO1	
InChI=1S/C7H13NO/c1-6(8-3-4-8)7(2)5-9-7/h6H,3-5H2,1-2H3	InChI=1S/C7H13NO/c1-6(8-3-4-8)7(2)5-9-7/h6H,3-5H2,1-2H3/t6-,7-/m1/s1
