17
gdb 65075	2.10236	1.70604	1.26427	3.8137	68.62	-0.2599	-0.0429	0.217	1054.8121	0.132395	-458.925112	-458.916184	-458.91524	-458.958888	32.489	
C	 0.20263798	 0.8216911478	 1.2172272937	-0.484739
C	-0.0098056278	-0.0504926822	-0.0008876059	 0.318077
C	 0.683745219	 0.2305283881	-1.2671909555	-0.218581
O	 1.115642416	-0.8331680922	-0.4125308579	-0.272558
C	-1.3188162316	-0.7993368473	-0.0549673298	 0.23023
C	-2.5199448796	-0.1737982422	-0.6573016872	-0.210825
O	-1.8104155817	-1.1870813925	-1.3463389809	-0.255221
C	-1.5887865915	-1.8573078636	 0.9806217586	 0.132089
O	-0.9905944961	-1.9853224951	 2.0157671434	-0.246847
H	 1.1799108571	 1.3067099772	 1.1586126516	 0.130138
H	-0.5686539776	 1.5970979588	 1.2807286682	 0.116396
H	 0.1622003117	 0.2170110663	 2.1253085028	 0.163401
H	 0.2383162533	-0.0830608156	-2.2074639335	 0.130838
H	 1.3524063981	 1.0891654164	-1.316713061	 0.112149
H	-3.5143056654	-0.4476828357	-0.3066165241	 0.128736
H	-2.4206327583	 0.8336738669	-1.0582382213	 0.131601
H	-2.4225680455	-2.5323842452	 0.6849471187	 0.095117
61.6567	125.2175	176.7319	187.5032	219.2558	272.7789	337.242	362.6813	372.9815	448.514	521.1144	571.4069	647.9721	818.4279	873.8006	886.4855	893.9185	929.4506	950.6657	1024.7208	1050.8394	1109.2238	1133.6884	1140.2319	1156.1012	1174.8626	1194.7898	1292.911	1346.9288	1397.3601	1410.6682	1430.1662	1478.1393	1505.4186	1517.1603	1522.9656	1832.947	2893.0807	3043.7684	3084.366	3090.4418	3116.0695	3144.276	3175.9432	3189.643
CC1(CO1)C1(CO1)C=O	C[C@]1(CO1)[C@]1(CO1)C=O	
InChI=1S/C6H8O3/c1-5(3-8-5)6(2-7)4-9-6/h2H,3-4H2,1H3	InChI=1S/C6H8O3/c1-5(3-8-5)6(2-7)4-9-6/h2H,3-4H2,1H3/t5-,6+/m0/s1
