22
gdb 6577	3.48852	1.65197	1.42692	0.2618	82.29	-0.2415	0.0876	0.3291	1014.9057	0.1992	-313.057711	-313.049014	-313.04807	-313.089857	34.456	
C	 0.0379623471	 1.5665724124	 0.0575118347	-0.498629
C	 0.0469867233	 0.0655891087	 0.0045907482	 0.386732
C	-0.8985443646	-0.7936312892	 0.796454811	-0.347044
C	 0.5836385243	-0.9633144231	 1.00555627	-0.119438
C	 1.237734845	-1.7780123531	-0.1299442347	 0.351547
C	 2.7621668692	-1.6544967717	-0.0807955656	-0.437821
C	 0.8235272777	-3.2427279941	-0.2667035847	-0.443889
C	 0.6146958197	-0.7634549607	-1.1596145553	-0.344798
H	 1.0194903296	 1.9836896077	-0.1968016098	 0.112904
H	-0.6903861674	 1.9856628436	-0.6482251026	 0.11678
H	-0.229274454	 1.9266406647	 1.0568134447	 0.114583
H	-1.4165261324	-0.286332307	 1.6053833003	 0.104062
H	-1.4933854849	-1.5661459135	 0.3139296576	 0.099676
H	 1.0390804716	-0.7955766737	 1.9768566022	 0.071417
H	 3.1746618941	-2.2156679259	 0.7662470704	 0.108106
H	 3.2184889855	-2.047738283	-0.9964807685	 0.108348
H	 3.0721858707	-0.609973029	 0.0300677849	 0.110022
H	-0.263645386	-3.361208958	-0.2918868779	 0.109886
H	 1.2253404965	-3.6774959061	-1.1896295972	 0.108752
H	 1.2040504816	-3.8371088238	 0.5721969634	 0.109341
H	-0.127216961	-1.1706231092	-1.8557772169	 0.085588
H	 1.3796501843	-0.2373723263	-1.7378340242	 0.093875
129.8259	206.2003	208.5327	220.2684	265.8333	318.0277	329.1533	348.221	392.7213	425.5816	486.4126	565.6939	671.4651	793.5383	816.8402	848.2363	902.5086	944.3207	951.7205	958.8179	977.5191	987.8814	1018.4411	1038.6516	1053.49	1073.8579	1096.2694	1149.1352	1201.2689	1209.2143	1237.9806	1270.4948	1287.1245	1315.3332	1389.1232	1401.7134	1418.5029	1425.9162	1480.3967	1482.8379	1484.8887	1488.1276	1499.029	1501.4667	1507.0313	1510.1628	3015.3855	3018.0549	3023.2169	3034.7695	3071.8393	3080.8417	3086.0168	3089.3353	3090.8549	3095.044	3098.2756	3104.0716	3153.0486	3187.9564
CC12CC1C(C)(C)C2	C[C@]12C[C@H]1C(C)(C)C2	
InChI=1S/C8H14/c1-7(2)5-8(3)4-6(7)8/h6H,4-5H2,1-3H3	InChI=1S/C8H14/c1-7(2)5-8(3)4-6(7)8/h6H,4-5H2,1-3H3/t6-,8+/m0/s1
