16
gdb 13673	5.05256	0.99705	0.90308	5.5503	66.2	-0.2327	0.0269	0.2596	1240.6295	0.130056	-379.893369	-379.884999	-379.884055	-379.926916	29.929	
O	-0.1984530725	 1.4346325808	 0.2271757414	-0.418451
C	-0.014459413	 0.0546501458	 0.0871821142	 0.085916
C	-0.6767886842	-0.876348068	 1.0752908151	-0.348811
C	-1.2270220172	-0.7125032084	-0.3435359411	 0.021675
N	-2.4265671195	 0.0237278793	-0.6139289745	-0.303196
C	-3.6315945277	-0.5953159071	-0.0796741158	-0.254521
C	-4.8152531621	 0.220847584	-0.3644510378	 0.255332
N	-5.7489833209	 0.8703432301	-0.5648396798	-0.299575
H	 0.2602042872	 1.7227411905	 1.0229091552	 0.295743
H	 0.9467500737	-0.2353142787	-0.3340832671	 0.098692
H	-0.1754062143	-1.7983841377	 1.3493600388	 0.118101
H	-1.2382755579	-0.4017852301	 1.8741691211	 0.115878
H	-1.0613171638	-1.5453977239	-1.0229909593	 0.103747
H	-2.3236258123	 0.9787709746	-0.2876506733	 0.246446
H	-3.7694506386	-1.5754935881	-0.5536189096	 0.15361
H	-3.599745597	-0.7812262232	 1.0091297525	 0.129414
53.9084	99.5433	122.0208	229.015	273.1368	303.3208	371.1528	392.341	484.1528	532.0751	618.7369	747.5875	752.2464	842.5569	894.9197	963.9661	993.8544	1004.7081	1010.184	1042.5902	1124.3109	1133.034	1168.4258	1194.7353	1241.787	1264.907	1301.1095	1344.9299	1389.4261	1418.9542	1471.5005	1492.9178	1510.4563	2368.6693	2941.8927	3043.6333	3112.359	3126.9351	3132.3853	3218.8706	3540.1562	3814.5562
OC1CC1NCC#N	O[C@H]1C[C@H]1NCC#N	
InChI=1S/C5H8N2O/c6-1-2-7-4-3-5(4)8/h4-5,7-8H,2-3H2	InChI=1S/C5H8N2O/c6-1-2-7-4-3-5(4)8/h4-5,7-8H,2-3H2/t4-,5+/m1/s1
