20
gdb 120064	4.20215	0.93249	0.9037	2.4378	77.86	-0.2368	0.0788	0.3157	1356.1974	0.17191	-403.070894	-403.062677	-403.061733	-403.104327	31.51	
O	 0.1706849768	 1.3854235896	 0.0845133636	-0.420973
C	 0.037605246	-0.0249056275	-0.0122451367	-0.062895
C	-1.4134329349	-0.4956416077	 0.1326318001	-0.237726
C	-1.5320558948	-2.0097611617	 0.0532609093	 0.084088
C	-2.8857609452	-2.7510183436	 0.1064339068	-0.114648
C	-3.6873459653	-2.1492781474	-1.0782988275	-0.247869
C	-2.5952762502	-2.7417948081	-1.9672786528	-0.036534
C	-2.2184279501	-3.7343688742	-0.9349266079	-0.048219
N	-1.2514811374	-2.658614209	-1.2789265801	-0.158734
H	-0.265039357	 1.7733431739	-0.6808119966	 0.279633
H	 0.4582457022	-0.4089393648	-0.9528637967	 0.110825
H	 0.6450985698	-0.4338840592	 0.8029071556	 0.108725
H	-1.8075477607	-0.146086398	 1.0954119682	 0.105204
H	-2.0184924573	-0.0236111755	-0.6508616016	 0.089018
H	-0.8330116839	-2.4716643818	 0.7611035594	 0.079031
H	-3.3763417102	-2.9987380723	 1.0461638303	 0.071996
H	-4.6264515129	-2.6881004741	-1.2292997881	 0.107511
H	-3.8790550173	-1.072168944	-1.0891823483	 0.096447
H	-2.5636496227	-2.8276729247	-3.0452571478	 0.097296
H	-1.9948765048	-4.7926290098	-0.9563092292	 0.097823
70.2257	88.606	133.4697	234.9281	290.9941	336.3672	371.0123	492.0384	599.0385	699.2333	717.1669	781.1236	796.5721	830.7502	855.6596	902.6741	921.948	959.4079	977.4821	989.6034	1008.4806	1037.022	1067.03	1074.0078	1094.2428	1118.5255	1121.0694	1137.7559	1167.1196	1186.3511	1214.1343	1235.4266	1255.4446	1288.2502	1299.9553	1317.4763	1342.5862	1388.8842	1418.0496	1421.6521	1479.6905	1505.7186	1514.6622	3003.6707	3024.9647	3032.8563	3052.0763	3057.8005	3081.1311	3105.8626	3130.2967	3198.8675	3213.1359	3817.2215
OCCC1C2CC3C2N13	OCC[C@H]1[C@H]2C[C@@H]3[C@H]2N13	
InChI=1S/C7H11NO/c9-2-1-5-4-3-6-7(4)8(5)6/h4-7,9H,1-3H2	InChI=1S/C7H11NO/c9-2-1-5-4-3-6-7(4)8(5)6/h4-7,9H,1-3H2/t4-,5+,6-,7+,8?/m1/s1
