14
gdb 113138	2.45983	1.18696	0.89828	3.4559	68.62	-0.291	-0.0389	0.2521	1244.6697	0.100343	-432.844128	-432.83531	-432.834365	-432.878247	30.904	
O	 0.0319070966	 1.369062398	-0.3420923166	-0.406205
C	 0.0462356565	 0.093150904	 0.2645697463	-0.088127
C	-1.3442650316	-0.5070381629	 0.244544594	-0.06096
N	-1.773760531	-1.0669932389	-1.0288890319	-0.336883
C	-1.572932972	-1.9988404373	 0.1092058301	 0.020866
C	-0.4589283101	-2.9167474241	-0.0148230075	 0.291877
N	 0.4370251503	-3.6411847357	-0.094845198	-0.322276
C	-2.7414953421	-2.5435187275	 0.7644399371	 0.248015
N	-3.6957307568	-2.9539900546	 1.2712885336	-0.313393
H	-0.1329167734	 1.2387173346	-1.2827900498	 0.298732
H	 0.7544306336	-0.5905147402	-0.2211155657	 0.12702
H	 0.3693968081	 0.2397159011	 1.2994646823	 0.13488
H	-2.0860869069	 0.0122458837	 0.847437118	 0.136462
H	-2.7706351712	-0.93967895	-1.190086372	 0.269991
70.7785	117.4246	133.2928	149.4548	210.6779	273.7248	344.5589	398.3845	440.2759	493.1	542.7555	596.3512	627.0678	674.4664	823.5684	872.6936	986.2832	1002.9824	1047.2416	1078.5382	1097.9392	1174.8838	1245.611	1265.3593	1327.1372	1377.8687	1413.1925	1450.4549	1493.5593	2360.0062	2369.0515	3028.2709	3097.0032	3147.3165	3508.1158	3805.8823
OCC1NC1(C#N)C#N	OC[C@H]1NC1(C#N)C#N	
InChI=1S/C5H5N3O/c6-2-5(3-7)4(1-9)8-5/h4,8-9H,1H2	InChI=1S/C5H5N3O/c6-2-5(3-7)4(1-9)8-5/h4,8-9H,1H2/t4-/m1/s1
