20
gdb 14264	2.91592	2.46574	1.74648	0.3265	78.85	-0.2291	0.0231	0.2522	841.911	0.180922	-311.867371	-311.860721	-311.859777	-311.897701	27.692	
C	 0.0357672088	 1.5736610301	-0.2186433768	-0.214326
C	 1.5359065241	 1.4770165034	 0.1788308437	 0.01059
C	 1.1856680728	 0.1557145814	 0.9239007169	-0.23453
C	-0.0831054155	 0.0337631446	 0.023275525	-0.039598
C	 0.1249127804	-0.7623149335	-1.2378797098	-0.060991
C	 1.2313114798	-0.7802482745	-1.9844015965	-0.053007
C	 2.538050017	-0.073720855	-1.6996340481	-0.253112
C	 2.486659992	 1.3142078478	-1.0217671456	-0.204612
H	-0.5400487674	 2.1436227632	 0.5169089496	 0.090258
H	-0.2010857595	 1.9371237057	-1.222061033	 0.091157
H	 1.8999987732	 2.293844812	 0.8089608266	 0.059957
H	 1.9047385833	-0.6660289311	 0.897390237	 0.096341
H	 0.9104087069	 0.3460220166	 1.9651135407	 0.092356
H	-0.9932441139	-0.2986812359	 0.5283711847	 0.058336
H	-0.7265586545	-1.349448431	-1.5751565978	 0.078877
H	 1.2292357306	-1.4009380855	-2.8782688654	 0.081833
H	 3.1615812872	-0.7424293977	-1.0880584438	 0.114056
H	 3.090200427	 0.0341406832	-2.6404588086	 0.097252
H	 2.2199501668	 2.0708342705	-1.7709150004	 0.097685
H	 3.5087258608	 1.5532663056	-0.7033219183	 0.091479
161.1682	228.6896	322.2162	351.2704	365.9879	468.4385	543.014	670.3125	737.5833	753.0578	796.5523	806.7802	858.7349	868.4906	886.4577	925.1966	959.3582	982.2624	1000.2649	1044.4968	1070.5468	1079.3106	1103.0139	1119.0435	1160.7825	1177.3603	1217.4547	1242.5322	1257.6923	1264.8867	1276.3322	1302.327	1344.8267	1363.0967	1382.8981	1390.5455	1422.803	1467.7516	1482.888	1489.1511	1505.6699	1717.6408	2998.7759	3015.2234	3041.2052	3046.5514	3051.9725	3055.4293	3061.5473	3071.568	3103.6498	3111.2085	3132.2822	3157.1785
C1C2CC1C=CCC2	C1[C@H]2C[C@@H]1C=CCC2	
InChI=1S/C8H12/c1-2-4-8-5-7(3-1)6-8/h1,3,7-8H,2,4-6H2	InChI=1S/C8H12/c1-2-4-8-5-7(3-1)6-8/h1,3,7-8H,2,4-6H2/t7-,8+
