20
gdb 119737	3.53149	1.04982	0.92791	1.2725	75.79	-0.2213	0.0602	0.2816	1331.2678	0.170717	-440.218035	-440.209123	-440.208178	-440.252324	32.518	
C	 0.1724943146	 1.3120425811	-0.0640185044	-0.220741
O	 0.0464000021	-0.0896403473	-0.032021855	-0.244984
C	-1.2981040302	-0.5228661643	 0.0393690695	-0.151734
C	-1.2804410877	-2.0273964413	 0.1181415444	 0.304395
C	-0.720679724	-2.7954382843	-1.1035279042	-0.113561
O	-1.8938605063	-3.6453259264	-1.1658098555	-0.291416
C	-2.4856358561	-2.9965082275	-0.0296772534	 0.033459
C	-2.0546343793	-3.6307287961	 1.312030464	-0.183967
N	-0.9856407146	-2.6011094322	 1.4470159321	-0.363915
H	 1.2387589805	 1.544163739	-0.1214132075	 0.127364
H	-0.3341557339	 1.7479580511	-0.9399933507	 0.103295
H	-0.2456052308	 1.7798427449	 0.8410021446	 0.107405
H	-1.7961579935	-0.1061945302	 0.9283516751	 0.094663
H	-1.858168112	-0.1942678574	-0.8538720852	 0.084549
H	-0.6103237488	-2.2006706996	-2.018269802	 0.105988
H	 0.2032521457	-3.3602509236	-0.9281383484	 0.097466
H	-3.5306926658	-2.7225955213	-0.1905299824	 0.081634
H	-2.7844789883	-3.5818084122	 2.1285194285	 0.103283
H	-1.7235088215	-4.6675199438	 1.186488348	 0.107135
H	-0.0412346802	-2.9493137784	 1.5728850026	 0.219682
63.2192	101.0832	123.9287	139.2463	229.2594	294.9445	333.6351	365.8052	415.0591	446.0614	636.5983	733.3189	791.1681	848.9039	906.4567	938.3915	949.021	976.6171	988.1588	1001.0107	1034.8685	1065.5518	1107.6807	1141.0344	1150.6491	1159.7834	1169.8593	1194.2627	1209.931	1227.9771	1271.1073	1286.5781	1305.4558	1323.4508	1363.3036	1373.3245	1424.8941	1479.1583	1485.4398	1498.4582	1502.5194	1516.0017	1522.1354	2949.712	2971.3202	3003.7487	3014.4204	3015.5427	3022.1524	3062.3409	3070.7629	3089.1164	3113.861	3527.7855
COCC12COC1CN2	COC[C@]12CO[C@H]1CN2	
InChI=1S/C6H11NO2/c1-8-3-6-4-9-5(6)2-7-6/h5,7H,2-4H2,1H3	InChI=1S/C6H11NO2/c1-8-3-6-4-9-5(6)2-7-6/h5,7H,2-4H2,1H3/t5-,6-/m0/s1
