19
gdb 106348	4.9183	0.90151	0.87279	3.4348	78.05	-0.2435	-0.0245	0.219	1352.0261	0.158152	-422.97978	-422.970899	-422.969955	-423.013884	32.734	
O	-0.1214889236	 1.4099834402	 0.0111180394	-0.421941
C	-0.0486345809	-0.00861022	 0.0044723585	-0.218338
C	-1.4519022551	-0.540381293	 0.0118815199	 0.358778
C	-2.5586553427	-0.2748453518	-1.054335904	-0.292836
C	-3.2081601375	-1.2098111102	 0.0210910862	 0.24676
C	-1.8941904385	-2.0353503824	 0.0091617073	-0.31402
C	-2.5440550116	-0.2831573198	 1.0950113227	-0.292655
C	-4.6060960644	-1.717131742	 0.0291734778	 0.031658
O	-4.9102771968	-2.88465769	 0.0304176357	-0.249426
H	 0.7749992255	 1.757795086	 0.0068312013	 0.290864
H	 0.4786472431	-0.3817818183	-0.8889599725	 0.089974
H	 0.4909699691	-0.3894948681	 0.8872213821	 0.089979
H	-2.9387607363	 0.7466802337	-1.1175108702	 0.107853
H	-2.4078953955	-0.717664998	-2.0426541727	 0.09861
H	-1.6894849142	-2.6084815768	-0.8984324695	 0.099877
H	-1.6772987621	-2.6153512769	 0.9095183899	 0.099945
H	-2.3801008297	-0.7337161383	 2.0777048417	 0.098678
H	-2.9232611673	 0.7378062427	 1.1712294452	 0.107875
H	-5.3855359416	-0.919056957	 0.0344200012	 0.068366
62.5715	93.972	116.2108	205.4641	213.3112	256.5964	352.2324	416.7528	449.6301	536.5008	554.3964	655.3096	715.1554	756.9643	859.021	913.1333	927.5612	962.653	993.5562	1020.9271	1036.671	1074.6943	1082.3368	1103.7191	1129.5433	1138.658	1148.2713	1166.1596	1171.0176	1173.7384	1251.732	1276.0862	1298.5149	1346.7781	1420.9553	1467.2177	1495.9099	1498.181	1511.8496	1558.3586	1815.9882	2854.0766	2960.0677	2988.7293	3054.4611	3055.2745	3063.7694	3123.8535	3128.822	3132.1283	3831.2406
OCC12CC(C1)(C2)C=O	OC[C@@]12C[C@@](C1)(C2)C=O	
InChI=1S/C7H10O2/c8-4-6-1-7(2-6,3-6)5-9/h4,9H,1-3,5H2	InChI=1S/C7H10O2/c8-4-6-1-7(2-6,3-6)5-9/h4,9H,1-3,5H2/t6-,7+
