20
gdb 22178	2.44939	1.22247	1.00132	1.4635	79.45	-0.2409	0.0092	0.2502	1265.9205	0.167565	-440.236196	-440.22599	-440.225046	-440.270883	37.933	
C	-0.1077703252	 1.4846996635	 0.0644579706	-0.419704
C	-0.034394628	-0.0481915915	 0.0041652115	 0.192938
C	-1.4092559037	-0.680422067	 0.2116145374	-0.444602
C	 0.7853769575	-0.5682998694	-1.2327093637	 0.093025
O	 0.899171542	 0.3688573163	-2.2750583948	-0.429002
C	 2.0273479538	-0.8139167359	-0.3163797581	-0.376006
C	 1.0995292355	-0.6020085318	 0.8589433025	 0.396173
N	 1.1155773926	-0.8688831857	 2.0958742334	-0.252339
O	 2.3504345468	-1.4320705626	 2.4787870171	-0.393882
H	 0.8726828638	 1.9465708873	-0.0740286029	 0.120387
H	-0.7667783972	 1.8649898452	-0.7212740857	 0.124334
H	-0.5008048209	 1.7972279893	 1.0364590657	 0.11943
H	-2.1089838974	-0.3399818857	-0.5595486722	 0.116721
H	-1.3560474051	-1.772664137	 0.1704708087	 0.112174
H	-1.817112373	-0.4047897	 1.1889139727	 0.128324
H	 0.3698262231	-1.5187714689	-1.595174075	 0.071513
H	 1.429819881	-0.0204171242	-2.9770124221	 0.287365
H	 2.5330607276	-1.7806843176	-0.3736308171	 0.121691
H	 2.7705211417	-0.0156017145	-0.4166826183	 0.126947
H	 2.2135868452	-1.59634163	 3.4179109104	 0.304514
66.7442	133.7659	166.6533	198.7999	222.3569	238.2133	253.2331	282.0278	322.9389	353.1429	394.1278	420.5817	462.9095	523.4912	604.9632	618.008	751.1304	792.899	884.3372	954.5691	961.9489	971.4636	992.5962	1008.3435	1096.4497	1122.4685	1137.9392	1172.9076	1190.6156	1231.4785	1256.1144	1270.1609	1324.7942	1396.0543	1398.362	1409.5937	1429.2868	1458.4073	1479.4481	1482.8071	1500.6115	1504.8991	1782.2045	3000.8657	3031.8815	3043.8677	3051.8352	3102.2658	3108.3948	3111.2162	3116.9566	3123.3309	3816.6957	3821.5668
CC1(C)C(O)CC1=NO	CC1(C)[C@@H](O)CC1=NO	
InChI=1S/C6H11NO2/c1-6(2)4(7-9)3-5(6)8/h5,8-9H,3H2,1-2H3	InChI=1S/C6H11NO2/c1-6(2)4(7-9)3-5(6)8/h5,8-9H,3H2,1-2H3/t5-/m0/s1
