16
gdb 37665	3.78566	2.1011	2.07427	1.4498	67.5	-0.2345	0.0729	0.3074	741.0188	0.128887	-400.681418	-400.676514	-400.67557	-400.710402	22.352	
O	-0.0796131563	 1.4638261959	-0.0431545809	-0.304525
C	 1.3723754137	 1.4080843763	 0.0280331165	 0.073608
C	 1.3041585212	 0.0859784691	 0.8568352928	-0.080959
C	 2.2887785153	-0.9081455776	 0.2743759124	-0.070945
C	 2.798271627	-0.3764168124	-1.0173264102	-0.053951
C	 1.7902768126	 0.75039679	-1.3109480194	-0.08807
C	 0.7043802945	-0.3801716288	-1.3015095933	-0.011465
C	-0.0034385353	 0.0141873345	 0.0135077287	 0.079668
N	 1.7477309914	-1.4468166595	-1.018657761	-0.164056
H	 1.8415819827	 2.3326355039	 0.363976431	 0.084992
H	 1.203479048	 0.1710948568	 1.9351917599	 0.08373
H	 2.8492979476	-1.6162463633	 0.8715045632	 0.099488
H	 3.7864365372	-0.5352176977	-1.4341686396	 0.096115
H	 1.9116656756	 1.3895953423	-2.1809402224	 0.082294
H	 0.1003132021	-0.5831362651	-2.1820524857	 0.085488
H	-0.9257715971	-0.4774505244	 0.3192460981	 0.088587
443.7573	487.156	528.3507	644.5507	699.1783	751.2653	787.3153	800.3999	834.1852	849.1814	863.1291	870.4527	883.2301	924.6843	932.1514	952.2023	961.6572	980.9387	991.0677	1022.7396	1052.3205	1057.0211	1123.2762	1142.5598	1169.8463	1191.1962	1227.1108	1232.5305	1236.4356	1256.0065	1270.0707	1291.1414	1310.4931	1331.5304	1370.189	3122.9243	3133.7865	3151.6287	3159.5587	3164.4554	3175.0649	3197.9475
O1C2C3C4C5C2C(C13)N45	O1[C@H]2[C@@H]3[C@@H]4[C@@H]5[C@H]2[C@H]([C@H]13)N45	
InChI=1S/C7H7NO/c9-6-1-3-4-2(6)7(9)5(1)8(3)4/h1-7H	InChI=1S/C7H7NO/c9-6-1-3-4-2(6)7(9)5(1)8(3)4/h1-7H/t1-,2-,3-,4+,5+,6+,7+,8?/m0/s1
