16
gdb 17184	3.72471	2.18823	1.66065	2.9736	64.37	-0.2366	0.0486	0.2852	787.68	0.13202	-379.792509	-379.785881	-379.784937	-379.823487	25.841	
O	 0.435212122	 0.4114821693	 0.8384367695	-0.435019
C	-0.2172604383	 0.2831933911	-0.4122128157	-0.174767
C	-1.5433913066	-0.4037868388	-0.2603674684	 0.32617
N	-2.5655083673	-0.6421396711	-1.3318669202	-0.387525
C	-3.1806748255	-1.2471591011	-0.1022437224	-0.042052
C	-1.8075931995	-1.8043533228	 0.3773056945	-0.044947
N	-1.8610955271	-1.2178576509	 1.758483156	-0.369281
C	-2.5756057144	-0.2084119348	 0.904514589	-0.074865
H	 0.0005438432	-0.1860403275	 1.465323149	 0.30156
H	-0.3641727977	 1.2881452758	-0.8342239763	 0.098454
H	 0.4011274495	-0.278702342	-1.1301214009	 0.101369
H	-3.0385339084	 0.2349505158	-1.5673748643	 0.210959
H	-4.1589976164	-1.7312379324	-0.0970795984	 0.085768
H	-1.3315945165	-2.7547216585	 0.1376721526	 0.097753
H	-2.5163228854	-1.7318146214	 2.3519864355	 0.216617
H	-3.0024563116	 0.7166322291	 1.2963868605	 0.089805
68.5518	187.6077	292.9466	410.0189	416.4386	486.6954	499.9705	680.2063	738.9037	789.4352	825.6781	841.8708	890.6604	910.2598	939.6675	992.7452	1017.7233	1065.7198	1080.7365	1090.5219	1099.8114	1125.4144	1154.7682	1189.9536	1207.9041	1232.6519	1262.5324	1270.6882	1292.1741	1306.873	1357.5187	1387.6864	1483.4061	1519.1908	2979.1235	3012.2083	3096.9473	3108.6464	3130.2699	3398.6545	3414.4793	3692.8695
OCC12NC3C1NC23	OC[C@@]12N[C@H]3[C@@H]1N[C@@H]23	
InChI=1S/C5H8N2O/c8-1-5-3-2(7-5)4(5)6-3/h2-4,6-8H,1H2	InChI=1S/C5H8N2O/c8-1-5-3-2(7-5)4(5)6-3/h2-4,6-8H,1H2/t2-,3-,4+,5+
