22
gdb 78035	2.25621	1.53198	1.30689	0.801	82.19	-0.2184	0.0862	0.3046	1143.3998	0.193442	-404.333541	-404.324151	-404.323207	-404.367033	35.834	
C	-0.1733924755	 1.8154928988	 0.7564315329	-0.399024
C	-0.5018977487	 0.3228840246	 0.7192209633	 0.102887
O	-0.3450025874	-0.2203417509	-0.6001414124	-0.272013
C	 0.90286372	-0.8988970614	-0.7048975229	-0.146746
C	 1.3388459926	-1.2610138532	 0.7074845468	 0.301862
C	 2.8007565708	-1.5321428991	 0.9640145117	-0.47458
C	 0.4222603943	-0.4927332684	 1.6082242259	-0.099676
N	 0.3690220108	-1.9472475213	 1.5551408379	-0.141934
C	-0.7829099394	-2.6690785626	 1.0241966032	-0.335817
H	 0.8831199491	 1.9926691016	 0.5296715075	 0.117295
H	-0.777992925	 2.3494978943	 0.0186793421	 0.125817
H	-0.3855363731	 2.2351703068	 1.745584279	 0.114957
H	-1.5590926779	 0.1784295273	 0.979402368	 0.084002
H	 0.7516793047	-1.7710256853	-1.353480994	 0.10498
H	 1.6684256275	-0.2617836933	-1.1752371225	 0.094215
H	 3.4217431543	-0.681243703	 0.6627758245	 0.11509
H	 2.9653813139	-1.7309765139	 2.0252029326	 0.131661
H	 3.1428283717	-2.4098384654	 0.4029254149	 0.119789
H	 0.7415992193	-0.0556597371	 2.5518623951	 0.086216
H	-1.2599037562	-2.2093848751	 0.1502740689	 0.133002
H	-0.4613095329	-3.6807280711	 0.7564838412	 0.118396
H	-1.5281101028	-2.7624396223	 1.8208399763	 0.11962
113.2794	170.6489	183.934	188.7918	225.6128	236.0455	248.9679	313.9267	336.657	412.4731	467.4417	554.4975	588.8943	700.0525	755.5744	773.4356	843.9744	898.0321	940.5081	972.2123	990.4395	1011.7988	1030.5233	1095.0715	1124.2515	1132.6933	1137.8008	1163.1994	1171.8146	1182.8837	1232.5378	1262.4071	1298.3038	1330.0834	1366.6187	1378.5084	1401.6991	1409.6339	1431.7067	1466.3131	1487.1385	1489.4253	1493.4362	1494.5549	1498.4924	1513.3921	1523.392	2978.4971	3014.6324	3019.845	3029.0836	3035.4163	3039.853	3084.9529	3086.8151	3096.7486	3105.1218	3120.1534	3127.0181	3130.1491
CC1OCC2(C)C1N2C	C[C@H]1OC[C@@]2(C)[C@@H]1N2C	
InChI=1S/C7H13NO/c1-5-6-7(2,4-9-5)8(6)3/h5-6H,4H2,1-3H3	InChI=1S/C7H13NO/c1-5-6-7(2,4-9-5)8(6)3/h5-6H,4H2,1-3H3/t5-,6-,7+,8?/m1/s1
