18
gdb 93936	3.51307	1.17291	1.00936	2.9883	67.73	-0.2387	0.0278	0.2665	1202.9906	0.147422	-476.264094	-476.255097	-476.254153	-476.298594	32.82	
C	 0.6635401318	 1.4192795943	 0.1133922931	-0.396689
C	 0.2148834693	 0.045235151	 0.585058061	 0.217302
O	-0.4001735596	-0.7162769038	-0.4308332559	-0.257153
C	 0.5853549469	-1.597885351	-0.9554974583	-0.119821
C	 1.4402785636	-1.900449616	 0.2754979605	 0.006626
O	 1.351793009	-0.7029554135	 1.0428966054	-0.296772
C	 0.939660828	-3.1441802427	 1.031271822	 0.366999
N	 0.7465517607	-2.9507857954	 2.3575549023	-0.516449
O	 0.7728889491	-4.1992576533	 0.4493813106	-0.3719
H	 1.3621599286	 1.3290453685	-0.7230748638	 0.123483
H	-0.2036092284	 2.0026021664	-0.2081578213	 0.128115
H	 1.1629126968	 1.9502834533	 0.9287245253	 0.126217
H	-0.5109689762	 0.1314407607	 1.4053091075	 0.086308
H	 0.0942366447	-2.4866241562	-1.3514979417	 0.149571
H	 1.1782916961	-1.1158039598	-1.7446212918	 0.098458
H	 2.4903570805	-2.0757191685	 0.0196599077	 0.120311
H	 0.9124525142	-2.0436746078	 2.7586484947	 0.27155
H	 0.446487435	-3.7214931862	 2.9301184024	 0.263844
45.8693	69.6339	127.2143	232.9053	240.2696	289.3554	309.437	378.0652	441.2805	499.8011	534.733	603.9744	697.8223	740.3946	768.6182	837.8611	861.8831	886.5086	989.2702	1022.6923	1041.6781	1075.1876	1087.6384	1106.0302	1131.4258	1183.121	1228.0497	1277.1204	1322.8384	1342.5744	1379.2301	1383.1963	1396.9097	1415.525	1483.1237	1486.3913	1519.8794	1590.1364	1802.7517	3010.6891	3013.1306	3047.0004	3066.0062	3126.0421	3129.3385	3140.8489	3603.3287	3744.1177
CC1OCC(O1)C(N)=O	C[C@H]1OC[C@@H](O1)C(=O)N	
InChI=1S/C5H9NO3/c1-3-8-2-4(9-3)5(6)7/h3-4H,2H2,1H3,(H2,6,7)	InChI=1S/C5H9NO3/c1-3-8-2-4(9-3)5(6)7/h3-4H,2H2,1H3,(H2,6,7)/t3-,4+/m0/s1
