17
gdb 52482	5.83439	0.54725	0.52332	1.6369	100.37	-0.2201	-0.012	0.2082	2115.5673	0.133233	-384.631439	-384.621453	-384.620509	-384.668401	35.127	
C	 0.0037562893	 1.4839287707	 0.0022692236	-0.517648
C	 0.0069307585	 0.032440947	-0.0056915847	 0.22192
C	 0.0075897449	-1.1783679876	-0.0130561335	-0.188545
C	 0.0094485161	-2.5369306571	-0.0219555379	-0.34173
C	-0.0051684573	-3.7495170564	-0.0268928786	 0.425999
C	 0.0435986304	-5.1847383437	-0.0339591209	 0.16742
O	 1.0553944579	-5.7555829521	-0.8233512158	-0.439629
C	-0.3741840492	-5.9427352414	 1.2205727528	-0.311045
C	-1.2348830124	-5.9852429755	-0.0146764379	-0.287766
H	 1.0247408599	 1.881870871	-0.0188894917	 0.15637
H	-0.5289293511	 1.8872462556	-0.8664770522	 0.156142
H	-0.4846056507	 1.8733808294	 0.9028496959	 0.15629
H	 1.9007441051	-5.4334883631	-0.4901785512	 0.286481
H	 0.2183251638	-6.8213659502	 1.4489054683	 0.123996
H	-0.714103813	-5.3692439571	 2.0747545535	 0.127216
H	-2.1719411953	-5.4424571699	-0.0185950337	 0.13115
H	-1.215822187	-6.8898498596	-0.6113695058	 0.133379
15.8662	62.4214	71.2658	164.5001	182.2918	293.5393	309.7913	323.3658	350.6779	388.4727	506.4915	512.4412	525.6946	596.5993	622.4714	770.4826	788.0555	874.6313	922.3022	929.1259	995.4905	1047.1126	1048.0369	1054.3587	1082.1477	1191.2055	1195.1838	1239.1299	1336.2789	1388.0288	1414.841	1449.2005	1471.164	1472.8573	1484.844	2270.9854	2375.0649	3023.0558	3084.5422	3085.0573	3140.4514	3147.8494	3231.6145	3246.739	3796.6131
CC#CC#CC1(O)CC1	CC#CC#CC1(O)CC1	
InChI=1S/C8H8O/c1-2-3-4-5-8(9)6-7-8/h9H,6-7H2,1H3	InChI=1S/C8H8O/c1-2-3-4-5-8(9)6-7-8/h9H,6-7H2,1H3
