16
gdb 20880	6.77138	1.03637	0.95923	3.8791	66.38	-0.2973	-0.0408	0.2565	1211.1616	0.130592	-379.893083	-379.885387	-379.884443	-379.926257	27.074	
C	 0.0794148426	 1.5703669107	-0.0269678704	-0.381169
C	 0.2872701362	 0.0552537124	-0.0725685852	-0.168222
C	 0.4499413839	-0.5560489879	 1.3324632847	-0.302085
C	 0.6638620258	-2.0359081384	 1.304209197	 0.33526
N	-0.2430865658	-2.8881595695	 1.7062719637	-0.146231
O	 0.2905311938	-4.133277388	 1.5162092869	-0.148598
N	 1.5477826944	-4.0593517463	 0.9897501513	-0.059987
C	 1.7910411117	-2.7866824534	 0.852953368	-0.106231
H	 0.9306100857	 2.0743449682	 0.444043258	 0.117757
H	-0.0369299772	 1.9822270909	-1.0336208631	 0.120441
H	-0.817539858	 1.8294546457	 0.5457762287	 0.122728
H	-0.5619117389	-0.4259937582	-0.5712454267	 0.117789
H	 1.1720248017	-0.1800338858	-0.6772197254	 0.102589
H	 1.2979706912	-0.0796445532	 1.8401970813	 0.118151
H	-0.440252488	-0.3491405082	 1.9340342434	 0.132867
H	 2.7328465609	-2.4427645989	 0.4537368978	 0.144942
45.746	89.1701	121.5067	240.2098	311.1366	327.3948	385.5953	650.2266	683.8749	742.9053	765.6812	874.604	891.7348	897.6071	905.9516	934.5241	1025.8461	1045.1742	1045.5092	1109.0341	1118.5524	1203.2151	1255.9238	1310.8798	1325.5597	1384.1509	1414.2896	1426.262	1464.4146	1480.9932	1492.8286	1498.3271	1509.8312	1613.7832	3027.2333	3032.1922	3036.081	3063.0816	3092.5659	3104.0504	3109.9702	3265.6396
CCCC1=NON=C1	CCCc1nonc1	
InChI=1S/C5H8N2O/c1-2-3-5-4-6-8-7-5/h4H,2-3H2,1H3	InChI=1S/C5H8N2O/c1-2-3-5-4-6-8-7-5/h4H,2-3H2,1H3
