21
gdb 96015	3.05832	1.20532	0.99464	2.5777	79.03	-0.2364	0.0655	0.302	1265.8176	0.183152	-424.21313	-424.204252	-424.203308	-424.247095	33.599	
O	-0.1488751478	 1.4742484112	 0.3361949671	-0.434243
C	-0.0760621462	 0.0875413858	 0.030048449	 0.088938
C	 0.6411469224	-0.7005213363	 1.1333386329	-0.263197
C	-0.4559191834	-0.788310453	 2.2011474527	-0.052822
O	-1.6882841703	-0.8608454512	 1.4894712222	-0.28482
C	-1.4946891535	-0.5040502412	 0.1126479193	 0.121202
C	-2.6029487295	 0.3981127211	-0.3558832033	 0.032553
C	-3.0258635504	 0.361630124	-1.8045560163	-0.274601
C	-3.9312167669	-0.1995699562	-0.7381393951	-0.274328
H	 0.7487080094	 1.8186774853	 0.3677990916	 0.284077
H	 0.3601970735	-0.0710982487	-0.965280191	 0.065588
H	 0.9112192863	-1.696821411	 0.766434204	 0.105934
H	 1.5531389943	-0.2081331339	 1.4840511001	 0.091222
H	-0.3618784326	-1.6714864292	 2.8422805823	 0.098558
H	-0.4476312275	 0.1053771144	 2.8403709816	 0.098286
H	-1.5104447744	-1.426028749	-0.4931693313	 0.058666
H	-2.617430839	 1.364219545	 0.1337228136	 0.100316
H	-3.2969955362	 1.2979587618	-2.2787309571	 0.110972
H	-2.5272872125	-0.3398042052	-2.4662481721	 0.1045
H	-4.0376021048	-1.2776619604	-0.6769128136	 0.112633
H	-4.8297850208	 0.3497564466	-0.4810203667	 0.110567
68.4853	85.5709	165.6705	176.745	241.3393	269.7892	310.7894	409.7417	436.5019	488.227	670.5768	764.4248	787.7315	828.9146	841.9018	866.1797	903.7978	912.2258	921.7649	962.2835	989.5421	1019.6217	1043.1819	1057.3388	1076.3528	1093.7455	1134.9855	1143.4341	1187.0372	1196.6502	1205.1118	1214.1854	1225.6292	1242.6531	1306.8049	1319.0876	1335.8826	1358.4881	1394.5919	1420.901	1443.436	1472.6972	1480.7669	1508.6762	1524.2917	2952.1506	3005.9545	3013.2844	3045.6105	3063.0414	3096.083	3129.4379	3135.6014	3187.5126	3207.9828	3224.1336	3825.8472
OC1CCOC1C1CC1	O[C@H]1CCO[C@H]1C1CC1	
InChI=1S/C7H12O2/c8-6-3-4-9-7(6)5-1-2-5/h5-8H,1-4H2	InChI=1S/C7H12O2/c8-6-3-4-9-7(6)5-1-2-5/h5-8H,1-4H2/t6-,7-/m0/s1
