21
gdb 90903	3.3521	1.48639	1.39669	0.2638	87.78	-0.2145	0.0139	0.2284	1042.3832	0.183723	-349.851015	-349.843629	-349.842685	-349.882152	31.579	
C	-0.3968064884	 1.4849105154	-0.1123702927	-0.402241
C	-0.0084403376	 0.0129247652	-0.0551274406	-0.080536
C	 1.1901424988	-0.4082364788	-1.033297432	-0.298086
C	 2.1356697988	-0.1613543274	 0.186268105	 0.041632
C	 2.9454783685	-0.872171676	 1.3494721112	-0.132687
C	 1.9166749326	-0.0705585735	 2.2992670961	-0.309034
C	 0.9524996813	-0.4534646568	 1.0925924954	 0.253511
C	 1.0137021464	-1.9910166186	 1.216026362	-0.122625
C	 2.3088959697	-2.2593955169	 1.3811971863	-0.079504
H	 0.4701415972	 2.144373163	-0.0035752054	 0.114863
H	-0.8742418994	 1.7215575749	-1.0694299249	 0.114185
H	-1.105788112	 1.7331658127	 0.684534048	 0.117041
H	-0.9072394889	-0.6058180826	-0.1568911133	 0.06586
H	 1.1016570284	-1.4554648403	-1.3276031447	 0.113177
H	 1.3520018084	 0.2123966881	-1.9190650684	 0.090646
H	 2.3869791327	 0.9039937975	 0.2017802715	 0.075138
H	 4.0252404744	-0.7767251268	 1.4759387448	 0.060217
H	 1.7213309322	-0.5130721473	 3.2801279779	 0.094227
H	 2.1383481902	 0.99765204	 2.3842788949	 0.096859
H	 0.1558766807	-2.6499614279	 1.1892490011	 0.089503
H	 2.8200715659	-3.1990925138	 1.5349540077	 0.097854
176.4224	210.8464	228.4096	332.7715	376.7489	426.2422	476.9936	537.586	593.3167	658.0284	698.6744	730.5637	754.8034	807.9257	821.1293	842.7991	891.6742	909.8126	916.1447	959.9409	981.658	1006.5923	1026.9534	1035.0784	1059.1809	1066.8779	1098.3378	1118.8699	1147.2072	1173.5991	1182.6507	1202.6932	1208.5714	1213.3185	1254.2881	1256.5404	1320.4255	1355.2013	1390.9147	1409.7127	1467.8602	1486.531	1496.4685	1497.2342	1630.6285	3030.7009	3034.8425	3038.8912	3049.2562	3060.477	3095.0857	3101.0176	3103.8281	3115.1882	3128.2062	3208.9274	3240.5545
CC1CC2C3CC12C=C3	C[C@H]1C[C@@H]2[C@H]3C[C@@]12C=C3	
InChI=1S/C9H12/c1-6-4-8-7-2-3-9(6,8)5-7/h2-3,6-8H,4-5H2,1H3	InChI=1S/C9H12/c1-6-4-8-7-2-3-9(6,8)5-7/h2-3,6-8H,4-5H2,1H3/t6-,7+,8+,9-/m0/s1
