19
gdb 96940	3.43888	1.15162	1.0548	2.8966	78.92	-0.2326	0.0235	0.256	1235.5888	0.159067	-419.170438	-419.161618	-419.160674	-419.204304	32.465	
C	-0.27926163	 1.3957088623	-0.2556975046	-0.339188
N	-0.1717418758	-0.0557370794	-0.3045273789	-0.338012
C	-1.1450370708	-0.7550042397	 0.0394381589	 0.517535
O	-2.4048625204	-0.3833867099	 0.5329649968	-0.287625
C	-2.7693351949	-1.771645102	 0.7756552085	 0.086615
C	-3.5168433061	-2.4519415726	-0.3955217483	 0.02364
C	-4.5343481013	-1.6526370522	-1.1877097189	-0.386544
N	-2.2061929697	-2.6831833406	-1.0849929882	-0.331936
C	-1.4489299172	-2.2372989766	 0.1194281347	-0.189394
H	 0.5776988552	 1.7976327943	 0.294939278	 0.125977
H	-0.2189201393	 1.7925276376	-1.2754139974	 0.130632
H	-1.2030964733	 1.7608928811	 0.207781031	 0.125976
H	-3.0932071783	-1.9264498743	 1.8037683046	 0.094404
H	-3.9620769708	-3.387899392	-0.0286150055	 0.073814
H	-4.1158682597	-0.6856577171	-1.4751200948	 0.138298
H	-4.8173011187	-2.1911593621	-2.0974717351	 0.119143
H	-5.4405336026	-1.4824733722	-0.5961534387	 0.11383
H	-2.0361983647	-3.6520457212	-1.3261765605	 0.225404
H	-0.7065270314	-2.9131336235	 0.5415338481	 0.097429
78.9569	85.6657	146.8814	195.9305	212.5819	238.1303	333.7425	381.1948	461.68	543.0861	639.5259	680.8339	747.6247	792.8355	813.5182	879.1649	911.4031	943.0928	959.0491	1027.299	1040.1893	1059.4452	1102.4111	1115.1321	1131.6516	1139.2103	1167.9638	1183.2187	1222.1155	1236.7583	1322.9823	1329.3499	1372.0369	1380.4708	1411.5704	1439.2015	1486.4279	1492.861	1493.716	1498.2063	1854.2529	2996.9756	3018.0022	3039.6431	3083.5598	3090.2093	3105.3118	3120.7801	3131.2233	3134.59	3550.8872
CN=C1OC2C(C)NC12	CN=C1O[C@H]2[C@@H](C)N[C@@H]12	
InChI=1S/C6H10N2O/c1-3-5-4(8-3)6(7-2)9-5/h3-5,8H,1-2H3	InChI=1S/C6H10N2O/c1-3-5-4(8-3)6(7-2)9-5/h3-5,8H,1-2H3/t3-,4-,5+/m1/s1
