23
gdb 118526	2.7587	0.81387	0.69459	4.2219	87.22	-0.2267	0.0256	0.2523	1712.3136	0.204261	-384.473981	-384.462931	-384.461987	-384.51106	39.076	
C	-0.0529777733	 1.2426360267	-1.1902733601	-0.38412
C	-0.0632404165	-0.1376943957	-0.5264289991	-0.191143
C	-1.4865649769	-0.66915128	-0.3399346397	-0.115434
N	-1.5380628192	-2.064175431	 0.0991708365	-0.070706
C	-0.8802293579	-2.3575045687	 1.3786452445	-0.161468
C	-1.430101619	-1.6439356347	 2.6247946461	-0.394182
C	-2.8882152347	-2.5970656573	-0.0023243779	-0.283463
C	-2.9207342242	-4.0606997085	 0.1214851004	 0.273725
N	-2.9653000146	-5.210208108	 0.2266503354	-0.312152
H	 0.9683062919	 1.6183079832	-1.3003810939	 0.118687
H	-0.5047930871	 1.2085615415	-2.1876516068	 0.11788
H	-0.6132245857	 1.9743007514	-0.597547766	 0.117172
H	 0.5006947571	-0.8557833402	-1.1328230367	 0.112519
H	 0.447496783	-0.0727477799	 0.4409508534	 0.104179
H	-2.0436728885	 0.0093198368	 0.3345648067	 0.082299
H	-2.0014854177	-0.620521438	-1.3079920408	 0.099443
H	-0.9351633053	-3.44099757	 1.5269245585	 0.130359
H	 0.1819579956	-2.1234033161	 1.264556631	 0.112071
H	-0.8715011886	-1.9677109458	 3.5084452777	 0.123594
H	-1.3329757041	-0.5562567113	 2.5530969852	 0.12064
H	-2.4846334678	-1.8775452883	 2.8034311827	 0.121006
H	-3.6012288849	-2.1846522035	 0.7366289455	 0.128325
H	-3.2906950416	-2.3401392726	-0.9889954325	 0.150769
46.2583	64.1426	87.9776	125.9198	156.7798	209.755	237.5985	240.8462	257.6607	342.7231	376.1505	395.7968	428.5842	478.8437	607.8289	759.4841	791.3796	794.801	891.5089	902.646	947.0253	964.3076	1004.2978	1046.6735	1074.1878	1078.9403	1117.9507	1156.9258	1196.0482	1226.7897	1268.3872	1290.9196	1331.7988	1336.0183	1359.1153	1387.5256	1390.1128	1408.1798	1414.7977	1435.2867	1473.1687	1489.023	1492.8741	1499.1031	1501.4308	1502.9517	1506.5297	1518.2273	2364.2071	2915.6929	2925.8018	3028.3653	3032.3105	3037.744	3039.8349	3054.3332	3056.9993	3071.178	3085.9656	3100.9663	3108.6455	3109.3984	3113.3999
CCCN(CC)CC#N	CCCN(CC)CC#N	
InChI=1S/C7H14N2/c1-3-6-9(4-2)7-5-8/h3-4,6-7H2,1-2H3	InChI=1S/C7H14N2/c1-3-6-9(4-2)7-5-8/h3-4,6-7H2,1-2H3
