18
gdb 72411	2.82848	1.72537	1.41275	2.5932	72.42	-0.2581	0.0273	0.2854	975.6184	0.149466	-439.120282	-439.112946	-439.112002	-439.151709	29.587	
C	-0.0662459505	 1.4551169362	 0.0782398203	-0.4726
C	 0.0295474463	-0.0392637094	-0.0487000163	 0.483992
C	 0.7220052204	-0.7150420276	-1.2408404604	-0.285423
C	 0.3582622213	-2.1099067708	-0.6873257455	-0.160293
C	 0.9550319462	-1.973756967	 0.7342223309	-0.087212
O	 0.6774794746	-0.5995122264	 1.0769863789	-0.287454
C	-1.1342169614	-1.9241313479	-0.5114827398	 0.443329
N	-2.0433287533	-2.7835413835	-0.6633445198	-0.566876
O	-1.3090230271	-0.6150667985	-0.1228107706	-0.281422
H	 0.9359575026	 1.8883115222	 0.1106739859	 0.133753
H	-0.6128415227	 1.8713042169	-0.770535294	 0.133866
H	-0.591444817	 1.7147434486	 1.0003369353	 0.146152
H	 0.2552128581	-0.4824397532	-2.1991718022	 0.121357
H	 1.7944475746	-0.5123975397	-1.2738295115	 0.113523
H	 0.642396991	-3.0023314229	-1.2378058065	 0.105451
H	 0.4838176166	-2.638277776	 1.4639574789	 0.128256
H	 2.0386661684	-2.1420799507	 0.7381782124	 0.10826
H	-2.9577922382	-2.3780449904	-0.4530130662	 0.223342
146.0529	189.0489	263.2021	283.3092	301.3053	447.0338	471.9509	520.5565	576.9521	627.2084	716.6749	761.43	819.5285	844.8006	879.6763	900.3226	907.1638	914.5587	959.844	967.5006	1023.0462	1031.7169	1077.2176	1104.0729	1151.0643	1178.5965	1196.6404	1212.7818	1265.4099	1283.0459	1336.3311	1346.2438	1375.9953	1424.2186	1479.7152	1487.7468	1493.273	1528.028	1795.6664	3030.4784	3060.4512	3079.7316	3091.2618	3139.5627	3140.8038	3144.1184	3167.8964	3464.6448
CC12CC(CO1)C(=N)O2	C[C@@]12C[C@@H](CO1)[C]([NH])O2	
InChI=1S/C6H9NO2/c1-6-2-4(3-8-6)5(7)9-6/h4,7H,2-3H2,1H3	InChI=1S/C6H9NO2/c1-6-2-4(3-8-6)5(7)9-6/h4,7H,2-3H2,1H3/t4-,6+/m0/s1
