15
gdb 130355	3.54422	1.07523	0.82677	8.1905	92.77	-0.1571	-0.0486	0.1085	1306.2667	0.113725	-450.095625	-450.08727	-450.086326	-450.128935	30.683	
N	-0.1488473126	 1.4760753966	 0.0867144835	-0.515911
C	 0.0588394305	 0.1178086135	-0.0107071017	 0.07386
N	-0.9129866237	-0.7568500464	 0.0531385734	-0.275611
H	-1.8985985888	-0.4473243548	 0.0706607226	 0.27021
C	-0.9551894273	-2.1167267913	 0.101061602	 0.253015
C	-2.2263923325	-2.749128467	 0.0092263251	 0.241953
O	-3.3265311355	-2.1613970988	-0.0185226869	-0.484419
C	-1.8150349146	-4.1545911216	-0.0670604912	-0.110447
N	-0.5125729234	-4.3086747198	-0.0374861902	-0.201989
N	 0.0555719187	-3.0503828662	-0.034442823	-0.319852
H	 0.5387822786	 2.047361554	-0.3825708941	 0.275772
H	-1.092153894	 1.8017266682	-0.0780125227	 0.272059
H	 1.0804400635	-0.2330918463	-0.0559289235	 0.15331
H	-2.4583463185	-5.0207429216	-0.1379455225	 0.11442
H	 0.9309099694	-3.0114566586	 0.4685903792	 0.253631
85.929	95.2386	165.6422	277.7392	295.5329	312.557	346.7858	386.0787	465.8488	581.8489	589.5068	607.7419	703.0106	729.0068	751.1378	802.7053	867.6815	935.9518	963.3609	1056.7247	1066.5128	1139.5614	1233.3466	1273.8226	1329.3408	1353.3252	1369.5378	1479.3706	1514.7324	1525.0152	1649.7356	1680.3133	1732.9988	3233.3177	3234.4533	3286.696	3552.0381	3585.9178	3659.5958
NC=[NH+]C1=C([O-])C=NN1	[NH2]=CN[C]1C(=O)C=NN1	
InChI=1S/C4H6N4O/c5-2-6-4-3(9)1-7-8-4/h1-2,9H,(H3,5,6,7,8)	InChI=1S/C4H6N4O/c5-2-6-4-3(9)1-7-8-4/h1-2,6,8H,5H2
