19
gdb 10627	2.50016	1.72278	1.24852	4.2696	76.54	-0.277	0.0389	0.3159	1061.6945	0.164522	-327.942953	-327.933899	-327.932955	-327.976424	32.94	
C	 0.2385527381	 1.5615815541	 0.1989652864	-0.386662
C	-0.1454959671	 0.1079362689	-0.0985365916	-0.258796
C	 0.6317003266	-0.48849432	-1.2696927314	 0.169301
C	 2.0216011941	-1.0760517406	-1.0402633439	-0.314433
C	 0.8893223269	-1.9932371544	-1.3982233154	-0.037
C	 0.325983092	-3.0002352438	-0.4204964577	-0.418382
C	 0.433041478	 0.2060678638	-2.5193552859	 0.250184
N	 0.2590669192	 0.7665073542	-3.5172147298	-0.358541
H	 1.3006746274	 1.64495932	 0.4512622148	 0.119904
H	 0.0484169137	 2.2049930747	-0.665255034	 0.144481
H	-0.3412213984	 1.9484916739	 1.0419403504	 0.117377
H	 0.0320705948	-0.5062554348	 0.7888652591	 0.103708
H	-1.2187970344	 0.0442569459	-0.3130400968	 0.116137
H	 2.7936555821	-0.8758659799	-1.7735119659	 0.135723
H	 2.3639302919	-1.0744644423	-0.0099785246	 0.122058
H	 0.8929042679	-2.3402573886	-2.4275013326	 0.112461
H	 0.3990847321	-2.6610725797	 0.6157219556	 0.122911
H	-0.7257645284	-3.2184784947	-0.6325452654	 0.130301
H	 0.8825337234	-3.9404894666	-0.4949287413	 0.129269
82.9464	139.5315	149.8173	171.0899	213.9325	222.0487	290.1112	344.7833	392.2451	474.6588	572.0719	583.3845	650.9061	778.1716	803.9316	883.0847	907.3126	921.8882	987.7262	1023.5456	1039.0043	1073.2172	1098.3739	1131.0487	1137.5857	1195.2294	1251.5572	1290.4126	1323.7129	1362.4234	1407.3505	1413.2703	1427.7078	1476.1978	1488.2356	1494.4121	1496.8138	1502.9915	1507.5961	2343.0543	3037.1888	3039.5997	3041.7199	3084.2484	3098.9817	3110.7966	3116.1806	3119.8757	3133.9468	3154.3366	3226.5293
CCC1(CC1C)C#N	CC[C@]1(C[C@H]1C)C#N	
InChI=1S/C7H11N/c1-3-7(5-8)4-6(7)2/h6H,3-4H2,1-2H3	InChI=1S/C7H11N/c1-3-7(5-8)4-6(7)2/h6H,3-4H2,1-2H3/t6-,7+/m1/s1
