17
gdb 41310	3.16104	2.11583	1.77263	0.2254	70.17	-0.2299	0.0547	0.2847	824.7717	0.137495	-421.717334	-421.711218	-421.710273	-421.747345	26.372	
C	 0.0036723259	 1.5165097821	-0.2989569876	-0.304527
C	 1.4882540327	 1.5965614419	 0.2401638395	-0.304527
C	 1.3032137009	 0.1688819183	 0.7989590458	 0.311088
O	 0.6102598058	 0.0386156089	 2.0630729513	-0.335215
C	-0.3264871453	-0.8011597931	 1.3070218427	-0.019658
C	 0.5583824871	-2.0396029932	 1.0210674062	-0.200742
C	 1.5495804754	-1.2399761288	 0.1398049715	-0.019657
O	 0.6768686886	-0.8522639719	-0.9748149273	-0.335215
C	 0.035262691	 0.002115165	 0.0016700023	 0.311086
H	-0.712856147	 2.0609889967	 0.3179581303	 0.126298
H	-0.1502764966	 1.7721297295	-1.3479076605	 0.124381
H	 2.2361182892	 1.6529617023	-0.5522838962	 0.126299
H	 1.6953245893	 2.3592872657	 0.9916359906	 0.124381
H	-1.303152213	-0.9167848416	 1.7754764103	 0.084778
H	 0.9753591316	-2.431060861	 1.9507047509	 0.113224
H	 0.0799119854	-2.826869397	 0.435735197	 0.113227
H	 2.497155869	-1.6820642936	-0.1657307069	 0.084778
217.0651	293.6069	333.6223	501.173	505.6581	530.33	601.5437	669.784	692.3283	771.9578	794.1399	811.9628	867.017	880.2343	896.4798	903.7501	920.2573	961.1033	988.2884	990.0613	1074.3498	1082.1267	1111.0681	1130.4809	1195.0697	1204.2686	1212.8939	1226.3769	1252.082	1254.3988	1274.631	1288.6068	1294.5025	1309.0162	1448.6502	1458.8865	1462.1973	3079.1999	3083.1531	3085.6786	3127.6071	3130.554	3138.4388	3145.4786	3153.1517
C1CC23OC4CC2OC134	C1C[C@]23O[C@@H]4C[C@H]2O[C@]134	
InChI=1S/C7H8O2/c1-2-7-5-3-4(9-7)6(1,7)8-5/h4-5H,1-3H2	InChI=1S/C7H8O2/c1-2-7-5-3-4(9-7)6(1,7)8-5/h4-5H,1-3H2/t4-,5-,6+,7+/m1/s1
