19
gdb 73589	2.20776	2.06088	1.52685	2.3572	73.46	-0.2316	0.0754	0.307	950.5373	0.160785	-422.99101	-422.983632	-422.982688	-423.022333	30.356	
O	-0.0855939542	 1.3425462149	-0.0457267697	-0.490437
C	 0.0174748828	-0.0595306107	-0.0315039729	 0.40993
C	-1.3136699675	-0.6683807936	-0.4783356976	-0.131647
O	-1.4655415435	-1.8789090873	 0.2576823548	-0.258208
C	-0.8679250888	-1.7062441265	 1.5498744788	-0.1105
C	 0.3194298209	-0.7697700261	 1.3360969398	-0.09681
C	 1.6428747632	-1.3028532272	 0.744788618	-0.069863
C	 1.4218486911	-2.1157221782	-0.5008509073	-0.296634
C	 1.3471216363	-0.6138893398	-0.5918141171	-0.143231
H	 0.7775056674	 1.7078938518	 0.1767052441	 0.279295
H	-2.1179130966	 0.0474844243	-0.2479065424	 0.101384
H	-1.3551644694	-0.9217539806	-1.5409141103	 0.110802
H	-1.5928286131	-1.2579455505	 2.2476412986	 0.093923
H	-0.6022686672	-2.7019748377	 1.9164842307	 0.109678
H	 0.4716457702	-0.0616931715	 2.1526450966	 0.07415
H	 2.5778917667	-1.3482407175	 1.2901959051	 0.085024
H	 2.3268019477	-2.5403840364	-0.9251956166	 0.109584
H	 0.5364557986	-2.7280502731	-0.6236415317	 0.14064
H	 2.0024332255	-0.0452104844	-1.242914721	 0.08292
149.9965	229.8495	278.5718	283.2606	333.6887	359.1081	443.7907	484.3728	588.1874	643.7064	721.8744	760.8471	781.4383	828.8952	905.5667	913.2104	943.5485	948.9006	975.3471	998.3856	1042.1953	1063.2256	1077.524	1088.8496	1098.4272	1114.0487	1136.7406	1147.6498	1188.7974	1199.411	1230.8269	1263.5286	1298.1526	1321.8225	1344.9609	1351.0872	1385.8115	1405.7355	1490.4247	1499.0849	1510.6997	2977.6881	2990.0017	3083.6218	3094.1931	3097.2521	3131.3443	3164.6482	3180.4085	3219.8083	3806.0454
OC12COCC1C1CC21	O[C@]12COC[C@H]1[C@H]1C[C@@H]21	
InChI=1S/C7H10O2/c8-7-3-9-2-6(7)4-1-5(4)7/h4-6,8H,1-3H2	InChI=1S/C7H10O2/c8-7-3-9-2-6(7)4-1-5(4)7/h4-6,8H,1-3H2/t4-,5+,6-,7-/m0/s1
