18
gdb 85545	2.54077	1.59781	1.09124	1.9802	73.38	-0.2471	0.0224	0.2695	1099.3371	0.149075	-439.081517	-439.073631	-439.072687	-439.113929	30.929	
O	-0.0474134517	 1.4642427737	 0.0277404341	-0.435122
C	-0.0492634534	 0.0430362883	-0.0143060659	 0.107823
C	 0.7932630475	-0.5514119211	 1.1238467201	-0.338868
C	 0.6042774	-2.0361624915	 1.310499639	 0.386781
N	 1.584571516	-2.8018660893	 1.5464467105	-0.509469
O	-0.6748314446	-2.5157402138	 1.2691329661	-0.25265
C	-1.733181306	-1.7439656766	 0.7390517768	 0.108685
C	-2.2008428722	-0.4812248167	 1.4015930118	-0.316092
C	-1.4795557965	-0.4280687927	 0.0652776548	-0.063611
H	 0.8537206407	 1.7652057948	-0.1304950017	 0.283962
H	 0.3637558679	-0.3056711194	-0.9744095185	 0.080426
H	 1.8582960982	-0.3744447391	 0.9622716571	 0.127581
H	 0.5168692876	-0.0373334416	 2.0520337429	 0.135447
H	 1.2561447197	-3.7622973958	 1.6699814292	 0.218661
H	-2.4715504617	-2.4182614766	 0.3216368732	 0.112828
H	-3.2654526563	-0.2772003265	 1.4153339734	 0.121674
H	-1.6707785736	-0.1429734418	 2.2838396999	 0.130275
H	-2.0783499117	-0.1969935839	-0.8097042626	 0.101669
88.5583	137.8172	236.499	283.1798	318.494	367.9883	430.2735	469.27	499.7261	552.1187	613.5506	687.606	753.8296	822.5709	837.7476	901.6447	915.2826	957.1531	989.5655	1021.8397	1036.7651	1054.8301	1084.9149	1104.0372	1131.2758	1132.3986	1185.1043	1211.0407	1253.108	1259.4237	1295.0353	1318.0763	1372.5179	1394.4985	1422.5604	1445.1785	1476.5442	1497.1179	1748.1975	2970.341	3048.3752	3118.6289	3146.3031	3160.104	3182.0375	3233.4771	3460.3124	3809.4855
OC1CC(=N)OC2CC12	O[C@H]1C[C]([NH])O[C@H]2C[C@@H]12	
InChI=1S/C6H9NO2/c7-6-2-4(8)3-1-5(3)9-6/h3-5,7-8H,1-2H2	InChI=1S/C6H9NO2/c7-6-2-4(8)3-1-5(3)9-6/h3-5,7-8H,1-2H2/t3-,4-,5-/m0/s1
