21
gdb 112094	2.30362	1.36935	0.97274	2.6668	84.88	-0.2329	-0.011	0.2219	1291.0391	0.183115	-387.131892	-387.122812	-387.121868	-387.166319	33.966	
C	-0.1494250172	 1.5759789949	-0.0322596779	-0.393612
C	-0.0861739628	 0.047113768	-0.0831013994	-0.175677
C	 0.7969212377	-0.5115333238	-1.2345134986	-0.12452
C	 2.2465632546	-0.1037559131	-1.1366560192	-0.057286
C	 3.2653061021	-0.9575316363	-1.0398988492	-0.069808
C	 3.097925176	-2.4520668752	-0.988362202	-0.26156
C	 1.6717349941	-2.848747346	-0.563951482	-0.303721
C	 0.620796628	-2.0306299369	-1.2933487406	 0.373211
O	-0.3227090845	-2.5334359945	-1.8589656603	-0.324185
H	 0.8277888849	 2.0196300721	 0.1805548063	 0.1205
H	-0.5065784161	 1.988482875	-0.9822258505	 0.119437
H	-0.8369248337	 1.9055137096	 0.7528085353	 0.118029
H	 0.2855009897	-0.3379405993	 0.8747078615	 0.098903
H	-1.0955602699	-0.3563497992	-0.2192848666	 0.11923
H	 0.3734044661	-0.1229330578	-2.1709148971	 0.101921
H	 2.4498069786	 0.9632947017	-1.1814929434	 0.093303
H	 4.2826940531	-0.5751588734	-1.0095828568	 0.090518
H	 3.3281034691	-2.8844009156	-1.9728460963	 0.123712
H	 3.8260247309	-2.8926639786	-0.2974455461	 0.110787
H	 1.4679280324	-3.909521653	-0.7246860328	 0.117829
H	 1.558409037	-2.6379948887	 0.5085397457	 0.122988
47.8734	88.6541	139.5601	181.2977	232.3661	269.8655	322.7286	401.8929	480.1717	499.7333	518.2652	651.3314	716.2005	732.5041	774.2899	786.812	888.0537	891.0111	955.9313	978.3028	1009.369	1014.0109	1040.2851	1055.1992	1099.3499	1115.9112	1147.6034	1183.97	1241.2949	1258.436	1269.0662	1295.8613	1320.3537	1346.9367	1365.9636	1374.1244	1410.7853	1418.6804	1463.9744	1486.3067	1488.7633	1499.1174	1507.9811	1723.0858	1813.2172	3006.9814	3012.8957	3021.4027	3029.9246	3036.0201	3052.9114	3071.9767	3103.4204	3109.9927	3111.5669	3145.9733	3168.8255
CCC1C=CCCC1=O	CC[C@H]1C=CCCC1=O	
InChI=1S/C8H12O/c1-2-7-5-3-4-6-8(7)9/h3,5,7H,2,4,6H2,1H3	InChI=1S/C8H12O/c1-2-7-5-3-4-6-8(7)9/h3,5,7H,2,4,6H2,1H3/t7-/m0/s1
