20
gdb 56204	3.70554	0.86099	0.81464	3.2054	75.81	-0.2332	0.0344	0.2676	1476.5355	0.170441	-440.300656	-440.291118	-440.290174	-440.336657	34.69	
N	 0.5853530807	-0.5159219453	 0.2116754569	-0.504089
C	-0.3712610025	 0.0096254271	-0.5972417904	 0.362044
O	-0.1637116787	 0.8245100737	-1.4741870774	-0.361393
C	-1.7926147819	-0.4801752471	-0.2901723501	-0.184312
O	-1.8548426738	-1.595898023	 0.5807877043	-0.26262
C	-2.0942351141	-2.8346750148	-0.0525118738	 0.166398
C	-0.9493273914	-3.5827049387	-0.7940486207	-0.250521
C	-1.4924814716	-4.8950040005	-0.1628657616	-0.217103
C	-2.2226739569	-4.0330138587	 0.9049481086	-0.250027
H	 1.5284206509	-0.1728557083	 0.1404114909	 0.261443
H	 0.3164116911	-1.1252212469	 0.9653488354	 0.265957
H	-2.318227931	 0.3531380406	 0.1919911226	 0.135753
H	-2.2925025682	-0.6732787814	-1.2462405072	 0.126343
H	-2.9782011825	-2.7489268641	-0.7012506856	 0.078142
H	-0.9025611678	-3.5063645679	-1.8825456736	 0.10374
H	 0.023099335	-3.3082655121	-0.3772473904	 0.105893
H	-2.1950664504	-5.4077592274	-0.8249507072	 0.108491
H	-0.7599338414	-5.6208619753	 0.1937039722	 0.104896
H	-1.5942366365	-3.8726248806	 1.7859053815	 0.108465
H	-3.2229955689	-4.3264423693	 1.2295690755	 0.1025
35.2603	41.6462	86.6737	149.9894	219.8235	295.7735	306.3106	361.7668	440.9656	505.412	532.2696	569.8686	626.0742	681.9984	754.8564	787.0383	861.5959	902.7502	922.8938	949.2584	961.0677	1019.8395	1055.6212	1064.2811	1096.7111	1142.877	1163.0992	1192.7087	1241.0642	1246.6493	1258.036	1271.4472	1288.9841	1305.2497	1355.4671	1365.7132	1404.371	1469.9474	1474.2241	1487.5425	1510.4585	1590.4806	1808.5208	2994.3334	3030.3515	3062.1859	3066.2238	3070.5553	3078.0335	3111.875	3119.8186	3131.7935	3600.9577	3742.132
NC(=O)COC1CCC1	NC(=O)COC1CCC1	
InChI=1S/C6H11NO2/c7-6(8)4-9-5-2-1-3-5/h5H,1-4H2,(H2,7,8)	InChI=1S/C6H11NO2/c7-6(8)4-9-5-2-1-3-5/h5H,1-4H2,(H2,7,8)
