18
gdb 12230	3.39476	1.54791	1.24828	2.5583	71.26	-0.2305	0.0274	0.2579	1034.4681	0.152532	-381.109581	-381.100448	-381.099504	-381.143507	32.387	
C	 0.0689275587	 1.3529556381	-0.0879271219	-0.332482
N	 0.1607353222	-0.0990349681	-0.0810437338	-0.333895
C	 0.6565846104	-0.6623775853	 0.9346942328	 0.368843
N	 1.1833399995	-0.2878314906	 2.1638016378	-0.356638
C	 1.0146776434	-1.6392577996	 2.7576116601	 0.018017
C	-0.1416124911	-1.7904216087	 3.7314230204	-0.385397
C	 0.7305675117	-2.1412289924	 1.2922541298	 0.02644
O	-0.4463655686	-2.8698628085	 1.073072555	-0.430232
H	 1.013824964	 1.8049344075	-0.4181223512	 0.124994
H	-0.7063504045	 1.6656944306	-0.792905239	 0.124922
H	-0.1778427118	 1.7834692791	 0.8961281181	 0.092023
H	 1.0377171268	 0.5929826575	 2.6382858345	 0.240462
H	 1.9459517911	-2.0148917901	 3.1941063738	 0.081278
H	-1.0821099574	-1.4667042421	 3.2783763732	 0.124339
H	-0.2546738829	-2.8384811702	 4.0241592897	 0.133552
H	 0.035370425	-1.2022513027	 4.638395581	 0.110039
H	 1.5957701826	-2.6584815622	 0.8595349369	 0.095654
H	-0.9550683689	-2.3675413423	 0.4241189127	 0.298082
64.8615	85.262	148.9931	200.8025	213.5679	238.1258	279.0014	307.5492	390.5022	460.0676	522.7277	580.3681	681.8999	782.69	808.2754	887.8308	911.9376	1030.1079	1046.6743	1088.7719	1110.9945	1115.6291	1162.1534	1170.3032	1209.3122	1216.5686	1291.0691	1349.0384	1366.9682	1382.6868	1393.2335	1414.6366	1439.5976	1486.5019	1487.3972	1491.9626	1505.7329	1814.5066	2969.2096	3028.2716	3038.7392	3039.022	3052.1328	3093.8857	3107.6111	3126.6732	3583.6584	3776.4119
CN=C1NC(C)C1O	CN=C1N[C@@H](C)[C@H]1O	
InChI=1S/C5H10N2O/c1-3-4(8)5(6-2)7-3/h3-4,8H,1-2H3,(H,6,7)	InChI=1S/C5H10N2O/c1-3-4(8)5(6-2)7-3/h3-4,8H,1-2H3,(H,6,7)/t3-,4+/m0/s1
