13
gdb 13157	4.40154	1.44986	1.20726	3.7283	59.55	-0.2758	-0.0909	0.1848	952.4418	0.094559	-398.587848	-398.580225	-398.579281	-398.621142	25.52	
O	 0.2451218039	-0.0874058594	 0.0795989572	-0.24725
C	 0.0638029297	 1.0995816492	 0.0725781808	 0.277498
C	 1.1978876311	 2.051950275	 0.1628330611	 0.208352
N	 2.0607252921	 2.8195219108	 0.2230016412	-0.291058
C	-1.281537317	 1.7902699966	-0.0572510425	 0.03525
C	-1.6007219093	 2.3105018349	-1.4890015885	-0.295601
C	-2.7315660574	 1.2603768093	-1.4329015759	-0.063297
O	-2.3738701694	 0.8817676944	-0.0814062748	-0.262446
H	-1.3643534549	 2.5425569841	 0.7404669431	 0.119185
H	-1.9218261468	 3.3506598875	-1.528299305	 0.136929
H	-0.8270155934	 2.1402671577	-2.2386617113	 0.135386
H	-3.7511419006	 1.65553306	-1.4830800653	 0.120985
H	-2.6307379981	 0.4192022098	-2.1264469999	 0.126066
45.1052	73.4259	129.9109	207.2938	268.9101	312.6394	467.8222	573.8028	702.1671	760.9474	808.3258	837.7937	939.0823	961.156	1021.5833	1046.0555	1082.7051	1131.438	1162.2434	1208.2271	1244.1447	1257.0404	1342.2799	1370.908	1490.921	1528.6238	1812.1049	2334.818	3006.954	3041.276	3088.5358	3093.7923	3154.3753
O=C(C#N)C1CCO1	O=C(C#N)[C@H]1CCO1	
InChI=1S/C5H5NO2/c6-3-4(7)5-1-2-8-5/h5H,1-2H2	InChI=1S/C5H5NO2/c6-3-4(7)5-1-2-8-5/h5H,1-2H2/t5-/m1/s1
