18
gdb 116404	2.26027	1.55954	1.0706	4.0735	68.59	-0.2301	0.0015	0.2316	1152.4219	0.148572	-476.233588	-476.224959	-476.224015	-476.267423	31.211	
C	 0.4733738075	 1.1635599582	 0.5000756699	-0.321723
N	-0.2975193592	 0.3511367071	-0.4329980776	-0.282762
C	 0.5034557077	-0.351652399	-1.4348514448	-0.091498
C	 1.150773786	-1.6374691705	-0.9038999915	-0.129818
O	 0.1017399765	-2.5565384716	-0.6052685574	-0.227878
C	-0.5361824503	-2.9503367679	-1.7720256958	 0.021487
O	-1.0932913846	-1.868045109	-2.5312503264	-0.237139
C	-0.4336527492	-0.6754968976	-2.6083037826	 0.415332
O	-0.6649078392	 0.0773994296	-3.508338427	-0.312447
H	 1.2671653927	 0.6245707437	 1.0464761109	 0.095675
H	 0.9435469393	 1.9913690993	-0.0414594623	 0.132523
H	-0.2063804597	 1.5948610996	 1.2399012491	 0.129542
H	-0.8625476689	-0.328226236	 0.0659592025	 0.228397
H	 1.2577256053	 0.3391801201	-1.821135015	 0.108345
H	 1.8444659252	-2.0786840113	-1.6377684112	 0.104424
H	 1.6948612289	-1.4609593632	 0.0266069986	 0.123851
H	 0.1585473365	-3.4907321903	-2.4349855601	 0.107202
H	-1.3753367946	-3.5908185913	-1.4968075693	 0.136485
76.0248	93.7199	142.3891	184.1162	225.2015	291.9024	332.0111	413.2917	434.7486	526.7127	607.3699	709.327	754.3916	782.7517	826.9852	901.8302	964.4677	1007.5458	1034.5162	1044.4774	1101.964	1123.602	1159.0152	1173.0993	1200.5032	1250.8336	1261.7781	1296.2478	1323.8351	1347.3431	1388.0081	1455.1335	1459.4891	1485.832	1495.2694	1500.0454	1518.354	1522.9706	1867.0646	2949.2615	2976.8496	2982.8209	3063.1912	3086.7295	3107.8566	3112.2364	3124.4531	3528.1969
CNC1COCOC1=O	CN[C@H]1COCOC1=O	
InChI=1S/C5H9NO3/c1-6-4-2-8-3-9-5(4)7/h4,6H,2-3H2,1H3	InChI=1S/C5H9NO3/c1-6-4-2-8-3-9-5(4)7/h4,6H,2-3H2,1H3/t4-/m0/s1
