21
gdb 53669	2.91943	0.8167	0.72519	1.3907	87.29	-0.2402	0.041	0.2812	1678.5969	0.179547	-387.041158	-387.030401	-387.029456	-387.079186	37.388	
C	-0.6072247564	 0.8176167736	 0.9146137104	-0.497122
C	-0.25408573	-0.4942779797	 0.3920644515	 0.022829
C	 0.0363550884	-1.5821727183	-0.0349211699	 0.113556
C	 0.4132824087	-2.8912220174	-0.5725791002	-0.232247
O	-0.674507839	-3.7056328389	-0.9882921444	-0.233838
C	-1.4154556758	-4.2549515073	 0.0603272987	 0.130822
C	-2.6025577555	-3.5085507551	 0.6188508746	-0.312951
C	-2.8025034231	-4.7248588765	-0.2657692672	-0.03452
C	-3.3632315148	-4.5726098188	-1.6627882206	-0.396102
H	 0.2170206159	 1.245510412	 1.4959043792	 0.149908
H	-0.845144884	 1.5207421286	 0.10888765	 0.148812
H	-1.4799217118	 0.7595434497	 1.5744298398	 0.149932
H	 1.031365358	-2.7588080585	-1.4674201601	 0.132622
H	 1.0259885602	-3.431466389	 0.1671417658	 0.113968
H	-0.8159700443	-4.8536279877	 0.7484240755	 0.078169
H	-2.8139786631	-3.5773421866	 1.6806076513	 0.104534
H	-2.8081836106	-2.5418519326	 0.1740345712	 0.122801
H	-3.1055794233	-5.6349444495	 0.2457098045	 0.08241
H	-2.9696741027	-3.6747928283	-2.1444060081	 0.130227
H	-3.0959202191	-5.4290682859	-2.2913342539	 0.115316
H	-4.4559793977	-4.5013393839	-1.6389226482	 0.110876
26.9654	31.2678	61.863	140.4717	159.8452	195.6299	205.7714	292.633	304.133	364.7907	379.7826	448.8772	497.7276	607.4436	746.5412	769.9088	824.465	862.9428	918.4404	967.4406	1014.5863	1039.4067	1047.2022	1053.1897	1056.5368	1087.0217	1112.6164	1146.777	1158.3438	1177.0625	1194.998	1242.5338	1301.3987	1366.6038	1392.7533	1414.5721	1418.1578	1422.7263	1475.799	1476.8157	1479.5434	1486.0152	1494.828	1504.5023	2368.215	2974.8548	3027.5235	3034.1413	3061.5733	3081.0957	3088.4714	3089.0043	3090.8868	3121.7095	3135.0915	3141.4244	3227.127
CC#CCOC1CC1C	CC#CCO[C@H]1C[C@H]1C	
InChI=1S/C8H12O/c1-3-4-5-9-8-6-7(8)2/h7-8H,5-6H2,1-2H3	InChI=1S/C8H12O/c1-3-4-5-9-8-6-7(8)2/h7-8H,5-6H2,1-2H3/t7-,8+/m1/s1
