16
gdb 34081	3.47653	1.56092	1.34149	4.3362	77.01	-0.2465	-0.0086	0.2379	957.934	0.126461	-363.597803	-363.591181	-363.590237	-363.628596	27.187	
N	-0.0384341866	-1.1636810926	 0.0416952702	-0.344916
C	-0.0109968956	-0.0085691341	-0.0026795009	 0.171086
C	 0.0135490992	 1.4363849371	-0.0563820133	 0.152289
C	-0.8968561444	 2.2124578363	 0.9955779875	-0.257757
C	-1.3267204243	 3.1414104413	-0.1296434591	-0.080645
C	-0.1422131449	 3.5357716379	-1.0528317254	-0.08827
C	 1.2472655894	 3.3388196965	-0.5537198615	-0.090239
C	 1.3748289807	 2.1133959006	-0.0391332139	-0.14035
C	-0.8010284102	 2.1906913404	-1.1752063988	-0.104342
H	-1.7314840796	 1.5817782795	 1.3074092327	 0.131197
H	-0.3790276384	 2.6174460725	 1.8695983124	 0.109309
H	-2.2341762154	 3.7315115557	-0.1430566769	 0.101899
H	-0.3728381904	 4.3006733875	-1.7847081152	 0.098277
H	 2.0098826845	 4.1066741697	-0.5730162736	 0.112015
H	 2.2315110412	 1.6912772433	 0.4687576726	 0.120619
H	-1.2492461752	 1.7589262484	-2.060690567	 0.109829
153.3048	162.5635	358.2671	382.0192	480.9657	542.9812	548.207	562.0067	701.334	729.4136	748.7672	768.7738	793.428	829.7166	920.5854	931.2704	942.5649	971.9892	977.5738	1006.7931	1016.2379	1052.1898	1074.3285	1108.638	1131.0332	1158.4162	1208.7535	1244.6288	1263.1941	1301.778	1359.0289	1372.9529	1487.348	1646.2531	2356.0542	3058.5926	3126.9504	3186.602	3191.7133	3204.8397	3211.7344	3236.3369
N#CC12CC3C(C=C1)C23	N#C[C@@]12C[C@H]3[C@@H](C=C1)[C@@H]23	
InChI=1S/C8H7N/c9-4-8-2-1-5-6(3-8)7(5)8/h1-2,5-7H,3H2	InChI=1S/C8H7N/c9-4-8-2-1-5-6(3-8)7(5)8/h1-2,5-7H,3H2/t5-,6+,7-,8+/m1/s1
