15
gdb 28523	3.18533	1.44174	0.99444	2.4244	76.	-0.1825	-0.0193	0.1632	1117.7781	0.115144	-450.195068	-450.187218	-450.186274	-450.226903	31.042	
N	 0.0466263065	 1.3706658146	-0.1407036438	-0.575055
C	-0.0009462486	-0.018004858	-0.0666776438	 0.329483
C	-1.1932391592	-0.735061942	 0.0098315231	-0.098562
N	-1.2126277632	-2.0735586354	 0.0189472078	-0.30074
C	-0.0618823148	-2.7219937725	-0.063428911	 0.274196
N	-0.0514511655	-4.1099154518	-0.1340399501	-0.572592
C	 1.1413967141	-1.9834397924	-0.1278681084	 0.37509
O	 2.3075636193	-2.6722990667	-0.1743574805	-0.430931
N	 1.1751003829	-0.6704943333	-0.1227698057	-0.39764
H	 0.943199971	 1.748336498	 0.1312184958	 0.249278
H	-0.7239716185	 1.848659884	 0.3026007714	 0.249099
H	-2.1514061924	-0.2265810196	 0.0699022197	 0.094149
H	-0.89895988	-4.5257748334	 0.2258399007	 0.250328
H	 0.7903918882	-4.5410793383	 0.2189821756	 0.256701
H	 3.0138066701	-2.0123873533	-0.2011982107	 0.297196
127.1036	244.9631	291.7342	297.1228	331.382	353.7098	389.5527	457.2767	510.6876	524.2659	534.2684	585.3858	607.5689	635.7442	703.1821	741.2499	799.8462	826.7094	874.6885	1016.0123	1071.8682	1126.4233	1181.3685	1294.7245	1315.0694	1356.5857	1395.2238	1489.8618	1527.4535	1600.0196	1628.5944	1639.1101	1665.7001	3161.0293	3559.9411	3563.3156	3669.6467	3672.3173	3771.6348
NC1=CN=C(N)C(O)=N1	Nc1cnc(N)c(O)n1	
InChI=1S/C4H6N4O/c5-2-1-7-3(6)4(9)8-2/h1H,(H2,6,7)(H3,5,8,9)	InChI=1S/C4H6N4O/c5-2-1-7-3(6)4(9)8-2/h1H,(H2,6,7)(H3,5,8,9)
