15
gdb 124303	4.93944	0.94464	0.80544	4.1312	66.93	-0.267	-0.0361	0.2308	1347.8023	0.110512	-453.945319	-453.936871	-453.935927	-453.980153	29.352	
C	 0.0294197096	 1.512869078	 0.0323810948	-0.476162
C	-0.3831066583	 0.0585797064	-0.0778658624	 0.388601
O	-1.3361336661	-0.3860470413	 0.5194755564	-0.28954
C	 0.4758580822	-0.7984582562	-1.0037754885	-0.43843
C	 0.2410242826	-2.2698382943	-0.9229955735	 0.256076
C	-0.774563253	-3.0239308111	-0.4230046302	-0.026507
O	-0.490246753	-4.3104360326	-0.6136869548	-0.164799
N	 0.7746260708	-4.3519537356	-1.2689749961	-0.00659
N	 1.161840574	-3.1664876116	-1.4295070649	-0.183373
H	 0.976672981	 1.5845944286	 0.5799008752	 0.151843
H	 0.1996185366	 1.9513602517	-0.9564626023	 0.141608
H	-0.7368600225	 2.0753518119	 0.5662692071	 0.150353
H	 0.2935745452	-0.4343075893	-2.0264914486	 0.155222
H	 1.5352970819	-0.5834701442	-0.820467656	 0.150017
H	-1.694791841	-2.7751053405	 0.0733092539	 0.19168
30.6431	56.9718	122.467	159.9796	273.3541	318.8553	331.9186	463.2079	570.8413	637.5938	647.9689	701.8787	759.7106	824.7553	850.0964	882.6195	966.8068	994.1447	1049.7908	1056.3944	1141.3333	1171.1038	1218.8959	1235.7292	1308.2606	1370.5488	1388.1048	1443.3343	1462.7643	1472.0908	1476.7978	1618.7749	1813.1154	3006.5138	3038.6205	3063.0401	3100.2496	3157.2851	3322.4997
CC(=O)CC1=CON=N1	CC(=O)Cc1conn1	
InChI=1S/C5H6N2O2/c1-4(8)2-5-3-9-7-6-5/h3H,2H2,1H3	InChI=1S/C5H6N2O2/c1-4(8)2-5-3-9-7-6-5/h3H,2H2,1H3
