20
gdb 10696	2.77449	1.56179	1.42019	2.8065	75.25	-0.2459	-0.021	0.2249	1026.6079	0.175027	-349.013648	-349.004539	-349.003595	-349.047062	33.637	
C	 0.2552538074	 1.3961206083	-0.3313835697	-0.397358
C	 0.0369055692	-0.0603821753	 0.109919769	-0.065268
C	 0.5994790767	-0.3168904124	 1.5175873262	-0.397346
C	-1.4265626237	-0.481491662	-0.0078367251	 0.279267
C	-1.9530638693	-0.946329311	-1.3640012376	-0.29755
C	-1.7516938952	-1.9484917865	-0.2814515508	-0.297497
C	-2.4320197799	 0.2251517956	 0.833614157	 0.091674
O	-3.6181131404	-0.0145985416	 0.8311359349	-0.278509
H	 1.320143458	 1.6497332768	-0.3180498571	 0.115069
H	-0.1202626383	 1.5623590366	-1.3458684102	 0.118615
H	-0.2557777365	 2.1015861359	 0.3330969138	 0.118082
H	 0.596837986	-0.6993319599	-0.5862805789	 0.07425
H	 0.4676549804	-1.3628777806	 1.8114641691	 0.118605
H	 1.6689478004	-0.0860693539	 1.555633211	 0.115069
H	 0.1049650761	 0.3060236616	 2.27111207	 0.118084
H	-2.9714766131	-0.6631381195	-1.6034030505	 0.138314
H	-1.2504675713	-0.9203321372	-2.1900735084	 0.117153
H	-0.9075494	-2.6266272225	-0.3467703124	 0.11716
H	-2.6341802339	-2.3416616075	 0.2097771506	 0.138295
H	-2.0248427726	 1.0202625451	 1.4952977189	 0.073891
73.2814	120.8122	196.6557	208.9799	230.5627	249.7997	277.1458	315.7439	325.3044	463.7796	482.7585	592.7845	726.4434	801.2352	827.9537	861.2421	927.0559	941.8744	955.4562	970.9903	999.9552	1056.6508	1069.1658	1088.4495	1101.3662	1144.7762	1187.5433	1207.4967	1277.1174	1304.4601	1350.6097	1391.6406	1400.3197	1420.4035	1440.2494	1454.0955	1483.4769	1486.7768	1494.4429	1506.1054	1510.5385	1799.917	2886.7756	3009.047	3029.8905	3034.2175	3095.1359	3101.1255	3104.6952	3106.646	3135.6188	3137.2886	3224.2133	3238.1018
CC(C)C1(CC1)C=O	CC(C)C1(CC1)C=O	
InChI=1S/C7H12O/c1-6(2)7(5-8)3-4-7/h5-6H,3-4H2,1-2H3	InChI=1S/C7H12O/c1-6(2)7(5-8)3-4-7/h5-6H,3-4H2,1-2H3
