16
gdb 17716	4.77013	2.58406	2.11645	0.1029	72.44	-0.2168	0.0051	0.2218	679.6361	0.132659	-309.356927	-309.351724	-309.35078	-309.385681	23.002	
C	-0.0784454854	 1.5999905808	-0.0034514005	-0.353636
C	 1.4581029575	 1.2882820854	-0.027394066	-0.10629
C	 1.296516789	 0.1437674277	 1.0157499873	-0.016836
C	 1.7663630528	-1.0642156642	 0.1493481848	-0.146255
C	 0.5981876684	-2.0741468368	 0.266442327	-0.083342
C	-0.5318072552	-1.3492360501	 0.2446803791	-0.248917
C	 0.0150060351	 0.0613184945	 0.1155738888	 0.308751
C	 1.2369601135	-0.0053421291	-0.8651208974	-0.016833
H	-0.4558604302	 2.1434452701	 0.8686677614	 0.09739
H	-0.5126427209	 2.0012564086	-0.9247737374	 0.097389
H	 2.2773494802	 2.0021705172	-0.1099298363	 0.069924
H	 1.2855662229	 0.2344181937	 2.1049104515	 0.067936
H	 2.7875694563	-1.4489061861	 0.147509316	 0.054952
H	 0.6996817215	-3.1478286661	 0.3483886222	 0.100484
H	-1.5594806964	-1.6763323774	 0.3031424903	 0.107349
H	 1.1570928909	-0.0872158882	-1.9521011206	 0.067935
364.2721	403.5292	440.8785	534.5241	665.678	697.8328	756.3633	766.8702	809.3991	845.5589	852.4682	880.5179	889.7469	894.0543	918.5081	935.1578	982.1677	994.1628	1050.0634	1054.4972	1098.8647	1122.0296	1136.8903	1146.1137	1172.7429	1180.506	1199.1748	1210.5513	1257.5065	1271.5392	1302.8172	1322.1831	1504.2535	1586.4708	3038.961	3080.3764	3081.3335	3098.7411	3099.6047	3115.9844	3219.0581	3248.7244
C1C2C3C4C=CC13C24	C1[C@H]2[C@@H]3[C@H]4C=C[C@@]13[C@@H]24	
InChI=1S/C8H8/c1-2-8-3-5-6(8)4(1)7(5)8/h1-2,4-7H,3H2	InChI=1S/C8H8/c1-2-8-3-5-6(8)4(1)7(5)8/h1-2,4-7H,3H2/t4-,5+,6+,7-,8-
