18
gdb 22678	2.95574	0.99486	0.79407	0.3741	83.16	-0.2387	-0.0322	0.2065	1436.7426	0.145142	-401.859104	-401.849557	-401.848613	-401.894376	34.995	
O	-0.4377720828	 1.7211660276	-0.4701467035	-0.384629
N	-0.0626552451	 0.470386616	-0.9430436161	-0.1588
C	-0.7099882706	-0.4899470372	-0.3815499964	 0.16925
C	-0.3577661016	-1.8939848	-0.8221159738	-0.316876
C	 0.3277987173	-2.7075946328	 0.261266189	 0.034578
C	-0.4773719006	-3.4837652126	 1.2721033165	-0.247747
C	 0.2956229592	-4.214323998	 0.2026948238	-0.277847
C	-1.7146581801	-0.3025848326	 0.6120218134	 0.379267
C	-2.5822778187	-0.1803016523	 1.4378428533	-0.485625
H	 0.1219071609	 2.3118701184	-0.9865106036	 0.309756
H	-1.2744054476	-2.4092872064	-1.1358334187	 0.107773
H	 0.2903021828	-1.8055646902	-1.6996052516	 0.123664
H	 1.2503627145	-2.262872696	 0.6243353791	 0.089832
H	-0.1161104704	-3.5279745862	 2.2933369807	 0.112353
H	-1.5579738999	-3.4516845172	 1.1865238491	 0.116695
H	-0.2655015535	-4.6767718057	-0.6030837871	 0.110589
H	 1.1888304935	-4.7586352033	 0.4882928924	 0.112379
H	-3.3414481673	-0.0584698215	 2.1707098935	 0.205388
35.0674	80.4722	118.7873	152.7625	265.5473	271.6623	306.2978	341.794	400.0087	450.0558	463.0762	624.8714	638.6454	654.3755	725.5556	765.848	776.7504	817.9075	842.0875	900.6929	950.2567	986.769	1039.8012	1061.0602	1078.0007	1130.1325	1143.7636	1197.4776	1224.9028	1236.5807	1283.3067	1320.6125	1401.884	1407.0042	1465.902	1473.1444	1506.4798	1676.2941	2218.7948	3028.4903	3087.4232	3130.3227	3138.2465	3145.4639	3209.4519	3225.7618	3499.9544	3810.4214
ON=C(CC1CC1)C#C	ON=C(CC1CC1)C#C	
InChI=1S/C7H9NO/c1-2-7(8-9)5-6-3-4-6/h1,6,9H,3-5H2	InChI=1S/C7H9NO/c1-2-7(8-9)5-6-3-4-6/h1,6,9H,3-5H2
