22
gdb 104218	2.57808	1.2833	1.17422	2.7934	82.16	-0.2326	0.0596	0.2922	1209.9121	0.193063	-404.315622	-404.305927	-404.304983	-404.349797	36.988	
C	 0.0386237012	 1.5722611725	-0.0132072262	-0.412374
C	-0.0164715723	 0.0452772251	 0.1165964537	-0.215783
C	-1.4291027485	-0.5433357248	 0.0223873654	 0.336628
O	-2.2688154404	-0.0652755993	 1.0569402226	-0.489694
C	-2.0238630136	-0.5520972342	-1.4267711993	-0.28685
C	-1.67472262	-2.0671274098	-1.5441587447	-0.299384
C	-1.4561878619	-2.0826240631	-0.0302233206	 0.329917
C	-0.822191667	-3.041981767	 0.8966904033	-0.319475
N	-2.2905247476	-2.8819440488	 0.8585381499	-0.362853
H	 1.0728476054	 1.927506649	 0.0111976772	 0.123035
H	-0.4077331449	 1.9165175264	-0.9522380704	 0.123537
H	-0.4838337926	 2.0708606534	 0.8119359743	 0.10964
H	 0.6025071162	-0.4107377244	-0.6651584844	 0.101581
H	 0.4194363323	-0.2569592596	 1.0762436843	 0.101064
H	-2.2568976553	 0.8969476621	 1.0489266995	 0.27986
H	-3.1020800344	-0.3821494191	-1.3948355579	 0.110915
H	-1.5711676866	 0.1236889588	-2.1565813298	 0.090469
H	-2.4662559861	-2.7263076683	-1.9044573311	 0.114463
H	-0.7627241472	-2.2550110604	-2.1183240173	 0.100861
H	-0.4568308536	-3.9978223828	 0.5292982985	 0.113205
H	-0.2753647599	-2.6471796243	 1.7503476781	 0.107956
H	-2.5961752735	-2.2909449014	 1.629890595	 0.243279
81.7325	107.7014	159.7983	185.882	216.2167	250.8333	283.6751	316.9428	346.1736	411.5837	451.974	520.4348	589.0946	683.4209	746.5579	784.2033	840.6876	886.1819	899.4331	920.0462	946.3619	955.04	982.571	1006.0801	1026.2728	1064.1488	1082.5359	1120.735	1136.3731	1182.7603	1196.2572	1217.9921	1242.5756	1254.5027	1276.9801	1284.5922	1306.2001	1338.0656	1375.9998	1409.0516	1422.2725	1469.7673	1474.3468	1489.6417	1500.2248	1508.6639	1513.8979	3026.9642	3031.3196	3058.0269	3064.608	3065.7105	3092.9928	3096.9542	3108.0603	3114.8017	3130.0332	3179.7198	3488.2448	3821.081
CCC1(O)CCC11CN1	CC[C@@]1(O)CC[C@]21CN2	
InChI=1S/C7H13NO/c1-2-7(9)4-3-6(7)5-8-6/h8-9H,2-5H2,1H3	InChI=1S/C7H13NO/c1-2-7(9)4-3-6(7)5-8-6/h8-9H,2-5H2,1H3/t6-,7-/m1/s1
