18
gdb 68254	2.36258	1.52114	1.45432	4.7605	76.47	-0.279	0.0315	0.3105	1026.8906	0.14695	-401.915214	-401.906614	-401.90567	-401.948033	32.952	
C	-0.1551053257	 1.552867262	 0.0150867668	-0.483125
C	 0.0102778211	 0.0297133918	 0.0272449281	 0.164831
C	-1.3088033245	-0.5730836845	-0.1849905283	 0.229331
N	-2.3679360443	-1.0008996285	-0.3655556809	-0.354436
C	 1.2004966624	-0.6744652452	-0.7342109602	-0.07991
C	 2.1664241145	-0.1332064496	 0.3566891987	-0.315874
C	 0.9053714136	-0.6704095283	 1.1104713917	 0.380397
O	 0.5985658248	-0.5973528233	 2.4493947696	-0.4676
C	 0.9797043257	-1.9191492265	 0.1745543231	-0.315081
H	 0.7905247138	 2.0794534626	 0.1416742342	 0.128289
H	-0.6019188354	 1.8760190261	-0.9295017295	 0.138638
H	-0.825285314	 1.8601093026	 0.8227706451	 0.149563
H	 1.352064758	-0.6700746734	-1.8103956345	 0.099083
H	 3.0805388568	-0.7148565698	 0.4962233294	 0.098242
H	 2.3758320976	 0.9345511406	 0.3863305405	 0.10608
H	 1.1968477021	-1.1703775348	 2.9411550991	 0.291199
H	 0.0636915071	-2.4922885739	 0.0288731863	 0.136249
H	 1.8505684063	-2.5651901678	 0.3062209907	 0.094123
124.4112	144.765	173.8611	182.677	214.9339	339.9265	368.4276	385.0445	510.5345	528.928	549.6808	613.5488	667.7042	678.9728	755.4974	817.632	904.3987	928.9874	944.9556	958.366	1009.4145	1045.5485	1056.3326	1111.0116	1122.8256	1133.1326	1172.7129	1198.07	1200.3949	1221.9646	1234.6966	1296.2903	1369.1852	1414.37	1486.6971	1489.0924	1511.8863	1549.0239	2346.2679	3055.1601	3070.6399	3079.4352	3118.2114	3142.46	3147.0295	3155.8496	3159.7494	3812.9548
CC1(C#N)C2CC1(O)C2	C[C@@]1(C#N)[C@H]2C[C@]1(O)C2	
InChI=1S/C7H9NO/c1-6(4-8)5-2-7(6,9)3-5/h5,9H,2-3H2,1H3	InChI=1S/C7H9NO/c1-6(4-8)5-2-7(6,9)3-5/h5,9H,2-3H2,1H3/t5-,6-,7-/m1/s1
