19
gdb 108409	2.14901	1.38795	1.03277	3.5391	77.22	-0.2328	-0.0198	0.213	1230.3834	0.157538	-422.997079	-422.988072	-422.987128	-423.031271	32.941	
C	-0.0347374358	 1.5007326452	-0.1583942249	-0.38036
C	-0.0149279878	 0.0041944235	 0.1817340654	-0.288338
C	-1.3733035826	-0.6159334639	 0.0827279161	 0.458501
O	-2.3797403493	-0.1718793075	 1.0083391422	-0.320698
C	-2.8799252288	-1.5319851305	 1.1324404172	-0.102676
C	-1.9217825707	-2.0124973343	 0.0528605264	-0.226337
C	-2.0251450843	-1.1181770656	-1.1967717402	-0.172686
C	-3.2884124718	-0.5649565803	-1.7372121474	 0.150349
O	-3.5482643994	-0.5268799462	-2.917670809	-0.274795
H	 0.9611031385	 1.9374574926	-0.0430077462	 0.11672
H	-0.361646157	 1.6652158611	-1.1898150128	 0.127163
H	-0.7208529355	 2.0369220799	 0.5032389533	 0.139913
H	 0.6622383543	-0.5327759537	-0.4921544993	 0.109871
H	 0.3619953612	-0.1427477836	 1.2011438733	 0.112869
H	-2.6399203106	-1.9365080639	 2.1217690839	 0.120075
H	-3.9579787594	-1.6038320545	 0.9571286269	 0.116724
H	-1.4264451448	-2.9727150049	 0.0048443128	 0.113799
H	-1.3179434917	-1.4101485268	-1.9680967475	 0.10997
H	-3.9902229045	-0.1556751365	-0.9830420201	 0.089937
65.3049	98.6162	150.8934	183.6383	212.4714	244.0578	299.4387	363.7499	440.9677	470.0465	535.772	672.5404	746.2723	798.7468	861.7212	883.0906	949.8216	966.2268	971.3978	998.3306	1007.9864	1041.9756	1060.3064	1096.0089	1105.3702	1143.7448	1165.3342	1185.4156	1227.5275	1286.1016	1313.2423	1338.2054	1350.8501	1407.7388	1423.5363	1469.5475	1475.4932	1497.5309	1509.8612	1520.7647	1804.4414	2928.9564	3031.9456	3037.1942	3043.4854	3072.3741	3086.623	3115.2824	3122.0482	3162.5208	3206.8538
CCC12OCC1C2C=O	CC[C@]12OC[C@H]1[C@H]2C=O	
InChI=1S/C7H10O2/c1-2-7-5(3-8)6(7)4-9-7/h3,5-6H,2,4H2,1H3	InChI=1S/C7H10O2/c1-2-7-5(3-8)6(7)4-9-7/h3,5-6H,2,4H2,1H3/t5-,6+,7-/m1/s1
