21
gdb 122494	4.43301	0.61624	0.56864	2.8451	82.79	-0.2479	-0.0191	0.2287	1968.1012	0.179988	-424.21701	-424.206735	-424.205791	-424.253681	35.933	
C	-0.1490070002	 1.5265729059	-0.2924767015	-0.384928
C	-0.037492501	 0.0528952585	 0.0585657288	-0.028866
O	-1.3251231698	-0.5274566534	-0.0181585844	-0.243583
C	-1.333851736	-1.903148803	 0.2931272823	-0.082911
C	-2.7655529141	-2.3753540953	 0.2328944628	-0.012735
C	-3.3713614577	-2.8811705486	-1.0292632436	-0.291969
C	-3.1396666804	-3.8547681242	 0.122912588	-0.116582
C	-2.1136265495	-4.9102335188	-0.0320203281	 0.162736
O	-2.1773782564	-6.0003549882	 0.4816537967	-0.269381
H	 0.8334286989	 2.0053620058	-0.2429236193	 0.116361
H	-0.5458840292	 1.6509044695	-1.3039358849	 0.127549
H	-0.8202019368	 2.0370862859	 0.4038864731	 0.127537
H	 0.6514566358	-0.4593507379	-0.634711307	 0.086264
H	 0.3763806131	-0.0746741564	 1.0733163201	 0.087713
H	-0.6981393736	-2.4601639569	-0.4145210884	 0.086232
H	-0.9173255715	-2.07251729	 1.3009719062	 0.094937
H	-3.4202550677	-1.8098130477	 0.8895430687	 0.110028
H	-4.3982596444	-2.6322584895	-1.2692015578	 0.130445
H	-2.7196892184	-2.9849014	-1.8917816016	 0.125657
H	-4.0019149728	-4.1766631758	 0.6966239049	 0.109552
H	-1.2561828882	-4.6396790896	-0.690650795	 0.065943
44.349	71.7383	80.9891	127.433	134.8963	219.0294	244.8784	260.0528	337.8139	378.1384	424.1495	482.2023	546.9845	813.3723	821.3898	847.2848	870.7787	912.1035	918.6085	964.9093	1035.9301	1046.4437	1049.8663	1076.693	1134.8766	1142.1397	1158.3693	1173.5523	1192.0997	1199.6624	1233.5174	1277.0097	1295.9882	1339.4389	1372.2202	1399.9608	1415.448	1442.8307	1466.0076	1483.6204	1490.7275	1499.7069	1514.346	1536.5602	1816.037	2860.3822	2948.4568	2960.6477	2977.6874	2984.4608	3045.8727	3120.5821	3122.6272	3133.2457	3155.0192	3178.791	3223.612
CCOCC1CC1C=O	CCOC[C@H]1C[C@H]1C=O	
InChI=1S/C7H12O2/c1-2-9-5-7-3-6(7)4-8/h4,6-7H,2-3,5H2,1H3	InChI=1S/C7H12O2/c1-2-9-5-7-3-6(7)4-8/h4,6-7H,2-3,5H2,1H3/t6-,7+/m0/s1
