18
gdb 99209	5.07859	0.65751	0.58924	1.2088	70.84	-0.2504	-0.0427	0.2077	1821.7811	0.144106	-476.272126	-476.261414	-476.26047	-476.311312	35.688	
C	 0.0001056084	 1.4801077092	-0.0818086125	-0.483585
C	-0.071747027	-0.0329146304	 0.0359027399	 0.414026
O	-0.1175787727	-0.61109875	 1.1075547487	-0.375772
N	-0.0813950923	-0.7128670745	-1.1462355505	-0.32637
C	-0.0927154655	-2.1506848537	-1.1765566302	-0.229971
C	 0.1223274857	-2.6487811535	-2.5894468867	 0.33125
O	 0.2549551909	-1.8894965907	-3.5282404708	-0.324908
C	 0.1669556596	-4.1495215143	-2.8250290878	-0.125009
O	 0.3486376161	-4.4518003789	-4.1750401543	-0.417526
H	-0.8366039311	 1.9152423585	 0.4702847089	 0.154717
H	 0.9209538723	 1.8267514603	 0.3952951991	 0.154135
H	-0.0242237608	 1.8407243902	-1.1130455661	 0.117251
H	 0.0118996039	-0.2498421115	-2.0371494163	 0.26075
H	 0.6818888488	-2.5658012829	-0.5170859827	 0.15537
H	-1.0412041756	-2.5604829441	-0.7984907413	 0.149435
H	 0.9786018366	-4.5677608778	-2.2062755673	 0.124915
H	-0.7683145637	-4.5875964526	-2.4392653141	 0.12446
H	 0.4173159562	-3.5962421032	-4.626245856	 0.29683
11.3156	40.0451	53.2358	88.1812	107.658	174.3208	244.7722	282.1085	357.7323	369.9847	457.4992	474.6513	492.8123	620.004	641.1156	695.0952	836.3362	862.7845	983.8577	1001.0732	1053.7708	1060.8254	1070.0247	1149.0527	1180.2738	1217.5147	1258.8401	1266.4368	1313.0643	1370.7191	1397.6367	1450.6937	1471.0742	1476.6486	1487.1319	1493.1545	1524.2157	1773.0303	1793.3912	2973.4838	2988.9736	3009.3066	3034.6805	3051.967	3127.7743	3134.2739	3628.377	3704.2301
CC(=O)NCC(=O)CO	CC(=O)NCC(=O)CO	
InChI=1S/C5H9NO3/c1-4(8)6-2-5(9)3-7/h7H,2-3H2,1H3,(H,6,8)	InChI=1S/C5H9NO3/c1-4(8)6-2-5(9)3-7/h7H,2-3H2,1H3,(H,6,8)
