19
gdb 73687	2.33959	1.85863	1.406	0.2372	69.39	-0.2447	0.0761	0.3208	991.3822	0.160761	-460.169488	-460.161768	-460.160823	-460.201652	30.013	
C	-0.2037178313	 1.5874643948	 0.1271193487	-0.458394
C	 0.0643268151	 0.0962087796	 0.0159875273	 0.370395
C	-1.2281522047	-0.7495360306	-0.0944260559	-0.13774
O	-1.4802569248	-1.2374924367	 1.2140090962	-0.24596
C	-0.2182729799	-1.6034692122	 1.756253035	-0.109708
C	 0.7823392975	-0.5438151081	 1.2493289674	 0.017957
O	 1.996481079	-1.0676773384	 0.7309057851	-0.254786
C	 1.8050978083	-1.1944099609	-0.6619010951	-0.000563
O	 0.9781627696	-0.1283880752	-1.0578544514	-0.286431
H	 0.7217844754	 2.1313837633	 0.3350410769	 0.127332
H	-0.6259302152	 1.969060084	-0.8074434429	 0.128879
H	-0.9181696923	 1.7814917976	 0.9331495335	 0.128321
H	-2.1005590953	-0.1739813946	-0.4121506969	 0.111077
H	-1.070204146	-1.5723998679	-0.8095178352	 0.096794
H	-0.3170905415	-1.6316280192	 2.8436272535	 0.113661
H	 0.1006215429	-2.5984780673	 1.4071187851	 0.098312
H	 1.040096317	 0.1855627699	 2.0201134887	 0.09431
H	 2.7709491665	-1.1115146029	-1.1679338085	 0.123232
H	 1.3371489597	-2.1660081052	-0.9026845015	 0.083312
88.6106	181.2599	244.1803	256.0398	274.5321	343.9048	429.3395	437.6733	579.73	608.5193	648.9759	742.0333	809.3807	901.5284	929.8964	961.0432	963.991	969.9506	1000.0025	1055.3474	1077.2274	1100.6286	1116.3559	1157.3764	1179.2017	1198.2459	1211.6806	1231.0009	1255.4815	1266.0833	1316.5195	1333.7524	1368.4016	1390.5647	1409.1707	1429.0019	1484.7511	1494.9656	1503.692	1514.4892	1543.2551	2934.624	2979.667	2987.1105	3039.5333	3083.7922	3090.6242	3100.6311	3107.4909	3114.3464	3120.4017
CC12COCC1OCO2	C[C@]12COC[C@H]1OCO2	
InChI=1S/C6H10O3/c1-6-3-7-2-5(6)8-4-9-6/h5H,2-4H2,1H3	InChI=1S/C6H10O3/c1-6-3-7-2-5(6)8-4-9-6/h5H,2-4H2,1H3/t5-,6+/m1/s1
