21
gdb 64563	2.33273	1.81769	1.36159	2.5046	81.7	-0.2426	-0.0204	0.2222	1039.6537	0.1835	-387.091024	-387.082795	-387.081851	-387.123508	32.578	
C	-0.0395679789	 1.600973833	-0.1871926654	-0.482374
C	 0.0060662765	 0.0686534076	-0.0851813327	 0.263303
C	-1.3987147732	-0.4020703761	-0.3852304302	 0.090282
O	-2.1713128278	-0.8812749831	 0.4063434748	-0.2571
C	 1.1690585058	-0.6378047247	-0.8806170004	-0.06131
C	 2.0805224798	-0.2828582827	 0.3293185688	-0.238764
C	 0.7736962928	-0.5363547806	 1.1389055748	-0.053215
C	 0.6047078768	-2.0573546198	 0.9336895402	-0.21925
C	 0.8819062891	-2.13116631	-0.6084581488	-0.227483
H	 0.9467086251	 2.0592991072	-0.1009331931	 0.128905
H	-0.4613514707	 1.9121263358	-1.1503027862	 0.12084
H	-0.6750497086	 2.0180131643	 0.6013095931	 0.132833
H	-1.7069095882	-0.2321159001	-1.4467025734	 0.069249
H	 1.4176816996	-0.3444022466	-1.9017304307	 0.060393
H	 2.9204745956	-0.9556931555	 0.5254765256	 0.091529
H	 2.4310128532	 0.7477746155	 0.3421083057	 0.099408
H	 0.629993971	-0.1431861037	 2.1452620395	 0.064434
H	 1.3414740701	-2.6196275988	 1.5137351038	 0.091983
H	-0.3901102154	-2.4100279778	 1.2043195216	 0.126607
H	 0.0229422844	-2.5070326128	-1.1730775381	 0.103016
H	 1.7399479228	-2.7618254013	-0.8564620788	 0.096714
90.6708	171.0767	181.7726	241.501	278.5606	345.4263	358.641	438.6288	481.0265	559.6744	639.2304	745.1913	829.355	836.2109	845.5258	872.4693	903.2899	925.8098	947.3298	959.2532	982.9524	998.2381	1011.4763	1032.3282	1085.3034	1098.4709	1142.2579	1170.9916	1181.4213	1219.9886	1227.5692	1250.489	1254.3492	1263.3657	1293.9557	1314.3223	1335.752	1407.3709	1423.7678	1490.259	1495.8846	1499.0339	1511.9404	1527.7517	1821.2101	2824.6362	3032.0383	3051.1337	3062.2778	3068.2349	3089.651	3093.1042	3103.0279	3116.9704	3128.1312	3138.1814	3148.6192
CC1(C=O)C2CC1CC2	C[C@@]1(C=O)[C@H]2C[C@@H]1CC2	
InChI=1S/C8H12O/c1-8(5-9)6-2-3-7(8)4-6/h5-7H,2-4H2,1H3	InChI=1S/C8H12O/c1-8(5-9)6-2-3-7(8)4-6/h5-7H,2-4H2,1H3/t6-,7+,8-
