18
gdb 74770	3.89146	1.13885	1.08499	4.4544	79.59	-0.2305	-0.0017	0.2288	1179.4003	0.147775	-401.926614	-401.918662	-401.917718	-401.959235	30.341	
C	-0.2292500865	 1.5083994558	 0.049114849	-0.519883
C	-0.0641213529	 0.032274203	-0.0323079194	 0.368993
C	-0.1068860854	-0.8294439542	-1.0550309384	-0.187443
C	 0.171130144	-2.1827618872	-0.3838356807	-0.06365
C	-0.7662597475	-2.0748610572	 0.8702745775	-0.207938
C	 0.2357709755	-0.9066881873	 1.1595993971	-0.143762
N	 1.2936909838	-1.7803331589	 0.5373626199	-0.033275
C	 2.148173503	-2.6297523857	 1.1698262081	 0.12902
O	 2.5070124016	-3.7087441595	 0.7440738458	-0.333577
H	 0.6792895478	 1.9895980327	 0.4329225522	 0.136254
H	-0.4509702255	 1.9373107818	-0.9317893944	 0.133563
H	-1.0423791241	 1.7848890669	 0.7323404833	 0.130995
H	-0.2761105669	-0.6548844588	-2.1074067445	 0.1114
H	 0.3026492816	-3.0897435986	-0.9666494318	 0.108407
H	-1.8134494864	-1.8162370379	 0.6994696709	 0.105237
H	-0.6572672111	-2.916219042	 1.5606502058	 0.115828
H	 0.4223777824	-0.4928002175	 2.1502524378	 0.084562
H	 2.5448831065	-2.1828397755	 2.105982332	 0.065268
82.2849	156.5037	182.7975	197.7062	286.6601	309.2197	461.248	503.0384	557.1859	638.1125	685.7054	743.7444	795.9749	823.287	841.9986	865.2593	924.6886	990.7049	1004.7861	1022.3506	1028.1577	1051.5577	1065.6733	1094.4087	1146.2751	1183.7339	1221.2465	1226.1315	1244.3102	1254.2827	1306.9817	1371.7785	1415.2292	1423.0444	1477.7971	1485.1242	1492.487	1688.7456	1780.1513	2907.677	3017.5278	3055.7206	3063.4202	3112.3051	3129.7491	3131.0683	3176.5483	3241.279
CC1=CC2CC1N2C=O	CC1=C[C@@H]2C[C@H]1N2C=O	
InChI=1S/C7H9NO/c1-5-2-6-3-7(5)8(6)4-9/h2,4,6-7H,3H2,1H3	InChI=1S/C7H9NO/c1-5-2-6-3-7(5)8(6)4-9/h2,4,6-7H,3H2,1H3/t6-,7-/m1/s1
