12
gdb 9571	4.75816	1.33332	1.23039	0.9121	60.75	-0.3287	-0.0425	0.2862	947.9157	0.082085	-377.517979	-377.51026	-377.509316	-377.55012	26.818	
C	-0.0668786919	 1.5452136644	-0.0526750926	-0.469871
C	-0.0317959736	 0.039714312	 0.05896172	 0.232211
O	 1.2237399987	-0.6057574606	-0.1630248803	-0.235491
C	 0.6866485738	-0.6725325084	 1.1552466159	-0.141782
C	 1.3730320921	 0.0740342734	 2.1867224917	 0.316378
N	 1.9060276551	 0.6608347521	 3.0272554414	-0.310769
C	-1.1729437693	-0.6585809402	-0.515917862	 0.269401
N	-2.093591114	-1.1881562027	-0.9701461309	-0.311328
H	 0.8013228719	 1.9800422637	 0.4452499003	 0.166094
H	-0.0575691234	 1.8367571019	-1.1061884271	 0.161043
H	-0.9783764426	 1.9373726473	 0.4065352315	 0.158597
H	 0.3310444931	-1.6534580928	 1.4636794519	 0.165516
114.3592	130.0801	178.6	187.9081	267.156	341.8546	372.7897	488.1822	555.5417	577.224	610.1532	697.5864	838.5284	901.7706	965.9096	1039.0415	1092.1142	1106.058	1237.2153	1314.7559	1413.7227	1420.0835	1477.0304	1490.2357	2362.2777	2366.7563	3056.7136	3131.0038	3145.2934	3151.2993
CC1(OC1C#N)C#N	C[C@]1(O[C@H]1C#N)C#N	
InChI=1S/C5H4N2O/c1-5(3-7)4(2-6)8-5/h4H,1H3	InChI=1S/C5H4N2O/c1-5(3-7)4(2-6)8-5/h4H,1H3/t4-,5-/m0/s1
