17
gdb 48596	2.55282	1.53694	1.24783	2.1191	74.07	-0.2488	-0.0349	0.2139	1045.908	0.135079	-421.75364	-421.745895	-421.74495	-421.786303	29.394	
O	 0.0140289243	-0.0318780234	 0.0837492294	-0.247483
C	 0.0747796421	 1.1731318938	 0.1165491811	 0.027132
C	 1.343684533	 1.9469852845	 0.0625109939	 0.145908
C	 1.8344631224	 3.0656763702	 1.0535386825	-0.276248
C	 2.9585974344	 2.9636209357	-0.0288470269	-0.155386
C	 2.8029417276	 1.4114207755	 0.0557228985	-0.260751
C	 1.8185909902	 2.9207466198	-1.0530544364	 0.500662
C	 1.6758348232	 2.9863658606	-2.4972672146	-0.312435
O	 1.1126338622	 3.9914330008	-1.6053656209	-0.297735
H	-0.8461159901	 1.7958582334	 0.1816945503	 0.082753
H	 1.256090084	 3.9905083142	 1.0774738873	 0.122733
H	 2.0978693894	 2.7155986157	 2.0543386919	 0.106054
H	 3.8832437096	 3.5367416783	-0.0782310653	 0.090135
H	 3.1341815842	 0.9544205491	 0.9897408496	 0.109066
H	 3.1106248855	 0.8281498886	-0.8140685676	 0.108772
H	 2.4995141781	 3.3377955062	-3.1159055733	 0.12728
H	 0.9416013798	 2.365158377	-3.0070388795	 0.129542
59.4906	156.4719	191.4316	225.0851	298.0262	363.9772	468.5095	505.9283	609.8738	612.3738	711.4748	759.9909	823.813	878.8713	899.4756	942.5024	963.2934	989.6811	1016.7973	1053.9428	1061.7198	1068.555	1107.5959	1113.4866	1148.7434	1152.8386	1168.2871	1207.3445	1210.7512	1234.6721	1319.5982	1423.6555	1446.7432	1493.4457	1523.8826	1561.4664	1811.5116	2876.3544	3068.1081	3074.144	3091.7843	3130.3777	3142.9562	3144.0138	3179.9516
O=CC12CC(C1)C21CO1	O=C[C@@]12C[C@@H](C1)[C@]12CO1	
InChI=1S/C7H8O2/c8-3-6-1-5(2-6)7(6)4-9-7/h3,5H,1-2,4H2	InChI=1S/C7H8O2/c8-3-6-1-5(2-6)7(6)4-9-7/h3,5H,1-2,4H2/t5-,6+,7-/m0/s1
