17
gdb 29626	2.44792	1.92515	1.09223	3.4238	78.68	-0.2272	-0.0482	0.179	1073.0942	0.138236	-414.241028	-414.232828	-414.231883	-414.274047	30.332	
C	-0.04306553	 1.4658725844	-0.0357536942	-0.332178
N	-0.0159426392	 0.0059892591	 0.0298136315	-0.125713
C	-0.1103524748	-0.6697356024	-1.223281998	 0.414791
N	-0.2085337738	 0.0500884904	-2.2730570733	-0.574614
N	-0.0865496244	-2.0548693474	-1.1842817294	-0.304438
C	 0.0185271245	-2.6182910791	-0.0228283333	 0.065138
N	 0.1114076005	-2.0154323022	 1.199906936	-0.331093
C	 0.0903250497	-0.7048623941	 1.1796401128	 0.41482
C	 0.1895630282	 0.0104652244	 2.4982390441	-0.496448
H	 0.0340829096	 1.8922466688	 0.9606855035	 0.131409
H	 0.7810371566	 1.8138516895	-0.6624255587	 0.163122
H	-0.9697678017	 1.7879745536	-0.5157939341	 0.163084
H	-0.2663675633	-0.5717393381	-3.0778304209	 0.226655
H	 0.0366631863	-3.7070361204	 0.0010715494	 0.121053
H	 0.265454671	-0.745722128	 3.2777700238	 0.162679
H	 1.0707561758	 0.6584962452	 2.5404725446	 0.150873
H	-0.690930515	 0.6328116764	 2.6870195762	 0.150862
62.0983	135.226	177.1016	219.7587	262.4942	356.8261	383.7113	458.1899	519.3173	542.7176	560.5682	633.0899	704.9183	787.5617	866.8135	868.9792	949.8954	1011.7874	1017.4494	1037.2461	1066.3534	1153.8334	1178.4533	1189.4117	1264.2752	1301.1709	1399.5201	1420.173	1438.149	1461.3564	1463.7496	1480.4017	1493.8172	1517.5042	1566.5381	1644.179	1713.6965	3046.5889	3069.7947	3105.8003	3128.1867	3146.1742	3169.2905	3191.651	3512.6296
CN1C(=N)N=CN=C1C	CN1C(=NC=N[C@H]1C)[NH]	
InChI=1S/C5H8N4/c1-4-7-3-8-5(6)9(4)2/h3,6H,1-2H3	InChI=1S/C5H9N4/c1-4-7-3-8-5(6)9(4)2/h3-4,6H,1-2H3/t4-/m1/s1
