18
gdb 98365	3.85263	0.86212	0.77379	3.5202	70.46	-0.2518	-0.0029	0.2489	1483.6476	0.145652	-476.285432	-476.275247	-476.274303	-476.321614	34.71	
C	-0.164415174	 1.3268063246	 0.0507812629	-0.243796
O	-0.0182834811	-0.1017084053	 0.077626338	-0.228658
C	 0.660122434	-0.5942005924	 1.1206803128	 0.45376
O	 1.1292428845	 0.0811813228	 2.005903577	-0.374468
C	 0.7765878403	-2.1099388421	 1.0360554242	-0.075364
C	 1.5917794799	-2.5443139366	-0.1964260236	-0.398663
N	 1.3602375445	-2.568236399	 2.282275283	-0.28046
C	 1.2458150853	-3.8500492564	 2.7053625136	 0.154223
O	 0.7198880826	-4.7434051187	 2.0711413136	-0.333157
H	 0.8142900703	 1.8114788824	 0.0219932982	 0.146285
H	-0.7290942388	 1.5477608108	-0.8543200343	 0.141452
H	-0.7050229532	 1.6719347327	 0.9351856055	 0.147149
H	-0.232315977	-2.5280378285	 0.94052654	 0.133648
H	 1.1122826876	-2.1939255469	-1.1130663274	 0.132612
H	 2.6077407103	-2.1410177916	-0.1486892949	 0.121869
H	 1.6431046054	-3.6342013567	-0.2120741542	 0.158914
H	 1.7336413082	-1.8516914317	 2.8885906706	 0.263342
H	 1.6959739112	-3.9999642975	 3.706250245	 0.081312
45.3572	69.3299	118.5549	137.529	147.2725	222.023	243.9277	252.9447	303.8377	330.7319	412.1703	478.748	581.3463	637.827	752.347	807.1746	888.0771	910.3603	1014.2126	1033.8319	1077.2818	1097.8911	1138.7469	1178.3443	1207.0119	1220.9177	1245.4759	1337.2831	1364.3273	1399.2438	1424.5742	1474.8998	1482.3515	1483.9922	1496.2421	1503.877	1523.8623	1790.8197	1811.2967	2943.511	3047.4446	3053.4857	3056.637	3130.1678	3133.6815	3150.1545	3167.12	3605.4536
COC(=O)C(C)NC=O	COC(=O)[C@@H](C)NC=O	
InChI=1S/C5H9NO3/c1-4(6-3-7)5(8)9-2/h3-4H,1-2H3,(H,6,7)	InChI=1S/C5H9NO3/c1-4(6-3-7)5(8)9-2/h3-4H,1-2H3,(H,6,7)/t4-/m1/s1
