13
gdb 131934	4.47396	1.13065	0.90395	7.7872	66.56	-0.2302	-0.063	0.1672	1175.3258	0.090831	-486.02109	-486.013578	-486.012634	-486.053462	27.57	
N	 9.1648*^-6	 1.3400860607	 0.1607783217	-0.597555
C	-0.0465283111	-0.0385328144	 0.0477564851	 0.423187
N	-1.1283674907	-0.7779333441	 0.0579637373	-0.339252
C	-0.6584385122	-2.0628315758	 0.0187837765	 0.356504
C	 0.7060281157	-2.1233917507	-0.0285142813	-0.130926
N	 1.0948672783	-0.8028345736	-0.0065116813	-0.292602
N	-1.5319739198	-3.2083261539	 0.016591505	 0.338647
O	-2.7364660793	-3.0174136037	 0.0757656254	-0.347467
O	-0.9837570844	-4.3096054442	-0.0457135116	-0.390999
H	 0.6024187477	 1.799611387	-0.5104670426	 0.257138
H	-0.9339344727	 1.7282858791	 0.1285070528	 0.275164
H	 1.3933385491	-2.9479346774	-0.0803854843	 0.171424
H	 2.0423881146	-0.465787009	 0.0445508574	 0.276737
77.1391	169.1209	197.6294	249.5696	328.9344	390.397	431.3008	522.4641	562.8455	625.1259	682.4184	734.3166	749.6812	778.1879	813.1302	840.0932	997.2225	1006.0139	1097.2823	1137.1757	1244.7696	1325.1598	1380.5024	1410.8035	1486.9323	1573.079	1610.5669	1632.9116	1666.2872	3311.4133	3542.3285	3639.3947	3656.126
NC1=NC(=CN1)N(=O)=O	Nc1nc(c[nH]1)N(=O)=O	
InChI=1S/C3H4N4O2/c4-3-5-1-2(6-3)7(8)9/h1H,(H3,4,5,6)	InChI=1S/C3H4N4O2/c4-3-5-1-2(6-3)7(8)9/h1H,(H3,4,5,6)
