15
gdb 14943	4.60952	1.53248	1.22697	2.4527	62.18	-0.2469	-0.0275	0.2194	938.1934	0.119703	-399.819755	-399.812648	-399.811704	-399.851686	25.586	
O	-0.8277564568	 0.9126676288	 0.572035217	-0.247012
C	 0.1701348471	 0.8746986626	-0.0987459955	 0.153752
C	 1.3480031407	 1.8304102	 0.0632088699	-0.051959
C	 1.3725563883	 2.5223755671	 1.4278488573	-0.233535
C	 2.709147404	 3.2338834226	 1.5820952614	-0.085905
O	 3.8116974289	 2.3384932397	 1.3472648348	-0.221834
C	 3.6143545945	 1.3791151834	 0.418579484	 0.13929
N	 2.569571036	 1.0887551474	-0.2349601862	-0.291694
H	 0.3158601194	 0.131088589	-0.9113262917	 0.09791
H	 1.2066373376	 2.5811261586	-0.7344441177	 0.112912
H	 0.5470858407	 3.2308977264	 1.5315016708	 0.124567
H	 1.2546519421	 1.7724083292	 2.2165639044	 0.127882
H	 2.7952607578	 4.0699452364	 0.8764350844	 0.117066
H	 2.8565500181	 3.6217479073	 2.5922908581	 0.126692
H	 4.5335788918	 0.8157766316	 0.2684175491	 0.131867
63.6533	139.9765	202.8926	244.4068	349.4229	426.8595	512.3413	570.1627	636.0595	784.6094	796.5077	866.2202	927.6417	950.0121	972.269	1018.6381	1083.1856	1100.2771	1137.782	1181.5056	1235.468	1263.2346	1295.1352	1311.3409	1366.7895	1394.7034	1405.3327	1417.4911	1477.9601	1510.0226	1727.8639	1835.427	2912.5504	2954.667	3028.6883	3061.738	3106.6363	3113.4641	3160.7387
O=CC1CCOC=N1	O=C[C@H]1CCOC=N1	
InChI=1S/C5H7NO2/c7-3-5-1-2-8-4-6-5/h3-5H,1-2H2	InChI=1S/C5H7NO2/c7-3-5-1-2-8-4-6-5/h3-5H,1-2H2/t5-/m1/s1
