24
gdb 117936	2.86703	0.74248	0.67711	3.3131	87.93	-0.2384	0.0398	0.2782	1836.4352	0.215463	-405.597141	-405.585339	-405.584395	-405.635799	40.943	
C	-0.1445353191	 1.4322498287	-0.4675604685	-0.37998
C	-0.0287447002	-0.0393457247	-0.0581828123	-0.180432
C	-1.3969365607	-0.7125840699	 0.0977604376	-0.146735
C	-1.3460767159	-2.2229256357	 0.4193550559	-0.104531
C	-0.7026174625	-2.5270777478	 1.7803789465	-0.387419
C	-2.7803100659	-2.7593123766	 0.4161316734	 0.418053
O	-3.5857500788	-2.4454689097	 1.2772318945	-0.392681
N	-3.0921027647	-3.5894917068	-0.6226595264	-0.318001
C	-4.4113518516	-4.1646631997	-0.7954128375	-0.333021
H	 0.841251308	 1.8959428078	-0.5730399518	 0.110604
H	-0.6673889124	 1.5379484892	-1.4246825616	 0.112847
H	-0.7050604338	 2.0062704573	 0.2784230378	 0.118067
H	 0.5620930294	-0.5826940344	-0.8083686021	 0.089247
H	 0.5332495328	-0.1074789199	 0.8803853625	 0.102362
H	-1.9767792884	-0.2144854021	 0.8839049767	 0.118011
H	-1.964201841	-0.5730081637	-0.8327504574	 0.089763
H	-0.7669520894	-2.7238019803	-0.3693074094	 0.056251
H	-0.6613655905	-3.6058465414	 1.9621115258	 0.112681
H	 0.318016512	-2.1404173862	 1.8353786479	 0.112168
H	-1.2976712836	-2.0762821425	 2.5788191872	 0.141852
H	-2.3753906856	-3.8095191615	-1.2932690078	 0.243034
H	-4.3762001953	-5.2598044242	-0.77618359	 0.123054
H	-5.0256378654	-3.8128469318	 0.0342882583	 0.171809
H	-4.8678978374	-3.8460925542	-1.7395221893	 0.122998
23.4934	67.4426	87.0737	99.3933	104.5347	171.1755	214.3301	240.7051	256.4324	273.5065	310.5832	340.4449	363.7148	476.8744	516.7969	693.5015	745.192	765.4997	846.6224	874.441	882.5095	935.8871	1002.556	1025.6046	1056.7426	1072.2335	1111.3612	1128.2304	1155.2502	1171.2174	1195.599	1218.1847	1263.7219	1303.9411	1329.4065	1349.3514	1374.7078	1394.7627	1403.2104	1413.3501	1437.267	1482.3602	1491.0197	1493.9383	1495.5396	1499.4868	1501.1717	1504.2628	1511.5031	1556.0628	1771.4623	3000.1758	3011.6695	3015.7514	3025.2426	3029.9018	3043.4447	3052.5037	3071.4893	3076.0951	3098.2334	3101.9119	3109.8211	3130.684	3152.9825	3653.7674
CCCC(C)C(=O)NC	CCC[C@@H](C)C(=O)NC	
InChI=1S/C7H15NO/c1-4-5-6(2)7(9)8-3/h6H,4-5H2,1-3H3,(H,8,9)	InChI=1S/C7H15NO/c1-4-5-6(2)7(9)8-3/h6H,4-5H2,1-3H3,(H,8,9)/t6-/m1/s1
