17
gdb 40324	3.13925	1.30568	1.0815	2.0693	67.57	-0.2623	0.0608	0.3231	1127.0438	0.134282	-458.882612	-458.874367	-458.873422	-458.916206	30.122	
C	-0.6016843584	 0.8843666802	-0.4359135939	-0.165389
O	 0.5489054773	 1.380621767	 0.2590178663	-0.2385
C	 0.3238746205	-0.0232189198	 0.2522298086	 0.001124
C	-0.0399628521	-0.6562265981	 1.5701591074	 0.356818
C	 0.3222879651	 0.0217835956	 2.8266237804	-0.214706
O	-1.021066813	 0.0428105032	 2.3303555757	-0.267957
C	-0.1636680793	-2.1524970216	 1.5359444898	-0.024523
C	-1.2174611489	-2.8511625517	 2.2771059947	-0.167198
O	-1.311331253	-2.6748518715	 0.8607462662	-0.23475
H	-1.55368101	 1.1103775305	 0.0365281097	 0.137585
H	-0.5650677382	 0.9704778003	-1.5201895053	 0.118139
H	 1.0338340541	-0.598447225	-0.3440622194	 0.095767
H	 0.4738671374	-0.5661546988	 3.7304248691	 0.113986
H	 0.8439177542	 0.9734124521	 2.7703797727	 0.139274
H	 0.7641216173	-2.6828029963	 1.3129127073	 0.099417
H	-1.0481741529	-3.8738062316	 2.6105572385	 0.11502
H	-1.91826337	-2.2619652545	 2.8625419622	 0.135894
64.493	75.1707	170.2828	209.2564	254.0689	284.8846	393.7326	431.825	534.1459	614.5702	705.3162	820.9333	860.0838	876.1232	892.141	926.992	942.2476	977.6665	1017.3224	1054.8067	1096.0258	1103.2291	1128.2104	1156.471	1161.6423	1166.4904	1168.2894	1183.1782	1208.0127	1283.6475	1292.3278	1386.2747	1428.9058	1446.2439	1505.9801	1518.2637	1524.2639	3089.9966	3094.9893	3096.8788	3099.2352	3105.0919	3195.2593	3197.6404	3200.423
C1OC1C1(CO1)C1CO1	C1O[C@H]1[C@]1(CO1)[C@H]1CO1	
InChI=1S/C6H8O3/c1-4(7-1)6(3-9-6)5-2-8-5/h4-5H,1-3H2	InChI=1S/C6H8O3/c1-4(7-1)6(3-9-6)5-2-8-5/h4-5H,1-3H2/t4-,5-/m1/s1
