19
gdb 82210	2.39302	1.85898	1.34844	1.0518	73.44	-0.2539	0.0701	0.3241	1003.1346	0.159048	-423.000152	-422.992111	-422.991166	-423.032177	32.19	
C	 0.003080914	 1.5798643402	-0.055816438	-0.403346
C	 0.0297312063	 0.0491218428	-0.0130613009	-0.084531
C	 0.7066598607	-0.6058420963	-1.2117918253	 0.030888
O	 2.1152554942	-0.3570537914	-1.3312369516	-0.260065
C	 1.688547381	-1.598408478	-0.7442131566	 0.023207
C	 1.7012709047	-1.6154409099	 0.7662538604	-0.120197
C	 2.1972128859	-0.348168981	 1.4457015604	-0.353702
C	 0.7248560009	-0.558127268	 1.2232001345	 0.380897
O	-0.0882538255	-0.8081450234	 2.3327693455	-0.469391
H	 1.0157975278	 1.9832323448	-0.1422457224	 0.132523
H	-0.5788840816	 1.9438287307	-0.9086682635	 0.115472
H	-0.4530664797	 1.9873305491	 0.8528318972	 0.106625
H	-1.0006899327	-0.3286962554	 0.0185588801	 0.088568
H	 0.1750585421	-0.6811710936	-2.1580974891	 0.094011
H	 1.9539332903	-2.4893889627	-1.3056920563	 0.096318
H	 1.7848702535	-2.5631470722	 1.283351547	 0.09515
H	 2.5354378994	-0.4648472309	 2.4700699979	 0.107848
H	 2.7439750144	 0.3658800643	 0.8430988778	 0.136126
H	-0.0852085558	-0.021660049	 2.8887137728	 0.2836
129.3198	203.7173	221.3097	243.8551	283.5395	310.9306	398.4494	422.2067	526.3277	558.8299	648.4819	679.2071	695.5078	814.3486	825.4812	878.0322	884.5643	920.2845	937.5087	976.1404	998.7529	1034.9323	1049.9078	1069.5457	1081.064	1100.2973	1120.3882	1128.252	1207.701	1254.8497	1263.9046	1300.5782	1330.0086	1336.2523	1357.6928	1389.4314	1405.7916	1419.4743	1471.6477	1495.5108	1501.2251	3028.9215	3034.2246	3096.7603	3115.6835	3133.4245	3138.1033	3158.3752	3195.6704	3237.1782	3800.3837
CC1C2OC2C2CC12O	C[C@H]1[C@H]2O[C@H]2[C@H]2C[C@@]12O	
InChI=1S/C7H10O2/c1-3-5-6(9-5)4-2-7(3,4)8/h3-6,8H,2H2,1H3	InChI=1S/C7H10O2/c1-3-5-6(9-5)4-2-7(3,4)8/h3-6,8H,2H2,1H3/t3-,4+,5+,6-,7+/m0/s1
