15
gdb 131562	3.1752	1.61505	1.15867	3.5148	67.25	-0.2177	0.0142	0.2319	1004.8678	0.115407	-453.945634	-453.938428	-453.937484	-453.977468	27.459	
O	-0.127634626	 1.5016909427	 0.2745564491	-0.424967
C	-0.0087922099	 0.1128814861	-0.0202010167	-0.103668
C	 0.6262367821	-0.7216329282	 1.1555837124	-0.107668
O	-0.4217898766	-1.4441451038	 1.8511747336	-0.269871
C	-1.5025023449	-1.3581257094	 1.0470891364	 0.440213
N	-2.6775689032	-1.9406355702	 1.1561175914	-0.355766
N	-3.325068504	-1.4413051437	 0.0552474569	-0.188439
C	-2.5760410056	-0.5941587473	-0.6993764998	-0.209142
C	-1.3558147205	-0.520617924	-0.0673001386	 0.205298
H	 0.7510332473	 1.8926145294	 0.2182463922	 0.281819
H	 0.5857876476	-0.0246551294	-0.9338547195	 0.080607
H	 1.34200552	-1.4573248247	 0.7722119766	 0.114439
H	 1.1224999526	-0.0673144071	 1.876661733	 0.117921
H	-4.26844815	-1.7412374381	-0.1169862961	 0.276468
H	-2.9758331092	-0.1311826623	-1.587656741	 0.142755
86.5792	156.7385	287.005	292.1337	345.9401	406.435	457.1879	523.9125	638.1349	667.6754	721.3771	753.9255	786.8551	804.5749	879.7417	965.3197	983.0273	1016.0696	1054.357	1091.3696	1137.6607	1199.0806	1219.2046	1240.4404	1282.5177	1335.7601	1354.1057	1416.171	1470.9136	1482.3203	1486.9092	1551.6523	1655.1446	3000.0121	3042.9546	3109.1499	3261.3983	3691.0456	3803.1104
OC1COC2=NNC=C12	O[C@H]1COc2n[nH]cc12	
InChI=1S/C5H6N2O2/c8-4-2-9-5-3(4)1-6-7-5/h1,4,8H,2H2,(H,6,7)	InChI=1S/C5H6N2O2/c8-4-2-9-5-3(4)1-6-7-5/h1,4,8H,2H2,(H,6,7)/t4-/m0/s1
