17
gdb 42729	2.62043	1.84753	1.42046	3.66	72.42	-0.2351	-0.0226	0.2124	950.1361	0.137275	-421.805418	-421.798421	-421.797477	-421.836759	27.893	
O	 0.0188835396	 0.0539073466	 0.0694026475	-0.333873
C	-0.0381331679	 1.2529849856	 0.0530101837	 0.383931
C	-1.2326518652	 2.1923328457	-0.0291235627	-0.14626
C	-0.8157363344	 3.2552222499	 1.0466208467	-0.246621
C	 0.3331472208	 3.5619197809	 0.0384317344	-0.123129
C	-0.7000058302	 3.2278784045	-1.0819429406	-0.243865
C	 1.1163601903	 2.2616889719	 0.1020248893	 0.384846
C	 2.4199519518	 1.9963504889	 0.7117399073	-0.275218
O	 2.2609008404	 2.0337226214	-0.7106455475	-0.285694
H	-2.2214984217	 1.742914879	-0.0768280449	 0.08928
H	-1.5419328139	 4.0683123332	 1.1084427833	 0.115914
H	-0.5519656125	 2.9045607708	 2.0481496649	 0.10981
H	 0.8989492947	 4.4916903957	 0.0556799478	 0.080712
H	-0.3224569495	 2.8513621349	-2.0355616546	 0.123246
H	-1.4162929908	 4.0357353022	-1.2457489305	 0.112502
H	 2.9860459864	 2.8218332314	 1.1414773595	 0.119274
H	 2.618278192	 1.0102929274	 1.1281734065	 0.135145
114.8476	205.8036	233.7903	273.8312	418.2619	459.3144	519.6113	571.6184	663.4581	753.1951	796.4027	830.5364	844.5242	863.1442	890.9725	910.5898	969.5771	993.8976	998.8125	1017.6227	1047.7317	1065.7035	1099.3637	1125.49	1136.7908	1166.6764	1224.5554	1238.4182	1239.9312	1242.7739	1272.9671	1291.0587	1439.4778	1486.7522	1516.3054	1527.2243	1875.6015	3060.16	3066.3428	3084.463	3123.4977	3128.9094	3133.8564	3154.2908	3178.4103
O=C1C2CC(C2)C11CO1	O=C1[C@H]2C[C@H](C2)[C@]21CO2	
InChI=1S/C7H8O2/c8-6-4-1-5(2-4)7(6)3-9-7/h4-5H,1-3H2	InChI=1S/C7H8O2/c8-6-4-1-5(2-4)7(6)3-9-7/h4-5H,1-3H2/t4-,5+,7-/m0/s1
