21
gdb 88510	2.61325	1.1846	1.0594	2.9036	82.93	-0.2437	-0.0199	0.2238	1260.538	0.181176	-387.07655	-387.067197	-387.066253	-387.111219	35.258	
C	-0.9524924836	 0.8832661254	 0.2035182646	-0.410896
C	-0.0266442012	-0.3050479455	 0.0640444325	 0.014449
C	 1.3779221486	-0.1000614943	-0.4304740763	-0.302318
C	 1.1482562394	-0.573088817	 0.9939112141	-0.143015
C	 1.5204695313	 0.2720537855	 2.1858262718	 0.23648
C	 0.4676858901	 0.7708441907	 3.1788745462	-0.278967
C	 1.3586368947	-0.3417193509	 3.5865467682	-0.286751
C	 2.733312043	 1.1350007195	 2.0813828717	 0.093354
O	 3.0954545663	 1.9146963536	 2.9324001331	-0.2808
H	-0.4295050416	 1.7602875614	 0.5955187141	 0.124918
H	-1.3690218214	 1.154768908	-0.7727630052	 0.118729
H	-1.7941846156	 0.6704027951	 0.8714660916	 0.116323
H	-0.5215552919	-1.2062117502	-0.2891999525	 0.084838
H	 1.8089968703	-0.7946222737	-1.1429315086	 0.112871
H	 1.691875484	 0.929102255	-0.5756607396	 0.114147
H	 1.3528325249	-1.6313004508	 1.1366807604	 0.09055
H	 0.6565676273	 1.7493885606	 3.6056693389	 0.138417
H	-0.5637579186	 0.5447378424	 2.9423613664	 0.122938
H	 0.9548088242	-1.3480520063	 3.6188485897	 0.119319
H	 2.1511759759	-0.1284835188	 4.2944210347	 0.136254
H	 3.3190504639	 0.9997406304	 1.1473306742	 0.07916
30.0815	112.8113	171.6303	207.6652	242.7263	270.9955	279.9306	333.0567	350.9272	424.3836	504.2349	622.3724	719.7262	774.2482	799.5898	812.055	846.5604	866.106	922.7709	953.5454	964.4003	989.6358	1044.0319	1060.7096	1067.587	1074.0599	1091.5402	1107.842	1134.2176	1151.2256	1200.9487	1209.8152	1223.4162	1288.9885	1306.8973	1389.4919	1411.4082	1423.7034	1428.3307	1449.5673	1481.3248	1491.4077	1494.5294	1505.5394	1798.2971	2905.1147	3030.848	3088.0118	3106.3132	3123.4091	3128.116	3134.3396	3140.2211	3148.4731	3211.1001	3227.3726	3249.5012
CC1CC1C1(CC1)C=O	C[C@H]1C[C@H]1C1(CC1)C=O	
InChI=1S/C8H12O/c1-6-4-7(6)8(5-9)2-3-8/h5-7H,2-4H2,1H3	InChI=1S/C8H12O/c1-6-4-7(6)8(5-9)2-3-8/h5-7H,2-4H2,1H3/t6-,7+/m0/s1
