18
gdb 31779	2.94192	1.29943	0.96109	1.7667	76.67	-0.1832	0.0404	0.2236	1210.1357	0.147681	-439.112656	-439.103399	-439.102454	-439.146495	34.11	
C	 0.342783641	 1.2801756962	 0.2749427397	-0.358121
N	 0.0494047589	-0.134487324	 0.1293397864	-0.089128
C	 0.0498411443	-0.8230014378	-1.0488081149	 0.355988
O	 0.3583794668	-0.1348722673	-2.1788634726	-0.439953
C	-0.2775100763	-2.1404515235	-0.8202838261	-0.303805
C	-0.4885820017	-2.2521427945	 0.584127156	-0.220313
C	-0.292515203	-1.0156546212	 1.1538196038	 0.236522
C	-0.380959596	-0.586681647	 2.5747226515	-0.189493
O	 0.8692377998	-0.1483826597	 3.1263990955	-0.41295
H	 0.8391743364	 1.4392185071	 1.2332497808	 0.163306
H	 1.0021902872	 1.5932903489	-0.5356851663	 0.149658
H	-0.5687591256	 1.8879992569	 0.2331493507	 0.130967
H	 0.4004285881	-0.7604255738	-2.9080611151	 0.308066
H	-0.3522995379	-2.9188926723	-1.563683519	 0.086504
H	-0.766935091	-3.1467381336	 1.1214497868	 0.092678
H	-1.0522268911	 0.2701450877	 2.7083814921	 0.109768
H	-0.7999852003	-1.4199961426	 3.1563156996	 0.102764
H	 1.5152603806	-0.8322101497	 2.9169344111	 0.27754
95.8124	126.156	146.2913	175.7057	239.9518	255.7045	302.6572	310.1734	380.8686	426.6656	503.6741	596.004	651.7509	676.9368	711.3688	740.5913	756.5936	798.0795	950.9339	989.186	1015.7472	1040.6382	1135.8485	1158.7394	1185.3871	1204.8206	1253.3348	1279.5107	1333.7714	1350.0555	1404.531	1419.315	1450.9343	1496.3955	1501.9252	1516.7449	1558.9242	1566.9966	1617.3756	3005.958	3032.3725	3051.4966	3114.7248	3157.1189	3235.9047	3251.2781	3799.8532	3849.701
CN1C(O)=CC=C1CO	Cn1c(O)ccc1CO	
InChI=1S/C6H9NO2/c1-7-5(4-8)2-3-6(7)9/h2-3,8-9H,4H2,1H3	InChI=1S/C6H9NO2/c1-7-5(4-8)2-3-6(7)9/h2-3,8-9H,4H2,1H3
