23
gdb 109081	4.00826	1.00496	0.91814	0.2881	92.2	-0.2241	0.0315	0.2555	1402.6619	0.207523	-351.16975	-351.16105	-351.160106	-351.203373	33.929	
C	-0.3178144683	 1.5581779513	-0.1163303546	-0.37274
C	 0.181294787	 0.1143261379	 0.0711940092	-0.286937
C	 0.8405682494	-0.4571976034	-1.1506560703	 0.345209
C	 2.113455599	-0.8540312097	-1.2574457282	-0.195474
C	 2.4677801778	-1.388018292	-2.6166490732	-0.048666
C	 2.5759579166	-2.9393381052	-2.7310886698	-0.219573
C	 1.0786325546	-2.9890206801	-3.1461105111	-0.220536
C	 1.0733369585	-1.4407958813	-3.329377153	 0.000786
C	 0.0888722071	-0.6394614032	-2.460639943	-0.325649
H	 0.5100357607	 2.2269174498	-0.3728623508	 0.119238
H	-1.0611398155	 1.6246839588	-0.9169279847	 0.11958
H	-0.7832401705	 1.9306294333	 0.8014190313	 0.111778
H	 0.8816104604	 0.0768616293	 0.9132881984	 0.099064
H	-0.6745295775	-0.5174739265	 0.3497100649	 0.099901
H	 2.8349110873	-0.8072390245	-0.4462748928	 0.078147
H	 3.2802070227	-0.8261878327	-3.0909540796	 0.063612
H	 3.246502619	-3.2489835734	-3.5378530557	 0.094159
H	 2.8561500719	-3.479477073	-1.8226510382	 0.092249
H	 0.8426253242	-3.5818265318	-4.033217639	 0.094111
H	 0.4201648901	-3.3128712799	-2.3349349995	 0.097739
H	 1.0711383919	-1.1381240645	-4.3781687208	 0.059693
H	-0.8632465606	-1.1701647209	-2.3185377366	 0.094994
H	-0.1683942057	 0.3306643916	-2.9079570431	 0.099315
65.2283	105.1858	137.8751	216.465	224.0257	326.0266	360.3908	446.1422	489.7823	596.8502	645.8948	718.5451	769.0433	787.3041	845.4794	858.4315	871.7903	886.9412	914.1323	954.009	963.7858	966.5689	1015.6061	1048.2686	1063.1589	1068.3285	1099.0383	1117.6831	1158.1143	1192.4274	1216.7495	1232.3395	1252.6797	1263.4198	1272.0537	1274.5567	1299.2376	1318.3089	1330.5876	1352.0379	1368.0791	1406.9151	1477.6782	1478.7243	1483.6687	1495.8487	1499.0323	1507.6349	1706.0239	3000.2379	3004.173	3025.846	3033.6652	3036.7444	3050.5711	3057.481	3058.0127	3084.2571	3095.893	3106.9929	3109.0772	3114.0742	3167.1173
CCC1=CC2CCC2C1	CCC1=C[C@H]2CC[C@H]2C1	
InChI=1S/C9H14/c1-2-7-5-8-3-4-9(8)6-7/h5,8-9H,2-4,6H2,1H3	InChI=1S/C9H14/c1-2-7-5-8-3-4-9(8)6-7/h5,8-9H,2-4,6H2,1H3/t8-,9+/m1/s1
