12
gdb 24885	3.49717	1.34362	0.97068	2.7611	73.8	-0.263	-0.1035	0.1595	1096.9212	0.078932	-431.701565	-431.69452	-431.693576	-431.733444	25.762	
N	 0.0329102325	 1.3088921737	 0.0093591707	-0.522888
C	-0.0192796061	 0.0490664473	 0.0032084313	 0.380296
O	 1.1701542509	-0.7213805146	-0.0071470891	-0.249864
C	 1.0970856395	-2.0671123533	-0.0136419251	 0.327493
N	 0.0406314092	-2.7862603827	-0.0115840031	-0.30404
C	-1.1628230633	-2.0902653462	-0.0015378244	-0.02577
C	-1.2305688754	-0.7451843001	 0.0056863199	-0.118295
C	 2.4007504572	-2.6783132766	-0.0237261886	 0.287014
N	 3.4497786724	-3.1627143669	-0.031806621	-0.304337
H	 0.9931608425	 1.6518164765	 0.0059282664	 0.240453
H	-2.0513172413	-2.7109744862	 0.0000936045	 0.141741
H	-2.1683189982	-0.206032141	 0.0134969924	 0.148199
116.1781	144.9696	156.1189	335.516	412.3368	455.3333	494.1276	522.339	578.4771	689.0713	741.2865	759.1171	843.993	869.0389	878.7396	963.8226	1010.5107	1024.1576	1121.4508	1192.311	1254.1163	1313.8654	1423.626	1604.0613	1663.3276	1768.2768	2364.002	3204.4496	3237.0847	3505.3514
N=C1OC(=NC=C1)C#N	[NH]C1=CCN=C(O1)C#N	
InChI=1S/C5H3N3O/c6-3-5-8-2-1-4(7)9-5/h1-2,7H	InChI=1S/C5H4N3O/c6-3-5-8-2-1-4(7)9-5/h1,7H,2H2
