20
gdb 80873	2.19954	1.96818	1.61543	2.0227	77.68	-0.2371	0.0878	0.325	965.216	0.172583	-403.098978	-403.091433	-403.090489	-403.130284	31.668	
C	-0.0199476653	 1.5057757466	 0.0720674449	-0.490892
C	-0.042153212	 0.0060440542	-0.0700708096	 0.291697
C	 0.3538899769	-0.752978767	-1.3656774571	-0.294613
C	-0.3351084252	-1.9445014759	-0.6619642529	-0.107824
C	 0.4781887753	-2.1237567965	 0.620571457	-0.029528
C	 1.8115476144	-1.4934999305	 0.7863195131	-0.258414
N	 0.6060401452	-0.7054169913	 1.0950414663	-0.171255
C	-1.3578220231	-0.850224243	-0.1359917015	 0.160728
O	-2.0956138911	-1.0416449403	 1.0278844832	-0.452267
H	 1.0072300791	 1.8859864196	 0.0832853896	 0.119704
H	-0.5507621653	 1.9832548148	-0.7572013636	 0.114618
H	-0.4982812752	 1.8068241461	 1.0091314676	 0.130036
H	-0.2251408435	-0.3931210083	-2.2183929297	 0.104469
H	 1.3996014296	-0.8330520529	-1.6589950522	 0.100751
H	-0.6539734876	-2.8386405336	-1.1954323862	 0.068002
H	 0.1349351106	-2.8530530372	 1.3491987459	 0.098703
H	 2.3849443932	-1.7522671992	 1.6727183691	 0.118343
H	 2.42658515	-1.2381882916	-0.068602786	 0.119723
H	-2.0468243172	-0.522609819	-0.9183077248	 0.081798
H	-1.4595426988	-1.028032185	 1.7564522069	 0.296222
192.1917	213.0895	231.9606	274.3652	324.2779	445.105	470.9969	513.6788	529.1131	599.0767	659.6309	693.6089	753.3618	779.1688	804.3098	822.9022	842.4947	908.0116	942.2506	980.651	997.4758	1030.0811	1051.4022	1069.9834	1107.1675	1124.038	1133.9297	1152.8028	1159.65	1197.7109	1203.9787	1223.6506	1245.9051	1283.4308	1317.2124	1326.5566	1367.7096	1414.6922	1450.6754	1484.613	1486.4817	1491.8677	1535.954	3035.0239	3082.2594	3093.0956	3101.1629	3112.4908	3122.8291	3129.3045	3140.1117	3146.8564	3207.4009	3747.5289
CC12CC(C3CN13)C2O	C[C@@]12C[C@@H]([C@H]3CN13)[C@H]2O	
InChI=1S/C7H11NO/c1-7-2-4(6(7)9)5-3-8(5)7/h4-6,9H,2-3H2,1H3	InChI=1S/C7H11NO/c1-7-2-4(6(7)9)5-3-8(5)7/h4-6,9H,2-3H2,1H3/t4-,5+,6+,7-,8?/m0/s1
