14
gdb 32394	4.25746	1.05142	0.8477	0.2095	77.32	-0.2154	-0.0389	0.1764	1284.8309	0.09988	-436.670744	-436.662536	-436.661592	-436.704017	29.469	
C	-0.0155158732	 1.3960071131	 0.0107836566	-0.239786
O	-0.0004342082	-0.0316277485	 0.0004391982	-0.276707
C	 0.5995305039	-0.6077543572	-1.0479754316	 0.347135
C	 0.7356530569	-1.9478540262	-1.270209494	-0.168889
O	 1.407621244	-2.0923744833	-2.4514617866	-0.162688
C	 1.6419486886	-0.8297181879	-2.8798237592	 0.232296
N	 1.1781226833	 0.0931981452	-2.0756963345	-0.399687
C	 2.3312198786	-0.6553967451	-4.0956944413	 0.263394
C	 2.919972443	-0.507834077	-5.1343811703	-0.361096
H	 1.0008532008	 1.8013008694	 0.0175140927	 0.138025
H	-0.5453525492	 1.7913391938	-0.861162663	 0.13806
H	-0.5375624332	 1.6765517443	 0.9262540746	 0.132637
H	 0.4462720979	-2.8414933568	-0.7492668471	 0.15291
H	 3.4395082169	-0.3728123437	-6.0509576645	 0.204394
76.5499	132.114	134.2327	174.9965	248.142	334.3553	455.0284	476.0475	553.4582	580.2765	592.7599	661.0214	695.8577	719.2824	736.6011	752.9409	982.748	1005.1106	1079.985	1141.8692	1179.9579	1205.6532	1226.6783	1337.9378	1357.7576	1471.3999	1483.1605	1500.908	1549.424	1643.9877	2241.4979	3038.8272	3108.6657	3149.2879	3312.2229	3501.7189
COC1=COC(=N1)C#C	COc1coc(n1)C#C	
InChI=1S/C6H5NO2/c1-3-5-7-6(8-2)4-9-5/h1,4H,2H3	InChI=1S/C6H5NO2/c1-3-5-7-6(8-2)4-9-5/h1,4H,2H3
