19
gdb 30745	2.9199	1.27071	0.94394	1.1715	80.11	-0.1697	0.0596	0.2293	1265.8452	0.158559	-419.226982	-419.216865	-419.215921	-419.262014	36.265	
C	-0.597957222	 0.9220538036	 0.0319425209	-0.247399
O	 0.6626300547	 0.2622371694	-0.0912311378	-0.270319
C	 1.0020120408	-0.5143843336	 0.9711737874	 0.284976
C	 0.7930934764	-1.8571618762	 1.1930048285	 0.13112
C	 0.0558735981	-2.8106636486	 0.3066020966	-0.522819
C	 1.4197212038	-2.1529834035	 2.4486164476	 0.165133
N	 1.3579328264	-3.4112389122	 3.083415579	-0.605233
C	 1.9805062736	-0.9940172338	 2.9330975637	-0.178384
N	 1.6929874216	 0.0170473544	 2.027559983	-0.313926
H	-0.608639451	 1.6034589802	 0.8920996443	 0.113746
H	-0.7426778668	 1.4957237406	-0.8862574631	 0.127421
H	-1.4134043179	 0.1979004214	 0.145075202	 0.123881
H	 0.6832727781	-3.6592052338	 0.0015028212	 0.112209
H	-0.830600541	-3.2318959006	 0.7969626973	 0.124765
H	-0.2690301729	-2.3080828256	-0.6086718613	 0.125598
H	 1.472606788	-4.1723102996	 2.4240651217	 0.237009
H	 2.0605245361	-3.5085456212	 3.8062562718	 0.234214
H	 2.5295988303	-0.7965571638	 3.838894122	 0.101496
H	 2.0899338037	 0.939621263	 2.0311783851	 0.256511
59.3174	125.7077	134.5082	152.4398	186.9652	224.1243	228.8967	269.6487	308.1842	348.8391	456.3637	522.9779	567.4732	607.9766	661.0283	699.5872	727.4835	754.892	804.1454	938.4752	1028.1504	1065.5499	1083.2294	1095.9417	1166.3431	1174.212	1212.8775	1223.3075	1277.5502	1336.4921	1412.8628	1442.8187	1459.4399	1484.6047	1487.3341	1499.8067	1503.5533	1511.7129	1583.3538	1646.5859	1670.8472	3007.715	3009.791	3050.4585	3074.1762	3107.5039	3125.9473	3264.4875	3516.8346	3605.8253	3691.0484
COC1=C(C)C(N)=CN1	COc1c(C)c(N)c[nH]1	
InChI=1S/C6H10N2O/c1-4-5(7)3-8-6(4)9-2/h3,8H,7H2,1-2H3	InChI=1S/C6H10N2O/c1-4-5(7)3-8-6(4)9-2/h3,8H,7H2,1-2H3
