20
gdb 98406	2.14595	1.38951	0.99361	2.4681	76.88	-0.2379	-0.0247	0.2132	1264.7358	0.168417	-440.273626	-440.263229	-440.262285	-440.309273	37.306	
C	-0.1296369235	 0.7711798514	-0.486485154	-0.402018
C	 0.2542680915	-0.530462358	 0.1767660885	-0.01162
N	 1.6648340394	-0.8417116898	 0.3610869495	-0.37468
C	 0.837047184	-0.614294021	 1.5690008252	 0.20054
C	 1.1427855141	 0.6388419202	 2.3662121289	-0.43885
C	 0.3951741299	-1.7650827955	 2.4310215835	 0.270896
O	-0.0106848617	-1.5692206092	 3.5581781403	-0.305195
C	 0.549868566	-3.2399234405	 2.0056315478	-0.187845
O	 0.5657474965	-3.5597180616	 0.6218191072	-0.401873
H	 0.5644483345	 1.5742961435	-0.2360356065	 0.133879
H	-0.1178841092	 0.6484644281	-1.5749793421	 0.124948
H	-1.1400014565	 1.0757756339	-0.1937597804	 0.121425
H	-0.3829423492	-1.3658406745	-0.1076353799	 0.057808
H	 1.8040222486	-1.8370814588	 0.2052565283	 0.250185
H	 1.5397632366	 1.4185736148	 1.7162594504	 0.123339
H	 0.2483025269	 1.0061246919	 2.8747595205	 0.131808
H	 1.8908681324	 0.4239296937	 3.1349331771	 0.125675
H	 1.5242858063	-3.5573918658	 2.3997463693	 0.148571
H	-0.2120386389	-3.8040650942	 2.5553362233	 0.13315
H	-0.3422161079	-3.6104473484	 0.309887623	 0.299859
60.1775	72.0928	137.0657	148.5357	166.9451	207.183	265.0046	300.9895	322.0891	347.5489	380.2142	475.015	498.752	557.6203	609.6784	673.4639	762.2736	832.9264	914.047	957.8846	977.0907	1036.6383	1067.6183	1089.1537	1096.2863	1109.3845	1131.1468	1182.3076	1213.9817	1258.5815	1295.2287	1361.3971	1370.619	1393.1154	1408.2635	1417.8537	1445.5879	1464.7971	1478.1715	1485.0385	1494.3246	1506.6102	1769.5601	3026.6793	3039.4408	3057.0645	3076.4858	3097.8285	3117.3454	3120.064	3143.6009	3156.2595	3511.877	3837.5399
CC1NC1(C)C(=O)CO	C[C@H]1N[C@]1(C)C(=O)CO	
InChI=1S/C6H11NO2/c1-4-6(2,7-4)5(9)3-8/h4,7-8H,3H2,1-2H3	InChI=1S/C6H11NO2/c1-4-6(2,7-4)5(9)3-8/h4,7-8H,3H2,1-2H3/t4-,6+/m1/s1
