15
gdb 130209	3.41331	1.16558	0.9112	2.5465	70.05	-0.2132	0.0123	0.2255	1219.4384	0.114156	-450.130145	-450.121735	-450.120791	-450.164178	30.344	
N	 0.5382481045	 1.1827872572	 0.3684845457	-0.597175
C	 0.2435089899	-0.1506134106	 0.105056018	 0.307072
N	-0.9543983421	-0.6792935697	 0.3304735639	-0.3018
N	-0.8092240636	-1.9935725818	 0.0189671927	-0.193335
C	 0.4338733355	-2.312622453	-0.4013078181	-0.11139
C	 1.1526093037	-1.1374988521	-0.3541262535	 0.173612
O	 2.4539536334	-0.9309179298	-0.7492749319	-0.227717
C	 3.3817886439	-0.8258818695	 0.243834222	 0.107141
N	 4.5761834452	-0.5650734245	-0.0548390468	-0.433372
H	 1.1694993117	 1.587692011	-0.3109128171	 0.258828
H	-0.2984287263	 1.7435307083	 0.4645768443	 0.255518
H	-1.6032373862	-2.6012837344	 0.1111871625	 0.278682
H	 0.7164735079	-3.3082024696	-0.7022021452	 0.145761
H	 2.9550786189	-0.9949869051	 1.2393378256	 0.103987
H	 5.1442733136	-0.5286432065	 0.7889803478	 0.234189
34.0637	107.7656	137.3797	242.017	284.9216	306.395	380.3411	445.0307	460.7875	512.7552	648.2123	692.0067	710.6828	777.6855	799.462	823.6447	839.5832	933.9015	1038.3292	1048.0948	1056.4737	1105.9092	1220.7541	1245.5744	1269.0782	1338.1816	1404.2484	1439.3704	1493.8692	1568.2228	1620.3376	1650.3222	1747.2341	3057.6689	3270.8779	3521.1113	3541.5259	3639.3222	3695.6499
NC1=NNC=C1OC=N	Nc1n[nH]cc1O[CH][NH]	
InChI=1S/C4H6N4O/c5-2-9-3-1-7-8-4(3)6/h1-2,5H,(H3,6,7,8)	InChI=1S/C4H6N4O/c5-2-9-3-1-7-8-4(3)6/h1-2,5H,(H3,6,7,8)
