15
gdb 123360	7.15136	0.77191	0.73214	2.4879	73.33	-0.2794	-0.0298	0.2496	1475.0734	0.113274	-412.940031	-412.931902	-412.930958	-412.974206	28.477	
C	-0.0065208629	-1.1893410929	-0.0134092819	-0.426971
C	-0.0307402236	 0.0115450899	-0.0345290311	 0.288581
C	-0.0169318002	 1.4670146451	-0.0567487737	-0.352884
C	 1.4212489775	 2.0135423312	 0.0461811272	-0.142616
N	 1.4405975664	 3.4665696825	 0.0127506158	 0.146965
N	 1.1655777517	 4.1746649207	-1.0767408976	-0.251436
C	 1.269576734	 5.4135958167	-0.6125549034	 0.079003
N	 1.5908900305	 5.455804044	 0.6999024551	-0.206105
N	 1.6938254536	 4.2082554469	 1.0855173431	-0.124613
H	-0.0029921129	-2.2512299037	 0.0043406353	 0.205569
H	-0.4700255892	 1.8400872529	-0.9820291512	 0.161376
H	-0.6106306388	 1.8665433578	 0.7739380728	 0.152671
H	 1.8849397964	 1.7213427195	 0.9885161193	 0.164856
H	 2.0289634699	 1.6446624093	-0.7823483384	 0.155629
H	 1.1178195078	 6.2890478002	-1.2226492612	 0.149974
47.3026	64.4391	95.3272	178.2756	326.3749	358.0616	383.8352	472.2082	631.8961	664.0983	706.1876	727.8662	778.5946	785.9439	903.7301	975.843	1026.0079	1030.7895	1035.9302	1047.6769	1146.2718	1163.8389	1246.3726	1283.6579	1308.1355	1320.1062	1356.3484	1393.7808	1402.9152	1473.6522	1484.4978	1495.4061	2244.5374	3038.8126	3078.1395	3093.2962	3157.7003	3288.0633	3505.6322
C#CCCN1N=CN=N1	C#CCCn1ncnn1	
InChI=1S/C5H6N4/c1-2-3-4-9-7-5-6-8-9/h1,5H,3-4H2	InChI=1S/C5H6N4/c1-2-3-4-9-7-5-6-8-9/h1,5H,3-4H2
