21
gdb 39502	2.33179	1.7535	1.20019	1.5674	78.18	-0.2308	0.0805	0.3114	1090.9456	0.185241	-424.196381	-424.188505	-424.187561	-424.228499	31.586	
C	 0.0442921128	 1.4979230307	 0.1092306251	-0.308123
C	 1.3770780376	 0.7846848271	 0.04985764	-0.041453
C	 2.2772281793	 0.8554708016	 1.2659938473	-0.079301
O	 3.1002154694	-0.2880835043	 1.4834023179	-0.260946
C	 2.4351076965	-1.531904495	 1.5282726725	-0.078206
C	 1.3102478967	-1.6401353352	 2.5588935063	-0.089035
O	 0.1952552373	-0.7850281307	 2.3488842668	-0.240195
C	-0.4403179443	-0.9283334061	 1.0924992734	-0.116283
C	 0.0781597035	-0.0021256768	-0.0023905436	-0.003548
H	-0.2313254399	 1.9172137077	 1.0725697344	 0.121369
H	-0.2866311243	 2.0808269038	-0.7431531929	 0.109973
H	 1.9124253993	 0.8353767605	-0.8948617027	 0.087725
H	 2.9872952453	 1.6786781464	 1.1308161812	 0.101893
H	 1.679982889	 1.0717680463	 2.1575808049	 0.107876
H	 2.0580574315	-1.8153130009	 0.5341529499	 0.09405
H	 3.2027452161	-2.2662288934	 1.7992685875	 0.106028
H	 0.9772894362	-2.6925685916	 2.5841714144	 0.088896
H	 1.6913882023	-1.3800420004	 3.5516438048	 0.115454
H	-0.3641548223	-1.9718205364	 0.7486033454	 0.089381
H	-1.5050422903	-0.7260954244	 1.2637880095	 0.109611
H	-0.1612045317	-0.386517529	-0.9920888821	 0.084833
101.0428	218.6141	256.4838	259.7167	279.3747	329.1742	407.199	419.4533	512.5944	557.3941	658.358	741.2963	803.1277	823.2443	859.1157	871.2074	903.1396	969.0926	988.5997	1021.123	1038.6816	1065.3569	1073.561	1127.765	1134.8221	1143.8582	1151.8534	1166.4609	1192.5694	1242.6857	1282.5976	1297.7964	1327.1289	1336.8712	1370.6389	1392.8151	1404.3728	1414.7812	1424.0158	1440.7448	1481.0068	1488.9532	1495.229	1501.1663	1505.0798	2957.0721	2978.7272	2996.243	3038.5698	3042.2915	3060.7779	3077.0244	3083.2078	3120.1253	3125.9171	3139.5757	3211.5764
C1C2COCCOCC12	C1[C@H]2COCCOC[C@@H]12	
InChI=1S/C7H12O2/c1-2-9-5-7-3-6(7)4-8-1/h6-7H,1-5H2	InChI=1S/C7H12O2/c1-2-9-5-7-3-6(7)4-8-1/h6-7H,1-5H2/t6-,7+
