21
gdb 81482	3.11992	1.47609	1.39696	1.6491	80.66	-0.2426	0.0837	0.3262	1052.3172	0.184981	-387.055684	-387.04837	-387.047425	-387.086975	30.54	
C	 0.0169889343	 1.6415301082	-0.0525814728	-0.424149
C	-0.0159703125	 0.119749785	-0.0815299424	 0.016102
C	 1.2274492509	-0.5531635864	-0.7192900576	 0.052718
O	 1.9470084921	-0.3081638387	 0.5387601772	-0.305798
C	 0.6340679024	-0.5757415278	 1.1429648618	 0.052717
C	 0.5107474765	-2.0923263404	 0.8820848018	-0.006868
C	-0.8506958219	-2.7037275363	 0.4373770376	-0.247764
C	-0.376883054	-2.685696158	-1.0496445489	-0.247764
C	 0.9865827333	-2.0742197586	-0.6112824415	-0.006869
H	 0.9989223555	 2.0003237119	 0.2646775516	 0.136614
H	-0.1992547328	 2.0552612334	-1.0436321101	 0.110928
H	-0.7356201124	 2.0348591545	 0.6395066942	 0.110927
H	-0.9990082286	-0.2367069867	-0.3990830273	 0.068408
H	 1.728757882	-0.1510319757	-1.6011680228	 0.0719
H	 0.530027714	-0.1966430294	 2.160898425	 0.0719
H	 1.0891293269	-2.6726504461	 1.6018432494	 0.073886
H	-1.0208829739	-3.7098557796	 0.8271011802	 0.100805
H	-1.7352236531	-2.1026690587	 0.6659872687	 0.098807
H	-0.2832096904	-3.6817849755	-1.4880216625	 0.100805
H	-0.9703553948	-2.0735633339	-1.7344844363	 0.098807
H	 1.8787749865	-2.6426049013	-0.8763961552	 0.073885
190.1225	202.6472	226.2047	268.6636	332.0548	358.9915	523.3063	564.2841	644.9524	742.5044	744.2527	798.8587	835.0067	845.8516	859.5139	871.4752	920.8906	928.6488	960.7929	1000.1507	1004.9147	1021.5388	1048.7361	1073.525	1075.2121	1091.539	1121.6279	1180.328	1186.2546	1218.1569	1234.0976	1243.8234	1246.4155	1258.2758	1281.1905	1281.5051	1304.6633	1319.7397	1333.1214	1403.4504	1408.3165	1475.5291	1492.7243	1494.6597	1507.1881	3032.5947	3054.5302	3059.8352	3074.1373	3089.7945	3090.3506	3100.2533	3100.8519	3108.7025	3112.1781	3120.4161	3127.8611
CC1C2OC1C1CCC21	C[C@H]1[C@H]2O[C@@H]1[C@H]1CC[C@@H]21	
InChI=1S/C8H12O/c1-4-7-5-2-3-6(5)8(4)9-7/h4-8H,2-3H2,1H3	InChI=1S/C8H12O/c1-4-7-5-2-3-6(5)8(4)9-7/h4-8H,2-3H2,1H3/t4-,5+,6-,7+,8-
