17
gdb 20170	3.3469	2.87908	2.05136	0.6876	66.26	-0.2156	0.062	0.2776	712.9766	0.145582	-363.821571	-363.81577	-363.814826	-363.851428	23.689	
C	 0.026660374	 1.4632348468	-0.3171098249	-0.191213
C	 1.5339536796	 1.5020581163	-0.0139178753	 0.10408
O	 1.7826035275	 1.7915210826	 1.376795122	-0.312997
C	 1.6744802077	 0.3854521042	 1.7516749608	 0.124934
C	 0.3802454846	 0.0631081773	 2.5056417735	-0.249978
C	-0.6567272663	-0.2674185658	 1.3833755291	-0.173507
N	-0.0308537827	 0.0162500448	 0.0830864063	-0.099595
C	 1.4464383989	-0.0096462682	 0.2767400107	-0.077722
H	-0.5730934627	 2.1482992099	 0.2921607536	 0.105066
H	-0.2358864999	 1.5892560461	-1.3734346532	 0.104278
H	 2.2279328081	 2.0152297252	-0.6814591336	 0.080259
H	 2.5865283777	 0.0537005158	 2.2572911409	 0.078265
H	 0.5204432259	-0.7862456976	 3.1816459418	 0.100697
H	 0.0895900848	 0.924594292	 3.1125305717	 0.118759
H	-0.9258450929	-1.32917982	 1.4238133648	 0.104131
H	-1.5857543555	 0.3018629148	 1.4757816433	 0.108741
H	 1.9997905913	-0.8227613942	-0.1926752417	 0.075802
104.8625	339.9271	349.2329	428.7198	618.6324	670.1718	714.8638	763.4917	824.0592	835.886	867.1114	880.6913	923.4328	926.2749	977.0389	991.2357	1004.5925	1034.7174	1055.517	1095.0744	1105.4328	1192.5537	1205.454	1215.7375	1220.5811	1244.8934	1259.8715	1284.8467	1290.8652	1312.3301	1327.8491	1345.065	1357.4954	1476.2593	1489.012	1508.7558	3025.4036	3034.2396	3050.868	3064.985	3078.8063	3087.1263	3096.5349	3109.5256	3113.1723
C1C2OC3CCN1C23	C1[C@H]2O[C@H]3CCN1[C@@H]23	
InChI=1S/C6H9NO/c1-2-7-3-5-6(7)4(1)8-5/h4-6H,1-3H2	InChI=1S/C6H9NO/c1-2-7-3-5-6(7)4(1)8-5/h4-6H,1-3H2/t4-,5+,6+/m0/s1
