16
gdb 74688	3.33682	1.37282	1.16191	1.7552	70.	-0.2437	-0.0431	0.2006	1073.0377	0.123972	-437.912522	-437.904766	-437.903822	-437.945362	28.788	
C	-0.079557299	 1.5140336735	 0.216384581	-0.47368
C	-0.0760694215	 0.0338846566	 0.056017765	 0.398546
N	-1.034952833	-0.7640244706	 0.3088649558	-0.299445
C	-0.5711942459	-2.1137884816	-0.0114063278	-0.031754
C	-1.049193172	-2.6317787179	-1.3994592309	-0.354332
C	 0.3472279142	-2.301180529	-1.9657897283	 0.378203
O	 0.837315251	-2.3387996545	-3.0528338168	-0.273451
C	 0.8793958776	-1.8893139777	-0.5575916951	-0.036705
O	 1.110192435	-0.4863972001	-0.4017569608	-0.251836
H	 0.7297269724	 1.8222287645	 0.8853987793	 0.150269
H	 0.094086381	 1.9992013985	-0.7491363595	 0.152609
H	-1.0374433018	 1.8365221668	 0.6223619047	 0.155577
H	-0.726388856	-2.7950184718	 0.8264245059	 0.092144
H	-1.2754404104	-3.7024576603	-1.4427078871	 0.13702
H	-1.8787910708	-2.0767448386	-1.8456022825	 0.145262
H	 1.7358101091	-2.4483411477	-0.1758281429	 0.111574
56.6091	129.2942	163.4378	225.7435	329.2091	397.9537	421.5903	525.8876	600.7948	638.9072	670.1567	758.9838	786.6211	847.93	902.9712	917.9067	962.1125	1012.6796	1039.9094	1066.4367	1079.2803	1093.2886	1121.2498	1171.086	1220.3163	1240.6716	1281.1389	1307.4864	1331.7598	1411.6519	1424.8437	1474.3523	1475.0645	1724.59	1900.7095	3053.048	3055.2442	3095.1732	3104.8974	3111.407	3116.0716	3168.7864
CC1=NC2CC(=O)C2O1	CC1=N[C@H]2CC(=O)[C@H]2O1	
InChI=1S/C6H7NO2/c1-3-7-4-2-5(8)6(4)9-3/h4,6H,2H2,1H3	InChI=1S/C6H7NO2/c1-3-7-4-2-5(8)6(4)9-3/h4,6H,2H2,1H3/t4-,6-/m0/s1
