19
gdb 19613	3.75616	1.94677	1.63691	1.6749	74.17	-0.2318	0.0888	0.3207	877.2636	0.166061	-327.864857	-327.857565	-327.856621	-327.895893	28.873	
C	-0.1562540771	 1.4625333994	 0.0176173751	-0.410676
C	 0.042290347	-0.0500205193	-0.0006670991	 0.004363
C	 0.935242208	-0.5207499825	-1.1528133172	-0.03963
C	 2.157042304	-0.4208015693	-0.3217222148	-0.052133
C	 1.1930130084	-0.5441982983	 0.9225099329	-0.101473
C	 1.271575118	-2.0627395163	 0.6507854506	 0.08523
C	 0.0952090343	-3.0030257861	 0.8447137072	-0.420928
N	 1.6966899385	-1.7643492095	-0.7651089291	-0.168356
H	 0.7998441585	 1.9893401013	-0.0742160963	 0.118039
H	-0.7970436611	 1.7871651493	-0.809509342	 0.114804
H	-0.632124743	 1.782894809	 0.9506200087	 0.114113
H	-0.9247488199	-0.5500732655	 0.1224129331	 0.063228
H	 0.8132593284	-0.3544810132	-2.215848599	 0.092117
H	 3.152323806	-0.0312430969	-0.488836457	 0.094008
H	 1.3228230938	-0.1186242026	 1.9173793396	 0.064973
H	 2.1573534746	-2.4795788632	 1.1433758406	 0.077881
H	-0.8011615	-2.669295491	 0.3167816056	 0.123005
H	 0.3506377323	-3.9985810935	 0.4676009807	 0.126846
H	-0.1488008307	-3.0971996017	 1.9088369804	 0.114589
155.4134	202.5445	220.163	246.61	287.1372	326.0012	525.1015	562.8522	691.6624	739.5142	788.1969	802.0041	833.6714	880.0679	888.9594	913.5908	940.9328	995.0379	1022.7665	1035.7505	1060.3557	1088.3939	1106.5341	1124.2734	1134.8373	1158.2612	1176.0749	1206.4268	1237.8213	1275.6318	1283.5736	1332.2615	1380.1877	1395.5244	1409.045	1411.3152	1483.8418	1494.0578	1498.5466	1501.366	3026.8427	3035.0694	3039.6016	3043.3915	3092.6091	3099.2313	3101.4731	3116.2166	3122.778	3191.2492	3207.4245
CC1C2C3C1C(C)N23	C[C@H]1[C@H]2[C@H]3[C@@H]1[C@@H](C)N23	
InChI=1S/C7H11N/c1-3-5-4(2)8-6(3)7(5)8/h3-7H,1-2H3	InChI=1S/C7H11N/c1-3-5-4(2)8-6(3)7(5)8/h3-7H,1-2H3/t3-,4-,5+,6+,7-,8?/m1/s1
