20
gdb 118282	5.31129	0.53505	0.50314	4.5982	76.95	-0.2721	0.0389	0.311	2099.5915	0.168895	-440.296296	-440.285537	-440.284593	-440.333263	37.409	
O	-0.0659529282	 1.4620318061	 0.0747128979	-0.421309
C	 0.0408155258	 0.047082195	 0.0592467307	-0.076087
C	-1.3718322835	-0.5174012322	-0.0376949544	-0.198911
C	-1.4101572692	-2.0469194077	-0.033642067	 0.109846
O	-0.8020169521	-2.5911525827	 1.1389330788	-0.429509
C	-2.8354398745	-2.5848657977	-0.2168233416	-0.201836
C	-2.8601120294	-4.1250791807	-0.2424930605	-0.341062
C	-4.2136437025	-4.6658681383	-0.3247337486	 0.254908
N	-5.2920427691	-5.0765574257	-0.3887010693	-0.307152
H	 0.8169897564	 1.829137102	 0.1756368402	 0.287973
H	 0.6363638806	-0.3011176694	-0.8009572985	 0.086425
H	 0.528491547	-0.3345603367	 0.9672453107	 0.097823
H	-1.9654658015	-0.1310644768	 0.8026389094	 0.100983
H	-1.8443199899	-0.1377044262	-0.9509563715	 0.113336
H	-0.7852729941	-2.423708876	-0.8550822585	 0.091995
H	-1.2490715961	-2.2108503595	 1.9045058224	 0.282465
H	-3.4698330103	-2.2235627384	 0.6023696631	 0.113444
H	-3.2639314305	-2.1898012006	-1.1438060974	 0.1229
H	-2.2826050166	-4.4988121865	-1.0963503655	 0.149724
H	-2.3709456623	-4.509591898	 0.6578654595	 0.164043
51.9098	74.8188	80.8754	107.396	142.6205	183.9069	262.3757	271.0218	315.3734	338.4617	385.4286	398.1902	467.9122	542.872	592.7908	768.4556	800.0383	891.6476	945.8995	975.1585	997.3072	1046.6816	1060.7938	1084.3933	1104.0867	1117.3018	1176.0606	1209.6871	1235.036	1269.8939	1291.2315	1303.885	1322.7607	1358.3311	1371.8341	1394.9574	1419.4806	1460.6398	1469.4245	1482.0763	1492.4485	1531.0023	2362.0182	2965.4048	3013.0998	3017.0877	3023.0096	3036.0956	3048.8656	3071.9114	3082.4977	3100.9528	3787.341	3831.7992
OCCC(O)CCC#N	OCC[C@@H](O)CCC#N	
InChI=1S/C6H11NO2/c7-4-1-2-6(9)3-5-8/h6,8-9H,1-3,5H2	InChI=1S/C6H11NO2/c7-4-1-2-6(9)3-5-8/h6,8-9H,1-3,5H2/t6-/m0/s1
