17
gdb 55838	4.9794	0.81825	0.76097	2.9503	70.07	-0.2492	-0.0279	0.2213	1474.7705	0.132655	-459.009587	-459.00031	-458.999365	-459.045458	32.383	
C	 0.1406071958	 1.4304790356	-0.1035590042	-0.479336
C	 0.0826914802	-0.0377085746	 0.2370708033	 0.426013
O	 0.8945697	-0.6466957756	 0.8850516986	-0.348703
O	-1.0273313124	-0.6085739883	-0.2927770306	-0.250013
C	-1.1745228325	-2.0089451299	-0.0562155602	 0.140492
C	-1.7428565561	-2.4199431722	 1.3314240294	-0.358791
C	-2.8268768257	-3.2117123882	 0.580127899	 0.393393
O	-3.62740674	-4.0387196401	 0.90164517	-0.281073
C	-2.4204903262	-2.5874504596	-0.7684275069	-0.379496
H	 0.1731360434	 1.5615448396	-1.1889933491	 0.153046
H	-0.7594342942	 1.9361568063	 0.2571967571	 0.151165
H	 1.0257509162	 1.8733255575	 0.3509384739	 0.151841
H	-0.2401588606	-2.5176345156	-0.2950523144	 0.114672
H	-1.0917626973	-2.9785049996	 2.0059892188	 0.145548
H	-2.1681877951	-1.5666513764	 1.8705714358	 0.139338
H	-3.1161227634	-1.7976227705	-1.071006925	 0.145439
H	-2.2682996619	-3.2702112985	-1.6068789453	 0.136464
46.0303	49.6312	64.167	112.3245	182.7293	314.3445	337.8458	414.7018	451.1622	489.446	597.4486	609.6406	652.0892	694.5444	778.3885	895.8775	925.9175	941.9297	998.0806	1021.0783	1056.8326	1065.6504	1107.834	1112.9805	1180.1275	1200.5243	1239.1719	1258.7222	1268.9196	1382.2525	1400.6873	1417.0818	1441.7236	1468.9435	1475.7033	1826.2214	1901.7344	3057.7853	3060.0979	3064.9171	3107.9914	3122.3188	3128.0585	3134.2809	3171.0735
CC(=O)OC1CC(=O)C1	CC(=O)OC1CC(=O)C1	
InChI=1S/C6H8O3/c1-4(7)9-6-2-5(8)3-6/h6H,2-3H2,1H3	InChI=1S/C6H8O3/c1-4(7)9-6-2-5(8)3-6/h6H,2-3H2,1H3
