16
gdb 29172	2.27169	1.8285	1.01964	6.3405	76.08	-0.1931	-0.0134	0.1797	1111.8838	0.12432	-434.112265	-434.103583	-434.102639	-434.145836	31.48	
C	-0.0315800664	 1.493999557	 0.0789575803	-0.501675
C	-0.0004115042	 0.0083051606	-0.0124788101	 0.319011
C	 0.0052445055	-0.7770848226	-1.1000642619	-0.173011
N	 0.0045237178	-2.1099534356	-0.6941325157	-0.37352
C	 0.046342872	-2.2111027973	 0.6933726867	 0.450934
N	 0.0962500757	-3.2238711051	 1.4604273016	-0.549641
N	 0.0174666603	-0.8524503969	 1.1217506564	-0.18164
C	 0.0065689243	-0.4082206774	 2.4408854639	 0.159057
O	 0.0206079866	-1.0962677512	 3.425129938	-0.270317
H	 0.8428806614	 1.8991595482	 0.6019500585	 0.142087
H	-0.0388261676	 1.912090203	-0.9305601077	 0.136802
H	-0.9235115265	 1.8631518069	 0.5994042061	 0.142086
H	-0.0106957681	-0.4995984112	-2.1406626316	 0.144179
H	 0.1279099826	-2.9044069271	-1.2946287777	 0.26126
H	 0.103488607	-4.0850872222	 0.9162083368	 0.20721
H	-0.0189055004	 0.6957231809	 2.4766723065	 0.087178
61.3728	129.8792	166.2461	227.1457	239.2507	264.3791	299.6502	356.7357	466.3507	528.8803	596.3853	610.8476	724.925	751.327	758.5965	779.0014	799.2489	1002.5403	1013.7474	1048.0797	1068.3622	1076.4888	1110.5723	1230.2515	1298.427	1324.8037	1396.9461	1419.9473	1423.7407	1464.1309	1474.903	1499.4912	1713.0297	1743.8947	1839.1929	2971.663	3022.7679	3069.4973	3120.3285	3278.1377	3497.5523	3701.4326
CC1=CNC(=N)N1C=O	CC1=CN[C@H]([NH])N1C=O	
InChI=1S/C5H7N3O/c1-4-2-7-5(6)8(4)3-9/h2-3H,1H3,(H2,6,7)	InChI=1S/C5H8N3O/c1-4-2-7-5(6)8(4)3-9/h2-3,5-7H,1H3/t5-/m0/s1
