16
gdb 28059	5.52405	0.95173	0.81599	3.049	75.49	-0.2005	0.0138	0.2142	1353.9553	0.125706	-434.145608	-434.137114	-434.13617	-434.179585	30.462	
C	-0.0287240055	 1.4995916739	-0.0507008021	-0.49968
C	 0.0028614362	 0.0085195158	-0.0174474088	 0.353612
N	-0.0318173932	-0.7852632803	-1.0710956521	-0.369222
C	 0.0166285296	-2.0612473282	-0.5705028866	 0.353643
N	-0.0055396671	-3.1321340395	-1.4655093572	-0.391007
C	 0.0372497248	-4.4483591046	-1.1232444718	 0.13766
O	 0.1002220605	-4.8710494197	 0.0132432819	-0.319468
C	 0.0822012013	-2.0636523336	 0.7978789871	-0.179981
N	 0.0723684379	-0.7195561987	 1.1315296297	-0.277271
H	 0.8659554688	 1.9375378346	 0.4065721569	 0.133797
H	-0.0770980861	 1.8243792432	-1.0906137159	 0.157682
H	-0.9010535843	 1.9017595919	 0.4772738042	 0.134108
H	-0.0570687533	-2.8756422064	-2.4398589805	 0.260981
H	 0.0074346572	-5.1031859634	-2.0147844624	 0.080055
H	 0.1322963722	-2.8594223869	 1.5160004445	 0.160525
H	 0.1101937212	-0.3509998082	 2.066812493	 0.264566
51.004	69.7923	161.1734	200.0877	260.342	274.7844	403.6266	421.3326	521.6954	584.5951	589.7357	664.5028	711.8253	720.159	742.6392	875.6808	973.0818	1010.0136	1011.9625	1045.5937	1061.8154	1103.9287	1162.6694	1258.6913	1280.5185	1367.6538	1412.9121	1427.4358	1448.0311	1482.5225	1505.6907	1524.1966	1594.0054	1626.5258	1791.2078	2952.6289	3031.2	3080.3406	3149.6204	3327.2478	3628.7241	3667.3142
CC1=NC(NC=O)=CN1	Cc1nc(NC=O)c[nH]1	
InChI=1S/C5H7N3O/c1-4-6-2-5(8-4)7-3-9/h2-3H,1H3,(H,6,8)(H,7,9)	InChI=1S/C5H7N3O/c1-4-6-2-5(8-4)7-3-9/h2-3H,1H3,(H,6,8)(H,7,9)
