18
gdb 11359	4.52557	1.25761	1.05754	2.8704	74.57	-0.2384	-0.0141	0.2243	1137.1011	0.153146	-347.847913	-347.839795	-347.838851	-347.88102	29.872	
C	 0.0447517011	 1.5325385296	 0.2276072145	-0.375833
C	-0.0383496589	 0.033859586	-0.1126283761	-0.285911
C	-1.4333334713	-0.5164261554	-0.0709225859	 0.336986
C	-2.1181816936	-1.0255272365	-1.101519277	-0.183193
C	-3.4943216792	-1.5024713732	-0.7313511114	-0.365844
C	-3.5693136722	-1.2156705746	 0.7775823592	 0.396176
O	-4.4996728223	-1.4598664299	 1.4988745262	-0.302234
C	-2.2446953071	-0.5627632106	 1.2036871508	-0.419591
H	 1.0793724069	 1.8839990233	 0.1731640854	 0.117528
H	-0.5529691236	 2.1255200197	-0.4717086922	 0.121836
H	-0.3216805295	 1.7367565938	 1.2385000205	 0.121085
H	 0.3857947588	-0.1393457169	-1.1082021289	 0.10345
H	 0.5915157897	-0.5226992989	 0.5960263446	 0.104803
H	-1.728063812	-1.099083092	-2.1112840792	 0.091946
H	-4.3051892969	-0.97407094	-1.2504959548	 0.135099
H	-3.6630291105	-2.571303563	-0.9179231374	 0.134792
H	-1.7726014298	-1.1532926519	 2.0005387323	 0.132786
H	-2.4439344996	 0.4247371106	 1.6397131594	 0.136121
63.114	74.5251	164.4478	213.2164	293.0101	343.065	456.9264	485.5004	493.1127	564.6954	669.131	781.9781	790.7027	808.9889	855.76	869.6925	967.4315	990.6181	1000.0084	1066.8609	1089.0463	1127.5755	1128.8465	1181.2298	1190.2996	1266.0818	1282.5569	1290.0095	1355.6821	1363.727	1408.2129	1440.1676	1446.5033	1478.2308	1499.4553	1507.6467	1709.5752	1853.9932	3006.4258	3020.4599	3023.6982	3038.0663	3047.3768	3050.7864	3059.4771	3109.6433	3111.2201	3184.6136
CCC1=CCC(=O)C1	CCC1=CCC(=O)C1	
InChI=1S/C7H10O/c1-2-6-3-4-7(8)5-6/h3H,2,4-5H2,1H3	InChI=1S/C7H10O/c1-2-6-3-4-7(8)5-6/h3H,2,4-5H2,1H3
