16
gdb 20873	6.81718	1.08831	1.00642	2.0934	66.4	-0.2837	-0.0215	0.2622	1172.3185	0.131283	-379.936144	-379.928454	-379.92751	-379.969608	26.762	
C	-0.0105335722	 1.5280511109	-0.1256999993	-0.383927
C	-0.0623397237	 0.0023712275	-0.2226059114	-0.171668
C	-1.4182870796	-0.563223694	 0.2484214797	-0.300854
C	-1.4843250071	-2.0477945276	 0.1599872417	 0.427314
N	-1.4689946433	-2.9232605021	 1.1240176293	-0.31259
C	-1.5228338729	-4.1071929712	 0.4310922294	 0.036946
N	-1.5683997288	-3.9955918553	-0.8670697678	-0.115068
O	-1.5424568349	-2.6074081664	-1.0581730619	-0.197948
H	 0.9582268407	 1.9087734629	-0.4618220145	 0.121659
H	-0.7852784742	 1.9918048705	-0.7460306481	 0.12034
H	-0.1631347312	 1.86613619	 0.9049667599	 0.121139
H	 0.1166997566	-0.3161663609	-1.2553535901	 0.121269
H	 0.7361843978	-0.4398772166	 0.3841386754	 0.116456
H	-1.6047142114	-0.2897328124	 1.2900765096	 0.139002
H	-2.2236298959	-0.1349555982	-0.3597070019	 0.131983
H	-1.5300169198	-5.0762121173	 0.9088314201	 0.145946
31.6707	86.9995	119.0477	240.4539	308.6083	331.258	377.6946	657.1867	701.3157	746.5517	794.9221	873.7138	901.5156	920.3368	932.0098	980.3	1021.5045	1044.1716	1092.3822	1110.9768	1191.4334	1235.9292	1268.2182	1304.1038	1317.685	1350.6315	1381.8898	1414.3794	1471.5236	1493.1057	1498.0182	1509.1356	1518.1401	1621.1089	3032.9701	3037.4278	3049.3471	3072.2837	3100.4139	3110.4819	3115.3221	3260.378
CCCC1=NC=NO1	CCCc1ncno1	
InChI=1S/C5H8N2O/c1-2-3-5-6-4-7-8-5/h4H,2-3H2,1H3	InChI=1S/C5H8N2O/c1-2-3-5-6-4-7-8-5/h4H,2-3H2,1H3
