17
gdb 18797	3.46511	2.37749	2.11068	2.396	66.38	-0.2027	0.0678	0.2705	730.4483	0.144583	-363.791858	-363.785627	-363.784683	-363.821845	25.426	
O	-0.0841222441	 1.4620057546	-0.005169106	-0.429215
C	-0.0151971733	 0.0566937785	 0.0448067344	 0.133586
C	 0.3223375711	-0.6554589186	 1.3890481059	-0.110144
C	-0.4931765691	-0.0870229757	 2.5625305751	-0.171184
N	-1.7356583886	-0.8197190637	 2.1353391661	-0.149118
C	-2.3895795353	-0.0936092172	 0.9907696107	-0.172012
C	-1.382831398	-0.6566711847	-0.0280810198	-0.079824
C	-0.8960640343	-1.5958756606	 1.1235981372	 0.005454
H	 0.8095199643	 1.8161638834	 0.0465648456	 0.2849
H	 0.6405954292	-0.3407884525	-0.7440297677	 0.0686
H	 1.3538720569	-0.9717540248	 1.5535388552	 0.059913
H	-0.1592275186	-0.4649112263	 3.5342389919	 0.101118
H	-0.5968685054	 1.0015101293	 2.6187403325	 0.105123
H	-3.3996070716	-0.4879015805	 0.8398299735	 0.101908
H	-2.4432042288	 0.9933623063	 1.1002268482	 0.115449
H	-1.7376486762	-0.9693526753	-1.0105439508	 0.06668
H	-0.9037419682	-2.6846637322	 1.133230708	 0.068765
180.1399	234.0314	266.9506	418.5797	449.291	557.5017	602.7053	689.466	773.1868	807.5093	832.2858	863.8555	901.4541	938.8137	973.8255	981.4438	985.7359	1013.6696	1044.1118	1086.3679	1146.5046	1150.0398	1173.4794	1188.2969	1194.1968	1204.0971	1217.8302	1231.8935	1269.4783	1298.6789	1317.4526	1334.6583	1350.9508	1418.9444	1487.4609	1506.6109	2986.5986	3035.3995	3042.2333	3083.5902	3089.0057	3095.6365	3100.0861	3124.4372	3816.1184
OC1C2CN3CC1C23	O[C@H]1[C@H]2CN3C[C@@H]1[C@@H]23	
InChI=1S/C6H9NO/c8-6-3-1-7-2-4(6)5(3)7/h3-6,8H,1-2H2	InChI=1S/C6H9NO/c8-6-3-1-7-2-4(6)5(3)7/h3-6,8H,1-2H2/t3-,4+,5+,6-
