17
gdb 52540	2.88466	0.84761	0.70905	2.2044	81.94	-0.2482	-0.0644	0.1838	1618.3185	0.131374	-421.84068	-421.829983	-421.829039	-421.8807	35.181	
C	-0.5600605933	 0.9541532726	-0.6639246199	-0.501805
C	-0.1459602027	-0.3164469812	-0.0970588345	 0.068688
C	 0.1863775279	-1.3768822562	 0.374901318	 0.076138
C	 0.5917881564	-2.6436589224	 0.930482521	 0.197559
O	 0.0273658172	-3.1539482755	 1.8774227209	-0.289702
C	 1.7614129547	-3.3342804069	 0.224177994	-0.383711
C	 1.2258644868	-4.4580512319	-0.6857337143	 0.378838
C	 0.7816272599	-5.7182561774	 0.0236273037	-0.481136
O	 1.1740041249	-4.3128100609	-1.8817586692	-0.283485
H	 0.2986639702	 1.5192569131	-1.0409165674	 0.162558
H	-1.2446294739	 0.7893936275	-1.5034288008	 0.169672
H	-1.0803750295	 1.5690308826	 0.0775031838	 0.164336
H	 2.3218862009	-2.6311644941	-0.3917153975	 0.13285
H	 2.3988362384	-3.7659078392	 1.0018568373	 0.136099
H	 1.6675869679	-6.2541647706	 0.3862039523	 0.142808
H	 0.1804915877	-5.4697948588	 0.903203108	 0.16938
H	 0.2301366466	-6.3612762007	-0.6631034953	 0.140913
6.3621	22.6602	54.7921	108.9067	138.2357	161.5882	177.4213	297.7075	347.1023	388.785	432.4041	499.4346	533.402	592.2627	639.4023	746.6365	824.3876	895.711	966.225	1038.3268	1042.2203	1051.7738	1053.8504	1134.2181	1194.144	1241.4492	1288.6556	1386.0284	1408.8547	1457.1435	1467.1575	1469.62	1472.8178	1473.677	1744.8715	1822.6667	2337.8279	3033.5944	3037.0566	3064.8737	3097.4966	3103.0168	3105.1305	3148.8949	3157.7091
CC#CC(=O)CC(C)=O	CC#CC(=O)CC(=O)C	
InChI=1S/C7H8O2/c1-3-4-7(9)5-6(2)8/h5H2,1-2H3	InChI=1S/C7H8O2/c1-3-4-7(9)5-6(2)8/h5H2,1-2H3
