25
gdb 118074	3.36906	0.71234	0.61582	0.6237	86.46	-0.2485	0.0796	0.3281	1875.4403	0.225707	-426.617021	-426.605065	-426.604121	-426.654755	42.415	
C	-0.1530842708	 1.3536546106	-0.0087342346	-0.237281
O	 0.0244903839	-0.0417618439	-0.0017004448	-0.246955
C	 0.7058365069	-0.5576917055	 1.1412624784	 0.145686
C	-0.2600627067	-0.6784138174	 2.3239743796	-0.411809
C	 1.3344725439	-1.896503629	 0.7012615436	 0.013424
C	 2.3104523675	-1.6662682238	-0.4634331673	-0.405477
C	 1.997176038	-2.6294273801	 1.8803014597	-0.181013
C	 2.6055707139	-3.9803501072	 1.5192738915	-0.085611
O	 3.0058099234	-4.6018443024	 2.7337129992	-0.422989
H	 0.807982504	 1.887386097	 0.0615875789	 0.1024
H	-0.6294467408	 1.6127774655	-0.9580543767	 0.124645
H	-0.7997767829	 1.707042252	 0.8082919404	 0.104282
H	 1.5212619084	 0.1366969399	 1.4120975363	 0.058383
H	-1.0137827924	-1.4478003834	 2.1269549338	 0.120426
H	 0.2641390416	-0.9315748955	 3.2487366803	 0.123045
H	-0.7798745869	 0.2684958859	 2.4948191495	 0.113422
H	 0.5026056442	-2.5151334716	 0.3338020762	 0.077702
H	 2.6315977678	-2.6092291828	-0.914662626	 0.109428
H	 1.8351132658	-1.0644919856	-1.239671103	 0.130109
H	 3.2095360655	-1.1386090935	-0.1210734395	 0.104722
H	 2.7815108614	-2.0003834335	 2.3225648051	 0.097727
H	 1.2648754939	-2.8178944484	 2.6711938883	 0.109918
H	 1.8578019302	-4.5926121834	 0.9871725144	 0.083194
H	 3.464064999	-3.8540090212	 0.8437346505	 0.088584
H	 3.4426581212	-5.4302799927	 2.5161785564	 0.284036
50.4547	80.811	89.2654	107.503	133.2304	188.7486	217.0797	242.8607	270.2749	284.0102	302.8434	322.7667	352.5214	394.9174	463.824	500.8195	560.556	793.2337	830.1171	868.1461	922.3671	970.43	987.9824	1013.618	1053.578	1068.6462	1107.5082	1127.4909	1146.3132	1173.337	1180.8968	1193.7425	1214.5594	1241.858	1252.7817	1302.3543	1320.6761	1340.7493	1365.5011	1372.7816	1392.2682	1402.3457	1407.505	1460.3934	1477.1378	1485.7155	1488.6184	1494.8496	1496.0624	1505.0165	1512.7085	1514.6709	1530.0338	2941.2091	2958.8352	2973.9742	3002.0429	3003.8018	3019.7543	3025.0248	3032.3957	3043.5975	3086.4557	3098.977	3106.3371	3112.1318	3123.7373	3136.4736	3830.7044
COC(C)C(C)CCO	CO[C@@H](C)[C@@H](C)CCO	
InChI=1S/C7H16O2/c1-6(4-5-8)7(2)9-3/h6-8H,4-5H2,1-3H3	InChI=1S/C7H16O2/c1-6(4-5-8)7(2)9-3/h6-8H,4-5H2,1-3H3/t6-,7-/m0/s1
