14
gdb 13298	5.2703	1.31059	1.16478	4.0242	62.66	-0.2631	-0.0011	0.262	1004.7287	0.108616	-378.752093	-378.744748	-378.743804	-378.784892	25.211	
N	-0.686961525	-0.3668685365	-1.1571927993	-0.299756
C	-0.2419922009	 0.3053127993	-0.3306209849	 0.268739
C	 0.3127620549	 1.1471313947	 0.730327384	-0.41496
C	 1.6167797939	 1.7901544784	 0.3443573182	 0.421263
N	 2.7056481575	 1.6651382984	 0.9794832682	-0.302693
C	 3.6912768312	 2.4921802477	 0.2619627502	-0.186579
C	 2.9135235575	 3.0695301227	-0.9507850719	-0.111861
O	 1.5646101619	 2.5727137355	-0.7602689113	-0.248069
H	-0.4181816728	 1.92833626	 0.9708544364	 0.175782
H	 0.4810247001	 0.5497551929	 1.6287347762	 0.186103
H	 4.0727313244	 3.2723229533	 0.9286525132	 0.124704
H	 4.5428377376	 1.8751387815	-0.039792244	 0.128358
H	 2.872311747	 4.1610073675	-0.9724442138	 0.127307
H	 3.2744626628	 2.7058254745	-1.9162144813	 0.131663
47.8898	96.2154	116.1442	257.1903	325.3368	380.9333	467.4343	611.5104	752.9233	770.9953	829.0168	905.2424	932.8026	948.5384	979.9686	1009.4464	1032.5848	1119.4524	1207.6074	1217.1997	1247.7358	1270.6016	1317.1378	1353.1041	1394.6196	1446.1225	1501.3766	1526.194	1748.3125	2372.6151	3049.4993	3051.5689	3065.6281	3081.714	3116.8154	3125.5117
N#CCC1=NCCO1	N#CCC1=NCCO1	
InChI=1S/C5H6N2O/c6-2-1-5-7-3-4-8-5/h1,3-4H2	InChI=1S/C5H6N2O/c6-2-1-5-7-3-4-8-5/h1,3-4H2
