13
gdb 130677	5.4255	1.30686	1.05318	1.7889	65.65	-0.1977	0.0201	0.2177	1022.2109	0.093083	-448.972716	-448.965661	-448.964716	-449.00424	26.367	
O	-0.0273426757	-0.0498464788	 0.0041981129	-0.408635
C	-0.0110935318	 1.1592448734	 0.0095995203	 0.430125
N	-1.1388106928	 2.0166632954	 0.0290425472	-0.486858
C	-0.700627737	 3.3216303102	 0.0301571961	 0.469577
C	 0.6746309067	 3.3453096642	 0.0113244568	 0.252187
N	 1.0911338168	 2.0117849254	-0.0016458344	-0.497617
C	 1.0204734794	 4.7070505437	 0.0133019906	-0.1186
N	-0.0801759216	 5.4682026412	 0.0322579157	-0.23911
N	-1.1335428038	 4.5977526283	 0.0424207485	-0.342051
H	-2.0739412934	 1.6511014263	 0.0416149092	 0.274135
H	 2.0270751161	 1.6488593779	-0.0148979048	 0.271786
H	 1.9907997802	 5.1781223938	 0.002304561	 0.117309
H	-2.0681522733	 4.9645932991	 0.0571454209	 0.277752
107.5457	148.7348	272.2453	330.6957	358.0911	403.504	450.577	569.1997	585.6808	650.3539	729.8997	748.7298	780.384	856.3932	868.0213	944.3242	983.0574	1062.9039	1130.831	1237.7376	1263.4894	1300.0755	1318.9527	1363.9331	1417.979	1527.5743	1599.618	1638.0307	1852.8987	3260.0174	3695.2844	3699.2015	3702.7727
O=C1NC2=C(N1)C=NN2	O=c1[nH]c2c([nH]1)cn[nH]2	
InChI=1S/C4H4N4O/c9-4-6-2-1-5-8-3(2)7-4/h1H,(H3,5,6,7,8,9)	InChI=1S/C4H4N4O/c9-4-6-2-1-5-8-3(2)7-4/h1H,(H3,5,6,7,8,9)
