17
gdb 33226	5.46345	0.81759	0.7454	2.7606	71.	-0.207	0.0456	0.2525	1491.8299	0.137121	-455.170606	-455.161995	-455.161051	-455.205152	31.093	
O	-0.0401556204	 1.4411558929	-0.0730798111	-0.418859
C	-0.0100538621	 0.0280798109	-0.0266888867	-0.068411
C	-1.4003177704	-0.5738032243	 0.0487173173	-0.073998
O	-2.069331335	-0.1905766748	-1.1670306361	-0.298265
C	-3.3505045247	-0.5742142044	-1.2603859013	 0.49462
N	-4.0490922204	-1.2640106066	-0.3991344218	-0.357294
C	-5.3004309602	-1.3849791053	-0.985128283	-0.091741
C	-5.3345727186	-0.7633034941	-2.1973222353	-0.108146
N	-4.0596242285	-0.2359637816	-2.3703467542	-0.336218
H	-0.6260155139	 1.6779780837	-0.8002642072	 0.288231
H	 0.5221708641	-0.3941844686	-0.8939563901	 0.094905
H	 0.5463424563	-0.2502658721	 0.8740886797	 0.117082
H	-1.3691148318	-1.6663260151	 0.1229001793	 0.12097
H	-1.9588112256	-0.182024072	 0.9044183658	 0.132751
H	-6.0963153141	-1.9166790248	-0.4873498373	 0.109054
H	-6.1051481274	-0.6395319058	-2.9388431541	 0.128724
H	-3.7130735573	 0.2845264421	-3.1574623041	 0.266595
37.6453	67.3279	132.919	177.842	287.9866	309.4414	380.3511	464.4889	471.037	491.8411	634.7585	684.5512	740.2648	749.4584	841.9635	886.3934	900.5075	930.3376	1014.8555	1056.4886	1083.2641	1099.5646	1127.6128	1137.787	1194.1196	1233.6439	1261.8934	1289.8087	1372.3926	1386.0683	1393.2898	1435.0729	1494.3469	1498.0525	1508.8048	1550.4827	1616.9708	2983.4307	3046.3466	3084.0686	3100.9548	3254.4917	3286.8538	3678.2201	3811.0792
OCCOC1=NC=CN1	OCCOc1ncc[nH]1	
InChI=1S/C5H8N2O2/c8-3-4-9-5-6-1-2-7-5/h1-2,8H,3-4H2,(H,6,7)	InChI=1S/C5H8N2O2/c8-3-4-9-5-6-1-2-7-5/h1-2,8H,3-4H2,(H,6,7)
