19
gdb 127427	2.35488	1.57992	0.96264	0.844	80.87	-0.1962	0.0336	0.2298	1235.9859	0.157683	-419.239508	-419.229139	-419.228195	-419.275189	35.81	
C	-0.0662051142	 1.3842256612	-0.0530119024	-0.325518
N	-0.0100503368	-0.0562116839	 0.0338916933	-0.022671
N	-0.0275626651	-0.794294203	-1.0927098555	-0.335321
C	 0.0353003909	-2.0651554322	-0.6882759247	 0.254865
C	 0.0385134485	-3.1990718326	-1.6631764888	-0.520531
C	 0.0930550903	-2.1241228118	 0.721326633	 0.093566
O	 0.165627401	-3.2175759374	 1.5397043818	-0.453413
C	 0.0626214998	-0.817386234	 1.1672293161	 0.300245
C	 0.0972552275	-0.2679503541	 2.5523770452	-0.514461
H	 0.8252743674	 1.8451965202	 0.3867602441	 0.132871
H	-0.1174909955	 1.6399354397	-1.1108469982	 0.159239
H	-0.9514162654	 1.7801473941	 0.4571588599	 0.132867
H	 0.9484127445	-3.807769248	-1.5842202864	 0.121434
H	-0.8178523166	-3.8700176691	-1.5177840995	 0.121522
H	-0.0136200636	-2.8063731529	-2.6808268751	 0.147406
H	 0.1722008576	-4.0081876527	 0.9924143179	 0.296905
H	 0.9661907601	 0.3796419435	 2.7222766495	 0.129668
H	-0.7986210802	 0.3184914541	 2.790583868	 0.129622
H	 0.1534699198	-1.0953033512	 3.2631870219	 0.151704
62.4826	99.6439	109.6682	137.6463	163.9169	173.2739	237.2877	247.5579	294.1464	316.4734	356.0411	566.4875	570.8504	623.7904	641.5927	706.829	739.4198	869.9445	998.9685	1016.7792	1061.4006	1062.9574	1068.0364	1149.2734	1173.3706	1252.2901	1278.2127	1358.9151	1399.5688	1412.6461	1417.7253	1453.456	1479.3043	1480.4507	1485.0955	1490.2159	1496.9909	1506.2645	1517.0108	1549.9699	1663.8285	3014.7279	3019.5133	3028.0626	3058.4877	3064.7834	3080.4823	3127.7695	3128.4663	3161.7943	3840.7537
CN1N=C(C)C(O)=C1C	Cn1nc(C)c(O)c1C	
InChI=1S/C6H10N2O/c1-4-6(9)5(2)8(3)7-4/h9H,1-3H3	InChI=1S/C6H10N2O/c1-4-6(9)5(2)8(3)7-4/h9H,1-3H3
