16
gdb 62005	2.74271	1.00843	0.86948	2.0598	66.52	-0.265	0.0257	0.2907	1343.4967	0.121523	-475.02053	-475.010438	-475.009494	-475.056851	35.409	
N	-0.1203572468	 0.4535991939	 1.2954285665	-0.559851
C	-0.076234225	-0.472766151	 0.2972505749	 0.509275
O	 0.9001200362	-1.1023422959	-0.0308734277	-0.393835
O	-1.3153620915	-0.5882488311	-0.262641364	-0.263072
C	-1.4774654495	-1.5944274422	-1.2610776086	-0.102437
C	-2.5303341825	-2.6211230477	-0.8039802298	-0.043068
O	-2.8319401162	-3.4987275566	-1.8822706522	-0.413749
C	-2.1072275043	-3.338971949	 0.3989860595	 0.307846
C	-1.7273093818	-3.956958999	 1.3572684035	-0.462595
H	 0.7611778657	 0.7735462749	 1.6557993345	 0.270678
H	-0.9226660614	 1.053741052	 1.37589278	 0.266275
H	-1.8406691626	-1.1133014908	-2.173348789	 0.119499
H	-0.5172531902	-2.0781946675	-1.4521458936	 0.142255
H	-3.4624869586	-2.0838542196	-0.5939339941	 0.125695
H	-2.1223291376	-4.1488287511	-1.93536422	 0.291493
H	-1.3976384239	-4.4955673994	 2.21142291	 0.205591
31.9983	53.7931	91.8457	151.3079	219.1219	274.3443	276.9921	299.1311	328.2539	356.7411	506.3121	537.1007	546.8885	595.3613	634.1034	672.6618	680.2104	775.564	819.1002	891.1351	1030.8292	1083.0703	1088.4485	1116.9286	1124.6066	1257.4015	1271.7576	1332.7506	1351.4724	1407.7374	1418.8659	1496.5725	1610.3451	1842.7384	2235.0327	3048.697	3065.4427	3132.3757	3502.8044	3621.7917	3754.2879	3806.3103
NC(=O)OCC(O)C#C	NC(=O)OC[C@@H](O)C#C	
InChI=1S/C5H7NO3/c1-2-4(7)3-9-5(6)8/h1,4,7H,3H2,(H2,6,8)	InChI=1S/C5H7NO3/c1-2-4(7)3-9-5(6)8/h1,4,7H,3H2,(H2,6,8)/t4-/m0/s1
