17
gdb 126279	3.42567	1.15901	0.92201	1.5155	82.33	-0.2348	-0.0523	0.1825	1272.4234	0.136342	-417.994673	-417.986407	-417.985463	-418.028064	30.636	
C	 0.0576222308	 1.5736763622	 0.0673506933	-0.378335
C	-0.031446735	 0.0429129282	-0.0560394572	-0.270215
C	-1.442800288	-0.4576992504	-0.1205839068	 0.417104
C	-2.0302341286	-1.0590028213	-1.1709944339	-0.268707
C	-3.4121270879	-1.4762794042	-1.0883015657	 0.280861
N	-4.0283495465	-2.0577501654	-2.0549163605	-0.527024
C	-4.0025281657	-1.1503788083	 0.2191568589	-0.022623
N	-3.428636025	-0.5762424773	 1.2122719788	-0.061594
O	-2.094802591	-0.2142954157	 1.0514404365	-0.284483
H	 1.1029328872	 1.8888458213	 0.1259608179	 0.123228
H	-0.3987216019	 2.0624982614	-0.7985501304	 0.127766
H	-0.4568857907	 1.9221373157	 0.9660993104	 0.142824
H	 0.4913193319	-0.3005397445	-0.9531132375	 0.122176
H	 0.4618641802	-0.4222005981	 0.8060130967	 0.13048
H	-1.4759534094	-1.235002765	-2.083934641	 0.120892
H	-4.9939571137	-2.2663600027	-1.7907800846	 0.211556
H	-5.0431771368	-1.4085084958	 0.4094582451	 0.136095
58.6959	125.3669	146.0851	204.4978	284.8395	324.9762	419.4377	450.9618	514.4246	531.7898	655.0002	727.4362	732.2664	787.5796	846.0236	899.5197	906.9547	916.671	957.4506	985.0837	999.8398	1081.2666	1098.099	1160.7566	1179.3042	1265.162	1310.2925	1347.6783	1353.0212	1407.1815	1428.7767	1474.1451	1496.6313	1508.3157	1635.9535	1666.6792	1715.2366	3039.5845	3047.7446	3093.2458	3119.4673	3132.2887	3152.9855	3218.2028	3440.1026
CCC1=CC(=N)C=NO1	CC[C]1C=C([NH])C=NO1	
InChI=1S/C6H8N2O/c1-2-6-3-5(7)4-8-9-6/h3-4,7H,2H2,1H3	InChI=1S/C6H8N2O/c1-2-6-3-5(7)4-8-9-6/h3-4,7H,2H2,1H3
