13
gdb 9108	7.11869	0.93824	0.83325	0.3638	68.64	-0.2702	-0.0636	0.2065	1306.2511	0.092249	-398.583388	-398.574914	-398.57397	-398.616972	28.668	
C	-0.0210909973	 1.3655220147	 0.1113028283	-0.322782
N	 0.0921219286	-0.0799054654	 0.0874599863	-0.193173
C	 0.5431079627	-0.6035620275	-0.9565250261	 0.121824
O	 0.6561182886	-1.9786896216	-0.9937787562	-0.208244
C	 1.1518324266	-2.5438623143	-2.1326321202	 0.313127
O	 1.5006031615	-1.9402244193	-3.1119285254	-0.33332
C	 1.1974918723	-3.9781490424	-1.990993239	 0.226649
C	 1.2604065103	-5.1759928936	-1.925557102	-0.35143
H	 0.5680939645	 1.7566062782	 0.9475465634	 0.139294
H	 0.3106806449	 1.8582519829	-0.8151620405	 0.10893
H	-1.0644211064	 1.6394210504	 0.3006017113	 0.13929
H	 0.8705274349	-0.1082798956	-1.8725299923	 0.139424
H	 1.3140299387	-6.2360392765	-1.8658925077	 0.220411
75.7533	87.3138	114.9347	207.7372	213.3234	259.8828	346.1317	372.8231	439.1138	584.1178	641.4414	666.6269	708.7897	768.4586	917.9623	985.5737	1062.0885	1113.3312	1141.0634	1176.6308	1218.072	1369.8391	1446.4788	1480.8386	1500.7298	1776.8879	1806.6808	2239.561	2987.2369	3074.3437	3092.4649	3119.4624	3497.0376
CN=COC(=O)C#C	CN=COC(=O)C#C	
InChI=1S/C5H5NO2/c1-3-5(7)8-4-6-2/h1,4H,2H3	InChI=1S/C5H5NO2/c1-3-5(7)8-4-6-2/h1,4H,2H3
