19
gdb 39917	3.21419	1.5982	1.40248	1.6957	80.52	-0.2276	0.0064	0.234	993.0486	0.161409	-385.860529	-385.853555	-385.852611	-385.891556	29.272	
C	-0.0402013343	 1.5136251047	 0.0005550035	-0.318852
C	 1.2976638468	 0.8286379584	-0.0036600877	-0.320714
C	 0.0280666231	 0.0013885646	-0.0049401794	 0.388536
C	-0.3734384895	-0.7631382699	 1.2093036827	-0.137131
C	-0.999892949	-1.9302907995	 1.0414053849	-0.085503
C	-1.2429154689	-2.3487030498	-0.3961523822	 0.033377
C	 0.0803529322	-2.2416074345	-1.1947483974	-0.250526
C	-0.3576348069	-0.7604707643	-1.2654135213	-0.013179
O	-1.7448227381	-1.1890888803	-1.1374348999	-0.295435
H	-0.3671662432	 2.0009247645	 0.9127772113	 0.116579
H	-0.3736439922	 2.0020456482	-0.9093269147	 0.119351
H	 1.8831521847	 0.8494678401	-0.9178119731	 0.114664
H	 1.8920795112	 0.8453037521	 0.9036719421	 0.11489
H	-0.1544809646	-0.3451106053	 2.1882301206	 0.091559
H	-1.3192413801	-2.5575259569	 1.865986101	 0.091878
H	-1.8849431041	-3.2235486719	-0.5128531129	 0.074946
H	 1.0141435988	-2.4978044595	-0.6918552889	 0.102525
H	 0.0103860277	-2.7214835621	-2.1722758859	 0.105382
H	-0.1776376035	-0.1877375787	-2.1802840027	 0.067654
126.1762	233.3949	283.1855	374.0099	413.2976	443.0897	456.3893	606.0604	655.6664	728.4651	746.6357	775.8814	854.3029	876.9821	898.8335	913.0075	933.3834	945.8786	954.4126	965.4253	970.6736	986.049	1038.8135	1057.6232	1076.781	1091.9747	1101.6457	1163.2409	1187.894	1202.2478	1246.2898	1272.4071	1300.1993	1307.6572	1339.0907	1363.5197	1418.3716	1467.0851	1484.9512	1499.1723	1680.3702	3061.5486	3076.0742	3098.2033	3124.3141	3130.2641	3141.0765	3158.8344	3195.9624	3203.9304	3219.729
C1CC11C=CC2CC1O2	C1CC21C=C[C@@H]1C[C@H]2O1	
InChI=1S/C8H10O/c1-2-8(3-4-8)7-5-6(1)9-7/h1-2,6-7H,3-5H2	InChI=1S/C8H10O/c1-2-8(3-4-8)7-5-6(1)9-7/h1-2,6-7H,3-5H2/t6-,7-/m1/s1
