19
gdb 101263	3.24557	0.91729	0.79611	4.0703	76.46	-0.2668	0.0109	0.2777	1437.6504	0.158557	-419.184355	-419.174554	-419.17361	-419.220033	35.149	
C	-0.2148469739	 1.5116243309	-0.1640561263	-0.431354
C	-0.0314016114	-0.0086175826	-0.0974967559	-0.009712
C	 0.8537197927	-0.5113941131	-1.2585272316	-0.067557
O	 0.3062785454	-0.2505984003	-2.5368046344	-0.422279
C	 0.5716251734	-0.5202627802	 1.2039634036	-0.007906
N	 1.360857287	 0.3825081417	 2.0422272812	-0.311248
C	 0.1161800847	-0.1839326158	 2.5940999065	-0.204703
C	-0.9647757575	 0.7231346789	 2.8976029134	 0.33928
N	-1.8545894737	 1.4085086764	 3.1725302437	-0.340172
H	 0.7435498087	 2.0266503519	-0.0515593497	 0.129841
H	-0.6567408237	 1.7856235979	-1.1270299361	 0.107127
H	-0.8862795551	 1.8829257344	 0.6115564599	 0.155715
H	-1.0109889546	-0.491056119	-0.217379911	 0.098803
H	 1.8651973538	-0.084755355	-1.1581090344	 0.094073
H	 0.9535463672	-1.6013578302	-1.1986426999	 0.10552
H	 0.3949343845	 0.6900629067	-2.7151293179	 0.288436
H	 0.9291087007	-1.5486371481	 1.1302004179	 0.096057
H	 2.1637374104	-0.0835759268	 2.4552994177	 0.247267
H	 0.1986500214	-0.9853008878	 3.3248411431	 0.132813
25.6431	104.209	116.2681	192.4388	220.8039	224.9397	266.6036	314.2752	325.4626	359.8196	448.6683	552.3748	583.1887	642.4013	780.3645	827.192	858.3789	899.6527	919.0442	962.1266	970.65	1061.6886	1080.4447	1098.3051	1121.7281	1137.3381	1199.4812	1224.3394	1236.6512	1264.5561	1305.767	1371.8329	1388.5903	1408.2357	1413.2936	1426.0371	1457.6681	1495.9507	1500.1501	1516.4511	2357.4695	2973.1144	3022.7782	3048.3258	3059.3541	3092.0956	3114.755	3136.2566	3143.3754	3514.4619	3833.3883
CC(CO)C1NC1C#N	C[C@@H](CO)[C@H]1N[C@H]1C#N	
InChI=1S/C6H10N2O/c1-4(3-9)6-5(2-7)8-6/h4-6,8-9H,3H2,1H3	InChI=1S/C6H10N2O/c1-4(3-9)6-5(2-7)8-6/h4-6,8-9H,3H2,1H3/t4-,5-,6+/m0/s1
