17
gdb 94757	4.0571	1.16803	1.03362	2.7583	74.52	-0.2647	0.0072	0.2719	1161.4236	0.136954	-418.001713	-417.993684	-417.99274	-418.034225	30.305	
C	 0.1801623185	 1.5759744762	-0.0622478307	-0.406256
C	 0.0722925471	 0.0623378699	 0.0212598166	 0.147695
O	 0.7602599287	-0.5026822426	-1.0986769001	-0.267709
C	 1.2547070697	-1.7896320516	-0.7766963034	-0.133077
C	 1.4711894462	-1.764646458	 0.7327593126	 0.198464
N	 2.1947060115	-0.545060852	 1.1736946658	-0.349403
C	 0.7284546835	-0.5746024554	 1.2374738989	-0.132792
C	 1.5843091189	-2.9838290262	 1.4773504279	 0.189182
N	 1.6951553957	-3.9737194536	 2.0662968479	-0.333605
H	 1.2270704942	 1.8781978134	 0.0157335888	 0.144585
H	-0.2180089157	 1.927330438	-1.0174964699	 0.133505
H	-0.3917520047	 2.0471132614	 0.7431970757	 0.11561
H	-0.9864003081	-0.2472178964	 0.0120729461	 0.079199
H	 0.5369925938	-2.5862658712	-1.0256483955	 0.111059
H	 2.1775389121	-1.9489311723	-1.3412436704	 0.131648
H	 2.5809220171	-0.7035947709	 2.1022970325	 0.252653
H	 0.2206835515	-0.5836733687	 2.1956562872	 0.119241
112.6087	144.2962	171.0951	231.0011	263.2093	337.1036	397.3098	458.5933	547.8247	558.5862	589.4073	659.7246	765.1081	826.3669	855.4969	894.1704	960.1031	995.2526	1042.5547	1062.7883	1077.0268	1092.2978	1114.1651	1149.9804	1172.0233	1236.9524	1277.4197	1291.6335	1349.0985	1366.5335	1388.9053	1408.52	1434.4638	1485.5005	1499.0899	1507.6114	2350.5071	2964.2406	2993.4592	3048.2128	3092.181	3120.8414	3137.7526	3182.7384	3501.9121
CC1OCC2(NC12)C#N	C[C@H]1OC[C@]2(N[C@@H]12)C#N	
InChI=1S/C6H8N2O/c1-4-5-6(2-7,8-5)3-9-4/h4-5,8H,3H2,1H3	InChI=1S/C6H8N2O/c1-4-5-6(2-7,8-5)3-9-4/h4-5,8H,3H2,1H3/t4-,5+,6-/m1/s1
