20
gdb 54592	2.62609	1.51104	1.17755	3.2635	78.69	-0.2364	0.0272	0.2636	1114.4492	0.17195	-403.160465	-403.151732	-403.150787	-403.194612	33.28	
N	 0.1027973614	 1.1350963822	 0.6445868889	-0.537097
C	-0.0217683744	 0.0957736079	-0.2368705938	 0.285208
O	 0.8597530194	-0.1893766253	-1.0291426174	-0.373605
C	-1.301339335	-0.6999837198	-0.1661624729	 0.282836
C	-2.2792647764	-0.6208584321	 1.0319094612	-0.319341
C	-2.3809300474	-2.176625018	 1.0406165001	-0.230675
C	-1.2619877475	-2.2747568182	-0.0363306535	-0.038325
C	-1.7628546587	-2.4270164156	-1.4863249153	-0.2157
C	-1.9956280983	-0.890453267	-1.5600861745	-0.268425
H	 0.89993527	 1.7410521008	 0.5311035377	 0.257747
H	-0.6844084961	 1.4801699072	 1.165113932	 0.258056
H	-1.8037710475	-0.2467583533	 1.9437068584	 0.098215
H	-3.2056769547	-0.0612757712	 0.8688116838	 0.095302
H	-2.1360808287	-2.6369010116	 2.0000445412	 0.105108
H	-3.3455274812	-2.5724965678	 0.710646462	 0.101213
H	-0.3537571993	-2.8044361901	 0.2513418278	 0.076878
H	-0.9700335757	-2.7473761737	-2.1655856344	 0.11633
H	-2.6339221627	-3.0728676522	-1.6330616238	 0.089685
H	-3.0424988878	-0.5738418843	-1.5682385833	 0.092882
H	-1.4675070493	-0.3962855482	-2.3760036143	 0.123708
31.6526	83.028	165.3353	234.9889	284.5739	315.9017	331.2434	414.2757	482.3462	573.3106	630.9871	639.1117	737.3062	751.4029	765.5137	831.6219	869.2313	888.1558	938.1567	950.8709	959.6874	1030.3881	1033.2848	1050.807	1092.1482	1127.5133	1179.4981	1182.8583	1215.6183	1232.0659	1243.2577	1260.0141	1268.4764	1283.1468	1307.5233	1315.0077	1378.3845	1466.1229	1477.3361	1482.1788	1496.493	1611.4071	1775.6714	3040.5888	3050.3161	3058.6159	3060.9158	3087.287	3102.5483	3109.5197	3119.0263	3133.6429	3595.5431	3731.2678
NC(=O)C12CCC1CC2	NC(=O)[C@]12CC[C@H]1CC2	
InChI=1S/C7H11NO/c8-6(9)7-3-1-5(7)2-4-7/h5H,1-4H2,(H2,8,9)	InChI=1S/C7H11NO/c8-6(9)7-3-1-5(7)2-4-7/h5H,1-4H2,(H2,8,9)/t5-,7-
