17
gdb 49175	3.85349	1.19896	1.00864	4.0364	78.51	-0.2377	-0.0564	0.1813	1161.3169	0.136748	-421.827301	-421.819782	-421.818838	-421.859398	29.084	
O	-0.1138835256	-0.0060943151	-0.0172553444	-0.286664
C	-0.008658677	 1.1999662277	 0.0518391306	 0.096872
C	 1.261472671	 1.9273523173	 0.003630226	 0.157301
C	 1.276565313	 3.2730168399	 0.0377132221	-0.107654
C	 2.5293098817	 4.0316629275	-0.0288236243	-0.129518
C	 3.6571931354	 3.6661724855	 0.9578849167	-0.333664
C	 3.7334320923	 3.1991488859	-0.4563169857	 0.139001
O	 3.5412693571	 1.8810786508	-0.8491934463	-0.250411
C	 2.5445515338	 1.1484461513	-0.1381835124	-0.194232
H	-0.9048239433	 1.8522694006	 0.161879031	 0.066848
H	 0.3359496593	 3.8187956018	 0.0792991994	 0.107434
H	 2.4657812804	 5.0676979025	-0.3404033497	 0.100481
H	 4.3182579397	 4.4695793507	 1.2632697441	 0.126987
H	 3.4068087253	 2.9650633926	 1.7448038624	 0.134927
H	 4.4572889739	 3.667205696	-1.1138358483	 0.11578
H	 2.9298187193	 0.8312029531	 0.843079825	 0.112032
H	 2.3617295837	 0.2395992519	-0.7155905661	 0.14448
92.6135	180.014	204.5564	243.8296	357.9857	403.1873	464.3756	468.9397	584.9998	618.3257	729.7355	757.9731	787.4301	859.7696	869.1043	902.0629	956.3821	1004.0663	1023.0454	1041.7971	1043.3552	1070.0672	1096.0614	1118.3978	1182.272	1223.9773	1232.1691	1262.876	1341.1585	1377.7544	1388.9747	1420.1411	1428.7304	1473.4678	1505.6769	1686.3805	1778.8863	2869.9835	2982.2249	3109.0482	3143.6975	3147.2135	3174.8457	3182.6062	3235.1874
O=CC1=CC2CC2OC1	O=CC1=C[C@H]2C[C@H]2OC1	
InChI=1S/C7H8O2/c8-3-5-1-6-2-7(6)9-4-5/h1,3,6-7H,2,4H2	InChI=1S/C7H8O2/c8-3-5-1-6-2-7(6)9-4-5/h1,3,6-7H,2,4H2/t6-,7+/m0/s1
