15
gdb 123992	4.57466	1.17398	1.00106	3.0816	74.18	-0.2345	-0.0683	0.1662	1143.7179	0.115236	-412.965875	-412.958811	-412.957867	-412.998039	26.167	
C	 1.0779146926	 0.9125785589	-0.0772245952	-0.230541
N	 0.1230007673	 0.1446039407	-0.8760976518	-0.314972
C	-0.2980232737	 0.644282763	 0.4427958447	-0.102539
C	-0.5544372322	-0.3726267866	 1.4925739994	 0.362828
C	-0.120699642	-1.7036316061	 1.3909155728	-0.049305
N	-0.3511230557	-2.5688951143	 2.3652159051	-0.231885
C	-1.0198616013	-2.066396749	 3.4118497975	 0.103625
N	-1.474333989	-0.8239749729	 3.5466824143	-0.180583
N	-1.2366022902	 0.0395965245	 2.5621958447	-0.256091
H	 1.9164409401	 0.3404700365	 0.3104877302	 0.129548
H	 1.3146589636	 1.9337661003	-0.363372878	 0.129307
H	-0.2783441442	 0.7155664301	-1.6140705376	 0.245877
H	-0.9696989689	 1.4961834089	 0.4999099686	 0.110544
H	 0.3969340761	-2.0505121472	 0.5011954605	 0.148116
H	-1.2271698225	-2.7373855365	 4.2402027148	 0.13607
65.6028	137.0488	193.5541	288.6463	393.6525	411.9538	559.995	600.475	647.8044	801.8544	810.4623	854.8808	903.434	923.1738	957.5386	976.2924	1018.2528	1058.3467	1083.3314	1106.5945	1120.8966	1161.018	1171.5393	1207.5453	1230.3921	1285.203	1305.2821	1383.1259	1445.99	1454.1881	1512.6088	1553.9307	1607.8813	3109.9845	3155.9372	3179.141	3186.1194	3198.864	3520.4021
C1NC1C1=CN=CN=N1	C1N[C@H]1c1cncnn1	
InChI=1S/C5H6N4/c1-5(4-2-7-4)9-8-3-6-1/h1,3-4,7H,2H2	InChI=1S/C5H6N4/c1-5(4-2-7-4)9-8-3-6-1/h1,3-4,7H,2H2/t4-/m1/s1
