19
gdb 67232	2.94044	1.32763	1.11409	3.4206	80.59	-0.2384	-0.0157	0.2227	1147.4441	0.159109	-385.853985	-385.845952	-385.845008	-385.886632	30.978	
C	-0.0170112052	 1.5928359424	-0.1523979798	-0.533147
C	 0.0224253237	 0.1064684776	-0.0221113144	 0.359293
C	 0.0371831058	-1.0096912392	-1.0387516846	-0.12937
C	 1.2699202926	-1.6531523896	-0.4155005672	-0.238159
C	 0.8767996097	-0.8913363949	 0.8777120537	-0.127979
C	-0.4599541214	-1.5832167335	 1.318771846	-0.090943
C	-1.0201939349	-0.9585229349	 2.5636347382	 0.159776
O	-1.4153428628	-1.5682381834	 3.5256061818	-0.266661
C	-1.0514988052	-0.9587286114	 0.0509477039	-0.124914
H	 0.9509824937	 1.9952315559	-0.473128529	 0.124567
H	-0.7621237067	 1.8920356723	-0.8976473573	 0.127084
H	-0.2816864438	 2.0792585527	 0.7936332811	 0.125994
H	-0.2414608715	-0.9514967769	-2.0836146044	 0.089763
H	 1.3342646613	-2.7455542324	-0.3589481766	 0.096001
H	 2.1905418342	-1.2518720832	-0.8485090983	 0.10362
H	 1.6225759744	-0.6179942386	 1.6218056989	 0.082069
H	-0.4505682697	-2.6722785687	 1.4250960868	 0.081218
H	-1.0453640548	 0.1566928455	 2.5420547542	 0.067995
H	-2.0986015995	-0.8677579597	-0.2100924631	 0.093794
91.3409	123.0398	208.1018	245.1674	277.3433	303.097	406.3591	459.4388	501.8338	611.6045	734.2263	766.4	819.287	860.6904	873.0644	902.652	936.6945	979.5541	994.1585	1007.9518	1020.3282	1051.2612	1066.2168	1099.8122	1115.1893	1138.4478	1158.8614	1172.3852	1210.0197	1213.2688	1236.7732	1272.8808	1282.4705	1325.4454	1412.9295	1430.1527	1457.4845	1482.8053	1497.1186	1502.2562	1826.151	2852.0686	3020.5228	3036.6076	3068.282	3078.9721	3091.8633	3096.9623	3134.6299	3188.1938	3198.2074
CC12C3CC1C(C=O)C23	C[C@@]12[C@H]3C[C@@H]1[C@@H](C=O)[C@@H]23	
InChI=1S/C8H10O/c1-8-5-2-6(8)7(8)4(5)3-9/h3-7H,2H2,1H3	InChI=1S/C8H10O/c1-8-5-2-6(8)7(8)4(5)3-9/h3-7H,2H2,1H3/t4-,5-,6+,7-,8+/m1/s1
