17
gdb 13116	3.96949	1.30868	1.05712	2.6508	66.35	-0.2316	0.0248	0.2564	1127.6265	0.141441	-401.010015	-401.001504	-401.000559	-401.043742	29.764	
C	-0.0196890275	 1.4859654403	 0.0580334095	-0.386752
C	-0.1515436693	-0.0199904629	 0.1941350363	-0.049659
O	 0.9371945413	-0.4902452731	 0.9882344432	-0.255407
C	 0.9212225054	-1.8703190917	 1.1810950439	-0.006797
C	 2.0289124746	-2.3735715909	 2.1465341699	-0.191734
N	 0.9568839529	-2.930416276	 2.9795437236	-0.327153
C	-0.0863706115	-2.4225877482	 2.2454152072	 0.40783
O	-1.2781151695	-2.4067192631	 2.4061449417	-0.362341
H	 0.9315614587	 1.7495955327	-0.413207579	 0.124169
H	-0.8339346358	 1.8821483163	-0.5558152329	 0.118468
H	-0.0616223554	 1.9654286421	 1.0400325288	 0.129415
H	-1.1031442439	-0.2946797574	 0.6666288293	 0.128686
H	-0.1195760493	-0.5061968978	-0.7950701269	 0.087786
H	 0.8728361453	-2.4189383956	 0.2282472419	 0.089339
H	 2.7226500252	-3.1163092237	 1.7428443615	 0.114712
H	 2.5785449772	-1.548878925	 2.6088806414	 0.126969
H	 0.9769310816	-3.3686233162	 3.8885907406	 0.252469
67.2767	90.8473	110.5903	189.1631	218.9583	258.6086	347.2775	395.6688	493.7273	509.711	729.6377	759.8289	821.7081	846.2749	919.7172	925.585	991.5212	1061.8655	1078.2444	1149.8488	1155.7996	1178.468	1187.8994	1193.0482	1222.8908	1297.2789	1301.7628	1352.5569	1392.6433	1404.6168	1443.3405	1483.8553	1500.9557	1520.5134	1530.5669	1887.2576	2970.0594	2994.0668	3045.1019	3046.5653	3051.8763	3105.9267	3120.6413	3122.4525	3609.0985
CCOC1CNC1=O	CCO[C@H]1CNC1=O	
InChI=1S/C5H9NO2/c1-2-8-4-3-6-5(4)7/h4H,2-3H2,1H3,(H,6,7)	InChI=1S/C5H9NO2/c1-2-8-4-3-6-5(4)7/h4H,2-3H2,1H3,(H,6,7)/t4-/m0/s1
