17
gdb 55752	4.19629	1.12713	1.02889	3.4461	69.16	-0.2455	0.0491	0.2945	1172.6088	0.136835	-455.110185	-455.102147	-455.101203	-455.143405	30.4	
N	-0.172346115	 1.2913107076	-0.0926430114	-0.567877
C	 0.0752994671	-0.0488162167	-0.0577543167	 0.463258
O	 1.1682912909	-0.5618827005	-0.0967129381	-0.392503
O	-1.1048722293	-0.730712368	-0.0035006628	-0.313671
C	-1.0035324024	-2.1369078206	-0.0112481166	 0.410997
C	-0.3490303728	-3.0885308263	 1.0062556943	-0.219348
N	-0.9994419135	-4.0385646706	-0.0166659842	-0.144016
C	-2.2053120312	-3.078910965	 0.0378942093	-0.230507
C	-0.4388650106	-3.0823785726	-1.086398088	-0.219088
H	 0.6152499624	 1.8995607912	 0.048386053	 0.270895
H	-1.0901603366	 1.6304500015	 0.1379449793	 0.267463
H	 0.7390597961	-3.1403138537	 1.0275690933	 0.127384
H	-0.7909303247	-3.1594802167	 2.003174974	 0.102291
H	-2.7732598745	-3.1455445933	 0.9687767931	 0.106393
H	-2.8510610582	-3.1401592664	-0.8411150383	 0.107254
H	-0.9645398334	-3.1474779638	-2.0420918118	 0.103493
H	 0.6433764857	-3.1336226561	-1.2011766684	 0.127583
58.2712	86.1893	151.1607	294.2903	345.761	373.6631	376.5758	520.2747	583.8179	593.5165	600.2593	722.4317	778.0224	787.3636	797.2135	870.4065	940.3582	971.08	995.2361	1020.1209	1023.2902	1033.4236	1110.0639	1163.0074	1165.7973	1183.8647	1187.7077	1190.2215	1205.3032	1220.2132	1292.8367	1373.3072	1509.8887	1511.3846	1566.5356	1609.8884	1834.1067	3060.5976	3068.4061	3075.6895	3131.7307	3153.3092	3157.8549	3618.6904	3750.2967
NC(=O)OC12CN(C1)C2	NC(=O)O[C@@]12CN(C1)C2	
InChI=1S/C5H8N2O2/c6-4(8)9-5-1-7(2-5)3-5/h1-3H2,(H2,6,8)	InChI=1S/C5H8N2O2/c6-4(8)9-5-1-7(2-5)3-5/h1-3H2,(H2,6,8)
