19
gdb 90567	2.73674	1.35905	1.13039	3.5325	76.77	-0.205	0.0247	0.2297	1138.5155	0.159218	-419.174085	-419.165208	-419.164264	-419.209072	32.385	
C	-0.3607167486	 1.8205901397	 1.3369794376	-0.322957
N	-0.162391917	 0.4175107486	 1.0213683799	-0.067354
C	 0.2868670398	-0.0164163005	-0.3204353535	-0.177575
C	 1.3205349542	-0.9481995996	 0.328113795	-0.180131
C	 2.2788091691	-0.1663512089	 1.1794293793	 0.046347
N	 2.8200129603	 1.0871954333	 0.7440501227	-0.288923
C	 3.2833162267	 2.0276225025	 1.6159337495	 0.149081
O	 3.181038288	 1.9675667696	 2.8207807828	-0.316676
C	 0.8653640812	-0.372375136	 1.6729937034	-0.014924
H	 0.4693666424	 2.4771709081	 1.0379850859	 0.103789
H	-1.2740303453	 2.1762417526	 0.8465823636	 0.114371
H	-0.4996229246	 1.9234260909	 2.4172946057	 0.131971
H	-0.4989005348	-0.5405107994	-0.8749342994	 0.1112
H	 0.6951819918	 0.7806806095	-0.9581334728	 0.083549
H	 1.5013063491	-1.9753859698	 0.0412739171	 0.100179
H	 2.9877881472	-0.7947531934	 1.7175112398	 0.11029
H	 3.0637059438	 1.189335238	-0.2300999092	 0.246557
H	 3.7618273816	 2.8769524495	 1.0861705042	 0.071119
H	 0.674377355	-0.8552493145	 2.6259741486	 0.100087
15.4139	118.4422	163.8937	181.0115	211.4172	262.6583	342.1811	351.0057	465.1287	511.2843	644.2199	658.9862	753.4132	804.8133	824.6833	884.9105	925.6008	963.2319	1001.3432	1027.172	1035.7234	1060.7329	1070.1881	1098.3774	1134.3311	1162.481	1168.2848	1235.3601	1252.0747	1259.4838	1273.4038	1313.1849	1363.5312	1426.0038	1433.5939	1451.2724	1478.7225	1500.036	1508.612	1514.0172	1812.7244	2921.9281	2993.8999	3001.6049	3057.7235	3060.9745	3106.0381	3113.3078	3163.0421	3204.1103	3603.01
CN1CC2C(NC=O)C12	CN1C[C@H]2[C@@H](NC=O)[C@@H]12	
InChI=1S/C6H10N2O/c1-8-2-4-5(6(4)8)7-3-9/h3-6H,2H2,1H3,(H,7,9)	InChI=1S/C6H10N2O/c1-8-2-4-5(6(4)8)7-3-9/h3-6H,2H2,1H3,(H,7,9)/t4-,5+,6-/m0/s1
