17
gdb 123804	3.90788	1.13631	1.08552	2.5761	73.22	-0.2318	0.0263	0.2581	1159.8242	0.137524	-417.992596	-417.984793	-417.983848	-418.026142	29.255	
C	-0.4939116124	 0.8676964469	-0.3083214849	-0.297752
C	 0.2916449864	 0.8283469158	 0.9947997597	-0.292563
C	 0.6215351952	-0.1127087283	-0.1197425767	 0.127802
O	 0.4118868001	-1.5189195513	-0.0568107844	-0.278771
C	-0.6582809739	-1.9940101868	 0.6111164148	 0.41933
C	-0.9065338601	-2.2295799329	 1.9496956983	-0.321329
C	-2.1835455419	-2.8324912866	 1.9602648285	 0.002475
N	-2.6918783675	-2.969104135	 0.7388463217	-0.230524
N	-1.7479621957	-2.4408927367	-0.0684300221	-0.244103
H	-1.5089011279	 0.4874953372	-0.2644924774	 0.132184
H	-0.3492071622	 1.6899684333	-1.0001729386	 0.118806
H	 0.9972665954	 1.621034851	 1.2175804604	 0.119563
H	-0.2336080091	 0.4313632665	 1.8554643416	 0.134083
H	 1.5431030437	 0.0430594959	-0.666866132	 0.110875
H	-0.2506300297	-2.0167877609	 2.776872114	 0.111516
H	-2.7497607361	-3.1781747722	 2.8130222596	 0.11255
H	-1.8665397144	-2.4565325357	-1.0678342726	 0.275858
47.6448	58.956	127.2104	304.6735	349.9844	445.0761	479.3255	524.6754	629.3094	690.1941	746.6129	749.0187	803.8926	811.1496	822.5766	893.9955	926.4774	955.9627	978.466	1042.1154	1052.1717	1066.7247	1079.6701	1124.4725	1132.4807	1183.2889	1194.1636	1232.0875	1263.2683	1291.3076	1364.145	1394.1429	1434.0668	1453.382	1495.106	1498.2028	1610.4933	3136.1647	3140.9023	3191.3194	3219.4958	3234.4684	3241.7031	3277.5476	3667.9059
C1CC1OC1=CC=NN1	C1CC1Oc1ccn[nH]1	
InChI=1S/C6H8N2O/c1-2-5(1)9-6-3-4-7-8-6/h3-5H,1-2H2,(H,7,8)	InChI=1S/C6H8N2O/c1-2-5(1)9-6-3-4-7-8-6/h3-5H,1-2H2,(H,7,8)
