16
gdb 48555	3.87797	1.5039	1.38251	3.3277	72.67	-0.2387	-0.0293	0.2093	944.399	0.125509	-400.70391	-400.697287	-400.696343	-400.735007	26.243	
O	-0.3201712592	 0.4298235121	-0.7258102398	-0.280029
C	 0.0794389307	 1.1254671224	 0.1812405847	 0.0326
C	 1.3359206164	 1.8761286339	 0.1430376807	 0.277043
C	 2.5913282438	 1.4611924679	-0.6147843609	-0.118006
C	 3.7723969043	 1.6889980496	 0.3064058776	-0.245665
C	 3.242996865	 2.8980594785	 1.0468521309	-0.051654
C	 2.3555809912	 3.7079486292	 0.1720926024	-0.049956
C	 1.9221850006	 2.7613270866	-0.9564705525	-0.144792
N	 1.7575744303	 2.8310380996	 1.2305711774	-0.198104
H	-0.4950385535	 1.2551774828	 1.1240422498	 0.084199
H	 2.5052675676	 0.623102802	-1.2933810006	 0.124747
H	 3.9544554083	 0.8378042242	 0.9696711051	 0.120489
H	 4.6952744694	 1.9163597421	-0.237470919	 0.117772
H	 3.7818402798	 3.3514402025	 1.8704930234	 0.106847
H	 2.2435865539	 4.7848396511	 0.1932295205	 0.105055
H	 1.4780507614	 3.0080191655	-1.9096643795	 0.119456
117.334	174.3486	199.2645	401.0983	436.2223	566.0306	688.4156	701.0644	736.3968	755.8219	798.0069	841.6913	852.5027	902.7148	914.4159	928.7927	970.2322	980.3256	1004.5638	1029.6717	1049.5236	1063.3795	1082.1671	1116.079	1173.4705	1196.1337	1214.4098	1243.8228	1289.7328	1309.5404	1369.6276	1398.9773	1425.3348	1485.9821	1790.935	2900.4368	3052.4362	3098.1829	3185.8101	3196.0315	3219.6687	3231.5606
O=CC12C3CC4C(C13)N24	O=C[C@@]12[C@@H]3C[C@H]4[C@@H]([C@H]13)N24	
InChI=1S/C7H7NO/c9-2-7-3-1-4-6(5(3)7)8(4)7/h2-6H,1H2	InChI=1S/C7H7NO/c9-2-7-3-1-4-6(5(3)7)8(4)7/h2-6H,1H2/t3-,4+,5-,6+,7-,8?/m1/s1
