19
gdb 111517	2.88866	1.42673	1.19784	3.0575	69.64	-0.2551	0.0758	0.3309	1078.1847	0.160933	-460.151618	-460.143718	-460.142774	-460.183878	31.386	
O	 0.1125324455	 1.3379125405	 0.2258844641	-0.428022
C	 0.0171670937	-0.0315598833	-0.1120149711	-0.074332
C	-1.4256733259	-0.5581955342	-0.0323607255	-0.064855
C	-1.5286509289	-2.0724912598	-0.0089423553	 0.02626
O	-1.1926884457	-2.626751124	 1.2854201624	-0.278448
C	-2.5831699793	-2.4807614345	 0.9265677086	 0.044392
C	-3.2167482644	-1.2426377319	 1.5246351459	-0.269723
C	-2.1632740674	-0.1353010567	 1.27725165	 0.091979
O	-1.2636291554	-0.0068304378	 2.3762135084	-0.445656
H	-0.0855616984	 1.3768873409	 1.1709959943	 0.293479
H	 0.3936486166	-0.1323654562	-1.1355962107	 0.104691
H	 0.6621480665	-0.6477823309	 0.5312984982	 0.092465
H	-1.9973767547	-0.1816149922	-0.8908508562	 0.084298
H	-1.2220761226	-2.6806925389	-0.856035594	 0.102159
H	-3.1305183231	-3.4144671163	 0.8300478851	 0.101823
H	-4.1542116694	-1.0252385362	 0.9985471675	 0.110236
H	-3.4412562082	-1.3348938503	 2.59100569	 0.120698
H	-2.6250847618	 0.8469629042	 1.1687002637	 0.097061
H	-0.868845327	-0.8828163224	 2.4908342845	 0.291496
120.4263	141.0772	197.9452	255.3492	324.4495	382.7697	413.6505	491.3123	544.4472	589.1169	630.5093	671.1637	761.1026	813.5446	822.7516	868.9502	882.6842	936.0563	976.8165	980.4985	1019.4413	1046.7499	1079.2905	1089.5134	1098.257	1128.6378	1196.0542	1209.5651	1228.8158	1258.4799	1283.5959	1299.1339	1323.6294	1342.106	1363.3581	1406.3766	1432.0972	1439.7218	1455.1797	1473.8808	1508.7167	2996.4401	3026.128	3042.0325	3070.2352	3098.7759	3105.652	3146.8338	3160.2148	3745.2693	3762.4787
OCC1C2OC2CC1O	OC[C@H]1[C@H]2O[C@H]2C[C@H]1O	
InChI=1S/C6H10O3/c7-2-3-4(8)1-5-6(3)9-5/h3-8H,1-2H2	InChI=1S/C6H10O3/c7-2-3-4(8)1-5-6(3)9-5/h3-8H,1-2H2/t3-,4-,5+,6-/m1/s1
