17
gdb 64965	3.46576	1.11478	0.96318	3.694	70.53	-0.2441	-0.0343	0.2098	1236.6338	0.133645	-458.931075	-458.922272	-458.921328	-458.965309	32.346	
O	-0.1248864301	 1.399197467	 0.1052747339	-0.454917
C	-0.0371376394	 0.002094955	 0.0304458112	 0.26722
C	-0.7966231717	-0.8360803224	 1.0414613252	-0.305122
C	-1.3168126922	-0.7147743432	-0.3572948549	-0.268672
C	 1.2330563362	-0.5727506492	-0.5254420739	 0.298373
O	 1.4475295233	-1.7659564862	-0.525632746	-0.33223
C	 2.2364363009	 0.4080287684	-1.08251734	-0.040803
C	 3.6622089121	 0.2248364601	-0.7260740707	-0.163608
O	 3.178302818	-0.1384761173	-2.0029850608	-0.205568
H	 0.2973452374	 1.6852277775	 0.9226222596	 0.289589
H	-0.3313548192	-1.7702281285	 1.3327783668	 0.144097
H	-1.3089184784	-0.2845502062	 1.8217734469	 0.119774
H	-2.1676411185	-0.0669397838	-0.5318050765	 0.133014
H	-1.2157416122	-1.5676987636	-1.0173484177	 0.143442
H	 1.8737240686	 1.4035930837	-1.3187923318	 0.121411
H	 4.3129149384	 1.0976675276	-0.6890575607	 0.121297
H	 3.9281847367	-0.6081315891	-0.0775320905	 0.132703
48.4745	63.0635	186.7448	235.3896	281.0171	300.065	318.9572	336.5312	409.0683	451.4811	562.7768	752.3149	761.7804	784.6538	831.7271	866.7923	887.466	919.1664	949.7507	996.3459	1013.5733	1054.5909	1087.8161	1090.8634	1102.092	1164.7408	1174.0752	1205.1961	1259.4617	1276.8767	1311.3696	1348.309	1412.5203	1437.2892	1472.4892	1509.6921	1787.2954	3083.8518	3141.3662	3148.3348	3166.857	3182.4811	3236.9885	3251.591	3800.0175
OC1(CC1)C(=O)C1CO1	OC1(CC1)C(=O)[C@H]1CO1	
InChI=1S/C6H8O3/c7-5(4-3-9-4)6(8)1-2-6/h4,8H,1-3H2	InChI=1S/C6H8O3/c7-5(4-3-9-4)6(8)1-2-6/h4,8H,1-3H2/t4-/m1/s1
