21
gdb 114968	2.9204	1.3707	1.08006	0.7463	85.83	-0.2226	0.025	0.2477	1197.9588	0.183219	-387.062367	-387.053915	-387.052971	-387.095521	32.552	
C	 0.1557530952	 1.4039885382	 0.1020304404	-0.234517
O	-0.1259849813	 0.0448813248	-0.1291438426	-0.2395
C	 0.6036067784	-0.5285621844	-1.1994560706	 0.095921
C	 2.061830797	-0.927505449	-0.7701236291	-0.272784
C	 1.9196509421	-2.3675658225	-0.2873331545	-0.227901
C	 0.8104560437	-2.8883668058	-0.7991736843	 0.3108
C	-0.3586556627	-3.8089005231	-0.5322773325	-0.322849
C	-1.2589649013	-2.5544075688	-0.8506154549	-0.236409
C	-0.0236561875	-1.8937860704	-1.5569853587	-0.062837
H	 1.2011025692	 1.5767695073	 0.3988986075	 0.104761
H	-0.0512879469	 2.0174556239	-0.7894285462	 0.102886
H	-0.4935321138	 1.734769702	 0.9167102042	 0.125283
H	 0.6116406928	 0.1725208491	-2.0480169066	 0.052474
H	 2.7569467147	-0.8285032435	-1.6159686232	 0.100529
H	 2.4361907675	-0.2634138357	 0.0168556999	 0.104241
H	 2.5862512413	-2.815509255	 0.4404761893	 0.087967
H	-0.4822598393	-4.5900868548	-1.2903281501	 0.107648
H	-0.4334042533	-4.2643143367	 0.4581042906	 0.109194
H	-2.1470794871	-2.7285682701	-1.4623770846	 0.094403
H	-1.5296921536	-2.0090776001	 0.0533151078	 0.129318
H	-0.0527833053	-2.0504184754	-2.6414604219	 0.07137
83.8863	111.1413	175.2587	207.4534	248.3057	316.844	349.2762	404.9491	489.9552	641.7908	690.0242	728.4248	784.5278	813.5871	841.3044	846.1277	906.9417	922.5508	943.5051	963.9304	987.8477	1042.4506	1076.1916	1093.2287	1120.0775	1138.3432	1174.8196	1183.8104	1196.1383	1210.2805	1230.301	1235.5355	1243.2759	1257.0351	1296.4304	1326.7379	1342.3294	1390.0187	1469.7879	1475.915	1479.5815	1488.4031	1490.5834	1510.4258	1736.5589	2970.7946	2980.8463	3009.5872	3019.6111	3036.0948	3043.6617	3065.114	3073.7192	3101.209	3109.8199	3151.06	3196.26
COC1CC=C2CCC12	CO[C@H]1C[CH][C]2CC[C@@H]12	
InChI=1S/C8H12O/c1-9-8-5-3-6-2-4-7(6)8/h3,7-8H,2,4-5H2,1H3	InChI=1S/C8H12O/c1-9-8-5-3-6-2-4-7(6)8/h3,7-8H,2,4-5H2,1H3/t7-,8+/m1/s1
