12
gdb 17156	4.34538	2.01158	1.62339	4.0544	59.31	-0.2675	-0.0119	0.2556	751.1512	0.084247	-377.404679	-377.398826	-377.397881	-377.4347	22.442	
N	-0.0216885231	-1.1032021359	 0.0328753559	-0.334405
C	-0.0309839285	 0.0528024673	 0.0529223073	 0.149658
C	-0.0511044632	 1.4895386132	 0.0516416361	 0.226466
N	-0.6952795055	 2.3314082413	 1.1089628442	-0.366554
C	-0.1548493995	 3.3478435206	 0.1497445149	-0.085077
C	 1.1311689474	 2.5113742411	-0.1167044018	 0.076769
O	 1.032629898	 2.5848219517	-1.5600768829	-0.30959
C	-0.3507824361	 2.4837872019	-1.1424728973	 0.044308
H	-1.7137516753	 2.2705385085	 1.0366186711	 0.229275
H	-0.253632744	 4.4231531326	 0.2813930877	 0.115006
H	 2.1064453091	 2.5206702749	 0.3644364646	 0.131911
H	-1.1390673894	 2.4587190429	-1.8948752297	 0.122232
148.3086	178.999	425.9638	458.7008	529.3596	537.6104	635.0393	748.2957	784.0831	817.2565	832.6142	899.327	907.3388	938.0006	1004.0416	1041.9813	1095.1644	1103.724	1157.083	1162.7942	1179.4404	1258.9165	1270.141	1302.4927	1343.1001	2353.3591	3129.0881	3151.7336	3164.6437	3421.6431
N#CC12NC3C1OC23	N#C[C@@]12N[C@H]3[C@@H]1O[C@@H]23	
InChI=1S/C5H4N2O/c6-1-5-3-2(7-5)4(5)8-3/h2-4,7H	InChI=1S/C5H4N2O/c6-1-5-3-2(7-5)4(5)8-3/h2-4,7H/t2-,3-,4+,5+
