21
gdb 92771	3.44319	1.02197	0.90851	1.0543	86.61	-0.2154	0.0328	0.2483	1367.9776	0.183275	-387.090423	-387.081695	-387.080751	-387.124216	33.743	
O	-0.6765008126	 1.2402978219	 0.4216954762	-0.440015
C	 0.0381035099	 0.0676467221	 0.0433108222	 0.123961
C	 0.7246834421	-0.609493917	 1.2585373788	-0.277233
C	-0.2719244352	-1.6574464585	 1.680399222	-0.195074
C	-1.2323861148	-1.8514486682	 0.7702475067	 0.390628
C	-1.0170563533	-0.9516619816	-0.4320210219	-0.324411
C	-2.3368141082	-2.8233292305	 0.8747292262	-0.102792
C	-3.7396418814	-2.4928897016	 0.3934397389	-0.269697
C	-2.9202901028	-3.5067942506	-0.3497586547	-0.272499
H	-0.0481377662	 1.8533945363	 0.8161084541	 0.277866
H	 0.759545404	 0.3077319826	-0.7503416309	 0.056628
H	 1.6889183673	-1.0564749096	 0.9753392335	 0.099382
H	 0.9440252301	 0.1261688473	 2.0439460594	 0.089953
H	-0.1915696113	-2.201777008	 2.6154484795	 0.079408
H	-1.9168291512	-0.4198927937	-0.7581711861	 0.118379
H	-0.6527940891	-1.5280285557	-1.2927155357	 0.102488
H	-2.2935376753	-3.4378982646	 1.7692088463	 0.079922
H	-4.5685465406	-2.8380306674	 1.0012005477	 0.113866
H	-3.9017326317	-1.5271890644	-0.0713739806	 0.120881
H	-2.5273491896	-3.2290799861	-1.3213953799	 0.115758
H	-3.1827860803	-4.5551444525	-0.2611022815	 0.112602
63.9498	81.979	175.176	185.7578	293.9594	315.6451	385.3467	412.785	426.723	529.3009	584.339	768.1391	785.5414	801.8459	825.3925	842.2791	862.7883	896.3135	925.3382	929.7396	965.2249	978.8639	1029.8367	1048.46	1058.6602	1075.6601	1078.514	1133.9192	1163.2297	1182.5122	1200.3763	1216.7891	1229.1016	1246.5874	1289.3955	1306.6163	1339.0056	1376.3791	1400.4742	1419.6931	1466.0134	1471.4224	1479.9726	1501.0082	1707.6828	2987.5885	3003.5712	3023.9081	3031.845	3075.5594	3135.8062	3140.1095	3147.5425	3184.2711	3214.6331	3230.5411	3815.1514
OC1CC=C(C1)C1CC1	O[C@H]1CC=C(C1)C1CC1	
InChI=1S/C8H12O/c9-8-4-3-7(5-8)6-1-2-6/h3,6,8-9H,1-2,4-5H2	InChI=1S/C8H12O/c9-8-4-3-7(5-8)6-1-2-6/h3,6,8-9H,1-2,4-5H2/t8-/m0/s1
