18
gdb 63928	3.16881	1.47222	1.28339	2.1124	70.97	-0.2453	0.0164	0.2617	1024.5514	0.147835	-439.089485	-439.081527	-439.080583	-439.121851	31.065	
C	 0.1081813047	 1.5501907324	-0.0520851857	-0.449258
C	 0.0346214758	 0.0347976915	-0.0027656874	 0.386928
O	-1.3092524017	-0.42708572	-0.0326811574	-0.477506
C	 0.9487766107	-0.7735779722	-0.9956317252	-0.305246
C	 1.4493930152	-1.6424737342	 0.1801878366	 0.081084
O	 2.8529353285	-1.4747997198	 0.4880104105	-0.227583
C	 2.8851357226	-0.4805075908	 1.4104843206	 0.108971
N	 1.805572034	 0.0176817212	 1.857042444	-0.26526
C	 0.7193758608	-0.7074845097	 1.1876874988	-0.034267
H	 1.133427107	 1.9024737004	 0.0810247829	 0.129493
H	-0.2572135703	 1.9156544323	-1.0203841147	 0.101617
H	-0.5098966158	 1.9852904017	 0.7383358845	 0.131503
H	-1.7322338845	-0.0555521364	-0.8147273023	 0.276475
H	 0.3962534981	-1.3044210177	-1.7738233333	 0.104789
H	 1.7537223689	-0.1920645543	-1.4517417024	 0.108406
H	 1.2311752432	-2.7087041221	 0.1499924465	 0.097047
H	 3.8836888945	-0.1834713609	 1.7123465809	 0.141503
H	 0.0105859785	-1.1169521516	 1.9100295231	 0.091304
68.7178	206.3453	223.382	281.4573	320.9124	338.0433	364.6912	394.2032	491.1424	579.7537	596.3736	752.5268	774.69	858.6356	882.2829	889.6179	910.3271	951.0302	956.9144	976.399	1017.4608	1020.1122	1104.746	1115.1282	1125.503	1176.5463	1205.1546	1235.481	1254.4198	1274.4875	1292.8058	1318.4185	1356.5644	1375.1816	1407.3018	1454.7665	1482.7594	1491.501	1680.7891	3025.9633	3065.4076	3092.408	3100.1018	3121.6327	3131.3242	3134.633	3214.1377	3800.0225
CC1(O)CC2OC=NC12	C[C@@]1(O)C[C@H]2OC=N[C@@H]12	
InChI=1S/C6H9NO2/c1-6(8)2-4-5(6)7-3-9-4/h3-5,8H,2H2,1H3	InChI=1S/C6H9NO2/c1-6(8)2-4-5(6)7-3-9-4/h3-5,8H,2H2,1H3/t4-,5-,6-/m1/s1
