17
gdb 30488	2.9459	1.36516	0.9437	2.0918	82.13	-0.2192	-0.0468	0.1724	1228.1089	0.137184	-414.239702	-414.231063	-414.230119	-414.273448	30.958	
C	 0.1074301155	 1.4152918766	 0.2119412834	-0.327391
N	 0.0153772976	-0.0305934604	 0.1479493241	-0.349675
C	-1.1295066203	-0.5743506162	 0.0649645967	 0.441181
N	-1.1609696289	-1.9902947523	 0.005431865	-0.311842
C	-2.3176120255	-2.6624907764	-0.0834916372	 0.11043
N	-3.4843737898	-2.0956413448	-0.1222622118	-0.323749
C	-3.4408841161	-0.7069222651	-0.0631420491	 0.342188
C	-4.7846222789	-0.0436419737	-0.1072554523	-0.454388
N	-2.3780505817	 0.0346153102	 0.0235874032	-0.328878
H	 0.7221146546	 1.7755970821	-0.622188207	 0.116304
H	-0.861982123	 1.9238615085	 0.181931313	 0.129458
H	 0.6301738986	 1.7037541762	 1.1322366436	 0.116299
H	-0.2662350717	-2.4585029996	 0.0337801743	 0.272565
H	-2.2411894955	-3.7475622157	-0.1238171066	 0.140247
H	-5.3998849259	-0.4008081529	 0.7253369459	 0.14415
H	-4.6811659116	 1.0397040519	-0.0577967867	 0.138958
H	-5.3074145172	-0.3297266583	-1.0260411885	 0.144143
81.0196	103.654	129.5973	194.0878	206.0534	241.8818	367.4644	413.1751	487.4956	568.8386	599.7507	607.7494	709.8479	763.7792	785.4891	909.8653	967.7077	991.7233	1032.5136	1064.5948	1080.8927	1136.0826	1154.0463	1187.6534	1205.7023	1322.4882	1396.0846	1408.7904	1434.9681	1460.558	1472.5172	1484.4736	1497.6487	1501.8095	1576.6377	1676.3563	1757.2559	3011.161	3044.9593	3060.4482	3090.1643	3100.9512	3155.1062	3163.3983	3610.5081
CN=C1NC=NC(C)=N1	C[N]C1=N[C@@H](N=CN1)C	
InChI=1S/C5H8N4/c1-4-7-3-8-5(6-2)9-4/h3H,1-2H3,(H,6,7,8,9)	InChI=1S/C5H9N4/c1-4-7-3-8-5(6-2)9-4/h3-4H,1-2H3,(H,7,8,9)/t4-/m1/s1
