21
gdb 92047	2.65677	1.44823	1.02656	2.3271	84.23	-0.2341	0.0075	0.2415	1213.3873	0.183024	-387.092227	-387.083639	-387.082695	-387.12527	33.709	
C	 0.2027327834	 1.6063438548	-0.0920941242	-0.402541
C	 0.0405754268	 0.0828452929	 0.0365186269	-0.086962
C	 0.4820099023	-0.588016717	-1.284324385	-0.226122
C	 0.6533550314	-2.0956756555	-1.1950788758	 0.013042
O	 1.9909666459	-2.5602537327	-0.9784746487	-0.26059
C	 1.0324302021	-2.6765454589	 0.0971758315	 0.017267
C	 1.1813426563	-1.7722247817	 1.2605767953	-0.183232
C	 0.738314331	-0.5092340698	 1.2601634403	 0.327787
C	 0.8424842738	 0.3433491444	 2.4969456556	-0.482587
H	 1.2584819283	 1.8839261831	-0.1865885857	 0.121393
H	-0.3141565299	 1.9630701895	-0.9888787795	 0.114166
H	-0.2135381122	 2.1429461575	 0.764175802	 0.115632
H	-1.0353959329	-0.1130680004	 0.1739908667	 0.087656
H	-0.2393170503	-0.3361676019	-2.0694021232	 0.096001
H	 1.4462337673	-0.1667067071	-1.5914589506	 0.116636
H	 0.0860460082	-2.7020133665	-1.9006080906	 0.088171
H	 0.7615533124	-3.7086078559	 0.3195930835	 0.086759
H	 1.6458813406	-2.1824533701	 2.1540857712	 0.081569
H	 1.2785051094	-0.2198149242	 3.3258258054	 0.120609
H	 1.4586842247	 1.233980778	 2.3295634956	 0.130671
H	-0.1448562086	 0.7036434816	 2.8138998893	 0.124675
70.1596	135.5302	231.0228	248.4498	310.13	321.7244	353.0172	396.5214	430.9913	451.7116	527.5224	600.3748	707.9539	752.3016	778.7849	837.9522	866.3534	900.6127	927.3472	989.0074	999.0616	1038.5914	1051.409	1077.2783	1083.8084	1113.4581	1124.567	1161.6269	1203.389	1242.5832	1286.1865	1311.1212	1331.2934	1357.832	1378.9254	1380.639	1409.3736	1414.8788	1465.8285	1474.9655	1479.3807	1485.6617	1502.2948	1507.5345	1716.0126	2967.6627	3020.2402	3031.9711	3036.2273	3072.0367	3076.3396	3098.754	3103.053	3112.3515	3114.83	3116.457	3153.1998
CC1CC2OC2C=C1C	C[C@H]1C[C@H]2O[C@H]2C=C1C	
InChI=1S/C8H12O/c1-5-3-7-8(9-7)4-6(5)2/h3,6-8H,4H2,1-2H3	InChI=1S/C8H12O/c1-5-3-7-8(9-7)4-6(5)2/h3,6-8H,4H2,1-2H3/t6-,7-,8+/m0/s1
