22
gdb 88473	2.64119	1.33475	1.2236	2.0319	81.98	-0.2148	0.0761	0.2909	1172.4582	0.193245	-404.299666	-404.290261	-404.289317	-404.333677	35.609	
C	-0.452113557	 1.0976720555	-0.193644226	-0.329664
N	 0.0708062621	-0.2535159316	-0.0008254049	-0.10169
C	 1.4485751703	-0.5122138431	-0.4116060318	-0.262667
C	 1.0703019063	-0.5291836905	 1.0279757286	-0.02751
C	 1.6268175183	 0.4856846773	 2.0153144116	 0.3956
C	 0.622913928	 0.8296090163	 3.1087162817	-0.43693
C	 3.0548031348	 0.1226293332	 2.5128240304	-0.324773
C	 3.4898159925	 1.4096787622	 1.7896447943	-0.069256
O	 2.1373567677	 1.6944841029	 1.3770835855	-0.316506
H	 0.2733406538	 1.8977909213	-0.0043652248	 0.138463
H	-0.8057094984	 1.1796010926	-1.2267978589	 0.115783
H	-1.3172376042	 1.2429437612	 0.4622187071	 0.115754
H	 1.6206895523	-1.437333875	-0.9568950643	 0.105385
H	 2.040785901	 0.340049643	-0.7395113187	 0.117416
H	 0.9233756633	-1.4979370893	 1.5098670454	 0.085968
H	 0.3059097977	-0.0770489405	 3.6353234647	 0.11829
H	 1.0670362571	 1.5161700286	 3.8352169053	 0.115365
H	-0.2656046748	 1.3050917198	 2.6849455972	 0.131764
H	 3.1778930208	 0.1276850278	 3.597340211	 0.107448
H	 3.4615614303	-0.8041904531	 2.1054161331	 0.113044
H	 3.8945201132	 2.205757016	 2.4253219072	 0.105061
H	 4.1576019249	 1.2674159256	 0.9317159063	 0.103653
78.6054	92.239	175.9308	211.1893	223.505	248.9704	283.4619	335.6709	366.4458	390.3131	485.6925	541.1411	675.6141	768.9091	782.9595	831.7562	877.6145	897.6413	935.3722	967.113	988.954	996.9969	1029.0561	1050.7505	1096.4424	1128.2242	1133.4892	1153.3712	1164.1826	1187.0379	1205.6058	1212.2002	1216.9762	1256.2466	1268.307	1330.7895	1353.8529	1404.9632	1407.9318	1448.5371	1480.5491	1486.7831	1492.52	1497.3358	1507.8344	1514.9881	1529.6089	3017.8741	3020.6896	3038.0407	3060.559	3076.2073	3082.1747	3087.789	3091.5296	3092.4827	3109.2415	3123.0362	3133.6044	3177.8514
CN1CC1C1(C)CCO1	CN1C[C@H]1[C@@]1(C)CCO1	
InChI=1S/C7H13NO/c1-7(3-4-9-7)6-5-8(6)2/h6H,3-5H2,1-2H3	InChI=1S/C7H13NO/c1-7(3-4-9-7)6-5-8(6)2/h6H,3-5H2,1-2H3/t6-,7+,8?/m0/s1
