21
gdb 104507	1.93343	1.25636	0.96843	1.3073	84.15	-0.2546	0.0481	0.3026	1358.1393	0.178849	-387.050359	-387.039842	-387.038897	-387.086355	38.401	
C	 0.276281131	 1.4201944283	 0.0388288956	-0.381381
C	-0.2683251405	 0.1891295771	-0.6989446964	-0.263425
C	 0.8272617367	-0.6429983362	-1.3413216603	 0.396131
C	 1.4775425729	-0.0303392355	-2.5879416425	-0.425657
C	 0.5611853194	 0.0764256651	-3.7171031616	 0.31522
C	-0.2093990408	 0.1543725256	-4.6365043678	-0.463051
O	 1.7892637555	-1.2176142257	-0.4435390208	-0.307907
C	 0.9329341569	-2.1057211191	-1.1812463044	 0.030116
C	-0.0054422873	-2.9815827571	-0.3930691813	-0.427797
H	 0.9964967252	 1.1181340307	 0.8045718794	 0.13465
H	 0.776882997	 2.1183974142	-0.639580181	 0.118054
H	-0.5360337907	 1.9658016156	 0.5276015367	 0.114185
H	-0.8337834969	-0.4256700072	 0.0054467198	 0.101494
H	-0.9693495111	 0.496204364	-1.4835297331	 0.11715
H	 1.8744103859	 0.9616754353	-2.3385173418	 0.135846
H	 2.3425252886	-0.6454082911	-2.8592158157	 0.13879
H	-0.8821306347	 0.2254879801	-5.4548651793	 0.197355
H	 1.4530105515	-2.6336009235	-1.9847389022	 0.083907
H	-0.4768797425	-2.4419196365	 0.4299334907	 0.130162
H	-0.7875090782	-3.3858986167	-1.0447867103	 0.126286
H	 0.544798182	-3.8271207974	 0.0329894065	 0.129873
39.013	75.28	123.3436	146.5152	211.7041	215.293	249.6449	276.2611	348.8223	358.0215	405.6861	466.2185	521.604	561.004	623.1155	644.9019	705.9669	766.9753	807.1369	880.7955	952.3228	964.6115	974.8775	1013.1926	1024.4919	1080.5725	1092.4974	1135.9516	1171.5228	1198.0896	1247.8081	1304.6315	1324.1993	1341.0229	1390.2278	1406.2011	1410.2412	1465.7692	1471.5074	1479.8554	1492.43	1500.7553	1506.7332	1515.4267	2237.3671	3032.2	3039.7321	3042.3829	3049.8138	3070.2765	3074.5611	3091.5163	3100.4534	3111.4284	3120.7113	3136.8334	3506.0978
CCC1(CC#C)OC1C	CC[C@@]1(CC#C)O[C@H]1C	
InChI=1S/C8H12O/c1-4-6-8(5-2)7(3)9-8/h1,7H,5-6H2,2-3H3	InChI=1S/C8H12O/c1-4-6-8(5-2)7(3)9-8/h1,7H,5-6H2,2-3H3/t7-,8-/m0/s1
