18
gdb 54795	2.99366	1.4634	1.37185	12.6738	72.3	-0.1767	-0.0053	0.1713	1002.2116	0.1506	-439.046692	-439.039275	-439.03833	-439.07902	29.014	
O	-0.007580081	-0.0646373162	 0.174741303	-0.472574
C	 0.1208443749	 1.1494294606	-0.05202435	 0.344963
O	 1.0944252886	 1.8839905881	-0.2853352522	-0.472575
C	-1.2398595116	 1.9356688378	 0.0188606942	-0.104512
C	-2.2260423273	 1.5598831568	 1.1498853212	-0.009358
C	-1.368772936	 1.6547363724	 2.4166692035	-0.22543
C	-0.6123185904	 2.9923973786	 2.1008138952	-0.225431
C	-1.2389455049	 3.3054200397	 0.7377261877	-0.009362
N	-2.7430373651	 3.0303579747	 1.0549404839	-0.295528
H	-3.3362807018	 3.1733726923	 0.2398478544	 0.294994
H	-3.1568808239	 3.460530281	 1.8856209148	 0.28197
H	-1.7320959061	 1.9832309769	-0.9585755061	 0.088007
H	-2.9959844762	 0.7971910165	 1.0687568769	 0.11786
H	-1.9618909789	 1.6974664909	 3.3348340366	 0.095621
H	-0.7085277367	 0.7890499534	 2.4462503988	 0.188937
H	-0.7865215058	 3.7758936863	 2.8440687164	 0.09562
H	 0.4584598693	 2.8526677416	 1.9589640289	 0.188938
H	-1.0395369173	 4.2568719287	 0.251857403	 0.117858
57.7181	145.3977	187.6599	318.3502	367.3611	448.8087	474.2722	608.6544	615.9947	725.4433	757.7338	780.4816	814.7258	868.0187	869.0486	911.9393	919.84	948.6223	987.2328	988.4531	997.2476	1035.9856	1099.9761	1121.4746	1151.1384	1171.4839	1204.3293	1219.6411	1264.498	1275.3865	1286.9076	1299.1419	1318.0004	1334.9368	1357.4186	1482.2612	1500.2702	1618.448	1781.899	3059.482	3059.6545	3070.5527	3151.2101	3162.3553	3169.1849	3171.7328	3406.9698	3538.4084
[O-]C(=O)C1C2CCC1[NH2+]2	[O]C(=O)[C@H]1[C@H]2CC[C@@H]1[NH2]2	
InChI=1S/C6H9NO2/c8-6(9)5-3-1-2-4(5)7-3/h3-5,7H,1-2H2,(H,8,9)	InChI=1S/C6H9NO2/c8-6(9)5-3-1-2-4(5)7-3/h3-5H,1-2,7H2/t3-,4+,5+
