20
gdb 61961	5.48161	0.55852	0.52721	2.3342	81.27	-0.26	-0.0321	0.2279	1997.7038	0.168249	-403.181496	-403.170922	-403.169978	-403.218802	36.235	
C	-0.1497129011	 1.5572100519	 0.022774486	-0.398821
C	 0.039932992	 0.0332249698	-0.0211444996	 0.003331
C	 0.8107615568	-0.5070164372	 1.1961391903	-0.182863
C	 2.2489649077	 0.0406211696	 1.3107910495	-0.356958
C	 2.9851046608	-0.573751386	 2.4134011989	 0.260917
N	 3.5514897446	-1.0709821982	 3.2893172809	-0.301334
C	-1.3239506349	-0.6828873983	-0.1336636326	-0.282063
C	-2.0079046326	-0.4109311992	-1.4552725173	 0.158161
O	-3.1181534347	 0.0343214798	-1.5847033178	-0.235631
H	 0.8044050855	 2.0909143813	-0.005403665	 0.12051
H	-0.7421300506	 1.9075830425	-0.827847931	 0.135426
H	-0.6784146797	 1.8566164341	 0.9351063649	 0.127598
H	 0.6210699947	-0.2169346366	-0.9219533181	 0.082056
H	 0.2640199113	-0.269554865	 2.1164026929	 0.123817
H	 0.8614018826	-1.5996229883	 1.1377338085	 0.120566
H	 2.8004362583	-0.1442096233	 0.3809194786	 0.151969
H	 2.2453102809	 1.1244320833	 1.4648640532	 0.157597
H	-1.1668718666	-1.7695081454	-0.0719681785	 0.11976
H	-1.9974738194	-0.3902604533	 0.6781251106	 0.123747
H	-1.3851011156	-0.6630083113	-2.3472979544	 0.072214
47.5274	50.2932	72.5259	106.0534	111.541	212.9015	237.0913	272.4042	315.8956	392.1999	414.3291	438.608	529.8294	562.259	763.4305	780.672	874.9733	935.1121	946.1703	946.8947	994.9187	1011.3044	1040.2219	1126.8173	1137.1389	1156.4301	1199.0726	1244.9357	1264.5832	1306.4836	1317.2258	1363.8482	1375.2764	1389.391	1421.6059	1429.2626	1461.2421	1468.8394	1491.2634	1498.4793	1505.5185	1837.314	2363.3602	2843.2035	2989.6928	3013.7321	3033.4111	3036.9336	3045.7037	3072.8959	3091.6639	3095.8535	3103.0727	3111.4732
CC(CCC#N)CC=O	C[C@@H](CCC#N)CC=O	
InChI=1S/C7H11NO/c1-7(4-6-9)3-2-5-8/h6-7H,2-4H2,1H3	InChI=1S/C7H11NO/c1-7(4-6-9)3-2-5-8/h6-7H,2-4H2,1H3/t7-/m0/s1
