14
gdb 30479	4.04837	1.20408	0.9334	3.873	69.07	-0.2608	-0.0569	0.2038	1178.7341	0.101891	-470.062162	-470.054156	-470.053212	-470.095771	27.961	
C	 0.0439955539	 1.4708071832	-0.2081401172	-0.335901
N	-0.045908058	 0.0245362034	-0.2620478668	-0.341257
C	-1.074167391	-0.5864302998	 0.1086681856	 0.522963
N	-1.1856834006	-1.9633978763	 0.0674540985	-0.414836
C	-2.2851301705	-2.7238369081	 0.458058687	 0.453626
O	-2.2814570127	-3.9239065175	 0.3827873413	-0.342273
N	-3.3862620306	-1.9801704267	 0.9417373852	-0.308994
C	-3.2728771957	-0.7177478543	 0.9746048168	 0.139054
O	-2.2161332545	 0.0403260645	 0.6013579136	-0.214654
H	 0.8975554436	 1.7518250458	 0.4183024443	 0.136449
H	 0.2487568656	 1.8529928331	-1.2141201813	 0.136448
H	-0.8522634778	 1.9674206943	 0.1788197477	 0.125274
H	-0.380117962	-2.4619550071	-0.2834590926	 0.283036
H	-4.0782496896	-0.0823477244	 1.3340036679	 0.161065
62.4	76.3946	126.3925	213.1119	234.8925	404.6622	408.2763	483.9362	584.8037	638.7519	655.5244	708.3518	774.8141	799.4114	887.7032	941.043	995.5309	1035.8187	1127.3601	1137.7668	1163.3315	1266.522	1333.4063	1414.7964	1426.6034	1447.8488	1493.9412	1502.7272	1694.4174	1826.1753	1847.9529	3023.6364	3084.5953	3094.5181	3185.1579	3622.4047
CN=C1NC(=O)N=CO1	CN=c1[nH]c(=O)nco1	
InChI=1S/C4H5N3O2/c1-5-4-7-3(8)6-2-9-4/h2H,1H3,(H,5,7,8)	InChI=1S/C4H5N3O2/c1-5-4-7-3(8)6-2-9-4/h2H,1H3,(H,5,7,8)
