17
gdb 52542	4.04956	0.73919	0.62993	1.9948	85.59	-0.2534	-0.0398	0.2137	1754.796	0.134111	-418.028682	-418.018395	-418.017451	-418.066123	34.776	
C	-0.3571199774	 1.3558479417	 0.3375358802	-0.505909
C	-0.0249898678	-0.0209210082	 0.0135671691	 0.176488
C	 0.250850284	-1.1613668826	-0.2628570171	-0.059633
C	 0.5798764526	-2.5215085227	-0.6491980628	 0.259335
O	 0.6695532964	-2.8736403274	-1.8092307207	-0.352668
N	 0.7730510854	-3.3433942899	 0.4441759874	-0.335155
C	 1.1005499674	-4.7057519961	 0.5002756551	 0.369935
C	 1.2843029321	-5.4461297044	-0.7982536962	-0.445744
N	 1.2106337033	-5.1846138535	 1.6774404679	-0.514284
H	 0.4840758515	 1.8531701898	 0.8323195169	 0.162591
H	-0.6034446257	 1.9250513926	-0.5645829194	 0.164446
H	-1.2167357059	 1.4027839452	 1.014546448	 0.16164
H	 0.6687066752	-2.9257652363	 1.3590262033	 0.265667
H	 2.0753284891	-4.9935190393	-1.4004337962	 0.159424
H	 1.5340104879	-6.487490045	-0.5840361891	 0.112864
H	 0.3788615699	-5.4018160134	-1.4076918164	 0.159431
H	 1.4487955122	-6.1737922704	 1.63638866	 0.221571
23.0707	53.8893	75.6486	92.8378	174.1087	190.6779	233.2824	306.6253	369.1058	388.0056	450.4762	526.1753	556.7731	599.9074	689.8767	760.4428	841.5532	861.4386	887.0985	1041.3184	1047.9528	1052.5837	1072.8202	1079.6116	1157.0606	1234.6283	1388.8603	1410.6796	1428.7013	1463.6714	1466.3982	1470.632	1473.5277	1496.6709	1713.4649	1764.3122	2354.0566	3033.7809	3057.9723	3097.4445	3102.1363	3132.3347	3141.9794	3503.1456	3601.1706
CC#CC(=O)NC(C)=N	CC#CC(=O)NC(=N)C	
InChI=1S/C6H8N2O/c1-3-4-6(9)8-5(2)7/h1-2H3,(H2,7,8,9)	InChI=1S/C6H8N2O/c1-3-4-6(9)8-5(2)7/h1-2H3,(H2,7,8,9)
