20
gdb 121327	3.08878	1.11676	0.86685	2.666	76.91	-0.2446	0.0258	0.2704	1349.2955	0.171544	-440.292919	-440.283676	-440.282732	-440.328202	33.088	
C	-0.1910633701	 0.8037824977	 0.4639072426	-0.241707
O	-0.3920482733	 0.2727484642	-0.8355499372	-0.239063
C	 0.7121473714	-0.3978811047	-1.39350283	-0.09267
C	 0.7615898004	-1.9076970474	-1.0687887087	-0.084277
C	 1.3024922295	-2.7890093876	-2.2093738884	-0.250707
C	 1.7864315822	-4.0285635396	-1.4561006484	-0.092176
O	 2.2126138567	-3.5424292062	-0.1709028755	-0.237574
C	 1.6511360876	-2.3252584169	 0.0906581837	 0.406583
N	 1.8686057496	-1.6615290742	 1.1437808438	-0.538249
H	 0.0527082853	 0.0285453949	 1.1975176074	 0.144138
H	 0.6245416882	 1.542921339	 0.4682011343	 0.100496
H	-1.1223709199	 1.3054770727	 0.7396633555	 0.113563
H	 0.6023007557	-0.2931055993	-2.4795702948	 0.099841
H	 1.6595924628	 0.0770163665	-1.1008135772	 0.103912
H	-0.26540183	-2.2128852127	-0.8297401639	 0.115656
H	 0.5540009862	-3.0191091526	-2.970286093	 0.116633
H	 2.1463569271	-2.2911737207	-2.7012246986	 0.116856
H	 0.9803155406	-4.7586633454	-1.3098466848	 0.114245
H	 2.6362693248	-4.5342140099	-1.9200774548	 0.122163
H	 2.5026734752	-2.1673261679	 1.7642687482	 0.222335
31.3447	87.9656	110.9942	180.2751	195.1191	212.1856	302.5372	349.4766	434.3164	477.4667	596.3299	652.378	688.22	785.7735	887.3324	899.499	926.2567	948.6015	960.9317	1012.228	1040.2391	1100.42	1107.7247	1118.4382	1160.4087	1187.7437	1207.1197	1219.0305	1237.4528	1271.1226	1278.7759	1308.4286	1344.3339	1365.1226	1407.6823	1411.2668	1475.643	1484.0154	1492.647	1495.2689	1517.1514	1524.6011	1769.6351	2988.7057	3000.7202	3027.0965	3031.1029	3046.2701	3055.4258	3073.8648	3103.1945	3116.115	3119.7075	3473.5618
COCC1CCOC1=N	COC[C@H]1CCO[C]1[NH]	
InChI=1S/C6H11NO2/c1-8-4-5-2-3-9-6(5)7/h5,7H,2-4H2,1H3	InChI=1S/C6H11NO2/c1-8-4-5-2-3-9-6(5)7/h5,7H,2-4H2,1H3/t5-/m1/s1
