21
gdb 60182	3.04233	0.87863	0.74125	1.5742	85.78	-0.2593	0.0209	0.2802	1590.0875	0.17922	-387.042602	-387.032304	-387.03136	-387.078574	37.723	
C	-0.5472851578	 1.3475067869	-0.1943169074	-0.388907
C	 0.1048999565	-0.0189684338	 0.058235755	 0.05246
C	 0.8349070351	-0.5130177616	-1.1973030443	-0.392077
C	 1.0700076543	 0.0000849683	 1.2618031973	-0.237026
C	 0.3908956323	 0.2952778773	 2.5754248153	 0.07147
O	-0.4880251744	-0.706518575	 3.0918100406	-0.247599
C	 0.7089004788	-0.4199670822	 3.8342925285	-0.158335
C	 1.7094801919	-1.4503604122	 3.9139819678	 0.34325
C	 2.5563543502	-2.2968909545	 4.0219322884	-0.433676
H	 0.2109508824	 2.1102864498	-0.4107734155	 0.109211
H	-1.2236978472	 1.3018582985	-1.0539825173	 0.113672
H	-1.1330523203	 1.691061464	 0.6636567296	 0.116411
H	-0.6891548787	-0.7384832497	 0.2973906187	 0.092803
H	 1.6480920364	 0.1695103979	-1.4732996215	 0.110239
H	 1.2714195003	-1.5051125736	-1.0416426404	 0.11352
H	 0.1525108074	-0.5761926886	-2.0512605191	 0.110767
H	 1.5745288138	-0.9681711303	 1.3392926575	 0.113056
H	 1.8511931921	 0.7555799307	 1.0960072278	 0.09661
H	 0.0083690123	 1.3099288374	 2.6997611776	 0.096702
H	 0.5280014459	 0.1074200624	 4.7711445513	 0.114208
H	 3.2999500186	-3.0499968417	 4.1115868099	 0.203242
37.9878	72.5274	108.6497	162.7964	221.7247	227.9714	243.9012	307.4633	338.9491	393.23	423.0968	485.8008	556.828	595.8068	626.4792	668.8707	793.1153	815.6952	836.0953	894.1949	929.7206	963.1333	968.4423	973.8976	1026.0806	1091.3546	1132.6576	1162.8749	1176.0185	1193.5826	1264.7374	1282.2919	1311.3509	1365.8064	1369.7648	1393.5384	1402.2775	1422.1273	1458.4654	1473.0736	1488.0587	1494.5798	1505.2686	1510.2609	2238.7636	3011.6474	3021.8632	3023.0241	3030.7761	3078.2298	3086.743	3094.1922	3095.4782	3100.3474	3104.4667	3110.379	3502.0537
CC(C)CC1OC1C#C	CC(C)C[C@H]1O[C@H]1C#C	
InChI=1S/C8H12O/c1-4-7-8(9-7)5-6(2)3/h1,6-8H,5H2,2-3H3	InChI=1S/C8H12O/c1-4-7-8(9-7)5-6(2)3/h1,6-8H,5H2,2-3H3/t7-,8+/m0/s1
