23
gdb 89251	2.32336	1.7292	1.26942	0.2473	88.6	-0.2275	0.0832	0.3107	1123.9641	0.206138	-351.109675	-351.101097	-351.100153	-351.142042	35.02	
C	-0.403199396	 1.5349320593	-0.0203527385	-0.417147
C	 0.0249899847	 0.0730120368	 0.0092164179	 0.04174
C	 1.0737412187	-0.477477923	-1.0204388604	-0.33684
C	 1.8432614071	-1.1850832016	 0.1459672927	 0.387153
C	 1.9773035803	-2.6904121547	 0.0843278709	-0.492363
C	 3.0541001785	-0.4438867677	 0.7758965309	-0.10426
C	 2.9161194258	 1.0459977992	 0.7384302733	-0.299564
C	 2.1076183379	 0.2781648733	 1.7512839168	-0.059911
C	 0.8981460523	-0.4915605391	 1.1736710392	-0.087118
H	 0.440257806	 2.2217393352	 0.0858714224	 0.120775
H	-0.9128480783	 1.7734026719	-0.9609911638	 0.110893
H	-1.1023104394	 1.749422722	 0.7960672487	 0.111611
H	-0.87778752	-0.5452586314	-0.0550760071	 0.070553
H	 0.6560461943	-1.1654656755	-1.7609375802	 0.090111
H	 1.6439189901	 0.2842356061	-1.5585622834	 0.096651
H	 2.6995822317	-2.9919049556	-0.6850127948	 0.11351
H	 2.3256466514	-3.0951610174	 1.041691917	 0.113587
H	 1.0200867684	-3.1675007933	-0.1539041237	 0.11019
H	 4.0076382212	-0.9209139977	 0.977031131	 0.076918
H	 3.7552427271	 1.5860802707	 1.1678438321	 0.108377
H	 2.4662279447	 1.5579665131	-0.1038692935	 0.107802
H	 2.245287931	 0.4662684435	 2.8099453843	 0.080311
H	 0.3821574126	-1.0886557743	 1.9290774083	 0.057022
158.5796	177.7842	211.8673	227.2038	241.9818	284.7099	324.4179	402.1703	454.8262	513.7107	618.1567	636.3508	735.9437	752.5735	818.912	839.5483	872.4273	901.586	913.7452	919.7689	948.7288	971.3661	993.0239	1003.5049	1036.7551	1063.9007	1078.9169	1090.0594	1119.1896	1139.5342	1162.5828	1188.7897	1191.1953	1221.533	1236.869	1257.02	1269.1088	1320.5371	1325.1347	1360.7403	1376.4093	1410.2007	1410.5144	1480.488	1491.2439	1493.0499	1493.9524	1498.4191	1509.5592	3014.3198	3025.3152	3031.5322	3053.2053	3075.769	3078.7463	3085.826	3087.7301	3102.1588	3115.5845	3129.7776	3157.1347	3171.244	3207.0285
CC1CC2(C)C3CC3C12	C[C@H]1C[C@@]2(C)[C@H]3C[C@H]3[C@@H]12	
InChI=1S/C9H14/c1-5-4-9(2)7-3-6(7)8(5)9/h5-8H,3-4H2,1-2H3	InChI=1S/C9H14/c1-5-4-9(2)7-3-6(7)8(5)9/h5-8H,3-4H2,1-2H3/t5-,6+,7-,8+,9-/m0/s1
