13
gdb 29257	3.32247	1.45982	1.0142	2.8054	66.38	-0.2175	-0.051	0.1664	1062.2911	0.090343	-489.942691	-489.935244	-489.9343	-489.974775	28.141	
O	-0.0066348734	 1.3889197049	 0.32499098	-0.434495
C	-0.0379546164	 0.0589282898	 0.0666138981	 0.160724
C	-1.1670444154	-0.6687279709	-0.0139049148	-0.058609
N	-1.1057233657	-2.0182033854	-0.281224139	-0.349141
C	 0.0678067256	-2.7118381148	-0.4811873449	 0.477933
N	 0.073035005	-3.9521176415	-0.7242261396	-0.564466
O	 1.2154351133	-1.9525686727	-0.3954497522	-0.245083
C	 1.2434425008	-0.5975389959	-0.1317817743	 0.379508
O	 2.3029513641	-0.0249029156	-0.0780931256	-0.357507
H	 0.9328077099	 1.6316003252	 0.3211274973	 0.312097
H	-2.1526138551	-0.2443710055	 0.123042764	 0.154167
H	-1.9439542606	-2.5720692618	-0.3436978674	 0.284865
H	 1.0226643078	-4.2947329859	-0.8432748815	 0.240007
81.1449	155.014	300.2195	317.1876	372.8013	375.9149	469.9241	474.0948	514.6172	529.8645	621.7884	702.8428	740.1231	773.707	791.709	823.6581	894.8147	970.0535	1067.9285	1104.0069	1183.048	1260.8878	1287.267	1408.2155	1432.5006	1513.7351	1742.8466	1762.7764	1827.0703	3229.6003	3546.3343	3665.2066	3715.1662
OC1=CNC(=N)OC1=O	OC1=CN[C]([NH])OC1=O	
InChI=1S/C4H4N2O3/c5-4-6-1-2(7)3(8)9-4/h1,7H,(H2,5,6)	InChI=1S/C4H4N2O3/c5-4-6-1-2(7)3(8)9-4/h1,7H,(H2,5,6)
