20
gdb 60309	3.65388	0.76833	0.6695	0.9267	85.11	-0.2643	-0.0259	0.2384	1710.7911	0.167918	-403.127963	-403.117457	-403.116513	-403.164172	37.682	
C	 0.0784075478	 1.5467460859	-0.003774517	-0.383596
C	 0.0384337093	 0.0135846762	-0.0275594736	 0.013334
C	-1.3976323135	-0.515831596	 0.0797510326	-0.393987
C	 0.694536623	-0.5460093891	-1.2858177307	-0.046909
O	 2.0754822419	-0.1427190689	-1.28462489	-0.238125
C	 2.8120192113	-0.5230283048	-2.3408427879	 0.257907
N	 2.3307759039	-1.2106366583	-3.299008928	-0.538391
C	 4.1706122618	-0.0603370863	-2.2368474333	 0.274406
C	 5.3155667976	 0.303899803	-2.197170638	-0.408714
H	 1.103696267	 1.9147906227	-0.0880345914	 0.130199
H	-0.5008414447	 1.9641470142	-0.8364556733	 0.110403
H	-0.3502771862	 1.9333962209	 0.926172683	 0.11034
H	 0.6121027898	-0.3609710348	 0.8306990103	 0.084962
H	-2.0043469151	-0.1845914858	-0.7712758681	 0.11708
H	-1.4248734079	-1.6102301866	 0.1044086665	 0.115003
H	-1.8784606746	-0.147373987	 0.9909127397	 0.116353
H	 0.645274599	-1.6398177005	-1.3197738593	 0.11729
H	 0.2124925784	-0.1692579034	-2.1958560058	 0.11853
H	 3.046874818	-1.3939156739	-3.9979984336	 0.23486
H	 6.326730693	 0.6280745225	-2.1595653622	 0.209053
51.1615	60.067	100.9032	162.1349	198.0291	214.4458	247.2525	274.5487	307.552	344.1717	422.696	430.8031	554.1055	596.5698	658.4612	659.0972	732.8667	824.394	850.9135	913.5079	918.557	931.3989	958.9831	978.3874	1018.5335	1118.8365	1154.7839	1188.4875	1199.753	1272.6438	1325.4753	1359.9628	1376.7354	1398.797	1412.7968	1432.4595	1488.6246	1490.1668	1502.6312	1506.8009	1514.4433	1679.2283	2236.0219	3018.5547	3027.1493	3030.3504	3037.9059	3079.4196	3092.2147	3098.3039	3105.6578	3123.4238	3500.1393	3525.9591
CC(C)COC(=N)C#C	CC(C)CO[C]([NH])C#C	
InChI=1S/C7H11NO/c1-4-7(8)9-5-6(2)3/h1,6,8H,5H2,2-3H3	InChI=1S/C7H11NO/c1-4-7(8)9-5-6(2)3/h1,6,8H,5H2,2-3H3
