19
gdb 50217	4.14474	1.18204	1.07947	3.0054	80.14	-0.2443	-0.0183	0.2261	1149.2958	0.161023	-385.864754	-385.857565	-385.856621	-385.896858	28.463	
O	 0.0251271251	-0.1005121127	 0.0209162672	-0.257054
C	 0.0376448566	 1.1038370961	 0.0055917854	 0.156041
C	 1.2762404536	 1.9633111191	 0.0153200274	-0.089085
C	 1.2689155244	 3.0594368802	-1.0980870215	-0.286339
C	 1.3839160631	 4.3183192088	-0.239839849	 0.010391
C	 2.3506448003	 4.0383914474	 0.9553122898	-0.060069
C	 1.5005593269	 4.9765292715	 1.8448528858	-0.240829
C	 0.4760648577	 4.1597968413	 1.0229770564	-0.057926
C	 1.3472877482	 2.8787704366	 1.2529839294	-0.018854
H	-0.9167397187	 1.6840105055	-0.0112273396	 0.066746
H	 2.14433156	 1.3010590383	-0.0459519859	 0.088971
H	 2.1036282184	 2.9351608803	-1.7935899186	 0.111358
H	 0.3455875655	 3.0478124876	-1.6892455099	 0.104424
H	 1.4279932385	 5.2876741472	-0.7397647409	 0.066604
H	 3.4383073413	 3.9546992046	 0.9098734129	 0.071216
H	 1.5270829257	 4.7923201381	 2.9224418453	 0.093447
H	 1.5619742257	 6.0468155762	 1.6286637862	 0.093036
H	-0.6127796574	 4.2290884304	 1.0564500861	 0.072574
H	 1.3553413652	 2.4089653938	 2.2382153935	 0.07535
68.2493	115.6004	253.9161	341.0768	405.9481	420.6371	446.7798	671.6476	740.4013	766.5129	811.634	861.5326	869.2283	902.0801	916.1181	939.0995	960.4976	975.571	1002.6005	1007.5683	1041.683	1060.3914	1072.1164	1108.291	1122.3108	1131.9657	1151.5455	1193.8779	1211.7786	1234.9304	1246.3811	1247.937	1267.5289	1277.3816	1300.3742	1308.3376	1365.2838	1431.3343	1490.5023	1519.4217	1829.9776	2837.9814	3037.8169	3048.6049	3072.6732	3089.6957	3090.884	3092.8082	3100.6146	3109.1391	3110.44
O=CC1CC2C3CC2C13	O=C[C@H]1C[C@@H]2[C@H]3C[C@@H]2[C@@H]13	
InChI=1S/C8H10O/c9-3-4-1-5-6-2-7(5)8(4)6/h3-8H,1-2H2	InChI=1S/C8H10O/c9-3-4-1-5-6-2-7(5)8(4)6/h3-8H,1-2H2/t4-,5-,6-,7+,8+/m1/s1
