19
gdb 74529	3.64031	1.34537	1.28032	1.8372	80.53	-0.2198	0.0147	0.2345	1076.3464	0.159898	-385.846368	-385.838768	-385.837824	-385.878015	30.664	
C	 0.0711439313	 1.5191956434	 0.0615853428	-0.487
C	-0.0083861476	 0.0271749221	-0.0266569401	 0.325488
C	-0.0410408985	-0.7172698415	-1.1473842951	-0.275325
C	-0.0318009515	-2.1711827717	-0.8401837885	 0.120032
C	 1.1696960953	-2.7749089835	-0.1170958764	-0.360769
C	 0.0254539225	-2.2393933962	 0.6733395937	 0.384967
C	-0.0349051237	-0.8371558769	 1.2427795501	-0.400984
O	-1.0575053505	-3.1794060331	 0.7668506107	-0.325234
C	-1.239195595	-3.108152936	-0.6792470776	-0.134094
H	 0.9901428413	 1.8401937842	 0.5686207594	 0.127594
H	 0.0510920141	 1.9836053056	-0.9278737014	 0.126213
H	-0.7636006254	 1.9243597077	 0.6478371356	 0.127509
H	-0.0408611877	-0.299978306	-2.1494548089	 0.08818
H	 1.3198617973	-3.8501433757	-0.1429720159	 0.117995
H	 2.07355854	-2.1769641045	-0.1467028484	 0.120338
H	 0.7914319397	-0.5947768774	 1.9224468176	 0.110241
H	-0.9637037628	-0.689575025	 1.808127151	 0.123263
H	-2.1935576206	-2.6319167409	-0.9285606047	 0.108427
H	-1.1840966282	-4.0985540845	-1.1463469739	 0.103157
128.2864	179.926	241.1515	287.2988	356.2655	372.7489	413.1045	480.6281	565.5884	574.1911	669.5324	772.1616	803.9077	836.2754	865.7089	868.9061	919.1529	943.0122	948.8503	978.5134	998.7523	1023.118	1040.8609	1065.7388	1121.796	1147.7892	1161.6555	1186.5729	1221.8045	1271.1617	1300.2631	1327.3963	1346.6275	1376.9204	1410.9965	1463.5993	1474.0389	1477.4521	1485.9202	1511.9048	1673.0492	3016.1575	3022.3735	3025.1778	3057.0483	3062.468	3076.1589	3112.2799	3123.7685	3176.6155	3222.6303
CC1=CC23CC2(C1)OC3	CC1=C[C@@]23C[C@]2(C1)OC3	
InChI=1S/C8H10O/c1-6-2-7-4-8(7,3-6)9-5-7/h2H,3-5H2,1H3	InChI=1S/C8H10O/c1-6-2-7-4-8(7,3-6)9-5-7/h2H,3-5H2,1H3/t7-,8-/m0/s1
