18
gdb 40633	3.36505	1.38631	1.28385	1.3922	74.04	-0.2411	0.0156	0.2567	1044.9019	0.149472	-401.922049	-401.914689	-401.913745	-401.954568	28.564	
C	 0.1488782672	 1.5295367073	 0.1538908815	-0.279882
C	 1.2472819348	 0.5928500625	-0.2619351526	-0.25087
C	-0.1416091138	 0.0533322296	-0.001829368	-0.013392
C	-0.4612354341	-0.7680853879	 1.2130352717	-0.084555
C	-0.7498980789	-2.2420629521	 1.1378790297	 0.024473
O	-0.2449712485	-2.9223105613	-0.0051371216	-0.208275
C	 1.1080209035	-2.8266457391	 0.0922701429	 0.10695
N	 1.6112928464	-2.2444579479	 1.1044541543	-0.24886
C	 0.4903486579	-1.7682807421	 1.8790732984	-0.057051
H	 0.1812390191	 1.9277914496	 1.163006328	 0.110183
H	-0.2641271957	 2.2124183883	-0.5803682367	 0.109442
H	 1.5954394301	 0.6268460181	-1.288614269	 0.108833
H	 2.0147315384	 0.3486513879	 0.4623488538	 0.135191
H	-0.7106397735	-0.221668099	-0.885815801	 0.091627
H	-1.0991915925	-0.2778762581	 1.9457689378	 0.099819
H	-1.6424299324	-2.7039086329	 1.5397404654	 0.11101
H	 1.655195237	-3.2770477818	-0.726371878	 0.143601
H	 0.6136066851	-1.7559363511	 2.9549559834	 0.101756
46.5717	141.5894	166.1924	306.6524	317.808	489.0426	562.9821	677.3574	731.756	754.0835	786.4158	804.4903	827.3614	852.9928	884.1737	924.707	942.6044	953.9339	987.7395	1013.9433	1060.4662	1074.3947	1075.9339	1085.1636	1101.0981	1121.2941	1133.784	1148.5355	1199.3679	1201.6322	1243.0378	1289.5109	1327.5621	1347.1831	1376.559	1420.7091	1470.0587	1503.8496	1667.0057	3124.9231	3128.6103	3136.5673	3142.4008	3184.0137	3196.9377	3210.0651	3233.1695	3234.26
C1CC1C1C2OC=NC12	C1CC1[C@H]1[C@H]2OC=N[C@@H]12	
InChI=1S/C7H9NO/c1-2-4(1)5-6-7(5)9-3-8-6/h3-7H,1-2H2	InChI=1S/C7H9NO/c1-2-4(1)5-6-7(5)9-3-8-6/h3-7H,1-2H2/t5-,6+,7-/m1/s1
