22
gdb 118284	4.52971	0.58256	0.56617	4.2014	80.57	-0.2505	0.0321	0.2826	1976.7207	0.192461	-441.509425	-441.498238	-441.497294	-441.547423	38.73	
C	 0.2381050375	 1.390923312	 0.3198985498	-0.385968
C	-0.0003941961	-0.096483651	 0.0286140369	 0.007154
C	 0.6090278164	-0.551043467	-1.3078162769	-0.163096
C	 0.0253653847	 0.1335395547	-2.538487062	-0.08576
O	 0.5815366817	-0.5012561611	-3.6808870159	-0.420251
C	 0.5560332206	-0.9840588594	 1.1593082384	-0.165574
N	-0.0809500662	-0.7631988625	 2.447913111	-0.275704
C	 0.5649566084	-0.2474515446	 3.5285396885	 0.153304
O	 1.7265142312	 0.0998679645	 3.555045611	-0.323199
H	 1.309480531	 1.6211067706	 0.3164238039	 0.126566
H	-0.2479683849	 2.0313690282	-0.4214282291	 0.112289
H	-0.1559168438	 1.6655890058	 1.3021418524	 0.120243
H	-1.0873306572	-0.268640602	-0.0209153952	 0.061932
H	 1.6944947641	-0.3887213698	-1.2973468871	 0.10852
H	 0.4584759423	-1.6304869868	-1.4336644605	 0.103065
H	-1.0741411457	 0.0410686631	-2.5276405751	 0.081114
H	 0.2620993219	 1.2078416443	-2.5313210639	 0.090684
H	 0.2736689092	-0.0356301441	-4.4637687379	 0.285714
H	 0.4494770177	-2.040271384	 0.88171364	 0.104346
H	 1.6205470368	-0.7850454314	 1.3097630743	 0.14874
H	-1.0496376642	-1.0185960459	 2.5585884937	 0.244575
H	-0.1058599556	-0.1778365138	 4.4086312834	 0.071305
33.8166	48.8659	74.9108	106.5185	134.9551	213.4936	220.2399	263.0397	268.3913	312.3735	354.3651	378.1348	434.3906	532.8839	554.6606	756.1395	794.3127	850.8305	920.8491	937.8564	973.9219	1008.7741	1029.2987	1036.9062	1067.2529	1125.1615	1159.9668	1178.4724	1206.8962	1237.7895	1245.9026	1286.9956	1310.6464	1317.8871	1366.6297	1380.4471	1393.3513	1416.7294	1431.8148	1462.2706	1479.3295	1491.0328	1495.3002	1507.0701	1528.6288	1535.668	1807.107	2928.9322	2955.4848	2977.9222	3000.3392	3021.9816	3027.6437	3038.0987	3066.9277	3105.0483	3110.4037	3115.1436	3629.8005	3830.827
CC(CCO)CNC=O	C[C@@H](CCO)CNC=O	
InChI=1S/C6H13NO2/c1-6(2-3-8)4-7-5-9/h5-6,8H,2-4H2,1H3,(H,7,9)	InChI=1S/C6H13NO2/c1-6(2-3-8)4-7-5-9/h5-6,8H,2-4H2,1H3,(H,7,9)/t6-/m0/s1
