14
gdb 132286	1.955	1.84128	0.95386	3.6311	67.87	-0.2445	-0.0464	0.1981	1130.5024	0.101357	-478.058686	-478.051062	-478.050118	-478.091328	27.999	
C	-0.0190612961	 1.4993444253	 0.0008517074	-0.489533
C	 0.0001921208	 0.0006505661	-0.0588783333	 0.413546
N	-0.023387016	-0.6092009472	-1.2127483388	-0.357779
C	-0.0027933536	-1.9607026789	-1.1657258782	 0.349741
F	-0.0277124113	-2.5323004729	-2.3594736532	-0.056781
C	 0.0392208102	-2.7373936746	-0.0508979192	-0.40613
C	 0.0653464632	-2.0948846068	 1.2385377616	 0.43398
O	 0.1044183232	-2.6014667166	 2.3415116478	-0.385985
N	 0.042335714	-0.6750756379	 1.1137480799	-0.373479
H	 0.8748062309	 1.8797201806	 0.5069848593	 0.151686
H	-0.053691695	 1.8962561805	-1.0126317622	 0.169187
H	-0.8926402247	 1.855054959	 0.5577828837	 0.15163
H	 0.053445822	-3.8165000674	-0.1027680339	 0.133244
H	 0.0599583724	-0.175874859	 1.9936402789	 0.266673
77.3227	163.6629	194.4314	217.3581	294.1227	371.2223	508.6035	534.5767	584.8434	593.5222	619.8173	683.3484	758.1615	761.6426	857.4711	924.8992	988.4086	1028.2586	1058.0782	1063.8347	1195.6213	1242.1003	1274.5322	1404.2698	1427.9225	1461.278	1482.3739	1494.7054	1614.4718	1652.0704	1809.7285	3042.8542	3100.1979	3169.1332	3242.367	3593.2563
CC1=NC(F)=CC(=O)N1	Cc1nc(F)cc(=O)[nH]1	
InChI=1S/C5H5FN2O/c1-3-7-4(6)2-5(9)8-3/h2H,1H3,(H,7,8,9)	InChI=1S/C5H5FN2O/c1-3-7-4(6)2-5(9)8-3/h2H,1H3,(H,7,8,9)
