17
gdb 76966	2.28251	1.2627	1.0621	4.6998	72.21	-0.2369	-0.0342	0.2028	1198.625	0.13396	-455.147758	-455.138093	-455.137149	-455.182801	34.108	
C	-0.4122836886	 1.3521367179	 0.0982466882	-0.339421
N	 0.1451610375	-0.003870279	 0.0878517028	-0.101802
C	 1.4767950218	-0.2906252259	-0.4267620627	-0.119722
C	 2.4258619404	 0.7541817334	-0.9294749476	 0.141997
O	 3.2029535093	 0.504456257	-1.8209924947	-0.266964
C	 1.1408466598	-0.4389123118	 1.0490080022	-0.125384
C	 1.7466966562	 0.481265187	 2.0792759002	 0.430326
N	 1.9749877798	-0.1214223859	 3.2796284715	-0.532436
O	 1.9987340767	 1.6597199371	 1.887032031	-0.376925
H	 0.2516890995	 2.1223335019	 0.4969886331	 0.160036
H	-0.699147445	 1.602183485	-0.9269716291	 0.132015
H	-1.3219971362	 1.3277272714	 0.7057888641	 0.12862
H	 1.5513233538	-1.2114197697	-1.0029432798	 0.114967
H	 2.3762437406	 1.7467248688	-0.453703327	 0.124466
H	 0.9869474547	-1.4611080489	 1.3943037348	 0.093936
H	 1.7882168862	-1.0938601781	 3.4469981279	 0.267258
H	 2.4038185236	 0.4243836098	 4.009018625	 0.269034
55.0844	72.7963	158.4338	177.4314	210.5332	219.8649	240.6152	318.0147	363.7936	404.5324	442.0635	513.1671	588.8465	664.2193	697.1632	781.4342	836.0322	919.6174	988.4284	1007.7604	1064.9744	1087.5249	1119.2366	1153.9934	1172.1819	1185.89	1292.6684	1319.689	1350.7494	1424.6536	1443.6929	1451.7878	1485.89	1523.5313	1617.7968	1773.5283	1799.306	3013.025	3042.1453	3099.3114	3110.4251	3127.7072	3129.741	3607.8001	3744.6583
CN1C(C=O)C1C(N)=O	CN1[C@@H](C=O)[C@H]1C(=O)N	
InChI=1S/C5H8N2O2/c1-7-3(2-8)4(7)5(6)9/h2-4H,1H3,(H2,6,9)	InChI=1S/C5H8N2O2/c1-7-3(2-8)4(7)5(6)9/h2-4H,1H3,(H2,6,9)/t3-,4-,7?/m0/s1
