12
gdb 11149	6.818	1.28018	1.08504	3.5915	65.32	-0.2432	-0.0534	0.1898	980.1159	0.085316	-377.587813	-377.581121	-377.580177	-377.618883	24.397	
O	-0.0081876061	-0.0046943971	 0.0033244573	-0.340814
C	-0.0433333847	 1.1978072838	 0.0099379236	 0.430402
C	-1.2605075647	 2.1348821789	 0.0318493065	-0.45572
C	-0.6404601316	 3.5166718327	 0.0306448276	 0.118252
C	 0.7023882827	 3.376808466	 0.0114819545	-0.073502
N	 1.0690488762	 2.0439601784	-0.0006166465	-0.317133
C	-1.3543396404	 4.7312863206	 0.0469873309	 0.201511
N	-1.9698142665	 5.7144911289	 0.060725583	-0.339941
H	-1.8926325968	 1.9413493749	-0.8408706309	 0.169187
H	-1.8682535876	 1.9319443784	 0.9196228048	 0.169209
H	 1.4549298704	 4.1517608876	 0.0053452032	 0.161858
H	 2.014060699	 1.6960718769	-0.0153477141	 0.276692
106.7027	154.5073	209.1596	407.7574	442.2711	511.3857	527.1824	544.4388	585.7327	587.5592	733.6318	842.9176	906.2546	907.9036	952.4042	1101.2093	1151.9834	1162.2641	1213.2759	1298.684	1333.4067	1415.6962	1434.1802	1658.6454	1858.3843	2331.0212	3061.2361	3098.5001	3251.3454	3659.5349
O=C1CC(=CN1)C#N	O=C1CC(=CN1)C#N	
InChI=1S/C5H4N2O/c6-2-4-1-5(8)7-3-4/h3H,1H2,(H,7,8)	InChI=1S/C5H4N2O/c6-2-4-1-5(8)7-3-4/h3H,1H2,(H,7,8)
