18
gdb 46782	2.83112	1.70923	1.3282	3.3579	72.99	-0.2538	0.0116	0.2654	988.7329	0.14982	-439.068429	-439.061229	-439.060284	-439.100044	28.936	
N	-0.1024969985	 1.2496604861	-0.6196029676	-0.486221
C	-0.0017474282	 0.117501391	-0.0599669429	 0.344718
C	-1.2709223583	-0.69483459	 0.1749824495	-0.15199
O	-1.5129123757	-1.2003534243	 1.4741113684	-0.261857
C	-0.4845888024	-1.9512198508	 2.0886823302	 0.121908
C	 0.7092445099	-1.0642709931	 2.5466047321	-0.256867
C	 1.4119424734	-1.4188613119	 1.2124963431	 0.111463
C	 0.4963390237	-2.6674280638	 1.1165762401	-0.282353
O	 1.2231331798	-0.4348007909	 0.1916357321	-0.262081
H	 0.8291046636	 1.6395866335	-0.783830999	 0.219959
H	-2.1026380341	-0.0280937452	-0.0487952341	 0.147077
H	-1.2821832801	-1.50908307	-0.5659663931	 0.112422
H	-0.9784418683	-2.5603389413	 2.8483828443	 0.087989
H	 0.4941087725	-0.0095431949	 2.731934926	 0.122457
H	 1.2357753785	-1.4890960386	 3.4051873333	 0.109195
H	 2.4895854587	-1.5835163107	 1.2220829321	 0.092662
H	 0.9678428425	-3.5195634948	 1.6130088776	 0.114576
H	 0.147966933	-2.9860609903	 0.1333811878	 0.116941
82.6229	200.6259	322.3786	337.561	365.0512	441.0871	451.3138	483.0205	533.0689	664.6186	757.4414	793.7495	824.5571	885.8462	897.9141	914.0728	932.1994	951.9647	993.8451	1016.6215	1062.924	1074.087	1104.9341	1106.7942	1163.0935	1208.3356	1226.9903	1250.3336	1271.5185	1285.3801	1290.8312	1325.2433	1379.4165	1399.6133	1413.8447	1451.7122	1475.3163	1498.0368	1735.0218	2987.2076	3065.5373	3073.6411	3093.3927	3111.3193	3129.29	3133.112	3145.0307	3451.772
N=C1COC2CC(C2)O1	[NH][C]1CO[C@@H]2C[C@@H](C2)O1	
InChI=1S/C6H9NO2/c7-6-3-8-4-1-5(2-4)9-6/h4-5,7H,1-3H2	InChI=1S/C6H9NO2/c7-6-3-8-4-1-5(2-4)9-6/h4-5,7H,1-3H2/t4-,5+
