21
gdb 62713	3.6538	1.41409	1.18655	1.3111	82.26	-0.2523	0.0788	0.3311	1105.894	0.183747	-387.059968	-387.052118	-387.051174	-387.091613	32.474	
C	-0.1687861118	 1.5590669787	-0.0317074307	-0.480569
C	 0.0043195991	 0.046117576	-0.0132261471	 0.455563
O	-1.2494803336	-0.5724710315	-0.2653885161	-0.485343
C	 1.2489296485	-0.607951495	-0.6865815668	-0.139315
C	 2.1245272903	-0.1588746279	 0.5300971855	-0.011945
C	 3.1966265132	-1.2175045278	 0.7922482119	-0.242131
C	 2.3661461934	-2.5052850033	 0.5426055389	-0.248153
C	 1.0155374052	-1.8809166627	 0.198541246	 0.003717
C	 0.7673038062	-0.6476876011	 1.1373671051	-0.107168
H	 0.7513650842	 2.1006406811	 0.1944501346	 0.121786
H	-0.5062754864	 1.8904073238	-1.0227415212	 0.103789
H	-0.9332095206	 1.855087141	 0.6935932295	 0.125422
H	-1.624596441	-0.1700925993	-1.0553570954	 0.273179
H	 1.534120327	-0.5844496925	-1.7420617226	 0.053858
H	 2.4194321503	 0.885214516	 0.6321210254	 0.057085
H	 4.0451607659	-1.1187633742	 0.1073628398	 0.094365
H	 3.5914829943	-1.1564047366	 1.8117338791	 0.095094
H	 2.7605464094	-3.1114309483	-0.279515648	 0.094374
H	 2.3082113591	-3.1506705191	 1.4251179109	 0.095685
H	 0.1777127109	-2.5321359416	-0.0360629012	 0.079969
H	 0.4899786764	-0.6718072656	 2.1939795825	 0.060739
192.7349	202.6302	241.9423	261.4512	268.2346	300.5954	396.0797	479.4888	531.4834	586.9748	719.5911	754.4234	760.2749	788.9125	828.1693	884.4132	900.2664	933.9595	949.9682	960.4393	977.5984	993.7805	1035.8361	1061.3806	1072.8392	1081.495	1111.0817	1142.7309	1160.6441	1176.4825	1180.2721	1220.3995	1232.3025	1251.6526	1252.4226	1270.5763	1284.4887	1318.7581	1370.7574	1394.9071	1411.3486	1488.4917	1492.4043	1495.6176	1510.2887	3021.7845	3038.8007	3048.9026	3070.005	3070.7101	3082.5141	3087.2574	3090.7079	3113.1844	3132.4929	3157.397	3811.1147
CC1(O)C2C3CCC2C13	C[C@@]1(O)[C@H]2[C@@H]3CC[C@H]2[C@H]13	
InChI=1S/C8H12O/c1-8(9)6-4-2-3-5(6)7(4)8/h4-7,9H,2-3H2,1H3	InChI=1S/C8H12O/c1-8(9)6-4-2-3-5(6)7(4)8/h4-7,9H,2-3H2,1H3/t4-,5+,6-,7+,8-
