16
gdb 44839	2.46071	1.86703	1.42229	5.0019	68.33	-0.2465	-0.0341	0.2123	934.9893	0.127013	-437.950897	-437.944097	-437.943153	-437.982095	27.339	
O	 0.0091322034	 0.0276874629	 0.0629158949	-0.312886
C	-0.0151292926	 1.2260766536	 0.0350129719	 0.427073
C	-1.2658502207	 2.1360895883	 0.0173339435	-0.333073
C	-0.6096479816	 3.5352059965	 0.0074220117	-0.017535
C	 0.6087649397	 3.3040974114	-0.9149607382	-0.233902
C	 1.1949399205	 2.1860757504	-0.0186380456	-0.237729
C	 1.1667243202	 2.880854285	 1.3671858661	 0.404157
O	 1.8783625612	 2.6862819186	 2.3202183761	-0.367089
N	 0.0953078875	 3.7487040136	 1.2796181921	-0.296942
H	-1.8520781594	 1.9385421196	-0.8864608106	 0.134898
H	-1.9053084994	 1.9484235172	 0.8833119742	 0.133246
H	-1.2641315585	 4.3690927867	-0.2422567648	 0.092402
H	 0.3317760805	 2.9622781091	-1.9154612902	 0.117276
H	 1.2546809407	 4.1809715553	-0.9860004083	 0.126088
H	 2.1407507846	 1.7119905692	-0.2618903302	 0.108329
H	-0.3578179761	 4.0805600728	 2.1175882976	 0.255688
121.5932	150.0614	395.8116	419.0022	426.2798	450.4592	498.0373	555.7987	601.9441	662.3939	722.1789	765.3319	823.4178	836.053	893.5595	922.3755	955.303	977.0714	999.6315	1028.3302	1080.1535	1124.5653	1152.8663	1175.6013	1209.6164	1222.5288	1249.1499	1286.9026	1312.6812	1352.5165	1400.3633	1451.0282	1502.1571	1843.9542	1873.8023	3058.2981	3071.1813	3113.3488	3127.1084	3131.5624	3178.9033	3629.32
O=C1CC2CC1C(=O)N2	O=C1C[C@@H]2C[C@H]1C(=O)N2	
InChI=1S/C6H7NO2/c8-5-2-3-1-4(5)6(9)7-3/h3-4H,1-2H2,(H,7,9)	InChI=1S/C6H7NO2/c8-5-2-3-1-4(5)6(9)7-3/h3-4H,1-2H2,(H,7,9)/t3-,4+/m0/s1
