15
gdb 20419	6.07338	1.49123	1.26176	2.5956	67.5	-0.2024	0.0249	0.2273	931.0679	0.121615	-358.822755	-358.816059	-358.815115	-358.854299	25.021	
C	-0.1986399293	 1.1933922503	-0.415648494	-0.226515
C	 1.1982934026	 1.1618456305	 0.1004642119	-0.22407
N	 0.3699399655	-0.0416422317	 0.1133007349	-0.152971
C	-0.0934896511	-0.5282868639	 1.3476636685	 0.209639
C	-1.400673574	-0.7543827668	 1.7402177162	-0.125719
N	-1.3275481163	-1.3150929892	 2.9772340139	-0.176515
N	-0.0707200309	-1.4659171847	 3.4212701643	-0.220837
C	 0.6867244698	-0.9929510165	 2.4344047104	-0.071929
H	-0.939117562	 1.7074888527	 0.1937291097	 0.115478
H	-0.3924387468	 1.200779524	-1.4841239059	 0.120228
H	 2.0392539977	 1.1421840765	-0.5861816312	 0.12098
H	 1.3870461138	 1.6536789692	 1.052106874	 0.121333
H	-2.3397546659	-0.5762260157	 1.2423834538	 0.128681
H	-2.0901888522	-1.6056809733	 3.564083923	 0.273671
H	 1.7627842192	-0.9988847615	 2.5246512204	 0.108549
45.0539	173.7529	200.8617	392.0711	478.1455	485.4443	563.1249	661.4378	699.9026	761.8694	822.9659	871.3394	900.3882	912.5293	946.8094	1011.1728	1036.335	1066.4759	1115.7156	1129.373	1160.076	1174.353	1176.8438	1225.8089	1275.4161	1357.7792	1398.913	1413.7627	1490.2068	1503.0829	1516.845	1620.5691	3102.0577	3106.9101	3186.6815	3200.8167	3248.7127	3268.6017	3680.82
C1CN1C1=CNN=C1	C1CN1c1c[nH]nc1	
InChI=1S/C5H7N3/c1-2-8(1)5-3-6-7-4-5/h3-4H,1-2H2,(H,6,7)	InChI=1S/C5H7N3/c1-2-8(1)5-3-6-7-4-5/h3-4H,1-2H2,(H,6,7)
