12
gdb 16266	3.33819	2.05992	1.45639	4.7836	61.32	-0.2762	-0.0519	0.2243	815.2138	0.083814	-377.497089	-377.490513	-377.489568	-377.527986	24.1	
O	-0.0190180924	 0.0095284858	 0.06049329	-0.268467
C	-0.0076730556	 1.1983711868	 0.1104929661	 0.365767
C	-1.0660484168	 2.3124381199	 0.0033789131	-0.287686
N	 0.0205369839	 3.3420825289	-0.1853989373	-0.128814
C	 0.7870119998	 3.3161094492	 1.0453340162	-0.256061
C	 1.0872495521	 2.2485459208	 0.029379245	 0.069067
C	 2.3243845103	 2.1565144735	-0.6755373435	 0.214727
N	 3.3272729001	 2.0476493809	-1.2410998053	-0.324852
H	-1.6587806706	 2.2008111614	-0.9077927451	 0.164426
H	-1.7224683359	 2.5031793486	 0.8560840019	 0.145785
H	 1.5275763789	 4.105430131	 1.1261308123	 0.165255
H	 0.3055806763	 3.0299130634	 1.9783407566	 0.140853
125.1954	152.2139	213.4908	388.2777	444.3328	505.7626	510.7742	590.5208	645.9229	683.5195	770.9183	859.714	868.2404	992.1304	1012.4565	1031.9583	1101.0771	1138.6046	1193.3297	1221.4352	1256.9994	1328.836	1460.2568	1503.5292	1913.8874	2354.6896	3070.7271	3107.6455	3132.9687	3210.6662
O=C1CN2CC12C#N	O=C1CN2C[C@@]12C#N	
InChI=1S/C5H4N2O/c6-2-5-3-7(5)1-4(5)8/h1,3H2	InChI=1S/C5H4N2O/c6-2-5-3-7(5)1-4(5)8/h1,3H2/t5-,7?/m0/s1
