19
gdb 40420	4.09828	1.23636	1.0892	2.6551	80.63	-0.2206	0.0182	0.2388	1149.6335	0.161912	-382.023868	-382.016339	-382.015395	-382.055909	30.03	
C	 0.5578109847	 1.4746977994	 0.1641167867	-0.236522
N	 1.1827782394	 0.2248982398	-0.3047681607	-0.323414
C	-0.2430517559	 0.2252885619	 0.0537188975	-0.154963
C	-0.6197268649	-0.5805300185	 1.2542065227	 0.35729
N	 0.4361531582	-0.9807554594	 2.2234121985	-0.385186
C	-0.2677782615	-2.0188276947	 1.439240774	-0.091236
C	-1.4101038907	-2.6987417893	 2.186723757	-0.266027
C	-2.3775894219	-1.5579374993	 2.4394157649	-0.075756
C	-1.9551222889	-0.4083196532	 1.9096384358	-0.130549
H	 0.8963220672	 1.8085748756	 1.1405465799	 0.130332
H	 0.3768182944	 2.2685636056	-0.5551721947	 0.114986
H	 1.2976341241	 0.2390146639	-1.3136069151	 0.236648
H	-0.9656988742	 0.1892474045	-0.7603965131	 0.088295
H	 1.3295974063	-0.8182592626	 1.7534267215	 0.240595
H	 0.2971243093	-2.5596450226	 0.6873683067	 0.087952
H	-1.8685269813	-3.4974566454	 1.5886039662	 0.102113
H	-1.0665977232	-3.1561998947	 3.1225181762	 0.119795
H	-3.2844981546	-1.6833624677	 3.0205394381	 0.094179
H	-2.4680942564	 0.5448207769	 1.9652709776	 0.091469
85.6245	156.7694	201.2107	295.9142	317.0197	442.4873	469.803	512.918	644.539	716.0111	746.4254	784.3046	860.7903	866.3944	887.039	914.9508	919.9989	928.5366	953.6218	969.1951	975.4306	1007.748	1042.9238	1079.1687	1119.6757	1123.5851	1128.9226	1172.5128	1190.7428	1206.3382	1239.409	1271.8917	1289.7287	1297.8604	1334.1816	1368.958	1415.5806	1461.7255	1465.1693	1511.3268	1668.0825	3019.6895	3057.2969	3111.835	3116.0258	3166.9902	3184.9286	3201.804	3210.0661	3438.6778	3519.1231
C1NC1C12NC1CC=C2	C1N[C@H]1[C@]12N[C@H]1CC=C2	
InChI=1S/C7H10N2/c1-2-5-7(3-1,9-5)6-4-8-6/h1,3,5-6,8-9H,2,4H2	InChI=1S/C7H10N2/c1-2-5-7(3-1,9-5)6-4-8-6/h1,3,5-6,8-9H,2,4H2/t5-,6+,7+/m0/s1
