16
gdb 30078	3.41918	1.19921	0.89284	2.3	75.13	-0.2139	0.0064	0.2203	1250.3018	0.125204	-434.100341	-434.091691	-434.090747	-434.135146	29.907	
C	-0.0039729419	 1.433174836	 0.1139258321	-0.356739
N	 0.0102080611	-0.0154966191	 0.0339932881	-0.093634
C	 0.0307539605	-0.7962676794	-1.1152521193	-0.130823
C	 0.0398565698	-2.0906889252	-0.685342212	-0.096856
N	 0.0259724921	-2.1479645236	 0.6972301576	-0.372095
C	 0.0088721211	-0.8966468765	 1.067994177	 0.503292
O	-0.0096206303	-0.3967462447	 2.3276072076	-0.231575
C	-0.0106681241	-1.2861992498	 3.3683216475	 0.111367
N	-0.0267592691	-0.8214533321	 4.5372642181	-0.434458
H	 0.8878049435	 1.8535986523	-0.3602779062	 0.145114
H	-0.893054977	 1.8372454898	-0.3791844612	 0.14509
H	-0.0178271222	 1.7237188799	 1.1639501925	 0.174836
H	 0.0359345475	-0.3493964015	-2.0952102365	 0.129626
H	 0.055537061	-2.9916365382	-1.2783678848	 0.114589
H	 0.0030571066	-2.3242197486	 3.0335247112	 0.153862
H	-0.0257178584	-1.5866907393	 5.2091845883	 0.238404
43.5829	66.1015	101.1945	160.9583	181.3996	304.5593	320.4862	479.2632	522.0051	629.9891	686.6555	688.8745	733.508	834.9584	838.3576	845.9509	938.3764	1044.4856	1063.4871	1067.1308	1109.2504	1154.8619	1179.8764	1239.5937	1283.4674	1303.8525	1377.922	1392.8885	1449.4841	1492.85	1501.8232	1529.3839	1563.4946	1576.9329	1746.5063	3045.7002	3105.7033	3133.8921	3164.0653	3255.2303	3282.9628	3516.9372
CN1C=CN=C1OC=N	Cn1ccnc1O[CH][NH]	
InChI=1S/C5H7N3O/c1-8-3-2-7-5(8)9-4-6/h2-4,6H,1H3	InChI=1S/C5H7N3O/c1-8-3-2-7-5(8)9-4-6/h2-4,6H,1H3
