18
gdb 45906	2.67835	1.50987	1.07684	3.5419	81.44	-0.2241	-0.0262	0.198	1125.3117	0.150321	-401.984379	-401.976504	-401.97556	-402.016813	30.462	
O	 0.0209336643	-0.1150316522	-0.2295103615	-0.363895
C	-0.0333113858	 1.0937173755	-0.0830355783	 0.339534
N	-1.2671552946	 1.7049164548	 0.1018355248	-0.330549
C	-1.7112297581	 3.0242159253	-0.1460361471	-0.022864
C	-1.2988345006	 4.1996452497	 0.3347048477	-0.031327
C	-0.2594741716	 4.564990554	 1.3552039901	-0.261061
C	 0.6175709875	 3.4093702037	 1.8647679353	-0.27631
C	 1.509250301	 2.8817361844	 0.7751797854	-0.046323
C	 1.1997521187	 1.9203851656	-0.0943184483	-0.12837
H	-1.9919186405	 1.0042742686	 0.0066407688	 0.247765
H	-2.5559553245	 3.039818077	-0.8322097584	 0.104329
H	-1.844833618	 5.0533412068	-0.0615284028	 0.093083
H	 0.3835099521	 5.3545351043	 0.9415884049	 0.111059
H	-0.7737303723	 5.0321533801	 2.2077818923	 0.113377
H	 1.2326609215	 3.7734747279	 2.6942551892	 0.105134
H	-0.0221202507	 2.6170949061	 2.2628508391	 0.128649
H	 2.4890278797	 3.3485439732	 0.6905426757	 0.101136
H	 1.9316780819	 1.5754541352	-0.8176716869	 0.116633
91.7943	138.041	214.7314	250.0602	282.4478	393.8875	432.8353	473.8746	545.6438	620.1173	658.47	712.0533	759.4348	777.5807	828.9946	848.5466	859.1318	903.6631	972.2323	985.7196	1016.5096	1045.4839	1067.8141	1119.0305	1182.039	1232.2251	1264.9084	1297.3125	1341.6827	1365.7309	1392.8644	1418.739	1456.1458	1475.3758	1480.1546	1498.1764	1709.8818	1740.6958	1769.6224	3000.5076	3022.8177	3051.3996	3098.0996	3129.8153	3143.2395	3155.7952	3188.3351	3569.5543
O=C1NC=CCCC=C1	O=C1NC=CCCC=C1	
InChI=1S/C7H9NO/c9-7-5-3-1-2-4-6-8-7/h3-6H,1-2H2,(H,8,9)/b5-3-,6-4-	InChI=1S/C7H9NO/c9-7-5-3-1-2-4-6-8-7/h3-6H,1-2H2,(H,8,9)/b5-3-,6-4-
