15
gdb 71986	2.90442	1.69044	1.2349	3.0648	70.76	-0.2462	0.0088	0.255	975.6485	0.113173	-416.735876	-416.72855	-416.727606	-416.767519	28.423	
O	-0.0769148856	 1.3341961204	 0.0108682547	-0.441877
C	 0.0763567865	-0.0222294176	-0.0134109797	 0.334102
C	 0.936584857	-0.9098989735	-0.8985874373	-0.24273
N	 0.0373326476	-2.0701758968	-0.5068746723	-0.166301
C	 0.3902304391	-2.2646129055	 0.9536687627	-0.233472
C	-0.2505281244	-0.9168591864	 1.2464308295	 0.127197
C	-0.6405570341	-0.3143034537	 2.4721532567	 0.166474
N	-0.9282676864	 0.1786914968	 3.480087696	-0.350904
C	-1.0115354701	-1.0315814027	-0.0673393065	-0.120385
H	 0.5462946979	 1.7206671684	 0.6376538289	 0.305473
H	 0.7964333553	-0.6827688969	-1.9580798041	 0.131528
H	 1.9988458458	-1.0559564878	-0.678668646	 0.110241
H	-0.1787905801	-3.1015065714	 1.3642619194	 0.132727
H	 1.4573869811	-2.4019987299	 1.153910612	 0.116347
H	-2.0642848795	-1.0279194837	-0.3101080439	 0.13158
118.761	151.9398	252.3528	312.2578	351.653	431.8637	476.2042	516.4521	543.4239	588.3128	649.2454	691.5179	804.9971	847.1619	852.3164	929.4688	952.1136	1007.6566	1051.2571	1076.6125	1086.5039	1115.8571	1148.3883	1176.4956	1213.7069	1241.8883	1267.279	1303.1943	1356.0926	1443.1989	1501.8608	1521.0952	2339.1537	3047.9427	3055.9594	3115.1237	3118.4602	3230.5961	3788.7765
OC12CN3CC1(C#N)C23	O[C@@]12CN3C[C@]1(C#N)[C@@H]23	
InChI=1S/C6H6N2O/c7-1-5-2-8-3-6(5,9)4(5)8/h4,9H,2-3H2	InChI=1S/C6H6N2O/c7-1-5-2-8-3-6(5,9)4(5)8/h4,9H,2-3H2/t4-,5+,6+/m0/s1
