15
gdb 25860	4.12907	1.12197	0.88413	10.0232	82.11	-0.1581	-0.0481	0.11	1224.2986	0.114122	-450.172331	-450.164093	-450.163149	-450.205009	31.578	
N	 0.0789486314	 1.3576966534	 0.1651648918	-0.559775
C	-0.0558435495	 0.0109729809	 0.017236696	 0.291297
N	 1.0467646298	-0.7407723339	-0.1223153444	-0.512732
H	 1.9523168739	-0.404258162	 0.157845184	 0.264901
H	 0.8424253983	-1.7382346352	-0.0961318949	 0.298066
C	-1.2805019948	-0.6801005385	 0.0313471249	 0.33531
C	-2.5755653455	-0.165131932	 0.0092251344	-0.188234
N	-3.3726447951	-1.2415228639	 0.0128909508	-0.29751
C	-2.5571995972	-2.4729714559	 0.0289340485	 0.39518
O	-3.0790453836	-3.5725342402	 0.0290651425	-0.447549
N	-1.2713311533	-2.0582138477	 0.0407819259	-0.503206
H	 0.8773813388	 1.8015907326	-0.2626815752	 0.26784
H	-0.7645426104	 1.9069940342	 0.1446371656	 0.274709
H	-2.9509818218	 0.8475850269	-0.0225174718	 0.123152
H	-4.380330681	-1.2485234688	 0.0023677818	 0.25855
95.1445	133.7549	175.8294	292.0531	339.7875	382.2371	398.9607	451.576	476.3055	544.3438	558.1665	618.5104	625.5857	680.9633	707.9441	740.4406	755.1868	766.152	807.9464	980.1297	1057.0028	1092.2043	1108.1107	1171.4698	1281.6232	1327.3411	1425.9826	1507.6817	1522.8686	1594.1327	1648.2173	1677.4747	1827.07	3227.4514	3469.3723	3586.2485	3646.7167	3690.6162	3700.9871
NC(=[NH2+])C1=CNC(=O)[N-]1	NC(=[NH2])c1c[nH]c(=O)n1	
InChI=1S/C4H6N4O/c5-3(6)2-1-7-4(9)8-2/h1H,(H5,5,6,7,8,9)	InChI=1S/C4H9N4O/c5-3(6)2-1-7-4(9)8-2/h2H,1,5-6H2,(H2,7,8,9)
