23
gdb 41468	2.96096	1.55604	1.23324	0.1456	88.31	-0.2556	0.0832	0.3388	1115.1151	0.209058	-351.149405	-351.141728	-351.140783	-351.181695	31.714	
C	 0.2789824455	 1.642858443	 0.4641926746	-0.218156
C	 1.6450276775	 1.5059121671	-0.2747428913	-0.305455
C	 1.282738501	 0.0590870371	-0.6807994385	 0.40909
C	 1.6163198202	-0.5240120544	-2.0590271556	-0.328698
C	 2.5150118012	-1.7434983067	-1.7560001273	-0.193563
C	 1.9404956402	-2.3077447029	-0.4417356288	-0.229203
C	 1.58809742	-1.0520981125	 0.3795276588	-0.029317
C	 0.1423353251	-0.9221846576	 0.9509540132	-0.252859
C	-0.1486343623	 0.2337295316	-0.0369438997	-0.077497
H	 0.3431245933	 1.7330562991	 1.5527248186	 0.093486
H	-0.3449974474	 2.4603854671	 0.095399721	 0.097772
H	 1.7218230693	 2.1765723074	-1.1363471842	 0.094076
H	 2.5499880123	 1.6271650011	 0.3301284521	 0.088977
H	 0.7007002958	-0.8522891261	-2.5670176809	 0.095551
H	 2.1006711556	 0.2035243211	-2.7184217218	 0.091094
H	 2.5363196184	-2.4779448981	-2.5669822213	 0.090388
H	 3.5478934038	-1.4099994081	-1.5948280897	 0.096345
H	 1.0321531053	-2.8842443978	-0.6581687172	 0.091958
H	 2.631885402	-2.9808651409	 0.0740599636	 0.092646
H	 2.3855168685	-0.8049625415	 1.0880218591	 0.056522
H	-0.4634490663	-1.8167581735	 0.7763041778	 0.092075
H	 0.0616169554	-0.6611296778	 2.0106056298	 0.091051
H	-1.0726044444	 0.1858689531	-0.6176153824	 0.053715
53.9522	190.3252	192.3916	320.5075	350.2556	429.3938	438.0291	540.7482	630.6058	689.8549	738.0711	793.8398	818.8469	837.7961	856.1738	877.9555	887.4405	920.7366	942.7372	962.3701	986.472	999.7273	1019.2958	1034.8722	1067.403	1102.8983	1129.5652	1130.9018	1185.6525	1206.3275	1208.0347	1217.5522	1233.8951	1243.9688	1256.3529	1274.86	1286.3651	1292.2386	1301.3016	1318.5989	1331.5731	1340.1202	1351.695	1474.2648	1480.7031	1485.2462	1490.568	1496.2675	1504.9573	3022.9424	3023.6109	3029.4087	3034.4026	3039.5933	3044.0236	3052.7253	3071.0112	3074.4469	3079.6532	3081.9503	3087.0795	3093.1571	3107.966
C1CC23CCCC2CC13	C1C[C@@]23CCC[C@@H]2C[C@@H]13	
InChI=1S/C9H14/c1-2-7-6-8-3-5-9(7,8)4-1/h7-8H,1-6H2	InChI=1S/C9H14/c1-2-7-6-8-3-5-9(7,8)4-1/h7-8H,1-6H2/t7-,8-,9+/m1/s1
