23
gdb 84037	2.50634	1.37958	1.10685	1.2801	84.97	-0.242	0.0743	0.3163	1212.6464	0.208719	-388.292202	-388.283746	-388.282802	-388.324762	34.304	
O	-0.1357082847	 1.4822789792	-0.0652126928	-0.412651
C	-0.0487063682	 0.0852648978	-0.019967577	 0.048496
C	-0.4669221812	-0.6573083649	 1.233754713	-0.059691
C	-0.8973893882	 0.077597949	 2.4899133826	-0.227634
C	-2.1758011889	-0.4956408713	 3.1302744235	-0.174211
C	-3.4856615265	-0.0719958803	 2.4451171537	-0.175793
C	-3.6972943624	-0.5348274035	 0.9938947003	-0.177375
C	-2.6904956378	 0.0398372029	-0.0197187995	-0.219587
C	-1.3489729809	-0.6712464677	-0.0038686725	-0.038905
H	 0.588039727	 1.8420048822	 0.4582531316	 0.288583
H	 0.7716123971	-0.3280064796	-0.6071684403	 0.080388
H	 0.0728028262	-1.5817420901	 1.4271797224	 0.075795
H	-0.0775721828	 0.0321961113	 3.21816066	 0.086271
H	-1.0492617056	 1.1402693073	 2.2681929399	 0.098404
H	-2.1085398451	-1.5919291522	 3.1566918356	 0.088678
H	-2.2226039864	-0.1690848536	 4.1768962654	 0.085654
H	-4.3237656128	-0.4407271333	 3.0502077607	 0.086824
H	-3.5541862137	 1.0251537149	 2.4735978409	 0.090845
H	-3.6768747023	-1.6325691891	 0.9483750031	 0.086728
H	-4.7095151462	-0.2378675187	 0.6918173405	 0.086348
H	-3.1082859089	-0.0379017238	-1.0308128423	 0.089899
H	-2.5489054226	 1.10931015	 0.164554554	 0.114185
H	-1.342254305	-1.6056673564	-0.5599555427	 0.07875
114.9961	162.7431	245.2388	261.3505	304.0484	310.8101	324.286	352.8571	469.4109	545.2579	557.6345	613.1779	740.7341	757.9173	783.3099	846.95	878.616	888.1162	899.3073	953.0343	968.0814	1028.533	1043.6492	1065.5984	1070.4501	1094.3701	1114.8212	1140.5084	1183.9704	1207.9816	1224.5616	1240.6489	1252.0469	1289.2408	1295.9543	1305.0196	1339.3931	1361.8873	1379.7552	1388.2225	1392.5069	1399.7229	1404.818	1461.2641	1482.8861	1483.0893	1489.1485	1494.7086	1505.2343	3000.858	3006.7618	3007.8526	3018.3734	3028.6779	3044.5242	3046.1743	3051.5175	3063.1001	3082.9563	3088.6818	3120.037	3134.7576	3804.7897
OC1C2CCCCCC12	O[C@H]1[C@H]2CCCCC[C@@H]12	
InChI=1S/C8H14O/c9-8-6-4-2-1-3-5-7(6)8/h6-9H,1-5H2	InChI=1S/C8H14O/c9-8-6-4-2-1-3-5-7(6)8/h6-9H,1-5H2/t6-,7+,8-
