21
gdb 61238	2.87528	0.91551	0.76753	4.8354	83.51	-0.2578	0.0361	0.2939	1522.0629	0.181684	-383.271347	-383.261198	-383.260254	-383.307117	36.631	
C	-1.2926503122	 2.6045549121	 1.3028018756	-0.406395
C	-0.8496676043	 1.40037501	 0.463637266	 0.021585
C	 0.3471901412	 0.6528617006	 1.1029298524	-0.346972
C	 1.5378914056	 1.488095992	 1.2403977228	 0.263327
N	 2.4728101466	 2.160620452	 1.3379110157	-0.312863
C	-1.9971045503	 0.4267799703	 0.2720594107	-0.025289
N	-3.0178237006	 0.7923399661	-0.7196662393	-0.344929
C	-2.20914582	-0.4200091118	-0.9378287027	-0.003943
C	-1.3068918154	-0.4410497198	-2.1492089787	-0.400496
H	-0.4785663305	 3.3240024523	 1.4278589241	 0.139785
H	-2.1293146972	 3.1095049563	 0.8131639293	 0.136195
H	-1.6214475386	 2.2903193228	 2.3009626471	 0.110071
H	-0.5351843132	 1.7637500993	-0.5191021273	 0.101691
H	 0.0692948982	 0.2811940238	 2.0972788437	 0.146071
H	 0.6079708929	-0.2243163491	 0.500353778	 0.152118
H	-2.3548877273	-0.0016200458	 1.2108762864	 0.077549
H	-3.9486486289	 0.5574590395	-0.3876142139	 0.232635
H	-2.7035766223	-1.3718588375	-0.7435925023	 0.084281
H	-0.8575760413	 0.53688349	-2.3328776969	 0.133106
H	-0.505412713	-1.1786780659	-2.0303722969	 0.116327
H	-1.8795346993	-0.712673137	-3.0422764438	 0.126145
49.3816	69.7175	118.9931	153.9745	187.2501	229.1856	249.3173	313.6146	372.2011	384.8951	396.9359	436.8198	538.0012	579.3762	782.6224	816.7863	855.4993	893.5984	900.5952	961.0757	964.9043	1008.1681	1017.2886	1052.1388	1101.7216	1111.7973	1127.8094	1161.401	1210.1389	1245.0115	1262.2938	1276.2354	1289.2273	1342.8581	1352.2446	1405.1417	1409.389	1430.376	1464.2888	1469.9897	1490.4475	1498.2354	1501.4559	1507.044	2360.084	3030.5245	3034.6819	3036.8731	3062.6058	3076.7618	3083.4101	3095.4576	3102.8483	3103.8672	3125.3883	3136.3051	3511.8482
CC(CC#N)C1NC1C	C[C@@H](CC#N)[C@H]1N[C@H]1C	
InChI=1S/C7H12N2/c1-5(3-4-8)7-6(2)9-7/h5-7,9H,3H2,1-2H3	InChI=1S/C7H12N2/c1-5(3-4-8)7-6(2)9-7/h5-7,9H,3H2,1-2H3/t5-,6-,7+/m0/s1
