17
gdb 31857	5.06106	1.04589	0.87623	1.2858	80.77	-0.2318	-0.0393	0.1925	1314.5197	0.136601	-418.064662	-418.056213	-418.055269	-418.098093	30.462	
C	 0.0377671845	 1.3994918308	 0.0875742279	-0.23406
O	-0.086168263	-0.0131667214	-0.0751537932	-0.261779
C	 0.5591703389	-0.5649135721	-1.1170623587	 0.417807
N	 1.2715492397	 0.1792166192	-1.9439013856	-0.34122
C	 1.8770415372	-0.4655570048	-2.9518405647	-0.07184
C	 1.7778770039	-1.8381050388	-3.1399188041	 0.306039
C	 2.4604703261	-2.5524841113	-4.2732428748	-0.470585
N	 1.0454370417	-2.5807183684	-2.2844385439	-0.285499
C	 0.4442401268	-1.9586975865	-1.2879893226	-0.091439
H	 1.0827927898	 1.6887616338	 0.2320195077	 0.136057
H	-0.351663711	 1.9317788733	-0.7851423311	 0.136056
H	-0.5492334244	 1.6435265925	 0.9736977946	 0.131201
H	 2.4633412904	 0.1473529845	-3.6322333262	 0.108684
H	 3.0235259805	-1.8573457872	-4.9013178653	 0.12088
H	 3.1507446556	-3.3120554656	-3.8920587205	 0.13948
H	 1.7282862217	-3.071171247	-4.9006215017	 0.139481
H	-0.1488393785	-2.5454075011	-0.5917875877	 0.120736
82.9577	99.9739	144.667	186.6361	216.4143	344.0224	355.1668	432.1655	441.9171	558.424	581.672	653.6147	760.5211	790.845	879.4576	920.2705	958.6674	1004.0037	1038.3227	1060.6706	1063.6193	1178.5936	1200.6635	1234.7652	1280.2048	1313.7935	1344.0276	1387.7549	1414.1285	1468.9736	1475.8382	1480.1276	1490.9518	1499.0928	1521.4561	1585.4319	1630.5441	3038.5168	3041.1443	3097.3801	3111.0633	3121.4181	3149.3887	3155.1175	3166.7162
COC1=NC=C(C)N=C1	COc1ncc(C)nc1	
InChI=1S/C6H8N2O/c1-5-3-8-6(9-2)4-7-5/h3-4H,1-2H3	InChI=1S/C6H8N2O/c1-5-3-8-6(9-2)4-7-5/h3-4H,1-2H3
