21
gdb 99908	2.20411	1.34046	1.17557	0.9794	84.3	-0.2565	0.0381	0.2945	1219.9134	0.178888	-387.030481	-387.020165	-387.019221	-387.065345	38.48	
C	-0.1416763132	 1.4451829133	-0.004798606	-0.245862
O	-0.0526177483	 0.0348936847	-0.0420726427	-0.264057
C	 0.7029675313	-0.5414192216	-1.114603534	 0.174778
C	 0.0744616802	-0.2158844702	-2.4855779371	-0.422817
C	 2.0962522257	-0.059224057	-1.0846440064	 0.342219
C	 3.2260985853	 0.352718525	-1.0691697457	-0.512581
C	 0.6193289595	-2.0440945039	-0.8604519354	 0.012516
C	 1.6519369269	-3.0080582348	-1.3815775057	-0.282868
C	 1.5349438982	-2.74757214	 0.1004746134	-0.277239
H	 0.8491640884	 1.918121688	-0.008300901	 0.116663
H	-0.7301688059	 1.8532804297	-0.8382285384	 0.105023
H	-0.6492417196	 1.693951243	 0.9304132938	 0.126644
H	 0.1425510995	 0.8485875702	-2.720385821	 0.122438
H	 0.5924663197	-0.7702864795	-3.2717463025	 0.130924
H	-0.9788083107	-0.51171521	-2.4777965624	 0.121122
H	 4.2250670538	 0.7139051065	-1.0508045583	 0.200139
H	-0.4133629152	-2.3795076913	-0.8767296972	 0.090807
H	 1.3065161943	-3.956939202	-1.7766377733	 0.107956
H	 2.5172490908	-2.5966231256	-1.889407587	 0.120303
H	 2.3197823872	-2.1615553592	 0.5645232438	 0.124536
H	 1.1094583721	-3.5171732055	 0.734428343	 0.109356
76.2389	104.5134	145.6824	165.5752	189.421	206.1496	247.7215	293.6006	317.6956	393.0923	423.4975	448.0246	576.8434	600.5693	631.1328	663.1126	668.1905	784.708	828.8068	853.6237	899.0528	947.4034	965.6371	1060.9495	1072.0892	1081.8417	1089.0179	1108.205	1136.5521	1157.3956	1181.9089	1197.9851	1212.9237	1232.3054	1280.3738	1385.7785	1398.9872	1463.5851	1471.6807	1482.9568	1486.0304	1502.4852	1504.6304	1512.9754	2223.6812	2997.5254	3047.3143	3054.8586	3114.2108	3126.2169	3132.9391	3135.3824	3141.0517	3152.9309	3216.8108	3231.5656	3497.5351
COC(C)(C#C)C1CC1	CO[C@@](C)(C#C)C1CC1	
InChI=1S/C8H12O/c1-4-8(2,9-3)7-5-6-7/h1,7H,5-6H2,2-3H3	InChI=1S/C8H12O/c1-4-8(2,9-3)7-5-6-7/h1,7H,5-6H2,2-3H3/t8-/m0/s1
