14
gdb 17732	4.70059	2.58463	2.12795	1.0519	59.76	-0.2373	0.0592	0.2964	645.2599	0.108401	-382.406252	-382.40113	-382.400186	-382.435117	21.702	
C	-0.0014375802	 1.4421265986	-0.0783539803	-0.173276
O	 1.4279653634	 1.680945134	-0.0080214605	-0.29881
C	 2.039377242	 0.3725618284	 0.2411593666	 0.062175
C	 1.2851358508	-0.6213188634	-0.6464578571	-0.111225
C	 0.8430229634	-1.6066653822	 0.4586764181	-0.013319
O	-0.6285080863	-1.2983195241	 0.3001821354	-0.387437
C	 0.0746804748	-0.0497085445	 0.1590760325	 0.408626
C	 1.1413118459	-0.3240770307	 1.2671705337	-0.111221
H	-0.5189406562	 2.0037218427	 0.7059437231	 0.118485
H	-0.386047951	 1.7290984788	-1.0622458982	 0.118485
H	 3.1161899719	 0.5067876894	 0.3012405973	 0.091326
H	 1.3044717917	-0.7751572283	-1.7230279892	 0.095211
H	 1.0880849399	-2.6505456812	 0.6392374907	 0.105768
H	 0.99978614	-0.1454833675	 2.3307110179	 0.095211
316.6505	400.0364	428.6773	539.9028	668.9689	709.8821	737.5115	747.9749	806.1192	867.4008	875.9807	890.5033	925.2239	939.8307	967.1286	985.8805	1029.2356	1081.8842	1102.0198	1106.9085	1141.1668	1169.2966	1172.7401	1225.6216	1235.5111	1251.9409	1304.5594	1338.0433	1357.114	1523.1418	3039.7184	3088.5149	3140.8822	3148.4381	3152.4452	3165.7457
C1OC2C3C4OC13C24	C1O[C@@H]2[C@H]3[C@@H]4O[C@]13[C@H]24	
InChI=1S/C6H6O2/c1-6-2-4(7-1)3(6)5(2)8-6/h2-5H,1H2	InChI=1S/C6H6O2/c1-6-2-4(7-1)3(6)5(2)8-6/h2-5H,1H2/t2-,3+,4+,5-,6+
