16
gdb 32175	2.85788	1.23639	0.88421	2.2869	74.87	-0.2335	-0.0249	0.2086	1248.8713	0.12583	-437.936443	-437.928463	-437.927518	-437.969388	30.056	
O	 0.1973067018	 1.1510423132	-0.7185127799	-0.406773
C	-0.0136894326	 0.0783601327	 0.1870964865	-0.162157
C	-1.4189824893	-0.4812505912	 0.1372286564	 0.217377
C	-2.0515502582	-0.9665820073	 1.2805774615	-0.086171
N	-3.279599548	-1.4939044791	 1.2805068662	-0.262106
C	-3.9356902036	-1.5511144988	 0.1263067888	-0.049237
C	-3.3984167622	-1.0821038872	-1.0788653626	 0.346902
O	-4.1655723236	-1.185309529	-2.1966553973	-0.433559
C	-2.1191034894	-0.5381150155	-1.0680597507	-0.306475
H	-0.4018382437	 1.8632536528	-0.4700510811	 0.285695
H	 0.7079049692	-0.6915923557	-0.1108849121	 0.130748
H	 0.2333812238	 0.3625219554	 1.2208054575	 0.103116
H	-1.5453013321	-0.9265592874	 2.2428197708	 0.099186
H	-4.9352355717	-1.9780338974	 0.1307349434	 0.116125
H	-3.677849295	-0.837811872	-2.9511012828	 0.300701
H	-1.6625371154	-0.1509094936	-1.9752146346	 0.106627
57.8303	156.1239	224.9743	239.7434	344.4928	370.4762	389.98	443.2375	473.1666	546.8276	561.1175	633.2971	733.8794	747.0051	894.7982	923.8451	952.8234	977.721	1007.0414	1032.2631	1067.0116	1164.1794	1186.4693	1203.2086	1214.9393	1310.4569	1321.2805	1353.8646	1384.3069	1413.9413	1480.059	1495.9326	1512.9124	1624.7789	1636.3261	2995.7772	3054.8749	3146.429	3165.3184	3166.3252	3807.5173	3816.4664
OCC1=CN=CC(O)=C1	OCc1cncc(O)c1	
InChI=1S/C6H7NO2/c8-4-5-1-6(9)3-7-2-5/h1-3,8-9H,4H2	InChI=1S/C6H7NO2/c8-4-5-1-6(9)3-7-2-5/h1-3,8-9H,4H2
