25
gdb 100772	2.23997	1.07599	0.77939	1.3576	89.01	-0.258	0.0807	0.3387	1551.0563	0.22739	-389.477352	-389.466389	-389.465445	-389.513362	40.845	
C	 0.0436144598	 1.5469581312	 0.0356494166	-0.411851
C	-0.0083252473	 0.0107531701	 0.0409632152	 0.046812
C	 0.7126503828	-0.525756693	 1.282331504	-0.087012
O	 2.054330044	-0.0492539971	 1.257648363	-0.423972
C	-1.4546706117	-0.5377917759	-0.0782149039	 0.004185
C	-2.1533575959	-0.015446326	-1.3460849291	-0.39968
C	-1.5080710357	-2.0603804549	-0.0593844485	 0.035821
C	-1.6932923161	-2.8428539076	 1.21788328	-0.270296
C	-2.8108956068	-2.7720171255	 0.208352909	-0.284716
H	 1.0604443887	 1.8849024603	 0.2438009983	 0.135667
H	-0.2627980187	 1.965758603	-0.9256472974	 0.110517
H	-0.6154201657	 1.961822798	 0.8089992948	 0.10212
H	 0.5595728514	-0.3530978997	-0.8282210762	 0.075231
H	 0.1880060537	-0.1796816956	 2.1899024478	 0.075131
H	 0.6946747838	-1.6222099029	 1.2885239219	 0.093944
H	 2.506468509	-0.3920961772	 2.0333677309	 0.284211
H	-2.0235832869	-0.1754145913	 0.7924710826	 0.061573
H	-3.1535343462	-0.4486697408	-1.4372444365	 0.112644
H	-2.2593412184	 1.0719521041	-1.3416320471	 0.114702
H	-1.5885987109	-0.2934905194	-2.2441117086	 0.110097
H	-0.8696430537	-2.5285768446	-0.8068510913	 0.079113
H	-1.16025295	-3.7803051779	 1.3365605739	 0.108369
H	-1.8146333194	-2.2848111793	 2.1409221081	 0.109262
H	-3.6755670526	-2.165095851	 0.4587791395	 0.10924
H	-3.0475060772	-3.6607619872	-0.3661964369	 0.108886
58.7004	91.8046	126.216	151.4152	207.1037	212.7359	237.1424	247.029	286.7315	336.3854	359.47	366.5721	435.1422	495.6703	533.3299	766.1419	817.0865	824.1892	838.0727	914.7322	928.3802	933.6482	964.5489	975.2044	1017.5817	1050.4973	1059.4003	1075.6689	1082.5517	1116.849	1141.8886	1156.8221	1173.4662	1200.9029	1212.7694	1227.2204	1246.5106	1266.666	1294.5001	1324.7207	1358.1172	1373.2614	1400.2372	1409.9635	1417.0288	1455.5027	1469.9263	1492.9993	1497.9836	1501.4048	1506.5134	1516.8726	1523.9864	2951.8621	2981.5945	3003.8275	3030.5037	3033.7312	3042.3692	3099.9007	3105.5546	3118.1962	3120.5849	3124.4527	3129.7983	3137.1228	3201.3368	3216.9056	3835.6365
CC(CO)C(C)C1CC1	C[C@@H](CO)[C@@H](C)C1CC1	
InChI=1S/C8H16O/c1-6(5-9)7(2)8-3-4-8/h6-9H,3-5H2,1-2H3	InChI=1S/C8H16O/c1-6(5-9)7(2)8-3-4-8/h6-9H,3-5H2,1-2H3/t6-,7+/m0/s1
