13
gdb 25444	5.17092	1.09674	0.90483	5.3589	71.71	-0.2553	-0.0778	0.1775	1166.2094	0.090809	-452.814323	-452.807248	-452.806303	-452.846345	25.835	
O	-0.1052796264	-0.0566076957	 0.0009157926	-0.275808
C	-0.0595160383	 1.1414509974	 0.0096147313	 0.185135
N	 1.1338976516	 1.8848395016	 0.0021795475	-0.129707
C	 1.1180668327	 3.2731914603	 0.0135754974	 0.037781
C	 2.2696300933	 3.9580977757	 0.0061650953	-0.260072
C	 3.562631042	 3.2550080752	-0.0147242518	 0.39426
O	 4.6272600474	 3.8306422151	-0.0204124613	-0.332244
N	 3.5054612439	 1.8308701865	-0.0246434813	-0.318632
C	 2.3722537234	 1.2435532255	-0.0166053723	 0.121076
H	-0.9456985504	 1.8006875566	 0.0251037615	 0.116155
H	 0.1337575339	 3.7282390306	 0.0284613794	 0.15101
H	 2.2785444619	 5.0401380145	 0.0150786808	 0.136196
H	 2.292106765	 0.1601954967	-0.0240904392	 0.174849
71.9452	164.9548	232.3161	266.1635	412.8103	420.5257	470.8851	512.5561	623.4883	659.3618	772.6451	806.3317	839.5934	857.1654	978.744	995.0911	1000.9318	1026.1423	1106.8587	1203.1357	1240.5541	1343.9478	1404.1541	1438.5249	1450.9529	1630.1389	1708.7762	1789.728	1840.382	2982.8981	3187.6067	3192.2358	3229.0543
O=CN1C=CC(=O)N=C1	O=Cn1ccc(=O)nc1	
InChI=1S/C5H4N2O2/c8-4-7-2-1-5(9)6-3-7/h1-4H	InChI=1S/C5H4N2O2/c8-4-7-2-1-5(9)6-3-7/h1-4H
