19
gdb 101216	4.12292	0.87516	0.8657	3.5246	72.04	-0.2777	0.0079	0.2856	1419.1923	0.157925	-460.197166	-460.187859	-460.186915	-460.231802	33.952	
C	-0.199332058	 1.5516588487	 0.1303641879	-0.383889
C	 0.0023762248	 0.0371927533	 0.0504093799	-0.197436
C	 0.6540680857	-0.4112380806	-1.2645909531	 0.110164
O	 1.9059010489	 0.2209877447	-1.4900046681	-0.43585
C	 0.8050863916	-1.9274328891	-1.3357302211	 0.114731
C	 1.6311891447	-2.5162415205	-2.4924854378	-0.434834
C	 2.5897000059	-2.9422701451	-1.3839193647	 0.445031
O	 3.6189182625	-3.5222965079	-1.2706483794	-0.309584
O	 1.8271100441	-2.3907933293	-0.3752512928	-0.269992
H	 0.7503566997	 2.0761234634	-0.0017675998	 0.130998
H	-0.882152281	 1.9008630907	-0.6521354067	 0.115292
H	-0.6219649828	 1.8409432762	 1.0967333138	 0.11536
H	 0.6295887975	-0.3094966415	 0.8823904137	 0.112736
H	-0.960219323	-0.4789245556	 0.1575305473	 0.098381
H	 0.0199986032	-0.1033635993	-2.1072332063	 0.096032
H	 2.4867357784	-0.037064944	-0.7635134288	 0.292806
H	-0.1414453904	-2.4362265015	-1.1345684424	 0.098288
H	 1.1840867735	-3.3412988942	-3.0482028727	 0.14174
H	 2.0585223147	-1.7796997783	-3.1737976391	 0.160025
71.1254	77.4419	109.1415	177.2302	213.086	275.756	297.2239	357.0903	410.3162	474.9067	517.111	535.5779	660.7079	734.1557	781.0584	827.598	893.03	904.0667	975.5998	979.1206	1014.0518	1057.1584	1074.628	1102.1404	1115.0726	1129.1267	1168.6086	1231.1262	1255.0569	1264.9599	1326.8665	1333.786	1375.3094	1392.3734	1409.3284	1422.1465	1446.6721	1484.855	1495.6739	1508.5871	1944.4897	3019.0987	3027.3367	3039.0046	3058.4993	3081.2414	3096.7394	3105.2323	3125.1521	3159.0235	3786.243
CCC(O)C1CC(=O)O1	CC[C@@H](O)[C@H]1CC(=O)O1	
InChI=1S/C6H10O3/c1-2-4(7)5-3-6(8)9-5/h4-5,7H,2-3H2,1H3	InChI=1S/C6H10O3/c1-2-4(7)5-3-6(8)9-5/h4-5,7H,2-3H2,1H3/t4-,5-/m1/s1
