16
gdb 65876	3.142	1.19849	1.16337	0.8937	67.45	-0.257	-0.0471	0.2098	1117.4565	0.121965	-475.045916	-475.037186	-475.036241	-475.08003	31.141	
C	-0.1947507323	 1.5187354233	 0.0521688843	-0.425856
C	 0.0974723519	 0.0412158801	-0.0528282923	 0.336995
O	 0.9613077081	-0.2316306048	-1.1443053212	-0.287606
C	 1.9450969098	-1.1713219141	-0.7343359771	-0.174079
C	 1.8426662674	-1.1995660228	 0.7738716495	 0.372292
N	 2.613358894	-1.8074297844	 1.559209341	-0.529982
O	 0.7626563966	-0.4365815395	 1.123500355	-0.256376
C	-1.1625193059	-0.8272443158	-0.2306235903	 0.148696
O	-2.2781173346	-0.3961278163	-0.3214428193	-0.227231
H	 0.7398088473	 2.0650369627	 0.1929069766	 0.131683
H	-0.6825625293	 1.859186774	-0.8631512293	 0.149858
H	-0.8652948611	 1.7106324728	 0.8918475498	 0.146445
H	 1.7597945038	-2.1661489877	-1.1582133139	 0.141051
H	 2.9323587675	-0.8334907943	-1.0607958115	 0.15182
H	 2.3304197712	-1.6826860643	 2.531702623	 0.234852
H	-0.9361506945	-1.9157132491	-0.2866700042	 0.087437
66.5704	77.4922	107.8117	196.1828	246.5144	306.1757	328.6299	427.4956	463.5948	479.527	528.8808	663.0099	724.8117	809.9924	870.2072	888.1918	910.3631	954.2618	985.0896	1038.6493	1061.713	1101.5742	1135.3302	1196.3648	1209.9547	1267.4516	1317.2076	1356.0829	1400.7567	1426.1202	1475.2927	1478.2337	1510.578	1801.8416	1849.151	2887.8598	3032.6985	3066.522	3094.2991	3151.5659	3152.711	3489.6509
CC1(OCC(=N)O1)C=O	C[C@]1(OC[C]([NH])O1)C=O	
InChI=1S/C5H7NO3/c1-5(3-7)8-2-4(6)9-5/h3,6H,2H2,1H3	InChI=1S/C5H7NO3/c1-5(3-7)8-2-4(6)9-5/h3,6H,2H2,1H3/t5-/m1/s1
