15
gdb 23564	2.457	1.59011	1.08958	1.3129	70.36	-0.2448	-0.0156	0.2292	1077.2836	0.111664	-453.813824	-453.806067	-453.805123	-453.846177	29.328	
O	-0.0953719485	 1.3123540832	 0.1117271579	-0.387934
N	 0.022429828	-0.0767256031	-0.039117605	-0.267073
C	-1.1077640125	-0.6436377079	-0.0796398449	 0.350975
C	-2.5653327265	-0.2734190142	 0.0600201448	-0.089838
O	-3.2513006301	-0.9207477377	-1.0322216383	-0.233504
C	-2.9178869694	-1.7146208601	 0.1057029907	-0.079518
C	-1.4510966902	-2.1143608665	-0.0686943161	 0.294462
C	-0.8073193965	-3.2486407607	-0.7605239139	-0.290889
N	-0.7674537179	-3.1374785711	 0.7114503634	-0.372364
H	 0.8249714272	 1.5970918131	 0.1242333766	 0.311197
H	-3.0250256957	 0.5944491223	 0.5111159853	 0.127964
H	-3.7065389297	-2.224876319	 0.643522647	 0.127629
H	-1.4128451151	-4.0661347998	-1.141079521	 0.129804
H	 0.0951066597	-3.0347085354	-1.3266095599	 0.131508
H	 0.1357610973	-2.7799296333	 1.0161190534	 0.247581
126.4657	144.5113	164.8614	272.4526	279.6129	326.5681	418.9621	483.7979	565.1422	614.5281	675.7094	781.7743	827.5776	845.6631	873.1715	907.8681	947.0819	953.1526	984.4271	992.5381	1020.9782	1065.5889	1100.9195	1137.7098	1199.5416	1229.0765	1256.7963	1273.2852	1337.916	1398.9725	1442.0468	1511.5445	1789.0511	3112.4409	3202.8287	3209.3496	3230.6466	3494.5754	3815.8974
ON=C1C2OC2C11CN1	ON=C1[C@H]2O[C@H]2[C@]21CN2	
InChI=1S/C5H6N2O2/c8-7-3-2-4(9-2)5(3)1-6-5/h2,4,6,8H,1H2	InChI=1S/C5H6N2O2/c8-7-3-2-4(9-2)5(3)1-6-5/h2,4,6,8H,1H2/t2-,4-,5-/m1/s1
