19
gdb 113989	2.80431	0.84159	0.69514	4.4591	77.16	-0.2451	0.0144	0.2595	1595.3033	0.159205	-419.179767	-419.170153	-419.169208	-419.215595	34.386	
O	 0.5174804543	 0.5006435233	 0.6182530748	-0.419796
C	-0.125910042	 0.1348459433	-0.5886315909	-0.085598
C	-1.5045728256	-0.4439786626	-0.3463344315	-0.05904
C	-2.0432752014	-1.5783097562	-1.2006209314	-0.331513
C	-1.6321661525	-1.821324596	 0.2372816597	 0.053095
N	-0.4427709584	-2.5599073215	 0.6059124495	-0.320901
C	-0.7004508583	-3.9938889546	 0.7472410668	-0.262043
C	 0.5251104658	-4.7137946493	 1.101724129	 0.253124
N	 1.4959673232	-5.2840673295	 1.3584007031	-0.292883
H	 0.5207903244	-0.2813882873	 1.1838417118	 0.292045
H	-0.1992115132	 1.0490139616	-1.186697986	 0.118011
H	 0.4874381438	-0.5690571065	-1.1779130871	 0.076891
H	-2.2260843482	 0.2831015954	 0.0143615199	 0.102262
H	-3.0950464126	-1.5825372547	-1.4653467579	 0.120284
H	-1.3870162159	-1.9623606455	-1.9769837948	 0.113101
H	-2.428222675	-1.9697552248	 0.9619420256	 0.103503
H	 0.285728481	-2.4284281283	-0.08799029	 0.237481
H	-1.4328040386	-4.1409440399	 1.5501531172	 0.160651
H	-1.1266495206	-4.4604582069	-0.157421008	 0.141327
47.7243	60.2104	90.4896	133.9734	205.7743	247.3612	330.1894	358.2734	392.9634	450.125	467.5781	526.9402	606.2662	771.187	777.2827	844.3849	866.9678	944.5523	964.3385	999.958	1007.0844	1023.0918	1056.1008	1071.5022	1115.5612	1137.2517	1160.815	1178.7672	1229.8124	1241.6754	1270.9699	1343.0357	1357.804	1400.2308	1412.3225	1440.1798	1475.2945	1490.0657	1510.4936	1528.5718	2369.7312	2947.7344	2962.8765	3055.8167	3071.7269	3121.0554	3142.3485	3156.1445	3209.8504	3528.5955	3779.9734
OCC1CC1NCC#N	OC[C@H]1C[C@H]1NCC#N	
InChI=1S/C6H10N2O/c7-1-2-8-6-3-5(6)4-9/h5-6,8-9H,2-4H2	InChI=1S/C6H10N2O/c7-1-2-8-6-3-5(6)4-9/h5-6,8-9H,2-4H2/t5-,6-/m1/s1
