13
gdb 127951	3.15018	1.41221	0.98099	3.9815	67.61	-0.2757	-0.0994	0.1763	1113.7802	0.088587	-486.050775	-486.04272	-486.041776	-486.0847	27.628	
C	 0.0863176861	 1.4704475124	-0.1775755532	-0.341901
N	-0.0102331945	 0.0218757896	-0.2354887938	-0.330935
C	-1.0646585794	-0.5655979223	 0.0979295605	 0.537624
N	-1.1511768374	-1.9555719219	 0.0400476463	-0.273382
N	-2.2068967251	-2.6951284526	 0.364297189	 0.005059
N	-3.2710917804	-2.1464743833	 0.7741453315	-0.264407
C	-3.3408299876	-0.7342863378	 0.8891797625	 0.481183
O	-4.3104109544	-0.1623891456	 1.2683054017	-0.287906
O	-2.2177856721	 0.0180609615	 0.5400984786	-0.252151
H	 0.9173263381	 1.7417803177	 0.4818529996	 0.141802
H	 0.3342962638	 1.8469537803	-1.1754810863	 0.1418
H	-0.8233696642	 1.9668376361	 0.1739269843	 0.142322
H	-0.341258813	-2.467415014	-0.2777385904	 0.300891
64.28	75.9982	84.9456	192.6913	243.4698	409.7157	434.2444	516.4067	557.8087	597.5178	650.0261	705.6447	733.4972	796.9326	944.0481	984.9474	1023.4318	1080.27	1135.477	1165.9949	1189.0902	1323.1232	1421.8669	1442.9772	1493.6331	1500.2003	1558.9374	1799.5368	1892.1993	3030.2948	3092.1731	3107.9654	3635.9532
CN=C1NN=NC(=O)O1	CN=c1[nH]nnc(=O)o1	
InChI=1S/C3H4N4O2/c1-4-2-5-7-6-3(8)9-2/h1H3,(H,4,5,6,8)	InChI=1S/C3H4N4O2/c1-4-2-5-7-6-3(8)9-2/h1H3,(H,4,5,6,8)
