20
gdb 126210	2.20678	1.32139	0.90814	4.5354	81.98	-0.2378	0.0059	0.2437	1352.6428	0.171629	-399.348767	-399.339273	-399.338329	-399.38466	33.89	
C	-0.435810172	 1.7436992787	-0.2508467263	-0.369178
C	-0.0628449365	 0.2825014728	 0.0589234708	-0.308256
C	 0.7101652435	-0.3832713836	-1.0345295982	 0.249141
C	 2.0348487222	-0.7491702784	-1.1724792474	 0.227378
C	 3.1767660534	-0.6303600045	-0.2109341517	-0.289708
C	 3.709959469	-1.9947554462	 0.2553813838	-0.366462
N	 2.2023833397	-1.3074217848	-2.4106800627	-0.253931
N	 1.0695324372	-1.3093807679	-3.0476433845	-0.125331
N	 0.1625072951	-0.7514584323	-2.2238226972	-0.229899
H	 0.4603509278	 2.3458622497	-0.4253599772	 0.132573
H	-1.0622984048	 1.815061643	-1.1457709581	 0.116656
H	-0.9902091929	 2.1851364169	 0.5825518668	 0.12155
H	 0.5366897145	 0.2445882419	 0.9734664663	 0.125324
H	-0.974442735	-0.2908934309	 0.2709101115	 0.115224
H	 3.9887462887	-0.0733938489	-0.6933298705	 0.120731
H	 2.8651466481	-0.0345650487	 0.6542386557	 0.096125
H	 2.938950462	-2.5554296793	 0.7935972584	 0.112346
H	 4.0210759221	-2.5938475494	-0.6043152221	 0.143277
H	 4.569677836	-1.8709330628	 0.9211453702	 0.108431
H	-0.7919604982	-0.6621384152	-2.5342234377	 0.274009
30.0866	41.1747	150.5763	167.7045	190.1334	223.5801	284.8994	339.4411	379.8795	486.3674	565.1749	631.2202	675.9873	725.9426	763.3268	787.2091	793.5229	966.1796	976.7818	1021.3838	1055.9549	1062.9458	1080.9649	1089.981	1093.8399	1191.5584	1234.7588	1281.1916	1301.2284	1337.0083	1345.7619	1364.4103	1381.6585	1406.483	1414.9776	1475.4877	1484.0419	1492.4668	1496.7257	1498.2424	1505.9927	1512.3887	1624.0282	3027.0542	3033.4497	3038.8931	3040.1471	3067.7876	3080.248	3107.3558	3111.4162	3119.7925	3125.2949	3652.3283
CCC1=C(CC)N=NN1	CCc1c(CC)nn[nH]1	
InChI=1S/C6H11N3/c1-3-5-6(4-2)8-9-7-5/h3-4H2,1-2H3,(H,7,8,9)	InChI=1S/C6H11N3/c1-3-5-6(4-2)8-9-7-5/h3-4H2,1-2H3,(H,7,8,9)
