14
gdb 10242	2.48448	1.87158	1.20389	1.4723	65.46	-0.2561	-0.0594	0.1967	982.1708	0.102314	-382.528456	-382.519515	-382.518571	-382.562527	30.59	
C	 0.0398845693	 1.4861014617	-0.1634877237	-0.490066
C	-0.0934242004	-0.0055177759	 0.0348313924	 0.379455
O	-0.1375839449	-0.5471226137	 1.1056552288	-0.265237
C	-0.1522714935	-0.8319324781	-1.295935141	-0.393663
C	 1.3014665223	-0.9602786813	-1.7988839614	 0.152711
O	 1.8909773558	-0.0661359878	-2.3423407206	-0.235792
C	-0.7708978743	-2.1327280268	-1.1316484982	 0.328054
C	-1.2461515333	-3.2293959129	-1.0159075338	-0.41162
H	 0.7889235229	 1.7053995902	-0.9302035962	 0.169418
H	-0.9162226819	 1.8845226308	-0.5242888715	 0.150288
H	 0.2949560551	 1.9657796005	 0.7818846478	 0.148239
H	-0.6798078274	-0.2232844059	-2.0391488692	 0.141041
H	 1.766405102	-1.9449710012	-1.5930439644	 0.12076
H	-1.6829167216	-4.1909873694	-0.9025450089	 0.206411
62.2362	84.749	136.4226	169.4416	172.2801	210.4571	335.1972	405.2768	450.0785	511.1435	581.1105	608.9251	643.8755	656.8732	764.0402	929.8805	958.621	1010.6984	1040.7567	1089.7395	1156.949	1196.9622	1300.6879	1386.2566	1402.3526	1466.6937	1474.3149	1814.2791	1843.7559	2246.692	2939.9988	3038.0833	3053.3974	3106.363	3159.4435	3502.8324
CC(=O)C(C=O)C#C	CC(=O)[C@@H](C=O)C#C	
InChI=1S/C6H6O2/c1-3-6(4-7)5(2)8/h1,4,6H,2H3	InChI=1S/C6H6O2/c1-3-6(4-7)5(2)8/h1,4,6H,2H3/t6-/m1/s1
