18
gdb 13191	4.31246	1.29927	1.08737	1.6079	68.	-0.2335	-0.0143	0.2192	1125.3178	0.152104	-384.941483	-384.932709	-384.931765	-384.976519	30.26	
C	 0.6455407152	 1.5212206076	 0.2099280536	-0.380042
C	 0.8802785074	 0.0829246592	-0.241865995	-0.276406
C	-0.1510109822	-0.4126919522	-1.2358077279	 0.335349
O	-1.0587466433	 0.2697547209	-1.6553030252	-0.307274
C	-0.0234459743	-1.8631033695	-1.6948102323	 0.059702
C	-0.1126924863	-2.1267863148	-3.2117601972	-0.281774
C	 1.3046445434	-2.7116448615	-3.0418612161	-0.063055
O	 1.3190140136	-2.3931675415	-1.6295006109	-0.29052
H	 0.6590697509	 2.2049578336	-0.642842878	 0.130074
H	-0.3295133529	 1.6272060212	 0.6928983113	 0.12881
H	 1.4181759431	 1.8349341216	 0.9171905478	 0.110714
H	 1.8660526343	-0.0513170325	-0.7043388468	 0.137976
H	 0.8877617395	-0.6156414504	 0.6069496906	 0.126877
H	-0.718016991	-2.4607960532	-1.0845103436	 0.104044
H	-0.8832574978	-2.8319712374	-3.5227026202	 0.118522
H	-0.1882340139	-1.2217768656	-3.8149922741	 0.129107
H	 1.392431199	-3.7910581382	-3.2104350008	 0.108235
H	 2.1095427553	-2.1995402173	-3.5814897053	 0.10966
27.0758	63.4796	87.0801	167.1497	190.9844	275.3489	284.9524	448.469	487.9585	614.0281	726.8183	784.1998	811.2155	836.6023	935.2512	950.3813	997.8884	1010.2292	1031.9326	1048.0944	1087.0449	1120.9953	1162.2516	1166.0616	1208.7889	1254.5998	1258.2774	1265.2808	1342.4969	1354.6972	1376.8368	1414.9541	1442.1761	1493.9823	1497.0771	1498.0697	1532.2435	1803.166	2987.2957	3024.6551	3025.9486	3050.5413	3059.4142	3067.7855	3095.2031	3121.8935	3124.4376	3150.5391
CCC(=O)C1CCO1	CCC(=O)[C@H]1CCO1	
InChI=1S/C6H10O2/c1-2-5(7)6-3-4-8-6/h6H,2-4H2,1H3	InChI=1S/C6H10O2/c1-2-5(7)6-3-4-8-6/h6H,2-4H2,1H3/t6-/m1/s1
