21
gdb 118701	3.21173	1.04543	0.90544	1.8437	78.54	-0.2397	0.0782	0.3179	1347.2271	0.181191	-424.145322	-424.136072	-424.135128	-424.179809	34.961	
C	-0.0459715104	 1.6627272335	 0.1523998172	-0.489488
C	-0.0174451101	 0.1394759297	 0.0223185804	 0.338739
C	-1.4192175473	-0.4220286872	-0.248377896	-0.279571
C	-2.0138093745	-0.0275819034	-1.6049705104	-0.059824
O	-3.299215447	-0.5917954725	-1.8113831621	-0.417606
C	 1.1629797167	-0.5654790571	-0.7411360001	 0.012995
C	 2.1598733373	-0.1806288664	 0.3766490241	-0.240061
C	 0.8547479229	-0.7123840763	 1.0138431947	 0.002339
O	 0.8791890475	-1.8088366708	 0.0158535251	-0.311229
H	 0.9052880592	 2.0988271062	 0.4591948149	 0.118576
H	-0.3260294737	 2.1304331443	-0.7969924855	 0.12849
H	-0.7980252616	 1.9600548044	 0.8915877897	 0.124243
H	-1.3715259992	-1.5132888201	-0.1979163873	 0.110138
H	-2.1044549524	-0.0841515242	 0.5390622095	 0.097211
H	-2.1621447595	 1.0545863257	-1.6736946795	 0.108429
H	-1.3202985498	-0.3103953124	-2.4143834704	 0.084217
H	-3.2079724166	-1.5487368351	-1.7573105359	 0.280907
H	 1.3355736004	-0.6648334736	-1.8142967114	 0.090681
H	 3.0028984872	-0.8654304273	 0.4672072676	 0.110642
H	 2.4523738795	 0.8596899556	 0.5137686787	 0.099681
H	 0.6496655216	-0.9873276231	 2.0501838366	 0.090492
56.755	84.1495	134.615	163.1386	250.09	302.4527	327.3494	382.9578	402.5244	418.5196	556.9851	619.7803	706.6546	750.6509	779.088	795.4851	864.3613	878.9244	912.28	962.368	992.518	1020.8106	1032.2244	1037.3072	1077.7774	1105.305	1120.9917	1139.6413	1145.7332	1169.5764	1205.0615	1217.0002	1239.731	1277.783	1300.9668	1308.745	1349.5288	1394.1345	1417.5483	1425.7198	1481.57	1487.2545	1501.0074	1512.5076	1516.2856	2965.3373	3033.0189	3041.1588	3069.5466	3086.9549	3096.5524	3098.5922	3099.4525	3108.2652	3134.1522	3163.6667	3811.2362
CC1(CCO)C2CC1O2	C[C@@]1(CCO)[C@H]2C[C@@H]1O2	
InChI=1S/C7H12O2/c1-7(2-3-8)5-4-6(7)9-5/h5-6,8H,2-4H2,1H3	InChI=1S/C7H12O2/c1-7(2-3-8)5-4-6(7)9-5/h5-6,8H,2-4H2,1H3/t5-,6+,7-
