14
gdb 81910	2.46812	1.84209	1.20239	4.1397	62.11	-0.2442	-0.0917	0.1525	974.7335	0.100531	-473.81452	-473.806894	-473.80595	-473.846752	28.383	
O	-0.0311232814	 1.4644278781	 0.0780653268	-0.435747
C	-0.0301765094	 0.0691285367	 0.015511886	 0.078036
C	-1.4069680525	-0.5736348685	-0.0322705037	-0.079478
N	-2.0109447382	-0.4732753584	-1.3540435962	-0.318429
C	-1.3742963581	-1.7653851812	-0.9442159559	-0.182216
C	-0.019624367	-1.8482753444	-1.5768479437	 0.388727
O	 0.4913841267	-2.7604046593	-2.1653885988	-0.29387
C	 0.6442886341	-0.4776927172	-1.2446828102	 0.242792
O	 1.496999215	 0.0936924694	-1.8673885281	-0.29676
H	 0.626159183	 1.7677540948	-0.5645780447	 0.300072
H	 0.5150728162	-0.3683092793	 0.8751079257	 0.104483
H	-2.033392853	-0.580758063	 0.8531337461	 0.114141
H	-3.0214637052	-0.5770008879	-1.3020584011	 0.254662
H	-1.9768289601	-2.6513836498	-0.7881394322	 0.123587
85.884	178.7244	217.4035	252.7566	298.9777	326.7244	424.9294	499.0381	532.462	583.9873	683.5832	711.577	826.479	860.4117	878.4508	910.4085	971.1036	1006.3635	1021.7357	1112.892	1129.8484	1158.1668	1185.5421	1236.0089	1243.1432	1337.0497	1359.4209	1411.8774	1417.6774	1852.3289	1865.7866	2919.5518	3175.624	3202.7162	3511.8198	3737.547
OC1C2NC2C(=O)C1=O	O[C@H]1[C@H]2N[C@H]2C(=O)C1=O	
InChI=1S/C5H5NO3/c7-3-1-2(6-1)4(8)5(3)9/h1-3,6-7H	InChI=1S/C5H5NO3/c7-3-1-2(6-1)4(8)5(3)9/h1-3,6-7H/t1-,2+,3-/m0/s1
