23
gdb 116952	4.52757	0.50842	0.47249	1.2257	92.82	-0.2375	0.0558	0.2933	2424.6235	0.202535	-388.275984	-388.264232	-388.263288	-388.316093	40.943	
C	-0.1806954714	 1.4585575605	 0.4693560184	-0.381537
C	-0.3783614245	-0.0583662254	 0.4827324756	-0.151813
C	-1.1168802711	-0.5662463083	-0.7725741103	-0.336195
C	-1.3225396271	-2.0103839583	-0.7750639287	 0.068153
C	-1.4776984792	-3.2044078807	-0.7447641894	 0.092843
C	-1.6893414055	-4.6461085698	-0.7148670666	-0.380624
C	-2.6711941563	-5.1095183916	 0.3858521433	 0.15217
C	-2.9094497688	-6.618929931	 0.319458945	-0.40086
O	-2.2423813554	-4.7069392936	 1.677556812	-0.421153
H	 0.3448782612	 1.7971345027	 1.3673483125	 0.113246
H	 0.4067897371	 1.7759546389	-0.3996603316	 0.11371
H	-1.1413324745	 1.9842848913	 0.4282035783	 0.114984
H	 0.5910441421	-0.5647545474	 0.5511159304	 0.105094
H	-0.9455141666	-0.3586592312	 1.3706118092	 0.113251
H	-2.0869437537	-0.0562323557	-0.8506879466	 0.122465
H	-0.5523363327	-0.2713810127	-1.6680282599	 0.12067
H	-2.0651272624	-4.9902391783	-1.6877609378	 0.124153
H	-0.7306721219	-5.1660956352	-0.5648322086	 0.110113
H	-3.6215205223	-4.5844802359	 0.2379960949	 0.099258
H	-1.9670954263	-7.1678087171	 0.4428193833	 0.105545
H	-3.5887176947	-6.9260005886	 1.1186999939	 0.12563
H	-3.3446099852	-6.9144129181	-0.6409010407	 0.115297
H	-1.3855756109	-5.1152931047	 1.8453602635	 0.2756
6.1473	46.2172	61.9842	104.8156	123.4985	235.8785	240.0052	260.4069	267.5569	285.7015	303.2987	363.6041	397.7588	454.4762	480.2329	554.3697	742.8461	793.9455	835.8226	871.9932	893.539	896.2859	942.9007	1041.7222	1060.8217	1090.7137	1108.4602	1121.6893	1148.4684	1165.8453	1198.2797	1258.6131	1305.3809	1308.2889	1321.3573	1334.943	1370.4802	1381.9011	1402.6191	1412.0643	1424.0715	1464.1251	1473.6521	1491.8506	1491.9835	1495.1464	1498.8899	1509.0353	2369.1702	2989.8551	3004.9271	3023.1284	3028.149	3030.744	3032.8856	3041.1416	3055.0189	3072.3426	3093.8195	3098.8462	3103.7468	3120.9738	3794.3237
CCCC#CCC(C)O	CCCC#CC[C@@H](C)O	
InChI=1S/C8H14O/c1-3-4-5-6-7-8(2)9/h8-9H,3-4,7H2,1-2H3	InChI=1S/C8H14O/c1-3-4-5-6-7-8(2)9/h8-9H,3-4,7H2,1-2H3/t8-/m1/s1
