15
gdb 66270	2.14652	1.6609	1.45921	3.5703	66.33	-0.291	-0.015	0.2761	985.4689	0.112358	-453.966254	-453.957984	-453.95704	-453.999217	29.905	
C	-0.060493149	 1.5683561889	 0.0131736882	-0.428791
C	 0.0484005109	 0.0491752176	 0.0146119584	 0.116667
O	 0.8977394819	-0.3923418777	-1.0421915646	-0.255144
C	 1.4923753672	-1.5837858002	-0.5939695649	 0.001786
O	 1.6349038229	-1.4572075818	 0.8233903355	-0.235544
C	 0.7599765712	-0.5110397585	 1.2554965369	 0.392585
N	 0.5628442557	-0.1244465634	 2.4334453745	-0.522244
C	-1.2861977429	-0.5855150337	-0.1160881699	 0.285414
N	-2.316475729	-1.0924723728	-0.2426949062	-0.330086
H	 0.9435478723	 1.9954732157	 0.0490157667	 0.141894
H	-0.5713700033	 1.9121520605	-0.8882945164	 0.147314
H	-0.6168606022	 1.8874727477	 0.8962889575	 0.168693
H	 0.8652457847	-2.4604018552	-0.8088904365	 0.132021
H	 2.4796193481	-1.6828542092	-1.0488787266	 0.144704
H	 1.1437173315	-0.6314860279	 3.1018353174	 0.240732
90.3912	140.4911	172.1811	211.3488	225.2041	260.6506	362.5315	421.7787	509.5387	567.9248	627.8459	674.9551	728.7432	754.2363	881.6553	903.9483	924.3206	985.2346	1024.1903	1118.5634	1148.1054	1175.4671	1182.4416	1186.2799	1236.5698	1303.0215	1406.3017	1437.4604	1478.6672	1486.241	1538.3594	1802.722	2355.605	3012.5003	3063.7536	3122.0982	3149.5137	3155.903	3492.7685
CC1(OCOC1=N)C#N	C[C@]1(OCO[C]1[NH])C#N	
InChI=1S/C5H6N2O2/c1-5(2-6)4(7)8-3-9-5/h7H,3H2,1H3	InChI=1S/C5H6N2O2/c1-5(2-6)4(7)8-3-9-5/h7H,3H2,1H3/t5-/m0/s1
