18
gdb 79270	2.6506	1.57092	1.28731	1.1302	75.73	-0.2412	-0.0378	0.2034	1036.3219	0.147136	-401.889885	-401.881935	-401.880991	-401.922631	30.302	
C	-0.0584860508	 1.575302073	 0.0088994002	-0.421858
C	 0.0921514577	 0.0670140828	 0.0661677504	 0.043165
N	 1.1020510075	-0.5653589849	-0.8457770333	-0.156447
C	 2.3788254198	-0.6315819356	-0.0341112319	-0.040216
C	 2.1681372117	-0.0316154436	 1.3555579673	-0.297221
C	 0.7546067068	-0.6528254852	 1.2825253006	 0.195263
C	-0.0258470864	-1.0119346532	 2.4962137307	 0.029814
O	 0.3033994859	-0.7494659073	 3.6273991887	-0.245394
C	 1.3111031246	-1.6362261689	 0.1604744965	-0.101968
H	 0.8845420411	 2.0966558317	 0.187069775	 0.12822
H	-0.4182477762	 1.8675248263	-0.982774067	 0.133991
H	-0.787781302	 1.918821631	 0.7503864691	 0.124472
H	-0.8656890258	-0.4138027563	-0.1631113357	 0.087529
H	 3.292690607	-0.7212861764	-0.6057217521	 0.106683
H	 2.7784663294	-0.5519511557	 2.0967354689	 0.125461
H	 2.2545145089	 1.047363372	 1.5039502663	 0.107135
H	-0.9763108129	-1.5569049046	 2.2892461166	 0.073386
H	 1.2212023638	-2.6979415952	-0.0274893704	 0.107986
58.7061	166.7821	192.8199	211.1129	276.2858	311.2372	440.2246	498.1103	556.8311	688.2293	696.7762	760.4792	789.9559	809.6465	844.9617	904.0028	940.9623	966.4182	986.5548	1011.1451	1042.602	1079.0166	1102.3904	1113.4835	1124.6734	1157.8984	1178.8165	1206.1027	1231.8839	1261.7368	1301.8926	1345.8989	1393.6815	1413.1929	1427.2622	1483.3921	1491.8967	1514.4942	1811.1079	2860.0058	3039.8155	3044.1555	3070.3825	3107.4172	3123.1596	3131.59	3200.3396	3215.8241
CC1N2C3CC1(C=O)C23	C[C@H]1N2[C@H]3C[C@]1(C=O)[C@@H]23	
InChI=1S/C7H9NO/c1-4-7(3-9)2-5-6(7)8(4)5/h3-6H,2H2,1H3	InChI=1S/C7H9NO/c1-4-7(3-9)2-5-6(7)8(4)5/h3-6H,2H2,1H3/t4-,5+,6+,7-,8?/m1/s1
