13
gdb 129582	5.14224	1.05389	0.87591	6.0891	66.78	-0.2371	-0.0542	0.1829	1208.0717	0.09024	-482.210428	-482.2028	-482.201856	-482.24291	28.37	
N	 0.1194755681	 1.2782865456	-0.6969042419	-0.541275
C	-0.0049766273	 0.0198335935	-0.1939706232	 0.456223
N	 1.1740037341	-0.6620898102	-0.0175174427	-0.54522
N	-1.1025836202	-0.6012805432	 0.1354900584	-0.402257
C	-2.3102678335	 0.0041984786	 0.1275965762	 0.509697
N	-3.4196624591	-0.6052627032	 0.4958634851	-0.200835
O	-4.3920618941	 0.330917134	 0.3416995958	-0.135677
N	-3.8414443623	 1.5035966005	-0.1244776291	 0.031051
N	-2.6042502326	 1.3223207557	-0.2569304425	-0.257132
H	 1.0090343436	 1.7419518061	-0.6130950431	 0.260296
H	-0.7106950787	 1.8558991393	-0.6991641763	 0.291825
H	 1.9280783084	-0.4605390554	-0.6558640873	 0.258907
H	 1.0393408535	-1.6410478113	 0.1848416407	 0.274396
72.5519	128.999	196.6617	357.6505	381.0433	399.5909	412.7825	433.2737	563.5902	577.4757	619.2659	660.8338	743.5832	775.8583	789.2763	789.5307	931.031	995.0043	1068.2527	1086.6502	1100.1654	1180.7506	1296.1713	1472.0341	1507.2209	1586.1072	1624.9339	1642.0354	1714.1903	3537.1462	3583.2882	3686.2595	3697.5822
NC(N)=NC1=NON=N1	NC(=Nc1nonn1)N	
InChI=1S/C2H4N6O/c3-1(4)5-2-6-8-9-7-2/h(H4,3,4,5,7)	InChI=1S/C2H4N6O/c3-1(4)5-2-6-8-9-7-2/h(H4,3,4,5,7)
