19
gdb 89955	2.78998	1.38365	1.0966	2.8378	76.02	-0.244	-0.0374	0.2066	1152.1077	0.157905	-423.003405	-422.994746	-422.993801	-423.037237	32.111	
C	-0.6489295905	 1.3076150675	-0.0381256225	-0.415842
C	 0.1281348581	-0.0005630437	-0.0679165525	 0.036323
C	 1.476213593	-0.0492846671	-0.8590182415	-0.30611
C	 2.2033022715	-0.5806474021	 0.3969579126	 0.358238
O	 2.8155106465	 0.4396312315	 1.2054866622	-0.331412
C	 1.6355184762	 0.5671500477	 2.0363922347	-0.09496
C	 0.8635591659	-0.483207802	 1.2184297871	-0.154848
C	 3.0158074253	-1.837109397	 0.3109238013	 0.081649
O	 2.8389977352	-2.6965993674	-0.5167354624	-0.257165
H	-0.0169624148	 2.1515405194	 0.2572005262	 0.122859
H	-1.0512622245	 1.5348791509	-1.0310881291	 0.123631
H	-1.492688007	 1.2571470261	 0.6591152482	 0.117245
H	-0.5326133356	-0.8018480455	-0.4122814872	 0.088058
H	 1.4899175599	-0.7560508419	-1.6906609185	 0.127845
H	 1.8679079551	 0.9170426506	-1.185207208	 0.111561
H	 1.8468107946	 0.26590389	 3.069565672	 0.109117
H	 1.2390731024	 1.5886146606	 2.0405104385	 0.107857
H	 0.4282517872	-1.317357562	 1.7675765258	 0.089121
H	 3.7912984912	-1.9250488458	 1.1040660429	 0.08683
49.9335	96.3356	191.3373	212.8949	218.8309	269.6195	360.5437	374.3944	469.4294	520.678	606.987	712.9826	748.1742	829.2798	862.9532	885.9276	916.6046	959.3632	1003.9555	1011.9345	1018.7709	1069.6482	1110.7055	1119.3653	1141.5965	1157.9776	1173.5538	1200.891	1234.4435	1264.3857	1293.3317	1324.6343	1346.6605	1369.072	1398.5506	1410.5037	1460.8356	1491.8207	1496.4136	1527.5747	1815.5576	2891.6693	3021.9652	3029.6706	3053.8505	3067.4227	3070.4132	3095.6887	3100.8039	3116.9366	3135.3355
CC1CC2(OCC12)C=O	C[C@H]1C[C@]2(OC[C@@H]12)C=O	
InChI=1S/C7H10O2/c1-5-2-7(4-8)6(5)3-9-7/h4-6H,2-3H2,1H3	InChI=1S/C7H10O2/c1-5-2-7(4-8)6(5)3-9-7/h4-6H,2-3H2,1H3/t5-,6-,7-/m0/s1
