16
gdb 52014	2.72799	0.84117	0.67066	2.511	78.32	-0.2512	-0.0301	0.2212	1593.7018	0.119712	-400.657066	-400.647041	-400.646097	-400.693102	35.02	
O	-0.1774439129	 0.0796199052	 0.316376495	-0.237186
C	 0.0022903997	 1.1854541073	-0.1211882567	 0.148092
C	 1.3491661843	 1.8864139897	-0.1485391155	-0.228086
N	 1.4538273654	 2.7395108722	-1.323812266	-0.312764
C	 2.5988001563	 3.6702188695	-1.287119434	-0.318864
C	 2.7818724335	 4.2735214972	-2.6114008443	 0.304301
C	 2.9455846968	 4.729985934	-3.7092517209	-0.406166
C	 2.3976103188	 4.6963273399	-0.253484638	 0.384656
C	 2.2549145346	 5.5167461659	 0.6113470393	-0.459207
H	-0.8250390291	 1.8016490949	-0.5380828853	 0.092172
H	 1.3777669012	 2.5359422204	 0.7387055031	 0.149091
H	 2.1486693359	 1.1373979887	-0.0313699438	 0.111656
H	 1.5380875135	 2.179726803	-2.1661307456	 0.234564
H	 3.5395049963	 3.1422501154	-1.0356888456	 0.123551
H	 3.0868316534	 5.1480947508	-4.6755476324	 0.205691
H	 2.1241352223	 6.2532857058	 1.3657108008	 0.2085
55.1111	74.6255	96.5288	126.0852	134.4365	217.7066	266.2279	335.3059	351.0686	458.9099	531.9258	553.7383	619.8882	638.2558	642.8705	674.5495	676.9384	737.636	814.9126	883.3553	1011.5394	1023.6801	1078.6676	1130.1316	1146.1086	1241.2392	1296.9927	1333.1967	1351.6667	1407.8546	1469.4475	1494.1455	1839.0574	2242.9107	2249.3394	2895.1991	2902.2882	2979.288	3035.3509	3500.8169	3502.4712	3526.0352
O=CCNC(C#C)C#C	O=CCNC(C#C)C#C	
InChI=1S/C7H7NO/c1-3-7(4-2)8-5-6-9/h1-2,6-8H,5H2	InChI=1S/C7H7NO/c1-3-7(4-2)8-5-6-9/h1-2,6-8H,5H2
