16
gdb 97485	8.37988	0.43728	0.42925	1.0385	98.14	-0.2324	-0.0279	0.2045	2458.3195	0.123526	-400.661129	-400.651548	-400.650604	-400.697655	32.852	
O	 0.1919136728	 1.0669651553	-0.7635026002	-0.396806
C	 0.019326593	 0.0531005356	 0.2156694379	-0.225792
C	-1.3101644863	-0.549687851	 0.2079299396	 0.277085
C	-2.4348506932	-1.0012959354	 0.1997579394	-0.23529
C	-3.6899120774	-1.5181954446	 0.1891465704	-0.233009
C	-4.8129004689	-1.9763824203	 0.1695014645	 0.350762
C	-6.1298386561	-2.5335044293	 0.1729482192	-0.208771
C	-6.8532398829	-2.7360163138	-1.1229338996	-0.223955
N	-6.3652211752	-3.8947465636	-0.3763908021	-0.300734
H	-0.5234815422	 1.7022435678	-0.6530128043	 0.290461
H	 0.7763116118	-0.7079365435	-0.0062022855	 0.148269
H	 0.2368429075	 0.4280146126	 1.2291464549	 0.126472
H	-6.7235862793	-2.3246499841	 1.059374454	 0.12499
H	-7.933076547	-2.620006851	-1.1390721384	 0.130915
H	-6.3403698343	-2.4357821878	-2.0316034792	 0.130318
H	-5.5008826923	-4.2338313869	-0.7928705205	 0.245086
25.9052	62.3679	70.0756	146.074	166.8984	255.6629	287.4707	344.7431	420.6265	470.8139	526.7446	565.3111	596.4115	651.6337	804.2656	827.7482	929.2528	964.1688	982.5356	1005.0586	1050.6565	1109.9233	1128.5871	1174.253	1212.2984	1246.7682	1287.9139	1299.7492	1355.5535	1399.0089	1418.8548	1483.4764	1504.5348	2266.1885	2364.788	2973.2854	3059.1951	3116.8627	3138.2427	3208.9547	3503.8336	3815.1548
OCC#CC#CC1CN1	OCC#CC#C[C@H]1CN1	
InChI=1S/C7H7NO/c9-5-3-1-2-4-7-6-8-7/h7-9H,5-6H2	InChI=1S/C7H7NO/c9-5-3-1-2-4-7-6-8-7/h7-9H,5-6H2/t7-/m0/s1
