19
gdb 119344	4.01108	1.01777	0.96952	2.7611	76.28	-0.2279	0.0814	0.3093	1303.9985	0.158702	-422.9392	-422.930954	-422.93001	-422.972757	30.734	
C	-0.0760601158	 1.447039045	 0.1835542339	-0.218593
O	-0.0105903591	 0.0417128183	 0.216168058	-0.229751
C	-1.2460281743	-0.5691529174	-0.0960730703	-0.245616
C	-1.0848387652	-2.0451800767	-0.0939473597	 0.320543
C	-2.087632488	-3.1964067172	 0.0175150325	-0.181113
C	-1.5373791453	-3.8631275105	-1.2438437405	-0.232922
C	-0.2322113928	-3.0912362008	-0.921023739	 0.023177
O	 0.2368610293	-3.7104925065	 0.3090665863	-0.290526
C	-0.8686856044	-3.0843991514	 0.9527647766	 0.048282
H	 0.9184385755	 1.8261077138	 0.4302005209	 0.129637
H	-0.3628419726	 1.8220797452	-0.8123000607	 0.102161
H	-0.798523041	 1.8413567249	 0.9164684492	 0.102167
H	-2.0200321135	-0.2852684255	 0.6396799671	 0.089412
H	-1.6046649748	-0.2188231441	-1.080766581	 0.08842
H	-3.1070363487	-3.1553764097	 0.3806782061	 0.090909
H	-1.4595822922	-4.9540969779	-1.2818134963	 0.101434
H	-2.0248265403	-3.4788032745	-2.143587382	 0.102142
H	 0.5579665435	-2.9066989194	-1.6451052208	 0.091264
H	-0.9082172502	-3.0540039355	 2.0335250496	 0.108971
74.5868	91.1569	104.8393	228.6634	270.0459	330.6643	351.5646	481.0845	548.672	675.4889	748.8054	780.6546	821.1202	878.3664	916.7717	918.8811	950.1179	966.9908	990.7949	1009.9668	1025.6653	1042.2735	1087.9079	1128.6101	1139.0982	1152.7297	1163.9215	1187.8987	1219.7517	1225.6393	1231.7532	1263.5048	1285.0635	1318.4663	1402.0901	1467.1165	1482.5064	1485.8322	1491.6357	1498.731	1518.7687	2934.5706	2957.184	2966.7656	3008.1614	3049.9865	3112.2715	3116.2283	3151.5943	3194.6893	3212.6909
COCC12C3CC1OC23	COC[C@@]12[C@H]3C[C@@H]1O[C@@H]23	
InChI=1S/C7H10O2/c1-8-3-7-4-2-5(7)9-6(4)7/h4-6H,2-3H2,1H3	InChI=1S/C7H10O2/c1-8-3-7-4-2-5(7)9-6(4)7/h4-6H,2-3H2,1H3/t4-,5-,6+,7+/m0/s1
