20
gdb 107576	2.6211	1.5453	1.12554	3.5971	79.15	-0.2359	0.0321	0.268	1139.9642	0.1725	-403.193393	-403.184782	-403.183838	-403.226537	32.947	
C	 0.2488701548	 1.4904510324	-0.2645212307	-0.380159
C	-0.158449665	 0.0537848725	 0.0873742864	-0.280578
C	 0.5904851647	-0.4985256596	 1.2803225705	 0.246989
C	 2.026742365	-0.9766513993	 1.156091179	-0.317031
C	 0.9446002803	-1.9576770867	 1.5019093995	-0.117057
C	 0.7490802687	-2.269383876	 2.9818286526	-0.183225
N	 0.5100015978	-0.9573177413	 3.5592945461	-0.319418
C	 0.2608252068	 0.0451177457	 2.6538503945	 0.368466
O	-0.1580281348	 1.1519697271	 2.9261165777	-0.387841
H	 1.3117182092	 1.5432190882	-0.5238281073	 0.108148
H	-0.3255058237	 1.8589142168	-1.1201332735	 0.104025
H	 0.0725653621	 2.150072746	 0.5874876094	 0.155154
H	-1.2351463203	 0.0186840299	 0.2932204426	 0.105763
H	 0.015223966	-0.6069183429	-0.7714210682	 0.089296
H	 2.4285759519	-1.021465575	 0.1489371606	 0.117867
H	 2.7463645881	-0.6915738381	 1.9173089354	 0.121522
H	 0.667903546	-2.7158891169	 0.7793329607	 0.095304
H	-0.109718902	-2.9387680381	 3.1302976354	 0.110146
H	 1.6292315289	-2.7505466927	 3.4270688226	 0.112722
H	 0.3186972855	-0.8096986322	 4.5370483969	 0.249907
89.5072	121.371	174.0305	208.5167	255.9548	285.7385	342.715	418.8793	474.1539	497.528	612.7618	682.7126	723.4136	777.0884	785.8189	837.8925	866.1227	915.5824	950.2378	981.9958	1014.2392	1049.143	1062.7827	1069.8307	1104.7899	1117.4448	1128.5709	1202.3508	1222.7085	1252.5095	1290.2058	1332.2628	1355.1886	1369.8345	1403.6689	1410.5177	1446.509	1479.5395	1492.2385	1495.3091	1515.6252	1530.0121	1811.3918	3001.5922	3021.1754	3036.0276	3037.8684	3057.7063	3101.6903	3122.861	3138.5803	3183.6703	3210.4053	3648.412
CCC12CC1CNC2=O	CC[C@]12C[C@H]1CNC2=O	
InChI=1S/C7H11NO/c1-2-7-3-5(7)4-8-6(7)9/h5H,2-4H2,1H3,(H,8,9)	InChI=1S/C7H11NO/c1-2-7-3-5(7)4-8-6(7)9/h5H,2-4H2,1H3,(H,8,9)/t5-,7-/m0/s1
