18
gdb 104623	2.38971	1.31893	1.02195	5.3068	72.72	-0.2755	0.0057	0.2812	1217.9471	0.146151	-439.080064	-439.070743	-439.069799	-439.114603	33.811	
C	 0.5488478005	 1.5084146709	 0.1554682975	-0.403986
C	 0.0400829165	 0.0902558789	 0.0238395496	 0.166422
C	 0.4005575785	-0.7161761096	-1.2443833983	-0.365976
C	 1.0647422924	-1.7137423164	-0.260637914	 0.228583
C	 2.5784524981	-1.9190714278	-0.3702808128	-0.097383
O	 3.0950534835	-2.4610670729	 0.8185665145	-0.408092
O	 0.7785581946	-0.849118451	 0.8653969104	-0.332595
C	 0.3585798535	-2.9983585562	-0.1315339998	 0.277057
N	-0.2148328898	-3.9992580662	-0.0651753935	-0.333712
H	 1.6087174518	 1.5733268285	-0.1086937881	 0.122638
H	-0.0172768582	 2.1750198847	-0.5040166743	 0.127981
H	 0.4265282783	 1.8631263924	 1.1834393571	 0.13791
H	-1.0267613837	 0.0399830323	 0.2722948488	 0.099377
H	-0.4328100892	-1.1055954903	-1.8267891917	 0.138402
H	 1.1175286379	-0.2248467549	-1.9058913934	 0.121845
H	 2.8120322616	-2.6172436292	-1.1805104321	 0.129215
H	 3.0284567682	-0.9434010318	-0.6120962789	 0.092467
H	 2.8071629856	-1.8813815913	 1.5350618891	 0.299846
51.1619	99.9173	157.5078	165.2412	212.9611	240.3094	335.8208	352.2601	412.2788	443.6477	457.3783	538.6138	588.5116	686.5954	767.945	859.5112	893.7166	911.2125	929.7642	999.0465	1043.8243	1069.862	1091.489	1113.5085	1172.4871	1188.5871	1212.3879	1261.3776	1273.266	1312.1046	1380.8461	1393.3256	1412.6447	1425.179	1481.2942	1487.2161	1491.942	1494.3525	2355.4593	2983.6531	3034.6761	3036.445	3082.9163	3085.3857	3110.123	3116.7106	3154.8893	3783.525
CC1CC(CO)(O1)C#N	C[C@H]1C[C@@](CO)(O1)C#N	
InChI=1S/C6H9NO2/c1-5-2-6(3-7,4-8)9-5/h5,8H,2,4H2,1H3	InChI=1S/C6H9NO2/c1-5-2-6(3-7,4-8)9-5/h5,8H,2,4H2,1H3/t5-,6+/m0/s1
