18
gdb 48170	3.50996	0.78965	0.66855	2.5268	75.55	-0.2489	-0.0744	0.1745	1643.0922	0.146731	-439.108597	-439.099258	-439.098314	-439.144588	32.835	
O	-0.4250052937	 1.4679453995	 1.056266198	-0.248268
C	 0.226613106	 1.1255492933	 0.1031360058	 0.103029
C	 1.4480650051	 1.8927880343	-0.414003971	 0.301019
O	 2.0563155203	 1.4843882944	-1.3886832753	-0.362026
N	 1.7211732447	 2.9964706409	 0.3122537675	-0.304272
C	 2.7999700103	 3.9221770689	 0.0059462728	-0.18214
C	 2.3131330718	 5.3506242507	-0.072793479	 0.020725
C	 2.1495708317	 6.1630537228	 1.1910240764	-0.26493
C	 3.2626667541	 6.4808507086	 0.224453046	-0.268
H	 0.0075474605	 0.2199872398	-0.4963198263	 0.116749
H	 1.0962204941	 3.1897869118	 1.0829909946	 0.264
H	 3.5879725172	 3.8434209105	 0.7680666441	 0.108871
H	 3.229264395	 3.5899597871	-0.9430856766	 0.148818
H	 1.5800604193	 5.5258883671	-0.8551096303	 0.095968
H	 1.3119571946	 6.8477792496	 1.2587740304	 0.119719
H	 2.4204365818	 5.698476835	 2.1341909165	 0.113275
H	 4.2761432013	 6.2281691806	 0.5185160449	 0.117095
H	 3.187295486	 7.3816765951	-0.3734502486	 0.120369
31.9587	66.2715	73.5436	170.1033	196.58	245.0279	258.6523	377.9548	446.2274	510.968	569.8689	653.7093	701.3921	776.9778	809.82	834.8427	893.7376	913.8505	966.254	1025.8382	1050.7942	1061.7784	1082.5394	1106.2532	1140.2331	1182.6468	1198.588	1226.6225	1245.7186	1292.9391	1357.9013	1362.4479	1424.07	1470.1504	1493.9226	1508.7841	1553.1205	1784.3787	1822.7716	2955.6451	3007.4746	3101.7988	3130.2917	3136.6897	3150.4119	3210.8602	3225.8351	3599.2939
O=CC(=O)NCC1CC1	O=CC(=O)NCC1CC1	
InChI=1S/C6H9NO2/c8-4-6(9)7-3-5-1-2-5/h4-5H,1-3H2,(H,7,9)	InChI=1S/C6H9NO2/c8-4-6(9)7-3-5-1-2-5/h4-5H,1-3H2,(H,7,9)
