16
gdb 79782	3.01826	2.13202	1.86767	1.8508	64.9	-0.2348	0.0213	0.2561	791.1727	0.127306	-437.78449	-437.778794	-437.77785	-437.814266	24.622	
O	 0.1032133739	 1.4381520323	-0.0929133366	-0.441234
C	-0.0144103557	 0.0563205341	 0.0284136764	 0.178921
C	 0.2113320743	-0.6733103842	 1.3750980191	-0.09772
C	-0.7561935802	-0.1387302457	 2.4816137823	 0.08149
O	-1.6280182381	 0.9008512567	 1.9498347182	-0.32148
C	-2.3113410919	-0.1216786387	 1.1681066477	 0.08149
C	-1.3891064021	-0.6557627889	 0.0233369678	-0.09772
N	-0.8147329244	-1.7431926304	 0.9526087569	-0.184132
C	-1.7393126749	-1.2511818096	 2.0536667072	-0.040175
H	-0.4708093243	 1.8091932247	 0.5915319373	 0.292922
H	 0.6237425536	-0.40100054	-0.7330726561	 0.107558
H	 1.20568551	-0.9979282479	 1.685060161	 0.079556
H	-0.3868025019	 0.09346817	 3.4800092111	 0.09543
H	-3.3543898686	 0.1260064622	 0.9735284151	 0.09543
H	-1.8650918355	-0.9642596435	-0.9085748574	 0.079556
H	-2.2840656242	-1.9471510311	 2.68960054	 0.090109
240.0583	267.418	452.187	552.7857	582.0381	629.3533	704.3619	710.139	767.8789	799.6952	805.5067	823.26	845.3923	906.1077	911.4323	943.7182	943.756	981.2167	1010.3512	1013.1687	1082.5494	1138.9138	1150.1818	1157.6243	1181.8712	1192.7017	1209.5236	1234.008	1252.0815	1267.6653	1286.6743	1310.469	1326.6039	1355.1993	1460.0527	3074.6071	3099.1416	3100.5838	3115.8512	3119.6295	3132.9561	3742.2203
OC1C2C3OC4C1N2C34	O[C@H]1[C@H]2[C@H]3O[C@H]4[C@@H]1N2[C@@H]34	
InChI=1S/C6H7NO2/c8-4-1-5-3-6(9-5)2(4)7(1)3/h1-6,8H	InChI=1S/C6H7NO2/c8-4-1-5-3-6(9-5)2(4)7(1)3/h1-6,8H/t1-,2+,3-,4-,5+,6-
