18
gdb 48716	3.65479	1.32598	1.14	3.3573	75.85	-0.2389	-0.023	0.2159	1086.9213	0.14908	-401.929148	-401.921769	-401.920825	-401.960907	29.396	
O	-0.5555873117	 0.7905983642	 0.7548055883	-0.270886
C	 0.1541113289	 1.0244763843	-0.1934235875	 0.121473
C	 1.3717363677	 1.8731035228	-0.1445507331	 0.207546
C	 1.8943539237	 2.3659465425	 1.2014899055	-0.333052
C	 2.4289942495	 3.7849493596	 0.9859266107	-0.028522
C	 3.6249683569	 4.0037964863	 0.0993454958	-0.314393
C	 2.2363221974	 4.1476061036	-0.4769998131	-0.027314
C	 1.5978830827	 2.9649488488	-1.1763901921	-0.080651
N	 2.2824397601	 1.6896865301	-1.2947963965	-0.366052
H	-0.0613898686	 0.6245485561	-1.2085431795	 0.083558
H	 1.0507900184	 2.3743050386	 1.8977068312	 0.138065
H	 2.645085575	 1.6871701451	 1.6232674615	 0.111269
H	 2.2469123008	 4.5138705577	 1.7677926883	 0.095501
H	 4.1881131367	 4.9197462564	 0.2437943661	 0.12115
H	 4.2509220369	 3.1626889358	-0.1839908845	 0.110208
H	 1.9004429747	 5.1308150821	-0.7837308211	 0.093196
H	 0.8815182857	 3.1717104444	-1.9659420064	 0.104013
H	 3.2547027352	 1.7411544015	-1.0048587135	 0.23489
105.1505	183.9215	218.9051	282.7392	324.2958	415.643	502.0778	546.9432	648.2289	667.3949	729.1386	769.3084	802.5013	814.1314	868.3708	892.6042	949.7272	980.0358	1023.4904	1036.1611	1040.0466	1059.0998	1072.1036	1082.3993	1108.8015	1119.0737	1150.1355	1190.4783	1218.6314	1282.76	1293.0344	1337.1305	1348.5407	1369.7124	1400.8053	1422.2042	1486.8807	1499.8431	1811.2777	2898.962	3041.4368	3096.0892	3122.0205	3153.5989	3167.515	3184.2707	3203.5475	3517.318
O=CC12CC3CC3C1N2	O=C[C@]12C[C@H]3C[C@H]3[C@H]1N2	
InChI=1S/C7H9NO/c9-3-7-2-4-1-5(4)6(7)8-7/h3-6,8H,1-2H2	InChI=1S/C7H9NO/c9-3-7-2-4-1-5(4)6(7)8-7/h3-6,8H,1-2H2/t4-,5-,6-,7-/m1/s1
