17
gdb 76907	2.44685	1.86327	1.52009	1.7154	62.24	-0.2473	0.0458	0.2931	919.5723	0.137503	-496.073134	-496.065739	-496.064795	-496.105142	28.87	
O	 0.3983295598	 1.1689518106	-0.3892043855	-0.439747
C	 0.1142275717	-0.1659378088	-0.0460892148	 0.07285
C	 0.1510125556	-0.4405663275	 1.5022618964	 0.04979
O	 0.3450398199	 0.7212331963	 2.2577925988	-0.428691
C	-1.3391241518	-0.9458575079	 1.4231659416	 0.069102
O	-2.331806195	-0.1812018151	 2.0647154264	-0.234987
C	-2.5444912536	 0.963416469	 1.2839199111	 0.01677
O	-2.2270470526	 0.6268732101	-0.0751639985	-0.286536
C	-1.4021064832	-0.5300433704	-0.0695679804	 0.020961
H	-0.4642777681	 1.5870232378	-0.5373369672	 0.30136
H	 0.7457145495	-0.8392427244	-0.6326217801	 0.083401
H	 0.854423699	-1.2263285921	 1.8055680995	 0.072888
H	 0.6362601106	 1.3910979093	 1.618037986	 0.291038
H	-1.4894826975	-1.9951281443	 1.6797333551	 0.092753
H	-3.6014499233	 1.242370402	 1.3365266315	 0.122911
H	-1.9037885231	 1.7897691296	 1.6172843059	 0.105368
H	-1.755633868	-1.225527724	-0.8326386559	 0.090771
70.1017	205.6335	241.6684	268.5227	283.5547	434.3849	523.8127	578.4627	588.1645	635.6822	677.0799	741.728	810.5619	819.3962	852.5808	901.383	946.0362	974.5153	1028.6163	1093.3543	1110.2683	1139.0434	1157.521	1162.6608	1184.3314	1215.3466	1238.8474	1260.8139	1262.5871	1317.7658	1329.5202	1353.1676	1362.4582	1406.3465	1420.027	1439.1344	1545.9219	3017.2511	3020.0036	3068.0086	3085.3699	3094.8301	3112.0181	3676.1441	3702.3202
OC1C(O)C2OCOC12	O[C@H]1[C@@H](O)[C@H]2OCO[C@@H]12	
InChI=1S/C5H8O4/c6-2-3(7)5-4(2)8-1-9-5/h2-7H,1H2	InChI=1S/C5H8O4/c6-2-3(7)5-4(2)8-1-9-5/h2-7H,1H2/t2-,3+,4-,5+
