16
gdb 125810	2.67394	1.49682	0.97875	4.4195	73.48	-0.2478	-0.025	0.2227	1152.6204	0.125154	-434.077517	-434.069165	-434.06822	-434.110744	31.061	
C	 0.1681836267	 1.5091189878	-0.0240349567	-0.474567
C	 0.0577321306	 0.0217630055	 0.034888104	 0.307098
N	 0.0177795284	-0.6768788521	-1.0730595217	-0.194389
O	-0.0905266966	-2.018433774	-0.686734868	-0.171169
C	-0.1059654063	-2.0784384338	 0.6448357959	-0.01535
C	-0.0108146254	-0.8333476137	 1.18925545	 0.109728
C	-0.0054487769	-0.4535641889	 2.6092177211	 0.218486
N	 0.2366605384	-1.511296638	 3.4833735199	-0.552037
N	-0.2712089583	 0.7548249112	 2.938922365	-0.521031
H	 1.0589328205	 1.8496607332	 0.5113752981	 0.140815
H	 0.2204238994	 1.8335460556	-1.0650141643	 0.135823
H	-0.6863938268	 1.9728870399	 0.4731138596	 0.160247
H	-0.2160558231	-3.0632031455	 1.0730944962	 0.155633
H	 0.8848039713	-2.2144172253	 3.1589033805	 0.2506
H	 0.4044940953	-1.2430857022	 4.4426931441	 0.246973
H	-0.218437977	 0.8839524601	 3.9512027662	 0.203138
63.2564	135.6763	181.6185	200.3507	282.885	314.0848	406.3376	415.0372	507.499	562.2589	613.5753	645.9375	657.0934	706.0462	756.8384	860.6177	867.4713	895.0458	937.2714	1031.7108	1070.2968	1077.4696	1128.8006	1170.0277	1191.2949	1288.1826	1388.7477	1418.9732	1437.9981	1468.9399	1471.6589	1536.6577	1626.8555	1643.1749	1715.7286	3057.4954	3122.6599	3149.2371	3257.8817	3451.1738	3558.6039	3663.9121
CC1=NOC=C1C(N)=N	Cc1nocc1C(=N)N	
InChI=1S/C5H7N3O/c1-3-4(5(6)7)2-9-8-3/h2H,1H3,(H3,6,7)	InChI=1S/C5H7N3O/c1-3-4(5(6)7)2-9-8-3/h2H,1H3,(H3,6,7)
