17
gdb 75224	3.80653	1.2104	1.0907	1.2888	80.84	-0.2417	0.0023	0.244	1150.3846	0.135322	-380.829102	-380.820859	-380.819914	-380.861632	31.646	
C	 0.0163080489	 1.4698288446	 0.0331114865	-0.472783
C	 0.0069083653	-0.0200074561	-0.039505442	 0.339728
N	 0.0361884886	-0.6995837037	-1.1162700755	-0.255131
C	-0.0118629301	-2.1207684309	-0.7638002841	-0.23995
C	 0.0171980567	-2.1606947062	 0.7753527082	 0.114668
C	 1.1789412077	-1.5012412008	 1.4365208067	-0.279016
N	-0.0660114487	-0.7309483203	 1.2140748795	-0.178068
C	-0.7623610403	-3.1453184388	 1.4658995808	 0.195923
C	-1.4050382107	-4.0087563918	 2.001398331	-0.367657
H	 0.8659919988	 1.818067598	 0.6309101106	 0.13803
H	 0.0746816987	 1.8961339978	-0.9684066431	 0.146903
H	-0.8899955926	 1.8244000263	 0.5345764226	 0.149543
H	-0.9379355707	-2.568896042	-1.1398316543	 0.129885
H	 0.8225115906	-2.6581924146	-1.2269440528	 0.121565
H	 1.3918440065	-1.7268956825	 2.4761321252	 0.13359
H	 2.0399569279	-1.2540224328	 0.8195890171	 0.128834
H	-1.9765290068	-4.7604821963	 2.4871857436	 0.193938
108.7361	145.7145	169.7268	225.6202	297.9289	330.6129	366.9461	487.6091	524.7187	573.2071	616.644	630.3755	653.4124	667.5217	752.7196	830.0788	837.4482	928.2712	962.3989	986.2612	1011.1577	1068.0781	1079.4849	1124.1864	1132.3931	1198.3835	1228.5245	1245.8195	1305.8563	1365.2677	1409.0668	1471.6596	1474.9612	1485.6969	1499.817	1718.4371	2241.914	3043.1715	3044.3757	3079.0323	3099.0488	3108.2612	3157.6672	3208.9881	3502.2627
CC1=NCC2(CN12)C#C	CC1=NC[C@]2(CN12)C#C	
InChI=1S/C7H8N2/c1-3-7-4-8-6(2)9(7)5-7/h1H,4-5H2,2H3	InChI=1S/C7H8N2/c1-3-7-4-8-6(2)9(7)5-7/h1H,4-5H2,2H3/t7-,9?/m0/s1
