22
gdb 119719	3.05693	1.04604	0.90974	2.0476	83.61	-0.2193	0.0873	0.3066	1411.0783	0.193273	-404.291825	-404.282153	-404.281208	-404.326639	35.585	
C	 0.2566889192	 1.3544066831	-0.6004353496	-0.222482
O	 0.0634648519	-0.0315548075	-0.4559093301	-0.229305
C	 1.0538873422	-0.7951644457	-1.1009905153	-0.163483
C	 0.7395596172	-2.2612569875	-0.999007711	 0.308912
C	 1.6531596065	-3.3325638457	-1.5968713281	-0.323224
C	 0.3619127513	-4.0095986683	-2.1181125277	-0.149768
N	-0.5145860971	-2.9025490109	-1.5960208824	-0.189975
C	-0.3063054485	-2.8326462902	-0.1255734286	-0.012267
C	-0.1593082716	-4.0302380895	 0.7844120995	-0.431571
H	 1.215896654	 1.6810397277	-0.1674337556	 0.102084
H	 0.236029735	 1.6615640438	-1.6578818975	 0.107047
H	-0.5579639459	 1.8543790275	-0.0712370256	 0.128447
H	 1.1327446775	-0.5063399581	-2.1643170255	 0.090035
H	 2.0457326958	-0.6110160015	-0.6460213776	 0.08576
H	 2.278784745	-2.9481544469	-2.4061342312	 0.107296
H	 2.2915140543	-3.8843961025	-0.8997315328	 0.100553
H	 0.2939205075	-4.0416952121	-3.2072386774	 0.107962
H	 0.1191917636	-5.0016873209	-1.7256833094	 0.102418
H	-0.9680498505	-2.0695275163	 0.2745625282	 0.113406
H	 0.613800084	-4.7324282243	 0.4642003411	 0.118707
H	 0.1003302387	-3.6933340074	 1.7934868958	 0.123281
H	-1.1055617302	-4.5784930566	 0.8529409708	 0.126167
68.845	78.384	142.9526	171.8417	218.0866	243.3451	259.162	293.7787	352.4099	388.4575	458.9018	559.4868	678.9449	737.4572	754.7855	790.7751	854.3833	936.1513	961.133	989.9302	994.0367	1037.9722	1071.1185	1113.6435	1123.4675	1144.4425	1171.1957	1185.8173	1189.633	1210.0435	1219.7002	1237.8362	1264.8931	1276.0989	1312.4995	1340.502	1411.2588	1427.2383	1462.4201	1480.1463	1481.808	1485.7467	1497.6838	1503.7784	1507.8124	1518.9875	1522.1727	2925.5773	2954.5015	2970.3025	3013.995	3036.5309	3047.7924	3058.0154	3094.7043	3095.3821	3114.2392	3115.8033	3119.1872	3159.8805
COCC12CCN1C2C	COC[C@]12CCN1[C@H]2C	
InChI=1S/C7H13NO/c1-6-7(5-9-2)3-4-8(6)7/h6H,3-5H2,1-2H3	InChI=1S/C7H13NO/c1-6-7(5-9-2)3-4-8(6)7/h6H,3-5H2,1-2H3/t6-,7-,8?/m0/s1
