27
gdb 115710	2.333	1.05875	0.82572	0.0565	96.15	-0.2767	0.0794	0.356	1574.4057	0.251486	-353.561726	-353.55092	-353.549976	-353.597196	41.063	
C	-0.029666133	 1.6942780661	-0.2839754833	-0.386333
C	 0.0264937932	 0.1885082873	-0.0022471801	-0.178426
C	-1.3630207374	-0.4547880605	 0.0393892885	-0.001012
C	-1.9998935778	-0.6525702437	-1.3700569331	-0.229711
C	-1.5694034818	-2.1413379658	-1.3301826092	-0.245416
C	-1.4096880301	-2.0155105682	 0.2105251691	 0.062047
C	-0.2979687003	-2.7807533474	 0.9298012747	 0.013675
C	-0.3090805189	-2.4926539775	 2.4382169685	-0.390941
C	-0.4193512488	-4.2891154771	 0.6662829726	-0.391251
H	 0.9738259907	 2.1298474697	-0.3209781884	 0.109196
H	-0.5186080171	 1.905821186	-1.24069679	 0.117032
H	-0.5926315264	 2.218957071	 0.4961914485	 0.112625
H	 0.643916487	-0.3012582996	-0.7668511247	 0.092916
H	 0.5409084122	 0.0245841674	 0.9525157961	 0.096389
H	-1.98276309	 0.0980275085	 0.7543144906	 0.056537
H	-3.0873290993	-0.5392999269	-1.3522346562	 0.095943
H	-1.6043434799	-0.0379892632	-2.1836203759	 0.091164
H	-2.2735974578	-2.8858313567	-1.7097902337	 0.091917
H	-0.6056064976	-2.2999299656	-1.8254053854	 0.096467
H	-2.3660347871	-2.2775123787	 0.6835979634	 0.060458
H	 0.6675859316	-2.4487373298	 0.5237649757	 0.0673
H	-1.2442745467	-2.8432581667	 2.891766756	 0.109127
H	 0.5160853162	-3.0035991726	 2.9458226243	 0.107483
H	-0.2210219797	-1.4226881308	 2.6507241042	 0.114026
H	 0.3865914172	-4.8425195296	 1.1599560197	 0.106342
H	-1.3710131282	-4.6775476802	 1.04909581	 0.108671
H	-0.3744552901	-4.5156689356	-0.4035535517	 0.113773
81.8207	115.0842	124.2423	148.6051	208.0591	223.9827	225.7956	251.9465	289.9289	312.719	368.8469	405.2859	450.4445	522.2709	671.0129	755.9307	771.2452	822.2204	877.2649	898.9676	928.1439	933.4245	953.1233	962.5955	976.9626	986.2584	1018.7019	1048.0244	1068.4941	1111.255	1134.4167	1162.1074	1190.3929	1208.4349	1219.3514	1251.2144	1262.2635	1272.4647	1277.9824	1311.3548	1317.1104	1343.9852	1348.8766	1392.1363	1397.9139	1399.6064	1411.6873	1422.2525	1481.1046	1486.5355	1488.1472	1492.1805	1499.6821	1501.9835	1505.1802	1509.2382	1511.6197	2999.4382	3013.4837	3017.142	3022.3158	3027.3199	3030.0201	3033.7228	3045.4888	3052.953	3055.5638	3085.159	3090.9988	3092.18	3097.1183	3101.0869	3102.1402	3103.0712	3108.7099
CCC1CCC1C(C)C	CC[C@H]1CC[C@H]1C(C)C	
InChI=1S/C9H18/c1-4-8-5-6-9(8)7(2)3/h7-9H,4-6H2,1-3H3	InChI=1S/C9H18/c1-4-8-5-6-9(8)7(2)3/h7-9H,4-6H2,1-3H3/t8-,9-/m0/s1
