16
gdb 85788	2.48449	1.25138	1.16224	2.9423	70.23	-0.2573	-0.054	0.2032	1135.6985	0.121686	-437.900116	-437.890642	-437.889698	-437.934831	33.151	
C	-0.6045492724	 1.6072067261	 0.1769148263	-0.443803
C	-0.0480120135	 0.1925458174	-0.0053296058	 0.000421
C	 0.8903543073	-0.09259602	-1.2378736121	-0.291553
C	 1.9300095935	-0.7938678454	-0.3222602568	 0.041427
O	 3.2658179441	-0.4637081411	-0.5624632187	-0.423073
C	 1.2178781302	-0.137598437	 0.871276023	 0.345936
O	 1.5604991797	 0.2187701226	 1.9552858291	-0.283404
C	-1.078213427	-0.8256035173	 0.1468325619	 0.256061
N	-1.8860131585	-1.6445757594	 0.2707938729	-0.332283
H	 0.2028082776	 2.3385787936	 0.0878793642	 0.135439
H	-1.3640354944	 1.8259932957	-0.5783311105	 0.143568
H	-1.0559259299	 1.7126691155	 1.1662799115	 0.156304
H	 0.4665683507	-0.6900703599	-2.043015292	 0.1374
H	 1.2974592415	 0.8411187888	-1.6306398296	 0.137429
H	 1.7532009005	-1.8818156543	-0.3036058588	 0.118078
H	 3.7884868005	-0.7402770553	 0.1986864054	 0.302052
62.626	93.401	127.8471	178.118	192.8523	214.9646	244.1895	319.1887	366.2938	446.1707	492.8849	569.98	601.7198	724.2657	765.4501	794.9785	905.0743	924.9273	954.7226	988.9658	1078.568	1119.6946	1152.3753	1193.2306	1213.036	1247.1279	1251.5751	1318.1847	1403.78	1411.6819	1477.235	1487.3505	1492.5951	1901.7449	2344.1999	2975.0983	3050.24	3090.8394	3128.2752	3134.3232	3164.7718	3809.5189
CC1(CC(O)C1=O)C#N	C[C@]1(C[C@@H](O)C1=O)C#N	
InChI=1S/C6H7NO2/c1-6(3-7)2-4(8)5(6)9/h4,8H,2H2,1H3	InChI=1S/C6H7NO2/c1-6(3-7)2-4(8)5(6)9/h4,8H,2H2,1H3/t4-,6+/m1/s1
