20
gdb 73959	2.30325	1.4564	0.92561	5.8921	87.76	-0.201	-0.0172	0.1838	1269.0301	0.171908	-403.194571	-403.185321	-403.184377	-403.228951	33.959	
C	 0.1212259235	 1.5190447476	-0.0476924216	-0.500488
C	-0.0406885516	 0.0204416999	 0.0063294538	 0.317023
C	-1.2267130241	-0.663152264	-0.0379613294	 0.064119
C	-1.2379097756	-2.1783681076	-0.0021156555	-0.293326
C	 0.1036720054	-2.7676708306	-0.4498151709	-0.214818
C	 1.2538778179	-2.0766614913	 0.2837394256	-0.155945
N	 1.1521010146	-0.637687586	 0.094603278	-0.334681
C	-2.5163366928	-0.0111140983	-0.1254208845	 0.071423
O	-3.5813482684	-0.6066177113	-0.1755881801	-0.320982
H	 0.8049807071	 1.7901449189	-0.8604992194	 0.135657
H	-0.8165632114	 2.0442707416	-0.2080156446	 0.153061
H	 0.5622078373	 1.8861802059	 0.8868717336	 0.135509
H	-1.482230718	-2.5307356946	 1.0096415592	 0.106526
H	-2.0539653299	-2.5345645883	-0.6371986332	 0.127103
H	 0.1429288648	-3.8444961483	-0.2599818427	 0.101696
H	 0.2343845556	-2.6202076211	-1.5280687076	 0.108955
H	 1.2205926581	-2.3316298749	 1.3542508551	 0.108358
H	 2.2243689578	-2.4072180204	-0.1001865452	 0.107916
H	 1.9828282899	-0.0847738666	 0.2212561705	 0.242337
H	-2.5130885703	 1.0992108394	-0.1398907212	 0.040557
62.1391	91.763	130.5714	178.6512	235.6799	280.0794	346.0453	354.0145	374.9656	451.0351	476.0205	586.5327	608.1128	646.4428	756.0019	864.9449	890.7572	909.5481	956.5083	1008.1366	1036.4585	1056.9049	1096.712	1121.7128	1141.3711	1202.6679	1213.7888	1271.4086	1302.6867	1312.0504	1367.6648	1372.9314	1385.2083	1407.8144	1449.2254	1478.6243	1482.3488	1484.99	1492.0605	1509.0433	1551.1964	1661.6263	1740.7324	2891.7472	2982.9318	3010.6613	3031.9567	3040.3128	3069.3554	3080.5223	3085.9752	3091.2465	3179.4372	3647.6896
CC1=C(CCCN1)C=O	CC1=C(CCCN1)C=O	
InChI=1S/C7H11NO/c1-6-7(5-9)3-2-4-8-6/h5,8H,2-4H2,1H3	InChI=1S/C7H11NO/c1-6-7(5-9)3-2-4-8-6/h5,8H,2-4H2,1H3
