16
gdb 19795	3.07755	2.60212	1.85554	2.1177	62.02	-0.2516	0.065	0.3166	748.7413	0.132084	-383.706396	-383.700007	-383.699063	-383.736669	25.786	
O	 0.0934673249	 1.415052705	-0.0058288817	-0.435339
C	 0.0173778559	 0.0023565882	 0.0354540946	 0.106349
C	-1.4055785786	-0.586862369	 0.0369279434	-0.072269
C	-2.3301438828	-0.3300064547	-1.1267753584	-0.293931
C	-1.520891959	-1.6029110548	-1.0815424602	-0.06232
C	-0.1969324635	-1.5777531536	-1.8203625856	 0.030059
O	 0.1348607419	-0.3043500081	-2.406126263	-0.266016
C	 0.7292282022	-0.6618641244	-1.1453242328	-0.005109
H	-0.2101147019	 1.6803217192	-0.8820981797	 0.289631
H	 0.5204240882	-0.2889722431	 0.964304007	 0.090057
H	-1.8613220038	-0.7680286834	 1.0034594649	 0.090226
H	-3.3927412118	-0.4104338225	-0.9254344789	 0.112006
H	-2.0640868735	 0.4059789834	-1.8749628457	 0.127744
H	-2.0120399579	-2.5597903562	-0.9518357173	 0.088
H	 0.1294974317	-2.4424753939	-2.3908431941	 0.099999
H	 1.8125425478	-0.7550761321	-1.1543957826	 0.100913
135.4936	222.4584	336.1975	360.3028	452.4265	532.8282	558.0981	682.6041	726.9289	756.5996	797.6185	844.9086	856.8427	891.6153	942.5868	967.2118	1002.4611	1042.7118	1071.4681	1082.6054	1085.6655	1101.9066	1107.8625	1114.6566	1198.3695	1258.3193	1276.8415	1297.4701	1314.4105	1350.9446	1381.6919	1423.7802	1432.8946	1484.1395	3054.2112	3142.3944	3143.2356	3159.0577	3171.9697	3186.4774	3233.6872	3794.2396
OC1C2CC2C2OC12	O[C@H]1[C@H]2C[C@H]2[C@H]2O[C@@H]12	
InChI=1S/C6H8O2/c7-4-2-1-3(2)5-6(4)8-5/h2-7H,1H2	InChI=1S/C6H8O2/c7-4-2-1-3(2)5-6(4)8-5/h2-7H,1H2/t2-,3+,4-,5+,6-/m0/s1
