23
gdb 64195	2.42696	1.35477	1.27908	1.9915	84.48	-0.2403	0.0654	0.3058	1171.5844	0.204901	-388.264297	-388.254929	-388.253985	-388.298329	36.086	
C	-0.1182048342	 1.4967170792	 0.076416013	-0.437019
C	-0.0288106017	-0.0307512411	-0.0168768151	 0.264015
C	-1.3968685514	-0.624965794	-0.3369557286	-0.45823
C	 1.1475243374	-0.4787307008	-0.9416573727	-0.256549
C	 2.032822472	-0.6846613432	 0.3133992401	-0.296393
C	 0.7636017623	-0.6399031664	 1.1966519355	 0.279988
C	 0.7762853521	-0.0525967728	 2.6204483691	-0.141542
O	 0.4293183444	-1.3223254649	 3.2072568033	-0.275555
C	 0.3105205027	-1.9357554791	 1.9090859925	-0.135945
H	 0.8498711351	 1.9492014018	 0.3167697802	 0.112092
H	-0.451759884	 1.9170398573	-0.8789850396	 0.113251
H	-0.8334730426	 1.8113630335	 0.8440904814	 0.115634
H	-1.7850019917	-0.2056559144	-1.2725791944	 0.112915
H	-1.3519085204	-1.7118110906	-0.4585207618	 0.11217
H	-2.1274732182	-0.4045314051	 0.4504245222	 0.1159
H	 0.9288476154	-1.4203012382	-1.4539143342	 0.09673
H	 1.4910447768	 0.2464039367	-1.684444798	 0.093834
H	 2.6283954995	-1.6003115729	 0.3630532842	 0.099873
H	 2.6967673182	 0.1638421546	 0.5050121262	 0.102279
H	 1.7499177058	 0.3135961346	 2.9730885284	 0.096229
H	 0.0159228315	 0.7128689324	 2.8268331503	 0.094623
H	-0.7182832191	-2.261167366	 1.7097847122	 0.09658
H	 0.9823089403	-2.7974710708	 1.7973501156	 0.09512
63.4045	81.9652	206.0429	223.5674	257.0582	278.4003	303.2694	339.5764	354.737	418.2862	450.538	517.1731	624.3171	737.3877	848.149	856.5948	881.1373	897.2385	944.6804	951.8871	960.2643	967.4221	995.6264	1007.7614	1030.5182	1043.7206	1142.2935	1160.6616	1164.3566	1187.5774	1193.3701	1219.5188	1224.3382	1244.0649	1278.9208	1289.7695	1299.2775	1312.2701	1381.7989	1400.6356	1419.3242	1477.0919	1483.5619	1487.8535	1496.3197	1503.0092	1505.3561	1510.4281	1533.1871	2992.5578	3005.6728	3019.5941	3025.2185	3036.7198	3044.404	3046.7519	3051.8995	3083.0096	3089.627	3092.0218	3093.4643	3096.6315	3107.7952
CC1(C)CCC11COC1	CC1(C)CCC21COC2	
InChI=1S/C8H14O/c1-7(2)3-4-8(7)5-9-6-8/h3-6H2,1-2H3	InChI=1S/C8H14O/c1-7(2)3-4-8(7)5-9-6-8/h3-6H2,1-2H3
