22
gdb 118001	3.32495	0.77474	0.65916	3.9978	83.57	-0.2376	0.0215	0.2591	1732.0995	0.193787	-400.534846	-400.523787	-400.522842	-400.571396	39.797	
C	 0.0291326069	 1.5954384814	 0.0861220656	-0.382856
C	 0.0294655482	 0.0671362653	 0.0024446517	-0.167519
C	-1.3823915074	-0.5295327449	 0.0308928515	-0.170743
C	-1.4032955322	-2.0634813204	 0.0016057531	 0.012844
N	-0.7473913202	-2.5859130052	 1.1961624575	-0.506127
C	-2.8678862712	-2.5956941883	-0.2014318602	-0.148281
N	-3.5488957218	-2.2412335281	-1.4468304212	-0.50274
C	-2.8589720655	-4.064017723	-0.0753421562	 0.293388
N	-2.7944285415	-5.2141812512	 0.0194846002	-0.32662
H	 1.0479678829	 1.9936665648	 0.0581427541	 0.116006
H	-0.5251233462	 2.0433279834	-0.7467735892	 0.110232
H	-0.4366350298	 1.9420869786	 1.015582674	 0.113567
H	 0.5320335102	-0.2506687194	-0.9206207376	 0.093887
H	 0.6086639075	-0.3592146831	 0.8267977936	 0.123607
H	-1.9082457363	-0.1891648785	 0.9364073383	 0.089478
H	-1.95366956	-0.1388167193	-0.8200061119	 0.082408
H	-0.8217269356	-2.4089276828	-0.865071336	 0.08826
H	-1.2717181869	-2.33125875	 2.029504609	 0.225975
H	-0.7056338609	-3.6002852312	 1.1718896348	 0.248511
H	-3.4776635903	-2.2085866083	 0.6268291907	 0.123196
H	-3.7034495761	-1.24020308	-1.484634204	 0.242859
H	-2.9751392437	-2.4919423297	-2.2469655878	 0.240669
53.586	81.4259	96.7357	128.8287	182.2021	222.5128	247.4093	260.9325	293.7201	300.3778	347.4968	395.1724	424.0498	469.6683	594.6349	606.7763	751.8384	812.9233	837.4211	861.1842	887.1504	917.71	963.3281	1013.0316	1054.4702	1062.9033	1106.6937	1115.0641	1160.578	1182.9957	1230.9896	1246.4214	1293.6901	1319.9194	1338.8556	1360.8033	1389.8826	1400.3982	1410.1687	1413.8633	1479.9354	1494.687	1500.3214	1511.9236	1655.4776	1661.264	2354.8889	2992.56	3007.2435	3024.3917	3026.4189	3028.7562	3049.7251	3078.7517	3101.0465	3104.2914	3484.9085	3502.3496	3570.2279	3595.8431
CCCC(N)C(N)C#N	CCC[C@@H](N)[C@@H](N)C#N	
InChI=1S/C6H13N3/c1-2-3-5(8)6(9)4-7/h5-6H,2-3,8-9H2,1H3	InChI=1S/C6H13N3/c1-2-3-5(8)6(9)4-7/h5-6H,2-3,8-9H2,1H3/t5-,6+/m1/s1
