17
gdb 46264	3.06118	1.50753	1.23991	2.1225	72.32	-0.228	-0.0352	0.1928	1028.9233	0.13637	-417.943549	-417.935989	-417.935045	-417.975801	29.128	
O	 0.003083131	 0.0249197371	-0.3013474519	-0.292849
C	-0.0366213534	 1.1967904731	-0.0727589031	 0.33278
C	-1.1264663832	 2.2147644576	 0.2988426657	-0.285548
N	-0.0367663856	 3.1993763121	 0.5434038211	-0.380156
C	 1.0096602721	 2.3198478557	-0.0267361518	 0.231687
C	 2.3983713125	 2.257675957	 0.6538998304	-0.225729
N	 3.1139422804	 2.7149572871	-0.5931190968	-0.124996
C	 2.8012740918	 1.6994724081	-1.6140320035	-0.239223
C	 1.7745818698	 2.7143709372	-1.2980385728	-0.115241
H	-1.7961660738	 2.4334423556	-0.5441616727	 0.127024
H	-1.7334362199	 1.9816912611	 1.1798945585	 0.136874
H	-0.1495657431	 4.0842365037	 0.061751285	 0.22755
H	 2.4781489094	 3.0126524537	 1.4381324709	 0.128959
H	 2.7331080842	 1.2854781152	 1.0296484647	 0.117247
H	 3.3680112479	 1.8292555364	-2.5307559437	 0.126166
H	 2.6405984631	 0.666955089	-1.3129627824	 0.137453
H	 1.4737315168	 3.5023132003	-1.9835140277	 0.098002
98.2326	118.1244	155.5774	309.2997	332.1234	439.4936	460.2812	537.3339	591.1607	664.1091	737.4988	744.333	790.5996	855.6579	881.0209	935.0433	956.5899	991.12	1002.0859	1043.3953	1048.2853	1085.0798	1110.2519	1114.0462	1134.3244	1175.7036	1194.5334	1208.5001	1236.2617	1273.4323	1283.3886	1345.9136	1365.3291	1475.8495	1479.0918	1505.0011	1907.6698	3015.232	3052.2674	3075.0839	3112.0005	3127.1929	3145.6873	3204.9159	3541.5761
O=C1CNC11CN2CC12	O=C1CN[C@]21CN1C[C@@H]21	
InChI=1S/C6H8N2O/c9-5-1-7-6(5)3-8-2-4(6)8/h4,7H,1-3H2	InChI=1S/C6H8N2O/c9-5-1-7-6(5)3-8-2-4(6)8/h4,7H,1-3H2/t4-,6+,8?/m0/s1
