21
gdb 39583	3.26181	1.46164	1.06502	0.2069	88.64	-0.2333	0.0241	0.2575	1154.3373	0.186163	-349.977801	-349.970504	-349.96956	-350.009218	30.44	
C	-0.0147236075	 1.6341737208	 0.1374548363	-0.312282
C	 1.4707233535	 1.9469484638	 0.0363150571	-0.067474
C	 2.2202751102	 0.8898412522	 0.3613151841	-0.126321
C	 1.3361817408	-0.2608093582	 0.7917375562	 0.03159
C	 1.6699589032	-1.7292359654	 0.5462915266	-0.250226
C	 0.5421192722	-2.5958647458	 1.1633040323	-0.254926
C	-0.8425685476	-1.9884976038	 1.0654218362	-0.042158
C	-1.1034755492	-0.7662097803	 0.5957198215	-0.111163
C	 0.0157582331	 0.0924915668	 0.0807666611	 0.027981
H	-0.4237544324	 1.9991164949	 1.0923553337	 0.104598
H	-0.6137755805	 2.0867436154	-0.6598966959	 0.097917
H	 1.8479293099	 2.928592145	-0.228407802	 0.089671
H	 3.3037958785	 0.8732925153	 0.409431973	 0.087559
H	 1.1694847623	-0.1535125127	 1.8788815576	 0.079239
H	 1.7421970112	-1.915913465	-0.5324699285	 0.098305
H	 2.6347185499	-2.0116383326	 0.9825125706	 0.088631
H	 0.5367359019	-3.5906723769	 0.6990863448	 0.10383
H	 0.7606092811	-2.7804834543	 2.2259040585	 0.107896
H	-1.6583527169	-2.6145616294	 1.4213540527	 0.081568
H	-2.1266967097	-0.4013691072	 0.5444279479	 0.079962
H	 0.169630966	-0.1478809025	-0.9838471338	 0.085802
132.6399	186.5963	266.0695	341.1365	377.008	434.037	480.8135	524.5691	554.2161	674.2118	731.4978	748.3084	771.937	839.3281	859.8631	866.948	938.3046	960.8716	969.188	994.9677	1003.2152	1051.1947	1059.6147	1084.9437	1099.6102	1111.5841	1144.5018	1156.6914	1203.3938	1210.6541	1231.9228	1275.7389	1285.5717	1320.0881	1339.2487	1352.5041	1360.8361	1371.8479	1396.6816	1415.1093	1474.2871	1488.339	1500.4433	1657.7244	1704.5877	2935.1053	2966.2742	2995.0007	2996.286	3022.1933	3036.7595	3063.9015	3067.5013	3136.8989	3161.3467	3178.2154	3203.6911
C1C=CC2CCC=CC12	C1C=C[C@@H]2CCC=C[C@@H]12	
InChI=1S/C9H12/c1-2-5-9-7-3-6-8(9)4-1/h1,3-4,7-9H,2,5-6H2	InChI=1S/C9H12/c1-2-5-9-7-3-6-8(9)4-1/h1,3-4,7-9H,2,5-6H2/t8-,9-/m0/s1
