17
gdb 37826	2.99652	1.98997	1.72629	1.7875	71.16	-0.2281	0.0705	0.2986	853.3377	0.137029	-421.713066	-421.70667	-421.705726	-421.743507	26.743	
C	-0.1265069674	 1.6320201852	 0.1094899654	-0.335405
C	 1.3916810921	 1.3292105512	 0.0393970895	-0.1821
C	 1.24106794	-0.0441702988	 0.8030790823	 0.006577
O	 1.9491769005	-0.8251511045	-0.1952315947	-0.359025
C	 1.1796192496	 0.1525872477	-0.9747440355	 0.388421
C	 0.6618318098	-0.2569163492	-2.3237247782	-0.380378
C	-0.4758961105	-1.238655629	-1.8736474234	-0.079594
O	-0.973473005	-0.7908290124	-0.5822741083	-0.310473
C	-0.0552630135	 0.1019185624	-0.0723995973	 0.361
H	-0.5075515282	 2.0094303085	 1.0612319675	 0.105584
H	-0.5404144287	 2.2028641424	-0.7263835169	 0.102475
H	 2.2367478349	 2.0108317604	 0.1082279472	 0.094357
H	 1.4010232022	-0.2670845954	 1.8583820335	 0.097378
H	 0.24616074	 0.605052922	-2.8540075553	 0.12422
H	 1.396549816	-0.7472400172	-2.9655782172	 0.127493
H	-1.318824581	-1.2593288325	-2.5701859428	 0.113204
H	-0.0780298008	-2.252566231	-1.7636067159	 0.126265
158.414	245.9072	316.2249	405.3783	457.1365	516.8012	590.8302	675.8862	727.4218	782.0675	802.0042	834.0877	850.043	882.9857	907.6877	911.259	929.6008	980.6106	987.2029	1021.342	1057.7239	1075.3309	1112.4642	1125.757	1139.8014	1176.1859	1194.5562	1203.7423	1224.5783	1266.7556	1273.7206	1296.7985	1351.002	1394.376	1463.307	1511.4654	1517.2665	3048.9973	3058.5393	3065.5136	3098.4027	3116.037	3117.8485	3126.4782	3149.0688
C1C2C3OC22CCOC132	C1[C@H]2[C@@H]3O[C@@]42CCO[C@@]134	
InChI=1S/C7H8O2/c1-2-8-7-3-4-5(7)9-6(1,4)7/h4-5H,1-3H2	InChI=1S/C7H8O2/c1-2-8-7-3-4-5(7)9-6(1,4)7/h4-5H,1-3H2/t4-,5-,6+,7-/m0/s1
