17
gdb 77716	2.86356	1.71085	1.59359	1.689	71.39	-0.2108	0.0219	0.2327	914.4229	0.137209	-417.95498	-417.947328	-417.946384	-417.986602	30.075	
O	-0.0553314262	 1.351892243	 0.0552132545	-0.420935
C	-0.0636481644	-0.040998379	-0.0152363526	 0.035705
C	-1.3831487298	-0.7441776029	 0.0492559867	 0.165843
C	-2.5099187835	-0.0301100145	-0.7252424665	-0.265331
C	-1.6199291044	 0.0034828977	-2.0181248508	-0.265895
C	-0.5208470103	-0.7570518759	-1.2564913062	 0.173367
N	-0.1154745619	-2.1161028938	-1.5133954449	-0.301174
C	-0.6013886126	-2.8033269908	-0.5366177278	 0.031819
N	-1.3259690816	-2.1235783806	 0.4380386995	-0.348099
H	 0.6346069491	 1.6716652829	-0.5368318027	 0.290792
H	 0.732401109	-0.548208639	 0.529040345	 0.097043
H	-3.385688576	-0.6710057036	-0.8431757355	 0.103368
H	-2.8197196162	 0.9343502459	-0.3174436205	 0.117
H	-2.031325746	-0.5942639125	-2.8324148397	 0.115073
H	-1.3521976881	 0.9933680114	-2.3961735385	 0.096611
H	-0.4419281148	-3.8719549958	-0.4225668489	 0.126579
H	-2.0000052423	-2.5778138126	 1.0313937691	 0.248234
136.7494	205.1339	226.4898	275.4963	284.2579	348.9924	400.6593	451.664	564.6953	589.4834	712.7955	727.8614	761.8218	776.4364	792.8474	918.5192	943.674	946.5277	963.9778	1021.2317	1063.5885	1085.8318	1139.8592	1175.4937	1197.3226	1232.69	1251.8045	1261.7699	1278.6087	1297.3579	1315.2294	1334.0445	1401.5604	1452.4137	1464.0583	1490.2598	1605.3172	3063.6627	3070.334	3111.6874	3118.8823	3137.0567	3186.2808	3646.4796	3796.837
OC1C23CCC12N=CN3	O[C@H]1[C@@]23CC[C@@]12N=CN3	
InChI=1S/C6H8N2O/c9-4-5-1-2-6(4,5)8-3-7-5/h3-4,9H,1-2H2,(H,7,8)	InChI=1S/C6H8N2O/c9-4-5-1-2-6(4,5)8-3-7-5/h3-4,9H,1-2H2,(H,7,8)/t4-,5-,6+
