24
gdb 113919	3.41535	0.71164	0.67065	2.2567	86.32	-0.2455	0.0693	0.3148	1807.5794	0.216502	-405.526181	-405.515379	-405.514435	-405.563042	39.493	
C	 0.2136613132	 1.4975029559	 0.1082926854	-0.392575
C	 0.0569073517	-0.0285462665	 0.1369737444	 0.038084
C	 0.4420042889	-0.5887714589	 1.5130708943	-0.369014
C	-1.3715051732	-0.4326268231	-0.2799780761	-0.183639
C	-1.5463535135	-1.920002428	-0.5039258215	-0.023395
N	-1.9894045331	-2.756529537	 0.6294432174	-0.344899
C	-2.854581089	-2.6288315139	-0.5624823683	-0.04868
C	-4.199112112	-1.992395181	-0.2925949279	-0.064242
O	-5.0002996256	-2.8361824839	 0.5182895665	-0.423323
H	 1.2339853741	 1.7949160254	 0.3718577716	 0.109489
H	-0.0106053857	 1.9063284209	-0.8827618361	 0.107937
H	-0.4651113107	 1.9736317817	 0.826158932	 0.113115
H	 0.7493140855	-0.4496402621	-0.6076937853	 0.066984
H	-0.216003418	-0.1873738314	 2.2926343714	 0.113911
H	 0.3605459313	-1.6778732758	 1.5486995593	 0.116554
H	 1.4706207292	-0.3150341396	 1.7710340924	 0.104823
H	-2.079737754	-0.0892910086	 0.4819842712	 0.103269
H	-1.6278982014	 0.0901475761	-1.2116181795	 0.092866
H	-0.7735221856	-2.3515781268	-1.1420035296	 0.08063
H	-1.5078159252	-3.6511293742	 0.6246395049	 0.231912
H	-2.9045573476	-3.4951162071	-1.2207068927	 0.086811
H	-4.0702530335	-1.0044719532	 0.170327892	 0.089213
H	-4.7474295253	-1.8510748097	-1.2301471713	 0.106173
H	-4.4661597404	-3.0253693993	 1.2993027855	 0.287997
37.2095	58.0003	101.0033	119.7234	205.5978	219.1342	254.3389	255.0947	311.9247	377.0128	411.8005	447.0656	464.4482	480.899	571.6935	795.2334	820.5866	851.9162	879.7533	923.3032	929.1127	962.6375	966.5031	977.2236	997.1882	1040.4199	1068.4353	1099.829	1138.8707	1160.2341	1186.4223	1195.4692	1235.7723	1270.0736	1273.0665	1282.5078	1313.2963	1364.8145	1368.5124	1378.3561	1401.1461	1406.436	1423.0782	1444.0295	1471.3797	1479.6817	1484.9187	1493.2046	1502.4904	1504.0129	1508.0811	2987.825	3009.5603	3017.7424	3023.5525	3032.2043	3069.4428	3074.9904	3087.9887	3091.2491	3095.1947	3098.5719	3118.682	3119.2899	3507.2843	3786.7187
CC(C)CC1NC1CO	CC(C)C[C@H]1N[C@H]1CO	
InChI=1S/C7H15NO/c1-5(2)3-6-7(4-9)8-6/h5-9H,3-4H2,1-2H3	InChI=1S/C7H15NO/c1-5(2)3-6-7(4-9)8-6/h5-9H,3-4H2,1-2H3/t6-,7+/m1/s1
