21
gdb 105815	2.33731	1.52484	1.22812	0.9145	82.22	-0.2056	0.0796	0.2852	1145.9117	0.181121	-386.997105	-386.988039	-386.987095	-387.030794	34.67	
C	-0.0179647526	 1.3081862658	 0.1974267398	-0.255067
O	-0.0659046817	-0.0575671731	-0.1815182658	-0.271861
C	-1.3369956575	-0.5908428164	-0.1101270377	 0.406626
C	-1.915753756	-1.1125166481	 1.1824877702	-0.077196
C	-3.1856801413	-0.7644610667	 1.9594030129	-0.438709
C	-1.6990450758	-2.0522008452	-0.0009801526	-0.191749
C	-2.6643012524	-1.8973791627	-1.2104848482	-0.047904
C	-3.7309440991	-0.8421844548	-1.0766707996	-0.308169
C	-2.3075579571	-0.4234266252	-1.3220770288	-0.125764
H	 1.0157616933	 1.6390992184	 0.0741980968	 0.124889
H	-0.669103669	 1.9286257494	-0.4347089143	 0.111309
H	-0.3189278665	 1.443832837	 1.2458346321	 0.108685
H	-1.0662787424	-1.2618219103	 1.8494286786	 0.097596
H	-3.9784093138	-1.5030095764	 1.8110791104	 0.130557
H	-2.9646248912	-0.7425217124	 3.0311446244	 0.1106
H	-3.5836043531	 0.2194513955	 1.69457688	 0.126493
H	-1.034491304	-2.9028855359	 0.0839697809	 0.094593
H	-2.689330308	-2.6297313397	-2.0069814455	 0.089829
H	-4.3647708226	-0.7550600033	-1.9560074184	 0.110284
H	-4.2538020365	-0.6439991831	-0.1531970171	 0.113703
H	-1.9964658527	 0.116187247	-2.2073369283	 0.091255
78.4092	110.1961	157.4449	176.3399	234.2133	266.3718	344.299	367.5565	404.7731	481.519	582.9567	663.8999	685.6781	742.4154	770.4935	839.5738	865.7334	904.8814	923.6023	966.3592	1002.0227	1023.2918	1050.5016	1060.9906	1070.8636	1080.0888	1091.8667	1111.9622	1124.0375	1175.0736	1180.2613	1201.5909	1231.018	1250.8613	1294.1156	1324.3456	1348.3065	1414.1262	1448.7821	1484.8941	1486.6105	1495.4066	1503.3582	1506.6868	1513.4488	2990.1666	3036.9711	3042.9865	3091.8008	3108.2195	3113.5052	3119.4922	3132.969	3184.1534	3191.6029	3199.2793	3250.5296
COC12C(C)C1C1CC21	CO[C@]12[C@@H](C)[C@H]1[C@H]1C[C@@H]21	
InChI=1S/C8H12O/c1-4-7-5-3-6(5)8(4,7)9-2/h4-7H,3H2,1-2H3	InChI=1S/C8H12O/c1-4-7-5-3-6(5)8(4,7)9-2/h4-7H,3H2,1-2H3/t4-,5-,6+,7-,8-/m0/s1
