22
gdb 110297	2.81565	1.16293	1.00716	0.9625	82.37	-0.2265	0.0597	0.2862	1306.0778	0.193194	-404.295363	-404.285788	-404.284844	-404.329376	36.401	
C	-0.0980328856	 1.6113709405	 0.0241571397	-0.387227
C	 0.077957973	 0.0895665684	 0.0412102901	-0.188476
C	 0.7228088401	-0.4637476562	-1.228021133	-0.047558
C	 0.8083830932	-2.0087173625	-1.2737021317	-0.065688
C	-0.068952349	-2.0600628351	-2.5050974782	-0.107331
C	-0.1983865049	-0.5192531536	-2.5077255572	 0.11233
O	-1.5228758063	-0.0552485846	-2.3629817726	-0.42538
N	 1.2952493435	-2.5313192079	-2.5289664848	-0.081681
C	 2.3457348389	-1.9014947194	-3.3154217804	-0.316323
H	 0.8653523671	 2.1149819991	-0.1132598206	 0.111498
H	-0.759017135	 1.9127896935	-0.7921644537	 0.138811
H	-0.5285578735	 1.969462519	 0.9646981731	 0.108342
H	 0.7041913873	-0.2036007573	 0.8940606659	 0.097603
H	-0.8931180396	-0.3935183737	 0.2154237839	 0.076521
H	 1.6819873404	 0.0446806664	-1.3855779422	 0.06689
H	 0.8269081331	-2.657856077	-0.4022819214	 0.087509
H	-0.8687860192	-2.7408661167	-2.7855023542	 0.090267
H	 0.1888032395	-0.005442781	-3.3921875272	 0.085855
H	-1.9546371195	-0.577071075	-1.6779442016	 0.283299
H	 2.3391527189	-0.8027218747	-3.3228161538	 0.110573
H	 3.3148411184	-2.2305520764	-2.927865319	 0.124278
H	 2.260587339	-2.2478180458	-4.3498530812	 0.125888
93.8349	134.6396	159.0128	181.4382	210.2318	258.351	296.8557	312.4599	332.9998	376.5104	439.2963	556.8595	582.6103	723.3349	744.5455	803.2363	842.0893	900.7978	914.9816	934.5115	967.893	1003.8085	1052.3236	1061.2554	1068.9447	1101.1341	1125.3701	1139.6722	1165.1298	1182.9652	1215.7219	1219.9244	1260.8897	1267.3574	1285.4786	1297.0192	1338.0026	1380.4851	1386.1473	1408.3684	1433.072	1455.7331	1492.6512	1494.4203	1498.0627	1501.3077	1515.2592	3005.0877	3010.7918	3023.0716	3035.1283	3043.1613	3067.9972	3076.4298	3098.2283	3107.3328	3127.2011	3137.1749	3148.8859	3805.0415
CCC1C2C(C1O)N2C	CC[C@H]1[C@H]2[C@@H]([C@H]1O)N2C	
InChI=1S/C7H13NO/c1-3-4-5-6(7(4)9)8(5)2/h4-7,9H,3H2,1-2H3	InChI=1S/C7H13NO/c1-3-4-5-6(7(4)9)8(5)2/h4-7,9H,3H2,1-2H3/t4-,5-,6-,7-,8?/m0/s1
