15
gdb 16884	4.01181	2.0396	1.56198	4.9356	60.88	-0.2541	0.0488	0.3028	805.3192	0.121623	-399.82939	-399.822945	-399.822001	-399.860031	24.878	
O	 0.0806609866	 0.0701377386	 0.350810731	-0.382185
C	 0.0216071807	 1.2260263924	 0.0172791612	 0.447913
N	-0.9687439479	 2.0875752171	 0.4285063862	-0.369836
C	-1.3534595346	 3.313022854	-0.2607513353	-0.17973
C	-0.1209095441	 4.0195414645	-0.7749393888	-0.056002
C	 1.1028149607	 4.1291988488	 0.1161492678	-0.324877
C	 1.0668987185	 3.1445553405	-1.0194253649	 0.128393
O	 0.9897318702	 1.7560812942	-0.7782687553	-0.238294
H	-1.687873976	 1.6034850008	 0.9436773313	 0.2591
H	-2.0259572468	 3.1037919957	-1.1070655938	 0.115655
H	-1.9066822106	 3.9433640389	 0.4451942748	 0.119623
H	-0.3164802549	 4.8195608165	-1.4810461547	 0.100152
H	 1.7416742267	 4.9989832421	 0.0142052169	 0.123338
H	 1.0243085225	 3.7331273124	 1.1223567392	 0.139968
H	 1.6995387589	 3.3091706836	-1.8828770157	 0.11678
115.6111	164.5796	304.1908	383.4906	466.0397	525.042	579.4141	595.9294	745.835	769.5287	790.0107	808.1863	827.7525	920.314	986.7976	1016.0498	1057.734	1065.5926	1097.2198	1127.9556	1138.422	1184.0939	1242.7289	1262.1148	1280.2703	1359.8508	1415.6815	1422.515	1480.0357	1486.2479	1528.6289	1848.6981	2981.405	3046.7394	3141.1196	3166.2573	3190.2268	3232.0466	3631.9211
O=C1NCC2CC2O1	O=C1NC[C@H]2C[C@H]2O1	
InChI=1S/C5H7NO2/c7-5-6-2-3-1-4(3)8-5/h3-4H,1-2H2,(H,6,7)	InChI=1S/C5H7NO2/c7-5-6-2-3-1-4(3)8-5/h3-4H,1-2H2,(H,6,7)/t3-,4-/m1/s1
