18
gdb 119299	2.51307	1.2892	1.01365	3.2708	72.44	-0.2611	0.0019	0.263	1226.4988	0.145981	-439.058977	-439.049359	-439.048415	-439.094719	33.02	
C	 0.7762385881	 0.9989931493	-0.2987861393	-0.249902
O	 1.0349009243	 0.2330291367	 0.8676387745	-0.24056
C	 0.0125190524	-0.6599221216	 1.2385883153	-0.131494
C	 0.4231894111	-2.1118119101	 0.9482575948	 0.260721
C	 1.5841265401	-2.6709045073	 1.8147859357	-0.320477
C	 0.5187069545	-3.6447330238	 2.3555314318	-0.074181
O	-0.5135050054	-3.0409054155	 1.5326393856	-0.307898
C	 0.576826699	-2.3414149473	-0.4972261472	 0.279444
N	 0.6944883746	-2.5214412611	-1.6330313323	-0.347634
H	-0.1153663041	 1.6294117627	-0.171220885	 0.11263
H	 1.6453188832	 1.6435755118	-0.447958988	 0.133845
H	 0.6443975761	 0.3690770353	-1.1867525576	 0.140295
H	-0.1502785643	-0.5823733084	 2.3205200041	 0.112591
H	-0.9389831943	-0.4407032208	 0.736947781	 0.116801
H	 2.4047999199	-3.123754788	 1.2606854178	 0.138499
H	 1.979153617	-1.9463183489	 2.5268187458	 0.136403
H	 0.6692934816	-4.6983075076	 2.0984902009	 0.123109
H	 0.2797902062	-3.5624283955	 3.4205961323	 0.11781
47.583	71.7475	85.6064	126.0384	170.9128	197.1534	251.0943	321.2499	393.1133	451.9503	542.4045	574.5977	670.1368	785.0857	859.1119	916.8127	946.6845	972.5114	979.0277	1014.3885	1052.7201	1121.4998	1158.5603	1179.4624	1194.6741	1200.4436	1222.2484	1245.0283	1261.3184	1318.0801	1348.232	1386.2254	1478.2077	1487.7598	1491.201	1502.1875	1510.0185	1530.5435	2349.5069	2997.2191	3016.5287	3040.7127	3066.6658	3066.9076	3086.7632	3101.2584	3125.2677	3161.6929
COCC1(CCO1)C#N	COC[C@]1(CCO1)C#N	
InChI=1S/C6H9NO2/c1-8-5-6(4-7)2-3-9-6/h2-3,5H2,1H3	InChI=1S/C6H9NO2/c1-8-5-6(4-7)2-3-9-6/h2-3,5H2,1H3/t6-/m0/s1
