20
gdb 113063	3.1518	0.98981	0.86869	2.6874	78.46	-0.2294	0.0266	0.256	1432.9249	0.169623	-440.29618	-440.286152	-440.285208	-440.332178	34.762	
C	-0.1564977519	 1.5788550785	-0.0715669957	-0.379019
C	 0.2668839219	 0.1086033688	-0.0037513669	-0.158884
N	 0.7902350339	-0.3955369881	-1.2527082346	-0.079225
C	 0.1775248374	-0.6011906363	-2.5710714285	-0.210952
C	 1.5502949713	-1.1419338772	-3.052108634	-0.013614
O	 2.0959390357	-0.4069467169	-4.1064557197	-0.243866
C	 3.4114247114	-0.8216280282	-4.4411251151	-0.246985
C	 2.0508304909	-0.7961030966	-1.614616012	 0.388589
O	 3.097160375	-0.8311304072	-1.0155664918	-0.385107
H	 0.6912825468	 2.2147979042	-0.3416825847	 0.135148
H	-0.948307251	 1.7313238259	-0.811929477	 0.122273
H	-0.5394583127	 1.907044698	 0.8995402917	 0.122509
H	 1.0656078193	-0.0273321191	 0.7320510371	 0.141341
H	-0.5814167253	-0.5132240258	 0.3134549853	 0.109136
H	-0.6517611219	-1.3167309782	-2.5760792366	 0.108997
H	-0.1152787082	 0.319906318	-3.0839714087	 0.124022
H	 1.5625173646	-2.2230144057	-3.2590134065	 0.087104
H	 4.0958196542	-0.7118143352	-3.5918337194	 0.145002
H	 3.4245332652	-1.8718229869	-4.7715428685	 0.106016
H	 3.7433854733	-0.1858624921	-5.2646422843	 0.127515
49.7871	68.3181	102.441	131.2722	175.5502	193.3403	241.7627	278.6953	319.0887	379.5528	425.5631	534.1645	640.4554	760.0587	802.2575	808.846	864.0327	944.338	1003.7273	1025.5	1075.6449	1088.3065	1109.2969	1153.2409	1167.3693	1183.7948	1209.3281	1236.197	1247.723	1271.9833	1339.6704	1378.587	1390.2858	1410.2489	1427.8308	1479.8811	1480.9325	1486.9222	1492.2386	1503.4932	1513.5204	1522.2115	1862.4259	2985.5026	2992.6012	3013.3329	3037.502	3041.0251	3065.9651	3086.7281	3091.8141	3112.5193	3121.9035	3127.2478
CCN1CC(OC)C1=O	CCN1C[C@@H](OC)C1=O	
InChI=1S/C6H11NO2/c1-3-7-4-5(9-2)6(7)8/h5H,3-4H2,1-2H3	InChI=1S/C6H11NO2/c1-3-7-4-5(9-2)6(7)8/h5H,3-4H2,1-2H3/t5-/m1/s1
