21
gdb 89501	2.85526	1.44216	1.209	1.2034	85.73	-0.2244	0.0097	0.2341	1143.5011	0.181933	-387.076545	-387.067914	-387.06697	-387.109332	34.107	
C	 0.0972918261	 1.5500412397	-0.0552680519	-0.388772
C	-0.0358396372	 0.0431489881	 0.1368279469	 0.089185
O	 0.4630989386	-0.62909455	-1.0448076955	-0.332925
C	 1.2087875342	-1.7654835964	-0.6292622666	 0.383831
C	 0.5211360453	-3.0473691468	-1.0868199792	-0.439893
C	 2.7818415276	-1.8212717714	-0.7722529732	-0.274191
C	 2.8619877522	-2.1601402198	 0.7670167618	-0.316083
C	 1.4758946288	-1.5588514006	 0.8316611752	 0.203495
C	 0.8202426384	-0.4967904943	 1.2802151584	-0.252361
H	 1.1505598864	 1.8346970234	-0.1366454318	 0.117315
H	-0.4168094597	 1.8565702916	-0.9706328363	 0.125728
H	-0.3493496383	 2.0875470477	 0.7877980935	 0.110384
H	-1.1038644521	-0.2052367891	 0.2563546924	 0.07729
H	 0.487250652	-3.0793432457	-2.1806345858	 0.124283
H	 1.0558535749	-3.9364147544	-0.7373159826	 0.110873
H	-0.5049484646	-3.0894388981	-0.7101083882	 0.120121
H	 3.1939766434	-2.5596271374	-1.4652560661	 0.097396
H	 3.186372593	-0.8305167189	-0.9841695219	 0.115579
H	 2.8931511486	-3.2402800103	 0.9379105543	 0.115311
H	 3.6428757276	-1.6823238102	 1.3606869416	 0.114371
H	 0.956147855	 0.042005393	 2.2101482549	 0.099063
85.6909	176.5738	227.6625	236.9004	239.9891	291.1656	328.9156	384.0638	439.2328	495.5282	588.6367	663.7277	706.8657	777.9118	800.5725	820.4344	845.9676	876.2957	891.8793	912.7717	953.3345	977.9011	1014.344	1061.4212	1087.5688	1115.4273	1130.0187	1146.9749	1170.8563	1180.834	1223.1628	1239.7423	1249.7386	1315.726	1327.1646	1377.2276	1399.4816	1402.0569	1466.3884	1483.3474	1484.4406	1486.3042	1492.3911	1494.4274	1728.8385	2952.7079	3034.7131	3036.8541	3058.3163	3063.2241	3106.0437	3111.1413	3112.6198	3118.7493	3119.2903	3140.6799	3205.2827
CC1OC2(C)CCC2=C1	C[C@H]1O[C@@]2(C)CC[C]2[CH]1	
InChI=1S/C8H12O/c1-6-5-7-3-4-8(7,2)9-6/h5-6H,3-4H2,1-2H3	InChI=1S/C8H12O/c1-6-5-7-3-4-8(7,2)9-6/h5-6H,3-4H2,1-2H3/t6-,8+/m1/s1
