20
gdb 90507	2.65692	1.2431	1.01116	4.1821	82.7	-0.2672	0.0413	0.3085	1237.2636	0.171461	-365.999911	-365.991125	-365.990181	-366.03375	33.166	
C	 1.0371210712	 2.0923939953	 3.1071782199	-0.418242
C	 0.5164159184	 0.7255168693	 2.6748901226	 0.042544
C	-0.1588470747	 0.5078090184	 1.2761949188	-0.27136
C	 0.7446388546	-0.712084623	 1.0426450287	-0.092155
C	 2.1985746639	-0.343304168	 1.04767944	 0.008278
C	 2.7823027781	 0.8946896934	 0.3724713738	-0.384427
C	 4.0204118889	 1.3499631606	 1.0054629022	 0.272394
N	 4.998081325	 1.6971737818	 1.51470611	-0.315155
C	 1.4810035238	-0.4328055699	 2.3678829958	-0.080763
H	 1.7551707327	 2.5225400504	 2.4045700233	 0.122756
H	 0.2099684569	 2.8031328961	 3.2143452724	 0.115139
H	 1.540581812	 2.0221109535	 4.0773512736	 0.125168
H	-0.186799387	 0.3735689688	 3.4370016088	 0.083788
H	-1.2166815062	 0.2501896696	 1.3551583834	 0.108568
H	-0.0679625973	 1.3236594416	 0.550560294	 0.095902
H	 0.4061960414	-1.6598038259	 0.6409361718	 0.09125
H	 2.8393274459	-1.2105874335	 0.902476937	 0.105946
H	 2.9977938116	 0.6657296958	-0.6783231873	 0.150333
H	 2.0730468474	 1.7257843386	 0.3649941583	 0.150767
H	 1.8229218234	-1.1444887129	 3.1111254729	 0.089271
51.4567	115.0823	174.8326	187.2083	233.8903	288.5039	349.498	393.1298	452.5731	517.1085	592.3425	656.322	752.8561	788.4989	825.1076	865.8705	894.9248	940.3655	953.9569	981.047	998.5793	1011.0561	1026.3778	1077.5399	1100.8788	1123.7416	1138.1993	1181.6668	1203.4223	1236.4958	1254.2055	1276.1531	1304.5917	1316.2629	1359.7585	1382.9123	1415.234	1450.8858	1464.6403	1493.0792	1497.8774	1500.1555	2360.1205	3034.4761	3041.879	3044.211	3044.4045	3095.0653	3099.9971	3107.7519	3121.0522	3134.2859	3168.6294	3182.4704
CC1CC2C(CC#N)C12	C[C@H]1C[C@H]2[C@@H](CC#N)[C@@H]12	
InChI=1S/C8H11N/c1-5-4-7-6(2-3-9)8(5)7/h5-8H,2,4H2,1H3	InChI=1S/C8H11N/c1-5-4-7-6(2-3-9)8(5)7/h5-8H,2,4H2,1H3/t5-,6+,7-,8+/m0/s1
