16
gdb 125746	1.97774	1.87337	0.9737	2.4475	80.7	-0.2348	-0.0183	0.2166	1175.649	0.122022	-400.736812	-400.727726	-400.726782	-400.770797	32.623	
C	-0.0465881294	 1.494470317	 0.0051254663	-0.504519
C	-0.0644368525	 0.0027918641	 0.0304501168	 0.324613
N	-0.1847362435	-0.6890876245	-1.0725088334	-0.204836
O	-0.1640458139	-2.0359507524	-0.6844938073	-0.214502
C	-0.0315237186	-2.1180934413	 0.6447624584	 0.36113
C	 0.0114896396	-3.4702885518	 1.2558496668	-0.502599
C	 0.0392594819	-0.8574843341	 1.1781864003	-0.134579
C	 0.1804288125	-0.4854647961	 2.5313024411	 0.236163
C	 0.300809644	-0.1497114377	 3.6820544497	-0.456208
H	 0.8870765813	 1.8769091215	 0.4297364657	 0.145191
H	-0.1448673249	 1.8542423333	-1.0203648786	 0.15065
H	-0.8662233033	 1.9008732319	 0.6062039911	 0.145188
H	 0.8521108931	-4.0504928498	 0.8613722206	 0.15448
H	 0.1207017145	-3.380693108	 2.3379839317	 0.154264
H	-0.9054834506	-4.0270994124	 1.0367495464	 0.154479
H	 0.4068656497	 0.1437079303	 4.6969297244	 0.191083
91.3966	115.5291	121.581	144.2991	202.7695	248.125	341.5446	362.2495	482.3397	539.5293	548.1446	558.2915	631.6006	645.7165	667.5137	726.6145	775.6723	912.4034	1010.7896	1029.272	1053.5257	1061.996	1069.2526	1234.6737	1305.2795	1399.6977	1413.6597	1446.8032	1474.1313	1474.7647	1478.277	1479.2817	1552.3328	1646.1336	2233.1782	3042.7321	3045.9765	3099.9997	3103.0906	3143.7936	3145.1507	3502.1989
CC1=NOC(C)=C1C#C	Cc1noc(C)c1C#C	
InChI=1S/C7H7NO/c1-4-7-5(2)8-9-6(7)3/h1H,2-3H3	InChI=1S/C7H7NO/c1-4-7-5(2)8-9-6(7)3/h1H,2-3H3
