23
gdb 113205	3.59909	0.83485	0.82065	1.363	86.87	-0.2439	0.0775	0.3214	1541.3457	0.204454	-388.256529	-388.246331	-388.245386	-388.29245	38.094	
C	 0.0107507016	 1.6152536101	-0.0785707823	-0.488538
C	 0.0153813711	 0.1003371164	 0.0305095746	 0.331612
C	 1.1141384717	-0.6625051892	-0.6814090754	-0.324308
C	 1.1059549457	-0.5978061318	 0.8268547439	-0.014405
C	 2.1876483697	 0.1247903195	 1.5856229979	-0.11502
O	 3.2840152542	-0.7719686047	 1.733694185	-0.418751
C	-1.332994082	-0.5775337075	 0.074084776	-0.025521
C	-2.5503639641	 0.0336052545	 0.7244022745	-0.278671
C	-2.5062896244	-0.1498415023	-0.7742148494	-0.281853
H	 1.0207033069	 2.0103219138	-0.2069458513	 0.116923
H	-0.5707326793	 1.9454634218	-0.946011931	 0.119352
H	-0.4184129907	 2.0892698351	 0.8110795922	 0.117612
H	 0.8669099899	-1.6036398921	-1.1611688559	 0.106621
H	 1.8738746245	-0.0868923164	-1.2014815376	 0.10506
H	 0.7915027366	-1.506362399	 1.3346811243	 0.085789
H	 2.4978425137	 1.034672491	 1.0508900555	 0.079901
H	 1.8062865036	 0.4402186556	 2.5707580109	 0.084572
H	 3.9456191915	-0.3422198806	 2.2840850017	 0.283082
H	-1.2464140171	-1.6537469537	 0.2031533315	 0.07777
H	-3.1979916763	-0.6104170026	 1.3092725444	 0.108453
H	-2.478466258	 1.0462932243	 1.1049419991	 0.11015
H	-2.4096719854	 0.7394937504	-1.3868099819	 0.111336
H	-3.1198911736	-0.9246175926	-1.2208849969	 0.108834
28.7589	71.0755	133.2746	163.0584	213.287	261.017	272.7931	294.2999	330.6044	358.0009	434.8731	453.9553	556.4421	672.1509	782.6396	818.8995	830.6853	857.5029	891.3489	913.9163	924.6745	968.1214	975.638	1037.0276	1057.2046	1060.3847	1067.527	1075.7014	1094.8154	1112.5905	1126.3104	1144.7099	1170.6524	1198.7379	1223.9877	1254.2332	1258.7554	1285.3883	1336.4304	1386.4581	1415.7208	1428.8911	1465.5774	1469.2001	1488.0775	1502.0218	1509.5521	1511.3171	1520.9995	2963.1742	3000.658	3035.4203	3090.7185	3118.9423	3123.0075	3127.9598	3134.1487	3137.532	3139.7516	3206.69	3209.9144	3224.8873	3822.8625
CC1(CC1CO)C1CC1	C[C@]1(C[C@H]1CO)C1CC1	
InChI=1S/C8H14O/c1-8(6-2-3-6)4-7(8)5-9/h6-7,9H,2-5H2,1H3	InChI=1S/C8H14O/c1-8(6-2-3-6)4-7(8)5-9/h6-7,9H,2-5H2,1H3/t7-,8-/m0/s1
