20
gdb 58665	1.89147	1.52221	1.18135	1.3018	82.41	-0.2349	0.0349	0.2698	1190.4355	0.167289	-403.079396	-403.069112	-403.068168	-403.114105	38.325	
C	 1.5301174573	-2.2643441957	 1.2366265562	-0.410498
C	 0.4266497607	-1.6814510412	 0.3513129206	 0.072254
O	-0.0972469012	-0.4729263963	 0.886316375	-0.437531
C	 0.8914422909	-1.4648435991	-1.0935498986	 0.090348
C	 0.7819461363	-2.5924057383	-2.0814288752	-0.281109
N	-0.0662458055	-1.4259174923	-2.2125309142	-0.112987
C	-1.4943564802	-1.5547749175	-1.9508429998	-0.318675
C	 1.9670724783	-0.503256574	-1.2049002635	 0.285485
C	 2.8541286954	 0.309366781	-1.2360843262	-0.424734
H	 1.8432713506	-3.2506693528	 0.8794053029	 0.1157
H	 2.40865532	-1.6115884257	 1.2428322822	 0.126515
H	 1.1624078454	-2.362349228	 2.2613864159	 0.123646
H	-0.4189537662	-2.3744437445	 0.3417451862	 0.086426
H	 0.5918807743	 0.1981070795	 0.8012509924	 0.284458
H	 1.5457217358	-2.7279985141	-2.8421642495	 0.122874
H	 0.3351280068	-3.5153886523	-1.7082401915	 0.107358
H	-1.7687978757	-2.4131812883	-1.3194240865	 0.103539
H	-1.8539224766	-0.6430300971	-1.4676821825	 0.144819
H	-2.0065077492	-1.670174664	-2.911080554	 0.125003
H	 3.6404258028	 1.0208527909	-1.2968324498	 0.197108
72.5001	136.9492	144.5623	147.9583	208.416	234.2512	249.3782	323.5731	351.9657	371.477	383.787	476.8114	495.2512	565.617	578.7105	612.5436	658.0005	689.038	816.7718	883.53	899.6685	929.7372	1022.235	1053.9148	1092.7742	1114.4589	1126.8055	1135.1409	1154.3208	1198.0753	1254.5934	1283.8317	1331.5931	1383.9435	1402.4504	1426.3748	1447.6728	1484.7608	1489.8477	1497.2195	1501.5669	1508.6828	2227.6247	2985.4829	3039.4243	3071.8259	3075.985	3080.2545	3113.2088	3123.2738	3124.125	3175.9415	3499.8055	3773.6556
CC(O)C1(CN1C)C#C	C[C@@H](O)[C@]1(CN1C)C#C	
InChI=1S/C7H11NO/c1-4-7(6(2)9)5-8(7)3/h1,6,9H,5H2,2-3H3	InChI=1S/C7H11NO/c1-4-7(6(2)9)5-8(7)3/h1,6,9H,5H2,2-3H3/t6-,7-,8?/m1/s1
