17
gdb 40529	4.11908	1.16915	1.12475	3.2585	74.44	-0.2323	-0.0112	0.2211	1122.0096	0.136624	-421.748447	-421.741327	-421.740382	-421.780511	27.808	
C	 0.2026181662	 1.442414315	 0.0128082722	-0.186556
O	 1.1873872484	 0.4383649293	-0.1873537642	-0.228466
C	-0.1729149569	 0.0137611919	 0.025216579	-0.085152
C	-0.4512222841	-0.7069792114	 1.2674689993	 0.424195
C	-1.3181692018	-1.6818539109	 1.5643360895	-0.235943
C	-1.0310386567	-1.8989832171	 3.0612710374	 0.027381
C	-0.9960585113	-0.4347452633	 3.5956801274	-0.221066
C	 0.2331852183	-0.4924521374	 2.6391033592	-0.047714
O	 0.4362697333	-1.8718700063	 3.0824910499	-0.279556
H	 0.2695289675	 1.9887502008	 0.9530925321	 0.114724
H	-0.0427718356	 2.0477460988	-0.8592455584	 0.120834
H	-0.6568493864	-0.3818075987	-0.8674155816	 0.098469
H	-2.0400341723	-2.1973114276	 0.9480861438	 0.112705
H	-1.4810508884	-2.736566283	 3.5917496272	 0.084309
H	-1.8250708189	 0.2345299699	 3.3550943953	 0.096823
H	-0.706904458	-0.3757860077	 4.6474646745	 0.110479
H	 1.1113919169	 0.1462296577	 2.7105078972	 0.094534
77.1459	136.273	156.9633	366.1311	430.949	489.8563	560.805	623.8241	676.809	785.1061	796.3086	822.5028	841.7331	854.3341	885.9372	893.1557	923.0609	935.8226	978.4377	1022.3356	1061.5305	1088.8293	1095.306	1151.4476	1158.8272	1166.3355	1205.4796	1219.1872	1234.843	1252.8748	1271.4441	1300.781	1322.8111	1404.9841	1486.3485	1522.3012	1681.8465	3062.9606	3078.1115	3115.4517	3135.1989	3139.7068	3148.4137	3165.9427	3242.3394
C1OC1C1=CC2CC1O2	C1O[C@H]1C1=C[C@@H]2C[C@H]1O2	
InChI=1S/C7H8O2/c1-4-2-6(9-4)5(1)7-3-8-7/h1,4,6-7H,2-3H2	InChI=1S/C7H8O2/c1-4-2-6(9-4)5(1)7-3-8-7/h1,4,6-7H,2-3H2/t4-,6-,7-/m1/s1
