18
gdb 58148	3.12677	0.93843	0.83179	2.2645	74.51	-0.2499	0.01	0.2599	1412.2926	0.146385	-435.284748	-435.274707	-435.273763	-435.320372	36.144	
C	 0.5420519292	 1.0192551559	-0.6765570148	-0.402035
C	-0.0805453387	-0.0077771238	 0.2598269762	 0.067556
O	-0.013404178	 0.3961597091	 1.6289894114	-0.43066
C	-1.5188680226	-0.38075662	-0.1327006093	 0.339307
N	-2.2778322564	-0.7997537198	 0.9214281441	-0.544344
N	-1.837565969	-0.3441749758	-1.3759545531	-0.302463
C	-3.1513032325	-0.8307923931	-1.7693445841	-0.292302
C	-4.2806546337	-0.0824396594	-1.1862726491	 0.247446
N	-5.1367203379	 0.5062086235	-0.6774723644	-0.322734
H	 1.5818884571	 1.1979490051	-0.3909551137	 0.12039
H	 0.4971704233	 0.6683821719	-1.7077529823	 0.153529
H	-0.0075015205	 1.9667587069	-0.6297387151	 0.115731
H	 0.5030361854	-0.9363571809	 0.2223947751	 0.121578
H	-0.2679152666	 1.3252859693	 1.6706383112	 0.287316
H	-1.8954018682	-0.5822198286	 1.8303032188	 0.266814
H	-3.2827004843	-0.8047933274	 0.8466128104	 0.272544
H	-3.2364868887	-0.7668671818	-2.85879578	 0.156384
H	-3.2940909778	-1.8904178409	-1.5017267713	 0.145941
43.8922	66.1273	100.7766	191.853	225.0353	249.5083	310.3022	347.5952	372.842	383.697	420.2977	445.1194	475.4948	534.3634	633.7042	666.3368	741.9456	805.4788	897.9999	914.9318	987.4282	1007.0834	1045.5023	1095.074	1128.4009	1162.5455	1266.8675	1288.6108	1326.7192	1340.3416	1380.6958	1400.9272	1412.2116	1469.2199	1485.5845	1492.0278	1629.7702	1719.37	2341.8817	2981.6967	3034.3706	3042.0221	3072.1455	3112.2747	3156.45	3568.5437	3685.4107	3795.1093
CC(O)C(N)=NCC#N	C[C@@H](O)C(=NCC#N)N	
InChI=1S/C5H9N3O/c1-4(9)5(7)8-3-2-6/h4,9H,3H2,1H3,(H2,7,8)	InChI=1S/C5H9N3O/c1-4(9)5(7)8-3-2-6/h4,9H,3H2,1H3,(H2,7,8)/t4-/m1/s1
