15
gdb 10108	2.68904	1.58341	1.11647	3.4987	63.22	-0.2586	0.0072	0.2658	1039.009	0.118987	-396.00462	-395.995833	-395.994889	-396.03864	30.059	
N	 0.2064751356	 1.478199165	 0.2933291496	-0.511569
C	 0.0778967567	 0.0459079704	 0.0749839443	-0.151536
C	 0.7605788907	-0.7260654493	 1.2313686577	-0.12951
N	 0.3230485278	-0.3132118814	 2.5514701378	-0.261665
C	 1.0635605648	 0.57200175	 3.2796471504	 0.177296
O	 2.1656236981	 0.9684694319	 2.9688209828	-0.326089
C	 0.5739622398	-2.1724064662	 1.0506560067	 0.281279
N	 0.3951511606	-3.3022820211	 0.8899172071	-0.313532
H	 1.1820270428	 1.7599894978	 0.28796169	 0.245766
H	-0.2616533794	 1.989650781	-0.4464563567	 0.238546
H	-0.9882978657	-0.2095974029	 0.0554703126	 0.11817
H	 0.5128139279	-0.3349751707	-0.8641155042	 0.110553
H	 1.8344529732	-0.5073249697	 1.2089821806	 0.166935
H	-0.6334450354	-0.484562013	 2.8204598876	 0.261239
H	 0.5486582924	 0.8722548083	 4.2106557137	 0.094118
51.0264	115.7081	142.686	149.9654	202.4138	250.3888	309.8099	347.4028	485.0946	509.5673	536.1025	562.3434	741.1069	820.2095	908.7699	989.3156	1011.3044	1033.3098	1094.8179	1112.6543	1177.3069	1204.3135	1299.5269	1340.1675	1354.9678	1423.7219	1426.1104	1502.7494	1521.6032	1657.5739	1801.5614	2363.1566	2964.9456	2969.3638	3049.8034	3070.1009	3505.3878	3590.1951	3632.6485
NCC(NC=O)C#N	NC[C@@H](NC=O)C#N	
InChI=1S/C4H7N3O/c5-1-4(2-6)7-3-8/h3-4H,1,5H2,(H,7,8)	InChI=1S/C4H7N3O/c5-1-4(2-6)7-3-8/h3-4H,1,5H2,(H,7,8)/t4-/m1/s1
