20
gdb 78174	2.0254	1.72795	1.21126	3.0501	79.44	-0.2273	-0.0211	0.2061	1122.9239	0.170769	-403.150135	-403.14142	-403.140476	-403.183503	33.183	
C	 0.3462147192	 1.5650463593	-0.0882603332	-0.405098
C	-0.0518424521	 0.0907538996	 0.0507516578	-0.005932
C	 0.3952819024	-0.7601940971	-1.1637981503	-0.359771
C	 1.5308685696	-1.6728108797	-0.6818543493	 0.413016
O	 2.2782645784	-2.2957257851	-1.3952804446	-0.32626
C	 1.6122111842	-1.604663323	 0.8175520276	-0.155271
C	 0.642529974	-0.5400048488	 1.2662899105	-0.031419
N	 0.4116495782	-1.92277596	 1.596062564	-0.094226
C	-0.7040313379	-2.7110281846	 1.0896010223	-0.326548
H	 1.4295823644	 1.6695480079	-0.2169127555	 0.123455
H	-0.139555695	 2.0213318507	-0.9561376583	 0.120155
H	 0.0580873955	 2.1381273221	 0.7991369216	 0.119209
H	-1.1393212843	 0.0381393947	 0.1815945475	 0.084038
H	-0.4065865953	-1.3710796265	-1.5930065842	 0.132196
H	 0.7782940178	-0.1416896871	-1.9815068484	 0.132532
H	 2.5638301821	-1.8330052544	 1.2881601954	 0.105529
H	 0.8701857727	 0.1085616293	 2.1102377749	 0.095324
H	-1.1025015417	-2.4189881196	 0.1092239345	 0.109862
H	-0.3917044944	-3.7575117402	 1.0331357582	 0.138432
H	-1.5205138978	-2.6419953276	 1.8154816495	 0.130776
77.297	116.3732	154.6944	231.9921	259.4093	296.5742	358.9014	372.3216	451.257	527.0443	578.3782	602.1085	674.4076	723.1257	812.2939	834.2247	892.8379	932.1388	935.9798	996.422	1019.5406	1077.2438	1082.2886	1100.1203	1142.4197	1161.4211	1176.9253	1197.695	1212.5494	1253.4396	1284.5025	1316.0722	1322.0801	1356.0841	1390.3043	1412.684	1450.1089	1458.901	1491.9965	1498.7834	1500.0447	1507.0279	1826.2852	3014.7433	3027.666	3030.6686	3049.3199	3078.9139	3089.8755	3099.4051	3106.3367	3112.5771	3123.6465	3159.6557
CC1CC(=O)C2C1N2C	C[C@H]1CC(=O)[C@H]2[C@@H]1N2C	
InChI=1S/C7H11NO/c1-4-3-5(9)7-6(4)8(7)2/h4,6-7H,3H2,1-2H3	InChI=1S/C7H11NO/c1-4-3-5(9)7-6(4)8(7)2/h4,6-7H,3H2,1-2H3/t4-,6+,7-,8?/m0/s1
