17
gdb 76929	1.99235	1.7907	1.16717	2.8424	71.53	-0.231	-0.0343	0.1967	1085.4432	0.133877	-455.134695	-455.125126	-455.124182	-455.169613	33.18	
C	-0.1185255734	 1.3464653678	 0.5659511717	-0.352791
N	-0.069872705	-0.0655202633	 0.2683298947	-0.054093
C	-1.1392126108	-0.9830230076	-0.116046363	-0.150561
C	-1.9644286581	-0.5854825863	-1.3199149525	 0.17227
O	-1.797370686	 0.4255332199	-1.9521555596	-0.251415
C	 0.0020630918	-2.0195750752	-0.479692325	 0.048288
O	 0.0001002856	-2.5352434688	-1.7804774549	-0.423583
C	 0.9500012631	-0.8491981348	-0.2295201132	 0.336103
N	 2.1788241019	-0.7404471187	-0.5155321683	-0.572296
H	 0.8769055306	 1.6714576992	 0.881812386	 0.136223
H	-0.4342371344	 1.9357396529	-0.3010433525	 0.156788
H	-0.810794066	 1.532806615	 1.3937636631	 0.13254
H	-1.8066215919	-1.2897538874	 0.7014472172	 0.095682
H	-2.7597423235	-1.3165618773	-1.5831635004	 0.093341
H	 0.0732191211	-2.8246827087	 0.2596459105	 0.108381
H	 0.8112501141	-2.2250464216	-2.2026850933	 0.307863
H	 2.5436596007	 0.1974130747	-0.3463213005	 0.21726
58.3968	109.1846	114.3284	154.6931	182.3715	210.168	236.1725	282.6231	308.1792	429.5003	547.949	613.5049	698.1227	763.7846	780.8001	819.5974	867.6101	908.7501	969.1926	1020.3763	1058.0081	1130.668	1140.3553	1167.8607	1211.3105	1254.33	1282.6345	1329.5608	1364.4624	1386.4295	1407.1067	1421.4393	1457.4881	1477.4146	1519.3041	1791.096	1829.6728	2896.9882	3013.1476	3031.2023	3053.1746	3096.3996	3115.2055	3475.3704	3779.3076
CN1C(C=O)C(O)C1=N	CN1[C@@H](C=O)[C@@H](O)[C]1[NH]	
InChI=1S/C5H8N2O2/c1-7-3(2-8)4(9)5(7)6/h2-4,6,9H,1H3	InChI=1S/C5H8N2O2/c1-7-3(2-8)4(9)5(7)6/h2-4,6,9H,1H3/t3-,4+/m0/s1
