16
gdb 6725	5.78466	0.96533	0.86015	4.9727	66.74	-0.2381	0.0091	0.2472	1317.6493	0.128447	-417.079143	-417.069881	-417.068936	-417.114159	31.559	
C	 0.1328694413	 1.0252838654	 0.0459257005	-0.312862
N	-0.7488522081	 0.2250356687	-0.777440693	-0.213747
C	-1.4214580411	-0.6651175997	-0.2033287412	 0.154438
O	-2.2876056711	-1.4256786394	-0.9215709239	-0.188589
C	-2.953482066	-2.4508136488	-0.225480918	-0.202632
C	-2.0265460351	-3.6392014164	 0.0797166611	 0.398893
N	-2.6627786635	-4.8413332122	 0.1692126254	-0.517113
O	-0.8411146127	-3.4902382426	 0.2862492108	-0.338656
H	 1.1643384247	 0.9158394134	-0.3078783061	 0.128821
H	-0.1281420459	 2.0849907228	-0.0568101768	 0.123091
H	 0.1076300302	 0.7646046855	 1.1166943006	 0.096101
H	-1.3976211272	-0.8937528097	 0.8703144618	 0.083595
H	-3.3645449755	-2.0915503015	 0.7301620901	 0.132051
H	-3.7951316561	-2.7508617575	-0.856064467	 0.124678
H	-3.6000934828	-4.9761266003	-0.1681992013	 0.263441
H	-2.1014659012	-5.6584871375	 0.3497042672	 0.268491
34.2015	65.7912	115.3092	200.9605	219.3094	246.0255	265.6324	325.8137	368.9379	456.0477	492.6494	558.5541	621.5068	715.5072	835.0432	961.5653	999.6936	1050.5132	1081.207	1102.8105	1141.6294	1163.2337	1216.9832	1306.7068	1325.9424	1404.3076	1420.2143	1450.2578	1478.8773	1481.6906	1505.1796	1621.2441	1782.2869	1816.1024	2968.5492	2998.2527	3031.4914	3057.2662	3076.686	3092.3423	3596.4971	3729.0517
CN=COCC(N)=O	CN=COCC(=O)N	
InChI=1S/C4H8N2O2/c1-6-3-8-2-4(5)7/h3H,2H2,1H3,(H2,5,7)	InChI=1S/C4H8N2O2/c1-6-3-8-2-4(5)7/h3H,2H2,1H3,(H2,5,7)
