16
gdb 97096	2.52713	1.23089	1.11599	2.8023	72.9	-0.2723	-0.0107	0.2616	1178.9429	0.123669	-434.057107	-434.047767	-434.046823	-434.091722	32.447	
C	-0.0914282889	 1.3758072918	-0.0240877202	-0.344676
N	-0.1715616764	-0.0654862576	-0.2217944181	-0.321493
C	 0.6022866805	-0.6291862025	-1.0168389925	 0.473374
O	 1.6137735271	-0.1660378179	-1.829898491	-0.2624
C	 1.9430955534	-1.5155194137	-2.2745255534	-0.085687
C	 0.8056847092	-2.101054844	-1.384777843	-0.00895
N	 1.2493801499	-2.8859735655	-0.244740116	-0.554208
C	-0.3012992865	-2.7022565693	-2.1405525962	 0.234364
N	-1.1537781141	-3.2237692366	-2.7219856747	-0.331296
H	 0.7194209689	 1.8576645794	-0.5814399795	 0.13314
H	-1.0435537355	 1.8263928188	-0.3229309915	 0.140928
H	 0.040270097	 1.578559546	 1.0434564726	 0.136553
H	 1.8176077919	-1.6171570953	-3.3535489215	 0.139806
H	 2.940526265	-1.8112599435	-1.9464536344	 0.139741
H	 0.5907585011	-2.7548127335	 0.5182716835	 0.261654
H	 1.2613311573	-3.8763443667	-0.470242974	 0.24915
84.4789	88.8728	109.4273	157.485	202.0195	216.9534	250.0672	316.4335	384.6558	430.099	545.2025	609.6547	670.5709	713.9009	765.908	875.3843	924.2907	932.9909	990.0981	1052.4849	1114.6129	1130.1632	1149.4984	1175.3813	1190.0872	1233.1537	1300.9252	1355.5778	1439.4854	1492.305	1496.4024	1502.2712	1650.1697	1860.7929	2347.7448	3024.9781	3080.1337	3095.8102	3098.8342	3153.9228	3494.399	3576.9839
CN=C1OCC1(N)C#N	CN=C1OC[C@]1(N)C#N	
InChI=1S/C5H7N3O/c1-8-4-5(7,2-6)3-9-4/h3,7H2,1H3	InChI=1S/C5H7N3O/c1-8-4-5(7,2-6)3-9-4/h3,7H2,1H3/t5-/m1/s1
