18
gdb 63904	2.45852	1.68111	1.36937	2.2666	71.6	-0.2483	-0.0363	0.2119	1007.3293	0.147184	-439.081175	-439.072893	-439.071948	-439.113722	32.163	
C	 0.5647657558	 1.4250118827	-0.0535712278	-0.44472
C	 0.0259099541	-0.0093777625	-0.0383405059	 0.285186
O	-1.3953795022	 0.0134345579	-0.0046132865	-0.471244
C	 0.4801185601	-0.9146722797	-1.2034880522	-0.21381
N	 1.3871724692	-1.9805919163	-0.6890644714	-0.094993
C	 2.5782579095	-1.4630585234	-0.0448051671	-0.245111
C	 1.4070343577	-1.889664174	 0.7898128135	-0.147514
C	 0.4915285106	-0.7996216361	 1.2162500344	 0.383204
O	 0.0380339179	-0.6000929923	 2.3172545035	-0.35202
H	 1.6540183466	 1.468163824	-0.1513689162	 0.116654
H	 0.1207066547	 1.9655653664	-0.8945300267	 0.132907
H	 0.2864118253	 1.9358876422	 0.8737226099	 0.130939
H	-1.6384690472	 0.1923247935	 0.9150859791	 0.287575
H	-0.4033628965	-1.4020303404	-1.621074923	 0.136285
H	 0.9887267926	-0.3699936639	-2.0033241036	 0.112397
H	 3.4430720596	-2.1197813042	-0.0686369081	 0.135622
H	 2.8119618294	-0.4040247113	-0.1162820782	 0.126663
H	 1.4451184527	-2.8030174429	 1.3728549062	 0.121981
79.8503	199.471	208.6894	233.4683	299.9451	346.7078	352.725	403.4208	442.1492	503.5367	606.6419	620.563	691.6646	773.1567	776.5259	859.9731	901.2439	935.9114	944.6072	971.8374	992.7103	1053.9274	1103.6494	1122.6175	1138.1215	1147.8382	1193.8032	1222.1964	1250.2238	1276.0609	1327.8126	1357.7412	1382.6109	1401.9603	1480.8439	1488.8153	1491.1371	1512.6314	1829.3614	3035.5873	3066.3583	3107.0389	3113.6427	3117.5296	3120.3908	3180.552	3198.8937	3740.0863
CC1(O)CN2CC2C1=O	C[C@@]1(O)CN2C[C@H]2C1=O	
InChI=1S/C6H9NO2/c1-6(9)3-7-2-4(7)5(6)8/h4,9H,2-3H2,1H3	InChI=1S/C6H9NO2/c1-6(9)3-7-2-4(7)5(6)8/h4,9H,2-3H2,1H3/t4-,6+,7?/m0/s1
