22
gdb 113764	2.40016	1.04817	0.89929	1.833	84.44	-0.2297	-0.023	0.2067	1442.6644	0.191599	-404.327234	-404.316783	-404.315839	-404.363754	37.37	
C	-0.3187387501	 1.7158769652	 0.0505106753	-0.376765
C	-0.1251133377	 0.2544689943	 0.4468327399	-0.136484
N	-1.3166573962	-0.5198182093	 0.0975347921	-0.074311
C	-1.3552522756	-1.1217423877	-1.2264883604	-0.267898
C	-1.2248381984	-1.9760316702	-0.0022497845	-0.021927
C	 0.0526750915	-2.767457173	 0.3391475274	-0.072248
C	-0.3147507965	-4.120172683	 0.9702794048	-0.427144
C	 0.8874206228	-2.9981048406	-0.9063826781	 0.161434
O	 1.9254614283	-2.4416869424	-1.1621704349	-0.258733
H	 0.5498203095	 2.3120097575	 0.3461004627	 0.113975
H	-0.4421834393	 1.8134946821	-1.0330011789	 0.119375
H	-1.2092251044	 2.1304853039	 0.5310081289	 0.125647
H	 0.790398918	-0.1405689806	-0.0203969326	 0.113397
H	 0.0096483453	 0.1800038407	 1.533027136	 0.102205
H	-2.3016310458	-1.0646823028	-1.7584652152	 0.114103
H	-0.4740748714	-1.0108410818	-1.8574183751	 0.125767
H	-2.1295318029	-2.4719966129	 0.3465233433	 0.093287
H	 0.6701875276	-2.1946591075	 1.0377775189	 0.104225
H	-0.8926103406	-4.736612693	 0.2724430537	 0.126798
H	 0.5790851658	-4.6814624391	 1.25805381	 0.127852
H	-0.9250520488	-3.9690574963	 1.8653964568	 0.131837
H	 0.449736869	-3.7454470434	-1.6099485101	 0.075607
30.9445	65.0573	102.5552	142.6486	206.2766	220.4129	242.0764	274.9267	299.6443	349.8689	387.7778	473.4876	526.8035	563.3327	731.3288	815.5582	820.4422	893.9971	912.6813	959.2264	967.8798	1013.537	1047.9859	1071.499	1105.4774	1108.1215	1126.8632	1144.0733	1151.5082	1182.8249	1204.6673	1285.1563	1316.0832	1321.3725	1342.2196	1381.2365	1393.1794	1405.8671	1411.6416	1431.8815	1488.5287	1494.4189	1496.6057	1498.605	1504.9139	1522.0139	1821.6282	2853.6521	2985.2583	3034.1206	3039.663	3045.3669	3064.3696	3090.667	3103.2229	3106.3236	3109.2467	3115.8114	3120.6338	3175.0307
CCN1CC1C(C)C=O	CCN1C[C@H]1[C@@H](C)C=O	
InChI=1S/C7H13NO/c1-3-8-4-7(8)6(2)5-9/h5-7H,3-4H2,1-2H3	InChI=1S/C7H13NO/c1-3-8-4-7(8)6(2)5-9/h5-7H,3-4H2,1-2H3/t6-,7-,8?/m0/s1
