20
gdb 20131	4.90945	1.35421	1.21872	0.2056	78.75	-0.2494	0.0901	0.3394	1061.2447	0.178504	-311.824081	-311.816719	-311.815775	-311.855884	29.123	
C	-0.2098526393	 1.3868271029	-0.217572284	-0.271226
C	 1.2316607281	 1.2188948147	 0.1956768267	-0.270885
C	 0.3480763861	 0.0063515639	 0.0312312649	 0.024493
C	-0.0920109088	-0.7793180773	 1.2386384263	 0.017446
C	-1.3501872446	-1.7182654113	 1.1387988092	-0.262392
C	-0.4967304007	-2.8880155877	 1.6436530897	-0.034748
C	 0.6503470745	-3.1231485017	 0.7036928289	-0.275818
C	 0.7425697117	-1.9911807463	 1.6911237654	-0.059396
H	-0.9025989089	 1.7909681187	 0.5138446146	 0.107472
H	-0.4221991265	 1.6840943002	-1.2386496084	 0.107986
H	 2.004010253	 1.4006584005	-0.5435604516	 0.108691
H	 1.5074603202	 1.5115069119	 1.2038965327	 0.107329
H	 0.5328705999	-0.591672837	-0.8574312809	 0.076592
H	-0.227511075	-0.0883258708	 2.0781287416	 0.064443
H	-2.1475554174	-1.4207090525	 1.8232989848	 0.098884
H	-1.7807814554	-1.8453022699	 0.1393480366	 0.091678
H	-0.8184678478	-3.64005783	 2.353567053	 0.080956
H	 1.2762911553	-3.9796465622	 0.9337006107	 0.107346
H	 0.536836994	-2.9361341007	-0.3619703167	 0.102696
H	 1.5332889716	-1.9578902052	 2.4316664364	 0.078453
74.6913	142.0352	175.6944	293.1525	367.2862	409.6897	499.6763	674.196	763.0424	782.0452	798.908	810.4843	827.9856	907.192	912.1266	932.348	957.9552	973.6798	1013.8256	1021.0858	1033.0362	1055.1508	1059.3808	1071.3456	1075.9212	1085.3036	1133.2264	1138.3252	1185.2587	1197.2507	1223.3941	1232.4688	1243.6813	1260.9051	1300.5561	1313.8428	1364.6671	1431.87	1469.5597	1482.742	1498.2636	1504.6914	3037.203	3040.9223	3103.4022	3104.9553	3125.9665	3130.3957	3138.6404	3171.0947	3182.9244	3198.3047	3203.5553	3218.9174
C1CC1C1CC2CC12	C1CC1[C@H]1C[C@H]2C[C@@H]12	
InChI=1S/C8H12/c1-2-5(1)7-3-6-4-8(6)7/h5-8H,1-4H2	InChI=1S/C8H12/c1-2-5(1)7-3-6-4-8(6)7/h5-8H,1-4H2/t6-,7+,8+/m0/s1
