14
gdb 25974	4.9271	1.05791	1.01461	2.3254	64.34	-0.2362	0.0129	0.2491	1166.5581	0.101979	-470.034937	-470.027163	-470.026219	-470.068229	28.405	
N	-0.2606907948	 1.288689791	-0.2208607688	-0.5555
C	-0.0259933214	-0.0194993189	 0.1314196397	 0.44879
N	 0.7678694035	-0.5297070188	 0.9705940582	-0.532206
O	-0.8974589341	-0.8153297898	-0.5887436947	-0.276117
C	-0.8760584648	-2.1379359666	-0.3463599624	 0.527874
N	-0.3925043701	-3.0565144048	-1.1074749601	-0.337645
C	-0.7327712048	-4.23396662	-0.4452289945	-0.103635
C	-1.4136593621	-3.9330713362	 0.6829630416	-0.03382
O	-1.5223738187	-2.5674157694	 0.7541605045	-0.165039
H	 0.4847717218	 1.9371420262	-0.0273161043	 0.262212
H	-0.7199345345	 1.427131013	-1.1083437127	 0.268915
H	 1.3491879872	 0.1699027421	 1.4237086944	 0.221212
H	-0.4586498276	-5.200869428	-0.8352254991	 0.127129
H	-1.8595033897	-4.49235332	 1.4864790781	 0.147829
57.255	69.1766	124.3507	331.7773	368.9395	397.6573	459.602	499.6063	585.9417	631.319	699.7648	717.4064	748.5553	783.8899	828.3936	861.0925	930.5941	941.9133	1012.9649	1075.0827	1105.1781	1118.4825	1142.4117	1177.4111	1282.5252	1385.1315	1410.3704	1563.6641	1626.4254	1647.2158	1775.0968	3267.548	3305.608	3536.3767	3589.5202	3705.3308
NC(=N)OC1=NC=CO1	NC(=N)Oc1ncco1	
InChI=1S/C4H5N3O2/c5-3(6)9-4-7-1-2-8-4/h1-2H,(H3,5,6)	InChI=1S/C4H5N3O2/c5-3(6)9-4-7-1-2-8-4/h1-2H,(H3,5,6)
