17
gdb 87476	3.78218	1.2636	1.13237	1.7472	74.79	-0.2376	-0.0051	0.2325	1101.9618	0.135513	-417.903554	-417.895695	-417.894751	-417.935864	30.073	
C	-0.1749572054	 1.4435421633	-0.0295593423	-0.320133
N	 0.0416161501	 0.0036020327	 0.0293351274	-0.155585
C	 1.4109190317	-0.4920557233	-0.2234219105	-0.358514
C	 0.8005428878	-0.5242246419	 1.1157326328	 0.529486
C	 1.1992113228	 0.0905647088	 2.4750349405	-0.286468
N	-0.1516230232	-0.4368064482	 2.9740259014	-0.310565
C	 0.3780059291	-1.6034716318	 2.127871927	-0.281025
C	 1.7307304874	-1.3242200292	 2.8334258527	 0.446331
O	 2.5688134504	-1.8601606888	 3.4879449526	-0.3236
H	 0.6915344359	 2.0312853651	 0.3149844121	 0.098717
H	-0.3955727995	 1.7297598589	-1.0621022017	 0.126322
H	-1.0358729759	 1.6976472577	 0.5946095018	 0.140715
H	 1.4838990767	-1.3866456425	-0.8359086896	 0.12701
H	 2.1950336247	 0.2456922016	-0.3940567302	 0.115543
H	 1.5636315648	 1.0840406353	 2.7250797548	 0.10768
H	-0.0995341634	-0.6664921272	 3.9716786345	 0.233696
H	-0.1935836442	-2.5148612903	 1.9712677466	 0.110391
113.0163	144.111	191.6673	205.6967	292.6102	382.0643	407.6282	490.0335	542.7469	580.9789	693.542	753.1255	784.3986	794.4283	839.5484	887.073	956.1048	971.5256	1038.7067	1051.0874	1090.2679	1105.3461	1122.7677	1125.3927	1142.2951	1177.0359	1182.0128	1191.9894	1220.7889	1255.2017	1275.7668	1444.174	1454.429	1492.7199	1494.9704	1531.1283	1907.3853	2970.4563	3077.6034	3087.7028	3118.7746	3155.6043	3162.1294	3178.6734	3398.6754
CN1CC11C2NC1C2=O	CN1C[C@]21[C@H]1N[C@@H]2C1=O	
InChI=1S/C6H8N2O/c1-8-2-6(8)4-3(9)5(6)7-4/h4-5,7H,2H2,1H3	InChI=1S/C6H8N2O/c1-8-2-6(8)4-3(9)5(6)7-4/h4-5,7H,2H2,1H3/t4-,5+,6-,8?
