16
gdb 46478	3.00705	1.51436	1.10066	6.0657	71.01	-0.2327	-0.0593	0.1734	1069.6287	0.125448	-437.929292	-437.921478	-437.920534	-437.962026	29.304	
O	 0.0179944203	-0.0385791329	 0.003631196	-0.354178
C	-0.0006296136	 1.1690677083	 0.0101228621	 0.342118
N	-1.0962949762	 1.9860874859	 0.0286458208	-0.342038
C	-0.8518030319	 3.4226516804	 0.0324816099	-0.261289
C	 0.6710293382	 3.514765112	 0.0120028516	 0.221299
C	 1.4390474095	 4.5887331088	-0.7392790044	-0.288763
C	 1.4595973356	 4.5822552179	 0.7510039714	-0.288806
C	 1.2107300453	 2.1271994505	-0.001672379	 0.233669
O	 2.3668885627	 1.7917794827	-0.0191343386	-0.312902
H	-2.0251530028	 1.5946339427	 0.0392293071	 0.26158
H	-1.3064175444	 3.8992411356	-0.8453033556	 0.122882
H	-1.2820399175	 3.8903610802	 0.9271749145	 0.122875
H	 2.327653064	 4.2520317559	-1.2623285087	 0.146954
H	 0.8516649279	 5.3451299619	-1.2487992677	 0.12483
H	 0.8866140415	 5.33416086	 1.2830707259	 0.124827
H	 2.3622502414	 4.2411189	 1.2463999046	 0.146944
57.3461	135.5218	222.4248	242.3199	322.8498	326.1499	456.5023	462.0495	576.3468	586.0869	655.8808	739.9155	788.891	796.1123	860.0319	878.7118	964.8219	971.1776	1044.6549	1066.0191	1070.8007	1075.1101	1102.39	1203.9078	1218.5367	1227.1474	1282.227	1337.4297	1371.8518	1453.718	1455.1805	1486.4233	1532.8486	1842.0575	1844.4713	3010.9277	3040.8336	3132.2884	3133.4332	3219.6476	3234.1672	3636.0171
O=C1NCC2(CC2)C1=O	O=C1NCC2(CC2)C1=O	
InChI=1S/C6H7NO2/c8-4-5(9)7-3-6(4)1-2-6/h1-3H2,(H,7,9)	InChI=1S/C6H7NO2/c8-4-5(9)7-3-6(4)1-2-6/h1-3H2,(H,7,9)
