20
gdb 17377	3.80713	1.49861	1.24099	1.5643	74.27	-0.2445	0.0724	0.3169	1040.3241	0.176812	-348.973636	-348.965352	-348.964408	-349.006178	31.796	
C	 0.04705885	 1.5285643266	-0.0363169725	-0.402997
C	 0.051613204	 0.0045654524	 0.0962845908	 0.123282
O	 0.6754069479	-0.4081035464	 1.3123329008	-0.432509
C	-1.3471416286	-0.5959136581	-0.0201342253	 0.015915
C	-2.1154630005	-0.5450598115	-1.3888272906	-0.267383
C	-2.2900334985	-2.0683528378	-1.3240960471	-0.039427
C	-0.9451895166	-2.7332290267	-1.2798307179	-0.273152
C	-1.4924623873	-2.1248960419	-0.0179434232	-0.052959
H	 1.061320448	 1.9222680602	 0.0721286082	 0.122265
H	-0.3473504085	 1.8449855631	-1.0073942505	 0.118671
H	-0.5805605599	 1.9831599534	 0.741205762	 0.102145
H	 0.6910604013	-0.4178287708	-0.6880534956	 0.084098
H	 0.1579663474	-0.0457153596	 2.0403774684	 0.27241
H	-1.9761566857	-0.1565906069	 0.7653340052	 0.057809
H	-3.0507771459	 0.0143868387	-1.3233258614	 0.101762
H	-1.5502326878	-0.1739879644	-2.2517180675	 0.092552
H	-3.1889189027	-2.6065247394	-1.5988327784	 0.082579
H	-0.9597331423	-3.8182304634	-1.3023277194	 0.10963
H	-0.0951489696	-2.2953343348	-1.7981702519	 0.104244
H	-1.6692300147	-2.7290411527	 0.8632685059	 0.081064
78.3726	147.299	172.1677	229.8409	268.7717	326.707	370.7636	395.9282	466.5844	536.9832	688.1178	779.6325	797.9615	810.723	896.1718	932.1897	949.9066	963.1403	992.105	1012.421	1029.68	1045.0523	1063.2528	1084.9188	1088.6054	1107.0174	1141.3235	1181.6407	1204.0109	1241.3563	1260.0614	1270.8007	1300.8668	1330.6307	1365.0369	1398.619	1400.4871	1418.5892	1483.7524	1490.461	1493.7325	1500.6699	3011.6302	3021.2546	3034.7983	3044.5713	3091.2155	3105.5742	3110.1302	3116.6187	3178.6708	3185.6444	3201.2041	3793.7952
CC(O)C1CC2CC12	C[C@@H](O)[C@H]1C[C@H]2C[C@@H]12	
InChI=1S/C7H12O/c1-4(8)6-2-5-3-7(5)6/h4-8H,2-3H2,1H3	InChI=1S/C7H12O/c1-4(8)6-2-5-3-7(5)6/h4-8H,2-3H2,1H3/t4-,5+,6-,7-/m1/s1
