14
gdb 18823	4.37724	2.28664	1.90134	4.3867	59.57	-0.2628	0.008	0.2708	704.5152	0.109737	-382.545167	-382.539703	-382.538759	-382.574615	22.136	
O	-0.0237904722	 0.0144607584	 0.1864912874	-0.339596
C	 0.0175191637	 1.191887246	-0.0087278356	 0.445653
O	-1.1124210967	 1.972414615	-0.0925043943	-0.22916
C	-0.7193597815	 3.2861607373	-0.4570250612	 0.102202
C	 0.2959685664	 4.0354168857	 0.3829750119	-0.100948
C	 1.1377427653	 3.0446047965	 1.181151684	-0.237319
C	 1.2087198865	 2.1334172105	-0.1030098439	-0.201538
C	 0.6897007963	 3.3380742665	-0.9289066563	-0.111831
H	-1.5142979657	 3.8339873801	-0.943822914	 0.121562
H	 0.1768639358	 5.0921888511	 0.5899898142	 0.097705
H	 2.1261595798	 3.4528528159	 1.399400565	 0.121949
H	 0.713075366	 2.6086695639	 2.0908906038	 0.121041
H	 2.1487379526	 1.6418570533	-0.3323863686	 0.104729
H	 1.0488931738	 3.7111798798	-1.8780691924	 0.105548
165.5487	315.1428	446.6287	491.3025	611.8398	720.5816	746.1593	758.1748	800.5238	806.4324	841.6839	904.7071	929.5177	974.2139	1001.2264	1011.033	1017.8137	1054.1614	1067.7624	1122.5448	1136.7983	1166.8835	1200.8633	1231.4	1258.0084	1299.6638	1326.5047	1406.9587	1497.744	1892.6014	3054.7605	3119.8469	3173.5945	3185.4363	3207.6341	3223.3078
O=C1OC2C3CC1C23	O=C1O[C@H]2[C@H]3C[C@@H]1[C@@H]23	
InChI=1S/C6H6O2/c7-6-3-1-2-4(3)5(2)8-6/h2-5H,1H2	InChI=1S/C6H6O2/c7-6-3-1-2-4(3)5(2)8-6/h2-5H,1H2/t2-,3+,4-,5-/m0/s1
