17
gdb 34226	3.36343	1.57351	1.35771	1.6278	78.51	-0.2426	0.0352	0.2778	974.4921	0.137039	-384.614472	-384.607636	-384.606692	-384.645452	28.455	
C	 0.0166301496	-1.2183783564	 0.0624663534	-0.363787
C	-0.0261307681	-0.0160917641	 0.0357551081	 0.101591
C	-0.0871743592	 1.4141703331	 0.0230288279	 0.21273
C	-1.1396105925	 2.2608931504	 0.772092272	-0.303538
C	-0.6539059292	 3.4141443448	-0.1398022387	-0.112663
C	 0.7782098706	 3.6410926057	 0.3897647758	-0.212773
C	 1.2688684921	 2.2585787792	-0.0712993515	 0.022171
O	 1.1159937662	 2.3720327196	-1.5162467082	-0.289766
C	-0.2798245508	 2.310048399	-1.2407234153	 0.069805
H	 0.0565919809	-2.2792490897	 0.0784674864	 0.181689
H	-2.1446513402	 1.9092214948	 0.5251369552	 0.112262
H	-1.0448907543	 2.3878380921	 1.8538582844	 0.103194
H	-1.2791279982	 4.2754710717	-0.3622788296	 0.077107
H	 1.335301931	 4.42846488	-0.1215878417	 0.112466
H	 0.8078305297	 3.8042074401	 1.4701296689	 0.101334
H	 2.2311454	 1.8599288682	 0.2431395775	 0.091597
H	-0.9312943674	 2.1032524214	-2.0875900045	 0.096579
142.2925	149.6174	365.1159	431.7104	464.7505	508.8037	520.0614	586.3183	617.7246	632.9093	685.6553	723.2559	792.4347	850.271	879.8806	913.8256	922.3384	927.5337	968.3243	997.896	1004.3579	1042.1468	1060.5869	1110.0128	1120.5195	1151.956	1176.7327	1203.8595	1227.6728	1241.3823	1248.5377	1294.888	1323.7244	1334.7791	1479.5414	1505.4537	2232.6525	3058.06	3068.764	3115.6949	3126.1807	3141.9684	3148.3949	3152.1524	3502.5231
C#CC12CC3CC1OC23	C#C[C@@]12C[C@H]3C[C@@H]1O[C@@H]23	
InChI=1S/C8H8O/c1-2-8-4-5-3-6(8)9-7(5)8/h1,5-7H,3-4H2	InChI=1S/C8H8O/c1-2-8-4-5-3-6(8)9-7(5)8/h1,5-7H,3-4H2/t5-,6+,7-,8-/m1/s1
