19
gdb 73405	2.70354	1.9848	1.51101	1.3293	73.29	-0.2312	0.078	0.3092	926.945	0.162339	-423.018277	-423.011455	-423.01051	-423.048978	28.878	
O	 0.099772229	 1.3916270239	 0.0926247179	-0.502438
C	 0.0267060836	 0.0078379036	 0.0622859298	 0.450358
C	 0.8854450276	-0.7349788653	 1.0757029021	-0.277138
C	 0.5376210815	-2.1977429006	 0.6616871563	-0.241747
C	-0.4500312863	-1.9247028598	-0.4817254754	-0.04794
C	-1.3598044741	-0.764526755	 0.0336558723	-0.132199
C	-1.9971022436	-0.2250607811	-1.23839217	-0.121626
O	-0.8464098864	-0.2029376274	-2.1206185987	-0.299351
C	 0.1762871667	-0.7560257214	-1.2853947213	 0.041698
H	-0.1881664094	 1.705561812	-0.7744282239	 0.290696
H	 1.9456482409	-0.4930242545	 0.9581819537	 0.104589
H	 0.6014692653	-0.4979748687	 2.1047715598	 0.106517
H	 1.4150945031	-2.7571027823	 0.3240556822	 0.102238
H	 0.0756609323	-2.7668036076	 1.4732717147	 0.103426
H	-0.8854194188	-2.7739852853	-1.0080062483	 0.069997
H	-1.9797047529	-0.8675570904	 0.924700249	 0.069719
H	-2.7765870724	-0.871985339	-1.6571432102	 0.104588
H	-2.4020064294	 0.7883785459	-1.126206285	 0.099739
H	 1.1124249533	-0.8284464972	-1.8395664549	 0.078872
227.4698	244.3631	276.1089	316.1973	417.1613	426.747	472.6618	612.8087	657.9413	667.8204	743.7816	767.016	828.3695	914.4533	918.6148	938.5765	945.9329	967.6942	985.1791	993.5106	1015.1588	1064.0895	1077.5026	1083.2577	1100.2255	1159.8038	1179.6107	1191.4473	1227.1614	1237.7595	1254.655	1259.8789	1275.9574	1294.4882	1320.5432	1344.129	1390.2767	1411.0347	1495.5827	1517.6472	1527.7821	3020.3581	3050.4808	3059.1886	3060.2392	3085.6822	3104.9947	3114.2493	3117.6667	3127.5905	3767.565
OC12CCC3C1COC23	O[C@@]12CC[C@H]3[C@@H]1CO[C@@H]23	
InChI=1S/C7H10O2/c8-7-2-1-4-5(7)3-9-6(4)7/h4-6,8H,1-3H2	InChI=1S/C7H10O2/c8-7-2-1-4-5(7)3-9-6(4)7/h4-6,8H,1-3H2/t4-,5-,6+,7-/m0/s1
