23
gdb 116438	2.44465	1.29552	0.98913	2.514	81.23	-0.251	0.0766	0.3277	1292.0016	0.207198	-425.439488	-425.430248	-425.429304	-425.473122	35.863	
C	-0.1666669119	 1.6102299341	-0.0598218257	-0.398912
C	-0.0241572782	 0.0800841482	-0.030099306	 0.008425
C	 0.7624447267	-0.458314147	-1.2460295824	-0.219508
C	 2.2607895648	-0.1332452194	-1.1416272388	-0.199978
C	 2.8029779144	-0.5801705953	 0.2166797265	-0.066863
O	 2.04090072	-0.0351124065	 1.2842161314	-0.278001
C	 0.6692747111	-0.4387540004	 1.2444479662	 0.10889
C	 0.0736781396	 0.0246339214	 2.5692155116	-0.082516
O	 0.7509724947	-0.5649486735	 3.661965825	-0.427529
H	 0.7879592765	 2.1040876715	 0.1411362302	 0.128487
H	-0.5221794846	 1.9438695485	-1.0402619191	 0.108188
H	-0.884957872	 1.9627631899	 0.6858124843	 0.118346
H	-1.0296891248	-0.3603265696	-0.0559111036	 0.07032
H	 0.6381478412	-1.5484930961	-1.2932072963	 0.093268
H	 0.3449202511	-0.0545327358	-2.1750724399	 0.093462
H	 2.820951671	-0.6300729079	-1.9420597139	 0.095618
H	 2.4269461312	 0.9438355385	-1.2562882959	 0.10734
H	 2.7953734948	-1.6820266837	 0.2807027803	 0.087658
H	 3.8318865092	-0.2415986139	 0.3707050198	 0.104644
H	 0.6338159923	-1.5425682291	 1.2349636324	 0.066632
H	 0.1081556285	 1.1227653335	 2.626777913	 0.092013
H	-0.9752785623	-0.2845473512	 2.631442889	 0.103187
H	 1.6890780267	-0.4273736163	 3.482413452	 0.28683
111.9844	124.9533	158.594	214.7304	218.3946	287.4752	320.23	355.6088	398.9219	448.1188	479.6513	507.735	562.0392	664.7647	786.7802	828.1052	868.7202	886.4402	912.1977	950.9047	995.1696	1026.3154	1028.8524	1073.1408	1081.7145	1105.5802	1116.9234	1145.796	1173.4926	1218.227	1227.5939	1255.2129	1298.6082	1311.395	1340.5621	1357.1536	1366.8379	1375.3937	1389.6495	1399.4828	1413.2305	1423.7171	1443.5855	1477.6374	1488.3716	1494.7205	1502.9196	1503.3556	1509.571	2946.896	2960.497	2994.8471	3010.1309	3023.8289	3035.2495	3040.1328	3062.8879	3074.2983	3076.9556	3084.3213	3102.9069	3118.1342	3787.914
CC1CCCOC1CO	C[C@H]1CCCO[C@H]1CO	
InChI=1S/C7H14O2/c1-6-3-2-4-9-7(6)5-8/h6-8H,2-5H2,1H3	InChI=1S/C7H14O2/c1-6-3-2-4-9-7(6)5-8/h6-8H,2-5H2,1H3/t6-,7-/m0/s1
