19
gdb 41532	2.80526	1.66735	1.13935	1.4008	77.87	-0.2209	0.03	0.2509	1080.0375	0.162542	-419.192666	-419.185116	-419.184172	-419.224537	29.792	
C	 0.093165873	 1.4724907869	-0.2863755243	-0.210443
N	 1.5383928082	 1.3854511039	 0.037295119	-0.354524
C	 1.4083463856	 0.100734806	 0.5649405453	 0.397154
N	 2.0976154129	-0.5196393263	 1.416670662	-0.332092
C	 1.6220425506	-1.824987278	 1.8643263644	-0.141635
C	 0.5489897486	-2.5307145622	 1.0121442379	-0.248394
C	-0.8666802436	-1.9328577504	 1.0369363629	-0.058921
O	-0.961867644	-0.5302538451	 0.7746285347	-0.254879
C	 0.0260268937	-0.0661723162	-0.0936921772	 0.016056
H	-0.5085284976	 1.9887025915	 0.469040711	 0.121575
H	-0.1242574882	 1.8658661782	-1.2822346509	 0.110857
H	 2.0503084569	 2.1127141373	 0.5199906151	 0.241262
H	 2.4939312211	-2.4874923558	 1.9325620673	 0.104815
H	 1.2569850592	-1.7140458095	 2.8963379664	 0.104691
H	 0.9099952047	-2.6048955623	-0.0205447215	 0.109978
H	 0.450569216	-3.5647952073	 1.3665187697	 0.099675
H	-1.4897037497	-2.4810435178	 0.312593867	 0.093901
H	-1.3158123705	-2.0676387098	 2.0269088679	 0.11111
H	 0.0400503031	-0.6070149433	-1.0496775467	 0.089814
107.0854	198.9409	239.0811	299.3962	307.1217	356.1207	388.0932	486.4741	579.2348	599.2943	707.3701	767.0294	784.389	838.9835	888.7285	935.266	945.5469	962.0054	989.6272	1066.9192	1084.3022	1105.7767	1129.7246	1154.6647	1179.009	1208.7059	1238.7476	1251.4098	1268.8175	1306.3475	1311.7916	1351.6473	1382.5221	1383.7895	1395.8158	1422.5671	1481.0455	1489.6724	1508.0786	1515.6678	1820.3419	2980.592	2998.0321	3007.6474	3025.7011	3041.3213	3045.6278	3055.3899	3075.7409	3106.3919	3574.145
C1NC2=NCCCOC12	C1NC2=NCCCO[C@@H]12	
InChI=1S/C6H10N2O/c1-2-7-6-5(4-8-6)9-3-1/h5H,1-4H2,(H,7,8)	InChI=1S/C6H10N2O/c1-2-7-6-5(4-8-6)9-3-1/h5H,1-4H2,(H,7,8)/t5-/m0/s1
