16
gdb 16292	3.31133	1.78589	1.45461	1.8053	72.61	-0.2321	0.0397	0.2718	902.3976	0.129312	-346.539402	-346.531694	-346.53075	-346.571064	29.687	
O	-0.1004555197	 1.4410628	-0.0710648182	-0.432095
C	-0.0106445858	 0.0401791962	 0.042508202	 0.040307
C	 0.2436883148	-0.5853546697	 1.4599829577	-0.26709
C	-1.1111862175	-1.2883155795	 1.3675640537	-0.108911
C	-2.1978245642	-0.2797101086	 1.1872557288	-0.320074
C	-1.3737052757	-0.6575879095	-0.0272765601	 0.238736
C	-1.9368729299	-1.2305603045	-1.2007162381	 0.154908
C	-2.3910276036	-1.7169579979	-2.2042406661	-0.415298
H	 0.7907132903	 1.8042547835	-0.0508976955	 0.285351
H	 0.6756740663	-0.3791965452	-0.7030631292	 0.081107
H	 1.0990462026	-1.2641913593	 1.4701593966	 0.103629
H	 0.3441130688	 0.137042181	 2.2761411563	 0.100037
H	-1.3137880767	-2.3113077676	 1.6571740853	 0.10329
H	-3.2095955781	-0.6688248413	 1.1721190226	 0.126598
H	-2.0969805103	 0.7200414478	 1.5995482637	 0.127106
H	-2.7983662611	-2.1415979754	-3.0876297093	 0.182399
115.9051	155.2354	187.2866	254.0766	332.9531	400.5975	457.1803	518.1806	535.0388	562.3356	635.0478	647.6409	701.8505	820.0834	842.7058	869.5482	937.5775	963.5706	1020.4107	1039.2676	1073.041	1084.1416	1121.1016	1165.1676	1201.2635	1216.3954	1247.0038	1281.377	1311.5182	1372.6949	1428.0714	1474.0625	1496.909	2230.8462	3028.001	3050.3905	3112.538	3126.7456	3199.6574	3221.8535	3504.7612	3817.4564
OC1CC2CC12C#C	O[C@H]1C[C@H]2C[C@@]12C#C	
InChI=1S/C7H8O/c1-2-7-4-5(7)3-6(7)8/h1,5-6,8H,3-4H2	InChI=1S/C7H8O/c1-2-7-4-5(7)3-6(7)8/h1,5-6,8H,3-4H2/t5-,6-,7+/m0/s1
