15
gdb 49672	2.39037	1.85732	1.63734	4.4068	67.68	-0.2562	-0.0561	0.2002	895.7844	0.113194	-453.9323	-453.924903	-453.923959	-453.964374	27.361	
N	-0.2006335727	 1.2109163778	 0.4617398422	-0.539271
C	-0.0614191757	 0.0546069126	-0.0098568379	 0.466859
O	 1.0794024066	-0.4763093602	-0.5405779303	-0.234957
C	 0.9097432407	-1.8736416322	-0.7939633348	-0.108945
C	-0.5792373252	-2.1181024764	-0.5825582905	-0.071025
C	-1.1720013768	-2.0133006076	 0.8022835311	-0.108252
C	-0.3172574656	-2.091317316	 2.02103192	 0.142568
O	 0.7782774143	-1.5981324459	 2.1381986408	-0.253092
N	-1.1546987672	-0.8635681452	-0.1426614588	-0.137605
H	 0.6903692826	 1.7056964753	 0.4491715135	 0.234361
H	 1.1937456799	-2.0817057678	-1.8293873114	 0.128165
H	 1.5556180447	-2.4399387978	-0.1171238742	 0.140436
H	-1.1274428395	-2.6862413521	-1.3279805053	 0.123171
H	-2.1738857835	-2.4113074151	 0.9397130779	 0.117562
H	-0.7770536727	-2.6769171695	 2.8458099177	 0.100024
112.7683	128.1358	180.2985	209.399	302.0058	388.1565	464.7817	654.3321	684.1778	739.5355	759.2186	803.1272	837.8974	859.5895	877.5308	945.1135	977.0707	987.1164	1036.937	1058.1269	1082.767	1123.8769	1136.136	1225.6854	1236.2172	1309.4837	1360.0018	1384.9389	1405.8198	1427.9607	1508.9991	1785.5565	1810.3912	2903.4844	3057.6076	3102.8364	3148.7764	3159.7404	3511.0274
N=C1OCC2C(C=O)N12	[NH][C]1OC[C@H]2[C@@H](C=O)N12	
InChI=1S/C5H6N2O2/c6-5-7-3(1-8)4(7)2-9-5/h1,3-4,6H,2H2	InChI=1S/C5H6N2O2/c6-5-7-3(1-8)4(7)2-9-5/h1,3-4,6H,2H2/t3-,4+,7?/m1/s1
