15
gdb 27078	3.41307	1.14677	0.86229	3.6935	71.75	-0.2085	0.0189	0.2274	1264.6252	0.114147	-450.151069	-450.142359	-450.141415	-450.187507	30.042	
N	 0.137829256	 1.4242443461	 0.0201671	-0.616862
C	-0.0082464016	 0.0256796241	 0.0163315096	 0.122832
C	-1.0682855284	-0.8490287167	 0.0018756315	 0.365177
O	-2.3709113443	-0.4435514291	-0.0136810303	-0.232631
C	-3.3535258166	-1.3834568053	-0.0267402675	 0.100394
N	-4.5530844288	-0.9928322029	-0.0411189555	-0.444791
N	-0.6636181198	-2.1482577391	 0.0048425743	-0.344351
C	 0.6564282938	-2.0907503601	 0.0213263393	 0.011913
N	 1.098621931	-0.8122098004	 0.028594441	-0.251873
H	-0.2870351859	 1.8462277901	-0.7995771285	 0.254409
H	-0.3049409224	 1.8437309317	 0.8316870484	 0.254378
H	-2.9704576494	-2.4048916432	-0.0229748107	 0.140543
H	-5.1710907366	-1.8022508454	-0.0494563102	 0.230442
H	 1.3191273641	-2.9422019152	 0.0282786669	 0.137942
H	 2.050993639	-0.4859289147	 0.0406586519	 0.272478
7.8354	50.3907	106.0667	156.4244	252.7471	301.2306	339.0852	472.2526	545.8264	550.014	670.0812	694.2662	732.3504	785.0859	809.3662	833.6757	847.8727	956.9203	1057.0643	1063.4692	1117.1525	1173.3618	1221.8959	1276.7469	1293.6315	1320.0467	1393.5345	1403.4846	1479.7977	1507.6485	1648.8962	1670.9167	1740.9027	3128.5795	3258.402	3500.7357	3512.3668	3560.9921	3663.6982
NC1=C(OC=N)N=CN1	Nc1c(O[CH][NH])nc[nH]1	
InChI=1S/C4H6N4O/c5-1-9-4-3(6)7-2-8-4/h1-2,5H,6H2,(H,7,8)	InChI=1S/C4H6N4O/c5-1-9-4-3(6)7-2-8-4/h1-2,5H,6H2,(H,7,8)
