18
gdb 37815	3.09505	1.95031	1.74931	1.9335	80.47	-0.2193	0.0024	0.2217	865.1328	0.14984	-364.694231	-364.687947	-364.687002	-364.724346	27.138	
C	-0.0995306239	 1.5686420373	 0.1000667482	-0.29783
C	 1.3934178347	 1.2626166045	 0.0240492117	-0.062776
N	 1.2374304978	-0.0206626763	 0.9008725827	-0.211981
C	 2.0061740228	-0.8110700555	-0.1524581072	-0.219719
C	 1.2038789679	 0.1300962559	-1.0582879807	 0.232155
C	 0.5917853498	-0.1307995059	-2.3982891345	-0.233158
C	-0.5987175895	-0.7274914635	-2.2016794472	-0.042877
C	-0.9953104166	-0.8990440938	-0.7212276582	-0.423625
C	 0.0097679646	 0.054344747	-0.0965491543	 0.339622
H	-0.4730347739	 1.9087958621	 1.069671445	 0.104431
H	-0.5283939555	 2.1379054729	-0.7281968828	 0.102886
H	 2.2590838863	 1.9087269251	 0.1842393314	 0.080055
H	 3.0903614671	-0.67082312	-0.0897658932	 0.095774
H	 1.7606785387	-1.8785881333	-0.168103466	 0.098579
H	 1.0443642046	 0.0299376742	-3.370288977	 0.098553
H	-1.2351497214	-1.098671565	-2.9996506351	 0.099474
H	-2.0374757289	-0.6264166899	-0.5248678	 0.115213
H	-0.8721168247	-1.9428996157	-0.4054642128	 0.125224
216.3823	259.0374	381.642	413.831	461.0634	501.9404	554.9916	712.3878	737.0224	747.0648	773.7519	818.2745	862.1134	887.0615	897.4595	922.2142	929.4843	945.9426	965.9152	1011.867	1049.3624	1061.214	1087.9006	1105.5971	1128.0267	1143.7634	1149.4229	1175.5995	1202.083	1220.7889	1252.0045	1268.8294	1294.4522	1308.8726	1360.9457	1468.785	1489.3826	1520.1373	1609.7008	3027.6457	3035.0915	3057.3507	3072.4925	3091.7262	3095.0548	3123.7271	3173.074	3199.7855
C1C2N3CC22C=CCC132	C1[C@H]2N3C[C@@]42C=CC[C@@]134	
InChI=1S/C8H9N/c1-2-7-5-9-6(7)4-8(7,9)3-1/h1-2,6H,3-5H2	InChI=1S/C8H9N/c1-2-7-5-9-6(7)4-8(7,9)3-1/h1-2,6H,3-5H2/t6-,7-,8+/m1/s1
