19
gdb 37394	2.83221	2.18093	1.76648	2.1026	77.02	-0.2117	0.0705	0.2821	853.0522	0.164285	-381.987648	-381.981714	-381.98077	-382.017453	26.534	
C	-0.0714936402	 1.5586558698	 0.0272225187	-0.234492
C	 1.4744162904	 1.4749778559	 0.0287532313	-0.013602
C	 1.9819711265	 1.3249155112	 1.4627155085	-0.050785
N	 0.9460712	 1.4057088466	 2.5344885204	-0.346567
C	 1.4639127637	 0.099534668	 2.1181763261	-0.01109
C	 0.7044609759	-0.7718113442	 1.133241846	-0.082521
C	 1.7866659158	-1.0744067641	 0.0540105326	-0.159344
N	 1.3454242094	 0.1244590067	-0.724263154	-0.147709
C	-0.0015669036	 0.0310312228	-0.0253990499	 0.014854
H	-0.5569160977	 2.0599139637	 0.8590494969	 0.129299
H	-0.4419633282	 1.9278241511	-0.9320878758	 0.101997
H	 2.0434758852	 2.2101379621	-0.5425039854	 0.067991
H	 2.97755143	 1.6888229046	 1.6946296488	 0.084457
H	 1.3932143574	 1.6732216037	 3.4079831681	 0.229701
H	 2.1020241803	-0.4460232191	 2.8111084996	 0.086635
H	 0.1525920185	-1.591762135	 1.5991153963	 0.063692
H	 2.8328435293	-1.1011759999	 0.3762515975	 0.094298
H	 1.5737132632	-1.9605793193	-0.5519592479	 0.105146
H	-0.7873664058	-0.5399526747	-0.5297398278	 0.068041
265.8373	345.0293	387.4796	453.9038	498.0848	599.6967	613.5794	704.1531	728.7896	791.1681	806.2877	824.204	855.7063	894.1255	910.8907	934.2642	959.4157	969.6267	981.5552	1015.2632	1034.7624	1056.0414	1086.2174	1101.6542	1119.6377	1152.9281	1168.1402	1183.4173	1209.0667	1225.2209	1241.687	1256.7454	1265.6411	1291.6612	1314.877	1325.7691	1354.7755	1385.8139	1439.9678	1472.7642	1500.843	3038.1152	3053.0221	3074.1938	3079.3892	3091.5557	3092.4251	3119.454	3160.07	3179.1451	3498.8752
C1C2C3NC3C3CN2C13	C1[C@H]2[C@H]3N[C@H]3[C@@H]3CN2[C@H]13	
InChI=1S/C7H10N2/c1-4-3-2-9(4)5(1)7-6(3)8-7/h3-8H,1-2H2	InChI=1S/C7H10N2/c1-4-3-2-9(4)5(1)7-6(3)8-7/h3-8H,1-2H2/t3-,4-,5+,6+,7-/m1/s1
