17
gdb 93192	2.51034	1.59252	1.17548	5.1216	70.78	-0.2408	-0.0448	0.196	1071.9242	0.137745	-455.190999	-455.182831	-455.181886	-455.223942	30.75	
C	-0.010406518	 1.6159212061	-0.1363621793	-0.391719
C	 0.0289282238	 0.0880327959	 0.0179122922	-0.005786
C	 0.7102476308	-0.6183523736	-1.1470572215	-0.075448
O	 2.1217813668	-0.3484049121	-1.191160056	-0.231306
C	 2.8359426794	-0.381237731	-0.0456918319	 0.381355
O	 4.0344372899	-0.3375154055	-0.0813214098	-0.318609
C	 2.0825511227	-0.4216091315	 1.2844822539	 0.228863
N	 2.7042937637	-0.5122056454	 2.3926307835	-0.510657
N	 0.7102674081	-0.3639479154	 1.2214982963	-0.324972
H	 0.9952994578	 2.0278422025	-0.2591450169	 0.14171
H	-0.6074936312	 1.9016437282	-1.0084394057	 0.123847
H	-0.4597932476	 2.0758347867	 0.7484668763	 0.125129
H	-0.9992202443	-0.2914463255	 0.0589845389	 0.101895
H	 0.561434513	-1.7009514522	-1.0694348637	 0.129463
H	 0.3210383681	-0.27382367	-2.1068273307	 0.131581
H	 3.7044045075	-0.5718104372	 2.1980666452	 0.243009
H	 0.2671908295	-0.1979650001	 2.1146777194	 0.251645
83.6941	92.9412	207.7904	228.8953	342.1884	361.0117	417.2898	433.6503	495.5434	516.6497	551.8471	613.4286	703.1542	796.9643	799.3524	836.6151	899.6141	941.8493	1009.489	1021.8867	1070.7596	1140.6742	1144.8897	1181.4922	1214.4129	1286.1855	1334.1148	1372.2833	1406.9316	1424.7931	1439.7269	1464.4108	1491.9389	1498.4447	1508.1529	1720.08	1841.9367	3035.5625	3040.327	3052.6613	3112.2106	3122.1339	3123.3694	3488.2567	3593.5651
CC1COC(=O)C(=N)N1	C[C@H]1COC(=O)[C]([NH])N1	
InChI=1S/C5H8N2O2/c1-3-2-9-5(8)4(6)7-3/h3H,2H2,1H3,(H2,6,7)	InChI=1S/C5H8N2O2/c1-3-2-9-5(8)4(6)7-3/h3H,2H2,1H3,(H2,6,7)/t3-/m0/s1
