21
gdb 104648	2.15304	1.25169	0.94279	1.4232	79.09	-0.2477	-0.022	0.2256	1329.5951	0.179954	-424.226483	-424.216381	-424.215437	-424.262311	36.714	
C	-0.1180941623	 1.9545440228	 0.0443252025	-0.393067
C	 0.168780939	 0.4788700818	-0.2645060263	-0.257691
C	 0.5755050777	-0.3857551475	 0.9408291194	 0.222794
C	-0.4813434835	-0.5097038169	 2.100655667	-0.289195
C	-0.177339202	-2.0184800496	 2.1662290277	 0.150928
O	-1.3353916751	-2.8071126162	 2.3076615955	-0.434472
C	 0.5032543272	-1.9292668229	 0.7724675896	-0.317713
C	 1.8995232493	 0.0557226476	 1.5263054047	 0.117137
O	 2.8273519858	-0.6715332511	 1.7832695272	-0.259292
H	 0.7739938999	 2.4967227266	 0.371008772	 0.12272
H	-0.4964500835	 2.4617880693	-0.8482661551	 0.120431
H	-0.875962845	 2.0562862512	 0.8282862667	 0.124489
H	-0.73269564	 0.0276044436	-0.6959239746	 0.10558
H	 0.9435805276	 0.4050730249	-1.0392796109	 0.10625
H	-0.3388837879	 0.0860081119	 3.0060813749	 0.10479
H	-1.4925293443	-0.34435716	 1.7175723203	 0.116954
H	 0.5601800384	-2.2442819056	 2.9473599811	 0.083023
H	-1.0672758148	-3.729611009	 2.367355031	 0.283582
H	-0.2000406631	-2.21124096	-0.0154696222	 0.098585
H	 1.4547606191	-2.4458809257	 0.6398439766	 0.115823
H	 1.9673219975	 1.145303195	 1.7437266627	 0.078343
38.4402	73.8756	89.6371	188.3407	231.66	248.9412	268.1547	280.9205	332.7779	360.5703	430.8185	460.4173	571.4095	603.6934	754.2415	779.2055	836.8789	875.791	913.226	930.9315	984.8144	1010.2297	1021.1921	1052.7849	1075.5955	1086.1406	1146.1031	1176.668	1193.0537	1227.715	1251.453	1265.8365	1271.8049	1321.7401	1333.3685	1370.2436	1410.5012	1425.469	1431.9164	1458.8622	1482.4448	1492.9107	1501.6772	1507.2501	1814.1181	2877.7538	3016.1713	3018.1552	3039.0353	3053.1956	3054.2008	3068.0768	3105.1665	3110.079	3112.2776	3136.5964	3816.3497
CCC1(CC(O)C1)C=O	CC[C@]1(C[C@@H](O)C1)C=O	
InChI=1S/C7H12O2/c1-2-7(5-8)3-6(9)4-7/h5-6,9H,2-4H2,1H3	InChI=1S/C7H12O2/c1-2-7(5-8)3-6(9)4-7/h5-6,9H,2-4H2,1H3/t6-,7-
