17
gdb 35435	3.41167	1.40922	1.33469	3.6533	71.64	-0.2327	0.0135	0.2462	997.7092	0.138505	-417.970629	-417.963487	-417.962542	-418.002326	27.995	
N	 0.7487449966	-0.8450656251	 0.8209895669	-0.332045
C	 0.353956785	 0.1546419234	 0.3951326117	 0.28722
C	-0.1726549133	 1.4261994869	-0.1390615349	-0.044001
C	-1.0635983896	 2.1682804901	 0.9315176171	-0.212131
N	-0.3731501745	 3.2938841319	 1.5651088716	-0.113524
C	 0.0899972063	 4.2254816538	 0.466355609	-0.184037
C	 1.2909216694	 3.2878970742	 0.2534367596	 0.114085
C	 1.0824522378	 2.9135481909	 1.7360799688	-0.223229
O	 0.9058646762	 2.2246588456	-0.6206076314	-0.269358
H	-0.7843320657	 1.1722466856	-1.0110653269	 0.137497
H	-1.966288663	 2.5501958836	 0.4467257763	 0.123742
H	-1.372571893	 1.4514600952	 1.6974760476	 0.138085
H	-0.6022581547	 4.3525160572	-0.3700856482	 0.109673
H	 0.3509300415	 5.1981004906	 0.8924322615	 0.115369
H	 2.2502306725	 3.6518046203	-0.1194542096	 0.090964
H	 1.5680209	 3.6145456004	 2.419364488	 0.120755
H	 1.2782137784	 1.8898751153	 2.0611060227	 0.140935
85.4219	158.2828	254.9999	334.8116	407.3879	449.9451	464.8845	516.7071	590.898	712.9443	777.3773	800.5661	831.6946	864.9886	905.2963	932.2495	960.2535	973.0542	1000.6205	1036.9345	1065.0043	1111.9536	1132.9419	1166.9071	1243.2281	1256.5552	1259.4773	1282.1025	1291.0664	1304.995	1350.6505	1356.8176	1385.587	1484.9649	1492.765	1516.8348	2348.2646	3051.7021	3053.741	3059.6551	3070.077	3097.3722	3105.7503	3117.0484	3132.0048
N#CC1CN2CC(C2)O1	N#C[C@H]1CN2C[C@@H](C2)O1	
InChI=1S/C6H8N2O/c7-1-5-2-8-3-6(4-8)9-5/h5-6H,2-4H2	InChI=1S/C6H8N2O/c7-1-5-2-8-3-6(4-8)9-5/h5-6H,2-4H2/t5-/m0/s1
