18
gdb 121080	3.28989	0.92322	0.80294	3.3602	69.42	-0.2564	0.053	0.3094	1428.7521	0.148047	-476.23706	-476.228168	-476.227224	-476.27179	31.784	
O	 0.0485161935	 1.3256358042	-0.2300088755	-0.416313
C	 0.0272069888	-0.0787595541	-0.0370489302	-0.072087
C	-1.3978144823	-0.6413336906	-0.0325336782	-0.218035
C	-1.4497154302	-2.141698707	 0.2409448413	 0.076302
C	-2.8541937282	-2.758142835	 0.1333125218	-0.123652
O	-2.8787146742	-3.2855990625	-1.1951729091	-0.249921
C	-1.597344437	-3.418274891	-1.6472951173	 0.489847
N	-1.2241550872	-3.9609795011	-2.7173915871	-0.576413
O	-0.7259955807	-2.8663319686	-0.7696701597	-0.234651
H	-0.1831258676	 1.5022950952	-1.1471909152	 0.285221
H	 0.6333265733	-0.6043804957	-0.7865645392	 0.120787
H	 0.4954874603	-0.25273391	 0.9388157944	 0.111834
H	-1.9822339533	-0.1215766822	 0.7364286153	 0.113119
H	-1.8820008325	-0.4385183276	-0.9976498278	 0.105696
H	-0.9755671426	-2.3740362769	 1.1991859986	 0.104327
H	-3.0100925477	-3.5709494526	 0.8513766934	 0.122893
H	-3.6569241094	-2.0246590813	 0.2346434819	 0.129322
H	-2.0255302032	-4.3474716333	-3.2102701375	 0.231725
54.8826	95.5244	120.2448	133.6269	181.6322	295.9672	329.7394	375.0968	479.2883	504.5767	709.4135	718.5414	758.5194	806.4764	815.8258	871.546	912.8276	971.9846	992.0702	1033.2147	1054.839	1075.6757	1095.4367	1115.5059	1129.6177	1190.1007	1233.9029	1261.0359	1282.8196	1317.1187	1356.0629	1386.387	1412.6838	1416.2391	1425.4675	1477.761	1513.6658	1521.1699	1800.6442	3016.5934	3021.9173	3041.125	3056.2732	3068.5104	3084.425	3111.234	3538.2158	3819.5663
OCCC1COC(=N)O1	OCC[C@H]1CO[C]([NH])O1	
InChI=1S/C5H9NO3/c6-5-8-3-4(9-5)1-2-7/h4,6-7H,1-3H2	InChI=1S/C5H9NO3/c6-5-8-3-4(9-5)1-2-7/h4,6-7H,1-3H2/t4-/m0/s1
