19
gdb 16071	3.12618	1.80436	1.46961	2.6958	71.8	-0.2443	0.0845	0.3289	941.5058	0.165621	-365.012696	-365.00468	-365.003736	-365.044774	30.586	
C	-0.0263465021	 1.6848209669	 0.4166317792	-0.323703
N	 0.0152429093	 0.2367109134	 0.557152455	-0.132958
C	 1.0506218469	-0.5987589437	-0.0268747029	-0.087241
C	 2.4469095278	 0.0472811567	 0.0417467359	-0.239514
C	 2.2821997282	 0.1848057682	 1.5892151038	-0.30767
C	 0.892881796	-0.4707335398	 1.4718337237	 0.308301
C	 0.2333547802	-1.3920965299	 2.4661561345	-0.15355
O	-0.9451438931	-1.9550042567	 1.9365583865	-0.421708
H	 0.949619213	 2.1844175633	 0.4719972186	 0.111227
H	-0.4798705656	 1.9309130029	-0.548422979	 0.126941
H	-0.6633296408	 2.0975877164	 1.2049230266	 0.126607
H	 0.7456743327	-1.3976149187	-0.694511971	 0.098985
H	 3.236675096	-0.6569690624	-0.2270914412	 0.111113
H	 2.5923819786	 0.9657460915	-0.5344064032	 0.102594
H	 2.9890932734	-0.4427795175	 2.136693313	 0.111252
H	 2.3124533493	 1.1916157717	 2.016300498	 0.100861
H	 0.914637368	-2.211329574	 2.7288551732	 0.102213
H	 0.0323683716	-0.8312063994	 3.3977014929	 0.082
H	-1.2957177094	-1.273799429	 1.3423883965	 0.28425
109.4767	153.7399	202.1497	220.7954	271.902	278.1117	412.3966	457.3527	513.0801	562.9181	678.2518	717.4683	764.8688	789.8788	915.3635	937.711	951.5632	990.106	1019.6812	1077.261	1096.8282	1103.0115	1121.9619	1166.0328	1184.5546	1198.9405	1214.3523	1227.8096	1245.5418	1273.3681	1277.3353	1354.0394	1420.1454	1454.8614	1463.9368	1473.2742	1489.5579	1503.6083	1508.2153	1517.6412	2932.173	3012.8616	3038.9138	3054.5077	3061.705	3079.7275	3102.8519	3106.7117	3120.7687	3169.8001	3700.105
CN1C2CCC12CO	CN1[C@H]2CC[C@@]12CO	
InChI=1S/C6H11NO/c1-7-5-2-3-6(5,7)4-8/h5,8H,2-4H2,1H3	InChI=1S/C6H11NO/c1-7-5-2-3-6(5,7)4-8/h5,8H,2-4H2,1H3/t5-,6-,7?/m0/s1
