20
gdb 120779	3.80451	0.69711	0.63342	1.234	76.31	-0.2472	0.0683	0.3155	1758.5814	0.170073	-440.222591	-440.212975	-440.212031	-440.258412	34.42	
O	 0.2407700964	 1.3379281567	-0.2880071889	-0.419479
C	 0.0617015593	-0.0453304449	-0.0308599984	-0.057599
C	-1.3653539611	-0.5241230051	-0.3172427879	-0.211226
C	-1.5128350618	-2.0120290404	-0.0891250235	-0.021869
N	-1.7161001375	-2.4605931739	 1.2983285446	-0.343575
C	-2.7812700721	-2.6881567969	 0.3070892661	-0.05544
C	-4.0744807608	-1.9757611611	 0.527363725	 0.093063
C	-5.2145500418	-2.1670098941	-0.3785469789	-0.181472
O	-5.1848832336	-2.80101631	 0.8998097398	-0.23701
H	-0.2902268731	 1.8256740642	 0.3494946197	 0.281751
H	 0.768202065	-0.5614088809	-0.6913479883	 0.106593
H	 0.333274317	-0.3050098098	 1.0033726597	 0.102906
H	-2.060964437	 0.0196220349	 0.3319593561	 0.093281
H	-1.6235275249	-0.2745429906	-1.3534182575	 0.107658
H	-0.849534859	-2.6190607843	-0.7068027411	 0.085489
H	-1.2118706688	-3.3218437742	 1.4877842184	 0.23574
H	-2.9225981691	-3.7032361024	-0.0616431419	 0.091226
H	-4.0061017038	-1.0455342936	 1.0887748704	 0.102504
H	-5.9518992494	-1.374018462	-0.4958336841	 0.116183
H	-5.1148015941	-2.8348329016	-1.2339250593	 0.111276
51.2581	68.1091	93.9445	115.7853	190.4734	265.9115	303.2815	314.2453	366.0811	444.0076	491.1003	573.784	775.6242	809.6912	835.1595	863.5622	885.715	915.6977	976.3522	997.9487	1022.7211	1037.0652	1075.7316	1092.4697	1100.3423	1134.3264	1155.2997	1160.1154	1171.0378	1230.3076	1255.3295	1267.751	1288.8059	1297.3755	1319.9683	1346.8146	1394.3915	1421.0027	1441.0886	1473.9648	1494.4056	1513.054	1533.1659	2994.741	3034.291	3056.6674	3079.4542	3080.1036	3098.0541	3118.7034	3130.5344	3165.7755	3513.6168	3817.3253
OCCC1NC1C1CO1	OCC[C@H]1N[C@H]1[C@H]1CO1	
InChI=1S/C6H11NO2/c8-2-1-4-6(7-4)5-3-9-5/h4-8H,1-3H2	InChI=1S/C6H11NO2/c8-2-1-4-6(7-4)5-3-9-5/h4-8H,1-3H2/t4-,5-,6-/m1/s1
