20
gdb 103987	2.67025	1.33475	1.20239	3.729	75.22	-0.2202	0.0604	0.2806	1138.393	0.169637	-440.233807	-440.22453	-440.223585	-440.267184	35.808	
C	-0.1488157411	 1.5387967059	 0.0704433173	-0.524241
C	 0.0942418893	 0.0604665555	 0.0103895935	 0.299494
N	-0.7550229614	-0.8877693004	 0.7745182261	-0.365704
C	 0.7143630615	-0.8972695688	 0.9762328497	-0.10521
C	 1.2582038741	-1.7845667139	-0.1429241455	-0.290162
C	 0.6688076033	-0.7368274152	-1.1734178807	 0.407562
O	-0.2854447095	-1.1791214416	-2.1026946692	-0.491056
C	 1.775763779	 0.0179640511	-1.9024625436	-0.149774
O	 2.329487508	-0.9019543147	-2.8406447766	-0.435964
H	 0.7084906006	 2.109741224	-0.3021537971	 0.121156
H	-1.0227585409	 1.8181908356	-0.5289995365	 0.138266
H	-0.333526994	 1.8585564858	 1.1019790334	 0.116034
H	-1.1609876545	-0.3463865256	 1.5389570455	 0.219207
H	 1.146573356	-0.7026010361	 1.950424037	 0.087035
H	 2.3455533974	-1.8662332473	-0.1916822984	 0.101466
H	 0.7988802923	-2.7730966302	-0.193394245	 0.110678
H	 0.2185956268	-1.5257298934	-2.8506458408	 0.282367
H	 1.3408917682	 0.8860861839	-2.4185573747	 0.094933
H	 2.5367093628	 0.3772838427	-1.1942508898	 0.090012
H	 2.8794623321	-0.4157200871	-3.4607855847	 0.293903
114.9846	151.9063	167.1056	197.7389	253.4979	260.28	302.9437	365.2339	391.2594	440.374	455.7409	481.9085	552.9345	649.432	715.344	772.9103	855.9885	885.9796	913.9595	934.9002	967.1059	1003.9026	1026.9027	1057.9317	1070.3508	1098.4412	1109.4281	1150.0794	1155.8657	1217.3077	1226.634	1246.1147	1284.8722	1298.9226	1338.552	1392.4096	1415.0089	1432.9246	1451.515	1476.9299	1484.8864	1499.2153	1512.6282	2984.7568	3023.8672	3026.7738	3075.3747	3088.9013	3092.2689	3137.5806	3186.2055	3454.1715	3766.7701	3842.9789
CC12NC1CC2(O)CO	C[C@]12N[C@H]1C[C@]2(O)CO	
InChI=1S/C6H11NO2/c1-5-4(7-5)2-6(5,9)3-8/h4,7-9H,2-3H2,1H3	InChI=1S/C6H11NO2/c1-5-4(7-5)2-6(5,9)3-8/h4,7-9H,2-3H2,1H3/t4-,5-,6-/m0/s1
