17
gdb 76893	2.44588	1.921	1.61896	0.6517	61.48	-0.2635	0.065	0.3285	891.7449	0.138819	-496.099128	-496.092291	-496.091347	-496.130194	28.021	
O	 0.1017645186	 1.4097540513	 0.117507084	-0.442232
C	 0.0133534077	 0.0142343048	 0.0282707782	 0.104695
C	-1.4214750987	-0.5265184483	-0.2045839882	 0.00101
C	-2.0474686276	 0.187112116	-1.4088530326	-0.100623
O	-1.2871107355	-0.3769058044	-2.5096972763	-0.301178
C	-0.4321390915	-1.3449274306	-1.8851458191	 0.150088
O	-1.1436245197	-1.8228886991	-0.7743379825	-0.245498
C	 0.7360761781	-0.5500385933	-1.2602509881	 0.062759
O	 1.2027271914	 0.4894839431	-2.0955328963	-0.442541
H	 0.6714377143	 1.6757299924	-0.6233882453	 0.290741
H	 0.4237012548	-0.450357166	 0.9318656074	 0.083296
H	-2.0536126047	-0.6260912694	 0.6753067645	 0.097545
H	-3.1049080173	-0.0584825732	-1.5419651064	 0.116593
H	-1.908650387	 1.2692433497	-1.3686444446	 0.127304
H	-0.1974996362	-2.1413388616	-2.5899783105	 0.102175
H	 1.5857889961	-1.1880196821	-1.0104522945	 0.097559
H	 0.4608717173	 0.6881451006	-2.6890993897	 0.298309
119.2352	271.7661	297.415	323.795	428.1186	472.7052	514.5161	556.7419	613.215	675.5097	696.5037	780.7049	809.8783	851.8292	855.5561	919.5401	961.0941	990.4953	1014.7152	1042.2776	1051.2279	1091.2179	1128.2698	1155.1937	1201.025	1219.6279	1249.8435	1264.4508	1304.4775	1314.0409	1319.9376	1345.1455	1361.9114	1386.9926	1423.3406	1443.7905	1515.0357	3037.9278	3059.975	3096.8059	3122.8631	3141.2296	3150.3948	3659.5258	3694.4878
OC1C2COC(O2)C1O	O[C@H]1[C@H]2CO[C@H](O2)[C@H]1O	
InChI=1S/C5H8O4/c6-3-2-1-8-5(9-2)4(3)7/h2-7H,1H2	InChI=1S/C5H8O4/c6-3-2-1-8-5(9-2)4(3)7/h2-7H,1H2/t2-,3+,4+,5-/m1/s1
