16
gdb 69741	3.57322	1.64856	1.42748	2.9132	67.47	-0.2499	0.02	0.2699	928.2556	0.125047	-437.858646	-437.851686	-437.850742	-437.889815	27.273	
C	-0.0962426342	 1.5255712149	 0.0506161723	-0.514396
C	 0.1350545927	 0.0519405625	-0.0086694308	 0.403822
O	-0.7609004474	-0.8164677471	 0.6851669404	-0.264458
C	 0.6305661832	-0.9432058793	 0.9780586861	-0.051024
C	 1.2555724888	-1.8231929927	-0.1362006679	-0.060972
N	 0.5539601844	-3.062810214	-0.4464411236	-0.257823
C	-0.2338669059	-2.7677985037	-1.3977343236	 0.131417
O	-0.2155059263	-1.5229971285	-1.9591643121	-0.221751
C	 0.7266885449	-0.7811366606	-1.174306042	-0.013345
H	 0.7921367373	 2.0731974962	-0.2799940783	 0.127457
H	-0.9305509783	 1.8114042709	-0.5994170618	 0.141891
H	-0.3384943107	 1.8322624024	 1.0714661322	 0.139637
H	 0.9330822322	-0.8304389847	 2.0131137381	 0.112651
H	 2.3353410124	-1.9557988518	-0.0478912195	 0.088567
H	-0.9403961075	-3.4458976659	-1.8628647002	 0.142326
H	 1.4276373642	-0.2609448085	-1.8283062694	 0.096001
159.9405	192.1256	229.5518	250.1734	332.8835	480.7426	529.3435	573.2338	685.6518	735.7518	814.7465	829.9717	856.6951	889.423	903.7829	929.3201	964.6648	998.7983	1012.2539	1047.129	1054.3282	1088.9821	1104.5722	1181.4705	1196.5249	1246.9445	1260.6155	1287.6553	1317.1133	1346.914	1405.8424	1460.1672	1481.4975	1493.0672	1675.0061	3036.7881	3096.2662	3100.3498	3110.8733	3123.2345	3184.6743	3220.0375
CC12OC1C1N=COC21	C[C@]12O[C@H]1[C@H]1N=CO[C@@H]21	
InChI=1S/C6H7NO2/c1-6-4-3(5(6)9-6)7-2-8-4/h2-5H,1H3	InChI=1S/C6H7NO2/c1-6-4-3(5(6)9-6)7-2-8-4/h2-5H,1H3/t3-,4+,5-,6+/m0/s1
