17
gdb 32777	3.06852	1.29557	0.94693	2.9802	71.67	-0.189	0.0306	0.2195	1199.3732	0.136627	-458.987032	-458.978789	-458.977845	-459.020323	31.24	
O	-0.3614064484	 0.4473640297	 1.2383933206	-0.41202
C	-0.1183036014	 0.2025099853	-0.154933289	-0.087233
C	-1.2739381728	-0.6303328363	-0.7031170987	-0.325052
C	-1.3325896137	-2.0320349374	-0.1894523667	 0.199884
C	-1.2646927744	-2.606915358	 1.052099266	 0.227641
O	-1.0695279262	-2.0261754839	 2.2571426203	-0.451707
C	-1.4501773313	-4.016382182	 0.8712353173	-0.255032
C	-1.6176938205	-4.1985069204	-0.4635600321	-0.013499
O	-1.5489066708	-3.0199333583	-1.1257214839	-0.181317
H	 0.414741409	 0.8713362233	 1.6175578451	 0.299654
H	-0.0645898979	 1.1606373001	-0.6899322363	 0.102003
H	 0.8315829988	-0.3301101219	-0.2935872722	 0.109202
H	-2.2050699797	-0.0828358481	-0.4964421954	 0.124097
H	-1.1758336364	-0.6778146016	-1.7925467637	 0.126666
H	-0.8653372494	-1.0860003495	 2.0999924085	 0.298386
H	-1.4514713613	-4.7680837283	 1.6441803827	 0.110891
H	-1.7822684634	-5.0711428927	-1.0743080725	 0.127439
43.9537	155.6783	207.3119	245.136	297.481	330.4898	345.5251	449.7908	476.6675	609.1937	652.9435	665.146	691.7731	716.7241	745.1236	816.4771	862.5706	903.0882	947.8293	1039.7887	1070.6004	1078.1228	1114.2797	1152.0665	1194.9001	1244.9884	1254.4795	1310.2767	1314.6855	1362.0291	1407.6483	1445.0175	1462.8561	1514.1877	1528.6269	1553.4287	1668.9187	3001.3157	3001.8901	3048.8638	3084.3189	3258.3362	3281.4335	3586.69	3829.5015
OCCC1=C(O)C=CO1	OCCc1c(O)cco1	
InChI=1S/C6H8O3/c7-3-1-6-5(8)2-4-9-6/h2,4,7-8H,1,3H2	InChI=1S/C6H8O3/c7-3-1-6-5(8)2-4-9-6/h2,4,7-8H,1,3H2
