21
gdb 119497	4.6703	0.95495	0.90087	1.2317	83.05	-0.2037	0.0853	0.2889	1384.6246	0.181741	-387.003521	-386.994749	-386.993805	-387.037287	33.531	
C	-0.0624935073	 1.4515559916	 0.9174804185	-0.220247
O	-0.0894401072	 0.0562739337	 1.0928405018	-0.234076
C	 0.7727329042	-0.627423878	 0.2088281757	-0.173694
C	 0.6614715752	-2.1033683415	 0.4467029679	 0.338995
C	-0.6026294156	-2.7872787757	 0.8828817164	-0.355633
C	 0.6257779296	-2.8617696122	 1.7599658308	-0.097682
C	 1.7286986064	-3.8259386959	 1.2387170649	-0.04838
C	 1.3773445489	-4.5325089788	-0.0415759752	-0.301644
C	 1.7586977518	-3.0769678762	-0.0837507652	-0.123467
H	-0.3749408792	 1.7424550011	-0.0981003131	 0.104073
H	-0.7590553808	 1.8856698311	 1.6389413091	 0.126514
H	 0.9415156677	 1.8675472176	 1.0981350323	 0.103444
H	 0.5164467015	-0.3847680958	-0.8396881021	 0.084889
H	 1.8168334925	-0.2984372923	 0.3633874394	 0.083708
H	-1.3492804618	-2.093594411	 1.25474249	 0.127606
H	-1.0198920793	-3.6492181923	 0.3738413164	 0.1036
H	 0.6320614847	-2.4499844575	 2.7606889658	 0.092363
H	 2.5669829796	-4.1337148147	 1.8503461205	 0.086236
H	 2.1556358165	-5.1977395418	-0.404936654	 0.109785
H	 0.3767639116	-4.8856906181	-0.263648552	 0.111922
H	 2.6201101309	-2.7254429835	-0.6383400678	 0.081688
71.3647	82.4297	139.1591	212.367	239.1001	311.1921	353.8586	416.6717	436.4363	524.6655	665.2697	702.098	753.437	814.0335	835.5739	882.6955	912.3968	934.2407	954.2519	975.5865	994.1175	1013.7295	1035.3017	1051.0804	1065.883	1087.2086	1095.6862	1118.8287	1159.6341	1171.9643	1184.1926	1190.9926	1231.2792	1256.9808	1271.0853	1285.6525	1326.3453	1396.2074	1428.3952	1479.3695	1482.5691	1484.4553	1503.138	1509.7101	1526.9869	2922.2044	2943.2569	2969.4956	3012.2612	3113.005	3122.1939	3137.0977	3179.1881	3188.3331	3199.3901	3204.0625	3216.9557
COCC12CC1C1CC21	COC[C@]12C[C@H]1[C@H]1C[C@@H]21	
InChI=1S/C8H12O/c1-9-4-8-3-7(8)5-2-6(5)8/h5-7H,2-4H2,1H3	InChI=1S/C8H12O/c1-9-4-8-3-7(8)5-2-6(5)8/h5-7H,2-4H2,1H3/t5-,6+,7-,8-/m0/s1
