19
gdb 122245	2.76657	0.89416	0.75563	4.4008	77.92	-0.2375	0.006	0.2435	1563.8739	0.157859	-419.184048	-419.174205	-419.173261	-419.219854	34.656	
C	-0.2930925305	 1.488457526	-0.1643246519	-0.391392
C	 0.0948688857	 0.0257141502	 0.0260587371	-0.101396
N	 0.6054511896	-0.5419987666	-1.2183117074	-0.286108
C	 0.9613158367	-1.9442519178	-1.1284840701	-0.215454
C	 1.5563196686	-2.409020459	-2.4416574928	 0.232874
C	 1.2794342501	-3.7555893443	-2.9791580861	-0.209101
O	 0.6131773169	-2.6115810645	-3.5051294621	-0.252513
C	 2.7896858164	-1.7521829527	-2.8470825532	 0.279689
N	 3.7885220706	-1.2582017843	-3.1520972254	-0.330463
H	 0.5610109044	 2.0689964031	-0.523421715	 0.135601
H	-1.1028960219	 1.5888713386	-0.896148388	 0.115634
H	-0.6421620028	 1.9219123673	 0.7772343282	 0.118412
H	 0.8904051746	-0.0523250342	 0.7783652864	 0.108046
H	-0.7676535126	-0.5402410499	 0.4261458215	 0.079101
H	-0.0790909875	-0.4195422511	-1.9590194447	 0.227966
H	 1.7089282589	-2.0674961	-0.3347193249	 0.124822
H	 0.1157001675	-2.6137773951	-0.8862368966	 0.092362
H	 2.0042495662	-4.2226887601	-3.6419818367	 0.141938
H	 0.6626603292	-4.4331660256	-2.3914626383	 0.129982
46.7984	77.3833	103.2836	138.1102	184.5111	240.4443	257.83	293.8786	334.008	398.6013	470.0489	577.3384	599.5834	721.595	776.9883	815.8615	837.0919	910.0636	924.8086	970.7109	1007.7927	1047.8011	1129.9495	1139.0292	1162.7417	1166.1203	1180.7417	1236.4095	1282.8652	1311.3953	1340.1039	1381.7825	1408.1628	1429.5874	1483.953	1490.7427	1498.268	1506.3134	1520.7352	1523.8146	2362.8691	2922.6889	2936.7933	3032.5861	3038.3095	3048.5974	3095.2888	3103.3283	3124.4303	3191.622	3508.2368
CCNCC1(CO1)C#N	CCNC[C@]1(CO1)C#N	
InChI=1S/C6H10N2O/c1-2-8-4-6(3-7)5-9-6/h8H,2,4-5H2,1H3	InChI=1S/C6H10N2O/c1-2-8-4-6(3-7)5-9-6/h8H,2,4-5H2,1H3/t6-/m0/s1
