18
gdb 77398	2.16695	2.02541	1.25885	1.7161	71.3	-0.2234	0.0588	0.2822	1017.8169	0.146559	-438.987264	-438.978933	-438.977989	-439.019483	32.813	
C	-0.1860587496	 1.6260072966	-0.0551814969	-0.432292
C	-0.0670875998	 0.1098630598	-0.0107063568	-0.127076
C	 1.1530419818	-0.5844804543	-0.6801315782	 0.388407
O	 1.4733724411	-0.7001640509	-2.0158600127	-0.472648
C	 2.1225084187	-0.2750635211	 0.5296156891	-0.194123
N	 2.5363907	-1.7012293853	 0.7458015865	-0.372352
C	 1.1110138655	-1.8014829419	 0.2893421392	-0.155569
C	 0.7022216683	-0.5487611394	 1.1440829951	 0.448886
O	 0.3317525508	-0.5052020454	 2.4633092686	-0.479674
H	 0.771568731	 2.1139704036	 0.1578069296	 0.113866
H	-0.5267512244	 1.9669484253	-1.0394202605	 0.112317
H	-0.9093860735	 1.9840100882	 0.6840522889	 0.133249
H	-1.0252072555	-0.3750736934	-0.233598326	 0.07462
H	 1.5979992861	 0.1828691817	-2.380839773	 0.289384
H	 2.7900649559	 0.5719935591	 0.6916270195	 0.078489
H	 3.165525291	-2.0025534111	-0.0025621449	 0.215591
H	 0.572490244	-2.7418641696	 0.1662104227	 0.082322
H	 0.9922322187	-1.0030195018	 2.9624736899	 0.296603
178.4482	186.4916	204.73	241.0414	264.0265	281.2733	322.539	395.3126	457.3477	534.6363	580.2288	610.3954	685.4191	741.1917	741.8604	890.4029	894.8397	901.8931	949.3993	983.4984	1002.8232	1034.8028	1070.5818	1103.0745	1127.8853	1151.8669	1162.085	1164.7777	1176.8041	1273.3565	1276.9924	1291.6024	1326.2368	1362.532	1398.9302	1413.321	1473.0866	1493.7559	1508.1918	3028.3965	3037.7759	3091.4135	3101.9066	3108.6337	3115.317	3413.8772	3774.9217	3801.8382
CC1C2(O)C3NC2C13O	C[C@H]1[C@@]2(O)[C@@H]3N[C@H]2[C@]13O	
InChI=1S/C6H9NO2/c1-2-5(8)3-6(2,9)4(5)7-3/h2-4,7-9H,1H3	InChI=1S/C6H9NO2/c1-2-5(8)3-6(2,9)4(5)7-3/h2-4,7-9H,1H3/t2-,3-,4+,5+,6-
