20
gdb 9266	3.26285	1.02385	0.82637	4.3238	76.61	-0.243	0.0245	0.2675	1402.5663	0.175934	-345.194928	-345.185116	-345.184172	-345.230212	34.533	
C	 0.0815480199	 1.5495936636	 0.0305607835	-0.381782
C	 0.0006169012	 0.0217847534	 0.0300558964	-0.17759
C	-1.4344341559	-0.5273785709	-0.0009733653	 0.071373
C	-1.4419136596	-2.0503674049	-0.2149639513	-0.405683
N	-2.1361600794	-0.0880659244	 1.213701191	-0.286967
C	-3.5785818717	-0.2847421827	 1.2007496533	-0.270591
C	-4.1902600484	 0.2715453989	 2.4126206283	 0.259632
N	-4.6723145814	 0.6858000209	 3.3769892153	-0.29953
H	 1.1199420561	 1.8879735675	 0.096228575	 0.110787
H	-0.3457692595	 1.9660546389	-0.8886951116	 0.109951
H	-0.4734691391	 1.9658100381	 0.8744603322	 0.136181
H	 0.5426435289	-0.3831502584	-0.8328619344	 0.096829
H	 0.507366336	-0.3801313218	 0.9192251626	 0.092095
H	-1.961379837	-0.0551130547	-0.8430163338	 0.081044
H	-0.9026011577	-2.5565959917	 0.5946722241	 0.114702
H	-2.4574323751	-2.4570476959	-0.2491458651	 0.11472
H	-0.9519837624	-2.3144138843	-1.1576965586	 0.121444
H	-1.7340418098	-0.5394579505	 2.0301753196	 0.225314
H	-3.9950975545	 0.2438203005	 0.3340881343	 0.155511
H	-3.9130053707	-1.3336148417	 1.1149224345	 0.13256
48.445	89.1288	111.6272	125.5471	221.8417	224.5427	259.4407	277.1547	382.781	396.2631	443.2858	479.7906	554.0351	740.5966	787.6274	836.916	922.328	947.2336	978.2399	995.2908	1017.5397	1032.3523	1120.9906	1124.5891	1180.4016	1188.787	1248.6342	1298.5907	1324.8723	1352.7062	1380.4005	1399.9956	1408.8145	1410.6945	1475.8592	1487.4911	1492.1765	1495.5434	1500.655	1508.9576	1512.8838	2367.4618	2949.5892	2999.17	3013.4379	3029.2391	3036.9362	3047.9247	3056.6626	3096.968	3100.6073	3104.6674	3128.7677	3509.8356
CCC(C)NCC#N	CC[C@@H](C)NCC#N	
InChI=1S/C6H12N2/c1-3-6(2)8-5-4-7/h6,8H,3,5H2,1-2H3	InChI=1S/C6H12N2/c1-3-6(2)8-5-4-7/h6,8H,3,5H2,1-2H3/t6-/m1/s1
