14
gdb 42973	3.50493	1.41313	1.08122	4.1794	78.5	-0.2482	-0.0675	0.1807	1061.7184	0.100853	-399.524386	-399.517055	-399.516111	-399.556213	28.088	
O	-0.0108937613	-0.0025741799	 0.081013192	-0.301682
C	 0.0043728513	 1.1925296556	 0.001101642	 0.285063
N	-1.181548163	 2.0210664023	-0.0585267387	-0.120274
C	-1.4219440534	 2.7748554359	 1.1867512093	-0.238282
C	-0.7209889646	 3.4090315023	 0.0238318871	-0.072481
C	 0.7599729886	 3.3841593942	 0.00846208	-0.210434
C	 1.2012790139	 2.1104487702	-0.0322126409	 0.068746
C	 2.5286848562	 1.6321480418	-0.0135733808	 0.255412
C	 3.6501331182	 1.1946951758	-0.0070202071	-0.403272
H	-2.4629303993	 3.0151984681	 1.3819848825	 0.140837
H	-0.8249791933	 2.518241807	 2.0580212505	 0.141781
H	-1.2509369533	 4.1399388972	-0.58009423	 0.121264
H	 1.3775682717	 4.2727498727	 0.010564933	 0.131908
H	 4.6382952284	 0.8054725568	 0.0003121211	 0.201415
108.1512	137.5336	206.638	308.1003	398.3677	436.1282	522.0242	533.8925	576.7987	619.7584	646.3026	715.2121	754.167	813.9904	840.6226	867.9516	900.0251	952.5035	996.2905	1051.0392	1065.7047	1115.2672	1154.9472	1207.9801	1265.0085	1286.2153	1358.5517	1496.6909	1644.5231	1851.0228	2233.0818	3112.6787	3156.3866	3209.4418	3224.8834	3501.4389
O=C1N2CC2C=C1C#C	O=C1N2C[C@H]2C=C1C#C	
InChI=1S/C7H5NO/c1-2-5-3-6-4-8(6)7(5)9/h1,3,6H,4H2	InChI=1S/C7H5NO/c1-2-5-3-6-4-8(6)7(5)9/h1,3,6H,4H2/t6-,8?/m1/s1
