21
gdb 61807	2.29578	1.25657	1.03758	2.9454	79.32	-0.2423	0.0197	0.262	1268.3572	0.181792	-420.411344	-420.401349	-420.400405	-420.446689	36.769	
C	 0.4080771685	 0.9651967044	 0.9139818465	-0.418781
C	-0.0757204898	-0.1237916181	-0.0529309918	-0.033474
N	 0.860409833	-0.2008923918	-1.1752235411	-0.293258
C	 0.4607326879	-0.2686482248	-2.4778197975	 0.154496
O	-0.6809385686	-0.4274767043	-2.8506510018	-0.318562
C	-0.285706748	-1.480776433	 0.6414300961	 0.342988
C	-1.2299909044	-1.4464900445	 1.8276366579	-0.450672
C	-0.209921268	-2.7226480467	-0.1632625469	-0.27638
N	 0.8600835955	-2.3958866086	 0.8062581456	-0.354826
H	 1.3574105689	 0.6818082393	 1.3842247879	 0.121853
H	 0.5524940302	 1.9090335166	 0.3807388065	 0.123132
H	-0.3167043995	 1.1367737456	 1.7116832368	 0.137353
H	-1.0363996385	 0.1739120138	-0.4866791787	 0.122704
H	 1.8201284734	 0.0591773721	-1.0049967944	 0.246219
H	 1.3175927777	-0.1716330177	-3.1744935008	 0.078629
H	-2.1972531735	-1.014589449	 1.5458508193	 0.117366
H	-1.4021705323	-2.459800456	 2.1969699491	 0.128673
H	-0.8210390812	-0.8606788371	 2.6562945805	 0.120053
H	-0.8293628809	-3.5719235309	 0.1117184556	 0.113429
H	 0.0081257322	-2.64594635	-1.2226148894	 0.127207
H	 1.6577936974	-2.0386469392	 0.2833537008	 0.211852
44.785	60.1688	179.7891	190.4294	213.6076	218.4034	289.3671	300.9272	368.3768	373.1424	397.7183	495.0468	539.4274	547.8887	686.7147	785.6104	840.7383	870.3712	918.4762	922.7762	969.3919	1015.6927	1027.1577	1036.0711	1066.2266	1097.0762	1126.25	1138.8215	1167.6146	1213.4353	1263.3934	1305.2345	1327.5914	1366.5815	1390.8184	1410.6949	1422.0613	1430.8304	1485.6793	1491.734	1496.1104	1509.3583	1512.2302	1517.316	1806.9608	2932.0191	3034.0817	3036.2447	3062.0148	3100.5835	3106.7612	3120.1786	3125.0288	3136.5324	3212.4874	3477.622	3615.6786
CC(NC=O)C1(C)CN1	C[C@@H](NC=O)[C@@]1(C)CN1	
InChI=1S/C6H12N2O/c1-5(7-4-9)6(2)3-8-6/h4-5,8H,3H2,1-2H3,(H,7,9)	InChI=1S/C6H12N2O/c1-5(7-4-9)6(2)3-8-6/h4-5,8H,3H2,1-2H3,(H,7,9)/t5-,6-/m1/s1
