17
gdb 122734	4.79952	0.51703	0.47835	1.9971	88.27	-0.25	-0.0288	0.2212	2198.1176	0.132706	-421.749524	-421.739376	-421.738432	-421.786064	35.275	
O	-0.0206829094	 1.4275303577	-0.1036008284	-0.419349
C	 0.0106775291	 0.0196236294	 0.0032112486	-0.061383
C	-1.3915857428	-0.567654281	 0.0231456696	-0.060381
O	-2.0021219843	-0.1912956406	-1.2020915152	-0.258872
C	-3.3702296867	-0.5440773072	-1.2717528366	-0.231838
C	-3.9350323021	-0.1057993225	-2.5381506194	 0.309811
C	-4.4347564002	 0.2473584369	-3.581050924	-0.162741
C	-4.9900117492	 0.6475677087	-4.7568400069	 0.290836
C	-5.484266225	 1.0024397612	-5.7995724526	-0.550493
H	-0.5903226316	 1.6229057904	-0.8570245487	 0.292174
H	 0.577562396	-0.4380016922	-0.8229995632	 0.098056
H	 0.5237350764	-0.2244125047	 0.9391522047	 0.110767
H	-1.3596389969	-1.6647203156	 0.1250390611	 0.09163
H	-1.9596931647	-0.1566028579	 0.8728138102	 0.099327
H	-3.4921112098	-1.6363112017	-1.1709483235	 0.127818
H	-3.9303488755	-0.0863392182	-0.4380872441	 0.129175
H	-5.9168523433	 1.3153753076	-6.7173914315	 0.195463
40.6107	62.8281	88.368	145.0188	163.1704	204.1335	284.9783	331.0239	348.2211	422.6091	456.2939	533.1715	536.5751	566.3708	590.8964	614.8443	757.488	874.9205	910.8379	1020.8253	1044.8455	1083.8162	1134.8607	1137.4601	1184.9763	1237.9216	1245.9092	1265.4646	1373.739	1388.5385	1430.4394	1443.5483	1489.4912	1498.2561	1513.6638	2185.6931	2370.1466	2951.7783	2969.4382	2971.7719	2981.9639	3012.401	3081.0474	3504.3333	3796.4104
OCCOCC#CC#C	OCCOCC#CC#C	
InChI=1S/C7H8O2/c1-2-3-4-6-9-7-5-8/h1,8H,5-7H2	InChI=1S/C7H8O2/c1-2-3-4-6-9-7-5-8/h1,8H,5-7H2
