16
gdb 123355	6.8657	0.76086	0.72395	4.1307	77.08	-0.2601	-0.0059	0.2543	1508.7341	0.124635	-396.893537	-396.885174	-396.884229	-396.928281	29.771	
C	-0.0024846562	-1.2037053366	-0.0211117582	-0.431433
C	-0.0155800172	-0.0074591202	 0.0907003454	 0.290297
C	 0.0149595006	 1.4427774964	 0.2147836807	-0.346842
C	 1.3964631006	 2.0158518981	-0.1677999075	-0.160392
N	 1.437205245	 3.4607956522	-0.0323223604	 0.083059
C	 1.8547685315	 4.2168443368	 1.0119511761	-0.107493
C	 1.6008138874	 5.5076474685	 0.6168179386	-0.065759
N	 1.0465740206	 5.4803700957	-0.6262680564	-0.186053
N	 0.9450745093	 4.2419670502	-1.0167370885	-0.152498
H	-0.0103905323	-2.2612099465	-0.1182784259	 0.203688
H	-0.7411179819	 1.9005052005	-0.4328168035	 0.164153
H	-0.2273709913	 1.7400660717	 1.2423314203	 0.140398
H	 2.1768810376	 1.5880102974	 0.4650746812	 0.137846
H	 1.6254474266	 1.7749329307	-1.2072782312	 0.158074
H	 2.2852254917	 3.7882785378	 1.9014221758	 0.145283
H	 1.7868545581	 6.4335260573	 1.1361422434	 0.127673
29.0658	63.4107	89.9349	173.5879	326.8947	357.7773	373.9797	468.9141	630.4471	656.287	660.9636	717.8778	761.6293	772.3807	785.0468	859.1536	960.3241	974.384	1027.12	1029.2111	1047.4956	1090.2023	1141.9191	1156.443	1261.7627	1294.5763	1303.536	1322.4906	1358.6926	1392.3621	1472.1488	1485.0876	1498.6232	1522.7827	2242.8997	3035.0807	3074.9089	3084.6397	3140.636	3268.9636	3289.4853	3505.514
C#CCCN1C=CN=N1	C#CCCn1ccnn1	
InChI=1S/C6H7N3/c1-2-3-5-9-6-4-7-8-9/h1,4,6H,3,5H2	InChI=1S/C6H7N3/c1-2-3-5-9-6-4-7-8-9/h1,4,6H,3,5H2
