22
gdb 22173	2.1512	1.45378	1.08683	0.707	84.89	-0.2374	0.0141	0.2516	1230.8427	0.193356	-404.338529	-404.328891	-404.327947	-404.372525	37.2	
C	 0.0881473358	 1.5245626357	-0.0259479422	-0.415698
C	-0.0318653877	-0.0150259607	 0.0154247741	 0.214747
C	-1.5100757724	-0.4167314056	 0.0839533335	-0.429725
C	 0.7110193011	-0.6572888194	-1.1862693822	-0.234501
C	 2.1855696674	-0.7522985588	-0.7508061206	-0.232027
C	 2.1109614846	-1.105274393	 0.7479701762	-0.298616
C	 0.7773498609	-0.5500120928	 1.1969426033	 0.38917
N	 0.3120650201	-0.5070678314	 2.3795600437	-0.239056
O	 1.2265273323	-1.0426452166	 3.3096149029	-0.396088
H	 1.1303546856	 1.8528325945	-0.0893325351	 0.11232
H	-0.4450543073	 1.9248250812	-0.895468242	 0.109638
H	-0.3439345107	 1.9631799964	 0.8779201092	 0.127012
H	-2.0499710024	-0.0503891202	-0.7962654825	 0.104576
H	-1.6208320082	-1.5048511771	 0.1235957811	 0.10988
H	-1.9836955505	-0.0006893505	 0.977064531	 0.129255
H	 0.3133233592	-1.6649496658	-1.359632039	 0.095474
H	 0.5708962653	-0.0895400572	-2.1110343796	 0.094145
H	 2.7503717824	-1.4862163984	-1.3312526868	 0.098658
H	 2.684585742	 0.2133719069	-0.8862926617	 0.105594
H	 2.1135101061	-2.1910519162	 0.9089194851	 0.125899
H	 2.9354422858	-0.7097845742	 1.3476056165	 0.126126
H	 0.7467249606	-0.9503155169	 4.139335655	 0.303217
62.1342	163.726	197.882	206.1401	224.7165	259.6498	312.4978	332.2542	340.4632	376.3024	440.9685	528.7617	550.7343	567.7924	611.1079	741.5432	820.2295	841.721	902.1482	929.4487	944.7742	956.0801	976.365	1001.8672	1024.2992	1064.9282	1096.2071	1127.6034	1196.6067	1226.3006	1232.2703	1247.2137	1284.8531	1307.1617	1341.4141	1343.9485	1393.2994	1397.041	1421.0892	1463.7385	1478.6474	1484.903	1495.3013	1500.1332	1504.8325	1512.3028	1748.1384	3027.7452	3028.4293	3033.0285	3034.9091	3046.5907	3084.6697	3088.0337	3096.1424	3100.0619	3100.9769	3112.644	3118.3611	3820.4715
CC1(C)CCCC1=NO	CC1(C)CCCC1=NO	
InChI=1S/C7H13NO/c1-7(2)5-3-4-6(7)8-9/h9H,3-5H2,1-2H3	InChI=1S/C7H13NO/c1-7(2)5-3-4-6(7)8-9/h9H,3-5H2,1-2H3
