19
gdb 12970	2.2995	2.23749	1.76698	1.7354	71.6	-0.2248	0.061	0.2859	893.9892	0.164498	-365.01995	-365.011444	-365.0105	-365.052206	32.175	
C	-0.0946288491	 1.5584160566	-0.0610255992	-0.43054
C	 0.0543865003	 0.0626045162	 0.1156431393	-0.019083
N	 1.2479604223	-0.727454809	-0.2692686598	-0.191965
C	 2.4476517507	 0.0957203973	 0.1124166913	-0.205266
C	 2.055677973	 0.0552830014	 1.6138727203	 0.040644
O	 1.8693605808	 1.2472940702	 2.3519693356	-0.42998
C	 0.7737645751	-0.655097891	 1.1953660913	 0.32338
C	 0.1974587073	-1.8264647706	 1.9366915098	-0.498906
H	 0.6766714557	 2.1274965476	 0.4555554013	 0.142844
H	-0.0868506575	 1.819831682	-1.1256167345	 0.117241
H	-1.0603008566	 1.8725528179	 0.3486316374	 0.119512
H	-0.8316682153	-0.4819292354	-0.2099832436	 0.089317
H	 3.3631849657	-0.4511828645	-0.1236467158	 0.103004
H	 2.4907346696	 1.0844219215	-0.352730789	 0.104445
H	 2.7077236286	-0.6366218521	 2.1634596697	 0.077792
H	 2.7297070419	 1.5504966647	 2.6591391832	 0.284929
H	-0.2953535651	-1.4915866578	 2.8571500716	 0.127498
H	-0.5448781489	-2.3492642515	 1.327021004	 0.127545
H	 0.9753854614	-2.5464955234	 2.2139134871	 0.11759
145.1311	159.1738	185.234	221.5546	240.2117	270.7954	317.7655	337.3207	421.4009	512.9917	579.3962	638.0552	712.4182	736.0011	832.5755	866.8931	949.2345	957.3001	1016.0715	1065.4002	1079.5496	1100.4363	1116.9361	1140.5761	1154.7375	1197.4365	1213.1399	1257.9436	1285.3594	1331.988	1345.4816	1409.6301	1411.0924	1431.5438	1465.4712	1483.7856	1490.6522	1492.7533	1506.0037	1512.3107	3009.366	3026.9589	3035.6639	3058.2885	3087.3094	3092.5966	3106.152	3111.6528	3112.873	3159.52	3814.2325
CC1N2CC(O)C12C	C[C@H]1N2C[C@@H](O)[C@@]12C	
InChI=1S/C6H11NO/c1-4-6(2)5(8)3-7(4)6/h4-5,8H,3H2,1-2H3	InChI=1S/C6H11NO/c1-4-6(2)5(8)3-7(4)6/h4-5,8H,3H2,1-2H3/t4-,5-,6-,7?/m1/s1
