12
gdb 24993	4.99712	1.35823	1.08894	3.8364	56.63	-0.2022	-0.0076	0.1947	992.822	0.079069	-509.756493	-509.749986	-509.749042	-509.787441	24.599	
O	 0.0341087205	 0.0543547809	 0.2170543573	-0.347507
C	-0.0349934867	 1.2400208557	 0.1263240163	 0.460406
N	-1.1642234861	 2.067260717	 0.109341386	-0.434881
C	-0.7510165368	 3.3378620318	-0.2840244876	 0.180839
C	 0.5827164025	 3.3054952417	-0.317893559	 0.300585
O	 1.1479533968	 4.491658664	 0.015527437	-0.243885
C	 0.0001337686	 5.3681747718	-0.1273344342	 0.011572
O	-1.1778780704	 4.5866430734	 0.1314055829	-0.253397
O	 1.0915635639	 2.0747605406	-0.0771519189	-0.232384
H	-2.0498269179	 1.6348389234	-0.1059321307	 0.284043
H	 0.0732920773	 6.1835018921	 0.5906740208	 0.151986
H	-0.0269884118	 5.7222160874	-1.16769459	 0.122624
137.3278	248.7793	273.5121	342.289	367.1922	483.9399	539.6243	581.2921	624.6329	740.262	755.0107	760.3568	850.002	895.2274	915.0391	1050.4615	1062.2639	1132.6287	1184.4612	1254.207	1308.8063	1379.0418	1408.8462	1467.9401	1515.5428	1715.827	1922.2517	3005.9821	3154.0233	3630.6109
O=C1NC2=C(OCO2)O1	O=C1N[C]2[C](OCO2)O1	
InChI=1S/C4H3NO4/c6-4-5-2-3(9-4)8-1-7-2/h1H2,(H,5,6)	InChI=1S/C4H3NO4/c6-4-5-2-3(9-4)8-1-7-2/h1H2,(H,5,6)
