22
gdb 93500	2.61947	1.32693	0.94026	3.1963	83.42	-0.2174	-0.0124	0.2049	1292.2948	0.194482	-404.372971	-404.363797	-404.362853	-404.406693	35.192	
C	-0.0608929705	 1.5783305046	-0.0382442731	-0.418046
C	-0.016744842	 0.0479041297	 0.0053519994	 0.085438
C	 0.6811174563	-0.4854124014	-1.2552003825	-0.202596
C	 0.747250992	-2.0182504851	-1.288409545	-0.319253
C	 1.2725547171	-2.5747494974	 0.0188230306	 0.389094
O	 2.0450140753	-3.500890441	 0.0884277149	-0.304239
C	 0.6986938906	-1.9110977004	 1.2654083127	-0.240906
N	 0.6956251659	-0.449827491	 1.1917536553	-0.077416
C	 0.213898486	 0.0996109311	 2.4518155151	-0.322832
H	 0.9464800932	 1.9937551625	 0.070292897	 0.126659
H	-0.464572106	 1.9059637367	-1.0007105827	 0.116181
H	-0.6959995271	 2.0024465078	 0.7425856281	 0.119671
H	-1.0640678701	-0.3256291337	 0.0063715967	 0.046742
H	 0.1544482358	-0.1191766615	-2.1425062818	 0.099618
H	 1.6960094674	-0.0714530502	-1.285231876	 0.112342
H	-0.2689544339	-2.4205264286	-1.4158456898	 0.119725
H	 1.3558081794	-2.3981923065	-2.1124515968	 0.120533
H	-0.3274351832	-2.3193495068	 1.4075078478	 0.08809
H	 1.2960334868	-2.2341296911	 2.121333341	 0.123491
H	 0.7836067024	-0.3424276146	 3.2745683486	 0.12234
H	 0.3644629054	 1.1797635014	 2.4903106693	 0.124578
H	-0.8581228307	-0.1097925946	 2.6350222914	 0.090785
75.3283	116.9058	191.7254	217.0921	239.1233	295.0248	348.6355	380.5128	387.0807	430.952	478.1588	492.8575	530.7227	667.7821	744.9715	798.248	846.7913	881.8073	939.0674	991.7927	1028.3015	1037.2609	1078.9184	1100.8795	1119.9095	1153.6754	1159.8178	1201.3161	1219.9705	1256.9127	1271.3001	1288.4379	1327.8187	1350.5519	1369.0925	1382.5497	1397.6576	1408.3688	1456.0003	1462.9435	1478.1731	1483.355	1490.5603	1498.6335	1504.9232	1515.8769	1826.362	2852.4578	2861.2521	2921.729	3008.4871	3035.1543	3043.0497	3076.2854	3081.4071	3096.1061	3105.1551	3112.0804	3120.1675	3130.4242
CC1CCC(=O)CN1C	C[C@H]1CCC(=O)CN1C	
InChI=1S/C7H13NO/c1-6-3-4-7(9)5-8(6)2/h6H,3-5H2,1-2H3	InChI=1S/C7H13NO/c1-6-3-4-7(9)5-8(6)2/h6H,3-5H2,1-2H3/t6-/m0/s1
