20
gdb 87911	3.73267	1.09314	0.99056	3.2083	81.46	-0.2411	0.0318	0.2729	1276.4755	0.171372	-403.166337	-403.157749	-403.156805	-403.19961	33.043	
C	 0.2763770511	 1.5711523673	-0.4553862087	-0.410861
C	 0.0912166449	 0.1072224579	-0.1231097273	-0.07502
C	 1.2825661706	-0.8148138638	 0.1061335026	-0.355952
C	 0.3707926814	-0.4333559506	 1.240064454	 0.438466
C	 0.8065925737	 0.3604934233	 2.4607917395	-0.304614
C	 0.7097015633	-0.7016515248	 3.5673953661	-0.302514
C	-0.3633162767	-1.6377124945	 3.0530131817	 0.403413
N	-1.0173826886	-2.4688933463	 3.7415768363	-0.543518
O	-0.5236177832	-1.4437826093	 1.7072701009	-0.269823
H	 1.1327494468	 1.9997032345	 0.0747173141	 0.115997
H	 0.4522999343	 1.7070592239	-1.5277165915	 0.123774
H	-0.6091730094	 2.1567397849	-0.1853237684	 0.123636
H	-0.7520873371	-0.3697838941	-0.6156702819	 0.102134
H	 1.2154829923	-1.8295242855	-0.2694551828	 0.123984
H	 2.2781161116	-0.3811626555	 0.0853587238	 0.111497
H	 1.8053680873	 0.7861366633	 2.3531040953	 0.113107
H	 0.1058390346	 1.1808436792	 2.6528357036	 0.117056
H	 1.6470769246	-1.261385818	 3.6612468419	 0.134182
H	 0.4545940301	-0.3138998566	 4.5535409637	 0.135485
H	-1.6685308815	-2.9889483254	 3.150646567	 0.219571
79.2625	124.8785	167.3267	193.5688	230.0972	319.9931	411.9886	455.8145	478.6198	513.7711	548.1956	648.8031	747.3422	816.4406	822.2649	875.6916	892.5978	908.9711	926.5264	946.8135	991.589	1014.3877	1026.2831	1060.7215	1085.9554	1114.6443	1126.8602	1170.8637	1187.0859	1189.7734	1226.9422	1290.2782	1310.2426	1346.5203	1355.4021	1410.2773	1424.9457	1471.1692	1486.9446	1491.2111	1499.5036	1508.0045	1780.6135	3031.2375	3045.7349	3055.3708	3094.2134	3100.4373	3116.9808	3125.6709	3136.1567	3147.81	3220.37	3470.3521
CC1CC11CCC(=N)O1	C[C@H]1C[C@]21CC[C]([NH])O2	
InChI=1S/C7H11NO/c1-5-4-7(5)3-2-6(8)9-7/h5,8H,2-4H2,1H3	InChI=1S/C7H11NO/c1-5-4-7(5)3-2-6(8)9-7/h5,8H,2-4H2,1H3/t5-,7-/m0/s1
