20
gdb 116816	3.69095	0.56308	0.51164	1.006	81.59	-0.2501	-0.0355	0.2146	2139.1066	0.167575	-440.285191	-440.274545	-440.273601	-440.323302	36.027	
C	 0.7527456846	 1.3590205449	-0.824272146	-0.397074
C	-0.0735887118	 0.1019683914	-0.5333527826	-0.111286
N	 0.5720659625	-1.1978955797	-0.6095855677	-0.223719
C	 1.789920185	-1.2973445769	-0.8915380149	 0.120651
O	 2.3780870974	-2.5208627491	-0.9174185921	-0.198353
C	 3.7126332819	-2.5721879492	-1.4009762977	-0.099929
C	 3.7519408294	-2.7503485495	-2.9268658158	-0.273695
C	 5.1494851025	-3.065269558	-3.4120263764	 0.150054
O	 5.7883647011	-2.3737357549	-4.1613954425	-0.227165
H	 1.5854194117	 1.4741981445	-0.1219454919	 0.119509
H	 1.1617155798	 1.3537019708	-1.8404693486	 0.119389
H	 0.116238355	 2.2437639673	-0.7292202411	 0.118093
H	-0.510461895	 0.1810580775	 0.4710179563	 0.115445
H	-0.9331034398	 0.0688626653	-1.2158676341	 0.115051
H	 2.4817351051	-0.4743568666	-1.1138488074	 0.079747
H	 4.2655511247	-1.6704226236	-1.1057003082	 0.121083
H	 4.1778353365	-3.4283405806	-0.9031144443	 0.126911
H	 3.0970899759	-3.5943264347	-3.1800959802	 0.138959
H	 3.3887061984	-1.8553046935	-3.4388224899	 0.127415
H	 5.572872615	-4.0148622053	-3.0082002648	 0.078914
31.844	51.8056	62.5655	76.4912	166.4482	178.5052	232.8005	263.5005	319.6612	355.749	357.5067	502.4972	536.0813	594.6881	780.3932	788.8371	861.8883	896.015	975.7442	980.8289	1038.7141	1078.3509	1089.2912	1097.8614	1142.0858	1147.9023	1195.0184	1255.0825	1285.8182	1315.2455	1338.5637	1378.58	1396.1169	1408.996	1426.2444	1431.4779	1467.6828	1484.1242	1496.2899	1505.4062	1507.5605	1782.0899	1837.1808	2859.1353	3015.3134	3017.6846	3028.4523	3036.0065	3037.1044	3037.3955	3084.0548	3099.8342	3108.4319	3113.7714
CCN=COCCC=O	CCN=COCCC=O	
InChI=1S/C6H11NO2/c1-2-7-6-9-5-3-4-8/h4,6H,2-3,5H2,1H3	InChI=1S/C6H11NO2/c1-2-7-6-9-5-3-4-8/h4,6H,2-3,5H2,1H3
