16
gdb 85713	1.96482	1.6897	1.15638	2.514	74.31	-0.2747	0.0014	0.2762	1099.556	0.122272	-400.70785	-400.69888	-400.697936	-400.742526	32.211	
C	 0.4590976056	 1.4456997625	-0.295208613	-0.405914
C	 0.0470659699	 0.0364585165	 0.0698591933	 0.148044
O	 0.6652562717	-0.962464859	-0.7755939035	-0.28324
C	 1.3297581901	-1.6114695891	 0.329470681	-0.066168
C	 2.7760437057	-1.6133431712	 0.226876368	 0.359157
C	 3.974974074	-1.6199769454	 0.1532350701	-0.440913
C	 0.6670467738	-0.6160779455	 1.3475376723	-0.27199
C	 1.5329378133	 0.1975721876	 2.1780644544	 0.311064
N	 2.2097909949	 0.8566588505	 2.8439942627	-0.329292
H	 1.5438954417	 1.5668909744	-0.2412416659	 0.146967
H	 0.1338315473	 1.6648441922	-1.3164330752	 0.134927
H	-0.0082427892	 2.1698697106	 0.3799180039	 0.131472
H	-1.0443253626	-0.0676138121	 0.0473463169	 0.095178
H	 0.9610742934	-2.6362797786	 0.4590682557	 0.119467
H	 5.0356329257	-1.6191866592	 0.0904765328	 0.213238
H	-0.0734514151	-1.1102788344	 1.9787868965	 0.138002
25.4511	102.2529	146.8807	191.5413	232.4581	248.9675	335.2929	414.8862	436.2661	500.5214	560.7451	630.0056	647.369	688.0103	760.9753	803.884	857.1543	903.7147	985.5101	1004.3067	1061.5589	1092.9451	1109.0237	1155.3744	1192.3875	1254.0105	1302.2317	1338.0013	1355.5782	1393.626	1414.8465	1480.3246	1490.3364	2240.7434	2359.3678	3028.2376	3032.6375	3043.9223	3101.0987	3116.9599	3131.436	3500.2134
CC1OC(C#C)C1C#N	C[C@H]1O[C@@H](C#C)[C@H]1C#N	
InChI=1S/C7H7NO/c1-3-7-6(4-8)5(2)9-7/h1,5-7H,2H3	InChI=1S/C7H7NO/c1-3-7-6(4-8)5(2)9-7/h1,5-7H,2H3/t5-,6+,7+/m1/s1
