18
gdb 44455	4.0855	1.40927	1.27666	2.834	77.44	-0.2585	0.0211	0.2796	1018.1567	0.150321	-401.893934	-401.887356	-401.886411	-401.924759	27.831	
N	 0.0468560135	 1.2318653799	 0.4217645596	-0.524876
C	-0.0150240456	 0.0308523423	 0.0530917637	 0.385847
C	-1.3073680596	-0.8246419482	 0.0204045811	-0.382389
C	-0.7189653692	-2.2360023414	-0.0110171936	-0.004009
C	-0.5888761762	-3.343344438	-1.1218051467	-0.105687
C	-0.1324453686	-2.2542988124	-2.121701459	-0.282814
C	 0.5736795474	-1.9583475299	-0.7645314363	 0.418406
C	 0.9322256388	-3.4583282233	-0.6713752136	-0.295267
O	 1.0877937879	-0.707343992	-0.3850821216	-0.296174
H	 0.9990194994	 1.5914549994	 0.3384622939	 0.227711
H	-1.9153577792	-0.603624738	 0.897821772	 0.13591
H	-1.8910615059	-0.544513614	-0.8604036072	 0.138018
H	-0.5722145228	-2.6218204836	 1.002075696	 0.08103
H	-1.2513479881	-4.1828520174	-1.3205622538	 0.091327
H	 0.5084582439	-2.583134731	-2.9422029817	 0.099039
H	-0.884435083	-1.544606891	-2.4670514595	 0.102832
H	 1.1153306969	-3.8595133367	 0.3275238577	 0.107323
H	 1.6196353904	-3.866409955	-1.4156767013	 0.103771
101.6417	317.676	330.9446	415.3757	480.7296	515.0995	535.3801	566.5409	657.7929	728.6647	751.014	790.7574	825.8906	887.3269	898.5626	904.7502	952.2175	963.8323	979.6435	993.3097	1041.4245	1058.2623	1076.2098	1112.9306	1119.9167	1154.5435	1165.3284	1178.2879	1194.2686	1221.7251	1226.8465	1246.7783	1258.2828	1314.193	1402.9829	1469.8409	1501.4885	1543.2643	1782.6213	3059.6297	3064.8395	3074.0222	3082.2568	3134.595	3138.2872	3141.7445	3143.4679	3477.976
N=C1CC2C3CC2(C3)O1	[NH][C]1C[C@H]2[C@H]3C[C@@]2(C3)O1	
InChI=1S/C7H9NO/c8-6-1-5-4-2-7(5,3-4)9-6/h4-5,8H,1-3H2	InChI=1S/C7H9NO/c8-6-1-5-4-2-7(5,3-4)9-6/h4-5,8H,1-3H2/t4-,5-,7-/m0/s1
