19
gdb 31246	2.42087	1.33442	0.91538	2.5143	80.17	-0.1863	0.0335	0.2198	1313.0785	0.159817	-419.245577	-419.236175	-419.23523	-419.280798	33.468	
C	 0.1221188507	 1.5428492774	 0.4309074003	-0.365875
C	 0.0024742222	 0.1069596733	-0.1128512818	-0.307457
C	-1.3888611711	-0.4300859577	-0.1277162544	 0.188719
C	-2.2519951141	-0.733167332	-1.1571692438	 0.307053
O	-1.9560026129	-0.5912496901	-2.4684893379	-0.278536
C	-2.9717281462	-0.9909533991	-3.3788784013	-0.232755
N	-3.4533455701	-1.1972987917	-0.7025864462	-0.347246
C	-3.3463074286	-1.1838727569	 0.6117311572	-0.000339
N	-2.1305302282	-0.7312624699	 1.0080674417	-0.30329
H	 1.1620481289	 1.8838402062	 0.4070615632	 0.113265
H	-0.4809276513	 2.2346167441	-0.1643348093	 0.128124
H	-0.2248616837	 1.609527284	 1.4680526623	 0.103409
H	 0.3690850497	 0.075309673	-1.1433772239	 0.130225
H	 0.6630985514	-0.5539338626	 0.4664838255	 0.10036
H	-3.2187592842	-2.0516270287	-3.2611991085	 0.126728
H	-3.8874775134	-0.4074571257	-3.236295506	 0.128088
H	-2.566149558	-0.8112186203	-4.3762895459	 0.119554
H	-4.1103460353	-1.4900766279	 1.309720477	 0.127791
H	-1.8113600159	-0.6384213356	 1.9576698918	 0.262181
43.3612	62.1577	143.4155	172.3388	173.7008	240.2331	298.8371	314.7259	399.1489	492.8297	547.7842	612.0724	675.4148	732.4295	745.1538	768.7198	783.1057	953.2531	964.919	1035.0768	1072.1745	1083.6018	1128.7272	1181.2057	1183.9073	1207.9593	1248.8937	1289.9419	1334.0273	1358.2832	1389.7533	1409.4937	1459.7205	1478.7674	1480.0384	1494.6213	1498.4007	1503.5458	1505.7654	1527.4094	1653.3962	3002.2301	3027.7646	3032.0803	3079.9433	3091.3656	3101.5164	3115.1026	3133.9411	3254.4161	3664.8478
CCC1=C(OC)N=CN1	CCc1c(OC)nc[nH]1	
InChI=1S/C6H10N2O/c1-3-5-6(9-2)8-4-7-5/h4H,3H2,1-2H3,(H,7,8)	InChI=1S/C6H10N2O/c1-3-5-6(9-2)8-4-7-5/h4H,3H2,1-2H3,(H,7,8)
