16
gdb 67531	2.44276	1.86912	1.54342	4.362	67.88	-0.2413	0.0201	0.2614	921.9993	0.123909	-437.852753	-437.845253	-437.844309	-437.884439	29.109	
C	-0.0237081513	 1.5754163937	 0.0071679457	-0.499625
C	 0.0105925605	 0.0680337042	 0.0420304132	 0.130004
C	-1.3143356304	-0.6870464427	 0.375313678	-0.01665
O	-1.0974104701	-2.0903898525	 0.2160951814	-0.223686
C	-0.6688131405	-1.4796940533	 1.431835261	-0.002696
C	 0.707997501	-0.7842048818	 1.1556674552	-0.079748
N	 1.5594099702	-1.3577835344	 0.1207328592	-0.317232
C	 0.9209631558	-0.7261540591	-0.9407180025	 0.393875
O	 1.0634207332	-0.7937677606	-2.1285391275	-0.355367
H	 0.9859093226	 1.9954519701	 0.0410880587	 0.134769
H	-0.4986884283	 1.9198253355	-0.9176634968	 0.143554
H	-0.5916732745	 1.9832187558	 0.8505795168	 0.121258
H	-2.3284818557	-0.3190726344	 0.269075217	 0.112799
H	-1.0501397932	-1.8852898842	 2.3619286811	 0.113479
H	 1.2110259958	-0.3319291058	 2.0105468664	 0.09447
H	 2.033889775	-2.2504112404	 0.1035417031	 0.250797
137.3509	193.7546	211.8092	247.3765	267.4185	366.015	469.1139	514.5379	598.7848	693.1534	708.0398	745.7117	794.8051	827.3142	850.0804	871.8577	908.4055	923.1566	1002.266	1020.1655	1052.7468	1084.9349	1127.5917	1176.7409	1190.8961	1216.0413	1243.7662	1289.0184	1323.545	1347.5658	1381.725	1412.5523	1490.9043	1491.761	1897.399	3031.5348	3097.2719	3109.0384	3114.1002	3177.0382	3192.3739	3590.2178
CC12C3OC3C1NC2=O	C[C@]12[C@H]3O[C@H]3[C@H]1NC2=O	
InChI=1S/C6H7NO2/c1-6-3(7-5(6)8)2-4(6)9-2/h2-4H,1H3,(H,7,8)	InChI=1S/C6H7NO2/c1-6-3(7-5(6)8)2-4(6)9-2/h2-4H,1H3,(H,7,8)/t2-,3+,4-,6+/m0/s1
