16
gdb 94491	3.72671	0.80547	0.71395	5.2899	83.58	-0.2755	-0.0549	0.2206	1540.1617	0.123584	-400.714488	-400.70556	-400.704616	-400.749524	31.152	
C	-0.3682479182	 1.4875375383	-0.1070951778	-0.418095
C	 0.0278689922	 0.0216215427	-0.102787633	-0.037404
C	 1.4163840955	-0.3619432161	-0.6592006263	-0.0772
O	 1.78934917	-1.0182311419	 0.5756032793	-0.270367
C	 0.559113409	-0.6280206853	 1.2213413257	-0.099154
C	 0.7720642277	 0.2482610132	 2.3622274255	 0.184188
C	 0.9439863579	 0.9711471573	 3.315841306	-0.002183
C	 1.1366126881	 1.7905247439	 4.3904488987	 0.211837
N	 1.2966431082	 2.4903199306	 5.3039141963	-0.332699
H	 0.4182313711	 2.1163492716	 0.3205893648	 0.135343
H	-0.5530556522	 1.8256505685	-1.1319445454	 0.126754
H	-1.2835271188	 1.6543449986	 0.4693165046	 0.131716
H	-0.7715406677	-0.5914173566	-0.5251084315	 0.098789
H	 1.4315438488	-1.0558356334	-1.5060616499	 0.114312
H	 2.0727294374	 0.489844427	-0.8774382177	 0.112975
H	-0.0101720789	-1.5063898086	 1.5523758605	 0.12119
39.7409	70.9137	108.8854	191.7671	218.8933	254.1532	322.6749	381.8816	446.2274	530.9003	572.694	597.9786	709.1909	763.5788	876.8072	898.1533	926.1914	983.4468	1017.7204	1057.9862	1132.2779	1150.8196	1176.1149	1183.6286	1236.4722	1274.6104	1342.2312	1350.8663	1382.5515	1417.7281	1492.8634	1494.2469	1526.7475	2260.1887	2395.2799	3017.753	3023.7331	3038.6397	3070.1613	3086.4063	3106.6539	3117.2352
CC1COC1C#CC#N	C[C@H]1CO[C@H]1C#CC#N	
InChI=1S/C7H7NO/c1-6-5-9-7(6)3-2-4-8/h6-7H,5H2,1H3	InChI=1S/C7H7NO/c1-6-5-9-7(6)3-2-4-8/h6-7H,5H2,1H3/t6-,7-/m0/s1
