18
gdb 73090	2.55829	1.77649	1.37903	0.8357	71.21	-0.2452	0.0128	0.2579	983.569	0.148882	-439.079742	-439.072018	-439.071073	-439.111857	29.731	
C	-0.4203638822	 1.4575456847	 0.3722246371	-0.463129
C	 0.1068856694	 0.0904303796	-0.0063814372	 0.387961
C	-0.9618668582	-0.8183808422	-0.6309539346	-0.135078
O	-1.6507291747	-1.5977329938	 0.3631719572	-0.22276
C	-0.8444485502	-2.2261228777	 1.2531467122	 0.122187
N	 0.3444186249	-1.9404021239	 1.5827061441	-0.273325
C	 0.9043687564	-0.723860707	 1.0427330573	-0.059546
C	 1.9847971925	-0.8078511218	-0.0582916199	-0.093335
O	 1.274461147	 0.1631843982	-0.8653769895	-0.331495
H	 0.3449623373	 2.0434401244	 0.8881270099	 0.123909
H	-0.729101798	 2.0073365234	-0.5236675051	 0.128134
H	-1.2911503272	 1.3589515081	 1.0298731843	 0.129347
H	-1.7373300965	-0.2570790627	-1.1563022634	 0.120199
H	-0.4786471116	-1.5023464157	-1.3374935982	 0.123975
H	-1.3632274832	-3.0685450736	 1.7074576857	 0.127072
H	 1.2318211066	-0.1015044948	 1.8808777527	 0.098466
H	 2.9934020094	-0.4680535454	 0.1957751556	 0.111936
H	 2.0399784484	-1.7910168198	-0.5420240581	 0.105482
108.8786	143.0059	215.5718	255.5808	317.529	365.2026	400.5316	486.3437	522.4808	560.6905	653.9009	752.0056	856.7996	887.2908	921.3271	946.6545	966.2735	980.3783	994.3826	1008.763	1069.9634	1092.1271	1136.7709	1161.8252	1181.8937	1207.7223	1237.0789	1269.6714	1309.0036	1329.2942	1359.5408	1398.8598	1404.2347	1410.935	1480.5181	1489.4389	1501.8098	1518.8447	1715.8963	3022.4735	3031.1077	3045.2173	3058.1563	3085.576	3101.0124	3113.7066	3117.3567	3157.8779
CC12COC=NC1CO2	C[C@]12COC=N[C@H]1CO2	
InChI=1S/C6H9NO2/c1-6-3-8-4-7-5(6)2-9-6/h4-5H,2-3H2,1H3	InChI=1S/C6H9NO2/c1-6-3-8-4-7-5(6)2-9-6/h4-5H,2-3H2,1H3/t5-,6-/m0/s1
