15
gdb 43849	3.1206	1.33309	1.03807	4.8142	65.88	-0.2392	-0.0958	0.1434	1108.7219	0.110831	-457.774193	-457.766439	-457.765495	-457.80706	28.948	
O	 0.0027904905	-0.0119580461	 0.2349986874	-0.270631
C	-0.0447531512	 1.1830626852	 0.1535562129	 0.31768
C	-1.2760367142	 2.0752883015	 0.0342986509	-0.412659
C	-0.7731356527	 3.4737683388	 0.3756277565	 0.392069
C	-1.6423236368	 4.6418713534	 0.5148543148	-0.246108
O	-1.1290495094	 3.968269134	 1.6704489842	-0.261436
C	 0.7063451486	 3.5526634414	 0.0149748347	-0.412666
C	 1.2109172317	 2.1188571181	 0.1413924366	 0.317683
O	 2.3434525645	 1.7324001479	 0.2120104027	-0.270639
H	-1.6327489662	 2.0248968609	-1.0036333665	 0.146146
H	-2.0880340803	 1.7482457468	 0.6864811022	 0.156975
H	-1.239801607	 5.6385986271	 0.3377843568	 0.12023
H	-2.7146480543	 4.5394473046	 0.352152007	 0.12023
H	 0.84358168	 3.8703274608	-1.0277835664	 0.146152
H	 1.2599256966	 4.2433443956	 0.6538333861	 0.156972
72.7576	72.981	278.702	312.6379	347.9738	358.794	364.6024	489.7519	521.7612	567.9762	636.5179	698.3432	762.6837	823.0062	894.973	898.9123	934.9523	979.8099	1038.025	1123.7375	1129.2189	1144.8133	1163.11	1201.619	1237.2385	1249.7519	1257.3633	1419.8187	1420.1352	1442.9585	1534.5078	1847.5134	1869.5746	3027.6577	3031.0299	3080.684	3122.9047	3123.0489	3167.3432
O=C1CC2(CO2)CC1=O	O=C1CC2(CO2)CC1=O	
InChI=1S/C6H6O3/c7-4-1-6(3-9-6)2-5(4)8/h1-3H2	InChI=1S/C6H6O3/c7-4-1-6(3-9-6)2-5(4)8/h1-3H2
