23
gdb 108701	2.84445	1.21357	0.92591	0.2296	94.73	-0.2115	0.0284	0.2399	1364.7023	0.207045	-351.152919	-351.144008	-351.143064	-351.186756	34.449	
C	 0.1354102296	 1.4992527888	 0.2587494483	-0.368238
C	-0.0762724949	 0.038359874	-0.179414091	-0.289135
C	-1.5088755941	-0.3962932209	-0.1136071568	 0.158527
C	-2.3215900695	-0.7631869037	-1.1029096708	 0.210911
C	-2.3719929873	-1.4367463881	-2.4574522541	-0.32183
C	-3.4073192452	-2.4212212933	-1.7927355795	-0.236608
C	-3.619183863	-1.3678191654	-0.6451478858	-0.020955
C	-3.3935689663	-1.5935382714	 0.86321041	-0.24212
C	-2.2686152003	-0.5650955278	 1.2096899044	-0.289738
H	 1.1935933078	 1.7743202652	 0.207131123	 0.109642
H	-0.4273016871	 2.1835263012	-0.3839439201	 0.118808
H	-0.2011791025	 1.6570793438	 1.288580657	 0.118259
H	 0.2980329929	-0.0919704175	-1.2013813385	 0.096961
H	 0.5343049111	-0.610809663	 0.4651228271	 0.096234
H	-2.8464193601	-0.8273302646	-3.2347775308	 0.107149
H	-1.4439894267	-1.8529407572	-2.8583240583	 0.10463
H	-4.2795242298	-2.6968619229	-2.3910773237	 0.095154
H	-2.9169240239	-3.3267998534	-1.4256954588	 0.103063
H	-4.502774752	-0.7501849877	-0.8520696053	 0.067526
H	-4.2911515804	-1.4653967831	 1.475650594	 0.08936
H	-3.018303007	-2.608783517	 1.0373510964	 0.097134
H	-1.6095625421	-0.9259190371	 2.0089682988	 0.094516
H	-2.692948409	 0.3833471914	 1.5690047846	 0.100749
61.5637	115.9663	150.6797	196.9726	236.5169	268.0263	309.2967	386.4134	516.1378	591.8311	608.085	659.6821	707.8348	786.7775	798.148	819.9956	886.3573	906.9967	930.2591	954.6377	960.5196	969.9675	1030.2584	1053.3324	1071.2215	1086.1307	1129.0025	1129.8928	1174.8736	1196.4801	1202.59	1226.7345	1240.8504	1258.6853	1260.9244	1295.1773	1300.6636	1332.1217	1339.4484	1352.7197	1405.5292	1471.4735	1476.4368	1481.4568	1485.4269	1496.2477	1498.6076	1507.4083	1763.5204	2997.8141	3002.424	3014.1611	3032.8307	3034.4639	3039.4083	3048.7603	3055.0196	3055.6776	3087.9708	3093.0431	3104.5451	3108.4759	3117.7886
CCC1=C2CCC2CC1	CC[C]1[C]2CC[C@H]2CC1	
InChI=1S/C9H14/c1-2-7-3-4-8-5-6-9(7)8/h8H,2-6H2,1H3	InChI=1S/C9H14/c1-2-7-3-4-8-5-6-9(7)8/h8H,2-6H2,1H3/t8-/m1/s1
