18
gdb 92138	3.04001	1.78101	1.58497	1.3686	70.02	-0.194	0.0765	0.2706	916.051	0.149889	-439.049084	-439.042141	-439.041197	-439.080576	27.834	
C	 0.2864852608	 1.4775015329	 0.0043768635	-0.324354
N	 0.0264763004	 0.0472495143	 0.0107377533	-0.072797
C	 0.3779072373	-0.6232070097	-1.2532518606	-0.157101
C	 1.164142423	-1.8984088265	-0.9514382294	 0.136566
O	 0.4015048068	-2.7346097723	-0.097338564	-0.251655
C	 0.5753109439	-2.1419286431	 1.1693423943	 0.012953
C	 1.8756381312	-1.3751583547	 1.0988025967	 0.018799
O	 2.3395175291	-1.5525517467	-0.225111339	-0.26196
C	 0.5454276832	-0.629363738	 1.170598856	-0.065976
H	 1.3565786984	 1.7325165317	-0.0971215415	 0.104455
H	-0.2544656904	 1.9419477141	-0.8263713763	 0.121722
H	-0.0845950406	 1.9226134584	 0.9335200761	 0.11752
H	-0.5238668879	-0.8738321208	-1.8289502705	 0.105721
H	 1.0103176487	 0.0210006532	-1.8793068641	 0.099799
H	 1.4421389826	-2.4552248962	-1.8480409988	 0.099259
H	 0.2264549711	-2.7601591563	 1.9857305982	 0.112182
H	 2.6665702738	-1.3593795506	 1.8377556808	 0.107326
H	 0.2898924986	-0.1469586697	 2.1094004954	 0.09754
65.6544	220.2544	296.3774	348.7291	381.7778	394.201	595.4913	617.9146	662.9304	728.3061	752.4608	763.0407	825.8909	868.7561	888.6019	961.0669	996.3553	1020.0857	1045.6549	1070.4899	1073.0794	1087.5857	1095.1424	1115.6972	1151.7089	1168.0919	1187.6081	1246.865	1263.1786	1286.9189	1317.3455	1358.6911	1367.3794	1390.0331	1426.7776	1465.3292	1484.8583	1504.1743	1508.7774	2945.4215	2996.0632	3030.1398	3058.3149	3099.7591	3108.3214	3152.8569	3193.1254	3206.4741
CN1CC2OC3C(O2)C13	CN1C[C@@H]2O[C@H]3[C@@H](O2)[C@@H]13	
InChI=1S/C6H9NO2/c1-7-2-3-8-5-4(7)6(5)9-3/h3-6H,2H2,1H3	InChI=1S/C6H9NO2/c1-7-2-3-8-5-4(7)6(5)9-3/h3-6H,2H2,1H3/t3-,4+,5-,6+
