17
gdb 73235	2.2811	1.91072	1.40887	1.8539	67.92	-0.2443	0.0204	0.2647	963.8508	0.138382	-455.162217	-455.154471	-455.153526	-455.19434	29.871	
N	 0.0754452233	 1.4452485548	-0.0242545754	-0.593999
C	-0.0156604899	 0.0129979108	-0.0303729214	 0.142023
C	 0.1771171697	-0.8346295228	-1.3191404067	-0.12375
O	-1.0160286757	-1.5923750923	-1.0316125484	-0.293721
C	-1.3741881422	-0.7283515142	 0.0675343611	 0.099863
C	-1.3926812415	-1.4774228136	 1.4043690124	-0.191341
N	 0.0020027374	-1.42954677	 1.8198713606	-0.314563
C	 0.7926417547	-0.5460363625	 1.1503140221	 0.400797
O	 1.9330704842	-0.2324387722	 1.4229891833	-0.399282
H	 1.0191524055	 1.711654106	 0.2452336436	 0.247962
H	-0.1165716656	 1.8373621329	-0.9396866099	 0.230094
H	 0.0740229167	-0.2407812049	-2.2390708139	 0.093978
H	 1.0704793759	-1.4646235211	-1.3923380059	 0.119053
H	-2.2887704565	-0.1612091451	-0.1286263133	 0.08432
H	-2.0483368006	-0.9849369245	 2.1343600034	 0.114332
H	-1.739655576	-2.5051896619	 1.256279398	 0.128678
H	 0.3439349205	-1.8756032396	 2.6565719904	 0.255555
96.5135	174.3342	225.0586	257.0859	297.2529	337.2178	408.6997	504.0539	532.0448	600.9822	665.9207	740.3053	760.2452	801.3435	843.8456	867.6535	913.1991	1001.2891	1014.9941	1048.5477	1066.4728	1074.4521	1085.4685	1149.5461	1184.8105	1239.0134	1260.9695	1285.7433	1312.8974	1352.1369	1357.8916	1393.7425	1451.0056	1514.1487	1521.796	1647.3322	1823.6182	2993.7667	3017.096	3066.7023	3069.2095	3077.0985	3490.3215	3577.4778	3639.5163
NC12COC1CNC2=O	N[C@]12CO[C@H]1CNC2=O	
InChI=1S/C5H8N2O2/c6-5-2-9-3(5)1-7-4(5)8/h3H,1-2,6H2,(H,7,8)	InChI=1S/C5H8N2O2/c6-5-2-9-3(5)1-7-4(5)8/h3H,1-2,6H2,(H,7,8)/t3-,5+/m0/s1
