19
gdb 95662	2.9443	1.25163	0.98012	5.1214	79.44	-0.2589	-0.0391	0.2199	1235.6036	0.160424	-423.070462	-423.062093	-423.061148	-423.103666	31.772	
C	 0.6663569285	 1.6013407944	 0.05568837	-0.400643
C	-0.0998957754	 0.2791961041	-0.1408541389	-0.03718
C	 0.4095656976	-0.4850783569	-1.3674745714	-0.223244
C	-0.1568460759	-1.8970290347	-1.4831797409	-0.090534
O	 0.6377037948	-2.8714840338	-0.8023344154	-0.225808
C	 0.7970024196	-2.8636573691	 0.5420069829	 0.390161
O	 1.4097424825	-3.7700152194	 1.0498447746	-0.336078
C	 0.2264623178	-1.7828990522	 1.3922467067	-0.195887
C	-0.1115690807	-0.5144234323	 1.134990857	-0.040253
H	 1.7227512958	 1.4098955448	 0.2702083143	 0.130102
H	 0.6089578321	 2.2163903653	-0.8477851606	 0.120407
H	 0.25337309	 2.1819386567	 0.88621586	 0.120159
H	-1.152422034	 0.5475662533	-0.3304015926	 0.095853
H	 0.1507617652	 0.0851292428	-2.2669939104	 0.106551
H	 1.5036436872	-0.5600721748	-1.3504781525	 0.121226
H	-1.1935450901	-1.9403701007	-1.1252086318	 0.113611
H	-0.1457308153	-2.2354654591	-2.5215028562	 0.124721
H	 0.1702813298	-2.1244594672	 2.4212599219	 0.121837
H	-0.4505932396	 0.0648551389	 1.9942849133	 0.105
64.9613	117.709	230.4472	255.4776	269.8229	310.5535	344.2893	389.9917	489.4506	511.8153	586.989	677.0109	723.5476	773.6655	826.9511	859.9317	890.5539	941.9786	999.3816	1017.2631	1036.1855	1055.577	1106.9542	1117.9953	1179.6061	1206.1907	1240.6302	1292.1466	1302.3647	1321.2736	1369.6034	1390.4276	1405.6879	1422.3926	1432.1114	1476.8014	1496.716	1500.7622	1506.0457	1702.9192	1803.1296	2967.7996	3027.6892	3033.0797	3036.7269	3075.6136	3106.0654	3108.6204	3109.4579	3123.2353	3182.2216
CC1CCOC(=O)C=C1	C[C@H]1CCOC(=O)C=C1	
InChI=1S/C7H10O2/c1-6-2-3-7(8)9-5-4-6/h2-3,6H,4-5H2,1H3	InChI=1S/C7H10O2/c1-6-2-3-7(8)9-5-4-6/h2-3,6H,4-5H2,1H3/t6-/m1/s1
