21
gdb 63672	4.33199	0.66824	0.63327	1.6132	85.89	-0.2486	0.0581	0.3067	1795.418	0.179011	-387.046095	-387.035624	-387.03468	-387.081901	38.84	
C	-0.010641472	 1.5481742403	-0.2321308357	-0.448584
C	-0.0033125318	 0.0527899831	-0.0075512845	 0.375885
O	-1.155216593	-0.5929916669	-0.4962133118	-0.466645
C	 1.2878776345	-0.7336218088	-0.0564000433	-0.35339
C	 0.5204090274	-0.5786807302	 1.2493013467	-0.017425
C	 1.0890481914	 0.2010705338	 2.4138375107	-0.218898
C	 2.0282671453	-0.6685100285	 3.2796408906	-0.349083
C	 2.6005015431	 0.0594258443	 4.4051771194	 0.290801
C	 3.0585957966	 0.6856869399	 5.3234704637	-0.434237
H	 0.8814500144	 2.0306534414	 0.1745041424	 0.120253
H	-0.0413401063	 1.7711189779	-1.3060708025	 0.107108
H	-0.8932962664	 2.0019772017	 0.2299226581	 0.127376
H	-1.1527626874	-0.5084492819	-1.4565430005	 0.278041
H	 1.2670139707	-1.7006261926	-0.5464106462	 0.110893
H	 2.2184734148	-0.1840312135	-0.1661703221	 0.106221
H	-0.0481820506	-1.4600195992	 1.5369224999	 0.096037
H	 1.6499970845	 1.0725783955	 2.0616260155	 0.107222
H	 0.2804734391	 0.5863623705	 3.0460218858	 0.114092
H	 1.4755820923	-1.5414826766	 3.6507344328	 0.129692
H	 2.8333380832	-1.0665246763	 2.6489355076	 0.133006
H	 3.4687747501	 1.226953306	 6.1394192334	 0.191635
59.7853	69.7676	88.2293	190.9424	211.6048	225.8061	273.6586	310.68	349.1135	380.0302	408.7715	424.751	514.6878	534.8666	614.8085	635.2509	702.6609	764.7691	844.936	889.9814	916.5926	925.1714	968.4447	993.0719	1018.3391	1040.0701	1070.9587	1088.7846	1121.755	1148.8574	1211.7237	1246.4688	1278.9703	1294.0476	1313.5689	1352.9802	1374.9792	1415.6985	1423.989	1471.2097	1479.0818	1487.6866	1492.5664	1512.2215	2238.0438	3018.8736	3025.6102	3038.3299	3048.7564	3082.523	3087.9885	3120.6602	3123.9824	3139.6429	3214.7563	3507.8173	3787.4198
CC1(O)CC1CCC#C	C[C@@]1(O)C[C@H]1CCC#C	
InChI=1S/C8H12O/c1-3-4-5-7-6-8(7,2)9/h1,7,9H,4-6H2,2H3	InChI=1S/C8H12O/c1-3-4-5-7-6-8(7,2)9/h1,7,9H,4-6H2,2H3/t7-,8-/m1/s1
