21
gdb 83431	2.9987	1.21882	1.07909	1.3036	82.96	-0.2293	0.0767	0.306	1222.4715	0.182842	-387.041771	-387.033135	-387.032191	-387.075117	33.809	
O	-0.0830384126	 1.4196954402	 0.0476543653	-0.424938
C	-0.1077510088	 0.018326312	 0.0663177735	 0.048653
C	-0.551588249	-0.7805561678	 1.2591362971	-0.178863
C	-1.6427709007	-0.0252682156	 2.0221502628	-0.220837
C	-2.4906513839	 0.0675680587	 0.716432396	-0.29303
C	-1.4050868772	-0.7122674962	-0.0460970002	 0.350015
C	-1.6527703917	-1.7339606816	-1.1002115327	-0.103523
C	-2.845474561	-2.6597409583	-1.0560557636	-0.276084
C	-2.784356697	-1.5638320128	-2.0893329936	-0.266992
H	 0.6175810776	 1.7117612256	 0.6403655664	 0.284769
H	 0.7018066639	-0.4470627328	-0.4993575397	 0.078776
H	 0.0458969782	-1.5964976253	 1.6520384124	 0.078506
H	-2.1240417751	-0.6383124013	 2.7867096852	 0.099571
H	-1.3416745356	 0.9258106537	 2.4715613345	 0.090976
H	-3.4313409343	-0.4811121126	 0.7984245196	 0.099755
H	-2.6940620961	 1.071895005	 0.3381098023	 0.110195
H	-0.743597034	-2.1722139631	-1.5041249491	 0.075864
H	-2.7040896599	-3.6847555635	-1.3809584734	 0.108605
H	-3.5523960189	-2.5494228578	-0.2408144996	 0.111123
H	-3.4408571768	-0.7104560956	-1.9571699103	 0.116905
H	-2.608741717	-1.8320855311	-3.1251782629	 0.110553
58.6255	144.8925	181.5645	225.9654	255.4629	280.992	353.9925	369.7951	515.5401	549.864	626.9813	757.915	783.8778	787.5359	795.9306	830.2424	865.5335	916.8685	927.5278	958.046	963.3716	1004.6231	1034.239	1047.8525	1059.1238	1076.2749	1084.2842	1132.3832	1134.695	1140.8708	1197.3222	1217.1638	1225.3835	1236.3214	1246.6943	1259.2246	1299.2328	1327.6278	1332.7043	1401.7821	1464.177	1472.9528	1474.7452	1499.862	1515.9137	3051.5932	3066.3541	3083.7532	3102.209	3121.9822	3130.7617	3131.3752	3136.6026	3163.4574	3208.2899	3223.4168	3802.8022
OC1C2CCC12C1CC1	O[C@H]1[C@H]2CC[C@@]12C1CC1	
InChI=1S/C8H12O/c9-7-6-3-4-8(6,7)5-1-2-5/h5-7,9H,1-4H2	InChI=1S/C8H12O/c9-7-6-3-4-8(6,7)5-1-2-5/h5-7,9H,1-4H2/t6-,7+,8+/m1/s1
