21
gdb 56027	3.40695	0.98487	0.9121	1.9437	78.92	-0.2634	0.0205	0.2839	1393.1491	0.182462	-424.289152	-424.27959	-424.278645	-424.325955	33.933	
C	-0.6806892467	 1.3486251782	 0.2684904432	-0.477571
C	-0.1137561948	-0.0509324925	 0.2094867599	 0.428299
O	 1.0388284356	-0.3453846126	 0.4079735502	-0.358513
O	-1.0777928678	-0.9401978396	-0.103940601	-0.26005
C	-0.6689992304	-2.3292963124	-0.2175337119	 0.139541
C	-0.641202837	-3.0089781608	 1.1726838337	-0.215634
C	-1.9647691783	-3.8163861732	 1.2886281815	-0.199981
C	-2.8249982559	-3.3621457088	 0.091722188	-0.196226
C	-1.7813283513	-3.0423308354	-0.9895564505	-0.226128
H	-1.1083943696	 1.620930685	-0.7006467916	 0.147807
H	-1.4886169937	 1.3964548469	 1.0040702791	 0.146336
H	 0.1092533395	 2.0492778183	 0.5361326904	 0.146317
H	 0.3026835543	-2.3467409181	-0.7117660654	 0.097874
H	 0.2352672401	-3.6564870535	 1.2594478554	 0.108541
H	-0.5461192208	-2.2501245598	 1.9518972432	 0.114415
H	-1.7572153917	-4.8890268073	 1.2089797932	 0.099813
H	-2.465676154	-3.662485234	 2.2478606225	 0.098456
H	-3.5543623325	-4.1141732317	-0.220779813	 0.093715
H	-3.3771185352	-2.4501034506	 0.3437245329	 0.108248
H	-2.1583617089	-2.4349943229	-1.8158536486	 0.104554
H	-1.3763477907	-3.9708948653	-1.4100724213	 0.100186
25.5561	42.738	58.8823	113.4203	155.9663	236.704	320.7961	404.9721	447.6738	573.5125	609.675	629.4949	704.5854	789.0617	838.0753	862.9084	893.231	905.6883	913.6044	961.6793	984.8809	1015.1311	1037.4338	1049.8805	1063.7837	1100.2186	1188.8625	1193.3363	1223.8206	1248.8517	1273.5571	1290.0477	1312.2918	1339.8659	1352.8565	1354.5503	1385.7798	1403.483	1469.4251	1475.469	1476.6275	1479.3182	1491.8507	1510.4269	1816.8443	3037.3892	3042.9578	3047.6243	3055.9874	3070.4923	3087.3168	3098.7328	3106.82	3109.7676	3119.5422	3120.5732	3167.6787
CC(=O)OC1CCCC1	CC(=O)OC1CCCC1	
InChI=1S/C7H12O2/c1-6(8)9-7-4-2-3-5-7/h7H,2-5H2,1H3	InChI=1S/C7H12O2/c1-6(8)9-7-4-2-3-5-7/h7H,2-5H2,1H3
