19
gdb 24582	4.81035	0.99603	0.88972	3.765	81.92	-0.2126	0.0328	0.2454	1324.4043	0.16266	-382.100165	-382.092365	-382.091421	-382.133635	29.658	
C	 0.1052458376	 1.7145325506	 0.0555727165	-0.212834
C	 1.5851972536	 1.4488423753	 0.4351588419	-0.222527
C	 1.2429159135	-0.0791320286	 0.5102197006	-0.108919
C	-0.0180693417	 0.2206921147	-0.3475168412	-0.222697
C	 2.220633696	-1.0864050522	 0.0239257038	 0.312736
C	 2.3227910053	-1.8161774676	-1.1355449815	-0.174311
N	 3.4413350421	-2.6208064833	-1.1254091745	-0.254496
C	 4.0206391065	-2.3865018131	 0.0270324373	 0.008509
N	 3.325927504	-1.4703771114	 0.7627365931	-0.310433
H	-0.5029421794	 1.9480369802	 0.9343117434	 0.102731
H	-0.0936179749	 2.4644676908	-0.7126271914	 0.101174
H	 2.2607663858	 1.6503665974	-0.4007366226	 0.110048
H	 1.9818470196	 1.9267747722	 1.3346905053	 0.091833
H	 0.9332592464	-0.3195141462	 1.5356718375	 0.07552
H	-0.9370530569	-0.3127088517	-0.0956133564	 0.101668
H	 0.1888115148	 0.0801952668	-1.4119156291	 0.112939
H	 1.6460592848	-1.8145671186	-1.9762329882	 0.102975
H	 4.9320443238	-2.8415889767	 0.3858522094	 0.125474
H	 3.571604239	-1.1270858786	 1.6763544562	 0.260611
32.4315	110.9153	143.511	223.0219	364.6463	404.2239	519.91	545.5979	677.6349	684.2865	720.8212	787.1484	804.4277	845.2133	862.9789	906.1648	934.2521	934.9693	951.8501	996.2982	1033.4867	1047.5349	1113.7134	1121.8221	1148.5385	1199.3694	1219.8198	1245.8552	1256.2851	1258.5701	1279.1701	1283.5023	1285.045	1343.4956	1406.6682	1425.3084	1477.3937	1487.1226	1505.5806	1510.2894	1612.4933	3012.4052	3054.0839	3059.3651	3064.767	3102.6695	3112.5687	3125.0963	3246.3094	3250.6207	3660.051
C1CC(C1)C1=CN=CN1	C1CC(C1)c1cnc[nH]1	
InChI=1S/C7H10N2/c1-2-6(3-1)7-4-8-5-9-7/h4-6H,1-3H2,(H,8,9)	InChI=1S/C7H10N2/c1-2-6(3-1)7-4-8-5-9-7/h4-6H,1-3H2,(H,8,9)
