19
gdb 52855	1.83481	1.2168	0.82174	0.6757	90.38	-0.2296	0.0481	0.2777	1469.6775	0.155918	-348.686313	-348.67594	-348.674996	-348.723604	36.86	
C	-0.3221060473	 1.5596067953	-0.0475964183	-0.500614
C	-0.1990394594	 0.1090427507	-0.0482915003	 0.08454
C	-0.0910372592	-1.0910243983	-0.0430398228	 0.024055
C	 0.0487818913	-2.5234169066	-0.0632776613	 0.163312
C	 1.1405768312	-3.0631168889	-0.9970328858	-0.437696
C	 2.4919957164	-2.6867322737	-0.5956152987	 0.33437
C	 3.6036533931	-2.3821486083	-0.2561213868	-0.459172
C	-0.219289013	-3.293916572	 1.2179160022	-0.281443
C	-1.2087016397	-3.3670188983	 0.0893151835	-0.308461
H	 0.5085743165	 2.0244754957	-0.5901918363	 0.149838
H	-1.2526645042	 1.8860311369	-0.5257100252	 0.14432
H	-0.3143543052	 1.9611749714	 0.9720016389	 0.146263
H	 1.0644127491	-4.1571804379	-1.0308069848	 0.124065
H	 0.9468666634	-2.7073439795	-2.0164691538	 0.136008
H	 4.5853453781	-2.1082786472	 0.0409347433	 0.194156
H	 0.4082910557	-4.1569918627	 1.412738953	 0.120794
H	-0.4845083947	-2.7202856307	 2.0974621319	 0.125389
H	-2.1485661124	-2.8388853291	 0.1947592766	 0.125715
H	-1.2669245599	-4.2830833268	-0.4893387052	 0.114561
16.4262	50.35	92.5059	121.2528	157.6025	285.4853	294.6533	300.0638	337.2379	351.5522	455.5255	525.3061	545.6642	616.9034	633.1758	651.3621	781.8847	833.1286	907.6178	913.5102	938.8878	984.6474	1007.5098	1051.2354	1054.3506	1063.1533	1075.6027	1083.0757	1190.7145	1214.9902	1277.8905	1332.0136	1373.1446	1414.8377	1460.12	1469.1235	1477.3138	1479.8932	1496.629	2240.4448	2368.3229	3022.1171	3024.2588	3057.6492	3082.4513	3086.3574	3135.1903	3141.158	3221.7302	3236.3924	3507.6202
CC#CC1(CC#C)CC1	CC#CC1(CC#C)CC1	
InChI=1S/C9H10/c1-3-5-9(6-4-2)7-8-9/h1H,5,7-8H2,2H3	InChI=1S/C9H10/c1-3-5-9(6-4-2)7-8-9/h1H,5,7-8H2,2H3
