18
gdb 17964	2.65515	2.4346	1.46453	2.1356	69.1	-0.2465	0.0057	0.2522	882.1907	0.155911	-384.925663	-384.918556	-384.917612	-384.956739	27.736	
C	-0.0071857746	 1.426674431	 0.0463825935	-0.062192
C	 1.365866797	 2.1165873531	-0.1357493814	-0.289742
C	 2.2028639303	 1.4775683959	-1.207974975	-0.024586
C	 2.9290990483	 0.3764403631	-1.0159185006	-0.050094
C	 3.0535370003	-0.3404045873	 0.3102364026	-0.132126
O	 1.9629014778	-1.2117073762	 0.6173062748	-0.226241
C	 0.79210747	-0.6072982783	 1.0865165952	 0.02198
O	 0.026593945	 0.0119418184	 0.0835122504	-0.227915
H	-0.4848649697	 1.8280661816	 0.9538320518	 0.093016
H	-0.6583036778	 1.6638610163	-0.8009427635	 0.113687
H	 1.1746428201	 3.1720422179	-0.3594255512	 0.103593
H	 1.899175366	 2.096958249	 0.8209865908	 0.108915
H	 2.14711405	 1.9098749644	-2.2044856572	 0.091858
H	 3.4591513669	-0.0661135515	-1.8550464607	 0.092329
H	 3.9350052483	-0.986921774	 0.303313912	 0.109789
H	 3.1838764814	 0.381268794	 1.1315878887	 0.094754
H	 0.194312616	-1.4349032933	 1.4809000873	 0.111622
H	 1.0156870948	 0.1072049161	 1.8984914426	 0.071356
146.9668	178.3551	261.7912	283.3457	331.9045	414.305	476.4712	529.1408	562.1829	631.0938	746.28	842.3612	868.3675	913.9694	942.5614	986.0562	1000.5852	1026.1375	1035.9672	1072.5311	1086.5596	1164.7599	1196.2661	1239.8675	1263.2371	1284.5401	1298.8068	1341.215	1351.4707	1389.9305	1405.7404	1426.0623	1448.7984	1481.0966	1491.8618	1497.7648	1510.1854	1717.4699	2945.9658	2982.4594	2984.1125	3040.4815	3067.9113	3077.314	3086.4739	3089.0918	3145.749	3171.4372
C1CC=CCOCO1	C1CC=CCOCO1	
InChI=1S/C6H10O2/c1-2-4-7-6-8-5-3-1/h1-2H,3-6H2/b2-1-	InChI=1S/C6H10O2/c1-2-4-7-6-8-5-3-1/h1-2H,3-6H2/b2-1-
