23
gdb 59233	2.39234	1.40382	1.04582	1.2403	85.01	-0.2465	0.0609	0.3074	1254.3679	0.204911	-388.265178	-388.255478	-388.254534	-388.299437	37.289	
C	-0.0077843864	 1.6339199371	 0.0741497887	-0.391968
C	 0.0539908609	 0.1010428097	 0.0427309308	 0.030116
C	 0.79106535	-0.4400781134	 1.2768439732	-0.389135
C	-1.3500262708	-0.5016239614	-0.0622719755	-0.013207
C	-2.2683462692	-0.0889227903	-1.2214960249	-0.076106
C	-1.7326186305	-0.5692402107	-2.5405391196	-0.281373
C	-2.4399569415	-1.5514730002	-1.6494768047	-0.054921
C	-1.5203477458	-2.007785086	-0.5274492522	 0.073172
O	-0.3829041423	-2.7082977731	-0.9929841555	-0.427243
H	 0.9962424064	 2.0689271905	 0.1225414585	 0.106873
H	-0.5029590451	 2.0297656172	-0.8178116013	 0.11924
H	-0.5643505787	 1.9878806617	 0.9508116392	 0.106151
H	 0.6234720766	-0.2018851365	-0.844099004	 0.08165
H	 0.2703092953	-0.1585525934	 2.2002543421	 0.110638
H	 0.866112268	-1.5326560323	 1.2609366456	 0.088844
H	 1.8099509294	-0.0433410754	 1.3365809111	 0.111888
H	-1.8676794112	-0.3632462354	 0.8951087667	 0.058687
H	-3.0330707179	 0.6760803622	-1.1642121036	 0.083094
H	-2.3026444753	-0.2554788161	-3.4091325991	 0.107505
H	-0.6668435465	-0.6640857967	-2.7193597827	 0.123765
H	-3.3351730222	-2.0708885131	-1.9681089955	 0.082361
H	-2.0557911515	-2.5953932318	 0.2286127228	 0.066317
H	 0.1022046786	-3.0413526926	-0.23186854	 0.28365
67.1521	115.7533	158.9935	218.817	221.3757	247.6774	278.3234	299.5382	322.9238	415.1684	477.6695	526.4561	581.4405	717.2591	774.5812	797.919	815.8716	887.4878	921.6932	926.3598	958.461	973.663	976.7606	1017.259	1023.9935	1049.8772	1065.7126	1083.6766	1103.3577	1140.3215	1171.8804	1175.7625	1196.2646	1226.8835	1240.8083	1277.3994	1302.2578	1326.8978	1344.3342	1367.2266	1393.419	1397.422	1417.6068	1427.0562	1485.1398	1491.3421	1494.7431	1504.5014	1508.0975	3011.0023	3021.0004	3024.2098	3027.9615	3039.972	3084.2911	3089.8242	3096.0464	3102.6732	3130.2922	3178.141	3188.3514	3212.8074	3824.3049
CC(C)C1C2CC2C1O	CC(C)[C@H]1[C@H]2C[C@H]2[C@H]1O	
InChI=1S/C8H14O/c1-4(2)7-5-3-6(5)8(7)9/h4-9H,3H2,1-2H3	InChI=1S/C8H14O/c1-4(2)7-5-3-6(5)8(7)9/h4-9H,3H2,1-2H3/t5-,6+,7-,8+/m0/s1
