20
gdb 31664	2.94146	1.18974	0.90206	1.7109	85.55	-0.1687	0.0528	0.2215	1341.6214	0.172025	-399.342146	-399.332306	-399.331362	-399.376872	36.069	
C	-0.6438450011	 0.7707632501	 0.2193433327	-0.32871
N	 0.6758720024	 0.1292514027	 0.1990031167	-0.394708
C	 0.9875106769	-0.5487952236	-1.0055272873	 0.177383
C	 1.8335327697	-0.1767492912	-2.0311558958	-0.193905
N	 1.8821110529	-1.1983983388	-2.9448451721	 0.02096
C	 2.5438136886	-1.1442741994	-4.2259140142	-0.329616
C	 1.0398505185	-2.2138492272	-2.530787229	-0.185965
C	 0.4833460434	-1.8466654021	-1.3255161061	 0.209198
N	-0.4377319211	-2.539857795	-0.5164387842	-0.618457
H	-0.7722791174	 1.5417309317	-0.5573481728	 0.098323
H	-1.4124308662	 0.0086063352	 0.0635958609	 0.144015
H	-0.8092198607	 1.2285642291	 1.1998801218	 0.107118
H	 1.3955941142	 0.8058160191	 0.4228682945	 0.220238
H	 2.4175743798	 0.7199841031	-2.1701567307	 0.102474
H	 3.4050648373	-0.4741407045	-4.1637008353	 0.133109
H	 2.905459475	-2.1397215221	-4.5006620525	 0.13273
H	 1.880986593	-0.784792476	-5.0240887555	 0.130174
H	 0.9250562842	-3.1095612002	-3.1203370722	 0.097908
H	-0.3828178712	-3.5436020005	-0.6368571457	 0.233751
H	-0.2739503282	-2.3151108304	 0.4600042169	 0.243979
71.3636	97.4574	130.3617	170.1398	195.0018	250.5345	285.3558	289.6186	316.0568	413.9787	507.7524	595.9144	598.0052	608.7033	627.7711	706.5796	732.3681	780.7312	809.4052	840.4188	1018.4844	1038.3457	1085.6083	1117.1273	1138.3282	1150.5319	1158.6543	1198.3832	1238.8485	1274.6828	1394.1263	1413.3781	1432.8615	1454.4274	1470.4868	1482.7808	1491.5573	1496.9412	1517.9775	1519.5591	1592.5337	1627.5936	1654.4874	2973.05	3011.3805	3069.3215	3079.3199	3114.0353	3118.9572	3246.3658	3253.9591	3503.3812	3543.4301	3601.8671
CNC1=CN(C)C=C1N	CNc1cn(C)cc1N	
InChI=1S/C6H11N3/c1-8-6-4-9(2)3-5(6)7/h3-4,8H,7H2,1-2H3	InChI=1S/C6H11N3/c1-8-6-4-9(2)3-5(6)7/h3-4,8H,7H2,1-2H3
