14
gdb 27716	3.03658	1.30332	0.91366	5.1506	75.61	-0.193	-0.001	0.192	1182.4334	0.103575	-429.111057	-429.102686	-429.101742	-429.14374	31.255	
N	 0.023142171	 1.3318961839	 0.1193773738	-0.596248
C	-0.0039857639	-0.0431855353	 0.0405447321	 0.427893
N	-1.1095953177	-0.7700538377	 0.066893113	-0.35834
C	-0.690973209	-2.0717253766	 0.0663369897	 0.249712
N	-1.5983455668	-3.0979009872	 0.1440814739	-0.599193
C	 0.6947277638	-2.1484926342	 0.0202456518	 0.139357
N	 1.1150815589	-0.7980677176	-0.005011945	-0.386972
C	 1.5589184758	-3.2428924129	-0.0417322414	 0.166336
N	 2.2628768055	-4.1681332343	-0.0937859962	-0.372511
H	 0.7240400623	 1.7891434357	-0.4466476157	 0.258491
H	-0.8956772692	 1.7297750271	-0.016187489	 0.271309
H	-2.5241318915	-2.8520808358	-0.1725229704	 0.26073
H	-1.2795158569	-3.9979927274	-0.1809064317	 0.265405
H	 2.0633790676	-0.4836477576	 0.110037965	 0.274032
122.8459	129.5202	228.2456	271.9078	295.8338	301.5992	356.8766	391.6671	441.2676	527.9026	543.0049	556.7077	607.6199	633.0952	676.3677	728.1326	757.9238	836.5647	1045.6291	1075.8798	1140.3447	1208.1314	1249.0206	1357.0925	1459.6751	1521.4567	1600.4253	1608.8335	1653.1442	1670.071	2301.9589	3562.7097	3578.1669	3664.7295	3672.3228	3687.579
NC1=NC(N)=C(N1)C#N	Nc1nc(N)c([nH]1)C#N	
InChI=1S/C4H5N5/c5-1-2-3(6)9-4(7)8-2/h6H2,(H3,7,8,9)	InChI=1S/C4H5N5/c5-1-2-3(6)9-4(7)8-2/h6H2,(H3,7,8,9)
