15
gdb 33340	5.42408	0.75201	0.71932	2.3996	88.76	-0.2384	-0.0152	0.2232	1538.4429	0.110939	-383.39063	-383.382519	-383.381575	-383.423877	30.328	
C	 0.0455493337	-3.8165541891	-0.0976455843	-0.567062
C	 0.0387944547	-2.6095059711	-0.0551869279	 0.305393
C	 0.0291588346	-1.2502830849	-0.0098886716	-0.304889
C	 0.0230818954	-0.040133511	 0.0333967744	 0.487729
C	 0.0130522467	 1.4033612356	 0.0801721745	-0.266993
C	-0.2396224792	 2.1311756068	 1.4670803448	-0.263978
C	 1.1089210235	 2.8360171103	 1.2841342049	 0.035009
O	 2.1066274691	 1.8127197185	 1.1916365722	-0.229224
C	 1.3767261864	 2.1415306319	 0.0162563209	 0.026697
H	 0.0548483209	-4.8774822383	-0.1325229726	 0.190122
H	-0.6701021001	 1.8058277173	-0.6754156964	 0.11552
H	-1.1046771195	 2.7955881164	 1.4249996504	 0.115953
H	-0.3046347029	 1.4819035525	 2.3411922277	 0.128922
H	 1.426390715	 3.8098387767	 1.6363206867	 0.113314
H	 1.9372080219	 2.4252650384	-0.8666269037	 0.113486
69.5543	87.779	172.159	230.7631	311.3871	409.6991	445.6374	515.9486	523.1123	554.7905	588.4345	602.7109	714.3141	761.2456	842.2492	852.0894	899.1198	912.1107	946.539	1002.0377	1022.9315	1060.5314	1134.5458	1185.8615	1199.9558	1232.4924	1237.4095	1265.9308	1338.2235	1392.4156	1471.7156	2181.0037	2358.3228	3052.2903	3081.8024	3145.13	3186.2699	3202.4412	3505.6546
C#CC#CC1CC2OC12	C#CC#C[C@H]1C[C@H]2O[C@@H]12	
InChI=1S/C8H6O/c1-2-3-4-6-5-7-8(6)9-7/h1,6-8H,5H2	InChI=1S/C8H6O/c1-2-3-4-6-5-7-8(6)9-7/h1,6-8H,5H2/t6-,7+,8-/m0/s1
