22
gdb 62110	2.61955	0.94063	0.78875	3.4867	83.25	-0.2477	0.0317	0.2794	1529.9405	0.193559	-404.367523	-404.357291	-404.356347	-404.404018	36.903	
C	-0.5123120186	 1.3305708301	 0.0782305223	-0.400859
C	 0.1554129529	-0.0309234669	-0.1514470092	 0.012514
C	 1.2076918183	 0.0237625872	-1.2774309355	-0.168043
N	 0.6624934804	 0.3710612841	-2.5831568646	-0.269659
C	 0.1023947006	-0.5556761346	-3.402745984	 0.151394
O	 0.010272596	-1.7396740354	-3.1511278817	-0.327682
C	 0.7894719451	-0.5618063566	 1.1204893939	 0.039486
C	-0.0343957342	-1.3305308014	 2.1222541061	-0.278637
C	 1.0115661156	-2.0430044285	 1.2999578642	-0.2769
H	 0.2214365702	 2.0785478442	 0.4042816636	 0.106426
H	-0.9891851812	 1.7013563237	-0.8347157354	 0.104215
H	-1.2810407041	 1.262356124	 0.8534574281	 0.122058
H	-0.6094563983	-0.7489304449	-0.4740658362	 0.094867
H	 1.9877654079	 0.7532065745	-1.0303396319	 0.098824
H	 1.6805821173	-0.956713684	-1.3725364124	 0.139044
H	 0.6531662866	 1.3338017009	-2.8769844032	 0.248524
H	-0.2613268007	-0.1072548208	-4.3493815716	 0.072042
H	 1.5556078764	 0.0882885257	 1.5399999169	 0.073968
H	 0.1565351049	-1.1754801619	 3.178426145	 0.109115
H	-1.0766882569	-1.5160201696	 1.8827689187	 0.112312
H	 0.6692349251	-2.7009965737	 0.5076478226	 0.127741
H	 1.9169925767	-2.3764292562	 1.7948409844	 0.109249
35.9125	49.0014	98.5596	151.7075	200.25	233.1484	249.4303	279.967	312.858	414.8823	448.0752	474.8578	527.3506	752.9434	770.7027	821.8102	829.8673	880.2483	914.0239	941.6007	965.9303	986.3467	1005.7433	1031.8726	1060.1699	1082.476	1125.3467	1139.1035	1152.9695	1199.41	1207.6447	1218.3764	1226.6289	1279.8601	1315.7328	1359.9849	1388.0463	1411.0012	1426.0987	1429.3064	1467.773	1471.5096	1498.9451	1500.5214	1508.1685	1525.9253	1800.9909	2928.8261	3023.5235	3028.8875	3044.8748	3090.6273	3108.0069	3110.2274	3118.1427	3128.15	3133.6741	3206.3999	3221.6011	3646.5476
CC(CNC=O)C1CC1	C[C@@H](CNC=O)C1CC1	
InChI=1S/C7H13NO/c1-6(4-8-5-9)7-2-3-7/h5-7H,2-4H2,1H3,(H,8,9)	InChI=1S/C7H13NO/c1-6(4-8-5-9)7-2-3-7/h5-7H,2-4H2,1H3,(H,8,9)/t6-/m0/s1
