20
gdb 40171	3.03809	1.57959	1.38462	2.5939	78.05	-0.236	0.0763	0.3123	1011.0592	0.173963	-403.1045	-403.097331	-403.096387	-403.135769	29.827	
C	-0.014408923	 1.4898162742	 0.0412135968	-0.308604
N	 1.2757901843	 0.7718315571	-0.0428444827	-0.354608
C	 0.0146492458	 0.0108142673	-0.0217054339	 0.343797
C	-0.269340785	-0.8043758972	 1.2402315193	-0.137119
O	-0.2578413825	-2.2150889363	 1.0144653629	-0.275751
C	-0.637871125	-2.5924253176	-0.3002390705	 0.137158
C	 0.397014024	-2.063971217	-1.3288620306	-0.238943
C	-0.414767556	-0.7328414016	-1.2727820071	-0.113248
C	-1.6609505017	-1.6067501861	-0.9333586825	-0.267408
H	-0.1914677463	 1.9951671531	 0.9878417446	 0.116942
H	-0.3719318893	 2.0323498687	-0.8308368392	 0.110106
H	 1.6340904807	 0.8225081017	-0.9949643643	 0.226359
H	 0.4865259296	-0.5908695314	 1.9999991492	 0.1231
H	-1.2507656897	-0.5125595412	 1.6429248755	 0.095366
H	-0.866537542	-3.6587845561	-0.2609806917	 0.076787
H	 1.4419229309	-2.0462380192	-1.0110229825	 0.108478
H	 0.3024418306	-2.5597364039	-2.2986220081	 0.09546
H	-0.4362747208	-0.0832834942	-2.1525771253	 0.054379
H	-2.1056975734	-2.036167427	-1.8339531694	 0.104118
H	-2.4493166512	-1.1893379632	-0.3028264804	 0.103633
122.2339	211.8825	292.7389	360.8019	396.4937	412.4573	431.3063	504.0597	549.4362	712.549	801.6021	823.238	838.5661	888.1008	899.8809	908.3353	935.9036	937.3546	968.7597	996.4551	1019.3109	1041.6461	1068.1129	1078.8807	1094.2973	1117.089	1130.3069	1151.7253	1192.8789	1238.3492	1258.4063	1261.5045	1267.3295	1272.5652	1295.5329	1346.0051	1356.6583	1384.1851	1430.073	1468.4258	1495.3659	1512.2822	1513.5675	2986.5594	3055.9705	3061.5536	3071.0991	3096.5823	3097.8423	3099.2981	3122.5147	3124.0679	3180.9474	3477.8033
C1NC11COC2CC1C2	C1N[C@]21CO[C@@H]1C[C@H]2C1	
InChI=1S/C7H11NO/c1-5-2-6(1)9-4-7(5)3-8-7/h5-6,8H,1-4H2	InChI=1S/C7H11NO/c1-5-2-6(1)9-4-7(5)3-8-7/h5-6,8H,1-4H2/t5-,6+,7-/m1/s1
