17
gdb 31590	3.31869	1.08988	0.85108	1.4802	73.64	-0.1868	0.0305	0.2173	1324.328	0.137931	-451.351428	-451.342177	-451.341233	-451.385658	33.758	
N	 0.1702565878	 1.4205047268	-0.046578309	-0.612372
C	 0.0524843904	 0.0275242772	-0.0962618167	 0.28454
C	-1.0304027475	-0.8000562448	 0.079951322	 0.145369
N	-2.3579349601	-0.3407539927	 0.2774336824	-0.611605
N	-0.6291042956	-2.1228723859	 0.0669579629	-0.335227
C	 0.6675289467	-2.0999344053	-0.1322765461	 0.270597
C	 1.5844475843	-3.2704269546	-0.278983153	-0.175691
O	 2.8308966865	-3.0629592968	 0.3839099774	-0.420268
N	 1.1339929446	-0.810821743	-0.2351976758	-0.313212
H	 0.5158063	 1.8174385093	-0.9156691872	 0.242108
H	-0.7521056757	 1.8059132875	 0.1317418182	 0.257377
H	-2.7149870655	-0.6574779927	 1.1753295669	 0.237469
H	-2.9788667491	-0.7372368753	-0.4231225559	 0.237378
H	 1.0571084959	-4.1662566119	 0.0719971453	 0.121114
H	 1.8533017146	-3.4364410392	-1.3295143078	 0.121021
H	 2.6425933106	-2.9719668735	 1.3244996675	 0.285608
H	 2.103964872	-0.5455426549	-0.282709961	 0.265794
59.6725	116.645	137.9885	222.189	252.7778	264.76	293.1938	325.4348	383.0971	401.982	530.6952	547.8124	648.206	666.7745	696.2326	727.714	821.1044	870.6386	885.9673	972.208	1020.9041	1054.0546	1112.7873	1189.0396	1205.1378	1221.5405	1226.6321	1317.8257	1355.1253	1412.7969	1444.1245	1489.7138	1497.3986	1571.2553	1630.025	1653.8313	1693.465	3022.5599	3061.051	3478.1954	3486.6264	3536.3079	3575.7887	3660.6786	3802.7342
NC1=C(N)N=C(CO)N1	Nc1c(N)nc(CO)[nH]1	
InChI=1S/C4H8N4O/c5-3-4(6)8-2(1-9)7-3/h9H,1,5-6H2,(H,7,8)	InChI=1S/C4H8N4O/c5-3-4(6)8-2(1-9)7-3/h9H,1,5-6H2,(H,7,8)
