18
gdb 82410	2.43088	1.80781	1.17525	3.9287	71.89	-0.244	0.0305	0.2745	1054.0859	0.149064	-439.115297	-439.107187	-439.106243	-439.148272	30.667	
C	 0.2069357846	 1.5844343472	-0.0315629302	-0.387674
C	 0.0302564176	 0.0610924602	 0.0072151938	-0.157907
C	 0.5795109497	-0.601165752	-1.2366192315	 0.057746
O	 2.0013076065	-0.8020623367	-1.2811392428	-0.254791
C	 1.1532435123	-1.945003395	-1.1772955193	 0.040547
C	 1.1766897119	-2.6946205729	 0.1323304821	-0.1893
N	 1.0558835413	-1.8086874006	 1.2728512838	-0.324658
C	 0.6130487193	-0.5160628513	 1.3050875184	 0.415177
O	 0.6450111439	 0.1324363899	 2.3347667407	-0.379933
H	 1.2649058514	 1.8426932861	-0.1335970203	 0.135548
H	-0.3358659479	 2.0120188314	-0.8802014734	 0.104839
H	-0.1634383447	 2.0283317976	 0.8926402096	 0.145615
H	-1.0467938964	-0.1655080039	 0.0399286077	 0.108275
H	 0.1525783245	-0.2532203874	-2.1780173882	 0.096382
H	 1.1286540837	-2.5820715134	-2.0612644895	 0.099451
H	 0.3650780153	-3.4388619936	 0.1102903753	 0.115128
H	 2.1168984284	-3.254055648	 0.2152641984	 0.12628
H	 1.4289448386	-2.1219622875	 2.1569027954	 0.249277
55.3431	139.2128	201.1673	220.6789	292.212	330.328	427.8057	468.2808	517.9419	556.6391	609.1535	681.0153	747.4678	779.7222	832.7224	893.0219	917.1671	945.3665	1018.0792	1036.0976	1081.0917	1102.9476	1121.51	1150.902	1160.1075	1265.2272	1282.1063	1299.3025	1320.0863	1344.169	1372.0485	1399.5799	1418.6027	1477.577	1489.1471	1499.3557	1502.834	1524.497	1783.3765	2982.1385	2996.385	3040.3269	3047.4251	3101.2929	3114.7953	3118.4366	3152.7307	3614.2281
CC1C2OC2CNC1=O	C[C@H]1[C@H]2O[C@H]2CNC1=O	
InChI=1S/C6H9NO2/c1-3-5-4(9-5)2-7-6(3)8/h3-5H,2H2,1H3,(H,7,8)	InChI=1S/C6H9NO2/c1-3-5-4(9-5)2-7-6(3)8/h3-5H,2H2,1H3,(H,7,8)/t3-,4-,5+/m0/s1
