18
gdb 6079	4.39639	0.8757	0.75695	3.6016	79.89	-0.2519	-0.0441	0.2077	1520.296	0.150397	-347.807615	-347.797622	-347.796678	-347.844599	33.994	
C	-0.244449103	 1.6009570321	-0.1923342483	-0.376898
C	 0.0000635191	 0.0844175639	-0.0511290264	-0.135491
C	-1.3174837249	-0.687496256	 0.1613103089	-0.377013
C	 0.7435729328	-0.4342365518	-1.1967895278	 0.100084
C	 1.3583751151	-0.8464421399	-2.1516977507	-0.00482
C	 2.0987297563	-1.3439847248	-3.2955597969	 0.247416
C	 1.6880095384	-2.7177955006	-3.7886343252	-0.476004
O	 2.9839121516	-0.6976255936	-3.8155899414	-0.278141
H	 0.6971034322	 2.1419664101	-0.3129507228	 0.134223
H	-0.8713857975	 1.8103611029	-1.0642177911	 0.129223
H	-0.7550409926	 1.9819044498	 0.6974073393	 0.11759
H	 0.6311023431	-0.0728413805	 0.8353580717	 0.118462
H	-1.9838409922	-0.5556076864	-0.6965364726	 0.1277
H	-1.1328045342	-1.7573468142	 0.287626107	 0.126204
H	-1.8305602847	-0.3164468241	 1.0537727658	 0.118633
H	 1.8027459075	-3.4549286566	-2.9865912381	 0.143963
H	 0.6293724586	-2.7149108859	-4.0699612936	 0.143873
H	 2.3021715243	-2.9983199344	-4.6456011979	 0.140995
10.2854	73.8289	100.1363	124.6771	181.5527	227.4263	238.8403	275.1892	338.0908	406.1757	508.1582	533.9941	592.2273	610.1846	660.0669	842.1278	932.1617	950.6802	965.2183	1004.6722	1042.5224	1118.9069	1121.1132	1186.9215	1247.819	1313.7861	1343.1083	1380.947	1397.3688	1419.4799	1460.8495	1469.4913	1485.8451	1489.4577	1499.289	1510.1803	1766.2699	2325.7677	3006.3686	3039.047	3040.1259	3043.4054	3103.2684	3112.3282	3117.1927	3122.091	3127.146	3150.8192
CC(C)C#CC(C)=O	CC(C)C#CC(=O)C	
InChI=1S/C7H10O/c1-6(2)4-5-7(3)8/h6H,1-3H3	InChI=1S/C7H10O/c1-6(2)4-5-7(3)8/h6H,1-3H3
