16
gdb 55421	2.80494	1.57879	1.02985	1.687	67.27	-0.2363	0.0158	0.2521	1097.6571	0.126932	-471.271749	-471.263717	-471.262773	-471.304679	29.753	
N	-0.0179870101	 1.3223161	 0.2451301988	-0.565518
C	 0.0578810994	-0.0344087923	 0.062471345	 0.426577
N	 1.0938219427	-0.7774353145	-0.0487589258	-0.563074
N	-1.1870369724	-0.6950263295	 0.061638191	-0.189272
C	-1.2549988491	-2.1448449452	-0.0619791197	-0.171299
C	-2.7646591966	-2.3737090473	 0.1101012368	-0.108086
O	-3.3703410754	-1.0930308543	-0.1383805057	-0.239207
C	-2.4346337839	-0.116485474	-0.0782949147	 0.527938
O	-2.7124621674	 1.0563274127	-0.1478699654	-0.413501
H	 0.8034544086	 1.8453019219	-0.0076904829	 0.251075
H	-0.9176576464	 1.756073859	 0.0701957007	 0.284657
H	 1.9453424545	-0.2210054452	-0.0116615579	 0.208156
H	-0.8795289147	-2.467588249	-1.0381678488	 0.136652
H	-0.652342272	-2.6313585913	 0.7053307352	 0.148736
H	-3.1785145862	-3.0912880386	-0.5997212635	 0.135696
H	-3.0233660609	-2.6847170623	 1.1273634772	 0.130468
91.6369	107.8826	162.1599	209.8474	266.6961	399.3808	425.1053	446.7811	583.1381	604.9088	652.1506	709.4713	718.5238	766.3273	779.5558	801.2111	879.0327	981.6657	1063.5865	1092.0135	1113.9366	1139.2246	1146.8462	1214.3905	1239.0636	1246.865	1274.5875	1389.137	1428.4771	1460.2461	1523.7752	1532.7051	1630.9468	1718.2569	1844.1606	3054.936	3059.7002	3119.537	3132.4143	3506.6191	3510.7527	3689.0826
NC(=N)N1CCOC1=O	NC(=N)N1CCOC1=O	
InChI=1S/C4H7N3O2/c5-3(6)7-1-2-9-4(7)8/h1-2H2,(H3,5,6)	InChI=1S/C4H7N3O2/c5-3(6)7-1-2-9-4(7)8/h1-2H2,(H3,5,6)
