17
gdb 8287	5.12107	1.02621	0.98982	3.1662	66.58	-0.2516	0.0261	0.2777	1192.5638	0.141949	-401.007259	-400.998944	-400.998	-401.040922	29.943	
O	 0.2747636386	 1.4187236101	-0.110599697	-0.431877
C	 0.1220459589	 0.0208113076	 0.0103629577	 0.148821
C	 0.1464125524	-0.530832443	 1.4668007156	-0.277248
C	-1.4070811047	-0.6057705152	 1.4263435039	 0.062096
C	-1.3373174642	-0.5064925389	-0.1247916093	-0.277231
N	-2.0681385483	-1.7375621027	 2.0255116701	-0.291051
C	-3.0618430214	-1.6271476385	 2.9508688081	 0.150431
O	-3.5073914645	-0.5843921524	 3.3801043179	-0.321062
H	-0.350986216	 1.8535127848	 0.4786235792	 0.284644
H	 0.8532561938	-0.406995073	-0.6777976308	 0.091157
H	 0.5974368916	-1.5273248083	 1.5169794529	 0.09811
H	 0.6099755056	 0.1046433359	 2.2254904059	 0.112447
H	-1.8726394975	 0.2739589667	 1.8737129828	 0.121873
H	-2.0518503188	 0.1483285398	-0.6297606778	 0.112449
H	-1.3709554308	-1.4950277441	-0.5944733572	 0.098124
H	-1.784221011	-2.6646145925	 1.7474592951	 0.243332
H	-3.4283401537	-2.6205903263	 3.2774483832	 0.074986
47.4725	67.4904	183.3838	217.0829	258.4474	324.9297	368.819	443.5453	444.585	540.1328	643.0938	791.3462	806.4963	833.1907	923.3412	939.2336	974.1653	982.0183	1030.5076	1073.1332	1094.5263	1138.9939	1172.6558	1205.4132	1244.2079	1260.1391	1270.1471	1287.2319	1320.4692	1372.6197	1432.1948	1436.1053	1460.7934	1486.2598	1535.0834	1805.5682	2936.3453	3048.1597	3053.0053	3095.6048	3101.4909	3111.8452	3120.914	3619.7765	3806.6474
OC1CC(C1)NC=O	O[C@H]1C[C@@H](C1)NC=O	
InChI=1S/C5H9NO2/c7-3-6-4-1-5(8)2-4/h3-5,8H,1-2H2,(H,6,7)	InChI=1S/C5H9NO2/c7-3-6-4-1-5(8)2-4/h3-5,8H,1-2H2,(H,6,7)/t4-,5-
