14
gdb 131747	4.81513	1.07623	0.88456	1.0306	70.22	-0.2675	-0.1018	0.1657	1222.7116	0.100188	-469.968497	-469.960352	-469.959408	-470.002078	28.822	
O	 0.1700916495	 1.3916983968	 0.2317503191	-0.41731
C	 0.0432068352	 0.0040096841	 0.1057630968	-0.099681
C	-1.3699571306	-0.4738405987	-0.096341248	 0.359203
N	-2.2771391936	 0.4271076893	-0.1945140476	-0.144421
O	-3.5944390554	-0.0047291548	-0.3976399215	-0.282281
C	-3.8857097256	-1.3464377719	-0.4751768907	 0.394775
N	-5.0626222259	-1.7832831447	-0.6468414548	-0.510027
C	-2.7435324878	-2.2538960834	-0.3505325888	-0.002734
N	-1.5377384898	-1.8607232178	-0.172077206	-0.265072
H	-0.6781812196	 1.7855340055	-0.0084160137	 0.303362
H	 0.6368626566	-0.3842859655	-0.7394001996	 0.125566
H	 0.4354217621	-0.4942229257	 1.0047921539	 0.133225
H	-5.739036746	-1.0202896355	-0.714489373	 0.241264
H	-2.966273329	-3.3165465078	-0.419438016	 0.16413
52.4642	84.8989	170.0359	203.4683	286.5152	319.4695	379.0003	453.2991	523.3346	548.3644	636.5313	732.2894	786.118	805.8397	884.2496	939.4078	984.6909	1022.3815	1036.4758	1098.6733	1117.3699	1239.274	1256.2599	1324.001	1338.5155	1363.7675	1455.4382	1495.1929	1623.6119	1682.0739	1731.0474	2971.1257	3014.4968	3170.0068	3477.3127	3770.3248
OCC1=NOC(=N)C=N1	OCC1=NOC(=C[N]1)[NH]	
InChI=1S/C4H5N3O2/c5-3-1-6-4(2-8)7-9-3/h1,5,8H,2H2	InChI=1S/C4H5N3O2/c5-3-1-6-4(2-8)7-9-3/h1,5,8H,2H2
