21
gdb 120297	3.24409	0.89437	0.80402	2.0244	79.02	-0.2334	0.0691	0.3025	1502.2202	0.181392	-424.177393	-424.167809	-424.166865	-424.212329	35.279	
C	-0.1698020179	 1.5680284564	-0.0564506525	-0.498753
C	-0.0234592473	 0.0762413546	 0.0113230979	 0.233614
C	-0.9102018675	-0.9268574448	-0.7273374501	-0.134567
O	-0.8615478255	-1.8619229894	 0.3831672939	-0.288182
C	-0.1111975687	-0.916399031	 1.1539616301	 0.04555
C	 1.2227436776	-0.6411596078	 0.5172460096	-0.089008
C	 2.0197610806	-1.6853696682	-0.2349453085	-0.243808
C	 2.9452792152	-2.4795507979	 0.6927077845	-0.051856
O	 3.7321043553	-3.4346952787	-0.0010802968	-0.420064
H	 0.3612063687	 2.0545253084	 0.7679523933	 0.122697
H	 0.2418659569	 1.9684422071	-0.9909434827	 0.12398
H	-1.2221327613	 1.8692978578	-0.0000487954	 0.120529
H	-1.9342955464	-0.5614230879	-0.8711678027	 0.106034
H	-0.5405727048	-1.3626329222	-1.6632169589	 0.102795
H	-0.3562990567	-0.8187411352	 2.2063096816	 0.099466
H	 1.8271597747	 0.0341688226	 1.1236915054	 0.084372
H	 1.3322627919	-2.3854953782	-0.7229433386	 0.103232
H	 2.6249584709	-1.2195943407	-1.0217962746	 0.102674
H	 3.6614125334	-1.8060633658	 1.1774050678	 0.105847
H	 2.3515107856	-2.9498418032	 1.4921401163	 0.094346
H	 3.1323993056	-4.083807346	-0.3824915294	 0.281101
56.2997	89.7874	125.3586	188.9461	218.9251	250.2497	290.3296	302.0992	323.4372	407.233	471.2705	605.8897	639.8007	761.9931	797.9725	820.8194	913.4322	935.269	951.5292	992.0618	998.1916	1016.2645	1039.9426	1070.7395	1077.1197	1101.6168	1124.6747	1140.2594	1168.2625	1176.4429	1246.5039	1279.2436	1290.9772	1308.3447	1322.6503	1367.608	1400.3021	1420.202	1422.1866	1478.5401	1479.9394	1487.8036	1499.7259	1511.8634	1516.8834	2983.7311	3016.7568	3022.1015	3034.1614	3056.5746	3065.1099	3078.71	3082.5151	3097.7641	3111.2328	3168.64	3815.3787
CC12COC1C2CCO	C[C@]12CO[C@H]1[C@H]2CCO	
InChI=1S/C7H12O2/c1-7-4-9-6(7)5(7)2-3-8/h5-6,8H,2-4H2,1H3	InChI=1S/C7H12O2/c1-7-4-9-6(7)5(7)2-3-8/h5-6,8H,2-4H2,1H3/t5-,6+,7-/m1/s1
