19
gdb 118911	2.54737	1.06613	0.97588	3.2203	71.07	-0.2669	0.0109	0.2778	1306.1824	0.157849	-460.185272	-460.175586	-460.174642	-460.22025	34.464	
C	 0.0917810354	 1.5735600398	-0.1004171805	-0.455717
C	-0.0225316214	 0.0481273921	-0.0517786608	 0.089711
C	-1.4690238488	-0.4658561718	-0.0510566524	-0.240363
C	-2.2916171476	-0.040774871	 1.1636748493	-0.089202
O	-3.5583765066	-0.6701827408	 1.0385413596	-0.419894
C	 0.9318723627	-0.7150554748	-1.0035454507	-0.12508
O	 1.6750341938	-1.2467436382	 0.1410191899	-0.244096
C	 0.8621223206	-0.5955292593	 1.0312513037	 0.452125
O	 0.9255579134	-0.6083962363	 2.2199504734	-0.336658
H	 1.1359642365	 1.890281115	-0.1831632575	 0.128354
H	-0.4560808086	 1.9721936469	-0.960923748	 0.125568
H	-0.3199111171	 2.0267417048	 0.8049274688	 0.143468
H	-1.9744359173	-0.1223670478	-0.9622250663	 0.110888
H	-1.4715032612	-1.5616524855	-0.0834323717	 0.117622
H	-1.7737539701	-0.3463121118	 2.0838518434	 0.119913
H	-2.3983381584	 1.0544833228	 1.19161653	 0.087349
H	-4.0721054364	-0.4678595649	 1.825696989	 0.288836
H	 0.4883690259	-1.5267941021	-1.5840265114	 0.125346
H	 1.5809019053	-0.1004082069	-1.6311568478	 0.121831
79.1745	91.7274	110.285	164.6497	200.6271	230.2171	255.5251	288.3473	333.0314	372.1596	428.8401	553.1834	713.9028	763.1052	775.1562	808.8705	890.6517	936.0929	963.4061	990.868	1016.8399	1054.2743	1072.7119	1110.7995	1158.3308	1167.034	1205.249	1248.1509	1254.6475	1274.3403	1323.4139	1349.9819	1362.6786	1414.5253	1463.7847	1486.3415	1496.9198	1501.1299	1517.6544	1532.9406	1923.0885	2980.7975	3022.3099	3030.6611	3037.4253	3068.2212	3074.8866	3105.2987	3119.9461	3130.1115	3833.2597
CC1(CCO)COC1=O	C[C@@]1(CCO)COC1=O	
InChI=1S/C6H10O3/c1-6(2-3-7)4-9-5(6)8/h7H,2-4H2,1H3	InChI=1S/C6H10O3/c1-6(2-3-7)4-9-5(6)8/h7H,2-4H2,1H3/t6-/m1/s1
