22
gdb 65566	3.09897	1.03318	0.94444	1.6653	82.43	-0.2371	0.0787	0.3158	1358.1043	0.193418	-404.292137	-404.282686	-404.281742	-404.327498	34.756	
C	-0.0105625764	 1.6401870164	 0.013664146	-0.457813
C	-0.0106917842	 0.1158066564	 0.0142085665	 0.283334
C	-1.4289031756	-0.4570314647	 0.1046016581	-0.204009
N	-2.2805703279	 0.0000981675	-0.9885151586	-0.066529
C	-2.4581294773	-0.9031879033	-2.1227576444	-0.219941
C	-3.5580934438	-0.6830518995	-1.1452062631	-0.221069
C	 0.8926952987	-0.569264936	-1.0472184176	-0.106815
O	 1.6431382036	-1.2652657899	-0.032398315	-0.274352
C	 0.9534907564	-0.5644225524	 1.0202489491	-0.116357
H	 1.0077666949	 2.0338090115	-0.0653689643	 0.110923
H	-0.603746406	 2.0253667466	-0.8194994235	 0.137271
H	-0.4500393646	 2.0288171641	 0.9399916094	 0.11133
H	-1.378010714	-1.5604554126	 0.1552680827	 0.084889
H	-1.8841137463	-0.1142854255	 1.0435163295	 0.101914
H	-2.4843956065	-0.4365039454	-3.1032762088	 0.118343
H	-1.9580126404	-1.8699449227	-2.0904601402	 0.11343
H	-3.7854137102	-1.5028461728	-0.4649257377	 0.1095
H	-4.4054839934	-0.0509068176	-1.3952274136	 0.117918
H	 0.4061715736	-1.2621683974	-1.7431048365	 0.097714
H	 1.5234383102	 0.1225073665	-1.6218333474	 0.093946
H	 1.6157000179	 0.1273377894	 1.5586622834	 0.092451
H	 0.4972433314	-1.2531108685	 1.7437807362	 0.093924
35.2545	66.9422	110.0426	163.373	215.9696	283.3809	316.0022	340.1373	377.5515	420.3483	470.1794	692.3996	770.3073	839.347	853.2653	893.715	900.6562	926.9533	946.4699	977.2105	1008.4419	1020.4833	1033.527	1039.419	1055.8018	1112.9629	1121.1468	1158.5236	1160.6712	1163.9201	1170.8205	1189.4855	1233.659	1291.1017	1308.7502	1318.5696	1326.503	1385.3712	1387.0882	1414.2075	1481.1245	1490.38	1495.3848	1500.1643	1511.476	1523.2408	1536.5264	2930.5291	2994.2922	3008.2066	3028.8962	3033.051	3039.3119	3056.9734	3092.1285	3093.4257	3097.1724	3122.9385	3175.4257	3190.03
CC1(CN2CC2)COC1	CC1(CN2CC2)COC1	
InChI=1S/C7H13NO/c1-7(5-9-6-7)4-8-2-3-8/h2-6H2,1H3	InChI=1S/C7H13NO/c1-7(5-9-6-7)4-8-2-3-8/h2-6H2,1H3
