15
gdb 66869	3.77643	1.81483	1.61022	2.9777	68.6	-0.21	-0.0503	0.1597	829.6545	0.112976	-416.659754	-416.653467	-416.652523	-416.6899	26.627	
O	-0.0882923676	 1.4314975268	 0.0347337579	-0.460991
C	 0.0469686753	 0.0655744505	-0.0465333987	 0.377361
C	 0.0128788234	-0.9181206496	 1.1173220094	-0.108714
N	 0.8749778461	-2.0459677332	 1.0068701847	-0.135427
C	 1.2305614993	-2.037654332	-0.2314611324	 0.072244
N	 0.4965943249	-3.0122186986	-1.0630067799	-0.338304
C	-0.3542058026	-1.7102445541	-1.2753610132	 0.004958
C	-1.0383792057	-0.9983034534	-0.0569223401	-0.154075
C	 0.8399543558	-0.7624917575	-1.0498340644	-0.199048
H	 0.6483124282	 1.7823556206	 0.5484425154	 0.294129
H	-0.3580878533	-0.6034428167	 2.0861413718	 0.108905
H	 0.9511310656	-3.1266562541	-1.9750560121	 0.224652
H	-0.9222018806	-1.7126632398	-2.2054733357	 0.11147
H	-2.0959722241	-0.9287460341	 0.1523982274	 0.111035
H	 1.4662279453	-0.3864109848	-1.8533192699	 0.091804
214.3744	289.9923	304.582	410.6944	521.92	563.1379	575.3799	644.5213	673.537	694.1086	725.4309	758.924	825.3988	855.457	880.3163	884.3299	911.5223	965.4952	994.8686	1028.4603	1038.1771	1064.2528	1100.8119	1129.3368	1173.0067	1180.1308	1202.8645	1224.1644	1254.3114	1296.4138	1323.5876	1460.0842	1539.2882	3123.9432	3163.8524	3189.902	3227.7234	3385.3799	3791.2544
OC12C3N=C4NC(C13)C24	O[C@@]12[C@@H]3[N][C]4N[C@@H]([C@H]13)[C@@H]24	
InChI=1S/C6H6N2O/c9-6-1-3-2(6)5(7-3)8-4(1)6/h1-4,9H,(H,7,8)	InChI=1S/C6H6N2O/c9-6-1-3-2(6)5(7-3)8-4(1)6/h1-4,9H,(H,7,8)/t1-,2+,3-,4+,6-/m0/s1
