19
gdb 66363	2.30135	1.52869	1.40501	1.5759	76.67	-0.2578	0.0402	0.298	1067.1963	0.158209	-422.998957	-422.990283	-422.989339	-423.031658	33.903	
C	 0.047194051	 1.4882873886	 0.0096552196	-0.423416
C	-0.0139880344	-0.0337148815	 0.0020173983	 0.210762
O	 0.6430638966	-0.4603625061	-1.1762840967	-0.25818
C	 0.8160545087	-1.8741249048	-1.256080685	-0.08646
C	 1.5636267361	-2.3870132813	-0.0257141226	-0.207183
C	 0.8396405669	-1.8875387221	 1.2241194358	-0.086462
O	 0.6653256561	-0.4730094557	 1.1629105821	-0.258175
C	-1.419921883	-0.5119791036	 0.012813785	 0.35084
C	-2.5661709712	-0.874145336	 0.0217167876	-0.48087
H	 1.0963044026	 1.7908344313	 0.0013515261	 0.131484
H	-0.4546203588	 1.8835563199	-0.8751028871	 0.133974
H	-0.4377296651	 1.8739359144	 0.9079734118	 0.133972
H	-0.1635216827	-2.3670793262	-1.3442028293	 0.103637
H	 1.3730374154	-2.0527488997	-2.1791250389	 0.111094
H	 1.6093206962	-3.4816363723	-0.0320733746	 0.09916
H	 2.5879421	-1.9996631864	-0.0333571013	 0.112836
H	-0.1381369493	-2.3815128386	 1.3255209337	 0.103638
H	 1.4140566141	-2.0760722482	 2.1344204345	 0.111095
H	-3.5802751891	-1.1907612515	 0.0297584709	 0.198252
125.3969	155.6094	195.1628	208.0926	273.7026	312.8643	336.8408	411.0182	472.0695	480.8784	562.4509	586.6698	640.8166	656.7964	661.7838	717.3593	859.5354	864.3444	904.1642	910.3907	950.5133	983.8908	1066.7591	1114.0369	1139.1757	1160.9512	1182.7056	1237.218	1240.246	1270.141	1317.9213	1371.5433	1400.2546	1400.4897	1417.1374	1466.596	1477.2786	1479.9605	1497.1643	1509.8483	2225.4078	3001.0698	3004.2973	3042.1287	3063.9494	3089.2523	3096.1679	3101.3097	3149.9272	3153.9805	3498.4215
CC1(OCCCO1)C#C	CC1(OCCCO1)C#C	
InChI=1S/C7H10O2/c1-3-7(2)8-5-4-6-9-7/h1H,4-6H2,2H3	InChI=1S/C7H10O2/c1-3-7(2)8-5-4-6-9-7/h1H,4-6H2,2H3
