18
gdb 103088	2.36335	1.16794	1.10266	4.3867	73.54	-0.2692	0.0239	0.2931	1211.3764	0.145358	-439.079639	-439.069641	-439.068697	-439.114323	35.968	
C	-0.1378967245	 1.782582564	 0.393126326	-0.45874
C	-0.072812381	 0.3284004817	-0.022960172	 0.219274
C	-1.3697933133	-0.1903567743	-0.6372930511	-0.146272
O	-1.3262457359	-1.5553516227	-1.0222550953	-0.408681
C	 1.2256498375	-0.2327856814	-0.5116262212	 0.066477
O	 2.3060455649	 0.6338337703	-0.5808096035	-0.409969
C	 0.6852893306	-0.6762827486	 0.8550311174	-0.280312
C	 1.3722796155	-0.2533847078	 2.0367158371	 0.300294
N	 1.9494055905	 0.0777475332	 2.9841388242	-0.349018
H	 0.8121673635	 2.1242973835	 0.8030477948	 0.159156
H	-0.376902806	 2.412123181	-0.4709201363	 0.122704
H	-0.9163480032	 1.9327806451	 1.1483338688	 0.127458
H	-2.1699582676	-0.1060061661	 0.1071906812	 0.124384
H	-1.6449862358	 0.4544479029	-1.4847558832	 0.105139
H	-0.9601238141	-1.6100525588	-1.9094342608	 0.293995
H	 1.1973317617	-1.0065270163	-1.2785097545	 0.085841
H	 3.0898894191	 0.1835337299	-0.2463489866	 0.30312
H	 0.2684690382	-1.6772748057	 0.8917205749	 0.145149
95.2028	108.813	138.8214	167.9983	206.7662	221.5324	263.4177	279.8144	291.8997	361.8374	404.4687	451.0498	550.0521	587.8379	656.6499	703.9008	816.1071	835.4825	962.2785	979.9064	982.6302	1051.8202	1088.5042	1104.5063	1118.153	1170.1251	1232.2683	1238.2165	1275.814	1311.3051	1357.7759	1394.5132	1406.1982	1418.3583	1461.9586	1488.5567	1494.7616	1508.6487	2347.3987	2998.4198	3040.5672	3063.4514	3098.7528	3102.5039	3155.02	3173.8684	3799.4022	3837.2792
CC1(CO)C(O)C1C#N	C[C@@]1(CO)[C@@H](O)[C@H]1C#N	
InChI=1S/C6H9NO2/c1-6(3-8)4(2-7)5(6)9/h4-5,8-9H,3H2,1H3	InChI=1S/C6H9NO2/c1-6(3-8)4(2-7)5(6)9/h4-5,8-9H,3H2,1H3/t4-,5+,6+/m1/s1
