19
gdb 86236	2.24613	1.33204	0.92852	4.6556	76.94	-0.2302	0.0347	0.2649	1279.8608	0.159747	-419.214762	-419.205598	-419.204654	-419.249433	33.416	
C	-0.2080585208	 1.3717162125	 0.03491843	-0.319993
N	 0.1311218912	-0.0363367689	 0.0269857391	-0.056577
C	 0.8037846252	-0.5110151007	-1.1696795746	-0.196355
C	 1.1640982977	-1.9620129253	-0.8070114058	 0.098362
O	 2.3125451914	-2.4663809196	-1.4558722411	-0.42844
C	 1.4596632108	-1.8759440105	 0.7242419399	-0.141618
C	 0.9720015938	-0.4597170575	 1.1399703407	-0.178606
C	 0.8263790412	-2.9511721733	 1.4798463826	 0.265321
N	 0.3199913314	-3.8001225935	 2.0792115278	-0.333046
H	 0.6792933632	 2.0299073837	-0.0319623096	 0.096188
H	-0.865244227	 1.5998324396	-0.8097397524	 0.123983
H	-0.7446090642	 1.6182969811	 0.9566074827	 0.126459
H	 0.1468679089	-0.4369586224	-2.0427242968	 0.103127
H	 1.7403858798	 0.0374334116	-1.3939111154	 0.08572
H	 0.2974535099	-2.6114416747	-0.9748816909	 0.104588
H	 2.0722279951	-2.7147840049	-2.3536191468	 0.292604
H	 2.5421982789	-1.9640039705	 0.8507440942	 0.141529
H	 1.8514792843	 0.1982951606	 1.2709876193	 0.088903
H	 0.4112742393	-0.4589587973	 2.0783227072	 0.12785
29.5557	132.6536	154.9427	218.6646	246.1135	256.2848	284.8624	338.4673	390.8764	458.7794	487.5455	538.304	571.1399	679.1582	826.229	889.76	934.4827	1003.9488	1025.278	1053.2439	1085.4726	1103.8469	1108.6046	1151.4488	1179.3284	1194.7114	1216.9234	1260.8417	1274.827	1284.8094	1331.6306	1340.7132	1368.3509	1382.1117	1431.7743	1461.3717	1488.8424	1501.7252	1510.3247	1525.8081	2358.0046	2909.8375	2922.0645	2931.8804	3038.6713	3063.1805	3067.8268	3080.5789	3087.6668	3107.1261	3830.0877
CN1CC(O)C(C1)C#N	CN1C[C@@H](O)[C@@H](C1)C#N	
InChI=1S/C6H10N2O/c1-8-3-5(2-7)6(9)4-8/h5-6,9H,3-4H2,1H3	InChI=1S/C6H10N2O/c1-8-3-5(2-7)6(9)4-8/h5-6,9H,3-4H2,1H3/t5-,6-/m1/s1
