20
gdb 23417	3.11072	1.27657	1.03372	0.9062	81.92	-0.236	0.0094	0.2454	1198.7836	0.172425	-403.116185	-403.108034	-403.10709	-403.149251	31.9	
O	-0.2895378186	 1.354325397	-0.1742310102	-0.396281
N	-0.0814116826	-0.0275562596	 0.0100422204	-0.23628
C	-1.1788480683	-0.6726465817	-0.0067315093	 0.409714
C	-2.5868154325	-0.1291817128	-0.1345828181	-0.308649
C	-3.459046773	-1.1951746035	 0.5633933949	-0.233236
C	-2.7128073296	-2.5220512874	 0.3577954073	 0.001284
C	-2.7400815805	-3.1355377609	-1.0753424386	-0.229608
C	-1.1962459008	-2.9897871652	-1.1683490441	-0.219458
C	-1.1965163714	-2.1723939035	 0.16373941	-0.101393
H	 0.6032822753	 1.7039258828	-0.0854573402	 0.30358
H	-2.6707227434	 0.8698162953	 0.2970503374	 0.129418
H	-2.8463083284	-0.0331827886	-1.1971813761	 0.121691
H	-3.5215667872	-0.9703981743	 1.6344218892	 0.103537
H	-4.4830576346	-1.2243056901	 0.1777134125	 0.098253
H	-2.9270945147	-3.2514065116	 1.1411129683	 0.067104
H	-3.1280909133	-4.1541593181	-1.1468974491	 0.099303
H	-3.2845854558	-2.5188337654	-1.796885539	 0.098331
H	-0.6703801374	-3.9415637062	-1.0613779631	 0.104049
H	-0.7974492671	-2.4734107714	-2.0445880364	 0.105521
H	-0.4757480562	-2.4999986447	 0.9141776644	 0.083121
51.5655	143.4576	181.4395	236.3348	339.7835	344.8068	392.0427	449.8109	563.8094	621.4305	649.6721	716.3376	748.7534	799.1998	826.8609	867.5856	896.6105	948.7105	957.6213	961.3604	984.2592	999.3758	1027.9064	1063.965	1121.4109	1168.0971	1179.6252	1200.5333	1223.61	1240.3133	1258.9226	1267.0191	1273.0737	1295.775	1313.2413	1329.1287	1349.5706	1404.1183	1469.3785	1480.0565	1491.6131	1498.3613	1746.7351	3027.1686	3036.7909	3053.4224	3063.3635	3081.3312	3083.9517	3099.1134	3101.8858	3114.5855	3121.2436	3819.4854
ON=C1CCC2CCC12	ON=C1CC[C@H]2CC[C@@H]12	
InChI=1S/C7H11NO/c9-8-7-4-2-5-1-3-6(5)7/h5-6,9H,1-4H2	InChI=1S/C7H11NO/c9-8-7-4-2-5-1-3-6(5)7/h5-6,9H,1-4H2/t5-,6-/m1/s1
