12
gdb 131460	3.60611	1.1673	0.90745	1.84	58.1	-0.2708	-0.0293	0.2415	1158.2112	0.076543	-509.757667	-509.750057	-509.749113	-509.790755	26.788	
O	 0.3793401319	 1.08161265	 0.7157829116	-0.416868
C	 0.1576866001	-0.1630794452	 0.2755066977	 0.384915
N	 0.3212953109	-0.5275822447	-0.9706685279	-0.232532
O	-0.0154737144	-1.8845796609	-1.0041003305	-0.167317
C	-0.354615338	-2.2881274067	 0.2276795583	 0.0174
C	-0.2689097969	-1.2504231308	 1.0971375893	 0.113025
O	-0.6143312861	-1.2365837365	 2.4206361636	-0.221151
C	 0.3169870542	-0.7730261474	 3.3138985651	 0.162944
O	 0.0716104728	-0.6815555543	 4.472193146	-0.245803
H	 0.6496147331	 1.6262924243	-0.0360646473	 0.321959
H	-0.6462746322	-3.3197749433	 0.3419644326	 0.174282
H	 1.2741055847	-0.5178760245	 2.8294250016	 0.109146
55.662	114.8454	154.942	281.3836	304.0416	397.6923	445.8388	468.8271	541.1722	592.0304	719.6844	732.3808	840.3732	856.2137	905.5537	951.3686	1033.0079	1108.2333	1158.2257	1210.5382	1284.7929	1310.2461	1416.8183	1494.732	1588.0691	1679.3678	1888.1054	3009.0947	3275.52	3779.8409
OC1=NOC=C1OC=O	Oc1nocc1OC=O	
InChI=1S/C4H3NO4/c6-2-8-3-1-9-5-4(3)7/h1-2H,(H,5,7)	InChI=1S/C4H3NO4/c6-2-8-3-1-9-5-4(3)7/h1-2H,(H,5,7)
