13
gdb 53779	3.22856	1.08854	0.94415	1.9707	67.39	-0.2497	-0.1112	0.1385	1232.5072	0.083661	-456.551927	-456.54217	-456.541226	-456.588306	32.292	
C	 0.2790257179	 1.2100330435	 0.4043180116	-0.490894
C	-0.2519921278	-0.1724590486	 0.1419284771	 0.312011
O	-1.0169715121	-0.7793776377	 0.8506771297	-0.264866
C	 0.1391224062	-0.8194439668	-1.2034871212	 0.205334
O	 0.2825353561	-0.1757175938	-2.2114207828	-0.263852
C	 0.3370679884	-2.3485776222	-1.1811588637	 0.191556
O	 0.9490797204	-2.8415488226	-0.2609681712	-0.263998
C	-0.1447812387	-3.07358288	-2.3285957802	 0.266722
C	-0.5874120398	-3.6597128729	-3.2821576958	-0.396882
H	 0.1298176239	 1.8401906645	-0.4770850508	 0.166937
H	-0.2086737294	 1.6382758406	 1.2802827564	 0.151794
H	 1.3611987684	 1.1547181327	 0.5746045554	 0.159006
H	-0.9721742436	-4.1863338766	-4.1222613045	 0.227132
24.2768	52.6308	120.456	131.8853	163.4631	209.2393	239.4139	313.3574	358.6953	439.0364	507.4009	589.7799	622.3487	659.9251	721.1513	723.3974	780.9765	883.0136	994.1186	1041.9646	1167.7614	1282.985	1381.7614	1458.8252	1460.9057	1756.7545	1803.5728	1815.3643	2214.917	3041.0909	3109.2737	3162.6196	3490.5473
CC(=O)C(=O)C(=O)C#C	CC(=O)C(=O)C(=O)C#C	
InChI=1S/C6H4O3/c1-3-5(8)6(9)4(2)7/h1H,2H3	InChI=1S/C6H4O3/c1-3-5(8)6(9)4(2)7/h1H,2H3
