25
gdb 103635	2.13632	1.22496	1.16275	1.568	88.46	-0.2367	0.0772	0.3138	1325.7426	0.22658	-389.497598	-389.486721	-389.485777	-389.533349	40.815	
C	-0.4703739474	 1.4401909184	 0.4336304495	-0.392685
C	-0.0823874719	-0.0234570136	 0.1910632772	-0.21007
C	 0.9182746124	-0.5707244469	 1.2152580794	 0.436367
C	 2.2589969884	 0.1559298042	 1.1748354008	-0.439294
O	 0.3489465921	-0.5101062178	 2.5576875039	-0.348374
C	 0.4040893749	-1.9453600326	 2.723585074	 0.155239
C	-0.9612265777	-2.5423289529	 3.0166008095	-0.401478
C	 1.0449864142	-2.1260079175	 1.3196901905	-0.115719
C	 0.3841344313	-3.0366170835	 0.2920161119	-0.419375
H	 0.3655208255	 2.1239153112	 0.2587572448	 0.114337
H	-1.2837579662	 1.7389045759	-0.2344695224	 0.107598
H	-0.8089481095	 1.5733775597	 1.465017243	 0.137067
H	-0.9898822715	-0.6341766834	 0.2291763867	 0.093081
H	 0.3350964203	-0.1449791893	-0.81694394	 0.089955
H	 2.1400052469	 1.2203325868	 1.3949569127	 0.124552
H	 2.9412675633	-0.264428949	 1.9191911762	 0.114148
H	 2.7240881872	 0.0593793151	 0.1869563372	 0.10949
H	 1.0899206331	-2.2067095319	 3.5419452094	 0.067943
H	-1.6847891686	-2.3071372335	 2.231456455	 0.117101
H	-0.8967519106	-3.6313770451	 3.1182687141	 0.111466
H	-1.3437496054	-2.136280596	 3.9584674566	 0.124684
H	 2.0967139482	-2.4149352363	 1.4062908627	 0.071124
H	-0.6819893342	-2.8362727825	 0.1622439961	 0.120292
H	 0.8631810112	-2.9290468657	-0.6870662652	 0.117151
H	 0.487172364	-4.0855365439	 0.5906295664	 0.1154
38.6587	91.9063	175.1833	204.0662	213.5943	221.3684	228.4143	261.3024	276.2202	311.7486	342.8732	408.3975	440.1966	493.8354	526.9164	664.4504	752.643	784.1407	787.4925	881.8146	906.3068	924.235	993.8896	1002.8344	1014.4972	1035.2276	1041.7886	1074.0541	1089.2263	1142.7437	1166.9261	1178.6163	1222.3082	1235.2455	1277.4169	1309.8787	1324.1699	1369.5985	1384.1243	1393.6573	1403.6111	1406.7233	1408.9957	1419.0737	1469.91	1480.0804	1485.442	1489.4164	1494.3025	1503.4084	1506.8955	1507.6505	1512.5459	2991.1986	3025.3486	3033.478	3033.9934	3037.7346	3042.983	3055.6578	3072.4436	3093.5207	3103.6527	3103.7689	3107.6758	3113.8762	3116.787	3121.7609	3123.3545
CCC1(C)OC(C)C1C	CC[C@@]1(C)O[C@@H](C)[C@H]1C	
InChI=1S/C8H16O/c1-5-8(4)6(2)7(3)9-8/h6-7H,5H2,1-4H3	InChI=1S/C8H16O/c1-5-8(4)6(2)7(3)9-8/h6-7H,5H2,1-4H3/t6-,7+,8-/m1/s1
