18
gdb 34031	3.14867	1.35479	1.16739	0.6118	78.79	-0.229	0.0338	0.2628	1099.8676	0.148156	-401.880088	-401.872122	-401.871178	-401.912402	31.233	
C	 0.0090238432	-1.1934763921	 0.0596335699	-0.379865
C	 0.0301538093	 0.0066761276	-0.0115760374	 0.250694
C	-0.0193848087	 1.4451207776	-0.0745161059	 0.090396
C	 0.4428513037	 2.1746993459	-1.2938482924	-0.269343
N	 1.2865864894	 2.1503096733	-0.1051962031	-0.127494
C	 1.4185934569	 3.4114246008	 0.6483472949	-0.15919
C	 0.2314880754	 3.7172453051	 1.56343831	-0.087642
O	-0.996261595	 3.4528534145	 0.9018435809	-0.240025
C	-1.1639123902	 2.0624913118	 0.7338655687	-0.17599
H	 0.0119808449	-2.2540073079	 0.1134221735	 0.192077
H	 0.8177912945	 1.6165694297	-2.1471784322	 0.119277
H	-0.0849244367	 3.0977542452	-1.5266686952	 0.1227
H	 2.3340695837	 3.3539038435	 1.2491466548	 0.11105
H	 1.5530849077	 4.2267192455	-0.0710647235	 0.112398
H	 0.2895054896	 3.1154712487	 2.4846425164	 0.098461
H	 0.224653227	 4.7729966885	 1.8483688829	 0.113454
H	-2.1159150914	 1.9091913558	 0.2175176573	 0.124801
H	-1.2197526733	 1.5615927765	 1.7134060304	 0.104242
106.2799	142.2182	164.786	282.4146	374.5594	401.1175	416.9259	498.0586	519.6569	551.5997	589.762	615.1547	652.362	730.1214	764.2817	868.9451	878.7201	925.4194	953.4445	1001.2167	1059.7939	1093.5295	1117.3792	1142.028	1149.0569	1166.7456	1227.3766	1262.2989	1272.4355	1318.2624	1345.9793	1375.5706	1392.7634	1425.1909	1486.7213	1492.3883	1502.4019	1505.9975	2236.748	2977.8998	2983.8005	3027.8373	3067.6964	3086.1285	3092.199	3095.6266	3189.4437	3502.6004
C#CC12CN1CCOC2	C#C[C@]12CN1CCOC2	
InChI=1S/C7H9NO/c1-2-7-5-8(7)3-4-9-6-7/h1H,3-6H2	InChI=1S/C7H9NO/c1-2-7-5-8(7)3-4-9-6-7/h1H,3-6H2/t7-,8?/m1/s1
