22
gdb 106774	2.05991	1.51336	1.08964	2.1318	82.99	-0.2379	0.0714	0.3092	1240.0619	0.192687	-404.319431	-404.309477	-404.308533	-404.354111	37.39	
C	 0.0313611409	 1.483109449	-0.3473827043	-0.381284
C	 0.0334296573	 0.0358365153	 0.1638117371	-0.285728
C	-1.345729492	-0.5518283722	 0.2330239923	 0.314016
N	-2.0246714162	-0.98527026	-0.9895246161	-0.410875
C	-1.8819708969	-1.9562589348	 0.1009793283	 0.274702
C	-1.2123185541	-3.2691459811	-0.1714548893	-0.485926
C	-2.9486778615	-1.6855648513	 1.1739466281	-0.329274
C	-2.4029138216	-0.2214568316	 1.3014752805	 0.059305
O	-1.7789408752	 0.0660376352	 2.5348563548	-0.435012
H	 1.0488997709	 1.8818325965	-0.4020158328	 0.108835
H	-0.4102974872	 1.5393933253	-1.3472482543	 0.123363
H	-0.5457640145	 2.1342011461	 0.3175483343	 0.11894
H	 0.6462742857	-0.588658215	-0.4955753345	 0.101616
H	 0.4806325236	-0.0060384735	 1.162886509	 0.113126
H	-2.9717812444	-0.6173193368	-1.0761463815	 0.215743
H	-0.3919253762	-3.1414596011	-0.8825126226	 0.131218
H	-0.8137599951	-3.7068788628	 0.7500229079	 0.116897
H	-1.919919051	-3.9863896752	-0.605040469	 0.118521
H	-3.9919403053	-1.8248694071	 0.8660673473	 0.085403
H	-2.7692785241	-2.228310464	 2.1063865918	 0.103835
H	-3.1072921329	 0.578186066	 1.0207169543	 0.057263
H	-2.4615347903	 0.1415702831	 3.2091083088	 0.285314
59.1067	120.7488	144.0893	183.7418	199.8581	244.6901	272.2867	273.8734	340.2907	435.2578	455.3743	488.2629	507.5016	604.6615	708.7847	755.1264	788.3631	827.0667	869.2924	923.7615	967.9537	983.2923	1013.3147	1054.2298	1082.7683	1097.644	1109.2061	1143.9501	1174.19	1182.5976	1202.2277	1230.7596	1257.9722	1277.2492	1309.6769	1338.1741	1366.3785	1402.026	1406.6373	1417.7174	1458.1665	1472.7107	1481.0819	1488.6105	1498.5899	1500.7078	1511.4571	2961.9414	3025.6819	3029.5127	3035.3571	3040.8592	3078.8194	3085.7853	3096.9569	3105.4587	3111.8918	3118.2418	3440.4424	3817.4664
CCC12NC1(C)CC2O	CC[C@@]12N[C@]1(C)C[C@H]2O	
InChI=1S/C7H13NO/c1-3-7-5(9)4-6(7,2)8-7/h5,8-9H,3-4H2,1-2H3	InChI=1S/C7H13NO/c1-3-7-5(9)4-6(7,2)8-7/h5,8-9H,3-4H2,1-2H3/t5-,6-,7+/m1/s1
