17
gdb 38098	3.0225	2.01519	1.43326	2.0076	76.32	-0.2431	-0.0011	0.242	907.4354	0.139293	-380.864407	-380.857997	-380.857053	-380.894907	26.551	
C	-0.1255428227	 1.4078586157	 0.1112593254	-0.316239
N	 1.2355694814	 0.8355688782	-0.0955992111	-0.149628
C	 1.906541214	 0.5452623767	 1.1307498474	 0.028566
N	 1.4799338762	-0.3979093459	 1.8704979564	-0.214672
C	 0.256699923	-0.9220309379	 1.2227485706	-0.083288
C	 0.3775820364	-2.3039986959	 0.6200156861	-0.067401
C	 0.0711916009	-2.3123829663	-0.6773249703	-0.068016
C	-0.2904498569	-0.9431097856	-1.2140602688	-0.360372
C	 0.0472159293	-0.0501024285	-0.0307217219	 0.317484
H	-0.3564753517	 1.8066644362	 1.0966495143	 0.124163
H	-0.4873896168	 2.0017024181	-0.7232517798	 0.125233
H	 2.7964112607	 1.1231606231	 1.3651710849	 0.126
H	-0.5550196668	-0.885005149	 1.9610841436	 0.092862
H	 0.6593228174	-3.1653536272	 1.2130624384	 0.107035
H	 0.058670176	-3.1961443873	-1.3053341699	 0.100114
H	 0.2832309871	-0.6654804542	-2.1050429744	 0.125609
H	-1.3537187275	-0.8830048201	-1.4840350208	 0.11255
153.6303	246.5644	338.7705	386.5669	439.0333	501.4054	592.9045	628.9088	708.8642	767.0806	786.2642	829.419	873.7521	912.898	934.1918	944.7264	958.5447	977.2507	985.989	1014.3074	1053.6458	1058.8197	1121.8789	1123.8326	1147.9662	1181.5455	1221.7874	1276.5438	1285.3237	1287.5656	1323.5791	1363.0744	1402.4861	1476.2688	1501.5813	1659.8535	1682.4243	3016.5228	3018.8509	3067.5701	3102.9917	3181.9589	3191.7168	3194.064	3219.7896
C1N2C=NC3C=CCC123	C1N2C=N[C@@H]3C=CC[C@]123	
InChI=1S/C7H8N2/c1-2-6-7(3-1)4-9(7)5-8-6/h1-2,5-6H,3-4H2	InChI=1S/C7H8N2/c1-2-6-7(3-1)4-9(7)5-8-6/h1-2,5-6H,3-4H2/t6-,7-,9?/m1/s1
