15
gdb 106101	3.062	1.32282	1.17462	3.7239	65.35	-0.2343	-0.0109	0.2234	1059.407	0.111695	-457.694842	-457.687248	-457.686304	-457.72739	28.474	
O	 0.2331217552	 1.3656576099	 0.1235703411	-0.400763
C	 0.0580013462	-0.0256192256	-0.0759065773	-0.209951
C	-1.3782736462	-0.4356893141	-0.0477310881	 0.25863
C	-2.4149313014	-0.732517445	 0.9713831	 0.031604
O	-3.4473640702	 0.0414979524	 0.3598704478	-0.285033
C	-2.6682222983	-0.0304293875	-0.8669874127	-0.125913
C	-2.7365574654	-1.5309994917	-1.2507816195	 0.475231
O	-3.004360558	-2.1285963145	-2.2518760734	-0.329342
C	-2.0250890954	-1.8706114658	 0.0256126325	-0.305905
H	-0.1556383262	 1.5947254465	 0.9744558973	 0.289153
H	 0.4922946105	-0.2417695755	-1.057693819	 0.133591
H	 0.6152292177	-0.6239335048	 0.6626622238	 0.102574
H	-2.3867728096	-0.8259066068	 2.0500556491	 0.126982
H	-2.8174261922	 0.793626395	-1.5582878017	 0.116478
H	-1.5643506367	-2.7947478224	 0.3456624001	 0.122665
80.9137	114.4466	170.1655	267.7698	346.1717	413.6309	427.8749	521.4377	623.8194	632.6992	743.0484	773.8504	788.5234	850.2881	901.4951	921.1377	942.745	979.9417	1016.2014	1054.7374	1073.317	1089.9169	1119.0367	1136.0909	1187.906	1219.4344	1248.7174	1295.9148	1370.3615	1416.8122	1445.8251	1493.7385	1890.6079	2979.7867	3073.477	3179.8696	3197.5542	3227.3738	3811.8807
OCC12C3OC1C(=O)C23	OC[C@@]12[C@H]3O[C@@H]1C(=O)[C@@H]23	
InChI=1S/C6H6O3/c7-1-6-2-3(8)5(6)9-4(2)6/h2,4-5,7H,1H2	InChI=1S/C6H6O3/c7-1-6-2-3(8)5(6)9-4(2)6/h2,4-5,7H,1H2/t2-,4+,5-,6-/m1/s1
