16
gdb 64832	2.92186	1.24977	1.16749	3.9211	77.53	-0.2487	-0.0355	0.2132	1117.8884	0.123185	-400.76012	-400.751617	-400.750673	-400.793053	32.426	
C	-0.0680998672	 1.5831688655	 0.0394894258	-0.407508
C	-0.0064361771	 0.039832581	 0.0029150891	 0.029307
N	 0.8166939353	-0.4407685454	-1.1020300365	-0.338003
C	 1.8556378913	-1.2613834287	-0.6989005099	 0.397751
O	 2.6184948539	-1.8610330027	-1.4225357238	-0.376248
C	 1.8155264694	-1.2241046295	 0.7959231467	-0.199632
C	 0.7645366763	-0.5142339852	 1.1971210927	-0.075534
C	-1.3647875277	-0.5204892719	-0.0427274585	 0.341034
C	-2.4848836378	-0.9533977523	-0.0874808297	-0.487434
H	 0.9459601873	 1.9885782508	 0.0737707514	 0.133388
H	-0.5743070372	 1.9611350589	-0.8526133411	 0.131386
H	-0.6249451156	 1.9217719199	 0.9173996653	 0.130756
H	 0.4794558192	-0.4624388595	-2.0508993466	 0.256222
H	 2.5521117425	-1.7319064463	 1.4019007845	 0.130215
H	 0.4417433763	-0.3031620125	 2.2080211822	 0.128031
H	-3.4695292288	-1.3502453421	-0.1274759815	 0.20627
77.6466	142.7418	189.5006	241.3182	251.5539	347.844	425.6145	443.4249	460.9015	506.1013	550.74	607.2478	636.9497	658.7702	682.9574	730.5616	833.5747	850.8055	929.3046	936.9807	975.8439	984.0549	1077.4262	1120.823	1181.037	1193.8821	1270.3518	1339.7643	1388.8895	1406.4753	1482.5348	1492.1342	1660.2911	1828.3269	2233.2789	3046.4436	3125.661	3134.8885	3221.6992	3251.2885	3498.4399	3653.8317
CC1(NC(=O)C=C1)C#C	C[C@]1(NC(=O)C=C1)C#C	
InChI=1S/C7H7NO/c1-3-7(2)5-4-6(9)8-7/h1,4-5H,2H3,(H,8,9)	InChI=1S/C7H7NO/c1-3-7(2)5-4-6(9)8-7/h1,4-5H,2H3,(H,8,9)/t7-/m0/s1
