21
gdb 121863	3.65159	0.64491	0.57657	3.6601	76.49	-0.265	-0.0268	0.2382	1910.1777	0.17897	-461.379659	-461.368548	-461.367604	-461.417116	38.624	
C	-0.0995800296	 1.4038395218	 0.0538255837	-0.480799
C	 0.0842270091	-0.0961364581	 0.0495048279	 0.366445
O	 0.2820769117	-0.7267577544	 1.0675115543	-0.319435
C	 0.0185210122	-0.8476315767	-1.2834487853	 0.034659
O	 0.2721665251	-2.2090171895	-1.0673031442	-0.435178
C	-1.3385351193	-0.6466046559	-1.9866127994	-0.216009
C	-1.403738772	-1.3886836113	-3.3238426348	-0.161747
C	-2.7635146223	-1.2644695308	-3.9979613265	-0.077114
O	-2.7015524298	-1.9591885326	-5.2338179231	-0.419645
H	 0.4108626592	 1.8730977597	-0.7923938357	 0.140703
H	-1.1655363666	 1.6422042926	-0.0379242141	 0.156074
H	 0.2690804867	 1.8155302688	 0.994235055	 0.150225
H	 0.805653259	-0.4185737632	-1.9302850236	 0.086305
H	 0.3859743472	-2.2932947185	-0.1058345027	 0.29179
H	-2.1283002972	-1.0108065789	-1.3162345925	 0.104666
H	-1.5137667122	 0.4251731684	-2.1442799163	 0.093189
H	-0.6389292072	-0.9984656999	-4.0070108132	 0.102518
H	-1.17747832	-2.4466363971	-3.1640755128	 0.135086
H	-3.5429027498	-1.6853670899	-3.3412257391	 0.085083
H	-3.0107359536	-0.2000894768	-4.1517375871	 0.077978
H	-3.5660478805	-1.9088047576	-5.6516197504	 0.285207
53.0147	68.5243	88.1713	107.1285	118.0227	151.3864	213.0977	259.8848	295.1638	321.8189	404.1132	436.6467	460.1078	495.2166	589.7817	639.886	765.1446	813.3745	867.6836	960.3528	975.7106	999.9929	1031.7588	1062.4311	1084.4071	1125.7166	1154.0791	1204.4343	1218.9422	1229.1688	1273.6271	1300.6548	1306.0357	1320.7875	1364.683	1382.2226	1386.3468	1440.8933	1463.576	1466.1794	1472.4941	1478.8433	1501.7355	1529.0429	1793.1436	2941.0958	2951.4006	2977.9633	3015.9486	3037.2488	3042.4808	3059.7748	3105.4574	3106.4731	3152.2362	3662.5673	3830.6662
CC(=O)C(O)CCCO	CC(=O)[C@@H](O)CCCO	
InChI=1S/C6H12O3/c1-5(8)6(9)3-2-4-7/h6-7,9H,2-4H2,1H3	InChI=1S/C6H12O3/c1-5(8)6(9)3-2-4-7/h6-7,9H,2-4H2,1H3/t6-/m0/s1
