18
gdb 46500	3.9528	1.17217	1.01803	2.0782	73.23	-0.2578	0.0257	0.2835	1173.8062	0.148953	-439.081647	-439.073856	-439.072912	-439.114443	30.099	
N	-0.1232371784	 1.396272343	 0.170314395	-0.517209
C	-0.0000874851	 0.1376953399	 0.2016796683	 0.407182
C	-1.1166530065	-0.7997766702	-0.1826927249	-0.308689
C	-1.2543972006	-1.9090297718	 0.873995803	-0.294569
C	 0.0768135387	-2.6292236031	 1.0576904201	 0.401531
C	 0.2759639355	-3.6156552998	 2.1250126951	-0.232614
O	 0.1169745348	-4.0296561513	 0.7622150447	-0.269262
C	 1.2584606792	-1.877824081	 0.461110833	-0.166042
O	 1.1482270361	-0.4641311306	 0.6456519427	-0.242871
H	 0.7454128221	 1.8415049445	 0.4751256956	 0.218754
H	-2.029633168	-0.213913697	-0.2863006105	 0.138775
H	-0.9003954331	-1.2452994869	-1.1623254488	 0.128329
H	-1.5692233636	-1.4607977952	 1.8228443254	 0.123867
H	-2.0144963228	-2.6402997268	 0.5863015239	 0.125801
H	 1.2680031203	-3.7683367381	 2.5487670278	 0.117417
H	-0.5533458247	-3.86616535	 2.7859224248	 0.119397
H	 2.2007093538	-2.1692261419	 0.9281065576	 0.125413
H	 1.3248674425	-2.1159714536	-0.6088313227	 0.12479
44.5336	147.7715	228.2415	328.8053	351.5379	380.0934	380.7491	453.4641	497.7802	595.5939	676.2258	720.7869	786.0151	825.7228	905.585	913.3198	916.1458	957.5234	985.1965	1022.8773	1046.9762	1093.7249	1128.5046	1130.3321	1163.6284	1190.0574	1211.4564	1258.8831	1277.0934	1319.6391	1336.0558	1355.3318	1399.0875	1436.5225	1476.6799	1482.3447	1506.686	1531.4557	1760.4123	3020.0222	3033.5381	3047.8458	3078.1237	3101.4654	3116.6895	3137.9626	3165.2917	3458.9212
N=C1CCC2(CO2)CO1	[NH][C]1CC[C@]2(CO2)CO1	
InChI=1S/C6H9NO2/c7-5-1-2-6(3-8-5)4-9-6/h7H,1-4H2	InChI=1S/C6H9NO2/c7-5-1-2-6(3-8-5)4-9-6/h7H,1-4H2/t6-/m1/s1
