18
gdb 66211	3.2461	1.25302	1.15851	0.556	72.48	-0.2528	-0.0376	0.2153	1111.7549	0.14692	-439.111733	-439.103088	-439.102144	-439.145329	31.824	
C	-0.0943299482	 1.7264570782	 0.1197289804	-0.428382
C	 0.0022890263	 0.2039291625	 0.0665803599	 0.273206
C	 0.6830403889	-0.3284565777	-1.2106590167	-0.25889
C	 2.1870165716	-0.0408469499	-1.1599755412	-0.175003
N	 2.7961363817	-0.4046919842	 0.1136654403	-0.259371
C	 2.0414250217	-0.5019174773	 1.1207089284	 0.126977
O	 0.7034959108	-0.2871873859	 1.2294724039	-0.272585
C	-1.3825925389	-0.4384774646	 0.1538659278	 0.132896
O	-2.372048394	 0.026351579	-0.3445989787	-0.251639
H	 0.8770095042	 2.1930056956	-0.059694412	 0.129254
H	-0.806003969	 2.0684025324	-0.6351365389	 0.146086
H	-0.4536766072	 2.0442005351	 1.1017170837	 0.13535
H	 0.527265463	-1.412527437	-1.2719068415	 0.115112
H	 0.2082804755	 0.1212253103	-2.0872300557	 0.124053
H	 2.7002974538	-0.5940053327	-1.953599878	 0.118596
H	 2.3876776882	 1.0207199836	-1.3545534032	 0.120156
H	 2.4373625721	-0.7988362207	 2.0901315287	 0.12832
H	-1.3841757505	-1.4081819866	 0.6984885228	 0.095862
68.4177	84.0618	196.9635	209.2241	248.8695	282.7306	355.2937	402.4296	417.2652	493.3781	551.2434	628.3146	741.892	793.6488	871.9251	877.6495	934.2151	960.9782	991.1105	998.6615	1016.1884	1034.4544	1137.8239	1163.5817	1198.1055	1207.8488	1266.4545	1277.1063	1363.8516	1367.7967	1389.2524	1410.06	1411.8196	1474.1325	1484.1051	1489.2206	1503.2244	1736.984	1840.4141	2899.5865	3023.329	3033.824	3055.7177	3065.4643	3098.0776	3131.4082	3141.3394	3160.9147
CC1(CCN=CO1)C=O	C[C@]1(CCN=CO1)C=O	
InChI=1S/C6H9NO2/c1-6(4-8)2-3-7-5-9-6/h4-5H,2-3H2,1H3	InChI=1S/C6H9NO2/c1-6(4-8)2-3-7-5-9-6/h4-5H,2-3H2,1H3/t6-/m0/s1
