21
gdb 121486	4.73297	0.58457	0.52708	1.7903	87.31	-0.2421	-0.0084	0.2337	2130.6293	0.18052	-420.455433	-420.444489	-420.443545	-420.49304	37.654	
C	-0.0223095686	 1.5741501095	 0.0740687936	-0.393236
C	-0.294257727	 0.0668187206	 0.0743207017	-0.17819
C	-1.7680019668	-0.2417346389	 0.3641170245	-0.109292
N	-2.2082253712	-1.6273615983	 0.4032781638	-0.272537
C	-1.3845475612	-2.5658763195	 0.2003028209	 0.118841
N	-1.8169227476	-3.8870314603	 0.2401552402	-0.341916
C	-0.9892492914	-4.9754535906	 0.0309584358	 0.409826
C	-1.6953036359	-6.3160520672	 0.1266126868	-0.499868
O	 0.1944314677	-4.8544085868	-0.206805071	-0.344197
H	 1.0304307054	 1.7876057145	-0.1331695257	 0.115862
H	-0.6215942582	 2.085481915	-0.6873515711	 0.116978
H	-0.268030609	 2.0219782973	 1.0433132255	 0.116977
H	-0.0095407894	-0.3564173611	-0.8973292441	 0.105034
H	 0.3422218679	-0.4196078164	 0.8243747944	 0.10503
H	-2.0469425326	 0.2088365291	 1.3276119375	 0.108675
H	-2.395599121	 0.2713825079	-0.3788374506	 0.108679
H	-0.3189477869	-2.4862962041	-0.0147446425	 0.135603
H	-2.7982390002	-4.0229781682	 0.4358902161	 0.255531
H	-2.1411055483	-6.4506504012	 1.1178062594	 0.14355
H	-2.5007778517	-6.3851902955	-0.6121097257	 0.143344
H	-0.9696842141	-7.1079577557	-0.0540692594	 0.155305
42.8187	63.4497	83.0272	84.8899	123.5333	205.0359	211.1419	231.4097	289.1057	317.9682	384.5463	428.9774	582.9585	613.9137	639.8398	654.8478	749.0912	882.2746	890.0777	953.5354	981.5038	1014.7245	1032.2563	1052.421	1075.8456	1118.0152	1163.6046	1219.8125	1253.5378	1282.8814	1322.0195	1328.1119	1354.9107	1387.1173	1403.858	1414.2255	1466.0731	1477.5301	1482.2264	1493.9559	1499.0452	1510.1041	1511.1661	1754.1908	1803.0383	3001.0427	3019.1964	3021.9894	3031.2868	3043.3341	3058.1949	3097.5248	3105.6265	3105.7019	3139.194	3167.0782	3614.5491
CCCN=CNC(C)=O	CCCN=CNC(=O)C	
InChI=1S/C6H12N2O/c1-3-4-7-5-8-6(2)9/h5H,3-4H2,1-2H3,(H,7,8,9)	InChI=1S/C6H12N2O/c1-3-4-7-5-8-6(2)9/h5H,3-4H2,1-2H3,(H,7,8,9)
