15
gdb 10909	3.39093	2.02549	1.46209	3.1567	62.32	-0.2283	0.0036	0.2319	857.1607	0.117936	-399.780443	-399.772767	-399.771823	-399.812211	28.207	
C	-0.0930176941	 1.3309514821	-0.282098525	-0.345685
N	-0.04106092	 0.0062093023	 0.303431589	-0.091253
C	-1.0798588561	-1.0254997976	 0.238872192	-0.100787
C	-0.9719329658	-1.8055454276	-1.0483064805	-0.325172
C	 0.0118739154	-2.0808251789	 0.074139511	 0.263635
O	 0.1538425102	-3.3535731115	 0.5604486992	-0.444323
C	 1.0049801312	-0.9120368045	 0.1323632672	 0.315416
O	 2.1926266426	-0.7601839681	 0.0516098337	-0.357129
H	 0.9310212137	 1.706430037	-0.3503260447	 0.156712
H	-0.5351948752	 1.3227381341	-1.2883094982	 0.120113
H	-0.6740757604	 2.011665524	 0.3473573956	 0.129962
H	-1.9313222651	-1.0168065081	 0.9058385731	 0.118759
H	-1.6944498102	-2.6071218779	-1.1785806861	 0.133497
H	-0.6586497893	-1.3190354184	-1.9676778668	 0.126981
H	 0.5330403731	-3.304277857	 1.4454874706	 0.299273
128.7371	153.9522	181.4399	235.0589	271.9837	335.0513	373.927	483.5352	531.7614	608.9596	713.3687	774.313	814.3448	900.5683	928.0022	942.8723	964.0359	1008.5594	1053.3043	1096.0128	1149.9372	1186.8136	1226.8177	1250.1673	1329.1501	1353.3988	1417.5789	1444.7199	1485.0123	1491.3049	1512.4333	1881.9339	3005.2738	3079.4255	3114.3279	3127.7285	3203.0348	3212.6406	3796.3997
CN1C2CC2(O)C1=O	CN1[C@H]2C[C@@]2(O)C1=O	
InChI=1S/C5H7NO2/c1-6-3-2-5(3,8)4(6)7/h3,8H,2H2,1H3	InChI=1S/C5H7NO2/c1-6-3-2-5(3,8)4(6)7/h3,8H,2H2,1H3/t3-,5-/m0/s1
