18
gdb 17208	4.44546	1.79285	1.58683	1.5904	71.51	-0.2225	0.0757	0.2982	869.9586	0.154261	-347.754218	-347.74731	-347.746365	-347.785347	27.401	
C	-0.2530120623	 1.3429403178	 0.204277453	-0.335007
C	 1.1790334781	 0.8790076947	-0.0443408879	-0.345454
C	 0.0486750624	-0.0958670972	-0.0487724742	 0.478051
O	-0.0771915573	-1.0907536185	 0.9758976197	-0.324395
C	-0.4553509041	-2.0880150917	-0.0010461069	 0.120977
C	-1.9861354661	-2.2288809389	-0.1586690259	-0.23045
C	-1.9601646671	-1.151493447	-1.2902075623	-0.231061
C	-0.415621432	-1.0371867743	-1.1492625476	-0.17585
H	-0.5154999407	 1.6205458166	 1.2195105095	 0.124084
H	-0.757242663	 1.9155737904	-0.5679255329	 0.11379
H	 1.651060565	 1.1337938742	-0.9880801705	 0.112166
H	 1.8488693505	 0.8522415676	 0.8085924504	 0.123497
H	 0.162732139	-2.9862070058	 0.0699661332	 0.075874
H	-2.2993616253	-3.2167612055	-0.5075568388	 0.100271
H	-2.5445053653	-1.9780154636	 0.7455226858	 0.111603
H	-2.2780188526	-1.5372911708	-2.261312681	 0.101297
H	-2.5077582242	-0.2274828527	-1.0890804324	 0.104566
H	 0.1996673749	-1.1113573154	-2.0454087812	 0.07604
74.1519	184.2536	248.0013	316.5664	392.8326	475.2018	558.682	721.6249	748.4386	754.7671	813.6295	829.3788	866.1674	893.1532	928.6927	939.7067	954.5084	965.0811	993.6516	1040.0399	1044.8436	1065.7476	1070.8851	1133.9252	1170.4198	1186.5382	1192.62	1220.2386	1241.2139	1265.3156	1279.7672	1284.5112	1332.5443	1394.3924	1447.8436	1462.2026	1485.1441	1500.3787	3058.7345	3064.7185	3079.242	3106.3088	3115.5084	3124.7746	3127.5338	3128.0177	3208.319	3222.5372
C1CC11OC2CCC12	C1CC21O[C@H]1CC[C@@H]21	
InChI=1S/C7H10O/c1-2-6-5(1)7(8-6)3-4-7/h5-6H,1-4H2	InChI=1S/C7H10O/c1-2-6-5(1)7(8-6)3-4-7/h5-6H,1-4H2/t5-,6+/m1/s1
