18
gdb 16945	3.7492	1.9782	1.8357	1.798	72.03	-0.2298	0.0173	0.2471	822.1763	0.156129	-347.809939	-347.803312	-347.802368	-347.840377	26.759	
C	 0.0053131314	 1.485671484	 0.0459921788	-0.512764
C	-0.0691029053	-0.003141905	-0.024331956	 0.348271
C	-0.099591202	-0.8079644823	-1.0965003686	-0.187499
C	-0.0149526831	-2.2307853275	-0.5719493699	 0.071549
C	-0.8331205883	-2.1193909273	 0.7231249927	-0.220901
C	 0.0220738212	-0.9152316572	 1.1962450136	-0.14484
C	 1.4273856548	-1.5856692863	 1.1041189715	-0.070277
O	 1.3359529901	-2.4283623359	-0.0489392127	-0.279657
H	 0.9339130614	 1.816372157	 0.5290798617	 0.129085
H	-0.0359808889	 1.9372132745	-0.9490513757	 0.126695
H	-0.8180409175	 1.8973100532	 0.6437045688	 0.126034
H	-0.0537313841	-0.5164828603	-2.1384809916	 0.092275
H	-0.222981135	-3.0462014619	-1.2623638982	 0.070976
H	-1.8798600503	-1.8584434243	 0.5613781002	 0.100366
H	-0.7493006846	-3.0064061037	 1.3578658403	 0.097538
H	-0.2054301259	-0.467628621	 2.1642928395	 0.063547
H	 2.2347717006	-0.8541492261	 0.9782922902	 0.094241
H	 1.6407522354	-2.1978326999	 1.9898729754	 0.095362
166.8325	182.0311	266.9306	330.2308	455.5289	486.5744	550.0354	598.7412	733.7504	806.429	816.8867	850.1629	875.6973	877.1506	932.8107	955.5855	963.7597	989.9984	1013.3028	1027.2011	1058.5103	1079.1183	1130.9311	1151.1879	1201.5283	1231.8484	1258.021	1277.9144	1281.4608	1296.9069	1344.4731	1366.6459	1413.0258	1478.1841	1485.6261	1486.9647	1525.7355	1685.7341	3010.9357	3015.2274	3050.5261	3060.3258	3062.4893	3108.9784	3112.1035	3132.0131	3139.6382	3207.0939
CC1=CC2CC1CO2	CC1=C[C@@H]2C[C@H]1CO2	
InChI=1S/C7H10O/c1-5-2-7-3-6(5)4-8-7/h2,6-7H,3-4H2,1H3	InChI=1S/C7H10O/c1-5-2-7-3-6(5)4-8-7/h2,6-7H,3-4H2,1H3/t6-,7+/m0/s1
