18
gdb 82143	3.18958	1.09061	0.944	5.3129	73.96	-0.2421	0.0107	0.2528	1268.9546	0.146838	-439.05753	-439.048899	-439.047955	-439.091695	31.41	
C	-0.1055439064	 1.6465155862	-0.1929985632	-0.401867
C	-0.0169439015	 0.133600663	-0.0697166147	-0.04014
C	 0.6990955571	-0.6475160159	-1.1857371746	-0.055002
N	 2.0792178984	-0.1248890696	-1.229221024	-0.31787
C	 1.7297421445	-1.1702197361	-0.2390289175	-0.09324
C	 1.0452949643	-0.4755619943	 0.9286692191	 0.13518
O	 1.8423995943	 0.4456098123	 1.6620330242	-0.179591
C	 1.8096264631	 0.3939478302	 3.0065959591	 0.168515
O	 2.4323197747	 1.138727034	 3.7011443449	-0.275768
H	 0.8692093138	 2.0680068571	-0.4433919641	 0.154983
H	-0.8203058111	 1.9248961281	-0.974666604	 0.111317
H	-0.4439419636	 2.0962119391	 0.7458511669	 0.118204
H	-0.9986556505	-0.3000837269	 0.1440199641	 0.078364
H	 0.2519836907	-1.1357746423	-2.0421257508	 0.099458
H	 2.5645744421	-0.5955554532	-1.991954968	 0.235191
H	 2.252846413	-2.1181951481	-0.2213909794	 0.099958
H	 0.5826838082	-1.1942137157	 1.6141735902	 0.089358
H	 1.1505261389	-0.4116114681	 3.3889167922	 0.072947
44.1772	110.9624	140.4495	202.2135	217.4167	247.0425	332.0933	433.7007	457.8386	596.1849	685.8256	703.3976	821.6535	826.0824	844.7926	900.0404	917.9697	991.0836	1011.108	1035.9537	1043.8566	1073.0521	1109.0289	1112.9159	1128.4521	1152.7424	1184.5761	1198.4807	1265.0504	1289.2018	1331.4754	1361.2598	1379.7439	1394.0863	1411.8142	1442.0671	1488.9862	1502.8555	1867.1065	2931.9645	3039.9147	3041.5746	3064.0116	3101.577	3144.6278	3188.6613	3203.3415	3481.9263
CC1C2NC2C1OC=O	C[C@H]1[C@H]2N[C@H]2[C@H]1OC=O	
InChI=1S/C6H9NO2/c1-3-4-5(7-4)6(3)9-2-8/h2-7H,1H3	InChI=1S/C6H9NO2/c1-3-4-5(7-4)6(3)9-2-8/h2-7H,1H3/t3-,4+,5+,6-/m0/s1
