12
gdb 130196	3.58043	1.81557	1.20606	5.2135	61.35	-0.2357	-0.0267	0.209	906.6166	0.080523	-461.127811	-461.120965	-461.120021	-461.159053	25.295	
N	 0.0317401505	 1.360286332	 0.176260907	-0.589399
C	-0.0021260388	 0.000663121	 0.033557809	 0.45669
N	-1.0680106405	-0.7571981848	-0.0381703771	-0.277665
N	-0.5950421388	-2.0643178999	-0.0715850492	-0.356919
C	 0.7518537759	-2.0817995603	-0.0491891838	 0.552554
N	 1.818352744	-2.8649943394	-0.0752386456	-0.359799
N	 2.8599197072	-1.9856274153	-0.0138181376	-0.086014
N	 2.5031971016	-0.7399847278	 0.0484762663	-0.177202
N	 1.1330741402	-0.7848444278	 0.0279400657	-0.023479
H	 0.8391291673	 1.8118210192	-0.229551015	 0.283913
H	-0.8424377319	 1.8138937866	-0.0464374609	 0.279179
H	-1.2423438967	-2.8262325335	-0.1516237786	 0.298141
132.7263	209.9272	249.8426	260.762	310.9147	447.9086	537.4521	594.1651	677.7912	687.0229	691.9962	700.6665	773.271	870.078	999.8913	1032.8435	1089.0733	1169.113	1179.3212	1225.0287	1315.8472	1347.1968	1440.4785	1495.3949	1605.2844	1637.1592	1696.9523	3570.1699	3677.5485	3719.6128
NC1=NNC2=NN=NN12	Nc1n[nH]c2nnnn12	
InChI=1S/C2H3N7/c3-1-4-5-2-6-7-8-9(1)2/h(H2,3,4)(H,5,6,8)	InChI=1S/C2H3N7/c3-1-4-5-2-6-7-8-9(1)2/h(H2,3,4)(H,5,6,8)
