19
gdb 66605	4.12907	1.57888	1.45711	0.4948	82.58	-0.2296	0.0188	0.2484	962.0183	0.161623	-348.712502	-348.705823	-348.704879	-348.743051	28.462	
C	 0.0320214674	 1.5426214081	 0.0276159513	-0.527827
C	 0.0023940982	 0.0507921825	 0.0041825923	 0.33882
C	 0.9347010951	-0.9913183119	-0.5595211908	-0.128243
C	 0.5563110053	-1.0071706707	 0.9244159673	-0.128254
C	-0.7808957384	-1.8172869085	 0.9698411799	-0.06686
C	-0.6443465604	-3.241286003	 0.495664102	-0.091421
C	-0.3131924913	-3.2274732919	-0.8026738034	-0.091414
C	-0.2133209485	-1.7936078416	-1.255817822	-0.066867
C	-1.148068329	-0.9862190233	-0.3002767788	-0.121546
H	 1.0315006119	 1.9085749571	 0.2874843337	 0.120469
H	-0.2317378265	 1.9668416578	-0.9487096412	 0.118487
H	-0.6706874239	 1.9485981913	 0.7652641341	 0.118488
H	 1.9625043838	-0.8826626054	-0.8827820642	 0.079325
H	 1.3033070667	-0.9102850169	 1.7024237745	 0.079323
H	-1.3739800138	-1.6341600922	 1.8662310528	 0.060687
H	-0.707422821	-4.1136282653	 1.1357221273	 0.091111
H	-0.0576058284	-4.086528231	-1.412046198	 0.091111
H	-0.305713458	-1.5896137073	-2.3228923626	 0.060685
H	-2.1842649489	-0.7732825478	-0.5622553642	 0.063926
199.6948	210.3742	232.7645	395.0657	431.7453	550.7554	569.2819	704.8158	726.9386	734.0596	767.3328	815.7886	841.2859	858.3362	889.6436	902.1061	909.0853	944.5953	949.8782	963.9803	990.7777	990.9746	1033.6973	1040.6148	1097.3391	1117.1235	1142.2273	1146.8663	1151.9034	1193.874	1210.6615	1247.4255	1258.6508	1285.8826	1297.6944	1359.8682	1411.8121	1464.6858	1485.0385	1497.2789	1635.4748	3016.3263	3072.4932	3087.6306	3105.8505	3107.3703	3120.4574	3184.3917	3185.9867	3195.4218	3210.9192
CC12C3C1C1C=CC3C21	C[C@@]12[C@H]3[C@@H]1[C@@H]1C=C[C@H]3[C@H]21	
InChI=1S/C9H10/c1-9-6-4-2-3-5(6)8(9)7(4)9/h2-8H,1H3	InChI=1S/C9H10/c1-9-6-4-2-3-5(6)8(9)7(4)9/h2-8H,1H3/t4-,5+,6-,7+,8-,9+
