20
gdb 7540	4.78621	0.99493	0.95082	0.5147	71.65	-0.2503	0.0676	0.3179	1294.9376	0.174775	-386.12183	-386.112174	-386.11123	-386.156063	35.23	
C	-0.1005054828	 1.4810113751	-0.1351118977	-0.402789
C	 0.0248395869	-0.0169529351	 0.0277002907	-0.037426
C	 1.3822690549	-0.691418136	-0.0743407477	-0.356437
C	 0.6597111433	-0.6192610861	 1.2529015954	 0.394149
O	 1.1325857803	 0.3126514066	 2.1982906259	-0.470087
C	 0.0742726512	-1.8756736549	 1.8685374441	-0.256993
C	 1.1049922091	-2.715982274	 2.6282485917	-0.062752
O	 0.5543715419	-3.903489211	 3.1743412299	-0.418823
H	 0.7208776833	 1.995306829	 0.3680266319	 0.127646
H	-0.0910705836	 1.7610436736	-1.1940026389	 0.111731
H	-1.0362783236	 1.8479860768	 0.3003817608	 0.116357
H	-0.8065491172	-0.5873386758	-0.3798107098	 0.083543
H	 1.4615990457	-1.6478975171	-0.5807042489	 0.110364
H	 2.2414673277	-0.0395391405	-0.1986673364	 0.108001
H	 2.021093988	 0.0507970598	 2.4592188071	 0.284356
H	-0.7306632607	-1.5841199906	 2.5580224666	 0.092891
H	-0.3771947454	-2.4978488913	 1.0880084878	 0.103511
H	 1.8964385137	-3.0440337079	 1.945207031	 0.111772
H	 1.5812238244	-2.1040204593	 3.4112154725	 0.079806
H	-0.1237238671	-3.6470803613	 3.8076936739	 0.28118
79.8859	98.2663	125.2353	182.7187	239.3509	248.2809	284.1823	297.7173	331.5972	381.1945	427.2453	460.6046	582.8741	727.0554	790.4363	819.8505	880.5828	918.1284	934.8473	1000.6126	1022.5711	1040.6305	1048.1486	1080.6629	1117.1268	1135.3726	1169.8121	1190.2237	1245.6724	1266.2915	1307.3926	1332.517	1348.6857	1398.4171	1406.0173	1420.9034	1423.6392	1474.3371	1486.0028	1495.2237	1504.762	1516.1967	2972.5344	3010.5166	3034.6845	3062.084	3080.8998	3091.0843	3121.4582	3124.714	3140.5862	3210.9417	3812.7707	3813.9743
CC1CC1(O)CCO	C[C@H]1C[C@]1(O)CCO	
InChI=1S/C6H12O2/c1-5-4-6(5,8)2-3-7/h5,7-8H,2-4H2,1H3	InChI=1S/C6H12O2/c1-5-4-6(5,8)2-3-7/h5,7-8H,2-4H2,1H3/t5-,6+/m0/s1
