15
gdb 126830	4.6293	0.99063	0.8622	3.0082	77.87	-0.2604	-0.0343	0.2261	1320.7644	0.112559	-412.947599	-412.93931	-412.938366	-412.981357	29.539	
C	 0.0952664488	 1.5542061637	 0.0122613499	-0.383903
C	-0.0582503843	 0.0362044048	-0.056280908	-0.140093
N	 0.6555691214	-0.536260936	-1.1928365971	 0.117447
N	 0.0320314414	-1.0371545605	-2.2556557646	-0.125385
N	 0.9639436762	-1.4290091811	-3.0806856731	-0.258993
C	 2.1506932105	-1.142263525	-2.4735903656	 0.236863
N	 1.9746591193	-0.5746459524	-1.2758215261	-0.286625
C	 3.417296503	-1.4155072161	-3.0405649016	 0.313331
C	 4.4856277748	-1.6535832608	-3.5363274545	-0.40734
H	 1.1479472222	 1.8308215458	 0.106001461	 0.152843
H	-0.3140793147	 2.0273594916	-0.8842859121	 0.142207
H	-0.4442486997	 1.936561168	 0.8830981368	 0.13269
H	 0.3316458957	-0.4410037714	 0.8464463774	 0.14634
H	-1.0999672784	-0.2604166603	-0.1886884724	 0.15455
H	 5.4307842138	-1.8637681402	-3.9732015401	 0.206067
46.5246	102.1842	145.2848	197.3615	221.2045	345.2488	399.4542	493.3634	548.5437	578.1106	627.8628	683.7739	710.0484	731.1178	784.2576	800.6025	982.8804	1042.1236	1073.4051	1105.9028	1113.5452	1229.7379	1249.8783	1332.5993	1382.3122	1392.9069	1412.032	1413.5366	1479.8595	1488.8871	1493.181	1506.3692	2254.9253	3052.4196	3078.5498	3125.9784	3130.3233	3149.0754	3502.2945
CCN1N=NC(=N1)C#C	CCn1nnc(n1)C#C	
InChI=1S/C5H6N4/c1-3-5-6-8-9(4-2)7-5/h1H,4H2,2H3	InChI=1S/C5H6N4/c1-3-5-6-8-9(4-2)7-5/h1H,4H2,2H3
