17
gdb 78341	2.80774	1.43521	1.08115	4.9566	75.77	-0.226	-0.0239	0.202	1135.3594	0.135033	-417.932223	-417.924127	-417.923183	-417.96478	30.742	
C	-0.1609778476	 1.317207129	-0.0164393599	-0.318024
N	 0.0917617742	-0.1192864343	 0.1095384305	-0.104601
C	 1.5230006038	-0.466687351	-0.1484811866	-0.186699
C	 0.9391004531	-0.4782967386	 1.246310575	-0.177781
C	 0.9833459278	-1.9972166158	 1.2853832476	 0.256682
C	 1.3783243873	-2.8682819506	 2.420842182	-0.309388
N	 0.036899273	-2.9589442446	 1.8277719286	-0.349717
C	 1.595504749	-1.9875835519	-0.1235835897	 0.401213
O	 2.0878176342	-2.8198926764	-0.825106448	-0.312637
H	 0.6684393756	 1.9524413577	 0.3355063872	 0.103134
H	-0.3553131768	 1.5521244365	-1.0665140936	 0.137722
H	-1.0562199094	 1.5635842177	 0.5623842524	 0.131992
H	 2.1864880552	 0.249840096	-0.6152424228	 0.116181
H	 1.147284161	 0.2188988509	 2.0490814595	 0.110426
H	 2.0200793449	-3.723682664	 2.230783354	 0.142271
H	 1.5024916485	-2.4006429667	 3.3949181746	 0.119179
H	-0.6517217937	-2.4806872538	 2.4046305892	 0.240048
115.327	153.6102	197.5655	233.8519	256.7968	261.8093	366.2286	430.0894	507.5684	643.6682	668.4575	764.7861	787.9842	821.2365	852.507	880.4212	911.0884	954.3978	965.1095	978.0089	1024.3182	1055.4648	1112.0046	1118.56	1134.1387	1139.4207	1211.8561	1245.0502	1259.4239	1281.3762	1315.9321	1417.8319	1450.9469	1492.1699	1497.3058	1506.9471	1898.9229	2968.5259	3077.7281	3105.8342	3116.109	3189.9062	3197.7738	3208.0874	3496.6268
CN1C2C1C1(CN1)C2=O	CN1[C@H]2[C@@H]1[C@]1(CN1)C2=O	
InChI=1S/C6H8N2O/c1-8-3-4(8)6(2-7-6)5(3)9/h3-4,7H,2H2,1H3	InChI=1S/C6H8N2O/c1-8-3-4(8)6(2-7-6)5(3)9/h3-4,7H,2H2,1H3/t3-,4+,6+,8?/m0/s1
