19
gdb 83407	2.66216	1.4331	1.13258	3.2447	76.73	-0.2351	0.0199	0.2551	1136.6669	0.159298	-419.200936	-419.191965	-419.191021	-419.234547	33.815	
C	-0.0136191944	 1.7080203766	 0.3915911045	-0.326761
N	 0.0003274744	 0.2507386583	 0.3910220366	-0.141405
C	 1.0717097298	-0.5284327606	-0.1840719741	-0.085771
C	 2.4709598774	 0.0718656732	 0.0428447996	-0.247002
C	 2.1984700804	 0.0742397488	 1.5789041667	-0.304697
C	 0.804857638	-0.5212258413	 1.3194436528	 0.249939
C	 0.1743553469	-1.573170283	 2.1798534664	 0.31636
N	-1.1243117002	-1.8335142989	 1.8759808939	-0.54228
O	 0.8036513106	-2.1426600977	 3.0545593649	-0.374918
H	 0.9662234232	 2.1779158329	 0.5433197445	 0.116893
H	-0.4143916881	 2.0529747397	-0.566230375	 0.127177
H	-0.6831568025	 2.0512372209	 1.1858169322	 0.129262
H	 0.8135955581	-1.2893256581	-0.9135584716	 0.10118
H	 3.2624033096	-0.6257812242	-0.2367146374	 0.116298
H	 2.6693348505	 1.0331358053	-0.4398892705	 0.103863
H	 2.8206713129	-0.6370716057	 2.1212460546	 0.139757
H	 2.2248000889	 1.0366485561	 2.0975937716	 0.100462
H	-1.588975537	-1.2767400317	 1.1780951187	 0.263882
H	-1.6184049786	-2.5366415604	 2.3977133617	 0.257761
63.8082	149.7416	163.8128	202.1343	243.1472	270.4067	285.081	371.1277	415.217	506.7976	556.0055	634.2409	650.3303	706.7359	764.7451	777.7821	818.98	902.6509	942.6754	947.97	1006.6778	1048.0394	1073.454	1105.1112	1115.6322	1143.2284	1182.035	1191.4361	1215.0564	1228.3353	1265.9562	1279.3636	1348.7632	1432.2137	1453.8143	1473.8173	1488.1101	1504.6748	1507.0579	1587.5336	1786.8663	3020.4013	3059.9383	3068.632	3086.229	3111.1071	3116.6353	3146.4559	3165.638	3596.1404	3741.8342
CN1C2CCC12C(N)=O	CN1[C@H]2CC[C@@]12C(=O)N	
InChI=1S/C6H10N2O/c1-8-4-2-3-6(4,8)5(7)9/h4H,2-3H2,1H3,(H2,7,9)	InChI=1S/C6H10N2O/c1-8-4-2-3-6(4,8)5(7)9/h4H,2-3H2,1H3,(H2,7,9)/t4-,6+,8?/m0/s1
