17
gdb 69402	3.74782	1.22762	1.09627	1.7569	73.36	-0.2406	-0.0194	0.2212	1109.6378	0.134875	-421.821044	-421.81287	-421.811926	-421.854038	30.997	
O	 0.0856149986	 1.4078864192	 0.048939847	-0.471889
C	 0.0632669279	 0.0144582252	 0.0645672276	 0.380667
C	-0.239747442	-0.7637179622	-1.195807491	-0.344763
C	-1.2477014955	-0.7326112556	-0.0587169404	-0.119028
C	-1.2201422328	-1.8760917696	 0.971416997	-0.161856
C	-1.5279559447	-3.2031506606	 0.3046158623	 0.158367
O	-0.7360284778	-4.0959289397	 0.1407562084	-0.247676
C	 0.1640099731	-1.7735671048	 1.5787449817	-0.0608
C	 0.8427398093	-0.7295301812	 1.1036049805	-0.162516
H	 0.8106114058	 1.6897051322	-0.5188244967	 0.286128
H	-0.5155273029	-0.182746269	-2.0703382342	 0.11512
H	 0.3152301411	-1.6745607913	-1.395014005	 0.132203
H	-2.164501994	-0.1805470589	-0.2203685401	 0.104167
H	-2.0073567999	-1.7136918827	 1.7241285163	 0.101091
H	-2.5764267576	-3.2917532349	-0.0624116838	 0.076939
H	 0.5395142148	-2.5116606845	 2.2761391407	 0.112984
H	 1.8485349766	-0.4414636318	 1.3879307396	 0.100861
56.8873	132.3377	197.3777	232.5659	287.9648	315.3475	390.7001	460.0226	483.254	609.4822	687.0096	721.9388	750.3634	799.768	822.1142	879.6055	933.1561	943.2316	955.1003	970.024	1012.6195	1041.365	1066.8263	1077.4651	1094.2776	1135.1338	1232.6123	1241.151	1265.2004	1305.5399	1332.769	1352.3335	1401.6349	1430.092	1472.8748	1672.5121	1822.2771	2867.3386	2989.4026	3124.0776	3193.1611	3196.751	3219.2711	3223.2766	3805.066
OC12CC1C(C=O)C=C2	O[C@]12C[C@H]1[C@@H](C=O)C=C2	
InChI=1S/C7H8O2/c8-4-5-1-2-7(9)3-6(5)7/h1-2,4-6,9H,3H2	InChI=1S/C7H8O2/c8-4-5-1-2-7(9)3-6(5)7/h1-2,4-6,9H,3H2/t5-,6+,7-/m1/s1
