23
gdb 106561	1.90374	1.59749	1.18773	0.9572	86.61	-0.2422	0.0919	0.3341	1224.5961	0.204784	-388.238473	-388.228722	-388.227777	-388.272788	36.859	
C	-0.4954396453	 1.2362645595	-0.5152078139	-0.262571
O	-0.4002179243	-0.1665472536	-0.3624776654	-0.291958
C	-1.6049181873	-0.7944318251	-0.1256773811	 0.427802
C	-2.8974610949	-0.7979935469	-1.0089668465	-0.310045
C	-3.1731552108	-1.7479004263	 0.1922269518	-0.089454
C	-1.7327186243	-2.3359415096	 0.0076024673	-0.007528
C	-1.3756151672	-3.2722844602	-1.1382354138	-0.445076
C	-2.5634457353	-0.6402199664	 1.1145549597	-0.01131
C	-2.1107244356	-0.9081473164	 2.5422776872	-0.447402
H	 0.5159110182	 1.6086358112	-0.6924914213	 0.126899
H	-1.1311437075	 1.5086794623	-1.3695058178	 0.112501
H	-0.8994793686	 1.7180626858	 0.3863596525	 0.11118
H	-3.4820431444	 0.1256314808	-1.0311901823	 0.086397
H	-2.8308060759	-1.243502275	-2.0007125328	 0.093977
H	-4.0894855432	-2.3065602702	 0.3742976928	 0.073026
H	-1.2977385348	-2.7304897898	 0.9285631187	 0.063358
H	-1.7904743472	-2.9727484294	-2.1034168924	 0.116269
H	-0.287581317	-3.3280535516	-1.251198674	 0.125113
H	-1.7346163041	-4.2852617931	-0.9249071309	 0.113009
H	-3.1490331665	 0.2860796727	 1.0859557368	 0.058882
H	-1.4910403949	-0.080302849	 2.9043264958	 0.119019
H	-2.9772616188	-0.9815631223	 3.2089376676	 0.115178
H	-1.5285036105	-1.8248291874	 2.6585377216	 0.122735
78.1236	148.3945	155.7059	164.668	180.0196	217.4069	259.5165	264.6164	392.0459	438.5431	460.9148	560.2026	609.8035	638.9205	752.7491	768.7111	808.1288	870.2621	914.0888	948.813	1007.3531	1014.2434	1038.5904	1061.1841	1076.7045	1098.2336	1125.4608	1143.0221	1149.1918	1164.488	1180.0104	1182.2583	1211.2362	1220.591	1233.6148	1259.7243	1298.7169	1403.662	1414.2063	1425.3856	1435.5256	1482.9399	1488.2434	1495.0831	1497.2794	1501.5253	1504.8646	1508.1651	1533.3001	2991.4141	3029.3426	3036.3352	3036.6246	3044.1076	3067.0742	3079.1705	3088.4528	3092.3702	3118.0689	3120.1213	3124.0463	3131.2505	3145.1032
COC12CC(C1C)C2C	CO[C@@]12C[C@@H]([C@H]1C)[C@H]2C	
InChI=1S/C8H14O/c1-5-7-4-8(5,9-3)6(7)2/h5-7H,4H2,1-3H3	InChI=1S/C8H14O/c1-5-7-4-8(5,9-3)6(7)2/h5-7H,4H2,1-3H3/t5-,6-,7-,8-/m1/s1
