18
gdb 66018	2.29281	1.3367	1.11427	3.9862	82.63	-0.2727	0.0133	0.286	1175.1504	0.146241	-364.789907	-364.780735	-364.779791	-364.823627	34.345	
C	-0.1144435349	 1.5752958729	-0.0259436996	-0.44338
C	-0.0492674682	 0.0444894304	 0.0030239551	 0.141949
C	 1.1063413904	-0.5416709709	-0.8786396304	-0.260612
C	 1.991128315	-0.6671990312	 0.3856047956	-0.241484
C	 0.7103444596	-0.5469972889	 1.2691016625	-0.199753
C	 0.7562839391	 0.2353519747	 2.4836356339	 0.32148
C	 0.8066543194	 0.9007924404	 3.4842355048	-0.44321
C	-1.3675543853	-0.533311608	-0.228131089	 0.241097
N	-2.4052990047	-1.0099528613	-0.4118450232	-0.344425
H	 0.8793311795	 2.0003455736	 0.1374928103	 0.129571
H	-0.4844800367	 1.9184615623	-0.996072978	 0.134091
H	-0.7770994345	 1.9531843995	 0.7559967436	 0.147103
H	 0.8413252843	-1.5122118294	-1.3020552388	 0.128538
H	 1.4572786862	 0.1112040328	-1.6798303375	 0.117571
H	 2.5698875329	-1.5838228264	 0.5045586198	 0.119271
H	 2.6545870438	 0.1882784153	 0.523605218	 0.123508
H	 0.3116786493	-1.5435698428	 1.4801559728	 0.125731
H	 0.8470920449	 1.4782391872	 4.3747319101	 0.202954
80.1351	133.7568	150.2312	194.5156	228.2094	244.8735	321.4502	339.8181	462.1698	500.4514	546.2042	580.421	601.8797	628.2523	650.8408	710.3392	796.2696	892.2917	907.9652	939.4914	965.9353	971.5688	1070.276	1096.0989	1138.4512	1164.9922	1205.3839	1225.3269	1261.4879	1266.5485	1298.3463	1356.0903	1413.9886	1480.1078	1486.781	1494.0434	1499.6375	2233.4236	2347.5362	3048.5578	3065.5996	3077.2225	3084.7311	3123.2798	3127.9735	3132.563	3145.0289	3501.686
CC1(CCC1C#C)C#N	C[C@]1(CC[C@H]1C#C)C#N	
InChI=1S/C8H9N/c1-3-7-4-5-8(7,2)6-9/h1,7H,4-5H2,2H3	InChI=1S/C8H9N/c1-3-7-4-5-8(7,2)6-9/h1,7H,4-5H2,2H3/t7-,8+/m1/s1
