17
gdb 107598	2.69268	1.61792	1.15998	2.0251	68.71	-0.2326	-0.0284	0.2042	1061.3418	0.134432	-458.945474	-458.93709	-458.936146	-458.97854	30.961	
C	-0.0458135944	 1.3892763669	 0.4419620664	-0.263792
O	 0.0051715878	 0.0837236474	-0.1322779718	-0.28531
C	-1.2142571862	-0.5518568222	-0.1790318632	 0.296971
C	-1.8081803335	-1.2054281921	 1.0810080122	-0.382844
C	-1.3560675187	-2.0479576974	-0.0708711987	 0.035091
O	-2.3439701326	-2.5300336583	-0.9482316139	-0.261898
C	-3.0222282236	-1.4323934544	-1.5471544785	-0.194517
C	-2.2268813332	-0.1629510018	-1.2151466136	 0.316661
O	-2.3525905522	 0.9111345264	-1.7474043285	-0.323522
H	 0.9797627345	 1.7631723879	 0.4455773342	 0.13028
H	-0.6803016684	 2.0549247001	-0.1502686495	 0.148386
H	-0.4197133357	 1.3512145625	 1.4744400339	 0.108081
H	-1.1475159725	-1.172045972	 1.9407037835	 0.13734
H	-2.8663311777	-1.1106350824	 1.2995592366	 0.12951
H	-0.5004495674	-2.7060403853	 0.0178268925	 0.129396
H	-3.0630017601	-1.5732998904	-2.6319980831	 0.147981
H	-4.0537556861	-1.347748955	-1.1766242685	 0.132185
106.9138	117.8821	164.6582	177.1077	231.5488	299.1865	377.3676	423.2884	485.789	545.2641	631.2062	658.3665	700.1898	826.1457	864.5091	935.6912	989.4656	999.9909	1005.7594	1033.5999	1036.638	1077.276	1103.641	1159.6981	1181.4234	1203.726	1223.83	1260.4588	1303.9487	1334.1557	1395.822	1460.2864	1482.244	1484.1755	1486.7605	1513.5964	1838.2455	3008.3923	3011.201	3079.208	3093.3117	3133.2938	3137.5674	3196.8093	3229.0458
COC12CC1OCC2=O	CO[C@]12C[C@H]1OCC2=O	
InChI=1S/C6H8O3/c1-8-6-2-5(6)9-3-4(6)7/h5H,2-3H2,1H3	InChI=1S/C6H8O3/c1-8-6-2-5(6)9-3-4(6)7/h5H,2-3H2,1H3/t5-,6+/m1/s1
