22
gdb 121748	5.06631	0.54821	0.53568	2.5953	82.	-0.2424	0.0338	0.2762	2170.3502	0.191917	-441.513439	-441.502013	-441.501069	-441.552946	38.523	
C	-0.640297948	 1.1046154282	-0.4827726609	-0.371997
C	 0.4822360663	 0.2445627573	 0.1015426616	-0.143995
N	 1.2202041677	-0.4885558597	-0.9148042298	-0.319408
C	 1.1652146802	-1.846545628	-1.0411191073	 0.41918
O	 0.4939520082	-2.5553040351	-0.3090778627	-0.380703
C	 2.0346546349	-2.4196609448	-2.1558406087	-0.337065
C	 1.4560109472	-3.715379399	-2.7090417132	-0.042378
O	 2.3682172776	-4.2274172249	-3.6570299174	-0.236059
C	 1.9395283601	-5.4437283385	-4.2192513391	-0.228431
H	-0.2499872603	 1.846378298	-1.1885795203	 0.109946
H	-1.3687237153	 0.4828242713	-1.0110532903	 0.132333
H	-1.1612778745	 1.6448573288	 0.3140481071	 0.120305
H	 1.1784288381	 0.8697369366	 0.6746753672	 0.104933
H	 0.0768580679	-0.5098614219	 0.7787613429	 0.151248
H	 1.7710790322	 0.0327981998	-1.5773004233	 0.241539
H	 2.1753377463	-1.6958216278	-2.9659980589	 0.105243
H	 3.0294961908	-2.6297242089	-1.7437221494	 0.138224
H	 1.2911867441	-4.4253493859	-1.886556844	 0.115314
H	 0.4741954607	-3.5301749727	-3.1764606964	 0.089341
H	 1.8130916219	-6.2261955784	-3.454294972	 0.105829
H	 0.9824353287	-5.3331411209	-4.7540780546	 0.102491
H	 2.7049980252	-5.7648712234	-4.9301234905	 0.124112
19.0012	31.9853	62.8415	92.0236	117.8452	132.8304	216.8351	233.1093	287.9585	303.3621	349.2666	425.4506	448.0432	501.0132	629.5073	708.322	794.8424	812.288	899.3456	941.5233	997.6142	1051.4638	1075.76	1092.0781	1125.7431	1162.946	1172.5051	1181.6172	1212.2091	1224.618	1243.7055	1295.7372	1318.066	1348.5175	1394.318	1410.9464	1422.7357	1469.5556	1482.5247	1484.4755	1485.1365	1492.7626	1502.4148	1505.8388	1530.4113	1545.1551	1769.9386	2961.4179	2972.278	3011.3797	3025.6479	3026.3676	3033.2048	3036.1668	3079.6913	3095.6559	3110.9933	3116.2717	3127.406	3639.0452
CCNC(=O)CCOC	CCNC(=O)CCOC	
InChI=1S/C6H13NO2/c1-3-7-6(8)4-5-9-2/h3-5H2,1-2H3,(H,7,8)	InChI=1S/C6H13NO2/c1-3-7-6(8)4-5-9-2/h3-5H2,1-2H3,(H,7,8)
