19
gdb 73134	2.52092	1.82819	1.56585	1.2765	73.49	-0.237	0.0704	0.3074	957.2212	0.159684	-422.997981	-422.99041	-422.989466	-423.029738	30.376	
C	 0.118791019	 1.5474582177	-0.0578095994	-0.468312
C	 0.0123032495	 0.0373414524	 0.016110777	 0.395335
O	-1.280291996	-0.3784741322	 0.5528636531	-0.324793
C	-0.6649799947	-1.0487037997	 1.6747252412	-0.112452
C	 0.7470398133	-0.7318478233	 1.1549577975	 0.018954
O	 1.4718457154	-1.8072051747	 0.587506427	-0.270652
C	 1.3280898306	-1.8049176882	-0.8142960435	 0.100747
C	-0.0098278097	-2.1204428501	-1.4128442722	-0.327366
C	 0.4350654693	-0.6772827855	-1.2598720568	-0.116394
H	 1.1166330685	 1.8496381238	-0.3927564773	 0.121977
H	-0.6166995435	 1.9425078813	-0.7658112615	 0.132661
H	-0.0744720808	 2.0000827535	 0.9186226412	 0.121426
H	-0.928109334	-0.5696074537	 2.6258639253	 0.101566
H	-0.9081310173	-2.1160221321	 1.7201446459	 0.107342
H	 1.4014335293	-0.1765097585	 1.8328406752	 0.085044
H	 2.2449155255	-2.0806911838	-1.3234444763	 0.100967
H	-0.0230631838	-2.5281684379	-2.4180594053	 0.112764
H	-0.8121295118	-2.4612544477	-0.7695831708	 0.134336
H	 0.6533322812	-0.0813798914	-2.1379809804	 0.086853
101.9265	203.5642	225.4183	256.8442	330.0852	391.9999	419.3439	513.3151	593.8533	652.6423	693.355	793.1293	798.6156	833.8514	883.2694	896.3974	923.6501	965.8182	1001.913	1007.7483	1025.7634	1043.7065	1067.6092	1083.3819	1104.9901	1143.0378	1148.9855	1167.6044	1191.1488	1200.9797	1233.3689	1256.3629	1327.4427	1339.0331	1375.5741	1387.2748	1406.4848	1474.5602	1483.7521	1492.5738	1511.9607	3018.7764	3036.268	3064.1206	3075.9391	3108.2818	3115.7828	3139.0401	3170.1513	3180.5864	3231.9177
CC12OCC1OC1CC21	C[C@]12OC[C@H]1O[C@H]1C[C@@H]21	
InChI=1S/C7H10O2/c1-7-4-2-5(4)9-6(7)3-8-7/h4-6H,2-3H2,1H3	InChI=1S/C7H10O2/c1-7-4-2-5(4)9-6(7)3-8-7/h4-6H,2-3H2,1H3/t4-,5+,6-,7-/m1/s1
