17
gdb 12398	3.12605	2.11528	1.33089	3.502	65.63	-0.2359	0.0273	0.2632	912.706	0.143707	-401.03124	-401.023576	-401.022632	-401.06331	27.899	
C	-0.0611223637	 1.4571626015	 0.0387491592	-0.344845
N	 0.0151582796	 0.0093960698	-0.0518692164	-0.099632
C	-1.238880036	-0.7287027496	 0.0266394942	-0.151014
C	-1.0481049653	-2.1706933077	-0.4210662398	-0.0964
O	 0.0223252169	-2.7577094077	 0.2871447705	-0.238085
C	 1.2441971659	-2.1316412093	-0.0481098071	-0.189015
C	 1.2386492394	-0.6015430296	-0.0445141968	 0.383588
O	 2.2980473701	 0.0016182191	-0.0691756058	-0.386806
H	 0.9522130406	 1.8533719255	-0.0081126859	 0.171864
H	-0.6541832135	 1.8629196122	-0.7893743927	 0.121948
H	-0.5305318904	 1.7656799645	 0.9818939234	 0.122918
H	-1.6303654484	-0.7061952683	 1.054695728	 0.115092
H	-1.9803984507	-0.2359647721	-0.6159723406	 0.109134
H	-1.9442329633	-2.7572172788	-0.2021508084	 0.118661
H	-0.8640820827	-2.2100786698	-1.5076620686	 0.098146
H	 1.9906631594	-2.4554017483	 0.6798987205	 0.144728
H	 1.591148302	-2.4490776014	-1.0457368134	 0.11972
114.3716	128.5212	147.6809	228.4548	335.5107	351.4256	399.3803	488.2002	518.5986	584.5751	695.3114	712.9127	899.4227	929.962	1004.1738	1019.6788	1064.2228	1120.6494	1135.4709	1159.7028	1181.2656	1245.5682	1257.1272	1290.4218	1313.1603	1361.1583	1369.7575	1416.0311	1430.6473	1460.2006	1473.267	1495.0588	1499.2387	1500.9553	1539.0029	1768.1749	2970.0849	2976.4324	2993.528	3015.39	3038.3954	3065.562	3098.0363	3116.7275	3166.8044
CN1CCOCC1=O	CN1CCOCC1=O	
InChI=1S/C5H9NO2/c1-6-2-3-8-4-5(6)7/h2-4H2,1H3	InChI=1S/C5H9NO2/c1-6-2-3-8-4-5(6)7/h2-4H2,1H3
