16
gdb 65624	3.38915	1.34238	1.2347	3.4562	68.9	-0.2752	0.0022	0.2774	1039.1326	0.123511	-437.851912	-437.843972	-437.843028	-437.884386	29.604	
C	 0.2005839424	 1.4275562613	-0.0515044596	-0.443318
C	 0.0475637199	-0.0806375577	 0.0197348983	 0.213768
O	 0.9430230442	-0.792831702	-0.8848646616	-0.324091
C	 1.4802093848	-1.6081715374	 0.1774162634	 0.065021
C	 2.7117672126	-0.9771210022	 0.8389691286	-0.101404
O	 1.8594718438	-0.2060061839	 1.736690458	-0.287554
C	 0.6781413911	-0.8351127207	 1.2374887033	 0.030146
C	-1.3407425652	-0.5066386418	-0.2181790819	 0.272268
N	-2.4313978751	-0.8576664823	-0.3701863349	-0.33033
H	 1.2014843416	 1.7023901962	 0.2845844959	 0.147684
H	 0.0518364075	 1.7652301873	-1.0803231128	 0.147554
H	-0.5386069488	 1.9187465531	 0.5875834892	 0.142223
H	 1.4487182186	-2.6750898138	-0.040940563	 0.110428
H	 3.3434732074	-1.6710833817	 1.4053052507	 0.118705
H	 3.3232141998	-0.3462039543	 0.1872978434	 0.125809
H	 0.0178372952	-1.2213808304	 2.0138236228	 0.113092
105.0054	143.3018	189.9992	206.8462	258.8231	340.792	411.669	450.8364	503.9677	575.7224	640.1063	791.8339	811.511	863.2533	899.0382	927.3991	947.5104	986.3742	997.9026	1061.733	1076.1015	1127.8725	1156.1836	1180.9038	1188.8533	1207.9416	1254.93	1294.7622	1325.7719	1357.112	1403.1546	1478.1086	1484.971	1501.9105	2351.2179	3034.7832	3054.2915	3100.0082	3115.1805	3127.037	3129.3112	3151.2414
CC1(OC2COC12)C#N	C[C@]1(O[C@H]2CO[C@@H]12)C#N	
InChI=1S/C6H7NO2/c1-6(3-7)5-4(9-6)2-8-5/h4-5H,2H2,1H3	InChI=1S/C6H7NO2/c1-6(3-7)5-4(9-6)2-8-5/h4-5H,2H2,1H3/t4-,5+,6-/m0/s1
