21
gdb 103780	3.04573	1.15594	1.01916	2.8531	79.42	-0.2387	0.0714	0.31	1271.1099	0.180175	-424.176259	-424.166581	-424.165637	-424.210747	35.512	
C	 0.1051761146	 1.2364069849	-0.3231905912	-0.245862
O	-0.1035281498	-0.0027387774	 0.3265692669	-0.28162
C	-1.3877676904	-0.5433746387	 0.1707657958	 0.375539
C	-2.4859875115	 0.1608743757	 0.9366501263	-0.45959
C	-1.6877071391	-1.2118658197	-1.1585386284	-0.426298
C	-1.3775608762	-2.0338156231	 0.0627488435	 0.231252
C	-0.1924073759	-2.9555362257	 0.3169161615	-0.128946
O	-1.0412544636	-3.8724144451	 1.0489510891	-0.278497
C	-2.2158677941	-3.0709307313	 0.8018042773	-0.143796
H	 1.1647798692	 1.4774708536	-0.2100065258	 0.128519
H	-0.1370766123	 1.1785863393	-1.3937772079	 0.108149
H	-0.4868880794	 2.0465769611	 0.1243123138	 0.110377
H	-2.6465187762	 1.179453789	 0.5682437411	 0.121025
H	-3.4344118054	-0.3747175397	 0.8385835448	 0.120979
H	-2.2326633784	 0.218729305	 2.0003508407	 0.128955
H	-2.7083547495	-1.1986325406	-1.5299408352	 0.111606
H	-0.9231485794	-1.163786462	-1.9279107078	 0.117754
H	 0.246948557	-3.4273158904	-0.5718473698	 0.097024
H	 0.6056718882	-2.5370936438	 0.9400287549	 0.11579
H	-2.6932658623	-2.7397130518	 1.7337779459	 0.099803
H	-2.9565438855	-3.6049015393	 0.1906177546	 0.097837
89.8625	105.1956	137.0545	158.78	194.6308	212.486	252.9804	320.8276	381.0903	406.8704	436.1632	473.8895	649.6728	691.5513	852.2992	878.6534	883.8436	920.2271	936.1128	985.2558	998.4951	1027.0897	1035.7923	1084.4691	1120.0645	1130.4188	1150.0416	1162.4992	1181.5689	1191.8021	1202.9025	1220.0946	1275.1093	1308.5478	1357.1401	1407.4679	1428.7734	1472.3664	1479.9434	1483.7879	1496.1974	1508.3167	1510.7922	1514.2776	1536.3967	2993.7626	2994.488	3012.6056	3033.9016	3036.3354	3046.6686	3066.5396	3099.053	3113.0209	3117.0327	3117.2906	3205.2731
COC1(C)CC11COC1	CO[C@@]1(C)CC21COC2	
InChI=1S/C7H12O2/c1-6(8-2)3-7(6)4-9-5-7/h3-5H2,1-2H3	InChI=1S/C7H12O2/c1-6(8-2)3-7(6)4-9-5-7/h3-5H2,1-2H3/t6-/m0/s1
