21
gdb 53611	3.9068	0.73205	0.65385	1.4194	87.71	-0.2365	0.0651	0.3016	1765.0255	0.180724	-387.056193	-387.045744	-387.044799	-387.093679	36.867	
C	 0.0819097638	 1.399831503	-0.1715971277	-0.497373
C	 0.0372152681	-0.0546073424	-0.1108182793	 0.107746
C	 0.0145080765	-1.2578155323	-0.058650945	 0.02281
C	-0.0475670972	-2.714597659	 0.006097598	-0.361249
C	-1.4881400252	-3.2277469758	 0.1826975036	-0.008625
C	-2.3689659927	-3.0920241572	-1.0936695528	-0.222262
C	-2.0736281042	-4.5815223827	-1.4285322147	-0.261572
C	-1.6221786642	-4.7681031996	 0.0454974214	 0.122526
O	-0.4394545554	-5.4827856208	 0.3241845497	-0.428127
H	 0.4859047948	 1.7485930401	-1.1287631949	 0.143674
H	-0.9172543327	 1.835511718	-0.0581402347	 0.143631
H	 0.713145767	 1.8140368052	 0.6227318451	 0.144482
H	 0.3940006735	-3.1463870592	-0.9005184029	 0.124746
H	 0.5661648273	-3.0847830108	 0.8354606717	 0.135474
H	-1.9042210784	-2.8005340539	 1.0985079006	 0.074936
H	-3.4214811698	-2.9188816339	-0.8563677488	 0.100261
H	-2.049862403	-2.3419529976	-1.8201281889	 0.1103
H	-2.8976555374	-5.2007646163	-1.7919013772	 0.090765
H	-1.2233862107	-4.6894578892	-2.1077366871	 0.107307
H	-2.4559356918	-5.1331398313	 0.6632388041	 0.066259
H	-0.5999817083	-6.4161410242	 0.1540733499	 0.284289
17.7311	51.3256	82.0124	123.2797	190.2544	211.8896	232.2322	265.7753	358.0767	388.9408	398.61	499.7209	527.2865	648.5709	759.796	778.1192	838.0985	886.775	915.7084	942.7233	952.0263	1042.0868	1054.046	1055.7005	1091.786	1108.3598	1152.2476	1167.811	1193.8031	1196.5407	1231.5762	1255.6778	1264.9406	1285.9431	1322.9286	1334.6284	1378.2063	1415.4886	1418.9025	1468.6794	1479.7841	1480.0982	1480.8042	1499.6291	2371.1001	2985.4327	3023.0514	3029.7972	3055.9211	3057.7285	3066.5808	3077.1769	3081.9076	3082.1506	3105.9905	3123.2694	3819.8178
CC#CCC1CCC1O	CC#CC[C@H]1CC[C@H]1O	
InChI=1S/C8H12O/c1-2-3-4-7-5-6-8(7)9/h7-9H,4-6H2,1H3	InChI=1S/C8H12O/c1-2-3-4-7-5-6-8(7)9/h7-9H,4-6H2,1H3/t7-,8+/m0/s1
