20
gdb 108307	2.89609	1.28399	1.05014	1.2716	74.91	-0.2246	0.0445	0.2691	1204.066	0.170571	-440.230668	-440.221688	-440.220743	-440.264451	33.812	
C	 0.2682115314	 1.5527729195	-0.0672636343	-0.391692
C	 0.0724030732	 0.0516723291	 0.0276875211	 0.038551
N	 0.9388439631	-0.7633908609	-0.8820323308	-0.372721
C	 1.3281365177	-1.6728465144	 0.2247652572	 0.285478
C	 0.997535674	-3.1361458806	 0.0442654841	-0.190853
O	 1.4629987084	-3.6436187011	-1.2006722841	-0.410173
C	 2.6580998467	-1.2094828874	 0.8596010443	-0.108301
O	 1.9619086599	-0.2265706306	 1.6680619125	-0.291931
C	 0.6721564385	-0.7033250183	 1.2411779463	 0.023371
H	 1.3102558819	 1.8059407349	 0.1405496671	 0.134502
H	 0.0147822664	 1.9104488983	-1.0703142974	 0.114031
H	-0.3707362448	 2.0755487168	 0.653077038	 0.110082
H	-0.9931069088	-0.2062158511	-0.0658302775	 0.065778
H	 0.4546624204	-1.239696183	-1.635032529	 0.223475
H	 1.3824776274	-3.7226585209	 0.8930664805	 0.094617
H	-0.09007939	-3.2691516267	 0.0200344149	 0.112146
H	 2.4218444369	-3.5568098432	-1.2204597858	 0.289979
H	 3.1551194078	-1.9553340286	 1.4965243641	 0.089489
H	 3.3775963786	-0.751061309	 0.1739959642	 0.108762
H	 0.0223067712	-0.9668053327	 2.0796358247	 0.07541
71.0835	111.7444	157.9106	208.2043	230.2861	288.1996	323.4405	362.0571	395.5953	436.7715	569.1634	618.4602	698.263	759.725	813.2386	894.2838	911.1376	923.8762	972.7114	977.2857	1015.2935	1040.2986	1061.7273	1074.7825	1106.3873	1127.1261	1156.5597	1159.7348	1194.5434	1226.6465	1265.9677	1289.5491	1317.1292	1342.0873	1365.9687	1381.1235	1402.2426	1411.2171	1424.4105	1484.289	1493.7096	1496.8936	1506.4865	2983.177	2985.5719	2997.0052	3036.6293	3062.8644	3074.9786	3080.501	3101.6908	3131.7498	3537.8121	3812.5237
CC1NC2(CO)COC12	C[C@H]1N[C@@]2(CO)CO[C@@H]12	
InChI=1S/C6H11NO2/c1-4-5-6(2-8,7-4)3-9-5/h4-5,7-8H,2-3H2,1H3	InChI=1S/C6H11NO2/c1-4-5-6(2-8,7-4)3-9-5/h4-5,7-8H,2-3H2,1H3/t4-,5+,6+/m1/s1
