22
gdb 95976	2.50335	1.39573	1.00744	3.761	82.99	-0.2296	0.0366	0.2662	1258.574	0.194786	-404.407137	-404.39759	-404.396646	-404.441494	35.482	
C	 0.0959519095	 1.6470336092	-0.0595839386	-0.394337
C	 0.040161748	 0.1184792281	 0.041353271	 0.057336
C	 0.6646447144	-0.6083306348	-1.1650085128	-0.232581
C	 2.1315438459	-0.8108264253	-0.7517467965	-0.225408
C	 2.0305037232	-1.1274063145	 0.7472498026	-0.159121
N	 0.8378119127	-0.3923595296	 1.1738030898	-0.073929
C	 0.3639661749	-0.3034429393	 2.4508497776	 0.38594
C	 1.2244330484	-0.9376757251	 3.5337964767	-0.494033
O	-0.6905479417	 0.259259635	 2.7080776471	-0.383451
H	 1.1166805503	 2.0000974103	-0.2421028181	 0.104713
H	-0.5383446894	 1.9936766747	-0.8822603054	 0.110268
H	-0.2684448645	 2.0911601239	 0.8685440517	 0.150032
H	-1.0014952945	-0.1756719175	 0.1987840497	 0.098643
H	 0.1798761039	-1.5799601609	-1.3100990521	 0.104088
H	 0.5548882661	-0.0402094639	-2.0917806045	 0.104519
H	 2.6346959911	-1.6039387777	-1.3094179471	 0.105697
H	 2.7005704191	 0.1123074593	-0.9014726399	 0.113425
H	 1.9095343593	-2.2084182159	 0.9103738879	 0.10625
H	 2.9205098058	-0.811019756	 1.3005472778	 0.111619
H	 2.2046782584	-0.4531398294	 3.5962576795	 0.134787
H	 0.7076209525	-0.8226979483	 4.4859344041	 0.144102
H	 1.3984254766	-2.0014675521	 3.3407768095	 0.131438
83.2363	109.1121	142.289	155.7199	202.464	224.6713	253.2216	326.4317	414.9919	420.0835	521.0035	604.6956	609.7978	621.3485	761.7723	828.0522	875.2447	908.1631	926.082	964.634	988.6478	1013.7977	1046.4375	1051.584	1070.418	1118.5525	1157.1721	1196.07	1208.4551	1222.2705	1271.6603	1316.5868	1337.2318	1353.8555	1370.878	1378.0836	1388.8845	1403.0213	1424.9095	1469.7647	1484.9373	1486.0646	1490.0815	1499.3081	1509.4579	1525.6033	1749.9495	2990.7798	3034.8709	3040.4865	3044.915	3052.4686	3065.5385	3067.1568	3100.7981	3101.2473	3104.1618	3112.3483	3138.6927	3160.8222
CC1CCCN1C(C)=O	C[C@H]1CCCN1C(=O)C	
InChI=1S/C7H13NO/c1-6-4-3-5-8(6)7(2)9/h6H,3-5H2,1-2H3	InChI=1S/C7H13NO/c1-6-4-3-5-8(6)7(2)9/h6H,3-5H2,1-2H3/t6-/m0/s1
