20
gdb 113914	2.61488	1.21412	0.99651	6.7048	75.02	-0.2374	0.0374	0.2747	1246.0875	0.172693	-440.302592	-440.29371	-440.292766	-440.336243	33.713	
N	-1.621039903	 1.159527166	 1.306353908	-0.508001
H	-1.6249939769	 0.1449878851	 1.3568266615	 0.249204
H	-2.1586672898	 1.4073660067	 0.479995828	 0.252784
H	-2.6362926867	 1.8631169098	 2.6211611965	 0.31572
C	-0.2346273623	 1.6466202248	 1.1601206726	-0.201145
C	-0.1075416625	 3.1555342613	 1.3017787373	-0.001125
C	-1.2996734988	 4.0824443966	 1.3047463239	-0.310919
C	-0.4978017414	 3.8876979385	 2.5710219876	-0.008305
C	-1.0165089049	 3.1592168686	 3.8200124977	-0.354328
C	-2.5342171955	 3.202657137	 4.011731623	 0.394638
O	-3.0775530213	 3.9273183823	 4.8039286915	-0.330045
O	-3.2374035754	 2.3689744068	 3.2279307232	-0.387349
H	 0.3652634093	 1.150568545	 1.9337933599	 0.120076
H	 0.1972764589	 1.3480257238	 0.194162587	 0.103213
H	 0.7831251015	 3.5347138466	 0.808561306	 0.089695
H	-1.2125024688	 5.0315304813	 0.7876462833	 0.115771
H	-2.2945127722	 3.6548092341	 1.2692900289	 0.126905
H	 0.1507775813	 4.7215339868	 2.8181565837	 0.098718
H	-0.6881209949	 2.1129019887	 3.8202595826	 0.106511
H	-0.5839941965	 3.6311546003	 4.7030334176	 0.127982
86.2427	127.0653	160.8438	182.1378	210.3489	292.8978	365.1986	385.6382	421.9847	469.6039	569.8235	620.5451	727.085	748.126	810.007	855.4303	876.8269	897.1881	938.2031	982.6201	989.5315	1000.6473	1030.41	1071.5519	1084.5091	1116.3531	1133.186	1160.4314	1202.5941	1206.465	1256.1407	1303.3332	1330.4124	1338.225	1381.6127	1412.4112	1424.3803	1469.5479	1489.7393	1502.2138	1510.1301	1646.546	1857.4301	2994.4044	3037.7605	3041.2938	3118.2835	3139.8289	3143.4523	3159.1017	3227.8087	3235.1159	3492.1952	3568.4482
[NH3+]CC1CC1CC([O-])=O	NC[C@H]1C[C@H]1CC(=O)O	
InChI=1S/C6H11NO2/c7-3-5-1-4(5)2-6(8)9/h4-5H,1-3,7H2,(H,8,9)	InChI=1S/C6H11NO2/c7-3-5-1-4(5)2-6(8)9/h4-5H,1-3,7H2,(H,8,9)/t4-,5+/m0/s1
