18
gdb 66292	2.18135	1.54262	1.31602	3.077	72.99	-0.255	-0.0286	0.2264	1070.272	0.147258	-439.120863	-439.112032	-439.111088	-439.154847	32.102	
C	 0.1067784027	 1.6728167045	 0.2469152229	-0.444893
C	-0.0121866117	 0.143507746	 0.080313681	 0.079223
C	 0.6584999576	-0.4137338852	-1.1849899813	-0.280551
C	 2.0185595268	-0.9048251175	-0.6753264244	-0.099589
O	 1.8285004693	-1.2102183375	 0.7198687721	-0.239075
C	 0.7407956887	-0.5612166264	 1.2080721514	 0.393996
N	 0.3790617113	-0.5412275493	 2.4185481504	-0.542058
C	-1.4909155889	-0.2349837767	 0.1910462684	 0.137789
O	-2.1069807454	-0.8274590505	-0.6549347282	-0.253559
H	 1.1545475551	 1.9857717629	 0.2044051384	 0.128676
H	-0.4379595912	 2.1907715721	-0.5487179455	 0.129511
H	-0.2958355096	 1.9818535971	 1.2149567502	 0.150453
H	 0.0577022998	-1.2384368573	-1.5757169807	 0.140818
H	 0.7594044771	 0.3317318208	-1.9763094744	 0.114114
H	 2.3714176642	-1.8141259929	-1.1659024118	 0.128192
H	 2.7978646711	-0.1378905836	-0.7591147826	 0.115262
H	 1.0268599734	-1.0690762247	 3.0050991245	 0.226854
H	-1.9599786404	 0.091288138	 1.1408897297	 0.114836
59.9587	83.719	166.1723	208.1073	231.7968	261.8101	298.3045	331.9895	458.051	538.2528	634.5734	677.974	691.0031	750.5445	846.5927	887.469	917.1722	937.6552	965.3881	984.1251	1014.07	1035.2885	1098.2559	1165.9204	1171.6541	1226.2004	1246.1536	1253.1619	1293.1256	1336.0117	1397.6081	1402.1104	1424.7984	1490.8533	1496.7579	1501.471	1526.2785	1758.5693	1830.481	2939.8986	3034.2353	3037.9964	3076.5801	3108.0717	3109.1336	3125.8766	3127.3817	3480.271
CC1(CCOC1=N)C=O	C[C@]1(CCO[C]1[NH])C=O	
InChI=1S/C6H9NO2/c1-6(4-8)2-3-9-5(6)7/h4,7H,2-3H2,1H3	InChI=1S/C6H9NO2/c1-6(4-8)2-3-9-5(6)7/h4,7H,2-3H2,1H3/t6-/m0/s1
