17
gdb 31345	3.58987	1.14712	0.92411	3.9385	80.46	-0.2328	-0.0265	0.2062	1268.0962	0.137407	-418.048438	-418.040267	-418.039323	-418.08174	30.164	
C	 0.032380206	 1.5735981394	-0.0862152312	-0.378435
C	-0.0362171972	 0.0433747425	 0.0599194345	-0.278369
C	 0.6022833388	-0.4540592238	 1.3160455372	 0.378865
C	 0.0147661974	-1.0764131961	 2.3459162343	-0.233563
C	 0.7877025856	-1.4908075302	 3.5111475254	 0.336794
N	 0.2434590473	-2.0876330172	 4.500579408	-0.524761
N	 2.1757582859	-1.186774752	 3.4702908631	-0.312081
C	 2.6356994627	-0.5941520541	 2.4488776643	 0.11965
O	 1.9580051745	-0.1935274165	 1.3433829729	-0.230415
H	 1.0689350557	 1.920173634	-0.0796714228	 0.135132
H	-0.4259969324	 1.8860352634	-1.0283348903	 0.124091
H	-0.4977209396	 2.0680520408	 0.7331264906	 0.129425
H	-1.0758804929	-0.2955080769	 0.0503459823	 0.123706
H	 0.4654472021	-0.4261314865	-0.7959124468	 0.125954
H	-1.0474120133	-1.2832035466	 2.3284920274	 0.12177
H	 0.9615046891	-2.2846256759	 5.2011693991	 0.218834
H	 3.6873252902	-0.3359169243	 2.3576193819	 0.143402
63.4845	124.1101	139.2235	203.3892	284.4487	329.6625	438.8703	456.3757	516.2884	561.5849	656.6015	753.4831	783.8808	788.5666	874.1851	892.9854	925.6736	930.908	973.3051	975.5076	1063.4437	1083.5926	1111.322	1174.5307	1186.5897	1259.8893	1312.416	1355.9565	1395.5805	1410.8456	1420.0846	1472.8437	1496.8843	1508.1267	1660.5863	1699.5377	1743.937	3032.0468	3047.3411	3093.1954	3120.3601	3128.9721	3182.3725	3221.9888	3459.5976
CCC1=CC(=N)N=CO1	CC[C@@H]1C=C([NH])N=CO1	
InChI=1S/C6H8N2O/c1-2-5-3-6(7)8-4-9-5/h3-4,7H,2H2,1H3	InChI=1S/C6H9N2O/c1-2-5-3-6(7)8-4-9-5/h3-5,7H,2H2,1H3/t5-/m1/s1
