18
gdb 15888	2.67055	1.85797	1.21438	4.1021	67.65	-0.2663	0.0131	0.2794	1027.0368	0.153096	-384.981623	-384.973157	-384.972213	-385.014736	30.531	
C	-0.0525930075	 1.6824783908	-0.0965649309	-0.38803
C	 0.1696823886	 0.1777224288	 0.0956998568	-0.202362
C	 0.7700024146	-0.4709279594	-1.1520085987	-0.198585
C	 0.9245129273	-2.0111273664	-1.2698357474	 0.118734
C	 0.3974200551	-2.913956566	-0.176591709	-0.40279
O	 0.0319642475	-2.0022615042	-2.4443333475	-0.257291
C	-0.1581505137	-0.6482491479	-2.3565005201	 0.459537
O	-0.8531694707	 0.0335273047	-3.0420283175	-0.330646
H	 0.8954417436	 2.2008931466	-0.2771498588	 0.116119
H	-0.7050522694	 1.8710554944	-0.9535765739	 0.152445
H	-0.5125694775	 2.1251275631	 0.7915696032	 0.115648
H	 0.8402635992	 0.0011167489	 0.945727749	 0.104024
H	-0.7825633906	-0.3029147076	 0.3453851702	 0.109957
H	 1.6842916813	 0.0577826252	-1.4418291316	 0.10944
H	 1.9216801229	-2.3256270834	-1.5910910661	 0.097381
H	-0.6187753219	-2.6390891212	 0.116748751	 0.132627
H	 0.3836877136	-3.951816912	-0.5214669608	 0.136811
H	 1.0431910876	-2.8574373544	 0.7057674021	 0.126982
94.1914	101.057	150.1098	203.3928	232.3749	264.2946	322.0762	379.9841	472.2344	530.8811	689.3164	742.253	778.5379	825.3324	871.4103	880.5677	977.8815	1031.3534	1047.066	1059.9995	1102.0193	1138.1049	1165.3498	1179.7489	1226.7144	1286.4372	1311.8733	1343.7888	1379.5928	1389.5345	1414.3072	1417.8988	1480.6381	1492.2313	1498.3931	1500.7454	1511.6949	1923.7121	3029.2889	3038.2303	3044.665	3053.2214	3068.797	3074.7743	3106.6014	3114.58	3124.2778	3129.6277
CCC1C(C)OC1=O	CC[C@H]1[C@@H](C)OC1=O	
InChI=1S/C6H10O2/c1-3-5-4(2)8-6(5)7/h4-5H,3H2,1-2H3	InChI=1S/C6H10O2/c1-3-5-4(2)8-6(5)7/h4-5H,3H2,1-2H3/t4-,5+/m1/s1
