12
gdb 24552	4.11443	1.80386	1.25405	2.2523	69.45	-0.269	-0.0967	0.1722	880.4525	0.08202	-431.71401	-431.708418	-431.707474	-431.743988	21.73	
O	-0.0609436514	 1.3179081301	 0.0097110575	-0.168819
C	 1.1213001425	 1.9778844153	 0.002073234	 0.118511
N	 2.2941818346	 1.4542032019	-0.0119680459	-0.262397
C	 2.4198428752	 0.0841694841	-0.020715924	-0.081814
C	 1.3008692793	-0.6928062424	-0.0143501252	 0.212637
N	 1.0416432734	-2.0420978332	-0.0193234646	-0.334583
C	-0.2805201667	-2.0705179368	-0.0068948489	 0.028099
N	-0.9758488579	-0.8613608603	 0.0063867857	-0.356298
C	 0.0173302047	-0.0218874851	 0.0015845164	 0.393393
H	 0.9658287414	 3.0494893927	 0.0094868177	 0.166949
H	 3.4297883372	-0.3113266423	-0.0325076765	 0.151568
H	-0.8339735423	-3.001612934	-0.0067828962	 0.132754
216.0327	256.7053	368.1966	465.7391	548.724	599.4531	640.4325	655.6112	777.5759	800.2662	911.5268	912.4555	924.4002	957.4569	988.4241	1081.201	1122.0347	1186.8028	1226.4535	1276.5376	1321.7058	1390.7117	1424.216	1439.6511	1563.1622	1613.5813	1677.4894	3198.3995	3226.9648	3230.8249
O1C=NC=C2N=CN=C12	o1cncc2ncnc12	
InChI=1S/C5H3N3O/c1-4-5(8-2-7-4)9-3-6-1/h1-3H	InChI=1S/C5H3N3O/c1-4-5(8-2-7-4)9-3-6-1/h1-3H
