20
gdb 85666	2.44844	1.26262	1.09468	4.7749	79.53	-0.2746	0.0305	0.3051	1204.2437	0.169259	-403.161702	-403.151914	-403.15097	-403.195847	36.552	
C	-0.1126997336	 1.4960352376	-0.0128137753	-0.431553
C	-0.0512944939	-0.0324517674	-0.0285883469	 0.270679
C	-1.4182463728	-0.6375566691	-0.3261515822	-0.459665
C	 1.1418561441	-0.5678025287	-0.8783118999	 0.110634
O	 1.5400799299	 0.2882892931	-1.917995916	-0.426413
C	 2.013822607	-0.6578116563	 0.4005753473	-0.295691
C	 0.6957244465	-0.6270461702	 1.2324040408	-0.178232
C	 0.6794434443	 0.1223810739	 2.4747187688	 0.280377
N	 0.6660137523	 0.7329929158	 3.4571282773	-0.338865
H	 0.8553668086	 1.9502229998	 0.2115181378	 0.1283
H	-0.4303908541	 1.866509989	-0.9907336116	 0.129277
H	-0.8279198773	 1.8388870864	 0.7409438744	 0.128181
H	-1.7778622685	-0.3070917949	-1.3066517001	 0.128281
H	-1.3813611225	-1.7322623609	-0.3325856115	 0.109748
H	-2.1573519299	-0.3291467658	 0.421287721	 0.127216
H	 0.9100348743	-1.573329237	-1.2597661836	 0.068633
H	 2.237980625	-0.1409895772	-2.4224842509	 0.289024
H	 2.6609365478	-1.5266674253	 0.5333782384	 0.110272
H	 2.5949350492	 0.2556660177	 0.5394299527	 0.13232
H	 0.3408553637	-1.6422479106	 1.4339443595	 0.117477
81.192	135.947	181.0005	201.7866	224.9648	237.3456	267.767	279.3947	348.97	362.0299	422.0086	485.6719	540.5531	585.8214	597.0113	729.2567	784.9977	895.2705	908.8501	960.6008	991.3711	1005.5409	1029.0837	1048.9364	1118.1406	1149.8775	1167.1745	1187.106	1207.2326	1248.5295	1259.0467	1295.1701	1328.0574	1352.1292	1404.0076	1417.7766	1439.5387	1479.2475	1485.0294	1488.8322	1500.7303	1504.9046	2349.8942	2986.4238	3026.2633	3048.0663	3065.7913	3077.8654	3095.5856	3099.0722	3119.3942	3126.077	3140.2038	3823.3991
CC1(C)C(O)CC1C#N	CC1(C)[C@@H](O)C[C@H]1C#N	
InChI=1S/C7H11NO/c1-7(2)5(4-8)3-6(7)9/h5-6,9H,3H2,1-2H3	InChI=1S/C7H11NO/c1-7(2)5(4-8)3-6(7)9/h5-6,9H,3H2,1-2H3/t5-,6-/m0/s1
