21
gdb 39812	2.65482	1.6044	1.53968	1.433	81.68	-0.2316	0.0857	0.3173	1012.9184	0.185122	-387.060858	-387.053394	-387.05245	-387.092313	30.902	
C	 0.1126865283	 1.3789623062	-0.0607811866	-0.367635
C	 1.3808498717	 0.5501574687	-0.1059498592	-0.353989
C	 0.0466771138	-0.1157181879	-0.0024301513	 0.413062
C	-0.6062149141	-0.9581134206	 1.1109522054	-0.112652
C	-1.7839324901	-1.1756190343	 0.1133155183	-0.230563
C	-0.7170132001	-0.997679941	-1.0017936546	 0.049577
O	-0.0593650166	-2.2356890707	-1.2454715125	-0.281083
C	 0.7319143406	-2.6821241051	-0.1424696116	-0.057873
C	 0.1523593332	-2.2925970058	 1.2379723658	-0.231741
H	-0.0970289288	 1.9378237106	 0.846233304	 0.110995
H	-0.2049240608	 1.8768797188	-0.9719842153	 0.112939
H	 1.915271359	 0.4843645934	-1.0485506621	 0.118204
H	 2.0232412672	 0.5568921813	 0.7694714147	 0.111008
H	-0.8121864062	-0.4917313469	 2.0776738982	 0.060308
H	-2.3021996877	-2.1375448993	 0.1366663288	 0.090712
H	-2.5019981763	-0.3525437002	 0.1323042666	 0.098523
H	-1.0050636965	-0.594433852	-1.9754675637	 0.071475
H	 0.8192056909	-3.7673212235	-0.2485909896	 0.101624
H	 1.7409485515	-2.259570879	-0.2340534449	 0.100232
H	 0.9795690221	-2.2144248378	 1.9528075012	 0.095814
H	-0.530127141	-3.062359845	 1.6164854484	 0.101064
158.6307	202.7834	221.4646	243.9865	353.5762	404.7755	460.1165	518.4575	599.5183	635.8742	775.9568	808.9744	824.2305	846.8423	867.1073	908.2373	915.5129	945.3555	956.8249	969.7658	985.5995	1045.714	1054.337	1067.8111	1077.8583	1092.8936	1114.2825	1146.8552	1165.9117	1186.0251	1219.0498	1228.5144	1254.4463	1264.8447	1275.3359	1313.4787	1345.3558	1354.0054	1405.4267	1415.312	1464.003	1475.8258	1492.8484	1506.2697	1515.8774	3013.0183	3028.5857	3057.3571	3066.3231	3074.1591	3083.278	3085.3275	3117.4887	3121.6927	3122.5821	3194.3485	3209.0033
C1CC11C2CC1OCC2	C1CC21[C@H]1C[C@@H]2OCC1	
InChI=1S/C8H12O/c1-4-9-7-5-6(1)8(7)2-3-8/h6-7H,1-5H2	InChI=1S/C8H12O/c1-4-9-7-5-6(1)8(7)2-3-8/h6-7H,1-5H2/t6-,7+/m1/s1
