23
gdb 109883	2.37047	1.39127	1.10695	1.7484	84.09	-0.2518	0.0631	0.3149	1218.0869	0.206442	-388.257121	-388.247906	-388.246962	-388.291048	35.676	
C	-0.3884511408	 1.6836022962	-0.3702361688	-0.435691
C	-0.1400484902	 0.1828372515	-0.2556920407	 0.022275
C	 1.0233434656	-0.518199133	-1.0566589632	-0.033313
C	 2.0580993765	 0.3469767553	-1.7679139015	-0.087069
O	 1.5572797073	 0.9181469944	-2.9705245185	-0.427583
C	 1.4624856354	-1.2592775302	 0.2497844283	-0.04103
C	 2.6164920311	-0.633684637	 1.0734615138	-0.225655
C	 1.6048794998	 0.3435557314	 1.7426908861	-0.232135
C	 0.4214206232	-0.4102124047	 1.0632978064	-0.027302
H	 0.5227804083	 2.2767018638	-0.2427519708	 0.119366
H	-0.8266198035	 1.942718564	-1.3422250034	 0.11087
H	-1.0990411699	 2.016420398	 0.3948077232	 0.118779
H	-1.0777331591	-0.3324513361	-0.4902820786	 0.074068
H	 0.6301227117	-1.2103599371	-1.8068211124	 0.076976
H	 2.4581869347	 1.1274373657	-1.1036115238	 0.085352
H	 2.9076696798	-0.2768757425	-2.0687891523	 0.109059
H	 0.8677909847	 1.5439308168	-2.7300691709	 0.281907
H	 1.4290609376	-2.3483176172	 0.1927581813	 0.061257
H	 3.0271344913	-1.3499211702	 1.7904122554	 0.098149
H	 3.4552823067	-0.1948045097	 0.526902497	 0.097927
H	 1.5944299879	 0.308338155	 2.8345605832	 0.100146
H	 1.7114904788	 1.3912772595	 1.4495100386	 0.095598
H	-0.3036075368	-0.854446824	 1.7477945116	 0.05805
59.2497	116.2764	193.0838	216.4365	223.1104	261.4371	288.4189	327.6126	420.7513	453.0058	542.5383	602.8179	723.502	746.9467	765.7368	837.4337	844.8331	881.8779	942.43	961.4904	985.0722	998.1253	1008.8719	1045.6535	1064.5161	1079.3695	1120.8631	1135.6518	1142.9375	1176.261	1204.2694	1208.3059	1233.0144	1238.4939	1263.8466	1283.8503	1293.0694	1306.5969	1330.6189	1342.7517	1371.7377	1395.1129	1405.6783	1418.0015	1477.7285	1492.7563	1497.8117	1507.1858	1512.3915	2989.9158	3020.0538	3033.277	3053.6443	3055.1606	3061.0691	3066.1124	3078.1331	3078.9455	3093.0246	3095.087	3097.3375	3114.1585	3832.2378
CC1C(CO)C2CCC12	C[C@H]1[C@@H](CO)[C@H]2CC[C@@H]12	
InChI=1S/C8H14O/c1-5-6-2-3-7(6)8(5)4-9/h5-9H,2-4H2,1H3	InChI=1S/C8H14O/c1-5-6-2-3-7(6)8(5)4-9/h5-9H,2-4H2,1H3/t5-,6+,7+,8-/m1/s1
