21
gdb 108377	2.07195	1.65862	1.22038	2.0772	78.62	-0.2277	0.0664	0.2941	1142.9187	0.179883	-424.170367	-424.160637	-424.159693	-424.204431	36.222	
C	-0.9917730355	 0.7491938781	-0.1719762136	-0.256996
O	 0.0300501895	-0.1986889592	 0.1049927856	-0.270658
C	 0.600618606	-0.7324982674	-1.0288822654	 0.307073
C	 0.0199768461	-1.9259447876	-1.7921415767	-0.158609
O	 1.3513478534	-2.4753441695	-1.9906639921	-0.287131
C	 1.9226829156	-1.4328858969	-1.1924787201	-0.039148
C	 1.7271491656	-0.0672558049	-1.8245417031	 0.222247
C	 1.6926268184	 0.0989382767	-3.330002378	-0.468859
C	 2.4253064155	 1.050144412	-1.0664374718	-0.457558
H	-0.6098358801	 1.5936815666	-0.7600797226	 0.116224
H	-1.8299637459	 0.2924526142	-0.7166857691	 0.113448
H	-1.3542763749	 1.1155002699	 0.7908090952	 0.13073
H	-0.5743516054	-2.5787509055	-1.1425639905	 0.114408
H	-0.50613715	-1.7512338089	-2.737190498	 0.102841
H	 2.7164931861	-1.6947976097	-0.5015789427	 0.108383
H	 1.354738153	-0.814394732	-3.8239016851	 0.136105
H	 1.0347027269	 0.9234333988	-3.6276041187	 0.108697
H	 2.6959107679	 0.3239055457	-3.7100370935	 0.11532
H	 3.4652009576	 1.1434068908	-1.3985178616	 0.116965
H	 1.9346287499	 2.0138609665	-1.2437628608	 0.116528
H	 2.4220783303	 0.8738894725	 0.0122080326	 0.129989
91.0432	144.6591	165.3528	185.1891	211.4494	226.118	256.6664	292.2596	333.154	379.9297	431.4333	449.7064	556.8417	633.3449	726.4083	752.5582	923.9268	953.4568	966.607	972.8064	989.4758	1007.6075	1041.7862	1068.5647	1083.4918	1129.9378	1156.2197	1162.2715	1179.6145	1210.1938	1223.8951	1254.998	1299.4416	1326.432	1403.2181	1416.5539	1434.1072	1482.8973	1486.7856	1489.5726	1490.9721	1500.4928	1505.162	1514.4322	1517.8419	2997.5248	3025.241	3027.5295	3031.4777	3055.3558	3078.7205	3082.2859	3086.4262	3117.9155	3125.3249	3127.5424	3175.2088
COC12COC1C2(C)C	CO[C@]12CO[C@H]1C2(C)C	
InChI=1S/C7H12O2/c1-6(2)5-7(6,8-3)4-9-5/h5H,4H2,1-3H3	InChI=1S/C7H12O2/c1-6(2)5-7(6,8-3)4-9-5/h5H,4H2,1-3H3/t5-,7+/m0/s1
