16
gdb 8943	4.25461	1.16751	0.97339	1.7998	58.05	-0.2662	-0.0371	0.2291	1142.3735	0.127994	-458.009271	-458.000395	-457.999451	-458.043037	31.594	
O	 0.0748198563	 1.358656222	-0.4371904395	-0.42416
C	 0.0830436624	-0.009746946	-0.0331526331	-0.101525
C	-1.3512010209	-0.5424888521	 0.0103171464	 0.090888
O	-2.0138531907	-0.2407674679	-1.2017633172	-0.448602
C	-1.3841743829	-2.0703443669	 0.1987262568	 0.035547
O	-0.7296492693	-2.4349454311	 1.3817980938	-0.439735
C	-2.8157613042	-2.5725013233	 0.2112153651	 0.131974
O	-3.2434085577	-3.1966673411	 1.1543624359	-0.268158
H	-0.203002176	 1.8915483537	 0.3155639323	 0.292297
H	 0.6466250563	-0.5433476079	-0.8059577529	 0.119815
H	 0.5824151833	-0.1590176492	 0.92974569	 0.124293
H	-1.8725400194	-0.0826483464	 0.8695965977	 0.067026
H	-1.6692622526	 0.6207248425	-1.4751630537	 0.293889
H	-0.893841399	-2.5178472274	-0.684409044	 0.100738
H	-1.3886175957	-2.9297230418	 1.8967924205	 0.296642
H	-3.4329520797	-2.3345913673	-0.6722842181	 0.12907
70.2506	99.3939	130.5025	180.3867	273.8927	313.0986	333.4206	353.5968	412.9003	448.7063	486.8557	537.7316	576.8091	772.746	848.1505	897.8796	961.2093	1030.4942	1071.3654	1079.7953	1127.7029	1168.8181	1188.1716	1266.2739	1277.9282	1327.0286	1346.5536	1378.1876	1382.7261	1403.6712	1419.7817	1457.7064	1494.9785	1804.4798	2935.7269	2958.0422	2997.8131	3044.1269	3098.977	3667.2356	3746.3771	3811.3194
OCC(O)C(O)C=O	OC[C@@H](O)[C@@H](O)C=O	
InChI=1S/C4H8O4/c5-1-3(7)4(8)2-6/h1,3-4,6-8H,2H2	InChI=1S/C4H8O4/c5-1-3(7)4(8)2-6/h1,3-4,6-8H,2H2/t3-,4+/m0/s1
