18
gdb 47405	2.65294	1.63422	1.25508	1.8986	71.25	-0.2155	-0.0332	0.1823	1039.5473	0.148798	-439.077857	-439.06982	-439.068876	-439.110973	29.989	
O	-0.2018137126	 0.1488873975	 0.70908749	-0.313064
C	-0.1293228467	 1.269546334	 0.2792362523	 0.356507
C	-1.2652823119	 2.1412065659	-0.2734140971	-0.283354
N	-0.663507612	 3.4259840268	-0.6602187421	-0.304002
C	 0.5839035301	 3.53688191	 0.1284204098	-0.261994
C	 1.1513155951	 2.1279967697	 0.1930765874	 0.355076
C	 2.3482194613	 1.692083179	 1.0455879764	-0.365469
C	 2.96531306	 1.2426638548	-0.2933490981	-0.065835
O	 1.8410911293	 1.7676043933	-1.0440144704	-0.331903
H	-1.7782464173	 1.6530279498	-1.1058355854	 0.140031
H	-2.006963702	 2.2815694239	 0.5255248161	 0.137286
H	-0.4008275299	 3.3765036448	-1.6396041118	 0.235776
H	 1.2744798819	 4.2443252481	-0.334953903	 0.118009
H	 0.3451334926	 3.8945177976	 1.1401169625	 0.110915
H	 2.871218966	 2.506400474	 1.5500138176	 0.113263
H	 2.1235247985	 0.8926558131	 1.7530118793	 0.131864
H	 3.901739904	 1.7279812432	-0.588803989	 0.108384
H	 3.0623557638	 0.1590206947	-0.4183067845	 0.11851
74.0254	86.1961	164.8829	210.7212	257.9676	357.785	426.092	544.2289	556.638	638.17	702.8845	761.9875	811.7267	842.4204	865.9421	913.4206	932.5943	978.8982	1004.6474	1017.202	1055.1194	1064.9111	1092.922	1157.5044	1177.5816	1204.5639	1224.3287	1250.7803	1269.5367	1289.2549	1310.2456	1343.2183	1368.5186	1456.6984	1468.9782	1475.2417	1478.562	1523.8348	1854.8434	3012.0889	3017.2219	3033.6555	3078.0534	3081.7828	3102.6244	3113.5581	3140.6542	3520.2658
O=C1CNCC11CCO1	O=C1CNC[C@]21CCO2	
InChI=1S/C6H9NO2/c8-5-3-7-4-6(5)1-2-9-6/h7H,1-4H2	InChI=1S/C6H9NO2/c8-5-3-7-4-6(5)1-2-9-6/h7H,1-4H2/t6-/m0/s1
