18
gdb 34916	2.73637	1.63936	1.29902	4.3177	77.65	-0.264	0.0405	0.3045	1011.3418	0.150266	-364.806509	-364.799296	-364.798352	-364.838155	29.053	
N	 0.0473586708	-1.171836414	 0.0428253433	-0.338698
C	 0.0173221772	-0.0162242031	 0.0261174407	 0.285226
C	-0.0116112905	 1.4492475279	 0.0203511286	-0.191636
C	-0.7347401191	 2.0511139589	 1.2432782371	-0.043085
C	-0.2164149984	 1.7745267315	 2.6296702353	-0.299634
C	 0.2113286399	 3.0295368411	 1.9098612867	-0.039961
C	 1.5118657247	 3.0521102886	 1.1281012512	-0.039961
C	 2.3799384831	 1.8195934226	 1.068961299	-0.299636
C	 1.3918097448	 2.088046746	-0.0350212494	-0.043088
H	-0.5574630033	 1.7575349726	-0.8788036986	 0.126933
H	-1.7907853381	 2.2623106135	 1.1222254796	 0.100168
H	-0.9284163796	 1.886547359	 3.4403263786	 0.118491
H	 0.4908375427	 0.9691661367	 2.7868607699	 0.131034
H	-0.1511920122	 3.9809486884	 2.2812008844	 0.092077
H	 1.9854440262	 4.0180312906	 0.9968766117	 0.092078
H	 3.4266309796	 1.9621596489	 0.822449313	 0.118491
H	 2.2076969369	 0.9989384239	 1.7548047609	 0.131035
H	 1.7746308255	 2.3242312969	-1.0209992321	 0.100167
100.6052	137.0565	272.1275	297.1446	402.7676	477.3406	509.4044	567.6362	668.6461	688.762	719.1886	785.608	824.7426	827.8831	835.0473	922.1497	968.5672	982.6563	1008.1538	1010.4503	1038.6235	1055.8924	1057.8816	1080.9689	1108.1795	1110.3575	1114.8949	1117.7869	1200.7445	1219.7586	1262.7382	1313.6727	1320.1969	1358.872	1380.7159	1389.9411	1482.4425	1508.5185	2353.3643	3045.5033	3138.0811	3144.3808	3168.0825	3173.5118	3175.867	3185.6285	3219.6091	3226.9049
N#CC1C2CC2C2CC12	N#C[C@H]1[C@H]2C[C@H]2[C@H]2C[C@@H]12	
InChI=1S/C8H9N/c9-3-8-6-1-4(6)5-2-7(5)8/h4-8H,1-2H2	InChI=1S/C8H9N/c9-3-8-6-1-4(6)5-2-7(5)8/h4-8H,1-2H2/t4-,5+,6-,7+,8-
