21
gdb 75466	2.51666	1.62618	1.18928	1.509	85.07	-0.22	0.0253	0.2452	1123.6805	0.182677	-387.095242	-387.086681	-387.085737	-387.128243	33.238	
C	-0.2264481661	 1.4256188245	 0.2945851229	-0.502204
C	-0.0641180082	-0.043734902	 0.066431905	 0.283868
C	 0.0826645086	-0.6770628816	-1.0949144683	-0.22689
C	 0.2127002528	-2.1529310735	-0.8704076946	-0.141377
O	 0.1272062185	-2.3133794867	 0.5428517887	-0.318375
C	-0.0446666179	-1.0581424819	 1.1858832471	 0.371313
C	 0.9362850389	-0.7801637663	 2.3700817469	-0.276753
C	-0.2676906302	-0.3147332781	 3.2317313969	-0.215273
C	-1.2208264987	-0.9945433881	 2.2128973469	-0.276762
H	 0.5736586289	 1.8247851914	 0.9295485881	 0.132309
H	-0.2113789113	 1.9748985651	-0.650141355	 0.125771
H	-1.1725168336	 1.6517892331	 0.8010518921	 0.132319
H	 0.1082531621	-0.2193371757	-2.0765618689	 0.09634
H	-0.5866321511	-2.7304983951	-1.3616255876	 0.102499
H	 1.1705697742	-2.5566871366	-1.2353963592	 0.102542
H	 1.3506635865	-1.7290148917	 2.7192924142	 0.112786
H	 1.7561234338	-0.0777554802	 2.197204009	 0.092619
H	-0.3069404499	-0.6747808619	 4.2615885093	 0.099732
H	-0.3767240529	 0.7726826833	 3.2447852631	 0.100153
H	-2.1287921657	-0.4637826934	 1.9140878956	 0.092611
H	-1.4872185989	-2.0110284846	 2.5125097678	 0.112773
88.0295	136.9028	178.4654	210.6012	259.1506	262.328	365.8248	414.1165	454.2606	573.8426	633.3538	691.4119	777.217	779.4385	810.3017	843.094	897.6955	933.527	950.4676	960.8252	1017.206	1020.5948	1024.8645	1051.1181	1070.9965	1077.4286	1147.3888	1159.425	1191.5012	1201.3361	1213.5847	1241.4736	1254.8681	1270.2199	1286.2948	1355.1905	1380.7252	1416.546	1463.2716	1482.1276	1483.5977	1491.0062	1505.7874	1523.2525	1728.5265	2970.9017	2985.3708	3025.2097	3056.0572	3058.8533	3068.9063	3073.481	3103.9976	3114.5884	3116.0373	3127.7014	3205.5284
CC1=CCOC11CCC1	CC1=CCOC21CCC2	
InChI=1S/C8H12O/c1-7-3-6-9-8(7)4-2-5-8/h3H,2,4-6H2,1H3	InChI=1S/C8H12O/c1-7-3-6-9-8(7)4-2-5-8/h3H,2,4-6H2,1H3
