16
gdb 105937	3.8066	1.44855	1.35386	1.3973	66.	-0.2516	0.0528	0.3044	962.8183	0.125251	-437.777121	-437.770338	-437.769393	-437.808618	26.779	
O	 0.0953362953	 1.1801333041	-0.557106049	-0.4156
C	-0.0521944178	 0.069926104	 0.3132661972	-0.20228
C	-1.4563609408	-0.4381833934	 0.3178603607	 0.33622
C	-1.9218078567	-1.8454483019	 0.4384536435	-0.134423
C	-3.3903273927	-1.5781973536	 0.8624111288	 0.059432
O	-3.3854873771	-0.4599952889	 1.7761179817	-0.289954
C	-2.7815434601	 0.2828074442	 0.6920968174	 0.001449
C	-3.397816469	-0.6503508378	-0.3817087676	-0.035605
N	-2.0354241487	-1.1432743918	-0.8873381971	-0.234756
H	-0.1947604378	 0.8833163614	-1.4276186942	 0.29217
H	 0.6326035855	-0.7500557425	 0.0464085408	 0.09868
H	 0.2253261857	 0.422254335	 1.312869388	 0.122318
H	-1.2839779233	-2.7076795221	 0.5859503762	 0.105688
H	-4.0738836542	-2.3828255582	 1.1226433514	 0.096892
H	-2.839634073	 1.3647466811	 0.7803692119	 0.103063
H	-4.2178309753	-0.4456028096	-1.0655033798	 0.096705
82.138	145.3475	252.4181	364.8613	435.4925	542.1312	613.3963	670.1896	754.7547	769.2297	810.4329	821.0197	853.9144	871.5299	887.3893	923.6575	944.6205	971.1574	982.4915	994.2969	1067.5286	1069.278	1118.945	1147.4596	1178.497	1193.6937	1206.419	1232.7105	1242.252	1293.4958	1312.6141	1370.2558	1407.6603	1440.3631	1488.6454	2985.7575	3071.4119	3146.9627	3155.647	3164.1918	3198.9074	3795.6388
OCC12C3C4OC1C4N23	OC[C@@]12[C@H]3[C@H]4O[C@@H]1[C@H]4N23	
InChI=1S/C6H7NO2/c8-1-6-4-3-2(7(4)6)5(6)9-3/h2-5,8H,1H2	InChI=1S/C6H7NO2/c8-1-6-4-3-2(7(4)6)5(6)9-3/h2-5,8H,1H2/t2-,3-,4+,5+,6+,7?/m0/s1
