20
gdb 122571	3.82494	0.86546	0.81437	1.4893	75.51	-0.2407	0.0651	0.3057	1469.6029	0.170832	-440.217296	-440.208373	-440.207429	-440.252132	32.865	
O	 0.1344695651	 1.2766606737	-0.5681180891	-0.420632
C	-0.041235161	 0.0231151312	 0.0609650745	-0.060681
C	-1.508072365	-0.3746920153	 0.107377658	-0.079561
O	-1.9589797603	-0.431415146	-1.2379318404	-0.274386
C	-3.3283770118	-0.7223556945	-1.3697424062	 0.137332
C	-4.388182819	 0.391146497	-1.1170030499	-0.20627
N	-4.9505053542	 0.2290297768	-2.5059730612	-0.124912
C	-3.8428122256	 0.5785576338	-3.4072542229	-0.230897
C	-3.8300334174	-0.7668166804	-2.7996646461	-0.068253
H	-0.3359616367	 1.2142745904	-1.4074476801	 0.288518
H	 0.5279146926	-0.7689591283	-0.4512306773	 0.094568
H	 0.3493392494	 0.1134989418	 1.0797965858	 0.109518
H	-1.6336558309	-1.3516687235	 0.6020729215	 0.08981
H	-2.0819353778	 0.3752709339	 0.6728518871	 0.100771
H	-3.57267515	-1.6388915369	-0.8154551283	 0.079388
H	-5.1397588105	 0.1349783251	-0.368271212	 0.114227
H	-3.994354172	 1.3930061967	-0.9167713544	 0.111311
H	-4.1461022026	 0.6434192514	-4.4475029175	 0.124936
H	-3.1173233718	 1.3253705737	-3.0937352889	 0.11658
H	-4.0024054604	-1.6696061104	-3.3755041326	 0.098632
46.775	63.7115	119.8087	152.7297	249.3406	293.5724	380.1452	416.0927	445.5328	507.1594	569.8665	718.4997	757.4245	791.0968	847.8568	902.8407	912.1875	961.4505	993.6317	1000.7318	1048.505	1067.1263	1081.6556	1097.1863	1112.8417	1122.2755	1136.6104	1168.4576	1205.8279	1224.5954	1239.4793	1262.8426	1272.6667	1300.0151	1370.3366	1377.2622	1388.1962	1427.5357	1441.3897	1483.8567	1499.2144	1504.6302	1508.6553	2970.573	2980.9919	3009.6695	3017.2014	3050.4552	3080.7882	3110.0144	3120.4406	3171.5287	3203.1341	3800.0684
OCCOC1CN2CC12	OCCO[C@H]1CN2C[C@@H]12	
InChI=1S/C6H11NO2/c8-1-2-9-6-4-7-3-5(6)7/h5-6,8H,1-4H2	InChI=1S/C6H11NO2/c8-1-2-9-6-4-7-3-5(6)7/h5-6,8H,1-4H2/t5-,6-,7?/m0/s1
