20
gdb 92266	2.33423	1.64167	1.48626	1.0677	79.77	-0.2144	0.0227	0.2371	1030.4962	0.171236	-403.131583	-403.123173	-403.122229	-403.164131	33.018	
C	-0.2870957384	 1.3703074532	 0.0013491581	-0.453902
C	 0.0689857748	-0.1097766089	-0.0816577849	 0.270451
C	-1.1447930066	-1.0075403836	-0.1680023876	-0.099818
C	-1.2306770637	-1.7924777289	 0.9036288638	-0.083562
C	-0.0558366178	-1.5730003409	 1.8342059827	-0.232575
N	 0.838061312	-0.6686188832	 1.0907743747	-0.130259
C	 1.7778757269	-1.3519130964	 0.159582822	-0.216904
C	 1.2477681681	-0.4922398955	-1.0140840321	 0.071673
O	 0.853788478	-1.1354780945	-2.2022479734	-0.42852
H	 0.6088926879	 1.9719311642	 0.1802284636	 0.116583
H	-0.7510646418	 1.7055540332	-0.9333490197	 0.116894
H	-0.9936004788	 1.5554677573	 0.8164404126	 0.118694
H	-1.8594521936	-0.9505958023	-0.9794960912	 0.102112
H	-2.0371072702	-2.4848371091	 1.1186541298	 0.095184
H	-0.3742995817	-1.1278277752	 2.7883900705	 0.10493
H	 0.4735245096	-2.5015387293	 2.0858843889	 0.104867
H	 2.8328032487	-1.2485164303	 0.434728823	 0.092781
H	 1.5436445996	-2.4127530141	-0.0015114142	 0.098044
H	 1.890940474	 0.372746787	-1.2246480068	 0.067741
H	 1.639084643	-1.3050846526	-2.7317136899	 0.285586
97.2081	195.7532	199.6279	236.0794	246.4934	286.2961	323.4413	448.9207	466.8756	531.5843	607.6243	654.1132	736.3557	756.475	808.0457	834.4018	903.8926	926.8109	949.8219	964.5564	967.3006	1034.8032	1050.274	1086.3696	1101.8716	1141.5364	1165.5466	1176.7895	1183.8592	1210.5441	1230.9344	1262.1845	1303.7627	1316.7481	1332.9949	1355.0087	1399.8741	1436.9587	1484.9145	1491.543	1493.3206	1503.5701	1673.6596	2993.0975	3006.7572	3009.9531	3030.2175	3032.7535	3068.512	3101.0366	3111.5256	3189.542	3220.6107	3820.951
CC12C=CCN1CC2O	C[C@]12C=CCN1C[C@H]2O	
InChI=1S/C7H11NO/c1-7-3-2-4-8(7)5-6(7)9/h2-3,6,9H,4-5H2,1H3	InChI=1S/C7H11NO/c1-7-3-2-4-8(7)5-6(7)9/h2-3,6,9H,4-5H2,1H3/t6-,7-/m1/s1
