19
gdb 113560	3.03853	1.0298	0.95069	2.2579	72.86	-0.2293	0.0597	0.289	1312.1071	0.157199	-460.108818	-460.099293	-460.098349	-460.143795	34.486	
O	 0.0020851598	 1.2221388037	-0.592646275	-0.422035
C	-0.0699175587	 0.0510270232	 0.2137286378	-0.099833
C	-1.4578092128	-0.5182125693	 0.1045749945	-0.067889
C	-1.8443461462	-1.2995684735	-1.1459291058	-0.361632
C	-1.651886742	-2.0021671727	 0.1515021572	 0.41929
O	-0.5790514788	-2.9202332195	 0.3866479831	-0.30715
C	-1.3493495112	-3.5960011689	 1.4089807021	-0.105138
C	-2.6123207894	-2.7741705075	 1.044138528	-0.025412
O	-3.212017659	-1.9921701097	 2.046007361	-0.422967
H	 0.8844951041	 1.5924432739	-0.4943662177	 0.282983
H	 0.6604688675	-0.7058122354	-0.1079215612	 0.099074
H	 0.1466668936	 0.284385234	 1.2682362076	 0.088178
H	-2.2411411155	 0.0721907169	 0.5704512052	 0.104505
H	-2.849461055	-1.1941680913	-1.5416251959	 0.112757
H	-1.0715159404	-1.4364350394	-1.8955447472	 0.125026
H	-1.3802189147	-4.6780492283	 1.2440555307	 0.102336
H	-0.9816515982	-3.3752969095	 2.4185180362	 0.105669
H	-3.3568861993	-3.3536920689	 0.4839164806	 0.082017
H	-3.9202333237	-2.5011764079	 2.451239249	 0.290223
62.2912	73.2425	128.0802	145.8365	222.5457	247.7748	268.6462	308.2398	401.0201	446.9193	495.6379	543.1128	622.5229	771.1879	839.4482	868.6366	871.8199	911.193	976.5665	1005.5138	1030.6448	1045.2334	1065.24	1072.0278	1100.1479	1146.8999	1156.9538	1174.4366	1196.5709	1218.4198	1254.9425	1269.4364	1287.8502	1321.7978	1333.2356	1405.4995	1449.0338	1464.4463	1493.089	1518.5512	1522.2627	2974.4598	3012.731	3019.5	3023.2351	3082.5511	3125.7146	3158.9542	3214.5476	3822.64	3831.0402
OCC1CC11OCC1O	OC[C@H]1C[C@]21OC[C@H]2O	
InChI=1S/C6H10O3/c7-2-4-1-6(4)5(8)3-9-6/h4-5,7-8H,1-3H2	InChI=1S/C6H10O3/c7-2-4-1-6(4)5(8)3-9-6/h4-5,7-8H,1-3H2/t4-,5-,6-/m1/s1
