13
gdb 133316	2.42225	1.84112	1.04677	3.9583	64.9	-0.228	-0.0286	0.1994	1019.3207	0.089623	-494.049095	-494.041671	-494.040727	-494.080724	28.6	
N	 0.016033918	 1.3777512135	-0.1597262405	-0.559076
C	 0.008317061	 0.0077201185	-0.065130616	 0.341613
C	-1.2187265934	-0.6912260627	-0.0868491875	 0.20611
O	-2.384019885	-0.0000760606	-0.1362814453	-0.445497
C	-1.126598209	-2.0601926911	-0.0465052883	 0.163533
F	-2.2580982967	-2.7799990832	-0.0604399888	-0.082704
C	 0.1279054079	-2.6635897994	 0.0104196678	-0.103552
N	 1.2450339027	-1.9490976166	 0.0376447553	-0.21129
N	 1.1843607203	-0.6197652623	 0.0069235958	-0.283392
H	 0.8917118751	 1.8046288801	 0.1028993334	 0.265018
H	-0.8158591318	 1.8581272542	 0.1439890085	 0.266963
H	-3.1155572632	-0.6300949968	-0.1289864445	 0.312267
H	 0.2234497342	-3.7434752837	 0.0400137602	 0.130008
144.8603	247.5642	271.3354	295.5735	309.5102	408.2878	422.8927	485.3569	508.9377	543.2623	587.8268	589.6194	635.4288	713.7309	784.7481	877.0157	891.5258	1018.4787	1085.3478	1168.7609	1250.6489	1285.0535	1330.6678	1349.5499	1437.0365	1528.3144	1606.3108	1621.8737	1668.7395	3193.8983	3582.4393	3702.4403	3792.8777
NC1=C(O)C(F)=CN=N1	Nc1c(O)c(F)cnn1	
InChI=1S/C4H4FN3O/c5-2-1-7-8-4(6)3(2)9/h1H,(H2,6,8)(H,7,9)	InChI=1S/C4H4FN3O/c5-2-1-7-8-4(6)3(2)9/h1H,(H2,6,8)(H,7,9)
