16
gdb 52537	3.97261	0.74478	0.63005	6.1323	79.18	-0.2477	-0.0235	0.2242	1718.2703	0.123246	-434.090692	-434.080537	-434.079593	-434.128381	34.738	
C	-0.093352818	 1.4315376966	 0.0114377141	-0.504446
C	-0.1318427968	-0.0216599118	 0.0358259624	 0.173404
C	-0.1955441259	-1.2247593026	 0.0614246872	-0.000535
C	-0.2350975756	-2.6635833184	 0.0813336942	 0.195981
N	-1.3175562935	-3.2944241925	 0.2949353242	-0.502673
N	 1.0471186307	-3.2183566729	-0.1545197277	-0.405843
C	 1.3469195116	-4.5707217931	-0.2206492842	 0.487806
N	 2.6816752601	-4.8237115092	-0.4817232324	-0.575065
O	 0.5226007743	-5.4576514175	-0.1033326573	-0.374107
H	 0.5783264417	 1.8230584888	 0.7831991869	 0.154891
H	 0.2596815946	 1.8017263344	-0.9572521634	 0.155584
H	-1.0889562019	 1.851337802	 0.1884849755	 0.164272
H	-1.1422316384	-4.3005343875	 0.2590947727	 0.256055
H	 1.772536665	-2.55365949	-0.3719151509	 0.253082
H	 3.3771826354	-4.163401326	-0.1703147316	 0.253049
H	 2.9307152167	-5.7922171602	-0.3506975597	 0.268545
10.8792	62.3543	79.4745	98.2906	175.3117	236.5202	306.6519	351.2731	378.4916	398.0265	424.9712	504.8504	524.9542	589.4451	623.0824	699.4712	771.0524	840.3152	947.2898	956.8864	1050.5847	1051.4014	1087.586	1107.4616	1161.8756	1297.5153	1391.768	1412.5788	1473.471	1474.8535	1507.9866	1628.1576	1704.3324	1802.8935	2364.3539	3031.2166	3092.2365	3099.1524	3469.3801	3580.3155	3633.0054	3697.1182
CC#CC(=N)NC(N)=O	CC#CC(=N)NC(=O)N	
InChI=1S/C5H7N3O/c1-2-3-4(6)8-5(7)9/h1H3,(H4,6,7,8,9)	InChI=1S/C5H7N3O/c1-2-3-4(6)8-5(7)9/h1H3,(H4,6,7,8,9)
