18
gdb 11668	3.59176	1.6396	1.40422	2.2689	67.95	-0.2416	0.0742	0.3159	950.9356	0.152957	-384.869292	-384.861394	-384.86045	-384.901408	30.053	
C	-0.1862429715	 1.5980166988	-0.1462614076	-0.443245
C	 0.0257102222	 0.1054526571	 0.0450907343	-0.003241
C	 1.2362401523	-0.6724288518	-0.5498687836	 0.032704
C	 2.1879974592	-0.0508869272	 0.4945269135	-0.264863
C	 0.8818352097	-0.5010156907	 1.2009938043	 0.375382
C	 0.602561546	-0.6858563502	 2.6636984333	-0.189063
O	 1.5824680308	-1.5114494518	 3.2644070932	-0.415514
O	 0.9504168826	-1.7674135698	 0.4079718537	-0.357461
H	 0.7264016037	 2.1846997207	-0.016152718	 0.121481
H	-0.5704840695	 1.8005126616	-1.1518197599	 0.125267
H	-0.9281950162	 1.9745835634	 0.5660768601	 0.125162
H	-0.9025385543	-0.4572516966	-0.0888143228	 0.083644
H	 1.4333864557	-0.9579697665	-1.5835407453	 0.093222
H	 3.063945502	-0.6533246919	 0.7337402379	 0.111325
H	 2.4155378449	 1.0148354108	 0.4401488521	 0.09713
H	 0.6330290485	 0.2806149101	 3.1785542095	 0.115121
H	-0.4115788336	-1.1002753812	 2.783889681	 0.09764
H	 1.6781901474	-2.2790668949	 2.6876484143	 0.295311
93.4495	146.7442	180.9745	240.5591	294.4152	335.7509	409.6561	451.712	569.5404	590.3392	668.443	714.5095	791.6205	835.0273	876.558	915.0523	965.4086	1009.929	1019.7244	1066.0633	1082.0627	1096.4423	1115.2723	1138.5914	1167.2753	1205.9354	1222.228	1238.5963	1256.624	1313.4088	1371.7524	1388.2084	1415.528	1441.976	1492.0987	1493.9688	1495.2986	1508.4417	2977.3236	3037.1958	3071.6986	3074.3223	3080.7267	3095.3916	3115.7508	3120.2859	3157.8237	3790.6147
CC1C2CC1(CO)O2	C[C@H]1[C@H]2C[C@]1(CO)O2	
InChI=1S/C6H10O2/c1-4-5-2-6(4,3-7)8-5/h4-5,7H,2-3H2,1H3	InChI=1S/C6H10O2/c1-4-5-2-6(4,3-7)8-5/h4-5,7H,2-3H2,1H3/t4-,5+,6+/m0/s1
