21
gdb 83652	2.36463	1.69615	1.27409	1.4975	81.69	-0.2485	0.0663	0.3147	1082.2209	0.183321	-387.046983	-387.038734	-387.037789	-387.079787	32.96	
O	 0.6455258132	 0.817311461	-0.6727130899	-0.428888
C	 0.2153737131	-0.3480856769	-0.0136350935	 0.058699
C	 0.3096942295	-0.4578130048	 1.5354477904	-0.045414
C	-0.0950943443	 0.8134149812	 2.3317567858	-0.238959
C	-1.5397812837	 0.2577984431	 2.5114330326	-0.218238
C	-1.1936596769	-0.9360858591	 1.587610405	-0.12266
C	-1.2936447037	-0.6456506282	 0.081873646	 0.332626
C	-2.3727984723	 0.1172160556	-0.6384410427	-0.330768
C	-2.1324030424	-1.339983117	-0.9480157953	-0.336203
H	 0.1153248886	 1.5526604846	-0.3472315855	 0.280445
H	 0.761423967	-1.1667859846	-0.4943471476	 0.087192
H	 1.1420138638	-1.035985061	 1.9376079121	 0.063407
H	 0.455589278	 0.9479960771	 3.2649174011	 0.105967
H	-0.0138530837	 1.7522377338	 1.7737515217	 0.083484
H	-1.7399489109	-0.0520964423	 3.5405783181	 0.099087
H	-2.3619857484	 0.8995233984	 2.181917978	 0.093881
H	-1.4932105687	-1.9360301787	 1.9056525818	 0.063705
H	-3.27088155	 0.3858863328	-0.0909856526	 0.112763
H	-2.0594558882	 0.8488336134	-1.3775128272	 0.114388
H	-1.6676158452	-1.5921435793	-1.8965462137	 0.114938
H	-2.8678314149	-2.0606481194	-0.6039512648	 0.110547
55.4171	203.8479	210.1347	228.311	246.4914	304.9212	422.0938	445.3354	546.1137	587.7791	668.9184	760.013	769.0943	801.6663	814.9538	852.0104	880.6866	915.438	935.9734	960.1668	975.1861	1006.546	1038.186	1048.2271	1068.7438	1079.5366	1109.7162	1120.6803	1135.1437	1192.2186	1196.7854	1228.3201	1238.8983	1241.1153	1264.8831	1271.485	1289.0207	1297.4534	1319.0741	1376.5724	1431.4722	1459.1738	1478.5416	1495.3934	1498.9387	3044.8534	3050.9032	3052.8157	3086.3161	3094.9082	3101.504	3114.1136	3117.4449	3120.201	3195.3833	3210.1161	3809.1628
OC1C2CCC2C11CC1	O[C@H]1[C@H]2CC[C@H]2C21CC2	
InChI=1S/C8H12O/c9-7-5-1-2-6(5)8(7)3-4-8/h5-7,9H,1-4H2	InChI=1S/C8H12O/c9-7-5-1-2-6(5)8(7)3-4-8/h5-7,9H,1-4H2/t5-,6+,7-/m0/s1
