12
gdb 21671	7.68219	1.30267	1.11524	3.2172	68.3	-0.234	-0.0385	0.1955	982.305	0.083986	-377.483613	-377.476681	-377.475737	-377.514525	26.087	
N	-0.0358332773	 1.4019956331	 0.1479905646	-0.600906
C	 0.0272852393	 0.0246419047	 0.0403819214	 0.413023
N	-1.0691716492	-0.7063722244	 0.0006735814	-0.205412
O	-0.6412146242	-2.032414955	-0.0187987852	-0.22039
C	 0.7097897863	-2.0570748689	-0.0069146874	 0.326901
C	 1.1993723613	-0.7848075894	 0.0314021686	-0.429092
C	 1.3472398278	-3.3132352869	-0.0280618221	 0.240319
C	 1.8973402245	-4.3831609345	-0.0470703845	-0.374106
H	 0.6918104155	 1.8934720124	-0.3503880668	 0.256704
H	-0.9530137297	 1.7713251705	-0.0648271146	 0.262564
H	 2.2307109471	-0.4770157191	 0.0628451394	 0.125805
H	 2.3808644787	-5.3289593526	-0.0628252847	 0.204591
132.346	149.862	286.5001	324.1511	377.6615	458.5739	541.4922	548.402	606.963	632.1903	688.0032	691.6237	731.61	753.4606	814.3685	961.1845	1005.736	1036.3938	1139.2496	1168.6865	1274.9756	1491.4356	1528.931	1625.1027	1655.9497	2240.8268	3281.8488	3500.1987	3558.6384	3659.3608
NC1=NOC(=C1)C#C	Nc1noc(c1)C#C	
InChI=1S/C5H4N2O/c1-2-4-3-5(6)7-8-4/h1,3H,(H2,6,7)	InChI=1S/C5H4N2O/c1-2-4-3-5(6)7-8-4/h1,3H,(H2,6,7)
