18
gdb 126616	3.40223	1.04435	0.85457	2.7473	73.31	-0.2203	0.018	0.2383	1364.0287	0.149045	-435.316406	-435.307482	-435.306538	-435.351434	31.749	
C	 0.0184657845	 1.5631198484	 0.0073054452	-0.381802
C	 0.0282859163	 0.0337133402	-0.0386796285	-0.175307
C	-1.3886445427	-0.5504519523	-0.0025210713	-0.16158
N	-1.4062614007	-2.0025494842	-0.0259635073	-0.106712
C	-1.471251981	-2.8506132592	-1.1006801836	 0.042317
N	-1.436759351	-4.1019269556	-0.7602154818	-0.222202
N	-1.3362238382	-4.0597106701	 0.6116911364	-0.311857
C	-1.3107401691	-2.7861574279	 1.1345986994	 0.471213
O	-1.2307806887	-2.4053531075	 2.2851281822	-0.438524
H	 1.0363717006	 1.9623323524	-0.0082429565	 0.122799
H	-0.5178848728	 1.9864951066	-0.8494206992	 0.115548
H	-0.4683645096	 1.9283546733	 0.9179298584	 0.126455
H	 0.5388012123	-0.3150998657	-0.9447159769	 0.101244
H	 0.585488833	-0.3671716198	 0.8148841361	 0.130703
H	-1.8930410946	-0.2462925424	 0.9196661973	 0.144617
H	-1.9825321009	-0.186198467	-0.8477495902	 0.114251
H	-1.5520017277	-2.5066617844	-2.120391836	 0.14813
H	-1.2972131597	-4.9115889849	 1.1425891663	 0.280708
30.9766	85.8596	92.566	220.9664	231.3967	272.3959	289.2687	363.4244	445.1409	528.6223	659.3162	720.1821	750.9014	757.7069	800.4356	843.0197	878.323	902.5099	933.9835	1044.1019	1063.4378	1123.2935	1130.0796	1204.45	1241.6336	1254.7195	1316.1445	1334.9493	1371.0143	1374.427	1407.0631	1416.9247	1437.1192	1477.2808	1491.7408	1500.5649	1508.7384	1618.3902	1835.4138	3032.0011	3033.6252	3048.4773	3073.1465	3096.313	3109.6201	3112.2932	3261.348	3698.0626
CCCN1C=NNC1=O	CCCn1cn[nH]c1=O	
InChI=1S/C5H9N3O/c1-2-3-8-4-6-7-5(8)9/h4H,2-3H2,1H3,(H,7,9)	InChI=1S/C5H9N3O/c1-2-3-8-4-6-7-5(8)9/h4H,2-3H2,1H3,(H,7,9)
