19
gdb 104530	2.25475	1.36866	1.03035	2.0279	76.66	-0.249	0.0421	0.2911	1217.6936	0.156294	-422.953792	-422.944121	-422.943176	-422.988768	34.911	
C	-1.4454719299	-0.0435885877	-0.0830791479	-0.26043
O	-0.0356314485	-0.0189946811	 0.0236714644	-0.275787
C	 0.6640577782	-0.6779994249	-0.995598609	 0.365041
C	 0.4039859376	-0.110801557	-2.4058961652	-0.440053
C	 0.6812011647	 1.3152875207	-2.511596805	 0.317519
C	 0.9148463267	 2.4915953851	-2.5874160746	-0.445088
C	 2.1575443919	-0.8275243144	-0.6530398942	-0.120206
O	 2.1096122394	-2.2468694302	-0.9193251738	-0.275075
C	 0.6694408968	-2.2323341457	-0.9664965139	-0.128821
H	-1.8113846718	 0.5815196763	-0.9084064263	 0.121688
H	-1.829675208	-1.0661081343	-0.21435302	 0.107884
H	-1.8369783715	 0.3571962281	 0.8543757878	 0.134613
H	 1.0345602561	-0.6696163952	-3.1079440846	 0.146784
H	-0.6325077437	-0.3154957717	-2.7018360943	 0.13009
H	 1.120704997	 3.5309475476	-2.6568554641	 0.198465
H	 2.8760806817	-0.3056318834	-1.2928495763	 0.112903
H	 2.3625815969	-0.6075547245	 0.4012485506	 0.110748
H	 0.2194514723	-2.6407626371	-0.0518918344	 0.09972
H	 0.2801874142	-2.7657011406	-1.8415600793	 0.100005
58.6804	91.9902	114.9929	133.028	199.0042	254.4174	310.7706	344.441	374.838	388.4451	453.0076	534.8105	625.9791	639.9451	708.5568	821.7678	892.4344	894.1436	958.2074	983.1088	994.1875	1027.4701	1082.0995	1096.609	1150.6893	1164.64	1167.435	1180.6634	1215.8228	1269.1764	1290.3044	1302.3384	1338.0598	1383.2429	1464.6371	1482.4549	1495.5458	1499.8206	1508.2422	1526.2544	2240.3927	2988.2679	3007.1895	3028.3988	3031.6942	3046.7779	3060.9182	3063.7774	3088.341	3121.0839	3506.0789
COC1(CC#C)COC1	COC1(CC#C)COC1	
InChI=1S/C7H10O2/c1-3-4-7(8-2)5-9-6-7/h1H,4-6H2,2H3	InChI=1S/C7H10O2/c1-3-4-7(8-2)5-9-6-7/h1H,4-6H2,2H3
