18
gdb 22882	2.77985	1.30463	0.99767	1.1929	79.47	-0.2293	-0.035	0.1943	1202.9864	0.147014	-439.058356	-439.04937	-439.048426	-439.09207	33.694	
C	 0.2218473857	 1.5753582352	 0.0006751151	-0.376214
C	-0.0182826643	 0.0565410486	 0.0282187776	-0.085279
C	 0.6281223086	-0.6375281853	-1.1509592191	-0.065484
C	 1.7052947342	-1.3630483051	-0.8139204245	-0.161083
C	 1.8929066554	-1.3020091882	 0.63066802	 0.347263
N	 2.8579417669	-1.6506815425	 1.3893511583	-0.262474
O	 3.9224946867	-2.2174719075	 0.6724670844	-0.392414
C	 0.657521493	-0.6539571211	 1.2408192316	 0.056262
O	 0.9357304278	 0.2107266842	 2.317399741	-0.433064
H	 1.2916151477	 1.8010718674	 0.0031535167	 0.123991
H	-0.2209515625	 2.0158024168	-0.898381615	 0.106463
H	-0.2229483071	 2.0481372849	 0.8786728178	 0.135524
H	-1.1004476169	-0.1196913844	 0.0361088666	 0.083895
H	 0.2654527706	-0.5008027391	-2.1645606869	 0.108863
H	 2.3654302202	-1.8984337387	-1.4814518095	 0.124105
H	 4.5496189631	-2.4344934389	 1.3702846888	 0.307416
H	-0.0110857138	-1.4650164872	 1.5751047772	 0.089806
H	 1.7509220547	-0.1133325691	 2.72040018	 0.292424
51.6732	177.2592	203.79	227.3728	232.9639	258.2987	303.1962	338.1447	380.7531	436.0567	525.2321	567.6084	643.4941	729.7091	767.0115	809.7888	821.5279	878.8103	924.8802	988.1128	1001.2637	1040.8322	1081.8055	1100.1907	1130.9826	1152.4017	1238.3382	1253.9942	1309.867	1339.4803	1359.6067	1365.8049	1394.4817	1406.7492	1421.9757	1490.1298	1494.2803	1636.065	1739.6189	2954.0174	3034.169	3043.9491	3114.6638	3134.2976	3188.3186	3241.794	3776.5002	3820.4727
CC1C=CC(=NO)C1O	C[C@H]1C=CC(=NO)[C@H]1O	
InChI=1S/C6H9NO2/c1-4-2-3-5(7-9)6(4)8/h2-4,6,8-9H,1H3	InChI=1S/C6H9NO2/c1-4-2-3-5(7-9)6(4)8/h2-4,6,8-9H,1H3/t4-,6-/m0/s1
