18
gdb 43635	5.62315	0.85388	0.77135	1.3673	73.32	-0.2402	-0.0313	0.2089	1420.1199	0.146528	-439.040857	-439.032441	-439.031497	-439.075316	30.187	
O	-0.0043953386	-0.0253979933	-0.0225716629	-0.273736
C	-0.0150514759	 1.1606603138	 0.0959776271	 0.396642
C	-1.1020719453	 2.2370274604	 0.2362158533	-0.292341
N	-0.0271831412	 3.1961509829	 0.5983709005	-0.090323
C	 1.052812735	 2.260813583	 0.1918654582	-0.292337
C	-0.0544292432	 4.492425738	-0.0314250742	-0.009851
C	-1.0894067048	 5.490236598	 0.5328409429	-0.080524
O	-0.0559577406	 6.4278076486	 0.8936929868	-0.270237
C	 0.981464634	 5.512603775	 0.489463619	-0.080524
H	-1.5875656022	 2.4394025579	-0.7333762919	 0.119245
H	-1.8742060318	 2.0832992808	 0.9964215219	 0.137461
H	 1.8587504227	 2.1245050041	 0.9196141746	 0.137464
H	 1.4934401267	 2.4733873688	-0.7967809895	 0.119249
H	-0.0767699104	 4.4211439146	-1.1338896503	 0.061948
H	-1.799056763	 5.9171597709	-0.1850831795	 0.103189
H	-1.6324586308	 5.1138675255	 1.4087278477	 0.105742
H	 1.5687287758	 5.1484604197	 1.3416754271	 0.105737
H	 1.6510639537	 5.9544090614	-0.2573489608	 0.103194
50.1961	66.4896	86.3779	164.6776	286.1823	337.0651	398.1606	431.2047	513.0181	620.8455	724.5104	767.3443	828.2407	885.7617	910.6046	960.2978	1003.476	1024.0882	1043.2725	1061.6114	1063.5147	1093.3757	1116.4425	1124.7932	1161.995	1166.9814	1173.2741	1247.7554	1252.31	1278.4026	1310.8143	1312.57	1355.3114	1406.3784	1455.9467	1483.2865	1500.8597	1526.6161	1924.7595	2928.9319	2969.0014	2977.8006	3011.8157	3022.702	3065.3642	3068.345	3077.6272	3078.0524
O=C1CN(C1)C1COC1	O=C1CN(C1)C1COC1	
InChI=1S/C6H9NO2/c8-6-1-7(2-6)5-3-9-4-5/h5H,1-4H2	InChI=1S/C6H9NO2/c8-6-1-7(2-6)5-3-9-4-5/h5H,1-4H2
