17
gdb 50570	3.0869	1.56235	1.41887	3.5036	67.53	-0.2386	-0.0232	0.2154	960.7525	0.136494	-458.942066	-458.934768	-458.933824	-458.974012	28.012	
O	-0.2792351536	 0.0697509195	 0.0001640329	-0.234013
C	-0.0833751975	 1.2518003387	 0.06435191	 0.16188
C	 1.2891133102	 1.9090527235	-0.0454758002	 0.014408
O	 2.3402503211	 0.9664619888	-0.1041494497	-0.266868
C	 2.6739674938	 0.5270846372	-1.4247998391	-0.079278
C	 2.503359554	 1.6737493672	-2.4127782725	 0.06987
C	 2.7947358538	 3.0253699968	-1.7240944492	-0.246902
C	 1.3331966952	 2.8391934839	-1.2702682285	 0.047308
O	 1.079084781	 2.0080360347	-2.4365309529	-0.29545
H	-0.915706149	 1.9786439934	 0.2231118182	 0.071114
H	 1.4447325885	 2.499939709	 0.8705385932	 0.106197
H	 3.7142771397	 0.1883528699	-1.3761972028	 0.11067
H	 2.0335062661	-0.3110524505	-1.7260001189	 0.128242
H	 2.9019791561	 1.4572039027	-3.4066292089	 0.088191
H	 3.576907602	 3.0664193223	-0.9653721269	 0.118962
H	 2.8928214146	 3.8392068195	-2.442671108	 0.117429
H	 0.6546688938	 3.6928351635	-1.1972467366	 0.088237
97.3621	127.0051	210.6808	306.0522	353.656	388.6353	439.6738	585.3772	643.8242	756.8467	774.5702	849.9844	863.4835	889.653	901.6211	915.7779	962.1703	977.4731	1021.2449	1046.0449	1080.4474	1090.824	1106.8813	1192.0631	1207.0021	1244.4947	1251.8485	1268.6214	1319.1659	1329.1642	1342.4596	1354.7636	1393.0664	1421.6159	1479.8043	1490.8476	1849.1735	2846.3387	3000.6156	3030.9511	3080.9896	3083.8442	3087.4606	3095.4992	3154.7182
O=CC1OCC2CC1O2	O=C[C@H]1OC[C@@H]2C[C@H]1O2	
InChI=1S/C6H8O3/c7-2-6-5-1-4(9-5)3-8-6/h2,4-6H,1,3H2	InChI=1S/C6H8O3/c7-2-6-5-1-4(9-5)3-8-6/h2,4-6H,1,3H2/t4-,5+,6+/m0/s1
