16
gdb 14623	4.69805	1.07946	0.91297	4.9344	64.16	-0.2397	0.0021	0.2418	1205.0165	0.130902	-417.084928	-417.076533	-417.075589	-417.119114	28.887	
N	-0.8538680071	 0.1224180057	-1.0263892168	-0.474302
C	-0.3596491976	-0.0279651467	 0.1327915758	 0.14586
O	-0.4292215275	-1.1473140569	 0.8520845372	-0.201565
C	-0.9623875031	-2.3494376736	 0.2492007989	-0.087824
C	-2.4877718181	-2.4215659142	 0.2334071111	-0.150058
N	-3.0754474217	-1.7937062531	-0.9341748432	-0.27809
C	-4.1472403111	-2.3262343721	-1.5680375389	 0.150709
O	-4.7533984997	-3.3186737097	-1.2129833494	-0.335925
H	-0.6603030327	 1.0553279389	-1.3808571206	 0.239261
H	 0.1881080459	 0.7286310183	 0.701764014	 0.122967
H	-0.5557775672	-2.4568463072	-0.7607235188	 0.136044
H	-0.5678973625	-3.1419860993	 0.8879439596	 0.129075
H	-2.7981769206	-3.4708481653	 0.2223970131	 0.14611
H	-2.8692254417	-1.9862921904	 1.1675943662	 0.119561
H	-2.5800072421	-0.9973071214	-1.3201462762	 0.2679
H	-4.420423013	-1.744743543	-2.4709831622	 0.070278
35.37	80.3581	134.0768	212.6943	246.2378	265.0351	313.612	372.2781	490.5222	670.2389	716.3947	753.0092	828.4704	847.9982	901.7133	1015.2847	1033.7215	1045.4948	1080.1721	1092.5805	1123.4302	1242.8441	1258.1521	1314.8973	1327.8881	1387.047	1408.5433	1419.8237	1426.8559	1478.013	1497.8358	1544.4031	1712.9402	1796.6012	2935.25	3014.2483	3065.6205	3091.8082	3097.8541	3128.3302	3521.2657	3530.5364
N=COCCNC=O	[NH][CH]OCCNC=O	
InChI=1S/C4H8N2O2/c5-3-8-2-1-6-4-7/h3-5H,1-2H2,(H,6,7)	InChI=1S/C4H8N2O2/c5-3-8-2-1-6-4-7/h3-5H,1-2H2,(H,6,7)
