16
gdb 7258	4.45554	1.18707	1.05373	5.2688	63.77	-0.2443	-0.0352	0.2091	1125.7145	0.129509	-417.100694	-417.091692	-417.090747	-417.134929	31.152	
C	 0.1270526507	 1.5885464073	-0.0419170934	-0.398399
C	-0.0173517332	 0.0509829431	 0.001967777	-0.059366
N	 0.35833011	-0.6294998218	-1.2285282834	-0.523809
C	 0.87586917	-0.4881922769	 1.1285542108	 0.446309
O	 1.9931204265	-0.8944739467	 0.9338811758	-0.313863
N	 0.2834815169	-0.4160259397	 2.3948529018	-0.346996
C	 0.8582431849	-0.7131319043	 3.6302914072	 0.165626
O	 1.9867559065	-1.0640684997	 3.8274199821	-0.246803
H	 1.1694694053	 1.8637619175	-0.2292964276	 0.139588
H	-0.4907233898	 1.9948744563	-0.8490699982	 0.12423
H	-0.1925241979	 2.0612878457	 0.893281523	 0.113081
H	-1.064675043	-0.1888827536	 0.2416523151	 0.080996
H	 0.1866208186	-0.0323283761	-2.0300768168	 0.225448
H	 1.3569938814	-0.8195008818	-1.1907699687	 0.24769
H	-0.6819290613	-0.1211465822	 2.424079004	 0.258839
H	 0.1101271445	-0.574184087	 4.4378000015	 0.08743
54.5184	64.1851	168.9022	199.5887	232.8063	255.6114	260.5954	321.7973	351.7646	450.8289	587.1284	620.3194	723.9678	758.3654	866.7582	915.0058	943.3707	1027.2463	1032.2554	1073.5206	1084.5269	1165.8441	1198.9739	1236.3346	1342.0774	1399.1258	1413.5311	1446.0642	1493.7032	1495.0387	1509.3674	1642.217	1810.6963	1874.3709	2921.9201	2981.192	3030.6086	3100.5547	3116.5531	3489.9357	3577.9113	3608.6636
CC(N)C(=O)NC=O	C[C@@H](N)C(=O)NC=O	
InChI=1S/C4H8N2O2/c1-3(5)4(8)6-2-7/h2-3H,5H2,1H3,(H,6,7,8)	InChI=1S/C4H8N2O2/c1-3(5)4(8)6-2-7/h2-3H,5H2,1H3,(H,6,7,8)/t3-/m1/s1
