14
gdb 20375	6.40044	1.47547	1.32636	6.0818	62.8	-0.2803	-0.0144	0.2659	901.3742	0.108988	-374.863311	-374.85685	-374.855906	-374.895059	23.439	
C	-0.183219323	 1.3692460338	-0.2799006159	-0.282969
C	 1.2330439185	 1.0752789133	 0.1576371754	-0.283024
C	 0.2179674912	-0.032258375	 0.0896346626	 0.085355
N	-0.2797414325	-0.6431260796	 1.2904912384	 0.023932
C	-0.5538692223	-0.151605641	 2.5124390289	 0.054218
N	-0.995291424	-1.1262350683	 3.28018484	-0.223421
N	-0.9861705165	-2.2358224847	 2.500322524	-0.091878
N	-0.5611950679	-1.9656691954	 1.310230496	-0.13085
H	-0.8254401307	 1.9056359084	 0.4097797639	 0.1341
H	-0.3794249627	 1.5746316023	-1.3257971021	 0.139416
H	 2.0239880145	 1.0757045643	-0.5832993269	 0.139404
H	 1.5403457548	 1.4146664354	 1.140594138	 0.134077
H	 0.3024662922	-0.7806349292	-0.6867109835	 0.140047
H	-0.4283397415	 0.8781005857	 2.8024178711	 0.161592
31.9232	163.2162	197.8776	407.6	426.0242	628.6136	682.1615	734.8941	776.4378	821.1676	855.9957	911.4668	953.8807	991.8682	1037.9309	1065.2739	1080.5771	1099.9239	1119.8303	1128.2175	1157.4075	1195.7318	1221.7161	1229.4289	1308.9322	1413.8827	1457.7856	1468.2425	1503.2371	1517.1691	3142.3156	3145.014	3213.5693	3223.9868	3238.6396	3288.4685
C1CC1N1C=NN=N1	C1CC1n1cnnn1	
InChI=1S/C4H6N4/c1-2-4(1)8-3-5-6-7-8/h3-4H,1-2H2	InChI=1S/C4H6N4/c1-2-4(1)8-3-5-6-7-8/h3-4H,1-2H2
