21
gdb 94539	2.33568	1.51822	1.18802	3.591	74.39	-0.2359	0.0456	0.2816	1141.846	0.180253	-461.343827	-461.333989	-461.333045	-461.377761	37.499	
C	 0.0546202408	 1.5500235645	-0.1782701805	-0.436168
C	-0.0118992959	 0.0174805037	-0.0658198247	 0.336418
C	 0.5848211425	-0.4667102488	 1.2574503122	-0.402831
O	-1.3673468455	-0.4286036645	-0.0612655807	-0.477105
C	 0.7684806127	-0.624213086	-1.2308164597	 0.09895
O	 0.7972585453	-2.0708699614	-1.1599951369	-0.286776
C	-0.0655484673	-2.2031322476	-2.3045226775	-0.099442
C	 0.0821810825	-0.7008483571	-2.6196638212	 0.029811
O	-1.0847513196	 0.088224519	-2.7648473907	-0.427631
H	 1.0861297017	 1.9132414474	-0.1180729743	 0.1068
H	-0.3751467053	 1.8921165264	-1.123975834	 0.124693
H	-0.5145764088	 1.9967413471	 0.6418304376	 0.121262
H	 0.0025287885	-0.0615473117	 2.0894477323	 0.116601
H	 0.5507362182	-1.5569811112	 1.3003970262	 0.139411
H	 1.6238024425	-0.1408063814	 1.3657608774	 0.103191
H	-1.7604512911	-0.1306998548	-0.891764825	 0.283116
H	 1.7884249808	-0.2190989835	-1.2483942903	 0.075534
H	 0.3292154233	-2.9124119131	-3.0411816384	 0.097927
H	-1.0872477975	-2.4828030128	-2.0197318887	 0.108815
H	 0.7802976666	-0.5030796835	-3.4409043088	 0.091042
H	-1.4559647343	-0.0607924908	-3.6399820042	 0.296383
108.2189	119.3534	195.0294	204.8009	234.9183	247.2841	264.4518	294.3042	334.4112	386.2506	414.1066	439.9335	533.7947	561.1828	597.7945	717.8863	800.5437	855.8042	906.8684	934.3716	962.6047	974.5398	1010.1263	1024.0979	1036.5338	1081.7078	1142.4437	1156.2708	1172.8322	1187.0121	1211.0949	1259.1682	1280.6373	1314.4969	1346.2673	1357.6235	1387.5857	1410.8286	1414.0845	1442.0086	1479.4445	1489.5897	1500.6871	1509.1581	1513.5718	3016.0872	3019.7919	3036.1906	3039.7905	3047.6397	3073.0988	3107.1143	3117.6609	3122.2065	3140.0387	3763.1274	3823.3654
CC(C)(O)C1OCC1O	CC(C)(O)[C@H]1OC[C@H]1O	
InChI=1S/C6H12O3/c1-6(2,8)5-4(7)3-9-5/h4-5,7-8H,3H2,1-2H3	InChI=1S/C6H12O3/c1-6(2,8)5-4(7)3-9-5/h4-5,7-8H,3H2,1-2H3/t4-,5+/m1/s1
