23
gdb 41627	2.59264	1.70957	1.41223	0.2181	86.91	-0.2726	0.0698	0.3425	1052.1163	0.20977	-351.145163	-351.137711	-351.136767	-351.177168	31.086	
C	 0.4117121448	 1.4876020365	-0.6308104812	-0.237047
C	 1.5396061205	 1.5786672027	 0.4325954625	-0.226389
C	 1.4071965452	 0.0488343901	 0.6760076318	-0.027627
C	 0.0286571153	 0.0856187798	-0.0640622931	 0.02389
C	-0.0677072675	-1.1346885003	-0.9903582859	-0.258759
C	 1.3723506445	-1.648463869	-1.1888101684	 0.012378
C	 2.2200375369	-1.0462904401	-2.3480948377	-0.226508
C	 3.1786757349	-0.3916740495	-1.3153507824	-0.229317
C	 2.2962988418	-0.9223610609	-0.1416664001	-0.022845
H	-0.3625766725	 2.2585706949	-0.6017456879	 0.092646
H	 0.7987173883	 1.4371125648	-1.652331868	 0.101408
H	 2.5109951644	 1.9670304703	 0.1164183424	 0.094998
H	 1.2213450418	 2.1449277647	 1.3124161176	 0.094649
H	 1.392382935	-0.2528564087	 1.7265379979	 0.05758
H	-0.8290938735	 0.1597347356	 0.6096934738	 0.061652
H	-0.675048441	-1.9103042016	-0.509320109	 0.091661
H	-0.5561884924	-0.8999681248	-1.9437105992	 0.093815
H	 1.4117334019	-2.740068206	-1.1616633221	 0.060739
H	 2.6868361039	-1.7847690744	-3.0049088545	 0.092871
H	 1.6752550255	-0.3388965187	-2.9800058268	 0.095248
H	 4.1852909472	-0.8171695141	-1.3182893454	 0.095057
H	 3.2813436406	 0.6930059677	-1.3896591471	 0.098407
H	 2.8469151644	-1.583655709	 0.5309257329	 0.061494
67.037	134.5524	280.7041	305.2254	355.514	435.3235	576.8495	632.7058	683.6601	712.9046	736.6712	762.594	781.2467	841.0049	859.8226	877.6198	901.2446	942.1069	950.3601	966.6302	970.9851	1010.2208	1019.7516	1043.9574	1092.0641	1110.4796	1118.8609	1130.7776	1184.6681	1187.5958	1204.5717	1228.6613	1240.5064	1256.3648	1261.2768	1263.2811	1271.0793	1272.5729	1278.7041	1309.4926	1332.6857	1340.6757	1353.8458	1358.3177	1474.7178	1482.5695	1486.5709	1492.6127	1507.4406	3023.8022	3047.8924	3049.5599	3053.8477	3056.7031	3059.4738	3062.0959	3067.1357	3069.2032	3082.958	3092.3114	3096.5315	3110.4987	3117.0997
C1CC2C1CC1CCC21	C1C[C@H]2[C@@H]1C[C@H]1CC[C@@H]21	
InChI=1S/C9H14/c1-3-8-6(1)5-7-2-4-9(7)8/h6-9H,1-5H2	InChI=1S/C9H14/c1-3-8-6(1)5-7-2-4-9(7)8/h6-9H,1-5H2/t6-,7+,8-,9+
