22
gdb 103930	3.23829	1.10579	1.03875	0.8619	82.78	-0.2218	0.07	0.2918	1301.6759	0.192447	-404.313838	-404.304093	-404.303149	-404.347766	37.611	
C	 0.1105592446	 1.52885509	-0.0471671511	-0.405138
C	 0.0133624435	 0.0070563872	 0.1084607713	-0.222175
C	-1.4120551975	-0.5296349362	 0.0242318855	 0.441862
O	-2.2330033998	-0.0515535348	 1.0795340939	-0.497541
C	-2.1511809811	-0.4632278117	-1.3736412353	-0.33471
C	-2.3155952018	-1.9911057115	-1.3148843879	 0.353825
C	-3.4525660271	-2.798405871	-1.8572876041	-0.510028
N	-0.9267504721	-2.5196442154	-1.266575514	-0.378054
C	-1.5875793681	-2.0536497807	-0.0194665069	-0.153595
H	 1.1523607571	 1.8601712267	-0.0079373111	 0.119007
H	-0.3064839536	 1.8635143302	-1.0036844761	 0.119355
H	-0.4195275878	 2.0567454282	 0.7548294917	 0.104304
H	 0.6034011284	-0.4888436722	-0.6678335253	 0.120975
H	 0.4329071985	-0.2916117322	 1.0773469581	 0.094478
H	-2.2797771533	 0.9074238644	 1.0065212064	 0.276301
H	-3.0988642522	 0.0711564572	-1.2747616831	 0.09748
H	-1.5858873316	-0.085718862	-2.2300037103	 0.093312
H	-3.4295359154	-2.8329426507	-2.9531949403	 0.125817
H	-3.4130918603	-3.8297577023	-1.4887956408	 0.11581
H	-4.415252885	-2.371536719	-1.55671684	 0.127902
H	-0.9934724797	-3.5378755443	-1.2676398916	 0.222775
H	-1.7140223158	-2.70601809	 0.836859041	 0.08804
96.3782	125.839	159.8409	209.2342	228.3098	273.3129	290.786	318.2839	337.0591	389.345	443.7879	458.3251	534.7037	605.7143	678.0304	777.4484	786.984	858.4374	882.4112	920.7743	943.0194	975.1211	988.6636	1005.0186	1018.3149	1033.3238	1091.8108	1097.3371	1113.1624	1152.3572	1183.5417	1220.736	1247.7842	1263.8982	1309.3465	1324.5163	1352.4211	1403.0649	1407.2508	1413.6326	1439.2948	1470.3082	1482.5788	1484.3596	1498.1956	1500.7868	1509.7415	3021.0892	3024.2571	3031.9918	3055.3539	3077.0602	3082.7485	3095.2955	3100.9338	3104.0803	3120.6484	3184.626	3461.3954	3810.4785
CCC1(O)CC2(C)NC12	CC[C@@]1(O)C[C@@]2(C)N[C@@H]12	
InChI=1S/C7H13NO/c1-3-7(9)4-6(2)5(7)8-6/h5,8-9H,3-4H2,1-2H3	InChI=1S/C7H13NO/c1-3-7(9)4-6(2)5(7)8-6/h5,8-9H,3-4H2,1-2H3/t5-,6-,7-/m1/s1
