17
gdb 37366	2.96264	1.90504	1.66854	0.5861	64.95	-0.2457	0.0717	0.3174	856.1768	0.13944	-458.938533	-458.932371	-458.931427	-458.968733	25.979	
C	-0.0015592856	 1.5364269709	-0.0112696062	-0.239531
C	 1.5112684945	 1.8152196526	-0.0049840455	 0.069865
O	 2.0220071289	 1.4411796212	 1.2829934717	-0.276809
C	 1.8174741739	 0.0756815865	 1.5949866433	 0.026073
O	 0.5260490771	-0.4160633875	 1.2881204895	-0.276809
C	 0.0483292588	-0.0010372267	 0.000026993	 0.069865
C	 1.1127148104	-0.3088468097	-1.0580992172	 0.022067
O	 1.1376569762	 0.6129143771	-2.1530620471	-0.254909
C	 2.0358949138	 0.8372935688	-1.0612617536	 0.022068
H	-0.4829089633	 1.926611804	 0.8854785921	 0.113138
H	-0.4881656706	 1.9259072101	-0.9052737106	 0.121612
H	 1.7977912075	 2.8570952617	-0.1552827503	 0.086661
H	 2.5812108449	-0.5408579559	 1.0984519468	 0.091359
H	 1.9303340569	-0.0122341034	 2.6779889531	 0.122638
H	-0.9089985263	-0.5034170575	-0.1460144611	 0.086661
H	 1.419818794	-1.3272483055	-1.2750604428	 0.108026
H	 3.0957533288	 0.7534446932	-1.2807996251	 0.108025
249.0598	290.2708	363.1634	364.8446	466.0305	475.1154	501.0148	637.5829	773.4576	816.6207	848.336	860.0175	878.5061	893.6159	928.5062	932.4516	997.9217	1021.4766	1025.7775	1044.6516	1046.8735	1116.0108	1133.932	1161.7743	1186.5845	1238.9581	1242.0857	1285.5209	1291.8568	1314.8386	1337.8429	1358.5152	1365.7191	1418.6226	1445.3381	1470.2368	1529.8103	2988.3735	3094.8154	3102.0915	3104.8846	3110.462	3157.3482	3162.0073	3174.1703
C1C2OCOC1C1OC21	C1[C@H]2OCO[C@@H]1[C@H]1O[C@@H]21	
InChI=1S/C6H8O3/c1-3-5-6(9-5)4(1)8-2-7-3/h3-6H,1-2H2	InChI=1S/C6H8O3/c1-3-5-6(9-5)4(1)8-2-7-3/h3-6H,1-2H2/t3-,4+,5+,6-
