14
gdb 130985	4.09936	0.98383	0.8228	4.108	64.22	-0.2488	-0.0544	0.1944	1290.5808	0.100087	-469.955702	-469.947613	-469.946669	-469.990063	28.013	
O	 0.8362307322	 1.0706496864	 1.2770559334	-0.225899
C	 0.5058937774	 1.6544038879	 0.2803225391	 0.168993
C	 1.184941803	 1.474955205	-1.0766065876	-0.266433
N	 1.301871946	 2.7366830194	-1.7819197305	-0.389185
C	 2.3125180974	 3.6120111764	-1.4630013775	 0.397203
N	 2.7137341239	 4.5614791439	-2.2738292967	-0.195737
O	 3.6944212214	 5.2378942849	-1.5808430579	-0.147752
N	 3.9001379594	 4.6983500375	-0.3539026537	-0.058406
C	 3.0684222713	 3.7001421712	-0.2512689225	-0.095588
H	-0.3331007226	 2.385392247	 0.2651154728	 0.098189
H	 2.1418239792	 0.9569807983	-0.9297040311	 0.140003
H	 0.5380709978	 0.8162854309	-1.6681224544	 0.146148
H	 1.0522919761	 2.7401587224	-2.7585569929	 0.266051
H	 3.0265009576	 3.0953074389	 0.6408739995	 0.162414
42.7533	63.162	98.7899	197.3041	293.4909	358.5004	413.7506	480.9682	610.6137	624.1756	673.0302	727.9582	782.039	876.9892	919.6546	932.3349	1022.3291	1041.3999	1052.4108	1091.9871	1143.6323	1231.8526	1264.0343	1333.0023	1399.8126	1413.3574	1453.8114	1493.5222	1512.0932	1649.6475	1840.9087	2895.4026	3020.6551	3078.4694	3271.3398	3628.0666
O=CCNC1=NON=C1	O=CCNc1nonc1	
InChI=1S/C4H5N3O2/c8-2-1-5-4-3-6-9-7-4/h2-3H,1H2,(H,5,7)	InChI=1S/C4H5N3O2/c8-2-1-5-4-3-6-9-7-4/h2-3H,1H2,(H,5,7)
