18
gdb 13854	4.10016	1.42601	1.20779	1.9492	67.72	-0.2469	-0.0157	0.2312	1031.2574	0.153797	-384.965944	-384.95763	-384.956685	-385.000404	29.208	
C	-0.2299854888	 1.4379360351	 0.0807362512	-0.479882
C	-0.0697938143	-0.0713912342	 0.0770193093	 0.365154
O	-0.0906905951	-0.7168779003	 1.0999999148	-0.296935
C	 0.0781778626	-0.7246078413	-1.2942707606	-0.090537
C	 0.6318884768	-2.1684432268	-1.2650499438	-0.256017
C	-0.4440459761	-2.9931877482	-2.0042655458	-0.07836
O	-1.1875404445	-2.0592433366	-2.7790882533	-0.236238
C	-1.31394276	-0.9063270071	-1.9774793171	-0.097803
H	 0.6858070489	 1.9091341233	-0.2952188499	 0.142991
H	-1.0394123578	 1.7441965467	-0.5919359848	 0.140433
H	-0.4338746092	 1.7912763917	 1.0919808567	 0.143498
H	 0.6911915778	-0.0794083798	-1.9305790811	 0.085055
H	 1.5939884432	-2.2205654139	-1.779154247	 0.106707
H	 0.7674654192	-2.5041908769	-0.2356193906	 0.132739
H	-0.0385291474	-3.743530738	-2.6868493609	 0.109908
H	-1.105356062	-3.4989081165	-1.2835961949	 0.098354
H	-2.0948210301	-1.0454330937	-1.2103294968	 0.098819
H	-1.5996948832	-0.0707505436	-2.6208992252	 0.112112
26.6538	50.8662	125.1291	193.7423	250.6392	289.9594	357.9976	562.0188	588.5923	611.3203	678.2526	786.6844	865.7379	926.221	935.798	957.2498	967.1732	982.7959	1040.9076	1084.0153	1108.6754	1130.033	1184.0473	1221.9514	1243.2942	1266.0571	1299.0018	1315.253	1356.8676	1361.1546	1382.8911	1403.5487	1461.6299	1475.8704	1489.7115	1506.4415	1523.0138	1809.7563	2959.2128	2985.6169	3033.393	3057.4324	3075.9781	3092.8149	3097.0627	3101.2683	3132.294	3153.0864
CC(=O)C1CCOC1	CC(=O)[C@H]1CCOC1	
InChI=1S/C6H10O2/c1-5(7)6-2-3-8-4-6/h6H,2-4H2,1H3	InChI=1S/C6H10O2/c1-5(7)6-2-3-8-4-6/h6H,2-4H2,1H3/t6-/m0/s1
