21
gdb 92362	2.40555	1.81275	1.35444	1.0328	76.64	-0.2414	0.0633	0.3047	1031.0113	0.184087	-424.240197	-424.23211	-424.231166	-424.272138	33.023	
C	-0.0883351699	 1.5625822305	 0.042260297	-0.419934
C	 0.0338638406	 0.0382389395	 0.0098461429	 0.023051
C	 0.8760892252	-0.5065536726	-1.1918170447	-0.236108
C	 1.9788252858	-1.3235305151	-0.4912854893	 0.105871
C	 2.2796488759	-0.4815727008	 0.7518605383	-0.30077
C	 0.8040424152	-0.5550427311	 1.2215512234	 0.3747
O	 0.4246186081	 0.0625481475	 2.4223632352	-0.504983
C	 0.6095975243	-2.0873474411	 1.1838041135	-0.117699
O	 1.3822569566	-2.5164836419	 0.0569526582	-0.279431
H	 0.8922913532	 2.0500420565	 0.0636463645	 0.111179
H	-0.6134969083	 1.9186308643	-0.8504260944	 0.109363
H	-0.6432388921	 1.8917946368	 0.9241169605	 0.131528
H	-0.9767058556	-0.3839590312	-0.0056529187	 0.073894
H	 0.2991580103	-1.1362411968	-1.8726781146	 0.106117
H	 1.3073159579	 0.3152634182	-1.7743144916	 0.094791
H	 2.8136512762	-1.627854455	-1.1228524683	 0.074624
H	 2.9796773882	-0.9677309	 1.437723648	 0.092555
H	 2.6174173	 0.5338272577	 0.5354031911	 0.104297
H	 0.9247909862	-0.3375241528	 3.1417546924	 0.278968
H	 0.9917994432	-2.5591569632	 2.1028239028	 0.077981
H	-0.4417506509	-2.3749723695	 1.0620543137	 0.100007
132.6747	227.028	248.4892	264.3599	277.3723	356.2392	383.9162	415.3642	448.7551	503.9399	597.3384	620.9411	744.0503	772.2648	844.6859	855.0838	921.1348	922.3257	935.4898	962.2913	976.4717	1026.8518	1042.8577	1073.3734	1089.3931	1123.5267	1150.4145	1160.9997	1187.7175	1205.8883	1219.8535	1260.268	1268.4798	1307.7971	1314.4499	1339.5065	1365.6077	1377.8044	1397.851	1412.1742	1477.6596	1490.7913	1497.5387	1501.7367	1526.5125	2974.5662	3034.3952	3037.9646	3045.2079	3046.0713	3062.967	3096.8644	3107.7931	3117.4755	3121.5222	3125.107	3805.5401
CC1CC2CC1(O)CO2	C[C@H]1C[C@H]2C[C@]1(O)CO2	
InChI=1S/C7H12O2/c1-5-2-6-3-7(5,8)4-9-6/h5-6,8H,2-4H2,1H3	InChI=1S/C7H12O2/c1-5-2-6-3-7(5,8)4-9-6/h5-6,8H,2-4H2,1H3/t5-,6-,7-/m0/s1
