15
gdb 133646	3.62808	0.70154	0.67208	1.9963	55.54	-0.253	-0.0358	0.2172	1584.4565	0.10731	-585.44628	-585.437081	-585.436137	-585.482309	31.396	
F	-0.8128950824	 0.2611836032	-0.2397118111	-0.092495
C	-0.0650877141	 1.3252555066	 0.1115590133	 0.284305
F	 1.2062116716	 0.9226662812	 0.1636805206	-0.066925
F	-0.1698502101	 2.2353000009	-0.8664520883	-0.074586
C	-0.5454101373	 1.9059376931	 1.4307331407	-0.277261
N	-0.5441254236	 0.88172	 2.4589217632	-0.308631
C	-0.9017686099	 1.3707374695	 3.7800861082	-0.245024
C	 0.2792002926	 2.0694565137	 4.4434085112	 0.163546
O	 0.177625398	 2.9602302563	 5.2438838668	-0.229447
H	 0.1463014617	 2.7094784244	 1.704794174	 0.144478
H	-1.5300259096	 2.3682730636	 1.2460703464	 0.117995
H	-1.1482677171	 0.1189740497	 2.1787611914	 0.238614
H	-1.7730784833	 2.045351677	 3.8124749569	 0.115267
H	-1.1374492321	 0.5047970487	 4.41319335	 0.137392
H	 1.2654518954	 1.6595211821	 4.1272657466	 0.092771
40.3099	53.412	88.2626	153.2902	163.5358	288.3058	350.0289	376.2766	382.8572	534.9672	548.1134	553.7109	676.0649	740.2607	758.8138	857.8285	966.7579	1011.9889	1057.0938	1106.077	1174.3816	1179.12	1202.5789	1266.3397	1275.4232	1303.4979	1349.1905	1402.5608	1421.0767	1459.8688	1495.5138	1509.6719	1842.1451	2884.7329	2968.5528	2975.0796	3048.7556	3080.0594	3557.1
FC(F)(F)CNCC=O	FC(F)(F)CNCC=O	
InChI=1S/C4H6F3NO/c5-4(6,7)3-8-1-2-9/h2,8H,1,3H2	InChI=1S/C4H6F3NO/c5-4(6,7)3-8-1-2-9/h2,8H,1,3H2
