19
gdb 40892	3.73506	1.27851	1.26485	1.5536	80.33	-0.2097	0.0192	0.2289	1083.2433	0.160668	-385.864126	-385.856708	-385.855764	-385.896082	29.464	
C	 0.0275385385	 1.3168647744	-0.3001483552	-0.077609
C	 1.4640991198	 1.5468522581	 0.2185248305	-0.356705
C	 1.3019947247	 0.1473519833	 0.7987193064	 0.475271
O	-0.0067672422	-0.0206553559	 0.2522277011	-0.316228
C	 2.2250529073	-1.0210978547	 0.8853456916	-0.147596
C	 3.7320790816	-0.7601450855	 0.9075729815	-0.273243
C	 3.9271862908	 0.0799218299	 2.1543022146	-0.07943
C	 2.7924002134	 0.2429266026	 2.8409992941	-0.072738
C	 1.6323824168	-0.399681512	 2.1645127633	-0.18285
H	-0.743729283	 1.956775746	 0.1437741673	 0.105292
H	-0.0946886349	 1.3061792191	-1.3885993436	 0.106175
H	 2.22490702	 1.6414816465	-0.5595933024	 0.112005
H	 1.5905859911	 2.3491892344	 0.9464495829	 0.1159
H	 1.8422976543	-1.9614889751	 0.5053800595	 0.09565
H	 4.3079749102	-1.6944238484	 0.9544819719	 0.108212
H	 4.0745858073	-0.2372217652	 0.0037550602	 0.106834
H	 4.8893540155	 0.4984941973	 2.4270760203	 0.092715
H	 2.6955566386	 0.8002841653	 3.7660088928	 0.094269
H	 0.8341960802	-0.8735858299	 2.7259475732	 0.094076
93.1226	153.0135	174.4721	282.8003	362.6136	429.743	490.0832	568.3089	699.9682	751.1855	783.0872	794.2082	833.209	871.717	887.8743	928.2268	942.8695	959.1495	963.9612	985.9317	1002.5914	1021.6359	1043.7778	1060.1114	1116.4336	1124.126	1137.1976	1164.9432	1181.9593	1210.7884	1236.007	1275.2402	1276.3186	1308.4568	1357.4777	1369.7979	1434.215	1482.3231	1489.9952	1532.0098	1663.7978	3007.344	3026.8118	3029.7072	3069.2126	3075.3217	3130.2122	3167.0982	3179.6647	3185.1953	3209.7554
C1CC2(O1)C1CC=CC21	C1C[C@@]2(O1)[C@H]1CC=C[C@@H]21	
InChI=1S/C8H10O/c1-2-6-7(3-1)8(6)4-5-9-8/h1-2,6-7H,3-5H2	InChI=1S/C8H10O/c1-2-6-7(3-1)8(6)4-5-9-8/h1-2,6-7H,3-5H2/t6-,7+,8+/m1/s1
