19
gdb 53404	2.23944	1.08341	0.78958	2.7924	85.45	-0.2391	-0.0182	0.2209	1485.308	0.157074	-385.866052	-385.856069	-385.855124	-385.903482	34.337	
C	 0.2606304655	 1.560071595	-0.4124077616	-0.499357
C	 0.1805121595	 0.1267501097	-0.1710474656	 0.098012
C	 0.1167202392	-1.060995944	 0.0228211254	 0.04486
C	 0.0134296611	-2.486615344	 0.2634361393	-0.172697
C	-0.1883512061	-3.0072766072	 1.7223512757	-0.224183
C	-1.195078299	-4.0529332079	 1.1822707548	-0.246139
C	-1.3063279675	-3.2493345422	-0.1553027137	-0.103376
C	-2.5258526849	-2.3673717804	-0.1912471295	 0.17804
O	-3.3147518581	-2.3300764474	-1.1006033113	-0.258555
H	 1.1755581604	 1.8225469443	-0.9548822219	 0.149294
H	-0.5899291663	 1.9083413222	-1.0086389436	 0.153997
H	 0.258827155	 2.1231983382	 0.5274395478	 0.148246
H	 0.8599179153	-3.0063062934	-0.197556823	 0.108984
H	 0.7014792413	-3.3742366676	 2.2374782983	 0.109182
H	-0.6685052492	-2.2524224104	 2.3490445946	 0.117149
H	-0.7418248616	-5.0324748469	 1.0149888391	 0.116808
H	-2.1201027247	-4.1928087828	 1.7467637977	 0.112476
H	-1.2570787423	-3.8144599694	-1.0870691336	 0.09266
H	-2.6730295276	-1.7400858658	 0.718040211	 0.074601
16.8652	50.5685	76.8531	104.7413	142.7077	233.212	301.9203	308.8727	352.4383	440.1466	475.2299	517.6965	644.6622	733.924	859.0162	872.8955	880.5372	941.0161	964.4789	1004.4745	1022.0179	1052.2489	1053.2563	1089.2269	1136.8567	1192.1429	1211.1656	1231.23	1244.4539	1265.7252	1271.4367	1311.6437	1353.893	1414.3434	1439.6486	1477.5056	1478.2603	1482.6189	1498.2359	1829.6731	2365.3355	2866.3786	3027.3574	3045.6171	3066.0806	3071.9826	3088.0632	3089.5042	3104.6375	3113.3293	3131.1725
CC#CC1CCC1C=O	CC#C[C@H]1CC[C@H]1C=O	
InChI=1S/C8H10O/c1-2-3-7-4-5-8(7)6-9/h6-8H,4-5H2,1H3	InChI=1S/C8H10O/c1-2-3-7-4-5-8(7)6-9/h6-8H,4-5H2,1H3/t7-,8-/m0/s1
