13
gdb 130050	2.6773	1.48155	0.95518	6.2659	64.24	-0.2332	-0.0244	0.2088	1120.8016	0.09074	-486.126612	-486.118871	-486.117927	-486.158994	28.327	
N	 0.0125457979	 1.3551160502	 0.1530672921	-0.586908
C	-0.013727269	-0.0134218498	 0.0339702139	 0.48656
N	-1.0877355446	-0.7380767184	 0.0133311956	-0.297229
N	-0.6064206369	-2.0490673693	-0.0012170042	-0.135519
C	-1.4394364264	-3.1640616739	-0.0180112628	 0.177844
O	-2.6392191672	-3.119461479	-0.0119690805	-0.283897
C	 0.7958089259	-2.1147483891	-0.0090878003	 0.509825
O	 1.517881758	-3.0806457358	-0.0171597108	-0.401107
N	 1.1433122198	-0.7628268904	-0.0036964608	-0.424983
H	 0.678078486	 1.8255961084	-0.4458221094	 0.264829
H	-0.9138991542	 1.7548827024	 0.0757788319	 0.279729
H	-0.8313333908	-4.0829557033	-0.0384859244	 0.126971
H	 2.0888701714	-0.4408818319	 0.1159527498	 0.283885
112.19	181.1436	188.2062	242.7957	308.5435	338.4689	407.7612	438.2473	457.2312	625.7184	658.2587	671.2332	720.8559	729.552	771.1602	895.1365	1019.754	1034.1565	1121.5925	1154.8723	1226.0135	1302.8729	1356.708	1428.6543	1525.0484	1626.1518	1704.8572	1827.5837	1864.1756	3019.5953	3548.6903	3647.6288	3675.3982
NC1=NN(C=O)C(=O)N1	Nc1nn(C=O)c(=O)[nH]1	
InChI=1S/C3H4N4O2/c4-2-5-3(9)7(1-8)6-2/h1H,(H3,4,5,6,9)	InChI=1S/C3H4N4O2/c4-2-5-3(9)7(1-8)6-2/h1H,(H3,4,5,6,9)
