16
gdb 34550	4.19762	1.2878	1.17621	4.9283	80.23	-0.2456	-0.0436	0.2021	1048.8893	0.127084	-363.603382	-363.596811	-363.595867	-363.634337	26.643	
N	 0.0609548607	-1.1071401655	 0.1483328767	-0.344601
C	-0.0104756839	 0.0469394067	 0.0696537313	 0.190206
C	-0.0585844323	 1.4597769767	-0.0403404702	 0.223706
C	-1.1624286047	 2.2285382253	-0.0875116034	-0.178349
C	-0.7493169885	 3.6748310379	-0.0283429253	-0.102212
C	-0.1644557737	 3.9164821929	 1.4267255022	-0.230603
C	 1.2104520342	 3.5486390158	 0.8891076598	-0.064533
C	 0.7319547853	 3.6980296167	-0.5383612374	-0.07145
C	 1.1572604994	 2.3357535712	-0.0696884434	-0.153199
H	-2.1830298576	 1.8768344106	-0.0087547885	 0.124967
H	-1.4662944288	 4.4060173967	-0.3946761435	 0.084362
H	-0.2019512197	 4.9804864469	 1.6710161515	 0.11565
H	-0.596184148	 3.331776626	 2.2451999303	 0.104672
H	 2.1603234606	 3.8302591783	 1.3262495412	 0.098598
H	 1.1425391898	 4.2370210179	-1.3827358636	 0.098007
H	 2.1167259872	 1.932221616	-0.3673512476	 0.104779
125.3875	161.6262	351.2279	391.2892	492.0745	508.4781	567.1269	633.4004	696.2321	758.0584	777.9416	799.1353	835.7604	874.9393	890.3725	914.6246	945.3405	977.5981	1006.4603	1020.3868	1049.8929	1062.6439	1094.6107	1133.8663	1165.9962	1197.3919	1225.4134	1250.3476	1279.1192	1310.0278	1333.802	1376.104	1489.7404	1641.6497	2335.3728	3049.0212	3112.355	3140.0712	3186.2895	3193.0628	3206.1675	3222.8585
N#CC1=CC2CC3C2C13	N#CC1=C[C@H]2C[C@@H]3[C@H]2[C@H]13	
InChI=1S/C8H7N/c9-3-5-1-4-2-6-7(4)8(5)6/h1,4,6-8H,2H2	InChI=1S/C8H7N/c9-3-5-1-4-2-6-7(4)8(5)6/h1,4,6-8H,2H2/t4-,6+,7-,8+/m0/s1
