21
gdb 81362	2.46204	1.60421	1.27836	1.6976	82.69	-0.2391	0.0081	0.2472	1090.5109	0.18431	-387.086143	-387.078034	-387.07709	-387.118157	33.018	
C	-0.13193473	 1.4942415511	-0.005421534	-0.431347
C	 0.0043150363	-0.02386897	-0.0048749349	 0.044144
C	 1.1915038778	-0.6098341617	-0.8456002734	-0.058122
C	 2.0731111941	-0.4525914848	 0.4345111241	-0.241488
C	 0.747510138	-0.6267286199	 1.2297519825	-0.041698
C	 0.4201874443	-2.1266463006	 1.3669450902	 0.101482
O	-0.8746327414	-2.3482062237	 1.9260219182	-0.443138
C	 0.5765136819	-2.8108119278	 0.0238135049	-0.121833
C	 0.9331758278	-2.0878724655	-1.0404215695	-0.068161
H	 0.8125667187	 1.9992373136	 0.2200729853	 0.117125
H	-0.4754945956	 1.8555140632	-0.9810936493	 0.113941
H	-0.863379212	 1.8155029284	 0.7445230922	 0.117723
H	-0.9688210046	-0.471812434	-0.2378218133	 0.046267
H	 1.4878509332	-0.0960216574	-1.7622401883	 0.056351
H	 2.8602444681	-1.1957704319	 0.583612393	 0.096472
H	 2.4953356969	 0.5485100986	 0.5445570491	 0.099337
H	 0.6364993211	-0.1227511855	 2.1933868037	 0.063355
H	 1.1043301792	-2.5750962791	 2.0994764748	 0.088748
H	-1.5211920798	-2.0965998109	 1.2573332426	 0.276582
H	 0.3696462547	-3.8755745999	-0.0273576158	 0.093262
H	 1.0505232812	-2.5310932521	-2.024938672	 0.090998
151.589	196.4518	211.1423	258.9955	295.2055	335.7654	394.573	414.4123	461.3557	506.6303	614.7464	702.7577	740.5548	810.6247	822.5191	854.1993	892.3868	917.8663	950.3569	958.4176	985.821	1023.0301	1064.0337	1068.7868	1075.2085	1085.3356	1127.269	1136.4477	1148.1586	1169.3759	1238.3911	1251.1579	1267.828	1270.2999	1299.55	1314.3169	1347.1612	1383.1726	1391.5649	1409.141	1423.7908	1489.4196	1496.1359	1503.6119	1688.1683	3020.9753	3023.5711	3029.2088	3060.931	3075.6043	3085.774	3090.6471	3102.4552	3117.9348	3161.0657	3184.9874	3801.843
CC1C2CC1C(O)C=C2	C[C@H]1[C@H]2C[C@@H]1[C@@H](O)C=C2	
InChI=1S/C8H12O/c1-5-6-2-3-8(9)7(5)4-6/h2-3,5-9H,4H2,1H3	InChI=1S/C8H12O/c1-5-6-2-3-8(9)7(5)4-6/h2-3,5-9H,4H2,1H3/t5-,6+,7-,8-/m0/s1
