17
gdb 14842	3.03188	1.61655	1.16789	2.7858	68.62	-0.2676	0.0167	0.2843	1037.8116	0.141952	-363.862718	-363.854403	-363.853459	-363.896289	29.2	
C	 0.1614922004	 1.5400437707	 0.0373258844	-0.391081
C	 0.0545505208	 0.012131059	 0.0288850412	-0.191396
C	 0.5260668889	-0.5742573114	-1.2883877747	 0.148906
O	 1.9294578175	-0.3271574043	-1.5450521903	-0.281034
C	 2.2428827943	-1.7266991302	-1.5863147557	-0.073759
C	 0.7537586759	-2.1197086943	-1.3857402526	-0.240915
C	 0.432302621	-2.9322390571	-0.2267736574	 0.286416
N	 0.1840984783	-3.5784388538	 0.6994405096	-0.329267
H	 1.1925423595	 1.8518154433	-0.1509133534	 0.140011
H	-0.4731434611	 1.9873081268	-0.7356554123	 0.115754
H	-0.1490230462	 1.9475246563	 1.003201017	 0.120149
H	 0.6489322061	-0.4141609335	 0.844792793	 0.118254
H	-0.9831392934	-0.3035173058	 0.1961145364	 0.111153
H	-0.0856951283	-0.1934389535	-2.1170431426	 0.088001
H	 2.6708346811	-2.0317065956	-2.547351116	 0.118241
H	 2.9126770993	-2.0309535515	-0.7749134006	 0.126686
H	 0.298211896	-2.5642743052	-2.272442086	 0.133881
52.9103	103.4576	116.1475	207.3332	216.7795	257.3729	372.5974	444.6302	522.9982	589.2573	744.5751	765.3605	829.7321	889.0263	939.2084	973.6073	1019.0802	1036.5921	1065.3246	1105.7224	1122.5094	1157.1277	1168.9908	1213.1934	1271.7451	1291.247	1332.1223	1348.7515	1367.8651	1406.1224	1411.8003	1473.5228	1497.0959	1508.864	1527.4942	2355.2018	3013.8576	3031.9869	3033.648	3038.8244	3074.807	3079.3854	3100.0446	3108.3818	3123.4978
CCC1OCC1C#N	CC[C@H]1OC[C@H]1C#N	
InChI=1S/C6H9NO/c1-2-6-5(3-7)4-8-6/h5-6H,2,4H2,1H3	InChI=1S/C6H9NO/c1-2-6-5(3-7)4-8-6/h5-6H,2,4H2,1H3/t5-,6-/m1/s1
