16
gdb 31094	2.6809	1.26856	0.89547	1.3051	68.04	-0.1604	0.0693	0.2297	1250.4084	0.122479	-475.027858	-475.018242	-475.017298	-475.062382	34.267	
C	 0.1775171372	 1.2014713934	-0.0905905249	-0.244112
O	-0.1807804679	 0.1308291647	 0.7733543134	-0.289263
C	-1.3579733349	-0.494706698	 0.4418889123	 0.196057
C	-1.4272559505	-1.8092555768	 0.0775041111	 0.284717
O	-0.4765632221	-2.7667578056	-0.0785385209	-0.447104
N	-2.7527553639	-2.1322264821	-0.1155331192	-0.351537
C	-3.5178898056	-1.0162678137	 0.1196644296	 0.388009
O	-4.86272683	-1.1511208027	-0.0353321798	-0.438814
C	-2.7045016711	 0.0270845548	 0.4711380155	-0.423306
H	 1.1392955615	 1.584167291	 0.2600447049	 0.12285
H	 0.2733954231	 0.8613028985	-1.1304630215	 0.110829
H	-0.5627769911	 2.0112479637	-0.0557272788	 0.115688
H	 0.3565907425	-2.3648911236	 0.1948917169	 0.307669
H	-3.105692092	-3.0388194549	-0.3666693649	 0.271958
H	-5.2740753493	-0.3092651168	 0.1807963865	 0.305425
H	-3.0107038359	 1.0290571383	 0.7262356097	 0.090932
59.3581	143.8417	159.0764	169.0111	210.0698	259.7665	279.3387	306.0834	316.8568	349.395	424.6934	547.7268	591.2821	655.0124	656.6691	670.0841	709.5964	812.9194	1027.9175	1045.0835	1138.7357	1163.907	1176.2988	1177.7968	1203.4604	1218.5548	1297.9931	1373.7743	1476.2656	1485.8152	1504.9989	1520.7854	1536.3329	1622.5022	1689.664	2999.5121	3058.4442	3116.5311	3252.3945	3691.8932	3810.3364	3852.3128
COC1=C(O)NC(O)=C1	COc1c(O)[nH]c(O)c1	
InChI=1S/C5H7NO3/c1-9-3-2-4(7)6-5(3)8/h2,6-8H,1H3	InChI=1S/C5H7NO3/c1-9-3-2-4(7)6-5(3)8/h2,6-8H,1H3
