19
gdb 88315	3.18403	0.97021	0.92119	4.9346	79.8	-0.2357	-0.0144	0.2213	1372.3133	0.158729	-419.221838	-419.212184	-419.21124	-419.258053	34.353	
C	 0.5240600804	 1.4463659695	-0.2933707972	-0.406911
C	 0.1004013742	 0.0160107121	-0.0456541037	 0.029228
C	 1.1302256901	-1.0668343245	 0.1635862723	-0.327268
C	 0.2619320713	-0.6202175141	 1.3189212372	-0.130192
C	 0.7334853028	 0.2090440347	 2.4921316466	 0.399357
O	-0.0151581161	 0.9347108806	 3.0983973197	-0.320631
N	 2.0814478398	 0.0297100906	 2.8100729514	-0.324903
C	 2.8365831138	 0.6274330223	 3.8168137274	 0.08352
N	 2.4231332723	 1.5543788857	 4.5747011783	-0.395368
H	 1.4558591721	 1.685445366	 0.229170458	 0.122234
H	 0.6855947368	 1.6246939404	-1.3616872668	 0.116107
H	-0.237899724	 2.1479108338	 0.0599937609	 0.140835
H	-0.7979517515	-0.283219852	-0.5783507302	 0.093844
H	 0.9600516518	-2.0538231235	-0.252566123	 0.118957
H	 2.1704672856	-0.7533315403	 0.1404873323	 0.107925
H	-0.5406558008	-1.2881518398	 1.6166186834	 0.120112
H	 2.5549579182	-0.6856727371	 2.2831181803	 0.25412
H	 3.8402843527	 0.1823183955	 3.8486162671	 0.091032
H	 3.1642539904	 1.8191568602	 5.2221601761	 0.228002
17.7654	63.6151	128.1705	160.824	194.6724	209.2961	248.7137	349.229	399.456	459.4011	515.1078	601.2744	644.3156	762.2212	796.6396	827.5644	851.3872	879.4525	922.7765	935.2779	1019.4423	1049.5709	1064.6542	1079.0034	1098.2345	1120.7455	1148.6386	1191.4072	1205.2544	1243.58	1260.7366	1366.4483	1403.0561	1424.9697	1432.8387	1486.7264	1492.7129	1500.7005	1523.7516	1735.6576	1820.9417	3020.9153	3034.9723	3099.5863	3106.5057	3120.745	3145.3012	3159.3427	3206.4437	3493.9597	3649.9699
CC1CC1C(=O)NC=N	C[C@H]1C[C@H]1C(=O)NC=N	
InChI=1S/C6H10N2O/c1-4-2-5(4)6(9)8-3-7/h3-5H,2H2,1H3,(H2,7,8,9)	InChI=1S/C6H10N2O/c1-4-2-5(4)6(9)8-3-7/h3-5H,2H2,1H3,(H2,7,8,9)/t4-,5+/m0/s1
