17
gdb 47192	2.29224	1.58718	1.04599	3.7922	76.53	-0.2427	-0.0637	0.179	1131.5469	0.136502	-421.872908	-421.864822	-421.863878	-421.906896	29.904	
O	-0.1870644353	 0.0364909861	-0.7175973233	-0.303666
C	-0.0738114663	 1.139930591	-0.2361503319	 0.367985
C	-1.2857586332	 1.948293223	 0.1961359229	-0.300897
C	-1.7958652134	 2.797999055	-0.9771747176	-0.261902
C	-0.8426251607	 3.8035810026	-1.5529290784	-0.037563
C	 0.4898477645	 3.9320646623	-1.4642598459	-0.138144
C	 1.5408974481	 3.1225654798	-0.8019498497	 0.349833
O	 2.6914511785	 3.5079458226	-0.8662759762	-0.313848
C	 1.2743387062	 1.8041210046	-0.055278772	-0.40144
H	-2.0695487047	 1.2529255867	 0.5061466763	 0.12924
H	-1.0355820477	 2.6014480065	 1.0389982661	 0.111009
H	-2.1195188599	 2.1291216938	-1.7882776876	 0.14743
H	-2.7021590887	 3.331768831	-0.6660490583	 0.123521
H	-1.3410530568	 4.5576532121	-2.1614104257	 0.11483
H	 0.94687333	 4.7747745418	-1.976809601	 0.113045
H	 1.408572363	 2.0355979594	 1.0103453439	 0.147577
H	 2.0655274563	 1.1082870715	-0.3413486218	 0.152989
25.5564	85.1456	162.6836	299.0163	328.6189	360.281	418.7737	446.0906	544.0495	575.6916	623.7649	692.2366	773.7394	819.7651	822.4001	866.4743	920.7655	946.4665	1027.0086	1043.4615	1055.7282	1131.0829	1188.7684	1199.7521	1227.3883	1253.3158	1296.3261	1301.5593	1349.4868	1392.4846	1424.2101	1435.8155	1462.6879	1482.2526	1695.4068	1748.1566	1816.1599	3010.7471	3029.9867	3043.1539	3055.912	3112.9565	3122.2287	3130.9314	3168.9773
O=C1CCC=CC(=O)C1	O=C1CCC=CC(=O)C1	
InChI=1S/C7H8O2/c8-6-3-1-2-4-7(9)5-6/h1,3H,2,4-5H2	InChI=1S/C7H8O2/c8-6-3-1-2-4-7(9)5-6/h1,3H,2,4-5H2
