25
gdb 118833	3.74815	0.68878	0.64614	1.3249	90.23	-0.2562	0.0805	0.3368	1865.8307	0.226832	-389.482696	-389.471366	-389.470422	-389.519479	41.254	
C	-0.2575508265	 1.564637188	 0.3972063352	-0.369254
C	 0.1346900511	 0.1484484856	-0.0426110959	-0.208349
C	 0.8824404956	-0.6025285425	 1.0416196099	-0.02334
C	 0.1475690894	-1.3701701235	 2.1185207823	-0.329543
C	 1.0071515652	-2.1125379726	 1.1144745293	 0.32933
C	 0.3244559708	-2.981223957	 0.0714691955	-0.466704
C	 2.3433610114	-2.648195796	 1.6125910121	-0.243877
C	 2.2525268879	-3.970656325	 2.3698438712	-0.075208
O	 3.5523619574	-4.2692685447	 2.8618927231	-0.420965
H	 0.6268985305	 2.1571583008	 0.6562060768	 0.113303
H	-0.7919903519	 2.0941375072	-0.3978718491	 0.107838
H	-0.9050827859	 1.5360248049	 1.279829892	 0.117484
H	-0.769580955	-0.3991278941	-0.3297603016	 0.093761
H	 0.7559048523	 0.2074760098	-0.9464566628	 0.095354
H	 1.7687606228	-0.0706947556	 1.3844505692	 0.075839
H	 0.491354976	-1.294974171	 3.1453404751	 0.10456
H	-0.9309381333	-1.456944533	 2.0205535185	 0.101489
H	-0.615737651	-2.5470326291	-0.2759485296	 0.114537
H	 0.9690633543	-3.1233637884	-0.8044516273	 0.11385
H	 0.090262423	-3.9738754341	 0.4712718478	 0.115041
H	 3.0355862021	-2.7763923445	 0.7700890698	 0.099269
H	 2.8061622982	-1.9181908289	 2.2867062194	 0.101738
H	 1.5255404109	-3.8748665995	 3.19253399	 0.085747
H	 1.8916430712	-4.7717039269	 1.7068201822	 0.08438
H	 3.5133740036	-5.1150382401	 3.3174560269	 0.283721
66.3639	79.8343	89.5312	119.5823	153.59	211.6491	232.1995	266.1331	270.9295	297.881	324.6336	370.2313	421.0716	436.5153	577.1968	717.1383	779.0847	800.0113	815.0827	885.7029	930.8336	941.0156	961.6868	1000.2368	1015.669	1040.2983	1055.2088	1070.8102	1080.7709	1109.2117	1125.3468	1152.7434	1198.3016	1224.516	1244.5142	1267.1695	1298.643	1304.7807	1343.0159	1348.4681	1368.7619	1408.1111	1422.818	1427.6234	1459.9171	1477.0458	1486.1363	1492.3687	1497.5822	1499.0416	1506.7101	1509.6339	1529.7116	2968.4558	2997.0541	3016.2968	3022.9951	3028.8927	3030.5786	3058.1917	3069.7578	3083.1189	3098.0646	3103.4173	3113.5286	3116.5753	3118.7081	3198.7989	3830.3288
CCC1CC1(C)CCO	CC[C@H]1C[C@]1(C)CCO	
InChI=1S/C8H16O/c1-3-7-6-8(7,2)4-5-9/h7,9H,3-6H2,1-2H3	InChI=1S/C8H16O/c1-3-7-6-8(7,2)4-5-9/h7,9H,3-6H2,1-2H3/t7-,8-/m0/s1
