21
gdb 86005	1.94871	1.48284	1.39275	3.3409	78.56	-0.2387	-0.0291	0.2096	1143.6258	0.178956	-424.230053	-424.219905	-424.218961	-424.264862	37.132	
C	-0.4158368313	 1.389569727	-0.1694920108	-0.406011
C	 0.0343447128	-0.0490625216	 0.0083072795	 0.144235
O	 1.1677278592	-0.3687654306	-0.839328409	-0.321592
C	 2.0296884595	-0.6193014647	 0.2798746692	 0.326434
C	 2.676188514	-1.9979624996	 0.2161181121	-0.460507
C	 3.0973244521	 0.4577803799	 0.4351169002	 0.122062
O	 3.0965664827	 1.5187341374	-0.1306282082	-0.248369
C	 0.834731787	-0.4442133148	 1.2822043309	-0.105603
C	 0.9329003438	 0.5210921752	 2.4562979634	-0.430226
H	 0.419440753	 2.0813496986	-0.0421012562	 0.144733
H	-0.8121302546	 1.5242499045	-1.1806721851	 0.12688
H	-1.2101481321	 1.640978777	 0.5420173354	 0.109191
H	-0.8001100898	-0.7293697562	-0.2057531833	 0.075377
H	 3.3171774554	-2.0822050288	-0.6677883192	 0.136977
H	 3.2884084043	-2.1883489219	 1.1043874189	 0.120537
H	 1.9051427201	-2.7697252711	 0.1528667933	 0.129001
H	 3.9049495803	 0.1892498471	 1.1572445017	 0.071595
H	 0.523308748	-1.4271773309	 1.6475234112	 0.083101
H	 1.2636397697	 1.5172715436	 2.1517742432	 0.139567
H	-0.0423807907	 0.6275613262	 2.942712229	 0.123136
H	 1.6336234766	 0.1498763539	 3.2119395536	 0.119481
71.8552	81.2294	191.011	210.5903	211.586	225.674	251.0388	255.426	276.2212	320.093	399.597	445.7206	502.0932	601.4353	685.5004	775.9646	806.5753	867.3746	894.9621	924.0384	980.7675	1007.9728	1042.0534	1049.1093	1084.5619	1121.7954	1161.2641	1171.9395	1207.4234	1225.2191	1279.2145	1312.8912	1373.6521	1384.4403	1398.3642	1410.658	1415.6684	1423.7351	1477.851	1480.5837	1491.5112	1494.3379	1502.4153	1509.7201	1834.4673	2845.8117	3012.37	3034.293	3035.7241	3039.583	3060.0979	3095.8219	3104.1719	3105.7932	3120.0199	3121.9079	3137.6072
CC1OC(C)(C=O)C1C	C[C@H]1O[C@@](C)(C=O)[C@H]1C	
InChI=1S/C7H12O2/c1-5-6(2)9-7(5,3)4-8/h4-6H,1-3H3	InChI=1S/C7H12O2/c1-5-6(2)9-7(5,3)4-8/h4-6H,1-3H3/t5-,6+,7-/m0/s1
