16
gdb 27287	3.29522	1.61002	1.1042	4.0756	72.09	-0.1701	0.0371	0.2073	1048.5504	0.127815	-434.084355	-434.076813	-434.075869	-434.116522	28.22	
N	 0.0132381166	 1.4223027308	 0.2104440319	-0.604174
C	-0.0484047268	 0.0263784835	 0.0561522947	 0.129627
C	-1.1260793081	-0.8153065133	 0.0210921132	 0.334078
O	-2.4904092981	-0.788044307	 0.0938873681	-0.284757
C	-2.919722952	-2.1023481336	-0.3084926128	-0.102189
C	-1.7251082537	-3.0564865208	-0.0239003145	-0.203223
N	-0.6408457515	-2.0952539661	-0.0886688989	-0.047168
C	 0.7199264125	-2.0049633838	-0.0821659795	-0.03585
N	 1.0967572543	-0.7432590951	-0.0130935465	-0.315525
H	 0.9612289577	 1.7312121758	 0.0295085055	 0.245027
H	-0.6164120741	 1.9091944912	-0.4167030058	 0.239935
H	-3.8200121681	-2.3558818569	 0.2531186551	 0.130025
H	-3.1497198877	-2.0931248118	-1.3813560636	 0.120845
H	-1.7883836803	-3.5192429771	 0.9678696979	 0.132671
H	-1.6392632328	-3.8423496496	-0.7779401793	 0.13333
H	 1.372329482	-2.8603645859	-0.1538021955	 0.127348
117.2779	130.063	174.3465	256.5317	274.6727	348.9813	518.2014	617.5598	624.8523	642.1018	677.4317	729.645	756.4277	812.4728	842.704	882.7602	941.5018	1013.5887	1055.6438	1111.6617	1134.0954	1205.9348	1239.0562	1248.2899	1260.057	1301.7616	1358.7927	1385.2452	1410.0205	1472.9513	1496.7436	1512.403	1527.5313	1637.3052	1704.361	3025.7665	3035.9997	3101.1236	3125.1919	3262.8153	3518.8507	3611.6298
NC1=C2OCCN2C=N1	Nc1c2OCCn2cn1	
InChI=1S/C5H7N3O/c6-4-5-8(3-7-4)1-2-9-5/h3H,1-2,6H2	InChI=1S/C5H7N3O/c6-4-5-8(3-7-4)1-2-9-5/h3H,1-2,6H2
