19
gdb 41125	2.79013	2.23273	1.70437	0.3149	83.86	-0.2047	0.0028	0.2075	872.3773	0.161174	-348.633895	-348.627581	-348.626637	-348.663882	28.222	
C	-0.0192792934	 1.504599436	-0.155685583	-0.325848
C	 1.5555261466	 1.5125110524	 0.0566786953	-0.32081
C	 1.4022553119	 0.1797104143	 0.8616177553	 0.224139
C	 1.0733499341	 0.2513151722	 2.340180921	-0.15928
C	 0.101981212	-0.6488104026	 2.515191792	-0.101004
C	-0.1156437814	-1.2222783251	 1.1266257888	-0.141292
C	 1.3325957234	-1.3590643449	 0.4498487199	-0.098967
C	 0.726983017	-0.9825222336	-0.9087951641	-0.280556
C	 0.0614349668	-0.0164692722	 0.1059838277	 0.27527
H	-0.5173921805	 2.0432507065	 0.6550403938	 0.116518
H	-0.4174920379	 1.841653876	-1.1164174313	 0.099172
H	 2.1105975112	 1.4309958343	-0.8793304237	 0.113983
H	 1.9573361683	 2.3546500699	 0.62575906	 0.101572
H	 1.5570877788	 0.8920724452	 3.0656517029	 0.09475
H	-0.4125853425	-0.9482240171	 3.4174015677	 0.099672
H	-0.8525442971	-2.0127596905	 0.9649425954	 0.061492
H	 2.0626278859	-2.1493077307	 0.6662167107	 0.06274
H	 1.4052862306	-0.549921579	-1.6480164081	 0.091154
H	 0.068789896	-1.7191556609	-1.3778244405	 0.087295
242.2487	313.181	373.1832	431.2921	454.7743	527.4456	617.6877	677.7052	678.6891	693.2482	739.432	815.435	824.8263	837.6748	858.2562	879.5252	902.0284	923.0369	924.6905	967.6289	975.5626	1036.9883	1063.9583	1080.6418	1103.8402	1125.6532	1136.8798	1170.656	1181.8632	1205.2537	1210.9391	1216.8659	1230.4862	1247.6322	1265.884	1291.1096	1330.4796	1467.2904	1477.967	1527.5132	1622.9632	3025.3639	3054.3205	3056.0347	3069.4086	3089.0273	3107.8512	3111.4795	3130.7582	3210.2614	3240.4442
C1CC23C=CC4C2CC134	C1C[C@]23C=C[C@@H]4[C@H]2C[C@]134	
InChI=1S/C9H10/c1-2-8-3-4-9(8)5-7(8)6(1)9/h1-2,6-7H,3-5H2	InChI=1S/C9H10/c1-2-8-3-4-9(8)5-7(8)6(1)9/h1-2,6-7H,3-5H2/t6-,7-,8-,9+/m1/s1
