15
gdb 25505	4.40586	1.11975	0.89284	3.9982	77.67	-0.2513	-0.0349	0.2164	1213.3732	0.115896	-416.893816	-416.886609	-416.885665	-416.925981	26.971	
O	-0.3381560447	 0.1819598465	 0.632048847	-0.294532
C	-0.0640755531	 1.3528036249	 0.5143847455	 0.163086
N	 1.1903593272	 1.8852032398	 0.3392492812	-0.401879
C	 2.4233453962	 1.2249526678	 0.2558758197	 0.409157
C	 2.5663733567	-0.1633749715	 0.345467289	-0.225165
C	 3.8495450575	-0.6916201561	 0.2467677223	 0.022604
N	 4.9628702805	 0.0257562818	 0.0721730716	-0.277009
C	 4.8049863573	 1.3499834644	-0.0109560418	 0.022638
C	 3.5785091302	 1.9931702328	 0.0729220434	-0.231575
H	-0.8261513251	 2.1558395768	 0.5360060462	 0.090763
H	 1.2271033334	 2.8909271313	 0.2594562711	 0.255801
H	 1.7048406006	-0.7974619879	 0.4865164915	 0.151295
H	 3.9830050976	-1.7689116849	 0.3138502373	 0.114204
H	 5.7105047343	 1.9352879665	-0.1530726243	 0.110121
H	 3.5219492514	 3.0749942277	-0.0028127197	 0.090492
67.6094	176.2596	195.3135	321.5106	345.2252	396.3293	499.0667	557.3072	602.5514	678.0722	763.4357	784.0932	842.6587	874.9782	889.1692	983.6941	1007.1407	1007.8524	1022.4836	1089.9168	1116.5298	1140.3435	1244.7796	1269.8208	1318.1558	1356.0253	1435.779	1449.8665	1520.6234	1538.5411	1625.5492	1632.0503	1815.3588	2947.2264	3152.495	3157.0395	3175.4736	3262.0504	3609.8787
O=CNC1=CC=NC=C1	O=CNc1ccncc1	
InChI=1S/C6H6N2O/c9-5-8-6-1-3-7-4-2-6/h1-5H,(H,7,8,9)	InChI=1S/C6H6N2O/c9-5-8-6-1-3-7-4-2-6/h1-5H,(H,7,8,9)
