17
gdb 50295	3.12818	1.58152	1.41181	2.0749	70.98	-0.2483	-0.026	0.2224	954.5164	0.137332	-421.828946	-421.821875	-421.820931	-421.860738	27.661	
O	-0.6322551206	 0.7694992934	 0.6433506568	-0.250828
C	 0.1248334738	 1.0232500567	-0.2606824423	 0.140099
C	 1.2714716795	 1.9968309687	-0.1828515235	-0.081384
C	 1.2187882726	 3.1751689365	-1.2135883952	-0.259464
C	 1.4044962673	 4.3914949923	-0.2409814994	 0.025046
O	 2.2945833539	 3.8403944073	 0.7368047346	-0.249459
C	 1.4234998617	 2.7847285912	 1.1635071449	 0.011814
C	 0.116281137	 3.5239166083	 1.4193744501	-0.066239
C	 0.108932636	 4.532131986	 0.5473795175	-0.087228
H	 0.022424143	 0.5107042565	-1.2453461437	 0.081616
H	 2.1864110131	 1.4188732861	-0.3653508873	 0.107544
H	 2.0437206651	 3.1163247081	-1.9261956117	 0.11357
H	 0.2808616564	 3.2270269823	-1.7723321325	 0.10997
H	 1.829523276	 5.2873497147	-0.6915244692	 0.085086
H	 1.8615716305	 2.2236323895	 1.9865658376	 0.089173
H	-0.6569728982	 3.199128458	 2.0985815099	 0.124616
H	-0.677740737	 5.2439655645	 0.3381499633	 0.106069
77.393	146.3447	203.7817	354.6939	371.8912	470.1128	575.3661	662.8391	690.2718	748.4244	775.5615	813.2633	847.0409	871.1314	906.0652	920.5719	941.1934	951.3458	967.5105	1015.6952	1019.6901	1056.6622	1090.8313	1118.437	1159.037	1201.1501	1242.4519	1263.4383	1270.8033	1307.8063	1319.7014	1341.0918	1357.378	1425.5418	1494.9683	1641.8476	1819.3152	2862.2778	3031.6428	3067.8594	3117.3171	3132.2037	3143.7843	3224.9958	3261.2367
O=CC1CC2OC1C=C2	O=C[C@H]1C[C@@H]2O[C@H]1C=C2	
InChI=1S/C7H8O2/c8-4-5-3-6-1-2-7(5)9-6/h1-2,4-7H,3H2	InChI=1S/C7H8O2/c8-4-5-3-6-1-2-7(5)9-6/h1-2,4-7H,3H2/t5-,6-,7+/m1/s1
