21
gdb 75444	2.79854	1.07736	0.82178	2.7686	86.25	-0.2373	-0.0191	0.2182	1421.4629	0.182442	-387.129093	-387.119928	-387.118983	-387.16349	34.139	
C	-0.0369453436	 1.5260691032	 0.0769703292	-0.47614
C	 0.0103222187	 0.025970694	-0.0283842265	 0.311935
C	-0.0407652277	-0.6136425421	-1.1988451897	-0.131512
C	-0.0278408281	-2.1111631852	-1.3504828351	-0.262443
C	-0.3161807213	-2.8326579155	-0.028518786	-0.219606
C	 0.4959386988	-2.2041309284	 1.1218343078	-0.070848
C	 0.1181109689	-0.7181069182	 1.2851082788	-0.306245
C	 0.2347860391	-2.9512269427	 2.4099499683	 0.152467
O	 1.0583819401	-3.5494073103	 3.0523858065	-0.250322
H	 0.8732500155	 1.9211946776	 0.5465831698	 0.123501
H	-0.1459990692	 1.9962244972	-0.9039010097	 0.12136
H	-0.8757391904	 1.8528475582	 0.7057862356	 0.121897
H	-0.0983984189	-0.0316675195	-2.1165708725	 0.077558
H	-0.7663704426	-2.4136911609	-2.1035774577	 0.10595
H	 0.9446281738	-2.4360489696	-1.7495992247	 0.112047
H	-1.3860053556	-2.7538367999	 0.2054106447	 0.10307
H	-0.0857225919	-3.8994607771	-0.1180890686	 0.10721
H	 1.565754273	-2.292829867	 0.9038002123	 0.093945
H	 0.8579793992	-0.2220762647	 1.9267418067	 0.114129
H	-0.8375202859	-0.6329798424	 1.827615672	 0.106584
H	-0.8326730322	-2.9141071665	 2.7406770787	 0.065462
53.5693	93.9543	149.6671	191.0053	256.9282	270.3009	344.7685	358.4454	391.4787	439.5161	464.4064	574.2341	638.0711	805.25	835.5764	859.3901	890.4084	907.6619	955.4665	986.4451	1021.2587	1048.7125	1059.4164	1092.6886	1113.172	1127.5198	1171.0861	1173.4868	1230.77	1263.338	1293.4109	1318.8248	1359.7504	1369.4798	1379.5122	1388.0709	1414.8573	1427.261	1474.1009	1478.8227	1480.1122	1490.8797	1496.5629	1745.3363	1835.0931	2828.0847	2979.6731	2997.7737	3013.0299	3020.8926	3033.3328	3041.8615	3057.7531	3058.6088	3076.8419	3111.142	3143.6448
CC1=CCCC(C1)C=O	CC1=CCC[C@@H](C1)C=O	
InChI=1S/C8H12O/c1-7-3-2-4-8(5-7)6-9/h3,6,8H,2,4-5H2,1H3	InChI=1S/C8H12O/c1-7-3-2-4-8(5-7)6-9/h3,6,8H,2,4-5H2,1H3/t8-/m0/s1
