18
gdb 45471	3.24565	1.46716	1.19203	3.4173	78.83	-0.2082	-0.0524	0.1557	1056.6661	0.149775	-401.954617	-401.947242	-401.946298	-401.986643	28.828	
O	-0.2470192523	-0.0098235555	 0.3063558993	-0.329475
C	-0.1661445777	 1.151129991	-0.0426998515	 0.360847
C	-1.309709824	 1.8577042399	-0.7777203355	-0.292451
N	-1.3405550236	 3.3020804552	-0.6267608126	-0.086215
C	-1.7383874959	 3.8901423902	 0.6713507695	-0.166673
C	-0.656297624	 4.9788953583	 0.4805456171	-0.242437
C	-0.0592581268	 4.0428113255	-0.6177542012	-0.036494
C	 1.1227277215	 3.2523648141	-0.1546797856	-0.044898
C	 1.0630722313	 1.9482850789	 0.1486453068	-0.17128
H	-1.2127701586	 1.6010414085	-1.8430996268	 0.127474
H	-2.2595804038	 1.4323561143	-0.4407306876	 0.132173
H	-2.78276121	 4.2156670894	 0.7142380751	 0.107977
H	-1.5363074242	 3.2448223956	 1.5388761	 0.102084
H	-1.0456954641	 5.9083418986	 0.0632780274	 0.11889
H	-0.0182355536	 5.1979570669	 1.3370746156	 0.111462
H	 0.1777119269	 4.5355765684	-1.5717275904	 0.090075
H	 2.06004359	 3.798927034	-0.0542843542	 0.109191
H	 1.9251043989	 1.4039366564	 0.5224615747	 0.10975
75.9054	145.4135	229.7089	317.0417	378.2444	430.6538	462.8399	501.5045	599.6499	696.0521	728.022	761.3218	778.9775	850.5569	871.9358	943.9587	952.2943	977.5343	1026.5686	1034.6775	1065.9509	1093.7139	1148.7082	1164.0392	1202.0587	1220.2799	1226.2349	1257.1394	1266.6472	1303.9537	1326.2928	1336.6848	1357.9873	1404.5931	1450.7008	1484.0119	1523.7008	1673.7446	1778.2437	2991.2902	2995.224	3003.9498	3063.1392	3088.0435	3093.3638	3132.4128	3145.8691	3182.8146
O=C1CN2CCC2C=C1	O=C1CN2CC[C@H]2C=C1	
InChI=1S/C7H9NO/c9-7-2-1-6-3-4-8(6)5-7/h1-2,6H,3-5H2	InChI=1S/C7H9NO/c9-7-2-1-6-3-4-8(6)5-7/h1-2,6H,3-5H2/t6-/m1/s1
