17
gdb 45177	2.81088	1.88166	1.64195	3.2448	70.19	-0.2319	-0.0243	0.2076	880.6018	0.138334	-421.812883	-421.806499	-421.805555	-421.843556	26.475	
O	 0.0424105756	-0.0036588357	-0.0369009514	-0.322971
C	 0.0066201548	 1.2001655714	-0.0102351822	 0.422622
C	-1.2642939612	 2.0535224571	 0.039396287	-0.314308
C	-0.9149583776	 3.3558831487	 0.7756227731	-0.089036
C	-0.115597387	 3.0080679822	 2.0697731215	-0.256316
C	 1.1681304773	 3.1032418999	 1.2229248697	-0.081971
C	 0.4247120527	 3.9492746172	 0.1690970832	 0.13185
O	 0.9307402455	 3.1880666033	-0.9365674357	-0.298321
C	 1.2306220886	 2.1097430728	 0.0011419719	-0.023617
H	-1.5879111337	 2.2530487455	-0.9881876183	 0.139549
H	-2.057988714	 1.4937834058	 0.5415420163	 0.124171
H	-1.7677346006	 4.0293408318	 0.8677653141	 0.077902
H	-0.1426615876	 3.8169200703	 2.8047755864	 0.110143
H	-0.3552145566	 2.0654069691	 2.5714322849	 0.112138
H	 2.1307708663	 3.362548401	 1.6625524063	 0.085933
H	 0.4949779293	 5.0292501195	 0.0319528231	 0.085236
H	 2.1638680282	 1.5921853202	-0.2229370098	 0.096995
105.6096	305.7859	356.5354	404.0027	444.2639	510.3321	576.7233	632.088	708.8146	758.436	806.9239	823.33	832.8563	878.0556	910.4033	960.5954	982.3893	1003.9124	1024.5436	1039.5829	1058.1486	1069.7681	1115.036	1171.791	1198.265	1211.2217	1224.9834	1239.5433	1259.9712	1282.2083	1298.2037	1319.0199	1331.8176	1341.2896	1445.456	1493.7383	1841.4447	3050.8591	3052.2632	3096.5692	3103.748	3106.6491	3108.0663	3112.7597	3123.3845
O=C1CC2CC3C2OC13	O=C1C[C@H]2C[C@@H]3[C@H]2O[C@H]13	
InChI=1S/C7H8O2/c8-5-2-3-1-4-6(3)9-7(4)5/h3-4,6-7H,1-2H2	InChI=1S/C7H8O2/c8-5-2-3-1-4-6(3)9-7(4)5/h3-4,6-7H,1-2H2/t3-,4-,6+,7+/m1/s1
