23
gdb 111758	3.10561	1.01783	0.88586	1.794	86.18	-0.227	0.0758	0.3028	1456.443	0.204772	-388.255426	-388.245577	-388.244633	-388.290573	36.593	
C	-0.1444742356	 1.5589168211	-0.3140867178	-0.3729
C	 0.0125377904	 0.0940592549	 0.1116745023	-0.213277
C	-1.3162472425	-0.6315199164	 0.1675487912	-0.08312
C	-1.9057942362	-1.3762301381	-0.9962847885	 0.041359
O	-0.8808270494	-1.9913034976	-1.7839363352	-0.287327
C	-0.5012165465	-2.8254572697	-0.656935311	-0.142833
C	-1.519098075	-2.1393122041	 0.2589485451	 0.248016
C	-2.3334629942	-2.8064024188	 1.336947167	-0.295451
C	-3.0206419422	-4.1092525232	 0.9066353661	-0.379609
H	 0.8242545758	 2.066969209	-0.3488556179	 0.109906
H	-0.597435976	 1.6305525279	-1.3082766656	 0.122451
H	-0.7847377931	 2.1105351955	 0.3836396368	 0.109299
H	 0.6720131626	-0.4160905576	-0.5968720054	 0.115529
H	 0.5004391032	 0.0452473418	 1.0937769674	 0.091731
H	-2.0827797095	-0.1112984206	 0.7432634241	 0.07892
H	-2.8543861998	-1.1708084404	-1.481201616	 0.096066
H	-0.7400713681	-3.8733513987	-0.8690791052	 0.107158
H	 0.5621552571	-2.7360619008	-0.4046354233	 0.10116
H	-1.6910141371	-3.0033129846	 2.2069833657	 0.100969
H	-3.0929857894	-2.0961273154	 1.6862197042	 0.100097
H	-3.627608049	-4.5144508111	 1.7220213996	 0.113427
H	-3.6774290281	-3.9428858171	 0.0464766923	 0.120078
H	-2.2939637375	-4.8781652158	 0.6260983941	 0.118351
59.8114	66.2308	142.2711	170.4053	203.4958	241.85	268.0142	299.2587	316.9569	361.9327	548.4115	572.4068	618.4821	739.2435	776.9	798.3384	841.0191	897.8952	919.5593	955.2538	977.9249	1000.517	1010.7975	1022.3224	1044.8909	1075.6983	1086.0398	1114.1576	1130.8521	1159.6806	1165.6944	1231.9498	1264.9687	1280.8039	1306.3933	1326.2844	1339.8484	1364.5861	1386.6174	1409.4038	1410.9404	1472.3522	1481.2981	1482.1625	1498.5704	1499.8891	1505.0629	1507.1269	1518.6245	3007.1225	3022.2797	3024.8548	3030.7389	3036.644	3046.2361	3070.6878	3077.2658	3099.2551	3105.9654	3106.333	3106.8058	3110.4978	3166.7444
CCC1C2OCC12CC	CC[C@H]1[C@H]2OC[C@@]12CC	
InChI=1S/C8H14O/c1-3-6-7-8(6,4-2)5-9-7/h6-7H,3-5H2,1-2H3	InChI=1S/C8H14O/c1-3-6-7-8(6,4-2)5-9-7/h6-7H,3-5H2,1-2H3/t6-,7+,8-/m0/s1
