18
gdb 32858	6.49551	0.8008	0.72014	1.1107	77.13	-0.1765	0.051	0.2275	1569.7912	0.147042	-439.10182	-439.092502	-439.091558	-439.136985	33.791	
C	-0.02855848	 1.4501057683	 0.0034536476	-0.389019
C	 0.0017586392	-0.0661773811	-0.0033085876	-0.050613
O	 0.6828717368	-0.4853967394	 1.18823099	-0.28068
C	 0.8440110797	-1.7977624595	 1.3783227033	 0.486511
C	 1.4973288844	-2.4561071988	 2.3743762842	-0.410393
C	 1.3334677942	-3.8553320632	 2.0758001413	 0.251936
N	 1.9156220997	-4.9008526368	 2.8047873836	-0.605512
C	 0.5973653497	-3.9305392644	 0.9335507711	-0.122725
O	 0.295024432	-2.6472250545	 0.4911712985	-0.198134
H	 0.9858141819	 1.8582825991	 0.0102298317	 0.131882
H	-0.5441362344	 1.8154836824	-0.8895188635	 0.121
H	-0.5561456462	 1.822965038	 0.8856907793	 0.131394
H	-1.0101050298	-0.4875697096	-0.0131613164	 0.116214
H	 0.5311609962	-0.4536304739	-0.8816785339	 0.116018
H	 2.0328426596	-2.0117552895	 3.1966520619	 0.101932
H	 1.9103707975	-4.7274984329	 3.8017302954	 0.243972
H	 1.484179514	-5.7972248717	 2.6205863465	 0.241199
H	 0.2349352955	-4.7344232726	 0.3184021969	 0.115016
28.8122	61.5286	144.0895	203.6623	238.3204	250.1029	332.8075	344.4638	366.5502	496.6158	557.6231	627.6754	651.483	681.959	725.5375	755.398	771.0543	815.5744	900.3335	981.3104	1005.8445	1065.543	1092.0236	1121.6823	1142.8061	1181.6146	1220.2492	1262.803	1293.3771	1357.5026	1395.466	1419.5774	1463.7821	1484.0713	1499.1261	1522.5575	1619.0478	1656.0776	1683.8352	3029.0091	3047.7628	3067.1767	3122.8851	3126.999	3269.3826	3295.3896	3536.8419	3626.4511
CCOC1=CC(N)=CO1	CCOc1cc(N)co1	
InChI=1S/C6H9NO2/c1-2-8-6-3-5(7)4-9-6/h3-4H,2,7H2,1H3	InChI=1S/C6H9NO2/c1-2-8-6-3-5(7)4-9-6/h3-4H,2,7H2,1H3
