22
gdb 59086	2.06985	1.44705	1.12509	1.5467	84.87	-0.2283	-0.0336	0.1947	1232.2101	0.191248	-404.337455	-404.327087	-404.326143	-404.372319	38.112	
C	 0.4497583616	 0.4078819542	-1.385205587	-0.386756
C	 0.0614619653	 0.1148262094	 0.0671102847	 0.07061
C	-0.0310501505	 1.4008045906	 0.8900258775	-0.385596
N	-1.2662413551	-0.5220394664	 0.0520798778	-0.093769
C	-1.452711685	-1.9348559244	-0.1466691401	 0.005655
C	-0.3356080441	-2.9394852955	-0.3215773866	-0.434024
C	-1.7745895707	-1.2880923765	 1.1993746457	-0.13309
C	-0.9751392019	-1.6304033455	 2.4012408829	 0.14916
O	 0.2300640059	-1.7442173577	 2.4675832286	-0.279894
H	 1.4225957314	 0.9074080459	-1.4228069837	 0.114053
H	 0.5209393158	-0.5107374313	-1.9750701937	 0.113213
H	-0.2943209478	 1.0571256353	-1.8574832931	 0.121246
H	 0.8207530923	-0.5294009782	 0.5237265317	 0.102572
H	-0.2763996509	 1.1874514631	 1.9343251071	 0.115968
H	 0.9262490845	 1.9305019138	 0.8745445281	 0.113414
H	-0.8026231409	 2.0625156787	 0.4834302581	 0.118076
H	-2.33744684	-2.1617504051	-0.7431561172	 0.100225
H	 0.4724608303	-2.793625217	 0.3950914336	 0.163235
H	-0.7316937881	-3.9517886852	-0.1909587819	 0.122413
H	 0.0733868743	-2.8768828124	-1.3355279276	 0.127128
H	-2.8211505586	-1.0955576464	 1.431003138	 0.09478
H	-1.6036379177	-1.7870832794	 3.3072180671	 0.081382
77.4229	132.2693	154.7371	179.2274	209.9882	212.1261	228.667	241.3487	274.0052	337.8929	364.1985	435.8103	473.8359	553.3216	682.9972	784.2891	797.6367	826.0236	887.7826	933.9401	946.4744	960.759	999.485	1022.9633	1068.2534	1089.4151	1133.4975	1151.0571	1164.6228	1181.5493	1196.3154	1343.0652	1357.5636	1375.1432	1380.8151	1396.8711	1401.9698	1416.3993	1420.852	1434.3421	1482.6232	1486.1588	1494.3749	1498.2304	1504.9066	1510.4697	1787.9081	2872.5798	3036.1271	3039.9808	3042.588	3050.4443	3090.5252	3098.2498	3109.2618	3110.9523	3113.7657	3117.1381	3117.4358	3155.3375
CC(C)N1C(C)C1C=O	CC(C)N1[C@@H](C)[C@H]1C=O	
InChI=1S/C7H13NO/c1-5(2)8-6(3)7(8)4-9/h4-7H,1-3H3	InChI=1S/C7H13NO/c1-5(2)8-6(3)7(8)4-9/h4-7H,1-3H3/t6-,7+,8?/m0/s1
