22
gdb 112829	2.98029	1.14431	0.93839	2.0192	81.45	-0.2263	0.076	0.3022	1322.6205	0.195138	-404.331046	-404.322025	-404.321081	-404.364637	34.843	
C	-0.059823695	 1.568865078	-0.0004237022	-0.395328
C	 0.0520163803	 0.0490189757	-0.003602382	 0.061299
C	 0.7482026098	-0.556646652	-1.2450797023	-0.251894
C	 1.3435508132	-1.8835210191	-0.7276567757	 0.024201
C	 2.5845622977	-2.3533534066	-1.4735691915	-0.095242
O	 2.212743045	-2.6104552029	-2.8210454629	-0.422319
C	 1.5733964742	-1.6095158634	 0.7553457295	-0.044238
C	 2.2264665873	-0.3269404316	 1.1315807603	-0.256106
N	 0.7631639921	-0.4612157485	 1.196060633	-0.103544
H	 0.9281727237	 2.0384816965	-0.0592779471	 0.111534
H	-0.646332269	 1.913613493	-0.85792909	 0.114099
H	-0.5481536346	 1.9189224851	 0.9134413009	 0.124428
H	-0.958145824	-0.3744211464	 0.0695417508	 0.080017
H	 0.0590541059	-0.7052989268	-2.0782734547	 0.112002
H	 1.5426248108	 0.1044052151	-1.610887627	 0.096122
H	 0.5893898646	-2.6761978356	-0.8148326129	 0.08395
H	 3.3644627669	-1.5767902279	-1.4158503511	 0.083363
H	 2.9879151566	-3.2598299285	-0.9935474736	 0.084792
H	 2.9954869617	-2.8967296153	-3.30055636	 0.286681
H	 1.6212495286	-2.4575337458	 1.43368284	 0.085333
H	 2.7106701457	-0.2307968273	 2.0989918403	 0.112918
H	 2.6733284684	 0.2805508644	 0.348880168	 0.107933
91.5773	123.0336	160.9397	222.2093	233.7213	266.2282	312.2681	374.0846	423.6407	468.6559	508.7559	606.6159	651.7911	734.8594	834.1332	865.0588	882.2485	892.7352	936.276	991.9835	995.0955	1029.0061	1064.5251	1078.9847	1088.6294	1105.8179	1123.4955	1146.2225	1152.7565	1176.8705	1202.953	1244.7408	1245.3174	1272.5062	1290.5429	1328.2862	1348.4882	1360.0265	1376.945	1395.1387	1408.2822	1457.8685	1488.6734	1490.2711	1498.0223	1514.5792	1522.9774	2960.9453	2987.9667	3015.4595	3027.8449	3034.5929	3044.6271	3101.4579	3109.6007	3113.471	3114.88	3136.8867	3190.0592	3829.9949
CC1CC(CO)C2CN12	C[C@H]1C[C@@H](CO)[C@H]2CN12	
InChI=1S/C7H13NO/c1-5-2-6(4-9)7-3-8(5)7/h5-7,9H,2-4H2,1H3	InChI=1S/C7H13NO/c1-5-2-6(4-9)7-3-8(5)7/h5-7,9H,2-4H2,1H3/t5-,6-,7+,8?/m0/s1
