15
gdb 131541	3.07263	1.6305	1.14078	5.372	67.43	-0.2185	0.0029	0.2214	1008.4741	0.115458	-450.100609	-450.093182	-450.092238	-450.133159	27.888	
O	 0.0863299594	 1.4300904589	 0.1282760324	-0.42544
C	 0.0859974022	 0.0121660839	 0.0364156111	 0.00259
C	-1.3740965461	-0.6008623449	-0.0722436785	-0.201344
N	-1.469989585	-1.3944388572	-1.3446455527	-0.420485
C	-0.2319710043	-1.2353078228	-1.9366956608	 0.39614
C	 0.7003985067	-0.5452513374	-1.2082634522	 0.222535
N	 1.886490937	-0.5611943346	-1.869937054	-0.27647
N	 1.7374824638	-1.2195925638	-2.9791385223	-0.134336
N	 0.4203529799	-1.6582399436	-3.0301319743	-0.327369
H	 0.1048944321	 1.7793640802	-0.7693519301	 0.280912
H	 0.5601424351	-0.3317281193	 0.9601107185	 0.108199
H	-1.5877652961	-1.2630113603	 0.7706652117	 0.127072
H	-2.0978582212	 0.2183451444	-0.0621771083	 0.124481
H	-2.2790784313	-1.1887533657	-1.9167337839	 0.245718
H	 0.1169883077	-2.2022641878	-3.8202495066	 0.277798
41.9542	157.6025	252.6893	271.5667	327.5896	436.0334	494.069	508.0226	565.4547	649.1151	695.1278	718.6351	770.7986	806.0646	912.4205	926.1429	956.9623	1012.4543	1024.2457	1080.4432	1174.3427	1222.4222	1237.2257	1252.5848	1299.8783	1335.3114	1358.2133	1372.7179	1413.327	1438.0735	1499.1654	1549.4039	1640.2378	3058.6779	3070.5636	3112.5754	3557.5657	3673.8962	3806.5374
OC1CNC2=C1N=NN2	O[C@H]1CNc2c1nn[nH]2	
InChI=1S/C4H6N4O/c9-2-1-5-4-3(2)6-8-7-4/h2,9H,1H2,(H2,5,6,7,8)	InChI=1S/C4H6N4O/c9-2-1-5-4-3(2)6-8-7-4/h2,9H,1H2,(H2,5,6,7,8)/t2-/m0/s1
