21
gdb 108237	2.1825	1.56911	1.19281	1.9414	79.57	-0.2268	0.0774	0.3042	1160.4267	0.180632	-424.184038	-424.17434	-424.173395	-424.218143	36.305	
C	-0.2704589544	 1.3292982863	-0.151987128	-0.26811
O	-0.0172508005	-0.0649862206	 0.0017347805	-0.298622
C	 0.7007795264	-0.600747745	-1.0574371695	 0.349268
C	 2.1425015671	-0.2747178984	-1.4270088403	-0.308512
C	 2.3148366512	-1.7691791503	-1.8663838067	-0.282738
C	 0.8782142126	-2.0830901401	-1.4177051372	 0.201947
C	 0.4270753448	-3.3510257152	-0.7567544589	-0.494258
C	-0.0648940684	-1.193526674	-2.2141797573	 0.026734
O	-1.4327306117	-1.3604513308	-1.9808381018	-0.449906
H	 0.6657849121	 1.9016943842	-0.1751262927	 0.123132
H	-0.8340680509	 1.5369522861	-1.0711966923	 0.123455
H	-0.8579957805	 1.6424144635	 0.7135200238	 0.131838
H	 2.2981448659	 0.4938147919	-2.1914394095	 0.095508
H	 2.7529824005	-0.0370781857	-0.5520198073	 0.110311
H	 2.5214551121	-1.9343139492	-2.9293279834	 0.098205
H	 3.071725567	-2.2921386286	-1.2773092566	 0.107976
H	 0.9528828148	-3.5284050643	 0.1878651214	 0.114785
H	-0.6469701147	-3.3202508508	-0.5569053048	 0.128793
H	 0.6169829199	-4.2107777963	-1.4108455265	 0.118925
H	 0.1441816944	-0.9378701893	-3.2539037781	 0.081926
H	-1.6125735377	-0.9702487234	-1.1142905947	 0.289342
86.3108	131.3587	168.2513	180.8169	203.3414	253.3523	263.3664	282.6756	324.8622	416.3642	446.7864	509.5648	571.8444	657.0699	682.5923	751.6374	790.6346	879.0713	937.1856	951.0311	1000.9588	1031.1981	1051.7006	1091.4988	1126.5551	1142.7415	1177.4879	1185.4734	1195.4334	1219.7722	1232.375	1236.5165	1243.7992	1313.4606	1318.7284	1383.6287	1415.2535	1447.0467	1478.2868	1480.0216	1488.9943	1490.0487	1494.8592	1506.5449	1512.3794	3003.7947	3024.9905	3038.6524	3046.6387	3063.5014	3080.3995	3089.0114	3091.5476	3110.2277	3118.4991	3126.9122	3741.1109
COC12CCC1(C)C2O	CO[C@@]12CC[C@]1(C)[C@H]2O	
InChI=1S/C7H12O2/c1-6-3-4-7(6,9-2)5(6)8/h5,8H,3-4H2,1-2H3	InChI=1S/C7H12O2/c1-6-3-4-7(6,9-2)5(6)8/h5,8H,3-4H2,1-2H3/t5-,6-,7-/m1/s1
