19
gdb 62094	3.73346	0.8094	0.69673	1.8821	73.1	-0.2485	-0.0369	0.2116	1577.7484	0.153731	-460.178647	-460.167966	-460.167022	-460.216325	36.525	
C	 0.1537303652	 1.12065858	 1.4329793645	-0.410207
C	-0.0281316759	 0.1507191176	 0.2658721496	 0.022911
O	 0.5042346582	-1.1467690642	 0.5043019595	-0.253421
C	 1.9067935088	-1.2541539285	 0.4435721906	-0.161869
C	 2.5906595188	-1.0057537355	 1.7846682552	 0.136476
O	 3.7545775848	-0.7275674002	 1.8984747498	-0.230519
C	-1.5146623738	-0.0005982217	-0.1127321111	 0.364567
C	-1.9905082532	-1.3676728286	-0.5487350025	-0.469417
O	-2.2388083333	 0.9666060987	-0.0818956901	-0.299504
H	 1.2086638416	 1.3591965388	 1.5957055054	 0.125998
H	-0.3834742391	 2.0451300713	 1.2132561586	 0.153152
H	-0.2565458892	 0.6915110911	 2.3517621923	 0.128802
H	 0.4570506791	 0.5743220488	-0.632067371	 0.102977
H	 2.1361462708	-2.2903195827	 0.1578019931	 0.140716
H	 2.3507452375	-0.5966935325	-0.31716803	 0.12549
H	 1.9171946164	-1.138014266	 2.6614174702	 0.091558
H	-1.3736187	-1.7446999368	-1.3708003295	 0.141255
H	-1.8738985438	-2.082554032	 0.2713980132	 0.153421
H	-3.035370683	-1.3050232775	-0.8538502878	 0.137613
34.0987	39.561	51.7261	140.9831	163.4414	198.4895	236.9415	271.4856	300.8451	358.7856	416.9076	427.7321	524.8736	568.909	611.8742	715.4777	760.0627	876.9698	959.6937	964.3925	1033.2657	1069.3711	1095.3407	1112.6194	1128.4503	1165.735	1222.5773	1272.5614	1328.9016	1347.3724	1367.2944	1381.7778	1394.8416	1402.5144	1452.3239	1455.1756	1466.6203	1492.2014	1494.5748	1815.2034	1838.7678	2886.108	2947.4004	3003.5388	3047.8921	3048.698	3051.2716	3111.7557	3119.2214	3144.5676	3158.8459
CC(OCC=O)C(C)=O	C[C@@H](OCC=O)C(=O)C	
InChI=1S/C6H10O3/c1-5(8)6(2)9-4-3-7/h3,6H,4H2,1-2H3	InChI=1S/C6H10O3/c1-5(8)6(2)9-4-3-7/h3,6H,4H2,1-2H3/t6-/m1/s1
