17
gdb 60885	2.15987	1.49225	1.08029	2.3037	69.69	-0.2606	-0.0404	0.2202	1137.9897	0.13334	-458.9692	-458.96024	-458.959295	-459.003189	32.646	
O	-0.4503057772	 1.2251168539	 0.1190686527	-0.440225
C	-0.0016107394	-0.0953188958	-0.0200003178	-0.035397
C	 0.9119999776	-0.1953319742	-1.2342979893	 0.130419
O	 1.1734134767	 0.7855532357	-1.890758621	-0.267268
C	 0.7308182432	-0.5770623056	 1.239069784	 0.214926
C	 1.7341296451	 0.3553348833	 1.914618079	-0.299651
C	 0.4220244818	 0.10625273	 2.5686903684	-0.307955
C	 1.0208401854	-2.0240582383	 1.3089058272	 0.10543
O	 0.7701818574	-2.8178061091	 0.4309657498	-0.281756
H	-0.0438941696	 1.7102904099	-0.6189810184	 0.298462
H	-0.8467145823	-0.7810458787	-0.1955459435	 0.114398
H	 1.3138697629	-1.1947437689	-1.4715616822	 0.133973
H	 2.6301639742	-0.0853062671	 2.3377274894	 0.126927
H	 1.87586058	 1.3096103347	 1.4206600002	 0.142242
H	-0.3246601897	 0.8880970325	 2.518539836	 0.15882
H	 0.3890702375	-0.5224132762	 3.4521241382	 0.125828
H	 1.4993484963	-2.351386376	 2.2603383873	 0.080828
66.0047	111.3479	145.4048	182.0748	257.1478	267.975	326.8869	339.4127	416.426	459.1606	516.4142	611.4015	697.4296	788.1464	803.222	827.8423	882.9694	927.3515	942.3196	1026.9874	1051.1771	1062.7935	1071.4553	1101.948	1154.0847	1203.2578	1263.4901	1289.1048	1306.1611	1354.9234	1382.8073	1430.6192	1442.7763	1451.2504	1485.984	1797.5148	1804.8492	2871.4022	2978.7827	3008.6632	3140.2392	3144.4994	3229.6526	3247.9455	3658.1864
OC(C=O)C1(CC1)C=O	O[C@@H](C=O)C1(CC1)C=O	
InChI=1S/C6H8O3/c7-3-5(9)6(4-8)1-2-6/h3-5,9H,1-2H2	InChI=1S/C6H8O3/c7-3-5(9)6(4-8)1-2-6/h3-5,9H,1-2H2/t5-/m0/s1
