20
gdb 36305	3.15444	1.18219	1.10184	1.6224	83.86	-0.2231	0.049	0.2721	1200.008	0.17155	-365.954602	-365.946055	-365.94511	-365.988343	32.739	
C	-0.9943906244	 1.3257924551	 2.5841994308	-0.455725
C	-0.6020322952	 1.356269248	 1.4489958441	 0.332254
C	-0.1397288939	 1.408416999	 0.0641006885	-0.314275
N	 1.1853912415	 2.0190647068	-0.0270938182	-0.091142
C	 1.6445985427	 2.7469641665	-1.2047868701	-0.029345
C	 0.6524520093	 3.2765699648	-2.2326671373	-0.231456
C	-0.3413485115	 4.1913471712	-1.4647427025	-0.223627
C	 0.2727005047	 4.4429775267	-0.0601215346	-0.232086
C	 1.4177345362	 3.4513150143	 0.0989077576	-0.018804
H	-1.3372949422	 1.2902051864	 3.5883975078	 0.196645
H	-0.0484302614	 0.3858869796	-0.324565522	 0.135515
H	-0.9159229804	 1.8959348047	-0.5443240558	 0.117081
H	 2.6327359562	 2.4595580305	-1.5570809797	 0.086789
H	 1.2134066614	 3.8458038202	-2.9819985533	 0.10485
H	 0.1396624649	 2.4743868814	-2.7759698952	 0.103152
H	-0.5060464045	 5.1308595476	-1.9994228546	 0.101265
H	-1.3233455502	 3.7177848502	-1.3801368456	 0.111586
H	 0.6836113508	 5.4557879175	 0.0143288504	 0.102572
H	-0.46972282	 4.3459433886	 0.7388535676	 0.117111
H	 2.2284956859	 3.7177018306	 0.7726793119	 0.08764
40.2857	113.0368	150.0578	213.5991	250.6543	335.7012	395.2645	459.1812	513.7755	609.2171	654.0471	689.2486	719.8354	762.5956	788.1854	808.7699	876.4583	899.7924	920.2812	961.4293	983.001	1010.199	1035.0253	1052.4999	1066.5109	1122.856	1131.3383	1185.8523	1233.47	1249.4628	1259.8689	1297.0733	1309.6157	1322.5925	1330.1072	1354.4948	1367.0456	1421.0482	1483.1358	1489.4221	1494.1392	1522.599	2241.606	2996.5537	3032.3884	3035.7101	3041.6793	3058.5062	3065.0234	3075.5779	3100.0605	3126.6703	3138.1119	3507.0161
C#CCN1C2CCCC12	C#CCN1[C@H]2CCC[C@@H]12	
InChI=1S/C8H11N/c1-2-6-9-7-4-3-5-8(7)9/h1,7-8H,3-6H2	InChI=1S/C8H11N/c1-2-6-9-7-4-3-5-8(7)9/h1,7-8H,3-6H2/t7-,8+,9?
