23
gdb 94194	2.57657	1.24969	1.08752	1.5889	85.39	-0.2596	0.0841	0.3437	1260.6853	0.204892	-388.264081	-388.254548	-388.253604	-388.298271	36.6	
C	-0.0986259108	 1.5610362867	 0.0351341945	-0.419779
C	 0.0666290406	 0.0488634151	 0.0392126	 0.024212
C	 1.0260322143	-0.6309059723	-0.973233666	-0.241198
C	 1.40714997	-1.6543940003	 0.1273409448	-0.267388
C	 0.8363052642	-0.6799839386	 1.2082349598	 0.317382
C	 1.9267328661	 0.1726188039	 1.8563960596	-0.474842
C	-0.0818561283	-1.3243497609	 2.222330516	 0.029208
C	 0.2560906658	-1.6171207714	 3.6226532701	-0.193219
O	-0.5829624717	-0.5089733595	 3.2895489586	-0.243826
H	 0.864884718	 2.0773140606	 0.0927867072	 0.111704
H	-0.593191833	 1.8908491618	-0.8854979072	 0.112024
H	-0.709999942	 1.8951341556	 0.8802117639	 0.127475
H	-0.9235339873	-0.4154974743	-0.0474474126	 0.068602
H	 0.5901361488	-1.01910975	-1.8969729245	 0.09435
H	 1.8657730546	 0.018765433	-1.2391550371	 0.099342
H	 0.8163754991	-2.5730460612	 0.0539435293	 0.096054
H	 2.4608245998	-1.9284630574	 0.2263517326	 0.095372
H	 2.5131444763	 0.7071870501	 1.1040095242	 0.113586
H	 1.493667212	 0.9077766055	 2.5401726605	 0.134787
H	 2.6251056537	-0.4534379957	 2.4216446858	 0.110603
H	-0.8529237914	-1.9536241802	 1.7696815463	 0.081747
H	-0.2414808061	-2.442927785	 4.1304238058	 0.111203
H	 1.2341811273	-1.3561801055	 4.0205020083	 0.112601
57.3478	115.1438	183.1116	214.1095	241.645	244.2785	295.2673	335.6554	337.9704	402.7172	463.2848	504.9205	631.1376	693.9048	783.9953	849.6086	868.376	891.6988	897.7112	914.1882	954.0231	962.4893	972.4198	1044.4718	1063.6197	1097.5545	1118.3293	1154.6862	1157.8867	1175.364	1180.7545	1189.0208	1219.6505	1259.656	1267.4336	1272.2788	1297.1288	1338.0342	1379.5083	1403.7722	1410.0169	1435.8732	1482.0532	1488.0077	1493.4141	1502.5172	1505.3958	1512.479	1530.8097	3022.1472	3029.3056	3038.8633	3046.0481	3053.5478	3068.9385	3087.6015	3092.5675	3093.6422	3100.4364	3104.2618	3109.8431	3120.9981	3174.3102
CC1CCC1(C)C1CO1	C[C@H]1CC[C@]1(C)[C@H]1CO1	
InChI=1S/C8H14O/c1-6-3-4-8(6,2)7-5-9-7/h6-7H,3-5H2,1-2H3	InChI=1S/C8H14O/c1-6-3-4-8(6,2)7-5-9-7/h6-7H,3-5H2,1-2H3/t6-,7+,8-/m0/s1
