15
gdb 35829	2.06242	1.6791	1.01443	4.9543	80.48	-0.2457	-0.0396	0.2061	1139.5621	0.112729	-379.646935	-379.638495	-379.63755	-379.681473	30.502	
C	 0.0164696387	-1.2120665933	-0.1891996779	-0.411989
C	-0.0396690798	-0.0130526395	-0.0900753815	 0.253223
C	-0.0420924903	 1.3945184875	 0.009879798	 0.210521
C	-1.0790800159	 2.221802703	 0.1790885613	-0.200582
C	-0.6395308274	 3.6550449815	 0.2507655775	-0.205425
N	 0.8180463436	 3.6138025699	 0.0257590557	-0.295222
C	 1.2544892587	 2.2138863764	-0.0567916079	-0.279441
C	 2.1733258384	 1.8589773148	 1.0480163888	 0.314326
N	 2.8962291041	 1.5778112349	 1.9041090081	-0.328597
H	 0.0553249597	-2.2708185275	-0.2643829519	 0.203837
H	-2.1102553531	 1.9096246702	 0.2823142925	 0.120427
H	-1.1415124768	 4.2812207531	-0.4988419192	 0.118408
H	-0.8811251447	 4.092065197	 1.2315724601	 0.132019
H	 1.073816716	 4.1104013163	-0.8148719431	 0.237787
H	 1.7949450688	 2.0114811356	-0.9906127404	 0.130707
17.9466	105.4848	157.9004	193.0741	228.5679	357.4061	458.1005	482.1918	525.733	575.4815	610.4781	620.05	654.4099	679.5145	787.0575	852.7169	881.0713	941.7296	951.3477	1008.8472	1046.8555	1118.9367	1171.7835	1208.2954	1259.466	1281.6519	1333.5362	1373.7483	1454.3778	1508.1988	1686.5321	2228.8744	2358.2239	2990.6628	3022.8042	3026.2169	3224.8421	3501.5085	3596.855
C#CC1=CCNC1C#N	C#CC1=CCN[C@H]1C#N	
InChI=1S/C7H6N2/c1-2-6-3-4-9-7(6)5-8/h1,3,7,9H,4H2	InChI=1S/C7H6N2/c1-2-6-3-4-9-7(6)5-8/h1,3,7,9H,4H2/t7-/m0/s1
