18
gdb 6118	2.83347	1.77861	1.44756	3.0246	68.01	-0.2354	-0.0157	0.2197	945.9761	0.150656	-384.955875	-384.947065	-384.946121	-384.988777	32.936	
C	-0.5985419451	 1.3036824375	-0.0690194499	-0.423138
C	 0.0852039123	-0.0535353274	-0.0280360903	-0.114353
C	 1.4251815451	-0.2533134866	-0.7439070827	 0.392419
O	 1.9096966344	 0.2203848499	-1.732170708	-0.302921
C	 1.9573996164	-1.1527224487	 0.3794001756	-0.404641
C	 0.7673101528	-0.6282781401	 1.260694947	 0.378679
C	 1.1930168731	 0.4133020153	 2.2888941465	-0.447367
O	-0.0561754108	-1.6224217773	 1.8396875504	-0.477911
H	 0.0638045665	 2.1020313244	 0.2781795134	 0.121642
H	-0.8899463451	 1.5436867686	-1.0956808442	 0.136087
H	-1.5005192439	 1.3117469511	 0.5506193695	 0.125838
H	-0.5973593686	-0.8383859576	-0.3811390787	 0.117959
H	 1.8279919646	-2.2129954267	 0.1406556575	 0.132068
H	 2.9822198579	-0.9732085412	 0.7137721518	 0.119399
H	 1.8071962893	 1.1998556376	 1.8394566025	 0.127823
H	 0.318668489	 0.8787394988	 2.7526175813	 0.130433
H	 1.7929594066	-0.0558039595	 3.0785009618	 0.110355
H	 0.3825498355	-1.9573749582	 2.6293498665	 0.27763
71.7635	165.1624	182.0776	224.5782	270.8119	290.0065	322.663	356.4549	394.4115	407.1251	510.1311	578.8011	624.2121	740.7242	754.7795	831.7709	855.6063	945.471	980.2478	1023.5177	1042.5296	1089.0098	1111.8209	1158.4138	1170.9938	1188.1051	1224.7689	1278.8506	1341.4515	1372.3788	1403.3304	1411.372	1434.1626	1486.9567	1487.3295	1498.8159	1501.5995	1887.1025	3026.0732	3029.5254	3041.2954	3057.503	3091.8999	3111.3461	3114.1736	3116.7367	3120.7887	3801.804
CC1C(=O)CC1(C)O	C[C@H]1C(=O)C[C@]1(C)O	
InChI=1S/C6H10O2/c1-4-5(7)3-6(4,2)8/h4,8H,3H2,1-2H3	InChI=1S/C6H10O2/c1-4-5(7)3-6(4,2)8/h4,8H,3H2,1-2H3/t4-,6-/m0/s1
