16
gdb 13151	4.2465	1.36664	1.1316	2.8375	72.4	-0.2594	-0.056	0.2034	1051.7751	0.12925	-346.572028	-346.563966	-346.563022	-346.60531	28.973	
O	 0.4009594542	 0.0090432885	 0.6531317833	-0.291571
C	 0.1282671508	 1.1351963428	 0.2934778486	 0.224555
C	 1.1696845705	 2.0948030365	-0.0457692379	 0.258612
C	 2.0111979923	 2.9085210094	-0.3275491151	-0.418
C	-1.2847310806	 1.6347557624	 0.1162217286	-0.073277
C	-1.8335789273	 1.628196065	-1.3552694405	-0.224165
C	-3.1758095722	 1.0811690375	-0.7992607732	-0.209293
C	-2.4473444028	 0.6946479593	 0.5161565329	-0.241567
H	 2.7694920402	 3.6120315685	-0.5726780689	 0.213983
H	-1.3734813124	 2.6364802584	 0.5475210375	 0.093047
H	-1.8438398806	 2.5827214489	-1.884207906	 0.109151
H	-1.3125367892	 0.8891678744	-1.9700781514	 0.11747
H	-3.9045737411	 1.8815271751	-0.6444840368	 0.105372
H	-3.6562976589	 0.278526824	-1.3625193506	 0.104636
H	-2.1071986455	-0.3431000286	 0.521372673	 0.12865
H	-2.9536888674	 0.9059516877	 1.4600045664	 0.102396
42.2435	107.809	130.5388	201.2245	260.0013	301.5423	458.6638	549.5923	640.0778	651.5681	699.5817	716.3923	762.6896	792.9034	870.101	923.7514	938.0204	960.1619	1012.088	1026.8681	1106.6241	1147.4669	1208.2504	1227.9501	1247.2347	1258.1784	1277.5266	1278.9125	1363.4028	1479.9564	1486.724	1507.8054	1760.9257	2208.5196	3061.2565	3063.5946	3065.7526	3075.4732	3108.3449	3125.0037	3135.2808	3494.2528
O=C(C#C)C1CCC1	O=C(C#C)C1CCC1	
InChI=1S/C7H8O/c1-2-7(8)6-4-3-5-6/h1,6H,3-5H2	InChI=1S/C7H8O/c1-2-7(8)6-4-3-5-6/h1,6H,3-5H2
