19
gdb 90005	2.82783	1.40555	1.1192	1.0864	76.12	-0.2531	-0.032	0.2211	1141.3502	0.157961	-423.019822	-423.011294	-423.01035	-423.053041	32.311	
C	-0.4156082297	 1.4288132623	 0.0951745877	-0.407479
C	-0.1000254075	-0.0634589656	 0.0501140295	 0.027486
C	 1.0470103666	-0.4464894342	-0.9349076441	-0.304456
C	 2.0163851355	-0.5073777244	 0.2687586389	 0.340966
C	 0.7995659989	-0.5639877078	 1.2218158778	-0.304461
O	 3.039341756	-1.5231608733	 0.330780157	-0.325667
C	 4.1183679118	-0.5815813339	 0.5058412053	-0.19372
C	 3.0959740574	 0.5592200618	 0.4506851159	 0.282676
O	 3.1206412958	 1.7515512305	 0.5185678641	-0.283137
H	 0.4951260999	 2.022024827	 0.2321342642	 0.145084
H	-0.8943577427	 1.7552641144	-0.8343760729	 0.113286
H	-1.0961680377	 1.6595770466	 0.9218653122	 0.113285
H	-1.0194358949	-0.6378343112	-0.0866495122	 0.074128
H	 0.9257515074	-1.4479516782	-1.3562849194	 0.118849
H	 1.2871943616	 0.2575984504	-1.7360292217	 0.108853
H	 0.8439495527	 0.047116064	 2.1272472207	 0.108856
H	 0.598607694	-1.6032935138	 1.495036536	 0.118852
H	 4.6422284999	-0.6988999442	 1.4625307984	 0.133301
H	 4.846111115	-0.6020919403	-0.3147781273	 0.133297
92.7633	100.7743	154.5185	234.1489	272.1613	299.3364	359.1243	382.4368	481.934	536.7364	542.7239	703.0771	781.7993	815.6518	824.5311	892.9492	912.7859	918.0092	943.7821	1008.8165	1037.0424	1043.5159	1054.7218	1091.6094	1135.0257	1138.7397	1160.3768	1210.9033	1214.7691	1268.0489	1272.127	1288.3697	1302.0899	1365.9965	1419.9292	1456.065	1477.4564	1483.8695	1502.9991	1507.9125	1911.073	3020.9045	3027.495	3055.8226	3058.0247	3069.0582	3070.1718	3095.5502	3104.7847	3116.4667	3117.9232
CC1CC2(C1)OCC2=O	C[C@H]1C[C@@]2(C1)OCC2=O	
InChI=1S/C7H10O2/c1-5-2-7(3-5)6(8)4-9-7/h5H,2-4H2,1H3	InChI=1S/C7H10O2/c1-5-2-7(3-5)6(8)4-9-7/h5H,2-4H2,1H3/t5-,7-
