16
gdb 19058	3.55232	2.36065	2.18676	2.4962	61.86	-0.2367	0.0755	0.3122	707.6484	0.132807	-383.701127	-383.69524	-383.694296	-383.730821	24.576	
O	 0.0647674606	 1.4275329178	-0.0384694063	-0.443757
C	 0.0397357614	 0.0116823551	-0.0024519099	 0.129541
C	 0.7046313353	-0.574189436	 1.280524524	-0.246612
C	-0.4967938979	-0.8968202519	 2.153774582	 0.08353
O	-1.3042319071	 0.3362543204	 2.2855219146	-0.325128
C	-2.1848357444	-0.1655926096	 1.2703317971	 0.08766
C	-1.5549780967	-1.5159189469	 1.2123508943	-0.148965
C	-1.3861282111	-0.5590921889	 0.0440000999	-0.109425
H	-0.3656956037	 1.7145660779	 0.7773939353	 0.285962
H	 0.5630546437	-0.3117081125	-0.9059267823	 0.083968
H	 1.2619089287	-1.4928825781	 1.0626120379	 0.101693
H	 1.3882371237	 0.1516038866	 1.7286974161	 0.113754
H	-0.3145117766	-1.3511180431	 3.128333086	 0.085489
H	-3.2128068572	 0.1756675613	 1.2754173967	 0.10837
H	-1.9561147782	-2.5191004655	 1.1985414428	 0.100741
H	-1.9414212407	-0.7293430066	-0.8710556882	 0.093181
157.6639	302.1498	418.244	461.2842	512.298	553.1179	668.7252	741.9614	792.8692	796.7876	828.1002	842.8775	858.0455	905.7993	963.6633	977.5151	991.8759	1019.1512	1025.8248	1052.5889	1068.806	1077.594	1108.5391	1163.4419	1225.5246	1238.2055	1257.7107	1284.9445	1308.9952	1327.9321	1343.3877	1398.9833	1450.907	1471.3882	3040.9903	3078.243	3106.4384	3111.6367	3183.5923	3191.778	3217.2809	3768.7724
OC1CC2OC3C2C13	O[C@H]1C[C@H]2O[C@@H]3[C@H]2[C@H]13	
InChI=1S/C6H8O2/c7-2-1-3-5-4(2)6(5)8-3/h2-7H,1H2	InChI=1S/C6H8O2/c7-2-1-3-5-4(2)6(5)8-3/h2-7H,1H2/t2-,3+,4-,5+,6-/m0/s1
