17
gdb 113530	3.56248	0.99114	0.87152	3.1303	70.76	-0.2484	-0.044	0.2045	1329.0707	0.133753	-458.939488	-458.930642	-458.929697	-458.973846	31.949	
O	 0.0018081972	 1.3664090976	-0.528829384	-0.412128
C	 0.0164782129	 0.1732096248	 0.2335153683	-0.078748
C	-1.346776364	-0.4699065788	 0.2702275589	-0.064242
O	-1.729554509	-1.1700568568	-0.9229748759	-0.284833
C	-1.5291391836	-1.9340333922	 0.2494718865	 0.324227
C	-0.5296577894	-3.09059113	 0.4446847761	-0.340873
C	-1.5729587902	-3.8163638997	 1.3519612451	-0.350172
C	-2.6075113931	-2.7288346092	 0.9817142761	 0.334127
O	-3.7785811678	-2.5790924103	 1.1639898904	-0.291647
H	-0.2827118897	 1.1307014926	-1.419106055	 0.295061
H	 0.7525418956	-0.5479682945	-0.150783279	 0.096782
H	 0.3190060966	 0.4602100755	 1.2466087746	 0.118458
H	-2.1468585186	 0.1350460226	 0.6982665511	 0.12186
H	-0.3270338235	-3.6202686726	-0.4885193088	 0.130861
H	 0.4167809088	-2.8308828105	 0.9207989146	 0.120378
H	-1.8573180262	-4.8282962143	 1.0544849213	 0.141575
H	-1.3307017261	-3.8213302342	 2.4183611096	 0.139315
64.017	82.8081	130.0555	136.494	240.972	276.9491	385.8969	407.0745	461.623	503.6434	573.7178	623.809	724.6338	758.0127	822.4472	856.9597	926.3803	977.7464	1001.9614	1033.777	1061.0644	1084.6632	1097.4983	1111.7814	1155.3185	1211.0949	1218.3837	1222.88	1245.4779	1322.8879	1375.3579	1419.9684	1439.1235	1474.3641	1488.0734	1491.1483	1896.048	3000.0466	3069.925	3074.4731	3081.3026	3118.4541	3120.5969	3138.1371	3803.7402
OCC1OC11CCC1=O	OC[C@H]1O[C@]21CCC2=O	
InChI=1S/C6H8O3/c7-3-5-6(9-5)2-1-4(6)8/h5,7H,1-3H2	InChI=1S/C6H8O3/c7-3-5-6(9-5)2-1-4(6)8/h5,7H,1-3H2/t5-,6-/m1/s1
