22
gdb 107793	2.52477	1.54556	1.25264	1.8328	84.56	-0.229	0.0731	0.3021	1129.0795	0.194308	-367.156688	-367.147992	-367.147048	-367.189728	34.156	
C	-0.1628567716	 1.5427763921	 0.0550802584	-0.383687
C	-0.0300486716	 0.0141600581	 0.0188707501	-0.31229
C	 0.685944102	-0.5057971295	-1.2045524607	 0.300584
C	 0.1040394805	-0.3173775435	-2.6378849935	-0.293481
C	 0.8874748813	-1.5742270293	-3.0044151142	-0.041558
C	 0.9418796533	-2.0208563207	-1.5946029359	-0.11468
N	 2.2030775979	-1.6082239314	-2.2637612838	-0.15938
C	 2.2171789698	-0.3552555435	-1.4335137499	 0.057781
C	 2.865612595	 0.8673039656	-2.0605108914	-0.426166
H	 0.8169992972	 2.0303329561	 0.0684747908	 0.122417
H	-0.7064210778	 1.9147099411	-0.8196521683	 0.121251
H	-0.7065454112	 1.8663135772	 0.947729372	 0.11464
H	 0.4989837711	-0.3301255246	 0.9176177445	 0.096957
H	-1.0301927633	-0.4369876383	 0.0646177606	 0.09754
H	-0.9702222655	-0.5249660836	-2.6504313108	 0.10167
H	 0.2985506038	 0.6199101809	-3.1681217785	 0.093457
H	 0.8422391821	-2.1660710144	-3.9090667021	 0.094908
H	 0.7912113	-2.9725867035	-1.1013965973	 0.091685
H	 2.7444440182	-0.6152139238	-0.5072818446	 0.074077
H	 2.3812678067	 1.1677525735	-2.992944247	 0.120505
H	 2.8449143088	 1.7197280962	-1.3732938685	 0.116394
H	 3.9133359633	 0.6455699453	-2.2895074097	 0.127374
82.787	147.4467	187.9337	209.6426	243.5245	288.4963	330.0432	356.8483	488.58	560.2998	629.0363	702.1958	730.3263	776.1173	801.2201	840.0814	857.6142	910.6352	922.2259	952.5256	974.3551	984.1096	1013.8324	1032.8527	1069.2088	1100.5356	1106.6855	1118.4615	1143.8403	1165.2517	1201.6691	1213.8557	1216.2081	1262.3164	1297.1254	1318.9944	1348.9846	1375.3938	1395.441	1407.1305	1415.0946	1483.315	1484.7571	1491.9272	1500.3278	1506.9656	1512.1988	3011.3582	3027.6463	3036.6778	3038.1262	3041.788	3046.3646	3094.5009	3101.4557	3105.5328	3109.1084	3120.9691	3191.5972	3207.9446
CCC12CC3C1N3C2C	CC[C@]12C[C@@H]3[C@H]1N3[C@H]2C	
InChI=1S/C8H13N/c1-3-8-4-6-7(8)9(6)5(8)2/h5-7H,3-4H2,1-2H3	InChI=1S/C8H13N/c1-3-8-4-6-7(8)9(6)5(8)2/h5-7H,3-4H2,1-2H3/t5-,6+,7+,8+,9?/m0/s1
