16
gdb 65696	3.1026	0.96821	0.92019	2.1115	71.25	-0.2918	-0.0169	0.275	1298.7578	0.121909	-437.908952	-437.899877	-437.898933	-437.94313	32.248	
C	 0.0237463649	 1.5573380985	-0.3768719497	-0.456503
C	-0.0122820875	 0.0874084286	-0.0407709427	 0.398865
C	 1.2072954335	-0.7607204388	-0.1439564132	-0.321925
C	 0.62738075	-0.4637066321	 1.2376212921	-0.247284
C	 1.3131477841	 0.4130351487	 2.142258963	 0.296311
N	 1.8606955405	 1.1340916127	 2.8627196405	-0.332681
O	-1.1936237159	-0.5743056506	-0.4559012788	-0.225138
C	-2.3138137789	-0.3777852118	 0.285928378	 0.156786
O	-3.3663985855	-0.8426870943	-0.0231854173	-0.257744
H	 0.9727014925	 2.0027051047	-0.070907202	 0.152593
H	-0.0962714094	 1.6893478957	-1.4560389415	 0.147377
H	-0.7805983108	 2.1010851666	 0.1282543183	 0.138692
H	 1.0826739063	-1.7748574389	-0.5031082905	 0.152667
H	 2.1392439688	-0.2778130539	-0.4113388011	 0.148988
H	 0.1021785558	-1.2843066816	 1.7143070162	 0.150409
H	-2.1315661782	 0.2326425865	 1.1887636788	 0.098586
85.8509	106.6784	137.5081	167.7078	200.6435	237.9853	324.7149	341.8395	395.3793	478.105	525.5939	547.5301	625.66	756.9588	809.5381	914.5771	932.5568	948.6261	1014.6259	1048.5518	1080.9504	1088.5536	1112.8354	1124.6169	1163.8715	1240.4557	1323.1162	1385.1748	1421.4601	1426.863	1473.6247	1483.543	1497.6401	1873.8205	2353.627	2979.3163	3047.3864	3115.591	3137.8563	3154.3946	3175.4155	3250.9821
CC1(CC1C#N)OC=O	C[C@]1(C[C@H]1C#N)OC=O	
InChI=1S/C6H7NO2/c1-6(9-4-8)2-5(6)3-7/h4-5H,2H2,1H3	InChI=1S/C6H7NO2/c1-6(9-4-8)2-5(6)3-7/h4-5H,2H2,1H3/t5-,6+/m0/s1
