19
gdb 105891	2.18176	1.41336	1.3206	2.2106	71.11	-0.2401	0.054	0.2941	1100.8128	0.158656	-460.118714	-460.109679	-460.108735	-460.152407	34.405	
O	 0.039709961	 1.4430960314	 0.1175041658	-0.410963
C	 0.0268518798	 0.030399755	-0.0361008164	-0.177089
C	-1.3635985217	-0.5338756923	-0.0284181887	 0.246675
C	-2.0553500912	-1.0520610872	 1.2049316548	 0.07657
O	-3.2970122272	-0.6078784742	 1.660000301	-0.441583
C	-1.87884397	-2.0020390206	 0.055818744	-0.165127
C	-2.9432446061	-1.7134520164	-1.0060241264	-0.274436
C	-2.4068405671	-0.2468257775	-1.1042715398	 0.033903
O	-3.2838211215	 0.8183858039	-0.7398260469	-0.437646
H	-0.5132979305	 1.6566061013	 0.8766947162	 0.286752
H	 0.5161689097	-0.1602376109	-0.9990704302	 0.103873
H	 0.6322862892	-0.4694845833	 0.7382437784	 0.085346
H	-1.3748171444	-1.2398857154	 2.0339267012	 0.097382
H	-3.6022969497	 0.0705042459	 1.0403052447	 0.294509
H	-1.2953644831	-2.9116799829	 0.1342570657	 0.091601
H	-2.8129255734	-2.2716992704	-1.9348848094	 0.104193
H	-3.9761987438	-1.812974994	-0.6599970776	 0.106901
H	-1.9460999669	-0.0407682491	-2.0775407874	 0.087497
H	-3.9677748331	 0.8992992867	-1.4130800491	 0.29164
61.4018	119.4081	192.222	220.8017	266.2245	294.0541	330.4738	378.5569	386.7284	428.8356	513.5321	530.3837	602.9005	706.735	777.1933	817.4396	840.4527	928.5443	942.5317	952.9194	1016.6712	1038.2275	1045.8795	1078.6212	1103.1479	1124.8133	1161.0489	1189.9356	1200.1131	1243.2157	1259.5912	1269.6534	1317.3531	1343.1732	1361.7725	1392.4081	1425.077	1443.1812	1469.4648	1491.4171	1508.3688	2966.2081	3032.3703	3047.8237	3058.7563	3119.4576	3125.3404	3184.2855	3711.6471	3809.698	3811.9673
OCC12C(O)C1CC2O	OC[C@]12[C@@H](O)[C@H]1C[C@H]2O	
InChI=1S/C6H10O3/c7-2-6-3(5(6)9)1-4(6)8/h3-5,7-9H,1-2H2	InChI=1S/C6H10O3/c7-2-6-3(5(6)9)1-4(6)8/h3-5,7-9H,1-2H2/t3-,4-,5+,6+/m1/s1
