22
gdb 117789	2.21901	1.05327	0.89813	4.7158	83.95	-0.2269	0.0359	0.2628	1455.3206	0.192976	-400.51985	-400.508805	-400.507861	-400.555913	39.591	
C	 0.035952629	 1.4061508261	 0.2554700053	-0.318085
N	-0.003208861	-0.0070768124	-0.1117132984	-0.298645
C	-1.3484525459	-0.568327397	-0.1164948881	-0.159055
C	-1.2948935633	-2.1208462102	-0.0882404966	 0.078911
C	-0.6424585924	-2.6725149366	-1.3824579369	-0.429684
N	-0.6273176456	-2.4958987969	 1.1571676139	-0.29488
C	-0.3535843191	-3.9097903367	 1.3695052129	-0.332788
C	-2.691502232	-2.60798577	-0.036863188	 0.305595
N	-3.782702245	-2.9879802121	-0.0225908024	-0.350665
H	 1.0662383015	 1.7679815929	 0.1943066232	 0.123401
H	-0.5949310422	 2.0528492871	-0.3774901455	 0.103879
H	-0.3000274015	 1.5226056634	 1.2909013476	 0.133939
H	 0.4170963812	-0.1202559358	-1.0276524406	 0.224274
H	-1.8526408626	-0.2418212336	 0.7976402923	 0.130756
H	-1.9634547053	-0.2409384301	-0.9706572495	 0.098861
H	 0.4069469142	-2.3663073972	-1.4257381864	 0.120926
H	-0.6776399507	-3.7633996267	-1.4080231052	 0.14025
H	-1.1604421227	-2.3006750813	-2.2716566166	 0.128829
H	 0.2133899765	-1.9300804057	 1.2175384801	 0.230147
H	 0.0912247055	-4.0332400289	 2.3610026147	 0.124884
H	-1.293831562	-4.4713417696	 1.3588693381	 0.141193
H	 0.3256793534	-4.3725408086	 0.6349287562	 0.097957
71.5463	101.6249	116.5994	132.8399	175.7305	213.6473	232.3277	243.6943	268.1645	315.6143	332.1715	366.5647	412.1691	481.13	587.2745	611.4641	712.4353	760.1209	801.7905	914.1218	927.2965	953.5007	985.7961	1067.6095	1098.5328	1128.1255	1137.5725	1159.0204	1173.9275	1213.2392	1221.3346	1250.0764	1320.8958	1380.5218	1402.3368	1457.4697	1458.4943	1469.9395	1475.7748	1491.6915	1492.7779	1494.085	1504.7045	1507.6621	1519.4613	1521.1443	2355.8086	2963.3031	2967.5723	2971.2277	3043.932	3066.4022	3067.928	3088.5763	3108.2785	3111.2931	3117.1677	3131.548	3523.5085	3526.0477
CNCC(C)(NC)C#N	CNC[C@@](C)(NC)C#N	
InChI=1S/C6H13N3/c1-6(4-7,9-3)5-8-2/h8-9H,5H2,1-3H3	InChI=1S/C6H13N3/c1-6(4-7,9-3)5-8-2/h8-9H,5H2,1-3H3/t6-/m0/s1
