20
gdb 124629	4.21632	0.88795	0.84193	2.6109	82.2	-0.186	0.0306	0.2166	1448.7181	0.172227	-399.344186	-399.33497	-399.334026	-399.378919	34.452	
C	-0.2377818987	 1.5004832474	 0.0134937946	-0.385233
C	 0.0321047369	-0.0122873881	 0.0354753337	 0.059492
C	 0.8137596678	-0.4311214109	 1.2817043947	-0.396717
N	-1.1871873097	-0.825523503	-0.0437970803	-0.405404
C	-1.9776560939	-0.7536561423	-1.1961990509	 0.250008
C	-3.3512298741	-0.9033547098	-1.2919025385	-0.154016
N	-3.6490570686	-0.8468551094	-2.6208358021	-0.175316
N	-2.5768773314	-0.6575014966	-3.3964162932	-0.226775
C	-1.5544864775	-0.6020050395	-2.5424626906	-0.064433
H	 0.6988075034	 2.0677789991	-0.0034359498	 0.111417
H	-0.8227299942	 1.779421069	-0.8671809789	 0.129493
H	-0.7988937912	 1.8043545822	 0.9055034325	 0.104772
H	 0.6353994179	-0.2702791823	-0.8435820716	 0.093258
H	 0.2419901506	-0.2079935639	 2.1914229157	 0.107872
H	 1.0217731214	-1.504055361	 1.2661846766	 0.124879
H	 1.7610783598	 0.1115926525	 1.3481429973	 0.116469
H	-1.7402162239	-0.7387700068	 0.8001835123	 0.218275
H	-4.1099179087	-1.0508783892	-0.540131405	 0.118127
H	-4.5554040547	-0.9222558822	-3.0483703928	 0.271416
H	-0.5537555912	-0.4566901651	-2.9196005536	 0.102415
34.8044	76.0228	136.3248	229.0561	261.7114	303.2994	323.7378	366.6008	435.7619	452.1306	468.4144	616.1998	651.1939	689.8489	735.5455	761.7356	848.401	848.5809	927.1402	945.6053	949.081	967.2483	1026.0657	1074.4518	1141.6234	1164.2467	1176.3595	1194.9372	1271.6813	1308.5337	1352.0491	1358.2073	1393.4216	1397.8966	1405.4824	1417.4893	1483.7524	1486.6617	1487.8652	1504.0217	1509.3575	1525.9038	1630.7629	3025.0019	3026.2762	3035.5645	3091.3968	3100.352	3115.4028	3124.1572	3250.8193	3259.6975	3547.5099	3683.4448
CC(C)NC1=CNN=C1	CC(C)Nc1c[nH]nc1	
InChI=1S/C6H11N3/c1-5(2)9-6-3-7-8-4-6/h3-5,9H,1-2H3,(H,7,8)	InChI=1S/C6H11N3/c1-5(2)9-6-3-7-8-4-6/h3-5,9H,1-2H3,(H,7,8)
