18
gdb 107118	3.82953	1.1213	1.08746	3.2413	71.99	-0.2217	0.0568	0.2785	1186.4114	0.145855	-438.981119	-438.972689	-438.971745	-439.013891	32.572	
C	-0.1168874606	 1.5206460839	-0.0111224919	-0.510872
C	 0.0980744838	 0.0414030619	 0.0047374134	 0.313372
N	-0.80025146	-0.9221001519	 0.6790201713	-0.347793
C	 0.6436831536	-0.8768363599	 1.0333950624	-0.236292
C	 1.4371287149	-1.6495275817	-0.0815185503	 0.417696
C	 2.7463068554	-2.3719226458	 0.0246369598	-0.183437
O	 3.2403648847	-2.7214217303	-1.2490509265	-0.414197
O	 0.5043603516	-2.1456436375	-1.053588818	-0.271062
C	 0.8870135152	-0.7620099934	-1.1026222573	-0.103918
H	 0.7955081732	 2.0482426112	-0.310858209	 0.129938
H	-0.9092363713	 1.7985018654	-0.7161387178	 0.134845
H	-0.4032192923	 1.8869386106	 0.9805750424	 0.121965
H	-1.2869590473	-0.3974978759	 1.4080833029	 0.227269
H	 0.9850193385	-0.6778462531	 2.041242186	 0.098059
H	 3.4924668389	-1.7276595046	 0.5043154192	 0.115666
H	 2.6157912138	-3.2569634198	 0.671489664	 0.10051
H	 2.4807866612	-3.0613843296	-1.7396854906	 0.294172
H	 1.3014885966	-0.3776970797	-2.0271691698	 0.114077
98.0747	167.7722	171.0498	215.5485	287.1343	317.8939	355.7161	438.4365	445.1763	506.9774	563.3473	654.6642	704.5348	789.5707	795.9345	835.2283	893.3344	911.8715	926.7486	970.6086	1003.2298	1037.9038	1057.4579	1078.4216	1097.3449	1106.1814	1133.9444	1200.9346	1228.4736	1265.2436	1322.805	1366.3875	1406.517	1431.1404	1446.3977	1471.4933	1482.5174	1498.1845	1506.5419	2956.5897	3023.08	3057.6389	3085.0273	3096.2863	3190.4214	3197.8788	3453.1366	3772.2779
CC12NC1C1(CO)OC21	C[C@]12N[C@H]1[C@@]1(CO)O[C@@H]21	
InChI=1S/C6H9NO2/c1-5-3(7-5)6(2-8)4(5)9-6/h3-4,7-8H,2H2,1H3	InChI=1S/C6H9NO2/c1-5-3(7-5)6(2-8)4(5)9-6/h3-4,7-8H,2H2,1H3/t3-,4+,5+,6-/m1/s1
