16
gdb 76117	3.27827	1.32463	1.13139	5.3192	69.32	-0.2705	0.0188	0.2893	1088.9322	0.123004	-437.863655	-437.8552	-437.854255	-437.896738	31.257	
C	-0.0913240742	 1.523903325	 0.0622973317	-0.513242
C	 0.1618045828	 0.0565682726	-0.0291409867	 0.371805
O	-0.7780481194	-0.8489039713	 0.5858367107	-0.283153
C	 0.6013748925	-0.9567754493	 0.9467617785	-0.044123
C	 1.2787465642	-1.8205985379	-0.1306253574	-0.265478
C	 0.8065562727	-3.1857101956	-0.27054751	 0.302183
N	 0.4114859946	-4.2648160967	-0.3955906271	-0.326416
C	 0.7468287487	-0.7537942594	-1.2058355003	 0.081677
O	-0.1391282244	-1.1779253735	-2.1843523805	-0.414322
H	 0.8155470945	 2.0879482448	-0.1770281478	 0.1332
H	-0.8707189368	 1.8215636141	-0.6470242118	 0.147281
H	-0.4204183163	 1.7946830345	 1.0686380161	 0.143091
H	 0.857729886	-0.874579194	 1.9960390485	 0.125517
H	 2.3695257894	-1.7998557399	-0.0650732692	 0.12905
H	 1.5837827221	-0.2621894005	-1.7064640731	 0.110344
H	-0.9089261363	-1.547718133	-1.7308818916	 0.302587
85.7247	130.0983	181.7616	198.3483	227.2845	291.1556	372.1136	423.1651	476.7203	533.2627	576.8776	651.9888	717.2457	768.804	788.0801	862.2624	887.4482	919.4361	1014.4052	1030.6164	1062.2149	1098.8628	1114.4788	1160.4441	1199.2733	1247.3108	1266.6669	1305.5217	1328.8991	1403.771	1432.4204	1472.3771	1484.9402	1494.8075	2357.8164	3041.1492	3085.6541	3101.0572	3106.7258	3126.972	3198.5646	3765.8614
CC12OC1C(C#N)C2O	C[C@]12O[C@H]1[C@@H](C#N)[C@H]2O	
InChI=1S/C6H7NO2/c1-6-4(8)3(2-7)5(6)9-6/h3-5,8H,1H3	InChI=1S/C6H7NO2/c1-6-4(8)3(2-7)5(6)9-6/h3-5,8H,1H3/t3-,4+,5-,6+/m0/s1
