16
gdb 15627	3.31646	1.69602	1.14585	2.1614	68.22	-0.2366	-0.0369	0.1997	1007.2075	0.130416	-383.77638	-383.768467	-383.767523	-383.809197	28.3	
O	 0.0223020707	 1.4291638696	 0.0069621696	-0.422821
C	 0.0062471828	 0.0126835533	 0.0019658668	-0.177499
C	-1.4065784633	-0.4656272734	 0.012328891	 0.196949
C	-2.5348125995	 0.2555742835	 0.0237568896	-0.141308
C	-3.7842022312	-0.5901332382	 0.0316645626	-0.268906
C	-3.2594334364	-2.0396038792	 0.0232371727	-0.328284
C	-1.7295299147	-1.9123248605	 0.0108700553	 0.325937
O	-0.9308398489	-2.823134652	 0.0016616679	-0.337409
H	 0.9393840068	 1.7169375938	 0.0002489127	 0.292314
H	 0.5150708097	-0.4016233405	-0.8838380324	 0.113014
H	 0.5301543973	-0.4080780467	 0.8758406331	 0.113032
H	-2.5645596412	 1.3387619229	 0.027159056	 0.126635
H	-4.4000884245	-0.3707732984	 0.9124295234	 0.120451
H	-4.4144758239	-0.3658244064	-0.8376045426	 0.120451
H	-3.5678096328	-2.6139234685	 0.901761276	 0.133725
H	-3.5824428407	-2.6090629892	-0.8531862219	 0.133718
69.5803	99.7102	173.4036	215.8195	247.7363	335.5566	342.8907	551.4962	594.685	599.2567	712.8971	806.1663	811.4223	878.018	927.6687	995.3748	1027.1452	1034.8941	1045.9205	1108.0396	1151.7247	1197.4908	1229.5032	1235.0547	1242.4743	1272.548	1320.9076	1345.0013	1451.4256	1467.3831	1485.1545	1502.1233	1703.8714	1801.4448	2969.1043	2985.969	3029.8655	3053.5683	3066.1745	3105.8153	3212.3078	3839.5762
OCC1=CCCC1=O	OCC1=CCCC1=O	
InChI=1S/C6H8O2/c7-4-5-2-1-3-6(5)8/h2,7H,1,3-4H2	InChI=1S/C6H8O2/c7-4-5-2-1-3-6(5)8/h2,7H,1,3-4H2
