15
gdb 123948	3.59001	1.62341	1.15293	3.9273	67.44	-0.2178	0.0062	0.224	991.2621	0.116081	-453.92807	-453.921505	-453.920561	-453.958974	26.078	
C	-0.0002281563	 1.4388264629	-0.0100431839	-0.187462
C	 1.4239226806	 2.0027823455	 0.0204925213	-0.082621
O	 2.1624867534	 1.5591656493	 1.1670518023	-0.282917
C	 2.0078260847	 0.2270542725	 1.3798889174	 0.183681
C	 2.695146308	-0.6466686975	 2.153018852	-0.047845
O	 2.1216078062	-1.8667790399	 2.0739891938	-0.183145
N	 1.014594156	-1.8114529914	 1.2118860838	-0.261382
C	 0.9651024357	-0.5642124497	 0.8099307109	 0.372281
N	 0.0670218432	-0.0201543067	-0.0850882915	-0.399944
H	-0.5471720888	 1.7945176005	 0.8768792917	 0.116498
H	-0.5096416414	 1.8202363591	-0.9000844756	 0.121634
H	 1.9555454473	 1.7060011611	-0.893000942	 0.122861
H	 1.4017027138	 3.0921823951	 0.0841996779	 0.124765
H	 3.5569930481	-0.556689736	 2.793173129	 0.149551
H	-0.8133561605	-0.5086855647	-0.1657434771	 0.254047
130.7634	236.1334	341.5659	391.1719	429.5784	449.8797	541.1357	567.3875	579.6255	707.5118	736.4498	765.1283	796.311	886.3456	916.2505	924.0252	972.006	1053.6447	1108.2018	1111.2698	1135.7077	1240.0287	1254.1413	1280.1901	1305.8946	1363.8267	1405.7367	1435.7806	1487.2855	1494.821	1501.7291	1603.4162	1702.4563	2985.8579	3027.7931	3084.494	3121.2629	3278.1406	3600.7218
C1COC2=CON=C2N1	C1COc2conc2N1	
InChI=1S/C5H6N2O2/c1-2-8-4-3-9-7-5(4)6-1/h3H,1-2H2,(H,6,7)	InChI=1S/C5H6N2O2/c1-2-8-4-3-9-7-5(4)6-1/h3H,1-2H2,(H,6,7)
