18
gdb 88033	2.344	1.36957	1.07334	3.2803	76.97	-0.2552	0.0059	0.2611	1183.6154	0.148056	-398.090516	-398.081778	-398.080834	-398.124143	32.281	
C	-0.0947054043	 1.5134818186	-0.1052173086	-0.396781
C	 0.0340215467	 0.0148865103	-0.0002661819	-0.064283
N	 1.4008637177	-0.5497996344	-0.1120504556	-0.385035
C	 0.689508528	-0.6516778961	 1.143940316	 0.326742
C	 1.1441828944	-0.1029049897	 2.4969300024	-0.236705
N	 0.3407193695	-1.1726047135	 3.1527532205	-0.311537
C	 0.2241298474	-1.9274222599	 1.8827555369	-0.218727
C	-1.1072591947	-2.4534421678	 1.5773080734	 0.311731
N	-2.1489442896	-2.8663402773	 1.2930923142	-0.332611
H	 0.7529675917	 2.0099644747	 0.3744055209	 0.127364
H	-0.1176671147	 1.8260130508	-1.1541156542	 0.127606
H	-1.0186122118	 1.8570494389	 0.3716172019	 0.128198
H	-0.7685537987	-0.5544140845	-0.4676809558	 0.110462
H	 1.3942948509	-1.435645194	-0.6126758882	 0.236446
H	 2.2298441751	-0.1897795671	 2.6340681516	 0.109841
H	 0.8270288273	 0.9101226111	 2.7617238035	 0.121469
H	 0.8098806659	-1.6787286157	 3.8948648521	 0.232681
H	 0.9532291094	-2.7437359346	 1.7672339107	 0.113138
86.4819	104.0526	163.6967	186.8256	202.1203	268.0744	359.596	431.1039	455.4196	516.8464	567.3667	577.8891	688.3268	801.7157	846.2696	868.1918	938.3672	978.5629	996.1817	1019.1741	1046.2226	1057.5583	1075.2482	1111.5351	1127.7771	1134.5193	1207.3338	1226.5695	1261.7465	1307.3579	1343.1897	1371.8995	1390.4952	1413.8818	1476.5114	1489.6869	1511.2251	1516.6617	2353.5055	2986.7557	3019.1131	3038.7224	3080.3779	3104.5976	3112.5082	3129.6456	3493.5306	3544.6884
CC1NC11CNC1C#N	C[C@H]1N[C@]21CN[C@H]2C#N	
InChI=1S/C6H9N3/c1-4-6(9-4)3-8-5(6)2-7/h4-5,8-9H,3H2,1H3	InChI=1S/C6H9N3/c1-4-6(9-4)3-8-5(6)2-7/h4-5,8-9H,3H2,1H3/t4-,5+,6+/m1/s1
