15
gdb 34782	2.33027	1.61539	1.12519	5.3558	77.83	-0.2617	-0.0005	0.2613	1072.5438	0.112813	-379.574031	-379.566386	-379.565442	-379.606249	29.34	
C	 0.0551918804	-1.1478426234	-0.0067701781	-0.338515
C	 0.0222085344	 0.0535121918	 0.0067174603	 0.072887
C	-0.0336739254	 1.4829777435	 0.0316291446	 0.257478
C	-0.6885201472	 2.4191181135	 1.0974517976	-0.278457
C	 0.0153622541	 3.322882999	 0.0547855706	-0.04503
N	 1.2053538393	 2.3813634862	 0.0123291955	-0.33362
C	-0.6219841841	 2.4471756943	-1.0646623559	-0.17889
C	-0.0180624208	 2.4501319472	-2.3847002367	 0.29267
N	 0.3971675644	 2.4604459737	-3.4630373152	-0.326088
H	 0.0909477058	-2.2095109769	-0.0275445332	 0.195138
H	-1.7804151461	 2.4378602225	 1.1642407227	 0.111108
H	-0.2204044791	 2.3848792918	 2.0835019705	 0.113642
H	 0.1360649836	 4.4042548969	 0.0460788663	 0.112673
H	 1.6466692052	 2.3502422453	 0.9368355005	 0.21824
H	-1.7106637244	 2.4674702947	-1.1294313097	 0.126765
94.7789	167.7093	178.1256	211.7582	417.1491	440.3357	485.0395	519.8201	524.4401	607.1784	652.6992	668.5258	677.8269	778.2718	813.7971	895.1495	923.142	957.6906	963.4792	1039.5065	1057.87	1085.5155	1117.7493	1167.9417	1193.4191	1211.8122	1261.7182	1284.6603	1297.3331	1377.7774	1511.5746	2241.6185	2362.4549	3051.1597	3112.5919	3129.4368	3145.6249	3393.4168	3499.0374
C#CC12CC(N1)C2C#N	C#C[C@@]12C[C@@H](N1)[C@H]2C#N	
InChI=1S/C7H6N2/c1-2-7-3-6(9-7)5(7)4-8/h1,5-6,9H,3H2	InChI=1S/C7H6N2/c1-2-7-3-6(9-7)5(7)4-8/h1,5-6,9H,3H2/t5-,6-,7+/m1/s1
