14
gdb 10116	2.76527	1.50579	1.10691	3.6147	60.81	-0.2927	-0.0073	0.2853	1050.7142	0.105704	-415.850605	-415.841996	-415.841051	-415.884735	28.93	
O	 0.0257815774	 1.4242108642	 0.1065246518	-0.402981
C	 0.0609577894	 0.0315520128	-0.0451181585	-0.072076
C	-1.3468011351	-0.5835058605	-0.0023817068	-0.060012
O	-1.8680754539	-0.2397001444	 1.2802519491	-0.204541
C	-3.0679192689	-0.7740910094	 1.6370295982	 0.132756
N	-3.5215213343	-0.5352532623	 2.7845400584	-0.425062
C	-2.204647981	-0.0720310853	-1.0866778597	 0.28831
N	-2.8889456271	 0.293586573	-1.9422406194	-0.30593
H	-0.4051421916	 1.6119789692	 0.9489549474	 0.305212
H	 0.5184286146	-0.1823928863	-1.0149889227	 0.136954
H	 0.6524572567	-0.4653775366	 0.7380346837	 0.116586
H	-1.2726023021	-1.674828672	-0.106916551	 0.133905
H	-3.5313668976	-1.3787315141	 0.848507628	 0.114266
H	-4.4216598362	-0.9927929085	 2.9125002214	 0.242613
69.72	85.0443	100.7583	133.8822	216.3571	260.7621	332.9497	421.8244	436.0634	514.0249	643.7143	721.0673	823.8873	849.0775	921.5846	999.8892	1040.318	1064.8772	1100.9653	1133.1294	1235.8635	1272.3932	1304.4201	1349.3578	1401.8695	1422.7356	1428.4567	1490.5409	1754.5546	2361.7856	3002.2819	3022.892	3055.8664	3102.1216	3524.9549	3798.8998
OCC(OC=N)C#N	OC[C@@H](O[CH][NH])C#N	
InChI=1S/C4H6N2O2/c5-1-4(2-7)8-3-6/h3-4,6-7H,2H2	InChI=1S/C4H6N2O2/c5-1-4(2-7)8-3-6/h3-4,6-7H,2H2/t4-/m0/s1
