20
gdb 108429	2.23026	1.64373	1.2052	3.4805	79.1	-0.238	0.032	0.27	1121.7152	0.171504	-403.166505	-403.157789	-403.156845	-403.199851	33.08	
C	 0.0163447644	 1.5682152859	-0.0359442101	-0.384887
C	 0.0436353045	 0.0343107948	 0.0250907039	-0.296288
C	-1.3487173893	-0.5605718237	 0.029528212	 0.213004
C	-2.2584612025	-0.4022910978	 1.2951594789	-0.281673
C	-2.5699143448	-1.9279773713	 1.2790084517	-0.228331
C	-1.7056424161	-2.0926544223	-0.0009599788	-0.050859
N	-2.4053837976	-1.8379197399	-1.261009315	-0.328567
C	-2.1986026009	-0.4715926967	-1.2594329857	 0.387032
O	-2.5818249855	 0.4092873131	-1.9847751094	-0.370423
H	 1.0313850232	 1.9750681616	-0.066690476	 0.110077
H	-0.5230411621	 1.9086960908	-0.9236530069	 0.151956
H	-0.4851978209	 1.989824492	 0.8417839176	 0.11574
H	 0.6012960601	-0.3585957238	-0.834488805	 0.105013
H	 0.5824270137	-0.2958135412	 0.9231982284	 0.093216
H	-1.6893814566	-0.092102378	 2.1751489801	 0.109173
H	-3.1068748095	 0.2752655143	 1.1798322697	 0.11791
H	-2.1586596783	-2.458326818	 2.1413772452	 0.107907
H	-3.6181658625	-2.2135673681	 1.164801977	 0.103049
H	-0.9635634067	-2.8915618769	-0.0431793083	 0.084036
H	-3.1359060426	-2.3679655046	-1.7179313694	 0.242911
93.8737	119.4041	143.9628	200.2228	226.1594	293.6687	313.6238	416.5917	485.1037	503.4198	658.8194	690.209	732.9411	756.8511	789.0754	833.1336	880.8738	893.3896	948.7877	969.1654	994.916	1014.8741	1037.9396	1106.9609	1122.0654	1130.5374	1192.3418	1198.1777	1219.3326	1240.0664	1265.6637	1295.8478	1324.7413	1340.1607	1361.5498	1370.4166	1412.2439	1473.1025	1484.7752	1494.7006	1498.0806	1511.7441	1874.6117	3013.2267	3038.306	3048.9133	3061.4504	3067.6604	3096.4148	3103.4615	3108.5355	3125.6898	3126.6847	3577.2811
CCC12CCC1NC2=O	CC[C@]12CC[C@H]1NC2=O	
InChI=1S/C7H11NO/c1-2-7-4-3-5(7)8-6(7)9/h5H,2-4H2,1H3,(H,8,9)	InChI=1S/C7H11NO/c1-2-7-4-3-5(7)8-6(7)9/h5H,2-4H2,1H3,(H,8,9)/t5-,7+/m1/s1
