17
gdb 54768	2.75017	1.53621	1.16692	5.2296	68.95	-0.2421	0.025	0.2671	1054.1723	0.136136	-455.092729	-455.084419	-455.083475	-455.125923	31.804	
N	-0.0273911061	 1.1766153967	 0.4949078864	-0.522444
C	 0.073664413	-0.0554293622	-0.0830620172	 0.338355
O	 1.0560506674	-0.4474373574	-0.676935328	-0.351777
C	-1.2124791386	-0.8664694563	 0.0357348426	-0.07898
N	-1.0940413259	-2.3375517203	 0.482906209	-0.12452
C	-0.8591249215	-1.777027438	 1.895622866	-0.247326
C	-2.0114002523	-0.8964883835	 1.3470492352	 0.318833
O	-2.6256523943	 0.230555544	 1.8869577129	-0.474842
C	-2.5939335913	-2.225050379	 0.8110144053	-0.227146
H	 0.7647303754	 1.7968543514	 0.4463498818	 0.258805
H	-0.8276249459	 1.4283745503	 1.0541770376	 0.272653
H	-1.7895580325	-0.7686925921	-0.8895922844	 0.106136
H	-1.092107245	-2.4947692018	 2.6860792747	 0.099905
H	 0.1269138298	-1.3310970319	 2.0339141157	 0.128892
H	-2.948380514	 0.0251291605	 2.7715960694	 0.288611
H	-3.2351174622	-2.190214838	-0.0726523529	 0.111557
H	-2.9288330959	-2.9754024722	 1.5313715159	 0.103287
42.9855	152.6937	199.65	259.5945	318.7684	321.1742	364.4964	419.5212	512.1688	560.472	601.585	639.1903	652.0105	715.108	788.2524	829.7659	905.7742	925.3322	959.7198	994.4114	1038.135	1069.8232	1093.5283	1100.5614	1119.0718	1165.999	1176.3178	1186.6704	1240.3624	1279.8905	1322.8323	1350.0597	1399.5101	1510.5309	1553.0874	1624.8449	1808.7749	3058.2483	3062.0121	3069.5926	3131.6235	3141.6432	3572.1193	3713.882	3804.8929
NC(=O)C1N2CC1(O)C2	NC(=O)[C@H]1N2C[C@]1(O)C2	
InChI=1S/C5H8N2O2/c6-4(8)3-5(9)1-7(3)2-5/h3,9H,1-2H2,(H2,6,8)	InChI=1S/C5H8N2O2/c6-4(8)3-5(9)1-7(3)2-5/h3,9H,1-2H2,(H2,6,8)/t3-/m1/s1
