19
gdb 30155	3.58809	1.27138	1.00617	3.9629	83.94	-0.2046	0.0453	0.25	1222.5605	0.160474	-382.088841	-382.080321	-382.079377	-382.122382	31.525	
C	-0.3355726228	 1.6162128209	-0.2905349408	-0.397544
C	-0.0067213476	 0.1627702464	-0.0058298395	 0.054106
C	 0.7228617703	-0.6631823409	-1.1378433408	-0.412927
C	 1.8652434266	-0.795008037	-0.1402021171	 0.266434
C	 3.0639109187	-1.1909032638	 0.4029841506	 0.110304
C	 4.1774137217	-2.0037727284	-0.171952018	-0.489537
N	 3.121733482	-0.6852282031	 1.6921668396	-0.312306
C	 2.0025925428	-0.0205815904	 1.9235332333	-0.051988
N	 1.2169514841	-0.0649836317	 0.8149091104	-0.005272
H	 0.5298048845	 2.1358727047	-0.7122775427	 0.133945
H	-1.1627815695	 1.6799997219	-1.0048450383	 0.128293
H	-0.6387283217	 2.1371797418	 0.6231129999	 0.129786
H	-0.8700056166	-0.3606900263	 0.41638486	 0.104261
H	 0.2185864349	-1.590668109	-1.4209176818	 0.123481
H	 0.9358682556	-0.0841894956	-2.0410253962	 0.120774
H	 5.1111204942	-1.4315030743	-0.2063415424	 0.130522
H	 4.370674978	-2.8957577476	 0.4338540829	 0.130909
H	 3.9407870489	-2.3278619306	-1.1892779506	 0.110562
H	 1.746579846	 0.489625053	 2.8387471915	 0.126198
67.4789	86.0687	163.328	216.6498	258.9359	269.7144	321.5549	426.4599	513.5605	629.3697	657.7434	677.9025	700.7333	759.2402	781.3628	882.7914	915.4244	974.2322	988.2274	1061.91	1064.8872	1093.309	1107.5745	1146.6376	1182.6351	1208.6475	1233.2756	1270.5498	1295.5618	1366.6621	1376.5271	1394.8035	1411.7392	1417.8424	1462.8702	1477.2452	1487.4042	1488.793	1496.5954	1498.1427	1628.1372	3031.4945	3037.9742	3057.355	3061.6931	3084.3733	3104.4815	3109.3268	3111.887	3119.2685	3259.6986
CC1CC2=C(C)N=CN12	C[C@H]1Cc2c(C)ncn12	
InChI=1S/C7H10N2/c1-5-3-7-6(2)8-4-9(5)7/h4-5H,3H2,1-2H3	InChI=1S/C7H10N2/c1-5-3-7-6(2)8-4-9(5)7/h4-5H,3H2,1-2H3/t5-/m0/s1
