20
gdb 57636	3.13924	0.96666	0.92755	4.6853	80.18	-0.2532	0.0318	0.285	1361.3279	0.170085	-399.302699	-399.292804	-399.291859	-399.337572	36.348	
C	-0.0914543449	 1.570873863	-0.0549135995	-0.389829
C	-0.0132545958	 0.0329980184	 0.0127951515	 0.071867
N	 0.7657130054	-0.3376192915	 1.2049757526	-0.527979
C	-1.4330039549	-0.6105452146	-0.0008044177	-0.155331
N	-2.1623904735	-0.2233826308	 1.1986487674	-0.079136
C	-3.2251977957	 0.7703330925	 1.0536998534	-0.221674
C	-3.5519233941	-0.6621780552	 1.2826583939	-0.225102
C	 0.6993032588	-0.4640450104	-1.1791407545	 0.285955
N	 1.2246591024	-0.8698247073	-2.1248130494	-0.338976
H	 0.9153527394	 1.9896056696	-0.0917020537	 0.145474
H	-0.6507934413	 1.9012403125	-0.9343166172	 0.122736
H	-0.5902082766	 1.9461227462	 0.841936783	 0.133122
H	 0.1517724825	-0.1921979643	 2.004727324	 0.242797
H	 0.9693070201	-1.3338631735	 1.1834312232	 0.234622
H	-1.9639966802	-0.3441316039	-0.9302525435	 0.099847
H	-1.3111528019	-1.6994692486	 0.0078863164	 0.113991
H	-3.311285432	 1.4918306331	 1.8608071683	 0.124689
H	-3.411833085	 1.1724710775	 0.0595437469	 0.119721
H	-3.9595033816	-1.2202419345	 0.4416927889	 0.118865
H	-3.8792095312	-1.0063415082	 2.2594422261	 0.12434
70.7732	85.1991	120.9026	193.3409	212.9598	246.0028	273.2514	315.7166	322.6965	393.6783	430.054	463.7816	579.0641	588.2509	752.5547	774.6332	837.8062	879.1418	900.496	927.2189	954.2555	991.8045	1031.3987	1035.6556	1098.7691	1117.1993	1124.9711	1159.3885	1174.2648	1177.661	1219.7867	1302.7266	1323.8432	1336.4149	1387.0247	1408.1157	1478.4002	1487.708	1491.8201	1496.0415	1521.4102	1659.3582	2359.1709	2961.6902	3053.7154	3062.043	3098.7	3102.9386	3130.1206	3146.2988	3182.2143	3196.5122	3469.3845	3550.4482
CC(N)(CN1CC1)C#N	C[C@@](N)(CN1CC1)C#N	
InChI=1S/C6H11N3/c1-6(8,4-7)5-9-2-3-9/h2-3,5,8H2,1H3	InChI=1S/C6H11N3/c1-6(8,4-7)5-9-2-3-9/h2-3,5,8H2,1H3/t6-/m0/s1
