21
gdb 77586	2.66123	1.41025	1.2014	1.6372	83.39	-0.2201	0.0738	0.2939	1154.5433	0.182388	-383.204027	-383.195118	-383.194174	-383.237051	34.767	
C	-0.0968768599	 1.5672978541	-0.0687226392	-0.413466
C	 0.0159777634	 0.0539151973	 0.0403278837	-0.126682
C	 1.0126747811	-0.6827966368	-0.8925525067	 0.346189
C	 0.7175202744	-1.2231259805	-2.2568387474	-0.50938
N	 2.3598210554	-0.1878661855	-0.5135954402	-0.376568
C	 1.7190920418	-1.2791711464	 0.2778059226	-0.212452
C	 0.785479188	-0.5748099352	 1.2357343862	 0.406185
C	 1.0311175394	-0.0412581471	 2.5875426108	-0.301399
N	 0.1830127876	-1.2416830711	 2.3836190664	-0.385423
H	 0.897023317	 2.0206433574	-0.0524810284	 0.141241
H	-0.5972536189	 1.8599665987	-0.9986687717	 0.109397
H	-0.6811261988	 1.9831099136	 0.7600632322	 0.107028
H	-0.970407481	-0.4213591314	-0.0385280403	 0.071392
H	 0.6320315805	-0.417098508	-2.9955915385	 0.127896
H	 1.5121015971	-1.8989845604	-2.5923577747	 0.117956
H	-0.2239190098	-1.7830630337	-2.2642736538	 0.125322
H	 3.026394798	-0.6341565714	-1.1448097083	 0.222125
H	 2.1918247853	-2.2462344836	 0.4008604437	 0.096299
H	 1.9768765675	-0.2287104519	 3.0883603566	 0.118186
H	 0.5495268274	 0.8935709619	 2.8639261026	 0.10992
H	-0.7998079055	-0.9869603401	 2.4590503242	 0.226235
101.0358	196.1157	202.304	218.0865	224.3981	229.4254	302.8268	341.8944	431.5135	481.7393	546.3414	576.6777	679.9285	733.1687	831.8958	845.8537	874.4309	893.2843	929.1178	956.6084	986.1037	994.0663	1002.4784	1037.8047	1066.3108	1096.638	1105.0013	1112.315	1139.5651	1154.51	1213.9005	1240.8735	1259.4069	1305.7657	1317.6987	1351.0299	1401.9629	1407.7863	1435.6982	1452.6637	1481.85	1492.2148	1497.4437	1503.1784	1519.8466	3020.1398	3023.4134	3031.3847	3081.7051	3086.1067	3093.6673	3104.762	3126.6712	3189.4196	3190.4009	3457.2752	3481.5892
CC1C2(C)NC2C11CN1	C[C@H]1[C@@]2(C)N[C@H]2[C@]21CN2	
InChI=1S/C7H12N2/c1-4-6(2)5(9-6)7(4)3-8-7/h4-5,8-9H,3H2,1-2H3	InChI=1S/C7H12N2/c1-4-6(2)5(9-6)7(4)3-8-7/h4-5,8-9H,3H2,1-2H3/t4-,5+,6+,7+/m0/s1
