20
gdb 88453	2.233	1.45957	1.25181	2.6703	75.75	-0.217	0.0658	0.2828	1124.5987	0.16863	-440.218029	-440.208384	-440.20744	-440.252042	36.566	
C	 0.5443759954	 1.4717873128	-0.4341050585	-0.324662
N	 0.0233622997	 0.1799328817	 0.005942023	-0.090247
C	 0.9593124852	-0.940611817	 0.0243772735	-0.266181
C	 0.4667595237	-0.3421534505	 1.2993730341	-0.079303
C	 1.2916138561	 0.4456759994	 2.2751822896	 0.386643
O	 0.5647463499	 1.4884887487	 2.8869577856	-0.469017
C	 2.3014709009	-0.2769528223	 3.159658366	-0.395291
C	 2.7455039324	 0.7866798194	 2.1786336796	 0.055876
O	 3.4767747443	 0.4549956668	 1.0353272615	-0.414422
H	 1.6220142101	 1.6025966615	-0.2658891116	 0.128574
H	 0.3505499158	 1.5731995047	-1.5067773238	 0.112551
H	 0.0104327007	 2.2685268961	 0.0915938499	 0.12623
H	 0.5590909704	-1.8969010363	-0.3047120108	 0.103694
H	 1.992115426	-0.7483964835	-0.2448565468	 0.135848
H	-0.330561345	-0.8804136354	 1.8187184956	 0.07835
H	-0.2014850539	 1.0955187068	 3.3210734989	 0.281598
H	 2.3193898386	-0.0378137768	 4.2172907715	 0.114084
H	 2.523333762	-1.3066060172	 2.8990062768	 0.11892
H	 2.9847302047	 1.7597391976	 2.6058304775	 0.105295
H	 4.371485453	 0.2299583836	 1.3118965585	 0.291462
65.0474	140.4474	199.2923	216.6979	226.6349	261.8438	274.4184	323.3312	365.129	379.523	404.2379	467.1334	532.6278	557.2218	711.8493	787.4133	818.0003	871.5585	917.4578	935.6025	970.4099	1023.1745	1037.8173	1055.2451	1092.1542	1107.196	1132.2545	1149.0247	1166.5207	1177.5006	1214.6789	1228.8739	1259.5775	1294.7386	1326.9984	1378.4256	1416.686	1421.5291	1451.188	1489.1661	1505.1095	1510.8183	1515.1641	3009.6964	3059.0669	3078.814	3107.5896	3110.0352	3114.0387	3129.9407	3211.347	3227.2187	3788.2195	3804.1589
CN1CC1C1(O)CC1O	CN1C[C@H]1[C@@]1(O)C[C@H]1O	
InChI=1S/C6H11NO2/c1-7-3-4(7)6(9)2-5(6)8/h4-5,8-9H,2-3H2,1H3	InChI=1S/C6H11NO2/c1-7-3-4(7)6(9)2-5(6)8/h4-5,8-9H,2-3H2,1H3/t4-,5+,6-,7?/m0/s1
