15
gdb 131686	2.75986	1.47518	0.96706	4.1965	73.5	-0.2202	-0.0504	0.1698	1134.2209	0.113753	-450.094596	-450.086483	-450.085539	-450.127672	29.65	
O	 0.003013513	 1.4283145344	 0.0065815768	-0.428073
C	 0.0147111524	 0.0112097083	 0.00235739	-0.167756
C	-1.3931233779	-0.4898984812	 0.0121206179	 0.18673
C	-2.4651078305	 0.3236083555	 0.0230594566	-0.031873
N	-3.7203533399	-0.2301679377	 0.0314438082	-0.250318
N	-3.9667249115	-1.5581495911	 0.0296341191	-0.037039
N	-2.9958458952	-2.3641852428	 0.0195368331	-0.265801
C	-1.6350392612	-1.9235818045	 0.0098195846	 0.311999
N	-0.6706221246	-2.7667650631	-0.0003262153	-0.530679
H	 0.9133316257	 1.7351281074	 0.0011229512	 0.296825
H	 0.5266000956	-0.3999565851	-0.8818162973	 0.125145
H	 0.5406313814	-0.4051121698	 0.8758126006	 0.125143
H	-2.399011925	 1.4031768555	 0.0257110116	 0.162818
H	-4.5571028477	 0.3292373189	 0.0398120086	 0.282145
H	-1.0567819347	-3.7133893147	 0.0000484742	 0.220732
73.5391	119.8715	195.3661	199.4606	267.3581	339.4864	403.9605	460.607	512.2668	549.9534	608.4294	618.3583	783.7916	785.5898	883.297	906.9892	908.5923	978.2262	1039.8211	1055.165	1095.8352	1200.6975	1214.1448	1222.4381	1234.1259	1309.6487	1391.1066	1441.0427	1474.4215	1496.7127	1582.801	1676.0026	1714.1614	2983.0342	3002.7317	3233.803	3457.8082	3660.9151	3850.1559
OCC1=CNN=NC1=N	OCc1c[nH]nnc1[NH]	
InChI=1S/C4H6N4O/c5-4-3(2-9)1-6-8-7-4/h1,9H,2H2,(H2,5,6,7)	InChI=1S/C4H11N4O/c5-4-3(2-9)1-6-8-7-4/h3-9H,1-2H2
