14
gdb 75707	2.21481	2.09986	1.19286	2.4117	62.22	-0.259	-0.0561	0.2029	968.7105	0.100246	-473.826817	-473.819317	-473.818373	-473.858975	28.013	
O	 0.3202560055	 1.2461607053	 0.61192241	-0.417747
C	 0.0088018376	 0.0036858584	 0.0881493168	-0.029693
C	-1.4788412822	-0.342548643	-0.1212708395	 0.34458
O	-2.4231124945	 0.0290756396	 0.5143482847	-0.28325
C	-1.4726085245	-1.3396321322	-1.2670955874	-0.147721
C	-1.3060966569	-0.7916647771	-2.6459510246	-0.24043
N	-0.139535036	-1.3126266905	-1.9160025905	-0.119405
C	 0.5996881467	-0.2714753146	-1.2890061367	 0.326051
O	 1.5086354855	 0.3463654235	-1.7751199492	-0.320132
H	 1.0479157226	 1.589480223	 0.0714571852	 0.30329
H	 0.360313642	-0.8272519574	 0.7371531687	 0.13908
H	-1.9430906831	-2.3061542163	-1.1224461944	 0.138995
H	-1.6225905974	-1.3961851732	-3.4892400029	 0.15287
H	-1.3732211455	 0.2827065244	-2.7969640001	 0.153512
78.5861	190.8953	236.0103	240.7562	302.0973	364.823	433.7571	540.6612	558.7785	609.5803	642.9196	694.1673	830.5985	869.1358	876.8422	934.5547	974.3433	1050.0407	1087.0176	1101.6626	1122.5239	1158.1525	1169.0762	1232.2067	1265.2886	1327.4439	1355.271	1393.3195	1509.0755	1840.8574	1883.4223	2891.3284	3120.2594	3178.8864	3215.6254	3722.7299
OC1C(=O)C2CN2C1=O	O[C@H]1C(=O)[C@H]2CN2C1=O	
InChI=1S/C5H5NO3/c7-3-2-1-6(2)5(9)4(3)8/h2,4,8H,1H2	InChI=1S/C5H5NO3/c7-3-2-1-6(2)5(9)4(3)8/h2,4,8H,1H2/t2-,4+,6?/m1/s1
