20
gdb 19060	4.89483	1.61266	1.59844	0.0609	78.42	-0.2449	0.1019	0.3468	916.3482	0.179991	-311.834397	-311.827812	-311.826868	-311.86462	27.799	
C	 0.0191865594	 1.5178471292	 0.0341974744	-0.425845
C	-0.02355183	 0.0040533698	 0.0047306657	-0.029589
C	 1.2662220783	-0.7306623987	-0.2793579354	-0.03337
C	 0.6692081248	-0.7410843003	 1.1222644398	-0.033368
C	 0.4659972536	-2.2575444583	 1.3127839154	-0.045388
C	 1.8436854824	-2.7906510076	 0.7792875955	-0.20522
C	 1.2709206028	-2.2434924751	-0.5769584253	-0.045388
C	-0.0994324967	-2.748688868	-0.048058343	-0.23211
H	 0.9692350493	 1.8803607113	 0.4415013656	 0.112584
H	-0.0916232845	 1.9366332906	-0.9721336512	 0.11585
H	-0.785368191	 1.9245092655	 0.6568380124	 0.11585
H	-0.9522884186	-0.3905366998	-0.3937952746	 0.078407
H	 2.1545696616	-0.1551365321	-0.5185956243	 0.077892
H	 1.1091424654	-0.1733853304	 1.9357765719	 0.077892
H	 0.0435290296	-2.5931800822	 2.260441336	 0.05658
H	 2.7519170513	-2.3225279096	 1.1696236744	 0.084984
H	 1.9292313747	-3.8809148342	 0.8076176524	 0.087596
H	 1.6632909772	-2.5649034387	-1.5423214471	 0.05658
H	-0.1587698259	-3.8386724968	-0.0814377807	 0.09289
H	-1.0268866638	-2.3296715545	-0.4399858019	 0.093174
208.199	223.9329	254.1657	347.0835	427.704	493.3098	567.1656	657.6667	782.7477	787.6314	819.6519	837.3747	842.1762	895.2769	909.7691	953.7712	988.2537	999.6867	1005.9379	1019.4352	1032.6453	1053.7975	1088.7621	1091.7901	1104.9798	1126.9912	1136.4233	1141.9822	1210.924	1217.4091	1238.6691	1240.6161	1279.072	1281.4868	1312.5905	1317.0258	1416.8248	1428.5758	1489.6054	1495.5029	1501.4254	1531.3496	3025.6091	3047.0027	3073.7123	3089.6348	3092.3458	3105.3663	3106.7933	3111.3235	3121.5932	3152.7157	3155.5681	3165.9775
CC1C2C1C1CC2C1	C[C@H]1[C@H]2[C@@H]1[C@@H]1C[C@H]2C1	
InChI=1S/C8H12/c1-4-7-5-2-6(3-5)8(4)7/h4-8H,2-3H2,1H3	InChI=1S/C8H12/c1-4-7-5-2-6(3-5)8(4)7/h4-8H,2-3H2,1H3/t4-,5-,6+,7+,8-
