19
gdb 111571	3.18118	1.43057	1.21199	2.9263	73.83	-0.236	0.0736	0.3096	1065.5239	0.161189	-422.968963	-422.961648	-422.960704	-423.000849	29.381	
O	-0.1348108065	 1.4712673261	-0.064978519	-0.424246
C	 0.0363948023	 0.0639257152	 0.0653462824	-0.127136
C	-1.356673689	-0.5389466844	 0.1439877185	 0.075036
C	-1.4888968276	-2.0740012802	 0.2534533213	-0.135008
C	-0.7511828255	-2.4145221849	 1.5763432772	-0.257962
C	-1.8932589344	-1.6291612821	 2.2397676719	-0.071819
C	-2.8531606917	-2.0707205195	 1.1182167711	 0.109418
O	-3.4788936645	-0.7915939303	 1.0266813223	-0.292313
C	-2.1675252323	-0.2893738015	 1.436601264	 0.05441
H	 0.7355617144	 1.8799967679	-0.0725714349	 0.286749
H	 0.5729985529	-0.3541397995	-0.8018808332	 0.087779
H	 0.6297319199	-0.1700230125	 0.9602209509	 0.086623
H	-1.9373946461	-0.1458186519	-0.6952077622	 0.093037
H	-1.3628806883	-2.6735645529	-0.6467448636	 0.066373
H	-0.8365265748	-3.477269661	 1.8236198013	 0.101274
H	 0.2869945242	-2.1030531398	 1.7048336342	 0.097822
H	-2.1427091955	-1.654315393	 3.2989171294	 0.075914
H	-3.5157610481	-2.935052481	 1.1103527735	 0.084631
H	-2.1883174394	 0.7025381352	 1.8826878848	 0.089419
87.8972	181.4721	199.7767	276.3138	378.5908	464.0851	506.6068	540.0745	674.8923	722.4019	759.7669	833.6669	837.4893	853.4934	878.0539	932.5021	949.8898	988.5686	998.1932	1001.7547	1022.9932	1063.6611	1072.5163	1090.5912	1113.6326	1115.576	1164.5033	1176.5461	1205.9458	1216.8134	1237.6906	1246.1651	1261.4855	1269.967	1308.1705	1318.5729	1330.0088	1373.4111	1459.0297	1509.6424	1522.4334	2969.1538	3013.0988	3059.2107	3076.5085	3113.24	3124.9168	3130.8665	3139.258	3152.3642	3830.189
OCC1C2CC3C2OC13	OC[C@H]1[C@H]2C[C@@H]3[C@H]2O[C@H]13	
InChI=1S/C7H10O2/c8-2-5-3-1-4-6(3)9-7(4)5/h3-8H,1-2H2	InChI=1S/C7H10O2/c8-2-5-3-1-4-6(3)9-7(4)5/h3-8H,1-2H2/t3-,4-,5+,6+,7+/m1/s1
