17
gdb 33786	3.6165	1.40659	1.21608	1.2401	74.45	-0.2399	0.0183	0.2582	1035.7015	0.136236	-421.767526	-421.760042	-421.759098	-421.799178	29.814	
C	 0.0534590411	-1.2043904153	-0.0657439445	-0.333421
C	-0.0048277364	-0.0053879298	-0.0071246038	 0.145078
C	-0.0384096545	 1.4364697069	 0.0811769884	 0.235946
C	-0.908334411	 2.1536295031	 1.1491592572	-0.288528
C	-1.0988496126	 3.154696085	-0.0054522423	 0.058308
C	 0.0789898842	 4.1187926943	-0.0716024269	-0.068298
O	 1.2635838332	 3.4673570329	 0.3812840916	-0.274111
C	 1.3525809748	 2.0932562178	 0.0302510787	-0.112354
O	-0.8265583949	 2.0933757729	-0.9697511098	-0.328933
H	 0.0934745476	-2.2644722827	-0.1210388782	 0.193461
H	-1.8152361336	 1.5903779659	 1.3650465152	 0.122638
H	-0.4160150339	 2.4913931619	 2.061301247	 0.11996
H	-2.0675963108	 3.6319846818	-0.1693578072	 0.086675
H	 0.1895192505	 4.4713437424	-1.1080563692	 0.105858
H	-0.0624163088	 4.9843222553	 0.584703255	 0.108812
H	 2.0384262449	 1.6340111345	 0.7483768092	 0.117225
H	 1.7500832101	 1.9588573931	-0.9860158004	 0.111683
139.3056	145.3474	231.3375	310.2191	381.5187	424.278	466.7415	517.828	519.0595	628.2219	637.7017	657.2528	679.6139	842.7828	868.6048	892.9948	912.4631	933.4483	955.5403	1010.2178	1029.4681	1081.0999	1099.6019	1132.8149	1192.574	1221.6446	1229.968	1255.0414	1262.4576	1311.8454	1343.3118	1368.4137	1408.5313	1479.4255	1482.8386	1493.2034	2239.5904	2996.5229	3006.9548	3072.4019	3088.3113	3088.6557	3097.2357	3163.9734	3500.2276
C#CC12CC(COC1)O2	C#C[C@@]12C[C@@H](COC1)O2	
InChI=1S/C7H8O2/c1-2-7-3-6(9-7)4-8-5-7/h1,6H,3-5H2	InChI=1S/C7H8O2/c1-2-7-3-6(9-7)4-8-5-7/h1,6H,3-5H2/t6-,7+/m0/s1
