17
gdb 109851	2.33242	1.27795	1.04266	3.8499	66.11	-0.2451	0.001	0.2461	1199.0289	0.132912	-496.071801	-496.062308	-496.061364	-496.106555	33.226	
C	 0.247388234	 0.8090493245	 0.0335798669	-0.242247
O	-0.2881848572	-0.2692892271	 0.7958350259	-0.242775
C	-1.4983065094	-0.7346337545	 0.3141401071	 0.023772
C	-1.5056161012	-1.6364560923	-0.9114613345	 0.067304
O	-0.3113969182	-1.9108377769	-1.5634672104	-0.420405
C	-1.7256606044	-2.2286948245	 0.461880473	-0.025166
O	-0.6429468408	-3.0211929917	 0.8883819251	-0.209181
C	-0.1570128026	-2.7957488329	 2.1436929202	 0.192585
O	 0.7706410123	-3.4076439824	 2.570348036	-0.268694
H	 1.1915343717	 1.0851761948	 0.5072496842	 0.135355
H	 0.426894504	 0.5031290487	-1.001806674	 0.142762
H	-0.4275542576	 1.6762876894	 0.0492255629	 0.110091
H	-2.3575272253	-0.0808332516	 0.4780334515	 0.094784
H	-2.3520110274	-1.5817596828	-1.5898472119	 0.111806
H	 0.2015211277	-2.4999330287	-0.9940111181	 0.307478
H	-2.6979694942	-2.6108406807	 0.7569462604	 0.118226
H	-0.7243473614	-2.0216036315	 2.6843221756	 0.104304
72.4807	111.7272	126.4263	167.001	191.139	202.6418	271.488	298.0156	317.5951	348.3208	532.4279	616.7061	696.9041	726.0602	769.9045	788.9288	951.4097	1026.6234	1037.458	1069.641	1095.3954	1114.2284	1125.6717	1163.8579	1168.2306	1183.3726	1227.6821	1262.4138	1335.9053	1344.1853	1381.4061	1417.7101	1449.3773	1481.4345	1488.3253	1508.0488	1876.0815	3005.3557	3019.9074	3078.2673	3087.6794	3135.747	3148.9834	3158.5706	3761.0171
COC1C(O)C1OC=O	CO[C@H]1[C@@H](O)[C@H]1OC=O	
InChI=1S/C5H8O4/c1-8-4-3(7)5(4)9-2-6/h2-5,7H,1H3	InChI=1S/C5H8O4/c1-8-4-3(7)5(4)9-2-6/h2-5,7H,1H3/t3-,4+,5-/m1/s1
