16
gdb 5621	3.23926	1.86994	1.2705	2.8742	67.36	-0.184	0.0461	0.23	948.6135	0.131997	-379.935599	-379.927678	-379.926734	-379.968181	29.468	
C	-0.5862794874	 1.0224538055	 0.0487804478	-0.319924
N	 0.4056940453	-0.0313427966	-0.1864368571	-0.402579
C	 0.9112715531	-0.6663524474	 0.9829702692	 0.09705
C	 1.7291223132	-0.2144189996	 2.0025280653	-0.14656
N	 1.8933256169	-1.2468392435	 2.8818717383	-0.236824
C	 1.1966164533	-2.3660136389	 2.4591259969	-0.187248
C	 0.5821721576	-2.0209729489	 1.2801079266	 0.297164
O	-0.204227782	-2.7953922885	 0.4904198161	-0.454857
H	-0.2084104792	 1.8660204786	 0.6475089948	 0.101797
H	-0.9382216384	 1.4103720443	-0.912650506	 0.112946
H	-1.4424293483	 0.5958703309	 0.5791635494	 0.132693
H	 1.1561992219	 0.3234589518	-0.7681484386	 0.228108
H	 2.2020385507	 0.7412025329	 2.1631544975	 0.112943
H	 2.447901222	-1.2065799428	 3.7171349703	 0.260962
H	 1.2076130515	-3.2866582039	 3.0162581433	 0.117318
H	-0.4024191802	-2.2352470439	-0.2762299839	 0.28701
45.4973	160.6534	182.6297	265.5984	291.7208	354.4956	421.092	513.6507	538.6666	624.1086	625.8277	635.4077	717.813	735.5513	736.9553	812.51	903.8376	1036.3476	1068.212	1135.0471	1148.8348	1169.6947	1187.9054	1261.5394	1286.5343	1363.6573	1433.6575	1454.2139	1475.793	1479.1943	1492.2175	1515.3461	1576.1999	1660.0216	2979.7498	3067.9502	3111.2336	3259.2701	3281.4993	3524.5936	3700.6936	3704.7071
CNC1=CNC=C1O	CNc1c[nH]cc1O	
InChI=1S/C5H8N2O/c1-6-4-2-7-3-5(4)8/h2-3,6-8H,1H3	InChI=1S/C5H8N2O/c1-6-4-2-7-3-5(4)8/h2-3,6-8H,1H3
