19
gdb 98237	2.76673	0.98173	0.95591	3.2646	74.1	-0.2384	0.0114	0.2498	1366.1365	0.158461	-456.421479	-456.410983	-456.410039	-456.458091	36.685	
C	 0.5385392026	 0.9761938099	 0.7844753022	-0.336877
N	 0.151334384	-0.3068638096	 0.2278334573	-0.31271
C	 0.483472689	-0.6975351674	-1.0286771721	 0.426168
O	 1.1348122731	 0.0096255773	-1.7917835517	-0.405246
C	-0.0331971656	-2.0744821617	-1.4411683534	-0.198669
C	-1.0726620111	-1.9164175439	-2.572694642	-0.390069
C	 1.0869316843	-3.0337286188	-1.9006085421	 0.380657
N	 2.0144509404	-2.4780281538	-2.7191120649	-0.510292
O	 1.0645908977	-4.2083255607	-1.5844165034	-0.374483
H	 1.0896492654	 1.5136078164	 0.0126024065	 0.173948
H	-0.3400506474	 1.5624039269	 1.074008856	 0.131031
H	 1.1813800212	 0.8490342938	 1.6621560451	 0.132746
H	-0.3701291514	-0.946106181	 0.8042297347	 0.254697
H	-0.5005276012	-2.5825009797	-0.5936292988	 0.09361
H	-1.4063517715	-2.900521698	-2.9113174126	 0.138251
H	-1.9450146915	-1.356481686	-2.2220469639	 0.118806
H	-0.6359227792	-1.3794289301	-3.4174256668	 0.143792
H	 2.0537061943	-1.4700573919	-2.8029605365	 0.279719
H	 2.7902441071	-3.0508589017	-3.0083570836	 0.254924
39.6728	59.1728	74.9468	143.0731	203.831	221.2867	231.1135	250.8408	329.0993	389.71	403.9426	447.3267	508.881	566.7408	675.3514	717.7854	746.9271	791.2083	831.1313	882.7141	1003.9496	1046.3048	1091.7487	1103.1591	1143.1487	1153.8059	1173.2767	1232.3085	1296.9955	1344.1956	1371.0265	1403.6699	1439.3838	1492.351	1495.3595	1497.8609	1500.2166	1566.5524	1606.3197	1745.7801	1800.5687	3033.4167	3045.4656	3076.9876	3087.5865	3117.4488	3139.6762	3159.8588	3525.0355	3651.7189	3696.2512
CNC(=O)C(C)C(N)=O	CNC(=O)[C@@H](C)C(=O)N	
InChI=1S/C5H10N2O2/c1-3(4(6)8)5(9)7-2/h3H,1-2H3,(H2,6,8)(H,7,9)	InChI=1S/C5H10N2O2/c1-3(4(6)8)5(9)7-2/h3H,1-2H3,(H2,6,8)(H,7,9)/t3-/m0/s1
