20
gdb 83165	2.45467	1.50358	1.41034	3.2473	79.93	-0.2485	0.0308	0.2793	1062.4263	0.172749	-403.155433	-403.147	-403.146056	-403.188585	32.117	
C	-0.2361594945	 1.5756157688	-0.0829807736	-0.430143
C	-0.0164176475	 0.0786993305	 0.0176132756	-0.013364
C	 1.283365609	-0.6572706361	-0.2333986426	-0.073261
C	 2.6224834849	 0.0270331285	-0.3875709675	-0.099831
O	 2.8334925035	 1.1562575802	 0.4694536482	-0.252323
C	 2.3722482111	 1.1763722991	 1.7533886508	 0.383548
N	 2.6616141092	 2.13539913	 2.5296776438	-0.517913
C	 1.4949959764	 0.0397105229	 2.225847499	-0.292933
C	 0.6826036983	-0.6531352989	 1.1480099174	-0.06844
H	 0.5897499579	 2.1685806418	 0.3073258075	 0.148812
H	-0.3843465412	 1.8665786479	-1.1291206542	 0.116714
H	-1.1402365079	 1.8605475132	 0.4661057683	 0.120185
H	-0.8730529956	-0.4785972203	-0.3565586443	 0.087988
H	 1.2264667674	-1.5699678104	-0.8209736034	 0.089411
H	 3.4233777959	-0.7054798583	-0.2091975447	 0.110628
H	 2.7598462734	 0.4214123708	-1.3995036208	 0.121262
H	 3.2839433466	 2.791966684	 2.0533049894	 0.214751
H	 2.153186409	-0.7109283713	 2.6856438416	 0.128489
H	 0.8733295551	 0.4343267601	 3.0330935018	 0.138949
H	 0.201556909	-1.5632517625	 1.4942908777	 0.087472
84.328	117.951	148.5648	176.2531	228.4452	392.8706	415.1046	426.7879	510.9348	542.6383	622.086	736.4042	748.6843	753.2409	791.4568	870.1825	909.5714	938.8382	983.0303	991.2096	1020.9306	1046.0219	1097.3363	1109.511	1117.6723	1131.7548	1154.3971	1178.4892	1237.1995	1255.7107	1284.0063	1316.2047	1340.6672	1374.2177	1389.2099	1425.307	1432.2325	1464.7243	1476.2253	1492.898	1507.7269	1517.3608	1741.4973	2997.623	3016.3315	3036.5125	3069.6712	3086.9705	3099.4895	3116.8599	3135.5771	3148.4664	3160.7961	3459.7897
CC1C2COC(=N)CC12	C[C@H]1[C@H]2CO[C]([NH])C[C@@H]12	
InChI=1S/C7H11NO/c1-4-5-2-7(8)9-3-6(4)5/h4-6,8H,2-3H2,1H3	InChI=1S/C7H11NO/c1-4-5-2-7(8)9-3-6(4)5/h4-6,8H,2-3H2,1H3/t4-,5+,6-/m1/s1
