14
gdb 62443	4.05433	1.28156	1.25732	4.6562	67.4	-0.237	-0.007	0.2299	993.0345	0.101845	-432.861498	-432.85386	-432.852916	-432.893495	28.568	
O	-0.0911470102	 1.3752981527	 0.0885928691	-0.449626
C	-0.0304747535	-0.0071836254	 0.0114707382	 0.217346
C	 1.0654793865	-0.6287483156	 0.7096325516	 0.26357
N	 1.9384088755	-1.1446829669	 1.2681602035	-0.342878
C	-1.356025188	-0.7848883141	 0.0185060557	-0.097816
N	-2.5046431201	-0.0262603937	-0.3580415806	-0.268661
C	-2.2692201206	 0.4977582538	-1.6059442609	 0.06454
N	-1.2096909842	 0.084728154	-2.2105927229	-0.265434
C	-0.51654937	-0.7386057302	-1.254948748	-0.097077
H	 0.2801734095	 1.7378937894	-0.7259364504	 0.303821
H	-1.4899256024	-1.6347897746	 0.6754867197	 0.134441
H	-3.0934205561	 0.4312267208	 0.3192181406	 0.26692
H	-2.9820187623	 1.1888655962	-2.04215421	 0.142608
H	 0.0779009059	-1.5615611065	-1.6306507655	 0.128246
124.9375	150.3432	187.1919	246.4345	292.6497	382.9555	433.8127	484.8998	538.1912	600.0989	639.6102	716.6647	757.0623	860.4986	882.7733	906.8676	957.991	1011.4552	1051.6409	1069.1401	1105.7401	1126.1256	1166.4883	1252.8139	1275.1349	1325.2305	1351.525	1371.7859	1436.7791	1633.2626	2339.4068	3193.3474	3200.5815	3210.2144	3649.1914	3772.1322
OC1(C#N)C2NC=NC12	O[C@@]1(C#N)[C@H]2NC=N[C@@H]12	
InChI=1S/C5H5N3O/c6-1-5(9)3-4(5)8-2-7-3/h2-4,9H,(H,7,8)	InChI=1S/C5H5N3O/c6-1-5(9)3-4(5)8-2-7-3/h2-4,9H,(H,7,8)/t3-,4+,5-
