23
gdb 94819	3.64373	1.10077	0.96544	0.2837	93.57	-0.2207	0.0283	0.249	1337.5191	0.20743	-351.170606	-351.161993	-351.161049	-351.203494	34.84	
C	-0.0290577305	 1.5747771166	 0.0132282502	-0.399627
C	-0.0016810625	 0.0387936479	 0.000691919	-0.010124
C	 0.6371663763	-0.5059478648	-1.2887927781	-0.20818
C	 0.8957932221	-2.0151145094	-1.1916531769	-0.306827
C	 1.8347908894	-2.3276217871	-0.0359511253	 0.370387
C	 2.3446663023	-3.7448915309	 0.1189967782	-0.322289
C	 3.2895389719	-2.6655700852	-0.3307607174	-0.303288
C	 1.5464318532	-1.5442825751	 1.1903754204	-0.122615
C	 0.7100267767	-0.5050179944	 1.2183996983	-0.074735
H	 0.9875127735	 1.9830700077	-0.0082601381	 0.116159
H	-0.5684121859	 1.9650105319	-0.8564316322	 0.108958
H	-0.5230307116	 1.9561511295	 0.9133015544	 0.109373
H	-1.0485857997	-0.3048528447	 0.0342845299	 0.078042
H	-0.0053117847	-0.2803322143	-2.1474781006	 0.086591
H	 1.5899263451	 0.0127990857	-1.4599346701	 0.09681
H	-0.0593701129	-2.5335415657	-1.0297420505	 0.096986
H	 1.3068675025	-2.4004029894	-2.1314788184	 0.086913
H	 2.4553814517	-4.1408685129	 1.1232922228	 0.11022
H	 2.0158758347	-4.47593674	-0.612789491	 0.110012
H	 3.6050827669	-2.6575239588	-1.3690964499	 0.11108
H	 4.044284495	-2.3190905199	 0.3669583903	 0.110858
H	 2.0499726253	-1.8605008838	 2.1023044583	 0.078269
H	 0.5259716213	 0.0078952473	 2.1604099667	 0.077027
69.918	189.9924	215.4757	251.0449	279.1336	321.0605	355.2238	378.5439	414.6132	519.4011	581.8254	652.6051	729.447	753.2727	781.5049	799.3201	873.9967	893.6036	941.6258	947.3286	963.0298	969.812	989.0367	998.6031	1032.6201	1056.3179	1072.4021	1078.4308	1121.8594	1132.3095	1183.4101	1192.5382	1224.6228	1243.0557	1304.9432	1323.8461	1329.2825	1353.2808	1372.8139	1377.1528	1402.9232	1436.6872	1467.2811	1486.0438	1490.7362	1496.8674	1499.6385	1500.6278	1710.9636	2963.501	3010.2313	3018.6878	3026.2748	3060.136	3065.0602	3095.6309	3097.2693	3123.1961	3127.2622	3129.9915	3153.11	3202.3578	3218.2787
CC1CCC2(CC2)C=C1	C[C@H]1CCC2(CC2)C=C1	
InChI=1S/C9H14/c1-8-2-4-9(5-3-8)6-7-9/h2,4,8H,3,5-7H2,1H3	InChI=1S/C9H14/c1-8-2-4-9(5-3-8)6-7-9/h2,4,8H,3,5-7H2,1H3/t8-/m1/s1
