16
gdb 19995	3.74954	1.39769	1.13593	4.7096	70.23	-0.2697	0.0167	0.2864	1049.0618	0.13129	-342.75383	-342.746245	-342.745301	-342.786361	27.847	
N	-0.1851288038	-1.1561063453	 0.1778531205	-0.338868
C	-0.0985848994	-0.0038509208	 0.138412772	 0.336787
C	 0.0071446469	 1.4325034585	 0.0492050643	-0.204244
N	 0.5573574674	 2.1304668358	 1.2301878109	-0.320422
C	 1.340892501	 2.1215386455	-0.005454724	-0.018677
C	 2.6325034384	 1.37872904	 0.0016150682	 0.030999
C	 3.4831585549	 1.3536506861	-1.2448010973	-0.268469
C	 3.9335865455	 2.1436828069	-0.0442379872	-0.274356
H	-0.8125263388	 1.8955007395	-0.4938310738	 0.129743
H	 0.0701817135	 3.0130915875	 1.36050961	 0.245443
H	 1.3446030637	 3.0326157832	-0.6046153345	 0.094823
H	 2.6168966371	 0.4774723575	 0.6050819598	 0.114057
H	 3.9991723499	 0.4319706745	-1.4869356769	 0.125466
H	 3.1315136086	 1.9043965084	-2.1113527673	 0.112986
H	 3.8855403903	 3.2263795691	-0.1012649528	 0.112007
H	 4.762081845	 1.7681852538	 0.5451217184	 0.122725
60.2123	104.9073	190.3948	250.8318	277.5164	367.7851	459.3707	578.8042	623.3833	747.1042	788.3416	832.4391	838.5096	884.169	915.4286	941.9307	967.2605	989.7812	1054.7923	1067.0743	1080.4907	1127.4507	1148.3267	1197.5712	1202.5014	1223.4691	1225.9238	1271.0438	1338.2484	1408.9787	1471.1033	1480.0036	1510.8184	2359.3319	3104.3727	3132.56	3137.2918	3146.5652	3172.217	3212.7347	3227.6694	3510.8459
N#CC1NC1C1CC1	N#C[C@H]1N[C@H]1C1CC1	
InChI=1S/C6H8N2/c7-3-5-6(8-5)4-1-2-4/h4-6,8H,1-2H2	InChI=1S/C6H8N2/c7-3-5-6(8-5)4-1-2-4/h4-6,8H,1-2H2/t5-,6+/m1/s1
