13
gdb 24948	5.03366	1.34925	1.07113	6.342	63.91	-0.2204	-0.0136	0.2069	1014.4181	0.092227	-452.804793	-452.798357	-452.797413	-452.835791	24.635	
O	 0.0438113462	 0.0632148419	 0.0031995364	-0.303591
C	-0.0289534828	 1.2501234447	 0.0103385866	 0.416384
C	-1.3236692376	 2.1240636803	 0.0332420319	-0.504691
C	-0.7055724119	 3.4726149178	 0.0313081515	 0.2275
C	 0.6444648968	 3.3584168668	 0.0114569537	 0.389533
O	 1.1030911369	 2.0592201489	-0.001637089	-0.235588
N	 1.302868826	 4.5356796141	 0.0080130905	-0.34205
C	 0.3129227909	 5.4187135716	 0.025948866	-0.003957
N	-0.9271289708	 4.8312347509	 0.041444406	-0.378309
H	-1.9307326746	 1.8673131082	-0.8423085267	 0.158564
H	-1.9055379313	 1.8583053964	 0.923091953	 0.158561
H	 0.4347826524	 6.4904519746	 0.0292657336	 0.14265
H	-1.8093712103	 5.3143325737	 0.0566626266	 0.274995
113.4445	180.1434	329.3288	361.2203	496.8305	551.6716	566.1816	574.5113	659.0646	728.489	734.4611	774.0119	795.731	864.9465	970.5385	971.2358	1034.576	1100.4291	1151.6962	1192.9599	1220.1912	1274.7839	1384.9215	1401.5074	1453.458	1458.7247	1525.9465	1644.7992	1913.4948	3040.9851	3073.7881	3267.9004	3671.14
O=C1CC2=C(O1)N=CN2	O=C1Cc2c(O1)nc[nH]2	
InChI=1S/C5H4N2O2/c8-4-1-3-5(9-4)7-2-6-3/h2H,1H2,(H,6,7)	InChI=1S/C5H4N2O2/c8-4-1-3-5(9-4)7-2-6-3/h2H,1H2,(H,6,7)
