20
gdb 92678	3.1622	1.15618	0.93081	4.5514	87.3	-0.2584	-0.0385	0.2199	1293.3219	0.17147	-366.056815	-366.047775	-366.046831	-366.090423	34.117	
C	-0.8991431207	 1.0716068696	-0.0353251113	-0.414961
C	 0.1145428258	-0.0700036803	 0.0036955234	 0.020902
C	 1.211273257	 0.005367015	-1.0909286408	-0.267424
C	 2.3671331314	-0.7290133388	-0.4700911272	-0.159254
C	 2.192468157	-0.8942584242	 0.8482493674	 0.199597
C	 3.1144716841	-1.5187082382	 1.7317889598	 0.210545
N	 3.8372679621	-2.0229522451	 2.484434513	-0.344188
C	 0.8975413997	-0.2569890245	 1.3433818622	-0.108353
C	 1.1882475013	 1.0281978186	 2.1363354317	-0.400221
H	-0.4194570887	 2.0458268797	 0.1021323848	 0.12122
H	-1.4168450641	 1.0915709251	-1.0000312957	 0.117259
H	-1.6601423391	 0.9589005009	 0.743876203	 0.119037
H	-0.4247425762	-1.0103378785	-0.1636274967	 0.086667
H	 0.8874398026	-0.4345917389	-2.0405415598	 0.115935
H	 1.4971524336	 1.0437631155	-1.317228129	 0.117694
H	 3.2413916041	-1.0548210088	-1.0214226996	 0.11966
H	 0.3563037381	-0.9443608434	 2.0032290582	 0.089879
H	 1.7103783672	 1.7698707115	 1.5230243285	 0.11922
H	 0.2640749885	 1.480042412	 2.5077889552	 0.121389
H	 1.8226714763	 0.8061728028	 2.9998665531	 0.135397
71.585	135.9963	174.9604	241.8271	249.6521	263.0469	272.394	333.5718	425.676	441.1004	557.419	569.1359	631.5009	660.5466	766.9312	822.1438	855.1135	896.2052	941.2035	986.8358	1006.3587	1038.512	1066.2588	1092.3515	1126.7168	1146.9961	1179.3204	1208.7027	1276.6748	1304.4133	1310.9362	1339.8076	1364.0008	1373.8708	1405.566	1415.0688	1480.8946	1489.565	1493.9413	1504.4562	1505.6949	1675.1998	2333.5385	2999.3719	3022.4177	3032.7599	3037.5952	3042.9676	3063.76	3098.2204	3104.4124	3109.2528	3112.8394	3207.51
CC1CC=C(C#N)C1C	C[C@H]1CC=C(C#N)[C@H]1C	
InChI=1S/C8H11N/c1-6-3-4-8(5-9)7(6)2/h4,6-7H,3H2,1-2H3	InChI=1S/C8H11N/c1-6-3-4-8(5-9)7(6)2/h4,6-7H,3H2,1-2H3/t6-,7-/m0/s1
