20
gdb 97059	3.98976	1.02617	0.86009	3.1818	85.12	-0.2359	0.0127	0.2486	1396.4293	0.170007	-403.170385	-403.160767	-403.159823	-403.205919	34.254	
C	-0.013744933	 1.4322206612	-0.1654543357	-0.313419
N	 0.1730293137	-0.0116292506	-0.1514357216	-0.300697
C	 0.464392518	-0.566347186	 0.9467035878	 0.402281
C	 0.6856618074	-2.059972155	 1.0247238172	-0.356036
C	 0.3388015321	-2.62982402	 2.371763601	-0.162315
C	 0.4474341642	-1.8925019231	 3.4738537841	 0.28967
C	 0.1788017395	-2.3865603886	 4.8658884239	-0.483599
C	 0.9062570251	-0.4642924002	 3.3403329996	-0.152396
O	 0.5831939392	 0.1594789437	 2.0945397339	-0.256801
H	 0.8658795953	 1.9699545046	 0.212678011	 0.113497
H	-0.2044645911	 1.7570659965	-1.1914024901	 0.111158
H	-0.8653802123	 1.7390686673	 0.456378814	 0.115562
H	 0.1096144872	-2.5169630786	 0.2179882914	 0.141215
H	 1.7422673189	-2.2692761116	 0.7941698667	 0.133174
H	 0.0225755964	-3.6679535291	 2.42387247	 0.091992
H	-0.0864434685	-3.4467390005	 4.8653205201	 0.129003
H	 1.0571778718	-2.2591894743	 5.5121443105	 0.127548
H	-0.6394601459	-1.8273368732	 5.3369915684	 0.130502
H	 0.4402589807	 0.166689241	 4.1052367431	 0.121342
H	 1.9950675613	-0.3986191635	 3.4958575048	 0.11832
38.3529	54.2452	117.5234	172.7708	202.8744	225.5923	258.8137	322.5372	401.7597	432.9503	522.6853	567.318	608.2481	742.47	768.6407	819.2241	904.8356	952.4898	980.4291	1004.8159	1034.015	1076.5677	1085.8548	1091.2555	1109.1658	1169.4606	1192.3984	1207.7623	1230.5363	1262.7585	1335.2074	1361.6922	1414.8034	1424.1065	1438.9511	1465.383	1478.6032	1484.5132	1490.2156	1498.4665	1503.0179	1754.398	1765.5586	2977.9648	2987.2134	3002.4038	3016.1381	3052.2209	3059.7242	3062.5244	3101.3487	3109.9875	3116.1306	3165.6515
CN=C1CC=C(C)CO1	CN=C1CC=C(C)CO1	
InChI=1S/C7H11NO/c1-6-3-4-7(8-2)9-5-6/h3H,4-5H2,1-2H3	InChI=1S/C7H11NO/c1-6-3-4-7(8-2)9-5-6/h3H,4-5H2,1-2H3
