20
gdb 14699	12.92833	0.51365	0.50168	1.367	81.67	-0.2414	0.0589	0.3003	2208.3182	0.174912	-348.98266	-348.972201	-348.971257	-349.020604	35.297	
C	 0.0149358785	 1.5654825189	 0.0104915614	-0.381323
C	 0.0135923242	 0.0357220562	 0.0024278596	-0.151601
C	-1.4130945231	-0.5508213555	 0.0120181638	-0.334699
C	-1.4355276208	-2.0095281921	 0.0043952898	 0.039553
C	-1.4149693138	-3.2140958025	-0.0023670908	 0.078116
C	-1.4313730326	-4.6713883446	-0.0100169536	-0.323665
C	-2.8533109291	-5.2430617289	 0.0016377135	-0.062341
O	-2.7326896384	-6.6557051203	-0.0072439809	-0.41574
H	 1.0353866532	 1.9601520814	 0.0034911248	 0.114148
H	-0.5037017382	 1.9683348357	-0.8667802628	 0.114952
H	-0.4879647083	 1.9590044427	 0.9010600452	 0.114951
H	 0.5430508056	-0.33787794	-0.8811361361	 0.108263
H	 0.5586443528	-0.3471355423	 0.8724423456	 0.108259
H	-1.9498603625	-0.1773875065	 0.895041011	 0.121781
H	-1.9654607382	-0.1680131493	-0.8572645343	 0.121785
H	-0.9123426436	-5.0590369647	-0.8954645143	 0.133335
H	-0.8941136663	-5.0684771078	 0.8602418742	 0.133338
H	-3.3832016857	-4.8843862253	 0.8966756051	 0.096404
H	-3.4016153715	-4.8747951313	-0.878286429	 0.096406
H	-3.6164894522	-7.0339819836	-0.0001459721	 0.288078
8.8807	63.6328	70.5971	103.5635	148.2006	233.2299	240.3405	243.8734	301.1946	350.1454	400.9546	495.5643	508.6957	743.5073	795.3666	808.8845	873.1971	895.8905	1001.4646	1042.1513	1079.5563	1088.6382	1108.2521	1122.5708	1163.7018	1221.5768	1238.0807	1259.1183	1303.8377	1306.8931	1321.5175	1334.2261	1381.6002	1412.4656	1453.9681	1475.0724	1480.551	1491.9264	1498.9871	1509.0513	1527.672	2369.0055	2982.3989	3005.1956	3012.6488	3026.2056	3028.7331	3031.0744	3040.7204	3062.8324	3072.111	3099.1221	3104.5116	3834.1973
CCCC#CCCO	CCCC#CCCO	
InChI=1S/C7H12O/c1-2-3-4-5-6-7-8/h8H,2-3,6-7H2,1H3	InChI=1S/C7H12O/c1-2-3-4-5-6-7-8/h8H,2-3,6-7H2,1H3
