15
gdb 127357	3.383	1.74257	1.15853	1.6844	73.86	-0.2112	-0.0007	0.2104	992.8185	0.116825	-413.01308	-413.005994	-413.00505	-413.044834	26.584	
C	 0.0116437741	 1.4386058242	 0.0715058167	-0.340967
N	-0.0117700335	-0.0066816258	 0.0419038547	-0.14193
C	-0.1053954984	-0.8310448347	-1.0728640012	-0.009015
N	-0.1064170029	-2.1168995579	-0.8298312101	-0.370726
C	-0.0060844896	-2.1764114375	 0.5527384387	 0.22198
C	 0.0625081408	-3.0090128319	 1.6568372463	-0.179107
N	 0.1530656063	-2.1636425616	 2.7252627487	-0.185306
N	 0.1506136094	-0.8310398559	 2.4254772912	-0.381432
C	 0.0532292741	-0.8787252787	 1.1045341577	 0.406964
H	 0.9406264968	 1.8045798218	 0.5203979086	 0.148653
H	-0.0575713817	 1.8159215723	-0.9508604112	 0.140052
H	-0.831065947	 1.8306330553	 0.6499579397	 0.14865
H	-0.1710957536	-0.3903249101	-2.0591316822	 0.127655
H	 0.0564293769	-4.0785922479	 1.7871314063	 0.13904
H	 0.2199700282	-2.4268055015	 3.693271636	 0.275488
88.3184	140.331	246.723	275.1809	358.6302	456.6615	554.4934	623.9122	625.2167	639.3312	728.0149	748.2909	787.8877	812.5383	854.8105	968.7035	1038.2622	1057.6118	1121.059	1155.3865	1190.258	1250.2108	1297.0772	1326.8589	1361.2073	1453.1393	1457.9859	1469.2904	1477.8311	1516.6739	1536.307	1549.782	1663.606	3036.4215	3095.4948	3133.1305	3228.0019	3271.4004	3684.2962
CN1C=NC2=CNN=C12	Cn1cnc2c[nH]nc12	
InChI=1S/C5H6N4/c1-9-3-6-4-2-7-8-5(4)9/h2-3H,1H3,(H,7,8)	InChI=1S/C5H6N4/c1-9-3-6-4-2-7-8-5(4)9/h2-3H,1H3,(H,7,8)
