23
gdb 105222	2.03782	1.31128	1.09821	2.1735	82.03	-0.2484	0.0603	0.3087	1284.0442	0.203976	-425.40922	-425.398677	-425.397733	-425.444175	39.942	
C	 0.1867332606	-0.1408000651	 1.9251628909	-0.404863
C	-0.9454539748	-1.1629692939	 1.7655011237	 0.050377
O	-1.7074194808	-1.26310859	 2.9664969612	-0.44537
C	-1.8630027202	-0.8741935094	 0.5618488814	 0.345571
C	-3.0782455658	-0.0315042513	 0.8954773321	-0.166715
O	-2.6771322374	 1.1158487517	 1.6541456371	-0.430677
C	-1.2660908065	-0.7272949142	-0.8211908459	-0.337705
C	-2.1307697199	-1.9217019186	-0.5053818865	-0.041217
C	-1.5561273353	-3.3207661152	-0.4662658195	-0.417363
H	 0.7653974964	-0.3785084997	 2.8227924671	 0.112346
H	 0.863928018	-0.1542277515	 1.0660868244	 0.106346
H	-0.2189698549	 0.8697783878	 2.0202044397	 0.132566
H	-0.4985055166	-2.1545184125	 1.6430526162	 0.081061
H	-2.0322507398	-0.3699836893	 3.1409881917	 0.281208
H	-3.5809469947	 0.2748955746	-0.0332085882	 0.087975
H	-3.7844345879	-0.6362979634	 1.4811018194	 0.104533
H	-3.4669810961	 1.6179786653	 1.8770951116	 0.290591
H	-1.6475200231	 0.0533869025	-1.47192093	 0.106044
H	-0.2007851349	-0.9073830788	-0.9308081167	 0.108874
H	-3.1381791734	-1.8874804473	-0.9172963685	 0.076989
H	-1.6103836648	-3.7814784872	-1.4587144401	 0.115821
H	-0.504085068	-3.3262678435	-0.1669464145	 0.119842
H	-2.1048869702	-3.9633257611	 0.2311724334	 0.123765
71.7578	116.545	147.6522	186.2995	219.3967	240.6795	259.1295	278.5801	318.6134	356.0229	381.8591	420.9127	446.5735	494.2917	543.7424	576.0575	713.2569	802.0713	865.0946	900.3678	920.2212	943.0699	973.2351	1021.5427	1043.3895	1057.3395	1066.0493	1095.125	1114.6248	1128.2554	1135.8694	1191.5852	1220.5239	1241.6623	1283.3895	1317.1731	1337.7475	1366.9111	1396.6538	1408.5415	1426.6887	1443.4149	1459.7707	1489.247	1492.0067	1495.507	1502.1599	1507.3006	1513.9328	2988.6576	3026.5414	3029.7831	3042.8322	3057.8985	3089.9847	3098.4693	3113.1054	3118.7373	3120.8409	3129.2048	3202.2264	3760.607	3824.4208
CC(O)C1(CO)CC1C	C[C@@H](O)[C@@]1(CO)C[C@H]1C	
InChI=1S/C7H14O2/c1-5-3-7(5,4-8)6(2)9/h5-6,8-9H,3-4H2,1-2H3	InChI=1S/C7H14O2/c1-5-3-7(5,4-8)6(2)9/h5-6,8-9H,3-4H2,1-2H3/t5-,6-,7-/m1/s1
