20
gdb 69457	2.90423	1.22174	1.21004	2.621	78.6	-0.2402	-0.0231	0.2171	1159.0351	0.170804	-403.15098	-403.142434	-403.14149	-403.184252	32.699	
C	 0.2386591587	 1.4498794872	 0.1889905931	-0.47384
C	 0.0817327233	-0.0394057084	 0.0085162735	 0.350037
C	-1.0456984231	-0.7727482027	 0.6448544655	-0.293868
N	 0.3162274486	-0.9067589207	 1.1904364155	-0.145575
C	 1.0180788482	-2.1114940316	 0.7134911723	-0.058328
C	 0.9268107364	-2.164817222	-0.8267587702	-0.259892
C	 0.706594397	-0.6898951373	-1.2227835998	-0.274264
C	 2.4517624636	-2.0341633122	 1.2305088401	 0.155197
O	 3.424163508	-2.3882427599	 0.6152372817	-0.245229
H	 1.2944952158	 1.7398685632	 0.1467034796	 0.121014
H	-0.2898650668	 1.993988505	-0.6019317127	 0.118952
H	-0.1641678533	 1.7708105362	 1.1528748168	 0.126861
H	-1.7363376027	-0.2378147908	 1.2911645901	 0.114995
H	-1.4851331186	-1.6223270042	 0.1274941829	 0.11011
H	 0.5782738071	-3.0001420004	 1.1902224345	 0.103314
H	 1.8408251377	-2.5857023528	-1.2495403296	 0.132817
H	 0.0915567942	-2.7925143918	-1.1457629537	 0.104441
H	 0.0864471877	-0.5814573954	-2.1177230544	 0.106385
H	 1.6648988145	-0.2006286374	-1.432214658	 0.113917
H	 2.5255474638	-1.6157111839	 2.2574394127	 0.092954
66.4624	138.2871	165.4336	197.3257	280.8567	320.1594	365.6159	391.3143	439.6034	563.2038	620.8719	684.3509	722.5362	781.0511	798.2547	827.9443	918.4876	942.6613	949.2875	993.6541	1010.8893	1045.3267	1056.4712	1078.5676	1111.27	1118.6742	1159.7507	1192.5688	1209.2638	1264.0314	1282.1396	1306.8855	1336.5479	1340.3786	1384.8381	1401.2684	1420.9484	1483.816	1490.0142	1494.681	1496.4042	1521.0196	1831.0651	2907.5887	3004.8273	3030.2443	3041.1159	3071.623	3087.1526	3091.8959	3103.6917	3119.3429	3126.2441	3186.3788
CC12CN1C(CC2)C=O	C[C@]12CN1[C@@H](CC2)C=O	
InChI=1S/C7H11NO/c1-7-3-2-6(4-9)8(7)5-7/h4,6H,2-3,5H2,1H3	InChI=1S/C7H11NO/c1-7-3-2-6(4-9)8(7)5-7/h4,6H,2-3,5H2,1H3/t6-,7-,8?/m0/s1
