18
gdb 47547	2.86435	1.50954	1.07464	3.9604	72.47	-0.2449	0.0072	0.2521	1102.3949	0.149422	-439.084368	-439.076698	-439.075754	-439.116823	29.493	
O	 0.0082089518	-0.0376712634	 0.5324945242	-0.306997
C	-0.0607479845	 1.063097633	 0.0572177358	 0.396614
C	-1.3851972095	 1.8201467982	-0.0407659405	-0.357634
C	-1.7370678898	 2.3612734314	-1.4123878548	-0.00264
C	-2.2748897968	 3.7445214805	-1.5603688141	-0.263157
N	-0.9258080285	 3.419423063	-2.011504588	-0.07712
C	 0.2074127253	 3.8788121379	-1.2158341286	-0.187203
C	 1.2812493795	 2.8009857966	-1.1785100015	-0.049681
O	 1.094571485	 1.6847064951	-0.2908171167	-0.234247
H	-2.1518546725	 1.1175791949	 0.291377213	 0.139555
H	-1.3523471758	 2.6294748802	 0.6959344522	 0.12786
H	-2.0542373959	 1.60237965	-2.1251370476	 0.10621
H	-2.9885436311	 3.9846351064	-2.3434637293	 0.124045
H	-2.3844899507	 4.331508893	-0.6491730891	 0.112576
H	 0.6372786695	 4.7556183271	-1.7149406276	 0.117994
H	-0.0532452889	 4.1948448431	-0.193706393	 0.098731
H	 1.4163343257	 2.4064698711	-2.1922540962	 0.130137
H	 2.2283796272	 3.2376043419	-0.8514082281	 0.124956
80.9926	113.4993	244.9421	295.066	325.8427	357.329	444.1766	497.401	541.524	590.9092	667.1271	734.3311	812.7851	833.4063	899.8302	921.5951	957.126	1009.	1043.3357	1088.3469	1098.2376	1107.5078	1123.6943	1134.5108	1173.7989	1205.1548	1244.7451	1271.1079	1309.9484	1314.6729	1339.2899	1385.853	1417.2988	1430.8103	1468.1239	1497.8585	1500.34	1515.8226	1832.1142	2981.8147	3041.1561	3054.8728	3061.6794	3091.4064	3102.9877	3114.2271	3128.2953	3182.6679
O=C1CC2CN2CCO1	O=C1C[C@H]2CN2CCO1	
InChI=1S/C6H9NO2/c8-6-3-5-4-7(5)1-2-9-6/h5H,1-4H2	InChI=1S/C6H9NO2/c8-6-3-5-4-7(5)1-2-9-6/h5H,1-4H2/t5-,7?/m0/s1
