21
gdb 59345	2.87305	1.12233	1.03207	2.339	79.	-0.2407	-0.0222	0.2185	1298.0773	0.180478	-424.244962	-424.235023	-424.234079	-424.279997	36.7	
C	-0.0936564733	 1.5800447267	 0.1194155964	-0.415993
C	-0.0137049784	 0.0524617721	 0.0835707846	 0.113255
O	-1.2988154737	-0.5433679961	 0.2405480167	-0.441801
C	 0.6624924353	-0.4577512967	-1.1936611113	-0.10706
C	 0.8519247616	-1.9929778993	-1.4116489367	-0.282143
C	 0.3103440849	-1.8687531609	-2.874998747	-0.078727
C	-0.6777210989	-2.881685934	-3.4336503098	-0.408305
C	-0.2213938218	-0.4947059486	-2.4528070569	 0.382517
O	-1.1573579097	 0.1712158479	-2.8092219819	-0.327627
H	 0.905152795	 2.0290138827	 0.1120996575	 0.111829
H	-0.6397690296	 1.9533445535	-0.75330674	 0.138047
H	-0.6137947393	 1.905899946	 1.0242284618	 0.123377
H	 0.5624365697	-0.3029473672	 0.9469054708	 0.091527
H	-1.8669134195	-0.1697089252	-0.4446848372	 0.291057
H	 1.5933161947	 0.0883185857	-1.3857030251	 0.096258
H	 1.8635933949	-2.3831544397	-1.2960187995	 0.104261
H	 0.1611146397	-2.5562520047	-0.7798003084	 0.129027
H	 1.1509421172	-1.7230016921	-3.5660929931	 0.100828
H	-1.5160740181	-3.0276755189	-2.7452724623	 0.126919
H	-1.0855993209	-2.5378334426	-4.3888748774	 0.132787
H	-0.1983118499	-3.8519268384	-3.5964065612	 0.119965
54.2841	82.5369	139.1003	180.0122	206.9899	223.6267	259.0452	326.2489	338.9171	431.833	453.3227	486.5951	540.7467	628.0007	688.696	754.3323	816.6481	877.2044	916.8427	929.2469	965.1228	993.6109	1011.967	1056.0445	1074.0457	1104.1411	1135.9547	1144.6855	1164.731	1221.4225	1240.7228	1252.2783	1292.0395	1333.3853	1344.0825	1357.2124	1403.1457	1406.4464	1432.1666	1483.31	1492.4509	1494.2131	1495.0377	1503.5132	1854.4079	3027.7754	3033.2878	3035.2074	3038.2109	3050.6721	3075.8658	3107.2	3108.7153	3112.6919	3120.5424	3138.494	3781.5186
CC(O)C1CC(C)C1=O	C[C@@H](O)[C@H]1C[C@@H](C)C1=O	
InChI=1S/C7H12O2/c1-4-3-6(5(2)8)7(4)9/h4-6,8H,3H2,1-2H3	InChI=1S/C7H12O2/c1-4-3-6(5(2)8)7(4)9/h4-6,8H,3H2,1-2H3/t4-,5-,6-/m1/s1
