14
gdb 15464	2.92806	2.07341	1.48084	4.7291	62.63	-0.2796	-0.0052	0.2745	848.7388	0.10924	-378.753255	-378.746297	-378.745353	-378.784854	25.187	
N	-0.0501516687	 1.2290904746	-0.3624343218	-0.523534
C	-0.016631974	 0.0181523468	-0.0246299939	 0.419634
O	 1.0953491548	-0.7005183015	 0.2897913335	-0.231236
C	 0.7542414012	-2.057572627	 0.6272067694	-0.087414
C	-0.6158668846	-2.2976680217	-0.016798968	-0.245491
C	-1.2491139387	-0.8906552669	 0.0679150608	-0.234401
C	-1.9565505341	-0.6822092759	 1.3325548417	 0.285255
N	-2.5095618085	-0.5510744267	 2.3386420233	-0.318253
H	 0.8852686335	 1.6387995695	-0.3541571509	 0.233987
H	 1.5416786452	-2.7062762274	 0.2397061059	 0.133143
H	 0.7153452151	-2.1532143406	 1.7182981214	 0.137886
H	-0.5007654472	-2.5740460066	-1.0681429963	 0.131878
H	-1.1973617971	-3.0688478336	 0.4886831856	 0.140636
H	-1.9303304971	-0.6678642129	-0.7550169608	 0.15791
83.6502	149.892	170.5919	259.1679	410.9804	450.8051	526.7099	659.0205	672.276	679.1288	837.9729	870.1309	894.6011	924.0166	957.6958	993.1238	1041.5279	1097.0774	1125.6559	1186.8254	1216.6612	1262.3871	1274.5635	1319.2136	1345.7031	1406.7531	1489.8486	1521.7017	1786.1013	2360.4907	3046.5938	3075.827	3108.7631	3120.2877	3143.65	3481.4326
N=C1OCCC1C#N	[NH][C]1OCC[C@H]1C#N	
InChI=1S/C5H6N2O/c6-3-4-1-2-8-5(4)7/h4,7H,1-2H2	InChI=1S/C5H6N2O/c6-3-4-1-2-8-5(4)7/h4,7H,1-2H2/t4-/m0/s1
