15
gdb 112389	2.37294	1.54818	0.99513	1.6115	65.05	-0.2752	-0.0161	0.2591	1144.2223	0.11299	-491.133334	-491.125078	-491.124134	-491.166892	29.425	
C	-0.1334103093	 1.3518302392	 0.0915195305	-0.246774
O	-0.020028642	-0.0672368304	 0.0531372014	-0.21611
C	 0.6999586991	-0.6000076971	 1.0948531647	 0.150394
O	-0.0289321194	-0.5161623391	 2.3413888479	-0.248819
C	-0.4231444596	-1.7518571321	 2.7493583658	 0.490935
O	-1.0989149967	-1.974056249	 3.70840671	-0.371387
N	 0.1228757702	-2.681349014	 1.868491255	-0.419551
C	 0.8791236648	-2.100517755	 0.8666902404	 0.366628
N	 1.5830799038	-2.5862947224	-0.0629252101	-0.520362
H	 0.8590174107	 1.822773895	 0.1156672487	 0.120241
H	-0.649977018	 1.6459703174	-0.8229800133	 0.142679
H	-0.7110175459	 1.6814447331	 0.9618755362	 0.140364
H	 1.6530192883	-0.0779176822	 1.2488176656	 0.112416
H	-0.0183551836	-3.6686705636	 2.0061052566	 0.277297
H	 1.5682216877	-3.6072063897	-0.0691946093	 0.222048
74.3303	113.0078	135.6005	175.0913	223.2136	322.5745	417.434	469.6075	504.5043	588.124	634.0457	672.0914	748.7372	770.2749	874.7466	938.1612	958.0443	999.3703	1019.878	1107.0831	1158.5104	1177.1568	1193.2811	1234.1198	1352.5904	1364.148	1375.002	1411.8339	1479.6175	1486.7957	1508.2019	1792.1754	1913.727	3008.3401	3035.3816	3082.4985	3144.1134	3469.5539	3664.0329
COC1OC(=O)NC1=N	CO[C@H]1OC(=O)N[C]1[NH]	
InChI=1S/C4H6N2O3/c1-8-3-2(5)6-4(7)9-3/h3H,1H3,(H2,5,6,7)	InChI=1S/C4H6N2O3/c1-8-3-2(5)6-4(7)9-3/h3H,1H3,(H2,5,6,7)/t3-/m0/s1
