20
gdb 91664	2.42135	1.84501	1.41722	3.0786	78.22	-0.2412	0.0721	0.3134	996.9625	0.174021	-403.10753	-403.100247	-403.099303	-403.138778	30.618	
O	-0.0434652293	 1.4012176924	-0.0015534415	-0.456549
C	-0.0384622634	-0.0083827654	 0.0296879307	 0.166893
C	 0.4728586383	-0.6398738059	 1.3811102503	-0.256216
C	-0.8025451578	-1.4010439268	 1.8056078357	-0.122369
C	-1.2079111693	-2.0893396167	 0.4647019118	-0.235541
C	-1.4552390883	-0.6240613272	-0.0011876161	-0.135459
C	-1.8853933108	-0.3708249018	 1.4532236283	 0.429703
C	-3.2114953543	-0.1245678506	 2.0304698948	-0.356605
N	-2.1621219797	 0.9362781904	 2.04702072	-0.409933
H	-0.7420654691	 1.6961359011	 0.601064749	 0.293529
H	 0.5706679336	-0.3277196979	-0.8207487787	 0.077916
H	 1.3272401339	-1.3091176387	 1.2446437199	 0.097433
H	 0.7646397624	 0.1500479988	 2.0789185098	 0.097613
H	-0.7960711247	-1.9353297396	 2.7564875247	 0.062437
H	-0.4362930967	-2.6618310861	-0.0569458444	 0.095238
H	-2.1294666146	-2.6696613847	 0.5415138401	 0.103119
H	-2.0873240494	-0.3705473973	-0.8511677785	 0.070338
H	-4.063214173	 0.0900104406	 1.3907673913	 0.12661
H	-3.464286411	-0.596499325	 2.9765400954	 0.117459
H	-1.7530126567	 0.9963247704	 2.9773962771	 0.234384
162.5083	195.6991	259.5274	334.1473	374.4305	419.245	475.2758	543.3189	558.7237	612.4264	707.8144	818.2083	827.0035	840.037	875.4884	906.6435	920.6666	940.5412	954.6402	968.4272	983.0776	1014.8497	1033.3351	1054.2914	1077.1812	1103.1224	1134.5932	1139.035	1167.9874	1203.5314	1218.7931	1245.8979	1256.3131	1259.6532	1270.7361	1303.5578	1319.8037	1343.396	1436.002	1467.8318	1486.5947	1504.1473	1524.4713	3053.0343	3060.9076	3067.882	3103.558	3105.9695	3107.1611	3124.6808	3130.0858	3191.7709	3484.4698	3713.8514
OC1CC2CC1C21CN1	O[C@H]1C[C@@H]2C[C@H]1[C@]12CN1	
InChI=1S/C7H11NO/c9-6-2-4-1-5(6)7(4)3-8-7/h4-6,8-9H,1-3H2	InChI=1S/C7H11NO/c9-6-2-4-1-5(6)7(4)3-8-7/h4-6,8-9H,1-3H2/t4-,5+,6-,7+/m0/s1
