20
gdb 19525	3.49676	1.5871	1.51203	1.4649	74.22	-0.2431	0.0813	0.3244	971.3201	0.178836	-348.999558	-348.991829	-348.990885	-349.031608	29.503	
C	-0.0314216572	 1.5235193167	-0.2126658619	-0.372612
C	-0.0015368442	 0.0706964532	 0.2788393951	-0.214543
C	-1.3509222438	-0.6105552562	 0.1386269718	 0.0049
C	-1.8532724727	-1.2752703873	-1.1256942001	-0.078738
C	-0.8360667745	-1.7267186513	-2.1576176364	-0.094128
O	 0.1693514165	-2.4488921147	-1.4484213188	-0.252291
C	-0.4015070787	-3.0000012046	-0.262999147	-0.092016
C	-1.5698905417	-2.1061407142	 0.1091955236	-0.10107
H	 0.9435813517	 2.0045105334	-0.0861351903	 0.110187
H	-0.2964511503	 1.5762582761	-1.2739658082	 0.115798
H	-0.7693470982	 2.1162091495	 0.3400305476	 0.109529
H	 0.7630432386	-0.4893989608	-0.2653337573	 0.125261
H	 0.2927568913	 0.0532822954	 1.3366474687	 0.091806
H	-2.141307214	-0.0836900387	 0.6718708323	 0.079679
H	-2.8658035158	-1.0857278335	-1.463696708	 0.085083
H	-1.3286667525	-2.3663045613	-2.907961219	 0.092017
H	-0.3299481713	-0.9119456022	-2.6876021131	 0.107316
H	-0.7615605632	-4.0270177408	-0.4367290471	 0.091753
H	 0.3963919176	-3.042476534	 0.4868804473	 0.106585
H	-2.3694924975	-2.5391777148	 0.6997451608	 0.085486
90.6205	145.7271	198.4992	228.786	262.7538	291.2403	477.1078	493.311	687.2216	721.3446	764.8699	783.6938	817.734	894.808	918.8631	947.9405	976.2155	989.2027	1015.8689	1033.0044	1077.1293	1086.8561	1117.8311	1126.0199	1133.4593	1145.2168	1224.8798	1227.9486	1247.2479	1300.6305	1327.7823	1340.4924	1359.7051	1367.08	1403.7576	1410.792	1455.4504	1496.2514	1497.558	1511.7014	1516.4467	1525.1589	2969.7309	2975.7663	3021.1554	3029.0826	3055.6988	3058.7768	3084.018	3102.4846	3102.985	3117.6651	3167.0318	3177.4627
CCC1C2COCC12	CC[C@H]1[C@H]2COC[C@@H]12	
InChI=1S/C7H12O/c1-2-5-6-3-8-4-7(5)6/h5-7H,2-4H2,1H3	InChI=1S/C7H12O/c1-2-5-6-3-8-4-7(5)6/h5-7H,2-4H2,1H3/t5-,6+,7-
