17
gdb 65403	3.50369	0.99812	0.90745	5.0365	70.71	-0.2441	-0.0176	0.2265	1294.1961	0.133213	-458.926642	-458.91773	-458.916786	-458.960671	32.514	
O	-0.1851047213	 1.6082438171	-0.2597753684	-0.455057
C	 0.0536798766	 0.2397875877	-0.0744983865	 0.350396
C	-0.3006287013	-0.3947700068	 1.2265675336	-0.370235
C	-1.1864316321	-0.6309231553	-0.0032009444	-0.147669
C	-2.5332101376	-0.0082013707	-0.0355137622	 0.167924
O	-3.4943470973	-0.5164701581	-0.5586325583	-0.269819
C	 1.2216720879	-0.2667948625	-0.8721223591	 0.006413
C	 2.550353146	-0.4531129838	-0.2678507657	-0.180983
O	 1.7019779928	-1.5685171707	-0.554511017	-0.223818
H	 0.5105285006	 2.0956627768	 0.1962630434	 0.290013
H	 0.2800488361	-1.2422446081	 1.5701180539	 0.145423
H	-0.7033388242	 0.2562179403	 1.9955820577	 0.125068
H	-1.1254672227	-1.6050375189	-0.4753943809	 0.125028
H	-2.6018789621	 0.9757766869	 0.4744911087	 0.08155
H	 1.1639545037	-0.0442081341	-1.9380763736	 0.111661
H	 3.4413284251	-0.3751774325	-0.8879507668	 0.12655
H	 2.6919310498	-0.2407899572	 0.7907922358	 0.117555
71.7253	90.7077	146.4241	202.0053	245.6621	290.0118	308.9671	365.7273	417.7626	446.1911	522.4598	607.3243	672.8013	857.9371	872.6628	880.021	895.3809	933.5572	990.9825	1034.9871	1046.9785	1074.203	1080.7975	1105.8018	1153.8318	1172.1452	1177.5637	1229.6857	1249.0305	1295.115	1324.8873	1382.0173	1428.5095	1442.3691	1473.2762	1522.1809	1816.4383	2910.7351	3088.7026	3111.7184	3137.7146	3179.9508	3186.2216	3237.8276	3792.8732
OC1(CC1C=O)C1CO1	O[C@]1(C[C@H]1C=O)[C@H]1CO1	
InChI=1S/C6H8O3/c7-2-4-1-6(4,8)5-3-9-5/h2,4-5,8H,1,3H2	InChI=1S/C6H8O3/c7-2-4-1-6(4,8)5-3-9-5/h2,4-5,8H,1,3H2/t4-,5+,6-/m0/s1
