21
gdb 119651	3.69635	1.01108	0.91283	1.8756	82.62	-0.2286	0.0797	0.3083	1375.6676	0.181782	-387.003842	-386.99533	-386.994386	-387.037538	32.694	
C	-0.0330352956	 1.5747812629	-0.0354243922	-0.37974
C	 0.0165586465	 0.0449234638	-0.0220147831	-0.163421
C	-1.3733456551	-0.5963129638	 0.0981716107	-0.337577
C	-1.3451403912	-2.0995226199	 0.1103469218	 0.335601
C	-0.6767292563	-3.0922297375	 1.0958664882	-0.325891
C	-1.3508680933	-4.0305796747	 0.0730724389	-0.097716
C	-2.5580806853	-3.0659491075	-0.1210511781	 0.037517
O	-2.4636732883	-3.0309996494	-1.577360482	-0.331369
C	-1.0814546171	-3.0537945469	-1.1095876374	 0.057034
H	 0.9687807792	 2.006157159	-0.1252144856	 0.111286
H	-0.6318770689	 1.9435779062	-0.8755104343	 0.116724
H	-0.4822600466	 1.9638332729	 0.8851637552	 0.114034
H	 0.500784281	-0.3157453541	-0.9385626142	 0.097834
H	 0.6468214428	-0.2949986227	 0.8096471864	 0.098817
H	-1.8642954168	-0.2350482769	 1.0125269916	 0.095695
H	-2.0044097741	-0.27613658	-0.7417190947	 0.111629
H	 0.4168576117	-3.1014791698	 1.119209638	 0.099025
H	-1.076881178	-3.111123722	 2.1141711773	 0.096839
H	-1.3729913317	-5.1187183745	 0.0245921207	 0.082648
H	-3.5457288926	-3.0731711207	 0.3410653636	 0.090357
H	-0.2785538403	-3.0499807145	-1.8471784608	 0.090673
72.8017	80.0302	127.3751	239.889	260.6518	312.8738	337.5054	421.57	570.8738	698.0751	726.9416	752.9618	777.4229	819.1775	838.3301	865.2161	882.0368	900.7687	915.6736	933.5598	979.6492	1004.556	1046.0161	1057.4729	1078.9708	1091.4437	1132.8908	1145.3803	1163.3573	1168.8568	1176.0656	1223.0287	1242.5836	1277.5763	1303.3583	1313.1683	1332.834	1361.5427	1398.2817	1410.4465	1475.8361	1491.5364	1498.6085	1509.0853	1517.5724	3006.4421	3021.1244	3029.4963	3037.7199	3045.973	3060.2639	3096.9372	3100.5331	3102.306	3112.5585	3113.7023	3132.0835
CCCC12CC3C1OC23	CCC[C@@]12C[C@H]3[C@@H]1O[C@@H]23	
InChI=1S/C8H12O/c1-2-3-8-4-5-6(8)9-7(5)8/h5-7H,2-4H2,1H3	InChI=1S/C8H12O/c1-2-3-8-4-5-6(8)9-7(5)8/h5-7H,2-4H2,1H3/t5-,6-,7+,8+
