18
gdb 108804	3.36849	1.06634	0.86405	3.6348	75.19	-0.2237	-0.0129	0.2108	1347.4661	0.147196	-439.131755	-439.122667	-439.121723	-439.165902	33.446	
C	 0.1202818747	 1.5616655834	-0.0987764539	-0.372966
C	-0.0533402939	 0.0392064986	 0.0480935673	-0.29966
C	 0.604678966	-0.5207047846	 1.2668387692	 0.365409
C	 0.0686123579	-1.0691439264	 2.3647599002	-0.252362
C	 1.1620341946	-1.3866730093	 3.3458511964	 0.004312
O	 1.1714496266	-2.7186013592	 3.8151215386	-0.433531
C	 2.4398075909	-1.0869916486	 2.5309546106	 0.377038
O	 3.5689074278	-1.3931807482	 2.8409652583	-0.376982
N	 2.01975703	-0.4650253879	 1.3776963024	-0.379986
H	 1.1763755614	 1.8429293322	-0.1541445378	 0.121008
H	-0.3700554669	 1.9173455326	-1.0092748017	 0.12335
H	-0.318803512	 2.0856332717	 0.7550318926	 0.130681
H	-1.116819936	-0.213699766	 0.0893651605	 0.123838
H	 0.3524930501	-0.4600211729	-0.8431273594	 0.112929
H	-0.9865166786	-1.1907602993	 2.5578621818	 0.109059
H	 1.1331023043	-0.6759041587	 4.1927725849	 0.097695
H	 2.0871182635	-2.9017426204	 4.0671735346	 0.292614
H	 2.6422548897	-0.311434357	 0.5991687155	 0.257554
65.1931	113.1931	124.7329	198.6886	234.5037	249.5826	316.6217	372.1686	454.6322	507.9862	538.5408	564.1116	647.6088	683.7332	737.9884	778.8025	797.1201	879.9493	935.9773	993.9527	1017.2641	1066.5538	1089.4374	1110.0007	1183.8521	1215.5836	1230.6921	1272.2462	1314.8149	1346.7265	1362.4014	1402.841	1409.4417	1425.6217	1478.6516	1497.1477	1506.5941	1710.3486	1838.3716	2928.9498	3013.5702	3043.2362	3084.3482	3116.0744	3120.2392	3247.8295	3629.9885	3753.6264
CCC1=CC(O)C(=O)N1	CCC1=C[C@@H](O)C(=O)N1	
InChI=1S/C6H9NO2/c1-2-4-3-5(8)6(9)7-4/h3,5,8H,2H2,1H3,(H,7,9)	InChI=1S/C6H9NO2/c1-2-4-3-5(8)6(9)7-4/h3,5,8H,2H2,1H3,(H,7,9)/t5-/m1/s1
