19
gdb 113684	2.5027	1.2518	1.00616	2.3483	73.82	-0.2425	0.0261	0.2686	1248.3758	0.158878	-456.31398	-456.30453	-456.303586	-456.348645	34.215	
C	-0.3172199431	 0.9468800226	 0.7273374945	-0.225348
O	-0.3087169479	-0.405572014	 0.2602954498	-0.22281
C	-1.4785695237	-0.8769663576	-0.1984044235	 0.434818
N	-2.5542585297	-0.1888107841	-0.1500096516	-0.588173
N	-1.3482599419	-2.1447989409	-0.7709713231	-0.13003
C	-0.4009162406	-3.1397339032	-0.2987033922	-0.254886
C	-1.8689992149	-3.3396985862	-0.0948718264	-0.027555
C	-2.4403383233	-3.2292711605	 1.3059407621	-0.083021
O	-3.7480609713	-2.6901478659	 1.3347302188	-0.423491
H	 0.7165147412	 1.1717244159	 0.9923968832	 0.1292
H	-0.6737342264	 1.6202650885	-0.0556776597	 0.145752
H	-0.9693526403	 1.0508710431	 1.5983194461	 0.138918
H	-3.2985606116	-0.6919207152	-0.6300241685	 0.231117
H	 0.1249519701	-3.6827037629	-1.0787019155	 0.126401
H	 0.1976039218	-2.8924848727	 0.5736272763	 0.134617
H	-2.4096848193	-4.0119850482	-0.7576684231	 0.107822
H	-2.5062014371	-4.2349563025	 1.7366382903	 0.115419
H	-1.7494196971	-2.6501361247	 1.9372080066	 0.098956
H	-3.6606991948	-1.7381382116	 1.199440456	 0.292295
57.1106	121.1961	133.6218	173.9937	182.1179	204.1901	277.6318	343.4234	386.8664	481.2943	521.1759	536.7742	557.6533	756.6024	806.0613	832.112	880.5446	898.4964	967.9184	989.1097	1047.6625	1078.0767	1101.9741	1120.6119	1131.4059	1141.0362	1167.3703	1181.8735	1217.0091	1251.1651	1302.454	1363.7269	1397.7749	1426.2343	1437.5731	1475.0461	1483.2743	1488.2694	1500.2674	1511.8352	1686.8472	2992.2698	3051.2491	3065.1715	3115.221	3127.6659	3136.2614	3154.2722	3203.0637	3507.7953	3767.0806
COC(=N)N1CC1CO	CO[C]([NH])N1C[C@H]1CO	
InChI=1S/C5H10N2O2/c1-9-5(6)7-2-4(7)3-8/h4,6,8H,2-3H2,1H3	InChI=1S/C5H10N2O2/c1-9-5(6)7-2-4(7)3-8/h4,6,8H,2-3H2,1H3/t4-,7?/m0/s1
