20
gdb 12781	3.48716	1.51886	1.27834	1.7704	74.86	-0.2425	0.0885	0.331	1055.7552	0.17576	-348.981538	-348.97302	-348.972076	-349.014303	32.031	
C	 0.0534036521	 1.5343277842	 0.144230604	-0.381577
C	-0.1346955715	 0.0381948574	-0.1266777725	-0.190514
C	 0.7153933157	-0.4754255215	-1.2833469223	-0.032608
C	 2.27952179	-0.554186233	-1.1032810954	-0.266326
C	 2.1842261379	-2.0591965705	-1.3728848223	-0.039576
O	 1.3081243908	-2.6075248714	-0.3753088909	-0.290557
C	 0.7212338972	-2.0020300608	-1.5404174454	 0.405537
C	-0.2436920823	-2.8117094589	-2.3438507089	-0.505486
H	 1.0958879157	 1.7668516077	 0.3873013468	 0.117486
H	-0.222947375	 2.1350491216	-0.7298034398	 0.110022
H	-0.564593733	 1.865864164	 0.9844719255	 0.112298
H	 0.1143880276	-0.5414719658	 0.7689976435	 0.112382
H	-1.1930106996	-0.1616056491	-0.3428096808	 0.090338
H	 0.4732329319	 0.0639728453	-2.2067646136	 0.067419
H	 2.8267761958	-0.0011783734	-1.870331058	 0.101718
H	 2.6710587268	-0.293103073	-0.1162605165	 0.106736
H	 2.9211313247	-2.7305205019	-1.8006362202	 0.097104
H	-1.2212859029	-2.8582571328	-1.8502986369	 0.130243
H	-0.3900213846	-2.3710329314	-3.3355180405	 0.122076
H	 0.1232529627	-3.8345890165	-2.4640723159	 0.133282
94.3414	147.0359	157.3499	199.3102	239.2698	270.8217	310.0907	410.4683	455.3469	552.0238	639.5813	718.2536	777.8799	808.731	864.5384	894.2654	909.2332	956.1765	967.0487	993.7062	1036.6796	1062.2578	1093.159	1119.5632	1129.4581	1189.5416	1203.9851	1223.066	1261.7307	1275.9539	1292.2103	1338.2911	1382.1261	1404.277	1411.8405	1456.7467	1476.66	1485.8186	1490.6453	1496.3441	1500.8026	1507.4502	3016.5069	3028.9011	3031.4192	3036.5772	3060.4876	3068.5111	3092.9756	3097.1909	3101.8078	3116.9615	3118.6093	3175.6569
CCC1CC2OC12C	CC[C@H]1C[C@H]2O[C@@]12C	
InChI=1S/C7H12O/c1-3-5-4-6-7(5,2)8-6/h5-6H,3-4H2,1-2H3	InChI=1S/C7H12O/c1-3-5-4-6-7(5,2)8-6/h5-6H,3-4H2,1-2H3/t5-,6+,7-/m0/s1
