25
gdb 87676	3.01983	1.07257	0.95969	0.1209	93.8	-0.2538	0.0815	0.3353	1408.0843	0.227242	-352.347986	-352.337859	-352.336915	-352.382644	39.532	
C	 0.0590381993	 1.4967969308	-0.2282683109	-0.405407
C	 0.100113056	-0.0073524033	-0.081058363	-0.04581
C	 1.4173727678	-0.7489802362	-0.1446221415	-0.366137
C	 0.6632963124	-0.6655725481	 1.1514271949	 0.385975
C	 1.0774188765	 0.0291054476	 2.4550316871	-0.348428
C	 0.158339434	-0.968141972	 3.2419285321	 0.369576
C	 0.8190309132	-1.685342867	 4.4148542733	-0.451442
C	-1.1620406099	-0.3217065494	 3.6633329145	-0.437617
C	 0.0094515903	-1.8128506436	 1.9297374765	-0.347733
H	 0.9368434252	 1.9645257891	 0.2293973474	 0.115727
H	 0.0433955027	 1.7895809172	-1.2840782939	 0.115306
H	-0.8303275155	 1.9255505458	 0.2485121803	 0.113156
H	-0.7473517752	-0.5243556072	-0.5278866849	 0.077284
H	 1.4546649946	-1.7052508707	-0.6579777388	 0.104092
H	 2.3229901018	-0.1561827578	-0.2435199609	 0.10329
H	 2.1392065931	-0.0973525441	 2.6919445814	 0.089957
H	 0.8258731196	 1.0897419272	 2.5556978035	 0.091823
H	 1.0330082374	-0.9892050553	 5.2347605236	 0.109378
H	 0.1701598417	-2.4752635137	 4.8118347207	 0.109499
H	 1.7649103771	-2.1494832011	 4.115749686	 0.10789
H	-1.6378077279	 0.1945334842	 2.8226061523	 0.114026
H	-1.867444994	-1.073773256	 4.0358268161	 0.108434
H	-1.0037029729	 0.4138083074	 4.4607727921	 0.108288
H	-1.0127950682	-2.0834639256	 1.6448731149	 0.089115
H	 0.6175962808	-2.7239644881	 1.9445576376	 0.089755
42.519	142.8132	181.2739	198.4553	233.127	264.9003	294.8112	318.5655	322.7622	370.91	419.46	426.9559	460.5149	512.3907	692.2048	769.5305	835.928	845.4905	873.5842	876.3417	919.5932	932.7381	936.3045	961.7001	992.5023	998.3943	1039.3607	1048.0118	1101.3886	1107.0212	1128.9573	1166.9117	1182.5454	1193.0287	1208.3088	1239.4301	1248.0538	1293.4556	1310.5228	1336.0519	1401.2075	1408.1428	1418.6632	1428.623	1473.8334	1484.36	1485.104	1489.5461	1492.1999	1497.7518	1501.2596	1504.9328	1507.4759	3014.9122	3019.234	3022.7154	3028.5933	3036.0906	3076.4915	3078.8451	3081.7124	3081.9397	3085.5443	3090.6983	3092.3286	3093.2556	3110.7424	3120.5572	3194.1912
CC1CC11CC(C)(C)C1	C[C@H]1CC21CC(C)(C)C2	
InChI=1S/C9H16/c1-7-4-9(7)5-8(2,3)6-9/h7H,4-6H2,1-3H3	InChI=1S/C9H16/c1-7-4-9(7)5-8(2,3)6-9/h7H,4-6H2,1-3H3/t7-/m0/s1
