19
gdb 75722	2.17505	1.77705	1.29243	4.5174	78.08	-0.2232	0.0221	0.2452	1067.9937	0.158346	-419.174394	-419.16536	-419.164416	-419.208237	33.038	
C	-0.3168159235	 1.3303635086	 0.0704236323	-0.357474
N	-0.294772684	-0.1086107749	-0.0072817445	-0.102149
C	 0.1465152423	-0.9336758095	-1.0450387796	 0.380809
N	 0.3233354659	-0.82260392	-2.2925783583	-0.56936
C	 0.4047544809	-2.074412278	-0.0627195365	-0.044108
O	 1.7663427251	-2.060457126	 0.419851248	-0.282736
C	 1.4355607646	-1.1720075562	 1.508652082	-0.121701
C	-0.0473815274	-1.0886516924	 1.0599070175	 0.284155
C	-1.1536165016	-1.2811930987	 2.0682809499	-0.486569
H	 0.6443840838	 1.7560908295	 0.394849945	 0.125226
H	-0.5503059483	 1.7350512177	-0.9186525226	 0.140085
H	-1.096619449	 1.6668907241	 0.7611792453	 0.13379
H	 0.1320506128	 0.1246186984	-2.625713057	 0.206856
H	 0.0186979131	-3.0752047052	-0.2570748297	 0.097188
H	 1.5873574577	-1.6626372123	 2.4782965545	 0.104997
H	 2.0068934484	-0.2365107853	 1.4814578192	 0.103307
H	-1.2349632182	-0.4136487191	 2.7341398862	 0.124663
H	-2.1165204854	-1.4135229601	 1.5666884609	 0.131725
H	-0.9606384872	-2.1583553304	 2.6928574174	 0.131297
84.8829	102.9796	130.8625	194.153	216.0429	239.0367	284.833	329.2323	426.47	485.5818	616.6723	670.3051	680.6576	785.1876	828.0073	845.2474	877.7472	936.5435	969.9265	995.3405	1003.8069	1026.8974	1137.104	1140.4076	1150.516	1171.174	1180.7437	1230.7355	1235.234	1283.5762	1307.4876	1366.3217	1376.5443	1413.2069	1449.681	1481.6224	1486.5941	1492.9655	1507.7747	1514.2893	1783.795	2992.2807	3014.2392	3031.6332	3062.7896	3070.3391	3095.8896	3110.1956	3119.1154	3120.0577	3449.1182
CN1C(=N)C2OCC12C	CN1[C]([NH])[C@H]2OC[C@@]12C	
InChI=1S/C6H10N2O/c1-6-3-9-4(6)5(7)8(6)2/h4,7H,3H2,1-2H3	InChI=1S/C6H10N2O/c1-6-3-9-4(6)5(7)8(6)2/h4,7H,3H2,1-2H3/t4-,6-/m1/s1
