19
gdb 77980	2.54543	1.5168	1.296	2.7413	76.03	-0.2296	-0.0003	0.2293	1067.4091	0.158715	-423.012109	-423.003587	-423.002643	-423.04442	33.999	
C	-0.2467288482	 1.5452741235	 0.0308263657	-0.399319
C	 0.0449566108	 0.0342896821	-0.0176703096	-0.040216
C	 0.9168347867	-0.4021558081	-1.184319029	-0.085642
C	 1.933757186	-1.1822517864	-0.8046150424	-0.212019
C	 1.9805875241	-1.3528370642	 0.6819730793	 0.314285
O	 2.4173125808	-2.5549436354	 1.2315167986	-0.465987
C	 2.2399994631	-0.0905504054	 1.4443705486	 0.093527
O	 2.8418214855	 1.0409680807	 0.8936921508	-0.423111
C	 0.7968102106	-0.5093936516	 1.1993544011	-0.202172
H	 0.6733467029	 2.115971567	 0.1722556256	 0.139553
H	-0.7333209208	 1.8794026185	-0.8919578268	 0.106933
H	-0.9172683903	 1.7774487141	 0.8638257301	 0.11754
H	-0.9223719325	-0.4836404148	-0.1044094344	 0.085638
H	 0.7110843302	-0.0889280004	-2.2028777427	 0.100638
H	 2.6777764203	-1.6315458442	-1.4534987878	 0.105747
H	 1.7962942974	-3.2446701223	 0.9693529124	 0.280128
H	 2.5796372931	-0.2443027599	 2.4639945673	 0.116258
H	 2.8270256742	 0.9383607885	-0.0664508441	 0.281203
H	 0.2327870361	-0.8288727318	 2.0687944975	 0.087014
160.2102	173.7341	245.3338	267.1092	275.1916	297.8554	346.2211	348.5317	389.1636	476.0221	540.6401	610.0912	654.563	719.7613	736.1964	792.4253	824.6864	892.3382	912.1486	942.7806	975.7864	996.8855	1031.0414	1056.502	1089.6588	1116.6868	1117.9282	1145.2327	1216.3134	1239.8633	1286.2585	1311.6414	1323.8426	1340.2335	1366.8848	1384.5003	1413.307	1465.8191	1497.7934	1510.3387	1656.4823	2982.4731	3038.282	3100.9516	3137.2707	3163.7156	3174.2534	3177.7867	3203.0728	3762.3408	3779.5043
CC1C=CC2(O)C(O)C12	C[C@H]1C=C[C@@]2(O)[C@@H](O)[C@@H]12	
InChI=1S/C7H10O2/c1-4-2-3-7(9)5(4)6(7)8/h2-6,8-9H,1H3	InChI=1S/C7H10O2/c1-4-2-3-7(9)5(4)6(7)8/h2-6,8-9H,1H3/t4-,5+,6-,7-/m0/s1
