21
gdb 105241	1.7969	1.52541	1.0409	2.8849	78.8	-0.257	0.0698	0.3268	1259.9623	0.180637	-424.183907	-424.174002	-424.173058	-424.218832	36.306	
C	 2.2224038375	 0.0313076466	-0.9514495781	-0.422607
C	 1.2443217779	-0.8568077633	-0.2117398454	-0.048776
C	 1.6794720586	-1.7622581507	 0.9139597307	-0.32395
C	 0.7579931714	-0.5948776794	 1.1981279668	 0.305714
C	 1.2911908785	 0.5635613387	 2.0086028466	-0.157645
O	 1.2333795769	 0.1984822411	 3.3852865359	-0.423102
C	-0.6790845847	-0.9101682892	 1.5179765659	 0.01646
C	-1.7971720826	-0.4303652676	 0.6931910066	-0.186387
O	-1.3720492814	-1.7958013946	 0.6370063525	-0.238105
H	 3.036596261	 0.3803274845	-0.3100014751	 0.115596
H	 2.6796042798	-0.5199984041	-1.7804827687	 0.121296
H	 1.7290738796	 0.913287045	-1.3758789806	 0.114302
H	 0.4734489001	-1.2887492943	-0.8440649674	 0.104027
H	 1.2612417533	-2.7617476288	 0.958409892	 0.122256
H	 2.7025787316	-1.6823339619	 1.2683180466	 0.108538
H	 2.3225843521	 0.7963225406	 1.7102472916	 0.085772
H	 0.6819094484	 1.4624921594	 1.819125885	 0.085839
H	 1.4599161602	 0.9723538331	 3.909418379	 0.287087
H	-0.8712208626	-1.095357574	 2.5739695786	 0.108882
H	-2.7765751869	-0.2670228255	 1.1401820061	 0.11476
H	-1.5865951386	 0.1554149743	-0.2005542185	 0.110044
70.3998	98.7466	144.1631	158.7925	200.9151	211.7916	250.0013	280.5832	313.7521	402.6708	458.9501	515.7719	569.2256	668.2137	794.0573	869.9061	881.657	893.8441	929.6146	960.1281	962.8323	1009.905	1059.4762	1067.7549	1074.7317	1099.2992	1124.4233	1143.1104	1154.2732	1180.5646	1193.7568	1230.9084	1246.1112	1282.5284	1306.1328	1328.7882	1406.5068	1412.8388	1441.5185	1461.0059	1486.5998	1494.3063	1505.9596	1516.6124	1524.0017	2966.4521	3016.0642	3029.3019	3083.8955	3085.9945	3102.4353	3123.3895	3127.7949	3150.9466	3172.089	3216.4101	3828.6209
CC1CC1(CO)C1CO1	C[C@H]1C[C@]1(CO)[C@H]1CO1	
InChI=1S/C7H12O2/c1-5-2-7(5,4-8)6-3-9-6/h5-6,8H,2-4H2,1H3	InChI=1S/C7H12O2/c1-5-2-7(5,4-8)6-3-9-6/h5-6,8H,2-4H2,1H3/t5-,6+,7+/m0/s1
