18
gdb 45285	2.83501	1.69432	1.27886	2.4654	76.42	-0.2286	-0.0326	0.196	1012.3843	0.148353	-401.902768	-401.895425	-401.894481	-401.934651	28.98	
O	 0.0752696182	-0.049006487	-0.379157749	-0.293388
C	 0.0117158999	 1.1088103517	-0.0849663577	 0.303689
C	-1.1149063444	 2.0834849823	 0.3229349256	-0.30915
N	-0.1573953131	 3.2293349159	 0.223782028	-0.159262
C	 0.4536465841	 3.6272624471	 1.5368464768	-0.184658
C	 1.7180829631	 2.7857977238	 1.2623784951	-0.10184
C	 2.7834577283	 3.4345867402	 0.3248143977	-0.223835
C	 2.1689578305	 2.6996152033	-0.9079122287	-0.311129
C	 0.9938125943	 2.2622978546	-0.0332823716	 0.256687
H	-1.938491418	 2.1497142504	-0.3958210635	 0.13858
H	-1.5333212191	 1.9069860509	 1.3213820055	 0.12604
H	 0.606421366	 4.7079329522	 1.6258541228	 0.107495
H	-0.1310870879	 3.2894421331	 2.4010223104	 0.102205
H	 2.0955378708	 2.1315177561	 2.0476050032	 0.087468
H	 2.715522033	 4.5245484992	 0.2818781586	 0.112069
H	 3.8156456609	 3.1616570119	 0.5520688805	 0.110229
H	 1.9064619094	 3.3006147447	-1.7810310417	 0.115792
H	 2.769366064	 1.8428041196	-1.2262658021	 0.123007
97.1263	125.5796	245.0262	271.5063	388.0878	438.2257	482.8917	573.9477	631.2184	678.4812	741.4506	773.1337	806.717	853.1423	879.9983	923.0655	938.9163	956.5471	1011.2789	1027.2012	1047.3319	1083.2545	1116.4291	1135.3756	1146.7962	1182.5673	1199.6277	1220.7924	1235.2255	1247.765	1261.9347	1295.0789	1306.2042	1314.84	1450.3021	1462.0243	1484.6913	1503.56	1890.0433	3022.0612	3029.7668	3062.4635	3067.026	3072.9106	3082.6049	3107.79	3117.5157	3130.0777
O=C1CN2CC3CCC123	O=C1CN2C[C@@H]3CC[C@]123	
InChI=1S/C7H9NO/c9-6-4-8-3-5-1-2-7(5,6)8/h5H,1-4H2	InChI=1S/C7H9NO/c9-6-4-8-3-5-1-2-7(5,6)8/h5H,1-4H2/t5-,7-/m0/s1
