16
gdb 85482	2.44506	1.48773	1.10765	4.6894	70.43	-0.2691	0.0152	0.2843	1107.0997	0.124118	-437.905321	-437.896932	-437.895987	-437.938476	31.259	
C	-0.301572896	 1.5273838836	-0.1268949014	-0.412782
C	 0.0928855174	 0.0676992031	-0.0655445737	 0.129299
O	 1.1193297676	-0.2068740507	-1.0329881046	-0.246132
C	 1.9676949111	-1.1642830588	-0.5556725495	 0.474418
O	 2.8674358818	-1.6383485151	-1.1871675338	-0.383732
N	 1.5806436462	-1.4795100493	 0.7389333072	-0.353738
C	 0.6986059437	-0.4496121703	 1.2777102409	-0.206616
C	 1.406253573	 0.55512724	 2.0738032832	 0.354175
C	 2.0029397508	 1.3533452773	 2.7456313376	-0.469706
H	 0.5525734405	 2.1696638605	 0.0970626719	 0.146034
H	-0.67505151	 1.7674703189	-1.1253322435	 0.13817
H	-1.0946302835	 1.7349277421	 0.5980256758	 0.126416
H	-0.7655881479	-0.5729072964	-0.3038542393	 0.103853
H	 2.2895297319	-1.8939492591	 1.3247489599	 0.26523
H	-0.095652624	-0.8944522312	 1.8866772913	 0.123162
H	 2.5315110175	 2.0619084655	 3.3352507279	 0.211949
79.0717	133.276	149.4267	224.0149	257.6458	298.0329	402.724	472.854	515.2726	553.5095	599.379	646.6454	670.1394	691.8937	747.7964	776.3737	845.7218	907.0542	961.9864	987.8121	1071.2068	1103.8003	1136.2605	1160.5581	1206.9573	1286.8967	1360.5036	1379.0532	1391.5348	1402.402	1421.8499	1483.7513	1495.4685	1896.8284	2233.2262	3025.4495	3049.5066	3053.185	3124.8175	3142.9635	3498.9643	3635.539
CC1OC(=O)NC1C#C	C[C@H]1OC(=O)N[C@H]1C#C	
InChI=1S/C6H7NO2/c1-3-5-4(2)9-6(8)7-5/h1,4-5H,2H3,(H,7,8)	InChI=1S/C6H7NO2/c1-3-5-4(2)9-6(8)7-5/h1,4-5H,2H3,(H,7,8)/t4-,5+/m1/s1
