21
gdb 106003	3.20046	1.57902	1.37774	0.2895	84.75	-0.2317	0.0872	0.3188	1037.111	0.183893	-349.88885	-349.881372	-349.880428	-349.920645	30.882	
C	-0.0795691813	 1.5220109825	-0.1329807342	-0.383713
C	-0.0162803629	-0.0053383008	-0.0071847281	-0.33526
C	 0.7117691216	-0.5108176644	 1.2065963101	 0.407231
C	 0.9319266581	-2.0106863288	 1.5872043807	-0.182418
C	 0.9094070209	-1.5688527989	 3.0315386492	-0.064403
C	 2.2230077331	-1.5767796903	 2.2403810828	-0.064424
C	 2.1945534786	-0.1502306724	 1.6467299712	-0.108049
C	 1.6527171032	 0.7839146138	 2.7560457992	-0.250021
C	 0.4105861652	-0.1395003147	 2.7211129779	-0.108014
H	 0.9222713052	 1.9599891388	-0.1905727397	 0.120567
H	-0.6221612663	 1.8140590989	-1.0372363576	 0.111392
H	-0.5930992276	 1.9725170575	 0.7226862892	 0.120567
H	-1.0375174499	-0.4118534204	 0.0021163572	 0.098723
H	 0.4632767432	-0.4242256334	-0.903189071	 0.098722
H	 0.6442905571	-2.9433216178	 1.1189435457	 0.079898
H	 0.7622485911	-2.1636215121	 3.9234741414	 0.08037
H	 3.0749305852	-2.1775828528	 2.5305811737	 0.080371
H	 2.9784042774	 0.1463600753	 0.9495229493	 0.057664
H	 2.2166456249	 0.8547306478	 3.6917023244	 0.087017
H	 1.4319656248	 1.7867922649	 2.3794846006	 0.096125
H	-0.5696243814	 0.1677141771	 3.0862136979	 0.057655
81.1904	172.0583	210.399	301.0655	346.2307	429.3958	537.8146	587.9811	712.5983	741.5351	764.8305	788.9549	802.6834	813.8096	862.7586	891.0818	908.0353	927.1094	931.5771	966.2576	980.3765	991.8396	1000.4625	1028.7944	1037.8157	1075.4809	1081.2492	1113.7943	1121.5015	1153.3339	1161.7863	1212.3564	1222.0972	1228.3727	1263.4383	1281.2251	1312.5123	1323.0597	1352.7431	1385.794	1407.2805	1480.2417	1488.5627	1499.8067	1509.4215	3001.0089	3028.7854	3034.3565	3045.9888	3102.4876	3102.5497	3106.1961	3110.1292	3113.7819	3186.1514	3191.6595	3206.0896
CCC12C3C4C3C1CC24	CC[C@@]12[C@@H]3[C@H]4[C@@H]3[C@@H]1C[C@@H]24	
InChI=1S/C9H12/c1-2-9-4-3-5(9)7-6(4)8(7)9/h4-8H,2-3H2,1H3	InChI=1S/C9H12/c1-2-9-4-3-5(9)7-6(4)8(7)9/h4-8H,2-3H2,1H3/t4-,5+,6-,7+,8-,9+
