19
gdb 26662	2.25175	1.54757	0.93236	0.8951	80.7	-0.1716	0.0567	0.2283	1258.367	0.157817	-419.245317	-419.234516	-419.233572	-419.281953	37.548	
C	-0.0079412198	 1.5094454417	 0.1040583156	-0.506185
C	 0.0243099979	 0.0209014133	-0.0182890257	 0.225447
C	 0.005150435	-0.8028885752	-1.1338747859	 0.089289
C	-0.0554909329	-0.4121504937	-2.5795039635	-0.538478
C	 0.0552010952	-2.1443383462	-0.6492683839	 0.198114
O	 0.057513451	-3.2999248807	-1.3875182077	-0.457266
C	 0.1031358783	-2.1207692791	 0.7246902844	 0.15452
N	 0.1628579467	-3.1242312247	 1.7178335748	-0.615189
N	 0.0831284578	-0.7852554427	 1.086967723	-0.322215
H	 0.8844557187	 1.9027725781	 0.6079004456	 0.124373
H	-0.0541331993	 1.9748265366	-0.8829198224	 0.131684
H	-0.8809099774	 1.859419912	 0.670079979	 0.124375
H	 0.8175310884	-0.7688943565	-3.1436284469	 0.118443
H	-0.9475967281	-0.8121834989	-3.081291065	 0.118444
H	-0.0864411224	 0.673679968	-2.7018662714	 0.126305
H	 0.0187995155	-3.0614457795	-2.3180408393	 0.29244
H	 0.9872221008	-3.7067941408	 1.6043622761	 0.241999
H	-0.637951511	-3.7466465617	 1.661832729	 0.241997
H	 0.1095500659	-0.4824973299	 2.0452166741	 0.251902
31.5024	77.9831	93.1616	150.4461	174.8459	179.6696	247.224	268.7094	281.915	298.9131	330.8957	455.3493	539.0559	585.7569	605.9932	641.8369	696.8689	743.3162	823.6484	863.0438	997.6292	1025.3841	1053.9395	1061.3093	1140.1632	1216.0506	1224.5335	1236.2349	1288.3409	1355.5348	1408.794	1424.7195	1478.4027	1478.862	1484.5249	1484.5646	1504.6964	1512.8038	1580.1048	1660.5471	1691.1371	2998.9192	3011.3952	3035.6775	3052.0619	3105.4532	3121.4044	3487.2242	3543.3076	3678.9289	3840.9567
CC1=C(C)C(O)=C(N)N1	Cc1c(C)c(O)c(N)[nH]1	
InChI=1S/C6H10N2O/c1-3-4(2)8-6(7)5(3)9/h8-9H,7H2,1-2H3	InChI=1S/C6H10N2O/c1-3-4(2)8-6(7)5(3)9/h8-9H,7H2,1-2H3
