19
gdb 96415	2.05841	1.67043	1.21269	1.9103	76.05	-0.2474	0.0268	0.2742	1101.2218	0.159446	-422.996591	-422.98799	-422.987046	-423.029424	33.57	
O	 0.0681280311	 1.4103775198	 0.0585524556	-0.435101
C	 0.0059842455	 0.0004265889	 0.0016519403	 0.116234
C	-1.4185724368	-0.5513729575	 0.1058853561	-0.235729
C	-1.4071419917	-2.0827673267	-0.0201096785	-0.210906
C	-0.6615147674	-2.4999516211	-1.2869874895	-0.071587
O	 0.6594407091	-1.9639481758	-1.3182396444	-0.248128
C	 0.7037494844	-0.5448279614	-1.2752167233	-0.078736
C	 0.1409467958	 0.0830312978	-2.482165671	 0.307299
C	-0.3390713993	 0.6202150554	-3.4462451108	-0.469846
H	-0.3590492493	 1.7493201896	-0.7383883306	 0.281503
H	 0.5958618749	-0.356827587	 0.8529841271	 0.096935
H	-1.8637728664	-0.2285073879	 1.0519243523	 0.105921
H	-2.024547455	-0.1187042828	-0.7016787646	 0.099888
H	-0.9070175658	-2.5250833382	 0.8501503793	 0.106873
H	-2.4281832494	-2.4799623332	-0.0442903441	 0.099103
H	-0.5335890875	-3.5843248787	-1.3397629577	 0.109673
H	-1.2178673134	-2.1777767392	-2.1803561631	 0.100411
H	 1.7670344125	-0.289127313	-1.2198467409	 0.120941
H	-0.7401384313	 1.0825697111	-4.3148684322	 0.205252
107.7334	137.6575	178.2657	248.3076	317.3333	339.0936	378.8078	392.2239	424.0498	444.3757	555.1136	620.6669	629.9726	649.4408	682.4526	791.2584	862.4295	892.1222	916.0596	946.0068	997.3898	1034.718	1092.5125	1107.6258	1113.0941	1141.7486	1200.0509	1220.2858	1275.9769	1299.7358	1313.4459	1338.8952	1364.2127	1372.042	1387.2258	1409.9033	1429.9844	1478.4924	1486.8683	1501.3725	2218.4832	2996.4178	3021.5467	3031.1607	3052.2311	3063.2315	3075.2719	3086.1932	3095.0563	3497.5463	3772.7226
OC1CCCOC1C#C	O[C@H]1CCCO[C@H]1C#C	
InChI=1S/C7H10O2/c1-2-7-6(8)4-3-5-9-7/h1,6-8H,3-5H2	InChI=1S/C7H10O2/c1-2-7-6(8)4-3-5-9-7/h1,6-8H,3-5H2/t6-,7-/m0/s1
