18
gdb 75928	2.54938	1.62073	1.15222	1.3501	71.75	-0.2435	-0.0327	0.2108	1070.5042	0.148063	-439.087266	-439.079093	-439.078148	-439.120058	31.468	
O	 0.4719189209	 0.6992234665	-0.908540417	-0.442384
C	 0.0801001082	-0.3920176493	-0.1303022086	-0.030532
C	 0.451083441	-0.2398646911	 1.3416337364	 0.373248
O	 1.2808064684	 0.5473656671	 1.7263313821	-0.330523
C	-0.4842820861	-1.1097581726	 2.1756522752	-0.32894
C	-1.553070216	-1.6083878143	 1.1686488472	-0.292383
C	-1.4176000594	-0.6553778843	-0.0173643735	 0.327189
C	-2.3876859444	 0.4229570048	-0.3241084661	-0.28583
N	-2.2884245624	-0.786216756	-1.1748727344	-0.389263
H	 1.0603328426	 1.2248110138	-0.3440779613	 0.295688
H	 0.5591540408	-1.3207137261	-0.4985684471	 0.097312
H	 0.0699799971	-1.916283453	 2.6652105436	 0.139157
H	-0.9044948483	-0.4884548602	 2.9728162851	 0.143606
H	-1.3351463201	-2.6313650919	 0.8426300396	 0.115842
H	-2.5624787598	-1.6091268961	 1.583384008	 0.119619
H	-3.3086162421	 0.5031799018	 0.2469101146	 0.115103
H	-1.9904723273	 1.3552254908	-0.7125742605	 0.130813
H	-1.771839243	-0.5556110498	-2.0217552833	 0.242276
77.8394	114.5907	235.0292	250.3007	297.2142	342.4823	384.3644	447.4574	503.5139	527.5271	602.7912	628.3554	729.5494	757.6318	859.7277	890.3598	938.8309	960.1406	972.7141	983.334	1017.2552	1057.6756	1081.9195	1130.4654	1162.9671	1189.2819	1208.8374	1223.4311	1268.2602	1285.6173	1305.0773	1332.7456	1375.4299	1382.1939	1428.7123	1446.9506	1494.6874	1507.3436	1836.7228	2915.1011	3050.3327	3061.0077	3098.618	3114.272	3117.7015	3209.5752	3485.8334	3700.1954
OC1C(=O)CCC11CN1	O[C@H]1C(=O)CC[C@]21CN2	
InChI=1S/C6H9NO2/c8-4-1-2-6(3-7-6)5(4)9/h5,7,9H,1-3H2	InChI=1S/C6H9NO2/c8-4-1-2-6(3-7-6)5(4)9/h5,7,9H,1-3H2/t5-,6+/m0/s1
