17
gdb 67999	2.85463	1.83104	1.33345	4.4185	71.3	-0.2584	0.0111	0.2695	967.6331	0.137118	-421.842956	-421.83589	-421.834945	-421.874168	28.358	
C	 0.0157557182	 1.4395512854	 0.0053435435	-0.478293
C	-0.0403912289	-0.0585750136	-0.010291551	 0.444652
O	 0.8825844398	-0.6288174357	-0.9405240679	-0.266707
C	 0.4302270647	-1.8697706236	-1.3129112291	 0.432279
O	 0.9542171017	-2.5212770297	-2.1668003039	-0.342911
C	-0.7186800472	-2.2148032255	-0.380431545	-0.206391
C	-0.0796730054	-2.323366602	 1.0558517016	-0.244916
C	-0.3673023095	-0.8383974754	 1.2523378627	-0.128838
C	-1.3063182051	-0.8428477569	 0.0328720154	-0.147432
H	 0.9980868365	 1.7894978889	 0.3366543535	 0.138598
H	-0.1726742174	 1.8415793785	-0.9944059036	 0.136976
H	-0.7391019796	 1.8389325785	 0.6885374972	 0.126249
H	-1.3464149626	-3.0301837846	-0.7257017941	 0.103091
H	-0.7151671564	-2.9359916775	 1.6981625372	 0.120132
H	 0.9555268894	-2.6718333254	 1.1261168831	 0.119568
H	-0.4814075096	-0.3286027994	 2.202048391	 0.092953
H	-2.3086336986	-0.4639374023	-0.1174742405	 0.10099
153.2312	206.2633	245.7701	286.0737	320.8831	463.1175	508.3669	583.0272	616.918	719.9929	749.924	799.6177	828.8431	860.0701	875.8563	920.0023	929.9053	970.3487	991.2287	1005.0039	1027.6153	1061.7147	1099.9987	1114.9555	1141.2675	1191.1293	1215.0889	1248.218	1256.1378	1283.0395	1301.314	1410.6227	1435.3347	1478.2878	1495.707	1504.2845	1889.6011	3043.0664	3053.6867	3112.9698	3117.6648	3120.7047	3171.2227	3178.6341	3201.2483
CC12OC(=O)C3CC1C23	C[C@@]12OC(=O)[C@H]3C[C@@H]1[C@@H]23	
InChI=1S/C7H8O2/c1-7-4-2-3(5(4)7)6(8)9-7/h3-5H,2H2,1H3	InChI=1S/C7H8O2/c1-7-4-2-3(5(4)7)6(8)9-7/h3-5H,2H2,1H3/t3-,4+,5-,7+/m0/s1
