16
gdb 5640	3.39098	1.92581	1.34733	3.3083	66.16	-0.198	0.0463	0.2443	914.1388	0.131641	-379.956223	-379.948396	-379.947452	-379.988634	28.467	
C	 0.0025951591	 1.5544809948	-0.0026620531	-0.377646
C	-0.0165362708	 0.0248164676	 0.0284063806	-0.155713
N	-1.3630072141	-0.5279924814	 0.0239551396	-0.04059
C	-2.0697716214	-1.0410896051	 1.0866698952	-0.005572
N	-3.2718277861	-1.4271796403	 0.7447740904	-0.266836
C	-3.3797278803	-1.156222252	-0.6055534549	-0.213422
C	-2.2093825141	-0.6025956484	-1.0538489961	 0.326102
O	-1.7553400456	-0.1519270056	-2.2520363028	-0.443156
H	 1.0347667279	 1.9176659474	 0.0139705065	 0.120038
H	-0.4778514354	 1.9253544058	-0.9114497772	 0.14307
H	-0.5237737349	 1.968443593	 0.8622302732	 0.129419
H	 0.5228809326	-0.3783318858	-0.8342533227	 0.132068
H	 0.4792420164	-0.3507528679	 0.928120468	 0.121796
H	-1.6324708736	-1.1039902304	 2.0722865602	 0.121654
H	-4.2755702977	-1.3762515557	-1.1658206722	 0.097116
H	-2.4372171718	-0.3078120063	-2.9125633348	 0.311673
64.0389	123.5488	210.1557	231.3441	284.1033	298.9029	406.8589	453.873	652.6678	674.2028	676.989	727.2405	768.2408	772.7677	794.5664	931.0878	971.7013	1093.2164	1112.1065	1126.0572	1160.163	1244.9634	1264.0163	1295.8294	1319.5467	1389.2335	1397.988	1409.9398	1479.3138	1491.4006	1496.6611	1508.1783	1557.0098	1613.682	3045.1332	3055.7909	3096.5929	3118.3955	3133.4985	3241.8368	3245.9366	3844.8803
CCN1C=NC=C1O	CCn1cncc1O	
InChI=1S/C5H8N2O/c1-2-7-4-6-3-5(7)8/h3-4,8H,2H2,1H3	InChI=1S/C5H8N2O/c1-2-7-4-6-3-5(7)8/h3-4,8H,2H2,1H3
