18
gdb 97824	4.11919	0.72611	0.69617	2.1451	82.03	-0.2488	0.0196	0.2684	1688.6778	0.147685	-401.937676	-401.928449	-401.927505	-401.975104	31.89	
C	-0.5426671054	 1.3496969132	 0.1703186308	-0.366112
C	 0.5467961042	 0.3183917976	-0.1754305181	-0.315931
C	 1.0264671327	-0.4247787879	 0.9843735218	 0.063387
C	 1.4044874444	-1.0349079423	 1.9519166482	 0.088607
C	 1.879317093	-1.7358759693	 3.1313898241	-0.082067
C	 1.5959305137	-1.0074267418	 4.488943893	-0.191518
N	 0.7647092002	-1.9422816599	 5.2594878873	-0.259698
C	 0.6078663399	-2.9580717166	 4.521097627	 0.126297
O	 1.1754713987	-3.0101080086	 3.2932068416	-0.220645
H	-0.1669207059	 2.0882376888	 0.8835606113	 0.128846
H	-0.8678932772	 1.8759175716	-0.7318634661	 0.117273
H	-1.4122472323	 0.8607510317	 0.6173259593	 0.132148
H	 0.161214311	-0.3907734349	-0.9190323121	 0.136356
H	 1.3951315144	 0.823341424	-0.6549551261	 0.133129
H	 2.9397840577	-1.9847088282	 3.0221448268	 0.118614
H	 2.5200974124	-0.7885534545	 5.032191942	 0.120969
H	 1.0634567481	-0.064866726	 4.3360887781	 0.127695
H	 0.0356795906	-3.8418406171	 4.781934141	 0.142651
7.2046	45.6351	87.9864	121.5018	209.3541	238.4255	341.6748	386.6336	482.2323	525.3237	546.746	714.68	756.2089	782.8163	868.5446	890.1887	958.2568	959.7766	985.0771	992.137	1047.0904	1081.5041	1102.7054	1121.2325	1180.9216	1208.6296	1285.5699	1295.9384	1312.6456	1337.2317	1350.0675	1370.9034	1409.5344	1470.8507	1494.9779	1498.0076	1504.9941	1712.9314	2364.4659	3022.0587	3045.4405	3047.3707	3050.0088	3056.5007	3096.8944	3119.3011	3125.082	3213.0615
CCC#CC1CN=CO1	CCC#C[C@H]1CN=CO1	
InChI=1S/C7H9NO/c1-2-3-4-7-5-8-6-9-7/h6-7H,2,5H2,1H3	InChI=1S/C7H9NO/c1-2-3-4-7-5-8-6-9-7/h6-7H,2,5H2,1H3/t7-/m0/s1
