20
gdb 36450	3.32621	1.00619	0.85133	4.1033	83.72	-0.2798	0.0367	0.3165	1378.8568	0.171102	-366.006983	-365.99812	-365.997176	-366.041276	33.184	
N	 0.0253255054	-1.1764229862	-0.212692255	-0.307712
C	-0.0089797713	-0.0326532392	-0.0504183684	 0.263897
C	-0.02373742	 1.4153496831	 0.1511029151	-0.374731
C	 1.3828186209	 2.0238999333	 0.0970207015	-0.040606
C	 2.1212494276	 2.046222448	-1.2729049462	-0.225396
C	 2.5405819879	 3.5206430237	-1.0024112918	-0.301616
C	 1.5152625498	 3.5585494254	 0.1395745171	 0.354085
C	 0.3922763714	 4.5507661046	 0.2656638417	-0.32172
C	 1.471037872	 4.4742471694	 1.3229947807	-0.323757
H	-0.6594532505	 1.8691364062	-0.6177967642	 0.149888
H	-0.4978069463	 1.623514884	 1.1182711959	 0.148685
H	 2.0033994451	 1.5564787208	 0.8689209601	 0.092393
H	 2.9192160104	 1.3152663384	-1.4116782579	 0.113578
H	 1.4240145603	 1.9630414783	-2.1114604604	 0.108164
H	 3.5719162667	 3.606208333	-0.6463169987	 0.106895
H	 2.3951220648	 4.231097594	-1.8202671702	 0.103705
H	 0.3911141139	 5.4017505103	-0.4082756957	 0.11548
H	-0.5999693659	 4.1961158238	 0.5274335838	 0.111272
H	 1.2051269477	 4.0552339749	 2.2889619923	 0.11152
H	 2.2003730501	 5.2765900943	 1.3733224702	 0.115975
58.9468	74.2422	113.2527	201.4151	241.4606	327.1198	357.3284	401.308	456.1514	519.7226	537.6793	738.7965	776.1104	791.2319	857.9614	873.0958	893.3114	921.2615	928.4291	942.215	980.6054	1004.1935	1050.0582	1076.8058	1088.9863	1112.0971	1128.4827	1186.9783	1200.5532	1229.4097	1239.0397	1256.2361	1269.45	1285.9277	1319.0942	1367.4224	1381.4224	1461.5422	1467.5477	1480.2954	1497.3552	1504.7428	2360.3884	3034.844	3046.033	3050.7509	3063.3762	3078.0461	3098.7013	3118.8493	3122.6971	3126.2553	3195.5579	3210.4554
N#CCC1CCC11CC1	N#CC[C@H]1CCC21CC2	
InChI=1S/C8H11N/c9-6-2-7-1-3-8(7)4-5-8/h7H,1-5H2	InChI=1S/C8H11N/c9-6-2-7-1-3-8(7)4-5-8/h7H,1-5H2/t7-/m1/s1
