18
gdb 38759	2.43404	2.33956	1.8427	1.8338	69.2	-0.2165	0.0712	0.2877	839.944	0.151939	-439.070992	-439.064761	-439.063817	-439.101291	26.473	
C	-0.0838794074	 1.511935831	 0.2257096772	-0.268989
C	 1.4576743173	 1.5850414784	-0.0613764189	-0.043419
N	 1.9125120465	 1.9110756592	-1.4007416912	-0.29645
C	 1.3629487776	 1.0830711784	-2.4813739358	-0.186484
C	 1.0737649795	-0.3363297173	-1.9627956231	 0.1714
O	-0.2015936334	-0.4192248253	-1.3321333689	-0.274973
C	-0.0239817667	-0.0190880253	 0.0236340096	 0.070372
C	 1.5286539424	 0.0281677356	 0.1476893148	 0.092681
O	 2.0183901285	-0.6788625893	-0.9701015136	-0.235463
H	-0.3204933784	 1.7790704523	 1.2605391488	 0.099813
H	-0.7511406289	 2.055903569	-0.4471318454	 0.102077
H	 2.0281862428	 2.1874074711	 0.6501013549	 0.076822
H	 1.7857529367	 2.895898865	-1.597564483	 0.222218
H	 0.4283948642	 1.4690748754	-2.9169895485	 0.096574
H	 2.1047076984	 1.0230423805	-3.2872754489	 0.107008
H	 1.1018702646	-1.0776178514	-2.7642540737	 0.096578
H	-0.6299662385	-0.6662540234	 0.6597227513	 0.081396
H	 2.0115315349	-0.3310140739	 1.0545833544	 0.088837
157.237	318.6159	342.2373	421.1039	461.1394	551.6939	593.0481	656.6214	715.2507	757.8501	814.2397	844.2487	860.5567	879.6205	889.8002	925.1406	951.1725	980.0331	1029.1537	1034.6071	1072.5673	1107.4559	1121.1863	1149.2464	1157.3602	1199.2187	1227.8189	1243.6866	1255.8683	1271.2568	1288.3115	1327.3215	1334.937	1371.1831	1377.3365	1409.9154	1459.9975	1481.9129	1510.3414	2982.5755	3039.1884	3051.1131	3071.2436	3096.4645	3100.786	3114.037	3137.3679	3550.2985
C1C2NCC3OC1C2O3	C1[C@@H]2NC[C@@H]3O[C@H]1[C@H]2O3	
InChI=1S/C6H9NO2/c1-3-6-4(1)8-5(9-6)2-7-3/h3-7H,1-2H2	InChI=1S/C6H9NO2/c1-3-6-4(1)8-5(9-6)2-7-3/h3-7H,1-2H2/t3-,4+,5+,6-/m0/s1
