19
gdb 33191	6.15232	0.70211	0.64849	3.2711	80.02	-0.1967	0.022	0.2188	1735.1519	0.160217	-419.234646	-419.225573	-419.224628	-419.269907	32.387	
C	-0.0780470892	 1.5480118484	 0.1052147815	-0.382006
C	-0.0961819697	 0.0532831261	-0.2230144111	-0.186585
C	-1.4153512648	-0.6125385541	 0.1629392313	-0.130265
N	-1.3940981696	-2.0377813193	-0.1844572698	-0.414376
C	-2.5429974477	-2.7835491031	-0.0330658212	 0.404571
C	-2.822545654	-4.0511708352	 0.3801994654	-0.216614
N	-4.1830075986	-4.2932273113	 0.2006179346	-0.246868
C	-4.647732685	-3.1944841993	-0.2803242178	 0.062234
O	-3.7081543189	-2.2161610877	-0.4599389168	-0.17858
H	 0.876365077	 2.0013148933	-0.1771647534	 0.119367
H	-0.8711880814	 2.0805059477	-0.4306011909	 0.121262
H	-0.2261489645	 1.7232740877	 1.1763158057	 0.119152
H	 0.0774865046	-0.1055376269	-1.2932825311	 0.113935
H	 0.7289339394	-0.447234057	 0.3027217855	 0.09385
H	-1.6166816778	-0.4563464676	 1.2360083194	 0.096419
H	-2.2411667305	-0.1510119296	-0.3857466577	 0.131812
H	-0.5924766318	-2.5213356822	 0.1984238475	 0.241108
H	-2.1558223836	-4.7951920606	 0.7839467894	 0.107843
H	-5.6607247041	-2.9376646393	-0.5433624004	 0.143741
46.0866	56.2385	97.1361	135.8861	236.1403	260.4096	327.0165	348.1064	458.1753	631.0144	670.9685	701.2445	755.5206	766.8117	778.0804	778.9588	894.3533	917.2468	937.7141	976.0371	1044.441	1081.8812	1099.6194	1123.1405	1137.6845	1169.7334	1247.7697	1270.4361	1294.301	1316.143	1331.0871	1380.7133	1405.4122	1415.2795	1476.1276	1490.671	1500.5581	1505.1717	1521.0348	1573.4643	1657.258	2963.5362	3014.0596	3034.5791	3063.1391	3090.5888	3103.2306	3110.4978	3267.1516	3285.1623	3580.1347
CCCNC1=CN=CO1	CCCNc1cnco1	
InChI=1S/C6H10N2O/c1-2-3-8-6-4-7-5-9-6/h4-5,8H,2-3H2,1H3	InChI=1S/C6H10N2O/c1-2-3-8-6-4-7-5-9-6/h4-5,8H,2-3H2,1H3
