19
gdb 92414	2.07274	1.6721	1.31875	2.5982	75.82	-0.2437	-0.0386	0.2051	1077.0843	0.158003	-423.005541	-422.996906	-422.995962	-423.039053	32.048	
C	 0.4712349507	 1.6877404771	 0.1218419001	-0.4101
C	 0.1361666964	 0.2116359328	 0.2515841387	-0.017639
C	 0.6736560848	-0.783788709	-0.826451419	-0.257115
C	 1.292149325	-1.6721544193	 0.2840015042	-0.12806
C	 2.7232231366	-1.2879564325	 0.6870450416	-0.087951
O	 2.2514181536	-0.232726617	 1.5613923302	-0.334499
C	 0.8724463675	-0.597238779	 1.3536991759	 0.332031
C	 0.1580421308	-0.9229154053	 2.6317751061	 0.08762
O	-1.0397764338	-1.038106522	 2.7196543478	-0.259814
H	 1.5542089968	 1.8377953535	 0.0895409144	 0.12765
H	 0.0364698551	 2.1028953013	-0.7934878782	 0.115469
H	 0.078239931	 2.25998788	 0.968827	 0.122466
H	-0.9373384958	 0.0635506795	 0.4028080442	 0.100732
H	-0.1036970621	-1.2695077835	-1.4192187393	 0.110968
H	 1.4160179507	-0.3613587325	-1.5105632196	 0.102189
H	 1.0002777163	-2.7196160447	 0.3350652531	 0.092833
H	 3.2636015546	-2.0558391363	 1.2547386145	 0.107997
H	 3.3711084529	-0.9073408027	-0.1117026637	 0.106897
H	 0.8344402689	-1.0717749003	 3.502736869	 0.088327
79.8502	96.1717	176.3064	206.6852	215.5477	249.7177	362.8739	376.3225	462.5669	549.1542	618.3488	695.53	787.5344	831.2594	848.0131	891.893	911.6819	964.8904	997.7223	1011.6652	1035.2218	1087.2448	1118.3477	1125.1573	1140.7909	1154.9719	1166.1124	1195.5459	1215.9145	1263.514	1293.0795	1314.9989	1347.86	1363.6332	1395.7645	1409.4229	1483.2376	1489.6407	1501.3121	1523.8624	1813.1097	2890.946	3013.8156	3034.6174	3055.368	3061.3615	3068.3345	3099.4029	3112.0641	3116.5356	3130.2359
CC1CC2COC12C=O	C[C@H]1C[C@H]2CO[C@@]12C=O	
InChI=1S/C7H10O2/c1-5-2-6-3-9-7(5,6)4-8/h4-6H,2-3H2,1H3	InChI=1S/C7H10O2/c1-5-2-6-3-9-7(5,6)4-8/h4-6H,2-3H2,1H3/t5-,6-,7-/m0/s1
