17
gdb 113772	3.99745	0.79718	0.73083	1.912	66.2	-0.2702	-0.0457	0.2245	1514.7239	0.132434	-496.06713	-496.057422	-496.056478	-496.103085	33.693	
O	-0.2813131584	 1.3836229657	-0.7686670769	-0.420309
C	-0.005889889	 0.1801790916	-0.0710401017	-0.107893
C	-1.3243656818	-0.5085524793	 0.1615731452	 0.082467
O	-1.793902502	-1.4379987878	-0.8256756347	-0.258312
C	-1.4763359606	-1.9348878218	 0.4750074566	 0.01524
C	-0.3170515526	-2.92117562	 0.5666939695	 0.012508
O	 0.0711085607	-3.0920747351	 1.9000800008	-0.430673
C	-0.7402382961	-4.2497005617	-0.0387617323	 0.132002
O	-0.6989257102	-5.2703868586	 0.6049948178	-0.259712
H	 0.548164822	 1.8520700908	-0.8999864472	 0.292227
H	 0.6633163355	-0.4746353079	-0.6456395783	 0.097487
H	 0.4648253081	 0.376545536	 0.9060223337	 0.10631
H	-2.0981701515	 0.165803957	 0.5302335722	 0.11004
H	-2.335020965	-2.2311468987	 1.0802398634	 0.106686
H	 0.5173158161	-2.5510603655	-0.0511311407	 0.09898
H	-0.0162189553	-4.0437577032	 2.0751178811	 0.298307
H	-1.08652317	-4.2233697415	-1.0889947985	 0.124644
33.9151	78.7224	89.8656	158.4314	180.4181	231.2105	280.1957	326.9685	383.5643	403.5925	466.7965	498.1894	559.0711	756.7287	813.3039	822.9257	888.353	969.8807	997.3057	1053.9137	1081.528	1090.2014	1142.7063	1160.7839	1165.8402	1249.9142	1253.7735	1271.7523	1292.3461	1302.5667	1377.5721	1384.6566	1426.101	1452.4843	1498.8467	1509.2059	1811.6093	2964.9057	2974.4709	2983.8304	3025.5565	3096.1211	3116.3069	3672.3128	3833.1293
OCC1OC1C(O)C=O	OC[C@H]1O[C@H]1[C@@H](O)C=O	
InChI=1S/C5H8O4/c6-1-3(8)5-4(2-7)9-5/h1,3-5,7-8H,2H2	InChI=1S/C5H8O4/c6-1-3(8)5-4(2-7)9-5/h1,3-5,7-8H,2H2/t3-,4+,5-/m0/s1
