20
gdb 110131	2.51608	1.14716	0.92698	4.6654	77.34	-0.2541	-0.0068	0.2473	1338.1593	0.170168	-440.281735	-440.272157	-440.271212	-440.316267	34.81	
C	-0.4118618028	 1.5331930233	-0.446480326	-0.384531
C	 0.0189245054	 0.1200987164	-0.0326860221	-0.206357
C	 0.9625670265	-0.5186909704	-1.0313378467	-0.026477
C	 1.1621311337	-2.0139934891	-1.1800109579	-0.059305
C	 0.3997714779	-3.0713461946	-0.4006821948	-0.08105
O	 0.1815549578	-4.2197067678	-1.1856600097	-0.4248
N	 0.4774248491	-1.2395211084	-2.195827782	-0.062756
C	-0.7732295422	-1.4179711447	-2.7079753765	 0.143073
O	-1.2908388387	-2.4973723704	-2.93482313	-0.32407
H	 0.4562954224	 2.1848987872	-0.5913634069	 0.123905
H	-0.9776851446	 1.5215594841	-1.3836307968	 0.125026
H	-1.0460261822	 1.9861540817	 0.3207507907	 0.124999
H	 0.5355346458	 0.1659120037	 0.9343024961	 0.116329
H	-0.8632657808	-0.5107212423	 0.1131925414	 0.11523
H	 1.8398107032	 0.0930484376	-1.2468224958	 0.10466
H	 2.1545093662	-2.3417405968	-1.4878532864	 0.113047
H	 1.0043400647	-3.3799612351	 0.4598409828	 0.111704
H	-0.5411643808	-2.6582829125	-0.0092678	 0.089785
H	-0.3754370323	-3.9289095975	-1.9277872447	 0.300194
H	-1.2593225183	-0.4663392443	-2.9868189346	 0.101395
88.2405	114.6993	139.3546	169.7267	195.4242	227.1832	253.5493	284.8733	314.3867	434.1062	511.126	570.5853	627.9758	659.0168	765.2796	814.0367	829.4066	923.4637	989.1884	1017.7635	1031.6297	1052.9278	1084.0374	1105.1883	1120.1681	1154.5902	1170.6464	1194.9273	1249.8705	1292.3081	1339.2897	1359.053	1398.6971	1405.4661	1416.5308	1423.4373	1475.1909	1477.797	1482.8441	1495.9049	1500.3878	1504.7239	1746.639	2978.9056	2996.6296	3033.7793	3037.9361	3063.8439	3079.4609	3097.3959	3110.1756	3114.2633	3120.9615	3650.1904
CCC1C(CO)N1C=O	CC[C@H]1[C@@H](CO)N1C=O	
InChI=1S/C6H11NO2/c1-2-5-6(3-8)7(5)4-9/h4-6,8H,2-3H2,1H3	InChI=1S/C6H11NO2/c1-2-5-6(3-8)7(5)4-9/h4-6,8H,2-3H2,1H3/t5-,6+,7?/m0/s1
