21
gdb 119730	3.51967	0.99575	0.89047	1.483	78.56	-0.2435	0.0574	0.3009	1401.0691	0.18179	-424.189021	-424.179993	-424.179049	-424.223341	33.465	
C	 0.0675846376	 1.5610453477	-0.0182724133	-0.384209
C	-0.0111871724	 0.0331103507	 0.0166677832	-0.165647
C	-1.452563622	-0.4918076603	-0.0686469856	-0.286217
C	-1.5201048657	-1.9941259442	 0.0182959315	 0.413817
C	-1.0520851032	-2.8886900808	-1.1495702345	-0.120856
O	-2.2253712533	-3.7331755907	-1.0183070648	-0.293914
C	-2.7578465255	-2.9237179248	 0.0425851541	-0.006841
C	-2.2604626259	-3.3441288085	 1.4308276916	-0.099538
O	-1.0763279707	-2.5163233249	 1.2966215121	-0.334391
H	 1.1037802798	 1.9067020694	 0.0472139071	 0.114366
H	-0.3595332363	 1.9610784769	-0.9448098666	 0.113102
H	-0.4846598079	 2.0040333143	 0.8179165545	 0.11651
H	 0.5774507245	-0.3838257768	-0.8110264941	 0.097677
H	 0.4432677719	-0.3447309741	 0.9391659538	 0.12316
H	-2.047919914	-0.0634912758	 0.7473600027	 0.10208
H	-1.9179547631	-0.1678965293	-1.0088662917	 0.09975
H	-1.0243936865	-2.4022030224	-2.1333500025	 0.098628
H	-0.1174455172	-3.4306349262	-0.971853963	 0.112179
H	-3.8042251335	-2.6501772139	-0.1070376358	 0.085626
H	-2.8840197451	-3.0106643275	 2.2704469839	 0.102071
H	-2.0262119415	-4.4085799289	 1.5365111773	 0.112647
68.9196	90.1442	124.8277	150.8868	252.0126	290.8568	306.9373	350.8346	411.2653	431.6902	701.1859	711.3573	745.6639	839.7843	861.2095	896.4908	904.891	917.3875	977.8285	996.1545	1004.9395	1035.5098	1049.3316	1059.2911	1082.4709	1141.9998	1145.7669	1164.7202	1188.4837	1197.0777	1261.2664	1273.4086	1307.6902	1324.2837	1332.1234	1340.6856	1375.8627	1401.9047	1414.0604	1474.2443	1492.7455	1500.8388	1502.7948	1504.8325	1509.0791	3011.2194	3014.5408	3018.6198	3024.8123	3030.1417	3053.6689	3072.9287	3078.7262	3079.7547	3093.3756	3099.1636	3104.0412
CCCC12COC1CO2	CCC[C@]12CO[C@H]1CO2	
InChI=1S/C7H12O2/c1-2-3-7-5-8-6(7)4-9-7/h6H,2-5H2,1H3	InChI=1S/C7H12O2/c1-2-3-7-5-8-6(7)4-9-7/h6H,2-5H2,1H3/t6-,7-/m0/s1
