20
gdb 31695	4.77811	0.78918	0.74006	2.9839	83.93	-0.1966	0.0416	0.2382	1597.8629	0.171577	-403.187658	-403.1781	-403.177156	-403.222948	34.942	
C	-0.3361305933	 1.4499020568	-0.0623742856	-0.364747
C	-0.0002367067	-0.0524383023	-0.024627662	-0.297442
C	 0.8493789308	-0.4557583298	 1.1396101569	 0.333649
C	 2.171723763	-0.8376317533	 1.2090445569	-0.355887
C	 2.4973458799	-1.082979909	 2.5764690653	 0.234592
C	 3.8146234725	-1.5351806938	 3.1356113587	-0.15917
O	 4.0284535592	-1.0982490865	 4.4728804771	-0.414919
C	 1.3554851022	-0.8365256536	 3.306707365	-0.180741
N	 0.36839914	-0.459090916	 2.4290339706	-0.302487
H	 0.5773476227	 2.0499291594	-0.1106674738	 0.125598
H	-0.9536698858	 1.6914402482	-0.9333545107	 0.113086
H	-0.8868102699	 1.759183414	 0.8324525007	 0.107699
H	-0.9349050189	-0.63050018	-0.028926079	 0.101884
H	 0.5302626052	-0.3296411359	-0.9410105126	 0.115747
H	 2.8389219954	-0.932540046	 0.3643349664	 0.08643
H	 3.8729999735	-2.6298149887	 3.1837254013	 0.115751
H	 4.6305932765	-1.208377997	 2.4703407826	 0.08687
H	 3.8684323152	-0.1483075191	 4.4806900491	 0.275451
H	 1.171880364	-0.9110113059	 4.3659768494	 0.123513
H	-0.5694025555	-0.2097369416	 2.6915708037	 0.255122
43.9873	56.5808	122.6166	177.7103	211.164	251.0765	321.6749	345.2131	379.4973	454.8981	500.3835	614.0408	653.2234	697.2977	723.008	742.3149	782.9378	808.951	947.8217	978.9422	996.2492	1008.3884	1058.3069	1063.8659	1083.6262	1134.5366	1169.8028	1204.3985	1249.1063	1292.4572	1307.3266	1353.3698	1365.2869	1407.3562	1416.2684	1445.2885	1457.3389	1482.9356	1496.4717	1504.1542	1509.9384	1542.6025	1629.0423	2968.1941	3009.6661	3033.9433	3037.127	3074.5896	3102.8709	3113.9824	3233.1966	3269.7551	3675.5244	3803.3202
CCC1=CC(CO)=CN1	CCc1cc(CO)c[nH]1	
InChI=1S/C7H11NO/c1-2-7-3-6(5-9)4-8-7/h3-4,8-9H,2,5H2,1H3	InChI=1S/C7H11NO/c1-2-7-3-6(5-9)4-8-7/h3-4,8-9H,2,5H2,1H3
