16
gdb 15375	3.30912	1.34327	1.05097	3.8707	62.15	-0.2695	-0.0066	0.2629	1098.3887	0.129062	-420.872577	-420.864182	-420.863237	-420.906495	29.286	
O	 0.4125460889	 0.5773916065	 0.6545901522	-0.421292
C	-0.09652511	 0.0707170154	-0.5642018655	-0.073167
C	-1.5036274857	-0.4794582835	-0.4159897249	-0.055885
C	-1.9163119369	-1.7073537785	-1.2020093127	-0.333579
C	-1.6924182748	-1.7894356017	 0.2838420666	 0.095612
O	-0.5064681701	-2.3895485503	 0.7820115414	-0.198097
C	-0.4553622995	-3.7422174286	 0.7758292987	 0.174629
O	 0.4782271829	-4.3467905465	 1.2058327139	-0.265621
H	 0.5288816125	-0.1792975895	 1.2404868483	 0.294809
H	-0.1037898727	 0.9096091387	-1.2674747659	 0.115265
H	 0.5613892671	-0.7029414574	-0.9842136569	 0.096272
H	-2.2649691418	 0.2686406489	-0.2180771108	 0.105571
H	-2.931450142	-1.7914416774	-1.5731042195	 0.127714
H	-1.1616383786	-2.1548611825	-1.8409213702	 0.132033
H	-2.5428600675	-1.9190760785	 0.9462113981	 0.116438
H	-1.3605095017	-4.1986797151	 0.3346692971	 0.089299
59.8965	69.2419	132.8524	172.8235	205.1783	326.8775	364.7964	439.0129	485.3901	560.6936	646.8601	792.6596	839.625	890.8945	940.492	1013.2783	1031.9751	1049.0139	1070.3418	1079.2119	1132.0457	1140.0071	1162.5389	1168.8686	1233.8665	1246.8815	1356.741	1388.8303	1411.6182	1422.424	1429.9804	1479.199	1500.9936	1871.418	2974.5879	3006.3658	3078.654	3134.0928	3151.3852	3163.4025	3223.086	3803.5662
OCC1CC1OC=O	OC[C@H]1C[C@H]1OC=O	
InChI=1S/C5H8O3/c6-2-4-1-5(4)8-3-7/h3-6H,1-2H2	InChI=1S/C5H8O3/c6-2-4-1-5(4)8-3-7/h3-6H,1-2H2/t4-,5-/m1/s1
