21
gdb 37428	3.04616	1.58425	1.27436	0.4138	85.55	-0.2329	0.0316	0.2646	1059.0132	0.186159	-349.936619	-349.929377	-349.928433	-349.968357	30.105	
C	-0.0041198311	 1.4989355709	-0.1287655939	-0.283409
C	 1.3095653991	 0.7927765718	 0.0594044841	-0.069794
C	-0.0060560113	 0.008587627	 0.0679917461	-0.069797
C	 0.3915173812	-0.7148694287	-1.2271394536	 0.004121
C	-0.5061150247	-0.6155633195	-2.4726187249	-0.290491
C	 0.2874811011	-0.3313776228	-3.7256283947	-0.049643
C	 1.4323349611	 0.3511031685	-3.7331184025	-0.04964
C	 2.071819297	 0.9212034337	-2.4894812222	-0.290492
C	 1.7443099828	 0.0915386503	-1.23599717	 0.004118
H	-0.3429340185	 2.0767407744	 0.7253271836	 0.108812
H	-0.273017624	 1.9395872268	-1.0862430685	 0.107457
H	 1.9635412634	 1.0284835941	 0.8909826179	 0.080244
H	-0.5164377456	-0.4497276561	 0.9071710859	 0.080244
H	 0.6105878923	-1.767005703	-1.0293413889	 0.072108
H	-1.0881643542	-1.5357664798	-2.5985350565	 0.096641
H	-1.2499427033	 0.1817539829	-2.3325061759	 0.109834
H	-0.1307444902	-0.6838318644	-4.6653943125	 0.080552
H	 1.9321864987	 0.5459401765	-4.678889821	 0.080552
H	 3.1568418906	 0.9947855482	-2.6263092179	 0.096642
H	 1.7255737202	 1.9555278409	-2.3519554474	 0.109834
H	 2.5675052653	-0.6004787817	-1.0421769872	 0.072106
66.1533	171.5066	282.3106	390.5251	398.8224	443.6091	530.0851	539.0071	653.5048	690.246	738.2921	750.8447	793.6259	848.8805	912.9816	932.4148	946.8949	947.5435	982.3367	1003.6616	1003.7038	1015.1403	1032.8544	1066.6176	1078.4847	1089.1032	1103.6317	1118.2842	1162.2764	1191.0789	1215.9857	1228.0181	1235.0703	1270.7617	1306.8298	1332.7121	1337.7674	1361.5591	1365.614	1372.917	1410.0537	1484.1957	1486.6066	1501.9703	1718.7684	3005.5727	3005.9517	3041.8569	3044.7293	3062.5951	3079.3071	3110.0902	3141.8395	3166.0127	3168.1576	3177.0093	3197.9623
C1C2C1C1CC=CCC21	C1[C@H]2[C@@H]1[C@H]1CC=CC[C@@H]21	
InChI=1S/C9H12/c1-2-4-7-6(3-1)8-5-9(7)8/h1-2,6-9H,3-5H2	InChI=1S/C9H12/c1-2-4-7-6(3-1)8-5-9(7)8/h1-2,6-9H,3-5H2/t6-,7+,8-,9+
