17
gdb 49729	3.03008	1.26446	1.19916	4.1544	75.23	-0.235	-0.0186	0.2164	1097.9763	0.136303	-421.816955	-421.809223	-421.808279	-421.849537	29.214	
O	-0.0162720715	-0.0116357093	-0.4577450462	-0.276584
C	 0.0146644173	 1.1087446335	-0.0052239269	 0.172224
C	 1.2490379367	 1.9263120213	 0.0500661712	-0.161312
C	 1.192455772	 3.4440866275	-0.1089798699	 0.068939
O	-0.0660272551	 4.0221155841	-0.283271465	-0.257003
C	-0.5317102076	 4.7990388256	 0.8189360789	-0.121344
C	-0.4033359527	 4.0793527837	 2.1369485356	-0.07244
C	 0.5331704354	 3.1481754355	 2.309383299	-0.084739
C	 1.5213301253	 2.8885237901	 1.2306523854	-0.127766
H	-0.8942612286	 1.5914048202	 0.4023724641	 0.08457
H	 2.1183679835	 1.4276992215	-0.364853003	 0.109381
H	 1.9739260989	 3.8988881713	-0.7150390823	 0.105088
H	-0.0043158645	 5.7672645691	 0.857394478	 0.111371
H	-1.580999509	 5.0140720231	 0.5953294225	 0.126077
H	-1.1025626729	 4.3419081827	 2.9247914195	 0.105252
H	 0.6243755558	 2.5954578297	 3.2393487627	 0.104814
H	 2.5624647771	 2.9056654804	 1.5403682364	 0.113471
87.7849	116.305	179.0538	221.9291	314.9596	425.0088	455.164	499.5856	566.5031	589.736	713.9012	777.9921	834.2391	850.3325	909.0887	930.188	953.203	989.5172	1016.7883	1040.0353	1054.1506	1069.1063	1105.1481	1128.881	1177.971	1187.9498	1235.7107	1267.8832	1328.2054	1342.0869	1386.7331	1412.3011	1420.0703	1445.0322	1492.2644	1709.4276	1805.6916	2946.7912	2964.889	3079.4014	3116.7464	3146.3328	3167.7671	3178.8328	3189.5739
O=CC1C2OCC=CC12	O=C[C@H]1[C@H]2OCC=C[C@@H]12	
InChI=1S/C7H8O2/c8-4-6-5-2-1-3-9-7(5)6/h1-2,4-7H,3H2	InChI=1S/C7H8O2/c8-4-6-5-2-1-3-9-7(5)6/h1-2,4-7H,3H2/t5-,6+,7-/m0/s1
