16
gdb 55715	2.53621	1.31276	1.07648	4.7504	70.25	-0.2832	-0.005	0.2782	1172.177	0.121601	-437.91647	-437.90723	-437.906286	-437.951448	32.366	
C	 0.0971764093	 1.4380872199	-0.1252455128	-0.482333
C	-0.176736305	-0.0332614398	 0.0413508757	 0.416281
O	-0.722101989	-0.5631392718	 0.9675382069	-0.326214
O	 0.3054471732	-0.7237269389	-1.0437140072	-0.28495
C	 0.1424615605	-2.1256433544	-1.0102639165	 0.314903
C	-1.2200542522	-2.6967326763	-1.31970288	-0.295213
C	-0.1296039539	-2.759587169	-2.3534867255	-0.314705
C	 1.0046041895	-2.808938095	-0.0750451792	 0.257352
N	 1.7078393284	-3.3737410913	 0.6480643437	-0.342828
H	 1.1773820135	 1.6113303035	-0.129996541	 0.162795
H	-0.2938639383	 1.7925306402	-1.0825651326	 0.152033
H	-0.3604326862	 1.985479595	 0.6975051819	 0.156444
H	-1.5103719332	-3.6031009789	-0.8028724555	 0.151803
H	-2.0112341819	-1.9690705629	-1.4527658382	 0.142809
H	-0.1731926989	-2.0689971657	-3.1873629393	 0.143617
H	 0.3438229342	-3.7112218145	-2.5611564401	 0.148208
55.5329	74.4046	92.6884	151.1716	193.3484	222.449	341.0316	367.2369	400.0675	560.4751	576.678	608.7482	616.4586	731.3479	767.2843	860.5042	923.578	931.9327	973.0113	1008.2975	1036.5901	1065.2081	1075.9924	1092.0207	1191.3236	1223.851	1273.3339	1316.5889	1396.0304	1454.1767	1468.1457	1473.9181	1486.1224	1852.2708	2357.81	3059.3153	3124.9352	3151.4466	3155.1809	3173.467	3239.954	3252.9527
CC(=O)OC1(CC1)C#N	CC(=O)OC1(CC1)C#N	
InChI=1S/C6H7NO2/c1-5(8)9-6(4-7)2-3-6/h2-3H2,1H3	InChI=1S/C6H7NO2/c1-5(8)9-6(4-7)2-3-6/h2-3H2,1H3
