19
gdb 67960	2.22035	1.84395	1.31074	4.2935	74.2	-0.2641	0.0142	0.2783	1039.8705	0.160482	-423.087042	-423.079173	-423.078228	-423.119184	30.924	
C	-0.1652614072	 1.5877937676	 0.1248545398	-0.465113
C	-0.0048545666	 0.0853483841	 0.102225346	 0.438089
C	-1.2643678453	-0.7438714258	-0.1537698865	-0.247227
C	-0.9374612231	-2.1463184076	 0.3969696172	-0.230491
C	-0.0618980887	-1.8672520064	 1.637188403	-0.225062
C	 0.7733245031	-0.6393622496	 1.2381797822	-0.262543
C	 1.7978334983	-0.9124853963	 0.1371897889	 0.448402
O	 2.8530049059	-1.4535084636	 0.032418014	-0.336388
O	 1.0695582389	-0.3052610187	-0.8505442553	-0.292459
H	 0.7927492035	 2.080146384	 0.3138765514	 0.130639
H	-0.5502490412	 1.9496932952	-0.8337502279	 0.134784
H	-0.8698409315	 1.8838436534	 0.9083960192	 0.12404
H	-2.0942075123	-0.2984590097	 0.4084696889	 0.103701
H	-1.5410686739	-0.7401797293	-1.211544899	 0.116757
H	-1.8318919712	-2.7273462047	 0.6332365826	 0.103294
H	-0.3675096933	-2.71472734	-0.3452359588	 0.127308
H	-0.6892155992	-1.6095827366	 2.4980983831	 0.106447
H	 0.5617449505	-2.7171503095	 1.9262521963	 0.124281
H	 1.1492684634	-0.0463621266	 2.0726315746	 0.101541
110.4969	179.9596	217.5524	245.5284	293.3526	330.3849	376.2906	500.9349	572.8485	589.3326	619.6746	720.2253	793.0508	823.4435	870.161	874.0708	902.0718	927.1925	946.6868	994.4471	1023.2558	1052.58	1095.335	1112.8908	1114.3732	1195.7464	1225.0493	1244.5044	1255.772	1280.2489	1284.7135	1336.9549	1348.3621	1370.705	1413.9868	1472.3243	1483.3	1489.9575	1494.5158	1502.4547	1927.2525	3036.3001	3041.4429	3043.7481	3057.4113	3098.2864	3100.6976	3110.0674	3111.4806	3114.041	3118.1392
CC12CCCC1C(=O)O2	C[C@]12CCC[C@H]1C(=O)O2	
InChI=1S/C7H10O2/c1-7-4-2-3-5(7)6(8)9-7/h5H,2-4H2,1H3	InChI=1S/C7H10O2/c1-7-4-2-3-5(7)6(8)9-7/h5H,2-4H2,1H3/t5-,7-/m0/s1
