19
gdb 120524	7.0614	0.67169	0.64773	1.5354	79.53	-0.2552	0.0209	0.2761	1735.3551	0.156602	-422.955788	-422.94599	-422.945046	-422.991806	34.453	
C	 0.4599337927	 1.5995289358	 0.5616691694	-0.224496
O	 0.6680548268	 0.2382888548	 0.2683895633	-0.23566
C	-0.1724569523	-0.6204347283	 1.0034195056	-0.074997
C	 0.1506633906	-2.0443689265	 0.5886336456	 0.132837
C	 1.455209688	-2.6609795945	 1.1272103619	-0.303328
C	 0.5175127683	-3.6555418792	 1.8662080434	-0.034095
O	-0.6575755156	-2.99553373	 1.3211801043	-0.304287
C	 0.615738132	-5.0575375758	 1.4956368737	 0.333828
C	 0.7111011959	-6.2167779944	 1.1922128238	-0.458334
H	 0.6582699582	 1.8237959639	 1.6217190597	 0.105099
H	 1.1510385322	 2.1770892443	-0.056933773	 0.128662
H	-0.5706808914	 1.9128990719	 0.3326261583	 0.107285
H	-0.0152195592	-0.4998151838	 2.0891876087	 0.085259
H	-1.236618803	-0.4116475343	 0.8011398446	 0.097244
H	 0.0110686364	-2.1488198195	-0.4940781589	 0.092383
H	 2.1072018964	-3.1156369021	 0.3829684592	 0.125561
H	 2.0375961286	-2.0100201241	 1.7804102417	 0.117512
H	 0.5337821987	-3.5629742632	 2.9594579946	 0.106929
H	 0.7888082568	-7.2418498651	 0.925366854	 0.202598
31.3834	68.4746	94.5815	132.2705	196.3728	215.3188	236.9096	326.9307	385.3592	460.2977	508.2252	568.8835	617.8953	670.6482	753.7257	821.2866	907.9558	931.4473	962.4349	994.7044	1026.3438	1049.5412	1094.6472	1131.8559	1161.335	1172.6447	1197.5396	1225.6991	1248.8169	1253.2213	1254.5872	1300.4103	1359.5724	1378.1359	1426.6865	1481.837	1485.7794	1487.8152	1503.807	1526.0118	2234.6673	2952.4186	2973.6904	2985.4817	3017.0785	3021.1551	3037.9727	3092.4435	3115.2952	3156.2173	3502.6871
COCC1CC(O1)C#C	COC[C@H]1C[C@@H](O1)C#C	
InChI=1S/C7H10O2/c1-3-6-4-7(9-6)5-8-2/h1,6-7H,4-5H2,2H3	InChI=1S/C7H10O2/c1-3-6-4-7(9-6)5-8-2/h1,6-7H,4-5H2,2H3/t6-,7+/m0/s1
