22
gdb 101210	4.09422	0.80563	0.78518	3.9362	83.3	-0.2453	0.0365	0.2818	1564.2782	0.193206	-404.382859	-404.372773	-404.371829	-404.418511	36.994	
C	-0.1452133655	 1.5574275326	 0.1345476655	-0.391563
C	 0.0716212043	 0.0450890287	 0.0218021297	-0.170206
C	 0.7854741298	-0.41620806	-1.26611179	 0.017075
C	 2.2151137753	 0.132668291	-1.3637872747	-0.402893
C	 0.716460334	-1.9472306026	-1.3728034234	 0.063169
C	 1.4023070154	-2.6757303595	-2.5693505995	-0.429427
C	 2.2206187604	-3.436469357	-1.4980164387	 0.434706
O	 3.0339467803	-4.3202900351	-1.490696386	-0.359374
N	 1.6221727436	-2.7108015394	-0.4936051993	-0.323977
H	 0.7992934254	 2.1055497937	 0.1966192064	 0.122341
H	-0.6974718021	 1.9418962943	-0.7304205133	 0.11559
H	-0.7233442889	 1.8006648314	 1.0313609217	 0.115263
H	 0.6436224332	-0.3062102709	 0.8923067665	 0.091193
H	-0.9040005795	-0.4553481947	 0.0772117083	 0.092954
H	 0.2062908917	-0.0324174549	-2.1197570738	 0.077053
H	 2.7111491725	-0.1795081559	-2.2871731126	 0.118022
H	 2.2166504279	 1.2254037016	-1.3531516237	 0.118999
H	 2.8267486031	-0.2149783373	-0.525458819	 0.123152
H	-0.3288894426	-2.2609624905	-1.2543667049	 0.07949
H	 0.7457581979	-3.3187579849	-3.1581655983	 0.12991
H	 1.9951912082	-2.0511323148	-3.2382210857	 0.131065
H	 1.6266410253	-2.8542136259	 0.5057791347	 0.24746
54.4129	63.6247	88.078	188.2518	195.8939	237.595	280.7702	306.7412	345.215	401.5524	426.6891	498.5202	566.9977	608.3229	724.7412	773.1055	797.2371	849.6322	935.0002	948.3749	963.1874	976.936	1016.8147	1030.5759	1072.2278	1090.8652	1110.8385	1161.7807	1181.6627	1191.8106	1202.1482	1263.5164	1297.2791	1331.2874	1348.2025	1375.6399	1387.5421	1393.5278	1414.29	1423.9382	1459.5972	1483.7331	1496.3405	1500.4042	1506.3142	1512.3226	1895.0174	2992.0215	3006.891	3015.3604	3034.7183	3042.6884	3047.4773	3091.3572	3100.079	3109.0735	3112.8463	3121.0109	3149.0444	3606.6604
CCC(C)C1CC(=O)N1	CC[C@@H](C)[C@H]1CC(=O)N1	
InChI=1S/C7H13NO/c1-3-5(2)6-4-7(9)8-6/h5-6H,3-4H2,1-2H3,(H,8,9)	InChI=1S/C7H13NO/c1-3-5(2)6-4-7(9)8-6/h5-6H,3-4H2,1-2H3,(H,8,9)/t5-,6-/m1/s1
