14
gdb 56107	4.50852	0.85185	0.8404	3.9139	64.27	-0.2929	-0.0953	0.1976	1368.3193	0.097447	-473.871913	-473.862421	-473.861477	-473.907979	31.29	
C	-0.1768459962	 1.3484042326	-0.0505415313	-0.483666
C	-0.208498172	-0.1420409632	-0.2458434072	 0.44458
O	 0.2495221012	-0.7580494002	-1.1695163867	-0.344423
O	-0.8486377885	-0.7463267541	 0.8016258308	-0.226651
C	-1.0110733436	-2.1415745762	 0.6778825531	-0.189522
C	-2.1694661214	-2.4855263874	-0.2473148931	 0.301259
O	-2.8499076933	-1.6836248208	-0.8257304672	-0.25043
C	-2.4071204735	-3.9385558774	-0.3768582079	 0.224564
N	-2.5754550439	-5.079829771	-0.4533505253	-0.285113
H	 0.4541601478	 1.8007515619	-0.8141654752	 0.156358
H	-1.1943368139	 1.7424485246	-0.1325809418	 0.167098
H	 0.1917156178	 1.5960880505	 0.9478862727	 0.154225
H	-0.1062494887	-2.6247683584	 0.2912961523	 0.170556
H	-1.2223763817	-2.5356120108	 1.6773710468	 0.161166
43.1157	65.5216	76.0903	91.9083	155.4037	259.1801	291.1735	307.5517	382.0471	509.2486	553.6505	589.2905	603.9191	668.3844	840.3965	846.3624	992.895	1034.1284	1061.423	1065.7937	1133.6972	1240.4733	1287.5294	1389.9385	1399.4744	1435.5895	1468.1733	1474.0191	1817.4564	1844.0499	2339.7597	3046.6474	3059.7982	3099.8862	3126.8303	3173.614
CC(=O)OCC(=O)C#N	CC(=O)OCC(=O)C#N	
InChI=1S/C5H5NO3/c1-4(7)9-3-5(8)2-6/h3H2,1H3	InChI=1S/C5H5NO3/c1-4(7)9-3-5(8)2-6/h3H2,1H3
