20
gdb 110447	3.55126	1.18024	1.06443	1.1378	77.81	-0.2312	0.0673	0.2985	1211.0148	0.171133	-403.07547	-403.067139	-403.066195	-403.108379	32.452	
C	 0.0006659884	 1.4871730986	 0.0741949295	-0.381091
C	 0.0453975409	-0.0341139183	-0.1101933252	-0.209743
C	-1.3406822256	-0.6575308575	-0.0355595639	 0.088472
C	-1.5806745397	-2.1777043428	-0.0952655336	-0.154181
C	-2.7283087822	-1.89889097	 0.9586542204	-0.085848
C	-1.6540512308	-1.9006583631	 1.9906468604	-0.086751
C	-0.7425463642	-2.7396919837	 1.087519868	 0.145584
O	-0.880467814	-4.1279871472	 1.2977518751	-0.446633
N	-2.0471483917	-0.6256523118	 1.3050159801	-0.155029
H	 1.005246279	 1.9194050523	 0.0466847353	 0.110823
H	-0.5908385034	 1.9638377332	-0.715212045	 0.113519
H	-0.4568154187	 1.7455581385	 1.0336853908	 0.13815
H	 0.4851988228	-0.2843264365	-1.0851287685	 0.099165
H	 0.7015389984	-0.4730437985	 0.6484948611	 0.105359
H	-2.0110227195	-0.1387186843	-0.7314807919	 0.078651
H	-1.6376615161	-2.7387354581	-1.0269430886	 0.074758
H	-3.800899943	-2.0374769599	 0.9898148987	 0.101064
H	-1.7306355162	-1.9165102603	 3.070570602	 0.100192
H	 0.3339884935	-2.554449974	 1.0865723797	 0.084129
H	-1.8218195879	-4.3198292567	 1.3901658556	 0.279409
77.6668	147.4264	175.6707	246.2906	257.9039	306.9335	359.4329	401.2759	536.6096	570.5208	689.6198	768.5222	789.6348	802.2876	835.5994	878.514	903.0799	932.07	951.7065	958.2591	984.9016	1012.0807	1042.3123	1051.4833	1103.9704	1118.8848	1138.6357	1165.8938	1167.9906	1197.8999	1220.6406	1256.5627	1274.1269	1282.927	1302.3986	1328.4871	1348.6564	1407.6755	1420.6691	1439.9444	1479.096	1496.8797	1506.9983	3022.9886	3030.9317	3036.2184	3070.5374	3089.2188	3104.7745	3116.0592	3129.6109	3193.5327	3207.4139	3779.449
CCC1C2C3C(C2O)N13	CC[C@H]1[C@@H]2[C@H]3[C@@H]([C@H]2O)N13	
InChI=1S/C7H11NO/c1-2-3-4-5-6(7(4)9)8(3)5/h3-7,9H,2H2,1H3	InChI=1S/C7H11NO/c1-2-3-4-5-6(7(4)9)8(3)5/h3-7,9H,2H2,1H3/t3-,4+,5-,6-,7-,8?/m0/s1
