16
gdb 44425	3.66063	1.45368	1.43441	2.6461	69.57	-0.241	0.0005	0.2415	940.0659	0.126197	-437.795665	-437.789144	-437.788199	-437.826421	26.703	
O	-0.2414648855	 0.0632185837	-0.3821586302	-0.317406
C	-0.1418981142	 1.2242753948	-0.1383401293	 0.332687
N	-1.1168422256	 2.2690002315	-0.0420913604	-0.380226
C	-0.185176001	 3.055368204	 0.8065868393	 0.045757
C	 0.8357564157	 4.261098223	 0.7080946982	 0.036243
C	 1.9020940387	 3.1384870798	 1.1320448392	-0.338808
C	 0.9665260799	 2.3062467667	 0.1659143482	 0.034748
C	 1.2145959609	 3.1221670461	-1.1364878848	-0.083591
O	 1.0948552916	 4.4782557736	-0.6562583539	-0.251442
H	-2.082171679	 2.069468833	 0.1914896578	 0.249456
H	-0.297883348	 2.789320205	 1.8621555535	 0.096898
H	 0.7185464113	 5.204634808	 1.240223615	 0.095393
H	 2.9260249305	 3.3314570701	 0.806241951	 0.121195
H	 1.8647724422	 2.8382579581	 2.1775118482	 0.123047
H	 2.2241067331	 2.9456450259	-1.5250060834	 0.109973
H	 0.4825667593	 2.9446339167	-1.9266382385	 0.126074
139.5009	232.0561	319.7936	378.9405	470.2267	490.6275	566.9171	632.9948	667.3533	721.1173	764.1946	789.5573	819.6302	868.6662	935.5181	953.0647	960.4414	976.2483	1020.4571	1043.8642	1079.4437	1102.9033	1130.1772	1134.7859	1166.5566	1186.9701	1191.0333	1231.5457	1279.656	1301.6306	1375.5838	1413.9758	1483.5446	1518.3298	1900.3387	3038.3437	3044.5168	3086.0145	3109.731	3134.067	3168.0867	3565.8036
O=C1NC2C3CC12CO3	O=C1N[C@@H]2[C@H]3C[C@@]12CO3	
InChI=1S/C6H7NO2/c8-5-6-1-3(9-2-6)4(6)7-5/h3-4H,1-2H2,(H,7,8)	InChI=1S/C6H7NO2/c8-5-6-1-3(9-2-6)4(6)7-5/h3-4H,1-2H2,(H,7,8)/t3-,4-,6+/m1/s1
