18
gdb 72835	2.68405	1.58861	1.25721	4.3715	71.43	-0.2381	0.0299	0.268	1032.2569	0.148907	-439.11815	-439.110104	-439.10916	-439.150791	31.124	
O	 0.023374808	 1.3329083555	-0.4074182631	-0.484835
C	 0.0273918367	-0.0088941808	 0.0174744699	 0.406361
C	 0.3690797393	-1.05151188	-1.0947412711	-0.282784
C	-1.1321586275	-1.455992086	-1.1632101854	-0.224045
C	-1.3914890561	-0.6223195576	 0.1215193608	-0.170989
C	-1.3643907017	-1.4476590944	 1.406821688	 0.404161
O	-2.2308353823	-2.1848332769	 1.8229921164	-0.386319
N	-0.1493318187	-1.2267677004	 2.0085225046	-0.310535
C	 0.6953503851	-0.2185509176	 1.3951981895	-0.241737
H	 0.9154224238	 1.5633796181	-0.6901517415	 0.278998
H	 0.7900383276	-0.6153795609	-2.0039604817	 0.10067
H	 1.0258729374	-1.8542896673	-0.7491004836	 0.10565
H	-1.6431722081	-1.0418101375	-2.0341587836	 0.114034
H	-1.362566931	-2.5205668247	-1.0926014635	 0.119745
H	-2.242257142	 0.0602410007	 0.1176897196	 0.106831
H	 0.0388752515	-1.631354929	 2.9125671687	 0.25031
H	 1.734363628	-0.5609424953	 1.308596233	 0.102779
H	 0.6863780002	 0.7273774542	 1.9534320131	 0.111706
70.9712	137.9218	210.52	266.0552	297.8477	347.9249	390.9588	489.1383	540.1335	557.2421	619.4029	698.127	724.9666	740.3908	813.9164	860.2243	924.2924	953.1219	973.7352	999.624	1048.8807	1081.4616	1096.8492	1142.7089	1168.3485	1200.725	1220.6666	1240.6596	1247.3646	1269.2939	1278.497	1314.2849	1325.5785	1385.3955	1445.0508	1465.6158	1492.2511	1528.0777	1826.5889	3003.9701	3043.3582	3058.1858	3076.5477	3108.9556	3112.4417	3133.8446	3633.565	3796.7765
OC12CCC1C(=O)NC2	O[C@]12CC[C@H]1C(=O)NC2	
InChI=1S/C6H9NO2/c8-5-4-1-2-6(4,9)3-7-5/h4,9H,1-3H2,(H,7,8)	InChI=1S/C6H9NO2/c8-5-4-1-2-6(4,9)3-7-5/h4,9H,1-3H2,(H,7,8)/t4-,6-/m0/s1
