19
gdb 26233	3.67848	1.03636	0.83708	1.2751	80.56	-0.1781	0.0436	0.2217	1378.238	0.160014	-419.241859	-419.232485	-419.231541	-419.276028	35.351	
C	 0.2370847521	 1.2371652916	 1.0498386614	-0.396856
C	-0.1814672504	 0.3503710494	-0.1213584266	 0.000647
O	 0.7416472117	-0.7323501839	-0.3260770993	-0.434449
C	-1.5781750835	-0.1738497162	 0.0139946797	 0.285519
C	-2.6418655782	 0.1555066501	 0.8212893455	-0.239533
C	-3.7453664155	-0.6729326024	 0.455918552	-0.221957
C	-3.3144256906	-1.5002951074	-0.5584045658	 0.289192
N	-3.926687847	-2.5716088515	-1.2359698805	-0.607561
N	-2.008190216	-1.1859809049	-0.8264433727	-0.319238
H	 1.2730775613	 1.5577167833	 0.9158235216	 0.120892
H	-0.3981188907	 2.1255815608	 1.116211714	 0.123599
H	 0.1568875967	 0.692774734	 1.9970461035	 0.113351
H	-0.0854742716	 0.9307237407	-1.0497818726	 0.094227
H	 0.6828531205	-1.2984660878	 0.4530688284	 0.275617
H	-2.6467970996	 0.9281081149	 1.5748211026	 0.08843
H	-4.7389204765	-0.6561038295	 0.8777523152	 0.07964
H	-4.0713211994	-2.3754239937	-2.2222584092	 0.242987
H	-4.8280413903	-2.7817445811	-0.8259985795	 0.246591
H	-1.3880048528	-1.7223978764	-1.4099461476	 0.258904
53.6803	136.6151	161.7855	174.6974	239.8182	278.9207	323.2425	344.0398	393.2502	465.9401	495.2879	534.8706	613.3839	651.3891	682.9894	725.475	756.6759	814.8018	826.5255	880.7402	977.0419	1015.3303	1029.7159	1056.6172	1087.4145	1110.7338	1141.5231	1208.0631	1267.0766	1276.1305	1296.1741	1354.2376	1398.5364	1416.4831	1433.6401	1479.7969	1489.6405	1494.2972	1553.0453	1627.2343	1657.5528	3004.9852	3037.6496	3108.0631	3126.0816	3237.4212	3253.0188	3493.5383	3602.9632	3667.6371	3782.1283
CC(O)C1=CC=C(N)N1	C[C@@H](O)c1ccc(N)[nH]1	
InChI=1S/C6H10N2O/c1-4(9)5-2-3-6(7)8-5/h2-4,8-9H,7H2,1H3	InChI=1S/C6H10N2O/c1-4(9)5-2-3-6(7)8-5/h2-4,8-9H,7H2,1H3/t4-/m1/s1
