16
gdb 85719	2.08922	1.56955	1.00634	6.7957	74.75	-0.2597	-0.0118	0.2479	1169.6157	0.124166	-396.923104	-396.914374	-396.91343	-396.956952	30.892	
C	 0.0158877204	 1.5657592359	 0.1061843891	-0.339395
N	 0.0027128198	 0.1186481658	 0.12243047	-0.050522
C	-1.2530941777	-0.5987259977	 0.3927616248	-0.174931
C	-0.4390099828	-1.6746377607	 1.1756669215	-0.210935
C	-0.1331886973	-2.8756257572	 0.4188229174	 0.311079
N	 0.0828541694	-3.8418941878	-0.1767619898	-0.312483
C	 0.6883289862	-0.58152154	 1.2163502315	-0.127801
C	 2.0800677084	-0.9527417512	 0.9727860983	 0.318507
N	 3.1880332405	-1.2292826518	 0.7992928725	-0.312544
H	 1.0413664848	 1.9203778817	-0.033121631	 0.147921
H	-0.5815007212	 1.9240867769	-0.7371581761	 0.140659
H	-0.387681297	 2.0112486378	 1.0339709195	 0.102041
H	-1.9386611799	-0.059758807	 1.0656158448	 0.105649
H	-1.7954244678	-0.931246809	-0.494973964	 0.142771
H	-0.8310744034	-1.9480970631	 2.1553882377	 0.143976
H	 0.6358800177	-0.0477049626	 2.180659584	 0.116008
73.6864	101.891	146.1399	197.4535	231.0451	251.8431	320.3851	341.3054	455.4982	490.7125	553.2547	604.7928	756.379	779.6123	843.3846	932.1172	987.3478	1023.3143	1068.8323	1095.3579	1136.8623	1155.1297	1184.1739	1227.4125	1243.1328	1271.5703	1324.7029	1349.8808	1372.801	1453.4303	1488.1799	1495.9507	1519.4204	2364.2164	2364.562	2942.0589	2957.4478	2983.008	3075.7629	3102.1041	3117.9206	3118.4929
CN1CC(C#N)C1C#N	CN1C[C@@H](C#N)[C@H]1C#N	
InChI=1S/C6H7N3/c1-9-4-5(2-7)6(9)3-8/h5-6H,4H2,1H3	InChI=1S/C6H7N3/c1-9-4-5(2-7)6(9)3-8/h5-6H,4H2,1H3/t5-,6-/m1/s1
