13
gdb 29568	2.41664	1.82146	1.03863	5.2747	64.91	-0.2212	-0.0369	0.1843	1036.9935	0.08905	-493.723542	-493.71595	-493.715006	-493.755461	28.86	
O	-0.0589370239	 1.3414937197	 0.0114975681	-0.407109
C	 0.0245044869	-0.0112279217	 0.0028398323	 0.163756
C	 1.1905239183	-0.6959286413	-0.0082951241	-0.062139
O	 1.2638512411	-2.0457783721	-0.0168979884	-0.177611
C	 0.109191007	-2.7488412332	-0.0142282316	-0.062139
C	-1.1150116784	-2.1746014472	-0.0034110042	 0.163756
O	-2.2777610825	-2.8709489675	-0.0006729767	-0.407109
C	-1.2714836632	-0.7104062659	 0.0064302711	 0.294668
O	-2.3489466464	-0.14290101	 0.0162229456	-0.360049
H	 0.8255665802	 1.7240837233	 0.0084130036	 0.300175
H	 2.1738327413	-0.2407981427	-0.0114540553	 0.126814
H	 0.2900574945	-3.8171483647	-0.021789693	 0.126814
H	-2.0929600949	-3.8167460569	-0.0075803072	 0.300175
101.3671	252.021	297.1018	309.059	314.1908	351.7257	379.2961	461.8884	478.1502	527.0222	533.9844	583.7069	680.6221	788.7043	823.5982	832.7452	851.8465	1021.2622	1097.0324	1198.2996	1229.014	1243.6305	1351.4766	1354.9454	1446.4601	1474.0603	1650.1669	1676.8086	1751.162	3199.8382	3204.7453	3810.7973	3811.4847
OC1=COC=C(O)C1=O	Oc1cocc(O)c1=O	
InChI=1S/C5H4O4/c6-3-1-9-2-4(7)5(3)8/h1-2,6-7H	InChI=1S/C5H4O4/c6-3-1-9-2-4(7)5(3)8/h1-2,6-7H
