12
gdb 123284	9.9278	0.67955	0.63602	0.492	90.11	-0.2387	-0.0497	0.189	1608.6412	0.078958	-394.480294	-394.472836	-394.471892	-394.512826	27.019	
C	 0.0512455644	-3.7533911719	-0.0187213715	-0.599194
C	 0.0274005202	-2.5455262263	-0.0116873061	 0.26939
C	 0.0002854457	-1.1882464678	-0.0037724452	-0.089625
C	-0.0196739285	 0.0237522384	 0.0032382385	 0.411454
C	-0.0108843008	 1.4318576204	 0.0109645518	 0.095915
N	-1.1329941133	 2.1762816541	 0.0294180792	-0.264731
N	-0.6679452163	 3.4114049479	 0.0303775863	-0.10883
N	 0.6514688287	 3.5647615328	 0.0144167349	-0.163409
C	 1.0967035945	 2.3131834619	 0.0017622489	-0.184337
H	 0.0721206697	-4.8149067062	-0.0249127145	 0.195562
H	-1.2898385232	 4.2046149695	 0.0427290849	 0.299161
H	 2.1501075088	 2.0872349272	-0.0129171072	 0.138643
76.567	87.5962	232.1824	239.7876	439.488	457.6636	489.3565	544.8821	553.5344	554.2284	611.5657	623.4631	715.946	750.83	890.995	956.122	993.7349	1063.2686	1162.5379	1227.712	1239.0887	1348.8781	1388.5159	1479.3591	1549.5397	2183.6133	2349.8639	3282.8723	3504.5089	3660.9036
C#CC#CC1=NNN=C1	C#CC#Cc1n[nH]nc1	
InChI=1S/C6H3N3/c1-2-3-4-6-5-7-9-8-6/h1,5H,(H,7,8,9)	InChI=1S/C6H3N3/c1-2-3-4-6-5-7-9-8-6/h1,5H,(H,7,8,9)
