21
gdb 61889	4.1614	0.64415	0.61643	3.3036	80.39	-0.2424	-0.02	0.2223	1845.4955	0.179934	-424.219444	-424.209223	-424.208279	-424.256008	36.491	
O	-0.3854608401	 1.4083769446	 0.0824902066	-0.429517
C	 0.0616667836	 0.0538476807	 0.0664309447	 0.118636
C	 0.8246385164	-0.2564113542	-1.2354771213	-0.296979
C	-0.0172574285	-0.0282187424	-2.4736685095	 0.155203
O	-0.0783752148	-0.7936910813	-3.4024091011	-0.243631
C	 0.8878037102	-0.2846799183	 1.3140890698	-0.235957
C	 0.1230726854	-0.0749269954	 2.6030035538	 0.036485
C	-0.7185617523	-1.189001126	 3.175429548	-0.256189
C	 0.5545828026	-0.7680455265	 3.8687600747	-0.280236
H	 0.3929174935	 1.9735929213	 0.1529680553	 0.278644
H	-0.8630526809	-0.5358394251	 0.0890660079	 0.104987
H	 1.6973795984	 0.4132715287	-1.2937247941	 0.1098
H	 1.1968891408	-1.2851051976	-1.2519710647	 0.121381
H	-0.59467953	 0.9207047844	-2.4663421904	 0.092696
H	 1.2266576929	-1.3264089136	 1.2481216268	 0.099566
H	 1.7996136546	 0.3334751767	 1.3061372965	 0.086491
H	-0.2805816557	 0.9264602689	 2.7152195401	 0.09226
H	-1.6663835535	-0.9366836915	 3.6373774158	 0.115116
H	-0.7191431193	-2.1433441882	 2.6579847546	 0.109194
H	 1.4049917348	-1.4403993805	 3.814563173	 0.109252
H	 0.4779060119	-0.2279324148	 4.8059518034	 0.112799
46.9028	66.3347	83.0107	114.6119	123.2285	229.5112	288.0007	322.0603	353.1918	392.9608	436.2905	490.9215	560.0032	775.1111	790.4379	818.4818	838.1296	865.2247	893.4533	942.9739	981.2212	1016.5882	1041.0358	1058.748	1077.4988	1081.0894	1123.6019	1139.4272	1151.0787	1198.234	1200.039	1226.5811	1240.4046	1270.6233	1316.8605	1347.8989	1374.3141	1414.3326	1418.5478	1424.7464	1449.4425	1469.4623	1479.4446	1508.0765	1829.8819	2911.1993	2985.1123	2994.9448	3040.5953	3052.43	3095.1617	3127.5603	3132.4278	3158.5419	3205.7621	3221.1004	3787.0171
OC(CC=O)CC1CC1	O[C@@H](CC=O)CC1CC1	
InChI=1S/C7H12O2/c8-4-3-7(9)5-6-1-2-6/h4,6-7,9H,1-3,5H2	InChI=1S/C7H12O2/c8-4-3-7(9)5-6-1-2-6/h4,6-7,9H,1-3,5H2/t7-/m0/s1
