16
gdb 78415	3.36661	1.34986	1.21966	2.9432	69.02	-0.2554	0.0204	0.2757	1038.1448	0.124636	-437.825128	-437.817912	-437.816968	-437.856683	28.668	
O	-0.0152433754	 1.2876395636	-0.0758154206	-0.435658
C	-0.028373696	-0.1083847336	-0.0359929842	 0.080337
C	-0.4701156204	-0.7146079435	 1.2797681036	-0.124947
C	-1.4065548823	-0.6661880035	 0.050145298	-0.074963
C	-1.4204194547	-2.217921884	-0.0048823405	-0.174853
C	-0.4921799149	-2.2469144373	 1.2198342437	 0.085806
O	 0.5610401086	-2.8896398624	 0.4154572288	-0.279885
C	-0.2666977594	-2.9180751599	-0.7039671744	 0.423604
N	-0.0676274934	-3.4000201485	-1.8432640511	-0.550359
H	 0.804625912	 1.5883488061	 0.3301859165	 0.291441
H	 0.7351705751	-0.5953479332	-0.6402944232	 0.111744
H	-0.4860653415	-0.1145559467	 2.1809519573	 0.096278
H	-2.26812825	-0.036515453	-0.126601614	 0.112771
H	-2.3977067207	-2.6937343795	-0.0282944506	 0.108384
H	-0.6924392808	-2.8015088782	 2.1350348496	 0.101981
H	 0.8612511939	-3.8202033063	-1.9135538688	 0.228319
117.0854	198.5185	263.1931	292.6825	339.8739	393.9996	436.2891	553.4517	652.0141	731.4612	767.9533	804.7894	826.8846	859.0082	872.0502	895.135	907.5862	970.938	974.1246	1003.282	1020.7621	1038.8021	1089.2375	1121.277	1159.9648	1176.8905	1198.4695	1225.2687	1244.8038	1264.135	1301.7211	1318.7735	1330.8478	1457.9662	1818.9126	3116.2815	3130.7249	3152.0084	3192.942	3210.7774	3469.8569	3808.089
OC1C2C1C1C2OC1=N	O[C@H]1[C@H]2[C@@H]1[C@@H]1[C@H]2O[C]1[NH]	
InChI=1S/C6H7NO2/c7-6-3-1-2(4(1)8)5(3)9-6/h1-5,7-8H	InChI=1S/C6H7NO2/c7-6-3-1-2(4(1)8)5(3)9-6/h1-5,7-8H/t1-,2-,3-,4-,5+/m1/s1
