16
gdb 54004	3.57872	0.9592	0.82785	1.488	73.66	-0.2434	-0.0257	0.2177	1360.8917	0.123157	-434.075073	-434.065498	-434.064554	-434.109711	35.052	
N	 0.1464699206	 1.0555775392	-0.5417429126	-0.526038
C	-0.0011151522	-0.142920361	 0.0527802991	 0.394599
O	 0.9039350709	-0.8558869567	 0.4563451259	-0.382638
C	-1.4590185007	-0.5776911232	 0.196790227	 0.29193
N	-1.5666881154	-1.8324821119	 0.7064705635	-0.546022
N	-2.3764981336	 0.2314988475	-0.1892349766	-0.3188
C	-3.7677254312	-0.2126717473	-0.1114986964	-0.314321
C	-4.2436596508	-0.5326242647	 1.2388978064	 0.300426
C	-4.6046179452	-0.8127412076	 2.3519242195	-0.462729
H	 1.0642840671	 1.4507943257	-0.6489042586	 0.265213
H	-0.687738054	 1.5613276786	-0.7974648655	 0.277003
H	-0.6930884836	-2.2092059345	 1.050266413	 0.274492
H	-2.4175838681	-2.0992664013	 1.176493926	 0.266952
H	-4.3978389502	 0.5806334825	-0.5273243036	 0.140231
H	-3.9179946075	-1.097757697	-0.751633947	 0.135933
H	-4.940935796	-1.0345835384	 3.3347779898	 0.203768
60.9906	86.9532	113.7309	196.6722	236.3195	310.9135	319.8243	335.3015	387.9684	454.1236	482.0514	554.8311	584.806	627.259	637.7459	652.8657	662.4885	686.3355	810.5822	826.7693	921.2351	994.9575	1008.3222	1104.4165	1159.2888	1264.5549	1314.5108	1347.3042	1422.0178	1472.7487	1581.3646	1604.1951	1729.0176	1800.0931	2224.5339	2973.0576	3060.4049	3501.3789	3549.2513	3583.7097	3677.608	3736.9672
NC(=O)C(N)=NCC#C	NC(=O)C(=NCC#C)N	
InChI=1S/C5H7N3O/c1-2-3-8-4(6)5(7)9/h1H,3H2,(H2,6,8)(H2,7,9)	InChI=1S/C5H7N3O/c1-2-3-8-4(6)5(7)9/h1H,3H2,(H2,6,8)(H2,7,9)
