17
gdb 104709	2.93803	1.13699	0.97564	2.2354	64.16	-0.2766	0.0033	0.2798	1216.0078	0.134657	-496.117359	-496.108373	-496.107429	-496.151744	32.786	
O	-0.0574041367	 1.6776747271	 0.0419921903	-0.424236
C	 0.0382037479	 0.2704788922	-0.1147470912	-0.13102
C	-1.3002335962	-0.4293188568	 0.0713062398	 0.35906
C	-2.4475858275	 0.2994280767	-0.6386611347	-0.118321
O	-2.0974236319	 0.7079837938	-1.9444083605	-0.420129
C	-1.248380039	-1.9673917918	-0.016277207	-0.48054
C	-1.6182741254	-1.9111201399	 1.4648157229	 0.444698
O	-1.8268750479	-2.6686616933	 2.3547291355	-0.31127
O	-1.6434164804	-0.5366133976	 1.5121544366	-0.286609
H	-0.2996360674	 1.8561219457	 0.957758755	 0.300301
H	 0.3788739139	 0.1007990809	-1.1401489023	 0.135275
H	 0.7785842281	-0.1678772767	 0.5690574364	 0.109782
H	-3.3127573635	-0.3655987973	-0.7249303999	 0.116809
H	-2.7471235925	 1.1467691558	-0.008676857	 0.109421
H	-1.5270998907	 1.4793802918	-1.8429156356	 0.301198
H	-1.9916185295	-2.4385532933	-0.6608778262	 0.151649
H	-0.2673665912	-2.4083703974	-0.207503562	 0.143932
65.3305	72.1092	108.3592	204.9914	268.9967	326.381	375.2789	399.7106	424.9786	444.7284	518.527	526.7346	564.4528	723.9404	802.5088	837.852	910.7584	941.9487	968.0015	1004.1112	1068.4169	1087.8189	1094.7441	1133.6162	1163.0307	1211.3506	1236.655	1263.7908	1305.9066	1379.0972	1406.5192	1415.0004	1427.5314	1453.9245	1485.1882	1497.1849	1942.7818	3013.162	3023.9731	3083.3803	3085.0492	3097.5429	3143.0908	3794.3408	3804.9995
OCC1(CO)CC(=O)O1	OCC1(CO)CC(=O)O1	
InChI=1S/C5H8O4/c6-2-5(3-7)1-4(8)9-5/h6-7H,1-3H2	InChI=1S/C5H8O4/c6-2-5(3-7)1-4(8)9-5/h6-7H,1-3H2
