18
gdb 52731	3.45154	0.65772	0.56985	4.1079	79.98	-0.2483	0.022	0.2702	1906.4443	0.145181	-439.083395	-439.072618	-439.071674	-439.122355	36.108	
C	-0.0384603937	 1.4615750446	 0.0826841316	-0.500014
C	 0.0291240871	 0.0100506713	 0.0030494273	 0.09387
C	 0.1004851009	-1.1914693915	-0.0456950022	 0.033295
C	 0.14328188	-2.6468414774	-0.1536976384	-0.062362
O	-1.061564984	-3.2628622531	 0.3202652131	-0.429677
C	 0.4274043587	-3.0937929112	-1.6008847642	-0.155384
N	 0.4030452128	-4.538601426	-1.6861161757	-0.275387
C	 1.4083452837	-5.2724431279	-2.2315775499	 0.150958
O	 2.3974035217	-4.8194682665	-2.7685656897	-0.323881
H	 0.96403173	 1.8954009151	 0.1633411124	 0.158238
H	-0.51573578	 1.8892102843	-0.8054839258	 0.152821
H	-0.6109963855	 1.7833253937	 0.9592485661	 0.15496
H	 0.9340042259	-3.050974608	 0.4896008664	 0.124701
H	-1.7974202888	-2.7174061444	 0.0201902414	 0.287241
H	-0.3248303055	-2.6464101337	-2.2645090918	 0.107029
H	 1.4120402456	-2.7561516911	-1.9298294901	 0.155503
H	-0.349405167	-5.0061260084	-1.2037601618	 0.254143
H	 1.216847608	-6.3597670199	-2.1365184787	 0.073945
12.1762	42.101	59.63	89.8042	152.6566	207.8224	246.1901	294.4325	306.9945	331.9384	365.0816	433.3544	523.5741	552.529	600.9678	753.6201	809.6407	904.293	998.5385	1033.7321	1051.0189	1054.0023	1068.8951	1075.7866	1170.2936	1210.5534	1230.3136	1278.9981	1308.5768	1384.6156	1413.2226	1420.2627	1429.6949	1475.4837	1477.1912	1490.9071	1522.3882	1804.3454	2367.7798	2936.1165	3014.0473	3030.7788	3045.8102	3093.666	3094.3745	3126.8663	3627.8209	3804.1165
CC#CC(O)CNC=O	CC#C[C@@H](O)CNC=O	
InChI=1S/C6H9NO2/c1-2-3-6(9)4-7-5-8/h5-6,9H,4H2,1H3,(H,7,8)	InChI=1S/C6H9NO2/c1-2-3-6(9)4-7-5-8/h5-6,9H,4H2,1H3,(H,7,8)/t6-/m1/s1
