15
gdb 126253	2.0989	1.58849	0.95826	0.393	75.16	-0.2757	-0.058	0.2178	1184.7002	0.114072	-413.010475	-413.002274	-413.00133	-413.044323	29.042	
C	 0.0469098124	 1.6142033631	 0.1361136518	-0.374836
C	-0.0599018393	 0.0913082534	-0.0551464483	-0.304056
C	 0.5980127076	-0.3772125468	-1.3118844953	 0.211707
C	 0.0383364865	-0.9055827405	-2.4648732629	 0.204333
N	 1.1089897597	-1.1336904562	-3.2795836308	-0.264173
N	 2.2487680408	-0.7786311472	-2.6840932767	-0.088074
N	 1.9461157385	-0.3220757945	-1.5011689436	-0.230643
C	-1.2956447318	-1.1874415352	-2.8251069077	 0.230472
N	-2.3930433496	-1.4173989257	-3.1164547362	-0.336147
H	 1.0941041297	 1.9271303856	 0.1448493929	 0.144981
H	-0.4613170575	 2.1485676296	-0.6721365704	 0.125086
H	-0.4118467373	 1.9114896376	 1.0830807684	 0.122467
H	 0.4151388976	-0.4156056433	 0.7920971035	 0.134798
H	-1.1099878536	-0.216846187	-0.0651666412	 0.124813
H	 1.1225207663	-1.5219319328	-4.2107358034	 0.299273
38.142	129.8588	159.2197	178.1434	223.1879	334.1867	387.1538	518.7744	553.9371	580.2207	595.2365	685.0067	717.5384	767.3242	797.8594	973.5656	1018.5785	1069.0882	1085.3682	1112.2366	1192.9221	1222.391	1277.7394	1339.0462	1353.7423	1369.8167	1407.7547	1479.3013	1485.1595	1497.0645	1509.6155	1591.7647	2346.6872	3044.6792	3047.4645	3087.9521	3118.8516	3129.9281	3645.3483
CCC1=C(NN=N1)C#N	CCc1c([nH]nn1)C#N	
InChI=1S/C5H6N4/c1-2-4-5(3-6)8-9-7-4/h2H2,1H3,(H,7,8,9)	InChI=1S/C5H6N4/c1-2-4-5(3-6)8-9-7-4/h2H2,1H3,(H,7,8,9)
