20
gdb 72181	3.02517	1.96529	1.5565	1.6616	80.51	-0.2216	0.0791	0.3007	929.8009	0.173837	-365.973279	-365.966494	-365.96555	-366.003871	28.984	
C	 0.0533781557	 1.5015291874	 0.0390281397	-0.502185
C	 0.0021753086	-0.0059292436	-0.0452956328	 0.356176
C	 0.1342715361	-0.7360012185	-1.400612263	-0.289742
C	-0.8126044318	-1.8396602565	-0.8433905152	-0.056323
C	-0.0136004361	-2.9216073897	-0.1086494592	-0.231996
C	 0.3969136245	-2.2125231531	 1.1632956237	-0.031391
C	 0.6540921418	-0.7485053239	 1.1456819588	-0.102401
N	-0.6718893958	-1.3057128091	 1.6416022024	-0.158984
C	-1.2474708919	-0.8537474412	 0.3092602635	-0.040546
H	 1.0672547988	 1.8733900653	-0.1545675705	 0.11601
H	-0.6151295585	 1.9597655716	-0.6977816522	 0.113318
H	-0.245280445	 1.8526812802	 1.0329375581	 0.126287
H	-0.3351342913	-0.1564419983	-2.2021793047	 0.094026
H	 1.1308683869	-1.0514318552	-1.7274451513	 0.088463
H	-1.5777398128	-2.2294952944	-1.5148794473	 0.068999
H	-0.6396696162	-3.7850033752	 0.145282519	 0.104313
H	 0.8362509307	-3.2837762621	-0.6965803971	 0.102651
H	 0.8750211054	-2.7822015346	 1.9556547724	 0.089379
H	 1.3568823885	-0.2855187505	 1.8340172317	 0.084204
H	-2.2657637178	-0.4716619287	 0.355870244	 0.069741
220.3442	222.4018	258.9595	328.9723	410.9208	477.8944	535.9715	657.4373	698.3289	731.9531	746.3647	815.6941	835.2402	850.6749	861.1225	905.2496	938.7169	943.6198	954.5046	987.7161	1010.2918	1020.4323	1056.4977	1074.8006	1117.0269	1129.3574	1158.3177	1180.0326	1203.9902	1221.8808	1234.3062	1244.755	1254.184	1273.8376	1303.7918	1337.3381	1370.9266	1407.2325	1412.1412	1481.0608	1491.0456	1492.1444	1495.1704	3019.239	3033.9791	3035.4261	3079.4148	3082.0646	3086.5548	3096.0619	3104.5779	3128.1828	3134.5942	3153.0255
CC12CC3CC4C1N4C23	C[C@@]12C[C@H]3C[C@H]4[C@@H]1N4[C@@H]23	
InChI=1S/C8H11N/c1-8-3-4-2-5-7(8)9(5)6(4)8/h4-7H,2-3H2,1H3	InChI=1S/C8H11N/c1-8-3-4-2-5-7(8)9(5)6(4)8/h4-7H,2-3H2,1H3/t4-,5+,6-,7+,8+,9?/m1/s1
