20
gdb 97940	3.25726	0.72375	0.63991	1.9242	84.46	-0.2284	0.0316	0.2599	1779.5325	0.169007	-403.075518	-403.065115	-403.064171	-403.112894	36.41	
C	-0.0222439311	 1.7725403415	 0.8583364344	-0.316699
N	-0.1205968798	 0.3782701932	 0.4510326573	-0.070261
C	 0.9921446235	-0.2002741576	-0.2930341786	-0.263473
C	 0.7005761789	-0.6370480753	 1.1021372692	 0.035801
C	 1.6765809199	-0.326241745	 2.2335120351	-0.391133
C	 1.0091053023	-0.1764286378	 3.5241701854	 0.053241
C	 0.4391394704	-0.0552550378	 4.5789014074	 0.062813
C	-0.307982325	 0.0907428965	 5.8277071648	-0.189839
O	-1.5220985423	 0.8151987339	 5.6778865679	-0.402895
H	 1.0049313256	 2.1308091565	 1.0304002732	 0.098513
H	-0.4628865826	 2.3948242756	 0.0731499252	 0.1246
H	-0.5942931053	 1.9226750583	 1.7785658219	 0.135401
H	 0.7332903432	-0.8255396058	-1.1437894347	 0.115119
H	 1.8809558081	 0.4151201442	-0.4387376156	 0.103243
H	 0.1714351038	-1.5772004349	 1.2505208765	 0.096747
H	 2.4028339568	-1.1479641896	 2.2911892134	 0.135697
H	 2.2598107674	 0.572331124	 2.0049533399	 0.13031
H	-0.488179644	-0.9047547045	 6.2645882979	 0.116024
H	 0.2836878641	 0.6521247196	 6.5595201041	 0.13881
H	-2.010209904	 0.408414705	 4.9543094953	 0.287981
26.0929	38.628	79.8643	140.0699	180.9413	223.475	276.8415	304.7641	333.4979	363.7422	408.6144	418.6814	511.6611	594.3611	748.6519	774.052	791.2977	906.791	962.7904	988.4234	1036.7419	1043.7264	1075.9155	1111.2824	1131.1543	1144.4928	1152.8227	1172.5193	1202.3669	1214.6562	1238.2355	1313.0946	1342.5328	1358.8464	1415.3784	1419.0077	1449.4818	1467.3698	1487.9224	1493.7366	1504.337	1516.4732	2361.5963	2973.8621	2976.4771	3023.4631	3060.5605	3063.4967	3071.4363	3079.6461	3111.0088	3114.8244	3168.168	3815.6737
CN1CC1CC#CCO	CN1C[C@H]1CC#CCO	
InChI=1S/C7H11NO/c1-8-6-7(8)4-2-3-5-9/h7,9H,4-6H2,1H3	InChI=1S/C7H11NO/c1-8-6-7(8)4-2-3-5-9/h7,9H,4-6H2,1H3/t7-,8?/m1/s1
