15
gdb 104573	2.21493	1.4325	1.04257	2.3895	61.79	-0.2698	-0.0551	0.2147	1133.0699	0.110046	-494.924106	-494.915398	-494.914454	-494.958482	30.766	
O	 0.1806900349	 1.5531450888	 0.2259974101	-0.412163
C	 0.2265792399	 0.2002527679	-0.1707348361	-0.124594
C	-1.1475176224	-0.4528352525	-0.0619340478	 0.289091
C	-1.2251376567	-1.9824087936	-0.0028414602	-0.485826
C	-1.6628397979	-1.7510546104	 1.4419254704	 0.453212
O	-1.9584351025	-2.3887433971	 2.3954076384	-0.298148
O	-1.6034699062	-0.3691491838	 1.3482170277	-0.29895
C	-2.1929128615	 0.2302344303	-0.9360447597	 0.127491
O	-2.789216199	-0.3357891382	-1.8141112987	-0.235927
H	-0.0961249064	 1.5683116664	 1.1501904738	 0.302111
H	 0.5673580677	 0.1809715512	-1.2116530512	 0.135988
H	 0.941492394	-0.3836565401	 0.4295077655	 0.107439
H	-1.9891691279	-2.4195004809	-0.6468473663	 0.173252
H	-0.2850328294	-2.526360837	-0.1088748903	 0.148284
H	-2.3604474266	 1.297509899	-0.6951244654	 0.11874
47.2987	81.9227	129.615	196.1091	242.4137	293.8012	369.4565	396.4287	441.4195	498.0016	533.4015	631.3152	693.6313	799.1426	853.7484	921.8779	943.6074	962.0547	1023.9129	1075.606	1083.7862	1142.5524	1188.1565	1211.3847	1244.1037	1283.1106	1394.3938	1407.994	1417.3735	1453.5442	1491.3833	1831.7138	1953.0473	2958.6204	2987.6139	3078.7763	3093.6689	3154.701	3793.75
OCC1(CC(=O)O1)C=O	OC[C@]1(CC(=O)O1)C=O	
InChI=1S/C5H6O4/c6-2-5(3-7)1-4(8)9-5/h2,7H,1,3H2	InChI=1S/C5H6O4/c6-2-5(3-7)1-4(8)9-5/h2,7H,1,3H2/t5-/m0/s1
