15
gdb 25817	4.12204	1.13492	0.8916	3.9805	73.44	-0.2118	-0.0206	0.1912	1227.0958	0.114857	-450.172052	-450.163882	-450.162937	-450.205183	30.802	
N	-0.2322319009	 1.3354096381	 0.0847414598	-0.528824
C	 0.0113302447	-0.0243275907	 0.0574171394	 0.232935
N	 1.2180098742	-0.4590273564	 0.1007944729	-0.534519
C	-1.187127303	-0.8622788053	 0.0160168236	 0.313353
C	-1.4274268827	-2.1957961905	-0.064113626	-0.198403
N	-2.7891442863	-2.4471055096	-0.0762209405	-0.333011
C	-3.3184158804	-1.2591499815	-0.0156379213	 0.458422
N	-4.643308253	-0.9299889608	-0.0659727082	-0.588743
O	-2.4372835772	-0.2415231529	 0.0424626094	-0.225934
H	 0.5883791627	 1.8942012046	-0.0968356559	 0.25646
H	-1.0824512661	 1.6621680936	-0.344807428	 0.254914
H	 1.2389269979	-1.4749228942	 0.1591293071	 0.212798
H	-0.711128969	-3.000854033	-0.1135090848	 0.132827
H	-5.2571459012	-1.7045188423	 0.1362091789	 0.277683
H	-4.8970306997	-0.0675506791	 0.3918085833	 0.270042
45.7999	151.6951	174.4531	305.2273	327.1321	379.955	386.8814	430.3547	516.9761	537.0703	566.5565	605.9329	653.5448	732.7785	749.0161	770.7469	804.0282	878.5326	972.4058	1004.6348	1080.7066	1102.4188	1142.3247	1201.4595	1209.6263	1275.4563	1421.1782	1442.8747	1590.3122	1613.7083	1638.2032	1676.1497	1695.6886	3262.4152	3507.7612	3581.0305	3583.9122	3694.6623	3702.683
NC(=N)C1=CN=C(N)O1	NC(=N)c1cnc(N)o1	
InChI=1S/C4H6N4O/c5-3(6)2-1-8-4(7)9-2/h1H,(H3,5,6)(H2,7,8)	InChI=1S/C4H6N4O/c5-3(6)2-1-8-4(7)9-2/h1H,(H3,5,6)(H2,7,8)
