15
gdb 49856	3.57374	1.1782	0.97009	1.2997	66.02	-0.2517	-0.0481	0.2037	1151.614	0.111553	-457.77339	-457.765667	-457.764722	-457.806524	28.093	
O	-0.1640390282	 0.0265396102	 0.0911120231	-0.240792
C	-0.0026616843	 1.2174552935	 0.0445521074	 0.155695
C	 1.3508062972	 1.9024457412	 0.0326780006	-0.109375
C	 1.5426735278	 2.8276698888	-1.1975441312	-0.372978
C	 2.3480230261	 4.0337607095	-0.6897216152	 0.421061
O	 3.0737581866	 4.7365526438	-1.3404270342	-0.303653
C	 2.1225618037	 4.1218656014	 0.7994713526	-0.084323
O	 0.7193348525	 4.0192758158	 1.1177492074	-0.242394
C	 1.5193202031	 2.8467453671	 1.2271418977	 0.01987
H	-0.8639544525	 1.9216124545	 0.0050032442	 0.096708
H	 2.1216518926	 1.1271649236	 0.0710549628	 0.110873
H	 2.0626802823	 2.3424812642	-2.0241706827	 0.14885
H	 0.5809460563	 3.1903774302	-1.5792788027	 0.149477
H	 2.7229601691	 4.767331965	 1.4311735087	 0.126356
H	 1.6526104077	 2.4520240114	 2.2304909813	 0.124623
64.1119	82.0558	163.2652	259.6317	320.332	398.7282	458.0188	473.1356	544.0893	645.3865	718.4213	814.6734	833.3086	871.4115	888.0914	939.2274	978.4618	1011.0724	1089.6475	1090.6313	1103.1015	1170.168	1189.346	1238.1254	1245.3695	1292.1166	1304.0703	1320.4451	1398.1149	1421.4403	1450.8774	1834.4613	1854.6204	2885.7949	3051.1526	3078.2266	3134.641	3160.933	3189.6006
O=CC1CC(=O)C2OC12	O=C[C@H]1CC(=O)[C@H]2O[C@@H]12	
InChI=1S/C6H6O3/c7-2-3-1-4(8)6-5(3)9-6/h2-3,5-6H,1H2	InChI=1S/C6H6O3/c7-2-3-1-4(8)6-5(3)9-6/h2-3,5-6H,1H2/t3-,5+,6-/m1/s1
