18
gdb 81809	2.11596	1.78878	1.29308	0.6647	72.05	-0.2371	0.0736	0.3106	1038.2569	0.146996	-439.013717	-439.005308	-439.004364	-439.046259	32.929	
O	 0.1422231623	 1.346408765	-0.2165473285	-0.430665
C	 0.0576318136	-0.0447289551	-0.0171486707	 0.068365
C	 0.276336066	-0.5539198694	 1.4199152135	-0.175885
C	 0.0834868232	-2.0560618997	 1.4540800226	-0.352535
C	-1.1247099325	-1.1658545386	 1.4489133278	 0.350207
O	-2.0527917814	-1.1358416662	 2.471530791	-0.460862
C	-1.3757036851	-0.6351935683	 0.0530876725	 0.235237
C	-2.5865019034	 0.0485067781	-0.4384409693	-0.318136
N	-2.1990791342	-1.2811239103	-0.9654367483	-0.391141
H	-0.453954442	 1.7687589377	 0.4127044623	 0.281735
H	 0.7178795906	-0.4916131881	-0.7685308877	 0.08938
H	 0.8218438767	-0.0202635795	 2.1878678541	 0.101602
H	 0.3365552813	-2.6701717442	 0.5923336587	 0.111972
H	 0.2987795646	-2.5107310307	 2.4163834482	 0.117319
H	-2.4952126066	-1.9914066704	 2.5004296697	 0.293496
H	-3.4852986906	 0.0517506167	 0.1716046235	 0.125247
H	-2.4487520168	 0.9218789554	-1.0708271234	 0.121467
H	-1.7694386957	-1.1734071824	-1.8820605563	 0.233197
102.6251	204.9454	216.3349	237.4031	256.8816	295.3713	355.7607	399.2063	462.1753	500.4799	526.2733	596.8917	693.3643	816.9588	831.86	861.7848	913.1847	926.1902	950.8561	979.2089	989.2909	1007.509	1027.4572	1043.1754	1078.72	1112.0266	1129.3607	1202.0983	1225.6003	1235.849	1265.3907	1280.8903	1291.535	1310.9949	1391.7034	1423.0184	1439.9261	1495.0584	1510.6888	3051.8493	3102.718	3107.8763	3194.9591	3197.525	3202.6917	3485.2455	3795.7452	3797.1936
OC1C2CC2(O)C11CN1	O[C@H]1[C@@H]2C[C@]2(O)[C@]21CN2	
InChI=1S/C6H9NO2/c8-4-3-1-6(3,9)5(4)2-7-5/h3-4,7-9H,1-2H2	InChI=1S/C6H9NO2/c8-4-3-1-6(3,9)5(4)2-7-5/h3-4,7-9H,1-2H2/t3-,4-,5+,6+/m0/s1
