20
gdb 112797	2.13245	1.32479	0.90809	2.3681	76.02	-0.2137	-0.033	0.1806	1313.9257	0.168639	-440.249978	-440.24007	-440.239125	-440.285584	35.216	
C	-0.3352007236	 1.6024994099	 0.0794421422	-0.332606
N	-0.0212896999	 0.1917026159	 0.1221059299	-0.076285
C	 0.8024884022	-0.3981933688	-0.9480037247	-0.169766
C	 1.4403583769	-1.3521375158	 0.0913265855	-0.020536
C	 2.9370317629	-1.6080815521	-0.0149617396	-0.090604
O	 3.240032973	-2.2786587258	-1.2335255887	-0.41793
C	 0.8378802105	-0.400036233	 1.1722058661	-0.097792
C	 1.7835388695	 0.5108855911	 1.9360558626	 0.13044
O	 2.8692265528	 0.1808973775	 2.3451095764	-0.246051
H	 0.5445147044	 2.2634303287	-0.0327184533	 0.097008
H	-0.9971920199	 1.7912340205	-0.7728006171	 0.127383
H	-0.8731991371	 1.899983193	 0.9861885349	 0.122817
H	 0.2309426664	-0.8384614852	-1.7711631444	 0.105216
H	 1.5469768374	 0.2983854157	-1.3697407826	 0.091395
H	 0.9122083011	-2.3113180199	 0.1171374669	 0.078055
H	 3.4929448871	-0.6684590434	-0.0496064953	 0.118386
H	 3.3015581323	-2.1638416736	 0.8592934777	 0.104216
H	 2.8451286289	-3.1557213699	-1.1947124308	 0.280863
H	 0.2504320265	-0.8999549357	 1.9615699456	 0.107385
H	 1.3745947687	 1.520028771	 2.1678984185	 0.088407
45.2399	74.7858	112.9463	157.8269	203.5945	258.5081	262.6091	300.7325	320.0037	369.9378	410.0667	472.7827	588.2124	663.6547	802.331	839.8359	903.7678	944.621	983.0183	1021.3188	1055.4107	1071.5811	1093.1326	1109.6713	1128.5296	1171.6121	1190.7524	1231.2717	1251.0737	1256.6021	1272.8962	1321.6278	1335.9868	1360.3711	1391.5269	1420.4138	1425.2101	1452.2759	1484.4969	1496.6186	1507.8444	1522.6125	1816.3973	2877.7088	2929.4789	2953.4564	2962.5035	3019.0502	3045.1203	3051.3469	3067.1017	3093.3769	3108.5624	3812.5171
CN1CC(CO)C1C=O	CN1C[C@@H](CO)[C@H]1C=O	
InChI=1S/C6H11NO2/c1-7-2-5(3-8)6(7)4-9/h4-6,8H,2-3H2,1H3	InChI=1S/C6H11NO2/c1-7-2-5(3-8)6(7)4-9/h4-6,8H,2-3H2,1H3/t5-,6+/m0/s1
