18
gdb 85659	2.04862	1.53324	1.10964	3.847	77.99	-0.2648	-0.0092	0.2556	1159.1926	0.147708	-401.980937	-401.971997	-401.971053	-402.015005	32.962	
C	-0.2696890206	 1.492616689	 0.0476160129	-0.498179
C	-0.1326468396	 0.0061100508	-0.0165282909	 0.3244
C	-0.1469142488	-0.7853575249	-1.0904930046	-0.21028
C	 0.1190383489	-2.2356018246	-0.7690679933	 0.102691
O	 1.4021038431	-2.6591967215	-1.2184768591	-0.428212
C	-0.0642951979	-2.2881854392	 0.7694468761	-0.265814
C	 0.0854028616	-0.8175387993	 1.25774517	-0.240577
C	 1.4003884789	-0.5288376097	 1.8402715731	 0.269415
N	 2.4481929211	-0.2954206623	 2.2707199561	-0.331759
H	 0.6093445355	 1.9454769855	 0.5218885615	 0.152782
H	-0.3855308299	 1.9261390607	-0.9484090436	 0.134569
H	-1.1379926939	 1.7836789606	 0.6520120477	 0.132821
H	-0.2608315601	-0.4365174118	-2.1111155233	 0.105016
H	-0.577129276	-2.9167467793	-1.2680650244	 0.093603
H	 2.0487548765	-2.0082485551	-0.9216387745	 0.284131
H	-1.0726798767	-2.6323488275	 1.013768044	 0.116511
H	 0.6489722161	-2.9729377789	 1.2304452071	 0.132776
H	-0.6649922982	-0.5756835324	 2.0198949253	 0.126106
45.2965	135.5618	139.0335	188.5632	226.2834	305.6745	344.1665	402.254	411.2399	468.9598	512.0669	605.1728	626.8171	750.8403	786.7277	861.342	884.0872	919.7879	972.2914	987.6663	1036.3756	1060.2803	1067.7739	1081.0076	1160.0574	1199.2472	1237.8698	1272.4879	1284.0151	1310.953	1330.5149	1344.4036	1415.8844	1434.0023	1478.0545	1479.1621	1486.6597	1720.3443	2348.301	3023.5618	3037.618	3060.909	3074.0215	3076.1675	3122.4971	3132.2364	3195.2189	3792.8699
CC1=CC(O)CC1C#N	CC1=C[C@@H](O)C[C@H]1C#N	
InChI=1S/C7H9NO/c1-5-2-7(9)3-6(5)4-8/h2,6-7,9H,3H2,1H3	InChI=1S/C7H9NO/c1-5-2-7(9)3-6(5)4-8/h2,6-7,9H,3H2,1H3/t6-,7+/m0/s1
