19
gdb 95572	2.38801	1.58799	1.05464	2.9802	76.74	-0.2448	-0.0269	0.218	1143.6335	0.160247	-423.056422	-423.048128	-423.047184	-423.089342	32.09	
O	 0.0373158861	 1.3972037142	 0.1157214173	-0.437486
C	 0.0164060547	 0.0001578603	 0.0035639398	 0.039699
C	-1.4407193816	-0.5036759223	 0.0865476073	-0.199027
C	-1.6145163993	-2.0341032713	 0.0666456448	-0.273043
C	-1.4139522294	-2.6514442265	-1.298049224	-0.03867
C	-0.2833260145	-2.5896600603	-1.9996741009	-0.068526
C	 0.9836500658	-1.9067028076	-1.5189121805	-0.346953
C	 0.7506306071	-0.4251983917	-1.2708818909	 0.374141
O	 1.1466690047	 0.4294956706	-2.0355998783	-0.327838
H	 0.4562761861	 1.7092879101	-0.7033281206	 0.291293
H	 0.5750721073	-0.4501459833	 0.8446559987	 0.085156
H	-1.8447578207	-0.097202731	 1.0196767306	 0.115077
H	-2.0104682747	-0.0488722569	-0.7308708958	 0.111514
H	-0.9188839139	-2.4848166719	 0.7910478488	 0.109394
H	-2.6181927494	-2.2760879346	 0.4271502145	 0.109603
H	-2.2668864429	-3.1633286401	-1.7361062901	 0.096696
H	-0.2386506131	-3.0347329022	-2.9887769803	 0.103938
H	 1.3333973956	-2.3716058248	-0.5874103904	 0.125378
H	 1.7770262924	-1.995181751	-2.26279906	 0.129654
83.3622	103.5764	226.9103	287.6986	301.1921	322.3063	369.1405	437.5301	463.4796	514.0225	596.7018	621.2783	693.74	747.2905	804.9686	858.2203	894.2984	937.3164	981.5522	991.5609	1027.5019	1058.7965	1063.0066	1112.272	1154.1853	1174.4058	1226.6373	1252.3743	1260.4062	1296.8591	1309.4602	1334.0255	1354.2294	1375.5934	1408.1325	1449.6014	1468.1605	1486.5281	1489.5335	1715.6717	1791.2462	2938.6626	2993.8555	3021.2174	3043.9038	3081.323	3090.0459	3119.1129	3155.3975	3182.3625	3669.6992
OC1CCC=CCC1=O	O[C@H]1CCC=CCC1=O	
InChI=1S/C7H10O2/c8-6-4-2-1-3-5-7(6)9/h1-2,7,9H,3-5H2	InChI=1S/C7H10O2/c8-6-4-2-1-3-5-7(6)9/h1-2,7,9H,3-5H2/t7-/m0/s1
