14
gdb 27400	1.95074	1.83663	0.94598	4.9049	67.67	-0.2117	0.0077	0.2194	1132.2174	0.101846	-473.888432	-473.880708	-473.879764	-473.920404	29.949	
O	-0.1788488108	 1.3170314716	 0.0107357445	-0.424598
C	 0.0340977104	-0.0185086532	 0.0027724788	 0.515323
C	 1.2236671052	-0.6617625671	-0.0070866071	-0.442122
C	 1.2956258594	-2.1261661843	-0.0145736864	 0.425642
O	 2.3571594988	-2.7417718672	-0.0248301502	-0.415348
C	-0.011163946	-2.7909995451	-0.0114970379	-0.442122
C	-1.1602824084	-2.0779956613	-0.0014934664	 0.515323
O	-2.425244353	-2.5564621975	 0.0027115538	-0.424598
N	-1.1511536275	-0.7072221694	 0.0057678926	-0.41373
H	 0.674497904	 1.7640280334	 0.0083503991	 0.316535
H	 2.1535726527	-0.10564663	-0.0095280387	 0.097576
H	-0.03201731	-3.8742937169	-0.017335397	 0.097576
H	-2.3894100372	-3.5191148296	-0.0025895178	 0.316535
H	-2.0229391777	-0.2016531136	 0.0131456626	 0.278009
168.3604	179.656	223.0392	330.0979	353.2681	363.5985	382.5248	449.0793	504.325	513.0182	576.1232	623.0787	636.1273	683.9359	709.6572	806.9325	837.7443	941.477	1022.9467	1045.8986	1193.8146	1198.4789	1205.1392	1263.0928	1271.9984	1352.7883	1489.5503	1574.5848	1644.28	1716.3075	1727.8256	3200.9236	3201.9971	3651.7049	3830.7023	3831.3175
OC1=CC(=O)C=C(O)N1	Oc1cc(=O)cc(O)[nH]1	
InChI=1S/C5H5NO3/c7-3-1-4(8)6-5(9)2-3/h1-2H,(H3,6,7,8,9)	InChI=1S/C5H5NO3/c7-3-1-4(8)6-5(9)2-3/h1-2H,(H3,6,7,8,9)
