19
gdb 102395	1.89925	1.39226	1.06709	4.2883	71.45	-0.266	0.0259	0.2919	1215.6938	0.159202	-456.336258	-456.32611	-456.325166	-456.371232	36.766	
N	 0.0410403174	 1.3701739223	 0.4638544031	-0.538102
C	-0.0020353462	-0.0200739562	-0.014828559	-0.197039
C	-1.4593231195	-0.5558690877	-0.0322293476	 0.044371
C	-2.2426098212	-0.1261622345	 1.2512250203	-0.087907
O	-1.4516465187	-0.117946652	 2.4089095727	-0.417979
C	-2.2296709581	-0.0464230242	-1.2834465668	-0.093523
O	-1.6492876465	-0.4472625564	-2.5029306044	-0.416659
C	-1.400805795	-2.0183290673	-0.1354904653	 0.264203
N	-1.3749767676	-3.1656220796	-0.2809454292	-0.349267
H	 1.0089397201	 1.6529749845	 0.5809800884	 0.246472
H	-0.3513984545	 2.0012365432	-0.2286718619	 0.241133
H	 0.4220077279	-0.1650175057	-1.0167216233	 0.125712
H	 0.5771305127	-0.6234198152	 0.6875617323	 0.136762
H	-2.6776608408	 0.8646077982	 1.0519791609	 0.09257
H	-3.0697552188	-0.8207471709	 1.422218066	 0.127932
H	-0.8310326011	 0.6151376852	 2.2732422583	 0.294134
H	-3.2822212577	-0.3569076697	-1.2066472472	 0.112249
H	-2.2132616251	 1.0487074744	-1.281562607	 0.113636
H	-1.7176385975	-1.4076450084	-2.5661965204	 0.301303
77.9005	110.4413	135.1807	157.7832	186.9162	231.5561	265.9712	281.5456	324.312	391.0154	403.3964	452.2748	473.2948	570.7016	650.718	682.2707	735.2814	850.5474	868.467	920.792	980.352	1054.375	1063.3822	1091.8054	1105.7153	1122.9402	1152.6236	1220.0603	1235.5883	1298.1017	1340.0372	1387.0945	1405.1449	1418.0761	1433.4896	1452.1058	1495.9066	1502.9636	1508.2443	1660.4968	2343.8642	2988.2071	2999.8633	3026.1979	3073.742	3091.2875	3105.5947	3499.0461	3573.1587	3692.5954	3788.9926
NCC(CO)(CO)C#N	NCC(CO)(CO)C#N	
InChI=1S/C5H10N2O2/c6-1-5(2-7,3-8)4-9/h8-9H,1,3-4,6H2	InChI=1S/C5H10N2O2/c6-1-5(2-7,3-8)4-9/h8-9H,1,3-4,6H2
