21
gdb 33152	4.76676	0.78304	0.71481	3.7815	86.51	-0.2102	0.0381	0.2483	1670.0761	0.18318	-383.323722	-383.314051	-383.313106	-383.359294	34.651	
C	 0.0898046085	 1.53071966	-0.0255240455	-0.380959
C	 0.0345566852	 0.002018871	 0.0172972831	-0.168348
C	-1.4062243051	-0.5244155476	 0.0079072419	-0.162587
N	-1.4918490324	-1.9743906921	 0.0415535108	 0.028022
C	-1.7462068479	-2.8032026485	-1.0099725402	-0.007926
N	-1.7077857955	-4.0713667958	-0.6713850144	-0.324182
C	-1.4080505556	-4.0828951249	 0.6752583647	 0.278582
C	-1.2822678158	-5.360535196	 1.4402712405	-0.484998
C	-1.2695457679	-2.7953019952	 1.1300187248	-0.21403
H	 1.1237617711	 1.886594168	-0.0160990385	 0.123116
H	-0.3879536555	 1.9220080251	-0.930587481	 0.119454
H	-0.4219795976	 1.9728926246	 0.8364641124	 0.119174
H	 0.5694735011	-0.4227816407	-0.8399394162	 0.113218
H	 0.5436298337	-0.3684557912	 0.914522357	 0.110701
H	-1.9612955121	-0.1197023882	 0.8623422007	 0.11965
H	-1.9236113825	-0.1860752217	-0.896008069	 0.119951
H	-1.9590050774	-2.4153589868	-1.9962485514	 0.119397
H	-1.0364766362	-5.1697340572	 2.4886973256	 0.112437
H	-2.2148784258	-5.9343265442	 1.4073008698	 0.130881
H	-0.4988787098	-5.9982500684	 1.0164145395	 0.130784
H	-1.0469514126	-2.3920584602	 2.1048202452	 0.117662
51.6516	78.8647	83.9294	105.2893	235.6987	241.7656	270.3516	300.6308	379.2063	402.601	628.3788	658.9827	685.1999	722.8215	750.4894	769.4769	818.8915	882.085	901.5676	980.7542	1016.1178	1041.5214	1063.1059	1064.0786	1120.311	1131.1089	1186.1301	1247.6382	1259.8399	1312.642	1321.6113	1331.6983	1392.4574	1402.3361	1415.4971	1421.3694	1432.5255	1475.9699	1482.0866	1490.0537	1494.1775	1501.0981	1511.0834	1539.2893	1601.3557	3031.8972	3032.4802	3033.0244	3042.5135	3064.8642	3086.34	3086.4372	3103.1945	3111.6044	3112.8765	3235.7721	3261.8678
CCCN1C=NC(C)=C1	CCCn1cnc(C)c1	
InChI=1S/C7H12N2/c1-3-4-9-5-7(2)8-6-9/h5-6H,3-4H2,1-2H3	InChI=1S/C7H12N2/c1-3-4-9-5-7(2)8-6-9/h5-6H,3-4H2,1-2H3
