16
gdb 17874	3.27865	2.11756	1.97009	3.2898	63.92	-0.2245	-0.0205	0.204	769.042	0.132419	-383.734168	-383.727729	-383.726785	-383.764617	25.203	
O	-0.022239378	 0.0336088627	 0.0041144355	-0.314467
C	-0.0316110131	 1.2284687181	 0.000950913	 0.429187
C	-1.1179110766	 2.3173493531	 0.0958747371	-0.145039
C	-0.0347950334	 3.1496111876	 0.8580687052	-0.279051
C	 1.0338816833	 2.3551334245	 0.0473109302	 0.012105
O	 1.1978791904	 2.8542605317	-1.2799399644	-0.275966
C	 0.0442958611	 3.5214556222	-1.7950144112	-0.066484
C	-1.2858648723	 2.8880724057	-1.3357728182	-0.238911
H	-2.0687226622	 2.0751815377	 0.5728029378	 0.089958
H	-0.0488331993	 4.2345334437	 0.7453028097	 0.114817
H	 0.0111498268	 2.8920637145	 1.9186238492	 0.1195
H	 2.027610411	 2.171703823	 0.4574849081	 0.097453
H	 0.0705488478	 4.5775654725	-1.4938459359	 0.102447
H	 0.1434339253	 3.4942587871	-2.8833358531	 0.118587
H	-1.5967101515	 2.0845043906	-2.0114134969	 0.125843
H	-2.0728745394	 3.6504786553	-1.3542617661	 0.110021
133.5378	224.0607	240.1325	412.3954	430.0925	460.2674	533.6287	667.6501	776.1811	809.0147	819.8821	830.3237	912.0708	925.5703	934.2193	1025.0181	1029.6839	1059.7643	1083.5133	1104.7845	1142.5243	1160.6044	1202.2374	1233.7896	1257.1563	1274.6366	1294.9212	1333.6481	1360.1404	1404.2329	1482.4802	1493.0924	1524.6485	1899.6056	3004.1163	3038.3606	3076.9384	3078.8081	3094.5182	3105.7739	3114.6004	3136.5329
O=C1C2CC1OCC2	O=C1[C@H]2C[C@@H]1OCC2	
InChI=1S/C6H8O2/c7-6-4-1-2-8-5(6)3-4/h4-5H,1-3H2	InChI=1S/C6H8O2/c7-6-4-1-2-8-5(6)3-4/h4-5H,1-3H2/t4-,5+/m1/s1
