18
gdb 87265	3.59941	0.93687	0.83248	2.5703	69.05	-0.2419	0.0302	0.2721	1373.8079	0.145956	-476.221875	-476.212265	-476.211321	-476.257284	34.901	
O	-0.0091837234	 1.1229983595	 0.4155001986	-0.431691
C	-0.082633921	-0.2115628095	-0.0147489898	 0.003706
C	-0.6723346057	-1.2553192027	 0.9135236489	-0.386076
C	-1.4911444578	-0.6913991955	-0.2304466491	 0.42734
O	-2.5141562072	 0.2139150996	 0.0670590438	-0.490805
C	-1.83737632	-1.5652328801	-1.4115583176	-0.22561
N	-2.9561082753	-2.4549487729	-1.1370299811	-0.263394
C	-2.7762761884	-3.7547882713	-0.7852534753	 0.160932
O	-1.707710207	-4.3320476143	-0.7576597303	-0.333079
H	 0.552027504	 1.1648939348	 1.1964253807	 0.298612
H	 0.7006610042	-0.5067455229	-0.7109777776	 0.100089
H	-0.310562775	-2.2750743223	 0.8412345024	 0.144916
H	-0.9529100125	-0.9238352145	 1.9081250294	 0.112673
H	-2.0744500965	 1.0339366734	 0.3345056739	 0.291515
H	-2.0870740016	-0.9312391519	-2.2691554412	 0.114741
H	-0.9904337459	-2.2011933243	-1.6763619297	 0.140795
H	-3.8639307418	-2.0402250821	-0.9967184557	 0.258193
H	-3.735515029	-4.2526975629	-0.5417739901	 0.077143
35.2651	58.8887	130.924	199.3179	251.9588	273.3866	296.4993	346.733	370.9821	424.3143	457.9215	488.589	543.7472	656.6619	728.4587	752.4062	855.3024	889.8053	933.472	981.3464	1002.6188	1030.7172	1043.4876	1051.9741	1097.6071	1161.8013	1209.0595	1230.0493	1250.0028	1290.2579	1344.1435	1369.8084	1399.453	1427.7366	1433.541	1462.3713	1485.974	1529.1704	1796.6901	2940.1088	3049.7292	3115.2148	3127.0925	3131.6659	3228.454	3637.1282	3730.7683	3814.6539
OC1CC1(O)CNC=O	O[C@H]1C[C@]1(O)CNC=O	
InChI=1S/C5H9NO3/c7-3-6-2-5(9)1-4(5)8/h3-4,8-9H,1-2H2,(H,6,7)	InChI=1S/C5H9NO3/c7-3-6-2-5(9)1-4(5)8/h3-4,8-9H,1-2H2,(H,6,7)/t4-,5-/m0/s1
