14
gdb 45963	3.03952	1.54636	1.20292	0.4695	64.43	-0.2677	-0.058	0.2097	990.9641	0.101352	-473.821335	-473.81409	-473.813145	-473.853474	26.914	
N	-0.2426308697	 1.3216722684	-0.1797113702	-0.511866
C	-0.0468729029	 0.0715376894	-0.1587623821	 0.420062
O	 1.1671922221	-0.4827535563	-0.413300397	-0.269082
C	 1.3586001536	-1.9051434101	-0.4619511946	-0.177247
C	 0.1360132164	-2.6882119183	-0.9382769346	 0.379006
O	 0.2054814048	-3.5848429941	-1.7416728694	-0.295037
C	-1.1378001915	-2.2547684642	-0.2890343235	-0.08571
O	-0.9677928703	-1.871849826	 1.0819614912	-0.23457
C	-1.1951836888	-0.8343564666	 0.135739017	-0.030085
H	 0.6201644735	 1.8169655538	-0.4143397222	 0.231107
H	 2.1814578513	-2.0820804735	-1.1553441985	 0.150125
H	 1.6397119514	-2.2690164937	 0.5341501789	 0.151725
H	-2.0443910548	-2.7993442725	-0.5385616327	 0.128915
H	-2.1536516851	-0.3294883264	 0.2052544977	 0.142657
77.0873	135.0615	209.0027	292.0734	390.0544	435.4162	482.8359	498.533	573.8754	698.0428	716.5626	771.5309	874.1767	880.7408	907.2619	923.9461	1000.2114	1013.6035	1057.9955	1115.4255	1162.6209	1232.8599	1239.	1263.421	1323.5319	1343.4803	1392.2926	1430.2447	1483.4038	1747.2307	1830.6372	3036.9563	3134.4845	3163.7698	3179.9941	3471.1267
N=C1OCC(=O)C2OC12	[NH][C]1OCC(=O)[C@H]2O[C@@H]12	
InChI=1S/C5H5NO3/c6-5-4-3(9-4)2(7)1-8-5/h3-4,6H,1H2	InChI=1S/C5H5NO3/c6-5-4-3(9-4)2(7)1-8-5/h3-4,6H,1H2/t3-,4-/m1/s1
