20
gdb 117488	2.30657	1.13959	0.77742	2.2345	80.43	-0.2342	-0.0564	0.1778	1495.9521	0.166851	-440.308396	-440.297451	-440.296507	-440.346726	37.613	
C	-0.2420076427	 1.4338530811	 0.1702416838	-0.392335
C	-0.0646488473	-0.0660973322	 0.0266270833	-0.034732
O	-1.3563706287	-0.6722370263	 0.1748167261	-0.25693
C	-1.4131279275	-2.0222802312	 0.0781492747	 0.314239
N	-0.3728827261	-2.7091050568	-0.133038001	-0.30964
C	-0.3807840403	-4.1566266366	-0.245459887	-0.303585
C	-2.8488465434	-2.5053557459	 0.2573641503	 0.319289
C	-3.9168730892	-1.4567801285	 0.4752891051	-0.47039
O	-3.0963020897	-3.6896023753	 0.2215866519	-0.293024
H	 0.7253197327	 1.9335302951	 0.0629442063	 0.122753
H	-0.9173293316	 1.8238647675	-0.5967308879	 0.126601
H	-0.6530830427	 1.6877192214	 1.1515579495	 0.126659
H	 0.3484472789	-0.3416970612	-0.9497345203	 0.118085
H	 0.6108515337	-0.4767206515	 0.7848973707	 0.118139
H	 0.6411591487	-4.488659544	-0.4489994654	 0.111758
H	-0.7313609198	-4.6398840104	 0.6729140019	 0.133701
H	-1.0341353125	-4.5083901748	-1.0510011743	 0.133552
H	-3.9357426764	-0.754525864	-0.363752043	 0.149452
H	-4.8840962937	-1.9486664639	 0.582319117	 0.136369
H	-3.6890489924	-0.8633507926	 1.3659721982	 0.150038
7.3998	72.5339	121.9882	142.3346	148.0573	163.3244	229.6716	249.7779	279.2652	329.3085	362.5392	427.4953	429.6405	481.9574	648.4355	695.0343	759.5411	809.8935	905.0685	968.2336	1038.8114	1056.793	1068.0304	1105.6708	1126.405	1139.6759	1183.113	1217.1194	1285.9313	1292.4726	1382.4018	1392.8914	1419.3523	1434.9536	1456.1515	1464.9827	1477.8825	1486.0965	1495.8481	1497.6431	1519.6863	1720.6245	1804.0554	3024.4853	3043.3888	3045.0582	3049.9764	3078.4301	3085.8199	3098.9593	3114.3778	3119.6464	3122.524	3158.5557
CCOC(=NC)C(C)=O	CCOC(=NC)C(=O)C	
InChI=1S/C6H11NO2/c1-4-9-6(7-3)5(2)8/h4H2,1-3H3	InChI=1S/C6H11NO2/c1-4-9-6(7-3)5(2)8/h4H2,1-3H3
