22
gdb 113553	3.0188	1.03601	0.95966	1.7605	83.31	-0.233	0.0756	0.3086	1378.9699	0.192519	-404.304159	-404.294432	-404.293488	-404.338992	35.91	
C	 0.3398105845	 1.5366340975	 0.1568011317	-0.377283
C	-0.2047637921	 0.1533601969	-0.1873112636	-0.11926
N	 0.6075475948	-0.4751740365	-1.2266709321	-0.115638
C	 1.7548853235	-1.2719833084	-0.7792159851	-0.327168
C	 0.5551821623	-1.9133146249	-1.3613016409	 0.278745
C	-0.4211867801	-2.9114847894	-0.7387476837	-0.147857
O	-0.5964712103	-3.5562887847	-2.0156470488	-0.298653
C	 0.338144928	-2.6598746971	-2.6801282005	 0.077797
C	-0.2890232549	-1.8965879608	-3.827993805	-0.388869
H	 1.3556842666	 1.4682352695	 0.5594512595	 0.119228
H	 0.3724875952	 2.1680330019	-0.7354058784	 0.128668
H	-0.2898547786	 2.0238820281	 0.9074307452	 0.113278
H	-0.2573409565	-0.4650510144	 0.7264973114	 0.083398
H	-1.2280740512	 0.2399488293	-0.5718806809	 0.106569
H	 2.6682074401	-1.1641805506	-1.3594621714	 0.115893
H	 1.907409963	-1.3879172594	 0.2945109904	 0.106757
H	 0.0006122138	-3.5900548309	 0.0139783525	 0.102544
H	-1.3610399554	-2.4944269221	-0.3536026331	 0.103776
H	 1.2202850715	-3.2197373615	-3.0219190886	 0.075104
H	-1.150887303	-1.318118652	-3.4844746297	 0.11858
H	 0.4375389649	-1.2035775122	-4.2635867834	 0.122497
H	-0.6190194664	-2.5909707483	-4.6067123455	 0.121893
68.6569	88.2113	142.3691	152.8201	201.2962	219.5995	253.9866	313.3712	389.28	431.4559	448.6118	525.61	614.2453	775.089	790.5949	817.2511	871.2179	877.7706	917.0176	963.234	1005.5385	1022.8952	1054.6226	1081.4844	1091.8274	1106.1575	1115.8421	1141.2159	1158.0681	1172.2986	1193.9494	1227.6518	1284.6822	1310.7588	1330.4866	1375.5901	1386.4647	1404.1712	1409.425	1441.7872	1481.5034	1487.2502	1488.4231	1491.0303	1507.2668	1520.356	1522.2552	2943.5414	2998.9228	3006.8518	3039.5456	3041.1484	3042.018	3047.4628	3078.268	3108.9164	3114.6623	3120.4662	3122.3909	3167.3165
CCN1CC11COC1C	CCN1C[C@]21CO[C@H]2C	
InChI=1S/C7H13NO/c1-3-8-4-7(8)5-9-6(7)2/h6H,3-5H2,1-2H3	InChI=1S/C7H13NO/c1-3-8-4-7(8)5-9-6(7)2/h6H,3-5H2,1-2H3/t6-,7-,8?/m0/s1
