15
gdb 8825	2.93351	1.6203	1.09564	4.1948	64.28	-0.2567	0.0132	0.2699	1050.6311	0.116583	-399.79015	-399.781137	-399.780193	-399.824388	31.437	
C	 0.0155814318	 1.3975070247	 0.0416621603	-0.336195
N	-0.1299107583	-0.041716166	-0.083483754	-0.310441
C	-1.3141795876	-0.6714456672	 0.0372048029	 0.404318
O	-2.3792836369	-0.1297304051	 0.2901155255	-0.39387
C	-1.2891631151	-2.2223256451	-0.0963447535	-0.120246
O	-2.6077891219	-2.6792126368	-0.2179567323	-0.418227
C	-0.4435361422	-2.6676698585	-1.205731858	 0.311439
C	 0.2831182059	-3.0218286299	-2.095637126	-0.464696
H	 0.2461537681	 1.8613375564	-0.9237548681	 0.136418
H	-0.930696913	 1.7963825622	 0.4075347515	 0.173786
H	 0.8111019629	 1.6451865829	 0.7511087053	 0.133779
H	 0.6502815182	-0.5881894855	-0.4151038229	 0.258391
H	-0.8396275802	-2.5956768215	 0.8420266052	 0.12061
H	-3.1463767075	-1.8908317313	-0.0222607555	 0.298702
H	 0.9073251258	-3.3492403392	-2.8905136804	 0.206232
56.4077	77.9794	114.6881	152.6169	239.1083	247.8867	364.6075	405.3275	473.0371	487.0418	529.6234	591.4003	611.7961	625.1996	682.447	796.9462	891.7968	979.8351	1052.8707	1144.8807	1152.9195	1179.107	1246.1089	1271.2831	1348.8339	1443.7598	1446.9398	1495.662	1499.865	1579.0706	1781.5222	2231.9177	2935.5209	3035.7257	3093.1547	3159.6493	3500.2879	3621.7174	3625.5952
CNC(=O)C(O)C#C	CNC(=O)[C@@H](O)C#C	
InChI=1S/C5H7NO2/c1-3-4(7)5(8)6-2/h1,4,7H,2H3,(H,6,8)	InChI=1S/C5H7NO2/c1-3-4(7)5(8)6-2/h1,4,7H,2H3,(H,6,8)/t4-/m0/s1
