17
gdb 12985	2.71112	2.58286	1.59953	2.0831	68.12	-0.2387	-0.0208	0.2179	837.5176	0.142571	-363.872141	-363.86475	-363.863806	-363.903603	28.142	
C	-0.1187746705	 1.5239676014	 0.0806284705	-0.478955
C	 0.0100366325	 0.0263874972	 0.0057455903	 0.216571
C	-0.8124639729	-0.9030469098	 0.8488896619	-0.280966
N	 0.6079553638	-0.7410946397	 1.1229093958	-0.132645
C	 1.4338918502	-1.8338154101	 0.5399468266	-0.161602
C	 1.1171712007	-1.9400667182	-0.963508853	-0.360517
C	 0.4483396508	-0.5960643766	-1.291679419	 0.37947
O	 0.3448618778	-0.0920127616	-2.3813121649	-0.323952
H	 0.8417979721	 2.0086735623	-0.1192277075	 0.129704
H	-0.8311251522	 1.8737875973	-0.6721205201	 0.139023
H	-0.4628154081	 1.8358532999	 1.0694499273	 0.125017
H	-1.4784514908	-0.4616022126	 1.5851791414	 0.12643
H	-1.1696735325	-1.8362897586	 0.4181911075	 0.115628
H	 2.4815220529	-1.5589040231	 0.6935728962	 0.119726
H	 1.2483715208	-2.7583631945	 1.0935097542	 0.114522
H	 2.0032254012	-2.0713537747	-1.5870713181	 0.138283
H	 0.4299790044	-2.7559897885	-1.2128814492	 0.134265
111.3743	144.7226	209.066	259.4997	307.8996	433.5169	469.0888	529.069	615.4571	653.2385	683.1441	775.4342	794.6407	849.4461	911.2319	962.5356	990.9218	1022.4162	1034.8989	1094.0648	1107.7793	1110.9368	1161.3359	1196.3919	1240.6984	1284.5382	1308.9422	1343.43	1372.4225	1414.1214	1458.3356	1481.4111	1491.9114	1500.6912	1513.7016	1835.9631	3045.662	3054.701	3056.59	3097.9816	3100.2879	3112.9474	3122.345	3130.045	3186.473
CC12CN1CCC2=O	C[C@]12CN1CCC2=O	
InChI=1S/C6H9NO/c1-6-4-7(6)3-2-5(6)8/h2-4H2,1H3	InChI=1S/C6H9NO/c1-6-4-7(6)3-2-5(6)8/h2-4H2,1H3/t6-,7?/m1/s1
