18
gdb 93377	3.15443	1.42546	1.09759	3.4177	72.69	-0.2331	-0.0257	0.2074	1109.1237	0.147996	-439.079539	-439.071461	-439.070517	-439.112272	30.852	
C	-0.1687815086	 1.4946991785	 0.0385625657	-0.403313
C	 0.0222557836	-0.0160422082	 0.034106754	 0.126372
O	 0.6959010912	-0.3408947407	-1.1718346696	-0.248577
C	 0.9223660011	-1.7173126494	-1.3722896426	-0.179044
C	 1.5944626321	-2.4571197341	-0.2152082988	 0.390494
O	 1.9585292888	-3.6042041342	-0.335585205	-0.31476
C	 1.6477278727	-1.7326380068	 1.091470687	-0.158316
N	 2.2702764723	-0.3793432303	 1.0900893373	-0.316435
C	 0.8239042632	-0.4957643025	 1.2367311985	-0.053512
H	 0.8061734954	 1.9892016825	 0.0395856505	 0.141351
H	-0.7190997675	 1.807365214	-0.8521462609	 0.128061
H	-0.7284741412	 1.8111639781	 0.9240383047	 0.111909
H	-0.9622982027	-0.5180987948	 0.0588739192	 0.067755
H	-0.0225380628	-2.2558574052	-1.5697277754	 0.117487
H	 1.543988589	-1.8150312219	-2.2660977083	 0.144454
H	 1.8196235248	-2.3767491315	 1.9488054779	 0.105149
H	 2.7105918885	-0.2358007587	 1.9954820057	 0.243821
H	 0.37210262	-0.3083680347	 2.2089564699	 0.097103
65.0219	179.2056	207.0872	230.3071	277.1878	329.8113	412.5069	420.646	477.5956	593.6131	639.3103	661.5238	749.8652	813.2642	853.1322	899.3299	908.2682	943.1659	1014.142	1031.2478	1066.347	1109.5902	1139.1254	1150.9617	1156.8372	1185.6848	1238.6408	1265.0241	1282.8723	1348.8769	1356.131	1384.6176	1392.0222	1405.3596	1439.8566	1453.5367	1483.6521	1500.4272	1812.8967	2937.6265	2949.1489	3046.7885	3101.3203	3120.9719	3129.2499	3132.4458	3160.6138	3505.7624
CC1OCC(=O)C2NC12	C[C@H]1OCC(=O)[C@H]2N[C@@H]12	
InChI=1S/C6H9NO2/c1-3-5-6(7-5)4(8)2-9-3/h3,5-7H,2H2,1H3	InChI=1S/C6H9NO2/c1-3-5-6(7-5)4(8)2-9-3/h3,5-7H,2H2,1H3/t3-,5+,6-/m1/s1
