23
gdb 100463	3.54195	0.59307	0.5591	1.8133	92.49	-0.2471	0.0404	0.2876	2124.2898	0.202511	-388.273343	-388.261561	-388.260617	-388.312461	41.488	
C	 0.0824726377	 1.5467028494	 0.0465305076	-0.394127
C	-0.0017664161	 0.0191969705	-0.0134738874	-0.155967
C	-1.4485936112	-0.5348053137	-0.0369181828	-0.14674
C	-2.231629328	-0.11373673	-1.2975125472	-0.383514
C	-1.439960263	-1.9919258105	 0.1019886032	 0.023456
C	-1.4085206306	-3.1923899319	 0.2115814615	 0.091894
C	-1.3944695326	-4.6565492478	 0.2990760854	-0.016476
C	-2.8162665776	-5.2345347405	 0.3511907294	-0.381034
O	-0.6330962483	-5.2429336043	-0.7570141762	-0.415609
H	 1.1236356172	 1.8710519074	 0.137116443	 0.115947
H	-0.3297154686	 2.0192563258	-0.8500078645	 0.119879
H	-0.4629992241	 1.94030192	 0.9119774639	 0.114564
H	 0.5294741546	-0.3543059715	-0.8974094025	 0.104271
H	 0.5110787913	-0.4085831902	 0.8545608474	 0.108168
H	-1.9730091111	-0.1203235815	 0.8370175458	 0.101644
H	-1.7276807632	-0.4727426935	-2.2007014648	 0.120601
H	-3.2403431061	-0.5346496411	-1.2839206223	 0.122739
H	-2.3182066818	 0.9742155387	-1.361183903	 0.116975
H	-0.8631082031	-4.9541689131	 1.2115741542	 0.114196
H	-3.375533452	-4.9542573923	-0.5473620724	 0.114054
H	-2.7647741898	-6.3250801303	 0.4081365721	 0.1227
H	-3.3595775826	-4.8548691023	 1.2215199737	 0.122337
H	-0.9545549011	-4.8643153974	-1.5827485339	 0.280042
10.5603	66.0215	70.8423	106.5254	169.8002	208.653	217.9299	250.3468	271.1633	284.5065	315.9231	332.1812	409.0309	462.535	499.6832	560.9398	597.7579	716.1391	778.3937	828.3788	891.7139	954.093	975.1771	1004.3925	1032.7466	1056.1629	1088.5495	1107.6473	1132.1761	1160.9885	1200.7625	1280.1762	1282.438	1313.2675	1340.1693	1342.8157	1375.6024	1397.3505	1404.9951	1415.1537	1417.5562	1483.8592	1487.1774	1491.1786	1492.7714	1498.5041	1505.3059	1510.3643	2353.4955	2992.8537	3033.0447	3033.2644	3036.1007	3038.5218	3042.0174	3071.4538	3100.6595	3109.4417	3113.1954	3114.4471	3122.3052	3125.209	3805.6802
CCC(C)C#CC(C)O	CC[C@@H](C)C#C[C@@H](C)O	
InChI=1S/C8H14O/c1-4-7(2)5-6-8(3)9/h7-9H,4H2,1-3H3	InChI=1S/C8H14O/c1-4-7(2)5-6-8(3)9/h7-9H,4H2,1-3H3/t7-,8-/m1/s1
