21
gdb 62226	4.7768	0.53872	0.50228	2.2365	86.86	-0.2503	-0.0226	0.2278	2131.7259	0.178672	-387.073207	-387.062253	-387.061309	-387.110703	38.309	
C	 0.208154215	 1.5925071772	-0.0573878377	-0.386845
C	 0.0401700676	 0.0590643788	-0.0444327066	-0.165095
C	-1.4421372059	-0.3882935393	 0.0042885469	-0.172287
C	-2.1748872784	 0.0029489046	 1.2923255846	-0.206797
C	-3.6171248566	-0.5342528928	 1.3285621304	-0.276659
C	-4.2953628574	-0.2329700353	 2.6451285972	 0.159584
O	-5.3278965065	 0.372607852	 2.7711996221	-0.235804
C	 0.7043682612	-0.5377410082	-1.2028918966	 0.317023
C	 1.2319471548	-1.0201331184	-2.1696333401	-0.459064
H	 1.2653351368	 1.8619062318	-0.1200499045	 0.129402
H	-0.3031365897	 2.0271669875	-0.9218943403	 0.127103
H	-0.20327485	 2.0415033123	 0.8505202877	 0.118308
H	 0.5330883323	-0.3275928119	 0.8596356363	 0.104552
H	-1.9651032088	 0.0289460318	-0.8651520104	 0.110823
H	-1.4759412909	-1.4778224888	-0.1108822964	 0.109195
H	-1.6211686532	-0.3829305493	 2.1594407893	 0.102444
H	-2.2013457945	 1.092940976	 1.4020178025	 0.11785
H	-4.2230290746	-0.1166376499	 0.5190853427	 0.123659
H	-3.5959090519	-1.6276202604	 1.2095562192	 0.1192
H	-3.7475668447	-0.6197520223	 3.5379412724	 0.068916
H	 1.7073954656	-1.4503315653	-3.0159813988	 0.194491
46.1134	49.935	89.0515	106.2892	127.2177	183.1316	210.027	263.9256	288.1454	342.4696	396.7579	522.0128	532.2011	551.0937	628.4962	636.7858	746.3534	785.4186	839.732	897.4738	925.7825	989.003	1010.1933	1040.1088	1057.4066	1111.6121	1122.6385	1162.0716	1205.0313	1246.1121	1287.7647	1311.3657	1329.4577	1344.86	1361.0448	1392.3277	1409.0695	1430.3628	1464.8248	1482.0694	1494.885	1500.5545	1505.27	1837.7927	2234.3737	2844.8872	2996.861	3010.5565	3015.2497	3032.3952	3044.7824	3057.5993	3079.21	3099.8302	3118.3928	3124.77	3504.7465
CC(CCCC=O)C#C	C[C@@H](CCCC=O)C#C	
InChI=1S/C8H12O/c1-3-8(2)6-4-5-7-9/h1,7-8H,4-6H2,2H3	InChI=1S/C8H12O/c1-3-8(2)6-4-5-7-9/h1,7-8H,4-6H2,2H3/t8-/m1/s1
