18
gdb 69816	3.14402	1.61037	1.27477	0.642	76.71	-0.2306	0.0121	0.2427	1005.3276	0.149418	-401.91512	-401.907762	-401.906818	-401.946413	30.374	
O	-0.0071771517	 1.3801747344	 0.0746084241	-0.474293
C	 0.0478011481	-0.0223484948	-0.0179746714	 0.356671
C	-0.5289725757	-0.6494889008	-1.2715227736	-0.351566
C	-1.2937825347	-0.7272614891	 0.0284986663	-0.072241
C	-1.3912467997	-2.0206347214	 0.785385339	-0.052674
N	-0.7017479547	-3.1937736404	 0.2282072981	-0.340067
C	-0.1788780898	-2.5642277008	 1.4721657583	-0.087203
C	 1.0840475208	-1.7995955371	 1.3812870468	-0.042019
C	 1.1771476977	-0.6500187661	 0.7051641724	-0.132988
H	 0.5947276884	 1.7423303236	-0.5848543283	 0.281436
H	-0.9019589395	 0.0423973568	-2.0192811979	 0.106797
H	-0.0875152227	-1.5682640935	-1.6378856452	 0.140542
H	-2.1420511837	-0.0610232342	 0.1332319601	 0.09616
H	-2.3447651999	-2.1865381841	 1.2791211879	 0.083539
H	-1.2130482705	-4.0391784798	 0.4692302958	 0.229749
H	-0.3247368753	-3.1243582798	 2.3927603559	 0.084136
H	 1.9489619147	-2.1916102026	 1.9089502091	 0.089077
H	 2.113919158	-0.0977020502	 0.6916422926	 0.084942
161.123	192.6533	249.0015	342.0376	374.8079	389.1935	475.1446	495.9525	553.7777	637.1214	684.6812	719.2001	780.8791	812.6256	873.4134	879.8901	903.2351	923.304	937.1984	954.3522	978.2442	1021.9877	1041.9617	1066.5279	1088.8899	1110.99	1161.4708	1185.927	1209.133	1216.1735	1259.7778	1282.418	1338.1157	1388.0714	1405.2045	1427.1625	1450.5421	1473.466	1699.3887	3128.4106	3135.5606	3142.2622	3147.5715	3171.8963	3183.1551	3239.9619	3497.5672	3795.3329
OC12CC1C1NC1C=C2	O[C@]12C[C@H]1[C@H]1N[C@H]1C=C2	
InChI=1S/C7H9NO/c9-7-2-1-5-6(8-5)4(7)3-7/h1-2,4-6,8-9H,3H2	InChI=1S/C7H9NO/c9-7-2-1-5-6(8-5)4(7)3-7/h1-2,4-6,8-9H,3H2/t4-,5-,6+,7+/m0/s1
