17
gdb 17416	4.29507	1.58753	1.51415	2.5652	68.38	-0.2238	0.0727	0.2965	895.2591	0.14233	-363.785597	-363.778426	-363.777482	-363.81677	28.066	
O	-0.1934736606	 1.4115638086	-0.1335305394	-0.422199
C	-0.0699862753	 0.0214058819	-0.0414373719	 0.027668
C	-0.5027750842	-0.6856320323	 1.225411616	-0.406395
C	-1.3551180248	-0.7367924343	-0.0130751472	 0.366829
C	-2.7809894593	-0.1992965429	-0.1570517885	-0.23681
N	-3.2195745782	-1.4520440557	-0.8825073367	-0.127926
C	-2.380311308	-1.5318751243	-2.0918784351	-0.239241
C	-1.7826378923	-1.9472511203	-0.8058737467	-0.12584
H	 0.4972225584	 1.810089728	 0.4064079692	 0.289126
H	 0.7643764236	-0.4084013268	-0.5976822364	 0.085096
H	 0.0369708037	-1.578711884	 1.5261050624	 0.113947
H	-0.8571021365	-0.0664182651	 2.0442918012	 0.1161
H	-3.320604346	-0.1096860797	 0.7885439759	 0.112494
H	-2.9088400392	 0.7185356544	-0.7393315	 0.116451
H	-2.7025116262	-2.3111290993	-2.7762273887	 0.11882
H	-2.0454432401	-0.6121421607	-2.5680636215	 0.117163
H	-1.547781545	-2.9795479074	-0.5639617327	 0.094718
120.5715	164.8512	221.7488	304.5471	387.4308	430.4446	471.1594	493.2438	579.037	744.2758	778.2117	811.1432	850.3326	907.7784	909.4708	949.4993	981.0213	1025.2056	1041.9983	1048.9272	1089.3075	1098.0366	1112.1447	1126.536	1170.2892	1192.1038	1215.2339	1238.3153	1278.991	1290.4265	1319.2706	1377.2468	1431.9504	1489.3301	1499.5004	1504.3518	3050.9037	3088.4816	3099.3534	3108.2808	3117.2265	3153.6	3194.063	3206.7522	3802.9019
OC1CC11CN2CC12	O[C@H]1C[C@]21CN1C[C@@H]21	
InChI=1S/C6H9NO/c8-5-1-6(5)3-7-2-4(6)7/h4-5,8H,1-3H2	InChI=1S/C6H9NO/c8-5-1-6(5)3-7-2-4(6)7/h4-5,8H,1-3H2/t4-,5-,6-,7?/m0/s1
