17
gdb 132503	3.08607	1.34938	0.94985	2.6595	79.67	-0.2405	-0.0218	0.2187	1212.253	0.135479	-426.059159	-426.050679	-426.049735	-426.092627	31.042	
C	 0.0088816222	 1.51022535	 0.0470474877	-0.466541
C	 0.0147630741	 0.0073278872	-0.0250264584	 0.316282
C	-0.1351851375	-0.6833720566	-1.2235020768	-0.16867
C	-0.1192744752	-2.0781282281	-1.2107890279	-0.143619
C	 0.0442041119	-2.7689089779	-0.0167036605	 0.115852
C	 0.0739925397	-4.2678860793	 0.0938334567	-0.499283
C	 0.1837881679	-1.9529556277	 1.1124549931	 0.275592
F	 0.3443940228	-2.5640124045	 2.2908790691	-0.075342
N	 0.174189792	-0.6465343004	 1.1410242074	-0.367483
H	 0.9483271922	 1.8756351155	 0.4742552586	 0.142002
H	-0.1253576645	 1.9599827414	-0.9394446668	 0.118604
H	-0.7954200539	 1.8578239009	 0.7034445698	 0.142005
H	-0.2625555981	-0.1414808318	-2.153512412	 0.097218
H	-0.2349128415	-2.6337726541	-2.1368136782	 0.106292
H	 1.0196617242	-4.6170241163	 0.5218094955	 0.14215
H	-0.7222741682	-4.6348069525	 0.7500941746	 0.14215
H	-0.0498377282	-4.7329664259	-0.8872985718	 0.122794
78.6118	103.77	128.0243	233.2351	271.8324	303.7799	321.7951	464.1549	476.2438	527.6297	573.9125	639.8054	730.2371	772.7412	779.942	841.9119	952.2709	968.9802	1015.8408	1039.171	1059.1798	1067.17	1143.6102	1195.2178	1275.7177	1303.8994	1336.0989	1408.8167	1417.2149	1444.6254	1475.3608	1480.0193	1480.9473	1497.5443	1502.9623	1617.4421	1653.1763	3036.8207	3040.9101	3091.5366	3100.1513	3119.8786	3127.1822	3171.2667	3197.7239
CC1=CC=C(C)C(F)=N1	Cc1ccc(C)c(F)n1	
InChI=1S/C7H8FN/c1-5-3-4-6(2)9-7(5)8/h3-4H,1-2H3	InChI=1S/C7H8FN/c1-5-3-4-6(2)9-7(5)8/h3-4H,1-2H3
