19
gdb 53381	4.34902	0.77352	0.70557	1.4528	81.87	-0.2508	0.0336	0.2844	1658.602	0.157367	-423.007733	-422.997771	-422.996827	-423.045601	34.109	
C	 0.2699775212	 1.6906340386	-0.3696815136	-0.501229
C	 0.0786397014	 0.2665101086	-0.1404033406	 0.13612
C	-0.0914659176	-0.9101080125	 0.0464230302	 0.013166
C	-0.2453178671	-2.3356895331	 0.2735027921	-0.083736
C	 0.459264944	-2.8743167249	 1.5489853486	-0.096292
O	-0.422833814	-3.8738736022	 2.0369949529	-0.271961
C	-1.5479440756	-3.9317186076	 1.1672879586	 0.247382
C	-2.8158329846	-4.1819388209	 1.9508481538	-0.40595
O	-1.6087807625	-2.6860817831	 0.5133527379	-0.260116
H	 1.2693013625	 1.8938296572	-0.7698499632	 0.151914
H	-0.4599707662	 2.0756720886	-1.0899184755	 0.154625
H	 0.1593508923	 2.2632228856	 0.5574242462	 0.152253
H	 0.1211003645	-2.8931520754	-0.6043960691	 0.097426
H	 1.4424447484	-3.3002416823	 1.318741261	 0.106638
H	 0.5759210688	-2.0845663061	 2.2987302387	 0.112154
H	-1.3764956588	-4.7320030027	 0.4216144713	 0.058775
H	-2.9698593977	-3.372664389	 2.6683848014	 0.132343
H	-3.6718426218	-4.2324161026	 1.2730564138	 0.127411
H	-2.7358509473	-5.1294928361	 2.4893179155	 0.129076
9.3306	51.5522	73.3028	101.0592	177.5181	220.1474	279.7639	323.8585	347.009	439.4454	490.5393	525.1302	629.1438	703.8738	827.4339	850.011	899.6094	954.6393	1032.1273	1051.4885	1053.2792	1057.93	1080.6617	1122.6036	1151.5859	1165.6966	1193.5629	1216.8836	1313.9324	1356.0806	1362.3407	1394.242	1402.823	1413.6903	1444.7991	1475.6675	1478.1993	1484.6654	1487.5893	1527.4037	2378.3994	2913.5726	2961.5296	3030.0167	3030.9135	3054.5219	3076.4647	3092.357	3093.0123	3134.2546	3140.613
CC#CC1COC(C)O1	CC#C[C@H]1CO[C@@H](C)O1	
InChI=1S/C7H10O2/c1-3-4-7-5-8-6(2)9-7/h6-7H,5H2,1-2H3	InChI=1S/C7H10O2/c1-3-4-7-5-8-6(2)9-7/h6-7H,5H2,1-2H3/t6-,7+/m1/s1
