14
gdb 30470	3.90274	1.06955	0.84391	4.2691	77.03	-0.2158	-0.0424	0.1734	1282.8146	0.10106	-432.895697	-432.887216	-432.886272	-432.929972	29.479	
C	-0.0261937172	 1.4446700954	-0.024339272	-0.332131
N	-0.0501667273	-0.0079865837	-0.0521084945	-0.378221
C	 0.5166800537	-0.6185029276	-0.9906247135	 0.512651
N	 0.5824429325	-2.0006726066	-1.1529074973	-0.350801
C	 1.3021439649	-2.3107952623	-2.2775881711	-0.15943
C	 1.6827512171	-1.144337308	-2.8385354632	 0.223836
O	 1.2057031422	-0.0857438682	-2.0702003016	-0.252305
C	 2.4286777475	-0.8746842966	-3.9973976949	 0.224231
N	 3.0458824813	-0.6615946886	-4.9557779527	-0.335044
H	 0.8343697282	 1.8808630748	-0.5462769863	 0.12571
H	-0.9378382657	 1.8516660845	-0.4805734775	 0.127345
H	-0.0086902332	 1.7790908587	 1.0168810805	 0.126444
H	 0.1735467751	-2.6377618819	-0.4925072256	 0.287116
H	 1.4898657709	-3.3207619201	-2.5991826701	 0.180599
33.9925	117.9574	130.8269	169.5578	233.2793	264.0205	391.2225	492.9182	501.1895	534.3225	589.0259	626.6933	715.6965	746.3311	821.8158	908.8836	959.8709	1069.6754	1093.7997	1132.8255	1137.9351	1188.4816	1286.4262	1342.7407	1433.5478	1448.6203	1492.8776	1503.9623	1665.7344	1831.3048	2334.9815	3009.0595	3063.8016	3095.8701	3293.4429	3697.7398
CN=C1NC=C(O1)C#N	CN=c1[nH]cc(o1)C#N	
InChI=1S/C5H5N3O/c1-7-5-8-3-4(2-6)9-5/h3H,1H3,(H,7,8)	InChI=1S/C5H5N3O/c1-7-5-8-3-4(2-6)9-5/h3H,1H3,(H,7,8)
