16
gdb 12332	3.30225	2.22156	1.35115	3.0371	68.47	-0.2036	0.0137	0.2173	886.9401	0.132398	-379.974037	-379.966129	-379.965185	-380.007694	27.735	
C	-0.0072490413	 1.4999354458	-0.0227047686	-0.352539
N	 0.0121695574	 0.0469939484	-0.0012911074	-0.148756
C	 0.093066224	-0.6677461621	-1.1932852531	 0.041835
C	 0.0957986548	-1.9985174829	-1.2613982503	-0.145363
C	-0.0009741267	-2.8359716409	-0.0225437877	-0.197721
N	 0.0434246548	-1.980918848	 1.1568259905	-0.373908
C	-0.0103361106	-0.6136124194	 1.2262736059	 0.485029
O	-0.0586034805	-0.0218217537	 2.2915256648	-0.419454
H	 0.9045181937	 1.8992412025	-0.4824401559	 0.123908
H	-0.8739701502	 1.8717978299	-0.5810617923	 0.12407
H	-0.0686934614	 1.8430966241	 1.0085172259	 0.174813
H	 0.1556042474	-0.0475929132	-2.0806289645	 0.112206
H	 0.1588148014	-2.4968387841	-2.2195211972	 0.098462
H	-0.9281218014	-3.434804895	-0.0306181003	 0.11114
H	 0.8258804442	-3.562290839	 0.0185088817	 0.113896
H	-0.0028285955	-2.4107152821	 2.0664314885	 0.252381
28.1543	74.1716	128.0094	165.1736	350.6554	441.2107	454.0014	519.5732	565.3953	589.0757	712.972	733.1863	759.757	889.3188	940.1001	951.0346	1025.6315	1046.0749	1103.5421	1160.3916	1193.3443	1237.7273	1249.5253	1306.5333	1346.499	1408.7411	1430.7026	1472.9875	1493.3912	1501.6714	1517.4303	1538.6826	1749.3654	1788.7984	2942.4573	2972.7499	3021.2159	3071.9763	3171.5483	3191.1401	3223.8135	3648.1241
CN1C=CCNC1=O	CN1C=CCNC1=O	
InChI=1S/C5H8N2O/c1-7-4-2-3-6-5(7)8/h2,4H,3H2,1H3,(H,6,8)	InChI=1S/C5H8N2O/c1-7-4-2-3-6-5(7)8/h2,4H,3H2,1H3,(H,6,8)
