14
gdb 15630	3.59725	1.71385	1.17785	3.717	60.43	-0.269	-0.0355	0.2335	950.9952	0.107277	-419.71915	-419.711768	-419.710824	-419.75125	26.229	
O	 0.0088210669	 1.4361699055	 0.0076686232	-0.421032
C	 0.0042889756	 0.021625357	 0.001859275	-0.175941
C	-1.4063683995	-0.4547783554	 0.012339442	 0.154662
C	-2.5483543613	 0.2314110176	 0.0245418729	-0.196311
C	-3.6951973897	-0.7344299216	 0.030284901	-0.129652
O	-3.0958379348	-2.0303501587	 0.0203769311	-0.229949
C	-1.7307571329	-1.9038552456	 0.0104334207	 0.40153
O	-0.9876011705	-2.8462119413	-0.0007544859	-0.353404
H	 0.9230845634	 1.7331523199	 0.0007982745	 0.295589
H	 0.5118041527	-0.3918234833	-0.8851210276	 0.120103
H	 0.5273355138	-0.3991806383	 0.8762533269	 0.120077
H	-2.6635451449	 1.3059898562	 0.0293769583	 0.140864
H	-4.3269774325	-0.6408996359	 0.9228805116	 0.136704
H	-4.3415384662	-0.6340638764	-0.8510771337	 0.136759
75.887	170.4747	180.2908	236.6944	269.0239	345.8288	395.6404	578.3162	631.0643	751.6977	775.6717	826.2948	852.6464	949.5253	1025.4564	1035.3775	1043.9061	1085.7855	1113.9877	1200.1489	1200.1547	1231.788	1241.6377	1326.6163	1371.0857	1470.2034	1493.7268	1501.9623	1724.6122	1860.3579	2970.4786	2988.5386	3023.8731	3055.4632	3244.6134	3840.4802
OCC1=CCOC1=O	OCC1=CCOC1=O	
InChI=1S/C5H6O3/c6-3-4-1-2-8-5(4)7/h1,6H,2-3H2	InChI=1S/C5H6O3/c6-3-4-1-2-8-5(4)7/h1,6H,2-3H2
