19
gdb 70457	3.46721	1.06042	0.94373	4.603	80.6	-0.231	0.0266	0.2575	1287.3393	0.158782	-382.039145	-382.030362	-382.029418	-382.072901	32.862	
C	-0.0966259294	 1.5072242357	 0.0544190252	-0.479859
C	 0.0159876208	 0.0120734551	 0.072520023	 0.361411
C	-0.8021476108	-0.8988461961	 0.9578651028	-0.334703
C	 0.7052423504	-0.955832569	 1.0253385628	-0.121306
C	 1.2276611627	-1.7109306043	-0.1958646305	-0.184431
N	 0.5858074739	-0.6961731178	-1.0845562426	-0.122988
C	-0.3265301686	-1.1421736718	-2.1250065428	-0.300872
C	 0.3997879565	-1.7935126551	-3.2213142378	 0.275409
N	 0.9672029259	-2.3259240594	-4.0750003469	-0.305197
H	 0.838229514	 1.9622419842	-0.2862442538	 0.132753
H	-0.8986330152	 1.839102333	-0.61639842	 0.120924
H	-0.3295272668	 1.8884245174	 1.0531136724	 0.124252
H	-1.2868072261	-0.4061230258	 1.7948910585	 0.117714
H	-1.3624144566	-1.7395469611	 0.5549938429	 0.106145
H	 1.2671807357	-0.738210618	 1.9236923295	 0.099484
H	 2.3144059684	-1.7165906869	-0.3150900585	 0.123248
H	 0.8502528255	-2.7356071471	-0.3150985414	 0.105451
H	-1.1057692478	-1.8442092099	-1.7766678072	 0.12823
H	-0.8471944725	-0.266483983	-2.5299694154	 0.154338
54.9102	120.3953	171.1909	194.7707	234.8826	304.2287	361.2856	387.7307	420.3914	486.4391	515.6005	640.493	730.2381	814.4184	838.4533	882.9721	929.2285	933.4387	962.8989	983.9757	998.8365	1040.6025	1068.4534	1077.4864	1112.1756	1119.2069	1150.3073	1210.8402	1234.4533	1266.3634	1279.4549	1331.4057	1372.1955	1383.0931	1423.0167	1469.836	1478.8715	1486.4075	1499.5717	1513.2994	2365.7491	2941.9295	3012.5679	3027.1971	3060.1706	3085.9652	3089.273	3110.0198	3116.1681	3197.1937	3207.3445
CC12CC1CN2CC#N	C[C@]12C[C@H]1CN2CC#N	
InChI=1S/C7H10N2/c1-7-4-6(7)5-9(7)3-2-8/h6H,3-5H2,1H3	InChI=1S/C7H10N2/c1-7-4-6(7)5-9(7)3-2-8/h6H,3-5H2,1H3/t6-,7-/m0/s1
