19
gdb 116335	2.48263	1.62359	1.25268	1.6463	70.71	-0.2579	0.075	0.3329	1069.4389	0.159545	-460.12983	-460.121447	-460.120502	-460.163066	31.174	
C	 0.5890555506	 1.1135685887	 0.2443926286	-0.242605
O	 0.6121863466	-0.2824856975	 0.0020237869	-0.225007
C	 0.4441878274	-0.6156154406	-1.3442702656	 0.177529
O	 1.4979324775	-0.1493377045	-2.1673548523	-0.282368
C	 2.7629601203	-0.8171622482	-2.0862600488	-0.062853
C	 2.7827814057	-2.0625475274	-1.1825945821	-0.269613
C	 1.5408133122	-2.8988826805	-1.4232430091	 0.042307
O	 0.5957082136	-2.9508108062	-0.3505450793	-0.231734
C	 0.2894456261	-2.1324148116	-1.4715528243	 0.012645
H	 1.3918022924	 1.6319804494	-0.2926087814	 0.123029
H	-0.3734523442	 1.5536117633	-0.0571695361	 0.107564
H	 0.7210183798	 1.249938477	 1.3195822658	 0.128854
H	-0.4378434383	-0.1032121497	-1.7555795437	 0.073319
H	 3.0328185301	-1.0968229921	-3.112607853	 0.105036
H	 3.5095243793	-0.0943793936	-1.735809094	 0.105019
H	 3.699193438	-2.6264517842	-1.3787844348	 0.102317
H	 2.7836113964	-1.7628799794	-0.1322831312	 0.141681
H	 1.6322890644	-3.8212537435	-1.99368874	 0.09543
H	-0.549700438	-2.4692112994	-2.0766149955	 0.099448
90.0097	118.9054	140.9527	192.9332	211.4161	319.1688	395.0821	440.4307	490.4799	546.9068	610.5508	753.8333	812.2361	818.6391	863.4937	938.5135	951.1803	973.3866	1030.0196	1042.1913	1049.597	1089.7108	1100.6953	1143.9025	1165.73	1183.2686	1215.7654	1252.7676	1261.1828	1284.7653	1342.3893	1367.9644	1387.2573	1394.4087	1419.1908	1462.7165	1471.1214	1479.3417	1485.1324	1513.3333	1524.1299	2992.0621	3000.5735	3016.6857	3048.9377	3064.2521	3065.7985	3116.9729	3126.9165	3128.07	3137.2834
COC1OCCC2OC12	CO[C@H]1OCC[C@H]2O[C@@H]12	
InChI=1S/C6H10O3/c1-7-6-5-4(9-5)2-3-8-6/h4-6H,2-3H2,1H3	InChI=1S/C6H10O3/c1-7-6-5-4(9-5)2-3-8-6/h4-6H,2-3H2,1H3/t4-,5-,6+/m1/s1
