14
gdb 15735	6.96923	1.05095	0.98625	4.5279	63.77	-0.2755	-0.0487	0.2268	1134.1431	0.106819	-378.721638	-378.713789	-378.712845	-378.754877	27.047	
O	-0.0605544142	 0.1051708659	-0.6296862534	-0.300829
C	-0.0043936382	 1.2366658348	-0.2108455859	 0.39129
C	 1.2908235295	 1.8567644807	 0.3345374894	-0.468662
C	 2.4648898653	 1.0103688661	 0.1689491618	 0.290429
N	 3.4091114018	 0.3584149244	 0.0438775458	-0.29055
C	-1.1981460441	 2.1328702488	-0.1788487665	-0.109953
C	-2.0076776372	 2.194147262	-1.4435879778	-0.215361
N	-2.5196326527	 1.4990939539	-0.2751420867	-0.297179
H	 1.4565259096	 2.8256900952	-0.152795541	 0.178451
H	 1.1420083643	 2.0789085212	 1.3993554014	 0.183394
H	-1.1414958756	 3.0126966908	 0.4557777446	 0.106034
H	-2.505610986	 3.1265618454	-1.692392674	 0.135737
H	-1.6455075431	 1.6093103386	-2.2844200532	 0.141838
H	-2.3629606495	 0.4971655021	-0.3925673947	 0.25536
43.2783	92.22	126.0987	256.1661	262.1284	345.224	373.8678	433.1933	581.681	695.5933	819.3851	857.3616	884.1508	923.1619	955.2225	987.6099	1012.3204	1074.4893	1123.0324	1137.2513	1181.0474	1216.2717	1288.0366	1315.787	1326.7392	1404.3428	1435.6705	1498.7533	1806.6728	2377.6349	3036.4579	3071.1959	3115.812	3152.6647	3211.0138	3466.3893
O=C(CC#N)C1CN1	O=C(CC#N)[C@H]1CN1	
InChI=1S/C5H6N2O/c6-2-1-5(8)4-3-7-4/h4,7H,1,3H2	InChI=1S/C5H6N2O/c6-2-1-5(8)4-3-7-4/h4,7H,1,3H2/t4-/m1/s1
